/*--------------------------------*- C++ -*----------------------------------*\
| =========                 |                                                 |
| \\      /  F ield         | OpenFOAM: The Open Source CFD Toolbox           |
|  \\    /   O peration     | Version:  2212                                  |
|   \\  /    A nd           | Website:  www.openfoam.com                      |
|    \\/     M anipulation  |                                                 |
\*---------------------------------------------------------------------------*/
FoamFile
{
    version     2.0;
    format      ascii;
    arch        "LSB;label=32;scalar=64";
    class       volScalarField;
    location    "0.107";
    object      p;
}
// * * * * * * * * * * * * * * * * * * * * * * * * * * * * * * * * * * * * * //

dimensions      [0 2 -2 0 0 0 0];

internalField   nonuniform List<scalar> 
24240
(
33.4692
33.4679
33.4653
33.4615
33.4567
33.451
33.4446
33.4377
33.4305
33.4233
33.4162
33.4093
33.4029
33.397
33.3918
33.3872
33.3835
33.3805
33.3784
33.3773
30.8935
30.8931
30.8924
30.8914
30.89
30.8884
30.8866
30.8847
30.8827
30.8807
30.8786
30.8767
30.8748
30.8731
30.8716
30.8703
30.8692
30.8684
30.8678
30.8675
29.7691
29.7691
29.7692
29.7694
29.7696
29.7698
29.7701
29.7704
29.7707
29.771
29.7713
29.7715
29.7718
29.772
29.7722
29.7724
29.7726
29.7727
29.7728
29.7729
28.9354
28.9357
28.9363
28.9372
28.9384
28.9397
28.9413
28.9429
28.9446
28.9464
28.9481
28.9497
28.9513
28.9527
28.954
28.9551
28.956
28.9567
28.9573
28.9576
28.5361
28.5365
28.5374
28.5386
28.5401
28.542
28.5441
28.5463
28.5486
28.551
28.5533
28.5556
28.5577
28.5597
28.5615
28.563
28.5643
28.5653
28.566
28.5664
28.1926
28.1931
28.1941
28.1955
28.1974
28.1995
28.202
28.2046
28.2074
28.2102
28.213
28.2156
28.2182
28.2205
28.2226
28.2244
28.2259
28.2271
28.228
28.2284
28.04
28.0405
28.0415
28.0429
28.0448
28.047
28.0495
28.0522
28.055
28.0579
28.0607
28.0635
28.0661
28.0685
28.0707
28.0725
28.0741
28.0753
28.0762
28.0766
27.8944
27.8948
27.8958
27.8972
27.899
27.9012
27.9036
27.9063
27.909
27.9118
27.9146
27.9174
27.9199
27.9223
27.9244
27.9263
27.9278
27.929
27.9298
27.9303
27.8582
27.8587
27.8596
27.8608
27.8625
27.8645
27.8667
27.8691
27.8716
27.8742
27.8768
27.8793
27.8817
27.8839
27.8858
27.8876
27.889
27.8901
27.8908
27.8912
27.8598
27.8602
27.861
27.8621
27.8636
27.8654
27.8674
27.8695
27.8718
27.8742
27.8765
27.8788
27.8809
27.8829
27.8847
27.8862
27.8875
27.8885
27.8892
27.8895
27.9113
27.9116
27.9123
27.9133
27.9146
27.9161
27.9178
27.9197
27.9217
27.9238
27.9258
27.9278
27.9297
27.9314
27.933
27.9343
27.9354
27.9363
27.9369
27.9372
28.0866
28.0869
28.0875
28.0883
28.0894
28.0906
28.0921
28.0937
28.0954
28.0971
28.0988
28.1005
28.1021
28.1035
28.1048
28.106
28.1069
28.1077
28.1082
28.1085
28.199
28.1992
28.1997
28.2004
28.2013
28.2024
28.2036
28.205
28.2064
28.2079
28.2093
28.2108
28.2121
28.2133
28.2144
28.2154
28.2162
28.2169
28.2173
28.2175
28.5619
28.5621
28.5624
28.5629
28.5635
28.5642
28.5651
28.566
28.567
28.568
28.569
28.57
28.5709
28.5718
28.5726
28.5733
28.5738
28.5743
28.5747
28.5748
28.8151
28.8152
28.8154
28.8157
28.816
28.8165
28.817
28.8176
28.8182
28.8188
28.8194
28.82
28.8205
28.821
28.8215
28.8219
28.8222
28.8225
28.8228
28.8229
29.4439
29.4439
29.4439
29.4438
29.4437
29.4436
29.4435
29.4434
29.4433
29.4432
29.443
29.4429
29.4428
29.4427
29.4426
29.4425
29.4425
29.4425
29.4426
29.4426
30.0182
30.0181
30.0178
30.0173
30.0167
30.016
30.0153
30.0144
30.0135
30.0126
30.0116
30.0107
30.0099
30.0091
30.0084
30.0078
30.0073
30.007
30.0068
30.0067
31.3084
31.308
31.3071
31.3059
31.3044
31.3025
31.3004
31.2981
31.2958
31.2933
31.2909
31.2885
31.2863
31.2842
31.2824
31.2808
31.2795
31.2785
31.2779
31.2776
32.9014
32.9005
32.8989
32.8965
32.8934
32.8898
32.8856
32.8811
32.8764
32.8715
32.8668
32.8621
32.8578
32.8537
32.8502
32.8471
32.8446
32.8426
32.8413
32.8406
36.6028
36.6011
36.5977
36.5927
36.5863
36.5787
36.5701
36.5608
36.5511
36.5412
36.5314
36.5219
36.5131
36.505
36.4979
36.4918
36.4867
36.4828
36.48
36.4786
93.5494
93.5475
93.5437
93.5383
93.5312
93.5229
93.5135
93.5034
93.4928
93.482
93.4713
93.461
93.4512
93.4422
93.4341
93.4271
93.4212
93.4166
93.4133
93.4115
90.1174
90.1167
90.1153
90.1133
90.1107
90.1076
90.1041
90.1004
90.0965
90.0925
90.0886
90.0848
90.0812
90.0778
90.0748
90.0722
90.07
90.0683
90.067
90.0664
87.8665
87.8665
87.8664
87.8663
87.8662
87.8661
87.866
87.8658
87.8656
87.8655
87.8653
87.8651
87.8649
87.8648
87.8647
87.8645
87.8644
87.8644
87.8644
87.8644
86.2356
86.236
86.237
86.2384
86.2402
86.2423
86.2447
86.2473
86.25
86.2527
86.2554
86.2581
86.2606
86.2629
86.2649
86.2667
86.2682
86.2694
86.2703
86.2708
85.1948
85.1955
85.1969
85.199
85.2017
85.2049
85.2085
85.2124
85.2165
85.2206
85.2248
85.2288
85.2326
85.2362
85.2394
85.2422
85.2445
85.2464
85.2477
85.2484
84.3723
84.3732
84.375
84.3777
84.3811
84.3851
84.3896
84.3946
84.3997
84.405
84.4103
84.4154
84.4203
84.4248
84.4289
84.4324
84.4354
84.4378
84.4395
84.4403
83.9125
83.9135
83.9154
83.9181
83.9217
83.926
83.9308
83.936
83.9415
83.9472
83.9528
83.9583
83.9635
83.9684
83.9728
83.9766
83.9799
83.9824
83.9842
83.9851
83.5308
83.5317
83.5336
83.5364
83.5399
83.5441
83.5489
83.5541
83.5596
83.5652
83.5709
83.5764
83.5816
83.5865
83.5909
83.5948
83.5981
83.6006
83.6024
83.6034
83.4288
83.4297
83.4315
83.434
83.4374
83.4413
83.4458
83.4507
83.4559
83.4612
83.4665
83.4717
83.4767
83.4814
83.4856
83.4893
83.4924
83.4949
83.4966
83.4975
83.4481
83.4489
83.4505
83.4528
83.4558
83.4594
83.4634
83.4678
83.4725
83.4773
83.4822
83.487
83.4915
83.4958
83.4996
83.5031
83.506
83.5082
83.5098
83.5107
83.5884
83.5891
83.5905
83.5925
83.5951
83.5983
83.6019
83.6058
83.61
83.6143
83.6186
83.6229
83.6269
83.6308
83.6342
83.6373
83.64
83.642
83.6435
83.6443
84.0531
84.0537
84.0548
84.0565
84.0587
84.0614
84.0644
84.0677
84.0712
84.0749
84.0786
84.0822
84.0856
84.0889
84.0919
84.0946
84.0969
84.0987
84.1
84.1007
84.4227
84.4232
84.4241
84.4255
84.4273
84.4294
84.4319
84.4345
84.4374
84.4403
84.4433
84.4462
84.449
84.4517
84.4541
84.4563
84.4582
84.4597
84.4609
84.4615
85.3588
85.3591
85.3597
85.3606
85.3618
85.3632
85.3648
85.3666
85.3685
85.3704
85.3724
85.3743
85.3762
85.378
85.3797
85.3812
85.3826
85.3837
85.3846
85.385
86.1239
86.124
86.1243
86.1247
86.1252
86.1258
86.1265
86.1272
86.1281
86.1289
86.1298
86.1306
86.1315
86.1323
86.1331
86.1338
86.1345
86.1352
86.1357
86.136
87.6242
87.624
87.6238
87.6234
87.6229
87.6223
87.6216
87.6209
87.6202
87.6194
87.6187
87.6179
87.6172
87.6166
87.6161
87.6157
87.6155
87.6154
87.6154
87.6155
89.1467
89.1462
89.1453
89.144
89.1424
89.1403
89.1381
89.1356
89.1329
89.1302
89.1275
89.1249
89.1223
89.12
89.1179
89.1161
89.1147
89.1136
89.113
89.1127
91.6239
91.6229
91.621
91.6182
91.6146
91.6103
91.6054
91.6001
91.5945
91.5887
91.5829
91.5772
91.5718
91.5668
91.5623
91.5584
91.5551
91.5526
91.551
91.5501
94.7972
94.7955
94.7923
94.7876
94.7815
94.7743
94.766
94.757
94.7475
94.7378
94.728
94.7185
94.7094
94.701
94.6934
94.6867
94.6811
94.6767
94.6736
94.672
99.6488
99.646
99.6403
99.632
99.6213
99.6085
99.594
99.5782
99.5615
99.5445
99.5276
99.5112
99.4956
99.4812
99.4682
99.4568
99.4472
99.4396
99.4342
99.4312
152.316
152.314
152.31
152.304
152.296
152.287
152.277
152.265
152.254
152.241
152.23
152.218
152.207
152.197
152.187
152.179
152.172
152.167
152.163
152.161
148.25
148.249
148.248
148.246
148.243
148.239
148.235
148.231
148.226
148.221
148.217
148.212
148.208
148.204
148.2
148.197
148.194
148.192
148.191
148.19
145.443
145.443
145.443
145.443
145.443
145.442
145.442
145.442
145.442
145.441
145.441
145.441
145.44
145.44
145.44
145.44
145.439
145.439
145.439
145.439
143.063
143.063
143.064
143.066
143.068
143.07
143.073
143.076
143.079
143.082
143.086
143.089
143.092
143.094
143.097
143.099
143.101
143.102
143.103
143.104
141.565
141.566
141.567
141.57
141.573
141.577
141.581
141.586
141.59
141.595
141.6
141.605
141.61
141.614
141.618
141.622
141.625
141.627
141.629
141.63
140.27
140.271
140.273
140.276
140.28
140.285
140.291
140.297
140.303
140.309
140.316
140.322
140.328
140.334
140.339
140.343
140.347
140.35
140.352
140.353
139.571
139.572
139.574
139.578
139.582
139.587
139.593
139.6
139.607
139.614
139.621
139.628
139.635
139.641
139.647
139.652
139.656
139.659
139.662
139.663
138.991
138.992
138.995
138.998
139.002
139.008
139.014
139.02
139.027
139.035
139.042
139.049
139.056
139.062
139.068
139.073
139.078
139.081
139.084
139.085
138.831
138.832
138.835
138.838
138.842
138.847
138.853
138.859
138.866
138.873
138.88
138.887
138.893
138.899
138.905
138.91
138.915
138.918
138.921
138.922
138.873
138.874
138.876
138.879
138.883
138.887
138.892
138.898
138.904
138.911
138.917
138.923
138.93
138.935
138.941
138.945
138.95
138.953
138.955
138.956
139.106
139.107
139.108
139.111
139.114
139.118
139.123
139.128
139.134
139.14
139.145
139.151
139.157
139.162
139.167
139.171
139.175
139.178
139.18
139.181
139.815
139.816
139.817
139.82
139.822
139.826
139.83
139.834
139.839
139.844
139.849
139.853
139.858
139.863
139.867
139.871
139.874
139.877
139.879
139.88
140.444
140.445
140.446
140.448
140.45
140.453
140.456
140.459
140.463
140.467
140.471
140.475
140.478
140.482
140.485
140.489
140.491
140.494
140.495
140.496
141.866
141.867
141.867
141.869
141.87
141.872
141.874
141.876
141.878
141.881
141.883
141.886
141.888
141.891
141.893
141.895
141.897
141.899
141.9
141.901
143.1
143.1
143.1
143.101
143.101
143.102
143.102
143.103
143.104
143.105
143.106
143.107
143.108
143.109
143.11
143.111
143.112
143.113
143.113
143.114
145.404
145.404
145.404
145.403
145.402
145.401
145.4
145.399
145.397
145.396
145.395
145.393
145.392
145.391
145.39
145.39
145.389
145.389
145.389
145.389
147.656
147.655
147.654
147.652
147.649
147.646
147.643
147.639
147.635
147.631
147.627
147.623
147.619
147.616
147.613
147.61
147.608
147.606
147.605
147.605
151.34
151.338
151.336
151.332
151.327
151.321
151.315
151.308
151.3
151.292
151.284
151.276
151.269
151.262
151.255
151.249
151.245
151.241
151.239
151.237
155.369
155.367
155.363
155.357
155.349
155.339
155.329
155.317
155.305
155.292
155.279
155.266
155.254
155.243
155.232
155.223
155.215
155.208
155.204
155.201
161.171
161.168
161.162
161.152
161.14
161.125
161.108
161.089
161.07
161.05
161.029
161.01
160.991
160.973
160.956
160.942
160.929
160.919
160.911
160.907
208.924
208.922
208.918
208.912
208.905
208.896
208.886
208.875
208.864
208.852
208.84
208.829
208.818
208.808
208.798
208.79
208.782
208.777
208.772
208.77
204.801
204.8
204.799
204.797
204.794
204.79
204.786
204.781
204.777
204.772
204.767
204.762
204.758
204.754
204.75
204.746
204.743
204.741
204.739
204.738
201.658
201.658
201.658
201.658
201.658
201.657
201.657
201.657
201.656
201.656
201.655
201.655
201.654
201.654
201.653
201.653
201.653
201.652
201.652
201.652
199.059
199.059
199.06
199.062
199.064
199.066
199.069
199.072
199.075
199.078
199.081
199.084
199.087
199.09
199.093
199.095
199.097
199.099
199.1
199.1
197.242
197.243
197.245
197.247
197.251
197.255
197.259
197.264
197.269
197.275
197.28
197.285
197.291
197.295
197.3
197.304
197.307
197.31
197.312
197.313
195.676
195.677
195.679
195.683
195.687
195.692
195.698
195.704
195.711
195.718
195.725
195.731
195.738
195.744
195.75
195.755
195.759
195.763
195.765
195.767
194.802
194.803
194.806
194.809
194.814
194.82
194.826
194.833
194.84
194.848
194.856
194.863
194.871
194.878
194.884
194.89
194.895
194.899
194.902
194.903
194.093
194.094
194.097
194.1
194.105
194.111
194.117
194.125
194.132
194.14
194.148
194.156
194.164
194.171
194.178
194.184
194.189
194.193
194.196
194.198
193.893
193.895
193.897
193.9
193.905
193.911
193.917
193.924
193.931
193.939
193.947
193.955
193.962
193.969
193.976
193.982
193.987
193.991
193.994
193.996
193.967
193.968
193.97
193.973
193.977
193.982
193.988
193.995
194.001
194.008
194.016
194.023
194.03
194.037
194.043
194.049
194.054
194.058
194.061
194.062
194.287
194.287
194.289
194.292
194.296
194.301
194.306
194.312
194.318
194.324
194.331
194.337
194.344
194.35
194.356
194.361
194.366
194.37
194.373
194.374
195.199
195.2
195.202
195.204
195.207
195.211
195.215
195.22
195.226
195.231
195.237
195.242
195.248
195.253
195.258
195.263
195.267
195.271
195.274
195.275
196.055
196.056
196.057
196.059
196.061
196.064
196.068
196.072
196.076
196.08
196.084
196.089
196.093
196.098
196.102
196.106
196.109
196.113
196.115
196.116
197.844
197.844
197.845
197.846
197.848
197.849
197.852
197.854
197.857
197.859
197.862
197.865
197.868
197.871
197.874
197.877
197.879
197.882
197.884
197.885
199.457
199.457
199.457
199.458
199.458
199.458
199.459
199.46
199.461
199.461
199.462
199.463
199.464
199.466
199.467
199.468
199.47
199.471
199.472
199.473
202.241
202.24
202.24
202.239
202.238
202.236
202.235
202.233
202.232
202.23
202.228
202.227
202.225
202.224
202.223
202.222
202.222
202.222
202.222
202.222
205.013
205.013
205.011
205.009
205.006
205.002
204.998
204.994
204.99
204.985
204.98
204.975
204.971
204.967
204.963
204.96
204.957
204.955
204.954
204.954
209.056
209.054
209.051
209.047
209.042
209.035
209.028
209.02
209.011
209.002
208.993
208.984
208.975
208.967
208.96
208.953
208.947
208.942
208.939
208.938
213.572
213.57
213.566
213.559
213.551
213.541
213.529
213.517
213.503
213.489
213.475
213.461
213.447
213.434
213.422
213.411
213.401
213.393
213.388
213.385
219.444
219.44
219.434
219.424
219.411
219.396
219.378
219.359
219.338
219.317
219.295
219.274
219.253
219.233
219.214
219.197
219.182
219.17
219.16
219.154
264.808
264.807
264.803
264.798
264.792
264.784
264.775
264.766
264.755
264.745
264.734
264.724
264.713
264.704
264.695
264.686
264.679
264.674
264.669
264.667
260.537
260.536
260.535
260.533
260.53
260.527
260.523
260.519
260.515
260.51
260.506
260.501
260.497
260.493
260.489
260.485
260.482
260.48
260.478
260.477
257.229
257.229
257.229
257.229
257.229
257.228
257.228
257.228
257.227
257.227
257.227
257.226
257.226
257.225
257.225
257.225
257.224
257.224
257.224
257.223
254.332
254.333
254.334
254.335
254.337
254.339
254.342
254.345
254.348
254.351
254.354
254.357
254.36
254.362
254.365
254.367
254.369
254.37
254.371
254.372
252.324
252.325
252.327
252.329
252.332
252.336
252.341
252.346
252.351
252.356
252.361
252.367
252.372
252.377
252.381
252.385
252.388
252.391
252.393
252.394
250.549
250.55
250.553
250.556
250.56
250.565
250.57
250.577
250.583
250.59
250.597
250.604
250.611
250.617
250.623
250.628
250.633
250.636
250.639
250.64
249.552
249.553
249.556
249.559
249.564
249.569
249.576
249.583
249.59
249.598
249.605
249.613
249.621
249.628
249.635
249.641
249.646
249.65
249.653
249.655
248.756
248.757
248.76
248.763
248.768
248.774
248.78
248.788
248.795
248.803
248.811
248.82
248.828
248.835
248.842
248.849
248.855
248.859
248.863
248.864
248.535
248.536
248.538
248.542
248.547
248.552
248.559
248.566
248.573
248.581
248.589
248.597
248.605
248.613
248.62
248.627
248.632
248.637
248.641
248.642
248.645
248.646
248.648
248.651
248.655
248.661
248.666
248.673
248.68
248.687
248.695
248.703
248.71
248.717
248.724
248.731
248.736
248.741
248.744
248.746
249.046
249.047
249.049
249.052
249.055
249.06
249.065
249.071
249.078
249.084
249.091
249.098
249.105
249.112
249.119
249.125
249.13
249.135
249.138
249.14
250.123
250.124
250.125
250.128
250.131
250.135
250.14
250.145
250.15
250.156
250.162
250.168
250.174
250.18
250.186
250.191
250.196
250.2
250.204
250.205
251.173
251.174
251.175
251.177
251.18
251.183
251.186
251.19
251.194
251.199
251.204
251.209
251.214
251.219
251.223
251.228
251.232
251.236
251.239
251.24
253.249
253.249
253.25
253.251
253.253
253.255
253.257
253.259
253.262
253.265
253.268
253.271
253.275
253.278
253.281
253.285
253.288
253.291
253.293
253.295
255.161
255.161
255.161
255.161
255.161
255.162
255.162
255.163
255.164
255.165
255.166
255.167
255.169
255.17
255.172
255.173
255.175
255.177
255.178
255.179
258.35
258.35
258.349
258.348
258.347
258.346
258.344
258.342
258.341
258.339
258.337
258.336
258.334
258.333
258.332
258.332
258.332
258.332
258.332
258.332
261.464
261.463
261.462
261.459
261.456
261.453
261.449
261.444
261.439
261.434
261.43
261.425
261.42
261.416
261.412
261.408
261.405
261.403
261.402
261.402
265.998
265.997
265.994
265.99
265.985
265.978
265.971
265.963
265.954
265.945
265.935
265.926
265.917
265.908
265.9
265.892
265.886
265.881
265.877
265.875
270.756
270.754
270.75
270.743
270.735
270.725
270.714
270.701
270.687
270.673
270.659
270.644
270.63
270.616
270.603
270.591
270.58
270.571
270.564
270.561
276.879
276.876
276.87
276.86
276.848
276.833
276.816
276.797
276.777
276.756
276.735
276.713
276.691
276.67
276.65
276.632
276.615
276.6
276.588
276.582
319.423
319.421
319.419
319.415
319.409
319.403
319.396
319.388
319.38
319.371
319.362
319.353
319.344
319.335
319.327
319.32
319.314
319.308
319.304
319.302
315.202
315.202
315.2
315.199
315.196
315.193
315.19
315.187
315.183
315.179
315.175
315.17
315.166
315.162
315.159
315.155
315.152
315.15
315.148
315.147
311.814
311.814
311.814
311.814
311.813
311.813
311.813
311.813
311.813
311.812
311.812
311.812
311.812
311.811
311.811
311.81
311.81
311.81
311.809
311.809
308.813
308.814
308.815
308.816
308.818
308.82
308.822
308.825
308.827
308.83
308.833
308.836
308.839
308.841
308.844
308.846
308.847
308.849
308.85
308.85
306.694
306.695
306.697
306.699
306.702
306.706
306.71
306.714
306.719
306.724
306.729
306.734
306.738
306.743
306.747
306.751
306.754
306.757
306.759
306.76
304.811
304.812
304.814
304.817
304.82
304.825
304.83
304.836
304.842
304.849
304.855
304.862
304.868
304.874
304.88
304.885
304.89
304.893
304.896
304.897
303.74
303.741
303.744
303.747
303.751
303.756
303.762
303.769
303.776
303.783
303.79
303.798
303.805
303.812
303.819
303.825
303.83
303.835
303.838
303.84
302.9
302.901
302.903
302.906
302.911
302.916
302.922
302.929
302.936
302.944
302.952
302.96
302.968
302.976
302.983
302.989
302.995
303
303.004
303.005
302.675
302.676
302.678
302.682
302.686
302.691
302.697
302.704
302.711
302.719
302.727
302.735
302.743
302.751
302.758
302.765
302.771
302.776
302.78
302.782
302.824
302.825
302.827
302.83
302.834
302.839
302.845
302.851
302.858
302.865
302.873
302.88
302.888
302.896
302.903
302.909
302.915
302.92
302.924
302.926
303.299
303.3
303.302
303.304
303.308
303.312
303.318
303.324
303.33
303.337
303.344
303.351
303.358
303.365
303.372
303.378
303.384
303.389
303.393
303.395
304.505
304.505
304.507
304.509
304.513
304.516
304.521
304.526
304.531
304.537
304.543
304.55
304.556
304.562
304.569
304.574
304.58
304.585
304.588
304.59
305.712
305.713
305.714
305.716
305.718
305.721
305.725
305.729
305.733
305.738
305.743
305.748
305.753
305.759
305.764
305.769
305.774
305.778
305.781
305.783
307.99
307.99
307.991
307.992
307.993
307.995
307.997
308
308.003
308.006
308.009
308.012
308.016
308.02
308.024
308.028
308.031
308.035
308.037
308.039
310.125
310.125
310.125
310.125
310.126
310.126
310.127
310.128
310.129
310.13
310.131
310.132
310.134
310.136
310.138
310.14
310.142
310.144
310.146
310.147
313.542
313.542
313.542
313.541
313.54
313.538
313.537
313.535
313.534
313.532
313.531
313.53
313.528
313.528
313.527
313.527
313.527
313.527
313.528
313.528
316.892
316.892
316.89
316.888
316.885
316.882
316.878
316.874
316.869
316.865
316.86
316.855
316.851
316.847
316.843
316.839
316.837
316.835
316.833
316.833
321.573
321.572
321.569
321.565
321.56
321.554
321.547
321.539
321.531
321.522
321.513
321.504
321.495
321.486
321.478
321.471
321.464
321.458
321.455
321.453
326.474
326.472
326.468
326.462
326.455
326.445
326.435
326.423
326.41
326.397
326.383
326.369
326.355
326.341
326.327
326.315
326.303
326.294
326.286
326.283
332.536
332.533
332.528
332.519
332.508
332.495
332.479
332.461
332.442
332.422
332.402
332.38
332.359
332.338
332.317
332.297
332.278
332.262
332.249
332.241
373.315
373.314
373.312
373.309
373.304
373.299
373.294
373.287
373.28
373.273
373.266
373.258
373.25
373.243
373.236
373.229
373.223
373.218
373.214
373.212
369.054
369.053
369.052
369.051
369.049
369.047
369.045
369.042
369.04
369.036
369.033
369.03
369.027
369.024
369.021
369.018
369.015
369.013
369.011
369.01
365.645
365.645
365.645
365.645
365.645
365.645
365.645
365.645
365.645
365.645
365.645
365.645
365.644
365.644
365.644
365.644
365.643
365.643
365.643
365.642
362.574
362.574
362.575
362.576
362.578
362.58
362.582
362.584
362.586
362.589
362.592
362.594
362.597
362.599
362.601
362.603
362.605
362.606
362.607
362.607
360.395
360.396
360.397
360.399
360.402
360.405
360.408
360.412
360.416
360.421
360.425
360.43
360.434
360.438
360.442
360.446
360.449
360.451
360.453
360.454
358.449
358.45
358.451
358.454
358.457
358.461
358.466
358.471
358.476
358.482
358.488
358.494
358.5
358.505
358.511
358.516
358.52
358.523
358.526
358.527
357.339
357.34
357.342
357.345
357.349
357.353
357.359
357.364
357.371
357.377
357.384
357.391
357.398
357.405
357.411
357.417
357.422
357.426
357.429
357.431
356.483
356.484
356.486
356.489
356.493
356.498
356.503
356.509
356.516
356.523
356.531
356.538
356.545
356.553
356.56
356.566
356.572
356.576
356.58
356.582
356.268
356.269
356.271
356.274
356.278
356.283
356.288
356.295
356.301
356.309
356.316
356.324
356.331
356.339
356.346
356.353
356.359
356.364
356.368
356.37
356.457
356.458
356.459
356.462
356.466
356.471
356.476
356.482
356.488
356.495
356.502
356.51
356.517
356.525
356.532
356.539
356.545
356.55
356.554
356.556
356.999
356.999
357.001
357.004
357.007
357.011
357.016
357.022
357.028
357.034
357.041
357.048
357.055
357.062
357.069
357.076
357.082
357.087
357.091
357.093
358.304
358.305
358.306
358.308
358.311
358.315
358.319
358.324
358.329
358.335
358.341
358.347
358.354
358.36
358.367
358.373
358.379
358.383
358.387
358.389
359.638
359.639
359.64
359.642
359.644
359.647
359.65
359.654
359.658
359.663
359.668
359.673
359.679
359.684
359.69
359.695
359.7
359.705
359.708
359.71
362.059
362.059
362.06
362.061
362.063
362.064
362.067
362.069
362.072
362.075
362.079
362.082
362.086
362.091
362.095
362.099
362.103
362.106
362.109
362.111
364.359
364.359
364.36
364.36
364.36
364.361
364.362
364.363
364.364
364.365
364.367
364.368
364.37
364.373
364.375
364.378
364.38
364.382
364.384
364.386
367.937
367.937
367.936
367.936
367.935
367.934
367.933
367.931
367.93
367.929
367.928
367.927
367.926
367.926
367.926
367.926
367.926
367.927
367.927
367.928
371.439
371.438
371.437
371.435
371.433
371.43
371.426
371.423
371.419
371.415
371.41
371.406
371.402
371.399
371.395
371.392
371.39
371.388
371.387
371.386
376.252
376.25
376.248
376.245
376.24
376.235
376.229
376.222
376.214
376.206
376.198
376.19
376.181
376.173
376.165
376.158
376.151
376.146
376.142
376.14
381.214
381.212
381.209
381.204
381.197
381.189
381.18
381.169
381.158
381.145
381.132
381.119
381.106
381.092
381.079
381.067
381.055
381.045
381.038
381.034
387.313
387.311
387.306
387.299
387.289
387.277
387.263
387.248
387.23
387.212
387.193
387.173
387.152
387.131
387.11
387.09
387.071
387.054
387.041
387.033
426.332
426.331
426.329
426.327
426.324
426.32
426.316
426.312
426.306
426.301
426.295
426.289
426.283
426.277
426.271
426.266
426.261
426.256
426.253
426.252
422.102
422.101
422.101
422.1
422.099
422.097
422.096
422.094
422.092
422.09
422.088
422.085
422.083
422.08
422.078
422.076
422.074
422.072
422.071
422.07
418.695
418.696
418.696
418.696
418.696
418.696
418.696
418.697
418.697
418.697
418.697
418.697
418.697
418.697
418.697
418.697
418.697
418.696
418.696
418.696
415.613
415.614
415.614
415.615
415.617
415.618
415.62
415.622
415.624
415.626
415.629
415.631
415.633
415.635
415.637
415.639
415.64
415.641
415.642
415.642
413.412
413.413
413.414
413.416
413.418
413.42
413.423
413.427
413.43
413.434
413.438
413.442
413.445
413.449
413.453
413.456
413.458
413.46
413.461
413.462
411.445
411.446
411.448
411.45
411.452
411.456
411.46
411.464
411.469
411.474
411.479
411.484
411.489
411.494
411.499
411.503
411.507
411.51
411.512
411.513
410.324
410.324
410.326
410.329
410.332
410.336
410.34
410.345
410.35
410.356
410.362
410.368
410.374
410.38
410.386
410.391
410.396
410.399
410.402
410.404
409.475
409.475
409.477
409.48
409.483
409.487
409.492
409.498
409.503
409.51
409.516
409.523
409.53
409.536
409.543
409.549
409.554
409.558
409.561
409.563
409.28
409.281
409.283
409.286
409.289
409.293
409.298
409.304
409.31
409.316
409.323
409.33
409.337
409.344
409.351
409.357
409.363
409.367
409.371
409.373
409.508
409.509
409.511
409.513
409.516
409.521
409.525
409.531
409.537
409.543
409.55
409.556
409.563
409.57
409.577
409.584
409.589
409.594
409.598
409.6
410.11
410.111
410.112
410.115
410.118
410.122
410.126
410.131
410.137
410.143
410.149
410.156
410.163
410.17
410.176
410.183
410.189
410.194
410.197
410.199
411.49
411.491
411.492
411.495
411.497
411.501
411.505
411.509
411.514
411.52
411.525
411.532
411.538
411.544
411.551
411.557
411.562
411.567
411.57
411.573
412.925
412.925
412.926
412.928
412.93
412.933
412.936
412.94
412.944
412.948
412.953
412.959
412.964
412.97
412.975
412.981
412.986
412.99
412.993
412.995
415.44
415.441
415.441
415.442
415.444
415.446
415.448
415.451
415.453
415.457
415.46
415.464
415.468
415.473
415.477
415.481
415.485
415.489
415.491
415.493
417.86
417.86
417.86
417.86
417.861
417.862
417.863
417.864
417.865
417.867
417.869
417.871
417.873
417.876
417.878
417.881
417.884
417.886
417.888
417.889
421.523
421.523
421.522
421.522
421.521
421.52
421.52
421.519
421.518
421.518
421.517
421.517
421.517
421.517
421.517
421.517
421.518
421.518
421.519
421.52
425.122
425.121
425.12
425.118
425.116
425.114
425.111
425.108
425.105
425.102
425.099
425.095
425.092
425.089
425.086
425.084
425.081
425.08
425.079
425.079
429.96
429.959
429.957
429.954
429.95
429.946
429.941
429.935
429.929
429.922
429.915
429.907
429.9
429.893
429.885
429.879
429.873
429.868
429.864
429.862
434.942
434.941
434.938
434.934
434.928
434.921
434.913
434.904
434.894
434.884
434.872
434.861
434.848
434.836
434.824
434.812
434.802
434.793
434.786
434.782
440.973
440.971
440.967
440.961
440.953
440.943
440.931
440.917
440.902
440.886
440.869
440.85
440.831
440.812
440.792
440.772
440.754
440.738
440.726
440.718
478.607
478.606
478.606
478.604
478.602
478.6
478.598
478.595
478.592
478.588
478.584
478.58
478.576
478.572
478.567
478.563
478.56
478.557
478.556
478.555
474.417
474.417
474.417
474.416
474.416
474.415
474.414
474.413
474.412
474.411
474.41
474.408
474.407
474.405
474.403
474.402
474.4
474.399
474.398
474.398
471.031
471.031
471.032
471.032
471.032
471.032
471.033
471.033
471.034
471.034
471.034
471.035
471.035
471.035
471.035
471.035
471.035
471.034
471.034
471.034
467.96
467.96
467.961
467.962
467.963
467.964
467.966
467.967
467.969
467.971
467.973
467.974
467.976
467.978
467.98
467.981
467.982
467.982
467.983
467.983
465.76
465.761
465.762
465.763
465.765
465.767
465.769
465.772
465.774
465.777
465.781
465.784
465.787
465.79
465.793
465.795
465.797
465.798
465.799
465.8
463.799
463.8
463.801
463.803
463.805
463.808
463.811
463.814
463.818
463.822
463.826
463.83
463.834
463.839
463.842
463.846
463.849
463.851
463.853
463.853
462.683
462.684
462.685
462.687
462.69
462.693
462.697
462.701
462.705
462.71
462.715
462.72
462.725
462.73
462.735
462.739
462.743
462.746
462.748
462.749
461.858
461.859
461.86
461.862
461.865
461.869
461.873
461.877
461.882
461.887
461.893
461.898
461.904
461.91
461.916
461.921
461.925
461.929
461.931
461.933
461.69
461.691
461.692
461.694
461.697
461.701
461.705
461.71
461.715
461.721
461.726
461.733
461.739
461.745
461.751
461.756
461.761
461.765
461.768
461.77
461.958
461.959
461.96
461.962
461.965
461.969
461.973
461.978
461.983
461.989
461.995
462.001
462.007
462.013
462.02
462.025
462.03
462.035
462.038
462.039
462.613
462.613
462.615
462.617
462.62
462.623
462.627
462.632
462.637
462.642
462.648
462.654
462.66
462.667
462.673
462.679
462.684
462.688
462.691
462.693
464.049
464.05
464.051
464.053
464.056
464.059
464.062
464.067
464.071
464.076
464.082
464.087
464.093
464.099
464.105
464.111
464.116
464.12
464.123
464.124
465.562
465.563
465.564
465.565
465.567
465.57
465.573
465.577
465.581
465.585
465.59
465.595
465.6
465.605
465.611
465.616
465.62
465.624
465.627
465.628
468.139
468.139
468.14
468.141
468.142
468.144
468.146
468.149
468.152
468.155
468.159
468.163
468.167
468.171
468.175
468.179
468.183
468.186
468.188
468.19
470.643
470.643
470.643
470.644
470.645
470.646
470.647
470.648
470.65
470.652
470.654
470.656
470.659
470.662
470.664
470.667
470.67
470.672
470.673
470.675
474.35
474.35
474.35
474.349
474.349
474.349
474.349
474.348
474.348
474.348
474.348
474.349
474.349
474.35
474.35
474.351
474.351
474.352
474.353
474.353
478.005
478.005
478.004
478.003
478.001
477.999
477.998
477.996
477.993
477.991
477.989
477.986
477.984
477.982
477.979
477.977
477.976
477.975
477.974
477.974
482.84
482.839
482.838
482.836
482.833
482.829
482.825
482.821
482.816
482.81
482.805
482.799
482.792
482.786
482.78
482.774
482.769
482.765
482.763
482.762
487.809
487.808
487.806
487.802
487.798
487.793
487.786
487.779
487.771
487.762
487.753
487.743
487.732
487.722
487.711
487.701
487.692
487.684
487.679
487.676
493.765
493.763
493.76
493.755
493.748
493.74
493.731
493.72
493.707
493.694
493.679
493.663
493.646
493.628
493.61
493.593
493.578
493.564
493.554
493.549
530.157
530.157
530.157
530.156
530.156
530.155
530.154
530.153
530.152
530.151
530.149
530.147
530.144
530.142
530.14
530.138
530.136
530.135
530.135
530.135
526.019
526.019
526.019
526.019
526.019
526.019
526.018
526.018
526.018
526.018
526.017
526.017
526.016
526.015
526.014
526.014
526.013
526.012
526.012
526.011
522.666
522.666
522.667
522.667
522.667
522.668
522.668
522.669
522.669
522.67
522.67
522.671
522.671
522.672
522.672
522.672
522.672
522.671
522.671
522.671
519.628
519.628
519.628
519.629
519.63
519.631
519.632
519.633
519.634
519.636
519.637
519.639
519.64
519.641
519.643
519.644
519.644
519.644
519.644
519.644
517.447
517.447
517.447
517.448
517.45
517.451
517.453
517.454
517.457
517.459
517.461
517.463
517.466
517.468