/*--------------------------------*- C++ -*----------------------------------*\
| =========                 |                                                 |
| \\      /  F ield         | OpenFOAM: The Open Source CFD Toolbox           |
|  \\    /   O peration     | Version:  2212                                  |
|   \\  /    A nd           | Website:  www.openfoam.com                      |
|    \\/     M anipulation  |                                                 |
\*---------------------------------------------------------------------------*/
FoamFile
{
    version     2.0;
    format      ascii;
    arch        "LSB;label=32;scalar=64";
    class       surfaceScalarField;
    location    "0.0135";
    object      phi;
}
// * * * * * * * * * * * * * * * * * * * * * * * * * * * * * * * * * * * * * //

dimensions      [1 0 -1 0 0 0 0];

oriented        oriented;

internalField   nonuniform List<scalar> 
15205
(
-7.28964e-06
-7.57534e-06
-7.54442e-06
-1.45449e-05
-7.63386e-06
-2.14863e-05
-7.61043e-06
-2.96046e-05
-7.56693e-06
-3.73052e-05
-7.49015e-06
-4.44219e-05
-7.37421e-06
-5.11267e-05
-7.22192e-06
-5.74673e-05
-7.03975e-06
-6.34341e-05
-6.82814e-06
-6.90376e-05
-6.5896e-06
-7.42834e-05
-6.3264e-06
-7.91804e-05
-6.04067e-06
-8.37366e-05
-5.73442e-06
-8.79598e-05
-5.40954e-06
-9.18576e-05
-5.06779e-06
-9.5437e-05
-4.71083e-06
-9.87049e-05
-4.34021e-06
-0.000101668
-3.95739e-06
-0.000104331
-3.56375e-06
-0.000106699
-3.16058e-06
-0.000108779
-2.74909e-06
-0.000110572
-2.33039e-06
-0.000112084
-1.90539e-06
-0.000113316
-1.47447e-06
-0.000114273
-1.03789e-06
-0.000114955
-6.07692e-07
-0.000115365
-1.88025e-07
-0.000115502
2.76266e-07
-0.000115399
7.4818e-07
-0.00011499
1.2155e-06
-0.00011431
1.67783e-06
-0.000113355
2.13458e-06
-0.000112124
2.58465e-06
-0.000110614
3.02674e-06
-0.000108822
3.45943e-06
-0.000106744
3.88124e-06
-0.000104376
4.29059e-06
-0.000101714
4.6858e-06
-9.8753e-05
5.06512e-06
-9.54863e-05
5.42668e-06
-9.19081e-05
5.76851e-06
-8.80116e-05
6.08851e-06
-8.37896e-05
6.38447e-06
-7.92345e-05
6.65405e-06
-7.43386e-05
6.89472e-06
-6.90936e-05
7.10405e-06
-6.34911e-05
7.28071e-06
-5.75234e-05
7.41812e-06
-5.11815e-05
7.51395e-06
-4.44749e-05
7.5722e-06
-3.73504e-05
7.60181e-06
-2.96367e-05
7.52448e-06
-2.15337e-05
7.30044e-06
-1.46141e-05
-7.53325e-06
-8.74972e-06
-6.65162e-06
-8.52356e-06
-1.4664e-05
-8.44276e-06
-2.14716e-05
-8.48124e-06
-2.94645e-05
-8.46016e-06
-3.72228e-05
-8.37848e-06
-4.43994e-05
-8.25719e-06
-5.1143e-05
-8.10177e-06
-5.75168e-05
-7.9062e-06
-6.3523e-05
-7.67578e-06
-6.91606e-05
-7.41388e-06
-7.44371e-05
-7.12348e-06
-7.93619e-05
-6.80716e-06
-8.39433e-05
-6.46722e-06
-8.81896e-05
-6.10576e-06
-9.21082e-05
-5.72474e-06
-9.57067e-05
-5.32599e-06
-9.89918e-05
-4.9112e-06
-0.00010197
-4.48199e-06
-0.000104647
-4.03989e-06
-0.000107028
-3.58635e-06
-0.000109119
-3.12274e-06
-0.000110922
-2.65042e-06
-0.000112442
-2.17067e-06
-0.000113682
-1.68485e-06
-0.000114644
-1.19495e-06
-0.00011533
-7.02505e-07
-0.000115742
-2.09477e-07
-0.00011588
3.23665e-07
-0.000115817
8.57764e-07
-0.000115409
1.39064e-06
-0.000114727
1.92019e-06
-0.00011377
2.44485e-06
-0.000112534
2.96308e-06
-0.000111017
3.47323e-06
-0.000109217
3.97364e-06
-0.000107129
4.46252e-06
-0.000104751
4.93802e-06
-0.000102076
5.39819e-06
-9.90993e-05
5.84094e-06
-9.58156e-05
6.26407e-06
-9.22181e-05
6.66523e-06
-8.83001e-05
7.04187e-06
-8.4054e-05
7.39123e-06
-7.94722e-05
7.71021e-06
-7.45464e-05
7.99527e-06
-6.92681e-05
8.24195e-06
-6.36279e-05
8.44597e-06
-5.76181e-05
8.61256e-06
-5.12396e-05
8.7348e-06
-4.44893e-05
8.79229e-06
-3.73006e-05
8.78536e-06
-2.95244e-05
8.87896e-06
-2.15281e-05
9.09316e-06
-1.47165e-05
-6.71577e-06
-1.05823e-05
-6.4089e-06
-1.05511e-05
-1.45614e-05
-1.04988e-05
-2.1406e-05
-1.05053e-05
-2.9333e-05
-1.04627e-05
-3.7138e-05
-1.03558e-05
-4.4378e-05
-1.01975e-05
-5.11723e-05
-9.99293e-06
-5.75914e-05
-9.7445e-06
-6.36404e-05
-9.45506e-06
-6.93181e-05
-9.12813e-06
-7.46313e-05
-8.76707e-06
-7.95894e-05
-8.37486e-06
-8.42012e-05
-7.95422e-06
-8.84751e-05
-7.5077e-06
-9.2419e-05
-7.03763e-06
-9.60404e-05
-6.54625e-06
-9.93462e-05
-6.03563e-06
-0.000102343
-5.50773e-06
-0.000105037
-4.96442e-06
-0.000107433
-4.40747e-06
-0.000109537
-3.83858e-06
-0.000111351
-3.25941e-06
-0.000112881
-2.67153e-06
-0.00011413
-2.07636e-06
-0.000115099
-1.47516e-06
-0.000115791
-8.70256e-07
-0.000116207
-2.61635e-07
-0.000116348
3.92706e-07
-0.00011633
1.04742e-06
-0.000115923
1.69953e-06
-0.000115239
2.34751e-06
-0.000114277
2.98966e-06
-0.000113035
3.62405e-06
-0.000111511
4.24869e-06
-0.000109701
4.8615e-06
-0.000107602
5.46033e-06
-0.00010521
6.04291e-06
-0.000102519
6.60685e-06
-9.95242e-05
7.14965e-06
-9.62198e-05
7.66865e-06
-9.2599e-05
8.16102e-06
-8.86548e-05
8.62374e-06
-8.43796e-05
9.05359e-06
-7.97655e-05
9.44707e-06
-7.48041e-05
9.80032e-06
-6.94863e-05
1.01093e-05
-6.38025e-05
1.03704e-05
-5.77457e-05
1.05808e-05
-5.13172e-05
1.07349e-05
-4.45113e-05
1.08207e-05
-3.7255e-05
1.08531e-05
-2.94278e-05
1.09254e-05
-2.14785e-05
1.09716e-05
-1.4624e-05
-6.55458e-06
-1.32376e-05
-6.46062e-06
-1.31674e-05
-1.44659e-05
-1.30997e-05
-2.13287e-05
-1.30286e-05
-2.92514e-05
-1.28992e-05
-3.71113e-05
-1.27115e-05
-4.44086e-05
-1.24766e-05
-5.1249e-05
-1.21962e-05
-5.77126e-05
-1.18701e-05
-6.38062e-05
-1.14999e-05
-6.95269e-05
-1.10885e-05
-7.48803e-05
-1.06389e-05
-7.98757e-05
-1.01541e-05
-8.45219e-05
-9.63678e-06
-8.88274e-05
-9.08984e-06
-9.28002e-05
-8.51586e-06
-9.64478e-05
-7.91736e-06
-9.97776e-05
-7.29673e-06
-0.000102796
-6.65625e-06
-0.000105509
-5.99809e-06
-0.000107923
-5.32432e-06
-0.000110041
-4.63692e-06
-0.000111869
-3.9378e-06
-0.000113411
-3.22875e-06
-0.000114669
-2.51155e-06
-0.000115646
-1.78772e-06
-0.000116344
-1.05854e-06
-0.000116765
-3.26528e-07
-0.000116909
4.61689e-07
-0.000116947
1.24791e-06
-0.000116538
2.03088e-06
-0.000115851
2.80874e-06
-0.000114884
3.57929e-06
-0.000113635
4.34027e-06
-0.000112101
5.08935e-06
-0.00011028
5.82412e-06
-0.000108167
6.54206e-06
-0.000105758
7.24056e-06
-0.000103048
7.91687e-06
-0.000100032
8.56816e-06
-9.67031e-05
9.19143e-06
-9.30549e-05
9.78357e-06
-8.90803e-05
1.03413e-05
-8.47715e-05
1.08613e-05
-8.01204e-05
1.13401e-05
-7.51186e-05
1.17743e-05
-6.97571e-05
1.21606e-05
-6.40264e-05
1.24971e-05
-5.79208e-05
1.27835e-05
-5.14433e-05
1.30186e-05
-4.45869e-05
1.31927e-05
-3.72707e-05
1.33045e-05
-2.93843e-05
1.34013e-05
-2.14279e-05
1.35075e-05
-1.45617e-05
-6.60623e-06
-1.59552e-05
-6.55029e-06
-1.58036e-05
-1.44226e-05
-1.56754e-05
-2.12868e-05
-1.54974e-05
-2.92508e-05
-1.52625e-05
-3.71637e-05
-1.49783e-05
-4.45091e-05
-1.46498e-05
-5.13927e-05
-1.42776e-05
-5.78989e-05
-1.38611e-05
-6.40357e-05
-1.34011e-05
-6.97987e-05
-1.28996e-05
-7.51927e-05
-1.23588e-05
-8.02265e-05
-1.17811e-05
-8.49087e-05
-1.11691e-05
-8.92476e-05
-1.05256e-05
-9.32512e-05
-9.85316e-06
-9.69271e-05
-9.15441e-06
-0.000100283
-8.43191e-06
-0.000103324
-7.6881e-06
-0.000106058
-6.92536e-06
-0.00010849
-6.14594e-06
-0.000110625
-5.35202e-06
-0.000112467
-4.54569e-06
-0.000114021
-3.72892e-06
-0.000115289
-2.90363e-06
-0.000116274
-2.0717e-06
-0.000116979
-1.23487e-06
-0.000117405
-3.95077e-07
-0.000117552
5.09622e-07
-0.000117655
1.41167e-06
-0.000117243
2.30953e-06
-0.000116552
3.20095e-06
-0.000115579
4.08348e-06
-0.000114321
4.95463e-06
-0.000112776
5.81187e-06
-0.000110942
6.65257e-06
-0.000108813
7.47401e-06
-0.000106385
8.27338e-06
-0.000103654
9.04779e-06
-0.000100613
9.79423e-06
-9.72566e-05
1.05097e-05
-9.35782e-05
1.11909e-05
-8.95702e-05
1.18349e-05
-8.52249e-05
1.24384e-05
-8.05344e-05
1.29986e-05
-7.54902e-05
1.35125e-05
-7.00835e-05
1.3978e-05
-6.43054e-05
1.43934e-05
-5.8151e-05
1.4759e-05
-5.16247e-05
1.50738e-05
-4.47187e-05
1.53335e-05
-3.73487e-05
1.55327e-05
-2.94058e-05
1.56803e-05
-2.14063e-05
1.58375e-05
-1.45249e-05
-6.71314e-06
-1.64527e-05
-6.57534e-06
-1.62686e-05
-1.44088e-05
-1.60813e-05
-2.13016e-05
-1.58488e-05
-2.93022e-05
-1.5571e-05
-3.72564e-05
-1.52522e-05
-4.46413e-05
-1.48922e-05
-5.15651e-05
-1.44909e-05
-5.81115e-05
-1.40486e-05
-6.42881e-05
-1.35664e-05
-7.00899e-05
-1.30458e-05
-7.55212e-05
-1.24887e-05
-8.05905e-05
-1.18973e-05
-8.53061e-05
-1.12737e-05
-8.96764e-05
-1.06203e-05
-9.3709e-05
-9.93939e-06
-9.74116e-05
-9.23335e-06
-0.000100791
-8.50447e-06
-0.000103855
-7.75499e-06
-0.000106609
-6.98708e-06
-0.000109059
-6.20286e-06
-0.00011121
-5.40439e-06
-0.000113066
-4.59366e-06
-0.000114631
-3.77261e-06
-0.00011591
-2.94313e-06
-0.000116903
-2.10709e-06
-0.000117614
-1.26627e-06
-0.000118045
-4.22284e-07
-0.000118195
4.8984e-07
-0.000118366
1.40066e-06
-0.000117953
2.30773e-06
-0.000117258
3.20888e-06
-0.000116279
4.10177e-06
-0.000115013
4.984e-06
-0.000113459
5.85309e-06
-0.000111611
6.70654e-06
-0.000109467
7.54176e-06
-0.000107021
8.3561e-06
-0.000104269
9.14683e-06
-0.000101206
9.91117e-06
-9.78238e-05
1.06463e-05
-9.41169e-05
1.13493e-05
-9.00776e-05
1.20175e-05
-8.56983e-05
1.26479e-05
-8.0971e-05
1.32381e-05
-7.58875e-05
1.37856e-05
-7.04391e-05
1.42884e-05
-6.46174e-05
1.47448e-05
-5.84178e-05
1.51543e-05
-5.18457e-05
1.5516e-05
-4.4893e-05
1.58295e-05
-3.74761e-05
1.6091e-05
-2.94852e-05
1.63002e-05
-2.14421e-05
1.65029e-05
-1.45287e-05
-6.76469e-06
-1.66265e-05
-6.58511e-06
-1.64246e-05
-1.44129e-05
-1.62155e-05
-2.13382e-05
-1.59588e-05
-2.93778e-05
-1.56575e-05
-3.73725e-05
-1.5317e-05
-4.47953e-05
-1.49372e-05
-5.17575e-05
-1.45179e-05
-5.83421e-05
-1.40596e-05
-6.45565e-05
-1.35638e-05
-7.03948e-05
-1.30321e-05
-7.58611e-05
-1.24662e-05
-8.09635e-05
-1.18682e-05
-8.57104e-05
-1.12401e-05
-9.01099e-05
-1.0584e-05
-9.41697e-05
-9.90211e-06
-9.78975e-05
-9.19652e-06
-0.0001013
-8.46931e-06
-0.000104385
-7.72255e-06
-0.000107158
-6.95824e-06
-0.000109625
-6.17834e-06
-0.000111791
-5.38477e-06
-0.000113661
-4.57941e-06
-0.000115238
-3.76407e-06
-0.000116525
-2.94058e-06
-0.000117527
-2.11075e-06
-0.000118244
-1.27641e-06
-0.000118679
-4.3937e-07
-0.000118832
4.66831e-07
-0.000119071
1.37278e-06
-0.000118658
2.27535e-06
-0.00011796
3.17232e-06
-0.000116976
4.06148e-06
-0.000115703
4.94057e-06
-0.000114138
5.80727e-06
-0.000112278
6.65919e-06
-0.000110119
7.49391e-06
-0.000107657
8.30892e-06
-0.000104886
9.10168e-06
-0.000101801
9.86961e-06
-9.83947e-05
1.06101e-05
-9.46609e-05
1.13204e-05
-9.05923e-05
1.19981e-05
-8.6181e-05
1.26404e-05
-8.14193e-05
1.3245e-05
-7.62989e-05
1.38094e-05
-7.08114e-05
1.43316e-05
-6.49485e-05
1.48098e-05
-5.87061e-05
1.52429e-05
-5.209e-05
1.56307e-05
-4.5093e-05
1.59726e-05
-3.76315e-05
1.62617e-05
-2.95919e-05
1.6494e-05
-2.15007e-05
1.67159e-05
-1.45515e-05
-6.8013e-06
-1.67717e-05
-6.59973e-06
-1.65558e-05
-1.44312e-05
-1.63357e-05
-2.13859e-05
-1.60628e-05
-2.94695e-05
-1.57444e-05
-3.75057e-05
-1.53862e-05
-4.49671e-05
-1.4989e-05
-5.19671e-05
-1.45535e-05
-5.85889e-05
-1.40809e-05
-6.48394e-05
-1.35726e-05
-7.07123e-05
-1.30303e-05
-7.62115e-05
-1.24558e-05
-8.13451e-05
-1.18512e-05
-8.61214e-05
-1.12182e-05
-9.05483e-05
-1.0559e-05
-9.46337e-05
-9.87539e-06
-9.83852e-05
-9.16939e-06
-0.00010181
-8.44292e-06
-0.000104915
-7.69788e-06
-0.000107706
-6.93613e-06
-0.000110189
-6.15947e-06
-0.000112369
-5.3697e-06
-0.000114252
-4.56857e-06
-0.00011584
-3.7578e-06
-0.000117137
-2.93908e-06
-0.000118146
-2.11409e-06
-0.00011887
-1.28451e-06
-0.000119309
-4.52313e-07
-0.000119465
4.49052e-07
-0.000119772
1.34998e-06
-0.000119359
2.24797e-06
-0.000118658
3.14084e-06
-0.000117668
4.02643e-06
-0.000116388
4.90254e-06
-0.000114814
5.76694e-06
-0.000112943
6.61735e-06
-0.000110771
7.45148e-06
-0.000108293
8.26696e-06
-0.000105504
9.06139e-06
-0.000102398
9.83236e-06
-9.89687e-05
1.05774e-05
-9.52096e-05
1.1294e-05
-9.11132e-05
1.19798e-05
-8.66719e-05
1.26322e-05
-8.18777e-05
1.32489e-05
-7.67224e-05
1.38274e-05
-7.11978e-05
1.43656e-05
-6.52956e-05
1.48615e-05
-5.90119e-05
1.53133e-05
-5.2353e-05
1.57201e-05
-4.53119e-05
1.60804e-05
-3.78051e-05
1.63869e-05
-2.97158e-05
1.66314e-05
-2.15715e-05
1.68665e-05
-1.45874e-05
-6.84165e-06
-1.69142e-05
-6.6187e-06
-1.6689e-05
-1.4459e-05
-1.64576e-05
-2.1445e-05
-1.61719e-05
-2.9574e-05
-1.58402e-05
-3.76522e-05
-1.54684e-05
-4.51524e-05
-1.50581e-05
-5.219e-05
-1.46104e-05
-5.88482e-05
-1.41265e-05
-6.51336e-05
-1.36082e-05
-7.10399e-05
-1.30573e-05
-7.65708e-05
-1.24756e-05
-8.17343e-05
-1.18651e-05
-8.65386e-05
-1.12275e-05
-9.09918e-05
-1.05647e-05
-9.51017e-05
-9.87861e-06
-9.88758e-05
-9.17105e-06
-0.000102321
-8.44382e-06
-0.000105445
-7.69869e-06
-0.000108254
-6.93739e-06
-0.000110753
-6.16164e-06
-0.000112947
-5.37313e-06
-0.000114842
-4.57352e-06
-0.000116441
-3.76445e-06
-0.000117747
-2.94756e-06
-0.000118764
-2.12442e-06
-0.000119494
-1.29663e-06
-0.000119938
-4.66059e-07
-0.000120096
4.34073e-07
-0.000120473
1.33374e-06
-0.000120059
2.23077e-06
-0.000119355
3.12297e-06
-0.000118361
4.00817e-06
-0.000117074
4.88422e-06
-0.000115491
5.74898e-06
-0.000113609
6.60026e-06
-0.000111424
7.43586e-06
-0.00010893
8.25351e-06
-0.000106124
9.05095e-06
-0.000102998
9.82585e-06
-9.95469e-05
1.05759e-05
-9.57635e-05
1.12987e-05
-9.16406e-05
1.19919e-05
-8.71704e-05
1.26532e-05
-8.2345e-05
1.328e-05
-7.71563e-05
1.38701e-05
-7.15958e-05
1.44211e-05
-6.56555e-05
1.49306e-05
-5.93315e-05
1.53969e-05
-5.26303e-05
1.58182e-05
-4.55453e-05
1.61925e-05
-3.79926e-05
1.65126e-05
-2.98531e-05
1.67686e-05
-2.16538e-05
1.7013e-05
-1.46327e-05
-6.88626e-06
-1.70551e-05
-6.64102e-06
-1.68232e-05
-1.44935e-05
-1.65835e-05
-2.15126e-05
-1.6288e-05
-2.96884e-05
-1.59458e-05
-3.78093e-05
-1.55633e-05
-4.53486e-05
-1.51424e-05
-5.24235e-05
-1.46846e-05
-5.91176e-05
-1.41914e-05
-6.54373e-05
-1.36646e-05
-7.13762e-05
-1.31063e-05
-7.69377e-05
-1.25181e-05
-8.21301e-05
-1.1902e-05
-8.69616e-05
-1.12597e-05
-9.14402e-05
-1.05931e-05
-9.55737e-05
-9.90399e-06
-9.93698e-05
-9.194e-06
-0.000102836
-8.46489e-06
-0.000105978
-7.71831e-06
-0.000108804
-6.95594e-06
-0.000111318
-6.17938e-06
-0.000113526
-5.39025e-06
-0.000115433
-4.59015e-06
-0.000117043
-3.78069e-06
-0.000118359
-2.96342e-06
-0.000119383
-2.1399e-06
-0.000120119
-1.31169e-06
-0.000120568
-4.80592e-07
-0.000120729
4.21035e-07
-0.000121175
1.32244e-06
-0.000120761
2.22133e-06
-0.000120055
3.11542e-06
-0.000119056
4.00255e-06
-0.000117762
4.88065e-06
-0.00011617
5.74764e-06
-0.000114277
6.60143e-06
-0.000112079
7.4399e-06
-0.000109571
8.26088e-06
-0.000106747
9.06218e-06
-0.000103602
9.84162e-06
-0.00010013
1.0597e-05
-9.6323e-05
1.13259e-05
-9.21743e-05
1.20262e-05
-8.76761e-05
1.26954e-05
-8.28205e-05
1.33313e-05
-7.75991e-05
1.39313e-05
-7.20038e-05
1.44929e-05
-6.60261e-05
1.50138e-05
-5.96624e-05
1.54917e-05
-5.29192e-05
1.59246e-05
-4.57903e-05
1.63102e-05
-3.81914e-05
1.66407e-05
-3.00007e-05
1.69055e-05
-2.1745e-05
1.71571e-05
-1.46853e-05
-6.93476e-06
-1.71953e-05
-6.66533e-06
-1.69589e-05
-1.45328e-05
-1.67134e-05
-2.15862e-05
-1.64109e-05
-2.98098e-05
-1.6061e-05
-3.79741e-05
-1.56706e-05
-4.55528e-05
-1.52419e-05
-5.2665e-05
-1.47766e-05
-5.93947e-05
-1.42764e-05
-6.57483e-05
-1.37432e-05
-7.17191e-05
-1.31789e-05
-7.73108e-05
-1.25855e-05
-8.25315e-05
-1.19648e-05
-8.73896e-05
-1.13184e-05
-9.18931e-05
-1.0648e-05
-9.60499e-05
-9.95549e-06
-9.98675e-05
-9.24235e-06
-0.000103353
-8.51026e-06
-0.000106514
-7.76083e-06
-0.000109357
-6.99564e-06
-0.000111887
-6.21629e-06
-0.000114109
-5.42434e-06
-0.000116028
-4.62136e-06
-0.000117648
-3.80882e-06
-0.000118973
-2.98825e-06
-0.000120006
-2.1612e-06
-0.000120748
-1.3293e-06
-0.000121202
-4.94425e-07
-0.000121366
4.1162e-07
-0.000121882
1.31772e-06
-0.000121468
2.22147e-06
-0.00012076
3.12038e-06
-0.000119756
4.01225e-06
-0.000118455
4.89495e-06
-0.000116855
5.76636e-06
-0.000114951
6.62443e-06
-0.000112739
7.46715e-06
-0.000110216
8.2925e-06
-0.000107375
9.09839e-06
-0.000104211
9.8827e-06
-0.000100718
1.06433e-05
-9.68879e-05
1.1378e-05
-9.2714e-05
1.20845e-05
-8.81883e-05
1.27605e-05
-8.33029e-05
1.34037e-05
-7.80496e-05
1.40117e-05
-7.24198e-05
1.45818e-05
-6.64053e-05
1.51115e-05
-6.00022e-05
1.55985e-05
-5.32173e-05
1.60404e-05
-4.60442e-05
1.64345e-05
-3.83985e-05
1.67725e-05
-3.01558e-05
1.70433e-05
-2.18421e-05
1.72998e-05
-1.47429e-05
-6.98629e-06
-1.73343e-05
-6.691e-06
-1.70951e-05
-1.45751e-05
-1.68459e-05
-2.16637e-05
-1.65389e-05
-2.99358e-05
-1.61838e-05
-3.81441e-05
-1.57881e-05
-4.57625e-05
-1.53541e-05
-5.2912e-05
-1.48835e-05
-5.96772e-05
-1.43784e-05
-6.60644e-05
-1.38406e-05
-7.20668e-05
-1.32721e-05
-7.76884e-05
-1.26747e-05
-8.29372e-05
-1.20502e-05
-8.78217e-05
-1.14001e-05
-9.235e-05
-1.07262e-05
-9.653e-05
-1.00301e-05
-0.000100369
-9.31318e-06
-0.000103875
-8.57713e-06
-0.000107055
-7.82347e-06
-0.000109915
-7.05376e-06
-0.00011246
-6.26957e-06
-0.000114696
-5.47246e-06
-0.000116628
-4.6639e-06
-0.00011826
-3.84539e-06
-0.000119595
-3.01849e-06
-0.000120635
-2.18491e-06
-0.000121384
-1.34657e-06
-0.000121842
-5.05518e-07
-0.000122009
4.07079e-07
-0.000122596
1.31999e-06
-0.000122182
2.23053e-06
-0.000121471
3.13611e-06
-0.000120463
4.03452e-06
-0.000119156
4.92365e-06
-0.000117546
5.80131e-06
-0.000115631
6.66534e-06
-0.000113406
7.51368e-06
-0.000110867
8.34441e-06
-0.000108009
9.15557e-06
-0.000104826
9.94512e-06
-0.000101312
1.07109e-05
-9.74584e-05
1.14509e-05
-9.32592e-05
1.21629e-05
-8.87062e-05
1.28446e-05
-8.37912e-05
1.34937e-05
-7.85061e-05
1.41078e-05
-7.28421e-05
1.46844e-05
-6.6791e-05
1.52208e-05
-6.03488e-05
1.57144e-05
-5.35221e-05
1.6163e-05
-4.63048e-05
1.65632e-05
-3.86119e-05
1.69066e-05
-3.03163e-05
1.71818e-05
-2.19439e-05
1.74417e-05
-1.4804e-05
-7.03992e-06
-1.74725e-05
-6.71715e-06
-1.72323e-05
-1.46187e-05
-1.69812e-05
-2.17432e-05
-1.66716e-05
-3.00644e-05
-1.63138e-05
-3.83171e-05
-1.59152e-05
-4.59752e-05
-1.54783e-05
-5.31621e-05
-1.50051e-05
-5.99626e-05
-1.44973e-05
-6.63833e-05
-1.39571e-05
-7.24173e-05
-1.33863e-05
-7.80686e-05
-1.27866e-05
-8.33455e-05
-1.21596e-05
-8.82566e-05
-1.15069e-05
-9.28099e-05
-1.083e-05
-9.70135e-05
-1.01303e-05
-0.000100875
-9.40937e-06
-0.000104402
-8.6686e-06
-0.000107601
-7.9095e-06
-0.000110479
-7.13355e-06
-0.000113041
-6.34229e-06
-0.000115292
-5.53733e-06
-0.000117237
-4.72035e-06
-0.000118881
-3.8932e-06
-0.000120225
-3.05771e-06
-0.000121274
-2.21565e-06
-0.00012203
-1.3687e-06
-0.000122493
-5.18765e-07
-0.000122662
4.04135e-07
-0.00012332
1.32764e-06
-0.000122908
2.24821e-06
-0.000122194
3.16312e-06
-0.00012118
4.07032e-06
-0.000119865
4.96777e-06
-0.000118246
5.85341e-06
-0.000116319
6.72512e-06
-0.00011408
7.58077e-06
-0.000111526
8.41822e-06
-0.00010865
9.23547e-06
-0.000105447
1.00305e-05
-0.000101911
1.08014e-05
-9.80342e-05
1.1546e-05
-9.38093e-05
1.22623e-05
-8.92286e-05
1.29482e-05
-8.42839e-05
1.36013e-05
-7.89668e-05
1.42195e-05
-7.32687e-05
1.48002e-05
-6.7181e-05
1.53407e-05
-6.06996e-05
1.58385e-05
-5.38311e-05
1.62912e-05
-4.65696e-05
1.66954e-05
-3.88292e-05
1.70424e-05
-3.04805e-05
1.73209e-05
-2.2049e-05
1.75828e-05
-1.48673e-05
-7.09486e-06
-1.761e-05
-6.74314e-06
-1.73696e-05
-1.46627e-05
-1.71182e-05
-2.18232e-05
-1.68082e-05
-3.01937e-05
-1.64499e-05
-3.84906e-05
-1.60509e-05
-4.61885e-05
-1.56137e-05
-5.34126e-05
-1.51404e-05
-6.02484e-05
-1.46327e-05
-6.67024e-05
-1.40925e-05
-7.27681e-05
-1.35215e-05
-7.84493e-05
-1.29213e-05
-8.37547e-05
-1.22935e-05
-8.86927e-05
-1.16393e-05
-9.32718e-05
-1.09602e-05
-9.74997e-05
-1.02575e-05
-0.000101384
-9.53257e-06
-0.000104933
-8.78673e-06
-0.000108153
-8.02142e-06
-0.000111049
-7.23813e-06
-0.000113629
-6.43842e-06
-0.000115896
-5.62395e-06
-0.000117856
-4.79651e-06
-0.000119513
-3.95796e-06
-0.000120868
-3.11018e-06
-0.000121926
-2.25517e-06
-0.000122689
-1.39502e-06
-0.000123157
-5.32076e-07
-0.000123329
4.0545e-07
-0.000124061
1.34379e-06
-0.000123649
2.27798e-06
-0.000122931
3.20558e-06
-0.000121911
4.12462e-06
-0.000120587
5.03296e-06
-0.000118957
5.92843e-06
-0.000117018
6.80898e-06
-0.000114765
7.67254e-06
-0.000112193
8.51703e-06
-0.000109299
9.34038e-06
-0.000106075
1.01406e-05
-0.000102516
1.09158e-05
-9.86147e-05
1.1664e-05
-9.43634e-05
1.23832e-05
-8.97543e-05
1.30715e-05
-8.47793e-05
1.37267e-05
-7.94299e-05
1.43466e-05
-7.36973e-05
1.4929e-05
-6.75728e-05
1.54712e-05
-6.10523e-05
1.59707e-05
-5.4142e-05
1.64251e-05
-4.68362e-05
1.68311e-05
-3.90484e-05
1.71802e-05
-3.06468e-05
1.746e-05
-2.21556e-05
1.77228e-05
-1.49317e-05
-7.15056e-06
-1.77465e-05
-6.76844e-06
-1.75072e-05
-1.47059e-05
-1.7257e-05
-2.19023e-05
-1.69485e-05
-3.03215e-05
-1.65922e-05
-3.86624e-05
-1.61954e-05
-4.63997e-05
-1.57609e-05
-5.36607e-05
-1.52904e-05
-6.05315e-05
-1.47857e-05
-6.70189e-05
-1.42482e-05
-7.31164e-05
-1.36797e-05
-7.88279e-05
-1.30814e-05
-8.41623e-05
-1.24547e-05
-8.91282e-05
-1.18006e-05
-9.37339e-05
-1.11205e-05
-9.79875e-05
-1.04153e-05
-0.000101897
-9.68641e-06
-0.000105469
-8.93502e-06
-0.00010871
-8.16249e-06
-0.000111628
-7.37031e-06
-0.000114227
-6.56006e-06
-0.000116512
-5.73347e-06
-0.000118488
-4.89235e-06
-0.000120159
-4.03863e-06
-0.000121527
-3.17436e-06
-0.000122595
-2.30171e-06
-0.000123366
-1.42287e-06
-0.00012384
-5.40163e-07
-0.000124016
4.16084e-07
-0.00012482
1.37018e-06
-0.000124406
2.31935e-06
-0.000123683
3.26193e-06
-0.000122657
4.19553e-06
-0.000121324
5.11758e-06
-0.000119683
6.02565e-06
-0.000117729
6.9174e-06
-0.00011546
7.79061e-06
-0.000112871
8.64317e-06
-0.000109956
9.47305e-06
-0.00010671
1.02783e-05
-0.000103127
1.10572e-05
-9.91993e-05
1.18077e-05
-9.49202e-05
1.25282e-05
-9.02816e-05
1.32169e-05
-8.52753e-05
1.38718e-05
-7.98928e-05
1.44909e-05
-7.41253e-05
1.50721e-05
-6.79638e-05
1.56133e-05
-6.1404e-05
1.61116e-05
-5.44519e-05
1.65652e-05
-4.71022e-05
1.69709e-05
-3.92674e-05
1.73199e-05
-3.08131e-05
1.75995e-05
-2.22621e-05
1.78619e-05
-1.49958e-05
-7.20635e-06
-1.78822e-05
-6.79251e-06
-1.7645e-05
-1.47471e-05
-1.73976e-05
-2.19787e-05
-1.70929e-05
-3.04458e-05
-1.67412e-05
-3.88297e-05
-1.63497e-05
-4.66058e-05
-1.5921e-05
-5.39033e-05
-1.54569e-05
-6.08087e-05
-1.49584e-05
-6.73295e-05
-1.44269e-05
-7.3459e-05
-1.38639e-05
-7.92015e-05
-1.32702e-05
-8.45658e-05
-1.26469e-05
-8.95607e-05
-1.19948e-05
-9.41946e-05
-1.13149e-05
-9.84756e-05
-1.0608e-05
-0.000102411
-9.87537e-06
-0.000106009
-9.11798e-06
-0.000109275
-8.33722e-06
-0.000112215
-7.53456e-06
-0.000114836
-6.71165e-06
-0.000117141
-5.87031e-06
-0.000119135
-5.01251e-06
-0.000120822
-4.1404e-06
-0.000122205
-3.25625e-06
-0.000123285
-2.36239e-06
-0.000124065
-1.46113e-06
-0.000124547
-5.55225e-07
-0.000124728
4.23085e-07
-0.000125602
1.39777e-06
-0.000125184
2.36803e-06
-0.000124458
3.33125e-06
-0.000123424
4.28429e-06
-0.000122081
5.22417e-06
-0.000120427
6.14818e-06
-0.000118458
7.05379e-06
-0.00011617
7.93867e-06
-0.00011356
8.80063e-06
-0.000110623
9.63766e-06
-0.000107352
1.04479e-05
-0.000103743
1.12297e-05
-9.97871e-05
1.19813e-05
-9.54784e-05
1.27012e-05
-9.08086e-05
1.33878e-05
-8.57697e-05
1.40397e-05
-8.0353e-05
1.46549e-05
-7.45497e-05
1.52318e-05
-6.83506e-05
1.57683e-05
-6.17512e-05
1.62625e-05
-5.47578e-05
1.67126e-05
-4.73647e-05
1.71154e-05
-3.94836e-05
1.74618e-05
-3.09768e-05
1.77392e-05
-2.23666e-05
1.8e-05
-1.50585e-05
-7.26168e-06
-1.80171e-05
-6.81468e-06
-1.77834e-05
-1.47852e-05
-1.75407e-05
-2.20507e-05
-1.72422e-05
-3.05639e-05
-1.68982e-05
-3.89894e-05
-1.65157e-05
-4.68032e-05
-1.6097e-05
-5.41362e-05
-1.56427e-05
-6.10762e-05
-1.51543e-05
-6.76303e-05
-1.46327e-05
-7.37922e-05
-1.40787e-05
-7.95664e-05
-1.34929e-05
-8.49618e-05
-1.28758e-05
-8.99875e-05
-1.22279e-05
-9.46517e-05
-1.15498e-05
-9.89623e-05
-1.08422e-05
-0.000102927
-1.01059e-05
-0.000106553
-9.34192e-06
-0.000109846
-8.55161e-06
-0.000112813
-7.73642e-06
-0.000115458
-6.89814e-06
-0.000117786
-6.03877e-06
-0.000119801
-5.16054e-06
-0.000121507
-4.26598e-06
-0.000122906
-3.35776e-06
-0.000124
-2.43868e-06
-0.000124791
-1.51168e-06
-0.00012528
-5.79961e-07
-0.000125465
4.26335e-07
-0.000126413
1.43064e-06
-0.000125993
2.42982e-06
-0.000125261
3.41994e-06
-0.000124219
4.39761e-06
-0.000122863
5.35972e-06
-0.000121194
6.30331e-06
-0.000119206
7.22561e-06
-0.000116898
8.12418e-06
-0.000114264
8.99677e-06
-0.000111301
9.84139e-06
-0.000108003
1.06563e-05
-0.000104364
1.14399e-05
-0.000100377
1.21908e-05
-9.60364e-05
1.29078e-05
-9.13331e-05
1.35896e-05
-8.62596e-05
1.42351e-05
-8.08072e-05
1.4843e-05
-7.49669e-05
1.54119e-05
-6.87296e-05
1.59402e-05
-6.20905e-05
1.64263e-05
-5.50558e-05
1.68689e-05
-4.76198e-05
1.72651e-05
-3.96932e-05
1.76062e-05
-3.11352e-05
1.78795e-05
-2.24672e-05
1.81373e-05
-1.51183e-05
-7.31585e-06
-1.81514e-05
-6.83422e-06
-1.79226e-05
-1.48186e-05
-1.76868e-05
-2.2116e-05
-1.73975e-05
-3.0673e-05
-1.70649e-05
-3.9138e-05
-1.66953e-05
-4.69879e-05
-1.62907e-05
-5.43552e-05
-1.58513e-05
-6.13291e-05
-1.53779e-05
-6.79164e-05
-1.48709e-05
-7.41112e-05
-1.43303e-05
-7.99183e-05
-1.37562e-05
-8.53466e-05
-1.31487e-05
-9.04052e-05
-1.25076e-05
-9.51024e-05
-1.18332e-05
-9.94459e-05
-1.11258e-05
-0.000103443
-1.03861e-05
-0.000107101
-9.61478e-06
-0.000110426
-8.81316e-06
-0.000113423
-7.98276e-06
-0.000116096
-7.12554e-06
-0.000118451
-6.24371e-06
-0.000120491
-5.33978e-06
-0.000122218
-4.41679e-06
-0.000123636
-3.47785e-06
-0.000124746
-2.52628e-06
-0.000125549
-1.56574e-06
-0.000126047
-6.00067e-07
-0.000126238
4.41845e-07
-0.00012726
1.48147e-06
-0.000126838
2.5143e-06
-0.000126099
3.53628e-06
-0.000125046
4.54353e-06
-0.000123676
5.53245e-06
-0.000121988
6.49931e-06
-0.000119979
7.44125e-06
-0.000117646
8.35569e-06
-0.000114985
9.2402e-06
-0.000111992
1.00928e-05
-0.000108662
1.09118e-05
-0.00010499
1.16959e-05
-0.000100969
1.2444e-05
-9.65919e-05
1.31551e-05
-9.18522e-05
1.38286e-05
-8.67415e-05
1.44637e-05
-8.12514e-05
1.50599e-05
-7.53727e-05
1.56162e-05
-6.90963e-05
1.61317e-05
-6.24172e-05
1.66051e-05
-5.53413e-05
1.70358e-05
-4.78632e-05
1.74213e-05
-3.98922e-05
1.77539e-05
-3.12851e-05
1.80207e-05
-2.25614e-05
1.82739e-05
-1.51736e-05
-7.36805e-06
-1.8285e-05
-6.85024e-06
-1.8063e-05
-1.48454e-05
-1.78367e-05
-2.21721e-05
-1.75603e-05
-3.07694e-05
-1.72434e-05
-3.92711e-05
-1.68918e-05
-4.71549e-05
-1.65069e-05
-5.45548e-05
-1.60882e-05
-6.15617e-05
-1.56356e-05
-6.81821e-05
-1.51487e-05
-7.44106e-05
-1.46268e-05
-8.02519e-05
-1.40692e-05
-8.57154e-05
-1.34752e-05
-9.08099e-05
-1.28442e-05
-9.55436e-05
-1.21757e-05
-9.99242e-05
-1.14698e-05
-0.000103959
-1.07267e-05
-0.000107654
-9.94704e-06
-0.000111014
-9.132e-06
-0.000114046
-8.28309e-06
-0.000116754
-7.40268e-06
-0.00011914
-6.49321e-06
-0.000121208
-5.55766e-06
-0.000122962
-4.59935e-06
-0.000124402
-3.622e-06
-0.000125531
-2.62975e-06
-0.000126349
-1.62685e-06
-0.000126858
-6.18086e-07
-0.000127055
4.67847e-07
-0.000128152
1.55052e-06
-0.000127727
2.62471e-06
-0.00012698
3.68568e-06
-0.000125913
4.72874e-06
-0.000124525
5.74961e-06
-0.000122815
6.74463e-06
-0.00012078
7.71035e-06
-0.000118418
8.64354e-06
-0.000115725
9.54158e-06
-0.000112697
1.04027e-05
-0.00010933
1.12252e-05
-0.000105619
1.20081e-05
-0.000101559
1.27506e-05
-9.71424e-05
1.34524e-05
-9.23623e-05
1.41132e-05
-8.72112e-05
1.47331e-05
-8.16806e-05
1.5312e-05
-7.57617e-05
1.58501e-05
-6.9445e-05
1.6347e-05
-6.27256e-05
1.68024e-05
-5.56089e-05
1.72161e-05
-4.80897e-05
1.75863e-05
-4.0076e-05
1.79065e-05
-3.14228e-05
1.81643e-05
-2.26468e-05
1.84107e-05
-1.52224e-05
-7.41647e-06
-1.84179e-05
-6.86204e-06
-1.82047e-05
-1.48638e-05
-1.79912e-05
-2.22157e-05
-1.7732e-05
-3.08488e-05
-1.74364e-05
-3.93831e-05
-1.7109e-05
-4.72978e-05
-1.67506e-05
-5.47283e-05
-1.63595e-05
-6.1767e-05
-1.59348e-05
-6.84204e-05
-1.54748e-05
-7.46834e-05
-1.49781e-05
-8.0561e-05
-1.44427e-05
-8.60625e-05
-1.38672e-05
-9.11967e-05
-1.325e-05
-9.59716e-05
-1.25902e-05
-0.000100394
-1.18872e-05
-0.000104472
-1.11407e-05
-0.00010821
-1.03515e-05
-0.000111613
-9.5205e-06
-0.000114687
-8.64942e-06
-0.000117434
-7.7404e-06
-0.000119858
-6.79659e-06
-0.000121961
-5.82164e-06
-0.000123746
-4.81958e-06
-0.000125213
-3.79494e-06
-0.000126364
-2.75258e-06
-0.0001272
-1.6976e-06
-0.000127722
-6.35728e-07
-0.000127925
5.04374e-07
-0.000129099
1.64016e-06
-0.000128669
2.76543e-06
-0.000127912
3.87438e-06
-0.000126829
4.96155e-06
-0.000125419
6.02185e-06
-0.000123682
7.0509e-06
-0.000121616
8.04457e-06
-0.000119219
8.99968e-06
-0.000116487
9.91356e-06
-0.000113418
1.0784e-05
-0.000110008
1.16094e-05
-0.000106253
1.23891e-05
-0.000102147
1.31228e-05
-9.76846e-05
1.38108e-05
-9.28591e-05
1.44536e-05
-8.76633e-05
1.50522e-05
-8.20889e-05
1.56074e-05
-7.61273e-05
1.61204e-05
-6.9769e-05
1.65919e-05
-6.30088e-05
1.70225e-05
-5.58519e-05
1.74132e-05
-4.82934e-05
1.7763e-05
-4.02395e-05
1.80662e-05
-3.15434e-05
1.83117e-05
-2.272e-05
1.85494e-05
-1.52626e-05
-7.45755e-06
-1.85493e-05
-6.86948e-06
-1.83475e-05
-1.4871e-05
-1.81506e-05
-2.22428e-05
-1.7914e-05
-3.09057e-05
-1.76464e-05
-3.94673e-05
-1.73511e-05
-4.7409e-05
-1.70277e-05
-5.48672e-05
-1.66731e-05
-6.19362e-05
-1.6285e-05
-6.86224e-05
-1.58605e-05
-7.49211e-05
-1.53966e-05
-8.08376e-05
-1.48904e-05
-8.63809e-05
-1.43392e-05
-9.15598e-05
-1.37405e-05
-9.63817e-05
-1.30925e-05
-0.000100854
-1.23939e-05
-0.000104981
-1.16444e-05
-0.00010877
-1.08438e-05
-0.000112224
-9.99319e-06
-0.000115348
-9.09469e-06
-0.000118143
-8.15083e-06
-0.000120612
-7.16517e-06
-0.000122757
-6.14194e-06
-0.000124579
-5.08609e-06
-0.000126079
-4.0031e-06
-0.000127257
-2.89897e-06
-0.000128114
-1.77993e-06
-0.000128651
-6.52781e-07
-0.000128862
5.53886e-07
-0.000130113
1.75485e-06
-0.000129678
2.94267e-06
-0.000128907
4.11041e-06
-0.000127804
5.25153e-06
-0.000126368
6.36005e-06
-0.000124599
7.43057e-06
-0.000122495
8.45843e-06
-0.000120054
9.43983e-06
-0.000117276
1.03718e-05
-0.000114158
1.12522e-05
-0.000110697
1.20798e-05
-0.000106889
1.28541e-05
-0.00010273
1.35752e-05
-9.82146e-05
1.42441e-05
-9.33374e-05
1.48626e-05
-8.80914e-05
1.54324e-05
-8.24689e-05
1.59558e-05
-7.64614e-05
1.64351e-05
-7.00595e-05
1.68726e-05
-6.32582e-05
1.72701e-05
-5.6062e-05
1.76301e-05
-4.84666e-05
1.79528e-05
-4.0376e-05
1.82338e-05
-3.16419e-05
1.84632e-05
-2.27773e-05
1.869e-05
-1.52922e-05
-7.48648e-06
-1.86772e-05
-6.87484e-06
-1.84914e-05
-1.48623e-05
-1.83156e-05
-2.22492e-05