/*--------------------------------*- C++ -*----------------------------------*\
| =========                 |                                                 |
| \\      /  F ield         | OpenFOAM: The Open Source CFD Toolbox           |
|  \\    /   O peration     | Version:  2212                                  |
|   \\  /    A nd           | Website:  www.openfoam.com                      |
|    \\/     M anipulation  |                                                 |
\*---------------------------------------------------------------------------*/
FoamFile
{
    version     2.0;
    format      ascii;
    arch        "LSB;label=32;scalar=64";
    class       surfaceScalarField;
    location    "7.8e-05";
    object      phi;
}
// * * * * * * * * * * * * * * * * * * * * * * * * * * * * * * * * * * * * * //

dimensions      [1 0 -1 0 0 0 0];

oriented        oriented;

internalField   nonuniform List<scalar> 
75002
(
9.59391e-11
-6.22466e-08
-6.62492e-11
-1.31132e-11
-1.16484e-07
3.00391e-11
-1.72953e-07
2.51012e-10
-2.27362e-07
6.73512e-10
-2.74252e-07
9.53072e-10
-3.27429e-07
9.2511e-10
-3.8762e-07
1.18142e-09
-4.35958e-07
1.11837e-09
-4.8679e-07
1.67908e-09
-4.97465e-07
2.33915e-09
-4.59783e-07
2.77755e-09
-4.8785e-07
3.21457e-09
-6.1109e-07
3.60796e-09
-7.45209e-07
2.99667e-09
-8.21609e-07
3.25463e-09
-8.93248e-07
3.82958e-09
-9.24163e-07
4.71222e-09
-9.53553e-07
5.32496e-09
-1.01643e-06
5.35687e-09
-1.13128e-06
4.93662e-09
-1.18273e-06
3.87636e-09
-1.20511e-06
3.57616e-09
-1.15069e-06
4.41995e-09
-1.1247e-06
5.07286e-09
-1.20181e-06
4.86939e-09
-1.33411e-06
4.30171e-09
-1.44974e-06
4.24325e-09
-1.54093e-06
3.78935e-09
-1.57193e-06
4.19189e-09
-1.63682e-06
4.20739e-09
-1.74545e-06
5.46917e-09
-1.78905e-06
5.09395e-09
-1.86117e-06
2.9627e-09
-1.92078e-06
2.00399e-09
-1.9794e-06
2.05849e-09
-2.02893e-06
2.75434e-09
-2.06259e-06
1.7619e-09
-2.14518e-06
-7.26454e-11
-2.12263e-06
-1.00619e-09
-1.95418e-06
-1.54514e-09
-2.02844e-06
-3.33625e-09
-2.31898e-06
-3.78769e-09
-2.40159e-06
-1.12995e-09
-2.18139e-06
9.42638e-09
-1.9133e-06
2.01347e-08
-1.5302e-06
-9.2597e-07
7.13948e-11
-6.29559e-08
-5.27589e-11
-3.53081e-11
-1.16952e-07
9.73725e-11
-1.72014e-07
2.11653e-10
-2.257e-07
4.23008e-10
-2.71258e-07
9.87945e-10
-3.26438e-07
1.18908e-09
-3.87695e-07
1.19326e-09
-4.33448e-07
1.37591e-09
-4.81449e-07
1.6474e-09
-4.94914e-07
1.7323e-09
-4.55726e-07
1.92165e-09
-4.84662e-07
2.12008e-09
-6.0692e-07
2.61699e-09
-7.44704e-07
3.02902e-09
-8.25731e-07
3.44222e-09
-8.76032e-07
3.25312e-09
-9.1618e-07
3.66397e-09
-9.47845e-07
4.00361e-09
-1.0121e-06
4.18312e-09
-1.12222e-06
3.72331e-09
-1.18354e-06
3.27707e-09
-1.2033e-06
3.82268e-09
-1.13586e-06
4.66493e-09
-1.09098e-06
4.8024e-09
-1.17943e-06
5.52039e-09
-1.30596e-06
4.79475e-09
-1.44577e-06
5.20425e-09
-1.53982e-06
4.64944e-09
-1.57517e-06
4.72676e-09
-1.6371e-06
5.3328e-09
-1.74264e-06
5.67862e-09
-1.7864e-06
5.38738e-09
-1.86136e-06
4.96759e-09
-1.91517e-06
4.84541e-09
-1.95581e-06
5.29973e-09
-1.99101e-06
5.28928e-09
-2.04174e-06
4.70601e-09
-2.14718e-06
3.71449e-09
-2.12861e-06
3.2402e-09
-1.94568e-06
3.43973e-09
-2.00904e-06
2.54776e-09
-2.32115e-06
1.77789e-09
-2.40884e-06
2.98129e-09
-2.18625e-06
5.41441e-09
-1.91044e-06
1.36945e-08
-1.52113e-06
-9.07147e-07
3.53456e-11
-6.34572e-08
-3.02845e-11
-1.47119e-10
-1.17172e-07
-1.13632e-10
-1.72105e-07
-1.5045e-10
-2.25859e-07
-2.03531e-10
-2.70207e-07
3.02721e-10
-3.25696e-07
4.40939e-10
-3.85133e-07
1.89128e-10
-4.33196e-07
1.86883e-10
-4.80598e-07
3.15481e-11
-4.93669e-07
-2.02043e-10
-4.5374e-07
-1.89473e-10
-4.82934e-07
-2.70666e-10
-6.04251e-07
-3.92429e-12
-7.36872e-07
5.94549e-10
-8.28046e-07
3.99952e-10
-8.62827e-07
7.83279e-12
-9.11944e-07
-2.69793e-11
-9.45894e-07
8.13387e-11
-1.01245e-06
-2.18395e-10
-1.09973e-06
-9.61912e-10
-1.18175e-06
-1.22082e-09
-1.18895e-06
-1.04892e-09
-1.10167e-06
-5.68062e-10
-1.08603e-06
-1.67447e-10
-1.18131e-06
-5.88282e-10
-1.26444e-06
-6.68035e-10
-1.4272e-06
-6.08026e-10
-1.52559e-06
-1.23104e-09
-1.57917e-06
-1.63036e-09
-1.63717e-06
-8.74341e-10
-1.73668e-06
-1.15629e-09
-1.78441e-06
-1.08257e-09
-1.85037e-06
-1.02319e-09
-1.88907e-06
-1.05845e-09
-1.91461e-06
-8.56736e-10
-1.95908e-06
-9.05266e-10
-2.03472e-06
-1.54486e-09
-2.1473e-06
-2.44976e-09
-2.13256e-06
-2.42295e-09
-1.91731e-06
-1.78021e-09
-1.96827e-06
-2.12728e-09
-2.31868e-06
-2.94613e-09
-2.41331e-06
-1.58153e-09
-2.19601e-06
-7.78658e-10
-1.90473e-06
2.1565e-09
-1.49686e-06
-8.96443e-07
-6.79572e-12
-6.25503e-08
-1.01372e-11
-2.20481e-10
-1.15784e-07
-2.33588e-10
-1.72088e-07
-3.24753e-10
-2.25036e-07
-4.93004e-10
-2.69624e-07
-1.84646e-10
-3.24479e-07
-9.97434e-11
-3.82397e-07
-4.22563e-10
-4.3132e-07
-5.93258e-10
-4.7877e-07
-8.89279e-10
-4.92391e-07
-1.2493e-09
-4.54323e-07
-1.35832e-09
-4.83514e-07
-1.43745e-09
-6.04479e-07
-1.67595e-09
-7.19956e-07
-8.94731e-10
-8.20538e-07
-1.31689e-09
-8.62968e-07
-1.87545e-09
-9.12427e-07
-2.06736e-09
-9.48586e-07
-2.20878e-09
-1.01445e-06
-2.77938e-09
-1.09259e-06
-3.2675e-09
-1.17127e-06
-3.36784e-09
-1.15876e-06
-4.15048e-09
-1.09161e-06
-3.58175e-09
-1.09022e-06
-3.38828e-09
-1.18408e-06
-3.83268e-09
-1.26372e-06
-4.03047e-09
-1.39508e-06
-4.12443e-09
-1.50008e-06
-4.43282e-09
-1.5787e-06
-5.21001e-09
-1.63342e-06
-4.43026e-09
-1.72506e-06
-4.83938e-09
-1.77828e-06
-4.6816e-09
-1.82114e-06
-4.66283e-09
-1.86907e-06
-4.84285e-09
-1.90874e-06
-4.30259e-09
-1.95466e-06
-4.46275e-09
-2.03127e-06
-5.09485e-09
-2.12468e-06
-5.79417e-09
-2.11039e-06
-5.70854e-09
-1.9022e-06
-5.28126e-09
-1.96733e-06
-4.20188e-09
-2.30523e-06
-5.10859e-09
-2.37041e-06
-3.53279e-09
-2.19233e-06
-3.64371e-09
-1.89746e-06
-3.46978e-09
-1.48981e-06
-8.8953e-07
-2.03645e-11
-6.19417e-08
-4.71091e-12
-2.24426e-10
-1.14619e-07
-1.97852e-10
-1.71733e-07
-2.55346e-10
-2.24257e-07
-3.8096e-10
-2.68857e-07
-1.18282e-10
-3.24308e-07
1.09874e-11
-3.81506e-07
-1.80592e-10
-4.29831e-07
-3.7163e-10
-4.75758e-07
-6.86463e-10
-4.90815e-07
-9.53115e-10
-4.56387e-07
-1.01089e-09
-4.8593e-07
-7.91666e-10
-6.06817e-07
-1.25625e-09
-7.15845e-07
-5.12028e-10
-7.91024e-07
-7.87726e-10
-8.61017e-07
-1.21431e-09
-9.15543e-07
-1.44346e-09
-9.53253e-07
-1.39843e-09
-1.01519e-06
-2.07014e-09
-1.08937e-06
-2.21796e-09
-1.14919e-06
-2.4839e-09
-1.1531e-06
-3.54761e-09
-1.09295e-06
-2.9556e-09
-1.09845e-06
-2.40386e-09
-1.19019e-06
-2.79935e-09
-1.26486e-06
-3.18175e-09
-1.39061e-06
-3.49885e-09
-1.49173e-06
-3.40725e-09
-1.57296e-06
-4.30616e-09
-1.62762e-06
-3.73289e-09
-1.70779e-06
-4.00054e-09
-1.76961e-06
-3.96565e-09
-1.80925e-06
-4.0038e-09
-1.86235e-06
-4.20177e-09
-1.90413e-06
-3.67869e-09
-1.95511e-06
-3.7306e-09
-2.02843e-06
-4.68283e-09
-2.09143e-06
-6.01937e-09
-2.07454e-06
-5.79856e-09
-1.89716e-06
-5.51538e-09
-1.96639e-06
-3.75649e-09
-2.28632e-06
-5.31047e-09
-2.33376e-06
-4.10971e-09
-2.18525e-06
-4.51374e-09
-1.8871e-06
-6.38892e-09
-1.47895e-06
-8.83431e-07
-4.92058e-11
-6.22668e-08
1.02908e-11
-1.98393e-10
-1.14272e-07
-1.27717e-10
-1.70997e-07
-1.11563e-10
-2.23359e-07
-7.81476e-11
-2.67808e-07
1.8702e-10
-3.24318e-07
4.00778e-10
-3.81884e-07
3.65052e-10
-4.27939e-07
2.85661e-10
-4.72743e-07
-4.54719e-12
-4.88402e-07
-1.0484e-10
-4.58461e-07
1.31356e-10
-4.94549e-07
5.03304e-10
-6.10468e-07
3.14739e-10
-7.14981e-07
5.93518e-10
-7.74084e-07
7.12405e-10
-8.55968e-07
5.60369e-10
-9.19142e-07
3.27315e-10
-9.57022e-07
4.28557e-10
-1.0132e-06
1.74164e-10
-1.08559e-06
1.43037e-10
-1.13188e-06
8.39365e-11
-1.15313e-06
-9.75381e-10
-1.10133e-06
-8.22374e-10
-1.1042e-06
-3.94542e-11
-1.18975e-06
-1.20086e-10
-1.26522e-06
-5.51009e-10
-1.39786e-06
-7.74332e-10
-1.48982e-06
-7.51783e-10
-1.55621e-06
-1.50633e-09
-1.62019e-06
-1.45151e-09
-1.68261e-06
-1.56634e-09
-1.75886e-06
-1.65421e-09
-1.80514e-06
-1.7749e-09
-1.85695e-06
-1.8471e-09
-1.89972e-06
-1.3912e-09
-1.95506e-06
-1.50163e-09
-2.0219e-06
-2.96982e-09
-2.0838e-06
-4.80096e-09
-2.06618e-06
-4.64811e-09
-1.8914e-06
-4.29466e-09
-1.96051e-06
-2.5478e-09
-2.23451e-06
-4.30075e-09
-2.33178e-06
-4.99548e-09
-2.15835e-06
-4.94196e-09
-1.87595e-06
-6.93846e-09
-1.4639e-06
-8.67294e-07
-3.46087e-11
-6.24193e-08
9.69807e-12
-9.40752e-11
-1.13968e-07
5.77107e-11
-1.69823e-07
1.48562e-10
-2.22249e-07
2.8242e-10
-2.66569e-07
7.87469e-10
-3.23142e-07
1.1713e-09
-3.81574e-07
1.17965e-09
-4.25379e-07
1.3168e-09
-4.70603e-07
1.10881e-09
-4.85811e-07
1.09342e-09
-4.55119e-07
1.73378e-09
-4.95387e-07
2.65931e-09
-6.08938e-07
2.50795e-09
-7.14539e-07
2.42068e-09
-7.78377e-07
2.82261e-09
-8.43769e-07
2.98699e-09
-9.14827e-07
3.50741e-09
-9.49546e-07
3.76165e-09
-9.97894e-07
3.52149e-09
-1.08108e-06
3.78573e-09
-1.13049e-06
3.55219e-09
-1.15477e-06
2.98385e-09
-1.10458e-06
3.65738e-09
-1.09049e-06
4.41509e-09
-1.17247e-06
3.82628e-09
-1.26004e-06
3.84215e-09
-1.4024e-06
3.79982e-09
-1.48555e-06
3.69647e-09
-1.53353e-06
3.26278e-09
-1.61141e-06
3.22097e-09
-1.67326e-06
3.31804e-09
-1.74778e-06
3.02417e-09
-1.7982e-06
2.53192e-09
-1.85021e-06
2.77459e-09
-1.89592e-06
3.2314e-09
-1.94572e-06
2.33835e-09
-2.01e-06
5.51163e-10
-2.07816e-06
-7.85231e-10
-2.06131e-06
-8.47723e-10
-1.88388e-06
-8.86641e-11
-1.95282e-06
-3.59538e-10
-2.22657e-06
-2.11807e-09
-2.3241e-06
-4.5204e-09
-2.14358e-06
-4.04805e-09
-1.86254e-06
-5.28944e-09
-1.4534e-06
-8.6044e-07
-4.13218e-11
-6.23568e-08
1.35298e-11
-6.89608e-11
-1.13349e-07
7.2233e-12
-1.65609e-07
1.20347e-11
-2.176e-07
1.83399e-10
-2.6312e-07
6.40351e-10
-3.2095e-07
1.0128e-09
-3.80179e-07
8.5108e-10
-4.23259e-07
8.45026e-10
-4.69268e-07
7.06718e-10
-4.837e-07
6.10529e-10
-4.51619e-07
1.49673e-09
-4.90716e-07
2.31459e-09
-6.0525e-07
2.38543e-09
-7.22394e-07
1.86473e-09
-7.82523e-07
1.92889e-09
-8.40527e-07
2.52856e-09
-8.89877e-07
3.06162e-09
-9.16705e-07
2.76993e-09
-9.87322e-07
2.69114e-09
-1.07635e-06
2.72202e-09
-1.1291e-06
2.4558e-09
-1.15343e-06
2.79732e-09
-1.09528e-06
2.75855e-09
-1.06492e-06
2.96164e-09
-1.16278e-06
2.64687e-09
-1.25042e-06
3.14802e-09
-1.39161e-06
2.86928e-09
-1.47985e-06
2.40944e-09
-1.52748e-06
2.23383e-09
-1.59313e-06
1.52849e-09
-1.66637e-06
1.82154e-09
-1.73201e-06
1.44947e-09
-1.79103e-06
1.02866e-09
-1.84443e-06
1.60984e-09
-1.88678e-06
2.3156e-09
-1.93386e-06
1.5215e-09
-1.99761e-06
-1.64221e-10
-2.08319e-06
-1.71424e-09
-2.06608e-06
-1.7656e-09
-1.87804e-06
-9.51003e-10
-1.93812e-06
-1.38486e-09
-2.22274e-06
-2.62981e-09
-2.31087e-06
-4.90668e-09
-2.12788e-06
-4.43355e-09
-1.84287e-06
-4.42384e-09
-1.44579e-06
-8.59042e-07
-5.06425e-11
-6.1434e-08
1.87185e-11
-5.91762e-11
-1.11071e-07
-3.66519e-11
-1.63384e-07
-9.29434e-11
-2.16039e-07
2.19317e-11
-2.55196e-07
3.37233e-10
-3.12e-07
7.59671e-10
-3.78237e-07
4.92379e-10
-4.21413e-07
3.40758e-10
-4.71124e-07
1.70438e-10
-4.83058e-07
1.64257e-10
-4.49877e-07
1.10035e-09
-4.85026e-07
1.69261e-09
-6.00071e-07
1.85903e-09
-7.21508e-07
1.23218e-09
-8.09395e-07
1.19033e-09
-8.38406e-07
1.62238e-09
-8.68628e-07
1.73866e-09
-9.04097e-07
1.54459e-09
-9.84669e-07
1.59316e-09
-1.07173e-06
1.43994e-09
-1.12713e-06
1.44423e-09
-1.14485e-06
2.03112e-09
-1.06335e-06
1.40505e-09
-1.06656e-06
1.19352e-09
-1.1602e-06
1.04675e-09
-1.24167e-06
1.56866e-09
-1.36255e-06
1.38873e-09
-1.47308e-06
7.83474e-10
-1.52056e-06
2.39186e-10
-1.57438e-06
2.88671e-11
-1.6591e-06
2.04741e-10
-1.7191e-06
-5.16624e-11
-1.78343e-06
-4.13886e-10
-1.8364e-06
1.61201e-10
-1.87204e-06
2.42118e-10
-1.91094e-06
-6.89612e-10
-1.98754e-06
-1.80334e-09
-2.07806e-06
-2.82772e-09
-2.06249e-06
-2.32478e-09
-1.87072e-06
-2.05942e-09
-1.92157e-06
-2.19178e-09
-2.21779e-06
-3.28509e-09
-2.30525e-06
-5.60618e-09
-2.11504e-06
-5.12653e-09
-1.83653e-06
-4.28072e-09
-1.43908e-06
-8.57516e-07
-6.01314e-11
-6.04472e-08
1.83205e-11
-7.92956e-11
-1.10153e-07
-1.02505e-10
-1.63531e-07
-1.48488e-10
-2.16659e-07
-1.40813e-10
-2.55102e-07
-6.65313e-12
-3.08761e-07
3.51428e-10
-3.73635e-07
1.53646e-10
-4.19511e-07
1.92091e-11
-4.74624e-07
-2.1927e-10
-4.86087e-07
-2.29662e-10
-4.47358e-07
5.15206e-10
-4.62135e-07
1.1469e-09
-5.82907e-07
1.04318e-09
-7.1613e-07
9.91798e-10
-8.05095e-07
8.32703e-10
-8.38583e-07
7.91834e-10
-8.68317e-07
5.42476e-10
-9.03434e-07
4.67893e-10
-9.79125e-07
4.10988e-10
-1.06523e-06
2.40717e-10
-1.12039e-06
6.07213e-10
-1.12451e-06
7.29166e-10
-1.05787e-06
1.80667e-10
-1.06926e-06
-4.12532e-10
-1.15733e-06
-3.67731e-10
-1.23635e-06
-1.8195e-10
-1.35871e-06
-1.87293e-10
-1.45898e-06
-7.14603e-10
-1.51341e-06
-1.55779e-09
-1.5687e-06
-1.68091e-09
-1.65391e-06
-1.83752e-09
-1.7107e-06
-2.15779e-09
-1.77327e-06
-2.48749e-09
-1.81084e-06
-1.98815e-09
-1.84558e-06
-1.84442e-09
-1.90129e-06
-2.67778e-09
-1.9819e-06
-3.13074e-09
-2.06137e-06
-3.74335e-09
-2.04818e-06
-2.98301e-09
-1.86143e-06
-3.30389e-09
-1.91433e-06
-3.52539e-09
-2.20856e-06
-4.38128e-09
-2.30187e-06
-6.59018e-09
-2.104e-06
-6.43823e-09
-1.82914e-06
-4.68167e-09
-1.43154e-06
-8.57917e-07
-8.45597e-11
-6.03559e-08
1.28961e-11
-8.04335e-11
-1.09899e-07
-7.45185e-11
-1.64993e-07
-8.89795e-11
-2.19136e-07
-8.62669e-11
-2.57067e-07
-1.5885e-11
-3.10327e-07
2.32669e-10
-3.58597e-07
2.02646e-10
-4.16828e-07
2.42719e-10
-4.70494e-07
1.12994e-10
-4.82693e-07
4.04317e-10
-4.43778e-07
7.32456e-10
-4.55243e-07
1.22947e-09
-5.68253e-07
1.24818e-09
-6.97635e-07
1.66923e-09
-7.73305e-07
1.64994e-09
-8.35993e-07
1.15283e-09
-8.72264e-07
7.63452e-10
-9.02457e-07
1.01997e-09
-9.68259e-07
1.10376e-09
-1.04908e-06
1.21363e-09
-1.1071e-06
1.23548e-09
-1.11933e-06
1.01635e-09
-1.06038e-06
6.6277e-10
-1.06934e-06
3.03956e-10
-1.15249e-06
5.50009e-10
-1.23041e-06
6.43015e-10
-1.35567e-06
4.3008e-10
-1.44205e-06
-1.51846e-10
-1.50655e-06
-1.05859e-09
-1.57117e-06
-8.00004e-10
-1.64498e-06
-7.87082e-10
-1.70119e-06
-6.47576e-10
-1.752e-06
-1.34909e-09
-1.79794e-06
-1.57942e-09
-1.83931e-06
-1.89018e-09
-1.89921e-06
-2.56202e-09
-1.97087e-06
-2.3573e-09
-2.03515e-06
-2.4482e-09
-2.03062e-06
-2.19294e-09
-1.84962e-06
-3.01027e-09
-1.90571e-06
-3.59794e-09
-2.19729e-06
-4.34362e-09
-2.29e-06
-6.43345e-09
-2.09279e-06
-6.8209e-09
-1.82108e-06
-5.00421e-09
-1.42322e-06
-8.50971e-07
-8.17503e-11
-6.03066e-08
9.90605e-12
-7.74453e-11
-1.10987e-07
-1.98049e-12
-1.69805e-07
1.1921e-11
-2.24732e-07
1.24606e-10
-2.6299e-07
3.19092e-10
-3.11705e-07
2.7872e-10
-3.57417e-07
5.22016e-10
-4.1111e-07
9.18407e-10
-4.59874e-07
9.68592e-10
-4.74935e-07
1.46204e-09
-4.31901e-07
1.43304e-09
-4.55324e-07
1.73544e-09
-5.68498e-07
2.12225e-09
-6.84542e-07
2.14782e-09
-7.53164e-07
2.70195e-09
-8.26025e-07
2.43217e-09
-8.93007e-07
1.89542e-09
-9.12594e-07
2.31311e-09
-9.61832e-07
2.38158e-09
-1.04243e-06
2.66192e-09
-1.09751e-06
2.77393e-09
-1.11519e-06
2.44946e-09
-1.0557e-06
2.24031e-09
-1.0645e-06
2.28373e-09
-1.14729e-06
2.30037e-09
-1.2213e-06
2.30289e-09
-1.34633e-06
2.08095e-09
-1.43561e-06
1.74458e-09
-1.49835e-06
1.14553e-09
-1.56943e-06
1.29209e-09
-1.62323e-06
1.14223e-09
-1.69061e-06
9.54068e-10
-1.74144e-06
1.38214e-10
-1.79078e-06
-1.10191e-10
-1.83212e-06
-4.28774e-10
-1.8908e-06
-9.37575e-10
-1.95723e-06
-1.19606e-09
-2.01709e-06
-1.12162e-09
-1.99846e-06
-7.72694e-10
-1.82719e-06
-1.42946e-09
-1.88922e-06
-2.78487e-09
-2.17705e-06
-3.56177e-09
-2.25798e-06
-5.3967e-09
-2.07949e-06
-6.28285e-09
-1.80686e-06
-4.31199e-09
-1.41506e-06
-8.27032e-07
-1.05005e-10
-6.07681e-08
1.35966e-11
-1.04407e-10
-1.11696e-07
-3.55969e-11
-1.69012e-07
7.76624e-12
-2.22375e-07
1.88191e-10
-2.60772e-07
3.18388e-10
-3.09807e-07
1.59373e-10
-3.57385e-07
3.74146e-10
-4.0375e-07
6.66568e-10
-4.40043e-07
1.03042e-09
-4.54459e-07
1.29211e-09
-4.27245e-07
1.16421e-09
-4.56495e-07
1.49499e-09
-5.81293e-07
1.8185e-09
-6.84425e-07
1.44764e-09
-7.52087e-07
1.91499e-09
-8.15722e-07
2.16539e-09
-8.86594e-07
1.92916e-09
-9.14229e-07
1.9454e-09
-9.58349e-07
1.99567e-09
-1.03761e-06
2.1983e-09
-1.09339e-06
2.24618e-09
-1.10856e-06
1.71233e-09
-1.04888e-06
1.61735e-09
-1.04544e-06
1.88408e-09
-1.14e-06
1.7921e-09
-1.20769e-06
1.96801e-09
-1.33842e-06
1.58404e-09
-1.42904e-06
9.28321e-10
-1.48194e-06
8.06834e-10
-1.55741e-06
4.97991e-10
-1.60773e-06
4.37248e-10
-1.68106e-06
2.1766e-10
-1.73223e-06
-1.26449e-10
-1.78939e-06
-7.60717e-10
-1.82659e-06
-1.19257e-09
-1.881e-06
-1.62359e-09
-1.93694e-06
-1.59417e-09
-2.00854e-06
-1.2045e-09
-1.98951e-06
-1.25109e-09
-1.81623e-06
-2.27276e-09
-1.87218e-06
-3.65808e-09
-2.14846e-06
-4.08456e-09
-2.23475e-06
-5.20102e-09
-2.05899e-06
-6.09158e-09
-1.7867e-06
-3.36356e-09
-1.40711e-06
-8.17425e-07
-1.04146e-10
-6.08932e-08
2.1332e-11
-1.06183e-10
-1.10903e-07
-1.99421e-11
-1.67144e-07
1.41961e-10
-2.15237e-07
3.7686e-10
-2.51191e-07
4.7178e-10
-3.02203e-07
2.98187e-10
-3.6025e-07
6.32311e-10
-4.02954e-07
7.91547e-10
-4.39872e-07
1.03405e-09
-4.53144e-07
1.28585e-09
-4.28366e-07
1.23897e-09
-4.69607e-07
1.77609e-09
-5.81331e-07
1.92399e-09
-6.9525e-07
1.50188e-09
-7.66222e-07
1.91568e-09
-8.13792e-07
2.44708e-09
-8.60703e-07
2.5781e-09
-9.01939e-07
2.17178e-09
-9.55015e-07
2.36135e-09
-1.03614e-06
2.63482e-09
-1.08997e-06
2.44927e-09
-1.10489e-06
2.40702e-09
-1.04498e-06
1.65051e-09
-1.03331e-06
2.24627e-09
-1.11843e-06
2.07314e-09
-1.20256e-06
2.26549e-09
-1.33293e-06
2.02908e-09
-1.4243e-06
1.23047e-09
-1.47546e-06
1.51185e-09
-1.52963e-06
9.82679e-10
-1.60151e-06
6.90441e-10
-1.67859e-06
2.06135e-10
-1.72534e-06
-2.68028e-11
-1.78209e-06
-5.18978e-10
-1.82203e-06
-9.07357e-10
-1.87058e-06
-1.47804e-09
-1.92809e-06
-1.08871e-09
-2.00069e-06
-9.68898e-10
-1.98231e-06
-1.65042e-09
-1.80889e-06
-2.11393e-09
-1.86536e-06
-3.59558e-09
-2.14139e-06
-3.94751e-09
-2.22964e-06
-5.02982e-09
-2.04668e-06
-5.49657e-09
-1.77838e-06
-2.56454e-09
-1.40062e-06
-8.21265e-07
-8.61968e-11
-6.04778e-08
2.67305e-11
-9.36911e-12
-1.09644e-07
1.40667e-10
-1.57726e-07
4.07419e-10
-2.03991e-07
5.99726e-10
-2.43931e-07
6.24635e-10
-3.01473e-07
7.13021e-10
-3.6977e-07
1.16869e-09
-4.04018e-07
1.35957e-09
-4.40749e-07
1.39828e-09
-4.54263e-07
1.63812e-09
-4.37366e-07
2.057e-09
-4.72433e-07
2.56823e-09
-5.74894e-07
2.84494e-09
-6.9278e-07
2.75696e-09
-7.83827e-07
3.13787e-09
-8.18562e-07
3.47543e-09
-8.55224e-07
3.8844e-09
-8.92463e-07
3.54977e-09
-9.66669e-07
4.24182e-09
-1.04326e-06
4.69651e-09
-1.09918e-06
4.39571e-09
-1.10804e-06
4.91741e-09
-1.04667e-06
3.92549e-09
-1.03174e-06
4.19512e-09
-1.1145e-06
4.25349e-09
-1.2003e-06
4.42539e-09
-1.33531e-06
4.51476e-09
-1.42094e-06
3.94723e-09
-1.47057e-06
4.15579e-09
-1.52337e-06
3.18782e-09
-1.59739e-06
3.13916e-09
-1.68696e-06
2.45219e-09
-1.74215e-06
2.24511e-09
-1.77068e-06
1.90848e-09
-1.81296e-06
1.31818e-09
-1.85357e-06
5.3153e-10
-1.92524e-06
7.00443e-10
-2.00041e-06
5.05157e-10
-1.97998e-06
-4.26744e-10
-1.80535e-06
-1.08971e-09
-1.85721e-06
-2.76561e-09
-2.1323e-06
-2.84594e-09
-2.2232e-06
-4.48815e-09
-2.04004e-06
-4.84597e-09
-1.76868e-06
-2.44423e-09
-1.39715e-06
-8.46699e-07
-2.23779e-11
-5.97635e-08
2.80187e-11
1.58601e-10
-1.04246e-07
2.34096e-10
-1.54757e-07
5.21757e-10
-2.04583e-07
6.29435e-10
-2.44837e-07
6.56808e-10
-3.05798e-07
1.16583e-09
-3.65716e-07
1.64123e-09
-4.06123e-07
1.71253e-09
-4.50328e-07
1.68708e-09
-4.66582e-07
2.15757e-09
-4.33826e-07
2.84672e-09
-4.60042e-07
3.08048e-09
-5.7341e-07
3.31421e-09
-6.87283e-07
3.97727e-09
-7.75727e-07
4.404e-09
-8.19255e-07
4.51308e-09
-8.55883e-07
4.77566e-09
-8.92129e-07
4.99675e-09
-9.73126e-07
5.61984e-09
-1.03524e-06
6.14607e-09
-1.09249e-06
5.94269e-09
-1.111e-06
6.72305e-09
-1.04347e-06
5.50006e-09
-1.03847e-06
5.25959e-09
-1.11039e-06
5.59117e-09
-1.19864e-06
6.0944e-09
-1.33036e-06
6.37999e-09
-1.41352e-06
5.89133e-09
-1.46405e-06
5.8015e-09
-1.51867e-06
4.66907e-09
-1.60483e-06
4.91313e-09
-1.67365e-06
4.74263e-09
-1.73869e-06
3.97136e-09
-1.75924e-06
3.88916e-09
-1.80283e-06
2.70717e-09
-1.8468e-06
2.20084e-09
-1.92061e-06
2.10753e-09
-1.99333e-06
1.69803e-09
-1.98126e-06
7.98691e-10
-1.80251e-06
-7.85699e-11
-1.84995e-06
-1.54503e-09
-2.12127e-06
-1.81667e-09
-2.21262e-06
-3.88376e-09
-2.03392e-06
-4.62777e-09
-1.75868e-06
-3.44233e-09
-1.3893e-06
-8.51177e-07
5.43832e-11
-5.72195e-08
2.73074e-11
2.21342e-10
-1.03989e-07
2.6742e-10
-1.55464e-07
5.0394e-10
-2.06183e-07
5.46607e-10
-2.50267e-07
7.69926e-10
-3.05319e-07
1.25203e-09
-3.54568e-07
1.73248e-09
-4.0303e-07
1.81582e-09
-4.53926e-07
2.04622e-09
-4.66063e-07
2.53725e-09
-4.27104e-07
2.90346e-09
-4.51619e-07
3.29108e-09
-5.71307e-07
3.35973e-09
-6.84573e-07
4.42554e-09
-7.69825e-07
4.9009e-09
-8.14042e-07
4.87086e-09
-8.52838e-07
4.91858e-09
-8.9509e-07
5.89131e-09
-9.65743e-07
6.21028e-09
-1.02738e-06
6.61547e-09
-1.08185e-06
6.71447e-09
-1.09915e-06
7.13929e-09
-1.03198e-06
6.48114e-09
-1.04224e-06
5.94702e-09
-1.10714e-06
6.49364e-09
-1.19259e-06
7.21567e-09
-1.31126e-06
7.42473e-09
-1.40602e-06
7.21359e-09
-1.45445e-06
6.51433e-09
-1.51256e-06
5.79997e-09
-1.60237e-06
5.62278e-09
-1.6412e-06
6.02611e-09
-1.72073e-06
4.93114e-09
-1.74793e-06
5.12586e-09
-1.79235e-06
3.14944e-09
-1.83945e-06
2.65495e-09
-1.91131e-06
2.47448e-09
-1.98446e-06
2.19521e-09
-1.97175e-06
1.55774e-09
-1.79207e-06
6.955e-10
-1.84227e-06
-1.01332e-09
-2.11056e-06
-1.4597e-09
-2.2009e-06
-3.49445e-09
-2.0256e-06
-4.62447e-09
-1.7495e-06
-4.16249e-09
-1.38025e-06
-8.40325e-07
3.98581e-12
-5.63542e-08
1.13343e-11
1.29033e-10
-1.05358e-07
1.21802e-10
-1.60708e-07
1.54611e-10
-2.14928e-07
2.99317e-10
-2.56318e-07
4.56279e-10
-3.018e-07
5.88461e-10
-3.535e-07
9.04672e-10
-4.00224e-07
9.92773e-10
-4.4556e-07
1.23907e-09
-4.56909e-07
1.55302e-09
-4.25866e-07
1.51954e-09
-4.52573e-07
1.87109e-09
-5.67973e-07
1.80224e-09
-6.80886e-07
2.72269e-09
-7.63061e-07
3.01961e-09
-8.08086e-07
2.70614e-09
-8.48735e-07
2.74245e-09
-8.89089e-07
3.7879e-09
-9.58725e-07
3.54663e-09
-1.02333e-06
3.78956e-09
-1.07767e-06
3.87739e-09
-1.08305e-06
3.63839e-09
-1.0271e-06
3.55928e-09
-1.03395e-06
2.7111e-09
-1.10347e-06
3.22944e-09
-1.1749e-06
3.55318e-09
-1.28933e-06
3.83836e-09
-1.39748e-06
3.49496e-09
-1.44146e-06
2.38852e-09
-1.507e-06
2.46581e-09
-1.59017e-06
1.80315e-09
-1.63208e-06
2.15092e-09
-1.66828e-06
1.49415e-09
-1.73949e-06
1.01652e-09
-1.77037e-06
-6.46775e-10
-1.83038e-06
-1.00134e-09
-1.89228e-06
-9.6632e-10
-1.97253e-06
-7.22446e-10
-1.93895e-06
-1.17436e-09
-1.76082e-06
-1.89806e-09
-1.8261e-06
-3.4084e-09
-2.09856e-06
-3.18435e-09
-2.18726e-06
-4.98733e-09
-2.01063e-06
-5.65464e-09
-1.73917e-06
-4.47627e-09
-1.35989e-06
-7.91238e-07
-8.37225e-11
-5.62417e-08
3.80336e-12
-2.81522e-11
-1.0815e-07
-2.24793e-11
-1.62694e-07
-5.63915e-11
-2.14228e-07
9.89146e-11
-2.54167e-07
5.13995e-11
-3.0074e-07
3.06595e-11
-3.56891e-07
2.58575e-10
-3.98462e-07
2.86215e-10
-4.40304e-07
2.87843e-10
-4.5366e-07
4.40033e-10
-4.24246e-07
3.50628e-10
-4.52271e-07
5.16044e-10
-5.62762e-07
4.70168e-10
-6.74695e-07
8.71351e-10
-7.49139e-07
1.07836e-09
-7.84417e-07
7.12146e-10
-8.43314e-07
6.29434e-10
-8.82203e-07
1.39722e-09
-9.483e-07
1.14499e-09
-1.01834e-06
9.96457e-10
-1.07302e-06
7.59073e-10
-1.07701e-06
5.57678e-10
-1.02175e-06
3.27999e-10
-1.02112e-06
1.81025e-11
-1.109e-06
-3.76969e-11
-1.16776e-06
1.02905e-10
-1.28702e-06
5.69892e-10
-1.37917e-06
8.44719e-11
-1.43289e-06
-9.82901e-10
-1.51061e-06
-1.06553e-09
-1.5634e-06
-1.41238e-09
-1.62628e-06
-2.01013e-09
-1.65518e-06
-2.177e-09
-1.73232e-06
-3.07062e-09
-1.76217e-06
-4.80388e-09
-1.81779e-06
-4.95201e-09
-1.88168e-06
-3.91096e-09
-1.95571e-06
-3.98625e-09
-1.90184e-06
-4.44727e-09
-1.72686e-06
-4.75363e-09
-1.80289e-06
-5.76606e-09
-2.08162e-06
-5.01926e-09
-2.15952e-06
-6.49105e-09
-1.97408e-06
-6.02794e-09
-1.71672e-06
-3.36966e-09
-1.34424e-06
-7.73079e-07
-1.43228e-10
-5.65613e-08
-9.55068e-12
-9.01879e-11
-1.06967e-07
-6.44923e-11
-1.5976e-07
-3.06471e-11
-2.09883e-07
7.7838e-11
-2.46131e-07
-3.81132e-11
-3.00365e-07
-7.46102e-11
-3.56495e-07
9.69753e-11
-3.97646e-07
1.00697e-10
-4.39702e-07
8.40989e-11
-4.51829e-07
1.80654e-10
-4.21153e-07
1.45107e-10
-4.47963e-07
5.80353e-11
-5.46024e-07
2.58397e-10
-6.54427e-07
4.26607e-10
-7.13886e-07
2.69456e-10
-7.72809e-07
1.93265e-10
-8.31526e-07
2.50587e-10
-8.55754e-07
6.56763e-10
-9.05777e-07
5.37926e-10
-1.01201e-06
2.00613e-11
-1.06712e-06
-2.17042e-10
-1.07506e-06
-2.73905e-10
-1.01568e-06
-6.6411e-10
-1.0121e-06
-5.45289e-10
-1.10329e-06
-9.27597e-10
-1.16672e-06
-9.64236e-10
-1.28219e-06
-6.57176e-10
-1.36461e-06
-1.15086e-09
-1.42582e-06
-1.82019e-09
-1.50351e-06
-2.36311e-09
-1.5567e-06
-2.3919e-09
-1.61755e-06
-3.42833e-09
-1.65387e-06
-3.19918e-09
-1.72105e-06
-4.51505e-09
-1.75468e-06
-6.14103e-09
-1.80284e-06
-6.19804e-09
-1.87124e-06
-4.37417e-09
-1.9238e-06
-4.82053e-09
-1.8914e-06
-6.02151e-09
-1.721e-06
-5.98174e-09
-1.79576e-06
-6.32918e-09
-2.07068e-06
-5.36732e-09
-2.14572e-06
-6.51359e-09
-1.95587e-06
-5.45921e-09
-1.69851e-06
-2.42092e-09
-1.33408e-06
-7.75457e-07
-1.42409e-10
-5.65423e-08
-1.83869e-11
-1.11941e-10
-1.01443e-07
-6.49072e-11
-1.49924e-07
-3.58177e-11
-1.95331e-07
-1.64602e-10
-2.33798e-07
-2.08732e-10
-2.98916e-07
-1.95024e-10
-3.53839e-07
-5.09262e-11
-3.94986e-07
-9.7404e-11
-4.3764e-07
-1.24238e-10
-4.48643e-07
2.96432e-11
-4.14297e-07
-4.78387e-11
-4.37552e-07
-3.17852e-10
-5.39378e-07
-1.27638e-10
-6.43321e-07
-4.19186e-10
-7.11439e-07
-6.39688e-10
-7.72414e-07
-2.2073e-10
-8.25182e-07
-7.81679e-11
-8.47573e-07
-3.21949e-10
-8.99579e-07
-4.11982e-10
-9.93214e-07
-8.94462e-10
-1.05679e-06
-1.05025e-09
-1.07374e-06
-1.3291e-09
-1.01033e-06
-1.75685e-09
-1.00495e-06
-1.37747e-09
-1.08632e-06
-1.91696e-09
-1.15995e-06
-1.97627e-09
-1.27277e-06
-1.71727e-09
-1.35792e-06
-2.14913e-09
-1.42334e-06
-2.58208e-09
-1.48331e-06
-3.34148e-09
-1.55003e-06
-3.44771e-09
-1.61169e-06
-4.5654e-09
-1.67525e-06
-4.33532e-09
-1.70666e-06
-6.04255e-09
-1.74906e-06
-7.48952e-09
-1.79176e-06
-7.17355e-09
-1.8565e-06
-5.51166e-09
-1.91088e-06
-6.03248e-09
-1.88679e-06
-7.3041e-09
-1.7198e-06
-7.03042e-09
-1.78834e-06
-6.94353e-09
-2.06245e-06
-5.71062e-09
-2.13713e-06
-6.36859e-09
-1.94615e-06
-4.92951e-09
-1.6923e-06
-1.78928e-09
-1.32703e-06
-7.76464e-07
-1.09026e-10
-5.60579e-08
4.53576e-12
-1.34787e-10
-1.00572e-07
-1.56552e-10
-1.494e-07
-2.92886e-10
-1.95162e-07
-7.5162e-10
-2.34345e-07
-6.75239e-10
-2.96597e-07
-6.77581e-10
-3.51427e-07
-6.85952e-10
-3.91477e-07
-8.45428e-10
-4.3411e-07
-9.52838e-10
-4.43302e-07
-9.8511e-10
-4.09329e-07
-1.04618e-09
-4.33389e-07
-1.63808e-09
-5.45085e-07
-1.72543e-09
-6.48789e-07
-2.31218e-09
-7.25771e-07
-2.6361e-09
-7.85763e-07
-2.08192e-09
-8.24267e-07
-2.03782e-09
-8.54986e-07
-3.29743e-09
-8.9764e-07
-3.27206e-09
-9.8121e-07
-3.7357e-09
-1.04942e-06
-3.97822e-09
-1.0673e-06
-4.46782e-09
-1.00965e-06
-4.54284e-09
-1.00326e-06
-4.60569e-09
-1.06599e-06
-4.91637e-09
-1.14855e-06
-5.21671e-09
-1.26524e-06
-5.47136e-09
-1.35149e-06
-5.68504e-09
-1.41777e-06
-6.05396e-09
-1.47172e-06
-6.98756e-09
-1.54714e-06
-7.30839e-09
-1.61033e-06
-7.68435e-09
-1.6682e-06
-7.83853e-09
-1.69621e-06
-9.55851e-09
-1.75181e-06
-1.06992e-08
-1.78173e-06
-1.0229e-08
-1.83949e-06
-8.72263e-09
-1.90463e-06
-9.21134e-09
-1.91071e-06
-9.55066e-09
-1.74452e-06
-9.6963e-09
-1.79056e-06
-9.10598e-09
-2.06502e-06
-7.49962e-09
-2.13589e-06
-7.0038e-09
-1.94386e-06
-4.93345e-09
-1.70069e-06
-1.62583e-09
-1.32329e-06
-7.76264e-07
-9.39232e-11
-5.56802e-08
2.204e-11
-1.46585e-10
-1.02662e-07
-2.15066e-10
-1.52617e-07
-4.76824e-10
-1.95466e-07
-1.07522e-09
-2.33923e-07
-9.92948e-10
-2.9088e-07
-9.08345e-10
-3.48652e-07
-1.07152e-09
-3.89487e-07
-1.25343e-09
-4.3115e-07
-1.39095e-09
-4.40663e-07
-1.60857e-09
-4.07631e-07
-1.9614e-09
-4.3525e-07
-2.40437e-09
-5.54142e-07
-2.72006e-09
-6.64708e-07
-3.48857e-09
-7.38691e-07
-3.56133e-09
-7.85366e-07
-3.32081e-09
-8.22991e-07
-3.03514e-09
-8.58975e-07
-4.84512e-09
-8.96583e-07
-5.03269e-09
-9.77166e-07
-5.39251e-09
-1.04278e-06
-5.71041e-09
-1.06035e-06
-5.94887e-09
-1.01122e-06
-5.77923e-09
-9.97129e-07
-6.62454e-09
-1.06149e-06
-6.66418e-09
-1.14067e-06
-7.24802e-09
-1.25776e-06
-7.72542e-09
-1.34478e-06
-7.54724e-09
-1.40328e-06
-8.08202e-09
-1.46661e-06
-9.04389e-09
-1.54595e-06
-9.44149e-09
-1.59991e-06
-9.43738e-09
-1.64545e-06
-1.00435e-08
-1.69169e-06
-1.13545e-08
-1.74023e-06
-1.23981e-08
-1.78228e-06
-1.22196e-08
-1.8271e-06
-1.15055e-08
-1.89621e-06
-1.08224e-08
-1.90165e-06
-1.05964e-08
-1.73494e-06
-1.12964e-08
-1.78783e-06
-1.04686e-08
-2.05231e-06
-8.78767e-09
-2.13023e-06
-7.62046e-09
-1.93963e-06
-4.69986e-09
-1.69474e-06
-1.46117e-09
-1.33107e-06
-7.75411e-07
-8.60069e-11
-5.58281e-08
2.80392e-11
-6.16218e-11
-1.03345e-07
-6.43477e-11
-1.54463e-07
-3.30698e-10
-2.02728e-07
-8.53785e-10
-2.34001e-07
-7.6883e-10
-2.86847e-07
-4.66917e-10
-3.4582e-07
-5.36601e-10
-3.87625e-07
-5.69061e-10
-4.30069e-07
-6.30424e-10
-4.38602e-07
-8.53471e-10
-4.10916e-07
-1.18055e-09
-4.39163e-07
-1.35086e-09
-5.46759e-07
-1.62867e-09
-6.56514e-07
-2.14206e-09
-7.25108e-07
-1.89956e-09
-7.71115e-07
-1.72567e-09
-8.16967e-07
-1.5153e-09
-8.50381e-07
-2.82373e-09
-9.23262e-07
-3.32605e-09
-9.72611e-07
-3.58958e-09
-1.03648e-06
-3.92602e-09
-1.05328e-06
-3.3818e-09
-1.00362e-06
-3.15941e-09
-9.88045e-07
-4.15267e-09
-1.05785e-06
-4.15484e-09
-1.13406e-06
-4.68332e-09
-1.25535e-06
-5.07445e-09
-1.33977e-06
-5.10277e-09
-1.39405e-06
-5.59334e-09
-1.46912e-06
-6.10262e-09
-1.53317e-06
-6.67947e-09
-1.58654e-06
-6.88364e-09
-1.6354e-06
-7.68666e-09
-1.69504e-06
-8.89354e-09
-1.72707e-06
-9.36233e-09
-1.78904e-06
-9.91147e-09
-1.81572e-06
-1.02203e-08
-1.8854e-06
-8.72602e-09
-1.88098e-06
-8.56061e-09
-1.69993e-06
-9.35641e-09
-1.76293e-06
-9.1789e-09
-2.01833e-06
-7.90158e-09
-2.10856e-06
-6.42895e-09
-1.92502e-06
-4.02674e-09
-1.67116e-06
-8.75853e-10
-1.33665e-06
-7.74345e-07
-2.36759e-11
-5.73158e-08
1.80642e-11
7.02335e-11
-1.01327e-07
1.45023e-10
-1.5182e-07
1.03582e-10
-2.04381e-07
-2.93272e-10
-2.385e-07
-1.79915e-10
-2.85416e-07
3.61257e-10
-3.42355e-07
5.44058e-10
-3.8536e-07
8.43951e-10
-4.30731e-07
8.37189e-10
-4.41105e-07
8.90446e-10
-4.11077e-07
9.01493e-10
-4.35129e-07
8.2367e-10
-5.37705e-07
8.85026e-10
-6.44869e-07
6.95457e-10
-7.12089e-07
1.14682e-09
-7.60197e-07
1.54446e-09
-8.08089e-07
1.6505e-09
-8.45017e-07
1.4652e-09
-9.22485e-07
7.39777e-10
-9.70474e-07
6.64687e-10
-1.03014e-06