/*--------------------------------*- C++ -*----------------------------------*\
| =========                 |                                                 |
| \\      /  F ield         | OpenFOAM: The Open Source CFD Toolbox           |
|  \\    /   O peration     | Version:  2212                                  |
|   \\  /    A nd           | Website:  www.openfoam.com                      |
|    \\/     M anipulation  |                                                 |
\*---------------------------------------------------------------------------*/
FoamFile
{
    version     2.0;
    format      ascii;
    arch        "LSB;label=32;scalar=64";
    class       volScalarField;
    location    "220";
    object      epsilon;
}
// * * * * * * * * * * * * * * * * * * * * * * * * * * * * * * * * * * * * * //

dimensions      [0 2 -3 0 0 0 0];

internalField   nonuniform List<scalar> 
12225
(
1499.74
4061.15
10480.9
18803
38704.4
59173.2
105359
142249
220697
278619
382120
456174
572707
647856
764323
832608
941949
998633
53.7962
122.564
189.842
493.113
775.381
1519.11
2638.02
4227.44
7008.36
9732.56
14691.5
18851.7
25809.4
31846.8
39416.3
47278.8
54269.1
62555
18.3381
23.8027
34.1124
41.5148
48.0614
67.4203
93.1204
127.973
178.248
252.703
327.534
460.228
573.792
783.776
929.739
1235.67
1365.72
1886.55
15.1198
15.5559
16.1822
16.9978
17.4014
19.022
20.5364
23.3788
25.6851
29.9508
33.2895
39.4349
43.8567
52.4624
58.162
69.7601
74.4981
97.2213
14.8385
14.8802
14.8672
15.022
15.0287
15.1614
15.314
15.6658
15.9145
16.3854
16.7298
17.3577
17.7942
18.6242
19.1486
20.2017
20.7293
22.301
14.843
14.8319
14.8129
14.8014
14.7943
14.7934
14.7947
14.8187
14.8405
14.8842
14.9216
14.9883
15.0419
15.143
15.2079
15.3491
15.4203
15.6108
14.8451
14.8296
14.8115
14.7971
14.7807
14.768
14.7545
14.7449
14.7357
14.7289
14.7241
14.7213
14.7215
14.7239
14.7271
14.7377
14.7425
14.7641
14.8456
14.8293
14.8118
14.7969
14.7807
14.7672
14.7526
14.7405
14.7275
14.7168
14.7051
14.6959
14.6855
14.6779
14.6689
14.6627
14.6551
14.6501
14.8459
14.829
14.812
14.7966
14.7809
14.7669
14.7527
14.7399
14.7271
14.7156
14.7041
14.6938
14.6835
14.6743
14.6652
14.657
14.6488
14.6413
14.846
14.8289
14.812
14.7964
14.781
14.7667
14.7527
14.7397
14.7271
14.7154
14.704
14.6934
14.6832
14.6736
14.6644
14.6558
14.6473
14.6394
14.846
14.8288
14.812
14.7963
14.7809
14.7666
14.7526
14.7396
14.7269
14.7152
14.7038
14.6931
14.6828
14.6732
14.6639
14.6552
14.6467
14.6388
14.846
14.8288
14.812
14.7962
14.7809
14.7665
14.7526
14.7395
14.7269
14.715
14.7036
14.6929
14.6826
14.6729
14.6636
14.6547
14.6463
14.6382
14.8461
14.8287
14.812
14.7961
14.7809
14.7664
14.7525
14.7393
14.7268
14.7148
14.7035
14.6926
14.6823
14.6725
14.6632
14.6543
14.6458
14.6376
14.846
14.8287
14.8119
14.7961
14.7807
14.7664
14.7523
14.7393
14.7265
14.7148
14.7031
14.6925
14.6819
14.6723
14.6626
14.6539
14.6451
14.6371
14.8462
14.8285
14.812
14.7959
14.7808
14.7661
14.7524
14.739
14.7265
14.7144
14.7031
14.692
14.6817
14.6717
14.6624
14.6532
14.6447
14.6364
14.8462
14.8284
14.8121
14.7958
14.7808
14.766
14.7524
14.7388
14.7264
14.7141
14.7029
14.6916
14.6815
14.6712
14.662
14.6526
14.6442
14.6357
14.846
14.8287
14.8118
14.796
14.7805
14.7661
14.752
14.7389
14.726
14.7142
14.7024
14.6916
14.6809
14.6711
14.6613
14.6524
14.6434
14.6353
14.846
14.8286
14.8118
14.7959
14.7805
14.766
14.7519
14.7388
14.7259
14.7139
14.7022
14.6913
14.6806
14.6707
14.6609
14.6519
14.643
14.6347
14.846
14.8286
14.8118
14.7959
14.7804
14.766
14.7518
14.7387
14.7258
14.7138
14.702
14.6911
14.6803
14.6705
14.6606
14.6516
14.6426
14.6344
14.8459
14.8287
14.8117
14.796
14.7804
14.766
14.7518
14.7387
14.7257
14.7138
14.7019
14.6911
14.6802
14.6703
14.6604
14.6514
14.6423
14.6341
14.8463
14.8284
14.8121
14.7956
14.7808
14.7657
14.7521
14.7384
14.726
14.7135
14.7022
14.6907
14.6804
14.67
14.6606
14.6511
14.6424
14.6338
14.846
14.8287
14.8118
14.796
14.7805
14.766
14.7519
14.7387
14.7258
14.7137
14.7019
14.691
14.6802
14.6703
14.6605
14.6515
14.6426
14.6344
14.8459
14.8288
14.8117
14.7961
14.7805
14.7662
14.7519
14.7389
14.7258
14.7139
14.7019
14.691
14.68
14.67
14.6599
14.6508
14.6416
14.6333
14.8464
14.8283
14.8123
14.7956
14.7811
14.7657
14.7524
14.7384
14.7266
14.714
14.7036
14.6923
14.6832
14.6731
14.665
14.6559
14.6488
14.6404
14.8473
14.8274
14.8133
14.795
14.7824
14.7653
14.7544
14.7393
14.7304
14.7172
14.7099
14.6983
14.6924
14.6824
14.6777
14.6691
14.6658
14.6585
14.8456
14.8295
14.813
14.801
14.7904
14.7901
14.7918
14.8001
14.8108
14.8237
14.8465
14.8636
14.9005
14.9244
14.9763
15.0039
15.0847
15.1049
14.8499
14.8452
14.8751
14.9694
15.1023
15.2242
15.4443
15.6481
15.9703
16.2716
16.7549
17.1339
17.8672
18.3477
19.3666
19.9391
21.4498
21.9092
15.3757
15.657
16.9684
18.1276
20.3929
22.7591
26.6045
30.7233
37.6455
44.3443
55.6964
65.237
83.0193
95.0185
122.074
136.182
179.066
187.631
32.1648
39.8254
65.9766
95.5519
155.562
231.962
370.626
537.503
844.115
1164.26
1747.65
2278.09
3244.25
4012.5
5435.6
6443.4
8351.84
9556.97
798.829
1528.62
2982.36
5015
8380.05
13104.8
19880.7
28866.8
40605.8
55215.2
72976.8
93837.7
117762
144499
173731
205077
238035
272208
990.422
1326
2285.77
3031.02
3610.47
4187.86
4745.29
5326.5
5985.44
6763.18
7682.1
8731.01
9894.75
11165.6
12547.9
14045.9
15669.5
17427.9
19340.9
21378.9
23537.7
25809.1
28189.5
30671.9
33253.3
35926.9
38691.1
41540.7
44476.2
47494.1
50596.7
53782.4
57055.2
60415.8
63870.3
67422.7
71083.5
74857.4
78752.1
82773.8
86931.2
91232.1
95685.5
100299
105079
110032
115153
120444
125912
131564
137401
143432
149658
156085
162714
169551
176596
183855
191325
199012
206912
215030
223360
231910
240667
249641
258816
268204
277786
287573
297544
307713
318052
328579
339262
350120
361117
372277
383561
394998
406541
418226
430003
441911
453894
466000
478172
490465
502832
515317
527893
540552
553293
566111
579010
591980
605027
618132
631300
644504
657742
670978
684190
697344
710417
723420
736389
749487
762594
775706
788780
801844
814829
827758
840548
853218
865664
877898
889815
901410
912551
923181
933151
942409
950790
958183
964212
967281
971906
975108
978034
977059
975078
971063
965291
957618
948134
936697
923067
907610
890383
871558
851298
829855
807372
783998
760129
736340
711705
689851
671929
654409
636876
619390
602060
584980
568241
551885
535939
520421
505229
490491
476247
462568
449295
436484
424214
412409
401006
389999
379418
369239
359447
349975
340804
331703
322934
312433
304761
277192
5161.77
3178.69
2944.53
3082.11
3393.26
3814.57
4325.78
4920.06
5594.26
6343.02
7157.76
8027.84
8945.43
9906.73
10911
11958.4
13049.8
14185.2
15363.5
16579.7
17831.4
19118.3
20440.1
21792.9
23176.5
24591
26037.5
27517
29031.5
30582.7
32173.1
33805.6
35483.9
37212.3
38996.8
40841.2
42740.2
44696.8
46714
48794.7
50942.3
53159
55447.6
57810.2
60248.4
62763.2
65354.7
68024
70773.1
73603.6
76516.9
79514.3
82596.9
85765.9
89021.8
92365.7
95797.8
99318.7
102928
106627
110415
114291
118254
122305
126442
130664
134970
139358
143826
148373
152996
157695
162464
167303
172208
177177
182206
187295
192437
197632
202875
208166
213498
218873
224282
229728
235206
240718
246258
251829
257423
263035
268663
274302
279951
285604
291256
296903
302537
308151
313738
319285
324789
330239
335642
341006
346365
351762
357253
362696
368109
373480
378804
384070
389269
394386
399408
404318
409100
413732
418183
422419
426402
430099
433466
436451
438978
440965
442928
444314
444902
444994
444451
443159
441119
438295
434684
430263
424993
418946
412144
404647
396512
387816
378620
368996
359033
348878
338448
328253
318723
309450
300284
291231
282324
273601
265091
256816
248784
241003
233372
225915
218713
211797
205148
198739
192596
186709
181055
175624
170413
165418
160634
156048
151663
147410
143486
139197
136985
133861
10649.2
5260.71
4463.82
4361.13
4521.18
4851.25
5313.28
5886.57
6553.78
7297.33
8100.24
8948.16
9831.06
10743.3
11682.5
12648.5
13641.6
14663.1
15714.6
16792.8
17890.5
18999.9
20129.9
21285.1
22467.8
23679.1
24920.5
26193.2
27498.9
28839.2
30215.7
31630.4
33085.2
34582.4
36124
37711.3
39345.4
41027.7
42760.2
44544.8
46386.4
48284.9
50241.3
52257.2
54333.7
56471.9
58672.8
60937.5
63267.5
65663.9
68127.9
70660.4
73262.3
75934.6
78677.9
81492.8
84379.8
87339.3
90371.5
93476.5
96654.3
99904.8
103228
106622
110088
113624
117229
120903
124643
128450
132319
136251
140243
144293
148397
152555
156763
161019
165318
169660
174039
178454
182900
187375
191874
196396
200935
205490
210056
214631
219210
223789
228362
232927
237478
242013
246526
251015
255473
259898
264285
268632
272937
277201
281429
285629
289813
293994
298160
302282
306361
310392
314372
318295
322157
325948
329663
333289
336818
340233
343516
346642
349588
352327
354831
357066
359002
360623
362007
362717
363081
363001
362399
361218
359438
357034
353993
350302
345965
341004
335446
329331
322709
315630
308148
300317
292204
283898
275466
267120
259036
251127
243334
235659
228125
220759
213584
206616
199866
193336
187000
180858
174934
169240
163768
158466
153376
148499
143824
139342
135038
130915
126972
123203
119607
116162
112959
109771
107464
105405
16309
7472.57
6092.22
5788.65
5843
6109.25
6525.13
7060
7692.4
8403.49
9176.1
9995.72
10851.4
11736.1
12645.6
13578
14532.4
15507.9
16503.2
17519.2
18559.4
19628.1
20724.7
21848.6
23000.4
24181.1
25392.1
26634.7
27910.8
29222.1
30569.1
31953.1
33375.6
34838.2
36342.6
37889.9
39481.6
41118.8
42802.6
44533.5
46316.2
48151.9
50042.1
51988.1
53991.5
56053.3
58175
60357.7
62602.9
64911.9
67285.7
69725.6
72232.6
74807.7
77451.8
80165.7
82950.1
85805.6
88732.6
91731.5
94802.5
97945.7
101161
104448
107807
111237
114737
118306
121943
125647
129417
133250
137144
141098
145110
149175
153292
157457
161667
165919
170209
174532
178886
183265
187665
192083
196513
200950
205390
209830
214263
218684
223088
227471
231827
236153
240443
244694
248903
253066
257180
261244
265256
269218
273133
277003
280834
284622
288360
292040
295660
299217
302711
306138
309495
312777
315981
319098
322123
325042
327843
330506
333014
335344
337472
339372
341020
342390
343415
343922
344107
343872
343152
341901
340091
337698
334704
331091
326878
322076
316710
310818
304444
297634
290442
282931
275176
267263
259273
251321
243501
235811
228239
220796
213505
206387
199463
192750
186255
179984
173928
168084
162460
157059
151877
146893
142113
137534
133150
128946
124898
121021
117315
113777
110400
107181
104168
101294
98929.3
96901.2
21557.7
9574.85
7649.44
7152.77
7105.73
7301.64
7663.13
8149.35
8735.61
9403.2
10136.4
10921.8
11749.1
12610.6
13501.2
14418
15359.3
16324.4
17313.3
18326.9
19366.5
20433.7
21529
22653
23806.4
24990
26205
27452.2
28732.6
30047.3
31397.9
32786.1
34213.3
35680.9
37190.3
38742.9
40340.3
41984
43675.8
45417.7
47212.1
49059.8
50962.2
52920.8
54937.1
57012.5
59148.7
61347.1
63609.3
65936.8
68330.9
70793.1
73324.8
75927.1
78601.3
81348.5
84169.7
87065.8
90037.5
93085.6
96210.5
99412.8
102692
106050
109484
112996
116584
120248
123987
127800
131685
135640
139663
143753
147906
152120
156392
160717
165093
169514
173977
178477
183010
187569
192149
196746
201353
205963
210573
215174
219763
224331
228874
233384
237858
242288
246670
251001
255275
259489
263640
267725
271742
275691
279570
283379
287115
290779
294365
297871
301295
304636
307893
311067
314153
317152
320060
322874
325589
328197
330687
333047
335260
337311
339176
340834
342259
343426
344193
344565
344600
344227
343382
342025
340120
337642
334568
330883
326600
321726
316283
310309
303846
296943
289665
282082
274272
266314
258287
250277
242350
234529
226827
219263
211860
204641
197626
190830
184263
177929
171826
165953
160310
154897
149709
144735
139971
135412
131051
126878
122877
119048
115389
111899
108561
105386
102406
99609.1
97175.5
94994.2
26755.5
11559
9076.01
8378.73
8236.9
8366.15
8675.71
9115.59
9657.91
10283.7
10978.5
11730.3
12529.5
13368.8
14243
15148.4
16082.9
17045.4
18035.4
19053.4
20099.7
21175.3
22280.7
23416.6
24583.8
25783.2
27015.6
28282
29583.6
30921.4
32296.9
33711.3
35166.2
36662.8
38202.6
39787.2
41418.1
43096.9
44825.6
46605.8
48439.4
50328
52273.2
54276.8
56340.6
58466.2
60655.6
62910.5
65232.7
67624.1
70086.4
72621.3
75230.6
77915.9
80678.7
83520.6
86442.8
89446.7
92533.5
95704.2
98959.7
102301
105728
109241
112841
116527
120300
124158
128101
132127
136236
140425
144692
149035
153451
157937
162489
167104
171776
176502
181275
186091
190943
195826
200733
205657
210590
215527
220458
225378
230279
235153
239992
244790
249539
254234
258866
263432
267926
272343
276679
280930
285092
289162
293138
297015
300793
304468
308038
311501
314857
318105
321246
324279
327205
330025
332737
335341
337835
340215
342473
344601
346588
348419
350076
351539
352783
353772
354355
354622
354548
354061
353109
351646
349636
347046
343852
340037
335602
330553
324912
318716
312011
304856
297321
289480
281409
273189
264895
256601
248364
240221
232199
224323
216621
209116
201828
194773
187960
181396
175081
169013
163191
157612
152271
147158
142268
137593
133124
128853
124769
120865
117138
113585
110199
106987
103966
101145
98615.9
96240.5
31655
13367.2
10337.2
9442.12
9208.69
9276.95
9540.69
9940.91
10446.2
11036.8
11698.6
12420.9
13194.8
14013.7
14872.4
15767.1
16695.4
17655.7
18647.3
19670
20723.8
21809.2
22926.8
24077.1
25260.9
26479.1
27732.5
29022.2
30349.2
31714.7
33119.9
34566.3
36055
37587.7
39165.7
40790.7
42464.4
44188.4
45964.6
47794.8
49681
51625
53628.8
55694.3
57823.7
60019
62282.4
64616
67021.9
69502.4
72059.7
74695.8
77412.9
80213
83098.2
86070.3
89131.2
92282.5
95525.9
98862.8
102295
105822
109447
113168
116988
120906
124922
129036
133246
137553
141954
146448
151032
155704
160460
165299
170214
175202
180258
185376
190551
195776
201044
206347
211679
217031
222394
227759
233119
238464
243785
249073
254319
259514
264648
269716
274707
279615
284434
289157
293778
298291
302691
306974
311134
315167
319070
322840
326475
329972
333333
336555
339641
342592
345410
348096
350653
353082
355385
357560
359606
361516
363285
364901
366352
367618
368678
369480
369924
370070
369875
369272
368208
366634
364507
361789
358449
354466
349833
344555
338656
332175
325163
317683
309807
301612
293177
284581
275900
267204
258552
249986
241543
233256
225153
217261
209601
202188
195034
188146
181524
175169
169076
163243
157662
152326
147227
142355
137703
133260
129017
124966
121102
117422
113921
110603
107482
104570
101918
99346.6
35955.1
14940.2
11413
10334.1
10014.8
10028.7
10253.2
10620.7
11096.3
11658.8
12294.2
12992
13744.5
14545.2
15389.3
16273.3
17194.7
18151.6
19143
20168.5
21228
22321.6
23449.9
24613.4
25812.9
27049.1
28323
29635.7
30988.1
32381.6
33817.4
35296.8
36821.3
38392.3
40011.5
41680.5
43401.1
45175.2
47004.6
48891.5
50837.9
52845.9
54917.8
57055.9
59262.6
61540.2
63891.4
66318.6
68824.5
71411.6
74082.5
76839.8
79686.2
82624.1
85656
88784.3
92011.3
95339.2
98770
102306
105948
109698
113558
117528
121609
125802
130106
134522
139050
143687
148433
153285
158243
163302
168459
173711
179053
184480
189986
195566
201213
206918
212675
218475
224308
230165
236037
241913
247782
253634
259458
265244
270979
276654
282257
287779
293211
298541
303764
308869
313849
318696
323404
327967
332377
336630
340720
344643
348398
351980
355391
358629
361696
364594
367326
369897
372310
374569
376678
378639
380456
382127
383652
385024
386235
387270
388109
388692
388969
388955
388609
387865
386665
384956
382690
379820
376310
372132
367276
361746
355566
348775
341427
333586
325327
316729
307873
298840
289709
280549
271421
262376
253457
244700
236139
227801
219709
211881
204329
197059
190074
183373
176954
170811
164937
159325
153964
148846
143961
139299
134851
130607
126563
122712
119053
115587
112323
109274
106465
103685
39566.3
16261.8
12303.3
11060.9
10661.3
10629.6
10819
11159.4
11611.2
12151.6
12766.1
13444.4
14178.8
14963.7
15794.5
16668
17581.5
18533.4
19522.7
20548.7
21611.3
22710.6
23847.1
25021.4
26234.1
27486.2
28778.7
30112.6
31489.2
32909.6
34375.3
35887.7
37448.2
39058.6
40720.4
42435.6
44206.1
46033.8
47921
49869.8
51882.6
53961.8
56110
58329.8
60624
62995.3
65446.6
67981.1
70601.5
73311.1
76112.9
79010
82005.5
85102.4
88303.6
91612.2
95030.9
98562.4
102209
105974
109858
113864
117994
122248
126628
131136
135770
140531
145419
150432
155570
160830
166210
171707
177318
183037
188861
194783
200797
206897
213074
219320
225627
231985
238382
244809
251254
257705
264149
270574
276968
283317
289608
295828
301965
308006
313939
319754
325439
330984
336380
341617
346686
351580
356290
360809
365130
369249
373161
376862
380352
383630
386696
389554
392207
394661
396921
398993
400884
402602
404151
405538
406765
407835
408742
409481
410030
410333
410373
410145
409590
408651
407266
405380
402936
399883
396175
391783
386690
380898
374429
367320
359625
351410
342751
333728
324427
314931
305320
295669
286040
276490
267067
257814
248765
239952
231399
223125
215142
207458
200077
192999
186219
179733
173534
167612
161958
156561
151413
146501
141817
137351
133095
129046
125199
121557
118122
114906
111915
108922
42452.5
17329.7
13014.4
11631.3
11159.3
11087.7
11248.3
11566.3
11998.9
12521.7
13119.4
13781.8
14501.3
15272.5
16091.3
16954.4
17859.7
18805.5
19791
20815.5
21879
22981.7
24124
25306.7
26530.5
27796.5
29105.8
30459.5
31859.1
33305.8
34801.1
36346.8
37944.3
39595.6
41302.5
43067
44891.2
46777.4
48728
50745.5
52832.6
54991.9
57226.4
59539.1
61933.1
64411.6
66978.1
69635.9
72388.5
75239.5
78192.4
81251
84418.7
87699.2
91096
94612.4
98251.9
102018
105912
109939
114101
118400
122837
127415
132136
136999
142006
147157
152451
157887
163465
169181
175033
181018
187132
193370
199726
206195
212770
219441
226202
233043
239952
246920
253935
260984
268054
275131
282201
289251
296265
303227
310123
316937
323655
330261
336742
343084
349274
355300
361150
366813
372279
377537
382578
387394
391974
396313
400404
404242
407824
411150
414219
417033
419598
421918
424001
425855
427489
428912
430136
431171
432027
432712
433229
433578
433738
433678
433394
432852
432003
430790
429150
427024
424350
421071
417137
412511
407169
401110
394349
386923
378883
370295
361237
351791
342045
332085
321995
311850
301720
291665
281739
271986
262445
253151
244128
235398
226974
218864
211074
203603
196447
189602
183059
176810
170845
165152
159722
154542
149603
144895
140411
136144
132091
128251
124627
121223
118036
114827
44602.5
18147.7
13556.2
12058.8
11525.3
11419.1
11555.1
11854.1
12270.6
12778.9
13363
14012.2
14719.2
15478.6
16286.5
17140.1
18037.3
18976.7
19957.5
20979.5
22042.7
23147.5
24294.4
25484.4
26718.4
27997.7
29323.4
30697.1
32120.2
33594.4
35121.3
36702.8
38340.8
40037.2
41794.3
43614.3
45499.5
47452.6
49476.3
51573.3
53746.7
55999.7
58335.5
60757.5
63269.3
65874.7
68577.4
71381.3
74290.5
77309
80441
83690.6
87061.9
90559
94185.9
97946.6
101845
105884
110069
114401
118884
123520
128313
133263
138373
143643
149073
154665
160418
166330
172399
178624
185002
191528
198198
205006
211947
219013
226197
233490
240881
248361
255919
263541
271215
278926
286660
294402
302136
309844
317511
325119
332650
340087
347412
354609
361661
368551
375266
381790
388111
394215
400090
405725
411108
416227
421073
425635
429906
433878
437548
440911
443968
446719
449169
451322
453189
454776
456095
457158
457981
458579
458970
459167
459183
459023
458684
458151
457414
456440
455187
453597
451612
449167
446198
442643
438446
433558
427952
421617
414564
406826
398452
389507
380068
370219
360049
349648
339101
328488
317881
307345
296937
286704
276690
266930
257451
248275
239418
230889
222692
214830
207298
200091
193202
186621
180339
174343
168623
163168
157965
153006
148283
143787
139516
135467
131640
128037
124645
121222
46050.6
18730.5
13942.4
12357.8
11775
11639.6
11754.8
12037.5
12440.3
12936.4
13509.1
14147.6
14844.3
15594
16392.8
17238.2
18128.4
19062.1
20039
21058.9
22122.4
23230
24382.5
25581
26826.9
28121.5
29466.4
30863.3
32314.1
33820.7
35385.1
37009.4
38695.8
40446.7
42264.5
44151.8
46111.5
48146.4
50259.7
52454.6
54734.6
57103.1
59564.1
62121.4
64779.1
67541.3
70412.5
73397
76499.4
79724.2
83076.2
86559.9
90179.9
93940.9
97847.4
101904
106114
110482
115013
119708
124572
129608
134817
140202
145764
151504
157423
163520
169795
176245
182870
189665
196628
203753
211036
218469
226047
233761
241601
249559
257623
265782
274022
282331
290693
299093
307514
315940
324353
332734
341065
349327
357498
365561
373495
381280
388898
396330
403560
410571
417349
423878
430146
436139
441844
447247
452335
457096
461520
465598
469322
472688
475694
478339
480626
482561
484151
485405
486335
486955
487285
487343
487157
486748
486130
485332
484358
483207
481871
480328
478539
476454
474015
471157
467814
463919
459407
454223
448329
441706
434361
426321
417633
408357
398571
388358
377808
367011
356056
345023
333989
323019
312175
301506
291059
280869
270966
261375
252111
243185
234603
226366
218472
210916
203690
196785
190190
183896
177889
172158
166692
161481
156515
151788
147294
143031
138995
135185
131585
127952
46775.5
19084.1
14182.7
12541.3
11922.9
11764.7
11863.2
12132.4
12523.8
13010
13574.2
14205.6
14895.2
15638
16430.7
17271
18157
19087.1
20062.5
21083.5
22150.9
23265.3
24428
25640.4
26904.1
28220.8
29592.6
31021.6
32510
34060.3
35674.9
37356.4
39107.3
40930.4
42828.7
44805.1
46863.1
49005.8
51237.1
53560.7
55980.6
58500.9
61125.9
63860.1
66708.1
69674.7
72764.8
75983.2
79335
82825.4
86459.3
90242
94178.3
98273.3
102532
106958
111557
116333
121290
126431
131759
137277
142987
148891
154990
161284
167773
174457
181334
188401
195655
203093
210710
218500
226456
234572
242839
251248
259788
268449
277218
286082
295026
304036
313096
322189
331297
340400
349481
358519
367494
376384
385168
393824
402331
410665
418807
426737
434434
441881
449063
455963
462567
468861
474828
480455
485725
490624
495139
499258
502971
506273
509157
511623
513672
515308
516537
517371
517816
517888
517615
517008
516107
514951
513565
511980
510215
508286
506193
503926
501456
498740
495722
492341
488529
484214
479326
473799
467587
460664
453028
444702
435727
426163
416081
405564
394699
383577
372286
360909
349521
338191
326981
315944
305125
294565
284293
274336
264711
255429
246498
237919
229691
221810
214269
207059
200169
193590
187308
181312
175590
170133
164930
159974
155259
150781
146535
142520
138711
134877
46762.4
19193.6
14285.7
12623.5
11985.3
11811.9
11898.3
12157.2
12539.9
13018.8
13577.1
14204.5
14890.3
15630.8
16422.6
17263.8
18153.6
19088.3
20070.9
21101.7
22182
23313.3
24497.1
25735.4
27030.1
28383.6
29798.5
31277.4
32823.2
34439.4
36128.7
37894.2
39739.1
41666.7
43680.6
45784.4
47981.9
50277.4
52674.9
55179.2
57794.7
60526.3
63379
66357.9
69468.2
72715.2
76104.2
79640.8
83330.3
87178.1
91189.7
95370.5
99725.5
104260
108978
113886
118986
124283
129782
135483
141391
147508
153834
160371
167119
174076
181243
188616
196193
203969
211942
220105
228452
236976
245669
254522
263525
272667
281938
291323
300810
310383
320028
329727
339463
349219
358975
368711
378408
388043
397596
407044
416363
425532
434525
443320
451894
460223
468289
476070
483551
490715
497547
504033
510155
515896
521239
526166
530661
534712
538304
541430
544083
546259
547957
549179
549930
550225
550060
549452
548416
547010
545261
543209
540895
538359
535637
532759
529742
526587
523278
519782
516049
512021
507631
502807
497471
491549
484985
477746
469824
461236
452019
442224
431918
421178
410090
398739
387214
375595
363956
352366
340887
329573
318472
307622
297058
286804
276881
267302
258075
249203
240685
232518
224696
217211
210054
203213
196677
190435
184474
178784
173355
168180
163252
158566
154115
149897
145887
141862
46364.7
19151
14277.7
12617.9
11974.9
11795.6
11877.2
12131.7
12510.9
12987.3
13544
14169.7
14857.7
15604.4
16405.3
17259.3
18165
19118.7
20122.8
21179.8
22291.6
23460.2
24687.8
25977.1
27330.7
28751.6
30243.1
31808.5
33451.4
35175.3
36984.5
38883.3
40875.6
42965.4
45157.1
47455.3
49865
52390.8
55037.9
57811.5
60717.4
63761
66948.1
70284.3
73775.5
77427.4
81245.7
85236
89403.9
93754.9
98294.2
103027
107958
113092
118433
123985
129751
135736
141940
148366
155016
161889
168986
176305
183845
191604
199578
207764
216155
224747
233532
242504
251655
260975
270454
280081
289846
299736
309736
319833
330013
340258
350552
360878
371217
381551
391859
402122
412319
422428
432427
442294
452004
461535
470862
479959
488802
497368
505633
513578
521186
528441
535328
541832
547935
553618
558862
563646
567954
571766
575072
577857
580115
581838
583027
583675
583783
583389
582427
580968
579039
576672
573909
570796
567384
563724
559870
555868
551751
547538
543227
538797
534205
529401
524323
518897
513040
506670
499722
492157
483965
475154
465754
455808
445375
434525
423333
411880
400253
388525
376768
365047
353423
341951
330679
319646
308886
298428
288292
278493
269040
259938
251187
242787
234732
227015
219628
212560
205801
199339
193162
187261
181625
176247
171119
166236
161591
157181
152979
148776
45233.1
18906.9
14163
12535.2
11899.6
11721.5
11804.6
12061.9
12446.8
12933.8
13504.5
14147.8
14857
15627.2
16454.2
17338.3
18279.6
19278.5
20336.4
21455.5
22638.2
23887.4
25206.4
26598.6
28067.7
29617.8
31253.2
32978.3
34797.6
36715.9
38738
40868.9
43114.1
45479.3
47970.2
50593.3
53355.2
56261.1
59316.9
62529.3
65904.8
69449.9
73170.8
77073.5
81163.8
85447.5
89929.9
94616.2
99511.1
104619
109945
115491
121263
127261
133490
139951
146646
153574
160737
168133
175761
183619
191704
200012
208538
217277
226223
235368
244705
254225
263920
273779
283792
293947
304233
314637
325146
335746
346422
357158
367938
378746
389564
400375
411159
421899
432575
443166
453653
464015
474230
484278
494136
503779
513185
522327
531179
539718
547918
555761
563229
570307
576981
583237
589056
594419
599302
603685
607545
610866
613632
615827
617449
618475
618919
618760
618001
616624
614672
612160
609117
605576
601586
597201
592483
587495
582305
576978
571566
566106
560610
555078
549474
543756
537872
531749
525298
518429
511070
503180
494743
485765
476264
466274
455840
445019
433873
422476
410911
399240
387524
375829
364211
352726
341417
330327
319490
308936
298687
288760
279165
269909
260996
252424
244192
236293
228721
221467
214521
207871
201508
195420
189600
184037
178727
173661
168834
164242
159859
155493
43324.1
18448.3
13917.4
12361
11762.4
11613.4
11725.4
12014.1
12431.9
12952
13556.6
14239
14994.6
15820.7
16715.4
17678.2
18710.2
19812.9
20988.7
22240.8
23572.6
24988.4
26492.8
28090.6
29787.4
31588.7
33500.4
35528.6
37679.7
39960.1
42376.5
44935.6
47644.3
50509.7
53539.2
56740.7
60120.8
63687
67447.2
71409.5
75580.8
79967.6
84575.5
89409.6
94474
99772.3
105307
111082
117098
123356
129858
136604
143593
150826
158299
166012
173961
182143
190553
199188
208040
217105
226374
235839
245493
255326
265328
275489
285800
296248
306822
317511
328301
339181
350138
361157
372224
383326
394447
405572
416683
427766
438803
449777
460671
471469
482152
492702
503101
513330
523372
533206
542814
552173
561261
570053
578525
586650
594403
601765
608717
615249
621347
626998
632183
636880
641062
644710
647798
650306
652225
653522
654224
654254
653687
652405
650496
647943
644759
640967
636591
631671
626257
620414
614208
607716
601022
594214
587356
580508
573694
566852
560023
553210
546373
539446
532335
524941
517189
509035
500464
491469
482054
472234
462035
451494
440660
429568
418283
406879
395414
383944
372525
361211
350042
339058
328298
317791
307562
297629
288005
278700
269719
261063
252733
244725
237033
229652
222572
215784
209278
203044
197074
191360
185895
180673
175687
170935
166390
161883
41233.1
17878.3
13603.3
12158.2
11631.3
11543.1
11712
12054
12526.3
13109.9
13792.4
14566.1
15427.2
16374.1
17406.9
18526.8
19736.3
21038.7
22438.3
23940.3
25550.4
27275
29120.9
31095.5
33206.6
35462.3
37870.9
40440.7
43180.7
46099.7
49206.6
52510.1
56019
59741.9
63687.2
67862
72273.3
76929.8
81840
87014.7
92457.6
98173.6
104164
110429
116967
123774
130846
138181
145772
153615
161705
170035
178599
187391
196401
205623
215049
224669
234474
244455
254602
264904
275349
285928
296628
307438
318346
329340
340409
351541
362724
373945
385193
396455
407720
418974
430205
441400
452544
463623
474623
485529
496327
507002
517540
527926
538147
548187
558031
567663
577069
586233
595140
603772
612109
620129
627806
635115
642029
648529
654596
660221
665394
670100
674321
678030
681198
683808
685831
687239
688056
688169
687705
686491
684622
682061
678819
674896
670305
665068
659211
652775
645814
638406
630620
622542
614219
605735
597232
588801
580501
572392
564497
556754
549123
541537
533899
526098
518060
509747
501143
492237
483018
473481
463636
453499
443106
432485
421744
410879
399928
388942
377941
366991
356146
345443
334922
324616
314551
304746
295219
285981
277040
268399
260063
252029
244297
236861
229714
222848
216255
209927
203855
198032
192452
187111
182000
177118
172441
167824
39003.8
17267.9
13276.3
11971.9
11553.9
11562.7
11816.6
12257.4
12847.7
13567.8
14407.4
15361.4
16428.5
17609.8
18908.6
20329.5
21878.2
23561.5
25387.5
27365.4
29505.2
31817.2
34311.8
37000.4
39894.7
43006.6
46348
49930.4
53765.4
57863.7
62235.9
66892.2
71841.7
77091.9
82649.3
88518.9
94704.5
101209
108033
115173
122633
130423
138530
146934
155619
164567
173765
183195
192844
202698
212741
222960
233341
243871
254536
265325
276226
287225
298310
309471
320695
331969
343283
354626
365985
377350
388711
400058
411382
422672
433920
445116
456250
467315
478300
489198
499996
510686
521256
531695
541991
552133
562109
571908
581519
590934
600142
609131
617888
626401
634662
642659
650379
657811
664937
671739
678192
684270
689947
695198
700007
704364
708262
711687
714619
717019
718859
720139
720813
720825
720260
718945
716997
714340
710985
706922
702150
696672
690500
683664
676190
668114
659437
650249
640666
630794
620786
610804
600888
591129
581598
572326
563306
554560
546078
537809
529648
521473
513218
504851
496367
487744
478945
469942
460713
451247
441561
431698
421627
411411
401085
390697
380280
369909
359594
349369
339256
329302
319541
309996
300687
291631
282835
274308
266056
258082
250386
242967
235819
228937
222314
215944
209818
203931
198278
192854
187653
182675
177895
173200
36727.3
16608.5
12957.4
11851.1
11597
11749.2
12177.4
12819.1
13641
14628.1
15775