/*--------------------------------*- C++ -*----------------------------------*\
| =========                 |                                                 |
| \\      /  F ield         | OpenFOAM: The Open Source CFD Toolbox           |
|  \\    /   O peration     | Version:  2212                                  |
|   \\  /    A nd           | Website:  www.openfoam.com                      |
|    \\/     M anipulation  |                                                 |
\*---------------------------------------------------------------------------*/
FoamFile
{
    version     2.0;
    format      ascii;
    arch        "LSB;label=32;scalar=64";
    class       volVectorField;
    location    "0.00086";
    object      U;
}
// * * * * * * * * * * * * * * * * * * * * * * * * * * * * * * * * * * * * * //

dimensions      [0 1 -1 0 0 0 0];

internalField   nonuniform List<vector> 
6888
(
(24.3137 -3.33566 171.352)
(4.14331 -4.22771 155.721)
(5.54794 -7.22634 116.657)
(1.13464 -7.69888 78.0871)
(2.43141 -6.13253 38.4537)
(0.297675 -3.99124 19.0138)
(1.92539 -3.66263 7.6036)
(1.8541 -2.38442 0.823481)
(1.7089 -2.50963 -2.01399)
(1.47443 -1.6588 -3.46874)
(1.31184 -1.74973 -3.63293)
(1.07265 -0.977789 -3.58706)
(0.824281 -1.06939 -3.08172)
(0.574804 -0.32341 -2.00362)
(0.397518 -0.364888 -0.32781)
(0.225904 0.427418 1.74551)
(0.148875 0.32535 3.35497)
(0.0535049 1.05956 4.66997)
(-0.0340162 1.14618 6.52063)
(-0.139648 1.61494 8.71245)
(23.292 -1.39376 164.512)
(4.65749 -3.41003 151.047)
(5.6004 -6.19565 112.181)
(1.81502 -8.17976 78.4251)
(2.3301 -6.389 41.3918)
(0.58716 -2.80035 21.899)
(1.82934 -3.56478 8.84307)
(1.80057 -0.748181 2.07186)
(1.69773 -1.54952 -1.1257)
(1.46599 -0.524475 -2.65925)
(1.2964 -0.74857 -2.46642)
(1.06012 0.0466656 -2.20159)
(0.81399 -0.117503 -1.42253)
(0.563818 0.644812 -0.170211)
(0.38829 0.693812 1.70682)
(0.219372 1.44878 3.83675)
(0.141948 1.27746 5.39246)
(0.0513734 1.72724 6.63681)
(-0.0344813 1.67858 8.19338)
(-0.139293 1.82203 10.439)
(22.0356 0.564609 162.863)
(4.93411 -1.82988 149.698)
(5.3684 -3.42091 111.335)
(2.73203 -5.59969 77.182)
(2.64936 -4.94627 42.8963)
(1.15955 -1.68069 23.4974)
(2.11016 -1.25618 9.8524)
(1.62755 1.69859 3.06655)
(1.67505 0.576809 -1.05215)
(1.44341 1.73064 -2.60264)
(1.28914 1.1295 -2.60441)
(1.05097 1.94144 -2.35163)
(0.809692 1.62074 -1.47224)
(0.565129 2.34251 -0.112148)
(0.391754 2.06199 1.65469)
(0.221907 2.29975 3.6234)
(0.14183 1.70824 5.09843)
(0.0542194 1.74946 6.33649)
(-0.0324094 1.61748 7.75591)
(-0.138091 1.83062 10.2526)
(21.5974 1.41223 161.526)
(5.0836 -0.870408 147.978)
(5.31298 -1.974 108.842)
(1.96276 -2.30855 76.8576)
(3.30743 -3.86953 43.9657)
(1.28668 -0.288221 26.9424)
(2.76921 0.37549 12.5003)
(1.77127 3.29929 4.73547)
(1.64093 1.84643 -0.230223)
(1.42765 3.19639 -1.75337)
(1.27254 2.31767 -1.82102)
(1.05489 3.17244 -1.49231)
(0.835125 2.75353 -0.482037)
(0.583697 3.30611 1.02038)
(0.398573 2.8547 2.71101)
(0.225741 2.9275 4.56776)
(0.139523 2.30223 5.81698)
(0.0557325 2.15546 6.89982)
(-0.0342745 2.05132 8.01999)
(-0.13741 1.92477 10.3219)
(20.296 3.00906 161.989)
(5.2103 1.18073 147.773)
(5.09101 1.73639 109.369)
(2.75035 0.313699 77.2701)
(3.54478 -0.0426596 45.0738)
(1.09766 1.9907 28.2589)
(3.08088 1.66142 14.1615)
(2.04635 5.03897 5.90363)
(1.61526 3.25664 0.235358)
(1.40595 4.83925 -1.33701)
(1.23729 3.77061 -1.6507)
(1.06045 4.48739 -1.28702)
(0.83863 3.82589 -0.52275)
(0.580789 3.89538 0.75806)
(0.397368 3.20417 2.29777)
(0.226953 3.13933 4.14329)
(0.137936 2.56137 5.35475)
(0.0568008 2.37516 6.56031)
(-0.0371784 2.16907 7.66806)
(-0.135924 1.87352 10.1635)
(18.6476 3.69232 162.821)
(5.20538 1.9239 147.073)
(4.89811 3.43082 109.238)
(2.83033 3.30615 76.8797)
(3.65353 2.61981 45.9152)
(0.484014 4.14907 30.1835)
(3.31237 3.68713 16.3797)
(2.09142 6.44364 7.59269)
(1.64215 4.80023 1.14296)
(1.37939 6.2935 -0.559855)
(1.20751 5.01278 -1.29011)
(1.05808 5.36779 -1.02557)
(0.833172 4.42671 -0.434793)
(0.576477 4.40318 0.779186)
(0.404033 3.74142 2.25045)
(0.235091 3.57753 4.02783)
(0.139358 2.99081 5.1865)
(0.0597537 2.63793 6.38171)
(-0.0358307 2.39579 7.39582)
(-0.134123 1.84421 9.85707)
(14.7975 5.25657 166.748)
(5.25663 4.41214 148.917)
(4.74062 7.76684 112.175)
(3.09223 6.96578 79.137)
(3.24804 6.47736 47.5204)
(0.423595 7.27085 31.4986)
(3.32091 5.71969 17.8017)
(1.95434 7.50776 8.7228)
(1.64297 6.11174 1.87589)
(1.35795 7.26765 -0.091652)
(1.18458 5.86634 -1.24712)
(1.04109 6.00913 -1.19422)
(0.824155 4.89045 -0.751966)
(0.587769 4.87142 0.470236)
(0.417543 4.11505 1.90764)
(0.241531 3.78779 3.68169)
(0.136181 3.19504 4.84613)
(0.0612546 2.70718 6.11949)
(-0.0380831 2.43996 7.10787)
(-0.13317 1.79309 9.61451)
(10.5726 5.83162 173.442)
(5.15141 6.72652 153.559)
(4.50833 11.185 113.754)
(2.96458 10.6039 79.5978)
(3.66041 9.873 48.4024)
(0.47706 10.1772 32.3706)
(3.01187 7.34561 18.5936)
(1.67225 9.09661 9.73147)
(1.67507 7.09737 2.69854)
(1.36032 8.15238 0.277193)
(1.19841 6.49062 -1.27432)
(1.03399 6.61075 -1.37341)
(0.833181 5.45975 -0.989121)
(0.606558 5.38735 0.232713)
(0.423212 4.46885 1.55117)
(0.240998 4.01004 3.29725)
(0.134903 3.41346 4.46849)
(0.0652603 2.79438 5.78297)
(-0.0380685 2.49114 6.7236)
(-0.13238 1.76017 9.26618)
(6.75242 7.86863 182.714)
(4.81499 11.1649 162.386)
(3.92735 17.517 120.189)
(2.53639 16.0122 84.5688)
(4.02695 14.3538 49.9533)
(0.554109 12.9745 33.0092)
(2.51557 10.2666 19.1951)
(1.38544 10.8565 10.3258)
(1.7252 8.21438 2.93184)
(1.33103 9.16078 0.38362)
(1.19727 7.35715 -1.46503)
(1.03829 7.40419 -1.59931)
(0.854109 6.17877 -1.3315)
(0.623276 5.84751 -0.206447)
(0.427046 4.75895 0.977494)
(0.245639 4.19689 2.7728)
(0.139143 3.56313 3.96794)
(0.0687035 2.81927 5.30183)
(-0.0381407 2.45118 6.2626)
(-0.131882 1.7282 8.83082)
(5.24242 10.0637 191.857)
(4.06785 14.235 172.563)
(3.6561 22.3388 125.656)
(1.52975 20.2576 86.3555)
(3.98992 18.7715 50.8341)
(0.677701 16.3868 33.445)
(2.47946 13.3175 19.7292)
(1.27031 12.8411 10.3235)
(1.63393 9.61715 3.07826)
(1.25953 10.5009 0.507395)
(1.13845 8.48778 -1.67414)
(1.00037 8.38062 -1.88266)
(0.850793 6.96063 -1.80683)
(0.623062 6.31079 -0.815497)
(0.427472 5.08613 0.26323)
(0.248992 4.38846 2.12777)
(0.138533 3.69923 3.36418)
(0.0722743 2.8546 4.69114)
(-0.0370583 2.418 5.66484)
(-0.131066 1.6857 8.26965)
(6.40374 13.8101 205.035)
(3.58966 17.8907 185.456)
(4.06383 28.634 135.514)
(0.600939 25.5993 91.6029)
(4.34078 23.5766 52.8362)
(0.724764 19.3392 33.1861)
(2.25675 16.2105 19.4934)
(1.37972 14.4707 9.76306)
(1.45184 11.2709 2.92271)
(1.22047 11.739 0.3838)
(1.09217 9.46483 -2.15176)
(0.963144 9.14306 -2.43302)
(0.818271 7.52163 -2.51189)
(0.61496 6.66246 -1.60506)
(0.422106 5.30708 -0.621124)
(0.247773 4.48458 1.3194)
(0.145081 3.74942 2.61992)
(0.0799803 2.82066 3.95115)
(-0.0357779 2.3339 4.95328)
(-0.129667 1.59023 7.61493)
(11.8469 16.7049 219.849)
(5.05873 16.846 198.897)
(4.26154 29.8323 144.41)
(0.0348675 29.973 94.2223)
(4.4012 26.7853 54.1764)
(0.417653 22.4515 32.3626)
(2.16296 18.5814 18.9489)
(1.43749 15.89 8.95239)
(1.32833 13.0065 2.78378)
(1.22025 12.7554 0.0173167)
(1.1047 10.215 -2.81822)
(0.96092 9.62881 -3.08281)
(0.791484 7.90052 -3.29433)
(0.602312 6.87476 -2.39742)
(0.411392 5.46236 -1.49381)
(0.256265 4.57002 0.511621)
(0.159866 3.79718 1.87134)
(0.0887589 2.76467 3.17713)
(-0.0341582 2.25075 4.17671)
(-0.127755 1.45454 6.88549)
(18.6897 16.404 236.184)
(8.49296 10.7342 215.236)
(4.43549 26.0117 160.465)
(-0.0497206 31.4955 101.638)
(3.95359 29.9236 55.7965)
(0.302535 25.1488 31.3956)
(2.25136 20.7181 17.1728)
(1.56572 17.0716 7.65715)
(1.31265 14.5349 2.26442)
(1.20799 13.3275 -0.937949)
(1.11395 10.8747 -3.78995)
(0.977664 9.94933 -3.95567)
(0.77692 8.16726 -4.20502)
(0.599281 6.96326 -3.28082)
(0.405196 5.5637 -2.37907)
(0.278713 4.66993 -0.324139)
(0.180614 3.85485 1.084)
(0.0984346 2.68585 2.32254)
(-0.0322395 2.14221 3.30745)
(-0.125893 1.31504 6.07377)
(22.2978 8.17035 245.309)
(9.08119 4.88254 221.479)
(5.25971 12.6697 176.646)
(0.538108 29.8648 112.646)
(3.27181 31.8444 59.9318)
(0.28604 27.2237 31.0915)
(2.16136 22.8573 15.6675)
(1.62274 18.8239 6.38015)
(1.31931 15.744 1.51711)
(1.22355 13.8031 -2.06971)
(1.07705 11.5028 -4.79886)
(0.963867 10.3163 -4.95838)
(0.774908 8.49277 -5.21534)
(0.605097 7.17635 -4.25888)
(0.424263 5.89188 -3.23085)
(0.316572 4.93012 -1.10776)
(0.204558 3.97474 0.224953)
(0.107612 2.62279 1.3578)
(-0.0303264 2.01919 2.33423)
(-0.124041 1.16962 5.17888)
(22.4211 3.50869 247.812)
(8.06786 3.31103 223.129)
(5.88533 4.48062 189.851)
(0.606472 25.3053 131.197)
(2.40958 33.9911 65.6398)
(0.284447 29.3487 30.8682)
(2.03069 24.8334 13.8235)
(1.60283 20.4315 4.23044)
(1.29935 16.6987 -0.17524)
(1.28156 14.155 -3.5488)
(1.08635 12.1054 -5.93005)
(0.961693 10.6794 -6.1656)
(0.780338 8.95516 -6.28252)
(0.637427 7.6161 -5.22544)
(0.474595 6.45104 -4.08701)
(0.368871 5.29433 -2.06473)
(0.231158 4.09152 -0.778077)
(0.113874 2.54508 0.256955)
(-0.0292318 1.8738 1.259)
(-0.122189 1.00068 4.18792)
(22.1729 2.13923 248.755)
(6.74901 3.19757 224.572)
(5.95985 5.46323 202.26)
(0.986167 16.3223 156.843)
(1.8191 35.4004 76.2729)
(0.530773 31.1577 31.9286)
(1.76344 25.9713 12.2939)
(1.63512 21.8499 1.82747)
(1.19401 17.3565 -2.29655)
(1.27256 14.6125 -5.15754)
(1.10003 12.6137 -7.00968)
(0.963968 11.0909 -7.39804)
(0.78976 9.48229 -7.37257)
(0.675916 8.08457 -6.22029)
(0.530802 6.90851 -5.06238)
(0.416966 5.52532 -3.17977)
(0.243284 4.11718 -1.95442)
(0.112038 2.43367 -0.971103)
(-0.0305294 1.7078 0.117471)
(-0.120291 0.813041 3.15068)
(21.6658 2.95759 251.468)
(6.03254 3.82482 230.419)
(5.17656 13.2445 210.353)
(1.1767 7.23076 174.652)
(1.27844 34.249 92.7254)
(0.676178 32.6314 33.1057)
(1.47918 26.9931 10.1795)
(1.62728 22.4725 -1.28432)
(1.09155 17.714 -5.10554)
(1.1838 14.8477 -7.06916)
(1.04766 12.7207 -8.32704)
(0.93998 11.1392 -8.69198)
(0.775544 9.62739 -8.56276)
(0.704944 8.18516 -7.37916)
(0.56319 7.00364 -6.21947)
(0.429309 5.42867 -4.42121)
(0.238328 3.943 -3.30056)
(0.106811 2.22557 -2.27314)
(-0.0328337 1.52691 -1.03685)
(-0.118315 0.616832 2.1079)
(22.2594 4.29267 257.241)
(7.64704 3.52032 240.709)
(4.59559 16.1279 212.912)
(0.740893 6.96107 186.668)
(1.02844 29.0174 119.316)
(0.61366 34.6858 36.5131)
(1.3662 26.9816 8.31709)
(1.57489 22.3275 -4.65275)
(1.06881 17.4126 -7.81868)
(1.11127 14.4428 -9.1649)
(0.970686 12.182 -9.76504)
(0.89041 10.6304 -10.0394)
(0.759231 9.17485 -9.85046)
(0.707238 7.75942 -8.62767)
(0.569644 6.5828 -7.44878)
(0.412926 4.9448 -5.72498)
(0.221858 3.58695 -4.69888)
(0.101416 1.93942 -3.53903)
(-0.0348821 1.31235 -2.15119)
(-0.116503 0.446849 1.07591)
(23.4282 3.62045 266.174)
(8.95645 4.13698 251.013)
(3.93812 13.7351 222.002)
(-0.237088 19.8689 199.192)
(0.793923 22.3171 144.136)
(0.288107 36.0614 39.6359)
(1.2437 25.3341 6.09405)
(1.54846 21.0255 -8.17639)
(1.08877 16.136 -10.7519)
(1.0874 13.3519 -11.4922)
(0.928094 11.0779 -11.4287)
(0.859162 9.55928 -11.4589)
(0.757811 8.13358 -11.1971)
(0.694148 6.80691 -9.88908)
(0.553273 5.71135 -8.73123)
(0.378535 4.22391 -7.05573)
(0.199743 3.103 -6.01744)
(0.0969521 1.58882 -4.74653)
(-0.0367257 1.06024 -3.24691)
(-0.114785 0.295724 0.0398712)
(23.972 3.04174 275.258)
(8.07485 8.42381 260.688)
(4.07886 10.4369 237.965)
(-0.15998 27.298 204.629)
(1.24542 16.936 158.524)
(0.193667 34.2765 44.9664)
(1.24466 22.3115 4.46735)
(1.56531 19.0682 -11.3134)
(1.12411 14.25 -13.7039)
(1.07175 11.7172 -14.025)
(0.89754 9.60802 -13.2766)
(0.827 8.07397 -12.9641)
(0.741309 6.77563 -12.5596)
(0.656691 5.63346 -11.0681)
(0.517565 4.70911 -9.92457)
(0.338912 3.39961 -8.28156)
(0.183156 2.5366 -7.21558)
(0.0935194 1.19691 -5.87211)
(-0.0391665 0.791582 -4.29726)
(-0.112987 0.14813 -0.963037)
(24.905 -0.038636 288.816)
(7.2658 10.1207 270.697)
(4.10526 8.87069 254.235)
(0.179163 27.9013 213.185)
(1.93613 15.6666 166.688)
(0.581152 29.2701 53.1426)
(1.3727 18.6779 2.85604)
(1.555 16.4406 -14.2806)
(1.17934 11.59 -16.6404)
(1.07132 9.62741 -16.6778)
(0.875847 7.70645 -15.2295)
(0.806219 6.24181 -14.5739)
(0.7171 5.20925 -13.9211)
(0.610743 4.24814 -12.3003)
(0.46861 3.55631 -11.1534)
(0.303376 2.48518 -9.48416)
(0.170931 1.88082 -8.35332)
(0.0934385 0.736776 -6.94462)
(-0.0415602 0.476051 -5.29367)
(-0.110521 -0.0421652 -1.90211)
(24.0771 4.03798 313.952)
(7.73922 11.4022 292.725)
(3.48463 9.87053 276.189)
(0.278426 20.8513 224.43)
(1.73389 15.5654 173.413)
(0.723544 22.1494 62.4719)
(1.29021 14.5231 0.750075)
(1.48075 12.9419 -16.8558)
(1.22778 8.17429 -19.6789)
(1.076 7.01423 -19.1545)
(0.85396 5.30064 -17.0536)
(0.777056 4.13617 -16.0919)
(0.684419 3.44137 -15.1291)
(0.570455 2.70328 -13.4565)
(0.431902 2.23892 -12.2724)
(0.282747 1.44196 -10.5397)
(0.167761 1.11491 -9.33289)
(0.0944054 0.201862 -7.94156)
(-0.0442838 0.121278 -6.20883)
(-0.107482 -0.253778 -2.78724)
(23.8058 8.05501 325.564)
(8.24517 15.3479 315.574)
(2.91811 16.0312 295.697)
(0.652215 16.3019 244.163)
(0.371262 11.5954 181.574)
(0.445879 13.3291 69.615)
(1.17289 8.87376 -2.72187)
(1.42735 7.16079 -19.2074)
(1.26656 3.75597 -22.7576)
(1.09319 3.38925 -21.1843)
(0.851165 2.207 -18.7164)
(0.755452 1.59971 -17.431)
(0.663715 1.35418 -16.1997)
(0.55623 0.940101 -14.4388)
(0.410684 0.837026 -13.1893)
(0.273114 0.364325 -11.4157)
(0.170675 0.315449 -10.2161)
(0.0942148 -0.388681 -8.85257)
(-0.0482044 -0.248935 -7.0362)
(-0.103984 -0.471894 -3.59666)
(25.7503 6.64719 331.003)
(7.71582 14.0796 323.35)
(2.9059 16.8227 302.928)
(0.907085 17.1914 254.955)
(0.143393 8.97614 189.114)
(-0.383987 4.67298 76.005)
(1.01748 2.01871 -4.87372)
(1.376 -0.236113 -20.7909)
(1.27774 -0.899633 -25.1268)
(1.09472 -1.13291 -22.4116)
(0.843368 -1.37172 -19.9672)
(0.727445 -1.4387 -18.2778)
(0.626444 -1.06109 -16.9073)
(0.530992 -1.03012 -15.1499)
(0.389063 -0.682694 -13.8686)
(0.266133 -0.814987 -12.1427)
(0.174451 -0.585601 -11.0298)
(0.0907785 -1.04977 -9.62721)
(-0.0519307 -0.638464 -7.70435)
(-0.100234 -0.686539 -4.29603)
(27.6748 1.09621 333.378)
(6.53069 7.93871 326.426)
(2.96391 8.40926 305.759)
(1.38327 12.5607 256.375)
(0.953534 4.12975 188.478)
(-1.0741 -5.83567 79.4126)
(0.839601 -7.28291 -4.85346)
(1.35337 -8.37837 -21.3961)
(1.31491 -6.19962 -26.1801)
(1.13603 -6.30754 -22.9411)
(0.859396 -5.02795 -20.7194)
(0.718509 -4.73254 -18.6429)
(0.602199 -3.63114 -17.1775)
(0.502537 -3.18547 -15.4773)
(0.363909 -2.36155 -14.2415)
(0.259159 -2.18125 -12.635)
(0.171723 -1.64123 -11.608)
(0.0852723 -1.78599 -10.1576)
(-0.0526187 -1.06117 -8.1953)
(-0.0962816 -0.87897 -4.861)
(26.9286 -3.74065 330.754)
(6.98257 2.9339 324.226)
(3.24141 -2.84682 300.57)
(2.6944 -2.96185 249.965)
(2.27935 -9.75557 175.966)
(-0.844282 -20.1157 71.0542)
(0.936934 -18.0393 -3.15733)
(1.43772 -17.2302 -21.01)
(1.36413 -12.2287 -25.846)
(1.19795 -11.8479 -22.7492)
(0.888953 -8.70211 -20.7323)
(0.723228 -8.03943 -18.2602)
(0.581994 -6.1936 -16.9355)
(0.474388 -5.36712 -15.3206)
(0.339904 -4.07043 -14.2191)
(0.253775 -3.55285 -12.7711)
(0.166994 -2.63028 -11.8001)
(0.0801494 -2.41014 -10.4047)
(-0.0502499 -1.44056 -8.48763)
(-0.0919529 -1.07271 -5.29449)
(26.6656 -6.42196 321.99)
(7.97952 -2.81763 315.808)
(4.04849 -9.03941 287.052)
(3.95467 -17.7755 234.6)
(2.89123 -25.7677 156.815)
(-0.0617292 -34.0628 59.4603)
(1.31573 -28.99 0.566728)
(1.59523 -25.999 -18.6997)
(1.43314 -18.5319 -23.8202)
(1.26577 -17.3662 -21.6912)
(0.908057 -12.5191 -19.8959)
(0.735053 -11.3905 -17.3823)
(0.569078 -8.61976 -16.1656)
(0.456561 -7.48769 -14.7065)
(0.327795 -5.66386 -13.7179)
(0.253582 -4.85874 -12.443)
(0.166069 -3.55728 -11.4943)
(0.078873 -2.99609 -10.2108)
(-0.045688 -1.8074 -8.30379)
(-0.0879346 -1.22123 -5.38273)
(27.8979 -9.38889 308.084)
(7.71232 -7.56934 300.803)
(4.87793 -16.1768 270.579)
(4.44281 -27.3944 217.167)
(3.20985 -38.6407 143.128)
(0.90904 -41.9954 56.9763)
(1.79664 -35.8963 7.51289)
(1.73249 -32.0673 -12.3211)
(1.51671 -23.8406 -18.2307)
(1.30378 -21.7176 -18.3079)
(0.954808 -15.9501 -16.9523)
(0.772067 -14.3806 -14.9821)
(0.571867 -10.7904 -14.0974)
(0.460733 -9.38183 -12.9039)
(0.327525 -7.11028 -12.1227)
(0.258439 -6.02469 -11.1762)
(0.164709 -4.34948 -10.3787)
(0.0794131 -3.5052 -9.30438)
(-0.0403651 -2.07092 -7.51351)
(-0.0843259 -1.29762 -4.96579)
(27.6034 -12.8605 291.518)
(7.57542 -11.1998 283.126)
(4.95622 -24.0554 254.607)
(4.64321 -33.3082 200.438)
(3.41748 -45.8757 130.793)
(1.28646 -46.1725 56.2916)
(2.09916 -39.872 14.8269)
(1.82015 -34.7984 -4.26935)
(1.59872 -26.6769 -10.5923)
(1.32758 -24.0196 -12.8347)
(0.989496 -18.221 -12.3362)
(0.799814 -16.3301 -11.5081)
(0.58367 -12.4465 -11.143)
(0.472722 -10.834 -10.5499)
(0.332816 -8.14864 -10.1031)
(0.261188 -6.85342 -9.60126)
(0.166133 -4.93781 -8.94236)
(0.0818526 -3.87082 -8.08461)
(-0.0349765 -2.19862 -6.43056)
(-0.0813463 -1.28912 -4.19954)
(28.1654 -13.7679 275.862)
(7.78671 -13.7083 265.703)
(5.01249 -26.6379 236.375)
(4.92589 -37.5199 183.897)
(3.06074 -47.681 116.996)
(1.11699 -47.2008 54.2326)
(2.33709 -41.7545 19.059)
(1.8497 -35.9046 1.61031)
(1.67364 -27.9123 -4.6513)
(1.31738 -24.5518 -7.69541)
(1.0077 -18.9291 -7.78917)
(0.832195 -16.9109 -8.02193)
(0.593935 -13.1274 -8.00254)
(0.466164 -11.4741 -8.06846)
(0.328418 -8.75711 -7.88894)
(0.258516 -7.37973 -7.75695)
(0.172584 -5.34161 -7.22308)
(0.0844614 -4.12777 -6.64321)
(-0.0318065 -2.26321 -5.12075)
(-0.0788058 -1.23726 -3.16758)
(28.8797 -14.1405 258.509)
(8.33644 -16.305 248.332)
(5.76751 -27.2491 218.381)
(5.01352 -38.5829 167.924)
(2.6219 -45.6621 106.161)
(0.815783 -45.1208 52.8654)
(2.72495 -39.461 23.0159)
(1.7683 -34.9125 6.53714)
(1.76924 -28.0145 -0.213459)
(1.29628 -24.5632 -3.53964)
(1.00025 -19.165 -4.07926)
(0.864297 -17.0097 -4.94852)
(0.61306 -13.3025 -5.10354)
(0.480845 -11.6268 -5.60775)
(0.348711 -8.98659 -5.57449)
(0.275444 -7.62898 -5.74151)
(0.184055 -5.57007 -5.29258)
(0.0875421 -4.29268 -5.00367)
(-0.0306113 -2.24997 -3.57434)
(-0.0767149 -1.12696 -1.92478)
(28.2568 -14.8891 238.6)
(8.59676 -17.8667 228.772)
(6.15578 -30.0271 201.076)
(4.99858 -37.4591 153.268)
(2.64285 -42.8307 96.4544)
(0.566373 -41.7301 51.5678)
(3.36114 -36.3944 27.0797)
(1.58795 -32.6187 11.5565)
(1.87525 -26.5688 4.70643)
(1.2609 -23.6575 0.866563)
(0.993887 -18.8391 -0.419036)
(0.851374 -16.8307 -1.85795)
(0.604821 -13.2317 -2.26595)
(0.479492 -11.5978 -3.11166)
(0.346276 -9.02823 -3.24516)
(0.272836 -7.66992 -3.65738)
(0.181015 -5.57439 -3.39856)
(0.08669 -4.27519 -3.39626)
(-0.0323853 -2.14946 -2.0441)
(-0.0747304 -0.989453 -0.632996)
(28.3267 -13.8755 219.054)
(8.11089 -17.3467 207.627)
(5.54116 -30.1169 183.369)
(4.92047 -35.4125 141.134)
(2.9769 -39.1052 88.467)
(0.233457 -37.1803 50.4917)
(3.93674 -33.3896 29.4459)
(1.41319 -29.8793 15.281)
(1.94833 -24.3787 8.93076)
(1.19109 -22.1748 4.65397)
(0.983466 -17.8536 2.91788)
(0.841761 -16.2164 0.964484)
(0.602565 -12.769 0.238277)
(0.488659 -11.2447 -0.997864)
(0.352236 -8.82887 -1.2689)
(0.27422 -7.47968 -1.93793)
(0.178979 -5.33726 -1.79697)
(0.0847177 -4.13645 -1.94625)
(-0.0353981 -1.99559 -0.657991)
(-0.0725065 -0.846789 0.588787)
(27.9945 -12.5717 201.411)
(7.95977 -15.2238 190.145)
(4.79074 -24.6764 169.691)
(4.46691 -30.6907 131.583)
(3.42742 -33.7074 82.468)
(-0.428447 -32.0709 49.1934)
(4.29939 -29.6849 30.2221)
(1.28496 -26.7537 17.4932)
(1.92026 -22.3283 11.5265)
(1.16038 -20.7624 7.30698)
(0.984911 -16.6413 5.82853)
(0.802913 -15.2693 3.48081)
(0.597479 -12.0359 2.57653)
(0.478874 -10.6917 0.966707)
(0.341238 -8.40626 0.530615)
(0.265068 -7.13804 -0.513746)
(0.1755 -5.09934 -0.422844)
(0.0797878 -3.89694 -0.67361)
(-0.0393808 -1.77967 0.538534)
(-0.0700605 -0.700539 1.72507)
(27.3724 -10.7123 187.509)
(8.33567 -12.8138 176.807)
(4.61369 -19.9921 158.811)
(3.65798 -25.948 123.196)
(3.91 -28.9413 77.3348)
(-0.900676 -27.3879 47.6744)
(4.55862 -25.943 30.423)
(1.11408 -23.4412 19.0244)
(1.88593 -20.3647 13.1222)
(1.12985 -19.0728 8.96919)
(0.983122 -15.3485 7.80211)
(0.793567 -14.2527 5.35803)
(0.583273 -11.0905 4.50472)
(0.47252 -9.7953 2.63802)
(0.344502 -7.74975 2.15944)
(0.262026 -6.61693 0.876667)
(0.171337 -4.77333 0.866219)
(0.0735776 -3.57319 0.456034)
(-0.0441291 -1.52823 1.65716)
(-0.0671029 -0.56667 2.82805)
(27.4063 -8.86472 176.008)
(8.66863 -11.7249 163.129)
(4.8542 -19.4547 146.208)
(3.05143 -23.9699 114.385)
(4.43472 -25.2424 72.5327)
(-1.10617 -23.6741 45.7567)
(4.63771 -22.617 29.9568)
(0.993123 -20.502 19.913)
(1.89099 -18.4039 14.2248)
(1.15131 -17.2206 10.5476)
(0.97541 -13.9245 9.5796)
(0.756601 -13.1008 6.86544)
(0.568774 -10.1121 6.01294)
(0.456896 -8.86455 4.08263)
(0.330011 -6.93095 3.6807)
(0.246718 -5.86666 2.26387)
(0.168769 -4.32199 2.14476)
(0.0662814 -3.20786 1.64315)
(-0.0494168 -1.25628 2.84643)
(-0.0639916 -0.37911 3.97608)
(26.3185 -7.2647 166.128)
(8.8362 -10.7046 150.323)
(5.17821 -18.0934 134.581)
(2.44123 -21.9643 107.149)
(4.98604 -21.934 68.6777)
(-1.34872 -20.5282 44.1934)
(4.41278 -19.3992 29.4681)
(1.03103 -17.9005 20.0353)
(1.91596 -16.2058 14.645)
(1.12821 -14.9627 11.6492)
(0.981247 -12.107 10.7571)
(0.741107 -11.4709 7.94838)
(0.556629 -8.94304 7.25032)
(0.448611 -7.90662 5.15032)
(0.333296 -6.18549 4.91386)
(0.241681 -4.99454 3.49371)
(0.167476 -3.72593 3.4117)
(0.058202 -2.68713 2.93839)
(-0.0533716 -0.883169 4.10762)
(-0.0608997 -0.14492 5.23442)
(24.7917 -5.47808 158.132)
(9.14618 -7.96154 140.307)
(5.66576 -14.4734 125.331)
(1.67659 -18.5405 102.197)
(5.33502 -18.4379 66.6669)
(-1.18702 -17.6379 43.1827)
(3.86976 -16.4159 28.9737)
(1.2371 -15.2635 19.9223)
(1.93528 -13.851 15.0586)
(1.18731 -12.5291 12.8282)
(0.924626 -10.2486 11.852)
(0.696782 -9.69452 9.07379)
(0.558983 -7.64581 8.48269)
(0.446867 -6.73471 6.1843)
(0.335814 -5.38617 5.926)
(0.232299 -4.21341 4.57)
(0.162659 -3.1997 4.47057)
(0.055399 -2.15015 4.17819)
(-0.0548278 -0.523667 5.3151)
(-0.0579488 0.115363 6.50727)
(23.4662 -3.89977 152.212)
(9.34714 -5.10398 131.185)
(6.55068 -11.1197 115.985)
(1.17271 -15.5043 97.1126)
(5.31029 -15.6704 65.131)
(0.0740413 -15.1572 42.1788)
(3.13032 -13.7557 28.9493)
(1.41402 -12.4621 19.7569)
(1.73987 -11.3399 15.3192)
(1.20752 -9.57807 13.6185)
(0.867759 -8.3901 12.1462)
(0.697475 -7.94719 9.69168)
(0.549868 -6.49403 9.30955)
(0.419547 -5.54497 7.14505)
(0.325017 -4.65762 6.79987)
(0.22198 -3.49472 5.573)
(0.152091 -2.70097 5.41242)
(0.0505651 -1.67181 5.28196)
(-0.0568652 -0.16298 6.32882)
(-0.0549291 0.377835 7.63985)
(22.4366 -3.10186 149.477)
(9.0896 -3.18986 124.731)
(7.20365 -7.88787 106.911)
(1.11412 -12.9969 91.7104)
(4.53796 -13.2413 62.9867)
(1.60399 -12.8705 41.2581)
(2.64371 -11.8163 29.3258)
(1.42632 -10.0963 20.3029)
(1.91843 -9.0803 16.1559)
(1.06531 -6.99397 14.5428)
(0.903164 -6.93465 12.2913)
(0.738883 -6.15317 10.3044)
(0.548784 -5.32657 9.91224)
(0.419935 -4.40044 7.93823)
(0.315402 -3.78262 7.55997)
(0.216901 -2.76438 6.48212)
(0.142411 -2.1648 6.28928)
(0.0434537 -1.18776 6.21507)
(-0.0589788 0.166417 7.21239)
(-0.0517642 0.6451 8.6287)
(20.5344 -2.43664 148.159)
(8.75757 -1.83109 122.818)
(7.42587 -4.0229 99.4769)
(1.19991 -9.96669 87.1591)
(3.29444 -9.89655 62.1525)
(1.89031 -9.52289 40.842)
(2.48591 -9.65999 29.8555)
(1.36656 -7.70271 21.244)
(2.3692 -7.04456 17.1099)
(0.850264 -5.35525 15.053)
(1.02093 -5.84228 12.1137)
(0.756323 -4.64898 10.7709)
(0.530128 -4.30628 10.2242)
(0.408162 -3.39175 8.43676)
(0.300401 -3.06087 7.96798)
(0.218221 -2.06 7.13372)
(0.139212 -1.59471 6.98061)
(0.0350448 -0.748287 6.96841)
(-0.0601447 0.452817 7.88017)
(-0.0482265 0.904164 9.41606)
(17.717 -2.95512 146.298)
(8.61546 -1.06997 122.839)
(7.44122 0.341228 95.2284)
(1.61399 -6.48427 83.0721)
(2.18205 -6.17646 62.55)
(1.78842 -6.03951 40.8609)
(2.33801 -6.92535 30.2774)
(2.0303 -5.22884 22.4753)
(2.45832 -4.83011 17.7967)
(0.678467 -4.04426 15.2874)
(1.13316 -4.37358 12.3465)
(0.736403 -3.10732 11.4312)
(0.530138 -3.09999 10.4608)
(0.425118 -2.22673 8.94189)
(0.307129 -2.16762 8.30616)
(0.220942 -1.31983 7.62156)
(0.129475 -0.978728 7.48085)
(0.0301951 -0.323845 7.42974)
(-0.0589392 0.705998 8.26472)
(-0.0436561 1.10436 9.89942)
(15.0843 -3.41622 143.632)
(8.46298 -0.743464 125.773)
(7.45261 3.91322 93.5556)
(2.72127 -3.20668 78.0302)
(1.52211 -3.83264 62.9361)
(2.42516 -3.12419 40.8305)
(1.96471 -4.11549 30.147)
(2.78202 -3.00549 23.5316)
(2.39456 -2.66224 18.2104)
(0.736395 -2.61892 15.1936)
(1.21588 -2.82586 12.7268)
(0.728953 -1.64992 12.1774)
(0.51379 -1.94384 10.5909)
(0.427068 -1.07016 9.32543)
(0.296507 -1.22633 8.36048)
(0.218359 -0.532867 7.81535)
(0.124156 -0.341655 7.61434)
(0.0319627 0.0856082 7.61354)
(-0.0555688 0.906968 8.43966)
(-0.0382752 1.27672 10.1493)
(13.0536 -1.47683 143.202)
(8.07157 -1.60513 132.337)
(7.33721 5.95971 94.1717)
(4.14453 1.17242 72.6284)
(1.04447 -1.79003 63.13)
(2.89622 -0.416578 41.9113)
(1.5707 -0.77299 30.7055)
(2.64172 -0.982236 24.2272)
(2.57866 -0.470501 18.6909)
(0.902806 -1.06599 15.3728)
(1.31803 -0.812795 13.0799)
(0.784348 -0.2049 12.8677)
(0.489323 -0.645118 10.7262)
(0.432617 0.0681023 9.81859)
(0.297866 -0.303369 8.5183)
(0.204501 0.202453 7.99165)
(0.112239 0.259002 7.62804)
(0.0344618 0.471833 7.60321)
(-0.0526779 1.14622 8.42035)
(-0.0319016 1.41646 10.1988)
(11.5985 1.19222 145.362)
(7.57199 -1.43119 137.373)
(7.15754 7.1746 99.2136)
(5.28585 7.47457 69.102)
(1.7343 1.30831 62.437)
(2.5677 2.32475 44.2935)
(1.29899 2.79799 31.6031)
(2.22552 1.05273 24.5219)
(2.75586 1.81849 19.0099)
(0.976364 0.811584 15.7131)
(1.33551 1.63024 13.6388)
(0.748256 1.57208 12.9777)
(0.474121 0.980215 10.646)
(0.409227 1.40685 9.79239)
(0.272358 0.829759 8.24813)
(0.189658 1.04432 7.80642)
(0.106193 0.933293 7.34448)
(0.0339568 0.898431 7.38759)
(-0.0508533 1.38893 8.15664)
(-0.0243046 1.5089 10.0108)
(11.454 1.60616 147.967)
(6.8932 0.924158 142.375)
(7.02381 6.14974 114.518)
(5.27338 11.7926 70.1879)
(3.21311 5.19496 60.3802)
(2.17589 4.95572 46.2339)
(1.18519 5.97099 32.5283)
(2.26136 3.88428 24.2465)
(2.71984 4.44718 19.6986)
(0.999437 3.21627 16.4723)
(1.25225 4.13656 14.6634)
(0.715457 3.50157 12.6994)
(0.547691 2.70619 10.5523)
(0.385804 2.88905 9.72832)
(0.274399 2.14798 7.86882)
(0.180682 2.02383 7.4414)
(0.101678 1.7052 6.73492)
(0.0316198 1.35981 6.86417)
(-0.0493268 1.62667 7.56812)
(-0.0150481 1.52116 9.52546)
(11.3822 -0.0144665 149.281)
(6.39244 3.23528 145.351)
(7.27885 1.55149 129.253)
(4.57852 12.9177 76.6884)
(4.30218 9.09557 60.4424)
(1.67257 8.54429 49.3324)
(1.55963 9.40156 34.7069)
(1.90492 8.89996 24.97)
(2.7769 8.44491 20.5345)
(0.86633 7.42232 16.9817)
(1.31545 7.29505 15.3456)
(0.636284 5.91769 12.2412)
(0.535306 5.28097 10.3062)
(0.334325 4.68203 9.2858)
(0.269802 3.81579 7.11312)
(0.169107 3.08688 6.67484)
(0.0929918 2.62637 5.80233)
(0.0220863 1.9028 6.00129)
(-0.0455131 1.89267 6.62916)
(-0.0049308 1.51156 8.70595)
(10.7771 -1.57669 148.699)
(6.25104 3.33776 146.002)
(7.19444 -2.13483 134.509)
(3.12298 10.99 87.9179)
(5.39611 11.4062 62.1803)
(0.814981 12.3061 53.846)
(2.52939 13.4248 39.4362)
(0.896285 14.5163 26.6953)
(2.59285 13.1624 21.5778)
(0.685364 12.7544 17.5218)
(1.56528 10.9182 14.7345)
(0.548162 8.70645 11.7624)
(0.520541 8.67037 10.1597)
(0.336135 6.72593 8.33521)
(0.269544 5.81567 6.13721)
(0.161082 4.28729 5.42271)
(0.0698172 3.68775 4.64478)
(0.00664052 2.50198 4.72612)
(-0.0417475 2.13417 5.37275)
(0.00533759 1.50304 7.55591)
(9.09481 -2.54937 145.07)
(6.19921 -1.43454 145.185)
(6.53329 -3.39899 138.176)
(1.52628 7.21597 102.747)
(6.21464 13.7311 68.8705)
(1.02205 16.1777 60.6008)
(3.12985 18.0911 46.9474)
(0.154973 20.6691 30.683)
(2.12798 18.3678 22.7634)
(0.77141 18.4222 17.5711)
(1.43945 15.025 13.4974)
(0.504662 13.3153 11.3663)
(0.528205 12.1443 9.74018)
(0.313497 9.68552 6.74292)
(0.265006 8.03105 4.82565)
(0.15136 5.94835 3.70697)
(0.0516107 4.81616 3.07402)
(-0.00647966 3.2304 2.96556)
(-0.0349056 2.33531 3.67192)
(0.0157314 1.49822 6.024)
(6.62464 -2.78084 139.147)
(5.96263 -5.16551 143.018)
(5.23481 -3.46382 140.173)
(1.44592 2.67317 119.946)
(4.97547 15.1656 79.4552)
(2.8554 20.1209 67.7079)
(3.1951 22.9505 53.8095)
(0.449141 26.0198 37.215)
(2.00396 24.0916 24.3479)
(0.981411 23.9156 17.705)
(1.27194 20.0665 12.5389)
(0.620941 18.5047 10.3949)
(0.576009 15.7893 8.28801)
(0.320956 12.9448 4.67425)
(0.230916 10.4393 2.73657)
(0.133745 7.80742 1.29966)
(0.025297 6.06851 0.733719)
(-0.0235999 4.0539 0.572911)
(-0.0265462 2.52047 1.35682)
(0.0268646 1.45746 3.93086)
(3.96093 -1.43504 135.489)
(4.15241 -5.43331 139.473)
(2.29261 -1.21033 141.899)
(2.4497 0.601589 132.091)
(1.85579 16.6157 96.0851)
(3.52157 27.0176 78.4514)
(3.37898 32.047 60.8513)
(1.1434 33.5306 43.9864)
(1.98025 33.0841 27.1888)
(1.00017 31.3906 18.203)
(1.11617 27.2124 11.1383)
(0.758829 24.6561 8.37227)
(0.653388 20.3611 5.76782)
(0.279583 16.776 1.88956)
(0.184216 13.2968 -0.307434)
(0.0932585 10.0135 -1.79624)
(-0.00671282 7.44924 -2.39161)
(-0.0374605 4.94349 -2.56752)
(-0.0123345 2.57403 -1.70811)
(0.0391452 1.33889 1.02982)
(-0.264404 3.65217 135.223)
(0.482287 0.823912 138.609)
(-0.53507 7.71696 146.418)
(1.83548 11.2362 143.405)
(-1.34253 24.75 121.999)
(1.3029 39.3856 97.8071)
(1.58714 48.7945 72.6143)
(1.81009 46.924 50.9708)
(1.98602 45.686 31.4561)
(1.11477 41.657 17.933)
(0.938757 36.417 8.50787)
(0.875052 31.7229 4.15897)
(0.689896 25.3942 1.08437)
(0.284478 21.0165 -2.30484)
(0.139949 16.579 -4.69927)
(0.0729397 12.4062 -5.98782)
(-0.0174154 8.93728 -6.58739)
(-0.0401381 5.90502 -6.63816)
(0.0080657 2.6493 -5.68757)
(0.0524671 1.19088 -2.76301)
(-5.86823 12.289 143.174)
(-3.586 14.9014 147.103)
(-2.69 28.227 163.144)
(-1.0452 41.1882 164.867)
(-1.97773 53.5342 156.279)
(-1.16936 68.6443 127.299)
(-1.53604 83.1471 90.5604)
(0.754728 75.2312 54.2342)
(1.29805 64.7479 32.7232)
(1.29661 54.7785 15.4569)
(0.908921 46.5046 3.07137)
(0.985674 39.4804 -3.52913)
(0.728467 30.9749 -6.23338)
(0.28572 25.5232 -8.0187)
(0.143926 19.9551 -10.6578)
(0.0513006 14.9434 -11.6003)
(-0.0350255 10.435 -12.1257)
(-0.0417065 6.82825 -11.8448)
(0.0286485 2.60895 -10.6545)
(0.0672874 0.913189 -7.47904)
(-9.78718 21.4961 167.731)
(-5.2536 36.1305 173.479)
(-2.75701 60.3951 199.844)
(-2.43049 78.6876 204.632)