/*--------------------------------*- C++ -*----------------------------------*\
| =========                 |                                                 |
| \\      /  F ield         | OpenFOAM: The Open Source CFD Toolbox           |
|  \\    /   O peration     | Version:  2212                                  |
|   \\  /    A nd           | Website:  www.openfoam.com                      |
|    \\/     M anipulation  |                                                 |
\*---------------------------------------------------------------------------*/
FoamFile
{
    version     2.0;
    format      ascii;
    arch        "LSB;label=32;scalar=64";
    class       volVectorField;
    location    "0.00023834";
    object      U;
}
// * * * * * * * * * * * * * * * * * * * * * * * * * * * * * * * * * * * * * //

dimensions      [0 1 -1 0 0 0 0];

internalField   nonuniform List<vector> 
105480
(
(2.46947e-12 -1.37836 -12.9775)
(2.51504e-12 -0.965369 -8.60606)
(2.24236e-12 -0.836626 -7.6186)
(2.0032e-12 -0.655281 -6.94424)
(1.801e-12 -0.500659 -6.32324)
(1.61104e-12 -0.387132 -5.78965)
(1.45504e-12 -0.297399 -5.33168)
(1.31508e-12 -0.222923 -4.92853)
(1.19517e-12 -0.157439 -4.55622)
(1.07837e-12 -0.09613 -4.19951)
(9.76205e-13 -0.0402764 -3.86761)
(8.74686e-13 0.00655423 -3.57459)
(7.94407e-13 0.047227 -3.31418)
(7.09323e-13 0.082413 -3.07667)
(6.40636e-13 0.115401 -2.85535)
(5.82526e-13 0.145644 -2.64418)
(5.08037e-13 0.173707 -2.44752)
(4.59849e-13 0.198815 -2.27482)
(4.19953e-13 0.220342 -2.12783)
(3.89618e-13 0.239573 -1.99447)
(3.53585e-13 0.258804 -1.85816)
(3.07603e-13 0.279543 -1.71137)
(2.60354e-13 0.301472 -1.55827)
(2.25281e-13 0.323367 -1.40734)
(1.7279e-13 0.344194 -1.26392)
(1.08386e-13 0.362853 -1.1285)
(7.26112e-14 0.379588 -1.00358)
(4.99986e-14 0.394732 -0.886495)
(3.14489e-14 0.410067 -0.770424)
(-1.2911e-15 0.426083 -0.655987)
(-3.95661e-14 0.441545 -0.547397)
(-1.58915e-13 0.456581 -0.446401)
(-2.52856e-13 0.470897 -0.355117)
(-3.14864e-13 0.482697 -0.274201)
(-3.48656e-13 0.49225 -0.199062)
(-3.28994e-13 0.497827 -0.124904)
(-2.98538e-13 0.504671 -0.0520312)
(-2.82591e-13 0.517123 0.0185772)
(-2.63616e-13 0.526601 0.0895069)
(-2.58804e-13 0.538778 0.160636)
(-2.64836e-13 0.551312 0.227182)
(-2.82253e-13 0.556767 0.285062)
(-3.03242e-13 0.563449 0.3361)
(-3.25092e-13 0.57163 0.383528)
(-3.39847e-13 0.576963 0.427617)
(-3.75354e-13 0.581551 0.472759)
(-4.37034e-13 0.586947 0.522274)
(-5.08907e-13 0.593296 0.574085)
(-7.34351e-13 0.599674 0.624218)
(-1.92693e-13 0.605696 0.671685)
(-3.02197e-13 0.611458 0.716387)
(-1.91442e-13 0.616928 0.757412)
(3.31929e-13 0.621737 0.794251)
(-2.93918e-13 0.626251 0.827232)
(-5.36052e-13 0.63037 0.856656)
(-9.591e-13 0.634203 0.883514)
(-6.11373e-13 0.637934 0.908431)
(-6.40361e-14 0.641582 0.931634)
(-2.88551e-13 0.645222 0.953789)
(-4.13121e-13 0.649044 0.975407)
(-4.23035e-13 0.6532 0.996412)
(1.56083e-13 0.657554 1.01653)
(-7.6934e-13 0.661703 1.03575)
(5.76961e-13 0.665714 1.05487)
(-3.48302e-13 0.669861 1.07446)
(-6.13967e-13 0.674049 1.09431)
(-9.52833e-13 0.678138 1.1142)
(-1.51192e-13 0.682148 1.13413)
(-3.60157e-13 0.685893 1.15431)
(-4.75111e-13 0.689448 1.17548)
(-5.30879e-13 0.693181 1.19742)
(-5.68927e-13 0.696779 1.21828)
(-6.12086e-13 0.699796 1.23733)
(-7.05266e-13 0.702221 1.25518)
(-6.61284e-13 0.704376 1.27255)
(-5.55335e-13 0.706272 1.28925)
(-5.92882e-13 0.708008 1.30538)
(-6.48091e-13 0.709582 1.32092)
(-7.15893e-13 0.710812 1.33578)
(-6.60031e-13 0.711711 1.35037)
(-6.08565e-13 0.712554 1.36502)
(-7.57979e-13 0.713363 1.3792)
(-6.27009e-13 0.714053 1.39229)
(-5.40851e-13 0.714679 1.40401)
(3.32756e-13 0.715094 1.41402)
(-3.70857e-13 0.715247 1.42218)
(-5.51018e-13 0.71519 1.42861)
(-7.11563e-13 0.715011 1.43317)
(-1.19046e-12 0.714651 1.43581)
(-1.93597e-13 0.713591 1.43636)
(-4.42588e-13 0.711973 1.43565)
(-5.89441e-13 0.710036 1.43384)
(-6.52113e-13 0.708099 1.43094)
(-1.11038e-12 0.706262 1.42709)
(-1.28064e-13 0.704515 1.42275)
(-3.87566e-13 0.702719 1.41819)
(-5.81119e-13 0.700912 1.41374)
(1.85352e-13 0.699368 1.40999)
(-4.80362e-13 0.698339 1.40737)
(-7.38123e-13 0.697759 1.40585)
(-1.30589e-12 0.697348 1.40522)
(-2.93062e-13 0.696996 1.4057)
(-4.45206e-13 0.697167 1.40849)
(-5.21351e-13 0.698524 1.41502)
(-5.19831e-13 0.701054 1.42563)
(-5.72409e-13 0.704273 1.44009)
(2.92308e-13 0.709039 1.4611)
(-2.78181e-13 0.715641 1.48922)
(-4.06406e-13 0.723363 1.52207)
(-4.32754e-13 0.731496 1.55763)
(-4.42367e-13 0.739563 1.59485)
(-4.47533e-13 0.747382 1.63346)
(-4.59113e-13 0.754991 1.67295)
(-4.98814e-13 0.761708 1.71026)
(-6.28773e-13 0.766914 1.7434)
(-5.11917e-13 0.77074 1.7722)
(-4.53192e-13 0.77358 1.79609)
(-6.48755e-13 0.775161 1.81336)
(-6.72456e-13 0.775338 1.8235)
(3.9288e-13 0.773304 1.82469)
(-2.48417e-13 0.769896 1.81926)
(-4.25463e-13 0.765168 1.80813)
(-4.90543e-13 0.759291 1.79169)
(-5.25648e-13 0.752606 1.76981)
(-5.52962e-13 0.745811 1.74377)
(-6.06472e-13 0.739099 1.71548)
(-6.55897e-13 0.731915 1.6846)
(-6.50547e-13 0.723922 1.64946)
(-6.6209e-13 0.715495 1.60971)
(-5.37198e-13 0.706831 1.56381)
(-4.32606e-13 0.696706 1.51147)
(-4.8826e-13 0.688051 1.45755)
(-5.98555e-13 0.680009 1.40244)
(2.87367e-14 0.672779 1.3405)
(-8.57595e-13 0.668742 1.27476)
(-1.79949e-13 0.672902 1.22577)
(-3.53718e-13 0.681629 1.21953)
(-4.865e-13 0.709929 1.313)
(-7.06445e-13 0.761976 1.60774)
(-1.06425e-12 0.845678 2.29186)
(-7.61784e-13 0.977256 3.70519)
(2.08022e-12 1.33358 5.88931)
(-1.65593e-12 2.84563 9.42971)
(-2.6669e-13 10.3233 10.6035)
(6.46814e-12 -3.86514 -26.0228)
(6.16633e-12 -3.13221 -18.6012)
(5.53815e-12 -2.37724 -17.0907)
(4.99935e-12 -1.87168 -15.9938)
(4.54429e-12 -1.49044 -14.8497)
(4.11589e-12 -1.1977 -13.7887)
(3.74214e-12 -0.955102 -12.8289)
(3.41192e-12 -0.751492 -11.956)
(3.11039e-12 -0.571315 -11.1338)
(2.81906e-12 -0.402271 -10.3346)
(2.54784e-12 -0.246516 -9.58306)
(2.29984e-12 -0.108081 -8.90487)
(2.08011e-12 0.00873228 -8.29249)
(1.87792e-12 0.111712 -7.72898)
(1.70016e-12 0.204963 -7.19931)
(1.53584e-12 0.292097 -6.69571)
(1.3797e-12 0.373922 -6.22218)
(1.25327e-12 0.446736 -5.80277)
(1.1454e-12 0.508299 -5.44406)
(1.05865e-12 0.562932 -5.11859)
(9.64391e-13 0.617987 -4.7869)
(8.5257e-13 0.677906 -4.42937)
(7.3599e-13 0.741559 -4.05476)
(6.33619e-13 0.8048 -3.68327)
(4.81875e-13 0.864249 -3.32894)
(2.7448e-13 0.917952 -2.99474)
(1.95177e-13 0.966643 -2.68742)
(1.58077e-13 1.01197 -2.39863)
(1.04143e-13 1.05913 -2.11167)
(8.23052e-15 1.10736 -1.8268)
(-5.64487e-14 1.1527 -1.55273)
(-4.77171e-13 1.19394 -1.2953)
(-7.33627e-13 1.23124 -1.06167)
(-8.85081e-13 1.26393 -0.854059)
(-9.92499e-13 1.29363 -0.661822)
(-8.93202e-13 1.32213 -0.476048)
(-8.00535e-13 1.35101 -0.296244)
(-7.29975e-13 1.38 -0.117345)
(-7.00731e-13 1.40777 0.0642387)
(-6.93699e-13 1.43552 0.243807)
(-7.25032e-13 1.46344 0.413386)
(-7.66857e-13 1.48607 0.561317)
(-8.11105e-13 1.50303 0.687441)
(-8.6435e-13 1.52597 0.801912)
(-9.31449e-13 1.55009 0.914727)
(-1.02666e-12 1.56606 1.03326)
(-1.16733e-12 1.58466 1.16206)
(-6.3417e-13 1.60494 1.29487)
(1.71296e-13 1.62517 1.42295)
(-5.36348e-15 1.64468 1.54464)
(-9.46337e-13 1.66371 1.66013)
(-1.24223e-12 1.68222 1.76776)
(-1.15802e-12 1.69877 1.86579)
(-1.19204e-12 1.71424 1.95475)
(-1.29959e-12 1.72862 2.03554)
(-9.49042e-13 1.74229 2.11098)
(8.40538e-14 1.75565 2.18265)
(3.02248e-14 1.76877 2.25128)
(-9.43492e-13 1.78189 2.31864)
(-1.26608e-12 1.79534 2.38595)
(-1.58785e-12 1.80905 2.45235)
(-1.56138e-12 1.82274 2.51664)
(-1.41617e-12 1.83596 2.57936)
(-4.74563e-13 1.84894 2.64274)
(-1.06752e-12 1.86206 2.70755)
(-7.53794e-13 1.87505 2.77264)
(-1.00775e-12 1.88767 2.83728)
(-3.32118e-13 1.89988 2.90113)
(-1.14047e-12 1.91154 2.96521)
(-1.40276e-12 1.92295 3.03207)
(-1.5146e-12 1.93456 3.10013)
(-1.60225e-12 1.94561 3.16394)
(-1.6869e-12 1.95533 3.22227)
(-1.62426e-12 1.96381 3.27741)
(-9.81347e-13 1.97161 3.33096)
(-1.44522e-12 1.9788 3.38254)
(-1.67255e-12 1.98558 3.43245)
(-1.84196e-12 1.99202 3.48088)
(-1.62821e-12 1.99792 3.52808)
(-9.40497e-13 2.00337 3.57549)
(-1.60745e-12 2.00875 3.62387)
(-1.81122e-12 2.01398 3.67167)
(-8.17034e-13 2.01885 3.71724)
(-1.46186e-12 2.0234 3.75962)
(-1.40809e-12 2.02739 3.79782)
(-1.49611e-12 2.0307 3.83159)
(-1.61202e-12 2.0334 3.86086)
(-1.76069e-12 2.0356 3.88473)
(-1.76636e-12 2.03718 3.90261)
(-6.47076e-13 2.03729 3.91514)
(-1.45187e-12 2.036 3.92465)
(-1.78244e-12 2.03399 3.93229)
(-1.58572e-12 2.03156 3.93693)
(-1.55455e-12 2.02863 3.93772)
(-4.61204e-13 2.02555 3.93604)
(-1.23186e-12 2.0222 3.93283)
(-1.669e-12 2.01865 3.92892)
(-1.71421e-12 2.01534 3.92532)
(-1.81946e-12 2.01272 3.9227)
(-1.8438e-12 2.01079 3.92124)
(-2.02745e-12 2.00922 3.92107)
(-1.10691e-14 2.00795 3.92307)
(-9.84474e-13 2.00759 3.92931)
(-7.81022e-13 2.00912 3.94231)
(-1.46022e-12 2.0128 3.96295)
(-1.53241e-12 2.01821 3.99187)
(-1.24006e-12 2.02695 4.0346)
(-1.19081e-12 2.03993 4.0928)
(-1.25002e-12 2.05618 4.16238)
(-1.25986e-12 2.07452 4.23974)
(-1.2621e-12 2.0941 4.32321)
(-1.27096e-12 2.11454 4.41291)
(-1.30342e-12 2.13569 4.50797)
(-1.38706e-12 2.15599 4.60169)
(-1.47739e-12 2.17379 4.68944)
(-5.82274e-13 2.18892 4.77018)
(-1.15922e-12 2.20182 4.84127)
(-1.52688e-12 2.21187 4.89815)
(-8.63432e-13 2.21909 4.93959)
(-1.0359e-12 2.22303 4.96425)
(-1.20939e-12 2.22118 4.96901)
(-1.33879e-12 2.21503 4.95905)
(-1.44536e-12 2.20555 4.9358)
(-1.53271e-12 2.19343 4.89862)
(-1.58617e-12 2.18012 4.84949)
(-1.77375e-12 2.16651 4.79316)
(-1.96839e-12 2.15177 4.73016)
(-1.83295e-12 2.13502 4.6572)
(-1.61788e-12 2.11659 4.573)
(-7.20246e-13 2.09675 4.47358)
(-1.156e-12 2.07352 4.35786)
(-1.38466e-12 2.05281 4.23489)
(-1.65196e-12 2.03549 4.1088)
(-1.5888e-12 2.02228 3.97491)
(-1.57709e-12 2.01065 3.84176)
(-5.35866e-13 1.99264 3.74688)
(-1.13599e-12 1.94952 3.74404)
(-1.45622e-12 1.89402 3.92484)
(-1.52024e-12 1.83579 4.57555)
(-1.16061e-12 1.6711 5.93243)
(-1.99507e-12 1.53625 8.2919)
(5.02458e-14 2.10847 11.6374)
(2.97001e-13 5.52402 15.6989)
(-1.07253e-12 15.6972 18.1642)
(9.16622e-12 -4.66723 -33.3345)
(8.59322e-12 -3.98566 -25.0699)
(7.72587e-12 -3.1503 -23.347)
(7.05025e-12 -2.55496 -22.0541)
(6.45701e-12 -2.09119 -20.6304)
(5.90374e-12 -1.71323 -19.3163)
(5.41022e-12 -1.38511 -18.0981)
(4.9671e-12 -1.10138 -16.9713)
(4.55556e-12 -0.845839 -15.8949)
(4.15232e-12 -0.60439 -14.8383)
(3.77601e-12 -0.382426 -13.8337)
(3.41653e-12 -0.187529 -12.9115)
(3.1002e-12 -0.0172884 -12.0713)
(2.82011e-12 0.135237 -11.2942)
(2.55951e-12 0.275877 -10.5591)
(2.30024e-12 0.407974 -9.85761)
(2.0722e-12 0.532131 -9.19511)
(1.87785e-12 0.642313 -8.60608)
(1.72195e-12 0.735672 -8.10034)
(1.5937e-12 0.819101 -7.63963)
(1.46549e-12 0.90341 -7.16955)
(1.31427e-12 0.994823 -6.66292)
(1.16524e-12 1.09167 -6.13149)
(1.00017e-12 1.18776 -5.60295)
(7.97001e-13 1.27839 -5.09709)
(3.13821e-13 1.36179 -4.61839)
(2.75676e-13 1.43647 -4.17519)
(2.55749e-13 1.50787 -3.75887)
(2.04929e-13 1.58282 -3.34582)
(9.06977e-14 1.65759 -2.93454)
(1.22033e-12 1.72822 -2.53592)
(1.32327e-12 1.79328 -2.16009)
(9.51513e-13 1.85202 -1.81829)
(7.55525e-13 1.9039 -1.5138)
(-6.15149e-13 1.9516 -1.23181)
(-1.42667e-12 1.99781 -0.959142)
(-1.18565e-12 2.04346 -0.694894)
(-1.08152e-12 2.08912 -0.431982)
(-1.0421e-12 2.13478 -0.164234)
(-1.05234e-12 2.18049 0.100796)
(-1.11284e-12 2.22445 0.349928)
(-1.17814e-12 2.26169 0.567939)
(-1.23806e-12 2.29277 0.752399)
(-1.33897e-12 2.3215 0.918577)
(-1.42659e-12 2.35244 1.08438)
(-1.58639e-12 2.38375 1.2614)
(-1.80495e-12 2.41759 1.45422)
(-6.01413e-13 2.45275 1.65293)
(-5.35592e-13 2.48705 1.84497)
(-1.72891e-12 2.52014 2.02836)
(-1.73524e-12 2.55289 2.20375)
(-1.8057e-12 2.58638 2.37008)
(-1.81878e-12 2.61537 2.52323)
(-1.88575e-12 2.64224 2.66349)
(-2.02585e-12 2.66729 2.79238)
(-2.36201e-12 2.69128 2.91427)
(-2.41228e-12 2.71478 3.03157)
(-1.97882e-12 2.73789 3.14541)
(-2.04565e-12 2.76114 3.25853)
(-2.0542e-12 2.78482 3.37252)
(-2.29043e-12 2.80848 3.48538)
(-2.43246e-12 2.8318 3.59513)
(-2.78529e-12 2.85451 3.70298)
(-2.53915e-12 2.87705 3.81231)
(-1.70938e-12 2.89971 3.92376)
(-1.22889e-12 2.92208 4.03523)
(-2.42044e-12 2.94379 4.14546)
(-2.51909e-12 2.96475 4.25372)
(-2.26078e-12 2.98499 4.36194)
(-2.38807e-12 3.00509 4.47446)
(-2.42429e-12 3.0253 4.58812)
(-2.55878e-12 3.04438 4.69441)
(-2.63943e-12 3.06143 4.79181)
(-2.06784e-12 3.07681 4.88426)
(-1.48751e-12 3.09128 4.9742)
(-2.4211e-12 3.10493 5.06113)
(-1.7052e-12 3.11804 5.14556)
(-1.59153e-12 3.13076 5.22797)
(-1.77948e-12 3.14299 5.30909)
(-1.31304e-12 3.15498 5.39138)
(-1.78193e-12 3.16704 5.47594)
(-1.03912e-12 3.17894 5.56042)
(-1.04439e-12 3.19034 5.64226)
(-2.11933e-12 3.20126 5.71981)
(-2.35977e-12 3.21141 5.79143)
(-2.47683e-12 3.22057 5.85665)
(-2.56738e-12 3.22879 5.91523)
(-2.81865e-12 3.23615 5.9654)
(-3.32086e-12 3.24235 6.00555)
(-2.58164e-12 3.24659 6.03723)
(-1.95481e-12 3.24922 6.06511)
(-1.79014e-12 3.25118 6.09147)
(-2.31312e-12 3.25267 6.11406)
(-2.8423e-12 3.25316 6.13061)
(-2.52823e-12 3.25258 6.14167)
(-2.37761e-12 3.25098 6.14876)
(-2.38609e-12 3.24863 6.15367)
(-1.98653e-12 3.24617 6.15793)
(-1.59363e-12 3.24405 6.162)
(-1.77229e-12 3.2423 6.16612)
(-1.83989e-12 3.24072 6.17103)
(-1.40959e-12 3.23951 6.17858)
(-1.44594e-12 3.23918 6.19126)
(-7.64306e-13 3.24056 6.21166)
(-1.6221e-12 3.24393 6.24048)
(-2.14476e-12 3.2491 6.27954)
(-1.96104e-12 3.25801 6.33609)
(-1.93674e-12 3.27197 6.41231)
(-2.07494e-12 3.29033 6.50357)
(-2.04217e-12 3.31207 6.60584)
(-2.02237e-12 3.33649 6.71751)
(-2.02983e-12 3.36327 6.8395)
(-2.07163e-12 3.39249 6.97118)
(-2.1522e-12 3.42215 7.1041)
(-1.81508e-12 3.45007 7.23219)
(-9.85896e-13 3.47584 7.35376)
(-1.93932e-12 3.49966 7.4645)
(-1.89256e-12 3.52041 7.55776)
(-1.18472e-12 3.538 7.63182)
(-1.90199e-12 3.55208 7.68456)
(-2.11353e-12 3.5616 7.71514)
(-2.22676e-12 3.56242 7.7194)
(-2.37537e-12 3.55759 7.7039)
(-2.51798e-12 3.54869 7.66857)
(-2.40324e-12 3.53738 7.61516)
(-2.00497e-12 3.525 7.54995)
(-1.31753e-12 3.51064 7.47466)
(-1.43475e-12 3.49248 7.38566)
(-1.72222e-12 3.47107 7.28092)
(-1.11844e-12 3.44624 7.15567)
(-2.00046e-12 3.41825 7.00699)
(-2.25797e-12 3.39144 6.8456)
(-2.41739e-12 3.36784 6.67828)
(-2.57752e-12 3.34741 6.50214)
(-3.08659e-12 3.32421 6.32742)
(-2.53848e-12 3.27785 6.19938)
(-2.12603e-12 3.17153 6.18412)
(-2.42117e-12 2.99254 6.37157)
(-2.01041e-12 2.76184 7.0666)
(-1.50508e-12 2.34702 8.40879)
(-2.66143e-12 2.08372 10.5702)
(-1.5197e-12 3.00853 13.4548)
(-6.76916e-13 6.72602 16.3973)
(3.94522e-12 15.1987 19.0871)
(1.07856e-11 -5.1442 -37.623)
(1.00454e-11 -4.50318 -29.1447)
(9.07879e-12 -3.61704 -27.4468)
(8.36009e-12 -2.97747 -26.1317)
(7.71701e-12 -2.48065 -24.6328)
(7.11544e-12 -2.05378 -23.2184)
(6.56394e-12 -1.67802 -21.8775)
(6.06349e-12 -1.34788 -20.6212)
(5.59852e-12 -1.04577 -19.4091)
(5.12213e-12 -0.756453 -18.2093)
(4.67675e-12 -0.486082 -17.059)
(4.26224e-12 -0.246164 -15.9923)
(3.88679e-12 -0.0367232 -15.0115)
(3.55671e-12 0.151338 -14.0987)
(3.23246e-12 0.326531 -13.2316)
(2.90399e-12 0.491992 -12.4008)
(2.6004e-12 0.647691 -11.6133)
(2.31479e-12 0.785637 -10.91)
(2.14101e-12 0.902822 -10.3034)
(1.99586e-12 1.0082 -9.74918)
(1.85403e-12 1.11508 -9.1833)
(1.69651e-12 1.2311 -8.57308)
(1.54404e-12 1.35394 -7.93201)
(1.44551e-12 1.47609 -7.2927)
(2.29582e-12 1.59228 -6.67844)
(1.18382e-12 1.70107 -6.09662)
(2.45638e-13 1.79884 -5.55564)
(3.61451e-13 1.89463 -5.04505)
(3.27095e-13 1.99302 -4.53932)
(3.74652e-14 2.09032 -4.03517)
(2.71834e-12 2.18301 -3.54338)
(2.79602e-12 2.26927 -3.07812)
(1.19586e-12 2.34738 -2.65394)
(1.18732e-12 2.41681 -2.27488)
(-3.00854e-13 2.48118 -1.92303)
(-1.5228e-12 2.54394 -1.582)
(-1.35889e-12 2.60562 -1.25064)
(-1.31521e-12 2.6673 -0.920633)
(-1.30145e-12 2.72983 -0.584929)
(-1.32997e-12 2.79177 -0.251515)
(-1.44935e-12 2.85081 0.0622379)
(-1.53148e-12 2.90199 0.336863)
(-1.55032e-12 2.94566 0.570478)
(-1.79344e-12 2.98565 0.781703)
(-1.78634e-12 3.02636 0.991648)
(-2.08663e-12 3.06977 1.21676)
(-2.16663e-12 3.11734 1.46328)
(-2.39443e-12 3.16674 1.71847)
(-2.35708e-12 3.21487 1.96628)
(-2.31087e-12 3.26128 2.20406)
(-2.28189e-12 3.30647 2.43255)
(-2.30611e-12 3.35054 2.64985)
(-2.35204e-12 3.39179 2.85326)
(-2.43117e-12 3.43018 3.04118)
(-2.53708e-12 3.46615 3.21556)
(-2.73855e-12 3.50079 3.38206)
(-2.78026e-12 3.53469 3.54364)
(-6.16385e-13 3.5681 3.70174)
(-9.8876e-13 3.60232 3.86018)
(-2.64482e-12 3.6372 4.02067)
(-3.01013e-12 3.67112 4.17964)
(-3.07324e-12 3.70419 4.33445)
(-3.27927e-12 3.73651 4.48701)
(-3.20112e-12 3.76875 4.64172)
(-3.74944e-12 3.80113 4.79903)
(-3.29528e-12 3.83304 4.95597)
(-1.41048e-12 3.86405 5.11078)
(-1.74543e-12 3.894 5.26238)
(-2.92876e-12 3.92316 5.41371)
(-3.34471e-12 3.95241 5.57073)
(-3.14687e-12 3.98163 5.72874)
(-3.49254e-12 4.00904 5.87647)
(-3.53791e-12 4.03383 6.01229)
(-3.84036e-12 4.05672 6.14173)
(-2.05118e-12 4.07862 6.26784)
(-2.14894e-12 4.09957 6.39012)
(-2.1991e-12 4.11991 6.5093)
(-2.15652e-12 4.13989 6.62625)
(-3.49891e-12 4.15961 6.74218)
(-2.02879e-12 4.1795 6.86051)
(-1.26793e-12 4.19968 6.98268)
(-2.48363e-12 4.21979 7.10562)
(-3.30978e-12 4.23946 7.226)
(-3.27955e-12 4.2586 7.34145)
(-3.33993e-12 4.2769 7.44968)
(-3.37215e-12 4.29411 7.55)
(-3.26365e-12 4.31013 7.64194)
(-2.14775e-12 4.32486 7.72285)
(-2.4962e-12 4.33779 7.79)
(-2.99214e-12 4.34836 7.84585)
(-2.48857e-12 4.35748 7.8977)
(-2.69274e-12 4.36631 7.94911)
(-3.07264e-12 4.37468 7.99648)
(-3.43767e-12 4.38169 8.03598)
(-3.32635e-12 4.387 8.06745)
(-3.21926e-12 4.39068 8.09281)
(-3.24726e-12 4.39295 8.11445)
(-2.54974e-12 4.39448 8.13408)
(-2.11174e-12 4.39559 8.15181)
(-2.181e-12 4.39636 8.1678)
(-1.70602e-12 4.39663 8.18321)
(-2.27373e-12 4.39686 8.20096)
(-3.13522e-12 4.39754 8.22406)
(-1.19048e-12 4.3994 8.25513)
(-3.3463e-13 4.4026 8.2944)
(-1.34588e-12 4.40717 8.34451)
(-2.55048e-12 4.41504 8.41388)
(-2.54745e-12 4.42768 8.50469)
(-3.01749e-12 4.44494 8.6119)
(-2.73021e-12 4.46623 8.7315)
(-2.70955e-12 4.49114 8.86219)
(-2.73371e-12 4.51967 9.00572)
(-2.78567e-12 4.55218 9.16189)
(-2.91067e-12 4.58681 9.32161)
(-3.38004e-12 4.62133 9.47833)
(-3.06712e-12 4.65521 9.63011)
(-3.16456e-12 4.68843 9.77163)
(-3.58731e-12 4.7195 9.89496)
(-3.27004e-12 4.74805 9.99796)
(-3.13143e-12 4.77353 10.078)
(-3.02655e-12 4.79539 10.1336)
(-3.00294e-12 4.81242 10.1651)
(-3.33978e-12 4.81976 10.1655)
(-3.67228e-12 4.8205 10.1423)
(-3.1628e-12 4.81772 10.0956)
(-2.48361e-12 4.81281 10.033)
(-1.617e-12 4.80531 9.95648)
(-2.02491e-12 4.79335 9.86358)
(-3.27015e-12 4.77729 9.7525)
(-3.41896e-12 4.75446 9.61925)
(-3.24939e-12 4.72883 9.45865)
(-3.18479e-12 4.70143 9.28001)
(-3.10276e-12 4.67444 9.0915)
(-2.05178e-12 4.64673 8.89117)
(-1.17187e-12 4.60973 8.68815)
(-1.78967e-12 4.53799 8.52516)
(-2.63596e-12 4.37807 8.4648)
(-3.12896e-12 4.09506 8.58343)
(-3.40687e-12 3.71882 9.08723)
(-3.30781e-12 3.19089 10.0659)
(-2.16035e-12 2.9429 11.6704)
(-2.29818e-12 4.00769 13.8595)
(-4.00595e-12 7.41717 16.167)
(5.19305e-14 14.2805 18.8224)
(1.14957e-11 -5.241 -40.3857)
(1.07924e-11 -4.63213 -31.9437)
(9.82765e-12 -3.75797 -30.3126)
(9.12557e-12 -3.14626 -29.0217)
(8.48769e-12 -2.65562 -27.53)
(7.88137e-12 -2.2164 -26.0911)
(7.30985e-12 -1.82397 -24.7051)
(6.79479e-12 -1.47397 -23.3913)
(6.29814e-12 -1.14941 -22.1118)
(5.80211e-12 -0.835503 -20.8351)
(5.32805e-12 -0.538717 -19.6029)
(4.88801e-12 -0.270615 -18.4558)
(4.48423e-12 -0.0328718 -17.3956)
(4.11115e-12 0.18082 -16.4017)
(3.74417e-12 0.380269 -15.4525)
(3.38196e-12 0.569597 -14.54)
(2.98246e-12 0.748306 -13.6717)
(2.50095e-12 0.907178 -12.8932)
(2.36537e-12 1.04264 -12.2193)
(2.23887e-12 1.1648 -11.6016)
(2.11221e-12 1.28899 -10.9696)
(1.94914e-12 1.42407 -10.2876)
(1.76786e-12 1.56756 -9.57046)
(1.58803e-12 1.71127 -8.85347)
(2.39958e-12 1.84928 -8.1622)
(1.65313e-12 1.97939 -7.50669)
(4.75881e-13 2.09829 -6.89356)
(6.2213e-13 2.21604 -6.31331)
(1.96101e-12 2.33335 -5.74044)
(1.16109e-12 2.44949 -5.16762)
(8.10497e-13 2.56123 -4.60545)
(1.96483e-13 2.66682 -4.0718)
(-1.54976e-12 2.76264 -3.58402)
(-1.6106e-12 2.84832 -3.14659)
(-1.59272e-12 2.92812 -2.73932)
(-1.51512e-12 3.00609 -2.34349)
(-1.38877e-12 3.08249 -1.9578)
(-1.54252e-12 3.15885 -1.5731)
(-1.5081e-12 3.23664 -1.18147)
(-1.51569e-12 3.31416 -0.792102)
(-1.77994e-12 3.38742 -0.424602)
(-1.70021e-12 3.45174 -0.101503)
(3.90227e-13 3.50675 0.174243)
(-1.28164e-13 3.55706 0.424593)
(3.55737e-14 3.60808 0.673925)
(-5.52002e-13 3.66258 0.941399)
(-2.6102e-12 3.72295 1.23515)
(-2.71695e-12 3.7858 1.5406)
(-2.70708e-12 3.84728 1.83876)
(-2.69502e-12 3.90674 2.12639)
(-2.69396e-12 3.96465 2.40438)
(-2.72784e-12 4.02071 2.67011)
(-2.784e-12 4.07369 2.92069)
(-2.88385e-12 4.12313 3.15386)
(-2.87065e-12 4.16952 3.37178)
(-3.2274e-12 4.21428 3.58114)
(-3.34093e-12 4.25805 3.78539)
(-1.21563e-12 4.30113 3.98606)
(-1.32786e-12 4.34446 4.18731)
(-5.17071e-13 4.38853 4.39143)
(-1.5263e-12 4.43229 4.59444)
(-3.65903e-12 4.47484 4.79236)
(-3.76486e-12 4.51657 4.98775)
(-1.25714e-12 4.55848 5.18597)
(-2.10751e-12 4.60053 5.38722)
(-1.46817e-12 4.64191 5.58763)
(2.61981e-12 4.68215 5.78506)
(-2.32853e-14 4.72095 5.97809)
(-1.17199e-12 4.75902 6.17071)
(-2.00748e-12 4.79777 6.37063)
(-1.31809e-12 4.83675 6.57177)
(-2.10392e-12 4.87287 6.7597)
(-4.32776e-12 4.90572 6.93299)
(-4.62536e-12 4.9365 7.09865)
(-2.66236e-12 4.96617 7.26027)
(-2.76583e-12 4.99482 7.41736)
(-4.59186e-12 5.02276 7.57095)
(-4.42161e-12 5.05036 7.72232)
(-4.69848e-12 5.078 7.87324)
(-2.8809e-12 5.10629 8.02812)
(-3.456e-12 5.13511 8.18844)
(-4.64284e-12 5.16417 8.35069)
(-4.42598e-12 5.19298 8.51073)
(-4.22436e-12 5.22134 8.66544)
(-4.24622e-12 5.24893 8.81197)
(-4.23093e-12 5.27542 8.94939)
(-4.07969e-12 5.30045 9.07703)
(-2.8443e-12 5.32375 9.19133)
(-3.06189e-12 5.34456 9.28836)
(-3.6779e-12 5.36265 9.3715)
(-2.52012e-12 5.37966 9.45088)
(-3.20935e-12 5.39697 9.53145)
(-3.7798e-12 5.41391 9.60824)
(-4.386e-12 5.42926 9.67572)
(-3.9748e-12 5.44246 9.73293)
(-3.89107e-12 5.45356 9.78214)
(-4.54423e-12 5.46285 9.82643)
(-4.50765e-12 5.47087 9.86749)
(-4.2795e-12 5.47772 9.90485)
(-4.68725e-12 5.4834 9.93847)
(-2.99044e-12 5.48775 9.96986)
(-1.36977e-12 5.49138 10.0028)
(-2.54615e-12 5.49492 10.041)
(-8.21468e-13 5.49901 10.0868)
(-4.6237e-13 5.50357 10.14)
(-1.75701e-13 5.50883 10.2039)
(-1.56216e-12 5.51665 10.288)
(-1.08716e-12 5.52845 10.3943)
(-2.08255e-12 5.54439 10.5169)
(-3.15159e-12 5.5643 10.6519)
(-3.33795e-12 5.58813 10.7983)
(-3.40327e-12 5.61617 10.9587)
(-3.44681e-12 5.64911 11.1331)
(-3.52792e-12 5.68556 11.3126)
(-3.69695e-12 5.72348 11.4903)
(-3.49633e-12 5.76244 11.6645)
(-4.19492e-12 5.80239 11.8294)
(-3.93324e-12 5.84153 11.9765)
(-3.74317e-12 5.87936 12.1035)
(-4.14581e-12 5.91516 12.2073)
(-3.63263e-12 5.94834 12.2862)
(-3.32522e-12 5.97873 12.3405)
(-2.57794e-12 6.00467 12.3687)
(-3.02049e-12 6.01974 12.3607)
(-3.60749e-12 6.02751 12.3274)
(-4.35479e-12 6.03269 12.2736)
(-4.72974e-12 6.03421 12.2037)
(-4.4016e-12 6.03193 12.1156)
(-4.2749e-12 6.02575 12.0061)
(-4.77905e-12 6.01333 11.874)
(-4.21473e-12 5.99711 11.7145)
(-4.0222e-12 5.97558 11.5309)
(-3.93263e-12 5.94973 11.3327)
(-2.77852e-12 5.91748 11.1183)
(-1.56766e-12 5.86883 10.895)
(-2.19065e-12 5.78014 10.6955)
(-1.71868e-12 5.5949 10.5629)
(-2.18149e-12 5.26863 10.5514)
(-3.98806e-12 4.82521 10.7667)
(-3.94814e-12 4.30784 11.3117)
(-2.29573e-12 4.14291 12.3099)
(-3.21832e-13 5.10923 13.7616)
(-2.77621e-12 7.90559 15.6136)
(-5.66974e-12 13.1501 18.1376)
(1.16407e-11 -5.13572 -42.198)
(1.10585e-11 -4.54782 -34.1389)
(1.01248e-11 -3.71862 -32.3714)
(9.47348e-12 -3.14392 -31.149)
(8.86656e-12 -2.67477 -29.693)
(8.28407e-12 -2.24362 -28.2689)
(7.72419e-12 -1.85075 -26.8815)
(7.2173e-12 -1.49486 -25.5554)
(6.72293e-12 -1.16134 -24.2551)
(6.22991e-12 -0.836941 -22.9497)
(5.75443e-12 -0.529353 -21.6804)
(5.31253e-12 -0.248563 -20.4909)
(4.89445e-12 0.00467853 -19.3884)
(4.51468e-12 0.235864 -18.3523)
(4.162e-12 0.451591 -17.3576)
(3.85216e-12 0.657341 -16.3971)
(3.94699e-12 0.852237 -15.48)
(2.91926e-12 1.02631 -14.6549)
(2.3107e-12 1.17554 -13.9381)
(2.26503e-12 1.31075 -13.2791)
(2.21346e-12 1.44847 -12.6035)
(2.05616e-12 1.59828 -11.8735)
(1.82611e-12 1.75799 -11.1048)
(1.56406e-12 1.91921 -10.3344)
(1.18517e-12 2.07523 -9.58958)
(8.22778e-13 2.22295 -8.88136)
(6.40819e-13 2.3622 -8.215)
(5.35183e-13 2.49747 -7.58447)
(1.61485e-12 2.62994 -6.96462)
(1.12106e-12 2.76169 -6.34152)
(-8.63128e-13 2.89012 -5.72575)
(-1.14623e-12 3.01297 -5.13952)
(-1.37471e-12 3.12456 -4.60265)
(-1.41814e-12 3.22481 -4.11916)
(-1.39544e-12 3.3184 -3.6675)
(-1.26431e-12 3.4099 -3.22732)
(8.3258e-13 3.49949 -2.79722)
(3.24839e-13 3.58907 -2.36734)
(-1.67132e-12 3.68052 -1.92904)
(6.1267e-13 3.77184 -1.49248)
(-3.74901e-14 3.85835 -1.07945)
(-2.31653e-12 3.9345 -0.715313)
(-3.04273e-13 3.99964 -0.402709)
(-5.65893e-13 4.05949 -0.117011)
(-5.49264e-13 4.11929 0.167557)
(-8.00548e-13 4.18371 0.47291)
(-2.79003e-12 4.25605 0.809342)
(-3.09351e-12 4.33087 1.16034)
(-2.99232e-12 4.40464 1.50457)
(-3.01556e-12 4.47605 1.83823)
(-3.03561e-12 4.54574 2.16234)
(-3.06378e-12 4.61301 2.47355)
(-3.10667e-12 4.67679 2.76842)
(-3.1198e-12 4.73645 3.0442)
(-3.36672e-13 4.79256 3.30324)
(-1.20359e-12 4.84677 3.55315)
(-3.64129e-12 4.89984 3.79784)
(-3.77603e-12 4.95215 4.03892)
(-3.86127e-12 5.00478 4.28115)
(1.53708e-12 5.05826 4.52697)
(3.5447e-13 5.11142 4.77168)
(-4.23674e-12 5.16308 5.01053)
(-4.3581e-12 5.21379 5.24653)
(-2.26131e-12 5.26484 5.48593)
(-2.74068e-12 5.31614 5.72878)
(7.25295e-13 5.36665 5.97044)
(1.94436e-12 5.41583 6.20833)
(-2.96063e-12 5.46328 6.44076)
(-2.25636e-12 5.50998 6.67256)
(-3.13207e-12 5.55754 6.91269)
(-2.19012e-12 5.60448 7.1533)
(-2.73365e-12 5.64818 7.37846)
(-5.03302e-12 5.6885 7.5869)
(-5.0614e-12 5.72696 7.78687)
(-5.30107e-12 5.76432 7.98231)
(-5.28924e-12 5.80057 8.17273)
(-5.28436e-12 5.83601 8.35942)
(-1.8729e-12 5.87107 8.54402)
(-2.87969e-12 5.90723 8.72956)
(-5.49914e-12 5.94478 8.92087)
(-5.61145e-12 5.98274 9.11899)
(-5.4065e-12 6.02121 9.32022)
(-5.28077e-12 6.05962 9.51963)
(-4.82379e-12 6.09762 9.7135)
(-5.1009e-12 6.13494 9.89859)
(-5.03094e-12 6.17114 10.0738)
(-4.66486e-12 6.2056 10.2379)
(-5.51564e-12 6.23789 10.3867)
(-5.23474e-12 6.26706 10.5149)
(-4.8829e-12 6.29329 10.627)
(-3.16942e-12 6.319 10.7358)
(-3.65713e-12 6.34565 10.8477)
(-1.82929e-12 6.37216 10.9566)
(-3.04458e-12 6.39692 11.0551)
(-3.98242e-12 6.41923 11.1413)
(-1.69709e-12 6.43909 11.2179)
(-3.57546e-12 6.45689 11.2886)
(-4.03609e-12 6.47306 11.3552)
(-2.0085e-12 6.48745 11.4165)
(-3.42381e-12 6.49984 11.4721)
(-4.16559e-12 6.51007 11.5238)
(-9.22834e-13 6.51896 11.5764)
(-2.32174e-12 6.52718 11.6339)
(-3.05236e-12 6.53528 11.6986)
(-4.19914e-12 6.54295 11.7693)
(-3.06113e-12 6.55061 11.8505)
(-3.10815e-12 6.56007 11.9525)
(-2.39672e-12 6.57255 12.0768)
(-3.04153e-12 6.58823 12.2167)
(-4.07738e-12 6.60731 12.3682)
(-4.13127e-12 6.63005 12.5307)
(-4.09352e-12 6.657 12.7072)
(-4.05876e-12 6.68919 12.8982)
(-4.05243e-12 6.7257 13.0946)
(-3.96889e-12 6.76488 13.2897)
(-1.11008e-12 6.80657 13.4822)
(-3.06142e-12 6.85073 13.6658)
(-3.80655e-12 6.89554 13.8323)
(-1.45329e-12 6.9404 13.979)
(-2.80288e-12 6.9845 14.103)
(-3.47837e-12 7.02717 14.202)
(-1.18054e-12 7.06856 14.2768)
(-1.90778e-12 7.10924 14.3271)
(-3.42126e-12 7.14277 14.344)
(-4.15259e-12 7.16451 14.3247)
(-4.70782e-12 7.18063 14.2823)
(-4.84606e-12 7.19179 14.2222)
(-4.46574e-12 7.2001 14.1429)
(-2.40798e-12 7.20388 14.0421)
(-4.11087e-12 7.20509 13.9184)
(-4.63384e-12 7.2015 13.7655)
(-4.67138e-12 7.19007 13.5835)
(-4.72172e-12 7.16992 13.3812)
(-5.34559e-12 7.13813 13.158)
(-5.58834e-12 7.08467 12.9192)
(-4.83051e-12 6.98885 12.684)
(-3.15669e-12 6.80379 12.4742)
(-5.79983e-13 6.50606 12.3172)
(-2.75421e-12 6.09698 12.2548)
(-4.33736e-12 5.65759 12.3875)
(-4.70241e-12 5.56618 12.8617)
(-2.65327e-12 6.35083 13.7341)
(-3.19139e-12 8.52349 15.1273)
(-6.2949e-12 12.4822 17.2357)
(1.15115e-11 -4.81669 -43.5125)
(1.09678e-11 -4.33448 -35.8292)
(1.008e-11 -3.54884 -33.8771)
(9.48276e-12 -3.01308 -32.7324)
(8.9226e-12 -2.57459 -31.3175)
(8.37021e-12 -2.16211 -29.9277)
(7.8425e-12 -1.78015 -28.562)
(7.37323e-12 -1.42957 -27.2484)
(6.89705e-12 -1.09748 -25.9537)
(6.41933e-12 -0.771761 -24.6484)
(5.95343e-12 -0.460355 -23.3731)
(5.5146e-12 -0.174638 -22.1721)
(5.10742e-12 0.0843645 -21.0534)
(4.72214e-12 0.323724 -19.9994)
(4.3693e-12 0.549632 -18.9851)
(4.0421e-12 0.765162 -18.0016)
(4.10072e-12 0.970346 -17.0593)
(3.34272e-12 1.15459 -16.2086)
(3.2396e-12 1.31347 -15.4674)
(2.98921e-12 1.45813 -14.7839)
(2.04372e-12 1.60589 -14.0819)
(2.02801e-12 1.7669 -13.3225)
(1.74055e-12 1.93904 -12.5214)
(1.48847e-12 2.11403 -11.7167)
(1.19487e-12 2.28443 -10.9367)
(9.07793e-13 2.44641 -10.1907)
(6.68514e-13 2.60453 -9.48746)
(4.25949e-13 2.75194 -8.82459)
(2.40282e-14 2.89584 -8.17347)
(-3.57463e-13 3.04031 -7.51448)
(-7.7547e-13 3.18335 -6.859)
(-1.01209e-12 3.32064 -6.23357)
(-1.20409e-12 3.44563 -5.65986)
(-1.31852e-12 3.55824 -5.1409)
(-1.38967e-12 3.66354 -4.65454)
(-1.48353e-12 3.76653 -4.17928)
(2.01649e-13 3.86737 -3.71364)
(6.64318e-14 3.96826 -3.24716)
(-2.04353e-12 4.07135 -2.77071)
(-1.54565e-13 4.17438 -2.29522)
(-3.41972e-13 4.27209 -1.84419)
(-2.49944e-12 4.35837 -1.44518)
(-2.57385e-12 4.43262 -1.10117)
(-2.5855e-12 4.50067 -0.786204)
(-2.75446e-12 4.56824 -0.471199)
(-2.69928e-12 4.64165 -0.131158)
(-3.80818e-14 4.72285 0.243089)
(-9.35244e-13 4.80831 0.633889)
(-3.30953e-12 4.89299 1.01914)
(-3.30149e-12 4.97481 1.39383)
(-3.30744e-12 5.05481 1.75937)
(-3.34853e-12 5.132 2.11162)
(-3.44726e-12 5.20531 2.44656)
(-3.65223e-12 5.27404 2.761)
(-1.23022e-12 5.33882 3.05743)
(-1.66145e-12 5.40154 3.34428)
(-3.95876e-12 5.46308 3.62585)
(-4.08833e-12 5.52384 3.90386)
(-4.2982e-12 5.58505 4.18356)
(-1.79221e-12 5.64729 4.4676)
(-2.2754e-12 5.70918 4.75048)
(-4.53463e-12 5.76932 5.02683)
(-1.17267e-12 5.82845 5.30012)
(-2.41928e-12 5.88807 5.57734)
(-5.29619e-12 5.94805 5.85843)
(-2.63122e-12 6.00716 6.13807)
(-3.23216e-12 6.06478 6.41324)
(-5.39853e-12 6.12047 6.68206)
(-1.86351e-12 6.17544 6.95014)
(-2.78498e-12 6.2317 7.22771)