/*--------------------------------*- C++ -*----------------------------------*\
| =========                 |                                                 |
| \\      /  F ield         | OpenFOAM: The Open Source CFD Toolbox           |
|  \\    /   O peration     | Version:  2212                                  |
|   \\  /    A nd           | Website:  www.openfoam.com                      |
|    \\/     M anipulation  |                                                 |
\*---------------------------------------------------------------------------*/
FoamFile
{
    version     2.0;
    format      ascii;
    arch        "LSB;label=32;scalar=64";
    class       volVectorField;
    location    "0.436";
    object      U;
}
// * * * * * * * * * * * * * * * * * * * * * * * * * * * * * * * * * * * * * //

dimensions      [0 1 -1 0 0 0 0];

internalField   nonuniform List<vector> 
24240
(
(9.02713 0.767861 6.26408e-07)
(9.02741 0.767885 -1.21205e-06)
(9.02741 0.767883 -3.29966e-07)
(9.02741 0.767882 -9.05514e-07)
(9.02741 0.767879 -6.29682e-07)
(9.02741 0.767877 -8.5593e-07)
(9.02741 0.767873 -7.82681e-07)
(9.02742 0.76787 -8.91945e-07)
(9.02742 0.767867 -8.81937e-07)
(9.02742 0.767864 -9.14831e-07)
(9.02742 0.76786 -8.7883e-07)
(9.02743 0.767857 -8.80458e-07)
(9.02743 0.767855 -7.76216e-07)
(9.02743 0.767852 -7.55221e-07)
(9.02743 0.76785 -5.25177e-07)
(9.02743 0.767848 -5.56117e-07)
(9.02743 0.767847 -4.90843e-08)
(9.02743 0.767845 -3.82405e-07)
(9.02744 0.767845 7.69096e-07)
(9.02716 0.767819 -8.14166e-07)
(9.02599 0.770576 -1.45658e-06)
(9.02628 0.770602 -2.53084e-06)
(9.02628 0.770603 -3.30361e-06)
(9.02628 0.770605 -4.47227e-06)
(9.02628 0.770607 -5.14146e-06)
(9.02628 0.77061 -5.91678e-06)
(9.02628 0.770613 -6.32652e-06)
(9.02628 0.770616 -6.66289e-06)
(9.02628 0.77062 -6.73417e-06)
(9.02628 0.770624 -6.68442e-06)
(9.02629 0.770627 -6.42253e-06)
(9.02629 0.77063 -6.06746e-06)
(9.02629 0.770634 -5.52898e-06)
(9.02629 0.770636 -4.9749e-06)
(9.02629 0.770639 -4.22217e-06)
(9.02629 0.770641 -3.58936e-06)
(9.02629 0.770643 -2.60619e-06)
(9.02629 0.770645 -1.93592e-06)
(9.02629 0.770646 -6.4195e-07)
(9.02601 0.770621 3.95971e-07)
(9.0505 0.548736 -3.64003e-07)
(9.05078 0.548755 8.14434e-07)
(9.05078 0.548755 1.98699e-06)
(9.05078 0.548755 2.74267e-06)
(9.05078 0.548755 3.84111e-06)
(9.05078 0.548755 4.37841e-06)
(9.05078 0.548754 4.93272e-06)
(9.05078 0.548754 5.17807e-06)
(9.05078 0.548754 5.33693e-06)
(9.05078 0.548754 5.28907e-06)
(9.05078 0.548754 5.15173e-06)
(9.05078 0.548753 4.85407e-06)
(9.05078 0.548753 4.5224e-06)
(9.05078 0.548753 4.04421e-06)
(9.05078 0.548753 3.66425e-06)
(9.05078 0.548752 3.05723e-06)
(9.05078 0.548752 2.85957e-06)
(9.05078 0.548752 2.14143e-06)
(9.05078 0.548752 1.74957e-06)
(9.05049 0.548733 1.22031e-06)
(9.02658 0.543684 -1.19091e-06)
(9.02686 0.543703 -2.4676e-06)
(9.02686 0.543703 -3.26082e-06)
(9.02686 0.543703 -4.41142e-06)
(9.02686 0.543703 -5.38351e-06)
(9.02686 0.543704 -6.17655e-06)
(9.02686 0.543705 -6.69456e-06)
(9.02686 0.543706 -7.05806e-06)
(9.02686 0.543706 -7.17071e-06)
(9.02686 0.543707 -7.12743e-06)
(9.02686 0.543708 -6.87544e-06)
(9.02686 0.543709 -6.49964e-06)
(9.02686 0.54371 -5.95214e-06)
(9.02686 0.54371 -5.34974e-06)
(9.02686 0.543711 -4.60417e-06)
(9.02686 0.543711 -3.88461e-06)
(9.02686 0.543712 -3.08289e-06)
(9.02686 0.543713 -2.27485e-06)
(9.02686 0.543713 -8.91009e-07)
(9.02657 0.543695 7.14507e-08)
(9.04776 0.344573 -1.17847e-08)
(9.04805 0.344585 1.28384e-06)
(9.04805 0.344586 2.84411e-06)
(9.04804 0.344587 3.8949e-06)
(9.04804 0.344588 4.83517e-06)
(9.04804 0.344589 5.551e-06)
(9.04804 0.34459 6.14716e-06)
(9.04804 0.344592 6.48175e-06)
(9.04804 0.344593 6.66754e-06)
(9.04804 0.344595 6.62732e-06)
(9.04803 0.344596 6.45599e-06)
(9.04803 0.344598 6.1013e-06)
(9.04803 0.344599 5.67037e-06)
(9.04803 0.3446 5.0912e-06)
(9.04803 0.344601 4.51567e-06)
(9.04803 0.344602 3.79662e-06)
(9.04803 0.344603 3.11728e-06)
(9.04803 0.344603 2.31137e-06)
(9.04803 0.344603 1.92059e-06)
(9.04774 0.344591 1.10475e-06)
(9.02968 0.335665 -8.57647e-07)
(9.02997 0.335677 -1.68385e-06)
(9.02997 0.335676 -2.24615e-06)
(9.02996 0.335674 -2.95339e-06)
(9.02996 0.335673 -3.40575e-06)
(9.02996 0.335671 -3.89198e-06)
(9.02996 0.335669 -4.18188e-06)
(9.02996 0.335667 -4.40953e-06)
(9.02996 0.335665 -4.46878e-06)
(9.02996 0.335663 -4.44623e-06)
(9.02996 0.33566 -4.28025e-06)
(9.02996 0.335658 -4.04991e-06)
(9.02996 0.335656 -3.69385e-06)
(9.02995 0.335655 -3.31829e-06)
(9.02995 0.335653 -2.81303e-06)
(9.02995 0.335652 -2.35882e-06)
(9.02995 0.335651 -1.69569e-06)
(9.02995 0.33565 -1.19757e-06)
(9.02995 0.33565 -4.1078e-07)
(9.02967 0.335638 1.57999e-07)
(9.04068 0.155162 -3.18393e-07)
(9.04096 0.155168 2.40494e-07)
(9.04096 0.155169 1.05734e-06)
(9.04096 0.15517 1.50719e-06)
(9.04096 0.155172 1.94063e-06)
(9.04096 0.155173 2.25069e-06)
(9.04096 0.155175 2.532e-06)
(9.04096 0.155177 2.68256e-06)
(9.04096 0.15518 2.78876e-06)
(9.04096 0.155182 2.78116e-06)
(9.04096 0.155184 2.7351e-06)
(9.04095 0.155186 2.591e-06)
(9.04095 0.155188 2.43477e-06)
(9.04095 0.15519 2.18995e-06)
(9.04095 0.155192 1.97451e-06)
(9.04095 0.155193 1.66571e-06)
(9.04095 0.155194 1.42224e-06)
(9.04095 0.155195 1.07446e-06)
(9.04095 0.155195 1.07603e-06)
(9.04066 0.15519 7.58174e-07)
(9.03561 0.141785 -4.84657e-07)
(9.0359 0.141789 -6.04837e-07)
(9.0359 0.141788 -5.18516e-07)
(9.0359 0.141786 -6.01999e-07)
(9.0359 0.141784 -5.24029e-07)
(9.03589 0.141782 -5.70997e-07)
(9.03589 0.141779 -5.33861e-07)
(9.03589 0.141777 -5.45737e-07)
(9.03589 0.141774 -5.04395e-07)
(9.03589 0.141771 -4.87105e-07)
(9.03589 0.141768 -4.25482e-07)
(9.03588 0.141766 -3.88254e-07)
(9.03588 0.141763 -2.97811e-07)
(9.03588 0.141761 -2.48189e-07)
(9.03588 0.141759 -1.1594e-07)
(9.03588 0.141757 -6.69892e-08)
(9.03588 0.141756 1.47781e-07)
(9.03588 0.141755 1.71042e-07)
(9.03588 0.141754 3.98974e-07)
(9.03559 0.14175 4.12056e-07)
(9.03772 -0.0266802 -6.94945e-07)
(9.03801 -0.0266811 -1.06008e-06)
(9.03801 -0.0266799 -1.17303e-06)
(9.03801 -0.026678 -1.48067e-06)
(9.03801 -0.0266757 -1.64467e-06)
(9.03801 -0.026673 -1.8572e-06)
(9.03801 -0.02667 -1.95882e-06)
(9.03801 -0.0266668 -2.0571e-06)
(9.03801 -0.0266634 -2.06253e-06)
(9.03801 -0.02666 -2.04755e-06)
(9.03801 -0.0266566 -1.95202e-06)
(9.03801 -0.0266534 -1.84393e-06)
(9.03801 -0.0266504 -1.65828e-06)
(9.03801 -0.0266476 -1.48593e-06)
(9.03801 -0.0266452 -1.22232e-06)
(9.03801 -0.0266432 -1.01504e-06)
(9.038 -0.0266415 -6.61975e-07)
(9.038 -0.0266404 -4.41804e-07)
(9.03801 -0.0266395 7.78054e-08)
(9.03772 -0.0266375 3.68744e-07)
(9.04891 -0.0424031 -4.66397e-08)
(9.0492 -0.0424063 9.09632e-07)
(9.04919 -0.0424076 2.06927e-06)
(9.04919 -0.0424098 2.89301e-06)
(9.04919 -0.0424123 3.71061e-06)
(9.04919 -0.0424153 4.30737e-06)
(9.04919 -0.0424187 4.81319e-06)
(9.04919 -0.0424223 5.11996e-06)
(9.04918 -0.0424261 5.30714e-06)
(9.04918 -0.0424299 5.31288e-06)
(9.04918 -0.0424337 5.20922e-06)
(9.04918 -0.0424373 4.9499e-06)
(9.04917 -0.0424406 4.62195e-06)
(9.04917 -0.0424437 4.17095e-06)
(9.04917 -0.0424463 3.71531e-06)
(9.04917 -0.0424486 3.15247e-06)
(9.04916 -0.0424504 2.66017e-06)
(9.04916 -0.0424516 2.0161e-06)
(9.04916 -0.0424526 1.57841e-06)
(9.04888 -0.0424505 8.55037e-07)
(9.04217 -0.212288 -1.20006e-06)
(9.04246 -0.212296 -2.79782e-06)
(9.04246 -0.212295 -4.09441e-06)
(9.04246 -0.212293 -5.42011e-06)
(9.04246 -0.212291 -6.4038e-06)
(9.04246 -0.212289 -7.32727e-06)
(9.04246 -0.212287 -7.9556e-06)
(9.04246 -0.212284 -8.4035e-06)
(9.04246 -0.212281 -8.57406e-06)
(9.04246 -0.212279 -8.53905e-06)
(9.04246 -0.212276 -8.25591e-06)
(9.04246 -0.212273 -7.80145e-06)
(9.04246 -0.212271 -7.14235e-06)
(9.04246 -0.212268 -6.38561e-06)
(9.04246 -0.212266 -5.45486e-06)
(9.04246 -0.212265 -4.53195e-06)
(9.04246 -0.212263 -3.38116e-06)
(9.04246 -0.212262 -2.39082e-06)
(9.04246 -0.212262 -1.14624e-06)
(9.04218 -0.212253 -1.12194e-07)
(9.07089 -0.225059 3.2177e-07)
(9.07118 -0.225069 2.12486e-06)
(9.07118 -0.22507 4.16279e-06)
(9.07117 -0.225072 5.71779e-06)
(9.07117 -0.225074 7.10386e-06)
(9.07117 -0.225076 8.21967e-06)
(9.07117 -0.225078 9.1053e-06)
(9.07116 -0.225081 9.67878e-06)
(9.07116 -0.225084 9.99549e-06)
(9.07116 -0.225086 1.00045e-05)
(9.07116 -0.225089 9.77849e-06)
(9.07115 -0.225092 9.28806e-06)
(9.07115 -0.225094 8.6283e-06)
(9.07115 -0.225097 7.77498e-06)
(9.07114 -0.225099 6.83995e-06)
(9.07114 -0.2251 5.77679e-06)
(9.07114 -0.225102 4.68786e-06)
(9.07114 -0.225102 3.49306e-06)
(9.07114 -0.225103 2.54679e-06)
(9.07085 -0.225094 1.22019e-06)
(9.05461 -0.408969 -1.62146e-06)
(9.05489 -0.408985 -4.07689e-06)
(9.05489 -0.408984 -6.24555e-06)
(9.05489 -0.408983 -8.31175e-06)
(9.05489 -0.408982 -9.84996e-06)
(9.05489 -0.40898 -1.13063e-05)
(9.0549 -0.408979 -1.23279e-05)
(9.0549 -0.408977 -1.305e-05)
(9.0549 -0.408975 -1.33579e-05)
(9.0549 -0.408973 -1.33251e-05)
(9.0549 -0.408971 -1.29186e-05)
(9.0549 -0.40897 -1.22232e-05)
(9.0549 -0.408968 -1.12269e-05)
(9.0549 -0.408967 -1.00509e-05)
(9.0549 -0.408965 -8.63288e-06)
(9.0549 -0.408964 -7.18789e-06)
(9.0549 -0.408964 -5.40053e-06)
(9.05491 -0.408963 -3.83674e-06)
(9.05491 -0.408963 -2.0519e-06)
(9.05462 -0.408946 -4.19766e-07)
(9.09743 -0.416936 5.47093e-07)
(9.09771 -0.416953 2.90449e-06)
(9.09771 -0.416953 5.56924e-06)
(9.09771 -0.416955 7.58351e-06)
(9.09771 -0.416956 9.27804e-06)
(9.09771 -0.416957 1.07153e-05)
(9.0977 -0.416959 1.18435e-05)
(9.0977 -0.41696 1.25844e-05)
(9.0977 -0.416962 1.29882e-05)
(9.09769 -0.416963 1.29951e-05)
(9.09769 -0.416965 1.26899e-05)
(9.09769 -0.416967 1.20442e-05)
(9.09769 -0.416968 1.11704e-05)
(9.09768 -0.416969 1.00526e-05)
(9.09768 -0.416971 8.80946e-06)
(9.09768 -0.416972 7.42105e-06)
(9.09767 -0.416972 5.90575e-06)
(9.09767 -0.416972 4.36254e-06)
(9.09767 -0.416973 3.17243e-06)
(9.09739 -0.416957 1.46962e-06)
(9.07089 -0.624301 -1.87925e-06)
(9.07118 -0.624324 -4.79786e-06)
(9.07118 -0.624324 -7.45678e-06)
(9.07118 -0.624323 -9.96589e-06)
(9.07118 -0.624323 -1.18404e-05)
(9.07118 -0.624323 -1.36383e-05)
(9.07118 -0.624323 -1.49204e-05)
(9.07118 -0.624322 -1.5824e-05)
(9.07118 -0.624322 -1.62227e-05)
(9.07119 -0.624322 -1.6199e-05)
(9.07119 -0.624322 -1.57194e-05)
(9.07119 -0.624322 -1.48839e-05)
(9.07119 -0.624322 -1.36891e-05)
(9.07119 -0.624321 -1.22716e-05)
(9.07119 -0.624321 -1.05853e-05)
(9.07119 -0.624321 -8.84718e-06)
(9.07119 -0.624321 -6.68706e-06)
(9.07119 -0.624322 -4.78205e-06)
(9.0712 -0.624322 -2.62106e-06)
(9.07091 -0.624299 -5.88046e-07)
(9.11961 -0.626339 5.32827e-07)
(9.1199 -0.626362 3.0309e-06)
(9.1199 -0.626361 5.87953e-06)
(9.11989 -0.626362 7.91767e-06)
(9.11989 -0.626362 9.54305e-06)
(9.11989 -0.626362 1.09878e-05)
(9.11989 -0.626362 1.21569e-05)
(9.11989 -0.626361 1.28963e-05)
(9.11989 -0.626361 1.33117e-05)
(9.11988 -0.626361 1.32957e-05)
(9.11988 -0.626361 1.29722e-05)
(9.11988 -0.62636 1.22845e-05)
(9.11988 -0.62636 1.13838e-05)
(9.11987 -0.62636 1.02186e-05)
(9.11987 -0.62636 8.95947e-06)
(9.11987 -0.62636 7.525e-06)
(9.11987 -0.62636 5.881e-06)
(9.11987 -0.626358 4.2996e-06)
(9.11987 -0.626358 3.22946e-06)
(9.11958 -0.626335 1.54948e-06)
(9.08211 -0.863109 -1.79099e-06)
(9.0824 -0.86314 -4.54813e-06)
(9.0824 -0.86314 -6.55604e-06)
(9.0824 -0.863141 -9.06393e-06)
(9.0824 -0.863142 -1.15203e-05)
(9.0824 -0.863144 -1.33489e-05)
(9.0824 -0.863147 -1.47042e-05)
(9.0824 -0.863149 -1.5618e-05)
(9.0824 -0.863152 -1.60103e-05)
(9.0824 -0.863155 -1.59865e-05)
(9.08241 -0.863157 -1.5492e-05)
(9.08241 -0.86316 -1.46582e-05)
(9.08241 -0.863162 -1.34643e-05)
(9.08241 -0.863165 -1.20705e-05)
(9.08241 -0.863167 -1.04834e-05)
(9.08241 -0.863168 -8.80976e-06)
(9.08241 -0.86317 -7.28363e-06)
(9.08241 -0.863172 -5.40055e-06)
(9.08242 -0.863173 -2.63928e-06)
(9.08213 -0.863143 -6.01664e-07)
(9.12566 -0.857571 2.69477e-08)
(9.12594 -0.8576 2.00687e-06)
(9.12594 -0.857599 3.38775e-06)
(9.12594 -0.857598 4.58548e-06)
(9.12594 -0.857596 6.30164e-06)
(9.12594 -0.857594 7.18488e-06)
(9.12594 -0.857592 8.0992e-06)
(9.12594 -0.857589 8.54214e-06)
(9.12594 -0.857586 8.84275e-06)
(9.12594 -0.857584 8.78562e-06)
(9.12594 -0.857581 8.5676e-06)
(9.12594 -0.857578 8.06144e-06)
(9.12594 -0.857576 7.48305e-06)
(9.12594 -0.857573 6.66433e-06)
(9.12594 -0.857571 5.97041e-06)
(9.12594 -0.85757 4.9677e-06)
(9.12594 -0.857568 4.5467e-06)
(9.12594 -0.857567 3.37604e-06)
(9.12594 -0.857566 2.19995e-06)
(9.12566 -0.857537 1.36411e-06)
(9.07687 -1.12754 -1.41265e-06)
(9.07716 -1.12758 -3.00338e-06)
(9.07716 -1.12758 -4.89169e-06)
(9.07716 -1.12759 -6.94134e-06)
(9.07716 -1.12759 -8.36214e-06)
(9.07716 -1.1276 -9.76375e-06)
(9.07716 -1.1276 -1.06453e-05)
(9.07716 -1.12761 -1.13264e-05)
(9.07717 -1.12762 -1.15578e-05)
(9.07717 -1.12762 -1.15393e-05)
(9.07717 -1.12763 -1.11345e-05)
(9.07717 -1.12764 -1.05261e-05)
(9.07717 -1.12764 -9.60361e-06)
(9.07717 -1.12765 -8.60865e-06)
(9.07718 -1.12765 -7.35967e-06)
(9.07718 -1.12766 -6.22344e-06)
(9.07718 -1.12766 -4.76347e-06)
(9.07718 -1.12766 -3.61213e-06)
(9.07718 -1.12767 -2.09464e-06)
(9.07689 -1.12763 -3.3252e-07)
(9.10032 -1.11081 2.49143e-06)
(9.10057 -1.11084 -1.49737e-07)
(9.10056 -1.11084 -4.46305e-07)
(9.10056 -1.11084 -1.68932e-06)
(9.10057 -1.11083 -1.75284e-06)
(9.10057 -1.11083 -2.25609e-06)
(9.10057 -1.11082 -2.31819e-06)
(9.10058 -1.11082 -2.53465e-06)
(9.10058 -1.11081 -2.52789e-06)
(9.10059 -1.11081 -2.57037e-06)
(9.10059 -1.1108 -2.45278e-06)
(9.10059 -1.1108 -2.37508e-06)
(9.1006 -1.11079 -2.12973e-06)
(9.1006 -1.11079 -1.99478e-06)
(9.1006 -1.11078 -1.60446e-06)
(9.10061 -1.11078 -1.55285e-06)
(9.10061 -1.11078 -9.78142e-07)
(9.10061 -1.11078 -1.4885e-06)
(9.10062 -1.11078 -1.04745e-06)
(9.10037 -1.11075 -2.9891e-06)
(8.75756 0.75614 1.38523e-07)
(8.75783 0.756165 -1.65803e-06)
(8.75783 0.756163 -1.19618e-06)
(8.75783 0.756162 -1.90521e-06)
(8.75783 0.75616 -1.76308e-06)
(8.75783 0.756157 -2.09978e-06)
(8.75783 0.756154 -2.08942e-06)
(8.75783 0.756152 -2.24835e-06)
(8.75783 0.756149 -2.22196e-06)
(8.75783 0.756146 -2.24399e-06)
(8.75783 0.756143 -2.13268e-06)
(8.75783 0.75614 -2.06077e-06)
(8.75783 0.756137 -1.83606e-06)
(8.75783 0.756135 -1.70859e-06)
(8.75784 0.756133 -1.31841e-06)
(8.75784 0.756131 -1.21286e-06)
(8.75784 0.75613 -5.13965e-07)
(8.75784 0.756129 -6.35126e-07)
(8.75784 0.756128 5.19567e-07)
(8.75757 0.756103 -5.60299e-07)
(8.78382 0.757975 -1.57893e-06)
(8.7841 0.758002 -2.86165e-06)
(8.7841 0.758003 -3.80416e-06)
(8.7841 0.758006 -5.08395e-06)
(8.7841 0.758009 -5.83271e-06)
(8.7841 0.758013 -6.70171e-06)
(8.7841 0.758018 -7.16635e-06)
(8.7841 0.758023 -7.56422e-06)
(8.7841 0.758028 -7.64735e-06)
(8.7841 0.758033 -7.61521e-06)
(8.7841 0.758038 -7.32946e-06)
(8.7841 0.758043 -6.95458e-06)
(8.7841 0.758047 -6.35096e-06)
(8.7841 0.758051 -5.74329e-06)
(8.7841 0.758055 -4.88365e-06)
(8.7841 0.758058 -4.15914e-06)
(8.7841 0.758061 -3.01621e-06)
(8.7841 0.758063 -2.20332e-06)
(8.7841 0.758065 -7.82485e-07)
(8.78382 0.75804 3.60667e-07)
(8.8028 0.552008 -2.62441e-07)
(8.80308 0.552026 1.09251e-06)
(8.80308 0.552026 2.28596e-06)
(8.80308 0.552027 3.2602e-06)
(8.80308 0.552027 4.66453e-06)
(8.80308 0.552027 5.35679e-06)
(8.80308 0.552028 6.07741e-06)
(8.80308 0.552028 6.41057e-06)
(8.80308 0.552029 6.64326e-06)
(8.80308 0.552029 6.61292e-06)
(8.80308 0.55203 6.47974e-06)
(8.80308 0.55203 6.14124e-06)
(8.80308 0.55203 5.76765e-06)
(8.80308 0.552031 5.20094e-06)
(8.80308 0.552031 4.76304e-06)
(8.80307 0.552031 4.0287e-06)
(8.80307 0.552031 3.82043e-06)
(8.80307 0.552031 2.93161e-06)
(8.80307 0.552032 2.18439e-06)
(8.8028 0.552013 1.38335e-06)
(8.80046 0.54562 -1.10958e-06)
(8.80074 0.545639 -2.37184e-06)
(8.80074 0.545639 -3.12713e-06)
(8.80074 0.545639 -4.23619e-06)
(8.80074 0.545639 -5.21902e-06)
(8.80074 0.54564 -5.98574e-06)
(8.80073 0.54564 -6.47566e-06)
(8.80073 0.545641 -6.83036e-06)
(8.80073 0.545642 -6.92802e-06)
(8.80073 0.545643 -6.89445e-06)
(8.80073 0.545644 -6.64674e-06)
(8.80073 0.545645 -6.2996e-06)
(8.80073 0.545645 -5.77349e-06)
(8.80073 0.545646 -5.21231e-06)
(8.80073 0.545647 -4.49685e-06)
(8.80073 0.545647 -3.81786e-06)
(8.80073 0.545648 -3.08507e-06)
(8.80073 0.545649 -2.28935e-06)
(8.80073 0.545649 -9.21303e-07)
(8.80045 0.545631 3.82166e-09)
(8.81943 0.349212 1.32385e-07)
(8.81971 0.349224 1.60518e-06)
(8.81971 0.349225 3.26784e-06)
(8.81971 0.349227 4.51221e-06)
(8.81971 0.349228 5.62183e-06)
(8.81971 0.34923 6.49084e-06)
(8.81971 0.349232 7.23599e-06)
(8.81971 0.349234 7.66963e-06)
(8.81971 0.349236 7.94417e-06)
(8.81971 0.349238 7.94302e-06)
(8.81971 0.34924 7.80162e-06)
(8.81971 0.349242 7.42871e-06)
(8.81971 0.349244 6.97682e-06)
(8.81971 0.349246 6.32261e-06)
(8.81971 0.349247 5.67742e-06)
(8.81971 0.349249 4.82407e-06)
(8.81971 0.34925 3.99695e-06)
(8.81971 0.34925 2.98048e-06)
(8.81971 0.349251 2.31956e-06)
(8.81943 0.34924 1.2365e-06)
(8.81855 0.339496 -7.01839e-07)
(8.81883 0.339506 -1.31562e-06)
(8.81883 0.339505 -1.77038e-06)
(8.81883 0.339504 -2.27533e-06)
(8.81882 0.339502 -2.50915e-06)
(8.81882 0.3395 -2.84193e-06)
(8.81882 0.339498 -2.98948e-06)
(8.81882 0.339496 -3.13207e-06)
(8.81882 0.339494 -3.12555e-06)
(8.81882 0.339492 -3.09078e-06)
(8.81882 0.33949 -2.92998e-06)
(8.81882 0.339488 -2.75695e-06)
(8.81881 0.339486 -2.46809e-06)
(8.81881 0.339484 -2.2063e-06)
(8.81881 0.339483 -1.80628e-06)
(8.81881 0.339481 -1.50552e-06)
(8.81881 0.33948 -9.54508e-07)
(8.81881 0.33948 -6.34822e-07)
(8.81881 0.339479 -1.33606e-07)
(8.81853 0.339468 2.17975e-07)
(8.82766 0.152419 -1.66601e-07)
(8.82793 0.152424 5.58107e-07)
(8.82793 0.152425 1.44969e-06)
(8.82793 0.152426 2.07726e-06)
(8.82793 0.152428 2.67959e-06)
(8.82793 0.15243 3.13617e-06)
(8.82793 0.152432 3.55939e-06)
(8.82793 0.152435 3.80916e-06)
(8.82793 0.152437 4.00445e-06)
(8.82793 0.15244 4.03836e-06)
(8.82793 0.152443 4.02371e-06)
(8.82793 0.152445 3.86179e-06)
(8.82793 0.152447 3.67975e-06)
(8.82793 0.15245 3.3572e-06)
(8.82793 0.152452 3.06306e-06)
(8.82793 0.152453 2.61743e-06)
(8.82793 0.152455 2.23155e-06)
(8.82793 0.152456 1.68314e-06)
(8.82793 0.152456 1.38918e-06)
(8.82765 0.152452 8.21018e-07)
(8.83244 0.138807 -2.86514e-07)
(8.83272 0.13881 -1.02904e-07)
(8.83272 0.138809 1.56863e-07)
(8.83272 0.138807 3.66327e-07)
(8.83272 0.138805 7.53902e-07)
(8.83272 0.138803 9.38934e-07)
(8.83272 0.1388 1.18891e-06)
(8.83272 0.138798 1.3199e-06)
(8.83272 0.138795 1.47365e-06)
(8.83271 0.138792 1.53626e-06)
(8.83271 0.138789 1.61417e-06)
(8.83271 0.138786 1.6038e-06)
(8.83271 0.138783 1.62496e-06)
(8.83271 0.138781 1.54515e-06)
(8.83271 0.138779 1.54193e-06)
(8.83271 0.138777 1.38702e-06)
(8.83271 0.138776 1.41681e-06)
(8.83271 0.138775 1.15402e-06)
(8.83271 0.138774 9.34253e-07)
(8.83243 0.138769 5.56644e-07)
(8.83337 -0.0415159 -5.77241e-07)
(8.83365 -0.0415173 -8.23131e-07)
(8.83365 -0.0415162 -9.36118e-07)
(8.83365 -0.0415141 -1.11761e-06)
(8.83364 -0.0415118 -1.12595e-06)
(8.83364 -0.0415092 -1.23037e-06)
(8.83364 -0.0415062 -1.21438e-06)
(8.83364 -0.0415029 -1.23862e-06)
(8.83364 -0.0414995 -1.17254e-06)
(8.83364 -0.041496 -1.12715e-06)
(8.83364 -0.0414926 -1.0088e-06)
(8.83364 -0.0414892 -9.21214e-07)
(8.83364 -0.041486 -7.58507e-07)
(8.83364 -0.0414831 -6.55373e-07)
(8.83364 -0.0414804 -4.53018e-07)
(8.83364 -0.0414781 -3.55968e-07)
(8.83364 -0.0414761 -8.80992e-08)
(8.83363 -0.0414749 -2.56787e-09)
(8.83363 -0.0414738 2.27755e-07)
(8.83335 -0.0414713 3.38614e-07)
(8.84392 -0.0561213 1.77284e-07)
(8.8442 -0.0561249 1.41686e-06)
(8.8442 -0.0561262 2.7492e-06)
(8.8442 -0.0561284 3.88378e-06)
(8.8442 -0.0561307 5.00824e-06)
(8.8442 -0.0561335 5.86437e-06)
(8.8442 -0.0561367 6.61234e-06)
(8.8442 -0.0561401 7.10288e-06)
(8.8442 -0.0561436 7.44691e-06)
(8.8442 -0.0561472 7.55245e-06)
(8.8442 -0.0561508 7.52121e-06)
(8.8442 -0.0561542 7.27806e-06)
(8.8442 -0.0561575 6.93964e-06)
(8.8442 -0.0561605 6.41872e-06)
(8.8442 -0.0561631 5.86175e-06)
(8.8442 -0.0561654 5.11327e-06)
(8.8442 -0.0561672 4.3921e-06)
(8.8442 -0.0561683 3.39861e-06)
(8.8442 -0.0561693 2.40405e-06)
(8.84392 -0.0561668 1.09422e-06)
(8.8381 -0.239175 -1.05228e-06)
(8.83838 -0.239184 -2.44844e-06)
(8.83838 -0.239183 -3.70574e-06)
(8.83838 -0.239181 -4.85071e-06)
(8.83838 -0.23918 -5.5975e-06)
(8.83838 -0.239177 -6.3823e-06)
(8.83837 -0.239175 -6.87215e-06)
(8.83837 -0.239173 -7.24925e-06)
(8.83837 -0.23917 -7.36851e-06)
(8.83837 -0.239167 -7.34021e-06)
(8.83837 -0.239164 -7.08707e-06)
(8.83836 -0.239162 -6.71568e-06)
(8.83836 -0.239159 -6.15322e-06)
(8.83836 -0.239157 -5.53504e-06)
(8.83836 -0.239155 -4.72517e-06)
(8.83836 -0.239153 -3.95387e-06)
(8.83836 -0.239151 -2.88131e-06)
(8.83836 -0.23915 -2.01463e-06)
(8.83836 -0.239149 -1.06918e-06)
(8.83808 -0.23914 -1.71512e-07)
(8.85535 -0.249969 5.60771e-07)
(8.85563 -0.249979 2.60142e-06)
(8.85563 -0.24998 4.80643e-06)
(8.85563 -0.249983 6.65953e-06)
(8.85563 -0.249985 8.32349e-06)
(8.85563 -0.249987 9.70507e-06)
(8.85563 -0.24999 1.08442e-05)
(8.85564 -0.249993 1.1633e-05)
(8.85564 -0.249996 1.21449e-05)
(8.85564 -0.249999 1.23058e-05)
(8.85564 -0.250003 1.22096e-05)
(8.85564 -0.250006 1.18033e-05)
(8.85564 -0.250009 1.11981e-05)
(8.85564 -0.250011 1.03418e-05)
(8.85564 -0.250014 9.34577e-06)
(8.85564 -0.250016 8.12721e-06)
(8.85564 -0.250018 6.77366e-06)
(8.85563 -0.250018 5.18e-06)
(8.85563 -0.250019 3.61068e-06)
(8.85535 -0.25001 1.53438e-06)
(8.84091 -0.443791 -1.53318e-06)
(8.84119 -0.443806 -3.89619e-06)
(8.84119 -0.443806 -6.17032e-06)
(8.84118 -0.443804 -8.16565e-06)
(8.84118 -0.443803 -9.53256e-06)
(8.84118 -0.443802 -1.09401e-05)
(8.84118 -0.4438 -1.18992e-05)
(8.84118 -0.443799 -1.26154e-05)
(8.84117 -0.443797 -1.29232e-05)
(8.84117 -0.443795 -1.2932e-05)
(8.84117 -0.443793 -1.25765e-05)
(8.84117 -0.443792 -1.19683e-05)
(8.84117 -0.44379 -1.10592e-05)
(8.84116 -0.443789 -9.98918e-06)
(8.84116 -0.443787 -8.64468e-06)
(8.84116 -0.443786 -7.27138e-06)
(8.84116 -0.443785 -5.43165e-06)
(8.84116 -0.443785 -3.8602e-06)
(8.84116 -0.443784 -2.24381e-06)
(8.84088 -0.443768 -5.68971e-07)
(8.86273 -0.449229 8.09657e-07)
(8.86301 -0.449246 3.387e-06)
(8.86301 -0.449247 6.2342e-06)
(8.86301 -0.449249 8.556e-06)
(8.86301 -0.44925 1.05066e-05)
(8.86301 -0.449252 1.2218e-05)
(8.86301 -0.449254 1.3612e-05)
(8.86301 -0.449256 1.45874e-05)
(8.86301 -0.449258 1.52093e-05)
(8.86301 -0.44926 1.53951e-05)
(8.86301 -0.449263 1.525e-05)
(8.86301 -0.449265 1.47229e-05)
(8.86301 -0.449267 1.39384e-05)
(8.86301 -0.449269 1.28522e-05)
(8.86301 -0.44927 1.15715e-05)
(8.86301 -0.449272 1.00404e-05)
(8.86301 -0.449273 8.22876e-06)
(8.86301 -0.449273 6.24941e-06)
(8.86301 -0.449273 4.40627e-06)
(8.86273 -0.449257 1.84671e-06)
(8.83853 -0.658252 -1.86372e-06)
(8.8388 -0.658275 -4.84029e-06)
(8.8388 -0.658275 -7.72655e-06)
(8.8388 -0.658274 -1.02993e-05)
(8.8388 -0.658274 -1.21468e-05)
(8.8388 -0.658274 -1.40063e-05)
(8.8388 -0.658274 -1.53267e-05)
(8.83879 -0.658274 -1.62944e-05)
(8.83879 -0.658274 -1.6742e-05)
(8.83879 -0.658274 -1.67847e-05)
(8.83879 -0.658274 -1.63591e-05)
(8.83879 -0.658274 -1.5593e-05)
(8.83878 -0.658274 -1.44504e-05)
(8.83878 -0.658275 -1.30823e-05)
(8.83878 -0.658275 -1.14063e-05)
(8.83878 -0.658275 -9.6406e-06)
(8.83878 -0.658275 -7.33056e-06)
(8.83878 -0.658276 -5.26659e-06)
(8.83878 -0.658276 -3.07668e-06)
(8.8385 -0.658253 -8.31124e-07)
(8.85991 -0.657267 7.34018e-07)
(8.86019 -0.65729 3.36708e-06)
(8.86019 -0.65729 6.34173e-06)
(8.86019 -0.657292 8.63702e-06)
(8.86019 -0.657292 1.04646e-05)
(8.86019 -0.657293 1.21387e-05)
(8.86019 -0.657293 1.35509e-05)
(8.86019 -0.657293 1.44954e-05)
(8.8602 -0.657293 1.51162e-05)
(8.8602 -0.657294 1.52678e-05)
(8.8602 -0.657294 1.51083e-05)
(8.8602 -0.657294 1.4548e-05)
(8.8602 -0.657295 1.37631e-05)
(8.8602 -0.657295 1.26609e-05)
(8.8602 -0.657295 1.14189e-05)
(8.8602 -0.657295 9.89087e-06)
(8.8602 -0.657296 8.01391e-06)
(8.8602 -0.657294 6.06001e-06)
(8.8602 -0.657294 4.42802e-06)
(8.85992 -0.657271 1.94097e-06)
(8.82526 -0.882599 -1.8801e-06)
(8.82554 -0.88263 -4.85016e-06)
(8.82554 -0.882631 -6.94533e-06)
(8.82554 -0.88263 -9.62947e-06)
(8.82553 -0.882632 -1.23979e-05)
(8.82553 -0.882635 -1.43929e-05)
(8.82553 -0.882638 -1.58952e-05)
(8.82553 -0.882641 -1.69296e-05)
(8.82553 -0.882644 -1.74021e-05)
(8.82553 -0.882648 -1.74512e-05)
(8.82553 -0.882651 -1.69897e-05)
(8.82552 -0.882655 -1.61873e-05)
(8.82552 -0.882658 -1.4988e-05)
(8.82552 -0.882661 -1.35753e-05)
(8.82552 -0.882663 -1.19416e-05)
(8.82552 -0.882666 -1.01562e-05)
(8.82552 -0.882668 -8.6037e-06)
(8.82552 -0.882671 -6.43702e-06)
(8.82552 -0.882673 -3.2571e-06)
(8.82524 -0.882643 -8.94126e-07)
(8.83817 -0.874265 -3.91859e-08)
(8.83845 -0.874295 1.87285e-06)
(8.83845 -0.874294 2.95195e-06)
(8.83845 -0.874293 4.27716e-06)
(8.83845 -0.874291 6.40303e-06)
(8.83845 -0.87429 7.40782e-06)
(8.83845 -0.874288 8.52214e-06)
(8.83845 -0.874286 9.07789e-06)
(8.83846 -0.874284 9.52601e-06)
(8.83846 -0.874282 9.57642e-06)
(8.83846 -0.874279 9.49419e-06)
(8.83846 -0.874277 9.08988e-06)
(8.83846 -0.874275 8.64197e-06)
(8.83846 -0.874273 7.90445e-06)
(8.83846 -0.874272 7.3429e-06)
(8.83846 -0.87427 6.35202e-06)
(8.83846 -0.874269 6.17833e-06)
(8.83846 -0.874267 4.84247e-06)
(8.83846 -0.874267 3.08379e-06)
(8.83818 -0.874237 1.71884e-06)
(8.79303 -1.11422 -1.86147e-06)
(8.79331 -1.11426 -3.92177e-06)
(8.79331 -1.11427 -6.02741e-06)
(8.79331 -1.11427 -8.31146e-06)
(8.79331 -1.11427 -9.91308e-06)
(8.79331 -1.11428 -1.1535e-05)
(8.79331 -1.11429 -1.25705e-05)
(8.79331 -1.11429 -1.33954e-05)
(8.79331 -1.1143 -1.3695e-05)
(8.7933 -1.11431 -1.37248e-05)
(8.7933 -1.11432 -1.32944e-05)
(8.7933 -1.11433 -1.26484e-05)
(8.7933 -1.11433 -1.16194e-05)
(8.7933 -1.11434 -1.05114e-05)
(8.7933 -1.11435 -9.07118e-06)
(8.7933 -1.11435 -7.73068e-06)
(8.7933 -1.11436 -5.93378e-06)
(8.7933 -1.11436 -4.40853e-06)
(8.7933 -1.11436 -2.4393e-06)
(8.79302 -1.11433 -3.93798e-07)
(8.78003 -1.09731 1.22315e-06)
(8.78028 -1.09734 -1.10551e-06)
(8.78026 -1.09734 -1.61823e-06)
(8.78027 -1.09733 -2.9023e-06)
(8.78027 -1.09733 -2.97212e-06)
(8.78027 -1.09733 -3.57704e-06)
(8.78027 -1.09732 -3.66772e-06)
(8.78027 -1.09732 -3.94301e-06)
(8.78027 -1.09731 -3.92408e-06)
(8.78028 -1.0973 -3.9551e-06)
(8.78028 -1.0973 -3.75759e-06)
(8.78028 -1.09729 -3.6055e-06)
(8.78028 -1.09729 -3.21964e-06)
(8.78028 -1.09728 -2.96256e-06)
(8.78028 -1.09728 -2.36303e-06)
(8.78029 -1.09728 -2.14315e-06)
(8.78029 -1.09727 -1.24293e-06)
(8.78029 -1.09727 -1.47706e-06)
(8.7803 -1.09727 -8.28214e-07)
(8.78006 -1.09724 -2.00323e-06)
(8.72173 0.757854 -1.04892e-07)
(8.72201 0.757879 -2.02242e-06)
(8.722 0.757878 -1.5076e-06)
(8.722 0.757877 -2.1663e-06)
(8.722 0.757875 -2.06541e-06)
(8.722 0.757873 -2.42949e-06)
(8.722 0.757871 -2.45166e-06)
(8.72201 0.757869 -2.62779e-06)
(8.72201 0.757866 -2.60829e-06)
(8.72201 0.757864 -2.63804e-06)
(8.72201 0.757861 -2.51754e-06)
(8.72201 0.757859 -2.43695e-06)
(8.72201 0.757857 -2.19151e-06)
(8.72201 0.757855 -2.0431e-06)
(8.72201 0.757853 -1.62231e-06)
(8.72201 0.757852 -1.47212e-06)
(8.72201 0.757851 -7.21686e-07)
(8.72201 0.75785 -6.99976e-07)
(8.72201 0.757849 6.50751e-07)
(8.72174 0.757824 -4.04787e-07)
(8.74389 0.759939 -1.60705e-06)
(8.74417 0.759965 -2.74979e-06)
(8.74417 0.759967 -3.58325e-06)
(8.74417 0.759969 -4.71071e-06)
(8.74417 0.759972 -5.38428e-06)
(8.74417 0.759976 -6.18064e-06)
(8.74417 0.759981 -6.60723e-06)
(8.74417 0.759985 -6.98687e-06)
(8.74417 0.75999 -7.07086e-06)
(8.74416 0.759995 -7.06055e-06)
(8.74416 0.76 -6.8077e-06)
(8.74416 0.760005 -6.48664e-06)
(8.74416 0.76001 -5.94509e-06)
(8.74416 0.760014 -5.40976e-06)
(8.74416 0.760017 -4.62353e-06)
(8.74416 0.760021 -3.96263e-06)
(8.74416 0.760023 -2.89e-06)
(8.74416 0.760026 -2.08065e-06)
(8.74416 0.760028 -7.12184e-07)
(8.74389 0.760003 4.23121e-07)
(8.76352 0.547833 -5.1307e-07)
(8.7638 0.547851 7.95129e-07)
(8.7638 0.547851 1.93636e-06)
(8.7638 0.547852 2.84362e-06)
(8.7638 0.547853 4.19628e-06)
(8.7638 0.547853 4.83869e-06)
(8.7638 0.547854 5.5235e-06)
(8.7638 0.547855 5.83826e-06)
(8.7638 0.547856 6.0743e-06)
(8.7638 0.547857 6.0605e-06)
(8.7638 0.547858 5.96654e-06)
(8.7638 0.547859 5.67816e-06)
(8.7638 0.54786 5.37238e-06)
(8.7638 0.547861 4.87714e-06)
(8.7638 0.547861 4.51624e-06)
(8.7638 0.547862 3.86035e-06)
(8.7638 0.547863 3.74194e-06)
(8.7638 0.547863 2.93018e-06)
(8.7638 0.547863 2.28177e-06)
(8.76352 0.547845 1.55279e-06)
(8.75337 0.542296 -1.14831e-06)
(8.75365 0.542314 -2.08874e-06)
(8.75365 0.542314 -2.49328e-06)
(8.75365 0.542314 -3.35312e-06)
(8.75365 0.542314 -4.14583e-06)
(8.75365 0.542315 -4.75068e-06)
(8.75365 0.542316 -5.12893e-06)
(8.75365 0.542317 -5.41162e-06)
(8.75365 0.542318 -5.47811e-06)
(8.75365 0.542318 -5.4569e-06)
(8.75364 0.542319 -5.25267e-06)
(8.75364 0.54232 -4.98893e-06)
(8.75364 0.542321 -4.57033e-06)
(8.75364 0.542322 -4.14057e-06)
(8.75364 0.542323 -3.57739e-06)
(8.75364 0.542324 -3.05389e-06)
(8.75364 0.542324 -2.49098e-06)
(8.75364 0.542326 -1.85093e-06)
(8.75364 0.542326 -5.38131e-07)
(8.75337 0.542308 2.6867e-07)
(8.77393 0.343219 -1.03301e-07)
(8.77421 0.343231 1.34516e-06)
(8.77421 0.343232 3.01005e-06)
(8.77421 0.343234 4.20015e-06)
(8.77421 0.343235 5.28365e-06)
(8.77421 0.343237 6.12861e-06)
(8.77421 0.343239 6.86121e-06)
(8.77421 0.343241 7.30003e-06)
(8.77421 0.343243 7.59751e-06)
(8.77421 0.343245 7.63047e-06)
(8.77421 0.343247 7.53973e-06)
(8.7742 0.343249 7.2205e-06)
(8.7742 0.343251 6.83292e-06)
(8.7742 0.343253 6.23705e-06)
(8.7742 0.343255 5.65176e-06)
(8.7742 0.343257 4.84503e-06)
(8.7742 0.343258 4.07888e-06)
(8.7742 0.343258 3.08624e-06)
(8.7742 0.343259 2.51453e-06)
(8.77393 0.343248 1.44513e-06)
(8.76712 0.333729 -7.58284e-07)
(8.7674 0.33374 -1.04558e-06)
(8.7674 0.333739 -1.14269e-06)
(8.7674 0.333738 -1.39325e-06)
(8.7674 0.333736 -1.41041e-06)
(8.7674 0.333735 -1.56147e-06)
(8.7674 0.333734 -1.57343e-06)
(8.7674 0.333732 -1.61832e-06)
(8.7674 0.33373 -1.55826e-06)
(8.7674 0.333729 -1.51076e-06)
(8.76739 0.333727 -1.37088e-06)
(8.76739 0.333725 -1.26479e-06)
(8.76739 0.333724 -1.06692e-06)
(8.76739 0.333722 -9.27263e-07)
(8.76739 0.333721 -6.70506e-07)
(8.76739 0.33372 -5.33704e-07)
(8.76739 0.333719 -1.49355e-07)
(8.76739 0.333719 -2.50932e-08)