/*--------------------------------*- C++ -*----------------------------------*\
| =========                 |                                                 |
| \\      /  F ield         | OpenFOAM: The Open Source CFD Toolbox           |
|  \\    /   O peration     | Version:  2212                                  |
|   \\  /    A nd           | Website:  www.openfoam.com                      |
|    \\/     M anipulation  |                                                 |
\*---------------------------------------------------------------------------*/
FoamFile
{
    version     2.0;
    format      ascii;
    arch        "LSB;label=32;scalar=64";
    class       volVectorField;
    location    "0.0381";
    object      U;
}
// * * * * * * * * * * * * * * * * * * * * * * * * * * * * * * * * * * * * * //

dimensions      [0 1 -1 0 0 0 0];

internalField   nonuniform List<vector> 
2308
(
(10.8696 -10.7242 -7.43642e-16)
(0.263442 -2.41372 0)
(1.54423 -16.9087 6.16852e-17)
(-16.5316 -35.9839 -2.30025e-16)
(-4.89383 25.0856 0)
(-13.7425 19.0334 -1.82495e-19)
(7.75605 23.2989 6.75569e-20)
(6.90545 17.7726 -3.32733e-16)
(-1.77569 22.7666 6.16529e-16)
(1.286 71.0583 -6.76486e-17)
(0.144537 72.4435 1.21791e-16)
(-1.96049 72.7305 -1.81925e-16)
(-3.66174 71.0943 9.1263e-17)
(-4.88632 68.5588 -4.66764e-17)
(-5.88952 65.3601 8.07082e-18)
(-6.63119 61.4893 6.78494e-17)
(-7.13173 57.581 9.42492e-18)
(-3.15285 56.1835 2.13604e-17)
(-2.71931 59.9618 2.85449e-17)
(-2.45709 63.9926 2.08678e-18)
(-2.16289 68.0294 1.56731e-17)
(-1.8388 71.2427 -4.53684e-17)
(-1.43324 73.8324 5.75141e-17)
(-0.889483 74.7972 -2.61181e-17)
(-0.376504 74.629 -1.09602e-16)
(-0.482004 73.3944 -5.14314e-17)
(0.867914 69.906 2.61285e-17)
(1.08045 64.5553 -2.86006e-17)
(2.93241 31.4098 0)
(-7.343 53.7261 -1.97566e-16)
(1.5983 58.2855 1.49995e-18)
(1.75766 51.0501 3.78961e-19)
(1.68552 43.0964 -6.42261e-18)
(1.47361 34.9029 5.9402e-18)
(1.29464 26.9515 -6.26482e-18)
(1.28588 19.7094 5.79069e-18)
(1.42822 13.5305 -2.85929e-18)
(1.62131 8.567 2.81234e-18)
(1.77087 4.84437 -2.77015e-18)
(1.88718 1.97992 1.3614e-18)
(2.0066 -0.0662865 2.68568e-18)
(2.21251 -1.81398 3.97489e-18)
(2.45255 -2.9308 -7.83485e-18)
(2.82317 -4.00241 5.15136e-18)
(3.16755 -4.5436 2.53576e-18)
(4.11468 -4.01656 -2.53929e-18)
(3.90377 -3.67704 2.57787e-18)
(3.77786 -2.74436 -3.91774e-18)
(3.87729 -1.80278 -4.30748e-18)
(4.18891 -0.231918 6.73514e-18)
(4.70371 1.60385 -1.36662e-18)
(5.43508 4.22803 2.77973e-18)
(6.30553 7.66937 7.01327e-19)
(7.19122 12.2687 -4.2989e-18)
(7.94209 18.0581 -1.45089e-18)
(8.52075 24.8868 2.96025e-18)
(8.86794 32.3619 0)
(8.84514 40.0736 -3.76204e-19)
(8.30927 47.5654 -1.25328e-17)
(7.35882 54.3546 -4.37018e-17)
(6.09778 60.0217 5.26885e-17)
(3.87577 64.2389 5.53268e-17)
(3.19191 63.5058 6.39367e-17)
(0.500192 64.9773 2.56271e-19)
(-1.925 63.0812 7.33911e-17)
(-4.46327 62.6558 -1.376e-16)
(-6.30237 61.7872 -3.19235e-17)
(-8.10721 59.2842 0)
(-9.59289 56.3603 0)
(-10.7152 52.9932 0)
(-11.3398 49.7156 0)
(3.71368 -5.47291 -1.24478e-18)
(4.67495 -4.84644 1.25109e-18)
(1.46581 55.2077 -9.81975e-17)
(1.42861 59.4669 -1.96232e-18)
(1.23494 63.4967 7.59391e-18)
(0.693945 66.8619 0)
(0.447834 69.3799 -1.42335e-17)
(-0.363525 71.002 -1.3557e-17)
(-0.97982 70.7068 6.71728e-18)
(-1.54271 69.1228 2.66039e-17)
(-1.59443 66.1054 0)
(-2.44392 61.1452 -5.23896e-20)
(-3.49136 55.2982 4.81396e-20)
(-4.48887 48.2757 -6.13933e-18)
(-5.34702 40.5289 9.07602e-18)
(-5.9052 32.5951 4.03021e-20)
(-5.9807 24.9737 -5.13568e-18)
(-5.46097 18.1107 0)
(-4.44279 12.3148 -7.14511e-19)
(-3.1985 7.69523 4.22337e-18)
(-2.02018 4.21927 -5.54498e-18)
(-1.02037 1.50443 -2.89416e-21)
(-0.223623 -0.501072 5.37995e-18)
(0.512222 -2.24732 0)
(1.08502 -3.39305 5.22081e-18)
(1.65925 -4.47278 1.59008e-21)
(2.07936 -5.04698 -2.53323e-18)
(-2.65766 52.3173 -8.56712e-17)
(2.53818 -6.01538 -2.49481e-18)
(-6.86863 50.0521 8.73943e-17)
(-11.4209 46.7327 1.56641e-19)
(5.28443 -4.41029 -2.50464e-18)
(4.82578 -3.56545 3.18632e-18)
(4.83285 -3.55196 0)
(4.94818 -2.83478 -9.82999e-19)
(5.35895 -2.18623 2.33386e-18)
(6.10223 -0.93131 2.70519e-18)
(7.18014 0.52213 -2.75082e-18)
(8.60734 2.6105 0)
(10.3578 5.3306 -7.07978e-19)
(12.1812 9.01292 1.44121e-18)
(13.7854 13.7202 -5.20811e-21)
(14.9156 19.3457 -1.48672e-18)
(15.4213 25.5686 0)
(15.1285 32.0114 2.27657e-18)
(13.944 38.2587 -9.23734e-18)
(11.9608 43.8181 -6.19038e-18)
(9.44046 48.3474 2.57634e-17)
(6.73125 51.2211 9.69411e-17)
(4.03033 50.9702 7.37978e-18)
(0.33713 51.1794 7.13172e-17)
(-2.82283 49.6285 -3.25877e-17)
(-5.97819 48.4636 0)
(-8.8049 47.2348 0)
(-11.2063 45.0894 0)
(-13.1527 42.4648 1.13194e-16)
(-14.5789 39.6949 -1.32349e-16)
(-15.3625 37.268 1.36938e-16)
(10.0896 9.55944 -2.68632e-16)
(-17.7222 8.2284 0)
(-14.571 22.0475 0)
(-15.9562 15.7355 0)
(6.16861 41.5709 1.98723e-16)
(6.06975 45.2781 5.54433e-17)
(5.44237 48.8394 -1.25964e-20)
(4.66381 52.2546 -9.19887e-19)
(3.49599 55.3928 9.05153e-19)
(2.269 57.6536 7.05967e-18)
(0.558527 59.4074 -1.38002e-17)
(-1.22309 59.5179 5.91388e-21)
(-2.74171 57.8551 0)
(-4.56619 55.1688 2.93873e-17)
(-6.77731 51.2252 1.90042e-17)
(-8.84914 45.8473 -3.12504e-18)
(-10.6872 39.5027 3.06696e-18)
(-12.0631 32.6397 0)
(-12.7602 25.7445 0)
(-12.619 19.2653 -3.68995e-19)
(-11.5306 13.5825 0)
(-9.68091 8.92315 2.14786e-18)
(-7.48477 5.25062 -5.28699e-22)
(-5.40783 2.45752 -1.39011e-18)
(-3.64916 0.199089 0)
(-2.24022 -1.54797 -1.35196e-18)
(-1.08031 -3.08933 1.99251e-18)
(-0.226742 -4.08319 -3.2726e-18)
(0.511414 -5.04019 0)
(1.00389 -5.52673 -5.06962e-18)
(1.39186 -6.34049 1.24958e-18)
(1.48994 -6.85575 2.50453e-21)
(2.70665 -6.63986 0)
(3.91766 -5.77783 -6.14241e-19)
(4.73719 -4.33218 -1.99941e-18)
(4.15306 21.4171 2.91546e-16)
(5.17551 -2.99973 1.54128e-19)
(12.0355 1.54982 -8.47373e-16)
(14.1495 -9.27568 -1.96081e-16)
(-10.8527 44.3215 0)
(6.4075 11.0494 2.86319e-16)
(-1.77966 27.5589 -5.82272e-16)
(-2.10738 48.4303 3.59915e-17)
(-15.5423 35.1563 -2.08856e-16)
(1.43408 -7.91955 -1.2078e-18)
(3.00167 -8.00599 -1.20995e-18)
(4.72597 -7.48577 -1.51017e-19)
(6.06815 -6.58163 2.41752e-18)
(6.59679 -6.03444 1.51706e-19)
(6.53647 -5.62571 0)
(5.51675 -2.12457 1.23631e-18)
(5.59332 -4.16471 2.51283e-18)
(5.362 -3.32051 -6.42285e-19)
(5.54633 -3.62321 -2.59756e-18)
(5.89579 -3.16711 -2.96298e-18)
(6.56097 -2.86573 4.02027e-18)
(7.61508 -2.04329 1.35935e-18)
(9.0911 -1.08408 -2.76775e-18)
(11.0392 0.319303 2.10747e-18)
(13.4102 2.08452 -6.24531e-19)
(15.9509 4.50716 0)
(18.301 7.60967 0)
(19.9933 11.4571 0)
(20.7313 15.8594 3.01614e-18)
(20.328 20.5121 -1.54973e-18)
(18.7321 25.0779 1.86716e-20)
(16.1117 29.1588 -1.27314e-17)
(12.7119 32.4419 0)
(8.87749 34.4789 -1.37038e-17)
(4.81681 34.6475 1.4456e-17)
(0.385811 34.2354 2.99938e-17)
(-3.64902 32.899 1.55349e-17)
(-7.51626 31.3456 6.26633e-17)
(-10.9848 29.9096 -6.26763e-17)
(-13.9259 28.0889 0)
(-16.2372 25.9635 1.59278e-17)
(-17.9092 23.8974 -3.23031e-17)
(-18.8418 22.3527 -6.62124e-17)
(7.38629 31.5794 3.27832e-17)
(7.43471 -5.3717 0)
(-7.99599 25.1312 -1.71552e-19)
(11.0831 7.29762 3.68051e-16)
(11.3857 9.99016 -7.76848e-17)
(11.5017 13.4413 8.74409e-17)
(11.6316 16.7111 -1.64099e-17)
(11.4413 20.3167 3.18211e-17)
(11.3007 23.7316 -1.53279e-17)
(10.695 27.9625 0)
(10.0163 31.2269 -1.45087e-17)
(9.02506 34.0008 -1.45376e-17)
(7.62527 36.7168 0)
(5.7927 39.1898 0)
(3.70599 41.1275 8.78328e-19)
(1.19243 42.3448 -7.76277e-18)
(-1.40989 42.2696 0)
(-4.17096 40.8766 0)
(-7.35188 38.7479 -9.75678e-18)
(-10.6041 35.5064 -6.39335e-18)
(-13.6178 31.1915 1.25347e-17)
(-16.0925 26.2073 3.08127e-18)
(-17.7925 20.8671 7.62333e-19)
(-18.4856 15.6773 3.01362e-18)
(-18.0082 10.9964 -3.32841e-18)
(-16.3059 7.1045 0)
(-13.6701 4.08513 -1.44028e-18)
(-10.699 1.75074 0)
(-7.96043 -0.0829414 0)
(-5.67612 -1.70669 0)
(-3.87039 -3.01799 -5.41841e-18)
(-2.44296 -4.20397 0)
(-1.39252 -4.96045 -2.9499e-18)
(-0.546262 -5.70141 4.83495e-19)
(0.006626 -6.00022 9.9914e-18)
(0.337536 -6.55924 0)
(0.350893 -6.79344 -4.90457e-18)
(0.0315284 -7.70783 7.526e-20)
(0.583372 -18.2523 0)
(9.3241 6.07329 4.65545e-16)
(-8.92031 -12.1662 8.18622e-16)
(-13.8767 -39.156 0)
(3.51999 -11.1131 -2.70555e-16)
(12.9409 -4.80104 9.74976e-16)
(-15.0136 33.816 -5.6006e-19)
(2.53377 40.0307 6.90794e-17)
(6.1768 -5.36255 -1.52286e-19)
(5.9073 -1.87752 -1.24133e-18)
(5.79629 -4.13418 1.26088e-18)
(5.81202 -3.37876 0)
(6.11464 -3.92699 0)
(6.64654 -3.70022 1.65408e-19)
(7.49852 -3.7488 -6.73251e-19)
(8.75575 -3.38697 -2.39129e-18)
(10.4019 -2.98639 1.73897e-19)
(12.5973 -2.28537 -3.62788e-19)
(15.234 -1.44661 -4.38428e-19)
(18.2208 -0.372203 1.99605e-18)
(21.1066 0.963133 1.77119e-19)
(23.3052 2.78607 -1.50314e-18)
(24.3218 5.11366 0)
(23.9359 7.69643 6.15069e-18)
(22.1524 10.4122 -2.21861e-20)
(19.0855 12.857 3.20886e-17)
(14.9941 14.8129 -2.64146e-17)
(10.3209 16.044 0)
(5.38189 16.1229 2.82514e-17)
(0.394525 15.5128 -8.79771e-17)
(-4.3614 14.5067 4.51833e-17)
(-8.78253 12.9105 6.0857e-17)
(-12.7225 11.5206 1.21408e-19)
(-16.0374 10.0938 -6.16721e-17)
(-18.5811 8.62031 6.26187e-17)
(-20.3616 7.41855 6.39859e-17)
(-21.342 6.71954 -6.38022e-17)
(-19.096 21.3222 -1.3327e-16)
(3.3983 13.97 4.26771e-19)
(15.0226 -17.3182 -3.78964e-19)
(13.6032 -0.844339 -6.50125e-17)
(14.068 0.576058 -8.49097e-18)
(14.4458 2.83022 -2.49075e-17)
(14.6861 5.19283 -8.04045e-18)
(14.6745 7.70797 0)
(14.5619 10.1484 1.52385e-17)
(13.9668 12.7159 -7.4389e-18)
(13.0958 14.9966 -7.31389e-18)
(11.7619 16.8799 3.64258e-18)
(9.92312 18.6486 3.60134e-18)
(7.57105 20.2743 7.11278e-18)
(4.80279 21.626 0)
(1.67644 22.2356 6.8667e-18)
(-1.75285 21.9409 -6.67026e-18)
(-5.70076 20.9275 -1.039e-19)
(-9.83297 19.33 -1.96223e-17)
(-13.843 16.9766 1.61109e-18)
(-17.4602 14.0237 -7.88178e-18)
(-20.2859 10.7174 0)
(-22.0583 7.27268 -2.49009e-18)
(-22.5561 4.2702 1.80422e-19)
(-21.6123 1.75811 3.3432e-18)
(-19.2688 -0.00187337 0)
(-16.031 -1.20788 0)
(-12.6239 -2.16089 -8.90211e-20)
(-9.5718 -3.01064 -2.7139e-18)
(-7.03883 -3.90894 2.76194e-18)
(-5.0737 -4.694 3.39857e-18)
(-3.51044 -5.47318 -6.66924e-19)
(-2.35473 -5.92325 1.97031e-18)
(-1.46149 -6.38349 -6.49246e-19)
(-0.844244 -6.4244 -5.088e-18)
(-0.513621 -6.59412 4.98847e-18)
(-0.46514 -6.29419 1.10354e-17)
(-0.752038 -7.10627 4.81566e-18)
(-0.231324 -4.38441 0)
(0.223577 -6.87086 -2.43831e-18)
(1.19264 -7.9326 1.10004e-21)
(2.19911 -8.33388 2.67506e-18)
(3.5508 -6.9054 8.90875e-19)
(4.47966 -3.8292 -1.18968e-18)
(5.06038 -1.07881 2.38579e-18)
(5.97985 0.804888 -2.38744e-18)
(6.91837 1.31636 -1.1954e-18)
(-8.1505 -11.9298 -3.09445e-16)
(-1.33158 -16.01 -7.87978e-17)
(-0.642066 1.29555 -1.61599e-16)
(10.8007 0.0717051 -4.77219e-16)
(10.931 -7.60264 -2.48078e-16)
(-0.824269 -0.23165 9.81871e-17)
(-21.6202 6.70573 0)
(-18.7359 20.9579 2.69039e-16)
(5.46381 9.19241 7.05794e-16)
(8.98273 2.2753 2.88455e-16)
(8.17764 -2.1922 -3.02426e-16)
(-5.3414 29.9551 5.90879e-16)
(15.2681 -8.79582 0)
(15.7896 -8.09859 8.34611e-18)
(16.3134 -7.16181 -2.03369e-18)
(16.633 -5.96147 -3.76229e-17)
(16.7314 -4.70234 7.74071e-18)
(16.5936 -3.54184 0)
(16.0032 -2.41458 -1.40287e-21)
(14.984 -1.40421 -1.8329e-18)
(13.4188 -0.598797 0)
(11.293 0.0941631 -3.58037e-18)
(8.56625 0.763899 -3.52744e-18)
(5.33077 1.25824 0)
(1.64387 1.29106 8.57963e-19)
(-2.55171 0.934888 -8.67114e-19)
(-7.19056 0.345991 8.34099e-19)
(-11.8332 -0.559692 1.22837e-17)
(-16.251 -1.7813 0)
(-20.1008 -3.217 1.58595e-18)
(-23.0271 -4.69455 -7.80118e-19)
(-24.5563 -5.94354 1.9205e-19)
(-24.6697 -6.75111 5.69524e-19)
(-23.1423 -6.87996 -3.36601e-18)
(-20.2778 -6.56404 0)
(-16.7821 -6.15169 7.25544e-19)
(-13.3359 -5.92374 1.42971e-18)
(-10.3163 -5.91334 1.41027e-18)
(-7.81904 -6.13673 6.52548e-22)
(-5.85288 -6.41817 -6.81868e-19)
(-4.28373 -6.79495 -2.01172e-18)
(-3.11886 -6.90882 -1.3213e-18)
(-2.23629 -7.07719 -1.29926e-18)
(-1.61123 -6.85848 0)
(-1.2494 -6.78529 -5.00948e-18)
(-1.05505 -6.16695 -4.91492e-18)
(-1.00538 -6.98138 -3.61521e-18)
(-0.25029 -3.40302 -6.5081e-18)
(-0.521251 -8.46277 2.91114e-18)
(-1.94972 -8.92592 -2.32616e-18)
(-1.35163 -10.3523 0)
(0.659693 -10.6523 1.16708e-18)
(2.74655 -11.6584 1.16471e-18)
(5.74197 -11.3125 -2.3366e-18)
(8.02291 -10.2967 2.34754e-18)
(8.40898 -9.96453 6.52929e-21)
(7.46423 -9.27942 -1.17985e-18)
(5.33322 -8.18365 3.53252e-18)
(4.30756 -6.68701 -3.54988e-18)
(7.43675 0.60815 6.0173e-19)
(5.97938 -4.99996 -4.59117e-19)
(6.27307 -2.04586 9.31755e-19)
(6.03089 -4.19752 -3.1559e-18)
(6.20787 -3.62759 1.2051e-18)
(6.58914 -4.36509 0)
(7.24581 -4.37243 1.65846e-19)
(8.1928 -4.76758 2.36442e-18)
(9.51599 -4.80602 -3.43365e-19)
(11.1819 -4.88776 8.69639e-19)
(13.3499 -4.8252 -7.28552e-23)
(15.9701 -4.83681 3.61564e-19)
(19.0292 -4.93043 -1.82587e-19)
(22.112 -5.12665 1.29134e-18)
(24.6672 -5.22313 -4.50226e-18)
(26.0673 -5.05896 2.34784e-20)
(25.9055 -4.48443 3.11232e-18)
(24.144 -3.69596 -3.15547e-18)
(20.9892 -2.89165 -2.57087e-17)
(16.6788 -2.31312 2.63919e-17)
(11.5892 -2.07238 0)
(6.12967 -2.55395 -5.57186e-17)
(0.606019 -3.20835 4.27625e-17)
(-4.59602 -3.95921 -4.4005e-17)
(-9.40581 -5.22149 0)
(-13.5952 -6.26876 0)
(-17.0639 -7.21858 0)
(-19.8236 -7.98799 -7.65098e-18)
(-21.6763 -8.40504 1.94987e-20)
(-22.674 -8.13601 1.2505e-16)
(1.01747 14.4801 -3.16653e-16)
(-21.3647 7.38383 1.35123e-16)
(-17.878 21.5423 -1.27915e-16)
(7.70879 27.0111 1.64762e-17)
(7.43237 4.10812 3.42274e-16)
(10.3187 -2.8891 2.91047e-16)
(11.6899 -5.32942 -9.56633e-20)
(13.1509 -8.49354 -2.97255e-16)
(13.9457 -19.4708 -2.05338e-16)
(14.8725 -8.43862 -2.01478e-16)
(15.265 -14.7583 7.26974e-17)
(15.9158 -15.2987 -1.67106e-17)
(16.5716 -15.5877 -3.25321e-17)
(17.1101 -15.6421 0)
(17.4204 -15.6358 3.12599e-17)
(17.5495 -15.5957 0)
(17.356 -15.717 0)
(16.7087 -15.9292 7.42567e-18)
(15.5784 -16.2028 1.83044e-18)
(13.881 -16.6179 0)
(11.5728 -16.9876 3.57197e-18)
(8.65249 -17.2724 5.04529e-22)
(5.15972 -17.5605 7.14801e-21)
(1.10671 -17.9268 3.43301e-18)
(-3.46531 -18.2876 3.78433e-18)
(-8.33061 -18.4424 -3.75336e-18)
(-13.1268 -18.5147 -6.75243e-18)
(-17.5828 -18.497 2.01385e-19)
(-21.2982 -18.3208 -1.19198e-18)
(-23.847 -17.843 3.87123e-19)
(-24.9479 -16.9218 1.54165e-18)
(-24.5356 -15.5158 -1.14129e-18)
(-22.5753 -13.7041 1.5022e-18)
(-19.5961 -11.8509 1.45794e-21)
(-16.2757 -10.3053 -3.6402e-18)
(-13.1155 -9.21956 1.43489e-18)
(-10.3641 -8.54109 1.41398e-18)
(-8.06896 -8.23319 -2.08107e-18)
(-6.23242 -8.07431 2.73303e-18)
(-4.78716 -8.04161 2.6915e-18)
(-3.72088 -7.81361 0)
(-2.92631 -7.67862 7.80951e-18)
(-2.36778 -7.18385 1.27795e-18)
(-1.99763 -6.86262 1.25221e-18)
(-1.67986 -5.96036 0)
(-1.26123 -6.6801 0)
(-0.455233 -2.68 3.56012e-18)
(1.04055 -8.05176 4.60869e-21)
(1.9641 3.99496 -5.69316e-19)
(2.16267 3.57629 5.67036e-19)
(1.05842 1.26733 0)
(0.998297 -5.25239 0)
(1.14498 -8.13264 -5.72418e-19)
(1.58848 -10.0459 1.71371e-18)
(2.78894 -7.85158 0)
(3.39162 -1.79961 -1.14594e-18)
(4.46394 3.5357 -1.14488e-18)
(5.91678 6.89239 2.28958e-18)
(7.15127 7.38377 -1.14712e-18)
(7.7873 4.01201 3.46305e-18)
(8.33062 0.409005 5.67496e-19)
(5.43054 -5.72417 5.94439e-19)
(7.98325 -0.251123 1.20631e-18)
(6.4141 -4.56501 0)
(6.70028 -2.22007 -4.68112e-19)
(6.406 -4.21805 -1.19189e-19)
(6.62163 -3.90448 7.25435e-19)
(7.00938 -4.83415 -1.64866e-19)
(7.70302 -5.10418 -3.35016e-19)
(8.64589 -5.79662 -2.70939e-18)
(9.90751 -6.17877 6.8716e-19)
(11.494 -6.66759 -1.74795e-18)
(13.4839 -7.12434 8.87484e-19)
(15.8852 -7.78007 -3.6044e-19)
(18.6636 -8.70548 0)
(21.5553 -9.98566 0)
(24.1167 -11.493 0)
(25.7603 -13.0705 -1.52907e-18)
(25.9114 -14.4504 0)
(24.5789 -15.5851 3.02753e-20)
(21.676 -16.529 1.28895e-17)
(17.4854 -17.3126 -6.5017e-18)
(12.3506 -17.9741 1.34824e-17)
(6.77777 -18.9355 4.13224e-17)
(1.00284 -19.7568 -4.24407e-20)
(-4.36963 -20.6159 -1.43779e-17)
(-9.2871 -21.5107 -2.90215e-17)
(-13.5728 -22.1502 5.83236e-17)
(-17.0433 -22.3958 -2.96115e-17)
(-19.7782 -22.274 -2.62097e-21)
(-21.7057 -21.9483 1.51223e-17)
(-22.7682 -20.984 1.34619e-19)
(-23.074 -7.39561 -1.91983e-16)
(3.30239 10.2388 -3.2859e-16)
(-1.50812 13.4206 6.20345e-16)
(1.11275 2.4023 0)
(-22.8922 -5.89143 -1.32801e-16)
(14.0487 -14.9158 5.32195e-16)
(13.4935 -12.1028 -2.86466e-16)
(12.3974 -9.36966 -5.54202e-16)
(-16.5361 20.7144 -4.33054e-17)
(8.34014 18.657 -4.22795e-17)
(3.01797 35.2538 -1.6506e-17)
(-20.485 8.73953 2.03988e-19)
(8.93222 -0.314671 -3.37526e-16)
(11.1533 -7.04407 2.80462e-16)
(5.91803 -11.054 -5.65552e-19)
(2.91227 -9.54544 -5.65318e-19)
(-2.67596 -10.7303 0)
(-4.007 -15.2323 -5.62037e-19)
(-1.18771 -14.008 5.61624e-19)
(4.09962 -17.5023 -5.55684e-19)
(9.08338 -17.5432 5.59316e-19)
(11.7795 -16.9153 1.12549e-18)
(8.93926 -17.7096 -1.13053e-18)
(1.24079 -13.8226 2.2649e-18)
(-4.50399 -11.6952 -3.42455e-18)
(-4.67405 -9.03694 0)
(0.421377 -8.44699 2.18986e-21)
(6.27042 -7.15961 0)
(9.33926 0.686559 -3.48485e-18)
(7.40689 -4.41899 1.18565e-18)
(8.47595 0.0100431 0)
(7.15146 -3.91414 0)
(7.1515 -2.08744 3.13088e-19)
(6.82216 -4.13407 -3.97959e-20)
(7.00374 -4.11411 0)
(7.32006 -5.26345 -1.63895e-19)
(7.98205 -5.80268 1.67017e-19)
(8.83978 -6.74349 6.79833e-19)
(9.98176 -7.42135 3.44109e-19)
(11.4195 -8.23564 6.99236e-19)
(13.1572 -9.07783 -2.51796e-21)
(15.2163 -10.179 -1.44335e-18)
(17.5432 -11.6078 3.68652e-19)
(19.9723 -13.485 1.48732e-18)
(22.1885 -15.7987 3.71345e-19)
(23.742 -18.4505 -7.69452e-19)
(24.113 -21.1843 1.54885e-18)
(23.1018 -23.8258 -4.74166e-18)
(20.6249 -26.1183 -6.39325e-18)
(16.8299 -28.1848 3.30704e-18)
(12.042 -29.8947 -6.68369e-18)
(6.77193 -31.5261 0)
(1.28006 -32.6684 -2.08581e-17)
(-3.94227 -33.7074 4.27219e-17)
(-8.65001 -34.3529 0)
(-12.7862 -34.6336 0)
(-16.2311 -34.3566 0)
(-18.7851 -33.4977 1.10302e-17)
(-20.5812 -32.3629 -8.34352e-21)
(-21.6625 -30.7143 -1.20188e-19)
(-23.1892 -19.4743 -1.24006e-16)
(-10.1006 18.8949 -3.14096e-16)
(5.37616 5.72534 4.85896e-19)
(-11.9402 -30.9102 2.51849e-16)
(1.75611 -10.6546 0)
(15.8014 -20.2155 -1.56851e-17)
(16.4834 -21.2673 0)
(16.9537 -22.1523 0)
(17.2206 -23.0966 7.75602e-18)
(17.2542 -24.1144 -1.52839e-17)
(16.9539 -25.3165 0)
(16.2219 -26.6331 7.43392e-18)
(15.031 -28.0268 0)
(13.2663 -29.4821 -1.80815e-18)
(10.886 -30.7876 1.78169e-18)
(7.93197 -31.9368 -8.8069e-18)
(4.40633 -32.8499 4.85061e-21)
(0.339952 -33.4036 -3.41823e-18)
(-4.20441 -33.5555 6.76104e-18)
(-8.92279 -33.1732 4.99129e-18)
(-13.4892 -32.3667 -4.93133e-18)
(-17.5561 -31.0863 0)
(-20.7494 -29.3325 3.95653e-21)
(-22.7308 -27.1131 -2.35659e-18)
(-23.3181 -24.4115 0)
(-22.5146 -21.4553 0)
(-20.5279 -18.4502 7.5372e-19)
(-17.842 -15.7551 2.22672e-18)
(-14.9719 -13.5765 -1.46348e-18)
(-12.267 -11.9606 1.43596e-18)
(-9.89832 -10.8346 -2.82937e-18)
(-7.90171 -10.0968 -6.96758e-19)
(-6.31179 -9.52713 -5.49076e-18)
(-5.07779 -9.11459 2.69505e-18)
(-4.18744 -8.57191 0)
(-3.54539 -8.14328 -5.21957e-18)
(-3.1034 -7.40278 -2.56124e-18)
(-2.73412 -6.8956 0)
(-2.29606 -5.8575 2.46551e-18)
(-1.62192 -6.43945 -4.61472e-21)
(-0.637209 -2.97693 3.56736e-18)
(1.78652 -7.54669 3.49704e-18)
(1.74251 1.11455 0)
(6.50539 -10.3015 -1.13601e-18)
(-3.74505 10.7761 -3.07954e-16)
(1.05106 10.2263 -6.33761e-16)
(0.191061 -16.8326 1.20948e-16)
(-19.4829 8.59247 -1.20629e-16)
(9.78381 -4.94789 5.76924e-16)
(-22.1819 -3.99357 -3.61999e-19)
(10.7425 -4.7279 5.74638e-19)
(10.917 3.28985 2.91185e-18)
(8.58539 -2.89431 -2.37615e-18)
(9.14951 1.20962 0)
(7.62732 -2.99643 0)
(7.58465 -1.6307 0)
(7.12062 -3.876 0)
(7.26004 -4.17926 6.46798e-19)
(7.44885 -5.58082 -3.29247e-19)
(8.02242 -6.40288 1.66779e-19)
(8.75824 -7.57159 -1.01913e-18)
(9.75483 -8.5057 6.90523e-19)
(10.9942 -9.58303 3.50105e-19)
(12.4648 -10.6884 -5.34808e-19)
(14.1511 -12.049 0)
(15.9935 -13.7258 -1.05786e-21)
(17.8685 -15.837 -3.72878e-19)
(19.5679 -18.4228 3.78114e-19)
(20.7832 -21.4624 7.66878e-19)
(21.1184 -24.8111 -8.748e-19)
(20.3113 -28.2236 8.85083e-19)
(18.3009 -31.46 -2.40046e-18)
(15.1562 -34.508 -4.87999e-18)
(11.0502 -37.0675 3.29363e-18)
(6.41427 -39.3083 0)
(1.46406 -40.8493 -3.26324e-20)
(-3.31551 -42.1433 -2.10102e-17)
(-7.66323 -42.7103 1.77419e-17)
(-11.4065 -42.7669 -3.60007e-18)
(-14.6225 -42.1577 0)
(-17.0755 -40.9593 -3.63447e-18)
(-18.7411 -39.3379 5.08726e-17)
(-19.8195 -37.3023 -2.85158e-17)
(-22.1113 -28.7733 1.17166e-16)
(-12.5548 15.4974 6.39293e-16)
(7.1389 1.31156 5.36354e-19)
(5.04989 5.06468 -2.85173e-19)
(7.4366 11.9277 1.64157e-18)
(9.07796 15.696 2.70047e-19)
(-0.28535 11.9062 0)
(0.34524 1.98352 -5.47449e-19)
(0.0486892 -9.48967 5.54878e-19)
(1.87015 -13.0238 -8.23488e-19)
(2.54502 -5.75583 -1.93132e-18)
(0.346952 6.30444 2.21002e-18)
(1.33704 18.9158 0)
(1.27113 23.8885 -1.09592e-18)
(2.21003 17.9011 3.31458e-18)
(3.74748 4.11917 -2.23603e-18)
(4.79669 -4.40439 -1.10347e-18)
(7.31645 -3.54886 1.67474e-18)
(10.6629 3.76068 -2.23712e-18)
(-11.7557 12.211 6.14422e-16)
(11.887 -10.1132 -2.62529e-16)
(12.6611 -12.3335 2.64241e-16)
(13.3295 -14.7321 5.23972e-16)
(13.7608 -17.1699 2.45891e-16)
(-8.75757 29.2683 -4.92947e-19)
(-16.0842 11.8132 1.8182e-16)
(5.06324 -10.7328 0)
(-13.8237 -35.3682 0)
(15.4126 -23.6812 0)
(15.813 -25.1395 3.9206e-18)
(16.1484 -26.6357 -7.80993e-18)
(16.2759 -28.2092 -2.48647e-22)
(16.1572 -29.9251 2.28921e-17)
(15.71 -31.8287 -1.50628e-17)
(14.8794 -33.9111 2.50393e-21)
(13.6386 -36.1025 7.31978e-18)
(11.8606 -38.2955 -1.26406e-17)
(9.55785 -40.3022 1.77244e-18)
(6.74775 -42.0115 7.02649e-18)
(3.39404 -43.2148 -1.73962e-18)
(-0.456252 -43.7423 1.71373e-18)
(-4.65476 -43.5845 -5.05909e-18)
(-8.87835 -42.6506 1.66924e-18)
(-12.8604 -41.0139 4.92578e-18)
(-16.2821 -38.6885 -3.24196e-18)
(-18.8168 -35.7692 3.19396e-18)
(-20.234 -32.3832 1.18213e-18)
(-20.4496 -28.707 2.72671e-18)
(-19.5541 -24.9879 -3.44351e-18)
(-17.8059 -21.521 2.27068e-18)
(-15.6001 -18.535 -4.08965e-18)
(-13.2845 -16.0967 -2.93563e-18)
(-11.0791 -14.1942 2.88385e-18)
(-9.11477 -12.7481 1.41901e-18)
(-7.47034 -11.6534 -1.39773e-18)
(-6.17479 -10.7338 0)
(-5.19027 -9.98383 -2.70477e-18)
(-4.51387 -9.15024 1.33075e-18)
(-4.04192 -8.44639 -2.6103e-18)
(-3.75107 -7.47351 -3.85003e-18)
(-3.45433 -6.79657 -2.52224e-18)
(-2.96535 -5.57987 -4.94177e-18)
(-2.42335 -6.1752 1.21299e-18)
(-0.995682 -3.35898 -1.189e-18)
(0.668021 -7.74923 -2.34042e-18)
(1.59677 -2.03784 0)
(4.55601 -12.0475 0)
(4.99345 1.51658 0)
(0.177531 -16.4952 0)
(-23.1568 -17.1753 -5.4657e-19)
(-18.5642 10.8975 6.58899e-16)
(-5.65054 7.11085 3.07677e-16)
(3.44656 6.22882 3.17434e-16)
(-1.15417 8.85839 6.23516e-16)
(-11.0827 22.8562 -3.11025e-16)
(0.139046 -17.2113 -1.0328e-16)
(0.585774 -16.1872 0)
(-12.0307 26.0908 -3.48768e-16)
(-20.9396 -1.9825 -1.40144e-16)
(-20.0786 -35.1904 -5.19146e-17)
(-6.32818 34.4469 -9.12953e-16)
(-6.96343 -12.1564 3.28387e-16)
(-11.6042 -26.4782 2.50527e-16)
(-0.273566 -17.4986 -5.43854e-17)
(12.8526 15.4806 -1.11678e-18)
(10.3263 -1.07433 -2.86095e-19)
(11.97 7.27317 -8.78507e-19)
(8.71512 -0.0818689 4.16796e-22)
(9.73239 2.84078 0)
(7.68308 -1.34998 0)
(7.80886 -0.905131 0)
(7.16233 -3.44051 -1.59067e-19)
(7.27814 -4.1186 -2.01747e-19)
(7.35423 -5.80442 2.06256e-19)
(7.81232 -6.89146 -1.67714e-19)
(8.40866 -8.28279 4.25632e-19)
(9.24564 -9.42727 -5.18925e-19)
(10.262 -10.7005 0)
(11.4555 -11.9905 0)
(12.7835 -13.4893 0)
(14.1883 -15.2414 0)
(15.5595 -17.3551 0)
(16.7448 -19.8917 0)
(17.5482 -22.875 -1.91711e-19)
(17.7099 -26.2404 7.77615e-19)
(17.0137 -29.846 0)
(15.3973 -33.4564 -2.00203e-18)
(12.8637 -36.9519 3.65091e-18)
(9.4863 -40.0403 3.29362e-18)
(5.61303 -42.661 0)
(1.37001 -44.6409 1.0253e-17)
(-2.79821 -46.0102 -1.04184e-17)
(-6.58702 -46.6533 -3.49574e-18)
(-9.87608 -46.7306 7.11039e-18)
(-12.7564 -46.0987 -1.07904e-17)
(-15.0334 -44.9628 5.41622e-18)
(-16.6142 -43.2377 -1.44262e-17)
(-17.5832 -41.3263 3.58771e-18)
(-18.3738 -38.9039 1.12502e-16)
(-14.0216 9.06305 3.41918e-16)
(11.4686 -12.1481 5.0073e-16)
(10.81 -11.0911 2.46956e-16)
(6.97512 -20.5631 0)
(9.87653 -17.5395 -2.45856e-21)
(10.2183 -19.086 -5.52104e-19)
(5.00613 -6.34614 -2.74816e-19)
(5.94026 -3.61133 -6.71912e-20)
(-6.59281 -25.776 6.80033e-20)
(-8.8411 -21.4401 0)
(11.2806 -30.9873 0)
(14.964 -27.6946 8.31822e-19)
(2.43592 -25.7871 -2.16606e-18)
(-16.3553 -22.6906 2.73332e-18)
(-21.1472 -20.0935 0)
(-24.6029 -18.9678 -2.18111e-18)
(-15.6751 -16.4552 2.17073e-18)
(-5.23861 -18.7844 5.54951e-19)
(3.32596 -18.121 5.52899e-19)
(9.66397 -14.8181 0)
(6.36217 -6.53865 0)
(4.34848 25.3943 0)
(11.9289 -12.3834 2.54858e-16)
(12.4493 -14.1316 0)
(12.7079 -16.0089 -5.19354e-16)
(12.7439 -17.9428 2.58626e-16)
(12.6542 -19.5388 4.63617e-16)
(2.59972 -10.7898 -8.65065e-17)
(6.10841 -1.3445 3.03164e-16)
(13.6129 -24.0863 8.41282e-18)
(14.2394 -25.7529 -6.45414e-17)
(14.6757 -27.5197 2.77853e-17)
(14.913 -29.3321 -3.13265e-17)
(14.9134 -31.2643 -1.3531e-17)
(14.6487 -33.3343 1.90736e-17)
(14.0709 -35.5741 3.76503e-18)
(13.1569 -38.0091 -1.85511e-17)
(11.8822 -40.5427 1.09784e-17)
(10.1306 -43.019 0)
(7.95751 -45.3542 -8.9143e-18)
(5.36169 -47.3113 5.26228e-18)
(2.32734 -48.6149 8.67503e-18)
(-1.07408 -49.0931 1.71702e-18)
(-4.65312 -48.6142 -6.76184e-18)
(-8.17766 -47.244 -3.33619e-18)
(-11.4499 -45.0247 0)
(-14.1725 -42.0604 0)
(-16.1019 -38.5417 -7.99867e-19)
(-17.104 -34.6935 -3.94564e-19)
(-17.1674 -30.7542 3.89931e-18)
(-16.3967 -26.9608 7.78456e-19)
(-15.005 -23.5225 -2.64378e-18)
(-13.2952 -20.5372 -3.97915e-22)
(-11.477 -18.0352 0)
(-9.72268 -15.996 0)
(-8.15466 -14.3236 -2.85112e-18)
(-6.85422 -12.9349 4.20135e-18)
(-5.8537 -11.7136 -1.37848e-18)
(-5.124 -10.665 -2.14785e-21)
(-4.66651 -9.58565 1.3273e-18)
(-4.3668 -8.62629 1.30807e-18)
(-4.24287 -7.43708 7.72073e-18)
(-4.09773 -6.62945 0)
(-3.62255 -5.13231 3.71229e-18)
(-3.72005 -6.01619 -3.64337e-18)
(-1.87063 -3.51516 2.38176e-18)
(-1.76963 -8.15729 -2.3424e-18)
(0.941747 -4.76397 2.29165e-18)
(2.14961 -14.1232 0)
(5.01875 -4.27376 0)
(4.74663 -25.8123 -1.11543e-18)
(-13.1356 5.22655 6.05895e-16)
(-22.2939 -26.0226 -1.20861e-16)
(9.72945 -9.78449 -2.58909e-16)
(-11.1528 -0.259454 6.05589e-16)
(-9.32092 1.76667 -5.29898e-19)
(-7.22598 2.88892 6.19348e-16)
(-22.5696 -14.4804 1.33925e-16)
(5.47966 1.75813 -6.7452e-16)
(-3.21556 6.35529 0)
(1.44717 5.89214 0)
(-0.418456 -15.8334 -5.96656e-17)
(-10.1402 -12.688 -3.12711e-16)
(3.16266 -14.3709 2.39876e-17)
(-13.9636 26.6771 -5.44426e-16)
(-15.5438 -38.6435 -6.07705e-17)
(-15.8701 5.38278 -3.78445e-16)
(0.172179 -17.1366 0)
(0.23588 -16.7538 -5.30106e-17)
(-15.6322 -41.1714 0)
(-15.3359 -43.2897 1.85121e-18)
(-14.4318 -45.214 3.64542e-18)
(-12.9519 -46.6856 1.35125e-18)
(-10.9403 -47.7206 2.2397e-19)
(-8.53043 -48.1633 0)
(-5.61641 -47.9045 4.37521e-18)
(-2.33052 -46.9331 -4.3265e-18)
(1.1007 -45.3005 1.7005e-18)
(4.50694 -43.0492 -3.34055e-18)
(7.66554 -40.2098 8.17071e-19)
(10.3656 -36.9577 0)
(12.4035 -33.4368 1.59794e-18)
(13.7498 -29.8982 -7.90004e-19)
(14.3874 -26.5 7.79607e-19)
(14.4091 -23.4111 -1.34294e-18)
(13.9529 -20.6878 1.53694e-18)
(13.175 -18.3502 2.2126e-21)
(12.2154 -16.3427 -7.80141e-19)
(11.1888 -14.6059 3.6267e-19)
(10.1844 -13.0492 -4.00931e-19)
(9.25415 -11.6435 0)
(8.45353 -10.2254 1.73264e-19)
(7.7824 -8.8971 -8.5288e-20)
(7.33265 -7.32426 -3.35694e-19)
(6.98086 -5.99848 2.85614e-19)
(7.03396 -4.05236 4.0541e-20)
(6.88713 -2.94877 -1.59277e-19)
(7.58838 -0.281218 0)
(7.33881 0.454864 0)
(9.46612 4.32258 -6.04473e-19)
(8.31597 3.33671 3.26281e-18)
(11.7139 9.77674 -5.8209e-19)
(8.55177 4.31479 0)
(12.011 18.0872 2.22386e-18)
(0.549903 2.64558 -4.36442e-21)
(0.152636 -16.1963 2.80426e-16)
(9.212 8.28757 1.02264e-18)
(13.2211 10.8946 0)
(13.2678 11.1074 -2.72449e-19)
(16.1975 24.038 2.78371e-19)
(17.4801 31.4354 6.53282e-19)
(-3.58588 31.4963 -5.30161e-19)
(-4.3719 28.2206 1.25407e-19)
(-2.99337 -18.5462 2.59334e-19)
(3.7613 -15.1661 1.86403e-18)
(-4.23394 20.1803 -2.63889e-18)
(-1.38331 47.38 -2.12732e-18)
(-17.1029 47.52 2.1104e-18)
(-13.001 41.9002 -2.50067e-19)
(-7.04211 20.4706 5.01065e-19)
(-5.88582 -1.93631 -2.11853e-18)
(-5.77995 -9.84353 -5.07743e-19)
(-5.77212 -3.86174 2.13634e-18)
(-3.3945 10.1175 0)
(5.35433 34.5123 1.03124e-18)
(-0.492794 35.3039 -5.17917e-19)
(-15.0572 1.59656 3.14831e-16)
(-20.7375 -32.0262 -1.05844e-16)
(-12.7613 -2.96066 -2.98401e-16)
(0.240117 -18.2347 0)
(0.149715 -17.5069 0)
(0.162335 -17.1818 -1.00841e-16)
(0.0671348 -17.4876 -2.52748e-17)
(-0.115907 -18.1975 -3.14726e-17)
(0.08203 -17.8471 -7.62391e-17)
(0.2503 -17.4236 1.04724e-16)
(0.429758 -16.9105 5.61125e-17)
(-12.0891 -33.1287 0)
(-0.00530889 -16.1226 -5.47957e-17)
(-10.5022 -13.3698 -4.58249e-19)
(-8.15447 -11.338 2.81383e-16)
(-9.68944 -12.2801 -2.6788e-16)
(-11.7375 -4.71837 -3.05008e-16)
(-10.2331 -2.64898 0)
(-8.44242 -1.26578 0)
(-21.5887 -11.8555 2.83646e-16)
(-13.9075 -0.993575 5.95411e-16)
(0.135764 -18.0642 -7.5932e-17)
(11.7272 -13.4585 2.55562e-16)
(11.8253 -14.7689 -2.62506e-16)
(11.7533 -16.0172 0)
(11.6199 -17.1494 -5.4414e-16)
(11.313 -18.0864 2.71557e-16)
(12.2065 -20.3433 -3.60279e-16)
(7.51612 -14.4683 -2.22296e-16)
(11.5977 -22.4217 6.87752e-17)
(12.2589 -24.4017 -7.57952e-17)
(12.8002 -26.3598 3.29578e-17)
(13.1843 -28.4109 -3.21181e-17)
(13.3726 -30.4725 0)
(13.31 -32.6258 -1.93917e-18)
(12.9703 -34.8887 -2.86811e-18)
(12.3346 -37.2989 1.13016e-17)
(11.4007 -39.8853 3.71991e-18)
(10.1225 -42.5145 -1.83041e-17)
(8.4556 -45.0748 7.21686e-18)
(6.47293 -47.4609 8.9117e-18)
(4.12064 -49.3754 -7.02444e-18)
(1.45942 -50.5601 4.343e-18)
(-1.34242 -50.8349 -4.28252e-18)
(-4.22271 -50.1121 -1.69597e-18)
(-7.11196 -48.4635 5.00194e-18)
(-9.68125 -45.9477 8.23874e-19)
(-11.7741 -42.7662 3.25403e-18)
(-13.2316 -39.1565 -3.20075e-18)
(-13.9581 -35.3702 0)
(-13.9833 -31.6257 -7.79575e-19)
(-13.4026 -28.1025 -3.84247e-19)
(-12.3761 -24.9013 -3.79367e-18)
(-11.0814 -22.0741 3.35585e-18)
(-9.66816 -19.6227 -3.68081e-19)
(-8.2983 -17.4995 2.9012e-18)
(-7.08449 -15.6498 -5.35034e-18)
(-6.09099 -14.0221 2.80631e-18)
(-5.35357 -12.5475 1.38147e-18)
(-4.85399 -11.236 6.78928e-19)
(-4.59448 -9.92231 -1.33687e-18)
(-4.45285 -8.7064 3.92626e-18)
(-4.47312 -7.2942 -3.85681e-18)
(-4.5185 -6.38902 -1.26011e-18)
(-4.10247 -4.12623 -3.71699e-18)
(-5.12789 -5.39041 4.88024e-18)
(-2.81443 -1.2665 -3.58143e-18)