/*--------------------------------*- C++ -*----------------------------------*\
| =========                 |                                                 |
| \\      /  F ield         | OpenFOAM: The Open Source CFD Toolbox           |
|  \\    /   O peration     | Version:  2212                                  |
|   \\  /    A nd           | Website:  www.openfoam.com                      |
|    \\/     M anipulation  |                                                 |
\*---------------------------------------------------------------------------*/
FoamFile
{
    version     2.0;
    format      ascii;
    arch        "LSB;label=32;scalar=64";
    class       volVectorField;
    location    "4e-05";
    object      U;
}
// * * * * * * * * * * * * * * * * * * * * * * * * * * * * * * * * * * * * * //

dimensions      [0 1 -1 0 0 0 0];

internalField   nonuniform List<vector> 
17100
(
(-2.48387 3.67804 1.50143e-16)
(-0.770562 4.56289 -3.39937e-18)
(-0.315953 4.62009 -2.09137e-16)
(-0.194122 4.78436 1.49999e-19)
(-0.141082 4.81768 6.27646e-17)
(-0.110111 4.81098 -5.1638e-17)
(-0.0895567 4.81102 4.43955e-17)
(-0.0750732 4.81602 0)
(-0.0643992 4.82206 -3.62199e-17)
(-0.0564485 4.82811 9.75044e-21)
(-0.0501726 4.8339 6.35945e-21)
(-0.0450341 4.83946 3.09321e-17)
(-0.041045 4.84443 1.4975e-17)
(-0.0380899 4.84841 -1.45967e-17)
(-0.03572 4.85132 -1.42974e-17)
(-0.0334719 4.85356 2.8123e-17)
(-0.0311624 4.85538 -1.06513e-21)
(-0.0287587 4.85665 -1.37224e-17)
(-0.0262748 4.85737 0)
(-0.0237013 4.85771 0)
(-0.0209586 4.85784 0)
(-0.018007 4.85801 -6.67861e-18)
(-0.0148479 4.85815 6.65382e-18)
(-0.011434 4.85822 0)
(-0.00774967 4.85824 6.61672e-18)
(-0.00392517 4.85781 -6.60496e-18)
(-0.000358229 4.85694 0)
(0.00296081 4.85609 0)
(0.00638188 4.85528 0)
(0.00977175 4.85437 0)
(0.0128767 4.85347 -1.60919e-21)
(0.015695 4.85294 -8.23275e-19)
(0.0183824 4.85284 8.26255e-19)
(0.0211479 4.85315 0)
(0.0241118 4.85391 -3.31947e-18)
(0.0272553 4.85514 -3.32978e-18)
(0.0305346 4.85635 7.3727e-22)
(0.0338033 4.85715 6.71977e-18)
(0.036936 4.85762 0)
(0.0399172 4.85775 6.80642e-18)
(0.0427669 4.8575 -2.05951e-17)
(0.045499 4.85679 9.83057e-22)
(0.048103 4.8556 1.40496e-17)
(0.050574 4.85401 0)
(0.0530177 4.85176 0)
(0.0556543 4.84873 0)
(0.0587432 4.84495 0)
(0.0625638 4.84079 0)
(0.067395 4.83613 0)
(0.0734403 4.83073 1.76207e-17)
(0.081539 4.8247 -1.90834e-17)
(0.0931784 4.81942 0)
(0.110659 4.81561 -4.97083e-17)
(0.137983 4.80806 1.23071e-16)
(0.189358 4.75998 -7.57796e-17)
(0.370395 4.64892 -8.95404e-17)
(1.07715 4.3693 9.18716e-17)
(8.18938 -1.628 0)
(5.55903 -1.44455 -8.56114e-16)
(1.32293 0.925101 7.14052e-16)
(0.128772 2.3303 0)
(-0.0515444 3.03236 3.48463e-16)
(-0.0680922 3.43461 -4.75455e-16)
(-0.0623135 3.70006 3.42736e-16)
(-0.0552654 3.88303 -1.31458e-16)
(-0.0499043 4.01568 0)
(-0.0460061 4.11501 0)
(-0.0432864 4.19029 0)
(-0.0412946 4.24782 3.49134e-17)
(-0.0397723 4.29117 -3.18973e-17)
(-0.0386431 4.32573 0)
(-0.0377489 4.35249 2.78477e-17)
(-0.0368888 4.37361 -5.2955e-17)
(-0.0359297 4.39023 5.07801e-17)
(-0.0348369 4.40301 -2.45222e-17)
(-0.0335746 4.41334 -2.38148e-17)
(-0.0320987 4.42167 2.325e-17)
(-0.0303311 4.42813 0)
(-0.0282412 4.43347 0)
(-0.0258104 4.43775 0)
(-0.0229828 4.44108 1.09281e-17)
(-0.0197107 4.44365 -1.08353e-17)
(-0.0160419 4.44547 -5.37969e-18)
(-0.0120266 4.44626 5.35343e-18)
(-0.00790985 4.44599 5.33319e-18)
(-0.00397924 4.44554 -5.32314e-18)
(-0.000256173 4.44483 0)
(0.00343888 4.44377 0)
(0.00717938 4.44256 0)
(0.0108874 4.44133 2.69036e-18)
(0.0145727 4.44013 -2.71051e-18)
(0.0182471 4.43901 5.47001e-18)
(0.0218473 4.43736 -1.65987e-17)
(0.0252408 4.43428 1.12218e-17)
(0.0284024 4.43021 -1.14083e-17)
(0.0313192 4.42465 1.164e-17)
(0.033981 4.41744 -1.19161e-17)
(0.0363645 4.40833 2.4514e-17)
(0.038447 4.39658 -1.26748e-17)
(0.0402279 4.38176 0)
(0.0417146 4.36345 2.76594e-17)
(0.0428779 4.33946 -5.85772e-17)
(0.0436512 4.30871 3.1384e-17)
(0.0439538 4.26831 0)
(0.0437162 4.21569 3.77775e-17)
(0.0427378 4.14678 -4.28649e-17)
(0.0412191 4.05597 0)
(0.0395564 3.93528 -6.08572e-17)
(0.037534 3.77059 7.82649e-17)
(0.0316001 3.52937 0)
(-0.00733546 3.13522 3.16963e-16)
(-0.284222 2.31572 -9.1805e-19)
(-2.30571 0.148018 -6.34301e-16)
(-7.41477 -1.37587 0)
(3.69221 -1.11528 1.67204e-15)
(5.02184 -1.87927 -9.13143e-16)
(4.23605 -1.36407 0)
(3.09274 -0.228771 0)
(2.07451 0.752948 5.90555e-16)
(1.37032 1.50645 -8.91573e-16)
(0.92594 2.0627 3.35311e-16)
(0.647703 2.47714 0)
(0.467856 2.78937 0)
(0.346928 3.0265 0)
(0.262316 3.20795 0)
(0.201266 3.34862 0)
(0.156374 3.45907 0)
(0.122751 3.54656 5.00698e-17)
(0.0969207 3.61624 -9.23077e-17)
(0.0765636 3.67215 4.30963e-17)
(0.0601931 3.71733 0)
(0.0468816 3.75404 0)
(0.0360138 3.78391 -3.7146e-17)
(0.0270175 3.80906 3.58786e-17)
(0.0196047 3.83025 1.74137e-17)
(0.0135576 3.84812 -1.69928e-17)
(0.00869217 3.86274 -1.66429e-17)
(0.00484721 3.87407 4.17621e-21)
(0.00183582 3.88275 1.615e-17)
(-0.000539719 3.89002 7.98917e-18)
(-0.00242123 3.8961 -7.93065e-18)
(-0.00397847 3.9004 0)
(-0.0054051 3.9024 0)
(-0.00685047 3.90212 0)
(-0.00839446 3.89975 0)
(-0.0100599 3.89622 1.9827e-18)
(-0.0119254 3.89125 -5.99839e-18)
(-0.0141042 3.88464 4.04443e-18)
(-0.0167377 3.87612 0)
(-0.019977 3.86537 0)
(-0.0239869 3.85204 -1.70479e-17)
(-0.0289523 3.83572 1.7485e-17)
(-0.035096 3.81584 0)
(-0.042692 3.7917 0)
(-0.0520785 3.76244 -1.94223e-17)
(-0.0637017 3.72683 6.1134e-17)
(-0.0782592 3.68324 -4.31239e-17)
(-0.0968928 3.62951 -4.6061e-17)
(-0.1213 3.56279 1.76443e-20)
(-0.153791 3.47949 5.46391e-17)
(-0.197457 3.37478 0)
(-0.256812 3.24233 0)
(-0.338852 3.07312 0)
(-0.454724 2.85354 -9.73795e-17)
(-0.623677 2.56545 1.2102e-16)
(-0.879398 2.18408 1.55745e-16)
(-1.28656 1.66656 -2.0609e-16)
(-1.96217 0.932313 -5.48794e-16)
(-3.07413 -0.150424 1.31832e-15)
(-4.39582 -1.53552 -8.07715e-19)
(-4.39259 -1.26342 -1.35635e-15)
(2.79259 -0.66989 0)
(4.90493 -1.58185 0)
(5.20512 -1.63458 0)
(4.53673 -1.20319 8.2209e-16)
(3.60407 -0.594821 -4.03838e-19)
(2.75859 0.0366433 -5.69626e-16)
(2.0956 0.596724 0)
(1.60243 1.06996 -3.69037e-16)
(1.24065 1.45977 1.51726e-16)
(0.974376 1.77796 2.54176e-16)
(0.775839 2.03847 -1.08897e-16)
(0.62528 2.25194 0)
(0.509242 2.42667 -8.47494e-17)
(0.418436 2.56997 1.53439e-16)
(0.346273 2.68798 -7.04256e-17)
(0.288085 2.78558 0)
(0.240528 2.86659 -6.13758e-17)
(0.201179 2.93403 1.71539e-20)
(0.168257 2.99026 1.10918e-16)
(0.140389 3.0372 -5.32777e-17)
(0.116467 3.07637 0)
(0.0956157 3.10901 0)
(0.0771966 3.13606 -2.43829e-17)
(0.060738 3.15823 6.30108e-21)
(0.0458472 3.17607 2.3509e-17)
(0.0321717 3.19 0)
(0.0194042 3.20028 -1.14946e-17)
(0.0072404 3.20708 1.14284e-17)
(-0.00454858 3.2103 0)
(-0.0163295 3.2102 0)
(-0.0282705 3.20702 0)
(-0.0404424 3.20063 -2.87676e-18)
(-0.0531192 3.19067 8.72056e-18)
(-0.0665728 3.17701 5.89245e-18)
(-0.0810947 3.15938 -1.19985e-17)
(-0.0970207 3.13738 0)
(-0.114751 3.11045 0)
(-0.13478 3.0778 0)
(-0.157738 3.03846 -2.68426e-17)
(-0.18443 2.99125 2.79722e-17)
(-0.215876 2.93468 -2.93203e-17)
(-0.2534 2.86695 9.29116e-17)
(-0.298791 2.78577 -6.59855e-17)
(-0.354506 2.68827 0)
(-0.4239 2.57083 7.71416e-17)
(-0.511555 2.42894 -8.50149e-17)
(-0.623764 2.25693 0)
(-0.769251 2.04775 0)
(-0.96025 1.79312 0)
(-1.21428 1.48402 1.47996e-16)
(-1.55601 1.10911 -1.78634e-16)
(-2.01761 0.655599 0)
(-2.64394 0.10972 0)
(-3.47637 -0.53618 6.67505e-16)
(-4.48594 -1.2596 -4.32043e-19)
(-5.12062 -1.68788 -7.68673e-16)
(-3.64206 -0.936799 0)
(2.32059 -0.537464 0)
(4.49359 -1.3795 0)
(5.20677 -1.67554 0)
(5.00481 -1.63949 0)
(4.39892 -1.33952 0)
(3.69942 -0.936805 0)
(3.05293 -0.510525 0)
(2.50593 -0.104455 0)
(2.05825 0.264088 0)
(1.69622 0.589769 1.7073e-16)
(1.40474 0.872882 -1.49538e-16)
(1.17004 1.11653 1.32805e-16)
(0.980257 1.32498 -2.39277e-16)
(0.825719 1.50278 1.09123e-16)
(0.69886 1.65421 0)
(0.593796 1.78314 -9.36785e-17)
(0.505949 1.89291 8.80265e-17)
(0.431735 1.98635 0)
(0.368324 2.06584 0)
(0.313447 2.13334 0)
(0.26529 2.19045 0)
(0.222425 2.23851 -3.55917e-17)
(0.183749 2.27857 8.76661e-21)
(0.148402 2.31148 3.39078e-17)
(0.115687 2.33794 0)
(0.085003 2.35845 0)
(0.0558021 2.37341 1.62426e-17)
(0.0275912 2.38304 -1.61379e-17)
(-7.43683e-05 2.38745 0)
(-0.0277941 2.38685 -4.01964e-18)
(-0.0558675 2.38136 4.03632e-18)
(-0.0844213 2.37083 0)
(-0.113908 2.35495 8.22814e-18)
(-0.144809 2.33341 -8.35741e-18)
(-0.177654 2.30581 0)
(-0.213044 2.27159 -1.74418e-17)
(-0.251683 2.23004 5.38109e-17)
(-0.294444 2.1803 -3.70699e-17)
(-0.342431 2.12126 -3.84841e-17)
(-0.397035 2.05163 1.10229e-20)
(-0.460008 1.96978 1.19373e-20)
(-0.533555 1.87379 8.92948e-17)
(-0.620467 1.76136 -1.42692e-16)
(-0.724285 1.62975 1.02208e-16)
(-0.84952 1.4758 0)
(-1.0019 1.29594 0)
(-1.18867 1.08625 -1.34396e-16)
(-1.41888 0.842664 1.50785e-16)
(-1.70359 0.56147 0)
(-2.05531 0.240367 0)
(-2.48622 -0.119882 0)
(-3.00683 -0.513653 0)
(-3.6254 -0.932581 3.2076e-16)
(-4.31613 -1.34367 -1.12047e-15)
(-4.93539 -1.67943 7.84064e-16)
(-4.88739 -1.64166 0)
(-3.04094 -0.801139 0)
(2.00453 -0.462392 -8.93379e-16)
(4.04452 -1.22178 1.00449e-15)
(4.91291 -1.65422 -9.7748e-16)
(5.04439 -1.81448 9.1918e-16)
(4.7517 -1.76738 0)
(4.25717 -1.57101 -7.37197e-16)
(3.71709 -1.30722 6.43309e-16)
(3.20424 -1.01623 -2.80064e-16)
(2.74656 -0.72464 2.45482e-16)
(2.34975 -0.446629 0)
(2.01085 -0.189531 1.94145e-16)
(1.72348 0.0436142 -1.75494e-16)
(1.48035 0.252264 1.60135e-16)
(1.27444 0.437289 -1.47556e-16)
(1.09946 0.600287 1.3704e-16)
(0.949992 0.743167 -3.32684e-20)
(0.821455 0.867896 -1.20957e-16)
(0.710037 0.97636 1.14715e-16)
(0.612583 1.07029 -5.47558e-17)
(0.52649 1.15123 -1.24648e-20)
(0.449612 1.22054 -1.17837e-20)
(0.38018 1.27938 -4.90457e-17)
(0.316736 1.32875 0)
(0.258063 1.36948 0)
(0.20314 1.40221 -2.28729e-17)
(0.151089 1.4275 2.25376e-17)
(0.101151 1.44575 0)
(0.0526435 1.45725 0)
(0.00491748 1.46218 0)
(-0.042804 1.4607 0)
(-0.091035 1.45282 0)
(-0.140133 1.43842 5.57824e-18)
(-0.190718 1.41725 5.64459e-18)
(-0.243477 1.389 -1.14765e-17)
(-0.299174 1.35321 0)
(-0.358684 1.30934 2.39913e-17)
(-0.423027 1.25668 -2.4696e-17)
(-0.493416 1.1944 0)
(-0.571296 1.12148 -5.30361e-17)
(-0.658407 1.03678 5.53904e-17)
(-0.756851 0.938946 0)
(-0.869166 0.826487 0)
(-0.99842 0.697759 0)
(-1.14829 0.551022 0)
(-1.32313 0.384542 0)
(-1.52803 0.196751 -1.63148e-16)
(-1.76875 -0.0134708 1.78649e-16)
(-2.05144 -0.246357 0)
(-2.38215 -0.50057 0)
(-2.76542 -0.772098 0)
(-3.20171 -1.05259 -2.80357e-16)
(-3.6839 -1.32827 6.41158e-16)
(-4.19452 -1.57968 -7.26898e-16)
(-4.67391 -1.7706 4.07254e-16)
(-4.95017 -1.78135 0)
(-4.49298 -1.49322 8.46848e-16)
(-2.57176 -0.627743 -7.65124e-16)
(1.74235 -0.398708 -9.12328e-16)
(3.58226 -1.09764 1.03317e-15)
(4.49848 -1.57613 0)
(4.80513 -1.84697 0)
(4.74109 -1.96464 0)
(4.46489 -1.95018 -4.08604e-16)
(4.07451 -1.8425 3.67683e-16)
(3.65526 -1.68124 3.29504e-16)
(3.24593 -1.49112 -2.96235e-16)
(2.86512 -1.29009 -2.67776e-16)
(2.52039 -1.08958 2.43866e-16)
(2.21319 -0.896713 2.23603e-16)
(1.9418 -0.71565 -4.13071e-16)
(1.70303 -0.548599 1.92043e-16)
(1.49312 -0.396463 0)
(1.30829 -0.259309 0)
(1.14498 -0.136698 0)
(0.999948 -0.0279138 0)
(0.870341 0.0678972 0)
(0.753654 0.151622 -6.97955e-17)
(0.647722 0.224123 1.34648e-16)
(0.55068 0.286208 -6.52209e-17)
(0.460926 0.338614 -6.34308e-17)
(0.377075 0.381996 6.19666e-17)
(0.29792 0.416922 0)
(0.222397 0.443843 0)
(0.149556 0.463101 -2.95655e-17)
(0.0785353 0.474962 1.46749e-17)
(0.00852607 0.4796 2.60354e-21)
(-0.0613671 0.47713 1.8263e-17)
(-0.131867 0.467572 -5.50028e-18)
(-0.20359 0.450884 1.84828e-18)
(-0.277327 0.426857 0)
(-0.353933 0.395214 3.04067e-17)
(-0.434347 0.355598 -3.10295e-17)
(-0.51962 0.307566 -3.17852e-17)
(-0.610942 0.250586 3.27099e-17)
(-0.709675 0.184044 6.75903e-17)
(-0.817389 0.107256 -7.0172e-17)
(-0.935895 0.0194813 0)
(-1.06728 -0.0800522 -7.66533e-17)
(-1.21391 -0.192102 1.61439e-16)
(-1.3785 -0.317339 -8.54384e-17)
(-1.56401 -0.456242 0)
(-1.77364 -0.608942 1.94496e-16)
(-2.01065 -0.774993 -4.18671e-16)
(-2.27801 -0.953048 2.26664e-16)
(-2.57791 -1.14041 2.46861e-16)
(-2.9107 -1.33241 -5.69344e-20)
(-3.2733 -1.52163 -2.98266e-16)
(-3.65623 -1.69659 -3.30355e-16)
(-4.0407 -1.84042 7.34653e-16)
(-4.3937 -1.93344 -4.0501e-16)
(-4.63968 -1.932 0)
(-4.6335 -1.77327 0)
(-4.02164 -1.36481 8.85554e-16)
(-2.18983 -0.527903 -7.94439e-16)
(1.50189 -0.340652 -9.31716e-16)
(3.11876 -0.970084 0)
(3.99657 -1.45121 0)
(4.401 -1.78757 5.13709e-16)
(4.49344 -1.99639 -5.76192e-20)
(4.38332 -2.10865 -4.494e-16)
(4.15476 -2.13481 4.13438e-16)
(3.8585 -2.09711 -3.79963e-16)
(3.52964 -2.01542 0)
(3.19976 -1.90552 3.20894e-16)
(2.88231 -1.78047 -2.96603e-16)
(2.58458 -1.64913 0)
(2.30979 -1.51755 0)
(2.0587 -1.38991 0)
(1.83048 -1.2689 2.26488e-16)
(1.62352 -1.15619 -2.14166e-16)
(1.43581 -1.05271 0)
(1.26521 -0.958835 -9.69351e-17)
(1.1096 -0.874637 9.28243e-17)
(0.966961 -0.799954 0)
(0.835425 -0.734503 0)
(0.713295 -0.67793 0)
(0.599038 -0.629854 0)
(0.491274 -0.589894 7.92735e-17)
(0.388757 -0.557695 -3.88717e-17)
(0.290358 -0.532948 -3.82527e-17)
(0.195035 -0.515399 0)
(0.101814 -0.504846 0)
(0.00977328 -0.50115 0)
(-0.0820407 -0.504196 -4.66271e-18)
(-0.174498 -0.513963 4.67975e-18)
(-0.268386 -0.530457 -9.42872e-18)
(-0.3646 -0.553781 -9.53598e-18)
(-0.464092 -0.584089 2.84396e-21)
(-0.56788 -0.621581 1.97536e-17)
(-0.677068 -0.666498 0)
(-0.792857 -0.719106 4.15624e-17)
(-0.916568 -0.779682 -4.28995e-17)
(-1.04965 -0.848476 0)
(-1.19367 -0.925684 0)
(-1.35036 -1.01141 9.66537e-17)
(-1.52152 -1.1056 -1.01435e-16)
(-1.709 -1.20794 0)
(-1.9146 -1.31775 0)
(-2.13984 -1.43378 0)
(-2.38578 -1.55404 0)
(-2.65252 -1.67554 0)
(-2.93851 -1.79398 0)
(-3.23956 -1.90325 3.20058e-16)
(-3.54759 -1.99499 -3.46728e-16)
(-3.8489 -2.0572 0)
(-4.11477 -2.07799 0)
(-4.31528 -2.04051 0)
(-4.39415 -1.91409 0)
(-4.22832 -1.66112 0)
(-3.52434 -1.19859 0)
(-1.85929 -0.44936 8.23942e-16)
(1.28821 -0.290095 0)
(2.68798 -0.843326 0)
(3.48767 -1.29437 0)
(3.91991 -1.64504 5.37193e-16)
(4.10529 -1.90734 -5.1512e-16)
(4.11778 -2.09309 0)
(4.00802 -2.21149 0)
(3.82292 -2.27571 0)
(3.59372 -2.2943 -3.97162e-16)
(3.33432 -2.27725 3.71104e-16)
(3.06493 -2.23601 0)
(2.79896 -2.17768 0)
(2.54251 -2.10939 3.06384e-16)
(2.29907 -2.03621 -2.89131e-16)
(2.07029 -1.96168 0)
(1.8566 -1.88843 2.59897e-16)
(1.65773 -1.81833 -2.47684e-16)
(1.47286 -1.7526 0)
(1.30082 -1.69205 0)
(1.14031 -1.63718 1.09379e-16)
(0.989988 -1.58829 -1.05703e-16)
(0.848557 -1.54549 0)
(0.714759 -1.5088 0)
(0.587392 -1.47812 0)
(0.465316 -1.45334 0)
(0.347447 -1.43431 4.70134e-17)
(0.232755 -1.42092 -9.28874e-17)
(0.120258 -1.41305 4.60542e-17)
(0.0090132 -1.41061 0)
(-0.101911 -1.41351 -5.72353e-18)
(-0.213403 -1.4217 5.7408e-18)
(-0.326329 -1.43513 0)
(-0.441594 -1.45378 0)
(-0.560141 -1.47766 0)
(-0.682947 -1.50678 0)
(-0.811031 -1.54116 0)
(-0.945451 -1.58079 5.06338e-17)
(-1.0873 -1.62559 -5.2158e-17)
(-1.2377 -1.67543 0)
(-1.39778 -1.72998 -1.11896e-16)
(-1.56868 -1.78877 1.1655e-16)
(-1.75145 -1.85105 0)
(-1.94696 -1.91583 0)
(-2.1557 -1.9817 0)
(-2.37756 -2.04665 0)
(-2.61165 -2.10799 0)
(-2.85585 -2.1623 0)
(-3.10614 -2.20494 0)
(-3.35594 -2.22925 0)
(-3.59252 -2.22945 0)
(-3.8034 -2.19807 0)
(-3.97048 -2.1255 0)
(-4.06057 -2.00049 0)
(-4.02297 -1.80446 0)
(-3.75859 -1.50086 0)
(-3.05307 -1.04274 0)
(-1.58217 -0.381674 0)
(1.10436 -0.247989 0)
(2.30797 -0.728629 0)
(3.01728 -1.13284 0)
(3.43543 -1.46758 0)
(3.65875 -1.74511 0)
(3.74203 -1.97072 0)
(3.71992 -2.14617 0)
(3.61952 -2.27656 0)
(3.46525 -2.36917 0)
(3.27412 -2.42975 0)
(3.06704 -2.46409 0)
(2.84924 -2.47759 0)
(2.62479 -2.4756 0)
(2.40412 -2.4622 0)
(2.18963 -2.44078 0)
(1.98356 -2.41468 0)
(1.78697 -2.38631 0)
(1.60029 -2.35713 0)
(1.42316 -2.32825 0)
(1.25487 -2.30069 0)
(1.09473 -2.27523 0)
(0.941989 -2.2524 0)
(0.795855 -2.23251 0)
(0.655452 -2.2157 0)
(0.519867 -2.20204 0)
(0.38817 -2.19156 0)
(0.259443 -2.18424 0)
(0.132789 -2.18006 0)
(0.00734707 -2.17902 0)
(-0.117706 -2.18107 0)
(-0.243163 -2.18613 0)
(-0.369818 -2.1941 0)
(-0.498494 -2.20486 0)
(-0.630032 -2.21828 0)
(-0.765287 -2.23425 0)
(-0.905096 -2.25259 0)
(-1.05026 -2.27311 0)
(-1.20153 -2.2955 0)
(-1.35954 -2.31933 0)
(-1.52487 -2.34391 0)
(-1.69807 -2.36832 0)
(-1.87961 -2.39147 0)
(-2.06959 -2.41217 0)
(-2.26741 -2.42894 0)
(-2.47185 -2.43952 0)
(-2.68036 -2.44064 0)
(-2.89115 -2.43006 0)
(-3.09448 -2.40355 0)
(-3.28665 -2.35777 -4.01519e-16)
(-3.46192 -2.28812 4.25937e-16)
(-3.60209 -2.18953 0)
(-3.69013 -2.05611 0)
(-3.70259 -1.8794 0)
(-3.59859 -1.64667 0)
(-3.29796 -1.3306 0)
(-2.63544 -0.898863 0)
(-1.34951 -0.321857 0)
(0.947776 -0.213436 1.04397e-20)
(1.97977 -0.63057 2.18418e-20)
(2.59904 -0.987832 1.88662e-20)
(2.98387 -1.29446 5.75903e-16)
(3.21271 -1.56337 -5.60439e-16)
(3.32769 -1.8001 1.73045e-20)
(3.35425 -2.00346 5.15388e-16)
(3.3121 -2.17374 -4.92054e-16)
(3.21795 -2.31356 4.68849e-16)
(3.08551 -2.42617 0)
(2.92663 -2.51516 0)
(2.75052 -2.58463 4.05343e-16)
(2.56463 -2.63777 -3.86668e-16)
(2.37846 -2.67763 3.69281e-16)
(2.19068 -2.7064 -3.53222e-16)
(2.00164 -2.72651 0)
(1.81779 -2.74053 0)
(1.64026 -2.74974 0)
(1.46802 -2.75452 1.50849e-16)
(1.30135 -2.7562 -6.78287e-21)
(1.14028 -2.75638 -2.83028e-16)
(0.984665 -2.75594 6.27195e-21)
(0.834176 -2.75527 1.34295e-16)
(0.688386 -2.75456 0)
(0.546695 -2.75391 6.45108e-17)
(0.408371 -2.7534 -6.35425e-17)
(0.272613 -2.75311 -3.13951e-17)
(0.138604 -2.75312 3.11303e-17)
(0.00559942 -2.75355 0)
(-0.127016 -2.75444 0)
(-0.259792 -2.75573 -3.87096e-18)
(-0.393342 -2.7572 3.89087e-18)
(-0.528394 -2.75863 -3.13909e-17)
(-0.665711 -2.7598 6.35323e-17)
(-0.806022 -2.76052 -3.22534e-17)
(-0.949955 -2.76061 0)
(-1.09798 -2.75987 0)
(-1.25042 -2.75798 0)
(-1.40749 -2.75445 0)
(-1.56913 -2.74818 1.45986e-16)
(-1.73508 -2.73765 -3.02019e-16)
(-1.9055 -2.72189 5.72815e-21)
(-2.0809 -2.70046 1.62981e-16)
(-2.26016 -2.67218 0)
(-2.4372 -2.63434 1.77442e-16)
(-2.61259 -2.58574 -1.86004e-16)
(-2.78678 -2.52437 -3.90374e-16)
(-2.95011 -2.44683 1.31072e-20)
(-3.0974 -2.35129 4.31886e-16)
(-3.21942 -2.23484 0)
(-3.30528 -2.09365 0)
(-3.34126 -1.92477 0)
(-3.30811 -1.72309 5.26959e-16)
(-3.17282 -1.4795 -5.46206e-16)
(-2.86965 -1.17154 0)
(-2.26819 -0.774684 0)
(-1.14996 -0.272318 -4.57306e-16)
(0.814633 -0.185561 0)
(1.69836 -0.548704 5.86977e-16)
(2.23355 -0.86449 -5.95369e-16)
(2.57667 -1.14267 5.93101e-16)
(2.79396 -1.39368 -5.78982e-16)
(2.91844 -1.62412 -5.58209e-16)
(2.9695 -1.83292 5.36741e-16)
(2.96116 -2.0194 5.15111e-16)
(2.90617 -2.18376 -9.87451e-16)
(2.81527 -2.32752 8.91419e-21)
(2.69777 -2.45199 4.52867e-16)
(2.56104 -2.55852 0)
(2.41094 -2.64923 4.15683e-16)
(2.25263 -2.72685 -3.98819e-16)
(2.08964 -2.79353 0)
(1.92363 -2.8501 0)
(1.75693 -2.89765 0)
(1.59751 -2.93872 -1.71358e-16)
(1.44364 -2.97378 2.64327e-21)
(1.28783 -3.00257 2.42353e-21)
(1.1326 -3.0267 1.56238e-16)
(0.980868 -3.04719 0)
(0.833332 -3.06483 0)
(0.689752 -3.08003 0)
(0.549262 -3.09271 7.16401e-17)
(0.41115 -3.10261 -1.41237e-16)
(0.274724 -3.10961 3.4913e-17)
(0.139289 -3.11382 6.92544e-17)
(0.00432796 -3.11564 -3.44528e-17)
(-0.130378 -3.11546 8.59645e-18)
(-0.264889 -3.11314 -1.29109e-17)
(-0.399409 -3.10818 -1.2968e-17)
(-0.534485 -3.10013 -1.74224e-17)
(-0.670775 -3.08892 3.52217e-17)
(-0.808974 -3.07464 -7.14245e-17)
(-0.949885 -3.05747 7.26419e-17)
(-1.09406 -3.03731 0)
(-1.24174 -3.01353 0)
(-1.39146 -2.98528 1.5558e-16)
(-1.53999 -2.95152 -1.6005e-16)
(-1.68863 -2.91141 0)
(-1.84264 -2.86521 0)
(-2.00031 -2.81184 0)
(-2.15659 -2.74927 0)
(-2.30958 -2.6768 -1.91541e-16)
(-2.45816 -2.59366 3.9957e-16)
(-2.59834 -2.49742 -2.08741e-16)
(-2.72579 -2.38632 0)
(-2.83482 -2.25952 4.5763e-16)
(-2.9185 -2.11563 -4.79767e-16)
(-2.96788 -1.95263 -5.03323e-16)
(-2.97153 -1.76882 5.28343e-16)
(-2.91394 -1.56049 5.48009e-16)
(-2.76839 -1.32104 -7.15842e-21)
(-2.48083 -1.03017 -5.4767e-16)
(-1.94521 -0.669463 5.37097e-16)
(-0.977906 -0.231994 -4.7281e-16)
(0.701776 -0.163581 0)
(1.45781 -0.481741 0)
(1.91796 -0.762197 0)
(2.2175 -1.01481 0)
(2.41443 -1.24484 -5.96308e-16)
(2.5358 -1.46118 5.76193e-16)
(2.5965 -1.66372 0)
(2.60705 -1.85086 0)
(2.57694 -2.02267 0)
(2.51454 -2.17941 0)
(2.42702 -2.32093 0)
(2.32049 -2.44798 0)
(2.20002 -2.5619 0)
(2.06972 -2.66371 0)
(1.93255 -2.75439 0)
(1.79099 -2.8347 0)
(1.64722 -2.90563 -1.90076e-16)
(1.50294 -2.9684 1.83976e-16)
(1.36009 -3.02434 0)
(1.21747 -3.07374 0)
(1.07503 -3.11665 0)
(0.933026 -3.15353 0)
(0.791436 -3.18479 0)
(0.652659 -3.21129 0)
(0.518457 -3.23343 0)
(0.387704 -3.25081 7.68685e-17)
(0.259356 -3.26336 -7.60549e-17)
(0.131678 -3.27107 3.77355e-17)
(0.00258551 -3.27423 -3.75537e-17)
(-0.127357 -3.27321 0)
(-0.255219 -3.26793 0)
(-0.381532 -3.25797 0)
(-0.508845 -3.24312 0)
(-0.638307 -3.22331 0)
(-0.771177 -3.19872 0)
(-0.907451 -3.16947 0)
(-1.04486 -3.13497 0)
(-1.18208 -3.09442 0)
(-1.31905 -3.0474 0)
(-1.4557 -2.99383 0)
(-1.59258 -2.9339 0)
(-1.72998 -2.86712 0)
(-1.86612 -2.79201 0)
(-1.99957 -2.70746 0)
(-2.12845 -2.61288 0)
(-2.25064 -2.50778 0)
(-2.36327 -2.39119 0)
(-2.46231 -2.26226 0)
(-2.54306 -2.12022 0)
(-2.59978 -1.96442 0)
(-2.62513 -1.79454 0)
(-2.60995 -1.60955 0)
(-2.54162 -1.40548 0)
(-2.39828 -1.17688 0)
(-2.13501 -0.906805 0)
(-1.66372 -0.581915 0)
(-0.830072 -0.199361 0)
(0.606761 -0.145851 0)
(1.25343 -0.428064 0)
(1.64838 -0.678348 0)
(1.90688 -0.906632 0)
(2.08034 -1.11676 0)
(2.1921 -1.31661 0)
(2.25371 -1.50674 0)
(2.27335 -1.68648 0)
(2.25827 -1.85521 0)
(2.21494 -2.01243 0)
(2.14904 -2.15814 0)
(2.06537 -2.29261 0)
(1.96802 -2.41631 0)
(1.86044 -2.52935 -2.21956e-16)
(1.74532 -2.63221 2.1443e-16)
(1.6249 -2.72569 0)
(1.50106 -2.8103 0)
(1.3752 -2.88666 0)
(1.2482 -2.95527 0)
(1.12047 -3.01647 0)
(0.992436 -3.07046 0)
(0.864646 -3.11741 0)
(0.737815 -3.15732 0)
(0.612277 -3.19046 0)
(0.488538 -3.21754 0)
(0.366482 -3.23903 0)
(0.245456 -3.25516 0)
(0.124204 -3.26593 0)
(0.00124689 -3.27089 0)
(-0.122535 -3.26939 0)
(-0.244441 -3.26156 0)
(-0.364436 -3.24811 0)
(-0.484214 -3.22929 0)
(-0.604782 -3.20492 0)
(-0.726448 -3.17471 0)
(-0.849195 -3.13804 0)
(-0.972663 -3.09433 0)
(-1.09628 -3.04354 0)
(-1.21946 -2.9857 0)
(-1.34176 -2.92078 0)
(-1.46291 -2.84868 0)
(-1.58257 -2.76904 0)
(-1.6999 -2.68124 0)
(-1.81358 -2.58481 0)
(-1.9219 -2.47926 0)
(-2.0228 -2.36422 0)
(-2.11371 -2.23952 0)
(-2.19137 -2.10471 0)
(-2.25185 -1.95914 0)
(-2.2903 -1.80264 0)
(-2.3006 -1.63539 0)
(-2.27574 -1.4569 0)
(-2.20518 -1.26341 5.87591e-16)
(-2.07052 -1.04971 -6.05124e-16)
(-1.83409 -0.800934 0)
(-1.42137 -0.509367 0)
(-0.704097 -0.173753 0)
(0.527008 -0.131516 0)
(1.08187 -0.385452 0)
(1.421 -0.610394 0)
(1.64347 -0.816778 0)
(1.79398 -1.00846 0)
(1.89309 -1.19101 0)
(1.9508 -1.36633 0)
(1.97345 -1.53426 0)
(1.96672 -1.69401 0)
(1.93556 -1.84519 0)
(1.88462 -1.98705 0)
(1.81775 -2.11952 0)
(1.73814 -2.2432 0)
(1.64862 -2.35788 0)
(1.55163 -2.4637 0)
(1.44906 -2.5611 0)
(1.34241 -2.6504 0)
(1.23289 -2.73189 0)
(1.12139 -2.80578 0)
(1.00858 -2.87224 0)
(0.895 -2.93135 -1.90083e-16)
(0.78109 -2.98319 1.86134e-16)
(0.667225 -3.02785 0)
(0.553681 -3.06548 0)
(0.440779 -3.09636 8.86003e-17)
(0.328669 -3.12078 -8.75746e-17)
(0.21736 -3.13893 -4.33955e-17)
(0.106778 -3.15078 -3.62093e-21)
(-0.00319602 -3.15604 2.14678e-17)
(-0.112798 -3.15436 2.14396e-17)
(-0.222419 -3.14579 0)
(-0.33225 -3.1307 0)
(-0.442427 -3.10929 0)
(-0.552999 -3.08151 0)
(-0.663887 -3.04715 0)
(-0.774813 -3.00592 0)
(-0.885531 -2.95763 0)
(-0.995735 -2.90217 0)
(-1.10508 -2.8395 0)
(-1.21316 -2.7696 0)
(-1.31955 -2.69241 0)
(-1.4237 -2.60779 0)
(-1.52478 -2.51556 0)
(-1.62167 -2.4155 0)
(-1.71297 -2.30744 0)
(-1.79683 -2.19125 0)
(-1.87109 -2.06681 0)
(-1.93308 -1.93401 0)
(-1.97949 -1.79255 0)
(-2.00611 -1.64259 0)
(-2.00806 -1.48385 0)
(-1.97932 -1.316 0)
(-1.9112 -1.13651 0)
(-1.78836 -0.939821 0)
(-1.57779 -0.713519 0)
(-1.21659 -0.451352 0)
(-0.59855 -0.153404 0)
(0.4596 -0.120325 5.49361e-16)
(0.939173 -0.351807 -6.44366e-16)
(1.23081 -0.556821 0)
(1.42216 -0.743515 -6.58574e-16)
(1.55146 -0.916491 1.29123e-15)
(1.63762 -1.08177 -6.25719e-16)
(1.68929 -1.24192 0)
(1.71147 -1.39636 5.8636e-16)
(1.70878 -1.54408 -5.66883e-16)
(1.6853 -1.68462 0)
(1.64452 -1.81787 0)
(1.58978 -1.9436 0)
(1.5237 -2.06183 -2.47986e-16)
(1.44855 -2.17253 2.40215e-16)
(1.36634 -2.27572 2.32952e-16)
(1.27869 -2.37145 -2.2614e-16)
(1.18692 -2.4598 -2.19851e-16)
(1.09206 -2.54089 4.28064e-16)
(0.994952 -2.61482 -2.08703e-16)
(0.89624 -2.68163 2.03893e-16)
(0.796451 -2.74137 -2.99308e-16)
(0.696013 -2.79408 1.95678e-16)
(0.595276 -2.83978 -9.61394e-17)
(0.49451 -2.87853 0)
(0.393907 -2.91041 -9.34586e-17)
(0.293563 -2.93547 1.38678e-16)
(0.193491 -2.9538 4.97842e-21)
(0.0936527 -2.96541 -4.55641e-17)
(-0.00600273 -2.97032 0)
(-0.105476 -2.96853 0)
(-0.204765 -2.96004 0)
(-0.303889 -2.94484 0)
(-0.402894 -2.92291 0)
(-0.501796 -2.8942 0)
(-0.600544 -2.85864 -4.68192e-17)
(-0.699015 -2.81619 4.74559e-17)
(-0.797003 -2.7668 0)
(-0.894251 -2.71046 0)
(-0.990434 -2.64715 0)
(-1.08517 -2.5769 0)
(-1.17798 -2.49971 -2.10174e-16)
(-1.26828 -2.41556 4.31636e-16)
(-1.3553 -2.32442 -2.22022e-16)
(-1.43809 -2.22627 2.28827e-16)
(-1.5154 -2.12108 -2.36183e-16)
(-1.58573 -2.00884 0)
(-1.64724 -1.88957 2.52753e-16)
(-1.69764 -1.76328 -2.6192e-16)
(-1.73419 -1.63011 0)
(-1.75336 -1.4902 0)
(-1.75111 -1.3436 0)
(-1.7222 -1.18963 -6.08821e-16)
(-1.65921 -1.02497 -1.26346e-20)
(-1.5488 -0.846105 1.28826e-15)
(-1.36244 -0.641739 -6.25009e-16)
(-1.04643 -0.405183 6.15089e-16)
(-0.510795 -0.138113 -5.3677e-16)
(0.401876 -0.112312 0)
(0.820878 -0.325897 6.59352e-16)
(1.07374 -0.514276 -6.7384e-16)
(1.23794 -0.682708 -6.75143e-16)
(1.34842 -0.838523 6.6209e-16)
(1.42226 -0.988162 0)
(1.46682 -1.13281 0)
(1.48666 -1.27221 6.02836e-16)
(1.48541 -1.40645 -5.83496e-16)
(1.46658 -1.5351 0)
(1.43301 -1.65779 -2.73333e-16)
(1.38728 -1.77433 2.64702e-16)
(1.33159 -1.88446 0)
(1.26782 -1.98807 -2.48874e-16)
(1.19759 -2.08512 -1.9885e-20)
(1.12225 -2.1756 2.34946e-16)
(1.04295 -2.25948 2.28742e-16)
(0.960607 -2.33678 2.19473e-20)
(0.875981 -2.4075 -2.17739e-16)
(0.789673 -2.47162 2.13002e-16)
(0.702165 -2.52913 -2.08702e-16)
(0.613842 -2.58002 0)
(0.525011 -2.62427 0)
(0.435906 -2.6619 0)
(0.346702 -2.69291 0)
(0.25752 -2.71732 0)
(0.168437 -2.73514 4.82228e-17)
(0.0794924 -2.74637 -4.79563e-17)
(-0.00929772 -2.75105 -2.39074e-17)
(-0.0979145 -2.74916 1.79141e-17)
(-0.18638 -2.74066 5.9813e-18)
(-0.27469 -2.72558 0)
(-0.362819 -2.70392 0)
(-0.450714 -2.67567 0)
(-0.538283 -2.64082 4.93094e-17)
(-0.625394 -2.59938 -4.99589e-17)
(-0.71187 -2.55135 1.01484e-16)
(-0.797483 -2.49676 1.26579e-20)
(-0.881942 -2.43564 1.25513e-20)
(-0.964889 -2.36804 -1.07635e-16)
(-1.04588 -2.29402 -2.20445e-16)
(-1.12436 -2.21362 2.26111e-16)
(-1.19963 -2.12689 -2.32376e-16)
(-1.27084 -2.03389 2.39159e-16)
(-1.33692 -1.93468 -2.46566e-16)
(-1.39659 -1.82934 2.54518e-16)
(-1.44826 -1.71795 2.63102e-16)
(-1.49004 -1.60064 1.86118e-20)
(-1.51958 -1.47758 -5.63886e-16)
(-1.53406 -1.34901 2.9214e-16)
(-1.53001 -1.21505 0)
(-1.503 -1.07573 0)
(-1.44644 -0.927724 0)
(-1.34825 -0.766161 -6.63932e-16)
(-1.18375 -0.581697 -9.53589e-21)
(-0.905629 -0.368384 1.27074e-15)
(-0.437817 -0.126532 -5.53204e-16)
(0.351612 -0.106822 0)
(0.721809 -0.306089 0)
(0.943554 -0.479388 0)
(1.08506 -0.632062 0)
(1.17929 -0.772331 0)
(1.2415 -0.905711 0)
(1.27877 -1.03468 0)
(1.29521 -1.16007 0)
(1.29407 -1.28134 0)
(1.27809 -1.398 0)
(1.24965 -1.50967 0)
(1.21075 -1.61606 0)
(1.16317 -1.71697 -2.65102e-16)
(1.10846 -1.81223 2.57457e-16)
(1.04797 -1.90173 0)
(0.982841 -1.98539 -2.43714e-16)
(0.914045 -2.06315 -2.56753e-20)
(0.842388 -2.13495 2.31876e-16)
(0.768537 -2.20076 2.26727e-16)
(0.693029 -2.26053 -2.2201e-16)
(0.616301 -2.31423 0)
(0.538703 -2.36181 0)
(0.460511 -2.40324 0)
(0.381936 -2.4385 0)
(0.303144 -2.46757 0)
(0.224252 -2.49044 0)
(0.145345 -2.50709 -5.05887e-17)
(0.0664836 -2.51752 5.03358e-17)
(-0.0122751 -2.52177 2.51051e-17)
(-0.0909184 -2.5198 -3.13648e-17)
(-0.169412 -2.51155 6.28432e-18)
(-0.247726 -2.49708 0)
(-0.325814 -2.47641 0)
(-0.403609 -2.44954 0)
(-0.481021 -2.4165 -5.17959e-17)
(-0.557926 -2.37731 5.24593e-17)
(-0.63416 -2.332 -1.06517e-16)
(-0.709517 -2.28063 1.08333e-16)
(-0.783733 -2.22326 1.10428e-16)
(-0.856477 -2.15995 1.46242e-20)
(-0.927339 -2.09079 -1.15347e-16)
(-0.995817 -2.01584 -2.36452e-16)
(-1.06129 -1.9352 2.42698e-16)
(-1.12299 -1.84896 0)
(-1.18 -1.75723 0)
(-1.23121 -1.66011 -2.64937e-16)
(-1.27529 -1.55776 2.73465e-16)
(-1.31063 -1.45032 0)
(-1.33529 -1.33803 0)
(-1.34689 -1.22111 3.0238e-16)
(-1.34248 -1.09989 -6.26058e-16)
(-1.31825 -0.974172 3.24371e-16)
(-1.26838 -0.841745 -6.66168e-16)
(-1.18206 -0.697869 6.83944e-16)
(-1.0365 -0.532467 0)
(-0.789365 -0.338805 0)
(-0.376127 -0.117436 0)
(0.306755 -0.102768 -5.84209e-16)
(0.63753 -0.290517 6.90185e-16)
(0.834196 -0.450155 7.06907e-16)
(0.957017 -0.588272 -1.41808e-15)
(1.03695 -0.712927 -2.1661e-20)
(1.08874 -0.831365 1.35035e-15)
(1.11932 -0.946872 -6.55534e-16)
(1.13239 -1.05934 0)
(1.13075 -1.16838 0)
(1.11666 -1.27356 -2.9922e-16)
(1.09202 -1.37451 -2.33849e-20)
(1.05847 -1.47091 2.81742e-16)
(1.01741 -1.56254 -2.73717e-16)
(0.970121 -1.6492 5.32282e-16)
(0.917694 -1.73077 2.78636e-20)
(0.861097 -1.80713 -2.52491e-16)
(0.801156 -1.8782 2.46446e-16)
(0.738571 -1.94392 -2.40828e-16)
(0.673925 -2.0042 0)
(0.607703 -2.05899 1.15564e-16)
(0.540302 -2.10825 -2.26968e-16)
(0.472037 -2.15192 2.23296e-16)
(0.403158 -2.18995 -1.10038e-16)
(0.33386 -2.22232 1.08683e-16)
(0.264297 -2.24899 -5.37549e-17)
(0.194583 -2.26994 -1.06622e-16)
(0.12481 -2.28514 5.29643e-17)
(0.0550529 -2.29462 0)
(-0.0146488 -2.29836 -1.31563e-17)
(-0.0842917 -2.2963 1.31529e-17)
(-0.153814 -2.28845 0)
(-0.223167 -2.27484 0)
(-0.292296 -2.25551 0)
(-0.361133 -2.23047 0)
(-0.429592 -2.19975 5.43051e-17)
(-0.497555 -2.16339 -5.49833e-17)
(-0.564869 -2.12144 0)
(-0.631345 -2.07395 0)
(-0.69674 -2.021 -1.15563e-16)
(-0.760756 -1.96266 1.17908e-16)
(-0.823023 -1.89901 -1.20544e-16)
(-0.883084 -1.83014 -1.23444e-16)
(-0.940389 -1.75616 -3.14472e-20)
(-0.994271 -1.67717 5.20015e-16)