/*--------------------------------*- C++ -*----------------------------------*\
| =========                 |                                                 |
| \\      /  F ield         | OpenFOAM: The Open Source CFD Toolbox           |
|  \\    /   O peration     | Version:  2212                                  |
|   \\  /    A nd           | Website:  www.openfoam.com                      |
|    \\/     M anipulation  |                                                 |
\*---------------------------------------------------------------------------*/
FoamFile
{
    version     2.0;
    format      ascii;
    arch        "LSB;label=32;scalar=64";
    class       volScalarField;
    location    "0.0776";
    object      s;
}
// * * * * * * * * * * * * * * * * * * * * * * * * * * * * * * * * * * * * * //

dimensions      [0 0 0 0 0 0 0];

internalField   nonuniform List<scalar> 
24240
(
4.57167e-128
4.61871e-128
4.7444e-128
4.49752e-128
4.675e-128
4.66245e-128
4.65027e-128
4.53636e-128
4.48643e-128
4.75611e-128
4.47209e-128
4.75502e-128
4.48156e-128
4.68429e-128
4.43917e-128
4.70314e-128
4.36144e-128
4.55841e-128
4.65427e-128
4.3125e-128
6.95725e-125
7.02248e-125
7.21656e-125
6.83815e-125
7.11026e-125
7.08826e-125
7.06934e-125
6.89444e-125
6.82275e-125
7.2292e-125
6.80127e-125
7.22967e-125
6.81458e-125
7.12171e-125
6.75223e-125
7.15249e-125
6.63335e-125
6.93023e-125
7.07609e-125
6.55724e-125
6.28152e-122
6.33438e-122
6.51254e-122
6.16806e-122
6.41577e-122
6.39329e-122
6.3756e-122
6.21618e-122
6.15517e-122
6.51898e-122
6.1362e-122
6.52124e-122
6.14726e-122
6.42352e-122
6.09306e-122
6.4532e-122
5.98487e-122
6.25052e-122
6.38238e-122
5.91456e-122
3.24256e-119
3.2666e-119
3.36031e-119
3.18085e-119
3.30988e-119
3.29697e-119
3.28742e-119
3.20427e-119
3.17461e-119
3.36108e-119
3.16512e-119
3.36315e-119
3.17042e-119
3.31266e-119
3.14362e-119
3.32896e-119
3.08713e-119
3.2232e-119
3.29146e-119
3.04995e-119
1.2669e-116
1.27492e-116
1.31239e-116
1.24147e-116
1.29243e-116
1.28689e-116
1.28288e-116
1.25001e-116
1.23907e-116
1.31161e-116
1.23553e-116
1.31273e-116
1.23746e-116
1.29301e-116
1.22753e-116
1.29975e-116
1.20505e-116
1.25791e-116
1.28473e-116
1.19012e-116
3.45113e-114
3.46891e-114
3.57409e-114
3.37804e-114
3.51873e-114
3.50244e-114
3.4904e-114
3.39957e-114
3.37128e-114
3.56895e-114
3.36225e-114
3.57262e-114
3.36736e-114
3.51912e-114
3.34202e-114
3.53845e-114
3.27896e-114
3.42268e-114
3.49647e-114
3.23697e-114
6.70599e-112
6.73119e-112
6.94528e-112
6.55565e-112
6.83436e-112
6.80125e-112
6.7736e-112
6.59345e-112
6.53999e-112
6.92891e-112
6.5244e-112
6.93607e-112
6.53489e-112
6.8334e-112
6.49049e-112
6.87227e-112
6.36059e-112
6.64237e-112
6.7887e-112
6.27559e-112
8.48551e-110
8.50132e-110
8.80177e-110
8.28491e-110
8.65037e-110
8.61351e-110
8.56409e-110
8.32535e-110
8.25154e-110
8.77416e-110
8.23771e-110
8.77619e-110
8.25704e-110
8.65344e-110
8.21392e-110
8.69967e-110
8.01729e-110
8.39686e-110
8.59326e-110
7.90218e-110
4.35072e-108
4.37137e-108
4.4367e-108
4.23336e-108
4.39565e-108
4.33473e-108
4.35576e-108
4.26432e-108
4.2714e-108
4.40555e-108
4.24987e-108
4.44428e-108
4.22785e-108
4.36418e-108
4.17071e-108
4.41131e-108
4.20729e-108
4.28331e-108
4.34524e-108
4.17126e-108
4.76067e-108
4.8028e-108
4.75841e-108
4.61458e-108
4.75972e-108
4.63889e-108
4.71977e-108
4.66287e-108
4.73157e-108
4.70625e-108
4.68645e-108
4.79756e-108
4.62086e-108
4.67888e-108
4.51189e-108
4.76442e-108
4.74135e-108
4.65899e-108
4.67733e-108
4.73293e-108
6.63723e-108
6.80317e-108
6.73902e-108
6.76444e-108
6.65097e-108
6.74957e-108
6.8641e-108
6.74963e-108
6.88348e-108
6.9993e-108
6.82124e-108
6.98192e-108
6.78993e-108
6.69187e-108
6.65921e-108
6.79261e-108
6.72646e-108
6.69664e-108
6.69934e-108
6.78517e-108
8.20211e-108
8.30086e-108
8.29167e-108
8.29144e-108
8.13138e-108
7.96966e-108
8.07018e-108
7.92531e-108
8.14811e-108
8.51581e-108
8.41829e-108
8.14304e-108
8.29779e-108
8.24487e-108
8.18576e-108
8.30195e-108
7.92961e-108
8.3177e-108
8.19607e-108
8.17136e-108
9.16767e-108
9.55626e-108
9.34854e-108
9.38368e-108
9.28176e-108
9.45837e-108
9.75073e-108
9.35147e-108
9.40753e-108
9.35446e-108
9.36653e-108
9.32767e-108
9.27263e-108
9.20045e-108
9.00564e-108
9.28602e-108
9.37032e-108
9.15833e-108
9.10309e-108
9.18361e-108
1.03118e-107
1.04651e-107
1.06981e-107
1.07161e-107
1.05592e-107
1.08277e-107
1.05696e-107
1.07256e-107
1.07134e-107
1.01943e-107
1.03555e-107
1.02817e-107
1.03867e-107
1.01164e-107
1.02096e-107
1.02016e-107
1.03021e-107
1.04005e-107
1.03311e-107
1.04794e-107
1.05467e-107
1.07067e-107
1.08126e-107
1.08706e-107
1.06885e-107
1.06649e-107
1.07222e-107
1.09444e-107
1.05829e-107
1.07573e-107
1.0576e-107
1.06509e-107
1.09606e-107
1.06781e-107
1.04958e-107
1.11105e-107
1.05936e-107
1.05693e-107
1.06962e-107
1.10254e-107
1.10763e-107
1.09703e-107
1.12138e-107
1.09318e-107
1.10845e-107
1.10955e-107
1.12857e-107
1.11121e-107
1.07737e-107
1.09191e-107
1.097e-107
1.13391e-107
1.10728e-107
1.12723e-107
1.1302e-107
1.12415e-107
1.12188e-107
1.10353e-107
1.0989e-107
1.10518e-107
9.97061e-108
1.01823e-107
1.00212e-107
1.04794e-107
1.02038e-107
1.05147e-107
1.03431e-107
1.02706e-107
1.02205e-107
1.02511e-107
1.01305e-107
1.04235e-107
1.03676e-107
1.05708e-107
1.01961e-107
1.04799e-107
1.04308e-107
9.98005e-108
1.04925e-107
1.03408e-107
9.52248e-108
1.00065e-107
9.80751e-108
9.83744e-108
9.65755e-108
1.01283e-107
1.00075e-107
9.92563e-108
9.92874e-108
9.64868e-108
9.90619e-108
1.01358e-107
9.7804e-108
1.04328e-107
1.0012e-107
1.02197e-107
1.03529e-107
9.94764e-108
1.0173e-107
1.02265e-107
8.28391e-108
8.25651e-108
8.12288e-108
8.31236e-108
8.50855e-108
8.45528e-108
8.33001e-108
8.09495e-108
8.45021e-108
8.18604e-108
8.41966e-108
8.43058e-108
8.32385e-108
8.47108e-108
8.56432e-108
8.60286e-108
8.36891e-108
8.62134e-108
8.50544e-108
8.77982e-108
6.56411e-108
6.65346e-108
6.58239e-108
6.54472e-108
6.77604e-108
6.64493e-108
6.92086e-108
6.64661e-108
6.92348e-108
6.87578e-108
6.75719e-108
6.97951e-108
6.65795e-108
6.99475e-108
6.75363e-108
6.71202e-108
6.89792e-108
6.97957e-108
6.81871e-108
7.12079e-108
3.70263e-126
3.73819e-126
3.84047e-126
3.64035e-126
3.78418e-126
3.77303e-126
3.76348e-126
3.67059e-126
3.63223e-126
3.84801e-126
3.62063e-126
3.8481e-126
3.62767e-126
3.7907e-126
3.59404e-126
3.80676e-126
3.53116e-126
3.68896e-126
3.7662e-126
3.49108e-126
6.67648e-123
6.73435e-123
6.92163e-123
6.55805e-123
6.81943e-123
6.79654e-123
6.77885e-123
6.60985e-123
6.54478e-123
6.93022e-123
6.5243e-123
6.93246e-123
6.53598e-123
6.8287e-123
6.47749e-123
6.85971e-123
6.36348e-123
6.64531e-123
6.78465e-123
6.28958e-123
6.56622e-120
6.61671e-120
6.80412e-120
6.44349e-120
6.70272e-120
6.67755e-120
6.65942e-120
6.49156e-120
6.43137e-120
6.8074e-120
6.41177e-120
6.81148e-120
6.42235e-120
6.70927e-120
6.36709e-120
6.74174e-120
6.25389e-120
6.52872e-120
6.66602e-120
6.1795e-120
3.61825e-117
3.64241e-117
3.74773e-117
3.54713e-117
3.69127e-117
3.67604e-117
3.6655e-117
3.57202e-117
3.54081e-117
3.74672e-117
3.53041e-117
3.74993e-117
3.53583e-117
3.69361e-117
3.50675e-117
3.71257e-117
3.44349e-117
3.59389e-117
3.66981e-117
3.40148e-117
1.45229e-114
1.46039e-114
1.50372e-114
1.42224e-114
1.48073e-114
1.47409e-114
1.46951e-114
1.43152e-114
1.41969e-114
1.50209e-114
1.41573e-114
1.5037e-114
1.41779e-114
1.48114e-114
1.40675e-114
1.48916e-114
1.38078e-114
1.4409e-114
1.47158e-114
1.36344e-114
4.06305e-112
4.08082e-112
4.20603e-112
3.97453e-112
4.14042e-112
4.12066e-112
4.10632e-112
3.99838e-112
3.96682e-112
4.19802e-112
3.9566e-112
4.20312e-112
3.96231e-112
4.14034e-112
3.93364e-112
4.16384e-112
3.85825e-112
4.02662e-112
4.11346e-112
3.80808e-112
7.851e-110
7.87407e-110
8.12862e-110
7.67042e-110
7.99743e-110
7.95817e-110
7.92487e-110
7.71156e-110
7.65156e-110
8.10592e-110
7.63444e-110
8.1153e-110
7.64666e-110
7.99583e-110
7.59744e-110
8.04248e-110
7.44107e-110
7.77112e-110
7.94293e-110
7.33974e-110
9.83688e-108
9.84644e-108
1.0202e-107
9.59875e-108
1.00239e-107
9.98146e-108
9.92187e-108
9.64126e-108
9.5575e-108
1.01658e-107
9.54356e-108
1.01686e-107
9.5669e-108
1.00276e-107
9.52138e-108
1.00823e-107
9.28366e-108
9.72769e-108
9.95694e-108
9.14698e-108
4.89588e-106
4.91619e-106
4.99054e-106
4.76205e-106
4.94404e-106
4.87573e-106
4.89945e-106
4.79539e-106
4.80525e-106
4.95427e-106
4.78136e-106
4.9983e-106
4.75623e-106
4.90896e-106
4.69298e-106
4.96213e-106
4.73332e-106
4.81755e-106
4.88699e-106
4.69256e-106
5.33352e-106
5.37957e-106
5.33027e-106
5.17072e-106
5.33139e-106
5.19854e-106
5.28945e-106
5.22408e-106
5.30212e-106
5.27256e-106
5.25149e-106
5.37419e-106
5.17783e-106
5.2433e-106
5.05647e-106
5.33728e-106
5.31173e-106
5.21952e-106
5.23983e-106
5.30311e-106
7.43017e-106
7.61444e-106
7.54525e-106
7.56941e-106
7.44478e-106
7.55377e-106
7.68312e-106
7.55281e-106
7.70567e-106
7.82946e-106
7.63605e-106
7.81207e-106
7.59832e-106
7.48997e-106
7.45124e-106
7.60116e-106
7.5274e-106
7.49449e-106
7.49936e-106
7.59465e-106
9.13183e-106
9.24151e-106
9.23317e-106
9.22959e-106
9.05345e-106
8.87241e-106
8.98747e-106
8.8244e-106
9.07519e-106
9.48027e-106
9.37297e-106
9.0647e-106
9.24208e-106
9.18015e-106
9.11589e-106
9.24368e-106
8.8286e-106
9.26013e-106
9.12316e-106
9.09879e-106
1.01896e-105
1.0617e-105
1.03898e-105
1.04237e-105
1.03163e-105
1.05106e-105
1.0837e-105
1.03899e-105
1.04528e-105
1.03925e-105
1.04072e-105
1.03646e-105
1.03075e-105
1.02255e-105
1.00102e-105
1.03192e-105
1.04128e-105
1.01774e-105
1.01161e-105
1.02062e-105
1.13364e-105
1.15019e-105
1.1756e-105
1.17792e-105
1.16076e-105
1.19008e-105
1.16173e-105
1.17893e-105
1.17761e-105
1.12025e-105
1.13818e-105
1.13021e-105
1.14186e-105
1.11222e-105
1.12219e-105
1.12154e-105
1.13233e-105
1.14341e-105
1.13569e-105
1.15214e-105
1.15776e-105
1.17501e-105
1.18686e-105
1.19285e-105
1.17289e-105
1.17072e-105
1.17712e-105
1.20125e-105
1.16158e-105
1.1807e-105
1.1612e-105
1.16918e-105
1.20279e-105
1.17214e-105
1.15235e-105
1.21942e-105
1.16301e-105
1.16005e-105
1.17409e-105
1.20964e-105
1.19464e-105
1.18263e-105
1.20893e-105
1.17885e-105
1.19543e-105
1.19687e-105
1.21701e-105
1.19836e-105
1.16195e-105
1.1775e-105
1.18261e-105
1.22278e-105
1.19416e-105
1.2159e-105
1.2186e-105
1.21253e-105
1.20958e-105
1.19042e-105
1.18506e-105
1.19187e-105
1.07649e-105
1.09894e-105
1.08175e-105
1.1313e-105
1.10137e-105
1.1349e-105
1.11615e-105
1.10878e-105
1.1031e-105
1.10633e-105
1.09359e-105
1.125e-105
1.11851e-105
1.14102e-105
1.10028e-105
1.13108e-105
1.12553e-105
1.07705e-105
1.13216e-105
1.11623e-105
1.00356e-105
1.05472e-105
1.03367e-105
1.03671e-105
1.01764e-105
1.06772e-105
1.05478e-105
1.04641e-105
1.04644e-105
1.01708e-105
1.04433e-105
1.06845e-105
1.03088e-105
1.09967e-105
1.05504e-105
1.07691e-105
1.091e-105
1.04846e-105
1.07221e-105
1.07782e-105
8.77941e-106
8.7491e-106
8.60926e-106
8.80926e-106
9.01709e-106
8.95947e-106
8.82591e-106
8.58036e-106
8.95669e-106
8.67463e-106
8.92314e-106
8.93265e-106
8.81975e-106
8.97789e-106
9.07322e-106
9.11787e-106
8.86631e-106
9.1348e-106
9.01128e-106
9.30293e-106
6.83291e-106
6.92534e-106
6.85138e-106
6.81263e-106
7.05167e-106
6.91707e-106
7.19989e-106
6.919e-106
7.20282e-106
7.15622e-106
7.03238e-106
7.26303e-106
6.93063e-106
7.28021e-106
7.02756e-106
6.9859e-106
7.17708e-106
7.26239e-106
7.09655e-106
7.40801e-106
3.85203e-124
3.8862e-124
3.99312e-124
3.78462e-124
3.93446e-124
3.92163e-124
3.91199e-124
3.81471e-124
3.7771e-124
3.99862e-124
3.76504e-124
3.99982e-124
3.77163e-124
3.93993e-124
3.73736e-124
3.95756e-124
3.67226e-124
3.83436e-124
3.91428e-124
3.63005e-124
7.40401e-121
7.46267e-121
7.67144e-121
7.26766e-121
7.55791e-121
7.53028e-121
7.51117e-121
7.32247e-121
7.25463e-121
7.67661e-121
7.23207e-121
7.6812e-121
7.24369e-121
7.56589e-121
7.18028e-121
7.60206e-121
7.05433e-121
7.36302e-121
7.51679e-121
6.97138e-121
7.45117e-118
7.50284e-118
7.71675e-118
7.30692e-118
7.60146e-118
7.57082e-118
7.55069e-118
7.35888e-118
7.29479e-118
7.71634e-118
7.27287e-118
7.72305e-118
7.28366e-118
7.60698e-118
7.22253e-118
7.64559e-118
7.09433e-118
7.40256e-118
7.5577e-118
7.0089e-118
4.22051e-115
4.24547e-115
4.36912e-115
4.13477e-115
4.30309e-115
4.28427e-115
4.27217e-115
4.16232e-115
4.12819e-115
4.36568e-115
4.11631e-115
4.37054e-115
4.12202e-115
4.30487e-115
4.08904e-115
4.32794e-115
4.01521e-115
4.18875e-115
4.27699e-115
3.96561e-115
1.69646e-112
1.70461e-112
1.75562e-112
1.66027e-112
1.72866e-112
1.72056e-112
1.71524e-112
1.6705e-112
1.65752e-112
1.75285e-112
1.65304e-112
1.75514e-112
1.65524e-112
1.72882e-112
1.64276e-112
1.73856e-112
1.61226e-112
1.68185e-112
1.71761e-112
1.59175e-112
4.75696e-110
4.77399e-110
4.92206e-110
4.65037e-110
4.8448e-110
4.82092e-110
4.80402e-110
4.6765e-110
4.64165e-110
4.91035e-110
4.6302e-110
4.9173e-110
4.63649e-110
4.84405e-110
4.60424e-110
4.87247e-110
4.51489e-110
4.71077e-110
4.81235e-110
4.4553e-110
9.03424e-108
9.05335e-108
9.35026e-108
8.82109e-108
9.19796e-108
9.15209e-108
9.11291e-108
8.86482e-108
8.79893e-108
9.32003e-108
8.78056e-108
9.33214e-108
8.79443e-108
9.19547e-108
8.74079e-108
9.2506e-108
8.55656e-108
8.93595e-108
9.13401e-108
8.43796e-108
1.1188e-105
1.11888e-105
1.16005e-105
1.09106e-105
1.13954e-105
1.13471e-105
1.12771e-105
1.09539e-105
1.08611e-105
1.15544e-105
1.08476e-105
1.15585e-105
1.0875e-105
1.13995e-105
1.08279e-105
1.14634e-105
1.05478e-105
1.10562e-105
1.13183e-105
1.03888e-105
5.4003e-104
5.41945e-104
5.50235e-104
5.25078e-104
5.45072e-104
5.37573e-104
5.40192e-104
5.28584e-104
5.2988e-104
5.46103e-104
5.27286e-104
5.51006e-104
5.24476e-104
5.41244e-104
5.17615e-104
5.47121e-104
5.21973e-104
5.31117e-104
5.38748e-104
5.17455e-104
5.85257e-104
5.90182e-104
5.84819e-104
5.67492e-104
5.84903e-104
5.7061e-104
5.80615e-104
5.7326e-104
5.81947e-104
5.78571e-104
5.76383e-104
5.89645e-104
5.68281e-104
5.75514e-104
5.55047e-104
5.85616e-104
5.82846e-104
5.72738e-104
5.74942e-104
5.81991e-104
8.15034e-104
8.35072e-104
8.27776e-104
8.29949e-104
8.16549e-104
8.28347e-104
8.42657e-104
8.28124e-104
8.45223e-104
8.58146e-104
8.37593e-104
8.56468e-104
8.33162e-104
8.21432e-104
8.16946e-104
8.33454e-104
8.254e-104
8.2184e-104
8.22578e-104
8.32945e-104
9.96501e-104
1.00844e-103
1.00773e-103
1.00697e-103
9.87983e-104
9.68123e-104
9.81024e-104
9.63037e-104
9.90706e-104
1.03443e-103
1.02286e-103
9.8903e-104
1.00894e-103
1.00185e-103
9.95014e-104
1.00878e-103
9.63425e-104
1.01046e-103
9.95337e-104
9.93021e-104
1.11084e-103
1.15694e-103
1.13257e-103
1.1357e-103
1.12465e-103
1.1456e-103
1.18134e-103
1.13224e-103
1.13916e-103
1.13246e-103
1.13419e-103
1.12961e-103
1.12383e-103
1.11471e-103
1.09138e-103
1.12476e-103
1.13496e-103
1.10931e-103
1.10265e-103
1.11252e-103
1.22426e-103
1.24179e-103
1.269e-103
1.27188e-103
1.25346e-103
1.28487e-103
1.25431e-103
1.27293e-103
1.2715e-103
1.20928e-103
1.22887e-103
1.22042e-103
1.23311e-103
1.20118e-103
1.21165e-103
1.21119e-103
1.22256e-103
1.2348e-103
1.22637e-103
1.2443e-103
1.24963e-103
1.26791e-103
1.28094e-103
1.28707e-103
1.26549e-103
1.26361e-103
1.27063e-103
1.29646e-103
1.25359e-103
1.27425e-103
1.25359e-103
1.26195e-103
1.29783e-103
1.2651e-103
1.24398e-103
1.31598e-103
1.25541e-103
1.25189e-103
1.26717e-103
1.30496e-103
1.27056e-103
1.25716e-103
1.28516e-103
1.25352e-103
1.27128e-103
1.27308e-103
1.29409e-103
1.27436e-103
1.23572e-103
1.25215e-103
1.25715e-103
1.30024e-103
1.26994e-103
1.29329e-103
1.29561e-103
1.28966e-103
1.28597e-103
1.26629e-103
1.26019e-103
1.26744e-103
1.14754e-103
1.171e-103
1.15293e-103
1.2058e-103
1.17372e-103
1.20938e-103
1.18918e-103
1.18182e-103
1.17546e-103
1.17885e-103
1.16556e-103
1.19881e-103
1.19141e-103
1.21598e-103
1.17228e-103
1.20525e-103
1.19908e-103
1.14762e-103
1.20609e-103
1.18963e-103
1.05091e-103
1.10459e-103
1.08249e-103
1.08559e-103
1.06553e-103
1.11841e-103
1.10464e-103
1.09615e-103
1.09585e-103
1.06532e-103
1.09391e-103
1.11909e-103
1.07968e-103
1.15168e-103
1.10465e-103
1.12753e-103
1.14232e-103
1.09796e-103
1.12286e-103
1.12866e-103
9.25738e-104
9.22461e-104
9.07903e-104
9.28865e-104
9.5073e-104
9.44597e-104
9.30422e-104
9.04938e-104
9.44571e-104
9.14576e-104
9.40913e-104
9.41706e-104
9.29778e-104
9.46746e-104
9.56399e-104
9.61522e-104
9.34643e-104
9.63006e-104
9.49918e-104
9.80751e-104
7.1686e-104
7.26488e-104
7.18731e-104
7.14722e-104
7.39606e-104
7.25689e-104
7.54873e-104
7.25899e-104
7.55206e-104
7.50637e-104
7.37612e-104
7.6172e-104
7.27111e-104
7.6366e-104
7.36996e-104
7.32802e-104
7.52599e-104
7.61587e-104
7.4436e-104
7.76715e-104
4.76372e-122
4.80234e-122
4.93525e-122
4.67698e-122
4.86267e-122
4.84522e-122
4.83366e-122
4.71261e-122
4.66903e-122
4.93934e-122
4.65429e-122
4.94235e-122
4.66158e-122
4.86814e-122
4.62018e-122
4.89123e-122
4.54024e-122
4.73805e-122
4.83641e-122
4.48741e-122
8.94002e-119
9.00406e-119
9.25738e-119
8.76919e-119
9.12018e-119
9.08406e-119
9.06165e-119
8.83238e-119
8.7558e-119
9.25862e-119
8.72895e-119
9.26692e-119
8.74143e-119
9.12753e-119
8.66669e-119
9.17353e-119
8.51558e-119
8.8834e-119
9.06818e-119
8.41428e-119
8.79182e-116
8.84613e-116
9.09977e-116
8.61568e-116
8.96356e-116
8.92492e-116
8.90176e-116
8.67396e-116
8.6034e-116
9.09444e-116
8.57798e-116
9.10494e-116
8.58925e-116
8.96791e-116
8.51892e-116
9.01565e-116
8.36839e-116
8.72742e-116
8.90962e-116
8.26646e-116
5.01295e-113
5.03876e-113
5.18644e-113
4.9078e-113
5.10786e-113
5.08424e-113
5.07013e-113
4.93875e-113
4.90096e-113
5.17967e-113
4.88719e-113
5.18683e-113
4.8932e-113
5.10886e-113
4.8551e-113
5.13746e-113
4.7676e-113
4.97126e-113
5.07564e-113
4.70802e-113
1.99291e-110
2.00094e-110
2.06126e-110
1.94911e-110
2.0295e-110
2.01955e-110
2.01336e-110
1.96041e-110
1.94618e-110
2.05699e-110
1.94108e-110
2.06017e-110
1.94341e-110
2.02932e-110
1.92921e-110
2.04119e-110
1.89331e-110
1.97421e-110
2.01608e-110
1.86892e-110
5.52873e-108
5.54418e-108
5.71771e-108
5.40142e-108
5.62749e-108
5.59884e-108
5.57916e-108
5.42972e-108
5.39173e-108
5.70141e-108
5.37901e-108
5.71067e-108
5.3858e-108
5.62583e-108
5.34974e-108
5.65997e-108
5.245e-108
5.47091e-108
5.58877e-108
5.17485e-108
1.03199e-105
1.03333e-105
1.06764e-105
1.00703e-105
1.05011e-105
1.04478e-105
1.04023e-105
1.01161e-105
1.00446e-105
1.06371e-105
1.00252e-105
1.06527e-105
1.00406e-105
1.04974e-105
9.98255e-106
1.05622e-105
9.76805e-106
1.02002e-105
1.04266e-105
9.63044e-106
1.2611e-103
1.26008e-103
1.30718e-103
1.22908e-103
1.28383e-103
1.27834e-103
1.27025e-103
1.2334e-103
1.22325e-103
1.30142e-103
1.222e-103
1.30202e-103
1.22514e-103
1.28424e-103
1.22033e-103
1.29165e-103
1.18781e-103
1.24535e-103
1.27501e-103
1.16952e-103
5.89999e-102
5.91736e-102
6.00885e-102
5.73463e-102
5.95208e-102
5.87064e-102
5.89927e-102
5.77102e-102
5.78742e-102
5.96235e-102
5.75958e-102
6.01638e-102
5.72849e-102
5.91079e-102
5.65478e-102
5.97509e-102
5.70136e-102
5.79967e-102
5.88272e-102
5.65179e-102
6.35717e-102
6.40928e-102
6.35153e-102
6.16535e-102
6.35202e-102
6.19993e-102
6.30887e-102
6.227e-102
6.32273e-102
6.28464e-102
6.26221e-102
6.40403e-102
6.17403e-102
6.25309e-102
6.03119e-102
6.36047e-102
6.33077e-102
6.22112e-102
6.24479e-102
6.32247e-102
8.85395e-102
9.06965e-102
8.99364e-102
9.01206e-102
8.86945e-102
8.99586e-102
9.15258e-102
8.9921e-102
9.18145e-102
9.31467e-102
9.09864e-102
9.29893e-102
9.04737e-102
8.92161e-102
8.87037e-102
9.05031e-102
8.96327e-102
8.92512e-102
8.93537e-102
9.04704e-102
1.07727e-101
1.09014e-101
1.0896e-101
1.08837e-101
1.0681e-101
1.04652e-101
1.06084e-101
1.04119e-101
1.07143e-101
1.11817e-101
1.10582e-101
1.06904e-101
1.09116e-101
1.08313e-101
1.07594e-101
1.09062e-101
1.04153e-101
1.0923e-101
1.07577e-101
1.07364e-101
1.20065e-101
1.24994e-101
1.22403e-101
1.22681e-101
1.21558e-101
1.23795e-101
1.27676e-101
1.22331e-101
1.23085e-101
1.22347e-101
1.22548e-101
1.22061e-101
1.21485e-101
1.20481e-101
1.17973e-101
1.21548e-101
1.22648e-101
1.1988e-101
1.19162e-101
1.20233e-101
1.31294e-101
1.33139e-101
1.36029e-101
1.36382e-101
1.34416e-101
1.37756e-101
1.34488e-101
1.36489e-101
1.36333e-101
1.29634e-101
1.31757e-101
1.30869e-101
1.3224e-101
1.28826e-101
1.29917e-101
1.29893e-101
1.31083e-101
1.32425e-101
1.3151e-101
1.33451e-101
1.34072e-101
1.36001e-101
1.3742e-101
1.3804e-101
1.35723e-101
1.35572e-101
1.36335e-101
1.39083e-101
1.34474e-101
1.36697e-101
1.34525e-101
1.35393e-101
1.392e-101
1.35726e-101
1.33487e-101
1.41165e-101
1.34705e-101
1.34292e-101
1.35948e-101
1.39935e-101
1.34886e-101
1.33396e-101
1.3637e-101
1.33047e-101
1.34948e-101
1.35167e-101
1.37354e-101
1.35269e-101
1.31176e-101
1.32907e-101
1.33396e-101
1.38007e-101
1.34804e-101
1.3731e-101
1.37499e-101
1.36917e-101
1.3647e-101
1.34454e-101
1.33764e-101
1.34532e-101
1.22187e-101
1.24634e-101
1.22738e-101
1.28373e-101
1.24937e-101
1.28725e-101
1.26553e-101
1.25823e-101
1.25112e-101
1.25468e-101
1.24084e-101
1.27598e-101
1.2676e-101
1.29434e-101
1.24754e-101
1.28279e-101
1.27595e-101
1.22141e-101
1.28336e-101
1.26638e-101
1.1068e-101
1.16339e-101
1.14006e-101
1.14326e-101
1.12205e-101
1.17816e-101
1.16342e-101
1.15477e-101
1.15411e-101
1.12222e-101
1.15235e-101
1.17878e-101
1.13727e-101
1.21297e-101
1.16316e-101
1.18724e-101
1.20282e-101
1.15631e-101
1.18259e-101
1.18861e-101
9.8151e-102
9.77987e-102
9.62751e-102
9.8482e-102
1.00793e-101
1.0014e-101
9.86267e-102
9.59704e-102
1.00165e-101
9.69564e-102
9.97645e-102
9.98274e-102
9.85569e-102
1.00391e-101
1.01371e-101
1.01959e-101
9.90734e-102
1.02083e-101
1.00689e-101
1.03966e-101
7.53313e-102
7.63351e-102
7.55206e-102
7.51053e-102
7.76992e-102
7.62585e-102
7.92725e-102
7.62804e-102
7.93104e-102
7.88637e-102
7.74921e-102
8.00154e-102
7.64076e-102
8.02334e-102
7.74165e-102
7.6994e-102
7.90462e-102
7.99949e-102
7.82028e-102
8.15688e-102
5.64654e-120
5.68807e-120
5.84616e-120
5.53977e-120
5.76013e-120
5.73757e-120
5.7244e-120
5.58008e-120
5.53191e-120
5.8477e-120
5.51461e-120
5.85308e-120
5.52215e-120
5.76493e-120
5.47411e-120
5.7938e-120
5.38033e-120
5.61135e-120
5.72727e-120
5.31702e-120
1.07733e-116
1.08424e-116
1.11487e-116
1.056e-116
1.09834e-116
1.09365e-116
1.09104e-116
1.06325e-116
1.05467e-116
1.11441e-116
1.05148e-116
1.11574e-116
1.05278e-116
1.09892e-116
1.04397e-116
1.10475e-116
1.02593e-116
1.06962e-116
1.09176e-116
1.01359e-116
1.05121e-113
1.05691e-113
1.08735e-113
1.02944e-113
1.07106e-113
1.06614e-113
1.06345e-113
1.03604e-113
1.02822e-113
1.08613e-113
1.02524e-113
1.0877e-113
1.0264e-113
1.07132e-113
1.01819e-113
1.07729e-113
1.00033e-113
1.04266e-113
1.06433e-113
9.88019e-114
5.97131e-111
5.99751e-111
6.17416e-111
5.84211e-111
6.08046e-111
6.05079e-111
6.03438e-111
5.87686e-111
5.83516e-111
6.16292e-111
5.81917e-111
6.17312e-111
5.82538e-111
6.08033e-111
5.78119e-111
6.11583e-111
5.67749e-111
5.91689e-111
6.04064e-111
5.60578e-111
2.33057e-108
2.33817e-108
2.40907e-108
2.27786e-108
2.37184e-108
2.35971e-108
2.35258e-108
2.29022e-108
2.27479e-108
2.40288e-108
2.26902e-108
2.40721e-108
2.27143e-108
2.3712e-108
2.25532e-108
2.38561e-108
2.21338e-108
2.30689e-108
2.35566e-108
2.18456e-108
6.38333e-106
6.39618e-106
6.59786e-106
6.23239e-106
6.49333e-106
6.45919e-106
6.43655e-106
6.26266e-106
6.22177e-106
6.57594e-106
6.2078e-106
6.5881e-106
6.21497e-106
6.49048e-106
6.17485e-106
6.53124e-106
6.05331e-106
6.31175e-106
6.44747e-106
5.97137e-106
1.17093e-103
1.1715e-103
1.21079e-103
1.1419e-103
1.19079e-103
1.18461e-103
1.1794e-103
1.14663e-103
1.13898e-103
1.2058e-103
1.13694e-103
1.20778e-103
1.13864e-103
1.19026e-103
1.13238e-103
1.19783e-103
1.10769e-103
1.1565e-103
1.18217e-103
1.09185e-103
1.41014e-101
1.40776e-101
1.46107e-101
1.37348e-101
1.43474e-101
1.42852e-101
1.41932e-101
1.37769e-101
1.36674e-101
1.45399e-101
1.36563e-101
1.45487e-101
1.36917e-101
1.43513e-101
1.36429e-101
1.44369e-101
1.32709e-101
1.39151e-101
1.42473e-101
1.30625e-101
6.39088e-100
6.40587e-100
6.5059e-100
6.20966e-100
6.44402e-100
6.35644e-100
6.38743e-100
6.24698e-100
6.26713e-100
6.45415e-100
6.23755e-100
6.51313e-100
6.20348e-100
6.39996e-100
6.12497e-100
6.46967e-100
6.17431e-100
6.27907e-100
6.36867e-100
6.12041e-100
6.84279e-100
6.89739e-100
6.83574e-100
6.63761e-100
6.83583e-100
6.6756e-100
6.79309e-100
6.70282e-100
6.80738e-100
6.76485e-100
6.74216e-100
6.89237e-100
6.64707e-100
6.73265e-100
6.49431e-100
6.84565e-100
6.81413e-100
6.6963e-100
6.72149e-100
6.80624e-100
9.53544e-100
9.7655e-100
9.68719e-100
9.70143e-100
9.55107e-100
9.68529e-100
9.85537e-100
9.67973e-100
9.88752e-100
1.00232e-99
9.79843e-100
1.00089e-99
9.73989e-100
9.60621e-100
9.54839e-100
9.74279e-100
9.64958e-100
9.60904e-100
9.62249e-100
9.74173e-100
1.15493e-99
1.16867e-99
1.16833e-99
1.16658e-99
1.14512e-99
1.12188e-99
1.13764e-99
1.11635e-99
1.14911e-99
1.19865e-99
1.18557e-99
1.14595e-99
1.17028e-99
1.16127e-99
1.15379e-99
1.16931e-99
1.11661e-99
1.17098e-99
1.15305e-99
1.15115e-99
1.28783e-99
1.34012e-99
1.3128e-99
1.31513e-99
1.30385e-99
1.32754e-99
1.36936e-99
1.31164e-99
1.31979e-99
1.31172e-99
1.31404e-99
1.3089e-99
1.30324e-99
1.29229e-99
1.26554e-99
1.30353e-99
1.3153e-99
1.28565e-99
1.27798e-99
1.2895e-99
1.39904e-99
1.41831e-99
1.44881e-99
1.45303e-99
1.4322e-99
1.46746e-99
1.43275e-99
1.45412e-99
1.4524e-99
1.38077e-99
1.40363e-99
1.39437e-99
1.40908e-99
1.37282e-99
1.38409e-99
1.38412e-99
1.39646e-99
1.41109e-99
1.40122e-99
1.42209e-99
1.43046e-99
1.45069e-99
1.46611e-99
1.47226e-99
1.44757e-99
1.44643e-99
1.45472e-99
1.48378e-99
1.43453e-99
1.4583e-99
1.43563e-99
1.44455e-99
1.48469e-99
1.44804e-99
1.42445e-99
1.50584e-99
1.43734e-99
1.43255e-99
1.4504e-99
1.49219e-99
1.42686e-99
1.41037e-99
1.44185e-99
1.40711e-99
1.42737e-99
1.42999e-99
1.45265e-99
1.43068e-99
1.38749e-99
1.40567e-99
1.41038e-99
1.45956e-99
1.42582e-99
1.45262e-99
1.45401e-99
1.44836e-99
1.44308e-99
1.42253e-99
1.41474e-99
1.4229e-99
1.29749e-99
1.32296e-99
1.30311e-99
1.36298e-99
1.32631e-99
1.3664e-99
1.34312e-99
1.33596e-99
1.32804e-99
1.33177e-99
1.31741e-99
1.35443e-99
1.34501e-99
1.37402e-99
1.32405e-99
1.36162e-99
1.35407e-99
1.29643e-99
1.36188e-99
1.34442e-99
1.16516e-99
1.22479e-99
1.20017e-99
1.20348e-99
1.18106e-99
1.24057e-99
1.2248e-99
1.21599e-99
1.21495e-99
1.18165e-99
1.21337e-99
1.2411e-99
1.19742e-99
1.27694e-99
1.22422e-99
1.24955e-99
1.26595e-99
1.21723e-99
1.24496e-99
1.25118e-99
1.04048e-99
1.0367e-99
1.02076e-99
1.04399e-99
1.0684e-99
1.06145e-99
1.0453e-99
1.01765e-99
1.06202e-99
1.02771e-99
1.05764e-99
1.05809e-99
1.04454e-99
1.06438e-99
1.07429e-99
1.081e-99
1.05004e-99
1.08197e-99
1.06713e-99
1.10193e-99
7.96503e-100
8.07028e-100
7.98425e-100
7.94093e-100
8.21291e-100
8.0629e-100
8.37599e-100
8.06521e-100
8.38027e-100
8.33661e-100
8.19126e-100
8.45696e-100
8.07865e-100
8.4815e-100
8.18213e-100
8.13935e-100
8.35337e-100
8.45415e-100
8.26656e-100
8.61886e-100
7.03798e-118
7.08441e-118
7.282e-118
6.89992e-118
7.17484e-118
7.14438e-118
7.12866e-118
6.94777e-118
6.89212e-118
7.27986e-118
6.87082e-118
7.28886e-118
6.87883e-118
7.1788e-118
6.82021e-118
7.2167e-118
6.70476e-118
6.98823e-118
7.13184e-118
6.62506e-118
1.32223e-114
1.3297e-114
1.3674e-114
1.29513e-114
1.34711e-114
1.34095e-114
1.33788e-114
1.30357e-114
1.29384e-114
1.36608e-114
1.28999e-114
1.36814e-114
1.29134e-114
1.34748e-114
1.28076e-114
1.35497e-114
1.25888e-114
1.31166e-114
1.33868e-114
1.24359e-114
1.26442e-111
1.27031e-111
1.30702e-111
1.23738e-111
1.28743e-111
1.28115e-111
1.27803e-111
1.24488e-111
1.2362e-111
1.30487e-111
1.23269e-111
1.30714e-111
1.23387e-111
1.28743e-111
1.22422e-111
1.29494e-111
1.20296e-111
1.2531e-111
1.27902e-111
1.18801e-111
7.08209e-109
7.10781e-109
7.31791e-109
6.92421e-109
7.20675e-109
7.16977e-109
7.15087e-109
6.96292e-109
6.91743e-109
7.30084e-109
6.89897e-109
7.31499e-109
6.90515e-109
7.20505e-109
6.85405e-109
7.24887e-109
6.73206e-109
7.01189e-109
7.15787e-109
6.64624e-109
2.71313e-106
2.71991e-106
2.80275e-106
2.65004e-106
2.75936e-106
2.74465e-106
2.73652e-106
2.66345e-106
2.64691e-106
2.79417e-106
2.64045e-106
2.79994e-106
2.64284e-106
2.75811e-106
2.62463e-106
2.77551e-106
2.57602e-106
2.68345e-106
2.73995e-106
2.54215e-106
7.32398e-104
7.33306e-104
7.56558e-104
7.1463e-104
7.44538e-104
7.40494e-104
7.37921e-104
7.17827e-104
7.13485e-104
7.53692e-104
7.11966e-104
7.55263e-104
7.12702e-104
7.44103e-104
7.08259e-104
7.48938e-104
6.94296e-104
7.23629e-104
7.39145e-104
6.84797e-104
1.32002e-101
1.3196e-101
1.36422e-101
1.28651e-101
1.34157e-101
1.33446e-101
1.32856e-101
1.29132e-101
1.28321e-101
1.358e-101
1.28112e-101
1.36049e-101
1.28294e-101
1.34084e-101
1.27623e-101
1.34965e-101
1.24812e-101
1.30278e-101
1.33167e-101
1.23004e-101
1.56506e-99
1.56105e-99
1.62078e-99
1.5234e-99
1.59138e-99
1.58433e-99
1.57401e-99
1.52739e-99
1.51574e-99
1.6122e-99
1.51483e-99
1.61346e-99
1.51874e-99
1.59168e-99
1.5138e-99
1.60153e-99
1.47182e-99
1.5432e-99
1.58008e-99
1.44831e-99
6.86747e-98
6.87946e-98
6.98789e-98
6.67057e-98
6.92099e-98
6.82767e-98
6.86094e-98
6.70835e-98
6.73253e-98
6.93089e-98
6.70141e-98
6.9947e-98
6.66441e-98
6.87445e-98
6.58148e-98
6.94939e-98
6.63325e-98
6.74399e-98
6.83987e-98
6.57514e-98
7.30375e-98
7.36042e-98
7.29518e-98
7.08618e-98
7.2948e-98
7.12756e-98
7.25314e-98
7.15448e-98
7.26777e-98
7.22074e-98
7.19809e-98
7.35574e-98
7.09642e-98
7.18824e-98
6.93446e-98
7.30602e-98
7.27288e-98
7.14737e-98
7.17395e-98
7.26558e-98
1.01872e-97
1.04305e-97
1.03507e-97
1.03599e-97
1.02028e-97
1.03441e-97
1.05271e-97
1.03364e-97
1.05625e-97
1.06992e-97
1.04675e-97
1.06867e-97
1.04014e-97
1.02605e-97
1.0196e-97
1.04042e-97
1.03053e-97
1.02625e-97
1.02795e-97
1.04058e-97
1.22865e-97
1.24322e-97
1.2431e-97
1.24078e-97
1.21825e-97
1.19341e-97
1.21061e-97
1.18773e-97
1.22294e-97
1.27504e-97
1.2613e-97
1.21894e-97
1.24548e-97
1.23547e-97
1.22775e-97
1.24402e-97
1.1879e-97
1.24565e-97
1.22637e-97
1.22476e-97
1.37149e-97
1.42656e-97
1.39797e-97
1.39975e-97
1.38858e-97
1.41347e-97
1.45819e-97
1.39631e-97
1.40507e-97
1.39632e-97
1.39895e-97
1.39358e-97
1.38809e-97
1.37627e-97
1.34793e-97
1.38799e-97
1.4005e-97
1.36898e-97
1.36083e-97
1.37313e-97
1.48177e-97
1.50177e-97
1.53372e-97
1.53872e-97
1.51678e-97
1.55375e-97
1.51713e-97
1.53981e-97
1.5379e-97
1.46181e-97
1.48625e-97
1.47667e-97
1.49234e-97
1.45408e-97
1.46563e-97
1.46597e-97
1.47868e-97