/*--------------------------------*- C++ -*----------------------------------*\
| =========                 |                                                 |
| \\      /  F ield         | OpenFOAM: The Open Source CFD Toolbox           |
|  \\    /   O peration     | Version:  2212                                  |
|   \\  /    A nd           | Website:  www.openfoam.com                      |
|    \\/     M anipulation  |                                                 |
\*---------------------------------------------------------------------------*/
FoamFile
{
    version     2.0;
    format      ascii;
    arch        "LSB;label=32;scalar=64";
    class       surfaceScalarField;
    location    "0.00504";
    object      phi;
}
// * * * * * * * * * * * * * * * * * * * * * * * * * * * * * * * * * * * * * //

dimensions      [1 0 -1 0 0 0 0];

oriented        oriented;

internalField   nonuniform List<scalar> 
5190
(
-7.95266e-06
-9.88836e-06
6.18561e-06
9.53639e-06
0.000423545
0.000530897
-0.000773622
-0.000572203
-0.000157676
-0.00107388
9.03706e-05
0.000692192
-7.17937e-06
5.93376e-06
5.6195e-07
8.83862e-07
0.00250406
0.000347728
-0.00264837
-0.000311952
-0.000926017
0.000638992
0.000600937
-0.0011798
-1.40175e-06
3.06073e-06
1.45743e-06
-2.58483e-06
-1.72989e-06
1.8474e-06
-5.82967e-06
6.16659e-06
6.55772e-06
-6.37843e-06
-2.02309e-06
2.28717e-06
6.76425e-06
-2.47539e-06
2.69103e-06
-1.65661e-06
1.08041e-06
-6.32139e-06
-7.09515e-06
3.65415e-06
-3.58803e-06
7.07187e-06
3.42305e-06
-7.16151e-06
-3.30579e-06
-7.9961e-06
7.53699e-06
-4.55221e-06
4.37921e-06
-6.91983e-06
-3.62011e-06
7.36641e-06
3.30634e-06
-8.58865e-06
-5.00966e-06
8.18804e-06
5.10808e-06
-7.47109e-06
-4.88196e-06
7.47888e-06
4.39782e-06
5.95229e-06
-2.03728e-06
1.48917e-06
-5.2732e-06
6.00536e-06
-2.20528e-06
2.25121e-06
-2.55407e-06
3.33693e-06
5.28483e-06
7.26875e-06
-1.41775e-06
1.52195e-06
-7.29849e-06
-7.33402e-06
7.33405e-06
-3.02682e-06
3.15346e-06
-7.32082e-06
-2.56053e-06
2.67084e-06
-2.12834e-06
2.18196e-06
-7.22787e-06
4.09487e-06
3.66082e-06
-5.2731e-06
5.89773e-06
-2.48593e-06
6.62153e-06
-6.08005e-06
-1.88295e-06
-2.70882e-06
4.3048e-06
-6.17388e-06
6.08295e-06
-2.38476e-06
-2.34926e-06
-6.39537e-06
6.98185e-06
-1.97836e-06
-2.26485e-06
1.99171e-06
-7.11537e-06
7.14461e-06
-2.5355e-06
-2.22195e-06
-2.98718e-06
8.391e-06
-2.67837e-06
3.19067e-06
-8.71087e-06
8.30826e-06
-3.92121e-06
4.15347e-06
-4.75917e-06
8.40151e-06
4.75875e-06
7.90858e-06
-7.90674e-06
-4.45097e-06
5.22343e-06
-5.92441e-06
8.83997e-06
7.83497e-06
-7.14019e-06
-3.02239e-06
-3.63673e-06
6.71063e-06
-6.84921e-06
-3.21057e-06
3.73024e-06
-3.02164e-06
2.9441e-06
0.000538138
0.000707547
-0.00141776
-0.000800629
-2.8361e-06
3.15661e-06
-6.13022e-06
-1.77841e-06
1.97675e-06
-1.32942e-06
-5.35242e-06
5.86148e-06
1.15693e-06
5.79708e-06
-5.4233e-06
-1.56743e-06
1.57388e-06
-1.64229e-06
5.01303e-06
8.62301e-06
-5.0105e-06
-8.16917e-06
5.22386e-06
-5.95611e-06
1.89701e-06
6.31157e-06
-5.58725e-06
-1.66325e-06
1.72553e-06
6.91868e-06
-6.93053e-06
-3.29827e-06
6.85246e-06
-3.54834e-06
-1.487e-06
-5.65321e-06
1.39458e-06
-1.50204e-06
1.49148e-06
-5.06734e-06
-5.38649e-06
5.71588e-06
-1.61321e-06
-1.55699e-06
-5.05679e-06
-6.19624e-06
6.51932e-06
2.01082e-06
1.33777e-06
-7.69048e-06
7.35947e-06
1.9946e-06
2.25999e-06
-7.46785e-06
7.59895e-06
2.74368e-06
2.26052e-06
-7.61209e-06
7.2399e-06
4.26752e-06
3.35457e-06
-2.60311e-07
-1.40786e-06
1.9377e-06
1.1439e-07
5.68958e-06
5.89779e-06
8.62709e-06
-8.42696e-06
4.47413e-06
4.86528e-06
8.21262e-06
3.49412e-06
-8.50656e-06
3.91274e-06
-3.63748e-06
7.12501e-06
7.24181e-08
6.46527e-07
-2.13543e-07
-7.13558e-08
-3.71817e-06
4.5473e-06
-9.51726e-06
0.000428474
-0.00248674
-0.000355998
0.00197699
-5.89844e-06
5.95731e-06
-2.32281e-06
6.11606e-06
-5.86837e-06
-1.83043e-06
-2.22817e-06
-6.08314e-06
6.27762e-06
-2.46886e-06
-2.30546e-06
-6.37092e-06
6.75605e-06
-2.34641e-06
-2.30494e-06
-6.89496e-06
6.94927e-06
-2.58312e-06
-2.35595e-06
-2.96106e-06
6.94508e-06
-7.26296e-06
-3.74322e-06
-4.10392e-06
5.43292e-06
7.24566e-06
-6.96691e-06
-2.88587e-06
-3.22994e-06
6.81071e-06
-6.80301e-06
-2.84554e-06
-2.79112e-06
6.69847e-06
-6.60426e-06
-2.19273e-06
-2.56259e-06
6.30123e-06
-6.0391e-06
-1.70141e-06
-1.96099e-06
-1.65725e-06
-1.52521e-06
1.56567e-06
-5.20732e-06
5.48432e-06
-5.11363e-06
6.89067e-06
-3.73693e-06
-3.16173e-06
3.8591e-06
8.80633e-06
-9.29679e-06
-3.65558e-06
8.00254e-06
-4.70885e-06
8.22169e-06
-5.50338e-06
-1.51564e-06
-5.36311e-06
5.67274e-06
-1.70949e-06
-5.04385e-06
-1.64252e-06
9.065e-06
-9.73872e-06
4.70743e-06
-4.90293e-06
8.65535e-06
5.24183e-06
-4.39733e-06
8.40588e-06
-4.98159e-06
7.80329e-06
6.8965e-06
-6.53981e-06
-3.49399e-06
3.27065e-06
-3.0277e-06
3.92538e-06
8.01611e-06
-8.78919e-06
7.42341e-06
-3.50688e-06
-5.30354e-06
5.72508e-06
1.54152e-06
1.40689e-06
-1.42039e-06
-4.80091e-06
1.37465e-06
-4.8812e-06
3.84828e-06
5.28351e-06
-7.08706e-06
-2.31902e-06
8.22436e-06
-5.55306e-06
-8.00705e-06
4.73124e-06
-8.61941e-06
5.13955e-06
-0.0031092
-0.000763124
0.00194019
0.00194523
3.81203e-06
-3.89051e-06
6.87333e-06
7.30911e-06
8.15927e-06
1.39749e-06
-1.41771e-06
-5.11056e-06
0.000672677
-0.00104057
-0.00024516
-5.22225e-06
7.23422e-06
3.91805e-06
-8.06375e-06
-4.59332e-06
5.50534e-06
-4.8749e-06
6.20538e-06
-6.67323e-06
6.36375e-06
1.02107e-06
1.014e-06
-6.39344e-06
-6.4964e-06
6.91849e-06
1.68627e-06
1.30527e-06
-7.4193e-06
7.59986e-06
2.0207e-06
1.90155e-06
-7.80814e-06
8.02756e-06
2.807e-06
2.31752e-06
-8.19459e-06
8.55997e-06
4.22112e-06
3.48559e-06
4.81774e-06
8.81642e-06
-8.72844e-06
4.2785e-06
4.80669e-06
8.52612e-06
3.24528e-06
-8.34689e-06
3.66863e-06
-7.87486e-06
6.97036e-06
5.3961e-06
0.000126241
-0.000159139
0.000130729
-0.000155544
-6.1229e-06
1.82361e-06
6.47208e-06
1.69174e-06
-5.62658e-06
5.85323e-06
-1.75401e-06
5.34231e-06
-1.33461e-06
-5.0295e-06
-1.45528e-06
-5.91756e-06
6.00802e-06
-2.16572e-06
-2.01693e-06
-6.142e-06
6.17888e-06
-2.35044e-06
-2.23059e-06
-6.48865e-06
6.53224e-06
-2.35432e-06
-2.52174e-06
-6.78155e-06
6.75966e-06
-2.56832e-06
-2.6007e-06
-6.78317e-06
6.67026e-06
-3.20712e-06
-2.99535e-06
-6.64334e-06
6.57277e-06
-3.76438e-06
-3.57138e-06
-5.34067e-06
4.05009e-06
8.77822e-06
-4.06052e-06
6.58244e-06
6.83234e-06
-6.97343e-06
-3.32878e-06
-3.60592e-06
6.90111e-06
-6.79807e-06
-2.72764e-06
-3.01951e-06
6.64053e-06
-6.7331e-06
-2.53837e-06
-2.71474e-06
6.69561e-06
-6.52288e-06
-2.15087e-06
-2.38671e-06
6.28987e-06
-5.96293e-06
-1.81452e-06
-1.97805e-06
-1.73713e-06
-1.44058e-06
1.41088e-06
-4.70835e-06
1.48988e-06
-4.69317e-06
-1.56322e-06
-4.71723e-06
-4.7479e-06
2.65247e-06
1.17683e-06
-2.30142e-06
-1.01945e-06
1.65145e-07
-6.63821e-07
5.51269e-06
-4.71653e-06
-4.28442e-06
5.90191e-06
-1.18357e-06
-8.81412e-06
5.50557e-06
8.21611e-06
-5.39486e-06
5.57622e-06
-5.69815e-06
7.96527e-06
-4.183e-06
7.90984e-06
4.15617e-06
6.86277e-06
-4.27231e-06
-4.71556e-06
7.767e-06
5.13536e-06
-5.10623e-06
-9.08486e-07
-3.86947e-06
4.29189e-06
7.57889e-06
-3.82745e-06
7.30204e-06
-5.43289e-06
5.8823e-06
1.42946e-06
-4.96856e-06
1.2806e-06
-4.98802e-06
7.97771e-06
-4.93911e-06
7.48826e-06
-1.51077e-06
1.37022e-06
-4.55971e-06
-1.70716e-06
-4.39226e-06
0.00075747
2.01116e-07
-0.000668618
-6.732e-06
1.94489e-07
0.000853576
-7.26722e-06
-0.000757425
0.000853538
-6.90956e-06
-0.000668563
-6.33487e-06
-1.50674e-06
1.47049e-06
-4.32589e-06
-4.6511e-06
5.01068e-06
-1.62389e-06
-4.26655e-06
-1.52803e-06
-5.16251e-06
3.7217e-06
-5.4846e-06
6.59108e-06
-8.77516e-06
5.80924e-06
1.30199e-06
2.93084e-06
-1.10682e-06
-4.78391e-06
-9.75741e-07
5.42869e-06
-5.65512e-06
-3.61227e-06
4.01028e-06
1.82753e-06
0.000802191
0.000576537
-0.00155298
-0.000798178
0.00213236
0.000524158
-0.000492478
-0.00238807
7.30286e-06
7.68316e-06
0.00032888
0.000464412
-4.66287e-06
1.20271e-06
-6.45394e-07
9.10113e-06
2.17038e-06
-1.16776e-05
-6.00231e-06
6.32164e-06
9.90774e-07
-1.09255e-06
6.75693e-07
-9.01236e-07
-6.4625e-06
6.55214e-06
1.05883e-06
1.04128e-06
-6.743e-06
7.10404e-06
1.46946e-06
1.22618e-06
-7.52077e-06
7.86747e-06
1.96116e-06
1.69496e-06
-8.20096e-06
8.52059e-06
2.82031e-06
2.31537e-06
-8.8973e-06
9.29877e-06
4.11004e-06
3.439e-06
-9.67448e-06
9.40108e-06
4.88384e-06
4.60625e-06
5.484e-06
9.18719e-06
-9.15262e-06
4.21621e-06
4.87563e-06
8.88014e-06
-8.49516e-06
3.01626e-06
3.53519e-06
8.01571e-06
-7.53954e-06
2.27953e-06
-2.79993e-06
2.61601e-06
-3.02816e-06
7.17927e-06
-6.88448e-06
1.77327e-06
-2.17794e-06
1.95365e-06
-2.43282e-06
6.60183e-06
-6.28338e-06
1.63085e-06
1.6769e-06
-1.97662e-06
1.5443e-06
0.00095812
1.48656e-07
-8.08279e-06
0.00107319
1.64877e-07
-8.99185e-06
0.00120133
1.9495e-07
-9.9622e-06
0.0013446
4.03659e-07
-1.05794e-05
0.0015036
1.53267e-06
-1.05133e-05
0.00167913
4.30921e-06
-1.1689e-05
0.00187128
8.85338e-06
-1.53771e-05
0.00207147
1.89465e-05
-2.00517e-05
0.00227393
3.79148e-05
-3.52611e-05
5.88966e-05
0.00247118
-5.85559e-05
0.00247846
-0.00227426
5.12873e-05
0.00264918
8.22021e-05
-8.65788e-05
0.000102133
0.00280498
-0.000117125
-0.00266545
0.00283277
7.37773e-05
6.72548e-05
0.00206584
-0.00186768
1.96909e-05
3.4061e-05
0.00167842
-0.00150255
-3.51963e-06
5.2484e-06
0.00134347
-0.00120072
-9.30255e-06
-7.49323e-06
0.00107295
-0.000957998
-8.60311e-06
-9.17578e-06
-7.70427e-06
-5.43619e-06
5.6744e-06
-1.67526e-06
-1.39195e-06
-5.82676e-06
5.9725e-06
-2.04057e-06
-1.87825e-06
-6.12963e-06
6.23021e-06
-2.24433e-06
-2.1413e-06
-6.25415e-06
6.43659e-06
-2.4528e-06
-2.39529e-06
-6.55097e-06
6.66376e-06
-2.66681e-06
-2.67733e-06
-6.56574e-06
6.53012e-06
-3.17382e-06
-2.89246e-06
-6.44075e-06
6.32469e-06
-3.71788e-06
-3.50651e-06
-3.65203e-06
2.59246e-06
-7.47551e-06
-3.93093e-06
6.06282e-06
-4.80099e-06
5.08975e-06
-5.77689e-06
6.74659e-06
-6.69918e-06
-4.05512e-06
-3.82888e-06
3.93934e-06
6.96056e-06
-7.34062e-06
3.34859e-06
5.50373e-06
-1.94869e-06
-4.77714e-06
6.57682e-06
-6.50771e-06
-3.52939e-06
-3.68496e-06
6.61703e-06
-6.68867e-06
-3.18855e-06
-3.42844e-06
6.71218e-06
-6.62691e-06
-2.77223e-06
-2.94136e-06
6.66636e-06
-6.65212e-06
-2.50719e-06
-2.63869e-06
6.59102e-06
-6.43354e-06
-2.21353e-06
-2.38147e-06
6.21257e-06
-5.93035e-06
-1.94683e-06
-2.07528e-06
5.63642e-06
-5.3354e-06
-1.81327e-06
-1.85823e-06
-1.729e-06
-1.41591e-06
1.37896e-06
-4.33846e-06
-4.34116e-06
-1.34669e-06
1.29715e-06
-4.38186e-06
-4.3586e-06
-1.2323e-06
1.13749e-06
-4.50312e-06
-4.44211e-06
-3.95875e-06
-8.47527e-06
7.04198e-06
3.29301e-06
-6.93824e-06
5.19549e-06
-5.06421e-07
-1.79539e-06
-4.52558e-06
7.5136e-06
4.21717e-06
6.71014e-06
-4.2124e-06
4.3519e-06
7.03834e-06
-4.72462e-06
7.3358e-06
-4.1039e-06
-2.21682e-06
-8.71063e-06
7.02948e-06
6.54418e-06
1.9866e-07
-6.62158e-06
-0.000585568
-6.20488e-06
-0.000585525
5.00353e-06
-8.24323e-07
-4.67069e-06
1.11836e-05
7.30493e-06
-3.00764e-06
-2.78454e-05
0.00247187
-0.00227786
-5.60194e-05
0.00263791
-7.9967e-05
-5.375e-06
7.51034e-06
-0.00326461
-0.00068521
0.00122047
0.00272643
3.90022e-06
6.0622e-06
4.66387e-06
-4.9128e-06
7.36444e-06
5.62132e-07
-8.05274e-07
-4.14562e-06
5.94088e-07
-4.03666e-06
-0.000585397
0.00066817
-1.42292e-05
-6.67735e-06
2.15778e-07
-0.000508019
-1.42002e-05
-0.000507994
-1.50835e-06
1.44952e-06
-3.8913e-06
-1.49831e-06
-3.86666e-06
-4.61453e-06
4.95745e-06
-1.60788e-06
-4.20903e-06
-1.5117e-06
-0.000111749
0.00292972
6.04488e-05
0.00291811
-0.000182218
4.8925e-06
3.78254e-06
-5.26014e-06
4.49491e-06
4.25523e-06
-4.14676e-06
-5.80721e-06
7.91587e-06
7.89839e-06
4.13668e-06
4.55104e-06
-4.84621e-06
-4.34733e-06
3.99287e-06
5.13475e-06
0.000993586
0.000376362
-0.000515624
9.45035e-06
4.53863e-06
-1.08884e-05
-1.07977e-05
1.11653e-05
-2.16991e-06
8.90119e-07
5.42103e-07
-4.59077e-07
-4.5963e-07
-4.5776e-06
5.07058e-06
1.00661e-06
1.02023e-06
-1.12408e-06
-4.0349e-06
8.90903e-07
-4.08068e-06
7.00115e-06
7.18189e-06
1.60851e-06
-3.59143e-06
-1.65387e-06
-1.49993e-06
1.36052e-06
-3.98818e-06
-3.82964e-06
-1.21549e-06
1.023e-06
-4.17862e-06
4.75943e-06
-4.10461e-06
-4.20608e-06
-5.8777e-06
6.15222e-06
9.10936e-07
9.59365e-07
-6.39093e-06
6.61208e-06
9.73069e-07
9.56344e-07
-6.89728e-06
7.29797e-06
1.28231e-06
1.09483e-06
-7.7447e-06
8.20186e-06
1.85898e-06
1.54377e-06
-8.63658e-06
9.04596e-06
2.73279e-06
2.24005e-06
-9.47592e-06
9.81612e-06
3.89943e-06
3.27558e-06
-9.97397e-06
9.5865e-06
4.82642e-06
4.34451e-06
5.61556e-06
-4.88215e-06
7.6772e-06
1.03122e-05
4.38358e-06
-1.00675e-05
8.52371e-06
-9.20695e-06
5.36075e-06
5.72232e-06
8.71641e-06
9.64086e-06
-9.67707e-06
4.22086e-06
4.85283e-06
9.35609e-06
-8.8533e-06
2.96943e-06
3.51325e-06
8.28547e-06
-7.79147e-06
2.04292e-06
2.46682e-06
7.35183e-06
-7.03801e-06
1.43022e-06
1.5942e-06
6.72152e-06
-6.40583e-06
1.36754e-06
1.32551e-06
6.00007e-06
-5.55351e-06
1.25045e-06
1.30611e-06
1.1325e-06
-0.000756594
0.00085227
-1.49874e-05
-1.4307e-05
-0.000956502
0.00107181
-1.71432e-05
-1.59651e-05
-0.00120041
0.00134483
-1.85282e-05
-1.79967e-05
-0.00150624
0.00168335
-1.67324e-05
-1.79679e-05
-0.0018732
0.00207677
-2.25392e-05
-1.65172e-05
-3.13315e-05
-0.000585388
0.000668105
-1.3779e-05
6.24362e-06
-1.37673e-05
-0.000508032
-0.000507997
-3.49862e-05
-0.000268846
-0.00292911
-0.000186583
-4.53733e-06
-5.191e-06
2.99952e-07
4.50281e-06
0.00283937
-0.00267604
4.85519e-05
1.91652e-05
0.00249296
-0.00228995
4.35732e-05
5.34231e-05
0.00207858
-0.00187195
1.39362e-05
2.71955e-05
0.00167895
-0.00150515
-5.28358e-06
6.69345e-07
0.0013441
-0.00119981
-1.73303e-05
-1.4533e-05
0.00107123
-0.000956185
-1.65795e-05
-1.71964e-05
0.000852059
-0.000756501
-1.45701e-05
-1.55345e-05
-1.39084e-05
-5.28467e-06
5.51263e-06
-1.56489e-06
-1.29506e-06
-5.70118e-06
5.86144e-06
-1.90527e-06
-1.7543e-06
-6.01344e-06
6.19982e-06
-2.17121e-06
-2.01145e-06
-6.3255e-06
6.49446e-06
-2.4623e-06
-2.30129e-06
-6.41663e-06
6.42954e-06
-2.61579e-06
-2.49973e-06
-6.38001e-06
6.34518e-06
-3.09173e-06
-2.79293e-06
-6.20156e-06
6.05712e-06
-3.56892e-06
-3.32828e-06
-5.82529e-06
5.50948e-06
-4.14108e-06
4.35372e-06
-3.74209e-06
-5.01875e-06
4.21924e-06
-4.89803e-06
-4.47516e-06
-5.16023e-06
5.11787e-06
3.46342e-06
-3.69737e-06
3.24783e-06
-5.00299e-06
-4.98359e-06
-5.48797e-06
4.90614e-06
4.42244e-06
2.78061e-06
-3.65961e-06
-5.20858e-06
-5.12056e-06
1.97451e-06
4.85495e-06
-2.33441e-06
-1.67477e-06
1.47312e-06
-5.43114e-06
-5.53221e-06
6.05256e-06
3.70925e-06
-5.31377e-06
-5.27807e-06
6.47876e-06
-5.20547e-06
5.87672e-06
-6.08074e-06
-4.05539e-06
-4.56665e-06
6.16689e-06
-6.2649e-06
-3.51409e-06
-3.72542e-06
6.41261e-06
-6.48949e-06
-3.18957e-06
-3.35073e-06
6.53731e-06
-6.57921e-06
-2.81543e-06
-2.98153e-06
6.59279e-06
-6.56668e-06
-2.55749e-06
-2.6892e-06
6.48902e-06
-6.33563e-06
-2.29223e-06
-2.43367e-06
6.12721e-06
-5.86814e-06
-2.04534e-06
-2.16424e-06
5.58466e-06
-5.28897e-06
-1.8761e-06
-1.94594e-06
-1.77389e-06
-1.39573e-06
1.33174e-06
-3.92607e-06
-3.93117e-06
-1.28155e-06
1.21516e-06
-3.95958e-06
-3.95456e-06
-3.99131e-06
0.00048254
0.000511875
8.93878e-06
-4.27735e-06
3.58029e-06
-1.05074e-05
0.00278185
-0.000120885
-4.92903e-06
7.06017e-06
4.43853e-06
5.96779e-06
4.37733e-06
6.3717e-06
-4.75216e-06
6.96443e-06
-3.94261e-06
8.96741e-07
3.88946e-06
-0.000407238
-0.000356586
0.000294609
0.000299908
-5.78794e-06
3.42772e-06
3.38183e-06
4.27046e-06
-3.44784e-06
-0.000584989
0.000667344
-2.28213e-05
-0.000507747
-2.2718e-05
-1.44277e-06
1.47356e-06
-3.15344e-06
-7.12454e-06
-2.50887e-06
-1.48162e-07
-3.53796e-06
-1.65884e-06
3.41912e-06
-3.303e-06
-1.43794e-06
-1.29608e-06
-2.99377e-06
-1.36961e-06
-3.8683e-06
-4.64299e-06
5.15573e-06
8.42693e-07
-4.12849e-06
7.45131e-07
0.00296159
-0.000288062
8.31285e-06
-4.45498e-06
-9.60097e-06
4.92657e-06
-4.12923e-06
5.47457e-06
6.24982e-06
-0.000590575
0.000376464
2.69697e-06
-2.39814e-06
0.00246967
-0.00228618
-4.43509e-05
0.00263077
-7.16016e-05
3.39913e-06
8.87275e-06
-4.23839e-06
2.41428e-06
-9.46071e-06
9.04451e-06
9.61163e-06
-4.28999e-06
2.20965e-06
4.67568e-06
4.85328e-06
-5.81779e-06
7.25755e-06
-5.0463e-06
7.16212e-06
4.17754e-06
5.47502e-06
8.77776e-06
-3.76133e-06
-0.000585
0.000667323
-2.24095e-05
-0.000507786
-2.23166e-05
-8.55641e-06
6.72049e-06
-2.24923e-06
1.37128e-06
-0.00200744
0.000201344
0.00104037
-0.00234714
0.000523153
9.62989e-06
-3.91379e-06
-5.93018e-06
7.79956e-06
5.43157e-06
5.15113e-06
3.86719e-06
5.30548e-06
2.70143e-06
-5.09611e-06
2.94698e-06
5.40878e-06
5.46478e-06
8.64871e-07
-5.41499e-06
1.25251e-06
5.47302e-06
4.26324e-06
4.68943e-06
-4.99001e-06
7.25254e-06
-8.34387e-06
-4.82146e-06
8.46751e-06
3.65803e-06
0.0028028
-0.000163247
1.15441e-06
1.75445e-07
-6.72568e-07
-2.50865e-07
9.8855e-06
-2.13187e-06
-1.10053e-05
5.79191e-06
-3.51122e-06
-8.86697e-06
5.03034e-06
6.49465e-06
6.66982e-06
-1.43549e-06
1.35763e-06
-3.46278e-06
-3.32901e-06
-1.25268e-06
1.11547e-06
-3.63036e-06
-3.56783e-06
-9.76016e-07
8.63735e-07
-3.67452e-06
-3.6802e-06
-8.06502e-07
7.78012e-07
-3.60508e-06
-3.65118e-06
3.92445e-06
-3.5775e-06
7.29133e-07
-4.05611e-06
5.61546e-06
1.49446e-06
-2.8089e-06
1.0146e-06
-5.76348e-06
6.06008e-06
7.9961e-07
1.05718e-06
-6.36951e-06
6.69443e-06
8.1758e-07
8.08424e-07
-7.06445e-06
7.51359e-06
1.12581e-06
9.41636e-07
-8.04003e-06
8.56898e-06
1.71227e-06
1.38462e-06
-9.05924e-06
9.5384e-06
2.49361e-06
2.07708e-06
-9.97613e-06
1.03344e-05
3.44208e-06
2.95323e-06
-1.04613e-05
1.03141e-05
4.25169e-06
3.81788e-06
-1.01409e-05
1.08683e-05
5.0573e-06
4.76491e-06
5.53464e-06
8.70284e-06
1.06106e-05
-1.01663e-05
4.75907e-06
-6.30238e-06
4.45205e-06
1.0232e-05
-1.03425e-05
4.46276e-06
4.65995e-06
1.03951e-05
-1.02736e-05
3.78791e-06
4.16755e-06
9.94403e-06
-9.34002e-06
2.81595e-06
3.31679e-06
8.6913e-06
-8.05364e-06
1.93393e-06
2.39871e-06
7.56634e-06
-7.16301e-06
1.24007e-06
1.49081e-06
6.81062e-06
-6.44982e-06
1.07799e-06
1.06794e-06
6.08744e-06
-5.65041e-06
1.03779e-06
1.07703e-06
9.4037e-07
-0.000755182
0.000850295
-2.31711e-05
-2.27972e-05
-0.000954389
0.00107
-2.38292e-05
-2.35548e-05
-0.00119979
0.00134546
-2.35628e-05
-2.40747e-05
-0.00150843
0.00168864
-1.9533e-05
-2.18887e-05
-0.0018831
0.00208539
-1.99594e-05
-1.7377e-05
-2.57613e-05
2.38609e-07
-6.91056e-06
-0.000434783
6.41053e-06
-1.38494e-05
-0.000434849
-0.000434779
2.62802e-06
4.92256e-06
1.43201e-05
-0.000434579
-2.25357e-05
-0.000434802
0.00228657
-0.00248168
1.55058e-05
0.000161866
0.000425378
-0.000567934
0.00293208
-0.00292622
-0.000167702
-0.000301171
0.0028378
-0.00267969
3.34e-05
-1.60025e-05
0.00250254
-0.00230173
3.65888e-05
4.42103e-05
0.00209394
-0.00188407
8.89381e-06
2.52322e-05
0.00168814
-0.00150614
-9.62759e-06
-1.30212e-06
0.00134355
-0.00119911
-2.14114e-05
-1.82331e-05
0.00106947
-0.000954056
-2.31875e-05
-2.3337e-05
0.000850113
-0.000755069
-2.27718e-05
-2.31285e-05
-2.24027e-05
-3.51485e-06
3.61396e-06
-1.38316e-06
3.20579e-06
-2.82944e-06
-1.22652e-06
-1.31444e-06
-4.09037e-06
4.72727e-06
-1.0723e-06
-1.17103e-06
1.06855e-06
-5.07699e-06
5.33881e-06
-1.45506e-06
-1.24784e-06
-5.55612e-06
5.74236e-06
-1.76544e-06
-1.62578e-06
-5.94084e-06
6.09958e-06
-2.02145e-06
-1.89165e-06
-6.22905e-06
6.2998e-06
-2.2911e-06
-2.14392e-06
-6.3421e-06
6.34573e-06
-2.48616e-06
-2.35868e-06
-6.30179e-06
6.18706e-06
-2.86786e-06
-2.63878e-06
-6.01798e-06
5.82745e-06
-3.28094e-06
-3.04963e-06
-5.62724e-06
5.3059e-06
-3.78863e-06
-3.47156e-06
-4.86692e-06
4.279e-06
-4.36371e-06
-4.04867e-06
-3.7164e-06
3.18685e-06
-4.60457e-06
-4.51019e-06
-5.2737e-06
2.09976e-06
5.50144e-06
-2.60976e-06
1.99174e-06
-4.8581e-06
-4.69124e-06
1.34263e-06
5.42206e-06
-4.99892e-06
6.48901e-07
5.54315e-06
-5.10426e-06
-5.51709e-06
1.27186e-07
5.70031e-06
5.96043e-08
-7.309e-07
-5.15198e-06
5.56944e-06
-5.13869e-06
1.34887e-06
-1.98821e-06
-5.10638e-06
-5.11625e-06
2.77713e-06
-3.37809e-06
-4.90911e-06
-5.06344e-06
4.00993e-06
-4.83886e-06
-4.67764e-06
-4.82505e-06
5.33405e-06
-5.61878e-06
-3.92201e-06
-4.26874e-06
5.8208e-06
-6.00092e-06
-3.44251e-06
-3.64621e-06
6.16459e-06
-6.30529e-06
-3.15692e-06
-3.29226e-06
6.40283e-06
-6.46498e-06
-2.83464e-06
-2.98851e-06
6.48832e-06
-6.45574e-06
-2.56799e-06
-2.70316e-06
6.3697e-06
-6.22163e-06
-2.29952e-06
-2.43523e-06
6.02507e-06
-5.78408e-06
-2.05279e-06
-2.17143e-06
5.51512e-06
-5.22441e-06
-1.85186e-06
-1.94248e-06
4.89636e-06
-4.51837e-06
-1.55299e-06
-1.73217e-06
4.14799e-06
-3.95247e-06
-1.00868e-06
-1.39985e-06
-1.60341e-06
1.51028e-06
-3.27971e-06
-1.92392e-06
-1.47502e-06
1.43174e-06
-3.43718e-06
-3.38563e-06
-1.369e-06
1.31035e-06
-3.49566e-06
-3.4796e-06
-1.23433e-06
1.15406e-06
-3.51959e-06
-3.51323e-06
-1.05691e-06
9.44123e-07
-3.55642e-06
-3.5344e-06
-8.17427e-07
-3.60087e-06
6.70761e-07
-3.58046e-06
0.000352004
-0.000488788
-0.000471915
0.00274194
-3.67062e-06
-7.79776e-06
-1.05992e-05
1.04034e-05
1.22723e-06
0.00274528
-0.000100503
-1.81556e-06
2.48271e-06
-6.48972e-07
6.95501e-06
-4.72961e-06
6.09206e-06
5.00602e-08
-2.83515e-06
-6.19871e-06
-6.59858e-06
-2.20455e-06
7.2549e-06
-6.52562e-06
-3.10392e-06
1.73763e-06
5.03107e-06
5.45986e-06
-5.49494e-06
6.65229e-06
-6.44552e-07
5.82529e-06
1.4034e-06
5.7045e-06
-4.89594e-06
6.64294e-06
4.54029e-06
5.81384e-06
7.95199e-06
-4.01737e-06
-1.14573e-05
2.98611e-06
-8.59875e-06
5.04017e-06
6.20935e-08
-2.54337e-07
1.90074e-06
-6.42183e-06
5.01024e-06
-5.10105e-06
4.45593e-06
-9.71101e-06
5.17758e-06
1.03948e-05
-1.04867e-05
3.85305e-06
-2.20995e-05
-0.00043465
-0.00175006
0.00090341
5.40619e-05
-0.00240592
0.000689237
-1.13465e-06
1.24773e-06
-2.48241e-06
2.76028e-06
-1.08721e-06
-2.34352e-06
3.08951e-06
-1.10247e-06
0.00045329
8.73088e-06
-4.54327e-06
-6.13926e-06
7.09103e-06
5.29585e-06
4.42e-06
2.30677e-06
5.67473e-06
3.09414e-07
5.89993e-06
4.43067e-06
4.90484e-06
-5.22184e-06
7.04135e-06
8.94973e-06
-3.56831e-06
-9.92811e-06
7.63828e-07
-8.67355e-07
-3.14812e-06
6.45546e-07
-3.119e-06
0.00282161
-0.00027794
-5.93388e-06
6.60477e-06
-0.000173283
0.000125486
2.1014e-05
-1.28752e-05
0.000477227
0.000391233
-0.000339919
3.84685e-06
4.47886e-06
-6.94658e-06
-3.66855e-06
6.84495e-06
-0.00227681
-0.000192125
0.000349246
0.00134232
9.11359e-06
-4.23012e-06
0.00224858
0.000896237
9.53918e-06
-6.43585e-06
3.94636e-06
5.52463e-06
3.32689e-06
1.91382e-06
5.46997e-06
-4.9603e-06
7.64638e-06
4.02408e-06
6.28112e-07
-7.67837e-07
-3.0706e-06
-3.62309e-06
4.16895e-06
5.10327e-07
4.73003e-07
-3.07121e-06
-2.25148e-05
1.4374e-05
-0.000364083
-0.000433913
0.000507013
-3.10368e-05
-3.13022e-05
-0.000363284
0.00276802
-0.000147281
1.44751e-06
-2.76417e-06
8.64353e-06
-2.03561e-06
-8.04381e-06
4.5069e-06
7.50133e-06
-5.14933e-06
-4.25698e-06
3.57697e-06
-6.76142e-06
6.6091e-06
-7.25386e-06
-4.92014e-06
5.97914e-06
5.8461e-06
6.21684e-06
-3.10965e-06
8.50661e-06
1.86591e-06
-1.31894e-06
1.37227e-06
-2.73712e-06
-2.59919e-06
-1.36767e-06
1.32627e-06
-2.96818e-06
-2.8586e-06
-1.25869e-06
1.16754e-06
-3.11148e-06
-3.05883e-06
-1.07048e-06
9.68372e-07
-3.17806e-06
-3.16951e-06
-3.17976e-06
3.99195e-06
-3.58321e-06
6.14568e-07
-4.49336e-06
5.27882e-06
9.4217e-07
7.72e-07
-5.74899e-06
6.03682e-06
6.99167e-07
7.99175e-07
-6.40482e-06
6.76988e-06
6.68373e-07
6.24719e-07
-7.21744e-06
7.74565e-06
9.48094e-07
7.71564e-07
-8.33125e-06
8.93173e-06
1.46481e-06
1.19293e-06
-9.45162e-06
9.95789e-06
2.10276e-06
1.80101e-06
-1.04198e-05
1.07452e-05
2.84105e-06
2.44265e-06
-1.08859e-05
1.08444e-05
3.47347e-06
3.12079e-06
-1.07277e-05
1.08036e-05
3.869e-06
3.87027e-06
3.63182e-06
-6.17433e-06
5.7573e-06
3.28921e-06
-4.68359e-06
4.26724e-06
1.0602e-05
-1.07148e-05
3.491e-06
3.6727e-06
1.07894e-05
-1.06892e-05
3.03498e-06
3.29227e-06
1.03586e-05
-9.78416e-06
2.37093e-06
2.74124e-06
9.14113e-06
-8.45216e-06
1.776e-06
2.1641e-06
7.81035e-06
-7.32967e-06
1.15054e-06
1.35424e-06
6.91562e-06
-6.53975e-06
8.8117e-07
9.21053e-07
6.14354e-06
-5.7016e-06
7.98029e-07
8.37379e-07
5.22e-06
-4.70384e-06
6.56618e-07
7.29861e-07
5.74687e-07
-0.000584257
0.000666541
-3.12113e-05
-3.13372e-05
-0.000754216
0.000849266
-3.04444e-05
-3.0828e-05
-0.000953572
0.00106967
-2.95252e-05
-2.98905e-05
-0.00120036
0.00134784
-2.68504e-05
-2.87333e-05
-0.00151383
0.00169687
-1.98871e-05
-2.41628e-05
-0.00189491
0.00209758
-1.43864e-05
-1.68267e-05
-0.0023014
0.00248172
-3.1381e-05
-2.18877e-05
-0.00263267
0.00273925
-7.83113e-05
-5.64059e-05
-1.38665e-05
6.49412e-06
-0.000364485
-0.000433918
0.000506999
-3.06503e-05
2.20929e-05
-3.09075e-05
-0.000363333
-0.000364131
2.36512e-07
-7.03542e-06
-0.000364438
-0.00036448
-0.000364448
0.0025276
-0.00260329
8.20885e-05
0.000434983
0.00280903
-0.00288034
-8.21585e-05
-8.62957e-05
0.00283667
-0.0026928
2.4754e-05
-1.12335e-05
0.00251709
-0.00231712
2.97711e-05
3.40549e-05
0.00210499
-0.00189709
8.83648e-06
2.03672e-05
0.00169599
-0.00151181
-1.12009e-05
-4.3279e-06
0.0013464
-0.00119898
-2.48542e-05
-2.00041e-05
0.00106925
-0.000953352
-2.88781e-05
-2.72913e-05
0.000849168
-0.000754143
-3.00874e-05
-2.95403e-05
0.000666503
-0.000584225
-3.08649e-05
-3.04767e-05
-3.09888e-05
-3.39883e-06
3.63375e-06
-1.19768e-06
-1.18561e-06
-4.01685e-06
4.47748e-06
-1.10639e-06
-1.13714e-06
-4.85709e-06
5.15768e-06
-1.34025e-06
-1.19724e-06
-5.40281e-06
5.61765e-06
-1.61826e-06
-1.48054e-06
-5.79258e-06
5.93867e-06
-1.82467e-06
-1.7166e-06
-6.07273e-06
6.13204e-06
-2.03699e-06
-1.94071e-06
-6.18642e-06
6.22475e-06
-2.30767e-06
-2.1441e-06
-6.17568e-06
6.05716e-06
-2.57821e-06
-2.40788e-06
-5.88792e-06
5.6766e-06
-2.89819e-06
-2.70687e-06
-5.46136e-06
5.12045e-06
-3.31435e-06
-3.09853e-06
-4.71889e-06
4.20902e-06
-3.7663e-06
-3.53901e-06
-3.67522e-06
3.1334e-06
-4.03056e-06
-3.91298e-06
-2.55998e-06
1.9487e-06
-4.2719e-06
-4.11765e-06
-1.29627e-06
6.3107e-07
-4.49263e-06
-4.38449e-06
3.02378e-08
-6.86594e-07
-4.56248e-06
-4.53511e-06
1.33522e-06
-2.00048e-06
-4.52151e-06
-4.54555e-06
2.6704e-06
-3.27317e-06
-4.37611e-06
-4.4729e-06
3.88377e-06
-4.50089e-06
-4.11284e-06
-4.26851e-06
4.94986e-06
-5.28655e-06
-3.63528e-06
-3.87195e-06
5.55031e-06
-5.77139e-06
-3.25452e-06
-3.42674e-06
5.96149e-06
-6.13198e-06
-2.99988e-06
-3.12628e-06
6.25672e-06
-6.32902e-06
-2.71368e-06
-2.85525e-06
6.35341e-06
-6.32006e-06
-2.4445e-06
-2.57854e-06
6.23409e-06
-6.09451e-06
-2.18246e-06
-2.31105e-06
5.90997e-06
-5.68401e-06
-1.94574e-06
-2.06032e-06
5.42686e-06
-5.1411e-06
-1.73189e-06
-1.83195e-06
4.82118e-06
-4.4635e-06
-1.42043e-06
-1.60138e-06
4.14673e-06
-7.65987e-07
-3.87444e-06
-1.20689e-06
-1.41687e-06
1.38295e-06
-2.95821e-06
-2.88128e-06
-1.33262e-06
1.27129e-06
-3.03007e-06
-3.00608e-06
-1.19956e-06
1.11368e-06
-3.05259e-06
-3.04954e-06
-1.01629e-06
8.98828e-07
-3.06157e-06
-3.0611e-06
-3.06589e-06
2.59279e-06
-0.000227682
0.00010871
0.000196083
-0.000133356
0.000156463
-0.000394626
-0.000219354
0.000330768
2.59263e-06
-2.21524e-06
-9.82929e-07
-7.01021e-06
-4.3797e-06
7.66658e-06
-4.84896e-06
-4.47561e-06
-7.71565e-06
-5.94735e-06
6.28929e-06
5.63351e-06
4.92869e-06
1.58265e-06
5.90066e-06
-7.08932e-07
6.14607e-06
4.77786e-06
5.32652e-06
-5.14573e-06
6.43238e-06
8.53368e-06
-4.39224e-06
3.3728e-06
-7.012e-06
-3.11203e-06
5.06375e-07
-1.12221e-05
2.41937e-06
-6.64391e-06
-2.27714e-06
5.20084e-06
0.000594834
0.000412602
-0.000904451
-1.03218e-05
4.36275e-06
0.00269878
-0.000344663
2.96483e-06
-1.00734e-06
6.62576e-06
-6.28732e-06
9.53045e-06
-1.0096e-05
-2.73634e-06
1.98085e-06
-0.000433135
0.000506211
-3.8968e-05
-0.000362547
-3.98682e-05
0.00034163
0.000306824
-0.00250514
0.00129642
3.29118e-06
4.88697e-06
0.000411168
0.000365425
-6.47083e-06
-4.93588e-06
8.60868e-06
-5.17243e-06
0.00251804
0.000368269
-0.000620453
-6.73961e-06
6.87646e-06
5.76418e-06
3.81471e-06
2.67071e-06
5.83284e-06
5.60613e-07
6.42924e-06
4.71307e-06
4.31076e-06
-5.42313e-06
7.11874e-06
8.36967e-06
-4.9419e-06
-1.10364e-06
1.19256e-06
-2.09521e-06
-1.02118e-06
-1.95058e-06
-3.65046e-06
4.21236e-06
3.33604e-07
-3.0813e-06
3.03359e-07
6.14642e-07
-7.53188e-07
-2.53645e-06
4.68389e-07
-2.52873e-06
-0.000433122
0.000506189
-3.92763e-05
-0.000362511
-4.0203e-05
-2.18261e-05
1.3947e-05
-0.000296089
-3.06647e-05
-0.000295319
7.57985e-06
-2.95387e-06
0.00271869
-0.000202246
-1.31664e-06
1.34722e-06
-2.28425e-06
-1.21669e-06
-2.16261e-06
0.00273061
-0.000101416
-4.83467e-08
1.17748e-06
-6.84629e-07
8.56799e-06
-5.08205e-06
-2.18072e-07
1.78945e-06
-1.06676e-06
-4.81214e-06
-7.34334e-06
5.54295e-06
6.10622e-06
5.81279e-06
-4.36905e-06
8.94023e-06
-1.25526e-06
1.30059e-06
-2.30521e-06
-2.18472e-06
-1.30399e-06
1.28533e-06
-2.48696e-06
-2.39078e-06
-1.23544e-06
1.17676e-06
-2.60743e-06
-2.55502e-06
-1.09017e-06
1.00123e-06
-2.66736e-06
-2.64732e-06
-8.88963e-07
7.61218e-07
-2.63487e-06
-2.66327e-06
-6.38152e-07
5.0734e-07
-2.61657e-06
-2.6217e-06
3.1235e-06
-2.60854e-06
3.54314e-07
-3.60021e-06
4.08363e-06
4.25687e-07
3.59529e-07
-4.60589e-06
5.18147e-06
5.95015e-07
5.09227e-07
-5.63891e-06
6.05857e-06
4.73149e-07
5.46925e-07
-6.44348e-06
6.87313e-06
4.91683e-07
4.45512e-07
-7.37254e-06
7.96684e-06
7.34581e-07
5.93799e-07
-8.61712e-06
9.21355e-06
1.14077e-06
9.17086e-07
-9.75652e-06
1.02749e-05
1.59792e-06
1.38933e-06
-1.07314e-05
1.10903e-05
2.15002e-06
1.86096e-06
-1.12392e-05
1.12243e-05
2.68867e-06
2.38584e-06
-1.12576e-05
1.11922e-05
2.8756e-06
2.88498e-06
2.5041e-06
1.30473e-06
-1.20473e-06
-1.12404e-05
1.05107e-05
-1.06603e-05
3.02499e-06
3.55138e-06
1.07811e-05
-1.09285e-05
2.47424e-06
2.67082e-06
1.1003e-05
-1.09149e-05
2.13944e-06
2.31451e-06
1.05696e-05
-1.01221e-05
1.73959e-06
1.90794e-06
9.47069e-06
-8.79247e-06
1.35084e-06
1.5747e-06
8.0992e-06
-7.55476e-06
9.74671e-07
1.03144e-06
7.06182e-06
-6.64246e-06
7.07229e-07
7.44711e-07
6.19061e-06
-5.73122e-06
5.49257e-07
5.94245e-07
5.26729e-06
-4.75183e-06
4.5066e-07
5.16616e-07
3.91969e-07
-0.000583666
0.000666286
-3.82033e-05
-3.91451e-05
-0.000754249
0.00084961
-3.62166e-05
-3.71997e-05
-0.00095423
0.00107107
-3.37731e-05
-3.50691e-05
-0.00120293
0.00135177
-2.89333e-05
-3.1809e-05
-0.00151796
0.00170221
-1.95317e-05
-2.46115e-05
-0.00190134
0.00210885
-1.09562e-05
-1.48652e-05
-0.0023081
0.00249542
-2.58184e-05
-1.19052e-05
-0.0026365
0.00273957
-5.76652e-05
-3.398e-05
-1.3457e-05
6.34346e-06
-0.000296417
2.13801e-05
-3.02686e-05
-0.000295379
-0.000296116