/*--------------------------------*- C++ -*----------------------------------*\
| =========                 |                                                 |
| \\      /  F ield         | OpenFOAM: The Open Source CFD Toolbox           |
|  \\    /   O peration     | Version:  2212                                  |
|   \\  /    A nd           | Website:  www.openfoam.com                      |
|    \\/     M anipulation  |                                                 |
\*---------------------------------------------------------------------------*/
FoamFile
{
    version     2.0;
    format      ascii;
    arch        "LSB;label=32;scalar=64";
    class       volScalarField;
    location    "0.003";
    object      T;
}
// * * * * * * * * * * * * * * * * * * * * * * * * * * * * * * * * * * * * * //

dimensions      [0 0 0 1 0 0 0];

internalField   nonuniform List<scalar> 
31661
(
273.346
273.596
273.551
273.575
273.718
273.68
273.701
273.825
273.793
273.81
274.063
274.545
274.275
274.932
273.484
273.284
273.572
273.274
274.678
273.287
274.818
274.823
274.904
273.48
274.212
274.817
274.922
274.78
274.539
274.482
273.574
274.914
274.906
274.686
274.615
273.876
274.755
273.924
274.757
274.869
274.946
273.149
274.51
274.594
274.594
274.565
274.595
274.69
274.748
274.763
274.924
274.763
274.587
274.697
274.688
274.633
274.613
274.607
265.348
274.629
274.58
274.594
274.623
271.821
274.721
273.843
273.949
265.461
265.581
265.704
274.529
265.878
266.012
266.147
266.285
266.428
266.574
266.725
266.879
267.037
267.197
267.36
267.524
267.69
267.702
267.536
267.372
267.21
267.05
266.893
266.739
266.59
266.445
266.304
266.168
266.037
265.914
265.8
265.691
265.58
265.47
265.368
265.276
265.209
265.19
265.114
265.103
265.025
265.018
264.941
264.936
264.861
264.857
264.785
264.782
264.713
264.71
264.643
264.641
264.575
264.573
264.509
264.507
264.443
264.442
264.379
264.377
264.314
264.313
264.249
264.248
264.184
264.183
264.118
264.117
264.051
264.05
263.983
263.982
263.913
263.912
263.843
263.842
263.771
263.77
263.698
263.697
263.624
263.623
263.549
263.548
263.473
263.472
263.396
263.395
263.318
263.317
263.239
263.238
263.16
263.159
263.08
263.079
262.999
262.998
262.917
262.916
262.835
262.834
262.752
262.752
262.753
262.835
262.918
262.999
263.08
263.16
263.24
263.318
263.396
263.473
263.549
263.624
263.698
263.771
263.843
263.913
263.983
264.051
264.118
264.184
264.25
264.315
264.38
264.444
264.51
264.576
264.644
264.715
264.788
264.865
264.946
265.033
265.127
265.229
265.338
265.456
265.582
265.713
265.849
265.986
266.125
266.266
266.41
266.558
266.71
266.865
267.869
267.858
267.023
267.184
267.346
267.511
267.678
268.028
268.039
268.05
267.88
267.713
267.547
267.383
267.221
267.062
266.906
266.753
266.604
266.459
266.318
266.183
266.052
265.926
265.805
265.69
265.579
265.472
265.37
265.274
265.182
265.095
265.011
264.93
264.853
264.779
264.708
264.638
264.571
264.505
264.44
264.376
264.312
264.247
264.182
264.115
264.048
263.98
263.911
263.841
263.769
263.696
263.622
263.547
263.471
263.394
263.316
263.237
263.158
263.078
262.997
262.916
262.834
262.751
262.668
262.668
262.669
262.669
262.669
262.753
262.835
262.918
262.999
263.08
263.16
263.24
263.318
263.396
263.473
263.549
263.624
263.698
263.771
263.843
263.913
263.983
264.051
264.118
264.184
264.25
264.315
264.379
264.444
264.51
264.576
264.645
264.716
264.789
264.867
264.949
265.037
265.131
265.231
265.339
265.455
265.578
265.704
265.833
265.968
266.106
266.248
266.394
266.543
266.695
266.851
267.009
267.17
267.847
267.333
267.498
267.666
268.222
268.211
268.019
268.201
268.397
268.408
268.233
268.06
267.89
267.723
267.557
267.393
267.231
267.072
266.916
266.764
266.615
266.47
266.329
266.192
266.06
265.932
265.81
265.691
265.579
265.472
265.37
265.272
265.179
265.091
265.007
264.926
264.849
264.776
264.705
264.636
264.569
264.503
264.439
264.374
264.31
264.245
264.18
264.114
264.047
263.979
263.909
263.839
263.767
263.694
263.621
263.546
263.47
263.393
263.315
263.236
263.157
263.077
262.996
262.915
262.833
262.75
262.667
262.584
262.584
262.585
262.585
262.585
262.586
262.586
262.669
262.753
262.835
262.918
262.999
263.08
263.16
263.239
263.318
263.396
263.473
263.549
263.623
263.697
263.77
263.842
263.912
263.982
264.05
264.117
264.183
264.249
264.314
264.379
264.444
264.509
264.576
264.645
264.716
264.79
264.868
264.95
265.038
265.132
265.232
265.337
265.45
265.569
265.692
265.82
265.953
266.091
266.233
266.379
266.529
266.682
266.837
266.996
267.157
267.32
267.836
267.486
267.655
268.386
268.586
268.574
268.009
268.193
268.377
268.768
268.78
268.597
268.419
268.243
268.07
267.899
267.73
267.564
267.4
267.239
267.08
266.924
266.771
266.622
266.476
266.335
266.198
266.065
265.937
265.813
265.694
265.581
265.472
265.369
265.271
265.177
265.088
265.004
264.923
264.847
264.773
264.702
264.634
264.567
264.502
264.437
264.372
264.308
264.243
264.178
264.112
264.045
263.977
263.907
263.837
263.765
263.693
263.619
263.544
263.468
263.391
263.314
263.235
263.156
263.076
262.995
262.914
262.832
262.75
262.667
262.584
262.5
262.5
262.5
262.5
262.501
262.501
262.501
262.501
262.501
262.586
262.669
262.753
262.835
262.917
262.999
263.079
263.159
263.239
263.317
263.395
263.472
263.547
263.622
263.696
263.769
263.84
263.911
263.98
264.048
264.115
264.182
264.247
264.312
264.377
264.442
264.508
264.575
264.644
264.715
264.79
264.868
264.951
265.039
265.132
265.23
265.333
265.443
265.56
265.681
265.808
265.94
266.077
266.219
266.365
266.515
266.668
266.823
266.982
267.144
267.309
267.475
267.826
267.644
268.564
268.756
268
268.966
268.954
268.185
268.37
268.556
269.158
269.17
268.978
268.791
268.608
268.428
268.251
268.077
267.906
267.736
267.57
267.405
267.244
267.085
266.929
266.776
266.626
266.481
266.339
266.201
266.068
265.939
265.815
265.696
265.582
265.473
265.37
265.271
265.176
265.087
265.002
264.921
264.844
264.771
264.7
264.631
264.565
264.499
264.434
264.37
264.306
264.241
264.175
264.109
264.042
263.974
263.905
263.834
263.763
263.69
263.617
263.542
263.466
263.39
263.312
263.234
263.155
263.075
262.994
262.913
262.832
262.749
262.667
262.583
262.5
262.415
262.416
262.416
262.416
262.416
262.416
262.416
262.416
262.416
262.417
262.501
262.586
262.669
262.752
262.835
262.917
262.998
263.079
263.159
263.238
263.316
263.393
263.47
263.546
263.62
263.694
263.767
263.838
263.908
263.978
264.046
264.113
264.179
264.245
264.31
264.375
264.44
264.506
264.574
264.643
264.714
264.789
264.867
264.949
265.036
265.128
265.225
265.327
265.436
265.551
265.671
265.797
265.928
266.065
266.206
266.352
266.501
266.654
266.81
266.97
267.132
267.297
267.464
267.816
267.634
262.417
267.806
268.747
267.991
268.943
268.177
269.146
268.363
269.368
269.355
268.55
268.74
269.571
269.584
269.381
269.182
268.989
268.801
268.617
268.436
268.258
268.083
267.911
267.741
267.574
267.409
267.247
267.088
266.932
266.779
266.63
266.484
266.342
266.204
266.07
265.941
265.817
265.698
265.583
265.474
265.37
265.271
265.176
265.086
265.001
264.92
264.843
264.769
264.698
264.629
264.562
264.496
264.432
264.367
264.303
264.238
264.172
264.106
264.039
263.971
263.902
263.831
263.76
263.688
263.614
263.539
263.464
263.388
263.31
263.232
263.153
263.074
262.993
262.912
262.831
262.749
262.666
262.583
262.499
262.415
262.331
262.331
262.331
262.331
262.331
262.331
262.331
262.331
262.331
262.331
262.331
262.331
262.417
262.501
262.585
262.669
262.752
262.834
262.916
262.997
263.078
263.157
263.236
263.314
263.392
263.468
263.544
263.618
263.692
263.764
263.835
263.906
263.975
264.043
264.11
264.177
264.242
264.308
264.373
264.438
264.504
264.572
264.641
264.713
264.787
264.865
264.947
265.033
265.124
265.22
265.322
265.43
265.543
265.663
265.787
265.917
266.053
266.193
266.338
266.487
266.64
266.797
266.957
267.119
267.284
267.453
267.624
267.797
262.331
267.973
267.982
268.935
268.168
269.136
268.357
269.343
268.545
269.559
268.735
269.795
269.781
268.928
262.246
262.246
262.246
262.246
262.246
262.246
262.245
262.245
262.245
262.245
262.246
262.246
262.246
262.331
262.416
262.501
262.585
262.668
262.751
262.833
262.915
262.996
263.076
263.156
263.234
263.312
263.389
263.466
263.541
263.615
263.689
263.761
263.832
263.902
263.972
264.04
264.107
264.173
264.239
264.305
264.37
264.436
264.502
264.57
264.639
264.711
264.785
264.862
264.944
265.029
265.119
265.215
265.316
265.423
265.535
265.654
265.777
265.907
266.042
266.181
266.326
266.475
266.628
266.784
266.944
267.107
267.273
267.441
267.613
267.787
267.965
268.153
268.145
262.246
270.012
270.026
269.809
269.597
269.392
269.193
268.999
268.81
268.624
268.442
268.264
268.088
267.915
267.745
267.577
267.413
267.25
267.091
266.935
266.782
266.632
266.486
266.344
266.206
266.072
265.943
265.819
265.699
265.585
265.475
265.37
265.271
265.176
265.086
265.001
264.919
264.842
264.767
264.696
264.627
264.56
264.494
264.428
264.364
264.299
264.234
264.169
264.103
264.035
263.967
263.898
263.828
263.757
263.684
263.611
263.537
263.461
263.385
263.308
263.23
263.151
263.072
262.992
262.911
262.83
262.748
262.665
262.582
262.499
262.415
262.33
262.246
268.161
269.128
268.329
268.336
268.35
269.334
268.54
269.548
268.731
269.77
268.924
270
269.123
270.251
270.237
262.246
262.331
262.416
262.501
262.584
262.668
262.75
262.832
262.914
262.994
263.074
263.154
263.232
263.31
263.387
263.463
263.538
263.612
263.685
263.757
263.829
263.899
263.968
264.036
264.103
264.17
264.236
264.302
264.367
264.433
264.5
264.567
264.637
264.708
264.782
264.859
264.94
265.025
265.115
265.21
265.311
265.417
265.529
265.646
265.769
265.898
266.031
266.17
266.314
266.462
266.615
266.771
266.931
267.094
267.26
267.43
267.602
267.777
267.956
268.137
268.321
270.266
270.04
269.821
269.609
269.402
269.202
269.007
268.816
268.63
268.447
268.268
268.092
267.919
267.748
267.58
267.415
267.253
267.094
266.937
266.784
266.635
266.489
266.346
266.208
266.074
265.945
265.82
265.701
265.586
265.476
265.371
265.272
265.177
265.086
265.001
264.919
264.841
264.766
264.694
264.625
264.557
264.491
264.425
264.36
264.295
264.23
264.165
264.098
264.031
263.963
263.894
263.824
263.753
263.681
263.608
263.533
263.458
263.382
263.306
263.228
263.149
263.07
262.99
262.91
262.829
262.747
262.665
262.582
262.498
262.414
262.33
262.245
262.16
262.16
262.16
262.16
262.16
262.16
262.16
262.16
262.16
262.159
262.159
262.159
262.159
262.159
262.16
262.16
270.498
262.16
268.516
268.509
270.483
268.342
269.328
262.074
262.074
262.073
262.073
262.073
262.073
262.073
262.073
262.073
262.074
262.074
262.074
262.074
262.075
262.075
262.074
262.074
268.521
268.535
269.54
270.736
270.751
270.512
270.279
270.052
269.832
269.618
269.41
269.209
269.013
268.821
268.634
268.451
268.272
268.095
267.922
267.751
267.583
267.418
267.256
267.096
266.94
266.787
266.637
266.491
266.349
266.21
266.076
265.947
265.822
265.702
265.587
265.477
265.372
265.272
265.177
265.087
265.001
264.918
264.84
264.765
264.693
264.623
264.554
264.488
264.422
264.357
264.291
264.226
264.16
264.094
264.027
263.959
263.89
263.82
263.749
263.677
263.604
263.53
263.455
263.379
263.303
263.225
263.147
263.068
262.989
262.908
262.827
262.746
262.664
262.581
262.498
262.414
262.33
262.245
262.16
262.074
268.699
268.705
268.727
269.761
268.921
269.989
269.119
270.226
269.323
270.47
270.722
270.994
270.979
271.776
271.506
262.074
262.16
262.246
262.331
262.416
262.5
262.584
262.667
262.749
262.831
262.912
262.993
263.072
263.151
263.23
263.307
263.384
263.459
263.534
263.608
263.681
263.753
263.824
263.895
263.964
264.032
264.099
264.166
264.232
264.298
264.364
264.43
264.497
264.565
264.634
264.705
264.779
264.856
264.937
265.021
265.111
265.205
265.305
265.411
265.521
265.638
265.76
265.888
266.021
266.16
266.303
266.451
266.602
266.758
266.918
267.082
267.25
267.419
267.591
267.768
267.947
268.128
268.313
268.5
268.692
261.988
268.894
268.888
274.668
261.988
268.528
269.534
261.987
261.986
261.986
261.986
261.986
261.986
261.986
261.987
261.987
261.987
261.988
261.988
261.988
261.988
261.988
261.988
261.988
268.711
268.723
269.754
271.532
271.011
270.766
270.525
270.29
270.061
269.839
269.624
269.416
269.214
269.017
268.825
268.638
268.455
268.275
268.099
267.925
267.754
267.586
267.421
267.259
267.099
266.943
266.79
266.64
266.494
266.351
266.213
266.079
265.949
265.824
265.704
265.589
265.479
265.374
265.273
265.178
265.087
265.001
264.918
264.839
264.764
264.691
264.621
264.552
264.485
264.418
264.353
264.287
264.222
264.156
264.089
264.022
263.954
263.885
263.815
263.744
263.672
263.6
263.526
263.451
263.376
263.3
263.222
263.144
263.066
262.986
262.906
262.826
262.744
262.662
262.58
262.497
262.413
262.329
262.244
262.159
262.073
261.987
268.9
268.919
269.981
269.088
269.095
269.117
270.217
269.32
270.46
269.531
270.711
270.967
271.227
271.752
261.901
261.902
272.116
272.365
261.988
262.074
262.16
262.246
262.331
262.415
262.499
262.583
262.666
262.748
262.829
262.91
262.99
263.07
263.149
263.227
263.304
263.38
263.456
263.53
263.604
263.677
263.749
263.82
263.89
263.959
264.027
264.095
264.162
264.228
264.294
264.36
264.426
264.493
264.562
264.631
264.703
264.777
264.854
264.934
265.018
265.107
265.201
265.301
265.406
265.516
265.632
265.753
265.881
266.013
266.15
266.293
266.44
266.592
266.747
266.908
267.071
267.238
267.408
267.582
267.759
267.937
268.119
268.304
268.492
268.684
268.881
269.081
272.405
272.012
269.294
269.288
274.625
268.717
269.749
261.9
261.899
261.899
261.899
261.899
261.899
261.899
261.9
261.9
261.9
261.901
261.901
261.901
261.901
261.901
261.901
261.901
261.901
268.905
268.915
269.976
274.023
271.279
271.026
270.777
270.534
270.297
270.067
269.844
269.629
269.42
269.217
269.021
268.829
268.641
268.458
268.278
268.102
267.928
267.757
267.589
267.424
267.262
267.102
266.946
266.793
266.643
266.496
266.354
266.215
266.081
265.952
265.826
265.706
265.591
265.48
265.375
265.274
265.179
265.087
265.001
264.918
264.839
264.763
264.689
264.618
264.549
264.482
264.415
264.349
264.283
264.217
264.151
264.084
264.017
263.949
263.88
263.81
263.739
263.667
263.595
263.521
263.447
263.372
263.296
263.219
263.142
263.063
262.984
262.904
262.824
262.743
262.661
262.579
262.496
262.412
262.328
262.243
262.158
262.073
261.987
261.9
269.1
269.115
270.211
269.3
269.319
270.454
269.5
269.506
269.529
270.703
269.746
270.959
271.219
271.479
261.814
261.814
271.739
271.995
274.705
272.234
261.902
261.902
261.988
262.074
262.16
262.245
262.33
262.414
262.498
262.582
262.664
262.746
262.827
262.908
262.988
263.067
263.146
263.223
263.3
263.376
263.452
263.526
263.599
263.672
263.744
263.815
263.885
263.954
264.022
264.09
264.157
264.224
264.29
264.356
264.423
264.49
264.558
264.628
264.7
264.774
264.85
264.931
265.016
265.105
265.199
265.298
265.402
265.511
265.626
265.747
265.874
266.005
266.142
266.284
266.431
266.582
266.738
266.898
267.061
267.228
267.399
267.572
267.749
267.928
268.11
268.296
268.485
268.677
268.873
269.075
269.282
269.494
274.291
269.719
269.713
274.846
274.582
268.91
269.972
261.813
261.812
261.812
261.812
261.812
261.812
261.812
261.812
261.813
261.813
261.813
261.814
261.814
261.814
261.814
261.814
261.814
261.814
261.813
269.104
269.113
270.206
274.581
274
271.569
271.299
271.038
270.786
270.54
270.302
270.071
269.847
269.631
269.423
269.22
269.023
268.832
268.644
268.461
268.281
268.105
267.931
267.761
267.593
267.428
267.265
267.106
266.949
266.796
266.646
266.499
266.357
266.218
266.084
265.954
265.829
265.708
265.593
265.482
265.376
265.276
265.18
265.088
265.001
264.918
264.838
264.762
264.688
264.616
264.547
264.479
264.411
264.345
264.279
264.212
264.146
264.079
264.011
263.943
263.874
263.804
263.734
263.662
263.59
263.517
263.443
263.368
263.292
263.215
263.138
263.06
262.981
262.902
262.822
262.741
262.659
262.577
262.494
262.411
262.327
262.243
262.158
262.072
261.986
261.9
261.813
269.305
269.317
270.449
269.512
269.527
270.699
269.725
269.744
270.954
269.939
269.945
269.97
271.213
271.474
261.726
261.727
271.733
271.988
272.233
272.45
261.815
261.815
261.901
261.988
262.074
262.16
262.245
262.329
262.413
262.497
262.58
262.662
262.744
262.825
262.906
262.985
263.064
263.142
263.22
263.296
263.372
263.447
263.521
263.594
263.667
263.739
263.809
263.879
263.949
264.017
264.085
264.152
264.219
264.285
264.352
264.419
264.486
264.555
264.625
264.697
264.771
264.848
264.929
265.014
265.103
265.197
265.295
265.4
265.508
265.623
265.743
265.868
265.999
266.136
266.277
266.423
266.574
266.729
266.889
267.052
267.219
267.39
267.563
267.739
267.919
268.102
268.287
268.477
268.669
268.866
269.068
269.274
269.487
269.706
269.932
272.605
270.172
270.165
272.634
261.815
269.109
270.204
261.725
261.725
261.724
261.724
261.724
261.724
261.724
261.725
261.725
261.725
261.726
261.726
261.726
261.727
261.727
261.727
261.727
261.726
261.726
261.726
269.31
269.316
270.446
272.347
272.102
271.844
271.581
271.307
271.043
270.787
270.54
270.302
270.071
269.849
269.633
269.424
269.222
269.026
268.834
268.647
268.464
268.285
268.108
267.935
267.764
267.596
267.431
267.269
267.109
266.953
266.799
266.649
266.503
266.36
266.221
266.087
265.957
265.831
265.711
265.595
265.484
265.378
265.277
265.181
265.089
265.001
264.917
264.837
264.76
264.686
264.614
264.544
264.476
264.408
264.341
264.274
264.208
264.141
264.074
264.006
263.937
263.868
263.799
263.728
263.657
263.584
263.511
263.438
263.363
263.288
263.211
263.134
263.057
262.978
262.899
262.819
262.738
262.657
262.575
262.493
262.409
262.326
262.241
262.157
262.071
261.985
261.899
261.812
261.725
269.517
269.526
270.696
269.73
269.743
270.951
272.583
269.951
269.968
271.211
270.178
270.202
271.471
261.638
261.639
270.406
270.413
271.731
271.985
272.232
272.462
272.664
261.727
261.727
261.727
261.814
261.901
261.987
262.073
262.159
262.244
262.328
262.412
262.496
262.578
262.66
262.742
262.823
262.903
262.982
263.06
263.138
263.215
263.292
263.367
263.442
263.516
263.589
263.661
263.733
263.803
263.873
263.943
264.011
264.079
264.147
264.214
264.281
264.348
264.415
264.483
264.552
264.622
264.695
264.769
264.847
264.929
265.014
265.103
265.196
265.295
265.398
265.508
265.622
265.742
265.866
265.995
266.131
266.272
266.418
266.568
266.723
266.882
267.045
267.212
267.382
267.555
267.732
267.912
268.094
268.28
268.469
268.662
268.86
269.061
269.268
269.48
269.699
269.925
270.157
270.398
270.654
272.849
270.646
272.826
261.727
269.313
270.444
261.637
261.637
261.636
261.636
261.636
261.636
261.636
261.636
261.637
261.637
261.637
261.638
261.638
261.639
261.639
261.639
261.639
261.639
261.638
261.638
261.638
269.521
269.525
270.694
272.326
272.078
271.821
271.563
271.3
271.04
270.786
270.539
270.301
270.07
269.848
269.634
269.426
269.224
269.028
268.837
268.65
268.467
268.288
268.112
267.938
267.768
267.6
267.435
267.272
267.113
266.956
266.803
266.653
266.506
266.363
266.225
266.09
265.96
265.834
265.713
265.597
265.486
265.38
265.279
265.182
265.09
265.002
264.917
264.837
264.759
264.685
264.612
264.542
264.472
264.404
264.337
264.27
264.203
264.135
264.068
264
263.931
263.862
263.793
263.722
263.651
263.579
263.506
263.432
263.358
263.283
263.207
263.13
263.053
262.975
262.896
262.816
262.736
262.655
262.573
262.491
262.408
262.324
262.24
262.155
262.07
261.985
261.898
261.812
261.725
261.637
269.735
269.743
270.95
272.563
272.805
269.956
269.967
271.21
270.184
270.201
271.471
261.55
261.551
270.42
270.443
270.661
271.73
271.985
270.9
270.908
272.231
272.467
272.681
272.871
261.639
261.639
261.639
261.639
261.726
261.814
261.9
261.987
262.072
262.158
262.243
262.327
262.411
262.494
262.576
262.658
262.739
262.82
262.899
262.978
263.057
263.134
263.211
263.287
263.362
263.436
263.51
263.583
263.655
263.727
263.797
263.867
263.937
264.005
264.073
264.141
264.209
264.276
264.343
264.411
264.479
264.549
264.62
264.693
264.768
264.847
264.928
265.014
265.103
265.197
265.295
265.399
265.508
265.621
265.74
265.864
265.994
266.129
266.269
266.414
266.564
266.719
266.878
267.041
267.208
267.377
267.55
267.726
267.906
268.089
268.274
268.463
268.656
268.852
269.054
269.261
269.473
269.692
269.916
270.149
270.389
270.636
270.891
271.158
273.028
271.15
273.048
261.639
269.524
270.693
261.549
261.549
261.548
261.548
261.548
261.548
261.548
261.548
261.548
261.549
261.549
261.549
261.55
261.55
261.55
261.551
261.55
261.55
261.55
261.55
261.549
261.549
269.738
269.742
270.949
272.544
272.307
272.059
271.805
271.548
271.289
271.033
270.781
270.536
270.299
270.069
269.848
269.634
269.427
269.225
269.03
268.839
268.653
268.47
268.291
268.115
267.942
267.772
267.604
267.439
267.276
267.117
266.96
266.807
266.656
266.51
266.367
266.228
266.093
265.963
265.837
265.716
265.6
265.488
265.382
265.28
265.183
265.09
265.002
264.917
264.836
264.759
264.683
264.61
264.539
264.469
264.401
264.333
264.265
264.198
264.13
264.062
263.994
263.925
263.856
263.786
263.716
263.645
263.573
263.5
263.427
263.353
263.278
263.202
263.126
263.049
262.971
262.892
262.813
262.733
262.652
262.571
262.489
262.406
262.323
262.239
262.154
262.069
261.983
261.897
261.811
261.724
261.636
261.548
273.009
269.96
269.967
271.21
272.785
272.767
270.189
270.2
271.472
261.461
261.462
270.425
270.442
270.692
270.667
271.732
271.987
270.914
272.234
271.165
272.472
271.409
271.417
272.69
272.887
273.065
261.551
261.551
261.551
261.551
261.551
261.638
261.726
261.813
261.899
261.986
262.071
262.157
262.241
262.325
262.409
262.492
262.574
262.655
262.736
262.816
262.896
262.974
263.052
263.129
263.206
263.281
263.356
263.431
263.504
263.577
263.649
263.72
263.791
263.861
263.93
263.999
264.068
264.136
264.203
264.271
264.339
264.407
264.476
264.546
264.617
264.691
264.767
264.846
264.928
265.013
265.103
265.197
265.295
265.399
265.508
265.621
265.74
265.864
265.994
266.129
266.268
266.413
266.562
266.716
266.875
267.038
267.204
267.373
267.546
267.722
267.901
268.084
268.269
268.458
268.65
268.847
269.048
269.254
269.466
269.683
269.908
270.139
270.379
270.626
270.88
271.139
271.399
271.666
273.227
273.211
271.659
261.55
269.741
270.949
261.461
261.46
261.46
261.459
261.459
261.459
261.459
261.459
261.46
261.46
261.46
261.461
261.461
261.461
261.462
261.462
261.462
261.462
261.462
261.461
261.461
261.46
261.46
273.194
269.963
269.966
273.374
273.359
271.21
272.99
272.973
272.956
272.749
272.526
272.29
272.044
271.791
271.535
271.278
271.024
270.775
270.532
270.296
270.067
269.847
269.634
269.427
269.227
269.032
268.842
268.656
268.474
268.295
268.119
267.946
267.776
267.608
267.443
267.28
267.121
266.964
266.81
266.66
266.513
266.37
266.231
266.097
265.966
265.84
265.719
265.603
265.491
265.384
265.282
265.185
265.092
265.003
264.918
264.836
264.758
264.682
264.608
264.537
264.466
264.397
264.329
264.26
264.192
264.125
264.056
263.988
263.919
263.85
263.78
263.709
263.638
263.566
263.494
263.421
263.347
263.272
263.197
263.121
263.044
262.967
262.888
262.809
262.73
262.649
262.568
262.486
262.404
262.321
262.237
262.153
262.068
261.982
261.896
261.81
261.723
261.635
261.548
261.459
270.192
270.199
271.473
261.373
261.373
270.429
270.441
270.691
270.672
271.734
271.991
270.92
270.948
272.238
271.172
272.475
271.425
272.697
271.675
272.899
271.913
271.92
273.079
273.242
261.463
261.463
261.463
261.463
261.462
261.462
261.461
261.549
261.637
261.725
261.812
261.898
261.984
262.07
262.155
262.239
262.323
262.406
262.489
262.571
262.652
262.733
262.813
262.892
262.97
263.047
263.124
263.2
263.276
263.35
263.424
263.498
263.57
263.642
263.713
263.784
263.854
263.924
263.993
264.062
264.13
264.198
264.266
264.334
264.403
264.473
264.543
264.615
264.689
264.766
264.845
264.927
265.013
265.103
265.197
265.296
265.4
265.508
265.622
265.741
265.865
265.995
266.129
266.268
266.413
266.562
266.716
266.874
267.036
267.202
267.371
267.543
267.719
267.898
268.08
268.265
268.453
268.645
268.842
269.041
269.247
269.458
269.675
269.898
270.128
270.368
270.614
270.868
271.127
271.391
271.654
271.911
272.157
272.151
272.375
273.388
273.432
269.965
272.518
272.747
273.518
273.505
273.177
273.16
273.144
273.343
273.328
273.314
273.491
273.477
273.465
273.608
273.62
273.597
273.632
273.713
273.722
273.732
271.21
261.372
261.372
261.371
261.371
261.37
261.37
261.37
261.37
261.37
261.371
261.371
261.371
261.372
261.372
261.372
261.373
261.373
261.373
261.373
261.372
261.372
261.372
261.371
261.37
272.177
271.917
271.649
271.38
271.114
270.854
270.601
270.355
270.116
269.886
269.664
269.448
269.238
269.034
268.834
268.639
268.447
268.26
268.076
267.895
267.716
267.541
267.369
267.2
267.035
266.873
266.716
266.563
266.413
266.269
266.13
265.995
265.866
265.742
265.622
265.509
265.4
265.296
265.197
265.103
265.013
264.927
264.844
264.764
264.688
264.613
264.541
264.469
264.399
264.33
264.261
264.193
264.124
264.055
263.986
263.917
263.847
263.777
263.707
263.635
263.563
263.491
263.418
263.344
263.27
263.195
263.119
263.042
262.965
262.887
262.808
262.729
262.649
262.568
262.486
262.404
262.321
262.237
262.153
262.068
261.983
261.897
261.811
261.724
261.636
261.549
261.46
270.195
270.198
271.474
261.374
261.374
261.374
261.374
261.373
261.373
261.372
261.372
273.705
273.587
273.453
273.3
273.129
272.94
272.733
272.51
272.274
272.029
271.777
271.523
271.268
271.016
270.768
270.527
270.292
270.065
269.846
269.634
269.428
269.228
269.034
268.844
268.659
268.477
268.298
268.123
267.95
267.78
267.612
267.447
267.285
267.125
266.968
266.815
266.664
266.517
266.374
266.235
266.1
265.97
265.843
265.722
265.605
265.494
265.386
265.284
265.186
265.093
265.004
264.918
264.836
264.757
264.681
264.607
264.534
264.463
264.394
264.324
264.256
264.187
264.119
264.05
263.982
263.913
263.843
263.773
263.702
263.631
263.559
263.487
263.414
263.341
263.266
263.191
263.115
263.039
262.962
262.884
262.805
262.726
262.646
262.565
262.483
262.401
262.318
262.235
262.151
262.066
261.981
261.895
261.809
261.722
261.634
261.547
261.458
261.37
270.433
270.44
270.69
270.676
271.736
271.993
270.926
270.948
261.284
261.284
272.242
271.178
271.21
272.479
271.432
272.702
271.683
272.907
271.929
273.09
272.167
273.254
272.391
273.401
272.587
273.53
273.643
273.807
273.813
273.742
273.89
273.895
270.197
274.162
273.458
273.821
273.829
271.474
272.698
272.453
272.191
271.915
271.637
271.364
271.096
270.836
270.584
270.34
270.102
269.872
269.651
269.436
269.228
269.024
268.826
268.632
268.442
268.255
268.072
267.891
267.714
267.539
267.368
267.199
267.034
266.873
266.716
266.563
266.414
266.27
266.131
265.996
265.867
265.743
265.624
265.51
265.401
265.297
265.198
265.104
265.013
264.927
264.843
264.764
264.686
264.611
264.538
264.466
264.396
264.326
264.256
264.187
264.118
264.049
263.98
263.91
263.841
263.77
263.699
263.628
263.556
263.484
263.411
263.337
263.263
263.188
263.113
263.037
262.96
262.882
262.804
262.725
262.645
262.564
262.483
262.401
262.318
262.235
262.151
262.066
261.981
261.896
261.809
261.723
261.635
261.548
261.459
261.371
261.283
261.283
261.282
261.282
261.281
261.281
261.281
261.281
261.281
261.281
261.282
261.282
261.282
261.283
261.283
261.283
261.283
261.283
261.283
261.283
261.283
261.282
261.282
261.281
261.281
270.435
270.439
273.965
274.475
270.689
270.68
271.738
271.996
273.803
273.699
273.579
273.442
273.288
273.115
272.925
272.717
272.494
272.259
272.014
271.764
271.511
271.257
271.007
270.761
270.521
270.288
270.063
269.845
269.634
269.429
269.23
269.036
268.847
268.662
268.48
268.302
268.127
267.954
267.784
267.616
267.451
267.289
267.129
266.972
266.819
266.668
266.521
266.378
266.239
266.104
265.973
265.847
265.725
265.608
265.496
265.389
265.286
265.188
265.094
265.005
264.919
264.836
264.757
264.68
264.605
264.532
264.461
264.39
264.321
264.251
264.182
264.114
264.045
263.975
263.906
263.836
263.766
263.695
263.624
263.552
263.48
263.407
263.334
263.26
263.185
263.11
263.034
262.957
262.879
262.801
262.722
262.642
262.561
262.48
262.398
262.316
262.232
262.149
262.064
261.979
261.893
261.807
261.721
261.633
261.546
261.457
261.369
261.28
270.93
270.946
261.284
261.284
261.284
261.284
261.284
261.284
261.283
261.282
261.282
261.194
261.194
273.973
274.037
273.899
272.246
271.184
271.209
272.484
271.438
271.474
272.707
271.691
272.913
271.939
273.099
272.178
273.264
272.405
273.411
272.614
273.541
272.793
273.654
273.27
273.752
273.838
270.437
274.063
274.118
270.687
270.683
271.998
261.194
261.193
261.193
261.192
261.192
261.192
261.192
261.192
261.192
261.192
261.192
261.192
261.192
261.193
261.193
261.193
261.194
261.193
261.193
261.193
261.193
261.193
261.192
261.192
261.191
261.19
274.627
273.896
273.802
273.695
273.572
273.433
273.276
273.102
272.91
272.702
272.479
272.244
272
271.75
271.498
271.247
270.998
270.754
270.515
270.284
270.06
269.843
269.633
269.43
269.232
269.039
268.85
268.665
268.484
268.306
268.131
267.958
267.788
267.621
267.456
267.293
267.134
266.977
266.823
266.673
266.526
266.382
266.243
266.108
265.977
265.85
265.729
265.612
265.499
265.392
265.289
265.19
265.096
265.006
264.919
264.836
264.756
264.679
264.603
264.53
264.458
264.387
264.317
264.247
264.177
264.108
264.039
263.969
263.899
263.829
263.759
263.688
263.617
263.545
263.473
263.4
263.327
263.253
263.179
263.104
263.028
262.951
262.874
262.796
262.717
262.638
262.558
262.477
262.395
262.313
262.23
262.146
262.062
261.977
261.892
261.806
261.719
261.632
261.544
261.456
261.368
261.279
261.189
270.934
270.945
273.087
272.882
272.656
272.411
272.155
271.889
271.615
271.341
271.073
270.813
270.562
270.32
270.085
269.856
269.635
269.422
269.215
269.014
268.816
268.624
268.434
268.249
268.066
267.886
267.71
267.536
267.365
267.197
267.033
266.873
266.716
266.564
266.416
266.272
266.132
265.998
265.868
265.744
265.625
265.511
265.403
265.299
265.199
265.105
265.014
264.927
264.843
264.763
264.685
264.609
264.536
264.463
264.392
264.322
264.252
264.182
264.113
264.043
263.974
263.904
263.834
263.763
263.692
263.621
263.549
263.477
263.404
263.33
263.256
263.182
263.107
263.031
262.954
262.877
262.799
262.72
262.64
262.56
262.479
262.398
262.315
262.232
262.149
262.064
261.979
261.894
261.808
261.721
261.634
261.546
261.458
261.37
261.281
261.195
261.195
261.195
261.195
261.194
261.194
261.193
261.193