/*--------------------------------*- C++ -*----------------------------------*\
| =========                 |                                                 |
| \\      /  F ield         | OpenFOAM: The Open Source CFD Toolbox           |
|  \\    /   O peration     | Version:  2212                                  |
|   \\  /    A nd           | Website:  www.openfoam.com                      |
|    \\/     M anipulation  |                                                 |
\*---------------------------------------------------------------------------*/
FoamFile
{
    version     2.0;
    format      ascii;
    arch        "LSB;label=32;scalar=64";
    class       surfaceScalarField;
    location    "0.42";
    object      phi;
}
// * * * * * * * * * * * * * * * * * * * * * * * * * * * * * * * * * * * * * //

dimensions      [1 0 -1 0 0 0 0];

oriented        oriented;

internalField   nonuniform List<scalar> 
4475
(
0.00131885
-0.00126186
0.00201083
-0.00206511
-1.40558e-05
7.02397e-06
-2.75955e-06
9.64325e-06
0.00219675
-0.00284195
0.00116532
-0.00051659
-1.17423e-05
0.00104512
6.2698e-06
-0.00103944
-0.00113828
0.00103898
0.00109194
-0.0009915
0.000964446
-0.000733362
-0.00108092
0.000850016
-0.000303323
0.000291948
0.00144635
-0.00143563
-0.000920888
-0.00120507
0.00107036
0.00105519
0.00108238
-0.00119806
-0.00102205
-0.000914341
-2.22497e-05
0.000135835
0.000800336
-0.000169588
0.000163502
-0.000908647
-0.0010435
0.00014451
-5.885e-05
0.000957584
-0.00108157
4.26906e-05
-4.58718e-06
-0.00111521
1.89541e-05
1.43601e-05
-0.00114076
1.19047e-05
1.36092e-05
-0.00115314
6.44713e-06
5.79909e-06
1.23857e-05
-0.00112943
-3.58137e-05
0.00110949
-8.62131e-05
-0.00109776
7.47634e-05
0.00116213
-4.02471e-05
0.00115042
1.80869e-05
0.00112289
3.89767e-05
0.00109205
4.97162e-05
0.00106491
6.95111e-05
0.00113654
7.26767e-05
0.000968232
-1.78682e-06
0.000888648
5.68719e-05
0.00109474
0.00014388
-0.000350571
0.00100821
3.34021e-05
5.23769e-05
0.00147956
-0.00149996
-0.000283434
-0.0011202
-9.50829e-05
0.000967539
2.53152e-05
1.47408e-05
0.000936608
2.30184e-05
7.44549e-06
0.000911427
2.08675e-05
3.92609e-06
0.00088658
2.19368e-05
2.67288e-06
0.000865135
1.85099e-05
2.75395e-06
0.000842834
1.96351e-05
2.65244e-06
0.000822235
1.86521e-05
1.95571e-06
0.000802655
1.744e-05
2.31856e-06
0.000784655
1.60866e-05
2.17797e-06
0.000766261
1.7175e-05
1.56403e-06
0.00075005
1.5666e-05
9.85619e-07
0.000733599
1.57156e-05
1.11174e-06
0.000717971
1.50425e-05
1.01831e-06
0.000703752
1.35534e-05
1.01582e-06
1.08225e-05
0.000693204
1.10451e-07
-0.000703374
0.000689951
2.46011e-05
-0.00071718
2.77611e-05
-0.000728907
2.71156e-05
-0.000744119
3.12837e-05
-0.000759357
3.12788e-05
-0.000775078
3.31986e-05
-0.000790916
3.21816e-05
-0.00081301
3.9739e-05
-0.000831899
3.76045e-05
-0.000851285
3.9049e-05
-0.000875951
4.30444e-05
-0.000898269
4.40535e-05
-0.000923567
4.58636e-05
-0.000950507
4.95866e-05
-0.000988796
6.31207e-05
-0.00106259
0.000106609
-0.000849588
0.000236065
-0.000449581
-0.000913919
0.000199755
-0.000902803
0.000152079
-0.000947889
9.37151e-05
-4.8883e-05
-0.0010404
3.33913e-05
-0.00108098
3.59846e-05
-0.00111194
4.53118e-05
-0.00113661
3.84911e-05
-0.00114339
1.28381e-05
-0.00115746
-2.15268e-05
1.28234e-05
4.06049e-07
0.000680256
2.11474e-05
0.000681939
0.00116715
-6.67104e-05
-0.00114086
0.00114931
3.57001e-05
0.00112463
6.32355e-05
0.00109356
8.05525e-05
0.00108034
8.25828e-05
0.00107197
8.08736e-05
0.00100882
6.12843e-05
0.000983643
8.16282e-05
0.00102399
0.000103055
0.00100123
7.45029e-05
0.000968219
4.71044e-05
0.00094002
3.51204e-05
0.000915238
2.81982e-05
0.00089253
2.50864e-05
0.000870882
2.41296e-05
0.000848488
2.50218e-05
0.000829165
2.12587e-05
0.000809122
2.25869e-05
0.000790629
2.09633e-05
0.000771858
2.07357e-05
0.000755496
1.77926e-05
0.000738399
1.85598e-05
0.000722743
1.71347e-05
0.000706763
1.71326e-05
0.000691835
1.54517e-05
-0.000134655
-0.00112134
0.000158534
1.32424e-05
0.000679121
-0.000212077
-0.0010423
-0.00115449
-9.76929e-05
-0.00068545
0.000673973
3.28347e-05
-0.000696983
3.65442e-05
-0.000705201
3.63241e-05
-0.000720103
4.23713e-05
-0.000731732
4.32718e-05
-0.000745637
4.55305e-05
-0.00075982
4.765e-05
-0.000779166
5.17825e-05
-0.000793321
5.4011e-05
-0.000811566
5.58989e-05
-0.000833129
6.05853e-05
-0.000853772
6.36209e-05
-0.000875871
6.60278e-05
-0.000900438
7.01577e-05
-0.000928666
7.74466e-05
-0.000959382
9.33081e-05
-0.000980054
0.000126751
-0.000922165
0.000177706
-0.000906246
0.000183451
-0.000922993
0.000168628
-0.000958318
0.00012882
-0.00101534
9.02213e-05
-0.00106289
8.34782e-05
-0.00109732
7.97395e-05
-0.0011321
7.34338e-05
-0.00115651
3.74886e-05
-0.0011698
-7.85586e-06
-0.001148
0.00169075
-0.00146459
0.000589075
-0.00117619
-0.000356829
0.000944091
-0.000741394
-0.00068664
0.00081463
0.000613473
0.000812484
0.00135801
0.000177255
-0.00027793
-0.00125771
0.0012099
8.10719e-05
0.00116547
7.97881e-05
0.0011309
9.74009e-05
0.00110378
0.000107463
0.00108164
0.000104495
0.00106058
0.000101791
0.00102818
9.34074e-05
0.0010073
0.000102066
0.00100511
0.0001047
0.000988219
9.06331e-05
0.000964155
7.06244e-05
0.000939116
5.96549e-05
0.000916918
5.0081e-05
0.000892925
4.8849e-05
0.000872375
4.45793e-05
0.000852289
4.50078e-05
0.000831482
4.2158e-05
0.000811626
4.25906e-05
0.000793429
3.94707e-05
0.000777012
3.75015e-05
0.000759662
3.54955e-05
0.00074236
3.62287e-05
0.000728265
3.15329e-05
0.000714377
3.11869e-05
0.000700879
2.91901e-05
0.00068789
2.64843e-05
-1.2235e-05
0.000677309
2.31903e-05
5.0622e-07
0.000666488
1.22008e-05
0.000668939
2.23822e-05
0.000672023
-0.0010404
0.00099768
-0.00116271
0.000660861
3.56963e-05
-0.00143267
-0.00138234
0.0016661
-0.00121295
0.00182349
0.00101839
-0.00162699
-0.000237821
-0.00112827
0.00131598
-0.000997725
0.00132801
-0.0016474
0.00106644
0.00105076
-0.00107766
-0.00143942
2.00285e-05
0.000298245
-0.00119578
-7.10579e-05
-8.05436e-06
2.07942e-05
0.000664903
2.57951e-06
0.000656235
1.2201e-05
0.000659673
2.25374e-05
0.00066198
2.69117e-05
0.000656666
-0.000689325
-1.97801e-06
0.000718485
-0.000679803
2.64526e-05
-0.000685672
3.91411e-05
-0.000698515
4.98229e-05
-0.000716655
5.4874e-05
-0.000725167
5.12746e-05
-0.000734325
5.29891e-05
-0.000744235
5.58919e-05
-0.000756381
6.02659e-05
-0.000770028
6.58528e-05
-0.00078463
6.88489e-05
-0.000800334
7.17821e-05
-0.000816456
7.67511e-05
-0.000835164
8.22595e-05
-0.000856139
8.67772e-05
-0.000878083
9.19024e-05
-0.000903513
0.000102463
-0.000926149
0.000115641
-0.000938079
0.000138204
-0.000926212
0.000165492
-0.000926503
0.000183385
-0.000929395
0.000171246
-0.000958346
0.000157519
-0.00100479
0.000136525
-0.00104565
0.000124366
-0.00108891
0.00012311
-0.00112691
0.000111645
-0.00116998
8.0816e-05
2.31761e-05
-0.00120077
0.000179788
-0.000136869
-0.0013387
0.00129524
0.00147352
-0.0021166
0.00189469
-0.00125088
0.00102788
-0.000984569
0.00104957
0.00139508
0.000135623
0.000159474
0.00144213
0.000294684
-0.000342374
0.0014239
0.00030912
0.00137976
0.000273288
-0.000229961
0.00132964
0.000229275
0.00130206
0.000210863
-0.00018379
0.00129573
0.000183167
0.00122779
0.000148453
0.00117641
0.000130869
0.00113681
0.000136514
0.00110808
0.000136101
0.00107887
0.000133553
0.00105572
0.000124791
0.00102584
0.000123194
0.00100569
0.000121593
0.000991952
0.000118012
0.000974529
0.000107445
0.00095069
9.39863e-05
0.000927536
8.22884e-05
0.000906164
7.10557e-05
0.000883645
7.08896e-05
0.000862921
6.50869e-05
0.000842709
6.49723e-05
0.000822162
6.27255e-05
0.000804139
6.09336e-05
0.000788303
5.58218e-05
0.000771699
5.47857e-05
0.000753669
5.41785e-05
0.000741652
4.87744e-05
0.000727794
4.61139e-05
0.000716271
4.28423e-05
0.000704193
4.19695e-05
0.000691934
3.91603e-05
0.000679902
3.67248e-05
2.84718e-05
0.000671476
-0.000859439
0.00326424
-0.00222428
-0.000180504
-0.00134052
0.00122412
-0.000986816
0.00103346
0.00057874
-0.000626811
-0.000375643
0.000853162
0.000336058
-0.000814709
-0.00180532
-9.48489e-06
0.000431735
0.00138529
-0.00146919
-0.00112545
-0.000185834
-0.00124703
-0.00128647
-0.000163027
0.00131208
-0.000784342
0.000954472
-0.000172322
-0.000726589
-3.15339e-05
-0.000694643
7.54988e-06
-0.000688828
4.4176e-05
-0.000688338
5.47345e-05
-0.000706228
6.94786e-05
-0.000719665
6.67729e-05
-0.000730417
6.69458e-05
-0.000740399
7.06335e-05
-0.000751611
7.74269e-05
-0.000764151
8.17544e-05
-0.000779176
8.69646e-05
-0.00079405
9.17046e-05
-0.000811408
9.95692e-05
-0.000829874
0.000105136
-0.00085053
0.000112312
-0.000869201
0.000121011
-0.00088771
0.00013384
-0.000900339
0.000150655
-0.000904054
0.00016907
-0.000907831
0.000187163
-0.000915696
0.000179188
-0.000942234
0.000184017
-0.000980689
0.00017496
-0.0010207
0.000164441
-0.00106246
0.000165086
-0.00110586
0.000155434
-0.00114808
0.000123163
-0.00120903
8.42946e-05
-3.03009e-05
-0.00124113
-0.00115209
-0.00109563
0.00124889
-0.000365176
-0.00186773
0.0017131
0.000523894
0.00149003
0.000293221
-0.00164714
0.0014783
0.000306732
0.00144978
0.00033709
0.0014034
0.000318843
0.00135651
0.00027527
0.0013224
0.000244521
0.00128549
0.000219619
0.00123914
0.000194609
0.00118738
0.000182246
0.0011513
0.000172254
0.00111451
0.000172568
0.00108574
0.000161813
0.00105666
0.000153501
0.00102998
0.000149145
0.00100773
0.000143156
0.000989359
0.000135487
0.000969584
0.000126261
0.000950555
0.000112374
0.000930917
0.000101289
0.000908166
9.37093e-05
0.000890005
8.90219e-05
0.000866907
8.83061e-05
0.000848567
8.32167e-05
0.000828533
8.28459e-05
0.000816033
7.3502e-05
0.00079747
7.4736e-05
0.000782391
7.00386e-05
0.000770385
6.69312e-05
0.000761327
5.71995e-05
0.000750078
5.85072e-05
0.000733542
5.87984e-05
0.000723157
5.44375e-05
0.000711105
5.01848e-05
0.00071261
3.64304e-05
0.000725597
1.62516e-05
-1.84213e-05
-2.26646e-05
0.000770233
-1.60807e-05
0.000671449
-5.62056e-06
0.000654812
3.89404e-06
0.000646659
9.19368e-06
0.000654367
2.08455e-05
0.000650435
1.83529e-05
0.000659192
-3.61116e-05
0.000772788
0.00113221
-0.000215282
-0.00104733
-0.000557763
0.000619685
-0.000614931
0.000943389
-0.00209678
0.00176884
-0.0013418
0.00136248
-0.00185482
0.00183414
-0.00175684
-0.00105205
0.00152146
0.00181008
-0.00201094
-0.000876175
0.00102424
0.0011209
-0.00125059
1.15277e-05
-0.000113018
-0.00131343
-0.00105392
-0.00121756
0.00111795
-0.00138747
-0.000900647
0.000529933
-0.00188885
0.00100362
-0.00121855
0.00210154
0.00098352
0.00111137
0.00150475
-0.00154129
0.000331396
0.00144329
0.000367886
0.00141505
0.000364782
0.00137569
0.000357567
0.00133581
0.000313762
0.00129484
0.000284824
0.0012544
0.000258766
0.00121005
0.000238656
0.00117008
0.000221283
0.00113042
0.000211547
0.00110051
0.000202084
0.00106849
0.000193461
0.00104268
0.000178907
0.00101689
0.000174134
0.000997509
0.000161817
0.000976148
0.000156016
0.000958744
0.00014292
0.000937622
0.000133184
0.000916875
0.000121671
0.000893112
0.000117344
0.000873566
0.000108607
0.000853997
0.000107896
0.000835129
0.000101986
0.000821303
9.67204e-05
0.000803498
9.09407e-05
0.00078801
9.11876e-05
0.00077702
7.95817e-05
0.000770724
7.51903e-05
0.000754497
7.19217e-05
0.000741412
7.29785e-05
0.000734112
6.54955e-05
0.000737203
5.12423e-05
0.000760705
2.7187e-05
0.000813162
-1.90506e-05
0.000958044
-0.000127303
0.00115454
-0.000219372
0.000134745
-0.000228802
0.00124326
2.45893e-06
0.000907155
-8.57397e-06
0.000681391
-5.31522e-06
0.000651991
9.59349e-07
0.000640607
9.1745e-06
0.000646141
1.49666e-05
0.000644858
-9.1524e-06
0.000683479
-0.000171921
0.000935255
-0.000226298
0.0011866
-0.00127364
0.00125237
-0.00020476
-0.00124985
-0.000239002
-0.00118806
-0.000234038
-0.00100255
-0.000217861
-0.000833648
-0.000161386
-0.000762301
-2.69184e-05
-0.000730665
2.35256e-05
-0.000714543
5.3623e-05
-0.000714897
6.75228e-05
-0.000732284
8.46567e-05
-0.00074831
8.71239e-05
-0.000759748
8.92273e-05
-0.000768195
9.05963e-05
-0.000784259
0.000103189
-0.00079704
0.000104793
-0.00081188
0.000114372
-0.000825321
0.000118637
-0.000841746
0.00012845
-0.000856277
0.000135368
-0.00087063
0.000147892
-0.000882032
0.000161851
-0.000891147
0.00017785
-0.000900375
0.000196253
-0.000913215
0.000191812
-0.000936547
0.000207127
-0.000965115
0.00020351
-0.00100169
0.000201117
-0.00104207
0.000205873
-0.00108761
0.000201204
-0.00114555
0.000181459
0.000135097
-0.00119601
-0.00119472
-0.00115518
0.0012543
-5.85003e-05
-0.00130446
-0.00149494
-0.000126683
0.000308893
-0.000122983
-0.00106696
-0.00137681
0.00160971
-0.0014984
-0.00101197
0.00155437
-0.000995223
-0.000911758
0.00134166
-0.00165355
-0.000431054
0.00172572
0.000302834
-1.93129e-05
0.00153657
0.000313208
-0.0015439
0.00145535
0.000414591
0.00139505
0.000431008
0.00134875
0.000412492
0.00132039
0.000386346
0.00128562
0.000349314
0.0012526
0.000317796
0.00121615
0.000296378
0.00118129
0.000272543
0.0011487
0.000254003
0.0011177
0.000240743
0.00109193
0.000227094
0.00106673
0.000217393
0.0010435
0.000201212
0.00102559
0.000191608
0.00100631
0.000180622
0.000991225
0.000170742
0.00097308
0.000161034
0.000957449
0.000148596
0.000936011
0.000143197
0.000918897
0.00013429
0.000898145
0.000129545
0.00088327
0.000123013
0.000866917
0.000118598
0.000853195
0.000110942
0.000836276
0.000107384
0.000831742
9.85834e-05
0.00081209
9.78076e-05
0.000794378
9.38595e-05
0.000785944
8.07741e-05
0.000800023
5.85559e-05
0.000835833
3.13688e-05
0.000906319
-1.96345e-05
0.0010597
-0.000129203
0.00127462
-0.000238534
0.00136467
-0.000223302
0.00138527
-0.000244518
0.00137143
-0.00021728
0.00025367
0.00131183
-0.000196992
0.000216874
0.00127836
3.63815e-05
0.00110407
1.2381e-06
0.000722154
1.17006e-06
0.000652651
4.81394e-06
0.00063694
7.16555e-06
0.000643815
-7.30059e-08
0.000652186
-4.55212e-05
0.000728738
-0.000211927
0.0011002
-0.00023914
0.0012138
-0.000189765
0.00120304
-0.00120584
0.00118126
-0.00016526
-0.0012371
-0.000173425
-0.00129368
-0.000182411
-0.00133014
-0.000197354
-0.00131676
-0.000230813
-0.00124212
-0.000236093
-0.00104791
-0.000220189
-0.000863458
-0.000159996
-0.000786768
-1.87069e-05
-0.000753728
3.49273e-05
-0.000736168
6.74922e-05
-0.000734892
8.63456e-05
-0.000750428
0.000105203
-0.000770179
0.000110738
-0.000778979
0.000112136
-0.000788228
0.000114069
-0.000799358
0.000125272
-0.000812682
0.000131869
-0.000825079
0.000140651
-0.000837475
0.000147695
-0.000849007
0.000159357
-0.000858176
0.000170994
-0.000867203
0.000186865
-0.000873093
0.000202163
-0.000890792
0.000209547
-0.00090765
0.000224157
-0.000934055
0.000230156
-0.000963386
0.000230575
-0.000999274
0.000242069
-0.00103994
0.000242597
-0.00108971
0.000232224
0.000198747
-0.00115257
-0.00125076
6.68663e-05
-0.00114634
-0.0012666
-0.00117684
-0.00127497
0.00129644
0.00133862
0.00259979
-0.00226756
-0.00167092
-0.00129443
-1.40578e-05
-0.00160903
-0.000541134
0.00028487
-0.00167589
-0.000842638
-0.00165325
-0.00101756
2.05151e-05
-0.000484898
-0.00103002
-0.000563953
-0.00121444
6.96026e-05
-0.00134512
-8.53402e-05
-0.00114074
-0.00142719
-0.00151954
-0.00114508
0.000238185
-0.000195754
0.00126578
0.000226353
0.00128669
0.000166824
0.00115729
2.51483e-05
0.000865752
5.34962e-06
0.000673338
6.77169e-06
0.000635955
3.72903e-06
0.000646961
-2.06834e-05
0.000676731
-0.000183585
0.00089135
-0.000223764
0.00114024
-0.00021441
0.00120453
-0.000183221
0.00117192
-0.000161316
0.00115956
-0.001177
-0.000141467
0.00115737
-0.00119463
-0.000147752
-0.00121677
-0.000151179
-0.00124135
-0.000157478
-0.00127818
-0.000160875
-0.00134067
-0.000168675
-0.00138528
-0.000191478
-0.00139615
-0.000209028
-0.00131776
-0.000237989
-0.00111951
-0.000218413
-0.000918699
-0.000164875
-0.000831303
-2.22188e-05
-0.000786875
4.24947e-05
-0.000764177
8.2969e-05
-0.000755721
0.000102684
-0.000766849
0.000123464
-0.000788176
0.000135615
-0.000797392
0.000134349
-0.000803952
0.000138327
-0.000817996
0.000154532
-0.00082987
0.000159463
-0.000844452
0.000173892
-0.000854942
0.000181507
-0.000865818
0.000197847
-0.000873118
0.000209603
-0.000883152
0.000219543
-0.000898953
0.000239914
-0.000913148
0.000244103
-0.000935698
0.000253332
-0.000957449
0.000264387
-0.000984995
0.000271069
-0.00102745
0.000275728
0.000263375
-0.00109125
0.000132081
-0.00121689
0.00108222
-0.000894753
-0.00117146
-0.00108589
-0.00143874
0.000822434
0.000124457
-4.98176e-05
-0.000897661
0.00187515
0.000353095
-0.00204977
-0.000173322
0.00135136
0.000529237
-0.00146296
0.00129422
0.000490168
0.00125779
0.000450568
0.00122961
0.00041505
0.00119945
0.000380257
0.00117227
0.000344975
0.00114321
0.000325233
0.00111842
0.000296848
0.00109316
0.000278973
0.00107136
0.000261462
0.0010491
0.000248836
0.00103075
0.000234262
0.00100794
0.00022286
0.000989293
0.000209074
0.000969785
0.000199108
0.000952809
0.000186537
0.000937466
0.000175532
0.000920504
0.000165559
0.00090407
0.000158929
0.000889561
0.000149131
0.000875941
0.00014271
0.00086619
0.00013363
0.000858703
0.000125732
0.000853391
0.000118103
0.000836375
0.000124548
0.000823822
0.000111598
0.000840414
8.14182e-05
0.000873605
6.20029e-05
0.000938832
1.58001e-05
0.00102808
-4.11594e-05
0.00122394
-0.000171804
0.00140462
-0.000235533
0.00149295
-0.000218911
0.00147263
-0.000220799
0.00144539
-0.000195945
0.00138382
-0.000181484
0.00133939
-0.000174185
0.00131172
-0.000170969
0.00128131
-0.000165846
-0.00116585
-0.00136353
0.00135303
-0.00123774
-0.00130442
0.00163455
-0.000217452
0.000175702
-0.00159286
-0.00118664
-0.000137452
-0.00114123
-0.00130761
-7.12338e-05
-0.0011727
0.00115546
-0.000124278
-0.00119296
-0.000128558
-0.00121008
-0.000134001
-0.00123162
-0.000135458
-0.00125395
-0.000139136
-0.00128434
-0.000138253
-0.00133365
-0.000142041
-0.00139499
-0.000147538
-0.00146523
-0.00016709
-0.00148978
-0.000193177
-0.00141726
-0.000236439
-0.00122249
-0.00021132
-0.000980628
-0.000198082
-0.000885636
-1.11439e-05
-0.000834682
5.2465e-05
-0.000806384
9.50685e-05
-0.000789614
0.000119144
-0.000799385
0.000143997
-0.000825784
0.000164831
-0.000836234
0.000164846
-0.000845326
0.000168457
-0.000853977
0.00018229
-0.000862098
0.000189641
-0.000869845
0.000205287
-0.000874347
0.000214124
-0.000883331
0.000228605
-0.000885179
0.00024206
-0.000889273
0.000248539
-0.000901257
0.000265895
-0.000908697
0.00027217
-0.000925897
0.000288935
-0.000955254
0.000305458
-0.00102564
0.000334239
0.000214656
-0.00117291
0.00101196
-0.000835602
0.000906388
-0.00155388
-0.000959677
0.000190685
-0.000161343
0.00125144
0.000212486
0.0012403
0.000252088
0.00124375
0.000215412
0.00119216
6.32463e-05
0.00102605
1.49599e-05
0.000722983
5.77607e-06
0.000645787
-4.70029e-06
0.000657837
-5.64673e-05
0.000728603
-0.000208442
0.00104207
-0.000238489
0.00117015
-0.000196419
0.00116231
-0.000176908
0.00115265
-0.000157211
0.0011402
-0.000139135
0.00113992
-0.000124551
0.00114203
0.00132895
-0.000907534
-0.00131501
0.00182926
-0.00116235
0.00180218
-0.000986863
0.00175268
-0.000788478
-0.000439451
-0.000980831
0.000931545
0.00103293
-0.000413529
-0.00149558
-0.000130078
0.000140368
1.84355e-05
-2.82027e-05
-2.8164e-05
-0.000986996
0.00100693
0.00121047
0.000533471
-0.00121204
0.00120565
0.000497731
0.00119258
0.000466468
0.00118493
0.000424567
0.00116795
0.000398645
0.00114889
0.000364175
0.0011304
0.000343814
0.00110989
0.000316051
0.00109006
0.000297803
0.00107214
0.000278874
0.00105499
0.000264333
0.00104013
0.000249968
0.00102438
0.000237516
0.0010066
0.000227009
0.000992759
0.000212712
0.000975613
0.000204378
0.000961051
0.000189355
0.00094383
0.000183673
0.000933216
0.000168681
0.000917306
0.000165502
0.000909314
0.000151849
0.000890096
0.00015332
0.000868752
0.000148062
0.000861672
0.000124873
0.000887031
9.91949e-05
0.0009438
5.88971e-05
0.00103349
-7.1237e-06
0.00119056
-9.69648e-05
0.00140671
-0.000217038
0.00156122
-0.000208595
0.00159028
-0.000215581
0.00153756
-0.000183592
0.00148562
-0.000171955
0.0014284
-0.000157245
0.00138981
-0.000151673
0.00135477
-0.000145081
0.00132554
-0.000145459
0.00130061
-0.000146171
0.00127414
-0.000140263
0.00124943
-0.00013886
0.000170928
0.00176553
-0.000301986
9.95218e-06
-0.00123993
-0.000790191
0.000416431
-0.00114399
-0.00147206
0.00145076
-0.00115925
-0.00151918
-0.00129626
-0.00137312
-0.00157547
-0.00097224
0.00233028
0.00309337
-0.00114804
-0.00280476
0.00109517
-7.91497e-05
-0.00136498
0.000413292
-0.00122339
0.0010889
0.000787697
-0.000843566
-0.000632073
-0.00115791
0.000743375
0.000595771
-0.00085962
-0.00035645
0.000620171
-0.00102436
-0.00292385
0.00113904
0.0028091
-0.00115735
0.00114071
-0.000106942
-0.00117552
-0.000107591
-0.00119451
-0.000111839
-0.00121398
-0.000113187
-0.00123143
-0.000116724
-0.00125615
-0.000116549
-0.00127609
-0.000117784
-0.00130528
-0.000112746
-0.00133972
-0.00011333
-0.00139369
-0.000112884
-0.00146686
-0.000119591
-0.0015681
-0.000135091
-0.00160434
-0.000174317
-0.00160811
-0.00019341
-0.00143057
-0.000187918
-0.00115087
-0.000226483
-0.00102371
-3.86987e-05
-0.000938491
3.46862e-05
-0.000881764
8.75571e-05
-0.000839881
0.000123046
-0.000826597
0.000151523
-0.000835939
0.000177856
-0.000843128
0.000189305
-0.000850093
0.000196241
-0.000845844
0.00020085
-0.000843471
0.000211629
-0.000847364
0.000232467
-0.000851795
0.00024652
-0.00086573
0.000262724
-0.000870884
0.000271646
-0.000891986
0.000293949
-0.000904086
0.000301834
-0.000922586
0.000324394
-0.00092552
0.000337546
0.000371502
-0.000883798
0.00128036
-0.000786212
-0.00244189
0.00213461
-0.000955019
0.00143978
-0.000813998
-0.00307034
0.00016123
-0.00013865
0.00122499
0.000186436
0.00122454
0.00020753
0.00121787
0.000248891
0.00120095
0.000232324
0.00120758
0.000178206
0.00108058
3.73095e-05
0.000866183
9.81503e-06
0.000675488
-2.33299e-05
0.000691389
-0.000180294
0.000885062
-0.000223046
0.00108476
-0.000223327
0.00117014
-0.0001923
0.00113118
-0.000170642
0.00113102
-0.000152231
0.00112184
-0.000136294
0.00112419
-0.000119045
0.00112562
-0.000103334
0.00112612
-0.000993964
0.00199414
-0.00114127
0.00186635
-0.000847234
0.00159744
-0.000510213
0.0014368
-0.000274193
-0.000300516
0.00131051
-0.000109737
0.000187393
0.00143878
-0.00185439
0.00108493
0.000541528
-0.00103552
-0.000588464
0.00111487
0.000505226
0.0011301
0.000484277
0.00113554
0.000461692
0.00112702
0.000434668
0.00111692
0.000409295
0.00109727
0.000384781
0.00108181
0.000359746
0.00105784
0.000340055
0.00103935
0.00031514
0.00101788
0.000299124
0.00100348
0.000278288
0.000985648
0.000266148
0.00097652
0.000247464
0.00096175
0.000241117
0.000955636
0.000219818
0.000948609
0.000212294
0.000944677
0.000192954
0.000942792
0.00018682
0.000927578
0.000183742
0.000922268
0.000171882
0.00090809
0.000166197
0.000934616
0.000128722
0.000982785
0.000101014
0.00106473
5.82465e-05
0.00115841
-1.53343e-05
0.00139769
-0.000168494
0.00157939
-0.000216851
0.00169072
-0.000175124
0.00167211
-0.000178751
0.00163243
-0.000156791
0.00155404
-0.000131643
0.00150043
-0.000123283
0.00145357
-0.000119653
0.00142136
-0.000119917
0.00138982
-0.0001146
0.00136477
-0.000116626
0.00133952
-0.000117731
0.00131086
-0.000115648
0.00128859
-0.000118012
0.00126509
-0.000117123
0.0012433
-0.000119336
0.00139995
-0.000917056
-0.00138875
4.47499e-05
-0.00120686
0.00133754
-0.00196388
-0.00152159
0.0014941
-0.000977285
0.00100481
-0.00153841
-0.0010375
0.00105307
-0.00110462
-0.00157699
-0.00126679
-4.35101e-05
-0.0017114
-0.00150456
-0.00126369
-0.0014977
-0.00139561
0.00239702
-0.00280001
-0.000621887
0.0012251
-0.000749225
0.000771435
-0.00124896
-0.00190169
0.00161419
0.000275249
0.00100536
-0.00067538
0.000898332
-0.000228652
-0.00060381
0.00129514
0.000588964
0.00163269
-0.00154339
8.63441e-05
-1.34357e-05
0.00181748
0.000906338
0.000363139
0.000902043
0.000341929
0.000899371
0.000327027
0.000897146
0.000304327
0.000896494
0.000294977
0.000890313
0.00027827
0.000885668
0.000267728
0.000875492
0.000256904
0.000862711
0.000245146
0.00084315
0.000231136
0.000837019
0.000206839
0.00084786
0.000185424
0.000890743
0.000146315
0.000945638
0.000123131
0.00100136
9.56745e-05
0.00110794
1.8079e-05
0.00130903
-0.000111957
0.00155149
-0.00020208
0.00169137
-0.00017216
0.00162744
-0.00016268
0.00156866
-0.000129556
0.00147268
-9.80143e-05
0.0013864
-8.93134e-05
0.00133403
-8.39029e-05
0.00130132
-8.75616e-05
0.00127741
-8.92435e-05
0.00125793
-9.40895e-05
0.00124795
-0.000102845
0.00123826
-0.000108325
0.00122402
-0.000102225
0.00120585
-9.84691e-05
0.00118488
-9.28082e-05
0.00116509
-9.14438e-05
0.00114804
-8.98082e-05
0.00112835
-8.7573e-05
0.00111172
-8.7378e-05
0.000275424
0.00231143
-0.000821152
0.000141881
-0.000121695
0.00122065
0.000161002
0.00120383
0.000181019
0.00120295
0.00020341
0.0011929
0.000227371
0.00117509
0.000249835
0.00118508
0.000224041
0.0011063
8.36105e-05
0.00101141
1.13864e-05
0.000753886
-6.27003e-05
0.000765359
-0.000212415
0.00103431
-0.000233624
0.00110548
-0.000201698
0.00113802
-0.000184068
0.00111347
-0.000165998
0.00111286
-0.000149494
0.00110507
-0.000132737
0.00110708
-0.000118303
0.0011111
-0.000100267
0.00110817
-8.41772e-05
0.001095
0.00139244
-0.000778276
-7.16795e-06
-0.00117018
-0.000935314
0.00147987
0.000950817
0.00048047
0.00207231
-0.0013123
-0.00124043
0.000311215
-0.0014062
0.000200156
-0.00148174
0.000161959
-0.0015052
0.00152936
0.000101809
-0.00146923
0.00173807
-0.000122465
0.00250586
-0.000781965
0.000119883
-0.000588013
0.00297429
0.000888362
-9.43985e-05
0.00108269
0.002286
-0.00232216
-0.00104655
0.000712821
0.00103801
-0.000528008
0.00064046
0.000514829
-0.000808386
-0.000349733
0.000922606
-0.00160008
-0.000946693
0.00156863
-0.00163937
-0.00099915
-0.00105862
-0.00168415
-7.22299e-05
-0.00127283
0.00140856
-0.000903378
-0.00142126
0.00156468
-0.00122434
0.00186936
-0.000868593
0.00156577
-0.000528652
0.00129333
-0.000229097
0.00115356
-0.000125266
-0.000102727
0.000962362
-0.000491975
0.00110724
0.000697905
0.00011853
-1.8713e-05
-0.000268547
0.000169077
0.000876993
0.000440222
-0.000568809
-0.000745956
0.000980334
0.000439171
0.00104104
0.000443846
0.00108495
0.000439615
0.00110988
0.00043593
0.00111665
0.000426913
0.00111899
0.000407211
0.00111368
0.000389377
0.00110509
0.000366909
0.00109433
0.000350312
0.00107764
0.000330668
0.00106044
0.000315308
0.00104438
0.000293382
0.00102507
0.000284221
0.00100753
0.000263743
0.000994666
0.000255635
0.00097592
0.00023611
0.000967414
0.000222056
0.000936407
0.000224601
0.000934061
0.0001871
0.000973494
0.000146455
0.00101414
0.000128543
0.00108523
9.59464e-05
0.0011917
2.39837e-05
0.00132992
-3.80257e-05
0.00161026
-0.000179363
0.00174368
-0.000153849
0.0017332
-0.0001705
0.001652
-0.000141989
0.00159673
-0.000116557
0.00154407
-0.000106572
0.00149773
-9.64992e-05
0.00146234
-9.15799e-05
0.00143333
-9.08316e-05
0.00140714
-9.18516e-05
0.00137944
-9.07426e-05
0.00135763
-9.08903e-05
0.0013385
-9.62299e-05
0.001314
-9.44681e-05
0.0012972
-9.71271e-05
0.00128079
-9.85679e-05
0.00126222
-9.63526e-05
0.0012444
-9.94366e-05
0.00122326
-0.000100816
0.00192813
0.000888435
-0.00204238
0.00174635
0.000894985
-0.000473897
0.000803926
0.00141669
-0.00167231
0.000580771
0.00150239
-0.000411162
0.00082458
-0.000262406
-2.42711e-05
-0.00122512
-0.000559148
0.00201496
0.000742957
0.000400438
0.000730096
-0.000308038
0.0011507
0.00207261
-0.00158163
-0.00164212
-0.00156806
-0.00143542
-0.00166877
-0.00121597
-0.00162563
0.000943035
-0.00197583
0.00192967
0.00172374
-0.000940802
-0.00178336
0.00171825
0.00221266
-0.00202629
0.0020047
0.000869686
-0.000477147
-0.00268775
-0.000640984
0.00274072
0.00176037
-0.00177073
-0.00210632
-0.000807148
-0.0001642
0.000707988
-0.000414652
-0.00253439
-0.000935759
-0.00186995
-0.000786706
-0.00150883
-0.00025921
0.000867908
0.000347783
0.000867556
0.000342138
0.000864476
0.00032995
0.000858665
0.000310335
0.000862454
0.00029153
0.000857101
0.000284165
0.000862659
0.00026269
0.000876772
0.000243061
0.000907022
0.000215042
0.000957542
0.000180417
0.00099935
0.000165226
0.00106833
0.000115536
0.00117804
3.58211e-05
0.00133994
-3.93728e-05
0.00160511
-0.000169736
0.00175396
-0.0001304
0.0017835
-0.000140805
0.00168682
-0.000104909
0.00158776
-7.42966e-05
0.00148398
-5.94126e-05
0.00140496
-5.10879e-05
0.00135979
-5.31708e-05
0.00132642
-5.65376e-05
0.00130766
-6.5493e-05
0.00129963
-7.94501e-05
0.0013039
-9.33246e-05
0.00130615
-9.62771e-05
0.00129302
-8.97002e-05
0.00126514
-8.08824e-05
0.00123902
-7.63237e-05
0.0012141
-7.35936e-05
0.00119308
-7.20293e-05
0.00117414
-7.26075e-05
0.00115408
-7.00499e-05
0.00113637
-7.04875e-05
0.00111736
-6.91121e-05
0.00110187
-6.9286e-05
-0.000445002
-3.54769e-05
0.00037928
-0.000498459
-6.89003e-05
-0.000616584
-0.000105385
-0.000893712
-0.000243226
-0.00121906
-0.000538662
-0.0015643
-0.000614091
-0.00112299
0.000847272
0.000701368
-0.000571659
0.0013592
-0.00111246
0.00111245
-0.000921619
0.0015563
0.000913246
0.00181997
0.000608853
0.00307364
-0.00070831
0.000324826
0.00306889
0.00082526
-0.00230799
-0.000558675
-0.000978199
-0.00186276
0.00141019
-0.000468693
0.000321789
-0.00126277
-0.000282258
-0.00119788
-9.13315e-07
-0.00128142
0.00145369
-0.000824228
0.000240041
-0.000246376
-0.0014146
0.00142094
-0.00266462
0.00111494
0.00268867
-0.000633185
-0.00174963
0.000122257
-0.000102113
0.00120122
0.000140875
0.00119836
0.000159554
0.00118318
0.00017915
0.00118042
0.000200371
0.00116831
0.000215733
0.00115711
0.000259716
0.00114097
0.000234752
0.0011336
0.000186557
0.00106389
1.3153e-05
0.00094422
-0.000171079
0.000948232
-0.000219571
0.00108427
-0.000222014
0.0011076
-0.000192787
0.00110858
-0.000177388
0.00109791
-0.000160835
0.00109616
-0.000144413
0.00108829
-0.000130206
0.00109239
-0.000115512
0.00109578
-9.98551e-05
0.00109198
-8.52732e-05
0.00108019
-6.84689e-05
0.00108454
0.000299853
-0.00137214
0.000277795
-0.00138414
0.00023302
-0.00143698
0.0002021
-0.00147428
0.000184241
-0.00145139
0.00015075
-0.00147533
-0.00287835
-0.000606761
-1.21879e-05
-0.00118126
-0.000883633
0.00146004
0.000638223
0.00117646
-0.000224921
0.000657247
0.000298803
-0.000639166
0.000761277
0.000474639
0.000934327
0.00226671
-0.00203237
0.00102626
0.00241029
-0.00164318
-0.00159411
-0.00226813
0.000483442
-0.00171489
0.00180814
-0.00113683
-0.00176406
0.00200502
0.00101211
-0.00123614
-6.0516e-05
0.000889057