/*--------------------------------*- C++ -*----------------------------------*\
| =========                 |                                                 |
| \\      /  F ield         | OpenFOAM: The Open Source CFD Toolbox           |
|  \\    /   O peration     | Version:  2212                                  |
|   \\  /    A nd           | Website:  www.openfoam.com                      |
|    \\/     M anipulation  |                                                 |
\*---------------------------------------------------------------------------*/
FoamFile
{
    version     2.0;
    format      ascii;
    arch        "LSB;label=32;scalar=64";
    class       volScalarField;
    location    "0.0255";
    object      p;
}
// * * * * * * * * * * * * * * * * * * * * * * * * * * * * * * * * * * * * * //

dimensions      [1 -1 -2 0 0 0 0];

internalField   nonuniform List<scalar> 
2308
(
611.898
612.018
611.567
612.13
611.74
611.678
611.651
611.724
611.77
611.422
611.403
611.385
611.38
611.383
611.392
611.406
611.425
611.445
611.423
611.405
611.39
611.381
611.377
611.382
611.394
611.416
611.444
611.478
611.63
611.448
611.52
611.568
611.621
611.679
611.741
611.808
611.879
611.953
612.031
612.112
612.196
612.282
612.37
612.46
612.551
612.563
612.472
612.383
612.296
612.21
612.127
612.047
611.969
611.895
611.824
611.758
611.696
611.638
611.586
611.538
611.496
611.468
611.449
611.433
611.421
611.411
611.406
611.407
611.415
611.428
611.446
612.645
612.655
611.443
611.424
611.41
611.401
611.398
611.402
611.415
611.435
611.462
611.494
611.535
611.581
611.634
611.691
611.753
611.819
611.889
611.963
612.04
612.121
612.204
612.289
612.376
612.465
612.556
611.471
612.649
611.473
611.467
612.678
612.589
612.501
612.414
612.329
612.246
612.165
612.086
612.009
611.936
611.867
611.801
611.74
611.683
611.632
611.585
611.547
611.518
611.497
611.481
611.468
611.458
611.454
611.454
611.458
611.469
611.484
611.769
611.704
611.634
611.67
611.507
611.481
611.464
611.451
611.444
611.443
611.448
611.461
611.481
611.507
611.539
611.578
611.624
611.675
611.732
611.793
611.858
611.926
611.999
612.074
612.152
612.233
612.316
612.401
612.488
612.576
612.667
612.758
612.743
612.739
612.748
611.733
612.769
611.809
611.866
611.491
611.823
611.712
611.501
611.503
612.851
612.838
612.835
612.842
612.86
612.888
612.801
612.714
612.629
612.545
612.462
612.381
612.301
612.223
612.147
612.073
612.002
611.934
611.87
611.81
611.755
611.704
611.659
611.621
611.591
611.568
611.55
611.537
611.526
611.522
611.521
611.522
611.528
611.54
611.575
611.909
611.713
611.753
611.722
611.686
611.65
611.617
611.587
611.56
611.538
611.524
611.515
611.51
611.511
611.518
611.532
611.552
611.578
611.61
611.649
611.694
611.744
611.799
611.859
611.922
611.989
612.058
612.131
612.206
612.283
612.363
612.444
612.527
612.612
612.698
612.786
612.875
611.381
611.813
611.862
612.263
611.657
611.844
611.523
611.548
612.924
612.843
612.762
612.682
612.603
612.526
612.449
612.373
612.299
612.227
612.156
612.088
612.023
611.961
611.903
611.849
611.799
611.755
611.716
611.685
611.66
611.641
611.625
611.614
611.607
611.604
611.604
611.605
611.611
611.553
611.829
611.907
611.786
611.76
611.732
611.702
611.674
611.65
611.629
611.613
611.603
611.598
611.597
611.601
611.611
611.626
611.647
611.674
611.706
611.745
611.789
611.838
611.891
611.949
612.009
612.073
612.139
612.208
612.279
612.352
612.427
612.504
612.582
612.661
612.742
612.825
612.909
612.993
612.965
612.945
612.933
612.931
612.937
612.952
612.976
613.007
611.844
611.61
611.495
611.848
611.906
611.583
611.619
611.569
611.854
611.858
611.913
611.681
611.826
611.807
611.787
611.765
611.745
611.728
611.714
611.704
611.699
611.699
611.703
611.711
611.723
611.741
611.763
611.791
611.824
611.862
611.905
611.952
612.004
612.059
612.116
612.176
612.239
612.303
612.369
612.437
612.506
612.577
612.649
612.722
612.797
612.873
612.95
613.029
613.108
613.079
613.055
613.038
613.029
613.026
613.032
613.044
613.063
613.089
613.12
613.044
612.968
612.893
612.818
612.745
612.673
612.601
612.53
612.46
612.391
612.323
612.257
612.192
612.13
612.071
612.015
611.963
611.914
611.87
611.832
611.799
611.772
611.75
611.732
611.718
611.708
611.702
611.699
611.698
611.697
611.846
611.629
611.586
611.612
611.875
611.879
611.873
611.872
611.936
611.839
611.878
611.872
611.861
611.849
611.837
611.826
611.817
611.811
611.808
611.81
611.815
611.824
611.836
611.852
611.872
611.896
611.925
611.958
611.996
612.038
612.083
612.133
612.184
612.238
612.295
612.353
612.412
612.472
612.534
612.597
612.661
612.726
612.792
612.86
612.929
612.999
613.071
613.143
613.216
613.188
613.163
613.144
613.131
613.123
613.121
613.125
613.135
613.15
613.171
613.196
613.225
613.156
613.086
613.017
612.949
612.882
612.816
612.751
612.686
612.622
612.558
612.495
612.432
612.371
612.311
612.253
612.196
612.143
612.092
612.045
612.002
611.963
611.929
611.9
611.875
611.855
611.838
611.824
611.814
611.806
611.801
611.796
611.699
611.869
611.864
611.294
611.702
611.898
611.892
611.891
611.613
611.691
611.587
611.641
611.89
611.893
613.289
613.266
613.247
613.232
613.222
613.216
613.215
613.217
613.225
613.236
613.252
613.272
613.295
613.321
613.258
613.195
613.132
613.071
613.01
612.951
612.893
612.835
612.778
612.721
612.664
612.607
612.551
612.495
612.439
612.385
612.333
612.282
612.234
612.188
612.145
612.106
612.071
612.04
612.013
611.989
611.97
611.951
611.936
611.923
611.912
611.902
611.79
611.747
611.887
612.172
611.557
611.923
611.92
611.917
611.915
611.914
611.915
611.917
611.922
611.931
611.942
611.956
611.973
611.993
612.015
612.041
612.071
612.105
612.142
612.183
612.227
612.273
612.322
612.372
612.424
612.477
612.53
612.585
612.64
612.696
612.753
612.81
612.868
612.928
612.99
613.053
613.117
613.182
613.249
613.315
611.88
611.883
611.421
611.658
611.896
611.705
613.349
613.292
613.236
613.181
613.127
613.074
613.023
612.973
612.923
612.874
612.824
612.774
612.724
612.674
612.624
612.574
612.524
612.475
612.427
612.381
612.337
612.296
612.256
612.22
612.187
612.157
612.131
612.107
612.085
612.065
612.046
612.028
612.012
611.89
611.729
611.899
613.381
613.361
613.343
613.329
613.318
613.311
613.306
613.305
613.307
613.312
613.32
613.331
613.346
613.363
613.383
613.405
611.782
611.901
611.901
611.906
611.916
611.657
611.714
612.02
612.191
611.97
611.98
611.989
611.998
612.007
612.018
612.029
612.043
612.058
612.076
612.096
612.117
612.141
612.166
612.194
612.225
612.259
612.296
612.335
612.377
612.42
612.466
612.512
612.559
612.607
612.655
612.703
612.751
612.8
612.849
612.898
612.949
613.001
613.054
613.109
613.166
613.224
613.284
613.343
613.403
611.465
611.784
611.667
611.894
611.898
611.896
611.693
611.433
611.375
611.641
611.713
611.996
611.622
611.824
612.119
611.494
613.429
613.378
613.328
613.278
613.23
613.184
613.139
613.096
613.053
613.011
612.97
612.928
612.886
612.843
612.799
612.754
612.709
612.664
612.619
612.574
612.531
612.489
612.448
612.409
612.372
612.337
612.305
612.276
612.248
612.221
612.196
612.171
612.147
612.122
612.099
611.769
611.893
611.888
613.461
613.444
613.43
613.417
613.408
613.4
613.395
613.392
613.392
613.392
613.395
613.4
613.407
613.417
613.429
613.444
613.461
613.479
611.678
611.9
611.904
611.912
611.926
611.948
611.595
611.916
612.007
612.025
612.044
612.064
612.083
612.102
612.123
612.144
612.166
612.188
612.212
612.238
612.264
612.291
612.32
612.349
612.381
612.415
612.451
612.489
612.529
612.57
612.611
612.654
612.696
612.738
612.78
612.822
612.863
612.904
612.946
612.987
613.03
613.074
613.119
613.167
613.216
613.267
613.32
613.373
613.427
613.48
611.813
611.873
611.894
611.881
611.892
611.903
611.777
611.906
611.906
611.908
611.481
611.883
611.653
611.597
612.181
611.759
611.422
611.466
612.209
612.235
612.264
612.295
612.325
612.356
612.387
612.418
612.451
612.485
612.521
612.558
612.597
612.636
612.677
612.718
612.759
612.8
612.841
612.881
612.92
612.958
612.994
613.029
613.063
613.097
613.132
613.166
613.202
613.24
613.279
613.32
613.363
613.408
613.454
613.499
611.51
613.532
613.518
613.505
613.495
613.487
613.482
613.478
613.475
613.473
613.473
613.473
613.474
613.476
613.479
613.484
613.492
613.502
613.514
613.528
613.544
611.803
611.968
611.871
611.382
611.385
611.379
611.377
611.373
611.418
611.464
611.51
612.233
611.547
611.891
611.859
611.872
611.893
611.901
611.908
611.777
611.841
611.431
611.896
611.902
611.912
611.928
611.949
611.979
611.992
612.032
612.056
612.083
612.11
612.139
612.168
612.197
612.226
612.256
612.286
612.316
612.346
612.377
612.408
612.438
612.47
612.501
612.534
612.568
612.604
612.64
612.678
612.716
612.754
612.792
612.829
612.866
612.902
612.938
612.972
613.006
613.04
613.074
613.109
613.146
613.183
613.223
613.265
613.31
613.356
613.403
613.452
613.5
613.548
611.898
611.9
611.904
611.649
611.899
611.855
611.618
611.911
611.573
611.914
611.914
611.912
611.903
611.905
611.9
611.512
611.904
611.536
611.514
611.911
611.894
611.884
611.464
611.415
611.369
612.303
612.34
612.376
612.412
612.448
612.483
612.518
612.553
612.588
612.624
612.661
612.699
612.737
612.775
612.814
612.853
612.891
612.928
612.965
613
613.033
613.065
613.095
613.124
613.151
613.178
613.205
613.233
613.261
613.292
613.325
613.36
613.397
613.437
613.478
613.519
613.56
611.945
611.924
611.907
611.895
611.885
611.877
611.679
611.796
612.053
611.887
611.903
611.557
611.557
611.896
611.908
611.54
611.593
611.588
611.775
611.835
611.334
611.494
611.436
611.869
613.592
613.58
613.57
613.562
613.556
613.552
613.55
613.549
613.548
613.548
613.547
613.547
613.546
613.545
613.545
613.547
613.55
613.556
613.564
613.574
613.586
613.599
611.336
611.337
611.334
611.332
611.328
611.325
611.516
611.934
611.865
611.911
611.923
612.181
611.587
611.597
611.918
611.601
611.875
611.913
611.627
611.842
611.7
611.331
611.917
612.028
612.049
612.075
612.105
612.139
612.175
612.212
612.249
612.287
612.325
612.362
612.4
612.437
612.473
612.508
612.543
612.577
612.611
612.644
612.678
612.712
612.747
612.783
612.818
612.853
612.888
612.922
612.955
612.986
613.017
613.046
613.074
613.102
613.129
613.156
613.184
613.213
613.244
613.277
613.312
613.35
613.39
613.433
613.476
613.52
613.564
613.606
611.346
611.771
611.593
611.898
611.56
611.903
611.423
611.996
611.687
611.55
611.833
611.921
611.963
611.939
611.918
611.9
611.885
611.873
611.862
611.849
611.857
611.834
612.135
611.914
612.204
611.999
612.301
612.351
612.391
612.434
612.477
612.518
612.559
612.598
612.637
612.675
612.712
612.75
612.788
612.825
612.863
612.901
612.938
612.974
613.01
613.044
613.076
613.107
613.135
613.162
613.186
613.209
613.23
613.25
613.271
613.292
613.315
613.339
613.366
613.396
613.428
613.463
613.5
613.538
613.576
613.612
611.459
611.409
611.362
611.32
611.557
611.504
611.904
611.892
611.874
611.803
611.845
611.825
611.514
611.989
612.131
612.009
611.885
611.908
611.938
612.001
611.604
611.607
611.878
611.916
611.564
611.665
611.75
611.719
611.764
611.887
611.909
611.683
611.833
611.832
612.073
611.93
611.734
611.699
611.669
611.972
611.967
611.291
611.292
611.292
611.291
611.288
611.288
611.285
611.285
611.284
611.863
611.909
611.915
611.917
611.634
611.672
612.09
612.053
612.081
612.114
612.151
612.192
612.234
612.279
612.323
612.369
612.414
612.459
612.503
612.545
612.586
612.626
612.665
612.702
612.738
612.773
612.808
612.842
612.877
612.911
612.945
612.977
613.009
613.039
613.068
613.095
613.12
613.144
613.166
613.187
613.208
613.229
613.25
613.273
613.298
613.324
613.354
613.387
613.422
613.459
613.499
613.54
613.58
613.619
613.655
613.644
613.634
613.624
613.617
613.613
613.61
613.61
613.61
613.612
613.613
613.614
613.614
613.613
613.61
613.607
613.605
613.603
613.603
613.604
613.609
613.616
613.625
613.635
613.646
611.922
611.646
611.815
611.839
611.864
611.997
611.288
611.371
611.591
611.779
611.959
611.934
611.912
611.893
611.876
611.861
611.846
611.83
611.812
611.79
611.738
611.791
611.764
612.075
611.899
611.964
611.609
611.893
611.544
611.695
611.764
611.797
611.901
611.733
611.828
611.715
612.031
611.802
611.826
611.846
611.864
611.882
611.896
611.929
611.976
611.327
611.985
611.507
611.453
611.402
611.355
611.315
611.285
611.867
611.889
611.909
611.911
611.276
611.272
611.266
611.261
611.256
611.252
611.25
611.251
611.252
611.256
611.261
611.269
611.701
611.685
612.064
611.907
611.606
611.687
611.787
612.03
612.069
612.106
612.147
612.191
612.237
612.286
612.336
612.388
612.439
612.491
612.541
612.59
612.638
612.683
612.727
612.768
612.808
612.846
612.883
612.919
612.954
612.988
613.021
613.053
613.083
613.112
613.139
613.164
613.187
613.208
613.227
613.244
613.26
613.276
613.291
613.307
613.324
613.343
613.365
613.39
613.418
613.449
613.483
613.519
613.557
613.594
613.631
613.666
613.696
613.687
613.678
613.669
613.663
613.658
613.657
613.657
613.659
613.663
613.666
613.669
613.671
613.671
613.669
613.665
613.661
613.656
613.651
613.648
613.646
613.648
613.652
613.658
613.667
613.676
613.685
613.657
613.625
613.59
613.555
613.52
613.486
613.455
613.427
613.401
613.379
613.36
613.342
613.327
613.312
613.297
613.281
613.263
613.244
613.222
613.198
613.171
613.142
613.111
613.078
613.043
613.008
612.971
612.933
612.895
612.857
612.818
612.778
612.738
612.697
612.653
612.609
612.562
612.514
612.465
612.415
612.355
612.313
612.257
612.216
611.777
612.081
612.014
612.055
612.012
611.79
611.971
611.91
611.704
611.972
612.083
611.916
611.887
611.994
611.939
611.658
611.652
611.859
611.755
611.815
611.846
611.79
611.907
611.88
611.697
611.789
611.75
611.874
611.745
611.895
611.821
611.787
611.89
611.876
611.66
611.962
611.905
612.031
611.735
611.765
611.791
611.814
611.833
611.851
611.868
611.886
611.907
611.931
611.96
611.9
612.039
611.741
611.941
611.917
611.893
611.874
611.855
611.835
611.812
611.784
612.046
611.889
611.574
611.527
611.472
611.417
611.651
611.728
611.895
611.824
612.019
611.733
612.159
611.506
611.45
611.395
611.347
611.309
611.286
611.282
611.915
611.958
612.061
612.117
612.149
612.208
612.258
612.305
612.359
612.412
612.468
612.524
612.578
612.63
612.68
612.728
612.774
612.817
612.86
612.901
612.941
612.98
613.019
613.056
613.092
613.127
613.16
613.191
613.22
613.246
613.27
613.291
613.309
613.324
613.338
613.349
613.36
613.37
613.382
613.395
613.41
613.429
613.451
613.476
613.504
613.535
613.568
613.602
613.635
613.666
613.694
611.867
611.899
613.722
613.714
613.706
613.699
613.694
613.692
613.692
613.695
613.7
613.705
613.711
613.715
613.717
613.717
613.715
613.71
613.704
613.697
613.69
613.684
613.68
613.679
613.681
613.686
613.693
613.701
613.709
613.717
611.682
611.268
611.245
611.231
611.22
611.211
611.206
611.203
611.204
611.209
611.217
611.229
611.248
611.274
611.322
611.298
611.277
611.291
611.997
612.04
612.083
612.126
612.172
612.221
612.273
612.326
612.382
612.438
612.495
612.551
612.606
612.66
612.711
612.76
612.806
612.85
612.892
612.931
612.969
613.006
613.041
613.075
613.108
613.139
613.167
613.194
613.218
613.24
613.26
613.277
613.292
613.306
613.317
613.329
613.339
613.351
613.364
613.379
613.397
613.418
613.442
613.47
613.501
613.535
613.57
613.606
613.642
613.675
613.705
613.73
611.775
611.837
611.71
611.701
611.982
611.931
611.942
612.036
611.874
611.899
611.982
611.882
611.749
611.969
611.938
611.913
611.891
611.87
611.849
611.827
611.8
611.767
611.405
611.48
611.632
611.597
611.524
611.462
611.952
611.703
611.736
611.771
611.799
611.823
611.844
611.863
611.883
611.904
611.928
611.99
611.917
611.953
611.711
611.857
611.809
611.848
611.886
612.007
612.049
612.091
612.136
612.181
612.232
612.285
612.337
612.393
612.449
612.507
612.565
612.621
612.676
612.728
612.779
612.826
612.872
612.916
612.958
612.999
613.039
613.078
613.116
613.151
613.186
613.218
613.248
613.275
613.299
613.321
613.339
613.354
613.367
613.377
613.386
613.393
613.4
613.409
613.419
613.432
613.448
613.467
613.49
613.517
613.546
613.577
613.61
613.642
613.672
613.7
613.722
611.552
611.507
611.45
611.385
611.334
611.298
611.282
611.302
611.292
611.995
611.749
611.882
611.794
611.761
611.964
611.918
611.306
611.295
611.282
611.295
611.802
611.691
611.185
611.135
611.092
611.061
611.04
611.026
611.019
611.018
611.023
611.034
611.054
611.083
611.128
611.196
611.294
611.537
613.748
613.741
613.733
613.726
613.72
613.717
613.716
613.718
613.723
613.729
613.736
613.743
613.748
613.751
613.752
613.749
613.744
613.736
613.728
613.719
613.711
613.705
613.702
613.703
613.706
613.711
613.718
613.726
613.733
613.739
612.017
612.053
612.096
612.141
612.191
612.243
612.298
612.355
612.414
612.473
612.533
612.593
612.651
612.707
612.761
612.812
612.86
612.906
612.949
612.99
613.029
613.067
613.102
613.137
613.169
613.199
613.226
613.251
613.274
613.294
613.311
613.326
613.338
613.349
613.357
613.365
613.373
613.381
613.391
613.403
613.418
613.437
613.459
613.484
613.513
613.545
613.579
613.614
613.649
613.682
613.711
613.736
613.754
611.87
611.83
611.762
611.937
611.955
613.725
613.703
611.943
611.958
613.742
613.736
613.749
613.743
613.722
613.728
613.715
613.717
613.72
613.716
613.736
613.727
613.756
613.746
613.77
613.764
613.772
613.773
613.763
613.769
613.747
613.755
613.734
613.74
613.73
613.731
613.737
613.732
613.751
613.744
613.739
613.758
613.765
613.759
613.685
613.714
613.618
613.653
613.551
613.584
613.491
613.519
613.446
613.467
613.416
613.429
613.397
613.405
613.384
613.39
613.371
613.378
613.351
613.362
613.322
613.338
613.281
613.303
613.23
613.257
613.168
613.2
613.098
613.134
613.021
613.06
612.935
612.979
612.839
612.888
612.732
612.787
612.615
612.674
612.492
612.554
612.369
612.43
612.254
612.31
612.15
612.2
612.061
612.104
611.986
612.022
611.928
611.955
611.882
611.904
611.84
611.861
611.79
611.817
611.719
611.759
611.643
611.663
611.507
611.559
611.378
611.453
611.282
611.327
611.35
611.272
611.625
611.414
611.471
611.308
611.341
611.267
611.289
611.258
611.264
611.262
611.258
611.288
611.272
611.348
611.311
611.37
611.408
611.386
611.281
611.599
611.809
611.41
611.586
611.278
611.301
611.346
611.283
611.459
611.366
611.571
611.511
611.672
611.622
611.759
611.718
611.823
611.794
611.869
611.847
611.911
611.89
611.961
611.934
612.025
611.991
612.102
612.061
612.193
612.146
612.298
612.244
612.411
612.353
612.528
612.469
612.645
612.587
612.754
612.7
612.854
612.805
612.945
612.9
613.03
612.988
613.109
613.07
613.182
613.146
613.248
613.216
613.303
613.277
613.347
613.327
613.378
613.364
613.398
613.389
613.41
613.405
613.422
613.416
613.442
613.431
613.475
613.457
613.522
613.497
613.582
613.551
613.646
613.614
613.676
611.636
611.811
611.808
611.783
613.753
611.856
613.769
611.498
611.914
611.955
611.951
611.981
611.982
611.995
611.994
611.728
611.749
611.81
611.849
611.848
611.54
611.536
611.513
611.821
611.769
611.795
611.842
611.799
611.82
611.863
611.827
611.844
611.88
611.851
611.865
611.723
611.944
611.827
611.962
611.291
611.859
611.891
611.757
611.882
611.877
612.11
611.579
611.457
611.718
612.189
611.572
612.04
611.365
612.09
611.378
612.117
611.812
611.631
611.623
611.44
611.57
611.897
611.696
611.637
611.722
611.842
611.848
611.463
611.907
611.981
611.99
611.772
611.289
611.552
611.911
611.414
612.257
612.103
612.247
611.92
611.496
611.536
612.013
611.908
611.73
611.398
611.444
611.981
)
;

boundaryField
{
    wall
    {
        type            zeroGradient;
    }
    outlet
    {
        type            inletOutlet;
        inletValue      uniform 1e-05;
        value           nonuniform List<scalar> 
33
(
613.736
613.749
613.743
613.722
613.728
613.715
613.717
613.72
613.716
613.736
613.727
613.756
613.746
613.77
613.764
613.772
613.773
613.763
613.769
613.747
613.755
613.734
613.74
613.73
613.731
613.737
613.732
613.751
613.744
613.765
613.759
613.753
613.769
)
;
    }
    inlet
    {
        type            fixedValue;
        value           uniform 612;
    }
    frontAndBackPlanes
    {
        type            empty;
    }
}


// ************************************************************************* //
