/*--------------------------------*- C++ -*----------------------------------*\
| =========                 |                                                 |
| \\      /  F ield         | OpenFOAM: The Open Source CFD Toolbox           |
|  \\    /   O peration     | Version:  2212                                  |
|   \\  /    A nd           | Website:  www.openfoam.com                      |
|    \\/     M anipulation  |                                                 |
\*---------------------------------------------------------------------------*/
FoamFile
{
    version     2.0;
    format      ascii;
    arch        "LSB;label=32;scalar=64";
    class       surfaceScalarField;
    location    "0.0255";
    object      phi;
}
// * * * * * * * * * * * * * * * * * * * * * * * * * * * * * * * * * * * * * //

dimensions      [1 0 -1 0 0 0 0];

oriented        oriented;

internalField   nonuniform List<scalar> 
4475
(
1.94093e-05
-1.82283e-05
2.84119e-05
-2.94666e-05
8.03808e-07
-6.21709e-06
2.90429e-07
5.19643e-06
5.1765e-05
-5.87309e-05
4.62749e-06
2.43063e-06
-7.71854e-06
2.40918e-05
5.96736e-06
-2.24078e-05
-2.01978e-05
1.84166e-05
1.94995e-05
-1.75921e-05
1.74815e-05
-1.37966e-05
-1.95141e-05
1.59501e-05
-5.11971e-06
4.54904e-06
2.62781e-05
-2.55415e-05
-1.58971e-05
-2.0944e-05
1.88851e-05
1.80736e-05
1.90598e-05
-2.10322e-05
-1.81035e-05
-2.2818e-05
-3.51378e-07
3.01908e-06
2.06055e-05
-3.76986e-06
3.56845e-06
-2.21265e-05
-2.39226e-05
3.4821e-06
-1.78271e-06
2.26869e-05
-2.41206e-05
1.14269e-06
-5.07781e-07
-2.41982e-05
5.84046e-07
-1.02276e-07
-2.41031e-05
3.61058e-07
-8.98792e-08
-2.37991e-05
2.65972e-07
-2.46332e-07
3.4345e-07
-2.27836e-05
-1.0815e-06
2.22637e-05
-1.81019e-06
-2.15931e-05
1.36201e-06
2.38497e-05
-9.72175e-07
2.42103e-05
2.36601e-07
2.42742e-05
6.74096e-07
2.42752e-05
1.00069e-06
2.44695e-05
1.4158e-06
2.68932e-05
1.60339e-06
2.376e-05
-6.96837e-08
2.26272e-05
1.29727e-06
2.87952e-05
3.82744e-06
-9.39742e-06
2.75421e-05
4.56877e-07
1.49491e-06
2.7122e-05
-2.69487e-05
-5.08947e-06
-2.21383e-05
-2.21731e-06
2.74023e-05
2.8729e-07
5.16779e-07
2.74897e-05
2.35507e-07
3.26096e-07
2.76967e-05
1.87612e-07
2.4479e-07
2.7878e-05
2.21326e-07
2.22107e-07
2.81073e-05
1.26565e-07
2.51458e-07
2.82645e-05
1.58391e-07
2.69754e-07
2.84135e-05
1.3846e-07
2.72639e-07
2.8542e-05
9.1222e-08
3.10482e-07
2.86461e-05
5.639e-08
3.3635e-07
2.86782e-05
9.32964e-08
3.34316e-07
2.86971e-05
6.31624e-08
3.37984e-07
2.86438e-05
7.03658e-08
3.61376e-07
2.85154e-05
8.46314e-08
3.79982e-07
2.83837e-05
3.77696e-08
3.88995e-07
-4.19405e-08
2.83214e-05
3.60087e-07
-2.838e-05
2.81432e-05
4.44364e-07
-2.85492e-05
4.95713e-07
-2.85653e-05
4.30652e-07
-2.86287e-05
5.05465e-07
-2.86127e-05
4.60838e-07
-2.85235e-05
4.57337e-07
-2.83639e-05
3.86201e-07
-2.83568e-05
6.07261e-07
-2.8169e-05
5.03897e-07
-2.79453e-05
5.12017e-07
-2.78464e-05
6.26546e-07
-2.76267e-05
6.17029e-07
-2.74695e-05
6.60669e-07
-2.73204e-05
7.24729e-07
-2.74874e-05
1.10546e-06
-2.85934e-05
2.24082e-06
-2.22327e-05
5.63636e-06
-1.14304e-05
-2.3103e-05
4.36325e-06
-2.21512e-05
3.04557e-06
-2.25475e-05
1.525e-06
-7.45409e-07
-2.40228e-05
8.4871e-08
-2.42457e-05
1.09209e-07
-2.42707e-05
3.06545e-07
-2.41547e-05
1.40762e-07
-2.37179e-05
-3.72255e-07
-2.34543e-05
-1.06957e-06
7.49503e-08
3.74231e-07
2.80922e-05
4.10614e-07
2.80199e-05
2.40177e-05
-1.80265e-06
-2.28842e-05
2.42792e-05
3.1677e-07
2.43997e-05
9.33301e-07
2.44708e-05
1.34805e-06
2.48617e-05
1.48633e-06
2.54674e-05
1.5042e-06
2.47601e-05
1.17738e-06
2.4944e-05
1.67482e-06
2.69491e-05
2.41688e-06
2.73084e-05
1.7699e-06
2.73347e-05
1.13117e-06
2.74734e-05
8.26547e-07
2.76508e-05
6.95992e-07
2.78699e-05
6.20253e-07
2.80685e-05
6.51787e-07
2.82115e-05
7.04151e-07
2.83868e-05
6.48788e-07
2.85019e-05
7.17388e-07
2.85881e-05
7.38551e-07
2.86246e-05
7.49181e-07
2.86615e-05
7.12978e-07
2.86262e-05
7.6758e-07
2.8558e-05
7.77629e-07
2.84319e-05
8.04048e-07
2.82482e-05
7.93711e-07
-2.55299e-06
-2.16907e-05
2.85691e-06
7.49129e-07
2.80872e-05
-4.34959e-06
-2.01423e-05
-2.28482e-05
-2.57941e-06
-2.80821e-05
2.79615e-05
7.25999e-07
-2.82934e-05
8.86716e-07
-2.83253e-05
7.97679e-07
-2.84719e-05
8.88372e-07
-2.8453e-05
8.39665e-07
-2.84079e-05
8.09935e-07
-2.83501e-05
8.3327e-07
-2.83683e-05
8.75779e-07
-2.81461e-05
8.89441e-07
-2.79808e-05
8.70752e-07
-2.78888e-05
9.7708e-07
-2.76886e-05
1.00308e-06
-2.75116e-05
1.0319e-06
-2.73454e-05
1.0967e-06
-2.72772e-05
1.26658e-06
-2.72215e-05
1.65694e-06
-2.69149e-05
2.52422e-06
-2.45108e-05
3.77326e-06
-2.33818e-05
3.72509e-06
-2.31067e-05
3.21125e-06
-2.32311e-05
2.05747e-06
-2.38629e-05
1.10225e-06
-2.4231e-05
8.38759e-07
-2.4316e-05
7.47881e-07
-2.4362e-05
5.1981e-07
-2.42288e-05
-2.1164e-07
-2.38813e-05
-1.15188e-06
-1.91412e-05
2.80501e-05
-2.46724e-05
1.14424e-05
-2.14194e-05
-7.41216e-06
1.74783e-05
-1.4012e-05
-1.24988e-05
1.54241e-05
1.11863e-05
1.50038e-05
2.68759e-05
2.57308e-06
-4.73556e-06
-2.44132e-05
2.46552e-05
7.55004e-07
2.45241e-05
7.91824e-07
2.45048e-05
1.32453e-06
2.46659e-05
1.59316e-06
2.4905e-05
1.68932e-06
2.5212e-05
1.67778e-06
2.52491e-05
1.65214e-06
2.55601e-05
1.908e-06
2.64119e-05
2.13375e-06
2.69055e-05
1.86992e-06
2.7155e-05
1.48748e-06
2.73645e-05
1.22597e-06
2.75983e-05
1.06639e-06
2.77621e-05
1.04923e-06
2.79613e-05
1.02857e-06
2.81664e-05
1.05449e-06
2.82618e-05
1.08315e-06
2.83739e-05
1.10527e-06
2.84518e-05
1.12739e-06
2.85693e-05
1.06201e-06
2.85544e-05
1.11945e-06
2.8508e-05
1.16486e-06
2.84812e-05
1.11448e-06
2.84245e-05
1.13116e-06
2.82508e-05
1.19978e-06
2.80041e-05
1.19225e-06
-7.89052e-07
2.7813e-05
1.14439e-06
-3.39346e-07
2.7819e-05
1.13256e-07
2.78266e-05
5.05447e-07
2.78079e-05
-1.80148e-05
1.7664e-05
-2.04597e-05
2.7741e-05
8.88519e-07
-2.34967e-05
-2.21136e-05
2.66256e-05
-1.86598e-05
2.92862e-05
1.53391e-05
-2.58549e-05
-5.26529e-06
-2.17187e-05
2.22433e-05
-1.7313e-05
2.30029e-05
-2.78116e-05
1.91675e-05
1.85867e-05
-1.91981e-05
-2.72604e-05
1.09828e-07
5.68444e-06
-2.38623e-05
-2.35723e-06
-6.56847e-07
1.09223e-06
2.75148e-05
-2.47052e-07
2.75635e-05
1.84784e-07
2.75539e-05
5.27899e-07
2.76177e-05
8.66963e-07
2.75369e-05
-2.77104e-05
1.1911e-06
2.74922e-05
-2.77729e-05
1.08437e-06
-2.80471e-05
1.16593e-06
-2.80742e-05
1.11556e-06
-2.82606e-05
1.22488e-06
-2.82704e-05
1.18001e-06
-2.82577e-05
1.15001e-06
-2.81741e-05
1.09024e-06
-2.81079e-05
1.16966e-06
-2.80467e-05
1.25364e-06
-2.79374e-05
1.2519e-06
-2.78308e-05
1.26429e-06
-2.76433e-05
1.31276e-06
-2.7472e-05
1.37291e-06
-2.72971e-05
1.41119e-06
-2.71032e-05
1.46481e-06
-2.69706e-05
1.69777e-06
-2.67288e-05
1.97248e-06
-2.61839e-05
2.5184e-06
-2.50244e-05
3.11953e-06
-2.42743e-05
3.44261e-06
-2.35753e-05
2.94182e-06
-2.35726e-05
2.44985e-06
-2.39061e-05
1.80173e-06
-2.41415e-05
1.40656e-06
-2.43705e-05
1.29444e-06
-2.44931e-05
9.5033e-07
-2.46656e-05
2.35667e-07
-9.23055e-07
-2.46507e-05
2.62095e-06
-2.14691e-06
-2.47798e-05
2.45175e-05
2.52507e-05
-3.39681e-05
2.99589e-05
-2.11237e-05
1.85194e-05
-1.77083e-05
1.8818e-05
2.36671e-05
1.48362e-06
3.02093e-06
2.50646e-05
4.10392e-06
-5.37871e-06
2.54933e-05
4.26973e-06
2.53215e-05
3.76493e-06
-3.41849e-06
2.50488e-05
3.09298e-06
2.51535e-05
2.69807e-06
-2.57481e-06
2.56622e-05
2.32625e-06
2.50527e-05
1.65712e-06
2.47663e-05
1.39654e-06
2.47181e-05
1.71896e-06
2.48399e-05
1.8484e-06
2.49913e-05
1.94823e-06
2.52433e-05
1.87015e-06
2.53859e-05
1.98431e-06
2.57174e-05
2.0787e-06
2.6243e-05
2.13593e-06
2.66608e-05
2.00088e-06
2.69219e-05
1.7882e-06
2.71359e-05
1.57883e-06
2.74072e-05
1.35907e-06
2.75685e-05
1.44247e-06
2.77902e-05
1.34595e-06
2.79391e-05
1.42493e-06
2.80768e-05
1.44007e-06
2.81764e-05
1.47128e-06
2.83644e-05
1.37272e-06
2.83852e-05
1.4389e-06
2.83707e-05
1.493e-06
2.84318e-05
1.42316e-06
2.84413e-05
1.38455e-06
2.83166e-05
1.49598e-06
2.82003e-05
1.51833e-06
2.80442e-05
1.51546e-06
2.78382e-05
1.48596e-06
1.40402e-06
2.7635e-05
4.60839e-07
5.51894e-05
-4.33831e-05
-1.21959e-05
-2.16867e-05
2.05793e-05
-3.21784e-05
3.21583e-05
8.01148e-06
-7.87931e-06
-2.08446e-06
2.02727e-05
2.0801e-06
-2.0414e-05
-3.54794e-05
-8.23115e-06
1.24853e-05
3.13069e-05
-2.32674e-05
-1.73784e-05
-4.60923e-06
-2.42932e-05
-2.40452e-05
-2.81226e-06
2.49214e-05
-2.74579e-05
2.73195e-05
1.39597e-06
-2.77353e-05
1.4559e-06
-2.7781e-05
1.33811e-06
-2.80261e-05
1.52317e-06
-2.80507e-05
1.45112e-06
-2.80712e-05
1.44277e-06
-2.80596e-05
1.4218e-06
-2.8041e-05
1.39591e-06
-2.7999e-05
1.49064e-06
-2.78544e-05
1.50752e-06
-2.77206e-05
1.5479e-06
-2.75832e-05
1.58364e-06
-2.73804e-05
1.58824e-06
-2.72369e-05
1.72423e-06
-2.70541e-05
1.7344e-06
-2.69131e-05
1.83612e-06
-2.66453e-05
1.94153e-06
-2.63562e-05
2.18558e-06
-2.5867e-05
2.51427e-06
-2.51662e-05
2.8767e-06
-2.44836e-05
3.18524e-06
-2.39253e-05
2.77519e-06
-2.38446e-05
2.72949e-06
-2.40248e-05
2.31419e-06
-2.42139e-05
1.89417e-06
-2.44235e-05
1.7774e-06
-2.46373e-05
1.42481e-06
-2.4801e-05
6.47531e-07
-2.52872e-05
-2.20151e-07
-1.94535e-06
-2.48361e-05
-1.98921e-05
-1.91435e-05
2.18297e-05
-9.1362e-06
-2.84775e-05
2.76779e-05
1.00387e-05
2.51658e-05
3.57127e-06
-2.71271e-05
2.54641e-05
3.93078e-06
2.55729e-05
4.29917e-06
2.54045e-05
4.08977e-06
2.52851e-05
3.38873e-06
2.52871e-05
2.89544e-06
2.53355e-05
2.50328e-06
2.51106e-05
2.13393e-06
2.48325e-05
1.95129e-06
2.4873e-05
1.98178e-06
2.48985e-05
2.15463e-06
2.50833e-05
2.12616e-06
2.52442e-05
2.10296e-06
2.54458e-05
2.2062e-06
2.5736e-05
2.23887e-06
2.60992e-05
2.24728e-06
2.64443e-05
2.14998e-06
2.67682e-05
1.97207e-06
2.70635e-05
1.79814e-06
2.72076e-05
1.72819e-06
2.74518e-05
1.70375e-06
2.75617e-05
1.72762e-06
2.77193e-05
1.73978e-06
2.78488e-05
1.75923e-06
2.80883e-05
1.65299e-06
2.8148e-05
1.70275e-06
2.81701e-05
1.77108e-06
2.82826e-05
1.69745e-06
2.83555e-05
1.62852e-06
2.82557e-05
1.72277e-06
2.81566e-05
1.79419e-06
2.80922e-05
1.74442e-06
2.7942e-05
1.79282e-06
2.77934e-05
1.73048e-06
2.75572e-05
1.7097e-06
-1.36117e-06
1.64697e-06
2.73196e-05
-1.01894e-06
2.73799e-05
-6.18161e-07
2.72293e-05
-2.03379e-07
2.72814e-05
1.04752e-07
2.73829e-05
5.71874e-07
2.72818e-05
9.72406e-07
2.72495e-05
1.28872e-06
2.72598e-05
2.71661e-05
1.48665e-06
-3.45206e-05
-9.13516e-06
1.15784e-05
-1.53314e-06
3.293e-06
-5.12566e-05
4.95997e-05
-1.27715e-05
1.12477e-05
-1.06917e-05
1.22113e-05
-2.83957e-05
-1.64238e-05
2.32577e-05
2.7391e-05
-3.11122e-05
-8.26785e-06
1.32668e-05
1.71816e-05
-2.5446e-05
-1.58782e-06
-3.51618e-06
-2.57192e-05
-1.76259e-05
-2.11236e-05
1.89533e-05
-2.29032e-05
-1.4191e-05
8.81162e-06
-3.13182e-05
1.68447e-05
-1.96316e-05
3.42142e-05
1.78445e-05
1.99873e-05
2.55446e-05
-2.56139e-05
3.74213e-06
2.52048e-05
4.37873e-06
2.52757e-05
4.34436e-06
2.52876e-05
4.2065e-06
2.52598e-05
3.56009e-06
2.52425e-05
3.07428e-06
2.5188e-05
2.73985e-06
2.50672e-05
2.4585e-06
2.49438e-05
2.29983e-06
2.49052e-05
2.27023e-06
2.50092e-05
2.3266e-06
2.51116e-05
2.32706e-06
2.52402e-05
2.30587e-06
2.54427e-05
2.36333e-06
2.56849e-05
2.38224e-06
2.59759e-05
2.36559e-06
2.62819e-05
2.27255e-06
2.65714e-05
2.12475e-06
2.67685e-05
2.0506e-06
2.6951e-05
1.99594e-06
2.71299e-05
1.96943e-06
2.73198e-05
1.97095e-06
2.74695e-05
2.00608e-06
2.77286e-05
1.89433e-06
2.78377e-05
1.91168e-06
2.78604e-05
2.01666e-06
2.80313e-05
1.9028e-06
2.81571e-05
1.83809e-06
2.81046e-05
1.90892e-06
2.80427e-05
1.97289e-06
2.80515e-05
1.93511e-06
2.78939e-05
2.01458e-06
2.78009e-05
1.964e-06
2.76672e-05
1.91149e-06
2.74717e-05
1.92621e-06
2.72328e-05
1.88589e-06
-1.59703e-06
1.83553e-06
2.69791e-05
-1.31704e-06
2.70725e-05
-8.89744e-07
2.70245e-05
-6.62259e-07
2.71019e-05
-3.15733e-07
2.7052e-05
1.68257e-07
2.70205e-05
5.75454e-07
2.69899e-05
8.80593e-07
2.70416e-05
1.25239e-06
2.69558e-05
1.52902e-06
2.69177e-05
-2.69273e-05
2.67123e-05
1.72428e-06
-2.71352e-05
1.69123e-06
-2.73756e-05
1.65529e-06
-2.75313e-05
1.65817e-06
-2.7769e-05
1.65485e-06
-2.7783e-05
1.65211e-06
-2.7841e-05
1.66282e-06
-2.78647e-05
1.66067e-06
-2.78277e-05
1.61988e-06
-2.78575e-05
1.70106e-06
-2.77728e-05
1.71952e-06
-2.76606e-05
1.74354e-06
-2.74938e-05
1.75983e-06
-2.73605e-05
1.85462e-06
-2.71923e-05
1.84479e-06
-2.69782e-05
1.94984e-06
-2.67751e-05
1.97946e-06
-2.65826e-05
2.0956e-06
-2.63575e-05
2.16578e-06
-2.60675e-05
2.3354e-06
-2.56758e-05
2.54613e-06
-2.51836e-05
2.78388e-06
-2.47313e-05
3.1037e-06
-2.43155e-05
2.70222e-06
-2.42038e-05
2.92937e-06
-2.41528e-05
2.54844e-06
-2.42677e-05
2.2647e-06
-2.44416e-05
2.17697e-06
-2.46926e-05
1.88337e-06
-2.51472e-05
1.29662e-06
2.22294e-07
-2.54055e-05
-2.09475e-05
-1.9968e-05
2.18818e-05
-2.87886e-06
-2.59039e-05
-2.87935e-05
-3.52436e-06
6.80434e-06
-1.72956e-06
-1.72598e-05
-2.31735e-05
2.58064e-05
-2.43498e-05
-1.55401e-05
2.42111e-05
-1.47188e-05
-1.40123e-05
2.09446e-05
-2.49802e-05
-1.04215e-05
2.6371e-05
3.33941e-06
4.41724e-07
2.59003e-05
2.94291e-06
-2.54174e-05
2.51865e-05
4.54335e-06
2.4886e-05
4.76591e-06
2.47959e-05
4.52376e-06
2.4978e-05
4.1195e-06
2.5029e-05
3.61283e-06
2.50785e-05
3.14044e-06
2.50001e-05
2.94885e-06
2.4949e-05
2.65656e-06
2.48952e-05
2.51996e-06
2.48891e-05
2.4639e-06
2.49742e-05
2.45139e-06
2.50604e-05
2.47453e-06
2.51752e-05
2.45007e-06
2.53379e-05
2.4855e-06
2.55488e-05
2.48158e-06
2.58067e-05
2.4411e-06
2.60327e-05
2.39935e-06
2.62738e-05
2.25071e-06
2.64751e-05
2.22571e-06
2.66668e-05
2.18399e-06
2.68581e-05
2.15483e-06
2.70561e-05
2.14031e-06
2.72889e-05
2.12598e-06
2.74326e-05
2.08277e-06
2.74893e-05
2.1613e-06
2.7716e-05
2.06696e-06
2.78687e-05
1.99462e-06
2.78492e-05
2.06605e-06
2.78205e-05
2.10772e-06
2.78662e-05
2.05858e-06
2.77415e-05
2.15281e-06
2.7725e-05
2.08748e-06
2.76466e-05
2.06453e-06
2.744e-05
2.10962e-06
2.72739e-05
2.05758e-06
2.70763e-05
2.02778e-06
2.68476e-05
1.99335e-06
-1.74809e-06
2.65697e-05
1.94541e-06
-1.48998e-06
2.66966e-05
-1.20828e-06
2.68148e-05
-9.09156e-07
2.67881e-05
-4.73031e-07
2.67568e-05
-1.62906e-07
2.68501e-05
1.83702e-07
2.67863e-05
5.03945e-07
2.67756e-05
9.07629e-07
2.67253e-05
1.19945e-06
2.67218e-05
1.53437e-06
2.66008e-05
1.76878e-06
2.64475e-05
-2.64526e-05
2.62067e-05
1.9293e-06
-2.6686e-05
1.88318e-06
-2.68991e-05
1.84656e-06
-2.71108e-05
1.83171e-06
-2.72823e-05
1.82191e-06
-2.74177e-05
1.81453e-06
-2.7529e-05
1.82367e-06
-2.75955e-05
1.82817e-06
-2.76334e-05
1.8377e-06
-2.76677e-05
1.83417e-06
-2.75788e-05
1.83169e-06
-2.75255e-05
1.92278e-06
-2.7421e-05
1.92963e-06
-2.72908e-05
1.94971e-06
-2.71009e-05
2.00922e-06
-2.69362e-05
2.04309e-06
-2.67041e-05
2.0938e-06
-2.65482e-05
2.20656e-06
-2.63073e-05
2.23902e-06
-2.60829e-05
2.32055e-06
-2.58161e-05
2.43737e-06
-2.54976e-05
2.57981e-06
-2.51421e-05
2.7586e-06
-2.46959e-05
2.96062e-06
-2.45409e-05
2.82409e-06
-2.43102e-05
2.94647e-06
-2.42796e-05
2.73956e-06
-2.42756e-05
2.45876e-06
-2.43809e-05
2.45559e-06
-2.45858e-05
2.24109e-06
-2.49217e-05
1.77302e-06
8.94186e-07
-2.54657e-05
-2.56981e-05
-1.13338e-06
-1.97556e-05
-2.22125e-05
-2.04054e-05
-2.24485e-05
2.29983e-05
1.04066e-05
1.5785e-05
-1.99264e-05
-6.25722e-06
-2.58246e-05
-2.60484e-06
-2.39327e-05
-9.31401e-06
4.86869e-06
-2.55171e-05
-1.23275e-05
-2.5593e-05
-1.45347e-05
-3.07717e-07
-8.66707e-06
-1.96772e-05
-9.66034e-06
-2.11374e-05
1.54768e-06
-2.60638e-05
-3.19956e-06
-1.78339e-05
-2.36809e-05
-2.41207e-05
-1.69033e-05
-1.65941e-06
1.9053e-06
2.62394e-05
-1.43822e-06
2.64473e-05
-1.1295e-06
2.65267e-05
-7.86017e-07
2.65042e-05
-4.8246e-07
2.6541e-05
-8.30904e-08
2.65557e-05
2.28131e-07
2.65851e-05
6.02212e-07
2.65042e-05
9.10093e-07
2.65013e-05
1.26581e-06
2.642e-05
1.57688e-06
2.63036e-05
1.79955e-06
2.61897e-05
1.92784e-06
2.59877e-05
-2.59334e-05
2.02642e-06
2.56835e-05
-2.61223e-05
1.97276e-06
-2.6363e-05
1.98988e-06
-2.65627e-05
1.92922e-06
-2.6781e-05
1.95547e-06
-2.69597e-05
1.9334e-06
-2.70856e-05
1.90525e-06
-2.72066e-05
1.94521e-06
-2.72651e-05
1.92549e-06
-2.73186e-05
1.96996e-06
-2.73334e-05
1.96787e-06
-2.7318e-05
1.97433e-06
-2.71917e-05
1.99082e-06
-2.70955e-05
2.06026e-06
-2.69652e-05
2.0746e-06
-2.67719e-05
2.09377e-06
-2.66054e-05
2.17146e-06
-2.64217e-05
2.21592e-06
-2.61742e-05
2.26951e-06
-2.59814e-05
2.35486e-06
-2.57664e-05
2.40701e-06
-2.55284e-05
2.48842e-06
-2.52648e-05
2.58805e-06
-2.49695e-05
2.71335e-06
-2.463e-05
2.84563e-06
-2.43345e-05
2.72645e-06
-2.43153e-05
3.09742e-06
-2.41328e-05
2.70326e-06
-2.42322e-05
2.68267e-06
-2.42078e-05
2.53692e-06
-2.43273e-05
2.45017e-06
-2.46743e-05
2.19801e-06
1.68443e-06
-2.53928e-05
-5.62121e-07
-2.59183e-05
1.95987e-05
-1.61827e-05
-2.10026e-05
-1.8155e-05
-2.46754e-05
1.671e-05
-4.16148e-06
5.53552e-06
-1.81489e-05
3.41804e-05
-8.99296e-07
-3.35448e-05
3.4845e-07
2.41727e-05
5.34958e-06
-2.49094e-05
2.41282e-05
4.8708e-06
2.42942e-05
4.41639e-06
2.45069e-05
3.96365e-06
2.462e-05
3.56078e-06
2.47064e-05
3.1189e-06
2.47175e-05
3.01044e-06
2.47196e-05
2.73893e-06
2.47177e-05
2.62111e-06
2.47388e-05
2.55906e-06
2.47916e-05
2.53369e-06
2.48997e-05
2.52213e-06
2.50028e-05
2.52539e-06
2.51465e-05
2.54424e-06
2.53216e-05
2.53335e-06
2.55212e-05
2.491e-06
2.57704e-05
2.41995e-06
2.5934e-05
2.37293e-06
2.61253e-05
2.33162e-06
2.63182e-05
2.29401e-06
2.65129e-05
2.26243e-06
2.67115e-05
2.23706e-06
2.69086e-05
2.21131e-06
2.70704e-05
2.18469e-06
2.72947e-05
2.17738e-06
2.73783e-05
2.19553e-06
2.74553e-05
2.09752e-06
2.74821e-05
2.1837e-06
2.75509e-05
2.14618e-06
2.74731e-05
2.20538e-06
2.74745e-05
2.1826e-06
2.74367e-05
2.11991e-06
2.72435e-05
2.21851e-06
2.70945e-05
2.18904e-06
2.69406e-05
2.11591e-06
2.67789e-05
2.07275e-06
2.65343e-05
2.10573e-06
2.6288e-05
2.04961e-06
2.59986e-05
2.04832e-06
-2.04622e-05
-2.41339e-05
2.43041e-05
-2.1807e-05
-2.27461e-05
5.34931e-05
-2.38034e-06
4.07464e-06
-5.51225e-05
-2.2223e-05
-4.01368e-06
-1.85872e-05
-2.53771e-05
-3.5061e-06
-2.54205e-05
2.5166e-05
2.06643e-06
-2.569e-05
2.03373e-06
-2.58819e-05
1.98479e-06
-2.61343e-05
2.00183e-06
-2.62983e-05
1.96208e-06
-2.6499e-05
2.00412e-06
-2.66588e-05
1.96674e-06
-2.67364e-05
1.95991e-06
-2.68444e-05
2.00869e-06
-2.68438e-05
1.98385e-06
-2.68656e-05
2.04369e-06
-2.68302e-05
2.03102e-06
-2.67633e-05
2.05155e-06
-2.66198e-05
2.07592e-06
-2.64937e-05
2.13428e-06
-2.63443e-05
2.15132e-06
-2.61406e-05
2.18976e-06
-2.59417e-05
2.24735e-06
-2.57446e-05
2.30458e-06
-2.55227e-05
2.36081e-06
-2.53234e-05
2.4256e-06
-2.51104e-05
2.4784e-06
-2.4885e-05
2.54647e-06
-2.46362e-05
2.62599e-06
-2.43705e-05
2.71643e-06
-2.42947e-05
2.76176e-06
-2.39822e-05
2.86949e-06
-2.38548e-05
2.63808e-06
-2.38533e-05
2.72438e-06
-2.3869e-05
2.58068e-06
-2.38627e-05
2.46059e-06
-2.40697e-05
2.41487e-06
-2.48398e-05
2.46231e-06
3.06438e-07
-2.6189e-05
1.83885e-05
-1.50979e-05
1.64291e-05
-2.6076e-05
-1.56705e-05
-1.86352e-06
2.0304e-06
2.56861e-05
-1.66711e-06
2.59597e-05
-1.41187e-06
2.61655e-05
-1.06462e-06
2.6202e-05
-7.80132e-07
2.62817e-05
-4.94242e-07
2.63458e-05
-1.34151e-07
2.63031e-05
3.00055e-07
2.62634e-05
6.17247e-07
2.62924e-05
9.76476e-07
2.62282e-05
1.30856e-06
2.61436e-05
1.53877e-06
2.60886e-05
1.75814e-06
2.59359e-05
1.93763e-06
2.57176e-05
2.03737e-06
2.5432e-05
2.01652e-06
2.49714e-05
2.36612e-05
-1.61407e-05
-2.35844e-05
2.66691e-05
-1.60657e-05
2.56115e-05
-1.3366e-05
2.45354e-05
-1.11466e-05
-9.65773e-06
-1.78265e-05
1.69555e-05
1.88571e-05
-7.77073e-06
-2.73364e-05
-1.01819e-05
9.74952e-06
8.37783e-07
-3.74739e-07
-6.79129e-06
-1.97894e-05
1.87672e-05
2.27349e-05
4.93515e-06
-2.2271e-05
2.31712e-05
4.46774e-06
2.35519e-05
4.05949e-06
2.38368e-05
3.69628e-06
2.40685e-05
3.34215e-06
2.41312e-05
3.06664e-06
2.4281e-05
2.87248e-06
2.43262e-05
2.71099e-06
2.4363e-05
2.61043e-06
2.44068e-05
2.55394e-06
2.44672e-05
2.52701e-06
2.45439e-05
2.51664e-06
2.4649e-05
2.5116e-06
2.47838e-05
2.52295e-06
2.49507e-05
2.50349e-06
2.51223e-05
2.47941e-06
2.52864e-05
2.43706e-06
2.54612e-05
2.39742e-06
2.56454e-05
2.3605e-06
2.58352e-05
2.3255e-06
2.60278e-05
2.29309e-06
2.62203e-05
2.26346e-06
2.64052e-05
2.23443e-06
2.65741e-05
2.20724e-06
2.67324e-05
2.18841e-06
2.68937e-05
2.17694e-06
2.69479e-05
2.15496e-06
2.70357e-05
2.17307e-06
2.70212e-05
2.2012e-06
2.70444e-05
2.18514e-06
2.70477e-05
2.14468e-06
2.68621e-05
2.23483e-06
2.67987e-05
2.17759e-06
2.66981e-05
2.15501e-06
2.65282e-05
2.12522e-06
2.62512e-05
2.16833e-06
2.60442e-05
2.11605e-06
2.58077e-05
2.07938e-06
2.5533e-05
2.11155e-06
2.52644e-05
2.08804e-06
3.63192e-06
5.3639e-05
-3.71498e-06
-2.88487e-06
-2.55261e-05
-1.55738e-05
8.4518e-06
-2.00397e-05
-2.63821e-05
2.60715e-05
-1.99823e-05
-2.63939e-05
-2.25245e-05
-2.42446e-05
-5.51375e-05
-7.46718e-06
6.03015e-05
4.42359e-05
-2.34045e-06
-4.1366e-05
2.05394e-05
-3.37832e-06
-2.5881e-05
3.45673e-06
-2.79769e-05
1.97858e-05
1.43794e-05
-1.51495e-05
-1.02392e-05
-3.73572e-05
1.31741e-05
9.64998e-06
-1.56409e-05
-1.27936e-05
1.87619e-05
-1.37366e-06
-5.3251e-05
-2.74331e-06
5.7471e-05
-2.44958e-05
2.42212e-05
2.01093e-06
-2.47384e-05
2.02964e-06
-2.49556e-05
1.978e-06
-2.52116e-05
1.9793e-06
-2.54131e-05
1.95899e-06
-2.56438e-05
1.97064e-06
-2.5777e-05
1.94264e-06
-2.59425e-05
1.96897e-06
-2.6074e-05
1.9633e-06
-2.61267e-05
1.9708e-06
-2.61796e-05
1.98524e-06
-2.61485e-05
1.99976e-06
-2.61083e-05
2.01522e-06
-2.60321e-05
2.03425e-06
-2.59283e-05
2.06137e-06
-2.57755e-05
2.09593e-06
-2.56166e-05
2.12621e-06
-2.54433e-05
2.16295e-06
-2.52494e-05
2.2057e-06
-2.50398e-05
2.24642e-06
-2.48465e-05
2.31151e-06
-2.46414e-05
2.35177e-06
-2.44487e-05
2.39914e-06
-2.42573e-05
2.44727e-06
-2.40469e-05
2.48401e-06
-2.38097e-05
2.52243e-06
-2.36347e-05
2.60435e-06
-2.35255e-05
2.75365e-06
-2.3412e-05
2.49769e-06
-2.33354e-05
2.60556e-06
-2.32993e-05
2.49072e-06
-2.33257e-05
2.42641e-06
-2.34551e-05
2.48176e-06
-2.35792e-05
2.52868e-06
3.29546e-06
-2.34744e-05
2.25812e-05
-1.39111e-05
-3.54524e-05
3.07182e-05
-1.33706e-05
2.16255e-05
-1.41182e-05
-4.28313e-05
-1.97676e-06
2.06978e-06
2.49651e-05
-1.81257e-06
2.53816e-05
-1.63791e-06
2.57072e-05
-1.36064e-06
2.58677e-05
-1.09169e-06
2.59622e-05
-7.82409e-07
2.60416e-05
-3.87821e-07
2.60493e-05
-4.8397e-09
2.60352e-05
3.03459e-07
2.60755e-05
6.73969e-07
2.60348e-05
1.02148e-06
2.59742e-05
1.30261e-06
2.59251e-05
1.56845e-06
2.5844e-05
1.79928e-06
2.56763e-05
1.94016e-06
2.54908e-05
2.03108e-06
2.51932e-05
2.09924e-06
2.4691e-05
2.05356e-06
2.39896e-05
-1.75705e-05
2.70357e-05
-1.45705e-05
2.52914e-05
-1.15112e-05
2.36837e-05
-9.43631e-06
2.17865e-05
-7.66572e-06
-8.91288e-06
2.03709e-05
1.04709e-06
-2.2631e-06
2.49637e-05
-3.09191e-05
2.13339e-05
5.23138e-06
-2.05092e-05
-6.01859e-06
2.17628e-05
4.52678e-06
2.22302e-05
4.003e-06
2.26611e-05
3.61592e-06
2.30251e-05
3.30653e-06
2.3283e-05
3.04722e-06
2.34615e-05
2.84252e-06
2.35991e-05
2.68378e-06
2.3681e-05
2.57661e-06
2.37451e-05
2.49658e-06
2.3805e-05
2.4515e-06
2.38687e-05
2.4317e-06
2.39416e-05
2.42632e-06
2.40314e-05
2.42198e-06
2.4146e-05
2.42919e-06
2.42758e-05
2.4175e-06
2.44253e-05
2.39742e-06
2.45824e-05
2.3701e-06
2.47508e-05
2.33965e-06
2.49282e-05
2.31001e-06
2.51123e-05
2.27918e-06
2.53009e-05
2.24696e-06
2.54877e-05
2.21733e-06
2.56673e-05
2.1871e-06
2.58309e-05
2.1613e-06
2.59792e-05
2.13746e-06
2.61078e-05
2.12026e-06
2.61973e-05
2.10738e-06
2.6268e-05
2.1108e-06
2.63297e-05
2.11191e-06
2.6338e-05
2.11216e-06
2.62211e-05
2.15986e-06
2.61895e-05
2.12894e-06
2.6083e-05
2.113e-06
2.59572e-05
2.07948e-06
2.57152e-05
2.14026e-06
2.55502e-05
2.08576e-06
2.53435e-05
2.05967e-06
2.5043e-05
2.10704e-06
2.48141e-05
2.06298e-06
2.45337e-05
2.09124e-06
2.42618e-05
2.0689e-06
2.44927e-05
-1.58711e-05
-2.46475e-05
-3.37968e-06
-2.562e-05
2.06626e-05
-2.83797e-05
-2.67411e-05
2.61037e-05
-1.64052e-05
1.71489e-05
-2.72934e-05
-1.7559e-05
1.82178e-05
-1.91578e-05
-2.80671e-05
-2.52121e-05
-3.70776e-06
-2.9115e-05
-2.67026e-05
-2.20919e-05
-2.60221e-05
-2.45039e-05
4.63851e-05
-4.54977e-05
-2.16999e-06
2.63258e-05
-1.48706e-05
1.27495e-05
-2.41081e-05
-4.65352e-05
4.30713e-05
-4.68712e-06
1.92951e-05
-1.2398e-05
2.16469e-05
2.77464e-07
-1.12164e-05
2.30342e-05
1.08591e-05
5.50255e-05
-5.37249e-05
2.84157e-06
3.63451e-06
5.50924e-05
2.23775e-05
2.45765e-06
2.23234e-05
2.45846e-06
2.23314e-05
2.33957e-06
2.23421e-05
2.27742e-06
2.24303e-05
2.26571e-06
2.2556e-05
2.35042e-06
2.25267e-05
2.40976e-06
2.27797e-05
2.4013e-06
2.29238e-05
2.38353e-06
2.3068e-05
2.32714e-06
2.32317e-05
2.29559e-06
2.33981e-05
2.28165e-06
2.35696e-05
2.25214e-06
2.37542e-05
2.21213e-06
2.39555e-05
2.17104e-06
2.41431e-05
2.12978e-06
2.43353e-05
2.08821e-06
2.45092e-05
2.06054e-06
2.46741e-05
2.02223e-06
2.48208e-05
1.99277e-06
2.49316e-05
1.97029e-06
2.50167e-05
1.93963e-06
2.50616e-05
1.92739e-06
2.50685e-05
1.91344e-06
2.50424e-05
1.89389e-06
2.49713e-05
1.88614e-06
2.48615e-05
1.88017e-06
2.47307e-05
1.87211e-06
2.45503e-05
1.86411e-06
2.43434e-05
1.89159e-06
2.41351e-05
1.85914e-06
2.389e-05
1.89946e-06
2.36313e-05
1.90053e-06
2.34004e-05
1.91839e-06
2.31224e-05
1.94569e-06
2.28921e-05
1.94333e-06
4.06453e-06
5.4619e-05
-4.97522e-06
-2.00646e-06
2.03801e-06
2.39653e-05
-1.92037e-06
2.46811e-05
-1.80036e-06
2.51299e-05
-1.59072e-06
2.54288e-05
-1.31875e-06
2.55848e-05
-1.04472e-06
2.57275e-05
-6.77658e-07
2.57545e-05
-3.23012e-07
2.58041e-05
-5.56339e-09
2.58446e-05
3.53635e-07
2.58488e-05
7.05176e-07
2.58078e-05
1.01198e-06
2.57723e-05
1.29561e-06
2.57151e-05
1.57634e-06
2.55949e-05
1.78299e-06
2.54502e-05
1.93143e-06
2.52649e-05
2.06322e-06
2.49214e-05
2.08577e-06
2.44632e-05
2.09437e-06
2.37102e-05
1.99497e-06
2.26567e-05
2.44786e-05
-1.37884e-05
-6.25396e-06
-2.50747e-05
-1.53735e-05
2.53312e-05
1.62515e-05
1.51489e-05
5.85251e-05
-4.50267e-05
-2.85782e-05
9.82202e-06
-4.97464e-05
5.74735e-06
-5.0984e-05
3.40842e-06
-5.13228e-05
5.23233e-05
1.38735e-06
-5.02432e-05
5.30198e-05
2.20995e-06
5.35929e-05
3.1292e-06
-5.58549e-06
7.41061e-06
5.18339e-05
1.89429e-05
-9.13382e-06
2.84684e-06
5.18805e-05
-5.13476e-05
-3.30654e-06
1.07353e-05
2.49101e-05
-9.22454e-06
8.45873e-06
2.24242e-05
-2.56783e-05
-5.09937e-06
2.58582e-05
-2.75834e-05
-1.53736e-05
2.66526e-05
-2.84411e-05
-1.66e-05
-1.80028e-05
-2.94932e-05
-4.00708e-06
-2.44809e-05
2.43416e-05
-1.51866e-05
-2.49164e-05
3.91801e-06
-1.8882e-06
2.71968e-05
-1.0932e-05
2.47738e-05
-8.97961e-06
2.27065e-05
-7.26925e-06
2.17228e-05
-6.59002e-06
-6.80983e-06
1.97027e-05
-1.44181e-05
2.32817e-05
1.15789e-05
8.08737e-06
-3.58958e-06
-1.44434e-05
9.98401e-06
1.93113e-05
5.90974e-06
-6.80994e-06
-1.83793e-05
1.9952e-05
4.6053e-06
2.05387e-05
3.93488e-06
2.10522e-05
3.46194e-06
2.14904e-05
3.12794e-06
2.18586e-05
2.86806e-06
2.21534e-05
2.66474e-06
2.23763e-05
2.51684e-06
2.25345e-05
2.41095e-06
2.26541e-05
2.33439e-06
2.27348e-05
2.28988e-06
2.28051e-05
2.25708e-06
2.28691e-05
2.25014e-06
2.29353e-05
2.25366e-06
2.30112e-05
2.2552e-06
2.31115e-05
2.25759e-06
2.32236e-05
2.257e-06
2.33542e-05
2.24301e-06
2.34986e-05
2.22631e-06
2.36607e-05
2.20068e-06
2.38297e-05
2.18293e-06
2.40075e-05
2.15683e-06
2.41954e-05
2.12182e-06
2.43774e-05
2.09882e-06
2.45581e-05
2.06387e-06
2.47158e-05
2.04855e-06
2.48621e-05
2.01772e-06
2.49826e-05
2.00211e-06
2.50797e-05
1.98369e-06
2.5135e-05
1.99617e-06
2.51847e-05
1.96764e-06
2.518e-05
1.98561e-06
2.51774e-05
1.9944e-06
2.51129e-05
1.98976e-06
2.50004e-05
1.98852e-06
2.48016e-05
2.01158e-06
2.46234e-05
2.02647e-06
2.44457e-05
1.95087e-06
2.41731e-05
2.00449e-06
2.39611e-05
1.98157e-06
2.37099e-05
1.97206e-06
2.34312e-05
2.02801e-06
2.31793e-05
1.98311e-06
2.2913e-05
1.97398e-06
2.74627e-05
1.38598e-05
-2.84872e-05
2.58569e-05
1.24329e-05
-9.0367e-06
1.12931e-05
2.36913e-05
-4.14443e-05
1.94923e-06
4.20955e-05
-2.50493e-06
2.17632e-05
-5.80146e-06
-4.39268e-06
-2.48562e-05
-6.00797e-07
5.19626e-05
4.89529e-07
9.65802e-06
1.936e-05
-7.17323e-06
6.46004e-06
5.26992e-05
-9.54846e-06
-4.95154e-05
-2.76994e-05
-2.49109e-05
-2.85444e-05
-2.12687e-05
-2.87798e-05
1.40352e-05
-2.80571e-05
2.65478e-05
2.79992e-05
-1.51609e-05
-2.93418e-05
2.6757e-05
5.36423e-05
-2.9266e-05
4.46052e-05
3.22557e-06
-1.34919e-06
-5.34922e-05
9.43327e-06
5.15471e-05
3.06212e-05
-2.85302e-05
-3.59425e-05
-2.34485e-05
-4.23562e-06
2.1978e-05
-6.71403e-06
-5.28983e-05
2.60759e-06
-5.18702e-05
1.24826e-06
-4.9656e-05
-7.6849e-07
2.05569e-05
2.00777e-06
2.0769e-05
2.0603e-06
2.08464e-05
2.05955e-06
2.08996e-05
2.0111e-06
2.09411e-05
2.00677e-06
2.10563e-05
2.02089e-06
2.1129e-05
2.13189e-06
2.128e-05
2.06059e-06
2.13706e-05
2.12512e-06
2.14808e-05
2.07524e-06
2.15944e-05
2.06811e-06
2.1762e-05
2.0275e-06
2.19322e-05
2.02128e-06
2.21193e-05
1.98753e-06
2.23112e-05
1.9601e-06
2.25034e-05
1.93146e-06
2.26962e-05
1.89571e-06
2.28818e-05
1.8743e-06
2.30514e-05
1.84378e-06
2.32014e-05
1.81841e-06
2.33221e-05
1.80262e-06
2.34079e-05
1.77878e-06
2.34627e-05
1.7649e-06
2.34822e-05
1.75058e-06
2.34548e-05
1.74079e-06
2.33929e-05
1.7298e-06
2.32969e-05
1.72132e-06
2.31615e-05
1.7184e-06
2.29883e-05
1.71729e-06
2.28165e-05
1.71642e-06
2.25712e-05
1.73579e-06
2.23412e-05
1.7446e-06
2.21183e-05
1.72748e-06
2.18593e-05
1.77538e-06
2.16267e-05
1.77514e-06
2.13654e-05
1.80401e-06
2.11622e-05
1.80283e-06
-1.9837e-05
-4.80399e-06
1.79078e-05
-2.15205e-05
-4.81649e-06
-2.33638e-05
-5.32924e-06
-2.59722e-05
-6.26799e-06
-2.92015e-05
-7.59366e-06
-3.33802e-05
-9.07854e-06
-1.89935e-05
1.62162e-05
1.53523e-05
-1.06101e-05
2.3974e-05
-2.35387e-05
2.32259e-05
-1.42324e-05
2.56115e-05
1.29138e-05
2.5019e-05
-2.90745e-06
5.28665e-05
1.94107e-06
3.30835e-06
5.42344e-05
1.4056e-05
-3.14891e-05
-1.09709e-05
-1.63304e-05
-3.09155e-05
2.66151e-05
-8.94628e-06
6.10972e-06
-2.35724e-05
1.72186e-06
-1.86497e-05
7.95322e-07
-2.19759e-05
2.51549e-05
-1.44951e-05
1.27804e-05
-8.80235e-06
-4.46769e-05
4.07464e-05
-5.50663e-05
-3.71398e-07
5.27858e-05
-9.69023e-06
-3.76929e-05
-2.02178e-06
1.95339e-06
2.26608e-05
-2.0147e-06
2.37036e-05
-1.9172e-06
2.43965e-05
-1.75865e-06
2.48509e-05
-1.5311e-06
2.51444e-05
-1.27268e-06
2.53279e-05
-9.43828e-07
2.54509e-05
-6.31481e-07
2.55353e-05
-3.18906e-07
2.56152e-05
3.87825e-08
2.56288e-05
3.85558e-07
2.56485e-05
7.05073e-07
2.56276e-05
1.0157e-06
2.55811e-05
1.30999e-06
2.55085e-05
1.56646e-06
2.53833e-05
1.77431e-06
2.52353e-05
1.97224e-06
2.50009e-05
2.06777e-06
2.46961e-05
2.10612e-06
2.42291e-05
2.06769e-06
2.34868e-05
1.96366e-06