/*--------------------------------*- C++ -*----------------------------------*\
| =========                 |                                                 |
| \\      /  F ield         | OpenFOAM: The Open Source CFD Toolbox           |
|  \\    /   O peration     | Version:  2212                                  |
|   \\  /    A nd           | Website:  www.openfoam.com                      |
|    \\/     M anipulation  |                                                 |
\*---------------------------------------------------------------------------*/
FoamFile
{
    version     2.0;
    format      ascii;
    arch        "LSB;label=32;scalar=64";
    class       volScalarField;
    location    "0.066";
    object      alphat;
}
// * * * * * * * * * * * * * * * * * * * * * * * * * * * * * * * * * * * * * //

dimensions      [1 -1 -1 0 0 0 0];

internalField   nonuniform List<scalar> 
7220
(
2.14166e-05
0.000302196
0.000351167
0.000489828
0.000365798
0.000423997
0.000352375
0.000370505
0.000492747
0.000427776
1.89278e-05
0.000543886
0.000702964
4.51166e-05
4.40688e-05
0.000495566
0.000112365
5.50872e-05
9.21031e-05
3.85231e-05
0.000876463
0.000167699
0.0010625
0.000193295
0.000157838
0.000251465
0.000925025
4.11684e-05
0.000720339
0.000242286
0.000141065
0.000280734
0.000338378
0.000221101
0.000192616
2.38252e-05
0.000277676
2.12478e-05
1.9256e-05
0.00011106
0.000112142
0.00011127
0.000110268
2.17425e-05
2.18478e-05
2.20757e-05
2.17828e-05
2.1736e-05
0.000113217
0.00011456
0.000113263
0.000112182
0.000116377
0.000118832
0.00011708
0.000114802
0.000121722
0.000123678
0.000123043
0.000120132
0.00012492
0.000125717
0.000126107
0.000124917
0.000120847
0.00010596
0.000114756
0.000125729
8.67872e-05
6.93102e-05
6.87209e-05
9.23559e-05
5.24499e-05
3.84967e-05
3.64756e-05
5.04903e-05
3.07534e-05
2.59377e-05
2.49457e-05
2.90349e-05
2.36298e-05
2.25975e-05
2.21989e-05
2.30251e-05
2.17419e-05
2.18565e-05
2.21373e-05
2.19713e-05
2.19314e-05
2.18037e-05
0.000109814
0.000109066
0.00010605
0.000104771
2.21096e-05
2.23811e-05
2.19604e-05
2.2163e-05
2.29376e-05
2.66176e-05
2.40617e-05
3.85093e-05
3.11888e-05
5.28263e-05
4.73051e-05
6.36103e-05
5.78686e-05
8.13567e-05
7.13352e-05
0.000109592
9.52102e-05
0.000118673
0.000117469
0.000116195
0.000117771
0.000111047
0.000113723
0.000107119
0.000108841
0.000109697
0.000107647
0.000114338
0.000112222
0.000116268
0.000115668
0.000103
0.000113069
7.59303e-05
8.88278e-05
5.85613e-05
6.59712e-05
4.33288e-05
5.14094e-05
2.80336e-05
3.37875e-05
2.27011e-05
2.43845e-05
2.20461e-05
2.24665e-05
0.00010574
0.000103677
2.19295e-05
2.22e-05
2.25108e-05
2.25199e-05
2.22929e-05
2.22466e-05
2.308e-05
2.18465e-05
2.2247e-05
2.27638e-05
2.54557e-05
2.38051e-05
3.39717e-05
2.88987e-05
4.63901e-05
4.13708e-05
4.99862e-05
4.88869e-05
5.19483e-05
5.08272e-05
5.7268e-05
5.39676e-05
7.17326e-05
6.30747e-05
9.90905e-05
8.44916e-05
0.000109461
0.000107778
0.000107229
0.000108747
0.000102042
0.000104731
0.000104538
9.82734e-05
9.9921e-05
0.000107674
0.000108399
9.61654e-05
9.4909e-05
0.0001026
9.98309e-05
9.77645e-05
0.000104453
0.000102409
0.000106011
0.000105627
9.10767e-05
0.000102096
6.62703e-05
7.69427e-05
5.42007e-05
5.89581e-05
4.96593e-05
5.13937e-05
4.61876e-05
4.80888e-05
3.58206e-05
4.27547e-05
2.50908e-05
2.92052e-05
2.3018e-05
2.21286e-05
2.18774e-05
2.25517e-05
2.375e-05
0.000103347
9.69373e-05
8.9021e-05
8.72244e-05
2.28429e-05
2.24841e-05
2.29841e-05
2.25121e-05
2.49606e-05
2.20632e-05
2.19198e-05
2.26441e-05
2.21239e-05
2.37463e-05
3.1694e-05
2.74996e-05
4.38656e-05
3.77841e-05
4.73833e-05
4.6595e-05
4.67053e-05
4.72981e-05
4.58364e-05
4.6198e-05
4.6312e-05
4.58314e-05
5.03285e-05
4.77108e-05
6.2774e-05
5.51579e-05
8.73949e-05
7.40544e-05
9.80948e-05
9.59428e-05
9.64722e-05
9.77086e-05
9.18582e-05
9.42616e-05
0.000106156
0.000106871
9.38857e-05
0.00010144
9.30325e-05
9.1337e-05
9.39807e-05
9.38727e-05
7.94342e-05
8.98574e-05
5.73777e-05
6.66236e-05
4.73946e-05
5.1109e-05
4.44353e-05
4.53564e-05
4.43e-05
4.41894e-05
4.48077e-05
4.45254e-05
4.28243e-05
4.45264e-05
3.14337e-05
3.84348e-05
2.65684e-05
2.19803e-05
8.99984e-05
8.58455e-05
2.29844e-05
2.29253e-05
2.23292e-05
2.33661e-05
2.31823e-05
2.48256e-05
2.83831e-05
2.31364e-05
2.26082e-05
8.61531e-05
8.43058e-05
9.29421e-05
8.47547e-05
2.28853e-05
2.35162e-05
2.27221e-05
2.34361e-05
2.27667e-05
2.23565e-05
2.31935e-05
2.35153e-05
2.45303e-05
2.99617e-05
2.64962e-05
4.12158e-05
3.49088e-05
4.62073e-05
4.50248e-05
4.5336e-05
4.61634e-05
4.33366e-05
4.43575e-05
4.16146e-05
4.23338e-05
4.06213e-05
4.1012e-05
4.09951e-05
4.05934e-05
4.43977e-05
4.2141e-05
5.51181e-05
4.85431e-05
7.70392e-05
6.50175e-05
8.72659e-05
8.50468e-05
8.71012e-05
8.85614e-05
0.000102075
9.58016e-05
0.000104575
0.000105285
0.000100171
7.92169e-05
8.24441e-05
8.12497e-05
8.27184e-05
8.28829e-05
6.97297e-05
7.89846e-05
5.01272e-05
5.82064e-05
4.15751e-05
4.47318e-05
3.91029e-05
3.9858e-05
3.91256e-05
3.88977e-05
4.02874e-05
3.96283e-05
4.20057e-05
4.11124e-05
4.32608e-05
4.29174e-05
4.03621e-05
4.27706e-05
3.44155e-05
2.2132e-05
2.24399e-05
2.19136e-05
2.19883e-05
2.20741e-05
2.29325e-05
8.22697e-05
7.76355e-05
3.08346e-05
3.71621e-05
2.67497e-05
2.17063e-05
2.28245e-05
2.39534e-05
2.40901e-05
2.37297e-05
2.33397e-05
2.19997e-05
2.85923e-05
2.40054e-05
2.35613e-05
2.55618e-05
2.32332e-05
3.86253e-05
3.2786e-05
4.50078e-05
4.33555e-05
4.45045e-05
4.52616e-05
4.2486e-05
4.3534e-05
4.00489e-05
4.13158e-05
3.80753e-05
3.89397e-05
3.69292e-05
3.74621e-05
3.62419e-05
3.65021e-05
3.6685e-05
3.62697e-05
3.96393e-05
3.7691e-05
4.93003e-05
4.33551e-05
6.91631e-05
5.82775e-05
7.83642e-05
7.63234e-05
7.7578e-05
7.83127e-05
7.60499e-05
8.73999e-05
8.07145e-05
0.000100713
9.47343e-05
0.000102968
0.000103674
9.19685e-05
9.88207e-05
7.64668e-05
8.38544e-05
7.11611e-05
7.37792e-05
7.28454e-05
7.38059e-05
7.40409e-05
6.20866e-05
7.03735e-05
4.46596e-05
5.1963e-05
3.699e-05
3.97994e-05
3.48234e-05
3.55258e-05
3.46997e-05
3.45855e-05
3.55272e-05
3.50432e-05
3.68926e-05
3.60927e-05
3.91103e-05
3.79677e-05
4.10767e-05
4.01271e-05
4.21621e-05
4.20197e-05
4.10428e-05
2.28108e-05
2.41129e-05
2.18987e-05
2.21946e-05
2.17561e-05
2.30919e-05
2.28208e-05
2.41615e-05
2.39656e-05
3.90265e-05
4.0767e-05
3.42431e-05
7.2005e-05
7.19947e-05
7.5586e-05
6.98901e-05
2.45651e-05
2.47202e-05
2.46151e-05
2.23035e-05
2.11009e-05
2.12719e-05
2.2724e-05
2.28749e-05
2.31748e-05
2.43039e-05
2.3909e-05
2.31555e-05
2.36463e-05
2.71626e-05
3.59968e-05
3.09591e-05
4.35314e-05
4.11341e-05
4.36463e-05
4.41494e-05
4.17895e-05
4.27582e-05
3.94272e-05
4.0684e-05
3.72334e-05
3.82846e-05
3.54503e-05
3.62855e-05
3.41296e-05
3.47385e-05
3.33733e-05
3.36971e-05
3.3016e-05
3.31368e-05
3.35577e-05
3.31162e-05
3.65067e-05
3.46172e-05
4.55712e-05
3.99718e-05
6.42122e-05
5.41421e-05
7.0437e-05
7.43776e-05
8.64274e-05
7.95426e-05
9.92906e-05
9.36472e-05
0.000101353
0.000102049
9.09291e-05
9.7421e-05
8.30716e-05
6.76039e-05
6.75122e-05
6.77662e-05
5.72293e-05
6.45766e-05
4.10392e-05
4.79329e-05
3.38728e-05
3.65064e-05
3.16967e-05
3.24466e-05
3.14311e-05
3.14262e-05
3.18921e-05
3.16111e-05
3.27507e-05
3.22347e-05
3.42204e-05
3.34197e-05
3.61887e-05
3.51506e-05
3.84285e-05
3.73315e-05
4.02988e-05
3.93985e-05
4.10392e-05
2.55754e-05
2.88905e-05
2.21467e-05
2.3324e-05
2.13051e-05
2.15607e-05
2.1223e-05
2.28591e-05
2.46421e-05
7.13961e-05
6.68942e-05
3.9371e-05
3.97432e-05
2.27614e-05
2.27609e-05
2.48018e-05
2.52413e-05
2.53817e-05
2.5274e-05
2.15887e-05
2.32252e-05
2.06856e-05
2.41946e-05
0.000222148
2.48838e-05
2.3323e-05
2.58125e-05
3.37278e-05
2.93995e-05
4.17405e-05
3.87704e-05
4.25304e-05
4.26676e-05
4.09567e-05
4.17771e-05
3.88763e-05
4.0011e-05
3.6792e-05
3.77951e-05
3.50713e-05
3.58887e-05
3.36118e-05
3.43166e-05
3.23823e-05
3.29625e-05
3.15416e-05
3.18965e-05
3.1147e-05
3.13218e-05
3.11551e-05
3.10815e-05
3.1966e-05
3.14084e-05
3.5035e-05
3.3073e-05
4.40831e-05
3.85205e-05
6.21207e-05
5.2545e-05
6.84115e-05
6.7405e-05
6.83961e-05
7.31172e-05
7.01182e-05
8.55566e-05
7.86167e-05
9.78363e-05
9.25147e-05
9.97474e-05
0.000100428
8.98334e-05
9.5999e-05
7.48996e-05
8.23249e-05
6.55518e-05
6.89902e-05
6.41281e-05
6.42559e-05
6.43757e-05
5.53748e-05
6.18278e-05
3.94012e-05
4.62932e-05
3.23153e-05
3.49548e-05
2.99912e-05
3.08106e-05
2.94516e-05
2.96017e-05
2.95681e-05
2.9439e-05
3.00356e-05
2.97513e-05
3.09909e-05
3.04653e-05
3.22525e-05
3.15851e-05
3.37759e-05
3.29767e-05
3.56452e-05
3.46644e-05
3.77115e-05
3.67267e-05
3.85717e-05
3.20664e-05
3.90932e-05
3.68861e-05
2.42531e-05
2.74632e-05
2.11055e-05
2.21913e-05
2.02769e-05
2.05982e-05
2.01288e-05
2.00636e-05
2.09104e-05
2.0536e-05
2.19893e-05
2.02679e-05
2.32375e-05
0.000275663
2.26386e-05
2.37119e-05
2.54831e-05
0.000409284
6.25334e-05
6.67632e-05
6.45234e-05
6.34314e-05
2.59451e-05
2.24689e-05
2.61124e-05
2.37902e-05
2.48063e-05
2.59646e-05
2.55344e-05
0.000321439
0.000188162
0.000166101
0.000153534
0.000181497
0.000144179
2.25368e-05
2.29404e-05
0.000184658
2.25211e-05
1.91328e-05
1.90547e-05
2.49975e-05
2.43384e-05
2.22767e-05
0.000226815
2.25618e-05
0.000232808
2.20409e-05
2.19235e-05
0.000280477
2.07583e-05
2.15695e-05
2.17368e-05
2.11463e-05
2.4734e-05
2.28167e-05
3.20621e-05
2.8034e-05
3.98792e-05
3.67027e-05
4.12024e-05
4.10459e-05
3.99893e-05
4.06314e-05
3.82948e-05
3.92324e-05
3.64569e-05
3.73442e-05
3.49262e-05
3.56527e-05
3.36428e-05
3.42608e-05
3.25217e-05
3.30655e-05
3.15527e-05
3.20163e-05
3.08017e-05
3.11421e-05
3.04317e-05
3.05561e-05
3.03972e-05
3.03977e-05
3.07514e-05
3.05009e-05
3.18512e-05
3.11579e-05
3.51659e-05
3.30689e-05
4.4764e-05
3.88338e-05
5.35287e-05
6.7946e-05
7.22081e-05
6.87802e-05
8.47126e-05
7.78594e-05
9.63707e-05
9.13405e-05
9.81623e-05
9.88226e-05
8.87089e-05
9.45762e-05
7.43405e-05
8.15709e-05
6.83563e-05
6.3352e-05
5.61998e-05
6.17477e-05
3.97567e-05
4.70481e-05
3.22752e-05
3.50855e-05
2.9723e-05
3.06539e-05
2.88883e-05
2.91961e-05
2.8645e-05
2.86961e-05
2.87325e-05
2.86566e-05
2.92208e-05
2.8925e-05
3.00259e-05
2.95959e-05
3.10064e-05
3.04969e-05
3.21375e-05
3.15511e-05
3.34923e-05
3.27772e-05
3.51842e-05
3.42963e-05
3.69343e-05
3.61512e-05
3.81814e-05
3.75958e-05
3.73768e-05
3.82633e-05
2.96672e-05
3.46067e-05
2.27479e-05
2.56424e-05
2.01611e-05
2.10911e-05
1.92989e-05
1.96259e-05
1.90469e-05
0.000215444
0.000184442
0.000152245
2.36089e-05
2.54236e-05
0.000252575
2.8881e-05
0.000272916
2.24907e-05
6.76484e-05
6.33979e-05
0.000168993
2.32167e-05
2.49129e-05
2.56559e-05
2.62457e-05
2.30207e-05
0.00014184
2.26818e-05
1.85652e-05
1.83853e-05
1.93279e-05
2.67322e-05
2.44143e-05
2.54857e-05
2.20295e-05
0.000199833
2.68792e-05
4.33771e-05
2.13241e-05
0.000147196
2.67019e-05
2.62332e-05
0.00031283
0.00030341
2.30861e-05
0.000257359
0.000306078
0.000289579
2.41385e-05
2.20797e-05
3.08322e-05
2.69894e-05
3.81493e-05
3.49269e-05
3.99e-05
3.95572e-05
3.90783e-05
3.95215e-05
3.7789e-05
3.852e-05
3.62693e-05
3.70007e-05
3.50069e-05
3.56036e-05
3.39667e-05
3.44657e-05
3.30695e-05
3.35029e-05
3.22967e-05
3.26681e-05
3.16493e-05
3.19578e-05
3.1133e-05
3.1374e-05
3.08101e-05
3.09397e-05
3.07976e-05
3.07576e-05
3.10324e-05
3.08914e-05
3.16699e-05
3.12978e-05
3.29856e-05
3.21843e-05
3.67168e-05
3.43439e-05
4.74217e-05
4.0792e-05
6.50382e-05
5.70621e-05
6.84654e-05
6.69699e-05
6.76147e-05
7.15491e-05
6.78205e-05
8.38603e-05
7.72182e-05
9.49136e-05
9.01457e-05
9.66089e-05
9.72455e-05
8.75805e-05
9.31758e-05
7.38407e-05
8.07939e-05
6.38121e-05
6.78878e-05
6.32441e-05
6.23716e-05
6.50528e-05
5.88539e-05
6.34274e-05
4.20529e-05
4.99738e-05
3.36275e-05
3.68073e-05
3.07315e-05
3.17914e-05
2.96481e-05
3.00891e-05
2.91147e-05
2.93222e-05
2.89062e-05
2.89896e-05
2.89924e-05
2.89039e-05
2.93675e-05
2.91523e-05
2.991e-05
2.96215e-05
3.05815e-05
3.02299e-05
3.13745e-05
3.09624e-05
3.23019e-05
3.18185e-05
3.34337e-05
3.28345e-05
3.48304e-05
3.41065e-05
3.61684e-05
3.55885e-05
3.70246e-05
3.66283e-05
3.56473e-05
3.67969e-05
2.82326e-05
3.26032e-05
2.19565e-05
2.47536e-05
1.94385e-05
2.03673e-05
1.89101e-05
0.000225703
0.000194622
2.07804e-05
0.00016992
0.000162282
2.40721e-05
2.61467e-05
0.000310235
2.46073e-05
2.36879e-05
0.000188604
0.00043715
0.000264239
2.36155e-05
1.91702e-05
1.86269e-05
1.83817e-05
2.70457e-05
2.558e-05
2.63867e-05
0.000290328
2.51098e-05
0.000251681
5.1904e-05
6.20955e-05
6.28598e-05
6.5483e-05
2.62122e-05
0.000162098
2.29714e-05
1.92683e-05
0.000340273
0.000337091
0.00032509
0.000315952
0.000645596
2.75848e-05
0.000630561
0.000874737
0.000262952
0.000190282
0.000402741
0.000306607
2.2176e-05
2.10621e-05
0.000156216
0.000166461
0.00019185
0.00017561
0.000147756
2.7723e-05
2.7002e-05
2.13107e-05
0.000372138
2.75039e-05
0.00106747
0.00113411
0.000750015
2.05101e-05
0.000363733
0.000982898
0.000363129
0.000374003
2.53838e-05
0.000241269
2.36031e-05
0.000200025
3.00788e-05
2.62946e-05
3.68872e-05
3.39568e-05
3.88335e-05
3.83543e-05
3.83931e-05
3.86432e-05
3.75326e-05
3.80433e-05
3.64006e-05
3.69465e-05
3.54524e-05
3.58978e-05
3.46996e-05
3.50568e-05
3.40719e-05
3.43728e-05
3.35451e-05
3.37964e-05
3.31172e-05
3.33196e-05
3.2777e-05
3.2938e-05
3.25039e-05
3.2634e-05
3.22951e-05
3.23902e-05
3.22126e-05
3.22325e-05
3.23707e-05
3.22532e-05
3.2786e-05
3.25371e-05
3.35474e-05
3.31299e-05
3.50403e-05
3.41189e-05
3.94577e-05
3.66437e-05
4.42375e-05
6.96665e-05
6.59683e-05
6.73809e-05
7.10577e-05
6.71903e-05
8.30001e-05
7.6642e-05
9.34817e-05
8.89534e-05
9.50956e-05
9.57052e-05
8.64684e-05
9.18102e-05
7.33563e-05
8.00016e-05
6.34045e-05
6.75331e-05
6.1725e-05
6.33022e-05
4.60061e-05
5.50145e-05
3.61652e-05
3.99292e-05
3.27289e-05
3.39873e-05
3.14732e-05
3.19771e-05
3.07434e-05
3.10866e-05
3.03531e-05
3.05295e-05
3.02161e-05
3.02446e-05
3.02968e-05
3.0235e-05
3.04931e-05
3.03843e-05
3.07653e-05
3.06187e-05
3.11275e-05
3.09337e-05
3.15919e-05
3.13464e-05
3.21551e-05
3.18617e-05
3.28188e-05
3.24722e-05
3.36461e-05
3.32052e-05
3.46714e-05
3.4141e-05
3.56105e-05
3.52246e-05
3.61097e-05
3.58894e-05
3.43773e-05
3.56887e-05
2.77521e-05
3.14868e-05
2.17897e-05
2.43473e-05
2.01277e-05
0.000168616
0.000180581
0.000220755
0.000197626
0.000780511
0.000148146
0.00019795
2.46209e-05
1.97963e-05
1.82963e-05
2.69168e-05
0.000323518
0.000422236
0.000519199
0.000237377
0.000343473
0.000280684
0.000366552
0.000203132
0.000165876
2.5875e-05
2.06926e-05
0.000228477
6.91056e-05
6.74672e-05
2.70121e-05
0.000145173
0.000263484
0.00016668
0.000186983
0.000142812
2.40966e-05
0.000213597
1.83471e-05
0.000267958
0.000149702
0.000140068
0.000146163
0.000391347
2.79317e-05
2.63011e-05
2.72027e-05
0.000760207
0.000310634
0.000539781
0.000446565
0.000489483
0.000365617
0.000294064
0.000396981
0.000262472
0.00033454
0.000237886
0.000145538
0.000151439
0.000386612
0.000145988
0.000248908
2.33633e-05
1.95044e-05
0.000146879
0.0001651
0.000186619
2.85161e-05
0.000979793
0.000595676
0.000739333
0.000627267
2.78646e-05
2.24321e-05
5.26373e-05
2.14244e-05
0.00014316
0.000205116
0.000304164
0.000336188
0.000409944
0.000288626
0.000437836
2.86439e-05
0.00115773
0.00112124
0.000971227
0.000870905
3.42595e-05
0.000217425
2.84017e-05
2.138e-05
0.000430137
0.00112269
0.00115082
0.00106041
0.00087208
2.04861e-05
0.000429401
0.000455493
0.000852586
0.00107738
0.00043958
0.00105972
2.6117e-05
2.67613e-05
5.22615e-05
0.00116245
0.000509741
2.4081e-05
0.000144915
3.56695e-05
3.29748e-05
3.81833e-05
3.74369e-05
3.81778e-05
3.82091e-05
3.78102e-05
3.80591e-05
3.71066e-05
3.74487e-05
3.65137e-05
3.67875e-05
3.60728e-05
3.62777e-05
3.57355e-05
3.58926e-05
3.54797e-05
3.55976e-05
3.52949e-05
3.53791e-05
3.51616e-05
3.52235e-05
3.505e-05
3.51053e-05
3.49291e-05
3.49931e-05
3.47763e-05
3.48579e-05
3.46131e-05
3.4693e-05
3.45084e-05
3.45485e-05
3.46408e-05
3.45263e-05
3.51452e-05
3.48873e-05
3.58384e-05
3.54318e-05
3.76826e-05
3.64882e-05
4.32493e-05
3.97032e-05
5.8096e-05
4.91609e-05
6.83832e-05
6.9807e-05
7.22286e-05
6.54683e-05
6.69046e-05
7.07076e-05
6.68792e-05
8.21375e-05
7.60973e-05
9.20907e-05
8.77828e-05
9.36316e-05
9.42126e-05
8.53829e-05
9.04878e-05
7.28792e-05
7.92116e-05
6.33022e-05
6.72931e-05
6.25535e-05
6.16059e-05
6.94173e-05
6.56745e-05
6.98906e-05
5.18745e-05
6.17399e-05
3.97266e-05
4.44194e-05
3.53492e-05
3.69915e-05
3.38594e-05
3.44183e-05
3.31738e-05
3.34862e-05
3.2632e-05
3.28853e-05
3.24888e-05
3.25197e-05
3.25247e-05
3.2496e-05
3.26045e-05
3.25614e-05
3.26763e-05
3.26418e-05
3.27425e-05
3.27079e-05
3.28342e-05
3.27831e-05
3.29803e-05
3.28984e-05
3.31928e-05
3.30781e-05
3.34618e-05
3.33204e-05
3.38105e-05
3.36229e-05
3.43061e-05
3.40352e-05
3.49632e-05
3.4622e-05
3.55418e-05
3.53317e-05
3.56992e-05
3.56487e-05
3.41234e-05
3.5321e-05
2.81785e-05
3.16333e-05
2.22537e-05
2.46991e-05
2.07e-05
2.79299e-05
0.000299807
0.000192874
0.000141945
0.000240824
0.000152811
0.000218554
0.00018998
0.000162269
0.000173804
0.00014712
0.000153518
0.000141441
0.000143217
0.000141271
2.52332e-05
1.81309e-05
5.28056e-05
0.000446798
2.77888e-05
0.000646335
0.000369615
0.000320737
0.00041902
0.000150182
0.000139232
2.36787e-05
0.000205994
0.000186659
0.000180951
0.000160276
0.000139736
0.000140322
4.96377e-05
0.00014363
0.000154993
0.000167885
0.000269075
0.000222001
0.00014544
0.000208361
0.000153526
0.000163702
0.000145875
2.46437e-05
1.84775e-05
0.000148114
0.000158452
0.000221456
0.000472657
2.88897e-05
2.70849e-05
2.80769e-05
0.000879037
0.000398727
0.000664359
0.00056437
0.00052476
2.88075e-05
0.000232316
4.87492e-05
5.61076e-05
7.07654e-05
7.55274e-05
0.000154976
0.000201048
2.38055e-05
0.000154097
1.97673e-05
0.000165347
0.000189889
0.000250785
0.000239098
0.000506852
2.95157e-05
0.00105953
0.000765998
0.000170378
2.93586e-05
0.000163193
2.27288e-05
2.1782e-05
0.000223826
0.000501408
2.96269e-05
0.00114483
0.000980188
0.000739943
2.15035e-05
0.000500893
0.000333409
0.000711242
0.00111633
0.000988038
2.03954e-05
0.000506643
0.000961632
2.68956e-05
2.76719e-05
0.000533559
0.00112935
2.89292e-05
0.000215427
0.00117233
0.000591122
0.000173221
2.46066e-05
0.000578437
0.000593607
0.000275571
0.000661662
2.22375e-05
2.84189e-05
3.52315e-05
3.15886e-05
3.83133e-05
3.73555e-05
3.8711e-05
3.85708e-05
3.88441e-05
3.88222e-05
3.86674e-05
3.87568e-05
3.84725e-05
3.856e-05
3.83705e-05
3.84107e-05
3.83423e-05
3.83484e-05
3.83741e-05
3.83519e-05
3.84454e-05
3.84058e-05
3.85243e-05
3.84858e-05
3.85667e-05
3.85521e-05
3.85306e-05
3.85596e-05
3.83858e-05
3.84718e-05
3.81148e-05
3.82645e-05
3.77367e-05
3.79342e-05
3.72996e-05
3.75267e-05
3.69186e-05
3.70879e-05
3.70332e-05
3.69373e-05
3.7304e-05
3.71592e-05
3.81839e-05
3.76158e-05
4.09976e-05
3.9204e-05
4.40388e-05
7.57931e-05
7.00252e-05
7.38888e-05
6.55556e-05
6.67735e-05
7.04954e-05
6.69069e-05
8.13021e-05
7.5598e-05
9.07548e-05
8.66538e-05
9.22249e-05
9.2779e-05
8.43377e-05
8.92169e-05
7.2453e-05
7.84571e-05
6.34873e-05
6.71938e-05
6.27853e-05
6.18399e-05
6.59905e-05
6.09728e-05
4.49893e-05
5.09615e-05
3.86314e-05
4.10784e-05
3.63545e-05
3.71968e-05
3.55888e-05
3.5878e-05
3.52441e-05
3.5414e-05
3.50908e-05
3.50793e-05
3.53681e-05
3.52206e-05
3.56412e-05
3.55121e-05
3.58565e-05
3.57619e-05
3.59645e-05
3.59256e-05
3.59704e-05
3.59796e-05
3.59027e-05
3.59444e-05
3.57949e-05
3.58529e-05
3.56804e-05
3.5737e-05
3.55796e-05
3.56268e-05
3.55196e-05
3.55389e-05
3.55608e-05
3.55273e-05
3.57314e-05
3.56316e-05
3.59778e-05
3.58511e-05
3.61944e-05
3.61484e-05
3.60711e-05
3.61585e-05
3.45997e-05
3.57296e-05
2.96644e-05
3.25912e-05
2.44693e-05
2.67308e-05
2.26733e-05
0.000323312
0.000477583
0.000395176
0.000651035
0.000565059
0.000738965
0.000801308
0.000730644
0.000573749
0.00064738
0.000477337
0.000562913
0.000396281
0.000163505
0.000172615
0.000173338
0.000149243
0.000156147
0.000141406
0.00014451
0.000140122
0.000143446
0.000141207
2.40258e-05
0.000189252
0.000147617
0.000180979
0.000203866
0.000265931
0.000230078
0.00016997
0.000184475
0.000151779
0.000159712
0.000143827
0.000146125
0.000142197
0.000142328
0.000143335
2.5906e-05
1.81444e-05
0.000152638
2.02122e-05
0.000194714
0.000529077
2.87247e-05
0.000771286
0.000475428
0.000358434
0.000433126
0.000478238
2.98314e-05
2.98222e-05
0.000147418
2.49356e-05
0.000175801
6.909e-05
7.49218e-05
3.7612e-05
5.59556e-05
0.000182832
0.000200826
0.000169845
0.000369416
0.000150218
0.000149251
0.000154566
0.000205405
0.000180374
0.000152316
0.000177742
0.000151999
0.000155732
0.000150983
2.52322e-05
1.87422e-05
1.86687e-05
0.000167387
0.000180126
2.58947e-05
2.12274e-05
0.000200044
0.000260772
0.000675698
0.000558143
3.43132e-05
3.48019e-05
2.99234e-05
2.79151e-05
2.9013e-05
0.000978999
4.8295e-05
5.67501e-05
5.17304e-05
0.000499162
0.00078476
0.000684218
0.000662681
4.07536e-05
0.000285387
0.000232041
0.000147035
3.0389e-05
0.000158882
2.06582e-05
0.000385458
0.00031514
0.000169305
0.000177764
2.42823e-05
2.00641e-05
0.000204179
0.000225541
0.000211066
0.000862066
0.00080804
0.000572048
3.0587e-05
0.00111043
0.000888924
3.46227e-05
0.000597878
3.06798e-05
2.30441e-05
6.78048e-05
7.88039e-05
2.21371e-05
7.00391e-05
7.60512e-05
0.000308533
0.000504217
0.000574939
0.000242603
0.000560384
0.00114032
0.00105967
0.000868982
2.16185e-05
8.84118e-05
8.72956e-05
0.000726169
0.000656224
0.000579026
0.000831599
2.77946e-05
2.85966e-05
5.69827e-05
6.67846e-05
7.17398e-05
8.29745e-05
8.53361e-05
9.53014e-05
9.2206e-05
9.74136e-05
0.000594543
0.00105888
2.99803e-05
0.000262627
0.00114873
0.000637007
0.00117496
3.09404e-05
0.000141962
0.000682929
0.000169757
2.52806e-05
2.84476e-05
2.40619e-05
3.26762e-05
3.80082e-05
3.55246e-05
4.02526e-05
3.9597e-05
4.09223e-05
4.06355e-05
4.12147e-05
4.11259e-05
4.1538e-05
4.13736e-05
4.18194e-05
4.16791e-05
4.20827e-05
4.19496e-05
4.23834e-05
4.22291e-05
4.27021e-05
4.25404e-05
4.30179e-05
4.28642e-05
4.32769e-05
4.31586e-05
4.34193e-05
4.3367e-05
4.33884e-05
4.34289e-05
4.31488e-05
4.32963e-05
4.26893e-05
4.29471e-05
4.20232e-05
4.23798e-05
4.11895e-05
4.16265e-05
4.0266e-05
4.07418e-05
3.93523e-05
3.98028e-05
3.89643e-05
3.90634e-05
3.88186e-05
3.88903e-05
3.91516e-05
3.88932e-05
4.12659e-05
3.98968e-05
4.63721e-05
4.3429e-05
5.96764e-05
5.08892e-05
7.52286e-05
8.098e-05
8.21882e-05
7.04093e-05
7.54693e-05
6.57953e-05
6.70215e-05
7.04333e-05
6.71019e-05
8.05211e-05
7.51774e-05
8.94822e-05
8.55813e-05
9.08807e-05
9.14112e-05
8.33501e-05
8.80047e-05
7.21262e-05
7.77692e-05
6.37006e-05
6.72227e-05
6.31005e-05
6.21296e-05
7.22344e-05
6.64973e-05
8.34268e-05
7.87742e-05
8.10502e-05
5.39555e-05
6.59748e-05
4.38474e-05
4.75427e-05
3.94151e-05
4.12612e-05
3.77199e-05
3.82967e-05
3.74235e-05
3.75054e-05
3.74425e-05
3.74342e-05
3.78179e-05
3.75329e-05
3.85643e-05
3.81889e-05
3.92689e-05
3.89249e-05
3.98526e-05
3.95791e-05
4.02603e-05
4.00805e-05
4.04647e-05
4.03879e-05
4.04683e-05
4.04905e-05
4.02939e-05
4.04005e-05
3.99809e-05
4.01539e-05
3.95744e-05
3.97857e-05
3.91494e-05
3.93556e-05
3.88131e-05
3.897e-05
3.85844e-05
3.86929e-05
3.8391e-05
3.84859e-05
3.81843e-05
3.83028e-05
3.80034e-05
3.80882e-05
3.76747e-05
3.78536e-05
3.69286e-05
3.74904e-05
3.28862e-05
3.53582e-05
2.98513e-05
0.000556043
0.000467879
0.000726653
0.000644265
0.00086119
0.000799246
0.0009131
0.000954065
0.000912461
0.000796631
0.000857602
0.000723932
0.000795969
0.000555634
0.000642796
0.000468179
0.000260747
0.000225782
0.000153831
0.000160503
0.000145232
0.000149
0.000142347
0.000143185
0.000142717
0.000142203
0.000144039
0.000273304
0.000147593
0.000164148
0.000151089
0.000163577
0.000181219
0.000223957
0.000199021
0.00015894
0.000168322
0.000147375
0.000152119
0.000144651
0.00014546
0.000145625
0.00014464
0.000147658
2.66184e-05
1.82287e-05
0.000172722
2.04146e-05
1.99338e-05
0.000226001
0.000613788
3.17861e-05
3.25781e-05
2.97366e-05
6.16183e-05
0.000885397
4.36097e-05
4.71878e-05
0.000587864
0.00056472
4.41285e-05
3.07136e-05
0.00015695
0.000175554
2.45181e-05
4.14759e-05
4.39613e-05
3.14964e-05
0.000161318
3.97531e-05
0.000278186
0.000166943
0.000163677
2.07876e-05
3.89931e-05
5.04597e-05
0.000260234
0.000310214
0.000181608
0.000246239
0.000156187
0.000175684
0.000165545
0.000165547
0.000166824
0.000160193
0.000159719
2.58535e-05
1.87927e-05
1.89178e-05
0.000204192
0.000215026
2.05925e-05
0.00024064
0.000315024
0.000751344
0.000634
3.63325e-05
3.10449e-05
2.87838e-05
3.00078e-05
7.53071e-05
5.67197e-05
0.000140441
0.00105391
6.11996e-05
0.000598117
0.000889327
0.000794205
0.000793131
4.13382e-05
3.59102e-05
0.000458036
4.17856e-05
3.18048e-05
8.64974e-05
5.71681e-05
6.85007e-05
8.40109e-05
8.49434e-05
0.00022187
0.000256735
0.00019632
0.000190646
0.000174149
2.47728e-05
2.03787e-05
5.31515e-05
0.000140716
6.27585e-05
0.000279274
0.000209037
3.01959e-05
2.29417e-05
0.000440475
0.000868293
0.000645208
0.000192259
0.000416084
3.17346e-05
8.50454e-05
0.00113448
7.82083e-05
0.000424199
0.000985564
3.16571e-05
0.000726315
3.66622e-05
3.36611e-05
2.76561e-05
2.33666e-05
2.25268e-05
8.26953e-05
0.000588036
0.000987347
0.000955435
0.000651649
0.000680072
0.000180913
0.00110981
9.51462e-05
2.88892e-05
2.95612e-05
2.17994e-05
3.18603e-05
9.94992e-05
0.000733842
0.000663833
0.000949508
0.000104291
3.10833e-05
0.000319927
0.00108919
0.000908967
0.000857635
0.000689939
0.0011363
3.21156e-05
0.00118813
7.01152e-05
0.000730685
3.26853e-05
0.000291996
0.000164764
5.85482e-05
4.66499e-05
5.52425e-05
2.84018e-05
4.05872e-05
4.33101e-05
4.2125e-05
4.43014e-05
4.40142e-05
4.51362e-05
4.46452e-05
4.59487e-05
4.55985e-05
4.6543e-05
4.62763e-05
4.71183e-05
4.6814e-05
4.77491e-05
4.7428e-05
4.83685e-05
4.80582e-05
4.89699e-05
4.86742e-05
4.94874e-05
4.92418e-05
4.9854e-05
4.9695e-05
4.9983e-05
4.99528e-05
4.98081e-05
4.99361e-05
4.92933e-05
4.95934e-05
4.84463e-05
4.89087e-05
4.73022e-05
4.79038e-05
4.59241e-05
4.66339e-05
4.44084e-05
4.51746e-05
4.28692e-05
4.36333e-05
4.14439e-05
4.21261e-05
4.06452e-05
4.09201e-05
4.02338e-05
4.04104e-05
4.04246e-05
4.0216e-05
4.24017e-05
4.11061e-05
4.73429e-05
4.45458e-05
5.09386e-05
8.56544e-05
8.34544e-05
8.74486e-05
7.10456e-05
7.71459e-05
6.61156e-05
6.73911e-05
7.05394e-05
6.73382e-05
7.98468e-05
7.48949e-05
8.8282e-05
8.45933e-05
8.96047e-05
9.01112e-05
8.24548e-05
8.68671e-05
7.1934e-05
7.72022e-05
6.39746e-05
6.73651e-05
6.36028e-05
6.25474e-05
7.35294e-05
6.729e-05
7.94379e-05
7.64862e-05
5.31544e-05
6.18949e-05
4.52805e-05
4.84262e-05
4.09187e-05
4.26845e-05
3.93432e-05
3.98219e-05
3.92113e-05
3.91641e-05
3.95176e-05
3.93242e-05
4.03264e-05
3.98e-05
4.15914e-05
4.09304e-05
4.2898e-05
4.22371e-05
4.41271e-05
4.35226e-05
4.51674e-05
4.46727e-05
4.59426e-05
4.55899e-05
4.64028e-05
4.62137e-05
4.65293e-05
4.65096e-05
4.63318e-05
4.64707e-05
4.58565e-05
4.6125e-05
4.52106e-05
4.55432e-05
4.45747e-05
4.48799e-05
4.40371e-05
4.43003e-05
4.35112e-05
4.37754e-05
4.29123e-05
4.32256e-05
4.22821e-05
4.2599e-05
4.17401e-05
4.19822e-05
4.12502e-05
4.14965e-05
4.04427e-05
4.10179e-05
3.89934e-05
0.000314222
0.000464954
0.000382539
0.000644417
0.000554593
0.00080329
0.000728548
0.000917848
0.000866404
0.000991189
0.000958954
0.00101344
0.00103579
0.00101631
0.000950817
0.00098946
0.000915574
0.000956875
0.000801393
0.00086409
0.000643284
0.00072732
0.000464119
0.000553893
0.000380695
0.000198178
0.000151217
0.000155423
0.000146937
0.000148241
0.000146632
0.000146537
0.000148099
0.000147152
0.0001528
0.00014959
0.000158686
0.000157632
0.000159704
0.000162327
0.000161515
0.000197104
0.000265643
0.000221952
0.000168789
0.000180508
0.000154254
0.000160472
0.000148882
0.00015031
0.000148758
0.00014844
0.000151294
0.00014966
0.000157465
0.00015377
3.84794e-05
2.73649e-05
1.84219e-05
0.000208716
2.05248e-05
1.98423e-05
0.00027195
0.000692877
3.39562e-05
3.08236e-05
6.56559e-05
3.89526e-05
3.74648e-05
0.000978895
5.59439e-05
0.00069802
0.000696327
3.82365e-05
0.000364858
0.000328328
3.30153e-05
7.91951e-05
0.000159484
2.63551e-05
0.000542434
0.000587301
0.000179151
0.00022113
8.13817e-05
8.316e-05
0.000380082
0.000308993
0.000172295
0.000181646
0.000176509
0.000177582
0.000175558
0.000186101
0.000172158
0.000177408
0.000174525
0.000187809
0.00017777
2.64905e-05
1.89319e-05
1.92118e-05
0.000162148
0.000134864
0.00012812
0.000124265
0.000268177
0.000271201
2.02895e-05
0.00038396
0.000819047
0.000708275
0.000182209
0.000296386
3.22428e-05
2.96996e-05
3.10798e-05
7.68915e-05
0.000408778
4.16765e-05
4.20668e-05
5.99975e-05
5.2005e-05
0.00110213
0.000211494
7.16643e-05
0.000888929
0.000575055
0.000899721
0.00024062
3.21686e-05
0.000568431
4.71059e-05
4.57576e-05
3.03045e-05
0.00021552
0.000181154
0.000213858
3.55996e-05
0.000235369
2.52753e-05
2.07376e-05
3.89921e-05
3.69684e-05
4.4386e-05
7.53415e-05
4.75519e-05
0.000386853
0.000148391
2.22737e-05
0.000523567
0.000919693
0.000719368
0.000107651
0.000743262
0.000520092
0.000184876
3.29635e-05
8.22445e-05
0.00101466
0.00102504
0.00104352
0.00113145
0.000138976
0.000145899
0.000205588
9.15675e-05
0.000531939
0.000444319
0.000292351
3.06013e-05
0.0010573
2.37252e-05
3.61645e-05
3.42822e-05
2.93614e-05
2.29349e-05
9.73445e-05
5.21771e-05
4.97111e-05
3.88771e-05
2.72335e-05
0.000670895
0.0009897
0.000731888
0.00108299
0.00107182
0.00107438
0.000484618
0.00080646
0.000217209
0.00025101
0.000107741
0.00106937
3.2232e-05
0.000401009
2.62243e-05
0.000176313
2.20356e-05
0.000122947
4.31029e-05
0.000526971
0.000110792
0.000993167
0.000803659
0.0010503
0.00103369
0.000751688
0.0010607
0.000481948
0.0010558
3.33553e-05
0.00116458
6.0533e-05
0.0009092
0.00078267
0.00118757
3.39442e-05
3.43082e-05
7.15298e-05
0.000984331
0.000819054
0.000203603
0.000130509
5.46447e-05
4.51627e-05
4.77496e-05
3.66987e-05
3.9352e-05
4.21815e-05
3.75324e-05
5.13277e-05
5.19366e-05
5.1613e-05
5.20486e-05
5.20333e-05
5.24836e-05
5.21832e-05
5.36806e-05
5.29911e-05
5.49763e-05
5.44203e-05
5.56183e-05
5.53143e-05
5.62699e-05
5.59092e-05
5.70585e-05
5.66539e-05
5.78406e-05
5.7462e-05
5.84764e-05
5.8186e-05
5.88136e-05
5.86895e-05
5.87371e-05
5.8833e-05
5.81686e-05
5.85178e-05
5.7091e-05
5.76939e-05
5.55466e-05
5.63743e-05
5.36244e-05
5.4626e-05
5.14357e-05
5.25515e-05
4.91198e-05
5.02811e-05
4.68197e-05
4.79535e-05
4.46863e-05
4.57166e-05
4.29148e-05
4.37257e-05
4.19648e-05
4.23036e-05
4.15921e-05
4.16981e-05
4.21585e-05
4.1689e-05
4.48035e-05
4.31541e-05
4.99709e-05