/*--------------------------------*- C++ -*----------------------------------*\
| =========                 |                                                 |
| \\      /  F ield         | OpenFOAM: The Open Source CFD Toolbox           |
|  \\    /   O peration     | Version:  2212                                  |
|   \\  /    A nd           | Website:  www.openfoam.com                      |
|    \\/     M anipulation  |                                                 |
\*---------------------------------------------------------------------------*/
FoamFile
{
    version     2.0;
    format      ascii;
    arch        "LSB;label=32;scalar=64";
    class       surfaceScalarField;
    location    "0.066";
    object      phi;
}
// * * * * * * * * * * * * * * * * * * * * * * * * * * * * * * * * * * * * * //

dimensions      [1 0 -1 0 0 0 0];

oriented        oriented;

internalField   nonuniform List<scalar> 
14149
(
0.000503112
-0.000389191
1.52451e-05
-0.000129166
-0.000131219
0.000130947
-0.000134706
0.000134977
0.000122311
-0.000126592
-0.000126938
0.00012624
-0.000114361
0.000107008
-0.000118886
-0.000132963
0.000140045
0.000123866
0.000115587
0.000120117
0.000138557
-0.00013203
-0.000126644
-0.00013708
0.000144378
-0.000127414
0.000120116
0.000130101
-0.000113045
0.000104903
-0.000121959
0.000113138
6.81249e-05
0.000486043
-9.87166e-05
-0.000455451
-3.13088e-05
0.00018507
5.7257e-05
-0.000211019
0.000972353
-0.000205695
0.000115303
-0.000881961
0.000398347
-0.000394256
-0.000680055
0.000675964
0.000379037
-0.000774828
-0.000337355
0.000733146
-0.000186136
-0.000170377
0.000205229
0.000151285
2.68911e-05
-0.00133181
0.0012109
9.40276e-05
-0.000441185
-0.000436094
0.000517361
0.000359919
-0.0013923
0.00129027
0.000128919
0.000357469
-0.000348027
0.000384296
-0.000393738
0.000133997
-0.0012739
-0.000137497
0.0012774
0.000721973
-0.000151774
-0.000675064
0.000104865
-4.15541e-05
-8.16276e-05
6.9562e-05
5.36198e-05
-0.000396693
0.000293061
-0.000373886
0.000477518
0.000279684
3.58993e-05
-0.000264257
-5.13266e-05
0.00040952
3.85683e-05
-0.000401272
-4.68182e-05
0.000283947
-0.000154764
0.000136397
-0.00026558
-0.000426677
0.000415566
-0.000515525
0.000526635
0.000149155
0.00125717
-0.00127233
0.00107395
-0.00111834
5.29756e-05
-8.59168e-06
-0.000170241
-0.000163785
0.000179949
0.000154077
0.00108869
0.000101693
-0.000143172
-0.00104722
-0.00014343
0.000120266
0.000169503
-0.000146338
6.67446e-05
0.0010887
-8.14951e-05
-0.000196758
-5.53129e-06
0.000278666
-7.63772e-05
9.90581e-05
-0.000354921
-0.000112684
0.000368547
0.000126219
-0.000121777
0.000126433
-0.000130875
0.000540215
6.64511e-05
-0.000538541
0.000495777
-0.000101861
9.21268e-05
-0.000791314
8.31823e-07
0.00078988
6.05617e-07
7.87502e-07
-0.000792665
5.65839e-07
0.000791028
-0.00079181
1.57234e-06
0.000789763
2.09976e-06
5.12546e-05
0.000359331
-6.91156e-05
-0.00034147
-4.60111e-05
-0.000371527
5.36029e-05
0.000363935
0.000331442
-0.000368673
-8.78e-06
0.000337487
1.64208e-05
-2.24652e-05
0.000356289
3.24524e-05
-0.000794926
6.22777e-07
1.64066e-06
2.19776e-07
-0.000798794
3.65023e-06
0.000793209
-0.000796117
3.12927e-06
2.02471e-06
-0.00080525
-5.08477e-07
6.96528e-06
-1.09798e-06
-0.000814958
1.08076e-05
0.000801939
-0.00081161
8.57457e-06
5.31571e-06
-0.000825859
-1.68688e-06
1.25887e-05
-2.46697e-06
-0.00083116
7.76949e-06
0.000824234
-0.00083777
1.10701e-05
1.09382e-05
-0.000827239
-1.81112e-06
-2.1075e-06
3.47927e-06
-0.000808341
-2.2376e-05
0.000842722
-0.000828879
-1.03629e-05
3.14219e-06
-0.000761679
4.78126e-06
-5.14413e-05
1.07103e-05
-0.000701973
-7.0414e-05
0.000793071
-0.000728225
-5.41337e-05
-3.10244e-05
-0.000632862
1.62071e-05
-8.53157e-05
1.51469e-05
-0.000557246
-9.07614e-05
0.000639135
-0.000549902
-7.40842e-05
-7.28797e-05
-0.000481081
1.15371e-05
-8.77005e-05
7.46155e-06
-0.000429502
-5.9039e-05
0.000471545
-0.00042151
-4.2572e-05
-6.68184e-05
-0.000397734
4.41096e-06
-3.61785e-05
3.10293e-07
-0.000379286
-1.87575e-05
0.000392055
-0.000375901
-1.58433e-05
-2.50437e-05
-0.000370956
-1.86385e-06
-6.46556e-06
-8.48367e-06
-0.000364197
1.72451e-06
0.000366602
-0.000363121
-1.19643e-05
-1.1162e-05
0.000361615
1.94165e-05
-2.47426e-05
1.72801e-05
-1.87859e-05
-0.000358549
1.1632e-05
-0.000357131
1.79984e-05
-0.000346804
2.21257e-05
0.000365415
-3.0826e-05
7.44022e-07
1.51821e-06
0.000787621
2.92058e-06
0.00078759
0.000792081
-0.000796528
6.02251e-06
0.000788732
5.45156e-06
-1.86137e-05
-0.000379643
2.67303e-05
-8.44738e-06
-0.00037884
-0.00034688
1.64968e-05
-0.000363837
8.17697e-06
0.00037056
-0.000362245
3.31748e-06
-0.000382487
0.00040179
-2.57681e-05
-1.02021e-05
-0.000434241
0.000481023
-8.29586e-05
-5.12083e-05
-0.000528722
0.000559963
-0.00011894
-0.000106737
-0.000587874
0.000616384
-0.000113824
-0.000118672
-0.000651079
0.000693544
-9.39043e-05
-0.000105108
-0.000744977
0.000793333
-5.04612e-05
-7.38068e-05
-0.000821579
0.000832383
1.78631e-06
-2.04737e-05
-0.000831918
0.000822086
1.67984e-05
1.1275e-05
-0.000810899
0.000801674
1.0867e-05
1.48399e-05
-0.000794917
0.000790036
5.4898e-06
7.32507e-06
0.000802682
-0.000811672
1.21212e-05
8.18058e-06
0.000822043
-0.000829916
1.64493e-05
1.56885e-05
0.000826633
-0.000812224
-3.33787e-06
7.65729e-06
0.000777216
-0.00072867
-5.8906e-05
-3.18635e-05
0.000678327
-0.000634088
-9.83717e-05
-8.1366e-05
0.00059843
-0.000560747
-0.000111766
-0.000108536
0.000516241
-0.000459734
-9.90776e-05
-0.000111324
0.000416833
-0.000389506
-4.31694e-05
-6.79437e-05
0.000374363
-0.0003671
-1.92271e-05
-2.63045e-05
-2.0471e-05
-0.000357661
1.34141e-05
0.000786406
5.15164e-06
5.47414e-06
0.000786182
0.000374326
-0.000420998
-2.24439e-05
0.000373172
-2.96711e-05
2.03787e-05
-1.34067e-05
-0.000386615
7.37967e-06
-0.000379664
-0.000353423
1.78877e-05
-0.000355367
1.84409e-05
-0.00036166
0.000367499
1.20481e-05
-0.000385364
1.79689e-05
-0.000363368
1.61788e-05
-0.00036153
1.83118e-05
-0.000378945
0.000395052
-1.2789e-05
1.96866e-06
-0.000419524
0.000456685
-6.29279e-05
-3.4674e-05
-0.000500465
0.000532851
-0.000115344
-9.4987e-05
-0.000551085
0.000561741
-0.000129596
-0.00012497
-0.000570911
0.000581046
-0.000123958
-0.000127841
-0.000594556
0.000612851
-0.000112198
-0.000118617
-0.000642638
0.000684845
-9.26669e-05
-0.000103593
-0.000738078
0.000789807
-4.99392e-05
-7.37041e-05
-0.00082158
0.000834329
4.05212e-06
-2.04949e-05
-0.000834268
0.000822946
2.21915e-05
1.49028e-05
-0.000809584
0.000798459
1.66178e-05
2.06899e-05
5.32215e-06
-2.41673e-06
0.000783504
-0.000790698
0.000784982
1.10428e-05
1.29152e-05
-6.27423e-07
3.66315e-06
0.000784558
0.000784581
0.000787924
-0.000793789
1.1343e-05
-6.19171e-06
1.07577e-05
0.000783363
0.000783657
0.000801732
-0.000813098
1.73908e-05
1.33974e-05
0.00082611
-0.000835005
2.10185e-05
2.11957e-05
0.00083015
-0.000813068
-6.30527e-07
1.08353e-05
0.000773428
-0.000718838
-5.79243e-05
-3.19802e-05
0.000669647
-0.000632088
-9.64633e-05
-8.1053e-05
0.00060645
-0.000589255
-0.000115566
-0.000107003
0.000575974
-0.000562287
-0.000125452
-0.000121816
0.000546238
-0.000522008
-0.000123307
-0.000127372
0.000479461
-0.000433585
-8.90447e-05
-0.00011049
0.000400576
-0.000381796
-3.80066e-05
-5.93129e-05
-2.90949e-05
0.000384069
-0.000387512
2.38215e-05
2.54357e-05
0.000396461
-0.000405009
-1.38951e-05
0.000402058
-3.52684e-05
6.01059e-06
-3.11262e-06
0.000780611
1.06401e-05
0.000780357
0.000796432
-0.000808806
2.37206e-05
0.000787936
1.92593e-05
-5.97733e-06
-0.000386269
-2.07663e-05
2.40653e-05
-0.000390811
-1.62136e-05
-0.000391168
2.04458e-05
-0.000376434
-0.00037831
0.000392209
-1.85044e-06
0.000393144
-0.000394931
2.58522e-05
0.000393419
2.35467e-05
2.09079e-05
-0.000366259
-0.000397176
1.01359e-05
-0.000372319
1.23208e-05
-0.000413027
0.000445334
-4.50953e-05
-1.88489e-05
-0.000485366
0.000524412
-0.000101973
-7.47048e-05
-0.000546217
0.000556344
-0.000125471
-0.000116792
-0.000561802
0.000564063
-0.000131857
-0.000130427
-0.000566535
0.000569378
-0.000126801
-0.000130313
-0.000573864
0.000580699
-0.000119032
-0.000123102
-0.000592062
0.000609097
-0.0001097
-0.000114956
-0.000637121
0.000678397
-9.12132e-05
-0.000101727
-0.000730463
0.000782242
-4.77237e-05
-7.25575e-05
-0.000814849
0.000828947
8.0968e-06
-1.77006e-05
-0.000829654
0.00081804
2.82351e-05
1.99861e-05
-0.000803852
0.000792008
2.28909e-05
2.7108e-05
-4.79593e-07
4.1213e-06
0.000780921
0.000780993
-7.05394e-06
1.0596e-05
0.000779826
0.00078073
0.000822926
-0.000830631
2.50995e-05
2.75211e-05
0.000825776
-0.000807179
2.424e-06
1.63448e-05
0.000767077
-0.000711527
-5.61783e-05
-2.92633e-05
0.000663471
-0.000626826
-9.4568e-05
-8.00333e-05
0.00060362
-0.000588768
-0.000111314
-0.000104258
0.000579438
-0.000573731
-0.000121272
-0.000116333
0.000569281
-0.000564915
-0.000129818
-0.000126265
0.000560938
-0.000553581
-0.000130663
-0.000131349
0.00053792
-0.000507385
-0.000119579
-0.00012615
0.000462604
-0.00042439
-7.62194e-05
-0.000104093
-5.14263e-05
2.16788e-05
1.88858e-05
0.000783767
0.000781525
1.70114e-05
7.05243e-06
-0.000392693
2.44018e-05
-2.35946e-05
-0.000391618
-0.000393796
2.32675e-05
-1.10845e-05
-0.000391398
1.998e-05
-0.000371391
0.000434559
-0.000421257
-2.7197e-05
0.000459117
-5.98257e-05
-0.000408482
-2.63838e-06
2.41107e-05
-0.000369924
0.000809276
-0.000820877
3.44977e-05
0.00079496
3.32074e-05
1.09735e-05
-7.80297e-06
0.000776661
1.60837e-05
0.000776421
4.59087e-05
-0.000415291
-2.35113e-05
-0.000391251
-2.3257e-05
-0.000389788
1.92486e-05
-2.70812e-05
-0.000387794
0.000377285
-2.60718e-05
-0.000378464
2.7251e-05
-1.52836e-05
0.00039897
-6.4011e-06
-0.00038355
-2.15216e-05
-1.64673e-05
-0.00038731
0.000395937
9.92752e-06
-0.000385885
-0.000414186
0.000440435
-2.80989e-05
-5.92778e-06
-0.000477769
0.000519175
-8.65005e-05
-5.61819e-05
-0.00054882
0.000562761
-0.000115914
-0.000104349
-0.000568563
0.000571425
-0.000128332
-0.000122593
-0.000570603
0.000567772
-0.000129025
-0.000129605
-0.000565397
0.000564623
-0.000126026
-0.000127938
-0.000566007
0.000568771
-0.000121795
-0.000124485
-0.000573616
0.000579828
-0.000115911
-0.0001198
-0.000589957
0.000605994
-0.000107249
-0.000111854
-0.000632268
0.000671417
-8.68706e-05
-9.88296e-05
-0.000721894
0.000773124
-4.31296e-05
-6.8174e-05
-0.000805535
0.000820115
1.3661e-05
-1.24208e-05
2.63525e-05
-1.05882e-05
1.68405e-05
0.000777521
6.83035e-06
-3.55635e-06
0.000777343
0.000776605
-3.66545e-07
4.34195e-06
0.000776951
0.000777076
0.000777274
-0.000802503
0.000789414
3.01056e-05
0.00081748
-0.000824454
3.07009e-05
3.42421e-05
0.000819247
-0.000799757
5.61523e-06
2.23203e-05
0.000759601
-0.000704926
-5.2248e-05
-2.3807e-05
0.000658079
-0.000623017
-9.1239e-05
-7.6107e-05
0.000601191
-0.000587325
-0.000108433
-0.000101858
0.000578901
-0.000573489
-0.000116725
-0.00011268
0.000568617
-0.000567019
-0.00012287
-0.000121204
0.000567797
-0.000569474
-0.00012814
-0.000125487
0.000570995
-0.000570194
-0.000131463
-0.000129827
0.000566438
-0.000557654
-0.000128363
-0.000129906
0.000538499
-0.000500271
-0.000114446
-0.000123247
-9.25795e-05
0.000402378
-0.000400464
2.16336e-05
1.55742e-05
0.000401621
-0.000402533
2.41794e-05
2.70094e-05
1.56853e-05
2.51424e-05
-0.000372423
2.87214e-05
0.000783086
0.000780218
2.52863e-05
0.000499508
-0.000465653
-6.10518e-05
0.000539233
-9.95498e-05
-0.000441287
-2.70039e-05
0.000406748
-1.97453e-05
-0.000393403
2.50865e-05
-0.000349102
-1.89111e-05
-0.000395998
-3.49687e-05
-0.000383364
-2.55732e-05
-0.000384048
-6.08347e-05
-0.000370923
-7.18647e-05
-0.000399603
0.000105316
0.000366152
-0.000420582
0.000443607
-1.30968e-05
-2.5646e-05
-0.000383669
2.18152e-05
-0.000382557
-0.000404902
6.13554e-06
-4.76943e-05
-0.000402634
-0.000477104
0.000518614
-6.96079e-05
-3.9424e-05
-0.000553151
0.000570245
-0.000103594
-9.0718e-05
-0.000579087
0.000583719
-0.000120545
-0.000113191
-0.000585048
0.000581501
-0.000124784
-0.000123922
-0.000576191
0.000571981
-0.000124814
-0.000124295
-0.000568695
0.000566999
-0.00012433
-0.000124652
-0.000565905
0.000566316
-0.000122205
-0.000123391
-0.000566157
0.000567992
-0.000117744
-0.00011964
-0.000572211
0.0005776
-0.000112637
-0.000116071
-0.00058616
0.000600258
-0.000100966
-0.000107388
-0.000625521
0.000663738
-8.13441e-05
-9.34343e-05
-0.000713055
0.000762944
-3.62239e-05
-6.17341e-05
-0.000793767
0.000807842
2.04312e-05
-4.4638e-06
-0.00080843
0.000797096
4.0065e-05
3.26279e-05
-2.45501e-05
3.83016e-05
0.000783354
1.61676e-05
-1.10433e-05
0.000772403
0.00077471
7.54407e-06
-3.81602e-06
0.000773621
0.000773112
-2.82976e-07
4.4569e-06
0.000772783
0.000772983
-8.31388e-06
1.16865e-05
0.000773296
0.000773424
-1.59674e-05
2.28005e-05
0.000773393
0.000772148
-0.000791866
0.000779255
3.54213e-05
0.000806636
-0.000813353
3.68314e-05
4.00645e-05
0.000808045
-0.000788918
1.15833e-05
2.89433e-05
0.000749768
-0.000697949
-4.62003e-05
-1.6824e-05
0.000651971
-0.000618002
-8.62142e-05
-6.97826e-05
0.000597233
-0.000585225
-0.000103245
-9.68739e-05
0.000577824
-0.000572957
-0.000113299
-0.000109257
0.000568799
-0.000567412
-0.000118111
-0.000116837
0.000568333
-0.000568919
-0.000122284
-0.000120282
0.000570774
-0.000574344
-0.00012457
-0.000123631
0.000579006
-0.000583575
-0.000126894
-0.000125165
0.000584535
-0.000581318
-0.000131579
-0.000128946
0.000576935
-0.000566049
-0.000125331
-0.000127629
-0.000119395
0.000422222
-0.000413975
1.33875e-05
-3.49068e-06
0.000408936
-0.000407697
2.29405e-05
2.19705e-05
1.47363e-05
-2.68877e-05
2.94155e-05
-0.000385085
-0.000374224
1.31747e-05
-0.000419396
-0.000397131
2.16441e-05
0.000580951
-0.00054586
-9.61424e-05
0.000593635
-0.000112233
-0.000501044
-7.18187e-05
0.00079303
-0.000781735
2.87832e-05
0.000793335
3.80098e-05
2.13368e-05
-1.60391e-05
0.000768105
3.00532e-05
0.000770549
-5.46661e-05
-0.000376301
-2.81578e-05
-0.000380852
-2.21189e-05
-0.000387123
6.59508e-05
-0.000413375
-5.21792e-05
-0.000420889
0.000423037
6.38028e-05
-5.37669e-05
-0.000427205
6.00828e-05
-0.000422166
-4.49757e-05
3.91408e-05
-3.25785e-05
-0.000391647
3.43611e-06
-0.000413373
-3.22834e-05
-0.000399459
-0.000402574
4.48252e-05
3.65174e-05
-0.000394507
-0.000412254
-4.25597e-05
0.000452124
-0.00042707
-3.40993e-06
-0.000482023
0.000519829
-5.0902e-05
-2.37627e-05
-0.000557854
0.000579151
-9.09047e-05
-7.74479e-05
-0.000590646
0.000597866
-0.000110814
-0.000102212
-0.000600001
0.000596907
-0.000117451
-0.000115326
-0.000591478
0.000586292
-0.000119599
-0.000118493
-0.000582265
0.000578096
-0.000120645
-0.000120267
-0.000574449
0.000571316
-0.000121196
-0.000121004
-0.000568888
0.000566943
-0.000120259
-0.000120963
-0.000566304
0.00056544
-0.000116879
-0.000119001
-0.00056325
0.000562175
-0.00011156
-0.00011388
-0.000564372
0.000571394
-0.000107986
-0.000109583
-0.000580105
0.000593366
-9.46026e-05
-0.000102142
-0.000617442
0.000655329
-7.41073e-05
-8.58062e-05
-0.000704778
0.000752936
-2.77213e-05
-5.39094e-05
3.83638e-06
-2.23003e-05
3.35435e-05
0.000772121
1.6004e-05
-1.17298e-05
0.000768137
0.000768423
8.09938e-06
-4.06179e-06
0.00076959
0.000769489
-2.07925e-07
4.51528e-06
0.000768483
0.00076872
-8.64453e-06
1.23437e-05
0.000769604
0.000769302
0.000768461
-0.000798883
0.000792236
4.2083e-05
0.000792694
-0.000776586
2.07369e-05
3.38892e-05
0.000739674
-0.000689884
-3.82033e-05
-7.95938e-06
0.000644419
-0.00061116
-7.94556e-05
-6.22866e-05
0.000591446
-0.000580354
-9.73041e-05
-8.94935e-05
0.000572806
-0.000567143
-0.000108906
-0.000104419
0.000565884
-0.000566786
-0.000112396
-0.000110514
0.000568594
-0.00056894
-0.000117764
-0.000115028
0.000570133
-0.000572475
-0.000119941
-0.000119089
0.00057569
-0.000579651
-0.000120609
-0.000120415
0.000583974
-0.00058903
-0.000121836
-0.000120842
0.000594904
-0.000601017
-0.000125466
-0.000123072
0.000602177
-0.000598531
-0.000128976
-0.00012647
-0.00012429
0.000468284
-0.000442835
-1.20603e-05
-3.62503e-05
0.000425425
-0.000417397
1.49122e-05
4.56086e-06
0.000417374
-0.000463376
2.62574e-05
1.47132e-05
6.4977e-05
-0.000403366
-0.000411236
2.06835e-05
4.41082e-05
0.000782785
0.000779452
4.28503e-05
-0.000618863
0.000622139
-0.000115509
-0.000610109
-0.000104895
-5.40631e-05
4.96334e-05
-0.000390077
-6.52117e-05
-0.000380498
-0.000344507
-0.000129555
-2.86097e-05
-0.000375849
-1.66241e-05
-0.000386346
-2.15656e-05
-0.000397841
-4.95421e-05
5.74966e-05
-0.000435159
-0.000430511
-4.11966e-05
-6.25847e-05
0.000101653
-0.000419322
0.000380253
-0.000419291
-3.79386e-05
-0.000188259
-0.00015868
0.00018735
0.000159589
-3.17545e-05
-0.000410264
3.9661e-05
-0.000401263
0.000459127
-0.000434359
1.48941e-05
-0.000491864
0.000526143
-3.76877e-05
-1.20536e-05
-0.000564264
0.000590793
-7.743e-05
-6.18834e-05
-0.000604088
0.000611241
-9.8057e-05
-9.07426e-05
-0.000615467
0.000613663
-0.000109011
-0.000106438
-0.00060913
0.0006037
-0.000112021
-0.000110792
-0.000599177
0.000594453
-0.000114874
-0.000113969
-0.000590169
0.000586069
-0.000116543
-0.000115983
-0.000582079
0.000577986
-0.000117102
-0.000117013
-0.000573999
0.00057025
-0.000116509
-0.000116975
-0.000566982
0.000564558
-0.000114454
-0.000115731
-0.000563291
0.000561674
-0.000109942
-0.000112611
-0.000559235
0.000555766
-0.000104515
-0.00010714
-0.000556053
0.000562614
-0.00010116
-0.000102426
-0.000571847
0.000584895
-8.71518e-05
-9.50346e-05
-0.000608788
0.000646854
-6.57832e-05
-7.77964e-05
-0.000695986
0.000742909
-1.81296e-05
-4.52902e-05
-0.000768944
0.000776897
3.61789e-05
1.19925e-05
-4.18014e-05
4.19077e-05
0.000776814
2.91989e-05
-2.12521e-05
0.000764187
0.0007702
1.61282e-05
-1.23498e-05
0.000764368
0.000763309
8.49452e-06
-4.23491e-06
0.000765339
0.000765642
-1.40799e-07
4.53425e-06
0.000764097
0.000764352
-8.8499e-06
1.28477e-05
0.000765615
0.000764994
-1.63721e-05
2.07118e-05
0.000763776
0.000764946
-2.70736e-05
3.82246e-05
0.000768316
0.000764199
-0.00078164
0.000776148
4.37384e-05
0.00077707
-0.000764256
2.92896e-05
3.83013e-05
0.000732078
-0.000682315
-2.90178e-05
1.72354e-06
0.000636278
-0.00060303
-7.14463e-05
-5.39934e-05
0.000583698
-0.000572939
-9.02108e-05
-8.16147e-05
0.000564319
-0.000559068
-0.000102552
-9.81099e-05
0.00056044
-0.000563739
-0.000105605
-0.000103044
0.000565847
-0.000567012
-0.000111229
-0.000108405
0.00056869
-0.000571664
-0.000114789
-0.000113348
0.000575074
-0.00057883
-0.000116184
-0.000115678
0.000582797
-0.000586932
-0.000116472
-0.000116448
0.000590958
-0.000595901
-0.000116893
-0.000116816
0.000600985
-0.000607569
-0.000118882
-0.000117986
0.000614209
-0.000621069
-0.000122117
-0.000119829
-0.00012322
0.000550086
-0.000508536
-5.36096e-05
-0.000591263
-9.06648e-05
-7.74259e-05
0.000473751
-0.000452092
-6.74652e-06
-3.02231e-05
0.000445356
-0.000454573
3.54742e-05
7.97745e-06
0.000439134
-0.000436226
6.08952e-05
4.9538e-05
0.000436555
-0.000442096
6.30378e-05
6.04122e-05
0.000465508
7.20264e-05
-3.44225e-05
0.000450256
-5.31544e-05
6.84061e-05
5.72027e-05
-0.000445213
-4.71493e-05
6.53631e-05
-0.00036952
8.12396e-05
0.00018818
-8.65194e-05
-0.0001829
5.1629e-05
-5.58349e-05
-0.000397057
-0.000418701
3.59712e-05
-4.82982e-06
-0.000368287
-0.000120073
-0.00012088
0.00073238
-0.0006881
-8.08146e-06
0.000752598
2.17182e-05
3.28136e-05
-2.50313e-05
0.000760552
4.33034e-05
0.000765684
-1.08732e-05
-0.0003816
-0.000456044
-4.23233e-05
-1.33569e-05
-0.000394555
-0.000439499
-3.81618e-05
-0.000427459
-3.30288e-05
-2.06954e-05
-0.0004089
-2.93537e-05
-0.000418849
0.000151535
-0.000133496
0.000126339
-0.00018997
-0.000143157
0.000144868
0.00011214
-0.000120231
-0.000181879
0.000199544
0.000148907
-0.000236312
0.000471153
-0.000172824
-0.000450136
0.000151807
0.000174048
-0.000154599
-0.000169699
0.00015025
-6.09652e-05
-0.000384947
-6.63284e-05
-0.000375135
-7.99842e-05
-0.000239724
0.000115667
0.000204041
5.79318e-05
-5.79273e-05
-0.000384951
0.00046686
9.98927e-05
-0.000494726
0.000458348
7.69186e-05
6.95624e-05
-3.78818e-05
-0.000358795
0.000327115
7.09881e-05
-0.000356347
5.74593e-05
-0.000396584
-0.000203024
0.000204279
-0.000409487
4.82455e-05
0.0002555
-0.000405595
-0.000200501
0.000350596
6.15288e-05
-6.12215e-05
-0.000396892
-0.000407609
5.96507e-05
0.000132796
-0.000139758
0.000158497
0.000410925
-0.000104091
-0.000415405
0.000108571
6.36915e-05
-6.22111e-05
-0.000409089
-0.000433584
0.000434354
6.29212e-05
-7.56152e-05
5.29564e-05
-0.000447474
0.000468454
2.72659e-05
4.65311e-05
-0.000501878
0.000538654
-2.18818e-05
2.54829e-06
-0.000576356
0.000605915
-6.72465e-05
-4.9754e-05
-0.000618895
0.000627191
-8.57248e-05
-7.48632e-05
-0.000630759
0.000632043
-9.9341e-05
-9.43104e-05
-0.000626956
0.000621632
-0.000103686
-0.000101351
-0.000616912
0.000612264
-0.000107373
-0.000106072
-0.000607734
0.000603278
-0.000110418
-0.000109438
-0.000598808
0.000594353
-0.000112088
-0.000111512
-0.000589683
0.000584843
-0.000112262
-0.000112342
-0.000579917
0.000574972
-0.000111563
-0.000112048
-0.000570122
0.000565647
-0.000109977
-0.00011088
-0.000561797
0.00055893
-0.000107073
-0.00010876
-0.000556798
0.00055448
-0.000102195
-0.000105006
-0.000551663
0.000547239
-9.67321e-05
-9.96048e-05
-0.000547693
0.000553478
-9.29309e-05
-9.54836e-05
-0.000562355
0.000575551
-7.89722e-05
-8.66674e-05
-0.000600209
0.0006397
-5.76119e-05
-6.994e-05
-3.63984e-05
-3.66713e-05
4.46476e-05
0.000768862
2.67269e-05
-2.0832e-05
0.000758306
0.000760275
1.6527e-05
-1.28389e-05
0.000760691
0.000759017
8.74808e-06
-4.35239e-06
0.000760952
0.000761561
-9.69629e-08
4.53023e-06
0.000759673
0.000759912
-8.94149e-06
1.31055e-05
0.000761461
0.000760592
-1.66863e-05
2.03041e-05
0.000760171
0.000761377
0.000759487
-0.000754076
0.000762275
3.55711e-05
0.000725294
-0.000676281
-1.97066e-05
9.54247e-06
0.000629006
-0.000594411
-6.36051e-05
-4.55387e-05
0.000574453
-0.000563622
-8.2271e-05
-7.39446e-05
0.000555706
-0.000550791
-9.51213e-05
-8.9525e-05
0.000552955
-0.00055733
-9.81737e-05
-9.59412e-05
0.000559424
-0.000561391
-0.000103634
-0.000100946
0.000563731
-0.000567101
-0.000107858
-0.000106063
0.000571265
-0.000575937
-0.000110115
-0.000109183
0.000580761
-0.000585559
-0.000111385
-0.000110852
0.000590377
-0.000594991
-0.000111857
-0.000111629
0.00059945
-0.000604395
-0.000111947
-0.000112357
0.000609339
-0.000614989
-0.000113231
-0.000113042
0.000619711
-0.0006276
-0.000114227
-0.000115107
0.000637461
-0.000642194
-0.000110775
-0.000113359
0.000641383
-0.000634506
-9.75423e-05
-0.000105706
0.000622838
-0.000596348
-8.00989e-05
-8.90929e-05
0.000556469
-0.000518485
-4.47287e-05
-7.01022e-05
0.000496206
-0.000473778
1.30461e-05
-1.43013e-05
0.000457411
-0.000449128
5.26123e-05
3.31715e-05
0.000449603
-0.000453494
6.69288e-05
6.08883e-05
7.02168e-05
-0.000189148
-0.000152351
0.000198342
-0.000177061
-0.000132318
-0.000127527
0.000119697
-0.00036486
-0.000360409
0.000317698
-0.000143777
0.000188518
-0.000197092
0.00050706
0.00032777
-0.000317372
-0.000517458
-0.00044415
1.87759e-05
5.33803e-05
0.000371994
-0.000424631
-2.71449e-05
3.83372e-05
0.000758942
0.000765241
4.037e-05
0.00021574
0.000128672
-5.77771e-05
-0.000375285
-3.85109e-05
5.05081e-05
-0.000368344
-2.26285e-05
-0.000374678
2.33959e-06
-0.0003815
-0.00046148
-2.89859e-05
0.000185443
-0.000210547
-0.000210084
0.000235188
-5.75664e-05
-0.000388606
-0.000477317
0.000470046
8.41892e-05
0.000100494
-0.000477917
0.000153486
-0.000397125
-0.000251087
-1.57951e-06
-0.000393377
-0.000448313
-3.3509e-05
-0.000435085
-3.05356e-05
-6.12434e-05
-0.000397859
-5.16081e-05
-0.000970481
7.6097e-05
0.000945992
-1.00507e-05
-0.0004052
-0.000631786
0.000769492
-0.000336632
0.000198927
-7.61391e-05
-0.000408565
0.000181724
0.000152626
-1.91167e-05
-0.000419137
-0.000426846
-2.50324e-05
-0.000111468
0.000182932
0.000116717
-0.000136061
0.00018791
-0.000195626
7.84958e-05
-5.95089e-05
-0.000443617
-0.000158178
0.00019784
-0.000164476
0.000194817
0.00012877
-0.00012571
-0.000129998
-0.000468985
0.000489765
4.21407e-05
6.41279e-05
-0.000480156
-0.000518078
0.000554252
-8.90779e-06
1.82193e-05
-0.00059024
0.000620214
-5.18549e-05
-3.34391e-05
-0.000636532
0.000644181
-7.48958e-05
-6.60715e-05
-0.000649869
0.00065056
-8.64157e-05
-8.05503e-05
-0.000645858
0.000639946
-9.34294e-05
-8.96079e-05
-0.000635292
0.000630752
-9.91458e-05
-9.66962e-05
-0.000626106
0.000621593
-0.000102859
-0.000101426
-0.00061678
0.000612086
-0.000105724
-0.000104624
-0.000607067
0.000601736
-0.000106757
-0.000106493
-0.00059631
0.000590784
-0.000106735
-0.000106915
-0.000585121
0.000579405
-0.000105845
-0.000106384
-0.000573662
0.00056798
-0.000104294
-0.000105135
-0.000562541
0.000557606
-0.000102136
-0.000103318
-0.000553293
0.000549934
-9.88332e-05
-0.00010069
-0.000547017
0.000544405
-9.41156e-05
-9.66843e-05
-0.000540375
0.000537458
-9.00061e-05
-9.1447e-05
-0.000538293
0.000543095
-8.37646e-05
-8.74957e-05
-0.000552038
0.000566554
-7.21157e-05
-7.8872e-05
-0.00059376
0.000635851
-5.01582e-05
-6.35877e-05
-0.000685375
0.000722729
1.01913e-06
-2.77922e-05
-4.18547e-05
2.66001e-05
0.000738022
4.23931e-05
-3.16772e-05
0.000758172
0.000759514
2.49755e-05
-2.05605e-05
0.000753909
0.000753594
1.68848e-05
-1.3144e-05
0.000756963
0.000755356
8.88001e-06
-4.41411e-06
0.000756497
0.000757309
-4.88814e-08
4.49371e-06
0.000755238
0.000755459
-8.91445e-06
1.31427e-05
0.000757245
0.000756182
-1.68214e-05
2.00657e-05
0.000756942
0.000757711
-2.37786e-05
2.93176e-05
0.000755035
0.000755792
-3.82303e-05
4.19034e-05
0.000761603
0.000756799
-0.000739579
0.000747104
3.44272e-05
0.00071722
-0.000670569
-1.10552e-05
1.80493e-05
0.000623571
-0.0005868
-5.64617e-05
-3.74404e-05
0.000564921
-0.000553357
-7.51575e-05
-6.74026e-05
0.000545884
-0.000542362
-8.57851e-05
-8.14086e-05
0.000542365
-0.000546733
-9.07467e-05
-8.95148e-05
0.000549767
-0.000552407
-9.55299e-05
-9.29014e-05
0.000555314
-0.000559029
-9.99168e-05
-9.8035e-05
0.000563623
-0.000568815
-0.000102663
-0.000101466
0.00057438
-0.000580053
-0.000104441
-0.000103616
0.000585789
-0.000591503
-0.00010567
-0.000105115
0.000597028
-0.000602375
-0.000106509
-0.000106103
0.000608058
-0.000612611
-0.000107393
-0.000106672
0.000618041
-0.000622958
-0.000108314
-0.000107611
0.000629681
-0.000635374
-0.000108533
-0.000108383
0.000642029
-0.000649848
-0.000102956
-0.000106704
0.000657347
-0.000660322
-9.45671e-05
-9.82069e-05
0.000657084
-0.000650927
-8.62557e-05
-9.23305e-05
0.000641006
-0.000616773
-6.89612e-05
-8.00221e-05
0.000577561
-0.000542033
-2.24813e-05
-5.35123e-05
0.000508413
-0.000486632
3.08315e-05
-4.47918e-07
0.000471246
-0.000467545
6.32282e-05
4.55022e-05
7.27186e-05
-0.000282705
0.000129425
-0.000114953
0.000268233
0.000120385
-0.000175135
-0.000495588
0.000299138
0.000371585
-2.72584e-06
5.89005e-06
-0.000242888
-0.000188921
-0.000372129
-0.000380698
-0.00015223
0.000222761
0.000127308
0.000432058
-0.000433951
-2.52518e-05
-1.41775e-05
-0.000279966
0.000169919
0.000239472
-0.000227312
0.000151158
0.000174338
-9.81841e-05
-0.000139447
-0.000143608
0.000149559
-5.04519e-05
-0.000382399
-0.000490092
0.00049674
7.7541e-05
-0.000485054
9.54566e-05
0.000119662
-0.000444093
8.25947e-06
-0.000391339
-2.98575e-05
4.25104e-05
-0.000380997
-1.81783e-05
-0.000386357
-0.000101178
0.000273123
-0.000286898
-0.000450004
-2.72954e-05
-0.000133217
0.000127281
0.000634825
-0.000590462
-4.33309e-05
0.00068278
-2.13265e-05
3.90722e-05
-3.22082e-05
0.000754779
3.71126e-05
0.000749115
-0.000440673
-2.79211e-05
0.000180333
-2.55566e-05
5.4151e-05
-0.000208927
-5.72665e-05
-0.000392583
0.000125805
-0.000421277
-0.000146534
0.000168471
0.000110859
-0.000119564
-0.000128332
-0.000113997
0.000120552
0.000117355
0.000122698
-0.000130656
-0.000109397
-0.000185493
0.000222746
-0.000107819
7.05662e-05
-6.65314e-07
-0.000402762
0.000348316
-0.000342249
-0.000206259
0.000200192
0.000221711
0.000326194
-0.000324603
-0.000223302
0.000282859
-0.000116412
0.000101786
1.69329e-05
-2.88429e-05
-0.000184848
0.000179314
-0.000359478
-0.000185429
0.000365593
0.000172655
-0.000374776
0.000381436
-7.06617e-05
-0.000403336
9.70811e-05
-0.000437907
-0.000166705
0.000146863
0.000170573
-0.000150732
0.00015927
-0.000155394
-0.000170581
0.000174223
0.000157201
-0.000172154
0.000177617
0.000143469
-0.000302992
0.00034776
2.33856e-05
-6.81537e-05
-9.68942e-06
-0.000414627
-0.000434003
-2.33781e-05
-9.41581e-05
-0.000418498
-0.000105572
0.000168978
-0.000174874
-1.74535e-05
-0.000426716
0.000295553
0.000243238
-0.000293813
-0.000244978
-0.000270051
0.000271637
0.000293967
0.000352136
0.000217891
-0.000131856
-0.000458683
-0.000129922
0.000176792
0.000244492
0.000324939
-0.00015179
0.000175224
-0.000184724
-0.00044677
-4.66897e-05
0.000128387
-0.000131952
8.40587e-05
-7.06079e-05
-0.000457068
0.000552279
0.000174374
-0.000532478
0.000576682
-2.06283e-06
3.55676e-05
-0.000503917
-0.000611312
0.000639411
-3.70066e-05
-1.64095e-05
-0.000652622
0.00066099
-6.0223e-05
-4.66494e-05
-0.000665026
0.000667839
-7.77091e-05
-7.01069e-05
-0.000663921
0.000658848
-8.13426e-05
-7.66319e-05
-0.000654101
0.000649873
-8.92006e-05
-8.48606e-05
-0.000645202
0.000640479
-9.44227e-05
-9.20252e-05
-0.000635413
0.00063074
-9.81852e-05
-9.63589e-05
-0.000625359
0.000619702
-0.000100065
-9.92432e-05
-0.000613731
0.000607719
-0.000100744
-0.000100521
-0.000601526
0.000595247
-0.000100455
-0.000100721
-0.000588872
0.000582436
-9.94078e-05
-0.000100008
-0.000575983
0.000569529
-9.78379e-05
-9.86795e-05
-0.00056313
0.000556892
-9.58955e-05
-9.69169e-05
-0.000551008
0.000545642
-9.34638e-05
-9.48019e-05
-0.000540984
0.000537291
-9.04178e-05
-9.20234e-05
-0.000534229
0.000530134
-8.5901e-05
-8.83788e-05
-0.000527277
0.000526453
-8.29291e-05
-8.46288e-05
-0.000528167
0.000533441
-7.73736e-05
-8.05744e-05
-0.000542584
0.000559634
-6.71867e-05
-7.27118e-05
-5.85998e-05
-4.10674e-05
3.49066e-05
0.000744228
3.62373e-05
-2.84659e-05
0.000750429
0.000754721
2.38599e-05
-2.03196e-05
0.000750389
0.000749011
1.70085e-05
-1.32386e-05
0.000753209
0.000752063
8.92403e-06
-4.45087e-06
0.000752036
0.000753008
7.01217e-09
4.38756e-06
0.000750856
0.000751027
-8.74881e-06
1.29672e-05
0.00075304
0.000751833
-1.67248e-05
1.98501e-05
0.000753835
0.000753968
-2.28925e-05
2.65779e-05
0.000751375
0.000752772
0.000751202
-0.000669691
0.000709932
-5.77764e-06