/*--------------------------------*- C++ -*----------------------------------*\
| =========                 |                                                 |
| \\      /  F ield         | OpenFOAM: The Open Source CFD Toolbox           |
|  \\    /   O peration     | Version:  2212                                  |
|   \\  /    A nd           | Website:  www.openfoam.com                      |
|    \\/     M anipulation  |                                                 |
\*---------------------------------------------------------------------------*/
FoamFile
{
    version     2.0;
    format      ascii;
    arch        "LSB;label=32;scalar=64";
    class       volScalarField;
    location    "0.3543";
    object      s;
}
// * * * * * * * * * * * * * * * * * * * * * * * * * * * * * * * * * * * * * //

dimensions      [0 0 0 0 0 0 0];

internalField   nonuniform List<scalar> 
24240
(
1.39553e-77
1.38174e-77
1.39342e-77
1.37321e-77
1.37574e-77
1.3939e-77
1.38845e-77
1.35695e-77
1.36814e-77
1.40407e-77
1.37697e-77
1.40316e-77
1.38199e-77
1.40407e-77
1.36796e-77
1.41218e-77
1.3646e-77
1.3811e-77
1.3777e-77
1.34633e-77
5.60842e-75
5.55459e-75
5.60071e-75
5.52099e-75
5.52939e-75
5.60347e-75
5.5812e-75
5.45538e-75
5.5002e-75
5.64434e-75
5.53574e-75
5.63986e-75
5.55672e-75
5.64425e-75
5.49991e-75
5.67642e-75
5.48702e-75
5.55285e-75
5.53802e-75
5.41234e-75
1.14965e-72
1.13893e-72
1.14822e-72
1.13217e-72
1.13355e-72
1.14894e-72
1.14431e-72
1.11868e-72
1.12784e-72
1.15732e-72
1.13514e-72
1.15625e-72
1.13961e-72
1.1573e-72
1.12787e-72
1.1638e-72
1.12536e-72
1.13875e-72
1.13548e-72
1.10982e-72
1.37329e-70
1.36087e-70
1.37176e-70
1.35294e-70
1.35417e-70
1.37281e-70
1.3672e-70
1.33678e-70
1.3477e-70
1.38281e-70
1.35642e-70
1.38133e-70
1.36194e-70
1.38277e-70
1.34782e-70
1.3904e-70
1.34498e-70
1.36083e-70
1.35666e-70
1.32614e-70
1.16085e-68
1.15069e-68
1.15971e-68
1.1441e-68
1.14478e-68
1.16074e-68
1.15593e-68
1.1304e-68
1.13962e-68
1.16919e-68
1.14698e-68
1.16777e-68
1.1518e-68
1.16913e-68
1.13976e-68
1.17545e-68
1.13752e-68
1.15077e-68
1.14703e-68
1.12138e-68
6.80315e-67
6.74556e-67
6.79733e-67
6.70753e-67
6.70951e-67
6.80416e-67
6.77569e-67
6.62707e-67
6.68119e-67
6.85356e-67
6.72413e-67
6.84426e-67
6.75317e-67
6.853e-67
6.68202e-67
6.88918e-67
6.66988e-67
6.74652e-67
6.72339e-67
6.57413e-67
2.76435e-65
2.74178e-65
2.76234e-65
2.72655e-65
2.72651e-65
2.7654e-65
2.75373e-65
2.69382e-65
2.71592e-65
2.78539e-65
2.73322e-65
2.78122e-65
2.74529e-65
2.78507e-65
2.71611e-65
2.79931e-65
2.71169e-65
2.74228e-65
2.73242e-65
2.67241e-65
7.39149e-64
7.33348e-64
7.38708e-64
7.29317e-64
7.2909e-64
7.39576e-64
7.36453e-64
7.20572e-64
7.26571e-64
7.44875e-64
7.31115e-64
7.43666e-64
7.34366e-64
7.44753e-64
7.26486e-64
7.48386e-64
7.25489e-64
7.33449e-64
7.30713e-64
7.14967e-64
5.54168e-63
5.50105e-63
5.54015e-63
5.47111e-63
5.46769e-63
5.54653e-63
5.52357e-63
5.40594e-63
5.45293e-63
5.58564e-63
5.48559e-63
5.57617e-63
5.50927e-63
5.58428e-63
5.44944e-63
5.60923e-63
5.44439e-63
5.50103e-63
5.48014e-63
5.36602e-63
2.02121e-63
2.02243e-63
2.0362e-63
2.00658e-63
2.00723e-63
2.02154e-63
2.02524e-63
1.98853e-63
2.04035e-63
2.02447e-63
2.031e-63
2.0317e-63
2.01298e-63
2.02033e-63
1.98866e-63
2.00611e-63
2.01338e-63
2.00074e-63
2.00502e-63
2.01387e-63
3.4985e-63
3.51618e-63
3.55144e-63
3.48997e-63
3.47286e-63
3.47993e-63
3.50504e-63
3.45524e-63
3.55237e-63
3.53496e-63
3.54974e-63
3.52345e-63
3.51685e-63
3.48506e-63
3.45986e-63
3.48113e-63
3.45052e-63
3.46713e-63
3.48581e-63
3.4834e-63
3.85733e-63
3.87847e-63
3.9011e-63
3.82835e-63
3.83821e-63
3.79047e-63
3.86287e-63
3.82165e-63
3.8624e-63
3.94008e-63
3.8938e-63
3.82943e-63
3.90266e-63
3.86558e-63
3.85187e-63
3.8776e-63
3.75223e-63
3.84049e-63
3.80707e-63
3.80759e-63
4.55517e-63
4.58894e-63
4.60054e-63
4.59787e-63
4.61241e-63
4.65133e-63
4.7044e-63
4.62857e-63
4.62067e-63
4.5627e-63
4.56874e-63
4.5782e-63
4.62387e-63
4.64453e-63
4.57481e-63
4.60882e-63
4.61798e-63
4.58901e-63
4.55141e-63
4.57187e-63
4.86349e-63
4.83318e-63
4.85425e-63
4.93899e-63
4.91212e-63
4.95832e-63
4.87278e-63
4.9735e-63
4.84694e-63
4.78354e-63
4.79331e-63
4.83793e-63
4.83561e-63
4.78168e-63
4.76298e-63
4.81356e-63
4.7565e-63
4.84505e-63
4.8062e-63
4.87927e-63
5.04313e-63
5.02252e-63
5.09983e-63
5.04381e-63
5.02872e-63
5.11972e-63
5.07441e-63
5.16562e-63
5.04818e-63
5.12695e-63
5.08931e-63
5.10644e-63
5.10768e-63
5.14274e-63
5.08858e-63
5.185e-63
5.07097e-63
5.01456e-63
5.0695e-63
5.037e-63
4.97983e-63
4.92172e-63
4.90457e-63
4.91272e-63
4.96434e-63
5.00129e-63
4.98654e-63
4.96678e-63
4.88285e-63
4.90492e-63
4.85009e-63
4.97143e-63
4.98466e-63
5.02758e-63
5.02346e-63
4.99751e-63
4.97255e-63
4.99224e-63
4.94376e-63
4.95423e-63
4.63139e-63
4.70596e-63
4.63217e-63
4.75882e-63
4.62493e-63
4.72306e-63
4.64415e-63
4.71712e-63
4.66066e-63
4.69984e-63
4.6689e-63
4.77038e-63
4.67309e-63
4.78997e-63
4.67015e-63
4.71233e-63
4.72591e-63
4.61976e-63
4.74086e-63
4.73752e-63
4.15343e-63
4.27344e-63
4.24544e-63
4.19728e-63
4.16653e-63
4.30708e-63
4.232e-63
4.25809e-63
4.22887e-63
4.16994e-63
4.20637e-63
4.28048e-63
4.20781e-63
4.33502e-63
4.21033e-63
4.27573e-63
4.28223e-63
4.24437e-63
4.29296e-63
4.31107e-63
3.9875e-63
3.99013e-63
3.99679e-63
4.03669e-63
4.03918e-63
4.04178e-63
3.96216e-63
4.05007e-63
4.08211e-63
3.98909e-63
4.05525e-63
4.08415e-63
3.95898e-63
4.09942e-63
4.08209e-63
4.1507e-63
4.05169e-63
4.08139e-63
4.03816e-63
4.11697e-63
2.57441e-63
2.59616e-63
2.59318e-63
2.56763e-63
2.59079e-63
2.58464e-63
2.58967e-63
2.59314e-63
2.5726e-63
2.61692e-63
2.56027e-63
2.62015e-63
2.56406e-63
2.64595e-63
2.57148e-63
2.57613e-63
2.57942e-63
2.6293e-63
2.5917e-63
2.64609e-63
3.46872e-76
3.43531e-76
3.46397e-76
3.41462e-76
3.41991e-76
3.46577e-76
3.45197e-76
3.37416e-76
3.40176e-76
3.4912e-76
3.42382e-76
3.48845e-76
3.43678e-76
3.49105e-76
3.40162e-76
3.51101e-76
3.39339e-76
3.43427e-76
3.42512e-76
3.34714e-76
1.38338e-73
1.37046e-73
1.38169e-73
1.36237e-73
1.36405e-73
1.3826e-73
1.37701e-73
1.34617e-73
1.35714e-73
1.39274e-73
1.36595e-73
1.39145e-73
1.37133e-73
1.39267e-73
1.3572e-73
1.40052e-73
1.35406e-73
1.37024e-73
1.36632e-73
1.3353e-73
2.7894e-71
2.76416e-71
2.78639e-71
2.74815e-71
2.75069e-71
2.7886e-71
2.77717e-71
2.71538e-71
2.73745e-71
2.80906e-71
2.75525e-71
2.80607e-71
2.76649e-71
2.8089e-71
2.73778e-71
2.8245e-71
2.73178e-71
2.76414e-71
2.75569e-71
2.69334e-71
3.29476e-69
3.26592e-69
3.2917e-69
3.24734e-69
3.24936e-69
3.29472e-69
3.28104e-69
3.20852e-69
3.23453e-69
3.31888e-69
3.25555e-69
3.31486e-69
3.26928e-69
3.31862e-69
3.23511e-69
3.33674e-69
3.22842e-69
3.26629e-69
3.25568e-69
3.18231e-69
2.74167e-67
2.7185e-67
2.73952e-67
2.70329e-67
2.70414e-67
2.74236e-67
2.73083e-67
2.6709e-67
2.69253e-67
2.76244e-67
2.70999e-67
2.7587e-67
2.72179e-67
2.76218e-67
2.69312e-67
2.77695e-67
2.68792e-67
2.71909e-67
2.70976e-67
2.64902e-67
1.58805e-65
1.5751e-65
1.58702e-65
1.56643e-65
1.56645e-65
1.58884e-65
1.58209e-65
1.54763e-65
1.56017e-65
1.60045e-65
1.57024e-65
1.59805e-65
1.57726e-65
1.60024e-65
1.56051e-65
1.6086e-65
1.55774e-65
1.57555e-65
1.56987e-65
1.53492e-65
6.35933e-64
6.30947e-64
6.35612e-64
6.27522e-64
6.27337e-64
6.36403e-64
6.33677e-64
6.19985e-64
6.25031e-64
6.41032e-64
6.2903e-64
6.39979e-64
6.31907e-64
6.40927e-64
6.25138e-64
6.44167e-64
6.24143e-64
6.31149e-64
6.28772e-64
6.14915e-64
1.67714e-62
1.66453e-62
1.67653e-62
1.65559e-62
1.65461e-62
1.67871e-62
1.67152e-62
1.63572e-62
1.64924e-62
1.69082e-62
1.65959e-62
1.68783e-62
1.66724e-62
1.69046e-62
1.64921e-62
1.6986e-62
1.647e-62
1.66498e-62
1.6585e-62
1.62262e-62
1.24019e-61
1.23151e-61
1.24015e-61
1.22496e-61
1.22385e-61
1.24172e-61
1.2365e-61
1.21035e-61
1.22079e-61
1.25054e-61
1.22814e-61
1.24823e-61
1.23364e-61
1.25017e-61
1.22014e-61
1.25568e-61
1.21904e-61
1.23166e-61
1.2268e-61
1.20111e-61
4.4015e-62
4.40442e-62
4.4349e-62
4.37037e-62
4.37103e-62
4.40225e-62
4.40997e-62
4.33085e-62
4.44394e-62
4.40924e-62
4.42359e-62
4.42435e-62
4.38451e-62
4.39968e-62
4.33158e-62
4.36806e-62
4.3845e-62
4.35727e-62
4.36676e-62
4.38586e-62
7.69056e-62
7.7288e-62
7.80648e-62
7.67104e-62
7.63396e-62
7.64866e-62
7.70337e-62
7.59539e-62
7.80777e-62
7.77077e-62
7.80232e-62
7.74394e-62
7.73068e-62
7.66123e-62
7.60599e-62
7.6519e-62
7.58372e-62
7.6209e-62
7.66162e-62
7.65529e-62
8.43221e-62
8.47771e-62
8.5275e-62
8.36876e-62
8.39096e-62
8.28795e-62
8.44551e-62
8.35686e-62
8.44197e-62
8.61109e-62
8.50987e-62
8.37055e-62
8.53014e-62
8.45108e-62
8.42036e-62
8.47664e-62
8.20481e-62
8.39455e-62
8.32347e-62
8.3238e-62
9.98334e-62
1.00543e-61
1.0081e-61
1.00773e-61
1.01082e-61
1.01944e-61
1.03058e-61
1.01448e-61
1.01257e-61
9.99856e-62
1.0011e-61
1.00326e-61
1.01319e-61
1.01766e-61
1.0026e-61
1.0099e-61
1.01185e-61
1.00573e-61
9.97432e-62
1.00201e-61
1.05996e-61
1.0532e-61
1.0578e-61
1.07611e-61
1.07034e-61
1.08042e-61
1.06176e-61
1.08377e-61
1.056e-61
1.04269e-61
1.04458e-61
1.05439e-61
1.05375e-61
1.04214e-61
1.03816e-61
1.04913e-61
1.03663e-61
1.05581e-61
1.04752e-61
1.06319e-61
1.10271e-61
1.09815e-61
1.11494e-61
1.10262e-61
1.09957e-61
1.11941e-61
1.10937e-61
1.12934e-61
1.10385e-61
1.12105e-61
1.11272e-61
1.11648e-61
1.11672e-61
1.12466e-61
1.11271e-61
1.13356e-61
1.10881e-61
1.09645e-61
1.10847e-61
1.10115e-61
1.08258e-61
1.07015e-61
1.0661e-61
1.06809e-61
1.07921e-61
1.08717e-61
1.08395e-61
1.07966e-61
1.06164e-61
1.06631e-61
1.05439e-61
1.08064e-61
1.08363e-61
1.09277e-61
1.09206e-61
1.08616e-61
1.08098e-61
1.0854e-61
1.07485e-61
1.07712e-61
1.01126e-61
1.02766e-61
1.01153e-61
1.03894e-61
1.00965e-61
1.03103e-61
1.01387e-61
1.02984e-61
1.01765e-61
1.02628e-61
1.01941e-61
1.04163e-61
1.02031e-61
1.04571e-61
1.01976e-61
1.02872e-61
1.03186e-61
1.00874e-61
1.03513e-61
1.03439e-61
9.03268e-62
9.29072e-62
9.23151e-62
9.12585e-62
9.06058e-62
9.36302e-62
9.20012e-62
9.25736e-62
9.19478e-62
9.06667e-62
9.14513e-62
9.30538e-62
9.14884e-62
9.42277e-62
9.15471e-62
9.29591e-62
9.30884e-62
9.22875e-62
9.33194e-62
9.37252e-62
8.73411e-62
8.73956e-62
8.75553e-62
8.84162e-62
8.84605e-62
8.85151e-62
8.67774e-62
8.87232e-62
8.93982e-62
8.73805e-62
8.88198e-62
8.94553e-62
8.67173e-62
8.97782e-62
8.94113e-62
9.08966e-62
8.875e-62
8.93754e-62
8.84335e-62
9.01465e-62
5.60386e-62
5.65153e-62
5.64561e-62
5.58942e-62
5.63885e-62
5.62602e-62
5.63644e-62
5.64483e-62
5.59827e-62
5.69558e-62
5.57221e-62
5.70205e-62
5.58116e-62
5.75845e-62
5.59696e-62
5.60705e-62
5.61379e-62
5.72216e-62
5.64096e-62
5.75839e-62
8.32968e-75
8.25172e-75
8.31963e-75
8.20328e-75
8.21352e-75
8.32542e-75
8.29167e-75
8.10601e-75
8.17177e-75
8.38684e-75
8.22504e-75
8.37905e-75
8.25742e-75
8.38615e-75
8.17224e-75
8.43357e-75
8.15274e-75
8.25055e-75
8.22692e-75
8.03949e-75
3.27894e-72
3.24926e-72
3.27551e-72
3.23055e-72
3.23358e-72
3.27823e-72
3.26474e-72
3.19212e-72
3.21792e-72
3.30241e-72
3.23893e-72
3.29887e-72
3.25216e-72
3.30211e-72
3.21838e-72
3.32052e-72
3.21106e-72
3.24927e-72
3.23932e-72
3.16569e-72
6.5007e-70
6.44384e-70
6.49494e-70
6.40744e-70
6.41148e-70
6.50116e-70
6.47407e-70
6.331e-70
6.38203e-70
6.54915e-70
6.42373e-70
6.54121e-70
6.45093e-70
6.54849e-70
6.38346e-70
6.58444e-70
6.3697e-70
6.44481e-70
6.42384e-70
6.27826e-70
7.58351e-68
7.51951e-68
7.57801e-68
7.47779e-68
7.48023e-68
7.58617e-68
7.55415e-68
7.38835e-68
7.44775e-68
7.64212e-68
7.49637e-68
7.63175e-68
7.52917e-68
7.64119e-68
7.44983e-68
7.68242e-68
7.4347e-68
7.52149e-68
7.49563e-68
7.32632e-68
6.20724e-66
6.1568e-66
6.20373e-66
6.12322e-66
6.12334e-66
6.21111e-66
6.18459e-66
6.04982e-66
6.0984e-66
6.25687e-66
6.13813e-66
6.24747e-66
6.16583e-66
6.25598e-66
6.10035e-66
6.28905e-66
6.08882e-66
6.15906e-66
6.13679e-66
5.99882e-66
3.54826e-64
3.52054e-64
3.5468e-64
3.50163e-64
3.50065e-64
3.55138e-64
3.53606e-64
3.45958e-64
3.48738e-64
3.57748e-64
3.50999e-64
3.57158e-64
3.52625e-64
3.57685e-64
3.4885e-64
3.59529e-64
3.48243e-64
3.52204e-64
3.50872e-64
3.43032e-64
1.399e-62
1.38853e-62
1.39864e-62
1.38117e-62
1.38036e-62
1.40057e-62
1.39449e-62
1.36457e-62
1.37559e-62
1.41083e-62
1.38443e-62
1.40829e-62
1.39099e-62
1.41052e-62
1.37597e-62
1.41757e-62
1.37383e-62
1.38916e-62
1.38369e-62
1.35307e-62
3.63357e-61
3.60758e-61
3.63319e-61
3.58864e-61
3.58549e-61
3.63838e-61
3.62257e-61
3.54555e-61
3.57461e-61
3.6648e-61
3.59716e-61
3.65774e-61
3.61433e-61
3.66381e-61
3.57492e-61
3.68124e-61
3.57028e-61
3.60902e-61
3.59439e-61
3.51621e-61
2.64771e-60
2.63017e-60
2.64834e-60
2.61648e-60
2.61338e-60
2.652e-60
2.6407e-60
2.58527e-60
2.60739e-60
2.67098e-60
2.62315e-60
2.66562e-60
2.63536e-60
2.67003e-60
2.60629e-60
2.68164e-60
2.60402e-60
2.63082e-60
2.62003e-60
2.56482e-60
9.12937e-61
9.13594e-61
9.20025e-61
9.0663e-61
9.06608e-61
9.1309e-61
9.14618e-61
8.98389e-61
9.21895e-61
9.14684e-61
9.17676e-61
9.17672e-61
9.09613e-61
9.12576e-61
8.9864e-61
9.05884e-61
9.09407e-61
9.03831e-61
9.05839e-61
9.09747e-61
1.61072e-60
1.61859e-60
1.6349e-60
1.60646e-60
1.59882e-60
1.60172e-60
1.61307e-60
1.59077e-60
1.63501e-60
1.62753e-60
1.63393e-60
1.62159e-60
1.61907e-60
1.60463e-60
1.59309e-60
1.60252e-60
1.58806e-60
1.59597e-60
1.60444e-60
1.60288e-60
1.75678e-60
1.7661e-60
1.77654e-60
1.74353e-60
1.74829e-60
1.72714e-60
1.75979e-60
1.74163e-60
1.75852e-60
1.79362e-60
1.77252e-60
1.74378e-60
1.77694e-60
1.76087e-60
1.75434e-60
1.76607e-60
1.70993e-60
1.74874e-60
1.73437e-60
1.73426e-60
2.08573e-60
2.0999e-60
2.10579e-60
2.10544e-60
2.1117e-60
2.12988e-60
2.15209e-60
2.11957e-60
2.11521e-60
2.08865e-60
2.09107e-60
2.09578e-60
2.11633e-60
2.12554e-60
2.09456e-60
2.10948e-60
2.11341e-60
2.10116e-60
2.08369e-60
2.09346e-60
2.20371e-60
2.18935e-60
2.19893e-60
2.23664e-60
2.22486e-60
2.24582e-60
2.20702e-60
2.25288e-60
2.19477e-60
2.16816e-60
2.17159e-60
2.19213e-60
2.19052e-60
2.1667e-60
2.15864e-60
2.1813e-60
2.1552e-60
2.19484e-60
2.17799e-60
2.20999e-60
2.30054e-60
2.29094e-60
2.32567e-60
2.29984e-60
2.29405e-60
2.33527e-60
2.31407e-60
2.35577e-60
2.30301e-60
2.33882e-60
2.32121e-60
2.32909e-60
2.32953e-60
2.34667e-60
2.32153e-60
2.36449e-60
2.31329e-60
2.28747e-60
2.31256e-60
2.29684e-60
2.24739e-60
2.2221e-60
2.21308e-60
2.21762e-60
2.24041e-60
2.25684e-60
2.25008e-60
2.24131e-60
2.20436e-60
2.21379e-60
2.18905e-60
2.24323e-60
2.24963e-60
2.26821e-60
2.26707e-60
2.25437e-60
2.2441e-60
2.25348e-60
2.23168e-60
2.23635e-60
2.10908e-60
2.14346e-60
2.10975e-60
2.16636e-60
2.1053e-60
2.14968e-60
2.11413e-60
2.14742e-60
2.12229e-60
2.14046e-60
2.12586e-60
2.17234e-60
2.12777e-60
2.18044e-60
2.12687e-60
2.1449e-60
2.15191e-60
2.10388e-60
2.15867e-60
2.15715e-60
1.87758e-60
1.93056e-60
1.91863e-60
1.89652e-60
1.88325e-60
1.94541e-60
1.91164e-60
1.92364e-60
1.91083e-60
1.88424e-60
1.90038e-60
1.93349e-60
1.90128e-60
1.95761e-60
1.90258e-60
1.93169e-60
1.93413e-60
1.91795e-60
1.93887e-60
1.94755e-60
1.82889e-60
1.82998e-60
1.83363e-60
1.85134e-60
1.85204e-60
1.85316e-60
1.81693e-60
1.85808e-60
1.87162e-60
1.82981e-60
1.85973e-60
1.87309e-60
1.81588e-60
1.87961e-60
1.87219e-60
1.90289e-60
1.85847e-60
1.87099e-60
1.85141e-60
1.88696e-60
1.16785e-60
1.17784e-60
1.17674e-60
1.16492e-60
1.17501e-60
1.17244e-60
1.17449e-60
1.17644e-60
1.16635e-60
1.18678e-60
1.16109e-60
1.18802e-60
1.16308e-60
1.19982e-60
1.16632e-60
1.16842e-60
1.16971e-60
1.19225e-60
1.17546e-60
1.19973e-60
2.00563e-73
1.98744e-73
2.00357e-73
1.97607e-73
1.97795e-73
2.00531e-73
1.99704e-73
1.95263e-73
1.96834e-73
2.02019e-73
1.98124e-73
2.01802e-73
1.98934e-73
2.01994e-73
1.96865e-73
2.03123e-73
1.96402e-73
1.98748e-73
1.98139e-73
1.93619e-73
7.77082e-71
7.70281e-71
7.76418e-71
7.65959e-71
7.66449e-71
7.77191e-71
7.73941e-71
7.56843e-71
7.6291e-71
7.82959e-71
7.67915e-71
7.82006e-71
7.71171e-71
7.82853e-71
7.63094e-71
7.87168e-71
7.61386e-71
7.70404e-71
7.67894e-71
7.50411e-71
1.5147e-68
1.50193e-68
1.51368e-68
1.49366e-68
1.49416e-68
1.51537e-68
1.50895e-68
1.47584e-68
1.48764e-68
1.52662e-68
1.4974e-68
1.52455e-68
1.50398e-68
1.5264e-68
1.48812e-68
1.53468e-68
1.48497e-68
1.50239e-68
1.49721e-68
1.4632e-68
1.74303e-66
1.7289e-66
1.74215e-66
1.71955e-66
1.7196e-66
1.7443e-66
1.73682e-66
1.69897e-66
1.71252e-66
1.75724e-66
1.72375e-66
1.75459e-66
1.73156e-66
1.75695e-66
1.71316e-66
1.76631e-66
1.70975e-66
1.72961e-66
1.72334e-66
1.68429e-66
1.40303e-64
1.39212e-64
1.40258e-64
1.38471e-64
1.38434e-64
1.40445e-64
1.39836e-64
1.36811e-64
1.37901e-64
1.41486e-64
1.38803e-64
1.41252e-64
1.39452e-64
1.41459e-64
1.37958e-64
1.42198e-64
1.37703e-64
1.39283e-64
1.38754e-64
1.35623e-64
7.90732e-63
7.84838e-63
7.90607e-63
7.80724e-63
7.8028e-63
7.91737e-63
7.88274e-63
7.71346e-63
7.77494e-63
7.97593e-63
7.82554e-63
7.96155e-63
7.8631e-63
7.97412e-63
7.77821e-63
8.01472e-63
7.76501e-63
7.85281e-63
7.82172e-63
7.64619e-63
3.0691e-61
3.04727e-61
3.06914e-61
3.0315e-61
3.02885e-61
3.07377e-61
3.06023e-61
2.99506e-61
3.01905e-61
3.09642e-61
3.03852e-61
3.09038e-61
3.05343e-61
3.09559e-61
3.02017e-61
3.11085e-61
3.01561e-61
3.04907e-61
3.03655e-61
2.96899e-61
7.84496e-60
7.79186e-60
7.84633e-60
7.75186e-60
7.74286e-60
7.85848e-60
7.82387e-60
7.65876e-60
7.72104e-60
7.91594e-60
7.76992e-60
7.89944e-60
7.80835e-60
7.91337e-60
7.72251e-60
7.9505e-60
7.71279e-60
7.79596e-60
7.76311e-60
7.59326e-60
5.6326e-59
5.59751e-59
5.6356e-59
5.569e-59
5.56085e-59
5.644e-59
5.61962e-59
5.50254e-59
5.54926e-59
5.68471e-59
5.58296e-59
5.67238e-59
5.60991e-59
5.68235e-59
5.54753e-59
5.7067e-59
5.54287e-59
5.59955e-59
5.57577e-59
5.4574e-59
1.88528e-59
1.88674e-59
1.90025e-59
1.87256e-59
1.87219e-59
1.88557e-59
1.88859e-59
1.85546e-59
1.9041e-59
1.88918e-59
1.89539e-59
1.89504e-59
1.87883e-59
1.88456e-59
1.85618e-59
1.87046e-59
1.87796e-59
1.8666e-59
1.87084e-59
1.87879e-59
3.36034e-59
3.37646e-59
3.41055e-59
3.35107e-59
3.33541e-59
3.34107e-59
3.36455e-59
3.31869e-59
3.41046e-59
3.39543e-59
3.40834e-59
3.38235e-59
3.37766e-59
3.34773e-59
3.32372e-59
3.34301e-59
3.31249e-59
3.32923e-59
3.34677e-59
3.34304e-59
3.64703e-59
3.66602e-59
3.68787e-59
3.61945e-59
3.6296e-59
3.58638e-59
3.65379e-59
3.61673e-59
3.65001e-59
3.72266e-59
3.67877e-59
3.61969e-59
3.68839e-59
3.65586e-59
3.64207e-59
3.66641e-59
3.55091e-59
3.62994e-59
3.60104e-59
3.60044e-59
4.34276e-59
4.37087e-59
4.38377e-59
4.38395e-59
4.39657e-59
4.43474e-59
4.47879e-59
4.41341e-59
4.40358e-59
4.34821e-59
4.35294e-59
4.36314e-59
4.40552e-59
4.42442e-59
4.36093e-59
4.39127e-59
4.39916e-59
4.3748e-59
4.33815e-59
4.3589e-59
4.56989e-59
4.53948e-59
4.55937e-59
4.63679e-59
4.61282e-59
4.65631e-59
4.57583e-59
4.67112e-59
4.54986e-59
4.49689e-59
4.50296e-59
4.54587e-59
4.54197e-59
4.49315e-59
4.47694e-59
4.52359e-59
4.46924e-59
4.55097e-59
4.51684e-59
4.58197e-59
4.78792e-59
4.76773e-59
4.83942e-59
4.78538e-59
4.77456e-59
4.85996e-59
4.8153e-59
4.90214e-59
4.79325e-59
4.86761e-59
4.83048e-59
4.84694e-59
4.84776e-59
4.88471e-59
4.83191e-59
4.92022e-59
4.8146e-59
4.76068e-59
4.81293e-59
4.77928e-59
4.6596e-59
4.6083e-59
4.58831e-59
4.59859e-59
4.64513e-59
4.67904e-59
4.66485e-59
4.64696e-59
4.57138e-59
4.59035e-59
4.53909e-59
4.65076e-59
4.66444e-59
4.7021e-59
4.7004e-59
4.67319e-59
4.65289e-59
4.67273e-59
4.62779e-59
4.63736e-59
4.39382e-59
4.46583e-59
4.39543e-59
4.51223e-59
4.38506e-59
4.47704e-59
4.40352e-59
4.47282e-59
4.42113e-59
4.45932e-59
4.42836e-59
4.52548e-59
4.43236e-59
4.54149e-59
4.43105e-59
4.46719e-59
4.48276e-59
4.38308e-59
4.49676e-59
4.49364e-59
3.90395e-59
4.01268e-59
3.98869e-59
3.94238e-59
3.91548e-59
4.04321e-59
3.97321e-59
3.9983e-59
3.97212e-59
3.91688e-59
3.95012e-59
4.0185e-59
3.95229e-59
4.06809e-59
3.95517e-59
4.01519e-59
4.01969e-59
3.98706e-59
4.02939e-59
4.04795e-59
3.83166e-59
3.83387e-59
3.84213e-59
3.87858e-59
3.87958e-59
3.88185e-59
3.80628e-59
3.89335e-59
3.92045e-59
3.83379e-59
3.89602e-59
3.92414e-59
3.80453e-59
3.93729e-59
3.92232e-59
3.98575e-59
3.89383e-59
3.91883e-59
3.87811e-59
3.95192e-59
2.43793e-59
2.45891e-59
2.45687e-59
2.43197e-59
2.4526e-59
2.44744e-59
2.45149e-59
2.45594e-59
2.43409e-59
2.47706e-59
2.42346e-59
2.47941e-59
2.42789e-59
2.50413e-59
2.43455e-59
2.43892e-59
2.44139e-59
2.48834e-59
2.45358e-59
2.50381e-59
4.82334e-72
4.78104e-72
4.81931e-72
4.7544e-72
4.75751e-72
4.82431e-72
4.80409e-72
4.69798e-72
4.73548e-72
4.86032e-72
4.76666e-72
4.8544e-72
4.78687e-72
4.85952e-72
4.73668e-72
4.88637e-72
4.7257e-72
4.78189e-72
4.76628e-72
4.65739e-72
1.84175e-69
1.82621e-69
1.84056e-69
1.81623e-69
1.81686e-69
1.84269e-69
1.83487e-69
1.79461e-69
1.80888e-69
1.85645e-69
1.8208e-69
1.85392e-69
1.82881e-69
1.85612e-69
1.80949e-69
1.86623e-69
1.80551e-69
1.82679e-69
1.82049e-69
1.77894e-69
3.52921e-67
3.50062e-67
3.52761e-67
3.48185e-67
3.48199e-67
3.5321e-67
3.51692e-67
3.44028e-67
3.46756e-67
3.55849e-67
3.49042e-67
3.55312e-67
3.5063e-67
3.55781e-67
3.46901e-67
3.57688e-67
3.46181e-67
3.50221e-67
3.48948e-67
3.40998e-67
4.00424e-65
3.97316e-65
4.00319e-65
3.95222e-65
3.9512e-65
4.00872e-65
3.99129e-65
3.90492e-65
3.93581e-65
4.03865e-65
3.96172e-65
4.03195e-65
3.98033e-65
4.03777e-65
3.93768e-65
4.05904e-65
3.93e-65
3.97538e-65
3.96023e-65
3.87018e-65
3.16859e-63
3.1451e-63
3.16837e-63
3.12878e-63
3.12703e-63
3.17306e-63
3.15911e-63
3.09125e-63
3.11568e-63
3.19673e-63
3.13614e-63
3.19095e-63
3.15131e-63
3.19595e-63
3.11729e-63
3.21243e-63
3.11165e-63
3.14714e-63
3.13462e-63
3.06358e-63
1.75926e-61
1.74682e-61
1.75947e-61
1.73789e-61
1.7364e-61
1.76222e-61
1.75441e-61
1.717e-61
1.73058e-61
1.77534e-61
1.74189e-61
1.77186e-61
1.75054e-61
1.77484e-61
1.73148e-61
1.78376e-61
1.72862e-61
1.74804e-61
1.74082e-61
1.70155e-61
6.71916e-60
6.67402e-60
6.72119e-60
6.6403e-60
6.63261e-60
6.73217e-60
6.70214e-60
6.56044e-60
6.61258e-60
6.78212e-60
6.6554e-60
6.7678e-60
6.68917e-60
6.77992e-60
6.61571e-60
6.81289e-60
6.60601e-60
6.67881e-60
6.65029e-60
6.50146e-60
1.68902e-58
1.67827e-58
1.68983e-58
1.66985e-58
1.66744e-58
1.69264e-58
1.68509e-58
1.64979e-58
1.6631e-58
1.7051e-58
1.67367e-58
1.70127e-58
1.68224e-58
1.70444e-58
1.66359e-58
1.71233e-58
1.66156e-58
1.67936e-58
1.67202e-58
1.63519e-58
1.19461e-57
1.18766e-57
1.19562e-57
1.18174e-57
1.17968e-57
1.19753e-57
1.19228e-57
1.16763e-57
1.17747e-57
1.20623e-57
1.18465e-57
1.20341e-57
1.19058e-57
1.20565e-57
1.17723e-57
1.21074e-57
1.17628e-57
1.18823e-57
1.18301e-57
1.15769e-57
3.8789e-58
3.88212e-58
3.91038e-58
3.85333e-58
3.85193e-58
3.8794e-58
3.88535e-58
3.81797e-58
3.91826e-58
3.88752e-58
3.90036e-58
3.89892e-58
3.86647e-58
3.87745e-58
3.81988e-58
3.84791e-58
3.86374e-58
3.84071e-58
3.84962e-58
3.8657e-58
6.9856e-58
7.01852e-58
7.08954e-58
6.96558e-58
6.93361e-58
6.94458e-58
6.99297e-58
6.89901e-58
7.08868e-58
7.0586e-58
7.08454e-58
7.03e-58
7.0214e-58
6.95962e-58
6.90984e-58
6.94916e-58
6.88501e-58
6.92021e-58
6.95649e-58
6.94769e-58
7.54708e-58
7.58565e-58
7.6312e-58
7.48993e-58
7.51143e-58
7.4235e-58
7.56216e-58
7.48677e-58
7.55203e-58
7.70191e-58
7.61087e-58
7.48982e-58
7.63163e-58
7.56603e-58
7.53703e-58
7.5874e-58
7.35067e-58
7.51091e-58
7.45312e-58
7.45107e-58
9.01454e-58
9.07004e-58
9.09814e-58
9.10025e-58
9.12568e-58
9.2054e-58
9.2924e-58
9.16145e-58
9.13954e-58
9.02454e-58
9.03382e-58
9.05567e-58
9.14289e-58
9.1814e-58
9.05182e-58
9.11328e-58
9.12885e-58
9.08083e-58
9.00419e-58
9.04804e-58
9.45422e-58
9.39003e-58
9.43124e-58
9.58978e-58
9.54115e-58
9.63118e-58
9.46467e-58
9.6621e-58
9.4098e-58
9.30459e-58
9.31512e-58
9.40447e-58
9.39531e-58
9.29552e-58
9.26298e-58
9.35873e-58
9.24598e-58
9.41402e-58
9.34515e-58
9.47728e-58
9.94159e-58
9.89928e-58
1.00468e-57
9.93411e-58
9.91422e-58
1.00906e-57
9.99687e-58
1.01772e-57
9.95306e-58
1.01071e-57
1.00289e-57
1.00632e-57
1.00649e-57
1.0144e-57
1.00335e-57
1.02145e-57
9.9972e-58
9.88502e-58
9.99348e-58
9.92174e-58
9.64661e-58
9.54298e-58
9.49906e-58
9.52197e-58
9.6167e-58
9.68673e-58
9.65698e-58
9.6207e-58
9.46634e-58
9.50444e-58
9.39841e-58
9.6281e-58
9.65731e-58
9.73341e-58
9.73113e-58
9.67321e-58
9.63319e-58
9.67476e-58
9.58258e-58
9.60211e-58
9.14011e-58
9.29034e-58
9.14372e-58
9.38399e-58
9.12004e-58
9.31016e-58
9.15847e-58
9.30234e-58
9.19618e-58
9.27623e-58
9.21069e-58
9.41332e-58
9.21931e-58
9.44489e-58
9.2179e-58
9.2899e-58
9.3243e-58
9.11798e-58
9.35308e-58
9.34671e-58
8.10888e-58
8.33183e-58
8.28362e-58
8.18705e-58
8.13228e-58
8.39443e-58
8.24954e-58
8.30194e-58
8.2485e-58
8.13403e-58
8.20239e-58
8.34344e-58
8.2074e-58
8.44518e-58
8.21373e-58
8.33723e-58
8.34555e-58
8.27974e-58
8.36541e-58
8.40492e-58
8.01734e-58
8.02192e-58
8.04049e-58
8.1152e-58
8.1163e-58
8.12106e-58
7.96373e-58
8.14749e-58
8.20149e-58
8.02218e-58
8.15142e-58
8.21053e-58
7.96102e-58
8.23706e-58
8.20679e-58
8.33759e-58
8.14787e-58
8.1975e-58
8.11309e-58
8.266e-58
5.07158e-58
5.11532e-58
5.11171e-58
5.05958e-58
5.10158e-58
5.09114e-58
5.099e-58
5.10922e-58
5.06225e-58
5.15209e-58
5.04088e-58
5.15657e-58
5.05047e-58
5.20815e-58
5.06429e-58
5.07344e-58
5.07791e-58
5.17535e-58
5.10357e-58
5.2072e-58
1.16028e-70
1.15048e-70
1.15956e-70
1.14423e-70
1.14465e-70
1.16095e-70
1.15601e-70
1.13065e-70
1.13961e-70
1.16967e-70
1.14714e-70
1.16807e-70
1.15219e-70
1.16943e-70
1.14e-70
1.17581e-70
1.13741e-70
1.15086e-70
1.14688e-70
1.12062e-70
4.3592e-68
4.32389e-68
4.35737e-68
4.30088e-68
4.3011e-68
4.36312e-68
4.34431e-68
4.24967e-68
4.28319e-68
4.39589e-68
4.31155e-68
4.38924e-68
4.33118e-68
4.39491e-68
4.28506e-68
4.41855e-68
4.2758e-68
4.32592e-68
4.31015e-68
4.2115e-68
8.20993e-66
8.14632e-66
8.20821e-66
8.10375e-66
8.10174e-66
8.21991e-66
8.18408e-66
8.007e-66
8.06999e-66
8.2817e-66
8.12341e-66
8.26795e-66
8.16168e-66
8.27971e-66
8.07414e-66
8.32356e-66
8.0577e-66
8.15121e-66
8.12005e-66
7.93437e-66
9.17786e-64
9.11002e-64
9.17788e-64
9.06323e-64
9.05826e-64
9.19187e-64
9.15135e-64
8.95473e-64
9.02501e-64
9.26092e-64
9.08467e-64
9.24415e-64
9.12882e-64
9.25845e-64
9.03016e-64
9.30659e-64
9.01294e-64
9.11639e-64
9.07998e-64
8.87261e-64
7.13851e-62
7.08834e-62
7.14002e-62
7.05248e-62
7.04651e-62
7.15155e-62
7.11971e-62
6.96787e-62
7.0225e-62
7.20523e-62
7.06879e-62
7.19108e-62
7.10417e-62
7.2031e-62
7.0268e-62
7.23977e-62
7.01441e-62
7.0939e-62
7.06443e-62
6.90349e-62
3.90235e-60
3.87632e-60
3.90396e-60
3.85697e-60
3.85257e-60
3.91056e-60
3.89301e-60
3.81061e-60
3.84052e-60
3.93986e-60
3.8657e-60
3.93152e-60
3.88555e-60
3.93854e-60
3.84289e-60
3.95808e-60
3.83671e-60
3.87953e-60
3.86284e-60
3.77519e-60
1.46633e-58
1.45709e-58
1.46723e-58
1.4499e-58
1.44781e-58
1.46981e-58
1.46317e-58
1.43246e-58
1.44376e-58
1.48078e-58
1.45314e-58
1.47742e-58
1.46077e-58
1.48022e-58
1.44459e-58
1.48732e-58
1.44253e-58
1.45832e-58
1.45186e-58
1.41915e-58
3.62332e-57
3.60181e-57
3.62622e-57
3.58414e-57
3.57796e-57
3.63265e-57
3.61626e-57
3.54106e-57
3.56943e-57
3.65957e-57
3.59219e-57
3.65076e-57
3.61121e-57
3.65796e-57
3.57084e-57
3.67465e-57
3.56665e-57
3.60456e-57
3.58827e-57
3.50863e-57
2.52421e-56
2.51063e-56
2.52719e-56
2.49838e-56
2.49335e-56
2.53147e-56
2.52027e-56
2.46854e-56
2.48919e-56
2.55001e-56
2.50443e-56
2.54363e-56
2.51741e-56
2.54863e-56
2.48896e-56
2.55924e-56
2.48703e-56
2.51211e-56
2.50073e-56
2.44671e-56
7.94542e-57
7.95243e-57
8.01127e-57
7.89424e-57
7.89007e-57
7.94614e-57
7.95786e-57
7.82146e-57
8.02732e-57
7.9643e-57
7.99069e-57
7.98625e-57
7.9217e-57
7.94246e-57
7.82628e-57
7.88087e-57
7.91404e-57
7.86761e-57
7.8863e-57
7.91862e-57
1.44627e-56
1.45296e-56
1.4677e-56
1.44196e-56
1.43548e-56
1.43758e-56
1.44752e-56
1.42834e-56
1.46738e-56
1.4614e-56
1.46657e-56
1.45518e-56
1.45364e-56
1.44094e-56
1.43067e-56
1.43864e-56
1.42522e-56
1.43258e-56
1.44006e-56
1.43802e-56
1.55565e-56
1.56345e-56
1.57291e-56
1.54386e-56
1.5484e-56
1.53059e-56
1.55899e-56
1.54372e-56
1.55642e-56
1.58723e-56
1.56841e-56
1.5437e-56
1.57287e-56
1.5597e-56
1.55363e-56
1.56401e-56
1.5157e-56
1.54804e-56
1.53655e-56
1.53596e-56
1.86414e-56
1.87503e-56
1.88111e-56
1.88191e-56
1.88701e-56
1.90359e-56
1.92066e-56
1.89457e-56
1.88973e-56
1.86591e-56
1.86775e-56
1.8724e-56
1.89028e-56
1.89807e-56
1.87176e-56
1.88414e-56
1.88719e-56
1.8778e-56
1.86183e-56
1.87106e-56
1.9493e-56
1.93581e-56
1.94432e-56
1.97666e-56
1.96683e-56
1.98541e-56
1.95107e-56
1.99184e-56
1.93954e-56
1.91873e-56
1.92049e-56
1.93904e-56
1.93692e-56
1.91658e-56
1.9101e-56
1.92967e-56
1.90637e-56
1.9408e-56
1.92697e-56
1.95365e-56
2.0575e-56
2.04867e-56
2.07893e-56
2.05549e-56
2.05193e-56
2.08822e-56
2.06864e-56
2.10592e-56
2.05997e-56
2.09176e-56
2.07539e-56
2.08247e-56
2.08284e-56
2.0997e-56
2.07667e-56
2.11363e-56
2.06908e-56
2.04579e-56
2.06824e-56
2.05301e-56
1.99169e-56
1.97084e-56
1.96125e-56
1.96632e-56
1.98553e-56
1.99995e-56
1.99374e-56
1.9864e-56
1.95499e-56
1.96259e-56
1.94073e-56
1.98784e-56
1.99405e-56
2.00937e-56
2.00916e-56
1.99687e-56
1.98903e-56
1.99771e-56
1.97887e-56
1.98284e-56
1.89627e-56
1.92755e-56
1.89709e-56
1.94639e-56
1.89172e-56
1.93092e-56
1.8997e-56
1.9295e-56
1.90777e-56
1.92451e-56
1.91068e-56
1.95283e-56
1.91251e-56
1.95902e-56
1.91247e-56
1.92676e-56
1.93433e-56
1.89172e-56
1.94023e-56
1.93893e-56
1.6808e-56
1.72638e-56
1.71674e-56
1.69662e-56
1.68554e-56
1.73919e-56
1.70929e-56
1.72019e-56
1.70932e-56
1.68562e-56
1.69967e-56
1.72869e-56
1.70081e-56
1.74952e-56
1.70223e-56
1.72757e-56
1.72906e-56
1.71585e-56
1.7331e-56
1.7415e-56
1.67411e-56
1.67502e-56
1.67918e-56
1.69447e-56
1.6945e-56
1.69546e-56
1.66278e-56
1.70149e-56
1.71221e-56
1.67519e-56
1.70198e-56
1.71437e-56
1.66243e-56
1.71969e-56
1.71363e-56
1.74052e-56
1.70145e-56
1.71125e-56
1.69378e-56
1.7254e-56
1.05424e-56
1.06337e-56
1.06275e-56
1.05181e-56
1.06036e-56
1.05826e-56
1.0598e-56
1.0621e-56
1.052e-56
1.0708e-56
1.04772e-56
1.07163e-56
1.04982e-56
1.08239e-56
1.05265e-56
1.05455e-56
1.05538e-56
1.07558e-56
1.06078e-56
1.08214e-56
2.78849e-69
2.76586e-69
2.78738e-69
2.75126e-69
2.75144e-69
2.79118e-69
2.77913e-69
2.7186e-69
2.73995e-69
2.81227e-69
2.75816e-69
2.80801e-69
2.77072e-69
2.81156e-69
2.74117e-69
2.82672e-69
2.73503e-69
2.7672e-69
2.75709e-69
2.69377e-69
1.03041e-66
1.02243e-66
1.03023e-66
1.01713e-66
1.01689e-66
1.03175e-66
1.02724e-66
1.00502e-66
1.01288e-66
1.03955e-66
1.01962e-66
1.03782e-66
1.02443e-66
1.03926e-66
1.01342e-66
1.04479e-66
1.01127e-66
1.02306e-66
1.01914e-66
9.95726e-67
1.90698e-64
1.89292e-64
1.90709e-64
1.88328e-64
1.88227e-64
1.91009e-64