/*--------------------------------*- C++ -*----------------------------------*\
| =========                 |                                                 |
| \\      /  F ield         | OpenFOAM: The Open Source CFD Toolbox           |
|  \\    /   O peration     | Version:  2212                                  |
|   \\  /    A nd           | Website:  www.openfoam.com                      |
|    \\/     M anipulation  |                                                 |
\*---------------------------------------------------------------------------*/
FoamFile
{
    version     2.0;
    format      ascii;
    arch        "LSB;label=32;scalar=64";
    class       surfaceScalarField;
    location    "0.0008";
    object      phi;
}
// * * * * * * * * * * * * * * * * * * * * * * * * * * * * * * * * * * * * * //

dimensions      [1 0 -1 0 0 0 0];

oriented        oriented;

internalField   nonuniform List<scalar> 
4475
(
-1.18208e-07
1.19859e-07
-1.41826e-07
1.43691e-07
-1.98208e-08
1.17124e-07
1.63956e-09
-9.6044e-08
-3.36659e-07
3.84563e-07
-8.73572e-09
-3.1972e-08
4.11168e-08
-1.0807e-07
-3.08151e-08
1.01417e-07
9.31849e-08
-8.384e-08
-8.81623e-08
8.2443e-08
-7.54507e-08
6.43878e-08
8.48026e-08
-7.13785e-08
1.94058e-08
-1.60894e-08
-1.13075e-07
1.12802e-07
7.66185e-08
9.2299e-08
-8.6226e-08
-7.95851e-08
-8.68101e-08
9.92838e-08
8.4797e-08
6.66299e-08
1.27647e-09
-7.86915e-09
-5.78034e-08
1.12511e-08
-9.62323e-09
6.75769e-08
7.74971e-08
-1.01477e-08
5.79131e-09
-7.0488e-08
8.11665e-08
-3.01224e-09
2.04581e-09
8.45142e-08
-1.51385e-09
9.15424e-10
8.72957e-08
-9.47549e-10
9.18231e-10
8.90762e-08
-4.95372e-10
1.34562e-09
-6.53418e-11
8.72787e-08
4.27906e-09
-8.69862e-08
6.60823e-09
8.63674e-08
-3.98093e-09
-8.8976e-08
4.27256e-09
-8.69364e-08
1.52404e-10
-8.42423e-08
-8.17149e-10
-8.12731e-08
-1.66508e-09
-7.84423e-08
-2.99833e-09
-8.14047e-08
-4.11704e-09
-6.97022e-08
2.54032e-09
-6.37892e-08
-2.14122e-09
-7.70799e-08
-9.5884e-09
2.55374e-08
-7.0498e-08
-1.44679e-09
-2.23321e-09
-1.1493e-07
1.17615e-07
2.02215e-08
8.70349e-08
9.03397e-09
-6.69613e-08
-9.40561e-10
4.6441e-11
-6.39832e-08
-7.67591e-10
2.92727e-10
-6.13622e-08
-6.0746e-10
4.27926e-10
-5.87709e-08
-6.3643e-10
4.4796e-10
-5.63442e-08
-3.92942e-10
3.44174e-10
-5.38337e-08
-4.1514e-10
2.68671e-10
-5.13714e-08
-3.37494e-10
2.28201e-10
-4.89358e-08
-2.1589e-10
1.19837e-10
-4.65365e-08
-1.21878e-10
4.78942e-11
-4.41054e-08
-1.5362e-10
2.79426e-11
-4.17465e-08
-8.0401e-11
1.74252e-12
-3.93678e-08
-7.06946e-11
-4.96598e-11
-3.69721e-08
-7.10316e-11
-8.73103e-11
-3.46397e-08
5.61228e-12
-1.07425e-10
1.09343e-10
-3.24006e-08
-7.91165e-11
3.4601e-08
-3.2166e-08
-6.32589e-11
3.6979e-08
-1.42895e-10
3.92186e-08
-7.59677e-11
4.16011e-08
-2.0188e-10
4.39585e-08
-1.61891e-10
4.62869e-08
-1.84074e-10
4.85756e-08
-9.44492e-11
5.12079e-08
-5.13282e-10
5.3587e-08
-3.64613e-10
5.59437e-08
-4.14573e-10
5.86078e-08
-6.84337e-10
6.10786e-08
-7.10383e-10
6.37587e-08
-8.43234e-10
6.64902e-08
-9.97039e-10
7.00174e-08
-1.83439e-09
7.60824e-08
-4.62109e-09
6.20791e-08
-1.46155e-08
3.12432e-08
6.74948e-08
-1.089e-08
6.79393e-08
-7.73584e-09
7.14856e-08
-3.23401e-09
1.89169e-09
7.79889e-08
1.67656e-09
8.14784e-08
1.17074e-09
8.47149e-08
3.83072e-10
8.74239e-08
9.13491e-10
8.86757e-08
2.71182e-09
9.01221e-08
5.33943e-09
-1.70157e-11
-9.96599e-11
-2.98814e-08
-1.3484e-11
-2.97773e-08
-8.94179e-08
8.69736e-09
8.76988e-08
-8.74063e-08
1.00228e-09
-8.46164e-08
-7.326e-10
-8.15431e-08
-1.88324e-09
-7.94699e-08
-2.20901e-09
-7.85314e-08
-2.1375e-09
-7.24115e-08
-7.21193e-10
-6.97555e-08
-2.10376e-09
-7.25808e-08
-4.13785e-09
-6.98548e-08
-2.30968e-09
-6.65915e-08
-6.38725e-10
-6.38423e-08
5.49647e-11
-6.12648e-08
2.77117e-10
-5.87995e-08
3.76348e-10
-5.63351e-08
2.43946e-10
-5.38042e-08
9.26002e-11
-5.13884e-08
1.56855e-10
-4.8929e-08
-2.66681e-12
-4.64983e-08
-5.99617e-11
-4.4075e-08
-9.3665e-11
-4.17379e-08
-5.48569e-11
-3.93825e-08
-1.46164e-10
-3.70647e-08
-1.65913e-10
-3.47345e-08
-2.02701e-10
-3.2352e-08
-1.92962e-10
1.02987e-08
8.79148e-08
-9.92769e-09
-1.44366e-10
-2.99054e-08
1.78451e-08
8.13687e-08
9.01267e-08
1.13505e-08
3.20733e-08
-2.96915e-08
-5.03095e-12
3.44711e-08
-2.0508e-10
3.66599e-08
-1.13649e-10
3.90581e-08
-2.52561e-10
4.13079e-08
-2.10613e-10
4.36017e-08
-1.92861e-10
4.59611e-08
-2.56936e-10
4.85406e-08
-3.58829e-10
5.07818e-08
-4.19783e-10
5.31825e-08
-4.20797e-10
5.57804e-08
-6.57703e-10
5.82035e-08
-7.41081e-10
6.07305e-08
-8.40003e-10
6.33402e-08
-1.00255e-09
6.62417e-08
-1.39782e-09
6.93271e-08
-2.36689e-09
7.20682e-08
-4.7467e-09
6.82741e-08
-8.20859e-09
6.81313e-08
-8.16343e-09
6.99032e-08
-6.98329e-09
7.29201e-08
-3.73305e-09
7.80604e-08
-8.87534e-10
8.21307e-08
-2.45187e-10
8.53616e-08
-1.36846e-10
8.85027e-08
4.7536e-10
9.08147e-08
3.05941e-09
9.20612e-08
6.65455e-09
9.53869e-08
-1.25708e-07
1.11042e-07
-5.34684e-08
9.48908e-08
3.67594e-08
-7.63492e-08
6.28159e-08
5.27229e-08
-6.71818e-08
-4.67659e-08
-6.44254e-08
-1.02264e-07
-7.43159e-09
1.55467e-08
9.71374e-08
-9.1848e-08
1.47558e-09
-8.85098e-08
6.81994e-10
-8.50654e-08
-1.26002e-09
-8.22065e-08
-1.86843e-09
-7.96404e-08
-1.91106e-09
-7.73068e-08
-1.64817e-09
-7.40146e-08
-1.25625e-09
-7.16026e-08
-1.80472e-09
-7.07702e-08
-2.36816e-09
-6.88743e-08
-1.67108e-09
-6.63439e-08
-7.22302e-10
-6.37528e-08
-1.25199e-10
-6.12603e-08
1.84118e-10
-5.86649e-08
1.52748e-10
-5.62053e-08
1.31474e-10
-5.37972e-08
1.58644e-11
-5.12351e-08
-6.99106e-11
-4.87744e-08
-1.32167e-10
-4.63333e-08
-1.83222e-10
-4.40332e-08
-9.48772e-11
-4.16233e-08
-1.89584e-10
-3.92597e-08
-2.56424e-10
-3.70003e-08
-1.93169e-10
-3.47558e-08
-2.18947e-10
-3.23868e-08
-2.97628e-10
-2.98522e-08
-2.8276e-10
1.84075e-10
-2.71006e-08
-2.26738e-10
6.58927e-11
-2.70738e-08
-4.84724e-11
-2.70517e-08
-1.06734e-10
-2.70064e-08
8.59197e-08
-8.12024e-08
9.1341e-08
-2.69195e-08
-1.70105e-10
1.04864e-07
1.13022e-07
-1.17231e-07
8.04995e-08
-1.4298e-07
-6.64127e-08
1.32782e-07
2.22137e-08
8.78332e-08
-9.99912e-08
7.9583e-08
-1.12276e-07
1.37098e-07
-8.63674e-08
-8.23166e-08
8.8423e-08
1.11407e-07
2.04207e-09
-2.33252e-08
9.42418e-08
1.15977e-08
5.50099e-11
-1.66754e-10
-2.37046e-08
-1.85682e-11
-2.37124e-08
-1.06585e-10
-2.36752e-08
-1.15347e-10
-2.37055e-08
-1.34205e-10
-2.36152e-08
2.68797e-08
-1.64134e-10
-2.35642e-08
2.94816e-08
-6.91975e-11
3.20265e-08
-1.67721e-10
3.41916e-08
-1.2386e-10
3.6562e-08
-2.76899e-10
3.87624e-08
-2.41717e-10
4.1003e-08
-2.23526e-10
4.32185e-08
-1.59509e-10
4.55427e-08
-3.09451e-10
4.79629e-08
-4.80622e-10
5.03821e-08
-5.15489e-10
5.28796e-08
-5.7708e-10
5.5279e-08
-7.0825e-10
5.77319e-08
-8.42257e-10
6.02503e-08
-9.5974e-10
6.2799e-08
-1.10675e-09
6.55387e-08
-1.671e-09
6.80759e-08
-2.38555e-09
6.97282e-08
-3.83336e-09
6.95316e-08
-5.47255e-09
7.04139e-08
-6.45655e-09
7.13936e-08
-5.31453e-09
7.43188e-08
-3.9756e-09
7.83382e-08
-2.18765e-09
8.20429e-08
-1.23223e-09
8.57566e-08
-1.13691e-09
8.91612e-08
-2.13413e-10
9.26625e-08
2.22502e-09
6.51773e-09
9.53557e-08
-7.03399e-09
6.67738e-09
1.0342e-07
-1.00487e-07
-1.34048e-07
1.63637e-07
-1.4368e-07
1.17981e-07
-8.43426e-08
8.26124e-08
-8.32476e-08
-1.06765e-07
1.10101e-09
-1.6488e-08
-1.11014e-07
-1.31587e-08
2.04931e-08
-1.09861e-07
-1.41677e-08
-1.05893e-07
-1.13248e-08
1.02166e-08
-1.01981e-07
-8.29789e-09
-9.95786e-08
-6.55402e-09
6.77574e-09
-9.91824e-08
-5.00112e-09
-9.293e-08
-1.77383e-09
-8.86211e-08
-6.25601e-10
-8.53288e-08
-1.6157e-09
-8.24848e-08
-1.80704e-09
-7.96997e-08
-1.84171e-09
-7.71819e-08
-1.33144e-09
-7.43095e-08
-1.48911e-09
-7.2042e-08
-1.61735e-09
-7.03363e-08
-1.67785e-09
-6.83273e-08
-1.30425e-09
-6.58979e-08
-7.83166e-10
-6.33591e-08
-3.18151e-10
-6.0974e-08
1.23417e-10
-5.83899e-08
-1.21244e-10
-5.5971e-08
2.39821e-11
-5.34592e-08
-1.65164e-10
-5.09772e-08
-2.17655e-10
-4.8501e-08
-2.85705e-10
-4.62392e-08
-1.35418e-10
-4.38005e-08
-2.46912e-10
-4.14098e-08
-3.26677e-10
-3.92003e-08
-2.32428e-10
-3.6984e-08
-1.86449e-10
-3.46643e-08
-3.18534e-10
-3.23666e-08
-3.35297e-10
-2.99296e-08
-3.23324e-10
-2.71623e-08
-2.81732e-10
-1.93621e-10
-2.3842e-08
-5.49962e-08
-3.85673e-07
3.15937e-07
1.28917e-07
1.11702e-07
-1.01754e-07
2.07271e-07
-2.07548e-07
-6.77589e-08
7.10503e-08
4.44249e-09
-9.51075e-08
-6.44012e-09
1.00516e-07
3.81544e-07
7.94539e-08
-1.62853e-07
-2.92541e-07
1.03186e-07
9.46521e-08
2.09278e-08
9.78584e-08
1.01195e-07
1.10891e-08
-1.03171e-07
2.66481e-08
-2.34249e-08
-1.1746e-10
2.94597e-08
-1.87557e-10
3.17353e-08
-7.09979e-11
3.41473e-08
-3.01207e-10
3.63009e-08
-2.3235e-10
3.84988e-08
-2.41768e-10
4.07249e-08
-2.34549e-10
4.30236e-08
-2.18099e-10
4.53736e-08
-3.92598e-10
4.76401e-08
-4.52917e-10
5.00009e-08
-5.57835e-10
5.24255e-08
-6.63396e-10
5.47809e-08
-7.12764e-10
5.72872e-08
-9.86225e-10
5.97767e-08
-1.0381e-09
6.24112e-08
-1.29053e-09
6.48081e-08
-1.58791e-09
6.71597e-08
-2.22022e-09
6.89252e-08
-3.06829e-09
7.00368e-08
-4.04533e-09
7.11021e-08
-4.94638e-09
7.24517e-08
-4.01648e-09
7.52431e-08
-4.05414e-09
7.88337e-08
-3.05878e-09
8.24243e-08
-2.07483e-09
8.60879e-08
-2.04904e-09
8.98245e-08
-1.22665e-09
9.34095e-08
1.28209e-09
9.80248e-08
4.44543e-09
1.06694e-08
9.87568e-08
1.00587e-07
8.90874e-08
-1.06101e-07
6.31153e-08
1.38328e-07
-1.35986e-07
-6.17264e-08
-1.14203e-07
-7.26596e-09
1.26718e-07
-1.12599e-07
-1.1101e-08
-1.10057e-07
-1.34e-08
-1.06197e-07
-1.22296e-08
-1.02815e-07
-9.02819e-09
-1.00024e-07
-6.76256e-09
-9.73803e-08
-4.9108e-09
-9.32116e-08
-3.03331e-09
-8.88681e-08
-2.00662e-09
-8.56976e-08
-1.83823e-09
-8.24772e-08
-2.14245e-09
-7.97951e-08
-1.70619e-09
-7.70531e-08
-1.41933e-09
-7.44901e-08
-1.5429e-09
-7.21946e-08
-1.51891e-09
-7.00872e-08
-1.45971e-09
-6.79177e-08
-1.17701e-09
-6.56648e-08
-7.40084e-10
-6.33255e-08
-3.47998e-10
-6.06669e-08
-2.27086e-10
-5.82666e-08
-2.09341e-10
-5.56317e-08
-2.89776e-10
-5.31384e-08
-3.27797e-10
-5.06522e-08
-3.62553e-10
-4.84145e-08
-1.85166e-10
-4.59617e-08
-2.66505e-10
-4.3543e-08
-3.69558e-10
-4.13351e-08
-2.57722e-10
-3.91485e-08
-1.66573e-10
-3.68122e-08
-2.886e-10
-3.45305e-08
-3.67522e-10
-3.22929e-08
-3.0146e-10
-2.98662e-08
-3.43152e-10
-2.71557e-08
-2.68681e-10
-2.38123e-08
-2.36086e-10
1.40994e-10
-1.66386e-10
-1.97004e-08
9.5105e-11
-1.97111e-08
2.14792e-11
-1.957e-08
-4.88977e-11
-1.95741e-08
-2.80199e-11
-1.96213e-08
-1.37476e-10
-1.95231e-08
-2.05524e-10
-1.94783e-08
-2.26785e-10
-1.9472e-08
-1.94084e-08
-1.83076e-10
2.19962e-07
7.51071e-08
-8.50077e-08
-2.36309e-09
-8.51006e-09
3.40513e-07
-3.23869e-07
1.22364e-07
-6.19509e-08
7.17211e-08
-1.32226e-07
1.29371e-07
9.01483e-08
-1.30544e-07
-1.28714e-07
1.45002e-07
4.53659e-08
-5.92755e-08
-1.74782e-07
1.01355e-07
9.79949e-09
1.73576e-08
1.04736e-07
9.24049e-08
9.80121e-08
-8.63929e-08
1.06197e-07
7.95107e-08
-5.23721e-08
1.49459e-07
-9.16812e-08
1.12944e-07
-1.67206e-07
-7.89395e-08
-8.86254e-08
-1.16582e-07
1.223e-07
-9.07061e-09
-1.11379e-07
-1.24207e-08
-1.0861e-07
-1.26489e-08
-1.05611e-07
-1.21663e-08
-1.02626e-07
-9.33883e-09
-9.97333e-08
-7.10705e-09
-9.65692e-08
-5.41785e-09
-9.28954e-08
-3.87556e-09
-8.91244e-08
-2.85696e-09
-8.5679e-08
-2.3673e-09
-8.27632e-08
-2.20826e-09
-7.98154e-08
-1.8997e-09
-7.70557e-08
-1.58642e-09
-7.45411e-08
-1.60605e-09
-7.2152e-08
-1.54625e-09
-6.98927e-08
-1.40931e-09
-6.76536e-08
-1.12481e-09
-6.53483e-08
-7.45151e-10
-6.28158e-08
-5.61077e-10
-6.02712e-08
-4.35404e-10
-5.77556e-08
-3.80623e-10
-5.52957e-08
-3.89917e-10
-5.27934e-08
-4.54465e-10
-5.05471e-08
-2.38434e-10
-4.81073e-08
-2.69615e-10
-4.5609e-08
-4.41605e-10
-4.34315e-08
-2.51773e-10
-4.12587e-08
-1.54807e-10
-3.89122e-08
-2.60915e-10
-3.66328e-08
-3.36932e-10
-3.44878e-08
-2.81635e-10
-3.21531e-08
-3.66791e-10
-2.97947e-08
-2.98515e-10
-2.71049e-08
-2.36213e-10
-2.38002e-08
-2.36312e-10
-1.96927e-08
-1.82609e-10
1.07789e-10
-1.2337e-10
-1.48669e-08
8.93721e-11
-1.48721e-08
-2.0814e-12
-1.4818e-08
4.70037e-11
-1.48325e-08
3.08048e-11
-1.47779e-08
-6.85452e-11
-1.4734e-08
-1.20859e-10
-1.46918e-08
-1.17453e-10
-1.47e-08
-1.72027e-10
-1.46403e-08
-1.88868e-10
-1.46183e-08
1.92719e-08
-1.4528e-08
-1.82826e-10
2.33127e-08
-1.79961e-10
2.66244e-08
-1.63077e-10
2.93003e-08
-1.77238e-10
3.17848e-08
-1.86211e-10
3.39099e-08
-1.97257e-10
3.60906e-08
-2.27153e-10
3.82776e-08
-2.42158e-10
4.04501e-08
-2.03852e-10
4.28059e-08
-3.45218e-10
4.50712e-08
-4.00456e-10
4.7374e-08
-4.69003e-10
4.96606e-08
-5.29603e-10
5.20772e-08
-7.39788e-10
5.44896e-08
-7.63976e-10
5.68954e-08
-9.91448e-10
5.93419e-08
-1.0895e-09
6.18298e-08
-1.37986e-09
6.42719e-08
-1.59136e-09
6.65414e-08
-2.03814e-09
6.85465e-08
-2.61481e-09
7.02607e-08
-3.29901e-09
7.20702e-08
-4.28051e-09
7.38455e-08
-3.31701e-09
7.65465e-08
-4.21662e-09
7.94089e-08
-3.35483e-09
8.27706e-08
-2.79695e-09
8.63596e-08
-2.93323e-09
9.02342e-08
-2.36598e-09
9.49167e-08
-7.38454e-10
3.0364e-09
9.89034e-08
1.03624e-07
9.51668e-08
-1.05731e-07
1.51619e-08
1.0595e-07
1.19759e-07
1.78241e-08
-3.02747e-08
3.38962e-09
9.38085e-08
1.08109e-07
-1.17887e-07
1.11388e-07
8.96094e-08
-1.10587e-07
8.64773e-08
8.35223e-08
-9.62745e-08
1.24684e-07
7.24996e-08
-1.30458e-07
-5.10743e-09
-1.15675e-08
-1.22294e-07
-5.82082e-09
1.26656e-07
-1.15529e-07
-1.17376e-08
-1.10867e-07
-1.30944e-08
-1.07082e-07
-1.27712e-08
-1.0463e-07
-1.14352e-08
-1.01824e-07
-9.38105e-09
-9.90814e-08
-7.25337e-09
-9.57356e-08
-6.1114e-09
-9.23516e-08
-4.47305e-09
-8.8884e-08
-3.45186e-09
-8.5597e-08
-2.78074e-09
-8.2669e-08
-2.33345e-09
-7.97848e-08
-2.08595e-09
-7.70281e-08
-1.75869e-09
-7.4447e-08
-1.67497e-09
-7.20207e-08
-1.50541e-09
-6.96905e-08
-1.29772e-09
-6.72687e-08
-1.12442e-09
-6.48789e-08
-7.29939e-10
-6.23944e-08
-6.48466e-10
-5.99007e-08
-5.40725e-10
-5.7427e-08
-4.68808e-10
-5.49957e-08
-4.3058e-10
-5.26681e-08
-3.91852e-10
-5.02292e-08
-2.98779e-10
-4.77146e-08
-4.32776e-10
-4.557e-08
-2.63894e-10
-4.3377e-08
-1.44375e-10
-4.10033e-08
-2.55783e-10
-3.87062e-08
-3.13597e-10
-3.65737e-08
-2.41708e-10
-3.42778e-08
-3.5273e-10
-3.21139e-08
-2.6708e-10
-2.97756e-08
-2.34106e-10
-2.70201e-08
-2.71358e-10
-2.37496e-08
-2.0926e-10
-1.9678e-08
-1.65953e-10
-1.48709e-08
-1.21758e-10
5.51789e-11
-9.83257e-09
-7.78295e-11
3.04628e-11
-9.81933e-09
1.69587e-11
-9.82937e-09
6.30921e-12
-9.79811e-09
-5.67944e-11
-9.7634e-09
-5.35263e-11
-9.77727e-09
-6.54571e-11
-9.73403e-09
-6.70655e-11
-9.70902e-09
-1.12166e-10
-9.67314e-09
-1.17552e-10
-9.6594e-09
-1.58531e-10
-9.61104e-09
-1.7619e-10
-9.56555e-09
1.44509e-08
-9.52076e-09
-1.90608e-10
1.91879e-08
-1.88201e-10
2.32177e-08
-1.79042e-10
2.6486e-08
-1.79333e-10
2.91641e-08
-1.80967e-10
3.1516e-08
-1.85122e-10
3.37423e-08
-2.07848e-10
3.5919e-08
-2.28243e-10
3.81118e-08
-2.57475e-10
4.0376e-08
-2.70665e-10
4.25375e-08
-2.86213e-10
4.48351e-08
-4.51091e-10
4.71346e-08
-4.89498e-10
4.94705e-08
-5.53637e-10
5.17675e-08
-6.94093e-10
5.41677e-08
-7.94537e-10
5.65066e-08
-9.30253e-10
5.90508e-08
-1.19838e-09
6.14718e-08
-1.31867e-09
6.39405e-08
-1.56473e-09
6.62938e-08
-1.90757e-09
6.8489e-08
-2.35607e-09
7.05545e-08
-2.94411e-09
7.2301e-08
-3.65249e-09
7.49082e-08
-3.528e-09
7.71804e-08
-4.1235e-09
8.01075e-08
-3.81198e-09
8.31262e-08
-3.2319e-09
8.64612e-08
-3.62303e-09
9.01722e-08
-3.36858e-09
9.43333e-08
-2.17589e-09
6.0741e-10
9.94725e-08
1.02964e-07
8.25239e-09
1.00186e-07
1.04969e-07
9.97163e-08
1.09316e-07
-1.10144e-07
-5.02838e-08
-2.65973e-07
2.35072e-07
8.27984e-08
1.06212e-07
1.44356e-08
1.14912e-07
6.43824e-08
-3.7865e-08
1.20346e-07
8.09562e-08
1.1851e-07
9.14783e-08
1.93276e-09
3.44008e-08
8.54102e-08
4.10727e-08
9.49652e-08
-7.56506e-09
1.09667e-07
1.6516e-08
9.80804e-08
1.10281e-07
1.09767e-07
1.01751e-07
1.7083e-11
-6.20478e-11
-5.31056e-09
5.50584e-12
-5.3063e-09
-1.47541e-11
-5.29932e-09
-3.61803e-11
-5.27871e-09
-4.08726e-11
-5.27008e-09
-6.75629e-11
-5.25978e-09
-6.70696e-11
-5.25145e-09
-8.60102e-11
-5.21891e-09
-9.05105e-11
-5.20438e-09
-1.15606e-10
-5.17688e-09
-1.39217e-10
-5.14656e-09
-1.55039e-10
-5.12937e-09
-1.73624e-10
-5.12096e-09
9.52329e-09
-2.26596e-10
-5.1397e-09
1.44066e-08
-1.9077e-10
1.91314e-08
-2.03336e-10
2.31353e-08
-1.68052e-10
2.63958e-08
-2.01192e-10
2.9069e-08
-1.90538e-10
3.13965e-08
-1.69966e-10
3.36224e-08
-2.28105e-10
3.57765e-08
-2.16734e-10
3.79779e-08
-2.90934e-10
4.02006e-08
-3.0591e-10
4.24618e-08
-3.34046e-10
4.46305e-08
-3.80101e-10
4.69279e-08
-5.17365e-10
4.9247e-08
-5.68526e-10
5.15227e-08
-6.31498e-10
5.39097e-08
-8.0968e-10
5.6316e-08
-9.32308e-10
5.86405e-08
-1.08151e-09
6.11195e-08
-1.31441e-09
6.35833e-08
-1.50433e-09
6.60127e-08
-1.77468e-09
6.83765e-08
-2.13108e-09
7.06087e-08
-2.59747e-09
7.26522e-08
-3.14033e-09
7.47214e-08
-3.0456e-09
7.76252e-08
-4.46692e-09
8.00285e-08
-3.57037e-09
8.34196e-08
-3.88096e-09
8.64076e-08
-3.77545e-09
8.98416e-08
-3.92173e-09
9.4009e-08
-3.42544e-09
-2.15343e-09
9.97305e-08
6.08446e-09
1.04387e-07
-8.70536e-08
7.80264e-08
9.50114e-08
9.52685e-08
1.16291e-07
-8.78805e-08
2.94767e-08
-3.2469e-08
9.42248e-08
-3.78921e-07
2.20413e-08
3.78633e-07
-1.57552e-08
-1.14776e-07
-1.47555e-08
1.21775e-07
-1.1e-07
-1.38859e-08
-1.06439e-07
-1.26192e-08
-1.03565e-07
-1.10202e-08
-1.00691e-07
-9.35799e-09
-9.78928e-08
-7.32865e-09
-9.4802e-08
-6.47394e-09
-9.16267e-08
-4.85565e-09
-8.84152e-08
-3.84084e-09
-8.53051e-08
-3.09496e-09
-8.23515e-08
-2.56548e-09
-7.96333e-08
-2.16874e-09
-7.69295e-08
-1.89786e-09
-7.4354e-08
-1.73449e-09
-7.18505e-08
-1.52599e-09
-6.94071e-08
-1.28643e-09
-6.70789e-08
-1.0141e-09
-6.45351e-08
-8.42804e-10
-6.20537e-08
-7.06658e-10
-5.95842e-08
-5.94944e-10
-5.71349e-08
-5.05071e-10
-5.47208e-08
-4.33544e-10
-5.23464e-08
-3.65695e-10
-4.99627e-08
-3.03266e-10
-4.77565e-08
-2.84707e-10
-4.53853e-08
-3.11006e-10
-4.30926e-08
-1.46259e-10
-4.08036e-08
-2.82814e-10
-3.86532e-08
-2.25808e-10
-3.63714e-08
-3.03892e-10
-3.42397e-08
-2.6728e-10
-3.206e-08
-1.86823e-10
-2.96063e-08
-2.94146e-10
-2.6918e-08
-2.50574e-10
-2.36709e-08
-1.69461e-10
-1.96385e-08
-1.233e-10
-1.48367e-08
-1.34271e-10
-9.83654e-09
-9.97438e-11
-5.35046e-09
-1.19835e-10
1.0264e-07
1.15858e-07
-1.15361e-07
1.08262e-07
1.09414e-07
-3.33128e-07
1.11108e-08
-2.59158e-08
3.52113e-07
9.4079e-08
1.96933e-08
8.08053e-08
1.0674e-07
1.85211e-08
9.52851e-09
-5.19226e-09
-3.19453e-10
1.44172e-08
-2.49888e-10
1.90913e-08
-1.98137e-10
2.31256e-08
-2.05502e-10
2.63247e-08
-1.74546e-10
2.90103e-08
-2.24447e-10
3.13684e-08
-1.94453e-10
3.35324e-08
-1.96089e-10
3.57419e-08
-2.69668e-10
3.78601e-08
-2.51045e-10
4.00818e-08
-3.51106e-10
4.22999e-08
-3.50603e-10
4.4551e-08
-4.01348e-10
4.67559e-08
-4.62051e-10
4.90678e-08
-5.86682e-10
5.14104e-08
-6.42925e-10
5.37137e-08
-7.44317e-10
5.60769e-08
-8.91469e-10
5.84849e-08
-1.0473e-09
6.08785e-08
-1.21996e-09
6.33405e-08
-1.42906e-09
6.57872e-08
-1.64333e-09
6.82021e-08
-1.93266e-09
7.05313e-08
-2.303e-09
7.27705e-08
-2.76035e-09
7.55386e-08
-3.18127e-09
7.74787e-08
-3.77591e-09
8.00201e-08
-3.41166e-09
8.30444e-08
-4.13892e-09
8.62377e-08
-4.10462e-09
8.94078e-08
-4.16414e-09
9.343e-08
-4.43891e-09
9.94031e-08
-4.91033e-09
2.13803e-09
1.06821e-07
-8.50342e-08
7.22876e-08
-7.1282e-08
1.23471e-07
8.49967e-08
7.7464e-11
-1.72852e-10
-1.73963e-09
2.83823e-11
-1.67819e-09
2.61596e-12
-1.65379e-09
-2.04623e-11
-1.63895e-09
-2.74439e-11
-1.63332e-09
-3.0952e-11
-1.62938e-09
-4.21272e-11
-1.61825e-09
-6.09587e-11
-1.60465e-09
-6.60632e-11
-1.5947e-09
-7.85536e-11
-1.57916e-09
-9.13932e-11
-1.56271e-09
-1.00289e-10
-1.55202e-09
-1.26301e-10
-1.54685e-09
-1.81654e-10
-1.56034e-09
-2.76936e-10
-1.61276e-09
-4.21479e-10
-1.72416e-09
-1.07319e-07
8.11867e-08
1.07824e-07
-1.28016e-07
1.04413e-07
-1.25344e-07
9.16994e-08
-1.21646e-07
7.99008e-08
7.01998e-08
8.05759e-08
-7.34867e-08
-8.33439e-08
3.87716e-08
1.22894e-07
9.43111e-08
-8.78403e-08
-5.67963e-10
-4.23588e-09
3.97638e-08
9.50587e-08
-9.02139e-08
-1.11129e-07
-1.4461e-08
1.14597e-07
-1.07892e-07
-1.33716e-08
-1.04924e-07
-1.19714e-08
-1.02092e-07
-1.05348e-08
-9.94737e-08
-8.95945e-09
-9.64099e-08
-7.52045e-09
-9.37944e-08
-6.25189e-09
-9.07984e-08
-5.02415e-09
-8.78056e-08
-4.0427e-09
-8.48788e-08
-3.28898e-09
-8.20551e-08
-2.72719e-09
-7.93221e-08
-2.3072e-09
-7.66985e-08
-1.97711e-09
-7.41629e-08
-1.76198e-09
-7.17017e-08
-1.50301e-09
-6.92384e-08
-1.28427e-09
-6.67379e-08
-1.06093e-09
-6.42486e-08
-8.83334e-10
-6.17752e-08
-7.3754e-10
-5.93191e-08
-6.14651e-10
-5.68842e-08
-5.09909e-10
-5.44777e-08
-4.21783e-10
-5.2101e-08
-3.4503e-10
-4.97525e-08
-2.82355e-10
-4.74559e-08
-2.43045e-10
-4.52361e-08
-2.2256e-10
-4.29182e-08
-1.86853e-10
-4.07335e-08
-2.18323e-10
-3.8475e-08
-2.60156e-10
-3.63375e-08
-2.34673e-10
-3.42178e-08
-1.78963e-10
-3.18698e-08
-2.89309e-10
-2.95709e-08
-2.14062e-10
-2.69352e-08
-1.84762e-10
-2.36744e-08
-1.50326e-10
-1.95636e-08
-1.81204e-10
-1.48106e-08
-1.39737e-10
-9.85258e-09
-1.41785e-10
-5.41572e-09
-2.13653e-10
-1.85778e-09
-3.21615e-10
-2.54161e-08
-3.22388e-07
1.8332e-08
1.60947e-08
1.05509e-07
7.05743e-08
-3.92529e-08
1.03873e-07
1.25051e-07
-1.2298e-07
1.02478e-07
1.25396e-07
1.10501e-07
1.18073e-07
3.54217e-07
2.9378e-08
-3.67871e-07
-3.64015e-07
-2.96482e-08
3.42247e-07
-8.98775e-08
1.8474e-08
1.10551e-07
-8.74613e-09
1.14055e-07
-8.56117e-08
-6.15396e-08
6.64259e-08
7.86565e-08
2.33505e-07
-8.92011e-08
-5.49613e-08
8.17514e-08
8.29591e-08
-1.06267e-07
-1.43688e-08
3.6643e-07
3.21085e-08
-3.77746e-07
5.32539e-09
-1.90507e-09
-6.26937e-10
9.60615e-09
-4.52205e-10
1.44251e-08
-3.15679e-10
1.91125e-08
-2.54619e-10
2.30885e-08
-2.13657e-10
2.63415e-08
-2.19687e-10
2.89495e-08
-1.94501e-10
3.1306e-08
-2.31726e-10
3.35298e-08
-2.35585e-10
3.56617e-08
-2.56779e-10
3.78461e-08
-2.8947e-10
3.99837e-08
-3.24487e-10
4.21841e-08
-3.63444e-10
4.44091e-08
-4.10562e-10
4.66698e-08
-4.74883e-10
4.89227e-08
-5.56689e-10
5.12345e-08
-6.34706e-10
5.35819e-08
-7.31693e-10
5.59395e-08
-8.49021e-10
5.83049e-08
-9.73136e-10
6.0733e-08
-1.16453e-09
6.31622e-08
-1.32143e-09
6.56325e-08
-1.52353e-09
6.81056e-08
-1.7696e-09
7.04984e-08
-2.02822e-09
7.27616e-08
-2.35043e-09
7.51389e-08
-2.888e-09
7.77594e-08
-3.70198e-09
8.02777e-08
-3.18331e-09
8.29488e-08
-4.00974e-09
8.57861e-08
-4.06284e-09
8.89199e-08
-4.33147e-09
9.26103e-08
-5.04576e-09
9.65187e-08
-5.54828e-09
-9.37175e-09
1.00711e-07
-1.02338e-07
7.03776e-08
1.92719e-07
-1.69516e-07
9.95946e-08
-1.32167e-07
1.00644e-07
2.27183e-07
2.79173e-10
-5.0328e-10
8.791e-10
1.31963e-10
1.02821e-09
5.03064e-11
1.11678e-09
1.0369e-11
1.15745e-09
-9.78045e-12
1.175e-09
-2.00268e-11
1.1827e-09
-2.7019e-11
1.18536e-09
-3.29018e-11
1.19037e-09
-3.76657e-11
1.19986e-09
-4.3517e-11
1.20609e-09
-4.9981e-11
1.21411e-09
-6.02224e-11
1.22302e-09
-8.10469e-11
1.22628e-09
-1.26897e-10
1.21537e-09
-2.18756e-10
1.18063e-09
-3.75913e-10
1.09911e-09
-6.06623e-10
9.52347e-10
-8.76504e-10
7.4475e-10
7.57643e-08
-1.37516e-07
1.03244e-07
-1.3018e-07
8.70125e-08
-1.22266e-07
7.43055e-08
-1.10983e-07
6.11508e-08
6.68316e-08
-1.02664e-07
-2.24515e-08
3.09256e-08
-1.27662e-07
1.46866e-07
-1.12001e-07
-1.82584e-08
1.14435e-07
1.88846e-08
-1.08328e-07
-1.47729e-08
-1.05638e-07
-1.26008e-08
-1.03132e-07
-1.10422e-08
-1.00694e-07
-9.7105e-09
-9.81323e-08
-8.43334e-09
-9.54502e-08
-7.20201e-09
-9.2752e-08
-6.0092e-09
-8.99377e-08
-4.97326e-09
-8.71418e-08
-4.05087e-09
-8.43869e-08
-3.32392e-09
-8.16815e-08
-2.76979e-09
-7.90315e-08
-2.3442e-09
-7.64428e-08
-1.99449e-09
-7.39235e-08
-1.74373e-09
-7.14245e-08
-1.49033e-09
-6.89529e-08
-1.26272e-09
-6.64731e-08
-1.06019e-09
-6.40009e-08
-8.8503e-10
-6.1539e-08
-7.39744e-10
-5.90938e-08
-6.12671e-10
-5.66722e-08
-5.00078e-10
-5.42761e-08
-4.08721e-10
-5.1911e-08
-3.29549e-10
-4.95735e-08
-2.71418e-10
-4.72767e-08
-2.24616e-10
-4.50201e-08
-1.95989e-10
-4.2775e-08
-1.78804e-10
-4.05781e-08
-1.89034e-10
-3.84401e-08
-1.93674e-10
-3.62892e-08
-1.9563e-10
-3.40215e-08
-2.59828e-10
-3.18687e-08
-2.15977e-10
-2.95246e-08
-1.93762e-10
-2.68733e-08
-1.53558e-10
-2.35584e-08
-2.14446e-10
-1.95591e-08
-1.65185e-10
-1.48356e-08
-1.67554e-10
-9.89629e-09
-2.50176e-10
-5.5396e-09
-3.42881e-10
-2.04341e-09
-5.28877e-10
6.6556e-10
-7.74484e-10
-1.1234e-07
8.34522e-08
1.13898e-07
1.9267e-08
1.06846e-07
-1.18126e-07
1.33084e-07
1.25876e-07
-1.22861e-07
9.34335e-08
-9.28505e-08
1.28401e-07
9.77201e-08
-9.68614e-08
1.03504e-07
1.3205e-07
1.06807e-07
1.99923e-08
1.37402e-07
1.27665e-07
1.11242e-07
1.25031e-07
1.21917e-07
-3.78056e-07
3.72127e-07
-3.48014e-09
-1.50439e-07
1.12747e-07
-8.79972e-08
1.28231e-07
3.58037e-07
-3.1487e-07
4.22291e-08
-8.20558e-08
5.12008e-08
-9.6048e-08
-4.16898e-09
5.70148e-08
-1.03963e-07
-5.27669e-08
-3.36779e-07
3.46247e-07
-3.11875e-08
-3.36815e-08
-3.24393e-07
-9.51836e-08
-7.00857e-09
-9.13553e-08
-6.16373e-09
-8.82634e-08
-5.05918e-09
-8.53523e-08
-4.26259e-09
-8.28083e-08
-3.71139e-09
-8.04088e-08
-3.57357e-09
-7.74222e-08
-3.37188e-09
-7.54045e-08
-2.95578e-09
-7.2959e-08
-2.57775e-09
-7.04568e-08
-2.12016e-09
-6.7976e-08
-1.81398e-09
-6.54809e-08
-1.6206e-09
-6.29957e-08
-1.42189e-09
-6.05516e-08
-1.23622e-09
-5.81626e-08
-1.07224e-09
-5.57681e-08
-9.30386e-10
-5.34205e-08
-8.02452e-10
-5.10845e-08
-7.1694e-10
-4.87938e-08
-6.16918e-10
-4.65396e-08
-5.41531e-10
-4.42982e-08
-4.83002e-10
-4.20943e-08
-4.13962e-10
-3.99064e-08
-3.79421e-10
-3.77403e-08
-3.43619e-10
-3.55989e-08
-3.01828e-10
-3.34483e-08
-2.79387e-10
-3.12555e-08
-2.60708e-10
-2.89422e-08
-2.41803e-10
-2.62925e-08
-2.26818e-10
-2.30763e-08
-2.57432e-10
-1.91228e-08
-2.45356e-10
-1.44859e-08
-3.29406e-10
-9.71332e-09
-4.3268e-10
-5.50978e-09
-6.10942e-10
-2.14233e-09
-8.42869e-10
5.13222e-10
-1.10785e-09
-2.93624e-08
-3.11655e-07
2.25852e-08
7.20662e-10
-1.01845e-09
3.29116e-09
4.31524e-10
3.52073e-09
2.188e-10
3.6973e-09
9.52983e-11
3.80838e-09
3.4891e-11
3.86109e-09
5.261e-12
3.89001e-09
-1.5165e-12
3.89232e-09
-5.93058e-12
3.89761e-09
-1.17088e-11
3.90426e-09
-1.2686e-11
3.90914e-09
-1.5797e-11
3.9122e-09
-2.44842e-11
3.92013e-09
-4.1009e-11
3.92576e-09
-7.43048e-11
3.91929e-09
-1.48726e-10
3.89891e-09
-2.88215e-10
3.84805e-09
-5.09492e-10
3.73722e-09
-8.08176e-10
3.5666e-09
-1.10519e-09
3.34361e-09
-1.31107e-09
3.12792e-09
-1.11649e-07
7.32264e-08
3.10488e-08
1.06137e-07
8.90637e-08
-1.19045e-07
-8.91656e-08
-7.87901e-08
-3.82006e-07
3.09051e-07
1.56258e-07
-5.42827e-08
3.33871e-07
-4.10768e-08
3.43533e-07
-4.07918e-08
3.5017e-07
-3.42461e-07
-4.18814e-08
3.46948e-07
-3.29649e-07
-4.00546e-08
-3.20165e-07
-3.89785e-08
4.43025e-08
-5.72688e-08
-3.03233e-07
-1.03286e-07
5.84569e-08
-1.36392e-08
-2.9964e-07
3.07162e-07
1.00056e-08
-8.12141e-08
-1.4638e-07
7.9836e-08
-8.15628e-08
-1.84114e-07
2.05383e-07
6.40115e-08
-1.72967e-07
1.31219e-07
9.2642e-08
-1.26949e-07
1.34664e-07
9.75067e-08
1.02228e-07
1.39021e-07
2.19804e-08
1.06042e-07
-1.13036e-07
8.42732e-08
1.16048e-07
5.86925e-09
-1.95697e-08
-1.51145e-07
8.76445e-08
-1.3865e-07
7.6964e-08
-1.27406e-07
6.51823e-08
-1.2346e-07
5.91728e-08
5.81824e-08
-1.12771e-07
9.62483e-08
-1.36463e-07
-5.97694e-08
-6.55715e-08
3.82344e-08
1.03825e-07
-7.50085e-08
-1.12553e-07
-2.70945e-08
2.70583e-08
1.15191e-07
-1.09527e-07
-1.8408e-08
-1.06791e-07
-1.44294e-08
-1.04196e-07
-1.19921e-08
-1.0168e-07
-1.03232e-08
-9.92521e-08
-8.97006e-09
-9.68132e-08
-7.75839e-09
-9.42989e-08
-6.6396e-09
-9.16995e-08
-5.60823e-09
-8.91137e-08
-4.66377e-09
-8.6485e-08
-3.87514e-09
-8.38826e-08
-3.1849e-09
-8.12874e-08
-2.66892e-09
-7.87103e-08
-2.26537e-09
-7.61617e-08
-1.92672e-09
-7.36705e-08
-1.65488e-09
-7.11837e-08
-1.42768e-09
-6.87127e-08
-1.20904e-09
-6.62433e-08
-1.02536e-09
-6.37909e-08
-8.5218e-10
-6.1336e-08
-7.29432e-10
-5.88977e-08
-6.08006e-10
-5.64956e-08
-4.84847e-10
-5.4108e-08
-4.08715e-10
-5.17634e-08
-3.19465e-10
-4.94293e-08
-2.85064e-10
-4.71426e-08
-2.2486e-10
-4.4883e-08
-2.01e-10
-4.26614e-08
-1.75036e-10
-4.04488e-08
-2.02532e-10
-3.83044e-08
-1.60937e-10
-3.61451e-08
-1.92388e-10
-3.40336e-08
-2.06744e-10
-3.18425e-08
-1.99327e-10
-2.94963e-08
-1.96203e-10
-2.67718e-08
-2.22153e-10
-2.35317e-08
-2.39304e-10
-1.95502e-08
-1.81576e-10
-1.48338e-08
-2.71943e-10
-1.00114e-08
-3.52753e-10
-5.72408e-09
-5.15101e-10
-2.28663e-09
-7.53565e-10
4.28024e-10
-1.01569e-09
3.06484e-09
-1.2321e-09
-1.44766e-07
-9.20444e-08
1.5096e-07
-1.37866e-07
-8.55786e-08
7.28306e-08
-8.07382e-08
-1.2743e-07
3.33734e-07
-6.54281e-09
-3.33471e-07
1.07968e-08
-1.30108e-07
5.89297e-08
2.36422e-08
1.06352e-07
-1.02017e-08
-3.31151e-07
1.1293e-08
-7.71528e-08
-1.15846e-07
6.49339e-08
-2.71972e-08
-3.15261e-07
4.22218e-08
3.05404e-07
1.34524e-07
1.21803e-07
1.35254e-07
1.10993e-07
1.35688e-07
-9.01118e-08
1.4122e-07
-1.33908e-07
-1.35955e-07
9.46418e-08
1.41692e-07
-1.30235e-07
-3.05497e-07
1.4625e-07
-3.58776e-07
-1.14725e-08
-2.28279e-09
3.31974e-07
-8.01448e-08
-3.03715e-07
-1.57103e-07
1.3674e-07
1.88203e-07
1.62109e-07
5.56239e-08
-1.55987e-07
7.21476e-08
3.41511e-07
-4.35722e-08
3.49681e-07
-4.39207e-08
3.51524e-07
-4.02358e-08
-9.31463e-08
-5.69246e-09
-9.0716e-08
-5.42141e-09
-8.79164e-08
-4.79005e-09
-8.52122e-08
-3.98683e-09
-8.25707e-08
-3.4483e-09
-8.0239e-08
-3.04381e-09
-7.7691e-08
-3.07153e-09
-7.53957e-08
-2.41375e-09
-7.28158e-08
-2.34674e-09
-7.02624e-08
-1.90838e-09
-6.76818e-08
-1.68604e-09
-6.52507e-08
-1.4056e-09
-6.2802e-08
-1.28405e-09
-6.03964e-08
-1.11046e-09
-5.80025e-08
-9.82417e-10
-5.56258e-08
-8.70083e-10
-5.32861e-08
-7.53127e-10
-5.09779e-08
-6.82807e-10
-4.86977e-08
-5.99284e-10
-4.64497e-08
-5.32643e-10
-4.42231e-08
-4.89586e-10
-4.20181e-08
-4.32593e-10
-3.98441e-08
-3.96494e-10
-3.76948e-08
-3.60727e-10
-3.5548e-08
-3.34429e-10
-3.34078e-08
-3.06952e-10
-3.12307e-08
-2.85526e-10
-2.89132e-08
-2.73871e-10
-2.62767e-08
-2.69631e-10
-2.31119e-08
-2.77874e-10
-1.91577e-08
-3.32331e-10
-1.45883e-08
-4.17332e-10
-9.90233e-09
-5.47876e-10
-5.74315e-09
-7.74299e-10
-2.40048e-09
-1.00638e-09
3.10278e-10
-1.24514e-09
2.95546e-09
-1.39107e-09
1.31474e-07
5.08883e-08
-1.22249e-07
1.40172e-07
5.25116e-08
1.49841e-07
5.76837e-08
1.64403e-07
6.47875e-08
1.81702e-07
7.28755e-08
2.03721e-07
8.01293e-08
3.37224e-07
-1.99665e-07
-2.95084e-07
5.73631e-08
-1.08729e-07
1.02008e-07
-9.80238e-08
8.76189e-08
-1.21926e-07
-8.50706e-08