/*--------------------------------*- C++ -*----------------------------------*\
| =========                 |                                                 |
| \\      /  F ield         | OpenFOAM: The Open Source CFD Toolbox           |
|  \\    /   O peration     | Version:  2212                                  |
|   \\  /    A nd           | Website:  www.openfoam.com                      |
|    \\/     M anipulation  |                                                 |
\*---------------------------------------------------------------------------*/
FoamFile
{
    version     2.0;
    format      ascii;
    arch        "LSB;label=32;scalar=64";
    class       surfaceScalarField;
    location    "0.000456";
    object      phi;
}
// * * * * * * * * * * * * * * * * * * * * * * * * * * * * * * * * * * * * * //

dimensions      [1 0 -1 0 0 0 0];

oriented        oriented;

internalField   nonuniform List<scalar> 
112622
(
2.72538e-09
1.38519e-08
3.83289e-09
1.94677e-08
4.29689e-09
2.10415e-08
4.51713e-09
2.29634e-08
4.59972e-09
2.46312e-08
4.56061e-09
2.5102e-08
4.45244e-09
2.5087e-08
4.30055e-09
2.45974e-08
4.12857e-09
2.32535e-08
3.94688e-09
2.19907e-08
3.76096e-09
2.11765e-08
3.57626e-09
2.04231e-08
3.39585e-09
1.96948e-08
3.22222e-09
1.89119e-08
3.05044e-09
1.85725e-08
2.87071e-09
1.89212e-08
2.68621e-09
1.93331e-08
2.50007e-09
1.97263e-08
2.31926e-09
1.91242e-08
2.14487e-09
1.84471e-08
1.97827e-09
1.76749e-08
1.81902e-09
1.69928e-08
1.66677e-09
1.63168e-08
1.52125e-09
1.56435e-08
1.38324e-09
1.48989e-08
1.25674e-09
1.38043e-08
1.14081e-09
1.25564e-08
1.04009e-09
1.05182e-08
9.49109e-10
9.35468e-09
8.64399e-10
8.63599e-09
7.84705e-10
8.07002e-09
7.06906e-10
7.97731e-09
6.29085e-10
8.2968e-09
5.51731e-10
8.49316e-09
4.7475e-10
8.56408e-09
4.02166e-10
7.88679e-09
3.34838e-10
7.21697e-09
2.74149e-10
6.5494e-09
2.18719e-10
6.06331e-09
1.70198e-10
5.33275e-09
1.28036e-10
4.57573e-09
9.29394e-11
3.68545e-09
6.32198e-11
3.08944e-09
3.94061e-11
2.46931e-09
2.17109e-11
1.82889e-09
9.64422e-12
1.23899e-09
7.41101e-10
2.38632e-12
4.16571e-09
9.68677e-09
5.57164e-09
1.80624e-08
5.64334e-09
2.09706e-08
5.41142e-09
2.31964e-08
5.14262e-09
2.49013e-08
4.90493e-09
2.53413e-08
4.6815e-09
2.53122e-08
4.46149e-09
2.48193e-08
4.24776e-09
2.34692e-08
4.03869e-09
2.22018e-08
3.83318e-09
2.13842e-08
3.63428e-09
2.06243e-08
3.44281e-09
1.98886e-08
3.26097e-09
1.9096e-08
3.08225e-09
1.87534e-08
2.89688e-09
1.91085e-08
2.70758e-09
1.95241e-08
2.51745e-09
1.9918e-08
2.33347e-09
1.93095e-08
2.15676e-09
1.86249e-08
1.98827e-09
1.78441e-08
1.82737e-09
1.71538e-08
1.67361e-09
1.64702e-08
1.52682e-09
1.57896e-08
1.38748e-09
1.50372e-08
1.25974e-09
1.39306e-08
1.14283e-09
1.26717e-08
1.04142e-09
1.06181e-08
9.49974e-10
9.44467e-09
8.64765e-10
8.71976e-09
7.84654e-10
8.14876e-09
7.06476e-10
8.05415e-09
6.28242e-10
8.37374e-09
5.5051e-10
8.56971e-09
4.73285e-10
8.64022e-09
4.00589e-10
7.95854e-09
3.33249e-10
7.28335e-09
2.72536e-10
6.60907e-09
2.17138e-10
6.11762e-09
1.68692e-10
5.38019e-09
1.26691e-10
4.61685e-09
9.17768e-11
3.7197e-09
6.23136e-11
3.11842e-09
3.87751e-11
2.49255e-09
2.13148e-11
1.8462e-09
9.47151e-12
1.25077e-09
7.48231e-10
2.31864e-12
4.6335e-09
5.05715e-09
7.00859e-09
1.56909e-08
7.15404e-09
2.08283e-08
6.71091e-09
2.36428e-08
6.22835e-09
2.53875e-08
5.7981e-09
2.57755e-08
5.41162e-09
2.57029e-08
5.06555e-09
2.51698e-08
4.75278e-09
2.37863e-08
4.47012e-09
2.24888e-08
4.20602e-09
2.16528e-08
3.96113e-09
2.08738e-08
3.73248e-09
2.01217e-08
3.52013e-09
1.93127e-08
3.31538e-09
1.89622e-08
3.10576e-09
1.93218e-08
2.89408e-09
1.97391e-08
2.68377e-09
2.01312e-08
2.48155e-09
1.95143e-08
2.28867e-09
1.88201e-08
2.10565e-09
1.80289e-08
1.93182e-09
1.73288e-08
1.76661e-09
1.66358e-08
1.60923e-09
1.59465e-08
1.46005e-09
1.51852e-08
1.32341e-09
1.40656e-08
1.19863e-09
1.27946e-08
1.09099e-09
1.07238e-08
9.94025e-10
9.53969e-09
9.03918e-10
8.80785e-09
8.19249e-10
8.23138e-09
7.36666e-10
8.13464e-09
6.54121e-10
8.45412e-09
5.723e-10
8.64938e-09
4.91113e-10
8.71934e-09
4.15007e-10
8.03274e-09
3.44616e-10
7.35186e-09
2.81317e-10
6.6705e-09
2.23637e-10
6.17349e-09
1.73337e-10
5.42893e-09
1.29936e-10
4.65901e-09
9.40123e-11
3.75469e-09
6.37918e-11
3.14794e-09
3.9624e-11
2.51626e-09
2.18535e-11
1.86372e-09
9.66917e-12
1.26283e-09
7.55405e-10
2.44593e-12
5.03141e-09
3.48976e-11
8.37175e-09
1.2359e-08
8.79245e-09
2.04155e-08
8.25355e-09
2.41898e-08
7.5366e-09
2.61132e-08
6.89567e-09
2.64256e-08
6.33459e-09
2.62737e-08
5.84824e-09
2.56661e-08
5.42694e-09
2.42173e-08
5.05888e-09
2.28662e-08
4.72585e-09
2.19951e-08
4.42466e-09
2.1184e-08
4.14909e-09
2.0406e-08
3.8972e-09
1.95728e-08
3.65808e-09
1.92091e-08
3.41681e-09
1.95706e-08
3.17631e-09
1.99865e-08
2.93871e-09
2.03753e-08
2.71215e-09
1.97466e-08
2.4971e-09
1.90403e-08
2.29441e-09
1.82363e-08
2.10305e-09
1.75241e-08
1.92137e-09
1.68204e-08
1.74817e-09
1.61211e-08
1.5843e-09
1.5349e-08
1.43468e-09
1.42143e-08
1.2983e-09
1.29297e-08
1.18041e-09
1.08403e-08
1.07456e-09
9.64387e-09
9.76261e-10
8.9042e-09
8.84003e-10
8.32152e-09
7.94251e-10
8.22207e-09
7.04694e-10
8.54106e-09
6.15811e-10
8.73545e-09
5.27847e-10
8.80431e-09
4.454e-10
8.11227e-09
3.69409e-10
7.42501e-09
3.01164e-10
6.73604e-09
2.39115e-10
6.23301e-09
1.85142e-10
5.48081e-09
1.3869e-10
4.70381e-09
1.0023e-10
3.79195e-09
6.80411e-11
3.17922e-09
4.22334e-11
2.54142e-09
2.3358e-11
1.8822e-09
1.03303e-11
1.27566e-09
7.62958e-10
2.68664e-12
4.31227e-09
-4.26427e-09
7.64466e-09
9.03929e-09
8.29784e-09
1.97745e-08
7.87544e-09
2.46247e-08
7.25305e-09
2.6749e-08
6.6661e-09
2.70266e-08
6.13694e-09
2.68173e-08
5.66808e-09
2.61496e-08
5.26109e-09
2.46385e-08
4.90388e-09
2.32373e-08
4.58159e-09
2.23309e-08
4.29081e-09
2.14879e-08
4.02595e-09
2.06835e-08
3.78501e-09
1.98258e-08
3.55728e-09
1.94483e-08
3.32828e-09
1.98108e-08
3.10011e-09
2.02256e-08
2.87521e-09
2.06105e-08
2.66067e-09
1.99705e-08
2.45688e-09
1.92528e-08
2.2647e-09
1.84364e-08
2.0827e-09
1.77132e-08
1.9092e-09
1.69994e-08
1.74302e-09
1.62908e-08
1.58487e-09
1.55087e-08
1.43969e-09
1.43597e-08
1.30678e-09
1.30621e-08
1.19144e-09
1.09548e-08
1.087e-09
9.74701e-09
9.89831e-10
8.99966e-09
8.98374e-10
8.41099e-09
8.09057e-10
8.30907e-09
7.19664e-10
8.62776e-09
6.30808e-10
8.82113e-09
5.42392e-10
8.88911e-09
4.58985e-10
8.19197e-09
3.8161e-10
7.49869e-09
3.11948e-10
6.80216e-09
2.48389e-10
6.29323e-09
1.92821e-10
5.53355e-09
1.44858e-10
4.74951e-09
1.05026e-10
3.83008e-09
7.14439e-11
3.21145e-09
4.44395e-11
2.5674e-09
2.45867e-11
1.90134e-09
1.08711e-11
1.28893e-09
7.70772e-10
2.82369e-12
4.25535e-09
-8.50198e-09
7.39851e-09
5.91337e-09
8.03324e-09
1.91567e-08
7.65425e-09
2.50213e-08
7.08573e-09
2.73364e-08
6.51446e-09
2.76175e-08
5.99602e-09
2.73559e-08
5.53308e-09
2.66328e-08
5.13145e-09
2.50598e-08
4.77964e-09
2.36079e-08
4.46342e-09
2.26655e-08
4.17864e-09
2.17905e-08
3.92069e-09
2.09585e-08
3.68721e-09
2.00753e-08
3.46714e-09
1.9684e-08
3.24572e-09
2.00477e-08
3.02554e-09
2.04611e-08
2.80936e-09
2.08416e-08
2.60342e-09
2.01902e-08
2.40771e-09
1.94611e-08
2.22294e-09
1.86325e-08
2.04768e-09
1.78986e-08
1.88045e-09
1.7175e-08
1.71984e-09
1.64573e-08
1.56674e-09
1.56654e-08
1.42562e-09
1.45025e-08
1.29609e-09
1.31922e-08
1.18284e-09
1.10677e-08
1.08033e-09
9.84853e-09
9.84462e-10
9.09403e-09
8.94354e-10
8.49919e-09
8.06213e-10
8.39492e-09
7.17983e-10
8.7132e-09
6.30263e-10
8.90554e-09
5.42679e-10
8.97288e-09
4.59989e-10
8.27067e-09
3.83058e-10
7.57153e-09
3.13516e-10
6.8676e-09
2.49984e-10
6.3527e-09
1.94384e-10
5.58549e-09
1.46206e-10
4.79458e-09
1.06019e-10
3.86783e-09
7.2116e-11
3.24337e-09
4.48823e-11
2.59307e-09
2.47609e-11
1.92032e-09
1.0973e-11
1.30196e-09
7.78571e-10
2.73272e-12
4.26474e-09
-1.27428e-08
7.24512e-09
2.95653e-09
7.88949e-09
1.85355e-08
7.60061e-09
2.53348e-08
7.05596e-09
2.79073e-08
6.49246e-09
2.82078e-08
5.97925e-09
2.78964e-08
5.51788e-09
2.71214e-08
5.11853e-09
2.54853e-08
4.76601e-09
2.39855e-08
4.44978e-09
2.3006e-08
4.16441e-09
2.20992e-08
3.90657e-09
2.12386e-08
3.67288e-09
2.03302e-08
3.45272e-09
1.99246e-08
3.23151e-09
2.02895e-08
3.01233e-09
2.07007e-08
2.79743e-09
2.10766e-08
2.5927e-09
2.04135e-08
2.39823e-09
1.96725e-08
2.21443e-09
1.88314e-08
2.0402e-09
1.8086e-08
1.87388e-09
1.73523e-08
1.71444e-09
1.6625e-08
1.56193e-09
1.58234e-08
1.42175e-09
1.46459e-08
1.29247e-09
1.33229e-08
1.1797e-09
1.11807e-08
1.07751e-09
9.95017e-09
9.82116e-10
9.1882e-09
8.91943e-10
8.58766e-09
8.03727e-10
8.4809e-09
7.15672e-10
8.79838e-09
6.28084e-10
8.98971e-09
5.4086e-10
9.05615e-09
4.5846e-10
8.34897e-09
3.81913e-10
7.64381e-09
3.12732e-10
6.93235e-09
2.49481e-10
6.41138e-09
1.93914e-10
5.63673e-09
1.45906e-10
4.83872e-09
1.05788e-10
3.90478e-09
7.20361e-11
3.27445e-09
4.4886e-11
2.61809e-09
2.47833e-11
1.93885e-09
1.09893e-11
1.3147e-09
7.86183e-10
2.74195e-12
4.26536e-09
-1.69744e-08
7.24466e-09
1.02472e-11
7.92781e-09
1.78846e-08
7.65509e-09
2.56417e-08
7.11297e-09
2.84856e-08
6.55966e-09
2.87978e-08
6.05432e-09
2.84386e-08
5.59572e-09
2.76163e-08
5.19674e-09
2.59187e-08
4.84146e-09
2.43733e-08
4.52149e-09
2.33573e-08
4.23192e-09
2.24189e-08
3.96965e-09
2.15297e-08
3.73131e-09
2.05958e-08
3.50729e-09
2.01749e-08
3.28225e-09
2.05408e-08
3.059e-09
2.09503e-08
2.84031e-09
2.13211e-08
2.63187e-09
2.06457e-08
2.43368e-09
1.98919e-08
2.24612e-09
1.90376e-08
2.06814e-09
1.82802e-08
1.89827e-09
1.75356e-08
1.73562e-09
1.6798e-08
1.58062e-09
1.59856e-08
1.4377e-09
1.47931e-08
1.30598e-09
1.34568e-08
1.19112e-09
1.12963e-08
1.08707e-09
1.00541e-08
9.90006e-10
9.28445e-09
8.98456e-10
8.67779e-09
8.09071e-10
8.56824e-09
7.19994e-10
8.8847e-09
6.31202e-10
9.07503e-09
5.43048e-10
9.14015e-09
4.59717e-10
8.42789e-09
3.82719e-10
7.71614e-09
3.12973e-10
6.99721e-09
2.49609e-10
6.4696e-09
1.93939e-10
5.68744e-09
1.45858e-10
4.88228e-09
1.05739e-10
3.94108e-09
7.19601e-11
3.30492e-09
4.47943e-11
2.64255e-09
2.47282e-11
1.95689e-09
1.09676e-11
1.32707e-09
7.93555e-10
2.76531e-12
4.00453e-09
-2.09357e-08
6.82731e-09
-2.77082e-09
7.51019e-09
1.7243e-08
7.27342e-09
2.5922e-08
6.78578e-09
2.9019e-08
6.27799e-09
2.93518e-08
5.81266e-09
2.89498e-08
5.39296e-09
2.80808e-08
5.02382e-09
2.63298e-08
4.69537e-09
2.47412e-08
4.39749e-09
2.36929e-08
4.1271e-09
2.27255e-08
3.88125e-09
2.18101e-08
3.65794e-09
2.08517e-08
3.44669e-09
2.04177e-08
3.23262e-09
2.07863e-08
3.0195e-09
2.11945e-08
2.80953e-09
2.15615e-08
2.60832e-09
2.08747e-08
2.4159e-09
2.01091e-08
2.23311e-09
1.9242e-08
2.05919e-09
1.84728e-08
1.89285e-09
1.77174e-08
1.73285e-09
1.69702e-08
1.57986e-09
1.61473e-08
1.43842e-09
1.49401e-08
1.30808e-09
1.35902e-08
1.19371e-09
1.1412e-08
1.08998e-09
1.01581e-08
9.932e-10
9.38076e-09
9.0182e-10
8.76801e-09
8.12597e-10
8.65562e-09
7.23514e-10
8.97113e-09
6.34914e-10
9.16006e-09
5.46638e-10
9.22404e-09
4.63129e-10
8.50655e-09
3.85562e-10
7.78852e-09
3.15451e-10
7.06185e-09
2.51412e-10
6.52786e-09
1.95462e-10
5.73781e-09
1.46992e-10
4.92565e-09
1.06611e-10
3.97712e-09
7.2539e-11
3.33515e-09
4.51646e-11
2.66669e-09
2.49264e-11
1.97464e-09
1.10273e-11
1.33926e-09
8.00727e-10
2.82189e-12
3.49248e-09
-2.43791e-08
5.99186e-09
-5.22204e-09
6.65033e-09
1.66321e-08
6.49199e-09
2.61306e-08
6.098e-09
2.94657e-08
5.68581e-09
2.98172e-08
5.30193e-09
2.93862e-08
4.95619e-09
2.84775e-08
4.64833e-09
2.66855e-08
4.37282e-09
2.50616e-08
4.11973e-09
2.39888e-08
3.88932e-09
2.29966e-08
3.67817e-09
2.206e-08
3.48489e-09
2.10816e-08
3.30034e-09
2.06374e-08
3.111e-09
2.10107e-08
2.9202e-09
2.142e-08
2.73078e-09
2.17846e-08
2.5476e-09
2.10887e-08
2.37055e-09
2.03137e-08
2.20088e-09
1.94358e-08
2.03782e-09
1.86567e-08
1.88067e-09
1.78921e-08
1.72874e-09
1.71362e-08
1.58246e-09
1.63039e-08
1.44643e-09
1.50829e-08
1.31977e-09
1.37208e-08
1.20785e-09
1.15259e-08
1.10592e-09
1.02607e-08
1.01012e-09
9.47627e-09
9.19345e-10
8.85766e-09
8.30453e-10
8.7426e-09
7.41209e-10
9.05749e-09
6.52389e-10
9.24497e-09
5.63589e-10
9.30791e-09
4.79183e-10
8.58548e-09
4.00115e-10
7.86169e-09
3.28457e-10
7.12726e-09
2.62656e-10
6.58706e-09
2.04842e-10
5.78928e-09
1.54507e-10
4.9702e-09
1.12455e-10
4.01425e-09
7.67019e-11
3.3665e-09
4.79379e-11
2.69169e-09
2.64621e-11
1.99318e-09
1.17144e-11
1.35195e-09
8.08246e-10
2.95024e-12
3.17361e-09
-2.74962e-08
5.40913e-09
-7.40197e-09
6.03727e-09
1.60592e-08
5.93015e-09
2.62959e-08
5.62137e-09
2.98355e-08
5.30274e-09
3.01971e-08
4.98652e-09
2.9763e-08
4.69663e-09
2.88261e-08
4.43412e-09
2.70029e-08
4.19675e-09
2.53503e-08
3.97608e-09
2.42582e-08
3.77328e-09
2.32456e-08
3.58529e-09
2.22918e-08
3.41179e-09
2.12962e-08
3.24431e-09
2.08442e-08
3.07021e-09
2.12235e-08
2.89302e-09
2.16352e-08
2.71552e-09
2.1999e-08
2.54203e-09
2.12957e-08
2.37291e-09
2.05128e-08
2.20984e-09
1.96252e-08
2.05232e-09
1.88372e-08
1.89974e-09
1.80641e-08
1.75112e-09
1.73006e-08
1.60739e-09
1.64596e-08
1.47294e-09
1.52254e-08
1.34717e-09
1.38513e-08
1.23486e-09
1.16404e-08
1.13202e-09
1.03643e-08
1.0352e-09
9.57274e-09
9.43384e-10
8.94821e-09
8.53047e-10
8.83083e-09
7.62818e-10
9.14457e-09
6.72693e-10
9.33085e-09
5.82441e-10
9.39272e-09
4.96193e-10
8.66567e-09
4.15202e-10
7.9361e-09
3.41613e-10
7.19389e-09
2.73795e-10
6.6476e-09
2.14069e-10
5.84202e-09
1.61835e-10
5.01608e-09
1.18059e-10
4.05266e-09
8.06704e-11
3.39914e-09
5.05729e-11
2.71774e-09
2.79116e-11
2.01265e-09
1.24454e-11
1.36517e-09
8.1627e-10
3.04167e-12
2.91844e-09
-3.03478e-08
4.90237e-09
-9.32097e-09
5.49632e-09
1.553e-08
5.43029e-09
2.64302e-08
5.21201e-09
3.01249e-08
4.97376e-09
3.05065e-08
4.72746e-09
3.00792e-08
4.48906e-09
2.91316e-08
4.26925e-09
2.72852e-08
4.06585e-09
2.56118e-08
3.87379e-09
2.45052e-08
3.69432e-09
2.34769e-08
3.52569e-09
2.25091e-08
3.36841e-09
2.14988e-08
3.2144e-09
2.10412e-08
3.05144e-09
2.14285e-08
2.8832e-09
2.18442e-08
2.71304e-09
2.22082e-08
2.54497e-09
2.14992e-08
2.3801e-09
2.07093e-08
2.21995e-09
1.98133e-08
2.06426e-09
1.90172e-08
1.91309e-09
1.8236e-08
1.7654e-09
1.74654e-08
1.62238e-09
1.66156e-08
1.48835e-09
1.5368e-08
1.36229e-09
1.39824e-08
1.24944e-09
1.17554e-08
1.14561e-09
1.04687e-08
1.04756e-09
9.67023e-09
9.5451e-10
9.03985e-09
8.63171e-10
8.91999e-09
7.71889e-10
9.23271e-09
6.80919e-10
9.41764e-09
5.90034e-10
9.47818e-09
5.02721e-10
8.74681e-09
4.20813e-10
8.01125e-09
3.46244e-10
7.26136e-09
2.77736e-10
6.70871e-09
2.17228e-10
5.89547e-09
1.64206e-10
5.06267e-09
1.19786e-10
4.09162e-09
8.17147e-11
3.43244e-09
5.11375e-11
2.74431e-09
2.81945e-11
2.03248e-09
1.25449e-11
1.37863e-09
8.24414e-10
3.07061e-12
2.59863e-09
-3.287e-08
4.23649e-09
-1.08855e-08
4.75204e-09
1.50871e-08
4.73663e-09
2.65225e-08
4.60625e-09
3.03352e-08
4.43809e-09
3.07538e-08
4.28152e-09
3.03127e-08
4.11732e-09
2.93694e-08
3.96397e-09
2.75063e-08
3.80986e-09
2.58286e-08
3.66003e-09
2.47139e-08
3.51289e-09
2.36793e-08
3.37132e-09
2.27022e-08
3.23534e-09
2.16823e-08
3.09918e-09
2.1222e-08
2.95086e-09
2.162e-08
2.79544e-09
2.20412e-08
2.63565e-09
2.24075e-08
2.47601e-09
2.16944e-08
2.31782e-09
2.08992e-08
2.16328e-09
1.99956e-08
2.01251e-09
1.91919e-08
1.86545e-09
1.84036e-08
1.72194e-09
1.76257e-08
1.5823e-09
1.67682e-08
1.45177e-09
1.55071e-08
1.32869e-09
1.41103e-08
1.21847e-09
1.18676e-08
1.11686e-09
1.05705e-08
1.02096e-09
9.7652e-09
9.29691e-10
9.12945e-09
8.40306e-10
9.007e-09
7.51153e-10
9.31873e-09
6.62453e-10
9.50232e-09
5.73664e-10
9.562e-09
4.88646e-10
8.82614e-09
4.09004e-10
8.08459e-09
3.36331e-10
7.32733e-09
2.69507e-10
6.76856e-09
2.1046e-10
5.94779e-09
1.58955e-10
5.10804e-09
1.15485e-10
4.12988e-09
7.86365e-11
3.46475e-09
4.89644e-11
2.77028e-09
2.69478e-11
2.05175e-09
1.19163e-11
1.39182e-09
8.32283e-10
2.96031e-12
2.09619e-09
-3.48866e-08
3.26684e-09
-1.19801e-08
3.6816e-09
1.47473e-08
3.75327e-09
2.65292e-08
3.74357e-09
3.04263e-08
3.67121e-09
3.09064e-08
3.61139e-09
3.04501e-08
3.52802e-09
2.95261e-08
3.44628e-09
2.7655e-08
3.34681e-09
2.59893e-08
3.24458e-09
2.48732e-08
3.13659e-09
2.38403e-08
3.02942e-09
2.28584e-08
2.92092e-09
2.18357e-08
2.80984e-09
2.13747e-08
2.68435e-09
2.17857e-08
2.55022e-09
2.22136e-08
2.40995e-09
2.25839e-08
2.26801e-09
2.18686e-08
2.12583e-09
2.10698e-08
1.98621e-09
2.01598e-08
1.84943e-09
1.93498e-08
1.71532e-09
1.85554e-08
1.58397e-09
1.77715e-08
1.45645e-09
1.69065e-08
1.33665e-09
1.56339e-08
1.2237e-09
1.42268e-08
1.12224e-09
1.197e-08
1.02898e-09
1.06632e-08
9.40693e-10
9.85196e-09
8.56705e-10
9.21117e-09
7.74172e-10
9.08668e-09
6.92057e-10
9.39731e-09
6.10129e-10
9.58011e-09
5.28485e-10
9.6388e-09
4.50101e-10
8.89927e-09
3.76664e-10
8.15229e-09
3.09563e-10
7.38831e-09
2.48021e-10
6.82363e-09
1.93535e-10
5.99609e-09
1.46029e-10
5.14985e-09
1.06011e-10
4.1651e-09
7.20733e-11
3.49456e-09
4.47563e-11
2.79433e-09
2.46527e-11
2.06952e-09
1.08672e-11
1.40411e-09
8.39542e-10
2.76161e-12
1.62315e-09
-3.64274e-08
2.43568e-09
-1.27137e-08
2.82141e-09
1.44388e-08
3.01544e-09
2.64157e-08
3.13103e-09
3.03938e-08
3.16047e-09
3.09584e-08
3.17084e-09
3.05178e-08
3.13845e-09
2.9632e-08
3.09311e-09
2.7767e-08
3.02817e-09
2.61144e-08
2.95407e-09
2.50029e-08
2.87122e-09
2.39743e-08
2.78494e-09
2.29915e-08
2.69463e-09
2.19684e-08
2.59918e-09
2.15094e-08
2.48852e-09
2.19335e-08
2.36819e-09
2.23692e-08
2.24119e-09
2.27436e-08
2.11158e-09
2.20271e-08
1.98102e-09
2.12256e-08
1.85217e-09
2.03104e-08
1.7255e-09
1.94948e-08
1.601e-09
1.86949e-08
1.47883e-09
1.79055e-08
1.36025e-09
1.70338e-08
1.24872e-09
1.57509e-08
1.14384e-09
1.43342e-08
1.04933e-09
1.20648e-08
9.62162e-10
1.07493e-08
8.79737e-10
9.93222e-09
8.01152e-10
9.2869e-09
7.23911e-10
9.16042e-09
6.4692e-10
9.47011e-09
5.70281e-10
9.65199e-09
4.93724e-10
9.71011e-09
4.20456e-10
8.96715e-09
3.51681e-10
8.2154e-09
2.89105e-10
7.44494e-09
2.31577e-10
6.87491e-09
1.80811e-10
6.04088e-09
1.36397e-10
5.18884e-09
9.90422e-11
4.19793e-09
6.73875e-11
3.52237e-09
4.1923e-11
2.81677e-09
2.31551e-11
2.08613e-09
1.02455e-11
1.41564e-09
8.46366e-10
2.63604e-12
1.22828e-09
-3.75708e-08
1.78269e-09
-1.31863e-08
2.16183e-09
1.41396e-08
2.46416e-09
2.61961e-08
2.68611e-09
3.02568e-08
2.80569e-09
3.09217e-08
2.87165e-09
3.05308e-08
2.88346e-09
2.9694e-08
2.86138e-09
2.78554e-08
2.8198e-09
2.62158e-08
2.76382e-09
2.51135e-08
2.69689e-09
2.40912e-08
2.62384e-09
2.31099e-08
2.54613e-09
2.20868e-08
2.46104e-09
2.16317e-08
2.36102e-09
2.20686e-08
2.25077e-09
2.25122e-08
2.13391e-09
2.28905e-08
2.01361e-09
2.21736e-08
1.89205e-09
2.13696e-08
1.7714e-09
2.04502e-08
1.65257e-09
1.96296e-08
1.53546e-09
1.88248e-08
1.42021e-09
1.80305e-08
1.30789e-09
1.7153e-08
1.20262e-09
1.58601e-08
1.10307e-09
1.44351e-08
1.01325e-09
1.21542e-08
9.30133e-10
1.08306e-08
8.51283e-10
1.00083e-08
7.75872e-10
9.35875e-09
7.01667e-10
9.23034e-09
6.2754e-10
9.53911e-09
5.5375e-10
9.72003e-09
4.79806e-10
9.77779e-09
4.08945e-10
9.03178e-09
3.42178e-10
8.27593e-09
2.81574e-10
7.49918e-09
2.25727e-10
6.92429e-09
1.76534e-10
6.08392e-09
1.33328e-10
5.22651e-09
9.69854e-11
4.22965e-09
6.61223e-11
3.5493e-09
4.12558e-11
2.83847e-09
2.28964e-11
2.10216e-09
1.01893e-11
1.42679e-09
8.52969e-10
2.66158e-12
8.77756e-10
-3.83647e-08
1.26307e-09
-1.34904e-08
1.63274e-09
1.38493e-08
2.00115e-09
2.59097e-08
2.27789e-09
3.00639e-08
2.46356e-09
3.08175e-08
2.56863e-09
3.05032e-08
2.61945e-09
2.97153e-08
2.62575e-09
2.79138e-08
2.60615e-09
2.62933e-08
2.56365e-09
2.52089e-08
2.5122e-09
2.41905e-08
2.45114e-09
2.32143e-08
2.38608e-09
2.21906e-08
2.31288e-09
2.17401e-08
2.22559e-09
2.21888e-08
2.12797e-09
2.26402e-08
2.02429e-09
2.3022e-08
1.91641e-09
2.23055e-08
1.80681e-09
2.14996e-08
1.69733e-09
2.05766e-08
1.58893e-09
1.97519e-08
1.4814e-09
1.89431e-08
1.3749e-09
1.81448e-08
1.27017e-09
1.72627e-08
1.17157e-09
1.59611e-08
1.07813e-09
1.45289e-08
9.93049e-10
1.2238e-08
9.1413e-10
1.09071e-08
8.38648e-10
1.00804e-08
7.66163e-10
9.427e-09
6.94535e-10
9.29682e-09
6.22596e-10
9.6049e-09
5.50848e-10
9.78475e-09
4.78384e-10
9.84266e-09
4.08792e-10
9.09393e-09
3.42953e-10
8.33446e-09
2.83122e-10
7.55187e-09
2.27598e-10
6.97263e-09
1.78599e-10
6.12617e-09
1.35342e-10
5.26364e-09
9.87614e-11
4.26107e-09
6.75147e-11
3.57607e-09
4.23243e-11
2.85997e-09
2.3556e-11
2.11811e-09
1.05162e-11
1.43785e-09
8.59544e-10
2.72551e-12
5.80108e-10
-3.88665e-08
9.10759e-10
-1.37445e-08
1.2803e-09
1.35546e-08
1.67229e-09
2.55953e-08
1.94709e-09
2.98685e-08
2.15359e-09
3.06882e-08
2.26851e-09
3.04618e-08
2.33908e-09
2.9713e-08
2.35867e-09
2.79553e-08
2.35262e-09
2.6354e-08
2.32178e-09
2.52895e-08
2.2829e-09
2.42744e-08
2.23367e-09
2.33042e-08
2.18129e-09
2.22792e-08
2.12112e-09
2.18329e-08
2.04821e-09
2.22921e-08
1.96561e-09
2.27508e-08
1.8777e-09
2.31354e-08
1.7849e-09
2.242e-08
1.68969e-09
2.16131e-08
1.59391e-09
2.06875e-08
1.49853e-09
1.98595e-08
1.40323e-09
1.90477e-08
1.30803e-09
1.82464e-08
1.21387e-09
1.73604e-08
1.12464e-09
1.60516e-08
1.03922e-09
1.46137e-08
9.60781e-10
1.23144e-08
8.87226e-10
1.09776e-08
8.16734e-10
1.01468e-08
7.48319e-10
9.49057e-09
6.80496e-10
9.35881e-09
6.11949e-10
9.66635e-09
5.43091e-10
9.84545e-09
4.73298e-10
9.90347e-09
4.05781e-10
9.15262e-09
3.41477e-10
8.39024e-09
2.82706e-10
7.60245e-09
2.28164e-10
7.01905e-09
1.79801e-10
6.16688e-09
1.3663e-10
5.29979e-09
1.00162e-10
4.29152e-09
6.85834e-11
3.60237e-09
4.32014e-11
2.88092e-09
2.39972e-11
2.13385e-09
1.07204e-11
1.44865e-09
8.66016e-10
2.69466e-12
3.48247e-10
-3.91426e-08
7.20612e-10
-1.40463e-08
1.11827e-09
1.32265e-08
1.49772e-09
2.52879e-08
1.72443e-09
2.97158e-08
1.90872e-09
3.05761e-08
2.01381e-09
3.04256e-08
2.08648e-09
2.97045e-08
2.11026e-09
2.7989e-08
2.11118e-09
2.64046e-08
2.09058e-09
2.53568e-08
2.06122e-09
2.43461e-08
2.02214e-09
2.33813e-08
1.98057e-09
2.23546e-08
1.93151e-09
2.19123e-08
1.87139e-09
2.23805e-08
1.80229e-09
2.28459e-08
1.72859e-09
2.32326e-08
1.64982e-09
2.25187e-08
1.56847e-09
2.1711e-08
1.48566e-09
2.07838e-08
1.40259e-09
1.99534e-08
1.31898e-09
1.91395e-08
1.23471e-09
1.83361e-08
1.15076e-09
1.74472e-08
1.07063e-09
1.61323e-08
9.93451e-10
1.46896e-08
9.21745e-10
1.23837e-08
8.5391e-10
1.1042e-08
7.88436e-10
1.0208e-08
7.24739e-10
9.54907e-09
6.60922e-10
9.41638e-09
5.96478e-10
9.72314e-09
5.3126e-10
9.90167e-09
4.64627e-10
9.95999e-09
3.99432e-10
9.20778e-09
3.37052e-10
8.4429e-09
2.80007e-10
7.65017e-09
2.26614e-10
7.06324e-09
1.79136e-10
6.20559e-09
1.36503e-10
5.33427e-09
1.003e-10
4.32068e-09
6.87794e-11
3.62767e-09
4.34187e-11
2.90106e-09
2.39851e-11
2.1492e-09
1.07524e-11
1.45895e-09
8.72392e-10
2.54912e-12
2.27299e-10
-3.92975e-08
7.36414e-10
-1.44844e-08
1.19202e-09
1.28411e-08
1.56763e-09
2.49854e-08
1.75376e-09
2.96046e-08
1.89981e-09
3.05031e-08
1.97972e-09
3.04153e-08
2.03461e-09
2.97146e-08
2.04623e-09
2.80356e-08
2.04044e-09
2.64625e-08
2.01661e-09
2.54279e-08
1.98575e-09
2.44196e-08
1.94719e-09
2.3458e-08
1.90698e-09
2.24286e-08
1.86034e-09
2.19893e-08
1.80328e-09
2.24658e-08
1.73791e-09
2.29371e-08
1.66853e-09
2.33253e-08
1.59441e-09
2.26123e-08
1.51775e-09
2.18037e-08
1.43956e-09
2.08749e-08
1.36091e-09
2.00422e-08
1.28153e-09
1.92263e-08
1.20144e-09
1.8421e-08
1.1213e-09
1.75296e-08
1.04472e-09
1.6209e-08
9.70562e-10
1.47622e-08
9.0135e-10
1.24502e-08
8.35779e-10
1.11039e-08
7.72328e-10
1.02669e-08
7.10503e-10
9.60557e-09
6.48608e-10
9.47179e-09
5.85945e-10
9.77776e-09
5.22426e-10
9.95561e-09
4.57363e-10
1.0014e-08
3.93568e-10
9.26036e-09
3.32285e-10
8.49314e-09
2.76049e-10
7.69577e-09
2.23498e-10
7.10528e-09
1.7667e-10
6.2424e-09
1.3459e-10
5.36702e-09
9.87669e-11
4.34847e-09
6.76231e-11
3.65175e-09
4.26179e-11
2.92019e-09
2.34225e-11
2.16385e-09
1.04783e-11
1.46869e-09
8.78486e-10
2.39749e-12
1.9435e-10
-3.9412e-08
9.41471e-10
-1.51535e-08
1.49568e-09
1.23638e-08
1.87055e-09
2.46907e-08
1.99986e-09
2.95579e-08
2.09701e-09
3.04864e-08
2.12853e-09
3.04604e-08
2.14436e-09
2.977e-08
2.1317e-09
2.8112e-08
2.11034e-09
2.65408e-08
2.07437e-09
2.55155e-08
2.03394e-09
2.45065e-08
1.98825e-09
2.35453e-08
1.94162e-09
2.25119e-08
1.89032e-09
2.20735e-08
1.82824e-09
2.25585e-08
1.75848e-09
2.30349e-08
1.68509e-09
2.34237e-08
1.60773e-09
2.27106e-08
1.52803e-09
2.19005e-08
1.44722e-09
2.09694e-08
1.36615e-09
2.01338e-08
1.28446e-09
1.93157e-08
1.20249e-09
1.8508e-08
1.12069e-09
1.7614e-08
1.04285e-09
1.62871e-08
9.67588e-10
1.48359e-08
8.97304e-10
1.25178e-08
8.31007e-10
1.11667e-08
7.67014e-10
1.03266e-08
7.04558e-10
9.66283e-09
6.42419e-10
9.5276e-09
5.79679e-10
9.83256e-09
5.16253e-10
1.00093e-08
4.51318e-10
1.00676e-08
3.87606e-10
9.31208e-09
3.26515e-10
8.54218e-09
2.70625e-10
7.7399e-09
2.18567e-10
7.14564e-09
1.72296e-10
6.27754e-09
1.30846e-10
5.39821e-09
9.57499e-11
4.37482e-09
6.53013e-11
3.6746e-09
4.10223e-11
2.93822e-09
2.25192e-11
2.17759e-09
1.00143e-11
1.47786e-09
8.84082e-10
2.37449e-12
2.69342e-10
-3.95858e-08
1.43135e-09
-1.62226e-08
2.17555e-09
1.17114e-08
2.52674e-09
2.4435e-08
2.56717e-09
2.96157e-08
2.56637e-09
3.0583e-08
2.52063e-09
3.05972e-08
2.48686e-09
2.98883e-08
2.43663e-09
2.82376e-08
2.38343e-09
2.66611e-08
2.3239e-09
2.56357e-08
2.26514e-09
2.46199e-08
2.2051e-09
2.36541e-08
2.14556e-09
2.26146e-08
2.08245e-09
2.21754e-08
2.00872e-09
2.26682e-08
1.92782e-09
2.31488e-08
1.84352e-09
2.35375e-08
1.7555e-09
2.28235e-08
1.66549e-09
2.20109e-08
1.57455e-09
2.10763e-08
1.48367e-09
2.02369e-08
1.3926e-09
1.94157e-08
1.30145e-09
1.86051e-08
1.21102e-09
1.77076e-08
1.12498e-09
1.63738e-08
1.04206e-09
1.49173e-08
9.64763e-10
1.25922e-08
8.91863e-10
1.12358e-08
8.21637e-10
1.03921e-08
7.53684e-10
9.72515e-09
6.86007e-10
9.58847e-09
6.18095e-10
9.89187e-09
5.49632e-10
1.00672e-08
4.79767e-10
1.01247e-08
4.11182e-10
9.36698e-09
3.45489e-10
8.59383e-09
2.85607e-10
7.78592e-09
2.30075e-10
7.18737e-09
1.80875e-10
6.3137e-09
1.3708e-10
5.43011e-09
1.00035e-10
4.40183e-09
6.81987e-11
3.6978e-09
4.27388e-11
2.95663e-09
2.35938e-11
2.1914e-09
1.05185e-11
1.48723e-09
8.89716e-10
2.63683e-12
3.85052e-10
-3.98695e-08
1.84095e-09
-1.75804e-08
2.72915e-09
1.09202e-08
2.97534e-09
2.429e-08
2.92433e-09
2.97711e-08
2.83803e-09
3.07713e-08
2.72965e-09
3.08029e-08
2.63786e-09
3.00706e-08
2.54777e-09
2.84086e-08
2.46823e-09
2.68127e-08
2.39083e-09
2.57782e-08
2.31959e-09
2.47497e-08
2.25254e-09
2.37736e-08
2.18941e-09
2.27244e-08
2.12534e-09
2.22817e-08
2.05141e-09
2.27817e-08
1.97158e-09
2.32651e-08
1.88912e-09
2.3653e-08
1.80313e-09
2.29375e-08
1.71452e-09
2.21226e-08
1.625e-09
2.11842e-08
1.53484e-09
2.03412e-08
1.44404e-09
1.95171e-08
1.35245e-09
1.87041e-08
1.26133e-09
1.78032e-08
1.1744e-09
1.64623e-08
1.09002e-09
1.50008e-08
1.01082e-09
1.26689e-08
9.35939e-10
1.13069e-08
8.63529e-10
1.04596e-08
7.93015e-10
9.78972e-09
7.22782e-10
9.65136e-09
6.522e-10
9.9532e-09
5.81038e-10
1.01268e-08
5.08073e-10
1.01836e-08
4.36162e-10
9.42352e-09
3.66985e-10
8.64689e-09
3.03653e-10
7.83315e-09
2.44934e-10
7.23e-09
1.92946e-10
6.35055e-09
1.46612e-10
5.46269e-09
1.07272e-10
4.4296e-09
7.33548e-11
3.72177e-09
4.60644e-11
2.9758e-09
2.5544e-11
2.20577e-09
1.14053e-11
1.49711e-09
8.95589e-10
2.94357e-12
4.59476e-10
-4.02351e-08
1.88349e-09
-1.89135e-08
2.89564e-09
9.99806e-09
3.14749e-09
2.41324e-08
3.02512e-09
2.99909e-08
2.81599e-09
3.1076e-08
2.64269e-09
3.10679e-08
2.49641e-09
3.03025e-08
2.37597e-09
2.86057e-08
2.28109e-09
2.69763e-08
2.19943e-09
2.59221e-08
2.1281e-09
2.48773e-08
2.06482e-09
2.38875e-08
2.00838e-09
2.2826e-08
1.95262e-09
2.23786e-08
1.88937e-09
2.28836e-08
1.82166e-09
2.33688e-08
1.75249e-09
2.37551e-08
1.67979e-09
2.30385e-08
1.6042e-09
2.22219e-08
1.52664e-09
2.12809e-08
1.448e-09
2.0435e-08
1.36796e-09
1.96088e-08
1.28652e-09
1.87943e-08
1.20443e-09
1.7891e-08
1.12544e-09
1.6544e-08
1.04815e-09
1.50782e-08
9.74944e-10
1.27401e-08
9.049e-10
1.13735e-08
8.36688e-10
1.0523e-08
7.70056e-10
9.85037e-09
7.03552e-10
9.71036e-09
6.36437e-10
1.00107e-08
5.6877e-10
1.01826e-08
4.99125e-10
1.02387e-08
4.29795e-10
9.47674e-09
3.62779e-10
8.69693e-09
3.00986e-10
7.87787e-09
2.43381e-10
7.27054e-09
1.92371e-10
6.38558e-09
1.4663e-10
5.49396e-09
1.07598e-10
4.4564e-09
7.37127e-11
3.74502e-09
4.63434e-11
2.99442e-09
2.57495e-11
2.21971e-09
1.15105e-11
1.50676e-09
9.0139e-10
2.93109e-12
4.87969e-10
-4.06352e-08
1.72171e-09
-2.00623e-08
2.81269e-09
8.9914e-09
3.15426e-09
2.3879e-08
3.03243e-09
3.02042e-08
2.73679e-09
3.14617e-08
2.49765e-09
3.13936e-08
2.31709e-09
3.05643e-08
2.18072e-09
2.88152e-08
2.07727e-09
2.71454e-08
1.99046e-09
2.60687e-08
1.91883e-09
2.5003e-08
1.85776e-09
2.39974e-08
1.80561e-09
2.29218e-08
1.75599e-09
2.2468e-08
1.70059e-09
2.29766e-08
1.64238e-09
2.34622e-08
1.58257e-09
2.38474e-08
1.51994e-09
2.31293e-08
1.45436e-09
2.23114e-08
1.38664e-09
2.13684e-08
1.31716e-09
2.05206e-08
1.24599e-09
1.96928e-08
1.17346e-09
1.88766e-08
1.10005e-09
1.79713e-08
1.02907e-09
1.66189e-08
9.59245e-10
1.51492e-08
8.92637e-10
1.28057e-08
8.28898e-10
1.14344e-08
7.66628e-10
1.0581e-08
7.05607e-10
9.90581e-09
6.44547e-10
9.76427e-09
5.83203e-10
1.00628e-08
5.21114e-10
1.02332e-08
4.57285e-10
1.02885e-08
3.93894e-10
9.5248e-09
3.32545e-10
8.74219e-09
2.75987e-10
7.91827e-09
2.23517e-10
7.30689e-09
1.76819e-10
6.41719e-09
1.35014e-10
5.52199e-09
9.91796e-11
4.48045e-09
6.79692e-11
3.76586e-09
4.2728e-11
3.01107e-09
2.35992e-11
2.23235e-09
1.04967e-11
1.51541e-09
9.06624e-10
2.59886e-12
4.63058e-10
-4.10104e-08
1.45765e-09
-2.09719e-08
2.57236e-09
7.96102e-09
2.99628e-09
2.35431e-08
2.95248e-09
3.03393e-08
2.69625e-09
3.1808e-08
2.44728e-09
3.17296e-08
2.25045e-09
3.08432e-08
2.10749e-09
2.90325e-08
1.99398e-09
2.73259e-08
1.90142e-09
2.62225e-08
1.82843e-09
2.51317e-08
1.76932e-09
2.41069e-08
1.72052e-09
2.30159e-08
1.67566e-09
2.25545e-08
1.62553e-09
2.30663e-08
1.57226e-09
2.35526e-08
1.5178e-09
2.39362e-08
1.46055e-09
2.32167e-08
1.39996e-09
2.2398e-08
1.33682e-09
2.14534e-08
1.27155e-09
2.06039e-08
1.20418e-09
1.97748e-08
1.13465e-09
1.89576e-08
1.06428e-09
1.80501e-08
9.96176e-10
1.66924e-08
9.2909e-10
1.52188e-08
8.64636e-10
1.28701e-08
8.02746e-10
1.14944e-08
7.42206e-10
1.0638e-08
6.82719e-10
9.9603e-09
6.23216e-10
9.81715e-09
5.63777e-10
1.01136e-08
5.03784e-10
1.02823e-08
4.42331e-10
1.03367e-08
3.81065e-10
9.57153e-09
3.21609e-10
8.78643e-09
2.67104e-10
7.95752e-09
2.16552e-10
7.34219e-09
1.71596e-10
6.44766e-09
1.31206e-10
5.54894e-09
9.64063e-11
4.50348e-09
6.59614e-11
3.78581e-09
4.13843e-11
3.0269e-09
2.26893e-11