/*--------------------------------*- C++ -*----------------------------------*\
| =========                 |                                                 |
| \\      /  F ield         | OpenFOAM: The Open Source CFD Toolbox           |
|  \\    /   O peration     | Version:  2212                                  |
|   \\  /    A nd           | Website:  www.openfoam.com                      |
|    \\/     M anipulation  |                                                 |
\*---------------------------------------------------------------------------*/
FoamFile
{
    version     2.0;
    format      ascii;
    arch        "LSB;label=32;scalar=64";
    class       surfaceScalarField;
    location    "0.462";
    object      phi;
}
// * * * * * * * * * * * * * * * * * * * * * * * * * * * * * * * * * * * * * //

dimensions      [0 3 -1 0 0 0 0];

oriented        oriented;

internalField   nonuniform List<scalar> 
69808
(
-6.01545e-08
0.000463642
-1.83856
-1.47098e-07
0.000464092
-1.83862
-1.00548e-07
0.000463983
-1.83862
-1.10932e-07
0.000464044
-1.83862
-9.14037e-08
0.000464058
-1.83862
-9.301e-08
0.000464116
-1.83862
-8.75619e-08
0.000464159
-1.83862
-8.88894e-08
0.000464218
-1.83862
-8.8144e-08
0.000464269
-1.83862
-8.81782e-08
0.000464326
-1.83862
-8.75015e-08
0.000464375
-1.83862
-8.51482e-08
0.000464423
-1.83862
-8.3321e-08
0.000464464
-1.83862
-7.20875e-08
0.000464493
-1.83862
-6.58278e-08
0.000464521
-1.83862
-3.007e-08
0.000464523
-1.83862
-2.2122e-08
0.000464554
-1.83862
5.3865e-08
0.00046453
-1.83862
-5.72486e-09
0.000464663
-1.83862
0.000464207
-1.83856
-4.27557e-07
0.00401294
-1.84283
-5.92924e-07
0.00401352
-1.84289
-7.80785e-07
0.00401349
-1.84289
-9.56442e-07
0.00401361
-1.84289
-1.10117e-06
0.0040137
-1.84289
-1.21808e-06
0.00401385
-1.84289
-1.29767e-06
0.004014
-1.84289
-1.34086e-06
0.00401418
-1.84289
-1.34865e-06
0.00401436
-1.84289
-1.32089e-06
0.00401455
-1.84289
-1.26588e-06
0.00401474
-1.84289
-1.18237e-06
0.00401493
-1.84289
-1.07946e-06
0.0040151
-1.84289
-9.54811e-07
0.00401524
-1.84289
-8.17651e-07
0.00401537
-1.84289
-6.58254e-07
0.00401545
-1.84289
-4.86678e-07
0.00401553
-1.84289
-2.86318e-07
0.00401555
-1.84289
-3.45667e-08
0.00401566
-1.84289
0.00401506
-1.84283
-2.86208e-08
0.00699546
-1.84707
1.63565e-07
0.0069961
-1.84713
3.07536e-07
0.00699607
-1.84713
4.61769e-07
0.00699606
-1.84713
5.90554e-07
0.00699606
-1.84713
6.75759e-07
0.0069961
-1.84713
7.32567e-07
0.00699612
-1.84713
7.61599e-07
0.00699615
-1.84713
7.65694e-07
0.00699617
-1.84713
7.50108e-07
0.0069962
-1.84713
7.15234e-07
0.00699622
-1.84713
6.67989e-07
0.00699624
-1.84713
6.09124e-07
0.00699625
-1.84713
5.47763e-07
0.00699625
-1.84713
4.81259e-07
0.00699624
-1.84713
4.31908e-07
0.00699618
-1.84713
3.82147e-07
0.00699616
-1.84713
3.02525e-07
0.00699614
-1.84713
2.60861e-07
0.00699612
-1.84713
0.00699538
-1.84707
-4.41789e-07
0.0122712
-1.84506
-6.86173e-07
0.0122719
-1.84512
-9.2622e-07
0.0122718
-1.84512
-1.17522e-06
0.0122718
-1.84512
-1.38753e-06
0.0122717
-1.84512
-1.53759e-06
0.0122716
-1.84512
-1.64074e-06
0.0122715
-1.84512
-1.68972e-06
0.0122713
-1.84512
-1.69421e-06
0.0122713
-1.84512
-1.6523e-06
0.0122712
-1.84512
-1.57313e-06
0.0122711
-1.84512
-1.45841e-06
0.012271
-1.84512
-1.31728e-06
0.012271
-1.84512
-1.1557e-06
0.012271
-1.84512
-9.79146e-07
0.0122709
-1.84512
-8.02387e-07
0.0122709
-1.84512
-6.10929e-07
0.0122708
-1.84512
-3.59155e-07
0.0122708
-1.84512
-8.29828e-08
0.0122708
-1.84512
0.0122699
-1.84506
9.47121e-08
0.0173815
-1.84919
3.77434e-07
0.0173823
-1.84925
6.25195e-07
0.0173822
-1.84925
8.13334e-07
0.0173822
-1.84925
9.61216e-07
0.0173821
-1.84925
1.0789e-06
0.017382
-1.84925
1.15521e-06
0.0173819
-1.84925
1.19505e-06
0.0173818
-1.84925
1.19809e-06
0.0173817
-1.84925
1.17165e-06
0.0173816
-1.84925
1.11756e-06
0.0173815
-1.84925
1.04417e-06
0.0173814
-1.84925
9.53447e-07
0.0173813
-1.84925
8.52141e-07
0.0173812
-1.84925
7.41459e-07
0.0173811
-1.84925
6.18076e-07
0.0173811
-1.84925
4.9189e-07
0.017381
-1.84925
3.95647e-07
0.0173809
-1.84925
3.11047e-07
0.0173808
-1.84925
0.0173799
-1.84919
-2.80268e-07
0.0242158
-1.84781
-4.15224e-07
0.0242167
-1.84787
-5.46129e-07
0.0242166
-1.84787
-6.60697e-07
0.0242165
-1.84787
-7.54615e-07
0.0242164
-1.84787
-8.28876e-07
0.0242162
-1.84787
-8.77538e-07
0.0242161
-1.84787
-9.0007e-07
0.0242159
-1.84787
-8.97956e-07
0.0242157
-1.84787
-8.70982e-07
0.0242156
-1.84787
-8.23636e-07
0.0242154
-1.84787
-7.55607e-07
0.0242153
-1.84787
-6.73537e-07
0.0242152
-1.84787
-5.76696e-07
0.0242151
-1.84787
-4.73612e-07
0.024215
-1.84787
-3.57772e-07
0.0242149
-1.84787
-2.38898e-07
0.0242148
-1.84787
-1.09507e-07
0.0242148
-1.84787
2.2696e-08
0.0242147
-1.84787
0.0242137
-1.84781
1.86955e-08
0.0308789
-1.84983
2.08878e-07
0.03088
-1.8499
3.7857e-07
0.03088
-1.8499
5.04498e-07
0.0308801
-1.8499
6.07497e-07
0.0308801
-1.8499
6.89758e-07
0.0308802
-1.8499
7.47129e-07
0.0308803
-1.8499
7.81618e-07
0.0308804
-1.8499
7.92563e-07
0.0308805
-1.8499
7.84349e-07
0.0308806
-1.8499
7.5715e-07
0.0308807
-1.8499
7.17057e-07
0.0308808
-1.8499
6.63845e-07
0.0308808
-1.8499
6.03444e-07
0.0308809
-1.8499
5.34219e-07
0.030881
-1.8499
4.58734e-07
0.0308811
-1.8499
3.77807e-07
0.0308812
-1.8499
3.19222e-07
0.0308812
-1.8499
2.63412e-07
0.0308812
-1.8499
0.0308802
-1.84983
-3.91006e-08
0.0385202
-1.85016
4.9824e-08
0.0385215
-1.85022
1.32154e-07
0.0385216
-1.85022
2.06737e-07
0.0385219
-1.85022
2.72206e-07
0.0385223
-1.85022
3.21421e-07
0.0385227
-1.85022
3.59348e-07
0.0385232
-1.85022
3.8528e-07
0.0385237
-1.85022
3.99582e-07
0.0385242
-1.85022
4.04712e-07
0.0385247
-1.85022
3.9978e-07
0.0385253
-1.85022
3.89393e-07
0.0385258
-1.85022
3.71604e-07
0.0385263
-1.85022
3.52659e-07
0.0385267
-1.85022
3.27582e-07
0.0385271
-1.85022
3.06473e-07
0.0385274
-1.85022
2.78754e-07
0.0385277
-1.85022
2.44319e-07
0.0385279
-1.85022
2.02286e-07
0.0385281
-1.85022
0.038527
-1.85016
-1.56327e-07
0.0392983
-1.84366
-1.58942e-07
0.0392995
-1.84373
-1.63152e-07
0.0392997
-1.84373
-1.75749e-07
0.0393002
-1.84373
-1.84184e-07
0.0393007
-1.84373
-1.91971e-07
0.0393013
-1.84373
-1.9465e-07
0.039302
-1.84373
-1.93386e-07
0.0393028
-1.84373
-1.86884e-07
0.0393035
-1.84373
-1.75363e-07
0.0393043
-1.84373
-1.59415e-07
0.0393051
-1.84373
-1.38042e-07
0.0393059
-1.84373
-1.13556e-07
0.0393066
-1.84373
-8.33411e-08
0.0393073
-1.84373
-5.19682e-08
0.0393078
-1.84373
-1.37097e-08
0.0393083
-1.84373
2.38304e-08
0.0393088
-1.84373
7.39175e-08
0.0393091
-1.84373
1.24169e-07
0.0393094
-1.84373
0.0393085
-1.84367
1.03177e-07
0.0399984
-1.84589
3.56865e-07
0.0399996
-1.84595
5.86308e-07
0.0400001
-1.84595
7.78401e-07
0.0400008
-1.84595
9.37909e-07
0.0400017
-1.84595
1.06123e-06
0.0400027
-1.84595
1.14692e-06
0.0400039
-1.84595
1.1972e-06
0.0400051
-1.84595
1.21152e-06
0.0400064
-1.84595
1.19623e-06
0.0400076
-1.84595
1.15235e-06
0.0400088
-1.84595
1.08827e-06
0.04001
-1.84595
1.00539e-06
0.0400111
-1.84595
9.11776e-07
0.040012
-1.84595
8.06705e-07
0.0400129
-1.84595
6.95704e-07
0.0400136
-1.84595
5.75279e-07
0.0400142
-1.84595
4.52336e-07
0.0400147
-1.84595
3.17986e-07
0.0400151
-1.84595
0.0400145
-1.84589
-5.05385e-07
0.0408011
-1.84455
-8.65519e-07
0.0408021
-1.84461
-1.20358e-06
0.0408025
-1.84461
-1.48739e-06
0.040803
-1.84461
-1.72451e-06
0.0408036
-1.84461
-1.90755e-06
0.0408044
-1.84461
-2.03259e-06
0.0408053
-1.84461
-2.09471e-06
0.0408063
-1.84461
-2.09851e-06
0.0408073
-1.84461
-2.04325e-06
0.0408083
-1.84461
-1.93868e-06
0.0408093
-1.84461
-1.78732e-06
0.0408102
-1.84461
-1.60146e-06
0.0408111
-1.84461
-1.38464e-06
0.040812
-1.84461
-1.14901e-06
0.0408127
-1.84461
-8.93883e-07
0.0408134
-1.84461
-6.29545e-07
0.040814
-1.84461
-3.68317e-07
0.0408145
-1.84461
-1.08074e-07
0.0408149
-1.84461
0.0408144
-1.84455
2.27993e-07
0.0404533
-1.84887
6.22064e-07
0.0404542
-1.84893
9.81372e-07
0.0404548
-1.84893
1.27475e-06
0.0404557
-1.84893
1.51751e-06
0.0404568
-1.84893
1.71117e-06
0.0404581
-1.84893
1.84637e-06
0.0404595
-1.84893
1.9275e-06
0.040461
-1.84893
1.95154e-06
0.0404626
-1.84893
1.92701e-06
0.0404642
-1.84893
1.85559e-06
0.0404657
-1.84893
1.74828e-06
0.0404671
-1.84893
1.60921e-06
0.0404684
-1.84893
1.44793e-06
0.0404696
-1.84893
1.26776e-06
0.0404707
-1.84893
1.07111e-06
0.0404716
-1.84893
8.58753e-07
0.0404724
-1.84893
6.53901e-07
0.0404731
-1.84893
4.30231e-07
0.0404736
-1.84893
0.0404733
-1.84887
-7.47592e-07
0.0402833
-1.84566
-1.34754e-06
0.040284
-1.84573
-1.91147e-06
0.0402844
-1.84573
-2.37696e-06
0.0402849
-1.84573
-2.76709e-06
0.0402856
-1.84573
-3.07521e-06
0.0402865
-1.84573
-3.28855e-06
0.0402874
-1.84573
-3.40124e-06
0.0402884
-1.84573
-3.41724e-06
0.0402895
-1.84573
-3.33809e-06
0.0402906
-1.84573
-3.17609e-06
0.0402916
-1.84573
-2.93919e-06
0.0402927
-1.84573
-2.64342e-06
0.0402937
-1.84573
-2.29828e-06
0.0402946
-1.84573
-1.9197e-06
0.0402954
-1.84573
-1.50698e-06
0.0402962
-1.84573
-1.07708e-06
0.0402969
-1.84573
-6.66289e-07
0.0402976
-1.84573
-2.537e-07
0.0402981
-1.84573
0.040298
-1.84567
3.01205e-07
0.0380334
-1.85156
7.86607e-07
0.0380341
-1.85162
1.23063e-06
0.0380348
-1.85162
1.57533e-06
0.0380356
-1.85163
1.86048e-06
0.0380368
-1.85163
2.09457e-06
0.0380381
-1.85163
2.25898e-06
0.0380396
-1.85163
2.35842e-06
0.0380411
-1.85163
2.38826e-06
0.0380427
-1.85163
2.35714e-06
0.0380443
-1.85163
2.2685e-06
0.0380459
-1.85163
2.13361e-06
0.0380473
-1.85163
1.96058e-06
0.0380487
-1.85163
1.75815e-06
0.0380499
-1.85163
1.53341e-06
0.0380511
-1.85163
1.28049e-06
0.0380521
-1.85163
1.00843e-06
0.0380529
-1.85163
7.65519e-07
0.0380537
-1.85163
4.99882e-07
0.0380543
-1.85163
0.0380544
-1.85157
-9.03332e-07
0.0359851
-1.84632
-1.65302e-06
0.0359855
-1.84638
-2.36103e-06
0.0359859
-1.84638
-2.95214e-06
0.0359863
-1.84638
-3.44897e-06
0.035987
-1.84638
-3.84843e-06
0.0359878
-1.84638
-4.12737e-06
0.0359887
-1.84638
-4.27891e-06
0.0359896
-1.84638
-4.30644e-06
0.0359906
-1.84638
-4.21348e-06
0.0359916
-1.84638
-4.01401e-06
0.0359925
-1.84638
-3.7203e-06
0.0359935
-1.84638
-3.35154e-06
0.0359945
-1.84638
-2.92342e-06
0.0359954
-1.84638
-2.45399e-06
0.0359962
-1.84638
-1.94017e-06
0.035997
-1.84638
-1.40332e-06
0.0359977
-1.84638
-8.83077e-07
0.0359985
-1.84638
-3.53217e-07
0.035999
-1.84639
0.0359993
-1.84632
2.53396e-07
0.0312165
-1.85258
7.11351e-07
0.0312169
-1.85265
1.12042e-06
0.0312174
-1.85265
1.41337e-06
0.031218
-1.85265
1.65095e-06
0.0312189
-1.85265
1.86069e-06
0.0312199
-1.85265
2.00712e-06
0.0312211
-1.85265
2.09668e-06
0.0312223
-1.85265
2.12256e-06
0.0312235
-1.85265
2.09348e-06
0.0312247
-1.85265
2.01254e-06
0.0312259
-1.85265
1.89104e-06
0.031227
-1.85265
1.73677e-06
0.0312281
-1.85265
1.55591e-06
0.0312291
-1.85265
1.35599e-06
0.03123
-1.85265
1.11442e-06
0.0312308
-1.85265
8.58336e-07
0.0312316
-1.85265
6.60463e-07
0.0312323
-1.85265
4.53758e-07
0.0312328
-1.85265
0.0312332
-1.85259
-8.81645e-07
0.0266695
-1.84515
-1.55899e-06
0.0266697
-1.84521
-2.20594e-06
0.02667
-1.84521
-2.88213e-06
0.0266704
-1.84521
-3.45941e-06
0.0266709
-1.84521
-3.88361e-06
0.0266714
-1.84521
-4.18147e-06
0.026672
-1.84521
-4.34152e-06
0.0266726
-1.84521
-4.37411e-06
0.0266732
-1.84521
-4.28287e-06
0.0266739
-1.84521
-4.08337e-06
0.0266746
-1.84522
-3.78934e-06
0.0266753
-1.84522
-3.42158e-06
0.026676
-1.84522
-3.00302e-06
0.0266767
-1.84522
-2.54945e-06
0.0266773
-1.84522
-2.10557e-06
0.0266781
-1.84522
-1.63779e-06
0.0266787
-1.84522
-1.03406e-06
0.0266791
-1.84522
-4.09611e-07
0.0266796
-1.84522
0.0266801
-1.84516
1.83198e-08
0.0188892
-1.84993
1.90649e-07
0.0188893
-1.85
2.89007e-07
0.0188896
-1.85
4.58772e-07
0.0188899
-1.85
6.11091e-07
0.0188903
-1.85
7.05239e-07
0.0188906
-1.85
7.76593e-07
0.0188911
-1.85
8.14184e-07
0.0188915
-1.85
8.255e-07
0.018892
-1.85
8.11707e-07
0.0188924
-1.85
7.7534e-07
0.0188929
-1.85
7.24765e-07
0.0188933
-1.85
6.59584e-07
0.0188937
-1.85
5.94914e-07
0.0188942
-1.85
5.21194e-07
0.0188947
-1.85
4.79909e-07
0.0188951
-1.85
4.33793e-07
0.0188956
-1.85
2.94065e-07
0.018896
-1.85
2.13397e-07
0.0188962
-1.85
0.0188966
-1.84994
-6.19333e-07
0.0114374
-1.84025
-1.10518e-06
0.0114375
-1.84031
-1.63757e-06
0.0114379
-1.84031
-2.10012e-06
0.0114381
-1.84031
-2.48087e-06
0.0114383
-1.84031
-2.78163e-06
0.0114386
-1.84031
-2.98894e-06
0.0114389
-1.84031
-3.10531e-06
0.0114392
-1.84031
-3.13159e-06
0.0114396
-1.84031
-3.07322e-06
0.0114399
-1.84031
-2.94044e-06
0.0114403
-1.84031
-2.74153e-06
0.0114407
-1.84031
-2.49338e-06
0.011441
-1.84031
-2.20444e-06
0.0114414
-1.84031
-1.89284e-06
0.0114418
-1.84031
-1.55442e-06
0.0114423
-1.84031
-1.20139e-06
0.0114426
-1.84031
-8.39035e-07
0.0114429
-1.84031
-3.79396e-07
0.011443
-1.84031
0.0114434
-1.84025
8.50484e-08
-1.83982
-3.11375e-07
-1.83987
-5.69919e-07
-1.83987
-7.87944e-07
-1.83987
-9.19303e-07
-1.83987
-1.03238e-06
-1.83987
-1.10197e-06
-1.83987
-1.14836e-06
-1.83987
-1.16529e-06
-1.83987
-1.15959e-06
-1.83987
-1.13445e-06
-1.83987
-1.08981e-06
-1.83987
-1.03427e-06
-1.83987
-9.55999e-07
-1.83987
-8.72884e-07
-1.83987
-7.55728e-07
-1.83987
-6.79685e-07
-1.83987
-6.12294e-07
-1.83987
-6.34097e-07
-1.83988
-1.83982
-6.9829e-08
0.00307905
-1.84164
-9.88562e-08
0.00307962
-1.8417
-2.43711e-08
0.00307958
-1.8417
1.0238e-08
0.00307968
-1.8417
6.26801e-08
0.00307976
-1.8417
8.67508e-08
0.0030799
-1.8417
1.08823e-07
0.00308003
-1.8417
1.16038e-07
0.00308019
-1.8417
1.1676e-07
0.00308033
-1.8417
1.09852e-07
0.00308049
-1.8417
9.62542e-08
0.00308064
-1.8417
8.08393e-08
0.00308078
-1.8417
6.02143e-08
0.00308091
-1.8417
5.07124e-08
0.00308102
-1.8417
3.74083e-08
0.00308112
-1.8417
5.63111e-08
0.00308117
-1.8417
5.7368e-08
0.00308125
-1.8417
1.00883e-07
0.00308128
-1.8417
4.31396e-08
0.00308141
-1.8417
0.00308083
-1.84164
-4.11521e-07
0.00713598
-1.84689
-5.77567e-07
0.00713657
-1.84695
-7.5604e-07
0.00713652
-1.84695
-9.07555e-07
0.00713656
-1.84695
-1.03645e-06
0.00713657
-1.84695
-1.13875e-06
0.00713663
-1.84695
-1.21032e-06
0.00713667
-1.84695
-1.24722e-06
0.00713674
-1.84695
-1.25434e-06
0.00713681
-1.84695
-1.22885e-06
0.00713689
-1.84695
-1.18009e-06
0.00713698
-1.84695
-1.10424e-06
0.00713707
-1.84695
-1.0125e-06
0.00713716
-1.84695
-8.97305e-07
0.00713723
-1.84695
-7.68834e-07
0.00713731
-1.84695
-6.1426e-07
0.00713734
-1.84695
-4.42124e-07
0.00713741
-1.84695
-2.53624e-07
0.00713742
-1.84695
-2.55421e-08
0.00713751
-1.84695
0.00713687
-1.84689
1.10635e-08
0.010792
-1.85072
2.23686e-07
0.0107926
-1.85078
3.88765e-07
0.0107926
-1.85078
5.99143e-07
0.0107926
-1.85078
7.69562e-07
0.0107927
-1.85078
8.85701e-07
0.0107928
-1.85078
9.58312e-07
0.0107929
-1.85078
9.98294e-07
0.010793
-1.85078
1.00022e-06
0.0107931
-1.85078
9.80129e-07
0.0107932
-1.85078
9.32464e-07
0.0107932
-1.85078
8.71653e-07
0.0107933
-1.85078
7.95436e-07
0.0107934
-1.85078
7.16917e-07
0.0107935
-1.85078
6.34149e-07
0.0107935
-1.85078
5.74246e-07
0.0107935
-1.85078
5.17284e-07
0.0107935
-1.85078
3.92138e-07
0.0107936
-1.85078
3.00729e-07
0.0107936
-1.85078
0.0107929
-1.85072
-4.16087e-07
0.0152293
-1.8495
-6.4954e-07
0.0152299
-1.84956
-8.73619e-07
0.0152298
-1.84956
-1.11255e-06
0.0152298
-1.84956
-1.32076e-06
0.0152297
-1.84956
-1.45823e-06
0.0152296
-1.84956
-1.55745e-06
0.0152295
-1.84956
-1.59908e-06
0.0152293
-1.84956
-1.6043e-06
0.0152293
-1.84956
-1.56089e-06
0.0152292
-1.84956
-1.48755e-06
0.0152291
-1.84956
-1.37778e-06
0.015229
-1.84956
-1.24665e-06
0.015229
-1.84956
-1.09565e-06
0.015229
-1.84956
-9.31056e-07
0.0152289
-1.84956
-7.70734e-07
0.0152289
-1.84955
-5.942e-07
0.0152289
-1.84955
-3.47246e-07
0.0152289
-1.84955
-8.24198e-08
0.0152289
-1.84955
0.0152281
-1.84949
1.25947e-07
0.0197215
-1.85368
4.21564e-07
0.0197222
-1.85374
6.86376e-07
0.0197222
-1.85374
8.9806e-07
0.0197223
-1.85374
1.06503e-06
0.0197223
-1.85374
1.20295e-06
0.0197222
-1.85374
1.29352e-06
0.0197222
-1.85374
1.34562e-06
0.0197222
-1.85374
1.35566e-06
0.0197223
-1.85374
1.33481e-06
0.0197223
-1.85374
1.28188e-06
0.0197223
-1.85374
1.2091e-06
0.0197223
-1.85374
1.11456e-06
0.0197223
-1.85374
1.00802e-06
0.0197223
-1.85374
8.86376e-07
0.0197224
-1.85374
7.46749e-07
0.0197224
-1.85374
5.97954e-07
0.0197224
-1.85374
4.7211e-07
0.0197224
-1.85374
3.50806e-07
0.0197224
-1.85374
0.0197216
-1.85368
-2.35723e-07
0.0249346
-1.85302
-3.504e-07
0.0249355
-1.85308
-4.56324e-07
0.0249354
-1.85308
-5.36158e-07
0.0249354
-1.85308
-5.98595e-07
0.0249353
-1.85308
-6.48792e-07
0.0249353
-1.85308
-6.79123e-07
0.0249352
-1.85308
-6.89444e-07
0.0249351
-1.85308
-6.80836e-07
0.0249351
-1.85308
-6.52407e-07
0.0249351
-1.85308
-6.08386e-07
0.024935
-1.85308
-5.47646e-07
0.024935
-1.85308
-4.7739e-07
0.024935
-1.85308
-3.94816e-07
0.024935
-1.85308
-3.10305e-07
0.024935
-1.85308
-2.13128e-07
0.024935
-1.85308
-1.16666e-07
0.0249351
-1.85308
-2.58862e-08
0.024935
-1.85308
5.99327e-08
0.0249351
-1.85308
0.0249342
-1.85302
4.73187e-08
0.0301513
-1.85505
2.43599e-07
0.0301522
-1.85511
4.23364e-07
0.0301522
-1.85511
5.71017e-07
0.0301523
-1.85511
6.93072e-07
0.0301523
-1.85511
7.96174e-07
0.0301524
-1.85511
8.69781e-07
0.0301524
-1.85511
9.20022e-07
0.0301525
-1.85511
9.42154e-07
0.0301526
-1.85511
9.44417e-07
0.0301527
-1.85511
9.23203e-07
0.0301528
-1.85511
8.88104e-07
0.0301529
-1.85511
8.34993e-07
0.030153
-1.85511
7.71667e-07
0.0301531
-1.85511
6.93558e-07
0.0301532
-1.85511
6.02802e-07
0.0301532
-1.85511
4.9922e-07
0.0301533
-1.85511
4.04449e-07
0.0301534
-1.85511
3.00487e-07
0.0301534
-1.85511
0.0301525
-1.85505
1.59246e-08
0.0357726
-1.85578
1.38422e-07
0.0357737
-1.85584
2.54858e-07
0.0357738
-1.85584
3.81743e-07
0.0357739
-1.85584
4.93647e-07
0.0357741
-1.85584
5.83491e-07
0.0357743
-1.85584
6.53611e-07
0.0357746
-1.85584
7.05866e-07
0.0357749
-1.85584
7.3785e-07
0.0357752
-1.85584
7.55355e-07
0.0357755
-1.85584
7.54866e-07
0.0357758
-1.85584
7.44257e-07
0.0357761
-1.85584
7.18744e-07
0.0357764
-1.85584
6.86732e-07
0.0357766
-1.85584
6.40095e-07
0.0357769
-1.85584
5.90494e-07
0.0357771
-1.85584
5.2301e-07
0.0357773
-1.85584
4.19046e-07
0.0357774
-1.85584
2.87295e-07
0.0357776
-1.85584
0.0357766
-1.85578
-1.77791e-07
0.0348309
-1.84272
-2.27049e-07
0.0348318
-1.84278
-2.70416e-07
0.0348319
-1.84278
-2.99339e-07
0.0348321
-1.84278
-3.19233e-07
0.0348322
-1.84279
-3.34665e-07
0.0348325
-1.84279
-3.40118e-07
0.0348327
-1.84279
-3.36975e-07
0.034833
-1.84279
-3.2382e-07
0.0348333
-1.84279
-3.00917e-07
0.0348336
-1.84279
-2.69889e-07
0.0348339
-1.84279
-2.29307e-07
0.0348342
-1.84279
-1.84531e-07
0.0348345
-1.84279
-1.31405e-07
0.0348347
-1.84279
-7.9426e-08
0.034835
-1.84279
-2.14955e-08
0.0348352
-1.84279
3.33016e-08
0.0348354
-1.84279
7.83612e-08
0.0348356
-1.84279
1.11753e-07
0.0348358
-1.84279
0.034835
-1.84273
9.62711e-08
0.0337749
-1.84483
3.13341e-07
0.0337758
-1.84489
5.19152e-07
0.0337759
-1.84489
7.11531e-07
0.0337762
-1.84489
8.75455e-07
0.0337765
-1.84489
1.01115e-06
0.0337769
-1.84489
1.11248e-06
0.0337773
-1.84489
1.18568e-06
0.0337777
-1.84489
1.22554e-06
0.0337781
-1.8449
1.24207e-06
0.0337786
-1.8449
1.23118e-06
0.0337791
-1.8449
1.20339e-06
0.0337795
-1.8449
1.15432e-06
0.0337799
-1.8449
1.09133e-06
0.0337803
-1.8449
1.00703e-06
0.0337807
-1.8449
9.04483e-07
0.033781
-1.8449
7.73214e-07
0.0337813
-1.8449
6.05261e-07
0.0337816
-1.8449
3.91914e-07
0.0337818
-1.8449
0.0337812
-1.84484
-5.33613e-07
0.0327346
-1.84351
-9.50862e-07
0.0327354
-1.84357
-1.33976e-06
0.0327355
-1.84357
-1.64331e-06
0.0327356
-1.84357
-1.89839e-06
0.0327358
-1.84357
-2.09591e-06
0.0327361
-1.84357
-2.23337e-06
0.0327363
-1.84357
-2.30157e-06
0.0327366
-1.84357
-2.30893e-06
0.032737
-1.84357
-2.25024e-06
0.0327373
-1.84357
-2.1402e-06
0.0327376
-1.84357
-1.97654e-06
0.0327379
-1.84357
-1.77607e-06
0.0327383
-1.84357
-1.53781e-06
0.0327386
-1.84357
-1.2775e-06
0.0327389
-1.84357
-9.89462e-07
0.0327392
-1.84357
-6.88463e-07
0.0327395
-1.84357
-4.14424e-07
0.0327398
-1.84357
-1.50761e-07
0.03274
-1.84357
0.0327395
-1.84351
1.95543e-07
0.0310077
-1.84714
5.21832e-07
0.0310083
-1.8472
8.35213e-07
0.0310085
-1.8472
1.10279e-06
0.0310088
-1.8472
1.32962e-06
0.0310092
-1.8472
1.52476e-06
0.0310096
-1.8472
1.66983e-06
0.0310101
-1.84721
1.77621e-06
0.0310106
-1.84721
1.83313e-06
0.0310112
-1.84721
1.85436e-06
0.0310117
-1.84721
1.83391e-06
0.0310123
-1.84721
1.78544e-06
0.0310128
-1.84721
1.70427e-06
0.0310133
-1.84721
1.59836e-06
0.0310137
-1.84721
1.46096e-06
0.0310142
-1.84721
1.28823e-06
0.0310146
-1.84721
1.07291e-06
0.031015
-1.84721
8.29555e-07
0.0310154
-1.84721
5.18917e-07
0.0310157
-1.84721
0.0310154
-1.84715
-8.19183e-07
0.0293342
-1.84399
-1.52175e-06
0.0293348
-1.84405
-2.1815e-06
0.0293349
-1.84405
-2.69928e-06
0.0293349
-1.84405
-3.13877e-06
0.0293351
-1.84405
-3.48768e-06
0.0293353
-1.84405
-3.73596e-06
0.0293356
-1.84405
-3.8696e-06
0.0293358
-1.84405
-3.8992e-06
0.0293361
-1.84405
-3.81924e-06
0.0293364
-1.84405
-3.64955e-06
0.0293367
-1.84405
-3.39178e-06
0.029337
-1.84405
-3.06804e-06
0.0293373
-1.84405
-2.68201e-06
0.0293376
-1.84405
-2.25242e-06
0.029338
-1.84406
-1.77365e-06
0.0293383
-1.84406
-1.26513e-06
0.0293386
-1.84406
-8.03886e-07
0.029339
-1.84406
-3.44126e-07
0.0293393
-1.84406
0.0293391
-1.84399
2.5804e-07
0.0264968
-1.84873
6.61454e-07
0.0264972
-1.84879
1.05156e-06
0.0264974
-1.84879
1.35669e-06
0.0264977
-1.84879
1.61474e-06
0.0264981
-1.84879
1.84502e-06
0.0264985
-1.84879
2.01524e-06
0.026499
-1.84879
2.14055e-06
0.0264995
-1.84879
2.20584e-06
0.0265001
-1.84879
2.22719e-06
0.0265006
-1.84879
2.1984e-06
0.0265011
-1.84879
2.13453e-06
0.0265016
-1.84879
2.03283e-06
0.0265021
-1.84879
1.89944e-06
0.0265026
-1.84879
1.73047e-06
0.0265031
-1.8488
1.51056e-06
0.0265035
-1.8488
1.2379e-06
0.0265039
-1.8488
9.62508e-07
0.0265044
-1.8488
6.05178e-07
0.0265047
-1.8488
0.0265048
-1.84873
-1.01053e-06
0.023766
-1.84358
-1.89565e-06
0.0237662
-1.84365
-2.72962e-06
0.0237663
-1.84365
-3.4077e-06
0.0237663
-1.84365
-3.98467e-06
0.0237665
-1.84365
-4.44916e-06
0.0237666
-1.84365
-4.78192e-06
0.0237668
-1.84365
-4.96637e-06
0.023767
-1.84365
-5.01414e-06
0.0237672
-1.84365
-4.92134e-06
0.0237674
-1.84365
-4.7106e-06
0.0237676
-1.84365
-4.38855e-06
0.0237679
-1.84365
-3.98054e-06
0.0237681
-1.84365
-3.49715e-06
0.0237684
-1.84365
-2.95776e-06
0.0237687
-1.84365
-2.35626e-06
0.023769
-1.84365
-1.71226e-06
0.0237693
-1.84365
-1.10157e-06
0.0237697
-1.84365
-4.8154e-07
0.02377
-1.84365
0.0237701
-1.84359
2.00138e-07
0.0196271
-1.84845
5.76224e-07
0.0196272
-1.84851
9.32312e-07
0.0196274
-1.84851
1.18721e-06
0.0196276
-1.84851
1.39728e-06
0.019628
-1.84851
1.60544e-06
0.0196283
-1.84851
1.75724e-06
0.0196287
-1.84851
1.87287e-06
0.0196291
-1.84851
1.93164e-06
0.0196295
-1.84851
1.95356e-06
0.0196299
-1.84851
1.92897e-06
0.0196303
-1.84851
1.87594e-06
0.0196307
-1.84851
1.79015e-06
0.0196311
-1.84851
1.67781e-06
0.0196315
-1.84851
1.53604e-06
0.0196318
-1.84851
1.33054e-06
0.0196322
-1.84852
1.08141e-06
0.0196326
-1.84852
8.58896e-07
0.0196329
-1.84852
5.65985e-07
0.0196332
-1.84852
0.0196336
-1.84845
-9.94845e-07
0.0156336
-1.84116
-1.77816e-06
0.0156335
-1.84122
-2.51183e-06
0.0156336
-1.84122
-3.29942e-06
0.0156339
-1.84122
-3.97729e-06
0.015634
-1.84122
-4.47103e-06
0.015634
-1.84122
-4.82661e-06
0.0156342
-1.84122
-5.02102e-06
0.0156342
-1.84122
-5.07615e-06
0.0156344
-1.84122
-4.98707e-06
0.0156345
-1.84122
-4.77948e-06
0.0156346
-1.84122
-4.46041e-06
0.0156348
-1.84122
-4.05759e-06
0.015635
-1.84122
-3.58936e-06
0.0156352
-1.84122
-3.07285e-06
0.0156355
-1.84122
-2.55889e-06
0.0156358
-1.84122
-2.00778e-06
0.015636
-1.84122
-1.27602e-06
0.0156361
-1.84122
-5.29967e-07
0.0156363
-1.84122
0.0156368
-1.84116
-6.43245e-08
0.0103016
-1.8446
1.15831e-08
0.0103014
-1.84466
4.24886e-08
0.0103017
-1.84466
2.23481e-07
0.0103018
-1.84466
3.96538e-07
0.010302
-1.84466
4.96907e-07
0.0103021
-1.84467
5.83264e-07
0.0103023
-1.84467
6.39248e-07
0.0103025
-1.84467
6.77152e-07
0.0103027
-1.84467
6.95375e-07
0.0103029
-1.84467
6.96722e-07
0.0103031
-1.84467
6.89782e-07
0.0103033
-1.84467
6.69704e-07
0.0103035
-1.84467
6.57124e-07
0.0103037
-1.84467
6.32101e-07
0.0103039
-1.84467
6.56498e-07
0.0103041
-1.84467
6.63713e-07
0.0103043
-1.84467
4.8253e-07
0.0103045
-1.84467
3.17378e-07
0.0103046
-1.84467
0.0103051
-1.84461
-7.63232e-07
0.00507857
-1.83502
-1.33885e-06
0.00507828
-1.83508
-1.92268e-06
0.00507853
-1.83508
-2.43244e-06
0.00507858
-1.83508
-2.85829e-06
0.00507866
-1.83508
-3.19722e-06
0.00507869
-1.83509
-3.43623e-06
0.00507875
-1.83509
-3.57251e-06
0.00507879
-1.83509
-3.61112e-06
0.00507885
-1.83509
-3.55398e-06
0.0050789
-1.83509
-3.4159e-06
0.00507897
-1.83509
-3.2012e-06
0.00507904
-1.83509
-2.92963e-06
0.00507912
-1.83509
-2.6026e-06
0.00507922
-1.83509
-2.23843e-06
0.00507932
-1.83509
-1.82695e-06
0.00507945
-1.83509
-1.38608e-06
0.00507952
-1.83509
-9.2681e-07
0.0050796
-1.83509
-4.00314e-07
0.00507948
-1.83509
0.00507995
-1.83503
-8.02209e-08
-1.83474
-4.34419e-07
-1.83479
-6.6993e-07
-1.83479
-8.49457e-07
-1.83479
-9.53613e-07
-1.83479
-1.04652e-06
-1.83479
-1.10144e-06
-1.83479
-1.1354e-06
-1.83479
-1.14393e-06
-1.83479
-1.13002e-06
-1.83479
-1.10014e-06
-1.83479
-1.04858e-06
-1.83479
-9.85784e-07
-1.83479
-8.92194e-07
-1.83479
-7.88289e-07
-1.83479
-6.37774e-07
-1.83479
-5.23155e-07
-1.83479
-4.2969e-07
-1.83479
-4.16098e-07
-1.8348
-1.83474
-7.13391e-08
0.00401334
-1.84565
-5.55206e-08
0.00401381
-1.84571
7.98024e-08
0.00401376
-1.84571
1.59314e-07
0.00401382
-1.84571
2.4183e-07
0.00401384
-1.84571
2.88552e-07
0.0040139
-1.84571
3.2331e-07
0.00401394
-1.84571
3.37475e-07
0.004014
-1.84571
3.36747e-07
0.00401405
-1.84571
3.23606e-07
0.0040141
-1.84571
2.96412e-07
0.00401415
-1.84571
2.63918e-07
0.0040142
-1.84571
2.21558e-07
0.00401424
-1.84571
1.8858e-07
0.00401427
-1.84571
1.5307e-07
0.0040143
-1.84571
1.51116e-07
0.0040143
-1.84571
1.39603e-07
0.00401434
-1.84571
1.83106e-07
0.00401434
-1.84571
1.04651e-07
0.00401442
-1.84571
0.00401392
-1.84565
-3.52936e-07
0.00725029
-1.85012
-4.39708e-07
0.00725075
-1.85019
-5.45959e-07
0.00725073
-1.85019
-6.31694e-07
0.00725079
-1.85019
-7.12499e-07
0.00725082
-1.85019
-7.761e-07
0.00725091
-1.85019
-8.24804e-07
0.00725098
-1.85019
-8.48924e-07
0.00725108
-1.85019
-8.58374e-07
0.00725118
-1.85019
-8.43626e-07
0.00725128
-1.85019
-8.17627e-07
0.00725139
-1.85019
-7.7031e-07
0.00725149
-1.85019
-7.14969e-07
0.00725159
-1.85019
-6.39504e-07
0.00725168
-1.85019
-5.538e-07
0.00725176
-1.85019
-4.4194e-07
0.00725181
-1.85019
-3.0832e-07
0.00725188
-1.85019
-1.57425e-07
0.00725192
-1.85019
3.42179e-08
0.00725201
-1.85019
0.00725153
-1.85012
-2.72493e-08
0.010408
-1.85388
1.93595e-07
0.0104085
-1.85394
3.59658e-07
0.0104086
-1.85394
5.73028e-07
0.0104086
-1.85394
7.41596e-07
0.0104087
-1.85394
8.57608e-07
0.0104089
-1.85394
9.26799e-07
0.010409
-1.85394
9.67285e-07
0.0104092
-1.85394
9.67042e-07
0.0104094
-1.85394
9.4893e-07
0.0104096
-1.85394
9.00237e-07
0.0104098
-1.85394
8.4191e-07
0.0104099
-1.85394
7.65854e-07
0.0104101
-1.85394
6.89458e-07
0.0104102
-1.85394
6.09569e-07
0.0104104
-1.85394
5.54939e-07
0.0104105
-1.85394
5.08625e-07
0.0104106
-1.85394
3.93799e-07
0.0104107
-1.85394
3.22586e-07
0.0104108
-1.85394
0.0104103
-1.85388
-3.83865e-07
0.0145927
-1.85368
-5.38755e-07
0.0145933
-1.85374
-6.96505e-07
0.0145933
-1.85374
-8.86843e-07
0.0145934
-1.85374
-1.06037e-06
0.0145934
-1.85374
-1.17068e-06
0.0145935
-1.85374
-1.25666e-06
0.0145935
-1.85374
-1.29172e-06
0.0145936
-1.85374
-1.30307e-06
0.0145937
-1.85374
-1.27042e-06
0.0145938
-1.85374
-1.21861e-06
0.0145939
-1.85374
-1.13261e-06
0.014594
-1.85374
-1.03331e-06
0.0145941
-1.85374
-9.14268e-07
0.0145942
-1.85374
-7.85807e-07
0.0145943
-1.85374
-6.60054e-07
0.0145943
-1.85374
-5.16471e-07
0.0145944
-1.85374
-2.87277e-07
0.0145945
-1.85374
-3.21389e-08
0.0145945
-1.85374
0.0145939
-1.85368
5.81903e-08
0.0187921
-1.85788
3.36238e-07
0.0187928
-1.85794
5.77743e-07
0.0187928
-1.85794
7.70369e-07
0.0187928
-1.85794
9.1875e-07
0.0187929
-1.85794
1.04531e-06
0.0187929
-1.85794
1.1273e-06
0.018793
-1.85794
1.17918e-06
0.0187931
-1.85794
1.19177e-06
0.0187932
-1.85794
1.18027e-06
0.0187933
-1.85794
1.13818e-06
0.0187934
-1.85794
1.0804e-06
0.0187935
-1.85794
1.00066e-06
0.0187936
-1.85794
9.10143e-07
0.0187937
-1.85794
8.03971e-07
0.0187938
-1.85794
6.818e-07
0.0187939
-1.85794
5.53395e-07
0.018794
-1.85794
4.51727e-07
0.018794
-1.85794
3.63546e-07
0.0187941
-1.85794
0.0187934
-1.85788
-2.43429e-07
0.0239476
-1.85818
-3.13527e-07
0.0239484
-1.85824
-3.84073e-07
0.0239484
-1.85824
-4.38775e-07
0.0239484
-1.85824
-4.82684e-07
0.0239484
-1.85824
-5.18668e-07
0.0239484
-1.85824
-5.40344e-07
0.0239484
-1.85824
-5.45731e-07
0.0239484
-1.85824
-5.36589e-07
0.0239484
-1.85824
-5.10592e-07
0.0239485
-1.85824
-4.72727e-07
0.0239485
-1.85824
-4.20819e-07
0.0239486
-1.85824
-3.61914e-07
0.0239487
-1.85824
-2.93322e-07
0.0239487
-1.85824
-2.24239e-07
0.0239488
-1.85824
-1.4158e-07
0.0239489
-1.85824
-5.9533e-08
0.023949
-1.85824
2.66655e-08
0.023949
-1.85824
1.15497e-07
0.0239491
-1.85824
0.0239483
-1.85817
-1.15915e-08
0.0291298
-1.86023
1.7365e-07
0.0291307
-1.8603
3.3863e-07
0.0291307
-1.8603
4.72612e-07
0.0291307
-1.8603
5.80897e-07
0.0291307
-1.8603
6.74645e-07
0.0291307
-1.8603
7.41194e-07
0.0291307
-1.8603
7.90584e-07
0.0291307
-1.8603
8.1437e-07
0.0291308
-1.8603
8.23724e-07
0.0291308
-1.8603
8.11402e-07
0.0291309
-1.8603
7.8891e-07
0.0291309
-1.8603
7.48846e-07
0.029131
-1.8603
6.99856e-07
0.0291311
-1.8603
6.35717e-07
0.0291312
-1.8603
5.6002e-07
0.0291312
-1.8603
4.74111e-07
0.0291313
-1.8603
4.00259e-07
0.0291313
-1.8603
3.23848e-07
0.0291314
-1.8603
0.0291306
-1.86023
-4.26432e-08
0.0348162
-1.86147
7.62702e-08
0.0348172
-1.86153
1.85962e-07
0.0348172
-1.86153
3.04712e-07
0.0348172
-1.86153
4.0856e-07
0.0348172
-1.86153
4.95065e-07
0.0348172
-1.86153
5.63904e-07
0.0348172
-1.86153
6.20775e-07
0.0348172
-1.86153
6.59863e-07
0.0348173
-1.86153
6.89173e-07
0.0348173
-1.86153
7.02462e-07
0.0348174
-1.86153
7.09211e-07
0.0348174
-1.86153
7.01095e-07
0.0348175
-1.86153
6.87159e-07
0.0348176
-1.86153
6.55905e-07
0.0348176
-1.86153
6.19872e-07
0.0348177
-1.86153
5.63962e-07
0.0348178
-1.86153
4.71742e-07
0.0348179
-1.86153
3.50755e-07
0.034818