/*--------------------------------*- C++ -*----------------------------------*\
| =========                 |                                                 |
| \\      /  F ield         | OpenFOAM: The Open Source CFD Toolbox           |
|  \\    /   O peration     | Version:  2212                                  |
|   \\  /    A nd           | Website:  www.openfoam.com                      |
|    \\/     M anipulation  |                                                 |
\*---------------------------------------------------------------------------*/
FoamFile
{
    version     2.0;
    format      ascii;
    arch        "LSB;label=32;scalar=64";
    class       surfaceScalarField;
    location    "0.236";
    object      phi_0;
}
// * * * * * * * * * * * * * * * * * * * * * * * * * * * * * * * * * * * * * //

dimensions      [0 3 -1 0 0 0 0];

oriented        oriented;

internalField   nonuniform List<scalar> 
69808
(
1.73571e-07
-0.00624923
-1.84723
1.72782e-07
-0.00624886
-1.84726
2.64117e-07
-0.00624875
-1.84726
3.12276e-07
-0.00624842
-1.84726
3.69757e-07
-0.00624805
-1.84726
4.02652e-07
-0.0062476
-1.84726
4.2396e-07
-0.0062471
-1.84726
4.27715e-07
-0.00624657
-1.84726
4.18394e-07
-0.00624602
-1.84726
3.97236e-07
-0.00624548
-1.84726
3.67296e-07
-0.00624495
-1.84726
3.31763e-07
-0.00624445
-1.84726
2.91603e-07
-0.00624399
-1.84726
2.5308e-07
-0.00624358
-1.84726
2.1012e-07
-0.00624322
-1.84726
1.77538e-07
-0.00624292
-1.84726
1.24053e-07
-0.00624265
-1.84726
1.00812e-07
-0.00624247
-1.84726
-3.29868e-08
-0.00624223
-1.84726
-0.00624239
-1.84723
-2.15059e-07
-0.00767345
-1.84672
-3.43853e-07
-0.00767303
-1.84675
-4.89568e-07
-0.00767289
-1.84675
-6.19012e-07
-0.00767257
-1.84675
-7.23806e-07
-0.0076722
-1.84675
-8.06034e-07
-0.00767174
-1.84675
-8.60673e-07
-0.00767124
-1.84675
-8.90152e-07
-0.00767069
-1.84675
-8.93711e-07
-0.00767013
-1.84675
-8.73618e-07
-0.00766957
-1.84675
-8.31808e-07
-0.00766902
-1.84675
-7.70785e-07
-0.00766849
-1.84675
-6.94638e-07
-0.007668
-1.84675
-6.06392e-07
-0.00766755
-1.84675
-5.11067e-07
-0.00766715
-1.84675
-4.09591e-07
-0.00766682
-1.84675
-3.05294e-07
-0.00766652
-1.84675
-1.94227e-07
-0.00766632
-1.84675
-5.81281e-08
-0.00766609
-1.84675
-0.00766628
-1.84671
1.0065e-07
-0.00938761
-1.85353
2.9445e-07
-0.00938717
-1.85356
4.46207e-07
-0.00938694
-1.85356
5.7471e-07
-0.00938655
-1.85356
6.77566e-07
-0.00938608
-1.85356
7.49261e-07
-0.00938551
-1.85356
7.92807e-07
-0.0093849
-1.85356
8.08184e-07
-0.00938424
-1.85356
7.98838e-07
-0.00938356
-1.85356
7.67479e-07
-0.00938288
-1.85356
7.18603e-07
-0.00938221
-1.85356
6.5545e-07
-0.00938159
-1.85356
5.83529e-07
-0.00938101
-1.85356
5.06306e-07
-0.00938049
-1.85356
4.27937e-07
-0.00938003
-1.85356
3.52023e-07
-0.00937965
-1.85356
2.76563e-07
-0.00937933
-1.85356
1.99413e-07
-0.0093791
-1.85356
1.42122e-07
-0.00937889
-1.85356
-0.00937909
-1.85353
-2.53323e-07
-0.00336426
-1.84453
-4.46352e-07
-0.00336384
-1.84456
-6.32803e-07
-0.00336373
-1.84456
-8.03717e-07
-0.00336354
-1.84456
-9.46435e-07
-0.00336332
-1.84456
-1.05511e-06
-0.00336305
-1.84456
-1.12927e-06
-0.00336276
-1.84456
-1.16861e-06
-0.00336243
-1.84456
-1.17387e-06
-0.0033621
-1.84456
-1.14741e-06
-0.00336176
-1.84456
-1.09173e-06
-0.00336143
-1.84456
-1.01122e-06
-0.00336111
-1.84456
-9.10058e-07
-0.00336081
-1.84456
-7.94568e-07
-0.00336053
-1.84456
-6.68326e-07
-0.00336029
-1.84456
-5.38401e-07
-0.00336009
-1.84456
-4.03159e-07
-0.00335991
-1.84456
-2.56123e-07
-0.00335978
-1.84456
-1.02834e-07
-0.00335967
-1.84456
-0.00335996
-1.84453
8.14865e-08
0.0024287
-1.84934
2.26466e-07
0.00242917
-1.84938
3.50034e-07
0.0024293
-1.84937
4.46641e-07
0.00242951
-1.84937
5.23149e-07
0.00242976
-1.84937
5.78502e-07
0.00243006
-1.84937
6.12262e-07
0.00243039
-1.84937
6.24303e-07
0.00243075
-1.84937
6.17319e-07
0.00243111
-1.84937
5.93263e-07
0.00243147
-1.84937
5.55594e-07
0.00243183
-1.84937
5.06999e-07
0.00243216
-1.84937
4.51757e-07
0.00243246
-1.84937
3.92314e-07
0.00243273
-1.84937
3.31953e-07
0.00243296
-1.84937
2.70382e-07
0.00243316
-1.84937
2.09708e-07
0.00243331
-1.84937
1.5561e-07
0.00243342
-1.84937
1.05472e-07
0.00243351
-1.84937
0.00243316
-1.84934
-1.75935e-07
0.0136621
-1.84068
-3.11341e-07
0.0136626
-1.84072
-4.40968e-07
0.0136626
-1.84072
-5.56263e-07
0.0136626
-1.84072
-6.5192e-07
0.0136626
-1.84072
-7.27456e-07
0.0136626
-1.84072
-7.79668e-07
0.0136626
-1.84072
-8.08814e-07
0.0136626
-1.84072
-8.14329e-07
0.0136626
-1.84072
-7.98088e-07
0.0136626
-1.84072
-7.61042e-07
0.0136626
-1.84072
-7.06172e-07
0.0136626
-1.84072
-6.36449e-07
0.0136626
-1.84072
-5.55132e-07
0.0136626
-1.84072
-4.65903e-07
0.0136626
-1.84072
-3.7027e-07
0.0136626
-1.84072
-2.71464e-07
0.0136626
-1.84072
-1.69517e-07
0.0136626
-1.84072
-6.64764e-08
0.0136626
-1.84072
0.0136621
-1.84069
-8.73763e-09
0.0244462
-1.84335
3.3683e-08
0.0244468
-1.84338
6.79495e-08
0.0244468
-1.84338
8.92894e-08
0.0244468
-1.84338
1.05178e-07
0.0244468
-1.84338
1.1481e-07
0.0244468
-1.84338
1.18237e-07
0.0244468
-1.84338
1.16211e-07
0.0244468
-1.84338
1.08647e-07
0.0244468
-1.84338
9.72534e-08
0.0244468
-1.84338
8.31311e-08
0.0244468
-1.84338
6.74959e-08
0.0244467
-1.84338
5.17821e-08
0.0244467
-1.84338
3.76966e-08
0.0244467
-1.84338
2.64463e-08
0.0244467
-1.84338
1.86585e-08
0.0244466
-1.84338
1.45409e-08
0.0244466
-1.84338
1.99099e-08
0.0244466
-1.84338
3.12693e-08
0.0244465
-1.84338
0.0244459
-1.84335
-1.07281e-07
0.0381404
-1.83907
-1.88405e-07
0.0381412
-1.8391
-2.65033e-07
0.0381411
-1.8391
-3.33712e-07
0.038141
-1.8391
-3.90732e-07
0.0381409
-1.8391
-4.36524e-07
0.0381408
-1.8391
-4.68552e-07
0.0381406
-1.8391
-4.87868e-07
0.0381405
-1.8391
-4.94004e-07
0.0381403
-1.8391
-4.88154e-07
0.0381402
-1.8391
-4.71007e-07
0.03814
-1.8391
-4.43881e-07
0.0381398
-1.8391
-4.0807e-07
0.0381397
-1.8391
-3.63743e-07
0.0381395
-1.8391
-3.13364e-07
0.0381394
-1.8391
-2.56149e-07
0.0381392
-1.8391
-1.95452e-07
0.0381391
-1.83911
-1.29027e-07
0.038139
-1.83911
-5.56419e-08
0.0381389
-1.83911
0.0381381
-1.83907
-7.87327e-08
0.0446264
-1.8336
-1.17257e-07
0.0446271
-1.83363
-1.55912e-07
0.044627
-1.83363
-1.94254e-07
0.0446268
-1.83363
-2.27029e-07
0.0446267
-1.83363
-2.54225e-07
0.0446265
-1.83363
-2.75194e-07
0.0446263
-1.83363
-2.90674e-07
0.044626
-1.83363
-3.00592e-07
0.0446258
-1.83364
-3.05748e-07
0.0446255
-1.83364
-3.05663e-07
0.0446253
-1.83364
-3.00508e-07
0.0446251
-1.83364
-2.9007e-07
0.0446248
-1.83364
-2.72611e-07
0.0446246
-1.83364
-2.48412e-07
0.0446244
-1.83364
-2.15243e-07
0.0446242
-1.83364
-1.73713e-07
0.0446241
-1.83364
-1.17002e-07
0.044624
-1.83364
-4.33741e-08
0.0446239
-1.83364
0.044623
-1.8336
-7.39516e-08
0.051849
-1.83498
-1.1693e-07
0.0518498
-1.83501
-1.59009e-07
0.0518498
-1.83501
-1.99784e-07
0.0518498
-1.83501
-2.34759e-07
0.0518498
-1.83501
-2.6418e-07
0.0518499
-1.83501
-2.87347e-07
0.0518499
-1.83501
-3.05036e-07
0.0518499
-1.83501
-3.17326e-07
0.0518499
-1.83501
-3.24716e-07
0.0518499
-1.83501
-3.26764e-07
0.05185
-1.83501
-3.23586e-07
0.05185
-1.83502
-3.14686e-07
0.05185
-1.83502
-2.98602e-07
0.0518499
-1.83502
-2.74318e-07
0.0518499
-1.83502
-2.40567e-07
0.0518498
-1.83502
-1.97704e-07
0.0518497
-1.83502
-1.42304e-07
0.0518496
-1.83502
-6.52505e-08
0.0518496
-1.83502
0.0518487
-1.83498
-2.80529e-07
0.058928
-1.83499
-5.26902e-07
0.0589288
-1.83502
-7.57075e-07
0.0589286
-1.83502
-9.59847e-07
0.0589284
-1.83502
-1.13046e-06
0.0589281
-1.83502
-1.26446e-06
0.0589277
-1.83502
-1.35999e-06
0.0589273
-1.83502
-1.41646e-06
0.0589269
-1.83502
-1.43435e-06
0.0589265
-1.83502
-1.41563e-06
0.0589261
-1.83502
-1.36257e-06
0.0589256
-1.83502
-1.27867e-06
0.0589252
-1.83502
-1.16734e-06
0.0589248
-1.83502
-1.0339e-06
0.0589245
-1.83502
-8.83124e-07
0.0589242
-1.83502
-7.19621e-07
0.0589239
-1.83502
-5.45951e-07
0.0589237
-1.83502
-3.58765e-07
0.0589235
-1.83502
-1.59806e-07
0.0589234
-1.83502
0.0589225
-1.83499
-4.32286e-08
0.064304
-1.84275
-4.09104e-08
0.0643048
-1.84278
-4.4046e-08
0.0643048
-1.84278
-5.44021e-08
0.0643048
-1.84278
-6.62064e-08
0.0643048
-1.84278
-7.96227e-08
0.0643049
-1.84278
-9.48612e-08
0.0643049
-1.84278
-1.12414e-07
0.0643049
-1.84278
-1.32221e-07
0.0643048
-1.84278
-1.53717e-07
0.0643048
-1.84278
-1.75759e-07
0.0643048
-1.84278
-1.96365e-07
0.0643048
-1.84278
-2.12796e-07
0.0643047
-1.84279
-2.21402e-07
0.0643046
-1.84279
-2.19461e-07
0.0643046
-1.84279
-2.04371e-07
0.0643045
-1.84279
-1.76005e-07
0.0643043
-1.84279
-1.29652e-07
0.0643042
-1.84279
-5.49228e-08
0.0643041
-1.84279
0.0643032
-1.84275
-3.97404e-07
0.0697726
-1.84092
-7.59086e-07
0.0697733
-1.84096
-1.09525e-06
0.0697731
-1.84096
-1.38785e-06
0.0697727
-1.84096
-1.63386e-06
0.0697723
-1.84096
-1.82671e-06
0.0697718
-1.84096
-1.96285e-06
0.0697713
-1.84096
-2.04067e-06
0.0697707
-1.84096
-2.06094e-06
0.0697701
-1.84096
-2.0263e-06
0.0697695
-1.84096
-1.94031e-06
0.069769
-1.84096
-1.80863e-06
0.0697684
-1.84096
-1.63726e-06
0.0697679
-1.84096
-1.43499e-06
0.0697674
-1.84096
-1.20984e-06
0.069767
-1.84096
-9.6973e-07
0.0697667
-1.84096
-7.20233e-07
0.0697664
-1.84096
-4.6471e-07
0.0697662
-1.84096
-2.07096e-07
0.0697661
-1.84096
0.0697652
-1.84093
-1.4188e-08
0.070836
-1.85456
3.50461e-08
0.0708367
-1.85459
7.16273e-08
0.0708367
-1.85459
8.97042e-08
0.0708367
-1.85459
9.94062e-08
0.0708366
-1.85459
1.02063e-07
0.0708366
-1.85459
9.53834e-08
0.0708366
-1.85459
7.95295e-08
0.0708365
-1.85459
5.45623e-08
0.0708365
-1.85459
2.19308e-08
0.0708364
-1.85459
-1.61747e-08
0.0708364
-1.85459
-5.60105e-08
0.0708363
-1.85459
-9.32967e-08
0.0708362
-1.85459
-1.22191e-07
0.0708361
-1.85459
-1.39039e-07
0.070836
-1.85459
-1.41957e-07
0.0708358
-1.85459
-1.29894e-07
0.0708357
-1.85459
-9.66384e-08
0.0708355
-1.85459
-3.38066e-08
0.0708354
-1.85459
0.0708346
-1.85456
-4.85978e-07
0.0719187
-1.85028
-9.28002e-07
0.0719192
-1.85031
-1.34128e-06
0.0719189
-1.85031
-1.69868e-06
0.0719185
-1.85031
-2.00002e-06
0.0719181
-1.85031
-2.23826e-06
0.0719175
-1.85031
-2.40624e-06
0.0719168
-1.85031
-2.50056e-06
0.0719161
-1.85031
-2.52193e-06
0.0719154
-1.85031
-2.47245e-06
0.0719147
-1.85031
-2.3574e-06
0.071914
-1.85031
-2.18392e-06
0.0719133
-1.85031
-1.96125e-06
0.0719127
-1.85031
-1.70167e-06
0.0719122
-1.85031
-1.41753e-06
0.0719117
-1.85031
-1.1182e-06
0.0719113
-1.85031
-8.14497e-07
0.071911
-1.85031
-5.17214e-07
0.0719108
-1.85031
-2.24894e-07
0.0719106
-1.85031
0.0719099
-1.85028
5.47936e-09
0.0653016
-1.86723
1.00472e-07
0.065302
-1.86726
1.70274e-07
0.0653019
-1.86726
2.04268e-07
0.0653018
-1.86726
2.25342e-07
0.0653017
-1.86726
2.38081e-07
0.0653015
-1.86726
2.36878e-07
0.0653014
-1.86726
2.21539e-07
0.0653011
-1.86726
1.92752e-07
0.0653009
-1.86726
1.52557e-07
0.0653007
-1.86726
1.03999e-07
0.0653005
-1.86726
5.21786e-08
0.0653002
-1.86726
2.21831e-09
0.0653
-1.86726
-3.94611e-08
0.0652998
-1.86726
-6.88022e-08
0.0652995
-1.86726
-8.91903e-08
0.0652993
-1.86726
-9.71536e-08
0.0652991
-1.86726
-7.64638e-08
0.0652989
-1.86726
-1.70081e-08
0.0652987
-1.86726
0.0652981
-1.86723
-5.08345e-07
0.0583788
-1.85968
-9.52446e-07
0.058379
-1.85971
-1.37555e-06
0.0583787
-1.85971
-1.7687e-06
0.0583783
-1.85971
-2.10153e-06
0.0583778
-1.85971
-2.35841e-06
0.0583771
-1.85971
-2.53848e-06
0.0583764
-1.85971
-2.63782e-06
0.0583756
-1.85971
-2.65749e-06
0.0583749
-1.85971
-2.59974e-06
0.0583741
-1.85971
-2.47043e-06
0.0583733
-1.85971
-2.27835e-06
0.0583726
-1.85971
-2.03521e-06
0.0583719
-1.85971
-1.75648e-06
0.0583714
-1.85972
-1.45675e-06
0.0583709
-1.85972
-1.15495e-06
0.0583705
-1.85972
-8.54672e-07
0.0583701
-1.85972
-5.34533e-07
0.0583699
-1.85972
-2.16088e-07
0.0583696
-1.85972
0.0583692
-1.85968
-3.10818e-08
0.0408465
-1.87392
3.82688e-08
0.0408465
-1.87395
5.39337e-08
0.0408465
-1.87395
5.92572e-08
0.0408462
-1.87395
6.3668e-08
0.0408459
-1.87395
5.46413e-08
0.0408456
-1.87395
4.08123e-08
0.0408451
-1.87395
1.74761e-08
0.0408447
-1.87395
-1.14334e-08
0.0408442
-1.87395
-4.46108e-08
0.0408437
-1.87395
-7.9045e-08
0.0408433
-1.87395
-1.09939e-07
0.0408428
-1.87395
-1.34808e-07
0.0408424
-1.87395
-1.46567e-07
0.040842
-1.87395
-1.47621e-07
0.0408417
-1.87395
-1.31319e-07
0.0408414
-1.87395
-1.11112e-07
0.0408411
-1.87395
-8.80302e-08
0.0408409
-1.87395
-7.34357e-09
0.0408406
-1.87395
0.0408403
-1.87392
-3.27072e-07
0.0230852
-1.86221
-6.37346e-07
0.0230852
-1.86224
-9.83046e-07
0.0230853
-1.86224
-1.28015e-06
0.023085
-1.86224
-1.52257e-06
0.0230847
-1.86224
-1.71419e-06
0.0230843
-1.86224
-1.84703e-06
0.0230838
-1.86224
-1.92264e-06
0.0230833
-1.86224
-1.93904e-06
0.0230828
-1.86224
-1.899e-06
0.0230823
-1.86224
-1.80587e-06
0.0230818
-1.86224
-1.66575e-06
0.0230813
-1.86224
-1.48813e-06
0.0230809
-1.86224
-1.28212e-06
0.0230805
-1.86224
-1.06241e-06
0.0230802
-1.86224
-8.36578e-07
0.0230799
-1.86224
-6.24552e-07
0.0230797
-1.86224
-4.27818e-07
0.0230795
-1.86224
-1.87696e-07
0.0230791
-1.86224
0.0230789
-1.8622
1.76841e-07
-1.86444
-2.51615e-08
-1.86447
-1.75817e-07
-1.86447
-3.10406e-07
-1.86447
-3.85953e-07
-1.86447
-4.54838e-07
-1.86447
-5.02911e-07
-1.86447
-5.41188e-07
-1.86447
-5.6286e-07
-1.86447
-5.69772e-07
-1.86447
-5.60313e-07
-1.86446
-5.33848e-07
-1.86446
-4.92932e-07
-1.86446
-4.33892e-07
-1.86446
-3.72185e-07
-1.86446
-3.00187e-07
-1.86446
-2.74796e-07
-1.86446
-2.59793e-07
-1.86446
-3.01289e-07
-1.86446
-1.86443
2.34115e-07
0.00695292
-1.85418
3.22511e-07
0.00695311
-1.85421
4.732e-07
0.0069531
-1.85421
5.92153e-07
0.00695324
-1.85421
7.07852e-07
0.00695338
-1.85421
7.88437e-07
0.00695356
-1.85421
8.46115e-07
0.00695375
-1.85421
8.73464e-07
0.00695396
-1.85421
8.76653e-07
0.00695417
-1.85421
8.56587e-07
0.00695438
-1.85421
8.17874e-07
0.00695458
-1.85421
7.63114e-07
0.00695477
-1.85421
6.95712e-07
0.00695494
-1.85421
6.22004e-07
0.00695509
-1.85421
5.38277e-07
0.00695523
-1.85421
4.57054e-07
0.00695533
-1.85421
3.53836e-07
0.00695543
-1.85421
2.55245e-07
0.00695548
-1.85421
6.43463e-08
0.00695562
-1.85421
0.00695551
-1.85418
-1.75736e-07
0.00879523
-1.84856
-2.71375e-07
0.00879547
-1.84859
-3.81546e-07
0.00879544
-1.84859
-4.75776e-07
0.0087955
-1.84859
-5.54143e-07
0.00879553
-1.84859
-6.17816e-07
0.0087956
-1.84859
-6.61646e-07
0.00879566
-1.84859
-6.87698e-07
0.00879572
-1.84859
-6.93797e-07
0.00879579
-1.84859
-6.81598e-07
0.00879586
-1.84859
-6.51822e-07
0.00879592
-1.84859
-6.05315e-07
0.00879599
-1.84859
-5.46416e-07
0.00879605
-1.84859
-4.76381e-07
0.0087961
-1.84859
-3.99171e-07
0.00879616
-1.84859
-3.14754e-07
0.00879619
-1.84859
-2.24695e-07
0.00879624
-1.84859
-1.33383e-07
0.00879625
-1.84859
-2.56643e-08
0.00879633
-1.84859
0.00879615
-1.84855
1.69327e-07
0.0102508
-1.85499
4.04392e-07
0.0102512
-1.85502
5.99417e-07
0.0102513
-1.85502
7.85806e-07
0.0102516
-1.85502
9.40183e-07
0.0102519
-1.85502
1.05577e-06
0.0102523
-1.85502
1.13495e-06
0.0102527
-1.85502
1.17753e-06
0.0102531
-1.85502
1.18618e-06
0.0102536
-1.85502
1.16364e-06
0.0102541
-1.85502
1.11313e-06
0.0102545
-1.85502
1.04043e-06
0.0102549
-1.85502
9.49396e-07
0.0102553
-1.85502
8.46014e-07
0.0102557
-1.85502
7.35243e-07
0.010256
-1.85502
6.20827e-07
0.0102562
-1.85502
5.00613e-07
0.0102565
-1.85502
3.51325e-07
0.0102566
-1.85502
2.09739e-07
0.0102568
-1.85502
0.0102565
-1.85499
-3.01648e-07
0.014038
-1.84831
-5.49004e-07
0.0140383
-1.84835
-7.85173e-07
0.0140383
-1.84835
-1.00283e-06
0.0140383
-1.84835
-1.18776e-06
0.0140383
-1.84835
-1.3294e-06
0.0140383
-1.84835
-1.42967e-06
0.0140383
-1.84835
-1.48649e-06
0.0140383
-1.84835
-1.50044e-06
0.0140383
-1.84835
-1.47427e-06
0.0140383
-1.84835
-1.40968e-06
0.0140383
-1.84835
-1.31314e-06
0.0140383
-1.84835
-1.18839e-06
0.0140383
-1.84835
-1.04517e-06
0.0140383
-1.84835
-8.85351e-07
0.0140383
-1.84835
-7.21108e-07
0.0140383
-1.84834
-5.45538e-07
0.0140383
-1.84834
-3.52246e-07
0.0140383
-1.84834
-1.5221e-07
0.0140383
-1.84834
0.014038
-1.84831
1.31868e-07
0.0176118
-1.85292
3.11338e-07
0.0176122
-1.85295
4.72416e-07
0.0176123
-1.85295
6.06395e-07
0.0176125
-1.85295
7.16332e-07
0.0176126
-1.85295
8.03199e-07
0.0176128
-1.85295
8.62578e-07
0.017613
-1.85295
8.94445e-07
0.0176133
-1.85295
9.00155e-07
0.0176135
-1.85295
8.81709e-07
0.0176137
-1.85295
8.42673e-07
0.017614
-1.85295
7.84645e-07
0.0176142
-1.85295
7.14612e-07
0.0176144
-1.85295
6.34161e-07
0.0176145
-1.85295
5.48099e-07
0.0176147
-1.85295
4.54149e-07
0.0176148
-1.85295
3.55814e-07
0.0176149
-1.85295
2.55703e-07
0.017615
-1.85295
1.51639e-07
0.017615
-1.85295
0.0176146
-1.85292
-2.10738e-07
0.0243009
-1.84737
-3.96309e-07
0.0243014
-1.8474
-5.70727e-07
0.0243013
-1.8474
-7.17792e-07
0.0243013
-1.8474
-8.41304e-07
0.0243012
-1.8474
-9.40302e-07
0.0243012
-1.8474
-1.01001e-06
0.0243011
-1.8474
-1.0505e-06
0.024301
-1.8474
-1.06108e-06
0.024301
-1.8474
-1.04355e-06
0.0243009
-1.8474
-9.99762e-07
0.0243008
-1.8474
-9.32619e-07
0.0243007
-1.8474
-8.46604e-07
0.0243007
-1.8474
-7.44882e-07
0.0243006
-1.8474
-6.31489e-07
0.0243005
-1.8474
-5.06804e-07
0.0243005
-1.8474
-3.74658e-07
0.0243004
-1.8474
-2.45185e-07
0.0243004
-1.8474
-1.12776e-07
0.0243003
-1.8474
0.0242998
-1.84737
-8.73631e-09
0.0307181
-1.84976
2.51812e-08
0.0307187
-1.8498
5.34624e-08
0.0307187
-1.8498
7.43595e-08
0.0307186
-1.8498
8.99708e-08
0.0307185
-1.8498
1.01379e-07
0.0307184
-1.8498
1.07468e-07
0.0307183
-1.8498
1.08759e-07
0.0307182
-1.8498
1.05312e-07
0.0307181
-1.8498
9.81676e-08
0.030718
-1.8498
8.8401e-08
0.0307179
-1.8498
7.66449e-08
0.0307178
-1.8498
6.51273e-08
0.0307176
-1.8498
5.42025e-08
0.0307175
-1.8498
4.59518e-08
0.0307174
-1.8498
3.93989e-08
0.0307173
-1.8498
3.55299e-08
0.0307172
-1.8498
3.46928e-08
0.0307172
-1.8498
3.57332e-08
0.0307171
-1.8498
0.0307165
-1.84976
-1.42346e-07
0.039186
-1.84754
-2.69227e-07
0.0391866
-1.84757
-3.85795e-07
0.0391865
-1.84757
-4.82942e-07
0.0391864
-1.84757
-5.64179e-07
0.0391862
-1.84757
-6.29323e-07
0.039186
-1.84757
-6.75732e-07
0.0391858
-1.84757
-7.03885e-07
0.0391855
-1.84757
-7.13451e-07
0.0391853
-1.84757
-7.05698e-07
0.039185
-1.84757
-6.81671e-07
0.0391848
-1.84757
-6.43029e-07
0.0391845
-1.84757
-5.91419e-07
0.0391843
-1.84757
-5.28237e-07
0.039184
-1.84757
-4.55342e-07
0.0391838
-1.84757
-3.72329e-07
0.0391836
-1.84757
-2.82144e-07
0.0391835
-1.84757
-1.90858e-07
0.0391834
-1.84757
-9.1632e-08
0.0391833
-1.84757
0.0391825
-1.84754
-1.27595e-07
0.0408038
-1.83522
-2.2182e-07
0.0408044
-1.83525
-3.10353e-07
0.0408043
-1.83525
-3.86769e-07
0.0408041
-1.83525
-4.50938e-07
0.0408038
-1.83525
-5.0223e-07
0.0408035
-1.83525
-5.3843e-07
0.0408032
-1.83525
-5.61568e-07
0.0408028
-1.83525
-5.71359e-07
0.0408024
-1.83525
-5.69236e-07
0.040802
-1.83525
-5.5578e-07
0.0408016
-1.83525
-5.31583e-07
0.0408012
-1.83525
-4.97223e-07
0.0408009
-1.83525
-4.52454e-07
0.0408006
-1.83525
-3.9791e-07
0.0408003
-1.83525
-3.32908e-07
0.0408
-1.83525
-2.58467e-07
0.0407998
-1.83525
-1.7342e-07
0.0407996
-1.83525
-7.24219e-08
0.0407995
-1.83525
0.0407988
-1.83522
-1.28e-07
0.0428503
-1.83703
-2.28486e-07
0.0428509
-1.83706
-3.22286e-07
0.0428507
-1.83706
-4.03115e-07
0.0428505
-1.83706
-4.71698e-07
0.0428502
-1.83706
-5.26994e-07
0.0428499
-1.83706
-5.68187e-07
0.0428495
-1.83706
-5.9556e-07
0.0428491
-1.83706
-6.09175e-07
0.0428487
-1.83706
-6.09574e-07
0.0428482
-1.83706
-5.97598e-07
0.0428478
-1.83706
-5.73061e-07
0.0428474
-1.83706
-5.36787e-07
0.042847
-1.83706
-4.88217e-07
0.0428466
-1.83706
-4.28589e-07
0.0428463
-1.83706
-3.57744e-07
0.042846
-1.83706
-2.77204e-07
0.0428458
-1.83706
-1.88357e-07
0.0428456
-1.83706
-8.54132e-08
0.0428455
-1.83706
0.0428448
-1.83703
-3.21004e-07
0.0446371
-1.83678
-6.19516e-07
0.0446377
-1.83681
-8.94594e-07
0.0446375
-1.83681
-1.13164e-06
0.0446372
-1.83681
-1.33053e-06
0.0446369
-1.83681
-1.48688e-06
0.0446365
-1.83681
-1.59788e-06
0.044636
-1.83681
-1.66325e-06
0.0446355
-1.83681
-1.68395e-06
0.044635
-1.83681
-1.66237e-06
0.0446345
-1.83681
-1.60169e-06
0.044634
-1.83681
-1.5059e-06
0.0446336
-1.83681
-1.37917e-06
0.0446331
-1.83681
-1.22628e-06
0.0446328
-1.83681
-1.05218e-06
0.0446324
-1.83681
-8.60128e-07
0.0446321
-1.83681
-6.53669e-07
0.0446319
-1.83681
-4.36744e-07
0.0446317
-1.83681
-2.06463e-07
0.0446316
-1.83681
0.0446309
-1.83678
-9.81987e-08
0.0449721
-1.84308
-1.53983e-07
0.0449726
-1.84312
-2.0669e-07
0.0449725
-1.84312
-2.54913e-07
0.0449722
-1.84312
-2.96295e-07
0.0449719
-1.84312
-3.29741e-07
0.0449716
-1.84312
-3.56131e-07
0.0449712
-1.84312
-3.75679e-07
0.0449708
-1.84312
-3.88904e-07
0.0449703
-1.84312
-3.95714e-07
0.0449699
-1.84312
-3.95913e-07
0.0449695
-1.84312
-3.87598e-07
0.044969
-1.84312
-3.70185e-07
0.0449686
-1.84312
-3.41563e-07
0.0449683
-1.84312
-3.01539e-07
0.044968
-1.84312
-2.50841e-07
0.0449677
-1.84312
-1.90759e-07
0.0449675
-1.84312
-1.22801e-07
0.0449673
-1.84312
-4.43587e-08
0.0449672
-1.84312
0.0449666
-1.84309
-4.55994e-07
0.0451214
-1.84107
-8.91507e-07
0.0451219
-1.84111
-1.29643e-06
0.0451216
-1.84111
-1.63818e-06
0.0451213
-1.84111
-1.92788e-06
0.0451209
-1.84111
-2.15618e-06
0.0451204
-1.84111
-2.31929e-06
0.0451199
-1.84111
-2.41436e-06
0.0451193
-1.84111
-2.44253e-06
0.0451188
-1.84111
-2.40689e-06
0.0451182
-1.84111
-2.3119e-06
0.0451176
-1.84111
-2.16455e-06
0.0451171
-1.84111
-1.97088e-06
0.0451166
-1.84111
-1.74043e-06
0.0451161
-1.84111
-1.47969e-06
0.0451158
-1.84111
-1.19602e-06
0.0451155
-1.84111
-8.93822e-07
0.0451152
-1.84111
-5.93978e-07
0.0451151
-1.84111
-2.8569e-07
0.0451149
-1.84111
0.0451143
-1.84108
-4.76893e-08
0.0419806
-1.85142
-3.94862e-08
0.041981
-1.85145
-3.4149e-08
0.0419809
-1.85145
-3.89734e-08
0.0419807
-1.85145
-4.50707e-08
0.0419804
-1.85145
-4.91676e-08
0.0419801
-1.85145
-5.5097e-08
0.0419798
-1.85145
-6.29026e-08
0.0419794
-1.85145
-7.39155e-08
0.041979
-1.85145
-8.64991e-08
0.0419786
-1.85145
-9.91599e-08
0.0419783
-1.85145
-1.08991e-07
0.0419779
-1.85145
-1.13087e-07
0.0419776
-1.85145
-1.08293e-07
0.0419772
-1.85145
-9.36211e-08
0.041977
-1.85145
-7.25655e-08
0.0419767
-1.85145
-4.75248e-08
0.0419766
-1.85145
-1.54449e-08
0.0419764
-1.85145
1.62281e-08
0.0419763
-1.85145
0.0419757
-1.85142
-5.59853e-07
0.0387326
-1.84703
-1.1e-06
0.0387329
-1.84706
-1.60608e-06
0.0387327
-1.84706
-2.02488e-06
0.0387323
-1.84706
-2.38132e-06
0.0387319
-1.84706
-2.66632e-06
0.0387314
-1.84706
-2.86991e-06
0.0387309
-1.84706
-2.98681e-06
0.0387303
-1.84706
-3.01841e-06
0.0387297
-1.84706
-2.96735e-06
0.0387291
-1.84706
-2.84027e-06
0.0387285
-1.84706
-2.64597e-06
0.0387279
-1.84706
-2.39432e-06
0.0387275
-1.84706
-2.0985e-06
0.038727
-1.84706
-1.76863e-06
0.0387267
-1.84706
-1.41229e-06
0.0387264
-1.84706
-1.03761e-06
0.0387262
-1.84706
-6.85837e-07
0.038726
-1.84706
-3.29568e-07
0.0387259
-1.84706
0.0387254
-1.84703
3.6786e-08
0.0309468
-1.85944
1.47605e-07
0.030947
-1.85948
2.40699e-07
0.030947
-1.85948
2.92345e-07
0.0309468
-1.85948
3.33582e-07
0.0309466
-1.85948
3.74153e-07
0.0309464
-1.85948
4.00288e-07
0.0309461
-1.85948
4.12049e-07
0.0309458
-1.85948
4.08219e-07
0.0309455
-1.85948
3.90556e-07
0.0309452
-1.85948
3.62314e-07
0.0309449
-1.85948
3.27854e-07
0.0309446
-1.85948
2.92154e-07
0.0309444
-1.85948
2.58502e-07
0.0309441
-1.85948
2.29204e-07
0.0309439
-1.85948
1.89465e-07
0.0309437
-1.85948
1.42788e-07
0.0309435
-1.85948
1.12795e-07
0.0309434
-1.85948
8.69232e-08
0.0309433
-1.85948
0.0309429
-1.85945
-5.66779e-07
0.0233188
-1.85205
-1.09462e-06
0.023319
-1.85208
-1.58905e-06
0.0233188
-1.85208
-2.0596e-06
0.0233185
-1.85208
-2.45799e-06
0.0233181
-1.85208
-2.76228e-06
0.0233176
-1.85208
-2.97646e-06
0.0233171
-1.85208
-3.09572e-06
0.0233165
-1.85208
-3.1219e-06
0.0233159
-1.85208
-3.05872e-06
0.0233153
-1.85208
-2.9131e-06
0.0233148
-1.85208
-2.69662e-06
0.0233143
-1.85208
-2.42206e-06
0.0233138
-1.85208
-2.10774e-06
0.0233134
-1.85208
-1.76727e-06
0.0233131
-1.85208
-1.4265e-06
0.0233128
-1.85208
-1.08168e-06
0.0233126
-1.85208
-7.01429e-07
0.0233124
-1.85209
-3.18241e-07
0.0233122
-1.85209
0.0233119
-1.85205
8.88973e-08
0.0124669
-1.86307
2.10412e-07
0.0124671
-1.8631
2.74723e-07
0.0124672
-1.8631
3.61718e-07
0.012467
-1.8631
4.43807e-07
0.0124669
-1.8631
5.00775e-07
0.0124666
-1.8631
5.43613e-07
0.0124664
-1.8631
5.64322e-07
0.0124661
-1.8631
5.67938e-07
0.0124658
-1.8631
5.54732e-07
0.0124654
-1.8631
5.27583e-07
0.0124651
-1.8631
4.92722e-07
0.0124648
-1.8631
4.53259e-07
0.0124646
-1.8631
4.17429e-07
0.0124643
-1.8631
3.80031e-07
0.0124641
-1.8631
3.48908e-07
0.0124639
-1.8631
2.9854e-07
0.0124637
-1.8631
1.91268e-07
0.0124636
-1.8631
1.12388e-07
0.0124633
-1.8631
0.0124629
-1.86307
-3.08514e-07
0.00277288
-1.85251
-6.50285e-07
0.0027733
-1.85254
-1.01474e-06
0.00277345
-1.85254
-1.31924e-06
0.00277329
-1.85254
-1.56778e-06
0.0027731
-1.85254
-1.76184e-06
0.00277282
-1.85254
-1.89386e-06
0.00277252
-1.85254
-1.96615e-06
0.00277219
-1.85254
-1.97584e-06
0.00277186
-1.85254
-1.92724e-06
0.00277153
-1.85254
-1.82302e-06
0.00277121
-1.85254
-1.67131e-06
0.00277091
-1.85254
-1.48185e-06
0.00277065
-1.85254
-1.26564e-06
0.00277043
-1.85254
-1.03724e-06
0.00277024
-1.85254
-8.08382e-07
0.0027701
-1.85254
-5.95078e-07
0.00276995
-1.85254
-4.12913e-07
0.00276985
-1.85254
-2.04368e-07
0.00276952
-1.85254
0.00276899
-1.85251
4.88231e-07
-1.86167
2.64823e-07
-1.8617
1.35998e-07
-1.86169
7.64803e-08
-1.86169
7.92581e-08
-1.86169
8.10559e-08
-1.86169
9.2365e-08
-1.86169
9.85845e-08
-1.86169
1.05621e-07
-1.86169
1.10476e-07
-1.86169
1.16419e-07
-1.86169
1.25107e-07
-1.86169
1.37765e-07
-1.86169
1.53772e-07
-1.86169
1.60478e-07
-1.86169
1.61194e-07
-1.86169
8.91119e-08
-1.86169
-7.27273e-08
-1.86169
-3.67049e-07
-1.86169
-1.86166
1.44651e-07
-0.00406842
-1.85011
2.91926e-07
-0.00406818
-1.85015
5.4458e-07
-0.00406815
-1.85015
7.13418e-07
-0.00406801
-1.85015
8.67377e-07
-0.00406789
-1.85015
9.74561e-07
-0.00406772
-1.85015
1.0525e-06
-0.00406755
-1.85015
1.0935e-06
-0.00406737
-1.85015
1.10454e-06
-0.00406718
-1.85015
1.08671e-06
-0.00406699
-1.85015
1.04449e-06
-0.00406681
-1.85015
9.8131e-07
-0.00406664
-1.85015
9.01294e-07
-0.00406649
-1.85015
8.1174e-07
-0.00406635
-1.85015
7.06956e-07
-0.00406622
-1.85015
6.09592e-07
-0.00406613
-1.85015
4.93234e-07
-0.00406604
-1.85015
4.31118e-07
-0.00406601
-1.85015
2.30823e-07
-0.00406593
-1.85015
-0.00406609
-1.85011
-2.00147e-07
-0.00141399
-1.85121
-2.24861e-07
-0.0014138
-1.85124
-2.69854e-07
-0.00141372
-1.85124
-3.15496e-07
-0.00141353
-1.85124
-3.57254e-07
-0.00141332
-1.85124
-3.92619e-07
-0.00141306
-1.85124
-4.16579e-07
-0.00141278
-1.85124
-4.30451e-07
-0.00141248
-1.85124
-4.32382e-07
-0.00141217
-1.85124
-4.21332e-07
-0.00141187
-1.85124
-3.9921e-07
-0.00141157
-1.85124
-3.6686e-07
-0.00141128
-1.85124
-3.28732e-07
-0.00141101
-1.85124
-2.84328e-07
-0.00141077
-1.85124
-2.34792e-07
-0.00141054
-1.85124
-1.78252e-07
-0.00141037
-1.85124
-1.12009e-07
-0.0014102
-1.85124
-2.96575e-08
-0.00141011
-1.85124
7.539e-08
-0.00141
-1.85124
-0.00141006
-1.85121
1.20282e-07
0.000782376
-1.85718
3.66784e-07
0.000782555
-1.85722
5.64674e-07
0.000782639
-1.85722
7.5857e-07
0.000782772
-1.85722
9.16906e-07
0.000782951
-1.85722
1.03331e-06
0.00078318
-1.85722
1.11322e-06
0.000783415
-1.85722
1.15685e-06
0.000783666
-1.85722
1.16811e-06
0.000783917
-1.85722
1.14674e-06
0.000784166
-1.85722
1.09443e-06
0.000784404
-1.85722
1.03041e-06
0.00078462
-1.85722
9.40222e-07
0.000784827
-1.85722
8.41942e-07
0.000785002
-1.85722
7.36883e-07
0.000785158
-1.85722
6.30701e-07
0.000785275
-1.85722
5.22424e-07
0.000785385
-1.85722
3.80036e-07
0.000785481
-1.85722
2.55337e-07
0.000785556
-1.85722
0.00078547
-1.85718
-2.75472e-07
0.00643591
-1.85397
-4.63622e-07
0.00643616
-1.854
-6.50233e-07
0.00643622
-1.854
-8.30793e-07
0.00643635
-1.854
-9.8616e-07
0.0064365
-1.854
-1.10474e-06
0.00643667
-1.854
-1.1903e-06
0.00643687
-1.854
-1.23968e-06
0.00643707
-1.854
-1.25489e-06
0.00643728
-1.854
-1.23758e-06
0.0064375
-1.854
-1.18573e-06
0.0064377
-1.854
-1.11792e-06
0.0064379
-1.854
-1.01864e-06
0.00643808
-1.854
-9.07163e-07
0.00643825
-1.854
-7.78958e-07
0.00643839
-1.854
-6.46159e-07
0.00643851
-1.854
-4.97397e-07
0.00643862
-1.854
-3.20872e-07
0.00643868
-1.854
-1.22279e-07
0.00643874
-1.854
0.00643858
-1.85396
8.21384e-08
0.0117983
-1.85828
2.45845e-07
0.0117986
-1.85831
3.85673e-07
0.0117987
-1.85831
5.01164e-07
0.0117987
-1.85831
5.93972e-07
0.0117988
-1.85831
6.67644e-07
0.0117989
-1.85831
7.17631e-07
0.011799
-1.85831
7.44851e-07
0.0117991
-1.85831
7.50607e-07
0.0117992
-1.85831
7.3665e-07
0.0117993
-1.85831
7.06316e-07
0.0117994
-1.85831
6.59068e-07
0.0117995
-1.85831
6.04286e-07
0.0117996
-1.85831
5.39601e-07
0.0117997
-1.85831
4.71049e-07
0.0117998
-1.85831
3.94071e-07
0.0117998
-1.85831
3.14878e-07
0.0117999
-1.85831
2.34962e-07
0.0117999
-1.85831
1.60459e-07
0.0117999
-1.85831
0.0117996
-1.85828
-2.16804e-07
0.0197164
-1.85529
-3.86056e-07
0.0197168
-1.85532
-5.49077e-07
0.0197168
-1.85532
-6.88111e-07
0.0197168
-1.85532
-8.06073e-07
0.0197167
-1.85532
-9.03034e-07
0.0197167
-1.85532
-9.72974e-07
0.0197166
-1.85532
-1.01631e-06
0.0197166
-1.85532
-1.02999e-06
0.0197165
-1.85532
-1.01774e-06
0.0197164
-1.85532
-9.80615e-07
0.0197164
-1.85532
-9.21456e-07
0.0197163
-1.85532
-8.44736e-07
0.0197163
-1.85532
-7.51941e-07
0.0197162
-1.85532
-6.47058e-07
0.0197162
-1.85532
-5.26016e-07
0.0197161
-1.85532
-3.94937e-07
0.0197161
-1.85532
-2.58607e-07
0.019716
-1.85532
-1.11862e-07
0.019716
-1.85532
0.0197156
-1.85529
-4.78179e-08
0.0275027
-1.85755
-3.01325e-08
0.0275032
-1.85758
-1.96702e-08
0.0275031
-1.85758
-1.6686e-08
0.027503
-1.85758
-1.68968e-08
0.0275029
-1.85758
-1.80903e-08
0.0275028
-1.85758
-2.11328e-08
0.0275027
-1.85758
-2.50634e-08
0.0275025
-1.85758
-2.97612e-08
0.0275023
-1.85758
-3.47907e-08
0.0275022
-1.85758
-3.90638e-08
0.027502
-1.85758
-4.21765e-08
0.0275019
-1.85758
-4.32114e-08
0.0275017
-1.85758
-4.13942e-08
0.0275016
-1.85758
-3.56115e-08
0.0275014
-1.85758
-2.68458e-08
0.0275013
-1.85758
-1.38735e-08
0.0275012
-1.85758
5.36095e-09
0.0275011
-1.85758
3.15811e-08
0.0275011
-1.85758
0.0275005
-1.85755
-1.63428e-07
0.0366092
-1.85664
-2.88619e-07
0.0366098
-1.85668
-4.0805e-07
0.0366097
-1.85668
-5.07715e-07
0.0366095
-1.85668
-5.9142e-07
0.0366093
-1.85668
-6.5926e-07
0.0366091
-1.85668