/*--------------------------------*- C++ -*----------------------------------*\
| =========                 |                                                 |
| \\      /  F ield         | OpenFOAM: The Open Source CFD Toolbox           |
|  \\    /   O peration     | Version:  2212                                  |
|   \\  /    A nd           | Website:  www.openfoam.com                      |
|    \\/     M anipulation  |                                                 |
\*---------------------------------------------------------------------------*/
FoamFile
{
    version     2.0;
    format      ascii;
    arch        "LSB;label=32;scalar=64";
    class       volScalarField;
    location    "0.000108";
    object      T;
}
// * * * * * * * * * * * * * * * * * * * * * * * * * * * * * * * * * * * * * //

dimensions      [0 0 0 1 0 0 0];

internalField   nonuniform List<scalar> 
23217
(
396.592
396.596
396.601
396.606
396.61
396.611
396.604
396.585
396.549
396.489
396.412
396.317
396.21
396.089
395.958
395.824
395.705
395.623
395.571
395.539
395.525
395.509
395.551
395.645
395.786
395.966
396.182
396.434
396.722
397.039
397.376
397.73
398.089
398.437
398.761
399.055
399.309
399.517
399.673
399.785
399.863
399.916
399.949
399.97
399.983
399.99
399.995
399.997
399.998
399.999
400
400
400
400
400
400
400
400
400
400
400
400
396.584
396.588
328.386
371.361
374.187
382.709
386.011
389.207
390.708
392.273
393.014
393.812
394.199
394.662
394.856
395.117
395.244
395.417
395.489
395.609
395.681
395.763
395.833
395.882
395.93
395.974
396.018
396.053
396.087
396.121
396.155
396.184
396.21
396.238
396.266
396.292
396.317
396.341
396.362
396.384
396.406
396.428
396.45
396.469
396.487
396.504
396.519
396.533
396.545
396.556
396.566
396.576
317.627
315.762
272.017
261.84
249.123
249.471
248.33
254.154
253.075
263.358
248.394
140.351
122.993
119.349
121.018
128.835
130.045
128.113
125.659
123.978
123.407
123.904
124.178
123.726
124.433
125.212
127.427
132.713
140.036
145.543
149.695
151.959
153.532
154.371
154.47
154.489
154.529
154.44
154.077
153.488
153.217
152.843
152.286
151.552
150.826
150.287
149.983
149.352
148.551
148.194
147.951
147.657
147.332
146.779
146.218
145.676
145.198
144.558
143.96
143.354
142.943
142.499
142.153
141.671
141.303
140.815
140.453
139.992
139.654
139.228
138.922
138.528
138.256
137.908
137.691
137.399
137.225
136.965
136.815
136.583
136.466
136.259
136.165
135.984
135.903
135.732
135.656
135.485
135.412
135.239
135.167
134.987
134.911
134.724
134.645
134.456
134.375
134.176
134.094
133.888
133.801
133.582
133.491
133.262
133.165
132.925
132.822
132.565
132.452
132.169
132.041
131.72
131.565
131.141
130.947
130.065
130.285
125.586
136.331
88.7165
303.188
284.723
230.941
215.891
200.982
192.305
190.164
192.63
203.518
235.048
252.834
201.21
130.78
120.238
121.109
128.6
130.017
128.153
125.501
123.787
123.056
123.321
123.323
122.772
123.748
124.742
127.185
132.757
140.157
145.596
149.73
151.991
153.522
154.362
154.465
154.396
154.364
154.313
154.055
153.412
153.068
152.654
152.126
151.41
150.674
150.109
149.791
149.212
148.392
148.023
147.775
147.464
147.145
146.59
146.055
145.49
145.034
144.375
143.812
143.182
142.798
142.332
142.002
141.514
141.154
140.666
140.311
139.852
139.524
139.1
138.798
138.404
138.137
137.792
137.575
137.288
137.109
136.853
136.701
136.475
136.359
136.163
136.069
135.894
135.809
135.641
135.559
135.389
135.311
135.14
135.062
134.886
134.804
134.623
134.539
134.359
134.273
134.08
133.988
133.784
133.684
133.463
133.356
133.124
133.008
132.76
132.633
132.359
132.217
131.909
131.743
131.38
131.161
130.657
130.301
129.253
128.658
124.718
124.146
108.63
326.791
367.809
370.697
382.308
384.929
388.514
389.909
391.654
392.319
393.298
393.684
394.256
394.472
394.803
394.951
395.184
395.28
395.428
395.513
395.621
395.701
395.77
395.829
395.888
395.939
395.984
396.024
396.064
396.103
396.137
396.167
396.198
396.23
396.259
396.287
396.313
396.337
396.361
396.385
396.409
396.432
396.453
396.472
396.49
396.507
396.521
396.534
396.546
396.558
396.569
396.578
396.583
396.585
396.589
396.593
396.598
396.601
396.602
396.595
396.575
396.539
396.479
396.402
396.307
396.2
396.079
395.948
395.815
395.696
395.614
395.562
395.531
395.518
395.502
395.546
395.641
395.782
395.963
396.179
396.432
396.721
397.038
397.376
397.73
398.089
398.437
398.762
399.055
399.31
399.517
399.673
399.785
399.864
399.916
399.949
399.97
399.983
399.99
399.995
399.997
399.998
399.999
400
400
400
400
400
400
400
400
400
400
400
400
396.583
396.586
396.59
396.595
396.597
396.599
396.591
396.572
396.536
396.477
396.399
396.304
396.197
396.077
395.946
395.813
395.694
395.613
395.561
395.53
395.517
395.501
395.545
395.64
395.782
395.963
396.179
396.432
396.721
397.038
397.376
397.73
398.089
398.437
398.762
399.055
399.31
399.517
399.673
399.785
399.864
399.916
399.949
399.97
399.983
399.99
399.995
399.997
399.998
399.999
400
400
400
400
400
400
400
400
400
400
400
400
396.576
396.58
328.286
367.048
372.644
381.952
385.014
388.479
389.754
391.551
392.221
393.156
393.575
394.126
394.382
394.711
394.874
395.109
395.211
395.37
395.456
395.57
395.653
395.727
395.79
395.851
395.907
395.953
395.997
396.04
396.08
396.116
396.149
396.182
396.215
396.245
396.274
396.301
396.327
396.351
396.376
396.401
396.424
396.446
396.466
396.484
396.501
396.516
396.53
396.543
396.554
396.565
296.187
264.455
225.089
206.18
186.547
174.054
163.047
156.896
160.846
173.529
245.309
241.092
174.036
125.959
122.436
128.606
130.229
128.298
125.201
123.484
122.72
122.72
122.421
121.9
123.032
124.081
126.068
131.474
138.63
143.809
147.855
150.17
151.762
152.656
152.791
152.707
152.663
152.642
152.455
151.825
151.422
150.963
150.464
149.776
149.045
148.467
148.122
147.592
146.771
146.382
146.144
145.805
145.509
144.935
144.443
143.848
143.421
142.731
142.202
141.558
141.189
140.704
140.386
139.884
139.533
139.035
138.69
138.216
137.903
137.47
137.168
136.768
136.499
136.147
135.932
135.623
135.446
135.17
135.02
134.775
134.656
134.45
134.351
134.165
134.074
133.89
133.801
133.613
133.524
133.335
133.246
133.053
132.965
132.77
132.681
132.492
132.402
132.199
132.1
131.883
131.775
131.54
131.419
131.169
131.033
130.762
130.604
130.294
130.12
129.768
129.552
129.121
128.826
128.222
127.714
126.532
125.544
122.327
119.256
112.54
292.47
256.307
222.186
202.663
184.004
168.498
156.8
145.05
143.983
146.873
208.689
210.746
222.163
153.697
127.719
130.044
130.957
128.881
125.248
123.38
122.56
122.574
122.345
122.062
123.599
124.758
126.711
131.627
138.063
142.595
146.093
148.118
149.591
150.497
150.651
150.61
150.598
150.571
150.397
149.817
149.41
148.936
148.409
147.719
147.017
146.422
146.033
145.534
144.692
144.267
144.034
143.662
143.351
142.737
142.259
141.633
141.199
140.466
139.93
139.237
138.862
138.326
138.003
137.45
137.094
136.538
136.184
135.654
135.327
134.837
134.526
134.066
133.785
133.373
133.142
132.774
132.576
132.242
132.072
131.772
131.626
131.364
131.239
130.995
130.879
130.64
130.525
130.282
130.167
129.92
129.804
129.552
129.434
129.19
129.059
128.836
128.71
128.45
128.324
128.075
127.909
127.655
127.481
127.216
127.006
126.741
126.494
126.185
125.922
125.573
125.271
124.819
124.459
123.81
123.254
122.006
120.989
117.878
114.981
108.766
331.773
366.349
372.951
381.895
384.841
388.434
389.692
391.547
392.193
393.148
393.538
394.106
394.352
394.699
394.854
395.093
395.198
395.361
395.446
395.56
395.644
395.718
395.783
395.844
395.901
395.949
395.992
396.035
396.075
396.111
396.145
396.179
396.212
396.243
396.271
396.299
396.325
396.35
396.374
396.399
396.423
396.444
396.464
396.483
396.5
396.516
396.529
396.542
396.553
396.564
396.575
396.579
396.582
396.585
396.589
396.594
396.597
396.598
396.591
396.571
396.535
396.476
396.398
396.304
396.196
396.076
395.945
395.812
395.694
395.613
395.561
395.53
395.517
395.501
395.545
395.64
395.782
395.963
396.18
396.433
396.721
397.038
397.376
397.731
398.09
398.438
398.762
399.055
399.31
399.517
399.673
399.785
399.864
399.916
399.949
399.97
399.983
399.99
399.995
399.997
399.998
399.999
400
400
400
400
400
400
400
400
400
400
400
400
396.581
396.585
396.589
396.594
396.597
396.598
396.591
396.571
396.535
396.476
396.398
396.304
396.196
396.076
395.945
395.812
395.694
395.612
395.561
395.53
395.517
395.501
395.545
395.641
395.782
395.963
396.18
396.433
396.721
397.038
397.377
397.731
398.09
398.438
398.762
399.055
399.31
399.518
399.673
399.785
399.864
399.916
399.949
399.97
399.983
399.99
399.995
399.997
399.998
399.999
400
400
400
400
400
400
400
400
400
400
400
400
396.574
396.578
336.18
366.242
372.902
381.81
384.825
388.4
389.711
391.536
392.199
393.125
393.53
394.07
394.338
394.678
394.858
395.076
395.201
395.358
395.446
395.557
395.64
395.714
395.779
395.842
395.899
395.948
395.991
396.033
396.074
396.11
396.144
396.179
396.212
396.242
396.27
396.298
396.324
396.349
396.374
396.399
396.422
396.444
396.464
396.483
396.5
396.515
396.529
396.541
396.553
396.563
291.806
253.742
219.192
197.958
181.491
165.037
154.868
143.208
138.282
137.464
159.235
204.218
201.415
197.599
147.822
136.587
133.245
129.72
125.651
123.407
122.674
122.712
122.772
123.416
125.881
127.693
129.748
134.004
139.453
143.048
145.827
147.312
148.438
149.204
149.326
149.259
149.239
149.188
149.02
148.457
148.074
147.588
147.027
146.321
145.644
145.035
144.62
144.118
143.267
142.796
142.557
142.155
141.81
141.173
140.661
140.03
139.566
138.811
138.238
137.515
137.1
136.537
136.168
135.581
135.198
134.596
134.204
133.64
133.273
132.731
132.39
131.875
131.563
131.093
130.832
130.407
130.172
129.781
129.572
129.213
129.031
128.705
128.546
128.236
128.084
127.778
127.627
127.317
127.168
126.853
126.699
126.391
126.193
125.939
125.703
125.452
125.247
124.965
124.728
124.475
124.213
123.93
123.662
123.389
123.076
122.792
122.461
122.122
121.764
121.392
121.015
120.52
120.098
119.404
118.833
117.605
116.561
113.617
111.29
104.094
292.288
252.1
218.17
195.286
178.831
162.944
152.194
140.9
134.302
133.519
139.955
184.743
198.517
196.42
181.823
157.054
141.452
132.633
126.901
123.858
123.13
123.467
124.494
126.381
129.722
131.924
134.242
138.002
142.338
144.734
146.569
147.435
148.137
148.698
148.736
148.602
148.555
148.462
148.279
147.727
147.36
146.89
146.308
145.587
144.917
144.312
143.878
143.35
142.517
142.003
141.765
141.336
140.965
140.304
139.79
139.144
138.659
137.893
137.294
136.55
136.101
135.52
135.121
134.513
134.096
133.478
133.049
132.461
132.06
131.494
131.112
130.572
130.225
129.727
129.429
128.973
128.702
128.278
128.031
127.633
127.415
127.047
126.852
126.502
126.31
125.969
125.765
125.426
125.229
124.876
124.665
124.337
124.066
123.784
123.494
123.194
122.932
122.618
122.313
122.017
121.701
121.369
121.04
120.726
120.353
120.004
119.648
119.235
118.844
118.383
118.004
117.422
116.996
116.229
115.66
114.476
113.414
111.165
108.256
104.727
341.538
365.783
372.879
381.794
384.768
388.41
389.728
391.52
392.185
393.091
393.518
394.053
394.332
394.655
394.868
395.053
395.206
395.353
395.444
395.554
395.638
395.711
395.777
395.84
395.899
395.948
395.991
396.033
396.073
396.109
396.143
396.179
396.212
396.242
396.27
396.298
396.324
396.349
396.374
396.398
396.422
396.443
396.464
396.483
396.5
396.515
396.529
396.541
396.553
396.563
396.573
396.577
396.581
396.585
396.589
396.594
396.597
396.599
396.591
396.571
396.535
396.476
396.398
396.303
396.196
396.076
395.945
395.812
395.694
395.612
395.561
395.53
395.517
395.501
395.545
395.641
395.783
395.964
396.18
396.433
396.722
397.039
397.377
397.732
398.091
398.438
398.763
399.056
399.31
399.518
399.673
399.785
399.864
399.916
399.949
399.97
399.983
399.99
399.995
399.997
399.998
399.999
400
400
400
400
400
400
400
400
400
400
400
400
396.58
396.585
396.589
396.594
396.597
396.599
396.591
396.57
396.534
396.475
396.398
396.303
396.195
396.075
395.945
395.812
395.693
395.612
395.561
395.53
395.517
395.501
395.545
395.641
395.783
395.964
396.181
396.433
396.722
397.039
397.378
397.732
398.091
398.438
398.763
399.056
399.311
399.518
399.674
399.786
399.864
399.916
399.949
399.97
399.983
399.99
399.995
399.997
399.998
399.999
400
400
400
400
400
400
400
400
400
400
400
400
396.572
396.577
345.375
365.299
373.131
381.746
384.86
388.383
389.796
391.47
392.208
393.009
393.583
393.962
394.386
394.601
394.895
395.03
395.209
395.351
395.445
395.554
395.635
395.708
395.775
395.839
395.897
395.947
395.99
396.032
396.071
396.107
396.143
396.179
396.211
396.241
396.269
396.297
396.324
396.348
396.373
396.398
396.421
396.443
396.463
396.482
396.499
396.515
396.529
396.541
396.552
396.562
294.225
251.349
218.452
193.974
176.951
161.954
150.584
139.853
132.251
131.04
132.447
151.835
189.274
200.62
185.588
183.973
158.914
138.128
128.725
124.514
123.709
124.566
126.615
129.861
134.245
137.32
139.651
142.596
145.628
146.758
147.728
147.997
148.225
148.578
148.507
148.348
148.282
148.157
147.952
147.377
147.034
146.583
145.996
145.281
144.622
144.022
143.586
143.016
142.198
141.667
141.414
140.982
140.578
139.934
139.368
138.771
138.234
137.494
136.884
136.104
135.663
135.045
134.647
134.021
133.594
132.943
132.516
131.907
131.506
130.896
130.514
129.948
129.589
129.062
128.756
128.274
127.987
127.533
127.268
126.847
126.613
126.214
126.004
125.62
125.419
125.034
124.83
124.438
124.233
123.847
123.607
123.255
122.967
122.627
122.343
121.978
121.709
121.334
121.038
120.649
120.368
119.926
119.645
119.196
118.897
118.395
118.111
117.566
117.23
116.643
116.302
115.634
115.227
114.393
113.854
112.577
111.642
109.68
107.127
103.459
297.83
253.432
220.094
193.716
175.94
161.663
149.963
139.499
131.348
128.926
131.163
135.06
165.113
193.533
198.459
189.135
183.41
153.518
133.587
126.429
125.587
127.466
130.356
134.509
140.374
144.572
146.73
148.226
149.245
148.917
148.934
148.664
148.44
148.578
148.422
148.287
148.198
148.046
147.834
147.22
146.885
146.443
145.866
145.171
144.523
143.932
143.492
142.878
142.064
141.554
141.255
140.865
140.382
139.822
139.159
138.654
138.037
137.347
136.709
135.94
135.48
134.853
134.457
133.83
133.379
132.737
132.283
131.69
131.276
130.644
130.274
129.688
129.324
128.776
128.481
127.976
127.692
127.206
126.951
126.511
126.268
125.85
125.638
125.235
125.03
124.622
124.417
124.001
123.79
123.377
123.145
122.747
122.486
122.082
121.836
121.408
121.16
120.729
120.459
120.003
119.749
119.252
118.981
118.483
118.19
117.654
117.349
116.782
116.43
115.824
115.456
114.777
114.343
113.536
112.95
111.789
110.878
108.892
106.834
102.808
348.543
365.021
373.607
381.713
385.026
388.316
390.01
391.26
392.315
392.881
393.597
393.935
394.389
394.604
394.883
395.067
395.18
395.362
395.444
395.553
395.633
395.706
395.776
395.838
395.897
395.946
395.991
396.032
396.071
396.107
396.143
396.179
396.212
396.24
396.269
396.298
396.324
396.349
396.373
396.398
396.421
396.443
396.463
396.482
396.499
396.515
396.528
396.541
396.552
396.561
396.571
396.576
396.58
396.584
396.589
396.594
396.597
396.599
396.591
396.57
396.534
396.475
396.397
396.303
396.195
396.075
395.944
395.811
395.693
395.612
395.561
395.53
395.517
395.502
395.546
395.642
395.783
395.965
396.181
396.434
396.723
397.04
397.378
397.733
398.091
398.439
398.763
399.056
399.311
399.518
399.674
399.786
399.864
399.916
399.949
399.97
399.983
399.99
399.995
399.997
399.998
399.999
400
400
400
400
400
400
400
400
400
400
400
400
396.579
396.584
396.588
396.593
396.597
396.599
396.59
396.57
396.533
396.475
396.397
396.303
396.194
396.074
395.944
395.811
395.693
395.612
395.561
395.53
395.517
395.502
395.546
395.642
395.783
395.965
396.181
396.434
396.723
397.04
397.378
397.733
398.091
398.439
398.764
399.056
399.311
399.518
399.674
399.786
399.864
399.916
399.949
399.97
399.983
399.99
399.995
399.997
399.998
399.999
400
400
400
400
400
400
400
400
400
400
400
400
396.57
396.575
349.301
363.372
374.807
380.664
385.588
387.904
390.178
391.192
392.309
392.885
393.569
393.95
394.394
394.642
394.85
395.075
395.179
395.36
395.451
395.552
395.632
395.706
395.776
395.838
395.895
395.945
395.99
396.032
396.07
396.106
396.143
396.178
396.211
396.24
396.269
396.298
396.324
396.349
396.373
396.398
396.421
396.442
396.463
396.482
396.499
396.514
396.528
396.54
396.551
396.561
299.998
254.543
220.428
192.732
173.823
160.54
148.444
138.08
130.401
126.738
130.263
130.607
141.188
176.807
193.028
185.52
197.767
180.96
143.763
128.981
127.1
129.211
133.127
139.628
148.768
154.827
156.573
156.089
154.09
151.421
150.385
149.433
148.733
148.667
148.449
148.288
148.167
148.004
147.777
147.152
146.809
146.381
145.826
145.144
144.507
143.93
143.508
142.838
142
141.541
141.169
140.855
140.275
139.806
139.059
138.647
137.957
137.33
136.618
135.929
135.405
134.818
134.38
133.787
133.279
132.705
132.186
131.626
131.2
130.562
130.195
129.609
129.222
128.683
128.391
127.864
127.582
127.095
126.842
126.382
126.144
125.722
125.505
125.093
124.881
124.467
124.259
123.838
123.624
123.195
122.974
122.537
122.309
121.86
121.635
121.182
120.949
120.478
120.236
119.746
119.496
118.985
118.717
118.189
117.904
117.352
117.039
116.456
116.093
115.489
115.099
114.431
113.952
113.196
112.577
111.453
110.61
108.585
107.082
102.573
302.175
257.351
224.458
194.992
175.195
161.289
149.313
137.419
130.54
125.859
127.573
129.86
131.617
150.855
170.714
183.237
194.363
192.336
173.573
137.938
129.134
130.414
135.705
145.619
156.101
165.687
169.082
167.172
160.909
154.758
152.106
150.421
149.174
148.893
148.559
148.347
148.188
148.02
147.76
147.142
146.783
146.385
145.834
145.187
144.537
143.959
143.547
142.857
142.004
141.589
141.161
140.878
140.249
139.815
139.047
138.686
137.942
137.365
136.57
135.974
135.346
134.854
134.314
133.806
133.213
132.724
132.129
131.622
131.155
130.549
130.152
129.596
129.164
128.676
128.359
127.827
127.542
127.083
126.8
126.333
126.112
125.686
125.456
125.044
124.829
124.423
124.198
123.8
123.538
123.175
122.89
122.516
122.196
121.842
121.532
121.157
120.812
120.471
120.099
119.722
119.329
118.969
118.532
118.172
117.692
117.339
116.804
116.437
115.838
115.479
114.824
114.419
113.676
113.194
112.295
111.614
110.187
109.043
106.467
350.175
364.735
374.684
381.707
384.815
388.183
390.057
391.271
392.294
392.991
393.529
393.97
394.4
394.634
394.851
395.069
395.184
395.359
395.461
395.553
395.63
395.709
395.781
395.839
395.895
395.945
395.991
396.032
396.07
396.107
396.144
396.178
396.21
396.241
396.27
396.299
396.324
396.349
396.374
396.398
396.421
396.442
396.463
396.481
396.499
396.514
396.527
396.539
396.55
396.56
396.57
396.575
396.579
396.584
396.588
396.593
396.597
396.599
396.59
396.57
396.533
396.474
396.396
396.302
396.194
396.073
395.944
395.811
395.693
395.612
395.561
395.53
395.517
395.502
395.546
395.642
395.784
395.965
396.182
396.435
396.723
397.041
397.379
397.733
398.092
398.44
398.764
399.057
399.311
399.518
399.674
399.786
399.864
399.916
399.949
399.97
399.983
399.99
399.995
399.997
399.998
399.999
400
400
400
400
400
400
400
400
400
400
400
400
38.4613
38.6073
38.4108
39.021
39.0874
39.4599
38.4866
37.7714
37.3091
37.9437
38.8569
39.3984
39.1027
38.965
38.1941
37.8961
37.5123
37.7014
38.2031
38.2145
38.0571
37.7736
37.449
37.6052
37.6713
38.3327
38.8386
39.1601
39.1999
38.6322
38.4531
38.4982
38.201
38.1993
37.8808
38.0434
38.0807
38.7137
37.7965
37.856
38.6763
39.3866
38.8205
38.3138
38.2444
38.1104
38.1203
37.9698
37.8805
38.7293
39.3044
38.7241
38.3501
38.6032
39.3368
39.9939
40.1944
40.4776
40.5922
40.5125
40.8407
41.2439
42.6545
43.885
49.9242
47.2099
57.4137
39.6908
56.6798
46.4281
47.246
44.9223
44.5829
44.3701
44.2824
44.3374
45.1777
45.1645
45.3828
45.3728
44.6467
44.2157
43.8411
44.0169
44.2699
44.4737
44.6579
44.6198
44.8304
44.9841
45.2673
45.2055
45.1114
44.776
44.9177
44.949
45.0701
45.6091
46.3922
47.0098
46.5197
46.2186
46.1675
46.2485
46.5873
47.752
48.3487
48.0049
47.4365
46.3002
46.1781
46.5132
47.2236
47.6991
47.1312
47.1871
47.1749
47.8532
48.6566
49.2301
49.2074
48.9433
48.6265
48.4871
48.6434
49.1379
49.2234
49.1889
49.9806
50.6605
50.8297
50.8785
50.4171
49.1528
49.1479
49.643
50.9013
51.0113
50.9119
50.9071
51.2846
51.5207
51.2893
50.8974
50.5533
50.4025
51.3432
52.6808
52.5709
52.3426
51.9463
51.8388
52.3376
52.6106
53.0162
53.3844
53.2039
52.6868
52.8891
53.4764
54.5827
54.4136
54.0915
53.3927
53.434
53.5695
53.4635
54.1499
54.4329
54.6193
54.9597
54.5644
54.4573
54.8818
55.8228
56.6218
56.4184
56.2718
55.1244
55.1298
55.9979
57.3768
57.5536
56.984
56.9679
57.2014
57.2309
56.3481
56.3794
56.8226
57.2607
58.156
58.9978
58.7368
58.9076
60.6575
61.0643
61.6352
62.6119
63.2081
65.2033
65.8389
66.92
66.433
66.0014
65.3384
66.1608
67.0746
67.8916
67.9183
66.8328
67.3355
69.0667
68.7669
68.222
67.6731
66.704
66.0743
65.9748
65.9302
66.0676
65.3599
65.2897
64.4754
64.1552
64.3367
64.6187
64.8319
63.9798
64.4901
64.1349
63.8563
62.4101
61.9787
62.1815
61.8791
60.2912
58.9797
58.0475
57.5037
56.168
56.4386
55.9728
54.5704
53.9294
52.6631
52.0538
50.6897
50.6808
50.9291
50.3487
49.5792
49.3698
48.5031
47.1761
46.3084
45.8839
45.6507
45.5587
45.3949
45.2311
44.8369
44.0336
44.103
44.2006
44.0601
44.0069
43.7648
43.3934
42.8536
42.4745
42.2891
42.1721
42.1518
42.1085
41.645
41.2015
41.017
41.2786
41.2331
41.2001
41.0555
41.1518
41.148
41.2427
41.3873
40.9531
40.465
40.0746
40.3272
40.4994
40.4917
40.8235
41.2458
41.7007
41.7328
41.2792
41.3468
41.8214
42.2473
42.3264
42.4574
42.5219
42.5113
42.7044
43.1328
47.0247
47.0218
57.2442
39.4313
55.0669
47.312
50.9153
49.0035
45.5163
43.3823
41.8656
40.9228
40.7698
40.9875
40.44
39.7471
39.4855
39.3429
39.5095
39.7266
40.2998
40.373
40.4654
40.4009
40.0396
39.2112
38.6866
38.7306
38.5899
38.9561
39.243
39.4531
39.4299
39.0251
38.0435
38.3837
38.8141
38.9051
37.8795
37.9549
38.3555
38.7225
38.7113
38.3738
37.7181
36.9334
37.0273
37.172
37.0577
37.1049
37.3779
37.5686
37.4255
37.1952
37.0393
37.2993
37.3743
37.809
37.9181
37.2269
36.6772
36.7115
36.3262
36.9958
37.2671
37.9869
38.9918
39.9286
41.3668
49.5422
47.4775
49.1892
49.6016
49.7751
49.8224
49.929
49.9013
48.9826
48.3341
47.5289
47.0519
46.5661
46.1955
45.9365
45.7186
45.6176
45.5056
45.3678
45.2426
45.1119
44.9662
44.5736
44.1375
43.679
43.3558
43.1815
43.0455
42.8487
42.6919
42.564
42.4301
42.2341
42.0683
41.9086
41.7654
41.5391
41.3476
41.1039
40.8724
40.6287
40.4407
40.2145
40.0511
39.8031
39.6059
39.3564
39.1369
38.8679
38.6463
38.3691
38.166
37.9438
37.7271
37.4524
37.2138
36.9832
36.8077
36.5944
36.397
36.1876
35.9869
35.7695
35.5673
35.3669
35.1512
34.9203
34.6769
34.4373
34.2257
34.0196
33.8012
33.5893
33.3742
33.1762
32.9781
32.8022
32.6198
32.4415
32.3341
32.1844
32.059
32.0128
31.9967
31.9413
31.9062
31.9229
31.9569
31.9712
31.9843
32.0458
32.1611
32.4149
32.7327
32.9609
32.9944
33.1021
33.1236
33.1469
32.7608
32.4157
400
400
400
400
400
105.108
400
400
400
400
400
400
400
400
400
400
400
399.999
399.998
399.997
399.995
399.99
399.983
399.97
399.949
399.916
399.864
399.786
399.674
399.519
399.312
399.058
398.764
398.44
398.092
397.734
397.379
397.04
396.723
396.435
396.182
395.965
395.784
395.643
395.546
395.502
395.516
395.53
395.56
395.61
395.692
395.809
395.941
396.071
396.192
396.302
396.395
396.469
396.529
396.57
396.591
396.598
396.598
396.594
396.588
396.584
396.579
396.574
396.568
396.559
396.55
396.539
396.527
396.513
396.498
396.48
396.462
396.442
396.421
396.398
396.374
396.349
396.324
396.299
396.271
396.24
396.209
396.178
396.144
396.107
396.073
396.03
395.99
395.944
395.891
395.839
395.786
395.707
395.63
395.553
395.484
395.347
395.222
395.011
394.869
394.605
394.387
394.033
393.695
393.149
392.372
391.304
390.013
387.552
68.8138
115.908
104.62
104.314
101.283
104.141
100.114
99.2815
101.552
102.452
133.177
127.46
123.692
123.805
125.12
126.171
132.441
141.391
160.614
182.31
183.934
189.371
193.259
188.292
176.848
174.606
172.964
167.26
172.265
185.663
186.724
183.953
170.027
159.148
154.897
151.28
149.687
148.932
148.49
148.224
147.936
147.623
147.009
146.512
146.196
145.722
145.128
144.546
143.919
143.474
142.671
141.895
141.402
141.111
140.681
140.135
139.607
138.927
138.536
137.82
137.25
136.444
135.89
135.212
134.835
134.204
133.816
133.104
132.703
132.057
131.601
131.075
130.562
130.066
129.591
129.106
128.637
128.244
127.842
127.395
127.094
126.658
126.341
125.994
125.651
125.354
125.022
124.747
124.397
124.088
123.76
123.432
123.088
122.76
122.455
122.029
121.778
121.395
121.08
120.685
120.415
119.977
119.627
119.261
118.844
118.46
118.046
117.662
117.196
116.769
116.29
115.866
115.284
114.886
114.213
113.756
113.04
112.498
111.528
110.702
109.314
107.738
83.9549
82.7092
48.7116
55.8129
400
400
70.0419
104.529
164.229
165.416
166.162
172.614
178.367
106.582
55.8006
55.8576
54.533
55.3714
55.2274
54.685
56.9778
56.6102
54.9191
56.0105
53.8086
53.8948
54.9369
54.6778
56.0865
55.8454
55.7404
56.5535
55.7415
55.5165
56.3246
56.1358
56.7761
56.6401
55.0733
56.134
54.5055
54.5877
55.6174
54.5793
56.3712
56.449
56.7196
56.709
56.6705
56.8037
56.3917
56.3964
56.1488
56.3858
55.516
55.5462
56.5446
55.6678
57.7388
57.1735
57.6978
57.7021
56.6159
57.5515
56.9759
56.7445
57.0984
57.3113
56.5947
56.891
56.3174
56.5023
57.8215
56.488
61.8986
58.9179
75.7129
65.6185
69.8469
68.6303
67.8516
72.7803
65.2609
66.6584
62.1377
64.0059
60.8403
61.5942
62.463
61.3511
64.5464
63.8571
64.6615
64.9947
64.6263
64.9655
63.97
64.4618
63.8462
63.7457
64.1871
64.2075
63.2067
63.7621
63.2225
63.2424
63.5612
63.3752
64.7059
64.1303
64.8138
64.9026
64.4712
64.5331
63.0562
63.6768
63.6958
62.8478
66.8648
65.1509
70.0268
68.3723
71.5454
70.5403
70.0711
71.0814
67.4467
68.5878
67.0995
66.8693
69.4309
68.4525
71.4293
70.762
71.452
71.8646
70.0778
70.8771
68.1886
69.3045
69.0076
68.3699
71.625
70.2045
72.2299
72.2354
71.5669
71.9699
71.3027
71.5018
71.8648
71.3428
74.1643
72.8483
74.111
74.5153
73.4712
73.4386
75.0088
73.8777
76.8947
75.9602
77.679
77.5725
76.9238
77.3163
77.2619
76.8074
76.9446
77.6263
76.7027
76.5294
78.8975
77.4135
80.1342
79.7797
79.8715
79.9797
79.9638
79.8277
81.5164
80.8527
81.5556
81.965
80.587
81.1065
81.156
80.4657
82.9289
82.7151
81.9916
82.3454
79.6353
80.7242
78.8684
79.5094
79.7417
78.87
79.805
79.9202
79.9016
79.6799
82.0243
80.0923
83.5439
83.4851
88.0948
85.4383
89.9931
89.9438
89.3004
88.8382
91.8072
89.9935
95.9841
95.3378
96.3124
96.0228
97.7568
96.8408
99.61
99.9817
97.4301
97.5915
98.1459
97.6085
99.4502
99.4462
98.9837
99.5983
97.5392
98.162
97.671
97.8926
96.2759
97.4035
93.081
94.3877
92.1007
92.2629
90.6801
90.9252
90.0688
90.8752
87.2963
88.3876
86.3789
86.5321
85.591
85.3216
82.5583
83.4126
79.5806
80.3502
78.8663
79.5633
75.9908
77.6013
75.6999
75.9499
73.3841
73.9479
71.3895
72.5307
70.0182
70.6895
68.2883
69.052
66.5598
67.6472
64.1167
65.2984
63.7633
63.6119
63.8162
63.8733
62.8233
63.4963
60.7968
61.8226
60.913
60.7321
61.5735
61.2472
62.3635
61.9162
62.7505
62.5422
61.4016
62.3936
60.1906
60.322
58.7676
59.4361
57.5174
57.9108
56.6568
56.9471
56.9898
56.7648
56.6696
56.9119
56.9137
56.7829
57.3604
56.9028
57.9159
57.7666
57.3078
57.6458
57.1771
57.0584
58.4633
57.3796
61.4336
59.2497
71.4554
68.0853
67.6162
68.5611
63.1512
67.2838
59.4528
61.1472
58.8985
59.1693
59.0772
59.0329
59.334
59.2907
58.2629
58.6334
55.6619
56.2924
54.9339
54.9787
56.6456
55.5984
57.9469
57.624
57.0437
57.7133
55.6651
56.1764
55.5753
55.6124
56.4837
56.3234
55.835
56.0931
56.417
55.903
54.1267
55.8854
53.5043
53.4441
54.6835
54.0771
55.3085
55.2659
55.0605
55.0732
54.336
54.9625
54.1547
54.1527
54.1478
54.2491
52.9831
54.4423
52.3308
52.387
53.8103
52.9638
53.7662
54.2561
51.4993
53.1397
48.1128
46.0518
48.4828
49.9178
45.926
48.5039
48.281
48.5997
48.5208
47.8366
48.5853
45.7506
46.6177
44.8603
45.2353
44.3433
44.537
44.195
44.244
43.9037
44.0781
43.5212
43.7034
42.9867
43.3083
42.0876
42.4602
41.7184
41.8682
41.4868
41.5854
41.3562
41.4306
41.0256
41.2293
40.7106
40.8636
40.4186
40.5961
40.0681
40.2205
39.7339
39.876
39.4216
39.5555
39.056
39.2556
38.6033
38.8659
38.2069
38.4318
37.7991
38.0491
37.401
37.6348
37.0192
37.2289
36.6544
36.8402
36.3206
36.5079
35.9448
36.1643
35.5471
35.7614
35.1638
35.3652
34.752
34.9535
34.3176
34.5081
33.8799
34.0935
33.4375
33.6603
33.016
33.2297
32.6047
32.8063
32.2142
32.4223
31.9436
32.1091
31.6957
31.78
31.5557
31.6581
31.4526
31.4554
31.4912
31.481
31.5369
31.497
31.9187
31.6581
32.5757
32.2925
32.7966
32.6091
33.1297
33.0353
33.4848
33.7059
400
400
400
400
400
173.936
400
400
400
400
400
400
400
400
399.998
399.999
399.995
399.997
399.983
399.99
399.949
399.97
399.863
399.915
399.673
399.786
399.312
399.517
398.764
399.058
398.089
398.437
397.377
397.731
396.72
397.036
396.184
396.436
395.789
395.967
395.554
395.651
395.521
395.509
395.561
395.533
395.687
395.609
395.925
395.799
396.172
396.05
396.39
396.289
396.53
396.467
396.594
396.571
396.592
396.597
396.554
396.581
396.434
396.508
396.301
396.376
396.143
396.226
395.933
396.035
395.802
395.215
395.417
393.936
392.844
394.893
156.847
170.962
166.065
164.605
165.138
179.824
185.967
184.24
165.109
180.985
151.708
155.747
147.464
148.956
146.283
147.032
143.393
144.911
141.321
142.218
140.257
140.66
138.924
139.754
137.027
137.968
135.224
136.058
133.52
134.152
131.944
132.549
130.509
131.148
129.118
129.771
127.804
128.346
126.558
127.002
125.51
125.975
124.638
125.069
123.708
124.08
122.653
123.181
121.704
122.273
120.712
121.217
119.634
120.197
118.501
118.969
117.053
117.803
115.823
116.39
114.073
114.978
112.778
113.54
111.006
111.746
109.041
110.244
106.962
107.986
104.069
105.551
100.706
102.577
96.6581
98.6047
92.0773
94.5013
87.4738
89.686
82.5993
85.1333
78.0579
80.3196
73.4672
75.6733
68.9819
71.1991
65.014
66.9299
61.4547
63.2048
58.6812
59.7779
56.4645
57.6486
56.5422
56.5243
57.8409
56.6905
64.5324
58.2925
89.3088
82.6381
96.5495
97.5107
97.3056
96.7783
96.7137
96.8874
96.7283
96.7325
97.0836
96.8667
97.8397
97.4997
97.8109
97.9456
96.1528
97.1223
93.5349
94.8277
92.1279
92.6427
91.1897
91.7257
89.6218
90.4582
86.675
88.6794
83.8709
84.9489
81.1179
82.9146
79.1097
79.9702
75.2082
77.9203
61.3611
67.6431
58.3081
59.151
57.5314
57.871
57.0214
57.2741
56.5655
56.8057
56.1194
56.3636
55.6476
55.8844
55.1629
55.4082