/*--------------------------------*- C++ -*----------------------------------*\
| =========                 |                                                 |
| \\      /  F ield         | OpenFOAM: The Open Source CFD Toolbox           |
|  \\    /   O peration     | Version:  2212                                  |
|   \\  /    A nd           | Website:  www.openfoam.com                      |
|    \\/     M anipulation  |                                                 |
\*---------------------------------------------------------------------------*/
FoamFile
{
    version     2.0;
    format      ascii;
    arch        "LSB;label=32;scalar=64";
    class       volScalarField;
    location    "0.00256";
    object      epsilon;
}
// * * * * * * * * * * * * * * * * * * * * * * * * * * * * * * * * * * * * * //

dimensions      [0 2 -3 0 0 0 0];

internalField   nonuniform List<scalar> 
7220
(
66283.9
101871
101727
101245
101456
101339
102075
101728
101536
101564
66802.7
1.49965e+07
96068.9
112734
125326
3.78302e+07
148896
94349.1
123528
90855.4
83220.2
169429
98809.3
255758
228163
2.40662e+06
6.33228e+07
96161.5
85037.3
99361
124761
102289
101962
98124.9
986834
68060.5
102435
66994.5
66067.4
61606.2
62044.6
62037.1
61599.1
72275.8
71666
71936.1
72389.3
72803.1
62559.7
63143.6
63136.1
62552.1
63787.9
64483.3
64476.3
63780.5
65220.2
65988.1
65982.7
65213.8
66775.6
67570.8
67568.7
66771.6
68360.9
69131.9
69136.2
68361.5
69868.8
70555.9
70572.6
69878.4
71178.5
71723.4
71757.3
71203.7
72181.4
72550.8
72601.4
72223.8
72818.2
72922
72984.8
72875.2
72926.9
72966.6
72876.8
72769.6
72553
72377.3
61251.5
61245.1
61619
61179.6
71311.5
71514
72190.9
71819.5
72243.3
72201.6
72303.7
71573.2
71937.2
70590
71123.4
69313.7
69982.9
67844.8
68596.2
66297.8
67074.2
64776.4
65528.1
63369.2
64053.4
62154.2
62733.1
61199.8
61640.6
62710.4
62131.8
64031.3
63346.5
65509.5
64755.6
67063.9
66282.6
68602.9
67841.5
70022.6
69334.5
71210.6
70652.7
72075.2
71685.7
72470.6
72359.1
72435.8
72097
60839
60820.7
71410
71454.5
70813.5
71391.2
71842.4
71487
70821.8
71161.7
71115
70486.9
71203
71059.7
71144.1
71252.2
70514.2
70878.7
69549.1
70069.3
68318.8
68962.1
66911
67630.8
65428.7
66172.7
63968.5
64690.5
62610.3
63272
61425.4
61992
60478.5
60918.4
60564.9
59824.8
60112
60982
60987.6
60083.2
59799.4
60548.7
60884
60446.6
61954.6
61389.1
63235.1
62572.5
64659.4
63933.7
66154.6
65403.1
67638.3
66903.5
69017.9
68347.3
70192.5
69637.3
71074
70672.8
71512.1
71373.3
71512.3
70098.9
70615.3
70235.2
70270.5
60384.5
59622.4
59185.3
58894.3
71065.3
69595.6
70296.6
70728.3
69618
68592.6
69041.9
70104.3
69926.6
69329
69927
69812.7
69824.2
69942.4
69180.7
69549.4
68227.9
68737.1
67046.5
67661.2
65712.8
66393.3
64314.8
65016.3
62935.4
63618.1
61645.4
62275.1
60510.3
61054.8
59588.6
60019.3
58927.8
59223.3
60818.4
60823.1
59600.9
60370.6
59973.7
59546.4
61004.6
60461.8
62225.3
61594.9
63575.7
62888.3
64991.3
64279.6
66401
65701.6
67724.7
67079.1
68870.9
68326
69752.8
69348.7
70218.2
70059.4
70270.8
69491.5
58705.2
58676.4
70883.1
69113
68166.4
70588.5
68976.2
68862.3
68909.9
68624.8
69708.2
58027.8
57789.6
59489.5
58532.8
70266.7
69790.3
67786.8
68660.9
66367.8
66633.1
67472.7
70358.8
67779.8
68333.9
68090
68564.1
68488.2
68407.6
68548.4
67751.6
68123.2
66817.8
67314
65683.4
66271.1
64424.2
65064.8
63115.9
63771.4
61829
62465.8
60624.1
61212.6
59557.8
60070.2
58681.2
59093.1
58325.3
58556.6
60298
59507.2
60750
60754
60286.6
57754.3
58277.8
57986.2
59035
58628
60006.2
59496
61149.2
60559.4
62412.5
61769.2
63739.9
63072
65068.6
64408.3
66326.8
65711.3
67433.5
66904.9
68305.3
67902.4
68796.5
68617.3
68882.7
67856.6
68253.8
67090.7
67456.6
66808.1
68585.3
57612.1
57583
67527.3
67577.1
67343.7
65548.8
69243.5
70118.8
69294
67205.9
69932.2
65258.2
66638.6
68273.5
67435.4
66338.6
66119.7
67098.5
66900.2
67249
67215.7
67035.2
67200.3
66372.8
66745.5
65454.8
65939.3
64368
64927.9
63185
63784.2
61971.7
62578.2
60785.7
61371.8
59678.9
60219
58700.2
59170.6
57887.8
58271.7
57255
57549.1
56799.2
57004.8
56639.8
58474.3
57490.9
60276.9
59461.8
60742.4
60745.9
59447.7
60267.7
57467.4
58455.6
56612.4
56962.5
56764.6
57491.7
57205
58201.5
57823.6
59093
58625.5
60142.2
59600.2
61306.4
60712.8
62537
61916.7
63779.8
63160.6
64972.6
64387.1
66038.2
65526.4
66897.1
66497
67410.3
67212.8
67527.4
66701.8
67045.6
66033
66354.7
65776.1
67068.6
68116.5
69893.8
66035.7
66346.2
66385.6
66203.1
56213.6
56020.9
57395
56501.3
69603
68870.9
67971.4
65196.8
64451.9
64528.4
65299.8
66744.7
68829.7
66982.3
69464.8
65736.7
66032
65141.3
65656
65398.5
66022.2
65863.2
66096.7
66105.7
65835.3
66017.5
65167
65540.7
64264.1
64737.6
63221.1
63755.3
62110
62670
60990.2
61548
59909.4
60442.1
58911.1
59397.4
58034.3
58455.6
57299.2
57649
56696.5
56982.5
56439.8
56522.1
58440.6
57413
60314
59467.3
60797.7
60800.4
59456.3
60306.4
58426.2
55989.1
56390.4
56173.3
56915
56637.8
57567
57223.8
58365.3
57947.2
59308.6
58820.1
60367.5
59826.3
61499.8
60927.2
62657.8
62079
63784.6
63229.3
64808.5
64314.2
65653.6
65257
66182.3
65968.5
66322.1
65688
65975.7
65102.3
65393.6
64717.6
64815
64608.9
67689.8
64887.5
55863.4
55839.2
65418.4
65396.7
65406.2
66337.3
69563.1
69193.3
68548.8
67753.2
64678.9
65450.4
67141.9
66132
109815
66911.9
64621.9
64044.3
64459.9
64251.5
64883.7
64677.3
65164.4
65042.5
65183.9
65216.8
64876.2
65072.6
64209.8
64580.7
63325.9
63787.6
62322.1
62834.1
61274.1
61799.4
60241.2
60753
59265.6
59744
58381.9
58810.2
57614.9
57983.1
56962
57275.5
56396.1
56670
55901.5
56139.3
55500.9
55687.6
55342.8
56440.2
55741.4
58450.5
57373.3
60404.4
59520.5
60913.9
60916.1
59512
60398.5
57360.1
58439.7
55724
56425
55323
55650.6
55473
56081.8
55854.6
56592
56327.9
57181.3
56875.1
57880.5
57515
58711
58279.3
59661.2
59172.8
60697.2
60171
61775.7
61234.1
62842
62314.4
63825.8
63348.8
64651.7
64263.3
65190.6
64964.8
65347.2
64879.3
65287.8
65114.6
64384.7
64630.7
64054.7
64172.5
63897.6
63974.1
64136.7
63982.3
65347.6
64782.8
64954.9
64389.8
67344
103822
64370.3
63854.5
69162.1
101602
55433.8
55246.8
55645.1
55202.1
68865.3
65403.9
68327.2
65761.9
66319.2
67695.5
67003.6
102131
111431
113318
117617
136006
116710
65081.3
65932
108363
64852.9
64816.6
64435.9
68249.6
67663.2
64198
105745
63732.7
118647
64129.6
63697.1
102759
63862.6
63739.9
63544.7
63608.2
63496.6
63502
63708.9
63572.2
64031.6
63866.7
64358.8
64207
64565.4
64481.2
64532.3
64588.3
64195.7
64403
63538.6
63903.5
62674.9
63125.1
61706
62198.2
60712.9
61207.6
59759.2
60228.4
58884.8
59310.1
58116.9
58486.6
57460.6
57775.7
56890.7
57167.5
56366.1
56624.7
55871.6
56114.1
55643.2
55215.2
56395.6
55656.8
58502.4
57373.9
60537
59620.1
61073.6
61075
59613.9
60533
57364.6
58494.5
56385
55224.1
55600.9
55402
56048.4
55817.9
56536.2
56288.5
57061.6
56792.4
57661.7
57349.4
58377.6
58003.6
59220.3
58783.9
60165
59682.3
61171
60663.1
62183.5
61680.4
63131
62670.4
63935.1
63556.8
64480.9
64246.4
64725.9
64640.8
64650.4
64726.3
64338.8
64517
63934.9
64132
63658.6
63768.6
63592.6
63607.7
63843.9
63686.7
64078.3
108839
110240
115032
66855.6
68770.6
106340
90239.8
1.18728e+06
67834.4
55083.7
55068.6
115161
65647.6
67346.1
67976.6
68840
66118.6
131593
64754.9
64284.1
64581
65418.8
68634.1
66289.5
66699.7
64173.2
7.67773e+06
68281
106383
63851.5
123995
67790.2
67210
103271
104177
69921.8
107343
105176
102146
63664.8
63669.6
63512.2
63564.9
63629.6
63540.4
63871.7
63744.1
64110.1
64000.9
64249.7
64200
64173.2
64246.7
63811.2
64027.2
63164.9
63522.8
62320
62759.7
61381
61856.9
60435.6
60904.5
59552.6
59982.8
58774.2
59148.6
58118.1
58431.2
57568.7
57832.1
57079.8
57320.4
56601.2
56841
56120.1
56360.1
55659.9
55885
55249.3
55447
55069.1
55122.7
54947.4
56391.7
55611.4
58594.7
57417.8
60702.4
59754.5
61249.4
61250.6
59750
60699.3
57411.5
58589
55604.2
56385
54938.3
55114.7
55058.5
55421.2
55231.9
55837.2
55623.7
56286.2
56059.4
56741.5
56514.1
57201.8
56969.4
57707.3
57445.2
58314.1
57995
59052.5
58666.5
59912
59469.2
60853.4
60375.6
61820.3
61338.2
62737.4
62290
63522.7
63153.4
64072.2
63832.6
64337
64240
64313.5
64358.1
64082.3
64211.1
63773.2
63924.6
63574.1
63652.3
63566.7
63547.1
63818.4
63661.5
64008.8
111076
113158
64230.4
108266
111382
66519
68484.7
106377
68984.2
67325.2
115678
103173
102956
65517.3
64419.8
64683.4
65081.3
68616.4
67167.8
67823.3
107970
67153.5
102301
55677.6
55453.5
54838.3
54906.4
67336
243087
64795.1
66552.2
102059
101997
102277
102478
101418
68588.8
105675
103600
110110
1.22501e+06
109541
113065
64281.8
68784.2
107167
105386
104290
105692
126039
68382.6
67658.2
64079.6
102066
68016.2
102640
102736
104827
64238.7
102603
103321
103265
104036
71370.1
102615
72576.4
126088
63965.8
63964.9
63751.2
63820.2
63802.6
63750.8
63972.7
63880.7
64132.9
64056.4
64214.7
64192.6
64101.5
64190.2
63721.4
63943.5
63082.8
63433.6
62251.1
62683.2
61336
61798.7
60429
60876.2
59607.6
60004
58918
59244.9
58365.3
58625.7
57916
58131.5
57504.9
57709.8
57078.3
57295.4
56621.2
56853.3
56147.2
56384.7
55910.5
54912
55069.5
54842.9
56431.7
55609.5
58720.6
57502.9
60888.5
59913.2
61443.2
61444.2
59909.8
60885.9
57498.8
58716.5
55605.5
56427.7
55065.4
55440.8
55881.2
55657.6
56331
56106.4
56770.3
56552.7
57184.3
56980.8
57579.8
57382.8
57995.8
57781.1
58500.7
58233.1
59143.9
58803.8
59926.1
59519.3
60812
60359.5
61741.8
61276.3
62638.5
62200.2
63412
63046.5
63962
63719
64244.1
64136.8
64264.8
64282.7
64101.1
64192.8
63887
63995.1
63770.2
63808.2
63820.1
63772.8
64050.4
63905.5
64204.4
118886
106512
103846
104981
100265
112907
124862
66352.9
65463.4
65150
68306.9
111576
107927
106702
112776
109320
110909
105214
113525
1.03686e+06
68526.8
64814.1
103440
55244.7
55237.8
68371.3
132883
113950
122095
118752
142271
65551.4
102808
66071.2
102741
109563
117233
112918
101547
68597.1
67187.1
67859.8
104038
108517
105328
106197
105896
108919
110382
106593
108369
106694
117909
109026
106702
102060
157291
116016
64892.8
67964.7
121953
107445
382207
68709.6
102647
105386
103660
103792
68416.4
64504.2
99882.5
71041
117268
104501
102339
102539
102013
102657
101415
68636.5
102320
102076
102651
102424
91876.1
2.65965e+06
68527.1
64421.8
101513
102314
101895
101952
104203
64803.2
101872
107790
103640
103190
102303
102844
74316.8
70436.6
103103
102615
101128
75530.2
285125
64422.3
64520.5
64206.7
64285.4
64207
64188
64310.5
64257.3
64404.4
64355.9
64431.1
64434.6
64284.2
64385.7
63894.7
64121.3
63263.1
63608.5
62443.2
62869
61544.1
61996.6
60666.5
61096.3
59897.5
60264.2
59284.5
59570.5
58827
59038.3
58469
58640.6
58131.3
58302
57759.1
57951.3
57332.4
57553.3
56848.5
57097.4
56323.8
56589.5
55802.8
56058.4
55566.8
54785.1
55060.5
55058.6
54774.8
56513.2
55650.3
58869.6
57622.7
61073.2
60085.3
61634.8
61635.7
60082.4
61071.1
57620
58866.6
55648.6
56511.1
54773.3
55057.2
55057.8
54783.1
55563
56043.6
55794.2
56556.4
56301
57037.1
56803.1
57460.6
57256.2
57828.8
57651.1
58159.9
57997.1
58495.9
58323.2
58909.7
58688.1
59465.6
59167.7
60179
59803.8
61018.2
60585.8
61921.4
61466.1
62803.1
62369.9
63564.7
63206
64111.5
63868.8
64411.9
64294.7
64473.3
64467.2
64373.1
64431.2
64253.1
64313.6
64218.6
64217.2
64316.3
64250.6
64516.7
64401.8
64827.9
64657.4
65073.7
69938.5
6.34662e+06
103078
112356
112057
126839
116498
104886
107585
106104
111864
109507
120046
115274
127869
66376.2
65936.4
101095
101235
68336.8
104610
107223
107458
104240
231028
131551
64918.5
103094
103300
104139
105081
123088
137194
110005
149516
125013
121616
113211
115693
148119
119515
133377
128219
152569
65645.5
67296.8
117592
109909
102560
101067
68735.2
67290.3
67984.4
102792
105539
103503
104084
104081
69636.4
102910
56550.7
56270.8
54909.4
55360.8
198681
122561
65128.3
274511
69782.2
113876
105805
103059
103319
100972
68995.9
101926
102261
598019
69406.9
379614
64866.4
73769.6
109138
100944
69206.8
101551
101569
105422
64983.8
101012
111241
104996
101402
103789
65406.5
101176
103593
77467
73106
101368
102965
72176.2
103208
102872
101412
352490
78434
101106
100759
103102
100708
65407.7
65992.8
65402.3
65565.7
65091.4
65301.2
64859.4
64949.5
64816.3
64822.6
64855.2
64839.4
64886.8
64868.7
64857.6
64887.1
64679.2
64794.3
64279
64505.8
63658.7
63996.8
62849.8
63271.2
61965.3
62410.7
61111
61527.3
60385.5
60727.4
59840
60089.3
59464
59634.5
59185.8
59318.7
58918.5
59055.3
58603.7
58769.9
58209.1
58418
57719.1
57976.6
57146.3
57440.2
56846.5
55361.3
54694.2
54909.3
55088.1
54745.5
56628.7
55728.8
59029
57767
61239.9
60251.3
61801.6
61802.3
60249.2
61238.3
57765.4
59026.9
55728.8
56627.9
54746.1
55088.5
54694.7
56265.7
56829.3
56540.4
57402.5
57120.1
57909.6
57666.9
58315.9
58125
58635.2
58484.7
58901.7
58772.6
59165.8
59030.1
59500.6
59319
59980.9
59719.3
60635.2
60287.3
61435.2
61019.9
62315.8
61871.4
63180.1
62756.2
63924.5
63572.7
64466.6
64224.8
64781.5
64653.3
64890.6
64856.8
64867.7
64882.8
64839.3
64853.3
64878.7
64846.4
65012.4
64938.9
65197.7
65097.9
65461.8
65310.9
65986.8
65678.1
66413.9
103093
102041
102555
101120
101565
100344
100342
100708
100944
100877
101482
101155
101855
103963
103575
103882
106089
104709
110909
108028
115428
166921
152034
64130.9
118590
140189
123592
104110
103680
103733
105897
104876
108702
107165
113643
110689
123863
117475
134054
66473.3
66904.3
113147
65310.4
103164
100876
68476.4
103065
104751
104899
104521
103017
71472.1
102653
183332
68464
409400
56016.3
56014.9
110656
107746
103620
103431
103808
105755
186939
144570
136982
120064
124614
177708
128162
151333
142303
164314
65903.4
67727.6
68819.1
111596
107586
66567.9
66071.8
103206
102110
100394
100695
107795
110142
69055.6
67589
68305.4
101892
101306
103000
105000
103591
102182
102552
102283
105063
115331
119689
193353
70816.9
286858
68298.8
103169
103739
283200
132440
65530.4
72123.3
108400
104564
103930
100029
100022
100602
69604.3
101278
101310
105036
107061
70181.7
65469.7
100915
101141
76657.7
103671
102354
105321
101008
100533
116625
106895
100995
100812
104629
65716.8
102595
104027
100646
100690
100562
104613
80420
76265
99439
104722
102892
104534
102817
104390
102731
104239
100699
103453
75130
102469
103128
100795
103032
74052.9
422036
100682
104181
80991.8
100220
67347.8
67885.3
66728.3
67212.1
66227.8
66387.4
65939.2
66159.8
65689.3
65789
65601.2
65628.7
65567.4
65589.7
65529.2
65545.3
65445.4
65499.3
65232.2
65361.8
64817.3
65050.1
64201.4
64534.7
63411.5
63822.2
62550.4
62982.8
61728
62128
61041.3
61362.7
60552
60770.8
60244.6
60379.6
60038.7
60135.5
59836.7
59941
59579.3
59718.3
59217.8
59413.1
58723.4
58987.4
58114.8
58429.8
57463.3
57789
56853.7
57148.3
56588.1
55193.3
55796.9
54642
54797
55153.3
54754.5
56767.9
55837.2
59185.4
57923.5
61374.5
60397.6
61928.7
61929.3
60395.9
61373.2
57922.5
59183.9
55838
56767.9
54756.3
55154.7
54799
54644
55798.1
55195
56589.3
57141.7
56851.7
57769.1
57451
58387.6
58085.3
58913
58666.7
59302.9
59125.5
59573.3
59449.6
59778.1
59680.4
59977.5
59874.4
60246.2
60097.6
60661.9
60432
61257.8
60936.7
62013.3
61619.7
62857.7
62429.4
63703.7
63286.9
64442.3
64093.1
64986.7
64741.2
65320.9
65180.9
65471.5
65414.2
65521.7
65499.6
65602.8
65560.7
65720.2
65655.3
65875.6
65795.4
66044.9
65959.3
66257
66137.9
66696.6
66435.3
67064.9
102112
102632
101172
101626
100390
100756
99767.3
99831.4
100082
100470
100261
100702
100459
101305
100989
101665
102913
103250
104631
104104
107145
105683
112747
109381
127299
118078
145115
105353
158435
130459
162852
134740
104979
104327
104463
106775
105772
109703
108041
115464
112028
128771
120536
141969
66754.2
68100.1
109493
66244.9
66023.1
102539
100502
105126
106969
68810.9
101358
101922
110186
107307
103014
102639
103065
104209
163650
214380
68830.1
115805
121276
72935.8
104356
112042
102663
496670
260532
69532.8
93919.4
136392
104330
102031
103996
103453
182000
131075
138761
237979
141753
183198
166196
66354.8
68821.8
70798.9
107181
105626
67013
102532
101652
100072
100349
112232
69707.7
68154.6
68920.9
101390
98792.7
136860
101089
106919
102281
101267
101488
101171
99549.6
102823
109297
96130.1
71764.6
101322
57904.5
57602.5
55620.4
56363.1
103354
102275
668313
465793
148471
66214.1
74838.9
140964
284635
105314
105380
104957
68787.2
68406.3
101085
99744.8
100234
125399
109635
70651.4
101383
100663
106561
103427
100353
102661
105840
68180.2
68825.8
88316.7
66320.7
79162.7
105710
100718
99639.2
99564.3
100176
106039
155218
100265
106345
82580.9
79450.1
66737.9
100995
105962
100508
100216
104156
106139
78492.7
101886
103490
100106
100331
100238
103255
77325.3
103076
99816.9
100210
75904.6
102683
104759
148870
126488
143765
69947.1
70369.1
68597.9
69375.6
67580.6
68009.1
67207.1
67309.4
66926
67112.9
66678.9
66785.2
66536.9
66594
66430.4
66486.6
66334.6
66378.3
66201.5
66277.8
65953.6
66098.7
65521.6
65761
64902
65235.1
64117.8
64525.2
63270.5
63694.9
62474
62858.9
61832.9
62128.7
61405.6
61592.1
61168.1
61267.9
61030.7
61093.1
60899
60970.1
60696.2
60809.6
60368.8
60551.1
59878.7
60143.6
59254.9
59579.5
58569.9
58914.4
58230.5
56359.8
55067.3
55617
54628.5
54726.7
55246.1
54797.2
56918
55965.7
59324.5
58077.1
61465.3
60513.5
62006.1
62006.5
60512.2
61464.3
58076.7
59323.4
55967
56918.4
54799.7
55248
54729.8
54631.3
55070.5
57603.3
58222.9
57901.5
58891.3
58555.6
59532
59220
60064.7
59816.5
60432
60269.1
60656.2
60558.9
60796.4
60732.2
60926.3
60857.6
61125.4
61012.5
61470.7
61275.6
62011.3
61716.3
62727.9
62351.1
63551.8
63131.9
64387
63974.6
65122.9
64774.6
65672.4
65422.4
66027.5
65874.1
66221.2
66139.6
66344.4
66284.8
66509.8
66421.6
66708.7
66602.7
66904.6
66811.6
67059.6
66984.4
67223.6
67134.2
67540.3
67354
67815.2
104428
103260
103827
102197
102721
101255
101706
100477
100843
99911.4
100167
99504.4
99555.7
99708.3
99994
99515
99786.5
99628.8
100233
99988.6
100810
100513
101445
101129
101749
103801
105399
104707
108304
106566
114424
110809
130664
120279
197974
151462
311565
207863
149519
206245
152888
105066
104958
105023
105809
105264
107515
106548
110824
108860
117872
113652
135601
124514
187706
154415
107468
67261.9
69731.1
106276
67445.2
67061.9
102001
100173
108325
69462.2
100064
116604
113772
101020
109456
101622
100950
101031
90057.5
113155
74209.6
100076
104940
88158.5
2.66679e+07
85117.2
114201
1.29407e+06
57330.9
57334.2
100887
100990
104559
485926
252906
151497
165676
355016
164250
239425
207491
652502
425292
67135.3
70603.1
73126.4
138358
186061
130350
196711
104692
103692
68278.4
101227
99777.2
100017
141308
113848
70832.3
69128.1
69980.5
100170
5.14533e+07
121252
113743
97958.5
96799.2
100268
446961
108918
100611
101649
100033
1.16606e+06
100573
107550
69173.2
69701.1
69623.7
826711
175840
105771
97744
105949
67211.8
77620.1
110351
107558
99294.8
107868
120921
103201
891338
69795.5
100756
99519.8
99900.6
111330
83548.6
108126
140347
72427.3
100190
99442.2
98901.1
98828.8
99891.4
97316.5
96796
214170
108641
1.22596e+07
1.45966e+07
113991
82332.3
99817.8
67529.7
91796.7
92153.1
100342
81135.7
108009
137541
131311
71593.5
71352.5
100511
99420.5
99858.7
99022
99330.9
99295.4
88945.7
105161
95223.1
101191
108331
99086.7
81678
101426
84677.1
105838
68164.6
147725
116469
1.82787e+07
108146
104000
100362
99468.5
99424.7
99829.4
99413.3
108629
103632
80833.3
103204
98435.8
100221
99810.5
103045
79565.2
77616
98906.1
99912.6
99804.9
1.06082e+06
134703
143412
120879
127871
105363
107803
113987
72959.1
73383.5
71131.4
72173.3
69623.8
70289.3
68754.3
69123.3
68406.8
68527.2
68160.9
68303.3
67920.8
68030.5
67743.2
67822.1
67572.4
67661.7
67411.1
67487.7
67225.8
67325.5
66940.9
67102.6
66490.3
66737
65865.1
66198.7
65089.3
65491.4
64260
64674.1
63492.8
63861.5
62893.3
63166.7
62520.7
62678
62351.3
62415.4
62293.2
62315.1
62244.1
62273.2
62120.5
62196.3
61848
62007.1
61392.7
61643.1
60787.2
61104.3
60104.3
60451.4
59411.2
59754.1
58780.2
59083.6
58502.2
56173.3
57096.3
54984
55481
54649.4
54696.8
55356.9
54867.3
57065.6
56102.9
59433.9
58214.1
61504.7
60587.1
62023.8
62024.2
60586.2
61503.8
58214
59433.2
56104.4
57066.2
54870.1
55359.1
54700.5
54652.7
55485.4
54988.1
57100.7
56178.1
58505.5
59084.1
58783.2
59744.1
59407.3
60424.7
60087.1
61051.5
60749.1
61552.5
61322.6
61874.6
61738.1
62026.9
61967.8
62087
62063
62139.9
62109.1
62269
62189.7
62553.7
62387.7
63040.8
62771.3
63715.2
63357.9
64509.4
64102.9
65327.3
64921.9
66057.5
65711.2
66611.5
66358
66986.8
66819.9
67227
67118.5
67427.4
67327.5
67678.6
67546.9
67938.8
67808
68175.8
68062.4
68361.6
68277.5
68501.7
68433.2
68703.9
68586
68875.8
104434
104912
103306
103859
102263
102776
101331
101776
100555
100922
99961.8
100233
99545
99733.9
99389.4
99163
99014
99567.6
99348.4
100058
99807.2
100532
100307
100731
101033
103662
102334
104327
106133
105336
109382
107420
115990
112111
134513
122537
213246
158984
335129
699385
88123.9
186279
285896
183746
105884
105680
106520
106071
108091
107145
111959
109613
121009
115491
145338
130004
218019
172025
295802
68140.2
71781.1
194635
133626
104010
69047
68467
101532
99862.5
82289.2
81885.3
133252
120780
105254
248880
737795
105378
106612
114350
4.30599e+07
97322
70581.4
99063
82919.4
117638
95496.7
100300
90043.2
111563
100794
100040
100074
98910.9
99925.4
211228
175281
110346
5.0157e+07
147206
117728
340620
104834
83882.5
145622
70326.3
142901
105608
814280
959017
359721
574181
203173
281728
105872
68291.9
71480.3
72510.9
75597.3
105073
101214
110279
116622
102778
95132
97678.1
99588.1
266809
96800.2
69918.9
100839
99521.1
99708.9
98928.8
98444.9
98329.5
98853.5
83865.6
81568.6
156266
143941
126235
111333
130651
137565
70876.3
72700.9
70670.1
71695.9
99186.1
98804.2
2.3734e+07
106128
126071
97312.6
96269.7
93502.3
101768
99916.3
87327.9
97705.7
111320
111393
84631.1
114405
99813.6
101400
2.85034e+06
89978.2
99486.5
99048
644987
1.10146e+06
61994.3
61708.9
56900.2
58253.5
99704.4
100916
99559.7
160508
178496
190620
227076
68654.5
93027.6
90689.6
98493.1
80084.1
103443
97376.3
110470
125524
101215
71416.2
118195
101182
100497
99351.1
99588
99268.2
91171.9
83888.2
133511
106656
166172
136794
239791
75192.4
99155.4
99407.6
85930.2
91742.1
99440.6
110884
117560
84174.2
926877
112081
88772.3
256855
69207.8
90307.2
98105
83388.7
102473
100982
95456.4
110498
136094
104808
72851.9
100336
99329.1
99523.6
99413.9
89944.5
142841
104241
89663.2
154897
160959
116762
110589
83800.6
203454
70001.2
87719.9
97845.8
103428
74677.4
74392.5
97007
100238
99377.5
99493.5
151740
103091
131195
83270.4
81581.8
97711.1
100128
99510
102909
89576.2
2.14864e+06
272120
9.6077e+06
101742
153376
128276
137197
111778
119541
97904.9
99710.6
105224
75998.2
77324.5
74939.8
76112.9
72943.1
73855.8
71636.6
72210
70885.1
71188.5
70582
70696.6
70368.8
70480.9
70123.9
70246.6
69884.3
70004.3
69619.1
69756.7
69365.5
69486.8
69110.6
69241.2
68780.6
68962.1
68309.3
68563.7
67685.1
68014.8
66935.6
67321.8
66153.7
66541.3
65455.3
65787
64945.7
65171.6
64682.8
64782.9
64640.9
64639.1
64725.1
64674.4
64823.6
64779
64838.1
64847
64686.2
64786.7
64339.3
64535.7
63836.3
64103.6
63236.8
63545
62602.2
62919.5
62292.4
58252
56030.8
56896.7
54940.9
55389.7
54698.4
54702.4
55474.9
54955.4
57197.2
56236.4
59503.4
58322.3
61485
60610.1
61976.9
61977.2
60609.5
61484.4
58322.4
59503
56237.9
57197.9
54958.2
55477.1
54706.4
54701.8
55394.6
54945.5
56035.8
61709.9
62291.7
61996
62906.9
62596.4
63513
63215.5
64042.5
63791.1
64435.2
64259.7
64641.4
64563.4
64663.8
64672
64580.2
64628.9
64489.8
64529.9
64485.2
64471.3
64648.6
64541.7
65028.8
64810.8
65613.3
65298.8
66337
65963
67107.8
66723
67811.4
67475.9
68356.2
68106
68744.5
68566.4
69038.8
68897.6
69334.8
69183.4
69695.6
69508.5
70054.3
69877.8
70364.8
70218.2
70605.9
70495.2
70772.2
70697.5
70913.3
70839.8
71158.2
71008.3
71863.6
71475.8
104363
104902
103266
103809
102236
102742
101312
101753
100525
100898
99875.8
100184
99329.4
99592.6
98830.6
99096.1
98590.5
98243.5
98813.7
98780.9
98195.1
98196.3
98153.9
98182.6
98231.2
98171.6
98447.7
98324.4
98781.4
98601.8
99171.9
98975.1
99509.5
99354.5
99707.5
99631.1
99731.3
104190
102328
105051
106798
105995
110067
108092
117223
112919
139643
124815
247623
172048
422141
1.62435e+06
8.09049e+07
170922
428562
238128
106691
106568
106687
106726
106658
107064
106804
108535
107575
113048
110259
124727
117483
159071
137128
268843
198193
400232
69490.5
73896.2
103134
113143
102350
6.20633e+06
189275
71015.3
70257.4
95884.9
99581.4
98803.7
81641.6
116669
119321
124041
130993
123865
130734
1.63712e+06
111702
102070
98417.3
72378
71021.3
72422.7
98259.3
6.46115e+07
105418
121647
95020.6
1.64015e+07
91807
114362
125437
100243
100046
174532
165611
99391.1
2.05205e+06
5.77088e+07
121974
93909.8
596321
121214
78498.8
289096
61438.4
61437.2
73319.2
99441.9
138216
1.84543e+06
613815
197991
1.05966e+06
278193
447574
69967.6
866083
96890.2
73516.2
74488.4
78068.5
101792
99004.4
113322
120767
101181
101052
83831
9.2806e+07
71780.4
100814
100512
99318.4
99429.5
99259
84964.5
82130
120042
108989
150291
125527
264389
88644.2
72751.7
75577.1
72933.4
74245.8
98349.6
99399.4
99295.5
99344.7
3.0711e+07
130763
96808.2
95903
93358.4
996202
1.902e+06
100662
98829.3
99192.7
111448
100750
113872
93622
86121.6
99494.4
99673
114962
99214.2
281364
260717
93542.7
214925
1.89244e+07
327176
107044
105728
105982
70566.5
91266.2
96507.3
82187
99837.7
95331.1
95141.6
95885.5
91636.3
113275
129824
105991
108142
4.35365e+07
126055
73052.5
100277
99236
99307.5
99433
99411.7
93010.7
85281.7
124379
105215
83044.3
168722
185104
9.41682e+06
94911.1
90145.6
84564.8
82895.5
78924.6
98179.1
99856.9
100277
84117
91987.5
98952.2
113368
393638
86107.1
179866
159975
82771.3
360277
72216.5
71298.5
88699.4
96451.5
85871.2
97151
94121.4
113199
4.07834e+07
164979
103822
97872.1
74501.4
109610
100174
99279.4
99238.8
99381.6
91082.3
129820
103323
137809
137477
480207
4.81745e+06
96159.1
75854.8
86134.4
85217.9
96435.1
100125
99206
102614
113926
3.96128e+06
4.25255e+06
163776
172240
141459
152999
120661
130373
106160
112588
101468
87501.9
83920
85388.8
81472.7
82630.5
79647.4
80460.2
78449.1
78985.4
77765.1
78039.6
77449.3
77584.2
77179.4
77325.7
76798.1
77004.5
76329.3
76571.5
75814.2
76073.5
75347.2
75569.2
74942.4
75139.3
74525.6
74742.6
74035.2
74291
73462.3
73756.7
72840.3
73153.7
72256.9
72536.6
71825.3
72015.2
71646.9
71699.4
71773.7
71672.3
72167.5
71943.1
72714.6
72430.6
73277.8
73002.4
73732.5
73525.9
73983.1
73886.6
74012.2
74023.2
73864.2
73956.9
73592.3
73740.5
73253.7
73427.7
72885.6
73073.7
72485.7
72687.7
72294.8
58030.4
61190.8
55927.9
56730.8
54935.8
55339
54766.3
54736.6
55588.6
55051
57301.5
56354.1
59525
58392
61402.4
60577
61863.5
61863.7
60576.5
61401.9
58392.1
59524.8
56355.6
57302.4
55053.8
55590.6
54740.9
54769.8
55343.4
54940.3
56732.5
55931.6
61188.2
58029.5
72292.7
72684.3
72481.7
73068.2
72882.6
73406
73241.5
73693.6
73559.1
73874.7
73801
73895.2
73908.3
73708
73829.7
73305.7
73530.8
72766.9
73045.9
72211.6
72483.9
71754.8
71964.2
71495.9
71595.4
71496.6
71462.3
71751.3
71595.2
72205.2
71958
72773.9
72482.3
73340.5
73065.2
73802.8
73588.5
74172.1
73991.7
74554.8
74357.2
75034.3
74780.3
75636.8
75324.4
76275.8
75956.5
76895.5
76593.9
77446.3
77184.5
77863
77679.5
78127.7
78016.4
78209
78192.6
78389.2
78240.6
79178.9
78643.8
80055.7
104912
105227
104101
104549
103124
103624
102122
102619
101181
101636
100338
100747
99591
99950.7
98972.9
99266.5
98393.9
98703.9
97957.8
98151.5
97724.4
97821.1
97625.1
97660.2
97597.3
97602.3
97663.9
97615.2
97847.4
97741.3
98130.9
97979.8
98440.8
98288.5
98680.9
98574.3
98786.5
98753.7
98714.7
98772.4
98584.1
98613.5
98780.5
101049
99696.1
104347
102536
126172
105486
106502
120169
108319
107079
112873
110237
121515
116429
146489
129628
289293
186770
1.18354e+06
547192
3.44327e+06
2.68486e+07
133161
226003
716281
348291
107551
107322
108009
107802
108608
108261
110835
109323
116703
113292
130111
121739
175752
145916
338718
231068
556683
71447.8
98829.4
76126.7
100415
103766
92648.8
91057.3
116717
100993
100523
117022
73328.2
72309.1
100601
99341.8
99267.6
82477
112919
140151
106601
129346
128799
115074
150353
158115
133222
141674
117754
125142
106441
111591
99884.5
102390
99049.5
88768.7
88462.9
72382.4
75185
97595.7
99400.5
90300.9
125987
94756.9
3.78549e+06
157794
133974
111909
100123
98466.6
416844
99015
95392
117326
87399.7
262071
195821
189798
78551.1
94307.3
148211
1.40491e+07
99506.3
3.33715e+07
2.76397e+06
124173
81168.5
432766
289055
172462
94815.8
220380
3.34705e+07
125187
3.63063e+06
1.17348e+06
417982
271871
139883
447505
974897
103668
103876
72241.3
92564.6
95099.7
75278.7
76497.1
80310.4
98828.6
96684.3
85201
88553.7
116496
124661
1.65607e+06
115772
100360
99572.5
3.88155e+07
126970
73540.6
110592
100961
132581
100361
100234
99171.6
99188.8
99483.2
86773.2
83609.4
114608
106794
183936
236764
183766
175107
88753.5
193493
166701
137446
201636
172666
205424
79977.2
76335.3
81930.8
74598.6
74492.4
79411
75991.9
77656.5
97566.8
99815.5
99626.1
99702
94619.6
135014
96346.7
95597.6
93421.1
98607.8
105247
116554
90553.6
149020
82775.1
681215
170062
118862
119014
60976.2
72136.1
98070
98315.3
2.6571e+06
74617.5
148610
84744.6
72966.7
89529.2
95014.8
83909.6
96578.6
93149.7
90954.1
116217
128223
132547
107417
104534
98453.5
5.61024e+06
74934.8
93726.8
100063
99163.4
99063.2
99424.3
94759.3
87190.7
117003
103835
128156
160712
143608
99352
168680
155089
591212
326034
77210.6
81583.9
1.51758e+06
3.0133e+06
83047.4
97170.1
100048
99262.2
102907
144444
92101
98686.3
85774.5
73751
86723.2
95042.7
93824.7
168443
116169
259887
9.20946e+06
76186.9
87979
87692.3
94991.8
100018
99281.3
98955.8
91954.5
120567
102464
121873
154698
100659
107022
107175
7.82505e+06
8.57295e+06
7.60709e+06
104153
112185
99551
98059.9
124195
121297
155279
854179
1.1175e+06
138260
135115
138601
231352
204335
214622
175795
190719
149303
161610
132181
139447
125196
128365
116203
120203
119265
115693
83958.1
118888
109237
3.31013e+06
122707
122583
121865
123337
116139
118794
112534
114155
110231
111220
108845
109423
108115
108431
107542
107809
106815
107218
105738
106319
104405
105091
103055
103712
101970
102467
101202
101552
100634
100898
100207
100404
99968.1
100059
99967.7
99935.4
100282
100080
100998
100584
102192
101533
103873
102976
105933
104866
108174
107045
110369
109291
112326
111387
113926
113172
115193
114596
116218
115730
117081
116666
117839
117472
118458
118172
118685
72133.6