/*--------------------------------*- C++ -*----------------------------------*\
| =========                 |                                                 |
| \\      /  F ield         | OpenFOAM: The Open Source CFD Toolbox           |
|  \\    /   O peration     | Version:  2212                                  |
|   \\  /    A nd           | Website:  www.openfoam.com                      |
|    \\/     M anipulation  |                                                 |
\*---------------------------------------------------------------------------*/
FoamFile
{
    version     2.0;
    format      ascii;
    arch        "LSB;label=32;scalar=64";
    class       volVectorField;
    location    "0.01053";
    object      U;
}
// * * * * * * * * * * * * * * * * * * * * * * * * * * * * * * * * * * * * * //

dimensions      [0 1 -1 0 0 0 0];

internalField   nonuniform List<vector> 
2681
(
(41.359 -54.6196 -1.92309e-18)
(-8.8985 -3.7245 0)
(-12.14 0.0218478 -2.90505e-18)
(-0.663182 -0.422826 -8.59236e-18)
(-5.43947 2.76879 2.022e-18)
(10.254 -2.3636 5.02997e-18)
(0.117014 -0.0939085 -2.13705e-18)
(0.644409 -0.445222 2.77808e-19)
(0.778321 -0.608893 5.50693e-19)
(0.892136 -0.732105 -1.38741e-19)
(-0.561616 -0.378602 0)
(-1.68343 -2.13695 -1.47199e-19)
(-1.54607 -1.78441 -1.42948e-19)
(27.5713 -46.1173 0)
(-2.32062 -3.02415 -6.52964e-19)
(3.59225 -4.7807 1.06821e-18)
(11.9397 -18.3933 0)
(-0.726909 -0.516178 -6.84874e-19)
(-0.823437 -0.590642 3.03504e-18)
(-0.911911 -0.685277 -3.50406e-18)
(-1.11989 -0.983162 -1.12828e-17)
(-1.65265 -1.66381 8.3042e-19)
(-1.46274 -1.37369 -3.3201e-18)
(-1.2952 -1.15794 2.23813e-18)
(-2.08514 -2.53421 -1.24311e-18)
(-1.86097 -2.03014 0)
(-0.62103 -0.475978 -2.60088e-18)
(-0.483284 -0.336166 2.43692e-19)
(-0.582314 -0.410215 1.10762e-18)
(-0.816316 -0.679439 1.32825e-18)
(-0.721082 -0.557391 -6.27666e-19)
(-1.00905 -0.86687 1.30119e-18)
(-0.915395 -0.774843 -1.13654e-18)
(-1.25489 -1.25356 5.75992e-19)
(-1.13082 -1.05353 0)
(-1.39962 -1.49663 -8.51287e-19)
(1.54497 -1.59656 2.15321e-18)
(1.77852 -1.91178 2.57794e-19)
(2.00789 -2.31052 -5.13901e-19)
(1.64303 -2.0359 -5.21841e-19)
(1.76271 -2.43544 9.5909e-19)
(1.36017 -1.37728 0)
(1.50752 -1.68037 -2.72344e-19)
(1.13362 -1.0598 0)
(1.24479 -1.21937 0)
(0.0845984 -6.26586 0)
(1.00737 -0.874503 1.40446e-19)
(0.670505 -0.505037 -1.09493e-18)
(-0.402685 -0.270842 0)
(0.485803 -0.347621 -2.78274e-19)
(0.571859 -0.417952 1.80408e-22)
(2.2662 -2.85789 2.0513e-18)
(7.34454 -12.2149 1.51428e-19)
(0.721596 -0.464912 -2.77e-19)
(0.60485 -0.383503 5.64273e-19)
(-1.28339 -1.57517 1.43669e-19)
(-1.37746 -1.8538 -4.28984e-19)
(-0.421597 -0.293056 -2.89522e-19)
(0.413685 -0.292292 0)
(0.432165 -0.321091 5.52072e-19)
(0.371864 -0.27158 1.38261e-19)
(-0.951067 -0.662493 0)
(-0.823133 -0.548185 2.43276e-18)
(-1.23878 -0.933909 2.89076e-18)
(-1.08927 -0.812435 -4.95609e-19)
(-1.72017 -1.49789 -8.36737e-22)
(-1.50134 -1.19827 0)
(-2.30132 -2.34231 0)
(-1.98315 -1.87455 5.31532e-19)
(-0.161444 -0.0743846 0)
(-2.56107 -2.9751 1.09596e-18)
(2.50617 -2.6788 2.50808e-19)
(2.93547 -3.53511 -9.04141e-19)
(1.74931 -1.53739 -1.60992e-18)
(2.15041 -2.04346 -4.83383e-19)
(-1.79689 -2.52148 5.93774e-19)
(-0.0930574 -0.0529587 0)
(26.677 -41.6673 7.40953e-18)
(-8.91353 -0.33616 4.89174e-18)
(-0.551984 -0.432959 1.19392e-18)
(-0.430315 -0.3221 -6.64947e-19)
(-0.497644 -0.375801 1.68951e-18)
(-0.706329 -0.600792 0)
(-0.630575 -0.507975 1.23865e-18)
(-0.872666 -0.812419 1.24714e-18)
(-0.778291 -0.696005 -1.20029e-19)
(-1.07514 -1.13485 0)
(-0.975951 -0.964087 -5.97108e-19)
(-1.18328 -1.33866 8.59999e-19)
(1.34736 -1.73166 0)
(1.35805 -1.98149 0)
(1.1387 -1.26313 1.15076e-18)
(1.24389 -1.49096 -1.13042e-18)
(0.96392 -0.939792 2.90416e-19)
(1.03435 -1.08474 0)
(0.777395 -0.669044 0)
(0.874619 -0.795421 -2.82072e-19)
(0.587973 -0.463289 0)
(0.681394 -0.558065 0)
(0.504698 -0.384483 5.48651e-19)
(0.506798 -0.320603 -7.07667e-20)
(0.458776 -0.307943 7.06698e-20)
(-1.46105 -2.15196 5.6562e-19)
(-3.47969 -4.82974 4.60593e-18)
(-2.61588 -3.68469 0)
(2.499 -3.63866 -2.07562e-18)
(-0.371134 -0.273504 0)
(0.383383 -0.293861 -1.37051e-19)
(0.333828 -0.250198 -6.85018e-19)
(-4.79456 -5.89906 -6.74506e-18)
(-7.5048 -10.2339 4.43352e-18)
(-4.44345 -6.92895 0)
(4.24002 -6.98536 0)
(1.21311 -1.93185 -1.97451e-18)
(1.54525 -2.5886 4.41499e-18)
(1.24674 -2.16962 4.87606e-18)
(0.557738 -0.324494 -5.62014e-19)
(0.425936 -0.27139 1.14236e-18)
(0.46526 -0.273626 5.73013e-19)
(-1.27344 -3.24962 -2.20852e-18)
(-27.4119 -41.9696 1.33284e-18)
(5.64612 -7.0753 -3.05459e-19)
(4.21032 7.17133 -1.01544e-17)
(-1.56624 -2.52034 1.11794e-18)
(-1.97866 -3.0295 -1.17101e-18)
(1.83909 -2.82917 0)
(-0.319071 -0.240247 0)
(-11.9196 -0.849132 7.32611e-18)
(-0.359458 -0.256301 4.91647e-20)
(8.95187 -64.288 0)
(27.6466 -47.991 2.30391e-18)
(-0.745489 -0.452922 3.17621e-18)
(-0.629748 -0.376133 -1.03288e-18)
(-1.06733 -0.674595 -2.6523e-19)
(-0.899869 -0.540607 2.71522e-19)
(-1.45622 -1.04315 -1.52011e-18)
(-1.25635 -0.822625 5.17762e-19)
(-2.03747 -1.63524 0)
(-1.7168 -1.28012 1.01948e-18)
(-2.98119 -2.89654 5.08076e-19)
(-2.43904 -2.12744 5.81108e-19)
(-3.64717 -4.06969 9.59664e-19)
(3.21458 -3.26839 2.4995e-19)
(4.06799 -4.6966 -6.02646e-19)
(2.16696 -1.85275 1.21899e-19)
(2.60331 -2.397 1.69101e-22)
(15.1308 -21.8906 1.13215e-18)
(0.543428 -0.368606 2.82065e-19)
(-1.54288 -34.4875 2.38909e-17)
(0.802937 -0.474625 -2.73812e-19)
(0.670083 -0.390964 0)
(-0.378529 -0.290747 1.36171e-19)
(-0.283348 -0.220641 1.03628e-18)
(-0.328987 -0.24918 0)
(-0.483813 -0.391211 -5.94777e-19)
(-0.430307 -0.338452 -1.11795e-18)
(-0.61014 -0.541149 3.057e-19)
(-0.546005 -0.460063 -3.01075e-19)
(-0.752159 -0.731438 -6.02427e-19)
(-0.67615 -0.628212 5.73719e-19)
(-0.912822 -1.00923 0)
(-0.835717 -0.861606 -2.95752e-19)
(-1.07013 -1.37395 0)
(-0.999077 -1.18095 -2.84958e-19)
(-1.19585 -1.83655 -5.53154e-19)
(-1.13806 -1.59342 0)
(-27.4669 -46.4681 0)
(-1.25512 -2.12769 1.07364e-18)
(1.1091 -1.49377 -5.71468e-19)
(1.1709 -1.74168 1.241e-18)
(0.962885 -1.1137 -5.67826e-19)
(1.0404 -1.29725 1.14545e-18)
(0.818766 -0.839464 -2.84624e-19)
(0.885489 -0.965124 0)
(0.668526 -0.602017 6.81362e-20)
(0.748478 -0.714353 0)
(0.512176 -0.41896 -1.08595e-18)
(0.590276 -0.503553 6.11286e-19)
(0.443051 -0.349455 5.46848e-19)
(0.353671 -0.249928 4.20461e-19)
(0.291961 -0.216319 1.35868e-18)
(0.321428 -0.233353 1.37446e-19)
(0.388598 -0.261674 -5.65048e-19)
(0.0835194 -0.0596366 2.37622e-18)
(-0.399054 -0.235038 -3.33811e-18)
(-0.426898 -0.208378 -6.7539e-18)
(10.3982 -12.3116 -8.81474e-19)
(-11.6751 -18.41 -2.33076e-18)
(-17.4716 -30.8317 1.0977e-18)
(-3.02224 -4.90395 2.39898e-18)
(-1.66969 -2.99366 -3.34684e-18)
(2.7772 -4.74529 0)
(-0.245398 -0.186532 1.94216e-18)
(1.59409 -3.00627 -2.18502e-18)
(1.27971 -2.50602 2.21531e-18)
(0.61104 -0.322559 5.59654e-19)
(0.506887 -0.269959 -7.08641e-19)
(-5.83874 -10.6678 1.16976e-18)
(5.61453 -9.64915 2.43172e-18)
(-0.274275 -0.212341 0)
(-0.247262 -0.190831 -5.15471e-19)
(0.0530957 -1.82994 3.15987e-21)
(0.0556513 -1.7836 -4.19078e-21)
(-0.123745 -1.77063 -3.40644e-20)
(-0.0976696 -1.82144 3.39476e-20)
(0.255906 -0.189715 -5.40442e-19)
(0.265183 -0.197919 -5.37812e-19)
(0.234243 -0.173253 0)
(-1.07355 -2.4579 5.3957e-18)
(-22.0912 -29.4899 0)
(0.104352 -0.075786 -2.54008e-18)
(-0.369442 -0.23378 1.09092e-18)
(11.3841 -78.7606 -1.02233e-17)
(-0.766248 -5.81484 6.86963e-18)
(2.85699 -0.346549 -2.81935e-18)
(-2.18732 -3.73907 0)
(2.10037 -3.61627 0)
(-8.50418 -4.13103 1.14487e-17)
(-0.306053 -0.223785 -1.11588e-18)
(-34.3109 -47.9262 4.45274e-18)
(-0.57804 -0.317876 -1.03371e-18)
(-0.484683 -0.267571 1.05244e-18)
(-0.83485 -0.456102 0)
(-0.694281 -0.377894 1.04169e-18)
(-1.19579 -0.689583 2.60398e-19)
(-1.00255 -0.559433 -5.26045e-19)
(-1.67597 -1.07111 5.11776e-19)
(-1.41559 -0.856214 -7.08747e-22)
(-2.42611 -1.79745 0)
(-2.00224 -1.36614 -2.53903e-19)
(-3.89221 -3.51042 0)
(-3.01992 -2.45017 -6.36835e-20)
(-7.91902 -9.02981 -1.00449e-18)
(-5.40259 -5.33876 0)
(-13.4765 -16.369 -5.60591e-19)
(4.46636 -4.3026 4.98986e-19)
(6.27944 -6.94251 7.42763e-19)
(2.64844 -2.04076 -6.1253e-19)
(3.34333 -2.86195 -4.8904e-19)
(1.80847 -1.17435 1.27433e-19)
(2.16054 -1.52609 3.11355e-19)
(1.27155 -0.7322 -6.57707e-20)
(1.51464 -0.920339 0)
(0.88746 -0.480012 -5.26447e-19)
(1.06442 -0.591254 6.72482e-19)
(0.737299 -0.391204 0)
(0.0633866 -1.57231 1.04953e-21)
(0.0828577 -1.17671 -1.04868e-21)
(0.12557 -0.463937 -1.63378e-20)
(0.200452 0.719128 5.04046e-20)
(0.317542 2.70012 -2.46989e-20)
(0.44544 5.93584 -3.99931e-21)
(0.480101 10.9863 -7.04544e-20)
(0.0840661 17.969 -1.28145e-19)
(-0.805516 23.1965 -4.02245e-21)
(-1.39225 23.869 -6.49841e-20)
(0.544678 24.2306 0)
(-1.76701 22.0731 1.28507e-19)
(-2.06059 18.9282 4.44748e-19)
(0.420774 19.1553 7.56694e-19)
(0.567003 22.4923 -2.56002e-19)
(-0.444541 17.9862 1.36893e-19)
(0.414659 23.4116 2.58339e-19)
(-0.740391 5.94358 2.51278e-20)
(-0.78571 10.9825 0)
(-0.430365 0.742643 1.65819e-20)
(-0.574026 2.72094 2.7068e-23)
(-0.227341 -1.15558 1.79077e-20)
(-0.315061 -0.440416 -3.77308e-20)
(-0.165681 -1.55477 -1.04944e-21)
(-0.336101 -0.260825 0)
(-0.297401 -0.22332 0)
(-0.424255 -0.34866 5.803e-19)
(-0.378603 -0.301829 0)
(-0.526798 -0.4767 -2.97649e-19)
(-0.474385 -0.407325 -2.94307e-19)
(-0.643782 -0.645378 2.99718e-19)
(-0.584443 -0.554014 -2.62518e-19)
(-0.771567 -0.883952 -5.76154e-19)
(-0.713826 -0.757837 -2.91802e-19)
(-0.891099 -1.18803 0)
(-0.839202 -1.02958 5.65021e-19)
(-0.979546 -1.56155 -5.41997e-19)
(-0.942934 -1.36767 2.75156e-19)
(16.306 -73.4475 1.04155e-17)
(-1.00714 -1.78329 7.32654e-19)
(-0.965959 -2.24841 1.18704e-19)
(1.01642 -2.13356 0)
(1.30828 -2.88442 -8.56959e-18)
(0.961677 -2.67244 -8.58043e-18)
(1.01679 -2.40947 -1.92252e-18)
(0.972894 -1.64535 5.88823e-19)
(1.00173 -1.86488 0)
(0.928397 -1.29462 -5.72807e-19)
(0.9639 -1.47555 -2.94611e-19)
(0.816895 -0.977402 -2.82071e-19)
(0.876926 -1.12892 5.65345e-19)
(0.697546 -0.734614 8.32775e-19)
(0.757651 -0.847496 0)
(0.572629 -0.53192 4.75852e-19)
(0.638674 -0.628657 -2.75216e-19)
(0.444531 -0.373527 -5.40966e-19)
(0.507812 -0.44659 -5.94332e-19)
(0.340106 -0.265595 1.36014e-19)
(0.388121 -0.313297 2.71569e-19)
(0.299893 -0.227793 1.35709e-19)
(0.304227 -0.217747 -5.59598e-19)
(0.279302 -0.204175 -5.4872e-19)
(0.359748 -0.233323 -1.78533e-18)
(0.331089 -0.226702 6.35506e-19)
(0.421882 -0.230569 5.74285e-19)
(0.389963 -0.234692 0)
(15.9259 -68.6782 0)
(-21.016 -76.1743 -5.04581e-18)
(-3.46865 -6.66454 -1.15401e-18)
(-1.73807 -3.54822 4.35386e-18)
(1.67645 -3.50808 -4.41117e-18)
(3.29707 -6.17425 -2.34585e-18)
(-0.21837 -0.176766 -4.87923e-19)
(-30.9151 -34.1621 4.38721e-18)
(0.0525478 -1.81047 4.19697e-21)
(-0.0831673 -1.8056 0)
(-0.229869 -0.185786 -2.25068e-18)
(-16.9101 -102.61 0)
(-2.99261 23.145 2.59886e-19)
(-3.65541 21.744 2.59364e-19)
(-8.05664 -17.5624 -4.8629e-18)
(0.47589 5.22545 2.84894e-18)
(1.27653 -3.38686 8.76694e-18)
(8.01828 -16.3808 2.47409e-18)
(-0.331657 -0.20375 1.15345e-18)
(-0.359333 -0.198028 3.82322e-18)
(0.192746 -1.80411 -1.67374e-20)
(0.0522892 -1.69212 -5.25657e-21)
(0.183751 -1.68673 3.3652e-20)
(0.22296 -0.169023 -3.3766e-20)
(0.204517 -0.153682 2.16389e-19)
(0.240659 -0.180255 -1.65235e-23)
(0.213494 -0.157159 0)
(0.76503 15.2038 7.23055e-19)
(-1.77456 15.1692 -4.89752e-19)
(-0.826385 -2.66861 1.52594e-18)
(-1.07854 -3.29606 1.67879e-18)
(-22.7288 -42.4461 0)
(17.8069 -30.3432 2.85088e-18)
(0.793241 -2.76733 1.25518e-18)
(1.09612 -3.28116 -7.18795e-18)
(1.09983 -4.88525 5.15316e-18)
(-31.3617 -47.1584 4.80975e-18)
(-30.3834 -50.1743 4.28427e-18)
(0.0181282 -0.0202562 -4.8525e-18)
(0.453947 -0.221843 -4.27637e-19)
(0.352652 -0.20027 -5.76388e-19)
(0.377207 -0.191518 5.77088e-19)
(-2.32661 -4.65387 -1.27066e-20)
(2.25805 -4.43791 2.24133e-18)
(-0.187046 -0.157656 1.07751e-18)
(-0.232705 -0.187744 -5.35512e-19)
(-0.208813 -0.171258 1.06505e-18)
(-0.284051 -0.20536 1.09655e-18)
(-0.258133 -0.197782 -5.1038e-19)
(-0.308518 -0.206049 -1.11739e-18)
(-0.630863 -0.309297 -5.12158e-19)
(-0.514699 -0.261861 4.82041e-19)
(-0.92466 -0.447576 0)
(-0.764809 -0.368273 5.18584e-19)
(-1.33628 -0.685516 -2.59604e-19)
(-1.11356 -0.548607 0)
(-1.92517 -1.10637 2.58314e-19)
(-1.5994 -0.861781 3.87647e-19)
(-2.96042 -1.99618 -1.27317e-19)
(-2.35126 -1.45337 -7.63121e-19)
(-5.46251 -4.57002 -1.03387e-18)
(-3.89649 -2.91308 8.94418e-19)
(-13.7451 -13.9735 9.91904e-19)
(-8.23727 -7.74095 -1.02978e-18)
(-23.1569 -25.3164 7.62333e-19)
(22.6027 -40.9999 -2.61138e-18)
(29.9277 -48.9775 -1.02584e-17)
(20.4121 -22.9369 -9.07337e-19)
(29.5305 -34.3346 7.25773e-19)
(6.74931 -6.18241 -9.8592e-19)
(11.4651 -11.5105 1.24388e-18)
(3.32303 -2.37303 0)
(4.53129 -3.63609 4.81841e-19)
(2.08903 -1.22632 1.27031e-19)
(2.58453 -1.65985 -6.23873e-20)
(1.41899 -0.733201 2.57979e-19)
(1.71345 -0.936672 0)
(0.97558 -0.469136 -1.68436e-20)
(1.17633 -0.581532 -2.62626e-19)
(0.665655 -0.315559 5.58194e-19)
(0.806395 -0.382002 -6.8072e-19)
(0.548813 -0.262752 4.22185e-19)
(0.235897 -1.758 0)
(0.207425 -1.81737 -1.7825e-20)
(0.38961 -1.08575 0)
(0.289797 -1.52253 0)
(0.820556 0.940156 5.27456e-22)
(0.55954 -0.313521 -5.23799e-22)
(1.54171 6.10577 -1.69512e-20)
(1.17102 2.96174 3.66498e-21)
(0.934372 16.6332 0)
(1.69335 10.6354 1.49507e-19)
(-1.41707 21.8209 -2.60674e-19)
(-0.225004 -1.7892 -3.36757e-20)
(-0.208215 -1.68016 -3.35865e-20)
(-0.0755969 -1.69017 9.44669e-21)
(0.324594 9.55894 2.59709e-18)
(2.85727 10.0364 1.65205e-18)
(-41.8168 -79.8527 4.274e-18)
(3.06641 19.1628 -1.14418e-18)
(2.49368 15.7198 -9.77588e-19)
(2.22721 23.5163 -2.61007e-19)
(2.90805 22.1846 0)
(-1.32405 16.6912 -1.31954e-19)
(0.799952 22.0632 -1.34461e-19)
(-1.7438 6.13542 -4.94083e-20)
(-1.90112 10.7216 -1.64057e-20)
(-1.01736 0.983468 -2.50253e-20)
(-1.38166 3.00246 5.05055e-20)
(-0.524798 -1.02446 -2.09777e-21)
(-0.729207 -0.254856 2.10471e-20)
(-0.305049 -1.71701 1.73726e-20)
(-0.390375 -1.4685 -1.5699e-20)
(-0.254272 -1.79081 3.3297e-20)
(-0.298867 -0.232494 -2.83156e-19)
(-0.265634 -0.206555 5.6104e-19)
(-0.371842 -0.306846 -1.44555e-19)
(-0.333801 -0.266318 -2.84472e-19)
(-0.455836 -0.415461 1.46327e-19)
(-0.412359 -0.356536 -7.29022e-20)
(-0.552112 -0.562179 -2.88113e-19)
(-0.502383 -0.482612 2.64238e-19)
(-0.652704 -0.759576 -2.85976e-19)
(-0.604475 -0.655255 0)
(-0.745962 -1.01209 0)
(-0.702726 -0.88037 0)
(-0.807051 -1.31093 -3.37134e-19)
(-0.781642 -1.1571 6.83893e-20)
(-0.827751 -1.65922 -5.1926e-19)
(-0.818507 -1.48154 -6.76051e-22)
(-0.820858 -2.01325 -1.604e-18)
(-0.805572 -1.86071 9.02633e-19)
(-0.799024 -2.86391 -5.82937e-19)
(-0.637712 -2.31818 5.57906e-19)
(-0.703081 -2.14223 0)
(0.726025 -2.96711 4.13498e-18)
(0.513634 -2.37306 -7.57934e-19)
(0.40033 -3.19128 2.64697e-18)
(0.287331 -2.59086 3.06873e-19)
(0.548997 -2.49183 1.1101e-18)
(0.812671 -2.11229 3.80863e-18)
(0.60851 -2.26004 1.15089e-18)
(0.816523 -1.76306 -1.5611e-18)
(0.751011 -1.93387 1.18068e-19)
(0.800341 -1.40064 1.40182e-18)
(0.810676 -1.57222 1.09683e-18)
(0.768828 -1.10646 -2.80792e-19)
(0.79075 -1.2544 -8.50209e-19)
(0.692352 -0.845152 2.78583e-19)
(0.734444 -0.970826 5.60523e-19)
(0.594622 -0.635786 -4.1221e-19)
(0.644996 -0.734197 6.92248e-19)
(0.489452 -0.462642 0)
(0.543804 -0.544823 -4.10091e-19)
(0.385691 -0.329295 0)
(0.4363 -0.390554 -1.69549e-20)
(0.302528 -0.23896 -3.38391e-19)
(0.340763 -0.278958 2.70415e-19)
(0.270268 -0.206851 1.34908e-19)
(0.261476 -0.193121 -1.7418e-20)
(0.241822 -0.181568 7.68044e-20)
(0.304729 -0.204744 4.99451e-19)
(0.282285 -0.199821 -4.83032e-19)
(0.328188 -0.204678 0)
(-0.0188735 -8.89774 -1.05074e-17)
(-35.3109 -59.3054 -1.11785e-17)
(-4.01676 19.2031 3.77956e-21)
(-4.19202 -9.48683 2.38673e-18)
(-1.75478 -4.34158 4.50448e-18)
(1.75455 -4.24141 0)
(4.10849 -9.02463 -7.24783e-18)
(-0.370593 -0.187993 -3.43787e-19)
(-0.48834 -14.0755 -2.49547e-17)
(-30.3986 -49.5754 -2.33565e-18)
(0.57651 -3.27735 -4.47858e-18)
(0.351654 -1.78246 3.36571e-20)
(0.334357 -1.67012 1.04993e-21)
(-0.155247 -0.138879 -1.37836e-18)
(-21.7024 -71.012 5.70361e-18)
(-0.179848 -0.136475 9.21218e-18)
(-0.162661 -0.127915 -1.40672e-22)
(-0.133576 -0.119322 0)
(0.185705 -0.140682 7.70668e-19)
(0.48567 -0.207674 -7.06522e-19)
(0.401289 -0.178557 2.02291e-22)
(-2.2157 11.1079 -3.70313e-18)
(34.9627 -49.605 4.3638e-18)
(32.3556 -53.7192 4.34596e-18)
(-0.161819 -10.569 5.35294e-18)
(0.100278 -0.0733588 0)
(-3.42669 21.5214 -5.28521e-19)
(-4.98274 21.0774 -1.31548e-21)
(-36.1551 -52.6205 4.71027e-18)
(-40.8058 -50.6008 2.00209e-18)
(-29.7205 -59.3835 4.4852e-18)
(-1.47751 -4.07459 -5.00099e-18)
(-12.903 -29.0849 0)
(13.1274 -28.1235 0)
(1.33843 -3.96776 0)
(30.9977 -50.9796 1.32069e-17)
(-0.385752 -1.75633 1.05013e-21)
(-0.36068 -1.65735 2.10019e-21)
(27.9721 -73.1689 5.37426e-18)
(1.56069 -5.0966 -1.94838e-18)
(2.89459 -0.136063 1.58235e-20)
(-30.8899 -55.6065 -4.43575e-18)
(-23.3888 -51.8189 0)
(-0.992518 -3.58675 -6.00274e-19)
(-0.544138 -2.47409 0)
(-0.682719 -3.09937 0)
(0.223271 -2.68816 1.14719e-18)
(0.278116 -3.3484 8.21062e-21)
(0.978925 -3.71961 4.52762e-18)
(23.8605 -48.4693 0)
(14.2373 -61.9529 -1.00887e-17)
(-3.8506 16.0257 -1.51495e-18)
(-0.0183341 -0.018127 1.81653e-17)
(-23.4264 -54.5901 9.55363e-18)
(-25.8458 -64.0704 6.43075e-18)
(-2.56413 -6.00166 -2.30946e-18)
(2.51468 -5.79155 0)
(-0.193883 -0.167219 1.09368e-22)
(-0.173814 -0.154205 -8.12703e-19)
(-0.235918 -0.181813 -5.47968e-19)
(-0.214835 -0.176925 4.22223e-21)
(-0.276089 -0.181169 0)
(-0.256155 -0.18412 5.62525e-19)
(-0.307573 -0.162445 0)
(-0.295639 -0.175552 -1.2195e-18)
(-0.33111 -0.152137 0)
(-0.485474 -0.213965 2.80706e-22)
(-0.396951 -0.176435 -3.23624e-19)
(-0.691753 -0.285242 0)
(-0.550614 -0.229207 -2.39725e-18)
(-1.01792 -0.43315 1.39262e-19)
(-0.838026 -0.351533 -1.38451e-19)
(-1.48585 -0.672972 -2.59809e-19)
(-1.23022 -0.53689 1.30294e-19)
(-2.21458 -1.12792 0)
(-1.80124 -0.860134 1.00855e-22)
(-3.70165 -2.24909 7.68174e-19)
(-2.79415 -1.5423 1.28327e-19)
(-8.0894 -6.0144 -1.64517e-20)
(-5.24315 -3.54788 -3.81831e-19)
(-23.4468 -20.6094 -1.03565e-18)
(-13.4806 -10.9622 0)
(-34.6565 -37.9794 1.38974e-18)
(-32.5543 -32.6607 7.05477e-19)
(-35.581 -38.8771 -3.73763e-18)
(33.7202 -42.6217 1.74258e-18)
(33.5753 -42.999 -3.59327e-18)
(31.2786 -32.002 0)
(34.9112 -39.4742 -1.60635e-18)
(11.2444 -8.90527 4.69539e-19)
(21.1055 -18.5673 0)
(4.32208 -2.75754 -2.45982e-19)
(6.57229 -4.69261 0)
(2.41791 -1.2632 0)
(3.12771 -1.79501 0)
(1.57371 -0.717371 5.14123e-19)
(1.93008 -0.934193 -5.08492e-19)
(1.06547 -0.451015 2.66656e-19)
(1.29176 -0.563572 1.293e-19)
(0.720025 -0.296317 -2.75811e-19)
(0.876295 -0.364671 -6.76129e-19)
(0.590616 -0.245725 5.57223e-19)
(0.432903 -1.69543 -1.47368e-20)
(0.3802 -1.7817 -3.14375e-20)
(0.696503 -0.902137 1.68491e-20)
(0.529898 -1.41327 2.09301e-20)
(1.36619 1.33682 0)
(0.967918 -0.0289055 -1.66795e-20)
(2.41155 6.41861 -3.3873e-20)
(1.88894 3.42082 -2.08797e-21)
(1.86692 14.7209 -1.3514e-19)
(2.60183 10.2975 -6.71886e-20)
(-0.580849 19.1031 3.98257e-19)
(0.0509944 -1.60054 0)
(-0.194765 -1.59221 3.15188e-20)
(-0.0714289 -1.60012 -2.30872e-20)
(0.62831 -3.95115 -2.44791e-18)
(0.318109 -1.5789 -2.09944e-21)
(0.17369 -1.59385 2.09818e-21)
(6.25018 6.74488 0)
(4.74444 3.72401 3.1162e-18)
(6.723 12.0815 -1.08925e-18)
(6.56614 9.35216 2.72388e-18)
(5.13883 18.6158 -9.13931e-19)
(5.39996 15.6518 1.32227e-18)
(2.3784 21.6896 1.34669e-19)
(4.03254 21.0647 1.30937e-19)
(-2.28906 15.0846 -1.32477e-19)
(-0.243341 19.5729 -3.7302e-21)
(-2.52663 6.47081 -6.76134e-20)
(-2.7988 10.5038 2.67578e-19)
(-1.50057 1.3849 -8.20767e-21)
(-2.004 3.45335 -8.2962e-21)
(-0.812162 -0.811396 -1.46498e-20)
(-1.10415 0.0500322 1.68682e-20)
(-0.499156 -1.62838 1.67601e-20)
(-0.620181 -1.3287 7.37641e-21)
(-0.426941 -1.73695 -1.68414e-20)
(-0.167983 -0.130691 4.20547e-18)
(-0.116332 -0.100321 2.41654e-18)
(-0.141131 -0.112156 -7.3672e-18)
(-0.21571 -0.149879 -3.22263e-19)
(-0.190354 -0.139243 -1.0407e-18)
(-0.26718 -0.202383 -1.26746e-19)
(-0.240082 -0.176182 4.42599e-19)
(-0.327243 -0.266319 7.21595e-20)
(-0.296079 -0.232127 -1.79532e-20)
(-0.395552 -0.356043 7.63614e-20)
(-0.359905 -0.307222 -3.94051e-24)
(-0.47266 -0.479033 -7.13143e-20)
(-0.43243 -0.412578 -8.91599e-21)
(-0.552204 -0.643966 4.22756e-19)
(-0.511574 -0.555933 1.42222e-19)
(-0.624972 -0.851393 1.37389e-19)
(-0.590131 -0.743633 -4.14813e-25)
(-0.670514 -1.09014 3.37615e-19)
(-0.650646 -0.967438 -4.09532e-19)
(-0.682718 -1.36103 6.57786e-20)
(-0.677074 -1.22295 -4.70075e-19)
(-0.633906 -1.63177 -1.8607e-18)
(-0.662887 -1.5047 3.95895e-19)
(-0.51973 -1.87059 -5.43382e-19)
(-0.576139 -1.74289 1.08143e-18)
(-0.450836 -2.62281 0)
(-0.36463 -2.09434 -5.37974e-19)
(-0.438368 -1.98983 5.41554e-19)
(-0.259039 -2.18419 0)
(-0.168712 -2.23389 -1.32429e-19)
(0.0932014 -2.81671 0)
(0.0719935 -2.2367 2.7096e-19)
(-0.0437452 -2.27622 0)
(0.269964 -2.07827 -3.56905e-20)
(0.177968 -2.16881 2.79549e-19)
(0.441837 -1.95794 0)
(0.406555 -2.02709 3.43387e-20)
(0.619148 -1.73129 7.9336e-19)
(0.512825 -1.81221 -1.34754e-19)
(0.651747 -1.44709 1.90643e-22)
(0.624731 -1.60585 5.16234e-19)
(0.660085 -1.16873 -2.74288e-19)
(0.661711 -1.30463 0)
(0.641892 -0.931076 2.78154e-19)
(0.655092 -1.04817 -5.56207e-19)
(0.58576 -0.717192 1.37584e-19)
(0.617637 -0.820432 1.38532e-19)
(0.507048 -0.540076 -6.82579e-19)
(0.548518 -0.624081 4.11708e-19)
(0.41976 -0.396042 -2.71063e-19)
(0.464264 -0.463923 4.08422e-19)
(0.336734 -0.287661 0)
(0.376763 -0.337191 0)
(0.271214 -0.21423 6.07782e-19)
(0.301445 -0.24696 -2.02439e-19)
(0.220272 -0.164183 2.69176e-23)
(0.245422 -0.18744 -2.69441e-19)
(0.163368 -0.116638 -9.53613e-19)
(0.198372 -0.141766 1.0462e-18)
(0.160518 -0.120776 7.74774e-19)
(0.141774 -0.1092 1.44518e-18)
(0.190905 -0.151437 6.78713e-20)
(0.175111 -0.137006 -3.82711e-19)
(0.223008 -0.173437 -3.47573e-20)
(0.206853 -0.163204 3.75699e-19)
(0.257553 -0.182459 -7.10043e-20)
(0.23976 -0.178952 5.60499e-19)
(0.295341 -0.176733 0)
(0.276071 -0.181327 7.15191e-20)
(0.332985 -0.156599 5.23665e-19)
(0.314502 -0.168137 -5.40863e-19)
(0.320982 -11.4464 -5.13402e-18)
(-1.95478 6.41382 -4.18361e-18)
(1.84873 -1.4041 -9.78153e-19)
(-47.8523 -49.0752 9.0582e-18)
(-5.87316 19.0821 -5.19709e-19)
(-15.8746 -84.8473 9.42982e-18)
(-26.2269 -62.1784 -5.1788e-18)
(-21.0263 -66.2281 2.23003e-20)
(-14.8562 -68.4434 6.9275e-18)
(-17.8067 -65.6794 -7.1877e-18)
(-1.89115 -5.33924 2.33285e-18)
(-5.49241 -14.549 -2.36368e-18)
(-0.0556056 -2.90431 -5.31017e-19)
(-0.3217 -2.75071 7.97581e-22)
(5.57945 -14.1253 9.80824e-18)
(1.85932 -5.26585 0)
(29.3818 -56.5284 -1.43936e-17)
(-40.6073 -43.0938 -3.76082e-18)
(35.0589 -51.7864 -8.42678e-19)
(-0.0248408 -0.0257026 -4.42877e-18)
(5.53959 -69.2368 -1.59877e-17)
(37.8326 -47.0594 2.55139e-19)
(39.8187 -37.9362 1.83513e-18)
(-0.340585 -1.57445 -3.35686e-20)
(2.96128 -5.26226 2.69338e-18)
(5.23102 -0.905701 2.4957e-20)
(-0.0930103 -0.0904928 5.95469e-19)
(-0.0814614 -0.0718879 -2.58783e-22)
(-0.102948 -0.080137 3.04919e-18)
(-0.0370938 -8.23519 1.21385e-17)
(-25.4121 -59.3298 -9.67129e-18)
(-17.0985 -43.4806 0)
(-1.33705 -4.72009 2.39288e-18)
(-0.567553 -3.31958 -6.86391e-20)
(0.120004 -3.63493 0)
(1.30791 -4.80034 2.21853e-20)
(18.121 -41.6437 -7.78228e-18)
(25.6695 -55.5872 -5.1989e-18)
(-0.256316 -0.14521 -4.50735e-19)
(-0.273211 -0.13526 1.50391e-19)
(-3.73451 12.1806 4.78037e-19)
(-30.4512 -64.1398 2.65065e-18)
(14.7834 -58.6083 -6.31122e-18)
(2.37001 -8.63015 1.54041e-17)
(0.859889 -4.33894 0)
(-11.2035 -67.794 6.01872e-18)
(1.4361 -3.10332 -1.29485e-17)
(-4.8633 -3.89347 -3.9116e-18)
(-24.6163 -57.1554 -9.91688e-18)
(3.10834 4.09609 1.08367e-19)
(-20.377 -54.8631 -1.50407e-17)
(-0.882944 -3.98164 5.68899e-19)
(0.420021 -4.44877 -2.20669e-18)
(23.3429 -54.1453 -3.05235e-18)
(0.276124 -0.139347 7.24186e-20)
(0.350944 -0.140723 -2.70498e-19)
(0.289986 -0.125668 2.17175e-19)
(0.303441 -1.40296 0)
(0.488462 -1.55052 3.36262e-20)
(0.478123 -1.37842 0)
(-6.28186 16.3135 2.06578e-18)
(0.131011 -0.107754 2.66321e-19)
(-21.0064 -54.3104 1.05624e-20)
(7.43081 -64.4086 -4.57738e-18)
(-21.891 -65.184 -3.33025e-18)
(1.1655 -0.941049 -1.08953e-18)
(1.53989 -1.31387 7.05691e-19)
(-2.92837 -8.09928 2.30862e-18)
(-0.215239 -2.82887 6.61465e-19)
(2.93126 -7.926 -4.71377e-18)
(25.9228 -59.2314 -4.50191e-20)
(-0.124552 -0.125075 1.11951e-18)
(-0.108061 -0.108999 -5.75437e-19)
(-0.157573 -0.15009 4.75958e-19)
(-0.140596 -0.138891 0)
(-0.193093 -0.16218 -2.24993e-23)
(-0.175191 -0.158627 -2.04057e-19)
(-0.227673 -0.160716 0)
(-0.21057 -0.164228 -2.79297e-19)
(-0.244231 -0.154794 -2.95109e-19)
(-0.350925 -0.138248 3.01655e-19)
(-0.515005 -0.185193 2.25402e-18)
(-0.422791 -0.159237 0)
(-0.746322 -0.267406 -1.08999e-22)
(-0.615979 -0.229321 -2.64533e-19)
(-1.10732 -0.401876 -8.23591e-21)
(-0.909614 -0.3267 1.35784e-19)
(-1.64086 -0.640071 6.54784e-20)
(-1.34577 -0.501792 1.35166e-19)
(-2.55418 -1.13627 6.46257e-20)
(-2.0222 -0.834431 -4.52429e-19)
(-4.71743 -2.53673 -7.65947e-19)
(-3.35935 -1.63671 3.89312e-19)
(-11.8473 -7.74928 2.10882e-18)
(-7.1726 -4.29442 -1.03907e-18)
(-31.1232 -24.2941 0)
(-20.2959 -14.4053 -9.88749e-19)
(-40.3734 -36.218 1.43258e-18)
(-38.1512 -30.8387 0)
(-39.2071 -40.9227 3.54476e-18)
(-3.39491 -69.0087 -5.61901e-18)
(38.67 -43.5608 -1.52998e-20)
(36.3271 -29.4175 0)
(39.0483 -33.4928 0)
(16.9882 -11.7464 -9.42979e-19)
(28.355 -22.2623 0)
(5.65476 -3.24531 -1.71683e-21)
(9.29187 -5.97396 1.24022e-18)
(2.8048 -1.28007 0)
(3.82374 -1.94372 3.1255e-20)
(1.73293 -0.68337 0)
(2.16736 -0.911631 1.27404e-19)
(1.15196 -0.417704 -1.31494e-19)
(1.40748 -0.528902 1.29143e-19)
(0.772098 -0.273561 0)
(0.943248 -0.335831 5.37229e-19)
(0.516838 -0.188867 3.5026e-19)
(0.631369 -0.22567 -1.3838e-19)
(0.424798 -0.161341 -3.03839e-19)
(0.520007 -1.74234 0)
(0.501287 -1.63831 -3.46029e-20)
(0.626917 -1.59184 -3.57684e-20)
(0.555954 -1.71999 1.04943e-21)
(0.97376 -0.631128 -2.09044e-20)
(0.757284 -1.24345 4.1902e-20)
(1.79218 1.86831 2.58748e-21)
(1.31638 0.372426 3.37246e-20)
(2.89592 6.78874 5.93108e-20)
(2.37049 3.99918 -3.52907e-20)
(2.46686 13.3204 -2.66796e-19)
(3.0457 10.0195 1.35966e-19)
(-2.05957 18.6922 5.36612e-19)
(0.815643 16.3245 -1.3293e-19)
(-7.05975 18.3137 5.27917e-19)
(-4.90983 19.5112 -1.58813e-18)
(-0.184067 -1.41422 2.09658e-21)
(-0.512047 -1.54241 0)
(-0.499116 -1.37665 4.19746e-21)
(-0.324428 -1.40285 -6.243e-21)
(0.0482084 -1.41968 2.09635e-21)
(-0.0682861 -1.42014 1.67826e-20)
(0.164555 -1.41351 -2.0969e-21)
(7.84081 6.19347 0)
(6.56715 3.20078 -2.62298e-18)
(8.48603 12.7164 -1.13634e-18)
(8.23142 9.52288 0)
(6.3855 17.9508 -6.67556e-19)
(7.47349 15.6651 -2.71944e-19)
(1.28349 19.0686 4.026e-19)
(4.06528 19.3742 1.51189e-19)
(-2.85801 13.9876 6.85998e-20)
(-1.47341 17.1472 -1.31698e-19)
(-2.95431 6.87448 -8.42124e-20)
(-3.23552 10.3907 6.57342e-20)
(-1.85867 1.90048 0)
(-2.4188 4.01165 5.04042e-20)
(-1.05775 -0.524773 8.34904e-21)
(-1.39802 0.451393 -1.6778e-20)
(-0.684662 -1.50543 -2.09921e-21)
(-0.82783 -1.13773 -8.42445e-21)
(-0.555086 -1.70583 -3.40752e-20)
(-0.600475 -1.65985 1.04987e-21)
(-0.529474 -1.61917 3.15433e-20)
(-0.147402 -0.101699 0)
(-0.125894 -0.0899071 1.86798e-18)
(-0.1917 -0.131079 -6.24155e-19)
(-0.167206 -0.113285 -3.22332e-19)
(-0.240461 -0.173726 0)
(-0.216621 -0.151133 5.97943e-19)
(-0.290489 -0.228066 2.90147e-19)
(-0.264765 -0.199214 -5.85088e-23)
(-0.345488 -0.302173 6.7153e-20)
(-0.316891 -0.261955 1.42779e-19)
(-0.406188 -0.40206 1.41883e-19)
(-0.374773 -0.34825 -1.42152e-19)
(-0.469478 -0.535895 -1.39757e-19)
(-0.437167 -0.464319 0)
(-0.525013 -0.703695 -7.47394e-23)
(-0.498245 -0.616379 -2.76694e-19)
(-0.558952 -0.895424 1.51875e-19)
(-0.544206 -0.796808 4.09004e-19)
(-0.561461 -1.10928 6.64324e-20)
(-0.563481 -1.00067 -2.85335e-19)
(-0.513667 -1.31986 2.65748e-19)
(-0.543357 -1.2205 -1.33141e-19)
(-0.423004 -1.50578 0)
(-0.471499 -1.40889 -1.33817e-19)
(-0.293303 -1.67498 -5.34118e-19)
(-0.35744 -1.59571 0)
(-0.132196 -1.77779 -1.33394e-19)
(-0.211737 -1.74011 5.99773e-19)
(0.0571235 -1.78366 -5.39236e-19)
(-0.0351726 -1.80203 2.684e-19)
(0.224775 -1.68015 -6.86781e-19)
(0.146778 -1.73995 2.73782e-19)
(0.370273 -1.56708 -2.02651e-19)
(0.302229 -1.63142 3.06951e-19)
(0.478226 -1.39294 -4.99263e-22)
(0.427281 -1.46935 -1.34566e-19)
(0.538802 -1.17945 2.91337e-22)
(0.515173 -1.2934 -1.06082e-18)
(0.550476 -0.963402 -1.08749e-18)
(0.548842 -1.0698 1.08008e-18)
(0.538661 -0.770212 -6.88218e-20)
(0.54777 -0.864637 5.45651e-19)
(0.497 -0.596266 1.36567e-19)
(0.521327 -0.680719 -1.37483e-19)
(0.434376 -0.449766 -2.71826e-19)
(0.467717 -0.519204 -2.73099e-19)
(0.363577 -0.333522 -3.38285e-20)
(0.399366 -0.387734 2.71654e-19)
(0.297731 -0.248842 -8.51986e-23)
(0.329292 -0.287308 2.70557e-19)
(0.245091 -0.191116 0)
(0.269702 -0.217158 -3.71216e-19)
(0.200802 -0.149659 2.84766e-23)
(0.222996 -0.169209 -4.05644e-19)
(0.15223 -0.120497 4.37101e-18)
(0.180073 -0.134279 -5.42441e-19)
(0.158772 -0.1365 -6.79598e-20)
(0.145029 -0.122303 6.71313e-19)
(0.186632 -0.157129 -2.7667e-19)
(0.172689 -0.147915 -3.41723e-19)
(0.215662 -0.164502 5.65689e-19)
(0.200805 -0.162209 6.97355e-20)
(0.24644 -0.158111 -1.43847e-19)
(0.230839 -0.162748 7.14076e-19)
(0.261668 -0.149865 0)
(0.115703 -0.0818859 0)
(8.65052 -36.2272 -1.11532e-17)
(-0.439469 -12.4362 -4.44457e-18)
(-0.0702826 -0.0537607 1.21671e-18)
(-14.4383 -64.8171 -1.20552e-17)
(-23.41 -62.2429 1.61085e-17)
(10.1223 -66.8855 1.0575e-17)
(-7.56052 -24.5166 2.29389e-18)
(-1.9463 -6.81842 -4.62051e-18)
(-0.415134 -3.52842 -3.34591e-19)
(-0.0294413 -3.86738 -8.68806e-22)
(1.96076 -6.9321 -4.60843e-18)
(8.24144 -24.66 -2.56805e-18)
(24.1181 -57.4421 -4.95232e-20)
(1.36477 -1.05762 1.80968e-18)
(-0.288247 -0.122998 0)
(-46.6569 -44.873 -4.0693e-18)
(-11.1445 -75.7883 -1.61072e-17)
(-0.789986 -8.44214 -6.008e-18)
(44.0511 -47.0035 -3.24959e-18)
(-3.0702 7.21632 0)
(-0.0893737 -0.0605107 -3.07176e-18)
(-37.213 -64.9941 8.64822e-18)
(22.0562 -63.2358 -1.56864e-17)
(-0.717048 -1.47696 -3.15255e-20)
(-0.714558 -1.31905 -3.3557e-20)
(1.07856 -13.4318 5.18752e-18)