/*--------------------------------*- C++ -*----------------------------------*\
| =========                 |                                                 |
| \\      /  F ield         | OpenFOAM: The Open Source CFD Toolbox           |
|  \\    /   O peration     | Version:  2212                                  |
|   \\  /    A nd           | Website:  www.openfoam.com                      |
|    \\/     M anipulation  |                                                 |
\*---------------------------------------------------------------------------*/
FoamFile
{
    version     2.0;
    format      ascii;
    arch        "LSB;label=32;scalar=64";
    class       volScalarField;
    location    "0.327";
    object      p;
}
// * * * * * * * * * * * * * * * * * * * * * * * * * * * * * * * * * * * * * //

dimensions      [0 2 -2 0 0 0 0];

internalField   nonuniform List<scalar> 
24240
(
25.036
25.0345
25.0314
25.0269
25.0212
25.0144
25.0069
24.9987
24.9902
24.9816
24.9731
24.9649
24.9573
24.9503
24.944
24.9386
24.9342
24.9307
24.9282
24.9269
23.3538
23.3534
23.3527
23.3516
23.3502
23.3486
23.3467
23.3446
23.3425
23.3403
23.3382
23.3361
23.3341
23.3323
23.3306
23.3292
23.328
23.327
23.3264
23.326
22.5974
22.5976
22.5981
22.5987
22.5995
22.6005
22.6015
22.6027
22.6039
22.6051
22.6062
22.6073
22.6084
22.6093
22.6102
22.6109
22.6115
22.612
22.6124
22.6126
22.036
22.0364
22.0372
22.0385
22.0401
22.0419
22.044
22.0463
22.0486
22.051
22.0534
22.0557
22.0579
22.0599
22.0617
22.0632
22.0646
22.0656
22.0663
22.0668
21.6867
21.6873
21.6884
21.69
21.6921
21.6946
21.6974
21.7005
21.7036
21.7069
21.7101
21.7132
21.7162
21.7189
21.7214
21.7235
21.7253
21.7268
21.7278
21.7283
21.4025
21.4032
21.4044
21.4062
21.4086
21.4114
21.4145
21.4179
21.4215
21.4251
21.4288
21.4323
21.4356
21.4388
21.4416
21.444
21.446
21.4476
21.4488
21.4493
21.2506
21.2513
21.2525
21.2544
21.2569
21.2598
21.2631
21.2666
21.2704
21.2742
21.278
21.2818
21.2853
21.2886
21.2915
21.2941
21.2962
21.2979
21.2991
21.2997
21.1466
21.1472
21.1485
21.1503
21.1527
21.1555
21.1587
21.1622
21.1659
21.1697
21.1734
21.1771
21.1806
21.1839
21.1868
21.1893
21.1914
21.1931
21.1942
21.1948
21.1138
21.1144
21.1156
21.1172
21.1194
21.122
21.125
21.1282
21.1316
21.1351
21.1386
21.142
21.1452
21.1482
21.151
21.1533
21.1553
21.1568
21.1579
21.1584
21.1411
21.1416
21.1427
21.1442
21.1462
21.1486
21.1513
21.1543
21.1574
21.1606
21.1638
21.167
21.17
21.1728
21.1753
21.1775
21.1794
21.1808
21.1818
21.1822
21.1983
21.1988
21.1998
21.2011
21.2029
21.2051
21.2075
21.2102
21.213
21.2159
21.2189
21.2217
21.2245
21.227
21.2293
21.2313
21.2329
21.2342
21.2351
21.2355
21.3388
21.3392
21.34
21.3412
21.3428
21.3446
21.3468
21.3491
21.3515
21.3541
21.3566
21.3592
21.3615
21.3638
21.3658
21.3675
21.369
21.3702
21.371
21.3714
21.4935
21.4938
21.4945
21.4954
21.4967
21.4983
21.5
21.5019
21.504
21.5061
21.5082
21.5102
21.5122
21.5141
21.5157
21.5172
21.5184
21.5194
21.52
21.5204
21.7658
21.7661
21.7666
21.7673
21.7682
21.7694
21.7707
21.7722
21.7737
21.7753
21.7769
21.7785
21.78
21.7814
21.7827
21.7838
21.7848
21.7856
21.7862
21.7865
22.0558
22.0559
22.0562
22.0566
22.0572
22.0578
22.0586
22.0594
22.0603
22.0613
22.0622
22.0631
22.0639
22.0647
22.0655
22.0661
22.0667
22.0672
22.0676
22.0678
22.5181
22.5181
22.5181
22.5182
22.5182
22.5183
22.5184
22.5186
22.5187
22.5189
22.519
22.5192
22.5193
22.5194
22.5196
22.5197
22.5199
22.5201
22.5203
22.5204
23.0408
23.0406
23.0402
23.0397
23.0391
23.0383
23.0375
23.0366
23.0356
23.0346
23.0335
23.0325
23.0316
23.0307
23.0299
23.0292
23.0287
23.0283
23.0281
23.028
23.866
23.8655
23.8647
23.8634
23.8618
23.86
23.8578
23.8555
23.853
23.8504
23.8479
23.8454
23.843
23.8408
23.8388
23.8371
23.8358
23.8347
23.8341
23.8338
24.9554
24.9544
24.9526
24.95
24.9465
24.9424
24.9377
24.9326
24.9272
24.9217
24.9162
24.9108
24.9057
24.9009
24.8966
24.8929
24.8899
24.8875
24.8858
24.8849
27.1171
27.1151
27.1111
27.1053
27.0977
27.0887
27.0784
27.0673
27.0556
27.0437
27.0319
27.0204
27.0097
26.9998
26.9911
26.9836
26.9774
26.9725
26.9692
26.9675
71.8436
71.8405
71.8341
71.8248
71.8129
71.7987
71.7828
71.7657
71.7478
71.7297
71.7117
71.6944
71.678
71.663
71.6496
71.6379
71.6282
71.6206
71.6152
71.6124
68.8928
68.8917
68.8895
68.8862
68.8821
68.8772
68.8716
68.8656
68.8593
68.8529
68.8466
68.8404
68.8346
68.8292
68.8244
68.8201
68.8166
68.8138
68.8119
68.8109
66.9791
66.9792
66.9796
66.9801
66.9808
66.9817
66.9826
66.9835
66.9845
66.9856
66.9865
66.9875
66.9884
66.9892
66.99
66.9906
66.9911
66.9916
66.9919
66.9922
65.5837
65.5846
65.5864
65.589
65.5925
65.5965
65.601
65.606
65.6111
65.6164
65.6216
65.6266
65.6314
65.6358
65.6398
65.6433
65.6462
65.6485
65.6501
65.651
64.6366
64.638
64.6407
64.6446
64.6497
64.6557
64.6625
64.6699
64.6776
64.6855
64.6933
64.701
64.7083
64.715
64.7211
64.7265
64.7309
64.7344
64.7369
64.7382
63.9295
63.9311
63.9342
63.9388
63.9447
63.9517
63.9597
63.9683
63.9774
63.9867
63.9959
64.005
64.0136
64.0216
64.0288
64.0352
64.0405
64.0446
64.0475
64.049
63.4995
63.5011
63.5044
63.5093
63.5155
63.523
63.5314
63.5406
63.5502
63.5602
63.5701
63.5798
63.589
63.5976
63.6054
63.6122
63.6179
63.6223
63.6254
63.627
63.2367
63.2384
63.2416
63.2464
63.2526
63.2599
63.2683
63.2774
63.287
63.2969
63.3068
63.3164
63.3257
63.3343
63.3421
63.3489
63.3546
63.3591
63.3622
63.3638
63.1505
63.1521
63.1551
63.1596
63.1653
63.1722
63.1801
63.1886
63.1977
63.207
63.2164
63.2256
63.2344
63.2425
63.25
63.2565
63.262
63.2663
63.2692
63.2707
63.2197
63.2211
63.2239
63.228
63.2333
63.2396
63.2468
63.2547
63.2631
63.2717
63.2804
63.2889
63.2971
63.3047
63.3117
63.3178
63.3229
63.327
63.3298
63.3312
63.3973
63.3986
63.4011
63.4047
63.4094
63.4151
63.4216
63.4287
63.4363
63.4441
63.452
63.4597
63.4671
63.474
63.4803
63.4859
63.4906
63.4943
63.4969
63.4982
63.7693
63.7704
63.7726
63.7757
63.7798
63.7847
63.7904
63.7966
63.8031
63.81
63.8168
63.8236
63.83
63.8361
63.8417
63.8466
63.8508
63.8541
63.8565
63.8577
64.2298
64.2307
64.2324
64.2349
64.2382
64.2422
64.2468
64.2518
64.2572
64.2627
64.2683
64.2738
64.2791
64.2841
64.2887
64.2928
64.2963
64.2991
64.3011
64.3022
64.9439
64.9446
64.9458
64.9476
64.95
64.953
64.9563
64.96
64.9639
64.968
64.9721
64.9762
64.9801
64.9838
64.9872
64.9903
64.993
64.9953
64.9969
64.9978
65.7757
65.776
65.7766
65.7776
65.7788
65.7803
65.782
65.7839
65.786
65.7881
65.7903
65.7924
65.7945
65.7965
65.7983
65.8001
65.8017
65.8031
65.8042
65.8048
66.9591
66.959
66.9588
66.9586
66.9584
66.9582
66.958
66.9578
66.9576
66.9574
66.9572
66.957
66.9568
66.9567
66.9567
66.9568
66.9571
66.9575
66.9579
66.9582
68.3773
68.3766
68.3754
68.3736
68.3713
68.3686
68.3655
68.3622
68.3587
68.3551
68.3514
68.3479
68.3445
68.3414
68.3386
68.3363
68.3344
68.3332
68.3324
68.3321
70.3728
70.3713
70.3686
70.3646
70.3595
70.3533
70.3464
70.3388
70.3308
70.3225
70.3142
70.3062
70.2984
70.2913
70.2849
70.2793
70.2748
70.2714
70.2692
70.2681
72.9634
72.9606
72.9554
72.9477
72.9378
72.9259
72.9124
72.8977
72.8821
72.8662
72.8502
72.8346
72.8197
72.8059
72.7934
72.7825
72.7733
72.7661
72.7612
72.7586
76.856
76.8515
76.8423
76.8287
76.8109
76.7897
76.7656
76.7392
76.7115
76.683
76.6546
76.627
76.6008
76.5766
76.5548
76.5356
76.5195
76.5066
76.4975
76.4925
116.789
116.785
116.778
116.767
116.753
116.737
116.718
116.698
116.677
116.656
116.635
116.614
116.595
116.577
116.561
116.546
116.534
116.525
116.518
116.514
113.327
113.326
113.323
113.319
113.313
113.307
113.299
113.291
113.283
113.274
113.266
113.258
113.25
113.242
113.236
113.23
113.225
113.221
113.218
113.217
110.837
110.838
110.838
110.838
110.839
110.839
110.84
110.841
110.842
110.842
110.843
110.844
110.845
110.845
110.846
110.846
110.847
110.847
110.847
110.847
108.864
108.865
108.867
108.87
108.874
108.879
108.885
108.891
108.897
108.904
108.91
108.916
108.922
108.928
108.933
108.937
108.941
108.944
108.946
108.947
107.489
107.491
107.494
107.499
107.506
107.513
107.522
107.532
107.542
107.552
107.562
107.572
107.582
107.591
107.599
107.606
107.612
107.617
107.62
107.622
106.426
106.428
106.432
106.438
106.446
106.455
106.466
106.477
106.489
106.502
106.514
106.526
106.538
106.549
106.559
106.567
106.575
106.581
106.585
106.587
105.771
105.773
105.777
105.784
105.792
105.802
105.813
105.826
105.839
105.852
105.866
105.879
105.892
105.904
105.915
105.924
105.932
105.939
105.943
105.945
105.363
105.365
105.37
105.376
105.385
105.395
105.406
105.418
105.432
105.445
105.459
105.472
105.485
105.497
105.509
105.518
105.527
105.533
105.538
105.54
105.228
105.23
105.235
105.241
105.249
105.258
105.269
105.281
105.293
105.306
105.32
105.332
105.345
105.357
105.367
105.377
105.385
105.391
105.396
105.398
105.329
105.331
105.335
105.34
105.348
105.356
105.366
105.377
105.389
105.401
105.414
105.426
105.438
105.449
105.459
105.468
105.475
105.482
105.486
105.488
105.612
105.614
105.617
105.622
105.629
105.637
105.646
105.656
105.666
105.677
105.689
105.7
105.71
105.72
105.73
105.738
105.745
105.751
105.755
105.757
106.191
106.192
106.195
106.199
106.205
106.212
106.22
106.228
106.238
106.247
106.257
106.266
106.276
106.285
106.293
106.3
106.307
106.312
106.316
106.318
106.916
106.917
106.919
106.923
106.927
106.933
106.939
106.946
106.953
106.961
106.969
106.977
106.985
106.992
106.999
107.005
107.01
107.015
107.018
107.02
108.023
108.023
108.025
108.027
108.031
108.034
108.039
108.044
108.049
108.055
108.061
108.066
108.072
108.077
108.082
108.087
108.091
108.095
108.097
108.099
109.303
109.304
109.304
109.305
109.307
109.309
109.311
109.313
109.316
109.319
109.321
109.324
109.327
109.33
109.333
109.335
109.338
109.34
109.342
109.343
111.099
111.099
111.099
111.098
111.097
111.097
111.096
111.095
111.095
111.094
111.093
111.093
111.092
111.092
111.092
111.092
111.092
111.093
111.094
111.094
113.183
113.182
113.18
113.177
113.174
113.17
113.165
113.16
113.155
113.149
113.144
113.139
113.133
113.129
113.125
113.121
113.118
113.117
113.116
113.115
116.026
116.024
116.02
116.014
116.007
115.998
115.988
115.978
115.966
115.955
115.943
115.932
115.921
115.91
115.901
115.893
115.886
115.881
115.878
115.877
119.447
119.443
119.436
119.426
119.413
119.397
119.379
119.36
119.339
119.318
119.296
119.275
119.255
119.236
119.219
119.204
119.191
119.181
119.174
119.17
124.031
124.025
124.014
123.996
123.972
123.944
123.911
123.876
123.838
123.799
123.76
123.721
123.684
123.649
123.617
123.589
123.564
123.543
123.528
123.519
160.26
160.256
160.249
160.239
160.225
160.209
160.191
160.171
160.15
160.129
160.108
160.087
160.067
160.049
160.032
160.017
160.004
159.994
159.986
159.982
156.598
156.597
156.594
156.589
156.584
156.577
156.57
156.561
156.553
156.544
156.535
156.526
156.518
156.51
156.503
156.497
156.491
156.487
156.484
156.482
153.801
153.801
153.801
153.802
153.802
153.802
153.803
153.803
153.804
153.805
153.805
153.806
153.806
153.807
153.807
153.807
153.807
153.808
153.808
153.808
151.517
151.518
151.52
151.524
151.528
151.533
151.539
151.545
151.552
151.559
151.566
151.573
151.579
151.585
151.591
151.596
151.6
151.603
151.605
151.607
149.857
149.859
149.863
149.868
149.875
149.883
149.893
149.903
149.914
149.926
149.937
149.948
149.959
149.969
149.978
149.986
149.993
149.999
150.002
150.004
148.569
148.571
148.575
148.582
148.591
148.601
148.612
148.625
148.639
148.653
148.667
148.681
148.694
148.706
148.718
148.728
148.737
148.743
148.748
148.751
147.748
147.751
147.755
147.763
147.772
147.783
147.796
147.81
147.825
147.84
147.855
147.871
147.885
147.899
147.912
147.923
147.933
147.941
147.946
147.949
147.245
147.247
147.252
147.259
147.269
147.28
147.293
147.307
147.322
147.338
147.354
147.369
147.385
147.399
147.412
147.424
147.434
147.442
147.448
147.451
147.074
147.077
147.082
147.088
147.098
147.108
147.121
147.134
147.149
147.164
147.18
147.195
147.21
147.224
147.237
147.248
147.258
147.266
147.272
147.275
147.204
147.206
147.211
147.217
147.225
147.236
147.247
147.26
147.274
147.288
147.303
147.317
147.331
147.344
147.357
147.368
147.378
147.386
147.391
147.394
147.576
147.578
147.582
147.588
147.596
147.605
147.615
147.627
147.64
147.653
147.666
147.679
147.692
147.704
147.716
147.726
147.736
147.743
147.749
147.752
148.314
148.316
148.319
148.324
148.331
148.338
148.348
148.358
148.368
148.38
148.391
148.403
148.414
148.425
148.436
148.445
148.454
148.46
148.466
148.468
149.255
149.257
149.259
149.263
149.268
149.275
149.282
149.29
149.299
149.308
149.318
149.327
149.336
149.345
149.354
149.362
149.369
149.375
149.38
149.382
150.651
150.652
150.654
150.656
150.66
150.664
150.67
150.675
150.681
150.688
150.695
150.702
150.708
150.715
150.722
150.728
150.733
150.738
150.742
150.744
152.276
152.276
152.277
152.278
152.28
152.282
152.284
152.287
152.29
152.293
152.296
152.3
152.303
152.307
152.31
152.314
152.317
152.32
152.323
152.325
154.487
154.487
154.486
154.485
154.484
154.484
154.483
154.482
154.481
154.48
154.479
154.478
154.478
154.477
154.477
154.478
154.479
154.48
154.481
154.482
157.025
157.023
157.021
157.018
157.014
157.009
157.004
156.998
156.992
156.986
156.98
156.974
156.968
156.963
156.958
156.954
156.951
156.949
156.948
156.948
160.373
160.37
160.365
160.36
160.352
160.343
160.333
160.323
160.311
160.299
160.287
160.275
160.264
160.253
160.244
160.235
160.228
160.223
160.22
160.219
164.292
164.284
164.278
164.269
164.258
164.245
164.23
164.214
164.197
164.179
164.161
164.144
164.127
164.111
164.096
164.083
164.072
164.064
164.059
164.059
168.938
168.937
168.923
168.9
168.87
168.833
168.79
168.743
168.692
168.639
168.585
168.532
168.479
168.429
168.382
168.339
168.3
168.266
168.239
168.221
202.803
202.8
202.793
202.784
202.772
202.757
202.741
202.723
202.704
202.684
202.665
202.645
202.627
202.609
202.592
202.578
202.565
202.554
202.547
202.542
199.05
199.049
199.046
199.042
199.037
199.031
199.025
199.017
199.009
199.001
198.993
198.985
198.977
198.97
198.963
198.956
198.951
198.946
198.943
198.941
196.111
196.111
196.111
196.112
196.112
196.113
196.114
196.114
196.115
196.116
196.117
196.118
196.118
196.119
196.119
196.12
196.12
196.12
196.12
196.12
193.632
193.633
193.635
193.639
193.643
193.648
193.654
193.661
193.668
193.675
193.682
193.689
193.696
193.702
193.708
193.713
193.717
193.72
193.723
193.724
191.799
191.8
191.804
191.81
191.817
191.825
191.835
191.845
191.856
191.868
191.88
191.891
191.902
191.913
191.923
191.931
191.938
191.944
191.948
191.95
190.355
190.357
190.361
190.368
190.377
190.387
190.399
190.412
190.426
190.44
190.455
190.469
190.483
190.497
190.509
190.52
190.529
190.536
190.542
190.544
189.424
189.426
189.431
189.439
189.448
189.46
189.473
189.487
189.502
189.518
189.534
189.551
189.566
189.581
189.595
189.607
189.618
189.626
189.632
189.635
188.854
188.857
188.862
188.869
188.879
188.891
188.904
188.919
188.935
188.951
188.968
188.985
189.001
189.016
189.031
189.044
189.055
189.064
189.071
189.074
188.665
188.668
188.673
188.68
188.689
188.701
188.714
188.728
188.743
188.759
188.776
188.792
188.808
188.824
188.838
188.851
188.863
188.872
188.879
188.882
188.822
188.824
188.828
188.835
188.844
188.855
188.867
188.881
188.895
188.911
188.926
188.942
188.957
188.972
188.986
188.999
189.01
189.02
189.026
189.03
189.268
189.27
189.274
189.28
189.288
189.298
189.309
189.322
189.335
189.349
189.364
189.378
189.393
189.406
189.42
189.432
189.443
189.452
189.458
189.462
190.132
190.134
190.137
190.143
190.15
190.158
190.168
190.178
190.19
190.203
190.215
190.228
190.241
190.253
190.265
190.276
190.286
190.295
190.301
190.305
191.241
191.242
191.245
191.249
191.255
191.262
191.269
191.278
191.288
191.298
191.308
191.319
191.329
191.34
191.35
191.359
191.368
191.375
191.381
191.384
192.857
192.858
192.86
192.863
192.866
192.871
192.877
192.883
192.889
192.897
192.904
192.912
192.919
192.927
192.935
192.942
192.949
192.955
192.96
192.963
194.735
194.735
194.736
194.737
194.739
194.741
194.743
194.746
194.749
194.753
194.756
194.76
194.764
194.768
194.773
194.777
194.781
194.785
194.789
194.791
197.24
197.24
197.239
197.238
197.237
197.236
197.235
197.234
197.232
197.231
197.23
197.229
197.229
197.228
197.229
197.229
197.23
197.231
197.233
197.234
200.079
200.078
200.075
200.072
200.067
200.062
200.056
200.049
200.042
200.035
200.028
200.021
200.014
200.008
200.002
199.997
199.993
199.99
199.989
199.988
203.72
203.718
203.713
203.706
203.698
203.687
203.675
203.662
203.648
203.633
203.618
203.603
203.588
203.574
203.561
203.55
203.54
203.532
203.526
203.524
207.83
207.825
207.818
207.806
207.791
207.773
207.752
207.729
207.704
207.678
207.651
207.625
207.598
207.573
207.549
207.527
207.507
207.49
207.478
207.472
212.882
212.877
212.865
212.846
212.822
212.791
212.757
212.718
212.676
212.633
212.588
212.543
212.499
212.456
212.415
212.377
212.342
212.311
212.288
212.273
244.475
244.472
244.467
244.459
244.449
244.437
244.423
244.407
244.391
244.374
244.357
244.34
244.323
244.307
244.292
244.279
244.266
244.256
244.249
244.244
240.725
240.724
240.722
240.719
240.715
240.71
240.704
240.698
240.692
240.685
240.678
240.671
240.664
240.658
240.651
240.646
240.64
240.636
240.633
240.631
237.712
237.712
237.712
237.713
237.714
237.715
237.716
237.717
237.718
237.719
237.721
237.722
237.723
237.724
237.725
237.725
237.725
237.726
237.726
237.726
235.148
235.149
235.151
235.155
235.159
235.164
235.17
235.176
235.183
235.19
235.197
235.204
235.211
235.217
235.223
235.228
235.233
235.236
235.238
235.24
233.215
233.217
233.221
233.226
233.233
233.241
233.25
233.26
233.271
233.282
233.294
233.305
233.316
233.327
233.337
233.345
233.353
233.358
233.363
233.365
231.69
231.692
231.696
231.703
231.711
231.721
231.733
231.745
231.759
231.773
231.787
231.802
231.816
231.829
231.841
231.852
231.862
231.869
231.875
231.878
230.694
230.696
230.701
230.708
230.717
230.728
230.741
230.755
230.77
230.786
230.802
230.818
230.834
230.849
230.863
230.875
230.886
230.895
230.902
230.905
230.092
230.094
230.099
230.107
230.116
230.128
230.141
230.155
230.171
230.187
230.204
230.221
230.238
230.254
230.268
230.282
230.294
230.304
230.311
230.314
229.898
229.9
229.905
229.912
229.922
229.933
229.946
229.96
229.976
229.992
230.009
230.025
230.042
230.058
230.073
230.087
230.099
230.109
230.117
230.121
230.082
230.084
230.089
230.096
230.104
230.115
230.127
230.141
230.156
230.172
230.188
230.204
230.22
230.236
230.251
230.265
230.277
230.287
230.295
230.299
230.589
230.591
230.595
230.601
230.609
230.619
230.63
230.643
230.656
230.671
230.686
230.701
230.716
230.731
230.745
230.759
230.771
230.781
230.788
230.792
231.548
231.55
231.553
231.559
231.566
231.574
231.584
231.595
231.607
231.62
231.633
231.647
231.661
231.674
231.687
231.7
231.711
231.72
231.727
231.732
232.78
232.782
232.785
232.789
232.794
232.801
232.809
232.818
232.828
232.839
232.85
232.861
232.873
232.884
232.895
232.906
232.916
232.924
232.931
232.935
234.55
234.551
234.553
234.556
234.56
234.564
234.57
234.577
234.584
234.591
234.599
234.608
234.616
234.625
234.634
234.642
234.65
234.657
234.663
234.666
236.599
236.599
236.6
236.601
236.603
236.605
236.608
236.611
236.614
236.618
236.622
236.626
236.631
236.636
236.641
236.646
236.651
236.656
236.66
236.662
239.289
239.289
239.288
239.287
239.286
239.285
239.284
239.283
239.282
239.281
239.28
239.28
239.279
239.279
239.28
239.281
239.282
239.284
239.285
239.286
242.304
242.303
242.301
242.297
242.293
242.288
242.282
242.275
242.268
242.261
242.253
242.246
242.239
242.232
242.226
242.221
242.216
242.213
242.211
242.211
246.107
246.105
246.101
246.094
246.085
246.075
246.063
246.049
246.035
246.02
246.004
245.988
245.973
245.958
245.943
245.93
245.919
245.91
245.903
245.9
250.339
250.335
250.328
250.317
250.303
250.285
250.265
250.242
250.217
250.191
250.164
250.137
250.11
250.083
250.057
250.033
250.011
249.992
249.978
249.97
255.485
255.48
255.47
255.454
255.432
255.406
255.376
255.342
255.305
255.266
255.226
255.185
255.143
255.102
255.062
255.024
254.989
254.958
254.934
254.919
285.474
285.472
285.468
285.462
285.454
285.445
285.434
285.422
285.409
285.396
285.382
285.368
285.354
285.34
285.327
285.315
285.304
285.295
285.288
285.284
281.736
281.735
281.734
281.731
281.729
281.725
281.721
281.717
281.712
281.707
281.702
281.696
281.691
281.686
281.68
281.675
281.671
281.667
281.664
281.663
278.721
278.721
278.722
278.723
278.724
278.725
278.727
278.728
278.73
278.732
278.734
278.735
278.737
278.738
278.739
278.74
278.741
278.741
278.741
278.741
276.116
276.117
276.119
276.123
276.127
276.132
276.137
276.144
276.15
276.157
276.164
276.171
276.178
276.184
276.19
276.195
276.199
276.202
276.205
276.206
274.14
274.142
274.145
274.15
274.156
274.164
274.173
274.182
274.193
274.203
274.214
274.225
274.236
274.246
274.255
274.264
274.271
274.276
274.28
274.282
272.572
272.574
272.578
272.584
272.592
272.601
272.612
272.624
272.637
272.65
272.664
272.677
272.691
272.703
272.715
272.726
272.736
272.743
272.748
272.751
271.545
271.548
271.552
271.559
271.567
271.578
271.59
271.603
271.617
271.632
271.648
271.663
271.678
271.693
271.707
271.719
271.73
271.739
271.745
271.749
270.934
270.936
270.94
270.947
270.956
270.967
270.98
270.993
271.008
271.024
271.04
271.057
271.073
271.089
271.104
271.117
271.129
271.139
271.146
271.15
270.747
270.749
270.754
270.761
270.769
270.78
270.793
270.806
270.821
270.837
270.854
270.87
270.887
270.903
270.918
270.932
270.945
270.955
270.962
270.967
270.959
270.961
270.965
270.972
270.98
270.991
271.003
271.016
271.03
271.046
271.062
271.078
271.094
271.11
271.126
271.14
271.152
271.163
271.171
271.175
271.514
271.516
271.52
271.526
271.534
271.544
271.555
271.567
271.581
271.595
271.61
271.626
271.641
271.656
271.671
271.685
271.698
271.708
271.716
271.72
272.545
272.547
272.55
272.555
272.562
272.57
272.58
272.591
272.603
272.616
272.63
272.644
272.658
272.672
272.686
272.699
272.711
272.721
272.728
272.733
273.865
273.867
273.87
273.874
273.879
273.886
273.894
273.903
273.913
273.924
273.936
273.947
273.96
273.972
273.984
273.995
274.006
274.015
274.022
274.026
275.741
275.742
275.743
275.746
275.75
275.755
275.761
275.768
275.775
275.783
275.792
275.801
275.81
275.819
275.829
275.838
275.847
275.854
275.86
275.864
277.901
277.901
277.902
277.903
277.905
277.907
277.91
277.914
277.918
277.922
277.926
277.932
277.937
277.943
277.949
277.954
277.96
277.965
277.969
277.972
280.71
280.71
280.709
280.709
280.708
280.707
280.707
280.706
280.706
280.705
280.705
280.705
280.706
280.707
280.708
280.709
280.711
280.713
280.715
280.716
283.823
283.822
283.82
283.817
283.813
283.808
283.803
283.797
283.791
283.785
283.778
283.772
283.765
283.759
283.754
283.749
283.745
283.741
283.74
283.739
287.716
287.714
287.71
287.704
287.696
287.687
287.676
287.664
287.651
287.637
287.623
287.608
287.593
287.579
287.565
287.552
287.54
287.531
287.524
287.521
291.988
291.984
291.978
291.969
291.956
291.94
291.922
291.902
291.88
291.856
291.831
291.806
291.78
291.754
291.728
291.704
291.682
291.663
291.649
291.641
297.133
297.129
297.12
297.107
297.088
297.066
297.039
297.009
296.977
296.942
296.905
296.867
296.828
296.789
296.75
296.712
296.677
296.646
296.621
296.606
325.794
325.792
325.789
325.785
325.78
325.773
325.766
325.757
325.748
325.738
325.728
325.717
325.706
325.696
325.685
325.675
325.667
325.659
325.654
325.652
322.116
322.116
322.115
322.114
322.112
322.11
322.108
322.105
322.103
322.099
322.096
322.093
322.089
322.085
322.082
322.078
322.074
322.072
322.069
322.068
319.125
319.126
319.127
319.128
319.129
319.131
319.133
319.136
319.138
319.141
319.143
319.145
319.147
319.149
319.151
319.152
319.153
319.153
319.153
319.153
316.528
316.529
316.531
316.534
316.538
316.543
316.548
316.554
316.561
316.568
316.574
316.581
316.588
316.594
316.599
316.604
316.608
316.611
316.613
316.614
314.546
314.547
314.55
314.555
314.56
314.567
314.575
314.584
314.594
314.604
314.614
314.624
314.634
314.643
314.652
314.66
314.666
314.672
314.675
314.677
312.974
312.975
312.979
312.985
312.992
313
313.01
313.021
313.032
313.045
313.057
313.07
313.082
313.094
313.106
313.116
313.124
313.131
313.136
313.138
311.943
311.945
311.949
311.955
311.963
311.973
311.984
311.996
312.009
312.023
312.037
312.051
312.066
312.08
312.093
312.104
312.115
312.123
312.129
312.132
311.342
311.344
311.348
311.355
311.363
311.373
311.384
311.397
311.411
311.426
311.441
311.456
311.472
311.487
311.501
311.514
311.525
311.535
311.541
311.545
311.172
311.174
311.179
311.185
311.193
311.203
311.215
311.228
311.242
311.256
311.272
311.288
311.304
311.319
311.334
311.348
311.36
311.37
311.377
311.381
311.413
311.415
311.419
311.425
311.433
311.443
311.454
311.467
311.48
311.495
311.51
311.526
311.542
311.558
311.573
311.587
311.599
311.609
311.617
311.621
312.008
312.009
312.013
312.019
312.026
312.035
312.046
312.058
312.071
312.085
312.1
312.115
312.13
312.146
312.16
312.174
312.187
312.197
312.204
312.209
313.089
313.091
313.094
313.099
313.106
313.114
313.123
313.134
313.146
313.159
313.172
313.186
313.201
313.215
313.229
313.242
313.254
313.263
313.271
313.275
314.468
314.469
314.472
314.476
314.482
314.489
314.497
314.506
314.516
314.527
314.539
314.551
314.563
314.576
314.588
314.6
314.61
314.619
314.626
314.63
316.407
316.408
316.41
316.413
316.417
316.422
316.428
316.435
316.443
316.451
316.46
316.47
316.479
316.489
316.499
316.509
316.518
316.525
316.531
316.535
318.628
318.628
318.629
318.631
318.633
318.636
318.639
318.643
318.648
318.653
318.658
318.664
318.67
318.677
318.683
318.69
318.696
318.701
318.705
318.707
321.492
321.492
321.492
321.491
321.491
321.491
321.492
321.492
321.492
321.493
321.494
321.495
321.497
321.499
321.501
321.503
321.505
321.507
321.509
321.51
324.638
324.637
324.636
324.633
324.631
324.627
324.623
324.619
324.614
324.609
324.604
324.599
324.594
324.589
324.585
324.581
324.578
324.575
324.574
324.573
328.545
328.544
328.54
328.535
328.529
328.522
328.513
328.503
328.492
328.48
328.468
328.455
328.442
328.429
328.417
328.405
328.395
328.386
328.38
328.377
332.795
332.793
332.788
332.78
332.769
332.756
332.741
332.724
332.705
332.685
332.663
332.641
332.617
332.594
332.57
332.548
332.527
332.51
332.497
332.489
337.852
337.848
337.841
337.829
337.814
337.795
337.773
337.748
337.72
337.69
337.657
337.623
337.588
337.551
337.514
337.479
337.445
337.417
337.394
337.381
365.539
365.538
365.537
365.535
365.532
365.528
365.524
365.519
365.514
365.508
365.501
365.495
365.488
365.48
365.473
365.466
365.461
365.456
365.454
365.453
361.926
361.926
361.926
361.926
361.926
361.925
361.925
361.924
361.924
361.923
361.922
361.92
361.919
361.917
361.915
361.913
361.911
361.909
361.908
361.907
358.984
358.984
358.985
358.987
358.989
358.991
358.994
358.997
359
359.003
359.006
359.009
359.012
359.014
359.017
359.018
359.019
359.02
359.02
359.02
356.412
356.413
356.415
356.418
356.422
356.427
356.432
356.438
356.444
356.45
356.457
356.463
356.47
356.475
356.481
356.485
356.489
356.492
356.493
356.493
354.45
354.452
354.455
354.459
354.464
354.47
354.477
354.485
354.494
354.503
354.512
354.521
354.53
354.539
354.547
354.554
354.56
354.564
354.567
354.568
352.895
352.897
352.9
352.905
352.911
352.919
352.927
352.937
352.948
352.959
352.97
352.981
352.993
353.004
353.014
353.023
353.03
353.036
353.04
353.041
351.881
351.883
351.887
351.892
351.899
351.907
351.917
351.928
351.94
351.952
351.965
351.978
351.991
352.004
352.015
352.026
352.035
352.042
352.047
352.049
351.303
351.305
351.309
351.315
351.322
351.331
351.341
351.353
351.365
351.379
351.393
351.407
351.421
351.435
351.448
351.46
351.47
351.478
351.484
351.487
351.157
351.159
351.163
351.169
351.176
351.186
351.196
351.208
351.221
351.235
351.249
351.264
351.278
351.293
351.307
351.319
351.33
351.339
351.345
351.348
351.426
351.428
351.432
351.438
351.445
351.454
351.465
351.476
351.489
351.503
351.517
351.532
351.547
351.562
351.576
351.589
351.601
351.61
351.616
351.62
352.053
352.054
352.058
352.063
352.07
352.079
352.089
352.101
352.113
352.126
352.14
352.155
352.17
352.184
352.198
352.211
352.223
352.232
352.239
352.242
353.17
353.171
353.175
353.179
353.186
353.194
353.203
353.214
353.225
353.238
353.251
353.264
353.278
353.292
353.306
353.318
353.329
353.338
353.344
353.348
354.585
354.587
354.589
354.593
354.599
354.606
354.614
354.623
354.633
354.644
354.656
354.668
354.68
354.693
354.705
354.716
354.726
354.734
354.74
354.743
356.56
356.561
356.563
356.566
356.57
356.576
356.582
356.589
356.597
356.606
356.616
356.626
356.636
356.646
356.656
356.666
356.674
356.681
356.686
356.689
358.806
358.807
358.808
358.81
358.812
358.816
358.82
358.824
358.83
358.836
358.842
358.849
358.856
358.863
358.87
358.876
358.882
358.887
358.891
358.893
361.693
361.693
361.693
361.693
361.694
361.695
361.696
361.698
361.7
361.702
361.704
361.707
361.71
361.713
361.716
361.718
361.721
361.723
361.726
361.727
364.822
364.821
364.82
364.819
364.817
364.815
364.813
364.81
364.808
364.805
364.802
364.799
364.796
364.793
364.79
364.788
364.785
364.784
364.783
364.783
368.709
368.708
368.705
368.702
368.697
368.692
368.685
368.678
368.67
368.661
368.652
368.642
368.632
368.622
368.612
368.602
368.594
368.587
368.583
368.581
372.877
372.875
372.871
372.865
372.857
372.847
372.836
372.822
372.807
372.791
372.773
372.755
372.735
372.715
372.695
372.676
372.658
372.644
372.634
372.629
377.825
377.823
377.817
377.808
377.796
377.781
377.764
377.743
377.72
377.695
377.668
377.639
377.608
377.575
377.543
377.512
377.484
377.46
377.442
377.432
404.706
404.706
404.706
404.705
404.705
404.704
404.704
404.703
404.701
404.7
404.697
404.695
404.692
404.688
404.685
404.682
404.68
404.679
404.679
404.68
401.168
401.168
401.169
401.17
401.171
401.172
401.174
401.175
401.177
401.178
401.179
401.18
401.181
401.181
401.181
401.181
401.181
401.181
401.181
401.181
398.292
398.292
398.294
398.295
398.298
398.301
398.304
398.308
398.312
398.315
398.319
398.323
398.327
398.33
398.333
398.335
398.336
398.337
398.338
398.338
395.769
395.77
395.772
395.775
395.779
395.783
395.788
395.793
395.799
395.806
395.812
395.818
395.824
395.83
395.835
395.839
395.842
395.844
395.845
395.846
393.849
393.85
393.852
393.856
393.86