/*--------------------------------*- C++ -*----------------------------------*\
| =========                 |                                                 |
| \\      /  F ield         | OpenFOAM: The Open Source CFD Toolbox           |
|  \\    /   O peration     | Version:  2212                                  |
|   \\  /    A nd           | Website:  www.openfoam.com                      |
|    \\/     M anipulation  |                                                 |
\*---------------------------------------------------------------------------*/
FoamFile
{
    version     2.0;
    format      ascii;
    arch        "LSB;label=32;scalar=64";
    class       volVectorField;
    location    "0.327";
    object      U;
}
// * * * * * * * * * * * * * * * * * * * * * * * * * * * * * * * * * * * * * //

dimensions      [0 1 -1 0 0 0 0];

internalField   nonuniform List<vector> 
24240
(
(9.04019 0.766321 1.27514e-06)
(9.04041 0.766339 1.19951e-08)
(9.0404 0.766338 9.41583e-07)
(9.0404 0.766337 8.16943e-07)
(9.0404 0.766335 1.27417e-06)
(9.0404 0.766333 1.36658e-06)
(9.0404 0.766331 1.58881e-06)
(9.0404 0.766329 1.64869e-06)
(9.0404 0.766326 1.71539e-06)
(9.0404 0.766324 1.68472e-06)
(9.0404 0.766321 1.63549e-06)
(9.0404 0.766319 1.50975e-06)
(9.0404 0.766317 1.38623e-06)
(9.0404 0.766315 1.17544e-06)
(9.0404 0.766313 1.0532e-06)
(9.0404 0.766312 7.42121e-07)
(9.0404 0.766311 7.57603e-07)
(9.0404 0.766309 1.73048e-07)
(9.0404 0.766309 5.78663e-07)
(9.04019 0.76629 -1.15847e-06)
(9.02492 0.770136 -7.43467e-07)
(9.02514 0.770156 -1.00603e-06)
(9.02514 0.770156 -1.15358e-06)
(9.02514 0.770157 -1.66213e-06)
(9.02514 0.770158 -1.85759e-06)
(9.02514 0.770159 -2.1777e-06)
(9.02513 0.77016 -2.31873e-06)
(9.02513 0.770161 -2.4665e-06)
(9.02513 0.770163 -2.50245e-06)
(9.02513 0.770164 -2.51232e-06)
(9.02513 0.770165 -2.44239e-06)
(9.02513 0.770166 -2.34796e-06)
(9.02513 0.770168 -2.18561e-06)
(9.02513 0.770169 -2.0348e-06)
(9.02513 0.770169 -1.78161e-06)
(9.02513 0.77017 -1.61507e-06)
(9.02513 0.770171 -1.2286e-06)
(9.02513 0.770171 -1.04769e-06)
(9.02513 0.770172 -4.42075e-07)
(9.02491 0.770153 1.79818e-07)
(9.05503 0.531687 -1.51085e-07)
(9.05525 0.531701 7.78185e-07)
(9.05525 0.531701 1.69802e-06)
(9.05525 0.5317 2.24861e-06)
(9.05525 0.531699 2.98517e-06)
(9.05525 0.531698 3.38332e-06)
(9.05525 0.531697 3.76696e-06)
(9.05525 0.531695 3.94742e-06)
(9.05525 0.531694 4.04023e-06)
(9.05525 0.531692 3.98574e-06)
(9.05525 0.531691 3.84373e-06)
(9.05525 0.531689 3.58484e-06)
(9.05525 0.531688 3.27696e-06)
(9.05525 0.531687 2.8767e-06)
(9.05525 0.531686 2.51162e-06)
(9.05525 0.531685 2.01182e-06)
(9.05525 0.531684 1.74048e-06)
(9.05525 0.531683 1.19142e-06)
(9.05525 0.531683 9.19157e-07)
(9.05504 0.531669 6.57489e-07)
(9.01057 0.527669 -7.70439e-07)
(9.01078 0.527683 -1.62221e-06)
(9.01079 0.527683 -2.22306e-06)
(9.01079 0.527683 -3.03214e-06)
(9.01079 0.527683 -3.69242e-06)
(9.01079 0.527683 -4.25301e-06)
(9.01079 0.527683 -4.62734e-06)
(9.01079 0.527682 -4.89397e-06)
(9.01079 0.527682 -4.99787e-06)
(9.01079 0.527682 -4.99057e-06)
(9.01079 0.527682 -4.85364e-06)
(9.01079 0.527682 -4.62625e-06)
(9.01079 0.527681 -4.29313e-06)
(9.01079 0.527681 -3.91786e-06)
(9.0108 0.527681 -3.44448e-06)
(9.0108 0.527681 -2.97862e-06)
(9.0108 0.527681 -2.42301e-06)
(9.0108 0.527681 -1.86617e-06)
(9.0108 0.527681 -9.44346e-07)
(9.01058 0.527667 -1.30458e-07)
(9.03393 0.325746 -2.47723e-08)
(9.03415 0.325756 7.3782e-07)
(9.03415 0.325755 1.65077e-06)
(9.03415 0.325755 2.23411e-06)
(9.03415 0.325755 2.75931e-06)
(9.03415 0.325755 3.14897e-06)
(9.03415 0.325755 3.46636e-06)
(9.03415 0.325754 3.63483e-06)
(9.03415 0.325754 3.70981e-06)
(9.03415 0.325754 3.65705e-06)
(9.03415 0.325753 3.52067e-06)
(9.03415 0.325753 3.28269e-06)
(9.03415 0.325753 2.99486e-06)
(9.03415 0.325753 2.63305e-06)
(9.03415 0.325752 2.27487e-06)
(9.03415 0.325752 1.85062e-06)
(9.03415 0.325752 1.46502e-06)
(9.03415 0.325752 1.03406e-06)
(9.03415 0.325752 8.70971e-07)
(9.03393 0.325743 5.32471e-07)
(8.99576 0.317827 -7.26758e-07)
(8.99598 0.317836 -1.70973e-06)
(8.99598 0.317835 -2.52091e-06)
(8.99598 0.317834 -3.37215e-06)
(8.99598 0.317832 -4.01961e-06)
(8.99598 0.317831 -4.61266e-06)
(8.99598 0.317829 -5.0179e-06)
(8.99598 0.317827 -5.30425e-06)
(8.99599 0.317825 -5.41824e-06)
(8.99599 0.317823 -5.40265e-06)
(8.99599 0.317821 -5.23708e-06)
(8.99599 0.317819 -4.96159e-06)
(8.996 0.317817 -4.55926e-06)
(8.996 0.317815 -4.09483e-06)
(8.996 0.317814 -3.52246e-06)
(8.996 0.317813 -2.95436e-06)
(8.996 0.317812 -2.25296e-06)
(8.996 0.317811 -1.63463e-06)
(8.996 0.317811 -8.12093e-07)
(8.99578 0.317802 -1.09035e-07)
(9.00877 0.148289 -3.18984e-07)
(9.00899 0.148293 -2.29387e-07)
(9.00899 0.148294 1.61455e-08)
(9.00899 0.148294 5.92901e-08)
(9.00899 0.148294 1.13308e-07)
(9.00899 0.148295 1.26106e-07)
(9.009 0.148295 1.49181e-07)
(9.009 0.148295 1.38099e-07)
(9.009 0.148296 1.33336e-07)
(9.009 0.148296 1.08331e-07)
(9.009 0.148297 9.54559e-08)
(9.009 0.148297 7.1423e-08)
(9.009 0.148298 7.21987e-08)
(9.009 0.148298 6.21925e-08)
(9.009 0.148298 9.13215e-08)
(9.009 0.148299 9.22767e-08)
(9.009 0.148299 1.42316e-07)
(9.009 0.148299 1.45663e-07)
(9.009 0.1483 3.69689e-07)
(9.00878 0.148296 3.79167e-07)
(8.99117 0.135048 -6.14196e-07)
(8.99139 0.135051 -1.44747e-06)
(8.99139 0.135051 -2.11006e-06)
(8.99139 0.13505 -2.80712e-06)
(8.99139 0.135049 -3.34342e-06)
(8.99139 0.135048 -3.8403e-06)
(8.99139 0.135047 -4.18773e-06)
(8.9914 0.135045 -4.43838e-06)
(8.9914 0.135044 -4.54173e-06)
(8.9914 0.135042 -4.53059e-06)
(8.9914 0.135041 -4.37855e-06)
(8.9914 0.13504 -4.12182e-06)
(8.9914 0.135039 -3.73956e-06)
(8.9914 0.135038 -3.29451e-06)
(8.9914 0.135037 -2.75004e-06)
(8.99141 0.135036 -2.21725e-06)
(8.99141 0.135035 -1.58507e-06)
(8.99141 0.135035 -1.05424e-06)
(8.99141 0.135035 -3.73634e-07)
(8.99119 0.135031 5.86815e-08)
(8.99604 -0.0143367 -4.80199e-07)
(8.99626 -0.0143367 -8.58948e-07)
(8.99626 -0.0143355 -1.07796e-06)
(8.99626 -0.0143337 -1.40021e-06)
(8.99627 -0.0143314 -1.64684e-06)
(8.99627 -0.0143287 -1.89076e-06)
(8.99627 -0.0143257 -2.06092e-06)
(8.99627 -0.0143224 -2.19543e-06)
(8.99627 -0.014319 -2.25408e-06)
(8.99627 -0.0143156 -2.26098e-06)
(8.99627 -0.0143122 -2.19049e-06)
(8.99627 -0.014309 -2.06873e-06)
(8.99627 -0.014306 -1.87071e-06)
(8.99627 -0.0143032 -1.64141e-06)
(8.99627 -0.0143009 -1.3412e-06)
(8.99627 -0.0142989 -1.05457e-06)
(8.99627 -0.0142973 -6.86357e-07)
(8.99627 -0.0142961 -3.98989e-07)
(8.99627 -0.0142953 7.33306e-08)
(8.99605 -0.0142943 2.80664e-07)
(9.00534 -0.031181 -1.61905e-07)
(9.00555 -0.031183 7.06158e-08)
(9.00555 -0.031184 4.30826e-07)
(9.00555 -0.0311855 6.31773e-07)
(9.00555 -0.0311873 8.50259e-07)
(9.00555 -0.0311895 9.87586e-07)
(9.00554 -0.031192 1.11204e-06)
(9.00554 -0.0311946 1.17533e-06)
(9.00554 -0.0311973 1.21842e-06)
(9.00553 -0.0312001 1.21413e-06)
(9.00553 -0.0312027 1.19465e-06)
(9.00553 -0.0312053 1.13686e-06)
(9.00552 -0.0312076 1.07967e-06)
(9.00552 -0.0312096 9.87156e-07)
(9.00552 -0.0312114 9.21034e-07)
(9.00552 -0.0312128 8.12322e-07)
(9.00551 -0.0312139 7.6511e-07)
(9.00551 -0.0312147 6.35498e-07)
(9.00551 -0.0312152 6.1716e-07)
(9.00529 -0.0312139 4.04815e-07)
(9.00105 -0.179285 -8.29291e-07)
(9.00127 -0.17929 -2.11136e-06)
(9.00127 -0.179289 -3.15911e-06)
(9.00127 -0.179288 -4.20888e-06)
(9.00127 -0.179286 -5.05892e-06)
(9.00127 -0.179284 -5.80758e-06)
(9.00127 -0.179282 -6.3516e-06)
(9.00127 -0.17928 -6.72359e-06)
(9.00127 -0.179277 -6.87989e-06)
(9.00127 -0.179275 -6.84284e-06)
(9.00127 -0.179272 -6.59656e-06)
(9.00127 -0.17927 -6.17657e-06)
(9.00127 -0.179268 -5.57893e-06)
(9.00127 -0.179266 -4.87224e-06)
(9.00127 -0.179265 -4.04335e-06)
(9.00127 -0.179263 -3.2145e-06)
(9.00127 -0.179262 -2.28253e-06)
(9.00127 -0.179261 -1.47167e-06)
(9.00127 -0.179261 -5.04738e-07)
(9.00105 -0.179255 6.27336e-08)
(9.03961 -0.193884 1.59818e-07)
(9.03983 -0.193891 1.1956e-06)
(9.03983 -0.193891 2.33091e-06)
(9.03983 -0.193892 3.1956e-06)
(9.03982 -0.193893 3.95573e-06)
(9.03982 -0.193894 4.54906e-06)
(9.03981 -0.193896 5.00466e-06)
(9.03981 -0.193897 5.28165e-06)
(9.0398 -0.193899 5.41148e-06)
(9.0398 -0.1939 5.37196e-06)
(9.03979 -0.193902 5.20241e-06)
(9.03978 -0.193903 4.88867e-06)
(9.03978 -0.193904 4.48589e-06)
(9.03977 -0.193905 3.97853e-06)
(9.03977 -0.193906 3.44501e-06)
(9.03977 -0.193907 2.85281e-06)
(9.03976 -0.193908 2.29049e-06)
(9.03976 -0.193908 1.68469e-06)
(9.03976 -0.193909 1.21887e-06)
(9.03954 -0.193902 6.27394e-07)
(9.02539 -0.360627 -1.0455e-06)
(9.02561 -0.360638 -2.80477e-06)
(9.02561 -0.360638 -4.31419e-06)
(9.02561 -0.360637 -5.77033e-06)
(9.02561 -0.360635 -6.92358e-06)
(9.02561 -0.360634 -7.95951e-06)
(9.02561 -0.360632 -8.71301e-06)
(9.02561 -0.360631 -9.22408e-06)
(9.02561 -0.360629 -9.43998e-06)
(9.02561 -0.360627 -9.38287e-06)
(9.02561 -0.360625 -9.04214e-06)
(9.02561 -0.360624 -8.45946e-06)
(9.02561 -0.360622 -7.64565e-06)
(9.02561 -0.360621 -6.68463e-06)
(9.02561 -0.36062 -5.57398e-06)
(9.02561 -0.360619 -4.46659e-06)
(9.02561 -0.360618 -3.21007e-06)
(9.02561 -0.360618 -2.12937e-06)
(9.02561 -0.360618 -9.10694e-07)
(9.02539 -0.360606 -8.56105e-08)
(9.08969 -0.370045 3.75348e-07)
(9.08991 -0.370057 1.99759e-06)
(9.08991 -0.370057 3.73885e-06)
(9.0899 -0.370058 5.06651e-06)
(9.0899 -0.370058 6.1847e-06)
(9.08989 -0.370059 7.09912e-06)
(9.08989 -0.370059 7.79354e-06)
(9.08988 -0.37006 8.22316e-06)
(9.08987 -0.370061 8.41728e-06)
(9.08987 -0.370062 8.34634e-06)
(9.08986 -0.370062 8.05939e-06)
(9.08985 -0.370063 7.54267e-06)
(9.08984 -0.370064 6.86889e-06)
(9.08984 -0.370064 6.0314e-06)
(9.08983 -0.370065 5.12907e-06)
(9.08983 -0.370065 4.15632e-06)
(9.08982 -0.370066 3.17352e-06)
(9.08982 -0.370066 2.21626e-06)
(9.08982 -0.370066 1.50527e-06)
(9.0896 -0.370054 7.3135e-07)
(9.06435 -0.572629 -1.16825e-06)
(9.06457 -0.572646 -3.11938e-06)
(9.06457 -0.572645 -4.85454e-06)
(9.06457 -0.572644 -6.51268e-06)
(9.06457 -0.572644 -7.77723e-06)
(9.06457 -0.572643 -8.96593e-06)
(9.06457 -0.572642 -9.82419e-06)
(9.06457 -0.572641 -1.04103e-05)
(9.06457 -0.57264 -1.06577e-05)
(9.06457 -0.572639 -1.0597e-05)
(9.06457 -0.572638 -1.02174e-05)
(9.06457 -0.572637 -9.57128e-06)
(9.06457 -0.572636 -8.67727e-06)
(9.06457 -0.572635 -7.63278e-06)
(9.06457 -0.572635 -6.43463e-06)
(9.06457 -0.572635 -5.25112e-06)
(9.06457 -0.572634 -3.84484e-06)
(9.06457 -0.572634 -2.65579e-06)
(9.06457 -0.572634 -1.27452e-06)
(9.06435 -0.572617 -1.96997e-07)
(9.1428 -0.575597 4.89806e-07)
(9.14302 -0.575614 2.53692e-06)
(9.14302 -0.575614 4.72322e-06)
(9.14301 -0.575614 6.3022e-06)
(9.14301 -0.575613 7.5814e-06)
(9.143 -0.575613 8.67248e-06)
(9.143 -0.575612 9.5197e-06)
(9.14299 -0.575611 1.00276e-05)
(9.14298 -0.575611 1.0253e-05)
(9.14297 -0.57561 1.01354e-05)
(9.14297 -0.575609 9.74617e-06)
(9.14296 -0.575609 9.05758e-06)
(9.14295 -0.575608 8.17214e-06)
(9.14294 -0.575608 7.07413e-06)
(9.14294 -0.575607 5.90929e-06)
(9.14293 -0.575607 4.6578e-06)
(9.14293 -0.575607 3.35951e-06)
(9.14293 -0.575607 2.21658e-06)
(9.14293 -0.575607 1.49174e-06)
(9.14271 -0.57559 7.42882e-07)
(9.10453 -0.82819 -1.01979e-06)
(9.10475 -0.828212 -2.64768e-06)
(9.10475 -0.828212 -3.87801e-06)
(9.10475 -0.828212 -5.39947e-06)
(9.10475 -0.828213 -6.82558e-06)
(9.10475 -0.828213 -7.93373e-06)
(9.10475 -0.828214 -8.74407e-06)
(9.10474 -0.828214 -9.29373e-06)
(9.10474 -0.828215 -9.52701e-06)
(9.10474 -0.828216 -9.49934e-06)
(9.10474 -0.828217 -9.18742e-06)
(9.10474 -0.828217 -8.66409e-06)
(9.10474 -0.828218 -7.93137e-06)
(9.10473 -0.828219 -7.09772e-06)
(9.10473 -0.82822 -6.15925e-06)
(9.10473 -0.82822 -5.22406e-06)
(9.10473 -0.828221 -4.30572e-06)
(9.10473 -0.828222 -3.24515e-06)
(9.10473 -0.828223 -1.63938e-06)
(9.10451 -0.8282 -3.86114e-07)
(9.17558 -0.822573 3.80676e-07)
(9.1758 -0.822594 2.49191e-06)
(9.1758 -0.822593 4.13031e-06)
(9.1758 -0.822591 5.38316e-06)
(9.17579 -0.822589 6.8501e-06)
(9.17579 -0.822586 7.76276e-06)
(9.17578 -0.822583 8.58166e-06)
(9.17578 -0.82258 8.99231e-06)
(9.17577 -0.822577 9.17583e-06)
(9.17576 -0.822574 9.00444e-06)
(9.17576 -0.822571 8.59075e-06)
(9.17575 -0.822568 7.8738e-06)
(9.17575 -0.822565 7.00012e-06)
(9.17574 -0.822563 5.89829e-06)
(9.17574 -0.822562 4.84051e-06)
(9.17573 -0.82256 3.60435e-06)
(9.17573 -0.822559 2.74634e-06)
(9.17573 -0.822558 1.61293e-06)
(9.17573 -0.822559 7.45637e-07)
(9.17551 -0.822537 5.581e-07)
(9.12199 -1.12908 -3.70958e-07)
(9.1222 -1.1291 -6.57069e-07)
(9.1222 -1.1291 -1.46534e-06)
(9.1222 -1.1291 -2.41586e-06)
(9.1222 -1.12911 -2.95138e-06)
(9.12219 -1.12911 -3.55397e-06)
(9.12219 -1.12911 -3.89163e-06)
(9.12219 -1.12911 -4.20319e-06)
(9.12218 -1.12912 -4.3334e-06)
(9.12218 -1.12912 -4.40549e-06)
(9.12217 -1.12912 -4.34534e-06)
(9.12217 -1.12913 -4.24883e-06)
(9.12217 -1.12913 -4.04497e-06)
(9.12216 -1.12913 -3.86398e-06)
(9.12216 -1.12914 -3.55352e-06)
(9.12216 -1.12914 -3.3547e-06)
(9.12216 -1.12914 -2.88157e-06)
(9.12216 -1.12914 -2.58422e-06)
(9.12216 -1.12914 -1.91054e-06)
(9.12194 -1.12912 -5.33341e-07)
(9.15886 -1.10801 3.62846e-06)
(9.15906 -1.10803 2.41443e-06)
(9.15905 -1.10803 2.90562e-06)
(9.15904 -1.10803 2.65339e-06)
(9.15904 -1.10802 3.30209e-06)
(9.15904 -1.10802 3.52756e-06)
(9.15903 -1.10802 3.90924e-06)
(9.15903 -1.10801 3.99597e-06)
(9.15902 -1.10801 4.0236e-06)
(9.15902 -1.108 3.81594e-06)
(9.15901 -1.108 3.48771e-06)
(9.15901 -1.10799 2.94553e-06)
(9.159 -1.10799 2.34326e-06)
(9.159 -1.10798 1.56326e-06)
(9.159 -1.10798 9.09087e-07)
(9.159 -1.10798 3.59806e-08)
(9.15899 -1.10798 -3.91736e-07)
(9.15899 -1.10797 -1.61076e-06)
(9.159 -1.10798 -2.04169e-06)
(9.1588 -1.10795 -3.70379e-06)
(8.76695 0.756348 9.23759e-07)
(8.76715 0.756366 8.19363e-08)
(8.76715 0.756364 1.21762e-06)
(8.76715 0.756363 1.28171e-06)
(8.76715 0.75636 1.95354e-06)
(8.76715 0.756358 2.17994e-06)
(8.76715 0.756355 2.55255e-06)
(8.76715 0.756352 2.6984e-06)
(8.76715 0.756349 2.84341e-06)
(8.76715 0.756345 2.8393e-06)
(8.76715 0.756342 2.80059e-06)
(8.76715 0.756339 2.63457e-06)
(8.76715 0.756336 2.46287e-06)
(8.76715 0.756333 2.15257e-06)
(8.76715 0.756331 1.95278e-06)
(8.76715 0.756329 1.50332e-06)
(8.76715 0.756327 1.44789e-06)
(8.76715 0.756325 7.08212e-07)
(8.76716 0.756325 9.67499e-07)
(8.76695 0.756306 -6.54639e-07)
(8.7666 0.758251 -8.13788e-07)
(8.76681 0.75827 -1.21938e-06)
(8.76681 0.75827 -1.47688e-06)
(8.76681 0.758271 -2.03711e-06)
(8.76681 0.758272 -2.25506e-06)
(8.76681 0.758273 -2.61666e-06)
(8.76681 0.758274 -2.75849e-06)
(8.76681 0.758276 -2.92074e-06)
(8.76681 0.758277 -2.9427e-06)
(8.76681 0.758278 -2.94689e-06)
(8.76681 0.75828 -2.85337e-06)
(8.76681 0.758281 -2.75108e-06)
(8.76681 0.758283 -2.55706e-06)
(8.76681 0.758284 -2.39598e-06)
(8.76681 0.758285 -2.09499e-06)
(8.76682 0.758286 -1.91e-06)
(8.76682 0.758286 -1.44005e-06)
(8.76682 0.758287 -1.20055e-06)
(8.76682 0.758288 -5.61763e-07)
(8.7666 0.758269 1.38049e-07)
(8.79059 0.548297 -1.60221e-08)
(8.7908 0.54831 1.08926e-06)
(8.7908 0.548309 2.07589e-06)
(8.7908 0.548308 2.83349e-06)
(8.7908 0.548306 3.86105e-06)
(8.7908 0.548304 4.42876e-06)
(8.7908 0.548302 4.99061e-06)
(8.7908 0.548299 5.28549e-06)
(8.7908 0.548297 5.47049e-06)
(8.7908 0.548294 5.45293e-06)
(8.7908 0.548292 5.32121e-06)
(8.7908 0.548289 5.02041e-06)
(8.7908 0.548287 4.64981e-06)
(8.7908 0.548285 4.13856e-06)
(8.7908 0.548283 3.67447e-06)
(8.7908 0.548281 3.00971e-06)
(8.7908 0.54828 2.66704e-06)
(8.7908 0.548279 1.9054e-06)
(8.7908 0.548278 1.28138e-06)
(8.79059 0.548264 7.6526e-07)
(8.78439 0.544399 -9.08792e-07)
(8.7846 0.544412 -2.20382e-06)
(8.7846 0.544412 -3.23584e-06)
(8.7846 0.544411 -4.40646e-06)
(8.78461 0.54441 -5.41399e-06)
(8.78461 0.54441 -6.23201e-06)
(8.78461 0.544409 -6.78702e-06)
(8.78461 0.544408 -7.18189e-06)
(8.78461 0.544407 -7.34066e-06)
(8.78461 0.544406 -7.33832e-06)
(8.78461 0.544405 -7.14459e-06)
(8.78461 0.544404 -6.81847e-06)
(8.78461 0.544404 -6.33008e-06)
(8.78461 0.544403 -5.77792e-06)
(8.78461 0.544402 -5.08101e-06)
(8.78461 0.544402 -4.38908e-06)
(8.78461 0.544401 -3.6019e-06)
(8.78462 0.544401 -2.7561e-06)
(8.78462 0.544401 -1.53316e-06)
(8.7844 0.544388 -3.78691e-07)
(8.80429 0.346622 3.23239e-08)
(8.80451 0.34663 7.67807e-07)
(8.80451 0.34663 1.60016e-06)
(8.80451 0.346631 2.19475e-06)
(8.80451 0.346631 2.73244e-06)
(8.80451 0.34663 3.15009e-06)
(8.80451 0.34663 3.5212e-06)
(8.80451 0.34663 3.73159e-06)
(8.80451 0.34663 3.86131e-06)
(8.80451 0.34663 3.84682e-06)
(8.80451 0.34663 3.75425e-06)
(8.80451 0.34663 3.53929e-06)
(8.80451 0.34663 3.2805e-06)
(8.80451 0.34663 2.91981e-06)
(8.80451 0.34663 2.57497e-06)
(8.80451 0.34663 2.12439e-06)
(8.80451 0.34663 1.70819e-06)
(8.80451 0.34663 1.22033e-06)
(8.80451 0.34663 9.51023e-07)
(8.8043 0.346621 5.42191e-07)
(8.7983 0.337677 -8.46391e-07)
(8.79851 0.337684 -2.21047e-06)
(8.79851 0.337683 -3.46218e-06)
(8.79851 0.337682 -4.6298e-06)
(8.79851 0.33768 -5.50629e-06)
(8.79851 0.337678 -6.31851e-06)
(8.79851 0.337676 -6.87085e-06)
(8.79851 0.337674 -7.26649e-06)
(8.79851 0.337671 -7.42427e-06)
(8.79851 0.337669 -7.4113e-06)
(8.79851 0.337666 -7.19105e-06)
(8.79851 0.337664 -6.82717e-06)
(8.79851 0.337662 -6.28609e-06)
(8.79851 0.33766 -5.66602e-06)
(8.79851 0.337658 -4.89088e-06)
(8.79851 0.337657 -4.12385e-06)
(8.79851 0.337655 -3.1562e-06)
(8.79851 0.337655 -2.2937e-06)
(8.79851 0.337654 -1.29003e-06)
(8.7983 0.337646 -3.13662e-07)
(8.80811 0.155491 -3.25441e-07)
(8.80832 0.155495 -3.90677e-07)
(8.80832 0.155495 -3.48458e-07)
(8.80832 0.155496 -4.12347e-07)
(8.80832 0.155497 -4.47813e-07)
(8.80832 0.155498 -5.04205e-07)
(8.80832 0.155499 -5.14999e-07)
(8.80832 0.1555 -5.48508e-07)
(8.80832 0.155501 -5.42351e-07)
(8.80832 0.155502 -5.45922e-07)
(8.80832 0.155503 -5.07692e-07)
(8.80832 0.155504 -4.75457e-07)
(8.80832 0.155506 -3.94895e-07)
(8.80832 0.155507 -3.31206e-07)
(8.80832 0.155508 -2.09692e-07)
(8.80832 0.155508 -1.37858e-07)
(8.80832 0.155509 -9.55014e-09)
(8.80832 0.15551 5.32439e-08)
(8.80832 0.15551 2.79617e-07)
(8.80811 0.155507 3.2342e-07)
(8.80909 0.141298 -6.4304e-07)
(8.8093 0.141301 -1.63985e-06)
(8.8093 0.141301 -2.54073e-06)
(8.8093 0.1413 -3.37199e-06)
(8.8093 0.141299 -3.98721e-06)
(8.8093 0.141298 -4.5806e-06)
(8.8093 0.141297 -4.98552e-06)
(8.8093 0.141295 -5.2864e-06)
(8.8093 0.141294 -5.40317e-06)
(8.8093 0.141293 -5.39073e-06)
(8.8093 0.141291 -5.20297e-06)
(8.8093 0.14129 -4.89816e-06)
(8.8093 0.141289 -4.43851e-06)
(8.8093 0.141288 -3.91626e-06)
(8.8093 0.141287 -3.26662e-06)
(8.8093 0.141286 -2.64606e-06)
(8.8093 0.141286 -1.88086e-06)
(8.8093 0.141285 -1.25165e-06)
(8.8093 0.141285 -5.58983e-07)
(8.80908 0.141282 -3.5833e-08)
(8.81121 -0.0295071 -4.96358e-07)
(8.81142 -0.0295072 -1.03487e-06)
(8.81142 -0.0295053 -1.46701e-06)
(8.81142 -0.0295025 -1.90818e-06)
(8.81142 -0.029499 -2.23466e-06)
(8.81142 -0.0294948 -2.55901e-06)
(8.81142 -0.0294901 -2.77172e-06)
(8.81142 -0.0294851 -2.93756e-06)
(8.81142 -0.0294798 -2.98967e-06)
(8.81142 -0.0294744 -2.97322e-06)
(8.81142 -0.0294692 -2.84615e-06)
(8.81142 -0.0294641 -2.65707e-06)
(8.81142 -0.0294593 -2.36773e-06)
(8.81142 -0.029455 -2.05291e-06)
(8.81142 -0.0294512 -1.65245e-06)
(8.81142 -0.0294479 -1.29022e-06)
(8.81142 -0.0294452 -8.30596e-07)
(8.81142 -0.0294433 -4.82124e-07)
(8.81142 -0.0294419 -2.7822e-08)
(8.8112 -0.0294402 2.08325e-07)
(8.82256 -0.0450739 8.77998e-08)
(8.82278 -0.0450761 7.22811e-07)
(8.82278 -0.0450766 1.39916e-06)
(8.82278 -0.0450775 1.96374e-06)
(8.82277 -0.0450786 2.52403e-06)
(8.82277 -0.0450798 2.92482e-06)
(8.82277 -0.0450812 3.26649e-06)
(8.82277 -0.0450827 3.4706e-06)
(8.82277 -0.0450843 3.60401e-06)
(8.82277 -0.0450859 3.62077e-06)
(8.82277 -0.0450875 3.57691e-06)
(8.82277 -0.045089 3.43461e-06)
(8.82277 -0.0450904 3.25672e-06)
(8.82276 -0.0450917 2.99125e-06)
(8.82276 -0.0450928 2.73014e-06)
(8.82276 -0.0450937 2.38129e-06)
(8.82276 -0.0450945 2.08179e-06)
(8.82276 -0.0450949 1.64722e-06)
(8.82276 -0.0450953 1.18265e-06)
(8.82254 -0.0450937 5.5443e-07)
(8.81846 -0.217984 -6.59431e-07)
(8.81868 -0.21799 -1.7282e-06)
(8.81868 -0.217989 -2.66745e-06)
(8.81868 -0.217987 -3.54676e-06)
(8.81868 -0.217985 -4.21074e-06)
(8.81867 -0.217983 -4.84859e-06)
(8.81867 -0.21798 -5.30162e-06)
(8.81867 -0.217978 -5.633e-06)
(8.81867 -0.217975 -5.77149e-06)
(8.81867 -0.217972 -5.75523e-06)
(8.81867 -0.217969 -5.55111e-06)
(8.81866 -0.217966 -5.21031e-06)
(8.81866 -0.217963 -4.71151e-06)
(8.81866 -0.217961 -4.14112e-06)
(8.81866 -0.217959 -3.44999e-06)
(8.81866 -0.217957 -2.78444e-06)
(8.81866 -0.217956 -1.97161e-06)
(8.81866 -0.217955 -1.29775e-06)
(8.81866 -0.217954 -5.641e-07)
(8.81845 -0.217947 -4.37124e-08)
(8.84176 -0.229862 4.87518e-07)
(8.84197 -0.229869 2.03678e-06)
(8.84197 -0.229869 3.61874e-06)
(8.84197 -0.22987 4.96048e-06)
(8.84197 -0.229871 6.14988e-06)
(8.84197 -0.229872 7.09956e-06)
(8.84197 -0.229873 7.85014e-06)
(8.84197 -0.229874 8.33582e-06)
(8.84197 -0.229875 8.60962e-06)
(8.84197 -0.229876 8.63261e-06)
(8.84197 -0.229877 8.46655e-06)
(8.84196 -0.229878 8.08302e-06)
(8.84196 -0.229879 7.55757e-06)
(8.84196 -0.22988 6.85851e-06)
(8.84196 -0.229881 6.08072e-06)
(8.84196 -0.229881 5.17528e-06)
(8.84196 -0.229882 4.23539e-06)
(8.84196 -0.229882 3.19124e-06)
(8.84196 -0.229883 2.15305e-06)
(8.84174 -0.229876 9.11642e-07)
(8.8292 -0.417777 -7.97101e-07)
(8.82942 -0.417788 -2.18953e-06)
(8.82942 -0.417787 -3.50402e-06)
(8.82941 -0.417786 -4.67918e-06)
(8.82941 -0.417784 -5.51611e-06)
(8.82941 -0.417782 -6.36986e-06)
(8.82941 -0.41778 -6.98118e-06)
(8.82941 -0.417777 -7.42778e-06)
(8.8294 -0.417775 -7.62872e-06)
(8.8294 -0.417772 -7.61955e-06)
(8.8294 -0.41777 -7.37398e-06)
(8.8294 -0.417768 -6.94743e-06)
(8.82939 -0.417765 -6.33284e-06)
(8.82939 -0.417763 -5.62567e-06)
(8.82939 -0.417762 -4.77672e-06)
(8.82939 -0.41776 -3.95505e-06)
(8.82939 -0.417759 -2.89359e-06)
(8.82939 -0.417759 -2.01155e-06)
(8.82939 -0.417758 -1.10772e-06)
(8.82918 -0.417746 -2.75024e-07)
(8.86105 -0.423821 8.48454e-07)
(8.86127 -0.423833 3.18931e-06)
(8.86127 -0.423833 5.59419e-06)
(8.86127 -0.423833 7.59521e-06)
(8.86127 -0.423834 9.28747e-06)
(8.86127 -0.423834 1.07083e-05)
(8.86126 -0.423834 1.1818e-05)
(8.86126 -0.423834 1.25489e-05)
(8.86126 -0.423835 1.29469e-05)
(8.86126 -0.423835 1.29641e-05)
(8.86126 -0.423835 1.26729e-05)
(8.86126 -0.423836 1.20454e-05)
(8.86126 -0.423836 1.11767e-05)
(8.86126 -0.423837 1.00462e-05)
(8.86125 -0.423837 8.76698e-06)
(8.86125 -0.423837 7.32468e-06)
(8.86125 -0.423838 5.76542e-06)
(8.86125 -0.423838 4.18836e-06)
(8.86125 -0.423838 2.74684e-06)
(8.86103 -0.423827 1.11015e-06)
(8.83772 -0.634954 -8.3597e-07)
(8.83793 -0.634971 -2.28848e-06)
(8.83793 -0.63497 -3.75707e-06)
(8.83793 -0.634969 -5.03333e-06)
(8.83793 -0.634968 -5.8709e-06)
(8.83792 -0.634967 -6.81177e-06)
(8.83792 -0.634965 -7.48095e-06)
(8.83792 -0.634964 -7.97858e-06)
(8.83791 -0.634963 -8.21122e-06)
(8.83791 -0.634961 -8.22489e-06)
(8.83791 -0.63496 -7.99447e-06)
(8.83791 -0.634958 -7.58531e-06)
(8.8379 -0.634957 -6.99509e-06)
(8.8379 -0.634956 -6.3254e-06)
(8.8379 -0.634955 -5.5198e-06)
(8.8379 -0.634955 -4.74266e-06)
(8.8379 -0.634954 -3.60542e-06)
(8.8379 -0.634954 -2.65599e-06)
(8.8379 -0.634954 -1.63752e-06)
(8.83769 -0.634938 -4.8363e-07)
(8.86866 -0.633431 1.0656e-06)
(8.86887 -0.633447 3.93878e-06)
(8.86887 -0.633447 6.9101e-06)
(8.86887 -0.633447 9.27544e-06)
(8.86887 -0.633446 1.11842e-05)
(8.86887 -0.633445 1.28698e-05)
(8.86887 -0.633444 1.42129e-05)
(8.86887 -0.633443 1.50764e-05)
(8.86887 -0.633442 1.55441e-05)
(8.86887 -0.633441 1.55234e-05)
(8.86887 -0.63344 1.51196e-05)
(8.86886 -0.633439 1.42844e-05)
(8.86886 -0.633438 1.3154e-05)
(8.86886 -0.633438 1.16903e-05)
(8.86886 -0.633437 1.00683e-05)
(8.86886 -0.633437 8.25012e-06)
(8.86886 -0.633437 6.23439e-06)
(8.86886 -0.633436 4.37877e-06)
(8.86885 -0.633436 2.84757e-06)
(8.86864 -0.63342 1.13438e-06)
(8.83265 -0.869454 -6.11984e-07)
(8.83286 -0.869476 -1.62538e-06)
(8.83286 -0.869476 -2.26269e-06)
(8.83286 -0.869476 -3.29691e-06)
(8.83285 -0.869476 -4.42566e-06)
(8.83285 -0.869477 -5.21787e-06)
(8.83285 -0.869478 -5.80264e-06)
(8.83285 -0.869478 -6.22951e-06)
(8.83284 -0.869479 -6.43157e-06)
(8.83284 -0.86948 -6.49029e-06)
(8.83284 -0.869481 -6.35793e-06)
(8.83283 -0.869482 -6.12745e-06)
(8.83283 -0.869483 -5.76974e-06)
(8.83283 -0.869484 -5.39565e-06)
(8.83283 -0.869485 -4.96017e-06)
(8.83283 -0.869486 -4.52293e-06)
(8.83283 -0.869487 -4.16791e-06)
(8.83283 -0.869489 -3.39218e-06)
(8.83283 -0.869489 -2.01006e-06)
(8.83261 -0.869468 -7.18279e-07)
(8.85179 -0.858095 8.89615e-07)
(8.85201 -0.858116 3.75355e-06)
(8.85201 -0.858114 5.83909e-06)
(8.85201 -0.858113 7.83147e-06)
(8.85201 -0.85811 1.01655e-05)
(8.85201 -0.858108 1.16486e-05)
(8.85201 -0.858105 1.29879e-05)
(8.85201 -0.858101 1.37313e-05)
(8.852 -0.858098 1.41487e-05)
(8.852 -0.858095 1.40528e-05)
(8.852 -0.858091 1.36107e-05)
(8.852 -0.858088 1.27278e-05)
(8.852 -0.858085 1.16068e-05)
(8.852 -0.858083 1.0132e-05)
(8.852 -0.858081 8.66782e-06)
(8.852 -0.858079 6.89113e-06)
(8.852 -0.858078 5.63082e-06)
(8.85199 -0.858076 3.84963e-06)
(8.85199 -0.858076 1.95023e-06)
(8.85178 -0.858055 8.92083e-07)
(8.80435 -1.11213 -7.53386e-08)
(8.80457 -1.11216 2.60816e-07)
(8.80457 -1.11216 2.77493e-08)
(8.80457 -1.11216 -3.36214e-07)
(8.80456 -1.11216 -3.25337e-07)
(8.80456 -1.11217 -5.25604e-07)
(8.80456 -1.11217 -5.2829e-07)
(8.80456 -1.11217 -6.54039e-07)
(8.80456 -1.11218 -6.87946e-07)
(8.80455 -1.11218 -8.06852e-07)
(8.80455 -1.11218 -8.89499e-07)
(8.80455 -1.11219 -1.06386e-06)
(8.80455 -1.11219 -1.20491e-06)
(8.80455 -1.11219 -1.46869e-06)
(8.80454 -1.1122 -1.62283e-06)
(8.80454 -1.1122 -1.90686e-06)
(8.80454 -1.1122 -1.84115e-06)
(8.80454 -1.1122 -1.87494e-06)
(8.80454 -1.11221 -1.62976e-06)
(8.80432 -1.11218 -5.3153e-07)
(8.81907 -1.08991 3.93226e-06)
(8.81925 -1.08993 3.4821e-06)
(8.81924 -1.08993 4.4546e-06)
(8.81924 -1.08993 4.87402e-06)
(8.81924 -1.08992 6.21115e-06)
(8.81924 -1.08992 6.94257e-06)
(8.81924 -1.08991 7.77085e-06)
(8.81924 -1.08991 8.13529e-06)
(8.81924 -1.0899 8.34592e-06)
(8.81924 -1.0899 8.15918e-06)
(8.81924 -1.08989 7.76014e-06)
(8.81924 -1.08989 7.01942e-06)
(8.81924 -1.08988 6.15357e-06)
(8.81923 -1.08988 5.00492e-06)
(8.81923 -1.08988 3.96915e-06)
(8.81923 -1.08987 2.64655e-06)
(8.81923 -1.08987 1.80751e-06)
(8.81923 -1.08987 1.17854e-07)
(8.81924 -1.08987 -1.13217e-06)
(8.81905 -1.08985 -3.40729e-06)
(8.73079 0.739515 3.84698e-07)
(8.73099 0.739534 -3.97539e-07)
(8.73099 0.739533 8.83068e-07)
(8.73099 0.739531 1.05503e-06)
(8.73099 0.739529 1.73561e-06)
(8.73099 0.739526 1.96948e-06)
(8.73099 0.739524 2.34415e-06)
(8.73099 0.739521 2.49824e-06)
(8.73099 0.739517 2.65952e-06)
(8.73099 0.739514 2.67547e-06)
(8.73099 0.739511 2.66536e-06)
(8.73099 0.739508 2.53093e-06)
(8.73099 0.739505 2.39932e-06)
(8.73099 0.739502 2.1304e-06)
(8.73099 0.7395 1.97795e-06)
(8.73099 0.739498 1.58553e-06)
(8.73099 0.739496 1.58833e-06)
(8.73099 0.739494 9.92943e-07)
(8.73099 0.739494 1.43483e-06)
(8.73079 0.739474 -1.07118e-07)
(8.73591 0.740536 -1.06113e-06)
(8.73612 0.740556 -1.48382e-06)
(8.73612 0.740556 -1.63467e-06)
(8.73612 0.740557 -2.15327e-06)
(8.73613 0.740557 -2.35643e-06)
(8.73613 0.740558 -2.70928e-06)
(8.73613 0.740559 -2.84205e-06)
(8.73613 0.740559 -2.99702e-06)
(8.73613 0.74056 -3.00708e-06)
(8.73613 0.740561 -3.00383e-06)
(8.73613 0.740562 -2.89805e-06)
(8.73613 0.740563 -2.78638e-06)
(8.73613 0.740564 -2.57731e-06)
(8.73613 0.740564 -2.40005e-06)
(8.73613 0.740565 -2.07746e-06)
(8.73613 0.740565 -1.86686e-06)
(8.73613 0.740566 -1.36047e-06)
(8.73613 0.740566 -1.06741e-06)
(8.73613 0.740567 -2.87133e-07)
(8.73592 0.740547 4.11768e-07)
(8.7622 0.529096 -3.59894e-07)
(8.76241 0.52911 5.54276e-07)
(8.76241 0.529109 1.38108e-06)
(8.76241 0.529108 1.97266e-06)
(8.76241 0.529107 2.89199e-06)
(8.76241 0.529105 3.34881e-06)
(8.76241 0.529103 3.84002e-06)
(8.76241 0.529101 4.09585e-06)
(8.76241 0.529099 4.28022e-06)
(8.76241 0.529097 4.29703e-06)
(8.76241 0.529094 4.23055e-06)
(8.76241 0.529092 4.02338e-06)
(8.76241 0.52909 3.77394e-06)
(8.76241 0.529088 3.39413e-06)
(8.76241 0.529087 3.08545e-06)
(8.76241 0.529085 2.57545e-06)
(8.76241 0.529084 2.42232e-06)
(8.76241 0.529083 1.8129e-06)
(8.76241 0.529082 1.3642e-06)
(8.7622 0.529068 9.69318e-07)
(8.7397 0.523258 -1.02364e-06)
(8.73991 0.523272 -2.18923e-06)
(8.73991 0.523272 -3.01466e-06)
(8.73991 0.523271 -4.08501e-06)
(8.73991 0.52327 -5.00959e-06)
(8.73991 0.52327 -5.75864e-06)
(8.73991 0.523269 -6.2623e-06)
(8.73991 0.523268 -6.62476e-06)
(8.73991 0.523268 -6.76755e-06)
(8.73991 0.523267 -6.77484e-06)
(8.73991 0.523266 -6.60252e-06)
(8.73991 0.523265 -6.32187e-06)
(8.73991 0.523264 -5.88782e-06)
(8.73991 0.523264 -5.39619e-06)
(8.73991 0.523263 -4.76598e-06)
(8.73991 0.523263 -4.13337e-06)
(8.73991 0.523262 -3.40057e-06)
(8.73991 0.523262 -2.60268e-06)
(8.73991 0.523262 -1.32326e-06)
(8.7397 0.523248 -1.83386e-07)
(8.76038 0.330519 -2.61987e-07)
(8.76059 0.330527 3.24898e-07)
(8.76059 0.330527 1.04719e-06)
(8.76059 0.330528 1.47943e-06)
(8.76059 0.330528 1.90893e-06)
(8.76059 0.330528 2.2244e-06)
(8.76059 0.330527 2.52848e-06)
(8.76059 0.330527 2.69962e-06)
(8.76059 0.330527 2.82486e-06)
(8.76059 0.330527 2.83366e-06)
(8.76059 0.330527 2.79579e-06)
(8.76059 0.330527 2.659e-06)
(8.76059 0.330527 2.50485e-06)
(8.76059 0.330527 2.26051e-06)
(8.76059 0.330527 2.05061e-06)
(8.76059 0.330527 1.73469e-06)
(8.76059 0.330527 1.47736e-06)
(8.76059 0.330527 1.1066e-06)
(8.76059 0.330527 1.02926e-06)
(8.76038 0.330518 7.35786e-07)
(8.74354 0.321323 -9.53721e-07)
(8.74375 0.321331 -2.16815e-06)
(8.74375 0.32133 -3.22102e-06)
(8.74375 0.321329 -4.28736e-06)
(8.74375 0.321327 -5.06929e-06)
(8.74375 0.321326 -5.81335e-06)
(8.74376 0.321324 -6.31629e-06)
(8.74376 0.321322 -6.68385e-06)
(8.74376 0.32132 -6.83103e-06)
(8.74376 0.321318 -6.83029e-06)
(8.74376 0.321316 -6.63679e-06)
(8.74376 0.321314 -6.32049e-06)
(8.74376 0.321312 -5.83714e-06)
(8.74376 0.32131 -5.28592e-06)
(8.74376 0.321309 -4.58262e-06)
(8.74376 0.321308 -3.88596e-06)
(8.74376 0.321307 -2.97249e-06)
(8.74376 0.321306 -2.16544e-06)
(8.74376 0.321306 -1.11965e-06)