/*--------------------------------*- C++ -*----------------------------------*\
| =========                 |                                                 |
| \\      /  F ield         | OpenFOAM: The Open Source CFD Toolbox           |
|  \\    /   O peration     | Version:  2212                                  |
|   \\  /    A nd           | Website:  www.openfoam.com                      |
|    \\/     M anipulation  |                                                 |
\*---------------------------------------------------------------------------*/
FoamFile
{
    version     2.0;
    format      ascii;
    arch        "LSB;label=32;scalar=64";
    class       volVectorField;
    location    "0.045";
    object      UMean;
}
// * * * * * * * * * * * * * * * * * * * * * * * * * * * * * * * * * * * * * //

dimensions      [0 1 -1 0 0 0 0];

internalField   nonuniform List<vector> 
24240
(
(9.84412 0.486974 3.74486e-07)
(9.84413 0.486975 -3.77342e-07)
(9.84413 0.486975 -4.15588e-07)
(9.84413 0.486975 -6.49897e-07)
(9.84413 0.486975 -8.18914e-07)
(9.84413 0.486975 -1.00463e-06)
(9.84413 0.486976 -1.17536e-06)
(9.84413 0.486976 -1.33401e-06)
(9.84413 0.486976 -1.47378e-06)
(9.84413 0.486976 -1.58847e-06)
(9.84414 0.486977 -1.67205e-06)
(9.84414 0.486977 -1.71774e-06)
(9.84414 0.486978 -1.71997e-06)
(9.84414 0.486978 -1.67848e-06)
(9.84414 0.486978 -1.59534e-06)
(9.84414 0.486979 -1.46929e-06)
(9.84414 0.486979 -1.29931e-06)
(9.84414 0.48698 -1.13148e-06)
(9.84414 0.48698 -6.73463e-07)
(9.84412 0.486979 -7.71288e-07)
(9.17192 0.504039 -9.86825e-08)
(9.17194 0.50404 -2.3601e-07)
(9.17194 0.50404 -3.17229e-07)
(9.17194 0.50404 -4.38661e-07)
(9.17194 0.504039 -5.47253e-07)
(9.17194 0.504039 -6.60721e-07)
(9.17194 0.504039 -7.67176e-07)
(9.17193 0.504038 -8.64554e-07)
(9.17193 0.504038 -9.47507e-07)
(9.17193 0.504037 -1.01115e-06)
(9.17193 0.504036 -1.05203e-06)
(9.17193 0.504036 -1.06441e-06)
(9.17193 0.504035 -1.04703e-06)
(9.17193 0.504035 -9.98664e-07)
(9.17193 0.504034 -9.21563e-07)
(9.17193 0.504034 -8.20602e-07)
(9.17193 0.504033 -6.99285e-07)
(9.17193 0.504033 -5.66956e-07)
(9.17193 0.504033 -4.03851e-07)
(9.17191 0.504031 -1.69838e-07)
(9.17283 0.1813 -2.12764e-07)
(9.17285 0.1813 -4.63568e-07)
(9.17285 0.1813 -7.37959e-07)
(9.17285 0.1813 -1.03236e-06)
(9.17285 0.181301 -1.31518e-06)
(9.17285 0.181301 -1.58982e-06)
(9.17285 0.181301 -1.84614e-06)
(9.17285 0.181302 -2.07587e-06)
(9.17285 0.181302 -2.27211e-06)
(9.17285 0.181303 -2.42549e-06)
(9.17285 0.181303 -2.52851e-06)
(9.17285 0.181304 -2.57346e-06)
(9.17285 0.181305 -2.55448e-06)
(9.17286 0.181305 -2.46896e-06)
(9.17286 0.181306 -2.31788e-06)
(9.17286 0.181306 -2.10062e-06)
(9.17286 0.181307 -1.8326e-06)
(9.17286 0.181307 -1.48473e-06)
(9.17286 0.181308 -1.03747e-06)
(9.17284 0.181308 -3.58401e-07)
(8.88525 0.182105 -1.36019e-08)
(8.88527 0.182105 -4.13092e-08)
(8.88527 0.182106 -1.83485e-08)
(8.88527 0.182106 -3.71825e-09)
(8.88527 0.182106 8.19077e-09)
(8.88527 0.182107 4.95277e-09)
(8.88527 0.182107 -8.56474e-09)
(8.88526 0.182108 -2.81286e-08)
(8.88526 0.182109 -4.8275e-08)
(8.88526 0.18211 -6.27084e-08)
(8.88526 0.18211 -6.68228e-08)
(8.88526 0.182111 -5.75159e-08)
(8.88526 0.182112 -3.3365e-08)
(8.88526 0.182113 6.27436e-09)
(8.88526 0.182114 6.00977e-08)
(8.88526 0.182114 1.27996e-07)
(8.88525 0.182115 2.02733e-07)
(8.88525 0.182116 2.67961e-07)
(8.88525 0.182116 2.35308e-07)
(8.88524 0.182116 6.96529e-08)
(8.85882 0.0814365 -8.50821e-08)
(8.85883 0.0814367 -1.93235e-07)
(8.85883 0.0814367 -2.93592e-07)
(8.85883 0.0814368 -3.98147e-07)
(8.85883 0.0814368 -5.0721e-07)
(8.85883 0.0814369 -6.22834e-07)
(8.85883 0.081437 -7.41208e-07)
(8.85883 0.0814371 -8.53932e-07)
(8.85883 0.0814372 -9.55461e-07)
(8.85883 0.0814373 -1.03689e-06)
(8.85883 0.0814374 -1.09177e-06)
(8.85883 0.0814376 -1.11479e-06)
(8.85883 0.0814377 -1.10081e-06)
(8.85883 0.0814378 -1.04794e-06)
(8.85883 0.0814379 -9.54695e-07)
(8.85883 0.081438 -8.17485e-07)
(8.85883 0.0814381 -6.45984e-07)
(8.85883 0.0814381 -4.42739e-07)
(8.85883 0.0814382 -2.59059e-07)
(8.85882 0.081438 -8.28789e-08)
(8.73122 0.073351 9.35451e-09)
(8.73124 0.0733512 2.97121e-08)
(8.73124 0.0733512 7.2102e-08)
(8.73124 0.0733512 1.09425e-07)
(8.73124 0.0733513 1.44186e-07)
(8.73124 0.0733514 1.68355e-07)
(8.73124 0.0733515 1.82948e-07)
(8.73123 0.0733517 1.90309e-07)
(8.73123 0.0733519 1.93486e-07)
(8.73123 0.0733521 1.96184e-07)
(8.73123 0.0733523 2.01152e-07)
(8.73123 0.0733525 2.10186e-07)
(8.73123 0.0733528 2.2422e-07)
(8.73123 0.073353 2.44633e-07)
(8.73123 0.0733533 2.71902e-07)
(8.73122 0.0733535 3.06996e-07)
(8.73122 0.0733536 3.43346e-07)
(8.73122 0.0733537 3.60238e-07)
(8.73122 0.0733538 2.95575e-07)
(8.73121 0.0733536 1.07101e-07)
(8.71003 0.0350366 -4.40851e-08)
(8.71005 0.0350367 -1.23843e-07)
(8.71005 0.0350366 -2.02182e-07)
(8.71005 0.0350366 -2.784e-07)
(8.71005 0.0350365 -3.50645e-07)
(8.71005 0.0350364 -4.19534e-07)
(8.71005 0.0350363 -4.84564e-07)
(8.71005 0.0350362 -5.42533e-07)
(8.71005 0.0350361 -5.92094e-07)
(8.71005 0.035036 -6.29814e-07)
(8.71005 0.0350359 -6.53647e-07)
(8.71005 0.0350359 -6.61165e-07)
(8.71005 0.0350358 -6.49802e-07)
(8.71005 0.0350357 -6.18201e-07)
(8.71005 0.0350357 -5.64312e-07)
(8.71005 0.0350356 -4.87541e-07)
(8.71005 0.0350355 -3.92109e-07)
(8.71005 0.0350353 -2.82281e-07)
(8.71005 0.0350352 -1.82419e-07)
(8.71003 0.035035 -7.00122e-08)
(8.6615 0.0270404 -6.89817e-09)
(8.66152 0.0270404 -1.70198e-08)
(8.66152 0.0270403 -1.63867e-08)
(8.66152 0.0270402 -1.33798e-08)
(8.66152 0.0270401 -1.40555e-09)
(8.66152 0.0270399 1.51274e-08)
(8.66152 0.0270397 3.52945e-08)
(8.66152 0.0270395 5.67538e-08)
(8.66152 0.0270393 7.79431e-08)
(8.66151 0.0270391 9.77203e-08)
(8.66151 0.027039 1.14447e-07)
(8.66151 0.0270388 1.28067e-07)
(8.66151 0.0270386 1.38929e-07)
(8.66151 0.0270384 1.4786e-07)
(8.66151 0.0270382 1.55931e-07)
(8.66151 0.0270379 1.61411e-07)
(8.66151 0.0270377 1.60844e-07)
(8.66151 0.0270375 1.4098e-07)
(8.66151 0.0270373 1.05568e-07)
(8.66149 0.0270371 4.00651e-08)
(8.6557 0.00520372 -7.01141e-08)
(8.65572 0.0052037 -2.10676e-07)
(8.65572 0.00520361 -3.5492e-07)
(8.65572 0.00520347 -4.90399e-07)
(8.65572 0.0052033 -6.08524e-07)
(8.65572 0.00520309 -7.07182e-07)
(8.65572 0.00520285 -7.87428e-07)
(8.65572 0.00520258 -8.5103e-07)
(8.65572 0.0052023 -9.00275e-07)
(8.65572 0.00520199 -9.3631e-07)
(8.65572 0.00520167 -9.60579e-07)
(8.65572 0.00520132 -9.71905e-07)
(8.65572 0.00520096 -9.67357e-07)
(8.65572 0.00520057 -9.44991e-07)
(8.65572 0.00520018 -9.01896e-07)
(8.65572 0.00519979 -8.4076e-07)
(8.65572 0.00519941 -7.53364e-07)
(8.65572 0.00519905 -6.37639e-07)
(8.65572 0.00519873 -4.53602e-07)
(8.65571 0.00519854 -1.66058e-07)
(8.65463 -0.00714617 -4.0788e-08)
(8.65464 -0.00714627 -1.24859e-07)
(8.65464 -0.00714642 -2.04479e-07)
(8.65464 -0.00714662 -2.75272e-07)
(8.65464 -0.00714688 -3.29184e-07)
(8.65464 -0.00714717 -3.67029e-07)
(8.65464 -0.00714748 -3.92211e-07)
(8.65464 -0.00714781 -4.0889e-07)
(8.65464 -0.00714814 -4.22805e-07)
(8.65464 -0.00714848 -4.36832e-07)
(8.65464 -0.0071488 -4.53855e-07)
(8.65464 -0.00714911 -4.73628e-07)
(8.65464 -0.0071494 -4.91223e-07)
(8.65464 -0.00714966 -5.03081e-07)
(8.65464 -0.00714989 -5.03805e-07)
(8.65464 -0.00715009 -4.94249e-07)
(8.65464 -0.00715025 -4.66868e-07)
(8.65464 -0.00715037 -4.29038e-07)
(8.65464 -0.00715047 -3.05891e-07)
(8.65462 -0.00715043 -1.02796e-07)
(8.67179 -0.0224604 -1.35355e-07)
(8.67181 -0.0224607 -3.99984e-07)
(8.67181 -0.0224611 -6.47439e-07)
(8.67181 -0.0224618 -8.72129e-07)
(8.67181 -0.0224626 -1.06103e-06)
(8.67181 -0.0224636 -1.2117e-06)
(8.67181 -0.0224648 -1.32541e-06)
(8.67181 -0.022466 -1.40585e-06)
(8.67181 -0.0224673 -1.45742e-06)
(8.67181 -0.0224686 -1.48478e-06)
(8.67181 -0.0224699 -1.49039e-06)
(8.67182 -0.0224712 -1.47399e-06)
(8.67182 -0.0224724 -1.43229e-06)
(8.67182 -0.0224735 -1.36396e-06)
(8.67182 -0.0224745 -1.26616e-06)
(8.67182 -0.0224753 -1.1471e-06)
(8.67182 -0.022476 -9.94431e-07)
(8.67182 -0.0224765 -8.19811e-07)
(8.67182 -0.0224769 -5.16391e-07)
(8.6718 -0.0224769 -1.51411e-07)
(8.70513 -0.0373297 -2.36059e-07)
(8.70515 -0.03733 -6.97855e-07)
(8.70515 -0.0373303 -1.13085e-06)
(8.70515 -0.0373307 -1.52343e-06)
(8.70515 -0.0373313 -1.85954e-06)
(8.70515 -0.037332 -2.13444e-06)
(8.70515 -0.0373328 -2.34649e-06)
(8.70516 -0.0373336 -2.49672e-06)
(8.70516 -0.0373344 -2.58918e-06)
(8.70516 -0.0373353 -2.62675e-06)
(8.70516 -0.0373361 -2.61144e-06)
(8.70516 -0.0373369 -2.54371e-06)
(8.70516 -0.0373377 -2.42215e-06)
(8.70517 -0.0373383 -2.24816e-06)
(8.70517 -0.0373389 -2.02434e-06)
(8.70517 -0.0373393 -1.76758e-06)
(8.70517 -0.0373396 -1.47501e-06)
(8.70517 -0.0373398 -1.16314e-06)
(8.70517 -0.03734 -6.91597e-07)
(8.70516 -0.0373398 -1.8932e-07)
(8.75255 -0.0578521 -2.79907e-07)
(8.75257 -0.0578524 -8.17189e-07)
(8.75257 -0.0578527 -1.2997e-06)
(8.75257 -0.0578532 -1.73904e-06)
(8.75257 -0.0578537 -2.11379e-06)
(8.75257 -0.0578545 -2.41608e-06)
(8.75257 -0.0578553 -2.64671e-06)
(8.75258 -0.0578562 -2.80454e-06)
(8.75258 -0.0578572 -2.89309e-06)
(8.75258 -0.0578582 -2.91615e-06)
(8.75258 -0.0578592 -2.87588e-06)
(8.75258 -0.0578602 -2.77302e-06)
(8.75259 -0.0578612 -2.60769e-06)
(8.75259 -0.0578621 -2.38321e-06)
(8.75259 -0.0578629 -2.10102e-06)
(8.75259 -0.0578635 -1.78834e-06)
(8.75259 -0.057864 -1.4416e-06)
(8.75259 -0.0578644 -1.09397e-06)
(8.75259 -0.0578647 -5.82855e-07)
(8.75257 -0.0578646 -1.22563e-07)
(8.8311 -0.0738071 -3.62012e-07)
(8.83112 -0.0738074 -1.07267e-06)
(8.83112 -0.0738075 -1.75574e-06)
(8.83112 -0.0738076 -2.38316e-06)
(8.83112 -0.0738078 -2.9423e-06)
(8.83113 -0.0738081 -3.41483e-06)
(8.83113 -0.0738083 -3.79491e-06)
(8.83113 -0.0738087 -4.07859e-06)
(8.83114 -0.073809 -4.26385e-06)
(8.83114 -0.0738093 -4.35011e-06)
(8.83114 -0.0738096 -4.33339e-06)
(8.83114 -0.0738098 -4.21269e-06)
(8.83115 -0.07381 -3.98636e-06)
(8.83115 -0.0738101 -3.66051e-06)
(8.83115 -0.0738102 -3.24472e-06)
(8.83115 -0.0738102 -2.77347e-06)
(8.83116 -0.0738101 -2.25547e-06)
(8.83116 -0.07381 -1.7059e-06)
(8.83116 -0.07381 -9.90147e-07)
(8.83114 -0.0738098 -2.75969e-07)
(8.90407 -0.121301 -3.08771e-07)
(8.90409 -0.121301 -9.42218e-07)
(8.90409 -0.121301 -1.51881e-06)
(8.90409 -0.121301 -2.04929e-06)
(8.90409 -0.121302 -2.5072e-06)
(8.9041 -0.121302 -2.87796e-06)
(8.9041 -0.121303 -3.15933e-06)
(8.9041 -0.121303 -3.34659e-06)
(8.9041 -0.121304 -3.44186e-06)
(8.9041 -0.121305 -3.44469e-06)
(8.90411 -0.121306 -3.35637e-06)
(8.90411 -0.121307 -3.17918e-06)
(8.90411 -0.121308 -2.91429e-06)
(8.90411 -0.121309 -2.57238e-06)
(8.90411 -0.12131 -2.1682e-06)
(8.90411 -0.12131 -1.74982e-06)
(8.90411 -0.121311 -1.33307e-06)
(8.90411 -0.121312 -9.94507e-07)
(8.90411 -0.121313 -5.55678e-07)
(8.9041 -0.121313 -1.40942e-07)
(9.07672 -0.132362 -3.8095e-07)
(9.07673 -0.132362 -1.13334e-06)
(9.07673 -0.132362 -1.94963e-06)
(9.07674 -0.132362 -2.74929e-06)
(9.07674 -0.132362 -3.49961e-06)
(9.07674 -0.132362 -4.16731e-06)
(9.07675 -0.132362 -4.74544e-06)
(9.07675 -0.132363 -5.21918e-06)
(9.07675 -0.132363 -5.58175e-06)
(9.07676 -0.132363 -5.82091e-06)
(9.07676 -0.132364 -5.92633e-06)
(9.07677 -0.132364 -5.88852e-06)
(9.07677 -0.132364 -5.70005e-06)
(9.07677 -0.132365 -5.36405e-06)
(9.07678 -0.132365 -4.8928e-06)
(9.07678 -0.132365 -4.32283e-06)
(9.07678 -0.132365 -3.69209e-06)
(9.07679 -0.132366 -3.06443e-06)
(9.07679 -0.132366 -2.17852e-06)
(9.07677 -0.132366 -7.8361e-07)
(9.14992 -0.282459 -2.26979e-07)
(9.14994 -0.282459 -8.44074e-07)
(9.14994 -0.282459 -1.50469e-06)
(9.14994 -0.28246 -2.14702e-06)
(9.14994 -0.28246 -2.71342e-06)
(9.14994 -0.282461 -3.18269e-06)
(9.14994 -0.282461 -3.55773e-06)
(9.14994 -0.282462 -3.82687e-06)
(9.14995 -0.282463 -3.99185e-06)
(9.14995 -0.282464 -4.04483e-06)
(9.14995 -0.282465 -3.98465e-06)
(9.14995 -0.282466 -3.81003e-06)
(9.14995 -0.282467 -3.52539e-06)
(9.14996 -0.282469 -3.14585e-06)
(9.14996 -0.28247 -2.68989e-06)
(9.14996 -0.282471 -2.21662e-06)
(9.14996 -0.282472 -1.80226e-06)
(9.14996 -0.282473 -1.59101e-06)
(9.14996 -0.282473 -1.08269e-06)
(9.14994 -0.282473 -3.40471e-07)
(9.55271 -0.273555 -5.27911e-07)
(9.55273 -0.273556 -1.39858e-06)
(9.55273 -0.273556 -2.3814e-06)
(9.55273 -0.273556 -3.39064e-06)
(9.55273 -0.273555 -4.35351e-06)
(9.55274 -0.273555 -5.24041e-06)
(9.55274 -0.273555 -6.03087e-06)
(9.55274 -0.273554 -6.70272e-06)
(9.55275 -0.273554 -7.2413e-06)
(9.55275 -0.273554 -7.62588e-06)
(9.55276 -0.273553 -7.84322e-06)
(9.55277 -0.273553 -7.87923e-06)
(9.55277 -0.273553 -7.72634e-06)
(9.55278 -0.273552 -7.38246e-06)
(9.55278 -0.273552 -6.84688e-06)
(9.55279 -0.273552 -6.12804e-06)
(9.55279 -0.273552 -5.24576e-06)
(9.55279 -0.273552 -4.22197e-06)
(9.5528 -0.273551 -2.91198e-06)
(9.55278 -0.27355 -1.01357e-06)
(9.55696 -0.768051 -2.94538e-07)
(9.55698 -0.768052 -8.76872e-07)
(9.55698 -0.768052 -1.31607e-06)
(9.55698 -0.768051 -1.80747e-06)
(9.55698 -0.768051 -2.26262e-06)
(9.55698 -0.76805 -2.66936e-06)
(9.55698 -0.768049 -3.0102e-06)
(9.55698 -0.768047 -3.27122e-06)
(9.55698 -0.768046 -3.449e-06)
(9.55698 -0.768045 -3.53501e-06)
(9.55699 -0.768043 -3.52587e-06)
(9.55699 -0.768041 -3.41883e-06)
(9.55699 -0.76804 -3.21835e-06)
(9.55699 -0.768038 -2.93154e-06)
(9.55699 -0.768037 -2.55653e-06)
(9.55699 -0.768035 -2.11095e-06)
(9.55699 -0.768034 -1.59983e-06)
(9.55699 -0.768033 -1.14059e-06)
(9.55699 -0.768032 -4.27329e-07)
(9.55697 -0.76803 -4.40427e-09)
(10.5317 -0.735435 5.95253e-07)
(10.5317 -0.735437 -1.18068e-06)
(10.5317 -0.735438 -1.67246e-06)
(10.5317 -0.735438 -2.45397e-06)
(10.5317 -0.735438 -3.11286e-06)
(10.5317 -0.735439 -3.74358e-06)
(10.5317 -0.73544 -4.29567e-06)
(10.5317 -0.735441 -4.76213e-06)
(10.5317 -0.735442 -5.12999e-06)
(10.5317 -0.735443 -5.38608e-06)
(10.5317 -0.735444 -5.51973e-06)
(10.5317 -0.735445 -5.521e-06)
(10.5317 -0.735447 -5.38769e-06)
(10.5317 -0.735448 -5.12068e-06)
(10.5317 -0.735449 -4.71307e-06)
(10.5317 -0.735451 -4.1799e-06)
(10.5317 -0.735452 -3.50503e-06)
(10.5318 -0.735453 -2.82127e-06)
(10.5318 -0.735454 -1.65592e-06)
(10.5317 -0.735453 -1.56655e-06)
(8.94919 0.560728 1.40975e-07)
(8.94921 0.56073 -6.55872e-07)
(8.94921 0.560731 -9.48074e-07)
(8.94921 0.560732 -1.37604e-06)
(8.9492 0.560733 -1.73787e-06)
(8.9492 0.560735 -2.09429e-06)
(8.9492 0.560737 -2.41966e-06)
(8.9492 0.56074 -2.71054e-06)
(8.9492 0.560742 -2.95322e-06)
(8.9492 0.560745 -3.1433e-06)
(8.9492 0.560748 -3.26768e-06)
(8.9492 0.560751 -3.31844e-06)
(8.9492 0.560754 -3.29494e-06)
(8.9492 0.560757 -3.18917e-06)
(8.9492 0.56076 -3.02564e-06)
(8.9492 0.560763 -2.78985e-06)
(8.9492 0.560765 -2.55929e-06)
(8.9492 0.560768 -2.2252e-06)
(8.9492 0.560769 -1.59755e-06)
(8.94918 0.560769 -1.06248e-06)
(8.88844 0.591119 1.14371e-07)
(8.88845 0.59112 3.05766e-07)
(8.88845 0.59112 6.10352e-07)
(8.88845 0.59112 8.61511e-07)
(8.88845 0.59112 1.10812e-06)
(8.88845 0.591121 1.30616e-06)
(8.88845 0.591121 1.46645e-06)
(8.88845 0.591121 1.58648e-06)
(8.88845 0.591121 1.67254e-06)
(8.88845 0.591122 1.7275e-06)
(8.88844 0.591122 1.75563e-06)
(8.88844 0.591122 1.75884e-06)
(8.88844 0.591123 1.7356e-06)
(8.88844 0.591123 1.68861e-06)
(8.88844 0.591123 1.60807e-06)
(8.88844 0.591124 1.50873e-06)
(8.88844 0.591124 1.34257e-06)
(8.88844 0.591124 1.10887e-06)
(8.88844 0.591125 7.43413e-07)
(8.88842 0.591124 1.87296e-07)
(8.91074 0.314714 -1.72841e-07)
(8.91075 0.314714 -5.03522e-07)
(8.91075 0.314714 -7.76781e-07)
(8.91075 0.314714 -1.07547e-06)
(8.91075 0.314714 -1.36231e-06)
(8.91075 0.314713 -1.65334e-06)
(8.91075 0.314713 -1.93325e-06)
(8.91075 0.314713 -2.192e-06)
(8.91075 0.314712 -2.41669e-06)
(8.91075 0.314712 -2.59529e-06)
(8.91075 0.314712 -2.71533e-06)
(8.91075 0.314711 -2.76757e-06)
(8.91075 0.314711 -2.74692e-06)
(8.91075 0.314711 -2.64899e-06)
(8.91075 0.31471 -2.48066e-06)
(8.91075 0.31471 -2.23042e-06)
(8.91074 0.31471 -1.94622e-06)
(8.91074 0.31471 -1.55018e-06)
(8.91074 0.31471 -1.11446e-06)
(8.91073 0.314709 -4.94723e-07)
(8.76515 0.318193 8.74472e-08)
(8.76517 0.318194 2.26668e-07)
(8.76517 0.318194 4.18353e-07)
(8.76517 0.318194 5.91768e-07)
(8.76517 0.318195 7.57229e-07)
(8.76517 0.318196 8.91198e-07)
(8.76517 0.318196 9.96524e-07)
(8.76517 0.318197 1.07417e-06)
(8.76516 0.318198 1.12891e-06)
(8.76516 0.318199 1.16638e-06)
(8.76516 0.3182 1.19174e-06)
(8.76516 0.318201 1.20556e-06)
(8.76516 0.318202 1.20992e-06)
(8.76516 0.318203 1.20584e-06)
(8.76516 0.318204 1.18934e-06)
(8.76516 0.318205 1.1646e-06)
(8.76516 0.318206 1.10696e-06)
(8.76516 0.318207 9.81138e-07)
(8.76516 0.318207 6.84784e-07)
(8.76514 0.318207 2.04123e-07)
(8.7638 0.173108 -6.20664e-08)
(8.76382 0.173109 -1.41141e-07)
(8.76382 0.173109 -2.0592e-07)
(8.76382 0.173109 -2.7809e-07)
(8.76382 0.173109 -3.5647e-07)
(8.76382 0.173109 -4.49431e-07)
(8.76382 0.173109 -5.53092e-07)
(8.76382 0.173109 -6.57767e-07)
(8.76382 0.173109 -7.56699e-07)
(8.76381 0.173109 -8.40579e-07)
(8.76381 0.173109 -8.99283e-07)
(8.76381 0.173109 -9.26972e-07)
(8.76381 0.173109 -9.19286e-07)
(8.76381 0.173109 -8.71239e-07)
(8.76381 0.173109 -7.83834e-07)
(8.76381 0.173109 -6.45747e-07)
(8.76381 0.173109 -4.90236e-07)
(8.76381 0.173109 -3.05292e-07)
(8.76381 0.173109 -1.85493e-07)
(8.7638 0.173109 -8.70936e-08)
(8.66685 0.161001 8.6506e-08)
(8.66687 0.161002 2.56657e-07)
(8.66687 0.161002 4.49397e-07)
(8.66687 0.161002 6.3132e-07)
(8.66687 0.161002 8.04274e-07)
(8.66687 0.161002 9.52782e-07)
(8.66687 0.161002 1.0754e-06)
(8.66687 0.161002 1.17228e-06)
(8.66687 0.161002 1.24558e-06)
(8.66687 0.161002 1.2976e-06)
(8.66687 0.161002 1.33135e-06)
(8.66686 0.161002 1.34765e-06)
(8.66686 0.161002 1.34691e-06)
(8.66686 0.161002 1.33268e-06)
(8.66686 0.161002 1.30289e-06)
(8.66686 0.161003 1.25944e-06)
(8.66686 0.161003 1.18422e-06)
(8.66686 0.161003 1.0355e-06)
(8.66686 0.161003 7.32073e-07)
(8.66684 0.161002 2.51847e-07)
(8.65829 0.0778876 -5.14408e-08)
(8.6583 0.0778877 -1.33356e-07)
(8.6583 0.0778876 -2.09069e-07)
(8.6583 0.0778875 -2.82037e-07)
(8.6583 0.0778874 -3.49432e-07)
(8.6583 0.0778872 -4.13686e-07)
(8.6583 0.077887 -4.74545e-07)
(8.6583 0.0778868 -5.29392e-07)
(8.6583 0.0778866 -5.7631e-07)
(8.6583 0.0778865 -6.11619e-07)
(8.6583 0.0778864 -6.32794e-07)
(8.6583 0.0778862 -6.37162e-07)
(8.6583 0.0778861 -6.22031e-07)
(8.6583 0.077886 -5.84793e-07)
(8.6583 0.0778859 -5.24624e-07)
(8.6583 0.0778858 -4.38171e-07)
(8.6583 0.0778857 -3.3861e-07)
(8.6583 0.0778855 -2.26204e-07)
(8.6583 0.0778854 -1.39099e-07)
(8.65829 0.0778852 -5.62726e-08)
(8.61879 0.0614069 4.38089e-08)
(8.61881 0.0614069 1.42733e-07)
(8.61881 0.0614067 2.66298e-07)
(8.61881 0.0614064 3.91949e-07)
(8.61881 0.061406 5.26162e-07)
(8.61881 0.0614056 6.57947e-07)
(8.6188 0.0614051 7.84548e-07)
(8.6188 0.0614046 8.9952e-07)
(8.6188 0.0614041 9.99191e-07)
(8.6188 0.0614036 1.08034e-06)
(8.6188 0.0614031 1.13829e-06)
(8.6188 0.0614026 1.17316e-06)
(8.6188 0.0614021 1.18422e-06)
(8.6188 0.0614017 1.17311e-06)
(8.6188 0.0614013 1.14109e-06)
(8.6188 0.0614009 1.08586e-06)
(8.6188 0.0614005 9.96963e-07)
(8.6188 0.0614001 8.46715e-07)
(8.6188 0.0613998 6.2049e-07)
(8.61878 0.0613996 2.3845e-07)
(8.61621 0.00808097 -1.33393e-07)
(8.61622 0.00808085 -3.8345e-07)
(8.61622 0.00808055 -6.25919e-07)
(8.61622 0.00808012 -8.45706e-07)
(8.61622 0.00807955 -1.0307e-06)
(8.61622 0.00807888 -1.1786e-06)
(8.61622 0.00807812 -1.28973e-06)
(8.61622 0.00807729 -1.36756e-06)
(8.61622 0.00807641 -1.41689e-06)
(8.61623 0.00807549 -1.4399e-06)
(8.61623 0.00807454 -1.44033e-06)
(8.61623 0.00807359 -1.41804e-06)
(8.61623 0.00807263 -1.37158e-06)
(8.61623 0.00807169 -1.30049e-06)
(8.61623 0.00807078 -1.20372e-06)
(8.61623 0.00806993 -1.08539e-06)
(8.61623 0.00806914 -9.35749e-07)
(8.61623 0.00806846 -7.59048e-07)
(8.61623 0.0080679 -4.93047e-07)
(8.61621 0.00806762 -1.56462e-07)
(8.61635 -0.0200095 -8.01882e-08)
(8.61636 -0.0200096 -2.29937e-07)
(8.61636 -0.0200099 -3.56171e-07)
(8.61636 -0.0200102 -4.58187e-07)
(8.61636 -0.0200105 -5.25929e-07)
(8.61636 -0.0200109 -5.62673e-07)
(8.61636 -0.0200114 -5.7145e-07)
(8.61636 -0.0200119 -5.60834e-07)
(8.61637 -0.0200123 -5.39532e-07)
(8.61637 -0.0200128 -5.13628e-07)
(8.61637 -0.0200133 -4.88124e-07)
(8.61637 -0.0200137 -4.63908e-07)
(8.61637 -0.0200141 -4.38682e-07)
(8.61637 -0.0200145 -4.07898e-07)
(8.61637 -0.0200148 -3.66849e-07)
(8.61637 -0.0200151 -3.19124e-07)
(8.61636 -0.0200153 -2.59595e-07)
(8.61636 -0.0200154 -2.10269e-07)
(8.61636 -0.0200154 -8.61048e-08)
(8.61635 -0.0200153 8.2391e-09)
(8.63316 -0.058941 -2.23813e-07)
(8.63317 -0.0589415 -6.53793e-07)
(8.63317 -0.0589422 -1.05231e-06)
(8.63317 -0.0589432 -1.40474e-06)
(8.63317 -0.0589445 -1.69399e-06)
(8.63317 -0.058946 -1.91915e-06)
(8.63317 -0.0589478 -2.0791e-06)
(8.63317 -0.0589497 -2.18147e-06)
(8.63317 -0.0589517 -2.23335e-06)
(8.63317 -0.0589538 -2.24099e-06)
(8.63318 -0.0589559 -2.20942e-06)
(8.63318 -0.0589579 -2.14051e-06)
(8.63318 -0.0589598 -2.03301e-06)
(8.63318 -0.0589616 -1.88488e-06)
(8.63318 -0.0589632 -1.69526e-06)
(8.63318 -0.0589645 -1.47528e-06)
(8.63318 -0.0589657 -1.21127e-06)
(8.63318 -0.0589665 -9.34229e-07)
(8.63318 -0.0589671 -5.15071e-07)
(8.63316 -0.0589672 -1.1403e-07)
(8.66406 -0.0937503 -3.81958e-07)
(8.66408 -0.0937507 -1.11513e-06)
(8.66408 -0.0937511 -1.79519e-06)
(8.66408 -0.0937518 -2.40743e-06)
(8.66408 -0.0937525 -2.92745e-06)
(8.66408 -0.0937535 -3.34695e-06)
(8.66408 -0.0937545 -3.66174e-06)
(8.66408 -0.0937557 -3.87364e-06)
(8.66408 -0.0937569 -3.98942e-06)
(8.66408 -0.0937581 -4.01257e-06)
(8.66408 -0.0937592 -3.94843e-06)
(8.66408 -0.0937604 -3.79912e-06)
(8.66408 -0.0937614 -3.56686e-06)
(8.66408 -0.0937623 -3.25536e-06)
(8.66408 -0.0937631 -2.87162e-06)
(8.66408 -0.0937637 -2.43749e-06)
(8.66408 -0.0937642 -1.95005e-06)
(8.66408 -0.0937644 -1.45625e-06)
(8.66408 -0.0937646 -7.89983e-07)
(8.66407 -0.0937644 -1.78729e-07)
(8.70335 -0.14387 -4.12304e-07)
(8.70337 -0.143871 -1.21731e-06)
(8.70337 -0.143871 -1.95098e-06)
(8.70337 -0.143871 -2.6061e-06)
(8.70337 -0.143872 -3.16078e-06)
(8.70337 -0.143873 -3.60646e-06)
(8.70337 -0.143873 -3.93581e-06)
(8.70337 -0.143874 -4.15365e-06)
(8.70337 -0.143875 -4.26256e-06)
(8.70337 -0.143876 -4.26817e-06)
(8.70337 -0.143877 -4.17509e-06)
(8.70337 -0.143878 -3.98685e-06)
(8.70337 -0.143879 -3.7063e-06)
(8.70337 -0.14388 -3.33808e-06)
(8.70337 -0.143881 -2.89282e-06)
(8.70337 -0.143882 -2.39558e-06)
(8.70337 -0.143882 -1.85573e-06)
(8.70337 -0.143883 -1.33072e-06)
(8.70337 -0.143883 -6.5155e-07)
(8.70336 -0.143883 -1.16194e-07)
(8.77307 -0.176191 -4.9919e-07)
(8.77309 -0.176191 -1.45076e-06)
(8.77309 -0.176191 -2.35426e-06)
(8.77309 -0.176191 -3.18704e-06)
(8.77309 -0.176191 -3.92286e-06)
(8.77309 -0.176191 -4.5447e-06)
(8.77309 -0.176191 -5.04362e-06)
(8.77309 -0.176191 -5.41325e-06)
(8.77309 -0.176191 -5.65242e-06)
(8.77309 -0.176191 -5.75882e-06)
(8.77309 -0.176191 -5.73136e-06)
(8.77309 -0.176191 -5.56855e-06)
(8.77309 -0.176191 -5.27009e-06)
(8.77309 -0.176191 -4.83952e-06)
(8.77309 -0.176191 -4.28841e-06)
(8.77309 -0.176191 -3.64757e-06)
(8.77309 -0.17619 -2.92163e-06)
(8.77309 -0.17619 -2.17373e-06)
(8.77309 -0.17619 -1.2488e-06)
(8.77308 -0.17619 -3.36962e-07)
(8.82352 -0.27275 -4.07228e-07)
(8.82354 -0.272751 -1.23957e-06)
(8.82354 -0.272751 -1.97391e-06)
(8.82354 -0.272752 -2.63977e-06)
(8.82354 -0.272752 -3.20946e-06)
(8.82354 -0.272753 -3.67036e-06)
(8.82354 -0.272754 -4.01467e-06)
(8.82354 -0.272755 -4.23868e-06)
(8.82354 -0.272756 -4.3434e-06)
(8.82354 -0.272758 -4.33e-06)
(8.82354 -0.272759 -4.20266e-06)
(8.82354 -0.272761 -3.96524e-06)
(8.82354 -0.272762 -3.6227e-06)
(8.82354 -0.272764 -3.18523e-06)
(8.82354 -0.272765 -2.67489e-06)
(8.82354 -0.272767 -2.12533e-06)
(8.82354 -0.272768 -1.56815e-06)
(8.82354 -0.272769 -1.08295e-06)
(8.82354 -0.27277 -5.15605e-07)
(8.82352 -0.27277 -1.03249e-07)
(8.95449 -0.288732 -5.91531e-07)
(8.95451 -0.288732 -1.75577e-06)
(8.95451 -0.288732 -2.92832e-06)
(8.95451 -0.288732 -4.05385e-06)
(8.95451 -0.288732 -5.09948e-06)
(8.95451 -0.288731 -6.02996e-06)
(8.95451 -0.288731 -6.82466e-06)
(8.95451 -0.288731 -7.46542e-06)
(8.95452 -0.28873 -7.93982e-06)
(8.95452 -0.28873 -8.23463e-06)
(8.95452 -0.28873 -8.3412e-06)
(8.95452 -0.288729 -8.25169e-06)
(8.95452 -0.288729 -7.96344e-06)
(8.95452 -0.288729 -7.48049e-06)
(8.95452 -0.288728 -6.81785e-06)
(8.95452 -0.288728 -6.00397e-06)
(8.95452 -0.288728 -5.05775e-06)
(8.95452 -0.288728 -4.01329e-06)
(8.95452 -0.288728 -2.65091e-06)
(8.9545 -0.288727 -9.02207e-07)
(8.98935 -0.492005 -3.12324e-07)
(8.98936 -0.492006 -1.05627e-06)
(8.98936 -0.492007 -1.69927e-06)
(8.98936 -0.492007 -2.29825e-06)
(8.98936 -0.492008 -2.81577e-06)
(8.98936 -0.492009 -3.24006e-06)
(8.98936 -0.49201 -3.55673e-06)
(8.98936 -0.492011 -3.75924e-06)
(8.98936 -0.492013 -3.84608e-06)
(8.98936 -0.492015 -3.81609e-06)
(8.98936 -0.492016 -3.67749e-06)
(8.98936 -0.492018 -3.43356e-06)
(8.98936 -0.49202 -3.09801e-06)
(8.98936 -0.492022 -2.68632e-06)
(8.98936 -0.492024 -2.22661e-06)
(8.98936 -0.492026 -1.75808e-06)
(8.98936 -0.492027 -1.31264e-06)
(8.98936 -0.492029 -9.32696e-07)
(8.98936 -0.49203 -4.6694e-07)
(8.98935 -0.492029 -1.36103e-07)
(9.18037 -0.471483 -7.0727e-07)
(9.18039 -0.471484 -2.19779e-06)
(9.18039 -0.471483 -3.68979e-06)
(9.18039 -0.471483 -5.18838e-06)
(9.18039 -0.471482 -6.60249e-06)
(9.18039 -0.47148 -7.89247e-06)
(9.18039 -0.471479 -9.02471e-06)
(9.18039 -0.471478 -9.97141e-06)
(9.18039 -0.471476 -1.0709e-05)
(9.18039 -0.471474 -1.12142e-05)
(9.1804 -0.471472 -1.14734e-05)
(9.1804 -0.47147 -1.14758e-05)
(9.1804 -0.471468 -1.12137e-05)
(9.1804 -0.471466 -1.06864e-05)
(9.1804 -0.471464 -9.90076e-06)
(9.1804 -0.471463 -8.86512e-06)
(9.1804 -0.471461 -7.60672e-06)
(9.1804 -0.471459 -6.09225e-06)
(9.1804 -0.471458 -4.13413e-06)
(9.18038 -0.471456 -1.53528e-06)
(9.15977 -0.87761 -1.36432e-07)
(9.15979 -0.877612 -5.38407e-07)
(9.15979 -0.877612 -7.55684e-07)
(9.15979 -0.877612 -9.68441e-07)
(9.15979 -0.877612 -1.10703e-06)
(9.15979 -0.877612 -1.18331e-06)
(9.15979 -0.877612 -1.18312e-06)
(9.15979 -0.877611 -1.10803e-06)
(9.15979 -0.877611 -9.60773e-07)
(9.15979 -0.877611 -7.44759e-07)
(9.15979 -0.877611 -4.764e-07)
(9.15979 -0.877611 -1.67648e-07)
(9.15979 -0.877611 1.67486e-07)
(9.15979 -0.877611 5.1177e-07)
(9.15979 -0.877611 8.45984e-07)
(9.15979 -0.877611 1.14533e-06)
(9.15979 -0.877611 1.36949e-06)
(9.15979 -0.877611 1.39928e-06)
(9.1598 -0.877612 1.62897e-06)
(9.15978 -0.87761 8.68057e-07)
(9.20772 -0.802416 -2.59074e-07)
(9.20774 -0.802418 -2.19528e-06)
(9.20774 -0.802419 -3.53916e-06)
(9.20774 -0.802421 -5.03984e-06)
(9.20774 -0.802424 -6.42715e-06)
(9.20774 -0.802428 -7.71262e-06)
(9.20774 -0.802432 -8.85264e-06)
(9.20774 -0.802437 -9.82469e-06)
(9.20774 -0.802443 -1.05949e-05)
(9.20774 -0.802449 -1.11363e-05)
(9.20774 -0.802455 -1.14399e-05)
(9.20774 -0.802462 -1.15055e-05)
(9.20774 -0.802469 -1.13134e-05)
(9.20774 -0.802476 -1.08574e-05)
(9.20774 -0.802483 -1.01464e-05)
(9.20774 -0.802489 -9.1792e-06)
(9.20774 -0.802495 -7.98e-06)
(9.20774 -0.802501 -6.45163e-06)
(9.20775 -0.802505 -4.39441e-06)
(9.20773 -0.802506 -2.17409e-06)
(8.89636 0.667758 -5.98718e-08)
(8.89637 0.667759 -3.35589e-07)
(8.89637 0.667759 -3.57422e-07)
(8.89637 0.66776 -5.15513e-07)
(8.89637 0.66776 -6.3711e-07)
(8.89637 0.667761 -7.8949e-07)
(8.89637 0.667762 -9.43919e-07)
(8.89637 0.667763 -1.10111e-06)
(8.89636 0.667764 -1.24479e-06)
(8.89636 0.667765 -1.36762e-06)
(8.89636 0.667767 -1.45899e-06)
(8.89636 0.667768 -1.51275e-06)
(8.89636 0.667769 -1.52595e-06)
(8.89636 0.66777 -1.49687e-06)
(8.89635 0.667772 -1.4502e-06)
(8.89635 0.667773 -1.37025e-06)
(8.89635 0.667774 -1.36768e-06)
(8.89635 0.667775 -1.27457e-06)
(8.89635 0.667776 -9.66369e-07)
(8.89633 0.667775 -5.61324e-07)
(8.7592 0.702528 -6.95908e-09)
(8.75921 0.702529 1.01924e-07)
(8.75921 0.702529 2.69575e-07)
(8.75921 0.702529 3.98655e-07)
(8.75921 0.702529 5.24863e-07)
(8.75921 0.702529 6.12777e-07)
(8.75921 0.702529 6.74717e-07)
(8.75921 0.702529 7.11338e-07)
(8.75921 0.702529 7.30752e-07)
(8.75921 0.702529 7.38371e-07)
(8.75921 0.702528 7.4084e-07)
(8.75921 0.702528 7.40691e-07)
(8.75921 0.702528 7.37785e-07)
(8.75921 0.702528 7.31947e-07)
(8.75921 0.702528 7.09067e-07)
(8.75921 0.702528 6.71606e-07)
(8.75921 0.702528 5.67052e-07)
(8.75921 0.702528 4.17979e-07)
(8.75921 0.702528 1.59824e-07)
(8.7592 0.702527 -2.00527e-08)
(8.79099 0.399367 -1.77748e-07)
(8.79101 0.399368 -3.24814e-07)
(8.791 0.399368 -4.34775e-07)
(8.791 0.399368 -5.75425e-07)
(8.791 0.399369 -7.20597e-07)
(8.791 0.399369 -8.93815e-07)
(8.791 0.399369 -1.0776e-06)
(8.791 0.39937 -1.26217e-06)
(8.791 0.39937 -1.43212e-06)
(8.791 0.399371 -1.57456e-06)
(8.791 0.399371 -1.67493e-06)
(8.791 0.399372 -1.72499e-06)
(8.79099 0.399372 -1.71997e-06)
(8.79099 0.399373 -1.65572e-06)
(8.79099 0.399373 -1.54179e-06)
(8.79099 0.399374 -1.35616e-06)
(8.79099 0.399374 -1.1651e-06)
(8.79099 0.399375 -8.99763e-07)
(8.79099 0.399375 -6.73502e-07)
(8.79097 0.399375 -2.92711e-07)
(8.66921 0.405087 1.04373e-07)
(8.66922 0.405088 3.35157e-07)
(8.66922 0.405088 6.02372e-07)
(8.66922 0.405089 8.51084e-07)
(8.66922 0.405089 1.07926e-06)
(8.66922 0.40509 1.26455e-06)
(8.66922 0.40509 1.40786e-06)
(8.66922 0.405091 1.51183e-06)
(8.66922 0.405092 1.58175e-06)
(8.66922 0.405092 1.62443e-06)
(8.66922 0.405093 1.64682e-06)
(8.66922 0.405094 1.64998e-06)
(8.66922 0.405095 1.6358e-06)
(8.66922 0.405095 1.60705e-06)
(8.66922 0.405096 1.56328e-06)
(8.66922 0.405097 1.51001e-06)
(8.66922 0.405097 1.42263e-06)
(8.66922 0.405098 1.26063e-06)
(8.66922 0.405099 8.67732e-07)
(8.6692 0.405098 2.77761e-07)
(8.67709 0.227294 -2.73159e-08)
(8.6771 0.227295 -7.68895e-09)
(8.6771 0.227295 2.32419e-08)
(8.6771 0.227295 4.36368e-08)
(8.6771 0.227295 4.72083e-08)
(8.6771 0.227295 2.22728e-08)
(8.6771 0.227295 -2.75047e-08)
(8.6771 0.227295 -9.38272e-08)
(8.6771 0.227295 -1.67721e-07)
(8.6771 0.227295 -2.38231e-07)
(8.6771 0.227296 -2.95806e-07)
(8.6771 0.227296 -3.33417e-07)
(8.6771 0.227296 -3.45452e-07)
(8.6771 0.227296 -3.24234e-07)
(8.6771 0.227296 -2.71944e-07)
(8.6771 0.227296 -1.67983e-07)
(8.67709 0.227296 -6.01075e-08)
(8.67709 0.227296 5.86525e-08)