/*--------------------------------*- C++ -*----------------------------------*\
| =========                 |                                                 |
| \\      /  F ield         | OpenFOAM: The Open Source CFD Toolbox           |
|  \\    /   O peration     | Version:  2212                                  |
|   \\  /    A nd           | Website:  www.openfoam.com                      |
|    \\/     M anipulation  |                                                 |
\*---------------------------------------------------------------------------*/
FoamFile
{
    version     2.0;
    format      ascii;
    arch        "LSB;label=32;scalar=64";
    class       volScalarField;
    location    "0.0432";
    object      T;
}
// * * * * * * * * * * * * * * * * * * * * * * * * * * * * * * * * * * * * * //

dimensions      [0 0 0 1 0 0 0];

internalField   nonuniform List<scalar> 
2308
(
197.831
186.902
232.294
173.12
182.832
178.47
176.536
180.708
184.436
151.949
153.827
156.513
158.418
160.335
162.228
164.085
165.889
167.442
165.745
163.954
162.064
160.125
158.141
156.091
154.043
151.987
149.981
147.958
176.85
167.646
145.851
143.809
141.789
139.783
137.786
135.796
133.807
131.818
129.827
127.837
125.845
123.856
121.867
119.878
117.888
117.888
119.875
121.861
123.849
125.836
127.824
129.811
131.8
133.786
135.774
137.764
139.756
141.758
143.771
145.808
147.891
149.838
151.743
153.569
155.302
156.995
158.764
160.613
162.475
164.322
166.153
115.903
115.894
165.945
163.98
162.006
160.015
158.004
155.982
153.964
151.914
149.866
147.863
145.834
143.806
141.793
139.792
137.795
135.803
133.81
131.818
129.826
127.835
125.844
123.854
121.865
119.876
117.888
169.111
115.901
169.338
167.955
115.873
117.864
119.851
121.839
123.826
125.815
127.804
129.796
131.781
133.769
135.757
137.745
139.734
141.728
143.729
145.73
147.719
149.666
151.619
153.519
155.375
157.203
159.031
160.883
162.748
164.605
166.452
182.112
177.756
176.088
177.103
168.273
166.151
164.035
161.991
159.964
157.94
155.916
153.894
151.861
149.819
147.816
145.808
143.796
141.79
139.791
137.795
135.801
133.81
131.817
129.824
127.832
125.842
123.851
121.861
119.873
117.886
115.899
113.911
113.914
113.915
113.903
181.83
113.885
183.517
184.255
169.718
186.519
181.447
170.929
168.304
111.923
111.924
111.924
111.911
111.896
111.881
113.868
115.859
117.845
119.833
121.82
123.808
125.797
127.788
129.778
131.767
133.756
135.743
137.731
139.72
141.708
143.698
145.683
147.651
149.592
151.546
153.48
155.422
157.347
159.235
161.12
163.004
164.886
166.751
172.463
200.923
181.323
180.351
178.312
176.347
174.339
172.296
170.231
168.157
166.096
164.028
161.971
159.931
157.901
155.873
153.848
151.82
149.792
147.787
145.787
143.786
141.786
139.79
137.794
135.801
133.808
131.814
129.82
127.83
125.838
123.846
121.856
119.869
117.881
115.893
113.906
111.917
248.534
185.248
203.892
171.147
223.56
185.275
170.152
172.632
111.867
113.856
115.842
117.831
119.817
121.805
123.794
125.785
127.776
129.765
131.755
133.744
135.732
137.72
139.706
141.692
143.672
145.646
147.604
149.55
151.504
153.459
155.433
157.411
159.369
161.309
163.225
165.126
167.022
168.621
187.743
184.36
180.441
178.254
176.222
174.195
172.157
170.11
168.061
166.016
163.971
161.927
159.894
157.865
155.84
153.816
151.791
149.772
147.767
145.77
143.775
141.782
139.786
137.794
135.799
133.805
131.81
129.819
127.826
125.832
123.841
121.853
119.863
117.874
115.886
113.899
111.913
109.924
109.928
109.932
109.932
109.93
109.922
109.909
109.894
109.88
207.06
229.66
271.128
186.99
196.065
271.998
168.902
170.492
189.36
188.88
197.154
179.934
180.204
178.153
176.102
174.064
172.031
169.997
167.965
165.934
163.903
161.874
159.848
157.826
155.806
153.786
151.767
149.754
147.752
145.757
143.767
141.776
139.782
137.788
135.794
133.799
131.807
129.814
127.819
125.827
123.838
121.847
119.856
117.867
115.878
113.891
111.905
109.918
107.931
107.936
107.939
107.939
107.94
107.941
107.93
107.918
107.907
107.895
107.885
109.87
111.857
113.845
115.833
117.819
119.807
121.796
123.786
125.777
127.766
129.755
131.744
133.733
135.72
137.706
139.69
141.672
143.648
145.615
147.573
149.525
151.48
153.447
155.428
157.414
159.419
161.411
163.381
165.321
167.246
189.202
170.752
172.36
174.524
190.825
190.48
188.663
187
185.26
182.283
182.128
180.121
178.042
175.978
173.932
171.904
169.881
167.863
165.846
163.828
161.811
159.795
157.782
155.769
153.757
151.746
149.739
147.74
145.748
143.757
141.765
139.772
137.779
135.785
133.792
131.8
129.806
127.814
125.823
123.832
121.839
119.849
117.858
115.871
113.885
111.897
109.911
107.925
105.939
105.943
105.947
105.948
105.95
105.947
105.946
105.938
105.929
105.919
105.91
105.9
105.891
107.877
109.863
111.851
113.838
115.826
117.814
119.802
121.791
123.78
125.769
127.758
129.747
131.735
133.722
135.709
137.693
139.675
141.653
143.626
145.592
147.551
149.507
151.465
153.441
155.42
157.409
159.418
161.437
163.459
165.462
167.424
169.149
190.921
190.73
265.722
171.008
186.365
188.364
190.237
174.058
178.439
174.693
172.563
192.283
192.189
103.951
103.954
103.957
103.958
103.957
103.955
103.952
103.946
103.938
103.931
103.922
103.912
103.902
103.893
105.881
107.87
109.858
111.846
113.834
115.822
117.811
119.799
121.787
123.776
125.764
127.751
129.739
131.726
133.712
135.697
137.68
139.66
141.637
143.608
145.574
147.535
149.494
151.456
153.431
155.413
157.4
159.411
161.428
163.457
165.503
167.54
169.362
182.718
192.546
176.412
230.798
180.043
177.911
175.832
173.79
171.77
169.759
167.756
165.753
163.749
161.743
159.738
157.732
155.728
153.724
151.722
149.721
147.726
145.734
143.743
141.751
139.759
137.767
135.775
133.783
131.79
129.798
127.807
125.816
123.824
121.833
119.841
117.852
115.865
113.877
111.89
109.904
107.919
105.934
103.947
192.304
192.532
245.437
174.3
194.161
172.838
103.887
105.876
107.864
109.854
111.842
113.831
115.82
117.807
119.796
121.783
123.771
125.759
127.746
129.731
131.717
133.701
135.684
137.665
139.644
141.62
143.592
145.559
147.522
149.484
151.449
153.426
155.401
157.392
159.4
161.415
163.443
165.494
167.578
169.546
181.273
194.042
101.958
101.961
101.964
101.966
101.965
101.964
101.963
101.96
101.953
101.947
101.939
101.93
101.922
101.912
101.902
101.896
184.091
193.832
191.674
189.564
187.44
178.555
179.216
185.924
173.808
179.821
177.704
175.647
173.626
171.625
169.634
167.646
165.658
163.666
161.673
159.678
157.682
155.685
153.689
151.694
149.699
147.707
145.716
143.726
141.735
139.744
137.753
135.762
133.771
131.78
129.789
127.798
125.807
123.817
121.825
119.835
117.847
115.857
113.87
111.884
109.899
107.913
105.927
103.941
101.953
242.053
171.254
175.782
193.874
194.289
194.178
179.891
244.89
248.206
177.26
174.678
169.717
177.11
210.24
179.083
239.113
101.892
103.882
105.872
107.861
109.85
111.839
113.827
115.816
117.805
119.792
121.78
123.766
125.753
127.739
129.723
131.707
133.69
135.672
137.651
139.629
141.604
143.577
145.546
147.512
149.476
151.443
153.417
155.393
157.384
159.386
161.397
163.422
165.459
167.508
169.569
182.638
199.227
201.931
99.9649
99.9682
99.9703
99.973
99.9735
99.9734
99.9737
99.9694
99.9641
99.9593
99.953
99.945
99.9375
99.9295
99.9201
99.9109
99.906
99.9004
178.922
195.355
193.014
190.799
188.691
186.675
226.814
199.391
181.349
179.396
177.41
175.423
173.445
171.474
169.506
167.535
165.562
163.584
161.602
159.617
157.63
155.642
153.653
151.663
149.674
147.685
145.696
143.707
141.718
139.728
137.739
135.749
133.759
131.768
129.778
127.788
125.798
123.808
121.818
119.829
117.839
115.851
113.864
111.878
109.891
107.906
105.921
103.934
101.948
99.9595
185.323
171.506
200.319
191.417
193.377
195.399
173.119
195.91
195.834
196.041
239.008
199.804
224.617
174.721
171.246
181.226
245.318
241.847
169.307
167.37
165.381
163.377
161.37
159.369
157.375
155.383
153.409
151.438
149.469
147.501
145.532
143.562
141.589
139.615
137.638
135.659
133.679
131.697
129.715
127.731
125.746
123.76
121.774
119.787
117.8
115.812
113.824
111.835
109.846
107.857
105.868
103.878
101.888
99.8968
238.765
97.9703
97.9744
97.977
97.9797
97.9818
97.9813
97.9815
97.9783
97.9732
97.969
97.9635
97.9571
97.9502
97.9435
97.9357
97.9272
97.9189
97.9136
97.909
97.9054
183.695
171.799
189.509
249.065
248.916
248.964
248.939
248.846
245.132
241.529
238.085
174.573
235.862
197.432
201.64
200.971
192.711
194.756
196.875
174.965
186.478
244.054
196.644
194.242
192.027
190.008
188.194
185.21
186.815
182.64
180.843
178.99
177.101
175.185
173.256
171.321
169.378
167.427
165.469
163.505
161.534
159.559
157.58
155.599
153.616
151.631
149.646
147.661
145.674
143.687
141.7
139.712
137.724
135.735
133.746
131.757
129.767
127.778
125.789
123.799
121.81
119.821
117.832
115.845
113.858
111.871
109.884
107.899
105.913
103.927
101.94
99.9525
97.9645
198.431
196.318
194.215
225.522
195.22
173.434
228.34
193.217
233.374
197.799
197.813
197.472
195.15
196.058
193.957
238.433
197.28
234.348
237.205
203.189
195.8
198.272
241.004
244.843
248.691
169.199
167.253
165.292
163.315
161.329
159.342
157.358
155.376
153.401
151.429
149.458
147.489
145.519
143.548
141.576
139.601
137.625
135.647
133.668
131.687
129.705
127.722
125.738
123.753
121.768
119.781
117.795
115.807
113.82
111.831
109.843
107.853
105.864
103.874
101.884
99.8936
97.9022
189.406
191.132
193.112
195.292
197.667
200.21
220.924
182.064
172.41
190.734
193.097
234.782
235.315
200.621
198.255
173.069
229.812
224.762
183.509
184.683
253.149
239.696
244.603
202.896
95.9757
95.9801
95.9833
95.9857
95.9884
95.9884
95.9877
95.9849
95.9811
95.977
95.9723
95.9667
95.9612
95.9551
95.9487
95.942
95.9342
95.925
95.9208
95.916
95.914
95.9126
253.051
252.88
252.779
252.722
252.67
252.6
236.291
173.836
187.627
192.211
191.404
178.595
231.975
232.207
199.717
228.069
203.521
199.068
229.121
175.337
272.492
252.869
199.569
184.94
183.591
182.047
180.381
178.627
176.814
174.959
173.075
171.172
169.255
167.324
165.382
163.431
161.471
159.504
157.533
155.558
153.58
151.601
149.619
147.637
145.653
143.668
141.682
139.696
137.709
135.721
133.733
131.745
129.756
127.768
125.779
123.791
121.802
119.813
117.825
115.837
113.85
111.863
109.878
107.891
105.905
103.919
101.932
99.9445
97.9574
95.97
267.587
214.159
272.262
191.933
234.987
199.518
243.662
186.406
179.996
234.317
182.837
182.218
188.681
190.218
191.974
193.943
196.112
198.475
201.026
203.75
205.753
206.627
180.347
192.739
176.808
185.766
172.816
170.96
169.08
167.157
165.212
163.253
161.284
159.31
157.334
155.359
153.387
151.416
149.447
147.477
145.507
143.536
141.563
139.589
137.614
135.636
133.658
131.677
129.696
127.714
125.73
123.746
121.761
119.775
117.789
115.802
113.814
111.826
109.838
107.849
105.86
103.87
101.881
99.8906
97.9009
95.9119
240.421
244.475
248.506
252.515
231.755
271.921
193.9
196.207
198.855
210.971
204.621
207.786
171.429
187.298
175.658
174.386
188.807
191.129
189.672
185.986
231.449
231.705
204.842
201.519
173.598
225.222
179.741
220.936
217.165
202.999
200.564
224.964
177.203
180.959
181.527
190.933
218.459
221.417
224.825
186.811
188.017
256.83
256.856
256.806
256.71
256.617
256.547
256.51
256.478
256.451
185.741
175.796
201.326
201.664
228.361
222.464
182.662
184.535
183.129
181.621
180.02
178.331
176.574
174.765
172.919
171.044
169.147
167.232
165.304
163.365
161.415
159.456
157.491
155.521
153.548
151.572
149.594
147.614
145.633
143.65
141.666
139.68
137.695
135.708
133.721
131.733
129.746
127.758
125.77
123.781
121.793
119.805
117.817
115.83
113.843
111.856
109.869
107.883
105.896
103.91
101.923
99.9368
97.9501
95.9636
93.9764
93.9814
93.9857
93.9895
93.9913
93.9926
93.993
93.992
93.99
93.987
93.9836
93.979
93.9748
93.9701
93.9652
93.9598
93.9537
93.9478
93.9395
93.931
93.9279
93.9237
93.9227
93.9221
93.9219
190.341
228.463
209.628
208.786
206.408
187.468
256.95
247.926
175.634
176.785
189.042
190.729
192.538
194.52
196.69
199.066
201.66
204.47
207.474
210.595
216.486
212.623
213.678
175.024
189.986
187.885
231.477
204.418
172.01
221.345
215.51
213.563
201.9
220.981
179.034
221.522
183.221
208.631
205.26
202.158
199.339
196.772
194.453
192.201
188.335
252.769
183.358
235.767
239.928
244.129
248.295
252.434
256.431
183.804
177.704
272.97
203.639
261.029
260.817
260.695
260.629
260.56
260.482
260.399
260.336
260.296
260.277
260.271
260.271
217.969
224.837
180.485
198.387
175.93
272.433
184.787
185.898
184.362
182.871
181.347
179.768
178.117
176.395
174.622
172.801
170.945
169.061
167.158
165.24
163.308
161.366
159.414
157.455
155.49
153.52
151.548
149.572
147.594
145.614
143.633
141.65
139.666
137.681
135.696
133.709
131.722
129.735
127.748
125.76
123.772
121.784
119.797
117.809
115.822
113.835
111.848
109.861
107.875
105.888
103.902
101.915
99.9293
97.9432
95.9571
93.9705
91.9831
91.9879
91.991
91.9932
91.9951
91.9957
91.9957
91.9948
91.9938
91.9916
91.9884
91.9847
91.9812
91.9776
91.9737
91.9695
91.9642
91.9585
91.9528
91.9449
91.9371
91.9347
91.9309
91.9313
91.9318
91.9323
91.9325
93.9204
95.9094
97.8992
99.888
101.877
103.867
105.856
107.845
109.833
111.822
113.809
115.796
117.783
119.769
121.754
123.739
125.723
127.706
129.688
131.669
133.648
135.627
137.603
139.579
141.553
143.525
145.496
147.466
149.435
151.404
153.372
155.341
157.31
159.278
161.242
163.2
165.147
167.083
169.006
170.925
172.91
174.767
176.603
178.33
212.191
182.158
184.293
184.79
186.546
180.367
188.71
203.724
218.36
176.355
177.622
189.261
186.921
185.031
188.568
228.024
228.011
208.072
218.172
211.868
209.427
215.909
202.982
205.601
224.656
217.459
213.469
179.545
220.994
204.439
212.598
214.966
206.873
207.55
227.885
186.818
188.119
176.977
215.209
211.742
208.283
205.047
202.092
199.423
197.024
194.853
192.882
191.083
189.4
205.568
184.019
178.181
190.611
192.599
194.768
197.099
199.649
202.496
205.709
209.348
184.551
182.078
229.312
234.174
238.955
243.507
178.453
213.853
185.074
214.36
182.274
221.267
180.905
235.082
239.444
243.787
248.107
252.389
256.517
260.536
183.366
181.978
184.476
182.832
181.236
179.599
177.989
176.328
174.554
172.734
170.848
168.942
167.025
165.096
163.156
161.207
159.25
157.289
155.325
153.359
151.392
149.425
147.456
145.487
143.516
141.544
139.57
137.595
135.619
133.641
131.661
129.681
127.699
125.716
123.733
121.749
119.764
117.778
115.791
113.805
111.817
109.829
107.841
105.852
103.863
101.875
99.8855
97.8961
95.907
93.9184
91.9308
208.419
205.528
89.9946
89.9961
89.9974
89.9976
89.9978
89.9974
89.9972
89.9959
89.9951
89.9929
89.9897
89.9862
89.9831
89.9803
89.977
89.9739
89.9691
89.9635
89.9583
89.9509
89.9437
89.9416
89.9378
89.9391
89.9408
89.9442
89.9468
89.9454
218.564
264.704
264.519
264.416
264.336
264.258
264.184
264.114
264.054
264.012
263.986
263.968
264.03
264.418
252.358
256.54
260.797
264.802
187.2
185.697
184.191
182.694
181.176
179.609
177.978
176.28
174.524
172.716
170.871
168.998
167.102
165.19
163.265
161.327
159.381
157.426
155.464
153.498
151.527
149.554
147.577
145.599
143.619
141.637
139.654
137.669
135.684
133.699
131.712
129.726
127.738
125.751
123.764
121.776
119.789
117.801
115.814
113.827
111.841
109.854
107.867
105.88
103.894
101.908
99.9222
97.9363
95.9504
93.9641
91.9774
89.9902
217.715
211.226
224.249
224.396
184.055
187.49
178.306
179.535
209.744
205.989
188.29
208.219
183.115
189.187
190.958
192.882
194.973
197.291
199.857
202.714
205.944
209.626
243.965
168.685
223.582
228.785
234.093
239.08
189.706
217.232
212.96
208.925
205.397
202.333
199.641
197.23
195.052
193.08
191.293
178.909
186.343
185.781
224.147
210.586
214.405
211.38
207.141
186.925
185.474
184.04
182.573
181.064
179.496
177.867
176.183
174.43
172.625
170.772
168.886
166.98
165.058
163.124
161.18
159.229
157.272
155.311
153.348
151.383
149.416
147.448
145.479
143.509
141.537
139.563
137.588
135.612
133.634
131.655
129.675
127.694
125.711
123.728
121.744
119.759
117.773
115.787
113.8
111.813
109.825
107.837
105.849
103.86
101.872
99.8828
97.8938
95.905
93.9167
91.9297
89.9441
229.557
234.335
238.983
243.455
247.967
252.42
256.871
261.138
264.957
181.394
220.709
208.249
217.073
220.341
183.12
180.273
250.856
255.557
260.194
264.453
186.088
220.648
268.376
268.155
268.04
267.983
267.929
267.874
267.82
267.768
267.721
267.684
267.654
267.645
267.694
268.037
268.48
271.024
88.0008
88.0034
88.0007
88.0004
87.9984
87.9976
87.9972
87.9972
87.9957
87.9953
87.9935
87.9907
87.9873
87.9845
87.9829
87.9785
87.9785
87.975
87.9694
87.9651
87.9562
87.949
87.9484
87.9436
87.9477
87.9488
87.9571
87.9639
87.9597
87.9591
186.899
185.488
184.034
182.566
181.072
179.53
177.911
176.218
174.463
172.661
170.823
168.955
167.065
165.157
163.234
161.3
159.356
157.404
155.445
153.481
151.512
149.539
147.564
145.587
143.607
141.626
139.643
137.659
135.675
133.689
131.703
129.717
127.73
125.743
123.756
121.768
119.781
117.794
115.807
113.82
111.833
109.847
107.86
105.874
103.887
101.901
99.9156
97.9299
95.9441
93.9582
91.9722
89.9862
87.9976
210.053
213.734
220.227
184.718
180.842
89.9425
91.9289
190.188
189.174
87.9565
85.9594
85.9737
85.965
85.9576
85.9578
85.9561
85.958
85.9581
85.9576
85.9664
85.9608
85.9887
85.9824
85.9704
85.9904
85.965
85.9723
85.9672
85.9652
85.9701
85.9691
85.9712
85.9707
85.9709
85.9708
85.9748
85.972
85.9739
85.9732
89.981
87.9907
85.9791
85.9781
93.9532
91.9675
97.9244
95.9388
101.896
99.9101
105.868
103.882
109.84
107.854
113.814
111.827
117.787
115.8
121.762
119.774
125.736
123.749
129.709
127.723
133.682
131.696
137.651
135.667
141.617
139.635
145.578
143.598
149.529
147.555
153.469
151.501
157.39
155.432
161.284
159.341
165.138
163.217
168.934
167.045
172.639
170.801
176.193
174.441
179.501
177.884
182.495
181.028
185.365
183.934
188.303
186.813
191.402
189.797
195.152
193.182
199.748
197.331
205.531
202.451
213.395
209.111
223.166
218.177
233.767
228.562
243.117
238.694
252.776
247.909
262.137
257.644
269.527
271.44
271.559
271.311
271.314
271.337
271.323
271.376
271.355
271.418
271.397
271.453
271.437
271.509
271.471
270.61
271.619
268.781
269.416
272.093
272.8
267.155
269.57
259.46
263.797
249.405
254.588
239.382
244.267
228.821
234.113
218.732
223.718
209.78
214.02
202.831
206.071
197.39
199.963
192.996
195.073
189.529
191.157
186.649
188.062
183.837
185.255
180.954
182.409
177.826
179.44
174.375
176.132
170.725
172.57
166.95
168.849
163.103
165.033
159.215
161.163
155.302
157.261
151.376
153.34
147.443
149.41
143.503
145.474
139.558
141.531
135.607
137.583
131.651
133.63
127.689
129.671
123.724
125.707
119.755
121.74
115.783
117.769
111.81
113.797
107.834
109.822
103.858
105.846
99.8807
101.869
95.9039
97.8922
93.9159
272.068
272.778
216.461
178.591
85.9718
210.99
85.9944
239.574
272.963
273.108
273.11
273.154
273.153
273.16
273.16
176.454
217.661
216.324
212.873
213.097
170.398
172.848
170.668
187.479
184.235
185.827
188.967
185.653
187.285
190.483
186.996
188.718
191.955
188.265
190.084
216.762
182.366
272.701
183.655
267.306
181.023
201.407
214.637
183.697
185.766
180.268
174.796
167.338
218.507
179.643
174.528
185.618
247.563
183.293
249.685
177.868
182.194
225.815
177.033
270.523
174.593
204.639
176.506
175.307
179.852
188.077
272.689
242.19
202.081
188.259
188.029
218.204
257.804
234.63
193.994
269.456
175.215
171.059
172.562
192.155
170.748
236.38
185.893
195.267
180.454
155.195
150.387
187.91
)
;

boundaryField
{
    wall
    {
        type            zeroGradient;
    }
    outlet
    {
        type            fixedValue;
        value           uniform 85;
    }
    inlet
    {
        type            fixedValue;
        value           uniform 273.16;
    }
    frontAndBackPlanes
    {
        type            empty;
    }
}


// ************************************************************************* //
