/*--------------------------------*- C++ -*----------------------------------*\
| =========                 |                                                 |
| \\      /  F ield         | OpenFOAM: The Open Source CFD Toolbox           |
|  \\    /   O peration     | Version:  2212                                  |
|   \\  /    A nd           | Website:  www.openfoam.com                      |
|    \\/     M anipulation  |                                                 |
\*---------------------------------------------------------------------------*/
FoamFile
{
    version     2.0;
    format      ascii;
    arch        "LSB;label=32;scalar=64";
    class       surfaceScalarField;
    location    "0.0476";
    object      phi;
}
// * * * * * * * * * * * * * * * * * * * * * * * * * * * * * * * * * * * * * //

dimensions      [1 0 -1 0 0 0 0];

oriented        oriented;

internalField   nonuniform List<scalar> 
4475
(
1.86206e-05
-1.7655e-05
2.2236e-05
-2.32305e-05
9.01683e-07
-5.68346e-06
1.53916e-07
4.55592e-06
4.47249e-05
-5.09217e-05
3.73897e-06
2.44376e-06
-5.57738e-06
1.73098e-05
4.54547e-06
-1.6363e-05
-1.9619e-05
1.78318e-05
1.88547e-05
-1.70858e-05
1.64448e-05
-1.30767e-05
-1.85608e-05
1.51745e-05
-4.76325e-06
4.14421e-06
2.46814e-05
-2.40881e-05
-1.51436e-05
-1.99596e-05
1.80378e-05
1.70455e-05
1.84449e-05
-2.04783e-05
-1.76033e-05
-1.97826e-05
-2.56779e-07
2.35265e-06
1.76704e-05
-3.22416e-06
2.83351e-06
-1.94136e-05
-2.11915e-05
3.15194e-06
-1.81973e-06
1.98339e-05
-2.15788e-05
1.06089e-06
-7.00553e-07
-2.18399e-05
5.58042e-07
-3.24563e-07
-2.19314e-05
3.53589e-07
-2.89601e-07
-2.18163e-05
2.59793e-07
-4.01063e-07
3.25465e-07
-2.10275e-05
-1.13795e-06
2.05729e-05
-1.68991e-06
-2.0071e-05
1.16774e-06
2.18759e-05
-1.00074e-06
2.20323e-05
7.65047e-08
2.19157e-05
4.41638e-07
2.17295e-05
7.15658e-07
2.16905e-05
1.07154e-06
2.35769e-05
1.23674e-06
2.05992e-05
-2.72028e-07
1.93963e-05
9.27793e-07
2.43806e-05
3.1023e-06
-8.10165e-06
2.30147e-05
2.4925e-07
1.107e-06
2.56862e-05
-2.56793e-05
-4.79739e-06
-2.05686e-05
-2.17079e-06
2.26037e-05
1.17478e-07
2.9289e-07
2.23892e-05
8.42568e-08
1.38601e-07
2.22809e-05
5.21919e-08
7.47647e-08
2.21653e-05
8.801e-08
5.82179e-08
2.21044e-05
2.03179e-08
8.47062e-08
2.20073e-05
5.33813e-08
1.0209e-07
2.19276e-05
4.51904e-08
1.07957e-07
2.18598e-05
1.55562e-08
1.41392e-07
2.18045e-05
-4.66203e-09
1.65747e-07
2.17285e-05
2.93383e-08
1.694e-07
2.16789e-05
1.14177e-08
1.78097e-07
2.16125e-05
2.12368e-08
2.02242e-07
2.15275e-05
3.57921e-08
2.23024e-07
2.14769e-05
3.56161e-09
2.37343e-07
-5.41498e-08
2.1515e-05
2.23364e-07
-2.14465e-05
2.13513e-05
2.43449e-07
-2.15255e-05
2.6914e-07
-2.1526e-05
2.0646e-07
-2.16004e-05
2.48749e-07
-2.16526e-05
1.99909e-07
-2.16855e-05
1.81446e-07
-2.16985e-05
1.108e-07
-2.18595e-05
2.62777e-07
-2.19088e-05
1.65192e-07
-2.19529e-05
1.53073e-07
-2.21163e-05
2.25261e-07
-2.21995e-05
1.99335e-07
-2.23478e-05
2.17e-07
-2.25079e-05
2.51512e-07
-2.29448e-05
5.52497e-07
-2.42014e-05
1.49453e-06
-1.90277e-05
4.37298e-06
-9.56253e-06
-1.99638e-05
3.26997e-06
-1.93124e-05
2.16127e-06
-1.97811e-05
8.57804e-07
-4.10851e-07
-2.12323e-05
-3.93143e-07
-2.16105e-05
-3.50176e-07
-2.18211e-05
-1.42542e-07
-2.18889e-05
-2.50413e-07
-2.16529e-05
-6.64333e-07
-2.15605e-05
-1.25605e-06
3.6749e-08
2.42115e-07
2.14596e-05
2.3045e-07
2.13756e-05
2.19408e-05
-1.95007e-06
-2.10199e-05
2.20268e-05
-3.97713e-08
2.19653e-05
4.71962e-07
2.18452e-05
8.04318e-07
2.1987e-05
8.98932e-07
2.23011e-05
8.93235e-07
2.14249e-05
5.77753e-07
2.13363e-05
9.9401e-07
2.27821e-05
1.63937e-06
2.27909e-05
1.08733e-06
2.25209e-05
5.59835e-07
2.23485e-05
3.17257e-07
2.22183e-05
2.21846e-07
2.21325e-05
1.7292e-07
2.20479e-05
2.11135e-07
2.19402e-05
2.65893e-07
2.18816e-05
2.37497e-07
2.18044e-05
3.05053e-07
2.17363e-05
3.36713e-07
2.16647e-05
3.60782e-07
2.16294e-05
3.5023e-07
2.15774e-05
4.08218e-07
2.15383e-05
4.3296e-07
2.14927e-05
4.70698e-07
2.14391e-05
4.80964e-07
-2.37697e-06
-2.02737e-05
2.55957e-06
4.65116e-07
2.14359e-05
-4.1345e-06
-1.88304e-05
-2.11544e-05
-2.60135e-06
-2.12245e-05
2.12503e-05
4.10233e-07
-2.13002e-05
5.09481e-07
-2.12761e-05
4.19781e-07
-2.13755e-05
4.64602e-07
-2.1388e-05
4.03801e-07
-2.14184e-05
3.5654e-07
-2.14751e-05
3.47904e-07
-2.16238e-05
3.53248e-07
-2.16191e-05
3.3619e-07
-2.16849e-05
2.93674e-07
-2.18314e-05
3.47792e-07
-2.19122e-05
3.4039e-07
-2.20274e-05
3.36093e-07
-2.21621e-05
3.6266e-07
-2.23866e-05
4.78065e-07
-2.26232e-05
7.81898e-07
-2.26373e-05
1.49377e-06
-2.08279e-05
2.54355e-06
-2.00776e-05
2.49556e-06
-2.00102e-05
2.06759e-06
-2.02746e-05
1.09389e-06
-2.09892e-05
2.91597e-07
-2.14704e-05
9.96042e-08
-2.17132e-05
6.86058e-08
-2.19251e-05
-7.02155e-08
-2.19617e-05
-6.58412e-07
-2.18051e-05
-1.44179e-06
-1.80596e-05
2.61767e-05
-2.32876e-05
1.07703e-05
-1.99947e-05
-6.92873e-06
1.61349e-05
-1.32206e-05
-1.1775e-05
1.45646e-05
1.04161e-05
1.39787e-05
2.46236e-05
1.98955e-06
-4.11688e-06
-2.25321e-05
2.23993e-05
2.37165e-07
2.21207e-05
2.03219e-07
2.1934e-05
6.22898e-07
2.1893e-05
8.09399e-07
2.19064e-05
8.50258e-07
2.19598e-05
8.06046e-07
2.17524e-05
7.54131e-07
2.17582e-05
9.60768e-07
2.2222e-05
1.15327e-06
2.23591e-05
9.34146e-07
2.22841e-05
6.2624e-07
2.21761e-05
4.25943e-07
2.20941e-05
3.15067e-07
2.19673e-05
3.22343e-07
2.18845e-05
3.29013e-07
2.18263e-05
3.72952e-07
2.17075e-05
4.19605e-07
2.16294e-05
4.61667e-07
2.15565e-05
5.04113e-07
2.15468e-05
4.81374e-07
2.14738e-05
5.50689e-07
2.14147e-05
6.11436e-07
2.14072e-05
6.0086e-07
2.14144e-05
6.4056e-07
2.13691e-05
7.19406e-07
2.13011e-05
7.41479e-07
-5.14279e-07
2.13052e-05
7.33142e-07
-2.24072e-07
2.13804e-05
6.81213e-08
2.14057e-05
3.1472e-07
2.13624e-05
-1.73494e-05
1.70329e-05
-1.96635e-05
2.12301e-05
5.55083e-07
-2.16604e-05
-2.05394e-05
2.41033e-05
-1.6194e-05
2.59945e-05
1.2846e-05
-2.26823e-05
-5.05653e-06
-2.0254e-05
2.07731e-05
-1.64144e-05
2.22261e-05
-2.66059e-05
1.8524e-05
1.7902e-05
-1.86137e-05
-2.56145e-05
-1.02833e-08
5.32811e-06
-2.1948e-05
-2.48641e-06
-4.31247e-07
7.21098e-07
2.12524e-05
-1.61562e-07
2.136e-05
1.25407e-07
2.13714e-05
3.43992e-07
2.13918e-05
5.60064e-07
2.12481e-05
-2.10636e-05
7.65576e-07
2.10708e-05
-2.09642e-05
6.55169e-07
-2.10549e-05
6.86645e-07
-2.09923e-05
6.1828e-07
-2.10845e-05
6.68454e-07
-2.10813e-05
6.02791e-07
-2.10989e-05
5.47277e-07
-2.11007e-05
4.68709e-07
-2.1151e-05
4.92999e-07
-2.1238e-05
5.19944e-07
-2.13188e-05
4.81805e-07
-2.14285e-05
4.5395e-07
-2.14979e-05
4.53621e-07
-2.1598e-05
4.63829e-07
-2.17089e-05
4.58513e-07
-2.18135e-05
4.68962e-07
-2.19712e-05
6.28548e-07
-2.20353e-05
8.3028e-07
-2.183e-05
1.26585e-06
-2.10749e-05
1.76077e-06
-2.06411e-05
2.03034e-06
-2.02278e-05
1.62034e-06
-2.03929e-05
1.22354e-06
-2.08405e-05
7.0256e-07
-2.11903e-05
4.12044e-07
-2.15397e-05
3.7997e-07
-2.18082e-05
1.6091e-07
-2.21232e-05
-3.7937e-07
-1.31939e-06
-2.22797e-05
2.19515e-06
-1.85208e-06
-2.31453e-05
2.27732e-05
2.40936e-05
-2.91466e-05
2.5371e-05
-2.03384e-05
1.78773e-05
-1.71056e-05
1.80642e-05
2.20273e-05
1.19915e-06
2.92402e-06
2.32901e-05
3.67982e-06
-4.96817e-06
2.36128e-05
3.79242e-06
2.33473e-05
3.24407e-06
-3.01027e-06
2.29755e-05
2.53289e-06
2.29375e-05
2.06827e-06
-2.06698e-06
2.32595e-05
1.6285e-06
2.25444e-05
9.11821e-07
2.21214e-05
5.84898e-07
2.19118e-05
7.90288e-07
2.18433e-05
8.35521e-07
2.17847e-05
8.6706e-07
2.17942e-05
7.55979e-07
2.16869e-05
8.23292e-07
2.17254e-05
8.87613e-07
2.19154e-05
9.33184e-07
2.19983e-05
8.2702e-07
2.19418e-05
6.65789e-07
2.18442e-05
5.1511e-07
2.17959e-05
3.64808e-07
2.16712e-05
4.59296e-07
2.16086e-05
4.15717e-07
2.15095e-05
5.09091e-07
2.14254e-05
5.54405e-07
2.134e-05
6.12461e-07
2.13509e-05
5.73839e-07
2.12703e-05
6.58238e-07
2.11991e-05
7.33911e-07
2.12209e-05
7.17729e-07
2.12412e-05
7.24676e-07
2.11985e-05
8.42867e-07
2.11973e-05
8.95621e-07
2.11992e-05
9.29533e-07
2.11929e-05
9.43574e-07
9.1732e-07
2.12148e-05
2.37273e-06
4.84303e-05
-3.84279e-05
-1.23863e-05
-2.0629e-05
1.97125e-05
-2.62162e-05
2.55261e-05
9.38617e-06
-8.72528e-06
-1.21337e-06
1.39931e-05
1.20941e-06
-1.40834e-05
-3.59377e-05
-7.73417e-06
1.34104e-05
3.02464e-05
-2.07918e-05
-1.59752e-05
-4.49915e-06
-2.25312e-05
-2.26334e-05
-2.58311e-06
2.33395e-05
-2.06533e-05
2.07203e-05
8.82386e-07
-2.07165e-05
8.90596e-07
-2.06363e-05
7.65951e-07
-2.07366e-05
8.64939e-07
-2.07079e-05
7.72623e-07
-2.07132e-05
7.26721e-07
-2.07322e-05
6.70592e-07
-2.07831e-05
6.09459e-07
-2.08514e-05
6.36893e-07
-2.08756e-05
6.05484e-07
-2.0937e-05
5.90606e-07
-2.1021e-05
5.7208e-07
-2.10773e-05
5.30984e-07
-2.11941e-05
5.89499e-07
-2.12931e-05
5.55633e-07
-2.14317e-05
5.96327e-07
-2.14693e-05
6.46748e-07
-2.1483e-05
8.17062e-07
-2.13135e-05
1.06313e-06
-2.0945e-05
1.35471e-06
-2.05675e-05
1.61188e-06
-2.02727e-05
1.28264e-06
-2.03677e-05
1.2745e-06
-2.06743e-05
9.64212e-07
-2.09731e-05
6.65491e-07
-2.12853e-05
6.47318e-07
-2.16111e-05
4.42955e-07
-2.19158e-05
-1.16836e-07
-2.25081e-05
-7.67759e-07
-2.16124e-06
-2.26376e-05
-1.93784e-05
-1.83248e-05
2.12718e-05
-8.05306e-06
-2.34579e-05
2.25659e-05
8.89773e-06
2.29094e-05
3.0147e-06
-2.47588e-05
2.31632e-05
3.39251e-06
2.32187e-05
3.70164e-06
2.29921e-05
3.43323e-06
2.27874e-05
2.69753e-06
2.2678e-05
2.13482e-06
2.26015e-05
1.66011e-06
2.22607e-05
1.20594e-06
2.18653e-05
9.3195e-07
2.17461e-05
8.59979e-07
2.16033e-05
9.28151e-07
2.15832e-05
8.37076e-07
2.15236e-05
7.66251e-07
2.148e-05
8.19618e-07
2.14924e-05
8.30846e-07
2.15515e-05
8.33656e-07
2.15818e-05
7.61498e-07
2.15835e-05
6.35469e-07
2.15565e-05
5.21297e-07
2.14125e-05
4.97046e-07
2.13567e-05
5.13441e-07
2.12116e-05
5.70349e-07
2.11221e-05
6.20019e-07
2.10345e-05
6.76211e-07
2.10553e-05
6.39526e-07
2.09721e-05
7.19201e-07
2.08945e-05
8.12607e-07
2.09184e-05
8.01711e-07
2.09489e-05
7.94136e-07
2.08895e-05
9.05775e-07
2.08673e-05
1.00119e-06
2.09055e-05
1.00781e-06
2.09132e-05
1.08638e-06
2.09512e-05
1.08327e-06
2.09488e-05
1.11014e-06
-9.20325e-07
1.1048e-06
2.09662e-05
-6.92403e-07
2.12175e-05
-4.19265e-07
2.12292e-05
-1.35643e-07
2.1339e-05
6.56199e-08
2.14368e-05
3.90164e-07
2.13286e-05
6.62528e-07
2.12228e-05
8.69676e-07
2.10888e-05
2.07986e-05
9.86692e-07
-2.85797e-05
-9.64944e-06
1.19896e-05
-1.19313e-06
2.75075e-06
-4.45613e-05
4.29871e-05
-1.17103e-05
9.93014e-06
-9.61786e-06
1.13978e-05
-2.58729e-05
-1.55773e-05
2.21316e-05
2.22329e-05
-2.57715e-05
-7.2581e-06
1.14623e-05
1.59932e-05
-2.2848e-05
-1.85998e-06
-3.50376e-06
-2.36625e-05
-1.71979e-05
-1.98874e-05
1.76904e-05
-2.09681e-05
-1.38523e-05
8.92414e-06
-2.77398e-05
1.64897e-05
-1.94034e-05
3.06339e-05
1.71605e-05
1.92211e-05
2.26156e-05
-2.26911e-05
3.05436e-06
2.23066e-05
3.66278e-06
2.23537e-05
3.61317e-06
2.23268e-05
3.41579e-06
2.22374e-05
2.73975e-06
2.21382e-05
2.18415e-06
2.19921e-05
1.75382e-06
2.17713e-05
1.37245e-06
2.15367e-05
1.11003e-06
2.13641e-05
9.74347e-07
2.13032e-05
9.29583e-07
2.12246e-05
8.55745e-07
2.11494e-05
7.81795e-07
2.11168e-05
7.93864e-07
2.11002e-05
7.9132e-07
2.11078e-05
7.73144e-07
2.11126e-05
7.08304e-07
2.10937e-05
6.1175e-07
2.09973e-05
5.82183e-07
2.08913e-05
5.75749e-07
2.07902e-05
5.96285e-07
2.07108e-05
6.41728e-07
2.06192e-05
7.14449e-07
2.06301e-05
6.79873e-07
2.05555e-05
7.4116e-07
2.04485e-05
8.66229e-07
2.04814e-05
8.33228e-07
2.05149e-05
8.35532e-07
2.04551e-05
9.34845e-07
2.04256e-05
1.02951e-06
2.04834e-05
1.05104e-06
2.04546e-05
1.15702e-06
2.05054e-05
1.16864e-06
2.05553e-05
1.17839e-06
2.05852e-05
1.23643e-06
2.0603e-05
1.25359e-06
-1.10846e-06
1.26214e-06
2.06254e-05
-9.21669e-07
2.0992e-05
-6.18997e-07
2.11567e-05
-4.71913e-07
2.1345e-05
-2.31447e-07
2.13738e-05
1.17339e-07
2.13674e-05
4.05326e-07
2.1314e-05
6.12838e-07
2.12746e-05
8.71372e-07
2.10666e-05
1.05489e-06
2.0821e-05
-2.03084e-05
2.03565e-05
1.17516e-06
-2.02722e-05
1.10988e-06
-2.02816e-05
1.04189e-06
-2.02534e-05
1.002e-06
-2.03153e-05
9.5654e-07
-2.02444e-05
9.10805e-07
-2.02412e-05
8.73805e-07
-2.02491e-05
8.26275e-07
-2.02501e-05
7.50234e-07
-2.03361e-05
7.60943e-07
-2.03722e-05
7.25443e-07
-2.04202e-05
6.92921e-07
-2.04566e-05
6.5372e-07
-2.05422e-05
6.72207e-07
-2.06222e-05
6.13659e-07
-2.06825e-05
6.41555e-07
-2.07613e-05
6.1617e-07
-2.08508e-05
6.59033e-07
-2.09145e-05
6.76348e-07
-2.09167e-05
7.78648e-07
-2.0825e-05
9.25491e-07
-2.06276e-05
1.10753e-06
-2.04409e-05
1.37288e-06
-2.02643e-05
1.05187e-06
-2.03278e-05
1.2836e-06
-2.0425e-05
1.00657e-06
-2.06485e-05
8.34119e-07
-2.0911e-05
8.56064e-07
-2.12415e-05
7.21265e-07
-2.17613e-05
3.5231e-07
-4.26138e-07
-2.21513e-05
-2.04089e-05
-1.92476e-05
2.13146e-05
-2.90663e-06
-2.34801e-05
-2.67462e-05
-3.44466e-06
6.49698e-06
-1.50172e-06
-1.68298e-05
-2.1354e-05
2.25814e-05
-2.14659e-05
-1.49916e-05
2.09112e-05
-1.39345e-05
-1.29202e-05
1.78277e-05
-1.94317e-05
-8.8067e-06
2.01242e-05
2.59614e-06
6.71921e-07
2.21378e-05
2.15034e-06
-2.17283e-05
2.15438e-05
3.60546e-06
2.13091e-05
3.85228e-06
2.12399e-05
3.63434e-06
2.13848e-05
3.21957e-06
2.13909e-05
2.67897e-06
2.13747e-05
2.14252e-06
2.12337e-05
1.83436e-06
2.10994e-05
1.44368e-06
2.09483e-05
1.19529e-06
2.08239e-05
1.03053e-06
2.07623e-05
9.21186e-07
2.06846e-05
8.6238e-07
2.06109e-05
7.84098e-07
2.05585e-05
7.7542e-07
2.05296e-05
7.5094e-07
2.05187e-05
7.17174e-07
2.04693e-05
6.94563e-07
2.04197e-05
6.03111e-07
2.03346e-05
6.1522e-07
2.02425e-05
6.22914e-07
2.01563e-05
6.45682e-07
2.00871e-05
6.83111e-07
2.00599e-05
7.2366e-07
1.99879e-05
7.44375e-07
1.98794e-05
8.53314e-07
1.99218e-05
8.39348e-07
1.99409e-05
8.4161e-07
1.98716e-05
9.44371e-07
1.98317e-05
1.0262e-06
1.98804e-05
1.04428e-06
1.98438e-05
1.16265e-06
1.99183e-05
1.1689e-06
1.99801e-05
1.20413e-06
1.99785e-05
1.28748e-06
2.00309e-05
1.30092e-06
2.00811e-05
1.32919e-06
2.01241e-05
1.35286e-06
-1.24072e-06
2.01407e-05
1.36474e-06
-1.06665e-06
2.06358e-05
-8.71721e-07
2.10195e-05
-6.60936e-07
2.11982e-05
-3.40539e-07
2.12991e-05
-1.19238e-07
2.14404e-05
1.31786e-07
2.14072e-05
3.61022e-07
2.13698e-05
6.55076e-07
2.12511e-05
8.59343e-07
2.11092e-05
1.09457e-06
2.08009e-05
1.24872e-06
2.03788e-05
-1.97514e-05
1.97893e-05
1.34366e-06
-1.97168e-05
1.26694e-06
-1.96841e-05
1.19636e-06
-1.96717e-05
1.14083e-06
-1.96552e-05
1.08802e-06
-1.96414e-05
1.03594e-06
-1.96422e-05
9.94569e-07
-1.96452e-05
9.48996e-07
-1.96634e-05
9.05685e-07
-1.97158e-05
8.5232e-07
-1.97152e-05
7.98537e-07
-1.97732e-05
8.09797e-07
-1.98258e-05
7.60443e-07
-1.98885e-05
7.20078e-07
-1.99308e-05
7.0711e-07
-2.00113e-05
6.76133e-07
-2.00562e-05
6.587e-07
-2.01653e-05
6.88677e-07
-2.02153e-05
6.64864e-07
-2.02734e-05
6.83811e-07
-2.02897e-05
7.38825e-07
-2.02499e-05
8.25203e-07
-2.0162e-05
9.5605e-07
-1.99739e-05
1.11958e-06
-2.00164e-05
1.02789e-06
-1.996e-05
1.161e-06
-2.00642e-05
1.04465e-06
-2.01759e-05
8.80046e-07
-2.03646e-05
9.80933e-07
-2.06314e-05
9.26021e-07
-2.10181e-05
6.79438e-07
1.00677e-07
-2.16008e-05
-2.25954e-05
-1.46103e-06
-1.92429e-05
-2.107e-05
-1.9778e-05
-2.17259e-05
2.22389e-05
8.7601e-06
1.63633e-05
-1.91059e-05
-6.01968e-06
-2.2916e-05
-2.62771e-06
-1.97901e-05
-8.5748e-06
4.86844e-06
-2.12427e-05
-1.14997e-05
-2.14434e-05
-1.37632e-05
-3.99479e-07
-8.00631e-06
-1.8362e-05
-9.11522e-06
-1.99617e-05
1.52604e-06
-2.3842e-05
-3.11531e-06
-1.71461e-05
-2.11685e-05
-2.02497e-05
-1.62111e-05
-1.21609e-06
1.38014e-06
2.01231e-05
-1.06568e-06
2.06774e-05
-8.42939e-07
2.10279e-05
-5.89342e-07
2.12065e-05
-3.65093e-07
2.13595e-05
-6.25078e-08
2.14366e-05
1.69744e-07
2.14774e-05
4.51464e-07
2.13843e-05
6.78332e-07
2.1305e-05
9.40141e-07
2.11039e-05
1.16258e-06
2.0802e-05
1.31147e-06
2.04138e-05
1.38368e-06
1.98559e-05
-1.90709e-05
1.42987e-06
1.91149e-05
-1.89905e-05
1.34928e-06
-1.89604e-05
1.31819e-06
-1.89181e-05
1.23002e-06
-1.89097e-05
1.202e-06
-1.88978e-05
1.13883e-06
-1.88774e-05
1.07049e-06
-1.88844e-05
1.04815e-06
-1.88814e-05
9.83721e-07
-1.89093e-05
9.6192e-07
-1.89459e-05
9.07499e-07
-1.89968e-05
8.57952e-07
-1.9003e-05
8.14432e-07
-1.90603e-05
8.06096e-07
-1.91209e-05
7.59176e-07
-1.91605e-05
7.15508e-07
-1.92371e-05
7.12136e-07
-1.93146e-05
6.87272e-07
-1.93541e-05
6.71667e-07
-1.94344e-05
6.82096e-07
-1.9495e-05
6.75878e-07
-1.95286e-05
6.99488e-07
-1.95285e-05
7.48818e-07
-1.94824e-05
8.31491e-07
-1.93793e-05
9.37112e-07
-1.92871e-05
8.56059e-07
-1.94042e-05
1.19958e-06
-1.93673e-05
9.29441e-07
-1.95545e-05
9.90192e-07
-1.96138e-05
9.65058e-07
-1.97816e-05
1.02138e-06
-2.01333e-05
9.60915e-07
7.03999e-07
-2.08054e-05
-9.61448e-07
-2.21539e-05
1.87095e-05
-1.56157e-05
-2.02183e-05
-1.77159e-05
-2.28979e-05
1.13041e-05
-2.80509e-06
3.85147e-06
-1.24312e-05
3.50689e-05
-1.20099e-06
-3.46011e-05
7.18561e-07
1.98677e-05
4.08595e-06
-2.04012e-05
1.98778e-05
3.78882e-06
2.00402e-05
3.41699e-06
2.02203e-05
2.98082e-06
2.02971e-05
2.53942e-06
2.0331e-05
2.0424e-06
2.02906e-05
1.80556e-06
2.0225e-05
1.43686e-06
2.01406e-05
1.20373e-06
2.00594e-05
1.03295e-06
1.99874e-05
9.11874e-07
1.99438e-05
8.22842e-07
1.98767e-05
7.66945e-07
1.98235e-05
7.44188e-07
1.97752e-05
7.15496e-07
1.97292e-05
6.81093e-07
1.97053e-05
6.39047e-07
1.96061e-05
6.26944e-07
1.95213e-05
6.29744e-07
1.94369e-05
6.43144e-07
1.93588e-05
6.66683e-07
1.9294e-05
6.98745e-07
1.92436e-05
7.33464e-07
1.91877e-05
7.68977e-07
1.92007e-05
8.18935e-07
1.91424e-05
8.86391e-07
1.91092e-05
8.73943e-07
1.90757e-05
9.87438e-07
1.91055e-05
1.01638e-06
1.90696e-05
1.11038e-06
1.91231e-05
1.14921e-06
1.91821e-05
1.15941e-06
1.91639e-05
1.28058e-06
1.9205e-05
1.31296e-06
1.92662e-05
1.314e-06
1.93422e-05
1.33439e-06
1.93751e-05
1.40712e-06
1.9417e-05
1.4151e-06
1.94337e-05
1.4601e-06
-1.99112e-05
-2.3042e-05
2.31578e-05
-2.11058e-05
-2.17071e-05
4.61188e-05
-1.78867e-06
3.59462e-06
-4.79329e-05
-2.04655e-05
-3.8017e-06
-1.52866e-05
-2.27319e-05
-3.33686e-06
-1.8081e-05
1.81217e-05
1.42866e-06
-1.80597e-05
1.36518e-06
-1.79956e-05
1.28843e-06
-1.79898e-05
1.25508e-06
-1.79435e-05
1.18212e-06
-1.79456e-05
1.16214e-06
-1.79483e-05
1.08862e-06
-1.79252e-05
1.03394e-06
-1.79548e-05
1.01508e-06
-1.79457e-05
9.47036e-07
-1.79852e-05
9.33134e-07
-1.80209e-05
8.71414e-07
-1.80674e-05
8.30169e-07
-1.80914e-05
7.90927e-07
-1.81534e-05
7.73395e-07
-1.8222e-05
7.28094e-07
-1.82711e-05
6.97367e-07
-1.83355e-05
6.80705e-07
-1.84072e-05
6.66097e-07
-1.84635e-05
6.55661e-07
-1.85305e-05
6.55657e-07
-1.85787e-05
6.57069e-07
-1.86027e-05
6.79828e-07
-1.85894e-05
7.23941e-07
-1.85386e-05
7.92065e-07
-1.86228e-05
8.46227e-07
-1.84787e-05
9.63389e-07
-1.84775e-05
8.3747e-07
-1.85575e-05
9.81776e-07
-1.86476e-05
9.68838e-07
-1.87014e-05
9.91855e-07
-1.89053e-05
1.08401e-06
-1.95538e-05
1.27305e-06
-2.36647e-07
-2.15953e-05
1.76115e-05
-1.44106e-05
1.54889e-05
-2.35616e-05
-1.53392e-05
-1.39167e-06
1.49029e-06
1.94354e-05
-1.26325e-06
2.01461e-05
-1.08276e-06
2.06953e-05
-8.23418e-07
2.1007e-05
-6.09758e-07
2.12635e-05
-3.91477e-07
2.14358e-05
-1.10573e-07
2.1464e-05
2.30948e-07
2.14483e-05
4.7614e-07
2.14452e-05
7.52555e-07
2.13189e-05
1.00277e-06
2.11187e-05
1.16657e-06
2.08696e-05
1.317e-06
2.0454e-05
1.43043e-06
1.98864e-05
1.47736e-06
1.91615e-05
1.43155e-06
1.82087e-05
2.23674e-05
-1.55141e-05
-2.24886e-05
2.14513e-05
-1.54587e-05
2.04099e-05
-1.27548e-05
1.93168e-05
-1.04442e-05
-8.73469e-06
-1.7095e-05
1.61681e-05
1.80681e-05
-7.32228e-06
-2.57673e-05
-7.3063e-06
6.89055e-06
3.42432e-07
3.54766e-08
-4.68059e-06
-1.38438e-05
1.28592e-05
1.78824e-05
3.63287e-06
-1.74874e-05
1.82668e-05
3.34421e-06
1.86005e-05
3.02127e-06
1.88434e-05
2.67164e-06
1.90263e-05
2.28545e-06
1.90593e-05
1.93448e-06
1.91501e-05
1.63645e-06
1.91404e-05
1.36416e-06
1.91077e-05
1.15007e-06
1.90638e-05
9.87034e-07
1.90155e-05
8.67116e-07
1.89614e-05
7.81357e-07
1.89102e-05
7.20688e-07
1.8863e-05
6.92953e-07
1.882e-05
6.59746e-07
1.87637e-05
6.39571e-07
1.86859e-05
6.20824e-07
1.86035e-05
6.16384e-07
1.85208e-05
6.23423e-07
1.84404e-05
6.39613e-07
1.83661e-05
6.63096e-07
1.83008e-05
6.92814e-07
1.82446e-05
7.25708e-07
1.81961e-05
7.61413e-07
1.81639e-05
8.03481e-07
1.81606e-05
8.50576e-07
1.81137e-05
8.90575e-07
1.81227e-05
9.56972e-07
1.80972e-05
1.029e-06
1.8131e-05
1.07218e-06
1.8185e-05
1.09873e-06
1.81442e-05
1.21119e-06
1.82167e-05
1.22596e-06
1.82909e-05
1.26306e-06
1.83407e-05
1.29398e-06
1.83364e-05
1.3734e-06
1.83958e-05
1.38634e-06
1.84448e-05
1.40796e-06
1.84741e-05
1.47519e-06
1.85104e-05
1.50051e-06
3.17183e-06
4.59278e-05
-2.98921e-06
-2.79028e-06
-2.20405e-05
-1.44569e-05
7.95209e-06
-1.95711e-05
-2.4678e-05
2.43203e-05
-1.9386e-05
-2.46347e-05
-2.16033e-05
-2.31629e-05
-4.7781e-05
-5.59213e-06
5.15741e-05
4.07148e-05
-2.7393e-07
-3.80789e-05
1.95494e-05
-3.16573e-06
-2.34017e-05
2.17644e-06
-2.20504e-05
1.88804e-05
1.37005e-05
-1.45326e-05
-1.03088e-05
-3.12984e-05
1.30071e-05
6.48385e-06
-1.07647e-05
-8.68238e-06
1.28879e-05
-3.63573e-07
-4.65711e-05
-3.10427e-06
5.00229e-05
-1.69507e-05
1.69776e-05
1.39323e-06
-1.69037e-05
1.37026e-06
-1.68476e-05
1.29722e-06
-1.68293e-05
1.25716e-06
-1.679e-05
1.20115e-06
-1.67888e-05
1.16388e-06
-1.67472e-05
1.1002e-06
-1.67526e-05
1.06982e-06
-1.67656e-05
1.01812e-06
-1.67587e-05
9.73909e-07
-1.67849e-05
9.33182e-07
-1.67899e-05
8.91663e-07
-1.68215e-05
8.49924e-07
-1.68613e-05
8.09807e-07
-1.69119e-05
7.74337e-07
-1.69556e-05
7.42933e-07
-1.70168e-05
7.08338e-07
-1.70849e-05
6.78262e-07
-1.71504e-05
6.53262e-07
-1.72121e-05
6.29488e-07
-1.72837e-05
6.24821e-07
-1.73441e-05
6.10168e-07
-1.74026e-05
6.0734e-07
-1.74475e-05
6.14928e-07
-1.74594e-05
6.25837e-07
-1.74293e-05
6.52631e-07
-1.74194e-05
7.28629e-07
-1.74348e-05
8.73101e-07
-1.74339e-05
7.32832e-07
-1.74409e-05
8.88242e-07
-1.74621e-05
8.92691e-07
-1.75196e-05
9.55248e-07
-1.76533e-05
1.12648e-06
-1.77706e-05
1.30128e-06
2.02658e-06
-1.7707e-05
2.11465e-05
-1.32093e-05
-2.8229e-05
2.38088e-05
-1.32656e-05
2.06264e-05
-1.40823e-05
-3.48011e-05
-1.49043e-06
1.52605e-06
1.85226e-05
-1.3925e-06
1.94406e-05
-1.27881e-06
2.01883e-05
-1.07723e-06
2.06977e-05
-8.75585e-07
2.10503e-05
-6.3555e-07
2.1302e-05
-3.20533e-07
2.14237e-05
-1.16103e-08
2.14722e-05
2.36873e-07
2.15213e-05
5.34626e-07
2.14627e-05
8.09538e-07
2.13429e-05
1.02502e-06
2.11763e-05
1.22196e-06
2.09115e-05
1.38413e-06
2.04885e-05
1.46867e-06
1.99504e-05
1.50877e-06
1.92179e-05
1.52555e-06
1.82345e-05
1.45515e-06
1.70362e-05
-1.67792e-05
2.09227e-05
-1.41774e-05
1.92762e-05
-1.11438e-05
1.77352e-05
-8.9429e-06
1.5957e-05
-7.00102e-06
-7.42661e-06
1.45216e-05
1.42341e-06
-2.30752e-06
2.37909e-05
-2.74555e-05
1.59326e-05
3.59858e-06
-1.52883e-05
-4.29947e-06
1.62948e-05
3.20831e-06
1.66915e-05
2.88114e-06
1.70577e-05
2.58615e-06
1.73636e-05
2.29176e-06
1.75752e-05
1.99456e-06
1.77127e-05
1.71312e-06
1.78068e-05
1.4541e-06
1.78427e-05
1.23575e-06
1.78488e-05
1.04697e-06
1.78343e-05
9.00502e-07
1.78041e-05
7.9245e-07
1.77621e-05
7.15303e-07
1.77127e-05
6.59504e-07
1.76625e-05
6.30808e-07
1.76029e-05
6.06056e-07
1.75386e-05
5.90606e-07
1.74634e-05
5.83596e-07
1.73838e-05
5.85537e-07
1.73027e-05
5.97052e-07
1.72239e-05
6.14886e-07
1.71507e-05
6.37443e-07
1.70843e-05
6.65616e-07
1.70264e-05
6.96112e-07
1.69757e-05
7.31081e-07
1.69371e-05
7.67978e-07
1.69114e-05
8.09286e-07
1.68889e-05
8.53216e-07
1.68859e-05
9.07142e-07
1.69096e-05
9.5919e-07
1.69319e-05
1.01046e-06
1.69066e-05
1.09082e-06
1.69681e-05
1.12221e-06
1.70092e-05
1.1621e-06
1.70636e-05
1.19017e-06
1.70649e-05
1.27769e-06
1.71361e-05
1.29002e-06
1.71935e-05
1.31877e-06
1.71981e-05
1.3945e-06
1.72579e-05
1.40708e-06
1.72849e-05
1.46552e-06
1.73164e-05
1.48626e-06
2.27451e-05
-1.5163e-05
-2.31177e-05
-3.07554e-06
-2.13697e-05
1.9827e-05
-2.24563e-05
-2.41113e-05
2.33635e-05
-1.60253e-05
1.67524e-05
-2.47461e-05
-1.72646e-05
1.78803e-05
-1.87774e-05
-2.55579e-05
-2.20089e-05
-3.41264e-06
-2.64745e-05
-2.5019e-05
-2.12793e-05
-2.44227e-05
-2.33922e-05
4.27047e-05
-4.19188e-05
-1.16425e-06
2.00152e-05
-1.4519e-05
1.23756e-05
-1.78982e-05
-4.21639e-05
3.84216e-05
-4.00535e-06
1.82206e-05
-1.16812e-05
1.55613e-05
4.49668e-07
-1.05287e-05
2.13709e-05
1.02864e-05
4.73663e-05
-4.67537e-05
2.97327e-06
3.46445e-06
4.70645e-05
1.61219e-05
1.37927e-06
1.60798e-05
1.24858e-06
1.60745e-05
1.03222e-06
1.60566e-05
8.69055e-07
1.60833e-05
7.57718e-07
1.61241e-05
7.35203e-07
1.60293e-05
7.11815e-07
1.61256e-05
6.5802e-07
1.6116e-05
6.1636e-07
1.60813e-05
5.63372e-07
1.60389e-05
5.42822e-07
1.59803e-05
5.47902e-07
1.59107e-05
5.51763e-07
1.58391e-05
5.57899e-07
1.57731e-05
5.69206e-07
1.56984e-05
5.85737e-07
1.56315e-05
6.05578e-07
1.55633e-05
6.36281e-07
1.5505e-05
6.61454e-07
1.54556e-05
6.92494e-07
1.54083e-05
7.27407e-07
1.53726e-05
7.57104e-07
1.53421e-05
7.9726e-07
1.53198e-05
8.36006e-07
1.53089e-05
8.70805e-07
1.53017e-05
9.12023e-07
1.53008e-05
9.53508e-07
1.53148e-05
9.92953e-07
1.53231e-05
1.03126e-06
1.53371e-05
1.09037e-06
1.5368e-05
1.11134e-06
1.53904e-05
1.17578e-06
1.54139e-05
1.21396e-06
1.5463e-05
1.26014e-06
1.54832e-05
1.31029e-06
1.55353e-05
1.33827e-06
3.5054e-06
4.6486e-05
-4.07297e-06
-1.5146e-06
1.49748e-06
1.73246e-05
-1.48334e-06
1.85401e-05
-1.41846e-06
1.94811e-05
-1.27574e-06
2.02051e-05
-1.07481e-06
2.07055e-05
-8.6464e-07
2.10913e-05
-5.70767e-07
2.12933e-05
-2.80917e-07
2.14441e-05
-1.77107e-08
2.15341e-05
2.81174e-07
2.15521e-05
5.71741e-07
2.14953e-05
8.20385e-07
2.14007e-05
1.04344e-06
2.12336e-05
1.25654e-06
2.09435e-05
1.40195e-06
2.05451e-05
1.49363e-06
2.00112e-05
1.56489e-06
1.92456e-05
1.54716e-06
1.82957e-05
1.51323e-06
1.70576e-05
1.39937e-06
1.55819e-05
2.24851e-05
-1.29722e-05
-5.14654e-06
-2.00569e-05
-1.47944e-05
2.24456e-05
1.56889e-05
1.21704e-05
5.07544e-05
-3.94808e-05
-2.34547e-05
8.13073e-06
-4.37502e-05
5.16089e-06
-4.49705e-05
3.67964e-06
-4.52805e-05
4.54295e-05
2.44888e-06
-4.42067e-05
4.55551e-05
2.83879e-06
4.57169e-05
3.29342e-06
-4.96796e-06
6.63903e-06
4.40365e-05
1.26858e-05
-6.1502e-06
2.29004e-06
4.40314e-05
-4.37828e-05
-2.54892e-06
1.06677e-05
1.87854e-05
-9.46702e-06
9.05768e-06
1.81243e-05
-2.12059e-05
-6.00959e-06
2.00319e-05
-2.40283e-05
-1.50103e-05
2.29911e-05
-2.49565e-05
-1.63563e-05
-1.77212e-05
-2.60313e-05
-3.63022e-06
-2.1583e-05
2.20343e-05
-1.44218e-05
-2.27994e-05
2.13993e-06
-2.95072e-07
2.05254e-05
-1.09278e-05
1.82753e-05
-8.93059e-06
1.63714e-05
-7.07888e-06
1.54097e-05
-6.08284e-06
-5.73452e-06
1.36696e-05
-1.07942e-05
1.7393e-05
7.86317e-06
6.01232e-06
-2.90014e-06
-9.96689e-06
6.82077e-06
1.37511e-05
3.88682e-06
-4.56881e-06
-1.31284e-05
1.42081e-05
3.07902e-06
1.46529e-05
2.69559e-06
1.50606e-05
2.40156e-06
1.54194e-05
2.15218e-06
1.57228e-05
1.90692e-06
1.59638e-05
1.66592e-06
1.61425e-05
1.44164e-06
1.62604e-05
1.23852e-06
1.63365e-05
1.05707e-06
1.63675e-05
9.0858e-07
1.63729e-05
7.82892e-07
1.63552e-05
6.93666e-07
1.63197e-05
6.30619e-07
1.6271e-05
5.8495e-07
1.6219e-05
5.57095e-07
1.61553e-05
5.42456e-07
1.6085e-05
5.32653e-07
1.60076e-05
5.3269e-07
1.59289e-05
5.37031e-07
1.58463e-05
5.54254e-07
1.57658e-05
5.72736e-07
1.56936e-05
5.9031e-07
1.56248e-05
6.19191e-07
1.55672e-05
6.4307e-07
1.55119e-05
6.80882e-07
1.54704e-05
7.09526e-07
1.54374e-05
7.4791e-07
1.54174e-05
7.8433e-07
1.5402e-05
8.39146e-07
1.54139e-05
8.69174e-07
1.54246e-05
9.26561e-07
1.54683e-05
9.78187e-07
1.55038e-05
1.02142e-06
1.55371e-05
1.0663e-06
1.55418e-05
1.1254e-06
1.5582e-05
1.17896e-06
1.56389e-05
1.17543e-06
1.56491e-05
1.25091e-06
1.5709e-05
1.27643e-06
1.57484e-05
1.30815e-06
1.5773e-05
1.37991e-06
1.58131e-05
1.38312e-06
1.58389e-05
1.40669e-06
2.13621e-05
1.36701e-05
-2.26788e-05
1.98147e-05
1.21884e-05
-8.97906e-06
1.08948e-05
1.78697e-05
-3.8e-05
1.78103e-06
3.83982e-05
-2.19601e-06
1.60852e-05
-6.3086e-06
-3.8418e-06
-2.09935e-05
-4.46043e-07
4.47608e-05
3.96833e-07
8.97976e-06
1.39166e-05
-6.84175e-06
5.32642e-06
4.48773e-05
-7.88756e-06
-4.23304e-05
-2.59702e-05
-2.34885e-05
-2.60932e-05
-2.05757e-05
-2.62789e-05
1.37189e-05
-2.26549e-05
2.10991e-05
2.34742e-05
-1.4969e-05
-2.48827e-05
2.21589e-05
4.55923e-05
-2.39757e-05
4.10343e-05
2.44303e-06
-7.8875e-07
-4.57508e-05
8.65853e-06
4.37201e-05
2.85411e-05
-2.47935e-05
-3.29127e-05
-1.79526e-05
-5.25082e-06
1.68592e-05
-7.4211e-06
-4.55814e-05
3.11387e-06
-4.51144e-05
2.36245e-06
-4.3693e-05
1.01929e-06
1.42208e-05
1.05321e-06
1.43874e-05
9.7919e-07
1.4444e-05
8.67397e-07
1.44689e-05
7.30579e-07
1.44694e-05
6.38705e-07
1.45054e-05
5.76e-07
1.44938e-05
5.95772e-07
1.45131e-05
5.07055e-07
1.44685e-05
5.25938e-07
1.44126e-05
4.8166e-07
1.43375e-05
4.78442e-07
1.42807e-05
4.63993e-07
1.42106e-05
4.80789e-07
1.41407e-05
4.87109e-07
1.40671e-05
5.03313e-07
1.39926e-05
5.22863e-07
1.39225e-05
5.4086e-07
1.38581e-05
5.69199e-07
1.37984e-05
5.93352e-07
1.37463e-05
6.20906e-07
1.37004e-05
6.53952e-07
1.36603e-05
6.81995e-07
1.36311e-05
7.15373e-07
1.36114e-05
7.48296e-07
1.35945e-05
7.83302e-07
1.35877e-05
8.17031e-07
1.35894e-05
8.51731e-07
1.35947e-05
8.88697e-07
1.36017e-05
9.25808e-07
1.36306e-05
9.62342e-07
1.36324e-05
1.00937e-06
1.36572e-05
1.04893e-06
1.36954e-05
1.07118e-06
1.37177e-05
1.13024e-06
1.37591e-05
1.15794e-06
1.37814e-05
1.2014e-06
1.38385e-05
1.22401e-06
-1.39519e-05
-4.26081e-06
1.24344e-05
-1.54293e-05
-4.64862e-06
-1.70987e-05
-5.44928e-06
-1.94883e-05
-6.57778e-06
-2.24686e-05
-7.98122e-06
-2.63167e-05
-9.448e-06
-2.31565e-05
1.72667e-05
1.92818e-05
-9.82571e-06
2.17571e-05
-1.79735e-05
1.72918e-05
-1.36614e-05
2.18328e-05
1.23834e-05
1.95821e-05
-2.58858e-06
4.4778e-05
1.83768e-06
2.82312e-06
4.59422e-05
1.40746e-05
-2.55994e-05
-1.11733e-05
-1.61736e-05
-2.64496e-05
2.50265e-05
-8.48682e-06
5.77225e-06
-2.23346e-05
1.825e-06
-2.35051e-05
1.75311e-06
-2.09474e-05
2.24933e-05
-1.3459e-05
9.63997e-06
-5.86809e-06
-3.96247e-05
3.58453e-05
-4.72884e-05
-7.14253e-07
4.48847e-05
-1.01137e-05
-3.0313e-05
-1.5148e-06
1.41977e-06
1.58665e-05
-1.55032e-06
1.73504e-05
-1.51059e-06
1.85496e-05
-1.41509e-06
1.94929e-05
-1.25586e-06
2.02084e-05
-1.06289e-06
2.07252e-05
-8.034e-07
2.10879e-05
-5.4938e-07
2.13302e-05
-2.88415e-07
2.14998e-05
1.46737e-08
2.1563e-05
3.10663e-07
2.15929e-05
5.81129e-07
2.15552e-05
8.38433e-07
2.14569e-05
1.0746e-06
2.12842e-05
1.27144e-06
2.09973e-05
1.42004e-06
2.06028e-05
1.55202e-06
2.00349e-05
1.59562e-06
1.9303e-05
1.58914e-06
1.83463e-05