/*--------------------------------*- C++ -*----------------------------------*\
| =========                 |                                                 |
| \\      /  F ield         | OpenFOAM: The Open Source CFD Toolbox           |
|  \\    /   O peration     | Version:  2212                                  |
|   \\  /    A nd           | Website:  www.openfoam.com                      |
|    \\/     M anipulation  |                                                 |
\*---------------------------------------------------------------------------*/
FoamFile
{
    version     2.0;
    format      ascii;
    arch        "LSB;label=32;scalar=64";
    class       volScalarField;
    location    "0.058";
    object      k;
}
// * * * * * * * * * * * * * * * * * * * * * * * * * * * * * * * * * * * * * //

dimensions      [0 2 -2 0 0 0 0];

internalField   nonuniform List<scalar> 
44662
(
78.4584
253.441
252.642
257.393
255.364
55.2346
124.723
52.1682
218.949
237.033
64.7071
108.363
122.793
182.115
238.842
114.395
160.596
143.508
216.579
145.778
233.392
149.058
211.373
221.739
318.799
211.736
118.237
97.1129
116.605
108.422
183.941
195.165
280.667
67.7404
1698.16
223.648
144.684
133.78
216.962
200.025
194.997
156.172
95.4358
214.07
212.961
24.4131
126.063
231.558
232.429
217.565
262.044
114.626
195.664
37.0201
237.741
33.6313
187.801
90.2866
104.858
103.598
59.2851
27.2113
236.797
187.486
237.593
70.4241
67.182
90.0086
193.007
158.738
31.0051
71.3952
186.614
69.8779
150.051
178.136
15.0774
106.825
99.7577
66.1277
29.5097
142.344
229.131
136.633
35.5262
228.276
134.894
330.06
214.915
130.348
117.713
127.401
225.905
18.8036
208.473
207.395
69.8395
204.686
230.704
218.249
111.736
320.216
99.829
42.7478
119.808
105.622
117.211
33.4784
218.065
118.449
114.641
200.456
316.607
216.66
50.9106
111.833
94.8633
234.276
21.3058
108.745
193.49
110.333
94.284
105.664
108.272
458.386
102.303
105.971
276.139
98.3897
103.494
92.6982
64.7967
99.9104
93.1322
100.983
89.8274
89.3178
86.5052
98.5144
95.9505
79.0269
106.469
98.3466
70.9727
276.777
245.219
245.483
441.752
227.409
202.425
263.746
71.488
97.9392
382.988
424.644
196.486
111.284
110.926
110.578
110.24
109.912
109.593
109.282
108.98
108.684
108.394
108.112
107.837
107.568
107.307
107.052
106.804
106.563
106.328
106.1
105.879
105.664
105.456
105.255
105.061
104.873
104.693
104.519
104.352
104.191
104.037
103.89
103.75
103.616
103.49
103.37
103.257
103.151
103.052
102.96
102.876
102.799
102.729
102.667
102.612
102.564
102.524
102.492
102.467
102.449
102.62
102.603
102.646
34.103
111.65
111.293
111.654
102.44
102.439
102.601
102.597
102.721
102.68
102.823
102.769
102.951
102.884
103.108
103.026
103.293
103.197
103.507
103.396
103.751
103.625
104.024
103.884
104.32
104.169
104.64
104.477
104.985
104.809
105.359
105.168
105.761
105.557
106.19
105.973
106.646
106.415
107.129
106.884
107.639
107.38
108.176
107.904
108.742
108.455
109.336
109.035
109.959
109.643
110.618
110.284
110.961
110.596
110.94
109.938
110.263
109.317
109.624
108.727
109.018
108.164
108.442
107.628
107.892
107.119
107.37
106.637
106.874
106.181
106.406
105.752
105.963
105.35
105.548
104.973
105.158
104.622
104.794
104.299
104.457
104.005
104.149
103.739
103.869
103.5
103.616
103.288
103.391
103.103
103.192
102.947
103.022
102.821
102.88
102.725
102.769
102.661
102.689
102.624
102.639
102.615
102.616
103.096
103.082
103.121
25.8869
32.9781
111.348
111.695
102.616
103.096
103.122
103.128
102.622
103.14
112.023
112.022
103.084
103.191
103.153
103.284
103.235
103.4
103.339
103.543
103.469
103.713
103.625
103.912
103.809
104.143
104.023
104.404
104.271
104.685
104.542
104.984
104.832
105.308
105.142
105.661
105.48
106.044
105.849
106.454
106.245
106.89
106.668
107.352
107.118
107.842
107.594
108.359
108.097
108.905
108.628
109.48
109.189
110.082
109.778
110.717
110.395
111.048
116.711
102.447
110.677
111.008
110.042
110.355
109.444
109.739
108.876
109.156
108.335
108.602
107.821
108.075
107.333
107.574
106.872
107.099
106.436
106.651
106.027
106.228
105.643
105.832
105.285
105.461
104.951
105.115
104.645
104.795
104.368
104.503
104.119
104.24
103.898
104.005
103.702
103.797
103.534
103.615
103.393
103.46
103.281
103.333
103.199
103.236
103.149
103.17
103.126
103.134
103.124
112.05
103.948
103.91
103.883
103.878
103.904
102.637
103.16
112.046
112.411
112.396
112.4
103.995
105.064
105.124
112.772
112.777
103.888
103.963
103.931
104.039
103.998
104.136
104.085
104.257
104.193
104.403
104.327
104.579
104.487
104.788
104.679
105.028
104.905
105.283
105.153
105.551
105.415
105.842
105.693
106.163
105.998
106.515
106.336
106.894
106.701
107.299
107.093
107.729
107.511
108.185
107.954
108.669
108.424
109.183
108.922
109.726
109.451
110.293
110.007
110.887
110.586
237.411
111.196
102.638
102.462
103.155
112.81
112.123
112.463
111.463
111.789
110.832
111.143
110.237
110.53
109.674
109.951
109.142
109.404
108.636
108.886
108.157
108.393
107.702
107.926
107.273
107.485
106.87
107.068
106.491
106.677
106.138
106.312
105.809
105.97
105.505
105.654
105.226
105.362
104.976
105.098
104.753
104.861
104.557
104.652
104.387
104.469
104.242
104.311
104.124
104.18
104.034
104.076
103.974
104
103.943
103.955
103.94
103.939
103.959
103.946
104.008
103.98
113.148
113.163
112.092
105.013
112.418
104.047
105.19
106.418
106.49
105.145
104.045
105.191
112.783
113.157
113.523
104.97
104.959
104.963
113.521
112.322
112.176
104.978
105.011
104.988
105.067
105.037
105.139
105.101
105.232
105.183
105.35
105.288
105.495
105.419
105.676
105.581
105.887
105.779
106.108
105.997
106.337
106.222
106.586
106.458
106.867
106.722
107.18
107.02
107.518
107.346
107.881
107.696
108.268
108.071
108.681
108.471
109.12
108.897
109.59
109.351
110.089
109.836
110.608
110.346
111.147
110.874
233.848
111.428
412.14
102.661
103.189
102.667
102.486
103.195
113.557
112.9
113.226
112.267
112.58
111.661
111.96
111.085
111.369
110.539
110.807
110.025
110.278
109.54
109.779
109.08
109.307
108.646
108.86
108.235
108.438
107.849
108.039
107.487
107.665
107.15
107.316
106.836
106.99
106.546
106.688
106.279
106.409
106.037
106.155
105.82
105.925
105.631
105.722
105.466
105.545
105.327
105.393
105.212
105.266
105.122
105.164
105.059
105.087
105.023
105.037
105.016
105.017
105.035
105.022
105.076
105.052
105.107
113.883
113.894
112.453
106.357
106.279
106.291
106.277
106.567
104.091
105.246
112.558
112.637
112.839
112.799
113.173
113.546
113.908
114.253
114.238
112.518
106.313
106.299
106.285
106.333
106.314
106.377
106.352
106.441
106.406
106.526
106.481
106.639
106.579
106.787
106.708
106.965
106.874
107.149
107.056
107.333
107.24
107.534
107.43
107.77
107.648
108.036
107.9
108.326
108.178
108.64
108.48
108.977
108.805
109.337
109.154
109.724
109.527
110.141
109.929
110.586
110.361
111.045
110.813
111.519
111.279
112.021
111.766
112.285
102.695
103.227
102.704
102.519
104.104
103.24
106.646
105.258
114.283
113.669
113.973
113.077
113.37
112.51
112.79
111.968
112.236
111.455
111.708
110.97
111.209
110.514
110.739
110.085
110.297
109.68
109.88
109.299
109.487
108.94
109.117
108.605
108.77
108.292
108.445
108.001
108.144
107.733
107.864
107.487
107.607
107.263
107.372
107.062
107.16
106.885
106.971
106.732
106.805
106.603
106.664
106.497
106.547
106.414
106.452
106.354
106.381
106.319
106.333
106.309
106.311
106.326
106.314
106.366
106.343
106.429
106.395
106.517
106.47
106.634
106.572
114.588
114.601
113.13
112.96
112.823
107.944
108.021
107.876
113.186
106.727
108.188
108.274
108.174
106.703
108.247
113.404
113.43
113.668
113.567
113.944
114.299
114.63
114.944
107.796
107.777
107.767
114.924
112.867
108.103
107.826
107.766
107.764
107.779
107.772
107.8
107.788
107.837
107.816
107.892
107.862
107.972
107.928
108.087
108.025
108.231
108.157
108.378
108.304
108.514
108.446
108.667
108.587
108.856
108.757
109.073
108.961
109.312
109.19
109.573
109.44
109.855
109.711
110.158
110.004
110.486
110.319
110.844
110.661
111.228
111.033
111.621
111.424
112.022
111.819
112.448
112.231
112.907
112.673
113.151
104.145
105.308
102.737
103.274
102.747
102.559
104.165
103.29
105.33
114.989
114.424
114.703
113.884
114.151
113.368
113.623
112.875
113.118
112.405
112.636
111.962
112.18
111.545
111.75
111.154
111.346
110.787
110.967
110.442
110.612
110.119
110.278
109.817
109.966
109.536
109.674
109.275
109.403
109.035
109.152
108.815
108.922
108.615
108.713
108.436
108.523
108.277
108.354
108.139
108.206
108.023
108.078
107.928
107.973
107.855
107.889
107.802
107.826
107.77
107.783
107.76
107.763
107.773
107.764
107.809
107.788
107.866
107.835
107.945
107.903
108.047
107.993
108.107
115.254
115.28
113.292
113.198
109.54
109.616
109.472
109.364
109.387
109.349
109.779
109.862
106.78
108.326
113.945
113.739
113.577
113.971
114.347
114.693
115.011
115.306
115.589
115.577
113.225
109.697
109.422
109.336
109.341
109.334
109.334
109.337
109.334
109.353
109.344
109.383
109.365
109.436
109.406
109.521
109.474
109.634
109.576
109.746
109.693
109.84
109.793
109.95
109.891
110.093
110.018
110.263
110.175
110.453
110.356
110.661
110.554
110.887
110.772
111.133
111.007
111.401
111.264
111.696
111.544
112.017
111.854
112.34
112.179
112.665
112.501
113.011
112.835
113.386
113.195
113.795
113.586
114.245
114.014
114.237
114.491
104.207
105.378
102.788
103.329
102.799
102.608
104.23
103.347
106.81
105.405
109.946
108.361
115.669
115.166
115.414
114.686
114.923
114.228
114.454
113.792
114.007
113.377
113.582
112.983
113.177
112.614
112.796
112.268
112.438
111.945
112.103
111.642
111.791
111.359
111.498
111.095
111.225
110.85
110.97
110.623
110.734
110.414
110.516
110.222
110.316
110.049
110.134
109.894
109.969
109.755
109.822
109.636
109.693
109.534
109.582
109.45
109.489
109.384
109.415
109.337
109.359
109.308
109.321
109.298
109.301
109.306
109.299
109.333
109.317
109.379
109.353
109.445
109.41
109.53
109.485
109.634
109.579
109.758
109.693
109.905
109.829
115.879
115.929
113.63
113.58
111.083
111.149
111.026
110.928
110.95
110.912
114.055
113.976
110.032
111.43
111.502
111.379
109.987
111.448
114.823
114.528
114.379
114.753
115.094
115.4
115.674
115.931
116.193
116.185
113.589
111.288
111.358
111.218
110.982
110.898
110.903
110.892
110.895
110.89
110.89
110.893
110.89
110.91
110.899
110.945
110.925
111.01
110.974
111.1
111.053
111.182
111.143
111.245
111.214
111.321
111.28
111.428
111.371
111.557
111.49
111.702
111.628
111.863
111.781
112.038
111.949
112.23
112.132
112.441
112.333
112.676
112.556
112.935
112.804
113.193
113.065
113.444
113.316
113.711
113.574
114.003
113.854
114.323
114.159
114.68
114.496
115.078
114.874
115.03
115.373
115.229
106.864
108.412
104.278
105.456
102.847
103.393
102.858
102.666
104.302
103.412
106.896
105.485
108.451
116.742
116.317
116.456
116.533
115.885
116.099
115.474
115.677
115.081
115.275
114.708
114.892
114.354
114.528
114.018
114.183
113.701
113.856
113.404
113.55
113.127
113.263
112.869
112.996
112.628
112.747
112.404
112.515
112.196
112.298
112.003
112.098
111.825
111.912
111.662
111.742
111.514
111.586
111.381
111.446
111.262
111.319
111.157
111.208
111.068
111.111
110.992
111.028
110.932
110.96
110.886
110.907
110.855
110.869
110.839
110.845
110.837
110.836
110.85
110.842
110.879
110.863
110.923
110.899
110.983
110.951
111.058
111.018
111.148
111.101
111.255
111.199
111.315
113.975
113.968
112.424
112.466
112.389
112.649
112.696
110.074
111.52
114.377
114.38
114.808
114.79
115.546
115.259
115.168
115.503
115.795
116.049
116.277
116.496
116.716
117.023
116.949
112.338
112.325
112.319
113.957
112.556
112.602
112.511
112.359
112.317
112.316
112.323
112.319
112.327
112.324
112.337
112.331
112.356
112.345
112.389
112.37
112.445
112.414
112.521
112.482
112.589
112.556
112.638
112.613
112.694
112.663
112.776
112.733
112.876
112.825
112.988
112.931
113.112
113.049
113.246
113.178
113.393
113.318
113.555
113.472
113.738
113.644
113.941
113.838
114.14
114.041
114.326
114.234
114.525
114.423
114.745
114.631
114.99
114.864
115.265
115.123
115.568
115.418
115.815
115.694
115.734
116.087
115.945
106.955
108.504
104.357
105.542
102.915
103.466
102.926
102.732
104.382
103.485
106.99
105.572
110.122
108.545
112.745
111.577
116.566
116.738
116.23
116.397
115.908
116.067
115.602
115.753
115.311
115.454
115.034
115.17
114.773
114.901
114.528
114.648
114.298
114.41
114.083
114.189
113.883
113.981
113.697
113.789
113.524
113.609
113.362
113.441
113.212
113.286
113.074
113.142
112.947
113.009
112.831
112.887
112.726
112.777
112.632
112.677
112.548
112.589
112.475
112.511
112.413
112.443
112.362
112.386
112.321
112.34
112.291
112.305
112.271
112.28
112.262
112.266
112.264
112.262
112.277
112.269
112.3
112.287
112.335
112.316
112.381
112.356
112.437
112.407
112.506
112.47
112.586
112.544
112.678
112.631
114.325
114.361
113.39
113.395
113.385
113.394
113.387
113.405
114.7
114.789
112.797
113.446
113.458
113.366
112.729
113.378
115.093
115.209
115.499
115.589
116.239
115.933
115.919
116.197
116.428
116.626
116.806
116.983
117.213
117.166
114.332
113.425
113.435
113.409
113.417
113.402
113.385
113.434
113.419
113.467
113.45
113.5
113.484
113.536
113.517
113.577
113.556
113.627
113.601
113.691
113.657
113.768
113.729
113.839
113.805
113.893
113.866
113.951
113.92
114.026
113.987
114.113
114.069
114.208
114.16
114.309
114.258
114.417
114.362
114.533
114.474
114.66
114.595
114.802
114.729
114.959
114.88
115.112
115.038
115.247
115.181
115.392
115.317
115.553
115.47
115.734
115.641
115.937
115.833
116.147
116.045
116.336
116.243
116.534
116.431
116.398
116.758
116.643
110.166
111.597
107.053
108.603
104.444
105.635
102.992
103.547
103.003
102.807
104.469
103.566
107.089
105.666
110.216
108.645
111.656
117.408
117.519
117.17
117.36
116.911
117.034
116.671
116.791
116.435
116.551
116.208
116.32
115.991
116.098
115.784
115.885
115.588
115.685
115.403
115.494
115.229
115.315
115.066
115.146
114.912
114.988
114.768
114.839
114.632
114.699
114.503
114.567
114.383
114.442
114.269
114.325
114.163
114.215
114.064
114.113
113.971
114.017
113.885
113.928
113.806
113.845
113.733
113.768
113.666
113.698
113.605
113.635
113.55
113.577
113.502
113.525
113.459
113.48
113.422
113.44
113.392
113.406
113.367
113.379
113.348
113.357
113.336
113.341
113.329
113.332
113.329
113.329
113.335
113.331
113.348
113.341
113.356
114.682
114.759
113.797
113.753
113.839
113.957
113.918
113.995
113.49
113.449
112.783
113.392
115.032
115.207
115.384
115.637
115.749
116.019
116.14
116.342
116.877
116.562
116.604
116.812
116.98
117.123
117.251
117.668
117.393
117.593
117.923
117.817
118.032
114.714
113.574
113.532
113.662
113.618
113.708
113.88
114.072
114.033
114.154
114.113
114.238
114.196
114.323
114.28
114.409
114.366
114.497
114.453
114.59
114.543
114.686
114.638
114.779
114.733
114.862
114.821
114.946
114.904
115.036
114.99
115.13
115.083
115.226
115.178
115.325
115.275
115.425
115.375
115.529
115.477
115.637
115.582
115.755
115.695
115.88
115.818
116
115.942
116.105
116.054
116.214
116.158
116.333
116.272
116.463
116.397
116.603
116.533
116.745
116.676
116.88
116.813
117.016
116.946
117.166
117.089
117
117.327
117.245
110.264
111.679
107.158
108.708
104.54
105.737
103.078
103.637
103.088
102.891
104.565
103.656
107.194
105.768
110.314
108.75
112.851
111.738
113.408
113.471
117.714
117.818
117.494
117.605
117.308
117.395
117.144
117.225
116.983
117.063
116.822
116.902
116.667
116.744
116.516
116.59
116.37
116.442
116.231
116.3
116.097
116.163
115.969
116.033
115.845
115.907
115.726
115.785
115.61
115.667
115.497
115.553
115.388
115.442
115.281
115.334
115.177
115.229
115.075
115.126
114.975
115.025
114.877
114.926
114.781
114.829
114.687
114.734
114.594
114.64
114.502
114.548
114.412
114.457
114.322
114.367
114.234
114.278
114.147
114.19
114.06
114.104
113.975
114.018
113.89
113.933
113.806
113.848
113.723
113.765
113.641
113.682
113.559
113.6
113.478
113.519
113.398
113.438
113.318
113.358
115.049
115.166
113.356
113.464
115.368
115.633
113.368
112.487
112.378
112.386
113.279
112.279
115.682
116.072
116.005
116.454
116.354
116.77
116.732
117.016
117.412
117.127
117.202
117.34
117.441
117.526
225.986
329.218
117.634
117.783
117.968
117.915
183.881
113.751
118.141
113.83
115.104
112.701
112.594
112.915
112.808
113.135
113.024
113.246
113.567
113.663
114.051
113.904
113.977
114.204
114.127
114.361
114.282
114.519
114.441
114.674
114.597
114.824
114.75
114.966
114.896
115.102
115.035
115.238
115.17
115.377
115.308
115.511
115.445
115.64
115.576
115.764
115.703
115.885
115.825
116.002
115.944
116.117
116.06
116.229
116.173
116.34
116.285
116.451
116.395
116.562
116.507
116.667
116.615
116.764
116.716
116.86
116.812
116.957
116.908
117.056
117.007
117.155
117.106
117.253
117.204
117.346
117.3
117.437
117.392
117.531
117.484
117.627
117.578
117.503
117.732
117.677
112.84
113.407
110.367
111.765
107.271
108.82
104.644
105.847
103.173
103.736
103.183
102.984
104.669
103.754
107.307
105.877
110.418
108.862
112.908
111.824
113.486
117.914
117.978
117.787
117.848
117.667
117.727
117.553
117.609
117.443
117.499
117.332
117.387
117.219
117.275
117.106
117.162
116.993
117.049
116.88
116.936
116.767
116.823
116.654
116.711
116.54
116.597
116.426
116.483
116.31
116.368
116.193
116.252
116.073
116.133
115.952
116.013
115.828
115.89
115.702
115.765
115.573
115.638
115.441
115.507
115.305
115.373
115.167
115.237
115.025
115.096
114.879
114.952
114.729
114.805
114.576
114.653
114.418
114.498
114.257
114.338
114.09
114.174
113.92
114.006
113.745
113.833
113.565
113.656
113.381
113.474
113.192
113.287
112.998
113.096
112.799
112.899
112.595
112.698
112.491
115.42
115.582
110.554
110.368
86.942
113.239
112.171
115.709
116.066
115.986
116.513
116.268
116.896
116.573
117.204
116.907
117.436
117.259
117.599
117.781
117.593
117.703
117.765
117.814
117.885
117.984
118.119
118.248
118.328
116.339
117.899
145.386
115.503
110.923
110.739
111.29
111.107
111.664
111.476
112.042
111.855
112.403
112.229
112.705
112.564
112.955
112.835
113.193
113.073
113.439
113.315
113.693
113.565
113.947
113.821
114.194
114.072
114.428
114.313
114.641
114.537
114.836
114.739
115.04
114.936
115.258
115.148
115.469
115.366
115.661
115.568
115.839
115.752
116.007
115.924
116.166
116.087
116.317
116.243
116.461
116.39
116.596
116.53
116.72
116.66
116.835
116.778
116.946
116.89
117.059
117.002
117.168
117.114
117.269
117.22
117.36
117.316
117.443
117.402
117.521
117.482
117.594
117.558
117.661
117.628
117.723
117.693
117.78
117.753
117.83
117.806
117.613
117.502
117.863
114.716
117.902
112.333
112.899
113.424
110.476
111.855
107.391
108.938
104.757
105.964
103.277
103.844
103.286
103.087
104.781
103.861
107.427
105.994
110.527
108.98
112.968
111.914
113.328
113.503
110.179
112.27
117.99
118.029
117.912
117.949
117.835
117.875
117.753
117.794
117.671
117.713
117.585
117.629
117.494
117.54
117.397
117.446
117.295
117.347
117.188
117.242
117.074
117.131
116.955
117.015
116.83
116.893
116.698
116.765
116.56
116.63
116.416
116.489
116.264
116.341
116.106
116.186
115.94
116.024
115.767
115.854
115.586
115.677
115.396
115.492
115.199
115.299
114.994
115.098
114.78
114.888
114.557
114.669
114.325
114.442
114.085
114.206
113.835
113.961
113.576
113.707
113.307
113.443
113.029
113.169
112.741
112.886
112.443
112.594
112.136
112.291
111.818
111.978
111.49
111.655
111.152
111.322
110.802
110.978
110.443
110.624
110.072
110.259
118.226
115.798
116.006
116.057
116.506
109.988
106.954
106.676
106.838
109.882
106.562
116.297
116.96
116.538
117.343
116.799
117.644
117.087
117.862
117.394
117.999
117.682
118.07
118.097
228.328
118.113
114.574
118.143
118.198
118.358
118.375
118.24
118.443
118.233
118.279
118.22
117.793
117.742
115.908
107.501
107.229
108.041
107.771
108.577
108.308
109.121
108.847
109.675
109.399
110.195
109.945
110.631
110.425
110.998
110.82
111.345
111.171
111.703
111.521
112.075
111.888
112.446
112.262
112.805
112.628
113.143
112.978
113.446
113.3
113.72
113.583
114.011
113.861
114.332
114.169
114.643
114.492
114.921
114.786
115.174
115.05
115.411
115.294
115.634
115.524
115.845
115.741
116.042
115.946
116.223
116.135
116.38
116.304
116.517
116.45
116.654
116.583
116.808
116.729
116.958
116.885
117.088
117.026
117.196
117.144
117.288
117.244
117.371
117.331
117.445
117.409
117.511
117.479
117.566
117.54
117.613
117.591
117.65
117.632
117.662
117.681
112.496
113.2
112.062
112.962
113.442
110.591
111.95
107.519
109.063
104.879
106.091
103.39
103.961
103.399
103.199
104.901
103.977
107.554
106.119
110.641
109.104
113.032
112.009
113.289
113.521
112.16
117.876
117.866
117.821
117.863
117.752
117.783
117.697
117.724
117.637
117.669
117.567
117.604
117.491
117.53
117.408
117.45
117.315
117.362
117.212
117.265
117.098
117.156
116.973
117.037
116.836
116.906
116.689
116.764
116.53
116.611
116.36
116.447
116.178
116.271
115.985
116.083
115.78
115.884
115.562
115.672
115.333
115.449
115.091
115.213
114.836
114.965
114.569
114.704
114.289
114.43
113.995
114.144
113.688
113.843
113.368
113.53
113.034
113.203
112.686
112.862
112.324
112.507
111.948
112.138
111.558
111.755
111.153
111.357
110.734
110.945
110.3
110.518
109.851
110.077
109.387
109.621
108.908
109.149
108.414
108.663
107.904
108.161
107.379
107.644
107.11
116.18
116.436
117.838
102.547
102.178
109.69
106.281
116.409
116.951
116.614
117.413
116.815
117.798
117.031
118.093
117.271
118.293
117.697
118.215
117.532
118.404
117.773
118.444
117.963
118.439
118.469
118.051
118.421
118.562
310.857
118.409
8.80306
118.413
118.445
117.662
116.775
116.707
116.319
103.272
102.911
103.988
103.631
104.702
104.344
105.427
105.061
106.162
105.795
106.845
106.518
107.423
107.146
107.92
107.678
108.392
108.155
108.88
108.631
109.386
109.131
109.889
109.639
110.375
110.134
110.832
110.608
111.239
111.043
111.609
111.426
112.004
111.801
112.448
112.222
112.877
112.668
113.258
113.073
113.605
113.435
113.929
113.769
114.236
114.085
114.526
114.383
114.796
114.664
115.042
114.923
115.247
115.15
115.423
115.338
115.607
115.51
115.825
115.712
116.041
115.936
116.224
116.137
116.372
116.301
116.497
116.437
116.606
116.553
116.703
116.656
116.787
116.747
116.857
116.824
116.913
116.886
116.967
116.938
116.97
116.987
116.854
113.161
111.951
113.029
113.462
110.711
112.049
107.655
109.194
105.01
106.225
103.513
104.088
103.521
103.32
105.031
104.102
107.688
106.252
110.761
109.235
113.098
112.108
113.249
113.541
109.795
112.048
101.806
106.394
116.949
116.854
117.141
117.06
117.099
117.124
117.004
117.041
116.948
116.977
116.884
116.918
116.804
116.844
116.713
116.759
116.61
116.663
116.493
116.553
116.361
116.429
116.213
116.289
116.05
116.133
115.869
115.962
115.673
115.773
115.46
115.569
115.231
115.348
114.986
115.111
114.724
114.857
114.446
114.587
114.151
114.3
113.839
113.997
113.51
113.676
113.163
113.339
112.8
112.984
112.419
112.612
112.02
112.222
111.604
111.815
111.17
111.389
110.718
110.946
110.247
110.485
109.758
110.005
109.251
109.507
108.725
108.99
108.18
108.455
107.617
107.901
107.035
107.328
106.433
106.736
105.813
106.126
105.174
105.496
104.515
104.847
103.837
104.179
103.14
103.491
102.423
102.784
101.687
102.058
116.569
116.871
116.769
117.402
101.429
96.0645
95.5998
95.9397
101.312
95.4771
116.938
117.874
117.098
118.262
116.655
117.641
117.27
118.548
118.22
117.463
118.73
117.674
118.817
117.874
118.826
118.512
118.027
118.791
118.622
118.037
118.733
118.672
169.891
231.623
118.675
118.629
118.625
116.621
115.097
115.046
116.735
96.9801
96.5248
97.8784
97.4309
98.7673
98.3223
99.656
99.2118
100.558
100.104
101.469
101.015
102.312
101.907
103.039
102.688
103.675
103.365
104.279
103.976
104.905
104.587
105.551
105.226
106.193
105.874
106.814
106.507
107.4
107.113
107.924
107.67
108.402
108.165
108.913
108.645
109.49
109.196
110.046
109.774
110.543
110.302
110.996
110.774
111.423
111.212
111.827
111.628
112.21
112.022
112.569
112.393
112.894
112.737
113.163
113.036
113.391
113.281
113.635
113.506
113.938
113.781
114.241
114.094
114.497
114.376
114.705
114.606
114.881
114.796
115.036
114.961
115.174
115.107
115.294
115.237
115.396
115.348
115.481
115.44
115.567
115.522
115.571
115.586
115.314
115.454
115.083
115.192
114.858
114.984
109.496
105.997
113.122
111.839
113.098
113.484
110.838
112.152
107.799
109.333
105.15
106.369
103.646
104.224
103.652
103.451
105.169
104.237
107.831
106.394
110.887
109.373
113.167
112.211
113.21
113.563
109.6
111.936
106.108
115.259
115.167
115.48
115.363
115.682
115.597
115.67
115.693
115.549
115.605
115.471
115.508
115.382
115.43
115.271
115.328
115.146
115.21
115.005
115.077
114.845
114.927
114.665
114.757
114.464
114.567
114.244
114.356
114.002
114.125
113.739
113.873
113.456
113.6
113.152
113.306
112.827
112.992
112.481
112.656
112.114
112.3
111.727
111.923
111.319
111.525
110.889
111.106
110.438
110.666
109.966
110.205
109.473
109.722
108.958
109.218
108.421
108.692
107.863
108.145
107.283
107.575
106.681
106.984
106.057
106.371
105.411
105.737
104.743
105.08
104.053
104.4
103.34
103.699
102.606
102.976
101.849
102.23
101.071
101.463
100.271
100.674
99.4481
99.8621
98.6036
99.0286
97.7374
98.1733
96.8492
97.296
96.3971
116.963
117.312
89.2774
88.734
112.658
108.679
100.932
95.0092
117.135
117.862
115.02
116.607
117.269
118.344
117.634
117.388
118.731
118.237
117.514
119.008
117.658
119.174
117.817
119.236
118.555
117.965
119.218
118.706
118.079
119.146
118.779
118.058
119.046
9.38791
118.94
118.852
118.826
116.234
108.881
117.157
90.3498
89.8158
91.4047
90.8797
92.4532
91.9289
93.5029
92.9771
94.5658
94.0313
95.6428
95.1064
96.6365
96.1538
97.5131
97.0886
98.277
97.9008
99.0113
98.6446
99.7739
99.39
100.561
100.166
101.34
100.953
102.096
101.721
102.811
102.46
103.457
103.143
104.047
103.757
104.681
104.352
105.392
105.033
106.079
105.742
106.695
106.395
107.262
106.983
107.797
107.533
108.307
108.055
108.792
108.553
109.249
109.025
109.661
109.462
110.005
109.843
110.293
110.154
110.608
110.439
111.01
110.801
111.412
111.215
111.757
111.593
112.038
111.904
112.28
112.163
112.494
112.39
112.687
112.593
112.857
112.775
113.004
112.934
113.128
113.068
113.24
113.188
113.269
113.265
113.086
113.194
112.88
112.975
112.795
109.298
105.709
113.083
111.726
113.171
113.507
110.97
112.261
107.95
109.479
105.299
106.521
103.788
104.369
103.793
103.591
105.316
104.38
107.981
106.544
111.018
109.518
113.239
112.319
113.171
113.586
109.402
111.822
101.048
105.819
88.1855
95.1298
104.807
104.578
113.004
112.843
115.023
112.716
112.745
112.796
112.742
112.961
112.872
113.182
113.071
113.326
113.274
113.337
113.339
113.213
113.275
113.084
113.14
112.956
113.024
112.799
112.88
112.626
112.714
112.431
112.531
112.212
112.325
111.97
112.094
111.703
111.839
111.411
111.56
111.096
111.257
110.754
110.928
110.388
110.574
109.998
110.196
109.584
109.794
109.144
109.367
108.68
108.915
108.192
108.439
107.679
107.939
107.142
107.414
106.58
106.864
105.994
106.29
105.383
105.691
104.747
105.068
104.087
104.42
103.402
103.747
102.692
103.05
101.958
102.328
101.199
101.581
100.415
100.81
99.6073
100.014
98.7749
99.1941
97.918
98.3495
97.037
97.4805
96.1321
96.5875
95.2034
95.6707
94.2512
94.7302
93.2758
93.7664
92.2772
92.7793
91.2559
91.7694
90.2121
90.7368
89.1466
89.682
88.0601
88.6059
109.871
115.077
117.365
117.761
116.604
117.509
118.328
87.6329
80.4089
79.7937
80.278
87.5092
79.6656
117.637
117.608
118.82
118.261
117.685
119.206
117.764
119.474
117.858
119.624
118.61
117.967
119.663
118.795
118.087
119.614
118.907
118.143
119.504
118.082
119.362
8.76891
119.213
119.011
119.095
117.214
116.133
112.165
114.441
110.018
112.945
115.139
112.003
47.6484
117.586
81.6263
81.0198
82.8258
82.2283
84.0117
83.4202
85.1918
84.6033
86.3767
85.7828
87.5787
86.9744
88.7899
88.19
89.9326
89.3741
90.931
90.4472
91.8134
91.3773
92.6696
92.2375
93.558
93.1109
94.4706
94.0135
95.3772
94.9262
96.2586
95.8217
97.0974
96.6847
97.8634
97.4897
98.5705
98.2193
99.3238
98.9326
100.158
99.7385
100.966
100.57
101.697
101.34
102.375
102.041
103.019
102.7
103.635
103.33
104.223
103.932
104.779
104.506
105.285
105.039
105.704
105.506
106.057
105.885
106.446
106.236
106.949
106.688
107.46
107.209
107.902
107.693
108.263
108.09
108.579
108.426
108.862
108.724
109.118
108.993
109.346
109.236
109.546
109.45
109.716
109.635
109.857
109.792
109.906
109.893
109.819
109.883
109.711
109.765
109.553
109.649
109.253
109.406
109.065
100.548
94.5364
109.098
105.418
113.044
111.611
113.246
113.533
111.108
112.374
108.11
109.632
105.458
106.681
103.94
104.524
103.944
103.742
105.473
104.534
108.139
106.703
111.155
109.67
113.314
112.431
113.132
113.611
109.201
111.708
100.662
105.527
94.6554
109.595
109.672
109.616
109.59
109.744
109.679
109.894
109.826
109.97
109.946
109.97
109.97
109.821
109.9
109.648
109.732
109.472
109.565
109.261
109.369
109.026
109.145
108.769
108.901
108.483
108.629
108.17
108.33
107.828
108.003
107.459
107.647
107.062
107.264
106.637
106.853
106.183
106.413
105.703
105.946
105.195
105.452
104.659
104.93
104.096
104.381
103.505
103.804
102.888
103.2
102.243
102.569
101.571
101.91
100.872
101.225
100.147
100.513
99.3941
99.7737
98.6147
99.0077
97.8089
98.2151
96.9765
97.396
96.1177
96.5504
95.2327
95.6785
94.3218
94.7805
93.3851
93.8567
92.4229
92.9072
91.4356
91.9324
90.4233
90.9325
89.3867
89.908
88.3262
88.8594
87.2421
87.787
86.1351
86.6915
85.0057
85.5732
83.8545
84.4328
82.682
83.2708
81.4895
82.0883
80.8862
116.629
117.774
118.216
48.4255
72.0577
71.402
86.9537
79.0492
117.651
117.89
118.802
118.294
117.953
119.302
117.989
119.689
118.022
119.949
118.673
118.068
120.08
118.893
118.14
120.095
119.046
118.199
120.016
118.208
119.868
118.111
119.687
119.194
119.506
117.801
117.155
119.351
116.039
114.314
109.724
105.672
105.432
204.644
289.07
111.847
109.549
112.806
115.114
116.658
118.023
73.3587
72.7099
74.6462
74.0041
75.9253
75.2861
77.2016
76.5637
78.483
77.8394
79.792
79.133
81.1106
80.4562
82.36
81.7568
83.4628
82.9366
84.4386
83.9567
85.3993
84.914
86.3895
85.8876
87.4114
86.8988
88.426
87.9209
89.4154
88.9246
90.3619
89.8953
91.238
90.8111
92.0586
91.6509
92.9198
92.4753
93.8547
93.3828
94.7655
94.3198
95.5995
95.1922
96.3787
95.9944
97.123
96.7545
97.8378
97.484
98.5228
98.1841
99.1745
98.8535
99.7689
99.4808
100.26
100.029
100.675
100.472