/*--------------------------------*- C++ -*----------------------------------*\
| =========                 |                                                 |
| \\      /  F ield         | OpenFOAM: The Open Source CFD Toolbox           |
|  \\    /   O peration     | Version:  2212                                  |
|   \\  /    A nd           | Website:  www.openfoam.com                      |
|    \\/     M anipulation  |                                                 |
\*---------------------------------------------------------------------------*/
FoamFile
{
    version     2.0;
    format      ascii;
    arch        "LSB;label=32;scalar=64";
    class       volScalarField;
    location    "0.0625";
    object      k;
}
// * * * * * * * * * * * * * * * * * * * * * * * * * * * * * * * * * * * * * //

dimensions      [0 2 -2 0 0 0 0];

internalField   nonuniform List<scalar> 
7220
(
163.723
94.3102
105.45
127.106
100.884
113.145
106.062
102.386
128.286
114.493
197.846
2865.78
317.808
265.124
435.827
1993.81
615.104
220.569
358.104
201.838
582.764
167.034
221.815
399.134
100.119
572.361
6220.46
225.723
534.08
301.906
60.7778
285.263
78.4954
310.104
164.182
156.442
106.031
223.229
193.302
641.672
651.648
645.573
635.702
145.625
147.799
148.958
147.465
145.978
662.985
675.156
668.886
656.852
688.771
699.512
695.963
682.813
693.88
653.387
667.237
698.542
583.98
499.459
506.295
599.442
409.589
323.803
315.876
406.423
254.489
207.049
200.591
246.144
176.884
159.561
156.971
172.624
150.444
146.272
145.375
148.961
144.692
144.35
143.835
144.065
144.791
144.082
144.563
145.248
146.391
144.804
633.959
628.245
619.469
609.256
149.238
150.497
147.832
149.412
145.924
148.53
146.532
163.682
153.394
212.008
182.274
299.245
252.694
362.139
336.891
420.803
386.999
525.986
467.627
639.121
588.834
647.437
651.315
625.868
637.016
635.292
629.759
594.102
630.138
476.785
536.099
387.437
425.953
324.937
357.507
235.759
282.044
172.936
198.51
149.81
157.743
144.822
146.186
144.548
146.016
615.425
599.194
145.644
145.531
150.969
151.091
146.658
147.805
147.656
146.495
149.245
148.021
149.313
148.017
159.377
152.518
195.394
172.781
266.19
227.922
315.553
299.075
318.177
318.144
326.19
320.027
362.928
339.444
454.298
400.939
573.375
516.918
595.304
597.633
605.455
575.432
585.649
623.539
628.538
560.43
551.493
589.663
576.595
571.099
515.518
564.018
401.477
455.53
333.867
360.24
311.121
318.577
306.529
308.057
280.548
301.197
210.369
246.132
163.701
182.109
148.337
153.394
146.189
149.326
147.776
146.314
147.582
596.586
566.303
510.79
509.881
152.253
151.017
152.786
150.848
150.411
149.164
147.746
148.989
146.142
149.424
157.816
152.798
184.87
167.484
245.014
211.286
298.388
277.803
300.105
303.291
289.011
294.501
282.435
284.83
285.898
282.471
311.573
294.626
384.774
340.644
498.512
440.774
539.114
536.516
619.322
623.938
542.804
581.589
435.909
486.974
335.738
380.922
285.234
304.204
270.622
274.979
272.214
270.059
281.445
276.195
288.782
286.67
256.928
280.54
194.072
224.479
158.221
171.816
150.977
146.627
532.072
502.056
152.875
152.8
150.764
154.123
149.302
149.47
154.293
147.48
150.305
434.517
477.762
534.125
494.099
152.579
154.674
152.517
154.67
153.937
152.061
154.382
154.773
151.32
157.143
153.191
177.874
164.706
228.101
199.194
283.108
259.345
291.571
292.687
279.436
286.193
266.177
272.564
256.705
260.825
251.672
253.624
253.589
251.368
272.561
259.877
331.081
294.926
379.729
522.755
589.988
557.256
614.429
618.854
576.094
458.481
373.536
424.107
287.34
324.954
249.026
263.097
238.705
241.665
240.078
238.48
247
242.969
258.624
252.269
271.948
265.446
275.688
276.632
236.715
262.597
181.383
206.608
164.213
146.932
146.784
148.88
147.715
150.363
149.87
487.637
462.056
159.153
171.756
152.568
150.164
151.879
156.079
156.614
156.34
154.34
152.812
156.86
156.619
150.53
153.67
155.674
173.754
162.977
215.097
190.843
267.962
243.369
283.141
281.274
272.946
279.106
259.669
266.252
247.832
253.488
238.383
242.767
232.331
234.895
229.624
230.5
232.884
230.205
249.833
238.783
298.766
268.599
392.73
341.204
440.608
515.223
484.285
586.008
549.079
608.827
613.401
526.41
572.664
456.934
487.129
424.263
334.931
384.132
259.921
291.929
227.63
239.679
217.843
221.021
217.403
216.857
221.25
218.951
228.629
224.464
239.248
233.605
251.878
245.395
263.992
258.36
262.023
266.765
218.523
244.844
192.068
148.057
149.419
147.898
147.621
148.789
150.589
150.982
156.838
152.14
181.982
203.83
166.565
292.869
333.07
450.095
435.202
158.092
158.605
158.651
154.437
151.934
153.756
156.463
151.412
153.663
158.324
156.427
151.617
157.469
157.187
171.23
162.268
205.652
185.421
253.801
230.271
273.892
269.173
266.62
271.711
254.488
260.593
243.232
248.657
233.794
238.275
226.121
229.734
220.687
223.055
218.757
219.225
220.591
219.171
228.214
223.438
247.437
235.73
265.387
462.58
507.734
477.416
583.233
542.783
602.947
607.878
520.883
569.463
480.18
326.69
256.562
285.929
224.737
237.283
211.6
216.721
206.842
208.476
206.434
206.219
209.737
207.629
215.891
212.532
224.212
219.785
234.46
229.132
246.064
240.155
256.102
251.746
247.914
256.473
228.474
152.454
157.427
148.903
149.98
149.162
148.639
150.506
152.499
154.566
383.997
376.426
235.08
215.728
151.909
152.695
158.943
160.112
160.701
160.738
155.791
158.637
166.287
159.504
62.5654
160.32
153.297
158.509
170.365
162.748
199.619
182.611
241.876
220.662
264.443
257.657
260.329
264.12
249.869
255.234
239.81
244.674
231.291
235.328
224.577
227.721
219.522
221.831
216.526
217.715
216.557
216.092
220.743
218.072
229.621
224.59
244.541
236.111
270.269
255.539
319.759
290.635
361.772
463.12
436.698
500.082
472.204
580.462
539.103
597.264
602.566
517.918
566.142
444.827
473.421
423.174
433.433
356.346
281.83
312.644
244.895
260.389
224.764
233.457
212.9
218.074
206.05
208.908
203.67
204.331
204.891
203.906
208.585
206.488
214.12
211.123
221.58
217.618
230.689
225.951
240.907
235.736
248.422
245.606
246.266
164.878
194.577
177
152.937
157.211
150.117
150.881
150.764
150.11
153.878
152.132
160.791
158.22
158.004
155.911
154.342
76.248
153.004
156.36
160.998
118.603
325.725
352.201
444.478
410.672
162.259
160.407
162.862
160.96
161.734
162.884
162.439
92.0219
59.7659
59.2176
58.8397
90.85
63.9995
152.835
154.182
63.6342
154.163
160.697
158.111
159.851
158.024
153.493
69.007
155.345
85.0519
154.551
155.257
83.4401
160.414
155.952
159.145
159.264
161.684
159.921
171.613
165.18
197.133
182.2
233.302
214.886
255.974
248.146
254.682
257.198
246.117
250.609
237.581
241.705
230.401
233.797
224.952
227.456
221.22
222.869
219.398
220.048
219.916
219.331
223.436
221.246
230.966
226.628
243.685
236.586
262.52
252.339
288.424
274.396
305.169
417.118
458.695
471.083
493.992
467.111
577.472
537.106
592.186
597.726
516.025
562.721
439.563
468.322
428.871
343.788
294.934
316.202
263.482
277.78
241.146
251.44
225.108
232.365
214.808
219.31
209.118
211.459
206.904
207.639
207.324
206.825
209.831
208.341
214.187
211.772
220.395
217.076
228.126
224.077
236.873
232.479
241.754
240.511
225.466
237.481
190.365
208.143
164.726
175.495
154.707
158.177
152.703
153.196
154.23
153.073
155.937
63.2805
61.2347
60.6444
156.065
160.922
68.5356
220.615
308.758
167.163
387.813
380.828
58.0678
155.886
159.994
161.762
163.053
162.999
65.9613
155.764
161.103
163.433
163.773
164.465
163.439
164.119
156.005
2418.14
165.114
251.595
157.203
60.1185
165.108
164.715
79.573
75.9103
170.142
67.4689
74.3255
99.423
168.243
166.847
176.384
171.064
198.125
185.237
229.34
213.614
249.919
242.264
250.658
252.069
244.039
247.615
237.201
240.486
231.635
234.235
227.698
229.446
225.492
226.379
225.193
225.083
227.173
225.875
231.901
229.161
240.015
235.489
252.35
245.593
270.027
260.433
294.636
281.327
327.612
310.074
369.466
347.25
424.914
395.038
460.515
475.533
436.412
454.729
475.152
490.593
461.848
574.245
535.398
587.95
593.558
514.154
559.27
434.289
465.554
446.044
425.761
431.009
464.796
452.224
385.472
415.776
336.892
359.453
299.384
317.072
270.23
283.738
248.999
258.755
233.865
240.764
223.492
228.152
216.907
219.776
213.392
214.803
212.386
212.604
213.454
212.681
216.445
214.704
221.199
218.622
227.487
224.159
234.567
231.084
236.898
237.066
220.246
231.632
189.629
205.063
167.614
176.757
159.596
162.255
158.618
158.578
159.442
62.252
59.3208
167.902
64.8466
61.3897
157.939
162.894
73.4453
169.121
165.854
58.5493
89.2916
85.6627
157.747
169.735
171.402
166.447
165.304
162.104
163.933
70.0628
166.093
89.8605
501.043
537.616
499.971
503.527
166.64
117.092
157.573
166.972
90.2295
111.225
118.889
129.069
115.021
166.777
125.509
162.727
66.5276
171.551
92.4206
81.8796
157.737
169.224
62.4605
64.483
64.6757
61.536
57.9639
167.436
167.126
158.82
88.9947
167.442
192.853
208.406
147.149
161.899
85.0278
184.056
82.5481
82.0914
172.332
95.8509
173.268
91.1689
186.3
182.501
204.099
193.498
230.034
216.988
247.917
241.033
249.843
250.428
245.012
247.706
239.879
242.315
236.03
237.773
233.77
234.682
233.27
233.3
234.668
233.709
238.339
236.2
244.651
241.135
254.209
248.978
267.794
260.449
286.267
276.361
310.709
297.662
342.652
325.62
384.086
362.003
436.797
409.084
467.38
507.016
515.961
500.046
451.347
471.878
489.385
457.105
571.053
533.736
584.581
590.152
512.172
555.974
430.155
464.36
443.244
422.855
494.483
528.46
457.872
491.685
399.106
427.074
351.397
373.805
314.562
331.804
286.25
299.467
264.642
274.701
248.428
255.926
236.668
242.041
228.571
232.205
223.461
225.678
220.832
221.86
220.357
220.341
221.807
220.853
224.981
223.181
229.743
227.182
235.187
232.552
235.869
236.791
220.424
230.563
194.516
207.436
175.731
183.38
169.44
171.392
169.091
57.5837
70.6313
81.6975
75.4982
131.702
64.0657
79.5138
159.959
189.878
174.2
165.103
79.3982
90.9788
106.59
63.8929
78.8957
69.7615
79.8694
59.0019
1659.58
168.94
169.732
67.3334
579.013
572.305
169.303
61.6983
70.0197
58.2052
59.6804
74.4436
159.754
87.9556
170.229
114.866
61.0882
65.4276
60.1024
99.9576
167.646
164.342
166.221
141.923
72.5457
105.679
91.6119
101.137
85.8423
73.5231
85.7049
64.7511
75.2762
76.9884
66.1692
67.2829
134.958
75.5706
72.1444
159.541
170.37
57.1267
59.2767
143.005
169.191
175.105
119.868
138.774
119.028
169.662
159.619
234.206
172.607
59.4664
63.146
94.9403
111.267
119.182
99.3145
99.526
169.848
206.825
196.673
175.48
155.962
214.887
220.344
169.884
160.605
95.276
200.524
200.733
185.896
170.899
163.809
92.2821
101.997
160.327
204.643
91.356
194.631
175.441
171.981
241.244
212.415
123.587
176.618
3288.52
215.477
206.052
237.304
226.513
251.842
246.114
254.152
254.244
250.888
252.753
247.436
249.028
245.283
246.174
244.758
244.805
246.021
245.154
249.25
247.38
254.713
251.665
262.852
258.435
274.048
268.024
289.168
281.051
309.216
298.517
335.176
321.389
368.269
350.743
409.992
387.952
462.019
434.602
526.615
492.546
604.874
564.307
691.758
647.044
744.68
577.603
634.665
528.589
577.792
448.112
469.812
488.658
454.674
568.047
531.763
581.864
587.381
509.921
552.923
428.403
463.518
442.775
420.214
573.154
502.144
635.128
585.357
741.774
638.27
684.3
555.341
595.959
482.772
517.296
424.173
451.886
377.041
399.309
339.419
357.143
309.678
323.656
286.409
297.306
268.541
276.855
255.141
261.342
245.296
249.823
238.374
241.493
234.042
235.903
231.856
232.7
231.53
231.46
233.13
232.087
236.508
234.616
240.78
238.716
240.892
241.9
228.333
236.379
207.154
217.958
191.378
197.862
187.036
188.007
187.812
172.13
411.421
82.0498
65.6501
64.7588
59.0677
63.5319
80.7172
72.5679
75.963
68.8924
69.8983
69.7689
69.0994
71.3401
162.099
178.129
238.144
111.048
167.418
122.638
80.5638
73.5764
86.1297
90.8747
67.2046
185.018
95.3407
88.9786
67.4379
69.1228
73.5778
75.3986
252.708
68.3953
58.0998
59.1092
75.9059
67.4528
69.3373
65.8613
62.0912
61.2287
84.6396
161.873
174.434
56.6029
57.623
82.2642
109.68
170.122
166.676
168.643
156.623
83.561
121.487
106.58
102.085
172.318
103.806
831.412
884.305
735.922
822.783
91.1902
70.9699
161.609
102.59
174.253
54.7003
60.0493
89.5673
95.1914
110.498
171.735
183.357
137.252
136.024
172.437
110.064
161.597
176.296
59.3411
106.241
172.372
195.929
169.658
154.214
162.557
102.885
88.0152
141.625
190.992
195.437
166.133
101.134
182.963
178.671
175.106
102.68
212.112
175.112
69.1292
220.183
108.812
127.186
180.224
137.517
132.663
105.569
146.143
187.146
217.503
232.616
221.041
254.267
244.794
265.296
261.161
267.268
267.209
265.073
266.354
262.858
263.8
262.154
262.317
263.137
262.414
266.077
264.363
271.086
268.311
278.367
274.429
288.288
282.951
301.425
294.443
318.215
309.305
339.886
328.34
367.758
352.988
402.912
384.342
446.747
423.652
500.646
472.363
565.615
531.7
642.844
602.549
734.045
686.782
782.55
818.152
684.255
723.246
532.569
626.716
445.601
470.388
487.926
454.247
565.196
529.458
579.468
584.935
507.588
550.127
428.504
462.858
443.606
418.49
605.664
505.221
684.989
880.063
774.485
824.243
678.354
725.88
593.114
633.864
521.638
555.831
461.771
490.313
412.561
435.901
372.76
391.577
340.884
355.921
315.651
327.502
296.041
305.223
280.741
287.926
268.889
274.4
260.145
264.185
253.866
256.722
249.668
251.514
247.606
248.346
247.946
247.497
250.369
248.944
253.885
252.115
254.482
254.991
245.871
251.593
229.751
238.157
217.956
222.564
216.943
216.228
219.506
118.586
134.477
125.701
152.859
143.879
153.811
167.543
160.826
135.9
151.527
133.957
142.882
125.605
79.5084
84.3056
72.0148
74.2373
76.0759
72.8106
73.2586
72.8629
80.7873
72.1132
181.891
62.0386
64.8654
62.3683
94.5101
114.34
103.141
83.1406
87.9566
77.5136
79.7438
76.2013
76.1608
78.3955
76.9358
80.7879
164.336
182.826
56.5504
172.269
76.201
120.396
169.889
138.382
93.9587
76.5731
87.7593
92.1877
175.117
313.809
92.7449
265.985
139.522
949.121
948.825
272.458
249.424
98.6588
105.492
93.6189
433.886
81.2182
69.2031
67.3815
73.7632
69.3727
83.0688
68.0197
71.7921
68.7661
98.2527
164.083
203.677
179.001
55.0871
57.7525
218.097
189.278
71.628
84.9684
141.161
119.425
283.532
328.265
172.692
169.092
171.155
168.248
234.338
241.855
242.212
96.4305
136.531
121.722
120.155
241.876
110.501
97.989
81.6568
175.121
99.5666
235.458
134.801
128.737
114.704
77.2667
163.756
178.516
57.0751
63.187
87.0021
172.973
160.255
117.181
174.38
187.247
153.068
257.874
136.173
175.025
163.691
245.267
252.346
180.405
250.49
252.51
69.451
121.72
113.913
81.1629
121.865
191.222
178.631
181.08
164.785
260.546
261.607
159.306
144.292
111.606
166.029
182.077
178.208
237.23
250.663
251.444
261.032
260.033
268.028
263.615
268.345
111.363
205.366
178.196
73.1858
222.706
115.122
226.536
178.076
1196.03
119.893
106.791
184.229
333.524
220.055
270.687
272.908
270.489
287.792
279.365
296.534
293.889
296.015
296.999
293.185
294.663
291.08
291.895
290.854
290.72
292.74
291.525
296.856
294.496
303.373
299.819
312.327
307.536
323.918
317.775
338.671
330.832
357.493
347.549
380.992
368.58
410.783
394.977
448.4
428.554
494.994
470.489
551.911
522.095
619.993
584.544
699.21
658.267
788.932
742.773
888.438
837.685
989.04
939.464
1091.22
1038.61
1136.83
916.188
1022.71
748.411
833.62
535.812
637.174
444.926
471.279
487.177
454.714
562.537
527.078
577.27
582.665
505.439
547.671
429.302
462.272
444.785
419.049
611.314
509.089
827.192
727.272
1018.92
916.342
1130.22
1033.96
1088
932.287
982.607
829.746
880.908
733.896
780.494
648.772
690.01
574.479
610.217
511.465
541.564
459.284
484.082
416.716
436.889
382.383
398.585
355.186
367.989
333.435
343.728
315.99
324.199
302.291
308.737
291.428
296.558
282.968
286.914
276.908
279.595
273.729
274.942
273.442
273.299
275.224
274.101
278.477
276.796
280.318
279.833
276.591
279.302
267.237
272.139
260.853
263.217
260.449
152.313
143.118
169.925
161.536
182.673
176.985
177.122
190.093
187.005
165.942
181.415
168.891
175.812
151.815
160.765
142.861
126.642
114.601
86.539
89.7544
83.2541
84.3125
83.2109
82.9859
85.1792
83.8606
87.5615
162.608
73.3499
67.3951
76.5913
67.4302
97.9775
114.092
104.901
89.4413
92.9205
86.1195
87.2565
86.8871
86.1716
90.2831
88.2312
93.4002
166.655
188.183
56.0472
168.811
175.04
77.3468
129.554
296.816
346.861
172.465
242.424
152.321
252.249
244.956
108.262
104.988
236.335
367.145
84.4016
117.436
158.259
372.631
344.151
177.949
102.993
309.191
72.2305
121.799
104.525
249.289
213.941
378.248
126.354
142.453
112.176
67.0238
87.6686
82.517
81.5921
104.271
77.5497
88.6668
83.4051
166.372
210.87
184.133
57.4902
60.6074
192.387
74.524
90.2882
148.558
127.285
398.847
175.384
171.589
173.76
251.575
234.655
229.335
175.918
249.992
109.037
149.105
135.288
137.062
228.638
241.907
119.15
220.452
177.792
257.7
1221.29
1233.94
1047.34
1134.28
129.306
142.333
169.928
150.982
93.2107
166.004
183.366
355.481
2655.48
249.743
65.6685
72.1486
273.255
223.573
108.957
165.509
124.59
85.4662
104.178
177.126
257.449
187.235
260.539
84.4803
164.77
265.77
162.82
323.567
323.384
211.087
165.961
184.976
260.825
130.567
192.105
180.169
122.138
145.884
113.859
183.18
270.584
185.782
181.375
167.337
616.097
271.154
151.897
121.091
192.013
274.966
181.355
78.8787
219.202
185.779
171.382
122.417
226.079
181.16
236.253
244.638
126.142
180.897
71.5738
121.171
443.157
313.897
485.74
278.672
361.992
350.797
355.04
347.675
348.447
348.415
348.276
344.907
347.1
340.33
342.558
337.413
338.566
336.979
336.828
338.895
337.642
343.417
340.791
350.74
346.722
360.866
355.458
373.829
366.978
389.99
381.475
410.233
399.504
435.984
422.375
468.064
451.133
508.368
487.056
558.365
532.096
619.04
587.297
691.109
653.638
774.089
731.312
866.18
819.19
964.209
914.68
1063.68
1014.12
1154.29
1111.13
1191.66
1148.4
970.017
1063.38
752.49
869.51
537.409
634.477
447.036
472.559
486.562
455.938
560.543
525.136
575.739
581.038
503.895
545.975
430.66
461.88
446.367
421.492
606.45
510.305
842.454
723.802
950.426
1225.78
1186.88
1216.41
1104.83
1148.63
1006.95
1056.97
906.601
956.56
810.462
857.753
721.989
765.056
643.726
681.487
576.787
608.832
520.915
547.53
475.045
496.799
438.131
455.561
408.361
422.478
384.338
395.669
365.144
374.238
349.338
356.856
336.35
342.516
326.125
330.837
319.338
322.241
316.145
317.355
315.613
315.568
317.277
316.156
321.264
319.028
326.482
323.875
328.818
328.346
326.652
328.104
324.94
142.495
154.851
147.193
173.008
163.861
189.023
181.561
199.587
195.045
204.927
202.836
193.256
206.57
206.127
189.016
204.371
198.751
202.064
188.272
194.189
172.462
180.962
154.726
163.486
147.211
119.508
98.3873
100.302
97.0695
97.2783
98.0388
97.3852
100.715
99.0684
108.38
103.316
117.563
93.3291
82.3725
95.6294
79.6797
119.356
142.889
129.536
106.399
111.868
100.443
102.662
99.7558
99.518
101.974
100.594
106.313
103.818
115.166
109.816
253.47
169.051
194.28
58.7549
171.975
178.499
81.4899
137.607
428.496
175.143
242.919
371.344
309.68
162.984
250.494
122.051
122.073
232.923
395.149
104.425
180.684
250.815
118.56
221.635
1760.21
458.873
55.9427
217.864
1215.21
1201.98
163.214
159.82
125.282
135.711
122.253
108.561
110.452
137.059
97.2637
115.889
108.443
168.759
154.577
168.744
220.124
189.965
208.26
430.298
256.735
269.187
64.671
67.0246
196.616
97.6246
154.792
134.702
107.597
92.3379
178.19
174.163
176.455
250.359
2208.86
349.584
265.485
234.873
227.073
179.771
186.474
259.363
146.534
104.379
150.315
576.708
245.687
142.333
430.984
435.574
327.224
197.461
119.692
152.687
225.635
169.009
168.383
188.814
399.889
326.628
233.282
258.464
279.321
79.4393
1488.31
228.959
118.1
169.644
132.183
428.794
493.49
125.283
109.641
179.974
253.349
205.776
222.296
223.025
183.679
335.322
338.12
162.743
271.057
2566.35
1255.25
86.6597
184.667
172.776
168.439
207.403
208.85
279.904
190.095
271.592
377.627
303.075
373.09
287.164
139.038
182.245
130.692
230.275
218.373
215.07
388.368
173.079
341.641
294.765
279.749
167.451
184.619
85.0662
193.191
181.28
170.232
654.929
292.953
1892.52
280.178
209.208
158.416
206.14
193.516
130.823
204.386
113.569
218.023
184.329
239.926
236.817
175.666
132.98
243.354
183.929
183.678
243.682
191.287
136.515
195.56
2480.99
355.885
471.37
430.238
428.323
549.724
509.309
389.105
524.116
482.358
500.37
456.335
467.95
438.405
446.463
426.957
432.21
418.283
422.388
412.174
414.764
409.295
410.189
409.612
409.067
413.153
410.975
420.114
416.207
430.316
424.808
443.778
436.632
460.823
451.814
482.262
470.928
509.519
495.032
544.586
526.02
588.318
565.276
642.422
613.981
707.835
673.692
784.779
744.887
872.357
827.355
967.789
919.3
1066.53
1017.12
1162.92
1115.4
1248.58
1208.04
1306.16
1282.01
1318.93
1319.37
1252.25
1298.5
1185.72
1116.96
1165.98
953.94
1044.6
733.97
849.307
534.162
624.012
449.257
472.652
486.097
457.206
559.975
524.117
575.8
581.039
503.052
545.588
431.499
461.356
446.384
423.196
594.446
506.355
819.089
704.4
1022.57
928.188
1149.9
1097.95
1172.67
1290.08
1240.45
1314.64
1313.27
1276.77
1301.31
1201.9
1242.94
1108.34
1156.28
1009.36
1059.1
910.911
959.709
818.385
863.678
735.366
775.54
663.563
698.024
603.078
631.942
553.353
576.923
512.918
532.087
480.463
495.74
454.659
466.9
433.5
443.598
416.06
424.375
401.959
408.558
392.004
396.408
386.172
388.634
383.792
384.597
384.362
383.732
388.416
385.867
397.351
392.214
409.688
403.382
421.535
415.848
426.541
164.123
161.282
179.306
170.754
196.783
188.322
210.629
204.343
218.945
215.509
222.411
221.151
222.908
222.941
222.284
218.481
220.846
210.166
214.983
196.308
203.878
178.875
187.857
170.224
162.757
139.016
149.327
131.131
116.525
117.082
117.214
116.731
118.843
117.94
121.802
120.029
129.36
124.453
138.255
151.047
198.414
113.434
125.417
102.36
131.464
140.154
121
125.257
117.658
118.5
119.425
118.187
123.041
121.102
128.081
125.296
137.392
131.792
144.012
171.525
201.524
350.664
252.089
65.5935
175.582
182.714
87.6129
144.63
554.352
592.505
107.862
91.092
146.984
166.559
387.64
589.28
823.176
258.088
3116.19
673.891
177.93
242.714
188.676
294.907
219.961
169.872
416.618
258.293
135.416
123.91
135.942
232.939
334.253
311.021
246.621
122.85
3489.99
331.395
265.658
153.922
452.312
1238.88
506.751
438.779
559.605
142.739
176.68
204.112
179.136
180.396
126.034
143.953
187.035
171.223
264.075
231.027
196.636
280.734
239.575
255.977
262.097
76.0366
218.913
322.98
163.968
485.882
222.049
202.15
107.259
159.998
141.68
228.87
248.047
246.948
227.562
528.198
572.505
147.892
144.149
110.327
108.466
109.29
526.33
326.647
181.085
176.797
179.238
247.81
222.857
3449.47
179.763
327.419
234.393
227.101
213.294
81.8775
181.07
526.625
337.373
269.836
100.867
188.16
510.327
155.309
97.0003
260.12
212.474
161.215
138.773
187.746
207.352
1254.38
1174.58
1086.99
1101
182.67
174.809
189.542
199.796
214.598
152.155
164.935
170.899
211.93
201.973
254.992
195.029
346.767
231.036
269.631
273.97
86.5296
236.622
468.075
87.6127
127.37
172.768
139.714
213.483
386.715
495.612
141.306
151.123
142.282
733.177
830.75
182.915
248.017
206.338
191.795
207.175
176.938
282.143
689.666
188.001
1565.54
129.42
555.801
213.058
171.127
206.409
298.924
195.992
599.645
460.112
223.369
282.933
292.083
193.122
299.457
146.577
183.473
139.13
202.581
382.194
184.437
202.618
1981.43
575.647
551.32
370.626
287.688
187.563
1215.41
173.446
200.903
392.524
236.397
555.218
411.016
229.524
163.818
193.192
140.094
224.827
242.312
345.169
187.008
186.76
236.422
178.939
142.56
255.18
406.056
246.915
254.609
1033.18
94.2549
469.438
604.112
549.263
733.126
664.912
661.299
916.251
814.453
596.588
803.233
705.826
748.862
641.969
670.795
597.101
617.926
565.741
580.005
545.912
554.706
531.896
538.123
522.321
526.653
517.191
519.119
517.055
516.551
521.262
518.614
529.686
524.96
542.113
535.386
558.941
549.932
581.11
569.276
610.049
594.63
647.682
627.622
696.199
670.536
755.927
724.639
827.366
790.171
910.302
867.447
1003.15
955.684
1102.22
1052.27
1201.8
1152.33
1295.43
1249.8
1372.15
1336.81
1419.12
1400.14
1423.6
1427.38
1373.68
1406.39
1323.04
1113.05
1064.03
1102.78
913.433
999.514
704.793
813.193
523.716
604.167
448.753
469.747
484.773
456.492
560.733
523.513
577.417
582.777
502.14
546.105
430.129
459.621
443.304
422.221
574.679
495.649
782.743
675.123
976.5
886.831
1044.4
1164.39
1315.18
1244.53
1401.82
1367.92
1423.15
1419.38
1395.31
1414.66
1331.05
1366.86
1243.2
1289.22
1145.11
1194.89
1044.46
1094.7
947.396
995.085
858.68
901.778
780.807
818.327
714.419
746.168
659.234
685.479
614.762
635.652
579.798
596.251
551.83
565.027
529.634
540.098
512.301
520.358
500.22
505.572
492.941
496.011
489.976
490.975
491.113
489.982
497.36
493.506
509.701
502.669
528.532
518.298
552.517
540.092
577.737
565.264
598.266
589.257
191.484
185.499
208.403
199.612
224.251
216.838
235.475
230.464
241.606
239.149
243.473
242.952
242.954
243.534
245.456
242.694
248.484
245.562
222.77
224.775
241.388
243.855
242.771
241.018
243.606
243.509
241.481
242.948
235.233
238.968
223.858
230.164
207.827
216.372
190.22
198.791
183.915
158.396
166.846
151.75
143.845
142.88
146.262
145.069
148.428
147.384
151.136
149.469
158.129
153.63
166.097
230.019
6683.69
153.477
165.438
134.129
171.458
201.734
185.564
152.479
160.357
144.044
147.186
143.832
143.052
148.016
145.663
152.882
150.459
158.272
155.411
167.349
162.006
175.191
174.074
209.905
253.367
256.047
75.7636
819.294
159.094
179.648
187.801
1109.68
150.82
226.233
595.622
100.713
122.351
113.174
404.438
626.472
573.825
262.508
758.133
891.857
981.516
606.363
435.565
180.825
241.407
5133.98
144.051
284.373
219.914
2532.5
423.125
267.533
273.649
146.948
114.683
306.574
294.409
149.641
240.604
5848.63
406.737
489.087
743.315
276.08
873.854
544.078
1095.26
1086.35
626.575
206.756
601.975
333.03
289.663
216.23
245.158
177.807
202.874
173.792
377.777
237.617
279.384
243.775
204.395
292.859
241.185
266.021
263.586
91.5906
88.0512
534.826
5287.48
209.028
97.9592
117.366
164.238
148.106
212.162
516.224
575.616
116.571
130.025
136.429
505.596
499.707
1437.45
342.383
184.108
179.535
182.119
244.001
206.048
209.423
207.547
1389.04
310.847
233.047
226.553
213.218
235.301
260.807
95.5062
172.688
177.874
431.364
336.717
281.855
552.807
191.575
114.963
145.925
2667.59
161.077
368.508
966.853
529.855
197.79
3308.3
231.1
232.873
221.827
249.967
173.556
212.237
269.457
202.172
367.878
230.726
1054.07
1679.23
1109.07
282.499
271.67
171.944
149.008
1984.62
333.786
247.133
135.711
175.039
146.85
201.24
171.994
384.31
487.953
142.233
181.273
197.522
544.503
1176.43
1414.11
2075.59
1833.56
1615.86
1410.14
185.966
241.977
192.713
336.793
191.606
207.182
168.387
292.787
312.355
190.882
576.288
393.408
1118.21
255.842
176.974
174.027
207.158
335.591
202.357
497.823
736.456
293.583
3042.16
162.819
225.481
230.504
316.58
553.377
153.072
183.969
146.975
192.375
370.042
176.203
232.484
218.775
339.4
1310.4
302.62
477.088
440.44
190.11
189.92
229.23
168.197
148.475
262.454
316.639
310.445
295.262
698.189
640.878
832.819
758.141
1039.77
925.795
1320.3
1169.46
1494.48
1819.3
1090.09
1182.73
956.836
1016.94
864.718
906.993
798.412
828.969
751.975
772.75
721.932
735.349
699.148
709.97
681.921
689.767
671.686
675.885
668.56
669.288
671.588
669.362
680.521
675.302
695.71
687.286
718.157
705.937
749.392
732.572
791.073
768.82
845.03
816.393
912.627
877.136
992.469
951.151
1082.79
1036.44
1181.37
1131.24
1283.7
1232.39
1383.48
1334.32
1472.02
1430
1536.9
1508.05
1567.83
1557.18
1557.22
1568.12
1498.87
1534.39
1388.76
1450.34
1230.63
1314.68
1060.47
1143.06
989.59
1046.48
1025.73
1006.64
1040.7
862.608
945.859
668.281
769.075
508.121
577.732
444.949
463.763
481.262
452.616
560.655
521.561
578.127
583.778
499.62
545.434
425.951
455.715
437.613
418.467
549.892
481.025
739.733
639.355
922.743
836.472
1026.33
987.798
1019.09
1036.49
985.138
1135.04
1053.81
1307.64
1222.48
1445.91
1383.2
1530.9
1495.1
1564.45
1553.72
1552.86
1563.87
1502.94
1532.19
1424.14
1466.54
1327.87
1377.29
1225.48
1277
1123.97
1174.27
1028.79
1075.35
942.963
984.579
868.133
904.088
806.065
835.457
756.563
779.881
717.631
735.892
688.089
701.77
666.722
676.413
653.137
658.993
646.308
648.966
645.27
645.118
650.097
646.89
662.017
655.159
681.741
671.043
708.293
693.873
744.253
725.14
786.279
764.863
830.236
808.336
893.249
855.787
941.933
211.818
211.183
225.579
217.492
242.764
234.419
256.224
250.166
264.741
261.039
268.851
267.287
269.664
269.563
268.842
269.327
270.462
269.037
272.457
272.211
270.426
271.709
267.476
268.89
268.289
267.329
269.716
269.223
269.002
269.712
264.712
267.405
255.957
260.895
242.252
249.753
224.491
233.656
211.12
216.174
224.798
212.604
253.455
216.566
237.294
191.284
200.329
373.884
185.131
180.417
393.341
184.752
182.383
189.225
187.148
191.712
190.787
193.517
192.501
199.34
195.604
219.045
206.302
370.761
2392.94
134.311
231.271
223.961
189.473
204.591
217.846
186.365
193.891
180.028
181.768
183.313
180.876
190.64
186.804
196.524
193.808
201.744
199.012
210.855
205.316
219.829
176.686
128.81
219.891
259.727
334.099
1766.91
1915.11
262.788
89.0617
158.261
414.444
184.178
193.806
108.638
156.17
210.859
590.699
115.605
133.738
294.03
393.496
459.038
415.536
710.758
644.019
881.782
788.776
1102.42
989.593
1339.06
1216.33
1609.85
1460.59
1806.56
1664.84
1549.44
451.579
183.826
238.956
205.65
516.204
277.125
219.847
301.872
423.471
344.486
285.687
105.071
172.405
615.784
176.354
403.951
279.48
195.023
111.229
753.938
765.701
189.68
222.648
275.809
1488.44
153.916
2532.97
1444.92
290.386
1004.26
528.8
1095.86
575.231
430.1
839.555
1900.08
2290.73
534
427.273
348.704
300.556
285.671
253
293.681
249.96
271.83
176.454
220.897
247.388
297.007
259.135
213.485
306.753
244.682
1319.51
1204.4
278.8
268.687
202.053
137.111
108.459
503.335
2284.14
331.003
217.693
95.5484
265.682
363.808
105.675
125.709
167.619
153.95
200.035
505.273
565.006
128.51
157.516
575.217
829.987
556.877
519.97
393.581
185.947
1004.82
702.107
754.014
558.133
759.238
970.438
193.626
1256.42
658.324
364.445
187.249
182.425
185.128
239.234
193.539
197.348
195.773
777.579
300.694
230.683
225.201
213.117
172.305
328.966
294.726
201.106
315.988
827.555
2134.79
81.7358
1038.32
967.171
968.317
933.81
251.802
274.379
248.964
180.755
292.781
195.901
176.374
215.816
293.87
209.977
391.814
231.804
787.961
296.082
138.451
272.676
64.9979
206.745
169.325
318.264
261.366
218.521
143.125
176.585
153.285
191.553
381.192
470.678
148.876
214.399
213.248
394.313
340.431
460.891
549.783
280.925
2159.2
1024.8
652.055