/*--------------------------------*- C++ -*----------------------------------*\
| =========                 |                                                 |
| \\      /  F ield         | OpenFOAM: The Open Source CFD Toolbox           |
|  \\    /   O peration     | Version:  2212                                  |
|   \\  /    A nd           | Website:  www.openfoam.com                      |
|    \\/     M anipulation  |                                                 |
\*---------------------------------------------------------------------------*/
FoamFile
{
    version     2.0;
    format      ascii;
    arch        "LSB;label=32;scalar=64";
    class       surfaceScalarField;
    location    "0.00065";
    object      phi;
}
// * * * * * * * * * * * * * * * * * * * * * * * * * * * * * * * * * * * * * //

dimensions      [1 0 -1 0 0 0 0];

oriented        oriented;

internalField   nonuniform List<scalar> 
5190
(
-1.31915e-17
-3.55166e-17
5.96197e-17
7.72349e-17
-1.79467e-17
8.40437e-17
1.56483e-17
-4.21849e-17
1.05653e-17
2.72607e-17
1.89525e-17
1.81018e-17
2.94813e-17
-1.15499e-17
7.16544e-18
-1.70679e-17
2.55517e-17
3.00827e-17
2.02496e-17
3.90601e-17
8.17594e-18
-1.09285e-17
7.27035e-18
7.23887e-17
2.34867e-18
-4.50078e-17
-3.39879e-17
-4.25876e-18
-1.06347e-16
1.28356e-16
1.0095e-16
-7.57873e-18
9.07869e-17
-3.25945e-18
-3.32873e-17
1.31257e-16
5.96419e-17
-5.88283e-17
8.79142e-17
-5.61007e-17
3.41867e-17
6.02415e-17
-2.08311e-17
-3.09745e-17
7.13688e-18
4.59997e-17
-4.07284e-17
1.95437e-17
1.77263e-17
6.17834e-17
1.45861e-17
-1.16728e-17
3.67932e-17
-2.23311e-17
3.40293e-17
-1.88269e-18
-8.38706e-17
-2.31007e-17
4.13969e-17
6.22264e-17
7.11395e-17
6.46361e-18
-3.77222e-17
-8.99427e-17
-5.39422e-18
-1.70994e-17
-1.65463e-17
-4.02551e-18
-4.32166e-17
-3.6307e-17
2.51441e-17
4.09823e-17
1.03282e-17
-1.76223e-19
-3.32777e-18
5.20621e-17
1.77692e-17
-2.03562e-17
1.27763e-17
-9.91331e-18
-3.81185e-17
-3.74356e-17
-2.36159e-17
-1.63042e-18
1.06308e-17
-1.36315e-17
-1.02883e-17
-3.63728e-17
6.71767e-18
-2.53989e-17
-3.82606e-17
-3.04093e-17
1.66828e-17
3.65267e-17
4.30169e-17
4.28582e-18
2.18654e-17
4.52608e-17
4.19539e-17
2.79595e-17
6.47394e-18
1.96761e-17
2.78822e-17
-4.52424e-18
4.93515e-17
2.38592e-17
1.00018e-17
-2.05791e-18
5.60276e-18
-2.72439e-17
1.38654e-17
-1.80805e-18
2.3349e-17
-6.9685e-17
3.38783e-17
-6.3302e-17
1.69273e-17
-2.9037e-17
1.2783e-16
-7.2241e-17
5.19363e-17
2.06333e-17
-1.28434e-17
-1.90994e-17
4.93666e-17
3.3163e-17
-1.08652e-16
2.19871e-17
-3.6558e-17
3.21605e-17
-2.06677e-18
2.9032e-17
4.33768e-17
8.28378e-18
-1.56706e-17
-3.58445e-17
-3.4866e-17
3.07481e-18
-4.71238e-17
-4.10615e-17
-5.67181e-19
-4.29351e-17
-1.59571e-17
-6.25194e-17
-2.20771e-17
1.37594e-17
-3.57424e-17
1.01747e-16
-7.53727e-17
-3.34078e-17
-3.45862e-17
8.65327e-18
-5.36801e-17
-2.34326e-17
-1.62889e-16
1.22124e-16
-8.57791e-17
-5.86464e-17
3.81344e-17
-7.37689e-17
-2.89058e-17
3.69983e-17
5.43098e-18
8.14654e-18
-7.71374e-18
-1.85288e-17
-1.10295e-17
-5.80727e-17
-5.93564e-18
3.81533e-17
3.92181e-17
4.29905e-18
-2.47922e-18
6.28616e-17
5.1653e-17
4.64049e-17
-1.10795e-16
1.11553e-16
-8.66971e-18
5.34995e-17
-2.65159e-18
-6.1786e-17
-3.48008e-18
5.54774e-17
5.42519e-18
-4.17117e-17
6.14758e-17
-1.13588e-17
3.05368e-17
2.68921e-17
4.04541e-17
-3.81563e-18
-2.16503e-17
-6.18621e-18
6.40304e-17
1.04348e-17
5.21164e-17
-3.20694e-17
-4.26579e-17
-5.28499e-17
-1.37312e-17
-9.79454e-18
3.37191e-17
3.59021e-17
2.47449e-17
9.88256e-17
-3.90469e-17
1.49639e-17
3.22672e-17
4.04378e-17
5.25831e-18
2.26599e-17
3.70466e-18
-2.04144e-17
-3.0004e-17
2.74904e-17
9.74111e-18
4.58257e-17
-2.23952e-17
3.00828e-17
1.11832e-17
-6.00843e-17
1.45978e-16
3.26036e-17
2.30015e-17
-4.20451e-17
-5.47791e-17
-4.07745e-17
9.52519e-18
-4.76492e-19
1.35646e-18
-2.9368e-19
5.17702e-17
4.05306e-17
4.13628e-17
-1.07358e-17
2.12254e-17
-1.47739e-17
1.22052e-17
3.13188e-17
5.50778e-17
2.07287e-17
-1.59366e-17
7.0623e-18
9.39381e-18
1.18971e-17
-3.93698e-17
2.66791e-17
2.95756e-17
3.64569e-17
-4.00439e-17
-9.73046e-18
3.35696e-17
-2.63388e-17
1.52412e-17
-2.15715e-17
4.8096e-17
-7.63447e-17
-6.54255e-17
-3.29005e-17
5.08728e-17
-6.41419e-17
-1.16108e-17
-3.42149e-17
7.55923e-17
-2.47955e-17
1.42686e-17
-3.36521e-17
-4.88113e-17
-2.17852e-17
-7.79469e-17
-2.20927e-17
1.54302e-17
-4.17046e-17
2.17086e-17
-3.12387e-17
5.01292e-17
-1.88085e-17
5.70309e-17
-3.49607e-17
2.0039e-17
3.5989e-18
2.78833e-17
-2.08357e-18
-5.33556e-17
4.18179e-17
7.99489e-17
1.42823e-17
1.01162e-16
6.77183e-18
5.15713e-17
7.48781e-17
-4.68494e-17
4.20204e-17
-3.4825e-17
-3.84896e-18
2.96602e-17
-2.80214e-17
-3.70008e-17
1.35672e-17
4.16437e-17
-2.33668e-17
-9.98442e-18
-4.19818e-17
1.88931e-17
-1.10943e-17
-2.96766e-17
-6.38883e-17
1.62678e-17
-4.18995e-17
-4.53873e-17
1.37414e-17
4.26287e-17
-1.59307e-17
-3.1094e-17
-5.8229e-17
-2.39332e-17
-1.72357e-17
8.63209e-18
-1.20218e-17
1.7725e-18
-6.72742e-17
-2.53708e-19
-1.59024e-17
4.19392e-18
6.05439e-17
4.98115e-17
-4.89802e-17
2.60527e-17
-1.39296e-18
9.2405e-18
3.97361e-17
2.95781e-17
2.853e-17
-4.14978e-17
3.00091e-17
2.8284e-17
-7.18219e-18
5.21878e-17
4.52858e-17
-1.86699e-17
3.12376e-17
1.82149e-17
1.91091e-17
4.16806e-18
1.96091e-17
5.58912e-18
2.14049e-17
3.51264e-17
-2.36181e-17
-2.51043e-18
7.06342e-17
9.00278e-18
2.32628e-17
3.72452e-17
3.22806e-17
5.60798e-17
-3.0588e-17
-4.4374e-17
-2.93111e-17
3.42852e-17
2.82623e-17
6.33503e-17
5.47762e-17
3.34418e-17
-2.73978e-17
-7.4578e-17
-2.4732e-17
-4.90582e-17
5.25098e-17
2.40432e-17
5.9845e-17
-3.41049e-17
5.76337e-17
1.47917e-17
-2.22159e-17
-6.64254e-18
5.91862e-17
-3.88405e-17
3.28966e-18
1.43596e-17
-4.342e-19
-3.87154e-17
-7.70743e-17
-8.68152e-17
2.57332e-17
-1.44873e-17
-3.66569e-17
-5.82313e-17
-4.89747e-17
6.33857e-18
2.97216e-17
5.16307e-18
1.14755e-17
1.21279e-17
5.67103e-17
5.68191e-17
3.17871e-17
-4.19759e-17
-1.84029e-17
1.51588e-17
-4.40505e-17
-1.30802e-17
1.23084e-17
7.40823e-18
6.39785e-18
4.18696e-17
2.03445e-17
-2.37419e-17
1.47235e-17
4.32935e-17
1.76489e-17
8.78217e-18
-3.54393e-17
6.816e-18
3.89599e-18
-1.15655e-17
-2.72161e-17
5.46559e-17
-1.39338e-17
3.46397e-18
-3.94107e-17
-4.65666e-17
1.83507e-17
1.9223e-17
2.79934e-17
1.48389e-17
9.34491e-19
-4.08625e-18
-2.62371e-17
6.43303e-17
2.96247e-17
8.23036e-18
1.80034e-17
-7.35354e-17
-5.77867e-17
-7.33836e-17
9.62397e-17
-1.73955e-17
-7.34577e-17
-6.09843e-17
2.20081e-17
-2.99313e-17
-1.56821e-18
-6.85743e-17
4.90694e-17
-9.05265e-17
-4.09583e-17
-3.53484e-18
7.53765e-17
-4.71188e-17
7.67125e-17
2.48611e-17
5.52646e-18
6.62957e-17
5.54847e-17
3.61529e-17
7.96879e-18
4.63315e-18
-4.38798e-18
-2.73537e-17
-1.91246e-18
-1.85245e-17
-1.58397e-18
2.8446e-18
-1.95012e-17
1.69992e-17
-7.52593e-18
-2.31798e-17
-5.48147e-17
-5.46133e-17
-6.22543e-17
-3.79449e-17
6.98126e-18
7.02893e-18
-2.27984e-17
1.84923e-17
-3.08941e-17
3.07305e-17
-9.9543e-19
-5.20555e-17
-1.32845e-17
-1.59287e-17
8.0117e-17
-4.2374e-17
8.6511e-17
7.01656e-18
1.98374e-17
-2.79593e-17
-6.20765e-17
-4.01143e-17
2.35564e-17
7.13978e-17
3.24981e-17
3.79976e-17
4.11706e-18
8.21189e-18
-1.92454e-17
-6.39431e-18
-4.37574e-17
1.16657e-17
4.02153e-17
-4.88614e-17
1.2472e-17
-2.33837e-18
-1.53761e-07
-5.43277e-11
7.80407e-07
-7.91158e-11
-2.09115e-11
-3.34561e-08
-1.37116e-11
1.5389e-07
-3.3499e-08
-4.626e-11
7.80931e-07
-1.52625e-10
3.53721e-17
7.34376e-18
6.88847e-17
1.47056e-17
-2.74512e-17
6.72212e-17
3.5842e-17
1.38616e-16
-1.05804e-17
-1.79877e-17
5.65907e-18
-3.76102e-17
3.61769e-17
9.9481e-18
-3.53618e-17
1.35964e-17
-1.24298e-17
-2.17326e-18
2.48936e-17
7.25021e-17
1.35473e-17
1.24045e-17
-3.02618e-17
1.7378e-17
9.42464e-18
9.79248e-18
-8.9478e-18
-1.01509e-18
-2.07598e-17
-1.44041e-17
-1.37501e-17
-2.11161e-19
-2.21278e-17
2.35856e-17
-1.51826e-17
9.02443e-17
-4.76767e-17
2.13305e-17
4.36517e-17
-2.40478e-17
-7.49538e-17
-9.14873e-18
3.90151e-18
6.96348e-17
7.1568e-18
3.53518e-17
-2.61971e-17
4.61057e-17
1.13731e-17
-4.85998e-18
1.09638e-18
-3.27971e-17
4.19922e-17
-2.5649e-17
-1.33487e-17
5.94923e-19
-8.91097e-18
-1.75777e-17
-5.14623e-17
5.46686e-17
1.11483e-17
-5.59524e-17
-4.39892e-17
-4.90452e-17
2.95059e-17
5.00363e-17
1.04327e-16
-4.34484e-18
-5.12311e-17
6.86318e-17
1.03961e-16
5.99022e-17
-6.6938e-18
3.70475e-17
6.15955e-18
-2.30631e-17
1.18526e-17
3.97575e-18
2.9227e-17
4.39146e-17
-1.2928e-17
3.56933e-17
1.50244e-18
-4.82343e-17
4.28483e-17
7.17991e-18
-1.84245e-17
-2.81746e-17
6.90296e-17
-2.25252e-17
3.09159e-17
-4.97514e-17
4.04592e-17
-1.37877e-17
-1.70742e-17
-4.37955e-17
-9.55335e-17
4.61336e-17
-3.99432e-17
-5.4765e-09
-4.67373e-12
-4.50604e-13
-1.02627e-09
-1.31344e-12
3.32169e-13
-1.44249e-10
-2.20504e-13
1.40546e-13
-2.35379e-11
-3.99021e-14
3.1523e-14
-2.9078e-12
-7.94395e-15
5.36675e-15
-4.16622e-13
-2.08119e-15
1.56167e-15
-4.57929e-14
-4.04935e-16
3.27674e-16
-5.70554e-15
-7.38279e-17
7.99748e-17
-5.18255e-16
-4.33692e-17
2.29851e-17
-2.42533e-17
-1.0187e-16
-5.58788e-17
-3.94146e-17
5.23839e-16
8.58354e-18
-9.96523e-18
-4.56977e-19
1.28997e-17
2.55462e-17
-1.06135e-18
-3.92849e-17
-4.3962e-18
9.42552e-18
6.08439e-17
4.63648e-17
-5.7321e-15
4.57948e-14
-8.85718e-17
-3.51459e-17
-4.17116e-13
2.90984e-12
-2.73405e-15
-4.54252e-16
-2.35749e-11
1.44455e-10
-4.06261e-14
-1.08403e-14
-1.02819e-09
5.48405e-09
-1.56384e-12
-1.67834e-13
-6.14354e-12
-2.07483e-17
-1.39456e-17
1.62157e-17
-2.82281e-17
4.75028e-17
-1.01375e-17
4.67243e-18
-4.41046e-18
-2.29701e-17
-1.08036e-17
2.85677e-17
2.93309e-17
-3.23155e-17
-1.19129e-17
-2.43952e-18
6.19987e-17
3.77165e-17
-1.30377e-17
3.68692e-17
3.04329e-17
-3.16717e-17
-2.89143e-17
3.09405e-17
7.20359e-18
5.14319e-17
3.28137e-17
-2.53862e-17
-4.54818e-17
7.40401e-18
2.9844e-17
-8.48178e-18
-3.12756e-17
6.45283e-17
-3.43176e-18
-2.23644e-18
7.3918e-18
6.4532e-17
5.04555e-18
-6.75226e-17
1.32783e-17
1.67033e-17
6.76267e-17
-4.03692e-17
1.22384e-17
-3.44695e-17
-7.39968e-17
9.60102e-18
-3.40615e-17
4.87674e-17
-1.31996e-17
-1.44454e-17
-1.96414e-17
-3.11921e-17
3.42647e-18
4.61186e-17
3.60549e-17
-4.57769e-17
-4.40718e-17
-5.50594e-17
5.54435e-17
-1.92859e-17
-8.46464e-17
-1.08885e-16
3.06797e-17
-9.34611e-17
-3.79693e-17
-6.61918e-17
4.75151e-17
3.16662e-17
-3.18791e-17
4.97747e-17
-6.51966e-17
6.82036e-17
1.53005e-16
3.95109e-17
1.02903e-16
-7.04102e-17
4.00073e-17
9.46663e-19
9.34988e-17
5.74606e-18
-3.02403e-18
1.26224e-17
4.22824e-18
-4.65944e-17
4.49321e-18
-2.06576e-17
1.73412e-17
-4.07178e-18
-1.02992e-17
5.9089e-18
-6.85611e-18
1.7022e-17
-7.72073e-17
-2.35362e-17
3.89434e-17
4.218e-17
-1.20328e-17
1.07141e-18
-3.34686e-17
-7.33099e-17
6.86524e-17
3.99327e-17
1.66853e-17
1.99576e-19
-3.23525e-17
5.88534e-17
3.29892e-17
-3.422e-17
-6.98092e-17
-3.52814e-10
-5.54964e-10
3.05308e-06
-8.45816e-10
3.05508e-06
1.53137e-18
2.67471e-17
-4.4745e-18
-2.37983e-17
6.2535e-17
1.92043e-17
7.69393e-17
-3.7894e-17
5.21727e-16
-6.49505e-17
-4.73997e-17
-1.26103e-17
2.20923e-17
2.45182e-17
-1.19233e-17
1.388e-17
-2.82233e-17
-3.72722e-18
-3.00633e-17
1.57921e-17
-1.16716e-17
3.20805e-17
-3.71188e-17
-9.68795e-19
9.44616e-18
-2.78228e-17
7.69031e-18
1.04338e-17
3.05535e-06
-7.80882e-07
-1.5333e-09
-9.99739e-10
-2.35542e-10
1.22748e-05
-3.85785e-09
1.22844e-05
4.19983e-19
2.01232e-17
8.58067e-17
-4.03218e-17
-3.97767e-18
1.99684e-17
-4.48633e-18
2.10351e-17
-3.63433e-17
7.47699e-17
2.50567e-17
8.37922e-18
-5.67155e-17
1.36753e-17
-2.10833e-17
-6.35029e-18
-1.60013e-17
5.71694e-17
-1.57181e-17
-1.98035e-18
2.73672e-17
1.03136e-17
7.9776e-18
-5.92242e-17
-6.06573e-18
-1.9337e-17
-3.19589e-18
1.8995e-19
1.69959e-17
4.08063e-18
1.50683e-17
2.55292e-18
1.76162e-17
4.09735e-17
-7.35844e-18
4.65258e-17
-9.5344e-17
8.06072e-18
-4.88853e-17
-2.48282e-17
-1.88409e-18
3.46137e-17
7.3505e-18
-5.85425e-18
-2.71567e-17
-2.8118e-17
-4.44215e-18
6.00785e-18
-1.05548e-17
-3.98598e-17
6.53387e-18
-3.96258e-17
4.05815e-18
1.49846e-17
1.28709e-17
6.98036e-17
2.39762e-17
1.38729e-18
-3.54447e-17
9.26634e-18
-1.98704e-17
3.51976e-17
-3.49782e-17
1.13501e-16
-4.43044e-17
-2.20213e-17
-3.57977e-17
-4.1072e-18
-2.13723e-17
5.90692e-17
2.87659e-18
2.29427e-17
1.22587e-17
2.46668e-17
3.62563e-18
2.74857e-17
1.77001e-17
3.90227e-18
6.38522e-17
-4.45472e-17
-3.15006e-17
9.68827e-18
-5.46894e-17
1.98496e-17
-4.15915e-17
-2.22249e-18
-1.30019e-17
4.17041e-17
9.06302e-17
-2.43981e-17
-1.49534e-17
3.76489e-17
1.11092e-16
-3.53116e-19
-6.72791e-17
2.47853e-17
-1.42523e-17
3.0603e-17
-5.86477e-17
7.56433e-18
7.62057e-18
5.24089e-18
-6.28169e-17
-8.09755e-17
-3.41668e-17
3.88209e-17
-2.434e-17
2.85817e-17
-5.84175e-17
-3.76107e-17
-2.46591e-18
5.8706e-17
5.95399e-17
5.37697e-17
-8.89581e-18
-5.51166e-17
-4.6818e-18
-4.09766e-17
3.59501e-17
-3.84469e-17
-1.4962e-17
2.25611e-17
1.59336e-17
-4.84e-17
-3.8459e-17
7.88054e-18
2.50349e-17
3.22426e-17
-1.54477e-17
2.28767e-17
1.53809e-07
-3.34597e-08
-4.49757e-11
-1.90755e-10
5.47483e-09
-1.0254e-09
-7.36678e-13
-5.11346e-12
1.44139e-10
-2.35064e-11
4.93235e-15
-7.70457e-14
2.90612e-12
-4.16725e-13
3.71916e-16
8.17434e-16
4.58294e-14
-5.75922e-15
2.41861e-17
1.00882e-16
-5.70431e-17
3.05905e-06
-7.81944e-07
-1.38175e-09
1.36633e-09
-3.58654e-09
1.22923e-05
1.22782e-05
-1.96265e-17
-2.42939e-18
5.26712e-18
-5.98904e-18
4.03361e-17
-2.37959e-17
-1.30712e-16
-4.20239e-18
-7.67947e-17
5.03061e-17
2.81994e-17
-1.25634e-17
-6.62761e-18
4.80972e-16
-1.72533e-17
9.01523e-18
-5.73082e-15
4.58356e-14
-8.33912e-17
-2.32972e-17
-4.16726e-13
2.91604e-12
-4.94426e-15
-5.04547e-16
-2.36149e-11
1.44625e-10
-4.06641e-14
-1.07537e-14
-1.02927e-09
5.49262e-09
-1.26742e-12
-1.41218e-13
-3.35437e-08
1.54109e-07
-5.30695e-11
-4.4422e-12
-1.74533e-10
1.21434e-17
3.64562e-18
3.72783e-18
1.84383e-17
1.23202e-17
1.40671e-17
3.62873e-17
2.81893e-17
-3.39904e-17
-1.23204e-17
2.53353e-17
4.07798e-17
3.52585e-18
1.25225e-17
-5.43296e-18
2.9511e-17
2.8718e-17
-1.78613e-17
-4.0555e-19
-1.37359e-17
1.23461e-17
-3.50129e-17
1.50095e-17
2.06616e-17
6.51195e-17
4.1769e-17
2.67358e-17
-2.85558e-17
-7.2494e-17
-3.03641e-17
-6.18623e-17
-3.42866e-17
2.75462e-19
-1.25498e-17
3.41386e-17
-2.4601e-19
4.78507e-17
3.5079e-17
9.8903e-18
-2.80688e-17
2.85408e-17
-3.74985e-17
9.79184e-17
7.08014e-17
2.37313e-17
8.46005e-18
2.44723e-17
2.33088e-17
-2.47097e-17
-7.31369e-17
-1.62318e-17
-6.64539e-19
-3.95739e-17
-3.10796e-17
1.6479e-17
-4.13234e-17
-5.7151e-17
-8.32105e-17
-1.09432e-17
5.39392e-17
-3.38824e-17
2.10546e-17
7.06634e-17
-9.10565e-18
3.22213e-17
6.01392e-17
-3.80546e-19
7.50647e-19
-8.32436e-17
7.47816e-17
-2.28309e-17
2.85864e-17
2.55021e-17
-5.99203e-17
-5.71569e-17
-5.29476e-17
4.33723e-17
-1.00287e-16
-4.38969e-17
-7.94152e-17
6.72223e-17
1.58885e-17
-1.12856e-16
-9.05412e-17
-8.07746e-17
2.42304e-17
-9.07589e-17
-7.96264e-17
7.35819e-17
-6.1516e-18
2.17622e-17
-3.06154e-17
-1.09611e-16
-7.96906e-18
2.36744e-17
6.0419e-17
8.78067e-17
7.40653e-18
6.39957e-17
3.20162e-17
8.78183e-17
-2.842e-17
-4.93752e-17
-6.234e-17
-2.1717e-17
3.12382e-17
2.6983e-17
1.62711e-18
5.66201e-17
-6.03986e-18
-3.34449e-17
-2.01722e-17
3.2495e-17
1.72301e-17
1.79957e-17
-2.74725e-18
-3.31766e-17
-1.84309e-17
3.1318e-17
2.66792e-17
3.4824e-17
5.67646e-18
6.35199e-17
-3.22723e-18
-2.30912e-17
1.13292e-17
1.3165e-18
3.95577e-17
1.70398e-17
-4.28555e-17
3.09394e-17
3.92909e-17
4.45475e-18
4.88611e-17
3.06294e-06
-7.82528e-07
-1.73302e-09
1.2314e-05
-5.06363e-09
4.3199e-17
-2.21915e-17
-3.11882e-17
1.64619e-17
6.68878e-17
-2.47537e-17
-2.97124e-17
-7.31017e-18
1.4219e-17
-1.10449e-17
2.72801e-17
7.19394e-18
-3.13842e-17
1.7029e-17
5.40715e-18
-2.63585e-17
1.57238e-17
-1.9353e-17
5.37295e-18
-3.55049e-17
1.59852e-17
-1.56726e-17
2.13575e-17
5.67232e-17
-7.53373e-17
-5.86123e-17
3.10016e-17
-2.75925e-17
-2.13605e-17
2.75631e-17
7.52075e-18
2.47863e-17
-4.42781e-17
-3.18946e-17
5.58709e-16
-2.30915e-17
1.40278e-17
3.85053e-17
-6.71329e-18
-9.58063e-18
5.07576e-17
2.81646e-17
-6.84875e-19
1.27822e-17
-1.68508e-18
5.90431e-17
2.6049e-17
-4.45896e-18
4.28127e-17
-2.2956e-17
5.1329e-17
5.22477e-17
-3.52938e-18
1.8561e-17
2.50461e-17
-2.68736e-17
-1.99104e-17
3.06634e-06
-7.83589e-07
-1.49063e-09
1.23232e-05
-4.08865e-09
4.39061e-18
1.0405e-17
-3.37672e-17
3.26477e-17
-3.25239e-19
1.44914e-18
4.70612e-17
-1.06801e-17
7.69322e-18
-4.74889e-17
-3.19441e-17
4.70629e-17
2.41169e-17
-2.8296e-17
3.59414e-17
-1.82956e-17
-3.37839e-17
-5.00138e-17
1.43627e-16
-7.33858e-17
5.06902e-17
3.33733e-17
7.52977e-18
-1.17273e-17
2.18928e-17
2.36221e-17
2.96262e-17
-2.11759e-17
3.59591e-17
1.08373e-17
3.26738e-18
4.64915e-17
1.99125e-17
-1.55369e-17
2.04215e-17
-2.04729e-19
2.49432e-17
-1.08573e-17
3.13349e-18
1.70617e-17
1.37245e-17
-1.74495e-17
-1.74726e-17
3.38444e-17
-2.45975e-17
2.20864e-18
-8.73416e-18
-2.00541e-17
-3.45225e-17
7.70523e-17
-2.34985e-17
-1.17026e-17
-3.88883e-17
-4.98734e-17
2.57308e-17
5.30693e-17
-3.91264e-17
-3.39291e-17
2.09994e-17
8.18263e-18
-9.71637e-18
-3.77293e-17
-9.08818e-18
3.22416e-19
2.48379e-17
-5.04426e-17
3.65382e-17
1.37515e-18
-2.25184e-17
4.54941e-17
6.61196e-18
-8.81827e-18
2.03556e-17
1.82655e-17
2.15366e-17
2.21489e-17
6.03083e-18
1.21171e-17
9.88655e-18
1.91509e-17
-3.37547e-18
-1.49064e-19
-2.34516e-17
3.33539e-18
3.88009e-17
8.08456e-17
-3.21669e-17
2.31399e-17
-2.35022e-17
7.93076e-18
3.32076e-17
5.901e-17
6.16483e-17
-9.34171e-17
5.74993e-17
3.67483e-17
2.96367e-17
-3.86553e-17
-6.13207e-17
1.1826e-17
-5.76443e-17
5.30574e-17
-2.15759e-17
-1.23471e-17
1.19094e-17
-1.9818e-17
1.93432e-17
-4.83717e-18
7.17029e-17
-2.39314e-18
2.06756e-17
-2.2236e-17
-2.79744e-17
-6.95245e-18
-3.91511e-17
-5.24476e-17
-1.14157e-17
2.3227e-17
1.00938e-17
-4.11604e-17
-6.09551e-17
-4.65514e-17
-1.4896e-18
-1.51843e-20
9.07419e-17
-2.04919e-17
3.32279e-18
-3.20835e-17
-1.86315e-17
7.03461e-17
3.24801e-17
6.20739e-17
-3.19967e-17
4.92648e-17
-9.06708e-17
-3.88616e-17
3.94829e-17
-1.68951e-17
-5.16707e-18
-8.28897e-17
2.00195e-17
1.54102e-07
-3.35152e-08
-6.61713e-11
-2.44878e-10
5.48225e-09
-1.02667e-09
-1.4813e-12
-7.85051e-12
1.44286e-10
-2.35339e-11
-2.3515e-14
-1.56677e-13
2.90986e-12
-4.1778e-13
-4.44583e-16
-3.23523e-15
4.61593e-14
-5.81746e-15
2.1708e-17
9.61562e-18
-3.38558e-18
-1.47411e-09
-8.11319e-09
4.04513e-05
8.915e-09
-1.35784e-08
4.05072e-05
4.04607e-05
3.03926e-17
5.1079e-18
1.42508e-08
4.05781e-05
-2.2558e-08
4.04918e-05
-1.41241e-18
-1.06991e-17
1.36435e-17
9.70692e-18
4.51782e-17
1.81419e-17
-1.77808e-18
2.31326e-17
1.62964e-17
3.74046e-17
-7.96041e-17
-6.55526e-18
-7.35438e-17
3.37829e-17
1.38104e-17
5.46002e-16
2.38805e-17
2.51817e-19
-5.82781e-15
4.61151e-14
-8.30997e-17
-1.37479e-17
-4.18222e-13
2.92033e-12
-4.08185e-15
-6.19576e-16
-2.36278e-11
1.4485e-10
-5.89982e-14
-9.55886e-15
-1.03011e-09
5.50156e-09
-1.18409e-12
-1.19065e-13
-3.35931e-08
1.54428e-07
-4.56885e-11
-4.87278e-12
-1.84035e-10
-1.49326e-17
1.66677e-18
-3.47761e-17
2.46114e-17
-3.04637e-17
2.20365e-17
-1.18744e-17
-3.16274e-17
1.77464e-17
-4.7659e-17
-2.43112e-17
4.4243e-18
-1.15301e-17
2.02054e-17
-5.18551e-17
-1.15844e-17
3.36919e-17
1.53018e-17
4.21972e-18
-2.8784e-17
-2.05048e-17
-2.20367e-17
-3.88945e-17
-4.54825e-17
1.46367e-17
-3.51147e-17
-5.02534e-17
-3.68695e-17
1.24279e-17
4.68742e-18
-1.045e-17
-2.08652e-17
4.78512e-18
-6.96602e-17
-2.60136e-17
-9.4527e-18
6.50516e-17
1.87593e-17
-7.27953e-18
-7.58283e-18
-5.3742e-17
2.42198e-17
-6.9605e-17
-1.36131e-17
-6.2858e-17
7.29611e-17
-2.91245e-17
3.92355e-17
-2.78112e-17
-9.70638e-18
1.65085e-17
7.84652e-18
7.26427e-17
4.58883e-19
-3.36066e-17
1.32766e-16
-7.88259e-17
6.37126e-17
-2.1386e-18
9.54636e-18
-5.91309e-17
5.35537e-17
9.06792e-17
-1.71301e-17
4.3798e-17
5.37474e-17
-5.65634e-17
2.25757e-17
-7.46736e-17
-7.52789e-17
9.29665e-18
-5.19871e-17
4.36463e-17
5.26252e-17
-3.78456e-17
-1.0152e-16
-5.57374e-17
4.72637e-18
6.1257e-17
-8.10975e-17
-1.30145e-17
-6.55774e-18
-1.71684e-17
-5.52379e-17
-7.2727e-17
4.3603e-17
1.683e-17
-1.27313e-17
-4.38107e-17
-4.50463e-17
2.95836e-17
-5.27247e-17
-1.34409e-17
1.59531e-17
-5.37572e-17
-6.78685e-17
-9.48656e-17
6.16895e-17
-1.1755e-16
-3.75314e-17
-1.10465e-16
1.24423e-16
-2.05187e-17
-6.36363e-17
-1.11948e-16
-4.85964e-17
1.85016e-17
3.70267e-17
8.62058e-17
-4.21023e-17
7.24329e-17
1.04759e-16
8.08069e-17
-1.54068e-16
7.08231e-17
2.08496e-17
1.5848e-16
2.73287e-17
1.91976e-17
8.39953e-17
3.50087e-17
7.5671e-17
-2.06266e-17
8.66143e-17
2.20766e-17
-2.53699e-17
-7.2777e-18
-4.66684e-17
3.87096e-17
-7.98384e-17
1.02588e-17
-2.00744e-17
7.92212e-19
7.44654e-17
-1.96765e-17
5.01862e-17
5.03881e-17
-1.19659e-17
3.34543e-17
-2.944e-17
9.77629e-18
3.32393e-18
3.81315e-18
6.99644e-18
-3.30793e-17
9.31199e-18
-7.54591e-19
-2.19228e-17
3.80844e-17
1.91747e-17
9.18211e-18
-1.15576e-17
-3.15991e-17
-2.96477e-18
1.23438e-17
-5.13297e-17
2.58235e-17
1.38369e-17
-1.52693e-17
1.47861e-17
1.43039e-17
-9.30991e-17
-1.51525e-17
4.43603e-18
8.06196e-18
5.08137e-17
-1.45626e-17
1.22554e-17
-1.06729e-17
1.29682e-17
-1.00741e-17
-3.6253e-17
-3.01749e-17
-6.63993e-18
6.17325e-18
-1.16432e-18
4.51788e-17
-3.56648e-18
3.51824e-17
-5.05161e-17
1.76101e-19
2.86518e-17
-2.35458e-17
4.19146e-17
2.60332e-17
-3.24147e-17
-1.95793e-17
-4.5195e-17
1.24296e-17
-2.05851e-17
-1.90656e-17
-2.88599e-17
3.17963e-17
-1.51878e-17
-1.15247e-18
4.36904e-17
-3.0097e-17
-1.67059e-17
2.63272e-17
-2.49761e-17
-5.17658e-18
2.81198e-18
-5.89876e-17
-5.23564e-18
1.19406e-17
-2.13558e-08
4.05947e-05
1.38854e-17
3.90786e-17
3.42737e-17
-6.24677e-18
3.12914e-17
3.76839e-17
-2.60942e-17
3.15688e-17
-1.32591e-17
2.58853e-18
-2.08606e-17
-4.34547e-17
1.74685e-17
-2.89312e-18
-5.12538e-17
-2.63419e-17
-1.33195e-17
1.74927e-17
-2.2906e-18
1.08695e-17
-2.24725e-17
3.88378e-17
-7.41197e-17
1.90619e-17
-3.49663e-17
-1.2687e-19
6.01228e-17
-1.90951e-18
-2.4279e-17
-5.49174e-17
-1.09399e-16
2.76554e-17
-2.45213e-17
-1.78094e-18
-4.47099e-17
-4.60247e-17
-2.35071e-19
-1.12359e-18
3.0628e-17
1.75542e-17
-5.02255e-17
4.06038e-17
3.49749e-17
-1.27273e-17
1.03746e-17
5.91046e-17
-2.77987e-17
1.92009e-17
3.10897e-17
1.55318e-17
2.83688e-17
1.63986e-17
-1.96892e-17
2.07944e-17
1.42443e-17
1.81653e-17
2.62029e-17
1.10798e-17
5.14439e-18
-2.48126e-18
-9.25602e-18
5.36939e-17
-1.35395e-17
2.58738e-17
-7.16104e-17
5.44111e-18
2.75109e-17
1.0695e-17
1.58786e-17
4.86645e-17
1.93209e-18
6.34268e-17
4.8805e-17
2.25791e-17
-1.87973e-17
-1.96649e-17
2.27128e-17
3.03191e-17
-3.35248e-08
1.63269e-08
0.000119762
4.06716e-05
-1.2347e-05
-3.87229e-08
-1.1296e-07
0.000119949
3.51781e-17
6.85609e-17
3.05064e-17
-2.6363e-17
-1.20551e-17
6.21622e-19
1.94728e-17
1.5757e-17
1.64662e-17
-3.8194e-17
2.22225e-17
-2.01389e-17
3.54958e-17
-2.67613e-17
1.1683e-17
7.99974e-19
7.89681e-18
2.17517e-17
-1.75882e-17
4.3413e-18
4.306e-18
3.11774e-19
5.84939e-17
-1.26279e-17
4.02534e-18
3.32704e-18
5.74799e-17
-7.84205e-18
-1.76676e-18
-2.64901e-17
-1.11714e-16
1.08149e-17
7.80499e-18
5.21376e-17
-3.34883e-17
5.31661e-17
3.48276e-19
-3.42623e-18
-2.87703e-17
-3.167e-17
-3.63175e-18
-9.783e-18
6.3286e-19
-4.78512e-18
3.50971e-17
1.59231e-17
-2.28358e-17
4.3775e-17
8.88714e-17
4.47429e-17
-4.53603e-17
2.9404e-18
2.34052e-17
-8.93826e-18
3.22482e-17
-2.37515e-17
2.44091e-17
-1.04354e-18
6.05596e-17
1.76475e-18
-3.50941e-17
-6.75064e-17
-1.51067e-17
1.27839e-17
-2.00669e-17
1.64284e-18
-4.61816e-17
-1.91691e-17
-4.04544e-17
4.89625e-17
-5.77531e-17
-4.70874e-18
-1.28948e-18
-3.49922e-17
6.19975e-17
-4.74419e-17
2.78591e-17
4.17918e-18
2.52609e-17
-2.16528e-17
-1.39947e-17
-3.3501e-17
5.31005e-18
4.76527e-17
-8.56264e-18
3.18127e-17
-7.93456e-17
-2.31763e-17
-2.05646e-17
4.54352e-17
-7.39454e-18
-3.85576e-17
-1.41367e-17
-8.67659e-17
-6.30353e-17
-7.50879e-17
5.50608e-17
3.15515e-17
2.7862e-18
1.02545e-17
-3.63524e-17
-1.29195e-17
5.34857e-17
5.29308e-17
6.46825e-17
4.56044e-17
-2.19284e-17
-3.69216e-17
-1.19805e-16
3.25589e-17
-6.08967e-17
-3.11838e-17
5.72847e-17
-4.63217e-17
-2.61863e-17
-4.60046e-17
-3.05447e-18
3.07097e-06
-7.84313e-07
-2.33473e-09
-8.00398e-09
1.54441e-07
-3.35822e-08
-8.92677e-11
-3.7164e-10
5.49204e-09
-1.02854e-09
-2.3679e-12
-1.14193e-11
1.44521e-10
-2.35827e-11
-7.00847e-14
-3.01747e-13
2.91847e-12
-4.19402e-13
-1.32009e-15
-6.92524e-15
4.64021e-14
-5.86014e-15
2.45285e-17
-3.66754e-17
5.31483e-16
-7.03317e-18
7.57747e-18
4.34298e-18
1.42291e-17
4.87349e-17
3.99664e-17
3.32997e-17
-1.32519e-08
8.30448e-09
0.000119574
4.06839e-05
-1.23534e-05
-3.70275e-08
3.37441e-08
-1.0551e-07
0.000119959
0.000119773
-8.04293e-09
-9.12655e-09
0.000119465
0.000119488
0.000119551
-4.85348e-18
-1.48467e-17
2.8527e-17
8.74743e-17
2.60303e-17
-2.54396e-17
6.50452e-17
7.46076e-17
-5.58145e-17
4.39248e-17
-3.10801e-17
4.9521e-17
-5.52734e-17
5.06155e-16
-5.08174e-18
8.07704e-17
-5.86123e-15
4.64608e-14
-8.80959e-17
-5.13354e-17
-4.19529e-13
2.92351e-12
-4.41734e-15
-5.02823e-16
-2.36456e-11
1.44896e-10
-6.99042e-14
-1.51926e-14
-1.03107e-09
5.50725e-09
-1.72796e-12
-3.50126e-13
-3.3639e-08
1.54678e-07
-5.88328e-11
-7.43566e-12
-7.85107e-07
3.07337e-06
-1.96228e-09
-2.99295e-10
-7.04389e-09
8.42144e-18
5.10598e-18
4.04422e-18
2.61765e-17
-2.19809e-17
4.94294e-18
-2.68325e-17
-1.02111e-17
3.04824e-17
1.07147e-18
-1.81227e-17
-2.90745e-17
-2.90209e-17
-1.14149e-17
-1.40806e-17
4.78598e-18
2.16895e-18
-1.00589e-17
-7.38698e-18
-2.66684e-17
1.26072e-17
8.83649e-18
-1.00333e-17
-1.64268e-17
-1.32137e-17
-4.34479e-17
3.66164e-17
2.63357e-17
3.51026e-18
-5.5756e-17
1.59516e-17
6.9773e-17
1.88399e-17
8.88978e-18
2.6936e-17
8.73428e-18
-4.08592e-17
9.1886e-17
1.4062e-17
-6.75668e-18
-2.35747e-17
3.55144e-17
-7.18961e-17
-6.6163e-17
-6.49154e-17
1.53339e-17
-6.71372e-17
-5.27334e-17
7.46965e-17
-8.94467e-17
-2.85368e-17
-1.03333e-16
2.24936e-17
3.44883e-17
8.24243e-17
7.43398e-18
-3.21609e-17
-1.04188e-16
-5.72113e-17
5.75579e-17
7.06555e-17
2.33255e-17
1.12623e-17
-8.55112e-17
3.21534e-17
5.25054e-17
-1.37582e-17
-6.91711e-17
-2.7194e-17
-3.51995e-17
-7.25164e-17
-6.70827e-17
3.43596e-17
4.48567e-17
-8.38019e-18
-1.00224e-16
-7.4774e-18
-7.61317e-18
3.94745e-17
-2.70844e-17
3.04593e-17
-6.41305e-17
-2.49424e-17
-5.88563e-17
4.30287e-17
-1.29163e-16
-4.33451e-17
1.33094e-17
5.14633e-17
1.19583e-16
1.822e-17
-1.86013e-17
-5.75486e-17
4.38284e-17
4.49843e-17
1.04715e-16
-4.65327e-17
7.66084e-17
1.45033e-16
7.15976e-17
-5.19265e-17
3.95291e-17
2.59626e-17
6.78765e-17
-3.20761e-17
9.27599e-18
8.23746e-18
-3.75079e-18
6.13878e-17
3.2007e-17
-3.19289e-17
-2.4585e-17
-1.87853e-17
6.14377e-17
6.76221e-18
-7.49725e-17
3.46934e-17
-5.22113e-17
7.3378e-17
-1.24922e-17
1.75718e-17
6.65676e-18
1.46959e-17
7.18531e-17
-5.57041e-17
1.22353e-17
-4.8127e-18
-5.8319e-18
-1.88965e-17
4.72205e-17
3.12397e-17
-4.9319e-17
-2.64409e-17
7.35118e-17
-8.69994e-17
-5.57446e-17
-2.37712e-17
-1.04148e-17
1.78837e-17
1.00607e-17
1.43456e-17
1.38742e-17
-1.40269e-17
-3.21415e-18
7.91345e-18
-1.62942e-17
-3.47785e-17
1.91217e-17
3.1136e-17
-3.76362e-17
6.63565e-18
4.49782e-17
4.98703e-17
-8.73753e-17
7.22691e-18
1.17723e-17
7.97617e-18
-7.33738e-18
-2.42181e-17
-3.42774e-17
-1.34199e-17
7.1502e-18
5.78103e-17
5.21792e-18
3.42883e-18
6.64811e-18
2.52491e-17
3.21256e-17
1.36769e-17
-1.73207e-18
4.30972e-18
-3.56935e-17
-2.85994e-17
-5.05439e-17
2.46246e-17
-7.64352e-18
-2.98203e-17
-1.057e-17
-5.83354e-18
-2.20111e-18
-4.09267e-17
2.56523e-17
-3.40021e-17
3.00863e-18
-7.62476e-18
4.07374e-05
-1.23713e-05
-7.90037e-08
0.000120042
-3.11979e-07
3.61253e-17
3.74261e-17
4.74134e-17
-5.40046e-17
1.48117e-17
4.70519e-17
-2.46727e-17
-8.45332e-18
-2.32838e-17
2.42345e-17
-1.33523e-18
-2.23931e-17
3.14934e-17
3.759e-17
9.61753e-18
-2.30055e-17
-7.39246e-17
6.34173e-18
-1.1425e-17
2.09901e-17
1.03678e-16
-4.54243e-17
-4.35737e-17
-1.30783e-17
4.03152e-17
5.86612e-17
9.66887e-18
3.71838e-20
-9.23268e-18
-8.53895e-18
-5.75686e-17
5.45882e-18
1.34142e-17
9.09056e-18
5.00887e-17
-2.79562e-17
-2.18536e-17
2.24566e-17
2.07286e-17
-1.77888e-17
-1.96762e-17
5.5652e-18
1.17567e-17
1.41434e-17
4.0733e-05
-1.23684e-05
-8.09189e-08
0.000120047
-3.1356e-07
-1.30253e-07
5.92329e-08
0.000274945
-3.83179e-07
0.000275184
2.55831e-17
2.3975e-17
-1.03756e-17
3.03035e-17
3.91669e-17
1.22529e-17
-9.03276e-18
1.07523e-18
3.05784e-18
-1.01031e-17
2.61847e-18
1.09095e-17
5.42293e-17
-2.20853e-17
-6.90454e-18
7.06095e-18
-1.40845e-17
5.7204e-17
-1.77741e-17
-1.95947e-17
-2.34947e-17
4.02932e-17
3.8125e-17
1.26951e-17
2.61483e-17
-7.78732e-18
7.14436e-17
-1.44247e-17
5.70441e-17
5.33958e-17
3.51711e-17
2.79259e-17
-3.69355e-17
2.71567e-17
-6.54562e-17
-1.47979e-17
-8.01767e-17
-2.80485e-18
-2.46225e-17
2.33035e-17
1.31907e-17
2.19802e-17
-2.76625e-17
1.03561e-17
-3.58641e-17
-3.90149e-19
3.2118e-18
2.74711e-17
-1.10453e-17
-3.2527e-17
1.45012e-18
-2.21579e-17
1.72524e-17
1.52328e-17
1.23227e-18
-4.81644e-18
-2.89008e-17
-1.57601e-17
6.89664e-17
1.78087e-17
-1.9714e-17
-1.66091e-17
-7.80073e-17
9.98144e-18
2.01497e-17
1.07027e-18
-1.18254e-17
4.98313e-17
3.73441e-17
2.09121e-17
-6.59071e-17
4.44395e-17
-2.00443e-17
5.3389e-18
4.20304e-17
-7.92033e-17
-1.26618e-17
5.81504e-18
3.85397e-17
-4.79786e-17
-8.69616e-17
7.44415e-18
-3.39894e-18
-2.55007e-17
-6.34769e-17
-7.98942e-17
-2.81079e-17
3.79916e-17
2.41999e-17
6.76403e-17
-6.7512e-17
5.19359e-17
-9.13249e-18
3.44677e-17
3.97088e-17
-6.15826e-17
-7.53235e-17
-4.24439e-18
3.36673e-18
7.20531e-17
1.1335e-16
3.16208e-19
4.85958e-17
-1.84925e-17
7.06932e-17
-2.82569e-17
1.47048e-17
-4.73381e-17
4.20922e-17
-5.40733e-17
-1.21341e-17
-1.04003e-16
-3.75807e-17
3.03522e-17
3.23329e-17
1.17604e-17
1.06217e-17
8.69744e-18
-9.01786e-17
7.52652e-18
4.15062e-17
4.23693e-17
2.38991e-17
4.49974e-17
3.44434e-17
-2.37017e-17
3.22425e-17
2.54153e-17
4.4513e-17
-1.86882e-17
-1.13026e-17
-1.02406e-17
-9.77988e-18
-1.28762e-17
3.07702e-06
-7.85716e-07
-4.05291e-09
-1.88213e-08
1.54737e-07
-3.36363e-08
-1.39266e-10
-7.69737e-10
5.50207e-09
-1.03037e-09
-3.97619e-12
-2.20009e-11
1.44895e-10
-2.36514e-11
-1.00229e-13
-5.59927e-13
2.92883e-12
-4.21306e-13
-1.90279e-15
-1.28745e-14
4.67019e-14
-5.94855e-15
-1.88868e-17
-8.89191e-17
5.70466e-16
2.46242e-17
5.69573e-17
-1.9958e-17
-3.3834e-17
-1.566e-18
7.60842e-17
6.07163e-17