/*--------------------------------*- C++ -*----------------------------------*\
| =========                 |                                                 |
| \\      /  F ield         | OpenFOAM: The Open Source CFD Toolbox           |
|  \\    /   O peration     | Version:  2212                                  |
|   \\  /    A nd           | Website:  www.openfoam.com                      |
|    \\/     M anipulation  |                                                 |
\*---------------------------------------------------------------------------*/
FoamFile
{
    version     2.0;
    format      ascii;
    arch        "LSB;label=32;scalar=64";
    class       volScalarField;
    location    "0.262";
    object      p;
}
// * * * * * * * * * * * * * * * * * * * * * * * * * * * * * * * * * * * * * //

dimensions      [0 2 -2 0 0 0 0];

internalField   nonuniform List<scalar> 
24240
(
4.90097
4.90167
4.90307
4.90512
4.90774
4.91082
4.91428
4.91799
4.92184
4.92572
4.92953
4.93317
4.93656
4.93963
4.94232
4.94461
4.94649
4.94794
4.94895
4.94948
4.26738
4.26753
4.26781
4.26823
4.26876
4.26938
4.27008
4.27083
4.27161
4.2724
4.27317
4.27391
4.2746
4.27523
4.27578
4.27624
4.27662
4.27689
4.27706
4.27713
4.0378
4.03775
4.03763
4.03746
4.03723
4.03697
4.03669
4.0364
4.0361
4.03582
4.03554
4.03529
4.03506
4.03485
4.03467
4.03451
4.03436
4.03423
4.03412
4.03404
3.82508
3.82499
3.8248
3.82452
3.82415
3.82373
3.82324
3.82272
3.82218
3.82163
3.82108
3.82055
3.82005
3.81959
3.81918
3.81881
3.8185
3.81823
3.81803
3.81791
3.74935
3.74914
3.74872
3.74812
3.74734
3.74643
3.74541
3.74432
3.7432
3.74207
3.74097
3.73992
3.73895
3.73807
3.7373
3.73665
3.73611
3.73569
3.73539
3.73524
3.65438
3.65419
3.65383
3.65329
3.65261
3.6518
3.6509
3.64994
3.64893
3.64792
3.64693
3.64598
3.6451
3.6443
3.6436
3.643
3.64251
3.64213
3.64187
3.64173
3.62703
3.62688
3.62659
3.62615
3.62559
3.62493
3.6242
3.62341
3.62259
3.62176
3.62094
3.62016
3.61944
3.61878
3.6182
3.61771
3.61731
3.61701
3.6168
3.61669
3.58287
3.58275
3.5825
3.58214
3.58168
3.58113
3.58052
3.57986
3.57917
3.57848
3.5778
3.57715
3.57654
3.57599
3.57551
3.57511
3.57478
3.57454
3.57438
3.57429
3.57123
3.57113
3.57092
3.57063
3.57025
3.5698
3.56929
3.56875
3.56819
3.56762
3.56705
3.56652
3.56602
3.56557
3.56518
3.56485
3.56459
3.5644
3.56427
3.56421
3.57121
3.57112
3.57094
3.57069
3.57036
3.56997
3.56953
3.56906
3.56857
3.56807
3.56758
3.56712
3.56669
3.5663
3.56596
3.56568
3.56547
3.56531
3.56521
3.56516
3.56581
3.56573
3.56556
3.56531
3.56499
3.56462
3.5642
3.56374
3.56327
3.56279
3.56232
3.56187
3.56145
3.56108
3.56076
3.5605
3.5603
3.56015
3.56006
3.56001
3.60619
3.60612
3.60598
3.60577
3.60551
3.6052
3.60485
3.60447
3.60407
3.60367
3.60328
3.60291
3.60257
3.60226
3.602
3.60179
3.60162
3.6015
3.60143
3.60139
3.60927
3.6092
3.60906
3.60886
3.6086
3.60829
3.60794
3.60757
3.60718
3.60678
3.60639
3.60603
3.60569
3.6054
3.60514
3.60494
3.60478
3.60465
3.60457
3.60453
3.69286
3.69281
3.69271
3.69256
3.69237
3.69214
3.69189
3.69161
3.69132
3.69103
3.69074
3.69048
3.69024
3.69002
3.68984
3.68969
3.68957
3.68948
3.68942
3.68937
3.72176
3.72171
3.72161
3.72146
3.72127
3.72104
3.72078
3.7205
3.72021
3.71991
3.71963
3.71937
3.71913
3.71892
3.71875
3.7186
3.71848
3.71838
3.71831
3.71827
3.87788
3.87786
3.87781
3.87774
3.87765
3.87754
3.87742
3.87728
3.87715
3.87701
3.87689
3.87677
3.87668
3.8766
3.87653
3.87647
3.87641
3.87636
3.87632
3.87629
3.9917
3.99169
3.99167
3.99164
3.99159
3.99154
3.99148
3.99142
3.99136
3.99131
3.99126
3.99122
3.9912
3.99119
3.99118
3.99117
3.99116
3.99113
3.99111
3.99109
4.34007
4.34014
4.34027
4.34046
4.34071
4.34099
4.34132
4.34167
4.34205
4.34244
4.34282
4.3432
4.34356
4.34389
4.34418
4.34442
4.3446
4.34472
4.34479
4.3448
4.7408
4.74103
4.74147
4.74211
4.74293
4.7439
4.74499
4.74617
4.7474
4.74865
4.74989
4.75107
4.75217
4.75316
4.75402
4.75473
4.75529
4.7557
4.75595
4.75608
5.74587
5.74651
5.74776
5.7496
5.75195
5.75473
5.75787
5.76125
5.76478
5.76834
5.77183
5.77515
5.7782
5.78091
5.78324
5.78516
5.78668
5.7878
5.78852
5.78888
12.2857
12.2863
12.2876
12.2894
12.2918
12.2946
12.2977
12.3011
12.3046
12.3082
12.3117
12.3151
12.3183
12.3211
12.3237
12.3259
12.3277
12.3291
12.3301
12.3306
11.5437
11.5439
11.5443
11.5449
11.5457
11.5466
11.5476
11.5487
11.5499
11.5511
11.5522
11.5534
11.5544
11.5554
11.5563
11.557
11.5576
11.558
11.5583
11.5585
11.1879
11.188
11.188
11.1881
11.1882
11.1884
11.1885
11.1887
11.1889
11.1892
11.1894
11.1896
11.1898
11.1901
11.1902
11.1904
11.1905
11.1906
11.1906
11.1906
10.9013
10.9012
10.901
10.9008
10.9005
10.9001
10.8997
10.8993
10.8988
10.8984
10.8979
10.8975
10.8971
10.8967
10.8964
10.8961
10.8959
10.8956
10.8955
10.8954
10.7376
10.7375
10.7372
10.7368
10.7363
10.7357
10.735
10.7343
10.7335
10.7328
10.732
10.7313
10.7306
10.73
10.7295
10.729
10.7286
10.7283
10.7281
10.728
10.581
10.5809
10.5806
10.5801
10.5795
10.5789
10.5781
10.5773
10.5764
10.5756
10.5747
10.5739
10.5732
10.5725
10.5719
10.5713
10.5709
10.5706
10.5703
10.5702
10.5133
10.5131
10.5129
10.5125
10.5119
10.5113
10.5107
10.5099
10.5092
10.5084
10.5076
10.5069
10.5062
10.5056
10.505
10.5045
10.5041
10.5038
10.5036
10.5035
10.4454
10.4453
10.445
10.4447
10.4442
10.4437
10.4431
10.4424
10.4418
10.4411
10.4404
10.4397
10.4391
10.4386
10.4381
10.4376
10.4373
10.437
10.4368
10.4367
10.425
10.4249
10.4247
10.4244
10.424
10.4235
10.423
10.4224
10.4218
10.4212
10.4206
10.42
10.4194
10.4189
10.4185
10.4181
10.4177
10.4175
10.4173
10.4173
10.4405
10.4404
10.4402
10.44
10.4396
10.4392
10.4387
10.4381
10.4376
10.437
10.4364
10.4359
10.4354
10.4349
10.4345
10.4341
10.4338
10.4336
10.4334
10.4334
10.4431
10.443
10.4428
10.4425
10.4422
10.4418
10.4413
10.4408
10.4402
10.4397
10.4391
10.4386
10.4381
10.4376
10.4372
10.4369
10.4366
10.4364
10.4362
10.4361
10.5351
10.5351
10.5349
10.5347
10.5344
10.534
10.5336
10.5331
10.5327
10.5322
10.5317
10.5312
10.5308
10.5304
10.5301
10.5297
10.5295
10.5293
10.5291
10.529
10.5716
10.5716
10.5714
10.5712
10.5709
10.5705
10.5701
10.5697
10.5693
10.5688
10.5684
10.5679
10.5675
10.5672
10.5668
10.5665
10.5663
10.5661
10.5659
10.5658
10.7436
10.7436
10.7434
10.7433
10.7431
10.7428
10.7426
10.7423
10.742
10.7416
10.7413
10.741
10.7408
10.7405
10.7403
10.74
10.7399
10.7397
10.7396
10.7395
10.8439
10.8438
10.8437
10.8436
10.8434
10.8432
10.843
10.8428
10.8425
10.8423
10.842
10.8418
10.8416
10.8414
10.8412
10.8411
10.8409
10.8408
10.8407
10.8406
11.1243
11.1243
11.1243
11.1243
11.1243
11.1243
11.1243
11.1244
11.1244
11.1244
11.1245
11.1245
11.1246
11.1246
11.1246
11.1247
11.1247
11.1247
11.1246
11.1246
11.3608
11.3608
11.3609
11.361
11.3612
11.3614
11.3616
11.3618
11.3621
11.3624
11.3626
11.3629
11.3632
11.3634
11.3637
11.3639
11.364
11.3641
11.3641
11.3641
11.8307
11.8308
11.8311
11.8315
11.832
11.8327
11.8334
11.8342
11.8351
11.836
11.8369
11.8378
11.8386
11.8394
11.8401
11.8407
11.8412
11.8415
11.8418
11.8418
12.3591
12.3594
12.3599
12.3607
12.3617
12.3629
12.3643
12.3658
12.3673
12.369
12.3706
12.3722
12.3737
12.3751
12.3763
12.3774
12.3783
12.379
12.3795
12.3798
13.4813
13.482
13.4834
13.4855
13.4882
13.4915
13.4951
13.4991
13.5032
13.5074
13.5115
13.5155
13.5191
13.5224
13.5254
13.5278
13.5299
13.5314
13.5325
13.533
19.705
19.7057
19.7069
19.7087
19.7111
19.7139
19.717
19.7204
19.7239
19.7275
19.7311
19.7345
19.7378
19.7407
19.7434
19.7457
19.7476
19.7491
19.7501
19.7507
18.8433
18.8435
18.8441
18.8448
18.8458
18.847
18.8483
18.8498
18.8513
18.8528
18.8544
18.8559
18.8573
18.8586
18.8597
18.8607
18.8615
18.8621
18.8625
18.8627
18.4222
18.4223
18.4224
18.4227
18.423
18.4234
18.4238
18.4243
18.4248
18.4253
18.4258
18.4264
18.4269
18.4274
18.4278
18.4282
18.4284
18.4286
18.4288
18.4288
18.0164
18.0163
18.0162
18.016
18.0157
18.0154
18.0151
18.0147
18.0143
18.0139
18.0136
18.0132
18.0128
18.0125
18.0122
18.012
18.0118
18.0116
18.0114
18.0113
17.7939
17.7938
17.7935
17.7932
17.7928
17.7923
17.7917
17.7911
17.7905
17.7899
17.7893
17.7887
17.7881
17.7876
17.7872
17.7868
17.7864
17.7862
17.786
17.7859
17.5549
17.5547
17.5545
17.5541
17.5536
17.5531
17.5524
17.5517
17.551
17.5503
17.5496
17.5489
17.5483
17.5477
17.5471
17.5466
17.5462
17.5459
17.5457
17.5456
17.4544
17.4543
17.4541
17.4537
17.4533
17.4528
17.4522
17.4516
17.4509
17.4502
17.4496
17.4489
17.4483
17.4478
17.4473
17.4468
17.4464
17.4461
17.4459
17.4458
17.3539
17.3538
17.3536
17.3533
17.3529
17.3524
17.3519
17.3513
17.3507
17.3501
17.3495
17.3489
17.3484
17.3478
17.3474
17.3469
17.3466
17.3463
17.3461
17.346
17.3277
17.3276
17.3274
17.3271
17.3267
17.3263
17.3258
17.3253
17.3247
17.3241
17.3236
17.323
17.3225
17.322
17.3215
17.3211
17.3208
17.3205
17.3203
17.3202
17.3521
17.352
17.3518
17.3515
17.3512
17.3508
17.3503
17.3498
17.3493
17.3487
17.3482
17.3476
17.3471
17.3466
17.3462
17.3458
17.3455
17.3452
17.345
17.3449
17.3695
17.3695
17.3693
17.369
17.3687
17.3683
17.3678
17.3673
17.3668
17.3662
17.3657
17.3652
17.3646
17.3642
17.3637
17.3633
17.363
17.3627
17.3625
17.3624
17.5127
17.5126
17.5125
17.5123
17.512
17.5116
17.5112
17.5108
17.5103
17.5098
17.5093
17.5089
17.5084
17.508
17.5076
17.5072
17.5069
17.5066
17.5064
17.5063
17.5886
17.5885
17.5884
17.5882
17.5879
17.5876
17.5872
17.5868
17.5864
17.586
17.5855
17.5851
17.5847
17.5843
17.584
17.5836
17.5833
17.5831
17.5829
17.5828
17.8562
17.8562
17.8561
17.856
17.8558
17.8556
17.8554
17.8551
17.8548
17.8546
17.8543
17.854
17.8538
17.8535
17.8533
17.8531
17.8529
17.8527
17.8525
17.8524
18.0293
18.0293
18.0292
18.0292
18.0291
18.029
18.0288
18.0287
18.0286
18.0285
18.0283
18.0282
18.0281
18.0279
18.0278
18.0277
18.0275
18.0274
18.0273
18.0272
18.4608
18.4608
18.4609
18.461
18.4611
18.4612
18.4614
18.4616
18.4618
18.462
18.4622
18.4624
18.4626
18.4628
18.463
18.4631
18.4631
18.4632
18.4632
18.4631
18.8026
18.8027
18.8029
18.8031
18.8035
18.8039
18.8044
18.8049
18.8054
18.806
18.8066
18.8072
18.8077
18.8082
18.8087
18.8091
18.8094
18.8096
18.8097
18.8097
19.4755
19.4757
19.4762
19.4768
19.4776
19.4785
19.4796
19.4808
19.4821
19.4834
19.4847
19.486
19.4873
19.4885
19.4895
19.4905
19.4912
19.4918
19.4921
19.4923
20.1157
20.1161
20.1168
20.1179
20.1192
20.1209
20.1228
20.1248
20.127
20.1292
20.1315
20.1337
20.1358
20.1377
20.1395
20.1411
20.1424
20.1434
20.1441
20.1444
21.3331
21.3338
21.3352
21.3373
21.3399
21.3431
21.3467
21.3507
21.3549
21.3591
21.3634
21.3675
21.3714
21.3751
21.3783
21.3812
21.3837
21.3857
21.3871
21.3879
26.6992
26.6998
26.701
26.7028
26.7051
26.7078
26.7108
26.7142
26.7177
26.7213
26.7248
26.7283
26.7316
26.7346
26.7374
26.7398
26.7419
26.7435
26.7446
26.7452
25.8547
25.8549
25.8554
25.8561
25.857
25.8581
25.8593
25.8606
25.862
25.8634
25.8649
25.8663
25.8676
25.8688
25.8699
25.8709
25.8717
25.8722
25.8726
25.8728
25.385
25.3851
25.3853
25.3856
25.386
25.3865
25.387
25.3876
25.3883
25.389
25.3897
25.3903
25.391
25.3916
25.3921
25.3926
25.3929
25.3932
25.3934
25.3934
24.945
24.945
24.945
24.945
24.9449
24.9449
24.9449
24.9448
24.9448
24.9448
24.9447
24.9447
24.9447
24.9446
24.9446
24.9446
24.9445
24.9445
24.9444
24.9444
24.6814
24.6813
24.6812
24.681
24.6808
24.6805
24.6802
24.6799
24.6796
24.6793
24.679
24.6787
24.6784
24.6781
24.6779
24.6776
24.6774
24.6773
24.6771
24.6771
24.413
24.4129
24.4128
24.4125
24.4122
24.4118
24.4114
24.411
24.4105
24.41
24.4095
24.4091
24.4086
24.4082
24.4078
24.4075
24.4072
24.407
24.4068
24.4067
24.2861
24.286
24.2858
24.2856
24.2853
24.2849
24.2845
24.2841
24.2836
24.2831
24.2827
24.2822
24.2817
24.2813
24.2809
24.2806
24.2803
24.28
24.2798
24.2797
24.173
24.1729
24.1727
24.1725
24.1722
24.1719
24.1715
24.1711
24.1706
24.1702
24.1697
24.1692
24.1688
24.1684
24.168
24.1676
24.1673
24.1671
24.1669
24.1668
24.1414
24.1413
24.1412
24.1409
24.1407
24.1403
24.1399
24.1395
24.1391
24.1386
24.1382
24.1377
24.1373
24.1368
24.1364
24.1361
24.1358
24.1355
24.1353
24.1352
24.1767
24.1767
24.1765
24.1763
24.176
24.1757
24.1753
24.1749
24.1744
24.174
24.1735
24.1731
24.1726
24.1722
24.1718
24.1714
24.171
24.1707
24.1705
24.1704
24.2089
24.2088
24.2087
24.2085
24.2082
24.2079
24.2075
24.2071
24.2066
24.2061
24.2057
24.2052
24.2047
24.2043
24.2039
24.2035
24.2031
24.2028
24.2025
24.2024
24.3884
24.3883
24.3882
24.388
24.3878
24.3875
24.3872
24.3868
24.3864
24.386
24.3856
24.3852
24.3848
24.3844
24.384
24.3836
24.3832
24.383
24.3827
24.3826
24.5007
24.5006
24.5005
24.5004
24.5002
24.4999
24.4997
24.4994
24.499
24.4987
24.4983
24.498
24.4976
24.4972
24.4969
24.4965
24.4962
24.4959
24.4957
24.4955
24.8268
24.8268
24.8267
24.8267
24.8266
24.8265
24.8263
24.8262
24.826
24.8258
24.8257
24.8255
24.8253
24.8251
24.8249
24.8247
24.8245
24.8242
24.8241
24.824
25.0576
25.0576
25.0577
25.0577
25.0577
25.0577
25.0577
25.0577
25.0577
25.0577
25.0577
25.0577
25.0577
25.0576
25.0575
25.0574
25.0573
25.0571
25.057
25.0569
25.5523
25.5523
25.5525
25.5526
25.5529
25.5531
25.5535
25.5538
25.5542
25.5546
25.555
25.5553
25.5557
25.556
25.5563
25.5565
25.5566
25.5567
25.5567
25.5567
25.9598
25.9599
25.9602
25.9605
25.961
25.9616
25.9622
25.963
25.9637
25.9645
25.9653
25.9661
25.9669
25.9676
25.9682
25.9688
25.9692
25.9694
25.9696
25.9696
26.6606
26.6609
26.6614
26.6621
26.663
26.6641
26.6654
26.6668
26.6683
26.6698
26.6714
26.673
26.6745
26.676
26.6773
26.6784
26.6794
26.6801
26.6805
26.6807
27.3222
27.3226
27.3233
27.3244
27.3257
27.3274
27.3293
27.3313
27.3335
27.3358
27.3382
27.3405
27.3428
27.3449
27.3469
27.3487
27.3502
27.3513
27.3521
27.3525
28.6132
28.614
28.6156
28.6179
28.6209
28.6246
28.6288
28.6333
28.6382
28.6432
28.6482
28.6531
28.6578
28.6623
28.6664
28.6702
28.6735
28.6763
28.6784
28.6796
33.6804
33.681
33.6822
33.684
33.6862
33.6889
33.692
33.6953
33.6988
33.7024
33.7061
33.7096
33.713
33.7162
33.7191
33.7216
33.7238
33.7256
33.7269
33.7275
32.7685
32.7688
32.7693
32.77
32.7709
32.772
32.7732
32.7746
32.776
32.7774
32.7789
32.7804
32.7818
32.783
32.7842
32.7852
32.7861
32.7867
32.7871
32.7873
32.2894
32.2895
32.2897
32.2901
32.2906
32.2911
32.2918
32.2925
32.2933
32.2941
32.2949
32.2956
32.2964
32.2971
32.2977
32.2983
32.2987
32.299
32.2992
32.2993
31.8
31.8001
31.8001
31.8002
31.8003
31.8004
31.8006
31.8008
31.8009
31.8011
31.8013
31.8015
31.8017
31.8018
31.802
31.8021
31.8021
31.8022
31.8021
31.8021
31.5094
31.5094
31.5094
31.5094
31.5093
31.5093
31.5092
31.5091
31.5091
31.509
31.5089
31.5089
31.5088
31.5088
31.5087
31.5086
31.5085
31.5084
31.5084
31.5083
31.2065
31.2065
31.2064
31.2063
31.2061
31.2059
31.2058
31.2055
31.2053
31.2051
31.2049
31.2047
31.2044
31.2042
31.204
31.2038
31.2036
31.2034
31.2033
31.2033
31.0615
31.0615
31.0614
31.0613
31.0611
31.0609
31.0607
31.0605
31.0603
31.06
31.0598
31.0595
31.0593
31.059
31.0588
31.0586
31.0583
31.0582
31.058
31.058
30.9363
30.9362
30.9361
30.936
30.9359
30.9357
30.9355
30.9353
30.935
30.9348
30.9345
30.9342
30.934
30.9337
30.9335
30.9332
30.933
30.9328
30.9326
30.9326
30.9028
30.9027
30.9026
30.9025
30.9024
30.9022
30.902
30.9017
30.9015
30.9012
30.9009
30.9006
30.9003
30.9
30.8997
30.8994
30.8992
30.8989
30.8988
30.8987
30.9465
30.9464
30.9464
30.9462
30.9461
30.9459
30.9456
30.9454
30.9451
30.9448
30.9445
30.9442
30.9439
30.9435
30.9432
30.9429
30.9426
30.9423
30.9421
30.942
30.9935
30.9934
30.9934
30.9932
30.9931
30.9929
30.9926
30.9924
30.9921
30.9918
30.9914
30.9911
30.9908
30.9904
30.99
30.9897
30.9893
30.989
30.9888
30.9886
31.2029
31.2028
31.2028
31.2027
31.2025
31.2024
31.2022
31.202
31.2017
31.2015
31.2012
31.2009
31.2006
31.2003
31.2
31.1996
31.1993
31.199
31.1988
31.1986
31.3476
31.3476
31.3476
31.3475
31.3474
31.3473
31.3472
31.347
31.3468
31.3466
31.3464
31.3462
31.346
31.3457
31.3454
31.3451
31.3447
31.3444
31.3442
31.344
31.7248
31.7248
31.7248
31.7248
31.7248
31.7249
31.7249
31.7249
31.7249
31.7249
31.7249
31.7249
31.7248
31.7247
31.7246
31.7244
31.7242
31.724
31.7238
31.7237
32.0039
32.0039
32.004
32.0041
32.0042
32.0044
32.0046
32.0048
32.005
32.0052
32.0054
32.0055
32.0056
32.0057
32.0057
32.0057
32.0056
32.0054
32.0053
32.0052
32.5677
32.5678
32.568
32.5683
32.5687
32.5691
32.5696
32.5702
32.5707
32.5713
32.5719
32.5725
32.5731
32.5735
32.5739
32.5743
32.5745
32.5746
32.5746
32.5746
33.0311
33.0313
33.0316
33.0321
33.0328
33.0335
33.0344
33.0353
33.0363
33.0374
33.0384
33.0395
33.0405
33.0414
33.0422
33.0429
33.0434
33.0437
33.0439
33.0439
33.8073
33.8076
33.8081
33.8089
33.81
33.8113
33.8127
33.8143
33.816
33.8178
33.8197
33.8215
33.8233
33.825
33.8266
33.828
33.8291
33.83
33.8305
33.8308
34.5161
34.5165
34.5173
34.5185
34.52
34.5218
34.5239
34.5262
34.5287
34.5313
34.5339
34.5366
34.5392
34.5417
34.544
34.5461
34.5479
34.5493
34.5502
34.5506
35.843
35.8438
35.8453
35.8476
35.8507
35.8543
35.8585
35.8632
35.8682
35.8734
35.8786
35.8839
35.889
35.894
35.8987
35.9032
35.9072
35.9107
35.9134
35.9151
40.4501
40.4507
40.4519
40.4536
40.4559
40.4587
40.4618
40.4652
40.4688
40.4725
40.4763
40.48
40.4835
40.4869
40.49
40.4927
40.4951
40.4971
40.4985
40.4993
39.4974
39.4976
39.498
39.4987
39.4995
39.5005
39.5016
39.5028
39.5041
39.5055
39.5069
39.5082
39.5095
39.5108
39.5119
39.5128
39.5136
39.5142
39.5146
39.5147
39.0094
39.0095
39.0098
39.0103
39.0108
39.0115
39.0123
39.0131
39.014
39.0149
39.0159
39.0168
39.0177
39.0185
39.0193
39.0199
39.0204
39.0208
39.0211
39.0212
38.5193
38.5194
38.5195
38.5197
38.52
38.5203
38.5207
38.5211
38.5215
38.5219
38.5224
38.5228
38.5232
38.5236
38.5239
38.5242
38.5243
38.5245
38.5245
38.5245
38.2079
38.208
38.208
38.2082
38.2083
38.2085
38.2086
38.2088
38.2091
38.2093
38.2095
38.2097
38.2099
38.2101
38.2102
38.2103
38.2104
38.2104
38.2104
38.2104
37.8947
37.8947
37.8948
37.8948
37.8949
37.8949
37.895
37.8951
37.8951
37.8952
37.8953
37.8953
37.8954
37.8954
37.8954
37.8954
37.8953
37.8953
37.8952
37.8952
37.7369
37.7369
37.7369
37.7369
37.737
37.737
37.737
37.7371
37.7371
37.7371
37.7372
37.7372
37.7372
37.7371
37.7371
37.737
37.737
37.7369
37.7368
37.7368
37.6084
37.6084
37.6085
37.6085
37.6085
37.6085
37.6085
37.6086
37.6086
37.6086
37.6086
37.6086
37.6085
37.6085
37.6084
37.6083
37.6082
37.6081
37.608
37.6079
37.5744
37.5744
37.5744
37.5744
37.5744
37.5744
37.5744
37.5744
37.5744
37.5743
37.5743
37.5742
37.5741
37.574
37.5739
37.5737
37.5736
37.5734
37.5733
37.5732
37.6266
37.6266
37.6266
37.6266
37.6266
37.6265
37.6265
37.6265
37.6264
37.6264
37.6263
37.6262
37.626
37.6259
37.6257
37.6255
37.6252
37.625
37.6249
37.6248
37.6864
37.6864
37.6864
37.6864
37.6863
37.6863
37.6863
37.6862
37.6861
37.6861
37.6859
37.6858
37.6856
37.6854
37.6852
37.6849
37.6846
37.6843
37.6841
37.684
37.9182
37.9182
37.9182
37.9183
37.9183
37.9183
37.9183
37.9183
37.9182
37.9182
37.9181
37.918
37.9179
37.9177
37.9175
37.9172
37.9169
37.9167
37.9164
37.9163
38.0895
38.0895
38.0896
38.0896
38.0897
38.0897
38.0898
38.0899
38.0899
38.0899
38.0899
38.0899
38.0898
38.0896
38.0894
38.0892
38.0889
38.0886
38.0883
38.0881
38.4996
38.4997
38.4998
38.4999
38.5001
38.5003
38.5005
38.5007
38.501
38.5012
38.5014
38.5015
38.5016
38.5017
38.5016
38.5015
38.5014
38.5012
38.501
38.5009
38.8155
38.8156
38.8157
38.816
38.8162
38.8166
38.817
38.8174
38.8178
38.8182
38.8186
38.819
38.8193
38.8195
38.8196
38.8196
38.8196
38.8194
38.8193
38.8192
39.4081
39.4083
39.4086
39.409
39.4095
39.4101
39.4108
39.4116
39.4124
39.4133
39.4141
39.4149
39.4157
39.4164
39.4169
39.4173
39.4176
39.4178
39.4179
39.4179
39.912
39.9122
39.9127
39.9133
39.914
39.915
39.916
39.9172
39.9185
39.9198
39.9211
39.9223
39.9236
39.9247
39.9257
39.9265
39.9271
39.9276
39.9278
39.9279
40.697
40.6973
40.6979
40.6988
40.7
40.7015
40.7031
40.7049
40.7069
40.709
40.7111
40.7132
40.7153
40.7173
40.7191
40.7207
40.7221
40.7232
40.7239
40.7243
41.4471
41.4475
41.4484
41.4497
41.4513
41.4533
41.4555
41.4581
41.4608
41.4637
41.4666
41.4696
41.4725
41.4753
41.478
41.4804
41.4825
41.4842
41.4854
41.4859
42.7412
42.7419
42.7433
42.7455
42.7483
42.7518
42.7558
42.7603
42.7651
42.7702
42.7755
42.7808
42.7862
42.7915
42.7967
42.8017
42.8062
42.8102
42.8134
42.8154
47.1036
47.1042
47.1052
47.1067
47.1087
47.1111
47.1138
47.1167
47.1199
47.1232
47.1265
47.1299
47.1331
47.1362
47.139
47.1416
47.1438
47.1456
47.147
47.1477
46.1858
46.1861
46.1866
46.1874
46.1884
46.1895
46.1909
46.1924
46.194
46.1956
46.1973
46.1989
46.2005
46.202
46.2033
46.2045
46.2054
46.2062
46.2067
46.2069
45.6668
45.667
45.6673
45.6679
45.6686
45.6695
45.6704
45.6715
45.6726
45.6738
45.675
45.6762
45.6773
45.6784
45.6793
45.6802
45.6809
45.6814
45.6817
45.6819
45.1488
45.149
45.1492
45.1495
45.15
45.1505
45.1512
45.1518
45.1525
45.1533
45.154
45.1548
45.1554
45.1561
45.1566
45.1571
45.1574
45.1577
45.1579
45.1579
44.8231
44.8232
44.8233
44.8236
44.8239
44.8243
44.8248
44.8253
44.8258
44.8264
44.8269
44.8274
44.8279
44.8284
44.8288
44.8291
44.8293
44.8295
44.8296
44.8296
44.4944
44.4944
44.4946
44.4948
44.495
44.4953
44.4957
44.4961
44.4965
44.4969
44.4973
44.4976
44.498
44.4983
44.4985
44.4987
44.4989
44.499
44.499
44.499
44.3274
44.3274
44.3275
44.3277
44.328
44.3282
44.3285
44.3289
44.3292
44.3296
44.3299
44.3303
44.3306
44.3308
44.331
44.3312
44.3313
44.3313
44.3313
44.3313
44.1963
44.1963
44.1964
44.1966
44.1968
44.1971
44.1974
44.1977
44.198
44.1983
44.1986
44.1989
44.1992
44.1994
44.1995
44.1996
44.1997
44.1997
44.1997
44.1997
44.1626
44.1627
44.1628
44.163
44.1632
44.1634
44.1636
44.1639
44.1642
44.1644
44.1647
44.1649
44.1651
44.1652
44.1653
44.1653
44.1653
44.1653
44.1652
44.1652
44.2217
44.2217
44.2218
44.222
44.2221
44.2223
44.2226
44.2228
44.223
44.2233
44.2235
44.2236
44.2238
44.2238
44.2238
44.2238
44.2237
44.2236
44.2235
44.2234
44.2929
44.2929
44.293
44.2932
44.2933
44.2935
44.2937
44.2939
44.2941
44.2943
44.2945
44.2946
44.2947
44.2947
44.2946
44.2945
44.2943
44.2941
44.294
44.2938
44.5419
44.542
44.5421
44.5423
44.5424
44.5427
44.5429
44.5432
44.5434
44.5436
44.5438
44.544
44.5441
44.5441
44.5441
44.5439
44.5438
44.5436
44.5434
44.5433
44.7359
44.736
44.7361
44.7363
44.7366
44.7368
44.7371
44.7374
44.7377
44.738
44.7383
44.7385
44.7386
44.7386
44.7386
44.7384
44.7382
44.738
44.7378
44.7376
45.1733
45.1734
45.1736
45.1738
45.1742
45.1746
45.175
45.1755
45.176
45.1765
45.1769
45.1773
45.1776
45.1778
45.178
45.178
45.1779
45.1778
45.1776
45.1775
45.5191
45.5192
45.5195
45.5198
45.5203
45.5208
45.5214
45.5221
45.5227
45.5234
45.524
45.5246
45.5251
45.5255
45.5257
45.5259
45.5259
45.5258
45.5257
45.5256
46.1482
46.1484
46.1488
46.1493
46.15
46.1508
46.1517
46.1527
46.1537
46.1548
46.1559
46.1569
46.1578
46.1587
46.1594
46.1599
46.1603
46.1606
46.1607
46.1607
46.6817
46.6819
46.6824
46.6831
46.684
46.6851
46.6863
46.6876
46.6891
46.6906
46.6921
46.6935
46.6949
46.6962
46.6973
46.6982
46.6989
46.6994
46.6996
46.6997
47.4967
47.497
47.4977
47.4987
47.4999
47.5015
47.5032
47.5052
47.5073
47.5095
47.5117
47.514
47.5163
47.5184
47.5204
47.5222
47.5237
47.5249
47.5257
47.5261
48.2336
48.234
48.2348
48.2361
48.2376
48.2396
48.2418
48.2443
48.2469
48.2498
48.2527
48.2557
48.2586
48.2615
48.2641
48.2666
48.2686
48.2703
48.2714
48.2719
49.6682
49.6689
49.6703
49.6725
49.6754
49.6789
49.683
49.6876
49.6927
49.6981
49.7037
49.7095
49.7155
49.7215
49.7275
49.7333
49.7387
49.7435
49.7473
49.7496
53.6357
53.6362
53.6371
53.6386
53.6404
53.6426
53.6451
53.6479
53.6509
53.654
53.6572
53.6604
53.6635
53.6665
53.6693
53.6718
53.674
53.6757
53.6769
53.6774
52.7035
52.7038
52.7043
52.7051
52.7061
52.7073
52.7087
52.7103
52.7119
52.7137
52.7154
52.7171
52.7188
52.7203
52.7217
52.723
52.724
52.7247
52.7253
52.7256
52.181
52.1813
52.1817
52.1824
52.1832
52.1842
52.1854
52.1867
52.188
52.1894
52.1909
52.1923
52.1936
52.1949
52.196
52.197
52.1979
52.1985
52.199
52.1992
51.6612
51.6614
51.6617
51.6622
51.6629
51.6636
51.6645
51.6655
51.6665
51.6675
51.6686
51.6696
51.6706
51.6715
51.6723
51.673
51.6735
51.674
51.6743
51.6744
51.325
51.3252
51.3255
51.3259
51.3265
51.3271
51.3279
51.3287
51.3296
51.3305
51.3314
51.3322
51.3331
51.3338
51.3345
51.335
51.3355
51.3358
51.3361
51.3362
50.9927
50.9928
50.9931
50.9934
50.9939
50.9945
50.9952
50.9959
50.9966
50.9974
50.9982
50.9989
50.9996
51.0002
51.0008
51.0012
51.0016
51.0019
51.002
51.0021
50.8195
50.8196
50.8199
50.8202
50.8207
50.8212
50.8219
50.8225
50.8232
50.824
50.8247
50.8254
50.826
50.8266
50.8271
50.8275
50.8278
50.828
50.8282
50.8282
50.6895
50.6897
50.6899
50.6902
50.6907
50.6912
50.6918
50.6924
50.6931
50.6938
50.6945
50.6951
50.6957
50.6962
50.6966
50.697
50.6973
50.6974
50.6975
50.6976
50.6569
50.657
50.6572
50.6576
50.658
50.6585
50.659
50.6596
50.6602
50.6609
50.6615
50.662
50.6625
50.663
50.6633
50.6636
50.6638
50.6639
50.664
50.664
50.7219
50.722
50.7222
50.7225
50.7229
50.7234
50.7239
50.7245
50.725
50.7256
50.7262
50.7267
50.7271
50.7275
50.7278
50.728
50.7281
50.7281
50.7281
50.7281
50.8024
50.8025
50.8027
50.803
50.8034
50.8038
50.8043
50.8048
50.8054
50.8059
50.8064
50.8069
50.8072
50.8075
50.8077
50.8078
50.8078
50.8078
50.8077
50.8077
51.0641
51.0642
51.0644
51.0647
51.0651
51.0656
51.0661
51.0667
51.0672
51.0678
51.0683
51.0688
51.0692
51.0695
51.0697
51.0698
51.0698
51.0698
51.0697
51.0696
51.2762
51.2763
51.2766
51.2769
51.2774
51.2779
51.2784
51.279
51.2797
51.2803
51.2808
51.2813
51.2817
51.282
51.2822
51.2823
51.2822
51.2821
51.282
51.2819
51.731
51.7312
51.7315
51.7319
51.7324
51.7331
51.7338
51.7345
51.7353
51.7361
51.7368
51.7375
51.7381
51.7385
51.7389
51.7391
51.7392
51.7393
51.7393
51.7392
52.101
52.1012
52.1015
52.102
52.1026
52.1034
52.1042
52.1051
52.1061
52.107
52.1079
52.1087
52.1095
52.1101
52.1105
52.1108
52.111
52.1111
52.1111
52.111
52.7462
52.7464
52.7469
52.7475
52.7484
52.7494
52.7505
52.7517
52.753
52.7544
52.7557
52.757
52.7582
52.7593
52.7602
52.7609
52.7615
52.762
52.7622
52.7623
53.3067
53.307
53.3075
53.3083
53.3093
53.3105
53.3119
53.3135
53.3151
53.3168
53.3185
53.3202
53.3217
53.3232
53.3245
53.3255
53.3264
53.327
53.3273
53.3275
54.1294
54.1297
54.1304
54.1315
54.1329
54.1345
54.1364
54.1385
54.1408
54.1432
54.1457
54.1482
54.1507
54.1531
54.1553
54.1573
54.159
54.1604
54.1614
54.1619
54.92
54.9204
54.9212
54.9225
54.9242
54.9262
54.9285
54.931
54.9338
54.9368
54.9399
54.943
54.9461
54.9491
54.952
54.9546
54.9568
54.9586
54.9598
54.9603
56.2965
56.2971
56.2984
56.3004
56.3031
56.3063
56.3102
56.3146
56.3194
56.3246
56.3301
56.3359
56.3419
56.3481
56.3542
56.3601
56.3656
56.3704
56.3741
56.3763
60.0796
60.0801
60.081
60.0823
60.084
60.0859
60.0882
60.0908
60.0935
60.0964
60.0993
60.1023
60.1052
60.108
60.1106
60.1129
60.1148
60.1163
60.1171
60.1172
59.1455
59.1457
59.1463
59.1472
59.1483
59.1496
59.1511
59.1528
59.1546
59.1565
59.1584
59.1603
59.1621
59.1638
59.1653
59.1667
59.1678
59.1687
59.1694
59.1699
58.6108
58.6111
58.6116
58.6123
58.6133
58.6145
58.6159
58.6174
58.619
58.6207
58.6224
58.624
58.6256
58.6271
58.6285
58.6297
58.6307
58.6315
58.6321
58.6324
58.0795
58.0797
58.0802
58.0808
58.0817
58.0827
58.0838
58.0851
58.0865
58.0879
58.0893
58.0906
58.0919
58.0931
58.0942
58.0952
58.096
58.0966
58.0971
58.0974
57.7347
57.7349
57.7353
57.7359
57.7367
57.7377
57.7387
57.7399
57.7411
57.7424
57.7437
57.745
57.7462
57.7473
57.7483
57.7491
57.7498
57.7504
57.7508
57.751
57.3972
57.3974
57.3978
57.3983
57.3991
57.3999
57.4009
57.402
57.4032
57.4044
57.4056
57.4067
57.4078
57.4088
57.4097
57.4104
57.4111
57.4116
57.4119
57.4121
57.219
57.2192
57.2196
57.2202
57.2209
57.2217
57.2227
57.2237
57.2248
57.226
57.2271
57.2282
57.2293
57.2302
57.231
57.2318
57.2324
57.2328
57.2331
57.2332
57.0904
57.0905
57.0909
57.0914
57.0921
57.0929
57.0939
57.0949
57.096
57.0971
57.0982
57.0992
57.1002
57.1011
57.1019
57.1025
57.1031
57.1035
57.1037
57.1039
57.0585
57.0587
57.059
57.0596
57.0602
57.061
57.0619
57.0629
57.0639
57.0649
57.0659
57.0669
57.0678
57.0686
57.0693
57.0699
57.0704
57.0707
57.0709
57.071
57.1282
57.1284
57.1288
57.1293
57.1299
57.1307
57.1315
57.1324
57.1334
57.1344
57.1354
57.1363
57.1371
57.1379
57.1385
57.139
57.1394
57.1396
57.1398
57.1399
57.2162
57.2164
57.2167
57.2172
57.2179
57.2186
57.2194
57.2203
57.2213
57.2222
57.2231
57.224
57.2247
57.2254
57.2259
57.2263
57.2266
57.2268
57.227
57.227
57.4876
57.4877
57.4881
57.4886
57.4892
57.49
57.4908
57.4917
57.4927
57.4937
57.4946
57.4954
57.4962
57.4969
57.4974
57.4978
57.4981
57.4983
57.4984
57.4985
57.7147
57.7149
57.7152
57.7158
57.7164
57.7172
57.7181
57.719
57.72
57.721
57.7219
57.7228
57.7235
57.7241
57.7246
57.725
57.7253
57.7254
57.7255
57.7256
58.1841
58.1843
58.1847
58.1853
58.186
58.1869
58.1879
58.189
58.1901
58.1912
58.1923
58.1933
58.1942
58.195
58.1957
58.1962
58.1966
58.1969
58.1971
58.1971
58.5739
58.5741
58.5746
58.5752
58.576
58.577
58.5781
58.5793
58.5805
58.5817
58.5829
58.5841
58.5851
58.586
58.5867
58.5872
58.5877
58.5879
58.5881
58.5882
59.2384
59.2387
59.2392
59.24
59.241
59.2422
59.2435
59.245
59.2466
59.2482
59.2498
59.2513
59.2528
59.2541
59.2553
59.2563
59.2571
59.2577
59.2582
59.2584
59.8196
59.8199
59.8205
59.8214
59.8225
59.8239
59.8254
59.8271
59.8289
59.8308
59.8326
59.8345
59.8362
59.8378
59.8392
59.8404
59.8414
59.8421
59.8426
59.8428
60.6649
60.6653
60.666
60.6672
60.6686
60.6703
60.6724
60.6746
60.677
60.6796
60.6822
60.6849
60.6875
60.6901
60.6924
60.6946
60.6964
60.6979
60.699
60.6995
61.4561
61.4566
61.4574
61.4587
61.4603
61.4623
61.4646
61.4671
61.4699
61.4728
61.4759
61.479
61.4821
61.485
61.4878
61.4903
61.4925
61.4942
61.4954
61.4961
62.9211
62.9217
62.9229
62.9248
62.9273
62.9304
62.9341
62.9383
62.943
62.9481
62.9536
62.9594
62.9655
62.9717
62.9778
62.9837
62.989
62.9934
62.9966
62.9983
66.4117
66.4121
66.4129
66.4141
66.4156
66.4175
66.4196
66.4219
66.4245
66.4272
66.4299
66.4327
66.4355
66.4381
66.4405
66.4425
66.4442
66.4452
66.4457
66.4456
65.4691
65.4694
65.47
65.4709
65.4721
65.4736
65.4752
65.477
65.479
65.481
65.483
65.4851
65.487
65.4889
65.4905
65.492
65.4933
65.4943
65.4952
65.4958
64.9288
64.9291
64.9297
64.9306
64.9318
64.9332
64.9347
64.9365
64.9384
64.9403
64.9423
64.9442
64.9461
64.9478
64.9494
64.9508
64.952
64.953
64.9537
64.9541
64.3957
64.396
64.3966
64.3974
64.3984
64.3997
64.4012
64.4028
64.4045
64.4063
64.4081
64.4098
64.4115
64.413
64.4144
64.4157
64.4168
64.4177
64.4183
64.4187
64.0437
64.044
64.0445
64.0453
64.0464
64.0476
64.049
64.0506