/*--------------------------------*- C++ -*----------------------------------*\
| =========                 |                                                 |
| \\      /  F ield         | OpenFOAM: The Open Source CFD Toolbox           |
|  \\    /   O peration     | Version:  2212                                  |
|   \\  /    A nd           | Website:  www.openfoam.com                      |
|    \\/     M anipulation  |                                                 |
\*---------------------------------------------------------------------------*/
FoamFile
{
    version     2.0;
    format      ascii;
    arch        "LSB;label=32;scalar=64";
    class       volVectorField;
    location    "0.0299";
    object      U;
}
// * * * * * * * * * * * * * * * * * * * * * * * * * * * * * * * * * * * * * //

dimensions      [0 1 -1 0 0 0 0];

internalField   nonuniform List<vector> 
2308
(
(23.1883 -4.21571 -7.44012e-16)
(-11.0693 -13.0538 0)
(0.277122 -7.76219 6.15935e-17)
(-22.4523 -47.3047 -2.29749e-16)
(-4.4615 68.3943 0)
(-17.9701 67.6198 -1.12207e-18)
(17.8999 66.3399 1.83534e-19)
(18.3105 55.9556 -3.33589e-16)
(1.2429 62.2773 6.1659e-16)
(4.46579 48.6341 -6.76694e-17)
(5.37922 59.0244 1.22002e-16)
(2.16703 71.8695 -1.84378e-16)
(2.61806 80.448 9.09432e-17)
(1.83065 90.7778 -4.71909e-17)
(1.70516 97.4809 7.95982e-18)
(1.09216 100.297 6.59016e-17)
(0.394685 101.666 8.79282e-18)
(1.93155 103.473 2.10417e-17)
(1.66057 102.736 2.75489e-17)
(1.39871 101.48 2.05065e-18)
(0.830713 98.3307 1.58181e-17)
(0.376305 91.4032 -4.52292e-17)
(-2.01793 81.0974 5.79477e-17)
(-1.10644 71.5681 -2.59373e-17)
(-3.22066 61.9575 -1.11531e-16)
(-5.33302 51.2262 -5.23962e-17)
(-2.14407 40.6575 2.6317e-17)
(-2.12082 31.1869 -2.86142e-17)
(10.6926 78.5825 0)
(-0.231514 102.177 -1.94084e-16)
(-1.70308 22.6823 1.50275e-18)
(-1.38253 16.1094 3.79452e-19)
(-1.15842 11.1438 -6.39353e-18)
(-1.0793 7.39137 5.97587e-18)
(-1.09727 4.52266 -6.24597e-18)
(-1.19115 2.43231 5.81479e-18)
(-1.33042 0.910774 -2.85403e-18)
(-1.46173 -0.209459 2.81989e-18)
(-1.55606 -0.99556 -2.76755e-18)
(-1.62615 -1.57129 1.36863e-18)
(-1.64758 -2.02514 2.68959e-18)
(-1.60902 -2.3785 3.97305e-18)
(-1.49478 -2.59952 -7.83704e-18)
(-1.29714 -2.65065 5.15576e-18)
(-1.01621 -2.55484 2.53255e-18)
(-0.487466 -2.14373 -2.54518e-18)
(-0.71533 -2.41038 2.57484e-18)
(-0.858702 -2.48579 -3.92049e-18)
(-0.914147 -2.37727 -4.31628e-18)
(-0.88206 -2.11677 6.73019e-18)
(-0.754368 -1.74201 -1.36701e-18)
(-0.51397 -1.24091 2.786e-18)
(-0.158467 -0.557973 7.14322e-19)
(0.344441 0.457956 -4.29547e-18)
(0.972597 1.91354 -1.46033e-18)
(1.72044 3.93156 2.95084e-18)
(2.62272 6.6745 0)
(3.67113 10.2101 -3.77256e-19)
(4.84297 14.7047 -1.26091e-17)
(6.20762 20.5379 -4.40423e-17)
(7.57148 28.5391 5.25946e-17)
(8.29816 36.0413 5.50828e-17)
(11.7815 42.7976 6.41457e-17)
(11.1257 51.6912 -1.91396e-20)
(11.4774 59.3446 7.32341e-17)
(9.23663 67.5959 -1.38108e-16)
(5.58239 75.7928 -3.19527e-17)
(3.28954 84.685 0)
(2.03018 91.3129 0)
(0.117463 94.3398 0)
(-2.06408 95.6633 0)
(-0.635983 -2.3714 -1.24942e-18)
(-0.142991 -1.74544 1.25338e-18)
(3.35602 97.5682 -9.75459e-17)
(1.47462 95.7694 -1.96944e-18)
(-0.484593 92.7349 7.61713e-18)
(-2.23799 86.0136 0)
(-5.41831 76.2198 -1.41989e-17)
(-7.77057 67.3941 -1.38364e-17)
(-10.1053 57.6589 6.79905e-18)
(-11.9544 48.0332 2.70067e-17)
(-11.492 38.396 0)
(-10.5795 29.2549 5.84461e-20)
(-9.27691 21.5778 4.79598e-20)
(-7.67405 15.3166 -6.12474e-18)
(-6.16144 10.5349 9.06544e-18)
(-4.94535 6.98326 -1.85009e-20)
(-4.06998 4.29628 -5.16484e-18)
(-3.47683 2.33585 0)
(-3.0874 0.889993 -7.15201e-19)
(-2.8192 -0.184426 4.22141e-18)
(-2.64197 -0.949304 -5.54778e-18)
(-2.51834 -1.53064 4.15558e-21)
(-2.40043 -2.01275 5.38541e-18)
(-2.26757 -2.41734 0)
(-2.09745 -2.70935 5.22202e-18)
(-1.88437 -2.83637 -1.96836e-21)
(-1.64219 -2.81442 -2.53739e-18)
(2.68547 102.793 -8.57894e-17)
(-1.41305 -2.69702 -2.49416e-18)
(-0.6443 101.34 8.73107e-17)
(-3.72171 96.622 -3.13496e-20)
(0.435228 -1.54784 -2.51172e-18)
(0.236926 -1.95959 3.18395e-18)
(0.092836 -2.27023 0)
(-0.00394171 -2.4231 -9.86986e-19)
(-0.0304556 -2.41361 2.33007e-18)
(0.0386577 -2.27187 2.70906e-18)
(0.231576 -2.03764 -2.74767e-18)
(0.581851 -1.69618 0)
(1.11576 -1.19314 -7.0761e-19)
(1.87184 -0.360326 1.44027e-18)
(2.90933 0.903126 2.12762e-21)
(4.20281 2.66443 -1.48215e-18)
(5.82615 5.0823 0)
(7.8182 8.16501 2.29324e-18)
(10.1407 11.9345 -9.23137e-18)
(12.6512 16.5928 -6.26336e-18)
(14.86 22.4324 2.57875e-17)
(16.7799 28.7533 9.70198e-17)
(18.3724 34.7846 7.38752e-18)
(17.836 42.0276 7.12941e-17)
(16.1669 48.9008 -3.26931e-17)
(12.8754 56.1214 0)
(8.61071 63.4497 0)
(4.38995 71.2746 0)
(1.76281 77.8853 1.12799e-16)
(-1.24194 80.841 -1.33061e-16)
(-4.68631 82.5369 1.36818e-16)
(24.2464 41.83 -2.68544e-16)
(-26.3414 51.9146 0)
(-17.017 73.5551 0)
(-21.0085 63.7383 0)
(7.98844 85.3499 1.9908e-16)
(5.1858 84.7192 5.56289e-17)
(1.55954 83.0786 -1.67492e-20)
(-1.95649 80.2618 -9.2562e-19)
(-5.15317 73.5374 9.01348e-19)
(-9.56235 64.6245 7.08083e-18)
(-13.6712 56.4097 -1.39401e-17)
(-17.0988 47.8426 -4.57505e-20)
(-19.5291 39.5959 0)
(-19.5855 31.5593 2.93417e-17)
(-18.3802 23.9808 1.90922e-17)
(-16.09 17.6283 -3.10633e-18)
(-13.2825 12.4954 3.07222e-18)
(-10.6849 8.55363 0)
(-8.52208 5.56962 0)
(-6.90578 3.30178 -3.69034e-19)
(-5.722 1.65082 0)
(-4.83449 0.417591 2.14963e-18)
(-4.20126 -0.499129 -2.07949e-21)
(-3.75379 -1.14784 -1.39299e-18)
(-3.42442 -1.66588 0)
(-3.15867 -2.11985 -1.34965e-18)
(-2.90698 -2.52424 1.99402e-18)
(-2.65869 -2.84037 -3.2743e-18)
(-2.40694 -3.00415 0)
(-2.17117 -2.99005 -5.06812e-18)
(-2.0019 -2.79821 1.24645e-18)
(-2.00444 -2.49043 -3.63709e-21)
(-1.28172 -2.69219 0)
(-0.150053 -2.31949 -6.14584e-19)
(0.398872 -1.19326 -1.99706e-18)
(13.1048 61.2244 2.91729e-16)
(0.730778 -0.840378 1.54352e-19)
(28.7114 27.3618 -8.48338e-16)
(33.4731 5.75867 -1.96022e-16)
(-4.4221 97.1239 0)
(17.979 40.8729 2.86314e-16)
(1.86051 71.5128 -5.82423e-16)
(4.04192 100.671 3.60026e-17)
(-7.63006 84.0246 -2.08619e-16)
(-2.39768 -2.79313 -1.21175e-18)
(-1.40379 -3.25202 -1.2097e-18)
(0.530187 -2.89255 -1.51262e-19)
(1.31734 -1.57673 2.42607e-18)
(1.29524 -1.67395 1.51944e-19)
(1.925 -2.42453 0)
(1.66295 -1.05169 1.23596e-18)
(1.52027 -1.53015 2.51962e-18)
(1.39092 -1.80513 -6.34595e-19)
(1.28296 -2.09454 -2.5963e-18)
(1.18973 -2.31103 -2.96903e-18)
(1.15447 -2.41395 4.01522e-18)
(1.21785 -2.4153 1.36144e-18)
(1.42402 -2.34228 -2.76848e-18)
(1.81024 -2.19577 2.10698e-18)
(2.41823 -1.93248 -6.22759e-19)
(3.30913 -1.43614 0)
(4.58382 -0.522294 0)
(6.2746 0.886837 0)
(8.43115 2.80893 3.03251e-18)
(11.107 5.22835 -1.53811e-18)
(14.3017 8.04233 1.04397e-20)
(17.8216 11.2604 -1.27452e-17)
(21.0941 15.0165 0)
(23.6132 19.3838 -1.37497e-17)
(24.8165 23.7835 1.44454e-17)
(23.8355 28.8173 3.0025e-17)
(21.1304 34.1649 1.55523e-17)
(16.6955 39.9921 6.24329e-17)
(11.2708 46.0266 -6.31081e-17)
(5.56586 52.3812 0)
(1.28752 58.3667 1.59327e-17)
(-2.94913 61.9218 -3.23688e-17)
(-7.68183 64.0551 -6.63355e-17)
(14.0773 77.4648 3.26997e-17)
(12.0442 4.08589 0)
(-9.35795 71.3657 1.83136e-19)
(25.9523 40.0148 3.68168e-16)
(24.9047 44.5274 -7.77547e-17)
(23.22 50.7252 8.7528e-17)
(21.0899 55.9438 -1.63123e-17)
(18.0067 60.6713 3.20025e-17)
(14.3068 63.8802 -1.52851e-17)
(10.2077 66.8441 0)
(5.75122 66.859 -1.45431e-17)
(1.00557 65.1433 -1.45773e-17)
(-3.59976 62.0854 0)
(-8.19434 55.7937 0)
(-13.7567 48.1256 8.84197e-19)
(-19.0869 41.007 -7.73938e-18)
(-23.3375 33.9455 0)
(-26.0567 27.4667 0)
(-26.2751 21.5287 -9.8986e-18)
(-24.5355 16.2172 -6.39423e-18)
(-21.3338 11.8827 1.25597e-17)
(-17.6196 8.39042 3.09387e-18)
(-14.2485 5.58035 7.62072e-19)
(-11.473 3.40033 3.00381e-18)
(-9.34874 1.72994 -3.34162e-18)
(-7.7179 0.466229 0)
(-6.44925 -0.457701 -1.43963e-18)
(-5.5268 -1.09631 0)
(-4.84533 -1.56006 0)
(-4.3302 -1.9535 0)
(-3.92823 -2.33662 -5.41986e-18)
(-3.57776 -2.70852 0)
(-3.27341 -3.00942 -2.94932e-18)
(-2.99596 -3.16869 4.83811e-19)
(-2.77253 -3.13892 9.99513e-18)
(-2.61798 -2.90522 0)
(-2.57743 -2.39077 -4.90056e-18)
(-2.7763 -2.85901 7.54493e-20)
(-5.65453 -10.4677 0)
(23.5537 34.5724 4.65428e-16)
(-18.028 -12.0589 8.19354e-16)
(-16.7381 -51.3207 0)
(2.37293 -18.3407 -2.6988e-16)
(31.6849 15.1785 9.75339e-16)
(-9.36066 85.7155 -3.28624e-19)
(9.08632 89.8372 6.92001e-17)
(3.52284 -3.17614 -1.52385e-19)
(3.13629 -1.32547 -1.24311e-18)
(2.99066 -1.60074 1.2607e-18)
(2.84982 -1.69877 0)
(2.72163 -1.92527 0)
(2.60252 -2.16439 1.65401e-19)
(2.54052 -2.36567 -6.72068e-19)
(2.57915 -2.5176 -2.39114e-18)
(2.76956 -2.6317 1.73114e-19)
(3.15836 -2.70937 -3.6319e-19)
(3.79056 -2.72184 -4.39667e-19)
(4.73691 -2.5682 2.00084e-18)
(6.07386 -2.10533 1.88075e-19)
(7.91232 -1.22463 -1.49843e-18)
(10.3248 0.116577 0)
(13.3617 1.78005 6.18482e-18)
(17.033 3.53394 3.54135e-21)
(21.1704 5.24186 3.2177e-17)
(25.2489 6.88939 -2.63737e-17)
(28.4088 8.77899 0)
(29.7472 10.9195 2.82783e-17)
(28.5204 13.5409 -8.80361e-17)
(25.0999 17.0439 4.53252e-17)
(19.9892 20.9781 6.06309e-17)
(13.8209 25.4426 -5.3211e-19)
(7.06121 30.2603 -6.20969e-17)
(1.05356 35.2436 6.24283e-17)
(-4.37435 39.0243 6.33529e-17)
(-9.93977 41.5559 -6.43378e-17)
(-12.1472 66.5816 -1.32981e-16)
(10.9466 44.3082 1.7674e-18)
(34.7478 -14.9053 2.92864e-19)
(31.0621 24.777 -6.50013e-17)
(29.7926 28.0015 -8.50157e-18)
(27.6693 32.254 -2.49516e-17)
(24.776 36.501 -8.06043e-18)
(20.9096 40.1833 0)
(16.3515 42.9198 1.52568e-17)
(11.2473 44.6083 -7.43862e-18)
(5.70504 44.5704 -7.32694e-18)
(-0.150697 42.8322 3.62649e-18)
(-5.9657 39.6491 3.5953e-18)
(-11.8496 34.285 7.10478e-18)
(-18.3613 28.2424 0)
(-24.2993 22.6273 6.9005e-18)
(-28.7975 17.5018 -6.65119e-18)
(-31.2804 13.3726 -1.03733e-19)
(-31.0357 10.0152 -1.96624e-17)
(-28.4999 7.44388 1.61e-18)
(-24.5226 5.47774 -7.90744e-18)
(-20.3051 3.77154 0)
(-16.6047 2.19885 -2.4873e-18)
(-13.6054 0.859575 1.90117e-19)
(-11.2206 -0.222464 3.34988e-18)
(-9.32667 -1.03989 0)
(-7.85781 -1.58095 0)
(-6.73397 -1.91868 -8.88631e-20)
(-5.87061 -2.15641 -2.71628e-18)
(-5.20008 -2.37728 2.7637e-18)
(-4.68247 -2.64425 3.39803e-18)
(-4.26406 -2.93045 -6.68258e-19)
(-3.93603 -3.16056 1.97282e-18)
(-3.6792 -3.27222 -6.45695e-19)
(-3.50225 -3.1996 -5.09291e-18)
(-3.38397 -2.96421 4.9973e-18)
(-3.29158 -2.43129 1.10526e-17)
(-3.29072 -3.21736 4.81044e-18)
(-2.55338 1.48625 0)
(-2.36244 1.14649 -2.44521e-18)
(-2.27698 -0.583891 8.32461e-21)
(-1.63582 -3.52436 2.67938e-18)
(0.282615 -3.24674 8.93548e-19)
(0.812947 0.36922 -1.19123e-18)
(0.880965 1.42995 2.38643e-18)
(1.78225 0.47554 -2.39067e-18)
(3.248 -0.331594 -1.19566e-18)
(-12.5034 -12.5915 -3.11629e-16)
(-7.42151 -7.02443 -7.76371e-17)
(-0.00158036 -0.174962 -1.61813e-16)
(26.7714 23.3763 -4.78341e-16)
(23.2981 2.307 -2.47562e-16)
(-0.680819 -2.35106 9.81754e-17)
(-15.1605 44.6613 0)
(-15.1601 69.3226 2.66271e-16)
(14.7088 35.1061 7.07315e-16)
(22.597 26.1684 2.89391e-16)
(14.9581 9.75046 -3.00852e-16)
(-3.81651 77.9138 5.91705e-16)
(33.1936 8.78066 0)
(31.8444 10.3459 8.34849e-18)
(29.6647 12.6703 -2.03034e-18)
(26.4955 15.3097 -3.76318e-17)
(22.2132 17.7158 7.76331e-18)
(17.0611 19.3678 0)
(11.1752 20.0642 -1.57149e-21)
(4.79985 19.5595 -1.83401e-18)
(-1.95541 17.8145 0)
(-8.83202 15.0087 -3.59564e-18)
(-15.6404 11.0654 -3.5567e-18)
(-22.5872 6.92835 0)
(-28.6038 3.29512 8.61884e-19)
(-32.7922 0.666808 -8.18063e-19)
(-34.4314 -0.668276 8.36029e-19)
(-33.2913 -1.00842 1.22954e-17)
(-29.949 -0.727029 0)
(-25.6342 -0.510402 1.58257e-18)
(-21.4147 -0.669954 -7.79561e-19)
(-17.7916 -1.16237 1.92736e-19)
(-14.8459 -1.76777 5.69056e-19)
(-12.4502 -2.30642 -3.36833e-18)
(-10.5213 -2.66771 0)
(-8.9866 -2.83895 7.26271e-19)
(-7.76198 -2.88818 1.42683e-18)
(-6.78773 -2.88342 1.4057e-18)
(-6.01968 -2.91395 2.12907e-21)
(-5.42608 -3.02866 -6.80674e-19)
(-4.97524 -3.17636 -2.00979e-18)
(-4.65747 -3.27828 -1.31876e-18)
(-4.46692 -3.2863 -1.29412e-18)
(-4.40149 -3.13306 0)
(-4.40176 -2.90362 -5.01945e-18)
(-4.35276 -2.44179 -4.92797e-18)
(-4.57735 -3.74217 -3.62483e-18)
(-2.61859 1.32793 -6.50445e-18)
(-4.31685 -8.1166 2.93037e-18)
(-3.76923 -6.47758 -2.3184e-18)
(-5.02647 -5.67884 0)
(-5.83952 -5.90761 1.1774e-18)
(-3.65423 -7.80941 1.16681e-18)
(0.959415 -7.29988 -2.33689e-18)
(3.12996 -4.299 2.34945e-18)
(2.57891 -4.59059 6.19199e-21)
(2.79621 -6.74242 -1.1836e-18)
(5.1341 -8.43205 3.52854e-18)
(5.95062 -8.62206 -3.56299e-18)
(4.79358 0.777712 6.05123e-19)
(5.09505 -3.2413 -4.59805e-19)
(4.7333 -1.07709 9.33369e-19)
(4.62453 -1.45313 -3.16126e-18)
(4.48603 -1.44325 1.20427e-18)
(4.32664 -1.64771 0)
(4.15444 -1.93464 1.65505e-19)
(4.03378 -2.25168 2.36511e-18)
(4.02969 -2.55807 -3.42656e-19)
(4.19629 -2.86895 8.70863e-19)
(4.56454 -3.17612 6.67396e-22)
(5.17703 -3.47823 3.61996e-19)
(6.09621 -3.6934 -1.82404e-19)
(7.41627 -3.66814 1.29778e-18)
(9.20461 -3.32308 -4.5108e-18)
(11.5734 -2.65566 -1.26323e-22)
(14.6139 -1.77975 3.10622e-18)
(18.3102 -0.995763 -3.16091e-18)
(22.5686 -0.600917 -2.57867e-17)
(26.9588 -0.82932 2.63739e-17)
(30.6346 -1.32147 0)
(32.5615 -1.85603 -5.57442e-17)
(31.6878 -1.96808 4.27643e-17)
(28.3827 -1.07481 -4.41221e-17)
(23.0923 0.591692 0)
(16.3487 3.33839 0)
(8.75614 6.50904 0)
(1.3059 9.99051 -7.66884e-18)
(-5.38455 13.1734 -4.22798e-20)
(-11.6896 16.0196 1.24935e-16)
(5.32006 44.1127 -3.16736e-16)
(-19.1114 48.5624 1.35352e-16)
(-16.1777 71.5569 -1.25243e-16)
(16.3708 71.4926 1.64975e-17)
(18.5666 25.9695 3.42496e-16)
(25.861 15.312 2.9085e-16)
(29.571 12.0833 -5.47918e-19)
(32.5298 6.69507 -2.97729e-16)
(33.8227 -23.6914 -2.04782e-16)
(34.2251 8.49409 -2.01599e-16)
(34.8434 -6.84042 7.27027e-17)
(33.956 -7.06803 -1.67608e-17)
(32.4507 -7.20614 -3.25894e-17)
(30.0761 -6.44417 0)
(26.5463 -5.49656 3.13908e-17)
(21.9135 -4.5991 0)
(16.3472 -4.20737 0)
(9.97769 -4.48089 7.42485e-18)
(3.23785 -5.37281 1.83072e-18)
(-3.98487 -6.87321 0)
(-11.4272 -8.83462 3.58494e-18)
(-18.6591 -11.1076 2.54794e-20)
(-25.377 -12.9438 1.58955e-20)
(-30.7203 -13.9161 3.4233e-18)
(-33.6996 -13.6265 3.81268e-18)
(-34.5393 -12.0333 -3.74523e-18)
(-32.6496 -9.64883 -6.78083e-18)
(-29.1086 -7.27422 2.01509e-19)
(-25.0482 -5.5129 -1.19937e-18)
(-21.2449 -4.56656 3.91897e-19)
(-17.9999 -4.23774 1.54665e-18)
(-15.3153 -4.23016 -1.1435e-18)
(-13.0968 -4.28878 1.5031e-18)
(-11.2913 -4.2602 -1.84181e-21)
(-9.80024 -4.1241 -3.64104e-18)
(-8.57361 -3.90642 1.4388e-18)
(-7.57182 -3.67675 1.41465e-18)
(-6.77539 -3.51045 -2.0811e-18)
(-6.16011 -3.43808 2.73307e-18)
(-5.71947 -3.40474 2.69327e-18)
(-5.44178 -3.32843 0)
(-5.33295 -3.15891 7.80825e-18)
(-5.39428 -2.84229 1.2783e-18)
(-5.56 -2.50907 1.25647e-18)
(-5.415 -1.55254 0)
(-6.6344 -3.82143 0)
(-2.46504 3.09922 3.52726e-18)
(-6.23343 -8.59598 5.9728e-21)
(3.78504 8.95613 -5.61642e-19)
(2.56644 7.2155 5.54253e-19)
(0.211463 7.61168 0)
(-1.658 7.24631 0)
(-2.21558 3.2539 -5.72565e-19)
(-2.57652 -6.35919 1.71547e-18)
(-2.41678 -6.20088 0)
(-1.91459 1.41951 -1.14735e-18)
(-0.9131 4.50704 -1.14516e-18)
(1.08301 2.96861 2.27447e-18)
(2.8315 2.56114 -1.143e-18)
(4.47845 7.21893 3.4547e-18)
(6.50776 6.26698 5.47284e-19)
(6.05325 -8.14452 5.98057e-19)
(6.24676 0.536381 1.20937e-18)
(6.4172 -3.41783 0)
(6.23418 -1.0722 -4.68084e-19)
(6.24669 -1.38907 -1.1904e-19)
(6.11302 -1.19516 7.27565e-19)
(5.92649 -1.31607 -1.62039e-19)
(5.71627 -1.60888 -3.32221e-19)
(5.53975 -2.03252 -2.70833e-18)
(5.47599 -2.5347 6.89267e-19)
(5.58019 -3.06021 -1.74829e-18)
(5.88389 -3.59608 8.8547e-19)
(6.44776 -4.16016 -3.60189e-19)
(7.3003 -4.7091 0)
(8.51054 -5.10986 0)
(10.157 -5.26661 0)
(12.3152 -5.20236 -1.53129e-18)
(15.0736 -5.03871 0)
(18.4436 -5.10275 6.54521e-21)
(22.3394 -5.72987 1.28817e-17)
(26.488 -7.23901 -6.55539e-18)
(30.1788 -9.59264 1.34578e-17)
(32.6123 -12.6466 4.14127e-17)
(32.3915 -15.6042 -2.15441e-20)
(29.9157 -17.3873 -1.43548e-17)
(24.7152 -18.2055 -2.89292e-17)
(17.7814 -17.5084 5.83831e-17)
(9.86391 -16.0234 -2.97988e-17)
(1.78149 -13.9309 -2.34583e-20)
(-5.88381 -11.737 1.50745e-17)
(-12.8459 -8.96492 -8.62732e-20)
(-17.9067 19.2131 -1.92504e-16)
(9.5657 35.448 -3.28809e-16)
(-0.402026 41.8942 6.20388e-16)
(0.874316 -1.03076 0)
(-22.5855 23.7007 -1.32943e-16)
(34.9766 -9.9327 5.33318e-16)
(33.6729 -3.13304 -2.86851e-16)
(31.1611 2.69418 -5.54182e-16)
(-16.2891 71.9011 -4.25059e-17)
(19.8222 58.1039 -4.21692e-17)
(11.2864 83.4278 -1.65227e-17)
(-21.7384 52.1273 3.53044e-19)
(21.641 17.7115 -3.37222e-16)
(27.4294 6.79626 2.80505e-16)
(-1.90032 -12.8791 -5.85237e-19)
(-2.05724 -11.0237 -5.80023e-19)
(-4.10518 -5.63736 0)
(-7.78369 -6.38618 -5.62742e-19)
(-11.7678 -11.7718 5.62581e-19)
(-8.78581 -14.7861 -5.55982e-19)
(-2.96007 -14.732 5.58457e-19)
(2.16038 -11.9314 1.12563e-18)
(5.63367 -12.6547 -1.1344e-18)
(6.58896 -17.7658 2.26239e-18)
(8.02733 -19.5096 -3.4356e-18)
(4.19028 -19.1406 0)
(1.8549 -15.6775 3.57657e-21)
(0.303773 -15.3348 0)
(8.27359 7.28185 -3.48879e-18)
(6.29731 -7.59759 1.18286e-18)
(7.52479 0.730106 0)
(7.66813 -3.28424 0)
(7.59658 -0.877459 3.13622e-19)
(7.74184 -1.20745 -3.98918e-20)
(7.5668 -0.823347 0)
(7.34005 -0.905453 -1.63494e-19)
(7.10209 -1.22635 1.66899e-19)
(6.90407 -1.74354 6.80201e-19)
(6.80917 -2.3991 3.44145e-19)
(6.85936 -3.12522 7.01818e-19)
(7.08405 -3.90546 2.82969e-21)
(7.53396 -4.74804 -1.44383e-18)
(8.24437 -5.60029 3.63429e-19)
(9.27664 -6.35539 1.48785e-18)
(10.7043 -6.94879 3.79281e-19)
(12.5558 -7.39768 -7.66171e-19)
(14.9011 -7.83139 1.5549e-18)
(17.7552 -8.51463 -4.74141e-18)
(21.0058 -9.8239 -6.41871e-18)
(24.4771 -12.1528 3.27826e-18)
(27.6698 -15.5802 -6.67896e-18)
(29.9213 -20.0704 0)
(30.169 -24.7321 -2.08588e-17)
(28.1202 -28.8936 4.27884e-17)
(23.7961 -32.0858 0)
(17.6299 -33.7258 0)
(10.1998 -34.1482 0)
(2.23898 -33.4271 1.1037e-17)
(-5.75059 -32.2736 -6.39739e-20)
(-13.043 -29.5884 -1.25557e-19)
(-19.6412 -5.87649 -1.24213e-16)
(-14.7595 62.0733 -3.1523e-16)
(13.5153 26.8094 -4.17496e-19)
(-23.5846 -45.1104 2.52429e-16)
(1.7935 -17.5623 0)
(33.2909 -20.6425 -1.56666e-17)
(31.3739 -22.1313 0)
(28.7568 -22.816 0)
(25.0113 -23.3759 7.73972e-18)
(20.3086 -23.9022 -1.5327e-17)
(14.7065 -24.5094 0)
(8.30054 -25.582 7.45302e-18)
(1.59194 -26.5698 0)
(-5.58215 -27.3046 -1.81191e-18)
(-12.8964 -27.8579 1.78899e-18)
(-19.7235 -28.1941 -8.81461e-18)
(-25.5633 -27.7408 -1.07724e-20)
(-29.7207 -26.119 -3.42723e-18)
(-31.859 -23.1991 6.76777e-18)
(-31.8026 -19.4875 5.00668e-18)
(-29.8068 -15.4771 -4.92468e-18)
(-26.7178 -11.9914 0)
(-23.3346 -9.40596 2.4692e-21)
(-20.1989 -7.76233 -2.35801e-18)
(-17.4865 -6.86188 0)
(-15.1971 -6.39827 0)
(-13.265 -6.06964 7.53784e-19)
(-11.6643 -5.72878 2.22755e-18)
(-10.3111 -5.34361 -1.4607e-18)
(-9.16954 -4.90509 1.43985e-18)
(-8.22013 -4.47709 -2.82983e-18)
(-7.45284 -4.12107 -6.96972e-19)
(-6.86298 -3.84524 -5.48569e-18)
(-6.45089 -3.61614 2.70272e-18)
(-6.22366 -3.33478 0)
(-6.18832 -2.94659 -5.22601e-18)
(-6.33956 -2.40901 -2.56479e-18)
(-6.67762 -2.06923 0)
(-5.9024 0.203925 2.50606e-18)
(-8.57864 -3.96176 -1.11714e-20)
(-2.14588 5.76314 3.56977e-18)
(-7.75358 -8.27022 3.52693e-18)
(4.31829 11.6496 0)
(-3.32181 -13.552 -1.18486e-18)
(-5.66158 37.2509 -3.0622e-16)
(4.41426 34.465 -6.35252e-16)
(-4.26047 -6.96858 1.2104e-16)
(-23.6586 53.6342 -1.20085e-16)
(22.5902 9.65335 5.78009e-16)
(-26.1383 28.4937 -2.43939e-19)
(1.53826 -13.8658 5.76967e-19)
(9.49407 1.859 2.90954e-18)
(7.02967 -6.63174 -2.36664e-18)
(8.50735 -0.128541 0)
(8.81554 -3.05958 0)
(8.58122 -0.673732 0)
(8.8958 -0.997821 0)
(8.58204 -0.390711 6.49262e-19)
(8.3682 -0.486302 -3.27726e-19)
(8.11846 -0.836271 1.6638e-19)
(7.92026 -1.45664 -1.02148e-18)
(7.83117 -2.2589 6.88226e-19)
(7.86761 -3.15239 3.5149e-19)
(8.04631 -4.10747 -5.33489e-19)
(8.38882 -5.15079 0)
(8.92666 -6.27447 6.57683e-22)
(9.716 -7.37401 -3.71597e-19)
(10.8347 -8.33783 3.7804e-19)
(12.3208 -9.18588 7.67014e-19)
(14.1841 -10.0697 -8.7583e-19)
(16.4365 -11.2138 8.87591e-19)
(18.9916 -12.9304 -2.40476e-18)
(21.6391 -15.5668 -4.88935e-18)
(24.0165 -19.3008 3.31521e-18)
(25.6888 -24.2301 0)
(26.0322 -29.7081 -9.81212e-21)
(24.5563 -35.2423 -2.10493e-17)
(21.1339 -40.0111 1.77942e-17)
(15.9578 -43.4299 -3.60522e-18)
(9.55772 -45.4765 0)
(2.43414 -45.8942 -3.63242e-18)
(-4.98253 -45.7215 5.08009e-17)
(-12.1591 -43.6443 -2.85865e-17)
(-20.0524 -27.8275 1.17437e-16)
(-19.3072 59.5 6.4083e-16)
(17.0105 18.4078 -7.25213e-19)
(14.9635 15.8016 -3.12601e-19)
(15.8538 14.7562 1.62027e-18)
(17.6361 16.1836 2.63093e-19)
(12.1367 18.7746 0)
(-4.54401 17.6064 -5.53422e-19)
(-5.14451 11.3775 5.50913e-19)
(-4.68506 -9.32847 -8.21371e-19)
(-8.88495 -7.21263 -1.92742e-18)
(-8.39678 0.195352 2.20794e-18)
(-6.55064 7.409 0)
(-0.395129 12.0161 -1.08151e-18)
(-0.212016 13.8865 3.29801e-18)
(3.38438 20.7563 -2.2354e-18)
(5.4537 14.2475 -1.08769e-18)
(7.60415 12.9537 1.6765e-18)
(10.8694 -2.01806 -2.2393e-18)
(-20.1194 51.755 6.14566e-16)
(28.0293 -0.676308 -2.63031e-16)
(31.363 -5.11838 2.65201e-16)
(33.4462 -10.7988 5.25303e-16)
(34.201 -17.0919 2.4671e-16)
(-8.87625 80.0749 -9.89783e-19)
(-24.1445 56.7537 1.80007e-16)
(18.6844 -33.1434 0)
(-20.7738 -48.3649 0)
(31.3504 -31.4579 0)
(29.0337 -33.2749 3.93376e-18)
(26.2305 -34.9985 -7.79557e-18)
(22.5187 -36.4901 3.71041e-20)
(17.99 -37.7907 2.28813e-17)
(12.6314 -38.8898 -1.50653e-17)
(6.58456 -40.1675 3.52161e-20)
(0.116615 -40.8813 7.31965e-18)
(-6.46923 -40.6313 -1.26552e-17)
(-12.9442 -39.8728 1.75699e-18)
(-18.7135 -38.5302 7.01882e-18)
(-23.3802 -36.1383 -1.74066e-18)
(-26.5475 -32.7391 1.72397e-18)
(-27.9433 -28.3657 -5.06433e-18)
(-27.626 -23.5598 1.66736e-18)
(-25.9653 -19.0176 4.93839e-18)
(-23.6266 -15.193 -3.24361e-18)
(-21.0751 -12.2962 3.1968e-18)
(-18.6473 -10.2816 1.18384e-18)
(-16.481 -9.00336 2.72764e-18)
(-14.6318 -8.20126 -3.44692e-18)
(-13.0481 -7.58765 2.26753e-18)
(-11.6975 -7.01523 -4.09584e-18)
(-10.5422 -6.44464 -2.93014e-18)
(-9.54982 -5.84555 2.89162e-18)
(-8.70868 -5.24813 1.41965e-18)
(-8.01585 -4.71871 -1.39764e-18)
(-7.48101 -4.26125 0)
(-7.12374 -3.83021 -2.70399e-18)
(-6.96122 -3.31882 1.32727e-18)
(-6.97714 -2.69826 -2.6098e-18)
(-7.13306 -1.86646 -3.84131e-18)
(-7.78664 -2.05393 -2.53195e-18)
(-5.89732 2.23016 -4.95704e-18)
(-10.1239 -4.3206 1.2382e-18)
(-2.22543 7.94146 -1.16875e-18)
(-9.42225 -8.18961 -2.35305e-18)
(4.20039 12.8314 0)
(-6.065 -14.2403 0)
(14.8461 16.2815 0)
(-4.49892 -6.30356 0)
(-24.732 -0.596552 -4.40651e-19)
(-24.3413 55.8317 6.5281e-16)
(-10.1787 30.5692 3.08892e-16)
(8.72062 26.2619 3.16675e-16)
(-0.665132 32.14 6.24992e-16)
(-14.2611 70.7064 -3.11489e-16)
(-5.04756 -6.80258 -1.03197e-16)
(-5.22063 -13.323 0)
(-13.6149 77.2624 -3.49841e-16)
(-28.8713 32.9721 -1.40091e-16)
(-19.0044 -42.6675 -5.18201e-17)
(-3.47179 86.7065 -9.13343e-16)
(-9.10014 -11.3924 3.28393e-16)
(-25.8132 -39.671 2.51227e-16)
(-6.79109 -8.27019 -5.4183e-17)
(15.9771 -2.50153 -1.11069e-18)
(11.9706 -12.4983 -2.8753e-19)
(11.7091 1.23015 -8.88073e-19)
(10.0527 -5.60502 5.091e-21)
(9.58476 0.319723 0)
(10.1714 -2.44592 0)
(9.25128 -0.0217777 0)
(9.64605 -0.652461 -1.59827e-19)
(9.05406 0.148087 -2.03365e-19)
(8.86683 -0.110584 2.04775e-19)
(8.62796 -0.507845 -1.68334e-19)
(8.47181 -1.23435 4.2585e-19)
(8.40854 -2.15654 -5.18681e-19)
(8.44382 -3.19426 0)
(8.5852 -4.31134 0)
(8.84492 -5.50618 0)
(9.24281 -6.79268 0)
(9.80382 -8.11524 0)
(10.5858 -9.3891 0)
(11.6711 -10.5677 -1.91929e-19)
(13.0489 -11.7737 7.78204e-19)
(14.7074 -13.2278 0)
(16.5751 -15.1491 -2.0033e-18)
(18.4614 -17.8333 3.65863e-18)
(20.1119 -21.4954 3.30307e-18)
(21.2233 -26.2988 0)
(21.3515 -31.8431 1.02765e-17)
(20.1942 -37.6697 -1.04526e-17)
(17.5476 -43.0057 -3.508e-18)
(13.3743 -47.3539 7.12118e-18)
(8.07754 -50.344 -1.07912e-17)
(2.05587 -51.9049 5.44662e-18)
(-4.45264 -52.0058 -1.44077e-17)
(-10.3248 -51.4979 3.59016e-18)
(-17.5841 -48.6262 1.12568e-16)
(-24.0693 49.7241 3.42153e-16)
(21.8884 -9.69154 5.01917e-16)
(16.0647 -8.69486 2.46227e-16)
(-5.53037 -21.0876 0)
(2.23805 -20.4748 -1.67594e-21)
(3.78738 -23.3406 -5.71738e-19)
(-1.40107 -14.1391 -2.81836e-19)
(-5.10682 3.81258 -6.77702e-20)
(-2.87979 0.0544764 6.70422e-20)
(-13.4721 -22.8647 0)
(-12.3005 -23.7996 0)
(-3.93575 -25.1957 8.35084e-19)
(0.833723 -31.3977 -2.15801e-18)
(8.78773 -31.7742 2.7482e-18)
(18.0734 -40.8376 0)
(-7.75659 -35.6057 -2.17089e-18)
(-18.8311 -30.6778 2.17301e-18)
(-8.93073 -22.8308 5.66814e-19)
(-6.15208 -28.5732 5.64859e-19)
(-0.567659 -32.8671 0)
(14.3979 -28.7928 0)
(13.5223 67.9922 0)
(27.6008 -7.06456 2.54049e-16)
(30.755 -11.2685 0)
(32.4487 -16.3233 -5.19467e-16)
(33.1199 -21.6388 2.59083e-16)
(32.7001 -27.1226 4.65562e-16)
(2.36913 -18.0296 -8.60998e-17)
(9.97087 10.8658 3.04532e-16)
(28.7741 -37.2149 8.36931e-18)
(27.8892 -38.7602 -6.46475e-17)
(25.9159 -41.0505 2.77515e-17)
(23.1487 -42.781 -3.14079e-17)
(19.6253 -44.5311 -1.34947e-17)
(15.4166 -45.9119 1.91188e-17)
(10.5935 -46.9292 3.73132e-18)
(5.23422 -47.8789 -1.85554e-17)
(-0.685587 -48.2668 1.10033e-17)
(-6.24921 -47.2157 0)
(-11.5709 -45.4292 -8.92945e-18)
(-16.2482 -42.9681 5.2567e-18)
(-19.8588 -39.4546 8.68471e-18)
(-22.2368 -35.1936 1.73025e-18)
(-23.3129 -30.421 -6.76175e-18)
(-23.1072 -25.5673 -3.33932e-18)
(-21.9978 -21.1104 0)
(-20.3809 -17.3426 0)
(-18.5727 -14.3888 -8.01731e-19)
(-16.7818 -12.2199 -3.95389e-19)
(-15.1404 -10.7087 3.90111e-18)
(-13.7288 -9.66858 7.76161e-19)
(-12.512 -8.86562 -2.6476e-18)
(-11.4533 -8.13763 2.21847e-22)
(-10.5376 -7.43426 0)
(-9.73133 -6.71864 0)
(-9.02573 -6.00126 -2.84419e-18)
(-8.4403 -5.32815 4.21087e-18)
(-7.99576 -4.69284 -1.37839e-18)
(-7.70907 -4.04498 7.38097e-21)
(-7.58522 -3.3281 1.33955e-18)
(-7.59579 -2.53411 1.31174e-18)
(-7.62323 -1.21466 7.7205e-18)
(-8.74266 -2.55887 0)
(-5.81389 4.22072 3.69185e-18)
(-11.222 -4.69523 -3.67154e-18)
(-2.85909 10.0564 2.30454e-18)
(-10.9691 -8.40912 -2.43075e-18)
(2.95637 15.9726 2.28751e-18)
(-7.78253 -16.7132 0)
(14.1032 23.4985 0)
(-5.84507 -28.5875 -1.18745e-18)
(-25.1819 40.2177 6.07021e-16)
(-25.4753 -21.8322 -1.21198e-16)
(17.0526 -2.40008 -2.58348e-16)
(-23.9711 23.67 6.06982e-16)
(-18.9787 23.7123 2.0099e-19)
(-13.888 22.9967 6.19667e-16)
(-28.5246 5.44278 1.34063e-16)
(12.1176 17.9332 -6.76495e-16)
(-5.33244 27.9056 0)
(3.89356 25.4564 0)
(-6.027 -12.1849 -5.9568e-17)
(-25.1354 -7.7996 -3.12231e-16)
(2.19413 -13.357 2.40215e-17)
(-12.9489 79.9175 -5.43354e-16)
(-18.4568 -51.3001 -6.06088e-17)
(-27.558 44.4056 -3.79378e-16)
(-3.06411 -6.46726 0)
(-3.37201 -5.82784 -5.30594e-17)
(-13.608 -52.5507 0)
(-9.13525 -53.6778 1.85108e-18)
(-3.95932 -53.929 3.64412e-18)
(1.39767 -53.1411 1.35241e-18)
(6.21361 -50.9924 2.24027e-19)
(10.4686 -47.6713 0)
(13.7647 -43.1521 4.37816e-18)
(15.8947 -37.948 -4.32508e-18)
(16.941 -32.4371 1.70107e-18)
(17.0319 -27.262 -3.34423e-18)
(16.3768 -22.827 8.21748e-19)
(15.2933 -19.3601 0)
(14.0112 -16.7225 1.60112e-18)
(12.7243 -14.7041 -7.90225e-19)
(11.592 -13.0663 7.78582e-19)
(10.6423 -11.6407 -1.34347e-18)
(9.9207 -10.2294 1.53733e-18)
(9.40753 -8.7615 -3.25947e-21)
(9.0389 -7.29736 -7.83324e-19)
(8.78183 -5.89393 3.61181e-19)
(8.61619 -4.58137 -4.02295e-19)
(8.51163 -3.35167 0)
(8.45538 -2.20825 1.72977e-19)
(8.45734 -1.18569 -8.5236e-20)
(8.52993 -0.343432 -3.33719e-19)
(8.70721 0.108859 2.8608e-19)
(8.88354 0.728052 4.06571e-20)
(9.56259 -0.128612 -1.58918e-19)
(9.43857 1.18583 0)
(10.5908 -1.22115 0)
(10.7003 2.70813 -6.01837e-19)
(11.3464 -3.66967 3.27026e-18)
(13.7288 6.1092 -5.88008e-19)
(13.0682 -10.163 0)
(20.0774 14.0784 2.21014e-18)
(12.5453 -21.9018 -2.15548e-20)
(-4.64634 -5.2631 2.80162e-16)
(26.9272 39.4376 9.72992e-19)
(25.2369 17.9638 0)
(25.9255 16.5823 -2.80808e-19)
(28.5424 27.1833 2.86055e-19)
(28.6692 35.9981 6.51655e-19)
(16.4009 39.7805 -5.25966e-19)
(-10.2467 36.8891 1.26483e-19)
(-11.0472 35.8257 2.45677e-19)
(-5.61987 -6.81603 1.8676e-18)
(-15.205 1.65262 -2.6125e-18)
(-9.22477 10.238 -2.11887e-18)
(-17.8513 8.0533 2.09292e-18)
(-6.74419 44.8669 -2.42633e-19)
(-3.26946 55.4897 4.91869e-19)
(-2.85619 33.8306 -2.13227e-18)
(-3.87472 7.44861 -5.0683e-19)
(0.481475 20.525 2.13232e-18)
(10.0064 -1.43915 0)
(5.93397 1.97599 9.85678e-19)
(20.4723 42.5332 -4.99115e-19)
(-28.7252 36.0596 3.15963e-16)
(-24.6009 -36.9988 -1.06488e-16)
(-28.4334 21.8576 -2.98301e-16)
(-5.3195 -8.27822 0)
(-4.60114 -7.91001 0)
(-3.61768 -7.64135 -1.00716e-16)
(-2.46643 -7.02492 -2.53204e-17)
(-1.22753 -6.31491 -3.14435e-17)
(-1.74846 -5.89281 -7.62913e-17)
(-2.08426 -5.52813 1.04689e-16)
(-2.20435 -5.01457 5.61564e-17)
(-19.2782 -46.4615 0)
(-6.16145 -4.57954 -5.45363e-17)
(-29.6564 -9.50319 4.40546e-19)
(-21.2272 -14.4032 2.81008e-16)
(-22.5353 -12.5412 -2.67416e-16)
(-26.7083 15.0829 -3.05057e-16)
(-21.7569 15.6131 0)
(-16.6018 15.325 0)
(-31.3422 11.2485 2.84345e-16)
(-29.1834 28.6513 5.97067e-16)
(-6.15784 -9.0115 -7.58837e-17)
(26.3081 -12.031 2.5693e-16)
(29.1149 -15.6295 -2.61542e-16)
(30.5464 -19.8423 0)
(30.8661 -24.2928 -5.45353e-16)
(30.1903 -28.6427 2.70889e-16)
(30.0256 -33.2299 -3.56929e-16)
(23.2561 -33.9705 -2.22894e-16)
(27.1455 -39.2045 6.87992e-17)
(26.3595 -41.3349 -7.58761e-17)
(24.8781 -43.5149 3.29367e-17)
(22.7684 -45.3891 -3.2192e-17)
(20.1593 -47.0152 0)
(16.9193 -48.4472 -1.93427e-18)
(13.1886 -49.4772 -2.8528e-18)
(9.02334 -50.0984 1.12539e-17)
(4.45888 -50.6163 3.67313e-18)
(-0.595131 -50.5819 -1.8306e-17)
(-5.29649 -49.1306 7.22659e-18)
(-9.44725 -46.6931 8.91497e-18)
(-13.1619 -43.6829 -7.0313e-18)
(-15.9774 -39.8711 4.35049e-18)
(-17.8458 -35.5404 -4.28223e-18)
(-18.7623 -30.9777 -1.70004e-18)
(-18.803 -26.4915 5.00495e-18)
(-18.2019 -22.3593 8.23674e-19)
(-17.187 -18.8024 3.25721e-18)
(-15.973 -15.9229 -3.20209e-18)
(-14.7239 -13.7145 0)
(-13.5611 -12.0845 -7.80137e-19)
(-12.5519 -10.9104 -3.84924e-19)
(-11.6841 -9.99698 -3.79232e-18)
(-10.9289 -9.17676 3.36165e-18)
(-10.2699 -8.39623 -3.67823e-19)
(-9.67088 -7.61137 2.89553e-18)
(-9.13238 -6.80398 -5.35195e-18)
(-8.6688 -6.00078 2.81469e-18)
(-8.30922 -5.20396 1.38233e-18)
(-8.06166 -4.38318 6.78851e-19)
(-7.93267 -3.49689 -1.32811e-18)
(-7.91499 -2.6168 3.93082e-18)
(-7.79724 -0.551226 -3.8586e-18)
(-9.22328 -3.39284 -1.24117e-18)
(-5.92155 5.99679 -3.70881e-18)
(-11.7006 -5.02893 4.92038e-18)