/*--------------------------------*- C++ -*----------------------------------*\
| =========                 |                                                 |
| \\      /  F ield         | OpenFOAM: The Open Source CFD Toolbox           |
|  \\    /   O peration     | Version:  2212                                  |
|   \\  /    A nd           | Website:  www.openfoam.com                      |
|    \\/     M anipulation  |                                                 |
\*---------------------------------------------------------------------------*/
FoamFile
{
    version     2.0;
    format      ascii;
    arch        "LSB;label=32;scalar=64";
    class       volScalarField;
    location    "0.021";
    object      p;
}
// * * * * * * * * * * * * * * * * * * * * * * * * * * * * * * * * * * * * * //

dimensions      [1 -1 -2 0 0 0 0];

internalField   nonuniform List<scalar> 
7700
(
209.135
170.619
156.688
157.91
159.257
159.532
159.632
159.777
159.921
160.052
160.172
160.284
160.389
160.487
160.577
160.661
160.738
160.809
160.872
160.929
160.978
161.021
161.057
161.086
161.108
161.122
161.144
161.157
161.14
161.115
161.098
161.074
161.043
161.005
160.96
160.909
160.85
160.785
160.713
160.634
160.548
160.455
160.356
160.249
160.135
160.012
159.879
159.732
159.58
159.476
159.187
157.82
156.663
170.625
208.803
213.804
170.845
157.178
158.578
159.66
159.741
159.714
159.762
159.855
159.948
160.035
160.12
160.201
160.278
160.351
160.42
160.483
160.541
160.594
160.642
160.684
160.721
160.752
160.777
160.796
160.811
160.825
160.831
160.823
160.805
160.789
160.769
160.742
160.71
160.672
160.629
160.58
160.526
160.466
160.402
160.332
160.258
160.18
160.097
160.011
159.922
159.828
159.735
159.695
159.723
159.625
158.509
157.227
171.055
213.224
212.54
173.037
158.631
159.392
160.655
160.881
160.914
160.996
161.1
161.201
161.296
161.386
161.472
161.553
161.629
161.699
161.764
161.824
161.878
161.927
161.97
162.008
162.04
162.067
162.088
162.104
162.113
162.119
162.114
162.104
162.089
162.068
162.043
162.012
161.976
161.934
161.886
161.833
161.775
161.711
161.642
161.567
161.488
161.403
161.314
161.221
161.121
161.017
160.935
160.903
160.665
159.38
158.711
173.223
212.112
211.175
175.148
160.209
160.404
161.774
162.074
162.092
162.141
162.22
162.301
162.376
162.448
162.516
162.582
162.644
162.701
162.755
162.805
162.85
162.891
162.927
162.959
162.986
163.008
163.026
163.039
163.047
163.051
163.049
163.04
163.028
163.011
162.991
162.965
162.935
162.9
162.86
162.817
162.769
162.717
162.661
162.602
162.538
162.472
162.403
162.331
162.253
162.178
162.133
162.119
161.821
160.447
160.281
175.247
211.079
211.423
177.137
161.826
161.734
163.178
163.528
163.558
163.617
163.706
163.795
163.877
163.954
164.027
164.097
164.162
164.223
164.279
164.331
164.378
164.421
164.458
164.491
164.52
164.543
164.561
164.575
164.583
164.587
164.585
164.577
164.565
164.548
164.527
164.501
164.47
164.434
164.394
164.349
164.299
164.245
164.187
164.124
164.058
163.987
163.913
163.835
163.75
163.665
163.611
163.589
163.249
161.809
161.886
177.216
211.786
213.876
179.047
163.414
163.291
164.763
165.102
165.114
165.156
165.232
165.306
165.374
165.438
165.499
165.557
165.61
165.66
165.707
165.749
165.788
165.823
165.854
165.881
165.904
165.923
165.938
165.949
165.956
165.96
165.958
165.951
165.941
165.927
165.91
165.888
165.863
165.834
165.8
165.763
165.723
165.678
165.63
165.579
165.524
165.466
165.405
165.339
165.268
165.196
165.157
165.15
164.817
163.347
163.459
179.097
214.132
216.588
180.832
164.946
164.844
166.34
166.677
166.685
166.725
166.798
166.873
166.941
167.006
167.067
167.125
167.179
167.23
167.277
167.32
167.359
167.395
167.426
167.454
167.477
167.497
167.513
167.524
167.532
167.535
167.533
167.526
167.517
167.503
167.485
167.464
167.438
167.408
167.375
167.337
167.296
167.251
167.203
167.151
167.096
167.037
166.976
166.91
166.839
166.769
166.733
166.729
166.396
164.902
164.99
180.877
216.846
219.246
182.554
166.436
166.365
167.883
168.221
168.225
168.259
168.327
168.396
168.459
168.517
168.572
168.624
168.672
168.717
168.758
168.796
168.83
168.861
168.888
168.912
168.932
168.949
168.963
168.972
168.978
168.981
168.979
168.974
168.967
168.956
168.941
168.923
168.901
168.876
168.847
168.814
168.779
168.74
168.697
168.651
168.602
168.55
168.495
168.435
168.37
168.305
168.275
168.274
167.942
166.425
166.48
182.595
219.543
221.87
184.253
167.913
167.873
169.415
169.755
169.756
169.789
169.857
169.925
169.987
170.045
170.099
170.15
170.198
170.242
170.283
170.32
170.354
170.385
170.412
170.435
170.455
170.471
170.483
170.492
170.498
170.501
170.499
170.495
170.488
170.478
170.464
170.447
170.426
170.402
170.374
170.342
170.307
170.268
170.226
170.181
170.132
170.081
170.026
169.968
169.903
169.838
169.809
169.812
169.477
167.936
167.956
184.289
222.209
224.472
185.935
169.377
169.366
170.931
171.273
171.272
171.302
171.368
171.433
171.492
171.547
171.598
171.646
171.69
171.731
171.768
171.802
171.833
171.86
171.884
171.904
171.922
171.936
171.948
171.957
171.963
171.965
171.964
171.96
171.955
171.946
171.933
171.917
171.899
171.878
171.854
171.827
171.795
171.76
171.721
171.679
171.634
171.585
171.534
171.478
171.416
171.353
171.326
171.331
170.995
169.432
169.414
185.966
224.854
227.06
187.606
170.825
170.85
172.437
172.781
172.778
172.808
172.872
172.937
172.994
173.048
173.098
173.144
173.187
173.227
173.263
173.295
173.325
173.351
173.374
173.395
173.412
173.426
173.437
173.446
173.451
173.453
173.452
173.45
173.446
173.437
173.426
173.411
173.393
173.372
173.349
173.322
173.293
173.261
173.225
173.184
173.139
173.091
173.039
172.984
172.923
172.862
172.836
172.843
172.505
170.922
170.86
187.634
227.49
229.632
189.265
172.261
172.323
173.931
174.277
174.272
174.3
174.363
174.426
174.482
174.533
174.581
174.626
174.666
174.704
174.737
174.768
174.795
174.819
174.841
174.859
174.874
174.887
174.897
174.905
174.909
174.911
174.912
174.912
174.908
174.9
174.89
174.876
174.861
174.842
174.821
174.796
174.769
174.739
174.706
174.669
174.628
174.583
174.534
174.479
174.419
174.359
174.336
174.345
174.007
172.404
172.298
189.291
230.111
232.192
190.914
173.688
173.787
175.416
175.763
175.757
175.783
175.845
175.907
175.962
176.012
176.059
176.101
176.141
176.177
176.209
176.238
176.264
176.287
176.307
176.324
176.339
176.35
176.36
176.366
176.37
176.371
176.375
176.378
176.373
176.365
176.355
176.342
176.327
176.31
176.29
176.266
176.24
176.211
176.179
176.145
176.108
176.066
176.021
175.97
175.912
175.853
175.831
175.841
175.501
173.876
173.726
190.936
232.721
234.743
192.553
175.106
175.243
176.892
177.24
177.232
177.256
177.317
177.377
177.43
177.478
177.523
177.564
177.602
177.635
177.666
177.693
177.717
177.738
177.757
177.772
177.785
177.796
177.804
177.81
177.814
177.816
177.819
177.82
177.815
177.809
177.8
177.789
177.776
177.761
177.743
177.722
177.698
177.671
177.64
177.607
177.57
177.531
177.489
177.442
177.387
177.331
177.311
177.323
176.983
175.337
175.142
192.569
235.32
237.284
194.182
176.515
176.69
178.359
178.707
178.697
178.719
178.778
178.837
178.888
178.935
178.978
179.017
179.053
179.085
179.114
179.139
179.161
179.181
179.198
179.212
179.224
179.234
179.242
179.247
179.252
179.254
179.254
179.253
179.25
179.245
179.238
179.228
179.217
179.203
179.186
179.167
179.145
179.12
179.092
179.06
179.025
178.986
178.945
178.899
178.846
178.793
178.776
178.792
178.452
176.787
176.548
194.19
237.906
239.817
195.802
177.915
178.128
179.816
180.165
180.151
180.171
180.228
180.285
180.335
180.38
180.42
180.457
180.491
180.521
180.547
180.57
180.591
180.608
180.623
180.636
180.646
180.655
180.661
180.666
180.669
180.672
180.672
180.672
180.669
180.665
180.659
180.651
180.641
180.629
180.615
180.598
180.578
180.555
180.529
180.5
180.467
180.43
180.39
180.346
180.295
180.244
180.23
180.249
179.909
178.227
177.943
195.799
240.482
242.342
197.413
179.307
179.558
181.265
181.612
181.595
181.612
181.667
181.722
181.769
181.812
181.85
181.885
181.916
181.943
181.967
181.988
182.007
182.022
182.035
182.046
182.054
182.061
182.067
182.071
182.074
182.076
182.076
182.076
182.074
182.071
182.066
182.06
182.052
182.042
182.029
182.014
181.997
181.976
181.953
181.926
181.895
181.861
181.823
181.78
181.731
181.682
181.671
181.694
181.356
179.656
179.327
197.398
243.048
244.857
199.015
180.691
180.978
182.702
183.049
183.027
183.041
183.093
183.145
183.19
183.229
183.265
183.297
183.325
183.35
183.371
183.39
183.405
183.418
183.428
183.437
183.444
183.449
183.453
183.457
183.459
183.46
183.461
183.461
183.46
183.458
183.454
183.45
183.444
183.436
183.426
183.414
183.399
183.381
183.36
183.336
183.308
183.277
183.241
183.201
183.154
183.107
183.1
183.127
182.792
181.075
180.703
198.986
245.604
247.361
200.606
182.064
182.388
184.128
184.472
184.446
184.456
184.505
184.553
184.595
184.631
184.663
184.692
184.717
184.739
184.757
184.772
184.785
184.795
184.803
184.809
184.814
184.817
184.82
184.822
184.824
184.824
184.826
184.826
184.825
184.825
184.823
184.821
184.817
184.812
184.804
184.795
184.783
184.768
184.75
184.729
184.704
184.676
184.644
184.607
184.562
184.518
184.514
184.546
184.214
182.482
182.067
200.562
248.15
249.853
202.186
183.426
183.786
185.54
185.881
185.85
185.854
185.899
185.943
185.981
186.013
186.042
186.067
186.088
186.106
186.121
186.133
186.142
186.149
186.154
186.158
186.16
186.162
186.163
186.163
186.164
186.164
186.165
186.167
186.167
186.168
186.168
186.168
186.167
186.164
186.16
186.154
186.145
186.134
186.119
186.102
186.08
186.056
186.027
185.994
185.954
185.914
185.913
185.95
185.621
183.875
183.418
202.125
250.681
252.327
203.75
184.775
185.168
186.935
187.272
187.234
187.232
187.272
187.312
187.345
187.373
187.397
187.418
187.435
187.449
187.46
187.468
187.474
187.477
187.479
187.48
187.479
187.479
187.478
187.477
187.477
187.477
187.478
187.48
187.482
187.484
187.486
187.489
187.491
187.49
187.489
187.487
187.482
187.474
187.464
187.45
187.433
187.413
187.389
187.36
187.324
187.289
187.294
187.338
187.012
185.254
184.755
203.672
253.192
254.78
205.297
186.108
186.533
188.309
188.641
188.594
188.587
188.62
188.654
188.682
188.705
188.724
188.741
188.753
188.763
188.769
188.773
188.775
188.774
188.772
188.77
188.767
188.764
188.761
188.759
188.758
188.758
188.759
188.761
188.764
188.768
188.773
188.778
188.782
188.786
188.789
188.79
188.789
188.785
188.779
188.77
188.758
188.742
188.723
188.7
188.669
188.64
188.651
188.703
188.384
186.615
186.076
205.196
255.66
257.212
206.825
187.422
187.876
189.658
189.983
189.926
189.911
189.937
189.965
189.986
190.004
190.018
190.029
190.036
190.041
190.043
190.042
190.039
190.035
190.03
190.024
190.018
190.012
190.008
190.004
190.002
190.001
190.003
190.006
190.01
190.016
190.023
190.03
190.038
190.045
190.051
190.057
190.061
190.061
190.06
190.056
190.048
190.038
190.024
190.007
189.983
189.961
189.978
190.041
189.729
187.955
187.379
206.702
258.111
259.614
208.328
188.712
189.19
190.974
191.29
191.221
191.198
191.216
191.236
191.25
191.261
191.269
191.275
191.277
191.276
191.273
191.268
191.261
191.253
191.243
191.234
191.225
191.217
191.21
191.205
191.202
191.201
191.203
191.206
191.212
191.22
191.229
191.239
191.25
191.261
191.272
191.281
191.289
191.295
191.299
191.299
191.297
191.292
191.285
191.274
191.258
191.244
191.269
191.344
191.042
189.267
188.658
208.181
260.527
261.93
209.785
189.968
190.466
192.248
192.552
192.47
192.438
192.446
192.457
192.464
192.469
192.47
192.469
192.466
192.46
192.452
192.442
192.431
192.419
192.406
192.393
192.381
192.371
192.362
192.356
192.352
192.35
192.352
192.356
192.363
192.373
192.384
192.397
192.411
192.426
192.44
192.454
192.466
192.477
192.485
192.492
192.496
192.497
192.496
192.493
192.484
192.479
192.514
192.603
192.313
190.541
189.904
209.623
262.889
264.186
211.198
191.182
191.696
193.469
193.761
193.662
193.619
193.617
193.618
193.617
193.613
193.608
193.602
193.593
193.582
193.569
193.555
193.539
193.523
193.507
193.492
193.477
193.465
193.454
193.446
193.441
193.44
193.442
193.447
193.455
193.466
193.48
193.495
193.512
193.53
193.548
193.565
193.582
193.597
193.611
193.622
193.631
193.639
193.646
193.651
193.65
193.655
193.701
193.806
193.529
191.767
191.106
211.016
265.182
266.351
212.552
192.343
192.866
194.624
194.9
194.783
194.725
194.712
194.704
194.694
194.682
194.67
194.658
194.644
194.628
194.611
194.593
194.574
194.555
194.536
194.518
194.502
194.488
194.476
194.467
194.462
194.46
194.462
194.468
194.477
194.49
194.505
194.522
194.542
194.562
194.583
194.604
194.624
194.643
194.66
194.677
194.692
194.706
194.719
194.731
194.742
194.757
194.817
194.939
194.679
192.931
192.255
212.35
267.379
268.397
213.829
193.435
193.957
195.694
195.951
195.815
195.741
195.715
195.696
195.677
195.658
195.64
195.622
195.603
195.584
195.564
195.543
195.522
195.501
195.48
195.461
195.443
195.428
195.416
195.406
195.401
195.399
195.402
195.408
195.418
195.431
195.447
195.466
195.487
195.509
195.532
195.555
195.577
195.599
195.62
195.64
195.66
195.679
195.699
195.72
195.739
195.766
195.841
195.981
195.74
194.015
193.332
213.601
269.439
270.261
215.005
194.438
194.947
196.653
196.889
196.733
196.642
196.604
196.575
196.547
196.522
196.499
196.477
196.456
196.435
196.413
196.391
196.369
196.347
196.326
196.306
196.288
196.272
196.259
196.25
196.244
196.243
196.246
196.252
196.263
196.276
196.293
196.313
196.334
196.357
196.38
196.404
196.428
196.451
196.473
196.496
196.518
196.541
196.566
196.594
196.623
196.66
196.75
196.909
196.688
194.993
194.315
214.745
271.31
271.891
216.048
195.321
195.804
197.474
197.689
197.514
197.407
197.358
197.321
197.287
197.258
197.233
197.21
197.187
197.165
197.143
197.121
197.099
197.077
197.056
197.036
197.017
197.001
196.988
196.979
196.973
196.972
196.975
196.982
196.993
197.008
197.025
197.045
197.067
197.09
197.114
197.138
197.161
197.184
197.207
197.229
197.252
197.277
197.305
197.337
197.372
197.419
197.522
197.697
197.495
195.834
195.174
215.751
272.923
273.238
216.91
196.056
196.508
198.144
198.343
198.154
198.034
197.975
197.93
197.888
197.85
197.818
197.789
197.762
197.735
197.709
197.682
197.655
197.628
197.601
197.575
197.55
197.529
197.512
197.498
197.491
197.488
197.492
197.501
197.516
197.535
197.559
197.585
197.613
197.643
197.672
197.702
197.73
197.757
197.784
197.81
197.838
197.868
197.903
197.943
197.985
198.04
198.154
198.34
198.148
196.515
195.889
216.595
274.248
274.119
217.473
196.55
196.977
198.56
198.73
198.515
198.375
198.299
198.24
198.188
198.144
198.106
198.073
198.043
198.014
197.984
197.954
197.924
197.893
197.862
197.831
197.803
197.778
197.757
197.742
197.732
197.729
197.734
197.744
197.761
197.784
197.811
197.842
197.875
197.909
197.942
197.975
198.006
198.036
198.066
198.095
198.126
198.161
198.202
198.25
198.305
198.375
198.508
198.721
198.559
196.969
196.34
217.137
275.183
274.553
217.718
196.749
197.189
198.73
198.875
198.646
198.497
198.414
198.349
198.292
198.245
198.206
198.171
198.14
198.109
198.078
198.047
198.014
197.98
197.947
197.914
197.883
197.856
197.833
197.815
197.805
197.802
197.806
197.818
197.836
197.861
197.891
197.924
197.96
197.996
198.032
198.067
198.101
198.132
198.163
198.194
198.226
198.263
198.306
198.358
198.418
198.494
198.636
198.866
198.74
197.193
196.493
217.303
275.817
274.721
217.531
196.661
197.239
198.75
198.867
198.618
198.458
198.364
198.288
198.223
198.17
198.125
198.087
198.05
198.014
197.976
197.935
197.891
197.845
197.797
197.749
197.703
197.662
197.627
197.6
197.584
197.578
197.584
197.6
197.627
197.663
197.706
197.754
197.806
197.857
197.908
197.955
197.998
198.037
198.073
198.108
198.144
198.186
198.235
198.296
198.368
198.458
198.612
198.867
198.786
197.292
196.332
217.051
276.928
277.147
216.659
196.019
197.204
198.593
198.578
198.273
198.09
197.971
197.871
197.787
197.718
197.659
197.608
197.559
197.511
197.46
197.406
197.349
197.289
197.229
197.169
197.114
197.065
197.024
196.993
196.974
196.968
196.974
196.993
197.024
197.066
197.116
197.174
197.236
197.3
197.364
197.424
197.481
197.534
197.583
197.63
197.679
197.733
197.798
197.877
197.974
198.09
198.264
198.572
198.668
197.329
195.581
215.829
279.903
281.342
215.031
194.978
197.139
198.33
198.108
197.768
197.573
197.43
197.308
197.209
197.127
197.057
196.995
196.937
196.879
196.818
196.755
196.688
196.62
196.552
196.488
196.429
196.378
196.337
196.307
196.289
196.283
196.292
196.313
196.346
196.39
196.445
196.508
196.577
196.649
196.722
196.793
196.86
196.924
196.983
197.041
197.101
197.166
197.243
197.337
197.454
197.593
197.777
198.105
198.405
197.331
194.527
213.783
284.944
287.025
212.515
193.855
197.062
197.935
197.517
197.172
196.966
196.797
196.655
196.538
196.44
196.357
196.284
196.215
196.148
196.08
196.012
195.943
195.875
195.811
195.752
195.701
195.658
195.626
195.604
195.592
195.59
195.6
195.62
195.65
195.689
195.738
195.796
195.862
195.933
196.008
196.083
196.157
196.229
196.298
196.368
196.44
196.52
196.613
196.725
196.863
197.029
197.229
197.562
198.043
197.318
193.592
211.018
291.243
294.375
208.755
192.989
197.086
197.522
196.928
196.589
196.366
196.173
196.012
195.878
195.765
195.668
195.583
195.507
195.435
195.365
195.299
195.235
195.177
195.125
195.081
195.047
195.021
195.004
194.995
194.993
194.996
195.006
195.022
195.044
195.072
195.108
195.153
195.206
195.266
195.332
195.403
195.476
195.551
195.627
195.704
195.788
195.881
195.99
196.119
196.276
196.467
196.688
197.023
197.665
197.365
193.035
207.495
298.078
298.697
205.507
192.618
197.011
197.101
196.409
196.066
195.821
195.605
195.424
195.269
195.136
195.023
194.927
194.843
194.769
194.702
194.642
194.589
194.545
194.512
194.488
194.475
194.47
194.472
194.478
194.487
194.495
194.505
194.515
194.526
194.538
194.556
194.581
194.614
194.656
194.709
194.769
194.835
194.908
194.986
195.07
195.164
195.272
195.399
195.548
195.724
195.936
196.179
196.519
197.226
197.211
192.719
204.829
301.377
298.513
203.624
191.994
196.486
196.498
195.793
195.443
195.183
194.951
194.753
194.581
194.431
194.307
194.207
194.124
194.057
194.001
193.958
193.927
193.909
193.905
193.912
193.929
193.952
193.979
194.006
194.028
194.043
194.052
194.054
194.049
194.039
194.031
194.027
194.031
194.044
194.07
194.107
194.156
194.216
194.286
194.368
194.465
194.581
194.722
194.887
195.079
195.305
195.56
195.901
196.602
196.625
191.981
203.032
300.93
296.559
202.06
191.059
195.694
195.756
195.076
194.728
194.463
194.22
194.007
193.818
193.652
193.518
193.418
193.342
193.287
193.25
193.232
193.232
193.247
193.28
193.327
193.382
193.442
193.5
193.551
193.591
193.613
193.62
193.612
193.587
193.55
193.509
193.468
193.433
193.409
193.399
193.405
193.428
193.467
193.523
193.597
193.693
193.816
193.971
194.152
194.357
194.594
194.852
195.186
195.862
195.828
191.024
201.392
298.985
294.525
201.472
190.259
194.887
194.998
194.345
193.996
193.721
193.459
193.223
193.008
192.819
192.673
192.571
192.505
192.469
192.459
192.47
192.506
192.568
192.649
192.745
192.848
192.951
193.048
193.128
193.188
193.219
193.224
193.204
193.154
193.083
193.002
192.915
192.831
192.758
192.701
192.668
192.657
192.668
192.705
192.768
192.863
192.995
193.17
193.375
193.603
193.859
194.126
194.458
195.112
195.046
190.28
200.752
297.092
292.143
200.53
189.327
193.98
194.138
193.507
193.153
192.861
192.57
192.31
192.072
191.862
191.708
191.617
191.577
191.569
191.593
191.651
191.747
191.868
192.012
192.171
192.335
192.493
192.636
192.753
192.837
192.879
192.881
192.845
192.765
192.654
192.522
192.376
192.23
192.094
191.976
191.882
191.821
191.797
191.802
191.838
191.921
192.055
192.251
192.481
192.734
193.018
193.307
193.646
194.281
194.178
189.441
199.926
294.802
289.571
199.394
188.206
192.827
193.041
192.448
192.107
191.82
191.507
191.245
191.014
190.798
190.654
190.595
190.582
190.612
190.69
190.817
190.981
191.178
191.399
191.634
191.869
192.092
192.289
192.449
192.561
192.616
192.614
192.559
192.444
192.284
192.092
191.878
191.657
191.443
191.248
191.082
190.951
190.868
190.832
190.841
190.891
191.013
191.219
191.463
191.722
192.026
192.336
192.689
193.288
193.115
188.395
198.861
292.192
286.831
198.393
186.972
191.406
191.651
191.033
190.666
190.39
190.101
189.921
189.782
189.61
189.508
189.483
189.514
189.604
189.759
189.967
190.22
190.509
190.823
191.147
191.466
191.764
192.025
192.25
192.406
192.479
192.473
192.388
192.218
191.991
191.729
191.434
191.125
190.817
190.529
190.272
190.058
189.892
189.792
189.754
189.773
189.856
190.038
190.255
190.448
190.719
191.005
191.368
191.989
191.774
187.21
197.972
289.377
283.831
197.535
185.666
189.854
190.095
189.387
188.961
188.676
188.437
188.323
188.281
188.276
188.249
188.284
188.386
188.561
188.812
189.121
189.481
189.88
190.302
190.73
191.146
191.545
191.894
192.16
192.343
192.427
192.419
192.315
192.111
191.825
191.455
191.066
190.655
190.239
189.839
189.473
189.153
188.891
188.697
188.588
188.549
188.579
188.655
188.728
188.85
189.08
189.344
189.737
190.444
190.237
185.931
197.183
286.347
280.556
196.567
184.231
188.207
188.461
187.673
187.228
186.923
186.702
186.616
186.626
186.728
186.863
187.007
187.209
187.5
187.866
188.297
188.784
189.31
189.857
190.405
190.957
191.446
191.846
192.139
192.338
192.437
192.421
192.303
192.079
191.758
191.32
190.802
190.268
189.728
189.199
188.703
188.258
187.876
187.565
187.355
187.221
187.139
187.053
187.022
187.095
187.302
187.601
188.025
188.818
188.605
184.513
196.167
283.037
277.313
195.239
182.678
186.478
186.74
185.865
185.413
185.103
184.927
184.882
184.937
185.108
185.397
185.693
186.032
186.453
186.957
187.531
188.163
188.834
189.522
190.233
190.882
191.422
191.894
192.291
192.559
192.683
192.662
192.496
192.184
191.753
191.273
190.679
189.997
189.309
188.635
187.991
187.398
186.874
186.431
186.081
185.813
185.548
185.348
185.275
185.31
185.474
185.775
186.215
187.101
186.881
182.961
194.764
279.733
273.892
194.175
181.145
184.657
184.921
183.958
183.506
183.22
183.091
183.099
183.22
183.479
183.874
184.382
184.876
185.452
186.114
186.851
187.645
188.475
189.346
190.172
190.877
191.578
192.162
192.596
192.886
193.023
192.996
192.81
192.469
191.98
191.336
190.643
189.874
189.016
188.173
187.364
186.605
185.916
185.312
184.806
184.351
183.903
183.616
183.471
183.452
183.568
183.839
184.286
185.264
185.043
181.402
193.717
276.256
270.012
193.013
179.519
182.706
182.973
181.94
181.513
181.28
181.203
181.263
181.47
181.828
182.362
183.068
183.749
184.508
185.352
186.27
187.245
188.283
189.285
190.186
191.116
191.895
192.549
193.064
193.408
193.569
193.536
193.311
192.902
192.326
191.619
190.764
189.843
188.885
187.847
186.857
185.913
185.038
184.248
183.552
182.858
182.264
181.868
181.629
181.547
181.606
181.823
182.241
183.295
183.073
179.775
192.668
272.423
265.808
191.484
177.71
180.628
180.911
179.845
179.483
179.312
179.301
179.431
179.736
180.212
180.903
181.766
182.707
183.678
184.725
185.842
187.034
188.22
189.332
190.483
191.483
192.386
193.138
193.708
194.086
194.262
194.222
193.969
193.516
192.866
192.037
191.081
190
188.852
187.7
186.484
185.339
184.258
183.254
182.34
181.414
180.655
180.124
179.776
179.615
179.607
179.761
180.104
181.196
180.963
177.977
191.173
268.185
261.329
190.129
175.779
178.447
178.77
177.72
177.443
177.34
177.389
177.611
178.029
178.655
179.52
180.56
181.764
182.969
184.238
185.599
186.962
188.27
189.647
190.888
192.048
193.053
193.884
194.522
194.947
195.145
195.099
194.813
194.303
193.576
192.66
191.57
190.355
189.039
187.665
186.318
184.937
183.632
182.388
181.195
180.08
179.144
178.431
177.961
177.696
177.622
177.7
177.947
179.017
178.743
176.019
189.708
263.67
256.431
188.72
173.849
176.253
176.61
175.636
175.422
175.394
175.516
175.847
176.397
177.23
178.292
179.547
180.983
182.444
183.972
185.521
187.023
188.634
190.114
191.531
192.801
193.911
194.826
195.52
195.978
196.191
196.138
195.823
195.268
194.469
193.45
192.248
190.886
189.41
187.861
186.273
184.735
183.163
181.66
180.175
178.859
177.729
176.814
176.193
175.809
175.652
175.652
175.829
176.812
176.488
173.9
188.253
258.837
250.883
187.546
172.175
174.098
174.464
173.591
173.427
173.464
173.684
174.152
174.879
175.931
177.207
178.671
180.327
182.124
183.883
185.579
187.419
189.13
190.804
192.348
193.744
194.95
195.939
196.691
197.187
197.418
197.36
197.019
196.418
195.553
194.45
193.135
191.642
190.008
188.277
186.489
184.686
182.93
181.145
179.403
177.854
176.491
175.35
174.517
173.989
173.719
173.656
173.777
174.649
174.321
172.26
187.168
253.351
244.918
185.771
170.237
171.851
172.238
171.528
171.436
171.55
171.906
172.539
173.533
174.819
176.343
178.056
179.968
182.019
183.944
186.032
187.966
189.893
191.707
193.388
194.889
196.182
197.24
198.038
198.563
198.809
198.744
198.379
197.74
196.815
195.631
194.216
192.598
190.817
188.917
186.946
184.914
182.871
180.829
178.832
177.047
175.433
174.049
172.951
172.235
171.821
171.67
171.722
172.424
172.07
170.305
185.41
247.399
238.774
183.932
168.159
169.479
169.897
169.432
169.439
169.673
170.211
171.092
172.371
173.934
175.74
177.723
179.859
182.061
184.446
186.616
188.789
190.862
192.823
194.619
196.218
197.587
198.702
199.543
200.096
200.355
200.285
199.9
199.227
198.252
197
195.494
193.766
191.85
189.789
187.629
185.418
183.082
180.744
178.56
176.519
174.622
172.951
171.567
170.564
169.96
169.673
169.637
170.08
169.68
168.235
183.639
241.165
232.561
181.968
165.904
167.028
167.482
167.306
167.419
167.837
168.616
169.859
171.45
173.323
175.417
177.63
179.925
182.55
185.055
187.5
189.831
192.064
194.149
196.051
197.732
199.167
200.331
201.207
201.781
202.051
201.978
201.576
200.878
199.861
198.551
196.971
195.146
193.112
190.908
188.579
186.155
183.659
180.966
178.505
176.272
174.074
172.106
170.405
169.042
168.171
167.681
167.527
167.67
167.22
165.964
181.677
234.839
226.193
179.684
163.493
164.48
165.043
165.141
165.443
166.11
167.277
168.895
170.81
173.004
175.34
177.813
180.543
183.242
186.027
188.641
191.142
193.504
195.7
197.687
199.437
200.923
202.125
203.027
203.617
203.897
203.819
203.404
202.686
201.635
200.279
198.636
196.731
194.593
192.26
189.775
187.165
184.407
181.678
178.9
176.243
173.85
171.539
169.5
167.772
166.479
165.725
165.368
165.244
164.667
163.534
179.412
228.357
219.716
177.25
161.045
161.876
162.622
162.963
163.546
164.575
166.218
168.199
170.501
172.938
175.684
178.58
181.448
184.354
187.251
190.055
192.696
195.176
197.462
199.52
201.322
202.847
204.078
204.998
205.6
205.888
205.808
205.384
204.653
203.58
202.189
200.499
198.531
196.311
193.871
191.247
188.461
185.482
182.539
179.643
176.781
173.843
171.321
168.913
166.804
165.043
163.869
163.22
162.835
162.055
161.069
176.96
221.738
213.187
175.039
158.729
159.326
160.236
160.872
161.811
163.435
165.495
167.907
170.465
173.472
176.549
179.576
182.667
185.715
188.779
191.752
194.52
197.094
199.45
201.559
203.398
204.948
206.196
207.128
207.736
208.028
207.948
207.52
206.781
205.693
204.28
202.558
200.545
198.262
195.736
192.998
190.051
186.926
183.766
180.687
177.502
174.481
171.329
168.697
166.177
163.981
162.208
161.168
160.466
159.503
158.763
174.85
215.108
206.486
172.538
156.22
156.739
157.933
158.965
160.523
162.661
165.193
167.882
171.086
174.304
177.571
180.921
184.173
187.464
190.663
193.745
196.611
199.254
201.658
203.798
205.657
207.22
208.475
209.41
210.017
210.309
210.234
209.809
209.068
207.973
206.549
204.81
202.769
200.445
197.86
195.039
191.979
188.777
185.455
182.147
178.749
175.37
172.091
168.728
165.957
163.298
161.04
159.322
158.205
156.927
156.246
172.369
208.343
199.216
169.287
153.421
154.108
155.825
157.51
159.683
162.343
165.175
168.642
172.107
175.729
179.296
182.838
186.302
189.686
192.935
196.039
198.973
201.657
204.085
206.237
208.1
209.663
210.915
211.845
212.448
212.729
212.662
212.256
211.512
210.417
208.993
207.25
205.201
202.857
200.237
197.361
194.253
191.001
187.625
184.115
180.529
176.911
173.178
169.635
166.017
163.048
160.277
157.978
156.166
154.322
153.487
169.209
201.075
191.719
165.173
150.479
151.582
154.214
156.57
159.349
162.346
166.158
169.929
173.854
177.693
181.53
185.233
188.813
192.247
195.527
198.65
201.602
204.302
206.732
208.877
210.73
212.281
213.522
214.443
215.037
215.291
215.257
214.879
214.122
213.035
211.622
209.89
207.849
205.508
202.879
199.975
196.855
193.562
190.1
186.481
182.791
178.89
175.007
170.983
167.159
163.221
160
157.118
154.647
151.849
150.492
164.968
193.486
184.876
161.783
148.097
149.762
153.102
156.191
159.409
163.578
167.683
171.939
176.1
180.217
184.223
188.014
191.662
195.155
198.465
201.587
204.516
207.197
209.603
211.723
213.55
215.078
216.299
217.204
217.799
218.026
217.987
217.637
216.885
215.818
214.425
212.717
210.7
208.381
205.767
202.875
199.773
196.48
192.99
189.316
185.521
181.49
177.275
173.059
168.701
164.513
160.256
156.796
153.609
150.16
148.088
161.452
186.47
178.326
159.717
146.619
148.643
152.663
156.346
160.907
165.426
170.102
174.626
179.042
183.312
187.369
191.248
194.945
198.439
201.727
204.806
207.688
210.329
212.693
214.773
216.563
218.059
219.252
220.137
220.724
220.946
220.899
220.563
219.829
218.786
217.426
215.752
213.776
211.5
208.932
206.092
203.027
199.75
196.264
192.574
188.686
184.602
180.285
175.807
171.238
166.461
161.815
157.147
153.229
149.11
146.768
159.578
179.853
171.111
156.738
145.708
148.194
152.861
158.108
163.173
168.32
173.238
177.996
182.558
186.896
191.004
194.892
198.564
202.027
205.277
208.316
211.136
213.713
216.017
218.041
219.784
221.237
222.398
223.262
223.819
224.053
224.02
223.671
222.959
221.943
220.619
218.992
217.067
214.849
212.342
209.567
206.55
203.313
199.854
196.178
192.292
188.188
183.826
179.22
174.398
169.435
164.196
158.997
153.625
148.724
145.995
156.85
172.628
163.774
154.497
145.721
148.883
155.055
160.914
166.626
172.004
177.151
182.04
186.649
190.989
195.076
198.923
202.544
205.943
209.125
212.095
214.838
217.343
219.574
221.532
223.216
224.624
225.747
226.58
227.121
227.367
227.317
226.96
226.288
225.308
224.027
222.453
220.591
218.446
216.016
213.322
210.373
207.205
203.814
200.195
196.337
192.236
187.889
183.266
178.346
173.14
167.713
161.897
155.896
149.559
146.122
154.784
165.242
157.694
154.012