/*--------------------------------*- C++ -*----------------------------------*\
| =========                 |                                                 |
| \\      /  F ield         | OpenFOAM: The Open Source CFD Toolbox           |
|  \\    /   O peration     | Version:  2212                                  |
|   \\  /    A nd           | Website:  www.openfoam.com                      |
|    \\/     M anipulation  |                                                 |
\*---------------------------------------------------------------------------*/
FoamFile
{
    version     2.0;
    format      ascii;
    arch        "LSB;label=32;scalar=64";
    class       surfaceScalarField;
    location    "0.0982";
    object      phi;
}
// * * * * * * * * * * * * * * * * * * * * * * * * * * * * * * * * * * * * * //

dimensions      [1 0 -1 0 0 0 0];

oriented        oriented;

internalField   nonuniform List<scalar> 
62761
(
2.79188e-05
-0.000231252
1.66539e-05
0.00018668
1.9251e-05
-0.000107423
0.000107203
-1.90311e-05
-1.91373e-05
-0.00011028
0.000109989
1.94281e-05
-0.000108832
0.000108946
2.01598e-05
-0.000108309
-1.92736e-05
-2.0802e-05
-0.000110859
2.1381e-05
-0.000109474
2.09856e-05
-2.01705e-05
-0.000109124
-2.14189e-05
2.17309e-05
-0.000111171
-0.000109907
-0.00029053
-5.71404e-05
6.65951e-05
0.000281075
-6.90505e-05
-0.000114808
9.35282e-05
9.03301e-05
6.48557e-05
-7.8426e-05
1.35704e-05
0.000252596
-2.50353e-05
-0.000310983
8.34225e-05
0.000174329
-1.49942e-05
-0.000197938
3.86028e-05
0.000224013
-0.00017084
-0.000102847
4.96744e-05
0.000152111
-8.8851e-05
-0.000184972
0.000121712
-0.000208797
0.000209194
-5.2096e-05
5.16985e-05
0.000121873
5.5554e-05
-0.00014525
-3.21767e-05
0.000232674
-6.2257e-06
2.32037e-06
-0.000228769
0.000193313
-0.000142669
1.25329e-05
-6.31765e-05
-8.41984e-06
0.000208969
-7.23606e-06
-1.64949e-06
-0.000301992
0.00030351
1.31726e-07
-0.000221127
0.000293251
8.2738e-05
-0.000154862
0.000102947
-3.43064e-07
-0.000126769
2.41649e-05
-0.000122363
-8.48806e-05
6.45747e-05
-0.000284922
-3.26688e-06
0.000286539
0.000285703
9.9152e-05
-0.000322247
-6.26088e-05
0.00010897
-8.00927e-05
-9.79278e-05
-0.000103269
0.000124653
8.38627e-05
-0.000105247
0.000274472
3.41643e-05
-2.18182e-05
-0.000286818
3.37538e-06
-5.32059e-05
-3.5389e-06
5.33694e-05
-5.37403e-07
-6.282e-05
6.67328e-05
-6.15958e-05
-0.000174571
0.00018524
5.09261e-05
6.2497e-06
0.000178238
-0.000165395
-1.90924e-05
0.000189347
-0.000181152
0.000160997
-0.000169193
-0.000128216
-4.92427e-05
6.70919e-05
0.000110366
0.000322987
0.000102035
-0.000235674
0.000243614
-0.000222347
0.000120793
-0.000142061
3.38176e-05
-9.38519e-05
8.71177e-05
-2.70834e-05
0.000132677
-0.000129127
-1.37114e-05
1.01613e-05
-0.000104763
-1.69018e-05
0.000104143
1.75211e-05
5.78713e-05
-7.99491e-05
0.00023518
-0.000213102
-0.00015786
0.000150571
0.000138557
-0.000131268
0.000123118
-0.00015101
-0.000125041
0.000152933
-0.000100424
0.000102109
-9.80315e-05
9.63461e-05
0.000128587
-0.000163329
-0.000197603
0.000106553
-5.89855e-05
0.000150035
-0.000145508
5.99e-05
-4.26074e-05
-0.000296114
7.69935e-05
-4.32967e-05
0.000262417
-5.90738e-05
6.55876e-05
-0.000166334
0.00015982
-0.000370716
-7.27535e-05
0.000141394
0.000302075
0.000100474
9.28223e-05
-0.000124756
-6.85402e-05
-0.000177056
0.000197999
-9.20837e-06
-1.17339e-05
0.000107598
-0.000267609
-0.000140117
0.000300128
-8.33405e-05
-9.97877e-05
9.68961e-05
8.62321e-05
0.000100043
-9.40553e-05
0.000106935
-0.000112922
7.02669e-05
-0.000109151
0.000155968
-0.000117084
-0.000136311
-1.89849e-05
1.89479e-05
0.000136348
0.000135947
-0.000131086
1.19192e-05
-1.67797e-05
-2.74462e-05
-0.000132607
-1.68064e-05
0.000176859
-0.000149143
0.000121363
0.000128981
-0.000101201
0.000154549
-8.91968e-05
-0.000170007
0.000104655
1.63077e-05
0.000116789
-9.05071e-05
-4.25893e-05
-6.67122e-05
0.000157803
-0.000160248
6.91581e-05
-2.10345e-05
0.000306884
1.09951e-05
-0.000296845
-0.000146946
0.000172539
5.01458e-05
-7.57388e-05
-0.000130563
-9.42275e-06
3.67546e-06
-0.000123197
-1.82231e-06
-5.54303e-06
7.40831e-06
-1.67395e-05
-0.000113866
-0.000109416
-6.52204e-05
0.000119862
5.47747e-05
-0.000109859
-1.49437e-05
1.745e-05
0.000107353
-0.000107322
-7.49648e-06
4.96014e-06
-0.000104899
-4.39505e-06
1.97249e-06
-0.000102446
-3.13251e-06
6.79687e-07
-0.000100159
-2.57284e-06
2.85373e-07
-9.81254e-05
-2.21644e-06
1.83314e-07
-9.66706e-05
-1.9808e-06
5.26143e-07
-9.54578e-05
-1.99572e-06
7.83035e-07
-9.46158e-05
-1.94229e-06
1.10042e-06
-9.40654e-05
-2.1214e-06
1.57111e-06
-9.38229e-05
-2.25016e-06
2.00767e-06
-9.3476e-05
-2.43202e-06
2.08518e-06
-2.36105e-06
-9.3565e-05
2.45015e-06
9.44326e-05
-9.44811e-05
-2.31252e-06
9.43487e-05
-2.34809e-06
9.45517e-05
-2.45305e-06
9.50283e-05
-2.59788e-06
9.58808e-05
-2.79469e-06
9.70581e-05
-3.17295e-06
9.86015e-05
-3.52409e-06
0.000100489
-4.10341e-06
0.000102788
-4.87177e-06
0.000105724
-6.06864e-06
0.000108749
-7.41943e-06
0.000111752
-1.04998e-05
0.000111638
-1.48289e-05
0.000114706
-9.58054e-06
6.51283e-06
0.000126258
-4.14338e-06
0.000132908
-8.47231e-06
0.000137739
-1.4253e-05
0.000137137
-1.83823e-05
0.000143177
-1.20891e-05
6.04944e-06
1.15537e-05
0.000155669
-2.48244e-05
-0.000142398
0.00015802
-3.28927e-06
1.97267e-06
0.000164472
-1.07756e-05
0.000165669
-5.67614e-06
-1.71459e-06
0.000171842
-5.65443e-06
0.00017204
-8.08494e-06
-3.25902e-06
0.000178343
-3.24153e-06
0.000177752
-8.9706e-06
-3.3903e-06
0.000183829
-2.09581e-06
0.000182884
-8.52204e-06
-3.14353e-06
0.000188485
-1.51231e-06
0.000187473
-7.73254e-06
-2.77572e-06
0.00019242
-1.15936e-06
0.000191431
-6.73336e-06
-2.54001e-06
0.000195792
-8.31581e-07
0.000194787
-5.89543e-06
-2.13751e-06
0.000198552
-6.22283e-07
0.00019764
-4.9912e-06
-1.72644e-06
0.000200743
-4.6445e-07
0.000200017
-4.10354e-06
-1.50236e-06
0.000202591
-3.45346e-07
0.000202048
-3.53322e-06
-1.25563e-06
0.000204159
-3.12503e-07
0.000203728
-2.93507e-06
-1.03514e-06
0.000205427
-2.33831e-07
0.000205137
-2.44443e-06
-9.58661e-07
0.000206549
-1.63322e-07
0.000206226
-2.04835e-06
-7.62052e-07
0.000207487
-1.76677e-07
0.000207243
-1.77921e-06
-5.86997e-07
0.000208254
-1.79861e-07
0.000208133
-1.47771e-06
-5.14217e-07
0.000208949
-1.818e-07
0.000208911
-1.29211e-06
-4.77546e-07
0.000209599
-1.72891e-07
0.000209554
-1.12191e-06
-4.35541e-07
0.000210208
-1.74379e-07
0.000210155
-1.03729e-06
-3.83892e-07
0.000210768
-1.76139e-07
0.000210761
-9.90189e-07
-3.67019e-07
0.000211314
-1.80693e-07
0.00021131
-9.17082e-07
-3.31106e-07
0.000211836
-1.92032e-07
0.000211866
-8.8877e-07
-3.32822e-07
0.000212368
-2.00271e-07
0.000212389
-8.56879e-07
-2.98713e-07
0.000212938
-2.73431e-07
0.000212921
-8.3226e-07
-2.50826e-07
0.000213508
-3.20304e-07
0.000213527
-8.5848e-07
-2.33137e-07
0.000214081
-3.425e-07
0.000214132
-8.40594e-07
-2.40941e-07
0.000214733
-4.1319e-07
0.000214776
-8.87431e-07
-2.14517e-07
0.000215416
-4.71963e-07
0.000215501
-9.43028e-07
-2.24842e-07
0.000216178
-5.41173e-07
0.000216254
-9.818e-07
-2.15616e-07
0.000217033
-6.43595e-07
0.000217139
-1.10451e-06
-1.98724e-07
0.000217994
-7.67244e-07
0.000218081
-1.14617e-06
-1.68454e-07
0.000219055
-8.98431e-07
0.000219167
-1.26019e-06
-1.33485e-07
0.000220272
-1.09098e-06
0.000220424
-1.39815e-06
9.6046e-08
-1.53201e-06
0.000221851
-1.31267e-06
0.000221672
-0.00022038
0.000221776
-2.71751e-06
-0.000219162
-2.31688e-06
-0.000218089
-1.97703e-06
-0.000217145
-1.71647e-06
-0.00021629
-1.50376e-06
-0.00021552
-1.31408e-06
-0.000214811
-1.18429e-06
-0.000214173
-1.05374e-06
-0.00021355
-9.68162e-07
-0.000213
-8.72602e-07
-0.000212483
-7.9154e-07
-0.000211917
-7.67752e-07
-0.000211391
-7.19152e-07
-0.000210839
-7.34139e-07
-0.000210262
-7.53477e-07
-0.000209686
-7.51655e-07
-0.000209048
-8.11459e-07
-0.000208309
-9.20883e-07
-0.000207476
-1.01395e-06
-0.000206482
-1.17038e-06
-0.000205301
-1.34486e-06
-0.000203954
-1.58116e-06
-0.000202396
-1.87024e-06
-0.000200481
-2.26093e-06
-0.000198109
-2.83653e-06
-0.000195287
-3.44351e-06
-0.000191751
-4.3677e-06
-0.000187616
-5.29421e-06
-0.000182713
-6.41489e-06
-0.000176959
-7.84988e-06
-0.000170438
-9.76219e-06
-0.000163328
-1.27635e-05
-0.000158218
-1.58852e-05
-0.000165798
-1.72443e-05
-0.000142524
-4.32579e-06
-0.000132576
-6.27135e-06
-0.000127666
-1.04533e-05
-0.000133475
-1.09296e-05
-0.000115807
-2.18082e-07
-0.000110107
-7.39274e-07
-0.000106317
-1.81717e-06
-0.000103146
-2.49139e-06
-0.00010054
-2.32049e-06
-9.85283e-05
-1.828e-06
-9.68673e-05
-1.13463e-06
-9.55398e-05
-5.44346e-07
2.56371e-06
-9.46738e-05
-2.37096e-06
-9.41653e-05
3.164e-06
-9.47401e-05
3.0078e-07
-9.42434e-05
1.07447e-06
-9.36397e-05
1.40407e-06
-9.32479e-05
1.69342e-06
-9.32876e-05
2.48997e-06
-2.76291e-06
2.8865e-06
-9.42888e-05
-2.2835e-06
-9.51531e-05
9.54761e-05
-9.57651e-05
-1.99451e-06
9.52127e-05
-2.10747e-06
9.51398e-05
-2.2396e-06
9.52098e-05
-2.418e-06
9.55429e-05
-2.7861e-06
9.61377e-05
-3.19259e-06
9.70856e-05
-3.74244e-06
9.83539e-05
-4.44108e-06
0.00010009
-5.26018e-06
0.00010214
-6.15334e-06
0.00010461
-7.34112e-06
0.000107353
-8.81177e-06
0.000110724
-1.07906e-05
0.000113574
-1.33489e-05
0.000114836
-1.60907e-05
0.00012009
-1.48342e-05
0.000127444
-1.1497e-05
0.000133766
-1.47944e-05
0.000138028
-1.8515e-05
0.000140937
-2.12902e-05
0.000146496
-1.76484e-05
0.000156074
-1.28662e-05
0.000163681
-1.32836e-05
0.000169688
-1.40908e-05
0.000174898
-1.41808e-05
0.0001799
-1.3524e-05
0.00018441
-1.22416e-05
0.000188467
-1.07909e-05
0.000192182
-9.60978e-06
0.000195399
-8.20857e-06
0.000198225
-6.92907e-06
0.000200511
-5.8194e-06
0.000202536
-4.95983e-06
0.000204174
-4.08228e-06
0.000205615
-3.48976e-06
0.000206748
-2.91334e-06
0.000207787
-2.51692e-06
0.000208684
-2.18944e-06
0.000209478
-1.91669e-06
0.000210155
-1.71501e-06
0.000210785
-1.62124e-06
0.000211365
-1.49788e-06
0.000211931
-1.45633e-06
0.000212496
-1.42256e-06
0.000213083
-1.42097e-06
0.000213685
-1.46293e-06
0.000214319
-1.47682e-06
0.000215005
-1.57667e-06
0.000215726
-1.66675e-06
0.000216552
-1.81137e-06
0.000217396
-1.9533e-06
0.000218401
-2.15611e-06
0.000219551
-2.41695e-06
0.000220813
-2.66748e-06
0.000222287
-3.01512e-06
1.7726e-06
-3.45125e-06
0.000223955
1.00123e-07
0.000223513
-1.55267e-06
0.000223314
-3.1786e-06
0.000223391
-0.000222222
0.000223816
-4.78419e-06
-0.000220774
-4.17448e-06
-0.000219549
-3.5497e-06
-0.000218445
-3.0872e-06
-0.000217439
-2.72746e-06
-0.000216572
-2.3753e-06
-0.000215759
-2.13102e-06
-0.000215074
-1.8732e-06
-0.000214387
-1.74346e-06
-0.000213774
-1.58337e-06
-0.000213185
-1.46361e-06
-0.000212647
-1.33115e-06
-0.000212088
-1.32802e-06
-0.000211504
-1.30466e-06
-0.000210918
-1.32112e-06
-0.000210346
-1.32699e-06
-0.000209704
-1.39449e-06
-0.000208949
-1.56651e-06
-0.000208115
-1.75559e-06
-0.000207155
-1.97432e-06
-0.000206044
-2.28145e-06
-0.000204728
-2.66164e-06
-0.000203201
-3.10801e-06
-0.000201341
-3.73086e-06
-0.00019907
-4.53122e-06
-0.000196338
-5.56843e-06
-0.00019313
-6.65143e-06
-0.000189396
-8.10195e-06
-0.000185014
-9.67657e-06
-0.000179888
-1.154e-05
-0.00017429
-1.34482e-05
-0.000168373
-1.56783e-05
-0.000163237
-1.78994e-05
-0.000159196
-1.99257e-05
-0.000156444
-1.99954e-05
-0.000145747
-1.50222e-05
-0.000137121
-1.48974e-05
-0.000132188
-1.53861e-05
-0.000129138
-1.39788e-05
-0.000120246
-9.10967e-06
-0.000113847
-7.13834e-06
-0.000109186
-6.47767e-06
-0.00010556
-6.1173e-06
-0.000102693
-5.1873e-06
-9.98657e-05
-4.65494e-06
-9.80032e-05
-2.99702e-06
-9.67541e-05
-1.79336e-06
-9.58162e-05
-6.36929e-07
-9.47834e-05
4.17597e-08
-9.2696e-05
2.5724e-06
-9.40323e-05
6.53045e-07
-9.35705e-05
1.23167e-06
-9.31225e-05
2.04207e-06
2.20114e-06
-9.60378e-05
-1.92837e-06
2.47575e-06
-9.54277e-05
3.66201e-06
-9.34714e-05
2.64696e-06
-9.446e-05
-1.67692e-06
2.16696e-06
-9.65278e-05
9.68071e-05
-9.7143e-05
-1.34099e-06
9.64287e-05
-1.54989e-06
9.61832e-05
-1.74893e-06
9.60685e-05
-1.99269e-06
9.61501e-05
-2.32113e-06
9.64833e-05
-2.75118e-06
9.69986e-05
-3.3013e-06
9.78482e-05
-4.0421e-06
9.90344e-05
-4.92851e-06
0.00010053
-5.93631e-06
0.000102432
-7.1625e-06
0.000104781
-8.50186e-06
0.000107495
-1.00552e-05
0.000110574
-1.18903e-05
0.000113805
-1.40215e-05
0.000116864
-1.64078e-05
0.000119792
-1.90182e-05
0.000123553
-1.8595e-05
0.00012977
-1.77132e-05
0.000135071
-2.00955e-05
0.000139118
-2.25623e-05
0.000142185
-2.43561e-05
0.000147153
-2.26161e-05
0.000153932
-1.96455e-05
0.000160186
-1.95367e-05
0.000165596
-1.95007e-05
0.000170507
-1.90919e-05
0.000175136
-1.81521e-05
0.000179657
-1.67629e-05
0.000184033
-1.51663e-05
0.000187948
-1.35244e-05
0.000191638
-1.18986e-05
0.000194863
-1.01536e-05
0.000197787
-8.74368e-06
0.000200263
-7.43642e-06
0.000202489
-6.30815e-06
0.000204306
-5.30659e-06
0.000205867
-4.47491e-06
0.000207113
-3.76358e-06
0.000208227
-3.30335e-06
0.000209185
-2.87565e-06
0.000210011
-2.54157e-06
0.000210733
-2.34448e-06
0.000211421
-2.18695e-06
0.000212049
-2.08594e-06
0.000212686
-2.06121e-06
0.000213292
-2.02888e-06
0.000213914
-2.08647e-06
0.000214604
-2.16963e-06
0.000215315
-2.29066e-06
0.000216092
-2.44695e-06
0.000216928
-2.65177e-06
0.00021788
-2.91013e-06
0.00021892
-3.20135e-06
0.000220078
-3.58122e-06
0.000221418
-4.0163e-06
0.000222958
-4.56425e-06
0.000224672
-5.17691e-06
3.94828e-06
-5.97129e-06
0.000226681
2.01909e-06
0.00022587
1.54356e-07
0.000225364
-1.69492e-06
0.00022515
-3.63383e-06
0.000225317
-5.51124e-06
0.00022568
-0.000224486
0.000226408
-7.44776e-06
-0.000222852
-6.42962e-06
-0.000221426
-5.60953e-06
-0.000220088
-4.89623e-06
-0.000218951
-4.23128e-06
-0.000217941
-3.74314e-06
-0.000216998
-3.32309e-06
-0.000216201
-2.93208e-06
-0.000215411
-2.66651e-06
-0.000214718
-2.44001e-06
-0.000214095
-2.20827e-06
-0.000213466
-2.09464e-06
-0.000212854
-1.94531e-06
-0.000212267
-1.91701e-06
-0.000211633
-1.93964e-06
-0.000211015
-1.94015e-06
-0.000210309
-2.03386e-06
-0.000209523
-2.18188e-06
-0.000208637
-2.45337e-06
-0.000207691
-2.70178e-06
-0.000206501
-3.16447e-06
-0.00020512
-3.66308e-06
-0.000203511
-4.27126e-06
-0.000201553
-5.06571e-06
-0.000199185
-6.09937e-06
-0.000196388
-7.32818e-06
-0.000193143
-8.81307e-06
-0.000189491
-1.03038e-05
-0.000185287
-1.23056e-05
-0.000180666
-1.42971e-05
-0.00017578
-1.6426e-05
-0.000170696
-1.85315e-05
-0.00016578
-2.05936e-05
-0.000161191
-2.24885e-05
-0.000157283
-2.38334e-05
-0.00015304
-2.42382e-05
-0.000146405
-2.16562e-05
-0.000140067
-2.12357e-05
-0.000135017
-2.04354e-05
-0.000130261
-1.87341e-05
-0.000123914
-1.54564e-05
-0.000117989
-1.30632e-05
-0.000112985
-1.14813e-05
-0.000108983
-1.0119e-05
-0.000105172
-8.99869e-06
-0.000102749
-7.0772e-06
-0.000100619
-5.12728e-06
-9.89594e-05
-3.45264e-06
-9.72672e-05
-2.32902e-06
-9.59116e-05
-1.31367e-06
-9.49653e-05
-2.93152e-07
-9.31051e-05
2.55507e-06
-9.4309e-05
5.754e-07
-9.36538e-05
1.38693e-06
2.46602e-06
-9.57267e-05
1.49036e-06
-9.74496e-05
-1.18375e-06
1.80612e-06
-9.68435e-05
3.09942e-06
-9.25425e-05
3.33283e-06
-9.41573e-05
2.94886e-06
-9.49428e-05
-8.66107e-07
1.29976e-06
-9.78832e-05
9.81709e-05
-9.85425e-05
-4.9443e-07
9.77402e-05
-7.53017e-07
9.74116e-05
-1.01241e-06
9.71714e-05
-1.3096e-06
9.70799e-05
-1.65739e-06
9.71758e-05
-2.08845e-06
9.74814e-05
-2.62664e-06
9.80707e-05
-3.34044e-06
9.89509e-05
-4.18136e-06
0.00010013
-5.22108e-06
0.000101629
-6.42744e-06
0.000103502
-7.80892e-06
0.000105745
-9.4056e-06
0.000108416
-1.11731e-05
0.000111319
-1.29578e-05
0.000114551
-1.5122e-05
0.0001179
-1.73703e-05
0.000121182
-1.96893e-05
0.000124114
-2.19498e-05
0.000127384
-2.18648e-05
0.00013253
-2.28594e-05
0.000136806
-2.43714e-05
0.000140209
-2.59647e-05
0.000142786
-2.69323e-05
0.00014681
-2.66405e-05
0.00015176
-2.4595e-05
0.000156539
-2.43153e-05
0.000161018
-2.39797e-05
0.000165293
-2.33672e-05
0.000169532
-2.239e-05
0.000173833
-2.10641e-05
0.000178138
-1.94709e-05
0.000182337
-1.77227e-05
0.000186322
-1.58844e-05
0.000190154
-1.39852e-05
0.000193667
-1.22568e-05
0.000196831
-1.05997e-05
0.000199572
-9.04977e-06
0.000201982
-7.71616e-06
0.000204067
-6.56062e-06
0.000205848
-5.54542e-06
0.000207273
-4.72825e-06
0.000208533
-4.13695e-06
0.000209626
-3.63541e-06
0.000210548
-3.26711e-06
0.000211364
-3.00386e-06
0.000212133
-2.85682e-06
0.000212834
-2.76421e-06
0.000213553
-2.74906e-06
0.000214248
-2.78379e-06
0.000214973
-2.8977e-06
0.000215741
-3.06132e-06
0.000216571
-3.28091e-06
0.000217486
-3.57146e-06
0.000218485
-3.91406e-06
0.0002196
-4.32268e-06
0.000220825
-4.81298e-06
0.00022224
-5.44039e-06
0.000223838
-6.17184e-06
0.000225682
-7.03281e-06
0.000227748
-8.05175e-06
6.93146e-06
-9.21466e-06
0.000230013
4.64726e-06
0.000228948
2.36701e-06
0.000228133
1.38278e-07
0.000227576
-2.00331e-06
0.000227275
-4.0996e-06
0.000227396
-6.22483e-06
0.000227787
-8.46908e-06
0.000228634
-0.000227434
0.000229643
-1.06969e-05
-0.000225523
-9.37354e-06
-0.000223758
-8.20629e-06
-0.000222246
-7.13225e-06
-0.000220911
-6.23974e-06
-0.000219652
-5.4974e-06
-0.000218585
-4.81674e-06
-0.000217621
-4.29246e-06
-0.000216708
-3.84963e-06
-0.0002159
-3.47808e-06
-0.00021517
-3.17338e-06
-0.000214438
-2.94315e-06
-0.000213784
-2.75104e-06
-0.000213091
-2.64028e-06
-0.000212427
-2.58229e-06
-0.000211738
-2.6308e-06
-0.00021097
-2.70865e-06
-0.000210096
-2.90963e-06
-0.000209127
-3.1517e-06
-0.000208056
-3.52505e-06
-0.000206739
-4.01884e-06
-0.000205255
-4.64926e-06
-0.000203489
-5.42917e-06
-0.000201293
-6.46807e-06
-0.000198695
-7.66323e-06
-0.000195723
-9.07194e-06
-0.000192334
-1.0717e-05
-0.000188578
-1.25686e-05
-0.000184422
-1.44597e-05
-0.000180049
-1.66791e-05
-0.000175562
-1.87837e-05
-0.000171028
-2.09596e-05
-0.000166578
-2.29817e-05
-0.000162344
-2.48268e-05
-0.000158508
-2.63244e-05
-0.000154998
-2.73429e-05
-0.000151448
-2.77883e-05
-0.000146774
-2.633e-05
-0.000142142
-2.58669e-05
-0.00013772
-2.48571e-05
-0.00013328
-2.3174e-05
-0.000127955
-2.07808e-05
-0.000122563
-1.84552e-05
-0.000117751
-1.6293e-05
-0.000113435
-1.44347e-05
-0.000109734
-1.26992e-05
-0.000106724
-1.00877e-05
-0.000104185
-7.66562e-06
-0.000101565
-6.07298e-06
-9.94204e-05
-4.47329e-06
-9.76418e-05
-3.09215e-06
-9.65591e-05
-1.37568e-06
-9.54629e-05
-5.20742e-07
-9.32986e-05
2.19996e-06
-9.47203e-05
6.44433e-07
2.0719e-06
-9.59925e-05
1.50255e-06
-9.70463e-05
2.5958e-06
-9.27949e-05
6.68768e-07
-9.89144e-05
-2.96815e-07
9.14073e-07
-9.81285e-05
3.74377e-06
-9.29534e-05
2.93201e-06
-9.41404e-05
2.32235e-06
-9.51932e-05
8.52021e-08
2.00422e-07
-9.92e-05
9.95866e-05
-9.99424e-05
4.41012e-07
9.9109e-05
1.80886e-07
9.87163e-05
-1.01706e-07
9.83988e-05
-4.35472e-07
9.82002e-05
-8.13808e-07
9.81531e-05
-1.2624e-06
9.83025e-05
-1.80674e-06
9.86856e-05
-2.47147e-06
9.93018e-05
-3.24277e-06
0.000100281
-4.31934e-06
0.000101523
-5.42318e-06
0.000103097
-6.79481e-06
0.000105017
-8.348e-06
0.000107295
-1.00862e-05
0.000109892
-1.20024e-05
0.00011274
-1.40217e-05
0.000115965
-1.61817e-05
0.000119251
-1.84084e-05
0.000122566
-2.06849e-05
0.000125975
-2.30975e-05
0.000128667
-2.46419e-05
0.000131819
-2.50169e-05
0.000135342
-2.63823e-05
0.000138584
-2.76132e-05
0.000141319
-2.86997e-05
0.000143628
-2.92411e-05
0.00014625
-2.92616e-05
0.000149809
-2.81539e-05
0.000153352
-2.78583e-05
0.000156842
-2.74699e-05
0.000160346
-2.68711e-05
0.000163965
-2.60079e-05
0.000167755
-2.48539e-05
0.000171731
-2.34474e-05
0.000175847
-2.18385e-05
0.000180033
-2.00696e-05
0.000184208
-1.81606e-05
0.000188183
-1.62315e-05
0.000191875
-1.42921e-05
0.000195327
-1.25018e-05
0.000198434
-1.08232e-05
0.000201171
-9.29826e-06
0.000203561
-7.93497e-06
0.000205601
-6.76938e-06
0.000207281
-5.81773e-06
0.000208743
-5.09831e-06
0.000209997
-4.52203e-06
0.000211085
-4.09354e-06
0.000212037
-3.8105e-06
0.000212919
-3.64751e-06
0.000213752
-3.58466e-06
0.000214584
-3.61798e-06
0.000215394
-3.71086e-06
0.000216248
-3.91828e-06
0.000217166
-4.2035e-06
0.000218138
-4.54782e-06
0.000219222
-5.00339e-06
0.000220421
-5.52821e-06
0.00022176
-6.16062e-06
0.000223267
-6.95635e-06
0.000224957
-7.87279e-06
0.000226858
-8.9467e-06
0.000228975
-1.01842e-05
0.000231286
-1.15438e-05
1.04558e-05
-1.3018e-05
0.000233824
7.93242e-06
0.000232512
5.42011e-06
0.000231436
2.9044e-06
0.000230625
3.666e-07
0.00023009
-2.18698e-06
0.000229804
-4.58628e-06
0.000229771
-7.14253e-06
0.000230319
-9.56294e-06
0.00023103
-1.20602e-05
0.000232116
-0.000228784
0.00023102
-1.2952e-05
-0.000226807
-1.13663e-05
-0.000225002
-1.00251e-05
-0.000223333
-8.81176e-06
-0.000221884
-7.6986e-06
-0.000220606
-6.78313e-06
-0.000219398
-6.03112e-06
-0.000218355
-5.34185e-06
-0.000217394
-4.81522e-06
-0.000216493
-4.38355e-06
-0.000215682
-3.98806e-06
-0.000214891
-3.73675e-06
-0.000214092
-3.55283e-06
-0.000213308
-3.42618e-06
-0.000212515
-3.37731e-06
-0.000211653
-3.49517e-06
-0.000210673
-3.68948e-06
-0.000209566
-4.01753e-06
-0.00020832
-4.39899e-06
-0.000206821
-5.02456e-06
-0.000205105
-5.73593e-06
-0.000203024
-6.73085e-06
-0.000200609
-7.84437e-06
-0.000197777
-9.30058e-06
-0.000194525
-1.0915e-05
-0.000190904
-1.26926e-05
-0.000187015
-1.46061e-05
-0.00018285
-1.67335e-05
-0.000178507
-1.88028e-05
-0.000174232
-2.09542e-05
-0.000169966
-2.30497e-05
-0.000165886
-2.50395e-05
-0.000162027
-2.68402e-05
-0.000158669
-2.8184e-05
-0.000155764
-2.92298e-05
-0.000153119
-2.99871e-05
-0.000150601
-3.03064e-05
-0.000147223
-2.97076e-05
-0.000143765
-2.93245e-05
-0.000140225
-2.83969e-05
-0.000136206
-2.71936e-05
-0.000131919
-2.50666e-05
-0.000127466
-2.29087e-05
-0.00012291
-2.08488e-05
-0.000118548
-1.87958e-05
-0.000114977
-1.627e-05
-0.000111549
-1.35161e-05
-0.000108124
-1.10903e-05
-0.000105054
-9.14313e-06
-0.000102351
-7.1758e-06
-0.000100677
-4.76544e-06
-9.88423e-05
-3.21061e-06
-9.74031e-05
-1.95987e-06
1.49354e-06
-9.40138e-05
-9.61433e-05
-6.15304e-07
0.000233543
-1.46082e-05
6.23934e-07
-9.52736e-05
1.73828e-06
-9.62282e-05
2.10502e-06
-9.3523e-05
1.16069e-06
-9.72929e-05
3.42094e-06
-9.2472e-05
6.34197e-07
-9.85623e-05
3.37835e-06
-9.33997e-05
-1.08396e-07
-0.00010041
5.75819e-07
2.38306e-07
-9.95467e-05
2.63494e-06
-9.44529e-05
2.00867e-06
-9.54636e-05
8.14952e-07
-4.46002e-07
-0.000100779
0.000101054
-0.000101534
1.29493e-06
0.000100523
1.10598e-06
0.000100086
8.78608e-07
9.97033e-05
5.63512e-07
9.94261e-05
1.75565e-07
9.92775e-05
-2.86855e-07
9.92992e-05
-8.35393e-07
9.95282e-05
-1.49138e-06
0.000100001
-2.27936e-06
0.00010076
-3.23077e-06
0.000101864
-4.34582e-06
0.000103144
-5.59941e-06
0.000104834
-7.11312e-06
0.000106856
-8.8166e-06
0.000109207
-1.06996e-05
0.000111866
-1.27447e-05
0.000114805
-1.49412e-05
0.000117888
-1.71039e-05
0.000121084
-1.93774e-05
0.000124259
-2.15839e-05
0.00012731
-2.37356e-05
0.000130157
-2.59444e-05
0.000132536
-2.702e-05
0.000135281
-2.7762e-05
0.000137855
-2.89568e-05
0.00014021
-2.99676e-05
0.000142443
-3.09325e-05
0.000144023
-3.08212e-05
0.00014606
-3.12981e-05
0.000148348
-3.04423e-05
0.000150882
-3.03916e-05
0.000153496
-3.00845e-05
0.000156223
-2.95973e-05
0.000159125
-2.89103e-05
0.000162271
-2.79992e-05
0.000165692
-2.6869e-05
0.000169373
-2.55184e-05
0.000173282
-2.39788e-05
0.000177381
-2.22597e-05
0.000181557
-2.04072e-05
0.000185722
-1.84571e-05
0.00018968
-1.64602e-05
0.000193423
-1.4566e-05
0.00019686
-1.27358e-05
0.000199977
-1.10517e-05
0.000202728
-9.52108e-06
0.000205105
-8.19566e-06
0.00020711
-7.10463e-06
0.000208841
-6.25342e-06
0.000210333
-5.58745e-06
0.000211624
-5.10285e-06
0.000212775
-4.80114e-06
0.000213827
-4.63821e-06
0.000214815
-4.60939e-06
0.000215808
-4.70687e-06
0.000216793
-4.90725e-06
0.000217811
-5.22631e-06
0.000218915
-5.65674e-06
0.000220097
-6.19173e-06
0.000221409
-6.84759e-06
0.000222865
-7.62452e-06
0.000224468
-8.56955e-06
0.000226255
-9.67148e-06
0.000228236
-1.09415e-05
0.000230417
-1.23816e-05
0.00023278
-1.39262e-05
0.000235377
-1.56397e-05
1.44905e-05
0.000238147
-1.72955e-05
1.16115e-05
0.000236667
8.83037e-06
0.000235257
6.10377e-06
0.000234125
3.35453e-06
0.000233336
5.8122e-07
0.000232825
-2.25095e-06
0.000232598
-5.18104e-06
0.000232663
-7.77918e-06
0.00023288
-1.06076e-05
0.000233822
-1.34547e-05
0.000234926
-1.62504e-05
0.000236304
-0.000232689
0.000235227
-1.71716e-05
-0.000230361
-1.52996e-05
-0.000228277
-1.34664e-05
-0.000226379
-1.19371e-05
-0.000224661
-1.05423e-05
-0.000223066
-9.30377e-06
-0.000221661
-8.19665e-06
-0.000220398
-7.30202e-06
-0.000219207
-6.53934e-06
-0.00021814
-5.88809e-06
-0.00021716
-5.3677e-06
-0.000216191
-4.96153e-06
-0.000215276
-4.65512e-06
-0.000214358
-4.47403e-06
-0.000213387
-4.39953e-06
-0.000212368
-4.39778e-06
-0.000211229
-4.63652e-06
-0.000209919
-5.00021e-06
-0.000208454
-5.4842e-06
-0.000206706
-6.14762e-06
-0.000204722
-7.00939e-06
-0.000202298
-8.16098e-06
-0.000199571
-9.45866e-06
-0.000196382
-1.10331e-05
-0.000192858
-1.28255e-05
-0.000189017
-1.47556e-05
-0.00018497
-1.67394e-05
-0.000180753
-1.88236e-05
-0.000176615
-2.08711e-05
-0.000172445
-2.29728e-05
-0.000168453
-2.49465e-05
-0.000164695
-2.68069e-05
-0.00016137
-2.83646e-05
-0.000158696
-2.95144e-05
-0.000156275
-3.06043e-05
-0.000153882
-3.16235e-05
-0.000151739
-3.21299e-05
-0.000149829
-3.22162e-05
-0.000147196
-3.23402e-05
-0.000144879
-3.16408e-05
-0.000142225
-3.10506e-05
-0.000139474
-2.99448e-05
-0.000136187
-2.83537e-05
-0.00013235
-2.67453e-05
-0.000128387
-2.48117e-05
-0.000124534
-2.26488e-05
-0.000120649
-2.01538e-05
-0.000116979
-1.71868e-05
-0.000113053
-1.50154e-05
-0.000109494
-1.27021e-05
-0.000107039
-9.63024e-06
-0.000104574
-7.23102e-06
-0.000101906
-5.87857e-06
-0.000100265
-3.60038e-06
-9.86238e-05
-2.25631e-06
-9.70208e-05
-9.78933e-07
0.000237968
-1.90255e-05
-1.23284e-06
4.0822e-07
-9.61961e-05
-9.44013e-05
1.41063e-06
-9.64781e-05
2.80864e-06
-9.29106e-05
8.59261e-07
-9.75179e-05
3.70458e-06
-9.27982e-05
3.21467e-07
-9.86454e-05
3.01414e-06
-9.37789e-05
-1.67304e-07
-9.98254e-05
2.33248e-06
-9.47767e-05
-8.69007e-07
-0.000102005
1.34051e-06
-6.11602e-07
-0.000101036
1.70504e-06
-9.5758e-05
1.56306e-05
-1.86219e-05
0.000241086
1.26717e-05
0.00023957
9.64163e-06
0.000238227
6.61093e-06
0.000237094
3.65638e-06
0.000236227
6.94471e-07
0.000235722
-2.32295e-06
0.00023555
-5.40554e-06
0.000235681
-8.63747e-06
0.000236049
-1.16651e-05
0.000236788
-1.47385e-05
0.000237941
-1.77619e-05
0.000239272
-2.06662e-05
0.00024082
-0.000237052
0.000239741
-2.17479e-05
-0.000234586
-1.96624e-05
-0.000232173
-1.77333e-05
-0.000229995
-1.5662e-05
-0.000227962
-1.3985e-05
-0.000226118
-1.23995e-05
-0.000224449
-1.09841e-05
-0.00022287
-9.78552e-06
-0.000221475
-8.70555e-06
-0.000220173
-7.8484e-06
-0.000218964
-7.10364e-06
-0.0002178
-6.53684e-06
-0.000216687
-6.0788e-06
-0.000215557
-5.7886e-06
-0.000214394
-5.6408e-06
-0.000213178
-5.61775e-06
-0.000211779
-5.79909e-06
-0.000210219
-6.19937e-06
-0.000208465
-6.75575e-06
-0.000206421
-7.52905e-06
-0.000204051
-8.51894e-06
-0.000201261
-9.79994e-06
-0.000198163
-1.12597e-05
-0.000194627
-1.2996e-05
-0.000190801
-1.48589e-05
-0.000186754
-1.68725e-05
-0.000182678
-1.88325e-05
-0.00017841
-2.10069e-05
-0.000174347
-2.28863e-05
-0.000170404
-2.48142e-05
-0.000166752
-2.66252e-05
-0.000163375
-2.83235e-05
-0.000160614
-2.95672e-05
-0.000158182
-3.07968e-05
-0.000155913
-3.17837e-05
-0.000153822
-3.26952e-05
-0.000152186
-3.32585e-05
-0.000150827
-3.34894e-05
-0.000149255
-3.3788e-05
-0.000148056
-3.35392e-05
-0.000146055
-3.36417e-05
-0.000144273
-3.28329e-05
-0.000142228
-3.19894e-05
-0.000139874
-3.07073e-05
-0.000136954
-2.96656e-05
-0.000133823
-2.79418e-05
-0.000130298
-2.61736e-05
-0.000126706
-2.37463e-05
-0.000122643
-2.12495e-05
-0.000118668
-1.89903e-05
-0.000115594
-1.57758e-05
-0.000112349
-1.28748e-05
-0.000108599
-1.09808e-05
-0.000106438
-8.0397e-06
-0.000103616
-6.42174e-06
-0.000101421
-4.45129e-06
-9.96973e-05
-2.70251e-06
-9.80746e-05
-1.21438e-06
1.3898e-06
-2.37709e-06
-9.52087e-05
-9.6985e-05
3.0028e-07
-2.35096e-05
0.000242537
1.44191e-06
-9.99606e-07
-0.000102447
0.000102686
-0.000103275
2.03147e-06
0.000102064
1.96249e-06
0.000101538
1.82099e-06
0.000101068
1.57527e-06
0.000100717
1.23016e-06
0.000100494
7.8647e-07
0.000100423
2.46652e-07
0.000100537
-4.00573e-07
0.000100871
-1.16915e-06
0.000101457
-2.07787e-06
0.000102326
-3.14768e-06
0.000103491
-4.39564e-06
0.00010497
-5.82474e-06
0.000106809
-7.43904e-06
0.000108961
-9.26481e-06
0.000111417
-1.12724e-05
0.000114143
-1.34256e-05
0.000117092
-1.56934e-05
0.000120119
-1.79674e-05
0.00012326
-2.02446e-05
0.000126305
-2.24228e-05
0.000129179
-2.44575e-05
0.000131802
-2.6359e-05
0.000133969
-2.81113e-05
0.000135913
-2.89631e-05
0.000138093
-2.99426e-05
0.000139963
-3.08264e-05
0.000141901
-3.19049e-05
0.000142926
-3.19579e-05
0.000144516
-3.24107e-05
0.000145519
-3.23012e-05
0.000147369
-3.2292e-05
0.00014917
-3.21933e-05
0.00015107
-3.19845e-05
0.000153113
-3.16399e-05
0.000155344
-3.11406e-05
0.000157811
-3.04668e-05
0.000160563
-2.96207e-05
0.000163644
-2.85993e-05
0.000167028
-2.73623e-05
0.000170699
-2.59312e-05
0.000174641
-2.43488e-05
0.000178757
-2.25735e-05
0.000182986
-2.06891e-05
0.000187123
-1.87028e-05
0.000191147
-1.67605e-05
0.000194931
-1.48365e-05
0.000198422
-1.30126e-05
0.000201573
-1.13476e-05
0.000204342
-9.87411e-06
0.000206737
-8.64976e-06
0.000208813
-7.66516e-06
0.000210613
-6.90423e-06
0.000212178
-6.36909e-06
0.000213574
-6.03658e-06
0.000214861
-5.89949e-06
0.000216075
-5.92409e-06
0.000217266
-6.10257e-06
0.00021848
-6.44518e-06
0.000219732
-6.91539e-06
0.000221067
-7.53301e-06
0.000222508
-8.29703e-06
0.000224091
-9.21648e-06
0.00022582
-1.03097e-05
0.000227719
-1.15836e-05
0.000229796
-1.30331e-05
0.000232029
-1.46312e-05
0.0002345
-1.64177e-05
0.000237131
-1.82958e-05
0.000239894
-2.00914e-05
-2.16476e-05
0.00024287
-9.39697e-05
1.12864e-06
-9.67474e-05
-2.31282e-06
1.32853e-06
-9.60006e-05
-2.69795e-06
-9.48236e-05
3.49066e-06
-9.26967e-05
5.97977e-07
-9.77944e-05
3.34502e-06
-9.31291e-05
1.10304e-07
-9.8923e-05
2.72354e-06
-9.41699e-05
-4.52059e-07
-9.99849e-05
2.06506e-06
-9.51367e-05
-6.58494e-07
-0.000101377
1.4578e-06
-9.60871e-05
-1.37799e-06
1.9032e-06
-0.0001038
-1.12024e-06
-0.000102705
-0.000241686
0.000244456
-2.63238e-05
-0.000239075
-2.43911e-05
-0.000236489
-2.2273e-05
-0.000234202