/*--------------------------------*- C++ -*----------------------------------*\
| =========                 |                                                 |
| \\      /  F ield         | OpenFOAM: The Open Source CFD Toolbox           |
|  \\    /   O peration     | Version:  2212                                  |
|   \\  /    A nd           | Website:  www.openfoam.com                      |
|    \\/     M anipulation  |                                                 |
\*---------------------------------------------------------------------------*/
FoamFile
{
    version     2.0;
    format      ascii;
    arch        "LSB;label=32;scalar=64";
    class       volVectorField;
    location    "0.0096";
    object      U;
}
// * * * * * * * * * * * * * * * * * * * * * * * * * * * * * * * * * * * * * //

dimensions      [0 1 -1 0 0 0 0];

internalField   nonuniform List<vector> 
2308
(
(-1.63218 2.42198 -1.02348e-15)
(0.686508 0.749052 0)
(-0.591436 6.01428 7.23973e-17)
(0.261292 1.39484 -3.61068e-16)
(0.0594256 2.33755 0)
(0.336013 2.27694 -2.13589e-20)
(-0.302347 2.28397 8.76573e-21)
(-0.429986 2.28332 -4.98688e-16)
(-0.0714836 2.33285 9.07509e-16)
(-0.0448646 1.92382 -1.20478e-16)
(-0.0499233 1.94255 2.14972e-16)
(-0.0387117 1.97493 -3.15805e-16)
(-0.0270669 2.0195 1.56309e-16)
(-0.0200573 2.06766 -7.91369e-17)
(-0.0132572 2.1193 1.3478e-17)
(-0.00553652 2.17087 1.12004e-16)
(0.00347719 2.21686 1.50011e-17)
(-0.0179518 2.26852 3.46301e-17)
(0.00274992 2.21786 4.66213e-17)
(-0.00298073 2.16466 3.4504e-18)
(0.000832226 2.11284 2.63145e-17)
(0.00683857 2.06189 -7.69214e-17)
(0.0113559 2.01484 9.8814e-17)
(0.0123018 1.97577 -4.55473e-17)
(0.0177328 1.9439 -1.95841e-16)
(0.0237146 1.92795 -9.31522e-17)
(0.0321953 1.92472 4.76532e-17)
(-0.00208204 1.93331 -5.24411e-17)
(-0.186161 2.3147 0)
(0.00945921 2.25826 -3.19578e-16)
(0.00509661 1.95327 2.79257e-18)
(0.00971643 1.98326 7.15359e-19)
(0.0105692 2.02144 -1.22351e-17)
(0.0115442 2.06549 1.15615e-17)
(0.011431 2.11366 -1.22969e-17)
(0.0114082 2.16382 1.15779e-17)
(0.0108575 2.2148 -5.78599e-18)
(0.0101672 2.26514 5.78294e-18)
(0.00911343 2.31396 -5.77819e-18)
(0.00796464 2.36011 2.88692e-18)
(0.00685522 2.40339 5.78145e-18)
(0.00570155 2.44314 8.68476e-18)
(0.00447885 2.47952 -1.74078e-17)
(0.00320154 2.5126 1.16374e-17)
(0.00162697 2.54275 5.81897e-18)
(-0.232189 2.54145 -5.83745e-18)
(-0.228658 2.51106 5.8183e-18)
(-0.224488 2.47791 -8.70832e-18)
(-0.219582 2.44076 -9.42929e-18)
(-0.213676 2.4006 1.44861e-17)
(-0.206753 2.35674 -2.8966e-18)
(-0.198777 2.31038 5.80305e-18)
(-0.190247 2.26036 1.4496e-18)
(-0.181161 2.2103 -8.70272e-18)
(-0.171656 2.15903 -2.90575e-18)
(-0.16137 2.10836 5.80928e-18)
(-0.151185 2.06051 0)
(-0.140198 2.01675 -7.2229e-19)
(-0.129645 1.97903 -2.37395e-17)
(-0.115816 1.94989 -8.18106e-17)
(-0.101679 1.93999 9.64058e-17)
(-0.12547 1.90549 9.9438e-17)
(-0.127383 1.9256 1.14122e-16)
(-0.120666 1.92333 -1.9427e-20)
(-0.107295 1.94314 1.27949e-16)
(-0.0906017 1.9785 -2.3713e-16)
(-0.069131 2.01505 -5.44015e-17)
(-0.0484821 2.06225 0)
(-0.0277214 2.11218 0)
(-0.00599719 2.16205 0)
(0.0176096 2.20867 0)
(0.000137969 2.56973 -2.91111e-18)
(-0.235359 2.56918 2.92593e-18)
(-0.0578873 2.19432 -1.60838e-16)
(-0.0104218 2.15144 -3.25188e-18)
(0.018726 2.1005 1.27421e-17)
(0.0396159 2.04726 0)
(0.058603 1.99954 -2.44346e-17)
(0.0757696 1.95926 -2.39078e-17)
(0.0905197 1.93461 1.19951e-17)
(0.107084 1.91879 4.80993e-17)
(0.119122 1.91091 0)
(0.124421 1.9248 -7.24375e-21)
(0.133988 1.94649 8.91626e-20)
(0.146274 1.97669 -1.15506e-17)
(0.159181 2.01481 1.73321e-17)
(0.171193 2.05916 3.49921e-21)
(0.182578 2.1074 -1.01319e-17)
(0.192492 2.15802 0)
(0.20153 2.20993 -1.4477e-18)
(0.209645 2.2607 8.68081e-18)
(0.216297 2.31004 -1.15685e-17)
(0.221953 2.35686 -1.79018e-21)
(0.226655 2.40072 1.15826e-17)
(0.23057 2.44081 0)
(0.233354 2.47776 1.1598e-17)
(0.23506 2.51113 6.76182e-22)
(0.235875 2.54142 -5.82061e-18)
(-0.0482196 2.30156 -1.36942e-16)
(0.236242 2.569 -5.82503e-18)
(0.00884152 2.28855 1.39679e-16)
(0.0415833 2.24954 -7.43474e-21)
(-0.449694 2.56737 -5.86039e-18)
(-0.445303 2.53802 7.31795e-18)
(-0.439995 2.50721 0)
(-0.433258 2.47231 -2.18846e-18)
(-0.425127 2.43412 5.09951e-18)
(-0.415185 2.39255 5.82567e-18)
(-0.403345 2.34704 -5.82595e-18)
(-0.3898 2.29918 0)
(-0.375123 2.24813 -1.45465e-18)
(-0.358918 2.19691 2.9166e-18)
(-0.341243 2.14425 -2.16972e-22)
(-0.322905 2.09306 -2.9174e-18)
(-0.303663 2.04489 0)
(-0.283751 2.00106 4.37402e-18)
(-0.262974 1.96421 -1.74191e-17)
(-0.244272 1.93607 -1.16481e-17)
(-0.230847 1.91704 4.73012e-17)
(-0.222209 1.89415 1.75324e-16)
(-0.211066 1.90214 1.32319e-17)
(-0.195386 1.9036 1.25795e-16)
(-0.168915 1.92337 -5.68722e-17)
(-0.139767 1.96009 0)
(-0.111284 1.99816 0)
(-0.0796609 2.04287 0)
(-0.0452222 2.09038 1.88227e-16)
(-0.00840321 2.13874 -2.18569e-16)
(0.0294551 2.18449 2.22703e-16)
(-0.538242 2.23507 -4.00571e-16)
(0.423722 2.2203 0)
(0.262878 2.27455 0)
(0.340566 2.26456 0)
(-0.0981023 2.22468 3.20684e-16)
(-0.0100947 2.18307 9.07183e-17)
(0.0126816 2.1284 -9.80614e-22)
(0.0470686 2.07439 -1.54264e-18)
(0.081117 2.02123 1.53421e-18)
(0.112498 1.97436 1.21633e-17)
(0.140812 1.93598 -2.40447e-17)
(0.166788 1.9114 1.46443e-21)
(0.191948 1.89648 0)
(0.215399 1.89114 5.31722e-17)
(0.235205 1.9041 3.49059e-17)
(0.256248 1.92679 -5.78935e-18)
(0.278252 1.95787 5.78384e-18)
(0.300013 1.99684 0)
(0.320872 2.0416 0)
(0.340762 2.09104 -7.25381e-19)
(0.359276 2.14275 0)
(0.376183 2.1959 4.35057e-18)
(0.391414 2.24813 6.31872e-22)
(0.404926 2.29891 -2.90094e-18)
(0.416728 2.3475 0)
(0.426991 2.39239 -2.90157e-18)
(0.435239 2.43379 4.3571e-18)
(0.441715 2.47246 -7.26986e-18)
(0.446672 2.50699 0)
(0.450037 2.53806 -1.16393e-17)
(0.451993 2.56656 2.91513e-18)
(0.453162 2.59218 4.95981e-22)
(0.236006 2.59384 0)
(-0.00103438 2.59452 -1.46041e-18)
(-0.237598 2.59402 -4.75588e-18)
(-0.320821 2.30526 4.3551e-16)
(-0.45317 2.59213 3.66733e-19)
(-0.77187 2.12799 -1.25624e-15)
(-0.998246 2.0341 -2.88936e-16)
(0.0582126 2.28246 0)
(-0.554416 2.29656 4.16379e-16)
(-0.0830307 2.34059 -8.71194e-16)
(-0.0125861 2.32037 5.71693e-17)
(0.0676158 2.22663 -3.36741e-16)
(0.453843 2.61622 -2.92585e-18)
(0.235879 2.61754 -2.9255e-18)
(-0.00170117 2.61782 -3.65993e-19)
(-0.239031 2.61738 5.85598e-18)
(-0.455651 2.61615 3.67212e-19)
(-0.63567 2.61361 0)
(-0.631949 2.58947 2.94194e-18)
(-0.62716 2.5632 5.87923e-18)
(-0.621377 2.53325 -1.46962e-18)
(-0.614281 2.50054 -5.87034e-18)
(-0.605612 2.46404 -6.59168e-18)
(-0.594916 2.42407 8.78828e-18)
(-0.581951 2.38068 2.93009e-18)
(-0.56685 2.33282 -5.86565e-18)
(-0.549896 2.28226 4.39741e-18)
(-0.530815 2.22998 -1.282e-18)
(-0.509892 2.17665 0)
(-0.487502 2.12248 0)
(-0.463738 2.07002 0)
(-0.438795 2.02086 5.8752e-18)
(-0.412912 1.97678 -2.94425e-18)
(-0.386754 1.93866 -4.13919e-21)
(-0.361019 1.90949 -2.37347e-17)
(-0.336879 1.88783 0)
(-0.315501 1.87357 -2.493e-17)
(-0.293307 1.87402 2.57797e-17)
(-0.270129 1.87706 5.30602e-17)
(-0.240546 1.89262 2.70576e-17)
(-0.194745 1.92881 1.07955e-16)
(-0.157056 1.96883 -1.06837e-16)
(-0.114823 2.01048 0)
(-0.0676501 2.05458 2.64736e-17)
(-0.016044 2.09941 -5.32187e-17)
(0.0378213 2.14293 -1.0785e-16)
(-0.176794 2.28046 5.16927e-17)
(-1.07221 2.82 0)
(0.175288 2.3368 -8.268e-21)
(-0.606878 2.19766 5.53391e-16)
(-0.513158 2.21734 -1.18228e-16)
(-0.401293 2.22228 1.34566e-16)
(-0.308092 2.22512 -2.56052e-17)
(-0.226986 2.21812 5.00544e-17)
(-0.154496 2.20022 -2.44924e-17)
(-0.0871432 2.17229 0)
(-0.0266991 2.13135 -2.37229e-17)
(0.03126 2.08029 -2.40694e-17)
(0.0837114 2.02972 0)
(0.130893 1.98211 0)
(0.173103 1.9386 1.50935e-18)
(0.211595 1.9035 -1.35021e-17)
(0.24682 1.87896 0)
(0.279898 1.86556 0)
(0.310296 1.86313 -1.77344e-17)
(0.338752 1.87535 -1.17289e-17)
(0.367209 1.89825 2.33548e-17)
(0.395646 1.93018 5.83159e-18)
(0.423677 1.9709 1.45783e-18)
(0.450874 2.01572 5.82883e-18)
(0.476456 2.06743 -6.56015e-18)
(0.500665 2.12034 0)
(0.522938 2.17519 -2.91349e-18)
(0.543241 2.22937 0)
(0.561522 2.2827 0)
(0.577836 2.33276 0)
(0.591893 2.37944 -1.16583e-17)
(0.603662 2.42349 0)
(0.613474 2.46409 -6.55274e-18)
(0.621253 2.49992 1.09224e-18)
(0.626892 2.53288 2.29486e-17)
(0.630801 2.5626 0)
(0.633537 2.5894 -1.16639e-17)
(0.635688 2.61386 1.82195e-19)
(-0.0835802 6.65282 0)
(-0.700575 2.17949 6.83074e-16)
(2.12428 3.03746 1.09381e-15)
(0.0829893 1.31026 0)
(-1.50148 5.83258 -3.29733e-16)
(-0.977269 2.03514 1.43049e-15)
(0.106957 2.25996 -4.07346e-20)
(-0.122676 2.33164 1.08589e-16)
(-0.769436 2.60987 -3.69512e-19)
(-0.76428 2.58492 -2.95206e-18)
(-0.758376 2.55796 2.95045e-18)
(-0.751147 2.52622 0)
(-0.742676 2.49198 0)
(-0.732404 2.45371 3.68054e-19)
(-0.72006 2.41143 -1.4718e-18)
(-0.705461 2.36598 -5.1456e-18)
(-0.6889 2.31555 3.67508e-19)
(-0.670315 2.26306 -7.58087e-19)
(-0.649658 2.20854 -9.02307e-19)
(-0.627045 2.15269 4.04806e-18)
(-0.602624 2.09752 3.67742e-19)
(-0.576824 2.04261 -2.94954e-18)
(-0.54963 1.99258 0)
(-0.521169 1.94709 1.18224e-17)
(-0.491931 1.90817 -3.57479e-21)
(-0.462261 1.87755 5.98252e-17)
(-0.433119 1.85517 -4.84356e-17)
(-0.404198 1.84278 0)
(-0.373474 1.83973 5.06927e-17)
(-0.341091 1.8486 -1.55371e-16)
(-0.310236 1.8508 7.8803e-17)
(-0.260026 1.88362 1.0482e-16)
(-0.21035 1.93016 6.61122e-21)
(-0.156481 1.96577 -1.03885e-16)
(-0.0966925 2.00462 1.03889e-16)
(-0.0313244 2.04466 1.04374e-16)
(0.0399569 2.08238 -1.04312e-16)
(0.0911151 2.1828 -2.14004e-16)
(-0.388803 2.29689 7.29145e-21)
(-1.07515 1.67967 -4.8846e-20)
(-0.653655 2.06462 -9.77106e-17)
(-0.562503 2.11175 -1.294e-17)
(-0.459982 2.12983 -3.83421e-17)
(-0.356114 2.13785 -1.25251e-17)
(-0.257346 2.13548 0)
(-0.165029 2.12197 2.43167e-17)
(-0.0797813 2.09767 -1.2018e-17)
(-0.000672665 2.06353 -1.19708e-17)
(0.0691672 2.02188 6.01477e-18)
(0.132443 1.97678 6.03167e-18)
(0.189289 1.93306 1.20618e-17)
(0.240216 1.89391 0)
(0.286201 1.86308 1.1968e-17)
(0.327455 1.84015 -1.17496e-17)
(0.365923 1.82885 -1.85952e-19)
(0.401086 1.8288 -3.55414e-17)
(0.434143 1.84163 2.9474e-18)
(0.466226 1.86545 -1.46748e-17)
(0.497568 1.89865 0)
(0.527994 1.94024 -4.75181e-18)
(0.557246 1.98667 3.64744e-19)
(0.58484 2.03957 6.58239e-18)
(0.61091 2.09431 0)
(0.635279 2.15094 0)
(0.657829 2.20786 -1.82852e-19)
(0.67844 2.26289 -5.66359e-18)
(0.696994 2.31462 5.85189e-18)
(0.713237 2.36429 7.31093e-18)
(0.727299 2.41096 -1.45967e-18)
(0.739325 2.45284 4.37935e-18)
(0.749094 2.49064 -1.46176e-18)
(0.756768 2.52608 -1.16916e-17)
(0.76281 2.55691 1.16795e-17)
(0.767483 2.58516 2.6278e-17)
(0.77135 2.61008 1.16685e-17)
(0.774927 2.63261 0)
(0.637681 2.63608 -6.01867e-18)
(0.454763 2.63841 -4.83839e-22)
(0.23609 2.63979 6.59698e-18)
(-0.00215182 2.64012 2.19787e-18)
(-0.240168 2.63927 -2.93429e-18)
(-0.457684 2.63743 5.88019e-18)
(-0.638794 2.63455 -5.88311e-18)
(-0.773878 2.631 -2.95136e-18)
(1.99679 3.46405 -4.06712e-16)
(0.774545 5.84919 -9.35244e-17)
(-1.79868 2.1619 -1.62774e-16)
(-0.885636 2.15608 -6.94039e-16)
(-1.32433 2.42222 -3.43606e-16)
(1.0831 3.58908 9.77503e-17)
(0.113991 2.11771 0)
(0.134102 2.21967 4.28288e-16)
(-0.566386 2.29556 1.01095e-15)
(-0.878181 2.21435 4.14422e-16)
(-0.900988 2.57129 -4.16776e-16)
(0.0512464 2.36205 8.91558e-16)
(-0.753288 1.973 0)
(-0.629316 1.99569 1.27113e-17)
(-0.503715 2.01543 -3.13703e-18)
(-0.38249 2.0301 -5.87193e-17)
(-0.267486 2.03338 1.22105e-17)
(-0.159665 2.02595 0)
(-0.0599037 2.00852 -2.2457e-21)
(0.0314368 1.98243 -2.99776e-18)
(0.113851 1.94951 0)
(0.187797 1.91274 -6.00502e-18)
(0.252839 1.87511 -6.00155e-18)
(0.310298 1.84231 0)
(0.360976 1.81638 1.49296e-18)
(0.406463 1.79734 -1.4954e-18)
(0.447201 1.78921 1.48813e-18)
(0.483841 1.79222 2.224e-17)
(0.517726 1.80665 0)
(0.549644 1.83219 2.9475e-18)
(0.580081 1.86671 -1.47146e-18)
(0.609118 1.90911 3.67709e-19)
(0.636809 1.95806 1.10383e-18)
(0.663305 2.01172 -6.62024e-18)
(0.68822 2.06808 0)
(0.711798 2.12701 1.46946e-18)
(0.733864 2.18564 2.93592e-18)
(0.754339 2.24133 2.93859e-18)
(0.772919 2.29633 1.07363e-21)
(0.789641 2.3485 -1.46554e-18)
(0.804515 2.39646 -4.39469e-18)
(0.817407 2.44011 -2.93224e-18)
(0.828314 2.48079 -2.93e-18)
(0.837535 2.51733 0)
(0.845192 2.55 -1.17123e-17)
(0.851604 2.57959 -1.17018e-17)
(0.857154 2.60489 -8.76292e-18)
(0.862284 2.62772 -1.60582e-17)
(0.867549 2.64752 7.30294e-18)
(0.778689 2.65281 -5.84286e-18)
(0.640114 2.65702 0)
(0.455983 2.65986 2.9334e-18)
(0.236272 2.66104 2.9379e-18)
(-0.00293003 2.66137 -5.86964e-18)
(-0.241521 2.66053 5.88464e-18)
(-0.459759 2.6587 7.49052e-23)
(-0.641967 2.65537 -2.94633e-18)
(-0.778381 2.65074 8.84844e-18)
(-0.865761 2.64522 -8.89067e-18)
(-0.860006 2.62612 1.48187e-18)
(-0.854155 2.6047 -1.10977e-18)
(-0.847939 2.57875 2.21877e-18)
(-0.840773 2.55129 -7.37854e-18)
(-0.832709 2.51783 2.76946e-18)
(-0.823285 2.48228 0)
(-0.812236 2.44196 3.69538e-19)
(-0.799427 2.39813 5.17346e-18)
(-0.784762 2.34982 -7.38503e-19)
(-0.768269 2.29768 1.84452e-18)
(-0.749961 2.24328 -1.52874e-22)
(-0.72989 2.18678 7.44346e-19)
(-0.708123 2.12844 -3.69345e-19)
(-0.68468 2.07207 2.58614e-18)
(-0.659805 2.01516 -8.87138e-18)
(-0.633427 1.9639 1.31485e-21)
(-0.605836 1.91623 5.93685e-18)
(-0.577116 1.87666 -5.96072e-18)
(-0.547411 1.84407 -4.79716e-17)
(-0.516405 1.82068 4.83722e-17)
(-0.484196 1.80682 0)
(-0.449752 1.79953 -9.98716e-17)
(-0.410577 1.81222 7.55538e-17)
(-0.372287 1.81002 -7.67411e-17)
(-0.330685 1.83575 0)
(-0.266767 1.87652 0)
(-0.2027 1.90755 0)
(-0.131493 1.94043 -1.27131e-17)
(-0.0520555 1.97253 -1.344e-20)
(0.0340285 2.00278 2.025e-16)
(-0.224144 2.33866 -4.5488e-16)
(0.187056 2.15265 2.14452e-16)
(0.158691 2.25802 -2.01833e-16)
(-0.236557 2.28696 2.56297e-17)
(-0.7465 2.3014 4.86319e-16)
(-1.05927 2.19715 4.15155e-16)
(-1.10634 2.09161 3.36909e-20)
(-1.12522 1.99143 -4.32523e-16)
(-1.20774 1.61671 -3.01374e-16)
(-0.853366 1.9056 -2.99641e-16)
(-0.954365 1.82101 1.08251e-16)
(-0.797675 1.84486 -2.51329e-17)
(-0.657748 1.86618 -4.96092e-17)
(-0.51974 1.88759 0)
(-0.385528 1.9061 4.89882e-17)
(-0.257577 1.91556 0)
(-0.137891 1.91595 0)
(-0.0274022 1.90706 1.20099e-17)
(0.0733914 1.89076 2.9969e-18)
(0.164772 1.86698 0)
(0.245728 1.8396 5.99135e-18)
(0.316349 1.81144 -1.01301e-22)
(0.377645 1.78594 1.24119e-21)
(0.430765 1.76648 5.96903e-18)
(0.477296 1.75295 6.70701e-18)
(0.517407 1.74969 -6.69915e-18)
(0.552806 1.75662 -1.22483e-17)
(0.5846 1.77363 3.70474e-19)
(0.61361 1.80186 -2.22011e-18)
(0.640767 1.83744 7.38711e-19)
(0.666156 1.88166 2.95569e-18)
(0.6902 1.93202 -2.21609e-18)
(0.713038 1.98708 2.95337e-18)
(0.73478 2.04465 -9.62313e-23)
(0.755447 2.10544 -7.37037e-18)
(0.774999 2.16406 2.95118e-18)
(0.793329 2.22214 2.94929e-18)
(0.810334 2.27954 -4.40996e-18)
(0.825954 2.33243 5.87942e-18)
(0.840151 2.3818 5.88566e-18)
(0.852743 2.42813 0)
(0.863921 2.46994 1.76381e-17)
(0.873798 2.50806 2.93778e-18)
(0.882389 2.54231 2.92996e-18)
(0.889952 2.57225 0)
(0.896735 2.59869 0)
(0.903038 2.62173 8.77116e-18)
(0.909288 2.64141 1.46076e-22)
(0.915926 2.65858 -1.45999e-18)
(0.873459 2.6656 1.46093e-18)
(0.783401 2.67191 0)
(0.643674 2.67676 0)
(0.458059 2.68083 -1.46603e-18)
(0.236878 2.68329 4.39878e-18)
(-0.00358684 2.68351 0)
(-0.243305 2.68215 -2.94577e-18)
(-0.46283 2.67893 -2.9452e-18)
(-0.646213 2.6743 5.89656e-18)
(-0.783658 2.66846 -2.95237e-18)
(-0.871983 2.66157 8.88512e-18)
(-0.914044 2.65432 1.48508e-18)
(-0.9073 2.63892 1.48583e-18)
(-0.900796 2.62017 2.97131e-18)
(-0.894185 2.59801 0)
(-0.88714 2.57203 -1.11333e-18)
(-0.879413 2.54278 -2.783e-19)
(-0.870684 2.50924 1.66922e-18)
(-0.860907 2.47183 -3.71016e-19)
(-0.84995 2.42995 -7.41445e-19)
(-0.837674 2.3846 -5.92271e-18)
(-0.824131 2.33458 1.48087e-18)
(-0.809104 2.28074 -3.70371e-18)
(-0.792644 2.22468 1.85088e-18)
(-0.774792 2.16667 -7.40028e-19)
(-0.75571 2.10666 0)
(-0.735153 2.04846 0)
(-0.713214 1.99093 0)
(-0.69029 1.93707 -2.96867e-18)
(-0.665997 1.88847 0)
(-0.64001 1.8471 8.6294e-22)
(-0.61231 1.81254 2.39512e-17)
(-0.58292 1.78694 -1.20549e-17)
(-0.550957 1.77068 2.43672e-17)
(-0.516253 1.75977 7.40852e-17)
(-0.475288 1.76881 -6.06803e-21)
(-0.430478 1.7688 -2.50703e-17)
(-0.387564 1.78299 -5.00183e-17)
(-0.324275 1.81142 9.92677e-17)
(-0.25115 1.8401 -4.98386e-17)
(-0.170844 1.86459 -4.27328e-21)
(-0.0815051 1.8868 2.47981e-17)
(0.0169235 1.9082 -1.30981e-20)
(0.124891 2.03307 -3.08575e-16)
(-0.408597 2.35476 -4.67814e-16)
(-0.0308322 2.3681 8.827e-16)
(2.13634 3.80884 0)
(0.21903 2.0615 -2.10327e-16)
(-1.26057 1.83724 7.75216e-16)
(-1.26479 1.92535 -4.13457e-16)
(-1.29081 2.04994 -7.91138e-16)
(0.267424 2.2872 -6.74666e-17)
(-0.389369 2.27611 -6.42734e-17)
(-0.127023 2.33203 -2.5627e-17)
(0.265058 2.17943 1.90332e-20)
(-0.946182 2.30802 -4.76514e-16)
(-1.2739 2.16639 3.97348e-16)
(0.923326 2.67266 -1.46184e-18)
(0.880673 2.68096 -1.46108e-18)
(0.789821 2.68892 0)
(0.64888 2.69638 -1.46597e-18)
(0.461871 2.70237 1.46812e-18)
(0.238718 2.70589 -1.46706e-18)
(-0.00393026 2.70661 1.46905e-18)
(-0.245799 2.70412 2.9442e-18)
(-0.467111 2.69902 -2.94713e-18)
(-0.651918 2.69183 5.89849e-18)
(-0.790339 2.6834 -8.86836e-18)
(-0.879292 2.67469 0)
(-0.921408 2.66651 1.164e-22)
(-0.923826 2.65872 0)
(-0.917169 2.64723 -8.92107e-18)
(-0.910622 2.6318 2.97708e-18)
(-0.903984 2.61331 0)
(-0.897174 2.5905 0)
(-0.889874 2.56422 7.4398e-19)
(-0.882084 2.53428 -9.29985e-20)
(-0.873617 2.49967 0)
(-0.864308 2.46152 -3.71862e-19)
(-0.854184 2.41856 3.71672e-19)
(-0.843156 2.37181 1.48506e-18)
(-0.831205 2.32105 7.41819e-19)
(-0.81837 2.26604 1.48399e-18)
(-0.804585 2.20847 -1.73349e-22)
(-0.789862 2.14926 -2.96786e-18)
(-0.774152 2.08878 7.42654e-19)
(-0.757522 2.02841 2.97006e-18)
(-0.739956 1.97025 7.42099e-19)
(-0.721235 1.91512 -1.4871e-18)
(-0.701299 1.86516 2.97536e-18)
(-0.679637 1.82119 -8.94062e-18)
(-0.655764 1.78461 -1.19551e-17)
(-0.629363 1.75621 6.00969e-18)
(-0.599798 1.73591 -1.21042e-17)
(-0.56626 1.72234 0)
(-0.527113 1.72365 -3.68939e-17)
(-0.481005 1.71995 7.45506e-17)
(-0.430399 1.73329 0)
(-0.371608 1.74609 0)
(-0.296378 1.76268 0)
(-0.210433 1.7786 1.83202e-17)
(-0.114528 1.79151 -8.16554e-21)
(-0.00799428 1.80155 -1.1756e-20)
(0.123541 1.92868 -1.98599e-16)
(0.336219 2.29117 -4.67128e-16)
(-0.613048 2.37258 1.03534e-19)
(0.32843 1.18098 3.87321e-16)
(-0.856798 6.34813 0)
(-0.812796 1.71069 -2.36474e-17)
(-0.655825 1.72601 0)
(-0.506852 1.74954 0)
(-0.364269 1.77162 1.2122e-17)
(-0.229095 1.7876 -2.41607e-17)
(-0.102768 1.79684 0)
(0.0133941 1.79712 1.20266e-17)
(0.119725 1.79138 0)
(0.215106 1.77818 -2.99426e-18)
(0.299044 1.7618 2.99159e-18)
(0.371836 1.74406 -1.4955e-17)
(0.434105 1.72775 1.24336e-21)
(0.487254 1.71621 -5.96578e-18)
(0.532196 1.71004 1.19312e-17)
(0.570251 1.71244 8.92983e-18)
(0.602819 1.72393 -8.92812e-18)
(0.631187 1.74462 0)
(0.656328 1.77525 2.39883e-22)
(0.678694 1.81324 -4.45008e-18)
(0.699439 1.85901 0)
(0.718718 1.91065 0)
(0.736955 1.96674 1.48213e-18)
(0.75438 2.02558 4.44266e-18)
(0.771184 2.08659 -2.96047e-18)
(0.787338 2.14634 2.95388e-18)
(0.802453 2.20594 -5.90284e-18)
(0.816807 2.26452 -1.47664e-18)
(0.830345 2.31752 -1.18109e-17)
(0.842855 2.36893 5.89956e-18)
(0.854315 2.41636 0)
(0.864834 2.45905 -1.17901e-17)
(0.874338 2.49906 -5.88168e-18)
(0.883012 2.53352 0)
(0.8909 2.56424 5.8816e-18)
(0.89814 2.59179 -3.12476e-22)
(0.904962 2.61503 8.79404e-18)
(0.911525 2.63439 8.78103e-18)
(0.918165 2.65134 0)
(0.925039 2.66442 -2.92537e-18)
(0.185668 2.39667 -4.3492e-16)
(-0.224511 2.40419 -8.93818e-16)
(0.00664353 6.25913 1.34373e-16)
(0.349237 2.18774 -1.86781e-16)
(-1.20862 2.2732 8.06111e-16)
(0.305945 2.08666 -1.69611e-21)
(-0.894062 2.65099 1.48733e-18)
(-0.888715 2.63975 7.44032e-18)
(-0.883134 2.62423 -5.95726e-18)
(-0.877225 2.60535 0)
(-0.870978 2.58247 0)
(-0.864301 2.55555 0)
(-0.857228 2.52534 0)
(-0.849684 2.49032 1.48917e-18)
(-0.841589 2.4512 -7.44332e-19)
(-0.832889 2.40787 3.72143e-19)
(-0.823617 2.35998 -2.23183e-18)
(-0.813781 2.3087 1.48712e-18)
(-0.803412 2.25347 7.43094e-19)
(-0.792491 2.19511 -1.11496e-18)
(-0.780996 2.13489 0)
(-0.768889 2.074 1.8389e-23)
(-0.756227 2.01292 -7.43269e-19)
(-0.742798 1.95385 7.43635e-19)
(-0.728401 1.89774 1.48759e-18)
(-0.712561 1.84584 -1.67458e-18)
(-0.695022 1.79994 1.67553e-18)
(-0.675438 1.76066 -4.47677e-18)
(-0.652426 1.72885 -8.9809e-18)
(-0.626148 1.70466 6.01221e-18)
(-0.595054 1.6868 0)
(-0.55782 1.68104 -5.10273e-21)
(-0.514549 1.67111 -3.68066e-17)
(-0.463485 1.67821 3.05811e-17)
(-0.402873 1.67886 -6.12332e-18)
(-0.330717 1.68552 0)
(-0.245545 1.68958 -6.04127e-18)
(-0.148722 1.69107 8.3402e-17)
(-0.0406528 1.68974 -4.63134e-17)
(0.109605 1.80946 1.87872e-16)
(0.420894 2.24195 9.56512e-16)
(-0.837714 2.41535 1.25043e-19)
(0.932374 2.67388 -7.32047e-19)
(0.931821 2.68277 4.39256e-18)
(0.889655 2.69286 7.31141e-19)
(0.79865 2.70412 0)
(0.656806 2.71529 -1.46666e-18)
(0.467677 2.72467 1.46698e-18)
(0.24165 2.73074 -2.20459e-18)
(-0.00423715 2.7323 -5.14626e-18)
(-0.249294 2.72858 5.88801e-18)
(-0.47333 2.72019 0)
(-0.659849 2.70899 -2.95071e-18)
(-0.799219 2.69722 8.86275e-18)
(-0.888371 2.68587 -5.91821e-18)
(-0.929873 2.67558 -2.96297e-18)
(-0.930849 2.66668 4.44649e-18)
(-0.899064 2.65916 -5.93963e-18)
(0.486638 2.26427 9.05792e-16)
(-1.45137 2.21005 -3.68262e-16)
(-1.47196 2.03088 3.75403e-16)
(-1.43335 1.86813 7.52168e-16)
(-1.3555 1.74187 3.56977e-16)
(0.14228 2.34822 -4.99898e-20)
(0.409439 2.253 2.74907e-16)
(-0.912622 0.985571 0)
(0.194677 1.28411 0)
(-0.78958 1.54374 0)
(-0.62312 1.57507 5.99801e-18)
(-0.467994 1.60473 -1.20772e-17)
(-0.322561 1.63229 -8.89678e-22)
(-0.186081 1.65565 3.62148e-17)
(-0.0590197 1.6739 -2.41073e-17)
(0.0577493 1.68439 1.51022e-21)
(0.164149 1.68941 1.19898e-17)
(0.258626 1.68807 -2.09566e-17)
(0.341344 1.68313 2.99057e-18)
(0.412487 1.67651 1.19573e-17)
(0.472893 1.67042 -2.98866e-18)
(0.523769 1.66747 2.98553e-18)
(0.566054 1.66925 -8.95165e-18)
(0.601131 1.67829 2.98023e-18)
(0.630195 1.69488 8.92845e-18)
(0.654374 1.71993 -5.95092e-18)
(0.675141 1.75306 5.94864e-18)
(0.693256 1.79372 2.23016e-18)
(0.709567 1.84106 5.20344e-18)
(0.724336 1.89394 -6.68823e-18)
(0.738223 1.95084 4.45845e-18)
(0.751521 2.01043 -8.1688e-18)
(0.764257 2.07151 -5.93852e-18)
(0.776515 2.13254 5.93337e-18)
(0.788476 2.19214 2.96203e-18)
(0.799915 2.25098 -2.96089e-18)
(0.810738 2.30522 0)
(0.820903 2.35742 -5.91491e-18)
(0.830585 2.40518 2.95491e-18)
(0.839538 2.44953 -5.8973e-18)
(0.847846 2.48925 -8.84724e-18)
(0.855675 2.52455 -5.89698e-18)
(0.863016 2.55615 -1.17622e-17)
(0.869846 2.58386 2.93513e-18)
(0.876233 2.60714 -2.93606e-18)
(0.882335 2.62688 -5.87083e-18)
(0.888128 2.64367 0)
(0.893733 2.65636 0)
(0.899191 2.66566 0)
(0.0105709 6.18189 0)
(0.235404 1.95053 -2.78849e-21)
(0.340045 2.23794 1.012e-15)
(0.416327 2.43411 4.31492e-16)
(-0.450866 2.44635 4.43811e-16)
(-0.0123965 2.45933 8.73058e-16)
(0.259095 2.33302 -4.6848e-16)
(-0.0041659 6.23142 -1.1512e-16)
(-0.194066 6.8316 0)
(0.23929 2.31814 -5.32989e-16)
(0.380059 2.10684 -2.17517e-16)
(0.0764823 1.67112 -8.31262e-17)
(0.0490883 2.33404 -1.39908e-15)
(1.83485 3.87721 4.24796e-16)
(0.561332 1.12509 3.80994e-16)
(0.299182 6.29485 -6.20035e-17)
(-0.842669 2.64991 -2.97133e-18)
(-0.84011 2.64102 -7.42891e-19)
(-0.836554 2.62963 -2.23251e-18)
(-0.832391 2.61417 5.10335e-23)
(-0.827827 2.59497 0)
(-0.82281 2.57206 0)
(-0.817519 2.54515 0)
(-0.811851 2.51443 -3.72583e-19)
(-0.805811 2.47952 -4.65393e-19)
(-0.799435 2.43996 4.65316e-19)
(-0.792664 2.39664 -3.72196e-19)
(-0.785571 2.34844 9.30274e-19)
(-0.778022 2.29681 -1.11675e-18)
(-0.770102 2.24134 0)
(-0.761927 2.18295 0)
(-0.753283 2.1223 0)
(-0.744209 2.06112 0)
(-0.734735 1.9998 0)
(-0.724606 1.93985 0)
(-0.713455 1.88281 -3.72179e-19)
(-0.701019 1.82953 1.4887e-18)
(-0.686904 1.78173 0)
(-0.670398 1.73976 -3.72818e-18)
(-0.650972 1.70443 6.72052e-18)
(-0.627599 1.67625 5.98955e-18)
(-0.599677 1.65441 0)
(-0.56638 1.63933 1.81719e-17)
(-0.525804 1.62513 -1.82318e-17)
(-0.477295 1.62308 -6.04893e-18)
(-0.419856 1.61387 1.21411e-17)
(-0.351934 1.60989 -1.81464e-17)
(-0.272693 1.60183 9.00807e-18)
(-0.179488 1.58925 -2.36713e-17)
(-0.0706585 1.57394 5.82637e-18)
(0.0497989 1.57383 1.79624e-16)
(0.541202 2.23591 5.08437e-16)
(-1.7731 2.59198 6.83706e-16)
(-1.63259 2.88636 3.32668e-16)
(0.904173 2.67074 0)
(0.940163 2.67905 -1.07059e-23)
(0.941835 2.68921 -1.46444e-18)
(0.901193 2.70188 -7.32086e-19)
(0.810905 2.71722 -1.83374e-19)
(0.668288 2.73381 1.83358e-19)
(0.476604 2.74933 0)
(0.246532 2.76021 0)
(-0.00439062 2.76315 2.207e-18)
(-0.254623 2.75692 -5.88674e-18)
(-0.482555 2.7434 7.36878e-18)
(-0.67126 2.72611 0)
(-0.811343 2.70833 -5.90198e-18)
(-0.899837 2.6924 5.91154e-18)
(-0.939768 2.67973 1.47936e-18)
(-0.938327 2.67004 1.48055e-18)
(-0.90349 2.66219 0)
(-0.843824 2.65368 0)
(-0.299961 2.32188 0)
(-1.66282 2.2231 3.54235e-16)
(-1.64462 2.02019 0)
(-1.57358 1.83055 -7.3973e-16)
(-1.4712 1.66577 3.7287e-16)
(-1.3606 1.53741 6.76031e-16)
(-1.27271 5.96519 -1.03934e-16)
(-0.743632 2.72983 4.13478e-16)
(-0.854618 1.37372 1.25879e-17)
(-0.704687 1.39613 -9.77386e-17)
(-0.553257 1.42701 4.2538e-17)
(-0.405508 1.4607 -4.85063e-17)
(-0.265252 1.49437 -2.11793e-17)
(-0.13395 1.52549 3.02083e-17)
(-0.0124575 1.55247 6.02637e-18)
(0.0993867 1.57377 -3.0054e-17)
(0.200193 1.58945 1.79995e-17)
(0.289549 1.60039 0)
(0.367327 1.60737 -1.49607e-17)
(0.434002 1.61182 8.96885e-18)
(0.490149 1.61582 1.49419e-17)
(0.536814 1.62193 2.98677e-18)
(0.575115 1.63157 -1.19437e-17)
(0.606285 1.64704 -5.96748e-18)
(0.631806 1.66905 0)
(0.65281 1.6982 0)
(0.670071 1.7343 -1.48944e-18)
(0.684845 1.77718 -7.4461e-19)
(0.697571 1.82616 7.44673e-18)
(0.708986 1.88013 1.48978e-18)
(0.719605 1.93759 -5.21034e-18)
(0.729569 1.99758 -1.28639e-22)
(0.738939 2.05885 0)
(0.747968 2.12013 0)
(0.756837 2.18017 -5.9443e-18)
(0.765239 2.23858 8.90883e-18)
(0.7733 2.29374 -2.96712e-18)
(0.781082 2.34578 -4.97865e-22)
(0.788415 2.39421 2.95639e-18)
(0.795334 2.43859 2.95689e-18)
(0.80193 2.47829 1.77322e-17)
(0.808145 2.51436 0)
(0.814012 2.54616 8.83636e-18)
(0.819551 2.5734 -8.83316e-18)
(0.824757 2.59701 5.88595e-18)
(0.82956 2.61714 -5.87524e-18)
(0.833881 2.63352 5.8746e-18)
(0.837693 2.64666 0)
(0.840729 2.65608 0)
(0.842552 2.66188 -2.9335e-18)
(0.676305 2.20433 8.86963e-16)
(0.241409 1.82456 -1.91387e-16)
(-1.54092 2.65323 -3.50782e-16)
(0.933269 2.26093 8.59725e-16)
(0.816209 2.36279 -1.07389e-19)
(0.66305 2.47263 8.61346e-16)
(0.343737 1.97392 2.10407e-16)
(-0.70547 2.48932 -9.35925e-16)
(0.224112 2.52281 0)
(-0.241351 2.53613 0)
(0.29682 6.53558 -6.80451e-17)
(1.97495 2.52339 -4.24782e-16)
(-1.31131 5.71846 2.89828e-17)
(0.165971 2.24265 -8.43899e-16)
(0.0815099 1.40325 -9.63172e-17)
(0.592146 2.18866 -5.64693e-16)
(-0.00321322 6.26463 0)
(-0.0458064 6.15707 -5.9753e-17)
(-0.019415 1.43426 0)
(-0.112282 1.47315 3.00241e-18)
(-0.203565 1.49878 5.98851e-18)
(-0.285646 1.52044 2.24945e-18)
(-0.357256 1.53785 3.76328e-19)
(-0.418483 1.55195 0)
(-0.470352 1.56809 7.53969e-18)
(-0.513472 1.58061 -7.54948e-18)
(-0.54942 1.60008 3.0014e-18)
(-0.579404 1.62157 -5.98499e-18)
(-0.604161 1.64749 1.49297e-18)
(-0.624786 1.6796 0)
(-0.641627 1.71806 2.98085e-18)
(-0.655899 1.76218 -1.49072e-18)
(-0.667862 1.81158 1.48944e-18)
(-0.678009 1.86598 -2.60704e-18)
(-0.686963 1.92381 3.02585e-18)
(-0.695053 1.98395 1.45049e-22)
(-0.702507 2.04535 -1.5829e-18)
(-0.709377 2.10666 7.44956e-19)
(-0.715706 2.16706 -8.38037e-19)
(-0.721687 2.22533 0)
(-0.727313 2.28047 3.72564e-19)
(-0.732647 2.33212 -1.86318e-19)
(-0.737647 2.37986 -7.45445e-19)
(-0.742231 2.42315 6.46355e-19)
(-0.746527 2.46216 9.31784e-20)
(-0.750549 2.49677 -3.72643e-19)
(-0.754246 2.52744 0)
(-0.757723 2.55356 0)
(-0.761003 2.57638 -1.49056e-18)
(-0.76391 2.59489 8.19304e-18)
(-0.766324 2.61038 -1.48981e-18)
(-0.767914 2.62198 0)
(-0.768077 2.63098 5.95039e-18)
(-0.766164 2.63621 -9.017e-23)
(0.0394558 6.02656 3.19922e-16)
(0.842577 2.66305 2.93287e-18)
(0.908389 2.67088 0)
(0.948363 2.67867 -7.33364e-19)
(0.953664 2.69024 7.32598e-19)
(0.915938 2.70666 1.83308e-18)
(0.827518 2.72826 -1.46679e-18)
(0.6847 2.75345 3.67166e-19)
(0.490307 2.778 7.34958e-19)
(0.254551 2.79572 5.14961e-18)
(-0.00439461 2.80093 -7.35497e-18)
(-0.262435 2.79133 -5.8903e-18)
(-0.496005 2.77021 5.89536e-18)
(-0.687544 2.74351 -7.37227e-19)
(-0.827602 2.7172 1.47547e-18)
(-0.914171 2.69529 -5.90679e-18)
(-0.951165 2.67925 -1.4768e-18)
(-0.946063 2.6682 5.91648e-18)
(-0.907162 2.66074 0)
(-0.843229 2.65346 2.96164e-18)
(-0.761627 2.63742 -1.48311e-18)
(0.726564 2.14859 4.64978e-16)
(0.24097 1.68856 -1.67359e-16)
(1.01372 2.16332 -4.27242e-16)
(-0.0898325 6.4011 0)
(-0.0705077 6.33692 0)
(-0.017239 6.32845 -1.10526e-16)
(0.0241152 6.35207 -2.7689e-17)
(0.0747053 6.41649 -3.45092e-17)
(-0.00984494 6.31982 -8.48368e-17)
(-0.101625 6.19285 1.1823e-16)
(-0.189987 6.05064 6.42874e-17)
(0.244742 1.10728 0)
(0.242203 5.93203 -6.3276e-17)
(1.9276 2.28003 -1.37527e-19)
(2.27018 2.70258 3.8011e-16)
(2.0243 2.69185 -3.62987e-16)
(1.14936 2.25169 -4.30235e-16)
(1.04891 2.38424 0)
(0.912116 2.52367 0)
(0.450271 1.99669 4.39558e-16)
(0.872162 2.13673 8.66745e-16)
(0.078494 6.46524 -8.48588e-17)
(-1.8315 2.29464 3.54295e-16)
(-1.79772 2.02873 -3.66989e-16)
(-1.70146 1.80729 0)
(-1.56673 1.62946 -7.79e-16)
(-1.42402 1.4831 3.91852e-16)
(-1.10752 1.39901 -5.28104e-16)
(-1.12611 1.18016 -3.22858e-16)
(-0.886169 1.21011 1.02263e-16)
(-0.741995 1.23142 -1.13853e-16)
(-0.600529 1.25394 4.99965e-17)
(-0.46208 1.28539 -4.92672e-17)
(-0.327367 1.32266 0)
(-0.198897 1.36246 -3.03815e-18)
(-0.0787101 1.40178 -4.54408e-18)
(0.0322219 1.43783 1.81071e-17)
(0.133642 1.46923 6.01665e-18)
(0.224063 1.49602 -3.00231e-17)
(0.304263 1.51784 1.19891e-17)
(0.374004 1.53541 1.4964e-17)
(0.433626 1.55011 -1.19619e-17)
(0.483535 1.56363 7.47269e-18)
(0.524743 1.57809 -7.47111e-18)
(0.558552 1.59514 -2.9879e-18)
(0.586135 1.61651 8.95662e-18)
(0.608588 1.64305 1.49241e-18)
(0.626901 1.67573 5.96689e-18)
(0.641882 1.71474 -5.96518e-18)
(0.654359 1.75948 0)
(0.664999 1.80971 -1.49118e-18)
(0.674484 1.86428 -7.4546e-19)
(0.682946 1.92206 -7.45455e-18)