/*--------------------------------*- C++ -*----------------------------------*\
| =========                 |                                                 |
| \\      /  F ield         | OpenFOAM: The Open Source CFD Toolbox           |
|  \\    /   O peration     | Version:  2212                                  |
|   \\  /    A nd           | Website:  www.openfoam.com                      |
|    \\/     M anipulation  |                                                 |
\*---------------------------------------------------------------------------*/
FoamFile
{
    version     2.0;
    format      ascii;
    arch        "LSB;label=32;scalar=64";
    class       volVectorField;
    location    "6.9e-05";
    object      U;
}
// * * * * * * * * * * * * * * * * * * * * * * * * * * * * * * * * * * * * * //

dimensions      [0 1 -1 0 0 0 0];

internalField   nonuniform List<vector> 
56928
(
(1.40588e-11 4.04408e-11 -3.62237e-12)
(4.18435e-12 2.38138e-12 -5.79757e-12)
(1.44972e-11 -3.79181e-11 1.09e-11)
(-1.719e-11 1.42027e-11 -2.38653e-11)
(-1.77845e-11 9.11455e-12 -4.71207e-12)
(-2.6574e-13 2.15638e-11 1.19143e-11)
(1.61705e-11 -1.10672e-12 6.00926e-13)
(3.16117e-12 3.51292e-12 1.09646e-11)
(1.62398e-11 1.26961e-11 1.08844e-11)
(-1.78861e-13 -1.14262e-11 -2.43411e-11)
(-1.77135e-11 2.69499e-11 1.25936e-11)
(-3.43191e-12 -3.0802e-12 1.76919e-11)
(-2.26487e-11 -1.06465e-11 7.65648e-12)
(-2.55792e-11 -2.0935e-11 -5.87487e-12)
(-2.37771e-11 1.96475e-11 1.31206e-11)
(6.07118e-13 -2.07391e-11 3.64776e-12)
(4.54412e-11 5.47499e-12 -5.63834e-12)
(4.32395e-11 6.25226e-12 -7.92454e-12)
(5.56658e-12 -1.47487e-11 3.37885e-11)
(2.06722e-11 -1.52739e-11 -7.18957e-12)
(2.75318e-13 1.33606e-12 -1.687e-12)
(-2.08098e-12 9.04551e-12 -4.90881e-12)
(-2.26825e-11 3.21184e-12 -1.81156e-11)
(2.63599e-11 6.40659e-12 1.60282e-12)
(2.99017e-11 6.85836e-12 1.41986e-11)
(4.75522e-12 -4.27736e-12 2.10776e-11)
(-2.48735e-13 -1.2661e-11 -8.51601e-12)
(-2.62423e-11 -1.28088e-11 -1.2517e-11)
(2.67201e-11 -3.47423e-12 1.20641e-11)
(-4.37815e-11 2.90953e-12 8.53509e-12)
(-4.70539e-11 6.86835e-12 -1.51669e-12)
(-4.44805e-12 -1.07702e-11 -7.26116e-12)
(-1.0484e-12 -7.9287e-12 -1.37687e-11)
(-8.2054e-12 4.44274e-12 -3.08032e-11)
(-5.46533e-11 1.86982e-11 1.27513e-11)
(-6.29405e-11 -6.24151e-12 3.26474e-12)
(-5.57144e-11 2.51833e-11 1.28628e-11)
(4.45416e-11 -1.63892e-11 1.9545e-12)
(-6.01582e-11 -1.26628e-11 -1.1671e-11)
(3.58062e-13 2.69271e-11 1.19051e-11)
(7.52335e-11 -1.77427e-11 1.08381e-11)
(2.03035e-12 -3.35613e-12 2.78143e-12)
(3.29296e-12 7.49103e-12 3.10177e-12)
(4.77525e-11 1.79284e-12 5.62623e-12)
(4.46616e-10 -1.58693e-11 -1.46558e-11)
(3.95405e-10 1.0418e-11 1.65057e-11)
(3.32459e-10 -3.09976e-11 -9.51615e-12)
(7.10382e-13 -2.32517e-11 5.31193e-12)
(-6.97513e-13 8.5162e-12 -5.87889e-12)
(-1.235e-12 2.58098e-12 8.70037e-12)
(-1.59396e-11 4.61929e-12 1.26244e-11)
(-2.9841e-12 3.07098e-12 -1.39939e-12)
(-9.04441e-13 -4.58877e-13 -4.07357e-12)
(1.64961e-12 1.55088e-12 -2.3545e-12)
(-2.05176e-12 7.38735e-12 -1.46688e-11)
(-1.50888e-11 -5.78432e-12 3.46759e-12)
(-1.62648e-12 -6.39545e-12 -1.37632e-12)
(6.48485e-13 1.8512e-11 -3.46722e-12)
(1.73786e-11 1.85706e-11 -4.22118e-12)
(5.09258e-13 -1.63183e-11 1.53668e-12)
(-1.80699e-12 -6.1834e-12 8.83905e-12)
(-3.81754e-12 5.77602e-13 3.93931e-12)
(-1.95419e-11 -7.66802e-12 9.10906e-12)
(-6.96115e-13 -1.09289e-11 1.63139e-12)
(-1.62712e-11 2.06822e-11 -1.18526e-11)
(-3.25852e-12 -2.68968e-11 1.00195e-11)
(-2.22266e-11 1.17476e-11 1.38028e-11)
(-2.35038e-11 -1.72728e-11 2.62708e-11)
(-1.02005e-12 -1.98883e-11 -2.34854e-11)
(-9.85716e-13 2.58791e-11 4.12262e-12)
(2.39517e-11 -3.28426e-12 -3.1862e-13)
(4.9909e-12 -7.57154e-12 1.83191e-11)
(3.11322e-11 1.11995e-11 -1.02839e-11)
(3.78961e-11 1.07583e-11 4.15127e-13)
(3.60674e-11 -3.30141e-12 4.78871e-13)
(1.81707e-12 -8.05044e-12 3.36736e-12)
(-3.32522e-11 -1.29253e-11 -6.23196e-12)
(3.81657e-11 1.59299e-11 1.30136e-12)
(4.98707e-11 -1.9256e-12 1.50314e-11)
(1.84589e-12 -9.27422e-12 9.20532e-12)
(-4.51259e-11 -7.35141e-12 -1.14016e-11)
(-5.49891e-11 -7.3084e-12 -1.96759e-11)
(-5.92593e-11 2.64123e-11 -1.88696e-12)
(-1.07405e-11 -1.70902e-12 -7.57175e-12)
(-5.41144e-11 1.20512e-11 1.6011e-12)
(-1.23e-11 1.45779e-11 -2.13095e-12)
(-3.57312e-12 1.04777e-11 -5.29189e-12)
(-8.61263e-11 -2.94209e-11 1.71948e-12)
(-1.10262e-10 -9.53718e-12 -1.45202e-11)
(-5.12739e-12 3.18118e-12 -1.00862e-11)
(6.12058e-12 -1.34796e-11 2.7219e-12)
(5.88687e-11 2.08978e-12 -4.39999e-12)
(3.00224e-10 -4.36568e-13 2.29933e-11)
(8.35786e-11 1.9511e-11 8.23666e-12)
(-1.72395e-12 2.24092e-11 3.80559e-13)
(-1.41978e-11 4.18967e-12 -5.67729e-14)
(-2.17867e-12 1.88658e-12 -8.44654e-13)
(-1.24239e-12 8.61247e-12 1.09129e-11)
(-1.5304e-12 2.46611e-11 -2.51971e-12)
(-1.22921e-11 6.89369e-12 -4.98143e-12)
(1.18747e-11 -3.94504e-12 1.44097e-11)
(-1.29812e-11 -2.28049e-11 -1.70293e-11)
(-2.26524e-12 8.97118e-12 -7.31448e-13)
(-2.16405e-13 -4.05493e-12 -4.64563e-12)
(6.32526e-14 4.35343e-12 6.27595e-12)
(8.9923e-13 1.84584e-12 -1.35141e-11)
(-7.73704e-13 4.47439e-12 -4.5328e-12)
(-2.44623e-13 2.67529e-12 1.63887e-11)
(-9.74236e-14 -1.31502e-11 1.18474e-12)
(-2.22336e-13 7.29112e-12 1.33779e-11)
(5.68828e-14 -1.05604e-11 -7.28794e-12)
(-3.16416e-13 -2.6586e-12 1.87101e-11)
(-2.57591e-12 -3.77896e-12 -1.66904e-11)
(-1.89078e-11 -1.06249e-11 1.70305e-12)
(-2.5498e-12 1.3111e-12 6.30984e-12)
(1.807e-11 3.70029e-12 1.43777e-11)
(-2.31556e-11 2.5002e-12 -1.63553e-12)
(-2.69972e-11 -1.05526e-11 4.86705e-13)
(-2.44153e-11 -1.50494e-11 -2.95192e-13)
(3.69165e-12 -6.79042e-12 4.46646e-12)
(3.0831e-11 -1.47054e-11 7.1387e-12)
(5.36284e-12 3.4547e-12 5.70567e-12)
(-1.40871e-12 -1.13607e-11 1.44403e-12)
(-1.53349e-12 2.15266e-12 -7.62187e-12)
(7.80639e-12 -5.41234e-12 -2.74019e-12)
(4.11625e-11 -6.7369e-12 -1.34222e-11)
(7.8254e-12 -2.40687e-12 -4.82638e-12)
(3.93356e-11 2.20488e-11 -5.40869e-12)
(-4.27731e-13 -7.15247e-12 2.07499e-12)
(-4.34045e-11 1.97474e-11 4.23552e-13)
(4.89195e-11 4.69999e-13 7.91733e-12)
(5.02285e-13 2.00551e-12 -9.00133e-12)
(-4.89011e-11 1.8803e-12 5.00664e-12)
(6.33676e-11 5.4719e-13 1.84615e-11)
(-1.11769e-11 -1.6456e-11 -1.39096e-11)
(-9.27042e-11 2.00235e-11 4.65208e-12)
(1.04299e-10 1.19274e-12 1.14056e-11)
(3.77161e-12 1.00529e-11 1.89028e-11)
(-4.57818e-12 1.72203e-11 1.07482e-11)
(5.31252e-11 -2.09637e-11 8.14853e-13)
(2.76262e-10 -1.18925e-11 8.8832e-12)
(-4.3638e-14 -2.47786e-11 2.58075e-12)
(-2.15838e-13 1.0022e-11 8.10459e-12)
(-7.37681e-13 -2.76007e-11 -1.27067e-12)
(-7.38683e-13 -1.17621e-12 6.4027e-13)
(-1.75839e-13 1.86403e-12 -5.86632e-12)
(5.5575e-14 8.96939e-12 3.96853e-12)
(1.29963e-11 -6.31838e-12 4.08978e-12)
(1.22286e-13 -1.2967e-11 1.66812e-11)
(6.85301e-13 1.17421e-11 1.77555e-11)
(6.96144e-13 -1.21535e-11 8.43215e-12)
(-7.76408e-13 -1.74302e-11 4.00352e-12)
(-1.91375e-12 -2.75881e-12 -2.03238e-12)
(-1.62647e-11 -8.27341e-12 1.78147e-11)
(-2.54197e-12 1.68006e-11 4.01814e-12)
(2.49117e-12 -3.31798e-12 2.1159e-12)
(1.74205e-11 4.81965e-12 -1.09415e-11)
(3.21405e-12 -6.41673e-12 5.62545e-13)
(1.50912e-11 -5.40356e-12 -7.28357e-13)
(-1.27777e-11 1.00691e-11 2.57468e-11)
(3.22538e-11 -5.614e-12 -2.01244e-11)
(-1.8138e-11 -4.37031e-12 -7.17401e-12)
(-2.1009e-11 -9.81796e-12 -3.19755e-12)
(-4.96774e-12 -1.93736e-11 2.11765e-11)
(-2.19132e-11 1.09291e-11 1.21187e-11)
(2.19474e-11 -1.0043e-12 -2.11356e-12)
(2.63377e-11 3.22391e-12 1.96325e-12)
(3.62766e-12 5.94216e-12 5.78383e-12)
(-5.39871e-12 1.4006e-11 6.83575e-12)
(-3.39446e-11 -2.66755e-11 -1.22153e-11)
(-6.37409e-12 6.9848e-12 8.54847e-12)
(-8.59804e-12 -4.53737e-13 7.23514e-13)
(-4.31051e-11 2.14251e-13 1.18695e-11)
(-4.3574e-11 -3.66313e-13 3.20637e-11)
(1.52963e-12 6.97831e-12 1.98408e-12)
(4.21113e-11 -4.31504e-12 1.0881e-11)
(4.61028e-12 -1.70521e-12 -6.28749e-12)
(5.59871e-11 -1.79681e-11 -1.34314e-12)
(5.25079e-11 4.32123e-12 -2.46582e-12)
(-5.79556e-11 5.551e-12 2.02957e-12)
(-5.46429e-12 6.47077e-13 -8.18976e-12)
(-7.70442e-11 -1.92227e-13 1.16135e-11)
(-1.55031e-11 5.57876e-12 1.40572e-11)
(-2.07297e-11 -4.54633e-12 -4.25838e-12)
(-1.58052e-10 5.65364e-12 -4.7838e-12)
(-1.90901e-10 -8.32016e-12 1.1633e-12)
(-2.04816e-11 1.52879e-12 -1.63419e-12)
(3.2515e-11 -7.06343e-12 -6.29057e-13)
(8.1123e-13 1.16588e-11 -7.15653e-12)
(1.05519e-11 2.51516e-11 -3.79921e-12)
(-1.31774e-11 -1.62892e-11 -1.47016e-11)
(-1.40535e-11 -9.10662e-12 4.50337e-12)
(-2.19682e-12 1.02435e-11 9.0428e-12)
(-1.3035e-11 8.6583e-13 -4.78577e-12)
(-2.45273e-12 -1.10642e-11 3.67914e-13)
(-1.12933e-11 1.60057e-11 8.42635e-12)
(1.53571e-11 2.2851e-11 2.22822e-12)
(1.5312e-11 2.66974e-12 2.30428e-12)
(-1.4153e-11 -2.04251e-12 -3.58386e-13)
(-9.65096e-13 8.8152e-13 4.70073e-12)
(-1.14966e-12 -9.68421e-12 -3.37803e-12)
(-1.59799e-11 1.26855e-11 1.78742e-12)
(1.50056e-11 -8.61356e-12 2.51599e-12)
(1.66949e-12 9.8081e-12 3.05918e-12)
(-1.52696e-12 -1.37533e-11 -1.49573e-12)
(-1.76755e-11 1.46594e-11 6.60737e-12)
(-2.31607e-12 -6.69092e-12 -6.16032e-12)
(1.47119e-12 -7.57456e-14 -1.75473e-12)
(-1.029e-12 4.46755e-13 2.81881e-11)
(-2.18631e-12 4.62452e-12 -1.62202e-11)
(-1.24476e-12 -1.22939e-12 -3.15049e-11)
(-2.30206e-11 -5.77644e-12 -1.21465e-11)
(4.84295e-13 -1.81844e-12 7.57915e-12)
(2.49992e-12 9.8956e-12 -5.16881e-12)
(-3.09617e-12 -1.06019e-12 -8.66786e-13)
(-3.2746e-11 1.08768e-12 1.18456e-11)
(-6.88397e-12 -1.82598e-11 9.39863e-13)
(-6.49139e-12 1.04261e-11 -1.75127e-11)
(-3.77007e-11 -1.70453e-11 9.1944e-12)
(-6.33886e-12 3.98689e-12 -2.10587e-11)
(-1.90924e-12 2.87919e-12 -2.36368e-11)
(5.78942e-12 -3.69697e-12 -9.06087e-12)
(3.89024e-11 -1.02044e-11 -1.23713e-11)
(-3.64144e-11 2.16645e-11 -4.89936e-12)
(1.26991e-12 -2.84358e-11 -2.24975e-12)
(-1.9294e-12 7.68512e-12 -2.39e-12)
(-5.35329e-11 -6.61556e-12 2.80508e-11)
(5.70472e-11 1.11946e-11 -1.19648e-12)
(-3.96862e-12 -4.09208e-12 1.62388e-11)
(-2.78307e-11 -2.7737e-12 -9.72488e-12)
(-2.15948e-10 4.71931e-12 -1.49451e-12)
(-1.73935e-11 -1.79306e-11 1.76282e-11)
(1.67808e-10 3.95443e-12 -1.64769e-11)
(5.884e-11 2.33868e-11 1.58776e-11)
(4.10427e-10 -3.77956e-12 -3.25716e-12)
(-1.32928e-11 -1.14255e-11 -2.54621e-13)
(-1.54382e-11 2.5158e-12 1.22026e-11)
(-1.19831e-12 2.12017e-11 1.09847e-11)
(1.30062e-11 -1.44986e-11 -9.53821e-12)
(1.42674e-11 3.38801e-12 4.36708e-13)
(-4.71148e-13 2.09543e-11 5.04857e-12)
(-1.21782e-11 1.67539e-12 1.18935e-11)
(1.35878e-11 2.50502e-12 -1.23324e-11)
(1.80361e-11 3.30852e-12 8.97606e-12)
(1.59789e-11 -9.38685e-12 6.8064e-12)
(-1.33082e-11 6.88445e-12 -5.17957e-12)
(1.79442e-11 3.06908e-13 -6.42747e-12)
(3.22242e-11 -1.07624e-11 3.30602e-11)
(-1.45303e-11 -1.29637e-11 -1.66275e-12)
(-3.89965e-12 1.96758e-11 4.32016e-13)
(-1.72523e-11 3.79826e-12 -3.28923e-12)
(-3.4322e-12 -1.49715e-11 -1.44395e-11)
(-1.79642e-11 1.65104e-12 4.21553e-12)
(-2.6085e-12 1.33034e-11 -8.28363e-12)
(-3.0832e-13 -6.088e-12 2.22696e-11)
(-1.7816e-12 9.14923e-12 -2.09537e-11)
(-1.94381e-11 -2.89771e-12 -3.01429e-12)
(1.9104e-11 -1.40254e-12 1.29361e-11)
(2.7297e-12 -5.31287e-12 1.21245e-11)
(2.57605e-11 1.58746e-11 1.11829e-11)
(2.74667e-11 -8.55393e-12 2.71785e-12)
(6.69345e-13 -1.53487e-11 -4.72738e-12)
(-3.2178e-11 2.12764e-11 -6.3234e-12)
(-4.47555e-12 -2.51731e-11 -5.60608e-12)
(1.49674e-12 7.29964e-12 -6.30251e-12)
(4.46242e-12 -1.45277e-11 4.31479e-12)
(3.89133e-11 5.40755e-12 1.839e-12)
(9.95886e-12 2.30126e-11 3.44654e-11)
(4.02042e-11 -5.20679e-12 7.40661e-12)
(6.34466e-12 -7.6733e-12 2.92365e-11)
(3.08635e-12 1.40229e-11 1.17692e-11)
(4.9051e-11 -1.41373e-11 -3.7051e-12)
(2.52524e-12 -8.07271e-12 -1.63727e-11)
(-5.87937e-14 3.41475e-12 -7.53382e-12)
(-3.46624e-12 1.63489e-11 -6.09382e-12)
(-8.35411e-11 -3.64116e-12 -4.9275e-12)
(-9.86764e-11 3.05404e-12 1.37851e-11)
(-1.85413e-11 2.94424e-11 -1.18545e-11)
(-1.66145e-11 -1.32876e-11 1.11827e-11)
(-1.76169e-11 1.7067e-11 1.25203e-11)
(-2.28717e-10 1.99753e-11 -6.8515e-12)
(2.34332e-10 2.97307e-12 5.3985e-12)
(-2.41659e-12 2.68515e-11 2.08659e-12)
(-1.47507e-11 -9.7685e-12 -1.07882e-11)
(-3.85558e-12 1.56597e-11 -5.94386e-12)
(-1.28788e-11 1.06135e-11 7.95312e-12)
(-2.10544e-13 3.24671e-12 6.54537e-12)
(-6.25997e-13 2.12694e-11 1.10675e-13)
(-5.96892e-13 1.28897e-11 6.45841e-12)
(1.32128e-12 -1.66042e-11 7.13423e-12)
(9.45639e-13 3.51545e-11 -9.79252e-12)
(-8.03591e-13 -1.80728e-11 -6.39124e-12)
(-1.55688e-11 2.41613e-12 8.16367e-12)
(-1.91069e-12 -1.49323e-11 1.53005e-11)
(-1.51392e-11 2.73912e-12 -2.37875e-11)
(-3.80378e-12 4.54545e-12 2.23149e-11)
(-1.57292e-11 6.17283e-12 9.8001e-12)
(1.5565e-11 -2.3887e-11 -2.77575e-12)
(3.20758e-12 5.59825e-12 -1.16136e-14)
(1.57623e-11 -1.65631e-13 5.22128e-12)
(-1.69201e-11 -9.21203e-12 -1.80625e-12)
(-2.48448e-12 6.36409e-12 -1.1573e-11)
(-1.07586e-12 -1.75923e-11 2.82156e-11)
(-2.0953e-11 1.45284e-11 2.49394e-12)
(-8.65576e-13 -8.17181e-12 8.77381e-12)
(-5.05234e-14 1.04944e-11 -6.95236e-12)
(3.48974e-13 -2.55876e-11 -1.62408e-11)
(3.87146e-12 6.11611e-12 2.03386e-12)
(2.68371e-11 -1.22529e-11 1.13421e-11)
(2.41959e-13 -8.75601e-13 -1.33481e-12)
(3.10987e-12 3.40723e-13 2.44887e-12)
(3.54503e-11 1.5646e-11 4.07118e-12)
(5.76857e-12 -3.99566e-12 -8.70818e-12)
(1.13759e-12 2.38043e-12 -5.79063e-12)
(2.39365e-12 -7.44745e-12 -2.60717e-11)
(2.50722e-12 -6.58889e-13 -8.20766e-12)
(7.83108e-13 -6.37504e-12 -3.47189e-11)
(4.37622e-12 -6.3642e-12 -7.35236e-13)
(4.60643e-11 -2.36606e-11 1.11562e-11)
(-4.01411e-11 1.843e-11 -2.10566e-12)
(5.19858e-11 -1.31967e-11 1.26529e-11)
(2.22869e-12 -1.00488e-12 -2.3381e-12)
(-6.03349e-13 2.80954e-11 3.55987e-12)
(-2.76089e-13 -3.73594e-11 -1.21964e-11)
(8.22787e-11 1.30697e-11 -3.41201e-12)
(-2.58663e-10 -6.18578e-12 -1.64065e-11)
(-6.43377e-11 -3.75094e-13 -1.83677e-12)
(-2.82903e-10 -8.5842e-12 -1.84559e-11)
(-3.9303e-11 4.66069e-12 -1.39358e-11)
(-1.63136e-12 -3.31732e-12 5.62113e-12)
(-1.28699e-11 1.01233e-11 -6.56089e-12)
(-1.83559e-12 -3.49009e-12 -2.80497e-12)
(6.50695e-13 2.33805e-11 8.62668e-14)
(1.18183e-11 -9.70642e-12 -2.88615e-12)
(-1.07391e-11 -4.81935e-12 -3.86189e-12)
(-1.70566e-14 5.10213e-12 5.14737e-12)
(1.19596e-11 -2.58326e-11 1.30843e-11)
(1.27878e-12 2.24074e-11 7.09013e-12)
(9.65041e-13 8.34732e-12 -6.18194e-12)
(1.48932e-11 -1.82544e-11 1.4295e-11)
(1.62966e-11 1.16205e-11 -2.01114e-12)
(2.98178e-12 -9.2796e-12 6.17162e-12)
(1.61014e-11 1.42859e-11 6.07053e-12)
(3.23733e-12 9.33156e-12 -1.47935e-11)
(1.83597e-11 -2.92734e-11 1.52835e-11)
(3.65116e-12 3.12739e-12 -8.1239e-13)
(1.71439e-11 2.73258e-12 1.88481e-11)
(-1.5846e-12 -1.24398e-11 1.77243e-11)
(-1.62244e-11 2.30899e-11 2.32928e-11)
(1.76718e-11 -8.65156e-12 -4.66385e-12)
(7.64286e-13 5.27942e-12 -1.92929e-11)
(8.09317e-13 -9.51226e-12 -1.13678e-12)
(-3.00897e-12 5.57583e-12 3.84167e-13)
(-2.31952e-11 -6.43945e-12 1.54388e-12)
(-2.01139e-12 2.73854e-11 -1.41502e-11)
(-1.12986e-12 -9.13772e-12 -2.09512e-13)
(-3.5262e-11 -4.43599e-12 6.46667e-12)
(-3.79612e-11 -1.74231e-11 5.50503e-12)
(-6.20991e-12 1.00722e-11 1.04461e-11)
(-5.53338e-12 -1.95912e-11 7.2893e-13)
(-3.14001e-11 -2.42088e-12 8.40615e-12)
(3.3754e-11 2.1075e-12 2.03768e-11)
(6.43296e-12 1.11132e-11 1.45378e-11)
(2.73377e-12 -2.76325e-11 6.02141e-12)
(1.68096e-12 3.39053e-12 6.37702e-12)
(1.21817e-11 1.56317e-11 8.68467e-12)
(5.12163e-11 -3.43773e-12 -9.19371e-12)
(3.15669e-12 -5.36996e-12 1.46479e-11)
(-5.69952e-11 9.09414e-12 1.48855e-11)
(6.18906e-11 1.73235e-12 1.17951e-11)
(-7.19927e-11 -3.32973e-11 -3.76073e-12)
(1.05526e-10 1.8106e-11 2.74654e-11)
(6.7664e-12 1.13198e-12 2.43981e-11)
(-1.95509e-11 -1.00528e-11 1.28548e-11)
(-2.74695e-10 1.06521e-11 3.00223e-11)
(-6.34267e-11 7.01574e-12 1.43658e-11)
(1.04427e-12 1.01463e-11 1.63596e-11)
(1.21363e-11 -3.56737e-12 9.30917e-12)
(1.71099e-12 6.12623e-13 5.46989e-12)
(9.29001e-13 -1.34109e-11 -8.38736e-12)
(1.22623e-11 -1.979e-11 1.35773e-12)
(5.7306e-14 1.02972e-11 7.92777e-12)
(-1.36225e-12 -3.52287e-12 -1.11902e-11)
(-1.32052e-11 -2.14724e-11 -9.95072e-12)
(-3.01718e-12 -1.26331e-11 4.98998e-12)
(-1.62806e-11 -6.60969e-12 -3.49389e-12)
(-1.69324e-11 -1.97575e-12 -6.54738e-12)
(-1.69588e-11 4.44128e-12 -1.26777e-11)
(-2.91043e-12 -5.27508e-12 9.37994e-13)
(-1.49403e-11 -1.1233e-12 3.72569e-12)
(1.84864e-13 1.08864e-11 -6.02856e-12)
(1.70302e-11 -2.44524e-12 1.02342e-11)
(2.58933e-12 1.51761e-11 -3.86708e-12)
(-5.55273e-13 -1.23351e-11 -1.8936e-11)
(-1.75215e-11 1.09361e-13 -8.58729e-12)
(-2.2129e-12 9.86871e-13 -1.24473e-11)
(1.90965e-12 -4.87885e-12 9.47961e-12)
(2.87844e-12 7.47643e-12 2.27293e-11)
(1.92473e-11 -1.80434e-11 1.15495e-11)
(-2.02509e-11 -5.17449e-12 5.72001e-12)
(-2.89096e-12 -8.98679e-12 2.38779e-12)
(2.02842e-12 8.67177e-12 9.01093e-13)
(2.35627e-11 -6.32186e-12 -9.98751e-12)
(-2.65177e-11 -9.94424e-12 1.40692e-11)
(-1.04529e-11 -6.99971e-12 -5.59025e-12)
(-3.50121e-11 4.23892e-12 -3.60891e-11)
(-2.39235e-13 2.59968e-12 -1.63558e-11)
(3.62526e-11 5.05569e-12 -9.3111e-12)
(9.92532e-12 1.35058e-11 1.57639e-11)
(4.33275e-11 6.61282e-12 -2.3537e-11)
(4.37282e-11 -1.79146e-11 -1.04805e-11)
(1.53346e-11 4.86595e-12 -1.19271e-12)
(9.87905e-11 -7.94111e-12 -7.85562e-12)
(1.29094e-11 3.29371e-12 2.25981e-11)
(3.75937e-12 -1.84111e-11 -5.71588e-13)
(-2.50907e-12 1.73165e-11 -1.33945e-11)
(2.51815e-12 -1.7407e-11 -2.55144e-12)
(-7.16023e-12 8.96267e-12 4.51319e-12)
(1.96797e-11 -9.23942e-12 -1.90857e-11)
(1.54281e-10 1.16611e-11 1.04842e-11)
(1.89794e-10 -1.61475e-12 -2.22803e-12)
(-3.16519e-11 7.04746e-12 -1.17388e-11)
(-4.02963e-10 6.21671e-12 -2.29724e-12)
(-1.06133e-11 3.46021e-11 -7.15036e-12)
(-1.16289e-12 -2.70747e-11 -6.3725e-12)
(-2.04228e-12 1.8245e-11 1.05829e-12)
(-1.53814e-11 -2.64691e-12 -5.54881e-12)
(-1.46765e-11 -1.49662e-12 1.23228e-11)
(-1.43836e-11 -6.38736e-12 -9.90101e-13)
(-2.84429e-12 -9.27836e-12 5.10136e-12)
(-1.44531e-11 2.98155e-13 1.16769e-11)
(-1.67541e-12 -1.8378e-12 -7.43292e-12)
(-2.09865e-13 -3.39541e-12 1.57932e-12)
(1.18798e-11 1.26812e-11 3.07167e-13)
(-1.27434e-11 -5.55037e-12 1.95963e-11)
(1.65186e-11 -6.25877e-13 3.98694e-12)
(1.80216e-11 9.4603e-12 -1.82239e-11)
(1.55808e-12 -1.50818e-12 -4.13987e-13)
(2.3905e-12 -9.58187e-12 1.18696e-11)
(1.55888e-11 2.40733e-12 -3.95883e-12)
(-2.6177e-13 1.34119e-11 -8.47741e-12)
(-8.31861e-13 9.79844e-12 1.38307e-11)
(1.65623e-12 -4.59918e-12 2.41846e-11)
(2.07436e-11 -2.23759e-11 -1.31225e-12)
(2.10071e-11 3.68318e-12 -3.9024e-12)
(2.7251e-12 3.52333e-12 -1.55013e-11)
(-8.59228e-13 -5.16787e-12 1.57241e-12)
(-1.54324e-13 1.24869e-11 5.01408e-12)
(2.1261e-13 -8.95849e-12 1.12842e-11)
(3.03736e-12 1.14048e-11 7.94686e-12)
(2.78378e-11 -5.28327e-12 -1.27716e-11)
(1.98548e-12 6.59798e-12 1.00562e-11)
(-1.66553e-12 -2.54007e-11 1.92026e-11)
(-5.60516e-13 7.14477e-12 1.12181e-11)
(-2.995e-12 2.63081e-12 8.20951e-12)
(-3.5459e-11 -1.51501e-11 -1.71978e-12)
(-1.7992e-12 7.91019e-13 2.67001e-12)
(6.33608e-12 -3.5497e-12 1.06253e-11)
(4.90921e-11 -6.43983e-12 -1.07637e-11)
(5.61375e-11 3.90269e-12 -1.02321e-11)
(1.07392e-11 -5.59451e-12 -2.88282e-12)
(5.64902e-11 1.1787e-11 5.63669e-12)
(4.97153e-12 2.4539e-12 1.19087e-12)
(-7.54461e-12 -1.79698e-11 -9.51613e-12)
(-8.88251e-11 1.10479e-11 -5.6634e-12)
(-8.72054e-12 7.51855e-12 1.54184e-11)
(1.31046e-11 1.09258e-11 -1.26654e-11)
(1.10453e-11 -3.18045e-12 1.40391e-12)
(2.43243e-12 9.14601e-12 1.05807e-11)
(3.67511e-12 -7.11936e-12 -4.37935e-12)
(1.13226e-11 -1.72973e-11 -5.04096e-12)
(2.24639e-12 1.36978e-11 7.6018e-12)
(-8.14564e-13 9.70168e-12 -4.62366e-12)
(-1.23074e-11 7.80915e-12 1.7239e-11)
(1.09057e-11 2.00298e-11 -2.58982e-12)
(3.93961e-13 -1.08901e-11 -1.5682e-12)
(-1.97773e-12 4.99757e-12 -1.29393e-11)
(-1.40777e-11 -1.30703e-11 4.84857e-12)
(-3.72259e-12 2.04955e-11 3.05049e-12)
(-1.59412e-11 7.93585e-12 -2.08311e-12)
(-1.52363e-11 -3.02379e-12 8.82377e-12)
(-1.48154e-12 6.98432e-12 -1.00677e-11)
(1.30457e-12 -3.75515e-12 5.97715e-12)
(-1.0271e-12 -7.03539e-12 5.62256e-12)
(-1.75069e-11 8.76095e-12 -1.80405e-12)
(-6.49535e-12 -6.31963e-12 1.35351e-11)
(-3.76158e-11 8.94942e-12 1.4458e-11)
(-3.61776e-11 6.16009e-12 -1.71355e-11)
(-2.32323e-12 4.03293e-14 -1.70284e-12)
(8.40763e-13 4.40601e-12 -2.20471e-11)
(3.23975e-13 -2.55968e-11 -1.16543e-12)
(-1.82013e-11 -4.06422e-12 -2.32518e-11)
(-2.52125e-12 9.25035e-12 -5.42018e-12)
(-2.71172e-13 4.09825e-12 8.65389e-13)
(1.89569e-14 -1.39163e-11 -5.19698e-13)
(-1.08421e-12 -2.21454e-12 -8.10382e-12)
(-2.37571e-11 7.85313e-12 -2.17149e-12)
(-4.36333e-12 -1.72131e-11 1.42136e-11)
(-3.18254e-11 -1.05753e-11 8.49686e-12)
(-7.64936e-12 3.23045e-11 -6.7119e-12)
(-4.15092e-13 5.56551e-12 2.27324e-12)
(5.90137e-12 2.35136e-12 6.09183e-12)
(3.35542e-11 -8.68093e-12 -8.79792e-12)
(5.40455e-12 -2.61109e-11 7.65585e-14)
(2.68342e-12 1.07883e-11 2.82137e-13)
(4.20591e-11 -9.14603e-12 3.13361e-12)
(8.56656e-12 3.67833e-11 9.53982e-12)
(1.24269e-12 -1.48683e-11 8.85092e-12)
(2.75526e-12 -1.46038e-11 3.15383e-12)
(3.43557e-13 1.40004e-11 1.09637e-12)
(-4.45575e-13 -2.9185e-12 3.24674e-12)
(-3.27675e-12 1.31504e-11 -5.20295e-12)
(1.22076e-11 -7.5676e-12 4.65424e-12)
(1.25617e-10 2.66034e-12 3.55365e-12)
(2.08638e-11 -1.92875e-11 -1.39382e-11)
(6.26929e-11 -1.65433e-12 5.91176e-12)
(4.90121e-10 2.36998e-11 1.36657e-11)
(1.35071e-11 -1.30523e-13 5.10248e-12)
(1.66267e-11 -1.88604e-11 -6.79386e-13)
(1.5578e-11 -3.3684e-12 -3.25256e-13)
(2.94706e-12 8.01049e-12 -3.01458e-12)
(1.33992e-11 -1.05149e-11 2.80465e-13)
(1.73527e-13 4.10711e-12 -2.67677e-12)
(-1.26789e-11 2.6676e-11 1.6781e-11)
(-2.69983e-12 4.60788e-12 -1.5004e-12)
(-1.33497e-11 7.87269e-12 -9.02726e-12)
(1.23507e-13 5.11043e-13 -1.97503e-12)
(1.556e-11 -1.6575e-11 5.93005e-12)
(1.86067e-11 2.10655e-11 2.20631e-12)
(1.74483e-11 -5.33617e-12 -1.73277e-12)
(2.53007e-12 -1.53739e-11 1.42531e-11)
(-2.4238e-12 9.83857e-12 -1.37486e-11)
(-1.77991e-11 7.7213e-12 -1.36969e-11)
(-1.83898e-11 -1.15592e-12 -2.75259e-12)
(1.47832e-11 -1.23749e-11 1.74207e-11)
(2.00934e-11 -2.34681e-12 -8.58647e-12)
(2.09049e-11 2.17753e-11 -3.95757e-12)
(2.07139e-11 -1.54633e-11 -4.86781e-13)
(-7.84206e-13 9.34624e-12 -3.58747e-12)
(-2.07474e-11 -5.6919e-12 5.59505e-12)
(-2.55599e-12 -1.93482e-12 -1.47884e-12)
(3.17323e-12 2.59928e-12 6.37614e-12)
(2.68709e-11 -1.99033e-12 1.27635e-11)
(3.09081e-11 7.41802e-13 7.62342e-12)
(3.23979e-11 7.41866e-12 1.41334e-12)
(-4.90124e-12 -2.19441e-11 -8.96551e-12)
(-6.55831e-11 7.98362e-12 -2.82761e-12)
(-6.15604e-12 -3.2717e-12 -5.42796e-12)
(2.82692e-11 1.41096e-11 -1.36958e-12)
(-2.63824e-11 -2.83066e-12 3.55725e-12)
(2.62696e-11 -2.78547e-12 -2.83654e-12)
(-3.61496e-11 1.58963e-11 -5.29799e-12)
(-3.52991e-11 3.17252e-12 5.82956e-12)
(3.99165e-11 4.28538e-12 4.72605e-12)
(4.20601e-12 -7.66204e-12 1.07805e-12)
(2.66612e-12 1.81875e-13 1.84616e-12)
(2.05209e-13 -6.96773e-12 8.13154e-12)
(-5.37722e-13 -6.99286e-12 3.00042e-13)
(-3.94598e-12 -6.2266e-12 6.93999e-12)
(2.20428e-13 -2.33844e-11 6.48497e-12)
(4.71214e-12 -1.94817e-12 -8.72825e-12)
(-5.14387e-13 7.20911e-12 -2.36e-12)
(6.5645e-11 3.95078e-12 -1.37213e-11)
(4.70887e-10 5.19197e-12 -1.54486e-11)
(1.1466e-11 -2.8654e-11 1.38546e-11)
(3.69144e-12 2.47296e-11 1.10261e-11)
(1.39195e-11 4.70506e-12 5.32876e-12)
(3.85781e-12 -5.25382e-12 9.7271e-12)
(1.29302e-11 2.75786e-12 -9.67941e-14)
(1.46621e-13 1.13688e-11 4.51635e-12)
(-1.17799e-11 1.78577e-11 6.86165e-12)
(1.08925e-11 9.78253e-12 9.40636e-13)
(2.06833e-12 -2.09085e-11 -1.23263e-12)
(1.40678e-11 -6.43801e-12 8.82515e-12)
(9.62633e-13 4.94426e-12 -1.29661e-12)
(8.1832e-13 5.23998e-13 -4.66144e-12)
(2.10594e-12 -8.07718e-12 1.26802e-11)
(1.7224e-11 6.88431e-12 -3.06379e-12)
(3.62235e-12 2.69621e-12 8.69661e-12)
(1.38542e-11 -3.05837e-12 -9.6969e-12)
(-8.48998e-13 -3.77541e-12 7.59364e-12)
(8.02675e-13 7.68714e-12 1.33854e-13)
(2.73763e-12 3.64297e-12 7.51209e-12)
(2.68852e-12 -8.48956e-12 7.03526e-12)
(1.85506e-11 1.6057e-11 4.66384e-13)
(-1.9355e-13 -1.2071e-11 2.60653e-11)
(-2.26218e-11 -2.24786e-11 9.6272e-12)
(-2.02647e-11 1.73493e-11 1.59678e-11)
(2.46213e-11 2.36954e-11 9.87217e-12)
(2.86858e-11 -2.95036e-11 2.44291e-12)
(3.10262e-11 1.06235e-11 -2.47414e-13)
(3.54912e-11 -2.30924e-11 -1.22789e-11)
(3.44459e-11 -3.3664e-12 3.34551e-12)
(1.80227e-12 -1.90736e-11 1.26841e-11)
(-5.1994e-12 1.64689e-11 -5.03028e-12)
(-3.39829e-11 -5.46225e-13 -2.52157e-11)
(-5.83004e-12 -7.14511e-12 -5.84681e-12)
(1.19154e-12 -1.80824e-11 5.52103e-12)
(4.30771e-12 1.76651e-11 5.9694e-12)
(4.13746e-11 1.0028e-11 2.85072e-12)
(3.77795e-12 -8.27328e-13 1.59546e-11)
(2.1339e-12 -6.74054e-12 1.70957e-12)
(5.06833e-11 -3.39263e-12 -4.34162e-12)
(1.06967e-12 -3.51642e-12 1.36744e-11)
(-8.53215e-12 1.06004e-11 -2.87069e-12)
(-8.72154e-11 -5.16998e-14 3.37816e-12)
(-5.48975e-12 -8.36542e-12 -2.36909e-11)
(-1.57669e-11 3.52438e-11 5.67169e-12)
(-1.46476e-10 -1.66859e-12 1.10249e-11)
(1.56964e-10 -1.67293e-11 4.13203e-12)
(-4.34567e-10 -5.58444e-12 1.95085e-11)
(9.30737e-12 -3.17226e-12 1.00906e-12)
(-1.13177e-11 -1.14397e-11 -1.59685e-12)
(5.91262e-13 -1.1117e-12 1.12729e-11)
(1.30224e-11 -1.34301e-11 1.05349e-11)
(1.43022e-12 -1.053e-11 -1.33483e-11)
(1.30223e-13 -1.08797e-11 1.2983e-12)
(1.44089e-13 7.87899e-12 -7.95535e-12)
(5.82532e-13 2.72083e-13 -6.40201e-12)
(2.54265e-14 -7.36262e-12 -8.44677e-13)
(-1.95594e-12 1.85706e-11 1.3496e-11)
(-3.07646e-11 -1.23502e-11 6.99815e-12)
(-6.08274e-12 -8.28891e-12 -2.02416e-11)
(-1.44166e-11 -1.46187e-12 -1.21215e-11)
(1.56017e-11 -1.37802e-11 6.11145e-12)
(-1.01115e-12 1.11574e-11 4.10149e-12)
(-2.03998e-11 8.56066e-12 2.05896e-11)
(-3.60469e-11 5.39573e-12 3.59469e-12)
(-6.63165e-14 -2.19904e-12 9.52428e-12)
(3.63317e-11 4.25337e-12 -6.29983e-12)
(7.90845e-13 -3.53551e-12 1.28566e-11)
(-1.84404e-11 3.41708e-12 9.40793e-12)
(-8.34694e-13 3.21571e-12 -9.11744e-12)
(-2.00853e-12 -1.47427e-12 -7.92074e-12)
(2.88252e-12 -7.64775e-12 -7.76407e-12)
(4.75425e-11 1.91994e-12 -1.55983e-11)
(2.95413e-12 1.27719e-12 -2.26697e-11)
(-2.98503e-11 -1.62067e-11 1.08177e-11)
(-3.17294e-11 2.27667e-11 -2.40336e-12)
(-2.88018e-12 1.01477e-12 1.40181e-11)
(-2.696e-13 1.42365e-11 6.4503e-12)
(-3.81039e-13 -1.78172e-11 9.84273e-12)
(-1.65505e-12 -7.40523e-12 9.95713e-12)
(-8.35616e-15 1.10335e-11 -2.4902e-12)
(4.45442e-12 2.86753e-12 9.04384e-12)
(4.50082e-11 -2.94873e-12 3.80079e-12)
(4.75263e-11 6.53619e-12 3.38493e-12)
(-4.7834e-11 -1.49491e-11 7.92256e-13)
(-6.52703e-11 2.16819e-11 -1.56571e-11)
(-6.37575e-11 7.83373e-12 -8.67315e-12)
(-7.54957e-11 -9.08853e-12 7.62948e-12)
(-7.86818e-12 1.41191e-11 5.88475e-12)
(1.93489e-12 -1.30032e-12 -3.74689e-12)
(1.21425e-10 -9.11764e-12 2.13232e-11)
(1.19644e-11 -4.70093e-12 9.31725e-12)
(-1.79851e-11 -1.42614e-11 -1.8391e-11)
(-8.10128e-12 8.09013e-13 1.39849e-12)
(-1.54245e-10 -4.12252e-12 2.51585e-12)
(-1.04842e-11 -2.03654e-12 -1.44439e-11)
(-2.76652e-12 1.71297e-12 9.74891e-12)
(-5.70034e-13 -7.92184e-12 7.79035e-12)
(-1.69677e-12 -1.1906e-12 7.79282e-12)
(-1.35553e-11 -5.79764e-12 -1.45914e-11)
(-1.07055e-13 2.88667e-11 2.62251e-12)
(1.36677e-11 -1.68754e-11 1.51752e-11)
(1.49135e-12 2.46445e-12 -5.33443e-12)
(1.64349e-12 -2.58362e-12 -1.84262e-12)
(1.45085e-11 3.68863e-14 -2.3048e-11)
(-1.80076e-12 1.52474e-11 1.31041e-11)
(-1.70876e-11 -1.35004e-11 -2.97438e-13)
(-2.94664e-12 1.08791e-11 4.71624e-12)
(-1.52181e-12 -1.52835e-11 -1.85718e-11)
(-1.79978e-11 2.53769e-11 6.82418e-12)
(-5.12293e-12 -9.2353e-12 7.42874e-13)
(-2.12461e-12 -5.74203e-12 -2.91014e-11)
(2.63359e-12 1.17807e-11 -4.80775e-12)
(2.01554e-11 4.19209e-12 -9.3855e-12)
(-1.73138e-11 -5.34805e-12 3.04123e-12)
(1.35721e-13 -5.00764e-12 2.13723e-11)
(1.87612e-11 7.69048e-12 -2.34274e-11)
(-1.9151e-11 2.88647e-12 9.00071e-14)
(-1.56155e-12 8.67976e-12 8.22373e-12)
(2.07236e-12 -3.35361e-12 -2.96625e-12)
(-4.25495e-12 -1.75181e-11 2.44884e-11)
(-3.1673e-11 9.04193e-12 8.22906e-12)
(-5.48127e-12 2.41192e-11 -1.43493e-12)
(-5.99652e-13 4.30355e-12 -2.51777e-11)
(-5.14452e-14 8.8487e-13 1.2813e-11)
(-2.03518e-14 8.69178e-12 1.76858e-11)
(-6.70856e-14 4.29439e-12 3.57648e-12)
(1.6533e-14 -7.46749e-12 -3.63298e-12)
(3.63798e-13 6.18829e-12 1.51805e-11)
(4.13074e-12 2.14552e-12 5.1329e-12)
(4.77589e-11 -1.09858e-11 -2.33189e-12)
(-3.47179e-12 -4.82887e-12 8.49767e-12)
(-5.7345e-11 1.1492e-11 6.54926e-12)
(4.68701e-11 -1.68374e-12 -1.50879e-13)
(-6.83381e-11 3.40576e-12 4.90509e-12)
(-1.43348e-11 -1.13594e-11 -1.79534e-11)
(-7.49444e-11 1.80539e-11 1.06606e-11)
(2.25703e-10 -3.20041e-12 -8.25101e-12)
(7.18898e-12 -1.14329e-12 1.17175e-11)
(-2.017e-10 -2.66489e-12 9.71212e-12)
(-2.86821e-11 1.22179e-11 1.06132e-11)
(-1.24811e-11 -5.01859e-12 6.67441e-12)
(9.19806e-12 2.39783e-11 5.92503e-12)
(-1.20287e-11 -3.8601e-12 -1.9002e-11)
(-3.81514e-12 1.66637e-11 -3.03449e-12)
(-1.60582e-11 -1.41594e-11 -7.97276e-12)
(-1.53334e-11 3.76528e-13 1.26045e-11)
(-9.5031e-13 -2.12049e-11 1.37942e-11)
(1.39123e-11 4.7804e-13 1.16572e-11)
(7.43775e-13 8.33019e-13 4.83083e-12)
(1.23234e-13 8.16906e-12 2.23836e-11)
(6.62411e-13 -1.18861e-11 2.06552e-11)
(-1.87691e-12 -6.61228e-12 -8.99194e-12)
(-1.70504e-11 3.69453e-12 -4.62656e-12)
(-2.91699e-12 7.11924e-12 -2.61951e-12)
(-3.25146e-14 -2.0072e-11 2.70801e-11)
(-6.09811e-12 2.33491e-11 -9.9673e-12)
(-3.65454e-11 -4.26425e-12 -1.26505e-11)
(-2.12722e-12 -2.74361e-11 4.12596e-12)
(1.9625e-11 2.06705e-11 3.25393e-12)
(2.13032e-11 -1.9353e-11 2.00832e-11)
(1.658e-12 1.9863e-11 -4.46547e-12)
(2.14135e-11 -1.89897e-12 6.42794e-12)
(4.92123e-12 -1.27486e-11 9.20219e-12)
(2.08245e-11 2.18037e-11 3.06343e-12)
(1.37123e-13 -1.28389e-11 7.87827e-12)
(-3.98602e-12 2.29219e-11 -1.08699e-11)
(-3.00336e-11 2.02396e-12 -4.1033e-12)
(-3.48488e-11 6.65035e-12 -2.59771e-12)
(-4.02676e-12 -1.56747e-11 2.57961e-11)
(1.59403e-12 5.80034e-13 1.46479e-11)
(2.9036e-13 -1.66049e-11 -1.01815e-11)
(9.52242e-15 8.75342e-12 -8.59527e-12)
(-7.68189e-14 -3.96817e-13 8.26319e-13)
(7.0997e-14 -1.15202e-11 -5.74907e-12)
(-1.69996e-12 5.29235e-12 3.92462e-12)
(-4.30531e-11 2.25459e-11 -5.049e-13)
(-5.05833e-12 7.35307e-12 5.83875e-12)
(-9.36079e-12 -1.57762e-11 -1.43963e-11)
(-5.75878e-11 -6.09142e-12 1.30511e-12)