/*--------------------------------*- C++ -*----------------------------------*\
| =========                 |                                                 |
| \\      /  F ield         | OpenFOAM: The Open Source CFD Toolbox           |
|  \\    /   O peration     | Version:  2212                                  |
|   \\  /    A nd           | Website:  www.openfoam.com                      |
|    \\/     M anipulation  |                                                 |
\*---------------------------------------------------------------------------*/
FoamFile
{
    version     2.0;
    format      ascii;
    arch        "LSB;label=32;scalar=64";
    class       volVectorField;
    location    "0.0059";
    object      U;
}
// * * * * * * * * * * * * * * * * * * * * * * * * * * * * * * * * * * * * * //

dimensions      [0 1 -1 0 0 0 0];

internalField   nonuniform List<vector> 
2681
(
(-0.00130049 0.00382934 -6.23931e-17)
(-0.168194 0.638629 0)
(-0.0825145 0.561485 -9.32495e-17)
(2.83337e-05 0.000120139 -2.76084e-16)
(-0.0444214 0.781342 6.45276e-17)
(0.138089 0.584991 1.58649e-16)
(-1.78598e-05 5.95083e-05 -6.86649e-17)
(-3.34018e-05 0.000126785 8.92834e-18)
(-3.4319e-05 0.000126094 1.77024e-17)
(-3.51e-05 0.000124521 -4.45632e-18)
(3.38795e-05 0.000126436 0)
(2.11829e-05 0.000110709 -4.73411e-18)
(2.4496e-05 0.000112926 -4.59654e-18)
(-4.09533e-05 0.00013636 0)
(1.75864e-05 0.000105945 -2.10124e-17)
(-1.35044e-05 9.93018e-05 3.44212e-17)
(-1.67225e-05 9.68172e-05 0)
(3.46412e-05 0.000127075 -2.20037e-17)
(3.36719e-05 0.00012848 9.75083e-17)
(2.84247e-05 0.000127013 -1.12651e-16)
(3.37579e-05 0.000130234 -3.62719e-16)
(2.58109e-05 0.000113617 2.6707e-17)
(2.76565e-05 0.000118007 -1.06688e-16)
(3.13773e-05 0.000119612 7.18723e-17)
(2.38506e-05 0.000110182 -3.98776e-17)
(2.14068e-05 0.000111904 0)
(3.16234e-05 0.000126146 -8.35997e-17)
(2.7226e-05 0.000127373 7.83212e-18)
(3.8607e-05 0.000125301 3.55857e-17)
(3.89976e-05 0.000126562 4.26726e-17)
(3.36263e-05 0.000126198 -2.0175e-17)
(3.22961e-05 0.000119526 4.18331e-17)
(3.5523e-05 0.000122849 -3.65094e-17)
(2.92747e-05 0.000117386 1.84943e-17)
(3.25176e-05 0.000120199 0)
(2.76863e-05 0.000116027 -2.73842e-17)
(-2.71286e-05 0.000121509 6.91676e-17)
(-2.48257e-05 0.000111597 8.2888e-18)
(-1.93414e-05 0.000110374 -1.6528e-17)
(-2.16116e-05 0.000111374 -1.67531e-17)
(-2.08639e-05 0.000110313 3.08466e-17)
(-2.69335e-05 0.000113744 0)
(-2.54269e-05 0.000114478 -8.74589e-18)
(-3.59158e-05 0.000122015 0)
(-3.13117e-05 0.000117823 0)
(0.00907329 0.716302 0)
(-3.22348e-05 0.000123409 4.51503e-18)
(-3.40495e-05 0.000126163 -3.51833e-17)
(2.67804e-05 0.000124457 0)
(-3.15348e-05 0.000125091 -8.94098e-18)
(-3.32212e-05 0.000125848 9.69103e-27)
(-1.83109e-05 0.00010669 6.58004e-17)
(-1.87234e-05 9.4449e-05 4.91996e-18)
(-3.35766e-05 0.000121218 -8.90864e-18)
(-3.2692e-05 0.000120939 1.81262e-17)
(2.62577e-05 0.000107747 4.59105e-18)
(2.506e-05 0.000106074 -1.38009e-17)
(2.93838e-05 0.000124883 -9.30149e-18)
(-2.9103e-05 0.000124028 0)
(-3.08475e-05 0.000117077 1.77438e-17)
(-2.82035e-05 0.000116257 4.44983e-18)
(3.45452e-05 0.000121975 0)
(3.56755e-05 0.000123151 7.82086e-17)
(2.59376e-05 0.000117155 9.28855e-17)
(3.3751e-05 0.00012138 -1.59204e-17)
(2.57228e-05 0.000110382 -1.72948e-25)
(2.70702e-05 0.000112765 0)
(2.03258e-05 0.000101942 0)
(2.24742e-05 0.00010626 1.70974e-17)
(1.59558e-05 2.31313e-05 0)
(1.52041e-05 0.000103287 3.52835e-17)
(-1.9817e-05 0.000101884 8.04248e-18)
(-1.67545e-05 0.000100781 -2.89693e-17)
(-2.05944e-05 0.000107318 -5.17729e-17)
(-2.09153e-05 0.000103371 -1.55121e-17)
(1.81573e-05 0.000110818 1.90541e-17)
(2.86823e-05 -2.19838e-06 0)
(-3.37607e-05 0.000124785 2.43412e-16)
(-0.106913 0.721673 1.56262e-16)
(3.18517e-05 0.00011812 3.836e-17)
(3.14039e-05 0.000118549 -2.13638e-17)
(3.23115e-05 0.000118542 5.42997e-17)
(3.43661e-05 0.000116399 0)
(3.44055e-05 0.000116756 3.98046e-17)
(3.68021e-05 0.000114435 4.0061e-17)
(3.46731e-05 0.000115659 -3.85569e-18)
(3.17295e-05 0.000111362 0)
(3.51985e-05 0.000112884 -1.91984e-17)
(3.00489e-05 0.000109784 2.76291e-17)
(-2.39589e-05 0.000105831 0)
(-1.7254e-05 0.00010619 0)
(-3.07256e-05 0.000110344 3.69576e-17)
(-2.82662e-05 0.00010974 -3.63458e-17)
(-3.31745e-05 0.000113645 9.33615e-18)
(-3.08565e-05 0.000113357 0)
(-3.57579e-05 0.00011783 0)
(-3.52713e-05 0.000116817 -9.06038e-18)
(-3.40408e-05 0.000118809 0)
(-3.49885e-05 0.000118478 0)
(-3.27065e-05 0.000117856 1.76301e-17)
(-3.06888e-05 0.000120571 -2.27425e-18)
(-2.98739e-05 0.000125304 2.2707e-18)
(2.02888e-05 0.000103091 1.81904e-17)
(1.65212e-05 0.000103358 1.47497e-16)
(1.2838e-05 0.000103975 0)
(-1.59647e-05 0.000105832 -6.68057e-17)
(2.76646e-05 0.00011789 0)
(-3.04474e-05 0.000106346 -4.40436e-18)
(-2.80428e-05 0.000105874 -2.20143e-17)
(1.30938e-05 9.18177e-05 -2.17069e-16)
(1.63146e-05 9.30316e-05 1.41776e-16)
(1.51466e-05 9.82038e-05 0)
(-1.25109e-05 9.9091e-05 0)
(-2.11531e-05 9.06985e-05 -6.349e-17)
(-2.00435e-05 0.000107277 1.41738e-16)
(-1.63327e-05 9.01609e-05 1.56583e-16)
(-3.08286e-05 0.000112563 -1.80643e-17)
(-2.76252e-05 0.000119753 3.67157e-17)
(-2.78859e-05 0.00011227 1.84089e-17)
(9.16711e-06 8.97767e-05 -7.075e-17)
(3.65307e-05 0.000124421 4.40105e-17)
(-1.49213e-05 9.08602e-05 -9.70402e-18)
(0.0432364 0.906289 -3.27876e-16)
(1.64032e-05 0.000101403 3.58747e-17)
(1.72133e-05 0.000107571 -3.76791e-17)
(-1.30699e-05 0.000107179 0)
(2.44507e-05 0.000116297 0)
(-0.152512 0.589058 2.3574e-16)
(2.64123e-05 0.000125455 1.5797e-18)
(-8.81687e-05 0.00134594 0)
(-3.81299e-05 0.000172051 7.41632e-17)
(3.28407e-05 0.000117875 1.02084e-16)
(3.15078e-05 0.000116929 -3.3178e-17)
(3.1018e-05 0.000113408 -8.52677e-18)
(3.33474e-05 0.000115099 8.72081e-18)
(2.77511e-05 0.00010753 -4.88448e-17)
(2.93174e-05 0.000110439 1.66417e-17)
(2.24458e-05 9.90043e-05 0)
(2.43927e-05 0.00010496 3.27623e-17)
(1.96232e-05 9.25544e-05 1.61916e-17)
(1.9352e-05 9.6292e-05 1.86368e-17)
(1.78183e-05 9.32869e-05 3.04552e-17)
(-1.69311e-05 9.05526e-05 7.95441e-18)
(-1.63436e-05 8.89354e-05 -1.94446e-17)
(-2.18958e-05 9.68948e-05 3.87284e-18)
(-1.91028e-05 9.39848e-05 4.48185e-26)
(-1.92845e-05 9.31284e-05 3.47379e-17)
(-3.22566e-05 0.000126347 9.06495e-18)
(0.02829 0.696618 7.66422e-16)
(-3.31004e-05 0.00011223 -8.79995e-18)
(-3.29159e-05 0.000112484 0)
(2.86018e-05 0.000106913 4.37516e-18)
(2.5324e-05 0.000104807 3.33014e-17)
(2.73791e-05 0.000107126 0)
(3.40019e-05 0.000106726 -1.91157e-17)
(3.30176e-05 0.000108844 -3.59194e-17)
(3.81951e-05 0.000106282 9.82574e-18)
(3.43511e-05 0.000106557 -9.66989e-18)
(3.59386e-05 0.000103198 -1.93657e-17)
(3.69768e-05 0.000103167 1.84306e-17)
(3.27762e-05 0.000101483 0)
(3.60075e-05 0.000103024 -9.49471e-18)
(2.80508e-05 9.9189e-05 0)
(3.12742e-05 0.000100895 -9.15259e-18)
(2.25925e-05 9.69793e-05 -1.776e-17)
(2.53006e-05 9.75349e-05 0)
(4.25939e-05 0.000150607 0)
(1.85615e-05 9.48156e-05 3.44739e-17)
(-2.44714e-05 9.80574e-05 -1.83726e-17)
(-2.61605e-05 9.61578e-05 3.98606e-17)
(-3.03168e-05 0.000100186 -1.8238e-17)
(-2.89156e-05 9.94688e-05 3.68071e-17)
(-3.69772e-05 0.000105251 -9.14891e-18)
(-3.36907e-05 0.000101667 0)
(-3.6641e-05 0.000107784 2.18997e-18)
(-3.5994e-05 0.000106624 0)
(-3.39753e-05 0.000108103 -3.48946e-17)
(-3.57646e-05 0.000108184 1.96483e-17)
(-3.21212e-05 0.000107254 1.75699e-17)
(-2.63333e-05 0.000122984 1.35135e-17)
(-2.5634e-05 0.000105242 4.36592e-17)
(-2.57271e-05 0.000115556 4.42174e-18)
(-2.69205e-05 0.000124266 -1.81604e-17)
(-1.43522e-05 3.44392e-05 7.63559e-17)
(2.55903e-05 0.000107096 -1.07258e-16)
(2.03847e-05 8.98743e-05 -2.17059e-16)
(-1.8133e-05 8.03461e-05 -2.86742e-17)
(1.85842e-05 0.000101456 -7.62782e-17)
(2.07725e-05 0.000111099 3.98392e-17)
(1.403e-05 0.00010537 7.67901e-17)
(1.54832e-05 0.000102101 -1.07507e-16)
(-1.40987e-05 0.000105753 0)
(2.25474e-05 8.74975e-05 6.24149e-17)
(-1.62737e-05 0.000100214 -7.05914e-17)
(-1.55666e-05 9.24578e-05 7.08891e-17)
(-3.05223e-05 9.78972e-05 1.79888e-17)
(-2.78137e-05 9.78433e-05 -2.27663e-17)
(1.43095e-05 0.000102151 3.79613e-17)
(-1.17867e-05 0.000102825 7.88724e-17)
(2.29682e-05 0.000116651 0)
(2.14492e-05 0.000103726 -1.65645e-17)
(0.000189829 2.67136 1.01225e-19)
(0.000164744 2.43045 -1.34784e-19)
(-0.000213615 2.43056 -1.09556e-18)
(4.5457e-05 2.67157 1.08811e-18)
(-2.34526e-05 0.000105316 -1.73641e-17)
(-2.57597e-05 8.91117e-05 -1.72817e-17)
(-2.35802e-05 8.94135e-05 0)
(1.55509e-05 7.16912e-05 1.73279e-16)
(3.02247e-05 0.00010654 0)
(-2.31933e-05 2.98531e-05 -8.16337e-17)
(2.16594e-05 0.000118045 3.50606e-17)
(-0.00111851 0.0202948 -3.26924e-16)
(0.022322 0.758772 2.20969e-16)
(0.0674201 0.755778 -8.97815e-17)
(1.51666e-05 0.000106682 0)
(-1.34386e-05 0.000105439 0)
(-0.119946 0.606625 3.67788e-16)
(2.13524e-05 0.000123 -3.58545e-17)
(0.00024251 0.000738249 1.43519e-16)
(3.12457e-05 0.000104377 -3.32061e-17)
(2.86096e-05 0.000102958 3.38295e-17)
(3.11094e-05 0.000101841 0)
(3.28325e-05 0.000102037 3.34825e-17)
(2.99009e-05 9.72917e-05 8.38445e-18)
(3.11698e-05 9.91941e-05 -1.68945e-17)
(2.29955e-05 9.15882e-05 1.64569e-17)
(2.66419e-05 9.53673e-05 1.42208e-26)
(1.85651e-05 8.37768e-05 0)
(2.02219e-05 8.7422e-05 -8.17383e-18)
(1.6065e-05 7.87411e-05 0)
(1.65429e-05 7.97818e-05 -2.04919e-18)
(1.92356e-05 8.05704e-05 -3.25909e-17)
(1.63405e-05 7.6983e-05 0)
(2.29282e-05 9.1065e-05 -1.73465e-17)
(-1.59136e-05 7.57446e-05 1.59297e-17)
(-1.71884e-05 7.71875e-05 2.35519e-17)
(-1.70582e-05 8.09694e-05 -1.97097e-17)
(-1.63241e-05 7.69878e-05 -1.56665e-17)
(-2.34546e-05 8.76342e-05 4.08795e-18)
(-2.04516e-05 8.48226e-05 9.9694e-18)
(-2.89356e-05 9.32522e-05 -2.11395e-18)
(-2.55831e-05 9.08116e-05 0)
(-3.25217e-05 9.66372e-05 -1.69083e-17)
(-3.12182e-05 9.55848e-05 2.16183e-17)
(-3.23377e-05 9.73689e-05 0)
(0.000124881 2.2216 3.36991e-20)
(-0.00035525 2.03966 -3.36728e-20)
(-0.00076418 1.87995 -5.2154e-19)
(-0.00120673 1.73895 1.61291e-18)
(-0.00101692 1.61392 -8.05105e-19)
(-0.000381991 1.50204 -1.33834e-19)
(-0.00128284 1.40078 -2.26772e-18)
(-0.00254352 1.30912 -4.12021e-18)
(-0.00294148 1.22592 -1.31857e-19)
(-0.00277234 1.14934 -2.09232e-18)
(-0.000359775 1.15136 0)
(-0.0034388 1.07802 4.13199e-18)
(-0.00507491 1.01042 1.42236e-17)
(-0.000260877 1.01452 2.42597e-17)
(-0.00116374 1.08083 -8.26562e-18)
(0.00056331 1.31017 4.39294e-18)
(0.000702626 1.22742 8.33046e-18)
(-0.000912649 1.50154 8.03947e-19)
(-0.000900216 1.40094 0)
(0.000452601 1.7395 5.37711e-19)
(0.000316216 1.6139 -5.45154e-24)
(-0.000194562 2.03989 5.72781e-19)
(-9.55378e-05 1.8804 -1.21075e-18)
(-0.000430869 2.22176 -3.36995e-20)
(2.9901e-05 8.88822e-05 0)
(2.71634e-05 8.59742e-05 0)
(3.34349e-05 8.90721e-05 1.86451e-17)
(3.09591e-05 8.76639e-05 0)
(3.69274e-05 8.81682e-05 -9.56309e-18)
(3.4255e-05 8.80996e-05 -9.45594e-18)
(3.75141e-05 8.69399e-05 9.63432e-18)
(3.76497e-05 8.88735e-05 -8.43295e-18)
(3.45693e-05 8.54006e-05 -1.85071e-17)
(3.73366e-05 8.68421e-05 -9.37406e-18)
(2.96468e-05 8.32398e-05 0)
(3.27147e-05 8.45837e-05 1.81636e-17)
(2.34196e-05 7.98933e-05 -1.74158e-17)
(2.72972e-05 8.14937e-05 8.83757e-18)
(-0.0013309 0.0133785 3.36248e-16)
(2.13938e-05 7.87963e-05 2.35596e-17)
(1.3387e-05 7.71343e-05 3.81502e-18)
(-1.98518e-05 7.44507e-05 0)
(-1.20075e-05 8.85259e-05 -2.75152e-16)
(-1.14106e-05 7.88342e-05 -2.75875e-16)
(-1.58158e-05 7.65127e-05 -6.17031e-17)
(-2.18702e-05 7.76542e-05 1.89089e-17)
(-2.16349e-05 7.65815e-05 0)
(-2.76285e-05 8.0934e-05 -1.84143e-17)
(-2.33155e-05 7.85443e-05 -9.47239e-18)
(-3.26911e-05 8.45814e-05 -9.06734e-18)
(-3.02237e-05 8.35927e-05 1.81592e-17)
(-3.68144e-05 8.80525e-05 2.67633e-17)
(-3.5066e-05 8.80881e-05 0)
(-3.70957e-05 9.07444e-05 1.52963e-17)
(-3.71933e-05 8.99849e-05 -8.83569e-18)
(-3.3777e-05 9.04182e-05 -1.7387e-17)
(-3.56266e-05 9.0812e-05 -1.90923e-17)
(-2.99365e-05 8.91648e-05 4.37019e-18)
(-3.15219e-05 8.984e-05 8.72359e-18)
(-2.75703e-05 8.89698e-05 4.3611e-18)
(-2.3686e-05 0.000122455 -1.79794e-17)
(-2.31785e-05 0.000115103 -1.763e-17)
(-2.44564e-05 0.000119135 -5.73665e-17)
(-2.40256e-05 0.000123675 2.04183e-17)
(-2.47251e-05 9.83397e-05 1.84575e-17)
(-2.46104e-05 0.00011195 0)
(-0.00058337 0.00566404 0)
(0.00247336 0.0271089 -1.61398e-16)
(1.16078e-05 0.000103537 -3.74898e-17)
(1.21105e-05 9.83236e-05 1.40169e-16)
(-1.3066e-05 0.000100893 -1.41641e-16)
(-1.18492e-05 0.000104009 -7.46488e-17)
(2.35057e-05 8.92856e-05 -1.56758e-17)
(4.68485e-05 0.000131239 1.40082e-16)
(-0.000262846 2.95146 1.34835e-19)
(0.000355906 2.95174 0)
(2.5342e-05 7.82174e-05 -7.23236e-17)
(0.048159 0.175986 0)
(-0.00555755 1.14843 8.39463e-18)
(-0.00800909 1.07753 8.32234e-18)
(1.42238e-05 0.000104866 -1.5394e-16)
(-0.0421112 0.83858 9.14883e-17)
(-1.03088e-05 9.0688e-05 2.8206e-16)
(-1.42972e-05 0.000103502 8.09299e-17)
(2.1741e-05 0.000109522 3.70595e-17)
(2.01054e-05 9.40238e-05 1.22854e-16)
(0.000330129 2.95148 -5.38815e-19)
(-0.000733154 3.27756 -1.68624e-19)
(0.00029993 3.27796 1.07934e-18)
(-2.1313e-05 0.000105163 -1.08489e-18)
(-2.11921e-05 9.08934e-05 6.95358e-18)
(-2.66661e-05 7.7237e-05 -1.4297e-25)
(-2.56091e-05 7.89068e-05 0)
(0.0109234 0.952628 2.32538e-17)
(-0.0067734 0.945995 -1.57555e-17)
(1.17643e-05 6.74865e-05 4.9033e-17)
(8.61481e-06 8.11046e-05 5.37696e-17)
(2.6666e-05 0.000129136 0)
(-1.49845e-05 0.000104474 8.84807e-17)
(-8.87012e-06 6.18723e-05 4.01998e-17)
(-6.35123e-06 8.01742e-05 -2.31247e-16)
(0.0717974 0.68165 1.66137e-16)
(8.4631e-05 0.000235257 1.54862e-16)
(0.000147665 0.000440844 1.38456e-16)
(-4.58925e-06 2.36292e-05 -1.55949e-16)
(-2.37817e-05 8.86644e-05 -1.37379e-17)
(-2.07659e-05 9.8314e-05 -1.85188e-17)
(-2.01726e-05 8.87934e-05 1.85472e-17)
(1.25399e-05 0.00010549 4.55411e-25)
(-1.20449e-05 0.000106225 7.21844e-17)
(2.11959e-05 8.90263e-05 3.46264e-17)
(2.01423e-05 0.000116221 -1.72096e-17)
(1.96712e-05 0.000106641 3.42269e-17)
(2.05669e-05 0.000124178 3.52395e-17)
(1.97902e-05 0.000123958 -1.63994e-17)
(2.0259e-05 0.000117973 -3.59005e-17)
(3.0537e-05 9.05358e-05 -1.64514e-17)
(2.61382e-05 9.48337e-05 1.54878e-17)
(3.20557e-05 8.77251e-05 0)
(3.02053e-05 9.05283e-05 1.6669e-17)
(2.79514e-05 8.43779e-05 -8.34393e-18)
(3.01331e-05 8.70011e-05 0)
(2.10291e-05 7.91894e-05 8.27294e-18)
(2.42385e-05 8.22499e-05 1.24471e-17)
(1.60991e-05 7.29858e-05 -4.08418e-18)
(1.80722e-05 7.65746e-05 -2.45465e-17)
(1.69803e-05 7.01579e-05 -3.33793e-17)
(1.5036e-05 7.03713e-05 2.8587e-17)
(2.59675e-05 8.14516e-05 3.24418e-17)
(1.95893e-05 7.27698e-05 -3.24924e-17)
(3.74601e-05 9.73627e-05 2.48714e-17)
(-2.14528e-05 0.00012047 -8.68149e-17)
(-0.00010811 0.000291384 -3.29769e-16)
(-3.03653e-05 8.55334e-05 -3.02286e-17)
(-4.60176e-05 0.00010951 2.16039e-17)
(-1.76933e-05 6.80645e-05 -3.15803e-17)
(-2.11373e-05 7.28283e-05 3.89123e-17)
(-1.53227e-05 7.00803e-05 0)
(-1.52535e-05 6.80302e-05 1.55282e-17)
(-1.99391e-05 7.67366e-05 4.08406e-18)
(-1.71305e-05 7.30436e-05 -2.00639e-18)
(-2.68382e-05 8.20934e-05 8.29487e-18)
(-2.3145e-05 7.97095e-05 0)
(-3.15018e-05 8.56654e-05 -5.41328e-19)
(-2.98103e-05 8.4176e-05 -8.43355e-18)
(-2.98658e-05 8.77398e-05 1.79306e-17)
(-3.14044e-05 8.66131e-05 -2.18797e-17)
(-2.69933e-05 8.80809e-05 1.35719e-17)
(-0.000118553 2.4304 0)
(-8.79237e-05 2.67134 -5.72954e-19)
(-0.000152137 2.03963 0)
(-0.000197935 2.22162 0)
(-2.37501e-05 1.73881 1.67996e-20)
(-2.7622e-05 1.87987 -1.68233e-20)
(-0.00163926 1.50129 -5.36e-19)
(-0.000843873 1.61337 1.17496e-19)
(-0.0017666 1.3088 0)
(-0.00138923 1.40044 4.81093e-18)
(-0.00340407 1.22516 -8.47045e-18)
(0.000100496 2.95194 -1.07969e-18)
(2.13e-06 3.27827 -1.07858e-18)
(0.00110868 3.27778 3.03345e-19)
(0.0389636 0.857399 8.34287e-17)
(-0.0328324 0.849525 5.26301e-17)
(0.00913817 0.0406973 1.38867e-16)
(0.00965875 1.01524 -3.69779e-17)
(-0.00243691 0.965941 -3.20376e-17)
(0.00609134 1.15 -8.42155e-18)
(0.00867514 1.08094 0)
(0.00237623 1.30941 -4.26137e-18)
(0.00379362 1.22587 -4.24291e-18)
(0.00119696 1.50223 -1.60709e-18)
(0.0025661 1.40114 -5.34959e-19)
(-0.000909673 1.73968 -8.06842e-19)
(-0.00106708 1.61434 1.60974e-18)
(-0.000120034 2.04061 -6.73455e-20)
(-0.000118482 1.88083 6.72774e-19)
(0.000108868 2.43105 5.56551e-19)
(0.000110403 2.22244 -5.05347e-19)
(2.1872e-06 2.67188 1.07038e-18)
(2.73755e-05 7.74521e-05 -9.10273e-18)
(2.89861e-05 7.49863e-05 1.80261e-17)
(3.27447e-05 7.77423e-05 -4.64434e-18)
(3.21919e-05 7.68491e-05 -9.14265e-18)
(3.69661e-05 7.77731e-05 4.70319e-18)
(3.48144e-05 7.79569e-05 -2.34112e-18)
(3.82337e-05 7.72604e-05 -9.26079e-18)
(3.79109e-05 7.83271e-05 8.48908e-18)
(3.58584e-05 7.57164e-05 -9.19232e-18)
(3.81138e-05 7.68149e-05 0)
(3.1361e-05 7.27728e-05 0)
(3.40284e-05 7.41314e-05 0)
(2.58235e-05 6.9571e-05 -1.08384e-17)
(2.88934e-05 7.06029e-05 2.19672e-18)
(2.10621e-05 6.67579e-05 -1.66782e-17)
(2.34133e-05 6.6919e-05 4.40496e-25)
(1.42378e-05 6.04388e-05 -5.14554e-17)
(1.99166e-05 6.31914e-05 2.90127e-17)
(6.92921e-06 6.65856e-05 -1.8754e-17)
(9.17965e-06 5.66766e-05 1.79061e-17)
(1.10187e-05 5.95478e-05 0)
(-5.3487e-06 7.07815e-05 1.32769e-16)
(-4.38324e-06 5.80396e-05 -2.43448e-17)
(-6.54454e-07 5.85616e-05 8.49305e-17)
(-5.09298e-06 5.31523e-05 9.87074e-18)
(-4.15087e-06 5.39247e-05 3.56795e-17)
(-1.34338e-05 6.07686e-05 1.22247e-16)
(-1.11462e-05 5.5814e-05 3.69475e-17)
(-1.83359e-05 6.22728e-05 -5.01885e-17)
(-1.27579e-05 6.38324e-05 3.79243e-18)
(-2.32961e-05 6.39664e-05 4.50644e-17)
(-2.12077e-05 6.42445e-05 3.52298e-17)
(-2.84705e-05 6.96847e-05 -9.02553e-18)
(-2.77991e-05 6.80391e-05 -2.7312e-17)
(-3.43273e-05 7.42115e-05 8.94867e-18)
(-3.21624e-05 7.2567e-05 1.80054e-17)
(-3.81637e-05 7.78741e-05 -1.32392e-17)
(-3.66018e-05 7.65876e-05 2.22513e-17)
(-3.73578e-05 7.95686e-05 0)
(-3.8035e-05 7.92754e-05 -1.31764e-17)
(-3.3602e-05 7.88948e-05 0)
(-3.56254e-05 7.95441e-05 -5.44719e-19)
(-2.99715e-05 7.75711e-05 -1.08724e-17)
(-3.14327e-05 7.83258e-05 8.69077e-18)
(-2.83675e-05 7.77662e-05 4.33634e-18)
(-2.0496e-05 0.000121846 -5.59708e-19)
(-2.03217e-05 0.000115035 2.46808e-18)
(-2.07265e-05 0.000118626 1.60468e-17)
(-2.04657e-05 0.000123123 -1.55239e-17)
(-2.05527e-05 0.000111488 0)
(0.0168114 0.695954 -3.37077e-16)
(0.00115546 0.00525395 -3.57779e-16)
(-0.00886466 1.01197 -3.26074e-22)
(1.13041e-05 0.000106342 7.53845e-17)
(1.03316e-05 0.000101363 1.44674e-16)
(-9.30219e-06 0.000100325 0)
(-9.91973e-06 0.000104265 -2.29613e-16)
(1.93852e-05 8.37098e-05 -1.10456e-17)
(0.0681388 0.675895 -8.01696e-16)
(0.000116033 0.000319828 -7.59214e-17)
(-2.90708e-06 7.23611e-05 -1.44022e-16)
(-0.00028095 2.95242 1.07909e-18)
(-0.000146671 3.2787 3.37078e-20)
(1.6406e-05 9.20458e-05 -4.42946e-17)
(0.00201621 0.0170026 1.84035e-16)
(2.28521e-05 7.59114e-05 2.96034e-16)
(2.17988e-05 7.57965e-05 1.4011e-24)
(1.92034e-05 8.03169e-05 0)
(-2.46694e-05 7.82652e-05 2.47654e-17)
(-2.34514e-05 6.9149e-05 -2.27074e-17)
(-2.04096e-05 6.96651e-05 2.19189e-25)
(-0.0259524 0.89758 -1.1881e-16)
(-0.00031142 0.000682509 1.40133e-16)
(-0.000334497 0.00113034 1.39353e-16)
(0.025539 0.707137 1.71909e-16)
(-1.64553e-05 4.93614e-05 0)
(-0.00764799 1.14698 -1.69225e-17)
(-0.0107152 1.07516 -1.2527e-21)
(0.00040827 0.00133264 1.50587e-16)
(0.000827862 0.00171679 6.43927e-17)
(0.000294077 0.00190194 1.43223e-16)
(7.99338e-06 9.18348e-05 -1.60985e-16)
(1.47705e-05 0.000112992 0)
(-1.46042e-05 0.000108718 0)
(-7.7418e-06 9.35169e-05 0)
(-0.000132209 0.000422451 4.24582e-16)
(0.000483236 2.953 3.3716e-20)
(0.000528624 3.27936 6.74252e-20)
(-0.00232753 0.0130722 1.71941e-16)
(0.0115106 0.711063 -6.21945e-17)
(0.05503 0.739835 -3.46694e-22)
(0.000228329 0.000810257 -1.43333e-16)
(3.28582e-05 0.000152075 0)
(5.4801e-06 8.57298e-05 -1.92746e-17)
(6.09293e-06 5.69124e-05 0)
(5.78667e-06 6.62995e-05 0)
(-6.64327e-07 5.32698e-05 3.67174e-17)
(2.35937e-07 6.63196e-05 -1.72509e-24)
(-3.48292e-06 8.1055e-05 1.45133e-16)
(-3.07644e-05 0.000141568 0)
(-7.19267e-05 0.000531145 -3.25925e-16)
(-0.0132646 0.952422 -4.86401e-17)
(1.04898e-05 2.63748e-05 5.83889e-16)
(7.57976e-05 0.000350584 3.0738e-16)
(0.00151876 0.00702557 2.06291e-16)
(8.98508e-06 0.000106032 -7.36243e-17)
(-9.59986e-06 0.00010392 0)
(1.63204e-05 0.000116549 -9.57065e-26)
(1.67976e-05 0.0001061 -2.61111e-17)
(1.73822e-05 0.000122544 -1.7606e-17)
(1.63763e-05 0.000122686 1.35659e-19)
(1.79397e-05 0.000109061 0)
(1.74144e-05 0.000118137 1.80783e-17)
(1.59006e-05 8.99425e-05 0)
(1.75404e-05 9.66152e-05 -3.91835e-17)
(1.66078e-05 6.80246e-05 0)
(2.74054e-05 7.03827e-05 2.3609e-24)
(1.98562e-05 6.65912e-05 -1.04008e-17)
(2.84748e-05 6.76739e-05 0)
(2.4193e-05 7.24827e-05 -7.70424e-17)
(2.91018e-05 6.58444e-05 4.47276e-18)
(3.13172e-05 6.84569e-05 -4.44812e-18)
(2.57346e-05 6.2544e-05 -8.3537e-18)
(2.88934e-05 6.48093e-05 4.1791e-18)
(1.80701e-05 5.84353e-05 0)
(2.20383e-05 6.0995e-05 -1.7027e-25)
(1.33289e-05 5.38908e-05 2.46066e-17)
(1.49591e-05 5.61456e-05 4.11855e-18)
(1.79496e-05 5.48398e-05 -5.15951e-19)
(1.40358e-05 5.26744e-05 -1.23286e-17)
(4.14284e-05 8.05791e-05 -3.20272e-17)
(2.69193e-05 6.14491e-05 0)
(0.000110154 0.000190348 4.44755e-17)
(6.90383e-05 0.000119203 2.36244e-17)
(0.00012864 0.000292052 -1.20113e-16)
(-0.000133411 0.000248802 5.62491e-17)
(-0.000194502 0.000398944 -1.15577e-16)
(-5.21193e-05 9.87923e-05 0)
(-8.49323e-05 0.000152347 -5.13964e-17)
(-2.08514e-05 5.56633e-05 1.52607e-17)
(-3.34738e-05 6.81642e-05 0)
(-1.31923e-05 5.19941e-05 -7.87921e-18)
(-1.5196e-05 5.13975e-05 0)
(-1.74567e-05 5.67519e-05 0)
(-1.46768e-05 5.42096e-05 0)
(-2.51965e-05 6.11572e-05 1.65049e-17)
(-2.11185e-05 5.92707e-05 -1.63541e-17)
(-3.03237e-05 6.44522e-05 8.58141e-18)
(-2.84317e-05 6.28388e-05 4.16042e-18)
(-2.8634e-05 6.69007e-05 -8.86561e-18)
(-3.02166e-05 6.57143e-05 -2.17166e-17)
(-2.62509e-05 6.79024e-05 1.79037e-17)
(-1.67778e-05 2.43073 -4.71897e-19)
(-6.30433e-05 2.67204 -1.01069e-18)
(-7.78963e-05 2.03944 5.38638e-19)
(4.69846e-05 2.22161 6.73315e-19)
(-0.00104713 1.7386 0)
(-0.000541812 1.87966 -5.38012e-19)
(-0.00132627 1.50089 -1.0732e-18)
(-0.000890255 1.61319 -6.71614e-20)
(-0.00406281 1.30806 -4.26593e-18)
(-0.00261575 1.39974 -2.14173e-18)
(-0.00528921 1.22425 1.27655e-17)
(0.000160864 3.66121 0)
(0.000722981 3.66243 1.01108e-18)
(0.000476043 3.66164 -7.40899e-19)
(-3.08396e-07 7.62838e-05 -7.87949e-17)
(-0.000312113 3.66288 -6.73699e-20)
(-0.000397823 3.66222 6.73505e-20)
(0.0461534 0.805223 0)
(0.0389956 0.784216 9.97431e-17)
(0.0601056 0.905669 -3.54351e-17)
(0.0572625 0.878561 8.71224e-17)
(0.0161858 1.00675 -2.95222e-17)
(0.0227083 0.947321 4.22953e-17)
(0.00788224 1.14573 4.24322e-18)
(0.011562 1.0738 4.22896e-18)
(0.00321686 1.30683 -4.26783e-18)
(0.00513326 1.22296 -4.85663e-22)
(0.000510535 1.50109 -2.14175e-18)
(0.00119785 1.39918 8.55786e-18)
(0.000786386 1.73926 -2.68918e-19)
(0.00162183 1.61377 -2.68583e-19)
(3.39283e-05 2.04038 -4.71179e-19)
(-0.000118518 1.88042 5.385e-19)
(0.000129261 2.43158 5.39082e-19)
(3.93024e-05 2.22257 2.35984e-19)
(0.000337921 2.67269 -5.39753e-19)
(2.67675e-05 5.67972e-05 1.35159e-16)
(1.72196e-05 6.04978e-05 7.76517e-17)
(2.00715e-05 6.01478e-05 -2.36753e-16)
(2.42223e-05 5.18083e-05 -1.03554e-17)
(2.60429e-05 5.33782e-05 -3.34504e-17)
(2.79601e-05 5.45003e-05 -4.07356e-18)
(2.84034e-05 5.68107e-05 1.42235e-17)
(3.19718e-05 5.59887e-05 2.31904e-18)
(3.07539e-05 5.57663e-05 -5.76995e-19)
(3.63047e-05 5.7041e-05 2.45428e-18)
(3.40937e-05 5.67492e-05 -8.17974e-26)
(3.91203e-05 5.70807e-05 -2.29216e-18)
(3.82299e-05 5.78129e-05 -2.87351e-19)
(3.777e-05 5.55227e-05 1.35783e-17)
(3.93984e-05 5.6719e-05 4.56895e-18)
(3.35848e-05 5.19326e-05 4.41338e-18)
(3.63427e-05 5.37009e-05 2.17289e-25)
(2.75274e-05 4.81229e-05 1.08436e-17)
(3.10198e-05 4.96145e-05 -1.31644e-17)
(2.23852e-05 4.48983e-05 2.11395e-18)
(2.49926e-05 4.60364e-05 -1.50901e-17)
(1.79577e-05 4.26568e-05 -5.97821e-17)
(1.8994e-05 4.31251e-05 1.2725e-17)
(1.00267e-05 3.87749e-05 -1.74654e-17)
(1.41204e-05 3.96268e-05 3.47498e-17)
(3.37198e-06 5.61079e-05 0)
(4.17407e-06 3.76826e-05 -1.72907e-17)
(7.94968e-06 3.77514e-05 1.73979e-17)
(2.54301e-06 3.71791e-05 0)
(7.76519e-07 3.73892e-05 -4.25012e-18)
(-9.83612e-07 5.56023e-05 0)
(7.34036e-08 3.64241e-05 8.70796e-18)
(6.17459e-07 3.66231e-05 0)
(-1.87581e-06 3.6308e-05 -1.13051e-18)
(-8.87816e-07 3.52358e-05 8.92904e-18)
(-8.36884e-06 3.56037e-05 0)
(-3.43232e-06 3.45442e-05 1.10327e-18)
(-1.39033e-05 3.78752e-05 2.55029e-17)
(-1.01202e-05 3.98032e-05 -4.32891e-18)
(-2.0962e-05 4.38234e-05 -2.83169e-25)
(-1.90555e-05 4.06558e-05 1.65934e-17)
(-2.5785e-05 4.6221e-05 -8.80914e-18)
(-2.3976e-05 4.29249e-05 0)
(-3.13064e-05 4.93531e-05 8.93633e-18)
(-2.85272e-05 4.65727e-05 -1.78786e-17)
(-3.64009e-05 5.40145e-05 4.42234e-18)
(-3.40538e-05 5.20006e-05 4.45296e-18)
(-3.90591e-05 5.75461e-05 -2.19277e-17)
(-3.82214e-05 5.64844e-05 1.32358e-17)
(-3.72754e-05 5.86155e-05 -8.70805e-18)
(-3.85589e-05 5.85562e-05 1.31252e-17)
(-3.28737e-05 5.7643e-05 0)
(-3.50806e-05 5.83328e-05 0)
(-2.96511e-05 5.67521e-05 1.95297e-17)
(-3.05754e-05 5.69083e-05 -6.5061e-18)
(-2.77756e-05 5.81589e-05 4.44708e-25)
(-2.76716e-05 5.61226e-05 -8.65701e-18)
(-2.35225e-05 6.02073e-05 -3.06398e-17)
(-2.54586e-05 5.55572e-05 3.36162e-17)
(-1.93836e-05 7.82482e-05 2.48958e-17)
(-1.9229e-05 6.28235e-05 4.64422e-17)
(-1.84898e-05 0.000105994 2.18117e-18)
(-1.95819e-05 9.23014e-05 -1.22979e-17)
(-1.74276e-05 0.000122029 -1.11692e-18)
(-1.78306e-05 0.000115765 1.20734e-17)
(-1.73927e-05 0.000118692 -2.28157e-18)
(-1.72045e-05 0.000123131 1.80091e-17)
(-1.75235e-05 9.82979e-05 0)
(-1.71614e-05 0.000111418 2.29833e-18)
(-1.77867e-05 7.03292e-05 1.68248e-17)
(-1.70085e-05 8.86134e-05 -1.73777e-17)
(0.080776 0.619066 -1.63953e-16)
(-0.0246898 0.842028 -1.34508e-16)
(-2.30647e-05 9.95038e-05 -3.14469e-17)
(0.0016057 0.00340453 2.91721e-16)
(-0.0183759 1.00887 -1.67682e-17)
(0.00270483 0.0425154 3.0596e-16)
(0.000744154 0.00311624 -1.67039e-16)
(0.00149899 0.0107887 6.83358e-22)
(0.00114654 0.00780214 2.22054e-16)
(0.000502882 0.00552854 -2.32752e-16)
(8.71555e-06 0.000102592 7.47271e-17)
(1.1172e-05 0.000109058 -7.42726e-17)
(-2.32556e-07 5.58685e-05 -1.70292e-17)
(2.00181e-06 5.61748e-05 -1.92687e-25)
(-9.00577e-06 0.000108099 3.13206e-16)
(-6.13823e-06 0.000101763 0)
(-0.000167292 0.000693188 -4.62189e-16)
(0.000555941 0.000926205 -1.20757e-16)
(-0.000416652 0.00217669 -2.72388e-17)
(5.07965e-06 3.18591e-05 -1.42333e-16)
(-0.00015538 0.00563063 -5.10713e-16)
(-0.000603196 0.00128665 8.19881e-18)
(-0.000261048 0.000425112 5.89193e-17)
(0.000754316 3.6634 -1.07748e-18)
(0.174305 0.665638 8.68325e-17)
(0.100968 0.722887 -1.67857e-21)
(1.46453e-05 6.2384e-05 1.91348e-17)
(1.80054e-05 5.06027e-05 -2.34835e-25)
(1.9791e-05 5.16164e-05 9.79937e-17)
(0.00387097 0.752698 3.90585e-16)
(0.000209268 0.00124579 -3.14243e-16)
(1.42658e-05 0.000124501 0)
(5.92467e-06 9.35557e-05 7.65263e-17)
(2.37028e-06 6.65683e-05 -2.20464e-18)
(-7.72558e-07 6.435e-05 0)
(-5.78958e-06 9.38331e-05 -2.19935e-24)
(-1.47626e-05 0.000118345 -2.52243e-16)
(-7.15912e-05 0.000301141 -1.6624e-16)
(1.26583e-05 8.51746e-05 -1.44847e-17)
(1.4792e-05 6.78798e-05 4.83303e-18)
(-0.0155291 0.893217 1.57971e-17)
(0.00137693 0.0109413 8.4947e-17)
(-0.112215 0.698228 -2.01909e-16)
(0.0866297 0.676192 4.94781e-16)
(-2.48864e-06 8.38934e-05 0)
(0.000331164 0.00553994 1.92726e-16)
(0.0227084 0.72007 -4.14297e-16)
(-0.0236038 0.669939 -1.265e-16)
(0.000104064 0.000527229 -3.18555e-16)
(0.0603754 0.723702 -1.28076e-20)
(3.67313e-05 0.000184356 -4.83387e-16)
(4.04631e-06 8.23035e-05 1.82954e-17)
(-6.37399e-07 7.92395e-05 -7.10611e-17)
(-3.24304e-05 0.000161253 -9.74558e-17)
(-1.40368e-05 7.00839e-05 2.32707e-18)
(-1.6379e-05 6.25253e-05 -8.69354e-18)
(-1.27105e-05 6.20435e-05 6.97752e-18)
(-0.00146276 4.1058 0)
(-0.000450735 3.66433 1.07865e-18)
(-0.000650991 4.10721 0)
(-0.0253546 0.947021 6.64286e-17)
(-1.64082e-05 8.11223e-05 8.55936e-18)
(3.96686e-05 0.000217971 9.30792e-23)
(-3.32123e-05 0.000494852 -1.49288e-16)
(0.000559142 0.00422751 -1.08588e-16)
(-3.15441e-05 0.000119937 -3.49958e-17)
(-2.86595e-05 0.000112541 2.26403e-17)
(7.80909e-06 0.000106863 7.35823e-17)
(3.58731e-08 5.57669e-05 2.12624e-17)
(-7.79753e-06 0.000106782 -1.50094e-16)
(-0.000167635 0.000905419 -2.48153e-22)
(1.51106e-05 9.23256e-05 3.59714e-17)
(1.56596e-05 7.97469e-05 -1.84922e-17)
(1.36991e-05 0.000116837 1.52926e-17)
(1.40794e-05 0.000107502 0)
(1.33134e-05 0.000123233 -6.24651e-26)
(1.33541e-05 0.000123154 -6.55662e-18)
(1.32571e-05 0.000109976 0)
(1.27818e-05 0.000117941 -8.97247e-18)
(1.19995e-05 9.60833e-05 -9.48572e-18)
(1.58467e-05 6.08457e-05 9.69345e-18)
(2.05071e-05 6.22951e-05 7.24357e-17)
(1.67261e-05 6.23002e-05 0)
(2.7008e-05 6.2305e-05 1.25912e-25)
(2.57255e-05 6.18792e-05 -8.49759e-18)
(2.88225e-05 5.7788e-05 -2.6463e-19)
(2.8908e-05 5.85715e-05 4.36363e-18)
(2.47755e-05 5.46857e-05 2.09379e-18)
(2.75608e-05 5.61284e-05 4.34035e-18)
(1.686e-05 5.17143e-05 2.07499e-18)
(2.08244e-05 5.34174e-05 -1.45462e-17)
(1.31277e-05 4.95212e-05 -2.46675e-17)
(1.40207e-05 5.05034e-05 1.24451e-17)
(2.46471e-05 5.6239e-05 6.73928e-17)
(1.59053e-05 5.05296e-05 -3.29597e-17)
(7.37126e-05 0.000104921 0)
(4.17892e-05 7.12533e-05 -3.25158e-17)
(0.000212323 0.00029678 4.62101e-17)
(0.000126663 0.000173551 0)
(0.000350115 0.000542267 1.14508e-16)
(0.000111401 0.00559965 -1.79727e-16)
(-0.000383959 0.000757608 -9.35647e-23)
(-9.4772e-05 0.000136355 0)
(-0.000160312 0.000240069 0)
(-3.01239e-05 6.06931e-05 -3.09177e-17)
(-5.32422e-05 8.49296e-05 0)
(-1.3122e-05 4.8724e-05 3.85196e-25)
(-1.78827e-05 5.1139e-05 3.9133e-17)
(-1.57128e-05 5.08013e-05 0)
(-1.31728e-05 4.92704e-05 1.00243e-18)
(-2.39458e-05 5.39438e-05 0)
(-1.96083e-05 5.27716e-05 4.09183e-18)
(-2.88471e-05 5.65082e-05 -4.23015e-18)
(-2.72059e-05 5.50606e-05 4.15054e-18)
(-2.68695e-05 5.9636e-05 0)
(-2.85764e-05 5.79201e-05 1.72597e-17)
(-2.17038e-05 6.17834e-05 1.1257e-17)
(-2.43461e-05 6.06571e-05 -4.44635e-18)
(-1.86796e-05 6.22383e-05 -9.76171e-18)
(-0.000110311 2.95327 0)
(-0.000351614 3.28005 -1.11126e-18)
(0.000129349 2.43119 -1.14575e-18)
(-5.11256e-06 2.67257 3.36957e-20)