/*--------------------------------*- C++ -*----------------------------------*\
| =========                 |                                                 |
| \\      /  F ield         | OpenFOAM: The Open Source CFD Toolbox           |
|  \\    /   O peration     | Version:  2212                                  |
|   \\  /    A nd           | Website:  www.openfoam.com                      |
|    \\/     M anipulation  |                                                 |
\*---------------------------------------------------------------------------*/
FoamFile
{
    version     2.0;
    format      ascii;
    arch        "LSB;label=32;scalar=64";
    class       volScalarField;
    location    "0.475";
    object      p;
}
// * * * * * * * * * * * * * * * * * * * * * * * * * * * * * * * * * * * * * //

dimensions      [0 2 -2 0 0 0 0];

internalField   nonuniform List<scalar> 
24240
(
-5.72857
-5.72832
-5.72798
-5.72744
-5.72675
-5.72592
-5.72498
-5.72393
-5.72282
-5.72167
-5.72052
-5.7194
-5.71834
-5.71736
-5.71648
-5.71571
-5.71505
-5.71451
-5.71408
-5.71392
-5.00478
-5.00492
-5.0051
-5.00538
-5.00574
-5.00618
-5.00668
-5.00723
-5.00783
-5.00844
-5.00905
-5.00965
-5.01021
-5.01073
-5.0112
-5.0116
-5.01193
-5.01218
-5.01237
-5.0124
-4.69468
-4.69479
-4.69499
-4.69528
-4.69566
-4.69612
-4.69663
-4.6972
-4.6978
-4.69842
-4.69903
-4.69963
-4.70019
-4.70071
-4.70117
-4.70158
-4.70191
-4.70216
-4.70234
-4.70242
-4.57885
-4.5789
-4.57899
-4.57912
-4.57929
-4.57949
-4.57972
-4.57998
-4.58025
-4.58052
-4.5808
-4.58107
-4.58132
-4.58155
-4.58176
-4.58194
-4.58209
-4.5822
-4.58227
-4.5823
-4.46048
-4.4605
-4.46056
-4.46063
-4.46074
-4.46086
-4.461
-4.46116
-4.46134
-4.46151
-4.4617
-4.46188
-4.46205
-4.46222
-4.46236
-4.46249
-4.4626
-4.46269
-4.46274
-4.46278
-4.41779
-4.4178
-4.41784
-4.41789
-4.41796
-4.41805
-4.41815
-4.41826
-4.41839
-4.41851
-4.41864
-4.41877
-4.41889
-4.41901
-4.41912
-4.41921
-4.41929
-4.41935
-4.4194
-4.41943
-4.36826
-4.36827
-4.36829
-4.36831
-4.36835
-4.36839
-4.36844
-4.3685
-4.36857
-4.36864
-4.36871
-4.36879
-4.36887
-4.36894
-4.36901
-4.36907
-4.36913
-4.36917
-4.3692
-4.36923
-4.35923
-4.35924
-4.35925
-4.35928
-4.35931
-4.35935
-4.3594
-4.35946
-4.35952
-4.35959
-4.35966
-4.35973
-4.35981
-4.35988
-4.35995
-4.36001
-4.36006
-4.3601
-4.36014
-4.36016
-4.3492
-4.3492
-4.34922
-4.34925
-4.34928
-4.34932
-4.34937
-4.34943
-4.34949
-4.34956
-4.34963
-4.3497
-4.34978
-4.34985
-4.34991
-4.34997
-4.35003
-4.35007
-4.3501
-4.35012
-4.34813
-4.34813
-4.34815
-4.34817
-4.3482
-4.34824
-4.34828
-4.34833
-4.34839
-4.34846
-4.34852
-4.3486
-4.34867
-4.34874
-4.34881
-4.34887
-4.34892
-4.34896
-4.34898
-4.349
-4.37601
-4.37603
-4.37607
-4.37614
-4.37622
-4.37632
-4.37644
-4.37656
-4.37669
-4.37683
-4.37697
-4.37711
-4.37724
-4.37736
-4.37747
-4.37757
-4.37765
-4.37771
-4.37775
-4.37777
-4.38613
-4.38614
-4.38617
-4.38622
-4.38628
-4.38635
-4.38644
-4.38653
-4.38664
-4.38674
-4.38686
-4.38697
-4.38708
-4.38718
-4.38727
-4.38735
-4.38741
-4.38745
-4.38748
-4.38749
-4.4484
-4.44843
-4.44849
-4.44858
-4.44869
-4.44882
-4.44897
-4.44913
-4.4493
-4.44948
-4.44966
-4.44983
-4.44999
-4.45014
-4.45027
-4.45038
-4.45046
-4.45052
-4.45056
-4.45059
-4.47799
-4.47801
-4.47806
-4.47813
-4.47822
-4.47832
-4.47845
-4.47858
-4.47873
-4.47888
-4.47903
-4.47918
-4.47932
-4.47945
-4.47956
-4.47966
-4.47972
-4.47977
-4.47979
-4.47981
-4.5868
-4.58684
-4.58692
-4.58703
-4.58718
-4.58735
-4.58754
-4.58775
-4.58796
-4.58818
-4.5884
-4.58861
-4.58881
-4.58899
-4.58914
-4.58926
-4.58936
-4.58943
-4.58947
-4.5895
-4.66016
-4.6602
-4.66027
-4.66038
-4.66052
-4.66069
-4.66088
-4.66109
-4.66131
-4.66153
-4.66176
-4.66197
-4.66217
-4.66236
-4.66251
-4.66264
-4.66273
-4.66279
-4.66282
-4.66283
-4.86194
-4.86199
-4.8621
-4.86225
-4.86244
-4.86266
-4.86292
-4.86318
-4.86347
-4.86375
-4.86403
-4.86429
-4.86454
-4.86476
-4.86495
-4.86511
-4.86522
-4.86529
-4.86533
-4.86532
-5.06352
-5.06359
-5.06373
-5.06394
-5.06419
-5.0645
-5.06484
-5.06521
-5.0656
-5.06599
-5.06638
-5.06675
-5.0671
-5.06741
-5.06768
-5.06789
-5.06805
-5.06815
-5.06819
-5.06817
-5.59248
-5.59251
-5.59258
-5.59267
-5.59279
-5.59292
-5.59307
-5.59323
-5.5934
-5.59357
-5.59373
-5.59389
-5.59403
-5.59416
-5.59427
-5.59436
-5.59441
-5.59443
-5.59441
-5.59436
-6.42102
-6.42102
-6.42105
-6.42108
-6.42112
-6.42117
-6.42124
-6.4213
-6.42137
-6.42144
-6.42151
-6.42158
-6.42165
-6.42172
-6.42179
-6.42185
-6.42191
-6.42196
-6.422
-6.42206
-15.8289
-15.8288
-15.8287
-15.8286
-15.8284
-15.8282
-15.828
-15.8277
-15.8275
-15.8272
-15.8269
-15.8267
-15.8265
-15.8263
-15.8261
-15.8259
-15.8258
-15.8257
-15.8255
-15.8255
-14.927
-14.9271
-14.9271
-14.9272
-14.9273
-14.9275
-14.9276
-14.9278
-14.928
-14.9281
-14.9283
-14.9285
-14.9287
-14.9288
-14.9289
-14.929
-14.9291
-14.9291
-14.9291
-14.9291
-14.2518
-14.2519
-14.2521
-14.2524
-14.2528
-14.2533
-14.2538
-14.2544
-14.2551
-14.2557
-14.2563
-14.257
-14.2576
-14.2581
-14.2586
-14.259
-14.2594
-14.2596
-14.2598
-14.2599
-13.8867
-13.8867
-13.8869
-13.8871
-13.8874
-13.8878
-13.8882
-13.8886
-13.8891
-13.8896
-13.8901
-13.8906
-13.891
-13.8915
-13.8918
-13.8922
-13.8924
-13.8926
-13.8928
-13.8928
-13.5878
-13.5879
-13.588
-13.5882
-13.5885
-13.5888
-13.5891
-13.5895
-13.5899
-13.5903
-13.5907
-13.5911
-13.5915
-13.5919
-13.5923
-13.5926
-13.5928
-13.593
-13.5931
-13.5932
-13.4291
-13.4291
-13.4292
-13.4294
-13.4296
-13.4299
-13.4302
-13.4305
-13.4309
-13.4313
-13.4316
-13.432
-13.4324
-13.4327
-13.433
-13.4333
-13.4335
-13.4337
-13.4338
-13.4339
-13.3002
-13.3003
-13.3004
-13.3005
-13.3007
-13.3009
-13.3011
-13.3014
-13.3017
-13.302
-13.3023
-13.3026
-13.3029
-13.3032
-13.3034
-13.3036
-13.3038
-13.304
-13.3041
-13.3042
-13.2529
-13.2529
-13.253
-13.2531
-13.2533
-13.2535
-13.2538
-13.254
-13.2543
-13.2546
-13.2549
-13.2552
-13.2555
-13.2558
-13.2561
-13.2563
-13.2565
-13.2566
-13.2567
-13.2568
-13.2336
-13.2336
-13.2337
-13.2339
-13.234
-13.2342
-13.2345
-13.2347
-13.235
-13.2353
-13.2357
-13.236
-13.2363
-13.2365
-13.2368
-13.237
-13.2372
-13.2374
-13.2375
-13.2375
-13.2448
-13.2448
-13.2449
-13.2451
-13.2452
-13.2455
-13.2457
-13.246
-13.2463
-13.2467
-13.247
-13.2473
-13.2477
-13.248
-13.2482
-13.2485
-13.2487
-13.2488
-13.2489
-13.249
-13.318
-13.3181
-13.3182
-13.3184
-13.3186
-13.3189
-13.3192
-13.3196
-13.32
-13.3204
-13.3208
-13.3212
-13.3216
-13.3219
-13.3222
-13.3225
-13.3227
-13.3229
-13.323
-13.3231
-13.3874
-13.3875
-13.3876
-13.3878
-13.3881
-13.3884
-13.3887
-13.3891
-13.3895
-13.3899
-13.3903
-13.3907
-13.3911
-13.3915
-13.3918
-13.3921
-13.3923
-13.3925
-13.3926
-13.3926
-13.5532
-13.5533
-13.5534
-13.5537
-13.554
-13.5543
-13.5547
-13.5551
-13.5556
-13.5561
-13.5566
-13.557
-13.5575
-13.5579
-13.5582
-13.5585
-13.5588
-13.559
-13.5591
-13.5591
-13.7032
-13.7033
-13.7035
-13.7037
-13.704
-13.7044
-13.7048
-13.7052
-13.7057
-13.7062
-13.7067
-13.7072
-13.7077
-13.7081
-13.7085
-13.7088
-13.709
-13.7092
-13.7093
-13.7093
-13.993
-13.9931
-13.9933
-13.9936
-13.9939
-13.9943
-13.9948
-13.9953
-13.9959
-13.9964
-13.997
-13.9975
-13.998
-13.9985
-13.9989
-13.9992
-13.9995
-13.9997
-13.9998
-13.9998
-14.2797
-14.2798
-14.28
-14.2803
-14.2807
-14.2811
-14.2816
-14.2822
-14.2828
-14.2834
-14.284
-14.2846
-14.2852
-14.2857
-14.2861
-14.2865
-14.2867
-14.2869
-14.287
-14.2871
-14.7832
-14.7833
-14.7835
-14.7839
-14.7843
-14.7847
-14.7853
-14.7859
-14.7865
-14.7871
-14.7877
-14.7883
-14.7889
-14.7894
-14.7898
-14.7902
-14.7905
-14.7907
-14.7908
-14.7908
-15.3546
-15.3547
-15.355
-15.3554
-15.3559
-15.3565
-15.3571
-15.3578
-15.3586
-15.3594
-15.3602
-15.3609
-15.3616
-15.3622
-15.3628
-15.3632
-15.3636
-15.3638
-15.3639
-15.3639
-16.3792
-16.3793
-16.3794
-16.3796
-16.3798
-16.38
-16.3803
-16.3806
-16.3809
-16.3812
-16.3815
-16.3818
-16.3821
-16.3824
-16.3826
-16.3827
-16.3829
-16.3829
-16.3829
-16.3828
-17.6615
-17.6615
-17.6616
-17.6617
-17.6618
-17.6619
-17.6621
-17.6622
-17.6624
-17.6626
-17.6628
-17.663
-17.6632
-17.6634
-17.6636
-17.6638
-17.6639
-17.6641
-17.6641
-17.6642
-25.325
-25.3251
-25.3252
-25.3253
-25.3254
-25.3255
-25.3257
-25.3259
-25.3262
-25.3264
-25.3266
-25.3268
-25.3271
-25.3273
-25.3275
-25.3276
-25.3277
-25.3278
-25.3278
-25.3279
-24.3671
-24.3671
-24.3672
-24.3672
-24.3673
-24.3674
-24.3676
-24.3677
-24.3679
-24.3681
-24.3683
-24.3685
-24.3687
-24.3688
-24.369
-24.3691
-24.3692
-24.3692
-24.3692
-24.3692
-23.5167
-23.5168
-23.5171
-23.5174
-23.5178
-23.5184
-23.519
-23.5196
-23.5203
-23.521
-23.5218
-23.5225
-23.5232
-23.5238
-23.5244
-23.5248
-23.5252
-23.5255
-23.5257
-23.5258
-23.0158
-23.0159
-23.0161
-23.0164
-23.0168
-23.0173
-23.0179
-23.0186
-23.0192
-23.0199
-23.0207
-23.0213
-23.022
-23.0226
-23.0232
-23.0237
-23.0241
-23.0244
-23.0246
-23.0247
-22.5832
-22.5833
-22.5835
-22.5838
-22.5842
-22.5847
-22.5852
-22.5858
-22.5865
-22.5871
-22.5878
-22.5884
-22.5891
-22.5897
-22.5902
-22.5907
-22.5911
-22.5914
-22.5916
-22.5917
-22.3447
-22.3448
-22.345
-22.3453
-22.3456
-22.3461
-22.3466
-22.3471
-22.3477
-22.3484
-22.349
-22.3496
-22.3503
-22.3508
-22.3513
-22.3518
-22.3522
-22.3525
-22.3527
-22.3528
-22.1504
-22.1505
-22.1506
-22.1509
-22.1512
-22.1516
-22.1521
-22.1526
-22.1531
-22.1537
-22.1542
-22.1548
-22.1553
-22.1558
-22.1563
-22.1567
-22.1571
-22.1573
-22.1575
-22.1576
-22.0754
-22.0755
-22.0757
-22.0759
-22.0763
-22.0766
-22.0771
-22.0776
-22.0781
-22.0787
-22.0793
-22.0798
-22.0804
-22.0809
-22.0813
-22.0818
-22.0821
-22.0824
-22.0825
-22.0826
-22.0483
-22.0484
-22.0486
-22.0488
-22.0492
-22.0496
-22.05
-22.0505
-22.0511
-22.0517
-22.0522
-22.0528
-22.0534
-22.0539
-22.0544
-22.0548
-22.0551
-22.0554
-22.0556
-22.0557
-22.0724
-22.0725
-22.0727
-22.073
-22.0733
-22.0738
-22.0743
-22.0748
-22.0754
-22.076
-22.0766
-22.0773
-22.0779
-22.0784
-22.0789
-22.0794
-22.0797
-22.08
-22.0802
-22.0803
-22.1864
-22.1865
-22.1867
-22.1871
-22.1875
-22.188
-22.1885
-22.1891
-22.1898
-22.1905
-22.1912
-22.1918
-22.1925
-22.1931
-22.1936
-22.1941
-22.1945
-22.1948
-22.195
-22.1951
-22.3086
-22.3087
-22.3089
-22.3093
-22.3097
-22.3102
-22.3108
-22.3115
-22.3122
-22.3129
-22.3136
-22.3143
-22.315
-22.3156
-22.3162
-22.3167
-22.3171
-22.3174
-22.3176
-22.3177
-22.5666
-22.5667
-22.567
-22.5674
-22.5678
-22.5684
-22.5691
-22.5698
-22.5705
-22.5713
-22.5721
-22.5729
-22.5736
-22.5743
-22.5749
-22.5754
-22.5758
-22.5762
-22.5764
-22.5765
-22.8158
-22.816
-22.8162
-22.8166
-22.8171
-22.8177
-22.8184
-22.8192
-22.82
-22.8208
-22.8216
-22.8224
-22.8232
-22.8239
-22.8245
-22.825
-22.8254
-22.8258
-22.826
-22.8261
-23.2592
-23.2594
-23.2597
-23.2601
-23.2606
-23.2613
-23.262
-23.2629
-23.2637
-23.2646
-23.2655
-23.2664
-23.2672
-23.2679
-23.2686
-23.2692
-23.2696
-23.27
-23.2702
-23.2703
-23.7045
-23.7047
-23.705
-23.7054
-23.706
-23.7067
-23.7075
-23.7083
-23.7092
-23.7102
-23.7111
-23.712
-23.7129
-23.7136
-23.7143
-23.7149
-23.7154
-23.7157
-23.7159
-23.716
-24.4333
-24.4335
-24.4338
-24.4343
-24.4348
-24.4355
-24.4363
-24.4372
-24.4381
-24.439
-24.4399
-24.4408
-24.4417
-24.4425
-24.4432
-24.4438
-24.4442
-24.4445
-24.4447
-24.4448
-25.2201
-25.2203
-25.2207
-25.2212
-25.2218
-25.2225
-25.2234
-25.2243
-25.2253
-25.2263
-25.2273
-25.2283
-25.2292
-25.2301
-25.2308
-25.2314
-25.2319
-25.2323
-25.2325
-25.2325
-26.5034
-26.5034
-26.5036
-26.5038
-26.5041
-26.5044
-26.5048
-26.5052
-26.5056
-26.5061
-26.5065
-26.5069
-26.5073
-26.5076
-26.5079
-26.5082
-26.5083
-26.5084
-26.5084
-26.5083
-27.9022
-27.9023
-27.9024
-27.9026
-27.9028
-27.903
-27.9033
-27.9036
-27.904
-27.9043
-27.9047
-27.9051
-27.9054
-27.9058
-27.9061
-27.9063
-27.9065
-27.9066
-27.9067
-27.9068
-34.6887
-34.6887
-34.6889
-34.6891
-34.6894
-34.6897
-34.6901
-34.6905
-34.691
-34.6915
-34.692
-34.6925
-34.6929
-34.6934
-34.6938
-34.6941
-34.6944
-34.6946
-34.6947
-34.6948
-33.6817
-33.6818
-33.6819
-33.6821
-33.6823
-33.6826
-33.683
-33.6834
-33.6838
-33.6842
-33.6846
-33.685
-33.6854
-33.6858
-33.6862
-33.6864
-33.6866
-33.6868
-33.6868
-33.6868
-32.745
-32.7452
-32.7455
-32.7459
-32.7464
-32.7471
-32.7478
-32.7486
-32.7495
-32.7504
-32.7513
-32.7522
-32.7531
-32.7539
-32.7546
-32.7552
-32.7558
-32.7562
-32.7564
-32.7565
-32.1446
-32.1447
-32.145
-32.1454
-32.146
-32.1466
-32.1474
-32.1482
-32.1491
-32.15
-32.1509
-32.1519
-32.1527
-32.1536
-32.1543
-32.1549
-32.1555
-32.1559
-32.1562
-32.1563
-31.6246
-31.6247
-31.625
-31.6254
-31.6259
-31.6266
-31.6273
-31.6281
-31.629
-31.6299
-31.6308
-31.6317
-31.6326
-31.6334
-31.6341
-31.6348
-31.6353
-31.6357
-31.636
-31.6362
-31.3154
-31.3156
-31.3159
-31.3163
-31.3168
-31.3174
-31.3181
-31.3189
-31.3198
-31.3206
-31.3215
-31.3224
-31.3233
-31.3241
-31.3248
-31.3255
-31.326
-31.3264
-31.3267
-31.3268
-31.0743
-31.0745
-31.0747
-31.0751
-31.0756
-31.0761
-31.0768
-31.0776
-31.0784
-31.0792
-31.08
-31.0809
-31.0817
-31.0824
-31.0831
-31.0837
-31.0842
-31.0846
-31.0848
-31.085
-30.9729
-30.973
-30.9733
-30.9737
-30.9741
-30.9747
-30.9754
-30.9762
-30.977
-30.9778
-30.9786
-30.9795
-30.9803
-30.981
-30.9817
-30.9823
-30.9828
-30.9832
-30.9835
-30.9836
-30.9428
-30.943
-30.9432
-30.9436
-30.9441
-30.9448
-30.9455
-30.9462
-30.9471
-30.9479
-30.9488
-30.9497
-30.9505
-30.9513
-30.952
-30.9526
-30.9531
-30.9535
-30.9538
-30.9539
-30.982
-30.9821
-30.9824
-30.9828
-30.9834
-30.984
-30.9848
-30.9856
-30.9865
-30.9874
-30.9883
-30.9892
-30.9901
-30.991
-30.9917
-30.9923
-30.9929
-30.9933
-30.9936
-30.9937
-31.1337
-31.1339
-31.1342
-31.1346
-31.1352
-31.1359
-31.1367
-31.1376
-31.1386
-31.1395
-31.1405
-31.1415
-31.1424
-31.1433
-31.1441
-31.1448
-31.1454
-31.1458
-31.1461
-31.1462
-31.3123
-31.3125
-31.3128
-31.3133
-31.3139
-31.3147
-31.3155
-31.3165
-31.3175
-31.3185
-31.3195
-31.3206
-31.3215
-31.3224
-31.3233
-31.324
-31.3246
-31.325
-31.3253
-31.3254
-31.651
-31.6511
-31.6515
-31.652
-31.6527
-31.6534
-31.6544
-31.6553
-31.6564
-31.6575
-31.6586
-31.6597
-31.6607
-31.6617
-31.6625
-31.6633
-31.6639
-31.6644
-31.6647
-31.6648
-32.0007
-32.0009
-32.0013
-32.0018
-32.0025
-32.0033
-32.0043
-32.0053
-32.0064
-32.0076
-32.0087
-32.0098
-32.0109
-32.0119
-32.0128
-32.0136
-32.0142
-32.0147
-32.015
-32.0151
-32.57
-32.5702
-32.5705
-32.5711
-32.5718
-32.5727
-32.5737
-32.5748
-32.5759
-32.5771
-32.5783
-32.5795
-32.5806
-32.5816
-32.5825
-32.5833
-32.584
-32.5845
-32.5848
-32.585
-33.1603
-33.1605
-33.1609
-33.1615
-33.1622
-33.1631
-33.1642
-33.1653
-33.1665
-33.1677
-33.169
-33.1702
-33.1713
-33.1724
-33.1734
-33.1742
-33.1749
-33.1754
-33.1757
-33.1759
-34.0512
-34.0514
-34.0517
-34.0523
-34.053
-34.0539
-34.0549
-34.056
-34.0571
-34.0583
-34.0595
-34.0606
-34.0617
-34.0628
-34.0637
-34.0645
-34.0651
-34.0656
-34.0659
-34.066
-35.0042
-35.0044
-35.0048
-35.0054
-35.0062
-35.0071
-35.0082
-35.0094
-35.0106
-35.0118
-35.0131
-35.0143
-35.0155
-35.0166
-35.0175
-35.0184
-35.0191
-35.0196
-35.0199
-35.0201
-36.4283
-36.4284
-36.4286
-36.4289
-36.4293
-36.4298
-36.4303
-36.4309
-36.4315
-36.4321
-36.4327
-36.4333
-36.4339
-36.4344
-36.4348
-36.4351
-36.4353
-36.4354
-36.4354
-36.4354
-37.9131
-37.9132
-37.9134
-37.9136
-37.9139
-37.9142
-37.9146
-37.9151
-37.9156
-37.9161
-37.9166
-37.9171
-37.9175
-37.9179
-37.9182
-37.9185
-37.9187
-37.9188
-37.9188
-37.9188
-43.8153
-43.8154
-43.8156
-43.8159
-43.8163
-43.8167
-43.8173
-43.8178
-43.8185
-43.8191
-43.8198
-43.8205
-43.8211
-43.8217
-43.8223
-43.8227
-43.8231
-43.8233
-43.8235
-43.8236
-42.7753
-42.7754
-42.7756
-42.7759
-42.7764
-42.7769
-42.7775
-42.7782
-42.7789
-42.7796
-42.7804
-42.7811
-42.7818
-42.7825
-42.7831
-42.7835
-42.7839
-42.7842
-42.7844
-42.7844
-41.7968
-41.7969
-41.7973
-41.7978
-41.7985
-41.7993
-41.8003
-41.8013
-41.8024
-41.8035
-41.8047
-41.8058
-41.8069
-41.808
-41.8089
-41.8097
-41.8104
-41.8109
-41.8113
-41.8115
-41.1419
-41.1421
-41.1424
-41.143
-41.1437
-41.1445
-41.1454
-41.1465
-41.1476
-41.1487
-41.1499
-41.151
-41.1521
-41.1532
-41.1541
-41.1549
-41.1556
-41.1561
-41.1565
-41.1567
-40.566
-40.5662
-40.5666
-40.5671
-40.5678
-40.5686
-40.5696
-40.5706
-40.5717
-40.5729
-40.574
-40.5752
-40.5763
-40.5774
-40.5783
-40.5792
-40.5799
-40.5804
-40.5808
-40.581
-40.2128
-40.2129
-40.2133
-40.2138
-40.2145
-40.2153
-40.2163
-40.2173
-40.2184
-40.2196
-40.2207
-40.2219
-40.223
-40.2241
-40.225
-40.2258
-40.2265
-40.2271
-40.2275
-40.2277
-39.9401
-39.9403
-39.9406
-39.9411
-39.9418
-39.9426
-39.9435
-39.9445
-39.9456
-39.9467
-39.9478
-39.9489
-39.95
-39.951
-39.9519
-39.9527
-39.9534
-39.9539
-39.9543
-39.9545
-39.8237
-39.8239
-39.8243
-39.8248
-39.8254
-39.8262
-39.8272
-39.8282
-39.8293
-39.8304
-39.8315
-39.8327
-39.8338
-39.8348
-39.8357
-39.8365
-39.8372
-39.8377
-39.8381
-39.8382
-39.7956
-39.7958
-39.7961
-39.7967
-39.7974
-39.7982
-39.7991
-39.8002
-39.8013
-39.8025
-39.8037
-39.8048
-39.806
-39.807
-39.808
-39.8088
-39.8095
-39.8101
-39.8104
-39.8106
-39.8508
-39.851
-39.8514
-39.852
-39.8527
-39.8536
-39.8546
-39.8557
-39.8569
-39.8581
-39.8594
-39.8606
-39.8618
-39.8629
-39.8639
-39.8648
-39.8655
-39.866
-39.8664
-39.8666
-40.0372
-40.0374
-40.0378
-40.0384
-40.0392
-40.0401
-40.0411
-40.0423
-40.0435
-40.0448
-40.0461
-40.0474
-40.0487
-40.0498
-40.0509
-40.0518
-40.0525
-40.0531
-40.0535
-40.0537
-40.2637
-40.2639
-40.2643
-40.265
-40.2658
-40.2667
-40.2679
-40.2691
-40.2704
-40.2717
-40.2731
-40.2745
-40.2758
-40.277
-40.278
-40.279
-40.2798
-40.2804
-40.2808
-40.281
-40.6708
-40.671
-40.6715
-40.6721
-40.673
-40.674
-40.6752
-40.6764
-40.6778
-40.6792
-40.6806
-40.682
-40.6834
-40.6846
-40.6857
-40.6867
-40.6875
-40.6882
-40.6886
-40.6888
-41.0995
-41.0997
-41.1002
-41.1009
-41.1017
-41.1028
-41.104
-41.1054
-41.1068
-41.1082
-41.1097
-41.1112
-41.1126
-41.1138
-41.115
-41.116
-41.1169
-41.1175
-41.118
-41.1182
-41.7674
-41.7677
-41.7682
-41.7689
-41.7698
-41.7709
-41.7721
-41.7735
-41.7749
-41.7764
-41.7779
-41.7794
-41.7808
-41.7821
-41.7833
-41.7844
-41.7853
-41.7859
-41.7864
-41.7866
-42.4594
-42.4596
-42.4601
-42.4608
-42.4618
-42.4629
-42.4642
-42.4656
-42.4671
-42.4686
-42.4702
-42.4717
-42.4732
-42.4745
-42.4758
-42.4768
-42.4777
-42.4785
-42.4789
-42.4792
-43.4619
-43.4622
-43.4626
-43.4633
-43.4642
-43.4653
-43.4665
-43.4679
-43.4693
-43.4708
-43.4722
-43.4737
-43.4751
-43.4764
-43.4776
-43.4786
-43.4795
-43.4801
-43.4805
-43.4808
-44.5083
-44.5086
-44.5091
-44.5098
-44.5107
-44.5118
-44.5131
-44.5145
-44.516
-44.5175
-44.519
-44.5205
-44.522
-44.5233
-44.5246
-44.5256
-44.5266
-44.5273
-44.5278
-44.5281
-46.0102
-46.0103
-46.0106
-46.011
-46.0116
-46.0123
-46.013
-46.0139
-46.0148
-46.0156
-46.0165
-46.0174
-46.0182
-46.0189
-46.0195
-46.02
-46.0203
-46.0205
-46.0206
-46.0206
-47.5532
-47.5533
-47.5535
-47.5538
-47.5541
-47.5545
-47.555
-47.5555
-47.556
-47.5566
-47.5571
-47.5576
-47.558
-47.5583
-47.5585
-47.5587
-47.5587
-47.5586
-47.5584
-47.5583
-52.8199
-52.82
-52.8204
-52.8208
-52.8214
-52.8222
-52.823
-52.8239
-52.8249
-52.8259
-52.827
-52.828
-52.829
-52.8299
-52.8307
-52.8314
-52.832
-52.8324
-52.8326
-52.8328
-51.7709
-51.771
-51.7713
-51.7718
-51.7724
-51.7731
-51.7739
-51.7748
-51.7758
-51.7767
-51.7778
-51.7787
-51.7797
-51.7806
-51.7814
-51.782
-51.7826
-51.7829
-51.7832
-51.7833
-50.7647
-50.7649
-50.7653
-50.7659
-50.7667
-50.7677
-50.7688
-50.77
-50.7713
-50.7726
-50.774
-50.7754
-50.7767
-50.7779
-50.779
-50.78
-50.7808
-50.7814
-50.7819
-50.7821
-50.0722
-50.0724
-50.0728
-50.0734
-50.0743
-50.0753
-50.0764
-50.0777
-50.079
-50.0804
-50.0818
-50.0832
-50.0845
-50.0858
-50.087
-50.088
-50.0888
-50.0895
-50.0899
-50.0901
-49.4609
-49.4611
-49.4616
-49.4622
-49.4631
-49.4641
-49.4652
-49.4665
-49.4679
-49.4693
-49.4708
-49.4722
-49.4736
-49.4749
-49.4761
-49.4771
-49.478
-49.4787
-49.4791
-49.4794
-49.0765
-49.0767
-49.0772
-49.0778
-49.0787
-49.0797
-49.0809
-49.0822
-49.0836
-49.085
-49.0865
-49.0879
-49.0893
-49.0906
-49.0918
-49.0928
-49.0937
-49.0944
-49.0949
-49.0951
-48.7852
-48.7854
-48.7859
-48.7865
-48.7873
-48.7884
-48.7895
-48.7908
-48.7922
-48.7936
-48.795
-48.7965
-48.7978
-48.7991
-48.8003
-48.8013
-48.8022
-48.8028
-48.8033
-48.8035
-48.6596
-48.6599
-48.6603
-48.661
-48.6618
-48.6629
-48.6641
-48.6654
-48.6668
-48.6682
-48.6697
-48.6711
-48.6725
-48.6738
-48.675
-48.676
-48.6769
-48.6776
-48.678
-48.6782
-48.6387
-48.6389
-48.6394
-48.6401
-48.641
-48.6421
-48.6433
-48.6447
-48.6461
-48.6476
-48.6491
-48.6506
-48.6521
-48.6534
-48.6546
-48.6557
-48.6566
-48.6573
-48.6577
-48.658
-48.7108
-48.7111
-48.7115
-48.7123
-48.7132
-48.7143
-48.7156
-48.717
-48.7185
-48.7201
-48.7217
-48.7232
-48.7248
-48.7262
-48.7274
-48.7285
-48.7295
-48.7302
-48.7307
-48.7309
-48.9288
-48.9291
-48.9296
-48.9303
-48.9313
-48.9325
-48.9338
-48.9353
-48.9368
-48.9385
-48.9401
-48.9417
-48.9433
-48.9447
-48.9461
-48.9472
-48.9482
-48.9489
-48.9494
-48.9497
-49.1994
-49.1996
-49.2002
-49.201
-49.202
-49.2032
-49.2046
-49.2061
-49.2078
-49.2095
-49.2112
-49.2129
-49.2145
-49.216
-49.2174
-49.2186
-49.2196
-49.2204
-49.2209
-49.2212
-49.6638
-49.6641
-49.6647
-49.6655
-49.6665
-49.6678
-49.6692
-49.6708
-49.6725
-49.6742
-49.676
-49.6777
-49.6794
-49.681
-49.6824
-49.6837
-49.6847
-49.6855
-49.6861
-49.6863
-50.1605
-50.1608
-50.1614
-50.1622
-50.1633
-50.1646
-50.1661
-50.1678
-50.1695
-50.1713
-50.1732
-50.175
-50.1767
-50.1783
-50.1798
-50.1811
-50.1822
-50.183
-50.1836
-50.1839
-50.9054
-50.9056
-50.9062
-50.9071
-50.9082
-50.9095
-50.911
-50.9126
-50.9144
-50.9162
-50.9181
-50.9199
-50.9216
-50.9233
-50.9248
-50.9261
-50.9272
-50.928
-50.9286
-50.9289
-51.6778
-51.6781
-51.6787
-51.6796
-51.6808
-51.6821
-51.6837
-51.6854
-51.6872
-51.6891
-51.691
-51.6929
-51.6948
-51.6965
-51.6981
-51.6995
-51.7006
-51.7016
-51.7023
-51.7026
-52.759
-52.7592
-52.7598
-52.7606
-52.7617
-52.763
-52.7645
-52.7661
-52.7678
-52.7696
-52.7714
-52.7732
-52.7749
-52.7766
-52.778
-52.7793
-52.7804
-52.7813
-52.7818
-52.7821
-53.863
-53.8633
-53.8639
-53.8648
-53.866
-53.8674
-53.8691
-53.8709
-53.8728
-53.8748
-53.8768
-53.8788
-53.8807
-53.8826
-53.8843
-53.8859
-53.8872
-53.8884
-53.8892
-53.8898
-55.3889
-55.3891
-55.3896
-55.3904
-55.3913
-55.3925
-55.3938
-55.3952
-55.3967
-55.3983
-55.3998
-55.4014
-55.4028
-55.4041
-55.4053
-55.4063
-55.4072
-55.4078
-55.4083
-55.4086
-57.0914
-57.0915
-57.0916
-57.0917
-57.0918
-57.092
-57.0921
-57.0922
-57.0922
-57.0923
-57.0923
-57.0922
-57.092
-57.0917
-57.0912
-57.0905
-57.0897
-57.0888
-57.0879
-57.0871
-61.6911
-61.6913
-61.6917
-61.6923
-61.6931
-61.6941
-61.6952
-61.6964
-61.6977
-61.699
-61.7003
-61.7017
-61.7029
-61.7041
-61.7052
-61.7061
-61.7068
-61.7074
-61.7077
-61.7079
-60.6335
-60.6338
-60.6342
-60.6348
-60.6356
-60.6365
-60.6376
-60.6388
-60.64
-60.6414
-60.6427
-60.644
-60.6452
-60.6464
-60.6474
-60.6483
-60.649
-60.6495
-60.6498
-60.65
-59.6115
-59.6118
-59.6123
-59.613
-59.614
-59.6152
-59.6165
-59.618
-59.6195
-59.6212
-59.6228
-59.6245
-59.6261
-59.6275
-59.6289
-59.6301
-59.6311
-59.6319
-59.6324
-59.6327
-58.8973
-58.8976
-58.8981
-58.8989
-58.8999
-58.901
-58.9024
-58.9039
-58.9055
-58.9072
-58.9089
-58.9106
-58.9122
-58.9137
-58.9151
-58.9163
-58.9173
-58.9181
-58.9186
-58.9189
-58.2665
-58.2668
-58.2673
-58.2681
-58.2691
-58.2704
-58.2718
-58.2733
-58.275
-58.2767
-58.2784
-58.2802
-58.2818
-58.2834
-58.2849
-58.2861
-58.2872
-58.288
-58.2886
-58.2888
-57.8642
-57.8645
-57.865
-57.8658
-57.8668
-57.8681
-57.8695
-57.8711
-57.8728
-57.8745
-57.8763
-57.8781
-57.8798
-57.8813
-57.8828
-57.8841
-57.8851
-57.8859
-57.8865
-57.8868
-57.5638
-57.5641
-57.5646
-57.5654
-57.5665
-57.5677
-57.5692
-57.5708
-57.5725
-57.5742
-57.576
-57.5778
-57.5794
-57.581
-57.5825
-57.5837
-57.5848
-57.5856
-57.5861
-57.5864
-57.4366
-57.4369
-57.4375
-57.4383
-57.4394
-57.4407
-57.4421
-57.4438
-57.4455
-57.4473
-57.4491
-57.4509
-57.4526
-57.4542
-57.4557
-57.457
-57.458
-57.4588
-57.4594
-57.4597
-57.4259
-57.4262
-57.4268
-57.4277
-57.4288
-57.4301
-57.4316
-57.4333
-57.4351
-57.4369
-57.4388
-57.4407
-57.4424
-57.4441
-57.4456
-57.4469
-57.448
-57.4489
-57.4494
-57.4497
-57.5155
-57.5158
-57.5164
-57.5173
-57.5185
-57.5199
-57.5214
-57.5232
-57.525
-57.527
-57.5289
-57.5308
-57.5327
-57.5344
-57.536
-57.5374
-57.5385
-57.5394
-57.54
-57.5403
-57.7623
-57.7626
-57.7633
-57.7642
-57.7654
-57.7668
-57.7684
-57.7702
-57.7721
-57.7741
-57.7761
-57.7781
-57.78
-57.7818
-57.7834
-57.7848
-57.786
-57.7869
-57.7875
-57.7879
-58.0704
-58.0708
-58.0714
-58.0724
-58.0736
-58.0751
-58.0768
-58.0787
-58.0806
-58.0827
-58.0848
-58.0868
-58.0888
-58.0907
-58.0924
-58.0939
-58.0951
-58.096
-58.0967
-58.097
-58.5827
-58.5831
-58.5837
-58.5847
-58.586
-58.5875
-58.5892
-58.5911
-58.5931
-58.5952
-58.5974
-58.5995
-58.6015
-58.6034
-58.6051
-58.6067
-58.6079
-58.6089
-58.6096
-58.6099
-59.1338
-59.1341
-59.1348
-59.1358
-59.1371
-59.1387
-59.1405
-59.1424
-59.1445
-59.1467
-59.1489
-59.1511
-59.1532
-59.1552
-59.157
-59.1585
-59.1599
-59.1609
-59.1616
-59.162
-59.9381
-59.9384
-59.9391
-59.9401
-59.9414
-59.943
-59.9448
-59.9468
-59.9488
-59.951
-59.9532
-59.9554
-59.9575
-59.9595
-59.9613
-59.9628
-59.9642
-59.9652
-59.9659
-59.9662
-60.7739
-60.7742
-60.7749
-60.7759
-60.7773
-60.7789
-60.7807
-60.7827
-60.7849
-60.7871
-60.7894
-60.7916
-60.7938
-60.7958
-60.7977
-60.7994
-60.8008
-60.8019
-60.8027
-60.8031
-61.9116
-61.912
-61.9126
-61.9136
-61.9149
-61.9164
-61.9181
-61.92
-61.9221
-61.9242
-61.9263
-61.9284
-61.9304
-61.9323
-61.9341
-61.9356
-61.9369
-61.9379
-61.9385
-61.9389
-63.0792
-63.0795
-63.0802
-63.0812
-63.0825
-63.084
-63.0858
-63.0878
-63.0899
-63.092
-63.0942
-63.0964
-63.0985
-63.1005
-63.1024
-63.1041
-63.1055
-63.1067
-63.1075
-63.1081
-64.6689
-64.6691
-64.6696
-64.6704
-64.6713
-64.6724
-64.6737
-64.6751
-64.6765
-64.678
-64.6794
-64.6808
-64.682
-64.6831
-64.6841
-64.6848
-64.6852
-64.6855
-64.6856
-64.6855
-66.2621
-66.2623
-66.2627
-66.2632
-66.2638
-66.2645
-66.2653
-66.2662
-66.2671
-66.268
-66.2689
-66.2696
-66.2702
-66.2707
-66.271
-66.271
-66.2709
-66.2707
-66.2703
-66.2701
-70.4628
-70.4631
-70.4636
-70.4644
-70.4654
-70.4666
-70.468
-70.4695
-70.4712
-70.4729
-70.4746
-70.4762
-70.4779
-70.4794
-70.4807
-70.4819
-70.4828
-70.4836
-70.4841
-70.4843
-69.3951
-69.3954
-69.3959
-69.3967
-69.3977
-69.3989
-69.4003
-69.4018
-69.4034
-69.4051
-69.4067
-69.4084
-69.41
-69.4114
-69.4127
-69.4139
-69.4148
-69.4155
-69.4159
-69.4162
-68.3697
-68.3699
-68.3706
-68.3714
-68.3726
-68.3739
-68.3755
-68.3772
-68.3791
-68.381
-68.383
-68.3849
-68.3868
-68.3885
-68.3901
-68.3915
-68.3927
-68.3936
-68.3942
-68.3945
-67.6405
-67.6408
-67.6415
-67.6424
-67.6435
-67.6449
-67.6466
-67.6483
-67.6502
-67.6522
-67.6542
-67.6562
-67.6581
-67.6599
-67.6616
-67.663
-67.6642
-67.6651
-67.6657
-67.666
-66.9998
-67.0001
-67.0007
-67.0017
-67.0029
-67.0043
-67.006
-67.0079
-67.0098
-67.0119
-67.014
-67.016
-67.018
-67.0199
-67.0216
-67.023
-67.0243
-67.0253
-67.0259
-67.0263
-66.587
-66.5873
-66.588
-66.5889
-66.5902
-66.5917
-66.5934
-66.5952
-66.5973
-66.5993
-66.6015
-66.6036
-66.6056
-66.6075
-66.6092
-66.6107
-66.612
-66.6129
-66.6136
-66.6139
-66.2848
-66.2851
-66.2858
-66.2868
-66.288
-66.2895
-66.2913
-66.2932
-66.2952
-66.2974
-66.2995
-66.3016
-66.3037
-66.3056
-66.3073
-66.3089
-66.3101
-66.3111
-66.3118
-66.3121
-66.16
-66.1603
-66.161
-66.162
-66.1633
-66.1648
-66.1666
-66.1686
-66.1707
-66.1728
-66.175
-66.1772
-66.1793
-66.1813
-66.183
-66.1846
-66.1859
-66.1868
-66.1875
-66.1878
-66.1625
-66.1628
-66.1635
-66.1645
-66.1659
-66.1675
-66.1693
-66.1713
-66.1735
-66.1757
-66.178
-66.1802
-66.1824
-66.1844
-66.1862
-66.1878
-66.1891
-66.1902
-66.1908
-66.1912
-66.2694
-66.2698
-66.2705
-66.2716
-66.273
-66.2747
-66.2766
-66.2787
-66.2809
-66.2832
-66.2856
-66.2879
-66.2901
-66.2922
-66.2941
-66.2958
-66.2971
-66.2982
-66.2989
-66.2993
-66.5428
-66.5432
-66.544
-66.5451
-66.5465
-66.5482
-66.5501
-66.5523
-66.5546
-66.557
-66.5594
-66.5618
-66.5641
-66.5662
-66.5682
-66.5699
-66.5713
-66.5724
-66.5731
-66.5735
-66.884
-66.8844
-66.8852
-66.8864
-66.8878
-66.8896
-66.8916
-66.8939
-66.8962
-66.8987
-66.9012
-66.9037
-66.9061
-66.9083
-66.9103
-66.9121
-66.9136
-66.9148
-66.9155
-66.9159
-67.4365
-67.4369
-67.4377
-67.4389
-67.4404
-67.4422
-67.4443
-67.4465
-67.4489
-67.4514
-67.454
-67.4565
-67.4589
-67.4612
-67.4633
-67.4651
-67.4666
-67.4678
-67.4686
-67.4689
-68.0326
-68.033
-68.0339
-68.0351
-68.0366
-68.0385
-68.0406
-68.0429
-68.0454
-68.048
-68.0506
-68.0532
-68.0557
-68.0581
-68.0602
-68.0622
-68.0637
-68.065
-68.0658
-68.0663
-68.8841
-68.8845
-68.8853
-68.8865
-68.8881
-68.8899
-68.892
-68.8943
-68.8968
-68.8994
-68.902
-68.9046
-68.9071
-68.9094
-68.9115
-68.9134
-68.915
-68.9162
-68.917
-68.9174
-69.7684
-69.7689
-69.7697
-69.7709
-69.7725
-69.7744
-69.7765
-69.7789
-69.7814
-69.7841
-69.7868
-69.7894
-69.792
-69.7945
-69.7967
-69.7987
-69.8004
-69.8017
-69.8027
-69.8032
-70.9493
-70.9497
-70.9505
-70.9517
-70.9532
-70.955
-70.957
-70.9592
-70.9616
-70.9641
-70.9666
-70.9691
-70.9715
-70.9737
-70.9758
-70.9775
-70.979
-70.9801
-70.9809
-70.9812
-72.1531
-72.1535
-72.1543
-72.1555
-72.157
-72.1588
-72.1609
-72.1632
-72.1656
-72.1682
-72.1708
-72.1734
-72.176
-72.1784
-72.1806
-72.1826
-72.1844
-72.1858
-72.1868
-72.1874
-73.7568
-73.7571
-73.7578
-73.7587
-73.7599
-73.7614
-73.763
-73.7648
-73.7666
-73.7685
-73.7704
-73.7722
-73.7739
-73.7753
-73.7766
-73.7776
-73.7783
-73.7788
-73.779
-73.779
-75.3614
-75.3617
-75.3622
-75.3629
-75.3638
-75.3648
-75.366
-75.3673
-75.3685
-75.3698
-75.371
-75.3721
-75.3729
-75.3736
-75.374
-75.3742
-75.3741
-75.3739
-75.3736
-75.3733
-79.1269
-79.1272
-79.1278
-79.1288
-79.13
-79.1315
-79.1333
-79.1351
-79.1371
-79.1392
-79.1413
-79.1434
-79.1454
-79.1472
-79.1489
-79.1503
-79.1515
-79.1525
-79.1532
-79.1535
-78.0564
-78.0567
-78.0573
-78.0583
-78.0595
-78.061
-78.0627
-78.0645
-78.0665
-78.0686
-78.0706
-78.0727
-78.0746
-78.0764
-78.078
-78.0795
-78.0806
-78.0815
-78.0822
-78.0826
-77.0273
-77.0276
-77.0283
-77.0293
-77.0307
-77.0323
-77.0341
-77.0362
-77.0383
-77.0406
-77.0429
-77.0451
-77.0473
-77.0494
-77.0512
-77.0529
-77.0542
-77.0553
-77.0559
-77.0562
-76.2907
-76.2911
-76.2918
-76.2929
-76.2942
-76.2959
-76.2978
-76.2999
-76.3021
-76.3044