/*--------------------------------*- C++ -*----------------------------------*\
| =========                 |                                                 |
| \\      /  F ield         | OpenFOAM: The Open Source CFD Toolbox           |
|  \\    /   O peration     | Version:  2212                                  |
|   \\  /    A nd           | Website:  www.openfoam.com                      |
|    \\/     M anipulation  |                                                 |
\*---------------------------------------------------------------------------*/
FoamFile
{
    version     2.0;
    format      ascii;
    arch        "LSB;label=32;scalar=64";
    class       volScalarField;
    location    "0.1666";
    object      s;
}
// * * * * * * * * * * * * * * * * * * * * * * * * * * * * * * * * * * * * * //

dimensions      [0 0 0 0 0 0 0];

internalField   nonuniform List<scalar> 
24240
(
2.46952e-102
2.43904e-102
2.48124e-102
2.3942e-102
2.45183e-102
2.44457e-102
2.44838e-102
2.37894e-102
2.40183e-102
2.46514e-102
2.40537e-102
2.48135e-102
2.39763e-102
2.45971e-102
2.37948e-102
2.48276e-102
2.37403e-102
2.40869e-102
2.43493e-102
2.35177e-102
1.94185e-99
1.91752e-99
1.95031e-99
1.88276e-99
1.92725e-99
1.92208e-99
1.92494e-99
1.87033e-99
1.8885e-99
1.93799e-99
1.89155e-99
1.95056e-99
1.88561e-99
1.93407e-99
1.87135e-99
1.95207e-99
1.86707e-99
1.89406e-99
1.91426e-99
1.84966e-99
8.477e-97
8.36916e-97
8.51054e-97
8.21958e-97
8.41014e-97
8.39001e-97
8.4018e-97
8.16341e-97
8.24343e-97
8.45831e-97
8.25792e-97
8.51233e-97
8.23269e-97
8.44265e-97
8.17048e-97
8.52068e-97
8.15176e-97
8.26853e-97
8.35471e-97
8.07614e-97
2.099e-94
2.0719e-94
2.10647e-94
2.0354e-94
2.08168e-94
2.07731e-94
2.08006e-94
2.02104e-94
2.04101e-94
2.09394e-94
2.0449e-94
2.1071e-94
2.03882e-94
2.09044e-94
2.02343e-94
2.10961e-94
2.01878e-94
2.04745e-94
2.06828e-94
2.00015e-94
3.79382e-92
3.74409e-92
3.80578e-92
3.67912e-92
3.76112e-92
3.75434e-92
3.75895e-92
3.65231e-92
3.68865e-92
3.78386e-92
3.69621e-92
3.80722e-92
3.68558e-92
3.7782e-92
3.65777e-92
3.81255e-92
3.6493e-92
3.70072e-92
3.73742e-92
3.61577e-92
4.73803e-90
4.675e-90
4.75106e-90
4.59512e-90
4.69549e-90
4.68847e-90
4.69374e-90
4.56061e-90
4.60626e-90
4.72469e-90
4.61642e-90
4.75332e-90
4.60359e-90
4.7185e-90
4.56891e-90
4.76095e-90
4.55813e-90
4.62193e-90
4.66652e-90
4.51629e-90
4.19122e-88
4.13456e-88
4.20102e-88
4.06505e-88
4.15206e-88
4.14713e-88
4.15131e-88
4.03358e-88
4.07408e-88
4.17857e-88
4.08375e-88
4.20337e-88
4.07286e-88
4.17387e-88
4.04223e-88
4.21098e-88
4.03236e-88
4.08856e-88
4.12686e-88
3.99527e-88
2.46217e-86
2.4284e-86
2.46683e-86
2.38823e-86
2.43827e-86
2.43611e-86
2.43833e-86
2.36923e-86
2.39311e-86
2.4542e-86
2.3992e-86
2.46848e-86
2.39305e-86
2.45196e-86
2.37505e-86
2.47342e-86
2.36914e-86
2.40196e-86
2.4237e-86
2.34735e-86
3.77291e-85
3.72399e-85
3.77625e-85
3.66213e-85
3.73493e-85
3.73186e-85
3.73789e-85
3.6339e-85
3.67472e-85
3.7582e-85
3.682e-85
3.78088e-85
3.67034e-85
3.7563e-85
3.64023e-85
3.78769e-85
3.64034e-85
3.68238e-85
3.71225e-85
3.61044e-85
2.9342e-85
2.93857e-85
2.92974e-85
2.87946e-85
2.91739e-85
2.90698e-85
2.94208e-85
2.87518e-85
2.94878e-85
2.91319e-85
2.92487e-85
2.94638e-85
2.88696e-85
2.91566e-85
2.84013e-85
2.92032e-85
2.92047e-85
2.88299e-85
2.88909e-85
2.92423e-85
4.39056e-85
4.44303e-85
4.46757e-85
4.40641e-85
4.37442e-85
4.40384e-85
4.47259e-85
4.36864e-85
4.50603e-85
4.47266e-85
4.48193e-85
4.48538e-85
4.43045e-85
4.37979e-85
4.34267e-85
4.40832e-85
4.38101e-85
4.37479e-85
4.4094e-85
4.43759e-85
5.17377e-85
5.21995e-85
5.23993e-85
5.16345e-85
5.13266e-85
5.02935e-85
5.1453e-85
5.04309e-85
5.20065e-85
5.334e-85
5.29041e-85
5.13074e-85
5.27588e-85
5.18811e-85
5.18446e-85
5.22053e-85
4.99585e-85
5.20626e-85
5.10801e-85
5.13239e-85
5.88194e-85
6.02184e-85
5.98149e-85
5.93413e-85
5.97088e-85
6.02185e-85
6.20406e-85
5.95519e-85
5.98881e-85
5.92136e-85
5.94736e-85
5.94824e-85
5.99186e-85
5.9716e-85
5.85983e-85
5.96011e-85
6.00229e-85
5.8946e-85
5.86665e-85
5.89288e-85
6.51677e-85
6.53405e-85
6.59723e-85
6.70672e-85
6.63744e-85
6.72498e-85
6.60606e-85
6.71291e-85
6.64056e-85
6.37587e-85
6.47368e-85
6.47882e-85
6.53444e-85
6.4044e-85
6.39133e-85
6.44578e-85
6.42216e-85
6.53863e-85
6.47387e-85
6.60706e-85
6.62921e-85
6.64403e-85
6.76387e-85
6.70921e-85
6.63009e-85
6.71487e-85
6.7324e-85
6.82686e-85
6.63018e-85
6.73546e-85
6.70214e-85
6.70925e-85
6.78234e-85
6.70974e-85
6.65678e-85
6.88487e-85
6.67261e-85
6.60008e-85
6.68639e-85
6.73604e-85
6.77634e-85
6.63795e-85
6.71854e-85
6.65114e-85
6.75385e-85
6.80028e-85
6.82517e-85
6.75733e-85
6.59243e-85
6.64983e-85
6.59622e-85
6.82581e-85
6.76874e-85
6.88471e-85
6.84909e-85
6.85476e-85
6.78025e-85
6.77561e-85
6.69219e-85
6.72882e-85
6.17208e-85
6.24684e-85
6.17833e-85
6.42417e-85
6.24054e-85
6.39334e-85
6.27175e-85
6.32939e-85
6.24388e-85
6.26413e-85
6.25374e-85
6.37564e-85
6.2686e-85
6.45333e-85
6.21789e-85
6.36528e-85
6.33451e-85
6.12853e-85
6.35738e-85
6.34424e-85
5.62662e-85
5.87841e-85
5.78346e-85
5.75259e-85
5.67125e-85
5.95204e-85
5.85396e-85
5.85608e-85
5.81458e-85
5.69713e-85
5.81373e-85
5.92725e-85
5.77079e-85
6.05294e-85
5.80379e-85
5.91484e-85
5.97013e-85
5.82035e-85
5.94818e-85
5.95405e-85
5.06294e-85
5.05139e-85
5.01874e-85
5.10837e-85
5.17192e-85
5.15194e-85
5.05456e-85
5.05342e-85
5.20341e-85
5.02446e-85
5.15689e-85
5.16164e-85
5.04163e-85
5.21223e-85
5.19425e-85
5.29158e-85
5.1181e-85
5.23469e-85
5.16367e-85
5.31142e-85
3.72714e-85
3.75707e-85
3.73227e-85
3.70595e-85
3.78628e-85
3.75101e-85
3.80801e-85
3.75216e-85
3.80593e-85
3.83598e-85
3.76146e-85
3.86335e-85
3.74693e-85
3.89265e-85
3.75688e-85
3.75537e-85
3.80327e-85
3.86525e-85
3.79829e-85
3.91096e-85
1.09665e-100
1.08294e-100
1.10147e-100
1.0633e-100
1.08843e-100
1.0855e-100
1.08714e-100
1.0563e-100
1.06657e-100
1.09451e-100
1.06827e-100
1.10161e-100
1.0649e-100
1.09224e-100
1.05682e-100
1.10242e-100
1.05442e-100
1.06965e-100
1.08107e-100
1.0446e-100
9.11465e-98
8.99907e-98
9.15113e-98
8.83817e-98
9.04305e-98
9.02137e-98
9.03426e-98
8.778e-98
8.86412e-98
9.09505e-98
8.87952e-98
9.15319e-98
8.85225e-98
9.07775e-98
8.78518e-98
9.16181e-98
8.76525e-98
8.8906e-98
8.98343e-98
8.68408e-98
4.08058e-95
4.02809e-95
4.09529e-95
3.95711e-95
4.04704e-95
4.03852e-95
4.04396e-95
3.92927e-95
3.96814e-95
4.07095e-95
3.97561e-95
4.09656e-95
3.96373e-95
4.06392e-95
3.9337e-95
4.10126e-95
3.92479e-95
3.98039e-95
4.02097e-95
3.88865e-95
1.04314e-92
1.02953e-92
1.04648e-92
1.01166e-92
1.03419e-92
1.03232e-92
1.03362e-92
1.00432e-92
1.01433e-92
1.04047e-92
1.01639e-92
1.04691e-92
1.01344e-92
1.03886e-92
1.00576e-92
1.04833e-92
1.00349e-92
1.01758e-92
1.02769e-92
9.94298e-93
1.89733e-90
1.87223e-90
1.90264e-90
1.84022e-90
1.88035e-90
1.87753e-90
1.87973e-90
1.82645e-90
1.84479e-90
1.89209e-90
1.84879e-90
1.90358e-90
1.8436e-90
1.8895e-90
1.82964e-90
1.90656e-90
1.82549e-90
1.85091e-90
1.8688e-90
1.80886e-90
2.39003e-88
2.35797e-88
2.39574e-88
2.31828e-88
2.36778e-88
2.36497e-88
2.3675e-88
2.30044e-88
2.32369e-88
2.38299e-88
2.32907e-88
2.39718e-88
2.32276e-88
2.38017e-88
2.30517e-88
2.40142e-88
2.2999e-88
2.33167e-88
2.35354e-88
2.27899e-88
2.0806e-86
2.0523e-86
2.08471e-86
2.01832e-86
2.06049e-86
2.05869e-86
2.06067e-86
2.00234e-86
2.02267e-86
2.07407e-86
2.02767e-86
2.08617e-86
2.02238e-86
2.072e-86
2.00707e-86
2.09026e-86
2.0024e-86
2.02987e-86
2.04831e-86
1.98419e-86
1.20948e-84
1.19284e-84
1.21132e-84
1.1734e-84
1.19735e-84
1.19667e-84
1.19773e-84
1.16388e-84
1.17579e-84
1.20542e-84
1.17886e-84
1.21232e-84
1.17588e-84
1.20447e-84
1.16695e-84
1.21491e-84
1.16427e-84
1.18007e-84
1.19038e-84
1.15372e-84
1.82486e-83
1.80097e-83
1.82597e-83
1.77158e-83
1.80596e-83
1.80511e-83
1.80782e-83
1.75756e-83
1.77737e-83
1.81769e-83
1.78113e-83
1.82841e-83
1.7757e-83
1.81695e-83
1.76113e-83
1.83198e-83
1.76101e-83
1.7813e-83
1.79532e-83
1.7466e-83
1.40363e-83
1.40561e-83
1.40167e-83
1.37782e-83
1.39553e-83
1.39103e-83
1.40755e-83
1.37546e-83
1.41087e-83
1.39374e-83
1.3995e-83
1.40942e-83
1.38142e-83
1.39494e-83
1.35918e-83
1.39681e-83
1.39713e-83
1.37933e-83
1.3822e-83
1.39896e-83
2.10468e-83
2.12935e-83
2.14155e-83
2.11191e-83
2.09668e-83
2.11049e-83
2.14311e-83
2.09345e-83
2.15941e-83
2.14318e-83
2.14822e-83
2.14907e-83
2.12358e-83
2.09924e-83
2.08162e-83
2.11256e-83
2.09945e-83
2.09683e-83
2.11339e-83
2.12662e-83
2.46496e-83
2.48678e-83
2.49638e-83
2.45943e-83
2.44549e-83
2.39648e-83
2.45183e-83
2.40339e-83
2.47783e-83
2.5408e-83
2.51992e-83
2.44453e-83
2.51334e-83
2.47153e-83
2.4698e-83
2.48687e-83
2.38019e-83
2.47978e-83
2.4331e-83
2.44473e-83
2.80389e-83
2.86953e-83
2.85103e-83
2.82869e-83
2.84634e-83
2.87045e-83
2.95654e-83
2.83906e-83
2.8547e-83
2.82207e-83
2.83453e-83
2.83523e-83
2.85638e-83
2.84745e-83
2.79415e-83
2.84128e-83
2.8613e-83
2.81038e-83
2.79708e-83
2.80939e-83
3.07607e-83
3.08343e-83
3.11265e-83
3.16488e-83
3.13262e-83
3.1734e-83
3.11726e-83
3.16812e-83
3.13302e-83
3.00956e-83
3.05508e-83
3.05808e-83
3.08389e-83
3.02298e-83
3.01638e-83
3.04259e-83
3.03047e-83
3.08578e-83
3.05512e-83
3.11821e-83
3.13363e-83
3.13996e-83
3.19686e-83
3.17045e-83
3.13352e-83
3.17431e-83
3.18186e-83
3.22664e-83
3.13397e-83
3.184e-83
3.16836e-83
3.1717e-83
3.20524e-83
3.1721e-83
3.14723e-83
3.25383e-83
3.15413e-83
3.11961e-83
3.16023e-83
3.18264e-83
3.16091e-83
3.09634e-83
3.1328e-83
3.10218e-83
3.15032e-83
3.17202e-83
3.18299e-83
3.15151e-83
3.07517e-83
3.10149e-83
3.076e-83
3.18285e-83
3.15728e-83
3.21104e-83
3.19455e-83
3.19678e-83
3.1623e-83
3.16063e-83
3.12155e-83
3.13849e-83
2.88831e-83
2.92367e-83
2.89127e-83
3.00614e-83
2.91967e-83
2.99112e-83
2.93409e-83
2.96198e-83
2.92181e-83
2.93146e-83
2.92684e-83
2.98348e-83
2.93297e-83
3.01954e-83
2.90955e-83
2.97803e-83
2.96402e-83
2.86817e-83
2.9748e-83
2.96896e-83
2.59984e-83
2.71552e-83
2.6721e-83
2.65703e-83
2.62016e-83
2.74918e-83
2.70379e-83
2.70511e-83
2.68587e-83
2.6319e-83
2.68518e-83
2.73747e-83
2.66584e-83
2.79509e-83
2.68047e-83
2.73163e-83
2.75681e-83
2.6887e-83
2.74728e-83
2.75008e-83
2.3556e-83
2.35015e-83
2.33545e-83
2.37695e-83
2.40596e-83
2.39669e-83
2.35125e-83
2.35212e-83
2.42098e-83
2.33807e-83
2.3992e-83
2.40173e-83
2.34517e-83
2.42504e-83
2.41645e-83
2.46206e-83
2.38129e-83
2.43513e-83
2.40203e-83
2.4705e-83
1.73173e-83
1.74557e-83
1.73426e-83
1.72183e-83
1.75861e-83
1.74263e-83
1.76848e-83
1.74325e-83
1.76727e-83
1.78173e-83
1.74691e-83
1.79415e-83
1.74048e-83
1.80787e-83
1.74491e-83
1.74427e-83
1.76616e-83
1.79508e-83
1.76411e-83
1.8161e-83
5.77084e-99
5.69775e-99
5.7941e-99
5.59587e-99
5.72559e-99
5.71186e-99
5.72009e-99
5.55786e-99
5.61239e-99
5.75862e-99
5.62207e-99
5.79543e-99
5.60475e-99
5.74742e-99
5.5622e-99
5.8007e-99
5.54959e-99
5.62892e-99
5.68779e-99
5.49828e-99
4.74487e-96
4.68396e-96
4.76216e-96
4.60143e-96
4.70598e-96
4.69609e-96
4.70249e-96
4.56915e-96
4.61437e-96
4.73393e-96
4.623e-96
4.76372e-96
4.60915e-96
4.72554e-96
4.57417e-96
4.76904e-96
4.56383e-96
4.62844e-96
4.6757e-96
4.52187e-96
2.08349e-93
2.05637e-93
2.09025e-93
2.02068e-93
2.06565e-93
2.06193e-93
2.06457e-93
2.00605e-93
2.02607e-93
2.07827e-93
2.03014e-93
2.09113e-93
2.02423e-93
2.07495e-93
2.00886e-93
2.09389e-93
2.00434e-93
2.03245e-93
2.05267e-93
1.98602e-93
5.28082e-91
5.21119e-91
5.29585e-91
5.1221e-91
5.23372e-91
5.2259e-91
5.23214e-91
5.08391e-91
5.13504e-91
5.26661e-91
5.14608e-91
5.29862e-91
5.13157e-91
5.25913e-91
5.0926e-91
5.30672e-91
5.08118e-91
5.15177e-91
5.20167e-91
5.03501e-91
9.43816e-89
9.31211e-89
9.46118e-89
9.15537e-89
9.35054e-89
9.33948e-89
9.34977e-89
9.08507e-89
9.1771e-89
9.41093e-89
9.19812e-89
9.46705e-89
9.17303e-89
9.39924e-89
9.1033e-89
9.48344e-89
9.08297e-89
9.20802e-89
9.29462e-89
9.00089e-89
1.17736e-86
1.16144e-86
1.17975e-86
1.1422e-86
1.16601e-86
1.165e-86
1.16617e-86
1.13319e-86
1.14475e-86
1.17376e-86
1.14753e-86
1.18062e-86
1.14451e-86
1.17251e-86
1.1358e-86
1.1829e-86
1.13327e-86
1.14873e-86
1.15919e-86
1.12306e-86
1.00814e-84
9.94344e-85
1.00977e-84
9.7814e-85
9.98067e-85
9.97519e-85
9.98427e-85
9.70221e-85
9.80176e-85
1.00487e-84
9.82698e-85
1.01062e-84
9.80203e-85
1.00399e-84
9.7273e-85
1.01276e-84
9.70563e-85
9.83683e-85
9.92332e-85
9.6183e-85
5.78564e-83
5.70576e-83
5.79231e-83
5.61424e-83
5.7258e-83
5.72442e-83
5.72929e-83
5.56778e-83
5.62548e-83
5.76567e-83
5.64062e-83
5.79804e-83
5.62667e-83
5.76184e-83
5.58351e-83
5.81121e-83
5.57165e-83
5.6458e-83
5.6934e-83
5.52185e-83
8.59135e-82
8.47781e-82
8.59417e-82
8.34201e-82
8.49981e-82
8.49895e-82
8.51064e-82
8.27432e-82
8.36779e-82
8.55742e-82
8.38669e-82
8.60659e-82
8.36212e-82
8.55471e-82
8.29351e-82
8.62476e-82
8.29215e-82
8.3874e-82
8.45131e-82
8.22451e-82
6.52834e-82
6.53708e-82
6.52012e-82
6.4102e-82
6.49047e-82
6.47184e-82
6.54731e-82
6.39768e-82
6.56334e-82
6.48315e-82
6.5108e-82
6.55517e-82
6.42692e-82
6.48886e-82
6.32427e-82
6.49584e-82
6.49852e-82
6.41631e-82
6.4295e-82
6.50716e-82
9.81255e-82
9.92522e-82
9.98414e-82
9.84444e-82
9.77393e-82
9.83699e-82
9.98732e-82
9.75672e-82
1.00647e-81
9.98795e-82
1.00141e-81
1.00145e-81
9.89948e-82
9.7858e-82
9.70447e-82
9.84622e-82
9.785e-82
9.77442e-82
9.85154e-82
9.91181e-82
1.143e-81
1.15303e-81
1.15752e-81
1.14015e-81
1.13403e-81
1.11139e-81
1.1371e-81
1.11477e-81
1.14899e-81
1.17793e-81
1.16818e-81
1.13356e-81
1.1653e-81
1.14592e-81
1.14512e-81
1.15298e-81
1.10368e-81
1.14955e-81
1.12798e-81
1.13337e-81
1.30123e-81
1.3312e-81
1.32295e-81
1.3127e-81
1.32095e-81
1.33204e-81
1.37163e-81
1.31766e-81
1.32475e-81
1.3094e-81
1.3152e-81
1.31565e-81
1.32564e-81
1.32185e-81
1.2971e-81
1.31866e-81
1.32789e-81
1.30447e-81
1.2983e-81
1.30392e-81
1.41639e-81
1.41941e-81
1.43257e-81
1.45687e-81
1.44217e-81
1.46071e-81
1.43492e-81
1.45852e-81
1.44186e-81
1.38576e-81
1.40641e-81
1.40808e-81
1.41974e-81
1.39192e-81
1.38867e-81
1.40097e-81
1.39495e-81
1.42057e-81
1.40641e-81
1.43556e-81
1.44546e-81
1.44806e-81
1.47441e-81
1.46198e-81
1.44515e-81
1.46433e-81
1.46744e-81
1.48816e-81
1.4456e-81
1.46873e-81
1.46158e-81
1.46312e-81
1.4781e-81
1.46338e-81
1.45198e-81
1.50056e-81
1.45489e-81
1.43887e-81
1.45758e-81
1.46736e-81
1.44326e-81
1.41376e-81
1.42988e-81
1.41632e-81
1.43836e-81
1.4483e-81
1.45302e-81
1.43873e-81
1.40412e-81
1.41596e-81
1.40412e-81
1.45275e-81
1.44154e-81
1.46595e-81
1.45848e-81
1.45928e-81
1.4437e-81
1.44315e-81
1.42522e-81
1.43288e-81
1.32378e-81
1.3401e-81
1.32512e-81
1.37758e-81
1.3378e-81
1.37047e-81
1.34431e-81
1.3575e-81
1.33901e-81
1.34354e-81
1.34148e-81
1.36729e-81
1.34399e-81
1.38366e-81
1.33341e-81
1.36453e-81
1.35827e-81
1.31464e-81
1.36323e-81
1.36071e-81
1.18032e-81
1.23249e-81
1.21302e-81
1.20585e-81
1.1894e-81
1.24764e-81
1.227e-81
1.22776e-81
1.21897e-81
1.19464e-81
1.21852e-81
1.2422e-81
1.21e-81
1.26812e-81
1.21633e-81
1.23949e-81
1.25073e-81
1.22032e-81
1.24672e-81
1.24801e-81
1.07701e-81
1.07456e-81
1.06804e-81
1.0869e-81
1.09984e-81
1.0957e-81
1.07485e-81
1.07592e-81
1.10692e-81
1.06919e-81
1.09692e-81
1.09824e-81
1.07204e-81
1.10882e-81
1.10473e-81
1.12573e-81
1.08885e-81
1.11319e-81
1.09808e-81
1.12923e-81
7.86655e-82
7.9289e-82
7.87852e-82
7.82138e-82
7.98613e-82
7.91503e-82
8.02936e-82
7.91813e-82
8.02299e-82
8.09064e-82
7.9318e-82
8.14577e-82
7.90391e-82
8.20862e-82
7.92353e-82
7.92108e-82
8.01826e-82
8.15051e-82
8.01029e-82
8.24488e-82
3.01339e-97
2.97475e-97
3.02447e-97
2.92233e-97
2.98875e-97
2.98247e-97
2.98656e-97
2.90188e-97
2.9306e-97
3.00656e-97
2.93605e-97
3.02549e-97
2.92723e-97
3.00111e-97
2.90499e-97
3.02878e-97
2.8984e-97
2.93943e-97
2.96951e-97
2.87178e-97
2.46622e-94
2.43418e-94
2.47433e-94
2.39194e-94
2.44517e-94
2.44078e-94
2.44393e-94
2.37466e-94
2.39836e-94
2.46018e-94
2.40316e-94
2.47541e-94
2.39615e-94
2.45614e-94
2.37794e-94
2.47861e-94
2.37257e-94
2.40584e-94
2.42984e-94
2.3509e-94
1.06252e-91
1.04854e-91
1.06559e-91
1.03062e-91
1.05307e-91
1.0515e-91
1.05277e-91
1.02295e-91
1.03324e-91
1.05972e-91
1.03545e-91
1.06616e-91
1.03252e-91
1.05816e-91
1.02466e-91
1.06776e-91
1.02236e-91
1.03656e-91
1.04663e-91
1.01309e-91
2.66676e-89
2.63124e-89
2.67341e-89
2.58696e-89
2.64208e-89
2.63898e-89
2.64193e-89
2.56716e-89
2.59317e-89
2.65926e-89
2.59909e-89
2.67513e-89
2.59198e-89
2.65582e-89
2.57223e-89
2.67968e-89
2.5665e-89
2.60181e-89
2.62635e-89
2.54335e-89
4.68376e-87
4.62065e-87
4.69355e-87
4.54412e-87
4.63873e-87
4.63475e-87
4.63952e-87
4.50834e-87
4.55435e-87
4.66975e-87
4.56536e-87
4.69705e-87
4.55329e-87
4.66452e-87
4.51855e-87
4.70598e-87
4.50858e-87
4.57e-87
4.61178e-87
4.46815e-87
5.77104e-85
5.6924e-85
5.78075e-85
5.59965e-85
5.71353e-85
5.71048e-85
5.71582e-85
5.55443e-85
5.61152e-85
5.75284e-85
5.62584e-85
5.78579e-85
5.6115e-85
5.74744e-85
5.5686e-85
5.7979e-85
5.55644e-85
5.63137e-85
5.68111e-85
5.50679e-85
4.86026e-83
4.79333e-83
4.86639e-83
4.71651e-83
4.81012e-83
4.8091e-83
4.81317e-83
4.67748e-83
4.72591e-83
4.84407e-83
4.73857e-83
4.87121e-83
4.72691e-83
4.84042e-83
4.69065e-83
4.88228e-83
4.68058e-83
4.74299e-83
4.7833e-83
4.63887e-83
2.74978e-81
2.71167e-81
2.75198e-81
2.6689e-81
2.72047e-81
2.72075e-81
2.72292e-81
2.64637e-81
2.6741e-81
2.74008e-81
2.68153e-81
2.75514e-81
2.67507e-81
2.73858e-81
2.65438e-81
2.76179e-81
2.6491e-81
2.68375e-81
2.70554e-81
2.62572e-81
4.01879e-80
3.96522e-80
4.019e-80
3.9029e-80
3.97479e-80
3.97587e-80
3.98084e-80
3.87045e-80
3.91428e-80
4.00288e-80
3.92366e-80
4.02527e-80
3.91265e-80
4.00198e-80
3.88053e-80
4.03439e-80
3.87954e-80
3.92397e-80
3.95286e-80
3.84799e-80
3.01502e-80
3.01884e-80
3.01166e-80
2.96133e-80
2.99742e-80
2.98988e-80
3.02409e-80
2.95484e-80
3.03178e-80
2.99453e-80
3.00767e-80
3.02735e-80
2.96905e-80
2.9972e-80
2.92201e-80
2.99963e-80
3.00142e-80
2.96375e-80
2.96976e-80
3.00547e-80
4.54422e-80
4.59531e-80
4.62353e-80
4.55815e-80
4.52573e-80
4.5543e-80
4.6231e-80
4.51678e-80
4.65957e-80
4.62358e-80
4.63692e-80
4.6354e-80
4.58393e-80
4.53121e-80
4.49392e-80
4.55838e-80
4.52999e-80
4.52587e-80
4.5615e-80
4.58876e-80
5.26719e-80
5.313e-80
5.33386e-80
5.25273e-80
5.22611e-80
5.12229e-80
5.24091e-80
5.13869e-80
5.2949e-80
5.42707e-80
5.38185e-80
5.2239e-80
5.36929e-80
5.28009e-80
5.27636e-80
5.31234e-80
5.08597e-80
5.29588e-80
5.19688e-80
5.22169e-80
6.00381e-80
6.13975e-80
6.10328e-80
6.05653e-80
6.0948e-80
6.14556e-80
6.32649e-80
6.08011e-80
6.11199e-80
6.04029e-80
6.06709e-80
6.06973e-80
6.11658e-80
6.10078e-80
5.98655e-80
6.08452e-80
6.12682e-80
6.01975e-80
5.99127e-80
6.01681e-80
6.49413e-80
6.50629e-80
6.56529e-80
6.67783e-80
6.61112e-80
6.69493e-80
6.57706e-80
6.68612e-80
6.60725e-80
6.35375e-80
6.44692e-80
6.45586e-80
6.50826e-80
6.38178e-80
6.36597e-80
6.42338e-80
6.39377e-80
6.51196e-80
6.4468e-80
6.58084e-80
6.64208e-80
6.6524e-80
6.77393e-80
6.71568e-80
6.63939e-80
6.72916e-80
6.74184e-80
6.83718e-80
6.64246e-80
6.74907e-80
6.71644e-80
6.72369e-80
6.79009e-80
6.72508e-80
6.67295e-80
6.89351e-80
6.68532e-80
6.61108e-80
6.6969e-80
6.73927e-80
6.58513e-80
6.45028e-80
6.52144e-80
6.46159e-80
6.56237e-80
6.60775e-80
6.62806e-80
6.56326e-80
6.40649e-80
6.45969e-80
6.40485e-80
6.62589e-80
6.57681e-80
6.68766e-80
6.6539e-80
6.65637e-80
6.5861e-80
6.58466e-80
6.50232e-80
6.53694e-80
6.06374e-80
6.13923e-80
6.06998e-80
6.30936e-80
6.12636e-80
6.27575e-80
6.15583e-80
6.21811e-80
6.13303e-80
6.15428e-80
6.14506e-80
6.26269e-80
6.1553e-80
6.33684e-80
6.10746e-80
6.24885e-80
6.22084e-80
6.0224e-80
6.24377e-80
6.23288e-80
5.37484e-80
5.61074e-80
5.52321e-80
5.48898e-80
5.41546e-80
5.67913e-80
5.58496e-80
5.58921e-80
5.54893e-80
5.43893e-80
5.54624e-80
5.65378e-80
5.50861e-80
5.77074e-80
5.53606e-80
5.64118e-80
5.69143e-80
5.55534e-80
5.67461e-80
5.68065e-80
4.9367e-80
4.92555e-80
4.89663e-80
4.98257e-80
5.04041e-80
5.02186e-80
4.92593e-80
4.93394e-80
5.07381e-80
4.90175e-80
5.02778e-80
5.03458e-80
4.91293e-80
5.08264e-80
5.06326e-80
5.16018e-80
4.99134e-80
5.10166e-80
5.03244e-80
5.17451e-80
3.58585e-80
3.61409e-80
3.59159e-80
3.56517e-80
3.63917e-80
3.60753e-80
3.65824e-80
3.60909e-80
3.65486e-80
3.68666e-80
3.61389e-80
3.7112e-80
3.60183e-80
3.74008e-80
3.6105e-80
3.60957e-80
3.65292e-80
3.71354e-80
3.64989e-80
3.75605e-80
1.55019e-95
1.53008e-95
1.55535e-95
1.50353e-95
1.537e-95
1.53424e-95
1.53623e-95
1.49269e-95
1.50757e-95
1.54647e-95
1.51058e-95
1.55604e-95
1.50617e-95
1.54386e-95
1.49471e-95
1.558e-95
1.49131e-95
1.51223e-95
1.52735e-95
1.4777e-95
1.28204e-92
1.26519e-92
1.2858e-92
1.24357e-92
1.27066e-92
1.26878e-92
1.27032e-92
1.23434e-92
1.24675e-92
1.27873e-92
1.24941e-92
1.28651e-92
1.24587e-92
1.27679e-92
1.23638e-92
1.2884e-92
1.23359e-92
1.25073e-92
1.2629e-92
1.2224e-92
5.42106e-90
5.34899e-90
5.43485e-90
5.25901e-90
5.37103e-90
5.36475e-90
5.37081e-90
5.21879e-90
5.27166e-90
5.40613e-90
5.28365e-90
5.43839e-90
5.26918e-90
5.39886e-90
5.22899e-90
5.44747e-90
5.21725e-90
5.28905e-90
5.33908e-90
5.17022e-90
1.34311e-87
1.32505e-87
1.34599e-87
1.30311e-87
1.33023e-87
1.32911e-87
1.33049e-87
1.29287e-87
1.30607e-87
1.33919e-87
1.30921e-87
1.34702e-87
1.30575e-87
1.33762e-87
1.29578e-87
1.34955e-87
1.2929e-87
1.31052e-87
1.32254e-87
1.28132e-87
2.31765e-85
2.28614e-85
2.32169e-85
2.24891e-85
2.29461e-85
2.29341e-85
2.29558e-85
2.23076e-85
2.25369e-85
2.3105e-85
2.25942e-85
2.32373e-85
2.25366e-85
2.30819e-85
2.2364e-85
2.32854e-85
2.2315e-85
2.26161e-85
2.28167e-85
2.21164e-85
2.81742e-83
2.77874e-83
2.82119e-83
2.73423e-83
2.78843e-83
2.78789e-83
2.79028e-83
2.71163e-83
2.7397e-83
2.8083e-83
2.74703e-83
2.82404e-83
2.74028e-83
2.806e-83
2.71922e-83
2.83042e-83
2.71338e-83
2.74959e-83
2.7731e-83
2.68932e-83
2.33308e-81
2.30076e-81
2.33522e-81
2.26451e-81
2.30826e-81
2.30857e-81
2.31035e-81
2.24537e-81
2.2688e-81
2.32514e-81
2.27513e-81
2.33788e-81
2.26973e-81
2.32366e-81
2.25221e-81
2.34356e-81
2.24752e-81
2.27712e-81
2.2958e-81
2.22767e-81
1.29985e-79
1.28176e-79
1.30045e-79
1.26189e-79
1.28559e-79
1.28617e-79
1.28711e-79
1.25103e-79
1.26426e-79
1.29519e-79
1.26789e-79
1.30214e-79
1.26494e-79
1.29463e-79
1.25508e-79
1.30547e-79
1.25272e-79
1.26885e-79
1.27876e-79
1.24178e-79
1.86956e-78
1.84444e-78
1.86914e-78
1.81601e-78
1.84854e-78
1.84975e-78
1.85182e-78
1.80056e-78
1.82098e-78
1.86216e-78
1.8256e-78
1.87229e-78
1.82071e-78
1.86191e-78
1.80575e-78
1.87682e-78
1.80513e-78
1.82574e-78
1.8387e-78
1.79049e-78
1.38399e-78
1.38564e-78
1.38266e-78
1.35975e-78
1.37587e-78
1.3729e-78
1.38829e-78
1.35645e-78
1.39195e-78
1.37477e-78
1.38096e-78
1.38963e-78
1.36329e-78
1.376e-78
1.34187e-78
1.37675e-78
1.37783e-78
1.36067e-78
1.3634e-78
1.37972e-78
2.09224e-78
2.11527e-78
2.12868e-78
2.09827e-78
2.08345e-78
2.09632e-78
2.1276e-78
2.07889e-78
2.14469e-78
2.12793e-78
2.13462e-78
2.13316e-78
2.11028e-78
2.08597e-78
2.06897e-78
2.0981e-78
2.08501e-78
2.08347e-78
2.09984e-78
2.11208e-78
2.41433e-78
2.43513e-78
2.44478e-78
2.40709e-78
2.39562e-78
2.34825e-78
2.40267e-78
2.35615e-78
2.42704e-78
2.48711e-78
2.46621e-78
2.39457e-78
2.46079e-78
2.41997e-78
2.41824e-78
2.43463e-78
2.33124e-78
2.42678e-78
2.3816e-78
2.39294e-78
2.75631e-78
2.81764e-78
2.80161e-78
2.78042e-78
2.79807e-78
2.82119e-78
2.90343e-78
2.79156e-78
2.80582e-78
2.77251e-78
2.78482e-78
2.78628e-78
2.80814e-78
2.80168e-78
2.74921e-78
2.79351e-78
2.81278e-78
2.7641e-78
2.75101e-78
2.76255e-78
2.96587e-78
2.97064e-78
2.99697e-78
3.04887e-78
3.01873e-78
3.05647e-78
3.00281e-78
3.05299e-78
3.01584e-78
2.90178e-78
2.94363e-78
2.94832e-78
2.97174e-78
2.91448e-78
2.90684e-78
2.93352e-78
2.91909e-78
2.97338e-78
2.94352e-78
3.0049e-78
3.04132e-78
3.0453e-78
3.10113e-78
3.07397e-78
3.03953e-78
3.08138e-78
3.0864e-78
3.13015e-78
3.0414e-78
3.09032e-78
3.07547e-78
3.07889e-78
3.10817e-78
3.07971e-78
3.05594e-78
3.15562e-78
3.06106e-78
3.02687e-78
3.06602e-78
3.08424e-78
2.99689e-78
2.93552e-78
2.96677e-78
2.9405e-78
2.98637e-78
3.00704e-78
3.01571e-78
2.9865e-78
2.91567e-78
2.93953e-78
2.91419e-78
3.01429e-78
2.99295e-78
3.0431e-78
3.02791e-78
3.02853e-78
2.99688e-78
2.99672e-78
2.95908e-78
2.97467e-78
2.77172e-78
2.80648e-78
2.77455e-78
2.88349e-78
2.79957e-78
2.86771e-78
2.81287e-78
2.84214e-78
2.8031e-78
2.81307e-78
2.80891e-78
2.86246e-78
2.81305e-78
2.89595e-78
2.79151e-78
2.85555e-78
2.84309e-78
2.75305e-78
2.85363e-78
2.84894e-78
2.4452e-78
2.55175e-78
2.51246e-78
2.49619e-78
2.46336e-78
2.58258e-78
2.53966e-78
2.54196e-78
2.52351e-78
2.47383e-78
2.52197e-78
2.57079e-78
2.50542e-78
2.62349e-78
2.51728e-78
2.56495e-78
2.58738e-78
2.52657e-78
2.58037e-78
2.58321e-78
2.26139e-78
2.25633e-78
2.24353e-78
2.28266e-78
2.30847e-78
2.30016e-78
2.25605e-78
2.26116e-78
2.3242e-78
2.2458e-78
2.30304e-78
2.3065e-78
2.25005e-78
2.3283e-78
2.31915e-78
2.36383e-78
2.28659e-78
2.33655e-78
2.30486e-78
2.36962e-78
1.6412e-78
1.65406e-78
1.64397e-78
1.6317e-78
1.66505e-78
1.65094e-78
1.67351e-78
1.65173e-78
1.67172e-78
1.68673e-78
1.65325e-78
1.69769e-78
1.64803e-78
1.71102e-78
1.65187e-78
1.65154e-78
1.67095e-78
1.69884e-78
1.66983e-78
1.71807e-78
8.16781e-94
8.0606e-94
8.19216e-94
7.92288e-94
8.09553e-94
8.08353e-94
8.09341e-94
7.86413e-94
7.94312e-94
8.14713e-94
7.96005e-94
8.19666e-94
7.93751e-94
8.13442e-94
7.87699e-94
8.20846e-94
7.85897e-94
7.9683e-94
8.04608e-94
7.7877e-94
6.65892e-91
6.57049e-91
6.67618e-91
6.46e-91
6.59763e-91
6.58996e-91
6.59743e-91
6.4107e-91
6.47558e-91
6.64098e-91
6.49029e-91
6.6806e-91
6.47252e-91
6.63174e-91
6.42311e-91
6.69159e-91
6.40852e-91
6.49682e-91
6.55846e-91
6.35075e-91
2.76329e-88
2.72618e-88
2.76937e-88
2.68107e-88
2.73687e-88
2.73457e-88
2.73743e-88
2.66003e-88
2.68715e-88
2.7554e-88
2.69362e-88
2.77151e-88
2.6865e-88
2.75202e-88
2.66595e-88
2.77662e-88
2.65996e-88
2.69625e-88
2.72107e-88
2.63613e-88
6.74812e-86
6.65655e-86
6.76033e-86
6.5482e-86
6.68125e-86
6.67782e-86
6.68419e-86
6.49546e-86
6.56215e-86
6.72785e-86
6.57884e-86
6.76638e-86
6.56208e-86
6.72076e-86
6.51179e-86
6.78022e-86
6.49734e-86
6.58512e-86
6.64379e-86
6.4395e-86
1.14376e-83
1.12808e-83
1.14537e-83
1.11003e-83
1.13202e-83
1.13181e-83
1.13279e-83
1.10086e-83
1.11224e-83
1.14014e-83
1.11521e-83
1.14653e-83
1.11247e-83
1.13914e-83
1.10392e-83
1.1491e-83
1.10152e-83
1.11624e-83
1.12584e-83
1.09178e-83
1.36982e-81
1.35088e-81
1.3712e-81
1.32962e-81
1.35529e-81
1.3555e-81
1.35654e-81
1.31838e-81
1.33211e-81
1.3653e-81
1.33584e-81
1.37278e-81
1.33269e-81
1.36434e-81
1.3224e-81
1.37611e-81
1.31959e-81
1.33703e-81
1.34808e-81
1.30798e-81
1.11505e-79
1.09951e-79
1.1157e-79
1.0825e-79
1.10284e-79
1.10338e-79
1.10414e-79
1.07316e-79
1.08443e-79
1.1112e-79
1.08758e-79
1.11714e-79
1.0851e-79
1.11061e-79
1.07668e-79
1.12003e-79
1.07449e-79
1.08848e-79
1.09709e-79
1.06507e-79
6.11197e-78
6.02658e-78
6.11279e-78
5.93485e-78
6.04307e-78
6.04797e-78
6.05194e-78
5.88276e-78
5.94547e-78
6.08982e-78
5.96314e-78
6.12173e-78
5.94977e-78
6.08784e-78
5.90306e-78
6.13828e-78
5.89244e-78
5.96729e-78
6.01205e-78
5.8415e-78
8.65032e-77
8.53327e-77
8.64608e-77
8.40438e-77
8.55061e-77
8.55948e-77
8.56794e-77
8.33122e-77
8.42587e-77
8.61622e-77
8.4484e-77
8.66173e-77
8.42689e-77
8.61581e-77
8.3575e-77
8.684e-77
8.35394e-77
8.4491e-77
8.50674e-77
8.28638e-77
6.31553e-77
6.32265e-77
6.31054e-77
6.20681e-77
6.27828e-77
6.26696e-77
6.33579e-77
6.19025e-77
6.3531e-77
6.27432e-77
6.30333e-77
6.34121e-77
6.22297e-77
6.27997e-77
6.12599e-77
6.28171e-77
6.28782e-77
6.21016e-77
6.22245e-77
6.29653e-77
9.57873e-77
9.68188e-77
9.74518e-77
9.60454e-77
9.53719e-77
9.5948e-77
9.73617e-77
9.51437e-77
9.8158e-77
9.73828e-77
9.7713e-77
9.76122e-77
9.66013e-77
9.54876e-77
9.47167e-77
9.60254e-77
9.5425e-77
9.53707e-77
9.61176e-77
9.66643e-77
1.10086e-76
1.11025e-76
1.11469e-76
1.09729e-76
1.09238e-76
1.07089e-76
1.09572e-76
1.07467e-76
1.10665e-76
1.13381e-76
1.1242e-76
1.09189e-76
1.12188e-76
1.10331e-76
1.10251e-76
1.10994e-76
1.06297e-76
1.10621e-76
1.08571e-76
1.09086e-76
1.25912e-76
1.28663e-76
1.27964e-76
1.2701e-76
1.27818e-76
1.28867e-76
1.32585e-76
1.27533e-76
1.28166e-76
1.26628e-76
1.2719e-76
1.27267e-76
1.28282e-76
1.28024e-76
1.25626e-76
1.27618e-76
1.28491e-76
1.2629e-76
1.25691e-76
1.26209e-76
1.34916e-76
1.35098e-76
1.36267e-76
1.3865e-76
1.37294e-76
1.38987e-76
1.36553e-76
1.38853e-76
1.37111e-76
1.32003e-76
1.33873e-76
1.34115e-76
1.35156e-76
1.32575e-76
1.32209e-76
1.33442e-76
1.32745e-76
1.35228e-76
1.33866e-76
1.36665e-76
1.3874e-76
1.38887e-76
1.41441e-76
1.40181e-76
1.38633e-76
1.40576e-76
1.40768e-76
1.42769e-76
1.38739e-76
1.40975e-76
1.40301e-76
1.40463e-76
1.41747e-76
1.40509e-76
1.39428e-76
1.43915e-76
1.39637e-76
1.38069e-76
1.39848e-76
1.40625e-76
1.36122e-76
1.33339e-76
1.34706e-76
1.33557e-76
1.35638e-76
1.36577e-76
1.36945e-76
1.35634e-76
1.3244e-76
1.33508e-76
1.3234e-76
1.3686e-76
1.35939e-76
1.382e-76
1.37519e-76
1.37526e-76
1.36102e-76
1.36117e-76
1.34402e-76
1.35103e-76
1.26449e-76
1.28045e-76
1.26575e-76
1.3152e-76
1.27682e-76
1.30784e-76
1.28282e-76
1.29652e-76
1.27865e-76
1.28332e-76
1.28143e-76
1.30578e-76
1.28309e-76
1.32087e-76
1.27343e-76
1.30235e-76
1.29683e-76
1.25607e-76
1.30166e-76
1.29965e-76
1.11221e-76
1.16031e-76
1.14269e-76
1.13498e-76
1.12032e-76
1.17421e-76
1.15465e-76
1.15586e-76
1.1474e-76
1.12499e-76
1.14656e-76
1.16872e-76
1.1393e-76
1.19246e-76
1.14441e-76
1.16602e-76
1.17603e-76
1.14887e-76
1.17313e-76
1.17446e-76
1.03542e-76
1.03315e-76
1.02749e-76
1.04528e-76
1.05677e-76
1.05308e-76
1.03281e-76
1.03581e-76
1.06417e-76
1.02849e-76
1.05446e-76
1.05622e-76
1.03004e-76
1.0661e-76
1.06176e-76
1.08235e-76
1.04706e-76
1.06964e-76
1.05516e-76
1.08464e-76
7.48514e-77
7.54337e-77
7.4983e-77
7.44168e-77
7.59152e-77
7.52862e-77
7.62857e-77
7.5326e-77
7.61948e-77
7.68982e-77
7.53649e-77
7.73859e-77
7.51394e-77
7.79991e-77
7.53112e-77
7.53005e-77
7.61634e-77
7.74435e-77
7.61253e-77
7.831e-77
4.29992e-92
4.24285e-92
4.31126e-92
4.17152e-92
4.26044e-92
4.25549e-92
4.26033e-92
4.13973e-92
4.18158e-92
4.28855e-92
4.19107e-92
4.31412e-92
4.17959e-92
4.28238e-92
4.14767e-92
4.3211e-92
4.13811e-92
4.19522e-92
4.23514e-92
4.10081e-92
3.44978e-89
3.4035e-89
3.45755e-89
3.34721e-89
3.41689e-89
3.41404e-89
3.41762e-89
3.32098e-89
3.35479e-89
3.44014e-89
3.36287e-89
3.46025e-89
3.35399e-89
3.43577e-89
3.32833e-89
3.46655e-89
3.32072e-89
3.36611e-89
3.3972e-89
3.29097e-89
1.4048e-86
1.38576e-86
1.40742e-86
1.36322e-86
1.39092e-86