/*--------------------------------*- C++ -*----------------------------------*\
| =========                 |                                                 |
| \\      /  F ield         | OpenFOAM: The Open Source CFD Toolbox           |
|  \\    /   O peration     | Version:  2212                                  |
|   \\  /    A nd           | Website:  www.openfoam.com                      |
|    \\/     M anipulation  |                                                 |
\*---------------------------------------------------------------------------*/
FoamFile
{
    version     2.0;
    format      ascii;
    arch        "LSB;label=32;scalar=64";
    class       volScalarField;
    location    "0.42";
    object      nut;
}
// * * * * * * * * * * * * * * * * * * * * * * * * * * * * * * * * * * * * * //

dimensions      [0 2 -1 0 0 0 0];

internalField   nonuniform List<scalar> 
24240
(
0
0
0
0
0
0
0
0
0
0
0
0
0
0
0
0
0
0
0
0
0
0
0
0
0
0
0
0
0
0
0
0
0
0
0
0
0
0
0
0
0
0
0
0
0
0
0
0
0
0
0
0
0
0
0
0
0
0
0
0
0
0
0
0
0
0
0
0
0
0
0
0
0
0
0
0
0
0
0
0
0
0
0
0
0
0
0
0
0
0
0
0
0
0
0
0
0
0
0
0
0
0
0
0
0
0
0
0
0
0
0
0
0
0
0
0
0
0
0
0
0
0
0
0
0
0
0
0
0
0
0
0
0
0
0
0
0
0
0
0
0
0
0
0
0
0
0
0
0
0
0
0
0
0
0
0
0
0
0
0
0
0
0
0
0
0
0
0
0
0
0
0
0
0
0
0
0
0
0
0
0
0
0
0
0
0
0
0
0
0
0
0
0
0
0
0
0
0
0
0
0
0
0
0
0
0
0
0
0
0
0
0
0
0
0
0
0
0
0
0
0
0
0
0
0
0
0
0
0
0
0
0
0
0
0
0
0
0
0
0
0
0
0
0
0
0
0
0
0
0
0
0
0
0
0
0
0
0
0
0
0
0
0
0
0
0
0
0
0
0
0
0
0
0
0
0
0
0
0
0
0
0
0
0
0
0
0
0
0
0
0
0
0
0
0
0
0
0
0
0
0
0
0
0
0
0
0
0
0
0
0
0
0
0
0
0
0
0
0
0
0
0
0
1.46168e-07
1.47407e-07
1.47848e-07
1.48327e-07
1.48846e-07
1.49387e-07
1.49943e-07
1.50495e-07
1.51041e-07
1.51557e-07
1.52039e-07
1.5247e-07
1.52837e-07
1.52249e-07
0
0
0
0
0
0
0
0
0
0
0
0
0
0
0
0
0
0
0
0
0
0
0
0
0
0
0
0
0
0
0
0
0
0
0
0
0
0
0
0
0
0
0
0
0
0
0
0
0
0
0
0
0
0
0
0
0
0
0
0
0
0
0
0
0
0
0
0
0
0
0
0
0
0
0
0
0
0
0
0
0
0
0
0
0
0
0
0
0
0
0
0
0
0
0
0
0
0
0
0
0
0
0
0
0
0
0
0
0
0
0
0
0
0
0
0
0
0
0
0
0
0
0
0
0
0
0
0
0
0
0
0
0
0
0
0
0
0
0
0
0
0
0
0
0
0
0
0
0
0
0
0
0
0
0
0
0
0
0
0
0
0
0
0
0
0
0
0
0
0
0
0
0
0
0
0
0
0
0
0
0
0
0
0
0
0
0
0
0
0
0
0
0
0
0
0
0
0
0
0
0
0
0
0
0
0
0
0
0
0
0
0
0
0
0
0
0
0
0
0
0
0
0
0
0
0
0
0
0
0
0
0
0
0
0
0
0
0
0
0
0
0
0
0
0
0
0
0
0
0
0
0
0
0
0
0
0
0
0
0
0
0
0
0
0
0
0
0
0
0
0
0
0
0
0
0
0
0
0
0
0
0
0
0
0
0
0
0
0
0
0
0
0
0
0
0
0
0
0
0
0
0
0
0
0
0
0
0
0
0
0
0
0
0
0
0
0
0
0
0
0
0
0
0
0
0
0
0
0
0
0
0
0
0
0
0
0
0
0
0
0
0
0
0
0
0
0
0
0
0
0
0
0
0
0
0
0
0
0
0
0
0
0
0
0
0
0
0
0
0
0
0
0
0
0
0
0
0
0
0
0
0
0
0
0
0
0
0
0
0
0
0
0
0
0
0
0
0
0
0
0
0
0
0
0
0
0
0
0
0
0
0
0
0
0
0
0
0
0
0
0
0
0
0
0
0
0
0
0
0
0
0
0
0
0
0
0
0
0
0
0
0
0
0
0
0
0
0
0
0
0
0
0
0
0
0
0
0
0
0
0
0
0
0
1.60471e-07
2.58986e-07
2.58141e-07
2.58272e-07
2.58424e-07
2.58597e-07
2.58782e-07
2.58976e-07
2.59171e-07
2.59363e-07
2.59549e-07
2.59724e-07
2.59886e-07
2.60032e-07
2.60162e-07
2.60269e-07
2.61307e-07
1.6219e-07
0
0
0
1.66875e-08
2.1037e-08
2.03193e-08
2.03284e-08
2.03389e-08
2.03501e-08
2.03618e-08
2.03736e-08
2.03852e-08
2.03964e-08
2.0407e-08
2.04168e-08
2.04257e-08
2.04337e-08
2.11679e-08
1.68202e-08
0
0
0
0
0
0
0
0
0
0
0
0
0
0
0
0
0
0
0
0
0
0
0
0
0
2.9981e-06
3.022e-06
3.02186e-06
3.02169e-06
3.02152e-06
3.02134e-06
3.02116e-06
3.02098e-06
3.02081e-06
3.02065e-06
3.0205e-06
3.02037e-06
3.02025e-06
2.99614e-06
0
0
0
0
0
0
3.12225e-06
3.14967e-06
3.14943e-06
3.14915e-06
3.14885e-06
3.14854e-06
3.14822e-06
3.14791e-06
3.14761e-06
3.14733e-06
3.14707e-06
3.14684e-06
3.14663e-06
3.11885e-06
0
0
0
0
0
0
2.34793e-06
2.36838e-06
2.36794e-06
2.36744e-06
2.36691e-06
2.36634e-06
2.36577e-06
2.3652e-06
2.36465e-06
2.36413e-06
2.36365e-06
2.36321e-06
2.36282e-06
2.34173e-06
0
0
0
0
0
0
2.34699e-06
2.36826e-06
2.36776e-06
2.3672e-06
2.3666e-06
2.36597e-06
2.36532e-06
2.36468e-06
2.36406e-06
2.36347e-06
2.36293e-06
2.36244e-06
2.36201e-06
2.34002e-06
0
0
0
0
0
0
1.64391e-06
1.6587e-06
1.65823e-06
1.65771e-06
1.65715e-06
1.65656e-06
1.65596e-06
1.65536e-06
1.65477e-06
1.65421e-06
1.6537e-06
1.65322e-06
1.65281e-06
1.63735e-06
0
0
0
0
0
0
1.55349e-06
1.56721e-06
1.56675e-06
1.56623e-06
1.56567e-06
1.56508e-06
1.56449e-06
1.56389e-06
1.56331e-06
1.56276e-06
1.56225e-06
1.56179e-06
1.56139e-06
1.547e-06
0
0
0
0
0
0
1.69547e-06
1.71027e-06
1.70982e-06
1.70931e-06
1.70875e-06
1.70817e-06
1.70758e-06
1.70698e-06
1.70641e-06
1.70586e-06
1.70535e-06
1.70488e-06
1.70448e-06
1.689e-06
0
0
0
0
0
0
1.59094e-06
1.60458e-06
1.60411e-06
1.60359e-06
1.60303e-06
1.60244e-06
1.60184e-06
1.60124e-06
1.60066e-06
1.6001e-06
1.5996e-06
1.59914e-06
1.59874e-06
1.58443e-06
0
0
0
0
0
0
2.48359e-06
2.50471e-06
2.50425e-06
2.50373e-06
2.50317e-06
2.50258e-06
2.50199e-06
2.50139e-06
2.50082e-06
2.50027e-06
2.49977e-06
2.49932e-06
2.49893e-06
2.47714e-06
0
0
0
0
0
0
2.4479e-06
2.46791e-06
2.46741e-06
2.46684e-06
2.46624e-06
2.46561e-06
2.46497e-06
2.46434e-06
2.46374e-06
2.46316e-06
2.46265e-06
2.46218e-06
2.46179e-06
2.44109e-06
0
0
0
0
0
0
3.89243e-06
3.92419e-06
3.92387e-06
3.92349e-06
3.92309e-06
3.92267e-06
3.92226e-06
3.92185e-06
3.92147e-06
3.92111e-06
3.92079e-06
3.9205e-06
3.92026e-06
3.88805e-06
0
0
0
0
0
0
3.94257e-06
3.97338e-06
3.97301e-06
3.97259e-06
3.97215e-06
3.97168e-06
3.97123e-06
3.97078e-06
3.97037e-06
3.96999e-06
3.96966e-06
3.96937e-06
3.96913e-06
3.93786e-06
0
0
0
0
0
0
5.76214e-06
5.80507e-06
5.8054e-06
5.80573e-06
5.80609e-06
5.80647e-06
5.80689e-06
5.80731e-06
5.80774e-06
5.80818e-06
5.8086e-06
5.80899e-06
5.80932e-06
5.76691e-06
0
0
0
0
0
0
6.26144e-06
6.30646e-06
6.30698e-06
6.30742e-06
6.30791e-06
6.30841e-06
6.30896e-06
6.30942e-06
6.31007e-06
6.31062e-06
6.31116e-06
6.31166e-06
6.31198e-06
6.26763e-06
0
0
0
0
0
0
0
0
0
0
0
0
0
0
0
0
0
0
0
0
0
0
0
0
0
4.37487e-08
5.19527e-08
4.91111e-08
4.90895e-08
4.91033e-08
4.91181e-08
4.91336e-08
4.91493e-08
4.92059e-08
4.91801e-08
4.91942e-08
4.92075e-08
4.92194e-08
4.92638e-08
5.21339e-08
4.39268e-08
0
0
5.69334e-08
1.66427e-06
2.16594e-06
2.16401e-06
2.16465e-06
2.16541e-06
2.16628e-06
2.16723e-06
2.16823e-06
2.16925e-06
2.17026e-06
2.17126e-06
2.1722e-06
2.17308e-06
2.17389e-06
2.17462e-06
2.17524e-06
2.17815e-06
1.67486e-06
5.95208e-08
0
0
2.93598e-08
2.95841e-08
2.96513e-08
2.97291e-08
2.98177e-08
2.99126e-08
3.00114e-08
3.01111e-08
3.02091e-08
3.03036e-08
3.03925e-08
3.04752e-08
3.05495e-08
3.06164e-08
3.06714e-08
3.05436e-08
0
0
0
0
0
0
0
0
0
0
0
0
0
0
0
0
0
0
0
0
0
0
0
0
0
0
0
0
0
0
0
0
0
0
0
0
0
0
0
0
0
0
0
0
0
2.79448e-06
2.8175e-06
2.81738e-06
2.81725e-06
2.8171e-06
2.81694e-06
2.81678e-06
2.81662e-06
2.81647e-06
2.81632e-06
2.81619e-06
2.81606e-06
2.81594e-06
2.79273e-06
0
0
0
0
0
0
3.04187e-06
3.0697e-06
3.06948e-06
3.06921e-06
3.06893e-06
3.06863e-06
3.06833e-06
3.06802e-06
3.06774e-06
3.06746e-06
3.06721e-06
3.06697e-06
3.06675e-06
3.03857e-06
0
0
0
0
0
0
2.29953e-06
2.32015e-06
2.31977e-06
2.31934e-06
2.31888e-06
2.31838e-06
2.31787e-06
2.31737e-06
2.31687e-06
2.31639e-06
2.31595e-06
2.31553e-06
2.31516e-06
2.29396e-06
0
0
0
0
0
0
2.38609e-06
2.40839e-06
2.40795e-06
2.40745e-06
2.40692e-06
2.40635e-06
2.40577e-06
2.40518e-06
2.40462e-06
2.40407e-06
2.40356e-06
2.40309e-06
2.40268e-06
2.37972e-06
0
0
0
0
0
0
1.7018e-06
1.71757e-06
1.71716e-06
1.71669e-06
1.71618e-06
1.71565e-06
1.7151e-06
1.71454e-06
1.714e-06
1.71348e-06
1.71298e-06
1.71253e-06
1.71212e-06
1.69571e-06
0
0
0
0
0
0
1.66179e-06
1.67674e-06
1.67632e-06
1.67585e-06
1.67534e-06
1.6748e-06
1.67425e-06
1.67369e-06
1.67315e-06
1.67263e-06
1.67214e-06
1.67169e-06
1.67128e-06
1.6557e-06
0
0
0
0
0
0
1.84694e-06
1.86361e-06
1.86319e-06
1.86272e-06
1.8622e-06
1.86166e-06
1.8611e-06
1.86054e-06
1.85999e-06
1.85946e-06
1.85896e-06
1.85849e-06
1.85809e-06
1.84077e-06
0
0
0
0
0
0
1.78238e-06
1.79796e-06
1.79755e-06
1.79708e-06
1.79658e-06
1.79604e-06
1.7955e-06
1.79494e-06
1.7944e-06
1.79388e-06
1.79339e-06
1.79294e-06
1.79254e-06
1.77632e-06
0
0
0
0
0
0
2.75004e-06
2.77443e-06
2.77397e-06
2.77345e-06
2.77289e-06
2.7723e-06
2.7717e-06
2.77109e-06
2.7705e-06
2.76992e-06
2.76939e-06
2.7689e-06
2.76847e-06
2.74338e-06
0
0
0
0
0
0
2.72358e-06
2.7464e-06
2.74593e-06
2.74541e-06
2.74484e-06
2.74424e-06
2.74363e-06
2.74301e-06
2.74242e-06
2.74184e-06
2.74131e-06
2.74082e-06
2.74039e-06
2.71686e-06
0
0
0
0
0
0
4.19935e-06
4.23588e-06
4.23551e-06
4.23508e-06
4.23463e-06
4.23414e-06
4.23366e-06
4.23317e-06
4.23272e-06
4.23228e-06
4.23188e-06
4.23151e-06
4.23119e-06
4.19411e-06
0
0
0
0
0
0
4.10969e-06
4.14304e-06
4.14271e-06
4.14232e-06
4.1419e-06
4.14145e-06
4.14101e-06
4.14056e-06
4.14015e-06
4.13974e-06
4.13938e-06
4.13904e-06
4.13874e-06
4.10487e-06
0
0
0
0
0
0
5.69386e-06
5.73951e-06
5.73973e-06
5.73992e-06
5.74015e-06
5.74038e-06
5.74064e-06
5.74091e-06
5.74121e-06
5.74151e-06
5.74181e-06
5.74209e-06
5.74231e-06
5.69701e-06
0
0
0
0
0
0
5.72538e-06
5.76899e-06
5.76939e-06
5.76978e-06
5.77022e-06
5.77066e-06
5.77114e-06
5.77161e-06
5.77212e-06
5.77261e-06
5.77308e-06
5.77351e-06
5.77385e-06
5.73082e-06
0
0
0
0
0
0
0
0
0
0
0
0
0
0
0
0
0
0
0
0
0
0
0
0
0
1.1394e-08
1.69903e-08
1.60476e-08
1.60471e-08
1.60586e-08
1.60712e-08
1.60846e-08
1.60983e-08
1.61165e-08
1.61256e-08
1.61386e-08
1.61511e-08
1.61626e-08
1.61839e-08
1.71532e-08
1.15546e-08
0
0
0
8.15323e-07
1.18648e-06
1.18888e-06
1.18932e-06
1.18984e-06
1.19044e-06
1.1911e-06
1.19181e-06
1.19253e-06
1.19327e-06
1.19399e-06
1.19469e-06
1.19537e-06
1.196e-06
1.19658e-06
1.19709e-06
1.19542e-06
8.22814e-07
0
0
7.62521e-08
1.45524e-07
1.45369e-07
1.45444e-07
1.45529e-07
1.45628e-07
1.45734e-07
1.45845e-07
1.45958e-07
1.46071e-07
1.46181e-07
1.46285e-07
1.46383e-07
1.46473e-07
1.46554e-07
1.46621e-07
1.46889e-07
7.7174e-08
0
0
0
4.98757e-09
8.57097e-09
7.80179e-09
7.80586e-09
7.81057e-09
7.81565e-09
7.82094e-09
7.82633e-09
7.83163e-09
7.83682e-09
7.8417e-09
7.8463e-09
7.85044e-09
7.85429e-09
8.63566e-09
5.05038e-09
0
0
0
0
0
0
0
0
0
0
0
0
0
0
0
0
0
0
0
0
0
0
0
0
0
5.4361e-06
5.48323e-06
5.48312e-06
5.48298e-06
5.48283e-06
5.48265e-06
5.48248e-06
5.4823e-06
5.48213e-06
5.48196e-06
5.4818e-06
5.48164e-06
5.48148e-06
5.43412e-06
0
0
0
0
0
0
5.45666e-06
5.5072e-06
5.507e-06
5.50674e-06
5.50646e-06
5.50616e-06
5.50586e-06
5.50555e-06
5.50526e-06
5.50496e-06
5.5047e-06
5.50443e-06
5.50419e-06
5.45326e-06
0
0
0
0
0
0
4.16915e-06
4.20869e-06
4.20834e-06
4.20793e-06
4.20748e-06
4.207e-06
4.20651e-06
4.20601e-06
4.20551e-06
4.20503e-06
4.20457e-06
4.20413e-06
4.20374e-06
4.1636e-06
0
0
0
0
0
0
4.10714e-06
4.14647e-06
4.14606e-06
4.14559e-06
4.14507e-06
4.14451e-06
4.14395e-06
4.14336e-06
4.1428e-06
4.14224e-06
4.14171e-06
4.14121e-06
4.14077e-06
4.10076e-06
0
0
0
0
0
0
3.07868e-06
3.10827e-06
3.10784e-06
3.10736e-06
3.10684e-06
3.10628e-06
3.1057e-06
3.10511e-06
3.10453e-06
3.10395e-06
3.10341e-06
3.10289e-06
3.10243e-06
3.07214e-06
0
0
0
0
0
0
2.97983e-06
3.00731e-06
3.00686e-06
3.00636e-06
3.00582e-06
3.00524e-06
3.00465e-06
3.00404e-06
3.00344e-06
3.00286e-06
3.0023e-06
3.00177e-06
3.00129e-06
2.97308e-06
0
0
0
0
0
0
3.20932e-06
3.2389e-06
3.23846e-06
3.23796e-06
3.23742e-06
3.23685e-06
3.23626e-06
3.23565e-06
3.23505e-06
3.23446e-06
3.2339e-06
3.23337e-06
3.2329e-06
3.20261e-06
0
0
0
0
0
0
3.1502e-06
3.17896e-06
3.17854e-06
3.17806e-06
3.17754e-06
3.17698e-06
3.17641e-06
3.17582e-06
3.17524e-06
3.17466e-06
3.17412e-06
3.1736e-06
3.17314e-06
3.14367e-06
0
0
0
0
0
0
4.51199e-06
4.55305e-06
4.55258e-06
4.55203e-06
4.55145e-06
4.55081e-06
4.55017e-06
4.54951e-06
4.54887e-06
4.54824e-06
4.54765e-06
4.54708e-06
4.54659e-06
4.50475e-06
0
0
0
0
0
0
4.63285e-06
4.67379e-06
4.67332e-06
4.67279e-06
4.67221e-06
4.67158e-06
4.67095e-06
4.67029e-06
4.66966e-06
4.66902e-06
4.66843e-06
4.66786e-06
4.66735e-06
4.62563e-06
0
0
0
0
0
0
6.74485e-06
6.80455e-06
6.80417e-06
6.80371e-06
6.80323e-06
6.8027e-06
6.80219e-06
6.80165e-06
6.80115e-06
6.80065e-06
6.80019e-06
6.79976e-06
6.79937e-06
6.73904e-06
0
0
0
0
0
0
7.07964e-06
7.14064e-06
7.14031e-06
7.1399e-06
7.13948e-06
7.139e-06
7.13854e-06
7.13806e-06
7.1376e-06
7.13714e-06
7.13672e-06
7.13631e-06
7.13594e-06
7.07433e-06
0
0
0
0
0
0
9.87942e-06
9.96348e-06
9.96367e-06
9.96381e-06
9.96401e-06
9.96419e-06
9.96443e-06
9.96466e-06
9.96495e-06
9.96522e-06
9.96552e-06
9.96579e-06
9.96602e-06
9.88227e-06
0
0
0
0
0
0
1.06957e-05
1.07837e-05
1.07841e-05
1.07845e-05
1.07849e-05
1.07854e-05
1.07859e-05
1.07864e-05
1.07869e-05
1.07874e-05
1.07879e-05
1.07884e-05
1.07888e-05
1.07013e-05
0
0
0
0
0
0
0
0
0
0
0
0
0
0
0
0
0
0
0
0
0
0
0
0
0
3.25308e-08
3.8965e-08
3.67512e-08
3.67296e-08
3.67399e-08
3.67511e-08
3.67631e-08
3.67757e-08
3.68015e-08
3.6801e-08
3.68134e-08
3.68256e-08
3.68372e-08
3.68784e-08
3.91186e-08
3.26836e-08
0
0
3.62103e-08
1.33773e-06
1.79842e-06
1.79923e-06
1.79966e-06
1.80017e-06
1.80077e-06
1.80144e-06
1.80215e-06
1.80289e-06
1.80365e-06
1.80442e-06
1.80516e-06
1.8059e-06
1.80659e-06
1.80725e-06
1.80783e-06
1.80782e-06
1.34575e-06
3.81152e-08
0
0
2.39152e-08
2.39569e-08
2.39961e-08
2.40417e-08
2.4094e-08
2.41508e-08
2.42103e-08
2.42714e-08
2.43319e-08
2.43915e-08
2.4448e-08
2.45016e-08
2.45502e-08
2.45949e-08
2.46317e-08
2.46515e-08
0
0
0
0
0
0
0
0
0
0
0
0
0
0
0
0
0
0
0
0
0
0
0
0
0
0
0
0
0
0
0
0
0
0
0
0
0
0
0
0
0
0
0
0
0
4.86086e-06
4.90461e-06
4.90453e-06
4.90441e-06
4.90428e-06
4.90414e-06
4.90399e-06
4.90383e-06
4.90369e-06
4.90352e-06
4.90338e-06
4.90322e-06
4.90307e-06
4.85911e-06
0
0
0
0
0
0
5.07457e-06
5.12406e-06
5.12389e-06
5.12367e-06
5.12343e-06
5.12316e-06
5.1229e-06
5.12262e-06
5.12236e-06
5.12209e-06
5.12183e-06
5.12158e-06
5.12134e-06
5.07152e-06
0
0
0
0
0
0
3.9305e-06
3.96905e-06
3.96875e-06
3.9684e-06
3.96803e-06
3.96761e-06
3.96718e-06
3.96674e-06
3.9663e-06
3.96586e-06
3.96544e-06
3.96504e-06
3.96467e-06
3.92558e-06
0
0
0
0
0
0
3.99222e-06
4.03197e-06
4.03162e-06
4.03121e-06
4.03078e-06
4.03029e-06
4.0298e-06
4.02929e-06
4.02878e-06
4.02828e-06
4.0278e-06
4.02734e-06
4.02693e-06
3.98658e-06
0
0
0
0
0
0
3.04118e-06
3.07133e-06
3.07097e-06
3.07055e-06
3.0701e-06
3.06961e-06
3.0691e-06
3.06858e-06
3.06806e-06
3.06754e-06
3.06704e-06
3.06656e-06
3.06613e-06
3.03535e-06
0
0
0
0
0
0
2.98558e-06
3.01395e-06
3.01356e-06
3.01312e-06
3.01264e-06
3.01213e-06
3.0116e-06
3.01105e-06
3.0105e-06
3.00995e-06
3.00943e-06
3.00892e-06
3.00846e-06
2.9794e-06
0
0
0
0
0
0
3.2342e-06
3.26501e-06
3.26463e-06
3.2642e-06
3.26373e-06
3.26322e-06
3.26269e-06
3.26214e-06
3.2616e-06
3.26106e-06
3.26054e-06
3.26005e-06
3.25961e-06
3.22814e-06
0
0
0
0
0
0
3.20278e-06
3.23284e-06
3.23249e-06
3.23207e-06
3.23162e-06
3.23113e-06
3.23063e-06
3.2301e-06
3.22957e-06
3.22904e-06
3.22853e-06
3.22804e-06
3.2276e-06
3.19689e-06
0
0
0
0
0
0
4.55118e-06
4.59459e-06
4.59418e-06
4.59369e-06
4.59317e-06
4.5926e-06
4.59202e-06
4.59142e-06
4.59083e-06
4.59023e-06
4.58968e-06
4.58914e-06
4.58867e-06
4.54454e-06
0
0
0
0
0
0
4.63605e-06
4.67806e-06
4.67766e-06
4.67718e-06
4.67668e-06
4.67612e-06
4.67556e-06
4.67496e-06
4.67437e-06
4.67377e-06
4.6732e-06
4.67265e-06
4.67216e-06
4.62942e-06
0
0
0
0
0
0
6.62212e-06
6.68408e-06
6.68376e-06
6.68336e-06
6.68294e-06
6.68247e-06
6.68201e-06
6.68152e-06
6.68106e-06
6.68059e-06
6.68015e-06
6.67972e-06
6.67934e-06
6.61678e-06
0
0
0
0
0
0
6.74089e-06
6.80105e-06
6.8008e-06
6.80046e-06
6.80012e-06
6.79972e-06
6.79933e-06
6.7989e-06
6.7985e-06
6.79807e-06
6.79767e-06
6.79726e-06
6.79687e-06
6.73615e-06
0
0
0
0
0
0
9.02135e-06
9.10553e-06
9.10574e-06
9.1059e-06
9.10612e-06
9.10632e-06
9.10659e-06
9.10685e-06
9.10716e-06
9.10746e-06
9.10778e-06
9.10807e-06
9.10832e-06
9.02449e-06
0
0
0
0
0
0
9.36178e-06
9.44543e-06
9.44587e-06
9.44628e-06
9.44675e-06
9.44723e-06
9.44776e-06
9.44825e-06
9.44882e-06
9.44934e-06
9.44986e-06
9.45031e-06
9.45069e-06
9.36763e-06
0
0
0
0
0
0
0
0
0
0
0
0
0
0
0
0
0
0
0
0
0
0
0
0
0
1.5426e-08
2.07478e-08
1.95631e-08
1.95704e-08
1.9579e-08
1.95885e-08
1.95987e-08
1.96094e-08
1.96248e-08
1.96314e-08
1.96422e-08
1.96529e-08
1.96631e-08
1.96725e-08
2.08799e-08
1.5557e-08
0
0
0
8.20997e-07
1.16432e-06
1.16562e-06
1.16593e-06
1.16631e-06
1.16676e-06
1.16726e-06
1.1678e-06
1.16837e-06
1.16895e-06
1.16955e-06
1.17013e-06
1.17072e-06
1.17127e-06
1.1718e-06
1.17227e-06
1.1716e-06
8.2713e-07
0
0
2.1004e-08
5.6733e-08
5.65647e-08
5.65995e-08
5.66399e-08
5.66865e-08
5.67377e-08
5.67915e-08
5.68475e-08
5.69033e-08
5.69589e-08
5.7012e-08
5.7063e-08
5.71091e-08
5.71518e-08
5.71867e-08
5.74121e-08
2.14154e-08
0
0
0
0
2.62754e-09
2.44079e-09
2.44446e-09
2.44869e-09
2.45335e-09
2.45819e-09
2.46326e-09
2.46821e-09
2.47319e-09
2.47785e-09
2.48237e-09
2.48638e-09
2.49019e-09
2.68713e-09
0
0
0
0
0
0
0
0
0
0
0
0
0
0
0
0
0
0
0
0
0
0
0
0
0
0
6.06059e-06
6.11757e-06
6.11751e-06
6.1174e-06
6.1173e-06
6.11716e-06
6.11703e-06
6.11687e-06
6.11673e-06
6.11657e-06
6.11642e-06
6.11625e-06
6.11609e-06
6.0589e-06
0
0
0
0
0
0
6.10851e-06
6.1698e-06
6.16967e-06
6.16948e-06
6.16929e-06
6.16906e-06
6.16884e-06
6.16859e-06
6.16836e-06
6.16811e-06
6.16788e-06
6.16763e-06
6.16739e-06
6.10578e-06
0
0
0
0
0
0
4.70911e-06
4.7569e-06
4.75664e-06
4.75634e-06
4.756e-06
4.75563e-06
4.75525e-06
4.75484e-06
4.75443e-06
4.75402e-06
4.75362e-06
4.75323e-06
4.75288e-06
4.7046e-06
0
0
0
0
0
0
4.68507e-06
4.73337e-06
4.73309e-06
4.73274e-06
4.73237e-06
4.73195e-06
4.73153e-06
4.73107e-06
4.73063e-06
4.73017e-06
4.72974e-06
4.72932e-06
4.72895e-06
4.68013e-06
0
0
0
0
0
0
3.6691e-06
3.70668e-06
3.70635e-06
3.70596e-06
3.70554e-06
3.70509e-06
3.70462e-06
3.70412e-06
3.70362e-06
3.70311e-06
3.70263e-06
3.70215e-06
3.70172e-06
3.66351e-06
0
0
0
0
0
0
3.59004e-06
3.62509e-06
3.62474e-06
3.62434e-06
3.62391e-06
3.62344e-06
3.62296e-06
3.62245e-06
3.62194e-06
3.62142e-06
3.62092e-06
3.62043e-06
3.61998e-06
3.58425e-06
0
0
0
0
0
0
3.86118e-06
3.89912e-06
3.89879e-06
3.89841e-06
3.89801e-06
3.89756e-06
3.89711e-06
3.89662e-06
3.89615e-06
3.89566e-06
3.89521e-06
3.89476e-06
3.89438e-06
3.85587e-06
0
0
0
0
0
0
3.86027e-06
3.89802e-06
3.89772e-06
3.89737e-06
3.897e-06
3.89657e-06
3.89614e-06
3.89568e-06
3.89522e-06
3.89475e-06
3.8943e-06
3.89387e-06
3.89349e-06
3.8552e-06
0
0
0
0
0
0
5.26001e-06
5.31225e-06
5.3119e-06
5.31149e-06
5.31105e-06
5.31056e-06
5.31007e-06
5.30953e-06
5.30902e-06
5.30849e-06
5.30799e-06
5.30751e-06
5.3071e-06
5.25426e-06
0
0
0
0
0
0
5.46429e-06
5.51828e-06
5.51795e-06
5.51755e-06
5.51713e-06
5.51664e-06
5.51615e-06
5.51561e-06
5.51508e-06
5.51453e-06
5.514e-06
5.51348e-06
5.51302e-06
5.45838e-06
0
0
0
0
0
0
7.56792e-06
7.64194e-06
7.64166e-06
7.64129e-06
7.64093e-06
7.64049e-06
7.64008e-06
7.63961e-06
7.63918e-06
7.63872e-06
7.63829e-06
7.63786e-06
7.63748e-06
7.56291e-06
0
0
0
0
0
0
7.9922e-06
8.06862e-06
8.06841e-06
8.06811e-06
8.06782e-06
8.06745e-06
8.0671e-06
8.06668e-06
8.0663e-06
8.06586e-06
8.06545e-06
8.06502e-06
8.06461e-06
7.98764e-06
0
0
0
0
0
0
1.06604e-05
1.07633e-05
1.07635e-05
1.07637e-05
1.07639e-05
1.07641e-05
1.07644e-05
1.07646e-05
1.07649e-05
1.07652e-05
1.07655e-05
1.07658e-05
1.0766e-05
1.06634e-05
0
0
0
0
0
0
1.13259e-05
1.14339e-05
1.14343e-05
1.14347e-05
1.14352e-05
1.14356e-05
1.14362e-05
1.14367e-05
1.14372e-05
1.14377e-05
1.14382e-05
1.14387e-05
1.14391e-05
1.13317e-05
0
0
0
0
0
0
0
0
0
0
0
0
0
0
0
0
0
0
0
0
0
0
0
0
0
2.61147e-08
3.21217e-08
3.02786e-08
3.02688e-08
3.02758e-08
3.02837e-08
3.02921e-08
3.03011e-08
3.03184e-08
3.03198e-08
3.03291e-08
3.03384e-08
3.03473e-08
3.03702e-08
3.22335e-08
2.62255e-08
0
0
0
1.01796e-06
1.402e-06
1.40288e-06
1.40314e-06
1.40345e-06
1.40383e-06
1.40425e-06
1.40471e-06
1.4052e-06
1.40571e-06
1.40623e-06
1.40675e-06
1.40727e-06
1.40777e-06
1.40825e-06
1.40866e-06
1.40833e-06
1.02331e-06
0
0
0
1.1015e-09
1.15124e-09
1.16516e-09
1.18162e-09
1.20043e-09
1.22147e-09
1.2433e-09
1.26641e-09
1.28904e-09
1.31202e-09
1.33347e-09
1.35442e-09
1.37292e-09
1.39033e-09
1.40411e-09
1.37707e-09
0
0
0
0
0
0
0
0
0
0
0
0
0
0
0
0
0
0
0
0
0
0
0
0
0
0
0
0
0
0
0
0
0
0
0
0
0
0
0
0
0
0
0
0
0
5.60784e-06
5.66381e-06
5.66377e-06
5.66368e-06
5.6636e-06
5.66348e-06
5.66338e-06
5.66324e-06
5.66312e-06
5.66297e-06
5.66285e-06
5.66269e-06
5.66256e-06
5.6064e-06
0
0
0
0
0
0
5.75155e-06
5.81202e-06
5.81191e-06
5.81174e-06
5.81158e-06
5.81137e-06
5.81117e-06
5.81094e-06
5.81073e-06
5.8105e-06
5.81028e-06
5.81005e-06
5.80983e-06
5.74907e-06
0
0
0
0
0
0
4.64032e-06
4.68922e-06
4.68901e-06
4.68876e-06
4.68848e-06
4.68817e-06
4.68784e-06
4.68749e-06
4.68714e-06
4.68677e-06
4.68642e-06
4.68608e-06
4.68577e-06
4.63646e-06
0
0
0
0
0
0
4.7046e-06
4.75494e-06
4.75471e-06
4.75442e-06
4.75411e-06
4.75376e-06
4.7534e-06
4.75301e-06
4.75263e-06
4.75222e-06
4.75184e-06
4.75147e-06
4.75114e-06
4.70036e-06
0
0
0
0
0
0
3.78206e-06
3.82196e-06
3.82167e-06
3.82134e-06
3.82097e-06
3.82057e-06
3.82015e-06
3.8197e-06
3.81925e-06
3.81879e-06
3.81834e-06
3.8179e-06
3.81749e-06
3.77701e-06
0
0
0
0
0
0
3.72597e-06
3.76339e-06
3.7631e-06
3.76276e-06
3.76241e-06
3.762e-06
3.7616e-06
3.76116e-06
3.76072e-06
3.76026e-06
3.75983e-06
3.75939e-06
3.75899e-06
3.72097e-06
0
0
0
0
0
0
4.01229e-06
4.05296e-06
4.0527e-06
4.05238e-06
4.05206e-06
4.05168e-06
4.05131e-06
4.05089e-06
4.0505e-06
4.05008e-06
4.04969e-06
4.04931e-06
4.04899e-06
4.00784e-06
0
0
0
0
0
0
4.03864e-06
4.07935e-06
4.07912e-06
4.07884e-06
4.07854e-06
4.0782e-06
4.07786e-06
4.07747e-06
4.0771e-06
4.07671e-06
4.07634e-06
4.07598e-06
4.07569e-06
4.03456e-06
0
0
0
0
0
0
5.399e-06
5.45552e-06
5.45524e-06
5.45491e-06
5.45455e-06
5.45414e-06
5.45373e-06
5.45327e-06
5.45282e-06
5.45235e-06
5.45192e-06
5.45149e-06
5.45113e-06
5.39411e-06
0
0
0
0
0
0
5.58244e-06
5.64079e-06
5.64054e-06
5.64022e-06
5.63988e-06
5.63948e-06
5.63907e-06
5.63861e-06
5.63815e-06
5.63767e-06
5.63721e-06
5.63674e-06
5.63633e-06
5.57743e-06
0
0
0
0
0
0
7.46174e-06
7.53996e-06
7.53974e-06
7.53945e-06
7.53916e-06
7.53879e-06
7.53845e-06
7.53805e-06
7.53768e-06
7.53728e-06
7.53691e-06
7.53652e-06
7.53619e-06
7.45753e-06
0
0
0
0
0
0
7.71771e-06
7.79736e-06
7.79722e-06
7.79701e-06
7.79681e-06
7.79653e-06
7.79626e-06
7.79594e-06
7.79563e-06
7.79528e-06
7.79494e-06
7.79458e-06
7.79426e-06
7.71421e-06
0
0
0
0
0
0
9.71603e-06
9.81803e-06
9.81824e-06
9.81838e-06
9.81859e-06
9.81876e-06
9.819e-06
9.81921e-06
9.81949e-06
9.81972e-06
9.81999e-06
9.8202e-06
9.82039e-06
9.71865e-06
0
0
0
0
0
0
1.01378e-05
1.02425e-05
1.0243e-05
1.02433e-05
1.02438e-05
1.02442e-05
1.02447e-05
1.02451e-05
1.02456e-05
1.02461e-05
1.02465e-05
1.0247e-05
1.02473e-05
1.0143e-05
0
0
0
0
0
0
0
0
0
0
0
0
0
0
0
0
0
0
0
0
0
0
0
0
0
1.46041e-08
1.93425e-08
1.81978e-08
1.81955e-08
1.82005e-08
1.82061e-08
1.82121e-08
1.82186e-08
1.82279e-08
1.8232e-08
1.82387e-08
1.82454e-08
1.82516e-08
1.82618e-08
1.94213e-08
1.46826e-08
0
0
0
7.32642e-07
1.0543e-06
1.05586e-06
1.05604e-06
1.05626e-06
1.05653e-06
1.05684e-06
1.05717e-06
1.05753e-06
1.0579e-06
1.05829e-06
1.05867e-06
1.05905e-06
1.05941e-06
1.05975e-06
1.06004e-06
1.05886e-06
7.36445e-07
0
0
1.10274e-09
1.61656e-08
1.60434e-08
1.60546e-08
1.60677e-08
1.60828e-08
1.60999e-08
1.61178e-08
1.61369e-08
1.61558e-08
1.61752e-08
1.61935e-08
1.62115e-08
1.62273e-08
1.62423e-08
1.62539e-08
1.63954e-08
1.21781e-09
0
0
0
0
0
0
0
0
0
0
0
0
0
0
0
0
0
0
0
0
0
0
0
0
0
0
0
0
0
0
0
0
0
0
0
0
0
0
0
0
0
0
0
0
6.20287e-06
6.26679e-06
6.26675e-06
6.26667e-06
6.26659e-06
6.26647e-06
6.26637e-06
6.26624e-06
6.26612e-06
6.26597e-06
6.26584e-06
6.26569e-06
6.26555e-06
6.20144e-06
0
0
0
0
0
0
6.25825e-06
6.32587e-06
6.32577e-06
6.32562e-06
6.32546e-06
6.32527e-06
6.32509e-06
6.32487e-06
6.32467e-06
6.32444e-06
6.32423e-06
6.32401e-06
6.32379e-06
6.2559e-06
0
0
0
0
0
0
5.02583e-06
5.07994e-06
5.07977e-06
5.07956e-06
5.07933e-06
5.07907e-06
5.07879e-06
5.07848e-06
5.07818e-06
5.07785e-06
5.07754e-06
5.07723e-06
5.07696e-06
5.02249e-06
0
0
0
0
0
0
5.05178e-06
5.10729e-06
5.1071e-06
5.10686e-06
5.1066e-06
5.10631e-06
5.106e-06
5.10566e-06
5.10533e-06
5.10497e-06
5.10464e-06
5.10431e-06
5.10402e-06
5.04814e-06
0
0
0
0
0
0
4.13431e-06
4.18054e-06
4.18031e-06
4.18003e-06
4.17975e-06
4.17941e-06
4.17908e-06
4.1787e-06
4.17834e-06
4.17795e-06
4.17759e-06
4.17723e-06
4.17691e-06
4.13024e-06
0
0
0
0
0
0
4.07478e-06
4.11787e-06
4.11766e-06
4.11741e-06
4.11716e-06
4.11685e-06
4.11655e-06
4.11621e-06
4.11588e-06
4.11553e-06
4.1152e-06
4.11487e-06
4.11458e-06
4.07108e-06
0
0
0
0
0
0
4.37099e-06
4.41771e-06
4.4175e-06
4.41726e-06
4.417e-06
4.41669e-06
4.4164e-06
4.41605e-06
4.41573e-06
4.41537e-06
4.41506e-06
4.41474e-06
4.41449e-06
4.36742e-06
0
0
0
0
0
0
4.43707e-06
4.48453e-06
4.48435e-06
4.48413e-06
4.4839e-06
4.48362e-06
4.48334e-06
4.48302e-06
4.48272e-06
4.48239e-06
4.48209e-06
4.4818e-06
4.48157e-06
4.43379e-06
0
0
0
0
0
0
5.76259e-06
5.82514e-06
5.82492e-06
5.82465e-06
5.82436e-06
5.82401e-06
5.82366e-06
5.82326e-06
5.82288e-06
5.82247e-06
5.82209e-06
5.8217e-06
5.82138e-06
5.7584e-06
0
0
0
0
0
0
6.01373e-06
6.07899e-06
6.07879e-06
6.07854e-06
6.07827e-06
6.07794e-06
6.0776e-06
6.07721e-06
6.07683e-06
6.07641e-06
6.07602e-06
6.07562e-06
6.07528e-06
6.00957e-06
0
0
0
0
0
0
7.93523e-06
8.02179e-06
8.02163e-06
8.02139e-06
8.02116e-06
8.02086e-06
8.02058e-06
8.02024e-06
8.01993e-06
8.01957e-06
8.01925e-06
8.0189e-06
8.01861e-06
7.93167e-06
0
0
0
0
0
0
8.35021e-06
8.4408e-06
8.44072e-06
8.44057e-06
8.44042e-06
8.44022e-06
8.44002e-06
8.43977e-06
8.43953e-06
8.43924e-06
8.43898e-06
8.4387e-06
8.43845e-06
8.34757e-06
0
0
0
0
0
0
1.05737e-05
1.06906e-05
1.06907e-05
1.06908e-05
1.0691e-05
1.06911e-05
1.06913e-05
1.06915e-05
1.06917e-05
1.06918e-05
1.0692e-05
1.06921e-05
1.06923e-05
1.05755e-05
0
0
0
0
0
0
1.12085e-05
1.13313e-05
1.13315e-05
1.13318e-05
1.13322e-05
1.13326e-05
1.1333e-05
1.13335e-05
1.13339e-05
1.13343e-05
1.13347e-05
1.13351e-05
1.13355e-05
1.12133e-05
0
0
0
0
0
0
0
0
0
0
0
0
0
0
0
0
0
0
0
0
0
0
0
0
0
2.32621e-08
2.8828e-08
2.71052e-08
2.71015e-08
2.71055e-08
2.711e-08
2.71149e-08
2.71201e-08
2.71292e-08
2.71311e-08
2.71366e-08
2.71421e-08
2.71473e-08
2.71561e-08
2.88894e-08
2.3326e-08
0
0
3.80032e-09
8.94863e-07
1.24007e-06
1.24052e-06
1.24068e-06
1.24085e-06
1.24107e-06
1.24132e-06
1.2416e-06
1.24189e-06
1.2422e-06
1.24252e-06
1.24284e-06
1.24316e-06
1.24346e-06
1.24374e-06
1.24397e-06
1.24384e-06
8.98048e-07
4.44737e-09
0
0
0
0
0
0
0
0
0
0
0
0
0
0
0
0
0
0
0
0
0
0
0
0
0
0
0
0
0
0
0
0
0
0
0
0
0
0
0
0
0
0
0
0
0
0
0
0
0
0
0
0
0
0
0
0
0
0
0
0
0
0
0
6.02114e-06
6.08631e-06
6.08625e-06
6.08616e-06
6.08607e-06
6.08594e-06
6.08583e-06
6.08568e-06
6.08556e-06
6.0854e-06
6.08527e-06
6.08512e-06
6.08501e-06
6.01966e-06
0
0
0
0
0
0
6.13267e-06
6.20124e-06
6.20113e-06
6.20096e-06
6.2008e-06
6.2006e-06
6.2004e-06
6.20018e-06
6.19996e-06
6.19972e-06
6.19951e-06
6.19928e-06
6.19908e-06
6.13024e-06
0
0
0
0
0
0
5.09601e-06
5.15294e-06
5.1528e-06
5.15263e-06
5.15245e-06
5.15223e-06
5.152e-06
5.15175e-06
5.15149e-06
5.15122e-06
5.15096e-06
5.15071e-06
5.15049e-06
5.09329e-06
0
0
0
0
0
0
5.17225e-06
5.23112e-06
5.23096e-06
5.23076e-06
5.23056e-06
5.23031e-06
5.23005e-06
5.22977e-06
5.22949e-06
5.22919e-06
5.22891e-06
5.22863e-06
5.2284e-06
5.16924e-06
0
0
0
0
0
0
4.30464e-06
4.35479e-06
4.35461e-06
4.35439e-06
4.35417e-06
4.3539e-06
4.35364e-06
4.35334e-06
4.35305e-06
4.35274e-06
4.35245e-06
4.35217e-06
4.35193e-06
4.30145e-06
0
0
0
0
0
0
4.26242e-06
4.30934e-06
4.30919e-06
4.30901e-06
4.30883e-06
4.3086e-06
4.30839e-06
4.30813e-06
4.30789e-06
4.30762e-06
4.30738e-06
4.30714e-06
4.30696e-06
4.25978e-06
0
0
0
0
0
0
4.56371e-06
4.61464e-06
4.61449e-06
4.6143e-06
4.6141e-06
4.61385e-06
4.61361e-06
4.61332e-06
4.61306e-06
4.61276e-06
4.61251e-06
4.61225e-06
4.61205e-06
4.56084e-06
0
0
0
0
0
0
4.66692e-06
4.71967e-06
4.71953e-06
4.71935e-06
4.71916e-06
4.71893e-06
4.7187e-06
4.71843e-06
4.71817e-06
4.71788e-06
4.71764e-06
4.71738e-06
4.71719e-06
4.66418e-06
0
0
0
0
0
0
5.95932e-06
6.02682e-06
6.02666e-06
6.02644e-06
6.02622e-06
6.02593e-06
6.02566e-06
6.02532e-06
6.02501e-06
6.02466e-06
6.02434e-06
6.024e-06
6.02373e-06
5.95585e-06
0
0
0
0
0
0
6.23676e-06
6.30737e-06
6.30723e-06
6.30703e-06
6.30683e-06
6.30657e-06
6.30632e-06
6.30601e-06
6.30571e-06
6.30537e-06
6.30507e-06
6.30475e-06
6.30448e-06
6.23352e-06
0
0
0
0
0
0
7.95394e-06
8.04667e-06
8.04657e-06
8.0464e-06
8.04623e-06
8.046e-06
8.04578e-06
8.04549e-06
8.04523e-06
8.04492e-06
8.04463e-06
8.0443e-06
8.04402e-06
7.95094e-06
0
0
0
0
0
0
8.3126e-06
8.40954e-06
8.40952e-06
8.40943e-06
8.40936e-06
8.40922e-06
8.4091e-06
8.40892e-06
8.40876e-06
8.40855e-06
8.40837e-06
8.40815e-06
8.40797e-06
8.31083e-06
0
0
0
0
0
0
1.01047e-05
1.02244e-05
1.02245e-05
1.02246e-05
1.02248e-05
1.02249e-05
1.0225e-05
1.02251e-05
1.02252e-05
1.02253e-05
1.02254e-05
1.02254e-05
1.02254e-05
1.01058e-05
0
0
0
0
0
0
1.05817e-05
1.07067e-05
1.07071e-05
1.07073e-05
1.07077e-05
1.0708e-05
1.07084e-05
1.07087e-05
1.07091e-05
1.07095e-05
1.07099e-05
1.07102e-05
1.07104e-05
1.05859e-05
0
0
0
0
0
0
0
0
0
0
0
0
0
0
0
0
0
0
0
0
0
0
0
0
0
1.52964e-08
2.01572e-08
1.87781e-08
1.87716e-08
1.87745e-08
1.87778e-08
1.87815e-08
1.87853e-08
1.87917e-08
1.87933e-08
1.87972e-08
1.88009e-08
1.88042e-08
1.88131e-08
2.01903e-08
1.53406e-08
0
0
0
7.08268e-07
1.02394e-06
1.02566e-06
1.02577e-06
1.0259e-06
1.02606e-06
1.02625e-06
1.02645e-06
1.02666e-06
1.02689e-06
1.02712e-06
1.02734e-06
1.02756e-06
1.02777e-06
1.02796e-06
1.02811e-06
1.02661e-06
7.10508e-07
0
0
0
0
0
0
0
0
0
0
0
0
0
0
0
0
0
0
0
0
0
0
0
0
0
0
0
0
0
0
0
0
0
0
0
0
0
0
0
0
0
0
0
0
0
0
0
0
0
0
0
0
0
0
0
0
0
0
0
0
0
0
0
0
6.28992e-06
6.36009e-06
6.36001e-06
6.35991e-06
6.35981e-06
6.35967e-06
6.35954e-06
6.35938e-06
6.35925e-06
6.35908e-06
6.35894e-06
6.35879e-06
6.35871e-06
6.28835e-06
0
0
0
0
0
0
6.37122e-06
6.44433e-06
6.44421e-06
6.44404e-06
6.44387e-06
6.44366e-06
6.44345e-06
6.44322e-06
6.443e-06
6.44275e-06
6.44253e-06
6.44231e-06
6.44213e-06
6.36878e-06
0
0
0
0
0
0
5.32047e-06
5.38151e-06
5.38139e-06
5.38123e-06
5.38107e-06
5.38087e-06
5.38067e-06
5.38044e-06
5.38021e-06
5.37997e-06
5.37975e-06
5.37953e-06
5.37936e-06
5.31809e-06
0
0
0
0
0
0
5.38681e-06
5.45021e-06
5.45009e-06
5.44991e-06
5.44974e-06
5.44952e-06
5.44931e-06
5.44905e-06
5.44882e-06
5.44855e-06
5.44832e-06
5.4481e-06
5.44792e-06
5.38428e-06
0
0
0
0
0
0
4.51661e-06
4.57067e-06
4.57054e-06
4.57036e-06
4.57018e-06
4.56996e-06
4.56975e-06
4.5695e-06
4.56927e-06
4.56902e-06
4.5688e-06
4.56857e-06
4.5684e-06
4.51406e-06
0
0
0
0
0
0
4.48202e-06
4.53271e-06