/*--------------------------------*- C++ -*----------------------------------*\
| =========                 |                                                 |
| \\      /  F ield         | OpenFOAM: The Open Source CFD Toolbox           |
|  \\    /   O peration     | Version:  2212                                  |
|   \\  /    A nd           | Website:  www.openfoam.com                      |
|    \\/     M anipulation  |                                                 |
\*---------------------------------------------------------------------------*/
FoamFile
{
    version     2.0;
    format      ascii;
    arch        "LSB;label=32;scalar=64";
    class       surfaceScalarField;
    location    "0.316";
    object      phi;
}
// * * * * * * * * * * * * * * * * * * * * * * * * * * * * * * * * * * * * * //

dimensions      [0 3 -1 0 0 0 0];

oriented        oriented;

internalField   nonuniform List<scalar> 
69808
(
1.11139e-07
-0.000727404
-1.84921
6.13378e-08
-0.000727209
-1.84926
1.17596e-07
-0.000727444
-1.84926
1.30631e-07
-0.000727609
-1.84926
1.65295e-07
-0.000727866
-1.84926
1.79572e-07
-0.000728143
-1.84926
1.92518e-07
-0.000728467
-1.84926
1.93461e-07
-0.00072881
-1.84926
1.88495e-07
-0.000729172
-1.84926
1.75705e-07
-0.000729539
-1.84926
1.57578e-07
-0.000729904
-1.84926
1.35926e-07
-0.000730259
-1.84926
1.10146e-07
-0.000730593
-1.84926
8.75615e-08
-0.000730906
-1.84926
5.9673e-08
-0.000731184
-1.84926
4.66136e-08
-0.000731439
-1.84926
1.0404e-08
-0.000731633
-1.84926
1.28403e-08
-0.000731825
-1.84926
-9.52256e-08
-0.000731842
-1.84926
-0.000732178
-1.84921
-2.22008e-07
0.000555221
-1.84795
-3.21234e-07
0.00055547
-1.84799
-4.3476e-07
0.000555185
-1.84799
-5.447e-07
0.000554897
-1.84799
-6.31566e-07
0.000554486
-1.84799
-7.00454e-07
0.000554033
-1.84799
-7.4546e-07
0.000553515
-1.84799
-7.70323e-07
0.000552972
-1.84799
-7.7397e-07
0.000552408
-1.84799
-7.58661e-07
0.000551844
-1.84799
-7.26895e-07
0.000551294
-1.84799
-6.8052e-07
0.00055077
-1.84799
-6.2227e-07
0.000550285
-1.84799
-5.54153e-07
0.000549842
-1.84799
-4.79954e-07
0.000549457
-1.84799
-3.97478e-07
0.000549116
-1.84799
-3.10469e-07
0.000548855
-1.84799
-2.06052e-07
0.000548618
-1.84799
-5.71624e-08
0.00054853
-1.84799
0.000548093
-1.84795
1.20273e-07
0.00119815
-1.85367
3.6082e-07
0.00119855
-1.85371
5.50981e-07
0.00119842
-1.85371
7.23481e-07
0.0011983
-1.85371
8.6802e-07
0.00119813
-1.85371
9.74404e-07
0.00119794
-1.85371
1.04761e-06
0.00119773
-1.85371
1.08492e-06
0.0011975
-1.85371
1.08916e-06
0.00119726
-1.85371
1.06222e-06
0.00119702
-1.85371
1.00733e-06
0.00119678
-1.85371
9.28822e-07
0.00119655
-1.85371
8.30473e-07
0.00119632
-1.85371
7.2052e-07
0.0011961
-1.85371
6.03811e-07
0.0011959
-1.85371
4.92122e-07
0.00119571
-1.85371
3.81342e-07
0.00119556
-1.85371
2.65271e-07
0.00119542
-1.85371
1.81004e-07
0.00119536
-1.85371
0.00119485
-1.85367
-2.4806e-07
0.00651841
-1.84855
-3.99806e-07
0.00651892
-1.84859
-5.52834e-07
0.00651885
-1.84859
-7.05895e-07
0.00651879
-1.84859
-8.3661e-07
0.00651868
-1.84859
-9.36143e-07
0.00651858
-1.84859
-1.00673e-06
0.00651845
-1.8486
-1.04737e-06
0.00651832
-1.8486
-1.05928e-06
0.00651818
-1.8486
-1.04537e-06
0.00651803
-1.8486
-1.00602e-06
0.00651789
-1.8486
-9.46262e-07
0.00651774
-1.8486
-8.6636e-07
0.0065176
-1.8486
-7.73823e-07
0.00651747
-1.8486
-6.69226e-07
0.00651734
-1.8486
-5.60762e-07
0.00651722
-1.8486
-4.41038e-07
0.00651713
-1.8486
-2.89858e-07
0.00651703
-1.8486
-1.10184e-07
0.00651699
-1.8486
0.00651641
-1.84856
9.54665e-08
0.0114974
-1.85307
2.87201e-07
0.0114981
-1.85311
4.54109e-07
0.0114981
-1.85311
5.84342e-07
0.0114982
-1.85311
6.89656e-07
0.0114982
-1.85311
7.725e-07
0.0114983
-1.85311
8.28389e-07
0.0114984
-1.85311
8.57316e-07
0.0114985
-1.85311
8.60163e-07
0.0114986
-1.85311
8.38471e-07
0.0114987
-1.85311
7.94944e-07
0.0114988
-1.85311
7.32649e-07
0.0114989
-1.85311
6.56381e-07
0.011499
-1.85311
5.69857e-07
0.0114991
-1.85311
4.78247e-07
0.0114991
-1.85311
3.81602e-07
0.0114991
-1.85311
2.87569e-07
0.0114991
-1.85311
2.10579e-07
0.0114991
-1.85311
1.47357e-07
0.0114991
-1.85311
0.0114985
-1.85307
-2.60728e-07
0.0203327
-1.84846
-4.53366e-07
0.0203335
-1.8485
-6.39472e-07
0.0203334
-1.8485
-8.03639e-07
0.0203333
-1.8485
-9.41503e-07
0.0203333
-1.8485
-1.05147e-06
0.0203332
-1.8485
-1.12882e-06
0.0203331
-1.8485
-1.17388e-06
0.0203329
-1.8485
-1.18592e-06
0.0203328
-1.8485
-1.16724e-06
0.0203327
-1.8485
-1.11925e-06
0.0203326
-1.8485
-1.04558e-06
0.0203324
-1.8485
-9.49798e-07
0.0203323
-1.8485
-8.36528e-07
0.0203322
-1.8485
-7.1031e-07
0.0203321
-1.8485
-5.73713e-07
0.020332
-1.8485
-4.29426e-07
0.020332
-1.8485
-2.76504e-07
0.0203319
-1.8485
-1.06406e-07
0.0203319
-1.84851
0.0203311
-1.84846
-6.88234e-08
0.0288229
-1.85081
-5.01978e-08
0.0288237
-1.85085
-3.74686e-08
0.0288237
-1.85085
-4.11643e-08
0.0288236
-1.85085
-4.65292e-08
0.0288235
-1.85086
-5.28437e-08
0.0288234
-1.85086
-5.97055e-08
0.0288233
-1.85086
-6.65363e-08
0.0288232
-1.85086
-7.26401e-08
0.028823
-1.85086
-7.73068e-08
0.0288229
-1.85086
-7.95873e-08
0.0288228
-1.85086
-7.8277e-08
0.0288226
-1.85086
-7.35874e-08
0.0288225
-1.85086
-6.48209e-08
0.0288224
-1.85086
-5.33282e-08
0.0288223
-1.85086
-3.87845e-08
0.0288222
-1.85086
-2.22007e-08
0.0288222
-1.85086
1.19229e-08
0.0288221
-1.85086
5.21922e-08
0.0288221
-1.85086
0.0288213
-1.85081
-2.1526e-07
0.0395359
-1.84906
-3.71202e-07
0.0395368
-1.8491
-5.2004e-07
0.0395366
-1.8491
-6.51863e-07
0.0395364
-1.8491
-7.6388e-07
0.0395361
-1.8491
-8.54511e-07
0.0395357
-1.8491
-9.19613e-07
0.0395353
-1.8491
-9.5864e-07
0.0395349
-1.8491
-9.70224e-07
0.0395344
-1.8491
-9.55182e-07
0.0395339
-1.8491
-9.14224e-07
0.0395335
-1.8491
-8.49752e-07
0.0395331
-1.8491
-7.64885e-07
0.0395327
-1.8491
-6.63714e-07
0.0395323
-1.8491
-5.51426e-07
0.0395321
-1.8491
-4.31431e-07
0.0395319
-1.8491
-3.07736e-07
0.0395317
-1.8491
-1.81562e-07
0.0395316
-1.8491
-5.39027e-08
0.0395316
-1.8491
0.0395306
-1.84906
-1.42014e-07
0.043188
-1.84307
-2.08228e-07
0.0431888
-1.84311
-2.7417e-07
0.0431886
-1.84311
-3.39195e-07
0.0431883
-1.84311
-3.96632e-07
0.0431879
-1.84311
-4.44587e-07
0.0431874
-1.84311
-4.80888e-07
0.0431868
-1.84311
-5.04565e-07
0.0431863
-1.84311
-5.14462e-07
0.0431857
-1.84311
-5.10222e-07
0.043185
-1.84311
-4.91874e-07
0.0431844
-1.84311
-4.59907e-07
0.0431839
-1.84311
-4.15638e-07
0.0431834
-1.84311
-3.60576e-07
0.0431829
-1.84311
-2.97526e-07
0.0431826
-1.84311
-2.27939e-07
0.0431823
-1.84311
-1.54511e-07
0.0431821
-1.84311
-7.20285e-08
0.043182
-1.84311
1.10342e-08
0.043182
-1.84311
0.0431811
-1.84307
-2.7374e-08
0.0471341
-1.84518
1.08208e-08
0.0471349
-1.84522
4.54561e-08
0.0471348
-1.84522
6.91142e-08
0.0471345
-1.84522
8.82646e-08
0.0471342
-1.84522
1.00867e-07
0.0471339
-1.84522
1.08989e-07
0.0471335
-1.84522
1.12219e-07
0.0471331
-1.84522
1.11689e-07
0.0471326
-1.84522
1.08293e-07
0.0471322
-1.84522
1.02646e-07
0.0471317
-1.84522
9.61297e-08
0.0471313
-1.84522
8.88527e-08
0.047131
-1.84522
8.27362e-08
0.0471307
-1.84522
7.69585e-08
0.0471305
-1.84521
7.4782e-08
0.0471303
-1.84521
7.23573e-08
0.0471302
-1.84521
7.4019e-08
0.0471301
-1.84521
7.41877e-08
0.0471301
-1.84521
0.0471293
-1.84517
-3.04507e-07
0.0511283
-1.84443
-5.4361e-07
0.0511289
-1.84447
-7.68335e-07
0.0511285
-1.84447
-9.67129e-07
0.051128
-1.84447
-1.13756e-06
0.0511274
-1.84447
-1.27422e-06
0.0511266
-1.84447
-1.37278e-06
0.0511258
-1.84447
-1.43064e-06
0.0511248
-1.84447
-1.44629e-06
0.0511239
-1.84447
-1.42027e-06
0.0511229
-1.84447
-1.35403e-06
0.051122
-1.84447
-1.25152e-06
0.0511211
-1.84447
-1.11775e-06
0.0511204
-1.84447
-9.60301e-07
0.0511197
-1.84447
-7.87486e-07
0.0511192
-1.84447
-6.0648e-07
0.0511188
-1.84447
-4.22659e-07
0.0511185
-1.84447
-2.37857e-07
0.0511184
-1.84447
-6.52537e-08
0.0511184
-1.84447
0.0511177
-1.84442
1.14112e-07
0.0533721
-1.85081
3.10943e-07
0.0533728
-1.85085
4.87752e-07
0.0533726
-1.85085
6.31604e-07
0.0533724
-1.85085
7.50392e-07
0.0533721
-1.85085
8.42136e-07
0.0533718
-1.85085
9.05061e-07
0.0533714
-1.85085
9.3908e-07
0.053371
-1.85085
9.44362e-07
0.0533706
-1.85085
9.23098e-07
0.0533702
-1.85085
8.77146e-07
0.0533698
-1.85085
8.1072e-07
0.0533694
-1.85084
7.27127e-07
0.0533691
-1.85084
6.32564e-07
0.0533688
-1.85084
5.31379e-07
0.0533686
-1.85084
4.29392e-07
0.0533685
-1.85084
3.28338e-07
0.0533685
-1.85084
2.37854e-07
0.0533685
-1.85084
1.55915e-07
0.0533685
-1.85084
0.0533679
-1.8508
-4.06634e-07
0.0558561
-1.84818
-7.4814e-07
0.0558566
-1.84823
-1.06922e-06
0.0558562
-1.84823
-1.34594e-06
0.0558555
-1.84823
-1.58343e-06
0.0558548
-1.84823
-1.77448e-06
0.0558538
-1.84822
-1.91182e-06
0.0558528
-1.84822
-1.99128e-06
0.0558517
-1.84822
-2.01096e-06
0.0558506
-1.84822
-1.97157e-06
0.0558495
-1.84822
-1.87574e-06
0.0558484
-1.84822
-1.72962e-06
0.0558473
-1.84822
-1.54109e-06
0.0558464
-1.84822
-1.32214e-06
0.0558457
-1.84822
-1.08473e-06
0.0558451
-1.84822
-8.36852e-07
0.0558447
-1.84822
-5.86475e-07
0.0558445
-1.84822
-3.43471e-07
0.0558444
-1.84822
-1.14665e-07
0.0558445
-1.84822
0.055844
-1.84818
2.23313e-07
0.0545602
-1.85816
5.49188e-07
0.0545607
-1.8582
8.40114e-07
0.0545606
-1.8582
1.07385e-06
0.0545604
-1.8582
1.26724e-06
0.0545601
-1.8582
1.42044e-06
0.0545598
-1.8582
1.52622e-06
0.0545595
-1.8582
1.58436e-06
0.0545592
-1.8582
1.59351e-06
0.0545588
-1.8582
1.55642e-06
0.0545584
-1.8582
1.47561e-06
0.0545581
-1.8582
1.35728e-06
0.0545578
-1.85819
1.20763e-06
0.0545575
-1.85819
1.03616e-06
0.0545574
-1.85819
8.52773e-07
0.0545572
-1.85819
6.64573e-07
0.0545572
-1.85819
4.80789e-07
0.0545572
-1.85819
3.25037e-07
0.0545573
-1.85819
1.95352e-07
0.0545574
-1.85819
0.054557
-1.85815
-4.63998e-07
0.053498
-1.85321
-8.57945e-07
0.0534983
-1.85326
-1.23238e-06
0.0534979
-1.85326
-1.54928e-06
0.0534972
-1.85326
-1.82146e-06
0.0534965
-1.85326
-2.04358e-06
0.0534955
-1.85326
-2.20333e-06
0.0534945
-1.85326
-2.29492e-06
0.0534934
-1.85326
-2.31707e-06
0.0534923
-1.85326
-2.27014e-06
0.0534911
-1.85325
-2.15848e-06
0.0534901
-1.85325
-1.98991e-06
0.0534891
-1.85325
-1.77523e-06
0.0534882
-1.85325
-1.52911e-06
0.0534875
-1.85325
-1.26477e-06
0.053487
-1.85325
-9.85867e-07
0.0534867
-1.85325
-7.01694e-07
0.0534865
-1.85325
-4.25257e-07
0.0534865
-1.85325
-1.51737e-07
0.0534866
-1.85325
0.0534864
-1.85321
3.00879e-07
0.0467856
-1.86456
7.2734e-07
0.0467859
-1.8646
1.09881e-06
0.0467858
-1.8646
1.38536e-06
0.0467856
-1.8646
1.62188e-06
0.0467855
-1.8646
1.81577e-06
0.0467853
-1.8646
1.94994e-06
0.046785
-1.8646
2.02253e-06
0.0467848
-1.8646
2.03111e-06
0.0467845
-1.8646
1.9778e-06
0.0467843
-1.8646
1.86575e-06
0.0467841
-1.86459
1.70288e-06
0.0467839
-1.86459
1.49809e-06
0.0467837
-1.86459
1.26497e-06
0.0467837
-1.86459
1.01846e-06
0.0467836
-1.86459
7.62454e-07
0.0467837
-1.86459
5.2105e-07
0.0467838
-1.86459
3.36193e-07
0.0467839
-1.86459
1.96957e-07
0.046784
-1.86459
0.0467839
-1.86455
-4.22501e-07
0.0402704
-1.85686
-7.55939e-07
0.0402705
-1.8569
-1.08313e-06
0.0402702
-1.8569
-1.41773e-06
0.0402698
-1.8569
-1.7066e-06
0.0402691
-1.8569
-1.92622e-06
0.0402684
-1.8569
-2.08363e-06
0.0402676
-1.8569
-2.17306e-06
0.0402667
-1.8569
-2.19585e-06
0.0402657
-1.8569
-2.15359e-06
0.0402648
-1.8569
-2.0517e-06
0.040264
-1.8569
-1.89883e-06
0.0402632
-1.8569
-1.7064e-06
0.0402626
-1.8569
-1.49033e-06
0.0402621
-1.8569
-1.26133e-06
0.0402617
-1.8569
-1.03865e-06
0.0402616
-1.8569
-8.05199e-07
0.0402615
-1.8569
-5.08962e-07
0.0402615
-1.8569
-1.97962e-07
0.0402616
-1.8569
0.0402616
-1.85685
3.23867e-07
0.0273572
-1.866
7.4162e-07
0.0273574
-1.86604
1.06165e-06
0.0273576
-1.86604
1.36317e-06
0.0273576
-1.86604
1.62365e-06
0.0273575
-1.86604
1.81742e-06
0.0273575
-1.86604
1.95351e-06
0.0273574
-1.86604
2.0205e-06
0.0273574
-1.86604
2.02071e-06
0.0273573
-1.86604
1.95382e-06
0.0273573
-1.86603
1.82433e-06
0.0273572
-1.86603
1.64187e-06
0.0273572
-1.86603
1.41601e-06
0.0273573
-1.86603
1.16891e-06
0.0273573
-1.86603
9.10988e-07
0.0273574
-1.86603
6.74988e-07
0.0273576
-1.86603
4.5331e-07
0.0273577
-1.86603
2.32061e-07
0.0273579
-1.86603
1.15025e-07
0.0273579
-1.86603
0.0273578
-1.86599
-1.56986e-07
0.0150619
-1.85543
-3.17941e-07
0.0150622
-1.85547
-5.46372e-07
0.0150624
-1.85547
-7.402e-07
0.0150622
-1.85547
-8.94951e-07
0.0150619
-1.85547
-1.02135e-06
0.0150616
-1.85547
-1.11151e-06
0.0150613
-1.85547
-1.17057e-06
0.0150609
-1.85547
-1.19612e-06
0.0150605
-1.85547
-1.19119e-06
0.0150602
-1.85547
-1.15811e-06
0.0150598
-1.85547
-1.10036e-06
0.0150595
-1.85547
-1.02518e-06
0.0150593
-1.85547
-9.34369e-07
0.0150591
-1.85547
-8.3906e-07
0.015059
-1.85547
-7.32198e-07
0.015059
-1.85547
-6.16568e-07
0.015059
-1.85547
-4.83958e-07
0.0150591
-1.85547
-2.51354e-07
0.0150589
-1.85547
0.0150587
-1.85542
6.12846e-07
-1.86022
5.69653e-07
-1.86026
6.06632e-07
-1.86025
6.59313e-07
-1.86025
7.57448e-07
-1.86025
8.25556e-07
-1.86025
8.77602e-07
-1.86025
8.92457e-07
-1.86025
8.73944e-07
-1.86025
8.17853e-07
-1.86025
7.26546e-07
-1.86025
6.06736e-07
-1.86025
4.62924e-07
-1.86025
3.14207e-07
-1.86025
1.58777e-07
-1.86025
2.581e-08
-1.86025
-1.41763e-07
-1.86025
-3.16169e-07
-1.86025
-5.42804e-07
-1.86025
-1.86021
5.51617e-08
0.0027851
-1.852
2.83519e-08
0.00278522
-1.85204
9.35996e-08
0.00278512
-1.85204
1.1976e-07
0.00278515
-1.85204
1.65048e-07
0.00278514
-1.85204
1.88191e-07
0.00278515
-1.85204
2.09318e-07
0.00278516
-1.85204
2.16924e-07
0.00278517
-1.85204
2.17327e-07
0.00278518
-1.85204
2.08505e-07
0.00278518
-1.85204
1.92183e-07
0.00278518
-1.85204
1.71425e-07
0.00278518
-1.85204
1.44199e-07
0.00278517
-1.85204
1.20864e-07
0.00278515
-1.85204
9.30317e-08
0.00278513
-1.85204
8.21413e-08
0.00278509
-1.85204
4.9962e-08
0.00278507
-1.85204
5.06292e-08
0.00278501
-1.85204
-3.57132e-08
0.00278508
-1.85204
0.00278493
-1.852
-2.87319e-07
0.00644151
-1.8516
-4.35842e-07
0.00644169
-1.85164
-6.03327e-07
0.00644161
-1.85164
-7.50009e-07
0.00644162
-1.85164
-8.7143e-07
0.00644157
-1.85164
-9.69573e-07
0.00644155
-1.85164
-1.03659e-06
0.00644151
-1.85164
-1.07695e-06
0.00644147
-1.85164
-1.08872e-06
0.00644141
-1.85164
-1.07532e-06
0.00644136
-1.85164
-1.03845e-06
0.0064413
-1.85164
-9.80009e-07
0.00644123
-1.85164
-9.0452e-07
0.00644115
-1.85164
-8.11196e-07
0.00644107
-1.85164
-7.07686e-07
0.00644099
-1.85164
-5.87202e-07
0.00644089
-1.85164
-4.55579e-07
0.00644083
-1.85165
-3.06289e-07
0.00644073
-1.85165
-1.06891e-07
0.00644073
-1.85165
0.00644048
-1.8516
1.58403e-07
0.00976891
-1.857
4.19142e-07
0.0097692
-1.85704
6.32853e-07
0.00976918
-1.85704
8.55361e-07
0.00976919
-1.85704
1.04318e-06
0.0097692
-1.85704
1.18705e-06
0.00976925
-1.85704
1.28984e-06
0.00976929
-1.85704
1.35114e-06
0.00976933
-1.85704
1.37146e-06
0.00976936
-1.85704
1.35299e-06
0.0097694
-1.85704
1.29815e-06
0.00976943
-1.85704
1.21249e-06
0.00976945
-1.85704
1.10133e-06
0.00976946
-1.85704
9.72238e-07
0.00976945
-1.85704
8.33643e-07
0.00976944
-1.85704
6.97167e-07
0.00976938
-1.85704
5.60279e-07
0.00976936
-1.85704
3.81872e-07
0.00976933
-1.85704
2.30838e-07
0.00976933
-1.85704
0.00976899
-1.857
-3.46763e-07
0.0144742
-1.85326
-6.12589e-07
0.0144746
-1.8533
-8.71264e-07
0.0144746
-1.8533
-1.11918e-06
0.0144745
-1.8533
-1.33155e-06
0.0144745
-1.8533
-1.49176e-06
0.0144744
-1.8533
-1.60751e-06
0.0144743
-1.8533
-1.67605e-06
0.0144742
-1.8533
-1.69979e-06
0.0144741
-1.8533
-1.68191e-06
0.014474
-1.8533
-1.62304e-06
0.0144739
-1.8533
-1.53123e-06
0.0144738
-1.8533
-1.40641e-06
0.0144737
-1.8533
-1.26072e-06
0.0144736
-1.8533
-1.09264e-06
0.0144735
-1.8533
-9.20235e-07
0.0144734
-1.8533
-7.27559e-07
0.0144733
-1.8533
-4.92846e-07
0.0144732
-1.8533
-2.20939e-07
0.0144732
-1.8533
0.0144728
-1.85326
1.18484e-07
0.0189646
-1.85756
3.12117e-07
0.0189651
-1.8576
4.87047e-07
0.0189652
-1.8576
6.28996e-07
0.0189654
-1.8576
7.46973e-07
0.0189656
-1.8576
8.42939e-07
0.0189658
-1.8576
9.10986e-07
0.018966
-1.8576
9.49041e-07
0.0189662
-1.8576
9.58606e-07
0.0189665
-1.8576
9.40606e-07
0.0189667
-1.8576
8.98108e-07
0.0189669
-1.8576
8.34393e-07
0.0189671
-1.8576
7.53945e-07
0.0189673
-1.8576
6.62446e-07
0.0189675
-1.8576
5.62544e-07
0.0189676
-1.85761
4.5504e-07
0.0189677
-1.85761
3.46139e-07
0.0189678
-1.85761
2.48611e-07
0.0189678
-1.85761
1.60838e-07
0.0189679
-1.85761
0.0189674
-1.85756
-3.37651e-07
0.0251288
-1.85462
-6.30362e-07
0.0251294
-1.85466
-9.05267e-07
0.0251293
-1.85466
-1.13624e-06
0.0251293
-1.85466
-1.33024e-06
0.0251293
-1.85466
-1.48537e-06
0.0251293
-1.85466
-1.59535e-06
0.0251292
-1.85466
-1.65992e-06
0.0251292
-1.85466
-1.67864e-06
0.0251291
-1.85466
-1.65447e-06
0.025129
-1.85466
-1.58963e-06
0.025129
-1.85466
-1.48898e-06
0.0251289
-1.85467
-1.3572e-06
0.0251288
-1.85467
-1.20055e-06
0.0251288
-1.85467
-1.02432e-06
0.0251287
-1.85467
-8.31424e-07
0.0251287
-1.85467
-6.24661e-07
0.0251287
-1.85467
-4.16001e-07
0.0251286
-1.85467
-1.87041e-07
0.0251286
-1.85467
0.025128
-1.85462
-9.72323e-08
0.0311547
-1.85684
-1.25858e-07
0.0311554
-1.85688
-1.53853e-07
0.0311554
-1.85688
-1.868e-07
0.0311553
-1.85688
-2.16975e-07
0.0311553
-1.85688
-2.41058e-07
0.0311552
-1.85688
-2.59768e-07
0.0311551
-1.85688
-2.72579e-07
0.031155
-1.85688
-2.7853e-07
0.0311549
-1.85688
-2.77252e-07
0.0311548
-1.85688
-2.68398e-07
0.0311547
-1.85688
-2.51878e-07
0.0311547
-1.85688
-2.28299e-07
0.0311546
-1.85688
-1.9807e-07
0.0311545
-1.85688
-1.63294e-07
0.0311544
-1.85688
-1.26181e-07
0.0311544
-1.85688
-8.63019e-08
0.0311544
-1.85688
-3.4366e-08
0.0311543
-1.85688
2.19441e-08
0.0311544
-1.85688
0.0311536
-1.85684
-2.53311e-07
0.0382893
-1.85619
-4.6754e-07
0.0382901
-1.85624
-6.67594e-07
0.03829
-1.85624
-8.34068e-07
0.0382899
-1.85624
-9.76529e-07
0.0382897
-1.85624
-1.09273e-06
0.0382895
-1.85624
-1.17741e-06
0.0382893
-1.85624
-1.22883e-06
0.0382891
-1.85624
-1.2456e-06
0.0382888
-1.85624
-1.22812e-06
0.0382886
-1.85624
-1.17769e-06
0.0382884
-1.85624
-1.09724e-06
0.0382881
-1.85624
-9.90936e-07
0.0382879
-1.85624
-8.63855e-07
0.0382878
-1.85624
-7.22045e-07
0.0382877
-1.85624
-5.68521e-07
0.0382876
-1.85624
-4.07924e-07
0.0382875
-1.85624
-2.54443e-07
0.0382875
-1.85624
-9.93453e-08
0.0382875
-1.85624
0.0382867
-1.85619
-1.68999e-07
0.0387107
-1.84349
-2.81407e-07
0.0387114
-1.84353
-3.86974e-07
0.0387112
-1.84353
-4.79065e-07
0.038711
-1.84353
-5.59683e-07
0.0387107
-1.84353
-6.25998e-07
0.0387103
-1.84353
-6.75469e-07
0.03871
-1.84353
-7.06275e-07
0.0387096
-1.84353
-7.17107e-07
0.0387091
-1.84353
-7.07481e-07
0.0387087
-1.84353
-6.78153e-07
0.0387083
-1.84353
-6.30342e-07
0.0387079
-1.84353
-5.66708e-07
0.0387076
-1.84353
-4.89934e-07
0.0387073
-1.84353
-4.04117e-07
0.0387071
-1.84353
-3.11142e-07
0.0387069
-1.84353
-2.15637e-07
0.0387068
-1.84353
-1.15892e-07
0.0387067
-1.84353
-1.94125e-08
0.0387067
-1.84353
0.038706
-1.84349
4.56009e-08
0.039161
-1.84563
1.39822e-07
0.0391616
-1.84567
2.28069e-07
0.0391616
-1.84567
3.09193e-07
0.0391614
-1.84567
3.77141e-07
0.0391613
-1.84567
4.29119e-07
0.0391611
-1.84567
4.66196e-07
0.0391609
-1.84567
4.88326e-07
0.0391607
-1.84567
4.96821e-07
0.0391604
-1.84567
4.9316e-07
0.0391602
-1.84567
4.78535e-07
0.03916
-1.84567
4.55116e-07
0.0391598
-1.84567
4.23727e-07
0.0391596
-1.84567
3.87489e-07
0.0391595
-1.84567
3.46846e-07
0.0391594
-1.84567
3.05061e-07
0.0391593
-1.84567
2.59192e-07
0.0391593
-1.84567
2.00058e-07
0.0391593
-1.84567
1.29553e-07
0.0391594
-1.84567
0.0391587
-1.84562
-2.81312e-07
0.0395398
-1.84481
-5.2089e-07
0.0395404
-1.84485
-7.45198e-07
0.0395402
-1.84485
-9.3234e-07
0.0395399
-1.84485
-1.09524e-06
0.0395396
-1.84485
-1.22749e-06
0.0395392
-1.84485
-1.32483e-06
0.0395387
-1.84485
-1.38312e-06
0.0395383
-1.84485
-1.40082e-06
0.0395378
-1.84485
-1.37785e-06
0.0395373
-1.84485
-1.31604e-06
0.0395369
-1.84485
-1.21957e-06
0.0395365
-1.84485
-1.09372e-06
0.0395361
-1.84485
-9.45916e-07
0.0395358
-1.84484
-7.83178e-07
0.0395356
-1.84484
-6.10267e-07
0.0395355
-1.84484
-4.30571e-07
0.0395354
-1.84484
-2.58979e-07
0.0395354
-1.84484
-9.46672e-08
0.0395354
-1.84484
0.0395349
-1.8448
2.36699e-07
0.0387939
-1.85006
5.34203e-07
0.0387945
-1.8501
8.09268e-07
0.0387944
-1.8501
1.04786e-06
0.0387943
-1.8501
1.24821e-06
0.0387942
-1.8501
1.40709e-06
0.0387941
-1.8501
1.52069e-06
0.0387939
-1.8501
1.58883e-06
0.0387938
-1.8501
1.61188e-06
0.0387936
-1.8501
1.59267e-06
0.0387935
-1.8501
1.53406e-06
0.0387934
-1.8501
1.44116e-06
0.0387933
-1.8501
1.31842e-06
0.0387932
-1.8501
1.1729e-06
0.0387931
-1.8501
1.01045e-06
0.0387931
-1.8501
8.36336e-07
0.0387931
-1.8501
6.53146e-07
0.0387932
-1.8501
4.64293e-07
0.0387932
-1.8501
2.6509e-07
0.0387933
-1.8501
0.0387928
-1.85005
-3.57299e-07
0.0379938
-1.84738
-6.80563e-07
0.0379943
-1.84743
-9.87279e-07
0.0379941
-1.84743
-1.23125e-06
0.0379938
-1.84742
-1.44576e-06
0.0379935
-1.84742
-1.62236e-06
0.0379932
-1.84742
-1.75336e-06
0.0379928
-1.84742
-1.83219e-06
0.0379924
-1.84742
-1.85703e-06
0.0379919
-1.84742
-1.8278e-06
0.0379915
-1.84742
-1.7474e-06
0.0379911
-1.84742
-1.6222e-06
0.0379908
-1.84742
-1.45964e-06
0.0379905
-1.84742
-1.27071e-06
0.0379902
-1.84742
-1.06344e-06
0.0379901
-1.84742
-8.40301e-07
0.03799
-1.84742
-6.03486e-07
0.03799
-1.84742
-3.86387e-07
0.0379901
-1.84742
-1.67342e-07
0.0379902
-1.84742
0.0379898
-1.84737
3.98557e-07
0.0350529
-1.85522
8.68933e-07
0.0350533
-1.85526
1.30245e-06
0.0350533
-1.85526
1.66634e-06
0.0350532
-1.85526
1.97248e-06
0.0350532
-1.85526
2.22099e-06
0.0350531
-1.85526
2.39901e-06
0.035053
-1.85526
2.50626e-06
0.035053
-1.85526
2.54076e-06
0.0350529
-1.85526
2.50589e-06
0.0350528
-1.85526
2.40564e-06
0.0350528
-1.85526
2.24705e-06
0.0350527
-1.85526
2.03895e-06
0.0350527
-1.85526
1.79115e-06
0.0350527
-1.85526
1.51682e-06
0.0350528
-1.85525
1.22051e-06
0.0350528
-1.85525
9.15354e-07
0.0350529
-1.85525
6.28423e-07
0.035053
-1.85525
3.43887e-07
0.0350531
-1.85525
0.0350528
-1.85521
-3.90323e-07
0.0321508
-1.85031
-7.5323e-07
0.0321512
-1.85036
-1.10289e-06
0.0321511
-1.85036
-1.3709e-06
0.0321508
-1.85035
-1.60685e-06
0.0321505
-1.85035
-1.80653e-06
0.0321503
-1.85035
-1.95558e-06
0.0321499
-1.85035
-2.04562e-06
0.0321496
-1.85035
-2.07589e-06
0.0321493
-1.85035
-2.0462e-06
0.0321489
-1.85035
-1.96107e-06
0.0321486
-1.85035
-1.82902e-06
0.0321484
-1.85035
-1.6587e-06
0.0321482
-1.85035
-1.46355e-06
0.032148
-1.85035
-1.2496e-06
0.032148
-1.85035
-1.01048e-06
0.032148
-1.85035
-7.47352e-07
0.0321481
-1.85035
-5.03807e-07
0.0321482
-1.85035
-2.35579e-07
0.0321484
-1.85035
0.0321481
-1.8503
5.08491e-07
0.0267141
-1.85912
1.10001e-06
0.0267145
-1.85917
1.63833e-06
0.0267145
-1.85916
2.06931e-06
0.0267145
-1.85916
2.43213e-06
0.0267144
-1.85916
2.7377e-06
0.0267144
-1.85916
2.95673e-06
0.0267143
-1.85916
3.087e-06
0.0267143
-1.85916
3.12483e-06
0.0267142
-1.85916
3.07281e-06
0.0267142
-1.85916
2.93629e-06
0.0267142
-1.85916
2.72442e-06
0.0267142
-1.85916
2.44971e-06
0.0267142
-1.85916
2.12584e-06
0.0267142
-1.85916
1.77326e-06
0.0267143
-1.85916
1.38707e-06
0.0267144
-1.85916
1.00029e-06
0.0267145
-1.85916
6.71373e-07
0.0267146
-1.85916
3.57041e-07
0.0267147
-1.85915
0.0267144
-1.85911
-3.2076e-07
0.0215471
-1.85169
-5.86126e-07
0.0215475
-1.85174
-8.44363e-07
0.0215475
-1.85174
-1.14226e-06
0.0215474
-1.85174
-1.4024e-06
0.0215472
-1.85174
-1.59465e-06
0.021547
-1.85174
-1.73713e-06
0.0215468
-1.85173
-1.82328e-06
0.0215466
-1.85173
-1.85615e-06
0.0215463
-1.85173
-1.83738e-06
0.0215461
-1.85173
-1.7719e-06
0.0215459
-1.85173
-1.6688e-06
0.0215458
-1.85173
-1.53667e-06
0.0215457
-1.85173
-1.39016e-06
0.0215457
-1.85173
-1.23188e-06
0.0215457
-1.85173
-1.0836e-06
0.0215458
-1.85173
-9.08139e-07
0.0215459
-1.85173
-6.26153e-07
0.0215459
-1.85173
-3.07326e-07
0.021546
-1.85173
0.0215459
-1.85169
5.02254e-07
0.0145419
-1.85899
1.02633e-06
0.0145424
-1.85904
1.45744e-06
0.0145425
-1.85904
1.91334e-06
0.0145425
-1.85904
2.30989e-06
0.0145426
-1.85903
2.60778e-06
0.0145425
-1.85903
2.8231e-06
0.0145425
-1.85903
2.94198e-06
0.0145425
-1.85903
2.96829e-06
0.0145425
-1.85903
2.90194e-06
0.0145425
-1.85903
2.74999e-06
0.0145425
-1.85903
2.52448e-06
0.0145425
-1.85903
2.23795e-06
0.0145425
-1.85903
1.91657e-06
0.0145425
-1.85903
1.57226e-06
0.0145426
-1.85903
1.24978e-06
0.0145427
-1.85903
9.33512e-07
0.0145427
-1.85903
5.56539e-07
0.0145428
-1.85903
2.53664e-07
0.0145427
-1.85903
0.0145424
-1.85898
-8.84448e-08
0.00823787
-1.84913
-1.94437e-07
0.00823849
-1.84917
-3.64514e-07
0.00823873
-1.84917
-5.00007e-07
0.00823866
-1.84917
-6.06297e-07
0.00823857
-1.84917
-6.96362e-07
0.00823842
-1.84917
-7.62558e-07
0.00823827
-1.84917
-8.11796e-07
0.00823809
-1.84917
-8.40824e-07
0.00823792
-1.84917
-8.53119e-07
0.00823775
-1.84917
-8.50812e-07
0.0082376
-1.84916
-8.35357e-07
0.00823747
-1.84916
-8.13803e-07
0.00823736
-1.84916
-7.8237e-07
0.00823729
-1.84916
-7.4689e-07
0.00823725
-1.84916
-6.88487e-07
0.00823726
-1.84916
-6.05559e-07
0.00823724
-1.84916
-5.05244e-07
0.00823726
-1.84916
-2.97786e-07
0.00823704
-1.84916
0.00823648
-1.84912
7.2006e-07
-1.85198
6.77064e-07
-1.85202
7.39954e-07
-1.85202
8.55192e-07
-1.85201
1.00562e-06
-1.85201
1.11719e-06
-1.85201
1.20054e-06
-1.85201
1.23405e-06
-1.85201
1.22351e-06
-1.85201
1.1655e-06
-1.85201
1.06421e-06
-1.85201
9.24967e-07
-1.85201
7.57668e-07
-1.85201
5.82484e-07
-1.85201
3.98599e-07
-1.85201
2.36948e-07
-1.85201
3.81697e-08
-1.85201
-2.08736e-07
-1.85201
-5.3711e-07
-1.85201
-1.85198
-8.7083e-08
-0.00180667
-1.85019
-1.13589e-07
-0.00180624
-1.85023
-4.24853e-08
-0.00180633
-1.85023
-2.46121e-08
-0.00180637
-1.85023
4.25451e-09
-0.00180648
-1.85023
1.33749e-08
-0.00180658
-1.85023
2.41116e-08
-0.00180671
-1.85023
2.56802e-08
-0.00180684
-1.85023
2.51795e-08
-0.00180698
-1.85023
2.07238e-08
-0.00180713
-1.85023
1.36777e-08
-0.00180727
-1.85023
6.46926e-09
-0.00180742
-1.85023
-1.2359e-09
-0.00180755
-1.85023
-2.13475e-09
-0.00180769
-1.85023
-3.64625e-09
-0.00180781
-1.85023
1.60238e-08
-0.00180793
-1.85023
2.70488e-08
-0.00180802
-1.85023
8.82752e-08
-0.00180812
-1.85023
5.61699e-08
-0.00180814
-1.85023
-0.00180863
-1.85019
-3.73633e-07
0.00156792
-1.85498
-5.36382e-07
0.0015683
-1.85502
-7.14969e-07
0.00156819
-1.85502
-8.80622e-07
0.00156811
-1.85502
-1.02163e-06
0.00156796
-1.85502
-1.13755e-06
0.00156782
-1.85502
-1.21936e-06
0.00156763
-1.85502
-1.26966e-06
0.00156745
-1.85502
-1.28752e-06
0.00156725
-1.85502
-1.27535e-06
0.00156704
-1.85502
-1.23526e-06
0.00156684
-1.85502
-1.16883e-06
0.00156664
-1.85502
-1.08055e-06
0.00156645
-1.85502
-9.70274e-07
0.00156627
-1.85502
-8.45004e-07
0.00156611
-1.85502
-6.96994e-07
0.00156594
-1.85502
-5.30617e-07
0.00156583
-1.85502
-3.31076e-07
0.00156571
-1.85502
-8.17582e-08
0.00156567
-1.85502
0.00156521
-1.85498
6.76923e-08
0.00462488
-1.86005
2.96035e-07
0.00462527
-1.8601
4.78294e-07
0.00462524
-1.8601
6.75784e-07
0.00462519
-1.8601
8.40836e-07
0.00462515
-1.8601
9.64963e-07
0.00462514
-1.8601
1.05349e-06
0.00462509
-1.8601
1.10756e-06
0.00462505
-1.8601
1.12747e-06
0.00462498
-1.8601
1.11539e-06
0.00462491
-1.8601
1.07485e-06
0.00462483
-1.8601
1.00876e-06
0.00462474
-1.8601
9.24911e-07
0.00462465
-1.8601
8.27172e-07
0.00462454
-1.8601
7.24726e-07
0.00462444
-1.8601
6.27482e-07
0.00462433
-1.8601
5.32557e-07
0.00462425
-1.8601
3.89165e-07
0.00462421
-1.8601
2.70378e-07
0.00462418
-1.8601
0.00462372
-1.86006
-3.98719e-07
0.00984416
-1.85847
-6.66649e-07
0.00984459
-1.85852
-9.31749e-07
0.00984454
-1.85852
-1.19336e-06
0.00984449
-1.85852
-1.41847e-06
0.00984441
-1.85852
-1.58805e-06
0.00984433
-1.85852
-1.71121e-06
0.00984422
-1.85852
-1.78433e-06
0.00984411
-1.85852
-1.81112e-06
0.00984398
-1.85852
-1.79399e-06
0.00984385
-1.85852
-1.73518e-06
0.00984371
-1.85852
-1.64134e-06
0.00984358
-1.85852
-1.51325e-06
0.00984344
-1.85852
-1.36156e-06
0.00984332
-1.85852
-1.18477e-06
0.0098432
-1.85852
-1.00054e-06
0.00984309
-1.85852
-7.91558e-07
0.00984301
-1.85852
-5.27169e-07
0.00984293
-1.85852
-2.16362e-07
0.00984288
-1.85852
0.00984239
-1.85848
3.05339e-08
0.0150703
-1.86278
1.86095e-07
0.0150708
-1.86283
3.20911e-07
0.0150708
-1.86283
4.25926e-07
0.0150708
-1.86283
5.12514e-07
0.0150708
-1.86283
5.83221e-07
0.0150708
-1.86283
6.33452e-07
0.0150707
-1.86283
6.62163e-07
0.0150707
-1.86283
6.70462e-07
0.0150706
-1.86283
6.59167e-07
0.0150706
-1.86283
6.31168e-07
0.0150705
-1.86283
5.89302e-07
0.0150704
-1.86283
5.37291e-07
0.0150703
-1.86283
4.7914e-07
0.0150703
-1.86283
4.16819e-07
0.0150702
-1.86283
3.50238e-07
0.0150701
-1.86283
2.81697e-07
0.0150701
-1.86283
2.26922e-07
0.01507
-1.86283
1.83146e-07
0.01507
-1.86283
0.0150694
-1.86279
-3.57694e-07
0.0218569
-1.86141
-6.23632e-07
0.0218575
-1.86145
-8.81716e-07
0.0218574
-1.86145
-1.101e-06
0.0218574
-1.86145
-1.28734e-06
0.0218574
-1.86145
-1.43713e-06
0.0218573
-1.86145
-1.54458e-06
0.0218573
-1.86145
-1.60846e-06
0.0218572
-1.86145
-1.62922e-06
0.0218571
-1.86145
-1.609e-06
0.021857
-1.86145
-1.55035e-06
0.0218569
-1.86145
-1.45752e-06
0.0218569
-1.86145
-1.33472e-06
0.0218568
-1.86145
-1.18655e-06
0.0218567
-1.86145
-1.01853e-06
0.0218567
-1.86145
-8.30002e-07
0.0218566
-1.86145
-6.24082e-07
0.0218566
-1.86145
-4.08739e-07
0.0218565
-1.86145
-1.64503e-07
0.0218565
-1.86145
0.0218558
-1.86141
-1.47756e-07
0.0286222
-1.8636
-1.8419e-07
0.0286229
-1.86365
-2.25661e-07
0.0286229
-1.86365
-2.75173e-07
0.0286229
-1.86365
-3.19746e-07
0.0286229
-1.86365
-3.56534e-07
0.0286228
-1.86365
-3.84983e-07
0.0286227
-1.86365
-4.04215e-07
0.0286227
-1.86365
-4.1331e-07
0.0286226
-1.86365
-4.1197e-07
0.0286225
-1.86365
-3.99915e-07
0.0286224
-1.86365
-3.76499e-07
0.0286223
-1.86365
-3.43946e-07
0.0286223
-1.86365
-3.02443e-07
0.0286222
-1.86365
-2.54471e-07
0.0286222
-1.86365
-2.00773e-07
0.0286221
-1.86365
-1.40775e-07
0.0286221
-1.86365
-6.1753e-08
0.028622
-1.86365
2.89499e-08
0.028622
-1.86365
0.0286213
-1.8636
-2.75978e-07
0.036261
-1.86383
-4.72663e-07
0.0362618
-1.86387
-6.63841e-07
0.0362617
-1.86387
-8.24885e-07
0.0362616
-1.86387
-9.65054e-07
0.0362615
-1.86387
-1.08046e-06
0.0362614
-1.86387
-1.166e-06
0.0362612
-1.86387
-1.21867e-06
0.036261
-1.86387
-1.23796e-06
0.0362608
-1.86387
-1.22336e-06
0.0362606
-1.86387
-1.17713e-06
0.0362604
-1.86387
-1.10159e-06
0.0362602
-1.86387
-1.0012e-06
0.0362601