/*--------------------------------*- C++ -*----------------------------------*\
| =========                 |                                                 |
| \\      /  F ield         | OpenFOAM: The Open Source CFD Toolbox           |
|  \\    /   O peration     | Version:  2212                                  |
|   \\  /    A nd           | Website:  www.openfoam.com                      |
|    \\/     M anipulation  |                                                 |
\*---------------------------------------------------------------------------*/
FoamFile
{
    version     2.0;
    format      ascii;
    arch        "LSB;label=32;scalar=64";
    class       surfaceScalarField;
    location    "0.316";
    object      phi_0;
}
// * * * * * * * * * * * * * * * * * * * * * * * * * * * * * * * * * * * * * //

dimensions      [0 3 -1 0 0 0 0];

oriented        oriented;

internalField   nonuniform List<scalar> 
69808
(
1.90424e-07
-0.00086967
-1.85167
2.20033e-07
-0.000869401
-1.85172
3.49903e-07
-0.000869481
-1.85171
4.27516e-07
-0.000869417
-1.85171
5.15857e-07
-0.000869385
-1.85171
5.72035e-07
-0.000869322
-1.85171
6.14232e-07
-0.000869267
-1.85171
6.32029e-07
-0.000869207
-1.85171
6.31391e-07
-0.000869152
-1.85171
6.1154e-07
-0.000869102
-1.85171
5.75504e-07
-0.00086906
-1.85171
5.26932e-07
-0.000869027
-1.85171
4.66362e-07
-0.000869003
-1.85171
4.03351e-07
-0.000868995
-1.85171
3.3065e-07
-0.000868991
-1.85171
2.70288e-07
-0.000869007
-1.85171
1.84691e-07
-0.000869006
-1.85171
1.35388e-07
-0.000869045
-1.85171
-2.95082e-08
-0.000868952
-1.85171
-0.000869221
-1.85167
-2.01805e-07
0.000388518
-1.85035
-2.81773e-07
0.000388852
-1.85039
-3.77394e-07
0.000388745
-1.85039
-4.71234e-07
0.000388718
-1.85039
-5.44378e-07
0.00038864
-1.85039
-6.02298e-07
0.000388577
-1.85039
-6.39258e-07
0.000388495
-1.85039
-6.59094e-07
0.000388417
-1.85039
-6.60694e-07
0.000388335
-1.85039
-6.46285e-07
0.000388255
-1.85039
-6.18088e-07
0.000388178
-1.85039
-5.7775e-07
0.000388104
-1.85039
-5.27635e-07
0.000388037
-1.85039
-4.69464e-07
0.00038797
-1.85039
-4.06605e-07
0.000387915
-1.85039
-3.36771e-07
0.000387855
-1.85039
-2.63507e-07
0.000387824
-1.85039
-1.73877e-07
0.000387767
-1.85039
-4.04829e-08
0.000387808
-1.85039
0.00038745
-1.85035
1.16337e-07
0.00104473
-1.85602
3.51579e-07
0.00104522
-1.85606
5.36988e-07
0.00104526
-1.85606
7.05526e-07
0.00104538
-1.85606
8.47054e-07
0.00104552
-1.85606
9.51267e-07
0.0010457
-1.85606
1.02322e-06
0.00104589
-1.85606
1.06027e-06
0.0010461
-1.85606
1.06506e-06
0.00104632
-1.85606
1.03923e-06
0.00104653
-1.85606
9.85965e-07
0.00104674
-1.85606
9.09362e-07
0.00104693
-1.85606
8.13112e-07
0.0010471
-1.85606
7.05251e-07
0.00104723
-1.85606
5.90623e-07
0.00104734
-1.85606
4.80868e-07
0.00104741
-1.85606
3.71896e-07
0.00104747
-1.85606
2.5764e-07
0.00104751
-1.85606
1.75427e-07
0.00104756
-1.85606
0.00104713
-1.85602
-2.63024e-07
0.00639573
-1.85085
-4.30309e-07
0.0063963
-1.8509
-5.97754e-07
0.00639636
-1.8509
-7.63382e-07
0.0063965
-1.8509
-9.04432e-07
0.00639665
-1.8509
-1.01194e-06
0.00639683
-1.8509
-1.08804e-06
0.00639703
-1.8509
-1.13206e-06
0.00639724
-1.8509
-1.14505e-06
0.00639746
-1.8509
-1.13009e-06
0.00639768
-1.8509
-1.0877e-06
0.00639788
-1.8509
-1.02322e-06
0.00639808
-1.8509
-9.3709e-07
0.00639825
-1.8509
-8.37213e-07
0.0063984
-1.8509
-7.24356e-07
0.00639852
-1.8509
-6.06995e-07
0.00639861
-1.8509
-4.77799e-07
0.00639868
-1.8509
-3.16477e-07
0.00639872
-1.8509
-1.25381e-07
0.00639877
-1.8509
0.00639824
-1.85086
7.33018e-08
0.0114104
-1.85534
2.42736e-07
0.011411
-1.85538
3.88906e-07
0.0114112
-1.85538
5.00869e-07
0.0114114
-1.85538
5.90934e-07
0.0114116
-1.85539
6.61813e-07
0.0114119
-1.85539
7.09215e-07
0.0114122
-1.85539
7.33025e-07
0.0114126
-1.85539
7.34158e-07
0.0114129
-1.85539
7.13897e-07
0.0114133
-1.85539
6.74767e-07
0.0114136
-1.85539
6.19406e-07
0.011414
-1.85539
5.52324e-07
0.0114143
-1.85539
4.76731e-07
0.0114145
-1.85539
3.97495e-07
0.0114147
-1.85539
3.14281e-07
0.0114149
-1.85539
2.34653e-07
0.011415
-1.85539
1.731e-07
0.0114151
-1.85539
1.26965e-07
0.0114152
-1.85539
0.0114146
-1.85534
-2.85177e-07
0.020286
-1.8507
-5.02132e-07
0.0202867
-1.85075
-7.10931e-07
0.0202867
-1.85075
-8.95257e-07
0.0202867
-1.85075
-1.05015e-06
0.0202867
-1.85075
-1.17366e-06
0.0202868
-1.85075
-1.26082e-06
0.0202868
-1.85075
-1.31197e-06
0.0202868
-1.85075
-1.32633e-06
0.0202868
-1.85075
-1.30646e-06
0.0202868
-1.85075
-1.25394e-06
0.0202868
-1.85075
-1.17284e-06
0.0202868
-1.85075
-1.06702e-06
0.0202868
-1.85075
-9.41639e-07
0.0202868
-1.85075
-8.01545e-07
0.0202868
-1.85075
-6.49709e-07
0.0202868
-1.85075
-4.88941e-07
0.0202868
-1.85075
-3.18258e-07
0.0202868
-1.85076
-1.28605e-07
0.0202868
-1.85076
0.0202861
-1.85071
-9.4444e-08
0.0288173
-1.85305
-1.01154e-07
0.0288181
-1.85309
-1.12073e-07
0.0288181
-1.85309
-1.36875e-07
0.028818
-1.85309
-1.60184e-07
0.0288179
-1.85309
-1.80898e-07
0.0288179
-1.85309
-1.9831e-07
0.0288178
-1.85309
-2.11777e-07
0.0288177
-1.85309
-2.20568e-07
0.0288176
-1.85309
-2.24184e-07
0.0288175
-1.85309
-2.21849e-07
0.0288173
-1.85309
-2.12772e-07
0.0288172
-1.85309
-1.97504e-07
0.0288171
-1.85309
-1.75869e-07
0.0288171
-1.85309
-1.49581e-07
0.028817
-1.85309
-1.18725e-07
0.0288169
-1.85309
-8.44627e-08
0.0288169
-1.85309
-3.12846e-08
0.0288169
-1.85309
2.97064e-08
0.0288169
-1.85309
0.0288161
-1.85305
-2.39802e-07
0.0395727
-1.85128
-4.19905e-07
0.0395736
-1.85132
-5.91347e-07
0.0395734
-1.85132
-7.43439e-07
0.0395731
-1.85132
-8.72804e-07
0.0395727
-1.85132
-9.77468e-07
0.0395723
-1.85132
-1.05296e-06
0.0395718
-1.85132
-1.09864e-06
0.0395713
-1.85133
-1.11307e-06
0.0395708
-1.85133
-1.09723e-06
0.0395703
-1.85133
-1.05198e-06
0.0395697
-1.85133
-9.80112e-07
0.0395693
-1.85133
-8.85052e-07
0.0395688
-1.85133
-7.71397e-07
0.0395684
-1.85133
-6.44691e-07
0.0395681
-1.85133
-5.08739e-07
0.0395678
-1.85133
-3.67707e-07
0.0395676
-1.85133
-2.2288e-07
0.0395675
-1.85133
-7.5172e-08
0.0395674
-1.85133
0.0395665
-1.85128
-1.64083e-07
0.0432587
-1.84528
-2.51953e-07
0.0432594
-1.84532
-3.38197e-07
0.0432592
-1.84532
-4.21529e-07
0.0432587
-1.84532
-4.94741e-07
0.0432582
-1.84533
-5.55589e-07
0.0432576
-1.84533
-6.01539e-07
0.0432569
-1.84533
-6.31523e-07
0.0432562
-1.84533
-6.44263e-07
0.0432554
-1.84533
-6.39529e-07
0.0432546
-1.84533
-6.17463e-07
0.0432538
-1.84533
-5.78878e-07
0.0432531
-1.84533
-5.2538e-07
0.0432525
-1.84533
-4.58926e-07
0.0432519
-1.84533
-3.8268e-07
0.0432514
-1.84533
-2.98405e-07
0.0432511
-1.84533
-2.08998e-07
0.0432508
-1.84533
-1.09341e-07
0.0432507
-1.84533
-8.06795e-09
0.0432506
-1.84533
0.0432497
-1.84528
-4.72154e-08
0.0472389
-1.84739
-2.84772e-08
0.0472396
-1.84743
-1.20841e-08
0.0472393
-1.84743
-4.97073e-09
0.047239
-1.84743
-2.9175e-10
0.0472385
-1.84743
6.11924e-10
0.047238
-1.84743
-2.37392e-10
0.0472373
-1.84743
-2.80945e-09
0.0472367
-1.84743
-6.07617e-09
0.047236
-1.84743
-9.14701e-09
0.0472353
-1.84743
-1.14926e-08
0.0472346
-1.84743
-1.20187e-08
0.047234
-1.84743
-1.0884e-08
0.0472334
-1.84743
-6.57256e-09
0.0472329
-1.84743
-8.10925e-11
0.0472325
-1.84743
1.09529e-08
0.0472322
-1.84743
2.31206e-08
0.047232
-1.84743
4.04798e-08
0.0472319
-1.84743
5.72347e-08
0.0472318
-1.84743
0.047231
-1.84739
-3.21493e-07
0.0512665
-1.84665
-5.77164e-07
0.051267
-1.84669
-8.17496e-07
0.0512666
-1.84669
-1.0305e-06
0.0512659
-1.84669
-1.21333e-06
0.051265
-1.84669
-1.36025e-06
0.051264
-1.84669
-1.46662e-06
0.0512628
-1.84669
-1.5297e-06
0.0512616
-1.84669
-1.54784e-06
0.0512603
-1.84669
-1.52164e-06
0.051259
-1.84669
-1.45264e-06
0.0512578
-1.84669
-1.345e-06
0.0512566
-1.84669
-1.20402e-06
0.0512556
-1.84669
-1.03763e-06
0.0512547
-1.84669
-8.54485e-07
0.0512539
-1.84669
-6.61969e-07
0.0512534
-1.84669
-4.65561e-07
0.051253
-1.84669
-2.67087e-07
0.0512528
-1.84669
-7.99386e-08
0.0512527
-1.84669
0.0512519
-1.84665
9.90261e-08
0.0535433
-1.85304
2.81202e-07
0.0535439
-1.85308
4.44177e-07
0.0535436
-1.85308
5.75392e-07
0.0535432
-1.85308
6.83105e-07
0.0535426
-1.85308
7.65652e-07
0.053542
-1.85308
8.21552e-07
0.0535413
-1.85308
8.50885e-07
0.0535405
-1.85308
8.53948e-07
0.0535397
-1.85308
8.32908e-07
0.0535388
-1.85308
7.89554e-07
0.053538
-1.85308
7.27866e-07
0.0535373
-1.85308
6.50889e-07
0.0535367
-1.85308
5.64422e-07
0.0535361
-1.85308
4.72487e-07
0.0535357
-1.85308
3.80649e-07
0.0535353
-1.85307
2.9066e-07
0.0535351
-1.85307
2.1229e-07
0.053535
-1.85307
1.43351e-07
0.053535
-1.85307
0.0535343
-1.85303
-4.1766e-07
0.0560595
-1.85043
-7.69953e-07
0.0560599
-1.85047
-1.10128e-06
0.0560593
-1.85047
-1.38741e-06
0.0560584
-1.85047
-1.6332e-06
0.0560573
-1.85047
-1.83117e-06
0.0560561
-1.85047
-1.97382e-06
0.0560546
-1.85047
-2.05684e-06
0.0560531
-1.85047
-2.07823e-06
0.0560515
-1.85047
-2.03871e-06
0.0560499
-1.85047
-1.94099e-06
0.0560484
-1.85047
-1.7914e-06
0.0560469
-1.85047
-1.59808e-06
0.0560456
-1.85047
-1.37337e-06
0.0560446
-1.85047
-1.12945e-06
0.0560437
-1.85047
-8.74438e-07
0.0560431
-1.85047
-6.16146e-07
0.0560426
-1.85047
-3.64149e-07
0.0560424
-1.85047
-1.2508e-07
0.0560423
-1.85047
0.0560418
-1.85043
2.14762e-07
0.0547937
-1.86043
5.32258e-07
0.0547941
-1.86048
8.15217e-07
0.0547937
-1.86048
1.04162e-06
0.0547933
-1.86047
1.22852e-06
0.0547927
-1.86047
1.37631e-06
0.054792
-1.86047
1.47795e-06
0.0547912
-1.86047
1.5334e-06
0.0547903
-1.86047
1.54135e-06
0.0547894
-1.86047
1.5046e-06
0.0547886
-1.86047
1.42557e-06
0.0547877
-1.86047
1.31028e-06
0.0547869
-1.86047
1.16462e-06
0.0547862
-1.86047
9.97784e-07
0.0547857
-1.86047
8.19343e-07
0.0547852
-1.86047
6.36336e-07
0.0547849
-1.86047
4.5822e-07
0.0547847
-1.86046
3.09172e-07
0.0547846
-1.86046
1.8745e-07
0.0547846
-1.86046
0.0547842
-1.86042
-4.66858e-07
0.0537597
-1.85552
-8.63754e-07
0.0537598
-1.85556
-1.24109e-06
0.0537592
-1.85556
-1.56074e-06
0.0537583
-1.85556
-1.83544e-06
0.0537571
-1.85556
-2.05965e-06
0.0537558
-1.85556
-2.22104e-06
0.0537542
-1.85556
-2.31365e-06
0.0537526
-1.85556
-2.33623e-06
0.0537509
-1.85556
-2.28907e-06
0.0537492
-1.85556
-2.17667e-06
0.0537476
-1.85555
-2.00692e-06
0.053746
-1.85555
-1.79094e-06
0.0537447
-1.85555
-1.54358e-06
0.0537436
-1.85555
-1.27821e-06
0.0537427
-1.85555
-9.98371e-07
0.0537421
-1.85555
-7.12913e-07
0.0537417
-1.85555
-4.34189e-07
0.0537415
-1.85555
-1.56908e-07
0.0537415
-1.85555
0.0537412
-1.85551
3.02233e-07
0.0470694
-1.8669
7.29909e-07
0.0470696
-1.86694
1.10244e-06
0.0470693
-1.86694
1.38992e-06
0.0470688
-1.86694
1.62718e-06
0.0470683
-1.86694
1.82171e-06
0.0470676
-1.86694
1.9564e-06
0.0470668
-1.86694
2.02953e-06
0.047066
-1.86694
2.0386e-06
0.0470651
-1.86694
1.98585e-06
0.0470643
-1.86694
1.87424e-06
0.0470634
-1.86694
1.71165e-06
0.0470627
-1.86693
1.50666e-06
0.047062
-1.86693
1.27275e-06
0.0470615
-1.86693
1.02464e-06
0.0470611
-1.86693
7.66526e-07
0.0470608
-1.86693
5.22892e-07
0.0470607
-1.86693
3.36306e-07
0.0470606
-1.86693
1.96369e-07
0.0470606
-1.86693
0.0470604
-1.86689
-4.11752e-07
0.0405695
-1.85925
-7.35072e-07
0.0405694
-1.85929
-1.0528e-06
0.0405689
-1.85929
-1.37884e-06
0.0405681
-1.85929
-1.66033e-06
0.0405671
-1.85929
-1.87387e-06
0.0405658
-1.85929
-2.02667e-06
0.0405645
-1.85929
-2.11294e-06
0.040563
-1.85929
-2.13412e-06
0.0405614
-1.85929
-2.0917e-06
0.0405599
-1.85929
-1.99123e-06
0.0405584
-1.85929
-1.84123e-06
0.0405571
-1.85929
-1.65332e-06
0.0405559
-1.85929
-1.44326e-06
0.0405549
-1.85929
-1.22166e-06
0.0405542
-1.85929
-1.00726e-06
0.0405537
-1.85929
-7.82756e-07
0.0405533
-1.85929
-4.95493e-07
0.0405532
-1.85929
-1.92571e-07
0.0405531
-1.85929
0.0405531
-1.85924
3.4536e-07
0.0276489
-1.86845
7.83891e-07
0.027649
-1.86849
1.12352e-06
0.0276489
-1.86849
1.44277e-06
0.0276485
-1.86849
1.71864e-06
0.0276481
-1.86849
1.92514e-06
0.0276476
-1.86849
2.07092e-06
0.027647
-1.86849
2.14449e-06
0.0276463
-1.86849
2.14799e-06
0.0276457
-1.86849
2.08123e-06
0.0276451
-1.86849
1.94866e-06
0.0276444
-1.86849
1.76019e-06
0.0276439
-1.86849
1.52543e-06
0.0276434
-1.86848
1.26695e-06
0.027643
-1.86848
9.95484e-07
0.0276427
-1.86848
7.44186e-07
0.0276426
-1.86848
5.05672e-07
0.0276424
-1.86848
2.66794e-07
0.0276424
-1.86848
1.31839e-07
0.0276423
-1.86848
0.0276422
-1.86844
-1.11747e-07
0.0152932
-1.85796
-2.28844e-07
0.0152934
-1.858
-4.16149e-07
0.0152934
-1.858
-5.72868e-07
0.0152929
-1.858
-6.95598e-07
0.0152924
-1.858
-7.95937e-07
0.0152917
-1.858
-8.6669e-07
0.015291
-1.858
-9.13357e-07
0.0152901
-1.858
-9.33745e-07
0.0152893
-1.858
-9.30693e-07
0.0152885
-1.858
-9.06273e-07
0.0152877
-1.858
-8.63263e-07
0.0152869
-1.858
-8.08181e-07
0.0152863
-1.85799
-7.41587e-07
0.0152858
-1.85799
-6.73761e-07
0.0152854
-1.85799
-5.96836e-07
0.0152852
-1.85799
-5.13138e-07
0.015285
-1.85799
-4.14139e-07
0.0152849
-1.85799
-2.16687e-07
0.0152846
-1.85799
0.0152844
-1.85795
7.0747e-07
-1.86283
7.5679e-07
-1.86287
8.80256e-07
-1.86286
1.01057e-06
-1.86286
1.17537e-06
-1.86286
1.29723e-06
-1.86286
1.38872e-06
-1.86286
1.42781e-06
-1.86286
1.4179e-06
-1.86286
1.35506e-06
-1.86286
1.24249e-06
-1.86286
1.08859e-06
-1.86286
9.00135e-07
-1.86286
6.99121e-07
-1.86285
4.86291e-07
-1.86285
2.92996e-07
-1.86285
6.27929e-08
-1.86285
-1.7718e-07
-1.86285
-4.72921e-07
-1.86286
-1.86282
1.80793e-07
0.0027292
-1.8544
2.77979e-07
0.00272936
-1.85444
4.59003e-07
0.00272932
-1.85444
5.87812e-07
0.00272946
-1.85444
7.19486e-07
0.00272958
-1.85444
8.10797e-07
0.00272976
-1.85444
8.80689e-07
0.00272994
-1.85444
9.17475e-07
0.00273014
-1.85444
9.27733e-07
0.00273033
-1.85444
9.10631e-07
0.00273053
-1.85444
8.69266e-07
0.00273072
-1.85444
8.08856e-07
0.00273089
-1.85444
7.2939e-07
0.00273105
-1.85444
6.43776e-07
0.00273117
-1.85444
5.45639e-07
0.00273127
-1.85444
4.58342e-07
0.00273134
-1.85444
3.44265e-07
0.0027314
-1.85444
2.56868e-07
0.00273141
-1.85444
7.3745e-08
0.00273153
-1.85444
0.00273141
-1.8544
-2.40293e-07
0.00635916
-1.85398
-3.43494e-07
0.00635939
-1.85402
-4.68668e-07
0.00635942
-1.85402
-5.77372e-07
0.00635958
-1.85402
-6.66397e-07
0.00635973
-1.85402
-7.38573e-07
0.00635994
-1.85402
-7.86556e-07
0.00636015
-1.85402
-8.15012e-07
0.00636038
-1.85402
-8.21962e-07
0.00636061
-1.85402
-8.10507e-07
0.00636083
-1.85402
-7.81815e-07
0.00636104
-1.85402
-7.37138e-07
0.00636123
-1.85402
-6.80271e-07
0.0063614
-1.85402
-6.09695e-07
0.00636152
-1.85402
-5.32402e-07
0.00636163
-1.85402
-4.41192e-07
0.00636169
-1.85402
-3.41639e-07
0.00636175
-1.85402
-2.2738e-07
0.00636175
-1.85402
-6.62196e-08
0.00636182
-1.85402
0.00636162
-1.85398
1.59777e-07
0.00968525
-1.85935
4.20845e-07
0.00968558
-1.85939
6.34907e-07
0.00968567
-1.85939
8.58079e-07
0.00968583
-1.85939
1.04689e-06
0.00968605
-1.85939
1.19196e-06
0.00968634
-1.85939
1.29603e-06
0.00968663
-1.85939
1.35859e-06
0.00968695
-1.85939
1.38004e-06
0.00968727
-1.85939
1.36245e-06
0.00968759
-1.85939
1.30823e-06
0.0096879
-1.85939
1.22293e-06
0.00968818
-1.85939
1.11168e-06
0.00968843
-1.85939
9.82062e-07
0.00968864
-1.85939
8.42477e-07
0.00968881
-1.85939
7.04442e-07
0.00968892
-1.85939
5.65468e-07
0.00968902
-1.85939
3.84507e-07
0.0096891
-1.85939
2.30984e-07
0.00968916
-1.85939
0.00968887
-1.85935
-3.71305e-07
0.0144042
-1.85557
-6.61892e-07
0.0144047
-1.85562
-9.43764e-07
0.0144047
-1.85562
-1.21211e-06
0.0144048
-1.85562
-1.44151e-06
0.0144049
-1.85562
-1.61501e-06
0.0144051
-1.85562
-1.74019e-06
0.0144052
-1.85562
-1.81435e-06
0.0144053
-1.85562
-1.84002e-06
0.0144055
-1.85562
-1.82065e-06
0.0144056
-1.85562
-1.75717e-06
0.0144058
-1.85562
-1.6581e-06
0.0144059
-1.85562
-1.52355e-06
0.014406
-1.85562
-1.36613e-06
0.0144061
-1.85562
-1.18465e-06
0.0144062
-1.85562
-9.97463e-07
0.0144062
-1.85562
-7.88732e-07
0.0144062
-1.85562
-5.36578e-07
0.0144062
-1.85562
-2.45136e-07
0.0144063
-1.85562
0.0144059
-1.85558
7.70735e-08
0.0189165
-1.85985
2.29725e-07
0.0189171
-1.8599
3.6625e-07
0.0189173
-1.8599
4.73991e-07
0.0189175
-1.8599
5.63025e-07
0.0189178
-1.8599
6.35946e-07
0.0189182
-1.8599
6.87217e-07
0.0189186
-1.8599
7.14799e-07
0.018919
-1.8599
7.20106e-07
0.0189194
-1.8599
7.03718e-07
0.0189199
-1.8599
6.68277e-07
0.0189203
-1.8599
6.16467e-07
0.0189206
-1.8599
5.52247e-07
0.018921
-1.8599
4.80655e-07
0.0189213
-1.8599
4.0382e-07
0.0189215
-1.8599
3.22099e-07
0.0189217
-1.8599
2.41543e-07
0.0189219
-1.8599
1.75037e-07
0.018922
-1.8599
1.21648e-07
0.0189221
-1.8599
0.0189216
-1.85986
-3.87584e-07
0.0251087
-1.8569
-7.29444e-07
0.0251093
-1.85694
-1.0505e-06
0.0251094
-1.85694
-1.32283e-06
0.0251094
-1.85694
-1.55217e-06
0.0251094
-1.85694
-1.73575e-06
0.0251095
-1.85694
-1.86681e-06
0.0251095
-1.85694
-1.94489e-06
0.0251096
-1.85694
-1.96962e-06
0.0251096
-1.85694
-1.94428e-06
0.0251097
-1.85694
-1.87155e-06
0.0251097
-1.85694
-1.75693e-06
0.0251097
-1.85694
-1.60573e-06
0.0251098
-1.85694
-1.42497e-06
0.0251098
-1.85694
-1.2205e-06
0.0251098
-1.85694
-9.95757e-07
0.0251098
-1.85694
-7.53736e-07
0.0251099
-1.85694
-5.06285e-07
0.0251099
-1.85694
-2.34454e-07
0.0251099
-1.85694
0.0251093
-1.8569
-1.50913e-07
0.0311652
-1.8591
-2.32273e-07
0.0311659
-1.85915
-3.09846e-07
0.0311659
-1.85915
-3.87435e-07
0.0311659
-1.85915
-4.55985e-07
0.0311658
-1.85915
-5.11239e-07
0.0311658
-1.85915
-5.53291e-07
0.0311657
-1.85915
-5.81359e-07
0.0311657
-1.85915
-5.94459e-07
0.0311656
-1.85915
-5.92513e-07
0.0311655
-1.85915
-5.75614e-07
0.0311654
-1.85915
-5.44329e-07
0.0311653
-1.85915
-4.99943e-07
0.0311653
-1.85915
-4.43633e-07
0.0311652
-1.85915
-3.78127e-07
0.0311652
-1.85915
-3.06158e-07
0.0311652
-1.85915
-2.27493e-07
0.0311651
-1.85915
-1.32756e-07
0.0311651
-1.85915
-2.93719e-08
0.0311651
-1.85915
0.0311644
-1.8591
-3.06035e-07
0.0383326
-1.85845
-5.72015e-07
0.0383334
-1.85849
-8.20835e-07
0.0383333
-1.85849
-1.03143e-06
0.0383331
-1.85849
-1.21206e-06
0.0383329
-1.85849
-1.35951e-06
0.0383327
-1.85849
-1.46785e-06
0.0383324
-1.85849
-1.53502e-06
0.0383321
-1.85849
-1.55952e-06
0.0383318
-1.85849
-1.54199e-06
0.0383315
-1.85849
-1.48413e-06
0.0383312
-1.85849
-1.38947e-06
0.038331
-1.85849
-1.26283e-06
0.0383307
-1.85849
-1.11003e-06
0.0383305
-1.85849
-9.37718e-07
0.0383303
-1.85849
-7.49381e-07
0.0383302
-1.85849
-5.49818e-07
0.0383301
-1.85849
-3.53166e-07
0.0383301
-1.85849
-1.50612e-07
0.0383301
-1.85849
0.0383293
-1.85845
-2.17411e-07
0.0387791
-1.84573
-3.77358e-07
0.0387798
-1.84577
-5.27831e-07
0.0387796
-1.84577
-6.60757e-07
0.0387793
-1.84577
-7.76933e-07
0.0387789
-1.84577
-8.7261e-07
0.0387784
-1.84577
-9.44555e-07
0.0387779
-1.84577
-9.90584e-07
0.0387774
-1.84577
-1.00924e-06
0.0387768
-1.84577
-1.00019e-06
0.0387762
-1.84577
-9.64518e-07
0.0387757
-1.84577
-9.03984e-07
0.0387752
-1.84577
-8.21836e-07
0.0387747
-1.84577
-7.21423e-07
0.0387743
-1.84577
-6.07372e-07
0.038774
-1.84577
-4.81936e-07
0.0387738
-1.84577
-3.49844e-07
0.0387736
-1.84577
-2.09327e-07
0.0387735
-1.84577
-6.80161e-08
0.0387735
-1.84577
0.0387727
-1.84573
1.08464e-09
0.0392549
-1.84787
5.18341e-08
0.0392555
-1.84791
9.8816e-08
0.0392554
-1.84791
1.4223e-07
0.0392551
-1.84791
1.77159e-07
0.0392548
-1.84791
2.01677e-07
0.0392545
-1.84791
2.1757e-07
0.0392541
-1.84791
2.25165e-07
0.0392537
-1.84791
2.25981e-07
0.0392532
-1.84791
2.21385e-07
0.0392528
-1.84791
2.12297e-07
0.0392524
-1.84791
2.00389e-07
0.039252
-1.84791
1.85929e-07
0.0392516
-1.84791
1.71406e-07
0.0392513
-1.84791
1.56761e-07
0.0392511
-1.84791
1.44995e-07
0.0392509
-1.84791
1.3315e-07
0.0392508
-1.84791
1.12195e-07
0.0392507
-1.84791
8.39155e-08
0.0392507
-1.84791
0.03925
-1.84786
-3.19686e-07
0.0396586
-1.84705
-5.97024e-07
0.0396591
-1.84709
-8.57224e-07
0.0396589
-1.84709
-1.07731e-06
0.0396584
-1.84709
-1.26923e-06
0.0396579
-1.84709
-1.42575e-06
0.0396573
-1.84709
-1.54198e-06
0.0396566
-1.84709
-1.61338e-06
0.0396559
-1.84709
-1.63822e-06
0.0396551
-1.84709
-1.61647e-06
0.0396544
-1.84709
-1.5502e-06
0.0396537
-1.84709
-1.44404e-06
0.039653
-1.84709
-1.30376e-06
0.0396524
-1.84709
-1.13737e-06
0.0396519
-1.84709
-9.52278e-07
0.0396515
-1.84709
-7.53413e-07
0.0396512
-1.84709
-5.43979e-07
0.039651
-1.84709
-3.38545e-07
0.0396509
-1.84709
-1.36232e-07
0.0396509
-1.84709
0.0396503
-1.84705
2.04053e-07
0.0389361
-1.85232
4.69351e-07
0.0389366
-1.85236
7.13702e-07
0.0389364
-1.85236
9.24011e-07
0.0389362
-1.85236
1.09934e-06
0.0389358
-1.85236
1.23721e-06
0.0389354
-1.85236
1.33439e-06
0.038935
-1.85236
1.39109e-06
0.0389345
-1.85236
1.40785e-06
0.038934
-1.85236
1.38748e-06
0.0389336
-1.85236
1.33259e-06
0.0389331
-1.85236
1.24789e-06
0.0389327
-1.85236
1.13732e-06
0.0389323
-1.85236
1.00742e-06
0.038932
-1.85236
8.6366e-07
0.0389318
-1.85236
7.11282e-07
0.0389316
-1.85236
5.53254e-07
0.0389315
-1.85235
3.93621e-07
0.0389314
-1.85235
2.27967e-07
0.0389314
-1.85235
0.0389309
-1.85231
-3.81686e-07
0.0381579
-1.84965
-7.29167e-07
0.0381583
-1.84969
-1.05913e-06
0.038158
-1.84969
-1.32467e-06
0.0381575
-1.84969
-1.55836e-06
0.0381569
-1.84969
-1.75117e-06
0.0381562
-1.84969
-1.89492e-06
0.0381555
-1.84969
-1.98273e-06
0.0381547
-1.84969
-2.01261e-06
0.0381539
-1.84969
-1.98451e-06
0.038153
-1.84969
-1.90156e-06
0.0381523
-1.84969
-1.77047e-06
0.0381516
-1.84969
-1.59916e-06
0.0381509
-1.84969
-1.39907e-06
0.0381504
-1.84969
-1.17849e-06
0.03815
-1.84969
-9.39762e-07
0.0381497
-1.84969
-6.84433e-07
0.0381496
-1.84969
-4.44894e-07
0.0381495
-1.84969
-1.98763e-07
0.0381495
-1.84969
0.0381491
-1.84964
3.82583e-07
0.0352347
-1.85751
8.36873e-07
0.0352351
-1.85755
1.25481e-06
0.0352349
-1.85755
1.60419e-06
0.0352346
-1.85755
1.89735e-06
0.0352343
-1.85755
2.13487e-06
0.0352339
-1.85755
2.30422e-06
0.0352334
-1.85755
2.40541e-06
0.0352329
-1.85755
2.43655e-06
0.0352324
-1.85755
2.40099e-06
0.0352319
-1.85755
2.30248e-06
0.0352314
-1.85755
2.14774e-06
0.035231
-1.85755
1.94512e-06
0.0352306
-1.85755
1.70406e-06
0.0352303
-1.85755
1.43748e-06
0.0352301
-1.85755
1.15028e-06
0.0352299
-1.85754
8.56446e-07
0.0352298
-1.85754
5.84348e-07
0.0352298
-1.85754
3.19323e-07
0.0352298
-1.85754
0.0352294
-1.8575
-3.94179e-07
0.0323465
-1.85263
-7.61449e-07
0.0323468
-1.85267
-1.11562e-06
0.0323465
-1.85267
-1.38802e-06
0.032346
-1.85267
-1.62805e-06
0.0323454
-1.85267
-1.83127e-06
0.0323447
-1.85267
-1.98319e-06
0.032344
-1.85267
-2.07527e-06
0.0323432
-1.85267
-2.10673e-06
0.0323424
-1.85267
-2.07741e-06
0.0323416
-1.85267
-1.99202e-06
0.0323409
-1.85266
-1.85933e-06
0.0323402
-1.85266
-1.68839e-06
0.0323396
-1.85266
-1.49289e-06
0.0323392
-1.85266
-1.27893e-06
0.0323388
-1.85266
-1.03962e-06
0.0323386
-1.85266
-7.75136e-07
0.0323384
-1.85266
-5.27485e-07
0.0323385
-1.85266
-2.5047e-07
0.0323385
-1.85266
0.0323382
-1.85262
5.18386e-07
0.0269147
-1.86147
1.11891e-06
0.026915
-1.86151
1.66549e-06
0.0269149
-1.86151
2.10386e-06
0.0269146
-1.86151
2.47306e-06
0.0269142
-1.86151
2.78387e-06
0.0269138
-1.86151
3.00697e-06
0.0269133
-1.86151
3.14013e-06
0.0269128
-1.86151
3.17961e-06
0.0269123
-1.86151
3.12798e-06
0.0269118
-1.86151
2.99041e-06
0.0269113
-1.86151
2.77591e-06
0.0269109
-1.86151
2.4967e-06
0.0269105
-1.8615
2.16634e-06
0.0269102
-1.8615
1.80539e-06
0.0269099
-1.8615
1.40951e-06
0.0269098
-1.8615
1.01273e-06
0.0269097
-1.8615
6.7529e-07
0.0269097
-1.8615
3.5591e-07
0.0269097
-1.8615
0.0269093
-1.86146
-2.90187e-07
0.0217412
-1.85408
-5.26398e-07
0.0217415
-1.85412
-7.57222e-07
0.0217413
-1.85412
-1.03014e-06
0.021741
-1.85412
-1.26847e-06
0.0217405
-1.85412
-1.44265e-06
0.0217399
-1.85412
-1.57118e-06
0.0217393
-1.85412
-1.64774e-06
0.0217386
-1.85412
-1.67551e-06
0.021738
-1.85411
-1.6561e-06
0.0217373
-1.85411
-1.59448e-06
0.0217367
-1.85411
-1.49961e-06
0.0217361
-1.85411
-1.38008e-06
0.0217356
-1.85411
-1.25022e-06
0.0217353
-1.85411
-1.11236e-06
0.021735
-1.85411
-9.87623e-07
0.0217349
-1.85411
-8.37852e-07
0.0217348
-1.85411
-5.82266e-07
0.0217347
-1.85411
-2.88447e-07
0.0217347
-1.85411
0.0217345
-1.85407
5.59687e-07
0.0147081
-1.86142
1.13954e-06
0.0147085
-1.86146
1.62342e-06
0.0147085
-1.86146
2.12743e-06
0.0147083
-1.86146
2.56606e-06
0.014708
-1.86146
2.89889e-06
0.0147077
-1.86146
3.14112e-06
0.0147073
-1.86146
3.27841e-06
0.0147069
-1.86146
3.31437e-06
0.0147065
-1.86146
3.249e-06
0.0147061
-1.86146
3.0896e-06
0.0147057
-1.86146
2.8487e-06
0.0147053
-1.86145
2.53938e-06
0.014705
-1.86145
2.18861e-06
0.0147048
-1.86145
1.80888e-06
0.0147046
-1.86145
1.4457e-06
0.0147045
-1.86145
1.08413e-06
0.0147044
-1.86145
6.57988e-07
0.0147044
-1.86145
3.03352e-07
0.0147042
-1.86145
0.0147039
-1.86141
1.20924e-08
0.00834208
-1.85159
4.22849e-09
0.00834265
-1.85164
-7.29913e-08
0.00834279
-1.85164
-1.23986e-07
0.00834258
-1.85164
-1.56664e-07
0.00834233
-1.85164
-1.8611e-07
0.00834197
-1.85164
-2.06202e-07
0.00834159
-1.85163
-2.24817e-07
0.00834116
-1.85163
-2.39016e-07
0.00834074
-1.85163
-2.52019e-07
0.00834032
-1.85163
-2.65172e-07
0.00833991
-1.85163
-2.78615e-07
0.00833955
-1.85163
-2.97779e-07
0.00833923
-1.85163
-3.17088e-07
0.00833899
-1.85163
-3.40895e-07
0.00833879
-1.85163
-3.49149e-07
0.00833868
-1.85163
-3.40082e-07
0.00833858
-1.85163
-3.21385e-07
0.00833853
-1.85163
-2.03749e-07
0.00833827
-1.85163
0.00833768
-1.85158
8.90239e-07
-1.85449
1.01442e-06
-1.85452
1.2352e-06
-1.85452
1.49364e-06
-1.85452
1.76815e-06
-1.85452
1.9811e-06
-1.85452
2.1405e-06
-1.85452
2.22306e-06
-1.85452
2.23401e-06
-1.85452
2.17048e-06
-1.85452
2.03832e-06
-1.85452
1.84561e-06
-1.85452
1.60592e-06
-1.85452
1.34338e-06
-1.85452
1.06079e-06
-1.85452
7.9126e-07
-1.85451
4.75104e-07
-1.85451
9.89369e-08
-1.85451
-3.73765e-07
-1.85452
-1.85448
5.36966e-08
-0.00183933
-1.85256
1.6608e-07
-0.00183888
-1.85261
3.67618e-07
-0.00183892
-1.85261
5.01962e-07
-0.0018389
-1.85261
6.29797e-07
-0.00183892
-1.85261
7.17874e-07
-0.00183892
-1.85261
7.86246e-07
-0.00183893
-1.85261
8.23669e-07
-0.00183894
-1.85261
8.37657e-07
-0.00183896
-1.85261
8.2745e-07
-0.00183899
-1.85261
7.96045e-07
-0.00183901
-1.85261
7.47934e-07
-0.00183905
-1.85261
6.84923e-07
-0.00183908
-1.8526
6.16536e-07
-0.00183913
-1.8526
5.37201e-07
-0.00183917
-1.8526
4.70197e-07
-0.00183923
-1.8526
3.85952e-07
-0.00183926
-1.8526
3.42343e-07
-0.00183932
-1.8526
1.92513e-07
-0.00183931
-1.8526
-0.00183978
-1.85256
-3.1418e-07
0.00151865
-1.85733
-4.19135e-07
0.00151906
-1.85738
-5.43578e-07
0.00151902
-1.85738
-6.60384e-07
0.00151903
-1.85738
-7.59447e-07
0.00151902
-1.85738
-8.41418e-07
0.00151903
-1.85738
-8.97981e-07
0.00151901
-1.85738
-9.32011e-07
0.00151901
-1.85738
-9.42507e-07
0.00151899
-1.85738
-9.3152e-07
0.00151897
-1.85738
-9.00501e-07
0.00151895
-1.85738
-8.50264e-07
0.00151892
-1.85738
-7.84452e-07
0.00151888
-1.85738
-7.02138e-07
0.00151883
-1.85738
-6.09689e-07
0.0015188
-1.85738
-4.99053e-07
0.00151874
-1.85738
-3.74499e-07
0.00151871
-1.85738
-2.21685e-07
0.00151865
-1.85738
-2.44319e-08
0.00151866
-1.85738
0.00151824
-1.85733
7.44212e-08
0.00457232
-1.8624
3.08459e-07
0.00457276
-1.86244
4.96147e-07
0.0045728
-1.86244
6.98912e-07
0.00457286
-1.86244
8.68972e-07
0.00457296
-1.86244
9.97611e-07
0.00457311
-1.86244
1.08995e-06
0.00457325
-1.86244
1.14696e-06
0.0045734
-1.86244
1.16882e-06
0.00457353
-1.86244
1.15764e-06
0.00457366
-1.86244
1.11693e-06
0.00457378
-1.86244
1.04967e-06
0.00457387
-1.86244
9.63692e-07
0.00457394
-1.86244
8.62939e-07
0.00457399
-1.86244
7.56606e-07
0.00457403
-1.86244
6.54523e-07
0.00457402
-1.86244
5.53728e-07
0.00457403
-1.86244
4.03273e-07
0.00457407
-1.86244
2.765e-07
0.00457409
-1.86244
0.00457367
-1.8624
-4.26228e-07
0.00980073
-1.8608
-7.21726e-07
0.0098012
-1.86084
-1.01276e-06
0.00980121
-1.86084
-1.29741e-06
0.00980126
-1.86084
-1.54194e-06
0.0098013
-1.86085
-1.72691e-06
0.00980137
-1.86085
-1.86126e-06
0.00980142
-1.86085
-1.94136e-06
0.00980148
-1.86085
-1.97107e-06
0.00980153
-1.86085
-1.95302e-06
0.00980158
-1.86085
-1.88975e-06
0.00980161
-1.86085
-1.78828e-06
0.00980164
-1.86085
-1.64969e-06
0.00980166
-1.86085
-1.48496e-06
0.00980166
-1.86085
-1.29293e-06
0.00980166
-1.86085
-1.09152e-06
0.00980165
-1.86085
-8.63596e-07
0.00980165
-1.86085
-5.78437e-07
0.00980163
-1.86085
-2.44356e-07
0.00980164
-1.86085
0.00980117
-1.86081
-1.90107e-08
0.0150429
-1.8651
8.75679e-08
0.0150434
-1.86514
1.76309e-07
0.0150435
-1.86514
2.39968e-07
0.0150436
-1.86514
2.91207e-07
0.0150436
-1.86514
3.33379e-07
0.0150437
-1.86514
3.62373e-07
0.0150438
-1.86514
3.77275e-07
0.0150439
-1.86514
3.79095e-07
0.015044
-1.86514
3.68321e-07
0.015044
-1.86514
3.4738e-07
0.0150441
-1.86514
3.18548e-07
0.0150442
-1.86514
2.84993e-07
0.0150442
-1.86514
2.50166e-07
0.0150442
-1.86514
2.15547e-07
0.0150442
-1.86514
1.80695e-07
0.0150442
-1.86514
1.47741e-07
0.0150442
-1.86514
1.32559e-07
0.0150442
-1.86514
1.32973e-07
0.0150442
-1.86514
0.0150437
-1.8651
-4.19971e-07
0.0218511
-1.8637
-7.47211e-07
0.0218517
-1.86375
-1.0631e-06
0.0218517
-1.86375
-1.33455e-06
0.0218517
-1.86375
-1.56585e-06
0.0218517
-1.86375
-1.7523e-06
0.0218518
-1.86375
-1.88742e-06
0.0218518
-1.86375
-1.9697e-06
0.0218518
-1.86375
-1.99964e-06
0.0218518
-1.86375
-1.97969e-06
0.0218517
-1.86375
-1.91293e-06
0.0218517
-1.86375
-1.80427e-06
0.0218517
-1.86375
-1.65858e-06
0.0218517
-1.86375
-1.48114e-06
0.0218517
-1.86375
-1.27801e-06
0.0218517
-1.86375
-1.04895e-06
0.0218517
-1.86375
-7.97151e-07
0.0218516
-1.86375
-5.3039e-07
0.0218516
-1.86375
-2.28663e-07
0.0218516
-1.86375
0.021851
-1.86371
-2.15817e-07
0.0286411
-1.86589
-3.19236e-07
0.0286418
-1.86594
-4.24011e-07
0.0286418
-1.86594
-5.30951e-07
0.0286418
-1.86594
-6.25336e-07
0.0286417
-1.86594
-7.03078e-07
0.0286417
-1.86594
-7.62798e-07
0.0286417
-1.86594
-8.03223e-07
0.0286416
-1.86594
-8.23384e-07
0.0286415
-1.86594
-8.23273e-07
0.0286414
-1.86594
-8.03112e-07
0.0286414
-1.86594
-7.62933e-07
0.0286413
-1.86594
-7.05694e-07
0.0286412
-1.86594
-6.32275e-07
0.0286412
-1.86594
-5.45708e-07
0.0286411
-1.86594
-4.47064e-07
0.0286411
-1.86594
-3.35786e-07
0.028641
-1.86594
-1.98864e-07
0.028641
-1.86594
-4.32395e-08
0.028641
-1.86594
0.0286403
-1.86589
-3.4379e-07
0.0363067
-1.86611
-6.07261e-07
0.0363074
-1.86616
-8.61736e-07
0.0363074
-1.86616
-1.08048e-06
0.0363072
-1.86616
-1.27103e-06
0.0363071
-1.86616
-1.42819e-06
0.0363069
-1.86616
-1.54597e-06
0.0363067
-1.86616
-1.62088e-06
0.0363064
-1.86616
-1.65228e-06
0.0363062
-1.86616
-1.63989e-06
0.0363059