/*--------------------------------*- C++ -*----------------------------------*\
| =========                 |                                                 |
| \\      /  F ield         | OpenFOAM: The Open Source CFD Toolbox           |
|  \\    /   O peration     | Version:  2212                                  |
|   \\  /    A nd           | Website:  www.openfoam.com                      |
|    \\/     M anipulation  |                                                 |
\*---------------------------------------------------------------------------*/
FoamFile
{
    version     2.0;
    format      ascii;
    arch        "LSB;label=32;scalar=64";
    class       volScalarField;
    location    "0.000189";
    object      T;
}
// * * * * * * * * * * * * * * * * * * * * * * * * * * * * * * * * * * * * * //

dimensions      [0 0 0 1 0 0 0];

internalField   nonuniform List<scalar> 
26145
(
12.0911
14.515
13.9303
14.1481
14.2771
14.3895
14.4797
14.5597
14.651
14.7314
14.8048
14.8483
14.8684
14.8636
14.8457
14.8195
14.776
14.7144
14.6319
14.5249
14.3973
14.2587
14.1208
13.9455
13.7076
13.4409
13.1879
12.9715
12.7952
12.6508
12.5343
12.4366
12.3478
12.2657
12.1878
12.1158
12.0515
11.9977
11.9523
11.9098
11.8671
11.8235
11.7778
11.7295
11.6802
11.6335
11.59
11.5508
11.5161
11.4854
11.4574
11.4315
11.4095
11.3912
11.3765
11.3655
11.3577
11.3521
11.3467
11.3372
11.3207
11.2974
11.2645
11.2204
11.1657
11.1111
11.0528
10.9893
10.9616
11.1195
11.8622
14.466
11.386
14.4479
13.6008
13.942
14.0696
14.2275
14.3453
14.4309
14.5362
14.6219
14.7208
14.7653
14.7818
14.7693
14.7504
14.7233
14.6823
14.6231
14.5408
14.4333
14.3076
14.1778
14.0417
13.8617
13.6174
13.3521
13.1023
12.8969
12.73
12.5915
12.4809
12.3861
12.3019
12.2248
12.1518
12.0827
12.0198
11.9669
11.9219
11.8799
11.8384
11.7949
11.7491
11.7015
11.6535
11.6077
11.5652
11.5268
11.4929
11.4628
11.4362
11.4118
11.3912
11.3749
11.3627
11.3541
11.3463
11.3413
11.3361
11.3264
11.3094
11.2845
11.2495
11.2037
11.1478
11.0926
11.0374
10.9774
10.9413
10.9974
11.3221
12.5284
11.1099
14.2607
13.3504
13.7182
13.8452
14.0132
14.1276
14.2192
14.3265
14.4184
14.521
14.565
14.5811
14.5662
14.5582
14.5291
14.4951
14.4432
14.3686
14.2738
14.1703
14.0561
13.9244
13.7225
13.463
13.1849
12.9549
12.7706
12.6222
12.4975
12.3968
12.3073
12.2283
12.1554
12.0859
12.0192
11.958
11.9061
11.8616
11.8204
11.7795
11.7373
11.6928
11.6453
11.5975
11.5511
11.5082
11.4691
11.4343
11.403
11.3758
11.3515
11.331
11.3147
11.3033
11.2981
11.2915
11.2868
11.2821
11.2731
11.2579
11.2348
11.2014
11.1563
11.1033
11.0548
11.0172
10.9844
10.9797
11.0195
11.1861
11.7427
10.9244
14.1289
13.1693
13.5327
13.6483
13.8003
13.9225
14.0137
14.1227
14.2123
14.3138
14.3576
14.3744
14.3676
14.3652
14.3414
14.32
14.2794
14.217
14.1343
14.0472
13.9555
13.81
13.5803
13.2861
13.0123
12.8078
12.6453
12.5135
12.4009
12.3082
12.2274
12.1509
12.0837
12.0183
11.9548
11.8961
11.8459
11.8025
11.7619
11.7214
11.6797
11.6359
11.5887
11.5413
11.4944
11.4507
11.4098
11.373
11.3391
11.3091
11.2823
11.2586
11.2402
11.2269
11.2209
11.2152
11.208
11.2021
11.193
11.1777
11.1552
11.1237
11.0811
11.0325
10.9921
10.9698
10.9654
10.9707
11.013
11.1042
11.3398
10.8017
14.0083
13.0201
13.3743
13.4778
13.6261
13.7457
13.8386
13.9485
14.0253
14.1307
14.1785
14.2001
14.2041
14.2055
14.1926
14.1824
14.1505
14.0967
14.0282
13.9654
13.8862
13.7103
13.424
13.0918
12.8503
12.6685
12.5263
12.4106
12.311
12.227
12.1528
12.0817
12.0178
11.9575
11.8963
11.8401
11.7913
11.749
11.7093
11.6695
11.6283
11.5851
11.5383
11.4916
11.4445
11.4006
11.3585
11.3205
11.2848
11.2528
11.2237
11.1974
11.1767
11.1613
11.1517
11.1455
11.1346
11.125
11.1144
11.0982
11.0763
11.047
11.0059
10.9596
10.9258
10.9037
10.906
10.9157
10.9441
10.9931
11.081
10.7154
13.9238
12.918
13.2719
13.3689
13.5149
13.6301
13.7271
13.832
13.8952
13.9898
14.039
14.0807
14.0965
14.1037
14.1002
14.0984
14.0757
14.0321
13.983
13.9464
13.8434
13.6182
13.2511
12.9214
12.7138
12.5549
12.4298
12.3275
12.2384
12.1614
12.092
12.0266
11.9622
11.9074
11.8478
11.7935
11.7457
11.7042
11.6651
11.6259
11.5851
11.5425
11.496
11.4499
11.4029
11.3592
11.3163
11.2778
11.241
11.2078
11.177
11.1489
11.1263
11.1095
11.0978
11.0895
11.0773
11.0648
11.052
11.0342
11.0117
10.9821
10.9421
10.8992
10.8646
10.8394
10.8288
10.8331
10.8445
10.8671
10.9003
10.656
13.8596
12.8421
13.1973
13.2914
13.4373
13.5547
13.6516
13.7526
13.8098
13.8917
13.9296
13.9811
14.0084
14.0323
14.0423
14.0465
14.0382
14.0129
13.9909
13.9692
13.812
13.4929
13.073
12.7815
12.6016
12.4641
12.353
12.2615
12.1802
12.1081
12.0423
11.9809
11.9162
11.8654
11.8069
11.754
11.707
11.6658
11.6272
11.5883
11.5478
11.5056
11.4593
11.4135
11.3664
11.3231
11.2796
11.2408
11.2038
11.1696
11.1378
11.1086
11.0849
11.0666
11.0536
11.043
11.03
11.0154
11.0007
10.9819
10.9601
10.9311
10.8909
10.8463
10.8025
10.7637
10.7367
10.7205
10.7137
10.7128
10.7172
10.6279
13.8295
12.8061
13.159
13.2504
13.3953
13.51
13.6019
13.6984
13.7527
13.8347
13.8755
13.9307
13.9563
13.991
14.0181
14.0359
14.0421
14.0398
14.0353
14.0066
13.7843
13.318
12.9105
12.6723
12.513
12.3928
12.293
12.2097
12.1341
12.0656
12.0024
11.9432
11.8802
11.8307
11.7729
11.721
11.6745
11.6334
11.5949
11.5561
11.5157
11.4737
11.4274
11.3818
11.3346
11.2916
11.2476
11.2085
11.1718
11.1367
11.1043
11.0745
11.0501
11.0309
11.0165
11.004
10.9901
10.9744
10.958
10.9385
10.9173
10.8886
10.8465
10.7942
10.7311
10.667
10.6142
10.5815
10.5577
10.5463
10.5419
10.6107
13.8125
12.7884
13.1368
13.2297
13.367
13.4765
13.5657
13.6641
13.7157
13.7964
13.842
13.903
13.9354
13.9737
14.0028
14.047
14.0876
14.109
14.1142
14.0263
13.7062
13.147
12.7799
12.5849
12.444
12.3369
12.2457
12.1683
12.0968
12.0309
11.9693
11.9112
11.8511
11.8011
11.7436
11.6927
11.6464
11.6053
11.5666
11.5278
11.4874
11.4455
11.3992
11.3535
11.3062
11.2633
11.219
11.1793
11.143
11.1073
11.0741
11.0439
11.0191
10.9991
10.9834
10.9695
10.9545
10.938
10.9204
10.9003
10.8793
10.8509
10.8073
10.7468
10.6657
10.5723
10.4886
10.433
10.403
10.3805
10.3718
10.6036
13.8046
12.7783
13.124
13.2153
13.3466
13.4556
13.5452
13.6422
13.692
13.7737
13.8243
13.8891
13.928
13.9691
14.0115
14.0844
14.1385
14.1868
14.2082
14.0288
13.5033
12.9953
12.6833
12.516
12.3907
12.2932
12.2085
12.1353
12.0669
12.0029
11.9423
11.8843
11.8277
11.7762
11.7189
11.6685
11.6224
11.5813
11.5423
11.5033
11.4628
11.4209
11.3745
11.3285
11.2811
11.238
11.1938
11.1532
11.1172
11.0811
11.0473
11.0166
10.9913
10.9707
10.9538
10.9385
10.9224
10.9049
10.8863
10.8658
10.8444
10.8161
10.7713
10.7054
10.6101
10.4914
10.3742
10.2877
10.2398
10.211
10.1905
10.6002
13.7989
12.7732
13.1152
13.2042
13.3331
13.4419
13.5302
13.6271
13.6772
13.7582
13.8131
13.8824
13.9249
13.973
14.0328
14.1419
14.2177
14.2571
14.295
14.0028
13.3317
12.8703
12.6125
12.4627
12.349
12.2588
12.1789
12.1085
12.0424
11.9797
11.9199
11.8612
11.8081
11.755
11.6977
11.6477
11.6015
11.5603
11.5212
11.4819
11.4412
11.3992
11.3528
11.3064
11.2591
11.2154
11.1714
11.13
11.094
11.0577
11.023
10.9916
10.9658
10.9446
10.9267
10.9102
10.8927
10.8741
10.8544
10.8334
10.8114
10.7829
10.7373
10.6684
10.5638
10.4267
10.281
10.1636
10.0885
10.0386
10.0088
10.5961
13.7946
12.7664
13.1083
13.1973
13.325
13.432
13.5197
13.617
13.6679
13.7487
13.8085
13.8791
13.9278
13.9869
14.057
14.1945
14.3123
14.3611
14.3339
13.8742
13.1812
12.7711
12.5557
12.4193
12.3149
12.2302
12.1541
12.0858
12.0214
11.9595
11.9006
11.8407
11.7905
11.7361
11.679
11.6289
11.5826
11.5413
11.502
11.4625
11.4216
11.3794
11.333
11.286
11.2389
11.1945
11.1509
11.1087
11.0725
11.0362
11.0007
10.9685
10.9419
10.92
10.9011
10.8835
10.8646
10.8447
10.8239
10.8025
10.7799
10.7509
10.705
10.6347
10.5249
10.3754
10.2086
10.0646
9.96172
9.88623
9.84072
10.5884
13.7917
12.7612
13.1047
13.1941
13.3194
13.4244
13.5119
13.6097
13.6633
13.7438
13.8057
13.879
13.9376
14.0161
14.1015
14.2477
14.4162
14.4967
14.3479
13.6546
13.0464
12.6891
12.5057
12.3827
12.2858
12.2054
12.1323
12.0656
12.0025
11.941
11.8834
11.822
11.7737
11.7183
11.6617
11.6114
11.5648
11.5234
11.4839
11.4442
11.4032
11.3607
11.3144
11.2668
11.2202
11.1749
11.1316
11.0889
11.0522
11.016
10.9798
10.9467
10.9192
10.8964
10.8764
10.8577
10.8376
10.8167
10.7948
10.7728
10.7498
10.7206
10.6743
10.603
10.4906
10.3337
10.1535
9.99015
9.86516
9.76662
9.7029
10.5816
13.791
12.7543
13.1021
13.1917
13.316
13.4199
13.5072
13.6062
13.6617
13.742
13.8073
13.8871
13.9621
14.0533
14.1688
14.3372
14.5118
14.6328
14.3244
13.4792
12.9278
12.6182
12.4626
12.3512
12.2605
12.1835
12.1126
12.0473
11.9852
11.9236
11.8676
11.8042
11.757
11.7008
11.6449
11.5943
11.5474
11.5059
11.4662
11.4263
11.3851
11.3424
11.2962
11.248
11.2019
11.1559
11.1128
11.0699
11.0327
10.9965
10.9597
10.9257
10.8973
10.8734
10.8523
10.8324
10.8114
10.7896
10.767
10.7443
10.7211
10.6924
10.6455
10.5739
10.4608
10.301
10.1125
9.93633
9.79607
9.67999
9.60086
10.5767
13.791
12.7485
13.1001
13.1903
13.3156
13.4186
13.5057
13.6054
13.6647
13.7464
13.8176
13.9106
13.9991
14.0945
14.2424
14.4837
14.6174
14.724
14.1327
13.3077
12.8219
12.5666
12.4257
12.3239
12.2383
12.164
12.095
12.0306
11.9691
11.9071
11.8516
11.7882
11.7404
11.6833
11.6283
11.5773
11.53
11.4883
11.4483
11.4083
11.367
11.324
11.2779
11.2293
11.1835
11.1372
11.0941
11.051
11.0132
10.9769
10.9396
10.9047
10.8753
10.8502
10.8278
10.8066
10.7848
10.7624
10.7392
10.716
10.6926
10.6644
10.6174
10.5458
10.4339
10.2761
10.0862
9.90081
9.7474
9.61908
9.52727
10.5752
13.7905
12.7459
13.1003
13.1919
13.319
13.422
13.5096
13.6104
13.6762
13.7623
13.8452
13.954
14.0551
14.1565
14.3055
14.6334
14.8007
14.7534
13.8935
13.1474
12.7322
12.5223
12.394
12.3001
12.2186
12.1464
12.0786
12.0147
11.9535
11.8906
11.8339
11.7738
11.7236
11.6653
11.6109
11.5594
11.5117
11.4697
11.4295
11.3891
11.3477
11.3044
11.2584
11.2094
11.164
11.1174
11.0743
11.0312
10.9928
10.9564
10.9187
10.8829
10.8523
10.8259
10.8021
10.7794
10.7568
10.7339
10.7102
10.6866
10.663
10.6352
10.589
10.5178
10.4084
10.256
10.0706
9.88243
9.7205
9.57941
9.47542
10.5766
13.7921
12.7476
13.1052
13.1994
13.3309
13.4351
13.525
13.6274
13.7024
13.7986
13.8901
14.001
14.1163
14.2409
14.4227
14.7503
14.9857
14.7116
13.6902
13.0147
12.661
12.485
12.3686
12.2803
12.2018
12.1308
12.0639
12.0003
11.939
11.8756
11.8169
11.7604
11.7075
11.648
11.5937
11.5416
11.4935
11.451
11.4102
11.3694
11.3277
11.2841
11.2381
11.1888
11.1435
11.0969
11.0535
11.0106
10.9715
10.9348
10.8967
10.8599
10.8279
10.7999
10.7746
10.7502
10.7264
10.7028
10.6787
10.6548
10.6308
10.6033
10.5587
10.4887
10.3834
10.239
10.0623
9.87936
9.71764
9.57111
9.45795
10.5813
13.7971
12.754
13.1193
13.2162
13.3526
13.4566
13.5517
13.6606
13.7464
13.8483
13.9427
14.0554
14.1753
14.3241
14.5876
14.8647
15.1028
14.4566
13.4981
12.9086
12.6018
12.4533
12.3467
12.2629
12.1868
12.1168
12.0505
11.9867
11.925
11.8613
11.8
11.7466
11.691
11.6306
11.576
11.523
11.4745
11.4314
11.3901
11.3487
11.3067
11.2627
11.2166
11.167
11.1217
11.0749
11.0314
10.9887
10.949
10.9119
10.8736
10.8358
10.8025
10.7729
10.7459
10.7197
10.6942
10.6695
10.6447
10.6203
10.5957
10.5684
10.526
10.4587
10.3589
10.2242
10.0581
9.88131
9.72062
9.57389
9.45984
10.5884
13.8078
12.7636
13.1342
13.2301
13.3732
13.4787
13.581
13.6964
13.7911
13.8986
13.9982
14.116
14.2383
14.4044
14.7686
14.994
15.1507
14.2163
13.3228
12.8186
12.5619
12.4265
12.3279
12.248
12.174
12.1044
12.0384
11.9737
11.9114
11.8483
11.7841
11.7328
11.675
11.6143
11.5588
11.5049
11.4558
11.4121
11.3701
11.3281
11.2855
11.241
11.1948
11.1447
11.0994
11.0524
11.0087
10.9661
10.9257
10.888
10.8496
10.8108
10.7759
10.7445
10.716
10.688
10.6605
10.6344
10.6085
10.5834
10.5581
10.5305
10.4905
10.4271
10.334
10.2095
10.0548
9.88549
9.72587
9.57924
9.46465
10.6009
13.8202
12.7752
13.1507
13.2491
13.4004
13.5083
13.6162
13.7345
13.8352
13.9477
14.053
14.177
14.3072
14.4971
14.8925
15.1735
15.1373
13.9947
13.1748
12.7412
12.5252
12.4014
12.3095
12.2328
12.1607
12.0913
12.0259
11.9607
11.8976
11.8358
11.7685
11.7177
11.6581
11.5977
11.5411
11.4862
11.4365
11.3921
11.3495
11.3069
11.2638
11.2188
11.1723
11.1217
11.0762
11.0289
10.985
10.9426
10.9016
10.8631
10.8246
10.7848
10.7481
10.7148
10.6846
10.6547
10.6251
10.5971
10.5699
10.5439
10.5177
10.4896
10.4518
10.393
10.3074
10.1935
10.0515
9.89006
9.73272
9.58609
9.47176
10.6129
13.8346
12.7902
13.1725
13.2738
13.4329
13.5438
13.6542
13.7726
13.8778
13.995
14.1057
14.2354
14.38
14.6095
14.9926
15.3299
14.934
13.7898
13.0552
12.6797
12.4951
12.3827
12.2963
12.2223
12.1516
12.0819
12.0164
11.9503
11.8859
11.8228
11.7571
11.7036
11.6418
11.5818
11.5243
11.4685
11.4181
11.373
11.3297
11.2863
11.2426
11.197
11.1501
11.0991
11.0533
11.0057
10.9614
10.9189
10.8774
10.8377
10.7989
10.7583
10.7196
10.6841
10.652
10.6204
10.5884
10.5582
10.5291
10.5016
10.4742
10.4452
10.4091
10.3551
10.2771
10.1736
10.0446
9.89385
9.74106
9.59496
9.48115
10.6286
13.852
12.8086
13.1972
13.3018
13.4678
13.5807
13.693
13.8101
13.9176
14.0384
14.1548
14.2893
14.4526
14.7391
15.0907
15.4272
14.6735
13.6115
12.956
12.6305
12.4703
12.3663
12.2833
12.2105
12.1403
12.0706
12.0049
11.9382
11.8728
11.8068
11.7459
11.6888
11.6252
11.5653
11.5068
11.4503
11.3992
11.3534
11.3094
11.2655
11.2212
11.1754
11.1279
11.0766
11.0303
10.9827
10.938
10.8955
10.8535
10.8126
10.7731
10.7319
10.6913
10.6535
10.6192
10.5858
10.5515
10.5188
10.4871
10.4573
10.4285
10.3982
10.3629
10.3134
10.2429
10.15
10.0341
9.89684
9.75004
9.60811
9.49404
10.6465
13.8771
12.8304
13.2241
13.331
13.5033
13.6177
13.7325
13.8476
13.9558
14.0791
14.2015
14.3407
14.5239
14.8865
15.1929
15.4709
14.4584
13.4499
12.8783
12.5908
12.4489
12.3513
12.2711
12.1994
12.1298
12.0604
11.9947
11.9276
11.862
11.7924
11.7353
11.675
11.6103
11.5503
11.4907
11.4335
11.3816
11.3348
11.2899
11.2452
11.2
11.1537
11.1055
11.054
11.007
10.9595
10.9142
10.8716
10.8293
10.7874
10.7469
10.7051
10.6628
10.6228
10.586
10.5508
10.5144
10.4791
10.4446
10.4118
10.3809
10.3489
10.3135
10.2674
10.2039
10.1213
10.0187
9.89624
9.75808
9.62691
9.51364
10.667
13.9071
12.8546
13.2522
13.3609
13.54
13.6561
13.7733
13.8862
13.9943
14.1197
14.2487
14.3951
14.599
15.0301
15.3226
15.4741
14.2392
13.3087
12.8097
12.5647
12.432
12.34
12.2624
12.1917
12.1223
12.0524
11.9855
11.9169
11.8512
11.778
11.723
11.6602
11.5951
11.5342
11.4735
11.4157
11.3631
11.3156
11.2702
11.225
11.1792
11.1326
11.0837
11.0323
10.9843
10.9368
10.891
10.8481
10.8055
10.7627
10.7209
10.6782
10.6342
10.5919
10.5526
10.5153
10.4767
10.4388
10.4015
10.3653
10.3317
10.2979
10.2616
10.2177
10.1601
10.0869
9.9974
9.8898
9.76508
9.63744
9.53576
10.6895
13.9417
12.8805
13.2832
13.3923
13.5791
13.6964
13.8165
13.9273
14.035
14.1622
14.2973
14.4567
14.6904
15.1311
15.493
15.2858
14.0263
13.1877
12.7539
12.5438
12.4213
12.3334
12.2577
12.1873
12.1174
12.047
11.9786
11.908
11.8427
11.7652
11.7108
11.6452
11.5802
11.5184
11.4562
11.3976
11.3442
11.296
11.25
11.2044
11.1578
11.1111
11.0613
11.0103
10.9612
10.9139
10.8677
10.8246
10.7816
10.738
10.6949
10.6514
10.6055
10.561
10.5187
10.4791
10.4382
10.3976
10.3577
10.3183
10.2815
10.2457
10.208
10.165
10.1122
10.0471
9.9698
9.87736
9.77046
9.64651
9.54669
10.7121
13.9771
12.9101
13.3159
13.4249
13.6185
13.7381
13.8618
13.9711
14.0783
14.2071
14.3484
14.5259
14.8063
15.2271
15.6139
15.0115
13.8314
13.0853
12.7075
12.5265
12.4128
12.3283
12.2538
12.1831
12.1127
12.0412
11.9713
11.8983
11.8299
11.7561
11.6975
11.6293
11.5648
11.5021
11.4389
11.3795
11.3251
11.2761
11.2292
11.1831
11.1358
11.0892
11.0384
10.988
10.938
10.8906
10.8441
10.8009
10.7575
10.7135
10.6691
10.6247
10.5773
10.5308
10.4855
10.4433
10.4001
10.3564
10.3134
10.2706
10.2302
10.1918
10.1525
10.1093
10.0597
10.0011
9.93399
9.85668
9.77116
9.655
9.5561
10.7365
14.0155
12.9397
13.3515
13.4591
13.6572
13.779
13.9072
14.0172
14.1244
14.2546
14.4013
14.6007
14.9381
15.3221
15.674
14.7775
13.661
12.9978
12.668
12.5121
12.4052
12.323
12.2492
12.1779
12.1071
12.034
11.9626
11.8875
11.8145
11.7463
11.6826
11.6125
11.5478
11.4839
11.4195
11.359
11.3036
11.2537
11.206
11.1596
11.1116
11.0652
11.0137
10.964
10.9137
10.8664
10.8199
10.7767
10.7331
10.689
10.6435
10.5986
10.55
10.5018
10.454
10.4089
10.3634
10.3168
10.2705
10.2242
10.1796
10.1378
10.0963
10.0522
10.0043
9.95036
9.89107
9.82544
9.762
9.66052
9.56466
10.7602
14.051
12.9712
13.3869
13.4931
13.6933
13.8174
13.9512
14.0642
14.1723
14.3034
14.4551
14.6786
15.0793
15.4084
15.6924
14.5387
13.506
12.929
12.6399
12.4984
12.3965
12.3157
12.2422
12.1698
12.0982
12.0229
11.9494
11.8734
11.7959
11.7315
11.6642
11.5931
11.5275
11.462
11.3963
11.3348
11.2786
11.2281
11.1798
11.1331
11.0846
11.0385
10.9867
10.9377
10.8875
10.8407
10.7946
10.7516
10.7081
10.6642
10.6181
10.5726
10.5233
10.474
10.4241
10.3763
10.3286
10.2794
10.23
10.1803
10.1316
10.0856
10.0411
9.99486
9.9469
9.89542
9.84164
9.78365
9.72753
9.65731
9.56971
10.7869
14.0899
13.003
13.4259
13.5303
13.7303
13.8565
13.9957
14.1134
14.2235
14.3555
14.5135
14.7661
15.1899
15.5283
15.5626
14.3046
13.367
12.864
12.6155
12.483
12.3851
12.3048
12.2304
12.157
12.084
12.0068
11.9314
11.8556
11.7736
11.7112
11.6407
11.5697
11.503
11.4358
11.3689
11.3065
11.2496
11.1987
11.15
11.1032
11.0544
11.0086
10.9569
10.9085
10.8585
10.8122
10.7669
10.7244
10.6812
10.6381
10.5916
10.5458
10.4961
10.446
10.3948
10.3446
10.2947
10.2435
10.1915
10.1391
10.0867
10.036
9.98749
9.93822
9.88857
9.83745
9.7868
9.73376
9.6829
9.63314
9.56531
10.8101
14.123
13.0349
13.4631
13.5671
13.7672
13.8929
14.0368
14.1587
14.2713
14.4044
14.5713
14.8638
15.2742
15.643
15.2805
14.0843
13.2433
12.804
12.5879
12.464
12.3689
12.2889
12.2136
12.1399
12.0652
11.9866
11.9092
11.8315
11.7508
11.6864
11.6132
11.5428
11.4747
11.406
11.3382
11.2749
11.2173
11.1659
11.1168
11.0698
11.0208
10.9751
10.9239
10.8762
10.8266
10.781
10.7366
10.6948
10.6521
10.61
10.5637
10.5174
10.4678
10.4171
10.3652
10.3128
10.2609
10.208
10.1542
10.0996
10.0445
9.98979
9.93724
9.88455
9.83194
9.77899
9.72875
9.67812
9.63158
9.58374
9.54049
10.8365
14.1601
13.0674
13.5054
13.6086
13.8078
13.9316
14.0782
14.2033
14.3193
14.4526
14.6308
14.9765
15.3537
15.7103
15.0445
13.881
13.1309
12.7482
12.5595
12.4426
12.3494
12.269
12.1929
12.1187
12.0428
11.963
11.8839
11.8027
11.7282
11.6598
11.5845
11.5142
11.4447
11.3747
11.3061
11.242
11.1838
11.1318
11.0822
11.0349
10.9857
10.9399
10.889
10.8418
10.7927
10.7473
10.7039
10.663
10.6209
10.5798
10.5343
10.4876
10.438
10.3871
10.3349
10.281
10.227
10.1726
10.1174
10.0614
10.0045
9.94657
9.89018
9.83434
9.77866
9.72265
9.67035
9.61914
9.57429
9.52981
9.4914
10.8576
14.1907
13.0969
13.5427
13.6461
13.8454
13.964
14.1131
14.2402
14.3616
14.4965
14.6858
15.0925
15.4196
15.7467
14.7905
13.6989
13.0314
12.6925
12.5294
12.4182
12.3267
12.2462
12.1702
12.0952
12.0188
11.9379
11.8584
11.7735
11.7052
11.6331
11.557
11.4868
11.4163
11.3454
11.2761
11.2112
11.1523
11.0996
11.0494
11.0014
10.9519
10.9055
10.8549
10.8078
10.759
10.7132
10.6703
10.63
10.5882
10.5477
10.5035
10.4568
10.4071
10.356
10.3039
10.2493
10.1934
10.1372
10.0806
10.0234
9.96539
9.90504
9.84507
9.78638
9.72834
9.66949
9.61411
9.56008
9.51412
9.46995
9.43415
10.8813
14.224
13.1248
13.5836
13.6858
13.8852
13.9984
14.1474
14.2739
14.4008
14.5415
14.7452
15.2062
15.4687
15.6921
14.5333
13.5267
12.9439
12.6507
12.4998
12.3937
12.3042
12.2242
12.1492
12.0735
11.9973
11.9156
11.8372
11.7489
11.6848
11.6097
11.5334
11.4625
11.3905
11.3188
11.2488
11.1832
11.1236
11.0701
11.0191
10.9704
10.9204
10.8734
10.8228
10.7756
10.7271
10.6804
10.6373
10.597
10.5552
10.5143
10.4712
10.4248
10.3751
10.3238
10.2717
10.2169
10.1597
10.1018
10.0438
9.98557
9.92682
9.86494
9.80183
9.74014
9.68008
9.61919
9.56119
9.50382
9.45503
9.40899
9.37285
10.9015
14.2499
13.1485
13.614
13.716
13.9166
14.0246
14.1738
14.2976
14.4308
14.5852
14.8071
15.2702
15.5591
15.4289
14.2966
13.3806
12.8693
12.617
12.4757
12.3739
12.2862
12.2071
12.1332
12.0571
11.9811
11.8986
11.8205
11.7327
11.6689
11.5916
11.5159
11.4441
11.3709
11.2981
11.2272
11.1605
11.0998
11.0452
10.993
10.9431
10.8922
10.8439
10.7931
10.7453
10.697
10.6494
10.6057
10.5651
10.523
10.4811
10.4382
10.3921
10.3425
10.2908
10.2387
10.1842
10.1263
10.0668
10.0073
9.94798
9.88882
9.82632
9.76088
9.69607
9.63372
9.57111
9.51125
9.45122
9.39951
9.35076
9.31278
10.921
14.2769
13.1711
13.6457
13.7481
13.9507
14.0566
14.2071
14.328
14.4638
14.6331
14.8859
15.3313
15.643
15.2185
14.0877
13.261
12.8104
12.591
12.4589
12.3608
12.2749
12.1965
12.1226
12.0461
11.9701
11.8869
11.8067
11.7252
11.6579
11.5781
11.5023
11.4293
11.3546
11.2808
11.209
11.1414
11.0799
11.0243
10.9708
10.9195
10.8677
10.818
10.7667
10.7179
10.6697
10.6212
10.5767
10.5355
10.4931
10.4498
10.4063
10.3599
10.31
10.2577
10.2052
10.151
10.093
10.0325
9.97148
9.91084
9.85119
9.78865
9.722
9.65466
9.58996
9.52549
9.46401
9.40189
9.34763
9.29607
9.2558
10.9409
14.3044
13.1946
13.6752
13.7779
13.9837
14.0887
14.2414
14.3598
14.4956
14.6816
14.9792
15.3896
15.706
15.0108
13.9073
13.1625
12.7668
12.5794
12.4579
12.3629
12.2786
12.2009
12.127
12.0498
11.973
11.8885
11.8022
11.7287
11.656
11.5732
11.4968
11.4216
11.3448
11.2691
11.1958
11.127
11.0641
11.007
10.9522
10.8995
10.8468
10.7959
10.7442
10.6944
10.6463
10.5972
10.5516
10.5094
10.4665
10.4218
10.3769
10.3297
10.2789
10.2254
10.1718
10.1174
10.0596
9.99853
9.93633
9.87437
9.81398
9.75155
9.68463
9.61573
9.54907
9.48273
9.41954
9.35544
9.29882
9.24449
9.20188
10.9595
14.3313
13.2171
13.7066
13.812
14.0215
14.1257
14.2827
14.4022
14.5393
14.7417
15.1013
15.4488
15.759
14.8133
13.7679
13.1012
12.7538
12.5897
12.4741
12.3824
12.3001
12.2226
12.1484
12.0704
11.9922
11.9074
11.818
11.7477
11.6711
11.5865
11.5083
11.4305
11.3512
11.2727
11.196
11.1231
11.0567
10.9967
10.9399
10.8854
10.8312
10.7785
10.7258
10.6748
10.6263
10.5768
10.5302
10.4869
10.4435
10.3977
10.3514
10.3029
10.2507
10.1955
10.14
10.0846
10.0265
9.96512
9.90191
9.83864
9.77714
9.7146
9.64788
9.57831
9.51037
9.44245
9.3777
9.31178
9.25296
9.19592
9.15096
10.9778
14.3601
13.2436
13.7428
13.8521
14.0689
14.175
14.3391
14.4634
14.6055
14.8252
15.2531
15.5168
15.7388
14.6311
13.6611
13.0851
12.7769
12.6327
12.5241
12.4323
12.3518
12.2757
12.2027
12.1261
12.0483
11.9622
11.873
11.8034
11.7205
11.6323
11.5493
11.4648
11.3776
11.2938
11.2124
11.1352
11.0647
11.0008
10.9391
10.8792
10.8212
10.7659
10.7128
10.6606
10.6118
10.5617
10.514
10.4691
10.4246
10.3777
10.3299
10.2803
10.2265
10.1694
10.1114
10.0539
9.99476
9.93258
9.86827
9.80365
9.74084
9.67785
9.61142
9.54177
9.47321
9.40431
9.33845
9.27119
9.21058
9.1511
9.10383
11.0038
14.3999
13.2773
13.7882
13.9029
14.1288
14.2375
14.4085
14.5406
14.6906
14.9319
15.4023
15.6473
15.5911
14.4768
13.5936
13.0875
12.8264
12.6884
12.5837
12.4927
12.4139
12.3375
12.2648
12.1885
12.1102
12.0249
11.9379
11.8691
11.7859
11.6984
11.6157
11.5311
11.4454
11.3561
11.2657
11.1776
11.0943
11.0224
10.9542
10.8892
10.8269
10.7666
10.7076
10.6504
10.5987
10.5485
10.501
10.4557
10.4108
10.363
10.3135
10.2622
10.2066
10.1473
10.0866
10.0264
9.96523
9.90168
9.83597
9.76987
9.7055
9.64162
9.57525
9.50577
9.43708
9.36782
9.3014
9.23335
9.1715
9.11003
9.06077
11.0348
14.4457
13.3202
13.8443
13.965
14.2041
14.3184
14.4993
14.6413
14.8109
15.0668
15.5628
15.9165
15.4935
14.355
13.5575
13.1116
12.8881
12.7525
12.6515
12.5629
12.4862
12.409
12.3365
12.2603
12.1817
12.0958
12.0098
11.9408
11.8565
11.7691
11.6867
11.6025
11.5193
11.4301
11.3406
11.2523
11.1697
11.088
11.0058
10.924
10.8518
10.7824
10.7178
10.6562
10.6015
10.5479
10.4959
10.447
10.3991
10.35
10.3007
10.2494
10.1927
10.1311
10.0673
10.0034
9.93938
9.87371
9.80597
9.73785
9.67148
9.60627
9.53957
9.4702
9.40157
9.33231
9.26574
9.19743
9.13493
9.07212
9.02131
11.0812
14.5099
13.3832
13.9228
14.0499
14.3024
14.4239
14.6182
14.7792
14.977
15.2651
15.7337
16.1261
15.4062
14.2866
13.5767
13.1741
12.9686
12.8396
12.7427
12.6551
12.5808
12.5037
12.4316
12.3553
12.2764
12.1884
12.1032
12.0325
11.946
11.8562
11.7718
11.6855
11.5972
11.5056
11.415
11.3271
11.2469
11.1666
11.0864
11.0069
10.9206
10.8324
10.7532
10.6817
10.6185
10.5589
10.5034
10.452
10.4019
10.35
10.2954
10.24
10.181
10.119
10.0538
9.98756
9.92052
9.85193
9.78143
9.71071
9.64171
9.57424
9.50624
9.43631
9.36735
9.29798
9.23131
9.16294
9.10013
9.03652
8.98459
11.1555
14.6107
13.4859
14.0436
14.1795
14.446
14.5737
14.7776
14.9505
15.1996
15.5533
15.958
16.3651
15.3957
14.3249
13.6493
13.2829
13.0997
12.98
12.8875
12.8001
12.7258
12.6476
12.5744
12.4959
12.4136
12.3181
12.2306
12.1532
12.0611
11.9682
11.8802
11.7944
11.6981
11.6027
11.5094
11.4194
11.3366
11.2535
11.171
11.0897
11.0034
10.9172
10.8332
10.7445
10.6625
10.5929
10.5288
10.4708
10.4154
10.3585
10.3005
10.2427
10.1817
10.1152
10.0454
9.97457
9.90506
9.83532
9.76307
9.68996
9.61795
9.54742
9.47698
9.40544
9.33547
9.26575
9.19894
9.1306
9.06768
9.00366
8.95089
11.2816
14.7899
13.6627
14.2464
14.3949
14.687
14.8299
15.052
15.2406
15.5369
15.9753
16.2902
16.643
15.4767
14.4558
13.8343
13.5063
13.3502
13.2403
13.1523
13.063
12.9863
12.9032
12.8249
12.7397
12.6491
12.5396
12.4468
12.3581
12.2549
12.15
12.048
11.9448
11.8374
11.7373
11.6388
11.5407
11.4463
11.3567
11.2706
11.1865
11.0998
11.0133
10.9277
10.8367
10.7511
10.6647
10.5811
10.5122
10.4475
10.3822
10.3178
10.2548
10.1892
10.1202
10.0484
9.97538
9.90088
9.82577
9.74951
9.67335
9.5985
9.52516
9.4521
9.37854
9.30696
9.23637
9.16916
9.10078
9.03784
8.97374
8.9204
11.515
15.1254
13.9988
14.6321
14.8103
15.1492
15.329
15.59
15.8013
16.1292
16.6446
16.9022
17.0335
15.7919
14.8171
14.2862
14.0089
13.8716
13.7685
13.6814
13.5849
13.4983
13.4009
13.3076
13.203
13.0881
12.9476
12.8339
12.7194
12.5906
12.4616
12.3405
12.2092
12.0805
11.9499
11.8249
11.712
11.603
11.5044
11.4078
11.3111
11.2134
11.121
11.0284
10.9383
10.8561
10.7725
10.6884
10.6008
10.512
10.4331
10.3563
10.2829
10.2101
10.1361
10.0599
9.98269
9.90522
9.82784
9.74967
9.67072
9.59208
9.51398
9.43626
9.35891
9.28437
9.21157
9.14307
9.07421
9.01109
8.94709
8.8934
12.0004
15.8366
14.7111
15.4501
15.6947
16.1223
16.3506
16.6738
16.906
17.2567
17.8931
18.2138
17.805
16.5675
15.7293
15.3121
15.1042
14.9842
14.8856
14.7906
14.6709
14.5545
14.4183
14.2874
14.1371
13.9661
13.7598
13.5918
13.4189
13.2323
13.0477
12.8712
12.6874
12.5074
12.3293
12.1609
12.0008
11.8433
11.7121
11.6
11.4832
11.3709
11.2693
11.163
11.064
10.9727
10.8821
10.7969
10.7128
10.6291
10.5319
10.4281
10.3363
10.2489
10.1645
10.0814
9.99865
9.9164
9.83542
9.75459
9.67412
9.59424
9.5147
9.43449
9.35253
9.27226
9.19533
9.12378
9.05298
8.98857
8.92402
8.86961
13.0407
17.3364
16.1845
17.1236
17.4028
17.9356
18.189
18.6018
18.847
19.1709
19.8552
20.41
19.4453
18.2389
17.5136
17.146
16.9664
16.8336
16.7176
16.6064
16.4692
16.3228
16.1553
15.9848
15.7798
15.5268
15.2372
14.9804
14.7136
14.4244
14.1339
13.8568
13.5847
13.3034
13.0274
12.7664
12.5219
12.2946
12.0915
11.917
11.7389
11.5934
11.4668
11.3417
11.2305
11.1252
11.0246
10.9326
10.8414
10.7507
10.6499
10.5468
10.4343
10.3196
10.2168
10.1197
10.0264
9.93589
9.84887
9.76429
9.68159
9.60006
9.51873
9.43665
9.35311
9.26967
9.18725
9.11136
9.03779
8.97129
8.9056
8.85005
14.7243
19.5796
18.0564
18.9857
19.081
19.4732
19.5776
19.9573
20.3427
20.7709
21.1348
21.5739
20.0691
18.7838
18.0984
17.7667
17.5821
17.4615
17.3646
17.2777
17.1988
17.1209
17.0334
16.9347
16.8047
16.6355
16.4692
16.3142
16.1364
15.9224
15.6753
15.3823
15.0294
14.6384
14.227
13.8285
13.4576
13.0946
12.762
12.4807
12.1985
11.9532
11.759
11.5857
11.4445
11.3168
11.2029
11.0965
10.9928
10.8916
10.784
10.6746
10.5546
10.4334
10.3041
10.1839
10.0743
9.97172
9.87555
9.78398
9.69645
9.61141
9.52709
9.4424
9.35651
9.27095
9.18631
9.10588
9.02788
8.95851
8.89135
8.83453
15.0969
20.0121
18.058
18.756
18.7919
19.1386
19.154
19.4262
19.6322
19.9956
20.1882
19.9322
18.4396
17.376
16.8597
16.6217
16.4643
16.3464
16.2662
16.2129
16.1817
16.1604
16.1499
16.1222
16.0871
16.014
15.9635
15.9006
15.8167
15.6963
15.556
15.4421
15.4096
15.3933
15.3485
15.215
14.9078
14.4001
13.888
13.4564
13.0147
12.5851
12.2612
11.9676
11.7504
11.5715
11.4245
11.293
11.1735
11.057
10.9389
10.8177
10.6919
10.5634
10.4248
10.2848
10.1426
10.0202
9.91075
9.81132
9.71888
9.63081
9.54399
9.45609
9.36655
9.27717
9.18942
9.10677
9.02636
8.95317
8.88245
8.82299
14.2002
19.024
16.8997
17.5213
17.5512
17.8788
17.9999
18.2619
18.5371
19.0072
19.3776
18.4295
17.032
16.257
15.9089
15.7688
15.71
15.682
15.6679
15.6667
15.6679
15.6696
15.6628
15.6397
15.6078
15.557
15.5394
15.5267
15.508
15.4787
15.456
15.4349
15.3923
15.3566
15.2952
15.161
14.9602
14.9607
14.9693
14.8917
14.3912
13.6425
13.1393
12.6267
12.2345
11.9417
11.7269
11.5499
11.4015
11.2619
11.1242
10.9872
10.8505
10.7086
10.5651
10.4186
10.265
10.1031
9.96424
9.84862
9.74659
9.65276
9.56256
9.47303
9.38278
9.29185
9.20035
9.11339
9.03
8.95487
8.88265
8.82133
13.2681
17.6814
15.9719
16.7323
16.8674
17.3384
17.6111
17.953
18.3994
18.7962
19.1958
17.9171
16.7617
16.191
15.9629
15.8885
15.8712
15.8839
15.8954
15.9179
15.9223
15.9154
15.8836
15.8283
15.7545
15.6731
15.5803
15.5278
15.4358
15.3312
15.2263
15.1268
15.0332
14.9882
14.9853
15.0052
15.0696
15.1069
15.0992
15.0214
14.7628
14.6739
14.4873
13.7828
13.0791
12.5713
12.1815
11.9157
11.7047
11.521
11.3567
11.1977
11.0405
10.8838
10.7304
10.5674
10.4087
10.2461
10.0785
9.92587
9.80279
9.69558
9.59732
9.50177
9.40608
9.31113
9.2171
9.12778
9.04105
8.96277
8.88825
8.82512
13.0877
17.3841
15.8436
16.7634
16.9657
17.5043
17.7803
18.1586
18.5986
18.852
19.243
17.7007
16.7294
16.2818
16.1111
16.0548
16.0399
16.0505
16.0583
16.0712
16.0624
16.0379
15.9945
15.9562
15.8951
15.8171
15.7054
15.6612
15.5698
15.4652
15.3487
15.2304
15.117
15.0359
14.9876
14.9905
15.0029
15.0163
15.0415
15.0384
14.9877
14.8927
14.689
14.5016
14.2594
13.6363
12.9945
12.5006
12.1528
11.8898
11.6624
11.4575
11.2784
11.0972
10.9244
10.7455
10.5736
10.3947
10.2225
10.0558
9.89854
9.77131
9.65806
9.55149
9.44813
9.34689
9.24724
9.15248
9.06146
8.97958
8.9017
8.83587
13.163
17.3836
15.9149
16.8818
17.1071
17.6715
18.0121
18.4163
18.975
19.3267
18.8224
17.4332
16.6789
16.3558
16.2435
16.1961
16.1699
16.1597