/*--------------------------------*- C++ -*----------------------------------*\
| =========                 |                                                 |
| \\      /  F ield         | OpenFOAM: The Open Source CFD Toolbox           |
|  \\    /   O peration     | Version:  2212                                  |
|   \\  /    A nd           | Website:  www.openfoam.com                      |
|    \\/     M anipulation  |                                                 |
\*---------------------------------------------------------------------------*/
FoamFile
{
    version     2.0;
    format      ascii;
    arch        "LSB;label=32;scalar=64";
    class       surfaceScalarField;
    location    "0.0015";
    object      phi;
}
// * * * * * * * * * * * * * * * * * * * * * * * * * * * * * * * * * * * * * //

dimensions      [1 0 -1 0 0 0 0];

oriented        oriented;

internalField   nonuniform List<scalar> 
5190
(
-3.40016e-05
-2.37148e-05
3.37901e-05
2.44422e-05
2.45873e-06
-1.35478e-05
5.62901e-07
7.01273e-06
-8.39869e-06
-2.64229e-06
6.20316e-06
-5.65165e-07
-9.57255e-06
8.25629e-06
1.83701e-06
1.13612e-07
6.13609e-06
1.44709e-06
-1.97461e-05
-1.98136e-06
-3.03977e-06
-7.74238e-06
8.07666e-07
2.78141e-06
-1.38766e-06
3.30868e-06
1.53233e-06
-2.78603e-06
-3.4887e-06
3.5857e-06
-7.73439e-06
8.25247e-06
8.74207e-06
-8.47054e-06
-4.26002e-06
4.54523e-06
9.06541e-06
-5.03657e-06
5.28715e-06
-3.00752e-06
2.39707e-06
-8.28105e-06
-1.04028e-05
9.39674e-06
-8.86065e-06
1.03827e-05
8.58966e-06
-1.04252e-05
-8.04856e-06
-1.6946e-05
1.6525e-05
-1.3659e-05
1.45636e-05
-1.06766e-05
-9.55764e-06
1.18385e-05
8.90127e-06
-1.35007e-05
-1.17967e-05
1.33311e-05
1.24302e-05
-1.29661e-05
-1.26619e-05
1.41924e-05
1.18348e-05
7.94253e-06
-3.80982e-06
3.30675e-06
-6.96171e-06
7.93333e-06
-4.20754e-06
4.75314e-06
-4.95741e-06
6.72223e-06
6.74586e-06
1.10377e-05
-4.01216e-06
4.90703e-06
-1.1332e-05
-1.09005e-05
1.08391e-05
-7.67203e-06
8.27836e-06
-1.0998e-05
-6.6028e-06
7.21525e-06
-5.59509e-06
6.15966e-06
-1.07645e-05
1.00176e-05
9.2348e-06
-6.68035e-06
7.56064e-06
-4.1976e-06
8.36727e-06
-7.62506e-06
-3.08745e-06
-4.35163e-06
6.61155e-06
-8.09448e-06
8.27965e-06
-4.61863e-06
-4.1937e-06
-9.05656e-06
1.00217e-05
-4.4488e-06
-4.62278e-06
4.35124e-06
-1.02464e-05
1.03328e-05
-6.19857e-06
-5.3057e-06
-7.24625e-06
1.28152e-05
-6.17555e-06
7.54322e-06
-1.36159e-05
1.24478e-05
-8.52611e-06
9.49612e-06
-1.01677e-05
1.26928e-05
1.0659e-05
1.13227e-05
-1.12482e-05
-9.53039e-06
1.12459e-05
-1.20779e-05
1.28815e-05
1.12869e-05
-1.03411e-05
-6.59882e-06
-7.89795e-06
9.46762e-06
-9.32262e-06
-6.61434e-06
7.03836e-06
-6.46786e-06
6.08403e-06
-1.40491e-06
-8.74283e-06
4.26663e-06
-5.78239e-07
-5.72561e-06
6.08501e-06
-8.08421e-06
-3.76026e-06
3.96861e-06
-2.23853e-06
-6.73932e-06
7.53443e-06
2.09365e-06
7.56216e-06
-6.97957e-06
-3.08697e-06
3.12147e-06
-3.3855e-06
1.13675e-05
1.32461e-05
-1.27633e-05
-1.32557e-05
1.34578e-05
-7.98039e-06
3.63117e-06
8.548e-06
-7.4359e-06
-3.19545e-06
3.25739e-06
9.78562e-06
-9.7719e-06
-7.56723e-06
9.72521e-06
-8.30135e-06
-2.43047e-06
-7.0158e-06
2.49956e-06
-2.80114e-06
2.85098e-06
-6.42181e-06
-6.72552e-06
7.25264e-06
-2.99315e-06
-2.70856e-06
-6.20401e-06
-8.756e-06
9.32415e-06
4.80683e-06
3.35262e-06
-1.11568e-05
1.11889e-05
5.58138e-06
5.55608e-06
-1.14676e-05
1.16418e-05
7.57905e-06
6.44483e-06
-1.15971e-05
1.06209e-05
1.08579e-05
8.9059e-06
-8.35145e-07
-2.03799e-06
2.71709e-06
6.44508e-07
1.33942e-05
7.83238e-06
1.32928e-05
-1.28443e-05
1.08042e-05
1.17193e-05
1.2202e-05
8.28636e-06
-1.22273e-05
9.46632e-06
-9.27058e-06
1.06622e-05
-5.44403e-07
1.56274e-06
-8.56507e-07
4.3166e-07
-1.19775e-05
1.56398e-05
-1.99445e-05
-1.02795e-06
-1.03887e-05
7.2541e-07
2.25982e-06
-7.38984e-06
7.49459e-06
-3.78015e-06
7.61761e-06
-7.18071e-06
-2.88763e-06
-3.52816e-06
-7.76908e-06
8.09937e-06
-4.39273e-06
-3.93583e-06
-8.39321e-06
9.20233e-06
-4.71537e-06
-4.36513e-06
-9.54534e-06
9.74152e-06
-5.81015e-06
-5.11204e-06
-6.72066e-06
9.15302e-06
-9.90906e-06
-8.13016e-06
-8.68965e-06
6.33293e-06
9.92291e-06
-9.43827e-06
-6.54508e-06
-7.29914e-06
9.16907e-06
-9.14037e-06
-6.05971e-06
-6.18152e-06
8.88476e-06
-8.6818e-06
-4.68781e-06
-5.40625e-06
8.21645e-06
-7.77854e-06
-3.57866e-06
-4.15209e-06
-3.27844e-06
-2.88809e-06
2.93417e-06
-6.88099e-06
7.20257e-06
-6.63893e-06
9.89341e-06
-8.8943e-06
-8.99269e-06
1.11875e-05
1.52209e-05
-1.69498e-05
-9.80117e-06
1.31586e-05
-1.08974e-05
1.29674e-05
-6.61114e-06
-2.31605e-06
-6.4746e-06
6.96253e-06
-2.86011e-06
-5.98091e-06
-2.57534e-06
1.52704e-05
-1.56574e-05
1.20841e-05
-1.28868e-05
1.50157e-05
1.35218e-05
-1.16505e-05
1.4346e-05
-1.21957e-05
1.31416e-05
9.81803e-06
-8.90539e-06
-8.00658e-06
7.54857e-06
-7.72824e-06
9.88139e-06
1.24873e-05
-1.40941e-05
1.0786e-05
-8.21701e-06
-7.07785e-06
7.69383e-06
2.92686e-06
2.60961e-06
-2.6204e-06
-6.27443e-06
2.59687e-06
-6.46667e-06
1.07303e-05
8.21459e-06
-1.05124e-05
-7.85339e-06
1.65748e-05
-1.51723e-05
-1.50202e-05
1.40439e-05
-1.35669e-05
1.32013e-05
-4.26413e-05
-8.84719e-06
1.76217e-05
2.11822e-05
9.8857e-06
-9.57888e-06
1.00999e-05
1.13182e-05
1.25767e-05
2.20934e-06
-2.09855e-06
-6.04995e-06
-6.5754e-06
-5.61535e-07
-5.8477e-06
-6.37115e-06
2.47196e-05
1.75229e-05
-2.45601e-05
-1.72018e-05
1.8626e-05
-1.46407e-05
1.29247e-05
-9.27195e-06
8.96812e-06
2.75474e-06
2.4109e-06
-8.66735e-06
-9.40997e-06
1.03693e-05
4.54156e-06
3.51118e-06
-1.13746e-05
1.17406e-05
5.83583e-06
5.22194e-06
-1.21189e-05
1.25501e-05
7.71739e-06
6.59686e-06
-1.29696e-05
1.37321e-05
1.07862e-05
9.15705e-06
1.20401e-05
1.36648e-05
-1.33943e-05
1.10772e-05
1.23612e-05
1.30523e-05
8.71747e-06
-1.27751e-05
9.71207e-06
-1.24278e-05
1.8691e-05
7.86817e-06
-3.67975e-05
4.17774e-05
-4.56506e-05
3.75636e-05
-8.29984e-06
3.6627e-06
8.88538e-06
3.26127e-06
-6.69817e-06
7.055e-06
-2.613e-06
6.25725e-06
-1.84616e-06
-5.84497e-06
-2.0992e-06
-7.21626e-06
7.38701e-06
-3.38677e-06
-3.07142e-06
-7.62804e-06
7.7491e-06
-3.96506e-06
-3.62715e-06
-8.2952e-06
8.50769e-06
-4.39822e-06
-4.36896e-06
-8.98935e-06
9.08769e-06
-5.32201e-06
-5.05066e-06
-9.20313e-06
9.06734e-06
-6.88057e-06
-6.25351e-06
-9.02763e-06
8.99141e-06
-8.33083e-06
-7.73191e-06
-1.50384e-05
1.40966e-05
1.79038e-05
-9.15334e-06
9.09073e-06
9.03138e-06
-9.20271e-06
-7.41293e-06
-8.07462e-06
9.16464e-06
-9.01804e-06
-6.19084e-06
-6.81682e-06
8.74362e-06
-8.77559e-06
-5.45686e-06
-5.91409e-06
8.62999e-06
-8.32242e-06
-4.40181e-06
-4.97305e-06
7.94084e-06
-7.42864e-06
-3.45406e-06
-3.91341e-06
-3.11572e-06
-2.52794e-06
2.57893e-06
-5.86556e-06
2.42775e-06
-5.46665e-06
-2.29693e-06
-5.68068e-06
-6.07926e-06
2.83263e-06
1.09544e-06
-2.43527e-06
-9.04453e-07
7.84437e-07
-1.40482e-06
7.3349e-06
-6.09999e-06
-5.72429e-06
8.02295e-06
-9.06975e-07
-1.41131e-05
1.5488e-05
1.44795e-05
-1.39381e-05
1.48846e-05
-1.48599e-05
1.4639e-05
-1.10401e-05
1.29933e-05
1.07771e-05
1.04175e-05
-1.05975e-05
-1.1518e-05
1.27698e-05
5.89572e-06
-5.73802e-06
-1.28756e-06
-9.60646e-06
1.0749e-05
1.18406e-05
-9.17138e-06
1.0827e-05
-7.31718e-06
7.99363e-06
2.8627e-06
-6.65543e-06
2.54084e-06
-1.30009e-05
1.38235e-05
-1.24123e-05
1.32859e-05
-2.10082e-06
2.05211e-06
-5.35452e-06
-2.20887e-06
-5.07079e-06
0.00127102
1.10323e-07
-0.00177375
3.21726e-07
1.62816e-07
0.000975078
2.52527e-07
-0.00127137
0.000975456
5.80932e-07
-0.00177428
6.11284e-07
-2.07005e-06
2.21878e-06
-4.97005e-06
-5.25803e-06
5.75126e-06
-2.13207e-06
-4.78599e-06
-1.90025e-06
-6.30125e-06
4.50317e-06
-1.08741e-05
1.32391e-05
-1.52004e-05
1.54272e-05
1.26439e-06
3.16384e-06
-1.04817e-06
-6.04435e-06
-1.72447e-06
6.99945e-06
-3.55667e-05
-3.35496e-05
3.51447e-05
3.34107e-05
-6.38499e-06
-3.67535e-06
2.2004e-06
1.95592e-06
7.77695e-07
3.7564e-06
-3.77443e-06
-9.84721e-06
1.15638e-05
1.23788e-05
5.13643e-06
-1.4049e-05
-5.61031e-06
1.94041e-06
-8.39251e-06
2.64093e-05
1.50419e-05
-3.30017e-05
-8.16251e-06
8.80926e-06
2.31887e-06
-2.29137e-06
1.68929e-06
-1.84873e-06
-9.22312e-06
9.62322e-06
2.95745e-06
2.6204e-06
-1.01442e-05
1.09608e-05
4.38212e-06
3.59309e-06
-1.17796e-05
1.24276e-05
5.77281e-06
5.04684e-06
-1.29945e-05
1.36159e-05
7.72856e-06
6.59789e-06
-1.43395e-05
1.52458e-05
1.05257e-05
9.08507e-06
-1.60354e-05
1.57064e-05
1.28075e-05
1.17444e-05
1.43317e-05
1.45294e-05
-1.43726e-05
1.16626e-05
1.34225e-05
1.39484e-05
-1.32791e-05
8.79315e-06
1.00283e-05
1.24242e-05
-1.15149e-05
6.73242e-06
-6.96807e-06
7.75352e-06
-7.83764e-06
1.07105e-05
-9.98995e-06
4.80451e-06
-4.91796e-06
5.66721e-06
-5.86914e-06
9.30894e-06
-8.65652e-06
3.63743e-06
4.12534e-06
-4.18299e-06
3.21469e-06
0.000772964
1.88509e-07
1.73812e-07
0.000623011
2.88059e-07
1.02938e-07
0.000507246
4.13697e-07
-6.6176e-08
0.000415579
5.56804e-07
-2.33809e-07
0.000341421
9.35422e-07
-4.13486e-07
0.000280562
1.57474e-06
-9.72527e-07
0.000230294
2.22909e-06
-1.85539e-06
0.000188039
3.04699e-06
-2.56662e-06
0.000152373
4.0571e-06
-3.82655e-06
4.42562e-06
0.000122216
-4.7782e-06
0.000122921
-0.000152675
3.46295e-06
9.63723e-05
4.65512e-06
-5.40515e-06
4.47683e-06
7.3629e-05
-5.32978e-06
-9.71049e-05
7.45401e-05
2.74939e-06
3.15323e-06
0.000187797
-0.000230158
3.45675e-06
3.58539e-06
0.000280694
-0.000341428
1.95656e-06
2.67704e-06
0.000415699
-0.000507475
1.01484e-06
1.50868e-06
0.000623341
-0.000773229
6.87445e-07
8.4515e-07
6.29824e-07
-6.35017e-06
6.70309e-06
-2.34542e-06
-1.92002e-06
-6.9435e-06
7.18143e-06
-3.02676e-06
-2.70864e-06
-7.42694e-06
7.60474e-06
-3.58262e-06
-3.29693e-06
-7.71765e-06
8.07021e-06
-4.22462e-06
-3.93718e-06
-8.34585e-06
8.61788e-06
-5.02961e-06
-4.77579e-06
-8.56047e-06
8.5486e-06
-6.28095e-06
-5.61782e-06
-8.42365e-06
8.24701e-06
-7.58241e-06
-7.02445e-06
-2.77318e-05
2.71611e-05
-3.52596e-05
-8.17815e-06
7.86775e-06
-9.87465e-06
1.15421e-05
-7.34245e-06
9.44448e-06
-9.0737e-06
-8.99678e-06
-9.63432e-06
1.0289e-05
1.0707e-05
-1.08021e-05
9.25313e-06
8.69185e-06
-6.53423e-06
-1.03025e-05
8.66847e-06
-8.50491e-06
-7.62973e-06
-8.09664e-06
8.68965e-06
-8.72248e-06
-6.86196e-06
-7.36555e-06
8.7058e-06
-8.53154e-06
-5.85098e-06
-6.32715e-06
8.48248e-06
-8.37194e-06
-4.97038e-06
-5.4048e-06
8.19747e-06
-7.91189e-06
-4.05866e-06
-4.53129e-06
7.55949e-06
-7.12941e-06
-3.25655e-06
-3.6393e-06
6.68477e-06
-6.23002e-06
-2.68512e-06
-2.93477e-06
-2.40828e-06
-2.31172e-06
2.37116e-06
-5.31141e-06
-5.14268e-06
-2.38835e-06
2.36357e-06
-5.6507e-06
-5.4909e-06
-2.32309e-06
2.25212e-06
-5.98563e-06
-5.82636e-06
-2.16153e-05
-3.18648e-05
3.10568e-05
2.25362e-05
-4.73987e-05
5.06579e-05
-1.59462e-05
1.17716e-05
-1.21391e-05
1.25191e-05
1.14515e-05
1.04758e-05
-1.09593e-05
1.12789e-05
1.13813e-05
-1.20153e-05
1.27612e-05
-4.64307e-06
-2.60558e-06
-1.50805e-05
1.98232e-05
1.11975e-05
7.4485e-08
2.61123e-07
-0.00316891
3.98054e-07
-0.00316951
5.67191e-06
-1.0638e-06
-5.28282e-06
-8.98703e-05
-5.81835e-05
4.36882e-05
0.000105382
0.00012192
-0.000152108
-4.37287e-06
9.60315e-05
-5.00195e-06
-1.40144e-05
1.34333e-05
-3.83227e-05
-7.61691e-06
1.4065e-05
2.05628e-05
1.08249e-05
9.73681e-06
1.26911e-05
-1.29924e-05
1.39861e-05
1.2366e-06
-1.47649e-06
-5.25354e-06
1.33973e-06
-5.27038e-06
-0.00316919
0.00177397
7.4998e-07
3.6986e-08
-1.91566e-08
-0.00344149
4.72131e-07
-0.00344146
-1.955e-06
2.04516e-06
-4.42316e-06
-1.7955e-06
-4.30094e-06
-5.09444e-06
5.53625e-06
-1.92751e-06
-4.63222e-06
-1.72604e-06
-3.2691e-06
5.34629e-05
2.24809e-06
5.43143e-05
-5.73759e-06
1.11709e-05
4.57932e-06
-1.07584e-05
1.14115e-05
5.83802e-06
-5.61403e-06
-1.56244e-05
1.56442e-05
1.54076e-05
1.02744e-05
6.73351e-06
-1.04269e-05
-6.07988e-06
1.08916e-05
8.53273e-06
-9.0837e-06
1.95501e-06
-2.55993e-06
2.29198e-05
1.70043e-05
-2.54436e-05
-2.77411e-05
3.07914e-05
-1.14452e-05
9.63058e-07
3.90057e-07
-2.48319e-07
-5.44524e-07
-6.15527e-06
6.86491e-06
2.14723e-06
2.01987e-06
-2.09713e-06
-5.309e-06
1.90375e-06
-5.44205e-06
1.13602e-05
1.2121e-05
2.02847e-06
-4.05334e-06
-1.95117e-06
-2.01035e-06
1.94272e-06
-4.64623e-06
-4.37162e-06
-1.84809e-06
1.67592e-06
-5.0933e-06
5.88209e-06
-4.89559e-06
-5.23315e-06
-8.18654e-06
8.82193e-06
2.37112e-06
2.23853e-06
-9.43175e-06
1.00196e-05
2.99507e-06
2.67752e-06
-1.0703e-05
1.15401e-05
4.13923e-06
3.52016e-06
-1.23304e-05
1.31358e-05
5.55899e-06
4.85043e-06
-1.39284e-05
1.47434e-05
7.54266e-06
6.43555e-06
-1.55896e-05
1.63847e-05
1.0263e-05
8.80143e-06
-1.68934e-05
1.6573e-05
1.34895e-05
1.17084e-05
1.61786e-05
-1.35043e-05
1.57047e-05
2.56126e-05
1.92998e-05
-2.58411e-05
1.50498e-05
-1.56749e-05
1.70635e-05
1.91849e-05
1.56282e-05
1.60106e-05
-1.57415e-05
1.2247e-05
1.45943e-05
1.50535e-05
-1.42221e-05
8.74698e-06
1.02e-05
1.32839e-05
-1.23864e-05
6.47647e-06
7.54871e-06
1.14642e-05
-1.06241e-05
4.63275e-06
5.38272e-06
9.80023e-06
-9.0589e-06
3.53958e-06
3.96681e-06
8.31479e-06
-7.59201e-06
2.75631e-06
3.10381e-06
2.42489e-06
-0.00127098
0.00097499
5.86188e-07
7.47855e-07
-0.000772816
0.000622889
4.09373e-07
5.1409e-07
-0.000507098
0.000415342
1.04915e-07
3.11183e-07
-0.000341337
0.000280513
-3.69017e-07
-6.05203e-08
-0.000229857
0.000187847
-2.10153e-06
-9.56034e-07
-3.05843e-06
-0.00317044
0.00177503
9.37035e-07
-8.55684e-09
5.10694e-07
-0.00344177
-0.00344158
2.28992e-06
-5.34272e-06
-5.77821e-05
-2.60347e-06
-5.20054e-05
-9.50517e-06
6.43064e-05
-3.20506e-06
7.74849e-05
-9.84237e-05
1.65021e-06
1.30546e-06
0.000123688
-0.000153256
2.94637e-06
2.43021e-06
0.000188309
-0.000230186
3.04054e-06
2.93273e-06
0.000280407
-0.000341921
2.91507e-06
2.65708e-06
0.000416059
-0.0005077
1.26897e-06
1.76899e-06
0.000623577
-0.000773578
1.0895e-06
1.23711e-06
0.000975772
-0.00127186
1.01304e-06
1.00725e-06
1.00457e-06
-6.03415e-06
6.35194e-06
-2.05765e-06
-1.67573e-06
-6.63446e-06
6.88221e-06
-2.67833e-06
-2.38854e-06
-7.11022e-06
7.37451e-06
-3.26716e-06
-2.93682e-06
-7.58587e-06
7.88355e-06
-3.94915e-06
-3.57546e-06
-7.88635e-06
8.0103e-06
-4.57587e-06
-4.19895e-06
-8.02491e-06
8.03071e-06
-5.69445e-06
-5.05098e-06
-7.82778e-06
7.58784e-06
-6.76906e-06
-6.23754e-06
-7.20944e-06
6.76675e-06
-7.91033e-06
9.03318e-06
-7.19005e-06
-6.17374e-06
5.15343e-06
-9.25855e-06
-8.62719e-06
-1.0806e-05
1.15766e-05
4.34528e-06
-4.42259e-06
3.8655e-06
-9.66361e-06
-9.44065e-06
-1.14651e-05
7.79729e-06
1.10514e-05
3.45372e-06
-4.47883e-06
-9.82786e-06
-1.08248e-05
3.17281e-06
1.16268e-05
-3.46947e-06
-2.20259e-06
2.06267e-06
-1.01733e-05
-1.02348e-05
1.20623e-05
4.59796e-06
-6.59696e-06
-9.7966e-06
1.23731e-05
-9.7663e-06
7.43092e-06
-7.77046e-06
-8.04055e-06
-8.81321e-06
7.86244e-06
-7.93696e-06
-6.98927e-06
-7.44252e-06
8.11862e-06
-8.19224e-06
-6.23127e-06
-6.62662e-06
8.20196e-06
-8.16155e-06
-5.3043e-06
-5.75533e-06
8.07713e-06
-7.9502e-06
-4.47452e-06
-4.88459e-06
7.77254e-06
-7.51988e-06
-3.6925e-06
-4.08117e-06
7.20754e-06
-6.83214e-06
-3.00625e-06
-3.33502e-06
6.42286e-06
-5.9957e-06
-2.47053e-06
-2.71166e-06
-2.21799e-06
-2.12381e-06
2.15773e-06
-4.7272e-06
-4.59133e-06
-2.17532e-06
2.15432e-06
-5.02658e-06
-4.89544e-06
-5.16701e-06
-1.28464e-05
-7.76669e-06
4.06845e-05
-8.01456e-07
1.2279e-06
-4.16505e-05
7.41888e-05
-5.42737e-06
-1.32161e-05
1.21236e-05
1.22417e-05
9.45386e-06
1.19216e-05
1.0837e-05
-1.26492e-05
1.27433e-05
-5.15532e-06
1.83555e-06
5.17564e-06
1.41481e-05
1.76737e-05
-1.58856e-05
-2.37158e-05
-1.87389e-05
1.40807e-05
5.96781e-06
1.13174e-05
-8.84035e-06
-0.00317086
0.001775
1.21755e-06
-0.00344117
1.0407e-06
-1.66307e-06
1.80231e-06
-3.53036e-06
-4.20299e-05
3.80714e-06
-1.03136e-05
-3.90274e-06
-1.88099e-06
3.7799e-06
-3.64951e-06
-1.5889e-06
-1.41028e-06
-3.29165e-06
-1.50649e-06
-4.25188e-06
-6.31079e-06
7.07406e-06
1.99411e-06
-5.57385e-06
1.76571e-06
3.70752e-05
-4.91803e-06
2.03335e-05
-1.88873e-05
-2.31967e-05
2.18439e-05
-1.90991e-05
2.35823e-05
1.60768e-05
1.06746e-05
-1.81079e-05
2.89721e-06
-2.56532e-06
0.000121905
-0.000152446
-3.29934e-06
9.61194e-05
-4.16267e-06
2.05716e-05
2.6772e-05
-2.09261e-05
2.08363e-05
-2.4229e-05
2.39865e-05
2.98965e-05
-2.08889e-05
1.77746e-05
1.25363e-05
7.54866e-06
-1.54636e-05
1.37259e-05
-1.3657e-05
1.45038e-05
1.17953e-05
9.36174e-06
2.32359e-05
-1.63157e-05
-0.00317226
0.00177625
1.51761e-06
-0.00344168
1.08426e-06
-4.02819e-05
4.06939e-05
-2.37558e-05
2.3412e-05
1.41706e-06
1.19148e-06
-1.0652e-05
-7.5478e-06
3.18175e-06
2.69998e-05
-1.70567e-05
-1.69513e-05
1.7053e-05
1.58296e-05
1.26324e-05
5.28453e-06
1.11656e-05
3.19484e-06
-9.91872e-06
3.70937e-06
1.23798e-05
1.13343e-05
1.51056e-06
-1.02392e-05
2.20228e-06
1.2829e-05
1.20227e-05
8.13163e-06
-1.47096e-05
1.61181e-05
-2.17509e-05
-1.65425e-05
2.36606e-05
1.48239e-05
5.39591e-05
-5.71811e-06
1.10887e-06
3.56549e-07
-6.4185e-07
-3.88143e-07
2.64038e-05
-9.23989e-06
-2.85106e-05
3.486e-05
-2.28181e-05
-3.00981e-05
1.76983e-05
1.07794e-05
1.18251e-05
-1.86313e-06
1.85885e-06
-4.01117e-06
-3.77473e-06
-1.80989e-06
1.71984e-06
-4.38501e-06
-4.22554e-06
-1.61867e-06
1.55074e-06
-4.60045e-06
-4.53094e-06
-1.52233e-06
1.56181e-06
-4.61588e-06
-4.66742e-06
5.20601e-06
-4.67998e-06
1.58985e-06
-5.48059e-06
7.67246e-06
2.9147e-06
-4.5017e-06
2.094e-06
-8.1931e-06
8.93203e-06
2.289e-06
2.43785e-06
-9.67837e-06
1.04616e-05
2.85084e-06
2.57578e-06
-1.12701e-05
1.21049e-05
3.88706e-06
3.33937e-06
-1.30131e-05
1.38971e-05
5.27787e-06
4.53099e-06
-1.48491e-05
1.58438e-05
7.15252e-06
6.11545e-06
-1.68243e-05
1.77609e-05
9.77919e-06
8.34559e-06
-1.85382e-05
1.90641e-05
1.33385e-05
1.1362e-05
-1.98436e-05
2.189e-05
1.83508e-05
1.59089e-05
2.04794e-05
1.88303e-05
2.39891e-05
-2.25239e-05
2.03935e-05
-2.12135e-05
2.03354e-05
2.12716e-05
-1.9779e-05
1.63981e-05
1.87765e-05
1.85386e-05
-1.7441e-05
1.18712e-05
1.40574e-05
1.63989e-05
-1.527e-05
8.3637e-06
9.93881e-06
1.42188e-05
-1.31483e-05
6.08445e-06
7.20542e-06
1.21779e-05
-1.12352e-05
4.38969e-06
5.11438e-06
1.03211e-05
-9.44869e-06
3.32458e-06
3.73898e-06
8.64713e-06
-7.85378e-06
2.58818e-06
2.94472e-06
2.26465e-06
-0.00127147
0.000975189
1.04626e-06
1.21232e-06
-0.00077285
0.000622854
7.46652e-07
9.02118e-07
-0.000507107
0.000415367
4.1357e-07
5.64837e-07
-0.000341329
0.000280686
1.815e-08
2.81926e-07
-0.000230395
0.000188115
-1.37932e-06
-4.57059e-07
-2.21548e-06
1.1276e-07
-7.80881e-08
-0.00323029
-1.48551e-07
3.53624e-07
-0.00323038
-0.00323033
5.07323e-06
1.30059e-05
-1.60385e-07
-0.00322971
8.60574e-07
-0.00323021
1.5577e-05
-2.65737e-05
2.01579e-06
-1.01978e-06
4.72812e-06
-6.00018e-06
4.47718e-05
-6.0616e-05
-3.33272e-06
-2.90604e-06
7.84941e-05
-9.97027e-05
1.09658e-06
-3.30604e-07
0.000124712
-0.000154144
2.48642e-06
1.95839e-06
0.000189275
-0.000230936
2.52145e-06
2.70211e-06
0.000281305
-0.000341806
2.62944e-06
2.61016e-06
0.000415837
-0.000507852
1.76826e-06
1.84736e-06
0.000623593
-0.000773773
1.53143e-06
1.4421e-06
0.000976112
-0.00127253
1.48887e-06
1.43503e-06
1.53358e-06
-3.85686e-06
4.0202e-06
-1.54133e-06
3.48226e-06
-3.06159e-06
-1.25866e-06
-1.39006e-06
-4.58047e-06
5.28117e-06
-1.21548e-06
-1.30896e-06
1.2483e-06
-5.67015e-06
6.00146e-06
-1.8065e-06
-1.48936e-06
-6.3159e-06
6.58498e-06
-2.34953e-06
-2.09003e-06
-6.85836e-06
7.08187e-06
-2.89787e-06
-2.6198e-06
-7.27951e-06
7.42036e-06
-3.49064e-06
-3.17588e-06
-7.5536e-06
7.65782e-06
-4.08195e-06
-3.73392e-06
-7.68977e-06
7.59869e-06
-4.99385e-06
-4.48429e-06
-7.39278e-06
7.11843e-06
-5.92247e-06
-5.43037e-06
-6.81862e-06
6.42064e-06
-6.88676e-06
-6.32784e-06
-5.84206e-06
5.08934e-06
-7.91318e-06
-7.39949e-06
-4.39474e-06
3.71775e-06
-8.42009e-06
-8.15266e-06
-1.02597e-05
2.40065e-06
1.16041e-05
-2.99991e-06
2.22735e-06
-8.91772e-06
-8.62586e-06
1.37467e-06
1.05536e-05
-9.15381e-06
4.88227e-07
1.06818e-05
-9.25368e-06
-1.05443e-05
6.15376e-07
1.20305e-05
4.48079e-07
-1.23275e-06
-9.18378e-06
1.07748e-05
-9.29003e-06
1.90928e-06
-2.6723e-06
-8.86441e-06
-9.01942e-06
3.53831e-06
-4.09934e-06
-8.60933e-06
-8.79606e-06
4.93231e-06
-5.97822e-06
-8.14642e-06
-8.29146e-06
6.52592e-06
-6.87341e-06
-7.03558e-06
-7.62416e-06
7.14733e-06
-7.38167e-06
-6.19819e-06
-6.58639e-06
7.57763e-06
-7.69684e-06
-5.49863e-06
-5.85388e-06
7.73957e-06
-7.72657e-06
-4.68501e-06
-5.08248e-06
7.66727e-06
-7.55156e-06
-3.96429e-06
-4.31828e-06
7.38998e-06
-7.16708e-06
-3.30177e-06
-3.62634e-06
6.88749e-06
-6.5537e-06
-2.70771e-06
-2.99346e-06
6.18379e-06
-5.79245e-06
-2.22263e-06
-2.4435e-06
5.37997e-06
-4.94277e-06
-1.72921e-06
-1.99591e-06
4.50957e-06
-4.23912e-06
-1.04258e-06
-1.51612e-06
-1.72021e-06
1.72925e-06
-3.57694e-06
-1.93529e-06
-1.82302e-06
1.90326e-06
-3.86638e-06
-3.73425e-06
-1.95688e-06
1.9971e-06
-4.14558e-06
-4.01469e-06
-1.99824e-06
1.97687e-06
-4.39661e-06
-4.27895e-06
-1.92588e-06
1.84606e-06
-4.62676e-06
-4.51076e-06
-1.73873e-06
-4.83076e-06
1.59062e-06
-4.73654e-06
-1.05939e-05
1.10229e-05
-3.14817e-06
1.99357e-05
-8.11571e-06
-1.17401e-05
-3.12787e-05
3.56451e-05
1.69108e-05
7.37306e-05
-4.4218e-06
1.67312e-05
5.5226e-05
-2.19198e-05
2.47567e-05
-2.38239e-05
2.89704e-05
-6.87079e-06
-1.56002e-06
-3.43518e-05
-2.84353e-05
-1.57654e-05
3.67861e-05
-2.54942e-05
-2.00468e-05
1.6825e-05
1.35736e-05
8.83622e-06
-1.46882e-05
1.18227e-05
-4.29733e-07
1.23787e-05
1.4518e-06
1.20388e-05
-1.34035e-05
1.28384e-05
1.27546e-05
1.04585e-05
2.18087e-05
-1.74243e-05
-2.76476e-05
1.85753e-05
-1.82414e-05
8.08485e-06
2.45518e-07
-4.1818e-07
1.85802e-06
-2.68825e-05
2.54946e-05
-2.45103e-05
2.62061e-05
-2.26721e-05
2.62061e-05
2.47209e-05
-2.42038e-05
1.97733e-05
1.03172e-06
-0.00323013
2.78915e-06
-1.27106e-05
3.01511e-06
-6.46151e-06
3.3707e-06
-1.13043e-06
1.32147e-06
-2.68248e-06
2.9809e-06
-1.02386e-06
-2.52256e-06
3.35604e-06
-1.06446e-06
-1.13514e-05
2.61884e-05
-1.98325e-05
-1.65864e-05
1.37159e-05
1.38559e-05
6.84251e-06
2.83742e-06
1.30536e-05
1.00953e-06
1.37876e-05
1.29939e-05
8.93545e-06
-1.45827e-05
1.47235e-05
2.33047e-05
-1.32146e-05
-2.60952e-05
1.48652e-06
-1.53666e-06
-4.00214e-06
1.4071e-06
-4.04399e-06
3.60611e-05
-5.70524e-06
-9.09192e-06
4.18904e-05
0.000101972
-9.86107e-05
-1.34423e-05
8.56139e-06
-1.79784e-05
-5.70777e-06
3.60841e-06
7.13727e-06
1.28878e-05
-2.63865e-05
-2.02362e-05
3.07743e-05
-3.79009e-06
-1.8027e-06
-1.3939e-06
-4.78557e-06
2.5609e-05
-1.60961e-05
1.1918e-05
8.58914e-06
2.24076e-05
-1.8357e-05
1.32784e-05
1.36209e-05
4.61532e-06
3.70942e-06
1.46196e-05
-1.48156e-05
1.82214e-05
1.30388e-05
1.46877e-06
-1.60182e-06
-4.10142e-06
-4.92541e-06
5.69285e-06
1.41067e-06
1.29674e-06
-4.16405e-06
8.0911e-07
-2.21791e-07
-0.00295321
-0.00322913
0.00344083
2.34076e-06
2.00458e-06
-0.00295282
5.43954e-05
-4.94472e-06
1.61424e-06
-2.98501e-06
2.17643e-05
-8.33226e-06
-2.17251e-05
1.64339e-05
2.20561e-05
-1.63812e-05
-2.36316e-05
7.00704e-06
-9.23429e-06
8.94023e-06
-1.03905e-05
-9.27448e-06
1.00888e-05
1.22515e-05
1.16605e-05
-1.43771e-05
2.45079e-05
1.19014e-05
-1.48296e-06
1.63262e-06
-3.04639e-06
-2.84843e-06
-1.714e-06
1.74489e-06
-3.42118e-06
-3.23198e-06
-1.74302e-06
1.71463e-06
-3.7196e-06
-3.59249e-06
-1.67043e-06
1.60812e-06
-3.94049e-06
-3.86457e-06
-4.01611e-06
5.40084e-06
-4.77256e-06
1.5112e-06
-6.24094e-06
7.53635e-06
2.20732e-06
1.82514e-06
-8.43019e-06
9.12136e-06
2.22548e-06
2.1966e-06
-9.97543e-06
1.08105e-05
2.65275e-06
2.33464e-06
-1.17184e-05
1.26578e-05
3.54592e-06
3.05413e-06
-1.36485e-05
1.47433e-05
4.77739e-06
4.13823e-06
-1.58037e-05
1.69286e-05
6.5881e-06
5.63731e-06
-1.80818e-05
1.92192e-05
9.0779e-06
7.71214e-06
-2.03158e-05
2.14495e-05
1.25527e-05
1.06301e-05
-2.29657e-05
2.4985e-05
1.69066e-05
1.48948e-05
1.81948e-05
-2.61572e-05
2.92371e-05
1.95973e-05
-2.24231e-05
2.21719e-05
2.28694e-05
-2.15005e-05
1.50926e-05
1.74841e-05
2.02162e-05
-1.89256e-05
1.08491e-05
1.28753e-05
1.76594e-05
-1.63582e-05
7.59956e-06
9.11821e-06
1.51602e-05
-1.39892e-05
5.5336e-06
6.5848e-06
1.28155e-05
-1.18083e-05
4.03936e-06
4.59489e-06
1.08247e-05
-9.89097e-06
3.0347e-06
3.41232e-06
8.97838e-06
-8.11795e-06
2.34512e-06
2.66085e-06
7.28164e-06
-6.47848e-06
1.79385e-06
2.03884e-06
1.5719e-06
-0.00317251
0.00177612
2.28373e-06
2.34253e-06
-0.00127197
0.000975439
1.6334e-06
1.9223e-06
-0.000772996
0.000622996
1.15283e-06
1.36759e-06
-0.000507149
0.00041542
7.91732e-07
9.44784e-07
-0.000341536
0.000280966
3.47658e-07
5.05672e-07
-0.000230819
0.000188488
-6.1286e-07
-1.43034e-07
-0.000153088
0.000122573
-2.32672e-06
-1.72265e-06
-9.64692e-05
7.38926e-05
-3.11389e-06
-3.14483e-06
5.28414e-07
-3.68538e-07
-0.0029537
-0.00322945
0.00344128
2.41179e-06
-9.47527e-07
1.98133e-06
-0.00295301
-0.00295358
2.18019e-07
2.15867e-08
-0.00295377
-0.00295364
-0.00295354
1.6343e-05
-2.77855e-05
2.31308e-06
4.42119e-06
4.31419e-05
-6.07418e-05
-1.24524e-06
-9.69812e-08
7.94077e-05
-0.000100532
6.48906e-07
-5.19534e-07
0.000125587
-0.000155101
1.82272e-06
1.24025e-06
0.000189924
-0.000231752
2.37538e-06
2.11615e-06
0.0002814
-0.000341814
2.54754e-06
2.16278e-06
0.000415939
-0.000507571
1.94817e-06
2.11068e-06
0.00062368
-0.000773831
1.94593e-06
2.04365e-06
0.000976259
-0.00127289
2.03182e-06
1.86659e-06
0.00177722
-0.00317361
2.48097e-06
2.23297e-06
2.3842e-06
-3.70871e-06
3.94257e-06
-1.23386e-06
-1.18128e-06
-4.36639e-06
4.90824e-06
-1.19947e-06
-1.18718e-06
-5.34137e-06
5.70384e-06
-1.57508e-06
-1.35613e-06
-6.02331e-06
6.30556e-06
-2.0484e-06
-1.80301e-06
-6.54561e-06
6.75064e-06
-2.51177e-06
-2.27371e-06
-6.94049e-06
7.04907e-06
-2.99601e-06
-2.76445e-06
-7.16912e-06
7.29147e-06
-3.60154e-06
-3.25294e-06
-7.31161e-06
7.22606e-06
-4.29157e-06
-3.8983e-06
-7.04989e-06
6.78828e-06
-5.05068e-06
-4.63248e-06
-6.49909e-06
6.06251e-06
-5.86514e-06
-5.46289e-06
-5.56352e-06
4.9349e-06
-6.66748e-06
-6.27349e-06
-4.27586e-06
3.59699e-06
-7.16609e-06
-6.92337e-06
-2.90363e-06
2.17171e-06
-7.57604e-06
-7.33134e-06
-1.35868e-06
5.38047e-07
-7.85677e-06
-7.74743e-06
3.03083e-07
-1.07758e-06
-7.836e-06
-7.89591e-06
1.82682e-06
-2.56537e-06
-7.568e-06
-7.71791e-06
3.29647e-06
-3.98195e-06
-7.296e-06
-7.45086e-06
4.6716e-06
-5.43024e-06
-6.81877e-06
-7.00441e-06
5.96745e-06
-6.32526e-06
-6.04631e-06
-6.46399e-06
6.64149e-06
-6.9045e-06
-5.35953e-06
-5.69353e-06
7.10028e-06
-7.24495e-06
-4.72126e-06
-5.04572e-06
7.32383e-06
-7.33612e-06
-4.05186e-06
-4.37993e-06
7.29627e-06
-7.19976e-06
-3.44216e-06
-3.73914e-06
7.05531e-06
-6.85444e-06
-2.8813e-06
-3.15509e-06
6.60096e-06
-6.30111e-06
-2.37277e-06
-2.61836e-06
5.96641e-06
-5.60524e-06
-1.94613e-06
-2.14102e-06
5.22118e-06
-4.81994e-06
-1.49679e-06
-1.742e-06
4.46383e-06
-7.37989e-07
-4.13063e-06
-1.2429e-06
-1.68433e-06
1.75197e-06
-3.30664e-06
-3.15695e-06
-1.80516e-06
1.84114e-06
-3.55404e-06
-3.43977e-06
-1.85236e-06
1.83141e-06
-3.76291e-06
-3.66731e-06
-1.78815e-06
1.71124e-06
-3.94587e-06
-3.86013e-06
-4.02637e-06
2.84203e-06
6.95618e-05
-3.22821e-05
-7.93615e-05
3.88396e-05
4.38111e-06
2.22864e-05
7.90739e-07
-3.12883e-05
2.76297e-06
-2.36653e-06
-8.68853e-07
-2.38667e-05
-2.23899e-05
2.44378e-05
-2.18501e-05
-2.06214e-05
-2.75308e-05
-1.59246e-05
1.16619e-05
1.50878e-05
8.15619e-06
1.7926e-06
1.36376e-05
-4.65453e-07
1.44251e-05
1.37751e-05
1.02155e-05
-1.43901e-05
1.30302e-05
2.2317e-05
-1.61666e-05
7.22148e-06
-9.93316e-06
-4.09655e-06
1.28351e-06
-3.00712e-05
1.73836e-05
-4.0971e-05
-2.01223e-05
4.41681e-05
-1.25311e-05
-4.2242e-06
6.66766e-06
-2.55378e-05
2.78044e-05
1.83969e-05
-3.43978e-06
3.16764e-06
-9.1976e-07
4.27383e-05
-1.15956e-05
3.24371e-05
-3.2398e-05
-1.45131e-05
1.45824e-05
-0.003229
0.00344103
4.70658e-06
-0.00295268
3.85483e-06
-2.38247e-05
-1.12815e-05
-4.48153e-06
-4.01997e-06
6.63855e-06
1.3903e-05
-1.71056e-05
-1.2971e-05
-2.36854e-05
-2.22145e-05
2.52947e-05
-1.93165e-05
2.74708e-06
7.0164e-07
-3.95004e-06
-1.81188e-05
1.39122e-05
1.50419e-05
5.98973e-06
3.73908e-06
1.44881e-05
1.47032e-06
1.65051e-05
1.39855e-05
8.29985e-06
-1.52349e-05
1.5586e-05
2.05156e-05
-1.51351e-05
-1.06995e-06
1.22938e-06
-2.26309e-06
-9.36252e-07
-2.09029e-06
-5.03389e-06
5.83694e-06
1.17578e-06
-4.23907e-06
1.0772e-06
1.38654e-06
-1.51478e-06
-3.37174e-06
1.22911e-06
-3.41531e-06
-0.00322873
0.00344051
4.93149e-06
-0.00295233
3.92367e-06
8.25828e-07
-3.89907e-07
-0.00255596
1.63564e-06
-0.00255557
3.44736e-05
1.0268e-06
3.59731e-05
-4.91713e-06
-1.34188e-06
1.45768e-06
-2.46554e-06
-1.17255e-06
-2.32157e-06
5.4117e-05
-2.87242e-06
-5.68042e-07
2.02066e-06
-1.50789e-06
2.26765e-05
-1.67901e-05
-7.43843e-08
1.87147e-06
-1.09177e-06
-2.28384e-05
-1.07714e-05
9.82975e-06
1.41426e-05
1.15134e-05
-1.61647e-05
2.43499e-05
-1.37237e-06
1.50097e-06
-2.55814e-06
-2.39004e-06
-1.58206e-06
1.63774e-06
-2.85196e-06
-2.69488e-06
-1.65562e-06
1.66307e-06
-3.08921e-06
-2.97699e-06
-1.63053e-06
1.59708e-06
-3.28025e-06
-3.19485e-06
-1.52e-06
1.42601e-06
-3.34453e-06
-3.33949e-06
-1.33534e-06
1.22246e-06
-3.41028e-06
-3.37731e-06
4.17829e-06
-3.45142e-06
1.04563e-06
-4.88812e-06
5.6495e-06
1.28107e-06
1.11212e-06
-6.52898e-06
7.55048e-06
1.75862e-06
1.4991e-06
-8.49507e-06
9.40391e-06
1.89859e-06
1.84658e-06
-1.02964e-05
1.12205e-05
2.34014e-06
2.04697e-06
-1.21544e-05
1.31654e-05
3.11008e-06
2.70957e-06
-1.4296e-05
1.54423e-05
4.17634e-06
3.57096e-06
-1.66889e-05
1.80016e-05
5.76578e-06
4.90547e-06
-1.93337e-05
2.0675e-05
8.12179e-06
6.83474e-06
-2.20524e-05
2.35241e-05
1.13344e-05
9.55077e-06
-2.54217e-05
2.76242e-05
1.50636e-05
1.33213e-05
1.59818e-05
2.39947e-05
-1.91887e-05
-4.46572e-05
2.63989e-05
-2.6436e-05
1.90228e-05
2.23548e-05
2.51243e-05
-2.35817e-05
1.28663e-05
1.54979e-05
2.19828e-05
-2.04008e-05
8.98271e-06
1.07393e-05
1.88138e-05
-1.74353e-05
6.38445e-06
7.4957e-06
1.60251e-05
-1.47212e-05
4.65035e-06
5.48106e-06
1.34413e-05
-1.23405e-05
3.48101e-06
3.81627e-06
1.1275e-05
-1.02922e-05
2.636e-06
2.92031e-06
9.30164e-06
-8.35803e-06
1.99156e-06
2.26112e-06
7.48769e-06
-6.63888e-06
1.52442e-06
1.74751e-06
1.34248e-06
-0.00317348
0.00177712
4.22096e-06
5.25328e-06
-0.00127243
0.00097563
2.57859e-06
3.1771e-06
-0.000773089
0.000623061
1.80018e-06
2.13964e-06
-0.000507259
0.000415626
1.22968e-06
1.50074e-06
-0.000341592
0.000281143
6.89928e-07
1.01457e-06
-0.000231045
0.000189146
-1.84206e-07
2.47597e-07
-0.000153404
0.000123416
-1.8545e-06
-8.42154e-07
-9.71025e-05
7.48148e-05
-2.13668e-06
-1.95228e-06
6.99846e-07
-3.9651e-07
-0.00255654
-1.00999e-06