/*--------------------------------*- C++ -*----------------------------------*\
| =========                 |                                                 |
| \\      /  F ield         | OpenFOAM: The Open Source CFD Toolbox           |
|  \\    /   O peration     | Version:  2212                                  |
|   \\  /    A nd           | Website:  www.openfoam.com                      |
|    \\/     M anipulation  |                                                 |
\*---------------------------------------------------------------------------*/
FoamFile
{
    version     2.0;
    format      ascii;
    arch        "LSB;label=32;scalar=64";
    class       volVectorField;
    location    "0.00152";
    object      U;
}
// * * * * * * * * * * * * * * * * * * * * * * * * * * * * * * * * * * * * * //

dimensions      [0 1 -1 0 0 0 0];

internalField   nonuniform List<vector> 
7220
(
(94.2879 -12.9726 -3.93808e-17)
(0.976443 1.71859 2.2591e-17)
(1.02616 1.60177 1.13123e-17)
(1.04969 1.46369 1.39999e-17)
(0.952867 1.67017 -2.2147e-17)
(1.00646 1.55211 -2.31557e-21)
(-1.01422 1.59028 0)
(-0.945678 1.62973 2.30927e-17)
(-1.04041 1.46039 0)
(-0.997422 1.53656 0)
(110.923 -23.6481 -7.08955e-19)
(85.212 -50.4811 -2.12105e-16)
(2.0749 67.0567 1.07326e-17)
(-55.7979 -21.8246 1.54971e-16)
(73.2231 -13.9518 1.58507e-16)
(38.1113 -131.143 1.04463e-16)
(-43.5635 60.6225 0)
(-0.153649 -51.3474 -4.29153e-16)
(-31.2209 57.6272 3.91486e-17)
(61.1976 -45.7606 -2.13592e-16)
(3.88744 67.5291 4.47456e-17)
(-6.63826 73.6286 2.89972e-16)
(0.383607 1.98031 1.67236e-16)
(17.0804 59.5166 2.23743e-16)
(-0.571525 -31.2757 1.55921e-16)
(-33.6174 31.7347 -3.3382e-16)
(332.577 -345.371 6.50256e-18)
(-68.5337 -50.7341 1.47719e-16)
(11.2825 67.739 -4.38779e-17)
(-15.4988 84.0842 7.39661e-17)
(1.88926 -1.56101 9.41932e-17)
(-9.61335 82.749 -2.15948e-17)
(0.660865 2.4278 4.02426e-16)
(-17.2147 82.2637 -4.02383e-17)
(-1.84216 -15.4353 -1.73017e-16)
(-41.2388 4.26543 -3.18677e-16)
(1.12618 1.59922 5.60371e-18)
(109.005 -25.5127 0)
(109.226 -20.3451 -6.63972e-21)
(-7.04035 47.7954 -1.18451e-21)
(-7.04932 40.8925 -4.74482e-21)
(7.05633 40.8855 -3.00671e-19)
(7.04848 47.7889 2.70062e-19)
(18.1637 5.44557 -7.81199e-17)
(17.4926 4.94801 -3.14254e-16)
(2.67622 5.22763 -5.88162e-17)
(2.05163 5.24508 1.2041e-17)
(3.79169 5.3728 -1.11412e-16)
(-7.05667 34.2681 6.05325e-19)
(-7.06384 28.0844 -5.99475e-19)
(7.06559 28.0752 -5.66078e-19)
(7.06206 34.26 6.14608e-19)
(-7.07222 22.501 6.1663e-19)
(-7.08012 17.6665 -1.83812e-18)
(7.07081 17.6592 6.26336e-19)
(7.0689 22.4921 -6.53553e-19)
(-7.08726 13.7 -1.29302e-20)
(-7.09341 10.6516 2.45089e-18)
(7.07032 10.6498 1.23008e-18)
(7.07141 13.6953 -6.15259e-19)
(-7.09987 8.46578 -1.22076e-18)
(-7.10712 7.00066 1.22905e-18)
(7.06224 7.00516 -6.17619e-19)
(7.06729 8.46709 -1.22631e-18)
(-7.11563 6.08074 -1.2265e-18)
(-7.1258 5.53939 0)
(7.04584 5.55033 1.22723e-18)
(7.05504 6.08858 -2.56861e-21)
(-7.13768 5.24151 0)
(-7.15207 5.09051 -1.15197e-19)
(7.02471 5.1051 3.83777e-20)
(7.03525 5.25481 1.91806e-20)
(-7.17369 5.02343 2.61539e-18)
(-7.20809 5.00172 3.07984e-19)
(6.98444 5.02349 -2.308e-18)
(7.00912 5.04012 2.30507e-18)
(-7.25315 5.00566 2.28388e-22)
(-7.33886 5.03145 -1.23912e-17)
(6.88384 5.05732 3.70393e-18)
(6.94446 5.03141 6.15599e-19)
(-7.49497 5.07639 9.9276e-18)
(-7.7758 5.11192 -2.99717e-17)
(6.5249 5.14704 9.94739e-18)
(6.76743 5.09693 2.13763e-22)
(5.22565 5.26117 1.37034e-20)
(6.01763 5.19605 -9.99426e-18)
(-8.2799 5.17018 1.01526e-17)
(-9.03687 5.25405 2.33815e-17)
(-10.1107 5.3289 4.03259e-17)
(19.769 5.23366 3.90782e-17)
(-7.03176 54.8146 0)
(7.04042 54.8091 3.82126e-20)
(21.4112 40.8739 -9.4775e-21)
(21.3896 47.78 9.45711e-21)
(18.4534 5.2358 -1.99215e-17)
(3.51296 5.22938 3.18347e-21)
(-11.1956 5.31351 2.22133e-17)
(-11.1456 5.35587 4.36845e-17)
(-22.6971 5.19125 -1.01517e-17)
(-21.9939 5.06739 6.23628e-18)
(-22.2747 5.11061 -1.2545e-18)
(-21.7049 4.98187 0)
(-21.8108 5.01461 0)
(-21.6102 5.00569 0)
(-21.645 4.98074 -6.17204e-19)
(-21.5667 5.22927 0)
(-21.5838 5.07652 7.69358e-20)
(-21.542 6.07236 -1.22922e-18)
(-21.5534 5.52877 1.22778e-18)
(-21.522 8.46221 -6.16415e-19)
(-21.5317 6.99479 0)
(-21.5 13.6998 -1.24304e-18)
(-21.5117 10.6498 1.22555e-18)
(-21.4699 22.5036 -6.16441e-19)
(-21.486 17.6678 6.15423e-19)
(-21.4299 34.2731 9.52262e-21)
(-21.4512 28.0886 6.29418e-19)
(-21.3859 47.799 0)
(-21.4072 40.8971 4.75185e-21)
(21.448 28.0622 -7.65548e-23)
(21.4308 34.2468 0)
(21.4727 17.6497 -1.9125e-20)
(21.4619 22.4805 3.81957e-20)
(21.4844 10.6468 -4.79184e-21)
(21.4802 13.689 0)
(21.4815 7.00899 1.19935e-21)
(21.4845 8.46758 0)
(21.4662 5.55978 -6.1348e-19)
(21.475 6.09548 6.19134e-19)
(21.4448 5.11789 -1.22683e-18)
(21.4563 5.26637 1.20895e-18)
(21.416 5.03661 1.53726e-19)
(21.4337 5.05359 -4.78944e-21)
(21.3401 5.06507 1.23117e-18)
(21.3896 5.0433 -6.15263e-19)
(21.0294 5.1343 1.96681e-17)
(21.2451 5.09673 -4.91594e-18)
(20.5838 5.16033 1.9579e-17)
(-23.3389 5.24967 -4.28256e-20)
(-21.3635 54.8171 0)
(21.3664 54.8027 0)
(32.1261 4.77994 -8.49626e-17)
(33.815 5.22789 9.38142e-18)
(18.9634 5.18189 0)
(-10.8721 5.31533 -2.79325e-21)
(-24.1832 5.32804 -1.05599e-17)
(-24.9769 5.33011 1.07059e-17)
(-37.963 5.33116 -1.86599e-20)
(31.7477 5.5318 0)
(-25.2454 5.37132 1.06262e-17)
(-38.5652 5.32339 1.04775e-17)
(-36.8534 5.21647 7.6257e-18)
(-37.3524 5.25492 -1.546e-17)
(-36.2381 5.05604 0)
(-36.4918 5.1245 -2.51645e-18)
(-35.9613 4.9487 -1.23472e-18)
(-36.0662 4.99847 2.48414e-18)
(-35.8584 4.98198 3.07248e-19)
(-35.9001 4.95195 0)
(-35.8137 5.21727 6.14779e-19)
(-35.8312 5.06111 -3.08038e-19)
(-35.7895 6.06242 0)
(-35.8009 5.51781 -3.83266e-20)
(-35.7664 8.4542 3.59612e-21)
(-35.7784 6.986 0)
(-35.735 13.6912 -3.04302e-19)
(-35.7523 10.6417 -9.56232e-21)
(-35.688 22.4945 5.96086e-19)
(-35.7142 17.6587 3.07632e-19)
(-35.6254 34.2662 5.83654e-19)
(-35.6585 28.0798 -6.34046e-19)
(-35.5514 47.7953 2.42062e-18)
(-35.5892 40.8926 -1.81642e-18)
(-21.3408 61.795 0)
(-35.473 61.7901 0)
(-35.5132 54.8133 -1.22278e-18)
(7.03343 61.7911 1.81106e-20)
(-7.0252 61.7951 3.17433e-19)
(35.5148 54.7905 0)
(35.4768 61.7739 -7.54753e-20)
(21.3419 61.7848 1.13007e-19)
(35.5883 40.8576 3.09866e-19)
(35.5521 47.766 -3.15574e-19)
(35.6518 28.0435 3.86943e-20)
(35.6218 34.2284 0)
(35.698 17.6355 -3.81475e-20)
(35.6776 22.4634 -7.56758e-20)
(35.7226 10.6417 0)
(35.7131 13.6792 0)
(35.7253 7.01332 -4.78462e-21)
(35.7266 8.4674 0)
(35.7117 5.57094 -2.39308e-21)
(35.7201 6.10368 -4.80125e-21)
(35.6907 5.13173 0)
(35.7013 5.2791 0)
(35.6645 5.05104 -1.07378e-18)
(35.6801 5.0681 1.23124e-18)
(35.5929 5.08191 4.9032e-18)
(35.6392 5.05909 0)
(35.2683 5.16298 -1.95033e-17)
(35.4905 5.12228 6.89787e-21)
(34.7943 5.22067 -2.15795e-21)
(33.4926 5.11118 -3.89469e-17)
(32.9093 5.21729 5.66915e-17)
(46.7258 4.95683 1.83534e-17)
(47.4751 5.14247 1.64141e-17)
(-21.3199 68.5853 -3.75496e-20)
(-35.4343 68.5777 3.76609e-20)
(48.7792 54.7681 6.10505e-19)
(48.7265 61.7533 -5.58917e-19)
(4.07702 5.22911 4.09803e-17)
(33.9431 5.03428 2.97485e-17)
(19.3796 5.11961 -9.99777e-18)
(-25.2062 5.37755 3.11829e-17)
(-50.8062 5.33343 -3.09388e-17)
(47.7953 5.00433 1.471e-17)
(47.4233 5.0759 0)
(-38.9652 5.33731 1.04419e-17)
(46.5415 5.28617 2.05491e-17)
(-51.2775 5.32056 1.03374e-17)
(-49.9934 5.21525 0)
(-50.3749 5.25219 -1.02172e-17)
(-49.4944 5.05934 7.50979e-18)
(-49.6949 5.1454 -1.04263e-20)
(-49.2771 4.93069 2.47048e-18)
(-49.379 4.9935 -3.73558e-18)
(-49.2014 4.96342 3.07171e-19)
(-49.2338 4.9354 -1.85013e-18)
(-49.1631 5.20666 6.14442e-19)
(-49.1797 5.04595 -6.1541e-19)
(-49.1417 6.05341 0)
(-49.1519 5.5091 -2.68766e-19)
(-49.1174 8.44288 3.0556e-19)
(-49.1308 6.97613 -3.06214e-19)
(-49.0778 13.6745 3.17175e-19)
(-49.1004 10.6283 -2.9068e-19)
(-49.0147 22.4724 3.26622e-19)
(-49.0491 17.6387 -2.84387e-19)
(-48.9304 34.2436 -3.25959e-19)
(-48.9747 28.0566 3.01882e-19)
(-48.8313 47.7772 2.36401e-20)
(-48.8824 40.8721 0)
(-48.7245 61.7754 -1.29459e-18)
(-48.7782 54.7974 1.19633e-18)
(7.02338 68.5859 -7.59596e-20)
(-7.01702 68.5884 -3.03879e-19)
(35.4382 68.5665 -7.50358e-20)
(21.3213 68.5786 -2.97814e-19)
(48.8791 40.8313 0)
(48.8301 47.7414 -5.99001e-19)
(48.9672 28.0172 -1.50865e-19)
(48.9249 34.2012 1.53438e-19)
(49.0347 17.6158 3.88615e-20)
(49.0045 22.4393 3.74619e-20)
(49.0721 10.6334 9.5929e-20)
(49.0572 13.6649 0)
(49.0822 7.01546 4.80045e-21)
(49.0801 8.46449 -7.63856e-20)
(49.0733 5.58001 -7.16449e-21)
(49.0796 6.10991 -9.56554e-21)
(49.0561 5.14345 0)
(49.0649 5.28967 -9.56334e-21)
(49.0305 5.06241 -7.6577e-19)
(49.0455 5.08042 6.12551e-19)
(48.9523 5.09066 1.22283e-18)
(49.0063 5.07353 1.22449e-18)
(48.6436 5.16054 0)
(48.8492 5.13673 -7.30619e-18)
(48.2203 5.18536 1.19714e-17)
(46.9509 5.22621 -1.87625e-17)
(-48.673 68.5612 0)
(48.6747 68.5467 1.87346e-18)
(-10.6029 5.40906 -6.61636e-21)
(34.3431 4.91216 -1.51721e-17)
(48.0525 4.84353 -1.5057e-17)
(4.57649 5.12355 1.01158e-17)
(-51.6651 5.31211 3.08634e-17)
(59.8493 5.02319 9.34769e-18)
(60.1732 5.09561 -2.02037e-17)
(59.7412 5.16775 -3.52091e-18)
(-39.2159 5.31655 -2.06799e-17)
(-60.9339 61.7497 1.38306e-19)
(-60.8667 68.5355 1.2155e-18)
(35.4025 75.0321 3.72938e-20)
(48.6234 75.0114 -1.28628e-18)
(-25.4592 5.67214 -7.87998e-21)
(19.8537 5.02954 0)
(48.1704 4.64471 -1.55744e-17)
(34.7047 4.71729 5.1649e-18)
(59.8652 3.80606 -4.86585e-17)
(60.3205 4.15258 -2.24391e-17)
(48.1152 4.34513 6.66862e-19)
(-10.1621 5.1053 -5.06242e-17)
(-63.3065 5.30019 1.01864e-17)
(-62.6436 5.33998 -1.01842e-17)
(-63.0071 5.32595 1.02407e-17)
(-62.0711 5.21107 1.51084e-17)
(-62.3479 5.2538 4.35835e-20)
(-61.6936 5.04455 0)
(-61.8661 5.14209 -1.00212e-17)
(-61.5436 4.93326 -6.19358e-19)
(-61.6033 4.99264 -1.23823e-18)
(-61.4863 4.956 -1.53247e-19)
(-61.5064 4.92833 6.1548e-19)
(-61.464 5.19899 -1.535e-19)
(-61.4745 5.03856 0)
(-61.4453 6.04497 -1.53566e-19)
(-61.4543 5.5018 2.30369e-19)
(-61.42 8.42905 -1.52443e-19)
(-61.4345 6.96559 1.53067e-19)
(-61.3731 13.6517 -1.44145e-19)
(-61.4 10.6104 1.42909e-19)
(-61.2954 22.4401 0)
(-61.3382 17.6107 -1.91404e-20)
(-61.1899 34.2084 3.07049e-19)
(-61.2456 28.022 -3.01718e-19)
(-61.0669 47.7457 1.15443e-18)
(-61.13 40.8382 -5.62625e-19)
(-61.0012 54.7692 -1.80129e-18)
(-48.6253 75.0197 1.12422e-19)
(-21.3013 75.0511 -2.98498e-19)
(-35.3969 75.0395 5.57286e-19)
(7.01248 75.0548 1.11152e-19)
(-7.00786 75.0563 -2.9609e-19)
(21.3015 75.0471 3.77811e-19)
(60.8662 68.5177 -6.44563e-19)
(60.9982 54.7357 -4.7046e-21)
(60.9325 61.7233 5.58393e-19)
(61.1234 40.796 0)
(61.0619 47.707 0)
(61.2357 27.9836 -1.5351e-19)
(61.1823 34.1659 0)
(61.321 17.5912 3.73987e-20)
(61.2823 22.4091 1.7175e-20)
(61.3711 10.622 -2.39792e-20)
(61.3507 13.6465 3.80109e-20)
(61.389 7.01519 4.78009e-21)
(61.3834 8.45919 -2.56517e-23)
(61.3865 5.58638 9.60237e-21)
(61.3895 6.11339 2.87244e-20)
(61.3733 5.15307 7.64071e-20)
(61.3806 5.29786 9.60037e-21)
(61.3456 5.07379 -1.22213e-18)
(61.3627 5.09219 0)
(61.2608 5.09164 -2.43451e-18)
(61.3181 5.08636 6.11488e-19)
(60.9827 5.1432 4.83747e-18)
(61.1614 5.13712 4.88042e-18)
(60.6472 5.12912 -1.80402e-17)
(60.2338 5.03104 9.62127e-18)
(59.9215 5.18886 -1.42285e-17)
(60.69 4.80078 -7.41992e-18)
(60.513 4.96848 -2.45128e-18)
(60.6829 4.60447 1.53071e-17)
(-52.0171 5.25719 1.02083e-17)
(-60.8003 74.9919 -7.51683e-20)
(60.8022 74.9812 0)
(71.3561 5.04737 -9.54725e-18)
(71.4463 5.09029 -4.80183e-18)
(71.2853 5.09351 1.06925e-17)
(71.4895 4.82087 1.58036e-16)
(-39.7775 5.74696 4.25783e-17)
(5.21648 5.11553 0)
(20.5131 4.78709 -2.08264e-17)
(48.1552 3.99258 4.73778e-17)
(-24.8694 4.8435 -1.26342e-16)
(71.9429 2.53383 0)
(-73.5928 5.2991 -2.0339e-17)
(35.0074 4.44954 -2.19635e-17)
(-63.618 5.19305 -2.03215e-17)
(-73.8781 5.1692 -2.029e-20)
(60.6761 3.49866 1.003e-19)
(-73.1498 5.34803 0)
(-73.4109 5.33015 1.73361e-20)
(-72.7854 5.2034 -1.00144e-17)
(-72.9637 5.26066 1.00838e-17)
(-72.5285 5.04594 2.47724e-18)
(-72.6381 5.1265 9.9626e-18)
(-72.4242 4.93376 -6.14474e-19)
(-72.4758 4.99729 -2.47278e-18)
(-72.391 4.95496 1.53778e-19)
(-72.4034 4.92973 6.13654e-19)
(-72.3799 5.19493 0)
(-72.3851 5.03591 0)
(-72.3664 6.0374 -7.66024e-20)
(-72.3739 5.49671 1.15188e-19)
(-72.3408 8.41363 -6.00056e-22)
(-72.356 6.95478 8.63426e-20)
(-72.2875 13.6237 0)
(-72.3185 10.5891 4.79637e-21)
(-72.1963 22.3995 7.56172e-20)
(-72.2466 17.5759 0)
(-72.0724 34.1622 3.80631e-20)
(-72.1377 27.9777 -5.77673e-20)
(-71.9266 47.7013 3.0594e-19)
(-72.0016 40.7922 -3.00189e-19)
(-71.7695 61.7097 -6.46746e-19)
(-71.8488 54.7271 6.11383e-19)
(-71.6081 74.9509 1.18885e-18)
(-71.6889 68.4963 -3.75004e-20)
(-71.5278 80.9567 -1.13305e-18)
(-48.5798 81.0347 0)
(-60.7358 81.0028 1.11281e-18)
(-21.282 81.0743 5.98824e-19)
(-35.3623 81.0583 -6.04042e-19)
(7.00569 81.0806 -1.53249e-19)
(-7.00303 81.0815 2.64798e-19)
(35.3676 81.0545 0)
(21.2819 81.0721 0)
(60.7401 80.9971 -6.30818e-19)
(48.576 81.0313 -5.56112e-19)
(71.5289 80.9483 1.19666e-18)
(71.69 68.4738 6.63099e-19)
(71.6096 74.9362 -5.93962e-19)
(71.8459 54.6899 6.01548e-19)
(71.7686 61.6785 -1.2041e-18)
(71.995 40.7495 0)
(71.9219 47.6603 3.77207e-20)
(72.127 27.9415 0)
(72.0641 34.1208 0)
(72.2284 17.5608 0)
(72.1822 22.3721 1.90974e-20)
(72.2901 10.6067 3.80926e-20)
(72.2645 13.6236 -3.84016e-20)
(72.3166 7.01127 1.92422e-20)
(72.3069 8.45028 -1.91101e-20)
(72.3214 5.58941 -3.82414e-20)
(72.3207 6.11319 3.83468e-20)
(72.3135 5.16176 -7.67219e-20)
(72.319 5.30401 2.35532e-23)
(72.2831 5.08356 6.89058e-19)
(72.3027 5.10365 -3.82513e-20)
(72.1963 5.08544 -1.42356e-19)
(72.2546 5.09571 7.64139e-20)
(71.9718 5.11824 -4.86988e-18)
(72.1041 5.12973 0)
(71.7141 5.07349 9.69611e-18)
(71.5872 5.00659 -4.7942e-18)
(71.3784 5.144 4.77917e-18)
(71.9519 4.80575 2.18674e-17)
(71.7961 4.95368 -3.62318e-18)
(71.9027 4.73764 -1.956e-17)
(-63.5973 5.14441 5.87813e-21)
(-51.9911 5.32924 -9.60658e-21)
(-9.56843 5.28225 -4.80147e-18)
(-73.8799 5.06474 0)
(80.913 5.05578 -4.80176e-18)
(80.8962 5.09381 -2.40361e-18)
(80.8724 5.04489 4.79912e-18)
(-80.6412 74.8924 0)
(-80.5372 80.8918 1.18704e-18)
(60.6789 86.4836 4.6481e-20)
(71.4457 86.4273 -6.39176e-19)
(6.30062 4.67775 -6.31217e-17)
(21.1745 4.56075 4.28382e-17)
(35.2549 4.10143 1.90317e-17)
(72.7972 2.12303 0)
(81.9834 2.02622 1.36009e-19)
(82.8408 0.825206 4.12398e-17)
(73.4031 1.23811 4.22145e-17)
(-63.8642 4.89812 1.97071e-17)
(-39.2607 5.54312 -1.1958e-16)
(48.6426 3.60827 -1.10069e-17)
(-24.0231 4.76304 -1.58173e-17)
(-74.2862 4.92832 -4.00904e-20)
(61.4742 2.54673 8.38173e-17)
(-82.4327 5.02967 5.06374e-18)
(-82.1922 5.30903 2.02421e-17)
(-82.4277 5.17411 -1.0138e-17)
(-81.949 5.35633 5.01954e-18)
(-82.1121 5.3298 2.30601e-20)
(-81.7405 5.19967 7.46032e-18)
(-81.8394 5.27458 -4.99712e-18)
(-81.5982 5.05463 2.471e-18)
(-81.664 5.12865 -4.9581e-18)
(-81.5398 4.93906 1.84545e-18)
(-81.566 4.99639 -1.2322e-18)
(-81.5256 4.95929 0)
(-81.532 4.93576 -6.15414e-19)
(-81.5233 5.19375 -3.83124e-20)
(-81.5246 5.03731 0)
(-81.5145 6.03095 -1.1496e-19)
(-81.5202 5.4932 -1.03259e-22)
(-81.489 8.3971 7.55903e-20)
(-81.5047 6.94399 -9.33941e-21)
(-81.4306 13.5916 -4.77482e-21)
(-81.4649 10.5652 0)
(-81.3284 22.3523 0)
(-81.3851 17.5357 -9.53566e-21)
(-81.1876 34.1065 0)
(-81.262 27.9253 -1.90578e-20)
(-81.0214 47.6436 1.52923e-19)
(-81.1068 40.7348 -1.87898e-19)
(-80.8375 61.6539 6.05404e-19)
(-80.9315 54.6703 -5.78512e-23)
(-80.7406 68.4406 -5.69531e-19)
(-71.4452 86.4306 7.45015e-20)
(-48.5337 86.5247 5.8807e-19)
(-60.6747 86.4858 -1.79714e-18)
(-21.2619 86.5724 -3.19575e-19)
(-35.3312 86.5527 2.33397e-20)
(7.00335 86.5806 2.35109e-21)
(-7.00231 86.5816 7.46533e-20)
(35.3349 86.5512 -4.67037e-21)
(21.2612 86.5709 -1.43511e-19)
(48.5309 86.5239 6.0186e-19)
(80.5361 80.8812 -6.03319e-19)
(80.7382 68.4145 5.75004e-19)
(80.6398 74.8747 -1.13236e-20)
(80.9262 54.6314 -5.84178e-19)
(80.8337 61.6198 3.04047e-19)
(81.0998 40.6926 1.89087e-20)
(81.0152 47.602 2.61155e-19)
(81.2505 27.8921 -1.89926e-20)
(81.1787 34.0669 0)
(81.3665 17.5248 -1.90616e-20)
(81.3137 22.3287 0)
(81.4392 10.5871 7.67638e-20)
(81.4083 13.596 0)
(81.4742 7.0034 2.29919e-19)
(81.4606 8.43743 -1.33886e-19)
(81.4856 5.58881 0)
(81.4819 6.10922 -1.72247e-19)
(81.482 5.16886 0)
(81.4863 5.30701 -3.82584e-20)
(81.4526 5.09301 -6.10307e-19)
(81.4715 5.11478 -3.05653e-19)
(81.372 5.08237 3.05271e-18)
(81.4264 5.10156 0)
(81.2158 5.08086 0)
(81.3049 5.10961 -6.08875e-19)
(81.0299 5.04703 -2.42081e-18)
(81.0889 4.9838 4.82876e-18)
(80.9365 5.0982 -4.82387e-18)
(81.325 4.69366 7.17285e-18)
(81.2396 4.89172 -1.20021e-18)
(80.5829 3.43158 -2.13941e-17)
(81.1425 4.34378 4.6827e-18)
(80.7597 3.51229 -5.13049e-17)
(-51.9372 4.81906 -1.86199e-17)
(-82.796 4.90573 -2.54829e-17)
(-80.4251 86.3545 -2.46476e-18)
(80.4258 86.3494 6.29705e-19)
(88.1703 5.08289 2.42568e-18)
(88.2249 5.04905 3.61907e-23)
(-74.8261 4.79002 2.04317e-17)
(-64.6613 4.94806 2.00991e-17)
(-8.10307 4.74587 -4.30584e-17)
(7.33333 4.60724 4.38254e-17)
(21.5874 4.19316 -2.75575e-20)
(35.6617 3.68157 -3.24757e-17)
(83.5642 -0.659102 2.41895e-18)
(73.9614 -0.0795502 -2.0273e-19)
(100.965 -15.9719 -1.08631e-16)
(62.1417 1.64817 -1.49647e-19)
(-2.27772 -2.84589 0)
(49.2219 2.81449 3.73065e-17)
(-83.1367 4.62598 0)
(-89.3857 4.45812 -5.148e-18)
(-88.8892 5.01775 5.06977e-18)
(-89.1539 4.83385 2.03675e-17)
(-88.7461 5.32941 -5.05101e-18)
(-88.8847 5.19779 -1.01384e-17)
(-88.6606 5.36191 -2.4934e-18)
(-88.7421 5.34066 4.94885e-21)
(-88.5725 5.21685 0)
(-88.6078 5.29011 2.48546e-18)
(-88.5306 5.06587 0)
(-88.5563 5.14271 0)
(-88.5206 4.95397 -6.15212e-19)
(-88.5203 5.00124 1.23108e-18)
(-88.5255 4.96699 3.35428e-20)
(-88.5237 4.9446 1.15124e-19)
(-88.5296 5.19512 3.83988e-20)
(-88.5278 5.04089 4.79358e-21)
(-88.5246 6.02537 7.81793e-23)
(-88.5289 5.49142 -1.91406e-20)
(-88.499 8.37969 1.19861e-21)
(-88.5152 6.93325 4.31762e-20)
(-88.4358 13.5565 4.78543e-21)
(-88.4733 10.5395 0)
(-88.3217 22.2995 -7.68037e-20)
(-88.3851 17.4911 8.53746e-20)
(-88.1628 34.042 -7.66487e-20)
(-88.2471 27.8659 7.53768e-20)
(-87.9701 47.5739 -1.14934e-19)
(-88.0705 40.6668 1.49922e-19)
(-87.7514 61.5805 3.13607e-19)
(-87.8634 54.5989 -3.17273e-19)
(-87.5033 74.8112 -7.43135e-21)
(-87.6317 68.3648 -5.99521e-19)
(-87.2073 86.2444 -7.47081e-20)
(-87.3636 80.8001 6.0376e-19)
(-87.0243 91.1021 -1.11012e-18)
(-71.3564 91.3377 0)
(-80.3013 91.2425 1.71825e-18)
(-48.4881 91.4546 -6.00218e-19)
(-60.6137 91.4064 6.00146e-19)
(-21.2429 91.5119 1.66591e-19)
(-35.301 91.4882 -1.86468e-20)
(7 91.5213 -7.39949e-20)
(-6.99868 91.5222 -3.75095e-20)
(35.3035 91.4884 -4.64504e-21)
(21.2412 91.5107 2.04219e-21)
(60.6155 91.406 1.19192e-18)
(48.4862 91.455 4.66274e-21)
(80.3023 91.2406 -4.53495e-20)
(71.3577 91.3374 0)
(87.0279 91.0962 3.72723e-20)
(87.3673 80.7839 6.03274e-19)
(87.2115 86.234 -5.59964e-20)
(87.6316 68.3345 2.97756e-19)
(87.5055 74.7881 -8.91201e-19)
(87.8606 54.5587 1.14642e-19)
(87.7496 61.544 0)
(88.0641 40.6259 4.6502e-20)
(87.9655 47.5322 -2.25812e-19)
(88.2362 27.8357 1.90343e-20)
(88.1547 34.0047 0)
(88.3687 17.4834 -7.57662e-20)
(88.3076 22.2793 7.67658e-20)
(88.4538 10.5631 9.53154e-20)
(88.4174 13.5636 -7.67928e-20)
(88.4968 6.99247 1.72079e-19)
(88.4797 8.42073 -1.53478e-19)
(88.5117 5.58528 -1.53126e-19)
(88.5069 6.10263 1.53373e-19)
(88.5085 5.17655 3.06267e-19)
(88.5133 5.30954 3.83476e-20)
(88.4856 5.10069 6.121e-19)
(88.5009 5.12275 3.82033e-22)
(88.4363 5.07595 1.21904e-18)
(88.4707 5.09707 0)
(88.3246 5.06055 -1.21572e-18)
(88.4005 5.08891 -2.64177e-23)
(88.228 5.03575 4.84873e-18)
(88.3768 4.93319 -1.20739e-18)
(88.2063 5.0171 2.84147e-22)
(88.2618 5.04374 2.41697e-18)
(88.5341 4.48614 -1.50399e-18)
(88.483 4.76246 1.50462e-18)
(88.3228 3.29057 2.751e-17)
(88.4582 4.02667 1.176e-18)
(89.4706 1.73312 -1.40119e-17)
(88.6406 3.09283 1.82714e-17)
(91.2099 -1.26374 1.60955e-17)
(90.342 0.384665 1.43812e-17)
(94.2235 -7.44352 3.42306e-17)
(93.0562 -5.56251 -4.5387e-18)
(84.3155 -2.46254 2.40164e-17)
(92.1454 -3.19613 -1.90789e-17)
(-52.9392 5.03766 3.77918e-17)
(-0.787387 1.57784 3.95605e-16)
(-83.5927 4.14798 2.09224e-17)
(-89.7321 3.9356 0)
(-5.89186 4.5668 -2.40062e-17)
(1.07084 1.50548 -1.13184e-17)
(-91.6172 86.0695 7.46218e-20)
(-91.3626 90.8764 -1.1856e-18)
(80.1561 95.5685 -5.9845e-19)
(86.802 95.3783 5.54392e-19)
(7.86896 4.25485 -2.69677e-20)
(85.0971 -4.68953 -2.87584e-17)
(21.9493 3.76465 -2.17361e-17)
(74.5653 -1.76327 -2.57375e-19)
(62.6839 0.39239 -8.1623e-17)
(36.0808 3.00927 2.67325e-17)
(49.7748 1.91888 -4.19608e-17)
(-0.894759 1.71373 0)
(-1.73088 -2.77272 8.9024e-17)
(-1.47665 -2.73009 0)
(-1.71824 -6.24721 -8.77137e-17)
(-28.2245 16.07 -3.01023e-16)
(-0.789947 -2.49649 -6.14896e-17)
(-75.5126 4.3139 -2.50842e-18)
(-65.7661 4.40667 -3.08192e-17)
(-0.854442 0.771466 1.47974e-16)
(-76.295 3.72226 2.63917e-18)
(100.507 -10.1251 0)
(99.13 -6.95553 -4.6612e-18)
(-31.1718 4.36361 7.32374e-17)
(-43.2714 4.39367 8.6781e-17)
(-84.2184 3.48256 1.05483e-17)
(-0.816783 1.30856 -1.86e-16)
(-90.2694 3.15602 -2.37766e-17)
(-24.223 15.3517 3.10479e-16)
(-84.9186 2.63772 1.60249e-17)
(-90.9313 2.18226 -8.08442e-18)
(-0.85456 1.772 0)
(-98.2933 -3.64603 6.17103e-18)
(-91.7263 0.805196 2.72818e-17)
(-95.9015 0.00137626 -2.16319e-17)
(-97.0774 -1.8308 -5.80825e-18)
(-94.3011 2.69043 -8.63873e-21)
(-94.9604 1.5502 0)
(-93.5039 4.25093 5.11293e-18)
(-93.8082 3.62232 -5.18317e-18)
(-93.1385 5.00549 -1.00944e-17)
(-93.3184 4.73186 -5.07494e-18)
(-93.0843 5.35582 3.7265e-22)
(-93.142 5.22074 1.75889e-17)
(-93.1022 5.38572 -2.48822e-18)
(-93.1049 5.37503 -2.49341e-18)
(-93.1178 5.25251 0)
(-93.1026 5.3233 0)
(-93.1498 5.09235 0)
(-93.1358 5.16829 1.23421e-18)
(-93.1792 4.97721 0)
(-93.1616 5.02064 -6.1445e-19)
(-93.2035 4.97823 6.70736e-20)
(-93.1929 4.96079 -2.20612e-19)
(-93.2148 5.19861 -7.67069e-20)
(-93.2105 5.0469 -3.83047e-20)
(-93.2131 6.02023 0)
(-93.216 5.49065 4.79856e-20)
(-93.1878 8.3608 -7.66176e-20)
(-93.2044 6.92209 3.34775e-20)
(-93.1204 13.517 -4.08241e-20)
(-93.1607 10.5111 7.65505e-20)
(-92.9953 22.2384 -4.77371e-21)
(-93.0653 17.4402 0)
(-92.8153 33.9656 2.80886e-20)
(-92.9114 27.7962 4.7641e-21)
(-92.5919 47.4865 -7.47879e-20)
(-92.7084 40.5845 -1.9305e-20)
(-92.33 61.4804 2.79115e-19)
(-92.4661 54.5056 7.62346e-20)
(-92.0147 74.6902 1.40329e-20)
(-92.1804 68.2565 -2.98753e-19)
(-91.8305 80.6579 0)
(-86.7995 95.3821 1.12306e-18)
(-71.2564 95.6942 5.95955e-19)
(-80.1544 95.5693 -1.15282e-18)
(-48.4379 95.844 -3.71549e-20)
(-60.5445 95.7829 1.39883e-20)
(-21.2217 95.9148 -2.2352e-19)
(-35.2712 95.8865 1.8546e-20)
(6.99539 95.9259 1.11767e-19)
(-6.99466 95.9265 -1.3832e-20)
(35.2712 95.8871 1.85463e-20)
(21.2208 95.9137 2.18882e-19)
(60.5456 95.7828 -5.89088e-19)
(48.438 95.8449 -2.78856e-20)
(71.2573 95.6949 0)
(91.3647 90.8666 -3.73095e-20)
(91.8328 80.6366 3.06357e-19)
(91.6193 86.0544 1.86382e-20)
(92.1804 68.223 1.87874e-20)
(92.0168 74.6621 -3.01483e-19)
(92.4641 54.4652 -1.30339e-19)
(92.3284 61.443 1.52011e-19)
(92.7039 40.5454 1.73769e-20)
(92.589 47.4456 -7.63632e-20)
(92.9022 27.7689 9.44273e-20)
(92.8083 33.9309 -1.48391e-21)
(93.0531 17.4342 1.90837e-20)
(92.9844 22.2207 0)
(93.1498 10.5341 -1.72731e-19)
(93.1081 13.5247 0)
(93.1986 6.97877 -1.33791e-19)
(93.1793 8.4001 3.06292e-19)
(93.2153 5.5836 0)
(93.21 6.09514 -3.83794e-20)
(93.2154 5.18098 3.06451e-19)
(93.217 5.31194 -3.83745e-20)
(93.2076 5.10033 -3.06874e-19)
(93.212 5.12432 -6.12104e-19)
(93.1921 5.07154 0)
(93.2017 5.08586 0)
(93.1145 5.05111 -1.82787e-18)
(93.164 5.06426 6.09844e-19)
(93.0628 5.05859 -2.42857e-18)
(93.0845 5.03068 1.22262e-18)
(93.1183 4.99887 2.42993e-18)
(93.1184 5.03224 6.07886e-19)
(93.254 4.84816 0)
(93.1679 4.9781 0)
(93.4158 4.27621 -4.79513e-18)
(93.3427 4.59775 -2.4152e-18)
(93.7667 3.14636 0)
(93.4843 3.78716 -7.10373e-18)
(94.7978 1.22617 -2.36671e-18)
(94.1861 2.47609 0)
(96.7167 -2.08688 5.99037e-19)
(95.6827 -0.25374 0)
(97.8814 -4.25878 -4.74805e-18)
(-1.24197 -0.773925 3.78781e-21)
(-1.15393 -0.637202 -8.42367e-17)
(-1.10969 -2.14637 -1.41507e-16)
(-54.8234 4.41052 0)
(-18.8235 4.68423 -2.59756e-17)
(-0.98379 0.438841 -1.7516e-16)
(-94.4032 -45.6188 -1.47091e-16)
(14.1224 -38.8899 -3.02854e-16)
(93.6408 -14.5378 8.27941e-17)
(-91.0497 95.082 1.19821e-18)
(91.0507 95.076 7.44103e-20)
(-2.49052 -5.57548 -1.85628e-16)
(-66.7965 3.90041 1.05777e-17)
(-44.4938 4.13906 0)
(-32.0691 4.34025 0)
(-5.50253 4.36384 1.14408e-17)
(86.1262 -7.29786 0)
(-0.613585 -11.4532 0)
(-77.0309 2.97901 1.06291e-17)
(102.55 -8.17722 0)
(103.738 -11.3661 3.76006e-17)
(102.352 -12.9777 0)
(8.16268 3.83002 -4.39911e-17)
(75.1241 -3.91178 -3.96865e-17)
(63.1767 -1.20382 4.08076e-17)
(-85.6784 1.42626 -1.61605e-17)
(35.3283 39.387 -9.11211e-17)
(22.2209 3.11616 0)
(-58.2055 -32.5122 -1.97974e-19)
(-92.6827 -0.719446 1.66472e-17)
(-4.05895 -10.708 7.17053e-17)
(36.4593 2.13129 -3.29899e-19)
(50.1893 0.708383 0)
(-0.753981 1.51536 1.94735e-16)
(-0.821672 1.13328 -1.80831e-16)
(94.6588 -18.315 1.08891e-19)
(-1.43394 -0.810357 -9.13405e-17)
(-1.0662 0.450324 1.26441e-19)
(1.05045 1.65013 5.70182e-18)
(-98.1763 -0.675991 -3.64972e-17)
(-99.3136 -2.69394 2.06289e-16)
(-96.6372 2.19261 1.35839e-20)
(-97.274 0.889678 1.04011e-17)
(-95.8803 4.02634 5.08084e-18)
(-96.1678 3.25615 -5.11906e-18)
(-95.5886 4.97782 -2.50801e-18)
(-95.7199 4.61642 2.51871e-18)
(-95.5933 5.38328 1.24539e-18)
(-95.6016 5.24132 -2.50105e-18)
(-95.6639 5.42639 2.47147e-18)
(-95.6233 5.42257 -1.24108e-18)
(-95.7532 5.30124 -6.16562e-19)
(-95.7074 5.37437 6.17317e-19)
(-95.8311 5.12916 0)
(-95.7936 5.20953 -1.84611e-18)
(-95.8853 5.00652 0)
(-95.8591 5.05264 -3.07766e-19)
(-95.9211 4.99422 -7.67108e-20)
(-95.905 4.98318 1.15083e-19)
(-95.9392 5.20384 0)
(-95.9324 5.05666 1.9217e-20)
(-95.9409 6.01592 0)
(-95.9422 5.49136 4.77864e-21)
(-95.9186 8.34114 -3.00012e-22)
(-95.9338 6.91112 2.40132e-21)
(-95.8534 13.4739 4.08349e-20)
(-95.8928 10.4805 -3.81447e-20)
(-95.7248 22.1701 7.1504e-21)
(-95.7979 17.3843 -2.39223e-21)
(-95.5331 33.8767 9.48431e-21)
(-95.6363 27.7169 -4.75271e-21)
(-95.2865 47.3803 -9.40915e-20)
(-95.4163 40.4869 1.85809e-20)
(-94.9843 61.3547 0)
(-95.1429 54.3906 7.62507e-20)
(-94.6127 74.531 -2.98039e-19)
(-94.8089 68.1164 2.97437e-19)
(-94.1264 85.8366 6.21068e-19)
(-94.3882 80.4697 -5.96004e-19)
(-93.4257 94.7089 -5.62239e-19)
(-93.8116 90.583 5.55691e-19)
(-92.9473 98.257 5.92514e-19)
(-86.511 99.1324 0)
(-90.6563 98.7326 0)
(-71.133 99.5592 -8.64419e-19)
(-79.9694 99.3891 5.87815e-19)
(-48.3798 99.7594 -1.85864e-20)
(-60.4605 99.6778 -1.66154e-19)
(-21.2 99.8502 3.77258e-20)
(-35.2352 99.815 1.85186e-20)
(6.98807 99.8649 -5.34665e-20)
(-6.98725 99.8651 -1.82619e-20)
(35.2342 99.8158 0)
(21.1991 99.8499 -1.508e-19)
(60.4614 99.6778 1.38389e-19)
(48.3806 99.7602 0)
(79.9718 99.3888 -1.96968e-20)
(71.1332 99.5597 3.05743e-19)
(90.6557 98.7289 -6.28797e-19)
(86.5124 99.1297 4.97833e-20)
(92.9477 98.2517 6.34948e-19)
(93.8141 90.57 6.29807e-19)
(93.4274 94.7002 -1.26568e-18)
(94.3916 80.4445 -4.66491e-21)
(94.1299 85.8176 0)
(94.8112 68.0811 5.65097e-23)
(94.6153 74.5 0)
(95.1427 54.3508 0)
(94.9857 61.3166 0)
(95.4133 40.4498 -1.89435e-20)
(95.285 47.3409 0)
(95.6301 27.6915 -1.90034e-20)
(95.5283 33.8443 0)
(95.7906 17.3785 -1.91286e-20)
(95.7177 22.1538 9.54801e-21)
(95.8893 10.5015 1.5367e-19)
(95.8473 13.4808 -1.91555e-20)
(95.9375 6.96459 1.92512e-20)
(95.9185 8.37756 -1.52817e-19)
(95.9555 5.57966 2.68131e-19)
(95.9491 6.08734 -2.687e-19)
(95.9594 5.17954 6.13028e-19)
(95.959 5.31057 -2.6853e-19)
(95.9628 5.09408 6.10701e-19)
(95.9592 5.11816 -9.18669e-19)
(95.963 5.0636 6.11217e-19)
(95.9601 5.07765 -1.83653e-18)
(95.9213 5.04204 -6.09686e-18)
(95.9446 5.04349 1.21959e-18)
(95.9204 5.04176 -1.21751e-18)
(95.9196 5.03035 -3.64507e-18)
(95.9722 4.96979 6.10227e-19)
(95.9622 5.0169 1.62359e-21)
(96.0806 4.73157 4.85826e-18)
(96.0149 4.90145 -2.4334e-18)
(96.2764 4.06416 4.814e-18)
(96.1658 4.4447 -6.05021e-18)
(96.9013 2.82077 -9.57155e-18)
(96.4572 3.53857 -1.19475e-18)
(97.9817 0.543349 -2.38932e-18)
(97.3679 1.84155 9.56083e-18)
(100.003 -3.06288 1.91897e-17)
(98.8952 -1.08432 0)
(101.245 -5.43307 -1.91394e-17)
(-4.15389 -5.58211 0)
(-2.9966 -5.89935 0)
(-102.773 -6.53641 2.24544e-16)
(-0.873788 1.25705 2.63625e-16)
(-1.02288 -0.216654 -7.39376e-17)
(-56.0862 4.02254 0)
(-18.9136 4.49396 0)
(-1.57771 -0.458765 2.84469e-16)
(85.5486 -13.6563 -4.24638e-17)
(85.8402 -10.5703 4.05126e-17)
(-6.51109 -10.0721 -2.24452e-16)
(-1.37188 0.763451 1.60645e-16)
(-0.913386 1.76287 0)
(-67.57 3.2288 -1.06864e-17)
(104.2 -9.42133 0)
(105.56 -12.5505 -1.94293e-17)
(105.398 -13.7802 -4.46563e-19)
(-5.35386 3.88969 2.7997e-18)
(-45.0971 3.62948 0)
(-32.4434 3.79734 0)
(-2.78275 -2.82239 -1.65575e-16)
(75.5611 -6.42277 -2.00315e-17)
(1.00222 1.76032 -2.57414e-21)
(-94.3484 94.2265 -5.92851e-19)
(-93.7631 97.6505 0)
(90.1549 101.894 6.14608e-19)
(92.3532 101.296 3.72218e-20)
(63.5717 -3.25404 0)
(1.93805 -19.6229 -1.82989e-16)
(-77.7752 1.93162 -4.14199e-20)
(105.598 -16.7151 -2.23352e-17)
(-0.832187 1.72708 -2.58782e-17)
(1.09824 1.55102 -5.64378e-18)
(1.17178 1.5224 3.32193e-17)
(1.24755 1.52132 -8.46072e-22)
(-1.35917 1.52431 -4.85675e-17)
(8.30549 3.17716 5.4004e-20)
(-14.5387 4.55855 0)
(-11.1075 7.82337 -1.57041e-16)
(-4.82205 -5.2799 1.78736e-16)
(-2.84288 -11.5732 4.46089e-17)
(-17.4498 0.969421 0)
(-20.3458 2.35065 -1.14658e-19)
(-86.5684 0.0314545 -2.17391e-17)
(101.948 -19.4727 6.6083e-17)
(0.921498 2.0813 2.06169e-17)
(0.888581 2.16373 0)
(0.850644 2.19472 -2.06917e-17)
(0.900907 2.15516 -2.17306e-17)
(5.01285 -4.49937 1.76167e-19)
(22.4311 2.24294 2.09557e-17)
(50.5334 -0.813377 -4.12213e-17)
(-94.0034 -2.60505 -2.97813e-20)
(-0.733575 1.64451 -1.03971e-16)
(36.7399 0.960951 4.17256e-17)
(-7.38029 10.2527 2.34308e-19)
(-6.23155 12.1325 3.2e-16)
(-14.4131 7.86274 1.58166e-16)
(-99.646 -5.78348 -1.32166e-16)
(-0.727817 1.49563 9.6045e-17)
(-10.4796 10.3598 -3.18976e-16)
(-0.825073 1.15241 8.82267e-17)
(-1.08325 0.666756 0)
(85.9656 -17.3818 -1.01092e-17)
(1.07732 1.69918 -5.71171e-18)
(95.7483 -22.2725 1.07363e-17)
(-26.3625 22.5279 -1.43e-16)