/*--------------------------------*- C++ -*----------------------------------*\
| =========                 |                                                 |
| \\      /  F ield         | OpenFOAM: The Open Source CFD Toolbox           |
|  \\    /   O peration     | Version:  2212                                  |
|   \\  /    A nd           | Website:  www.openfoam.com                      |
|    \\/     M anipulation  |                                                 |
\*---------------------------------------------------------------------------*/
FoamFile
{
    version     2.0;
    format      ascii;
    arch        "LSB;label=32;scalar=64";
    class       surfaceScalarField;
    location    "0.00233";
    object      phi;
}
// * * * * * * * * * * * * * * * * * * * * * * * * * * * * * * * * * * * * * //

dimensions      [1 0 -1 0 0 0 0];

oriented        oriented;

internalField   nonuniform List<scalar> 
5190
(
-2.92855e-05
-2.32504e-05
2.79824e-05
2.3767e-05
2.16895e-05
2.2498e-05
-3.40478e-05
-2.33292e-05
-9.22929e-06
-4.4137e-05
5.57122e-06
3.40327e-05
-9.37976e-06
8.06078e-06
1.78173e-06
1.43213e-07
6.63056e-05
9.64707e-06
-8.88143e-05
-8.4545e-06
-3.87157e-05
2.36913e-05
3.12959e-05
-3.26234e-05
-1.41299e-06
3.27607e-06
1.52896e-06
-2.78e-06
-3.39292e-06
3.50478e-06
-7.54834e-06
8.03077e-06
8.56524e-06
-8.25867e-06
-4.1238e-06
4.42396e-06
8.89036e-06
-4.88932e-06
5.14869e-06
-2.93285e-06
2.31308e-06
-8.07385e-06
-1.0077e-05
8.885e-06
-8.47941e-06
1.00572e-05
8.23907e-06
-1.01504e-05
-7.72803e-06
-1.56861e-05
1.51405e-05
-1.29542e-05
1.34324e-05
-1.01899e-05
-9.01908e-06
1.12295e-05
8.31435e-06
-1.28615e-05
-1.12604e-05
1.26776e-05
1.20825e-05
-1.23234e-05
-1.23077e-05
1.34245e-05
1.1463e-05
7.7646e-06
-3.67414e-06
3.18291e-06
-6.8127e-06
7.77605e-06
-4.0886e-06
4.60132e-06
-4.7752e-06
6.52727e-06
6.55549e-06
1.06322e-05
-3.82623e-06
4.66328e-06
-1.0932e-05
-1.06137e-05
1.05505e-05
-7.3693e-06
7.92349e-06
-1.0643e-05
-6.33497e-06
6.91754e-06
-5.33609e-06
5.87868e-06
-1.03921e-05
9.42299e-06
8.80238e-06
-6.55131e-06
7.43556e-06
-4.07415e-06
8.19183e-06
-7.44137e-06
-2.99368e-06
-4.20956e-06
6.43841e-06
-7.92521e-06
8.03924e-06
-4.41725e-06
-4.07288e-06
-8.74378e-06
9.6755e-06
-4.29844e-06
-4.44041e-06
4.16885e-06
-9.93456e-06
1.00684e-05
-5.90002e-06
-5.06212e-06
-6.93182e-06
1.24473e-05
-6.01302e-06
7.38785e-06
-1.32273e-05
1.20664e-05
-8.25176e-06
9.213e-06
-9.78021e-06
1.218e-05
1.0254e-05
1.09475e-05
-1.09746e-05
-9.22098e-06
1.07511e-05
-1.16913e-05
1.23964e-05
1.10075e-05
-1.00221e-05
-6.46121e-06
-7.67346e-06
9.15487e-06
-9.08973e-06
-6.37372e-06
6.86173e-06
-6.27383e-06
5.92158e-06
1.96223e-05
2.60054e-05
-3.41693e-05
-2.03628e-05
-5.5675e-06
5.95149e-06
-7.8671e-06
-3.63614e-06
3.85919e-06
-2.17632e-06
-6.59697e-06
7.34434e-06
2.05036e-06
7.38143e-06
-6.83976e-06
-2.99444e-06
3.0379e-06
-3.27865e-06
1.08793e-05
1.26189e-05
-1.23153e-05
-1.26856e-05
1.29917e-05
-7.79043e-06
3.57234e-06
8.32097e-06
-7.28506e-06
-3.1241e-06
3.19834e-06
9.5088e-06
-9.49987e-06
-7.23507e-06
9.44426e-06
-7.95371e-06
-2.35988e-06
-6.84855e-06
2.42123e-06
-2.72147e-06
2.77715e-06
-6.30868e-06
-6.59697e-06
7.08568e-06
-2.90287e-06
-2.63496e-06
-6.10248e-06
-8.51835e-06
9.05827e-06
4.62152e-06
3.24132e-06
-1.08548e-05
1.07948e-05
5.34395e-06
5.3449e-06
-1.10798e-05
1.12962e-05
7.24608e-06
6.16278e-06
-1.11979e-05
1.01981e-05
1.02046e-05
8.47647e-06
-6.8622e-07
-1.92881e-06
2.60397e-06
5.2063e-07
1.25483e-05
7.47731e-06
1.27214e-05
-1.23558e-05
1.0515e-05
1.13708e-05
1.18253e-05
8.22603e-06
-1.19612e-05
9.31014e-06
-8.84566e-06
1.02658e-05
-3.57156e-07
1.33468e-06
-6.46448e-07
2.45667e-07
-1.12718e-05
1.42418e-05
-1.8772e-05
7.63856e-06
-7.12866e-05
-7.9311e-06
5.49932e-05
-7.23575e-06
7.36173e-06
-3.66033e-06
7.43813e-06
-7.00236e-06
-2.78038e-06
-3.40812e-06
-7.61563e-06
7.94222e-06
-4.25388e-06
-3.81413e-06
-8.19352e-06
8.91029e-06
-4.54826e-06
-4.22903e-06
-9.25298e-06
9.45886e-06
-5.53251e-06
-4.88267e-06
-6.40853e-06
8.88686e-06
-9.66873e-06
-7.91698e-06
-8.40118e-06
6.07757e-06
9.70089e-06
-9.23379e-06
-6.35874e-06
-7.08734e-06
8.94516e-06
-8.90138e-06
-5.85312e-06
-5.99651e-06
8.68981e-06
-8.48965e-06
-4.51999e-06
-5.22387e-06
8.00869e-06
-7.57661e-06
-3.44661e-06
-3.99549e-06
-3.16821e-06
-2.82505e-06
2.88102e-06
-6.75303e-06
7.05657e-06
-6.51766e-06
9.56221e-06
-8.52315e-06
-8.3408e-06
1.02816e-05
1.44151e-05
-1.59518e-05
-9.2387e-06
1.25242e-05
-1.03733e-05
1.23236e-05
-6.47148e-06
-2.25014e-06
-6.36191e-06
6.81478e-06
-2.78672e-06
-5.8912e-06
-2.51824e-06
1.44932e-05
-1.48865e-05
1.11471e-05
-1.19199e-05
1.42744e-05
1.24533e-05
-1.08386e-05
1.3703e-05
-1.16696e-05
1.25979e-05
9.46142e-06
-8.59906e-06
-7.68248e-06
7.26988e-06
-7.38146e-06
9.44005e-06
1.19531e-05
-1.35387e-05
1.04348e-05
-7.87908e-06
-6.94597e-06
7.53819e-06
2.87922e-06
2.56293e-06
-2.56564e-06
-6.1589e-06
2.55149e-06
-6.34872e-06
1.00817e-05
7.92704e-06
-1.02001e-05
-7.34397e-06
1.53821e-05
-1.38482e-05
-1.40865e-05
1.26782e-05
-1.29706e-05
1.27945e-05
-0.000138742
-3.345e-05
7.46142e-05
7.47842e-05
9.36367e-06
-9.11381e-06
9.72177e-06
1.08138e-05
1.19887e-05
2.13834e-06
-2.03404e-06
-5.95312e-06
2.96715e-05
-4.05156e-05
-1.15303e-05
-6.25032e-06
2.30158e-05
1.56586e-05
-2.31985e-05
-1.5741e-05
1.69617e-05
-1.36832e-05
1.18732e-05
-9.02425e-06
8.77034e-06
2.65376e-06
2.34489e-06
-8.42489e-06
-9.1995e-06
1.00542e-05
4.34606e-06
3.38317e-06
-1.09719e-05
1.13286e-05
5.55215e-06
4.99951e-06
-1.17409e-05
1.21382e-05
7.35996e-06
6.31244e-06
-1.24014e-05
1.2995e-05
1.00374e-05
8.63585e-06
1.11456e-05
1.30976e-05
-1.29017e-05
1.0829e-05
1.19987e-05
1.26124e-05
8.57925e-06
-1.23862e-05
9.55279e-06
-1.19118e-05
1.7542e-05
7.31462e-06
-2.35848e-05
2.15692e-05
-2.83107e-05
2.00229e-05
-8.10785e-06
3.6188e-06
8.65896e-06
3.21191e-06
-6.55162e-06
6.90823e-06
-2.52101e-06
6.14036e-06
-1.80906e-06
-5.74275e-06
-2.04691e-06
-7.0769e-06
7.25117e-06
-3.2686e-06
-2.96194e-06
-7.48415e-06
7.58913e-06
-3.84257e-06
-3.50858e-06
-8.09357e-06
8.27886e-06
-4.25464e-06
-4.24301e-06
-8.74596e-06
8.83774e-06
-5.07582e-06
-4.84735e-06
-8.94162e-06
8.80477e-06
-6.55975e-06
-5.95826e-06
-8.78009e-06
8.74313e-06
-7.95334e-06
-7.3816e-06
-1.36946e-05
1.2499e-05
1.67373e-05
-8.71601e-06
8.83007e-06
8.79166e-06
-9.01161e-06
-7.16566e-06
-7.73296e-06
8.95782e-06
-8.7764e-06
-5.96852e-06
-6.58306e-06
8.50542e-06
-8.55496e-06
-5.24316e-06
-5.69442e-06
8.44076e-06
-8.14046e-06
-4.23019e-06
-4.78064e-06
7.75009e-06
-7.24939e-06
-3.33015e-06
-3.76204e-06
-3.01951e-06
-2.46103e-06
2.51573e-06
-5.76619e-06
2.3682e-06
-5.38899e-06
-2.25159e-06
-5.59267e-06
-5.9702e-06
2.82212e-06
1.15053e-06
-2.45089e-06
-9.82908e-07
7.66772e-07
-1.37617e-06
7.16706e-06
-5.98736e-06
-5.5969e-06
7.86363e-06
-9.4873e-07
-1.34968e-05
1.44259e-05
1.37969e-05
-1.29118e-05
1.36057e-05
-1.37517e-05
1.38608e-05
-1.03334e-05
1.24533e-05
1.01446e-05
1.00217e-05
-1.00076e-05
-1.0913e-05
1.21919e-05
5.79695e-06
-5.67511e-06
-1.25683e-06
-9.13489e-06
1.01753e-05
1.1376e-05
-8.72041e-06
1.05008e-05
-7.18378e-06
7.84047e-06
2.79642e-06
-6.53472e-06
2.47712e-06
-1.21574e-05
1.32249e-05
-1.19603e-05
1.27293e-05
-2.04706e-06
1.99153e-06
-5.28296e-06
-2.16355e-06
-4.99111e-06
0.00315102
1.36704e-07
-0.00300297
1.55216e-06
2.99732e-07
0.00325907
1.4992e-06
-0.00315107
0.00325917
1.93204e-06
-0.00300296
1.87102e-06
-2.0337e-06
2.17012e-06
-4.8989e-06
-5.1892e-06
5.6727e-06
-2.10022e-06
-4.71564e-06
-1.87445e-06
-6.13379e-06
4.38727e-06
-1.03791e-05
1.26323e-05
-1.4483e-05
1.41481e-05
1.30362e-06
3.12055e-06
-1.09992e-06
-5.93727e-06
-1.69655e-06
6.85366e-06
-3.06059e-05
-2.85477e-05
2.97831e-05
2.83962e-05
2.71745e-05
2.27278e-05
-3.82169e-05
-2.06305e-05
4.76817e-05
1.62272e-05
-1.2493e-05
-6.60185e-05
1.10831e-05
1.17993e-05
1.9033e-05
1.85407e-05
-5.53012e-06
1.89328e-06
-7.01415e-06
2.39776e-05
1.26649e-05
-2.98027e-05
-7.94754e-06
8.55552e-06
2.25355e-06
-2.24147e-06
1.63306e-06
-1.81395e-06
-8.96437e-06
9.3735e-06
2.86105e-06
2.55161e-06
-9.88338e-06
1.06255e-05
4.16825e-06
3.44354e-06
-1.13723e-05
1.19774e-05
5.49103e-06
4.79624e-06
-1.25458e-05
1.30832e-05
7.2893e-06
6.27661e-06
-1.36338e-05
1.4341e-05
9.70481e-06
8.45651e-06
-1.51055e-05
1.49372e-05
1.17184e-05
1.07972e-05
1.31689e-05
1.39118e-05
-1.37975e-05
1.09556e-05
1.25511e-05
1.34452e-05
-1.29179e-05
8.38699e-06
9.49934e-06
1.2181e-05
-1.13225e-05
6.49361e-06
-6.8747e-06
7.42985e-06
-7.75273e-06
1.04977e-05
-9.75518e-06
4.72016e-06
-4.8665e-06
5.51809e-06
-5.79248e-06
9.08746e-06
-8.4702e-06
3.57415e-06
4.06219e-06
-4.14254e-06
3.14919e-06
0.0033152
2.94967e-07
1.26883e-06
0.00300374
5.15316e-07
9.21797e-07
0.00158978
8.26863e-07
-1.93582e-08
0.00109616
9.20919e-07
-4.43837e-07
0.00082988
1.4382e-06
-6.99584e-07
0.000658167
2.39782e-06
-1.69409e-06
0.000532312
3.35938e-06
-3.29399e-06
0.000433804
4.86291e-06
-4.33354e-06
0.000354396
6.78724e-06
-6.52535e-06
8.05999e-06
0.000290314
-8.33281e-06
0.000291547
-0.000354548
7.20009e-06
0.000237277
8.10206e-06
-9.08863e-06
8.85126e-06
0.000193424
-1.04745e-05
-0.000239574
0.000197012
6.58012e-06
7.0916e-06
0.000432794
-0.000531466
5.93646e-06
6.42834e-06
0.000657946
-0.000829425
2.94209e-06
4.18527e-06
0.00109626
-0.00159048
1.66404e-06
2.39714e-06
0.00300515
-0.0033153
1.78465e-06
1.7691e-06
2.00844e-06
-6.22093e-06
6.5619e-06
-2.28088e-06
-1.87197e-06
-6.81292e-06
7.04156e-06
-2.92783e-06
-2.62086e-06
-7.27946e-06
7.4494e-06
-3.46399e-06
-3.18655e-06
-7.5488e-06
7.89012e-06
-4.07772e-06
-3.81041e-06
-8.15388e-06
8.40506e-06
-4.81406e-06
-4.59291e-06
-8.325e-06
8.30524e-06
-5.98955e-06
-5.3635e-06
-8.20463e-06
8.05647e-06
-7.22955e-06
-6.69602e-06
-2.34646e-05
2.27894e-05
-3.09729e-05
-7.7896e-06
7.67958e-06
-9.39969e-06
1.09938e-05
-7.17096e-06
9.19952e-06
-8.82576e-06
-8.54931e-06
-9.11124e-06
9.70725e-06
1.03635e-05
-1.0528e-05
8.74011e-06
8.37509e-06
-6.16296e-06
-9.87373e-06
8.44377e-06
-8.29154e-06
-7.29518e-06
-7.71893e-06
8.4578e-06
-8.51794e-06
-6.55618e-06
-7.03311e-06
8.49041e-06
-8.29799e-06
-5.5768e-06
-6.03644e-06
8.25081e-06
-8.16691e-06
-4.7579e-06
-5.15889e-06
8.02549e-06
-7.75077e-06
-3.91017e-06
-4.35406e-06
7.39557e-06
-6.97831e-06
-3.15795e-06
-3.51363e-06
6.56009e-06
-6.1323e-06
-2.6288e-06
-2.86219e-06
-2.36424e-06
-2.25652e-06
2.31805e-06
-5.22154e-06
-5.06402e-06
-2.34171e-06
2.32252e-06
-5.54575e-06
-5.3915e-06
-2.27897e-06
2.19109e-06
-5.87624e-06
-5.71888e-06
-1.87203e-05
-2.88259e-05
2.7348e-05
1.91825e-05
-4.2074e-05
4.49177e-05
-1.30972e-05
9.62816e-06
-1.1352e-05
1.20442e-05
1.073e-05
1.00876e-05
-1.03059e-05
1.06199e-05
1.09396e-05
-1.13851e-05
1.22018e-05
-4.565e-06
-2.58358e-06
-1.43519e-05
1.80144e-05
1.05571e-05
8.89291e-08
1.40051e-06
-0.00273852
1.55415e-06
-0.00273844
5.58125e-06
-1.05556e-06
-5.19801e-06
-8.07899e-05
-4.9841e-05
3.3984e-05
9.15266e-05
0.000290391
-0.000354775
-8.9768e-06
0.000236392
-9.67838e-06
-1.30971e-05
1.27691e-05
-0.000136106
-2.90696e-05
4.45847e-05
8.88643e-05
1.01374e-05
9.38309e-06
1.22698e-05
-1.24531e-05
1.33207e-05
1.2092e-06
-1.46173e-06
-5.16793e-06
1.27468e-06
-5.15782e-06
-0.00273798
0.00300218
3.70862e-06
1.1057e-06
7.3836e-08
-0.00241233
2.85443e-06
-0.00241213
-1.91795e-06
2.00373e-06
-4.36178e-06
-1.76314e-06
-4.2418e-06
-5.03448e-06
5.46903e-06
-1.90035e-06
-4.56801e-06
-1.71028e-06
-7.11312e-06
0.000159502
4.48591e-06
0.000159865
-1.26697e-05
1.05763e-05
4.50919e-06
-1.02586e-05
1.07564e-05
5.6706e-06
-5.47497e-06
-1.43456e-05
1.46563e-05
1.46007e-05
9.70352e-06
6.48749e-06
-9.91147e-06
-5.91684e-06
1.02796e-05
8.11071e-06
3.28966e-05
1.64181e-05
-1.35262e-05
2.08998e-05
1.49677e-05
-2.32787e-05
-2.54184e-05
2.83367e-05
-9.95112e-06
9.36084e-07
4.49824e-07
-3.38723e-07
-5.05047e-07
-6.0434e-06
6.74274e-06
2.04138e-06
1.96117e-06
-2.05555e-06
-5.20884e-06
1.80707e-06
-5.33767e-06
1.09262e-05
1.15968e-05
1.97822e-06
-3.99376e-06
-1.9217e-06
-1.95164e-06
1.88529e-06
-4.58993e-06
-4.32175e-06
-1.80994e-06
1.65578e-06
-5.01397e-06
5.78746e-06
-4.82684e-06
-5.14638e-06
-7.98438e-06
8.5628e-06
2.2559e-06
2.1297e-06
-9.14086e-06
9.72921e-06
2.86916e-06
2.56454e-06
-1.03895e-05
1.11699e-05
3.91244e-06
3.34925e-06
-1.1902e-05
1.26581e-05
5.23877e-06
4.57334e-06
-1.33777e-05
1.40511e-05
6.99516e-06
6.03495e-06
-1.47051e-05
1.53676e-05
9.33092e-06
8.05769e-06
-1.58885e-05
1.56706e-05
1.22577e-05
1.06343e-05
1.46675e-05
-1.29657e-05
1.47394e-05
2.34418e-05
1.66011e-05
-2.33274e-05
1.42903e-05
-1.49711e-05
1.45941e-05
1.64711e-05
1.47986e-05
1.52527e-05
-1.50038e-05
1.05006e-05
1.24589e-05
1.44527e-05
-1.37861e-05
7.70849e-06
8.84595e-06
1.29789e-05
-1.2128e-05
5.93137e-06
6.77396e-06
1.12027e-05
-1.03671e-05
4.39468e-06
5.02417e-06
9.57838e-06
-8.87757e-06
3.38478e-06
3.78953e-06
8.16204e-06
-7.45673e-06
2.63096e-06
2.9636e-06
2.31077e-06
-0.00315013
0.00325809
4.07625e-06
4.19984e-06
-0.00331411
0.00300253
2.8248e-06
3.74471e-06
-0.00158899
0.0010955
5.68866e-07
1.60032e-06
-0.000829885
0.00065841
-7.0572e-07
3.73433e-08
-0.000531865
0.000434141
-4.38135e-06
-2.0211e-06
-6.18997e-06
-0.00273795
0.0030021
3.96772e-06
-1.16784e-06
2.96269e-06
-0.00241221
-0.00241226
-8.18728e-07
-1.53464e-05
-0.000162872
-1.06729e-05
-4.59951e-05
-1.03036e-05
5.75462e-05
-9.03129e-07
0.000199896
-0.000242127
3.6852e-06
2.69935e-06
0.000294547
-0.000357317
5.65093e-06
5.57761e-06
0.000434759
-0.000531418
5.49134e-06
5.51941e-06
0.000656884
-0.000830165
5.66001e-06
4.74669e-06
0.00109691
-0.00159103
2.47421e-06
3.26531e-06
0.00300536
-0.00331467
3.78018e-06
3.11479e-06
0.00325813
-0.00315037
4.53914e-06
4.26298e-06
4.42286e-06
-5.93462e-06
6.2422e-06
-2.02704e-06
-1.65441e-06
-6.51774e-06
6.75414e-06
-2.61005e-06
-2.33372e-06
-6.97044e-06
7.22633e-06
-3.16674e-06
-2.85523e-06
-7.43431e-06
7.72932e-06
-3.80346e-06
-3.45379e-06
-7.73389e-06
7.83666e-06
-4.39289e-06
-4.03503e-06
-7.82121e-06
7.81409e-06
-5.44183e-06
-4.83928e-06
-7.63547e-06
7.43338e-06
-6.46574e-06
-5.95249e-06
-7.08057e-06
6.62036e-06
-7.57553e-06
8.61301e-06
-6.87446e-06
-6.00311e-06
5.02518e-06
-8.84381e-06
-8.22032e-06
-1.03064e-05
1.10211e-05
4.20154e-06
-4.332e-06
3.76478e-06
-9.22593e-06
-9.03643e-06
-1.09877e-05
7.44958e-06
1.0452e-05
3.31265e-06
-4.40829e-06
-9.38698e-06
-1.01753e-05
2.95731e-06
1.08728e-05
-3.26931e-06
-2.07496e-06
1.95337e-06
-9.66745e-06
-9.76504e-06
1.14355e-05
4.4846e-06
-6.45412e-06
-9.38089e-06
1.18978e-05
-9.35713e-06
7.26857e-06
-7.5738e-06
-7.6634e-06
-8.41822e-06
7.66224e-06
-7.7416e-06
-6.661e-06
-7.08139e-06
7.91938e-06
-7.99987e-06
-5.91796e-06
-6.30307e-06
8.0023e-06
-7.95657e-06
-5.03661e-06
-5.45727e-06
7.87962e-06
-7.78109e-06
-4.29613e-06
-4.65933e-06
7.6293e-06
-7.3825e-06
-3.57828e-06
-3.94204e-06
7.07098e-06
-6.70554e-06
-2.93407e-06
-3.24201e-06
6.31452e-06
-5.9092e-06
-2.4243e-06
-2.6552e-06
-2.18297e-06
-2.08025e-06
2.11562e-06
-4.64878e-06
-4.52307e-06
-2.13569e-06
2.11674e-06
-4.93256e-06
-4.80743e-06
-5.06997e-06
1.87265e-05
2.41603e-05
3.54044e-05
-2.17807e-06
2.36312e-06
-3.63594e-05
0.000192392
-1.16455e-05
-1.23919e-05
1.16358e-05
1.14572e-05
9.13734e-06
1.1178e-05
1.03993e-05
-1.19606e-05
1.21972e-05
-5.05579e-06
1.7112e-06
5.07045e-06
-1.77268e-05
-1.15742e-05
1.30083e-05
7.93953e-06
-1.69361e-05
1.24958e-05
5.55928e-06
1.06422e-05
-8.33203e-06
-0.00273689
0.00300074
7.44035e-06
-0.0024117
5.65465e-06
-1.6458e-06
1.75705e-06
-3.50452e-06
-3.65885e-05
2.19013e-06
-7.96861e-06
-3.84858e-06
-1.86805e-06
3.7066e-06
-3.60943e-06
-1.59934e-06
-1.42366e-06
-3.27923e-06
-1.49911e-06
-4.18773e-06
-6.19126e-06
6.94452e-06
1.81419e-06
-5.46058e-06
1.60713e-06
0.000125791
-1.70342e-05
1.90612e-05
-1.66316e-05
-2.14196e-05
1.86245e-05
-1.68177e-05
2.05244e-05
1.50792e-05
-2.32268e-05
1.59305e-05
2.87451e-06
-2.56637e-06
0.000290463
-0.000355839
-8.16963e-06
0.000236722
-1.00892e-05
1.75526e-05
2.42611e-05
-1.81206e-05
1.73246e-05
-2.22226e-05
2.18913e-05
2.71426e-05
-1.7909e-05
1.47187e-05
1.18041e-05
7.24228e-06
-1.43512e-05
1.294e-05
-1.30311e-05
1.3687e-05
1.10791e-05
8.92594e-06
2.14168e-05
-1.46942e-05
-0.00273714
0.00300095
7.74919e-06
-0.00241191
5.77001e-06
-3.55488e-05
3.5464e-05
-1.96017e-05
1.87083e-05
-4.81496e-05
1.25985e-05
3.9813e-05
-6.39501e-05
1.84147e-05
2.50098e-05
-1.49767e-05
-1.53826e-05
1.58283e-05
1.43499e-05
1.19814e-05
5.07847e-06
1.06336e-05
3.06092e-06
-9.46015e-06
3.50638e-06
1.17344e-05
1.06978e-05
1.40232e-06
-9.69255e-06
2.09216e-06
1.20596e-05
1.12745e-05
7.63709e-06
-1.37804e-05
1.49839e-05
-2.05055e-05
-1.52365e-05
2.23646e-05
1.35541e-05
0.000153456
-1.13705e-05
1.13466e-06
3.0552e-07
-6.58357e-07
-3.3626e-07
2.44945e-05
-8.11665e-06
-2.62564e-05
3.00498e-05
-1.91019e-05
-2.71141e-05
1.58268e-05
1.03838e-05
1.13328e-05
-1.80417e-06
1.80764e-06
-3.96204e-06
-3.74227e-06
-1.779e-06
1.70239e-06
-4.3038e-06
-4.1587e-06
-1.60079e-06
1.5175e-06
-4.51391e-06
-4.44313e-06
-1.46617e-06
1.45508e-06
-4.54586e-06
-4.5729e-06
5.10267e-06
-4.58499e-06
1.4242e-06
-5.36819e-06
7.52566e-06
2.70057e-06
-4.33141e-06
1.90768e-06
-7.99948e-06
8.67578e-06
2.10558e-06
2.25006e-06
-9.37765e-06
1.01283e-05
2.65961e-06
2.38521e-06
-1.09008e-05
1.16934e-05
3.61345e-06
3.11338e-06
-1.25442e-05
1.33519e-05
4.86275e-06
4.19254e-06
-1.41728e-05
1.49832e-05
6.47088e-06
5.59012e-06
-1.57728e-05
1.6608e-05
8.73662e-06
7.48063e-06
-1.73737e-05
1.79073e-05
1.18484e-05
1.01311e-05
-1.85502e-05
2.04527e-05
1.5968e-05
1.40082e-05
1.79676e-05
1.73412e-05
2.20576e-05
-2.06959e-05
1.64292e-05
-1.84953e-05
1.67108e-05
1.97447e-05
-1.85044e-05
1.26245e-05
1.47116e-05
1.73773e-05
-1.63985e-05
8.97217e-06
1.06772e-05
1.55448e-05
-1.46217e-05
6.50027e-06
7.57391e-06
1.37241e-05
-1.27426e-05
5.05858e-06
5.78654e-06
1.18243e-05
-1.09327e-05
3.85016e-06
4.377e-06
1.00786e-05
-9.25482e-06
2.98902e-06
3.32284e-06
8.48474e-06
-7.71069e-06
2.35616e-06
2.66741e-06
2.06101e-06
-0.00314868
0.0032562
8.43819e-06
8.42377e-06
-0.00331219
0.0030013
6.4307e-06
7.9533e-06
-0.00158869
0.00109541
2.29279e-06
3.81538e-06
-0.00082976
0.000658858
3.90519e-07
1.40113e-06
-0.000533273
0.000434936
-3.40479e-06
-1.07579e-06
-5.55541e-06
1.60452e-07
5.95799e-07
-0.00204065
-8.63201e-07
1.84468e-06
-0.00204078
-0.00204054
4.67282e-06
1.22168e-05
-1.62826e-06
-0.00204114
2.93559e-06
-0.00204066
7.39408e-05
-9.54882e-05
2.40334e-06
4.06956e-06
1.6996e-05
-2.08132e-05
0.00013806
-0.000168483
-1.05622e-05
-1.22605e-05
0.000201995
-0.000244678
1.43193e-06
-1.0668e-06
0.000296468
-0.000359188
4.16521e-06
3.71876e-06
0.000436989
-0.000533414
4.99418e-06
5.16455e-06
0.000658867
-0.000829537
6.00163e-06
5.59343e-06
0.00109593
-0.00159117
5.06174e-06
4.59443e-06
0.00300397
-0.00331293
7.72266e-06
5.2663e-06
0.00325659
-0.00314903
8.82979e-06
8.41415e-06
8.6849e-06
-3.81241e-06
3.9472e-06
-1.55347e-06
3.4679e-06
-3.06121e-06
-1.3091e-06
-1.43439e-06
-4.4945e-06
5.19643e-06
-1.25003e-06
-1.33058e-06
1.24793e-06
-5.59365e-06
5.9227e-06
-1.80218e-06
-1.50302e-06
-6.21729e-06
6.47355e-06
-2.32228e-06
-2.07629e-06
-6.73835e-06
6.95618e-06
-2.83139e-06
-2.57456e-06
-7.15077e-06
7.29009e-06
-3.3752e-06
-3.08433e-06
-7.42076e-06
7.5085e-06
-3.9311e-06
-3.60091e-06
-7.51593e-06
7.41008e-06
-4.77975e-06
-4.30686e-06
-7.21563e-06
6.97409e-06
-5.65531e-06
-5.18527e-06
-6.69894e-06
6.28446e-06
-6.59519e-06
-6.05032e-06
-5.70632e-06
4.98318e-06
-7.54515e-06
-7.06651e-06
-4.30132e-06
3.64083e-06
-8.00532e-06
-7.78078e-06
-9.75197e-06
2.25993e-06
1.0999e-05
-2.90553e-06
2.1269e-06
-8.4461e-06
-8.18785e-06
1.31585e-06
9.98956e-06
-8.64271e-06
4.80131e-07
1.01123e-05
-8.74053e-06
-9.96718e-06
5.62365e-07
1.13186e-05
3.9392e-07
-1.15093e-06
-8.68777e-06
1.01758e-05
-8.76085e-06
1.80626e-06
-2.55814e-06
-8.44536e-06
-8.54921e-06
3.42819e-06
-4.03673e-06
-8.1961e-06
-8.37852e-06
4.83314e-06
-5.83366e-06
-7.7816e-06
-7.95246e-06
6.38013e-06
-6.72758e-06
-6.70935e-06
-7.25581e-06
6.98596e-06
-7.20269e-06
-5.89699e-06
-6.27018e-06
7.39018e-06
-7.52118e-06
-5.23104e-06
-5.56509e-06
7.57421e-06
-7.56588e-06
-4.48006e-06
-4.84332e-06
7.51788e-06
-7.42288e-06
-3.8378e-06
-4.15316e-06
7.27289e-06
-7.05136e-06
-3.21854e-06
-3.52577e-06
6.77125e-06
-6.44207e-06
-2.65356e-06
-2.92569e-06
6.08544e-06
-5.71477e-06
-2.19233e-06
-2.40188e-06
5.31449e-06
-4.87668e-06
-1.72031e-06
-1.97611e-06
4.449e-06
-4.20496e-06
-1.05656e-06
-1.51486e-06
-1.71548e-06
1.70714e-06
-3.54113e-06
-1.96885e-06
-1.788e-06
1.86837e-06
-3.82315e-06
-3.69795e-06
-1.92445e-06
1.96495e-06
-4.07874e-06
-3.9596e-06
-1.96546e-06
1.94303e-06
-4.31447e-06
-4.20307e-06
-1.88748e-06
1.79149e-06
-4.53526e-06
-4.42414e-06
-1.64992e-06
-4.72713e-06
1.44938e-06
-4.63945e-06
1.93222e-05
-1.58604e-05
-1.9758e-05
8.72644e-05
-8.05955e-06
-1.14755e-05
-2.83936e-05
3.16062e-05
1.33701e-05
0.000190993
-1.08199e-05
1.48946e-05
4.80025e-05
-1.88481e-05
2.21716e-05
-2.02641e-05
2.49897e-05
-4.98621e-06
-2.40209e-06
-2.93055e-05
-2.51312e-05
-1.23563e-05
3.24383e-05
-2.25785e-05
-1.61091e-05
1.35214e-05
1.27621e-05
8.5252e-06
-1.37557e-05
1.12905e-05
-4.25098e-07
1.16739e-05
1.3742e-06
1.13533e-05
-1.26648e-05
1.2248e-05
1.19696e-05
9.97208e-06
2.02747e-05
-1.56914e-05
-2.53866e-05
1.55119e-05
-1.80581e-05
8.66354e-06
1.85211e-07
-3.44134e-07
1.90554e-06
-2.38769e-05
2.17096e-05
-2.14586e-05
2.24841e-05
-2.15963e-05
2.16695e-05
2.30952e-05
-2.23624e-05
1.53891e-05
3.18911e-06
-0.00204143
-4.50121e-05
3.49642e-05
9.88837e-06
-6.4484e-05
2.42659e-05
-1.18234e-06
1.34253e-06
-2.685e-06
2.97158e-06
-1.10224e-06
-2.51629e-06
3.33062e-06
-1.14448e-06
2.09748e-05
2.41676e-05
-1.7318e-05
-1.52932e-05
1.29936e-05
1.30541e-05
6.51869e-06
2.63336e-06
1.23268e-05
9.58054e-07
1.29956e-05
1.21853e-05
8.40394e-06
-1.37585e-05
1.39107e-05
2.15855e-05
-1.20798e-05
-2.40293e-05
1.38032e-06
-1.47792e-06
-3.93473e-06
1.25124e-06
-3.95845e-06
0.000120125
-1.59793e-05
-9.73565e-06
3.67521e-05
7.42421e-05
-7.63709e-05
-1.00461e-05
5.70484e-06
1.67551e-05
2.53318e-05
-1.95742e-05
6.64245e-06
1.20824e-05
-2.3917e-05
-1.63959e-05
2.73922e-05
-5.48613e-05
-4.24564e-06
5.47722e-06
5.07508e-05
2.38134e-05
-1.43677e-05
6.73274e-05
2.91545e-05
2.09185e-05
-1.67601e-05
1.18424e-05
1.28887e-05
4.32066e-06
3.54955e-06
1.37239e-05
-1.3807e-05
1.68859e-05
1.21023e-05
1.33759e-06
-1.52029e-06
-4.01679e-06
-4.81153e-06
5.56391e-06
1.21195e-06
1.11316e-06
-4.07511e-06
-1.88124e-07
-2.47013e-07
-0.00166324
-0.00204416
0.00241291
3.78478e-06
-2.77653e-06
-0.00166745
0.000153033
-1.11174e-05
1.59201e-06
-2.98176e-06
2.03711e-05
-7.4203e-06
-2.05826e-05
1.50566e-05
2.09019e-05
-1.51436e-05
-1.96642e-05
6.88717e-06
-9.04101e-06
8.73417e-06
-1.01399e-05
-9.16467e-06
9.70475e-06
1.15656e-05
1.11415e-05
-1.30299e-05
2.28187e-05
1.04189e-05
-1.47333e-06
1.59631e-06
-3.03982e-06
-2.84906e-06
-1.66787e-06
1.70891e-06
-3.37954e-06
-3.21035e-06
-1.72417e-06
1.70215e-06
-3.64354e-06
-3.53058e-06
-1.65276e-06
1.57599e-06
-3.85952e-06
-3.78226e-06
-3.93409e-06
5.29332e-06
-4.67039e-06
1.29887e-06
-6.10531e-06
7.36359e-06
1.95888e-06
1.59529e-06
-8.22777e-06
8.88281e-06
1.95424e-06
1.92222e-06
-9.68195e-06
1.04564e-05
2.36712e-06
2.06347e-06
-1.13068e-05
1.21895e-05
3.18465e-06
2.74185e-06
-1.31118e-05
1.40908e-05
4.24446e-06
3.70201e-06
-1.49833e-05
1.5904e-05
5.7698e-06
4.97207e-06
-1.68744e-05
1.78913e-05
7.90321e-06
6.72658e-06
-1.89177e-05
1.99317e-05
1.06707e-05
9.1704e-06
-2.11916e-05
2.28617e-05
1.39688e-05
1.2483e-05
1.51345e-05
-2.3388e-05
2.55672e-05
1.5815e-05
-1.90917e-05
1.7803e-05
2.11743e-05
-1.98933e-05
1.1041e-05
1.31851e-05
1.86177e-05
-1.74179e-05
7.50206e-06
9.15046e-06
1.63545e-05
-1.53073e-05
5.18509e-06
6.21639e-06
1.43338e-05
-1.33242e-05
4.0565e-06
4.6656e-06
1.22905e-05
-1.13999e-05
3.17085e-06
3.47435e-06
1.05145e-05
-9.64794e-06
2.49919e-06
2.73432e-06
8.77998e-06
-7.94557e-06
1.98831e-06
2.23236e-06
7.12965e-06
-6.339e-06
1.5342e-06
1.73736e-06
1.3486e-06
-0.00273655
0.00299902
1.32323e-05
9.33432e-06
-0.00314607
0.00325286
1.56078e-05
1.53301e-05
-0.00330847
0.00299871
1.28347e-05
1.50281e-05
-0.00158803
0.0010952
5.07479e-06
8.12185e-06
-0.000829879
0.00065911
2.16467e-06
3.24104e-06
-0.000533878
0.000435464
-1.30087e-06
3.62212e-07
-0.000357124
0.000292129
-6.51411e-06
-4.52136e-06
-0.000238121
0.000192511
-9.81598e-06
-9.15974e-06
5.75457e-07
-4.62926e-07
-0.00166231
-0.00204421
0.00241302
4.01788e-06
1.48406e-08
-2.56342e-06
-0.00166751
-0.00166348
1.58871e-07
5.41997e-08
-0.00166174
-0.00166163
-0.00166222
7.93124e-05
-9.98121e-05
4.49582e-06
1.61296e-05
0.000132739
-0.000167929
-5.28511e-06
-2.89729e-06
0.000204319
-0.000247643
2.71401e-07
-1.65643e-06
0.000299044
-0.000361139
3.49776e-06
2.53762e-06
0.000437817
-0.000534658
5.63869e-06
4.68688e-06
0.000658893
-0.000829559
7.15192e-06
5.63154e-06
0.00109589
-0.00158935
7.49144e-06
6.76459e-06
0.00300098
-0.00330908
1.44656e-05
1.0854e-05
0.00325321
-0.00314638
1.60073e-05
1.55635e-05
0.00299923
-0.00273668
1.35152e-05
1.57097e-05
9.47741e-06
-3.66511e-06
3.90579e-06
-1.30434e-06
-1.26045e-06
-4.32069e-06
4.84215e-06
-1.25231e-06
-1.25529e-06
-5.27355e-06
5.62754e-06
-1.60118e-06
-1.39365e-06
-5.93736e-06
6.21215e-06
-2.04792e-06
-1.81801e-06
-6.44794e-06
6.65223e-06
-2.47563e-06
-2.25799e-06
-6.83746e-06
6.9402e-06
-2.91739e-06
-2.70598e-06
-7.05415e-06
7.16724e-06
-3.48301e-06
-3.15558e-06
-7.17152e-06
7.06775e-06
-4.10979e-06
-3.75335e-06
-6.88957e-06
6.64996e-06
-4.80261e-06
-4.41368e-06
-6.38454e-06
5.95418e-06
-5.58432e-06
-5.19704e-06
-5.45783e-06
4.83908e-06
-6.32836e-06
-5.96764e-06
-4.20744e-06
3.54228e-06
-6.76473e-06
-6.55472e-06
-2.83943e-06
2.09778e-06
-7.12157e-06
-6.90591e-06
-1.30776e-06
5.19666e-07
-7.37156e-06
-7.26864e-06
2.66899e-07
-1.02671e-06
-7.36745e-06
-7.398e-06
1.75182e-06
-2.48382e-06
-7.1521e-06
-7.26654e-06
3.23367e-06
-3.91517e-06
-6.91033e-06
-7.0567e-06
4.59106e-06
-5.30732e-06
-6.47802e-06
-6.67539e-06
5.82693e-06
-6.1948e-06
-5.74446e-06
-6.13857e-06
6.49923e-06
-6.74406e-06
-5.08688e-06
-5.40193e-06
6.93881e-06
-7.10014e-06
-4.51301e-06
-4.8016e-06
7.19515e-06
-7.21701e-06
-3.91166e-06
-4.20689e-06
7.18594e-06
-7.09761e-06
-3.35241e-06
-3.62795e-06
6.95599e-06
-6.75388e-06
-2.81839e-06
-3.07972e-06
6.49859e-06
-6.20189e-06
-2.33988e-06
-2.56918e-06
5.87899e-06
-5.53699e-06
-1.94319e-06
-2.12499e-06
5.16694e-06
-4.76833e-06
-1.51741e-06
-1.74867e-06
4.41411e-06
-7.7663e-07
-4.09697e-06
-1.27057e-06
-1.65647e-06
1.72868e-06
-3.27847e-06
-3.14245e-06
-1.78544e-06
1.81893e-06
-3.49929e-06
-3.39674e-06
-1.82616e-06
1.80248e-06
-3.6945e-06
-3.6046e-06
-1.75437e-06
1.66206e-06
-3.86764e-06
-3.78689e-06
-3.94457e-06
2.78537e-06
3.97654e-05
-1.95118e-05
-5.22617e-05
2.27788e-05
7.99782e-06
-9.83684e-06
-1.20715e-05
-8.07133e-07
2.75642e-06
-2.35475e-06
-9.57151e-07
-2.18863e-05
-1.85433e-05
2.24681e-05
-1.8899e-05
-1.82115e-05
-2.52682e-05
-1.48527e-05
1.10672e-05
1.41687e-05
7.76581e-06
1.68656e-06
1.28313e-05
-4.78999e-07
1.36362e-05
1.29541e-05
9.65196e-06
-1.35742e-05
1.23822e-05
2.08829e-05
-1.4791e-05
7.13879e-06
-9.7283e-06
-4.00262e-06
1.08918e-06
-2.75014e-05
1.39737e-05
-3.61861e-05
-1.63604e-05
3.88653e-05
2.35882e-05
2.10257e-05
-3.22931e-05
-2.44771e-05
2.24651e-05
8.69309e-05
-1.39851e-05
3.15677e-06
-1.00533e-06
3.70898e-05
-1.19085e-05
2.9752e-05
-2.98717e-05
-1.28841e-05
1.24022e-05
-0.00204877
0.00241668
2.54538e-06
-0.00167285
-7.76841e-06
7.47153e-06
1.82858e-05
-6.60965e-05
3.58431e-05
6.24969e-06
1.31298e-05
1.41209e-05
1.98051e-05
-2.17531e-05
-1.91061e-05
2.35782e-05
-1.73282e-05
6.34805e-05
1.14953e-05
-1.72997e-05
-1.6748e-05
1.31601e-05
1.41968e-05
5.59023e-06
3.45723e-06
1.36769e-05
1.42681e-06
1.57067e-05
1.31736e-05
7.77311e-06
-1.43184e-05
1.46618e-05
1.91167e-05
-1.4066e-05
-1.12125e-06
1.2522e-06
-2.25769e-06
-1.01182e-06
-2.08238e-06
-4.90338e-06
5.68007e-06
9.45272e-07
-4.13935e-06
8.62213e-07
1.26054e-06
-1.43589e-06
-3.31533e-06
1.05661e-06
-3.35507e-06
-0.0020486
0.00241643
2.37716e-06
-0.00167262
-8.03334e-06
-3.59718e-06
1.41219e-06
-0.00130774
-9.02748e-06
-0.00131211
2.95759e-05
-5.64551e-07
0.000117012
-1.18581e-05
-1.34761e-06
1.44501e-06
-2.47454e-06
-1.20356e-06
-2.33432e-06
0.000152673
-9.26542e-06
-4.31381e-07
1.86906e-06
-1.30361e-06
2.12846e-05
-1.52142e-05
-1.04755e-07
1.86964e-06
-1.09031e-06
-1.94107e-05
-1.059e-05
9.33735e-06
1.33275e-05
1.093e-05
-1.48772e-05
2.28648e-05
-1.3688e-06
1.47864e-06
-2.54961e-06
-2.38578e-06
-1.5542e-06
1.62075e-06
-2.81619e-06
-2.67523e-06
-1.64967e-06
1.65629e-06
-3.03117e-06
-2.92741e-06
-1.61218e-06
1.55972e-06
-3.21682e-06
-3.13292e-06
-1.45723e-06
1.32773e-06
-3.27754e-06
-3.27016e-06
-1.19094e-06
1.04015e-06
-3.32538e-06
-3.30108e-06
4.07053e-06
-3.35371e-06
8.57663e-07
-4.76877e-06
5.51583e-06
1.06668e-06
9.1428e-07
-6.37591e-06
7.37468e-06
1.48825e-06
1.25985e-06
-8.28093e-06
9.1575e-06
1.5874e-06
1.54961e-06
-9.98942e-06
1.08386e-05
1.98183e-06
1.7156e-06
-1.16956e-05
1.26296e-05
2.67354e-06
2.31888e-06
-1.36657e-05
1.4679e-05
3.56797e-06
3.06705e-06
-1.57307e-05
1.6817e-05
4.86907e-06
4.16883e-06
-1.79375e-05
1.9091e-05
6.80881e-06
5.76068e-06
-2.02595e-05
2.15013e-05
9.15866e-06
7.88809e-06
-2.32021e-05
2.52276e-05
1.17157e-05
1.05042e-05
1.25388e-05
1.83998e-05
-1.50958e-05
-3.98018e-05
2.48139e-05
-2.44601e-05
1.52564e-05
1.79999e-05
2.31344e-05
-2.15986e-05
1.00941e-05
1.23258e-05
1.99703e-05
-1.84491e-05
6.58579e-06
8.21732e-06
1.70524e-05
-1.59414e-05
4.29369e-06
5.21177e-06
1.48016e-05
-1.37445e-05
3.14459e-06
3.66846e-06
1.26846e-05
-1.1768e-05
2.49508e-06
2.59479e-06
1.08396e-05
-9.95479e-06
2.00447e-06
2.13066e-06
9.02955e-06
-8.1325e-06
1.56131e-06
1.74406e-06
7.29469e-06
-6.46611e-06
1.21941e-06
1.39068e-06
1.07994e-06
-0.00273822
0.00299912
1.94402e-05
1.2022e-05
-0.00314404
0.00325034
2.54396e-05
2.40608e-05
-0.00330388
0.00299301
2.34493e-05
2.56606e-05
-0.00158675
0.00109483
9.0186e-06
1.53238e-05
-0.000829301
0.000658872
4.56861e-06
6.50308e-06
-0.000533751
0.000436325
7.6075e-07
2.58815e-06
-0.000357168
0.000293344
-4.87872e-06
-1.65724e-06
-0.000238959
0.000194016
-7.94407e-06
-6.25112e-06
-1.13482e-06
1.54658e-07
-0.00130641
3.40488e-06
-8.79197e-06
-0.00131216
-0.00130781
1.74927e-07
-5.03613e-07
-0.00130546