/*--------------------------------*- C++ -*----------------------------------*\
| =========                 |                                                 |
| \\      /  F ield         | OpenFOAM: The Open Source CFD Toolbox           |
|  \\    /   O peration     | Version:  2212                                  |
|   \\  /    A nd           | Website:  www.openfoam.com                      |
|    \\/     M anipulation  |                                                 |
\*---------------------------------------------------------------------------*/
FoamFile
{
    version     2.0;
    format      ascii;
    arch        "LSB;label=32;scalar=64";
    class       volScalarField;
    location    "0.105";
    object      nut;
}
// * * * * * * * * * * * * * * * * * * * * * * * * * * * * * * * * * * * * * //

dimensions      [0 2 -1 0 0 0 0];

internalField   nonuniform List<scalar> 
24240
(
0
0
0
0
0
0
0
0
0
0
0
0
0
0
0
0
0
0
0
0
0
0
0
0
0
0
0
0
0
0
0
0
0
0
0
0
0
0
0
0
0
0
0
0
0
0
0
0
0
0
0
0
0
0
0
0
0
0
0
0
0
0
0
0
0
0
0
0
0
0
0
0
0
0
0
0
0
0
0
0
0
0
0
0
0
0
0
0
0
0
0
0
0
0
0
0
0
0
0
0
0
0
0
0
0
0
0
0
0
0
0
0
0
0
0
0
0
0
0
0
0
0
0
0
0
0
0
0
0
0
0
0
0
0
0
0
0
0
0
0
0
0
0
0
0
0
0
0
0
0
0
0
0
0
0
0
0
0
0
0
0
0
0
0
0
0
0
0
0
0
0
0
0
0
0
0
0
0
0
0
0
0
0
0
0
0
0
0
0
0
0
0
0
0
0
0
0
0
0
0
0
0
0
0
0
0
0
0
0
0
0
0
0
0
0
0
0
0
0
0
0
0
0
0
0
0
0
0
0
0
0
0
0
0
0
0
0
0
0
0
0
0
0
0
0
0
0
0
0
0
0
0
0
0
0
0
0
0
0
0
0
0
0
0
0
0
0
0
0
0
0
0
0
0
0
0
0
0
0
0
0
0
0
0
0
0
0
0
0
0
0
0
0
0
0
0
0
0
0
0
0
0
0
0
0
0
0
0
0
0
0
0
0
0
0
0
0
0
0
0
0
0
0
0
0
0
0
0
0
0
0
0
0
0
0
0
0
0
0
0
0
0
0
0
0
0
0
0
0
0
0
0
0
0
0
0
0
0
0
0
0
0
0
0
0
0
0
0
0
0
0
0
0
0
0
0
0
0
0
0
0
0
0
0
0
0
0
0
0
0
0
0
0
0
0
0
0
0
0
0
0
9.12695e-10
7.70435e-08
7.72555e-08
7.74729e-08
7.77272e-08
7.80102e-08
7.83118e-08
7.86226e-08
7.89336e-08
7.92366e-08
7.95245e-08
7.97914e-08
8.00328e-08
8.02455e-08
8.04273e-08
8.05764e-08
8.06608e-08
4.227e-09
0
0
0
0
5.82344e-10
5.62721e-10
5.76366e-10
5.91558e-10
6.07732e-10
6.24397e-10
6.4106e-10
6.57289e-10
6.72696e-10
6.86973e-10
6.99879e-10
7.11235e-10
7.2095e-10
7.70289e-10
0
0
0
0
0
0
0
0
0
0
0
0
0
0
0
0
0
0
0
0
0
0
0
0
0
0
0
0
0
0
0
0
0
0
0
0
0
0
0
0
0
0
0
0
0
0
0
0
0
0
0
0
0
0
0
0
0
0
0
0
0
0
0
0
0
0
0
0
0
0
0
0
0
0
0
0
0
0
0
0
0
0
0
0
0
0
6.34795e-09
6.42879e-09
6.40972e-09
6.38847e-09
6.36576e-09
6.34232e-09
6.31886e-09
6.29599e-09
6.27434e-09
6.25436e-09
6.23648e-09
6.22097e-09
6.20804e-09
6.10486e-09
0
0
0
0
0
0
0
0
0
0
0
0
0
0
0
0
0
0
0
0
0
0
0
0
0
0
1.5536e-08
1.58462e-08
1.58337e-08
1.58196e-08
1.58045e-08
1.57888e-08
1.57729e-08
1.57574e-08
1.57425e-08
1.57285e-08
1.57157e-08
1.57044e-08
1.56945e-08
1.53692e-08
0
0
0
0
0
0
9.716e-10
9.87307e-10
9.8427e-10
9.80872e-10
9.77229e-10
9.73451e-10
9.69653e-10
9.6593e-10
9.62381e-10
9.59077e-10
9.56085e-10
9.53442e-10
9.51192e-10
9.31884e-10
0
0
0
0
0
0
0
0
0
0
0
0
0
0
0
0
0
0
0
0
0
0
0
0
0
0
1.77043e-09
1.79149e-09
1.78721e-09
1.78241e-09
1.77728e-09
1.77195e-09
1.7666e-09
1.76138e-09
1.75644e-09
1.75187e-09
1.7478e-09
1.74427e-09
1.74134e-09
1.71519e-09
0
0
0
0
0
0
0
0
0
0
0
0
0
0
0
0
0
0
0
0
0
0
0
0
0
0
0
0
0
0
0
0
0
0
0
0
0
0
0
0
0
0
0
0
0
0
0
0
0
0
0
0
0
0
0
0
0
0
0
0
0
0
0
0
0
0
0
0
0
0
0
0
0
0
0
0
0
0
0
0
0
0
0
0
0
0
0
0
0
0
0
0
0
0
0
0
0
0
0
0
0
0
0
0
0
0
0
0
0
0
0
0
0
0
0
0
0
0
0
0
0
0
0
0
0
6.66804e-08
8.45707e-08
8.02244e-08
8.02067e-08
8.02294e-08
8.02531e-08
8.02769e-08
8.03001e-08
8.04082e-08
8.03424e-08
8.03595e-08
8.03739e-08
8.03852e-08
8.04325e-08
8.48132e-08
6.69318e-08
0
0
0
1.53233e-06
2.02883e-06
2.02963e-06
2.03011e-06
2.03068e-06
2.03131e-06
2.03198e-06
2.03267e-06
2.03336e-06
2.03403e-06
2.03466e-06
2.03524e-06
2.03575e-06
2.03619e-06
2.03656e-06
2.03688e-06
2.03672e-06
1.53982e-06
0
1.83249e-07
8.18376e-07
9.87691e-07
9.85007e-07
9.85211e-07
9.85448e-07
9.85713e-07
9.85996e-07
9.86288e-07
9.86582e-07
9.8687e-07
9.87144e-07
9.87399e-07
9.87631e-07
9.87837e-07
9.88013e-07
9.88156e-07
9.91119e-07
8.21543e-07
1.85146e-07
0
0
4.57019e-08
5.28879e-08
5.01255e-08
5.01345e-08
5.01445e-08
5.01552e-08
5.01661e-08
5.01769e-08
5.01874e-08
5.01972e-08
5.02062e-08
5.02143e-08
5.02211e-08
5.02269e-08
5.30063e-08
4.58198e-08
0
0
0
0
0
0
0
0
0
0
0
0
0
0
0
0
0
0
0
0
0
0
0
0
0
6.11907e-07
6.15571e-07
6.15514e-07
6.1545e-07
6.15383e-07
6.15314e-07
6.15246e-07
6.1518e-07
6.15119e-07
6.15063e-07
6.15013e-07
6.14971e-07
6.14936e-07
6.112e-07
0
0
0
0
0
0
6.37803e-07
6.43526e-07
6.43483e-07
6.43436e-07
6.43386e-07
6.43334e-07
6.43284e-07
6.43235e-07
6.43189e-07
6.43148e-07
6.43113e-07
6.43084e-07
6.43061e-07
6.3729e-07
0
0
0
0
0
0
1.97759e-07
1.99756e-07
1.99739e-07
1.9972e-07
1.99699e-07
1.99678e-07
1.99657e-07
1.99636e-07
1.99617e-07
1.99599e-07
1.99584e-07
1.9957e-07
1.9956e-07
1.97542e-07
0
0
0
0
0
0
3.74723e-07
3.79821e-07
3.79783e-07
3.7974e-07
3.79694e-07
3.79647e-07
3.79599e-07
3.79553e-07
3.79509e-07
3.79468e-07
3.79431e-07
3.79399e-07
3.79372e-07
3.74228e-07
0
0
0
0
0
0
7.32172e-08
7.42734e-08
7.42589e-08
7.42427e-08
7.42252e-08
7.4207e-08
7.41886e-08
7.41705e-08
7.41532e-08
7.41369e-08
7.41221e-08
7.41089e-08
7.40975e-08
7.30227e-08
0
0
0
0
0
0
1.00409e-07
1.02074e-07
1.02055e-07
1.02034e-07
1.02011e-07
1.01986e-07
1.01962e-07
1.01938e-07
1.01915e-07
1.01893e-07
1.01873e-07
1.01855e-07
1.01839e-07
1.0015e-07
0
0
0
0
0
0
2.59322e-08
2.63348e-08
2.63268e-08
2.63179e-08
2.63083e-08
2.62983e-08
2.62883e-08
2.62785e-08
2.62691e-08
2.62603e-08
2.62523e-08
2.62452e-08
2.62392e-08
2.58267e-08
0
0
0
0
0
0
3.32102e-09
3.36511e-09
3.36264e-09
3.35987e-09
3.3569e-09
3.35381e-09
3.35071e-09
3.34767e-09
3.34476e-09
3.34205e-09
3.3396e-09
3.33743e-09
3.33558e-09
3.28838e-09
0
0
0
0
0
0
7.21951e-08
7.30926e-08
7.30813e-08
7.30688e-08
7.30553e-08
7.30414e-08
7.30276e-08
7.3014e-08
7.30012e-08
7.29895e-08
7.29792e-08
7.29703e-08
7.29632e-08
7.20528e-08
0
0
0
0
0
0
3.46717e-09
3.50013e-09
3.49812e-09
3.49587e-09
3.49348e-09
3.491e-09
3.48855e-09
3.48615e-09
3.48391e-09
3.48186e-09
3.48006e-09
3.47852e-09
3.47729e-09
3.44198e-09
0
0
0
0
0
0
2.51359e-07
2.53466e-07
2.53446e-07
2.53424e-07
2.53401e-07
2.53377e-07
2.53355e-07
2.53333e-07
2.53314e-07
2.53297e-07
2.53284e-07
2.53273e-07
2.53267e-07
2.51141e-07
0
0
0
0
0
0
7.24822e-08
7.29356e-08
7.29258e-08
7.29149e-08
7.29036e-08
7.28921e-08
7.2881e-08
7.28706e-08
7.28614e-08
7.28534e-08
7.2847e-08
7.28421e-08
7.28388e-08
7.23758e-08
0
0
0
0
0
0
1.39299e-06
1.4003e-06
1.40025e-06
1.4002e-06
1.40014e-06
1.40008e-06
1.40003e-06
1.39998e-06
1.39994e-06
1.39991e-06
1.39988e-06
1.39986e-06
1.39986e-06
1.3925e-06
0
0
0
0
0
0
1.50767e-06
1.51341e-06
1.51298e-06
1.51294e-06
1.51289e-06
1.51284e-06
1.5128e-06
1.51306e-06
1.51274e-06
1.51272e-06
1.5127e-06
1.5127e-06
1.51308e-06
1.50731e-06
0
0
0
0
0
0
3.7582e-09
3.57637e-09
3.41019e-09
3.41985e-09
3.43021e-09
3.44096e-09
3.45179e-09
3.65257e-09
3.47242e-09
3.4818e-09
3.49031e-09
3.49777e-09
3.68419e-09
3.88555e-09
0
0
0
0
0
1.7613e-07
2.02938e-07
1.92301e-07
1.92201e-07
1.92212e-07
1.92224e-07
1.92235e-07
1.92245e-07
1.92393e-07
1.92262e-07
1.92267e-07
1.92269e-07
1.9227e-07
1.9238e-07
2.03024e-07
1.76219e-07
0
0
1.54001e-06
3.86035e-06
4.58732e-06
4.5823e-06
4.58271e-06
4.58321e-06
4.58376e-06
4.58435e-06
4.58496e-06
4.58557e-06
4.58617e-06
4.58674e-06
4.58726e-06
4.58773e-06
4.58814e-06
4.58849e-06
4.5888e-06
4.5944e-06
3.86702e-06
1.54494e-06
0
1.82093e-08
6.56187e-08
6.66708e-08
6.67497e-08
6.68427e-08
6.69473e-08
6.70599e-08
6.71772e-08
6.7296e-08
6.74133e-08
6.75267e-08
6.76337e-08
6.77325e-08
6.78215e-08
6.78993e-08
6.79643e-08
6.70261e-08
1.93954e-08
0
0
0
0
0
0
0
0
0
0
0
0
0
0
0
0
0
0
0
0
0
0
0
0
0
0
0
0
0
0
0
0
0
0
0
0
0
0
0
0
0
0
0
0
8.22248e-07
8.28198e-07
8.28132e-07
8.28058e-07
8.27979e-07
8.27898e-07
8.27816e-07
8.27735e-07
8.27659e-07
8.27587e-07
8.27523e-07
8.27465e-07
8.27417e-07
8.21378e-07
0
0
0
0
0
0
9.80829e-07
9.90096e-07
9.90034e-07
9.89963e-07
9.89888e-07
9.89809e-07
9.8973e-07
9.89652e-07
9.89578e-07
9.89509e-07
9.89447e-07
9.89392e-07
9.89347e-07
9.79999e-07
0
0
0
0
0
0
4.11237e-07
4.15449e-07
4.15417e-07
4.15381e-07
4.15342e-07
4.15302e-07
4.15261e-07
4.15221e-07
4.15182e-07
4.15146e-07
4.15112e-07
4.15083e-07
4.15058e-07
4.10805e-07
0
0
0
0
0
0
5.67539e-07
5.74768e-07
5.74724e-07
5.74674e-07
5.74621e-07
5.74564e-07
5.74507e-07
5.74451e-07
5.74396e-07
5.74345e-07
5.74298e-07
5.74256e-07
5.7422e-07
5.66933e-07
0
0
0
0
0
0
1.28464e-07
1.30143e-07
1.30126e-07
1.30107e-07
1.30087e-07
1.30065e-07
1.30043e-07
1.30021e-07
1.3e-07
1.2998e-07
1.29961e-07
1.29944e-07
1.29929e-07
1.28227e-07
0
0
0
0
0
0
1.35727e-07
1.37613e-07
1.37595e-07
1.37574e-07
1.37551e-07
1.37527e-07
1.37503e-07
1.37478e-07
1.37455e-07
1.37432e-07
1.37411e-07
1.37392e-07
1.37375e-07
1.35463e-07
0
0
0
0
0
0
4.62477e-08
4.68652e-08
4.68557e-08
4.6845e-08
4.68335e-08
4.68214e-08
4.68092e-08
4.67971e-08
4.67854e-08
4.67743e-08
4.67642e-08
4.67551e-08
4.67471e-08
4.61169e-08
0
0
0
0
0
0
1.36034e-08
1.37694e-08
1.3765e-08
1.376e-08
1.37546e-08
1.37489e-08
1.37432e-08
1.37375e-08
1.3732e-08
1.37268e-08
1.3722e-08
1.37177e-08
1.3714e-08
1.35419e-08
0
0
0
0
0
0
1.47914e-07
1.49643e-07
1.49628e-07
1.4961e-07
1.49592e-07
1.49573e-07
1.49554e-07
1.49535e-07
1.49517e-07
1.49499e-07
1.49484e-07
1.49471e-07
1.4946e-07
1.47712e-07
0
0
0
0
0
0
3.82223e-08
3.85878e-08
3.8582e-08
3.85754e-08
3.85683e-08
3.8561e-08
3.85536e-08
3.85464e-08
3.85396e-08
3.85333e-08
3.85277e-08
3.85228e-08
3.85189e-08
3.81464e-08
0
0
0
0
0
0
5.34472e-07
5.39177e-07
5.3915e-07
5.39119e-07
5.39086e-07
5.39053e-07
5.3902e-07
5.38988e-07
5.38958e-07
5.38932e-07
5.38909e-07
5.38891e-07
5.38877e-07
5.34142e-07
0
0
0
0
0
0
2.55171e-07
2.56919e-07
2.56901e-07
2.56882e-07
2.56862e-07
2.56842e-07
2.56822e-07
2.56803e-07
2.56786e-07
2.56771e-07
2.56758e-07
2.56749e-07
2.56741e-07
2.54976e-07
0
0
0
0
0
0
1.80936e-06
1.82048e-06
1.82042e-06
1.82035e-06
1.82029e-06
1.82022e-06
1.82015e-06
1.82009e-06
1.82003e-06
1.81998e-06
1.81994e-06
1.8199e-06
1.81988e-06
1.8087e-06
0
0
0
0
0
0
1.79882e-06
1.80784e-06
1.80816e-06
1.80811e-06
1.80806e-06
1.808e-06
1.80795e-06
1.8076e-06
1.80782e-06
1.80778e-06
1.80775e-06
1.80772e-06
1.80733e-06
1.79826e-06
0
0
0
0
0
0
0
0
0
0
0
0
0
0
0
0
0
0
0
0
0
0
0
0
0
3.11103e-08
4.24046e-08
3.99327e-08
3.98951e-08
3.99114e-08
3.9929e-08
3.99474e-08
3.99663e-08
4.0008e-08
4.00033e-08
4.00207e-08
4.0037e-08
4.00519e-08
4.01173e-08
4.26248e-08
3.13326e-08
0
0
8.18083e-09
1.10154e-06
1.50051e-06
1.50618e-06
1.50642e-06
1.50671e-06
1.50704e-06
1.5074e-06
1.50778e-06
1.50816e-06
1.50854e-06
1.50891e-06
1.50926e-06
1.50959e-06
1.50989e-06
1.51016e-06
1.5104e-06
1.50513e-06
1.10581e-06
1.07521e-08
3.20824e-09
2.60281e-07
3.44708e-07
3.43852e-07
3.43929e-07
3.44019e-07
3.4412e-07
3.44229e-07
3.44344e-07
3.44461e-07
3.44577e-07
3.4469e-07
3.44797e-07
3.44898e-07
3.4499e-07
3.45071e-07
3.45138e-07
3.46111e-07
2.61513e-07
3.45811e-09
0
0
2.08419e-08
2.48858e-08
2.34793e-08
2.34846e-08
2.34905e-08
2.34969e-08
2.35037e-08
2.35105e-08
2.35174e-08
2.3524e-08
2.35303e-08
2.35363e-08
2.35416e-08
2.35464e-08
2.49656e-08
2.09234e-08
0
0
0
0
0
0
0
0
0
0
0
0
0
0
0
0
0
0
0
0
0
0
0
0
0
1.6784e-06
1.69285e-06
1.6928e-06
1.69273e-06
1.69267e-06
1.6926e-06
1.69252e-06
1.69245e-06
1.69238e-06
1.69232e-06
1.69226e-06
1.69221e-06
1.69216e-06
1.67763e-06
0
0
0
0
0
0
1.62283e-06
1.63878e-06
1.63871e-06
1.63864e-06
1.63856e-06
1.63847e-06
1.63839e-06
1.6383e-06
1.63822e-06
1.63814e-06
1.63807e-06
1.63801e-06
1.63796e-06
1.62193e-06
0
0
0
0
0
0
6.86286e-07
6.93321e-07
6.93286e-07
6.93246e-07
6.93203e-07
6.93158e-07
6.93112e-07
6.93065e-07
6.9302e-07
6.92978e-07
6.92939e-07
6.92905e-07
6.92877e-07
6.85798e-07
0
0
0
0
0
0
7.44863e-07
7.53657e-07
7.53618e-07
7.53573e-07
7.53525e-07
7.53473e-07
7.5342e-07
7.53367e-07
7.53315e-07
7.53265e-07
7.53219e-07
7.53178e-07
7.53144e-07
7.44297e-07
0
0
0
0
0
0
1.92582e-07
1.94891e-07
1.94875e-07
1.94857e-07
1.94837e-07
1.94816e-07
1.94794e-07
1.94772e-07
1.9475e-07
1.94729e-07
1.94709e-07
1.94691e-07
1.94674e-07
1.92339e-07
0
0
0
0
0
0
1.88352e-07
1.90682e-07
1.90665e-07
1.90646e-07
1.90625e-07
1.90602e-07
1.90578e-07
1.90555e-07
1.90531e-07
1.90509e-07
1.90487e-07
1.90466e-07
1.90447e-07
1.88089e-07
0
0
0
0
0
0
8.29823e-08
8.39822e-08
8.39718e-08
8.39599e-08
8.3947e-08
8.39332e-08
8.39191e-08
8.39049e-08
8.3891e-08
8.38777e-08
8.38651e-08
8.38534e-08
8.38427e-08
8.28266e-08
0
0
0
0
0
0
3.96627e-08
4.0112e-08
4.01055e-08
4.00979e-08
4.00897e-08
4.00809e-08
4.0072e-08
4.00629e-08
4.0054e-08
4.00454e-08
4.00373e-08
4.00297e-08
4.00228e-08
3.95632e-08
0
0
0
0
0
0
2.64728e-07
2.67634e-07
2.67618e-07
2.676e-07
2.6758e-07
2.67559e-07
2.67538e-07
2.67516e-07
2.67495e-07
2.67474e-07
2.67455e-07
2.67438e-07
2.67422e-07
2.64493e-07
0
0
0
0
0
0
1.40906e-07
1.4223e-07
1.42222e-07
1.42212e-07
1.42201e-07
1.4219e-07
1.42178e-07
1.42167e-07
1.42156e-07
1.42145e-07
1.42135e-07
1.42126e-07
1.42118e-07
1.40781e-07
0
0
0
0
0
0
9.78325e-07
9.87023e-07
9.86998e-07
9.8697e-07
9.8694e-07
9.86908e-07
9.86876e-07
9.86844e-07
9.86813e-07
9.86784e-07
9.86758e-07
9.86734e-07
9.86714e-07
9.77983e-07
0
0
0
0
0
0
7.97479e-07
8.03268e-07
8.0325e-07
8.03228e-07
8.03206e-07
8.03182e-07
8.03159e-07
8.03136e-07
8.03115e-07
8.03096e-07
8.03078e-07
8.03063e-07
8.0305e-07
7.97236e-07
0
0
0
0
0
0
3.22439e-06
3.24704e-06
3.24699e-06
3.24693e-06
3.24688e-06
3.24682e-06
3.24677e-06
3.24672e-06
3.24666e-06
3.24662e-06
3.24657e-06
3.24653e-06
3.2465e-06
3.22379e-06
0
0
0
0
0
0
3.78029e-06
3.80288e-06
3.80373e-06
3.80367e-06
3.80361e-06
3.80355e-06
3.8035e-06
3.80275e-06
3.80338e-06
3.80334e-06
3.8033e-06
3.80326e-06
3.80233e-06
3.77968e-06
0
0
0
0
0
0
2.04616e-08
1.96087e-08
1.84346e-08
1.84401e-08
1.8446e-08
1.84524e-08
1.84589e-08
1.94959e-08
1.84712e-08
1.84774e-08
1.84835e-08
1.84891e-08
1.96784e-08
2.05428e-08
0
0
0
0
0
1.21787e-07
1.40136e-07
1.32453e-07
1.32437e-07
1.32447e-07
1.32458e-07
1.3247e-07
1.32483e-07
1.32531e-07
1.32507e-07
1.32519e-07
1.3253e-07
1.32541e-07
1.32576e-07
1.40283e-07
1.21936e-07
0
0
7.23059e-07
2.24399e-06
2.74204e-06
2.7398e-06
2.74002e-06
2.74028e-06
2.74058e-06
2.74091e-06
2.74126e-06
2.74162e-06
2.74198e-06
2.74234e-06
2.7427e-06
2.74304e-06
2.74337e-06
2.74368e-06
2.74396e-06
2.74663e-06
2.24828e-06
7.25797e-07
0
5.25195e-08
9.67992e-08
9.72143e-08
9.72596e-08
9.73125e-08
9.73729e-08
9.74387e-08
9.75085e-08
9.75804e-08
9.7653e-08
9.77248e-08
9.77945e-08
9.78611e-08
9.79232e-08
9.79799e-08
9.80288e-08
9.76915e-08
5.32748e-08
0
0
0
0
1.77788e-09
1.66369e-09
1.66798e-09
1.67287e-09
1.67822e-09
1.68388e-09
1.68972e-09
1.69562e-09
1.70145e-09
1.70712e-09
1.71254e-09
1.7176e-09
1.72223e-09
1.84877e-09
0
0
0
0
0
0
0
0
0
0
0
0
0
0
0
0
0
0
0
0
0
0
0
0
0
0
1.61909e-06
1.63335e-06
1.63332e-06
1.63327e-06
1.63322e-06
1.63317e-06
1.63312e-06
1.63307e-06
1.63301e-06
1.63296e-06
1.63292e-06
1.63288e-06
1.63285e-06
1.61853e-06
0
0
0
0
0
0
1.66315e-06
1.67984e-06
1.67978e-06
1.67972e-06
1.67965e-06
1.67958e-06
1.67951e-06
1.67943e-06
1.67936e-06
1.67929e-06
1.67923e-06
1.67917e-06
1.67913e-06
1.66238e-06
0
0
0
0
0
0
7.53715e-07
7.61535e-07
7.61507e-07
7.61475e-07
7.6144e-07
7.61403e-07
7.61364e-07
7.61325e-07
7.61286e-07
7.6125e-07
7.61216e-07
7.61188e-07
7.61167e-07
7.53315e-07
0
0
0
0
0
0
7.96516e-07
8.05654e-07
8.05623e-07
8.05588e-07
8.0555e-07
8.05508e-07
8.05465e-07
8.0542e-07
8.05376e-07
8.05333e-07
8.05293e-07
8.05258e-07
8.05229e-07
7.96049e-07
0
0
0
0
0
0
2.27897e-07
2.30532e-07
2.30519e-07
2.30504e-07
2.30488e-07
2.3047e-07
2.30451e-07
2.30432e-07
2.30412e-07
2.30393e-07
2.30374e-07
2.30356e-07
2.30339e-07
2.2768e-07
0
0
0
0
0
0
2.24671e-07
2.27267e-07
2.27252e-07
2.27236e-07
2.27217e-07
2.27198e-07
2.27176e-07
2.27155e-07
2.27133e-07
2.2711e-07
2.27088e-07
2.27066e-07
2.27044e-07
2.24417e-07
0
0
0
0
0
0
1.19664e-07
1.21023e-07
1.21012e-07
1.21e-07
1.20986e-07
1.20972e-07
1.20956e-07
1.2094e-07
1.20924e-07
1.20908e-07
1.20892e-07
1.20876e-07
1.20861e-07
1.1948e-07
0
0
0
0
0
0
7.29628e-08
7.37536e-08
7.37456e-08
7.37364e-08
7.37261e-08
7.3715e-08
7.37033e-08
7.36912e-08
7.3679e-08
7.36668e-08
7.36546e-08
7.36427e-08
7.36311e-08
7.28244e-08
0
0
0
0
0
0
3.67078e-07
3.70986e-07
3.70969e-07
3.7095e-07
3.70929e-07
3.70906e-07
3.70881e-07
3.70856e-07
3.7083e-07
3.70804e-07
3.70778e-07
3.70753e-07
3.70728e-07
3.66788e-07
0
0
0
0
0
0
2.5573e-07
2.58142e-07
2.58131e-07
2.58118e-07
2.58104e-07
2.58088e-07
2.58072e-07
2.58055e-07
2.58037e-07
2.5802e-07
2.58002e-07
2.57985e-07
2.57969e-07
2.55536e-07
0
0
0
0
0
0
1.23335e-06
1.24458e-06
1.24455e-06
1.24452e-06
1.24448e-06
1.24444e-06
1.2444e-06
1.24435e-06
1.24431e-06
1.24427e-06
1.24422e-06
1.24418e-06
1.24414e-06
1.23285e-06
0
0
0
0
0
0
1.112e-06
1.12059e-06
1.12057e-06
1.12054e-06
1.12051e-06
1.12048e-06
1.12044e-06
1.12041e-06
1.12037e-06
1.12034e-06
1.1203e-06
1.12027e-06
1.12023e-06
1.11159e-06
0
0
0
0
0
0
3.49112e-06
3.51711e-06
3.51707e-06
3.51703e-06
3.51697e-06
3.51692e-06
3.51686e-06
3.5168e-06
3.51674e-06
3.51668e-06
3.51662e-06
3.51656e-06
3.5165e-06
3.49041e-06
0
0
0
0
0
0
3.80841e-06
3.83341e-06
3.83377e-06
3.83373e-06
3.83369e-06
3.83365e-06
3.8336e-06
3.83325e-06
3.8335e-06
3.83345e-06
3.8334e-06
3.83335e-06
3.8329e-06
3.80782e-06
0
0
0
0
0
0
0
0
0
0
0
0
0
0
0
0
0
0
0
0
0
0
0
0
0
4.97201e-08
6.13406e-08
5.78703e-08
5.78565e-08
5.78667e-08
5.78782e-08
5.78906e-08
5.79037e-08
5.79324e-08
5.79318e-08
5.79463e-08
5.7961e-08
5.79758e-08
5.80128e-08
6.15132e-08
4.98968e-08
0
0
1.3379e-07
1.06633e-06
1.40705e-06
1.41019e-06
1.41034e-06
1.41052e-06
1.41073e-06
1.41097e-06
1.41122e-06
1.41149e-06
1.41177e-06
1.41205e-06
1.41235e-06
1.41264e-06
1.41294e-06
1.41323e-06
1.4135e-06
1.41072e-06
1.06976e-06
1.35886e-07
0
8.98651e-08
1.39355e-07
1.39282e-07
1.39318e-07
1.3936e-07
1.39407e-07
1.3946e-07
1.39516e-07
1.39575e-07
1.39636e-07
1.39696e-07
1.39756e-07
1.39815e-07
1.39871e-07
1.39923e-07
1.39969e-07
1.4011e-07
9.05111e-08
0
0
0
6.91374e-09
1.04817e-08
9.67638e-09
9.67986e-09
9.68387e-09
9.6883e-09
9.69303e-09
9.698e-09
9.70308e-09
9.70822e-09
9.7133e-09
9.71828e-09
9.72304e-09
9.72751e-09
1.05446e-08
6.97721e-09
0
0
0
0
0
0
0
0
0
0
0
0
0
0
0
0
0
0
0
0
0
0
0
0
0
1.76738e-06
1.78336e-06
1.78333e-06
1.7833e-06
1.78326e-06
1.78323e-06
1.78319e-06
1.78314e-06
1.7831e-06
1.78306e-06
1.78303e-06
1.783e-06
1.78298e-06
1.76697e-06
0
0
0
0
0
0
1.77002e-06
1.78821e-06
1.78816e-06
1.78812e-06
1.78806e-06
1.78801e-06
1.78795e-06
1.7879e-06
1.78784e-06
1.78778e-06
1.78774e-06
1.7877e-06
1.78767e-06
1.76945e-06
0
0
0
0
0
0
8.25743e-07
8.34456e-07
8.34437e-07
8.34415e-07
8.3439e-07
8.34363e-07
8.34334e-07
8.34305e-07
8.34276e-07
8.34248e-07
8.34223e-07
8.34204e-07
8.34191e-07
8.25462e-07
0
0
0
0
0
0
8.5265e-07
8.62314e-07
8.62292e-07
8.62265e-07
8.62236e-07
8.62203e-07
8.62169e-07
8.62132e-07
8.62097e-07
8.62061e-07
8.62028e-07
8.61999e-07
8.61977e-07
8.52282e-07
0
0
0
0
0
0
2.69225e-07
2.72287e-07
2.72277e-07
2.72266e-07
2.72252e-07
2.72238e-07
2.72223e-07
2.72206e-07
2.72189e-07
2.72172e-07
2.72154e-07
2.72137e-07
2.72119e-07
2.69035e-07
0
0
0
0
0
0
2.69465e-07
2.72469e-07
2.72457e-07
2.72443e-07
2.72427e-07
2.72409e-07
2.7239e-07
2.7237e-07
2.72348e-07
2.72326e-07
2.72302e-07
2.72277e-07
2.7225e-07
2.69212e-07
0
0
0
0
0
0
1.66729e-07
1.68567e-07
1.68555e-07
1.68542e-07
1.68527e-07
1.68511e-07
1.68493e-07
1.68475e-07
1.68455e-07
1.68435e-07
1.68413e-07
1.68391e-07
1.68367e-07
1.66498e-07
0
0
0
0
0
0
1.18828e-07
1.20091e-07
1.20083e-07
1.20073e-07
1.20061e-07
1.20048e-07
1.20034e-07
1.20019e-07
1.20004e-07
1.19987e-07
1.1997e-07
1.19953e-07
1.19934e-07
1.18648e-07
0
0
0
0
0
0
4.79222e-07
4.84277e-07
4.84262e-07
4.84244e-07
4.84223e-07
4.842e-07
4.84175e-07
4.84147e-07
4.84118e-07
4.84087e-07
4.84055e-07
4.84021e-07
4.83985e-07
4.78886e-07
0
0
0
0
0
0
3.90018e-07
3.93759e-07
3.93748e-07
3.93735e-07
3.93719e-07
3.93702e-07
3.93683e-07
3.93663e-07
3.93641e-07
3.93617e-07
3.93593e-07
3.93567e-07
3.9354e-07
3.89768e-07
0
0
0
0
0
0
1.48113e-06
1.49506e-06
1.49504e-06
1.49501e-06
1.49498e-06
1.49494e-06
1.49491e-06
1.49486e-06
1.49482e-06
1.49477e-06
1.49471e-06
1.49466e-06
1.4946e-06
1.48059e-06
0
0
0
0
0
0
1.44736e-06
1.45934e-06
1.45932e-06
1.45929e-06
1.45927e-06
1.45923e-06
1.4592e-06
1.45916e-06
1.45912e-06
1.45907e-06
1.45902e-06
1.45897e-06
1.45891e-06
1.44686e-06
0
0
0
0
0
0
3.88354e-06
3.91517e-06
3.91514e-06
3.91511e-06
3.91508e-06
3.91504e-06
3.915e-06
3.91495e-06
3.91489e-06
3.91483e-06
3.91477e-06
3.9147e-06
3.91461e-06
3.88289e-06
0
0
0
0
0
0
4.33208e-06
4.36406e-06
4.36388e-06
4.36386e-06
4.36383e-06
4.3638e-06
4.36377e-06
4.36386e-06
4.36369e-06
4.36364e-06
4.36359e-06
4.36352e-06
4.36362e-06
4.33155e-06
0
0
0
0
0
0
5.49954e-10
5.34091e-10
4.988e-10
5.0247e-10
5.06629e-10
5.11232e-10
5.16211e-10
5.51814e-10
5.27142e-10
5.33065e-10
5.39246e-10
5.45589e-10
5.94711e-10
6.2241e-10
0
0
0
0
0
7.28495e-08
8.57032e-08
8.08268e-08
8.08143e-08
8.08225e-08
8.08318e-08
8.08421e-08
8.08534e-08
8.08802e-08
8.08787e-08
8.08925e-08
8.0907e-08
8.0922e-08
8.09565e-08
8.58616e-08
7.30122e-08
0
0
2.85946e-07
1.26425e-06
1.61223e-06
1.61287e-06
1.61299e-06
1.61314e-06
1.61331e-06
1.61351e-06
1.61374e-06
1.61398e-06
1.61423e-06
1.61451e-06
1.6148e-06
1.6151e-06
1.6154e-06
1.61571e-06
1.616e-06
1.61573e-06
1.26753e-06
2.87997e-07
0
6.61651e-08
1.09833e-07
1.09926e-07
1.09951e-07
1.0998e-07
1.10013e-07
1.1005e-07
1.1009e-07
1.10133e-07
1.10178e-07
1.10223e-07
1.1027e-07
1.10316e-07
1.1036e-07
1.10403e-07
1.10439e-07
1.10397e-07
6.66385e-08
0
0
0
3.66616e-09
7.28838e-09
6.61008e-09
6.61276e-09
6.61588e-09
6.61936e-09
6.62314e-09
6.62716e-09
6.63136e-09
6.63568e-09
6.64007e-09
6.64446e-09
6.64874e-09
6.65282e-09
7.342e-09
3.71939e-09
0
0
0
0
0
0
0
0
0
0
0
0
0
0
0
0
0
0
0
0
0
0
0
0
0
1.75752e-06
1.77417e-06
1.77416e-06
1.77414e-06
1.77412e-06
1.7741e-06
1.77408e-06
1.77406e-06
1.77404e-06
1.77402e-06
1.774e-06
1.77399e-06
1.77398e-06
1.75733e-06
0
0
0
0
0
0
1.78006e-06
1.79902e-06
1.799e-06
1.79898e-06
1.79895e-06
1.79892e-06
1.79888e-06
1.79885e-06
1.79881e-06
1.79878e-06
1.79876e-06
1.79874e-06
1.79873e-06
1.77976e-06
0
0
0
0
0
0
8.68404e-07
8.77759e-07
8.77752e-07
8.77741e-07
8.77728e-07
8.77713e-07
8.77697e-07
8.77679e-07
8.77663e-07
8.77646e-07
8.77633e-07
8.77623e-07
8.77617e-07
8.68259e-07
0
0
0
0
0
0
8.9362e-07
9.03779e-07
9.03766e-07
9.03749e-07
9.03729e-07
9.03706e-07
9.03682e-07
9.03656e-07
9.0363e-07
9.03603e-07
9.0358e-07
9.03558e-07
9.03541e-07
8.93361e-07
0
0
0
0
0
0
3.10248e-07
3.13778e-07
3.13769e-07
3.1376e-07
3.13748e-07
3.13736e-07
3.13722e-07
3.13708e-07
3.13692e-07
3.13676e-07
3.13659e-07
3.13641e-07
3.13623e-07
3.10072e-07
0
0
0
0
0
0
3.16003e-07
3.19475e-07
3.19461e-07
3.19447e-07
3.1943e-07
3.19412e-07
3.19392e-07
3.19371e-07
3.19348e-07
3.19324e-07
3.19297e-07
3.19269e-07
3.19237e-07
3.15728e-07
0
0
0
0
0
0
2.19951e-07
2.22352e-07
2.22339e-07
2.22324e-07
2.22306e-07
2.22287e-07
2.22265e-07
2.22242e-07
2.22217e-07
2.2219e-07
2.2216e-07
2.22129e-07
2.22094e-07
2.19651e-07
0
0
0
0
0
0
1.73461e-07
1.75302e-07
1.75292e-07
1.7528e-07
1.75267e-07
1.75252e-07
1.75235e-07
1.75217e-07
1.75197e-07
1.75175e-07
1.75152e-07
1.75127e-07
1.75101e-07
1.73227e-07
0
0
0
0
0
0
5.86923e-07
5.93157e-07
5.93141e-07
5.93123e-07
5.93101e-07
5.93076e-07
5.93048e-07
5.93018e-07
5.92984e-07
5.92948e-07
5.92908e-07
5.92864e-07
5.92817e-07
5.86527e-07
0
0
0
0
0
0
5.20306e-07
5.25435e-07
5.25424e-07
5.2541e-07
5.25393e-07
5.25374e-07
5.25353e-07
5.25329e-07
5.25302e-07
5.25273e-07
5.25241e-07
5.25206e-07
5.2517e-07
5.19997e-07
0
0
0
0
0
0
1.65194e-06
1.66805e-06
1.66803e-06
1.668e-06
1.66797e-06
1.66793e-06
1.66788e-06
1.66784e-06
1.66778e-06
1.66773e-06
1.66766e-06
1.66759e-06
1.66752e-06
1.65132e-06
0
0
0
0
0
0
1.66685e-06
1.68179e-06
1.68177e-06
1.68175e-06
1.68172e-06
1.68169e-06
1.68166e-06
1.68162e-06
1.68157e-06
1.68152e-06
1.68147e-06
1.6814e-06
1.68134e-06
1.66631e-06
0
0
0
0
0
0
3.92601e-06
3.9608e-06
3.96077e-06
3.96074e-06
3.9607e-06
3.96066e-06
3.96061e-06
3.96055e-06
3.96048e-06
3.96041e-06
3.96032e-06
3.96023e-06
3.96013e-06
3.92521e-06
0
0
0
0
0
0
4.29144e-06
4.32695e-06
4.327e-06
4.32698e-06
4.32695e-06
4.32691e-06
4.32688e-06
4.32678e-06
4.32678e-06
4.32672e-06
4.32664e-06
4.32656e-06
4.32641e-06
4.29079e-06
0
0
0
0
0
0
0
0
0
0
0
0
0
0
0
0
0
0
0
0
0
0
0
0
0
5.87919e-08
7.00221e-08
6.60033e-08
6.5996e-08
6.60033e-08
6.60117e-08
6.60212e-08
6.60318e-08
6.60532e-08
6.60564e-08
6.60702e-08
6.60851e-08
6.61006e-08
6.61296e-08
7.01772e-08
5.89514e-08
0
0
2.07509e-07
1.03514e-06
1.34426e-06
1.34589e-06
1.34598e-06
1.3461e-06
1.34625e-06
1.34641e-06
1.3466e-06
1.34681e-06
1.34703e-06
1.34728e-06
1.34754e-06
1.34782e-06
1.34812e-06
1.34841e-06
1.34869e-06
1.3474e-06
1.03807e-06
2.093e-07
0
5.66422e-08
9.64021e-08
9.64336e-08
9.64493e-08
9.64674e-08
9.64888e-08
9.65127e-08
9.65393e-08
9.6568e-08
9.65987e-08
9.66307e-08
9.66641e-08
9.66975e-08
9.67302e-08
9.67602e-08
9.67847e-08
9.67838e-08
5.69523e-08
0
0
0
3.31482e-09
7.16772e-09
6.41177e-09
6.41355e-09
6.41569e-09
6.41808e-09
6.42075e-09
6.42364e-09
6.42676e-09
6.43002e-09
6.43345e-09
6.43689e-09
6.44029e-09
6.44345e-09
7.20773e-09
3.3535e-09
0
0
0
0
0
0
0
0
0
0
0
0
0
0
0
0
0
0
0
0
0
0
0
0
0
1.77146e-06
1.78881e-06
1.78881e-06
1.78882e-06
1.78882e-06
1.78883e-06
1.78883e-06
1.78883e-06
1.78883e-06
1.78883e-06
1.78883e-06
1.78883e-06
1.78883e-06
1.77149e-06
0
0
0
0
0
0
1.79006e-06
1.80971e-06
1.80971e-06
1.80971e-06
1.80971e-06
1.80971e-06
1.80971e-06
1.8097e-06
1.8097e-06
1.80969e-06
1.80969e-06
1.80969e-06
1.80968e-06
1.79004e-06
0
0
0
0
0
0
9.10677e-07
9.20725e-07
9.20732e-07
9.20736e-07
9.20739e-07
9.2074e-07
9.20741e-07
9.2074e-07
9.20741e-07
9.2074e-07
9.20742e-07
9.20742e-07
9.20741e-07
9.10696e-07
0
0
0
0
0
0
9.37881e-07
9.48687e-07
9.48686e-07
9.4868e-07
9.48674e-07
9.48663e-07
9.48653e-07
9.48639e-07
9.48627e-07
9.48613e-07
9.48601e-07
9.48587e-07
9.48575e-07
9.37754e-07
0
0
0
0
0
0
3.56703e-07
3.60806e-07
3.60796e-07
3.60784e-07
3.60771e-07
3.60757e-07
3.60742e-07
3.60726e-07
3.60709e-07
3.60691e-07
3.60671e-07
3.60652e-07
3.60633e-07
3.56506e-07
0
0
0
0
0
0
3.67892e-07
3.71933e-07
3.71913e-07
3.71893e-07
3.71869e-07
3.71846e-07
3.7182e-07
3.71795e-07
3.71767e-07
3.71738e-07
3.71706e-07
3.71674e-07
3.7164e-07
3.67557e-07
0
0
0
0
0
0
2.81001e-07
2.84084e-07
2.84068e-07
2.8405e-07
2.84029e-07
2.84007e-07
2.83982e-07
2.83956e-07
2.83926e-07
2.83894e-07
2.83859e-07
2.83821e-07
2.83781e-07
2.8065e-07
0
0
0
0
0
0
2.37272e-07
2.39821e-07
2.39809e-07
2.39796e-07
2.39781e-07
2.39764e-07
2.39745e-07
2.39725e-07
2.39702e-07
2.39678e-07
2.39651e-07
2.39622e-07
2.39591e-07
2.37003e-07
0
0
0
0
0
0
6.94179e-07
7.01689e-07
7.01673e-07
7.01653e-07
7.01631e-07
7.01607e-07
7.01579e-07
7.01549e-07
7.01516e-07
7.01479e-07
7.01438e-07
7.01393e-07
7.01344e-07
6.93774e-07
0
0
0
0
0
0
6.49787e-07
6.56422e-07
6.56411e-07
6.56397e-07
6.56382e-07
6.56363e-07
6.56343e-07
6.5632e-07
6.56295e-07
6.56266e-07
6.56234e-07
6.56198e-07
6.56159e-07
6.49477e-07
0
0
0
0
0
0
1.79131e-06
1.80962e-06
1.8096e-06
1.80958e-06
1.80955e-06
1.80952e-06
1.80949e-06
1.80945e-06
1.8094e-06
1.80935e-06
1.8093e-06
1.80923e-06
1.80916e-06
1.79077e-06
0
0
0
0
0
0
1.84127e-06
1.85909e-06
1.85908e-06
1.85906e-06
1.85904e-06
1.85901e-06
1.85899e-06
1.85896e-06
1.85893e-06
1.85889e-06
1.85885e-06
1.8588e-06
1.85875e-06
1.84086e-06
0
0
0
0
0
0
3.93822e-06
3.97569e-06
3.97568e-06
3.97565e-06
3.97563e-06
3.97559e-06
3.97556e-06
3.97551e-06
3.97546e-06
3.9754e-06
3.97533e-06
3.97524e-06
3.97515e-06
3.93756e-06
0
0
0
0
0
0
4.28913e-06
4.32784e-06
4.32785e-06
4.32784e-06
4.32783e-06
4.32781e-06
4.32778e-06
4.32774e-06
4.32771e-06
4.32767e-06
4.32761e-06
4.32754e-06
4.32745e-06
4.28864e-06
0
0
0
0
0
0
0
0
0
0
0
0
0
0
0
0
0
0
0
0
0
0
0
0
0
5.63755e-08
6.69333e-08
6.30598e-08
6.30548e-08
6.3061e-08
6.30682e-08
6.30765e-08
6.30859e-08
6.31038e-08
6.31082e-08
6.31211e-08
6.31349e-08
6.31494e-08
6.3174e-08
6.70735e-08
5.65191e-08
0
0
1.95032e-07
9.48459e-07
1.23402e-06
1.23523e-06
1.23531e-06
1.23541e-06
1.23553e-06
1.23566e-06
1.23582e-06
1.236e-06
1.2362e-06
1.23642e-06
1.23666e-06
1.23691e-06
1.23717e-06
1.23743e-06
1.23767e-06
1.23674e-06
9.50988e-07
1.96559e-07
0
4.26962e-08
7.72691e-08
7.72985e-08
7.73063e-08
7.7315e-08
7.73256e-08
7.73377e-08
7.73517e-08
7.73671e-08
7.73845e-08
7.74029e-08
7.74226e-08
7.74421e-08
7.74607e-08
7.74761e-08
7.74867e-08
7.74681e-08
4.28478e-08
0
0
0
1.73567e-09
5.60692e-09
4.9823e-09
4.98313e-09
4.98422e-09
4.98542e-09
4.98688e-09
4.98848e-09
4.99034e-09
4.99231e-09
4.99448e-09
4.9966e-09
4.99867e-09
5.00036e-09
5.62935e-09
1.7562e-09
0
0
0
0
0
0
0
0
0
0
0
0
0
0
0
0
0
0
0
0
0
0
0
0
0
1.7707e-06
1.78885e-06
1.78887e-06
1.7889e-06
1.78893e-06
1.78895e-06
1.78898e-06
1.78901e-06
1.78903e-06
1.78905e-06
1.78907e-06
1.78909e-06
1.78909e-06
1.77097e-06
0
0
0
0
0
0
1.79146e-06
1.81176e-06
1.81179e-06
1.81182e-06
1.81185e-06
1.81189e-06
1.81192e-06
1.81195e-06
1.81198e-06
1.81201e-06
1.81203e-06
1.81205e-06
1.81205e-06
1.79176e-06
0
0
0
0
0
0
9.50374e-07
9.61175e-07
9.612e-07
9.61224e-07
9.61248e-07
9.61271e-07
9.61294e-07
9.61316e-07
9.6134e-07
9.61361e-07
9.61382e-07
9.61396e-07
9.61404e-07
9.50616e-07
0
0
0
0
0
0
9.8242e-07
9.93969e-07
9.93982e-07
9.93993e-07
9.94005e-07
9.94013e-07
9.94022e-07
9.94029e-07
9.94038e-07
9.94042e-07
9.94049e-07
9.9405e-07
9.94049e-07
9.82498e-07
0
0
0
0
0
0
4.08162e-07
4.12946e-07
4.1293e-07
4.12913e-07
4.12894e-07
4.12875e-07
4.12855e-07
4.12835e-07
4.12812e-07
4.1279e-07
4.12766e-07
4.12743e-07
4.1272e-07
4.07907e-07
0
0
0
0
0
0
4.24331e-07
4.29039e-07
4.29009e-07
4.28979e-07
4.28946e-07
4.28915e-07
4.28881e-07
4.28849e-07
4.28813e-07
4.28779e-07
4.28742e-07
4.28707e-07
4.28672e-07
4.23912e-07
0
0
0
0
0
0
3.48655e-07
3.5254e-07
3.52522e-07
3.52503e-07
3.52483e-07
3.52463e-07
3.5244e-07
3.52417e-07
3.52391e-07
3.52364e-07
3.52334e-07
3.52303e-07
3.52272e-07
3.48346e-07
0
0
0
0
0
0
3.08565e-07
3.11955e-07
3.11944e-07
3.11932e-07
3.11919e-07
3.11905e-07
3.1189e-07
3.11874e-07
3.11857e-07
3.11838e-07
3.11818e-07
3.11795e-07
3.11773e-07
3.08351e-07
0
0
0
0
0
0
7.98439e-07
8.07312e-07
8.07298e-07
8.07282e-07
8.07266e-07
8.07249e-07
8.07231e-07
8.07211e-07
8.0719e-07
8.07167e-07