/*--------------------------------*- C++ -*----------------------------------*\
| =========                 |                                                 |
| \\      /  F ield         | OpenFOAM: The Open Source CFD Toolbox           |
|  \\    /   O peration     | Version:  2212                                  |
|   \\  /    A nd           | Website:  www.openfoam.com                      |
|    \\/     M anipulation  |                                                 |
\*---------------------------------------------------------------------------*/
FoamFile
{
    version     2.0;
    format      ascii;
    arch        "LSB;label=32;scalar=64";
    class       volScalarField;
    location    "7.5e-05";
    object      T;
}
// * * * * * * * * * * * * * * * * * * * * * * * * * * * * * * * * * * * * * //

dimensions      [0 0 0 1 0 0 0];

internalField   nonuniform List<scalar> 
25920
(
10.305
10.3797
10.461
10.475
10.4593
10.4044
10.3464
10.2879
10.2392
10.1992
10.1697
10.1295
10.085
10.0491
10.0377
10.0502
10.0638
10.0916
10.1427
10.2374
10.408
10.6283
10.8929
11.1832
11.5538
12.019
12.3832
12.8365
13.3739
13.9575
14.8379
16.4588
19.7104
25.8707
37.7751
58.7344
81.6714
98.5581
105.628
103.411
90.0359
67.8942
45.9017
31.0604
23.6782
20.9096
20.281
11.0479
11.1441
11.2555
11.2761
11.2643
11.2073
11.1488
11.0919
11.0436
10.9993
10.9662
10.9259
10.875
10.8284
10.8129
10.8268
10.8471
10.8791
10.9361
11.0393
11.2261
11.4694
11.7662
12.1207
12.534
13.0113
13.3394
13.8322
14.4932
15.1387
16.0836
17.6914
20.7863
26.862
39.0151
60.6903
84.8964
103.135
111.849
111.047
98.4363
75.6481
51.6686
34.578
25.667
22.0035
20.7394
10.7279
10.7725
10.852
10.8672
10.847
10.7825
10.7199
10.6595
10.6078
10.5607
10.5306
10.4983
10.4597
10.4168
10.3975
10.4107
10.4431
10.4829
10.5425
10.6182
10.7606
10.996
11.3066
11.652
12.0046
12.3036
12.5742
13.1106
13.6628
14.1507
14.8494
16.0997
18.7505
24.1251
35.506
55.9525
80.0016
98.9875
108.878
109.451
97.4792
75.0473
51.4061
34.4804
25.8253
22.271
21.0312
10.7262
10.7725
10.8657
10.8847
10.866
10.803
10.7449
10.6855
10.6291
10.5768
10.5426
10.503
10.4652
10.4205
10.3967
10.4109
10.4498
10.5219
10.5882
10.6771
10.8192
11.0359
11.3312
11.6723
12.0119
12.3926
12.6268
13.1032
13.8026
14.4107
15.2362
16.5472
19.0731
23.9705
34.4065
54.7025
78.7808
97.9576
108.192
109.249
98.6735
77.3755
53.6155
36.0056
26.4564
22.4723
21.1855
10.7135
10.7688
10.8425
10.8492
10.8336
10.771
10.7099
10.6478
10.5952
10.5526
10.5256
10.4885
10.4512
10.4083
10.3827
10.3905
10.4233
10.4487
10.477
10.5492
10.6619
10.8757
11.1995
11.5778
11.9695
12.3374
12.5401
13.002
13.6257
14.0746
14.7692
15.9033
18.2231
22.9841
33.2679
52.5808
76.5175
96.1579
107.514
109.463
99.6554
78.3429
54.4159
36.4971
26.8732
22.8566
21.3922
10.8387
10.8846
10.9848
11.0093
10.9867
10.9161
10.8459
10.7762
10.7158
10.6599
10.6179
10.5676
10.5175
10.4698
10.4391
10.445
10.4636
10.4965
10.5387
10.6154
10.7963
11.0416
11.3866
11.7371
12.0481
12.3292
12.5574
13.0686
13.7329
14.2937
15.0577
16.2617
18.5313
23.0042
32.559
51.807
75.7147
95.503
107.294
109.707
100.939
80.5269
56.4294
37.8639
27.6318
23.1696
21.584
11.0386
11.0757
11.1542
11.1568
11.1282
11.0584
10.9877
10.9169
10.8552
10.7979
10.7504
10.6945
10.6307
10.5728
10.5385
10.5402
10.5638
10.5892
10.6238
10.7086
10.8604
11.0948
11.4415
11.7858
12.0895
12.3432
12.5167
12.9787
13.6938
14.2155
14.7993
15.811
17.9938
22.423
31.7498
50.5469
74.5405
95.0585
107.47
110.753
102.421
81.8143
57.4986
38.6258
28.2354
23.5775
21.8144
11.1886
11.2237
11.3011
11.3034
11.2699
11.1932
11.1188
11.0463
10.9852
10.9307
10.8849
10.8233
10.7609
10.7035
10.668
10.6638
10.6843
10.7121
10.7411
10.7934
10.9399
11.2067
11.5322
11.8727
12.165
12.3891
12.6806
13.1549
13.7211
14.3591
15.0208
16.1026
18.1831
22.2623
31.1956
49.7693
73.686
94.6177
107.778
111.818
104.468
84.6402
60.1179
40.3595
29.1081
24.0203
22.0813
11.3333
11.364
11.4348
11.4383
11.4042
11.3276
11.2557
11.1844
11.1243
11.0677
11.0146
10.9398
10.8685
10.8106
10.772
10.7588
10.7775
10.8032
10.8344
10.8919
11.0266
11.2578
11.5422
11.9022
12.1967
12.4331
12.7548
13.1883
13.7216
14.3036
14.8569
15.7675
17.7141
21.6357
30.2774
48.0449
72.1999
93.7249
107.898
112.808
106.261
86.575
61.7023
41.4803
29.9036
24.5255
22.3925
11.4423
11.4696
11.5357
11.5358
11.5041
11.4203
11.3459
11.2777
11.2222
11.1722
11.1268
11.0563
10.9862
10.926
10.8892
10.8686
10.8774
10.8924
10.912
10.9563
11.091
11.3437
11.6634
12.013
12.2923
12.5711
12.913
13.3164
13.8964
14.4622
15.1102
15.9801
17.7551
21.3451
29.5726
46.8389
70.8792
92.7566
107.909
113.726
108.441
89.7715
64.8266
43.5665
30.994
25.1101
22.7548
11.5703
11.59
11.6533
11.6481
11.6132
11.5304
11.4562
11.39
11.336
11.2844
11.2377
11.1672
11.1024
11.046
11.0085
10.9868
10.9963
11.0086
11.0247
11.0625
11.16
11.3875
11.6786
12.0095
12.339
12.6343
12.9833
13.4059
13.8493
14.3856
14.9884
15.7808
17.3968
20.8323
28.5997
45.2668
69.4613
91.6095
107.746
114.507
110.075
91.781
66.5938
44.9036
31.9157
25.6901
23.1335
11.692
11.711
11.7742
11.7667
11.7325
11.6516
11.5738
11.5059
11.4494
11.3925
11.3407
11.2695
11.2027
11.1477
11.116
11.098
11.1043
11.1119
11.1282
11.1658
11.2721
11.4708
11.8596
12.1946
12.5353
12.788
13.1437
13.5557
14.0382
14.5879
15.1851
16.0252
17.5203
20.6993
27.9125
44.0763
68.1712
90.57
107.53
115.272
112.274
95.0784
69.9521
47.2337
33.1886
26.3905
23.5745
11.8722
11.8836
11.9351
11.9181
11.8793
11.7952
11.7172
11.649
11.5897
11.5257
11.4676
11.3896
11.3176
11.261
11.2296
11.2105
11.2081
11.2119
11.2231
11.2624
11.3719
11.5659
11.8854
12.2116
12.5714
12.8389
13.2481
13.6121
14.0255
14.5462
15.1
15.8957
17.3066
20.3252
27.1919
42.4737
66.3975
89.5143
107.217
115.971
113.976
97.246
71.9405
48.7956
34.3031
27.0988
24.0464
12.0647
12.0704
12.1179
12.0985
12.0572
11.9721
11.8943
11.8215
11.754
11.6813
11.6125
11.5255
11.4556
11.403
11.3686
11.3432
11.3336
11.3429
11.3541
11.3875
11.4774
11.6794
12.0088
12.3512
12.7499
13.0636
13.4145
13.7864
14.2236
14.7499
15.3067
16.0571
17.3414
20.189
26.4893
41.3094
64.9338
88.167
106.748
116.641
116.278
100.793
75.6337
51.4443
35.8244
27.949
24.5932
12.2617
12.2619
12.3028
12.2763
12.2316
12.1408
12.053
11.9714
11.8983
11.8206
11.7422
11.6391
11.5579
11.4972
11.4633
11.4416
11.434
11.4566
11.477
11.5184
11.6228
11.8128
12.0886
12.4484
12.8061
13.1387
13.5223
13.8882
14.282
14.7587
15.2713
15.9948
17.2507
19.8893
25.9746
39.796
63.1897
86.9109
106.066
117.191
117.844
103.097
77.9307
53.3094
37.1837
28.8062
25.1703
12.4489
12.4424
12.4869
12.4563
12.4069
12.315
12.2217
12.1355
12.0626
11.982
11.8962
11.7829
11.6889
11.6157
11.5692
11.5362
11.5173
11.5383
11.566
11.612
11.712
11.912
12.1918
12.5926
13.0377
13.3302
13.6539
14.0125
14.438
14.9194
15.4471
16.1444
17.2673
19.7393
25.465
38.6483
61.4425
85.2874
105.048
117.567
119.903
106.809
82.024
56.3477
38.9988
29.8414
25.848
12.6256
12.6118
12.6492
12.6185
12.5695
12.4711
12.3739
12.2869
12.2112
12.1277
12.0341
11.9185
11.8295
11.7489
11.6875
11.6421
11.6167
11.6356
11.6678
11.7125
11.8039
12.0015
12.3119
12.7128
13.1446
13.4555
13.7548
14.11
14.5285
14.9804
15.4579
16.1214
17.2315
19.5629
24.9666
37.1934
59.6955
83.7912
104.119
117.751
121.299
109.105
84.5762
58.5636
40.6094
30.8689
26.5497
12.7863
12.7747
12.8151
12.7788
12.7274
12.6297
12.5324
12.4504
12.3822
12.3055
12.2154
12.1045
12.0046
11.9292
11.8756
11.8175
11.7574
11.7411
11.7661
11.8107
11.9099
12.1098
12.4129
12.8306
13.1976
13.5244
13.8343
14.2124
14.6508
15.1118
15.5898
16.2444
17.2808
19.4938
24.6055
36.5558
58.1897
82.2066
103.18
117.853
122.89
112.781
88.9133
61.9635
42.7104
32.1037
27.3722
12.9353
12.924
12.959
12.904
12.8493
12.7551
12.67
12.6015
12.5385
12.4628
12.3834
12.2907
12.2058
12.1221
12.0581
11.9932
11.9266
11.8901
11.878
11.8963
11.9668
12.1652
12.4592
12.8772
13.2091
13.5545
13.8809
14.305
14.7382
15.201
15.664
16.2845
17.3078
19.3928
24.2687
35.7539
56.7554
80.5357
102.089
117.766
124.005
115.034
91.7488
64.6207
44.6714
33.3721
28.2528
13.1114
13.0998
13.1271
13.0773
13.0263
12.9212
12.8406
12.7844
12.738
12.6591
12.5999
12.52
12.4019
12.3244
12.2706
12.204
12.1388
12.112
12.1008
12.1327
12.2055
12.3211
12.5963
12.9128
13.2835
13.6415
14.0136
14.4053
14.8353
15.2999
15.7742
16.3941
17.3727
19.342
24.031
35.1152
55.3757
78.7299
100.641
117.395
125.039
118.644
96.4523
68.5785
47.2265
34.9149
29.2945
13.2969
13.3018
13.3463
13.2969
13.2881
13.2148
13.1454
13.0319
12.9419
12.8533
12.7677
12.6507
12.5704
12.5026
12.4401
12.3623
12.2832
12.2311
12.2147
12.2392
12.2965
12.428
12.6758
13.0456
13.3495
13.7604
14.1453
14.5299
14.9122
15.3753
15.846
16.4527
17.4178
19.2782
23.7724
34.2165
54.1353
77.1464
99.128
116.927
125.591
120.64
99.5702
71.7722
49.6456
36.4994
30.4251
13.4949
13.5112
13.5565
13.4919
13.4629
13.3534
13.2601
13.1842
13.1184
13.0675
13.0233
12.9145
12.8213
12.7354
12.6652
12.5886
12.5109
12.4578
12.4332
12.4485
12.4995
12.6242
12.8311
13.2191
13.5803
13.9883
14.3777
14.7227
15.1033
15.5066
15.9651
16.5575
17.4799
19.2338
23.5414
33.5721
52.5516
75.2288
97.1353
115.95
126.198
123.922
104.642
76.4513
52.8673
38.488
31.7572
13.7162
13.7335
13.7616
13.7269
13.6786
13.5835
13.4918
13.4029
13.3153
13.23
13.1554
13.0407
12.9305
12.8379
12.7705
12.6952
12.6134
12.5549
12.574
12.6136
12.702
12.8228
13.0872
13.3597
13.7594
14.0608
14.444
14.845
15.1665
15.5845
16.0399
16.6127
17.5237
19.1973
23.3197
32.8859
51.1218
73.5721
95.2925
114.512
126.514
125.653
108.161
80.4948
56.1386
40.6845
33.3085
13.9662
13.9762
13.9976
13.9695
13.9266
13.8357
13.7657
13.6621
13.5878
13.4731
13.3684
13.2651
13.1943
13.1051
13.0286
12.9373
12.842
12.7681
12.7605
12.7687
12.8274
12.9638
13.1925
13.557
13.9168
14.3271
14.6301
15.0342
15.3511
15.7388
16.1945
16.7505
17.5953
19.1784
23.1173
32.3864
50.1986
71.7408
93.1953
112.721
126.637
128.418
113.492
86.1332
60.3981
43.4418
35.164
14.2163
14.2036
14.2274
14.1933
14.1378
14.0257
13.8973
13.7474
13.6793
13.6307
13.5614
13.4437
13.348
13.2433
13.1601
13.0835
13.0033
12.9502
12.9664
13.0068
13.0396
13.1545
13.2984
13.5957
14.0226
14.4244
14.7658
15.0751
15.4848
15.863
16.2843
16.8134
17.6629
19.1822
23.007
31.6654
48.8684
70.2532
91.5795
111.048
126.068
129.705
116.76
90.9938
64.7576
46.5331
37.3654
14.4352
14.4167
14.4633
14.4285
14.3728
14.2631
14.1877
14.1187
13.973
13.8549
13.766
13.6443
13.5408
13.4407
13.3522
13.2444
13.1277
13.0518
13.056
13.1189
13.1967
13.3258
13.5702
13.8393
14.182
14.4967
14.9333
15.3022
15.6596
16.0338
16.4513
16.9714
17.7659
19.2295
22.9327
31.4217
47.9785
68.5383
89.5111
109.078
125.088
131.018
121.824
97.5255
70.4186
50.5282
40.1489
14.6266
14.6357
14.6881
14.6503
14.5861
14.479
14.3836
14.2727
14.2105
14.1119
14.0131
13.864
13.7463
13.6375
13.5547
13.484
13.4282
13.3597
13.3466
13.3559
13.3842
13.4808
13.6713
14.0069
14.3736
14.7795
15.0906
15.5088
15.8173
16.1874
16.592
17.0825
17.8624
19.2844
22.8289
31.0302
47.1291
67.2326
87.9238
107.386
123.888
131.432
124.703
102.876
76.3389
55.3182
43.7013
14.8258
14.8325
14.8949
14.8502
14.7998
14.6829
14.5872
14.4703
14.3608
14.2607
14.167
14.0356
13.9385
13.8305
13.7376
13.6346
13.5193
13.4422
13.4738
13.538
13.648
13.752
13.8502
14.1159
14.4329
14.8678
15.2546
15.5834
15.979
16.3373
16.7349
17.2158
17.9627
19.3208
22.6967
30.6278
46.1075
65.536
85.8404
105.201
122.352
131.609
128.636
109.778
83.4898
61.3989
48.2455
15.0208
15.0284
15.0997
15.064
15.0178
14.9038
14.8099
14.7095
14.6096
14.4985
14.3922
14.2482
14.1399
14.0267
13.935
13.842
13.7607
13.6711
13.667
13.71
13.8002
13.9158
14.1104
14.3044
14.6429
15.0026
15.4315
15.7518
16.1142
16.4935
16.8813
17.3466
18.0694
19.3602
22.5779
30.2572
45.2292
64.6473
84.6027
103.639
120.814
131.328
130.456
114.946
90.3672
68.1073
53.8394
15.2179
15.2293
15.3095
15.2783
15.2288
15.1079
15.0024
14.8879
14.7939
14.7007
14.5979
14.4594
14.352
14.2316
14.1455
14.0457
13.9448
13.8882
13.9266
13.9657
14.0338
14.1175
14.2476
14.4941
14.9967
15.407
15.6523
15.9802
16.3164
16.6752
17.0711
17.501
18.1693
19.3999
22.4664
29.7777
44.1997
63.393
82.811
101.727
119.141
130.766
132.364
120.824
98.2865
75.8998
60.646
15.4322
15.4461
15.5362
15.4973
15.4478
15.3251
15.2167
15.1094
15.0104
14.9089
14.805
14.6674
14.566
14.4523
14.364
14.2634
14.1468
14.047
14.0533
14.0916
14.1948
14.3342
14.4784
14.8101
15.1242
15.5232
15.799
16.0773
16.4715
16.8312
17.2291
17.6568
18.2874
19.4487
22.3618
29.3705
43.7401
62.6386
81.7587
100.387
117.651
129.906
133.16
124.646
105.45
84.2742
68.4872
15.6568
15.6676
15.7676
15.7223
15.6694
15.5414
15.4279
15.3085
15.2141
15.1065
15.0146
14.8765
14.7871
14.6775
14.5841
14.4803
14.4839
14.4442
14.4295
14.4572
14.4427
14.5473
14.7001
14.9018
15.2906
15.6998
16.024
16.2997
16.6798
17.0297
17.4273
17.8354
18.4075
19.4999
22.2781
29.1509
43.1089
61.2566
80.1667
98.6739
116.134
129.064
133.634
128.396
112.684
93.3247
77.3743
15.891
15.8993
16.0081
15.9627
15.9082
15.7734
15.6593
15.5344
15.4407
15.3088
15.2239
15.0917
15.0059
14.8953
14.809
14.7142
14.5872
14.5131
14.5312
14.6024
14.6493
14.7375
14.8969
15.1685
15.5488
15.9236
16.199
16.5267
16.8608
17.2157
17.6157
18.0227
18.5503
19.5809
22.2352
28.9493
42.374
60.6518
79.4529
97.6417
114.79
127.964
133.682
130.42
117.946
101.371
86.3802
16.1234
16.1267
16.2414
16.197
16.1429
16.005
15.8908
15.759
15.6651
15.5297
15.4422
15.3197
15.2063
15.0947
15.0047
14.8998
14.8044
14.7066
14.7091
14.7429
14.8125
14.9468
15.0928
15.3695
15.7357
16.0514
16.3683
16.6388
17.0506
17.4087
17.7978
18.2044
18.71
19.6971
22.2399
28.7918
42.1068
59.9761
78.5882
96.6419
113.822
127.262
133.7
132.193
122.339
107.988
94.4413
16.3404
16.3403
16.4645
16.418
16.3636
16.2167
16.0932
15.9648
15.8629
15.7446
15.6303
15.4891
15.402
15.2879
15.2077
15.1017
15.0031
14.9364
14.9036
14.9594
15.0049
15.0986
15.2803
15.534
15.8508
16.1029
16.4732
16.8106
17.2077
17.583
17.9658
18.3739
18.8714
19.8327
22.295
28.7348
41.7804
59.7427
78.3546
96.2717
113.057
126.354
133.362
133.024
125.376
113.402
101.505
16.5373
16.533
16.6637
16.6148
16.5653
16.4192
16.2899
16.1437
16.0265
15.9182
15.8009
15.6578
15.6229
15.495
15.3951
15.275
15.1647
15.0423
14.9817
15.047
15.1319
15.2611
15.4172
15.662
15.9125
16.1699
16.5906
16.9287
17.375
17.7548
18.1312
18.5307
19.0238
19.9658
22.3466
28.6983
41.5106
59.3121
77.7694
95.6334
112.531
125.918
133.259
133.877
127.999
118.035
107.754
16.7199
16.7168
16.8526
16.7996
16.7476
16.6013
16.4811
16.3419
16.2181
16.0734
15.9859
15.9077
15.7339
15.6624
15.5763
15.4623
15.3559
15.2516
15.1988
15.2472
15.2827
15.3775
15.5621
15.7816
15.9546
16.2276
16.658
16.9882
17.4892
17.8988
18.278
18.678
19.1719
20.1
22.4244
28.6796
41.3146
59.1334
77.5521
95.3306
112.006
125.223
132.859
134.251
129.803
121.723
112.998
16.8993
16.8974
17.0348
16.9797
16.9242
16.7691
16.6624
16.5459
16.4652
16.3406
16.2168
16.0736
15.9845
15.8503
15.7481
15.6189
15.5094
15.3917
15.3148
15.3703
15.4292
15.5099
15.6246
15.8634
16.1432
16.5419
16.9909
17.2759
17.6095
18.0257
18.4094
18.8088
19.31
20.2264
22.5097
28.6974
41.2022
58.9254
77.2413
95.0272
111.708
124.983
132.739
134.64
131.292
124.658
117.313
17.0893
17.0991
17.229
17.1775
17.1369
16.9973
16.8911
16.7381
16.6205
16.5061
16.4663
16.2701
16.1464
16.0488
15.9327
15.7837
15.6596
15.5201
15.4259
15.4605
15.5002
15.6099
15.7832
16.0222
16.3012
16.622
16.9907
17.3074
17.7282
18.1423
18.5269
18.9317
19.4467
20.3462
22.5982
28.7272
41.011
58.604
77.1107
94.8757
111.454
124.562
132.438
134.821
132.385
127.041
121.021
17.3463
17.3388
17.443
17.387
17.3138
17.1487
17.028
16.9059
16.8217
16.7221
16.6383
16.4917
16.4088
16.1981
16.0971
15.989
15.877
15.7563
15.6572
15.6555
15.689
15.7538
15.8621
16.1652
16.4919
16.8313
17.2207
17.5242
17.869
18.2734
18.6536
19.0541
19.5738
20.4527
22.6391
28.7132
40.6671
58.3164
76.6726
94.5145
111.153
124.355
132.307
134.959
133.316
129.072
124.251
17.6581
17.6459
17.7492
17.6673
17.6015
17.442
17.3269
17.1789
17.0594
16.9211
16.7848
16.6146
16.5161
16.4375
16.3037
16.1357
16.005
15.8894
15.8004
15.7884
15.8212
15.9121
16.148
16.4628
16.731
17.006
17.3913
17.7353
18.0698
18.4182
18.7922
19.1751
19.7045
20.5632
22.6627
28.4783
40.0814
57.4726
76.2118
94.1185
110.739
123.891
131.979
135.049
134.03
130.705
126.905
17.9809
17.9665
18.0344
17.9508
17.8654
17.6841
17.5488
17.3912
17.276
17.1505
17.0687
16.8824
16.7417
16.5965
16.5077
16.3748
16.2538
16.1175
16.0228
16.0386
16.0954
16.0817
16.1849
16.3805
16.8258
17.1056
17.5064
17.8463
18.2133
18.5888
18.954
19.3202
19.8224
20.6585
22.6481
28.0988
39.5662
56.9535
75.5304
93.5214
110.296
123.604
131.838
135.121
134.684
132.026
129.015
18.2947
18.2542
18.2897
18.2307
18.1412
17.9523
17.8069
17.6414
17.5279
17.3819
17.2499
17.0825
16.9719
16.814
16.6657
16.5228
16.3968
16.2533
16.1407
16.1218
16.1785
16.2698
16.3879
16.6562
17.0236
17.3935
17.7002
18.0586
18.3775
18.7352
19.1133
19.4665
19.9273
20.7358
22.6203
27.8426
38.7721
55.9603
74.5761
92.6866
109.607
122.989
131.407
135.139
135.193
133.091
130.719
18.5855
18.543
18.5922
18.5042
18.4131
18.2018
18.0448
17.8881
17.7644
17.5878
17.4477
17.2319
17.0959
16.9967
16.8767
16.7297
16.6021
16.4504
16.3345
16.3098
16.3709
16.4347
16.5472
16.7348
17.0395
17.4533
17.7586
18.1938
18.5272
18.8874
19.2745
19.6737
20.0635
20.8059
22.5798
27.5917
38.1108
54.8967
73.467
91.6515
108.8
122.466
131.047
135.039
135.541
133.963
132.079
18.866
18.8128
18.9137
18.7753
18.6692
18.4625
18.3002
18.1512
18.0275
17.846
17.701
17.5104
17.3441
17.1391
17.0438
16.9131
16.8013
16.6654
16.5529
16.5136
16.5789
16.6302
16.6838
16.8155
16.9452
17.4992
17.9522
18.3727
18.6695
19.033
19.4113
19.7906
20.1897
20.8923
22.5667
27.2981
37.5345
54.1131
72.6127
90.8639
108.11
121.853
130.583
134.823
135.746
134.627
133.111
19.1477
19.0865
19.1764
19.0623
18.9625
18.7469
18.573
18.3815
18.2444
18.0534
17.8773
17.6641
17.5314
17.4013
17.2588
17.0983
16.9519
16.8005
16.6951
16.6604
16.7393
16.8058
16.8875
17.0616
17.2356
17.5362
18.0677
18.5614
18.8424
19.1895
19.581
19.9694
20.3527
21.007
22.6106
27.1538
37.138
53.4777
71.9696
90.3176
107.713
121.632
130.427
134.729
135.861
135.121
133.899
19.4446
19.3854
19.4463
19.3455
19.2338
19.0209
18.8533
18.683
18.5469
18.369
18.2014
17.9533
17.779
17.5859
17.4741
17.3236
17.184
17.0272
16.9201
16.8746
16.9387
16.9907
17.0443
17.18
17.4455
17.7756
18.2959
18.759
19.0263
19.361
19.7312
20.1219
20.5176
21.1498
22.6946
27.1
36.8893
53.0653
71.5036
89.9418
107.4
121.39
130.3
134.706
135.969
135.541
134.557
19.7606
19.6976
19.7665
19.6612
19.5601
19.3502
19.171
18.9843
18.8386
18.6372
18.4803
18.2559
18.0892
17.8901
17.7315
17.5402
17.3738
17.2078
17.0907
17.0546
17.1236
17.1773
17.2303
17.3626
17.6409
18.1352
18.58
18.971
19.2422
19.5557
19.9087
20.3177
20.7053
21.3148
22.7905
27.0587
36.5949
52.5239
70.931
89.5308
107.221
121.345
130.303
134.734
136.114
135.935
135.147
20.0872
20.0221
20.0793
19.9768
19.8715
19.6585
19.4888
19.3215
19.2029
18.9997
18.8056
18.5485
18.3701
18.1838
18.0322
17.8355
17.6619
17.4736
17.3362
17.2664
17.3157
17.3689
17.4251
17.5502
17.7427
18.1903
18.8318
19.1673
19.4712
19.7703
20.0948
20.4917
20.8937
21.4987
22.9081
27.0301
36.3502
52.0753
70.2869
89.1002
106.925
121.234
130.313
134.806
136.277
136.316
135.684
20.4384
20.373
20.4202
20.3067
20.1958
19.9869
19.82
19.6479
19.5226
19.3373
19.1774
18.9321
18.7438
18.5249
18.3554
18.1426
17.9502
17.7429
17.5877
17.5013
17.5213
17.5685
17.6228
17.7348
18.0259
18.4293
19.0981
19.3298
19.6964
19.9926
20.2997
20.6877
21.0912
21.696
23.0587
27.0295
36.0847
51.3892
69.9453
88.7115
106.827
121.255
130.396
134.932
136.481
136.628
136.155
20.8237
20.755
20.7844
20.6673
20.5484
20.3309
20.1524
19.9742
19.8568
19.665
19.5004
19.2611
19.0871
18.8781
18.7011
18.4698
18.2497
18.0203
17.8461
17.7302
17.722
17.7757
17.8407
17.984
18.2947
18.7879
19.169
19.4717
19.9082
20.1988
20.5078
20.8821
21.2857
21.8907
23.2129
27.0579
35.9282
51.14
69.5897
88.4049
106.621
121.277
130.528
135.108
136.7
136.923
136.571
21.2352
21.1659
21.1758
21.0383
20.9032
20.68
20.4993
20.3247
20.2047
20.0163
19.8499
19.6026
19.4173
19.2049
19.0305
18.7924
18.567
18.3317
18.1411
18.002
17.9634
18.0239
18.0914
18.1982
18.4177
18.7981
19.2025
19.6964
20.1341
20.4023
20.7189
21.0803
21.4764
22.0823
23.3725
27.0809
35.6422
50.5029
69.1181
88.1307
106.555
121.349
130.714
135.336
136.946
137.215
136.962
21.6624
21.5973
21.5869
21.4441
21.2996
21.0652
20.8781
20.6875
20.5584
20.3567
20.1895
19.9406
19.753
19.5366
19.3523
19.1078
18.8907
18.6533
18.441
18.272
18.21
18.2578
18.3174
18.4556
18.7154
18.9458
19.3331
19.8729
20.345
20.6104
20.9454
21.3014
21.6805
22.2705
23.5078
27.0531
35.2809
50.1019
68.5185
87.5211
106.237
121.375
130.923
135.619
137.246
137.531
137.373
22.0921
22.0348
22.0071
21.8557
21.7019
21.4581
21.2621
21.0537
20.9104
20.7073
20.5341
20.2719
20.0713
19.8531
19.6729
19.4402
19.2359
18.9991
18.7721
18.5948
18.4892
18.4968
18.554
18.6677
18.9174
19.3301
19.7042
20.2434
20.569
20.8519
21.1872
21.5394
21.91
22.4761
23.637
26.9935
34.6845
49.0595
67.4655
86.7063
105.727
121.248
131.087
135.913
137.582
137.871
137.809
22.5197
22.4658
22.4301
22.2796
22.1215
21.8708
21.6799
21.4688
21.3155
21.0923
20.9063
20.628
20.4056
20.173
19.9854
19.7523
19.545
19.3124
19.0973
18.9145
18.7958
18.7574
18.7924
18.8776
19.0689
19.4656
20.0511
20.5741
20.7977
21.1084
21.4587
21.8087
22.1711
22.7059
23.7814
26.9228
34.2745
48.0513
66.2611
85.6894
104.982
120.964
131.172
136.183
137.915
138.214
138.216
22.9517
22.9046
22.8675
22.7184
22.5648
22.3108
22.1148
21.8782
21.7099
21.4839
21.2921
20.9966
20.7511
20.502
20.3064
20.0702
19.8652
19.6399
19.4377
19.266
19.1795
19.1153
19.1251
19.1889
19.4473
19.7897
20.2882
20.793
21.0089
21.3671
21.7384
22.0861
22.4499
22.9564
23.9482
26.886
33.9163
47.3068
65.2552
84.7177
104.306
120.68
131.237
136.442
138.241
138.557
138.574
23.4173
23.3798
23.3425
23.197
23.0382
22.7798
22.585
22.3454
22.1674
21.9309
21.7279
21.418
21.1441
20.8708
20.659
20.409
20.204
19.9752
19.7756
19.6191
19.4993
19.4099
19.4143
19.4928
19.6791
20.0309
20.4443
20.9703
21.251
21.6298
22.0233
22.3749
22.735
23.2204
24.1461
26.8757
33.4915
46.5323
64.38
83.8036
103.621
120.402
131.309
136.723
138.59
138.914
138.932
23.8908
23.8648
23.8268
23.6846
23.5259
23.2732
23.0734
22.819
22.6301
22.3873
22.1805
21.8611
21.568
21.2758
21.0486
20.7854
20.5622
20.3153
20.1097
19.957
19.8647
19.792
19.7998
19.8548
20.0073
20.2493
20.622
21.1056
21.4878
21.867
22.2719
22.6423
22.9993
23.4658
24.3415
26.8749
33.0969
45.7324
63.3425
82.8043
102.877
120.031
131.346
137.009
138.972
139.31
139.323
24.3323
24.3109
24.2785
24.1407
23.9774
23.7256
23.5211
23.2602
23.0654
22.8205
22.6167
22.2968
21.9925
21.688
21.4506
21.1751
20.9264
20.6521
20.4351
20.2772
20.1779
20.1088
20.146
20.2029
20.3379
20.5788
20.9102
21.3258
21.7334
22.0762
22.4757
22.8701
23.2258
23.68
24.5146
26.8605
32.8434
44.6725
62.08
81.5033
101.838
119.408
131.231
137.208
139.344
139.734
139.748
24.7342
24.7152
24.69
24.5549
24.39
24.1431
23.9393
23.6728
23.4747
23.2237
23.0258
22.7089
22.4051
22.0946
21.8579
21.5648
21.2974
20.994
20.7536
20.5863
20.4863
20.4166
20.4755
20.5314
20.6357
20.8652
21.153
21.5955
22.0633
22.3774
22.6656
23.0641
23.4176
23.8666
24.6517
26.7948
32.6382
43.7615
60.7161
80.1182
100.709
118.657
130.891
137.283
139.658
140.148
140.18
25.1338
25.1192
25.1
24.9695
24.7994
24.554
24.3441
24.0715
23.873
23.6207
23.433
23.1232
22.8235
22.5104
22.2793
21.9857
21.7057
21.3777
21.1104
20.9237
20.8066
20.6652
20.7336
20.7985
20.906
21.0887
21.3937
21.8796
22.416
22.6473
22.8915
23.2632
23.6068
24.0416
24.771
26.7457
32.264
42.8608
59.4298
78.6912
99.4987
117.889
130.542
137.297
139.896
140.516
140.585
25.5641
25.5521
25.5361
25.4077
25.229
24.9837
24.7663
24.4877
24.2882
24.0319
23.851
23.5486
23.2553
22.9442
22.7205
22.4244
22.1386
21.7985
21.5154
21.2885
21.1327
20.9438
20.9791
21.0479
21.177
21.3556
21.729
22.1708
22.6686
22.9536
23.1637
23.4902
23.8235
24.2187
24.9037
26.7309
31.9345
42.1043
58.3251
77.4536
98.3762
117.184
130.178
137.234
140.056
140.809
140.938
26.0435
26.0299
26.0178
25.8915
25.7023
25.4539
25.2232
24.9348
24.7334
24.4731
24.3003
24.0038
23.7148
23.3999
23.1852
22.8893
22.6239
22.2915
21.9813
21.7057
21.4934
21.2385
21.3015
21.3373
21.4584
21.6248
21.9579
22.4215
22.9042
23.2294
23.4795
23.7768
24.0984
24.4494
25.0941
26.7916
31.7716
41.5563
57.1488
76.2975
97.3391
116.542
129.893
137.183
140.169
141.03
141.234
26.601
26.5857
26.5724
26.4464
26.2402
25.9873
25.7347
25.4376
25.2312
24.9664
24.7994
24.5043
24.2155
23.8929
23.6815
23.405
23.1355
22.8015
22.4707
22.1797
21.9119
21.8644
21.648
21.6884
21.7713
21.9552
22.1989
22.6508
23.153
23.5484
23.8329
24.1289
24.4347
24.7642
25.355
26.9096
31.5683
40.9478
56.3399
75.3185
96.5321
115.994
129.668
137.19
140.273
141.199
141.473
27.2453
27.2302
27.2113
27.0837
26.8573
26.5976
26.3196
26.0127
25.7951
25.5241
25.3613
25.0636
24.7747
24.4361
24.2154
23.9004
23.6205
23.2998
22.9732
22.6264
22.3642
22.1787
22.1402
22.1767
22.1656
22.2458
22.5172
22.9133
23.412
23.8502
24.195
24.5195
24.8228
25.1371
25.6697
27.0727
31.4268
40.1633
55.2799
74.2341
95.772
115.516
129.503
137.232
140.392
141.322
141.648
27.9594
27.9447
27.9218
27.7913
27.5467
27.277
26.976
26.6567
26.425
26.1471
25.9846
25.6808
25.3854
25.0201
24.7829
24.4629
24.1593
23.765
23.4336
23.1727
22.8928
22.551
22.3958
22.4874
22.6104
22.7509
22.9647
23.2728
23.7572
24.1435
24.5182
24.8794
25.2167
25.5321
26.0241
27.3352
31.4146
39.9497
54.6297
73.1967
94.8769
115.058
129.392
137.316
140.545
141.431
141.763
28.7193
28.7071
28.6782
28.5423
28.2816
27.9988
27.6851
27.3501
27.1078
26.82
26.6499
26.3389
26.0354
25.6504
25.402
25.0685
24.7483
24.2964
23.9759
23.687
23.4056
23.2009
23.1732
23.2018
23.2155
23.3113
23.6054
24.0648
24.2882
24.5675
24.892
25.2202
25.5781
25.9172
26.4039
27.6431
31.4865
39.7901
54.0019
72.5304
94.0247
114.555
129.257
137.416
140.722
141.568
141.851
29.4875
29.4802
29.4534
29.315
29.049
28.752
28.4346
28.0796
27.8312
27.5335
27.3496
27.0328
26.711
26.3006
26.0313
25.6647
25.3466
24.974
24.5835
24.269
23.9728
23.6578
23.504
23.5514
23.6139
23.7211
23.9212
24.3129
24.8332
25.2719
25.3761
25.5967
25.9253
26.2656
26.7597
27.9472
31.5971
39.377
53.5582
72.1352
93.6716
114.257
129.181
137.53
140.912
141.749
141.943
30.2286
30.2276
30.2053
30.0661
29.7994
29.4924
29.1823
28.8101
28.5605
28.253
28.0485
27.7169
27.3688
26.9363
26.6584
26.2951
25.9721
25.5198
25.1353
24.8243
24.516
24.2156
24.0208
23.8295
23.8387
23.9306
24.0767
24.4812
24.9326
25.3501
25.716
25.9869
26.2841
26.6014
27.0886
28.2346
31.6863
39.0846
53.0242
71.5093
93.2881
113.93
129.104
137.652
141.114
141.961
142.072
30.9161
30.9192
30.9037
30.7667
30.5038
30.1914
29.8915
29.5079
29.2595
28.9452
28.7208
28.3795
28.0146
27.562
27.2653
26.8811
26.5511
26.088
25.7055
25.3753
25.0497
24.7411
24.6336
24.5666
24.6412
24.6153
24.7243
24.9456
25.4225
25.7068
25.9755
26.3068
26.6198
26.93
27.4002
28.484
31.7918
38.9567
52.4632
70.8456
92.8366
113.689
129.062
137.784
141.329
142.188
142.258
31.5405
31.5446
31.5339
31.4
31.1388
30.8246
30.5364
30.1482
29.9012
29.5833
29.3418
28.9868
28.5999
28.132
27.8238
27.4416
27.1196
26.6625
26.2612
25.9084
25.5593
25.2103
24.9814
24.8394
24.9176
24.9821
25.101
25.3683
25.8584
26.1359
26.3789
26.6356
26.9419
27.2464
27.7026
28.7163
31.8634
38.8666
51.8551
70.0006
91.9522
113.252
128.963
137.91
141.553
142.427
142.493
32.1465
32.146
32.1342
31.9995
31.7328
31.4176
31.1374
30.7484
30.5031
30.1819
29.9266
29.5672
29.1755
28.7002
28.3816
27.9873
27.653
27.1673
26.7587
26.4196
26.0611
25.6964
25.4762
25.3019
25.3436
25.3894
25.7195
26.156
26.3338
26.5388
26.7794
27.0223
27.3023
27.5675
27.9943
28.9333
31.8762
38.631
51.1998
69.1888
91.0992
112.751
128.824
138.012
141.793
142.695
142.768
32.8201
32.813
32.7981
32.6614
32.3799
32.0595
31.7786
31.3873
31.1423
30.8179
30.5534
30.1883
29.7842
29.3031
28.9849
28.5843
28.2441
27.7592
27.3421
26.9686
26.5941
26.2058
25.9412
25.7477
25.8176
25.8855
25.9554
26.1946
26.8519
27.3565
27.5302
27.5655
27.7556
27.959
28.3308
29.1898
31.8837
38.3683
50.3593
67.8999
89.9911
112.037
128.537
138.071
142.044
143.001
143.078
33.6397
33.6198
33.5905
33.4438
33.1298
32.7974
32.4995
32.0992
31.8449
31.5118
31.2403
30.8759
30.4657
29.9831
29.6721
29.2619
28.9085
28.4027
27.9835
27.6148
27.2261
26.8198
26.5366
26.2876
26.2924
26.2915
26.3371
26.4845
26.8913
27.3988
27.8672
28.213
28.2985
28.4572
28.752
29.5427
32.0103
38.203
49.73
66.89
89.0747
111.387
128.231
138.095
142.269
143.32
143.39
34.6102
34.5838
34.5407
34.3822
34.0207
33.6691
33.3265
32.9128
32.6347
32.2917
32.0148
31.6425
31.2116
30.7325
30.4258
30.0023
29.6211
29.0913
28.6533
28.2532
27.8597
27.4462
27.1188
26.886
26.8507
26.8363
26.8964
26.9785
27.1121
27.3376
27.81
28.3958
28.7606
28.9889
29.2514
29.9716
32.2651
38.227
49.4403
66.4489
88.5281
110.963
128.053
138.154
142.47
143.62
143.683
35.6268
35.5978
35.5397
35.3721
34.9641
34.5976
34.1937
33.7649
33.4518
33.0905
32.8004
32.4083
31.9543
31.4829
31.1715
30.7368
30.3409
29.7962
29.3501
28.9277
28.5054
28.0663
27.7174
27.4316
27.4275
27.3348
27.354
27.5706
27.8683
28.2638
28.5531
29.0101
29.2762
29.5059
29.7525
30.4249
32.6194
38.3959
49.4131
66.1337
88.1352
110.826
128.071
138.306
142.711
143.933
143.994
36.5867
36.5678
36.5088
36.3455
35.9076
35.5378
35.0838
34.6404
34.3067
33.9239
33.6165
33.1856
32.7268
32.2499
31.9264
31.4634
31.0406
30.4768
30.0192
29.5749
29.1432
28.6854
28.3099
27.9812
27.9397
27.9822
28.2921
28.639
29.0436
29.1723
29.2177
29.5745
29.7942
30.0014
30.2415
30.8761
32.9904
38.6136
49.408
65.9968
87.7995
110.695
128.16
138.553
143.05
144.306
144.378
37.4731
37.4655
37.4142
37.2672
36.8235
36.4632
35.9907
35.5357
35.2004
34.7869
34.4701
33.9854
33.5288
33.0288
32.685
32.1902
31.7549
31.1787
30.7098
30.2364
29.7863
29.3155
28.9205
28.5627
28.4162
28.6607
29.0397
29.3694
29.6121
29.8621
30.2117
30.0943
30.2924
30.4747
30.7284
31.3462
33.3443
38.7967
49.3759
65.7437
87.445
110.511
128.216
138.813
143.445
144.764
144.865
38.3412
38.3416
38.292
38.1588
37.7219
37.3738
36.9248
36.4652
36.1519
35.7063
35.3921
34.8538
34.4048
33.8687
33.4956
32.9544
32.5021
31.9121
31.4338
30.9467
30.4895