/*--------------------------------*- C++ -*----------------------------------*\
| =========                 |                                                 |
| \\      /  F ield         | OpenFOAM: The Open Source CFD Toolbox           |
|  \\    /   O peration     | Version:  2212                                  |
|   \\  /    A nd           | Website:  www.openfoam.com                      |
|    \\/     M anipulation  |                                                 |
\*---------------------------------------------------------------------------*/
FoamFile
{
    version     2.0;
    format      ascii;
    arch        "LSB;label=32;scalar=64";
    class       volScalarField;
    location    "0.0105";
    object      T;
}
// * * * * * * * * * * * * * * * * * * * * * * * * * * * * * * * * * * * * * //

dimensions      [0 0 0 1 0 0 0];

internalField   nonuniform List<scalar> 
7700
(
229.995
230.033
230.077
230.102
230.132
230.17
230.214
230.261
230.312
230.365
230.42
230.476
230.532
230.589
230.644
230.699
230.751
230.801
230.848
230.892
230.932
230.967
230.998
231.023
231.043
231.058
231.066
231.069
231.066
231.058
231.043
231.023
230.998
230.967
230.932
230.892
230.849
230.802
230.752
230.699
230.645
230.589
230.533
230.476
230.42
230.365
230.312
230.261
230.214
230.17
230.132
230.102
230.077
230.032
229.995
229.99
230.036
230.081
230.106
230.138
230.177
230.223
230.272
230.325
230.381
230.439
230.498
230.558
230.617
230.676
230.733
230.788
230.841
230.89
230.936
230.978
231.015
231.047
231.074
231.095
231.11
231.12
231.123
231.12
231.11
231.095
231.074
231.048
231.016
230.979
230.937
230.891
230.842
230.789
230.734
230.677
230.618
230.559
230.499
230.44
230.382
230.326
230.273
230.223
230.178
230.138
230.107
230.08
230.035
229.991
229.994
230.037
230.088
230.118
230.153
230.197
230.247
230.301
230.358
230.418
230.481
230.544
230.608
230.672
230.735
230.796
230.855
230.911
230.964
231.014
231.058
231.098
231.133
231.161
231.184
231.201
231.211
231.214
231.211
231.202
231.185
231.163
231.134
231.1
231.061
231.016
230.967
230.914
230.858
230.799
230.738
230.675
230.611
230.547
230.483
230.421
230.36
230.303
230.248
230.199
230.155
230.119
230.088
230.037
229.995
229.999
230.043
230.103
230.141
230.184
230.235
230.293
230.355
230.42
230.488
230.558
230.63
230.702
230.773
230.843
230.912
230.978
231.041
231.1
231.155
231.205
231.25
231.288
231.32
231.346
231.364
231.376
231.38
231.377
231.366
231.348
231.323
231.292
231.254
231.21
231.16
231.106
231.047
230.984
230.918
230.849
230.779
230.707
230.636
230.564
230.493
230.425
230.359
230.297
230.239
230.187
230.143
230.105
230.044
230
230.005
230.057
230.13
230.18
230.236
230.299
230.369
230.443
230.521
230.602
230.685
230.768
230.852
230.935
231.017
231.097
231.173
231.246
231.315
231.378
231.436
231.487
231.531
231.569
231.598
231.619
231.633
231.637
231.634
231.622
231.601
231.573
231.537
231.493
231.443
231.386
231.323
231.255
231.182
231.106
231.026
230.944
230.861
230.777
230.693
230.61
230.528
230.45
230.375
230.304
230.24
230.183
230.133
230.059
230.006
230.014
230.08
230.169
230.235
230.307
230.387
230.474
230.565
230.66
230.757
230.856
230.955
231.055
231.153
231.25
231.344
231.434
231.519
231.599
231.673
231.74
231.8
231.852
231.895
231.929
231.954
231.97
231.975
231.971
231.957
231.934
231.901
231.858
231.808
231.749
231.682
231.609
231.529
231.444
231.355
231.261
231.164
231.066
230.966
230.866
230.766
230.668
230.573
230.481
230.393
230.312
230.239
230.172
230.082
230.014
230.023
230.108
230.216
230.301
230.392
230.492
230.598
230.708
230.822
230.938
231.056
231.174
231.292
231.407
231.52
231.63
231.735
231.834
231.928
232.013
232.091
232.161
232.221
232.271
232.31
232.339
232.357
232.364
232.359
232.343
232.316
232.278
232.229
232.171
232.102
232.025
231.94
231.848
231.749
231.644
231.535
231.421
231.305
231.188
231.069
230.951
230.833
230.718
230.607
230.5
230.399
230.307
230.22
230.111
230.024
230.034
230.14
230.27
230.376
230.489
230.61
230.737
230.869
231.004
231.141
231.279
231.417
231.554
231.689
231.82
231.947
232.068
232.182
232.29
232.388
232.478
232.557
232.626
232.683
232.729
232.762
232.782
232.79
232.785
232.767
232.736
232.692
232.637
232.57
232.492
232.404
232.306
232.199
232.085
231.964
231.838
231.707
231.572
231.434
231.295
231.156
231.018
230.882
230.749
230.62
230.497
230.383
230.275
230.143
230.035
230.046
230.175
230.328
230.458
230.594
230.738
230.889
231.044
231.202
231.362
231.522
231.681
231.839
231.993
232.144
232.289
232.427
232.558
232.68
232.792
232.894
232.984
233.062
233.127
233.179
233.217
233.24
233.249
233.243
233.223
233.188
233.138
233.076
233
232.911
232.811
232.7
232.579
232.448
232.31
232.166
232.015
231.86
231.702
231.541
231.38
231.219
231.06
230.903
230.75
230.604
230.466
230.334
230.179
230.048
230.06
230.213
230.39
230.545
230.706
230.876
231.052
231.231
231.413
231.597
231.78
231.963
232.142
232.318
232.489
232.653
232.809
232.957
233.095
233.221
233.336
233.438
233.525
233.599
233.657
233.699
233.725
233.735
233.729
233.706
233.667
233.612
233.541
233.456
233.357
233.244
233.118
232.982
232.835
232.679
232.515
232.344
232.168
231.987
231.804
231.619
231.434
231.25
231.068
230.891
230.719
230.555
230.398
230.217
230.061
230.073
230.252
230.457
230.638
230.826
231.022
231.224
231.429
231.637
231.846
232.053
232.26
232.462
232.66
232.852
233.036
233.212
233.377
233.531
233.673
233.801
233.915
234.013
234.094
234.159
234.206
234.236
234.247
234.24
234.215
234.172
234.11
234.032
233.937
233.826
233.7
233.56
233.407
233.242
233.067
232.883
232.691
232.492
232.289
232.081
231.872
231.661
231.451
231.243
231.039
230.84
230.65
230.465
230.258
230.075
230.088
230.294
230.526
230.736
230.951
231.175
231.404
231.637
231.871
232.106
232.34
232.57
232.797
233.018
233.232
233.437
233.633
233.817
233.988
234.145
234.288
234.413
234.522
234.613
234.685
234.737
234.77
234.783
234.775
234.747
234.699
234.632
234.545
234.439
234.316
234.176
234.021
233.851
233.668
233.473
233.268
233.054
232.832
232.604
232.372
232.136
231.899
231.663
231.427
231.195
230.968
230.749
230.536
230.3
230.09
230.103
230.337
230.599
230.837
231.082
231.334
231.592
231.853
232.116
232.378
232.638
232.894
233.146
233.391
233.628
233.855
234.071
234.275
234.464
234.637
234.794
234.933
235.053
235.153
235.233
235.291
235.327
235.341
235.333
235.302
235.25
235.175
235.079
234.963
234.828
234.674
234.502
234.315
234.113
233.897
233.67
233.433
233.187
232.933
232.675
232.413
232.148
231.883
231.619
231.357
231.101
230.853
230.61
230.344
230.105
230.119
230.382
230.674
230.942
231.217
231.5
231.788
232.078
232.369
232.659
232.947
233.23
233.508
233.778
234.039
234.289
234.527
234.75
234.958
235.148
235.321
235.473
235.605
235.715
235.802
235.866
235.906
235.921
235.913
235.879
235.822
235.74
235.635
235.508
235.359
235.19
235.002
234.796
234.574
234.337
234.087
233.826
233.555
233.275
232.99
232.699
232.406
232.112
231.818
231.526
231.239
230.96
230.687
230.39
230.121
230.135
230.428
230.751
231.051
231.357
231.671
231.99
232.31
232.631
232.951
233.267
233.578
233.883
234.179
234.464
234.738
234.998
235.242
235.469
235.678
235.866
236.033
236.177
236.297
236.393
236.463
236.507
236.524
236.515
236.478
236.415
236.326
236.212
236.073
235.91
235.726
235.52
235.295
235.052
234.793
234.519
234.233
233.936
233.629
233.315
232.996
232.673
232.349
232.024
231.701
231.382
231.071
230.766
230.438
230.138
230.152
230.476
230.831
231.163
231.502
231.848
232.198
232.55
232.902
233.251
233.597
233.937
234.269
234.592
234.904
235.202
235.485
235.751
235.999
236.226
236.431
236.613
236.769
236.9
237.004
237.08
237.128
237.147
237.137
237.098
237.03
236.933
236.809
236.658
236.481
236.28
236.056
235.811
235.546
235.264
234.966
234.654
234.329
233.995
233.652
233.303
232.949
232.593
232.236
231.881
231.53
231.186
230.848
230.486
230.155
230.169
230.525
230.913
231.279
231.65
232.029
232.412
232.796
233.18
233.561
233.937
234.307
234.668
235.018
235.357
235.68
235.987
236.276
236.545
236.791
237.014
237.211
237.381
237.523
237.636
237.719
237.771
237.792
237.781
237.739
237.665
237.56
237.426
237.262
237.07
236.852
236.61
236.344
236.057
235.75
235.427
235.088
234.735
234.371
233.999
233.619
233.233
232.845
232.455
232.067
231.682
231.304
230.932
230.537
230.173
230.187
230.575
230.997
231.397
231.802
232.215
232.632
233.049
233.465
233.878
234.286
234.686
235.077
235.457
235.823
236.173
236.505
236.817
237.108
237.374
237.615
237.828
238.013
238.167
238.289
238.379
238.435
238.458
238.447
238.401
238.322
238.208
238.063
237.886
237.679
237.443
237.181
236.893
236.583
236.251
235.901
235.534
235.153
234.759
234.355
233.943
233.525
233.104
232.68
232.257
231.837
231.425
231.018
230.588
230.191
230.205
230.626
231.083
231.518
231.958
232.406
232.857
233.308
233.758
234.204
234.644
235.076
235.498
235.907
236.301
236.679
237.037
237.374
237.687
237.975
238.235
238.465
238.664
238.83
238.962
239.06
239.121
239.146
239.134
239.085
238.999
238.877
238.72
238.529
238.306
238.052
237.769
237.459
237.124
236.767
236.389
235.993
235.582
235.157
234.721
234.276
233.825
233.369
232.911
232.452
231.997
231.549
231.106
230.64
230.209
230.223
230.678
231.17
231.641
232.117
232.6
233.087
233.573
234.057
234.537
235.01
235.475
235.928
236.368
236.792
237.198
237.583
237.946
238.283
238.592
238.872
239.12
239.335
239.514
239.657
239.761
239.828
239.855
239.842
239.79
239.698
239.567
239.398
239.192
238.952
238.678
238.374
238.04
237.68
237.296
236.889
236.464
236.021
235.564
235.095
234.617
234.131
233.64
233.146
232.652
232.16
231.675
231.195
230.694
230.228
230.242
230.731
231.259
231.766
232.279
232.798
233.321
233.843
234.362
234.877
235.384
235.882
236.368
236.839
237.294
237.73
238.143
238.532
238.894
239.226
239.527
239.794
240.025
240.217
240.371
240.484
240.556
240.585
240.572
240.516
240.417
240.276
240.095
239.874
239.616
239.322
238.995
238.637
238.25
237.838
237.402
236.945
236.471
235.981
235.478
234.965
234.443
233.916
233.386
232.855
232.326
231.804
231.287
230.748
230.247
230.261
230.785
231.349
231.893
232.443
232.999
233.558
234.117
234.672
235.222
235.764
236.297
236.816
237.32
237.807
238.273
238.715
239.132
239.52
239.876
240.199
240.485
240.733
240.94
241.105
241.227
241.304
241.336
241.322
241.262
241.156
241.005
240.81
240.574
240.297
239.982
239.631
239.248
238.833
238.392
237.925
237.437
236.929
236.405
235.868
235.319
234.761
234.197
233.63
233.061
232.494
231.934
231.379
230.803
230.267
230.28
230.839
231.44
232.022
232.608
233.202
233.799
234.394
234.986
235.572
236.15
236.718
237.272
237.81
238.329
238.826
239.299
239.744
240.159
240.541
240.886
241.193
241.458
241.681
241.858
241.989
242.072
242.106
242.092
242.028
241.914
241.753
241.544
241.291
240.994
240.657
240.282
239.872
239.429
238.957
238.459
237.937
237.396
236.837
236.263
235.678
235.083
234.482
233.876
233.27
232.664
232.066
231.473
230.858
230.287
230.299
230.893
231.531
232.15
232.775
233.407
234.041
234.673
235.302
235.926
236.54
237.143
237.733
238.305
238.858
239.388
239.892
240.367
240.81
241.218
241.587
241.916
242.2
242.438
242.629
242.769
242.858
242.895
242.88
242.812
242.691
242.518
242.295
242.024
241.707
241.346
240.945
240.507
240.035
239.531
239
238.445
237.868
237.273
236.663
236.04
235.408
234.769
234.125
233.48
232.836
232.198
231.566
230.914
230.306
230.318
230.946
231.622
232.279
232.942
233.611
234.283
234.953
235.62
236.28
236.932
237.572
238.197
238.805
239.393
239.957
240.493
240.999
241.472
241.907
242.301
242.652
242.956
243.211
243.415
243.565
243.661
243.701
243.685
243.612
243.483
243.298
243.06
242.77
242.432
242.047
241.619
241.152
240.649
240.113
239.548
238.957
238.344
237.713
237.065
236.405
235.734
235.056
234.374
233.69
233.007
232.331
231.66
230.97
230.326
230.337
231
231.713
232.407
233.107
233.815
234.524
235.232
235.937
236.635
237.323
238.001
238.663
239.307
239.93
240.529
241.099
241.637
242.14
242.603
243.024
243.398
243.723
243.996
244.214
244.375
244.478
244.521
244.505
244.427
244.289
244.092
243.838
243.528
243.167
242.757
242.301
241.804
241.268
240.699
240.099
239.472
238.822
238.153
237.467
236.768
236.059
235.343
234.622
233.899
233.177
232.462
231.753
231.025
230.345
230.356
231.052
231.801
232.533
233.27
234.015
234.762
235.508
236.25
236.985
237.712
238.427
239.126
239.807
240.467
241.101
241.706
242.277
242.812
243.305
243.753
244.152
244.499
244.79
245.023
245.195
245.305
245.352
245.335
245.253
245.105
244.895
244.624
244.294
243.909
243.472
242.987
242.459
241.89
241.285
240.649
239.985
239.298
238.591
237.867
237.129
236.382
235.626
234.867
234.105
233.345
232.592
231.844
231.078
230.365
230.374
231.103
231.888
232.655
233.429
234.21
234.994
235.777
236.556
237.329
238.094
238.846
239.583
240.302
240.999
241.669
242.309
242.915
243.483
244.007
244.483
244.908
245.278
245.589
245.838
246.022
246.14
246.19
246.172
246.085
245.928
245.704
245.415
245.063
244.654
244.189
243.673
243.112
242.509
241.868
241.195
240.494
239.768
239.022
238.259
237.483
236.697
235.904
235.106
234.306
233.508
232.718
231.933
231.131
230.383
230.391
231.151
231.97
232.772
233.581
234.398
235.218
236.037
236.853
237.663
238.464
239.254
240.029
240.786
241.52
242.227
242.904
243.546
244.147
244.703
245.209
245.662
246.055
246.387
246.652
246.849
246.976
247.03
247.011
246.918
246.751
246.512
246.204
245.831
245.395
244.901
244.354
243.758
243.119
242.442
241.731
240.991
240.227
239.442
238.641
237.826
237.002
236.171
235.336
234.499
233.665
232.838
232.018
231.181
230.401
230.407
231.197
232.048
232.882
233.724
234.575
235.429
236.283
237.134
237.98
238.818
239.645
240.457
241.252
242.024
242.769
243.483
244.161
244.797
245.386
245.924
246.405
246.824
247.177
247.46
247.67
247.806
247.864
247.844
247.745
247.568
247.314
246.986
246.588
246.125
245.601
245.021
244.39
243.715
242.999
242.25
241.471
240.668
239.845
239.005
238.153
237.292
236.424
235.553
234.681
233.812
232.951
232.098
231.227
230.417
230.422
231.238
232.119
232.983
233.856
234.738
235.624
236.511
237.395
238.276
239.149
240.012
240.861
241.693
242.502
243.286
244.037
244.752
245.424
246.048
246.618
247.129
247.574
247.95
248.252
248.477
248.621
248.684
248.664
248.559
248.37
248.099
247.751
247.328
246.836
246.28
245.666
244.999
244.286
243.533
242.744
241.927
241.085
240.223
239.346
238.458
237.561
236.658
235.753
234.849
233.947
233.055
232.17
231.269
230.432
230.435
231.275
232.181
233.072
233.972
234.882
235.796
236.713
237.628
238.541
239.447
240.344
241.229
242.097
242.945
243.766
244.556
245.308
246.018
246.677
247.281
247.822
248.296
248.696
249.017
249.257
249.411
249.479
249.458
249.346
249.146
248.858
248.488
248.039
247.517
246.928
246.278
245.574
244.822
244.03
243.202
242.346
241.466
240.567
239.654
238.731
237.801
236.866
235.93
234.996
234.065
233.145
232.233
231.306
230.445
230.445
231.304
232.231
233.144
234.067
235
235.939
236.882
237.825
238.766
239.703
240.632
241.55
242.454
243.337
244.196
245.024
245.814
246.561
247.257
247.895
248.468
248.971
249.396
249.738
249.993
250.158
250.23
250.209
250.091
249.878
249.573
249.18
248.704
248.151
247.528
246.841
246.099
245.309
244.477
243.61
242.716
241.799
240.865
239.919
238.964
238.003
237.04
236.077
235.117
234.162
233.219
232.284
231.335
230.455
230.453
231.326
232.268
233.198
234.137
235.089
236.048
237.012
237.978
238.944
239.908
240.866
241.815
242.751
243.669
244.563
245.428
246.255
247.038
247.77
248.443
249.048
249.579
250.029
250.392
250.663
250.838
250.915
250.893
250.769
250.543
250.22
249.804
249.301
248.717
248.06
247.338
246.558
245.73
244.86
243.957
243.026
242.075
241.109
240.132
239.148
238.161
237.174
236.188
235.207
234.233
233.272
232.322
231.358
230.462
230.455
231.339
232.288
233.226
234.175
235.138
236.11
237.089
238.071
239.056
240.041
241.022
241.996
242.96
243.907
244.832
245.728
246.589
247.406
248.17
248.874
249.508
250.066
250.539
250.92
251.206
251.39
251.472
251.449
251.318
251.08
250.741
250.304
249.775
249.163
248.474
247.719
246.906
246.043
245.139
244.203
243.242
242.262
241.269
240.268
239.262
238.256
237.251
236.25
235.256
234.27
233.3
232.341
231.373
230.466
230.454
231.344
232.292
233.23
234.183
235.151
236.129
237.115
238.107
239.104
240.102
241.099
242.092
243.076
244.045
244.994
245.916
246.802
247.645
248.436
249.165
249.822
250.401
250.892
251.289
251.585
251.777
251.861
251.837
251.701
251.455
251.102
250.647
250.099
249.463
248.75
247.969
247.128
246.239
245.309
244.348
243.364
242.363
241.35
240.332
239.312
238.293
237.278
236.27
235.27
234.28
233.306
232.348
231.382
230.466
230.451
231.349
232.289
233.221
234.173
235.141
236.121
237.11
238.106
239.109
240.115
241.123
242.127
243.125
244.111
245.078
246.019
246.926
247.79
248.6
249.349
250.025
250.619
251.124
251.533
251.838
252.035
252.122
252.098
251.958
251.704
251.341
250.874
250.31
249.657
248.925
248.123
247.262
246.352
245.402
244.423
243.421
242.405
241.38
240.351
239.322
238.297
237.277
236.265
235.262
234.272
233.298
232.347
231.387
230.462
230.446
231.353
232.28
233.203
234.152
235.118
236.096
237.085
238.083
239.089
240.1
241.114
242.126
243.134
244.13
245.11
246.065
246.987
247.867
248.693
249.456
250.145
250.752
251.268
251.684
251.996
252.198
252.287
252.262
252.12
251.861
251.491
251.015
250.44
249.774
249.028
248.211
247.334
246.409
245.444
244.451
243.438
242.411
241.378
240.342
239.308
238.279
237.257
236.244
235.243
234.254
233.282
232.338
231.391
230.456
230.439
231.353
232.267
233.182
234.127
235.089
236.065
237.052
238.05
239.057
240.071
241.088
242.106
243.119
244.124
245.112
246.078
247.011
247.902
248.741
249.515
250.215
250.831
251.354
251.777
252.093
252.298
252.389
252.364
252.22
251.959
251.584
251.101
250.518
249.843
249.086
248.258
247.369
246.431
245.456
244.453
243.431
242.397
241.358
240.318
239.281
238.25
237.228
236.216
235.216
234.231
233.263
232.325
231.39
230.449
230.436
231.35
232.256
233.165
234.104
235.061
236.032
237.017
238.014
239.02
240.034
241.053
242.074
243.093
244.103
245.098
246.072
247.014
247.915
248.763
249.545
250.254
250.878
251.408
251.835
252.155
252.363
252.455
252.43
252.285
252.021
251.643
251.155
250.566
249.882
249.116
248.28
247.381
246.433
245.449
244.439
243.411
242.372
241.328
240.286
239.247
238.216
237.195
236.185
235.189
234.208
233.245
232.314
231.387
230.447
230.434
231.344
232.245
233.15
234.086
235.04
236.008
236.989
237.982
238.986
239.999
241.018
242.04
243.061
244.075
245.075
246.054
247.003
247.91
248.765
249.556
250.272
250.901
251.435
251.865
252.188
252.397
252.49
252.465
252.32
252.055
251.674
251.183
250.589
249.9
249.127
248.28
247.375
246.421
245.431
244.415
243.383
242.341
241.296
240.252
239.215
238.186
237.167
236.161
235.169
234.191
233.231
232.303
231.381
230.445
230.432
231.335
232.232
233.133
234.065
235.015
235.98
236.958
237.949
238.952
239.964
240.983
242.006
243.027
244.042
245.045
246.027
246.98
247.892
248.752
249.547
250.266
250.898
251.434
251.868
252.192
252.402
252.495
252.471
252.326
252.06
251.677
251.183
250.586
249.894
249.117
248.267
247.357
246.399
245.404
244.385
243.35
242.308
241.262
240.219
239.182
238.154
237.137
236.133
235.144
234.17
233.214
232.29
231.373
230.443
230.429
231.325
232.216
233.113
234.041
234.986
235.947
236.922
237.911
238.912
239.922
240.94
241.963
242.985
244.001
245.005
245.989
246.945
247.861
248.723
249.52
250.24
250.873
251.409
251.842
252.165
252.374
252.467
252.444
252.299
252.034
251.652
251.159
250.562
249.87
249.091
248.239
247.325
246.363
245.366
244.345
243.31
242.266
241.221
240.178
239.142
238.116
237.102
236.101
235.115
234.145
233.194
232.275
231.362
230.44
230.426
231.314
232.199
233.091
234.013
234.953
235.91
236.881
237.867
238.865
239.874
240.89
241.912
242.933
243.949
244.954
245.939
246.896
247.812
248.675
249.472
250.19
250.821
251.354
251.784
252.105
252.313
252.405
252.381
252.238
251.975
251.597
251.107
250.512
249.821
249.044
248.191
247.277
246.314
245.316
244.295
243.26
242.216
241.172
240.13
239.096
238.072
237.061
236.064
235.083
234.118
233.172
232.258
231.351
230.437
230.423
231.3
232.18
233.066
233.982
234.917
235.869
236.836
237.817
238.812
239.818
240.833
241.853
242.873
243.888
244.891
245.876
246.832
247.747
248.607
249.4
250.115
250.741
251.269
251.694
252.011
252.216
252.307
252.284
252.142
251.883
251.509
251.024
250.434
249.748
248.974
248.125
247.212
246.251
245.254
244.234
243.2
242.158
241.115
240.075
239.044
238.023
237.015
236.023
235.046
234.087
233.147
232.238
231.337
230.433
230.419
231.286
232.158
233.039
233.948
234.877
235.823
236.785
237.763
238.754
239.757
240.769
241.786
242.804
243.817
244.817
245.799
246.752
247.663
248.518
249.305
250.013
250.631
251.152
251.57
251.881
252.082
252.171
252.149
252.01
251.756
251.388
250.91
250.328
249.649
248.882
248.038
247.131
246.173
245.179
244.162
243.131
242.091
241.05
240.013
238.985
237.968
236.965
235.977
235.006
234.053
233.119
232.216
231.322
230.429
230.415
231.27
232.135
233.009
233.912
234.834
235.774
236.73
237.703
238.689
239.688
240.696
241.711
242.725
243.735
244.731
245.708
246.655
247.559
248.407
249.185
249.883
250.491
251.002
251.411
251.715
251.911
251.998
251.976
251.841
251.592
251.233
250.765
250.193
249.524
248.766
247.931
247.031
246.08
245.091
244.08
243.052
242.016
240.978
239.945
238.92
237.908
236.91
235.927
234.962
234.015
233.089
232.193
231.306
230.425
230.41
231.253
232.11
232.977
233.872
234.788
235.721
236.671
237.638
238.619
239.614
240.618
241.628
242.638
243.643
244.634
245.604
246.543
247.437
248.274
249.041
249.726
250.322
250.821
251.219
251.514
251.704
251.788
251.766
251.635
251.394
251.044
250.588
250.029
249.373
248.628
247.804
246.914
245.971
244.991
243.986
242.964
241.932
240.899
239.87
238.85
237.842
236.85
235.874
234.915
233.976
233.056
232.167
231.289
230.42
230.405
231.235
232.083
232.943
233.831
234.739
235.665
236.609
237.569
238.545
239.534
240.533
241.538
242.544
243.542
244.526
245.486
246.415
247.298
248.122
248.874
249.544
250.124
250.609
250.995
251.28
251.463
251.545
251.524
251.397
251.164
250.826
250.383
249.838
249.198
248.467
247.657
246.78
245.849
244.88
243.883
242.867
241.841
240.813
239.789
238.775
237.773
236.787
235.817
234.866
233.933
233.022
232.14
231.27
230.416
230.4
231.215
232.055
232.907
233.787
234.687
235.606
236.543
237.497
238.467
239.45
240.443
241.442
242.441
243.433
244.408
245.357
246.273
247.141
247.949
248.684
249.337
249.9
250.369
250.742
251.016
251.191
251.269
251.249
251.128
250.904
250.578
250.15
249.622
248.999
248.286
247.493
246.631
245.714
244.758
243.771
242.763
241.744
240.722
239.704
238.695
237.7
236.72
235.757
234.813
233.889
232.985
232.111
231.25
230.41
230.394
231.196
232.026
232.87
233.742
234.634
235.545
236.475
237.422
238.385
239.362
240.349
241.341
242.333
243.316
244.281
245.217
246.118
246.969
247.759
248.475
249.108
249.653
250.105
250.461
250.723
250.89
250.964
250.945
250.83
250.616
250.305
249.894
249.384
248.78
248.087
247.312
246.468
245.568
244.626
243.651
242.652
241.641
240.625
239.614
238.612
237.623
236.65
235.695
234.759
233.843
232.948
232.081
231.23
230.405
230.389
231.176
231.996
232.833
233.695
234.58
235.483
236.405
237.345
238.301
239.271
240.251
241.237
242.22
243.194
244.147
245.069
245.952
246.785
247.554
248.25
248.862
249.386
249.818
250.158
250.407
250.566
250.636
250.618
250.509
250.306
250.009
249.617
249.128
248.545
247.873
247.119
246.294
245.412
244.487
243.524
242.536
241.533
240.526
239.521
238.526
237.545
236.579
235.632
234.704
233.795
232.909
232.051
231.209
230.399
230.383
231.156
231.966
232.794
233.649
234.525
235.42
236.335
237.267
238.216
239.179
240.151
241.129
242.104
243.067
244.008
244.915
245.778
246.59
247.338
248.011
248.601
249.102
249.515
249.838
250.074
250.224
250.291
250.274
250.171
249.979
249.697
249.323
248.856
248.296
247.647
246.916
246.112
245.249
244.342
243.393
242.416
241.423
240.424
239.427
238.439
237.465
236.507
235.567
234.647
233.747
232.87
232.02
231.188
230.393
230.377
231.136
231.936
232.756
233.602
234.469
235.356
236.263
237.188
238.13
239.085
240.05
241.019
241.984
242.936
243.863
244.755
245.598
246.388
247.113
247.762
248.327
248.806
249.199
249.505
249.727
249.869
249.931
249.916
249.819
249.638
249.372
249.017
248.572
248.036
247.412
246.705
245.924
245.083
244.193
243.258
242.293
241.31
240.32
239.331
238.351
237.384
236.434
235.502
234.591
233.699
232.831
231.99
231.168
230.387
230.371
231.116
231.907
232.718
233.555
234.414
235.293
236.193
237.11
238.044
238.992
239.949
240.909
241.864
242.804
243.717
244.591
245.414
246.182
246.882
247.505
248.047
248.503
248.875
249.164
249.374
249.507
249.566
249.551
249.46
249.291
249.04
248.705
248.282
247.77
247.171
246.49
245.734
244.915
244.042
243.122
242.17
241.197
240.216
239.236
238.264
237.305
236.362
235.438
234.535
233.652
232.792
231.959
231.147
230.381
230.365
231.097
231.878
232.681
233.51
234.36
235.232
236.124
237.034
237.96
238.901
239.849
240.8
241.745
242.672
243.571
244.428
245.23
245.974
246.649
247.248
247.765
248.199
248.551
248.824
249.02
249.145
249.2
249.187
249.102
248.944
248.708
248.392
247.99
247.503
246.929
246.273
245.542
244.747
243.891
242.986
242.047
241.086
240.114
239.143
238.178
237.227
236.292
235.375
234.48
233.605
232.755
231.93
231.128
230.375
230.358
231.079
231.851
232.646
233.466
234.308
235.172
236.056
236.959
237.879
238.811
239.752
240.693
241.627
242.542
243.426
244.266
245.046
245.767
246.417
246.991
247.484
247.896
248.229
248.485
248.67
248.787
248.838
248.826
248.747
248.599
248.378
248.08
247.701
247.237
246.688
246.057
245.351
244.579
243.741
242.852
241.926
240.976
240.014
239.052
238.095
237.151
236.223
235.314
234.426
233.56
232.718
231.902
231.11
230.368
230.352
231.063
231.824
232.611
233.423
234.258
235.115
235.992
236.888
237.8
238.725
239.657
240.589
241.512
242.415
243.284
244.106
244.866
245.563
246.189
246.739
247.209
247.599
247.913
248.154
248.327
248.436
248.485
248.474
248.4
248.262
248.055
247.775
247.416
246.975
246.451
245.845
245.162
244.413
243.594
242.721
241.808
240.869
239.918
238.963
238.015
237.078
236.157
235.256
234.375
233.517
232.683
231.875
231.092
230.362
230.347
231.047
231.8
232.579
233.383
234.211
235.06
235.93
236.82
237.725
238.642
239.566
240.489
241.401
242.29
243.145
243.95
244.693
245.365
245.967
246.493
246.94
247.311
247.607
247.833
247.995
248.097
248.142
248.132
248.064
247.935
247.742
247.478
247.139
246.72
246.22
245.639
244.98
244.251
243.45
242.593
241.693
240.767
239.825
238.879
237.938
237.008
236.095
235.2
234.327
233.476
232.649
231.849
231.076
230.356
230.341
231.032
231.776
232.548
233.345
234.166
235.008
235.872
236.755
237.653
238.563
239.479
240.393
241.293
242.17
243.011
243.8
244.525
245.174
245.753
246.256
246.682
247.033
247.313
247.525
247.677
247.772
247.814
247.805
247.742
247.622
247.441
247.193
246.873
246.476
245.998
245.441
244.806
244.096
243.312
242.469
241.583
240.668
239.736
238.798
237.865
236.942
236.035
235.147
234.281
233.437
232.618
231.825
231.06
230.351
230.336
231.018
231.755
232.519
233.31
234.124
234.96
235.818
236.694
237.586
238.49
239.397
240.301
241.191
242.057
242.883
243.657
244.366
244.994
245.552
246.033
246.439
246.771
247.035
247.234
247.376
247.465
247.505
247.496
247.438
247.326
247.157
246.924
246.622
246.245
245.789
245.254
244.643
243.949
243.181
242.352
241.479
240.574
239.652
238.723
237.797
236.88
235.98
235.098
234.238
233.401
232.589
231.803
231.046
230.346
230.332
231.006
231.735
232.493
233.277
234.085
234.915
235.767
236.638
237.524
238.42
239.32
240.215
241.096
241.95
242.764
243.525
244.218
244.829
245.366
245.827
246.213
246.528
246.776
246.963
247.096
247.179
247.216
247.209
247.154
247.05
246.892
246.674
246.388
246.03
245.596
245.082
244.491
243.813
243.058
242.243
241.381
240.487
239.573
238.653
237.734
236.824
235.928
235.053
234.198
233.368
232.562
231.783
231.033
230.341
230.328
230.994
231.717
232.469
233.247
234.049
234.875
235.722
236.587
237.467
238.357
239.25
240.137
241.008
241.852
242.655
243.404
244.084
244.684
245.198
245.64
246.008
246.306
246.539
246.715
246.839
246.916
246.951
246.944
246.894
246.797
246.65
246.445
246.176
245.836
245.421
244.927
244.353
243.689
242.947
242.143
241.292
240.406
239.501
238.588
237.676
236.772
235.882
235.011
234.162
233.337
232.537
231.764
231.022
230.337
230.324
230.984
231.701
232.447
233.22
234.018
234.839
235.681
236.541
237.416
238.3
239.186
240.066
240.93
241.766
242.56
243.298
243.966
244.555
245.053
245.476
245.826
246.108
246.328
246.493
246.608
246.68
246.713
246.707
246.66
246.57
246.433
246.241
245.987
245.666
245.27
244.797
244.233
243.58
242.85
242.056
241.213
240.335
239.437
238.53
237.624
236.725
235.841
234.975
234.13
233.31
232.515
231.748
231.012
230.333
230.321
230.976
231.687
232.428
233.197
233.991
234.807
235.645
236.501
237.371
238.25
239.131
240.006
240.865
241.694
242.48
243.209
243.868
244.446
244.936
245.34
245.673
245.939
246.145
246.299
246.406
246.473
246.503
246.498
246.455
246.372
246.244
246.065
245.827
245.522
245.144
244.686
244.132
243.49
242.77
241.984
241.147
240.275
239.382
238.48
237.578
236.684
235.804
234.942
234.102
233.286
232.496
231.733
231.003
230.329
230.318
230.969
231.675
232.413
233.178
233.967
234.78
235.614
236.467
237.334
238.21
239.087
239.959
240.814
241.639
242.421
243.142
243.792
244.361
244.844
245.236
245.55
245.801
245.993
246.137
246.236
246.298
246.325
246.321
246.282
246.205
246.087
245.92
245.697
245.41
245.051
244.598
244.054
243.422
242.71
241.93
241.096
240.228
239.338
238.439
237.541
236.65
235.773
234.915
234.078
233.266
232.48
231.721
230.996
230.326
230.315
230.964
231.665
232.4
233.161
233.947
234.757
235.589
236.441
237.306
238.179
239.055
239.925
240.78
241.606
242.385
243.102
243.743
244.304
244.779
245.165
245.463
245.697
245.877
246.01
246.101
246.156
246.18
246.177
246.142
246.073
245.965
245.81
245.603
245.335
244.984
244.539
244.003
243.38
242.676
241.899
241.065
240.196
239.306
238.408
237.512
236.624
235.749
234.892
234.058
233.25
232.467
231.711
230.99
230.324
230.314
230.959
231.657
232.389
233.148