/*--------------------------------*- C++ -*----------------------------------*\
| =========                 |                                                 |
| \\      /  F ield         | OpenFOAM: The Open Source CFD Toolbox           |
|  \\    /   O peration     | Version:  2212                                  |
|   \\  /    A nd           | Website:  www.openfoam.com                      |
|    \\/     M anipulation  |                                                 |
\*---------------------------------------------------------------------------*/
FoamFile
{
    version     2.0;
    format      ascii;
    arch        "LSB;label=32;scalar=64";
    class       volScalarField;
    location    "0.0256";
    object      p;
}
// * * * * * * * * * * * * * * * * * * * * * * * * * * * * * * * * * * * * * //

dimensions      [1 -1 -2 0 0 0 0];

internalField   nonuniform List<scalar> 
2308
(
611.862
612.002
611.538
612.144
611.7
611.637
611.609
611.686
611.731
611.285
611.273
611.267
611.27
611.28
611.298
611.32
611.347
611.373
611.344
611.318
611.295
611.277
611.266
611.261
611.265
611.279
611.3
611.33
611.586
611.376
611.37
611.417
611.471
611.532
611.598
611.67
611.746
611.828
611.914
612.005
612.098
612.194
612.292
612.392
612.493
612.506
612.405
612.306
612.209
612.113
612.021
611.931
611.845
611.764
611.687
611.615
611.55
611.49
611.436
611.389
611.35
611.326
611.314
611.305
611.301
611.299
611.3
611.309
611.325
611.346
611.371
612.595
612.606
611.367
611.34
611.317
611.3
611.289
611.284
611.288
611.301
611.321
611.349
611.387
611.433
611.486
611.546
611.611
611.683
611.759
611.84
611.926
612.015
612.107
612.203
612.3
612.399
612.499
611.405
612.601
611.408
611.399
612.634
612.536
612.438
612.342
612.246
612.153
612.062
611.974
611.889
611.809
611.733
611.663
611.598
611.54
611.487
611.442
611.406
611.382
611.367
611.359
611.356
611.356
611.357
611.361
611.375
611.394
611.415
611.732
611.666
611.591
611.63
611.443
611.41
611.385
611.364
611.349
611.339
611.336
611.34
611.353
611.372
611.4
611.436
611.481
611.533
611.591
611.656
611.726
611.801
611.88
611.964
612.051
612.142
612.235
612.33
612.426
612.524
612.623
612.722
612.702
612.697
612.707
611.694
612.733
611.775
611.836
611.428
611.785
611.672
611.442
611.44
612.821
612.803
612.798
612.808
612.83
612.865
612.772
612.677
612.583
612.489
612.396
612.304
612.214
612.126
612.041
611.959
611.881
611.807
611.739
611.676
611.619
611.567
611.524
611.489
611.463
611.447
611.438
611.434
611.434
611.435
611.437
611.446
611.461
611.479
611.524
611.868
611.673
611.718
611.685
611.647
611.609
611.571
611.535
611.502
611.474
611.452
611.435
611.423
611.416
611.415
611.42
611.433
611.453
611.48
611.516
611.559
611.61
611.667
611.73
611.798
611.87
611.947
612.028
612.112
612.199
612.288
612.38
612.473
612.567
612.662
612.757
612.852
611.361
611.777
611.828
612.296
611.627
611.811
611.464
611.495
612.912
612.823
612.734
612.645
612.556
612.468
612.381
612.295
612.211
612.129
612.051
611.976
611.906
611.84
611.779
611.723
611.674
611.631
611.596
611.57
611.552
611.54
611.534
611.532
611.533
611.534
611.537
611.547
611.56
611.497
611.791
611.883
611.753
611.727
611.697
611.666
611.634
611.605
611.579
611.558
611.541
611.529
611.52
611.517
611.519
611.527
611.541
611.561
611.588
611.623
611.665
611.714
611.769
611.83
611.895
611.964
612.038
612.115
612.195
612.277
612.362
612.449
612.537
612.626
612.716
612.806
612.896
612.985
612.947
612.919
612.903
612.899
612.907
612.927
612.958
612.999
611.809
611.578
611.496
611.813
611.869
611.585
611.572
611.517
611.816
611.821
611.873
611.64
611.797
611.78
611.758
611.735
611.713
611.692
611.674
611.659
611.649
611.642
611.639
611.64
611.645
611.656
611.671
611.693
611.72
611.754
611.795
611.842
611.895
611.952
612.014
612.079
612.149
612.221
612.296
612.373
612.453
612.534
612.616
612.699
612.782
612.866
612.95
613.034
613.116
613.074
613.039
613.015
613.001
612.997
613.004
613.021
613.049
613.085
613.129
613.049
612.968
612.885
612.803
612.72
612.637
612.555
612.473
612.392
612.313
612.237
612.162
612.092
612.025
611.962
611.904
611.85
611.803
611.761
611.726
611.699
611.678
611.664
611.655
611.65
611.649
611.648
611.649
611.651
611.655
611.807
611.585
611.538
611.566
611.837
611.844
611.839
611.841
611.914
611.81
611.853
611.849
611.84
611.828
611.815
611.803
611.792
611.783
611.777
611.773
611.773
611.775
611.781
611.791
611.804
611.821
611.844
611.872
611.905
611.944
611.989
612.038
612.092
612.15
612.211
612.276
612.343
612.412
612.484
612.557
612.631
612.706
612.782
612.859
612.936
613.013
613.09
613.166
613.241
613.197
613.16
613.13
613.109
613.096
613.093
613.099
613.114
613.137
613.169
613.207
613.252
613.18
613.106
613.031
612.956
612.88
612.804
612.728
612.653
612.577
612.503
612.43
612.359
612.289
612.223
612.16
612.101
612.046
611.995
611.95
611.909
611.874
611.846
611.824
611.806
611.794
611.785
611.779
611.775
611.772
611.769
611.767
611.662
611.83
611.824
611.292
611.666
611.87
611.862
611.858
611.567
611.652
611.538
611.599
611.853
611.857
613.314
613.276
613.243
613.217
613.199
613.188
613.185
613.19
613.203
613.223
613.25
613.283
613.322
613.365
613.301
613.235
613.168
613.101
613.032
612.964
612.896
612.827
612.759
612.691
612.623
612.556
612.491
612.428
612.366
612.308
612.253
612.201
612.154
612.11
612.071
612.037
612.007
611.983
611.963
611.947
611.935
611.923
611.913
611.904
611.896
611.887
611.764
611.708
611.848
612.187
611.53
611.904
611.905
611.904
611.903
611.901
611.901
611.902
611.905
611.91
611.916
611.925
611.936
611.95
611.966
611.986
612.009
612.037
612.07
612.107
612.149
612.195
612.245
612.299
612.356
612.415
612.476
612.539
612.604
612.67
612.737
612.805
612.874
612.943
613.013
613.083
613.152
613.222
613.29
613.357
611.84
611.843
611.398
611.618
611.859
611.671
613.41
613.353
613.293
613.234
613.173
613.113
613.052
612.991
612.931
612.87
612.809
612.749
612.689
612.63
612.573
612.517
612.463
612.412
612.364
612.32
612.279
612.241
612.208
612.178
612.152
612.129
612.11
612.093
612.076
612.06
612.044
612.028
612.012
611.875
611.691
611.86
613.422
613.384
613.351
613.323
613.301
613.285
613.276
613.273
613.277
613.287
613.304
613.327
613.356
613.389
613.426
613.467
611.744
611.867
611.869
611.876
611.89
611.615
611.675
612.007
612.213
611.957
611.972
611.984
611.995
612.006
612.017
612.028
612.041
612.054
612.068
612.083
612.1
612.118
612.138
612.159
612.184
612.212
612.243
612.279
612.318
612.36
612.406
612.455
612.507
612.561
612.616
612.673
612.731
612.79
612.849
612.909
612.97
613.032
613.094
613.156
613.218
613.281
613.343
613.403
613.462
611.439
611.758
611.627
611.853
611.857
611.855
611.653
611.409
611.355
611.598
611.679
611.996
611.577
611.788
612.124
611.467
613.508
613.458
613.406
613.353
613.3
613.247
613.194
613.141
613.088
613.035
612.982
612.929
612.876
612.823
612.771
612.719
612.669
612.62
612.574
612.53
612.488
612.45
612.414
612.381
612.351
612.324
612.299
612.277
612.254
612.232
612.21
612.187
612.163
612.138
612.115
611.732
611.858
611.851
613.519
613.483
613.451
613.422
613.398
613.379
613.366
613.358
613.356
613.359
613.367
613.381
613.4
613.424
613.453
613.485
613.52
613.557
611.637
611.867
611.873
611.883
611.9
611.925
611.567
611.874
611.996
612.02
612.044
612.067
612.09
612.112
612.135
612.157
612.179
612.201
612.223
612.245
612.267
612.289
612.312
612.336
612.361
612.389
612.419
612.452
612.489
612.528
612.57
612.614
612.66
612.708
612.757
612.808
612.859
612.91
612.962
613.015
613.068
613.122
613.176
613.231
613.286
613.341
613.397
613.451
613.505
613.556
611.776
611.858
611.856
611.844
611.854
611.863
611.75
611.865
611.864
611.866
611.455
611.849
611.621
611.549
612.202
611.723
611.398
611.441
612.237
612.266
612.297
612.328
612.359
612.387
612.414
612.441
612.466
612.493
612.522
612.552
612.584
612.618
612.653
612.691
612.732
612.774
612.817
612.862
612.908
612.954
613
613.046
613.092
613.137
613.183
613.228
613.274
613.32
613.366
613.412
613.459
613.505
613.55
613.595
611.482
613.605
613.572
613.541
613.513
613.488
613.468
613.452
613.441
613.434
613.432
613.434
613.441
613.452
613.468
613.488
613.512
613.54
613.571
613.604
613.637
611.768
611.964
611.836
611.362
611.364
611.358
611.356
611.354
611.396
611.439
611.483
612.259
611.517
611.858
611.827
611.84
611.858
611.864
611.869
611.75
611.806
611.407
611.863
611.871
611.884
611.903
611.927
611.962
611.976
612.022
612.051
612.083
612.117
612.151
612.185
612.218
612.252
612.284
612.316
612.346
612.375
612.404
612.431
612.457
612.483
612.509
612.535
612.562
612.591
612.623
612.656
612.692
612.73
612.769
612.81
612.852
612.895
612.939
612.984
613.028
613.073
613.118
613.164
613.21
613.257
613.304
613.353
613.401
613.45
613.499
613.547
613.594
613.639
611.864
611.866
611.872
611.616
611.868
611.838
611.586
611.881
611.542
611.872
611.872
611.871
611.869
611.868
611.866
611.483
611.868
611.508
611.487
611.869
611.863
611.853
611.439
611.393
611.35
612.343
612.385
612.425
612.463
612.499
612.534
612.566
612.596
612.625
612.654
612.683
612.713
612.744
612.776
612.809
612.844
612.88
612.918
612.957
612.997
613.037
613.077
613.117
613.156
613.195
613.233
613.272
613.31
613.349
613.388
613.428
613.468
613.509
613.55
613.591
613.631
613.67
611.923
611.899
611.881
611.866
611.854
611.845
611.649
611.762
612.061
611.853
611.871
611.528
611.527
611.86
611.87
611.486
611.563
611.56
611.738
611.803
611.318
611.467
611.412
611.834
613.68
613.65
613.62
613.593
613.569
613.548
613.531
613.518
613.508
613.503
613.501
613.502
613.507
613.516
613.529
613.546
613.566
613.59
613.617
613.646
613.676
613.706
611.32
611.321
611.316
611.315
611.313
611.309
611.489
611.926
611.831
611.881
611.894
612.194
611.556
611.565
611.875
611.571
611.84
611.872
611.594
611.822
611.701
611.315
611.874
612.016
612.04
612.071
612.106
612.146
612.188
612.232
612.276
612.32
612.363
612.404
612.445
612.483
612.52
612.554
612.586
612.616
612.644
612.672
612.699
612.726
612.754
612.783
612.814
612.847
612.88
612.915
612.951
612.988
613.025
613.063
613.101
613.139
613.177
613.215
613.254
613.293
613.333
613.374
613.415
613.458
613.501
613.545
613.588
613.631
613.672
613.71
611.344
611.736
611.595
611.865
611.529
611.866
611.4
611.979
611.646
611.52
611.803
611.901
611.944
611.918
611.895
611.875
611.858
611.844
611.831
611.817
611.822
611.801
612.139
611.885
612.222
611.984
612.338
612.396
612.444
612.493
612.54
612.585
612.627
612.667
612.703
612.737
612.768
612.799
612.828
612.858
612.888
612.918
612.95
612.982
613.015
613.049
613.083
613.118
613.153
613.188
613.222
613.255
613.288
613.32
613.352
613.384
613.416
613.449
613.483
613.518
613.554
613.591
613.628
613.665
613.701
613.735
611.435
611.388
611.345
611.306
611.529
611.507
611.876
611.862
611.843
611.769
611.812
611.791
611.456
611.972
612.143
612.009
611.853
611.877
611.913
611.984
611.572
611.574
611.84
611.874
611.512
611.631
611.715
611.683
611.727
611.85
611.87
611.647
611.811
611.804
612.07
611.904
611.7
611.666
611.636
611.953
611.947
611.278
611.28
611.279
611.278
611.274
611.274
611.273
611.273
611.274
611.832
611.896
611.873
611.874
611.601
611.64
612.086
612.044
612.076
612.114
612.157
612.204
612.254
612.307
612.36
612.412
612.464
612.514
612.562
612.608
612.65
612.689
612.726
612.759
612.79
612.819
612.846
612.873
612.901
612.929
612.957
612.986
613.017
613.047
613.079
613.111
613.143
613.175
613.207
613.238
613.27
613.302
613.334
613.367
613.401
613.436
613.472
613.509
613.547
613.586
613.626
613.665
613.703
613.739
613.772
613.745
613.718
613.69
613.664
613.64
613.619
613.601
613.587
613.576
613.568
613.563
613.561
613.562
613.566
613.573
613.583
613.597
613.614
613.635
613.659
613.685
613.712
613.739
613.766
611.894
611.612
611.781
611.802
611.827
611.982
611.276
611.351
611.543
611.751
611.941
611.914
611.89
611.868
611.85
611.834
611.818
611.801
611.782
611.758
611.705
611.757
611.732
612.082
611.868
611.942
611.576
611.853
611.49
611.662
611.729
611.76
611.862
611.696
611.803
611.68
612.021
611.769
611.795
611.815
611.834
611.853
611.869
611.903
611.956
611.311
611.971
611.481
611.43
611.381
611.338
611.301
611.275
611.84
611.872
611.909
611.868
611.268
611.263
611.258
611.252
611.247
611.243
611.241
611.242
611.244
611.248
611.254
611.262
611.669
611.65
612.06
611.868
611.559
611.689
611.749
612.018
612.061
612.103
612.15
612.2
612.254
612.311
612.371
612.431
612.492
612.551
612.608
612.663
612.714
612.762
612.805
612.845
612.881
612.914
612.944
612.972
613
613.026
613.053
613.079
613.106
613.133
613.16
613.188
613.215
613.243
613.27
613.297
613.323
613.35
613.376
613.403
613.43
613.459
613.489
613.52
613.553
613.587
613.622
613.658
613.695
613.73
613.764
613.795
613.823
613.801
613.776
613.75
613.725
613.701
613.68
613.661
613.646
613.634
613.625
613.619
613.615
613.613
613.613
613.616
613.621
613.629
613.641
613.655
613.673
613.694
613.717
613.743
613.768
613.793
613.815
613.789
613.759
613.727
613.694
613.66
613.626
613.593
613.561
613.531
613.502
613.474
613.446
613.42
613.393
613.367
613.339
613.311
613.282
613.252
613.222
613.191
613.16
613.13
613.099
613.07
613.04
613.011
612.982
612.952
612.922
612.891
612.857
612.821
612.781
612.737
612.69
612.639
612.585
612.529
612.47
612.399
612.348
612.282
612.232
611.744
612.078
612.001
612.044
611.997
611.758
611.951
611.867
611.673
611.966
612.087
611.889
611.857
611.978
611.914
611.623
611.617
611.82
611.718
611.778
611.808
611.752
611.866
611.841
611.66
611.749
611.718
611.852
611.706
611.855
611.783
611.75
611.848
611.835
611.624
611.941
611.876
612.03
611.705
611.736
611.763
611.786
611.806
611.825
611.843
611.863
611.885
611.911
611.942
611.857
612.029
611.707
611.918
611.893
611.867
611.846
611.826
611.805
611.781
611.753
612.035
611.865
611.545
611.5
611.448
611.395
611.608
611.698
611.87
611.784
612.008
611.696
612.162
611.481
611.427
611.375
611.33
611.295
611.276
611.276
611.893
611.942
612.051
612.114
612.153
612.219
612.28
612.336
612.401
612.464
612.531
612.596
612.658
612.717
612.772
612.824
612.871
612.913
612.952
612.987
613.02
613.05
613.08
613.109
613.137
613.165
613.193
613.221
613.249
613.277
613.304
613.331
613.357
613.382
613.406
613.429
613.451
613.473
613.496
613.518
613.542
613.568
613.595
613.624
613.654
613.685
613.717
613.749
613.779
613.808
613.833
611.827
611.857
613.846
613.824
613.801
613.777
613.753
613.732
613.712
613.696
613.683
613.673
613.665
613.66
613.657
613.655
613.655
613.657
613.66
613.667
613.676
613.688
613.704
613.723
613.744
613.768
613.792
613.815
613.836
613.854
611.651
611.263
611.24
611.226
611.216
611.207
611.201
611.199
611.2
611.205
611.214
611.226
611.245
611.27
611.306
611.286
611.269
611.286
611.982
612.028
612.076
612.124
612.177
612.233
612.293
612.356
612.421
612.488
612.555
612.62
612.683
612.742
612.798
612.85
612.897
612.939
612.978
613.012
613.043
613.072
613.099
613.126
613.151
613.176
613.201
613.226
613.25
613.274
613.298
613.322
613.345
613.368
613.39
613.412
613.434
613.457
613.48
613.504
613.53
613.558
613.587
613.618
613.65
613.684
613.718
613.752
613.784
613.814
613.841
613.864
611.736
611.798
611.672
611.664
611.966
611.907
611.93
612.031
611.831
611.855
611.965
611.839
611.71
611.949
611.916
611.889
611.865
611.842
611.82
611.797
611.769
611.736
611.383
611.414
611.602
611.568
611.497
611.438
611.933
611.675
611.708
611.744
611.773
611.797
611.818
611.838
611.859
611.882
611.907
611.982
611.892
611.932
611.674
611.816
611.77
611.808
611.844
611.991
612.036
612.084
612.134
612.187
612.246
612.309
612.372
612.439
612.507
612.576
612.644
612.709
612.771
612.829
612.883
612.932
612.977
613.017
613.053
613.087
613.118
613.148
613.177
613.204
613.231
613.258
613.285
613.311
613.337
613.362
613.386
613.409
613.431
613.452
613.472
613.491
613.51
613.529
613.549
613.57
613.593
613.618
613.644
613.672
613.702
613.733
613.764
613.793
613.821
613.846
613.866
611.525
611.482
611.427
611.365
611.317
611.285
611.273
611.296
611.288
611.984
611.711
611.839
611.754
611.722
611.947
611.9
611.289
611.281
611.273
611.29
611.762
611.659
611.185
611.135
611.093
611.063
611.041
611.027
611.02
611.019
611.025
611.036
611.055
611.085
611.13
611.198
611.296
611.538
613.88
613.863
613.842
613.819
613.796
613.774
613.754
613.736
613.721
613.71
613.701
613.695
613.69
613.687
613.686
613.686
613.687
613.689
613.694
613.702
613.712
613.726
613.744
613.764
613.786
613.809
613.831
613.852
613.869
613.882
612.002
612.042
612.089
612.14
612.196
612.256
612.32
612.387
612.457
612.528
612.598
612.668
612.734
612.797
612.856
612.911
612.96
613.004
613.044
613.08
613.112
613.141
613.169
613.195
613.22
613.244
613.268
613.291
613.313
613.335
613.356
613.377
613.398
613.417
613.437
613.455
613.474
613.494
613.514
613.535
613.558
613.583
613.61
613.639
613.669
613.701
613.734
613.767
613.799
613.828
613.854
613.876
613.893
611.828
611.789
611.723
611.916
611.941
613.873
613.852
611.92
611.935
613.889
613.861
613.891
613.878
613.818
613.84
613.775
613.796
613.74
613.756
613.718
613.727
613.708
613.712
613.705
613.706
613.707
613.706
613.713
613.71
613.727
613.719
613.751
613.737
613.787
613.767
613.83
613.808
613.873
613.852
613.883
613.9
613.903
613.89
613.835
613.861
613.774
613.806
613.71
613.742
613.649
613.679
613.596
613.621
613.551
613.572
613.513
613.531
613.478
613.495
613.443
613.461
613.406
613.425
613.366
613.386
613.324
613.345
613.279
613.302
613.231
613.256
613.177
613.205
613.115
613.148
613.038
613.079
612.942
612.993
612.826
612.887
612.693
612.761
612.548
612.621
612.403
612.475
612.267
612.333
612.149
612.206
612.049
612.097
611.97
612.007
611.909
611.937
611.859
611.883
611.815
611.837
611.764
611.791
611.692
611.732
611.616
611.636
611.482
611.533
611.358
611.431
611.269
611.31
611.345
611.264
611.625
611.417
611.474
611.312
611.345
611.271
611.294
611.262
611.268
611.266
611.263
611.292
611.276
611.352
611.315
611.372
611.412
611.386
611.281
611.601
611.81
611.407
611.585
611.268
611.295
611.328
611.269
611.436
611.345
611.543
611.485
611.642
611.592
611.728
611.688
611.793
611.764
611.84
611.818
611.887
611.863
611.94
611.912
612.009
611.973
612.095
612.05
612.2
612.146
612.323
612.259
612.459
612.39
612.6
612.529
612.736
612.669
612.859
612.8
612.964
612.914
613.051
613.01
613.122
613.088
613.183
613.154
613.239
613.212
613.292
613.266
613.343
613.318
613.392
613.368
613.437
613.415
613.477
613.457
613.512
613.495
613.546
613.529
613.584
613.565
613.629
613.606
613.682
613.654
613.741
613.711
613.8
613.771
613.828
611.638
611.812
611.767
611.754
613.898
611.814
613.911
611.471
611.915
611.955
611.951
611.981
611.983
611.995
611.994
611.695
611.715
611.768
611.807
611.806
611.484
611.482
611.453
611.781
611.73
611.755
611.803
611.761
611.781
611.823
611.789
611.805
611.84
611.814
611.827
611.69
611.926
611.828
611.944
611.291
611.835
611.856
611.723
611.855
611.847
612.113
611.529
611.385
611.685
612.199
611.522
612.027
611.346
612.084
611.358
612.126
611.78
611.6
611.579
611.441
611.519
611.855
611.659
611.594
611.684
611.805
611.849
611.437
611.867
611.965
611.972
611.734
611.277
611.523
611.882
611.414
612.285
612.116
612.277
611.893
611.436
611.507
612
611.869
611.691
611.274
611.303
611.961
)
;

boundaryField
{
    wall
    {
        type            zeroGradient;
    }
    outlet
    {
        type            inletOutlet;
        inletValue      uniform 1e-05;
        value           nonuniform List<scalar> 
33
(
613.861
613.891
613.878
613.818
613.84
613.775
613.796
613.74
613.756
613.718
613.727
613.708
613.712
613.705
613.706
613.707
613.706
613.713
613.71
613.727
613.719
613.751
613.737
613.787
613.767
613.83
613.808
613.873
613.852
613.903
613.89
613.898
613.911
)
;
    }
    inlet
    {
        type            fixedValue;
        value           uniform 612;
    }
    frontAndBackPlanes
    {
        type            empty;
    }
}


// ************************************************************************* //
