/*--------------------------------*- C++ -*----------------------------------*\
| =========                 |                                                 |
| \\      /  F ield         | OpenFOAM: The Open Source CFD Toolbox           |
|  \\    /   O peration     | Version:  2212                                  |
|   \\  /    A nd           | Website:  www.openfoam.com                      |
|    \\/     M anipulation  |                                                 |
\*---------------------------------------------------------------------------*/
FoamFile
{
    version     2.0;
    format      ascii;
    arch        "LSB;label=32;scalar=64";
    class       volScalarField;
    location    "0.00122";
    object      p;
}
// * * * * * * * * * * * * * * * * * * * * * * * * * * * * * * * * * * * * * //

dimensions      [1 -1 -2 0 0 0 0];

internalField   nonuniform List<scalar> 
2681
(
190.662
194.609
194.687
190.456
195.559
194.794
190.447
190.455
190.456
190.459
190.453
190.477
190.473
190.533
190.486
190.488
190.509
190.456
190.46
190.463
190.464
190.472
190.468
190.465
190.482
190.478
190.455
190.452
190.453
190.461
190.458
190.463
190.462
190.467
190.463
190.469
190.469
190.473
190.481
190.481
190.481
190.469
190.473
190.466
190.467
194.71
190.463
190.455
190.451
190.453
190.454
190.484
190.5
190.456
190.454
190.469
190.472
190.453
190.451
190.452
190.451
190.462
190.458
190.465
190.464
190.471
190.466
190.484
190.477
190.45
190.489
190.478
190.483
190.471
190.473
190.481
190.454
190.527
195.331
190.453
190.452
190.453
190.459
190.456
190.461
190.46
190.466
190.463
190.468
190.475
190.476
190.466
190.47
190.463
190.464
190.457
190.46
190.454
190.455
190.453
190.453
190.452
190.476
190.489
190.488
190.486
190.452
190.451
190.45
190.493
190.498
190.494
190.493
190.472
190.476
190.473
190.453
190.451
190.452
190.485
190.53
190.492
196.567
190.477
190.484
190.483
190.45
194.713
190.451
190.609
190.536
190.456
190.454
190.464
190.459
190.466
190.467
190.475
190.468
190.489
190.483
190.49
190.481
190.486
190.475
190.476
190.517
190.453
192.789
190.456
190.455
190.452
190.449
190.45
190.453
190.452
190.457
190.455
190.459
190.458
190.463
190.46
190.467
190.465
190.471
190.469
190.537
190.473
190.468
190.47
190.461
190.464
190.46
190.461
190.456
190.458
190.454
190.455
190.452
190.45
190.45
190.45
190.451
190.446
190.452
190.452
190.503
190.508
190.518
190.49
190.479
190.487
190.449
190.479
190.473
190.454
190.452
190.501
190.5
190.449
190.449
250.604
240.626
240.636
250.612
190.449
190.449
190.448
190.477
190.519
190.446
190.451
190.715
194.81
195.304
190.486
190.483
194.35
190.45
190.561
190.454
190.453
190.456
190.455
190.464
190.46
190.469
190.467
190.479
190.473
190.491
190.485
190.497
190.495
190.505
190.489
190.494
190.479
190.484
190.47
190.476
190.462
190.464
190.457
190.459
190.455
232.764
226.424
221.225
216.908
213.288
210.223
207.61
205.372
203.439
201.766
201.766
200.31
199.068
199.07
200.311
205.365
203.434
210.217
207.604
216.91
213.284
226.433
221.232
232.773
190.45
190.449
190.453
190.451
190.455
190.454
190.457
190.456
190.461
190.459
190.465
190.463
190.468
190.466
190.695
190.471
190.476
190.472
190.478
190.48
190.476
190.469
190.469
190.464
190.466
190.459
190.461
190.458
190.458
190.455
190.457
190.453
190.454
190.451
190.452
190.45
190.449
190.449
190.45
190.45
190.451
190.451
190.656
190.782
190.494
190.483
190.482
190.491
190.448
190.539
263.739
263.751
190.448
191.185
201.803
200.358
190.508
196.551
190.483
190.505
190.45
190.451
263.752
282.284
282.302
190.448
190.447
190.448
190.447
198.03
197.984
190.479
190.482
190.523
190.517
190.478
190.48
194.757
190.543
190.559
190.448
190.452
190.45
190.45
190.489
190.486
190.449
190.449
190.449
190.449
190.449
190.45
190.455
190.453
190.458
190.456
190.463
190.46
190.471
190.467
190.482
190.477
190.493
190.487
190.507
190.5
190.52
190.522
190.533
190.518
190.531
190.493
190.503
190.48
190.486
190.469
190.474
190.463
190.465
190.458
190.46
190.454
190.456
190.453
240.627
250.609
226.419
232.762
216.903
221.22
210.227
213.284
205.389
207.622
203.465
263.773
282.323
282.296
197.113
197.065
190.871
199.176
198.125
201.83
200.411
205.367
203.456
210.212
207.599
216.908
213.281
226.436
221.23
240.647
232.782
250.629
190.45
190.449
190.452
190.451
190.454
190.453
190.456
190.455
190.459
190.458
190.463
190.461
190.465
190.464
190.472
190.468
190.474
190.474
190.481
190.476
190.475
190.482
190.478
190.482
190.477
190.477
190.474
190.477
190.471
190.473
190.465
190.467
190.462
190.464
190.459
190.46
190.457
190.458
190.454
190.456
190.452
190.453
190.45
190.451
190.449
190.448
190.448
190.449
190.449
190.45
194.43
190.645
199.111
190.498
190.486
190.487
190.495
190.452
193.933
190.541
190.486
263.79
282.365
190.449
190.713
190.448
190.448
190.447
190.447
190.452
190.451
197.14
190.552
190.583
194.162
190.447
201.849
200.417
190.581
190.62
190.612
190.487
190.513
190.51
190.487
190.55
263.806
282.383
190.705
194.67
195.126
190.573
190.524
190.485
190.477
190.482
190.478
190.482
190.485
190.526
190.569
198.003
190.447
190.544
190.655
190.491
190.491
190.448
190.448
190.448
190.448
190.449
190.449
190.45
190.45
190.45
190.452
190.451
190.455
190.454
190.459
190.457
190.464
190.462
190.473
190.468
190.484
190.479
190.497
190.49
190.518
190.506
190.549
190.535
190.564
190.533
190.538
190.515
190.529
190.49
190.499
190.478
190.484
190.469
190.473
190.463
190.466
190.459
190.461
190.455
190.456
190.453
240.641
250.632
226.425
232.77
216.909
221.225
210.237
213.292
205.415
207.639
203.502
317.278
317.347
317.292
190.485
317.434
317.326
196.059
195.563
197.363
196.653
199.279
198.235
201.886
200.482
205.398
203.507
210.214
207.61
216.906
213.281
226.435
221.228
240.658
232.784
250.649
190.447
190.446
190.447
190.448
190.448
190.449
190.448
190.451
190.451
190.453
190.452
190.455
190.454
190.458
190.457
190.461
190.459
190.463
190.462
190.467
190.464
190.47
190.47
190.471
190.47
190.477
190.473
190.472
190.472
190.473
190.48
190.474
190.473
190.472
190.473
190.475
190.474
190.47
190.473
190.468
190.47
190.462
190.464
190.461
190.462
190.458
190.46
190.456
190.457
190.453
190.454
190.451
190.452
190.449
190.45
190.447
190.448
190.447
190.446
190.447
190.447
190.447
190.447
190.448
190.447
190.449
190.448
190.449
190.449
190.45
190.45
194.182
196.377
190.475
190.652
199.178
190.848
190.621
190.666
190.656
190.644
190.491
190.505
190.479
190.476
190.502
190.493
190.569
190.591
190.621
190.446
190.655
190.571
190.528
317.455
194.622
195.043
190.446
190.446
190.446
194.464
190.598
190.518
190.492
190.483
190.485
190.49
190.518
190.544
190.448
190.449
197.022
190.703
192.065
194.285
190.487
190.65
195.081
194.928
190.562
196.154
190.53
190.488
190.485
190.535
190.449
190.45
190.449
342.818
317.56
342.848
198.095
190.447
190.544
190.574
190.633
190.466
190.47
190.497
190.478
190.498
190.588
190.447
190.447
190.447
190.447
190.448
190.447
190.449
190.448
190.449
190.45
190.453
190.452
190.455
190.454
190.46
190.458
190.466
190.463
190.475
190.47
190.487
190.481
190.502
190.494
190.527
190.512
190.567
190.546
190.575
190.651
190.543
190.501
190.516
190.482
190.49
190.473
190.477
190.467
190.47
190.463
190.465
190.459
190.461
190.455
190.457
190.452
190.453
190.451
263.825
282.426
240.654
250.654
226.429
232.778
216.911
221.227
210.245
213.297
205.436
207.652
201.894
203.534
199.257
200.478
342.785
317.572
342.844
342.815
342.765
342.771
342.785
196.048
195.492
197.398
196.688
199.316
198.283
201.903
200.505
205.416
203.523
210.223
207.629
216.9
213.279
226.429
221.221
240.659
232.781
263.832
250.66
282.434
190.447
190.447
190.448
190.448
190.449
190.448
190.45
190.45
190.452
190.451
190.454
190.453
190.456
190.455
190.459
190.458
190.461
190.46
190.464
190.462
190.467
190.466
190.468
190.467
190.469
190.469
190.469
190.469
190.47
190.469
190.468
190.469
190.47
190.471
190.467
190.468
190.465
190.467
190.461
190.462
190.46
190.461
190.457
190.458
190.454
190.456
190.452
190.453
190.45
190.451
190.449
190.45
190.447
190.448
190.447
190.446
190.446
190.446
190.447
190.447
190.448
190.448
190.449
190.448
190.449
190.447
192.573
193.738
190.446
190.634
190.608
190.641
190.513
190.498
190.482
190.486
190.497
190.509
190.56
190.468
190.449
190.618
190.721
194.533
190.611
196.186
190.446
190.697
190.619
317.66
342.865
193.997
195.004
190.488
194.27
190.641
190.578
195.374
195.576
190.524
190.494
190.489
190.489
190.491
190.528
190.545
190.446
190.446
190.45
190.45
190.448
190.449
317.666
342.875
347.373
347.372
190.705
197.123
190.446
190.446
198.207
190.452
190.551
190.447
190.622
190.47
190.506
190.484
190.503
190.572
190.446
190.446
190.447
190.446
190.447
190.447
190.448
190.448
190.447
190.448
190.449
190.448
190.449
190.45
190.449
190.453
190.451
190.456
190.454
190.461
190.459
190.467
190.464
190.477
190.472
190.489
190.482
190.507
190.498
190.534
190.519
190.576
190.553
190.599
190.693
190.538
190.565
190.496
190.515
190.477
190.484
190.469
190.473
190.465
190.467
190.462
190.463
190.458
190.46
190.455
190.456
190.452
190.453
190.451
263.855
282.476
240.665
250.671
226.436
232.785
216.922
221.235
210.259
213.308
205.459
207.669
201.933
203.563
199.323
200.529
347.359
347.366
347.366
347.358
347.36
347.363
195.99
195.374
197.399
196.64
199.334
198.3
201.919
200.529
205.424
203.536
210.223
207.632
216.895
213.279
226.42
221.213
240.653
232.772
263.844
250.66
282.465
195.828
190.447
190.446
190.447
190.447
190.448
190.447
190.449
190.449
190.451
190.45
190.453
190.452
190.455
190.454
190.457
190.456
190.46
190.459
190.461
190.461
190.464
190.463
190.465
190.464
190.466
190.466
190.466
190.466
190.466
190.466
190.465
190.466
190.466
190.467
190.464
190.464
190.462
190.464
190.46
190.461
190.458
190.459
190.456
190.457
190.453
190.454
190.451
190.452
190.45
190.451
190.449
190.449
190.448
190.449
190.447
190.447
190.446
190.446
190.446
190.447
190.446
190.447
190.447
190.448
190.448
190.448
190.77
190.784
347.363
193.763
193.842
194.154
190.689
190.637
190.489
193.977
190.623
190.589
190.632
195.754
190.878
195.312
190.517
190.501
190.487
190.494
190.499
190.518
190.551
190.464
190.445
190.448
190.448
190.647
194.471
190.688
190.651
190.449
347.372
190.717
190.688
196.236
190.446
190.743
197.29
198.288
190.495
194.232
190.629
190.563
190.748
190.529
190.494
190.537
347.283
347.279
193.561
190.545
190.986
190.449
190.495
193.582
193.762
190.603
190.461
190.803
192.729
190.509
190.489
190.507
190.558
190.446
190.446
190.446
190.446
190.446
190.446
190.446
190.447
190.447
190.448
190.447
190.448
190.448
190.448
190.45
190.449
190.451
190.451
190.453
190.452
190.457
190.455
190.462
190.459
190.469
190.465
190.479
190.473
190.493
190.485
190.513
190.502
190.544
190.528
190.579
190.562
190.605
190.723
190.58
190.61
190.53
190.553
190.496
190.511
190.479
190.486
190.47
190.473
190.464
190.466
190.459
190.461
190.456
190.457
190.453
190.454
190.451
190.452
190.45
190.45
317.698
347.34
342.844
263.857
282.488
240.66
250.668
226.434
232.781
216.926
221.236
210.27
213.316
205.476
207.683
201.963
203.586
199.366
200.566
190.752
347.282
347.287
347.284
347.284
347.293
347.286
347.288
347.289
195.982
195.339
197.401
196.621
199.348
198.311
201.935
200.544
205.438
203.552
210.229
207.643
216.891
213.277
226.408
221.206
240.641
232.759
263.843
250.651
317.697
282.479
347.333
342.839
190.446
190.446
190.445
190.797
190.445
190.445
190.445
190.469
190.447
190.446
190.447
190.447
190.448
190.447
190.449
190.448
190.451
190.45
190.452
190.451
190.454
190.453
190.456
190.455
190.458
190.457
190.46
190.459
190.461
190.46
190.463
190.462
190.464
190.463
190.464
190.464
190.464
190.463
190.464
190.464
190.463
190.464
190.462
190.462
190.46
190.461
190.459
190.459
190.457
190.458
190.454
190.455
190.453
190.454
190.451
190.452
190.45
190.45
190.448
190.449
190.448
190.448
190.446
190.447
190.446
190.447
190.445
190.446
190.445
190.446
190.446
190.445
190.446
190.446
190.447
190.447
190.448
190.447
190.448
190.448
190.448
190.448
194.578
194.253
193.608
193.918
194.552
194.88
190.726
197.4
198.34
190.498
193.891
190.609
190.574
190.618
190.781
190.448
190.928
190.805
196.485
190.52
190.501
190.491
190.505
190.504
190.525
190.542
190.56
190.446
190.797
190.449
347.264
347.257
192.29
193.305
193.329
194.875
190.554
190.535
190.45
190.445
190.521
190.665
190.618
191.498
191.683
191.903
191.625
193.385
197.466
190.585
190.506
193.606
190.589
190.596
190.849
190.895
194.164
193.819
190.447
193.517
196.737
196.651
193.925
190.51
190.494
190.514
190.549
190.446
190.446
190.446
190.446
190.446
190.446
190.446
190.446
190.447
190.447
190.448
190.447
190.448
190.448
190.448
190.451
190.451
190.453
190.452
190.455
190.454
190.459
190.456
190.464
190.461
190.472
190.467
190.482
190.476
190.497
190.489
190.521
190.507
190.556
190.537
190.591
190.573
190.671
190.623
190.727
190.684
190.719
190.736
190.625
190.652
190.576
190.6
190.529
190.552
190.497
190.511
190.479
190.487
190.469
190.473
190.462
190.465
190.458
190.46
190.455
190.456
190.453
190.453
190.451
190.452
190.45
347.253
347.317
342.796
317.633
282.441
263.817
250.635
240.634
232.761
226.419
221.225
216.918
213.311
210.268
207.684
205.481
203.594
201.974
200.583
199.388
198.369
197.505
196.783
196.163
195.627
195.145
194.319
190.778
193.48
344.534
344.524
344.529
344.538
344.54
344.544
344.547
344.543
344.543
344.536
344.532
344.543
344.567
191.016
195.464
196.041
196.672
197.43
198.316
199.34
200.536
201.929
203.548
205.435
207.64
210.226
213.272
216.881
221.193
226.391
232.737
240.614
250.62
263.807
282.44
317.654
342.799
347.315
347.251
344.564
193.13
193.04
193.925
190.536
190.551
191.289
191.177
190.596
190.563
190.54
191.065
190.458
192.199
190.476
192.518
190.956
190.824
194.37
190.964
191.947
191.524
195.826
195.14
196.121
193.548
193.108
191.376
191.969
191.707
191.488
190.664
190.525
190.52
190.501
190.512
190.548
190.533
194.38
194.032
193.692
193.38
193.101
192.861
190.48
190.609
195.111
190.451
191.021
191.126
190.449
190.448
190.447
190.447
190.447
190.447
190.447
190.447
190.446
190.446
190.446
190.446
190.446
190.445
190.445
190.445
190.446
190.446
190.446
190.446
190.446
190.446
190.446
190.447
190.447
190.447
190.447
190.447
190.448
190.448
190.449
190.449
190.45
190.451
190.451
190.452
190.453
190.454
190.454
190.455
190.456
190.457
190.458
190.458
190.459
190.459
190.46
190.46
190.461
190.461
190.461
190.461
190.461
190.461
190.461
190.461
190.461
190.46
190.46
190.459
190.458
190.458
190.457
190.456
190.456
190.455
190.454
190.453
190.453
190.452
190.451
190.451
190.45
190.449
190.448
190.448
190.447
190.447
190.447
190.447
190.446
190.446
337.882
337.964
347.278
344.905
190.449
192.863
190.883
190.446
190.447
190.681
190.603
190.447
190.447
190.446
190.446
190.446
190.446
190.446
190.446
190.446
190.446
190.446
190.446
190.446
190.446
190.446
190.448
190.447
190.447
190.451
190.452
190.453
190.455
190.457
190.458
190.46
190.462
190.465
190.468
190.473
190.479
190.487
190.497
190.511
190.528
190.549
190.575
190.606
190.641
190.673
190.699
190.719
190.733
190.748
190.829
190.776
190.642
190.899
190.823
190.753
190.684
190.639
190.607
190.58
190.554
190.534
190.518
190.506
190.496
190.488
190.482
190.477
190.472
190.468
190.465
190.463
190.462
190.461
190.46
190.459
190.457
190.454
190.455
193.115
190.449
190.448
190.447
190.447
190.447
190.447
190.447
190.446
190.446
190.446
190.446
190.446
190.446
190.446
190.446
190.447
190.447
190.447
190.452
190.446
190.447
190.447
190.448
190.448
190.448
190.448
190.448
190.449
190.449
190.449
190.45
190.45
190.451
190.451
190.452
190.452
190.453
190.453
190.454
190.455
190.455
190.456
190.456
190.456
190.457
190.457
190.458
190.458
190.458
190.458
190.458
190.458
190.458
190.458
190.458
190.458
190.458
190.457
190.457
190.456
190.456
190.455
190.455
190.454
190.454
190.453
190.453
190.453
190.452
190.452
190.451
190.451
190.451
190.451
190.451
190.45
190.45
190.45
190.45
190.45
190.45
190.45
190.45
190.599
191.04
190.448
190.448
192.615
192.372
192.61
192.814
193.089
193.412
193.77
194.131
194.479
195.035
195.508
196.04
196.69
197.437
198.313
199.329
200.521
201.913
203.533
205.42
207.623
210.206
213.248
216.852
221.156
226.346
232.681
240.546
250.535
263.697
282.281
317.097
347.264
347.209
342.384
190.541
190.522
190.508
190.514
191.134
190.715
191.296
192.015
191.819
191.614
191.442
191.368
192.769
190.753
195.6
196.002
337.893
337.828
337.827
337.833
337.839
337.844
337.842
337.834
337.827
337.818
337.819
190.684
195.581
191.615
191.792
191.095
190.642
190.546
190.453
192.474
192.679
192.873
191.074
193.341
193.606
194.714
195.138
195.632
196.171
196.789
197.511
198.371
199.385
200.574
201.964
203.582
205.467
207.669
210.25
213.289
216.89
221.19
226.376
232.707
240.567
250.552
263.708
282.283
317.078
342.389
347.221
194.078
193.989
190.897
190.874
191.106
192.301
190.568
190.577
190.456
190.475
190.45
337.968
344.889
190.546
192.522
191.007
194.667
338.523
338.541
190.447
193.257
192.21
191.112
190.583
190.529
190.522
191.289
190.448
190.46
190.99
190.457
192.483
190.551
191.03
190.922
194.353
347.349
345.045
347.39
316.755
342.416
263.518
282.055
240.463
250.411
226.313
232.627
216.85
221.14
210.223
213.256
205.448
207.647
201.946
203.564
199.365
200.557
197.48
198.346
196.119
196.748
195.084
195.568
194.314
194.665
193.612
193.952
193.112
193.345
192.642
192.869
192.211
192.433
191.943
192.092
191.361
191.638
191.255
328.219
328.456
328.324
328.219
328.214
328.232
328.224
328.228
328.234
328.22
328.223
328.333
328.228
329.072
338.703
329.088
328.458
195.502
190.671
190.451
191.181
191.081
190.522
190.531
338.696
347.385
345.038
342.417
347.345
282.053
316.771
250.395
263.507
232.602
240.442
221.107
226.283
213.215
216.812
207.599
210.178
203.512
205.398
200.502
201.893
198.284
199.307
196.662
197.407
195.47
196.013
194.693
195.006
193.996
190.674
193.365
193.675
192.812
193.087
192.302
192.559
192.025
192.125
191.73
191.936
191.449
190.449
190.449
190.45
190.45
190.451
190.451
190.452
190.452
190.451
190.451
190.451
190.451
190.451
190.451
190.452
190.451
190.452
190.452
190.452
190.452
190.453
190.453
190.454
190.453
190.454
190.454
190.455
190.455
190.455
190.455
190.456
190.456
190.456
190.456
190.456
190.456
190.456
190.456
190.455
190.456
190.455
190.455
190.454
190.455
190.454
190.454
190.453
190.453
190.452
190.453
190.452
190.452
190.451
190.451
190.45
190.451
190.45
190.45
190.449
190.449
190.449
190.449
190.449
190.449
190.448
190.448
190.452
190.448
190.726
190.447
190.447
190.447
190.447
190.446
190.447
190.446
190.446
190.446
190.446
190.446
190.446
190.447
190.447
190.447
190.447
190.45
190.449
191.215
190.45
191.204
190.456
190.455
190.461
190.458
190.463
190.462
190.466
190.464
190.471
190.468
190.48
190.475
190.493
190.486
190.511
190.501
190.54
190.523
190.589
190.561
190.68
190.628
190.807
190.741
190.874
190.865
190.994
190.826
190.895
190.763
190.793
190.694
190.73
190.638
190.664
190.585
190.612
190.537
190.559
190.505
190.519
190.484
190.493
190.472
190.477
190.464
190.467
190.461
190.462
190.456
190.459
190.453
190.454
190.453
190.458
190.453
190.449
190.45
190.447
190.448
190.446
190.446
190.446
190.446
190.446
190.446
190.446
190.446
190.446
190.446
190.446
190.446
190.447
190.447
193.319
190.447
191.108
190.449
329.482
329.488
190.464
192.37
190.448
190.449
190.448
190.448
190.447
190.447
190.446
190.446
190.446
190.446
190.446
190.446
190.446
190.446
190.446
190.446
190.446
190.447
190.448
190.45
190.451
190.452
190.461
192.961
190.455
190.458
190.459
190.46
190.462
190.464
190.466
190.468
190.471
190.474
190.479
190.484
190.491
190.499
190.508
190.519
190.531
190.541
190.546
190.542
190.54
190.557
190.6
190.672
190.784
190.89
191.034
191.042
191.124
191.085
191.016
190.88
190.767
190.694
190.643
190.602
190.572
190.549
190.532
190.519
190.509
190.501
190.494
190.487
190.482
190.478
190.474
190.47
190.467
190.464
190.462
190.46
190.458
190.458
190.457
190.455
192.186
190.452
190.45
190.451
190.449
190.448
190.447
190.447
190.446
190.446
190.446
190.446
190.446
190.446
190.447
190.447
190.447
190.447
190.447
190.447
190.447
190.883
190.449
190.45
190.45
190.45
190.45
190.451
190.451
190.451
190.451
190.451
190.451
190.451
190.451
190.451
190.451
190.451
190.452
190.452
190.452
190.452
190.452
190.452
190.452
190.452
190.452
190.452
190.452
190.453
190.453
190.453
190.453
190.453
190.453
190.453
190.453
190.453
190.453
190.453
190.453
190.453
190.453
190.453
190.453
190.452
190.452
190.452
190.452
190.452
190.452
190.452
190.452
190.451
190.451
190.451
190.45
190.45
190.45
190.449
190.449
190.449
190.449
190.45
190.45
190.45
190.45
190.45
190.45
190.449
190.449
190.448
191.134
191.076
191.209
191.517
191.802
192.223
192.619
193.068
193.379
193.548
193.674
193.846
194.046
194.353
194.624
194.984
195.401
195.957
196.598
197.346
198.225
199.251
200.443
201.827
203.435
205.306
207.49
210.05
213.064
216.634
220.897
226.035
232.307
240.075
249.912
262.942
281.036
311.464
342.225
349.087
349.371
347.732
340.406
330.061
190.539
190.535
192.678
191.21
190.452
192.376
195.099
331.813
331.311
330.561
330.412
330.283
330.274
330.276
330.283
330.288
330.286
330.279
330.273
330.269
330.274
330.404
330.56
331.299
331.805
332.65
190.767
191.141
191.159
191.472
191.749
192.226
192.76
193.09
193.321
193.372
193.512
193.754
193.999
194.282
194.588
194.943
195.384
195.939
196.592
197.357
198.252
199.286
200.483
201.869
203.479
205.351
207.534
210.092
213.104
216.671
220.931
226.067
232.335
240.101
249.935
262.964
281.055
311.479
342.238
349.099
349.382
347.743
340.417
330.074
332.665
191.083
190.986
190.539
190.537
194.896
191.233
191.002
193.036
190.453
190.541
190.679
191.106
190.449
190.538
190.448
190.454
191.018
194.3
190.449
190.447
191.088
190.452
190.655
190.624
194.962
190.481
190.83
190.704
194.372
190.553
190.447
190.535
190.54
190.538
194.838
190.449
190.467
190.488
196.117
190.446
190.717
194.415
195.066
190.67
190.457
194.824
190.456
190.519
190.45
191.185
190.451
191.345
190.51
193.115
192.15
194.689
191.018
190.446
192.317
195.151
190.652
194.62
190.592
190.481
190.448
190.477
190.448
190.538
190.452
190.463
190.475
)
;

boundaryField
{
    wall
    {
        type            zeroGradient;
    }
    outlet
    {
        type            inletOutlet;
        inletValue      uniform 1e-05;
        value           nonuniform List<scalar> 
20
(
331.813
331.311
330.561
330.412
330.283
330.274
330.276
330.283
330.288
330.286
330.279
330.273
330.269
330.274
330.404
330.56
331.299
331.805
332.65
332.665
)
;
    }
    frontAndBackPlanes
    {
        type            empty;
    }
}


// ************************************************************************* //
