/*--------------------------------*- C++ -*----------------------------------*\
| =========                 |                                                 |
| \\      /  F ield         | OpenFOAM: The Open Source CFD Toolbox           |
|  \\    /   O peration     | Version:  2212                                  |
|   \\  /    A nd           | Website:  www.openfoam.com                      |
|    \\/     M anipulation  |                                                 |
\*---------------------------------------------------------------------------*/
FoamFile
{
    version     2.0;
    format      ascii;
    arch        "LSB;label=32;scalar=64";
    class       volScalarField;
    location    "0.47";
    object      pPrime2Mean;
}
// * * * * * * * * * * * * * * * * * * * * * * * * * * * * * * * * * * * * * //

dimensions      [0 4 -4 0 0 0 0];

internalField   nonuniform List<scalar> 
24240
(
153625
153625
153623
153622
153619
153617
153613
153610
153606
153602
153597
153593
153588
153584
153580
153576
153573
153570
153568
153566
140114
140114
140114
140113
140113
140112
140111
140110
140109
140108
140107
140106
140105
140104
140103
140102
140102
140101
140100
140100
132027
132027
132027
132027
132027
132027
132027
132027
132028
132028
132028
132028
132028
132029
132029
132029
132029
132029
132030
132030
127151
127152
127152
127152
127153
127153
127154
127155
127156
127157
127158
127158
127159
127160
127161
127162
127163
127163
127164
127164
123888
123888
123888
123889
123890
123890
123892
123893
123894
123895
123897
123898
123899
123901
123902
123903
123904
123905
123906
123906
121659
121659
121659
121660
121661
121662
121663
121665
121666
121668
121669
121671
121672
121674
121675
121677
121678
121679
121680
121680
120201
120201
120202
120202
120203
120204
120206
120207
120209
120210
120212
120214
120215
120217
120219
120220
120221
120222
120223
120224
119355
119356
119356
119357
119358
119359
119360
119361
119363
119364
119366
119368
119370
119371
119373
119374
119376
119377
119377
119378
118914
118914
118915
118915
118916
118917
118918
118920
118921
118923
118924
118926
118928
118929
118931
118932
118933
118934
118935
118935
119063
119064
119064
119064
119065
119066
119067
119068
119070
119071
119073
119074
119076
119077
119078
119080
119081
119082
119083
119083
119672
119672
119672
119673
119673
119674
119675
119676
119678
119679
119680
119682
119683
119684
119686
119687
119688
119689
119689
119690
120755
120755
120755
120756
120756
120757
120758
120759
120760
120761
120762
120764
120765
120766
120767
120768
120769
120770
120771
120771
122355
122355
122355
122355
122356
122356
122357
122358
122359
122360
122361
122362
122363
122364
122365
122366
122367
122367
122368
122368
124545
124545
124545
124545
124546
124546
124546
124547
124548
124548
124549
124550
124551
124552
124552
124553
124554
124554
124555
124555
127453
127453
127453
127453
127454
127454
127454
127454
127455
127455
127455
127456
127456
127457
127457
127458
127458
127459
127459
127459
131298
131298
131298
131298
131298
131298
131298
131297
131297
131297
131297
131298
131298
131298
131298
131298
131298
131298
131299
131299
136481
136481
136481
136481
136480
136480
136479
136479
136478
136477
136477
136476
136476
136475
136475
136475
136474
136474
136474
136474
143863
143863
143862
143862
143861
143860
143859
143857
143856
143855
143853
143852
143850
143849
143847
143846
143845
143845
143844
143844
155878
155877
155877
155875
155874
155872
155870
155867
155864
155862
155859
155856
155853
155850
155847
155844
155842
155840
155839
155838
173236
173235
173234
173232
173228
173224
173220
173214
173209
173202
173196
173189
173182
173175
173168
173162
173157
173152
173148
173146
1.29874e+06
1.29874e+06
1.29873e+06
1.29872e+06
1.29871e+06
1.29869e+06
1.29868e+06
1.29865e+06
1.29863e+06
1.29861e+06
1.29858e+06
1.29856e+06
1.29853e+06
1.29851e+06
1.29848e+06
1.29846e+06
1.29844e+06
1.29843e+06
1.29841e+06
1.29841e+06
1.23419e+06
1.23419e+06
1.23419e+06
1.23419e+06
1.23418e+06
1.23418e+06
1.23417e+06
1.23416e+06
1.23415e+06
1.23414e+06
1.23414e+06
1.23413e+06
1.23412e+06
1.23411e+06
1.2341e+06
1.23409e+06
1.23409e+06
1.23408e+06
1.23408e+06
1.23407e+06
1.17583e+06
1.17583e+06
1.17583e+06
1.17583e+06
1.17583e+06
1.17583e+06
1.17583e+06
1.17583e+06
1.17583e+06
1.17583e+06
1.17583e+06
1.17583e+06
1.17583e+06
1.17583e+06
1.17583e+06
1.17583e+06
1.17583e+06
1.17583e+06
1.17583e+06
1.17583e+06
1.13633e+06
1.13633e+06
1.13634e+06
1.13634e+06
1.13634e+06
1.13634e+06
1.13635e+06
1.13635e+06
1.13636e+06
1.13636e+06
1.13637e+06
1.13637e+06
1.13638e+06
1.13638e+06
1.13639e+06
1.13639e+06
1.1364e+06
1.1364e+06
1.1364e+06
1.13641e+06
1.10878e+06
1.10878e+06
1.10879e+06
1.10879e+06
1.10879e+06
1.1088e+06
1.10881e+06
1.10881e+06
1.10882e+06
1.10883e+06
1.10884e+06
1.10885e+06
1.10886e+06
1.10887e+06
1.10887e+06
1.10888e+06
1.10889e+06
1.10889e+06
1.1089e+06
1.1089e+06
1.08965e+06
1.08965e+06
1.08965e+06
1.08965e+06
1.08966e+06
1.08967e+06
1.08968e+06
1.08968e+06
1.08969e+06
1.08971e+06
1.08972e+06
1.08973e+06
1.08974e+06
1.08975e+06
1.08976e+06
1.08977e+06
1.08978e+06
1.08978e+06
1.08979e+06
1.08979e+06
1.07693e+06
1.07693e+06
1.07693e+06
1.07694e+06
1.07694e+06
1.07695e+06
1.07696e+06
1.07697e+06
1.07698e+06
1.07699e+06
1.07701e+06
1.07702e+06
1.07703e+06
1.07704e+06
1.07705e+06
1.07706e+06
1.07707e+06
1.07708e+06
1.07709e+06
1.07709e+06
1.06964e+06
1.06964e+06
1.06964e+06
1.06965e+06
1.06966e+06
1.06966e+06
1.06967e+06
1.06968e+06
1.06969e+06
1.06971e+06
1.06972e+06
1.06973e+06
1.06974e+06
1.06975e+06
1.06977e+06
1.06978e+06
1.06978e+06
1.06979e+06
1.0698e+06
1.0698e+06
1.06645e+06
1.06645e+06
1.06645e+06
1.06646e+06
1.06646e+06
1.06647e+06
1.06648e+06
1.06649e+06
1.0665e+06
1.06651e+06
1.06652e+06
1.06653e+06
1.06655e+06
1.06656e+06
1.06657e+06
1.06658e+06
1.06659e+06
1.06659e+06
1.0666e+06
1.0666e+06
1.06767e+06
1.06768e+06
1.06768e+06
1.06768e+06
1.06769e+06
1.0677e+06
1.0677e+06
1.06771e+06
1.06772e+06
1.06773e+06
1.06774e+06
1.06775e+06
1.06777e+06
1.06778e+06
1.06779e+06
1.0678e+06
1.0678e+06
1.06781e+06
1.06782e+06
1.06782e+06
1.07296e+06
1.07296e+06
1.07296e+06
1.07296e+06
1.07297e+06
1.07297e+06
1.07298e+06
1.07299e+06
1.073e+06
1.07301e+06
1.07302e+06
1.07303e+06
1.07304e+06
1.07305e+06
1.07306e+06
1.07307e+06
1.07307e+06
1.07308e+06
1.07309e+06
1.07309e+06
1.0824e+06
1.0824e+06
1.0824e+06
1.0824e+06
1.08241e+06
1.08241e+06
1.08242e+06
1.08243e+06
1.08243e+06
1.08244e+06
1.08245e+06
1.08246e+06
1.08247e+06
1.08248e+06
1.08249e+06
1.08249e+06
1.0825e+06
1.08251e+06
1.08251e+06
1.08251e+06
1.09633e+06
1.09633e+06
1.09634e+06
1.09634e+06
1.09634e+06
1.09635e+06
1.09635e+06
1.09636e+06
1.09636e+06
1.09637e+06
1.09638e+06
1.09638e+06
1.09639e+06
1.0964e+06
1.09641e+06
1.09641e+06
1.09642e+06
1.09642e+06
1.09643e+06
1.09643e+06
1.11537e+06
1.11537e+06
1.11537e+06
1.11537e+06
1.11538e+06
1.11538e+06
1.11538e+06
1.11539e+06
1.11539e+06
1.1154e+06
1.1154e+06
1.11541e+06
1.11541e+06
1.11542e+06
1.11542e+06
1.11543e+06
1.11543e+06
1.11544e+06
1.11544e+06
1.11544e+06
1.14054e+06
1.14054e+06
1.14054e+06
1.14054e+06
1.14054e+06
1.14054e+06
1.14054e+06
1.14055e+06
1.14055e+06
1.14055e+06
1.14055e+06
1.14056e+06
1.14056e+06
1.14056e+06
1.14056e+06
1.14057e+06
1.14057e+06
1.14057e+06
1.14058e+06
1.14058e+06
1.17351e+06
1.17351e+06
1.17351e+06
1.17351e+06
1.17351e+06
1.17351e+06
1.17351e+06
1.17351e+06
1.1735e+06
1.1735e+06
1.1735e+06
1.1735e+06
1.1735e+06
1.1735e+06
1.1735e+06
1.1735e+06
1.1735e+06
1.1735e+06
1.1735e+06
1.1735e+06
1.21713e+06
1.21713e+06
1.21713e+06
1.21712e+06
1.21712e+06
1.21711e+06
1.21711e+06
1.2171e+06
1.2171e+06
1.21709e+06
1.21709e+06
1.21708e+06
1.21707e+06
1.21707e+06
1.21706e+06
1.21706e+06
1.21706e+06
1.21705e+06
1.21705e+06
1.21705e+06
1.27645e+06
1.27645e+06
1.27644e+06
1.27644e+06
1.27643e+06
1.27642e+06
1.27641e+06
1.2764e+06
1.27639e+06
1.27637e+06
1.27636e+06
1.27635e+06
1.27633e+06
1.27632e+06
1.27631e+06
1.2763e+06
1.27629e+06
1.27628e+06
1.27628e+06
1.27627e+06
1.36131e+06
1.36131e+06
1.3613e+06
1.36129e+06
1.36128e+06
1.36127e+06
1.36125e+06
1.36123e+06
1.3612e+06
1.36118e+06
1.36116e+06
1.36113e+06
1.36111e+06
1.36108e+06
1.36106e+06
1.36104e+06
1.36102e+06
1.361e+06
1.36099e+06
1.36098e+06
1.44563e+06
1.44563e+06
1.44562e+06
1.4456e+06
1.44558e+06
1.44555e+06
1.44552e+06
1.44549e+06
1.44545e+06
1.44541e+06
1.44536e+06
1.44532e+06
1.44528e+06
1.44523e+06
1.44519e+06
1.44515e+06
1.44512e+06
1.44509e+06
1.44506e+06
1.44505e+06
3.4639e+06
3.4639e+06
3.46388e+06
3.46386e+06
3.46383e+06
3.4638e+06
3.46376e+06
3.46372e+06
3.46367e+06
3.46362e+06
3.46357e+06
3.46352e+06
3.46347e+06
3.46343e+06
3.46338e+06
3.46334e+06
3.4633e+06
3.46327e+06
3.46324e+06
3.46323e+06
3.33999e+06
3.33998e+06
3.33998e+06
3.33997e+06
3.33996e+06
3.33995e+06
3.33993e+06
3.33991e+06
3.33989e+06
3.33988e+06
3.33986e+06
3.33983e+06
3.33981e+06
3.33979e+06
3.33978e+06
3.33976e+06
3.33974e+06
3.33973e+06
3.33972e+06
3.33972e+06
3.21593e+06
3.21593e+06
3.21593e+06
3.21592e+06
3.21592e+06
3.21592e+06
3.21592e+06
3.21592e+06
3.21592e+06
3.21592e+06
3.21591e+06
3.21591e+06
3.21591e+06
3.21591e+06
3.21591e+06
3.2159e+06
3.2159e+06
3.2159e+06
3.2159e+06
3.2159e+06
3.1246e+06
3.1246e+06
3.1246e+06
3.12461e+06
3.12461e+06
3.12462e+06
3.12463e+06
3.12464e+06
3.12465e+06
3.12466e+06
3.12467e+06
3.12468e+06
3.12469e+06
3.1247e+06
3.12471e+06
3.12472e+06
3.12472e+06
3.12473e+06
3.12474e+06
3.12474e+06
3.05776e+06
3.05777e+06
3.05777e+06
3.05778e+06
3.05779e+06
3.0578e+06
3.05782e+06
3.05783e+06
3.05785e+06
3.05787e+06
3.05789e+06
3.05791e+06
3.05793e+06
3.05794e+06
3.05796e+06
3.05798e+06
3.05799e+06
3.058e+06
3.05801e+06
3.05802e+06
3.0101e+06
3.0101e+06
3.01011e+06
3.01012e+06
3.01013e+06
3.01015e+06
3.01017e+06
3.01019e+06
3.01021e+06
3.01024e+06
3.01026e+06
3.01028e+06
3.01031e+06
3.01033e+06
3.01035e+06
3.01037e+06
3.01039e+06
3.01041e+06
3.01042e+06
3.01042e+06
2.97759e+06
2.97759e+06
2.9776e+06
2.97761e+06
2.97762e+06
2.97764e+06
2.97766e+06
2.97769e+06
2.97771e+06
2.97774e+06
2.97777e+06
2.9778e+06
2.97782e+06
2.97785e+06
2.97787e+06
2.9779e+06
2.97792e+06
2.97793e+06
2.97795e+06
2.97795e+06
2.95908e+06
2.95909e+06
2.95909e+06
2.9591e+06
2.95912e+06
2.95914e+06
2.95916e+06
2.95918e+06
2.95921e+06
2.95924e+06
2.95926e+06
2.95929e+06
2.95932e+06
2.95935e+06
2.95937e+06
2.9594e+06
2.95942e+06
2.95943e+06
2.95945e+06
2.95945e+06
2.95133e+06
2.95133e+06
2.95134e+06
2.95135e+06
2.95136e+06
2.95138e+06
2.9514e+06
2.95143e+06
2.95145e+06
2.95148e+06
2.9515e+06
2.95153e+06
2.95156e+06
2.95158e+06
2.95161e+06
2.95163e+06
2.95165e+06
2.95167e+06
2.95168e+06
2.95169e+06
2.95466e+06
2.95467e+06
2.95467e+06
2.95468e+06
2.9547e+06
2.95471e+06
2.95473e+06
2.95475e+06
2.95478e+06
2.9548e+06
2.95483e+06
2.95485e+06
2.95488e+06
2.9549e+06
2.95492e+06
2.95495e+06
2.95497e+06
2.95498e+06
2.95499e+06
2.955e+06
2.96863e+06
2.96864e+06
2.96864e+06
2.96865e+06
2.96866e+06
2.96868e+06
2.96869e+06
2.96871e+06
2.96873e+06
2.96876e+06
2.96878e+06
2.9688e+06
2.96883e+06
2.96885e+06
2.96887e+06
2.96889e+06
2.96891e+06
2.96892e+06
2.96893e+06
2.96894e+06
2.99348e+06
2.99348e+06
2.99348e+06
2.99349e+06
2.9935e+06
2.99352e+06
2.99353e+06
2.99355e+06
2.99356e+06
2.99358e+06
2.9936e+06
2.99362e+06
2.99365e+06
2.99367e+06
2.99368e+06
2.9937e+06
2.99372e+06
2.99373e+06
2.99374e+06
2.99375e+06
3.02995e+06
3.02995e+06
3.02996e+06
3.02996e+06
3.02997e+06
3.02998e+06
3.02999e+06
3.03e+06
3.03002e+06
3.03003e+06
3.03005e+06
3.03007e+06
3.03008e+06
3.0301e+06
3.03012e+06
3.03013e+06
3.03014e+06
3.03016e+06
3.03016e+06
3.03017e+06
3.07939e+06
3.07939e+06
3.07939e+06
3.0794e+06
3.0794e+06
3.07941e+06
3.07942e+06
3.07943e+06
3.07944e+06
3.07945e+06
3.07946e+06
3.07947e+06
3.07948e+06
3.07949e+06
3.0795e+06
3.07952e+06
3.07953e+06
3.07953e+06
3.07954e+06
3.07954e+06
3.14398e+06
3.14398e+06
3.14398e+06
3.14398e+06
3.14398e+06
3.14398e+06
3.14398e+06
3.14399e+06
3.14399e+06
3.144e+06
3.144e+06
3.14401e+06
3.14401e+06
3.14402e+06
3.14402e+06
3.14403e+06
3.14403e+06
3.14404e+06
3.14404e+06
3.14405e+06
3.227e+06
3.227e+06
3.22699e+06
3.22699e+06
3.22699e+06
3.22698e+06
3.22698e+06
3.22698e+06
3.22697e+06
3.22697e+06
3.22696e+06
3.22696e+06
3.22696e+06
3.22695e+06
3.22695e+06
3.22695e+06
3.22695e+06
3.22695e+06
3.22695e+06
3.22695e+06
3.3335e+06
3.3335e+06
3.33349e+06
3.33349e+06
3.33348e+06
3.33347e+06
3.33345e+06
3.33344e+06
3.33342e+06
3.33341e+06
3.33339e+06
3.33337e+06
3.33336e+06
3.33335e+06
3.33333e+06
3.33332e+06
3.33331e+06
3.3333e+06
3.3333e+06
3.3333e+06
3.47106e+06
3.47105e+06
3.47105e+06
3.47103e+06
3.47101e+06
3.47099e+06
3.47097e+06
3.47094e+06
3.47091e+06
3.47088e+06
3.47084e+06
3.47081e+06
3.47078e+06
3.47074e+06
3.47071e+06
3.47069e+06
3.47067e+06
3.47065e+06
3.47063e+06
3.47063e+06
3.65104e+06
3.65103e+06
3.65102e+06
3.65099e+06
3.65096e+06
3.65093e+06
3.65088e+06
3.65084e+06
3.65078e+06
3.65073e+06
3.65067e+06
3.65061e+06
3.65055e+06
3.6505e+06
3.65044e+06
3.6504e+06
3.65035e+06
3.65032e+06
3.65029e+06
3.65027e+06
3.81729e+06
3.81728e+06
3.81725e+06
3.81722e+06
3.81717e+06
3.81711e+06
3.81705e+06
3.81697e+06
3.81689e+06
3.8168e+06
3.81671e+06
3.81661e+06
3.81652e+06
3.81643e+06
3.81634e+06
3.81625e+06
3.81618e+06
3.81612e+06
3.81607e+06
3.81604e+06
6.57743e+06
6.57742e+06
6.5774e+06
6.57737e+06
6.57733e+06
6.57728e+06
6.57722e+06
6.57716e+06
6.57709e+06
6.57702e+06
6.57694e+06
6.57687e+06
6.5768e+06
6.57673e+06
6.57666e+06
6.5766e+06
6.57654e+06
6.57649e+06
6.57646e+06
6.57643e+06
6.39345e+06
6.39344e+06
6.39343e+06
6.39342e+06
6.3934e+06
6.39338e+06
6.39336e+06
6.39333e+06
6.3933e+06
6.39327e+06
6.39324e+06
6.39321e+06
6.39318e+06
6.39315e+06
6.39312e+06
6.39309e+06
6.39307e+06
6.39305e+06
6.39303e+06
6.39302e+06
6.20095e+06
6.20095e+06
6.20095e+06
6.20095e+06
6.20095e+06
6.20095e+06
6.20094e+06
6.20094e+06
6.20094e+06
6.20093e+06
6.20093e+06
6.20092e+06
6.20092e+06
6.20091e+06
6.20091e+06
6.20091e+06
6.2009e+06
6.2009e+06
6.2009e+06
6.2009e+06
6.05218e+06
6.05218e+06
6.05219e+06
6.05219e+06
6.0522e+06
6.05221e+06
6.05223e+06
6.05224e+06
6.05225e+06
6.05227e+06
6.05228e+06
6.0523e+06
6.05232e+06
6.05233e+06
6.05234e+06
6.05236e+06
6.05237e+06
6.05238e+06
6.05239e+06
6.05239e+06
5.93946e+06
5.93946e+06
5.93947e+06
5.93948e+06
5.9395e+06
5.93952e+06
5.93954e+06
5.93957e+06
5.9396e+06
5.93963e+06
5.93966e+06
5.93969e+06
5.93971e+06
5.93974e+06
5.93977e+06
5.93979e+06
5.93981e+06
5.93983e+06
5.93985e+06
5.93985e+06
5.85697e+06
5.85697e+06
5.85698e+06
5.857e+06
5.85702e+06
5.85705e+06
5.85708e+06
5.85711e+06
5.85715e+06
5.85719e+06
5.85723e+06
5.85727e+06
5.8573e+06
5.85734e+06
5.85738e+06
5.85741e+06
5.85744e+06
5.85746e+06
5.85748e+06
5.85749e+06
5.80091e+06
5.80091e+06
5.80093e+06
5.80094e+06
5.80097e+06
5.801e+06
5.80103e+06
5.80107e+06
5.80111e+06
5.80115e+06
5.8012e+06
5.80124e+06
5.80128e+06
5.80132e+06
5.80136e+06
5.8014e+06
5.80143e+06
5.80146e+06
5.80148e+06
5.80149e+06
5.76829e+06
5.7683e+06
5.76831e+06
5.76833e+06
5.76835e+06
5.76838e+06
5.76842e+06
5.76846e+06
5.7685e+06
5.76854e+06
5.76859e+06
5.76863e+06
5.76868e+06
5.76872e+06
5.76876e+06
5.7688e+06
5.76883e+06
5.76885e+06
5.76887e+06
5.76888e+06
5.75519e+06
5.7552e+06
5.75521e+06
5.75523e+06
5.75525e+06
5.75528e+06
5.75532e+06
5.75535e+06
5.75539e+06
5.75544e+06
5.75548e+06
5.75552e+06
5.75557e+06
5.75561e+06
5.75565e+06
5.75568e+06
5.75572e+06
5.75574e+06
5.75576e+06
5.75577e+06
5.7618e+06
5.7618e+06
5.76181e+06
5.76183e+06
5.76185e+06
5.76188e+06
5.76191e+06
5.76195e+06
5.76198e+06
5.76202e+06
5.76207e+06
5.76211e+06
5.76215e+06
5.76219e+06
5.76223e+06
5.76226e+06
5.76229e+06
5.76231e+06
5.76233e+06
5.76234e+06
5.78772e+06
5.78773e+06
5.78774e+06
5.78775e+06
5.78777e+06
5.7878e+06
5.78783e+06
5.78786e+06
5.78789e+06
5.78793e+06
5.78797e+06
5.78801e+06
5.78804e+06
5.78808e+06
5.78811e+06
5.78815e+06
5.78817e+06
5.7882e+06
5.78821e+06
5.78822e+06
5.83335e+06
5.83335e+06
5.83336e+06
5.83337e+06
5.83339e+06
5.83341e+06
5.83344e+06
5.83346e+06
5.83349e+06
5.83353e+06
5.83356e+06
5.83359e+06
5.83362e+06
5.83366e+06
5.83369e+06
5.83371e+06
5.83374e+06
5.83376e+06
5.83377e+06
5.83378e+06
5.8998e+06
5.89981e+06
5.89981e+06
5.89982e+06
5.89984e+06
5.89985e+06
5.89987e+06
5.89989e+06
5.89992e+06
5.89994e+06
5.89997e+06
5.9e+06
5.90002e+06
5.90005e+06
5.90007e+06
5.9001e+06
5.90012e+06
5.90013e+06
5.90014e+06
5.90015e+06
5.98905e+06
5.98905e+06
5.98905e+06
5.98906e+06
5.98907e+06
5.98908e+06
5.98909e+06
5.98911e+06
5.98912e+06
5.98914e+06
5.98916e+06
5.98918e+06
5.98919e+06
5.98921e+06
5.98923e+06
5.98924e+06
5.98926e+06
5.98927e+06
5.98928e+06
5.98928e+06
6.10414e+06
6.10414e+06
6.10414e+06
6.10414e+06
6.10414e+06
6.10415e+06
6.10415e+06
6.10415e+06
6.10416e+06
6.10417e+06
6.10417e+06
6.10418e+06
6.10419e+06
6.10419e+06
6.1042e+06
6.10421e+06
6.10422e+06
6.10422e+06
6.10423e+06
6.10423e+06
6.24937e+06
6.24937e+06
6.24937e+06
6.24937e+06
6.24936e+06
6.24936e+06
6.24935e+06
6.24934e+06
6.24933e+06
6.24932e+06
6.24932e+06
6.24931e+06
6.2493e+06
6.24929e+06
6.24929e+06
6.24928e+06
6.24928e+06
6.24928e+06
6.24928e+06
6.24928e+06
6.43085e+06
6.43085e+06
6.43084e+06
6.43083e+06
6.43081e+06
6.43079e+06
6.43077e+06
6.43075e+06
6.43072e+06
6.43069e+06
6.43067e+06
6.43064e+06
6.43061e+06
6.43058e+06
6.43056e+06
6.43054e+06
6.43052e+06
6.43051e+06
6.4305e+06
6.43049e+06
6.6566e+06
6.65659e+06
6.65658e+06
6.65656e+06
6.65653e+06
6.65649e+06
6.65645e+06
6.6564e+06
6.65635e+06
6.65629e+06
6.65624e+06
6.65618e+06
6.65613e+06
6.65608e+06
6.65603e+06
6.65598e+06
6.65594e+06
6.65591e+06
6.65589e+06
6.65588e+06
6.93703e+06
6.93701e+06
6.93699e+06
6.93695e+06
6.9369e+06
6.93684e+06
6.93677e+06
6.93669e+06
6.93661e+06
6.93652e+06
6.93642e+06
6.93633e+06
6.93624e+06
6.93615e+06
6.93606e+06
6.93598e+06
6.93591e+06
6.93586e+06
6.93581e+06
6.93579e+06
7.18879e+06
7.18877e+06
7.18874e+06
7.18868e+06
7.1886e+06
7.18851e+06
7.1884e+06
7.18828e+06
7.18815e+06
7.18802e+06
7.18787e+06
7.18773e+06
7.18758e+06
7.18744e+06
7.1873e+06
7.18718e+06
7.18706e+06
7.18697e+06
7.1869e+06
7.18686e+06
1.05889e+07
1.05888e+07
1.05888e+07
1.05888e+07
1.05887e+07
1.05887e+07
1.05886e+07
1.05885e+07
1.05884e+07
1.05883e+07
1.05882e+07
1.05881e+07
1.05881e+07
1.0588e+07
1.05879e+07
1.05878e+07
1.05877e+07
1.05877e+07
1.05876e+07
1.05876e+07
1.03461e+07
1.03461e+07
1.03461e+07
1.03461e+07
1.03461e+07
1.03461e+07
1.0346e+07
1.0346e+07
1.03459e+07
1.03459e+07
1.03459e+07
1.03458e+07
1.03458e+07
1.03457e+07
1.03457e+07
1.03457e+07
1.03456e+07
1.03456e+07
1.03456e+07
1.03456e+07
1.00862e+07
1.00862e+07
1.00862e+07
1.00862e+07
1.00862e+07
1.00862e+07
1.00862e+07
1.00862e+07
1.00862e+07
1.00862e+07
1.00862e+07
1.00862e+07
1.00862e+07
1.00862e+07
1.00862e+07
1.00862e+07
1.00861e+07
1.00861e+07
1.00861e+07
1.00861e+07
9.87953e+06
9.87953e+06
9.87954e+06
9.87955e+06
9.87956e+06
9.87957e+06
9.87959e+06
9.87961e+06
9.87963e+06
9.87965e+06
9.87967e+06
9.87969e+06
9.8797e+06
9.87972e+06
9.87974e+06
9.87975e+06
9.87977e+06
9.87978e+06
9.87979e+06
9.8798e+06
9.71892e+06
9.71893e+06
9.71894e+06
9.71896e+06
9.71898e+06
9.71901e+06
9.71904e+06
9.71908e+06
9.71912e+06
9.71916e+06
9.7192e+06
9.71924e+06
9.71928e+06
9.71931e+06
9.71935e+06
9.71938e+06
9.71941e+06
9.71944e+06
9.71946e+06
9.71947e+06
9.60029e+06
9.6003e+06
9.60031e+06
9.60034e+06
9.60037e+06
9.6004e+06
9.60044e+06
9.60049e+06
9.60054e+06
9.60059e+06
9.60064e+06
9.60069e+06
9.60074e+06
9.60079e+06
9.60084e+06
9.60088e+06
9.60092e+06
9.60095e+06
9.60097e+06
9.60099e+06
9.51889e+06
9.51889e+06
9.51891e+06
9.51894e+06
9.51897e+06
9.51901e+06
9.51906e+06
9.51911e+06
9.51916e+06
9.51922e+06
9.51928e+06
9.51933e+06
9.51939e+06
9.51945e+06
9.5195e+06
9.51955e+06
9.51959e+06
9.51962e+06
9.51965e+06
9.51966e+06
9.47151e+06
9.47152e+06
9.47154e+06
9.47156e+06
9.4716e+06
9.47164e+06
9.47168e+06
9.47174e+06
9.47179e+06
9.47185e+06
9.47191e+06
9.47197e+06
9.47203e+06
9.47209e+06
9.47214e+06
9.47219e+06
9.47223e+06
9.47227e+06
9.47229e+06
9.47231e+06
9.45339e+06
9.4534e+06
9.45341e+06
9.45344e+06
9.45347e+06
9.45351e+06
9.45356e+06
9.45361e+06
9.45366e+06
9.45372e+06
9.45378e+06
9.45384e+06
9.4539e+06
9.45395e+06
9.45401e+06
9.45405e+06
9.45409e+06
9.45413e+06
9.45415e+06
9.45416e+06
9.4646e+06
9.46461e+06
9.46463e+06
9.46465e+06
9.46468e+06
9.46472e+06
9.46476e+06
9.46481e+06
9.46486e+06
9.46492e+06
9.46497e+06
9.46503e+06
9.46508e+06
9.46514e+06
9.46519e+06
9.46523e+06
9.46527e+06
9.4653e+06
9.46532e+06
9.46534e+06
9.50507e+06
9.50508e+06
9.5051e+06
9.50512e+06
9.50515e+06
9.50518e+06
9.50522e+06
9.50526e+06
9.50531e+06
9.50536e+06
9.50541e+06
9.50546e+06
9.50551e+06
9.50556e+06
9.50561e+06
9.50565e+06
9.50569e+06
9.50571e+06
9.50573e+06
9.50574e+06
9.57529e+06
9.5753e+06
9.57531e+06
9.57533e+06
9.57536e+06
9.57538e+06
9.57542e+06
9.57546e+06
9.5755e+06
9.57554e+06
9.57559e+06
9.57563e+06
9.57567e+06
9.57572e+06
9.57576e+06
9.57579e+06
9.57582e+06
9.57585e+06
9.57586e+06
9.57587e+06
9.67666e+06
9.67666e+06
9.67667e+06
9.67669e+06
9.67671e+06
9.67673e+06
9.67676e+06
9.67679e+06
9.67682e+06
9.67685e+06
9.67689e+06
9.67692e+06
9.67696e+06
9.67699e+06
9.67702e+06
9.67705e+06
9.67708e+06
9.6771e+06
9.67711e+06
9.67712e+06
9.8115e+06
9.8115e+06
9.81151e+06
9.81152e+06
9.81153e+06
9.81154e+06
9.81156e+06
9.81158e+06
9.8116e+06
9.81163e+06
9.81165e+06
9.81167e+06
9.8117e+06
9.81172e+06
9.81174e+06
9.81176e+06
9.81178e+06
9.81179e+06
9.8118e+06
9.8118e+06
9.98332e+06
9.98332e+06
9.98333e+06
9.98333e+06
9.98333e+06
9.98334e+06
9.98334e+06
9.98335e+06
9.98336e+06
9.98336e+06
9.98337e+06
9.98338e+06
9.98339e+06
9.9834e+06
9.9834e+06
9.98341e+06
9.98342e+06
9.98342e+06
9.98342e+06
9.98342e+06
1.01968e+07
1.01968e+07
1.01968e+07
1.01968e+07
1.01968e+07
1.01968e+07
1.01968e+07
1.01968e+07
1.01967e+07
1.01967e+07
1.01967e+07
1.01967e+07
1.01967e+07
1.01967e+07
1.01967e+07
1.01967e+07
1.01967e+07
1.01967e+07
1.01966e+07
1.01966e+07
1.04582e+07
1.04582e+07
1.04582e+07
1.04581e+07
1.04581e+07
1.04581e+07
1.04581e+07
1.0458e+07
1.0458e+07
1.04579e+07
1.04579e+07
1.04579e+07
1.04578e+07
1.04578e+07
1.04578e+07
1.04577e+07
1.04577e+07
1.04577e+07
1.04577e+07
1.04576e+07
1.07749e+07
1.07749e+07
1.07749e+07
1.07748e+07
1.07748e+07
1.07747e+07
1.07747e+07
1.07746e+07
1.07745e+07
1.07745e+07
1.07744e+07
1.07743e+07
1.07742e+07
1.07742e+07
1.07741e+07
1.0774e+07
1.0774e+07
1.07739e+07
1.07739e+07
1.07739e+07
1.11559e+07
1.11559e+07
1.11559e+07
1.11558e+07
1.11558e+07
1.11557e+07
1.11556e+07
1.11555e+07
1.11554e+07
1.11552e+07
1.11551e+07
1.1155e+07
1.11549e+07
1.11548e+07
1.11546e+07
1.11545e+07
1.11544e+07
1.11544e+07
1.11543e+07
1.11543e+07
1.1493e+07
1.14929e+07
1.14929e+07
1.14928e+07
1.14927e+07
1.14926e+07
1.14924e+07
1.14923e+07
1.14921e+07
1.14919e+07
1.14917e+07
1.14915e+07
1.14913e+07
1.14911e+07
1.1491e+07
1.14908e+07
1.14907e+07
1.14906e+07
1.14905e+07
1.14904e+07
1.54573e+07
1.54573e+07
1.54572e+07
1.54572e+07
1.54571e+07
1.5457e+07
1.5457e+07
1.54569e+07
1.54568e+07
1.54567e+07
1.54566e+07
1.54564e+07
1.54563e+07
1.54562e+07
1.54562e+07
1.54561e+07
1.5456e+07
1.54559e+07
1.54559e+07
1.54558e+07
1.51577e+07
1.51577e+07
1.51577e+07
1.51576e+07
1.51576e+07
1.51576e+07
1.51575e+07
1.51575e+07
1.51575e+07
1.51574e+07
1.51574e+07
1.51573e+07
1.51573e+07
1.51572e+07
1.51572e+07
1.51571e+07
1.51571e+07
1.51571e+07
1.5157e+07
1.5157e+07
1.48324e+07
1.48323e+07
1.48323e+07
1.48323e+07
1.48323e+07
1.48323e+07
1.48323e+07
1.48323e+07
1.48323e+07
1.48323e+07
1.48323e+07
1.48323e+07
1.48323e+07
1.48323e+07
1.48323e+07
1.48323e+07
1.48323e+07
1.48323e+07
1.48323e+07
1.48323e+07
1.45689e+07
1.45689e+07
1.45689e+07
1.45689e+07
1.4569e+07
1.4569e+07
1.4569e+07
1.4569e+07
1.4569e+07
1.45691e+07
1.45691e+07
1.45691e+07
1.45691e+07
1.45692e+07
1.45692e+07
1.45692e+07
1.45692e+07
1.45693e+07
1.45693e+07
1.45693e+07
1.43621e+07
1.43622e+07
1.43622e+07
1.43622e+07
1.43622e+07
1.43623e+07
1.43623e+07
1.43623e+07
1.43624e+07
1.43624e+07
1.43625e+07
1.43625e+07
1.43626e+07
1.43626e+07
1.43627e+07
1.43627e+07
1.43627e+07
1.43628e+07
1.43628e+07
1.43628e+07
1.42075e+07
1.42076e+07
1.42076e+07
1.42076e+07
1.42076e+07
1.42077e+07
1.42077e+07
1.42078e+07
1.42078e+07
1.42079e+07
1.4208e+07
1.4208e+07
1.42081e+07
1.42081e+07
1.42082e+07
1.42082e+07
1.42083e+07
1.42083e+07
1.42084e+07
1.42084e+07
1.41011e+07
1.41011e+07
1.41011e+07
1.41011e+07
1.41012e+07
1.41012e+07
1.41013e+07
1.41013e+07
1.41014e+07
1.41015e+07
1.41015e+07
1.41016e+07
1.41017e+07
1.41017e+07
1.41018e+07
1.41018e+07
1.41019e+07
1.41019e+07
1.4102e+07
1.4102e+07
1.40396e+07
1.40396e+07
1.40396e+07
1.40396e+07
1.40397e+07
1.40397e+07
1.40398e+07
1.40398e+07
1.40399e+07
1.404e+07
1.40401e+07
1.40401e+07
1.40402e+07
1.40403e+07
1.40403e+07
1.40404e+07
1.40404e+07
1.40405e+07
1.40405e+07
1.40405e+07
1.40175e+07
1.40175e+07
1.40175e+07
1.40175e+07
1.40176e+07
1.40176e+07
1.40177e+07
1.40178e+07
1.40178e+07
1.40179e+07
1.4018e+07
1.4018e+07
1.40181e+07
1.40182e+07
1.40182e+07
1.40183e+07
1.40183e+07
1.40184e+07
1.40184e+07
1.40184e+07
1.40348e+07
1.40348e+07
1.40348e+07
1.40348e+07
1.40349e+07
1.40349e+07
1.4035e+07
1.4035e+07
1.40351e+07
1.40351e+07
1.40352e+07
1.40353e+07
1.40353e+07
1.40354e+07
1.40355e+07
1.40355e+07
1.40356e+07
1.40356e+07
1.40356e+07
1.40356e+07
1.40918e+07
1.40918e+07
1.40918e+07
1.40918e+07
1.40919e+07
1.40919e+07
1.4092e+07
1.4092e+07
1.40921e+07
1.40921e+07
1.40922e+07
1.40923e+07
1.40923e+07
1.40924e+07
1.40924e+07
1.40925e+07
1.40925e+07
1.40926e+07
1.40926e+07
1.40926e+07
1.41892e+07
1.41892e+07
1.41892e+07
1.41892e+07
1.41893e+07
1.41893e+07
1.41893e+07
1.41894e+07
1.41894e+07
1.41895e+07
1.41895e+07
1.41896e+07
1.41896e+07
1.41897e+07
1.41897e+07
1.41898e+07
1.41898e+07
1.41898e+07
1.41899e+07
1.41899e+07
1.43284e+07
1.43284e+07
1.43285e+07
1.43285e+07
1.43285e+07
1.43285e+07
1.43286e+07
1.43286e+07
1.43286e+07
1.43287e+07
1.43287e+07
1.43288e+07
1.43288e+07
1.43288e+07
1.43289e+07
1.43289e+07
1.43289e+07
1.43289e+07
1.4329e+07
1.4329e+07
1.4512e+07
1.4512e+07
1.4512e+07
1.45121e+07
1.45121e+07
1.45121e+07
1.45121e+07
1.45121e+07
1.45122e+07
1.45122e+07
1.45122e+07
1.45122e+07
1.45123e+07
1.45123e+07
1.45123e+07
1.45123e+07
1.45124e+07
1.45124e+07
1.45124e+07
1.45124e+07
1.47436e+07
1.47436e+07
1.47436e+07
1.47436e+07
1.47436e+07
1.47436e+07
1.47436e+07
1.47436e+07
1.47436e+07
1.47436e+07
1.47436e+07
1.47436e+07
1.47436e+07
1.47437e+07
1.47437e+07
1.47437e+07
1.47437e+07
1.47437e+07
1.47437e+07
1.47437e+07
1.50277e+07
1.50277e+07
1.50276e+07
1.50276e+07
1.50276e+07
1.50276e+07
1.50276e+07
1.50276e+07
1.50276e+07
1.50276e+07
1.50275e+07
1.50275e+07
1.50275e+07
1.50275e+07
1.50275e+07
1.50275e+07
1.50274e+07
1.50274e+07
1.50274e+07
1.50274e+07
1.53701e+07
1.53701e+07
1.53701e+07
1.53701e+07
1.53701e+07
1.537e+07
1.537e+07
1.537e+07
1.53699e+07
1.53699e+07
1.53698e+07
1.53698e+07
1.53697e+07
1.53697e+07
1.53696e+07
1.53696e+07
1.53695e+07
1.53695e+07
1.53695e+07
1.53695e+07
1.57776e+07
1.57776e+07
1.57775e+07
1.57775e+07
1.57775e+07
1.57774e+07
1.57773e+07
1.57772e+07
1.57772e+07
1.57771e+07
1.5777e+07
1.57769e+07
1.57768e+07
1.57767e+07
1.57766e+07
1.57765e+07
1.57765e+07
1.57764e+07
1.57764e+07
1.57764e+07
1.62577e+07
1.62577e+07
1.62576e+07
1.62576e+07
1.62575e+07
1.62574e+07
1.62572e+07
1.62571e+07
1.6257e+07
1.62568e+07
1.62567e+07
1.62565e+07
1.62564e+07
1.62562e+07
1.62561e+07
1.6256e+07
1.62559e+07
1.62558e+07
1.62557e+07
1.62557e+07
1.66784e+07
1.66783e+07
1.66783e+07
1.66782e+07
1.66781e+07
1.66779e+07
1.66777e+07
1.66775e+07
1.66773e+07
1.66771e+07
1.66769e+07
1.66766e+07
1.66764e+07
1.66762e+07
1.6676e+07
1.66758e+07
1.66757e+07
1.66756e+07
1.66755e+07
1.66755e+07
2.11467e+07
2.11467e+07
2.11467e+07
2.11466e+07
2.11465e+07
2.11465e+07
2.11464e+07
2.11463e+07
2.11462e+07
2.11461e+07
2.1146e+07
2.11458e+07
2.11457e+07
2.11456e+07
2.11455e+07
2.11454e+07
2.11454e+07
2.11453e+07
2.11452e+07
2.11452e+07
2.07921e+07
2.07921e+07
2.07921e+07
2.07921e+07
2.07921e+07
2.0792e+07
2.0792e+07
2.07919e+07
2.07919e+07
2.07918e+07
2.07918e+07
2.07917e+07
2.07917e+07
2.07916e+07
2.07916e+07
2.07916e+07
2.07915e+07
2.07915e+07
2.07915e+07
2.07915e+07
2.04038e+07
2.04038e+07
2.04038e+07
2.04038e+07
2.04038e+07
2.04038e+07
2.04037e+07
2.04037e+07
2.04037e+07
2.04037e+07
2.04037e+07
2.04037e+07
2.04037e+07
2.04037e+07
2.04037e+07
2.04037e+07
2.04037e+07
2.04037e+07
2.04037e+07
2.04037e+07
2.00862e+07
2.00862e+07
2.00862e+07
2.00862e+07
2.00862e+07
2.00863e+07
2.00863e+07
2.00863e+07
2.00863e+07
2.00864e+07
2.00864e+07
2.00864e+07
2.00865e+07
2.00865e+07
2.00865e+07
2.00865e+07
2.00865e+07
2.00866e+07
2.00866e+07
2.00866e+07
1.98349e+07
1.98349e+07
1.98349e+07
1.98349e+07
1.9835e+07
1.9835e+07
1.9835e+07
1.98351e+07
1.98351e+07
1.98352e+07
1.98352e+07
1.98353e+07
1.98353e+07
1.98354e+07
1.98354e+07
1.98355e+07
1.98355e+07
1.98355e+07
1.98356e+07
1.98356e+07
1.9646e+07
1.9646e+07
1.9646e+07
1.9646e+07
1.96461e+07
1.96461e+07
1.96462e+07
1.96462e+07
1.96463e+07
1.96464e+07
1.96464e+07
1.96465e+07
1.96466e+07
1.96466e+07
1.96467e+07
1.96467e+07
1.96468e+07
1.96468e+07
1.96468e+07
1.96469e+07
1.95158e+07
1.95159e+07
1.95159e+07
1.95159e+07
1.9516e+07
1.9516e+07
1.95161e+07
1.95161e+07
1.95162e+07
1.95163e+07
1.95164e+07
1.95164e+07
1.95165e+07
1.95166e+07
1.95166e+07
1.95167e+07
1.95168e+07
1.95168e+07
1.95168e+07
1.95168e+07
1.94417e+07
1.94417e+07
1.94418e+07
1.94418e+07
1.94418e+07
1.94419e+07
1.9442e+07
1.9442e+07
1.94421e+07
1.94422e+07
1.94423e+07
1.94423e+07
1.94424e+07
1.94425e+07
1.94426e+07
1.94426e+07
1.94427e+07
1.94427e+07
1.94427e+07
1.94428e+07
1.94172e+07
1.94172e+07
1.94172e+07
1.94172e+07
1.94173e+07
1.94173e+07
1.94174e+07
1.94175e+07
1.94176e+07
1.94176e+07
1.94177e+07
1.94178e+07
1.94179e+07
1.94179e+07
1.9418e+07
1.94181e+07
1.94181e+07
1.94182e+07
1.94182e+07
1.94182e+07
1.9442e+07
1.9442e+07
1.9442e+07
1.9442e+07
1.94421e+07
1.94421e+07
1.94422e+07
1.94422e+07
1.94423e+07
1.94424e+07
1.94425e+07
1.94425e+07
1.94426e+07
1.94427e+07
1.94427e+07
1.94428e+07
1.94428e+07
1.94429e+07
1.94429e+07
1.94429e+07
1.95171e+07
1.95172e+07
1.95172e+07
1.95172e+07
1.95172e+07
1.95173e+07
1.95173e+07
1.95174e+07
1.95175e+07
1.95175e+07