/*--------------------------------*- C++ -*----------------------------------*\
| =========                 |                                                 |
| \\      /  F ield         | OpenFOAM: The Open Source CFD Toolbox           |
|  \\    /   O peration     | Version:  2212                                  |
|   \\  /    A nd           | Website:  www.openfoam.com                      |
|    \\/     M anipulation  |                                                 |
\*---------------------------------------------------------------------------*/
FoamFile
{
    version     2.0;
    format      ascii;
    arch        "LSB;label=32;scalar=64";
    class       volVectorField;
    location    "0.15";
    object      U;
}
// * * * * * * * * * * * * * * * * * * * * * * * * * * * * * * * * * * * * * //

dimensions      [0 1 -1 0 0 0 0];

internalField   nonuniform List<vector> 
2308
(
(-0.750825 0.798874 -7.44619e-16)
(-0.514072 2.1336 0)
(0.528385 -5.82288 6.16827e-17)
(0.0453793 3.51875 -2.29891e-16)
(0.952973 1.93133 0)
(1.07461 1.61098 9.65246e-19)
(-0.152715 0.783337 -1.29009e-19)
(0.268787 1.50307 -3.31888e-16)
(0.912738 2.14178 6.16995e-16)
(0.405589 5.15307 -6.75557e-17)
(0.426563 5.06717 1.22108e-16)
(1.17494 5.04284 -1.82104e-16)
(1.00868 4.7528 9.1353e-17)
(1.00647 4.21545 -4.67127e-17)
(1.04778 3.58534 8.0687e-18)
(1.07855 2.92536 6.78419e-17)
(1.05253 2.31107 9.29847e-18)
(0.523573 1.53468 2.13861e-17)
(0.548416 2.1116 2.85612e-17)
(0.528851 2.71165 2.08803e-18)
(0.49395 3.37856 1.56902e-17)
(0.442774 4.01181 -4.54255e-17)
(0.341255 4.5507 5.75503e-17)
(0.112494 4.78023 -2.61918e-17)
(0.360003 5.07024 -1.10901e-16)
(0.130633 4.98073 -5.21904e-17)
(-0.195147 4.46733 2.63608e-17)
(0.132009 4.27138 -2.85914e-17)
(0.101579 1.01553 0)
(0.951734 1.75769 -1.97759e-16)
(-0.0677864 3.75996 1.49954e-18)
(-0.232951 3.34812 3.7908e-19)
(-0.315827 3.01214 -6.39039e-18)
(-0.257481 2.68809 5.96794e-18)
(0.119319 2.29609 -6.25304e-18)
(1.07536 1.81175 5.79906e-18)
(2.79549 1.3978 -2.86388e-18)
(5.32617 1.37318 2.80761e-18)
(8.59119 2.23908 -2.77372e-18)
(12.344 4.4562 1.35498e-18)
(16.1655 8.28061 2.68478e-18)
(19.0487 13.43 3.96624e-18)
(20.2228 19.1343 -7.82692e-18)
(19.3197 25.0798 5.15197e-18)
(16.2481 30.8372 2.52356e-18)
(12.0778 27.4485 -2.5468e-18)
(14.653 21.8809 2.56969e-18)
(15.335 16.2309 -3.91985e-18)
(14.3537 10.8623 -4.31618e-18)
(12.0316 6.22461 6.72471e-18)
(8.99949 2.9548 -1.36888e-18)
(6.01558 1.15847 2.77554e-18)
(3.46979 0.4834 6.94698e-19)
(1.67426 0.502389 -4.30165e-18)
(0.625756 0.852277 -1.45447e-18)
(0.191232 1.35442 2.9528e-18)
(0.148281 1.91494 0)
(0.26294 2.504 -3.7759e-19)
(0.401887 3.12068 -1.25924e-17)
(0.464426 3.75798 -4.39974e-17)
(0.473177 4.18394 5.2515e-17)
(0.751989 5.17705 5.53912e-17)
(0.937354 5.26779 6.3907e-17)
(1.22272 5.63714 1.18082e-19)
(1.23071 5.67285 7.34104e-17)
(1.20504 5.3439 -1.37394e-16)
(1.42135 4.9367 -3.1882e-17)
(1.5381 4.3866 0)
(1.60473 3.76085 0)
(1.62417 3.10007 0)
(1.58622 2.46511 0)
(11.5991 36.0031 -1.26887e-18)
(8.0546 32.6194 1.2477e-18)
(0.134681 1.76075 -9.85178e-17)
(0.0112671 2.44391 -1.96388e-18)
(-0.0392181 3.12701 7.60233e-18)
(-0.0908866 3.76229 0)
(-0.176011 4.27466 -1.42405e-17)
(-0.256139 4.61551 -1.37033e-17)
(-0.395376 4.79921 6.80846e-18)
(-0.549532 4.66595 2.68922e-17)
(-0.650198 4.40255 0)
(-0.747856 4.18423 -4.65615e-20)
(-0.835776 3.89967 4.78706e-20)
(-0.929753 3.72731 -6.11997e-18)
(-0.910554 3.63291 9.0558e-18)
(-0.600398 3.49071 -9.82822e-21)
(0.226636 3.16224 -5.15303e-18)
(1.80074 2.6467 0)
(4.22722 2.21711 -7.15148e-19)
(7.51971 2.2628 4.23042e-18)
(11.5964 3.27006 -5.54235e-18)
(16.2539 5.72221 -5.4015e-21)
(20.9027 9.84964 5.37555e-18)
(24.1383 15.1483 0)
(25.0796 20.7305 5.21325e-18)
(23.5794 26.3434 -1.66858e-20)
(19.8486 31.6195 -2.54494e-18)
(0.53295 0.967827 -8.55834e-17)
(14.5938 36.2303 -2.50236e-18)
(0.929278 1.23399 8.74712e-17)
(1.49075 1.9161 8.67729e-20)
(4.24558 27.2183 -2.51293e-18)
(7.64899 22.2875 3.17997e-18)
(9.87459 17.2706 0)
(10.6893 12.3474 -9.84482e-19)
(10.1332 7.90485 2.33342e-18)
(8.43204 4.26277 2.69756e-18)
(6.14619 1.72827 -2.75136e-18)
(3.92031 0.267714 0)
(2.13918 -0.372846 -7.08203e-19)
(1.02489 -0.425098 1.43966e-18)
(0.507355 -0.0814821 1.01027e-21)
(0.398119 0.526025 -1.4826e-18)
(0.515094 1.29602 0)
(0.694643 2.15703 2.28711e-18)
(0.838277 3.03254 -9.23011e-18)
(0.939582 3.87341 -6.25454e-18)
(1.07139 4.62769 2.57705e-17)
(1.13782 5.3283 9.69599e-17)
(1.24532 5.65506 7.40396e-18)
(1.38315 5.84239 7.13195e-17)
(1.54742 5.78019 -3.25978e-17)
(1.7365 5.52778 0)
(1.91759 5.12819 0)
(2.05082 4.56963 0)
(2.13029 3.93644 1.13085e-16)
(2.14115 3.26922 -1.32531e-16)
(2.08826 2.6368 1.3676e-16)
(-0.340982 1.69996 -2.69006e-16)
(1.30375 1.64793 0)
(1.48775 1.40235 0)
(1.34371 1.48631 0)
(-0.32794 0.938299 1.98717e-16)
(-0.397327 1.59315 5.54522e-17)
(-0.431925 2.19093 -6.48906e-21)
(-0.498151 2.90226 -9.19976e-19)
(-0.585713 3.55394 9.05373e-19)
(-0.690434 4.07851 7.07425e-18)
(-0.819149 4.43381 -1.37996e-17)
(-0.951177 4.597 9.75527e-21)
(-1.12712 4.55239 0)
(-1.31962 4.40419 2.93799e-17)
(-1.4781 4.27706 1.9006e-17)
(-1.6133 4.21448 -3.10936e-18)
(-1.66093 4.25041 3.06401e-18)
(-1.48181 4.31597 0)
(-0.85801 4.24405 0)
(0.451674 3.88244 -3.68712e-19)
(2.62557 3.29977 0)
(5.74753 2.8429 2.14839e-18)
(9.84197 2.94022 2.73094e-21)
(14.812 4.0922 -1.38785e-18)
(20.359 6.70808 0)
(25.6601 10.7931 -1.36066e-18)
(28.8673 15.6549 1.99237e-18)
(29.2611 20.5073 -3.27914e-18)
(27.1881 25.1934 0)
(22.9052 29.4557 -5.05517e-18)
(17.1232 33.0351 1.24281e-18)
(10.1279 35.6622 -7.81098e-21)
(8.00693 39.7945 0)
(5.67607 40.1987 -6.16656e-19)
(3.03712 37.1984 -1.99448e-18)
(0.461587 1.70989 2.92233e-16)
(0.117914 31.9677 1.53939e-19)
(-0.303783 1.909 -8.48429e-16)
(-1.11124 1.28394 -1.95494e-16)
(1.40258 1.55928 0)
(0.384073 2.01187 2.85294e-16)
(0.843762 1.73018 -5.82689e-16)
(0.355161 0.965372 3.60854e-17)
(1.96434 2.07558 -2.08891e-16)
(3.12214 37.8255 -1.21288e-18)
(1.14508 42.5748 -1.20685e-18)
(-0.506235 43.5115 -1.51857e-19)
(-2.11202 40.8828 2.42774e-18)
(-3.91808 36.2749 1.5149e-19)
(-6.45825 32.0048 0)
(-3.05917 26.6261 1.23639e-18)
(0.465088 21.7009 2.5195e-18)
(3.44839 16.9679 -6.34502e-19)
(5.48317 12.5681 -2.59617e-18)
(6.4658 8.53015 -2.96476e-18)
(6.34393 5.13144 4.01955e-18)
(5.36959 2.4596 1.3553e-18)
(3.97439 0.571942 -2.76764e-18)
(2.58186 -0.586809 2.10693e-18)
(1.512 -1.1415 -6.23339e-19)
(0.886761 -1.21091 0)
(0.66267 -0.809439 0)
(0.685181 -0.0460878 0)
(0.830188 0.940745 3.02751e-18)
(0.985866 2.04713 -1.54022e-18)
(1.09942 3.14984 4.30812e-21)
(1.17193 4.15486 -1.27444e-17)
(1.24518 4.98716 0)
(1.33735 5.59425 -1.37619e-17)
(1.49063 5.94325 1.44069e-17)
(1.70207 6.06942 3.0037e-17)
(1.91303 5.97139 1.55206e-17)
(2.13389 5.68607 6.27221e-17)
(2.35005 5.25983 -6.26722e-17)
(2.5063 4.71213 0)
(2.59111 4.0954 1.59125e-17)
(2.59178 3.4518 -3.23445e-17)
(2.50631 2.84424 -6.62723e-17)
(-0.302361 0.455223 3.28249e-17)
(0.309209 1.42471 0)
(0.944012 1.66102 -4.48576e-19)
(-0.0896757 1.34837 3.67734e-16)
(-0.348314 0.981937 -7.76691e-17)
(-0.513778 0.745723 8.73934e-17)
(-0.601054 0.490511 -1.64667e-17)
(-0.662367 0.414522 3.1737e-17)
(-0.720944 0.534465 -1.53419e-17)
(-0.781335 0.867078 0)
(-0.809407 1.41094 -1.4506e-17)
(-0.869868 2.04779 -1.45379e-17)
(-0.94905 2.73691 0)
(-1.05432 3.39478 0)
(-1.18029 3.93297 8.77823e-19)
(-1.34098 4.31394 -7.75984e-18)
(-1.52388 4.5153 0)
(-1.72525 4.55866 0)
(-1.94073 4.53181 -9.78361e-18)
(-2.15374 4.54749 -6.38917e-18)
(-2.30816 4.66553 1.25606e-17)
(-2.29175 4.86436 3.0961e-18)
(-1.9471 5.01226 7.61716e-19)
(-1.03786 4.91387 3.00442e-18)
(0.68263 4.43833 -3.33578e-18)
(3.36784 3.7398 0)
(7.11208 3.22074 -1.43897e-18)
(11.9661 3.34124 0)
(17.84 4.55795 0)
(24.3659 7.11069 0)
(30.3004 10.7655 -5.41279e-18)
(33.3504 14.793 0)
(33.2069 18.4819 -2.9353e-18)
(30.6853 21.7129 4.83907e-19)
(25.9236 24.5877 9.99289e-18)
(19.6148 26.9051 0)
(12.3931 28.562 -4.91066e-18)
(5.46808 30.2195 7.52309e-20)
(0.689919 -10.1395 0)
(0.246566 2.22642 4.64959e-16)
(-2.60092 0.831376 8.19795e-16)
(-0.499237 3.9797 0)
(0.75109 -5.49085 -2.71164e-16)
(-0.512161 2.05264 9.74767e-16)
(1.75256 1.57737 -6.51172e-20)
(0.130237 0.399718 6.90336e-17)
(-10.7147 30.3348 -1.5275e-19)
(-7.12738 23.2499 -1.2424e-18)
(-3.4506 17.6649 1.26135e-18)
(-0.257913 12.7444 0)
(1.97018 8.78754 0)
(3.31018 5.46794 1.65414e-19)
(3.73048 2.91877 -6.73688e-19)
(3.46834 0.993868 -2.39169e-18)
(2.81763 -0.348876 1.73384e-19)
(2.06789 -1.20909 -3.63182e-19)
(1.48222 -1.64991 -4.38909e-19)
(1.12619 -1.65759 1.99772e-18)
(0.983558 -1.1793 1.84157e-19)
(0.99654 -0.28678 -1.49935e-18)
(1.081 0.865649 0)
(1.1662 2.14811 6.17598e-18)
(1.22848 3.3932 -3.10795e-21)
(1.28701 4.48059 3.21443e-17)
(1.37136 5.33355 -2.63652e-17)
(1.50315 5.90157 0)
(1.69588 6.19126 2.83513e-17)
(1.92826 6.22605 -8.7959e-17)
(2.20149 6.10448 4.51513e-17)
(2.45967 5.80891 6.09178e-17)
(2.68485 5.37193 1.39372e-19)
(2.85092 4.8431 -6.17129e-17)
(2.9321 4.25065 6.2556e-17)
(2.91203 3.64467 6.36333e-17)
(2.78799 3.09149 -6.41353e-17)
(2.34504 2.32992 -1.33021e-16)
(0.88741 2.47104 -1.09095e-18)
(-2.01444 1.43267 7.15306e-19)
(-0.869167 1.63404 -6.48478e-17)
(-0.879931 0.994084 -8.50317e-18)
(-0.91089 0.708961 -2.48548e-17)
(-0.96991 0.462582 -8.03328e-18)
(-1.03076 0.377501 0)
(-1.09696 0.487061 1.52285e-17)
(-1.15548 0.813222 -7.43988e-18)
(-1.21108 1.32319 -7.31363e-18)
(-1.28537 1.9559 3.6445e-18)
(-1.37464 2.6417 3.60249e-18)
(-1.49084 3.30222 7.10685e-18)
(-1.628 3.85771 0)
(-1.79998 4.27267 6.87235e-18)
(-1.99795 4.53298 -6.662e-18)
(-2.22259 4.67712 -1.04099e-19)
(-2.47174 4.79105 -1.96227e-17)
(-2.70249 4.96634 1.60336e-18)
(-2.84948 5.23733 -7.89129e-18)
(-2.78077 5.53978 0)
(-2.29855 5.70215 -2.48195e-18)
(-1.16294 5.50915 1.896e-19)
(0.854175 4.87484 3.34659e-18)
(3.91155 4.02854 0)
(8.14818 3.39137 0)
(13.6649 3.42515 -8.88281e-20)
(20.4262 4.47184 -2.70621e-18)
(27.9367 6.66239 2.75099e-18)
(34.578 9.5734 3.40831e-18)
(37.7283 12.4475 -6.69031e-19)
(37.5008 14.7794 1.98389e-18)
(34.9165 16.4224 -6.43337e-19)
(29.64 17.9054 -5.09303e-18)
(22.6626 19.0509 4.9988e-18)
(15.1904 19.8652 1.10579e-17)
(8.28283 21.1134 4.83035e-18)
(0.150961 21.6528 0)
(-2.37095 31.0885 -2.44479e-18)
(-4.35487 39.1901 -1.96207e-21)
(-5.73539 44.2546 2.67548e-18)
(-6.49764 45.726 8.96096e-19)
(-6.99184 43.6615 -1.18777e-18)
(-7.69227 39.799 2.38897e-18)
(-9.54887 36.8245 -2.3864e-18)
(-13.6256 36.4987 -1.19947e-18)
(-2.3799 0.0909231 -3.09755e-16)
(-0.859671 -6.94718 -7.87635e-17)
(0.070784 0.46455 -1.61655e-16)
(-0.316546 2.03259 -4.77705e-16)
(-0.837079 1.06489 -2.46875e-16)
(-1.73424 -6.59517 9.80262e-17)
(2.59164 2.60989 0)
(2.14401 1.85277 2.6898e-16)
(0.66135 2.42381 7.04761e-16)
(0.474374 2.21696 2.87923e-16)
(-0.220988 1.66986 -3.01621e-16)
(0.799581 1.36036 5.90601e-16)
(-1.07173 1.27816 0)
(-1.19095 0.990641 8.33242e-18)
(-1.26108 0.674967 -2.03533e-18)
(-1.32198 0.439838 -3.76588e-17)
(-1.38165 0.36391 7.73746e-18)
(-1.44593 0.475408 0)
(-1.51003 0.797222 -2.87748e-22)
(-1.58235 1.30411 -1.83192e-18)
(-1.67009 1.93273 0)
(-1.77137 2.61718 -3.57823e-18)
(-1.89461 3.2802 -3.53184e-18)
(-2.03276 3.85232 0)
(-2.20218 4.30618 8.56945e-19)
(-2.39666 4.63586 -8.46511e-19)
(-2.61892 4.88861 8.31997e-19)
(-2.86217 5.14399 1.2277e-17)
(-3.08378 5.47469 0)
(-3.20935 5.88905 1.5829e-18)
(-3.0831 6.26482 -7.78782e-19)
(-2.50335 6.38663 1.92123e-19)
(-1.23298 6.0555 5.69033e-19)
(0.934781 5.24378 -3.36538e-18)
(4.17563 4.22998 0)
(8.7051 3.42324 7.2303e-19)
(14.7529 3.21471 1.42126e-18)
(22.2716 3.83853 1.41333e-18)
(30.5972 5.26326 -1.7663e-20)
(38.0139 6.97138 -6.79089e-19)
(41.6802 8.48555 -2.00105e-18)
(41.9304 9.35184 -1.31591e-18)
(39.5748 9.85877 -1.28741e-18)
(33.8159 10.3989 0)
(26.2858 10.7198 -5.02276e-18)
(18.6019 10.8705 -4.92543e-18)
(11.4883 11.7757 -3.61939e-18)
(3.0845 11.7774 -6.52552e-18)
(-3.25827 15.432 2.90775e-18)
(-6.60193 23.8244 -2.33496e-18)
(-9.57964 32.568 0)
(-11.4024 40.5893 1.16983e-18)
(-12.1354 45.352 1.17549e-18)
(-11.9298 46.8865 -2.32983e-18)
(-10.9433 45.2317 2.34397e-18)
(-10.27 42.4703 -8.23182e-22)
(-11.392 41.0495 -1.17248e-18)
(-14.6863 42.3791 3.53143e-18)
(-20.1148 44.0472 -3.54072e-18)
(-19.9745 37.4574 5.99565e-19)
(-17.3113 30.8512 -4.57743e-19)
(-12.8635 22.3603 9.34559e-19)
(-7.95305 15.7384 -3.15864e-18)
(-3.72714 10.2636 1.20389e-18)
(-0.712767 6.3693 0)
(1.24791 3.4506 1.66019e-19)
(2.25812 1.45655 2.3651e-18)
(2.58075 0.0833494 -3.43016e-19)
(2.45051 -0.84302 8.69953e-19)
(2.14852 -1.46349 8.17838e-23)
(1.81617 -1.76919 3.61956e-19)
(1.54273 -1.70545 -1.82142e-19)
(1.37265 -1.16986 1.29446e-18)
(1.30033 -0.208111 -4.50615e-18)
(1.2794 1.03987 6.64975e-21)
(1.27078 2.41879 3.1066e-18)
(1.27905 3.7215 -3.1579e-18)
(1.32569 4.82012 -2.57677e-17)
(1.42052 5.63459 2.63355e-17)
(1.58353 6.13662 0)
(1.81075 6.38156 -5.58316e-17)
(2.06685 6.37395 4.27519e-17)
(2.35004 6.20788 -4.39465e-17)
(2.62526 5.88816 0)
(2.86381 5.45302 0)
(3.0235 4.95344 0)
(3.08653 4.41533 -7.65734e-18)
(3.02319 3.88144 -5.03429e-21)
(2.85197 3.39011 1.24793e-16)
(0.991821 2.62831 -3.17399e-16)
(2.32804 2.15717 1.34859e-16)
(1.9328 1.32413 -1.28174e-16)
(-0.22657 0.553596 1.64618e-17)
(0.352657 2.26903 3.40883e-16)
(-0.139083 1.94562 2.9097e-16)
(-0.480718 1.91774 3.22584e-20)
(-0.913879 1.76108 -2.98456e-16)
(-2.17168 1.08926 -2.04895e-16)
(-1.22566 2.0107 -2.00853e-16)
(-1.50623 1.5173 7.26954e-17)
(-1.55027 1.23334 -1.65708e-17)
(-1.55149 0.93756 -3.25066e-17)
(-1.59228 0.64804 0)
(-1.64068 0.439731 3.13723e-17)
(-1.70059 0.382085 0)
(-1.76685 0.506399 0)
(-1.84249 0.836001 7.42753e-18)
(-1.93128 1.34895 1.83146e-18)
(-2.03156 1.97593 0)
(-2.13835 2.65681 3.56882e-18)
(-2.25514 3.32011 -5.75923e-21)
(-2.3814 3.90646 -2.88198e-21)
(-2.52881 4.39711 3.42592e-18)
(-2.69791 4.79392 3.8039e-18)
(-2.89193 5.1554 -3.74628e-18)
(-3.10131 5.55972 -6.76507e-18)
(-3.28697 6.0478 2.02087e-19)
(-3.36807 6.57625 -1.19452e-18)
(-3.19185 6.9969 3.93793e-19)
(-2.56115 7.0685 1.54494e-18)
(-1.27343 6.60697 -1.14314e-18)
(0.887034 5.6324 1.50191e-18)
(4.12565 4.43973 7.16464e-22)
(8.73295 3.4108 -3.63339e-18)
(15.0288 2.83037 1.43394e-18)
(22.9554 2.73761 1.41051e-18)
(31.8144 2.97584 -2.09e-18)
(39.9625 3.10801 2.72639e-18)
(44.4429 3.05667 2.69874e-18)
(45.4038 2.76526 0)
(43.0884 2.50263 7.80721e-18)
(37.0749 2.46137 1.27767e-18)
(29.3143 2.32599 1.25502e-18)
(21.5424 2.07255 0)
(14.1464 2.89193 0)
(5.91136 2.27971 3.56434e-18)
(-0.29428 7.55233 -4.19976e-21)
(-15.1943 2.75465 -5.71961e-19)
(-15.883 12.6166 5.7252e-19)
(-16.9716 23.3504 0)
(-18.1513 32.5923 0)
(-18.5487 40.2703 -5.74152e-19)
(-18.0333 44.9143 1.72028e-18)
(-16.4581 46.5803 0)
(-14.0337 45.4405 -1.15378e-18)
(-12.4639 43.8733 -1.1509e-18)
(-12.3459 43.6938 2.30347e-18)
(-14.5484 45.6355 -1.15651e-18)
(-17.6395 46.3936 3.48257e-18)
(-20.9422 42.9309 5.83712e-19)
(-25.8265 42.095 5.91691e-19)
(-27.153 36.303 1.205e-18)
(-25.2646 30.5323 0)
(-20.0806 22.1283 -4.68369e-19)
(-13.3439 14.8876 -1.18823e-19)
(-7.3224 8.96686 7.26811e-19)
(-2.93583 5.04046 -1.63813e-19)
(-0.0810007 2.38514 -3.33522e-19)
(1.57393 0.752959 -2.70757e-18)
(2.35377 -0.255739 6.87681e-19)
(2.57556 -0.884749 -1.74581e-18)
(2.49398 -1.3201 8.8569e-19)
(2.27405 -1.51521 -3.59655e-19)
(2.01148 -1.38597 0)
(1.75665 -0.826454 0)
(1.57472 0.144512 0)
(1.43263 1.41451 -1.52979e-18)
(1.33315 2.80371 0)
(1.2931 4.091 4.07488e-21)
(1.32189 5.14761 1.28674e-17)
(1.42242 5.90093 -6.56717e-18)
(1.59625 6.33231 1.34268e-17)
(1.83349 6.50413 4.13903e-17)
(2.11146 6.4447 7.59493e-21)
(2.40676 6.25114 -1.43769e-17)
(2.6812 5.93235 -2.90444e-17)
(2.88981 5.53275 5.83055e-17)
(3.00137 5.0795 -2.96142e-17)
(3.0035 4.60418 -5.84333e-21)
(2.87961 4.15199 1.51203e-17)
(2.66055 3.7135 -1.39061e-20)
(2.60656 2.93491 -1.92307e-16)
(0.806209 2.54845 -3.29511e-16)
(1.01993 2.77634 6.18733e-16)
(-2.29303 -6.09594 0)
(2.29529 2.5376 -1.32479e-16)
(-1.53047 1.47802 5.32066e-16)
(-1.38139 1.46001 -2.86677e-16)
(-0.910046 1.52192 -5.53013e-16)
(1.39638 1.4494 -4.33223e-17)
(-0.158698 1.04719 -4.22768e-17)
(-0.0464365 0.636626 -1.65161e-17)
(2.01103 1.76277 -1.57769e-19)
(-0.0406798 1.93216 -3.36986e-16)
(-0.376129 1.68861 2.81458e-16)
(-18.9585 17.0387 -5.56539e-19)
(-21.0501 22.0749 -5.57954e-19)
(-23.3222 28.6417 0)
(-24.6675 35.4691 -5.61467e-19)
(-24.7185 41.329 5.63215e-19)
(-23.2713 44.2413 -5.63891e-19)
(-19.9059 45.3769 5.61798e-19)
(-16.0837 44.4635 1.1273e-18)
(-12.9242 43.6708 -1.12259e-18)
(-11.0201 44.9094 2.25168e-18)
(-11.2809 47.7809 -3.39322e-18)
(-12.0585 48.8099 0)
(-13.9797 46.3112 -2.96431e-21)
(-14.4746 38.351 0)
(-22.7778 34.168 -3.48654e-18)
(-29.9599 34.731 1.18641e-18)
(-33.1601 30.4449 0)
(-32.4553 26.5748 0)
(-27.3279 19.8964 3.1258e-19)
(-19.1037 13.4471 -3.97615e-20)
(-11.0341 7.82423 0)
(-4.95754 4.11134 -1.64883e-19)
(-1.01078 1.80918 1.67279e-19)
(1.31372 0.542243 6.78408e-19)
(2.45516 -0.156396 3.44424e-19)
(2.89787 -0.567756 7.00151e-19)
(2.91688 -0.844777 9.85173e-22)
(2.71648 -0.950481 -1.44286e-18)
(2.40945 -0.782722 3.66084e-19)
(2.0707 -0.24372 1.48704e-18)
(1.78077 0.684599 3.7501e-19)
(1.53974 1.91704 -7.67673e-19)
(1.37382 3.24802 1.55361e-18)
(1.30507 4.46213 -4.7384e-18)
(1.32788 5.44026 -6.4209e-18)
(1.43868 6.11139 3.26998e-18)
(1.62624 6.46235 -6.67471e-18)
(1.86752 6.56406 0)
(2.14482 6.46894 -2.08875e-17)
(2.40139 6.26698 4.26825e-17)
(2.60479 5.96759 0)
(2.74008 5.621 0)
(2.77191 5.23793 0)
(2.68345 4.84471 1.10322e-17)
(2.48696 4.44974 -5.68058e-21)
(2.22291 4.05361 2.96971e-20)
(2.37173 3.31395 -1.23841e-16)
(0.897068 1.95702 -3.14153e-16)
(0.619864 2.39408 -6.04916e-19)
(-0.870929 2.70093 2.51573e-16)
(0.946129 -7.88129 0)
(-1.86663 1.16689 -1.56565e-17)
(-1.88619 0.892242 0)
(-1.89928 0.641096 0)
(-1.93063 0.468999 7.75487e-18)
(-1.9837 0.43634 -1.52866e-17)
(-2.05435 0.584528 0)
(-2.14422 0.934628 7.42782e-18)
(-2.24878 1.45407 0)
(-2.35739 2.07617 -1.80539e-18)
(-2.46463 2.74698 1.7807e-18)
(-2.56794 3.40332 -8.80256e-18)
(-2.66932 3.99773 2.03104e-21)
(-2.77627 4.52229 -3.42526e-18)
(-2.89752 4.98908 6.76081e-18)
(-3.04368 5.45584 4.99456e-18)
(-3.1995 5.98978 -4.92793e-18)
(-3.32399 6.61767 0)
(-3.34474 7.25902 -2.70725e-21)
(-3.13072 7.72486 -2.36084e-18)
(-2.50706 7.76327 0)
(-1.29631 7.21262 0)
(0.709828 6.11878 7.52887e-19)
(3.75771 4.75933 2.22655e-18)
(8.20087 3.4516 -1.45931e-18)
(14.3813 2.40481 1.43915e-18)
(22.2503 1.46506 -2.82842e-18)
(31.3497 0.334134 -6.98027e-19)
(40.1667 -1.37023 -5.48554e-18)
(45.4198 -3.05843 2.70031e-18)
(46.9417 -4.19925 0)
(44.9635 -5.3516 -5.2239e-18)
(39.0682 -5.93711 -2.56293e-18)
(31.3101 -6.32074 0)
(23.5424 -6.64614 2.46721e-18)
(15.9728 -5.85906 1.60923e-21)
(9.03657 -6.88196 3.57441e-18)
(1.33727 -0.540609 3.4934e-18)
(-11.4858 -7.39469 0)
(-14.2227 15.3925 -1.09996e-18)
(0.904668 2.91077 -3.08062e-16)
(0.905802 2.66847 -6.32778e-16)
(0.9569 -8.43413 1.20928e-16)
(1.67266 2.03893 -1.19999e-16)
(0.10592 2.15561 5.75265e-16)
(2.01038 2.23477 -5.81775e-20)
(-15.1426 27.2004 5.71148e-19)
(-22.6816 21.4581 2.90643e-18)
(-32.3902 23.7048 -2.36887e-18)
(-36.9049 20.6419 0)
(-37.5876 18.7002 0)
(-33.0682 14.3404 0)
(-24.0579 10.0328 0)
(-14.3401 5.87205 6.48093e-19)
(-6.67132 3.00758 -3.29592e-19)
(-1.6469 1.36634 1.67743e-19)
(1.27274 0.597743 -1.01979e-18)
(2.68995 0.227959 6.90761e-19)
(3.23214 0.0332382 3.50637e-19)
(3.26505 -0.129046 -5.3373e-19)
(3.02735 -0.186562 0)
(2.66133 -0.0212818 -5.91336e-23)
(2.2606 0.470327 -3.72248e-19)
(1.89466 1.32418 3.77887e-19)
(1.6016 2.46369 7.66705e-19)
(1.40764 3.68176 -8.75099e-19)
(1.33603 4.78165 8.87461e-19)
(1.3673 5.65555 -2.40437e-18)
(1.49372 6.2352 -4.88448e-18)
(1.68445 6.5187 3.30623e-18)
(1.90537 6.57746 0)
(2.122 6.46814 -1.20874e-20)
(2.30623 6.28358 -2.10822e-17)
(2.42344 6.02688 1.77273e-17)
(2.44658 5.75289 -3.59866e-18)
(2.36393 5.44272 0)
(2.17836 5.12048 -3.63788e-18)
(1.92797 4.76017 5.08409e-17)
(1.62411 4.35819 -2.85922e-17)
(1.9108 3.6816 1.17318e-16)
(1.09695 2.03923 6.38826e-16)
(0.477909 2.12043 -6.47626e-19)
(-35.9127 -4.93852 -2.6433e-19)
(-38.889 1.44293 1.6579e-18)
(-38.6662 9.0107 2.78089e-19)
(-36.9976 19.4598 0)
(-34.6029 28.2974 -5.486e-19)
(-31.1636 34.566 5.48383e-19)
(-26.6581 38.6608 -8.23964e-19)
(-21.9159 40.3353 -1.91974e-18)
(-16.8657 40.733 2.18914e-18)
(-12.8134 41.4898 0)
(-9.82912 43.6304 -1.09706e-18)
(-8.22999 46.5799 3.33095e-18)
(-7.1052 47.2022 -2.21786e-18)
(-5.25633 41.724 -1.11671e-18)
(-0.887394 31.4374 1.65696e-18)
(2.28206 19.7201 -2.23202e-18)
(0.773948 2.25392 6.14705e-16)
(-1.01262 1.15308 -2.62409e-16)
(-1.36666 1.13771 2.65203e-16)
(-1.72818 1.13741 5.25063e-16)
(-2.01656 1.13934 2.46534e-16)
(1.00215 1.28317 5.65696e-19)
(1.08541 1.40678 1.82775e-16)
(-2.27568 -0.0178237 0)
(-0.646713 3.24876 0)
(-2.25292 0.995508 0)
(-2.16823 0.811639 3.92561e-18)
(-2.14506 0.623748 -7.80838e-18)
(-2.16306 0.503139 8.61567e-21)
(-2.20973 0.515995 2.28903e-17)
(-2.286 0.703078 -1.50611e-17)
(-2.38805 1.08014 4.98676e-21)
(-2.50589 1.6074 7.30969e-18)
(-2.61963 2.22274 -1.26362e-17)
(-2.72434 2.87774 1.79393e-18)
(-2.80841 3.51861 7.04231e-18)
(-2.88025 4.11038 -1.73623e-18)
(-2.94326 4.65721 1.71149e-18)
(-3.01163 5.18127 -5.07552e-18)
(-3.09037 5.74169 1.66586e-18)
(-3.16997 6.39531 4.92732e-18)
(-3.21997 7.15038 -3.24065e-18)
(-3.17988 7.9019 3.19981e-18)
(-2.94612 8.42441 1.18265e-18)
(-2.37175 8.46382 2.71933e-18)
(-1.3065 7.8828 -3.44815e-18)
(0.447259 6.73574 2.26623e-18)
(3.14589 5.27321 -4.0926e-18)
(7.1668 3.73068 -2.9263e-18)
(12.9168 2.26174 2.89101e-18)
(20.3633 0.440258 1.42093e-18)
(29.2452 -2.0899 -1.39544e-18)
(38.4073 -5.70149 0)
(44.7055 -9.18075 -2.70142e-18)
(46.9319 -11.3956 1.32606e-18)
(45.685 -13.6113 -2.61061e-18)
(40.2941 -14.7121 -3.85016e-18)
(32.676 -15.0126 -2.5223e-18)
(24.7668 -14.933 -4.94745e-18)
(17.2998 -14.4028 1.21275e-18)
(10.4192 -14.1798 -1.19151e-18)
(2.7226 -10.4617 -2.33977e-18)
(-2.61642 -16.2361 0)
(-13.6159 8.47894 0)
(-33.2134 -19.2958 0)
(0.643858 -7.70987 0)
(2.04809 2.92787 1.42882e-19)
(1.50543 1.30041 6.59691e-16)
(0.621803 3.01652 3.07904e-16)
(0.780434 2.47706 3.17248e-16)
(0.871534 2.80615 6.24484e-16)
(0.984189 1.47734 -3.104e-16)
(0.620437 -8.65648 -1.03079e-16)
(0.592615 -11.6452 0)
(1.08852 1.21069 -3.48043e-16)
(1.69438 2.00834 -1.4012e-16)
(1.20102 3.9573 -5.19371e-17)
(1.06454 1.13017 -9.13324e-16)
(-2.22974 -0.679739 3.28356e-16)
(-0.445766 2.26637 2.51513e-16)
(0.12108 -8.77369 -5.4508e-17)
(4.86221 7.02287 -1.1048e-18)
(-16.0944 16.5084 -2.84932e-19)
(-21.8635 7.27285 -8.81453e-19)
(-33.522 11.326 1.04256e-21)
(-39.8035 8.68708 0)
(-40.973 8.43059 0)
(-36.5773 6.31136 0)
(-27.039 4.58543 -1.59441e-19)
(-16.3701 2.7802 -2.02509e-19)
(-7.68493 1.52148 2.06074e-19)
(-1.88816 0.917613 -1.6706e-19)
(1.39682 0.778487 4.24949e-19)
(2.92784 0.785365 -5.18385e-19)
(3.44135 0.778452 0)
(3.42017 0.707497 0)
(3.12204 0.663693 0)
(2.7137 0.790401 0)
(2.28908 1.20287 0)
(1.90418 1.94541 0)
(1.61097 2.95575 -1.91842e-19)
(1.43586 4.03409 7.77633e-19)
(1.38538 5.00342 0)
(1.4379 5.76949 -2.00285e-18)
(1.57485 6.26674 3.65115e-18)
(1.75426 6.50455 3.29609e-18)
(1.93195 6.55011 0)
(2.07673 6.46757 1.02777e-17)
(2.14464 6.3237 -1.04364e-17)
(2.12588 6.13052 -3.50786e-18)
(2.01912 5.92195 7.13312e-18)
(1.82256 5.66907 -1.07934e-17)
(1.5577 5.37656 5.42359e-18)
(1.25262 5.02192 -1.44278e-17)
(0.942486 4.62863 3.59559e-18)
(0.710706 4.31412 1.1213e-16)
(0.748042 2.0483 3.42617e-16)
(-1.46845 -0.0373327 5.00309e-16)
(-1.33634 -0.0504917 2.46016e-16)
(-29.3241 33.4235 0)
(-35.261 31.4257 3.38806e-21)
(-35.6966 32.3709 -5.27915e-19)
(-35.0208 34.7001 -2.6485e-19)
(-34.7719 38.1149 -6.67521e-20)
(-34.6024 41.2501 6.70678e-20)
(-31.9686 44.0404 0)
(-27.0966 45.212 0)
(-21.5423 45.5172 8.01794e-19)
(-15.8779 45.102 -2.15024e-18)
(-10.8142 45.3423 2.67707e-18)
(-6.05732 46.9382 0)
(-0.855819 49.2605 -2.16478e-18)
(3.44084 50.0825 2.1586e-18)
(7.70685 47.3657 5.35344e-19)
(8.92488 42.6443 5.40283e-19)
(9.13009 36.1875 0)
(10.6591 33.5874 0)
(0.279585 1.13743 0)
(-1.31042 0.653895 2.53625e-16)
(-1.73087 0.654133 0)
(-2.0474 0.699827 -5.18951e-16)
(-2.23518 0.806122 2.58825e-16)
(-2.46033 0.930334 4.64639e-16)
(1.10872 -6.33027 -8.66284e-17)
(0.219007 1.73548 3.02941e-16)
(-2.39737 0.909046 8.46558e-18)
(-2.34693 0.857135 -6.45431e-17)
(-2.30843 0.724085 2.77809e-17)
(-2.28922 0.59303 -3.13478e-17)
(-2.30133 0.535516 -1.35146e-17)
(-2.34643 0.609053 1.90897e-17)
(-2.42645 0.848175 3.75519e-18)
(-2.53759 1.25744 -1.85468e-17)
(-2.66595 1.79534 1.09848e-17)
(-2.78551 2.39871 0)
(-2.88566 3.02823 -8.90283e-18)
(-2.95047 3.64389 5.2828e-18)
(-2.992 4.22427 8.68085e-18)
(-3.01053 4.78266 1.70961e-18)
(-3.02364 5.35134 -6.76742e-18)
(-3.03536 5.98621 -3.33673e-18)
(-3.03981 6.74242 0)
(-3.01767 7.61199 0)
(-2.92412 8.46848 -8.00961e-19)
(-2.68171 9.06606 -3.95036e-19)
(-2.17905 9.14686 3.89071e-18)
(-1.29427 8.58761 7.68026e-19)
(0.154712 7.45202 -2.64758e-18)
(2.3988 5.96145 5.70247e-22)
(5.80139 4.27694 0)
(10.7744 2.51554 0)
(17.4621 0.0390504 -2.83931e-18)
(25.6165 -3.72377 4.21163e-18)
(34.6526 -9.00032 -1.37842e-18)
(42.1728 -14.7569 1.41335e-22)
(45.5251 -18.6725 1.33317e-18)
(45.1018 -21.7053 1.3104e-18)
(40.6007 -23.1149 7.71725e-18)
(33.2826 -22.817 0)
(25.4227 -22.229 3.72296e-18)
(18.1976 -21.5713 -3.64901e-18)
(11.1352 -20.7326 2.3906e-18)
(4.1306 -19.5678 -2.34201e-18)
(-1.01152 -22.5673 2.29507e-18)
(-13.2819 -8.9969 0)
(-17.7871 -31.2175 0)
(-24.9459 29.9724 -1.02827e-18)
(0.491502 2.46885 6.04668e-16)
(1.58163 3.28013 -1.20845e-16)
(-0.277888 1.10555 -2.57479e-16)
(-0.0982438 3.04558 6.0539e-16)
(0.0690072 3.10675 6.59526e-19)
(0.225348 3.08686 6.19169e-16)
(1.73737 2.62653 1.34302e-16)
(0.778546 2.32929 -6.75134e-16)
(0.674112 2.91718 0)
(0.759359 2.59786 0)
(-0.0365415 -10.4448 -5.96332e-17)
(-2.38458 2.07022 -3.119e-16)
(0.506576 -4.80703 2.37884e-17)
(1.86694 1.4609 -5.44976e-16)
(-0.259394 3.85875 -6.06875e-17)
(0.7977 1.99359 -3.77456e-16)
(0.825397 -8.36249 0)
(0.661504 -7.53265 -5.31036e-17)
(0.0309374 4.36465 0)
(0.300224 4.82279 1.85163e-18)
(0.582297 5.24435 3.64874e-18)
(0.899789 5.61347 1.35438e-18)
(1.22715 5.90314 2.23738e-19)
(1.52503 6.11902 0)
(1.76231 6.27188 4.37244e-18)
(1.91231 6.3904 -4.32523e-18)
(1.9633 6.46459 1.69358e-18)
(1.91809 6.48675 -3.33496e-18)
(1.80031 6.41296 8.23199e-19)
(1.64207 6.18585 0)
(1.49319 5.74705 1.59855e-18)
(1.40551 5.07867 -7.90146e-19)
(1.41114 4.23637 7.78518e-19)
(1.53073 3.30533 -1.3433e-18)
(1.77469 2.44288 1.5368e-18)
(2.12017 1.82719 5.40479e-22)
(2.53081 1.52546 -7.81029e-19)
(2.96238 1.48924 3.62009e-19)
(3.31673 1.57848 -4.0151e-19)
(3.44145 1.61448 0)
(3.0566 1.48408 1.72863e-19)
(1.63711 1.10767 -8.51002e-20)
(-1.64237 0.558581 -3.35487e-19)
(-7.55462 -0.0716645 2.85873e-19)
(-16.472 -0.875232 4.05113e-20)
(-27.6166 -1.79095 -1.59582e-19)
(-37.892 -3.05296 0)
(-42.3561 -3.24876 0)
(-41.1942 -3.93642 -6.04117e-19)
(-32.4998 -1.42046 3.26247e-18)
(-23.9966 -6.00512 -5.91083e-19)
(-14.4144 7.39162 0)
(-0.827333 -8.71611 2.25634e-18)
(2.88971 31.8618 1.80404e-20)
(0.369812 -6.92797 2.79981e-16)
(-50.4668 -33.7419 1.10279e-18)
(-49.3072 -13.8377 0)
(-49.9959 -12.0917 -2.50791e-19)
(-50.5238 -11.9613 2.44118e-19)
(-50.4447 -7.84694 6.69291e-19)
(-47.3248 2.89821 -5.25995e-19)
(-42.8875 10.3996 1.37659e-19)
(-37.2194 12.8519 2.74505e-19)
(-30.7813 14.5893 1.83761e-18)
(-24.1609 18.0443 -2.64224e-18)
(-17.5303 20.7643 -2.11307e-18)
(-11.1529 23.7909 2.11012e-18)
(-4.62039 25.2977 -2.68778e-19)
(2.90245 26.8608 5.39665e-19)
(10.5954 26.9501 -2.10987e-18)
(18.7968 22.511 -5.27732e-19)
(25.5864 15.3847 2.12546e-18)
(32.1098 3.84716 0)
(35.1609 -2.67537 1.149e-18)
(38.3163 -13.749 -5.80701e-19)
(0.444349 2.35407 3.14272e-16)
(1.06243 3.53954 -1.05757e-16)
(-0.249132 2.94639 -2.97722e-16)
(0.40725 -9.46994 0)
(0.827512 -9.22924 0)
(0.971437 -9.23273 -1.00558e-16)
(0.944323 -9.22092 -2.5279e-17)
(0.910733 -9.30065 -3.1432e-17)
(0.822021 -8.36135 -7.62264e-17)
(0.689761 -7.44503 1.04539e-16)
(0.52747 -6.67003 5.62352e-17)
(-0.417753 2.80776 0)
(0.077046 -6.63513 -5.4883e-17)
(-2.4873 2.2094 6.97251e-19)
(-2.97765 0.422289 2.80721e-16)
(-2.58503 1.15032 -2.67609e-16)
(-0.599118 3.09713 -3.0552e-16)
(-0.427351 3.12662 0)
(-0.254013 3.08074 0)
(1.40922 2.40058 2.83133e-16)
(0.11311 2.68207 5.9422e-16)
(0.40511 -9.72166 -7.59033e-17)
(-1.76405 0.0696519 2.56735e-16)
(-2.07908 0.131698 -2.61378e-16)
(-2.33162 0.202092 0)
(-2.54336 0.275753 -5.44961e-16)
(-2.73577 0.352238 2.70815e-16)
(-2.54955 0.570329 -3.59075e-16)
(-2.58056 0.028803 -2.23078e-16)
(-2.55262 0.750939 6.87735e-17)
(-2.45718 0.77297 -7.57995e-17)
(-2.38482 0.72666 3.2952e-17)
(-2.33551 0.645123 -3.21366e-17)
(-2.31391 0.574402 0)
(-2.32312 0.57827 -1.93807e-18)
(-2.3694 0.710899 -2.86809e-18)
(-2.45555 1.00195 1.12894e-17)
(-2.57458 1.4476 3.69515e-18)
(-2.70628 1.99594 -1.83049e-17)
(-2.82797 2.58356 7.22908e-18)
(-2.92303 3.17963 8.90299e-18)
(-2.97494 3.76074 -7.03606e-18)
(-2.99097 4.32037 4.33567e-18)
(-2.97509 4.88014 -4.28481e-18)
(-2.94417 5.47696 -1.68789e-18)
(-2.89973 6.16613 5.01098e-18)
(-2.84064 7.00154 8.23172e-19)
(-2.75251 7.96931 3.2415e-18)
(-2.61069 8.92808 -3.21155e-18)
(-2.36494 9.61421 0)
(-1.93913 9.76603 -7.79071e-19)
(-1.23818 9.26885 -3.84311e-19)
(-0.115076 8.21154 -3.7888e-18)
(1.62009 6.80367 3.35974e-18)
(4.25656 5.1538 -3.67536e-19)
(8.18364 3.28121 2.8893e-18)
(13.7797 0.509539 -5.34914e-18)
(20.8169 -4.08923 2.81473e-18)
(29.2724 -10.7742 1.38092e-18)
(37.4153 -18.5949 6.79021e-19)
(42.2891 -24.7892 -1.32637e-18)
(43.0416 -28.6287 3.92918e-18)
(39.8763 -30.4958 -3.85777e-18)
(33.5462 -29.979 -1.26352e-18)
(26.2178 -28.8596 -3.72499e-18)
(19.0606 -27.6234 4.88089e-18)
(11.9584 -26.4353 -3.59081e-18)
(4.94987 -25.9753 2.35224e-18)
(-1.25496 -26.351 -4.58605e-18)
(-8.10604 -20.2703 0)
(-5.58226 -31.8592 2.25999e-18)
(-27.3819 9.50426 -1.07004e-18)
(-34.8386 -50.219 -1.11169e-18)
(-1.88782 2.44141 -7.05918e-16)
(-2.0801 2.62756 3.23855e-16)
(-2.10598 2.69754 -3.21081e-16)