/*--------------------------------*- C++ -*----------------------------------*\
| =========                 |                                                 |
| \\      /  F ield         | OpenFOAM: The Open Source CFD Toolbox           |
|  \\    /   O peration     | Version:  2212                                  |
|   \\  /    A nd           | Website:  www.openfoam.com                      |
|    \\/     M anipulation  |                                                 |
\*---------------------------------------------------------------------------*/
FoamFile
{
    version     2.0;
    format      ascii;
    arch        "LSB;label=32;scalar=64";
    class       volVectorField;
    location    "0.000183";
    object      U;
}
// * * * * * * * * * * * * * * * * * * * * * * * * * * * * * * * * * * * * * //

dimensions      [0 1 -1 0 0 0 0];

internalField   nonuniform List<vector> 
6888
(
(1.80518 4.04602 168.153)
(2.90564 -3.28405 159.609)
(2.23685 10.8651 109.813)
(-1.22479 8.12349 75.9254)
(1.05747 7.44696 35.1612)
(-2.1973 7.92735 11.7004)
(-0.00162199 6.81531 0.638483)
(-0.0894345 5.85379 -6.88199)
(-0.13859 3.86172 -8.27504)
(-0.207979 4.22672 -8.86933)
(-0.251454 2.08667 -5.62826)
(-0.26508 3.43905 0.222275)
(-0.232063 2.69668 4.76118)
(-0.227443 3.60556 6.88096)
(-0.188898 2.82645 7.89556)
(-0.166638 3.04263 7.89424)
(-0.130433 2.43622 7.96371)
(-0.111921 2.09575 7.83821)
(-0.0845026 1.70311 7.42421)
(-0.0621285 1.00422 5.87742)
(0.227521 9.0893 168.523)
(2.5085 1.70922 163.97)
(1.75421 20.1537 121.434)
(-0.492003 15.2596 75.3598)
(0.486174 10.7797 38.8763)
(-2.66653 12.3389 12.9438)
(0.0471056 8.13279 0.667389)
(-0.116658 7.24124 -8.34607)
(-0.13223 4.3897 -9.61439)
(-0.205503 5.01022 -10.5766)
(-0.260977 3.09865 -7.06659)
(-0.276692 4.40221 -0.283799)
(-0.25733 3.2682 4.75576)
(-0.261838 4.40353 7.14259)
(-0.215875 3.5604 8.13392)
(-0.183349 3.55736 8.18632)
(-0.140291 2.78391 8.08721)
(-0.117491 2.29573 8.04831)
(-0.0888904 1.8812 7.71957)
(-0.0636797 1.14184 6.44471)
(2.58463 14.5389 175.586)
(1.58946 14.6887 169.789)
(1.44445 26.7887 133.387)
(-0.275938 22.4096 73.0209)
(0.145087 14.7941 38.3624)
(-2.14996 15.7851 13.1437)
(-0.0722567 9.65729 -1.51933)
(-0.132048 9.47256 -9.35751)
(-0.169807 5.97634 -10.7935)
(-0.247728 7.0483 -11.071)
(-0.280273 4.79505 -7.69492)
(-0.319129 6.04571 -1.20259)
(-0.34077 4.99748 3.9973)
(-0.328756 5.66852 6.51214)
(-0.2555 4.40467 7.28843)
(-0.199362 3.95974 7.35005)
(-0.146895 2.95813 7.26404)
(-0.121593 2.3918 7.26615)
(-0.0913774 1.88289 6.99692)
(-0.0638071 1.12164 5.81534)
(6.50716 20.1121 191.192)
(1.24933 29.825 180.604)
(1.04818 38.0507 146.842)
(0.110842 30.3773 69.2335)
(-0.144464 18.6264 36.5644)
(-1.36658 17.1208 12.2351)
(0.40514 10.434 -3.1777)
(-0.24844 10.8494 -10.4585)
(-0.214116 7.34164 -12.1322)
(-0.267891 8.24962 -11.836)
(-0.282361 5.60867 -8.33145)
(-0.380186 7.08585 -1.12469)
(-0.399248 6.06786 4.44994)
(-0.350426 6.10297 6.66127)
(-0.2655 4.611 7.16156)
(-0.201743 3.91146 7.16108)
(-0.148373 2.90899 7.1204)
(-0.122378 2.32299 7.21417)
(-0.0910267 1.77372 7.063)
(-0.0637049 1.07939 5.94572)
(13.6871 21.254 227.052)
(2.09828 34.0478 210.187)
(1.7304 40.0797 161.315)
(0.200303 31.9558 67.003)
(-0.161533 20.0015 33.3129)
(-1.04935 16.4326 9.0608)
(0.923034 9.98477 -4.46107)
(-0.162408 11.0525 -10.8593)
(-0.183206 7.87144 -13.5356)
(-0.252847 9.1044 -12.6872)
(-0.307272 6.53827 -9.02587)
(-0.421787 8.36492 -1.85567)
(-0.428271 6.90741 3.59643)
(-0.358947 6.53827 5.55209)
(-0.270868 4.86584 5.94264)
(-0.206169 4.0551 6.10052)
(-0.153621 3.06872 6.17575)
(-0.127312 2.43508 6.39246)
(-0.0952982 1.89466 6.34059)
(-0.0640358 1.04264 5.40609)
(19.3225 12.84 261.707)
(1.59193 23.0604 240.176)
(3.25847 26.9602 183.764)
(0.190392 26.1576 64.8926)
(0.29247 15.5269 28.1112)
(-1.02655 12.3248 4.47067)
(1.41324 7.04816 -5.92051)
(0.153565 9.19378 -11.2724)
(-0.114946 6.73346 -14.5013)
(-0.232304 8.7406 -12.9597)
(-0.300631 7.26008 -9.08362)
(-0.436658 9.38251 -1.54939)
(-0.425219 7.51487 3.11282)
(-0.348155 6.76624 4.9841)
(-0.255719 4.89882 5.4167)
(-0.203061 4.07451 5.72467)
(-0.153797 3.10523 5.83139)
(-0.127729 2.40683 6.08085)
(-0.0956355 1.8718 6.05199)
(-0.063995 0.980035 5.14363)
(21.0873 7.02068 272.371)
(-0.694574 16.7934 248.142)
(4.42977 8.93697 195.595)
(0.119374 17.2523 68.8151)
(0.576746 7.03116 26.3148)
(-0.931451 6.95359 1.67013)
(1.68533 2.49653 -6.4507)
(0.38619 6.12482 -11.0196)
(-0.0320031 4.43253 -13.9738)
(-0.179741 7.68542 -12.181)
(-0.303294 7.553 -8.08123)
(-0.438236 9.25074 -1.36183)
(-0.398355 7.26476 1.84606)
(-0.321864 6.41599 3.80306)
(-0.239442 4.65113 4.38687)
(-0.196748 3.87672 4.96633)
(-0.15129 2.99917 5.22279)
(-0.126552 2.2852 5.56235)
(-0.0951986 1.80449 5.58915)
(-0.0636653 0.90464 4.80779)
(22.3773 3.52124 277.199)
(-3.17697 12.3268 248.24)
(5.01443 -3.80125 189.456)
(-0.161852 6.91823 69.9203)
(0.668915 -0.354426 22.5342)
(-0.983345 1.85123 0.868596)
(1.87524 -0.623538 -6.6033)
(0.286724 2.75493 -10.534)
(0.0386975 1.85942 -12.3642)
(-0.14071 6.06137 -9.74524)
(-0.36106 6.57438 -6.58198)
(-0.424545 7.86236 -1.13995)
(-0.348286 6.22708 1.11971)
(-0.285277 5.59844 3.09405)
(-0.222762 4.26578 3.87352)
(-0.188811 3.59687 4.59241)
(-0.147843 2.88532 4.9043)
(-0.125635 2.20592 5.28315)
(-0.0959444 1.80834 5.27502)
(-0.0636766 0.858101 4.56809)
(24.2313 -1.77304 277.415)
(-4.13518 5.12905 244.59)
(5.62396 -7.61523 182.647)
(-0.446934 -1.11014 73.7278)
(0.800493 -5.90966 21.9179)
(-0.933471 -2.1673 2.02946)
(1.98233 -3.47978 -5.49662)
(0.0388011 -0.0369177 -9.24816)
(-0.0252112 -0.147722 -10.3953)
(-0.252435 3.92684 -7.26292)
(-0.390143 4.86327 -5.1297)
(-0.364759 5.99699 -1.12746)
(-0.298652 5.00374 0.607733)
(-0.254839 4.64991 2.47439)
(-0.208173 3.7596 3.37117)
(-0.180377 3.21725 4.15744)
(-0.142907 2.66718 4.53421)
(-0.122964 2.04706 5.00593)
(-0.0950338 1.73124 4.94678)
(-0.0639338 0.835814 4.32203)
(24.0907 -6.95028 270.467)
(-4.56002 -4.31163 239.958)
(6.96853 -10.9551 179.803)
(-1.1075 -8.10579 75.0676)
(0.97194 -9.33205 20.7706)
(-0.931993 -5.84782 3.52235)
(2.09057 -5.86877 -4.92118)
(-0.214728 -2.73942 -8.00353)
(-0.0688123 -1.58199 -8.60475)
(-0.289525 1.73803 -5.61944)
(-0.317332 2.65639 -3.84119)
(-0.278421 4.03121 -0.757082)
(-0.248878 3.64011 0.641646)
(-0.226862 3.62196 2.22836)
(-0.190814 3.11975 3.13602)
(-0.170057 2.75861 3.92687)
(-0.136671 2.39934 4.33068)
(-0.120041 1.87819 4.82621)
(-0.0930706 1.62498 4.70991)
(-0.0644101 0.845389 4.08823)
(21.7891 -9.02127 260.595)
(-3.46155 -6.84795 234.567)
(8.29679 -16.0091 175.331)
(-1.39627 -13.7935 75.916)
(1.06739 -12.0349 23.5514)
(-0.749477 -9.08902 5.72588)
(2.05243 -7.80308 -3.09798)
(-0.409466 -4.76124 -5.96647)
(-0.0603518 -2.76301 -6.62959)
(-0.235904 -0.212751 -3.92138)
(-0.229444 1.12712 -2.39511)
(-0.227352 2.5033 -0.161312)
(-0.217108 2.42245 0.934187)
(-0.204008 2.64055 2.21574)
(-0.174541 2.4403 3.05982)
(-0.158975 2.21817 3.78615)
(-0.129128 2.06387 4.18686)
(-0.116106 1.66915 4.68231)
(-0.0897063 1.46168 4.56952)
(-0.0644491 0.841304 3.92696)
(20.8537 -8.84889 251.787)
(-1.77265 -6.99477 225.616)
(8.8692 -21.1632 166.488)
(-1.56609 -17.7657 75.3995)
(1.06311 -14.4598 25.6299)
(-0.548969 -11.8261 7.30983)
(2.01603 -9.0327 -1.31287)
(-0.45948 -6.28281 -4.04702)
(-0.0102062 -3.89285 -4.76793)
(-0.163377 -1.90724 -2.40221)
(-0.176842 -0.140206 -0.847631)
(-0.196131 1.12409 0.522651)
(-0.189826 1.34996 1.42133)
(-0.183395 1.77912 2.43924)
(-0.159273 1.83706 3.19553)
(-0.148856 1.73881 3.81467)
(-0.122476 1.75827 4.19557)
(-0.112674 1.48085 4.64922)
(-0.0876071 1.35865 4.52401)
(-0.0639572 0.80921 3.85373)
(21.872 -9.52812 242.292)
(-2.16518 -10.1235 214.014)
(8.68094 -24.5965 157.968)
(-1.48134 -20.1857 76.0608)
(1.25147 -16.3839 29.1667)
(-0.394489 -13.4586 10.2049)
(1.88457 -9.5671 1.66015)
(-0.484113 -7.0573 -1.72327)
(0.0361757 -4.50438 -2.67097)
(-0.135231 -2.93029 -0.684772)
(-0.160075 -1.08118 0.783386)
(-0.174097 0.0258464 1.40153)
(-0.168192 0.501653 2.11163)
(-0.166857 1.07518 2.85901)
(-0.146205 1.29052 3.47235)
(-0.139869 1.30013 3.96391)
(-0.116805 1.48558 4.30677)
(-0.109256 1.27807 4.67504)
(-0.0861514 1.28654 4.52797)
(-0.0629602 0.758619 3.82209)
(22.1412 -11.4443 229.148)
(-3.8181 -13.6826 201.14)
(8.08838 -25.8649 148.753)
(-1.6345 -21.2002 75.3545)
(1.27628 -17.6939 31.4794)
(-0.338593 -13.965 12.9046)
(1.65703 -10.3441 4.35598)
(-0.561104 -7.5989 0.441077)
(0.10748 -5.03996 -0.754664)
(-0.128912 -3.54607 0.750643)
(-0.145829 -1.79423 2.35053)
(-0.155858 -0.760607 2.32502)
(-0.150213 -0.108632 2.84646)
(-0.153621 0.520421 3.36606)
(-0.13532 0.856662 3.86089)
(-0.132286 0.968232 4.16656)
(-0.112184 1.28886 4.47219)
(-0.10608 1.11328 4.7439)
(-0.0846437 1.2097 4.55086)
(-0.0618207 0.710125 3.81065)
(20.8564 -13.0901 214.177)
(-4.34523 -14.3378 189.507)
(7.11965 -24.6169 141.469)
(-1.87512 -20.6473 75.5063)
(1.48969 -17.1022 34.8259)
(-0.29567 -13.5348 16.3443)
(1.40657 -10.4101 7.21558)
(-0.611783 -7.72885 3.00822)
(0.186245 -5.41575 1.3472)
(-0.121218 -3.79569 2.46561)
(-0.126017 -2.2359 3.97146)
(-0.140116 -1.25532 3.36896)
(-0.134616 -0.554874 3.67734)
(-0.141314 0.0710626 3.97208)
(-0.125437 0.521137 4.30724)
(-0.125438 0.703172 4.44113)
(-0.107344 1.08495 4.66956)
(-0.102529 0.933651 4.85492)
(-0.08272 1.1358 4.62554)
(-0.0606118 0.668947 3.81128)
(19.5629 -12.3677 199.909)
(-3.40902 -12.3427 178.588)
(5.90698 -21.4274 134.45)
(-2.4096 -18.9055 75.0501)
(1.63349 -15.7381 36.9318)
(-0.173012 -12.8746 18.9374)
(1.31175 -10.1083 9.53338)
(-0.569182 -7.66732 5.15469)
(0.27306 -5.51183 3.21492)
(-0.120783 -3.68883 3.99957)
(-0.114193 -2.37114 5.287)
(-0.130007 -1.48028 4.27529)
(-0.123451 -0.807069 4.42598)
(-0.13244 -0.195362 4.53246)
(-0.118772 0.351441 4.6967)
(-0.1203 0.539591 4.75387)
(-0.103872 0.96406 4.90144)
(-0.100121 0.828461 4.96061)
(-0.0808313 1.07641 4.68147)
(-0.059193 0.621878 3.80766)
(19.3545 -9.51163 187.813)
(-1.83687 -9.89024 168.88)
(4.57542 -17.4183 127.584)
(-3.08649 -16.951 74.2954)
(1.8699 -13.8604 38.9027)
(-0.153185 -11.7442 21.5258)
(1.1585 -9.09464 11.8907)
(-0.489997 -7.01361 7.48564)
(0.305886 -5.09018 5.33932)
(-0.132533 -3.26941 5.77033)
(-0.105473 -2.19399 6.57055)
(-0.118942 -1.48287 5.27331)
(-0.112747 -0.842367 5.2394)
(-0.124819 -0.309225 5.121)
(-0.112674 0.250977 5.10723)
(-0.11585 0.438669 5.05217)
(-0.100637 0.902067 5.11807)
(-0.0977792 0.768683 5.06783)
(-0.078932 1.04163 4.73137)
(-0.0575953 0.565136 3.83568)
(19.2702 -6.71174 179.65)
(-0.043003 -8.60178 159.966)
(3.93587 -13.9929 120.614)
(-3.2159 -14.6807 73.0173)
(2.1989 -11.5757 39.8847)
(-0.123858 -10.3836 22.9354)
(0.952548 -7.38164 13.7741)
(-0.37722 -5.92947 9.2774)
(0.251736 -4.35224 6.98088)
(-0.134473 -2.66899 7.24054)
(-0.096155 -1.81189 7.577)
(-0.110981 -1.19158 6.1222)
(-0.106447 -0.649306 5.92514)
(-0.120908 -0.209539 5.64436)
(-0.10905 0.303412 5.45376)
(-0.113183 0.442471 5.29337)
(-0.0986009 0.912179 5.27753)
(-0.0964824 0.754111 5.19884)
(-0.0774972 1.0368 4.8072)
(-0.056299 0.522953 3.90946)
(18.191 -5.3624 174.372)
(1.02577 -7.60035 152.509)
(3.69911 -11.9047 115.054)
(-2.59687 -12.3051 71.9331)
(2.53983 -9.53814 41.3812)
(-0.244411 -8.05227 24.7141)
(0.710411 -5.4826 15.7915)
(-0.286248 -4.46432 11.0031)
(0.181311 -3.32588 8.6662)
(-0.140899 -1.85535 8.82157)
(-0.0848028 -1.18717 8.54508)
(-0.109018 -0.700928 6.933)
(-0.102642 -0.278665 6.52803)
(-0.120255 0.0586243 6.14963)
(-0.107102 0.484726 5.7584)
(-0.111852 0.519032 5.51363)
(-0.0973987 0.953253 5.4207)
(-0.096058 0.752718 5.29401)
(-0.0765219 1.04415 4.83949)
(-0.055615 0.522404 3.97171)
(16.3589 -5.64849 168.716)
(1.1523 -5.5392 147.627)
(3.34334 -9.1858 111.268)
(-1.9701 -9.44493 71.3215)
(2.84655 -7.17565 42.7881)
(-0.345872 -5.73085 26.5345)
(0.523444 -3.58083 17.3839)
(-0.215676 -2.92243 12.1655)
(0.113613 -1.989 9.87086)
(-0.140366 -0.892862 10.0399)
(-0.0817217 -0.337949 9.31553)
(-0.108323 -0.0261555 7.57142)
(-0.10161 0.264764 7.00836)
(-0.121374 0.435066 6.54207)
(-0.106888 0.765806 6.01161)
(-0.111838 0.68268 5.70529)
(-0.0975233 1.08598 5.53491)
(-0.0962481 0.795218 5.35955)
(-0.0762792 1.06598 4.84601)
(-0.0552872 0.530163 3.99734)
(14.7432 -5.6629 163.524)
(1.43949 -3.86362 146.016)
(3.24446 -5.47759 109.887)
(-1.85633 -6.43407 71.0423)
(3.03826 -4.55073 44.5747)
(-0.428622 -3.30483 28.6062)
(0.448876 -1.53967 19.1006)
(-0.166619 -1.11201 13.4624)
(0.0671405 -0.334381 11.1222)
(-0.138586 0.485455 11.1558)
(-0.0689952 0.792459 10.0365)
(-0.113291 0.84501 8.16471)
(-0.103865 0.984631 7.41599)
(-0.124393 0.947931 6.88219)
(-0.10748 1.14291 6.17721)
(-0.112727 0.92408 5.83273)
(-0.0978473 1.25011 5.5877)
(-0.0963931 0.852479 5.37113)
(-0.0760151 1.09652 4.80811)
(-0.0552231 0.544381 3.9719)
(13.2916 -5.17557 159.618)
(1.62919 -3.34422 145.681)
(3.55479 -3.23176 110.137)
(-1.67866 -2.88473 70.9748)
(3.05125 -1.4993 46.3866)
(-0.458563 -0.403372 30.6143)
(0.405207 0.87 20.5106)
(-0.162612 1.06916 14.4673)
(0.0319494 1.69363 12.0619)
(-0.151526 2.07911 11.9716)
(-0.0687045 2.18596 10.5864)
(-0.123006 1.90597 8.60057)
(-0.107466 1.92247 7.65878)
(-0.129607 1.60231 7.03536)
(-0.110255 1.6544 6.22871)
(-0.114543 1.2527 5.85387)
(-0.0989701 1.49598 5.53458)
(-0.0965955 0.964674 5.28596)
(-0.0759271 1.14277 4.7149)
(-0.0551822 0.544275 3.8809)
(11.4048 -4.86207 157.049)
(1.87128 -3.1944 146.003)
(3.48066 -2.13106 112.288)
(-1.54924 1.70051 73.5797)
(2.87645 2.47684 48.3715)
(-0.481245 3.29434 32.8976)
(0.275282 3.99668 22.0952)
(-0.161167 3.92111 15.6619)
(-0.0438234 4.35957 13.0333)
(-0.174833 4.08962 12.705)
(-0.0828801 3.97016 11.0495)
(-0.138993 3.25111 8.88085)
(-0.1182 3.11835 7.75786)
(-0.138092 2.4428 7.03123)
(-0.116044 2.31555 6.11196)
(-0.118512 1.67906 5.6814)
(-0.101713 1.79799 5.32283)
(-0.0975212 1.09437 5.0655)
(-0.0769604 1.22502 4.47862)
(-0.0551265 0.529872 3.67761)
(9.04148 -4.981 154.656)
(2.28765 -3.4411 147.404)
(2.90034 -1.72871 117.366)
(-1.55404 5.77073 79.2302)
(2.60691 7.33477 50.7357)
(-0.384274 7.74744 35.1247)
(0.182908 7.98173 23.6326)
(-0.09485 7.28944 16.8017)
(-0.112703 7.46208 13.698)
(-0.18316 6.41603 13.0133)
(-0.109549 6.02208 11.2154)
(-0.159987 4.84703 8.86648)
(-0.126358 4.46484 7.63066)
(-0.148696 3.43315 6.73151)
(-0.122155 3.0556 5.76288)
(-0.124525 2.21257 5.29631)
(-0.10539 2.13666 4.90145)
(-0.099716 1.26125 4.68492)
(-0.0785158 1.31498 4.07787)
(-0.0551953 0.513135 3.30131)
(6.93112 -5.38416 151.6)
(2.38315 -3.84281 148.667)
(2.14064 -0.954114 126.283)
(-1.41551 7.81803 89.1439)
(2.01496 12.8187 55.5283)
(-0.344791 13.159 38.3242)
(0.0342723 13.2496 25.619)
(-0.00598981 11.2904 18.0267)
(-0.139075 11.1238 14.3205)
(-0.207932 9.25279 12.997)
(-0.121447 8.4422 11.0967)
(-0.177711 6.76507 8.56146)
(-0.138824 6.02873 7.20781)
(-0.160372 4.5993 6.17076)
(-0.129225 3.9257 5.17178)
(-0.130403 2.82448 4.7097)
(-0.109392 2.51694 4.24493)
(-0.10347 1.49546 4.07104)
(-0.0804962 1.38581 3.47196)
(-0.0549909 0.464841 2.71764)
(4.97812 -5.52615 148.303)
(2.3917 -3.92719 149.664)
(1.84031 -0.948705 135.532)
(-1.17995 8.66187 103.434)
(1.42669 17.5411 64.268)
(-0.287038 19.1976 42.9219)
(-0.169827 19.0473 27.8776)
(-0.00756428 16.1032 18.8629)
(-0.167687 15.2376 14.5)
(-0.228021 12.527 12.4017)
(-0.123386 11.1749 10.4726)
(-0.199447 8.97122 7.79696)
(-0.158192 7.77654 6.38242)
(-0.175376 5.91509 5.23406)
(-0.140881 4.90754 4.27993)
(-0.138651 3.4924 3.81794)
(-0.113681 2.91046 3.34629)
(-0.107169 1.73675 3.19627)
(-0.0811732 1.39332 2.54191)
(-0.0549309 0.419663 1.89434)
(2.6581 -4.49842 145.101)
(1.86168 -2.65544 150.735)
(1.82791 -1.508 142.34)
(-0.981416 8.03437 120.124)
(1.05303 20.2739 77.8053)
(-0.310497 25.6858 49.6993)
(-0.33066 25.5127 30.7721)
(-0.101929 21.76 19.7305)
(-0.205576 20.0211 14.3149)
(-0.232768 16.3647 11.2887)
(-0.136832 14.302 9.36226)
(-0.228747 11.472 6.58718)
(-0.181935 9.71241 5.12752)
(-0.191051 7.37917 3.99996)
(-0.15281 5.96369 3.05013)
(-0.148193 4.25433 2.55415)
(-0.119147 3.36986 2.13358)
(-0.110934 1.99153 2.01995)
(-0.0810354 1.38533 1.37092)
(-0.0549221 0.368748 0.765761)
(0.102677 -1.80259 143.805)
(0.422832 2.1176 152.851)
(0.930482 2.28032 149.49)
(-0.73386 9.7733 137.026)
(0.875086 21.9427 97.5363)
(-0.455628 33.2111 60.4944)
(-0.448164 33.0717 34.7455)
(-0.177246 28.4411 20.3387)
(-0.229718 25.444 13.4668)
(-0.215577 20.5581 9.50392)
(-0.135609 17.5591 7.44678)
(-0.25088 13.9606 4.69115)
(-0.213178 11.6587 3.26197)
(-0.206705 8.83604 2.19245)
(-0.16603 7.03351 1.37779)
(-0.157846 5.01566 0.929755)
(-0.125492 3.83828 0.542198)
(-0.116163 2.27247 0.48624)
(-0.0817433 1.34268 -0.136891)
(-0.0543189 0.262888 -0.691389)
(-2.83028 3.72837 147.399)
(-1.05569 10.9227 158.664)
(-0.442066 11.9765 156.607)
(-0.411616 18.5542 150.232)
(0.570851 24.4928 120.819)
(-0.687351 41.8561 76.2419)
(-0.657501 42.7638 39.8324)
(-0.292392 36.5213 20.2047)
(-0.265695 31.66 11.3517)
(-0.229929 25.2555 6.80835)
(-0.140243 21.008 4.78675)
(-0.26249 16.5412 2.11547)
(-0.233215 13.5117 0.730019)
(-0.222435 10.2162 -0.221801)
(-0.178628 8.04742 -0.841526)
(-0.166786 5.75465 -1.20868)
(-0.130476 4.25308 -1.45314)
(-0.120652 2.55975 -1.43487)
(-0.0824369 1.25342 -1.99003)
(-0.0536379 0.141799 -2.45075)
(-4.37589 11.5018 158.751)
(-1.27214 22.0014 170.608)
(-0.629315 25.2054 167.084)
(-0.183284 35.4921 160.28)
(0.0704451 34.3969 141.894)
(-0.700852 50.7979 97.7997)
(-0.915545 54.5417 46.1254)
(-0.503401 45.5978 18.7825)
(-0.343955 38.2921 7.65267)
(-0.290823 30.1818 2.452)
(-0.181642 24.6069 0.670491)
(-0.285354 19.1335 -1.58634)
(-0.264758 15.2378 -2.70011)
(-0.233917 11.3572 -3.30007)
(-0.187169 8.82409 -3.56481)
(-0.172039 6.28581 -3.76069)
(-0.133079 4.50442 -3.80699)
(-0.122658 2.72985 -3.64684)
(-0.0805002 1.05023 -4.09911)
(-0.0523846 -0.0317613 -4.49311)
(-3.52894 18.7657 179.578)
(-0.121093 30.2471 191.147)
(0.1481 35.9634 186.998)
(-0.0211572 49.3063 175.608)
(-0.0993589 51.4832 157.207)
(-0.409957 61.2225 122.686)
(-0.986484 66.7106 53.3115)
(-0.745869 54.8643 14.7086)
(-0.46172 44.6605 0.919067)
(-0.351263 34.667 -4.33878)
(-0.226796 27.5537 -5.10516)
(-0.332326 21.0198 -6.50144)
(-0.280474 16.4206 -7.04126)
(-0.242718 12.1475 -7.1355)
(-0.194945 9.28076 -6.92865)
(-0.176274 6.60796 -6.81493)
(-0.135098 4.57027 -6.52791)
(-0.123564 2.76433 -6.2219)
(-0.0769957 0.755037 -6.51324)
(-0.0503219 -0.256614 -6.80018)
(-0.212449 21.6854 208.424)
(0.991164 31.1813 217.653)
(0.330343 42.4704 214.138)
(-0.106425 49.8449 201.692)
(0.100368 61.3886 177.58)
(-0.00507143 68.2276 146.387)
(-0.779469 75.669 63.1282)
(-0.899492 62.5521 6.97534)
(-0.608307 49.2323 -9.68776)
(-0.413464 36.8671 -13.4606)
(-0.260858 28.698 -12.907)
(-0.370416 21.9028 -12.7833)
(-0.280673 16.8071 -12.1762)
(-0.246871 12.3293 -11.5585)
(-0.198397 9.21112 -10.754)
(-0.17708 6.53099 -10.1894)
(-0.136163 4.3915 -9.59516)
(-0.123042 2.60269 -9.03706)
(-0.073811 0.384873 -9.11887)
(-0.0475138 -0.5386 -9.29633)
(0.617016 20.476 234.76)
(0.0325861 30.5341 241.052)
(-0.693821 44.8379 235.353)
(-0.649426 46.7199 222.209)
(-0.0197616 55.5805 201.172)
(0.0651801 54.4049 170.162)
(-0.452702 73.9766 77.8982)
(-0.88033 65.0622 -2.25895)
(-0.679086 47.8595 -22.6044)
(-0.476251 35.5788 -24.5684)
(-0.270214 27.6757 -22.2044)
(-0.378482 20.9387 -19.9839)
(-0.268291 15.9357 -17.8562)
(-0.244736 11.6635 -16.2925)
(-0.196972 8.47686 -14.8246)
(-0.175024 6.0355 -13.7758)
(-0.134972 3.91705 -12.6864)
(-0.121626 2.26516 -11.9156)
(-0.0710339 -0.0527551 -11.796)
(-0.044237 -0.867993 -11.8458)
(-2.00776 21.569 290.854)
(-0.710822 34.8123 298.147)
(-0.543552 40.3019 286.823)
(-0.923967 44.0204 257.989)
(-0.0643907 37.0658 227.938)
(-0.0728934 34.0389 190.24)
(-0.328387 53.493 97.6079)
(-0.744779 58.4216 -7.11775)
(-0.625594 39.3546 -32.3364)
(-0.494237 29.644 -35.2721)
(-0.254598 23.5271 -31.1008)
(-0.358883 17.9384 -27.079)
(-0.246966 13.679 -23.5466)
(-0.231799 10.0686 -20.9825)
(-0.18954 7.24345 -18.8008)
(-0.167573 5.01654 -17.283)
(-0.12919 3.01812 -15.7456)
(-0.117944 1.73283 -14.747)
(-0.0670609 -0.589805 -14.4147)
(-0.0406386 -1.22665 -14.3428)
(1.42676 19.3461 347.767)
(2.18829 29.0245 347.055)
(1.32553 36.1008 329.843)
(-0.352426 46.6892 284.063)
(0.0912084 36.5368 249.987)
(-0.0259293 31.887 208.814)
(-0.190433 20.806 120.72)
(-0.608223 43.0198 -6.8548)
(-0.476202 25.9438 -36.583)
(-0.439985 21.358 -43.6032)
(-0.228302 17.2338 -38.5634)
(-0.305232 13.2515 -33.241)
(-0.211097 10.1971 -28.6776)
(-0.211176 7.58778 -25.3272)
(-0.177131 5.34716 -22.5541)
(-0.157683 3.61452 -20.5828)
(-0.122127 1.88812 -18.7803)
(-0.112676 0.971647 -17.5506)
(-0.0618799 -1.26865 -16.9935)
(-0.0367049 -1.60737 -16.8114)
(9.46173 16.6193 369.681)
(5.16529 20.7551 364.15)
(2.92804 30.7081 344.719)
(0.158177 41.2178 292.965)
(0.143489 33.0253 256.943)
(0.0216985 32.0401 213.766)
(-0.0276939 9.76456 135.038)
(-0.474076 22.0019 -0.787536)
(-0.314231 9.63427 -38.7055)
(-0.343204 11.5867 -49.3564)
(-0.176218 8.58792 -44.1656)
(-0.237914 7.23544 -38.43)
(-0.168239 5.60529 -33.0974)
(-0.180091 4.28848 -29.2838)
(-0.155552 2.80423 -26.0804)
(-0.141506 1.7616 -23.7546)
(-0.11093 0.42734 -21.7675)
(-0.104356 -0.0493958 -20.3287)
(-0.0554689 -2.11085 -19.6693)
(-0.032154 -2.05737 -19.3954)
(11.5701 10.6212 381.99)
(4.50934 18.0616 373.164)
(3.3905 22.6283 350.288)
(0.571851 29.1985 292.015)
(0.161793 18.7635 253.689)
(0.300505 22.4006 211.429)
(0.0877812 1.53432 135.592)
(-0.313574 0.266889 5.05111)
(-0.164343 -4.8962 -41.3953)
(-0.240843 0.293893 -51.8711)
(-0.1012 -1.64426 -47.4931)
(-0.168714 0.281858 -42.2059)
(-0.126981 -0.130643 -36.5041)
(-0.151457 0.16942 -32.5984)
(-0.133312 -0.423232 -29.2316)
(-0.123681 -0.595813 -26.7216)
(-0.0970353 -1.43696 -24.6525)
(-0.0940522 -1.30445 -23.0266)
(-0.0486004 -3.09796 -22.3917)
(-0.027055 -2.6103 -22.0366)
(12.837 9.5378 386.624)
(4.45592 15.6846 377.209)
(4.31223 14.795 349.262)
(1.34941 13.6431 283.845)
(0.179392 8.49362 234.068)
(0.819958 1.21342 194.272)
(0.173225 -13.4309 117.901)
(-0.150703 -20.2002 2.20458)
(-0.00237094 -19.411 -41.9669)
(-0.0998948 -12.4321 -50.8098)
(-0.00765809 -11.4666 -48.4578)
(-0.0814873 -7.04777 -43.586)
(-0.0732889 -6.22652 -38.4689)
(-0.110349 -4.25071 -34.7335)
(-0.102653 -4.02738 -31.5172)
(-0.102498 -3.21337 -29.0521)
(-0.0802996 -3.57172 -27.0627)
(-0.0822535 -2.74673 -25.4068)
(-0.041218 -4.17151 -24.8798)
(-0.0217943 -3.20777 -24.5064)
(16.9312 4.41405 387.786)
(4.41359 9.07614 375.781)
(4.60858 3.58161 338.118)
(1.91501 -1.52418 275.874)
(0.358759 -0.209078 216.001)
(1.12787 -17.9898 173.343)
(0.186324 -30.924 93.1633)
(0.0497639 -37.8879 -1.99562)
(0.133202 -32.2929 -38.0143)
(0.037158 -24.08 -47.3193)
(0.0946772 -20.0648 -47.1543)
(-0.00950772 -13.8275 -42.6548)
(-0.0183125 -11.9101 -38.5724)
(-0.0720848 -8.72807 -35.3715)
(-0.0743533 -7.58324 -32.7171)
(-0.0808184 -5.87122 -30.5472)
(-0.0623026 -5.7809 -28.7428)
(-0.0705017 -4.23733 -27.3101)
(-0.0325964 -5.24808 -26.8132)
(-0.0170135 -3.76908 -26.6065)
(19.3634 2.64239 374.235)
(3.98899 6.53619 363.247)
(4.04539 -2.69857 321.302)
(2.11109 -11.1199 262.332)
(0.677488 -12.6802 198.748)
(1.1944 -31.6496 156.016)
(0.24412 -44.8195 76.9523)
(0.22555 -45.2528 0.191132)
(0.23991 -39.1529 -30.8559)
(0.171218 -33.0989 -41.698)
(0.204501 -27.1542 -43.7804)
(0.0545277 -20.1152 -39.8965)
(0.0198484 -16.8401 -37.1697)
(-0.0444303 -12.4725 -34.7012)
(-0.0510297 -10.6485 -32.6451)
(-0.0604077 -8.3363 -30.936)
(-0.0457611 -7.76949 -29.5231)
(-0.0592418 -5.66823 -28.5351)
(-0.0241255 -6.29037 -28.1646)
(-0.01329 -4.21811 -28.2329)
(18.0088 -1.03015 356.69)
(4.1064 1.61183 343.96)
(4.09481 -3.23125 306.897)
(2.13318 -14.312 243.936)
(0.80492 -20.791 176.561)
(1.43309 -38.8631 138.037)
(0.350895 -49.2751 68.0358)
(0.321446 -45.0335 6.25768)
(0.29657 -40.1214 -19.9721)
(0.258749 -36.0268 -32.7035)
(0.278358 -30.6573 -37.2711)
(0.0850825 -24.4013 -35.4446)
(0.0403686 -20.5758 -34.6467)
(-0.0212336 -15.7784 -33.1825)
(-0.0279347 -13.2868 -31.7541)
(-0.0427091 -10.3652 -30.5927)
(-0.0337271 -9.28408 -29.5976)
(-0.0507693 -6.79594 -29.0179)
(-0.0176492 -7.12167 -28.9061)
(-0.0102262 -4.58294 -29.1936)
(17.9276 -6.11494 350.903)
(4.52896 -4.78928 332.538)
(4.3447 -6.26667 293.55)
(2.04998 -9.42222 231.218)
(0.611493 -17.2422 156.949)
(1.75689 -35.3799 118.879)
(0.379902 -47.5671 59.6494)
(0.357749 -43.0004 10.1111)
(0.351808 -38.2871 -12.1588)
(0.302901 -33.621 -24.4534)
(0.306396 -29.6141 -29.3699)
(0.0773611 -24.8136 -29.3224)
(0.0534613 -21.9229 -30.465)
(0.00337456 -17.5747 -30.6163)
(-0.00672191 -15.1448 -30.1506)
(-0.0249056 -11.9652 -29.7165)
(-0.0209766 -10.5274 -29.1766)
(-0.0423769 -7.71015 -28.9334)
(-0.0123526 -7.68269 -29.0888)
(-0.00823006 -4.80355 -29.535)
(18.3352 -6.94525 346.044)
(4.73474 -7.06424 327.099)
(4.47146 -10.182 287.535)
(2.00469 -8.03777 223.742)
(0.576856 -10.7591 143.365)
(1.64774 -26.9939 100.002)
(0.289172 -39.9507 53.1355)
(0.288063 -36.4469 10.4939)
(0.438962 -35.4265 -8.72846)
(0.321071 -30.9492 -19.2612)
(0.292527 -27.5753 -23.2967)
(0.0538303 -23.1333 -23.6561)
(0.058923 -20.9527 -25.9879)
(0.0099036 -17.3758 -27.0776)
(-0.000595914 -15.6183 -27.6462)
(-0.0182875 -12.7178 -28.1283)
(-0.014922 -11.2483 -28.2078)
(-0.0377167 -8.32311 -28.4201)
(-0.00873862 -8.05711 -28.7944)
(-0.00614272 -5.00372 -29.4043)
(18.4169 -7.47497 342.892)
(4.69497 -6.17425 324.212)
(4.41656 -10.9947 285.524)
(1.95815 -9.71784 220.581)
(0.742216 -9.00311 135.853)
(1.13272 -19.8139 81.7805)
(0.224159 -31.3566 47.3907)
(0.134441 -29.4533 9.85535)
(0.495051 -31.0426 -6.87382)
(0.271103 -26.7652 -15.6309)
(0.243388 -24.9432 -19.2694)
(0.0614421 -21.0852 -19.6006)
(0.0782992 -19.4967 -22.3339)
(0.0185919 -16.4091 -23.6584)
(0.00289573 -14.853 -24.8285)
(-0.0173074 -12.271 -25.8139)
(-0.0139422 -11.1675 -26.5482)
(-0.0360457 -8.49841 -27.2192)
(-0.00687799 -8.15648 -28.0176)
(-0.00476821 -5.09437 -28.7947)
(18.4847 -7.29939 337.68)
(5.17879 -4.80282 323.493)
(4.33341 -10.9029 285.891)
(1.84709 -9.5605 222.333)
(0.86641 -8.47734 133.156)
(0.531651 -13.2326 67.3164)
(0.25749 -23.6251 40.9688)
(-0.0199062 -24.5028 7.94526)
(0.474708 -25.5792 -6.04149)
(0.186363 -22.6291 -13.2119)
(0.180342 -21.5951 -16.1913)
(0.0567178 -18.6597 -16.5119)
(0.0596075 -17.66 -19.3174)
(0.0001312 -14.9322 -20.7172)
(-0.00707809 -13.788 -22.0759)
(-0.0282864 -11.3771 -23.0445)
(-0.0205456 -10.4379 -24.0929)
(-0.0410909 -8.00873 -25.0538)
(-0.00893757 -7.79009 -26.3061)
(-0.0040995 -5.06338 -27.3362)
(18.1872 -6.21181 333.335)
(5.45553 -2.79981 322.937)
(4.26564 -9.68484 288.47)
(1.75668 -7.42758 232.151)
(1.28861 -7.23559 137.269)
(0.0881986 -7.81924 60.7109)
(0.481943 -20.9437 33.0665)
(-0.141353 -20.0492 5.39897)
(0.438271 -21.7093 -5.58926)
(0.103465 -19.3565 -11.5981)
(0.132137 -18.633 -13.7672)
(0.052789 -16.4037 -14.0206)
(0.0519953 -15.8856 -16.6224)
(0.00584604 -13.6269 -17.8132)
(-0.00718714 -12.6505 -19.1721)
(-0.0312994 -10.441 -20.0432)
(-0.0255691 -9.63171 -21.1802)
(-0.0461772 -7.25146 -22.2272)
(-0.0154254 -6.9007 -23.6347)
(-0.00545293 -4.77297 -24.7447)
(17.724 -5.75301 329.404)
(5.50515 -1.8217 319.296)
(4.26301 -9.2454 288.64)
(1.78553 -6.74742 234.993)
(1.47584 -7.78675 150.085)
(-0.0617968 -5.97429 57.9689)
(0.664264 -19.813 26.2843)
(-0.180806 -16.4563 3.71507)
(0.422702 -19.5208 -5.50026)
(0.0132122 -16.7031 -10.4167)
(0.079067 -16.6583 -11.8973)
(0.00305995 -14.7572 -12.1)
(0.00984051 -14.4182 -14.1317)
(-0.0189623 -12.3822 -15.0001)
(-0.0199396 -11.5303 -16.3958)
(-0.040697 -9.54899 -17.1323)
(-0.0313565 -8.79023 -18.3098)
(-0.0499753 -6.67576 -19.3211)
(-0.0201801 -6.16742 -20.5709)
(-0.00660908 -4.48697 -21.7075)
(17.6001 -6.92278 323.839)
(5.72558 -2.01649 314.291)
(4.19076 -8.79461 287.419)
(1.73385 -7.55408 235.651)
(0.861279 -11.1423 153.988)
(-0.0110616 -7.42174 55.7545)
(0.713971 -19.1805 21.7762)
(-0.0905325 -15.2727 2.5462)
(0.441783 -18.45 -5.75821)
(-0.0198305 -15.7866 -9.25096)
(0.0842525 -15.4374 -10.3492)
(0.00862906 -13.7498 -10.3606)
(0.00900866 -13.1792 -12.0562)
(-0.0191001 -11.411 -12.5652)
(-0.0285695 -10.5131 -14.0403)
(-0.0458831 -8.73146 -14.6339)
(-0.037418 -8.00352 -15.7474)
(-0.0532205 -6.19516 -16.7182)
(-0.0233015 -5.4983 -17.8627)
(-0.00812505 -4.13006 -18.9756)
(17.0232 -7.48733 316.367)
(5.61612 -3.81543 308.79)
(4.12469 -9.49789 283.266)
(1.6763 -11.2893 234.955)
(0.830167 -14.248 155.169)
(0.276299 -12.2392 54.6595)
(0.669942 -18.7918 17.2366)
(-0.0150333 -16.1463 1.95522)
(0.509171 -18.1501 -5.70072)
(-0.00600638 -15.8708 -8.21803)
(0.0887462 -14.8278 -8.95349)
(0.00879095 -13.4666 -8.79253)
(-0.010566 -12.102 -10.2431)
(-0.0279587 -10.6313 -10.6327)
(-0.036057 -9.54268 -12.0513)
(-0.0517173 -8.03071 -12.5615)
(-0.0427101 -7.27976 -13.579)
(-0.0558646 -5.816 -14.5104)
(-0.0268229 -4.91608 -15.6761)
(-0.00904 -3.82169 -16.6224)
(16.3548 -8.58957 305.919)
(5.70264 -6.37671 299.442)
(4.09845 -11.7621 275.024)
(1.71491 -15.6132 230.155)
(1.16045 -19.4373 155.479)
(0.692295 -18.376 56.6939)
(0.58601 -19.8942 15.7621)
(0.110071 -18.7982 1.76386)
(0.481148 -17.6214 -5.04067)
(0.0785708 -16.3425 -6.88011)
(0.108599 -14.4706 -7.44358)
(0.0341393 -13.4583 -7.49456)
(-0.0115767 -11.2129 -8.53764)
(-0.0363782 -10.0444 -9.04414)
(-0.0400325 -8.7538 -10.2869)
(-0.0541722 -7.49234 -10.7902)
(-0.0472961 -6.63477 -11.6339)
(-0.0601045 -5.34738 -12.6288)
(-0.0306498 -4.34087 -13.8341)
(-0.00956852 -3.54515 -14.5957)
(15.6242 -10.6731 290.18)
(6.07801 -9.37568 284.787)
(4.14616 -15.7967 262.219)
(1.87213 -19.664 219.676)
(1.03758 -27.9632 149.903)
(0.94517 -23.7356 58.5422)
(0.456749 -21.9475 17.4969)
(0.265883 -21.2994 2.18613)
(0.416175 -17.7113 -3.51988)
(0.171125 -17.0267 -5.0541)
(0.130052 -14.2713 -5.92843)
(0.0611735 -13.1808 -6.00036)
(-0.00355181 -10.6965 -6.74406)
(-0.0426674 -9.61902 -7.52483)
(-0.0315952 -8.11234 -8.51796)
(-0.0537727 -6.97287 -9.08396)
(-0.0508276 -5.99575 -9.82345)
(-0.0627518 -4.85694 -10.864)
(-0.0345431 -3.74843 -11.9769)
(-0.0102471 -3.25001 -12.6339)
(13.8717 -11.4709 273.6)
(6.29909 -12.3312 268.366)
(4.27945 -18.9766 246.719)
(2.25283 -23.8755 206.437)
(1.04397 -33.2075 143.439)
(0.831215 -27.3739 60.7943)