/*--------------------------------*- C++ -*----------------------------------*\
| =========                 |                                                 |
| \\      /  F ield         | OpenFOAM: The Open Source CFD Toolbox           |
|  \\    /   O peration     | Version:  2212                                  |
|   \\  /    A nd           | Website:  www.openfoam.com                      |
|    \\/     M anipulation  |                                                 |
\*---------------------------------------------------------------------------*/
FoamFile
{
    version     2.0;
    format      ascii;
    arch        "LSB;label=32;scalar=64";
    class       surfaceScalarField;
    location    "0.00669";
    object      phi;
}
// * * * * * * * * * * * * * * * * * * * * * * * * * * * * * * * * * * * * * //

dimensions      [1 0 -1 0 0 0 0];

oriented        oriented;

internalField   nonuniform List<scalar> 
5190
(
2.78592e-05
1.32867e-05
-3.34542e-05
-1.58205e-05
0.00110089
0.00163321
-0.00144509
-0.00126246
-9.55168e-06
-0.00177934
-9.77087e-05
0.00189238
-4.12878e-06
3.43682e-06
-5.00341e-07
1.48257e-06
0.0018752
0.000349634
-0.00174053
-0.000318508
-0.0011861
0.00147766
0.00124458
-0.00146632
-5.1513e-07
2.31779e-06
4.8339e-07
-1.98147e-06
4.05498e-08
4.33422e-08
-3.45463e-06
3.69996e-06
4.08697e-06
-3.95343e-06
3.1883e-08
8.24758e-08
4.18757e-06
-1.41099e-07
1.98445e-07
3.17567e-08
-2.23436e-07
-3.58113e-06
-3.30922e-06
-1.05187e-06
6.49022e-07
2.99865e-06
-6.28351e-07
-3.66403e-06
3.46314e-07
1.67597e-06
-2.32864e-06
4.86237e-06
-5.93038e-06
-2.44281e-06
1.49073e-06
1.96736e-06
-1.74103e-06
-1.93249e-06
2.34199e-06
1.60312e-06
-2.67419e-06
-9.8142e-07
3.29303e-06
7.59135e-08
-3.27487e-06
3.6755e-06
-2.3459e-07
-5.02764e-08
-3.18135e-06
3.86023e-06
-3.20107e-07
3.14723e-07
-5.55604e-07
8.27469e-07
3.69285e-06
4.04997e-06
2.96548e-07
-5.18829e-07
-3.90768e-06
-3.72124e-06
3.43885e-06
3.59147e-07
-7.16141e-07
-3.9486e-06
2.04356e-07
-4.57423e-07
1.51791e-07
-3.31948e-07
-3.04622e-06
-1.19967e-06
-9.80515e-07
-3.31297e-06
3.69284e-06
-3.74629e-07
4.05228e-06
-3.57311e-06
-1.17775e-07
-5.4735e-07
1.58292e-06
-3.87885e-06
3.75751e-06
-2.58802e-07
-2.80786e-07
-3.84129e-06
4.13589e-06
3.1964e-08
-1.64368e-07
1.98675e-07
-4.11871e-06
3.93412e-06
7.9524e-08
4.44778e-08
1.37463e-07
2.95513e-06
7.34046e-07
-1.05495e-06
-3.20592e-06
2.70886e-06
8.83625e-07
-1.31391e-06
1.14747e-06
2.44962e-06
-1.55512e-06
2.88593e-06
-3.16567e-06
8.49859e-07
-1.47327e-06
8.5622e-07
2.8382e-06
3.42475e-06
-3.48981e-06
4.13191e-07
6.25331e-07
3.7203e-06
-4.11755e-06
-2.18491e-07
4.92061e-07
1.34871e-07
-1.34501e-07
0.000961843
0.00141376
-0.00148564
-0.000809185
-2.21598e-07
3.10387e-07
-3.76282e-06
7.39164e-08
-2.4537e-09
6.26415e-08
-2.93154e-06
3.2495e-06
-1.09152e-07
3.53938e-06
-3.32687e-06
-6.08622e-08
-5.51993e-09
3.14235e-08
-1.91023e-06
2.23985e-06
3.03794e-06
-1.55428e-06
-3.28308e-06
-3.47331e-06
1.36967e-07
3.72253e-06
-3.21683e-06
-4.55335e-08
1.22111e-07
3.62666e-06
-3.88188e-06
1.49959e-07
3.30324e-06
3.75862e-07
5.97064e-08
-3.25901e-06
-1.06983e-07
-1.63038e-07
8.027e-08
-3.14901e-06
-3.45358e-06
3.63349e-06
-1.88353e-07
-2.79608e-07
-3.28617e-06
-3.70481e-06
3.96093e-06
1.63476e-07
-1.34881e-07
-4.57428e-06
4.04457e-06
-1.87815e-07
1.91066e-07
-3.75299e-06
3.42625e-06
-7.36607e-07
-4.58122e-07
-3.07625e-06
2.84559e-06
-1.54835e-06
-1.10394e-06
8.41752e-08
-4.55823e-07
6.68152e-07
-1.80341e-07
-1.83026e-06
2.71565e-06
2.18286e-06
-2.477e-06
-1.99764e-06
-2.34439e-06
3.05618e-06
-1.01527e-06
-3.91709e-06
-1.55598e-06
1.07925e-06
2.63117e-06
3.3605e-07
-1.54778e-07
2.5948e-07
-3.39466e-07
4.26576e-06
-5.96801e-06
1.83823e-06
0.000479204
-0.00178098
-0.000371354
0.0017961
-3.615e-06
3.69463e-06
-2.10565e-07
3.70416e-06
-3.54793e-06
-3.95956e-08
-2.11918e-07
-3.79057e-06
3.92572e-06
-1.805e-07
-1.43219e-07
-3.99871e-06
4.17831e-06
-1.64557e-08
-5.69979e-08
-4.19312e-06
4.08845e-06
5.96788e-08
5.45328e-08
5.18421e-08
3.27084e-06
-3.45959e-06
5.04279e-07
5.21497e-07
3.06112e-06
3.73933e-06
-3.9362e-06
2.70412e-07
4.38066e-07
4.07496e-06
-4.21111e-06
-1.8167e-07
6.0245e-08
4.23682e-06
-4.20372e-06
-7.1724e-08
-1.76049e-07
3.99934e-06
-3.82667e-06
1.60029e-08
-3.79876e-08
-8.28451e-08
-7.20152e-08
1.11411e-07
-2.9861e-06
3.24097e-06
-3.04337e-06
2.99905e-06
6.57065e-07
2.19665e-06
-3.2182e-06
9.00913e-07
-6.59066e-07
1.86929e-06
1.55511e-06
2.03441e-06
1.90966e-06
-3.33166e-06
3.66651e-08
-3.57186e-06
3.74591e-06
-3.15199e-07
-3.39508e-06
-3.71015e-07
8.91877e-07
-1.95344e-06
-3.13426e-06
3.44009e-06
2.38501e-07
-3.81247e-06
2.79359e-06
6.7558e-07
2.68454e-06
1.24178e-06
2.51367e-06
-2.89512e-06
8.13558e-07
-9.10833e-07
1.45195e-06
-2.10168e-06
1.99167e-06
-1.93402e-06
2.39419e-06
1.057e-06
-2.9757e-06
3.24553e-06
1.44705e-07
1.26624e-07
-1.30333e-07
-2.78445e-06
1.35126e-07
-2.73745e-06
-2.25426e-06
1.30692e-06
-2.24125e-06
2.32286e-06
-1.97632e-06
5.1364e-06
8.54435e-07
-5.41687e-06
-1.81026e-06
-3.15362e-06
-0.00185242
-0.000478072
0.00125261
0.00120278
-1.45787e-06
1.03674e-06
2.5902e-06
2.18423e-06
2.07723e-06
-2.8827e-08
-1.72717e-08
-3.11873e-06
0.00190634
-0.00164892
-0.000259005
-3.01095e-06
-1.70739e-05
-1.36351e-05
1.46705e-05
1.16706e-05
-7.93607e-06
5.45754e-06
-1.95852e-06
-3.83145e-06
3.77838e-06
-2.03483e-07
-1.64109e-07
-3.57639e-06
-3.8682e-06
4.03986e-06
1.03939e-08
-8.50804e-08
-4.14455e-06
3.93763e-06
-3.12023e-07
-4.62454e-08
-3.57085e-06
3.14157e-06
-9.74455e-07
-6.13903e-07
-2.6621e-06
2.22554e-06
-1.90306e-06
-1.37108e-06
-2.46162e-06
1.99024e-06
-2.2745e-06
-2.41575e-06
-2.84086e-06
2.69185e-06
-1.41897e-06
-3.15483e-06
-1.93799e-06
-1.65211e-06
-4.84371e-06
1.94673e-06
0.00179451
-0.00181613
0.00182515
-0.0018925
-3.52121e-06
1.37295e-07
3.76376e-06
1.59643e-07
-3.5248e-06
3.64936e-06
-1.16785e-08
3.40406e-06
-2.94325e-08
-3.26448e-06
4.6459e-08
-3.68693e-06
3.75892e-06
-7.67392e-08
-6.50764e-08
-3.85741e-06
3.90713e-06
-1.26117e-08
-2.41018e-08
-4.10076e-06
4.14354e-06
1.12454e-07
-4.50984e-08
-4.2597e-06
4.17407e-06
1.62402e-07
5.17756e-08
-4.05427e-06
3.81883e-06
1.43732e-07
6.73075e-08
-3.59883e-06
3.30402e-06
4.19572e-07
2.11503e-07
5.44701e-06
-6.46148e-06
-2.71219e-06
6.49353e-07
3.00849e-06
3.39235e-06
-3.71075e-06
3.43379e-07
5.38048e-07
3.91494e-06
-4.09497e-06
1.11286e-07
2.13552e-07
4.1701e-06
-4.34102e-06
-1.49892e-07
-1.02421e-07
4.37272e-06
-4.27525e-06
-1.67006e-07
-2.00949e-07
4.12134e-06
-3.9154e-06
-1.62304e-07
-1.65294e-07
-2.23666e-07
-2.59695e-07
1.70957e-07
-2.98363e-06
3.44949e-07
-3.19235e-06
-3.96632e-07
-3.1176e-06
-2.87463e-06
2.22997e-06
5.01876e-07
-1.96095e-06
-5.05877e-07
-4.35864e-07
2.49676e-07
2.85075e-06
-2.39543e-06
-2.08636e-06
3.0026e-06
-1.06737e-06
-1.54307e-06
-4.19171e-06
-1.22152e-07
3.84398e-06
-4.5832e-06
4.44052e-06
-6.97198e-07
2.27162e-06
1.26859e-06
-1.79897e-06
2.14109e-06
1.34793e-06
2.43515e-06
1.50234e-06
3.41164e-06
-3.57094e-06
2.80027e-07
1.68954e-06
-2.19905e-06
1.83664e-06
1.32888e-06
2.12575e-06
-2.9987e-06
3.29141e-06
1.27195e-07
-2.71591e-06
1.10708e-07
3.31082e-06
2.84484e-07
2.96245e-06
7.61794e-07
-2.0312e-07
7.23636e-08
-2.83349e-06
-3.9681e-07
-2.91641e-06
0.00037337
-8.7402e-08
-0.000328157
-2.85227e-06
-1.21846e-07
0.00042148
-2.61647e-06
-0.000373325
0.000421433
-2.87328e-06
-0.000328111
-3.02406e-06
-4.20433e-07
4.26312e-07
-2.96223e-06
-3.22427e-06
3.45462e-06
-3.69746e-07
-2.96289e-06
-3.56929e-07
-2.79434e-06
1.94074e-06
6.33156e-07
-4.19382e-07
-6.06281e-08
-4.96189e-06
5.50954e-07
2.39914e-06
-4.91707e-07
-2.52185e-06
1.37722e-07
2.88605e-06
4.10311e-05
4.28011e-05
-4.55421e-05
-4.87128e-05
0.00142407
0.00091001
-0.00144514
-0.000807156
0.0017571
0.000427921
-0.000393331
-0.00168037
1.75978e-06
1.63656e-06
0.00102561
0.00195598
-2.7233e-06
-3.76293e-08
7.24425e-06
-1.28424e-05
-1.18466e-05
1.37438e-05
-3.23842e-06
3.55836e-06
-9.95045e-08
1.06637e-07
-2.41247e-07
1.7489e-07
-3.74964e-06
3.83167e-06
-1.09436e-07
-8.69609e-08
-3.91446e-06
3.98456e-06
-1.17711e-07
-9.98039e-08
-3.94955e-06
3.70104e-06
-4.57307e-07
-2.26721e-07
-3.30903e-06
2.82967e-06
-1.17991e-06
-7.85277e-07
-2.34364e-06
1.78907e-06
-2.18281e-06
-1.64556e-06
-1.2658e-06
7.45143e-07
-3.65715e-06
-2.84855e-06
-4.34722e-06
1.69154e-06
-1.92335e-06
-2.8479e-06
-3.41755e-06
2.29505e-06
-2.77988e-06
-1.71651e-06
-2.28378e-06
3.21621e-06
-3.55455e-06
-7.25076e-07
3.5478e-07
-1.18359e-06
8.31537e-07
3.78219e-06
-3.82864e-06
-2.01751e-07
-4.65823e-08
-4.27079e-07
1.2197e-07
3.7411e-06
-3.56288e-06
7.04552e-08
-3.80071e-08
-1.14642e-07
1.14298e-07
0.000472658
-1.8831e-07
-2.59119e-06
0.000527035
-2.32266e-07
-2.6016e-06
0.000584943
-2.87328e-07
-2.82178e-06
0.000646832
-3.00196e-07
-3.09213e-06
0.000712598
1.26028e-07
-3.32911e-06
0.000783327
1.20724e-06
-4.49501e-06
0.000860995
2.8951e-06
-7.18265e-06
0.000945159
6.96268e-06
-1.04877e-05
0.00103891
1.51334e-05
-1.89854e-05
2.47523e-05
0.00114664
-3.17758e-05
0.0011476
-0.0010376
1.57045e-05
0.00127075
3.63563e-05
-4.80552e-05
4.95261e-05
0.00141529
-6.98982e-05
-0.00127407
0.00142296
2.6071e-05
2.25833e-05
0.000941934
-0.000859116
5.0608e-06
9.62275e-06
0.000782991
-0.000712034
-2.33962e-06
1.81786e-07
0.000646178
-0.00058459
-3.42916e-06
-3.14333e-06
0.000526888
-0.000472566
-3.03129e-06
-3.17573e-06
-2.92299e-06
-3.52111e-06
3.63993e-06
-1.8243e-08
4.27997e-08
-3.72586e-06
3.81927e-06
-1.09957e-08
-1.7427e-08
-3.9266e-06
4.00647e-06
9.57144e-08
4.88882e-08
-4.04529e-06
4.16508e-06
1.66223e-07
1.02006e-07
-4.22721e-06
4.25402e-06
2.35673e-07
1.36616e-07
-4.12315e-06
3.98353e-06
2.19159e-07
2.24632e-07
-3.77599e-06
3.5374e-06
3.64796e-07
2.44868e-07
3.2449e-05
-3.59131e-05
3.56953e-05
5.32365e-07
3.2338e-06
7.04675e-07
-1.1987e-06
-2.99599e-06
2.34035e-06
-2.64081e-06
1.08841e-06
1.59368e-06
-1.9962e-06
1.81152e-06
-2.10344e-06
-1.91475e-06
1.30121e-06
2.08339e-06
1.19337e-06
2.9311e-06
-3.17904e-06
6.09275e-07
8.5751e-07
3.46829e-06
-3.78723e-06
2.15102e-07
3.75045e-07
4.05498e-06
-4.20872e-06
-6.95041e-08
7.34792e-08
4.37706e-06
-4.44598e-06
-2.421e-07
-1.82333e-07
4.43927e-06
-4.34044e-06
-2.77624e-07
-2.85599e-07
4.19352e-06
-4.01555e-06
-2.87733e-07
-2.8416e-07
3.83772e-06
-3.65485e-06
-3.73017e-07
-3.19933e-07
-3.86279e-07
-3.62967e-07
2.85543e-07
-2.80598e-06
-2.90727e-06
-2.16254e-07
1.67874e-07
-2.59129e-06
-2.70173e-06
-1.41772e-07
1.10855e-07
-2.46945e-06
-2.52103e-06
2.07106e-05
2.6281e-05
-2.88761e-05
-2.48392e-05
5.89852e-05
-7.04931e-05
2.54523e-05
-2.53414e-05
2.81155e-06
9.02958e-07
-2.3403e-06
1.72173e-06
1.80813e-06
-2.4057e-06
1.52319e-06
2.7343e-06
1.01749e-06
-2.919e-06
-8.61553e-07
8.89219e-08
-6.999e-06
9.30579e-08
-6.56217e-08
-3.12575e-06
-0.000285996
-3.23302e-06
-0.000285961
3.40991e-06
1.26283e-07
-3.11486e-06
0.000194472
0.000115595
-8.15789e-05
-0.000269465
0.00114433
-0.00103817
-3.82154e-05
0.00126216
-5.52201e-05
3.80613e-06
-1.3036e-07
-0.00199684
-0.000432397
0.00079947
0.00179994
-2.29674e-06
1.40598e-06
-3.73012e-06
3.46914e-06
4.14294e-08
-2.08502e-07
1.23361e-07
-2.09183e-06
-1.40924e-07
-1.94151e-06
-0.000286214
0.00032837
-6.57315e-06
-3.46561e-06
-3.57574e-08
-0.000246718
-7.1709e-06
-0.000246919
-4.70169e-07
4.7646e-07
-2.66126e-06
-3.85638e-07
-2.6846e-06
-3.25314e-06
3.47299e-06
-2.55621e-07
-2.98175e-06
-2.62238e-07
-6.96978e-05
0.00161605
2.02527e-05
0.00160304
-0.000118155
-1.38994e-06
1.76505e-06
1.02025e-06
-1.88639e-06
1.46462e-06
-1.6036e-06
4.99223e-06
-1.71542e-06
-5.55742e-07
-1.62251e-06
1.30897e-06
1.31454e-06
-1.46984e-06
-2.06332e-06
1.02155e-06
0.00185983
0.000489844
-0.000482804
-6.14472e-06
-8.63172e-06
6.1009e-06
9.4364e-06
-1.34667e-05
7.74564e-06
8.2266e-07
3.19165e-07
-2.84932e-07
-4.81381e-07
-2.44025e-06
2.71399e-06
5.76789e-08
1.25528e-07
-1.72856e-07
-2.24417e-06
6.90642e-08
-2.19432e-06
1.30088e-06
1.26432e-06
4.68771e-07
-2.58902e-06
-5.92228e-07
-3.24437e-07
1.89624e-07
-2.53707e-06
-2.59304e-06
-7.23301e-08
-2.64168e-08
-2.33653e-06
2.61424e-06
-2.44394e-06
-2.22207e-06
-3.17795e-06
3.46277e-06
-8.44356e-08
-6.5398e-08
-3.67529e-06
3.81104e-06
-1.18665e-07
-7.76534e-08
-3.88215e-06
3.88014e-06
-2.25739e-07
-1.5401e-07
-3.76002e-06
3.45969e-06
-5.89291e-07
-3.71618e-07
-3.01514e-06
2.47775e-06
-1.35431e-06
-9.35352e-07
-1.90833e-06
1.29033e-06
-2.4566e-06
-1.87441e-06
-7.12696e-07
1.13422e-07
-4.30331e-06
-3.30611e-06
-5.67551e-06
4.24109e-06
-1.36685e-06
-7.88031e-06
-1.0327e-05
7.04046e-06
5.29854e-07
-8.76205e-07
-5.22059e-06
-6.60138e-06
2.10878e-07
1.11118e-06
-1.45519e-06
-3.15063e-06
-4.05431e-06
1.87045e-06
-2.36852e-06
-1.8543e-06
-2.4622e-06
2.86864e-06
-3.31951e-06
-8.82787e-07
-1.33588e-06
3.6157e-06
-3.76146e-06
-3.65726e-07
-6.21679e-07
3.71268e-06
-3.56223e-06
-4.00637e-08
-2.10891e-07
3.2982e-06
-3.005e-06
5.65985e-08
7.72556e-09
5.92581e-08
-0.000373484
0.000421415
-5.66252e-06
-6.10772e-06
-0.000472375
0.000526679
-5.51139e-06
-5.52955e-06
-0.000584478
0.000646476
-6.01819e-06
-5.66639e-06
-0.000712966
0.000784019
-7.2279e-06
-6.40212e-06
-0.000860073
0.000945273
-1.49439e-05
-9.3134e-06
-2.25165e-05
-0.000286176
0.000328299
-6.65623e-06
3.5301e-06
-7.22171e-06
-0.000246901
-0.000246697
-3.88258e-05
-0.00016808
-0.00159645
-0.000137443
7.15554e-05
2.06268e-06
-0.000103932
1.68208e-05
0.00141998
-0.00127817
3.76385e-06
-2.30021e-05
0.00115379
-0.00104345
5.60292e-06
8.05427e-06
0.00094514
-0.000858235
-4.66468e-08
2.07595e-06
0.0007808
-0.000711662
-2.95831e-06
-2.70653e-06
0.000645672
-0.000583926
-6.22863e-06
-5.6929e-06
0.00052624
-0.000472124
-5.80093e-06
-5.94282e-06
0.000421242
-0.000373388
-5.86936e-06
-5.80886e-06
-6.26604e-06
-3.57409e-06
3.69477e-06
-5.48602e-08
-2.13291e-08
-3.79604e-06
3.88736e-06
1.11679e-08
-2.48177e-08
-3.98073e-06
4.10503e-06
1.19779e-07
9.1314e-08
-4.18781e-06
4.29451e-06
2.01803e-07
1.7001e-07
-4.25781e-06
4.24682e-06
3.48004e-07
2.99924e-07
-4.17419e-06
4.06758e-06
3.40381e-07
3.62288e-07
-3.88941e-06
3.6911e-06
4.38438e-07
3.7319e-07
-3.46188e-06
3.2109e-06
5.88996e-07
-6.40797e-07
5.50505e-07
-2.80912e-06
2.25554e-06
7.56435e-07
7.08597e-07
1.27901e-06
-1.46715e-06
1.40708e-06
-1.91524e-06
1.57302e-06
1.20233e-06
9.404e-07
1.27348e-06
1.0868e-06
-1.68307e-06
1.48224e-06
-1.68912e-06
1.19461e-06
1.34991e-06
5.29296e-07
-1.56809e-06
-7.36857e-07
-9.35919e-07
7.06897e-07
1.37402e-06
1.14989e-06
-8.57799e-07
1.75182e-06
-2.49473e-06
8.38911e-07
-4.08736e-07
1.1186e-06
2.60385e-06
-2.78653e-06
9.14634e-07
9.39929e-07
3.0454e-06
-3.3702e-06
5.46332e-07
7.51179e-07
3.69934e-06
-3.96379e-06
1.06035e-07
3.13955e-07
4.18847e-06
-4.37667e-06
-1.38715e-07
-3.03606e-08
4.49159e-06
-4.52755e-06
-2.76812e-07
-2.34432e-07
4.49134e-06
-4.38336e-06
-2.95554e-07
-3.0335e-07
4.238e-06
-4.06691e-06
-2.86517e-07
-2.92638e-07
3.88442e-06
-3.69157e-06
-3.21931e-07
-2.96319e-07
-3.18134e-07
-4.44461e-07
3.71248e-07
-2.57586e-06
-2.64804e-06
-2.99431e-07
2.30558e-07
-2.39757e-06
-2.50589e-06
-2.3118e-06
0.00142573
0.00149124
-3.89865e-05
-7.59614e-06
4.85486e-06
3.39153e-05
0.00139728
-8.35314e-05
3.28743e-06
4.61029e-07
-2.75607e-06
1.26565e-06
-2.70971e-06
1.14107e-06
3.09697e-06
5.40353e-07
-1.88337e-06
2.8533e-08
1.91661e-06
-0.00160562
-0.00149801
0.00154829
0.00163387
8.63335e-06
-8.05528e-06
5.27365e-07
-1.88573e-06
1.79435e-06
-0.000286658
0.000328739
-1.02422e-05
-0.000247389
-1.11507e-05
-5.44589e-07
4.90425e-07
-2.30142e-06
4.72325e-05
-1.24132e-05
1.59681e-05
-2.75793e-06
-7.48285e-07
2.83961e-06
-2.54066e-06
-5.8292e-07
-5.40345e-07
-2.29731e-06
-2.4113e-07
-2.74741e-06
-2.41619e-06
2.70117e-06
-1.3267e-08
-2.15515e-06
5.48856e-10
0.00177586
-0.000184406
-8.44038e-06
1.12313e-05
7.77228e-06
-1.44903e-05
1.29569e-05
-1.70627e-05
-7.57243e-06
-0.00162586
0.00152466
2.21919e-06
-1.96018e-06
0.00113653
-0.0010363
-4.08297e-05
0.00125037
-6.14508e-05
-1.7279e-05
-1.50032e-05
1.52931e-05
-2.06891e-05
1.09876e-05
-1.30118e-05
-1.87037e-05
1.66709e-05
-1.81516e-05
-2.50846e-06
1.09247e-06
4.48192e-06
-8.47355e-07
3.90429e-06
-8.08e-07
-2.53388e-06
1.0092e-06
-9.36968e-06
9.42009e-06
-0.000286573
0.000328627
-1.03155e-05
-0.000247322
-1.11954e-05
4.0008e-05
-4.54307e-05
2.94516e-05
-3.21969e-05
-0.0019288
0.000318457
0.00220666
-0.00180486
0.000420708
-1.36119e-05
1.14117e-05
6.09867e-06
-3.22129e-06
-6.24824e-06
-1.97847e-06
1.2598e-06
-1.40054e-06
1.21187e-06
1.36825e-06
1.10388e-06
-1.63959e-06
-1.28471e-06
3.37612e-07
1.43815e-06
3.04668e-07
-1.56487e-06
-2.30971e-06
8.23551e-07
5.15872e-06
-2.68116e-06
9.25732e-06
9.30106e-06
-1.20247e-05
-9.80379e-06
0.00153033
-0.000116988
9.31311e-07
2.65248e-07
-5.43087e-07
-3.55314e-07
-1.05848e-05
5.5334e-06
9.85797e-06
-3.79826e-05
2.34272e-05
2.35081e-05
-1.40214e-05
8.6588e-07
8.65815e-07
-4.02012e-07
3.00095e-07
-2.25233e-06
-2.29703e-06
-2.01128e-07
1.1064e-07
-2.07949e-06
-2.17703e-06
-4.19424e-08
7.82347e-10
-1.86732e-06
-1.97859e-06
-8.439e-09
1.97019e-08
-1.70263e-06
-1.76196e-06
1.85445e-06
-1.63373e-06
2.06445e-09
-2.01708e-06
2.95922e-06
3.0542e-07
-9.56593e-07
9.41808e-08
-3.14518e-06
3.40438e-06
-6.87674e-08
9.34388e-08
-3.61946e-06
3.75275e-06
-1.63583e-07
-1.0601e-07
-3.8024e-06
3.75077e-06
-3.14025e-07
-2.18288e-07
-3.55155e-06
3.20262e-06
-7.24944e-07
-4.76758e-07
-2.67872e-06
2.0691e-06
-1.5197e-06
-1.06283e-06
-1.38738e-06
6.81138e-07
-2.74045e-06
-2.06652e-06
1.41066e-07
-1.06412e-06
-4.85658e-06
-3.68658e-06
2.19529e-06
-3.40526e-06
-8.46503e-06
-6.50092e-06
-1.09167e-05
-4.30058e-06
-5.39142e-06
3.62752e-06
-1.00323e-05
8.19693e-06
-1.20762e-05
-2.05602e-06
7.062e-07
-5.69875e-06
-7.74701e-06
2.13421e-07
-8.78297e-07
-3.24622e-06
-4.26487e-06
1.45676e-06
-2.0117e-06
-1.91288e-06
-2.4965e-06
2.57503e-06
-3.0715e-06
-9.46867e-07
-1.39429e-06
3.46802e-06
-3.65903e-06
-4.21261e-07
-6.54962e-07
3.65968e-06
-3.50192e-06
-1.4849e-07
-2.87145e-07
3.28714e-06
-3.00793e-06
-2.39085e-08
-6.82505e-08
-2.44725e-08
-0.000373717
0.000421458
-8.95112e-06
-9.62165e-06
-0.000472303
0.000526463
-8.37219e-06
-8.64728e-06
-0.000584328
0.000646257
-8.49086e-06
-8.37706e-06
-0.000712615
0.00078409
-9.89175e-06
-8.85619e-06
-0.000861167
0.000944689
-1.77027e-05
-1.21261e-05
-2.57481e-05
-3.02124e-09
-3.7275e-06
-0.000210203
3.72009e-06
-7.55256e-06
-0.000210383
-0.00021019
2.29452e-07
-2.02031e-06
7.56385e-06
-0.000210889
-1.16746e-05
-0.000210406
0.00155034
-0.00152891
-4.06423e-05
0.000119126
0.000242518
-0.000390797
0.00168372
-0.00157015
-0.000124469
-0.000209574
0.00141706
-0.00127754
-2.00798e-05
-5.39983e-05
0.00115385
-0.00104383
-5.31035e-06
-7.92748e-06
0.00094786
-0.000860532
-5.39991e-06
-3.75489e-06
0.000782852
-0.000710843
-5.85527e-06
-5.45834e-06
0.0006449
-0.000583685
-8.10726e-06
-7.7518e-06
0.000525951
-0.000471936
-8.56594e-06
-8.60695e-06
0.000421208
-0.000373537
-9.11531e-06
-8.87365e-06
-9.74322e-06
-2.76793e-06
2.75838e-06
-5.48396e-07
2.54273e-06
-2.26535e-06
-5.61017e-07
-5.72283e-07
-3.03616e-06
3.43909e-06
-1.29144e-07
-3.0691e-07
2.01173e-07
-3.64398e-06
3.77659e-06
-1.01795e-07
-1.09817e-07
-3.8857e-06
3.99085e-06
-1.41461e-08
-5.90224e-08
-4.10809e-06
4.20537e-06
1.24588e-07
6.65764e-08
-4.27703e-06
4.31862e-06
2.48782e-07
2.00002e-07
-4.33653e-06
4.32223e-06
4.10099e-07
3.50908e-07
-4.25954e-06
4.13528e-06
4.62095e-07
4.50098e-07
-3.96281e-06
3.76354e-06
5.59442e-07
5.08418e-07
-3.55048e-06
3.26432e-06
6.85349e-07
6.35872e-07
-2.9474e-06
2.53642e-06
8.64226e-07
7.79377e-07
-2.12784e-06
1.74711e-06
1.2185e-06
1.00715e-06
1.44352e-06
8.82319e-07
-1.46344e-06
-1.36283e-06
9.75725e-07
1.50497e-06
1.39256e-06
6.18183e-07
-1.50757e-06
1.59266e-06
2.57851e-07
-1.49843e-06
1.63912e-06
1.48808e-06
4.39245e-08
-1.42028e-06
6.32587e-08
-4.02058e-07
1.6824e-06
-1.54284e-06
1.68773e-06
7.35057e-07
-1.0189e-06
1.54081e-06
1.64385e-06
1.44024e-06
-1.78206e-06
1.42663e-06
1.46506e-06
1.98647e-06
-2.41422e-06
1.10513e-06
1.20593e-06
2.74705e-06
-2.98686e-06
9.0118e-07
1.05624e-06
3.26162e-06
-3.55624e-06
5.44551e-07
7.40212e-07
3.84899e-06
-4.12082e-06
1.28224e-07
3.19491e-07
4.33408e-06
-4.48484e-06
-8.50205e-08
-2.7939e-10
4.56578e-06
-4.5676e-06
-1.69279e-07
-1.48792e-07
4.50517e-06
-4.3897e-06
-1.63161e-07
-1.74724e-07
4.24703e-06
-4.08338e-06
-1.60245e-07
-1.59726e-07
3.90422e-06
-3.70668e-06
-2.04678e-07
-1.74359e-07
3.48188e-06
-3.21873e-06
-1.70378e-07
-2.11861e-07
2.98462e-06
-2.9481e-06
8.83077e-08
-1.41235e-07
-4.93124e-07
4.55923e-07
-2.34338e-06
-7.76957e-07
-4.88086e-07
5.09954e-07
-2.33815e-06
-2.34662e-06
-4.92663e-07
4.48588e-07
-2.30593e-06
-2.33584e-06
-3.74152e-07
2.99171e-07
-2.17715e-06
-2.25666e-06
-2.28022e-07
1.62936e-07
-2.0227e-06
-2.09754e-06
-9.70481e-08
-1.90907e-06
2.37925e-08
-1.96068e-06
0.00141878
-0.00133392
-0.000328994
0.00183038
3.57344e-07
-3.50702e-06
1.87604e-05
-2.67254e-05
-1.83217e-05
0.00137051
-8.54073e-05
-3.56071e-05
-8.56388e-05
3.61411e-05
-1.81413e-05
1.99748e-05
-2.5582e-05
1.03659e-05
-4.1111e-06
3.53547e-05
2.56639e-05
1.72971e-05
-3.79373e-05
2.06689e-05
2.00418e-05
-1.95002e-05
-3.12959e-06
8.93156e-07
3.82673e-06
2.40969e-08
-2.35585e-07
-1.50341e-06
5.55186e-07
-1.47821e-06
3.48809e-06
-5.13528e-08
-3.04672e-06
7.60555e-07
-1.01686e-05
1.08936e-05
9.70618e-06
-1.53677e-05
7.28865e-06
-1.39047e-06
2.19301e-07
-4.11469e-07
1.52529e-06
2.30422e-05
-2.48242e-05
2.22585e-05
-2.70312e-05
8.67211e-06
-2.08065e-05
-7.61367e-06
5.40406e-06
-1.20236e-05
-1.16631e-05
-0.000210834
-0.00186509
0.00217098
0.000114155
-0.00190874
0.000579171
-5.42731e-07
5.55993e-07
-1.99942e-06
2.26593e-06
-5.68324e-07
-1.94959e-06
2.5118e-06
-5.36619e-07
0.001292
-1.51707e-05
1.39812e-05
5.06422e-06
-1.28482e-06
-2.72179e-06
9.35701e-07
8.19987e-07
-1.71719e-06
-5.32292e-08
-1.65297e-06
-2.92435e-06
6.53717e-07
4.54277e-06
-1.61233e-06
-8.55794e-06
6.74775e-06
8.65146e-06
5.47474e-08
-1.01092e-07
-1.48338e-06
4.33364e-09
-1.40574e-06
0.00168917
-0.000193547
3.7246e-07
-4.95058e-05
-0.00258678
0.00107353
0.000135709
-2.57321e-05
0.00179442
0.00137754
-0.000912508
4.64623e-07
-2.4764e-06
2.17639e-05
1.90236e-05
-2.90044e-05
-0.00175312
-0.000121284
0.000411242
0.00210083
-1.18507e-05
9.42862e-06
0.00157936
0.000609307
-5.96404e-06
6.96925e-06
-6.27798e-06
-2.16533e-06
1.00094e-06
1.21055e-07
-2.34668e-06
5.76635e-06
-4.43004e-06
-5.74916e-06
5.86233e-08
-1.37778e-07
-1.66791e-06
-1.86362e-06
2.1183e-06
-5.92817e-08
-2.76485e-08
-1.6157e-06
-1.27083e-05
8.21617e-06
-0.000176146
-0.000211535
0.000247936
-1.61978e-05
-1.78033e-05
-0.000176701
0.001503
-0.00011951
4.75666e-07
-1.99796e-06
-7.54803e-06
4.8393e-06
9.77127e-06
-1.02703e-05
-1.18697e-05
8.83572e-06
2.17008e-05
3.00286e-07
-4.05423e-06
3.91442e-06
-3.74055e-06
-5.19058e-07
5.26561e-07
-1.4323e-06
3.95299e-07
1.0039e-05
-1.3217e-05
-9.71908e-06
-5.43065e-07
5.19888e-07
-2.02163e-06
-2.01382e-06
-4.66286e-07
3.95587e-07
-1.97306e-06
-2.00848e-06
-3.19269e-07
2.44455e-07
-1.8313e-06
-1.91378e-06
-1.815e-07
1.34793e-07
-1.64932e-06
-1.74572e-06
-1.55783e-06
1.85244e-06
-1.59159e-06
-4.27992e-08
-2.19477e-06
2.7187e-06
7.51885e-08
7.44741e-09
-3.12276e-06
3.37033e-06
-7.28156e-08
-1.29153e-08
-3.57933e-06
3.68881e-06
-2.08148e-07
-1.56038e-07
-3.70941e-06
3.60386e-06
-3.89693e-07
-2.78798e-07
-3.33603e-06
2.89087e-06
-8.3269e-07
-5.71824e-07
-2.29699e-06
1.60629e-06
-1.66491e-06
-1.18396e-06
-8.29003e-07
-6.76159e-08
-2.91761e-06
-2.23538e-06
1.12478e-06
-2.48106e-06
-5.16581e-06
-3.93247e-06
4.31857e-06
-6.68369e-06
-9.22762e-06
-6.89771e-06
-1.2003e-05
2.28186e-05
-2.8971e-05
-2.00159e-05
2.00844e-05
-1.57528e-05
-3.19156e-06
1.55426e-06
-6.35621e-06
-8.80166e-06
-4.08094e-07
-4.07502e-07
-3.4182e-06
-4.59167e-06
1.06048e-06
-1.6664e-06
-2.00473e-06
-2.6035e-06
2.30174e-06
-2.86857e-06
-1.01911e-06
-1.4521e-06
3.31502e-06
-3.57556e-06
-4.21515e-07
-6.97092e-07
3.6246e-06
-3.50518e-06
-1.70622e-07
-2.88795e-07
3.27424e-06
-2.97935e-06
-1.07238e-07
-1.2171e-07
2.67998e-06
-2.38786e-06
-9.56873e-08
-1.02682e-07
-7.97387e-08
-0.00028716
0.00032918
-1.40061e-05
-1.53695e-05
-0.000374034
0.000421594
-1.21514e-05
-1.31406e-05
-0.000472259
0.000526243
-1.10459e-05
-1.16028e-05
-0.000583986
0.000645875
-1.09244e-05
-1.0889e-05
-0.000712376
0.000783582
-1.27049e-05
-1.16087e-05
-0.000860669
0.000942953
-2.01607e-05
-1.55781e-05
-0.00103502
0.00113287
-4.27708e-05
-3.05355e-05
-0.00124073
0.00135636
-8.41155e-05
-6.32625e-05
-8.15099e-06
4.00398e-06
-0.000175745
-0.000211413
0.00024781
-1.62107e-05
1.2671e-05
-1.7767e-05
-0.000176587
-0.000176069
1.55386e-08
-4.07528e-06
-0.00017561
-0.000175621
-0.000175779
0.00174668
-0.00164793
-1.42541e-05
0.000208569
0.00162431
-0.00152833
-9.94526e-05
-0.000111158
0.00140084
-0.00127061
-3.53511e-05
-6.13658e-05
0.0011494
-0.0010413
-1.44836e-05
-2.09798e-05
0.000944971
-0.000860249
-9.3296e-06
-1.08498e-05
0.000782034
-0.000710625
-8.85576e-06
-9.75861e-06
0.000644651
-0.000582938
-1.04024e-05
-1.00215e-05
0.00052572
-0.000471867
-1.11161e-05
-1.06423e-05
0.000421315
-0.00037382
-1.22869e-05
-1.1771e-05
0.000329019
-0.000287021
-1.40894e-05
-1.32492e-05
-1.54319e-05
-2.73152e-06
2.89449e-06
-4.86311e-07
-5.43458e-07
-3.15822e-06
3.4555e-06
-2.41757e-07
-3.64936e-07
-3.68683e-06
3.85324e-06
-1.5743e-07
-1.89427e-07
-3.977e-06
4.09049e-06
-6.53218e-08
-1.04773e-07
-4.18278e-06
4.2666e-06
1.00277e-07
3.37567e-08
-4.34515e-06
4.36876e-06
2.6069e-07
1.74779e-07
-4.38763e-06
4.39317e-06
3.82426e-07
3.39821e-07
-4.33179e-06
4.21716e-06
4.97713e-07
4.60797e-07
-4.05341e-06
3.85635e-06
6.21739e-07
5.65555e-07
-3.64238e-06
3.3689e-06
7.53018e-07
6.84957e-07
-3.06141e-06
2.69263e-06
9.26717e-07
8.33745e-07
-2.29744e-06
1.9074e-06
1.2104e-06
1.04572e-06
-1.50789e-06
1.09244e-06
1.49984e-06
1.37076e-06
-6.82375e-07
2.81704e-07
1.69435e-06
1.6114e-06
9.38557e-08
-4.65019e-07
1.79644e-06
1.76288e-06
8.21999e-07
-1.18614e-06
1.72812e-06
1.78431e-06
1.52666e-06
-1.82096e-06
1.60365e-06
1.67095e-06
2.16461e-06
-2.51535e-06
1.29999e-06
1.41688e-06
2.81235e-06
-3.12766e-06
9.92849e-07
1.16701e-06
3.43589e-06
-3.73782e-06
6.24432e-07
8.10324e-07
4.01721e-06
-4.25798e-06
2.59909e-07
4.21148e-07
4.43901e-06
-4.54978e-06
1.02687e-07
1.58872e-07
4.59379e-06
-4.5703e-06
5.94153e-08
6.7359e-08
4.49601e-06
-4.38457e-06
5.35584e-08
5.66604e-08
4.25284e-06
-4.10272e-06
7.81646e-09
3.53052e-08
3.93379e-06
-3.74126e-06
-8.8361e-08
-3.32258e-08
3.52095e-06
-3.26302e-06
-1.21215e-07
-1.21551e-07
3.00887e-06
5.75244e-08
-2.69467e-06
-9.8993e-08
-4.88715e-07
5.08206e-07
-2.00375e-06
-2.00285e-06
-5.09312e-07
4.83302e-07
-1.99363e-06
-2.00546e-06
-4.30742e-07
3.63453e-07
-1.9182e-06
-1.97019e-06
-2.91433e-07
2.14168e-07
-1.78778e-06
-1.8589e-06
-1.72391e-06
2.25851e-06
-0.00278229
0.00161132
0.00279446
-0.00178765
0.000947483
-0.00217935
-0.00120673
0.00236494
2.19434e-06
-1.89536e-06
-5.57589e-07
1.74172e-05
1.95943e-05
-1.60799e-05
1.65321e-05
1.73429e-05
2.07438e-05
4.27089e-06
-4.20133e-07
-3.55063e-06
6.67121e-07
5.42733e-07
-1.73671e-06
-3.25502e-07
-1.83191e-06
-3.49917e-06
3.09954e-07
4.03648e-06
-7.46392e-07
-9.21707e-06
8.85295e-06
3.32173e-08
-3.90712e-06
-1.34958e-06
-5.37166e-08
1.39166e-05
-1.57261e-05
4.76434e-05
2.58856e-05
-5.77435e-05
0.00168537
0.000845115
-0.00152909
1.2628e-05
-2.65253e-05
0.00180337
-0.000276617
2.48227e-06
-5.37775e-07
-4.98825e-05
2.90617e-06
-2.38389e-05
2.09823e-05
1.22765e-05
-1.42842e-05
-0.000212366
0.000248756
-2.13323e-05
-0.000177421
-2.35274e-05
0.0017569
0.00153326
-0.00211547
0.0016237
5.55052e-08
-2.69124e-06
0.0017604
0.00131171
1.81967e-05
1.83615e-05
-1.33713e-05
1.18302e-05
0.00205442
0.000273821
-0.000448587
5.74075e-06
-1.88195e-06
-2.99075e-06
7.50542e-07
7.43406e-07
-2.30522e-06
-1.11477e-07
-2.53995e-06
-3.23671e-06
3.02375e-07
5.16797e-06
-2.65778e-06
-6.21242e-06
6.45695e-06
-5.57253e-07
5.67211e-07
-1.70253e-06
-5.51077e-07
-1.64149e-06
-1.8213e-06
2.07893e-06
-1.44693e-07
-1.57065e-06
-1.18644e-07
1.04668e-07
-1.88936e-07
-1.41892e-06
1.7986e-08
-1.36925e-06
-0.000212532
0.000248904
-2.12859e-05
-0.000177591
-2.35346e-05
-1.31236e-05
8.43511e-06
-0.000143345
-1.84211e-05
-0.000143741
-3.24268e-05
-7.33383e-06
0.00161882
-0.000164295
-4.79558e-07
4.77119e-07
-1.67897e-06
-4.82845e-07
-1.68083e-06
0.00147136
-0.000107808
2.10936e-07
1.85396e-07
4.03999e-08
-9.18999e-06
8.43118e-06
-1.07484e-07
1.5489e-06
-9.02549e-07
1.86272e-05
-3.77764e-06
1.39331e-07
-1.75881e-06
-1.55261e-07
9.58286e-06
-1.17097e-05
-5.63366e-07
5.51957e-07
-1.72744e-06
-1.71353e-06
-5.18009e-07
4.71281e-07
-1.68881e-06
-1.71193e-06
-4.11708e-07
3.51414e-07
-1.5768e-06
-1.64086e-06
-2.89212e-07
2.33708e-07
-1.41902e-06
-1.50195e-06
-1.7837e-07
1.10941e-07
-1.25241e-06
-1.33439e-06
-5.19666e-08
-8.06837e-09
-1.12663e-06
-1.18358e-06
1.30763e-06
-1.07416e-06
-7.96644e-08
-1.55995e-06
1.86339e-06
-1.20336e-07
-1.17552e-07
-2.23617e-06
2.66916e-06
-7.01703e-08
-9.92652e-08
-3.02868e-06
3.32389e-06
-1.55435e-07
-1.01411e-07
-3.50934e-06
3.60215e-06
-2.66737e-07
-2.11436e-07
-3.58809e-06
3.43459e-06
-4.77339e-07
-3.46762e-07
-3.10018e-06
2.58603e-06
-9.27566e-07
-6.64681e-07
-1.89831e-06
1.08209e-06
-1.71561e-06
-1.24817e-06
-1.47619e-07
-8.61996e-07
-3.01962e-06
-2.28479e-06
2.18687e-06
-3.9479e-06
-5.27841e-06
-4.02702e-06
6.28605e-06
-9.66338e-06
-9.40623e-06
-7.13493e-06
-1.21422e-05
-3.11035e-05
2.31875e-05
3.99212e-05
-1.06208e-05
8.1705e-06
-1.44577e-05
-1.9338e-05
-5.35755e-06
3.08519e-06
-6.84116e-06
-9.85057e-06
-1.46514e-06
3.47872e-07
-3.4633e-06
-4.7752e-06
5.06208e-07
-1.27445e-06
-1.99497e-06
-2.60435e-06
1.96359e-06
-2.61413e-06
-1.10188e-06
-1.50717e-06
3.13576e-06
-3.482e-06
-4.72368e-07
-8.05724e-07
3.5854e-06
-3.50387e-06
-1.91941e-07
-3.29796e-07
3.25991e-06
-2.95357e-06
-1.78566e-07
-1.84527e-07
2.65415e-06
-2.35705e-06
-1.72083e-07
-1.65121e-07
-1.63523e-07
-0.000288099
0.000330037
-1.80549e-05
-2.00231e-05
-0.000374743
0.000422158
-1.54724e-05
-1.6843e-05
-0.000472708
0.000526587
-1.3969e-05
-1.46974e-05
-0.000584084
0.000645595
-1.38488e-05
-1.37445e-05
-0.000711092
0.000781615
-1.62569e-05
-1.45308e-05
-0.000857501
0.000939807
-2.40685e-05
-1.93762e-05
-0.00102762
0.00112722
-4.70379e-05
-3.2101e-05
-0.00122966
0.00134384