/*--------------------------------*- C++ -*----------------------------------*\
| =========                 |                                                 |
| \\      /  F ield         | OpenFOAM: The Open Source CFD Toolbox           |
|  \\    /   O peration     | Version:  2212                                  |
|   \\  /    A nd           | Website:  www.openfoam.com                      |
|    \\/     M anipulation  |                                                 |
\*---------------------------------------------------------------------------*/
FoamFile
{
    version     2.0;
    format      ascii;
    arch        "LSB;label=32;scalar=64";
    class       volScalarField;
    location    "0.0365";
    object      p;
}
// * * * * * * * * * * * * * * * * * * * * * * * * * * * * * * * * * * * * * //

dimensions      [1 -1 -2 0 0 0 0];

internalField   nonuniform List<scalar> 
2308
(
592.053
583.537
594.521
596.799
589.871
590.013
588.121
589.854
590.12
585.786
581.854
579.184
578.948
579.191
580.043
581.346
582.838
583.702
582.199
580.605
579.259
578.461
578.473
578.941
580.494
584.252
590.525
596.413
588.674
584.328
602.213
607.413
611.562
614.629
616.852
618.485
619.727
620.511
620.926
621.173
621.542
622.079
623.067
624.057
625.225
624.648
623.37
622.451
621.661
621.378
621.256
621.183
620.929
620.348
619.347
617.78
615.589
612.496
608.262
602.972
597.084
591.414
586.218
582.196
579.967
579.172
579.022
579.415
580.471
581.858
583.493
626.045
625.622
581.428
579.613
578.071
577.209
577.177
577.606
579.165
583.081
589.128
594.786
600.354
605.401
609.55
612.793
615.293
617.231
618.703
619.767
620.499
621.061
621.726
622.454
623.603
624.618
625.595
584.99
626.201
585.782
585.091
624.838
623.971
622.648
621.931
621.4
621.302
621.282
621.213
620.901
620.245
619.137
617.555
615.358
612.223
607.925
602.635
596.774
591.055
586.065
581.877
579.564
578.763
578.699
579.316
580.557
582.256
584.017
589.88
590.492
590.029
590.29
582.25
580.203
578.154
576.48
575.485
575.342
575.798
577.473
581.274
586.612
591.987
597.433
602.466
606.78
610.336
613.221
615.57
617.449
618.919
620.07
620.996
621.914
622.727
623.908
624.836
625.772
626.305
626.615
626.431
626.358
626.073
590.2
625.439
590.346
590.697
586.485
590.771
589.907
586.339
585.773
626.608
626.301
626.07
625.61
624.862
623.838
624.397
623.925
623.159
622.005
621.516
621.241
621.21
621.144
620.919
620.423
619.619
618.449
616.839
614.493
611.116
606.64
601.238
595.371
589.665
584.89
581.087
578.977
578.237
578.325
579.235
580.772
582.662
584.641
585.759
591.008
589.723
589.628
588.643
587.539
586.249
584.708
582.82
580.8
578.573
576.447
574.699
573.61
573.391
573.875
575.64
579.279
583.94
589.022
594.32
599.381
603.891
607.784
611.075
613.866
616.216
618.17
619.761
620.999
622.068
622.867
623.936
624.84
625.896
626.687
627.157
627.257
598.569
590.882
581.742
597.745
593.535
590.918
587.234
586.676
622.616
623.125
623.032
622.424
621.547
621.275
621.171
621.083
620.854
620.385
619.654
618.651
617.299
615.508
612.974
609.437
604.827
599.401
593.647
588.11
583.56
580.284
578.54
577.941
578.254
579.47
581.234
583.356
585.489
586.474
590.768
590.168
589.194
588.225
586.923
585.409
583.63
581.588
579.37
577.06
574.887
573.116
572.008
571.773
572.346
574.156
577.53
581.75
586.584
591.727
596.766
601.412
605.562
609.199
612.395
615.19
617.603
619.577
621.032
622.195
622.941
623.813
624.767
626.041
627.333
628.044
628.124
627.673
626.811
626.263
626.275
626.44
626.693
626.689
626.007
624.51
582.556
590.187
610.609
591.134
591.847
611.664
587.389
587.894
590.951
591.4
591.114
589.69
588.85
587.693
586.281
584.608
582.648
580.532
578.259
576.006
573.967
572.317
571.286
571.03
571.675
573.472
576.49
580.426
585.056
590.008
594.956
599.629
603.912
607.785
611.279
614.437
617.203
619.481
621.065
622.292
623.001
623.796
624.882
626.368
628.168
629.174
629.305
628.947
625.897
625.046
625.522
625.349
625.457
625.056
624.107
622.918
621.805
620.961
620.146
622.764
621.41
621.948
622.205
621.88
621.361
621.258
621.194
620.967
620.499
619.72
618.731
617.5
615.981
614.113
611.425
607.839
603.264
597.951
592.415
587.425
583.395
580.283
578.616
578.126
578.649
580.11
582.12
584.415
586.673
590.365
588.794
588.907
587.035
591.186
591.571
591.458
591.186
590.326
589.664
589.49
588.499
587.235
585.723
583.969
581.967
579.874
577.74
575.61
573.652
572.093
571.234
571.08
571.861
573.712
576.582
580.326
584.668
589.344
594.078
598.612
602.865
606.821
610.43
613.933
616.945
619.446
621.203
622.378
623.166
624.048
625.273
626.956
629.138
630.312
630.446
630.167
626.786
631.993
630.291
628.701
627.27
626.313
626.923
627.799
629.797
630.928
629.99
627.424
624.797
622.515
619.224
621.199
620.369
621.173
621.539
621.594
621.414
621.434
621.346
620.921
620.195
619.143
617.918
616.461
614.784
612.796
610.082
606.517
602.18
597.236
592.242
587.558
583.639
580.76
579.293
579.014
579.601
581.187
583.446
585.89
588.192
588.622
590.642
589.844
607.46
590.009
590.937
591.434
591.749
589.685
588.9
587.746
589.834
591.426
591.823
621.328
621.42
619.891
622.121
621.86
621.388
619.929
616.331
614.151
614.176
616.791
618.143
618.742
617.933
620.903
618.197
620.098
619.551
620.696
621.282
621.63
621.71
621.803
621.666
621.063
620.141
618.896
617.302
615.749
613.897
611.794
609.031
605.561
601.478
597.017
592.379
587.99
584.454
581.94
580.688
580.538
581.079
582.629
585.048
587.589
589.92
590.112
589.601
590.93
596.209
594.788
588.159
586.82
585.281
583.54
581.649
579.622
577.558
575.587
573.859
572.588
572.047
572.053
572.95
574.778
577.492
580.982
585.056
589.459
593.891
598.158
602.223
606.123
609.907
613.538
616.808
619.526
621.478
622.761
623.575
624.584
625.973
627.775
630.112
631.315
631.464
631.169
628.942
632.483
624.81
589.152
590.157
598.075
590.63
591.683
590.883
615.918
620.141
617.222
619.599
619.133
620.528
621.298
621.936
622.259
622.414
622.23
621.5
620.444
619.14
617.21
615.437
613.424
611.143
608.33
604.939
601.095
596.916
592.744
588.967
585.886
583.639
582.568
582.477
582.947
584.331
586.784
589.317
591.661
591.842
589.758
591.181
637.505
639.235
636.603
633.389
633.165
629.805
634.446
637.495
643.721
643.018
640.637
634.896
630.476
626.876
624.459
623.557
589.175
592.018
591.946
591.635
591.119
589.7
590.015
589.554
597.38
587.739
586.44
584.973
583.346
581.54
579.65
577.81
576.12
574.647
573.781
573.482
573.657
574.655
576.469
579.011
582.217
585.921
589.908
593.954
597.914
601.754
605.57
609.42
613.247
616.803
619.813
622.069
623.477
624.374
625.473
626.952
628.693
630.958
632.095
632.23
631.97
629.915
633.147
624.427
638.562
596.566
591.383
590.172
588.297
590.481
589.497
589.755
597.566
598.217
589.815
591.179
593.681
589.434
583.504
593.51
594.185
624.934
612.828
620.362
616.19
619.364
618.947
620.657
621.546
622.46
623.035
623.298
623.16
622.402
621.252
619.709
617.77
615.701
613.436
610.857
607.94
604.633
600.967
597.171
593.526
590.187
587.453
585.56
584.597
584.563
584.96
586.149
588.459
590.887
593.221
594.944
589.404
592.216
591.967
615.535
620.577
614.062
617.803
617.009
612.808
614.333
603.006
598.725
585.785
592.133
593.814
607.026
613.939
617.317
615.836
609.643
603.678
589.351
592.196
592.125
591.824
591.314
590.628
594.092
590.595
588.26
587.252
586.098
584.795
583.307
581.692
580.037
578.452
577.03
575.837
575.335
575.199
575.532
576.573
578.284
580.641
583.567
586.904
590.469
594.092
597.692
601.3
605.026
608.949
613.012
616.937
620.369
622.96
624.593
625.593
626.666
628.085
629.617
631.608
632.692
632.826
632.909
630.642
634.197
625.051
641.619
615.15
588.552
592.885
591.715
586.699
586.936
587.3
592.02
590.805
588.667
589.852
593.76
581.859
593.388
589.519
596.922
589.751
598.256
596.781
596.052
594.507
592.32
590.018
587.895
586.841
586.488
586.424
587.208
588.854
591.256
594.234
597.547
601.024
604.523
607.877
610.957
613.81
616.463
618.868
621.017
622.709
623.829
624.526
624.556
624.056
623.15
621.961
620.903
619.063
619.239
616.197
620.07
612.949
623.757
606.317
595.189
663.36
653.119
649.158
652.601
645.885
641.212
654.784
643.297
672.539
671.075
661.457
661.538
659.215
651.397
643.288
639.53
636.755
635.067
634.75
634.463
588.929
594.419
586.662
599.037
599.471
599.791
599.865
599.976
598.385
596.929
595.615
597.593
593.64
581.526
580.384
581.155
585.605
585.838
586.222
592.101
587.811
596.445
592.303
592.225
591.935
591.477
590.943
589.944
590.09
588.566
587.764
586.869
585.872
584.745
583.465
582.097
580.692
579.343
578.118
577.195
576.923
576.889
577.274
578.29
579.903
582.099
584.743
587.719
590.881
594.1
597.37
600.753
604.418
608.463
612.816
617.194
621.134
624.188
626.097
627.148
628.063
629.253
630.524
632.076
633.169
633.105
634.099
630.201
635.506
623.262
641.637
613.502
663.016
582.68
582.422
582.364
587.918
581.461
593.221
593.639
581.72
592.214
589.039
590.212
587.701
583.348
584.721
584.479
595.419
583.615
591.63
595.616
590.306
580.711
580.73
596.955
598.428
600.014
597.118
595.664
593.622
591.413
589.509
588.485
588.109
587.953
588.56
590.004
592.137
594.827
597.905
601.22
604.622
608.045
611.4
614.627
617.67
620.422
622.772
624.719
625.768
626.322
626.168
625.353
624.063
622.514
621.187
619.348
619.269
616.597
619.524
613.729
622.716
607.582
633.147
591.144
591.618
592.015
592.285
592.394
592.356
593.402
589.542
595.782
585.589
583.318
594.429
593.836
583.156
585.144
587.975
589.697
594.024
590.5
588.344
600.977
594.857
596.937
592.245
581.399
580.881
599.18
605.944
585.939
599.913
597.664
552.667
597.519
525.881
546.316
537.303
540.748
558.35
585.854
599.063
600.895
594.627
586.406
582.188
585.981
591.781
601.156
601.392
601.607
601.659
601.714
601.729
595.643
594.385
586.95
582.639
582.199
593.959
594.067
592.233
589.464
594.006
582.613
586.687
590.562
593.069
611.688
600.679
588.131
589.277
588.743
588.077
587.368
586.597
585.767
584.816
583.788
582.677
581.516
580.377
579.314
578.551
578.394
578.407
578.781
579.74
581.224
583.225
585.607
588.265
591.084
593.97
596.932
600.13
603.762
607.956
612.654
617.531
622.057
625.632
627.842
628.85
629.516
630.33
631.352
632.31
633.691
633.093
635.798
629.157
638.91
619.248
643.802
606.686
658.377
580.11
608.22
583.948
611.919
584.47
594.124
584.076
596.004
584.837
589.843
592.129
589.206
589.347
590.777
591.276
591.711
592.05
592.295
592.439
592.475
592.445
592.099
592.381
591.94
581.047
596.048
589.782
598.263
598.388
597.926
596.643
594.762
592.651
590.927
589.844
589.396
589.147
589.613
590.888
592.836
595.347
598.296
601.562
605.027
608.598
612.206
615.752
619.134
622.197
624.731
626.934
627.979
628.38
628
626.83
625.134
623.254
621.637
619.863
619.454
617.377
619.346
615.097
621.932
611.376
629.447
606.651
596.955
598.407
599.988
601.672
594.757
611.451
580.246
579.949
580.034
582.818
580.972
581.825
587.312
590.218
596.372
595.491
585.919
583.607
582.923
585.544
593.354
592.515
591.771
589.899
588.665
588.551
590.3
587.11
585.815
583.711
585.68
589.066
592.513
590.473
590.763
581.639
592.481
592.868
592.946
590.381
590.631
602.717
603.023
603.131
603.306
603.415
603.49
603.553
603.543
603.476
587.601
594.004
587.228
588.63
593.121
586.091
589.074
588.9
588.345
587.707
587.081
586.436
585.755
584.995
584.203
583.342
582.392
581.437
580.516
579.802
579.673
579.703
579.999
580.842
582.185
584.005
586.157
588.551
591.08
593.686
596.407
599.45
603.072
607.443
612.508
617.91
623.027
627.128
629.575
630.435
630.83
631.203
631.958
632.336
634.273
633.364
637.043
630.243
639.376
624.612
641.066
611.543
654.221
581.76
684.383
694.396
696.042
695.976
696.994
681.64
675.073
661.115
656.629
690.919
694.642
743.171
705.73
706.614
702.709
696.696
687.687
687.252
689.909
685.344
678.868
671.863
666.868
658.998
643.867
583.228
590.871
592.315
591.967
583.383
590.067
602.645
597.804
588.813
591.901
590.796
591.326
591.751
592.069
592.297
592.455
592.542
592.58
592.581
592.595
592.705
592.301
592.642
596.192
584.829
583.975
592.911
591.204
588.265
586.265
592.325
584.587
584.628
587.792
591.433
592.376
588.876
581.313
580.358
579.737
579.406
579.328
579.622
580.28
582.703
600.463
589.17
595.752
596.981
598.385
599.916
601.587
603.403
588.699
593.004
611.879
587.785
604.748
604.784
604.824
605.037
605.082
605.2
605.23
605.338
605.416
605.41
605.359
605.299
584.243
592.352
592.035
591.508
589.307
611.837
590.475
589.386
588.669
588.053
587.437
586.877
586.35
585.819
585.241
584.64
583.993
583.223
582.405
581.587
580.863
580.637
580.679
580.886
581.589
582.808
584.478
586.445
588.631
590.938
593.307
595.839
598.773
602.404
606.949
612.368
618.266
623.926
628.5
631.034
631.707
631.839
631.81
632.353
632.352
634.865
634.047
637.759
631.55
640.101
624.436
642.521
609.733
652.226
582.366
659.417
553.569
517.099
530.53
528.503
529.999
524.014
542.659
512.839
544.143
518.654
465.668
379.649
425.836
424.605
438.957
445.831
489.255
536.254
539.922
538.907
534.809
528.445
535.579
538.635
560.917
603.017
631.749
628.278
614.829
626.776
614.222
621.176
616.497
619.329
618.228
619.745
620.432
622.143
624.043
626.225
628.272
629.772
630.38
630.095
628.912
626.763
623.983
620.652
617.006
613.21
609.379
605.626
602.053
598.758
595.848
593.426
591.586
590.419
590.038
590.353
590.881
592.054
593.72
595.693
597.438
598.61
598.919
598.627
597.691
596.097
594.135
582.53
589.93
589.272
586.078
584.333
590.426
582.112
589.121
593.074
594.677
594.871
584.319
586.604
586.961
584.1
591.27
592.45
591.538
592.001
591.883
584.287
586.368
586.278
584.352
589.64
587.825
582.354
591.685
588.629
585.305
585.277
591.866
590.224
590.925
591.824
585.345
585.425
594.933
592.904
592.798
592.725
592.671
592.594
592.465
592.283
592.048
591.736
591.323
590.76
589.616
587.73
590.702
580.812
579.739
579.088
578.804
578.891
579.24
579.899
580.913
586.825
590.043
588.88
591.006
593.268
595.582
589.432
582.015
587.714
586.94
590.064
591.724
590.778
595.732
596.93
598.318
599.841
601.513
603.301
605.171
588.974
588.855
586.431
588.291
590.377
592.277
594.272
596.177
597.806
598.89
599.287
599.077
598.024
596.39
594.535
592.876
591.636
590.998
590.643
590.987
592.121
593.922
596.331
599.258
602.633
606.318
610.225
614.242
618.215
622.016
625.48
628.336
630.562
631.792
632.027
631.29
629.511
627.196
624.835
622.74
621.019
620.135
619.055
619.498
617.631
620.411
615.748
622.777
614.354
618.185
597.871
585.141
586.931
728.129
735.135
737.883
759.499
769.011
769.899
756.815
750.501
778.336
812.492
850.692
889.248
892.331
872.073
813.038
781.45
770.288
770.881
777.531
773.937
757.758
760.504
726.965
733.208
687.179
709.309
596.335
584.77
583.85
606.884
606.91
606.923
607.021
607.034
607.099
607.108
607.203
607.265
607.283
607.253
607.217
607.116
600.158
602.159
604.588
606.831
589.994
589.21
588.476
587.83
587.234
586.726
586.293
585.903
585.481
585.024
584.533
583.896
583.166
582.402
581.681
581.29
581.301
581.449
582.037
583.152
584.715
586.555
588.601
590.737
592.936
595.322
598.169
601.808
606.498
612.216
618.539
624.667
629.61
632.101
632.641
632.593
632.278
632.602
632.452
635.486
635.154
638.574
635.034
640.39
629.918
641.866
625.296
647.393
613.418
650.359
620.388
719.803
591.346
591.351
590.15
591.622
588.216
585.286
593.302
593.074
589.76
588.322
590.281
589.008
590.218
581.473
580.279
579.305
578.685
578.419
578.511
578.878
579.553
580.563
595.526
583.63
586.019
588.07
590.453
592.966
590.825
593.158
592.978
592.84
592.734
592.609
592.441
592.234
591.984
591.67
591.278
593.336
586.461
586.599
590.866
590.654
591.252
586.038
586.049
583.54
585.032
586.706
588.483
590.431
592.287
594.243
596.141
597.793
598.956
599.434
599.265
598.294
596.765
595.013
593.396
592.07
591.346
590.996
591.356
592.49
594.312
596.754
599.743
603.181
606.965
610.973
615.124
619.213
623.067
626.526
629.371
631.645
632.908
633.187
632.366
630.444
628.029
625.443
623.236
621.505
620.588
619.701
619.854
618.32
620.164
616.151
620.566
611.531
616.665
586.129
607.935
594.753
595.646
596.805
598.207
599.731
601.427
603.278
605.357
607.474
591.101
590.909
587.645
590.507
589.204
589.301
591.71
599.164
601.531
604.055
607.057
590.402
593.105
609.023
609.005
608.982
608.973
609
609.003
609.032
609.042
609.098
609.138
609.173
609.169
609.137
609.118
609.355
610.888
9.46471
9.71805
9.10419
10.2769
10.0715
10.6172
10.772
11.0442
10.467
10.7134
10.7682
11.1961
11.5662
11.0908
10.1137
9.16347
8.80301
8.68783
8.44483
8.36439
8.284
8.40426
8.31508
8.50576
8.13504
8.38109
7.93415
8.31306
7.85641
10.0323
589.674
589.01
588.316
587.666
587.078
586.596
586.227
585.935
585.624
585.261
584.858
584.301
583.618
582.871
582.147
581.627
581.573
581.703
582.24
583.294
584.785
586.58
588.56
590.599
592.681
594.951
597.717
601.348
606.132
612.054
618.686
625.175
630.361
632.815
633.313
633.163
632.657
632.738
632.655
636.012
635.883
639.654
636.842
641.196
631.178
642.405
622.299
648.578
608.455
657.674
598.898
653.894
11.0417
586.895
590.415
590.037
587.773
591.425
704.563
555.146
581.446
582.373
10.9851
3447.81
3385.7
2996.02
3379.31
3115.53
3321.57
3133.33
3240.87
3161.06
3141.21
3156.06
3068.42
3078.36
2935.11
3004.2
2898.98
2865.73
2937.48
2873.8
3005.69
2934.87
3052.86
2875.24
2969.3
2813.13
3182.88
2827.77
3109.04
2703.88
730.037
12.0696
3202.16
2672.16
654.768
536.13
654.682
597.653
644.14
619.122
641.58
632.517
640.402
638.292
636.228
636.323
632.786
632.863
633.555
632.917
633.238
633.731
625.388
630.725
611.879
618.689
601.081
605.874
594.771
597.473
590.561
592.579
586.598
588.557
583.313
584.805
581.72
582.262
581.724
581.582
583.031
582.303
584.444
583.778
585.337
584.969
585.897
585.654
586.488
586.145
587.553
586.968
588.911
588.212
590.214
589.59
591.215
590.757
591.897
591.592
592.369
592.151
592.72
592.557
593.072
592.881
593.734
593.533
595.567
594.628
597.972
596.685
601.452
599.545
605.999
603.702
610.66
611.146
611.362
611.003
611.006
610.975
610.978
610.945
610.955
610.922
610.935
610.918
610.916
611.001
610.938
610.353
611.11
609.49
609.35
611.133
611.791
608.24
610.385
603.198
605.934
597.527
600.43
592.783
595.815
587.826
590.424
583.435
585.537
580.294
581.668
578.683
579.33
578.249
578.328
579.076
578.502
581.093
579.976
583.906
582.411
586.935
585.373
590.435
588.672
594.142
592.237
597.671
596.013
599.396
598.855
598.32
599.23
595.185
596.858
592.268
593.617
591.124
591.46
592.687
591.54
597.012
594.532
603.55
600.048
611.527
607.421
619.833
615.702
627.04
623.697
632.125
630.004
633.783
633.466
630.962
632.894
625.749
628.416
621.709
623.609
619.962
620.98
618.373
620.46
616.008
620.685
609.408
621.25
623.242
611.275
611.876
588.593
591.158
2742.87
588.504
2427.42
595.172
611.921
611.959
611.933
611.982
611.992
611.998
611.994
591.335
585.058
589.503
589.326
587.769
584.069
587.43
585.276
590.064
589.632
589.797
589.53
589.145
589.295
588.838
588.417
588.626
587.948
587.618
587.708
584.281
590.061
611.615
589.593
608.589
590.551
582.459
583.581
590.235
590.813
592.15
588.892
582.581
592.76
592.512
588.218
585.044
597.5
587.977
599.184
594.826
589.995
587.557
589.073
610.393
588.675
590.604
590.669
589.869
589.536
590.954
611.695
596.362
591.266
590.33
582.425
587.207
602.87
594.725
581.05
609.696
597.243
595.899
597.862
580.683
586.76
593.52
589.656
591.398
589.935
580.01
589.865
583.38
)
;

boundaryField
{
    wall
    {
        type            zeroGradient;
    }
    outlet
    {
        type            fixedValue;
        value           uniform 1e-05;
    }
    inlet
    {
        type            fixedValue;
        value           uniform 612;
    }
    frontAndBackPlanes
    {
        type            empty;
    }
}


// ************************************************************************* //
