/*--------------------------------*- C++ -*----------------------------------*\
| =========                 |                                                 |
| \\      /  F ield         | OpenFOAM: The Open Source CFD Toolbox           |
|  \\    /   O peration     | Version:  2212                                  |
|   \\  /    A nd           | Website:  www.openfoam.com                      |
|    \\/     M anipulation  |                                                 |
\*---------------------------------------------------------------------------*/
FoamFile
{
    version     2.0;
    format      ascii;
    arch        "LSB;label=32;scalar=64";
    class       volScalarField;
    location    "0.0494";
    object      p;
}
// * * * * * * * * * * * * * * * * * * * * * * * * * * * * * * * * * * * * * //

dimensions      [1 -1 -2 0 0 0 0];

internalField   nonuniform List<scalar> 
2308
(
610.99
611.025
610.983
611.012
611.007
611.007
611.006
611.008
611.007
610.965
610.968
610.972
610.976
610.98
610.984
610.988
610.991
610.994
610.991
610.987
610.983
610.979
610.975
610.972
610.968
610.965
610.962
610.96
611.005
610.994
610.958
610.957
610.955
610.954
610.954
610.953
610.952
610.952
610.951
610.949
610.947
610.945
610.942
610.939
610.934
610.93
610.934
610.938
610.942
610.944
610.946
610.948
610.949
610.95
610.951
610.952
610.953
610.954
610.955
610.957
610.959
610.961
610.963
610.966
610.969
610.973
610.976
610.98
610.984
610.988
610.992
610.929
610.925
610.99
610.986
610.982
610.978
610.974
610.97
610.967
610.964
610.961
610.959
610.957
610.955
610.954
610.953
610.952
610.951
610.95
610.95
610.948
610.947
610.945
610.943
610.939
610.936
610.931
610.997
610.926
610.997
610.995
610.912
610.918
610.924
610.928
610.932
610.935
610.938
610.94
610.942
610.943
610.945
610.946
610.948
610.95
610.951
610.954
610.956
610.958
610.961
610.964
610.968
610.972
610.976
610.98
610.985
610.989
610.993
611.01
611.008
611.005
611.007
610.995
610.99
610.986
610.981
610.977
610.972
610.968
610.964
610.961
610.958
610.955
610.953
610.951
610.95
610.948
610.947
610.946
610.944
610.943
610.941
610.939
610.937
610.934
610.93
610.926
610.921
610.915
610.908
610.92
610.923
610.919
611.008
610.906
611.01
611.017
610.998
611.009
611.007
610.999
610.996
610.901
610.913
610.917
610.912
610.898
610.877
610.885
610.893
610.9
610.906
610.912
610.917
610.921
610.925
610.928
610.931
610.933
610.936
610.938
610.94
610.943
610.945
610.948
610.951
610.954
610.957
610.961
610.965
610.97
610.975
610.979
610.984
610.989
610.993
611.001
610.988
611.007
611.01
611.01
611.007
611.005
611.001
610.998
610.994
610.989
610.984
610.979
610.974
610.97
610.965
610.961
610.957
610.953
610.95
610.947
610.945
610.943
610.94
610.939
610.937
610.935
610.932
610.93
610.927
610.924
610.92
610.915
610.91
610.903
610.897
610.889
610.881
611.038
611.008
610.968
611.007
610.958
611.01
610.999
611.002
610.848
610.858
610.867
610.876
610.883
610.89
610.897
610.902
610.907
610.912
610.916
610.92
610.923
610.927
610.93
610.933
610.937
610.94
610.944
610.948
610.953
610.957
610.962
610.968
610.973
610.978
610.984
610.989
610.994
610.997
611.005
611.014
611.009
611.01
611.008
611.005
611.002
610.997
610.993
610.988
610.982
610.977
610.972
610.966
610.961
610.956
610.951
610.947
610.943
610.94
610.936
610.933
610.93
610.927
610.924
610.921
610.918
610.915
610.91
610.906
610.9
610.894
610.888
610.88
610.872
610.863
610.853
610.843
610.872
610.893
610.906
610.91
610.905
610.891
610.868
610.838
610.963
610.973
611.515
611.009
610.997
611.603
610.998
611
611.004
611.005
610.996
611.007
611.012
611.011
611.009
611.006
611.002
610.997
610.992
610.986
610.981
610.975
610.968
610.962
610.956
610.95
610.945
610.94
610.935
610.93
610.926
610.922
610.918
610.914
610.91
610.905
610.901
610.896
610.89
610.884
610.877
610.869
610.861
610.852
610.841
610.831
610.819
610.807
610.795
610.832
610.862
610.885
610.898
610.902
610.897
610.882
610.859
610.828
610.79
610.802
610.814
610.825
610.836
610.846
610.856
610.865
610.873
610.88
610.887
610.893
610.898
610.903
610.908
610.913
610.917
610.922
610.927
610.932
610.937
610.942
610.947
610.953
610.959
610.965
610.971
610.977
610.983
610.989
610.994
611.003
611.001
611.002
611.004
611.004
611.005
611.008
611.01
611.018
611.01
611.015
611.015
611.013
611.01
611.007
611.002
610.997
610.991
610.985
610.978
610.972
610.965
610.958
610.951
610.944
610.938
610.932
610.926
610.92
610.915
610.909
610.904
610.899
610.893
610.887
610.881
610.874
610.867
610.859
610.85
610.841
610.83
610.819
610.807
610.794
610.78
610.766
610.752
610.737
610.782
610.821
610.853
610.876
610.89
610.895
610.889
610.874
610.849
610.817
610.777
610.732
610.747
610.761
610.775
610.788
610.801
610.813
610.825
610.835
610.845
610.854
610.863
610.871
610.878
610.885
610.891
610.897
610.903
610.909
610.915
610.921
610.928
610.934
610.941
610.947
610.954
610.961
610.968
610.975
610.982
610.989
610.994
610.998
611.002
611.001
611.263
611.002
611.013
611.01
611.006
611.005
611.008
611.004
611.004
611.003
611.001
610.722
610.769
610.81
610.843
610.867
610.882
610.886
610.881
610.865
610.84
610.806
610.765
610.718
610.668
610.684
610.7
610.716
610.732
610.748
610.763
610.777
610.791
610.804
610.816
610.827
610.837
610.847
610.856
610.865
610.873
610.881
610.888
610.896
610.903
610.91
610.918
610.926
610.934
610.941
610.95
610.957
610.966
610.973
610.981
610.988
610.995
610.999
611.007
611.001
611.024
610.968
611.018
611.015
611.012
611.008
611.003
610.997
610.99
610.983
610.976
610.969
610.961
610.953
610.945
610.937
610.93
610.923
610.916
610.909
610.902
610.895
610.889
610.882
610.875
610.868
610.86
610.851
610.842
610.832
610.821
610.81
610.797
610.783
610.769
610.754
610.738
610.722
610.705
610.688
610.672
610.999
611
611.031
611.006
610.996
611.005
610.615
610.633
610.652
610.67
610.689
610.706
610.724
610.74
610.756
610.771
610.785
610.799
610.811
610.823
610.834
610.844
610.854
610.863
610.872
610.881
610.89
610.899
610.908
610.917
610.926
610.935
610.944
610.953
610.962
610.971
610.979
610.987
610.995
611.001
611.006
611
610.655
610.708
610.756
610.799
610.833
610.858
610.874
610.878
610.872
610.856
610.83
610.795
610.753
610.705
610.652
610.598
611.007
611.001
611.005
611.009
611.014
611.007
611.009
611.027
611.017
611.018
611.017
611.013
611.009
611.003
610.997
610.99
610.982
610.974
610.965
610.957
610.948
610.939
610.93
610.922
610.913
610.905
610.897
610.889
610.881
610.873
610.865
610.856
610.847
610.838
610.828
610.816
610.804
610.791
610.777
610.762
610.747
610.73
610.712
610.694
610.675
610.656
610.637
610.618
610.6
611.019
611.003
611.007
610.997
610.997
610.997
611.008
611.027
611.036
611.006
611.007
611.003
611.006
610.96
611.026
611.001
610.543
610.563
610.583
610.603
610.624
610.645
610.665
610.684
610.703
610.721
610.739
610.755
610.77
610.785
610.798
610.811
610.823
610.835
610.846
610.857
610.867
610.877
610.888
610.898
610.908
610.918
610.929
610.939
610.949
610.959
610.969
610.978
610.987
610.994
611
611.008
610.99
610.985
610.582
610.64
610.694
610.744
610.788
610.823
610.849
610.865
610.87
610.864
610.848
610.821
610.785
610.741
610.691
610.637
610.581
610.524
611.007
610.997
611.003
611.008
611.013
611.018
610.949
610.992
611.022
611.021
611.019
611.015
611.01
611.004
610.997
610.989
610.98
610.972
610.962
610.953
610.943
610.933
610.923
610.914
610.904
610.895
610.885
610.876
610.867
610.858
610.848
610.838
610.827
610.816
610.804
610.79
610.776
610.761
610.745
610.728
610.709
610.69
610.67
610.65
610.628
610.607
610.586
610.565
610.544
610.525
611.007
611.005
610.984
611
610.997
610.994
611.006
610.995
610.995
610.995
610.996
610.976
610.964
611.003
611.01
611.009
611.033
611.019
611.003
610.994
610.986
610.976
610.966
610.956
610.945
610.934
610.922
610.911
610.9
610.888
610.877
610.865
610.853
610.841
610.829
610.817
610.803
610.789
610.775
610.759
610.743
610.725
610.707
610.687
610.667
610.646
610.624
610.602
610.579
610.556
610.534
610.512
610.49
610.47
611.008
610.507
610.566
610.625
610.681
610.732
610.777
610.814
610.841
610.857
610.863
610.857
610.839
610.812
610.775
610.73
610.679
610.623
610.565
610.507
610.45
611.008
611.006
611.003
611.041
611.043
611.046
611.047
611.047
611.032
611.017
611.005
611.018
610.997
610.983
610.968
610.974
610.998
610.995
610.992
611.009
611.006
611.017
610.995
611
611.006
611.012
611.017
611.022
611.024
611.024
611.024
611.023
611.02
611.016
611.011
611.004
610.997
610.988
610.979
610.969
610.959
610.949
610.938
610.927
610.917
610.906
610.895
610.885
610.874
610.864
610.853
610.843
610.831
610.82
610.807
610.794
610.78
610.765
610.749
610.732
610.714
610.694
610.674
610.652
610.63
610.607
610.583
610.559
610.536
610.513
610.49
610.469
610.449
610.986
610.989
610.994
610.959
610.99
611.008
610.973
610.997
610.986
610.992
610.993
610.992
610.993
610.992
610.996
611.007
610.989
610.978
611.001
610.987
610.987
610.981
611.015
611.03
611.047
611.002
610.994
610.985
610.975
610.964
610.953
610.941
610.929
610.917
610.904
610.892
610.879
610.866
610.854
610.841
610.827
610.814
610.799
610.785
610.769
610.753
610.735
610.717
610.698
610.677
610.656
610.634
610.61
610.587
610.562
610.537
610.512
610.488
610.464
610.44
610.418
610.398
611.015
611.01
611.004
610.997
610.99
610.984
610.948
611.009
611.011
611.001
610.997
610.996
610.997
610.983
610.989
611.002
610.966
610.922
611.009
611.009
611.06
611.006
611.023
610.978
610.43
610.49
610.551
610.611
610.669
610.722
610.768
610.805
610.833
610.85
610.855
610.849
610.832
610.804
610.766
610.72
610.667
610.61
610.551
610.491
610.433
610.378
611.06
611.059
611.06
611.061
611.063
611.066
610.996
611.011
611.006
610.999
611.002
611.034
610.987
610.988
610.99
610.964
610.973
610.988
610.976
611.011
611.717
611.059
610.989
611.027
611.028
611.028
611.027
611.025
611.022
611.018
611.012
611.005
610.997
610.988
610.978
610.967
610.957
610.945
610.934
610.922
610.91
610.899
610.887
610.876
610.864
610.852
610.841
610.829
610.816
610.803
610.789
610.775
610.759
610.742
610.724
610.705
610.685
610.663
610.64
610.616
610.592
610.566
610.541
610.515
610.489
610.464
610.44
610.416
610.395
610.375
611.319
610.95
611.613
610.999
610.997
610.985
611.013
611.015
611.006
610.984
611.011
611.021
611.018
611.013
611.007
611.001
610.993
610.986
610.979
610.972
610.974
610.967
611.027
610.995
611.021
611.024
611.017
611.012
611.003
610.994
610.984
610.973
610.962
610.95
610.937
610.924
610.911
610.898
610.885
610.871
610.857
610.843
610.829
610.815
610.8
610.784
610.768
610.751
610.733
610.714
610.694
610.673
610.651
610.628
610.604
610.579
610.553
610.526
610.5
610.473
610.447
610.421
610.396
610.372
610.35
610.33
611.009
611.026
611.046
611.068
610.976
611.524
610.991
610.985
610.975
610.954
610.962
610.956
611.001
611.022
611.02
611.014
611.005
611.001
611.007
611.02
610.988
610.988
610.98
610.988
611.003
610.965
611.009
610.961
610.96
610.976
610.985
610.97
611.012
611.014
611.025
611.002
610.961
610.964
610.97
611.02
611.019
611.081
611.079
611.076
611.074
611.073
611.076
611.08
611.086
611.094
611.009
611.013
610.986
610.987
610.978
610.943
611.025
611.031
611.03
611.031
611.03
611.027
611.024
611.019
611.013
611.005
610.997
610.987
610.977
610.966
610.954
610.942
610.93
610.917
610.905
610.892
610.88
610.867
610.855
610.842
610.829
610.816
610.802
610.788
610.773
610.757
610.74
610.721
610.702
610.681
610.659
610.635
610.61
610.585
610.558
610.531
610.503
610.475
610.447
610.42
610.394
610.37
610.346
610.325
610.306
610.357
610.414
610.474
610.537
610.599
610.658
610.712
610.759
610.797
610.826
610.843
610.849
610.843
610.825
610.796
610.758
610.711
610.657
610.599
610.538
610.477
610.417
610.361
610.312
611.004
610.979
610.963
610.97
610.969
611.026
611.086
611.034
611.006
611.01
611.017
611.012
611.005
610.997
610.989
610.981
610.973
610.965
610.959
610.954
610.953
610.961
610.952
611.016
611.003
611.012
610.988
610.983
611.002
610.954
610.96
610.959
610.981
610.966
611.012
610.968
611.023
610.945
610.953
610.961
610.97
610.98
610.987
611.002
611.013
611.06
611.018
610.989
611.003
611.021
611.044
611.071
611.104
611.011
611.014
611.916
610.983
611.143
611.126
611.113
611.104
611.098
611.093
611.092
611.096
611.102
611.113
611.127
611.146
610.929
610.973
611.025
610.991
611.006
611.71
611.008
611.029
611.032
611.033
611.033
611.032
611.03
611.026
611.021
611.014
611.006
610.997
610.987
610.976
610.964
610.952
610.94
610.927
610.914
610.9
610.887
610.874
610.861
610.847
610.834
610.82
610.806
610.791
610.776
610.759
610.742
610.724
610.704
610.683
610.66
610.637
610.611
610.585
610.558
610.529
610.5
610.471
610.441
610.412
610.383
610.356
610.33
610.305
610.283
610.263
610.245
610.289
610.341
610.399
610.461
610.525
610.587
610.648
610.703
610.751
610.79
610.819
610.837
610.843
610.837
610.819
610.79
610.75
610.703
610.648
610.589
610.527
610.464
610.403
610.347
610.296
610.253
610.27
610.289
610.31
610.333
610.358
610.385
610.412
610.44
610.468
610.496
610.524
610.551
610.578
610.604
610.629
610.652
610.675
610.696
610.716
610.736
610.754
610.771
610.788
610.804
610.82
610.835
610.85
610.864
610.879
610.893
610.907
610.921
610.934
610.948
610.96
610.972
610.984
610.994
611.003
611.012
611.016
611.026
611.025
611.03
610.942
611.023
611.025
611.027
611.019
611.011
611.011
610.984
610.945
611.016
611.024
611.006
611.008
611.019
611.009
610.981
610.98
610.974
610.966
610.967
610.967
610.963
610.982
610.974
610.973
610.971
610.933
611.014
610.97
610.978
610.964
610.965
610.981
610.977
610.981
611.014
611.007
611.019
610.942
610.942
610.948
610.956
610.965
610.975
610.984
610.994
611.002
611.011
611.019
610.981
611.024
611.009
611.003
610.996
610.984
610.974
610.963
610.953
610.944
610.937
611.025
611.014
610.952
610.972
610.991
611.01
611.007
610.919
611.011
610.972
611.022
610.971
611.037
610.983
610.998
611.015
611.04
611.073
611.115
611.172
611.014
611.018
611.022
611.033
611.028
611.033
611.033
611.029
611.026
611.019
611.012
611.004
610.994
610.983
610.972
610.959
610.946
610.932
610.918
610.904
610.889
610.874
610.859
610.844
610.828
610.812
610.796
610.779
610.761
610.743
610.724
610.703
610.682
610.66
610.636
610.611
610.585
610.558
610.53
610.502
610.472
610.443
610.414
610.385
610.356
610.329
610.303
610.279
610.256
610.236
610.219
610.972
610.979
610.231
610.276
610.328
610.387
610.45
610.514
610.578
610.639
610.695
610.744
610.784
610.814
610.832
610.838
610.832
610.813
610.784
610.744
610.696
610.64
610.58
610.517
610.454
610.392
610.335
610.283
610.239
610.205
610.922
611.188
611.156
611.135
611.121
611.109
611.101
611.101
611.105
611.114
611.128
611.149
611.178
611.216
611.058
611.1
611.152
611.224
611.021
611.029
611.034
611.035
611.036
611.034
611.032
611.028
611.022
611.015
611.007
610.997
610.987
610.975
610.963
610.951
610.938
610.924
610.911
610.897
610.883
610.869
610.855
610.841
610.827
610.813
610.798
610.782
610.766
610.749
610.73
610.711
610.69
610.668
610.644
610.619
610.593
610.565
610.537
610.507
610.476
610.446
610.415
610.384
610.354
610.326
610.298
610.273
610.249
610.228
610.21
610.195
610.97
610.972
610.976
610.976
611.019
611.01
611.017
611.021
610.979
610.979
611.022
610.977
611.007
611.012
611.002
610.992
610.981
610.969
610.956
610.944
610.932
610.923
611.008
610.995
610.932
610.956
610.967
610.988
611.015
610.929
610.926
610.934
610.944
610.956
610.967
610.979
610.99
611
611.008
611.018
611.011
611.014
610.977
610.976
610.97
610.971
610.977
611.014
611.024
611.031
611.035
611.035
611.036
611.035
611.032
611.027
611.021
611.013
611.005
610.995
610.983
610.971
610.958
610.945
610.931
610.916
610.901
610.886
610.871
610.856
610.84
610.824
610.807
610.79
610.773
610.755
610.735
610.716
610.694
610.672
610.649
610.625
610.599
610.572
610.544
610.516
610.486
610.456
610.426
610.395
610.366
610.336
610.308
610.281
610.257
610.234
610.213
610.196
610.181
610.951
610.977
610.994
611.006
611.032
611.071
611.127
611.207
611.248
611.02
610.973
610.975
610.973
610.973
611.018
611.017
611.033
611.094
611.155
611.232
611.006
610.955
611.175
611.117
611.068
611.032
611.006
610.99
610.983
610.98
610.988
611.003
611.028
611.064
611.116
611.193
611.298
611.558
610.183
610.219
610.264
610.318
610.377
610.441
610.506
610.571
610.632
610.689
610.738
610.779
610.809
610.827
610.834
610.828
610.809
610.779
610.739
610.69
610.634
610.573
610.51
610.445
610.383
610.325
610.273
610.228
610.194
610.169
611.028
611.032
611.036
611.038
611.038
611.037
611.034
611.03
611.024
611.016
611.008
610.998
610.987
610.975
610.963
610.95
610.936
610.923
610.909
610.895
610.88
610.866
610.852
610.837
610.823
610.808
610.792
610.776
610.759
610.742
610.723
610.702
610.681
610.658
610.633
610.608
610.58
610.552
610.522
610.491
610.46
610.428
610.396
610.365
610.334
610.305
610.276
610.25
610.226
610.205
610.186
610.171
610.158
610.977
610.974
610.974
611.015
611.016
610.168
610.183
611.005
611.01
610.157
610.221
610.161
610.186
610.318
610.265
610.44
610.377
610.568
610.504
610.686
610.63
610.776
610.736
610.824
610.806
610.824
610.831
610.775
610.806
610.685
610.734
610.565
610.627
610.434
610.5
610.31
610.37
610.211
610.256
610.158
610.145
610.15
610.175
610.192
610.173
610.238
610.214
610.293
610.265
610.355
610.324
610.419
610.387
610.483
610.451
610.545
610.514
610.601
610.574
610.653
610.628
610.698
610.676
610.738
610.719
610.773
610.756
610.805
610.79
610.835
610.821
610.865
610.85
610.893
610.879
610.922
610.908
610.949
610.936
610.975
610.963
610.998
610.987
611.018
611.009
611.032
611.025
611.039
611.036
611.039
611.04
611.033
611.037
611.022
611.028
611.007
611.015
610.987
610.998
610.962
610.975
610.935
610.948
610.916
610.923
610.937
610.91
610.969
610.935
610.983
610.997
611.067
611.02
611.284
611.143
611.635
611.439
611.492
611.334
611.371
611.284
611.306
611.27
611.276
611.277
611.271
611.308
611.289
611.374
611.335
611.389
611.431
611.391
611.285
611.623
611.823
611.387
611.589
611.141
611.238
611.031
611.061
611.002
610.973
610.941
610.967
610.904
610.918
610.908
610.9
610.936
610.922
610.965
610.951
610.989
610.977
611.007
610.998
611.021
611.015
611.032
611.027
611.037
611.036
611.037
611.038
611.029
611.034
611.015
611.022
610.995
611.005
610.971
610.984
610.944
610.958
610.916
610.93
610.885
610.901
610.854
610.87
610.822
610.838
610.788
610.805
610.751
610.77
610.711
610.732
610.667
610.69
610.619
610.644
610.565
610.593
610.508
610.537
610.447
610.478
610.386
610.417
610.326
610.356
610.27
610.297
610.222
610.245
610.201
611.658
611.826
610.973
611.011
610.148
610.971
610.136
611.008
611.921
611.958
611.955
611.983
611.984
611.995
611.995
611.009
610.958
610.974
610.978
610.977
610.998
611.002
610.999
611.005
611.006
611.006
611.003
611.006
611.004
611.001
611.005
611.003
611
611.004
611.002
610.934
611.019
611.837
611.023
611.292
611.01
610.984
610.944
611.014
611.011
611.026
611.004
610.994
610.956
611.032
611.004
611.024
611.028
611.028
611.046
611.02
611.013
610.952
611.005
611.455
611.004
610.981
611.007
611.005
611.009
611.005
611.857
611.015
610.991
611.023
611.016
610.969
611.105
610.995
610.998
611.414
611.022
611.007
611.014
610.996
610.998
610.996
611.026
611.001
611.009
610.97
610.963
611.016
)
;

boundaryField
{
    wall
    {
        type            zeroGradient;
    }
    outlet
    {
        type            inletOutlet;
        inletValue      uniform 1e-05;
        value           nonuniform List<scalar> 
33
(
610.221
610.161
610.186
610.318
610.265
610.44
610.377
610.568
610.504
610.686
610.63
610.776
610.736
610.824
610.806
610.824
610.831
610.775
610.806
610.685
610.734
610.565
610.627
610.434
610.5
610.31
610.37
610.211
610.256
610.15
610.175
610.148
610.136
)
;
    }
    inlet
    {
        type            fixedValue;
        value           uniform 612;
    }
    frontAndBackPlanes
    {
        type            empty;
    }
}


// ************************************************************************* //
