/*--------------------------------*- C++ -*----------------------------------*\
| =========                 |                                                 |
| \\      /  F ield         | OpenFOAM: The Open Source CFD Toolbox           |
|  \\    /   O peration     | Version:  2212                                  |
|   \\  /    A nd           | Website:  www.openfoam.com                      |
|    \\/     M anipulation  |                                                 |
\*---------------------------------------------------------------------------*/
FoamFile
{
    version     2.0;
    format      ascii;
    arch        "LSB;label=32;scalar=64";
    class       volVectorField;
    location    "0.0003";
    object      U;
}
// * * * * * * * * * * * * * * * * * * * * * * * * * * * * * * * * * * * * * //

dimensions      [0 1 -1 0 0 0 0];

internalField   nonuniform List<vector> 
7220
(
(1.88935e-06 5 -4.10017e-17)
(2.87248e-07 4.99999 2.25921e-17)
(5.45549e-07 4.99997 1.13133e-17)
(2.99032e-08 4.99986 1.40028e-17)
(9.57554e-08 4.99999 -2.21499e-17)
(2.04015e-07 4.99997 3.12795e-25)
(-4.16268e-08 4.99997 0)
(5.24203e-08 4.99999 2.30946e-17)
(1.64952e-06 4.99985 0)
(2.77999e-07 4.99997 0)
(0.00601426 5.00009 -7.39809e-19)
(1.36522 4.14298 -2.09888e-16)
(-0.00115492 5.00416 1.1078e-17)
(-0.022559 4.9815 1.62142e-16)
(1.37305 3.71605 1.65153e-16)
(-1.05708 1.86291 9.65278e-17)
(-13.0733 2.33131 0)
(-4.16446e-12 5 -4.51846e-16)
(-5.70909 3.67429 3.99345e-17)
(1.84868e-09 5 -2.27281e-16)
(-0.0057363 5.00574 4.58588e-17)
(-0.21255 4.88684 3.01401e-16)
(-0.000300392 4.96869 1.67383e-16)
(0.519001 4.77814 2.2712e-16)
(-0.000354499 4.99897 1.55019e-16)
(-0.878205 3.88722 -3.33614e-16)
(-3.5121 -2.92097 9.23503e-17)
(-1.57378e-05 4.99998 1.57325e-16)
(0.317089 5.01579 -4.51866e-17)
(-1.38244 5.5907 7.57062e-17)
(1.02834e-05 4.99998 9.40829e-17)
(-0.35107 5.26465 -2.20364e-17)
(6.18811e-10 5 4.02381e-16)
(-1.62434 5.67101 -4.10163e-17)
(0.0082479 4.9824 -1.70059e-16)
(-3.42198e-10 5 -3.30412e-16)
(7.78686e-06 4.99984 5.60401e-18)
(0.0303325 5.00084 0)
(0.0067528 5.00021 1.22054e-24)
(-4.22696e-12 5 -1.24557e-21)
(-4.28901e-12 5 -4.98061e-21)
(3.90123e-12 5 -3.18539e-19)
(3.75276e-12 5 2.80056e-19)
(1.47091e-11 5 -8.07487e-17)
(1.31056e-11 5 -3.25261e-16)
(8.43111e-13 5 -6.09466e-17)
(9.39536e-14 5 1.24713e-17)
(1.22389e-12 5 -1.15445e-16)
(-4.42319e-12 5 6.27091e-19)
(-4.60524e-12 5 -6.31538e-19)
(3.66723e-12 5 -5.9666e-19)
(3.52153e-12 5 6.36803e-19)
(-4.27237e-12 5 6.37503e-19)
(-4.38951e-12 5 -1.90908e-18)
(3.48961e-12 5 6.55798e-19)
(3.56614e-12 5 -6.75981e-19)
(-4.55281e-12 5 9.45396e-34)
(-4.74098e-12 5 2.54405e-18)
(3.20895e-12 5 1.2767e-18)
(3.41386e-12 5 -6.3598e-19)
(-4.9438e-12 5 -1.2694e-18)
(-4.93958e-12 5 1.27094e-18)
(3.17171e-12 5 -6.3685e-19)
(3.29258e-12 5 -1.27195e-18)
(-4.3214e-12 5 -1.27122e-18)
(-3.96022e-12 5 0)
(2.58551e-12 5 1.271e-18)
(2.77636e-12 5 -4.72208e-34)
(-3.74386e-12 5 0)
(-3.61033e-12 5 -1.19345e-19)
(2.21282e-12 5 3.97277e-20)
(2.57696e-12 5 1.9862e-20)
(-3.46451e-12 5 2.70914e-18)
(-3.18095e-12 5 3.19007e-19)
(2.04346e-12 5 -2.38948e-18)
(2.16955e-12 5 2.38618e-18)
(-2.93869e-12 5 -1.42439e-33)
(-3.0257e-12 5 -1.28276e-17)
(1.66236e-12 5 3.83101e-18)
(1.8348e-12 5 6.37561e-19)
(-2.87453e-12 5 1.02676e-17)
(-2.99773e-12 5 -3.10083e-17)
(1.7934e-12 5 1.02843e-17)
(1.71519e-12 5 -4.75324e-33)
(1.7394e-12 5 3.23373e-31)
(1.62081e-12 5 -1.03406e-17)
(-2.93171e-12 5 1.05106e-17)
(-3.01062e-12 5 2.42212e-17)
(-3.38585e-12 5 4.17454e-17)
(1.74301e-11 5 4.04316e-17)
(-4.03581e-12 5 0)
(3.77585e-12 5 3.9836e-20)
(3.9298e-11 5 -9.95667e-21)
(3.93969e-11 5 9.95397e-21)
(1.3626e-11 5 -2.06561e-17)
(1.08546e-12 5 -8.0803e-33)
(-3.54003e-12 5 2.30143e-17)
(-3.57315e-12 5 4.52326e-17)
(-2.86451e-11 5 -1.05233e-17)
(-2.8694e-11 5 6.45155e-18)
(-2.8626e-11 5 -1.29824e-18)
(-2.94542e-11 5 0)
(-2.88796e-11 5 0)
(-3.20165e-11 5 0)
(-3.03572e-11 5 -6.38171e-19)
(-3.60477e-11 5 0)
(-3.38892e-11 5 7.95592e-20)
(-4.34409e-11 5 -1.27145e-18)
(-3.91536e-11 5 1.27162e-18)
(-4.92131e-11 5 -6.40937e-19)
(-4.73079e-11 5 0)
(-4.56958e-11 5 -1.2915e-18)
(-4.75874e-11 5 1.27165e-18)
(-4.42666e-11 5 -6.47804e-19)
(-4.47166e-11 5 6.36464e-19)
(-4.30929e-11 5 9.95976e-21)
(-4.34424e-11 5 6.51478e-19)
(-4.16301e-11 5 0)
(-4.28801e-11 5 4.98187e-21)
(3.85744e-11 5 -1.31068e-32)
(3.91365e-11 5 0)
(3.69767e-11 5 -1.98703e-20)
(3.79759e-11 5 3.97565e-20)
(3.58245e-11 5 -4.96793e-21)
(3.63962e-11 5 0)
(3.34063e-11 5 1.24112e-21)
(3.47171e-11 5 0)
(2.98891e-11 5 -6.35383e-19)
(3.15743e-11 5 6.404e-19)
(2.58679e-11 5 -1.27053e-18)
(2.79025e-11 5 1.25087e-18)
(2.25988e-11 5 1.58957e-19)
(2.41284e-11 5 -4.96526e-21)
(2.06433e-11 5 1.27299e-18)
(2.15607e-11 5 -6.36173e-19)
(1.93273e-11 5 2.03563e-17)
(1.99536e-11 5 -5.09318e-18)
(1.87621e-11 5 2.02557e-17)
(-2.92495e-11 5 -5.23175e-30)
(-4.02909e-11 5 0)
(3.88363e-11 5 0)
(1.26421e-10 5 -8.80119e-17)
(1.53112e-10 5 9.71602e-18)
(1.45014e-11 5 0)
(-3.66587e-12 5 -8.08225e-33)
(-3.0912e-11 5 -1.09327e-17)
(-3.17742e-11 5 1.10921e-17)
(-2.61605e-10 5 -1.98437e-29)
(1.15544e-10 5 0)
(-3.20876e-11 5 1.0997e-17)
(-2.66154e-10 5 1.08525e-17)
(-2.51591e-10 5 7.88175e-18)
(-2.53962e-10 5 -1.59806e-17)
(-2.53768e-10 5 0)
(-2.52584e-10 5 -2.60461e-18)
(-2.60471e-10 5 -1.28033e-18)
(-2.55607e-10 5 2.57736e-18)
(-2.82317e-10 5 3.18547e-19)
(-2.69329e-10 5 0)
(-3.18526e-10 5 6.36156e-19)
(-2.98917e-10 5 -3.18349e-19)
(-3.83427e-10 5 0)
(-3.4641e-10 5 -3.97439e-20)
(-4.45214e-10 5 3.72545e-21)
(-4.19236e-10 5 0)
(-4.14769e-10 5 -3.18064e-19)
(-4.33356e-10 5 -9.9351e-21)
(-4.00989e-10 5 6.26255e-19)
(-4.07074e-10 5 3.18117e-19)
(-3.85693e-10 5 6.16924e-19)
(-3.92663e-10 5 -6.56364e-19)
(-3.68709e-10 5 2.5447e-18)
(-3.80079e-10 5 -1.91159e-18)
(-3.8642e-11 5 0)
(-3.44599e-10 5 0)
(-3.57859e-10 5 -1.27517e-18)
(3.70861e-12 5 1.99101e-20)
(-3.73069e-12 5 3.38536e-19)
(3.49225e-10 5 0)
(3.48067e-10 5 -7.96316e-20)
(3.86938e-11 5 1.19459e-19)
(3.56e-10 5 3.28239e-19)
(3.55063e-10 5 -3.28366e-19)
(3.47059e-10 5 3.97624e-20)
(3.5224e-10 5 0)
(3.33554e-10 5 -3.97372e-20)
(3.41472e-10 5 -7.94998e-20)
(3.22783e-10 5 0)
(3.28735e-10 5 0)
(3.01254e-10 5 -4.96409e-21)
(3.14058e-10 5 0)
(2.7211e-10 5 -2.48147e-21)
(2.88088e-10 5 -4.96399e-21)
(2.34398e-10 5 0)
(2.53014e-10 5 0)
(2.03535e-10 5 -1.11117e-18)
(2.18e-10 5 1.27503e-18)
(1.84831e-10 5 5.07374e-18)
(1.92601e-10 5 0)
(1.73444e-10 5 -2.01677e-17)
(1.78443e-10 5 8.0434e-31)
(1.66953e-10 5 -2.03904e-31)
(1.32469e-10 5 -4.03257e-17)
(1.24566e-10 5 5.8706e-17)
(1.21591e-09 5 1.89797e-17)
(1.34818e-09 5 1.70429e-17)
(-3.69064e-11 5 -3.98179e-20)
(-3.35424e-10 5 3.98301e-20)
(3.018e-09 5 6.36844e-19)
(3.02105e-09 5 -5.9718e-19)
(1.10414e-12 5 4.24219e-17)
(1.43252e-10 5 3.07774e-17)
(1.57722e-11 5 -1.03573e-17)
(-3.31652e-11 5 3.23505e-17)
(-2.1316e-09 5 -3.20292e-17)
(1.2661e-09 5 1.52456e-17)
(1.17852e-09 5 0)
(-2.68165e-10 5 1.08035e-17)
(1.11993e-09 5 2.12928e-17)
(-2.15359e-09 5 1.07076e-17)
(-2.10188e-09 5 0)
(-2.09847e-09 5 -1.05983e-17)
(-2.14832e-09 5 7.77834e-18)
(-2.12928e-09 5 -7.75951e-29)
(-2.21561e-09 5 2.55787e-18)
(-2.17221e-09 5 -3.86202e-18)
(-2.40715e-09 5 3.18552e-19)
(-2.29613e-09 5 -1.91515e-18)
(-2.71195e-09 5 6.36181e-19)
(-2.55166e-09 5 -6.36631e-19)
(-3.26358e-09 5 0)
(-2.95453e-09 5 -2.78222e-19)
(-3.86693e-09 5 3.16049e-19)
(-3.57615e-09 5 -3.17906e-19)
(-3.63333e-09 5 3.28105e-19)
(-3.79544e-09 5 -3.03006e-19)
(-3.50255e-09 5 3.37954e-19)
(-3.57162e-09 5 -2.98261e-19)
(-3.32212e-09 5 -3.38207e-19)
(-3.40711e-09 5 3.18174e-19)
(-3.14274e-09 5 2.48937e-20)
(-3.24902e-09 5 0)
(-2.96042e-09 5 -1.35478e-18)
(-3.0571e-09 5 1.27457e-18)
(3.57576e-12 5 -7.9606e-20)
(-3.17752e-12 5 -3.18467e-19)
(3.45233e-10 5 -7.96183e-20)
(3.81674e-11 5 -3.1842e-19)
(3.08719e-09 5 0)
(3.08008e-09 5 -6.36626e-19)
(3.006e-09 5 -1.59019e-19)
(3.05304e-09 5 1.59056e-19)
(2.89426e-09 5 4.03554e-20)
(2.96209e-09 5 3.91259e-20)
(2.80866e-09 5 9.93127e-20)
(2.85988e-09 5 0)
(2.62689e-09 5 4.96411e-21)
(2.74061e-09 5 -7.94423e-20)
(2.37587e-09 5 -7.44338e-21)
(2.51404e-09 5 -9.9269e-21)
(2.03795e-09 5 0)
(2.20658e-09 5 -9.92242e-21)
(1.76307e-09 5 -7.92826e-19)
(1.89447e-09 5 6.3467e-19)
(1.58777e-09 5 1.26561e-18)
(1.66208e-09 5 1.26746e-18)
(1.484e-09 5 0)
(1.527e-09 5 -7.57355e-18)
(1.43715e-09 5 1.2412e-17)
(1.12712e-09 5 -1.94391e-17)
(-2.90648e-09 5 0)
(2.98795e-09 5 1.99032e-18)
(-3.68142e-12 5 -7.86919e-33)
(1.57978e-10 5 -1.56862e-17)
(1.38599e-09 5 -1.55775e-17)
(1.24038e-12 5 1.04741e-17)
(-2.16862e-09 5 3.20399e-17)
(1.07576e-08 5 9.70618e-18)
(1.14919e-08 5 -2.08989e-17)
(9.97587e-09 5 -3.64256e-18)
(-2.83109e-10 5 -2.14414e-17)
(-2.44134e-08 5 1.19545e-19)
(-2.41415e-08 5 1.27522e-18)
(3.39137e-10 5 3.97937e-20)
(2.98725e-09 5 -1.35316e-18)
(-3.68056e-11 5 1.0737e-31)
(1.74705e-11 5 0)
(1.47151e-09 5 -1.61285e-17)
(1.70905e-10 5 5.35555e-18)
(5.93076e-09 5 -5.03854e-17)
(1.13399e-08 5 -2.32383e-17)
(1.41814e-09 5 7.00339e-19)
(-3.20881e-12 5 -5.24459e-17)
(-1.68676e-08 5 1.05945e-17)
(-1.67262e-08 5 -1.05682e-17)
(-1.68083e-08 5 1.06103e-17)
(-1.68029e-08 5 1.56547e-17)
(-1.66429e-08 5 1.31468e-27)
(-1.74123e-08 5 0)
(-1.71756e-08 5 -1.03804e-17)
(-1.80978e-08 5 -6.38712e-19)
(-1.76644e-08 5 -1.28219e-18)
(-1.96779e-08 5 -1.59164e-19)
(-1.87795e-08 5 6.37662e-19)
(-2.21679e-08 5 -1.59026e-19)
(-2.09043e-08 5 0)
(-2.66195e-08 5 -1.58961e-19)
(-2.41873e-08 5 2.38473e-19)
(-3.19672e-08 5 -1.57722e-19)
(-2.91105e-08 5 1.58958e-19)
(-3.04358e-08 5 -1.49138e-19)
(-3.17382e-08 5 1.4902e-19)
(-2.92581e-08 5 0)
(-2.99286e-08 5 -1.98848e-20)
(-2.74784e-08 5 3.18223e-19)
(-2.83428e-08 5 -3.18099e-19)
(-2.57177e-08 5 1.21449e-18)
(-2.6676e-08 5 -5.96914e-19)
(-2.5086e-08 5 -1.90639e-18)
(-2.91567e-09 5 1.19477e-19)
(-3.48876e-11 5 -3.1964e-19)
(-3.27197e-10 5 5.9718e-19)
(2.26763e-12 5 1.19354e-19)
(-1.24943e-12 5 -3.17067e-19)
(3.70408e-11 5 3.97879e-19)
(2.50949e-08 5 -6.7656e-19)
(2.50589e-08 5 -4.97256e-21)
(2.5367e-08 5 5.96918e-19)
(2.57181e-08 5 0)
(2.56745e-08 5 0)
(2.50388e-08 5 -1.5901e-19)
(2.54223e-08 5 0)
(2.41374e-08 5 3.97414e-20)
(2.47132e-08 5 1.98744e-20)
(2.35229e-08 5 -2.48326e-20)
(2.39362e-08 5 3.97377e-20)
(2.20304e-08 5 4.96394e-21)
(2.30109e-08 5 -7.20095e-33)
(1.99536e-08 5 9.92376e-21)
(2.11172e-08 5 2.97781e-20)
(1.7023e-08 5 7.93341e-20)
(1.85027e-08 5 9.92158e-21)
(1.46577e-08 5 -1.26742e-18)
(1.58075e-08 5 0)
(1.31033e-08 5 -2.52636e-18)
(1.37739e-08 5 6.33179e-19)
(1.22213e-08 5 5.01995e-18)
(1.25693e-08 5 5.04249e-18)
(1.19509e-08 5 -1.86907e-17)
(1.01206e-08 5 9.96847e-18)
(9.81779e-09 5 -1.47514e-17)
(1.16772e-08 5 -7.68801e-18)
(1.07518e-08 5 -2.52717e-18)
(1.21654e-08 5 1.58707e-17)
(-2.2796e-09 5 1.0584e-17)
(-2.45524e-08 5 -7.96664e-20)
(2.49778e-08 5 0)
(8.92925e-08 5 -9.86857e-18)
(9.31607e-08 5 -4.97959e-18)
(8.3122e-08 5 1.10744e-17)
(9.19624e-08 5 1.64147e-16)
(-3.18748e-10 5 4.41415e-17)
(1.59875e-12 5 0)
(1.935e-11 5 -2.1536e-17)
(9.57799e-10 5 4.90622e-17)
(-3.11829e-11 5 -1.31116e-16)
(9.43915e-08 5 0)
(-1.26068e-07 5 -2.11055e-17)
(1.70051e-10 5 -2.27476e-17)
(-1.76646e-08 5 -2.10515e-17)
(-1.31811e-07 5 -1.1524e-27)
(1.16047e-08 5 2.52348e-28)
(-1.26247e-07 5 0)
(-1.26037e-07 5 8.36904e-27)
(-1.28802e-07 5 -1.0361e-17)
(-1.26684e-07 5 1.0421e-17)
(-1.35229e-07 5 2.56696e-18)
(-1.3247e-07 5 1.031e-17)
(-1.41486e-07 5 -6.37671e-19)
(-1.37595e-07 5 -2.56125e-18)
(-1.53963e-07 5 1.59067e-19)
(-1.47024e-07 5 6.37218e-19)
(-1.73052e-07 5 0)
(-1.63807e-07 5 0)
(-2.05784e-07 5 -7.94792e-20)
(-1.88262e-07 5 1.19232e-19)
(-2.57021e-07 5 -6.20963e-22)
(-2.2538e-07 5 8.94145e-20)
(-2.43927e-07 5 0)
(-2.56819e-07 5 4.96763e-21)
(-2.31416e-07 5 7.95089e-20)
(-2.39125e-07 5 0)
(-2.15292e-07 5 3.97683e-20)
(-2.22756e-07 5 -5.96329e-20)
(-2.01134e-07 5 3.18456e-19)
(-2.08122e-07 5 -3.18241e-19)
(-1.92759e-07 5 -6.77447e-19)
(-1.96589e-07 5 6.51877e-19)
(-1.96651e-07 5 1.27475e-18)
(-1.93655e-07 5 -3.98619e-20)
(-1.98364e-07 5 -1.19501e-18)
(-2.92534e-09 5 0)
(-2.49548e-08 5 1.1947e-18)
(-2.55301e-11 5 6.36564e-19)
(-2.98229e-10 5 -6.36763e-19)
(3.69489e-12 5 -1.61554e-19)
(-7.59284e-13 5 2.784e-19)
(3.12747e-10 5 0)
(2.91459e-11 5 0)
(2.55699e-08 5 -6.76563e-19)
(3.00174e-09 5 -5.96831e-19)
(2.04958e-07 5 1.27356e-18)
(2.04108e-07 5 6.96266e-19)
(2.01592e-07 5 -6.36829e-19)
(1.98284e-07 5 6.41258e-19)
(1.98413e-07 5 -1.27305e-18)
(2.04284e-07 5 0)
(2.03803e-07 5 3.97676e-20)
(1.99002e-07 5 0)
(2.02235e-07 5 0)
(1.92593e-07 5 0)
(1.96945e-07 5 1.98773e-20)
(1.88719e-07 5 3.97419e-20)
(1.91497e-07 5 -3.97515e-20)
(1.77139e-07 5 1.98563e-20)
(1.85031e-07 5 -1.98673e-20)
(1.60764e-07 5 -3.96947e-20)
(1.70114e-07 5 3.97098e-20)
(1.36197e-07 5 -7.93241e-20)
(1.48768e-07 5 9.43618e-31)
(1.16728e-07 5 7.12601e-19)
(1.26468e-07 5 -3.96477e-20)
(1.03569e-07 5 -1.57974e-19)
(1.09355e-07 5 7.91347e-20)
(9.6482e-08 5 -5.03237e-18)
(9.91539e-08 5 0)
(9.51108e-08 5 1.00279e-17)
(8.28498e-08 5 -4.9816e-18)
(8.1055e-08 5 4.95325e-18)
(9.37703e-08 5 2.27002e-17)
(8.70798e-08 5 -3.75929e-18)
(9.6094e-08 5 -2.03004e-17)
(-1.93711e-08 5 1.93927e-29)
(-2.48661e-09 5 -1.97763e-30)
(-1.88097e-12 5 -4.97927e-18)
(-1.45172e-07 5 0)
(6.98447e-07 5 -4.98179e-18)
(7.16193e-07 5 -2.50169e-18)
(6.50308e-07 5 4.97603e-18)
(-1.55647e-06 5 0)
(-1.49409e-06 5 1.27472e-18)
(2.53013e-08 5 3.97871e-20)
(2.02637e-07 5 -6.76526e-19)
(1.93625e-12 5 -6.53409e-17)
(1.96254e-11 5 4.43316e-17)
(1.20089e-10 5 1.96857e-17)
(1.01437e-07 5 0)
(7.52915e-07 5 4.54805e-27)
(7.77149e-07 5 4.27847e-17)
(1.04808e-07 5 4.39469e-17)
(-1.96161e-08 5 2.04235e-17)
(-3.08126e-10 5 -1.24015e-16)
(1.46482e-09 5 -1.14026e-17)
(-1.44843e-11 5 -1.64039e-17)
(-1.47922e-07 5 -1.10465e-26)
(1.30515e-08 5 8.70152e-17)
(-1.03543e-06 5 5.2488e-18)
(-9.03146e-07 5 2.10012e-17)
(-9.40966e-07 5 -1.05107e-17)
(-9.14113e-07 5 5.20151e-18)
(-9.05206e-07 5 3.70035e-26)
(-9.43765e-07 5 7.72767e-18)
(-9.23226e-07 5 -5.17744e-18)
(-1.00125e-06 5 2.56111e-18)
(-9.76649e-07 5 -5.13789e-18)
(-1.05267e-06 5 1.91119e-18)
(-1.02101e-06 5 -1.27754e-18)
(-1.14748e-06 5 0)
(-1.09544e-06 5 -6.36681e-19)
(-1.27881e-06 5 -3.97448e-20)
(-1.22429e-06 5 0)
(-1.52313e-06 5 -1.19217e-19)
(-1.40512e-06 5 -5.35971e-29)
(-1.92122e-06 5 7.82893e-20)
(-1.66962e-06 5 -9.93496e-21)
(-1.89207e-06 5 -4.9713e-21)
(-1.99395e-06 5 0)
(-1.78596e-06 5 0)
(-1.87293e-06 5 -9.94268e-21)
(-1.61624e-06 5 0)
(-1.69573e-06 5 -1.98771e-20)
(-1.4933e-06 5 1.59189e-19)
(-1.54393e-06 5 -1.98876e-19)
(-1.43814e-06 5 6.47082e-19)
(-1.45633e-06 5 -2.05711e-28)
(-1.50654e-06 5 -5.97335e-19)
(-1.90725e-07 5 7.96439e-20)
(-2.6878e-09 5 6.31572e-19)
(-2.38033e-08 5 -1.91072e-18)
(-2.38597e-13 5 -3.37942e-19)
(-1.15978e-10 5 2.48559e-20)
(3.84747e-11 5 2.48469e-21)
(2.41127e-12 5 7.95047e-20)
(1.58863e-10 5 -4.97045e-21)
(-2.14735e-11 5 -1.54063e-19)
(2.80181e-09 5 6.36402e-19)
(1.62029e-06 5 -6.36716e-19)
(1.46757e-06 5 6.15919e-19)
(1.57668e-06 5 4.72721e-30)
(1.48508e-06 5 -6.16256e-19)
(1.50095e-06 5 3.18183e-19)
(1.55494e-06 5 1.98848e-20)
(1.55065e-06 5 2.78317e-19)
(1.50573e-06 5 -1.98788e-20)
(1.5422e-06 5 0)
(1.4622e-06 5 -1.98629e-20)
(1.49446e-06 5 0)
(1.44344e-06 5 7.94905e-20)
(1.46336e-06 5 0)
(1.36117e-06 5 2.38275e-19)
(1.41873e-06 5 -1.39087e-19)
(1.23235e-06 5 0)
(1.30245e-06 5 -1.78708e-19)
(1.04158e-06 5 0)
(1.14281e-06 5 -3.96885e-20)
(8.88165e-07 5 -6.33212e-19)
(9.67176e-07 5 -3.17149e-19)
(7.81454e-07 5 3.15774e-18)
(8.29347e-07 5 0)
(7.27882e-07 5 0)
(7.47837e-07 5 -6.30743e-19)
(7.21796e-07 5 -2.51066e-18)
(6.43878e-07 5 4.99725e-18)
(6.3121e-07 5 -4.99161e-18)
(7.12198e-07 5 7.43799e-18)
(6.66165e-07 5 -1.24753e-18)
(6.5822e-07 5 -2.2225e-17)
(7.10565e-07 5 4.86013e-18)
(6.77949e-07 5 -5.3351e-17)
(-2.41203e-09 5 -1.9304e-17)
(-1.05005e-06 5 -2.64032e-17)
(-1.41227e-06 5 -2.62878e-18)
(1.52649e-06 5 6.76592e-19)
(5.21449e-06 5 2.51209e-18)
(5.16064e-06 5 -1.08676e-27)
(-1.55138e-07 5 2.11183e-17)
(-2.09093e-08 5 2.06776e-17)
(-1.0766e-12 5 -4.47037e-17)
(2.27285e-12 5 4.53378e-17)
(1.46712e-11 5 -4.60173e-32)
(1.78227e-10 5 -3.3674e-17)
(7.8511e-07 5 2.51962e-18)
(1.05965e-07 5 -1.56129e-28)
(6.83528e-06 5 -1.13822e-16)
(1.35317e-08 5 -2.96486e-29)
(-6.42311e-08 5 0)
(1.61823e-09 5 3.87465e-17)
(-1.08416e-06 5 0)
(-7.17956e-06 5 -5.33451e-18)
(-6.99326e-06 5 5.24998e-18)
(-7.05696e-06 5 2.11104e-17)
(-6.16809e-06 5 -5.22551e-18)
(-6.38579e-06 5 -1.05007e-17)
(-6.31259e-06 5 -2.58726e-18)
(-6.21058e-06 5 2.8399e-26)
(-6.56029e-06 5 0)
(-6.40178e-06 5 2.57667e-18)
(-7.01045e-06 5 0)
(-6.82599e-06 5 0)
(-7.43064e-06 5 -6.36569e-19)
(-7.17968e-06 5 1.27456e-18)
(-8.14586e-06 5 3.47795e-20)
(-7.81124e-06 5 1.19274e-19)
(-9.01096e-06 5 3.97617e-20)
(-8.74437e-06 5 4.97022e-21)
(-1.06716e-05 5 7.60401e-29)
(-1.0029e-05 5 -1.98781e-20)
(-1.17443e-05 5 1.24238e-21)
(-1.11988e-05 5 4.47254e-20)
(-1.25211e-05 5 4.97126e-21)
(-1.23415e-05 5 0)
(-1.2439e-05 5 -7.95004e-20)
(-1.25064e-05 5 8.9432e-20)
(-1.1743e-05 5 -7.95366e-20)
(-1.22588e-05 5 7.95043e-20)
(-1.06181e-05 5 -1.19406e-19)
(-1.11328e-05 5 1.59132e-19)
(-1.03015e-05 5 3.28356e-19)
(-1.04338e-05 5 -3.38366e-19)
(-1.17799e-05 5 -1.99092e-20)
(-1.06802e-05 5 -6.41865e-19)
(-9.98481e-06 5 -7.96761e-20)
(-1.08067e-05 5 6.37226e-19)
(-9.38152e-06 5 -1.19474e-18)
(-1.79937e-07 5 0)
(-1.34214e-06 5 1.83121e-18)
(-1.48846e-09 5 -6.36323e-19)
(-2.15975e-08 5 6.3646e-19)
(2.68057e-10 5 1.78861e-19)
(3.7545e-10 5 -1.98785e-20)
(3.5259e-10 5 -7.94846e-20)
(-1.67993e-10 5 -3.97442e-20)
(-5.30432e-10 5 -4.96852e-21)
(-3.95418e-10 5 2.34289e-27)
(2.31382e-08 5 1.27272e-18)
(1.75263e-09 5 4.96998e-21)
(1.42163e-06 5 -3.9792e-20)
(1.91177e-07 5 0)
(9.98943e-06 5 3.97982e-20)
(1.20346e-05 5 6.3665e-19)
(1.10506e-05 5 -5.96952e-20)
(1.05271e-05 5 3.18805e-19)
(1.11588e-05 5 -9.49692e-19)
(1.07204e-05 5 1.19262e-19)
(1.08592e-05 5 0)
(1.13229e-05 5 4.97128e-20)
(1.1285e-05 5 -2.38546e-19)
(1.09503e-05 5 1.98791e-20)
(1.12072e-05 5 0)
(1.06237e-05 5 -7.94518e-20)
(1.08437e-05 5 7.95069e-20)
(1.04907e-05 5 9.93584e-20)
(1.07985e-05 5 -7.94502e-20)
(1.00361e-05 5 1.78736e-19)
(1.04279e-05 5 -1.58959e-19)
(9.05849e-06 5 -1.58817e-19)
(9.59741e-06 5 1.58872e-19)
(7.5675e-06 5 3.17316e-19)
(8.39373e-06 5 3.96935e-20)
(6.42159e-06 5 6.33469e-19)
(7.01709e-06 5 2.14055e-27)
(5.6187e-06 5 1.26312e-18)
(5.98441e-06 5 0)
(5.22507e-06 5 -1.25957e-18)
(5.37232e-06 5 5.09564e-28)
(5.20873e-06 5 5.02829e-18)
(4.75511e-06 5 -1.25245e-18)
(4.78608e-06 5 -1.2602e-27)
(4.63375e-06 5 2.50527e-18)
(5.13337e-06 5 -1.55115e-18)
(4.81163e-06 5 1.55951e-18)
(5.10728e-06 5 2.84893e-17)
(5.15925e-06 5 1.21477e-18)
(5.46516e-06 5 -1.45926e-17)
(5.33905e-06 5 1.89184e-17)
(5.62504e-06 5 1.67999e-17)
(5.58631e-06 5 1.49112e-17)
(4.50374e-06 5 3.57094e-17)
(5.00737e-06 5 -4.83846e-18)
(8.023e-07 5 2.50485e-17)
(6.13095e-06 5 -1.9744e-17)
(-2.60425e-09 5 3.89378e-17)
(-9.07288e-09 5 3.9551e-16)
(-1.14054e-06 5 2.16562e-17)
(-7.47738e-06 5 0)
(-7.51478e-13 5 -2.48736e-17)
(7.88332e-07 4.99985 -1.13203e-17)
(-6.39813e-05 5 7.96711e-20)
(-6.08207e-05 5 -1.27501e-18)
(1.31777e-06 5.00001 -6.36528e-19)
(9.28486e-06 5.00001 5.96853e-19)
(1.65834e-12 5 -8.54109e-33)
(6.88305e-07 5 -2.98814e-17)
(2.11461e-11 5 -2.24874e-17)
(1.07899e-07 5 6.12558e-28)
(1.37202e-08 5 -8.47669e-17)
(1.95523e-10 5 2.76769e-17)
(1.68467e-09 5 -4.34727e-17)
(-1.4396e-09 5 0)
(-6.8525e-08 5 8.84173e-17)
(-1.61115e-07 5 0)
(-5.73642e-07 5 -8.68178e-17)
(-0.0121261 4.9867 -3.01152e-16)
(-2.27684e-06 5 -6.12344e-17)
(-1.65727e-07 5 -2.69057e-18)
(-2.29857e-08 5 -3.20061e-17)
(-1.11587e-07 5 1.47602e-16)
(-1.70665e-07 5 2.73461e-18)
(3.19963e-05 5 0)
(3.47006e-05 5 -4.84199e-18)
(-5.60201e-11 5 7.58687e-17)
(-4.18e-10 5 8.99164e-17)
(-1.15991e-06 5 1.09544e-17)
(-2.68386e-08 5 -1.85901e-16)
(-7.53422e-06 5 -2.46564e-17)
(-0.00270408 4.99724 3.13929e-16)
(-1.17095e-06 5 1.6643e-17)
(-7.6531e-06 5 -8.376e-18)
(-3.5199e-08 5 0)
(-3.04317e-05 5 6.37474e-18)
(-7.44028e-06 5 2.83396e-17)
(-4.67379e-05 5 -2.24669e-17)
(-4.39847e-05 5 -6.05759e-18)
(-4.64435e-05 5 3.07515e-24)
(-4.75461e-05 5 0)
(-4.50354e-05 5 5.30415e-18)
(-4.6337e-05 5 -5.36802e-18)
(-4.45705e-05 5 -1.04547e-17)
(-4.47185e-05 5 -5.26199e-18)
(-3.99297e-05 5 1.98414e-27)
(-4.10696e-05 5 1.82298e-17)
(-4.12795e-05 5 -2.57691e-18)
(-4.03304e-05 5 -2.58336e-18)
(-4.32083e-05 5 0)
(-4.20114e-05 5 0)
(-4.66652e-05 5 0)
(-4.50146e-05 5 1.27635e-18)
(-5.00087e-05 5 0)
(-4.79649e-05 5 -6.36727e-19)
(-5.37654e-05 5 6.9587e-20)
(-5.26909e-05 5 -2.28667e-19)
(-5.89872e-05 5 -7.95212e-20)
(-5.72774e-05 5 -3.97583e-20)
(-6.37155e-05 5 0)
(-6.19333e-05 5 4.97035e-20)
(-6.48201e-05 5 -7.95321e-20)
(-6.44487e-05 5 3.48155e-20)
(-6.59208e-05 5 -4.22803e-20)
(-6.53662e-05 5 7.9537e-20)
(-6.61094e-05 5 -4.97219e-21)
(-6.60077e-05 5 0)
(-6.72809e-05 5 2.98341e-20)
(-6.6722e-05 5 4.97235e-21)
(-6.77362e-05 5 -7.95918e-20)
(-6.75846e-05 5 -1.98851e-20)
(-6.73043e-05 5 2.98589e-19)
(-6.75924e-05 5 7.96192e-20)
(-6.66956e-05 5 1.49351e-20)
(-6.6669e-05 5 -3.1344e-19)
(-6.69725e-05 5 0)
(-8.91422e-06 5.00001 1.19409e-18)
(-1.63439e-07 5.00001 6.4138e-19)
(-1.26088e-06 5.00001 -1.23345e-18)
(4.09939e-09 5.00001 -3.97457e-20)
(-1.55315e-08 5.00001 1.49094e-20)
(1.03364e-09 5.00001 -2.38364e-19)
(1.75645e-09 5.00001 1.98675e-20)
(1.0321e-09 5.00001 1.19187e-19)
(3.10696e-10 5.00001 -1.48979e-20)
(-2.96953e-09 5.00001 1.98679e-20)
(-1.9176e-09 5.00001 2.3341e-19)
(1.61551e-08 5.00001 -6.26176e-19)
(-2.85323e-09 5.00001 -2.98092e-20)
(1.71079e-07 5.00001 0)
(6.34673e-05 5 -3.98035e-20)
(6.68956e-05 5 3.23411e-19)
(6.72119e-05 5 1.99045e-20)
(6.76069e-05 5 1.98984e-20)
(6.73032e-05 5 -3.23212e-19)
(6.80614e-05 5 -1.39127e-19)
(6.76043e-05 5 1.59074e-19)
(6.76734e-05 5 1.98772e-20)
(6.75403e-05 5 -7.95161e-20)
(6.79321e-05 5 9.93973e-20)
(6.76666e-05 5 -3.44937e-28)
(6.78592e-05 5 1.98653e-20)
(6.78282e-05 5 0)
(6.76044e-05 5 -1.78959e-19)
(6.74839e-05 5 0)
(6.61968e-05 5 -1.39084e-19)
(6.72758e-05 5 3.17935e-19)
(6.30859e-05 5 0)
(6.56287e-05 5 -3.97525e-20)
(5.19343e-05 5 3.17434e-19)
(5.78351e-05 5 -3.97003e-20)
(4.376e-05 5 -3.16905e-19)
(4.83463e-05 5 -6.34052e-19)
(3.82153e-05 5 0)
(4.08285e-05 5 0)
(3.5464e-05 5 -1.89377e-18)
(3.64825e-05 5 6.31476e-19)
(3.574e-05 5 -2.51882e-18)
(3.5478e-05 5 1.25952e-18)
(3.31334e-05 5 2.51601e-18)
(3.58299e-05 5 6.2909e-19)
(3.2566e-05 5 0)
(3.19922e-05 5 0)
(3.60767e-05 5 -4.96682e-18)
(3.28559e-05 5 -2.49985e-18)
(3.64606e-05 5 0)
(3.57483e-05 5 -7.35939e-18)
(3.77406e-05 5 -2.45188e-18)
(3.7481e-05 5 0)
(3.7693e-05 5 6.21263e-19)
(3.92112e-05 5 0)
(4.36453e-05 5 -4.92721e-18)
(-1.6293e-08 5 5.67152e-27)
(-6.54975e-08 5 -8.40806e-17)
(-5.14763e-07 5 -1.41324e-16)
(-3.09155e-09 5 0)
(-7.64447e-12 5 -2.69172e-17)
(-4.1921e-09 5 -1.74965e-16)
(-2.16533e-05 4.99998 -1.56281e-16)
(0.108515 4.80311 -2.99064e-16)
(1.14801e-06 5 8.63927e-17)
(-5.81141e-05 5.00001 1.27437e-18)
(5.97921e-05 5.00001 7.95969e-20)
(-3.2255e-07 5 -1.8477e-16)
(-2.42025e-08 5 1.09643e-17)
(-4.52333e-10 5 0)
(-5.88348e-11 5 0)
(-6.08484e-13 5 1.18237e-17)
(5.85045e-07 5 0)
(-5.55789e-06 4.99999 0)
(-1.71779e-07 5 1.10387e-17)
(0.000223804 5.00001 0)
(0.000221734 5.00001 3.93855e-17)
(3.54323e-05 5 0)
(2.5081e-12 5 -4.55797e-17)
(9.14912e-08 5 -4.1125e-17)
(1.38858e-08 5 4.2255e-17)
(-1.14323e-06 5 -1.67839e-17)
(20.2395 -20.1813 -9.26672e-17)
(2.30739e-11 5 0)
(-0.00435526 4.99652 3.66638e-21)
(-7.078e-06 5 1.73854e-17)
(-3.79443e-06 4.99999 7.18201e-17)
(2.02828e-10 5 -3.41419e-19)
(1.71213e-09 5 0)
(-1.71561e-09 5 1.94639e-16)
(-1.00563e-09 5 -1.80833e-16)
(9.95826e-07 5 9.35632e-27)
(-9.30352e-09 5 -9.1343e-17)
(-1.68662e-09 5 1.88757e-27)
(1.68286e-06 4.99997 5.70191e-18)
(-0.000280006 5.00001 -3.80156e-17)
(-0.000279991 5.00002 2.15116e-16)
(-0.000271723 5 2.71549e-24)
(-0.000280731 5.00001 1.07606e-17)
(-0.000267571 5 5.25417e-18)
(-0.000271184 5 -5.29633e-18)
(-0.000270468 5 -2.59396e-18)
(-0.000268221 5 2.60602e-18)
(-0.000244948 5 1.28957e-18)
(-0.000249288 5 -2.59065e-18)
(-0.000255815 5 2.56297e-18)
(-0.000247393 5 -1.28436e-18)
(-0.00026926 5 -6.38041e-19)
(-0.000261615 5 6.39401e-19)
(-0.000292222 5 0)
(-0.000278973 5 -1.9117e-18)
(-0.000303282 5 0)
(-0.000296117 5 -3.1827e-19)
(-0.000316346 5 -7.95206e-20)
(-0.00030744 5 1.19277e-19)
(-0.000326656 5 0)
(-0.000322352 5.00001 1.9893e-20)
(-0.000329112 5 0)
(-0.000326627 5 4.97054e-21)
(-0.000331941 5 -3.10683e-22)
(-0.000331107 5 2.48689e-21)
(-0.000331186 5 4.22557e-20)
(-0.000331034 5 -3.97446e-20)
(-0.000331906 5 7.4576e-21)
(-0.000331613 5 -2.4858e-21)
(-0.000332819 5 9.94431e-21)
(-0.000331845 5 -4.97192e-21)
(-0.000336025 5 -9.9454e-20)
(-0.000333202 5 1.98894e-20)
(-0.000339309 5 0)
(-0.000336531 5 7.95726e-20)
(-0.000338781 5 -3.13332e-19)
(-0.000340381 5 3.18302e-19)
(-0.000340151 4.99999 6.57277e-19)
(-0.000340111 5 -6.39674e-19)
(-0.00032784 5.00001 -5.97393e-19)
(-0.00033536 5 5.97412e-19)
(-0.00032086 5.00009 6.36997e-19)
(-8.49381e-06 5.00009 0)
(-5.59152e-05 5.00009 0)
(-1.23399e-07 5.00009 -9.24367e-19)
(-1.16756e-06 5.00009 6.2651e-19)
(2.56529e-08 5.00009 -1.98676e-20)
(4.88005e-09 5.00009 -1.78851e-19)
(2.02301e-09 5.00009 3.9727e-20)
(1.03772e-08 5.00009 1.98647e-20)
(-1.57775e-09 5.00009 -5.71015e-20)
(3.13807e-09 5.00009 -1.98625e-20)
(-9.63515e-09 5.00009 0)
(-7.72499e-09 5.00009 -1.61368e-19)
(-6.45531e-09 5.00009 1.49036e-19)
(-2.0993e-08 5.00009 0)
(1.21076e-06 5.00009 -2.11251e-20)
(1.2704e-07 5.00009 3.29209e-19)
(5.71191e-05 5.00009 -6.76301e-19)
(8.72586e-06 5.00009 5.96631e-20)
(0.000324587 5.00009 6.76366e-19)
(0.000334848 4.99999 6.76666e-19)
(0.000330119 5.00001 -1.35269e-18)
(0.000336165 5 -4.97101e-21)
(0.000337279 5 0)
(0.000338469 5 -3.84997e-26)
(0.000338196 5 0)
(0.000337625 5 0)
(0.000336991 5 0)
(0.000335068 5 -1.98686e-20)
(0.000335643 5 0)
(0.000336667 5 -1.98914e-20)
(0.000336165 5 0)
(0.000339537 5 -1.98643e-20)
(0.000337511 5 9.9389e-21)
(0.000340019 5 1.58892e-19)
(0.00033919 5 -1.98633e-20)
(0.000343713 5 1.98701e-20)
(0.000340522 5 -1.58882e-19)
(0.000345107 5.00001 2.78224e-19)
(0.000344112 5 -2.78279e-19)
(0.000327214 5.00001 6.35211e-19)
(0.000342596 5.00001 -2.7809e-19)
(0.000282476 5.00001 6.33914e-19)
(0.000309388 5.00001 -9.51594e-19)
(0.000243912 5 6.32678e-19)
(0.000263297 5 -1.89931e-18)
(0.000226265 5 -6.31065e-18)
(0.00023269 5 1.2632e-18)
(0.000229806 5 -1.26104e-18)
(0.000226458 5 -3.78386e-18)
(0.00021346 5 6.30773e-19)
(0.000234575 5 -9.47428e-25)
(0.000209078 5 5.03557e-18)
(0.000205709 5 -2.52093e-18)
(0.000249737 5 4.98163e-18)
(0.000212995 5 -6.26467e-18)
(0.000237917 5 -9.93357e-18)
(0.000232501 5 -1.24104e-18)
(0.000250522 5 -2.4797e-18)
(0.000245219 5 9.89228e-18)
(0.000232039 5 2.00081e-17)
(0.000250405 5 0)
(0.00022085 5 -1.98168e-17)
(-4.78116e-07 5 0)
(-4.17758e-07 5 0)
(-0.000389384 5.00005 2.36877e-16)
(-5.96471e-07 5 2.63547e-16)
(-3.50038e-07 5 -7.42536e-17)
(-3.34024e-09 5 0)
(-7.43239e-12 5 0)
(-5.93481e-09 5 2.83825e-16)
(1.86728e-07 5 -4.44887e-17)
(2.85617e-07 5 4.21007e-17)
(-3.34241e-06 4.99999 -2.23391e-16)
(-1.43555e-09 5 1.60192e-16)
(-1.7939e-07 5 0)
(-2.44242e-08 5 -1.11035e-17)
(0.00134859 5.00001 0)
(0.00135413 5.00003 -2.03568e-17)
(0.000227816 5.00001 -3.54884e-25)
(-6.38339e-13 5 2.87996e-18)
(-4.4979e-10 5 0)
(-5.73615e-11 5 0)
(-7.66538e-08 5 -1.65255e-16)
(7.55766e-08 5 -2.0789e-17)
(1.17986e-06 4.99999 1.52455e-25)
(-0.00160545 5 -6.36994e-19)
(-0.00159669 5.00008 0)
(5.57805e-05 5.00053 6.56205e-19)
(0.000320199 5.00053 3.97782e-20)
(1.17575e-08 5 0)
(-0.0008204 4.99955 -1.79575e-16)
(-1.68641e-07 5 1.28145e-28)
(3.99725e-05 5 -2.33876e-17)
(-5.2219e-09 5 -2.58851e-17)
(4.84576e-06 4.99985 -5.64391e-18)
(2.19867e-05 4.99929 3.32259e-17)
(8.23512e-05 4.99692 3.17443e-24)
(-3.25596e-10 5 -4.84218e-17)
(2.63938e-12 5 -8.34061e-33)
(-4.58539e-06 5 0)
(-5.88612e-07 5 -1.56637e-16)
(-3.20917e-07 5 1.79818e-16)
(0.0105198 4.98232 4.39049e-17)
(-2.99888e-05 4.99997 0)
(-0.000155465 4.99982 -1.70724e-22)
(-1.09382e-06 5 -2.26508e-17)
(6.27712e-06 5 6.91038e-17)
(1.16789e-06 5 2.06115e-17)
(9.94053e-07 5 0)
(1.64243e-07 5 -2.06835e-17)
(2.09895e-07 5 -2.17145e-17)
(3.69781e-05 4.99993 3.6069e-24)
(2.39177e-11 5 2.17549e-17)
(1.70973e-09 5 -4.29546e-17)
(-5.97057e-06 5 1.48242e-25)
(-1.18609e-09 5 -1.03982e-16)
(2.0634e-10 5 4.34082e-17)
(-9.54592e-08 5 1.30336e-25)
(-8.92409e-08 5 3.19422e-16)
(-3.59036e-06 5 1.58151e-16)
(-6.27359e-05 5 -1.37413e-16)
(-3.60451e-10 5 9.60134e-17)
(-6.41009e-07 5 -3.18622e-16)
(-3.08857e-10 5 8.82262e-17)
(-9.32548e-10 5 0)
(1.51848e-07 5 -1.06067e-17)
(5.43203e-06 4.99997 -5.71216e-18)
(9.15617e-07 5 1.11799e-17)
(-0.00965051 4.98997 -1.39534e-16)
(-0.00155506 5.00003 5.26511e-18)
(-0.00141854 4.99995 0)
(-0.0014949 5.00001 -2.62965e-18)
(-0.00158633 5.00002 0)
(-0.00148951 5.00001 -7.81286e-18)
(-0.0015046 5.00002 1.31004e-17)
(-0.00151705 4.99999 3.87444e-18)
(-0.00150243 5.00001 0)
(-0.0014023 5.00001 -1.92537e-18)
(-0.00141362 4.99999 0)
(-0.00145973 5.00002 3.19518e-19)
(-0.00141526 5.00002 -1.28002e-18)
(-0.00150733 5.00002 -3.18744e-19)
(-0.00148265 5.00002 1.91483e-18)
(-0.00156181 5.00002 0)
(-0.00153405 5.00002 6.37173e-19)
(-0.00157691 5.00001 0)
(-0.00156663 5.00001 1.59065e-19)
(-0.00158744 5.00002 -1.19253e-19)
(-0.00158093 5.00001 3.97728e-20)
(-0.00159164 5.00001 -9.9448e-21)
(-0.00158752 5.00001 1.98775e-20)
(-0.00159134 5.00001 0)
(-0.00159166 5 4.97051e-21)
(-0.00159178 5 3.10883e-22)
(-0.00159185 5 -2.48549e-21)
(-0.0015925 5 -6.21054e-22)
(-0.00159212 5 0)
(-0.00159178 5 7.45303e-21)
(-0.00159231 5 3.10535e-21)
(-0.00159006 5 4.97004e-21)
(-0.00159111 5 -4.96954e-21)
(-0.00158882 5 -1.98896e-20)
(-0.00158949 5 4.97251e-21)
(-0.00159411 5 0)
(-0.0015915 5 0)
(-0.00160138 5 -3.18594e-19)
(-0.00159794 5 1.98966e-20)
(-0.0016087 4.99999 -6.57063e-19)
(-0.00160393 5 3.20973e-19)
(-0.00160956 4.99999 1.31445e-18)
(-0.000315144 5.00053 -6.36746e-19)
(-8.08983e-06 5.00053 -3.35591e-19)
(-5.43115e-05 5.00053 -2.48681e-21)
(6.40535e-09 5.00053 3.17941e-19)
(-1.03111e-06 5.00053 -2.7828e-19)
(5.31218e-08 5.00053 9.93185e-20)