/*--------------------------------*- C++ -*----------------------------------*\
| =========                 |                                                 |
| \\      /  F ield         | OpenFOAM: The Open Source CFD Toolbox           |
|  \\    /   O peration     | Version:  2212                                  |
|   \\  /    A nd           | Website:  www.openfoam.com                      |
|    \\/     M anipulation  |                                                 |
\*---------------------------------------------------------------------------*/
FoamFile
{
    version     2.0;
    format      ascii;
    arch        "LSB;label=32;scalar=64";
    class       volScalarField;
    location    "0.000195";
    object      p;
}
// * * * * * * * * * * * * * * * * * * * * * * * * * * * * * * * * * * * * * //

dimensions      [1 -1 -2 0 0 0 0];

internalField   nonuniform List<scalar> 
26145
(
164.871
145.061
157.643
162.534
170.154
175.262
180.709
184.248
188.057
191.045
194.576
197.146
199.297
200.774
201.485
201.743
201.641
201.043
199.921
198.345
196.474
193.903
190.481
186.93
183.3
177.638
170.799
163.909
157.734
152.602
148.632
145.515
142.899
140.648
138.671
136.858
135.253
133.912
132.761
131.69
130.63
129.539
128.391
127.161
125.888
124.632
123.42
122.271
121.213
120.236
119.322
118.491
117.744
117.081
116.506
116.012
115.538
115.011
114.369
113.589
112.659
111.59
110.331
108.837
107.1
105.141
103.101
101.219
98.8243
96.4533
94.2587
87.0477
175.555
150.682
160.485
164.512
171.965
176.29
181.536
184.649
188.353
191.049
194.594
197.245
199.571
200.68
201.147
201.251
201.073
200.468
199.372
197.558
195.491
192.788
189.479
186.069
182.317
176.352
169.255
162.216
156.096
151.282
147.51
144.525
142.075
139.963
138.073
136.32
134.753
133.427
132.314
131.247
130.156
129.059
127.918
126.691
125.428
124.185
122.991
121.862
120.825
119.866
118.978
118.171
117.446
116.806
116.26
115.783
115.315
114.779
114.122
113.302
112.322
111.199
109.887
108.369
106.596
104.699
102.782
101.274
99.8063
99.6663
99.7354
99.2841
176.659
152.052
161.167
165.029
172.127
176.138
181.248
184.25
187.947
190.625
194.291
197.348
199.358
200.186
200.444
200.489
200.284
199.671
198.625
196.991
194.826
192.298
189.427
186.118
181.575
174.959
167.298
160.22
154.442
149.862
146.38
143.553
141.239
139.207
137.364
135.638
134.09
132.768
131.647
130.6
129.548
128.469
127.336
126.113
124.855
123.621
122.435
121.318
120.29
119.343
118.47
117.673
116.957
116.337
115.813
115.363
114.912
114.381
113.729
112.905
111.926
110.799
109.494
107.99
106.348
104.758
103.551
103.306
103.363
103.721
104.792
106.735
180.001
154.487
162.857
166.394
172.849
176.419
181.246
184.044
187.643
190.278
194.039
197.107
198.958
199.705
199.948
199.991
199.909
199.412
198.528
197.002
194.875
192.447
189.767
186.463
181.264
173.483
164.982
158.18
152.791
148.589
145.272
142.594
140.41
138.464
136.681
134.995
133.484
132.181
131.058
130.011
128.966
127.888
126.758
125.538
124.283
123.049
121.865
120.747
119.715
118.761
117.875
117.074
116.372
115.776
115.278
114.847
114.412
113.896
113.263
112.455
111.493
110.377
109.113
107.682
106.203
104.85
104.116
104.088
104.155
104.513
105.449
107.107
180.804
154.964
163.121
166.592
172.761
176.282
181.017
183.657
187.301
189.944
193.494
196.355
198.316
199.18
199.508
199.587
199.595
199.361
198.611
197.168
195.152
192.979
190.755
187.263
180.681
171.202
162.347
155.977
151.041
147.212
144.19
141.663
139.576
137.764
136.03
134.381
132.906
131.619
130.499
129.45
128.406
127.33
126.201
124.983
123.729
122.495
121.311
120.195
119.163
118.21
117.324
116.517
115.806
115.198
114.686
114.234
113.795
113.289
112.678
111.918
111.014
109.957
108.752
107.399
106.006
104.786
104.057
104.029
104.091
104.38
105.093
106.336
181.796
155.487
163.534
166.962
172.739
176.142
180.706
183.426
187.056
189.566
192.655
194.726
197.103
198.441
199.073
199.312
199.38
199.386
198.864
197.606
195.839
194.22
192.636
188.09
179.46
168.263
159.761
153.882
149.414
145.931
143.168
140.858
138.765
137.121
135.43
133.803
132.363
131.09
129.975
128.924
127.878
126.803
125.675
124.456
123.202
121.966
120.78
119.663
118.628
117.674
116.785
115.975
115.26
114.648
114.132
113.675
113.223
112.723
112.12
111.369
110.469
109.44
108.285
106.996
105.676
104.556
103.798
103.598
103.607
103.686
103.937
104.402
181.979
155.498
163.527
166.963
172.648
175.994
180.498
183.193
186.743
189.155
192.023
193.816
195.878
197.133
198.51
199.182
199.483
199.553
199.415
198.507
197.273
196.429
194.773
188.254
176.833
164.976
157.295
151.943
147.937
144.783
142.253
140.102
138.063
136.533
134.885
133.268
131.859
130.596
129.486
128.436
127.388
126.311
125.181
123.962
122.706
121.467
120.277
119.156
118.117
117.158
116.264
115.448
114.726
114.104
113.576
113.106
112.643
112.144
111.552
110.83
109.963
108.958
107.814
106.513
105.163
104.014
103.103
102.514
102.141
101.844
101.553
101.583
182.125
155.515
163.506
166.934
172.438
175.684
180.082
182.789
186.311
188.601
191.361
193.122
195.1
196.342
197.715
198.907
199.715
200.064
200.153
199.863
199.412
199.015
196.582
187.847
173.287
161.775
155.01
150.219
146.635
143.773
141.438
139.41
137.457
135.991
134.385
132.78
131.393
130.137
129.03
127.981
126.93
125.852
124.718
123.498
122.24
120.996
119.801
118.675
117.63
116.665
115.765
114.94
114.208
113.573
113.028
112.541
112.064
111.558
110.971
110.27
109.429
108.442
107.297
105.932
104.429
102.913
101.665
100.675
99.9845
99.4739
99.0903
98.7281
182.108
155.505
163.447
166.846
172.16
175.376
179.748
182.446
185.907
188.138
190.812
192.53
194.512
195.803
197.239
198.423
199.884
201.051
201.633
201.887
202.029
202.176
197.426
185.742
169.401
158.962
153.011
148.76
145.534
142.911
140.73
138.821
136.914
135.498
133.929
132.343
130.968
129.715
128.611
127.562
126.509
125.427
124.289
123.067
121.806
120.557
119.357
118.224
117.172
116.201
115.292
114.457
113.712
113.062
112.498
111.99
111.493
110.975
110.386
109.696
108.873
107.89
106.714
105.244
103.514
101.696
100.132
98.9283
98.0792
97.4352
96.9372
96.5072
182.031
155.45
163.326
166.687
171.969
175.212
179.524
182.172
185.585
187.764
190.374
192.089
194.118
195.526
197.124
198.397
199.974
201.694
203.6
204.521
204.994
205.411
197.438
180.908
165.664
156.64
151.344
147.545
144.609
142.177
140.111
138.313
136.428
135.051
133.505
131.947
130.578
129.326
128.221
127.173
126.117
125.032
123.888
122.665
121.399
120.147
118.941
117.8
116.741
115.763
114.845
113.998
113.24
112.573
111.987
111.455
110.936
110.401
109.807
109.12
108.306
107.319
106.1
104.509
102.543
100.38
98.4741
96.9934
95.9667
95.2034
94.6033
94.0745
181.894
155.322
163.195
166.567
171.885
175.137
179.392
181.994
185.334
187.491
190.087
191.818
193.896
195.406
197.129
198.429
200.194
202.581
205.589
207.624
208.474
207.781
196.621
176.617
162.394
154.773
149.985
146.542
143.834
141.551
139.567
137.856
136.003
134.645
133.107
131.582
130.216
128.963
127.857
126.807
125.746
124.659
123.509
122.283
121.014
119.758
118.546
117.399
116.333
115.346
114.419
113.56
112.788
112.101
111.493
110.936
110.393
109.838
109.232
108.543
107.733
106.738
105.479
103.775
101.584
99.068
96.7661
94.9254
93.6492
92.7365
92.045
91.4212
181.869
155.195
163.124
166.504
171.871
175.102
179.313
181.883
185.167
187.298
189.891
191.66
193.823
195.408
197.159
198.535
200.661
203.863
207.568
211.049
212.674
208.688
193.353
172.466
159.682
153.172
148.834
145.678
143.154
140.991
139.067
137.4
135.629
134.261
132.717
131.223
129.859
128.607
127.498
126.445
125.38
124.289
123.134
121.906
120.633
119.374
118.158
117.003
115.932
114.937
114
113.129
112.341
111.635
111.003
110.42
109.854
109.278
108.659
107.963
107.153
106.153
104.861
103.065
100.688
97.8513
95.1437
92.8787
91.251
90.0977
89.2713
88.5638
181.91
155.162
163.122
166.5
171.875
175.1
179.287
181.835
185.092
187.221
189.846
191.661
193.833
195.431
197.246
198.834
201.482
205.465
210.403
214.551
217.224
208.721
187.224
168.563
157.372
151.738
147.826
144.908
142.535
140.469
138.594
136.933
135.278
133.884
132.326
130.859
129.494
128.243
127.131
126.073
125.003
123.908
122.749
121.519
120.243
118.981
117.761
116.601
115.524
114.522
113.575
112.691
111.887
111.161
110.507
109.9
109.311
108.715
108.082
107.379
106.567
105.564
104.252
102.395
99.8801
96.7926
93.725
91.0395
89.0086
87.5326
86.4951
85.6647
181.976
155.112
163.12
166.511
171.887
175.109
179.297
181.846
185.103
187.234
189.864
191.689
193.883
195.518
197.457
199.362
202.514
207.182
214.334
218.605
220.986
207.642
182.005
164.869
155.435
150.45
146.909
144.194
141.945
139.958
138.132
136.454
134.914
133.489
131.922
130.473
129.103
127.853
126.738
125.675
124.6
123.501
122.338
121.107
119.829
118.565
117.343
116.179
115.098
114.088
113.132
112.236
111.416
110.671
109.995
109.366
108.758
108.144
107.5
106.789
105.976
104.974
103.653
101.764
99.1658
95.9056
92.5596
89.514
87.096
85.2616
83.9525
82.9192
182.059
155.1
163.141
166.552
171.938
175.158
179.353
181.906
185.159
187.294
189.939
191.79
194.034
195.759
197.935
200.251
203.917
209.654
218.522
224.323
222.452
202.441
176.732
161.576
153.79
149.293
146.064
143.521
141.375
139.447
137.675
135.961
134.517
133.06
131.494
130.053
128.675
127.423
126.305
125.235
124.154
123.051
121.884
120.652
119.372
118.109
116.886
115.719
114.635
113.618
112.653
111.744
110.909
110.144
109.448
108.799
108.175
107.547
106.893
106.179
105.367
104.371
103.053
101.157
98.523
95.1624
91.6243
88.2974
85.5463
83.3621
81.7568
80.4518
182.166
155.13
163.238
166.677
172.098
175.321
179.524
182.074
185.314
187.458
190.133
192.045
194.405
196.326
198.963
201.449
205.548
213.247
222.904
230.583
222.394
194.713
171.636
158.728
152.294
148.233
145.265
142.867
140.802
138.916
137.211
135.437
134.065
132.576
131.022
129.582
128.19
126.934
125.81
124.734
123.646
122.538
121.367
120.133
118.853
117.59
116.368
115.2
114.114
113.091
112.117
111.196
110.344
109.56
108.843
108.176
107.538
106.899
106.24
105.525
104.718
103.733
102.432
100.554
97.9281
94.5224
90.8577
87.3347
84.3277
81.844
79.9549
78.3568
182.333
155.228
163.473
166.964
172.46
175.69
179.9
182.437
185.644
187.814
190.554
192.599
195.215
197.561
200.396
202.925
207.672
217.712
227.966
234.844
219.991
187.925
167.223
156.323
150.942
147.29
144.53
142.248
140.245
138.379
136.746
134.895
133.568
132.044
130.508
129.061
127.652
126.388
125.254
124.168
123.073
121.957
120.781
119.544
118.263
117.001
115.78
114.612
113.524
112.496
111.513
110.579
109.709
108.903
108.165
107.479
106.828
106.181
105.519
104.807
104.011
103.044
101.773
99.9398
97.3685
94.0051
90.2937
86.6134
83.4019
80.6893
78.5567
76.688
182.607
155.448
163.888
167.461
172.924
176.118
180.304
182.835
186.083
188.347
191.276
193.566
196.444
198.893
201.848
204.59
210.442
222.416
233.885
236.296
211.786
181.388
163.506
154.414
149.748
146.432
143.84
141.645
139.692
137.826
136.193
134.396
133.034
131.465
129.948
128.489
127.062
125.786
124.64
123.543
122.437
121.313
120.131
118.888
117.606
116.345
115.124
113.958
112.867
111.834
110.841
109.892
109.003
108.174
107.412
106.707
106.042
105.388
104.724
104.019
103.236
102.295
101.067
99.3049
96.8326
93.5826
89.9216
86.1979
82.8342
79.8962
77.5555
75.4748
183.05
155.75
164.127
167.693
173.11
176.371
180.672
183.307
186.658
189.043
192.177
194.697
197.838
200.412
203.373
206.424
213.83
226.651
240.432
236.129
203.553
175.496
160.395
152.945
148.712
145.659
143.201
141.068
139.15
137.276
135.599
133.904
132.48
130.864
129.354
127.876
126.431
125.141
123.979
122.868
121.751
120.615
119.425
118.176
116.893
115.631
114.411
113.245
112.152
111.113
110.11
109.146
108.235
107.38
106.592
105.864
105.182
104.519
103.854
103.156
102.392
101.483
100.309
98.6373
96.2959
93.2073
89.6696
86.0068
82.6127
79.5785
77.0555
74.7722
183.357
155.941
164.365
167.959
173.427
176.788
181.244
183.992
187.485
189.984
193.264
195.944
199.332
202.069
205.022
208.451
217.735
231.41
245.414
233.166
196.035
170.599
157.85
151.65
147.797
144.946
142.594
140.497
138.598
136.723
134.975
133.381
131.891
130.238
128.723
127.22
125.757
124.452
123.274
122.147
121.016
119.869
118.67
117.415
116.128
114.866
113.646
112.48
111.385
110.339
109.325
108.343
107.409
106.526
105.708
104.954
104.251
103.574
102.905
102.213
101.468
100.596
99.4859
97.9193
95.731
92.8347
89.4696
85.9119
82.5475
79.5513
76.9969
74.6281
183.584
156.181
164.674
168.309
173.849
177.321
181.918
184.801
188.451
191.047
194.434
197.219
200.814
203.745
206.769
210.663
221.969
236.805
247.94
224.472
189.033
166.71
155.798
150.501
146.986
144.29
142.016
139.935
138.038
136.181
134.339
132.817
131.266
129.593
128.062
126.527
125.046
123.724
122.529
121.386
120.242
119.081
117.874
116.612
115.322
114.058
112.837
111.671
110.573
109.52
108.494
107.493
106.533
105.619
104.768
103.982
103.252
102.556
101.876
101.186
100.456
99.6233
98.5808
97.1293
95.1097
92.4206
89.2637
85.8402
82.5356
79.5526
76.9975
74.6284
183.896
156.502
165.064
168.747
174.367
177.919
182.655
185.67
189.471
192.151
195.625
198.486
202.236
205.361
208.572
213.049
226.324
242.561
248.511
216.811
182.816
163.608
154.125
149.505
146.255
143.672
141.448
139.373
137.458
135.639
133.686
132.206
130.595
128.919
127.365
125.797
124.298
122.957
121.746
120.587
119.43
118.257
117.043
115.774
114.481
113.215
111.994
110.827
109.725
108.665
107.626
106.605
105.618
104.671
103.784
102.962
102.199
101.475
100.777
100.079
99.3596
98.5609
97.586
96.2527
94.4096
91.9455
89.0179
85.7572
82.5289
79.5557
77.0024
74.6342
184.33
156.902
165.58
169.323
174.995
178.614
183.465
186.591
190.531
193.288
196.85
199.775
203.639
206.928
210.453
215.741
230.224
248.872
247.82
209.295
177.355
160.885
152.883
148.611
145.568
143.068
140.871
138.794
136.844
135.036
133.026
131.541
129.864
128.192
126.612
125.012
123.493
122.135
120.907
119.734
118.565
117.382
116.161
114.887
113.593
112.327
111.106
109.939
108.835
107.769
106.718
105.678
104.664
103.682
102.756
101.894
101.093
100.335
99.6095
98.896
98.1781
97.4065
96.4942
95.2771
93.6124
91.3822
88.6993
85.6398
82.5161
79.5649
77.0198
74.6514
184.886
157.386
166.208
170.015
175.761
179.44
184.38
187.594
191.661
194.494
198.148
201.144
205.094
208.488
212.436
218.988
234.469
254.221
243.221
201.618
172.663
158.495
151.733
147.756
144.873
142.434
140.243
138.157
136.163
134.277
132.37
130.802
129.053
127.381
125.77
124.143
122.605
121.228
119.986
118.799
117.621
116.429
115.205
113.929
112.638
111.374
110.156
108.991
107.888
106.818
105.758
104.701
103.661
102.646
101.679
100.775
99.9321
99.1352
98.3751
97.6371
96.911
96.1568
95.2984
94.1899
92.7
90.7077
88.2837
85.4675
82.4911
79.5868
77.0639
74.6929
185.578
157.958
166.959
170.852
176.678
180.409
185.412
188.692
192.868
195.778
199.53
202.601
206.63
210.077
214.494
222.86
239.638
257.264
234.166
194.11
168.585
156.382
150.571
146.891
144.13
141.735
139.532
137.426
135.408
133.404
131.616
129.953
128.149
126.463
124.815
123.164
121.609
120.215
118.958
117.76
116.575
115.377
114.153
112.879
111.593
110.336
109.124
107.966
106.866
105.797
104.733
103.663
102.602
101.555
100.55
99.6039
98.7167
97.8763
97.0759
96.3057
95.5617
94.8139
93.997
92.9847
91.6588
89.903
87.7556
85.2034
82.4399
79.631
77.1457
74.7808
186.368
158.591
167.782
171.755
177.705
181.489
186.548
189.874
194.146
197.132
200.984
204.128
208.24
211.754
216.649
227.158
245.318
258.033
226.157
187.205
165.109
154.465
149.431
145.996
143.323
140.95
138.725
136.583
134.572
132.423
130.726
128.971
127.139
125.429
123.74
122.066
120.493
119.084
117.815
116.608
115.417
114.217
112.996
111.727
110.452
109.205
108.005
106.857
105.766
104.702
103.639
102.563
101.486
100.414
99.3756
98.3891
97.4582
96.5725
95.728
94.9189
94.1478
93.394
92.6033
91.6686
90.4871
88.9544
87.0775
84.8154
82.3348
79.6259
77.2717
74.9534
187.194
159.244
168.641
172.711
178.787
182.636
187.747
191.107
195.452
198.511
202.465
205.666
209.862
213.54
218.97
231.444
251.02
257.408
217.595
180.947
162.028
152.882
148.296
145.048
142.44
140.068
137.824
135.629
133.65
131.348
129.702
127.86
126.021
124.282
122.552
120.857
119.269
117.844
116.565
115.35
114.156
112.955
111.74
110.48
109.219
107.986
106.801
105.667
104.589
103.536
102.479
101.404
100.319
99.2294
98.1634
97.142
96.1707
95.241
94.3511
93.4994
92.694
91.9228
91.1419
90.2631
89.1999
87.8656
86.2414
84.2908
82.1259
79.5965
77.2696
75.117
188.019
159.909
169.502
173.658
179.898
183.828
188.996
192.368
196.754
199.874
203.921
207.158
211.409
215.365
221.517
234.966
256.351
253.023
208.96
175.539
159.209
151.469
147.144
144.036
141.473
139.087
136.825
134.566
132.513
130.286
128.565
126.636
124.798
123.027
121.261
119.546
117.94
116.501
115.212
113.99
112.792
111.593
110.384
109.136
107.891
106.676
105.509
104.393
103.331
102.292
101.247
100.178
99.0931
97.9942
96.909
95.8596
94.8529
93.8826
92.9485
92.0525
91.2076
90.4096
89.6236
88.7789
87.8068
86.6388
85.2415
83.5939
81.7176
79.5071
77.2502
75.1167
188.841
160.568
170.357
174.61
180.999
185.017
190.235
193.594
197.974
201.123
205.235
208.479
212.756
217.081
224.311
238.664
260.054
243.394
200.53
170.79
156.628
149.971
145.929
142.93
140.395
137.989
135.706
133.4
131.232
129.135
127.315
125.314
123.468
121.66
119.863
118.128
116.504
115.051
113.752
112.523
111.322
110.124
108.922
107.686
106.459
105.263
104.117
103.021
101.977
100.955
99.9262
98.8703
97.7922
96.6924
95.5967
94.5273
93.4924
92.4867
91.512
90.5726
89.6859
88.8539
88.05
87.2185
86.309
85.2698
84.072
82.6978
81.1053
79.2982
77.1828
75.0987
189.686
161.238
171.184
175.509
182.017
186.117
191.38
194.707
199.039
202.178
206.313
209.537
213.831
218.597
227.247
242.665
261.522
235.127
192.641
166.541
154.236
148.419
144.637
141.725
139.204
136.781
134.468
132.154
129.844
127.874
125.956
123.915
122.052
120.204
118.379
116.624
114.981
113.512
112.2
110.962
109.755
108.557
107.36
106.137
104.928
103.752
102.627
101.552
100.528
99.5239
98.5133
97.4738
96.4083
95.3151
94.2175
93.1369
92.0819
91.0482
90.0386
89.0597
88.1316
87.2619
86.4305
85.5942
84.7192
83.7699
82.729
81.5728
80.2686
78.8624
77.0112
75.0335
190.534
161.882
171.947
176.335
182.879
187.048
192.34
195.633
199.892
202.993
207.13
210.335
214.674
219.967
230.369
246.894
261.586
226.06
185.25
162.77
151.925
146.816
143.253
140.418
137.908
135.475
133.122
130.845
128.381
126.506
124.501
122.448
120.561
118.675
116.826
115.051
113.389
111.905
110.58
109.331
108.116
106.915
105.72
104.507
103.313
102.155
101.052
99.996
98.9912
98.0058
97.0136
95.9922
94.9428
93.8618
92.7694
91.6857
90.6189
89.5653
88.5282
87.5155
86.5497
85.642
84.7773
83.9223
83.0571
82.1618
81.2296
80.2352
79.1673
77.9891
76.6322
74.8658
191.304
162.449
172.581
177.001
183.527
187.753
193.053
196.324
200.508
203.565
207.703
210.913
215.392
221.273
233.537
250.793
259.487
216.55
178.53
159.205
149.966
145.187
141.809
139.035
136.54
134.106
131.709
129.405
126.975
125.086
123.001
120.958
119.046
117.123
115.249
113.452
111.768
110.264
108.92
107.657
106.431
105.224
104.027
102.819
101.636
100.494
99.4079
98.3697
97.3815
96.4124
95.4367
94.4329
93.4009
92.3353
91.2537
90.1737
89.1029
88.0376
86.9811
85.9423
84.9445
84.0018
83.1028
82.2206
81.3464
80.4745
79.6075
78.725
77.8198
76.8552
75.8529
74.4921
191.965
162.901
173.1
177.56
184.017
188.315
193.613
196.854
200.957
203.96
208.094
211.379
216.146
222.731
236.123
254.616
251.401
207.116
172.699
155.958
148.094
143.591
140.369
137.645
135.168
132.73
130.299
127.906
125.631
123.66
121.501
119.464
117.52
115.565
113.668
111.849
110.142
108.617
107.254
105.973
104.731
103.512
102.306
101.098
99.9218
98.7917
97.7203
96.6972
95.7229
94.7672
93.8046
92.8157
91.7995
90.7499
89.6815
88.6098
87.5409
86.4708
85.4025
84.3452
83.3228
82.3509
81.4203
80.5086
79.6142
78.7428
77.906
77.0906
76.2931
75.4837
74.6517
73.7193
192.458
163.248
173.461
177.934
184.329
188.664
193.973
197.235
201.272
204.199
208.31
211.739
216.977
224.354
238.542
257.609
242.623
198.466
167.804
153.215
146.374
142.172
139.078
136.404
133.944
131.497
129.065
126.556
124.442
122.368
120.157
118.107
116.115
114.118
112.185
110.329
108.585
107.028
105.636
104.33
103.067
101.831
100.612
99.3966
98.2192
97.094
96.0305
95.0169
94.0513
93.104
92.1495
91.1703
90.1659
89.1296
88.0738
87.0119
85.9481
84.8781
83.8041
82.7354
81.6958
80.7015
79.745
78.8062
77.8878
77.0032
76.1716
75.3879
74.6522
73.9432
73.2529
72.5172
192.904
163.551
173.827
178.336
184.668
189.005
194.283
197.576
201.598
204.477
208.55
212.124
217.948
226.306
241.405
259.339
234.723
190.906
163.868
151.166
145.142
141.188
138.168
135.522
133.065
130.591
128.172
125.536
123.516
121.339
119.09
117.004
114.951
112.897
110.906
108.993
107.196
105.587
104.148
102.8
101.495
100.225
98.9771
97.7431
96.5556
95.4288
94.3687
93.3607
92.3996
91.4553
90.5028
89.5269
88.5279
87.4999
86.4534
85.3999
84.3419
83.274
82.198
81.1229
80.0721
79.0621
78.0859
77.125
76.184
75.2806
74.4396
73.6626
72.9543
72.3015
71.6991
71.103
193.246
163.811
174.187
178.748
185.074
189.404
194.64
197.996
202.099
205.009
209.026
212.705
219.187
228.971
244.95
259.886
226.967
184.642
161.041
149.95
144.718
141.086
138.18
135.561
133.097
130.569
128.007
125.471
123.357
120.979
118.658
116.432
114.188
111.997
109.926
107.928
106.048
104.364
102.851
101.43
100.063
98.7396
97.4498
96.1805
94.9648
93.82
92.7494
91.7375
90.7748
89.8299
88.876
87.8995
86.9016
85.8771
84.8359
83.788
82.7342
81.6686
80.5921
79.5135
78.4557
77.4353
76.4453
75.4683
74.5092
73.5875
72.7311
71.9465
71.2428
70.6132
70.0563
69.541
193.672
164.133
174.677
179.32
185.677
190.013
195.254
198.676
202.855
205.771
209.754
213.495
220.945
232.733
249.542
259.356
219.435
179.717
159.378
149.799
144.734
141.112
138.208
135.597
133.128
130.595
128.026
125.496
123.375
120.994
118.672
116.446
114.204
111.982
109.722
107.515
105.401
103.481
101.848
100.321
98.8551
97.4444
96.0678
94.7304
93.4663
92.2968
91.2108
90.187
89.2133
88.2573
87.2928
86.3071
85.3026
84.2755
83.2346
82.1886
81.1365
80.0718
78.9947
77.9141
76.8523
75.8256
74.8271
73.8398
72.8685
71.9327
71.0613
70.2636
69.5523
68.925
68.3845
67.9093
194.197
164.551
175.286
180.021
186.458
190.843
196.082
199.596
203.904
206.922
211.015
215.003
223.755
237.09
255.609
255.606
212.67
175.929
158.23
149.863
144.855
141.263
138.362
135.745
133.268
130.729
128.131
125.624
123.472
121.075
118.744
116.503
114.299
112.001
109.737
107.527
105.409
103.496
101.618
99.8097
98.0272
96.4504
94.9448
93.4992
92.1514
90.9043
89.7592
88.6999
87.7095
86.7415
85.7639
84.7648
83.7479
82.7118
81.6655
80.6168
79.5633
78.4974
77.4188
76.3362
75.2715
74.2411
73.2377
72.2452
71.2677
70.3236
69.4415
68.6313
67.908
67.2723
66.7306
66.2676
195.187
165.41
176.359
181.198
187.784
192.265
197.631
201.244
205.684
208.903
213.211
217.748
228.032
242.025
262.641
251.833
206.55
174.42
158.274
150.265
145.339
141.783
138.876
136.238
133.73
131.154
128.487
126.012
123.785
121.342
118.993
116.697
114.462
112.103
109.82
107.593
105.451
103.515
101.631
99.8188
98.0689
96.2217
94.3513
92.5886
91.0831
89.725
88.5057
87.3935
86.3475
85.3292
84.3127
83.2903
82.2542
81.2039
80.1466
79.0892
78.0283
76.9562
75.8726
74.7863
73.7186
72.6858
71.6801
70.6859
69.7067
68.7597
67.872
67.0532
66.3191
65.672
65.1209
64.6542
197.19
167.211
178.623
183.662
190.568
195.251
200.862
204.685
209.428
212.913
217.48
222.874
235.067
250.323
272.43
250.192
205.556
174.508
159.005
151.601
146.781
143.233
140.273
137.564
134.961
132.268
129.468
126.987
124.604
122.052
119.599
117.29
114.836
112.417
110.078
107.805
105.665
103.611
101.703
99.8773
98.1125
96.2352
94.3622
92.5085
90.5996
88.8584
87.4813
86.2511
85.126
84.0579
83.002
81.927
80.8452
79.7589
78.6805
77.6084
76.5381
75.4583
74.3677
73.2754
72.2029
71.1667
70.1589
69.1646
68.1866
67.2405
66.3517
65.5286
64.7867
64.1289
63.5658
63.0876
201.274
170.961
183.319
188.767
196.37
201.486
207.58
211.849
217.136
221.089
226.193
232.28
246.764
264.043
281.522
251.74
206.233
176.231
161.941
155.101
150.43
146.776
143.641
140.737
137.889
134.903
131.845
129.205
126.508
123.689
121.034
118.511
115.772
113.204
110.725
108.329
106.105
103.896
101.923
100.033
98.2034
96.2982
94.3961
92.5235
90.6087
88.8415
87.0702
85.4326
84.144
82.9545
81.7988
80.6621
79.5369
78.4161
77.2973
76.1907
75.0947
73.9946
72.8908
71.7903
70.7126
69.673
68.6633
67.6687
66.692
65.748
64.8602
64.0356
63.2887
62.6219
62.0465
61.5531
209.705
178.851
193.035
199.287
208.399
214.462
221.684
226.859
233.106
238.041
244.013
251.298
267.095
284.732
296.41
258.515
211.696
183.815
170.357
163.813
159.002
154.942
151.313
147.91
144.461
140.808
137.192
134.037
130.72
127.378
124.291
121.068
117.968
115.025
112.214
109.509
106.993
104.611
102.483
100.446
98.477
96.4983
94.5333
92.5922
90.6517
88.8558
87.0799
85.4632
83.8247
82.2185
80.8698
79.5884
78.3561
77.1615
75.9967
74.8586
73.7262
72.5929
71.4617
70.3371
69.2425
68.1925
67.1774
66.1815
65.2061
64.2646
63.379
62.555
61.8058
61.1326
60.5465
60.0376
227.841
196.073
214.24
222.292
234.86
243.167
252.91
260.028
268.138
274.773
282.06
290.976
309.589
326.917
327.721
279.334
230.401
204.08
191.275
184.254
178.579
173.424
168.541
163.915
158.996
153.864
148.909
144.516
139.852
135.399
131.117
126.791
122.825
119.06
115.534
112.254
109.046
106.281
103.797
101.53
99.2003
97.0283
94.973
92.816
90.7968
88.9252
87.1203
85.483
83.8334
82.2513
80.5417
78.8465
77.4253
76.0785
74.8018
73.5884
72.4091
71.2461
70.0825
68.934
67.8228
66.7562
65.7274
64.7234
63.7455
62.8051
61.9218
61.0997
60.3505
59.6741
59.0805
58.5588
271.278
239.059
266.307
278.479
297.912
310.736
324.331
334.226
343.922
352.113
360.882
371.668
390.371
416.444
394.588
335.777
283.826
257.209
244.365
234.803
226.214
218.175
210.024
202.236
193.366
184.726
176.256
168.568
160.67
153.071
146.049
139.571
133.449
127.843
122.776
118.217
113.715
110.022
106.766
103.831
100.894
98.3013
95.8616
93.3995
91.1621
89.1467
87.2607
85.5475
83.8757
82.2748
80.5494
78.8422
77.0155
75.3017
73.8557
72.5009
71.213
69.9679
68.7524
67.5711
66.4298
65.3461
64.3117
63.3026
62.3199
61.3787
60.4982
59.6802
58.9341
58.2584
57.6616
57.1318
368.773
325.135
354.271
366.534
383.028
392.71
403.2
409.23
414.656
418.605
426.459
440.762
465.145
503.112
470.775
393.945
338.614
309.994
296.628
287.48
279.745
272.343
264.911
256.509
247.705
238.763
228.517
216.949
204.434
191.996
179.883
168.136
157.089
147.323
138.739
130.796
123.854
118.078
113.211
108.689
104.643
101.206
97.7643
94.7553
92.1336
89.716
87.6271
85.7487
83.9987
82.331
80.5851
78.8521
77.0225
75.2014
73.3233
71.6905
70.246
68.8723
67.5627
66.308
65.12
64.004
62.9382
61.9116
60.9275
59.9852
59.106
58.2932
57.5543
56.885
56.2919
55.7612
411.82
341.111
358.068
364.444
368.971
373.764
376.677
380.854
383.464
385.185
387.792
401.077
422.277
437.639
392.983
329.624
289.972
269.637
259.746
253.134
248.509
244.88
241.739
237.663
234.32
231.344
228.827
225.69
221.47
216.738
211.309
204.68
196.443
185.984
172.487
158.315
145.636
135.245
127.026
119.125
112.561
107.441
102.017
97.6935
94.2824
91.0007
88.4353
86.243
84.3249
82.4964
80.6809
78.8947
77.0447
75.2093
73.3293
71.4475
69.5653
67.9898
66.5331
65.1791
63.9235
62.7604
61.665
60.6174
59.6082
58.6549
57.7725
56.9569
56.2195
55.5552
54.9675
54.4408
338.226
281.528
294.238
298.793
302.899
307.117
311.242
316.098
320.93
324.385
329.55
347.072
364.72
361.178
308.181
259.539
233.936
221.156
214.758
210.573
207.822
205.501
203.734
202.149
201.188
200.98
200.555
199.374
197.559
195.492
193.127
189.924
185.59
180.246
178.03
176.668
173.718
167.375
156.305
141.689
129.148
120.327
111.13
103.745
98.5729
93.6965
90.3006
87.3431
85.0183
82.8968
80.9254
79.0174
77.1255
75.2401
73.344
71.4544
69.5532
67.5516
65.7345
64.1978
62.8206
61.5837
60.4442
59.3715
58.3526
57.3927
56.5037
55.6906
54.953
54.2892
53.7033
53.1788
280.253
236.82
255.349
263.228
272.225
278.91
285.945
291.324
298.705
304.668
315.956
334.661
355.935
339.47
279.23
240.01
219.984
209.86
204.002
199.533
195.615
191.959
188.45
185.153
181.998
179.696
177.376
175.082
172.719
170.663
169.127
168.239
167.844
167.836
168.446
167.944
166.054
161.557
155.457
154.521
152.596
147.132
131.286
116.34
107.527
99.2585
94.2403
89.6571
86.5138
83.7825
81.4732
79.3155
77.2869
75.3278
73.4343
71.4812
69.5606
67.5564
65.5367
63.544
61.9511
60.5601
59.3212
58.1843
57.1287
56.1508
55.2588
54.4469
53.7221
53.0725
52.4953
51.9771
266.199
227.744
249.183
258.729
269.673
278.224
286.881
292.195
299.298
305.234
319.079
338.583
357.48
323.373
266.159
233.595
216.395
207.687
201.765
197.024
192.871
188.834
184.899
180.873
177.071
173.6
170.309
166.767
163.189
159.751
156.713
153.888
151.172
149.333
148.635
148.336
148.189
148.214
148.9
149.37
148.863
146.087
141.846
137.317
127.205
111.037
102.198
94.446
89.857
85.6765
82.5945
79.9819
77.6706
75.5458
73.5765
71.5562
69.5939
67.5784
65.5437
63.518
61.4696
59.811
58.4148
57.1689
56.0395
55.0112
54.0847
53.2529
52.5165
51.8662
51.3032
50.8033
266.541
228.009
249.265
258.915
269.95
278.619
288.554
294.732
301.454
308.665
330.166
347.818
356.605
297.019
249.363
224.523
211.594
203.457
197.359
192.121
187.351
182.425
177.861
173.89
170.368
166.42
163.364
159.637
156.037
152.585
149.323
146.047
142.624
139.457
136.903
135.428
135.111
135.179
135.737
137.428
139.247
139.429
138.546
135.893
131.764
127.962
119.336
104.654
96.7314
89.6435
85.1626
81.4227
78.5859
76.0557
73.8576
71.7366
69.6936
67.6476
65.5744
63.5259
61.4702
59.4868
57.7212
56.3084
55.0702
53.9801
53.0158
52.1603
51.4066
50.7444
50.1695
49.664
267.281
228.564
249.787
259.632
271.129
280.082
290.553
298.045
306.421
316.271
338.457
349.615
342.712
270.758
231.627
212.377
202.361
194.858
188.382
182.282
176.561
171.738
167.596
163.744
160.31
156.555
154.099
150.963
147.783
144.761
141.749
138.638
135.322
132.084
129.321
127.227
125.978
125.637
125.654
125.821
126.272
127.208
129.446
129.873
129.256
127.259
123.321
119.404
110.93
97.8986
90.4466
84.4174
80.3022
77.1393
74.4602
72.1476
69.9375
67.7746
65.6581
63.5613
61.5073
59.494
57.5597
55.6838
54.2533
53.0339
52.0036
51.1175
50.3527
49.6891
49.1179
48.6149
268.219
229.084
250.924
261.081
273.553
282.869
293.622
300.9
309.474
320.396