/*--------------------------------*- C++ -*----------------------------------*\
| =========                 |                                                 |
| \\      /  F ield         | OpenFOAM: The Open Source CFD Toolbox           |
|  \\    /   O peration     | Version:  2212                                  |
|   \\  /    A nd           | Website:  www.openfoam.com                      |
|    \\/     M anipulation  |                                                 |
\*---------------------------------------------------------------------------*/
FoamFile
{
    version     2.0;
    format      ascii;
    arch        "LSB;label=32;scalar=64";
    class       volScalarField;
    location    "0.0229";
    object      p;
}
// * * * * * * * * * * * * * * * * * * * * * * * * * * * * * * * * * * * * * //

dimensions      [1 -1 -2 0 0 0 0];

internalField   nonuniform List<scalar> 
2308
(
616.372
616.586
618.913
616.903
617.304
616.716
616.527
616.633
617.634
622.946
622.938
621.77
620.657
619.567
618.773
618.328
618.12
618.512
618.819
619.25
619.872
620.742
621.751
622.657
623.138
622.857
622.039
620.884
616.689
618.02
619.753
619.342
619.969
621.595
624.447
628.029
631.203
633.138
633.318
631.857
629.413
626.442
623.248
620.575
619.265
620.026
620.823
623.401
626.742
629.924
632.478
633.803
633.241
630.839
627.317
623.656
621.039
619.655
619.317
619.985
621.245
622.299
622.736
622.463
621.614
620.546
619.453
618.52
617.942
617.726
617.698
620.192
621.672
619.7
620.333
621.052
621.854
622.606
623.1
623.079
622.46
621.354
620.171
619.32
619.275
620.215
622.119
625.155
628.589
631.414
632.988
632.957
631.51
629.233
626.438
623.29
620.364
618.369
618.289
618.253
617.93
617.728
622.465
620.493
621.135
623.837
627.42
630.785
633.348
634.392
633.36
630.497
626.685
623.021
620.598
619.375
619.214
619.982
621.099
621.918
622.143
621.604
620.593
619.456
618.463
617.803
617.513
617.525
617.623
616.79
616.413
616.886
616.678
619.753
620.577
621.447
622.197
622.823
623.224
623.242
622.785
621.828
620.585
619.458
618.858
619.154
620.347
622.485
625.595
628.835
631.399
632.758
632.684
631.364
629.263
626.601
623.432
620.227
617.576
616.322
617.315
620.238
622.98
625.181
616.989
626.365
617.034
616.878
617.716
618.134
617.079
617.921
617.702
620.099
624.14
627.973
630.896
632.392
632.296
626.381
622.53
620.664
621.584
624.594
628.428
631.883
634.347
635.036
633.565
630.347
626.367
622.745
620.42
619.263
619.098
619.742
620.562
621.099
621.017
620.319
619.325
618.389
617.738
617.467
617.535
617.749
617.9
617.889
616.676
617.052
616.234
616.078
616.363
617.082
618.161
619.407
620.626
621.696
622.582
623.215
623.569
623.575
623.167
622.315
621.119
619.833
618.816
618.453
618.996
620.355
622.627
625.701
628.748
631.136
632.43
632.458
631.342
629.406
626.834
623.646
620.218
617.063
614.845
614.5
616.333
616.324
617.737
617.417
617.964
617.434
617.469
617.659
617.677
630.76
625.378
621.98
620.635
622.169
625.577
629.58
633.038
635.341
635.683
633.873
630.454
626.456
622.924
620.576
619.37
619.023
619.306
619.675
619.825
619.455
618.732
617.956
617.428
617.275
617.518
617.967
618.329
618.463
617.91
618.329
616.419
615.973
615.822
616.206
617.131
618.484
620.023
621.5
622.715
623.562
623.986
623.994
623.621
622.836
621.72
620.42
619.178
618.31
618.141
618.827
620.258
622.55
625.499
628.367
630.682
632.035
632.252
631.364
629.576
627.087
623.924
620.359
616.889
614.037
612.529
613.075
615.564
619.937
625.1
630.336
634.835
637.97
639.416
639.088
637.089
617.696
618.257
612.316
618.107
617.262
612.279
618.31
617.739
618.531
618.475
617.505
616.949
615.633
615.563
616.076
617.221
618.85
620.657
622.326
623.593
624.305
624.432
624.071
623.331
622.253
621.012
619.741
618.634
617.946
617.931
618.679
620.096
622.31
625.082
627.813
630.128
631.614
632.052
631.384
629.745
627.345
624.263
620.688
617.12
613.944
611.765
611.219
612.581
615.571
619.922
625.73
632.031
637.642
641.809
644.3
645.176
644.448
642.066
638.272
633.577
628.05
623.609
620.887
620.472
622.79
626.654
630.714
634.125
636.242
636.292
634.237
630.728
626.839
623.474
621.075
619.668
619.005
618.767
618.621
618.284
617.701
617.065
616.654
616.647
617.128
617.921
618.691
619.163
619.206
618.378
617.92
617.453
617.063
618.574
618.461
618.257
617.803
616.474
616.193
615.793
615.279
615.289
615.951
617.326
619.221
621.26
623.045
624.267
624.757
624.529
623.81
622.714
621.463
620.214
619.078
618.178
617.695
617.812
618.564
619.91
621.982
624.555
627.199
629.562
631.211
631.856
631.389
629.914
627.647
624.728
621.311
617.856
614.705
612.244
610.954
611.422
613.544
616.957
620.353
626.082
632.771
638.924
643.485
646.28
647.612
647.688
646.442
643.691
639.967
635.83
633.52
629.162
624.591
621.3
619.481
620.299
623.389
627.656
631.793
635.113
636.994
636.759
634.522
631.012
627.291
624.13
621.758
620.13
619.064
618.3
617.581
616.809
616.078
615.587
615.557
616.152
617.257
618.538
619.563
620.102
619.984
618.801
618.496
618.239
614.446
618.109
617.273
617.849
618.135
617.166
616.322
617.081
617.431
618.422
618.15
621.579
626.228
632.555
638.718
643.4
646.186
647.614
648.042
647.613
646.111
643.152
639.377
635.864
632.481
631.058
628.054
624.144
620.815
618.638
618.225
620.301
624.109
628.64
632.795
635.985
637.48
636.856
634.416
630.994
627.529
624.581
622.322
620.608
619.26
618.052
616.855
615.737
614.886
614.519
614.889
615.995
617.609
619.238
620.444
620.983
620.654
619.267
617.092
618.451
615.966
618.657
614.886
614.976
615.807
617.415
619.556
621.769
623.597
624.7
624.903
624.303
623.216
621.843
620.506
619.35
618.43
617.791
617.533
617.767
618.493
619.735
621.623
624
626.594
629.032
630.84
631.669
631.395
630.114
628.064
625.429
622.356
619.235
616.386
614.043
612.5
612.155
613.361
615.92
619.51
617.944
618.287
617.538
616.978
617.951
617.345
628.653
625.815
622.42
619.314
617.192
616.34
617.602
620.795
625.16
629.702
633.818
636.562
637.399
636.19
633.418
630.024
626.871
624.327
622.403
620.867
619.489
618.12
616.676
615.344
614.411
614.16
614.814
616.261
618.163
619.95
621.213
621.659
621.096
619.599
616.789
618.219
623.501
626.432
631.406
637.253
642.109
645.22
646.87
647.839
648.166
648.042
647.071
644.37
639.854
635.825
633.247
630.751
617.045
617.566
617.753
617.677
617.283
616.896
616.488
616.004
616.56
614.425
614.624
615.627
617.459
619.805
622.125
623.941
624.888
624.78
623.796
622.357
620.784
619.441
618.453
617.802
617.457
617.437
617.772
618.465
619.592
621.27
623.463
626.014
628.529
630.483
631.492
631.425
630.405
628.694
626.489
623.936
621.328
618.961
617.026
615.655
614.98
615.288
616.74
619.142
622.203
617.817
618.223
616.723
617.566
618.17
617.953
616.859
617.261
616.039
616.878
616.68
619.7
616.925
618.014
615.838
617.238
627.747
624.41
620.884
617.785
615.767
614.761
615.451
618.155
622.162
626.677
631.21
634.656
636.521
636.382
634.346
631.172
627.916
625.208
623.235
621.894
620.861
619.814
618.59
617.171
615.806
614.867
614.7
615.474
617.016
618.931
620.648
621.788
622.033
621.267
619.774
616.683
615.52
615.322
624.975
626.699
629.609
633.761
638.622
642.688
645.555
647.454
648.575
648.663
648.8
648.735
646.767
641.076
635.738
633.339
632.521
630.981
616.565
616.771
617.142
617.329
617.2
616.737
618.035
617.171
614.299
613.887
614.218
615.387
617.413
619.91
622.287
624.087
624.882
624.444
623.068
621.307
619.606
618.328
617.557
617.205
617.167
617.375
617.802
618.481
619.481
620.937
622.95
625.432
628.004
630.102
631.306
631.507
630.859
629.646
628.043
626.16
624.171
622.378
620.977
619.981
619.335
619.045
619.327
620.273
621.777
623.699
616.904
618.204
616.121
617.051
617.14
617.162
617.175
617.887
617.543
617.809
616.965
616.833
617.889
617.114
618.192
616.364
617.845
618.144
619.691
621.112
622.038
622.124
621.335
619.955
618.315
616.927
616.186
616.277
617.085
618.242
619.339
620.103
620.542
620.85
621.427
622.655
624.721
627.636
631.021
633.992
635.529
635.023
632.728
629.13
624.678
620.405
616.806
614.597
614.338
615.671
617.792
620.671
623.741
627.147
618.098
623.961
624.743
626.063
628.771
633.005
637.755
642.036
646.123
649.32
649.779
648.634
649.359
650.749
648.601
639.71
633.4
631.063
632.303
631.903
628.067
616.482
618.021
616.876
616.748
617.033
617.252
617.481
617.691
618.13
618.448
618.656
616.473
618.075
616.848
617.777
617.228
616.773
616.803
616.814
616.332
616.735
616.715
615.903
616.373
616.763
616.94
616.815
615.987
616.313
614.439
613.623
613.282
613.726
615.046
617.231
619.816
622.322
624.121
624.677
623.897
622.158
620.139
618.39
617.235
616.702
616.657
616.912
617.329
617.871
618.535
619.396
620.635
622.449
624.812
627.402
629.649
631.104
631.687
631.565
631.002
630.158
629.098
627.812
626.581
625.629
624.939
624.391
623.746
622.938
622.208
621.953
622.388
622.714
616.561
616.601
616.676
618.592
616.903
616.892
618.572
616.982
618.096
617.428
617.542
617.147
616.512
616.57
616.579
618.393
616.483
617.561
618.909
616.624
617.215
617.246
618.733
618.404
617.917
619.229
620.572
621.683
622.233
622.029
621.254
620.164
619.147
618.541
618.514
618.985
619.644
620.125
620.192
619.871
619.384
619.136
619.515
620.756
623.07
626.315
630.004
633.084
634.577
634.062
631.932
628.672
624.674
620.808
617.695
615.965
615.946
617.118
618.841
619.862
621.208
618.812
616.655
616.485
616.067
615.536
615.008
614.634
616.643
616.077
617.473
616.691
616.561
618.785
618.363
616.61
616.585
617.423
618.152
617.466
617.315
616.288
616.232
617.43
616.993
614.491
636.662
639.942
641.585
640.523
638.778
637.054
637.739
641.795
648.144
654.159
651.097
643.757
642.226
641.146
637.19
623.459
620.186
625.867
640.604
639.926
637.106
632.807
616.518
616.723
616.88
617.027
617.157
617.285
619.071
616.545
616.595
616.745
617.047
616.509
618.9
618.391
617.232
618.407
616.991
616.836
618.44
615.925
612.061
615.921
617.1
615.482
614.687
613.727
612.92
612.623
613.138
614.582
616.884
619.647
622.244
623.957
624.267
623.205
621.141
618.969
617.24
616.229
615.93
616.174
616.686
617.323
617.975
618.624
619.348
620.369
621.943
624.127
626.692
629.105
630.904
632.022
632.568
632.783
632.803
632.637
632.134
631.42
630.717
630.065
629.394
628.407
626.756
624.449
622.075
620.781
620.043
632.544
613.267
618.634
612.118
616.574
618.595
616.516
616.437
616.698
616.789
617.759
615.792
615.463
616.574
616.42
615.988
615.377
614.738
614.198
613.851
613.786
614.638
614.04
616.475
617.346
616.334
615.968
617.031
617.628
618.546
619.74
621.027
622.116
622.727
622.79
622.476
621.977
621.538
621.305
621.204
621.075
620.705
619.98
618.919
617.693
616.652
616.169
616.54
617.979
620.743
624.667
629.045
632.741
634.815
634.966
633.53
630.844
627.455
624.087
621.422
619.922
619.318
618.871
617.506
616.741
611.608
636.073
618.964
618.653
618.131
617.432
618.847
612.214
617.616
617.654
617.715
618.47
617.967
618.22
617.616
616.455
615.771
616.14
616.512
616.578
617.008
616.603
618.814
618.572
615.318
616.967
617.311
618.572
616.138
618.697
618.555
616.778
616.661
618.578
615.408
615.434
615.98
617.293
616.629
617.289
618.101
616.407
616.562
615.627
615.868
616.076
616.231
616.333
616.394
616.445
616.503
616.567
616.197
615.545
616.879
617.014
618.653
619.02
616.581
615.195
614.188
613.121
612.23
611.921
612.484
614.014
616.444
619.328
621.969
623.598
623.705
622.394
620.247
617.94
616.232
615.341
615.263
615.76
616.519
617.348
618.107
618.752
619.35
620.144
621.438
623.39
625.887
628.493
630.747
632.498
633.819
634.887
635.822
636.572
636.828
636.568
635.89
634.944
633.822
632.4
630.184
626.87
623.036
620.18
617.565
631.988
603.7
602.012
598.702
598.163
600.801
605.002
612.593
623.097
633.686
642.315
655.078
673.883
664.746
667.253
665.179
656.86
626.271
594.231
613.799
607.984
630.027
622.999
615.057
598.829
586.725
616.765
618.575
614.545
615.006
617.305
616.659
615.337
615.82
617.025
615.835
616.654
616.262
615.599
614.819
614.087
613.541
613.251
613.27
613.624
614.252
615.842
615.225
615.04
615.83
616.501
616.855
618.708
615.956
617.508
618.798
615.93
618.309
616.64
618.501
615.273
617.52
616.078
618.792
618.555
618.359
618.233
618.123
617.958
617.696
616.974
615.637
615.183
619.099
619.116
618.857
618.32
617.566
616.633
615.706
615.053
612.003
616.914
614.691
614.934
615.164
615.349
615.488
615.573
615.604
615.61
615.604
615.602
615.614
615.646
619.239
618.232
615.63
616.936
617.034
612.159
617.729
616.104
615.104
613.875
612.641
611.648
611.223
611.794
613.376
615.899
618.881
621.57
623.144
623.087
621.637
619.486
617.067
615.405
614.601
614.719
615.435
616.407
617.398
618.258
618.91
619.401
619.973
620.967
622.646
625.037
627.825
630.605
633.081
635.24
637.144
638.907
640.458
641.468
641.568
640.71
639.177
637.348
635.365
632.874
629.657
625.109
619.344
613.201
625.542
597.718
662.905
658.207
658.121
662.778
666.431
663.296
655.817
649.559
641.595
637.728
638.06
642.504
648.431
642.295
583.87
571.922
569.248
538.927
506.538
509.921
569.39
715.299
685.223
667.795
661.945
677.143
668.134
556.98
624.588
590.196
611.849
616.438
621.686
624.743
627.206
629.938
633.006
635.984
638.2
638.969
637.605
634.376
629.47
623.849
618.73
615.042
613.066
612.489
613.044
614.35
616.045
617.835
619.497
620.983
622.27
623.36
624.237
624.826
625.121
625.031
624.457
623.356
621.833
620.188
618.767
617.762
617.215
617.012
616.993
616.99
617.018
619.026
616.343
615.307
616.547
616.678
615.773
616.954
616.877
616.082
615.245
615.302
616.523
616.223
616.294
616.686
618.645
618.688
615.528
616.879
615.568
617.62
618.238
616.794
617.025
618.582
618.167
619.339
614.972
618.416
616.846
617.929
616.21
616.431
616.025
618.682
616.519
616.335
615.132
615.124
614.161
613.409
612.95
612.839
613.075
613.617
614.427
615.337
616.185
616.775
616.694
616.392
616.064
617.432
617.878
618.249
618.529
618.724
618.89
619.071
619.253
616.547
615.198
618.084
617.423
616.762
616.217
616.826
619.56
615.833
617.888
615.671
617.715
616.855
619.056
619.182
619.002
618.466
617.671
616.698
615.668
615.412
614.976
616.514
616.696
616.969
617.337
617.528
617.501
617.32
617.017
616.829
617.022
617.831
619.349
621.465
623.844
625.993
627.497
628.171
627.946
626.84
625.122
623.088
620.991
618.921
616.829
614.665
612.495
610.515
609.092
608.761
609.992
613.112
618.422
625.377
632.759
639.32
644.051
645.941
645.294
642.808
639.286
635.337
631.349
627.097
620.962
614.038
610.412
616.247
622.923
790.574
617.307
616.953
570.434
591.691
594.649
584.254
578.084
581.392
587.217
593.434
613.327
642.955
674.143
705.171
738.732
694.308
685.957
690.264
654.143
481.599
441.104
579.898
587.641
549.914
597.405
591.473
555.858
521.834
451.76
258.532
619.326
614.079
614.276
614.477
614.609
614.694
614.722
614.719
614.7
614.669
614.641
614.635
614.636
614.633
615.448
615.067
614.517
613.895
616.865
616.236
615.111
613.691
612.275
611.168
610.636
611.083
612.741
615.341
618.41
621.143
622.681
622.523
621.016
618.84
616.569
614.727
614.012
614.327
615.213
616.342
617.463
618.411
619.078
619.485
619.855
620.574
621.983
624.25
627.207
630.486
633.688
636.652
639.271
641.657
643.833
645.549
645.898
644.75
642.498
639.745
637.014
634.611
632.654
629.448
625.218
619.509
615.91
614.131
683.114
494.671
617.138
615.979
618.542
618.357
615.896
616.372
614.846
615.148
616.706
616.912
617.17
616.861
617.355
616.94
617.465
617.988
618.449
618.82
619.109
619.314
619.466
619.573
615.987
618.909
618.814
618.154
617.33
616.567
616.873
615.623
614.399
613.409
612.834
612.619
612.78
613.351
614.219
615.222
616.18
614.858
616.075
616.146
618.461
616.382
616.537
617.608
617.089
616.508
616.394
616.486
616.788
617.216
617.651
617.919
617.908
617.595
617.044
616.542
616.453
617.096
618.657
621.111
624.133
627.121
629.434
630.649
630.426
628.786
626.328
623.585
620.914
618.434
616.069
613.704
611.251
608.805
606.73
605.633
606.208
608.818
613.911
621.488
630.633
639.928
647.937
652.791
653.671
651.665
647.693
642.444
636.772
630.935
624.973
619.662
617.16
614.171
608.044
756.207
224.386
618.373
618.946
619.173
619.074
618.549
617.725
616.722
615.591
614.49
615.251
617.906
617.104
617.391
618.267
615.505
614.88
615.365
614.973
614.46
613.825
618.002
616.836
613.095
613.271
613.437
613.576
613.665
613.698
613.705
613.694
613.671
613.64
613.613
613.597
613.577
613.511
613.31
612.504
20.6934
23.7173
22.4604
23.8636
23.8074
23.8456
23.5559
23.4958
23.6399
24.4088
25.8197
27.552
27.8584
26.4949
25.4085
27.5008
33.2795
31.3333
41.5837
39.454
19.0577
19.5523
18.9853
19.7509
19.0424
20.1536
18.4938
19.6935
17.6744
22.9303
617.027
616.364
615.157
613.604
612.038
610.798
610.182
610.529
612.17
614.831
617.965
620.754
622.299
622.133
620.618
618.438
616.228
614.331
613.67
614.08
615.069
616.309
617.525
618.543
619.231
619.578
619.79
620.287
621.476
623.625
626.693
630.364
634.175
637.783
640.911
643.666
646.234
648.419
649.186
647.793
644.842
641.2
637.701
635.49
634.549
633.142
630.984
625.854
618.749
619.963
694.867
309.906
26.97
617.349
616.86
618.077
615.768
614.924
394.201
541.501
617.331
617.152
27.4581
4499.33
4708.1
4201.25
4568.13
4136.5
4354.75
4168.18
4407.25
4263.77
4122.28
4247.41
3787.56
4048.9
3731.31
3634.63
3843.87
3796.95
3965.73
3897.16
4136.75
4050.09
4140.94
4160.64
4067.21
4092.13
4055.01
4018.11
4089.91
3828.59
450.855
47.0582
4026.02
3544.91
600.892
552.54
629.836
618.793
634.368
633.673
635.019
634.6
641.753
637.661
649.567
646.07
649.818
650.901
644.641
647.386
638.359
641.733
630.264
634.431
623.266
626.376
620.137
621.197
619.642
619.767
618.631
619.329
616.308
617.576
613.97
615.032
614.317
613.462
618.409
616.165
621.959
620.586
620.29
621.951
614.449
617.528
610.187
611.788
610.669
609.961
613.621
611.996
616.454
615.204
617.359
617.168
616.231
616.986
614.174
615.238
612.634
613.246
612.687
612.426
614.394
613.365
616.99
615.707
618.839
618.148
619.191
619.152
617.595
618.596
615.022
616.367
612.449
612.449
612.438
612.525
612.492
612.566
612.542
612.598
612.586
612.599
612.601
612.532
612.591
612.396
612.465
612.485
612.322
613.318
612.76
612.106
612.011
613.123
612.678
614.406
613.79
615.364
614.922
616.34
615.866
618.016
617.145
619.397
618.815
619.805
619.745
619.574
619.732
619.007
619.337
618.086
618.59
617.018
617.533
616.369
616.602
616.473
616.327
617.336
616.84
618.155
617.821
617.797
618.168
616.46
617.113
616.721
616.207
620.851
618.26
627.69
624.211
631.937
630.565
629.796
631.612
623.922
627.024
618.125
620.851
613.234
615.668
608.003
610.668
604.091
605.604
606.557
604.226
619.087
611.402
639.98
629.096
656.641
649.811
657.045
658.849
646.057
652.5
631.703
638.827
620.2
625.278
616.55
616.739
580.286
612.294
612.068
617.941
615.664
3595.33
617.204
2963.9
617.709
612.011
612.017
611.993
611.994
612.007
612.003
611.997
616.24
618.927
617.638
617.134
617.596
618.823
617.509
618.308
618.118
617.427
617.782
618.06
617.421
617.772
617.84
617.29
617.612
617.511
617.091
617.352
619.049
615.205
612.043
615.634
613.747
615.165
616.82
618.969
616.387
617.293
616.067
617.171
619.135
616.43
617.031
617.161
616.468
615.696
616.601
616.486
615.621
616.43
618.588
616.795
612.794
617.197
616.324
616.458
616.924
616.362
618.401
612.084
617.504
616.191
616.956
616.651
618.314
615.075
618.906
617.204
612.806
616.656
618.513
617.172
617.545
617.782
617.822
615.958
617.87
616.581
622.269
622.462
616.935
)
;

boundaryField
{
    wall
    {
        type            zeroGradient;
    }
    outlet
    {
        type            fixedValue;
        value           uniform 1e-05;
    }
    inlet
    {
        type            fixedValue;
        value           uniform 612;
    }
    frontAndBackPlanes
    {
        type            empty;
    }
}


// ************************************************************************* //
