/*--------------------------------*- C++ -*----------------------------------*\
| =========                 |                                                 |
| \\      /  F ield         | OpenFOAM: The Open Source CFD Toolbox           |
|  \\    /   O peration     | Version:  2212                                  |
|   \\  /    A nd           | Website:  www.openfoam.com                      |
|    \\/     M anipulation  |                                                 |
\*---------------------------------------------------------------------------*/
FoamFile
{
    version     2.0;
    format      ascii;
    arch        "LSB;label=32;scalar=64";
    class       surfaceScalarField;
    location    "0.00406";
    object      phi;
}
// * * * * * * * * * * * * * * * * * * * * * * * * * * * * * * * * * * * * * //

dimensions      [1 0 -1 0 0 0 0];

oriented        oriented;

internalField   nonuniform List<scalar> 
14149
(
0.000204425
-0.00015744
-9.37772e-05
6.33023e-05
-6.45926e-05
0.000274065
-0.0002894
8.65585e-05
0.000245794
-4.64609e-05
-0.000257968
7.70559e-05
-0.000220604
0.00020928
-5.96745e-05
-9.7755e-05
0.00012257
0.000256604
0.000231828
0.000246423
0.000159853
-0.000134362
-0.000271455
-0.000174111
0.000201607
-0.000264806
0.000238783
0.000151138
-0.000229909
0.000211201
-0.000130165
0.000225348
0.000164014
0.000156983
-0.00017588
-0.000135428
-0.0002408
-0.000170717
0.00043048
-9.67944e-06
0.000998693
-0.000161295
9.73964e-05
-0.000932745
8.00922e-05
-6.96339e-05
-0.000479964
0.00047709
2.26272e-05
-0.000565513
1.90497e-05
0.000530076
-0.000738203
-9.63708e-05
-0.000115751
0.000954972
-5.80059e-05
-0.00110153
0.00100444
0.000167602
-0.000164409
-0.000163319
0.000201913
0.000143813
-0.00111064
0.00102732
3.7767e-05
0.00018017
-8.17763e-05
0.000108442
-0.000195102
0.000129495
-0.0010394
-0.000107755
0.00102593
0.00081175
-0.000430028
-0.000818026
0.000439898
-8.84238e-05
-0.000114021
0.000102327
0.000103472
-0.000564626
0.000132366
-0.000243649
0.000679065
0.000344526
0.00010411
-0.000244966
-0.000214666
-0.000130673
0.000217452
0.000497866
-0.000571529
0.00063593
-0.000263921
8.06481e-05
-0.000435449
-8.89851e-05
9.48786e-05
-0.000334292
0.000339651
0.000170248
0.00100286
-0.00103571
0.000953913
-0.00102693
-3.71258e-05
0.000115187
-0.000523466
-0.000256596
0.000235529
0.000545966
0.00103448
3.13634e-05
-3.49095e-05
-0.00102679
-0.000284455
0.000229475
0.000322935
-0.000262885
-2.10059e-05
0.000945392
3.47581e-05
0.000490799
0.000204706
-0.000301246
-0.000420581
0.0001055
-0.000177911
-9.03129e-05
0.000181579
0.000242334
3.77473e-05
-2.35921e-05
-0.000252812
0.000171844
0.000210855
-0.000209222
0.000163263
-0.000177815
0.000181851
-0.000189528
7.60792e-07
0.000194051
8.91036e-06
7.09684e-07
-0.000185877
9.01626e-06
0.00018959
-0.00018594
1.04876e-05
0.000194104
1.0485e-05
2.40656e-05
0.000233443
-1.62779e-05
-0.000220517
-3.53362e-05
-0.000222647
5.86865e-05
0.000219772
0.000206247
-0.000223847
-5.28686e-07
0.000215243
1.54297e-05
-7.64041e-06
0.000232332
2.52248e-05
-0.000183392
6.52264e-07
9.15901e-06
6.08119e-07
-0.000182602
9.36117e-06
0.000183469
-0.000182678
1.06355e-05
1.05344e-05
-0.000183619
5.5632e-07
9.6127e-06
5.24958e-07
-0.000186549
9.92639e-06
0.000183701
-0.000186624
1.10455e-05
1.07967e-05
-0.000192006
4.93227e-07
1.03301e-05
4.73594e-07
-0.000200345
1.08217e-05
0.000192077
-0.000200411
1.18439e-05
1.13903e-05
-0.000211466
4.59024e-07
1.14126e-05
4.51823e-07
-0.00022481
1.20875e-05
0.000211535
-0.000224895
1.30819e-05
1.2413e-05
-0.000239077
4.43902e-07
1.28239e-05
4.15316e-07
-0.000252415
1.35816e-05
0.000239194
-0.000252586
1.45077e-05
1.38061e-05
-0.00026444
3.25555e-07
1.4333e-05
1.49858e-07
-0.000270468
1.4973e-05
0.000264725
-0.000270743
1.53814e-05
1.50774e-05
-0.000266635
-7.12741e-08
1.54295e-05
-4.5795e-07
-0.000262036
1.58773e-05
0.000266814
-0.000262327
1.52394e-05
1.53655e-05
-0.000257906
-8.76186e-07
1.67282e-05
-2.48827e-06
-0.000253419
1.83256e-05
0.0002579
-0.000253884
1.40778e-05
1.48923e-05
-0.000249876
-3.60993e-06
2.06922e-05
-8.04205e-06
-0.000244112
2.27193e-05
0.000248774
-0.00024472
8.60327e-06
1.21486e-05
0.000240291
1.62415e-05
-4.20497e-06
1.43655e-05
1.7576e-06
-0.000237126
2.74726e-05
-0.000232023
3.07245e-05
-0.000220778
3.28145e-05
0.000240529
9.53456e-06
8.10598e-07
8.84025e-06
0.000199332
1.04987e-05
0.000199384
0.000189538
-0.000185871
2.00292e-05
0.000194074
1.99547e-05
-1.97102e-05
-0.000222499
3.97175e-05
-3.82214e-07
-0.000223882
-0.000216008
2.88076e-05
-0.000221305
2.31334e-05
0.000242969
-0.00023641
4.059e-05
-0.000248182
0.000253069
3.58303e-05
3.744e-05
-0.000257593
0.000261775
3.20146e-05
3.36067e-05
-0.000266175
0.000269967
3.02927e-05
3.10211e-05
-0.000263599
0.000251672
2.85433e-05
2.96919e-05
-0.000238325
0.000224089
2.56499e-05
2.71288e-05
-0.000210807
0.000199763
2.28605e-05
2.41936e-05
-0.000191508
0.00018613
2.07587e-05
2.17055e-05
-0.000183257
0.00018229
1.94274e-05
1.99939e-05
-0.000183148
0.000185678
1.86238e-05
1.89664e-05
-0.00018936
0.000193906
1.82434e-05
1.83954e-05
0.000183355
-0.000182513
2.04256e-05
2.01722e-05
0.000183484
-0.000186334
2.13045e-05
2.08029e-05
0.000191692
-0.00019993
2.2944e-05
2.2025e-05
0.00021097
-0.000224289
2.54211e-05
2.40823e-05
0.000238614
-0.000252114
2.83172e-05
2.68775e-05
0.000264396
-0.000270738
3.03873e-05
2.95766e-05
0.000266847
-0.000262228
3.06256e-05
3.05941e-05
0.000257759
-0.000253002
2.97717e-05
3.04476e-05
0.000248235
-0.000243826
2.49492e-05
2.81525e-05
1.92741e-05
-0.000230108
4.372e-05
0.000199217
1.81487e-05
1.993e-05
0.000199364
0.000237293
-0.00025962
2.93734e-05
0.000238757
2.91999e-05
3.50822e-05
-1.6671e-05
-0.000220808
2.2384e-05
-0.000225108
-0.000222982
4.45372e-05
-0.000219431
4.38048e-05
-0.000223389
0.00022913
5.72555e-05
-0.000229003
5.11769e-05
-0.000219849
4.21925e-05
-0.00021981
5.85692e-05
-0.000235518
0.000241194
5.39197e-05
5.60729e-05
-0.000246361
0.000251793
4.95547e-05
5.14225e-05
-0.000256437
0.000261124
4.60439e-05
4.79583e-05
-0.00026568
0.000269189
4.44515e-05
4.52549e-05
-0.000262189
0.000250355
4.19351e-05
4.36332e-05
-0.000236933
0.00022272
3.76424e-05
3.98421e-05
-0.000209545
0.000198655
3.35201e-05
3.54832e-05
-0.000190573
0.000185369
3.0457e-05
3.18358e-05
-0.000182617
0.000181776
2.85801e-05
2.93814e-05
-0.000182755
0.000185372
2.74639e-05
2.79298e-05
-0.00018911
0.000193701
2.69612e-05
2.71594e-05
1.80987e-05
-8.78602e-06
0.000205297
-0.000199046
0.000205165
2.67966e-05
2.68539e-05
-8.58647e-07
1.05362e-05
0.000205433
0.000205388
0.00019929
-0.000193963
2.87942e-05
-1.99414e-05
2.87847e-05
0.000205362
0.000205424
0.000189387
-0.00018566
2.90176e-05
2.88705e-05
0.000183057
-0.000182095
2.96594e-05
2.926e-05
0.000182942
-0.000185662
3.09904e-05
3.02505e-05
0.000190831
-0.00019887
3.34118e-05
3.20543e-05
0.000209744
-0.000222961
3.70808e-05
3.5098e-05
0.000237307
-0.000250983
4.14423e-05
3.92576e-05
0.000263429
-0.000270462
4.48183e-05
4.34133e-05
0.0002667
-0.000262019
4.54065e-05
4.52579e-05
0.000257419
-0.000252433
4.47608e-05
4.53427e-05
0.0002474
-0.00024268
4.06615e-05
4.34721e-05
3.59298e-05
0.000223035
-0.000219668
5.1728e-05
5.44763e-05
0.000238023
-0.000241402
5.34646e-05
0.000238665
4.87404e-05
1.80763e-05
-8.75578e-06
0.000212135
2.6792e-05
0.000212024
0.000199146
-0.00019379
3.68778e-05
0.000205255
3.68252e-05
1.07334e-06
-0.000221906
-3.47865e-05
5.06237e-05
-0.000215941
-1.82713e-05
-0.000217371
4.38765e-05
-0.00022243
-0.000223143
0.00022797
7.02541e-05
0.000219853
-0.000216292
6.59204e-05
0.000224663
6.62576e-05
5.8958e-05
-0.000218186
-0.000232396
6.28406e-05
-0.000218869
7.20554e-05
-0.000233663
0.000239669
6.6087e-05
6.83664e-05
-0.000244679
0.000250271
6.22098e-05
6.46266e-05
-0.000255648
0.000260168
5.93303e-05
6.06682e-05
-0.000264897
0.000268131
5.75121e-05
5.8377e-05
-0.000260214
0.000248463
5.41965e-05
5.64563e-05
-0.000234913
0.000220731
4.84765e-05
5.14002e-05
-0.000207719
0.000197067
4.30823e-05
4.56373e-05
-0.000189245
0.000184285
3.91751e-05
4.09247e-05
-0.000181736
0.000181087
3.68307e-05
3.78237e-05
-0.00018225
0.000184988
3.54698e-05
3.60267e-05
-0.000188802
0.000193449
3.48721e-05
3.51096e-05
-0.000198846
0.000205005
3.46882e-05
3.47524e-05
-8.92852e-07
1.05712e-05
0.000212239
0.000212205
-1.99762e-05
2.88063e-05
0.000212179
0.000212232
0.000189151
-0.000185345
3.72102e-05
3.69847e-05
0.00018261
-0.000181465
3.8065e-05
3.75272e-05
0.000182107
-0.000184634
3.98097e-05
3.88348e-05
0.000189532
-0.000197286
4.29047e-05
4.11548e-05
0.000207904
-0.000220957
4.76779e-05
4.50882e-05
0.000235304
-0.000249186
5.34749e-05
5.05495e-05
0.000261752
-0.000269839
5.82236e-05
5.61772e-05
0.000266304
-0.00026149
5.91755e-05
5.89444e-05
0.000256792
-0.00025146
5.85547e-05
5.92459e-05
0.000246506
-0.000241816
5.56842e-05
5.80044e-05
5.25978e-05
6.67152e-05
3.46906e-05
0.000211902
0.000212084
3.68433e-05
2.17946e-05
-0.000226359
4.99748e-05
-3.60732e-05
-0.000210728
-0.000210753
6.28182e-05
-1.67855e-06
-0.000218575
7.33471e-05
-0.000215516
0.000237263
-0.000235176
7.04086e-05
0.000237554
6.72633e-05
-0.000229369
7.59101e-05
6.05577e-05
-0.000216383
0.000204822
-0.000198617
4.16452e-05
0.000211747
4.16573e-05
2.88615e-05
-2.0023e-05
0.00021968
3.68957e-05
0.000219595
5.82116e-05
-0.000239267
-2.24793e-05
-0.000211359
-4.86978e-05
-0.000203199
5.88885e-05
-3.7916e-05
-0.000202889
0.000190801
-5.98658e-05
-0.000181049
6.44384e-05
-5.52792e-05
0.000208441
5.30208e-05
-0.000193952
-4.74838e-05
8.70316e-06
-0.000216955
0.000217624
8.5924e-05
-0.0002134
-0.000222186
0.000227371
8.20209e-05
8.4348e-05
-0.000232881
0.000238175
7.7996e-05
7.99595e-05
-0.000244123
0.00024962
7.40707e-05
7.59094e-05
-0.000254565
0.000259225
7.14042e-05
7.28096e-05
-0.000263964
0.000266612
6.93859e-05
7.03906e-05
-0.000257605
0.000245917
6.50115e-05
6.79379e-05
-0.000232212
0.0002181
5.78836e-05
6.15323e-05
-0.000205327
0.000195003
5.1319e-05
5.44035e-05
-0.000187545
0.000182921
4.67101e-05
4.87519e-05
-0.000180633
0.000180241
4.40092e-05
4.51535e-05
-0.000181636
0.000184527
4.24972e-05
4.31099e-05
-0.000188446
0.000193164
4.18474e-05
4.21072e-05
4.17188e-05
-2.68231e-05
3.47444e-05
0.000219462
1.8084e-05
-8.74557e-06
0.00021966
0.000219559
-9.19786e-07
1.06099e-05
0.000219738
0.000219712
0.000219731
-0.000205101
0.000211963
4.39326e-05
0.000198965
-0.000193548
4.40097e-05
4.39351e-05
0.000188844
-0.000184924
4.4428e-05
4.41551e-05
0.00018205
-0.000180649
4.54358e-05
4.48237e-05
0.000181028
-0.000183274
4.75166e-05
4.63515e-05
0.000187829
-0.000195209
5.11627e-05
4.90949e-05
0.000205486
-0.000218297
5.69021e-05
5.37733e-05
0.000232602
-0.000246696
6.40753e-05
6.04248e-05
0.000259316
-0.000268801
7.02964e-05
6.75141e-05
0.000265697
-0.000260791
7.16883e-05
7.13654e-05
0.000255983
-0.000250861
7.14312e-05
7.18772e-05
0.000245456
-0.0002408
6.95956e-05
7.0976e-05
6.79591e-05
0.000223818
-0.00021924
7.97885e-05
7.96502e-05
0.000216019
-0.00021339
7.76325e-05
8.04453e-05
7.08526e-05
7.48833e-05
-0.000212046
4.17362e-05
0.000219317
0.000219491
4.39777e-05
0.000233591
-0.000231156
8.51917e-05
0.000235491
8.25165e-05
-0.00022681
8.86864e-05
0.000213596
7.50129e-05
-0.000219266
6.17834e-05
-0.000202022
-6.36288e-06
-0.000214786
-2.88865e-05
-0.000201335
-4.9525e-05
-0.000187714
-5.8257e-06
-0.000206151
-9.1361e-05
-0.000175755
0.000135198
0.000148456
-0.000211746
0.000215734
9.75147e-05
-3.72774e-05
-0.000195021
8.79268e-05
-0.000209655
-0.000207934
9.96182e-05
-7.1553e-05
-0.000185336
-0.000220867
0.000226097
9.26355e-05
9.49113e-05
-0.000231577
0.000237215
8.84547e-05
9.04782e-05
-0.000242608
0.000248008
8.49132e-05
8.66286e-05
-0.000253187
0.000257954
8.21608e-05
8.35191e-05
-0.000262749
0.000264638
7.98826e-05
8.10885e-05
-0.000254376
0.00024256
7.42397e-05
7.79379e-05
-0.000228763
0.000214798
6.5699e-05
7.00229e-05
-0.000202372
0.00019249
5.81071e-05
6.16395e-05
-0.000185497
0.000181286
5.29725e-05
5.52179e-05
-0.000179331
0.00017925
5.00421e-05
5.12845e-05
-0.000180929
0.000184001
4.84815e-05
4.91006e-05
-0.000188046
0.000192845
4.78278e-05
4.80886e-05
-0.000198365
0.00020462
4.76177e-05
4.76913e-05
-0.000211581
0.000219187
4.77248e-05
4.76388e-05
-4.18311e-05
4.78365e-05
0.000227336
3.48284e-05
-2.68714e-05
0.000227599
0.000227467
1.81113e-05
-8.74462e-06
0.000227794
0.0002277
-9.36642e-07
1.06403e-05
0.000227865
0.000227845
-2.00708e-05
2.89266e-05
0.000227787
0.000227846
-3.697e-05
4.40629e-05
0.00022759
0.000227701
-0.000219359
0.000227448
5.01586e-05
0.00021182
-0.000204931
5.00329e-05
5.00662e-05
0.000198734
-0.000193259
5.01374e-05
5.00306e-05
0.000188466
-0.000184422
5.06087e-05
5.03022e-05
0.000181357
-0.000179682
5.16985e-05
5.10411e-05
0.000179732
-0.000181634
5.39947e-05
5.26889e-05
0.000185768
-0.000192678
5.80409e-05
5.57381e-05
0.000202511
-0.000214995
6.45762e-05
6.09872e-05
0.000229185
-0.00024347
7.30219e-05
6.86732e-05
0.000256143
-0.000267267
8.07609e-05
7.72095e-05
0.000264894
-0.000259855
8.27765e-05
8.23256e-05
0.000254963
-0.000249415
8.25541e-05
8.31272e-05
0.000244176
-0.000239444
8.1949e-05
8.28504e-05
8.10723e-05
0.000221889
-0.000218407
9.29326e-05
9.15756e-05
0.000214776
-0.000212736
9.19079e-05
9.3249e-05
8.79936e-05
-7.5906e-05
9.0045e-05
-0.000206904
-0.000208072
2.65294e-05
-0.000229024
-0.000204149
0.000101703
0.000231087
-0.000227565
9.70789e-05
0.000234394
9.46976e-05
-0.000223286
9.96914e-05
0.000219012
-0.000211393
5.27559e-05
0.000227139
5.28907e-05
4.41541e-05
-3.70552e-05
0.000236171
5.02447e-05
0.000236001
-2.61174e-05
-0.00019846
-2.56398e-05
-0.000194481
-3.56762e-05
-0.000191114
0.000111059
-0.000182217
-8.7934e-05
-0.000184879
0.000189458
0.000122609
-0.000104526
-0.000183882
0.000119528
-0.000183297
-8.64563e-05
9.45212e-05
-7.97183e-05
-0.000204709
5.22724e-05
-0.000241271
-5.31791e-05
-0.00018918
-0.00021266
5.15477e-05
0.000105924
-0.000200222
-0.000185722
-7.05451e-05
0.000205857
-0.000201933
0.00011171
-0.000209805
0.000214254
0.000107274
0.000109724
-0.000219234
0.000224384
0.000102038
0.000104332
-0.000229796
0.000235383
9.76606e-05
9.97723e-05
-0.000240756
0.000246289
9.43672e-05
9.6054e-05
-0.000251534
0.000256309
9.15772e-05
9.28662e-05
-0.000261189
0.000261853
8.8951e-05
9.02837e-05
-0.000250459
0.000238386
8.1754e-05
8.62938e-05
-0.000224527
0.000210817
7.18816e-05
7.68406e-05
-0.000198867
0.000189555
6.3448e-05
6.73287e-05
-0.000183136
0.000179423
5.79678e-05
6.03383e-05
-0.000177869
0.000178149
5.4941e-05
5.62207e-05
-0.000180136
0.000183412
5.3424e-05
5.40103e-05
-0.0001876
0.000192497
5.28124e-05
5.3055e-05
-0.000198081
0.000204391
5.26221e-05
5.26895e-05
5.26583e-05
-4.19369e-05
4.79686e-05
0.00023593
3.49213e-05
-2.69506e-05
0.000236246
0.000236101
1.8156e-05
-8.76345e-06
0.000236452
0.000236348
-9.43865e-07
1.06691e-05
0.000236516
0.000236504
-2.01218e-05
2.89956e-05
0.000236405
0.000236481
0.000236303
-0.000219171
0.000227257
5.52821e-05
0.000211625
-0.000204679
5.5146e-05
5.5199e-05
0.000198433
-0.00019288
5.52606e-05
5.51537e-05
0.000187997
-0.000183807
5.57483e-05
5.5442e-05
0.000180538
-0.000178555
5.68405e-05
5.61838e-05
0.000178243
-0.000179733
5.92181e-05
5.78505e-05
0.000183374
-0.000189714
6.35114e-05
6.10605e-05
0.000198993
-0.000211023
7.06368e-05
6.66947e-05
0.000225016
-0.000239433
8.02253e-05
7.52377e-05
0.000252303
-0.000264959
8.95617e-05
8.51269e-05
0.000263834
-0.000258803
9.24764e-05
9.17833e-05
0.000253734
-0.000248678
9.27823e-05
9.28172e-05
0.000243316
-0.000238268
9.24169e-05
9.32869e-05
9.26834e-05
0.000219214
-0.000215303
0.000103959
0.000102572
0.000211772
-0.000208766
0.000103948
0.000104624
0.00020688
-0.000219505
0.000104985
0.000101632
0.000122634
-0.000216039
-0.000197553
0.000115281
5.30157e-05
0.000235718
0.000235779
5.53657e-05
-0.00022841
0.000232594
0.000104312
-0.0002244
0.000106733
-0.000102667
0.000111056
-0.000193515
-9.70456e-05
-0.000193587
-0.00018239
-5.4245e-05
-1.29835e-05
-0.000192796
-2.00289e-05
-0.000191891
-3.56272e-05
-0.000190748
-0.000103123
0.000119099
-0.000183449
-0.000183159
-8.58144e-05
-0.000125611
0.000150514
-0.000144989
0.000133078
-0.000184626
-6.98905e-05
-0.000290715
-0.000319536
0.000385812
0.000220989
-5.34474e-05
-0.000188627
0.000119183
-0.000192189
0.000195772
-0.000191666
0.000127067
-0.000199932
0.000203532
0.000120497
0.000123324
-0.000207455
0.000212258
0.000115242
0.000118346
-0.000217311
0.000222316
0.000110196
0.000112293
-0.000227703
0.000233004
0.000105743
0.000107689
-0.00023869
0.000244387
0.000102329
0.000103778
-0.000249596
0.00025448
9.94844e-05
0.000100849
-0.00025919
0.000257854
9.6508e-05
9.80778e-05
-0.000245817
0.000233318
8.75607e-05
9.28828e-05
-0.0002195
0.00020618
7.64601e-05
8.19572e-05
-0.000194857
0.000186253
6.74084e-05
7.15226e-05
-0.000180522
0.000177371
6.17731e-05
6.41776e-05
-0.000176277
0.000176969
5.87555e-05
6.0024e-05
-0.000179277
0.00018277
5.73698e-05
5.78901e-05
-0.000187109
0.000192084
5.68696e-05
5.70497e-05
-0.000197759
0.000204134
5.67205e-05
5.67438e-05
-0.000211175
0.000218796
5.69113e-05
5.67893e-05
-0.000226919
0.000235459
5.71804e-05
5.70512e-05
-5.3128e-05
5.72779e-05
0.000244329
4.80838e-05
-4.20599e-05
0.00024489
0.000244634
3.50183e-05
-2.70119e-05
0.00024526
0.000245094
1.8206e-05
-8.78209e-06
0.000245509
0.000245404
-9.4553e-07
1.06935e-05
0.000245576
0.000245572
-2.01684e-05
2.9058e-05
0.000245421
0.000245518
-3.71322e-05
4.42405e-05
0.000245116
0.000245286
-5.03282e-05
5.54377e-05
0.000244639
0.000244906
-0.0002355
0.000244317
5.96522e-05
0.00022702
-0.000218949
5.95162e-05
5.96074e-05
0.000211384
-0.000204388
5.9346e-05
5.94339e-05
0.000198074
-0.000192428
5.94204e-05
5.9352e-05
0.000187446
-0.000183103
5.98833e-05
5.96115e-05
0.000179616
-0.00017731
6.08944e-05
6.02894e-05
0.000176583
-0.000177618
6.32469e-05
6.18645e-05
0.0001807
-0.000186375
6.76189e-05
6.51048e-05
0.000194973
-0.000206422
7.51169e-05
7.09313e-05
0.000220076
-0.000234498
8.56543e-05
8.01121e-05
0.000247935
-0.000261578
9.65903e-05
9.12911e-05
0.000262407
-0.000257432
0.000100759
9.97674e-05
0.000252501
-0.000247435
0.000101556
0.000101219
0.000241524
-0.000236922
0.000101756
0.000101751
0.000102259
0.000216198
-0.000212336
0.000113355
-0.000220578
0.000109392
0.000111543
0.000207989
-0.000205443
0.000114841
0.000113564
0.000204673
-0.000206294
0.000121043
0.00011478
0.000195329
-0.000188678
0.000130561
0.000126454
0.000185284
-0.000183638
0.000132444
0.000130731
0.000184399
0.000153096
-0.000114373
0.00018198
-0.00012022
0.000139261
0.000120486
-0.000183895
-0.000103002
0.000134487
-0.000188598
0.000149778
0.000341582
-0.000145589
-0.000346185
0.000122533
-0.000113876
-0.000187552
-0.000187839
0.000130554
1.06484e-05
-0.000189405
-0.000230003
-3.19667e-05
0.000235167
-0.000226669
6.05375e-05
0.000243984
6.06181e-05
5.54623e-05
-5.0374e-05
0.000253781
5.9673e-05
0.000253382
-4.24497e-06
-0.000190468
-0.000184327
-0.000102079
-1.8499e-05
-0.000190627
-0.000182773
-8.53998e-05
-0.000183543
-6.8692e-05
-3.53813e-05
-0.000190417
-5.2896e-05
-0.000187299
0.000232255
-0.000280784
0.000250992
-0.000310457
-0.00030955
0.00032572
0.00027788
-0.000283226
-0.000307992
0.000319968
0.000370464
-0.00041717
0.000623514
-0.000388978
-0.000608919
0.000380709
0.00029806
-0.000382911
-0.00029252
0.000374779
-0.000105833
-0.000186791
-9.78643e-05
-0.000185405
-0.000164204
-0.000487703
0.000268883
0.000383334
0.000115082
-0.000104528
-0.000182743
0.000173515
0.000160582
-0.000164059
0.000178342
0.000149278
7.25088e-05
-4.31073e-05
-0.000180228
0.000166591
8.83216e-05
-0.000176575
0.000124355
-0.000183577
-0.000391702
0.000376852
-0.000183669
0.000131998
0.000496377
-0.000529583
-0.000377499
0.000415398
0.000125834
-0.00011634
-0.000179751
-0.00018046
0.000134471
0.00026037
-0.00029456
0.000266601
0.000167193
-0.000149398
-0.000152519
0.000144883
0.000134265
-0.000126573
-0.000176106
-0.000184334
0.000184125
0.000145179
-0.000137486
0.000130701
-0.000185531
0.000187363
0.000140609
0.000143612
-0.000190646
0.000194038
0.000134202
0.000137684
-0.000197387
0.000201535
0.000127251
0.000130671
-0.000205602
0.000210014
0.000122221
0.000125413
-0.000214562
0.000219991
0.000116576
0.000119375
-0.000225356
0.000230894
0.000112265
0.000114285
-0.00023642
0.000242147
0.000108892
0.000110363
-0.000247374
0.000252309
0.000105947
0.000107353
-0.000256509
0.000252147
0.000102402
0.000104464
-0.000240164
0.000227389
9.15994e-05
9.75916e-05
-0.000213718
0.000200959
7.94504e-05
8.53721e-05
-0.000190421
0.000182666
7.00442e-05
7.42673e-05
-0.000177714
0.000175194
6.4444e-05
6.68083e-05
-0.000174618
0.000175757
6.15502e-05
6.27549e-05
-0.000178389
0.000182103
6.03663e-05
6.07959e-05
-0.000186573
0.00019167
6.00032e-05
6.01333e-05
-0.00019741
0.000203865
5.99671e-05
5.99435e-05
-0.000210945
0.000218578
6.02471e-05
6.01012e-05
6.04098e-05
-5.32081e-05
5.73348e-05
0.00025347
4.8166e-05
-4.21418e-05
0.000254131
0.000253816
3.50963e-05
-2.70775e-05
0.000254579
0.000254383
1.82453e-05
-8.80518e-06
0.000254877
0.00025476
-9.46995e-07
1.07126e-05
0.000254942
0.000254943
-2.01979e-05
2.90995e-05
0.000254744
0.000254869
-3.71824e-05
4.42921e-05
0.000254357
0.000254571
0.000254097
-0.00023515
0.000243905
6.30508e-05
0.000226705
-0.000218675
6.29345e-05
6.30168e-05
0.000211098
-0.000204063
6.26955e-05
6.28228e-05
0.000197657
-0.000191937
6.26829e-05
6.26548e-05
0.000186838
-0.000182344
6.30439e-05
6.28262e-05
0.000178626
-0.000176002
6.39151e-05
6.3381e-05
0.000174831
-0.000175346
6.61089e-05
6.47871e-05
0.000177825
-0.000182744
7.04124e-05
6.79312e-05
0.00019053
-0.000201234
7.80434e-05
7.37388e-05
0.00021439
-0.000228741
8.93251e-05
8.33177e-05
0.000242499
-0.000256499
0.000101719
9.55826e-05
0.000260511
-0.000255842
0.000107651
0.000106246
0.000250946
-0.000245803
0.000108744
0.000108237
0.000239741
-0.000234849
0.000109339
0.000108633
0.000230363
-0.000225778
0.000111982
0.000110216
0.000221555
-0.000217204
0.000116943
0.000114617
0.000213147
-0.000209008
0.000120835
0.000119216
0.000205852
-0.000203042
0.00012384
0.000122073
0.00020267
-0.000199408
0.000130178
0.000126529
0.000194103
-0.000188856
0.000138103
0.000133812
0.000184937
-0.000181091
0.00014189
0.000139735
0.000145668
-0.000322873
-0.00031309
0.000323445
-0.000318646
-0.000289325
-0.000311328
0.000299087
-0.000180979
-0.000184118
0.000166764
-0.000282568
0.000313717
-0.000346867
0.00032388
9.48391e-06
1.0197e-05
-0.000331974
4.92309e-05
-0.000117437
-7.78046e-05
0.000138756
-0.00015878
-0.000110124
6.0662e-05
0.000253042
0.000252912
6.3055e-05
0.000336802
0.000304771
-9.36194e-05
-0.000180555
-5.82046e-05
7.77637e-05
-0.00017931
-3.70284e-05
-0.00018448
1.46291e-05
-0.000190727
-0.000183633
-9.68475e-05
0.000240505
-0.000265161
-0.000495728
0.000512884
-0.000104667
-0.000179733
-0.00017367
0.000177026
0.000158632
0.000166608
-0.00016623
0.00018098
-0.000126953
-0.000202987
3.89184e-07
-0.000190925
-0.000182182
-8.41599e-05
-0.000182006
-6.82218e-05
-0.000116865
-0.000175876
-0.000167122
-0.000610696
0.000167275
0.000621405
-1.70501e-05
-0.000190169
-0.000420043
0.000507246
-2.19643e-05
-5.67821e-05
-0.000131913
-0.000169478
0.000433687
0.000171126
-3.48677e-05
-0.000189465
-0.000185587
-5.14917e-05
-0.000199131
0.000318957
0.000220943
-0.00025694
0.000314929
-0.000342053
0.000138838
-0.000122883
-0.00015975
-0.000312728
0.000314031
-0.000314395
0.000313492
2.75176e-05
-1.03161e-05
-0.000270015
-0.00019154
0.000185559
0.000160759
0.000177581
-0.000228248
-0.000185142
0.000186625
0.000148226
0.000153317
-0.00018906
0.000192032
0.000140369
0.000144303
-0.000195548
0.00019896
0.000133377
0.000136476
-0.000203075
0.000207491
0.000127872
0.00013107
-0.000212309
0.000217388
0.000122125
0.000124927
-0.000222759
0.000228321
0.000117624
0.000119717
-0.000234004
0.000239728
0.000114156
0.00011568
-0.00024491
0.00024986
0.000111017
0.000112548
-0.000252643
0.000244767
0.000106325
0.000109366
-0.000233557
0.000220672
9.37606e-05
0.000100353
-0.000207319
0.000195293
8.08628e-05
8.70486e-05
-0.000185698
0.000178904
7.1401e-05
7.55864e-05
-0.000174812
0.000172965
6.6029e-05
6.82721e-05
-0.000172946
0.000174556
6.33862e-05
6.44596e-05
-0.000177525
0.000181463
6.24521e-05
6.27639e-05
-0.000186075
0.000191243
6.22894e-05
6.23265e-05
-0.000197069
0.000203592
6.24183e-05
6.23133e-05
-0.000210739
0.000218365
6.28066e-05
6.25962e-05
-0.00022642
0.000234862
6.31282e-05
6.29959e-05
-0.000243609
0.000252588
6.3216e-05
6.31959e-05
-6.06265e-05
6.31453e-05
0.000261726
5.73338e-05
-5.31953e-05
0.000262759
0.000262282
4.81905e-05
-4.21787e-05
0.000263576
0.00026321
3.51373e-05
-2.71166e-05
0.000264114
0.000263881
1.82669e-05
-8.81983e-06
0.00026447
0.000264324
-9.40038e-07
1.07186e-05
0.000264533
0.000264542
-2.02125e-05
2.91149e-05
0.000264298
0.000264449
-3.72007e-05
4.42983e-05
0.000263823
0.000264077
-5.03709e-05
5.54435e-05
0.000263121
0.000263494
-5.96291e-05
6.29833e-05
0.000262097
0.00026264
-0.000252412
0.000261511
6.55367e-05
0.000243482
-0.000234788
6.56558e-05
6.56459e-05
0.000226403
-0.000218402
6.55374e-05
6.56315e-05
0.000210821
-0.000203742
6.52182e-05
6.539e-05
0.000197248
-0.000191429
6.50633e-05
6.51063e-05
0.000186235
-0.000181598
6.52658e-05
6.51336e-05
0.000177653
-0.000174687
6.59282e-05
6.55033e-05
0.000173046
-0.000173022
6.78704e-05
6.66709e-05
0.000174842
-0.000178937
7.19395e-05
6.95741e-05
0.000185802
-0.000195601
7.9451e-05
7.51731e-05
0.000208028
-0.000222065
9.11429e-05
8.48284e-05
0.000236019
-0.000249302
0.000104784
9.79816e-05
0.000257595
-0.000253977
0.000113056
0.000110788
0.000249053
-0.000243792
0.000114308
0.000113841
0.000238409
-0.000232953
0.00011518
0.000114784
0.000227961
-0.000223284
0.000118281
0.000116449
0.000218563
-0.000214279
0.000123155
0.00012068
0.000210087
-0.0002065
0.000127362
0.000125294
0.000203687
-0.00020116
0.000131492
0.000129345
0.000198638
-0.000195529
0.000137587
0.000134351
0.000191727
-0.000187307
0.000144644
0.000140771
0.000183618
-0.000180386
0.000150146
0.000147246
0.000154395
-0.000439687
0.00028057
-0.000260824
0.000416282
0.000278922
-0.000178454
-0.00014067
0.00025157
7.91392e-05
9.74745e-06
2.82837e-05
-0.000521341
-0.000361255
-0.000180231
-0.000189456
-0.000298947
0.000352101
0.00025874
0.000168158
-0.000164715
-9.69047e-05
-9.16109e-05
-0.000428652
0.000372204
0.000332592
-0.000361472
0.000299794
0.000264124
-0.000203768
-0.000317096
-0.000188506
0.00022542
-9.01279e-05
-0.000179342
-0.000173495
0.00017627
0.000166668
-0.000167779
0.000172222
0.000177372
-0.000149236
1.79724e-05
-0.000190154
-5.46731e-05
7.39953e-05
-0.00018151
-3.57884e-05
-0.000185751
-0.000217021
0.000432094
-0.000478593
-0.000178234
-8.21142e-05
-0.000298659
4.25083e-05
0.000252155
-0.00024326
6.50097e-05
0.000261192
6.48965e-05
6.28454e-05
-5.95227e-05
0.000271408
6.5349e-05
0.000270733
-0.000179307
-6.77753e-05
0.000137341
3.23017e-05
-9.00525e-05
-9.42726e-05
-0.000104794
-0.000176879
0.000175565
-0.000138942
-0.000224922
0.000308254
0.000177115
6.28828e-06
-0.000225484
5.04963e-05
0.000215044
-8.00505e-05
0.000197875
-0.000201643
8.40136e-05
-0.000338047
0.000405826
-0.000153752
8.49254e-05
8.29055e-07
-0.000189841
0.000493249
-0.000488308
-0.000355161
0.00035134
0.000366384
0.000471811
-0.000471433
-0.00036612
0.000436655
-0.000250216
0.00022726
-0.000909703
0.000725117
0.000648452
0.00033996
-0.000511472
-0.000339982
0.00051339
0.000341618
-0.000526539
0.000528007
-0.000121221
-0.000172724
0.000157275
-0.000149326
-0.000348999
0.000377111
0.000416446
-0.000434966
0.000405866
-0.000452545
-0.000292915
0.000349405
0.00036346
-0.000297842
0.000402747
0.000332227
-0.000643025
0.000633268
-0.000123129
0.000129108
-1.70046e-05
-0.000188742
-0.000183118
-5.13217e-05
-0.00014024
-0.000166023
-0.000181385
0.000295056
-0.000312601
-3.4454e-05
-0.000186992
0.000442994
0.000381993
-0.000439473
-0.000384996
-0.000406886
0.000408598
0.000441945
0.000493784
0.000366845
-0.000162438
-0.000156917
-0.000236738
0.000298171
0.000386412
0.000468107
-0.000283646
0.000282712
-0.000348687
-0.000166205
-0.000105279
-6.44367e-06
-0.000282675
0.000146669
-0.000129019
-0.00016238
0.000724037
0.000401629
-0.000172353
0.000179231
0.000162332
0.00016966
-0.00015516
-0.000181955
0.000184486
0.000153487
0.000158595
-0.000186834
0.000189675
0.00014535
0.000149686
-0.000192526
0.000196268
0.000137886
0.00014163
-0.000200258
0.000204672
0.000132329
0.00013562
-0.000209344
0.000214486
0.000126543
0.000129472
-0.000219921
0.000225577
0.000121946
0.000124093
-0.000231336
0.000237106
0.000118192
0.000119989
-0.000242362
0.000246853
0.000114811
0.000116539
-0.000246721
0.000237263
0.000107919
0.000112576
-0.000226209
0.000213306
9.40415e-05
0.000101193
-0.000200474
0.000189389
8.07197e-05
8.70096e-05
-0.000180873
0.000175134
7.15398e-05
7.55388e-05
-0.000171938
0.00017079
6.65907e-05
6.86324e-05
-0.000171349
0.000173437
6.43222e-05
6.52004e-05
-0.000176735
0.000180904
6.36971e-05
6.3873e-05
-0.00018564
0.00019089
6.37666e-05
6.36964e-05
-0.000196809
0.000203426
6.40931e-05
6.38967e-05
-0.000210592
0.000218206
6.46113e-05
6.43489e-05
-0.000226212
0.000234589
6.49699e-05
6.48307e-05
6.50253e-05
-6.0529e-05
6.30036e-05
0.000270972
5.72406e-05
-5.31644e-05
0.000272218
0.000271612
4.81719e-05
-4.2179e-05
0.000273174
0.000272739
3.51434e-05
-2.71449e-05
0.000273835
0.000273533
1.82961e-05
-8.84034e-06
0.00027424
0.000274067
-9.27992e-07
1.07077e-05
0.000274311
0.000274321
-2.01984e-05
2.91065e-05
0.000274022
0.000274213
-3.71686e-05
4.42708e-05
0.000273438
0.000273772
-5.03031e-05
5.53711e-05
0.000272592
0.000273073
0.000272044
-0.000251947
0.000260951
6.7316e-05
0.000243095
-0.000234472
6.75017e-05
6.74693e-05
0.000226142
-0.000218189
6.73742e-05
6.74708e-05
0.000210618
-0.0002035
6.69709e-05
6.71872e-05
0.000196913
-0.000190988
6.66387e-05
6.67737e-05
0.000185693
-0.000180924
6.66395e-05
6.66051e-05
0.000176748
-0.000173443
6.70376e-05
6.67522e-05
0.000171336
-0.00017074
6.86108e-05
6.76134e-05
0.000171873
-0.000175106
7.2295e-05
7.01275e-05
0.000180944
-0.000189688
7.94238e-05
7.53157e-05
0.000201188
-0.000214721
9.11817e-05
8.47189e-05
0.000228678
-0.000241144
0.000105803
9.84118e-05
0.000252593
-0.000251893