/*--------------------------------*- C++ -*----------------------------------*\
| =========                 |                                                 |
| \\      /  F ield         | OpenFOAM: The Open Source CFD Toolbox           |
|  \\    /   O peration     | Version:  2212                                  |
|   \\  /    A nd           | Website:  www.openfoam.com                      |
|    \\/     M anipulation  |                                                 |
\*---------------------------------------------------------------------------*/
FoamFile
{
    version     2.0;
    format      ascii;
    arch        "LSB;label=32;scalar=64";
    class       volScalarField;
    location    "0.062";
    object      epsilon;
}
// * * * * * * * * * * * * * * * * * * * * * * * * * * * * * * * * * * * * * //

dimensions      [0 2 -3 0 0 0 0];

internalField   nonuniform List<scalar> 
44662
(
81703.6
55619.3
55168
56608.7
55946.6
95070.1
72133.2
98758.3
45652
138180
90080.6
39142.8
72686.3
64528.6
34554.5
39991.5
34862.6
43785.2
167198
65725.6
124241
36659.5
90793.4
83161.8
7.00143e+06
112141
74395.1
124429
70174.5
114311
1.85163e+06
154330
1.53327e+06
130847
1.15183e+08
86554.2
51233.5
49678.5
145861
44872.2
45287.6
52859.5
273710
80190.7
118770
123303
193034
99732.6
151794
75045.1
56901.1
216279
71540.8
1.74138e+06
135928
94852.1
66066.2
230399
83181.2
84441.5
87694.1
1.35109e+06
136576
80094.8
121188
89555.7
321531
885122
88602.1
118458
1.85463e+06
244325
196884
90994
120782
47126.1
411386
82838.2
86167.5
323088
104940
122659
47991.6
139815
94496.5
47748.3
124593
78059.8
161197
70897.2
128949
126872
82319.5
287532
122856
158376
171356
128139
117931
54122.8
63561
74631.4
79760.5
276500
73521.8
136482
74308.6
94221.7
48796.5
63048.5
75090.8
46142.2
73461.4
73282.7
159479
75983.2
88252.6
49036.2
1.32242e+06
76966
48029
77196.3
96726.5
77716.2
78220.4
121193
78396.5
79338.2
60881.4
79096.3
80482.7
105049
92697.5
89666.8
80063.5
81622.3
94749
95781.5
81191.8
82694.7
95369
82301.9
170513
189566
83441.1
61022.9
52030.9
52092.4
114833
52628.5
44713.6
57621.1
84919.9
364691
93942.6
108841
46682.7
62904.5
65285.4
68763.1
73739.4
80717.9
90380.8
103586
121406
145145
176252
216249
266438
327754
400288
483079
573786
668915
764199
855286
938452
1.01111e+06
1.07201e+06
1.12108e+06
1.15918e+06
1.18765e+06
1.20801e+06
1.22177e+06
1.23027e+06
1.23467e+06
1.23586e+06
1.23458e+06
1.23139e+06
1.22671e+06
1.22089e+06
1.21417e+06
1.20675e+06
1.19878e+06
1.19038e+06
1.18166e+06
1.17268e+06
1.16351e+06
1.15419e+06
1.14477e+06
1.13529e+06
1.12581e+06
1.11636e+06
1.10691e+06
1.0975e+06
1.08815e+06
1.09694e+06
1.08759e+06
1.10633e+06
1.25328e+06
61322.9
64204.3
62266.8
1.07888e+06
1.06972e+06
1.06916e+06
1.07833e+06
1.12519e+06
1.11575e+06
1.14413e+06
1.13466e+06
1.16283e+06
1.15353e+06
1.18093e+06
1.17198e+06
1.19794e+06
1.18961e+06
1.2131e+06
1.20581e+06
1.22516e+06
1.21962e+06
1.23209e+06
1.22944e+06
1.23057e+06
1.23265e+06
1.2153e+06
1.2251e+06
1.17802e+06
1.20006e+06
1.1078e+06
1.14773e+06
995296
1.05715e+06
840778
922676
660467
752223
482474
569317
332624
402911
222753
272569
150816
182532
107688
126314
83282.6
93676.9
70113.9
75641.6
66208.2
71191
67063.4
85149.8
77033.1
111085
96211.4
156190
130732
228903
188574
336042
277941
478304
403103
646060
560088
818614
733298
971597
898912
1.08805e+06
1.03492e+06
1.16446e+06
1.13101e+06
1.20725e+06
1.18947e+06
1.2261e+06
1.21907e+06
1.22963e+06
1.22935e+06
1.22382e+06
1.22761e+06
1.21243e+06
1.21866e+06
1.19766e+06
1.20536e+06
1.18085e+06
1.18945e+06
1.16285e+06
1.17196e+06
1.14418e+06
1.15357e+06
1.12521e+06
1.13471e+06
1.1063e+06
1.11575e+06
1.08752e+06
1.09688e+06
1.0691e+06
1.07825e+06
1.09512e+06
1.08579e+06
1.10447e+06
1.44596e+06
1.21476e+06
67766.2
64830.7
1.06015e+06
1.06739e+06
1.05836e+06
1.06721e+06
1.06012e+06
1.05825e+06
61015.4
60334.5
1.07654e+06
1.12329e+06
1.11386e+06
1.14217e+06
1.13274e+06
1.16071e+06
1.1515e+06
1.17852e+06
1.16974e+06
1.19494e+06
1.18696e+06
1.20895e+06
1.20234e+06
1.21879e+06
1.21454e+06
1.22162e+06
1.22131e+06
1.21328e+06
1.21919e+06
1.18756e+06
1.20307e+06
1.13628e+06
1.16569e+06
1.0512e+06
1.09832e+06
930292
994928
782560
858803
625552
704001
477012
549313
348806
409892
246844
294359
172675
206365
123456
145285
93059.3
106298
75455
82965.9
70006.8
71972.8
1.06072e+06
77922.7
71982.9
97080.9
86088.9
130240
111576
182590
153779
257155
217026
353675
302818
469691
409403
602639
534283
746807
673917
889791
819503
1.01478e+06
955522
1.10926e+06
1.06624e+06
1.1704e+06
1.14382e+06
1.20324e+06
1.18986e+06
1.21588e+06
1.21159e+06
1.21552e+06
1.21696e+06
1.20721e+06
1.21212e+06
1.19412e+06
1.20111e+06
1.17819e+06
1.18642e+06
1.16062e+06
1.16956e+06
1.14216e+06
1.15147e+06
1.12326e+06
1.13274e+06
1.10435e+06
1.11379e+06
1.08558e+06
1.09494e+06
1.07633e+06
62836.1
1.05519e+06
1.0642e+06
1.09181e+06
1.08255e+06
1.1011e+06
1.05134e+06
1.04949e+06
60589.1
61515.9
60232.9
59745.9
1.04637e+06
1.05033e+06
1.04153e+06
59732.1
60647.2
1.07333e+06
1.11984e+06
1.11046e+06
1.13852e+06
1.12921e+06
1.15671e+06
1.1477e+06
1.17384e+06
1.16546e+06
1.18896e+06
1.18173e+06
1.20049e+06
1.19531e+06
1.20576e+06
1.20413e+06
1.20057e+06
1.20479e+06
1.17944e+06
1.19243e+06
1.13568e+06
1.1608e+06
1.06315e+06
1.10332e+06
959943
1.01513e+06
834256
898975
702326
768010
578616
638865
468681
521948
370665
418385
282915
325424
208370
243679
151028
177424
111064
129025
85723.8
96754.7
123941
77490.2
1.05134e+06
1.05192e+06
1.04954e+06
62391.5
66303.7
63969
74449.6
69672.8
90139.6
81099.5
117704
102173
161103
137285
221357
189272
294568
256723
374682
334066
459559
416374
553682
505030
662830
606203
785948
723146
911621
849507
1.02307e+06
970116
1.10754e+06
1.06913e+06
1.16158e+06
1.13821e+06
1.18968e+06
1.17842e+06
1.19921e+06
1.19632e+06
1.19676e+06
1.19915e+06
1.18697e+06
1.19256e+06
1.17285e+06
1.18031e+06
1.15623e+06
1.16476e+06
1.13824e+06
1.14735e+06
1.11959e+06
1.12897e+06
1.10075e+06
1.11017e+06
1.08207e+06
1.09137e+06
1.06378e+06
1.07286e+06
1.04613e+06
1.05486e+06
60097.7
61338.5
61876
1.0593e+06
59927.3
1.03776e+06
1.03299e+06
1.04342e+06
1.03472e+06
1.04094e+06
1.0376e+06
1.03252e+06
59387.7
59457.3
59784.3
1.09586e+06
1.08666e+06
1.07749e+06
60650.6
69351.1
64550.7
1.06837e+06
1.11432e+06
1.10509e+06
1.13256e+06
1.1235e+06
1.15001e+06
1.14143e+06
1.16576e+06
1.15817e+06
1.17835e+06
1.17258e+06
1.18531e+06
1.18275e+06
1.1825e+06
1.18546e+06
1.16399e+06
1.17562e+06
1.1235e+06
1.14684e+06
1.05628e+06
1.09338e+06
961880
1.01228e+06
847299
906275
728422
787246
621261
672676
532765
574696
459458
494739
392064
425617
323211
358004
253446
288071
189799
220351
138499
162336
102546
118578
48937.8
90108
104371
1.04278e+06
1.04093e+06
1.04276e+06
1.04336e+06
1.04094e+06
62209.4
65462
63526.5
72303
68275.2
85647.6
77931.7
109566
96004.2
148200
126883
202414
173493
267273
234063
333342
300719
393698
364395
449666
421796
509983
478598
585046
545147
680724
630265
793848
735720
911443
853173
1.01617e+06
966422
1.09515e+06
1.05931e+06
1.14514e+06
1.12363e+06
1.17041e+06
1.16043e+06
1.17798e+06
1.17598e+06
1.17414e+06
1.17717e+06
1.1634e+06
1.16942e+06
1.14864e+06
1.15639e+06
1.13168e+06
1.14036e+06
1.11358e+06
1.12272e+06
1.09506e+06
1.10434e+06
1.07656e+06
1.08578e+06
1.05844e+06
1.06744e+06
1.0496e+06
60237.6
61333.5
60821
1.05228e+06
1.07916e+06
1.07017e+06
1.08815e+06
1.02627e+06
1.02932e+06
1.02434e+06
77471.4
66074.7
71924.1
59513.6
59222.1
59347.5
59640.6
60018.7
60777.9
62682.6
1.06121e+06
1.10605e+06
1.09713e+06
1.12339e+06
1.11483e+06
1.13936e+06
1.13163e+06
1.15251e+06
1.14641e+06
1.16051e+06
1.15735e+06
1.15953e+06
1.16146e+06
1.1436e+06
1.15389e+06
1.10543e+06
1.12771e+06
1.04056e+06
1.07644e+06
950169
998185
842196
897682
730267
785654
630597
678075
552374
588650
494860
521389
450499
471674
408781
429983
360210
385777
301213
331896
236785
269128
176109
205167
127836
149982
95808.3
109813
85225.9
1.03442e+06
1.03259e+06
1.03439e+06
1.03499e+06
1.02943e+06
1.03258e+06
1.01813e+06
1.02474e+06
62141.3
64892.4
63262.8
70703.6
67277.1
82177.9
75518.3
103211
91242
137914
118615
188446
161277
250403
218568
313377
282536
366823
341722
407593
388648
440734
424569
475759
457393
522538
497095
589174
553019
678993
631267
787211
731479
900174
844206
1.00049e+06
952890
1.0758e+06
1.04169e+06
1.12298e+06
1.10276e+06
1.14626e+06
1.13719e+06
1.15246e+06
1.15107e+06
1.14771e+06
1.15114e+06
1.13642e+06
1.14267e+06
1.12142e+06
1.12925e+06
1.10447e+06
1.11311e+06
1.08661e+06
1.0956e+06
1.06856e+06
1.07758e+06
1.05076e+06
1.0596e+06
1.03356e+06
1.04207e+06
1.01727e+06
1.02528e+06
60456.3
61408.3
68060.2
63870.6
60148.1
1.03399e+06
1.02548e+06
1.04266e+06
59310.4
1.01035e+06
1.00925e+06
1.00167e+06
1.00772e+06
1.00956e+06
1.00025e+06
75203.9
65419.9
70611.4
59192.6
59344.4
59611.8
59934.1
60297.4
1.06004e+06
1.06872e+06
1.07732e+06
60959.4
61478.5
1.0172e+06
1.05136e+06
1.09415e+06
1.08583e+06
1.10983e+06
1.1022e+06
1.12306e+06
1.11686e+06
1.13154e+06
1.12808e+06
1.13167e+06
1.13294e+06
1.11792e+06
1.12696e+06
1.08281e+06
1.10352e+06
1.02003e+06
1.05502e+06
931064
978371
826445
879857
719741
772479
624645
669943
550937
584847
499778
522765
466112
481185
442118
453448
419253
431103
388874
405496
344697
368680
286775
317151
222298
254764
162966
191231
118665
138617
90694.7
102823
81703.4
1.02134e+06
1.01647e+06
1.02631e+06
1.02452e+06
1.02627e+06
1.02688e+06
1.02143e+06
1.02451e+06
1.01682e+06
62154.1
64510.7
63102.1
69471.4
66548
79364.8
73609.7
97806.9
87234.2
129157
111632
175993
150596
235980
204787
299261
268059
353279
328032
391426
374390
415614
404896
432688
424547
450490
441044
476470
461962
517921
494842
580838
546423
667405
621285
772250
718241
881564
827429
978441
932509
1.05081e+06
1.01809e+06
1.09578e+06
1.07657e+06
1.11755e+06
1.10916e+06
1.1228e+06
1.12183e+06
1.11754e+06
1.12117e+06
1.1061e+06
1.11239e+06
1.09124e+06
1.09897e+06
1.07467e+06
1.08309e+06
1.05744e+06
1.06608e+06
1.04024e+06
1.0488e+06
1.02354e+06
1.0318e+06
1.01549e+06
60707.7
61547.6
62414.4
59754
1.02157e+06
1.01334e+06
1.02993e+06
1.05463e+06
1.04649e+06
1.06257e+06
997683
990403
1.0022e+06
993163
67424.5
63630.6
59254.7
59241.2
59414.5
59660
59941.7
60252.3
60595
61180.4
60692.3
1.00536e+06
1.03826e+06
1.07755e+06
1.07025e+06
1.09031e+06
1.08431e+06
1.09879e+06
1.09527e+06
1.09945e+06
1.10037e+06
1.08705e+06
1.09528e+06
1.05473e+06
1.07385e+06
995624
1.02883e+06
908648
955226
804662
857684
701021
751867
610163
653414
539674
572091
491477
512926
461850
474702
444850
452171
434164
439072
423918
429367
407661
416969
378769
395149
333294
358162
272855
304496
207498
239895
151223
177555
111268
129077
86998.5
97429.3
73946.9
79388.1
65235.7
70238.7
1.01369e+06
1.00893e+06
1.01853e+06
1.0168e+06
1.0185e+06
1.01908e+06
1.0138e+06
1.01679e+06
1.00297e+06
1.00929e+06
983590
994527
62246.3
64256.4
63050
68530.9
66015.3
77106.3
72108
93217.1
83956.3
121284
105484
164737
141020
222301
192094
285843
254134
342567
315856
383035
365057
406646
396710
418537
413644
425115
422115
431921
428162
443798
436906
466307
453372
505196
483339
565746
532524
649697
604941
751472
699047
857535
805027
951294
906876
1.02107e+06
989556
1.06414e+06
1.04578e+06
1.0847e+06
1.07684e+06
1.08933e+06
1.0886e+06
1.08392e+06
1.08758e+06
1.07269e+06
1.07884e+06
1.05834e+06
1.06579e+06
1.04254e+06
1.05054e+06
1.02633e+06
1.03444e+06
1.01041e+06
1.0183e+06
995298
1.00273e+06
981470
988191
60985.5
61739.5
61444
59560.4
1.00569e+06
997882
1.01354e+06
1.03611e+06
1.02883e+06
1.04298e+06
62399.1
59287.7
977300
969794
963980
966783
975203
961025
66202.4
63560.3
59348.7
59530.4
59760.4
60013
60284.6
60581.5
61439.7
60909.3
60213.8
983033
976172
990300
1.02129e+06
1.0549e+06
1.04931e+06
1.06284e+06
1.05951e+06
1.06356e+06
1.06437e+06
1.052e+06
1.0597e+06
1.02159e+06
1.03958e+06
966111
997272
883398
927969
781107
833714
677748
728317
589680
631247
522609
553415
476791
497151
449210
461020
434875
440696
428704
431116
426311
427236
424046
425406
417615
421661
401661
411201
370613
388320
321356
348249
257970
290683
193774
224953
141415
165599
105760
121513
85040.7
93822
74098.8
78785.9
64237.4
67449.6
70358.1
995249
986504
1.0064e+06
1.00177e+06
1.01113e+06
1.00944e+06
1.01111e+06
1.01166e+06
1.00655e+06
1.00945e+06
996057
1.00217e+06
987874
61702
62404.6
61287.3
61972.2
64132.4
63091.3
67833.9
65661.1
75304.1
70944.3
89414.8
81296.8
114422
100252
154275
132341
209205
180081
272483
240583
331593
303350
375838
355992
402018
391058
413995
409415
417570
416493
417579
417775
417592
417378
420615
418571
430137
424276
450845
438786
487948
467000
546418
514291
627786
584385
726553
675671
829386
778501
920105
877160
987390
957040
1.02872e+06
1.01114e+06
1.04827e+06
1.04082e+06
1.05253e+06
1.05191e+06
1.04728e+06
1.0508e+06
1.0366e+06
1.04243e+06
1.02312e+06
1.03009e+06
1.00849e+06
1.01587e+06
993746
1.00108e+06
979636
986573
973014
60822.6
59500.8
985757
978617
992832
952823
947610
969467
955831
61561.4
59384.7
62259.8
59491
65365.4
62971.7
59679.2
59895.5
60126.3
60370.8
60631.9
60920.7
61234.3
62372.3
61607
1.00629e+06
1.01224e+06
1.01743e+06
59958.7
964921
958622
971622
999757
1.0245e+06
1.02161e+06
1.02482e+06
1.02577e+06
1.01369e+06
1.02107e+06
984728
1.00186e+06
931971
961579
853687
895848
755952
806484
653941
704235
566102
607408
501415
530842
458250
477391
432413
443435
419504
424616
415214
416539
415593
414992
418291
416807
420933
419770
420869
421438
414378
418710
396426
407183
361659
381404
308114
337106
243648
276401
181914
211585
133782
155754
102437
116055
84045
92072.8
72905.9
77700
63931.1
66915.1
69408
988764
980342
999532
995056
1.00412e+06
1.00247e+06
1.00413e+06
1.00465e+06
999724
1.00253e+06
989622
995509
971590
981756
943075
958797
64053
63116.3
67346.6
65418.1
73895.4
70072.1
86356.6
79191.8
108543
95939.5
144925
124785
196800
169051
258970
227220
320091
290560
367930
346172
397723
385075
411775
406389
415543
414607
413817
415132
409811
411951
405680
407651
403389
404193
404731
403438
413027
407759
432428
421048
467947
447840
524341
493321
603069
561057
698699
649437
798205
748980
885805
844365
950577
921392
990192
973368
1.00886e+06
1.00175e+06
1.01298e+06
1.01235e+06
1.00814e+06
1.01139e+06
998333
1.00367e+06
986105
992402
973088
979619
960365
966634
948784
954383
939142
943669
60452.5
59532.3
961273
955081
967325
981832
977865
984411
60992.3
59519.5
939302
924144
921185
919134
935316
916139
61533.4
59657.6
62169.8
59846.5
65169.1
62964.9
60052.5
60267.9
60491.1
60727.1
60980.3
61266
62132.8
61613.9
59848.7
932374
927915
942988
937434
948921
972907
984203
985357
973096
980361
945248
961660
894828
923119
820112
860326
727262
775242
629518
677998
542781
583840
478396
507523
437075
455187
413153
423299
401419
406015
398110
398929
399794
398528
404219
401731
409960
407018
415575
412871
419471
417860
419275
420079
411325
416558
390462
402890
351327
373374
294856
324777
230655
262884
172115
199922
128236
148079
99709.8
112378
81933.6
89663.7
71913
76150.9
63959.3
66724.6
68880.1
964350
951298
982814
974754
993132
988840
997549
995960
997577
998063
993384
996054
983750
989363
966543
976246
954328
62028.3
62777.5
63779.3
63180.3
66766.9
64910.9
72764.9
69295.5
83897.1
77501.1
103729
92470
136692
118283
185241
159109
245740
214504
307816
277433
359083
335455
392615
378171
409476
402846
414674
413195
413104
414488
408102
410884
401666
404970
395091
398329
389489
392076
386122
387467
386600
385706
394053
389229
412364
401571
446351
427079
500615
470741
576546
536016
668852
621300
764842
717375
849180
809313
911334
883357
949231
933145
967119
960288
971256
970530
967098
969935
958498
963171
947961
953354
937125
942500
927179
931976
922857
60251
59622.7
931717
926841
936203
943388
942441
942154
901771
899749
932309
914002
60672.6
59680.6
61139.4
59837.1
61683.2
60025.6
62341.1
60223.2
65185.3
63139
60425.5
60633.3
60850.4
61084.5
61344.4
62526.5
61649.4
62005.9
63159.5
62409.5
62924.8
59840.9
908177
904622
916918
912318
921827
939839
931136
938274
904136
920014
855781
882875
784318
822773
695598
741416
602637
648697
519507
559085
456006
484929
414991
432850
392323
401781
381834
385872
379269
379751
381648
380009
386798
383941
393677
390106
401224
397416
408648
405005
414970
412021
418734
417289
417560
418961
407571
413988
383165
397532
340472
364123
282287
312785
219378
250582
164162
190211
123212
141853
96235.5
108130
80192.9
87091.3
71337.5
75088.9
64122.1
66719.5
68643
959946
947535
977478
969828
987268
983194
991478
989958
991533
991980
987592
990107
978516
983810
962255
971433
936404
950680
898670
919154
64195.7
63561.5
66513
65142.3
71652.4
68594.5
81824.9
75960.7
99776.6
89607.2
129670
112948
174808
150337
233128
202747
295446
264611
349306
324128
386453
370177
406402
398366
413536
411230
412877
413919
407990
410802
400981
404658
393067
397082
385031
389023
377512
381164
371329
374185
367384
369020
367383
366728
374207
369737
391511
381276
423958
405532
475991
447327
548960
509994
637739
592001
729997
684392
810880
772676
870295
843573
906454
891106
923633
917032
927976
927041
924788
927053
917817
921597
909546
913726
901685
905475
895557
898328
892356
893519
60177.6
59752.6
893343
896378
60540.1
59856.1
898667
874702
875719
867122
892208
868016
60941.7
60024
61405.4
60209.5
61952
60399.9
62608.5
60592.2
65343.6
63408.5
60789.4
60995.9
61213.2
61451.1
47142.5
76769.7
61721.8
62040.2
62405.3
65941.1
220330
898598
62835
895016
59901
875730
874742
879996
877525
886366
882991
889913
898635
899597
862219
888188
877470
815795
841797
747339
784149
662485
706296
573730
617676
494771
532326
434060
461868
393681
411383
371201
380509
361425
365079
359556
359733
362400
360531
367898
364895
375170
371362
383421
379217
392054
387718
400583
396366
408393
404622
414581
411759
417694
416642
415234
417383
402845
410626
375112
391169
329550
354471
270614
301165
209324
239477
156572
181379
118044
135386
93440.9
104210
79019.4
85221
71055.8
74424.2
64389.6
66847.5
68614.1
930254
912863
956370
944662
972846
965666
982018
978203
985971
984539
986055
986455
982433
984751
974017
978933
958835
967417
934512
947968
918171
66752
65441.2
71193.3
68607
80040.1
74891.7
96328.2
87028.2
123702
108403
165635
142747
221332
192111
283109
252193
338951
312554
379339
361368
402362
392886
411685
408412
412292
412800
407984
410577
401068
404753
392829
397059
384011
388460
375090
379536
366485
370723
358655
362443
352270
355235
348091
349830
347796
347308
354084
349924
370427
360735
401310
383753
451015
423617
520865
483553
605913
562098
694221
650586
771454
735003
828020
802600
862415
847802
878987
872549
883778
882497
881960
883432
877204
879772
872006
874533
868174
869828
867220
60199
59907.8
847029
849063
83311.1
893205
870016
60519.1
60040.7
60872.6
60213
61272.4
60394.8
61737.1
60578.6
62286.1
60764.4
62947
60955.6
65580
63754.7
61151.8
61357.2
61578.2
61826.9
62110.9
62447.9
62862.7
63450.2
66974.7
64243.5
65893.3
60010.2
845812
845975
847558
846399
850930
849129
853903
852644
853332
854364
843966
850162
819711
834094
775492
800290
710020
745242
628854
670744
544109
586054
468940
504649
411471
437772
373023
389995
350890
360143
341135
344733
339504
339546
342696
340686
348389
345317
355728
351883
364152
359834
373192
368621
382470
377821
391670
387101
400388
396122
408046
404398
413776
411224
416109
415497
412143
415166
397181
406358
366496
384014
318783
344605
259506
289964
199579
228883
149286
172771
113797
129682
91404.9
101200
78245.7
83910.8
70895.1
74009.4
68991.5
67971.2
68577.2
68455.3
65670.9
70308.7
929289
912854
953750
942818
969027
962386
977471
973964
981110
979789
981231
981571
977993
980073
970356
974828
956406
964314
933753
946325
899856
918370
852158
877891
71138.9
68697.9
79101.3
74491.6
93713.7
85391.7
118581
104574
157496
136094
210583
182563
271330
240675
328304
301035
371424
351985
397392
386473
409001
404697
411057
410936
407566
409815
401040
404574
392888
397108
383895
388464
374540
379245
365102
369810
355889
360451
347179
351454
339347
343116
332996
335962
328741
330519
328277
327900
334101
330221
349512
340356
378807
362139
426099
400016
492684
457105
573806
532016
657957
616396
731368
696751
784977
760898
817639
803729
833796
827404
839416
837573
839553
839912
837823
838745
836743
837078
838053
837009
842973
840010
64587.7
60282
60078.7
60571.8
60228.3
856327
822371
827146
811790
846986
816474
60886.8
60401.3
61239.3
60578.1
61643.2
60757.1
62114.4
60939.8
62676.2
61124
63358.2
61313.1
61508.8
47577.5
61719.4
67767.2
61953.2
62222.4
62935.2
63482.2
64380.4
63559.2
64244.2
62536.9
64178.2
65552.8
65186.6
60150.4
815424
818457
811825
813246
810564
810972
810025
810342
807448
809218
798300
804067
776240
789320
735061
758308
672881
706427
595362
635391
514522
554505
442991
476955
388528
413409
352348
368285
331380
340221
321667
325342
319859
319962
323006
320970
328778
325676
336064
332256
344395
340133
353426
348837
362885
358116
372519
367697
382112
377333
391376
386805
399917
395766
407217
403764
412459
410167
413889
413814
408154
412178
390749
401212
357532
376279
308139
334625
248810
279085
190542
218828
143293
165076
110578
125219
89862.6
98951.7
77399.2
82829.3
70468.1
73233.8
71676.5
895457
873205
929559
914115
952227
942148
966145
960122
973735
970593
976995
975807
977158
977426
974379
976174
967659
971612
955111
962258
934266
945895
902336
919872
881282
66828.8
66045.4
70817
68363.4
78513.1
74111.9
91985.3
84327.9
114747
101953
150426
130712
200737
173910
260065
229878
317599
289790
362946
342245
391604
379360
405469
400116
409079
408270
406545
408377
400572
403870
392705
396808
383806
388347
374365
379133
364708
369557
354991
359837
345468
350195
336317
340834
327760
331944
320139
323815
313899
316813
309721
311475
309163
308864
314568
310948
329068
320442
356751
340989
401559
376834
464747
430974
541768
502092
621570
582177
691009
658289
741634
718891
772710
759404
788811
782257
795841
793117
798735
797556
801005
799776
804925
802659
807943
60403.3
60257.5
64739.5
788343
793538
852032
821929
60669.9
60415.8
60957.9
60586.9
61276.4
60760.3
61635.2
60935.3
62051.9
61113.2
64947.5
64181.5
62540.2
61292.6
63130
61476.2
63827.7
61666.2
63638.6
64317.2
61870.2
63224.8
71351.4
62095.4
300260
62356
62661
64810.2
66357
65900.7
60309.8
779753
783729
773515
776385
768653
771009
762883
766065
752464
758555
731660
743800
693915
715229
636010
667412
562513
600562
485482
523563
417518
449752
365939
389487
331831
346825
312262
320488
303120
306624
301119
301390
303870
302034
309443
306402
316588
312866
324715
320548
333520
329045
342825
338122
352452
347608
362252
357339
372059
367173
381621
376878
390678
386240
398914
394928
405893
402594
410600
408630
410860
411467
403320
408323
383680
395290
348306
368074
297694
324628
238834
268632
182735
209766
138625
158914
108101
121783
88562.5
97166
77344.6
82023.5
74225.3
899049
877617
931207
916763
951959
942807
964346
959027
970937
968225
973739
972714
973951
974133
971719
973178
966073
969423
955102
961403
936190
946826
906177
922788
861531
885906
799188
832693
67927.5
67018.8
70976.1
69163.1
77817.5
73783.8
90701.9
83400
111893
100011
144941
126726
192081
166762
249472
220034
307018
278953
354040
332341
385101
371627
401128
394759
406329
404796
404844
406212
399527
402535
392069
395993
383397
387842
374059
378787
364393
369266
354549
359472
344747
349634
335118
339903
325787
330407
316902
321279
308648
312686
301342
304854
295330
298140
291306
292998
290703
290460
295723
292345
309331
301229
335391
320546
377652
354324
437328
405426
510085
472609
585390
548233
650801
619990
698559
677069
728387
715488
744999
737971
754204
750197
760676
757546
767552
763943
776280
771637
787113
781471
60548.3
60439.4
60798.9
60600.8
805120
761100
766619
747676
793041
753273
61067.4
60769.4
61362.1
60939.7
65621.8
64791.1
61691.5
61109.9
64220.6
62067.9
61283.7
62502.1
61459.9
63012.1
61640.3
63740.9
63496.2
61829.8
63342
64104
62030
63030.5
114391
114588
62250.7
62503.9
62791.1
65473
67100.8
66624.6
60479.4
750072
755532
739928
744849
730735
735239
721302
726224
708417
715541
687382
699259
652227
671932
598938
627859
530393
566044
457445
493609
392914
423493
344154
366388
312020
326139
293670
301362
285228
288442
283388
283650
285771
284164
290819
288021
297588
294036
305431
301403
313927
309613
322911
318364
332279
327554
341921
337073
351734
346813
361599
356668
371345
366505
380663
376066
389440
385140
397440
393555
404102
401005
408021
406522
406984
408301
397721
403630
376092
388708
338990
359537
287745
314800
229933
258991
176463
201962
135032
154106
106227
119137
88493.4
96130.2
78646.3
82869.5
72790.8
75356.9
69438.5
70838.3
858023
828017
904020
883228
934366
920890
953115
944953
963798
959272
969228
967021
971481
970654
971749
971829
970168
971225
965765
968421
956549
961919
939648
949272
911396
927198
867666
891719
838856
68838.6
67818.2
72103.7
70234.9
78061.6
74607
89514.7
82921.9
109711
98384.9
140722
123691
184752
161066
240072
211540
296906
268976
344954
322583
377975
363460
396020
388676
402802
400545
402420
403288
397847
400522
390875
394581
382529
386826
373391
378032
363841
368665
354027
358949
344169
349095
334391
339263
324788
329562
315451
320081
306475
310912
297982
302160
290129
293961
283205
286530
277513
280177
273697
275304
273091
272885
277762
274609
290503
282914
314936
301014
354605
332702
410677
380694
479073
443843
549841
514927
611331
582353
656534
636112
685650
672860
703469
695609
715472
709904
725786
720646
736434
731031
742014
60707.8
60621.6
718897
723953
73531.3
70318.1
799050
758630
60946.9
60783.2
66334.8
65447.2
61202.8
60948.4
64828.1
61481.5
61114.1
64304.2
61791.1
61280.8
62139.2
61451.2
62533.8
61625.1
63865.5
62960
61805.9
63489.4
63432.2
61995.2
63177.2
63997.6
62195.9
323256
62415.7
62662.3
62896.9
66511.2
71286.4
60654.4
707816
713479
695938
701969
683326
689779
667825
676154
645417
657780
611385
630129
561935
588654
498705
531628
430561
464449
369590
398549
323489
344495
293251
306523
276017
283244
268129
271119
266497
266692
268740
267248
273297
270801
279433
276192
286803
282994
294923
290792
303507
299162
312476
307946
321771
317087
331320
326518
341047
336166
350863
345951
360623
355762
370126
365425
379157
374700
387753
383514
395571
391808
401659
398904
404620
403642
402304
404295
391470
398198
368158
381602
329815
350876
278538
305414
222247
250373
171547
195621
132394
150390
105874
117636
89499.9
96682.7
79422.5
83839.7
76041.5
864806
834541
910350
889948
939145
926549
955873
948736
964689
961047
968786
967166
970389
969798
970720
970679
969903
970491
966922
968792
959623
963991
944734
953374
917962
933132
874567
898618
811115
845434
728527
771893
75656.2
73830.2
66917.6
67069.2
66181.6
67883.3
67386.1
69671.9
68621.5
73105.9
71131.2
79184.7
75733.4
89770.5
83743.3
107979
97694.2
137445
121205
179113
156820
231620
204210
287477
259864
335903
313179
370410
355083
390222
382004
398519
395552
399263
399618
395485
397798
389077
392527
381123
385244
372263
376776
362908
367640
353214
358086
343411
348317
333629
338511
323960
328775
314476
319190
305246
309825
296334
300746
287817
292021
279794
283737
272412
276010
265931
269041
260616
263104
257059
258556
256501
256307
260858
257916
272764
265671
295585
282581
332664
312187
385129
357069
449185
416183
515535
482789
573395
546078
616545
596916
645557
632575
665008
656151
679597
672677
692456
686152
704101
698448
714071
709341
68610
66154.3
60875.5
60802.3
65490
61107.4
60961.6
732548
682253
685671
666632
718180
670187
64917.3
61355
61122.6
64432
61624.2
61283.2
61920.3
61447.7
62249.6
61615.9
64016.9
62611
61789
63649.8
63009.6
61969.8
63334.9
63461.6
62160.8
63985.2
62363.9
299329
62585.4
63063.3
62811.4
65336.1
66227.3
69325.6
67310.9
68046.7
66937.7
66200.2
68640.6
86368.8
60831.1
673449
678189
661990
668048
648130
655339
630967
640138
607394
620228
573322
591908
526268
551457
467749
498125
404808
436180
347834
374953
304349
324170
275808
288323
259589
266385
252162
254980
250601
250805
252692
251294
256923
254609
262478
259563
269150
265674
276722
272850
284851
280732
293353
289060
302186
297730
311315
306716
320693
315976
330260
325457
339946
335094
349638
344798
359146
354425
368349
363794
377233
372805
385722
381573
393090
389593
398430
396085
400414
399948
396914
399528
384688
392129
360034
374116
320985
342279
270255
296684
215899
242866
167914
190693
131389
148097
106437
117627
90183.3
97397
80220.7
84537.4
74495.2
76968.2
72646.8
804916
763569
872163
841263
917952
897615
945610
933729
960402
954285
967230
964549
969822
968872
970666
970354
971065
970886
971135
971181
969754
970746
964484
967812
951502
959248
925773
940574
882011
906432
816955
852180
776770
70519.9
69420.7
74045.5
72020.6
80239.8
76717.5
90794.9
84854.2
108068
98409.3
135161
120215
174539
153349
224575
198532
278712
251742
327077
304192
362588
346686
383824
374873
393512
389875
395376
395209
392431
394360
386633
389802
379138
383049
370620
374975
361518
366127
352011
356800
342336
347184
332631
337480
322995
327800
313499
318226
304203
308823
295157
299646
286408
290742
278008
282161
270018
273957
262525
266203
255664
259004
249676
252547
244783
247066
241552
242905
241102
240888
245192
242437
256311
249690
277608
265478
312190
293090
361156
334959
421039
390171
483276
452522
537985
512071
579600
560518
608726
595507
629236
619802
644722
637423
657220
651336
662313
65583.2
61047.4
60980.1
87009.9
634613
637829
721641
673067
65052.5
61274.8
61135.6
64592.3
61518.1
61291.7
61781.7
61448.3
62070.2
61611.1
64184.7
62386.5
61777.3
63826.3
62733.5
61949.8
63516.7
63117.2
62132.2
63550.2
62325.2
64043
62531.8
63237.5
62749.3
64615.3
65285
62983
66080.1
67032.3
67942.9
69572.4
69231.3
158004
65356.4
68191.7
67923.7
67020.6
66310.6
65725.6
61007.6
625854
630670
613502
620126
596815
605835
573277
586095
539652
557920
493932
518278
438597
467135
380388
409342
327788
352927
287077
305703
260081
271939
244676
251127
237605
240292
236001
236271
237798
236568
241627
239515
246733
244069
252765
249637
259609
256087
267134
263298
275118
271082
283430
279237
292045
287701
300945
296461
310093
305490
319444
314746
328941
324179
338483
333714
347902
343219
357121
352539
366168
361654
375012
370643