/*--------------------------------*- C++ -*----------------------------------*\
| =========                 |                                                 |
| \\      /  F ield         | OpenFOAM: The Open Source CFD Toolbox           |
|  \\    /   O peration     | Version:  2212                                  |
|   \\  /    A nd           | Website:  www.openfoam.com                      |
|    \\/     M anipulation  |                                                 |
\*---------------------------------------------------------------------------*/
FoamFile
{
    version     2.0;
    format      ascii;
    arch        "LSB;label=32;scalar=64";
    class       volScalarField;
    location    "0.264";
    object      nut;
}
// * * * * * * * * * * * * * * * * * * * * * * * * * * * * * * * * * * * * * //

dimensions      [0 2 -1 0 0 0 0];

internalField   nonuniform List<scalar> 
24240
(
0
0
0
0
0
0
0
0
0
0
0
0
0
0
0
0
0
0
0
0
0
0
0
0
0
0
0
0
0
0
0
0
0
0
0
0
0
0
0
0
0
0
0
0
0
0
0
0
0
0
0
0
0
0
0
0
0
0
0
0
0
0
0
0
0
0
0
0
0
0
0
0
0
0
0
0
0
0
0
0
0
0
0
0
0
0
0
0
0
0
0
0
0
0
0
0
0
0
0
0
0
0
0
0
0
0
0
0
0
0
0
0
0
0
0
0
0
0
0
0
0
0
0
0
0
0
0
0
0
0
0
0
0
0
0
0
0
0
0
0
0
0
0
0
0
0
0
0
0
0
0
0
0
0
0
0
0
0
0
0
0
0
0
0
0
0
0
0
0
0
0
0
0
0
0
0
0
0
0
0
0
0
0
0
0
0
0
0
0
0
0
0
0
0
0
0
0
0
0
0
0
0
0
0
0
0
0
0
0
0
0
0
0
0
0
0
0
0
0
0
0
0
0
0
0
0
0
0
0
0
0
0
0
0
0
0
0
0
0
0
0
0
0
0
0
0
0
0
0
0
0
0
0
0
0
0
0
0
0
0
0
0
0
0
0
0
0
0
0
0
0
0
0
0
0
0
0
0
0
0
0
0
0
0
0
0
0
0
0
0
0
0
0
0
0
0
0
0
0
0
0
0
0
0
0
0
0
0
0
0
0
0
0
0
0
0
0
0
0
0
0
0
0
0
0
0
0
0
0
0
0
0
0
0
0
0
0
0
0
0
0
0
0
0
0
0
0
0
0
0
0
0
0
0
0
0
0
0
0
0
0
0
0
0
0
0
0
0
0
0
0
0
0
0
0
0
0
0
0
0
0
0
0
0
0
0
0
0
0
0
0
0
0
0
0
0
0
0
0
0
0
0
0
0
0
0
0
0
0
0
0
0
0
0
0
0
0
0
0
0
0
0
0
0
0
0
0
0
0
0
0
0
0
0
0
0
0
0
0
0
0
0
0
0
0
0
0
0
0
0
0
0
0
0
0
0
0
0
0
0
0
0
0
0
0
0
0
0
0
0
0
0
0
0
0
0
0
0
0
0
0
0
0
0
0
0
0
0
0
0
0
0
0
0
0
0
0
0
0
0
0
0
0
0
0
0
0
0
0
0
0
0
0
0
0
0
0
0
0
0
0
0
0
0
0
0
0
0
0
0
0
0
0
0
0
0
0
0
0
0
0
0
0
0
0
0
0
0
0
0
0
0
0
0
0
0
0
0
0
0
0
0
0
0
0
0
0
0
0
0
0
0
0
0
0
0
0
0
0
0
0
0
0
0
0
0
0
0
0
0
0
0
0
0
0
0
0
0
0
0
0
0
0
0
0
0
0
0
0
0
0
0
0
0
0
0
0
0
0
0
0
0
0
0
0
0
0
0
0
0
0
0
0
0
0
0
0
0
0
0
0
0
0
0
0
0
0
0
0
0
0
0
0
0
0
0
0
0
0
0
0
0
0
0
0
0
0
0
0
0
0
0
0
0
0
0
0
0
0
0
0
0
0
0
0
0
0
0
0
0
0
0
0
0
0
0
0
0
0
0
0
0
0
0
0
0
0
0
0
0
0
0
0
0
0
0
0
0
0
0
0
0
0
0
0
0
0
0
0
0
0
0
0
0
0
0
0
0
0
0
0
0
0
0
0
0
0
0
0
0
0
0
0
0
0
0
0
0
0
0
0
0
0
0
0
0
0
0
0
0
0
0
0
0
0
0
0
0
0
0
0
0
0
0
0
0
0
0
0
0
0
0
0
0
0
0
0
0
0
0
0
3.49414e-07
4.9981e-07
4.9941e-07
4.99581e-07
4.99778e-07
5e-07
5.00238e-07
5.00486e-07
5.00736e-07
5.00982e-07
5.01218e-07
5.01439e-07
5.01642e-07
5.01824e-07
5.01983e-07
5.02111e-07
5.02748e-07
3.51866e-07
0
0
0
9.03473e-09
1.2536e-08
9.98689e-09
9.99039e-09
9.99451e-09
9.99904e-09
1.00039e-08
1.0009e-08
1.00141e-08
1.00193e-08
1.00243e-08
1.00292e-08
1.00337e-08
1.00378e-08
1.26006e-08
9.09395e-09
0
0
0
0
0
0
0
0
0
0
0
0
0
0
0
0
0
0
0
0
0
0
0
0
0
2.49196e-06
2.5117e-06
2.51159e-06
2.51147e-06
2.51135e-06
2.51123e-06
2.5111e-06
2.51099e-06
2.51088e-06
2.51078e-06
2.5107e-06
2.51063e-06
2.51057e-06
2.49072e-06
0
0
0
0
0
0
2.46139e-06
2.4829e-06
2.48274e-06
2.48257e-06
2.48238e-06
2.48219e-06
2.482e-06
2.48182e-06
2.48165e-06
2.4815e-06
2.48136e-06
2.48124e-06
2.48114e-06
2.45945e-06
0
0
0
0
0
0
1.63018e-06
1.64524e-06
1.64506e-06
1.64486e-06
1.64464e-06
1.64441e-06
1.64418e-06
1.64395e-06
1.64374e-06
1.64353e-06
1.64335e-06
1.64319e-06
1.64306e-06
1.62776e-06
0
0
0
0
0
0
1.59986e-06
1.61574e-06
1.61554e-06
1.61532e-06
1.61507e-06
1.61482e-06
1.61456e-06
1.61431e-06
1.61406e-06
1.61383e-06
1.61362e-06
1.61343e-06
1.61327e-06
1.59712e-06
0
0
0
0
0
0
8.54907e-07
8.63615e-07
8.6347e-07
8.63307e-07
8.63131e-07
8.62946e-07
8.62758e-07
8.62571e-07
8.62389e-07
8.62217e-07
8.62058e-07
8.61914e-07
8.61788e-07
8.52874e-07
0
0
0
0
0
0
7.66589e-07
7.74403e-07
7.74261e-07
7.74102e-07
7.7393e-07
7.73749e-07
7.73565e-07
7.73383e-07
7.73205e-07
7.73036e-07
7.72879e-07
7.72737e-07
7.72611e-07
7.64593e-07
0
0
0
0
0
0
7.42837e-07
7.50371e-07
7.50232e-07
7.50076e-07
7.49906e-07
7.49729e-07
7.49547e-07
7.49366e-07
7.4919e-07
7.49023e-07
7.48867e-07
7.48725e-07
7.48601e-07
7.40864e-07
0
0
0
0
0
0
5.59898e-07
5.65359e-07
5.65229e-07
5.65084e-07
5.64927e-07
5.64763e-07
5.64596e-07
5.6443e-07
5.6427e-07
5.64119e-07
5.6398e-07
5.63854e-07
5.63745e-07
5.58103e-07
0
0
0
0
0
0
1.17974e-06
1.19068e-06
1.19051e-06
1.19032e-06
1.19012e-06
1.18991e-06
1.18969e-06
1.18948e-06
1.18927e-06
1.18907e-06
1.18889e-06
1.18873e-06
1.18859e-06
1.17743e-06
0
0
0
0
0
0
9.52226e-07
9.60354e-07
9.60202e-07
9.60031e-07
9.59848e-07
9.59657e-07
9.59465e-07
9.59276e-07
9.59096e-07
9.58928e-07
9.58776e-07
9.58643e-07
9.58531e-07
9.50203e-07
0
0
0
0
0
0
2.35607e-06
2.37447e-06
2.37428e-06
2.37408e-06
2.37385e-06
2.37362e-06
2.37339e-06
2.37316e-06
2.37295e-06
2.37275e-06
2.37257e-06
2.37242e-06
2.37229e-06
2.35365e-06
0
0
0
0
0
0
2.35672e-06
2.37334e-06
2.37317e-06
2.37297e-06
2.37276e-06
2.37254e-06
2.37233e-06
2.37212e-06
2.37193e-06
2.37176e-06
2.37161e-06
2.37148e-06
2.37138e-06
2.35455e-06
0
0
0
0
0
0
4.58612e-06
4.61616e-06
4.61617e-06
4.61618e-06
4.61619e-06
4.61621e-06
4.61624e-06
4.61628e-06
4.61633e-06
4.61639e-06
4.61645e-06
4.61653e-06
4.61659e-06
4.58662e-06
0
0
0
0
0
0
5.31558e-06
5.34807e-06
5.34854e-06
5.34864e-06
5.34875e-06
5.34888e-06
5.34901e-06
5.34888e-06
5.3493e-06
5.34946e-06
5.34962e-06
5.34978e-06
5.34954e-06
5.31724e-06
0
0
0
0
0
0
1.5511e-08
1.52612e-08
1.4298e-08
1.43048e-08
1.43122e-08
1.432e-08
1.43278e-08
1.49638e-08
1.43422e-08
1.43491e-08
1.43555e-08
1.43611e-08
1.53391e-08
1.56013e-08
0
0
0
0
0
8.0545e-08
9.25451e-08
8.72842e-08
8.71664e-08
8.71818e-08
8.71985e-08
8.72162e-08
8.72343e-08
8.72933e-08
8.727e-08
8.72869e-08
8.73027e-08
8.7317e-08
8.74608e-08
9.27543e-08
8.07512e-08
0
0
4.04293e-07
2.63744e-06
3.34872e-06
3.34973e-06
3.35028e-06
3.35092e-06
3.35165e-06
3.35244e-06
3.35326e-06
3.35409e-06
3.35492e-06
3.35571e-06
3.35646e-06
3.35714e-06
3.35776e-06
3.3583e-06
3.35874e-06
3.35851e-06
2.64613e-06
4.08036e-07
0
3.74712e-08
9.38649e-08
9.422e-08
9.43055e-08
9.44054e-08
9.45186e-08
9.46404e-08
9.47677e-08
9.48967e-08
9.50244e-08
9.51478e-08
9.52646e-08
9.53728e-08
9.54703e-08
9.55564e-08
9.56275e-08
9.53968e-08
3.86607e-08
0
0
0
0
0
0
0
0
0
0
0
0
0
0
0
0
0
0
0
0
0
0
0
0
0
0
0
0
0
0
0
0
0
0
0
0
0
0
0
0
0
0
0
0
2.24132e-06
2.2594e-06
2.25933e-06
2.25925e-06
2.25917e-06
2.25908e-06
2.25899e-06
2.25891e-06
2.25883e-06
2.25876e-06
2.2587e-06
2.25865e-06
2.2586e-06
2.24044e-06
0
0
0
0
0
0
2.51935e-06
2.54292e-06
2.54279e-06
2.54264e-06
2.54248e-06
2.54232e-06
2.54215e-06
2.54199e-06
2.54183e-06
2.54169e-06
2.54157e-06
2.54146e-06
2.54136e-06
2.51763e-06
0
0
0
0
0
0
1.67629e-06
1.69188e-06
1.69172e-06
1.69154e-06
1.69135e-06
1.69114e-06
1.69094e-06
1.69073e-06
1.69053e-06
1.69035e-06
1.69017e-06
1.69002e-06
1.68989e-06
1.67409e-06
0
0
0
0
0
0
1.76273e-06
1.78067e-06
1.7805e-06
1.7803e-06
1.78009e-06
1.77986e-06
1.77963e-06
1.7794e-06
1.77918e-06
1.77897e-06
1.77877e-06
1.7786e-06
1.77845e-06
1.76026e-06
0
0
0
0
0
0
9.64902e-07
9.74647e-07
9.74518e-07
9.74373e-07
9.74215e-07
9.74049e-07
9.73878e-07
9.73707e-07
9.7354e-07
9.73379e-07
9.73229e-07
9.73091e-07
9.72969e-07
9.63031e-07
0
0
0
0
0
0
9.04931e-07
9.14049e-07
9.1392e-07
9.13775e-07
9.13617e-07
9.13451e-07
9.1328e-07
9.13109e-07
9.12941e-07
9.12779e-07
9.12627e-07
9.12487e-07
9.12362e-07
9.03048e-07
0
0
0
0
0
0
9.10973e-07
9.20055e-07
9.19925e-07
9.19778e-07
9.19618e-07
9.1945e-07
9.19276e-07
9.19101e-07
9.1893e-07
9.18765e-07
9.18609e-07
9.18465e-07
9.18337e-07
9.09055e-07
0
0
0
0
0
0
7.64946e-07
7.72219e-07
7.72098e-07
7.71961e-07
7.71812e-07
7.71654e-07
7.71493e-07
7.71331e-07
7.71173e-07
7.71021e-07
7.70878e-07
7.70747e-07
7.70631e-07
7.63175e-07
0
0
0
0
0
0
1.5522e-06
1.56704e-06
1.56687e-06
1.56668e-06
1.56647e-06
1.56625e-06
1.56602e-06
1.5658e-06
1.56558e-06
1.56537e-06
1.56517e-06
1.56499e-06
1.56483e-06
1.54974e-06
0
0
0
0
0
0
1.35226e-06
1.36376e-06
1.3636e-06
1.36343e-06
1.36324e-06
1.36304e-06
1.36284e-06
1.36264e-06
1.36244e-06
1.36225e-06
1.36208e-06
1.36193e-06
1.3618e-06
1.35007e-06
0
0
0
0
0
0
2.98941e-06
3.01472e-06
3.0145e-06
3.01426e-06
3.014e-06
3.01372e-06
3.01345e-06
3.01317e-06
3.01291e-06
3.01267e-06
3.01244e-06
3.01225e-06
3.01207e-06
2.98647e-06
0
0
0
0
0
0
2.82496e-06
2.84545e-06
2.84526e-06
2.84503e-06
2.8448e-06
2.84455e-06
2.8443e-06
2.84406e-06
2.84382e-06
2.84361e-06
2.84341e-06
2.84324e-06
2.84308e-06
2.82233e-06
0
0
0
0
0
0
5.13738e-06
5.17538e-06
5.17529e-06
5.17518e-06
5.17506e-06
5.17494e-06
5.17482e-06
5.17472e-06
5.17463e-06
5.17457e-06
5.17451e-06
5.17447e-06
5.17443e-06
5.13634e-06
0
0
0
0
0
0
5.19224e-06
5.22558e-06
5.22563e-06
5.22564e-06
5.22565e-06
5.22567e-06
5.2257e-06
5.22569e-06
5.22578e-06
5.22584e-06
5.2259e-06
5.22596e-06
5.22598e-06
5.1927e-06
0
0
0
0
0
0
0
0
0
0
0
0
0
0
0
0
0
0
0
0
0
0
0
0
0
2.4363e-08
3.22864e-08
3.04864e-08
3.049e-08
3.05013e-08
3.05135e-08
3.05263e-08
3.05395e-08
3.05678e-08
3.05654e-08
3.05775e-08
3.05889e-08
3.05992e-08
3.06146e-08
3.24389e-08
2.45151e-08
0
0
0
1.18102e-06
1.60095e-06
1.60322e-06
1.60357e-06
1.60398e-06
1.60446e-06
1.60499e-06
1.60554e-06
1.6061e-06
1.60667e-06
1.60723e-06
1.60776e-06
1.60826e-06
1.60872e-06
1.60914e-06
1.6095e-06
1.60778e-06
1.18702e-06
0
0
1.56955e-07
2.39198e-07
2.38654e-07
2.38732e-07
2.38822e-07
2.38925e-07
2.39036e-07
2.39154e-07
2.39273e-07
2.39392e-07
2.39509e-07
2.3962e-07
2.39724e-07
2.39819e-07
2.39904e-07
2.39974e-07
2.40638e-07
1.58095e-07
0
0
0
1.38147e-08
1.80896e-08
1.73711e-08
1.73773e-08
1.73844e-08
1.7392e-08
1.74001e-08
1.74083e-08
1.74165e-08
1.74245e-08
1.74321e-08
1.74392e-08
1.74457e-08
1.74516e-08
1.81832e-08
1.3911e-08
0
0
0
0
0
0
0
0
0
0
0
0
0
0
0
0
0
0
0
0
0
0
0
0
0
3.84565e-06
3.87817e-06
3.87811e-06
3.87804e-06
3.87797e-06
3.87789e-06
3.87781e-06
3.87773e-06
3.87765e-06
3.87758e-06
3.87752e-06
3.87746e-06
3.87741e-06
3.84482e-06
0
0
0
0
0
0
3.88958e-06
3.92613e-06
3.92602e-06
3.9259e-06
3.92576e-06
3.92561e-06
3.92546e-06
3.92531e-06
3.92517e-06
3.92504e-06
3.92492e-06
3.92481e-06
3.92472e-06
3.88803e-06
0
0
0
0
0
0
2.42955e-06
2.45285e-06
2.45272e-06
2.45257e-06
2.4524e-06
2.45222e-06
2.45204e-06
2.45186e-06
2.45168e-06
2.4515e-06
2.45134e-06
2.4512e-06
2.45107e-06
2.42757e-06
0
0
0
0
0
0
2.3782e-06
2.40209e-06
2.40194e-06
2.40177e-06
2.40158e-06
2.40138e-06
2.40117e-06
2.40096e-06
2.40076e-06
2.40056e-06
2.40037e-06
2.4002e-06
2.40006e-06
2.37594e-06
0
0
0
0
0
0
1.39113e-06
1.40522e-06
1.40509e-06
1.40495e-06
1.40479e-06
1.40463e-06
1.40446e-06
1.40429e-06
1.40411e-06
1.40395e-06
1.40379e-06
1.40364e-06
1.40351e-06
1.38923e-06
0
0
0
0
0
0
1.31687e-06
1.32982e-06
1.32969e-06
1.32954e-06
1.32938e-06
1.3292e-06
1.32902e-06
1.32884e-06
1.32866e-06
1.32848e-06
1.32832e-06
1.32816e-06
1.32801e-06
1.31484e-06
0
0
0
0
0
0
1.32851e-06
1.34148e-06
1.34135e-06
1.34119e-06
1.34103e-06
1.34085e-06
1.34067e-06
1.34048e-06
1.3403e-06
1.34012e-06
1.33994e-06
1.33978e-06
1.33963e-06
1.32643e-06
0
0
0
0
0
0
1.18661e-06
1.19787e-06
1.19774e-06
1.1976e-06
1.19744e-06
1.19727e-06
1.1971e-06
1.19692e-06
1.19675e-06
1.19658e-06
1.19641e-06
1.19626e-06
1.19612e-06
1.18466e-06
0
0
0
0
0
0
2.16629e-06
2.18657e-06
2.18641e-06
2.18622e-06
2.18602e-06
2.1858e-06
2.18558e-06
2.18535e-06
2.18512e-06
2.1849e-06
2.18469e-06
2.1845e-06
2.18432e-06
2.16377e-06
0
0
0
0
0
0
2.08668e-06
2.10501e-06
2.10486e-06
2.10468e-06
2.10448e-06
2.10427e-06
2.10405e-06
2.10384e-06
2.10362e-06
2.10341e-06
2.10321e-06
2.10303e-06
2.10286e-06
2.08427e-06
0
0
0
0
0
0
4.10634e-06
4.14187e-06
4.14167e-06
4.14143e-06
4.14117e-06
4.14089e-06
4.14061e-06
4.14033e-06
4.14006e-06
4.1398e-06
4.13955e-06
4.13933e-06
4.13912e-06
4.10326e-06
0
0
0
0
0
0
4.28393e-06
4.31859e-06
4.3184e-06
4.31818e-06
4.31794e-06
4.31769e-06
4.31743e-06
4.31718e-06
4.31693e-06
4.31669e-06
4.31646e-06
4.31625e-06
4.31606e-06
4.2811e-06
0
0
0
0
0
0
7.8996e-06
7.95978e-06
7.95965e-06
7.9595e-06
7.95933e-06
7.95916e-06
7.95899e-06
7.95883e-06
7.95869e-06
7.95857e-06
7.95846e-06
7.95837e-06
7.95828e-06
7.89793e-06
0
0
0
0
0
0
8.51515e-06
8.57537e-06
8.57547e-06
8.57545e-06
8.57543e-06
8.57541e-06
8.5754e-06
8.57531e-06
8.5754e-06
8.57542e-06
8.57544e-06
8.57547e-06
8.57537e-06
8.51515e-06
0
0
0
0
0
0
0
0
0
0
0
0
0
0
0
0
0
0
0
0
0
0
0
0
0
5.55339e-08
6.56977e-08
6.20229e-08
6.19962e-08
6.20057e-08
6.20161e-08
6.20272e-08
6.20386e-08
6.20749e-08
6.2062e-08
6.20734e-08
6.20843e-08
6.20946e-08
6.21388e-08
6.5836e-08
5.56716e-08
0
0
2.13463e-07
1.65551e-06
2.13501e-06
2.13492e-06
2.13523e-06
2.13559e-06
2.13601e-06
2.13647e-06
2.13697e-06
2.13749e-06
2.13801e-06
2.13854e-06
2.13906e-06
2.13955e-06
2.14003e-06
2.14047e-06
2.14085e-06
2.14149e-06
1.66123e-06
2.15784e-07
0
0
2.70425e-08
2.74317e-08
2.74684e-08
2.75113e-08
2.75608e-08
2.76144e-08
2.76714e-08
2.77298e-08
2.77887e-08
2.78465e-08
2.79024e-08
2.79552e-08
2.80039e-08
2.80481e-08
2.80856e-08
2.77548e-08
0
0
0
0
0
0
0
0
0
0
0
0
0
0
0
0
0
0
0
0
0
0
0
0
0
0
0
0
0
0
0
0
0
0
0
0
0
0
0
0
0
0
0
0
0
3.15941e-06
3.18729e-06
3.18726e-06
3.18722e-06
3.18717e-06
3.18713e-06
3.18708e-06
3.18702e-06
3.18697e-06
3.18692e-06
3.18687e-06
3.18683e-06
3.18679e-06
3.15886e-06
0
0
0
0
0
0
3.34836e-06
3.3811e-06
3.38103e-06
3.38094e-06
3.38083e-06
3.38072e-06
3.38061e-06
3.38049e-06
3.38037e-06
3.38026e-06
3.38016e-06
3.38007e-06
3.37998e-06
3.34712e-06
0
0
0
0
0
0
2.29915e-06
2.32185e-06
2.32175e-06
2.32163e-06
2.3215e-06
2.32135e-06
2.3212e-06
2.32105e-06
2.3209e-06
2.32075e-06
2.32061e-06
2.32048e-06
2.32036e-06
2.29749e-06
0
0
0
0
0
0
2.34909e-06
2.37324e-06
2.37312e-06
2.37297e-06
2.37281e-06
2.37264e-06
2.37246e-06
2.37228e-06
2.3721e-06
2.37192e-06
2.37176e-06
2.3716e-06
2.37146e-06
2.34711e-06
0
0
0
0
0
0
1.45128e-06
1.46619e-06
1.46609e-06
1.46596e-06
1.46583e-06
1.46568e-06
1.46553e-06
1.46538e-06
1.46522e-06
1.46507e-06
1.46492e-06
1.46478e-06
1.46466e-06
1.44956e-06
0
0
0
0
0
0
1.41403e-06
1.42807e-06
1.42795e-06
1.42782e-06
1.42767e-06
1.42752e-06
1.42736e-06
1.42719e-06
1.42702e-06
1.42686e-06
1.4267e-06
1.42655e-06
1.4264e-06
1.41216e-06
0
0
0
0
0
0
1.46626e-06
1.48078e-06
1.48066e-06
1.48053e-06
1.48038e-06
1.48021e-06
1.48004e-06
1.47987e-06
1.47969e-06
1.47952e-06
1.47935e-06
1.47918e-06
1.47903e-06
1.46429e-06
0
0
0
0
0
0
1.35674e-06
1.36983e-06
1.36972e-06
1.36959e-06
1.36945e-06
1.36929e-06
1.36913e-06
1.36897e-06
1.3688e-06
1.36863e-06
1.36847e-06
1.36832e-06
1.36817e-06
1.35487e-06
0
0
0
0
0
0
2.36249e-06
2.38541e-06
2.38527e-06
2.3851e-06
2.38491e-06
2.38471e-06
2.3845e-06
2.38429e-06
2.38407e-06
2.38386e-06
2.38365e-06
2.38345e-06
2.38327e-06
2.36008e-06
0
0
0
0
0
0
2.28357e-06
2.30435e-06
2.30422e-06
2.30407e-06
2.30389e-06
2.30371e-06
2.30352e-06
2.30332e-06
2.30311e-06
2.30291e-06
2.30272e-06
2.30253e-06
2.30235e-06
2.28131e-06
0
0
0
0
0
0
4.1418e-06
4.17986e-06
4.17971e-06
4.17955e-06
4.17937e-06
4.17917e-06
4.17897e-06
4.17876e-06
4.17856e-06
4.17836e-06
4.17817e-06
4.17798e-06
4.17779e-06
4.13947e-06
0
0
0
0
0
0
4.14781e-06
4.18372e-06
4.18359e-06
4.18343e-06
4.18326e-06
4.18308e-06
4.1829e-06
4.18271e-06
4.18252e-06
4.18233e-06
4.18214e-06
4.18196e-06
4.18178e-06
4.14561e-06
0
0
0
0
0
0
6.66608e-06
6.72271e-06
6.72263e-06
6.72251e-06
6.72239e-06
6.72226e-06
6.72213e-06
6.72202e-06
6.72191e-06
6.72181e-06
6.72171e-06
6.72162e-06
6.7215e-06
6.6647e-06
0
0
0
0
0
0
6.93492e-06
6.99045e-06
6.99055e-06
6.99055e-06
6.99054e-06
6.99054e-06
6.99054e-06
6.9905e-06
6.99056e-06
6.99058e-06
6.99059e-06
6.99059e-06
6.99048e-06
6.93492e-06
0
0
0
0
0
0
0
0
0
0
0
0
0
0
0
0
0
0
0
0
0
0
0
0
0
1.84777e-08
2.488e-08
2.34385e-08
2.34319e-08
2.34398e-08
2.34485e-08
2.34579e-08
2.34678e-08
2.34852e-08
2.34884e-08
2.34988e-08
2.35091e-08
2.3519e-08
2.35419e-08
2.50047e-08
1.86019e-08
0
0
0
8.47275e-07
1.19323e-06
1.196e-06
1.19622e-06
1.19647e-06
1.19678e-06
1.19711e-06
1.19748e-06
1.19787e-06
1.19826e-06
1.19867e-06
1.19907e-06
1.19947e-06
1.19985e-06
1.20022e-06
1.20055e-06
1.19821e-06
8.51624e-07
0
0
7.48338e-08
1.30161e-07
1.29744e-07
1.29783e-07
1.29828e-07
1.29879e-07
1.29936e-07
1.29996e-07
1.30059e-07
1.30123e-07
1.30186e-07
1.30248e-07
1.30307e-07
1.30362e-07
1.30413e-07
1.30456e-07
1.30939e-07
7.54225e-08
0
0
0
5.96864e-09
1.00667e-08
9.41245e-09
9.41575e-09
9.41965e-09
9.42389e-09
9.42844e-09
9.43315e-09
9.43796e-09
9.44273e-09
9.44742e-09
9.45191e-09
9.45612e-09
9.46003e-09
1.01238e-08
6.0256e-09
0
0
0
0
0
0
0
0
0
0
0
0
0
0
0
0
0
0
0
0
0
0
0
0
0
3.97657e-06
4.01327e-06
4.01327e-06
4.01326e-06
4.01324e-06
4.01322e-06
4.01319e-06
4.01316e-06
4.01313e-06
4.0131e-06
4.01306e-06
4.01302e-06
4.01298e-06
3.97625e-06
0
0
0
0
0
0
3.95924e-06
3.99933e-06
3.99929e-06
3.99924e-06
3.99918e-06
3.9991e-06
3.99903e-06
3.99895e-06
3.99887e-06
3.99879e-06
3.9987e-06
3.99863e-06
3.99855e-06
3.95837e-06
0
0
0
0
0
0
2.64491e-06
2.67184e-06
2.67179e-06
2.67172e-06
2.67164e-06
2.67155e-06
2.67146e-06
2.67136e-06
2.67126e-06
2.67116e-06
2.67106e-06
2.67096e-06
2.67086e-06
2.64381e-06
0
0
0
0
0
0
2.63494e-06
2.66264e-06
2.66255e-06
2.66244e-06
2.66232e-06
2.66218e-06
2.66204e-06
2.66188e-06
2.66174e-06
2.66158e-06
2.66144e-06
2.6613e-06
2.66118e-06
2.6333e-06
0
0
0
0
0
0
1.6992e-06
1.717e-06
1.7169e-06
1.71679e-06
1.71667e-06
1.71653e-06
1.71639e-06
1.71625e-06
1.7161e-06
1.71595e-06
1.71581e-06
1.71567e-06
1.71553e-06
1.69755e-06
0
0
0
0
0
0
1.65702e-06
1.67363e-06
1.67352e-06
1.6734e-06
1.67326e-06
1.67311e-06
1.67296e-06
1.6728e-06
1.67264e-06
1.67248e-06
1.67232e-06
1.67217e-06
1.67202e-06
1.6552e-06
0
0
0
0
0
0
1.72356e-06
1.74084e-06
1.74073e-06
1.74061e-06
1.74047e-06
1.74032e-06
1.74017e-06
1.74001e-06
1.73984e-06
1.73967e-06
1.7395e-06
1.73934e-06
1.73919e-06
1.7217e-06
0
0
0
0
0
0
1.63861e-06
1.65475e-06
1.65465e-06
1.65454e-06
1.65441e-06
1.65428e-06
1.65414e-06
1.65398e-06
1.65383e-06
1.65367e-06
1.65352e-06
1.65337e-06
1.65322e-06
1.63689e-06
0
0
0
0
0
0
2.71829e-06
2.74522e-06
2.7451e-06
2.74497e-06
2.74482e-06
2.74465e-06
2.74448e-06
2.7443e-06
2.74411e-06
2.74393e-06
2.74374e-06
2.74356e-06
2.74339e-06
2.71623e-06
0
0
0
0
0
0
2.72578e-06
2.75178e-06
2.75167e-06
2.75155e-06
2.75141e-06
2.75125e-06
2.75109e-06
2.75092e-06
2.75075e-06
2.75057e-06
2.7504e-06
2.75022e-06
2.75006e-06
2.72383e-06
0
0
0
0
0
0
4.65696e-06
4.70143e-06
4.70132e-06
4.70119e-06
4.70105e-06
4.7009e-06
4.70074e-06
4.70057e-06
4.7004e-06
4.70023e-06
4.70006e-06
4.69989e-06
4.69972e-06
4.655e-06
0
0
0
0
0
0
4.85334e-06
4.8974e-06
4.8973e-06
4.89717e-06
4.89704e-06
4.89689e-06
4.89674e-06
4.89657e-06
4.89641e-06
4.89624e-06
4.89606e-06
4.89589e-06
4.89571e-06
4.8514e-06
0
0
0
0
0
0
7.94724e-06
8.01932e-06
8.01926e-06
8.01916e-06
8.01905e-06
8.01894e-06
8.01883e-06
8.01872e-06
8.01862e-06
8.01852e-06
8.01842e-06
8.01831e-06
8.01817e-06
7.94591e-06
0
0
0
0
0
0
8.66027e-06
8.73526e-06
8.73515e-06
8.73514e-06
8.73513e-06
8.73512e-06
8.73511e-06
8.73517e-06
8.73511e-06
8.73511e-06
8.73511e-06
8.73509e-06
8.73517e-06
8.66012e-06
0
0
0
0
0
0
0
0
0
0
0
0
0
0
0
0
0
0
0
0
0
0
0
0
0
4.45126e-08
5.29941e-08
5.00128e-08
5.00132e-08
5.00192e-08
5.00258e-08
5.00331e-08
5.00408e-08
5.00578e-08
5.00572e-08
5.00656e-08
5.00742e-08
5.00824e-08
5.0095e-08
5.3093e-08
4.46121e-08
0
0
1.45029e-07
1.28589e-06
1.67397e-06
1.67326e-06
1.67344e-06
1.67365e-06
1.67391e-06
1.67419e-06
1.67451e-06
1.67485e-06
1.6752e-06
1.67557e-06
1.67593e-06
1.6763e-06
1.67666e-06
1.67701e-06
1.67732e-06
1.67843e-06
1.28981e-06
1.46526e-07
0
0
1.64489e-08
1.66046e-08
1.66241e-08
1.66469e-08
1.66733e-08
1.67026e-08
1.6734e-08
1.6767e-08
1.68007e-08
1.68348e-08
1.68682e-08
1.69008e-08
1.69313e-08
1.69595e-08
1.6983e-08
1.68611e-08
0
0
0
0
0
0
0
0
0
0
0
0
0
0
0
0
0
0
0
0
0
0
0
0
0
0
0
0
0
0
0
0
0
0
0
0
0
0
0
0
0
0
0
0
0
3.67867e-06
3.71443e-06
3.71445e-06
3.71445e-06
3.71446e-06
3.71446e-06
3.71446e-06
3.71445e-06
3.71444e-06
3.71443e-06
3.7144e-06
3.71437e-06
3.71433e-06
3.67853e-06
0
0
0
0
0
0
3.76006e-06
3.79967e-06
3.79966e-06
3.79964e-06
3.79961e-06
3.79958e-06
3.79954e-06
3.79949e-06
3.79944e-06
3.79939e-06
3.79932e-06
3.79925e-06
3.79917e-06
3.75947e-06
0
0
0
0
0
0
2.68345e-06
2.71158e-06
2.71156e-06
2.71152e-06
2.71148e-06
2.71142e-06
2.71136e-06
2.7113e-06
2.71123e-06
2.71115e-06
2.71108e-06
2.711e-06
2.71092e-06
2.6827e-06
0
0
0
0
0
0
2.70962e-06
2.73874e-06
2.73868e-06
2.7386e-06
2.73851e-06
2.73841e-06
2.7383e-06
2.73818e-06
2.73806e-06
2.73794e-06
2.73782e-06
2.7377e-06
2.73759e-06
2.70832e-06
0
0
0
0
0
0
1.82796e-06
1.84767e-06
1.84759e-06
1.84748e-06
1.84737e-06
1.84725e-06
1.84712e-06
1.84698e-06
1.84684e-06
1.8467e-06
1.84656e-06
1.84642e-06
1.84629e-06
1.82641e-06
0
0
0
0
0
0
1.80912e-06
1.82766e-06
1.82756e-06
1.82744e-06
1.82731e-06
1.82717e-06
1.82702e-06
1.82687e-06
1.82672e-06
1.82656e-06
1.82641e-06
1.82626e-06
1.82611e-06
1.80737e-06
0
0
0
0
0
0
1.90117e-06
1.92073e-06
1.92063e-06
1.92052e-06
1.9204e-06
1.92026e-06
1.92013e-06
1.91998e-06
1.91983e-06
1.91967e-06
1.91952e-06
1.91937e-06
1.91923e-06
1.89948e-06
0
0
0
0
0
0
1.84237e-06
1.86109e-06
1.861e-06
1.8609e-06
1.8608e-06
1.86068e-06
1.86055e-06
1.86042e-06
1.86028e-06
1.86014e-06
1.86e-06
1.85986e-06
1.85973e-06
1.84084e-06
0
0
0
0
0
0
2.91753e-06
2.94748e-06
2.94738e-06
2.94726e-06
2.94712e-06
2.94698e-06
2.94683e-06
2.94667e-06
2.9465e-06
2.94634e-06
2.94617e-06
2.94601e-06
2.94586e-06
2.91571e-06
0
0
0
0
0
0
2.95024e-06
2.97956e-06
2.97947e-06
2.97936e-06
2.97924e-06
2.97911e-06
2.97897e-06
2.97882e-06
2.97867e-06
2.97851e-06
2.97835e-06
2.97819e-06
2.97804e-06
2.94852e-06
0
0
0
0
0
0
4.7567e-06
4.80431e-06
4.80423e-06
4.80412e-06
4.80401e-06
4.80388e-06
4.80375e-06
4.80361e-06
4.80347e-06
4.80332e-06
4.80317e-06
4.80301e-06
4.80285e-06
4.75502e-06
0
0
0
0
0
0
4.90287e-06
4.95009e-06
4.95003e-06
4.94995e-06
4.94986e-06
4.94976e-06
4.94966e-06
4.94954e-06
4.94942e-06
4.94928e-06
4.94914e-06
4.949e-06
4.94884e-06
4.90142e-06
0
0
0
0
0
0
7.22709e-06
7.29746e-06
7.29749e-06
7.2975e-06
7.29752e-06
7.29754e-06
7.29757e-06
7.29759e-06
7.29761e-06
7.29761e-06
7.29761e-06
7.29758e-06
7.29751e-06
7.22708e-06
0
0
0
0
0
0
7.63127e-06
7.70328e-06
7.70347e-06
7.70356e-06
7.70367e-06
7.70378e-06
7.7039e-06
7.70395e-06
7.70413e-06
7.70422e-06
7.70431e-06
7.70437e-06
7.70429e-06
7.63233e-06
0
0
0
0
0
0
0
0
0
0
0
0
0
0
0
0
0
0
0
0
0
0
0
0
0
1.98162e-08
2.59846e-08
2.44537e-08
2.44439e-08
2.44482e-08
2.44532e-08
2.44587e-08
2.44647e-08
2.44776e-08
2.44779e-08
2.44849e-08
2.44921e-08
2.44993e-08
2.45197e-08
2.60649e-08
1.98963e-08
0
0
0
7.38653e-07
1.04215e-06
1.04437e-06
1.04448e-06
1.04462e-06
1.04478e-06
1.04497e-06
1.04517e-06
1.0454e-06
1.04564e-06
1.0459e-06
1.04616e-06
1.04642e-06
1.04668e-06
1.04693e-06
1.04715e-06
1.04521e-06
7.41295e-07
0
0
1.38254e-08
4.24842e-08
4.23379e-08
4.23536e-08
4.23722e-08
4.23938e-08
4.24179e-08
4.24439e-08
4.24715e-08
4.24998e-08
4.25289e-08
4.25574e-08
4.25854e-08
4.26112e-08
4.26347e-08
4.26533e-08
4.28258e-08
1.40441e-08
0
0
0
0
1.07116e-09
9.74999e-10
9.7676e-10
9.78814e-10
9.81131e-10
9.83603e-10
9.86272e-10
9.8898e-10
9.91795e-10
9.94543e-10
9.9728e-10
9.99785e-10
1.00211e-09
1.10455e-09
0
0
0
0
0
0
0
0
0
0
0
0
0
0
0
0
0
0
0
0
0
0
0
0
0
0
3.96002e-06
3.99962e-06
3.99966e-06
3.99969e-06
3.99972e-06
3.99975e-06
3.99978e-06
3.9998e-06
3.99981e-06
3.99982e-06
3.99981e-06
3.99979e-06
3.99975e-06
3.96014e-06
0
0
0
0
0
0
3.97512e-06
4.01828e-06
4.0183e-06
4.01831e-06
4.01831e-06
4.01831e-06
4.01831e-06
4.0183e-06
4.01828e-06
4.01826e-06
4.01822e-06
4.01817e-06
4.01809e-06
3.97487e-06
0
0
0
0
0
0
2.86268e-06
2.89415e-06
2.89413e-06
2.8941e-06
2.89407e-06
2.89402e-06
2.89397e-06
2.89392e-06
2.89385e-06
2.89379e-06
2.89372e-06
2.89365e-06
2.89358e-06
2.86203e-06
0
0
0
0
0
0
2.88863e-06
2.9208e-06
2.92076e-06
2.92072e-06
2.92066e-06
2.9206e-06
2.92053e-06
2.92045e-06
2.92037e-06
2.92028e-06
2.9202e-06
2.92011e-06
2.92002e-06
2.88776e-06
0
0
0
0
0
0
2.01965e-06
2.04209e-06
2.042e-06
2.0419e-06
2.0418e-06
2.04168e-06
2.04156e-06
2.04143e-06
2.04129e-06
2.04115e-06
2.04102e-06
2.04088e-06
2.04075e-06
2.01815e-06
0
0
0
0
0
0
2.00492e-06
2.026e-06
2.0259e-06
2.02579e-06
2.02566e-06
2.02553e-06
2.0254e-06
2.02526e-06
2.02512e-06
2.02497e-06
2.02483e-06
2.02469e-06
2.02456e-06
2.00328e-06
0
0
0
0
0
0
2.11188e-06
2.13424e-06
2.13416e-06
2.13407e-06
2.13397e-06
2.13387e-06
2.13376e-06
2.13364e-06
2.13352e-06
2.1334e-06
2.13328e-06
2.13316e-06
2.13306e-06
2.11055e-06
0
0
0
0
0
0
2.07611e-06
2.09794e-06
2.09788e-06
2.09781e-06
2.09773e-06
2.09764e-06
2.09755e-06
2.09745e-06
2.09735e-06
2.09725e-06
2.09715e-06
2.09705e-06
2.09696e-06
2.07501e-06
0
0
0
0
0
0
3.1656e-06
3.19931e-06
3.19924e-06
3.19916e-06
3.19907e-06
3.19897e-06
3.19887e-06
3.19877e-06
3.19866e-06
3.19855e-06
3.19844e-06
3.19833e-06
3.19824e-06
3.16439e-06
0
0
0
0
0
0
3.24971e-06
3.28348e-06
3.28342e-06
3.28336e-06
3.28328e-06
3.2832e-06
3.28311e-06
3.28302e-06
3.28292e-06
3.28282e-06
3.28272e-06
3.28262e-06
3.28252e-06
3.24863e-06
0
0
0
0
0
0
5.01545e-06
5.06819e-06
5.06814e-06
5.06808e-06
5.06803e-06
5.06795e-06
5.06788e-06
5.0678e-06
5.06772e-06
5.06763e-06
5.06753e-06
5.06743e-06
5.06732e-06
5.01445e-06
0
0
0
0
0
0
5.24999e-06
5.30334e-06
5.30332e-06
5.30328e-06
5.30325e-06
5.3032e-06
5.30315e-06
5.30309e-06
5.30303e-06
5.30295e-06
5.30287e-06
5.30278e-06
5.30268e-06
5.24922e-06
0
0
0
0
0
0
7.62516e-06
7.70408e-06
7.70416e-06
7.70421e-06
7.70429e-06
7.70436e-06
7.70444e-06
7.70451e-06
7.70459e-06
7.70465e-06
7.70469e-06
7.70471e-06
7.7047e-06
7.62578e-06
0
0
0
0
0
0
8.20345e-06
8.28611e-06
8.28608e-06
8.28619e-06
8.28633e-06
8.28647e-06
8.28663e-06
8.28688e-06
8.28694e-06
8.28708e-06
8.28721e-06
8.28731e-06
8.28752e-06
8.20499e-06
0
0
0
0
0
0
0
0
0
0
0
0
0
0
0
0
0
0
0
0
0
0
0
0
0
3.22511e-08
3.91599e-08
3.68957e-08
3.6895e-08
3.68983e-08
3.6902e-08
3.69062e-08
3.69107e-08
3.69197e-08
3.69209e-08
3.69263e-08
3.6932e-08
3.69375e-08
3.69459e-08
3.92219e-08
3.23134e-08
0
0
5.80281e-08
9.37019e-07
1.26173e-06
1.26214e-06
1.26223e-06
1.26234e-06
1.26247e-06
1.26263e-06
1.26281e-06
1.263e-06
1.2632e-06
1.26342e-06
1.26365e-06
1.26387e-06
1.2641e-06
1.26431e-06
1.2645e-06
1.26432e-06
9.39265e-07
5.87968e-08
0
0
9.7534e-09
9.74717e-09
9.75526e-09
9.76427e-09
9.77519e-09
9.78715e-09
9.80052e-09
9.81463e-09
9.82957e-09
9.84473e-09
9.85995e-09
9.87456e-09
9.88793e-09
9.89944e-09
9.90781e-09
9.92464e-09
0
0
0
0
0
0
0
0
0
0
0
0
0
0
0
0
0
0
0
0
0
0
0
0
0
0
0
0
0
0
0
0
0
0
0
0
0
0
0
0
0
0
0
0
0
3.90383e-06
3.94524e-06
3.94529e-06
3.94533e-06
3.94538e-06
3.94542e-06
3.94546e-06
3.9455e-06
3.94553e-06
3.94555e-06
3.94557e-06
3.94557e-06
3.94556e-06
3.90416e-06
0
0
0
0
0
0
3.95328e-06
3.99771e-06
3.99776e-06
3.9978e-06
3.99784e-06
3.99788e-06
3.99791e-06
3.99794e-06
3.99796e-06
3.99797e-06
3.99797e-06
3.99795e-06
3.9979e-06
3.95344e-06
0
0
0
0
0
0
2.95663e-06
2.99021e-06
2.99021e-06
2.99019e-06
2.99018e-06
2.99015e-06
2.99012e-06
2.99009e-06
2.99005e-06
2.99001e-06
2.98996e-06
2.98991e-06
2.98986e-06
2.95625e-06
0
0
0
0
0
0
3.00122e-06
3.03558e-06
3.03558e-06
3.03556e-06
3.03555e-06
3.03553e-06
3.0355e-06
3.03546e-06
3.03542e-06
3.03538e-06
3.03534e-06
3.03529e-06
3.03525e-06
3.00085e-06
0
0
0
0
0
0
2.1789e-06
2.20391e-06
2.20383e-06
2.20374e-06
2.20364e-06
2.20353e-06
2.20342e-06
2.2033e-06
2.20318e-06
2.20305e-06
2.20293e-06
2.2028e-06
2.20268e-06
2.1775e-06
0
0
0
0
0
0
2.17384e-06
2.19739e-06
2.1973e-06
2.1972e-06
2.1971e-06
2.19699e-06
2.19688e-06
2.19676e-06
2.19665e-06
2.19653e-06
2.19641e-06
2.19629e-06
2.19619e-06
2.17245e-06
0
0
0
0
0
0
2.29866e-06
2.32382e-06
2.32376e-06
2.32369e-06
2.32363e-06
2.32355e-06
2.32348e-06
2.3234e-06
2.32333e-06
2.32325e-06
2.32318e-06
2.32311e-06
2.32306e-06
2.29781e-06
0
0
0
0
0
0
2.28571e-06
2.31068e-06
2.31065e-06
2.3106e-06
2.31056e-06
2.31051e-06
2.31046e-06
2.3104e-06
2.31035e-06
2.31029e-06
2.31025e-06
2.3102e-06
2.31017e-06
2.28513e-06
0
0
0
0
0
0
3.36032e-06
3.39745e-06
3.39741e-06
3.39736e-06
3.39732e-06
3.39727e-06
3.39722e-06
3.39717e-06
3.39712e-06
3.39707e-06
3.39703e-06
3.39699e-06
3.39698e-06
3.35981e-06
0
0
0
0
0
0
3.47757e-06
3.51519e-06
3.51516e-06
3.51512e-06
3.51509e-06
3.51504e-06
3.51501e-06
3.51496e-06
3.51493e-06
3.51489e-06
3.51486e-06
3.51483e-06
3.51482e-06
3.47718e-06
0
0
0
0
0
0
5.12273e-06
5.17965e-06
5.17963e-06
5.17959e-06
5.17956e-06
5.17953e-06
5.1795e-06
5.17946e-06
5.17942e-06
5.17938e-06
5.17934e-06
5.1793e-06
5.17926e-06
5.12228e-06
0
0
0
0
0
0
5.36006e-06
5.41863e-06
5.41863e-06
5.41862e-06
5.41863e-06
5.41862e-06
5.41863e-06
5.41862e-06
5.41862e-06
5.4186e-06
5.41859e-06
5.41858e-06
5.41857e-06
5.35999e-06
0
0
0
0
0
0
7.35776e-06
7.43925e-06
7.43933e-06
7.43939e-06
7.43947e-06
7.43955e-06
7.43966e-06
7.43975e-06
7.43985e-06
7.43993e-06
7.44003e-06
7.44009e-06
7.44016e-06
7.35876e-06
0
0
0
0
0
0
7.79459e-06
7.87987e-06
7.88012e-06
7.88026e-06
7.88044e-06
7.88061e-06
7.88081e-06
7.88092e-06
7.88121e-06
7.8814e-06
7.88159e-06
7.88177e-06
7.88183e-06
7.79677e-06
0
0
0
0
0
0
0
0
0
0
0
0
0
0
0
0
0
0
0
0
0
0
0
0
0
2.33699e-08
2.94185e-08
2.76827e-08
2.76774e-08
2.76802e-08
2.76834e-08
2.7687e-08
2.76909e-08
2.76989e-08
2.76994e-08
2.77039e-08
2.77085e-08
2.7713e-08
2.77238e-08
2.94699e-08
2.34212e-08
0
0
5.9168e-09
7.3157e-07
1.01751e-06
1.01892e-06
1.019e-06
1.01908e-06
1.01918e-06
1.0193e-06
1.01944e-06
1.01959e-06
1.01975e-06
1.01991e-06
1.02008e-06
1.02026e-06
1.02042e-06
1.02058e-06
1.02072e-06
1.01948e-06
7.33266e-07
6.41128e-09
0
0
5.49031e-09
5.431e-09
5.43533e-09
5.43988e-09
5.44602e-09
5.45247e-09
5.46025e-09
5.4682e-09
5.47709e-09
5.48577e-09
5.49473e-09
5.50284e-09
5.51016e-09
5.51592e-09
5.51984e-09
5.58357e-09
0
0
0
0
0
0
0
0
0
0
0
0
0
0
0
0
0
0
0
0
0
0
0
0
0
0
0
0
0
0
0
0
0
0
0
0
0
0
0
0
0
0
0
0
0
3.99342e-06
4.03699e-06
4.03705e-06
4.03711e-06
4.03717e-06
4.03722e-06
4.03728e-06
4.03733e-06
4.03739e-06
4.03743e-06
4.03747e-06
4.03749e-06
4.03751e-06
3.99397e-06
0
0
0
0
0
0
4.03023e-06
4.07685e-06
4.0769e-06
4.07694e-06
4.07699e-06
4.07704e-06
4.07709e-06
4.07713e-06
4.07717e-06
4.0772e-06
4.07722e-06
4.07723e-06
4.07722e-06
4.03063e-06
0
0
0
0
0
0
3.07345e-06
3.10921e-06
3.10922e-06