/*--------------------------------*- C++ -*----------------------------------*\
| =========                 |                                                 |
| \\      /  F ield         | OpenFOAM: The Open Source CFD Toolbox           |
|  \\    /   O peration     | Version:  2212                                  |
|   \\  /    A nd           | Website:  www.openfoam.com                      |
|    \\/     M anipulation  |                                                 |
\*---------------------------------------------------------------------------*/
FoamFile
{
    version     2.0;
    format      ascii;
    arch        "LSB;label=32;scalar=64";
    class       surfaceScalarField;
    location    "0.0322";
    object      phi;
}
// * * * * * * * * * * * * * * * * * * * * * * * * * * * * * * * * * * * * * //

dimensions      [1 0 -1 0 0 0 0];

oriented        oriented;

internalField   nonuniform List<scalar> 
62761
(
2.79182e-05
-0.000231249
1.66538e-05
0.000186677
-1.24151e-05
-0.000172084
0.00017283
1.18262e-05
1.41462e-05
-0.000179215
0.000179043
-1.38219e-05
-0.000175459
0.000177345
-1.05037e-05
-0.000171866
1.04439e-05
1.04871e-05
-0.000179735
-9.81551e-06
-0.000175321
-9.24573e-06
8.42384e-06
-0.000170883
9.45156e-06
-9.30539e-06
-0.000179727
-0.000174958
-0.000290527
-5.71397e-05
6.65942e-05
0.000281072
-7.04874e-05
-0.00013303
9.40157e-05
0.00010961
6.48547e-05
-7.84252e-05
1.35705e-05
0.000252592
-2.50351e-05
-0.000310978
8.34212e-05
0.000174326
-1.49928e-05
-0.000197934
3.86011e-05
0.00022401
-0.000170838
-0.000102845
4.9673e-05
0.000152108
-8.88501e-05
-0.000184968
0.00012171
-0.000208793
0.00020919
-5.20948e-05
5.16975e-05
0.000175232
3.87738e-05
-0.000203524
-1.03182e-05
0.000232671
-6.22639e-06
2.32094e-06
-0.000228765
0.00020208
-0.000151036
-5.96934e-07
-5.03804e-05
1.04094e-05
0.000212803
-2.10468e-05
-1.65869e-06
-0.000301997
0.000303516
1.39876e-07
-0.000221124
0.000293247
8.2736e-05
-0.000154859
0.000152365
-4.57974e-05
-0.000172799
6.63796e-05
-0.000130456
-7.38072e-05
5.32819e-05
-0.000284923
-3.27605e-06
0.000286541
0.00028571
9.91852e-05
-0.000322259
-6.26354e-05
0.000124845
-8.2664e-05
-0.0001126
-0.000107319
0.000125946
8.78758e-05
-0.000106475
0.000274468
3.41625e-05
-2.18168e-05
-0.000286814
3.60626e-06
-2.72383e-05
-3.32367e-06
2.70652e-05
1.82341e-06
-3.46724e-05
3.65563e-05
-8.98561e-05
-0.000192493
0.000211036
7.14947e-05
-1.08702e-05
0.000199722
-0.000185078
-3.67895e-06
0.000189343
-0.00018115
0.000160996
-0.000169189
-0.000145272
-8.29151e-05
0.000106686
0.000121592
0.000322982
0.000102032
-0.000235671
0.000243635
-0.000222361
0.000120783
-0.000142056
2.54809e-05
-5.84212e-05
5.23371e-05
-1.92826e-05
8.71392e-05
-8.44168e-05
-4.84819e-06
2.24397e-06
-0.000169668
1.51955e-05
0.000171161
-1.65297e-05
5.7871e-05
-7.99486e-05
0.000235175
-0.000213098
-0.000158055
0.00015076
0.000138675
-0.000131378
0.000123207
-0.000151174
-0.000125132
0.000153101
-0.000102389
0.000112908
-0.000109593
9.91347e-05
0.000128681
-0.000163528
-0.000200828
0.000111471
-6.34893e-05
0.00015287
-0.000167023
9.804e-05
-7.61783e-05
-0.000296115
7.69894e-05
-4.32936e-05
0.000262419
-3.71502e-05
4.02383e-05
-0.000122679
0.0001197
-0.000370722
-7.27469e-05
0.000141387
0.000302083
0.000102248
9.96912e-05
-0.000133894
-6.79976e-05
-0.000182457
0.000204983
-1.47933e-05
-7.68021e-06
0.000107643
-0.000267619
-0.000140167
0.000300144
-8.30238e-05
-0.000154354
0.000156386
8.11531e-05
0.00010084
-9.4459e-05
0.000115828
-0.000122154
6.98871e-05
-0.000109461
0.000160039
-0.000120443
-0.000241733
-2.32206e-05
3.21376e-05
0.000232506
0.000166655
-0.000160352
-5.22596e-06
-9.14468e-07
-2.19641e-05
-0.000142778
-2.97087e-05
0.000194548
-0.000160877
0.000149514
0.000139004
-0.000127471
0.000154783
-8.96586e-05
-0.00017025
0.000105128
6.02368e-05
0.000177046
-0.000132495
-0.000104592
-8.22958e-05
0.000166495
-0.000167329
8.32173e-05
-2.10353e-05
0.000306881
1.09959e-05
-0.000296842
-0.000146944
0.000172537
5.01453e-05
-7.57383e-05
-0.000242936
-6.84587e-06
7.74091e-06
-0.000239769
6.46399e-06
-9.92286e-06
2.43528e-05
-3.39927e-05
-0.000230389
-0.000141432
-6.09633e-05
0.000152193
5.03518e-05
-0.000237897
-2.4356e-05
3.62438e-05
0.000225774
-0.000240313
-9.42235e-06
1.1621e-05
-0.000241538
-3.89475e-06
4.91703e-06
-0.000241798
-1.921e-06
1.98856e-06
-0.000241312
-1.55124e-06
8.77129e-07
-0.000240457
-1.54066e-06
5.05462e-07
-0.000240029
-1.73196e-06
1.20399e-06
-0.00023938
-2.45022e-06
1.7588e-06
-0.000238927
-2.91552e-06
2.44458e-06
-0.000238357
-3.85879e-06
3.54418e-06
-0.000237574
-4.57417e-06
4.50754e-06
-0.000235057
-5.4699e-06
4.54212e-06
-5.70116e-06
-0.000231791
5.08769e-06
0.000236534
-0.000233008
-6.48503e-06
0.000238084
-5.32372e-06
0.000238822
-4.52842e-06
0.0002392
-3.94846e-06
0.000239634
-3.3617e-06
0.000240167
-3.02298e-06
0.000240792
-2.45348e-06
0.000241417
-2.3436e-06
0.000242026
-2.34922e-06
0.000243075
-3.1627e-06
0.000243289
-4.3089e-06
0.000242463
-8.80659e-06
0.000233113
-1.52171e-05
0.000230243
-2.05061e-06
4.71203e-06
0.000244172
1.01906e-05
0.000246964
3.40156e-06
0.000245716
-5.8823e-06
0.000234217
-1.19953e-05
0.000234026
-6.50437e-07
5.79026e-07
2.79037e-05
0.000244791
-4.00614e-05
-0.000232962
0.000248306
1.33334e-05
1.13245e-05
0.000248449
-1.53186e-05
0.000250702
8.60616e-06
4.83517e-06
0.000249994
-6.72348e-06
0.000251343
3.85857e-06
1.79717e-06
0.00025083
-2.97963e-06
0.000251486
1.31203e-06
8.83994e-07
0.000250984
-1.38695e-06
0.000251357
6.67328e-07
5.07738e-07
0.00025081
-6.85837e-07
0.000251151
3.6467e-07
3.26145e-07
0.00025046
-3.29486e-07
0.000250754
3.73838e-07
3.74482e-08
0.000250068
4.48605e-09
0.000250178
2.64977e-07
5.33008e-08
0.000249501
1.66075e-07
0.000249534
3.52227e-07
1.4944e-07
0.000248708
2.99528e-07
0.000248771
5.70667e-07
8.38808e-08
0.00024788
4.05595e-07
0.000247972
5.45742e-07
1.18189e-07
0.000247003
4.24799e-07
0.000247059
6.97552e-07
1.72087e-07
0.000245987
5.16393e-07
0.000246069
8.3546e-07
1.03353e-07
0.000244953
6.09354e-07
0.000244876
9.75178e-07
2.13016e-07
0.000243815
6.10278e-07
0.000243739
1.03587e-06
3.21298e-07
0.000242554
6.31868e-07
0.000242546
1.20721e-06
3.31976e-07
0.000241262
6.60825e-07
0.000241295
1.28382e-06
3.16978e-07
0.000239948
7.05643e-07
0.000239933
1.38716e-06
3.21982e-07
0.000238602
7.39771e-07
0.000238546
1.42514e-06
3.46351e-07
0.000237203
7.77536e-07
0.000237178
1.43968e-06
3.37573e-07
0.000235787
8.11239e-07
0.00023575
1.49929e-06
3.55635e-07
0.000234335
8.38318e-07
0.00023432
1.52763e-06
3.37125e-07
0.00023288
8.69839e-07
0.000232845
1.56374e-06
3.62301e-07
0.000231445
8.32566e-07
0.000231358
1.60892e-06
4.04932e-07
0.000229982
8.26789e-07
0.000229925
1.60735e-06
4.17198e-07
0.000228492
8.5159e-07
0.000228463
1.65886e-06
4.0606e-07
0.000227045
8.2915e-07
0.000227001
1.65616e-06
4.35198e-07
0.000225582
8.25423e-07
0.00022558
1.6538e-06
4.26225e-07
0.000224145
8.17396e-07
0.000224126
1.68741e-06
4.44739e-07
0.000222732
7.84174e-07
0.000222737
1.65024e-06
4.75068e-07
0.000221341
7.40419e-07
0.000221321
1.71629e-06
5.23329e-07
0.000219953
6.99326e-07
0.000219952
1.72779e-06
5.80365e-07
0.000218601
6.16133e-07
0.000218634
1.74289e-06
-6.43508e-07
1.78808e-06
0.000217343
5.24349e-07
0.000217286
-0.000218587
0.000217261
1.70283e-06
-0.000219948
1.82119e-06
-0.000221335
1.92178e-06
-0.000222748
1.97905e-06
-0.000224171
2.02285e-06
-0.000225609
2.06255e-06
-0.000227054
2.06716e-06
-0.000228523
2.0864e-06
-0.000229966
2.07364e-06
-0.000231456
2.08601e-06
-0.000232954
2.09103e-06
-0.000234379
2.04662e-06
-0.000235833
2.0351e-06
-0.00023725
1.96157e-06
-0.000238639
1.8918e-06
-0.000240036
1.85381e-06
-0.000241384
1.76205e-06
-0.000242651
1.62867e-06
-0.000243865
1.53845e-06
-0.000244976
1.40755e-06
-0.000245987
1.29897e-06
-0.000246972
1.17334e-06
-0.000247939
1.05746e-06
-0.000248785
9.11102e-07
-0.000249476
6.45344e-07
-0.000250113
4.53561e-07
-0.000250454
-6.8078e-09
-0.000250741
-3.97047e-07
-0.000250809
-9.73298e-07
-0.000250548
-2.00591e-06
-0.000250004
-3.87918e-06
-0.000249314
-7.76614e-06
-0.000252493
-1.24959e-05
-0.0002776
-1.53348e-05
-0.000251251
5.42264e-06
-0.000246018
2.17519e-06
-0.000249298
-6.95619e-06
-0.000273403
-1.01871e-05
-0.000247028
9.5883e-06
-0.000243215
7.57477e-06
-0.00024237
3.86125e-06
-0.000241507
9.29845e-07
-0.000240752
-6.59292e-08
-0.000240293
-1.32871e-07
-0.000239663
4.56267e-07
-0.000238929
9.78415e-07
6.63817e-06
-0.000228411
-8.16321e-06
-0.000228347
6.29219e-06
-0.000238752
2.24917e-06
-0.000238508
3.51382e-06
-0.000237048
3.70344e-06
-0.000234564
3.57777e-06
-0.000231092
4.25567e-06
-7.36572e-06
4.49254e-06
-0.000223168
-9.40469e-06
-0.000224158
0.000228085
-0.000223331
-1.20555e-05
0.000232712
-9.72045e-06
0.000236376
-7.26948e-06
0.000238349
-5.46146e-06
0.000239313
-4.63552e-06
0.000239787
-4.10618e-06
0.000240218
-3.78072e-06
0.000240713
-3.54534e-06
0.000241533
-3.36312e-06
0.000242125
-3.1253e-06
0.000242865
-3.2846e-06
0.000243324
-3.81895e-06
0.00024403
-5.2166e-06
0.000242542
-7.53092e-06
0.000236877
-9.77396e-06
0.000238693
-4.09543e-06
0.000244088
4.55038e-06
0.000246822
4.01532e-07
0.000245288
-4.62803e-06
0.000241138
-8.12844e-06
0.000241282
-1.08463e-06
0.000247688
6.62295e-06
0.000250932
5.0415e-06
0.000251847
2.61144e-06
0.000251788
1.03133e-06
0.000251872
2.40494e-07
0.000251515
3.74859e-07
0.000251015
5.27321e-07
0.000250483
4.50617e-07
0.000249808
6.84467e-07
0.000249084
9.54267e-07
0.000248093
1.19925e-06
0.000247164
1.29592e-06
0.000246065
1.60829e-06
0.000244976
1.74329e-06
0.00024373
1.96935e-06
0.000242526
2.10503e-06
0.000241255
2.25567e-06
0.000239957
2.39517e-06
0.000238574
2.52551e-06
0.000237169
2.57065e-06
0.000235721
2.68112e-06
0.000234269
2.72326e-06
0.000232806
2.77853e-06
0.000231359
2.8173e-06
0.000229908
2.82916e-06
0.000228448
2.8985e-06
0.000227015
2.87842e-06
0.000225564
2.90278e-06
0.000224169
2.89096e-06
0.000222719
2.91781e-06
0.000221351
2.91149e-06
0.000220025
2.88936e-06
0.000218687
2.9261e-06
0.000217421
2.909e-06
-1.75755e-06
2.86097e-06
0.000216182
-6.70618e-07
0.000216119
4.3339e-07
0.000216044
1.57577e-06
0.000215982
-0.000217315
0.000215994
2.75912e-06
-0.000218624
2.86605e-06
-0.000220001
3.04318e-06
-0.000221384
3.1397e-06
-0.000222768
3.18912e-06
-0.000224196
3.26759e-06
-0.000225614
3.28814e-06
-0.000227097
3.34841e-06
-0.000228535
3.31411e-06
-0.000230009
3.32709e-06
-0.000231474
3.32198e-06
-0.000232968
3.34626e-06
-0.000234423
3.25504e-06
-0.000235842
3.1977e-06
-0.000237258
3.11242e-06
-0.000238698
3.05772e-06
-0.000240081
2.95568e-06
-0.000241375
2.76587e-06
-0.00024264
2.59535e-06
-0.000243846
2.43874e-06
-0.000244999
2.24721e-06
-0.000246078
2.05731e-06
-0.000247132
1.89898e-06
-0.000248074
1.66515e-06
-0.000248881
1.37803e-06
-0.000249559
9.76581e-07
-0.000250146
6.89066e-07
-0.000250629
1.20177e-07
-0.000250897
-4.85851e-07
-0.000250805
-1.42493e-06
-0.000250663
-2.50734e-06
-0.000250661
-4.24109e-06
-0.000252381
-6.40445e-06
-0.000256199
-9.03692e-06
-0.000262502
-9.39111e-06
-0.00025585
-1.5804e-06
-0.000251865
-2.14112e-06
-0.000253938
-5.19565e-06
-0.000259001
-5.4182e-06
-0.000250916
1.23479e-06
-0.000246298
2.71689e-06
-0.000244071
1.41619e-06
-0.00024284
-5.04885e-07
-0.000242092
-1.00759e-06
-0.00024033
-2.08358e-06
-0.00023976
-2.70432e-07
-0.000239636
8.17115e-07
-0.000239473
2.09054e-06
-0.000238248
2.45576e-06
-0.000224482
2.81307e-06
-0.000236533
2.63512e-06
-0.000233944
2.53174e-06
-0.00022957
2.55896e-06
1.01715e-05
-0.000218602
-1.3657e-05
6.76542e-06
-0.000219445
3.33968e-06
-0.00022101
3.1052e-06
-0.000218161
-1.41512e-05
1.0615e-05
-0.000214221
0.000216956
-0.000212229
-1.80661e-05
0.000221453
-1.69882e-05
0.000226357
-1.49962e-05
0.000231541
-1.18501e-05
0.000235818
-8.48619e-06
0.000238449
-6.07023e-06
0.000239616
-4.82564e-06
0.000240321
-4.41648e-06
0.000240831
-4.2698e-06
0.000241368
-4.10024e-06
0.000241983
-4.06006e-06
0.000242748
-4.07641e-06
0.000243505
-4.2422e-06
0.00024421
-4.72441e-06
0.000244374
-5.58708e-06
0.000243389
-6.76333e-06
0.000241499
-8.11309e-06
0.000241193
-4.03201e-06
0.00024514
3.48063e-07
0.000247032
-1.7618e-06
0.000246466
-4.3459e-06
0.000244126
-6.08194e-06
0.000244975
-2.23528e-06
0.000248531
2.75349e-06
0.000251004
2.24394e-06
0.000252048
1.23324e-06
0.000252283
4.56603e-07
0.000252006
1.75588e-07
0.000251753
2.82306e-07
0.000251411
5.25174e-07
0.000250715
8.01516e-07
0.000250012
1.04487e-06
0.000249098
1.52963e-06
0.00024821
1.75222e-06
0.000247155
2.02136e-06
0.000246156
2.28276e-06
0.000245003
2.5766e-06
0.000243841
2.82012e-06
0.000242528
3.11327e-06
0.000241247
3.23962e-06
0.000239906
3.44681e-06
0.000238535
3.61588e-06
0.000237113
3.72069e-06
0.000235696
3.8338e-06
0.000234234
3.92978e-06
0.0002328
3.96697e-06
0.000231322
4.05823e-06
0.000229847
4.07641e-06
0.000228423
4.10352e-06
0.000226975
4.11739e-06
0.000225557
4.12104e-06
0.000224134
4.12359e-06
0.000222765
4.10615e-06
0.000221394
4.11095e-06
0.000220037
4.08448e-06
0.000218743
4.06697e-06
0.000217501
4.00711e-06
0.000216265
3.96247e-06
-2.81235e-06
3.81415e-06
0.000215138
-1.75282e-06
0.000214995
-6.55254e-07
0.000214894
4.5638e-07
0.000214804
1.49768e-06
0.000214812
2.62293e-06
0.000214742
-0.000215992
0.00021475
3.73941e-06
-0.000217315
3.94616e-06
-0.000218677
4.08332e-06
-0.00022
4.21227e-06
-0.000221382
4.35821e-06
-0.000222788
4.42344e-06
-0.000224186
4.48409e-06
-0.000225641
4.55186e-06
-0.000227056
4.564e-06
-0.000228519
4.56714e-06
-0.000230009
4.59895e-06
-0.000231471
4.55684e-06
-0.00023293
4.56884e-06
-0.000234397
4.47653e-06
-0.000235819
4.36557e-06
-0.000237271
4.30134e-06
-0.000238657
4.1722e-06
-0.000240004
4.02305e-06
-0.000241313
3.78657e-06
-0.000242658
3.6448e-06
-0.000243868
3.34441e-06
-0.000245046
3.11323e-06
-0.000246201
2.8925e-06
-0.000247245
2.61578e-06
-0.000248155
2.24142e-06
-0.000248955
1.83719e-06
-0.000249648
1.32275e-06
-0.000250292
9.81593e-07
-0.000250687
1.58481e-07
-0.000250942
-5.89505e-07
-0.000251142
-1.58585e-06
-0.000251366
-2.64609e-06
-0.000252024
-3.94512e-06
-0.000253226
-5.56394e-06
-0.000255587
-7.03402e-06
-0.000257631
-7.69924e-06
-0.000255706
-3.85078e-06
-0.00025395
-4.22571e-06
-0.000254281
-5.1756e-06
-0.000254802
-5.18748e-06
-0.000251623
-2.21254e-06
-0.000248221
-9.29402e-07
-0.000245564
-1.46438e-06
-0.00024404
-2.23853e-06
-0.000241902
-3.34852e-06
-0.000241776
-2.41128e-06
-0.000241298
-9.29785e-07
-0.00024082
3.11003e-07
-0.000239382
6.89976e-07
-0.000237889
1.08667e-06
-0.000236119
1.51902e-06
-0.000224524
9.63225e-07
-0.000233514
1.50266e-06
-0.000228758
5.73137e-07
6.65838e-06
-0.000214617
1.4482e-05
-0.00020727
-1.87654e-05
1.01402e-05
-0.000209192
-1.10471e-06
-0.000217717
6.80656e-07
-0.000217231
3.11392e-06
-0.000213732
-1.88398e-05
1.46062e-05
-0.000202412
0.000204766
-0.000200013
-2.29873e-05
0.000209278
-2.26209e-05
0.000213853
-2.18705e-05
0.000218548
-2.06083e-05
0.000223753
-1.84168e-05
0.000229605
-1.47046e-05
0.000234719
-1.03199e-05
0.000237975
-7.05532e-06
0.000239699
-5.40695e-06
0.000240599
-4.884e-06
0.000241188
-4.81416e-06
0.000241818
-4.72287e-06
0.000242518
-4.82122e-06
0.000243316
-5.05087e-06
0.000243983
-5.10677e-06
0.000244629
-5.57196e-06
0.000244969
-6.13471e-06
0.000244758
-6.77191e-06
0.000243737
-7.3254e-06
0.000243408
-3.95094e-06
0.000246499
-3.00526e-06
0.000247958
-3.49952e-06
0.000247864
-4.54279e-06
0.000246381
-4.90032e-06
0.000247414
-3.57913e-06
0.000249702
1.43939e-07
0.000251373
2.43009e-07
0.000252241
2.91268e-08
0.000252467
-1.11543e-07
0.000252332
-3.41728e-08
0.000252023
2.46945e-07
0.000251545
6.57477e-07
0.000250904
1.09936e-06
0.000250132
1.47546e-06
0.000249315
2.00994e-06
0.000248353
2.3798e-06
0.000247314
2.73194e-06
0.000246166
3.10791e-06
0.000244974
3.45156e-06
0.000243763
3.7216e-06
0.000242548
4.02597e-06
0.000241178
4.31495e-06
0.000239847
4.49137e-06
0.000238477
4.70708e-06
0.000237066
4.86144e-06
0.000235625
5.01368e-06
0.000234195
5.10655e-06
0.000232717
5.20179e-06
0.000231286
5.2544e-06
0.000229823
5.3142e-06
0.000228379
5.33079e-06
0.000226945
5.34509e-06
0.000225523
5.34498e-06
0.000224144
5.31441e-06
0.000222764
5.30805e-06
0.000221419
5.28711e-06
0.000220075
5.26776e-06
0.000218801
5.19041e-06
0.00021756
5.10677e-06
0.000216406
4.98494e-06
0.000215283
4.81414e-06
-3.58659e-06
4.60462e-06
0.000214151
-2.62036e-06
0.000214056
-1.68343e-06
0.000213941
-7.10267e-07
0.000213802
3.44429e-07
0.000213631
1.4535e-06
0.000213584
2.56321e-06
0.000213514
3.60741e-06
0.000213589
-0.000214787
0.000213577
4.70226e-06
-0.000216073
4.90201e-06
-0.000217347
5.08679e-06
-0.000218678
5.27172e-06
-0.000220043
5.42489e-06
-0.000221377
5.5319e-06
-0.000222776
5.65168e-06
-0.000224188
5.71734e-06
-0.000225593
5.76874e-06
-0.000227025
5.79809e-06
-0.000228491
5.82647e-06
-0.000229931
5.82282e-06
-0.000231414
5.81497e-06
-0.00023285
5.77166e-06
-0.000234321
5.70502e-06
-0.000235783
5.57592e-06
-0.000237204
5.46168e-06
-0.000238571
5.27092e-06
-0.000239931
5.1052e-06
-0.000241308
4.87879e-06
-0.000242585
4.62816e-06
-0.000243896
4.3533e-06
-0.000245168
4.0748e-06
-0.000246255
3.66151e-06
-0.00024725
3.28492e-06
-0.000248195
2.85409e-06
-0.00024902
2.32151e-06
-0.000249775
1.73113e-06
-0.000250376
1.23103e-06
-0.00025087
2.95685e-07
-0.000251331
-4.88482e-07
-0.000251735
-1.5445e-06
-0.00025211
-2.63491e-06
-0.000252569
-3.85025e-06
-0.000253443
-5.05112e-06
-0.0002547
-6.13534e-06
-0.000255884
-6.86716e-06
-0.000255113
-4.96574e-06
-0.000254333
-5.33461e-06
-0.000254036
-5.78524e-06
-0.000253902
-5.61392e-06
-0.000251811
-4.57465e-06
-0.000249028
-3.962e-06
-0.000247004
-3.71903e-06
-0.000245275
-4.18661e-06
-0.000244069
-4.77089e-06
-0.000243417
-3.27632e-06
-0.000242812
-1.72507e-06
-0.000241004
-1.53626e-06
-0.000239317
-9.49926e-07
-0.000237554
-5.67026e-07
-0.000236141
7.80152e-07
-0.000232961
-1.77477e-08
-0.000222754
-1.73163e-06
-0.000227989
-1.4529e-06
5.63744e-06
-0.000209422
9.70843e-06
-0.000203659
-5.54073e-06
-0.000215963
1.89946e-05
-0.000195242
-2.31946e-05
1.41804e-05
-0.000197002
-2.58e-06
-0.000213115
-1.65795e-06
-0.000211567
1.0634e-06
-0.000208462
-2.28349e-05
1.84255e-05
-0.000190287
0.000192983
-0.000188669
-2.66425e-05
0.000197124
-2.67985e-05
0.000201401
-2.6691e-05
0.000205731
-2.63237e-05
0.000210198
-2.56185e-05
0.000214972
-2.44087e-05
0.000220416
-2.22896e-05
0.000226943
-1.83774e-05
0.000233147
-1.30074e-05
0.000237414
-8.72276e-06
0.000239597
-6.24412e-06
0.000240709
-5.4886e-06
0.000241429
-5.47568e-06
0.0002422
-5.4771e-06
0.000242947
-5.62352e-06
0.000243581
-5.85942e-06
0.000244436
-6.15769e-06
0.000245132
-6.46927e-06
0.000245674
-6.88641e-06
0.000246326
-7.64685e-06
0.000245861
-7.10256e-06
0.000246491
-4.83544e-06
0.000247993
-4.77909e-06
0.000249118
-4.91071e-06
0.000249449
-5.17415e-06
0.000249126
-4.88872e-06
0.00024928
-4.05227e-06
0.000250789
-1.69311e-06
0.000251902
-1.20536e-06
0.000252502
-9.12105e-07
0.000252662
-6.15916e-07
0.000252515
-2.33787e-07
0.000252147
2.68277e-07
0.000251632
8.2702e-07
0.000251001
1.38627e-06
0.000250202
1.93414e-06
0.000249363
2.5127e-06
0.000248383
3.02736e-06
0.000247292
3.49688e-06
0.000246154
3.92562e-06
0.000244991
4.29966e-06
0.000243746
4.65953e-06
0.000242455
5.01672e-06
0.00024116
5.31829e-06
0.000239756
5.61151e-06
0.00023838
5.80708e-06
0.000236961
6.01341e-06
0.000235546
6.17098e-06
0.000234095
6.3071e-06
0.000232651
6.40576e-06
0.000231193
6.48098e-06
0.000229769
6.51575e-06
0.000228316
6.57057e-06
0.000226896
6.56085e-06
0.000225499
6.54741e-06
0.000224094
6.53465e-06
0.000222733
6.49346e-06
0.000221406
6.44764e-06
0.00022011
6.40697e-06
0.000218851
6.30076e-06
0.00021764
6.17966e-06
0.000216471
6.02363e-06
0.000215335
5.82962e-06
0.000214199
5.63021e-06
-4.39811e-06
5.41112e-06
0.000213083
-3.39022e-06
0.000213038
-2.40984e-06
0.000212969
-1.45898e-06
0.000212882
-5.39645e-07
0.000212774
3.68364e-07
0.000212613
1.43546e-06
0.000212408
2.38639e-06
0.000212454
3.4752e-06
0.000212392
4.53152e-06
0.000212415
-0.000214878
0.000213671
5.79709e-06
-0.000216169
6.07104e-06
-0.000217446
6.23293e-06
-0.000218725
6.41157e-06
-0.000220048
6.59874e-06
-0.00022141
6.73614e-06
-0.000222757
6.83183e-06
-0.000224153
6.93676e-06
-0.000225563
6.99285e-06
-0.000226982
7.02305e-06
-0.000228432
7.07282e-06
-0.00022988
7.05862e-06
-0.000231315
7.02789e-06
-0.000232763
6.98947e-06
-0.000234229
6.93187e-06
-0.000235679
6.77756e-06
-0.000237087
6.61333e-06
-0.000238479
6.39703e-06
-0.00023988
6.23229e-06
-0.000241219
5.93542e-06
-0.000242579
5.69759e-06
-0.000243838
5.31287e-06
-0.000245086
5.01562e-06
-0.000246223
4.48253e-06
-0.000247247
3.98489e-06
-0.000248212
3.48676e-06
-0.000249115
2.88532e-06
-0.000249915
2.18535e-06
-0.000250551
1.51575e-06
-0.000251183
5.70886e-07
-0.000251614
-4.17131e-07
-0.000251984
-1.53708e-06
-0.000252247
-2.73697e-06
-0.000252745
-3.71623e-06
-0.000253488
-4.67129e-06
-0.000254419
-5.56429e-06
-0.000255417
-6.22381e-06
-0.000254889
-5.84e-06
-0.000254243
-6.31438e-06
-0.000253716
-6.62872e-06
-0.000252575
-7.05195e-06
-0.000251262
-6.16323e-06
-0.000249662
-5.81505e-06
-0.000247791
-5.82673e-06
-0.000246099
-6.10366e-06
-0.000245524
-5.56695e-06
-0.000244635
-4.3861e-06
-0.000242991
-3.56606e-06
-0.00024116
-3.40575e-06
-0.0002392
-2.86408e-06
-0.000238555
-1.09682e-06
-0.000236223
-8.30499e-07
-0.000232608
-1.82481e-06
-5.4144e-06
-0.000220862
-0.000226344
-4.51409e-06
0.000212515
5.58426e-06
-9.39465e-06
-0.000218808
4.77529e-06
-0.00020385
-1.01151e-05
-0.000213988
9.13756e-06
-0.000198006
-7.56975e-06
-0.000209665
1.3868e-05
-0.000191866
-5.45341e-06
-0.000208437
2.29023e-05
-0.00018461
-2.64832e-05
1.86048e-05
-0.00018547
-3.41354e-06
-0.000206394
-1.37127e-07
-0.00020291
-2.58835e-05
2.22177e-05
-0.000180489
0.000183562
-0.000180222
-2.88156e-05
0.000186917
-2.94036e-05
0.000190505
-2.97684e-05
0.000194194
-2.99938e-05
0.000198045
-3.00116e-05
0.000202085
-2.97786e-05
0.000206367
-2.92403e-05
0.000211079
-2.82577e-05
0.000216561
-2.64324e-05
0.000223591
-2.28383e-05
0.00023123
-1.69323e-05
0.000236472
-1.09401e-05
0.000239382
-7.52405e-06
0.000240799
-6.28394e-06
0.000241663
-6.2486e-06
0.000242498
-6.27813e-06
0.000243345
-6.5229e-06
0.000244102
-6.79746e-06
0.000244895
-7.15255e-06
0.000245659
-7.43796e-06
0.000246343
-7.78374e-06
0.00024692
-8.45216e-06
0.000247029
-7.45605e-06
0.000248171
-6.23965e-06
0.0002493
-6.18839e-06
0.000250228
-6.13418e-06
0.000251067
-6.32288e-06
0.000250824
-4.96543e-06
0.000251237
-4.79411e-06
0.000251831
-2.62276e-06
0.000252485
-2.20012e-06
0.000252839
-1.61241e-06
0.000252885
-1.00951e-06
0.000252665
-3.62354e-07
0.000252257
3.27441e-07
0.000251712
1.02501e-06
0.000251031
1.72325e-06
0.000250224
2.40119e-06
0.000249349
3.0521e-06
0.000248383
3.66221e-06
0.000247319
4.23692e-06
0.000246163
4.76321e-06
0.000244936
5.2147e-06
0.00024366
5.63126e-06
0.000242375
6.00589e-06
0.000241031
6.37343e-06
0.000239686
6.67615e-06
0.000238266
6.95519e-06
0.000236858
7.1583e-06
0.000235421
7.35305e-06
0.000233988
7.49466e-06
0.000232552
7.60461e-06
0.00023111
7.69511e-06
0.000229656
7.75112e-06
0.000228255
7.76151e-06
0.000226834
7.78212e-06
0.000225434
7.75689e-06
0.000224068
7.71894e-06
0.00022272
7.66848e-06
0.000221401
7.60376e-06
0.000220132
7.52259e-06
0.000218889
7.39868e-06
0.000217685
7.24864e-06
0.000216514
7.06799e-06
0.000215371
6.85602e-06
0.000214226
6.66642e-06
0.000213139
6.39932e-06
-5.19582e-06
0.000212062
6.18203e-06
-4.2826e-06
0.000212077
-3.30128e-06
0.000211961
-2.29326e-06
0.000211864
-1.32383e-06
0.000211814
-3.85684e-07
0.000211736
5.04319e-07
0.000211623
1.32341e-06
0.000211488
2.45211e-06
0.000211226
3.40158e-06
0.000211345
4.35893e-06
0.000211361
5.35406e-06
0.000211426
-0.000213796
0.000212661
6.6185e-06
-0.000214992
6.88417e-06
-0.000216228
7.18878e-06
-0.000217486
7.36352e-06
-0.000218773
7.56154e-06
-0.000220063
7.74355e-06
-0.000221397
7.91565e-06
-0.000222749
8.02009e-06
-0.000224108
8.12284e-06
-0.000225493
8.19677e-06
-0.000226915
8.25428e-06
-0.000228326
8.28389e-06
-0.000229766
8.29036e-06
-0.000231212
8.2565e-06
-0.000232647
8.19778e-06
-0.000234101
8.1509e-06
-0.000235532
7.96421e-06
-0.000236938
7.76646e-06
-0.000238373
7.57048e-06
-0.000239753
7.34191e-06
-0.000241177
7.08069e-06
-0.000242463
6.69677e-06
-0.000243793
6.34635e-06
-0.000244973
5.89021e-06
-0.000246147
5.34355e-06
-0.000247226
4.74194e-06
-0.00024827
4.20025e-06
-0.000249229
3.50651e-06
-0.000250142
2.75386e-06
-0.000250812
1.8351e-06
-0.000251438
8.40778e-07
-0.000251904
-3.10371e-07
-0.000252423
-1.38132e-06
-0.000253171
-2.35417e-06
-0.00025387
-3.38314e-06
-0.000254237
-4.67079e-06
-0.000254595
-5.57072e-06
-0.000255125
-6.05463e-06
-0.00025433
-6.98758e-06
-0.000254027
-6.95706e-06
-0.000253407
-7.57229e-06
-0.000252987
-7.77469e-06
-0.000251879
-7.55363e-06
-0.00025027
-7.68412e-06
-0.000248671
-7.66586e-06
-0.000247483
-7.51904e-06
-0.000246324
-6.94814e-06
-0.000245289
-5.64228e-06
-0.000243314
-5.73825e-06
-0.000241396
-5.36014e-06
-0.000240946
-3.28689e-06
-0.000239555
-2.34424e-06
-0.000236257
-3.32189e-06
-0.000232572
-3.44152e-06
-0.000225304
-8.22583e-06
-0.000215874
-1.52104e-05
0.000211566
6.35866e-06
1.5528e-05
-2.07768e-05
-0.000208691
-0.000211229
3.94748e-06
-0.000198043
-1.30702e-05
-0.000207242
8.61167e-06
-0.000192153
-9.55237e-06
-0.000204704
1.33784e-05
-0.000186082
-7.74413e-06
-0.000203416
1.78544e-05
-0.000180609
-4.9366e-06
-0.000200956
2.53746e-05
-0.000176913
-2.82978e-05
2.16421e-05
-0.000176322
-1.21202e-06
-0.000197134
-5.11382e-06
6.08098e-06
0.000211013
-4.10534e-06
0.000210984
-3.17107e-06
0.00021094
-2.25024e-06
0.000210855
-1.27053e-06
0.000210744
-3.12682e-07
0.000210687
6.02e-07
0.000210617
1.47458e-06
0.000210525
2.2395e-06
0.000210371
3.19517e-06
0.0002103
4.11984e-06
0.00021035
5.07579e-06
0.000210385
6.08883e-06
0.000210471
-0.000212808
0.000211711
7.36764e-06
-0.000213968
7.68217e-06
-0.000215118
7.92822e-06
-0.000216319
8.27537e-06
-0.000217544
8.46495e-06
-0.000218796
8.68095e-06
-0.000220091
8.89723e-06
-0.000221374
9.04859e-06
-0.000222719
9.20529e-06
-0.000224061
9.29642e-06
-0.000225436
9.39486e-06
-0.00022682
9.45256e-06
-0.000228236
9.50433e-06
-0.000229648
9.49905e-06
-0.000231074
9.46939e-06
-0.00023253
9.43174e-06
-0.000233938
9.3285e-06
-0.000235359
9.14543e-06
-0.000236808
8.96682e-06
-0.000238241
8.74672e-06
-0.000239663
8.498e-06
-0.000241003
8.14561e-06
-0.000242378
7.78885e-06
-0.000243645
7.3204e-06
-0.000244866
6.80925e-06
-0.000246055
6.22176e-06
-0.000247322
5.68951e-06
-0.000248274
4.82329e-06
-0.000249376
4.27334e-06
-0.00025025
3.28465e-06
-0.000251039
2.27555e-06
-0.000251705
1.15238e-06
-0.000252565
1.90651e-07
-0.000253264
-1.04555e-06
-0.000253898
-2.08607e-06
-0.000254168
-3.48194e-06
-0.000254686
-4.52384e-06
-0.000255244
-5.38426e-06
-0.000255207
-6.46044e-06
-0.000255398
-7.15813e-06
-0.000254539
-8.16599e-06
-0.000254016
-8.42779e-06
-0.000253402
-8.70084e-06
-0.000252461
-8.78403e-06
-0.000251081
-9.33119e-06
-0.000249857
-9.13867e-06
-0.000248399
-9.21347e-06
-0.000247201
-8.37936e-06
-0.000245342
-7.72237e-06
-0.000243579
-7.68093e-06
-0.000243186
-5.79454e-06
-0.000241958
-4.50708e-06
-0.000238918
-5.12335e-06
-0.000237519
-3.75579e-06
-0.000231461
-7.0634e-06
-0.000222639
-1.30933e-05
-0.000213145
-2.12034e-05
-0.000205441
-2.68177e-05
-2.35254e-05
1.81066e-05
-0.000202231
-0.000199647
-2.84201e-05
7.08944e-06
0.000210632
-2.75663e-05
2.46368e-05
-0.000173606
0.000177211
-0.000174605
-2.98407e-05
0.000179842
-3.05764e-05
0.00018259
-3.12001e-05
0.000185387
-3.18162e-05
0.000188407
-3.2371e-05
0.000191625
-3.27619e-05
0.000195054
-3.29576e-05
0.000198741
-3.29322e-05
0.000202739
-3.26403e-05
0.000207216
-3.19866e-05
0.000212489
-3.05882e-05
0.0002196
-2.78162e-05
0.000228118
-2.17005e-05
0.000235161
-1.4448e-05
0.000239064
-9.39181e-06
0.00024087
-7.28168e-06
0.000241865
-7.05137e-06
0.000242783
-7.20417e-06
0.000243623
-7.41179e-06
0.000244475
-7.80805e-06
0.000245318
-8.19318e-06
0.000246178
-8.50833e-06
0.000247004
-8.82968e-06
0.000247476
-9.16053e-06
0.000248001
-8.23341e-06
0.00024931
-7.82e-06
0.000250342
-7.50995e-06
0.000251658
-7.75582e-06
0.00025144
-6.42368e-06
0.000252172
-6.02692e-06
0.000251814
-4.77258e-06
0.000252659
-3.8111e-06
0.000253056
-2.94505e-06
0.000253209
-2.11603e-06
0.000253124
-1.27579e-06
0.00025284
-4.30108e-07
0.000252398
4.19185e-07
0.000251797
1.27777e-06
0.00025107
2.10652e-06
0.000250241
2.89007e-06
0.000249321
3.63761e-06
0.000248313
4.34114e-06
0.000247247
4.98007e-06
0.000246091
5.60413e-06
0.000244852
6.14539e-06
0.000243577
6.60454e-06
0.000242248
7.04227e-06
0.000240902
7.4347e-06
0.000239521
7.78122e-06
0.000238137
8.07132e-06
0.000236713
8.32331e-06
0.000235294
8.5219e-06
0.000233851
8.69579e-06
0.000232416
8.80782e-06
0.000230984
8.90396e-06
0.000229566
8.95425e-06
0.000228141
8.98214e-06
0.000226752
8.97462e-06
0.000225372
8.95042e-06
0.000224017
8.89661e-06
0.000222687
8.83027e-06
0.000221393
8.73917e-06
0.000220137
8.62844e-06
0.000218909
8.48618e-06
0.000217715
8.31111e-06
0.000216549
8.11054e-06
0.000215382
7.90931e-06
0.000214298
7.64598e-06
0.000213229
7.37281e-06
0.000212158
7.16546e-06
6.97299e-06
0.000211188
-0.000205038
3.24242e-06
-0.000192067
2.48933e-05
-2.98896e-05
-0.000194001
2.02451e-05
-0.000196868
-1.46087e-05
-0.000201356
8.11671e-06
-0.000186307
-1.21224e-05
-0.000199646
1.2963e-05
-0.00018065
-9.53429e-06
-0.000198184
1.71587e-05
-0.000175652
-6.19863e-06
-0.000195356
2.10647e-05
-0.000172336
-2.06766e-06
-0.000191215
2.69067e-05
-2.92036e-05
-0.000171989
2.37862e-05
-0.000170132
-0.000211909
0.000210886
8.03824e-06
-0.000213
8.37556e-06
-0.000214088
8.67799e-06
-0.000215296
9.0344e-06
-0.000216387
9.25612e-06
-0.000217598
9.55679e-06
-0.000218835
9.78986e-06
-0.000220067
9.9926e-06
-0.000221356
1.01919e-05
-0.000222655
1.03503e-05
-0.000224
1.04775e-05
-0.000225344
1.05667e-05
-0.000226722
1.06503e-05
-0.000228106
1.06981e-05
-0.000229508
1.0702e-05
-0.000230935
1.06891e-05
-0.000232346
1.06254e-05
-0.000233754
1.05114e-05
-0.000235201
1.03574e-05
-0.000236639
1.01618e-05
-0.000238074
9.92967e-06
-0.000239454
9.6169e-06
-0.000240857
9.27779e-06