/*--------------------------------*- C++ -*----------------------------------*\
| =========                 |                                                 |
| \\      /  F ield         | OpenFOAM: The Open Source CFD Toolbox           |
|  \\    /   O peration     | Version:  2212                                  |
|   \\  /    A nd           | Website:  www.openfoam.com                      |
|    \\/     M anipulation  |                                                 |
\*---------------------------------------------------------------------------*/
FoamFile
{
    version     2.0;
    format      ascii;
    arch        "LSB;label=32;scalar=64";
    class       volVectorField;
    location    "0.0301";
    object      U;
}
// * * * * * * * * * * * * * * * * * * * * * * * * * * * * * * * * * * * * * //

dimensions      [0 1 -1 0 0 0 0];

internalField   nonuniform List<vector> 
2308
(
(23.3675 -7.94633 -7.44116e-16)
(-9.27257 -13.3951 0)
(0.657917 -7.85139 6.17563e-17)
(-21.4828 -46.8288 -2.29901e-16)
(-6.20609 66.2896 0)
(-20.0272 66.2974 -1.03345e-18)
(17.6206 64.8114 3.02093e-19)
(17.8241 53.4632 -3.33735e-16)
(-0.46587 60.016 6.16692e-16)
(4.13054 50.3848 -6.77743e-17)
(4.67095 60.2286 1.22003e-16)
(1.54812 72.2092 -1.8403e-16)
(1.72974 80.1209 9.10326e-17)
(0.50683 89.6607 -4.71519e-17)
(0.156957 96.373 7.97201e-18)
(-0.492384 99.4304 6.58853e-17)
(-1.11881 100.899 8.73395e-18)
(0.620442 102.777 2.11181e-17)
(0.387052 102.109 2.7364e-17)
(0.109547 100.824 2.0367e-18)
(-0.570368 97.2598 1.5857e-17)
(-1.01067 90.0884 -4.52383e-17)
(-3.02268 80.5603 5.7833e-17)
(-2.06165 71.9749 -2.60643e-17)
(-3.77068 63.0513 -1.11478e-16)
(-5.86229 52.696 -5.23274e-17)
(-2.54112 42.3992 2.63615e-17)
(-2.03424 33.0612 -2.86167e-17)
(10.2025 76.9737 0)
(-1.64636 101.33 -1.94167e-16)
(-1.59565 24.4599 1.50275e-18)
(-1.22894 17.7703 3.79607e-19)
(-1.08845 12.6425 -6.39584e-18)
(-1.14883 8.7465 5.97368e-18)
(-1.28753 5.83806 -6.2459e-18)
(-1.44797 3.70818 5.81455e-18)
(-1.59873 2.12876 -2.8545e-18)
(-1.69408 0.899568 2.81941e-18)
(-1.76043 -0.128613 -2.76757e-18)
(-1.7774 -0.969281 1.3682e-18)
(-1.72012 -1.5808 2.68993e-18)
(-1.58649 -1.96458 3.97019e-18)
(-1.38139 -2.1084 -7.83767e-18)
(-1.12483 -2.05184 5.15787e-18)
(-0.837102 -1.89852 2.53209e-18)
(-0.0112383 -1.48425 -2.54564e-18)
(-0.272552 -1.75402 2.5739e-18)
(-0.492199 -1.8954 -3.92166e-18)
(-0.657302 -1.84576 -4.32247e-18)
(-0.745358 -1.56672 6.72552e-18)
(-0.730115 -1.06296 -1.36782e-18)
(-0.594199 -0.330841 2.78651e-18)
(-0.291201 0.602567 7.14463e-19)
(0.131228 1.71521 -4.2944e-18)
(0.730401 3.15028 -1.46167e-18)
(1.52172 5.12569 2.94996e-18)
(2.55446 7.84021 0)
(3.81226 11.4893 -3.77961e-19)
(5.21256 16.2227 -1.26088e-17)
(6.62177 22.2873 -4.40529e-17)
(7.84828 30.3756 5.25826e-17)
(8.56196 38.0958 5.5357e-17)
(11.8271 44.5281 6.40615e-17)
(11.007 53.0509 1.53642e-19)
(11.0779 60.1209 7.33318e-17)
(8.50157 67.6828 -1.38029e-16)
(4.68897 75.1923 -3.19709e-17)
(2.14762 83.3593 0)
(0.523335 89.9898 0)
(-1.62109 93.3641 0)
(-3.88591 94.859 0)
(-0.504721 -1.75609 -1.24863e-18)
(0.345399 -1.2241 1.25381e-18)
(2.67551 96.8277 -9.74529e-17)
(0.594714 95.062 -1.97199e-18)
(-1.61042 91.4835 7.631e-18)
(-3.43818 84.5031 0)
(-6.44709 75.4183 -1.4184e-17)
(-8.67889 67.7214 -1.38668e-17)
(-10.9736 58.6241 6.79322e-18)
(-12.8176 49.2412 2.70075e-17)
(-12.1823 39.858 0)
(-11.0165 30.9025 4.40163e-20)
(-9.55086 23.211 4.79324e-20)
(-7.8075 16.9125 -6.12436e-18)
(-6.21923 12.0895 9.06678e-18)
(-5.03187 8.4426 -1.56146e-20)
(-4.21777 5.69909 -5.16334e-18)
(-3.67424 3.66585 0)
(-3.32018 2.13228 -7.14954e-19)
(-3.08211 0.91948 4.22134e-18)
(-2.88598 -0.112379 -5.54808e-18)
(-2.73246 -0.979529 3.87488e-21)
(-2.57128 -1.63862 5.3857e-18)
(-2.38668 -2.08066 0)
(-2.17195 -2.27874 5.22065e-18)
(-1.94597 -2.25453 -2.31203e-21)
(-1.74252 -2.11473 -2.53809e-18)
(1.64082 102.057 -8.57045e-17)
(-1.61189 -1.98106 -2.49356e-18)
(-2.12849 100.487 8.72261e-17)
(-5.26009 95.6274 -4.69189e-20)
(1.18448 -1.07658 -2.51157e-18)
(0.969578 -1.24849 3.18334e-18)
(0.795192 -1.54533 0)
(0.628435 -1.72793 -9.8727e-19)
(0.494756 -1.7519 2.32992e-18)
(0.433911 -1.58347 2.70698e-18)
(0.494147 -1.21332 -2.74645e-18)
(0.710848 -0.672403 0)
(1.14866 0.0469469 -7.08222e-19)
(1.82594 0.965166 1.44088e-18)
(2.75098 2.15493 2.43201e-21)
(4.02988 3.78292 -1.48115e-18)
(5.74151 6.04813 0)
(7.94604 9.12573 2.2908e-18)
(10.5722 13.1121 -9.23643e-18)
(13.3164 18.0585 -6.26137e-18)
(15.5729 24.1858 2.57929e-17)
(17.3927 30.6951 9.711e-17)
(18.8454 36.5405 7.39663e-18)
(18.0392 43.2513 7.14089e-17)
(16.0801 49.4477 -3.26393e-17)
(12.4533 56.0268 0)
(7.80788 62.7796 0)
(3.25795 69.9689 0)
(0.362493 76.3482 1.12836e-16)
(-2.85666 79.5798 -1.3307e-16)
(-6.35853 81.3247 1.3683e-16)
(23.8193 39.2156 -2.687e-16)
(-27.967 50.9781 0)
(-18.8747 72.2498 0)
(-22.7822 62.5117 0)
(7.60015 84.5447 1.99193e-16)
(4.66617 83.7402 5.57473e-17)
(1.06038 82.1306 -2.49884e-20)
(-2.60101 78.9019 -9.27106e-19)
(-5.94085 71.9578 9.00214e-19)
(-10.5986 63.699 7.11073e-18)
(-14.7961 56.572 -1.39327e-17)
(-18.2171 48.6232 -4.41706e-20)
(-20.7018 40.5801 0)
(-20.7689 32.6101 2.93221e-17)
(-19.3789 25.1336 1.90817e-17)
(-16.8352 18.8747 -3.10437e-18)
(-13.7977 13.8072 3.07159e-18)
(-10.9312 9.95427 0)
(-8.64104 7.009 0)
(-6.97942 4.73674 -3.69207e-19)
(-5.80353 3.0235 0)
(-4.97144 1.71331 2.1495e-18)
(-4.38244 0.631817 -2.20607e-21)
(-3.9241 -0.320294 -1.39278e-18)
(-3.60002 -1.13013 0)
(-3.33841 -1.76768 -1.34965e-18)
(-3.09505 -2.20673 1.99378e-18)
(-2.86958 -2.40732 -3.27388e-18)
(-2.67196 -2.3759 0)
(-2.53248 -2.18698 -5.06524e-18)
(-2.50776 -1.9375 1.24669e-18)
(-2.62875 -1.39568 -4.45375e-21)
(-1.60996 -1.93917 0)
(-0.159132 -1.66085 -6.14543e-19)
(0.715588 -0.410935 -1.9958e-18)
(12.2905 58.7273 2.91579e-16)
(1.39038 0.0933979 1.54464e-19)
(28.3589 24.5867 -8.47908e-16)
(33.6301 2.95317 -1.96257e-16)
(-5.83031 96.0652 0)
(16.869 37.9351 2.86253e-16)
(0.674095 69.2578 -5.82371e-16)
(2.93803 99.6194 3.6129e-17)
(-9.30291 82.8218 -2.087e-16)
(-3.65177 -2.78693 -1.21285e-18)
(-2.01636 -3.04929 -1.21155e-18)
(0.655852 -2.71178 -1.51115e-19)
(2.03081 -1.72891 2.42675e-18)
(2.23127 -1.90029 1.52011e-19)
(2.95858 -2.54095 0)
(2.5554 -0.0413004 1.23587e-18)
(2.42509 -1.05672 2.51917e-18)
(2.30143 -1.08209 -6.35485e-19)
(2.18578 -1.3173 -2.59581e-18)
(2.04029 -1.51836 -2.97051e-18)
(1.90829 -1.6226 4.01525e-18)
(1.84406 -1.582 1.35928e-18)
(1.91266 -1.38295 -2.76786e-18)
(2.17279 -1.04565 2.10663e-18)
(2.65483 -0.590957 -6.22621e-19)
(3.4403 0.0172453 0)
(4.57638 0.841399 0)
(6.18232 1.99184 0)
(8.337 3.62707 3.03346e-18)
(11.168 5.86958 -1.53745e-18)
(14.6646 8.74518 4.68001e-21)
(18.5198 12.2323 -1.27524e-17)
(21.9422 16.3481 0)
(24.4703 20.9985 -1.37511e-17)
(25.5655 25.3997 1.44431e-17)
(24.3341 30.0427 2.99842e-17)
(21.2767 34.7097 1.55765e-17)
(16.5163 39.7744 6.25243e-17)
(10.7403 45.1618 -6.30095e-17)
(4.68141 50.977 0)
(0.0131532 56.7333 1.59496e-17)
(-4.38547 60.3566 -3.23408e-17)
(-9.15345 62.5302 -6.62885e-17)
(13.8564 76.6479 3.28104e-17)
(10.1981 -0.195094 0)
(-11.2489 69.4581 3.21192e-19)
(25.7011 37.5885 3.68883e-16)
(24.6323 42.685 -7.78052e-17)
(22.9998 49.3834 8.75856e-17)
(20.9801 55.0281 -1.63001e-17)
(18.0238 59.9696 3.20174e-17)
(14.381 63.1767 -1.53497e-17)
(10.2443 65.907 0)
(5.7032 65.8617 -1.45625e-17)
(0.887356 64.1648 -1.45999e-17)
(-3.84787 60.7197 0)
(-8.68836 54.2185 0)
(-14.7828 47.1715 8.82689e-19)
(-20.307 40.9807 -7.73419e-18)
(-24.6007 34.4911 0)
(-27.4232 28.1552 0)
(-27.7313 22.1465 -9.9218e-18)
(-25.9571 16.804 -6.39399e-18)
(-22.5083 12.555 1.25629e-17)
(-18.4608 9.21246 3.09516e-18)
(-14.7088 6.62681 7.62338e-19)
(-11.6472 4.65621 3.00356e-18)
(-9.35167 3.09304 -3.3415e-18)
(-7.68103 1.86551 0)
(-6.45492 0.894143 -1.44009e-18)
(-5.53917 0.0480106 0)
(-4.87467 -0.722099 0)
(-4.40484 -1.38602 0)
(-4.06112 -1.94394 -5.41931e-18)
(-3.79094 -2.33475 0)
(-3.58787 -2.49413 -2.9465e-18)
(-3.43305 -2.42321 4.83898e-19)
(-3.35209 -2.17769 9.99338e-18)
(-3.362 -1.89323 0)
(-3.39852 -0.840427 -4.90139e-18)
(-4.41112 -3.10495 7.58936e-20)
(-5.24338 -9.54083 0)
(22.8451 31.6598 4.65536e-16)
(-20.5977 -15.9081 8.19131e-16)
(-15.5275 -51.4245 0)
(2.58137 -19.9818 -2.70551e-16)
(31.4645 12.1164 9.75367e-16)
(-10.9224 84.5784 -1.84204e-19)
(8.47454 88.8828 6.93235e-17)
(4.7467 -3.14918 -1.52352e-19)
(4.11598 -0.238733 -1.24372e-18)
(4.02069 -1.11766 1.26057e-18)
(3.86735 -0.970373 0)
(3.7561 -1.11626 0)
(3.61174 -1.29173 1.65343e-19)
(3.4664 -1.45145 -6.7198e-19)
(3.37731 -1.53914 -2.3915e-18)
(3.42037 -1.52281 1.7304e-19)
(3.66619 -1.41624 -3.62832e-19)
(4.16549 -1.23711 -4.3991e-19)
(4.97374 -0.987487 2.0016e-18)
(6.18317 -0.623211 1.90702e-19)
(7.89815 -0.0255821 -1.49671e-18)
(10.2442 0.894455 0)
(13.3333 2.17896 6.18547e-18)
(17.2135 3.80442 1.94668e-21)
(21.6574 5.67196 3.21646e-17)
(25.9449 7.67651 -2.63935e-17)
(29.138 9.92952 0)
(30.4054 12.2368 2.82897e-17)
(29.0049 14.6432 -8.80948e-17)
(25.3106 17.556 4.5254e-17)
(19.8319 20.7138 6.07181e-17)
(13.3049 24.4991 -3.63885e-19)
(6.23767 28.7953 -6.20235e-17)
(-0.0286174 33.4192 6.2471e-17)
(-5.53687 37.0905 6.34917e-17)
(-11.0623 39.6738 -6.42532e-17)
(-13.6484 65.2108 -1.32996e-16)
(9.12927 41.6577 1.28916e-18)
(35.3523 -17.1209 -8.01258e-20)
(30.8704 22.3817 -6.5039e-17)
(29.5829 26.3033 -8.49648e-18)
(27.5454 31.1221 -2.49775e-17)
(24.814 35.765 -8.0652e-18)
(21.1589 39.6279 0)
(16.7649 42.3288 1.52693e-17)
(11.6754 43.7706 -7.43648e-18)
(6.00312 43.6333 -7.33197e-18)
(0.11024 41.8929 3.61859e-18)
(-5.80428 38.3384 3.59183e-18)
(-12.1261 32.8416 7.09745e-18)
(-19.1837 27.3627 0)
(-25.3799 22.4555 6.90698e-18)
(-30.0046 17.7921 -6.64819e-18)
(-32.6682 13.6901 -1.03795e-19)
(-32.5835 10.1558 -1.96681e-17)
(-30.0961 7.45151 1.60952e-18)
(-25.9239 5.54326 -7.90537e-18)
(-21.3237 4.05779 0)
(-17.199 2.81064 -2.48614e-18)
(-13.8189 1.80227 1.91301e-19)
(-11.1927 0.990694 3.35023e-18)
(-9.19008 0.334243 0)
(-7.68254 -0.235769 0)
(-6.55053 -0.763692 -8.89037e-20)
(-5.74509 -1.26429 -2.71488e-18)
(-5.16713 -1.73366 2.76212e-18)
(-4.77152 -2.14564 3.39867e-18)
(-4.50835 -2.42021 -6.68179e-19)
(-4.3548 -2.48845 1.97423e-18)
(-4.27192 -2.3561 -6.43908e-19)
(-4.25699 -2.06232 -5.09335e-18)
(-4.29335 -1.82847 4.99439e-18)
(-4.12861 -0.393747 1.106e-17)
(-5.24378 -3.75928 4.80179e-18)
(-2.67674 3.87584 0)
(-2.61402 2.98475 -2.44471e-18)
(-2.45762 0.925217 1.18166e-20)
(-1.79857 -2.31644 2.67529e-18)
(-0.0666523 -2.09021 8.93356e-19)
(0.715118 1.44184 -1.19125e-18)
(1.49128 2.64047 2.3851e-18)
(2.83689 1.87672 -2.39234e-18)
(4.46931 1.2439 -1.19594e-18)
(-16.2493 -17.9106 -3.11128e-16)
(-9.72245 -13.0629 -7.77439e-17)
(-1.35122 2.16623 -1.61715e-16)
(26.2426 20.1024 -4.78263e-16)
(22.8655 -1.30001 -2.4755e-16)
(-0.248137 -0.78205 9.82101e-17)
(-16.3217 42.955 0)
(-16.5878 68.1258 2.66354e-16)
(12.9314 32.1702 7.07081e-16)
(21.526 23.0673 2.8936e-16)
(13.0468 6.05709 -3.00875e-16)
(-5.24193 75.9017 5.91881e-16)
(33.042 6.7188 0)
(31.7084 8.92296 8.35157e-18)
(29.6046 11.8127 -2.029e-18)
(26.6064 14.836 -3.7632e-17)
(22.61 17.4092 7.76249e-18)
(17.6996 19.0232 0)
(11.9168 19.518 5.01469e-22)
(5.45575 18.8654 -1.834e-18)
(-1.35202 16.9984 0)
(-8.35361 13.8716 -3.59775e-18)
(-15.6776 9.84459 -3.56641e-18)
(-23.0964 6.11198 0)
(-29.414 2.9977 8.61209e-19)
(-33.8587 0.69871 -8.14991e-19)
(-35.7406 -0.714458 8.35889e-19)
(-34.7991 -1.36297 1.22977e-17)
(-31.5382 -1.23117 0)
(-27.0539 -0.978413 1.5832e-18)
(-22.4683 -0.900083 -7.79965e-19)
(-18.4132 -1.00534 1.92605e-19)
(-15.0831 -1.16052 5.68967e-19)
(-12.4104 -1.30498 -3.36837e-18)
(-10.2952 -1.42431 0)
(-8.65954 -1.54211 7.26073e-19)
(-7.43771 -1.69846 1.42734e-18)
(-6.54429 -1.89731 1.40777e-18)
(-5.91509 -2.12916 -1.28942e-21)
(-5.51009 -2.34761 -6.80274e-19)
(-5.27982 -2.45649 -2.00691e-18)
(-5.1883 -2.39264 -1.31772e-18)
(-5.20303 -2.17487 -1.2914e-18)
(-5.29833 -1.82802 0)
(-5.52906 -1.7869 -5.02176e-18)
(-4.85296 0.200172 -4.92733e-18)
(-7.03326 -4.65581 -3.6226e-18)
(-2.51693 4.42613 -6.48975e-18)
(-7.6636 -8.32609 2.94084e-18)
(-6.94897 -6.1896 -2.31162e-18)
(-7.37441 -5.55359 0)
(-7.62543 -6.11177 1.18099e-18)
(-4.58317 -7.53598 1.16382e-18)
(0.833797 -6.788 -2.33664e-18)
(3.82206 -3.95791 2.35361e-18)
(3.72899 -4.26651 1.04606e-20)
(4.13677 -6.37491 -1.18968e-18)
(6.85002 -8.09633 3.53375e-18)
(7.92877 -8.50199 -3.56929e-18)
(6.17939 2.68122 6.02824e-19)
(6.41177 -3.0776 -4.61982e-19)
(5.75861 0.143333 9.32675e-19)
(5.71542 -0.985272 -3.16177e-18)
(5.53126 -0.699121 1.20419e-18)
(5.40143 -0.834042 0)
(5.22691 -1.00326 1.65553e-19)
(5.04078 -1.2177 2.36541e-18)
(4.91125 -1.42034 -3.42543e-19)
(4.91664 -1.59328 8.70848e-19)
(5.12257 -1.72961 1.02887e-21)
(5.5903 -1.84865 3.618e-19)
(6.3769 -1.96187 -1.82562e-19)
(7.55234 -2.04666 1.29921e-18)
(9.21429 -2.0301 -4.51261e-18)
(11.4992 -1.84552 -7.92092e-21)
(14.4991 -1.47432 3.10225e-18)
(18.2737 -1.01486 -3.16059e-18)
(22.7097 -0.620119 -2.57744e-17)
(27.3043 -0.56276 2.63844e-17)
(31.0749 -0.724345 0)
(32.9547 -0.953756 -5.57488e-17)
(31.9403 -1.0546 4.27933e-17)
(28.3476 -0.463598 -4.4127e-17)
(22.7622 0.54357 0)
(15.7717 2.46935 0)
(8.02516 4.91801 0)
(0.488133 7.95141 -7.66201e-18)
(-6.24433 11.0351 1.23624e-20)
(-12.4992 13.9779 1.24987e-16)
(2.95261 41.5893 -3.17028e-16)
(-20.3731 47.0913 1.35352e-16)
(-17.7152 70.3559 -1.2535e-16)
(16.1697 70.3751 1.6522e-17)
(16.9995 22.8142 3.42333e-16)
(25.0376 12.0875 2.90886e-16)
(29.2711 8.8554 -6.31682e-19)
(32.5443 3.51215 -2.97579e-16)
(34.8611 -25.6202 -2.04969e-16)
(34.2623 5.92083 -2.01796e-16)
(35.0652 -8.9435 7.25244e-17)
(34.029 -8.64 -1.68512e-17)
(32.4363 -8.159 -3.26134e-17)
(30.1152 -6.86356 0)
(26.7808 -5.62459 3.13863e-17)
(22.477 -4.62734 0)
(17.1917 -4.25822 0)
(10.9949 -4.69321 7.42469e-18)
(4.22191 -5.75797 1.83108e-18)
(-3.14696 -7.4714 0)
(-10.8308 -9.74167 3.58548e-18)
(-18.5284 -12.0972 2.32221e-20)
(-25.6557 -13.7033 1.35668e-20)
(-31.3599 -14.3555 3.42703e-18)
(-34.6101 -13.9651 3.81643e-18)
(-35.6961 -12.4876 -3.74636e-18)
(-34.0072 -10.3702 -6.7813e-18)
(-30.5171 -8.15004 2.01473e-19)
(-26.3181 -6.37287 -1.19848e-18)
(-22.2157 -5.21781 3.91826e-19)
(-18.5916 -4.4805 1.54626e-18)
(-15.5617 -3.95992 -1.14387e-18)
(-13.0581 -3.54778 1.50273e-18)
(-11.0352 -3.18498 -2.31396e-21)
(-9.43197 -2.88749 -3.64149e-18)
(-8.20447 -2.67691 1.43876e-18)
(-7.29452 -2.56953 1.414e-18)
(-6.66533 -2.53498 -2.0832e-18)
(-6.27801 -2.51723 2.73125e-18)
(-6.09173 -2.42637 2.69509e-18)
(-6.06992 -2.19648 0)
(-6.18065 -1.8415 7.80438e-18)
(-6.3586 -1.28126 1.28063e-18)
(-7.13251 -1.76922 1.25847e-18)
(-5.32562 1.84928 0)
(-9.34791 -5.0574 0)
(-2.73753 6.38414 3.53381e-18)
(-9.13947 -8.58288 2.43392e-21)
(2.79871 10.6988 -5.57668e-19)
(3.01163 8.63769 5.53263e-19)
(0.631964 8.27624 0)
(-2.30003 7.81475 0)
(-2.41274 4.28708 -5.72717e-19)
(-2.3549 -4.91309 1.7122e-18)
(-2.56458 -4.29439 0)
(-1.99827 3.07093 -1.14335e-18)
(-0.464156 6.42565 -1.14079e-18)
(1.94543 5.065 2.26613e-18)
(3.92031 4.37161 -1.13784e-18)
(5.8374 8.36484 3.44919e-18)
(8.35945 7.26643 5.50294e-19)
(7.88749 -7.8421 6.00553e-19)
(7.86217 2.80735 1.20957e-18)
(7.73816 -2.97318 0)
(7.31817 0.276925 -4.68588e-19)
(7.35067 -0.889042 -1.19276e-19)
(7.11479 -0.420318 7.27352e-19)
(6.96955 -0.506215 -1.62734e-19)
(6.7564 -0.63794 -3.32413e-19)
(6.52073 -0.89666 -2.70864e-18)
(6.33354 -1.23793 6.89309e-19)
(6.27501 -1.60074 -1.74836e-18)
(6.41217 -1.97428 8.85351e-19)
(6.82106 -2.38182 -3.60354e-19)
(7.53897 -2.84003 0)
(8.61271 -3.35096 0)
(10.1238 -3.85982 0)
(12.1785 -4.31649 -1.53063e-18)
(14.8589 -4.72335 0)
(18.2112 -5.21633 5.42496e-21)
(22.1788 -6.00288 1.28799e-17)
(26.4755 -7.39645 -6.54047e-18)
(30.3004 -9.43712 1.34738e-17)
(32.743 -12.1476 4.13999e-17)
(32.4243 -14.9368 -2.83538e-20)
(29.9014 -16.7894 -1.43593e-17)
(24.5624 -18.2276 -2.89722e-17)
(17.4847 -18.3311 5.83724e-17)
(9.45088 -17.5893 -2.97459e-17)
(1.27825 -15.9317 -9.49337e-21)
(-6.38942 -13.8557 1.51159e-17)
(-13.2679 -10.9431 -1.98702e-20)
(-18.6755 17.3695 -1.92426e-16)
(7.19606 32.6434 -3.29097e-16)
(-3.38949 39.416 6.20257e-16)
(1.58728 0.642637 0)
(-23.355 22.168 -1.32971e-16)
(35.5173 -12.5833 5.33224e-16)
(34.0897 -6.19564 -2.86814e-16)
(31.2729 -0.531297 -5.54357e-16)
(-18.0042 70.6137 -4.25322e-17)
(19.457 56.1691 -4.22212e-17)
(10.7534 82.036 -1.64975e-17)
(-23.1213 50.8513 2.89487e-19)
(20.3061 14.4625 -3.37206e-16)
(27.0848 3.49567 2.80412e-16)
(-5.85377 -11.2791 -5.85478e-19)
(-6.37073 -8.62965 -5.80204e-19)
(-7.53256 -4.15756 0)
(-9.37959 -5.51949 -5.62466e-19)
(-12.6339 -11.4168 5.62775e-19)
(-8.94417 -13.6124 -5.53636e-19)
(-2.63808 -13.27 5.56272e-19)
(2.86003 -10.8611 1.12546e-18)
(6.91901 -11.5958 -1.13527e-18)
(7.75778 -16.7898 2.26562e-18)
(8.83569 -18.3791 -3.43672e-18)
(5.28611 -17.9476 0)
(2.74401 -14.5815 2.05454e-21)
(1.04237 -14.12 0)
(10.5583 7.73447 -3.48954e-18)
(7.68068 -7.05919 1.18337e-18)
(9.3661 3.23331 0)
(8.94593 -2.52514 0)
(8.72364 0.600659 3.13429e-19)
(8.86474 -0.629995 -3.98561e-20)
(8.49052 0.0110362 0)
(8.34115 -0.103433 -1.64195e-19)
(8.06959 -0.204162 1.67122e-19)
(7.79866 -0.497054 6.79824e-19)
(7.56536 -0.946025 3.44392e-19)
(7.44448 -1.4947 7.01814e-19)
(7.49721 -2.11788 3.01272e-21)
(7.79275 -2.81532 -1.44387e-18)
(8.37455 -3.58934 3.62865e-19)
(9.28658 -4.45975 1.48809e-18)
(10.5824 -5.42053 3.82148e-19)
(12.3215 -6.41781 -7.63499e-19)
(14.5731 -7.4567 1.5564e-18)
(17.3486 -8.65599 -4.74019e-18)
(20.6181 -10.2386 -6.41523e-18)
(24.2125 -12.5578 3.28395e-18)
(27.5677 -15.7747 -6.68159e-18)
(29.9267 -19.9997 0)
(30.2236 -24.4355 -2.08573e-17)
(28.2607 -28.5857 4.27872e-17)
(23.8884 -32.1067 0)
(17.6005 -34.3604 0)
(10.0441 -35.485 0)
(2.01512 -35.2113 1.10407e-17)
(-5.90748 -34.2118 -4.0632e-20)
(-13.0959 -31.3178 -8.90792e-20)
(-19.9548 -7.60801 -1.24194e-16)
(-17.2217 60.3982 -3.15425e-16)
(11.2788 23.7107 -5.62352e-19)
(-21.7359 -43.6765 2.52217e-16)
(2.00521 -16.9798 0)
(33.6857 -21.722 -1.56751e-17)
(31.723 -22.5766 0)
(29.1895 -22.7878 0)
(25.6709 -23.1184 7.74248e-18)
(21.2483 -23.5532 -1.53269e-17)
(15.8646 -24.2157 0)
(9.60654 -25.4484 7.45696e-18)
(2.86174 -26.5441 0)
(-4.52483 -27.54 -1.8124e-18)
(-12.1588 -28.4897 1.78887e-18)
(-19.4418 -29.069 -8.81388e-18)
(-25.708 -28.5945 -8.91962e-21)
(-30.2525 -26.7716 -3.42709e-18)
(-32.6069 -23.8277 6.76801e-18)
(-32.7459 -20.2665 5.00638e-18)
(-30.9059 -16.4327 -4.92603e-18)
(-27.8485 -13.0722 0)
(-24.3723 -10.5065 2.66554e-21)
(-21.033 -8.72079 -2.35802e-18)
(-18.0352 -7.43326 0)
(-15.4444 -6.42076 0)
(-13.2614 -5.57526 7.5381e-19)
(-11.4489 -4.82339 2.22741e-18)
(-9.98237 -4.16933 -1.46035e-18)
(-8.83427 -3.63376 1.43998e-18)
(-7.97753 -3.23489 -2.82998e-18)
(-7.38201 -2.93477 -6.97322e-19)
(-7.02321 -2.6671 -5.48618e-18)
(-6.87307 -2.36106 2.70341e-18)
(-6.90204 -1.94169 0)
(-7.0903 -1.45875 -5.22685e-18)
(-7.15171 -0.336768 -2.56317e-18)
(-8.68933 -2.02552 0)
(-5.73245 4.02042 2.51794e-18)
(-10.8044 -4.62369 -3.96634e-21)
(-3.6707 9.06676 3.56248e-18)
(-9.83613 -7.81087 3.52905e-18)
(2.21816 13.7478 0)
(-6.60756 -11.9681 -1.17769e-18)
(-9.16057 34.7031 -3.06692e-16)
(1.39052 31.6381 -6.34939e-16)
(-2.69507 -5.41603 1.21046e-16)
(-25.1509 52.4358 -1.20034e-16)
(21.5895 6.29988 5.7806e-16)
(-26.9632 27.271 -3.09315e-19)
(2.91039 -13.011 5.76214e-19)
(11.7825 2.47184 2.90857e-18)
(8.07406 -5.62059 -2.36755e-18)
(10.4085 2.3087 0)
(10.0537 -1.87392 0)
(9.79703 0.855732 0)
(10.0358 -0.277065 0)
(9.51241 0.539539 6.48646e-19)
(9.35349 0.309189 -3.28945e-19)
(9.01878 0.270827 1.67172e-19)
(8.71979 -0.0799491 -1.0216e-18)
(8.46645 -0.627783 6.89242e-19)
(8.31401 -1.32885 3.51455e-19)
(8.30445 -2.14365 -5.33416e-19)
(8.48689 -3.08048 0)
(8.91074 -4.15173 9.59163e-22)
(9.61375 -5.3619 -3.71383e-19)
(10.6283 -6.69054 3.77999e-19)
(12.0027 -8.10372 7.66953e-19)
(13.7851 -9.59946 -8.75882e-19)
(15.9471 -11.3003 8.87861e-19)
(18.458 -13.423 -2.40368e-18)
(21.2039 -16.198 -4.88849e-18)
(23.7594 -19.8016 3.31255e-18)
(25.605 -24.4697 0)
(26.0524 -29.7071 -1.12892e-20)
(24.651 -35.1461 -2.1052e-17)
(21.2694 -40.0883 1.77891e-17)
(16.0978 -43.9748 -3.60385e-18)
(9.66828 -46.617 0)
(2.53235 -47.4823 -3.63477e-18)
(-4.81635 -47.3991 5.08222e-17)
(-11.8303 -45.1861 -2.85772e-17)
(-19.9612 -29.1796 1.17408e-16)
(-21.848 58.1478 6.40716e-16)
(15.1104 15.0901 -7.90778e-19)
(13.5194 17.0809 -3.10743e-19)
(15.3388 15.6213 1.62755e-18)
(17.1136 16.774 2.64042e-19)
(11.1512 19.21 0)
(-5.42978 17.8987 -5.53757e-19)
(-5.03166 12.5209 5.50475e-19)
(-4.18903 -6.95148 -8.20017e-19)
(-8.70993 -4.18741 -1.93001e-18)
(-8.17808 1.87129 2.20909e-18)
(-6.2185 8.30975 0)
(0.478188 12.9114 -1.07784e-18)
(1.01296 13.9175 3.29459e-18)
(4.71036 20.3651 -2.23701e-18)
(6.79154 13.4712 -1.09081e-18)
(9.08245 11.7556 1.67563e-18)
(12.0212 -3.75106 -2.23765e-18)
(-22.8964 50.3008 6.14642e-16)
(28.1472 -4.06689 -2.6314e-16)
(31.9772 -8.3074 2.6515e-16)
(34.3265 -13.6921 5.25246e-16)
(35.1829 -19.5976 2.46501e-16)
(-10.4982 78.3569 -8.43048e-19)
(-26.1449 55.4847 1.80093e-16)
(19.8148 -34.1116 0)
(-19.3878 -47.4303 0)
(32.1469 -32.014 0)
(29.8619 -33.2163 3.93208e-18)
(27.1528 -34.5389 -7.79698e-18)
(23.6371 -35.8486 3.16888e-20)
(19.3203 -37.0965 2.28801e-17)
(14.1417 -38.3104 -1.50686e-17)
(8.16398 -39.7606 2.78238e-20)
(1.66592 -40.5369 7.32406e-18)
(-5.12119 -40.5756 -1.26554e-17)
(-11.946 -40.2525 1.75468e-18)
(-18.1585 -39.1973 7.02006e-18)
(-23.3089 -36.9174 -1.74061e-18)
(-26.8556 -33.5316 1.7216e-18)
(-28.4816 -29.2042 -5.06624e-18)
(-28.3374 -24.489 1.66786e-18)
(-26.7959 -20.0562 4.9382e-18)
(-24.4914 -16.3516 -3.24389e-18)
(-21.8934 -13.5143 3.19648e-18)
(-19.3544 -11.4215 1.18375e-18)
(-17.0106 -9.81897 2.72421e-18)
(-14.9056 -8.47385 -3.44969e-18)
(-13.1029 -7.30766 2.26492e-18)
(-11.5668 -6.26771 -4.09776e-18)
(-10.2951 -5.33403 -2.92901e-18)
(-9.27968 -4.53303 2.89218e-18)
(-8.51423 -3.87463 1.41991e-18)
(-7.97542 -3.33138 -1.39764e-18)
(-7.65355 -2.83019 0)
(-7.53768 -2.30685 -2.70405e-18)
(-7.60179 -1.6737 1.32638e-18)
(-7.86196 -1.21175 -2.61342e-18)
(-7.58749 0.837518 -3.85356e-18)
(-9.81734 -2.30713 -2.5489e-18)
(-6.44604 5.9334 -4.97269e-18)
(-11.3598 -3.78108 1.23548e-18)
(-4.95171 10.9991 -1.16884e-18)
(-10.1337 -7.39136 -2.33862e-18)
(1.30887 15.5996 0)
(-7.21647 -12.9113 0)
(12.851 18.9354 0)
(-3.51364 -5.75275 0)
(-24.9866 -1.95627 -5.18321e-19)
(-25.925 54.6899 6.53485e-16)
(-13.9993 27.8106 3.08773e-16)
(5.80294 23.0813 3.16845e-16)
(-4.20606 29.1184 6.25031e-16)
(-16.3137 69.0702 -3.11302e-16)
(-4.07016 -6.18882 -1.03296e-16)
(-5.09006 -12.9342 0)
(-15.4573 75.8523 -3.49815e-16)
(-29.8318 32.01 -1.40142e-16)
(-18.4781 -43.5079 -5.18687e-17)
(-4.7553 85.11 -9.13278e-16)
(-13.357 -17.9532 3.28399e-16)
(-24.1744 -38.4221 2.51034e-16)
(-7.43265 -10.9807 -5.43118e-17)
(17.277 -3.78852 -1.11201e-18)
(12.9791 -11.7926 -2.87227e-19)
(13.8435 1.69393 -8.86154e-19)
(10.7823 -4.3839 1.34457e-21)
(11.5657 2.57272 0)
(11.247 -0.963707 0)
(10.743 1.57005 0)
(10.7429 0.233995 -1.59795e-19)
(10.1372 1.17829 -2.03127e-19)
(9.87899 0.758879 2.05542e-19)
(9.49602 0.735216 -1.67842e-19)
(9.19212 0.307535 4.25508e-19)
(8.93627 -0.327386 -5.18886e-19)
(8.76892 -1.16691 0)
(8.71751 -2.16033 0)
(8.81337 -3.29255 0)
(9.09739 -4.57878 0)
(9.59427 -6.02927 0)
(10.3192 -7.6474 0)
(11.3257 -9.40049 -1.91939e-19)
(12.6558 -11.238 7.78044e-19)
(14.2754 -13.251 0)
(16.0995 -15.65 -2.00313e-18)
(18.045 -18.5916 3.6582e-18)
(19.8335 -22.2046 3.30256e-18)
(21.1232 -26.7731 0)
(21.4172 -32.0708 1.02746e-17)
(20.3872 -37.7833 -1.04529e-17)
(17.8701 -43.2354 -3.50756e-18)
(13.7962 -47.9362 7.12563e-18)
(8.52987 -51.3856 -1.07937e-17)
(2.55177 -53.3187 5.43697e-18)
(-3.89399 -53.4797 -1.4413e-17)
(-9.67604 -52.6464 3.59115e-18)
(-16.689 -49.5489 1.12583e-16)
(-26.61 48.3805 3.4248e-16)
(22.6538 -13.7211 5.01982e-16)
(16.2194 -13.0991 2.46288e-16)
(-5.46027 -20.694 0)
(-1.15547 -19.1436 -2.12698e-21)
(-0.466362 -21.7414 -5.70753e-19)
(-4.69508 -9.82654 -2.80944e-19)
(-6.15217 6.05906 -6.7709e-20)
(-3.61441 1.77598 6.70293e-20)
(-13.1678 -21.3893 0)
(-11.5921 -22.0761 0)
(-3.13401 -23.6482 8.38874e-19)
(0.511215 -29.9817 -2.16138e-18)
(8.03399 -30.2068 2.74694e-18)
(16.9455 -38.9695 0)
(-8.99945 -33.6042 -2.16785e-18)
(-18.2219 -29.7467 2.17629e-18)
(-8.53768 -22.1804 5.65821e-19)
(-5.64249 -28.1427 5.63139e-19)
(0.62649 -32.3761 0)
(15.9289 -27.933 0)
(13.0252 65.8594 0)
(28.3238 -10.5059 2.5408e-16)
(31.8653 -14.4074 0)
(33.7499 -19.0757 -5.19579e-16)
(34.4467 -24.0174 2.59081e-16)
(33.9948 -29.1567 4.65091e-16)
(2.44636 -18.6266 -8.65161e-17)
(7.39891 6.84487 3.04449e-16)
(29.9748 -37.9155 8.29613e-18)
(29.0519 -38.8064 -6.46765e-17)
(27.1381 -40.5874 2.77516e-17)
(24.4959 -41.9774 -3.14034e-17)
(21.1399 -43.5872 -1.3505e-17)
(17.1055 -44.9299 1.91048e-17)
(12.4345 -46.0635 3.73922e-18)
(7.04837 -47.1946 -1.85443e-17)
(1.04347 -47.6502 1.09942e-17)
(-4.70199 -46.8478 0)
(-10.4091 -45.523 -8.92951e-18)
(-15.5157 -43.4015 5.25919e-18)
(-19.5624 -40.0904 8.68477e-18)
(-22.2859 -35.9287 1.72668e-18)
(-23.6353 -31.2276 -6.76368e-18)
(-23.6329 -26.4585 -3.3395e-18)
(-22.6406 -22.1166 0)
(-21.0715 -18.497 0)
(-19.2551 -15.6445 -8.01625e-19)
(-17.4171 -13.4458 -3.95329e-19)
(-15.6752 -11.6905 3.89823e-18)
(-14.0611 -10.1472 7.70106e-19)
(-12.6485 -8.76478 -2.65032e-18)
(-11.418 -7.52837 -1.70184e-22)
(-10.3656 -6.39627 0)
(-9.50496 -5.38985 0)
(-8.83921 -4.52206 -2.84397e-18)
(-8.37393 -3.76242 4.21062e-18)
(-8.09868 -3.03969 -1.37896e-18)
(-8.00868 -2.29417 8.15588e-21)
(-8.08216 -1.43494 1.34161e-18)
(-8.40062 -1.20967 1.31326e-18)
(-7.80289 2.03735 7.72117e-18)
(-10.4238 -2.37819 0)
(-7.12328 7.34576 3.6984e-18)
(-11.589 -2.8988 -3.66552e-18)
(-6.20238 12.7648 2.32645e-18)
(-10.4792 -7.40118 -2.39529e-18)
(-0.720265 18.3059 2.28696e-18)
(-5.99178 -15.682 0)
(11.4676 23.5927 0)
(-0.437707 -28.6337 -1.16572e-18)
(-28.0631 39.0707 6.06636e-16)
(-25.2321 -22.8545 -1.2111e-16)
(16.4893 -6.32934 -2.58333e-16)
(-27.2975 21.8828 6.0712e-16)
(-22.6904 21.3598 2.34739e-19)
(-17.8335 19.9455 6.19699e-16)
(-28.7906 4.50541 1.34039e-16)
(9.49073 14.4262 -6.76554e-16)
(-9.23718 24.5528 0)
(0.435472 21.977 0)
(-6.78883 -15.6103 -5.96312e-17)
(-26.5223 -10.6887 -3.11267e-16)
(1.90404 -15.1471 2.4008e-17)
(-14.8692 78.8139 -5.43646e-16)
(-17.2536 -51.1786 -6.07129e-17)
(-29.7585 43.4607 -3.79076e-16)
(-1.30228 -4.59509 0)
(-2.05765 -4.79321 -5.31373e-17)
(-12.5466 -53.1484 0)
(-8.17727 -54.7788 1.85138e-18)
(-3.02746 -55.2961 3.64593e-18)
(2.2431 -54.4541 1.35265e-18)
(7.02266 -52.0295 2.23944e-19)
(11.2121 -48.3258 0)
(14.3788 -43.5359 4.37847e-18)
(16.3504 -38.2536 -4.32581e-18)
(17.2311 -32.869 1.70242e-18)
(17.1295 -27.9348 -3.34452e-18)
(16.296 -23.6925 8.19817e-19)
(15.0869 -20.2095 0)
(13.7384 -17.2386 1.60085e-18)
(12.4489 -14.7124 -7.90277e-19)
(11.2969 -12.5113 7.77614e-19)
(10.3616 -10.4308 -1.34342e-18)
(9.66567 -8.44223 1.53748e-18)
(9.17605 -6.62284 -3.76209e-21)
(8.85834 -4.9887 -7.83448e-19)
(8.69477 -3.53611 3.60879e-19)
(8.66415 -2.25071 -4.01405e-19)
(8.7324 -1.11802 0)
(8.87658 -0.159225 1.72845e-19)
(9.09045 0.562926 -8.51281e-20)
(9.36629 1.09769 -3.34724e-19)
(9.75493 1.163 2.86417e-19)
(10.1315 1.78878 4.05822e-20)
(10.7401 1.06804 -1.59243e-19)
(11.1602 2.70211 0)
(11.701 0.500423 0)
(12.6757 4.65284 -6.02042e-19)
(11.9775 -2.46894 3.26935e-18)
(15.4221 6.28322 -5.85608e-19)
(13.7997 -9.8171 0)
(20.7122 12.4165 2.20998e-18)
(13.721 -20.6042 -2.0388e-20)
(-4.21854 -5.8449 2.8041e-16)
(24.3323 43.2094 9.87764e-19)
(23.6793 22.2774 0)
(25.0568 16.2381 -2.79915e-19)
(28.6228 26.2744 2.8548e-19)
(27.4335 34.8632 6.52337e-19)
(14.9311 38.97 -5.25611e-19)
(-11.071 36.6248 1.26645e-19)
(-11.5122 36.2469 2.4625e-19)
(-5.55355 -4.8442 1.87164e-18)
(-14.8683 3.93059 -2.61062e-18)
(-8.73126 10.4145 -2.11872e-18)
(-17.7007 7.55466 2.09522e-18)
(-6.99031 43.7721 -2.42533e-19)
(-3.68551 54.3218 4.91529e-19)
(-2.33668 33.1372 -2.12907e-18)
(-3.21945 8.42067 -5.05976e-19)
(2.2411 20.1009 2.13102e-18)
(10.3429 -3.23504 0)
(6.97367 2.24426 9.83164e-19)
(19.0012 41.6993 -4.992e-19)
(-31.1524 35.1107 3.15789e-16)
(-24.0158 -37.6 -1.06252e-16)
(-31.2405 20.4994 -2.97944e-16)
(-4.55083 -6.80288 0)
(-3.19366 -5.9303 0)
(-1.80104 -5.31988 -1.00779e-16)
(-0.510004 -4.558 -2.53065e-17)
(0.662726 -3.85297 -3.14661e-17)
(0.0356501 -3.86111 -7.63559e-17)
(-0.638407 -4.14781 1.04657e-16)
(-1.2876 -4.57843 5.62657e-17)
(-18.1499 -45.4962 0)
(-6.74675 -6.95387 -5.45987e-17)
(-29.5681 -11.999 5.69487e-19)
(-21.3818 -16.8817 2.80775e-16)
(-23.3619 -15.4261 -2.67534e-16)
(-29.5797 13.0513 -3.04979e-16)
(-25.2716 12.9209 0)
(-20.5364 11.9599 0)
(-31.7207 10.6044 2.84256e-16)
(-31.8607 27.7498 5.96826e-16)
(-6.14646 -9.87983 -7.58971e-17)
(27.6188 -15.6326 2.56907e-16)
(30.694 -18.785 -2.61594e-16)
(32.179 -22.5635 0)
(32.4447 -26.6442 -5.45182e-16)
(31.758 -30.65 2.71039e-16)
(31.239 -34.705 -3.5724e-16)
(24.6578 -35.26 -2.22668e-16)
(28.3868 -40.0131 6.87631e-17)
(27.6075 -41.6599 -7.58965e-17)
(26.2219 -43.2906 3.2932e-17)
(24.2472 -44.676 -3.21888e-17)
(21.8141 -46.0142 0)
(18.7491 -47.3193 -1.93428e-18)
(15.1683 -48.308 -2.85238e-18)
(11.0708 -48.971 1.12637e-17)
(6.39432 -49.6629 3.68944e-18)
(1.16675 -49.7429 -1.83009e-17)
(-3.68672 -48.4606 7.22421e-18)
(-8.25622 -46.4442 8.91536e-18)
(-12.3969 -43.8114 -7.03252e-18)
(-15.6167 -40.2527 4.34914e-18)
(-17.8298 -36.0772 -4.2837e-18)
(-19.0052 -31.6099 -1.69955e-18)
(-19.2429 -27.2367 5.00548e-18)
(-18.7527 -23.2756 8.2398e-19)
(-17.791 -19.9138 3.25803e-18)
(-16.5934 -17.1701 -3.20159e-18)
(-15.3343 -14.9711 0)
(-14.1158 -13.1718 -7.80206e-19)
(-12.9589 -11.5496 -3.84638e-19)
(-11.9173 -10.0575 -3.7899e-18)
(-10.9979 -8.7157 3.36301e-18)
(-10.1695 -7.45837 -3.68248e-19)
(-9.46751 -6.29783 2.89464e-18)
(-8.90838 -5.25388 -5.35157e-18)
(-8.51685 -4.30381 2.81477e-18)
(-8.2807 -3.38322 1.38133e-18)
(-8.19357 -2.44126 6.78565e-19)
(-8.2521 -1.33257 -1.32173e-18)
(-8.57721 -1.44284 3.93473e-18)
(-7.90708 3.08009 -3.85909e-18)
(-10.4926 -2.44071 -1.24677e-18)
(-7.47698 8.4536 -3.704e-18)
(-11.5968 -2.13853 4.88978e-18)