/*--------------------------------*- C++ -*----------------------------------*\
| =========                 |                                                 |
| \\      /  F ield         | OpenFOAM: The Open Source CFD Toolbox           |
|  \\    /   O peration     | Version:  2212                                  |
|   \\  /    A nd           | Website:  www.openfoam.com                      |
|    \\/     M anipulation  |                                                 |
\*---------------------------------------------------------------------------*/
FoamFile
{
    version     2.0;
    format      ascii;
    arch        "LSB;label=32;scalar=64";
    class       surfaceScalarField;
    location    "0.0426";
    object      phi;
}
// * * * * * * * * * * * * * * * * * * * * * * * * * * * * * * * * * * * * * //

dimensions      [1 0 -1 0 0 0 0];

oriented        oriented;

internalField   nonuniform List<scalar> 
4475
(
-1.68421e-05
2.86346e-05
-0.000120207
0.00010528
5.89218e-06
-4.74274e-05
-9.18988e-07
4.97771e-05
-0.000147851
0.000172206
-2.2431e-05
1.79947e-07
-4.41373e-05
-0.000308017
7.1333e-05
0.000277255
-0.000127499
0.000170197
0.000118994
-0.000166637
5.38419e-05
-0.000191315
-7.79538e-05
0.000211394
3.32548e-05
-8.61753e-05
0.000220384
-0.000173226
-0.000106839
-6.63408e-05
0.000149182
1.86649e-05
0.000125629
-0.000122264
-0.000135904
-0.000787658
-3.21388e-05
0.000105091
0.00071294
-0.000139435
9.88413e-05
-0.000749592
-0.000760565
0.000124228
-0.000105864
0.000738594
-0.00072804
4.39573e-05
-8.04303e-05
-0.000683871
3.11942e-05
-7.94815e-05
-0.000630794
2.63115e-05
-8.3559e-05
-0.000571833
2.50167e-05
-8.80177e-05
2.80399e-05
-0.000499698
-0.000103956
0.000506874
-5.93259e-05
-0.000449707
-1.19437e-06
0.000591112
-5.97477e-05
0.000653078
-4.07788e-05
0.00070797
-3.24979e-05
0.00075799
-2.27275e-05
0.000807455
-9.45513e-06
0.000923572
4.3723e-06
0.000831333
-4.98938e-05
0.000796155
1.23723e-06
0.00100235
9.47062e-05
-0.000301361
0.000927544
5.67392e-05
2.18388e-05
0.000301212
-0.00025361
-2.13033e-05
-0.000442856
-0.000119844
0.00087932
6.03967e-05
-1.7462e-06
0.000822823
6.73657e-05
3.24375e-06
0.000754233
7.19336e-05
1.38802e-05
0.000674154
7.34699e-05
2.56634e-05
0.000593979
6.93528e-05
3.59232e-05
0.000512476
6.61001e-05
4.03651e-05
0.000436045
6.29623e-05
3.70199e-05
0.000369425
6.31602e-05
2.51108e-05
0.000315413
6.81226e-05
5.84082e-06
0.000272196
7.68897e-05
-1.68928e-05
0.000236084
8.65401e-05
-3.98123e-05
0.000200075
9.6684e-05
-6.09028e-05
0.000157175
0.000104623
-7.84567e-05
0.000106301
0.000111888
-9.28302e-05
0.000110327
4.57877e-05
-9.85166e-05
-0.000109195
4.4574e-05
0.000117953
-0.000162492
0.000126569
-0.000207734
0.000127001
-0.000244876
0.00012894
-0.00028013
0.000130728
-0.000320117
0.00013407
-0.000369767
0.000139138
-0.000433609
0.000150222
-0.000504481
0.000158598
-0.000579261
0.000166617
-0.000655285
0.000171224
-0.000727225
0.000165455
-0.000789389
0.000152146
-0.000839346
0.000131745
-0.000880417
0.000112975
-0.00093752
0.000118419
-0.000718945
0.000192825
-0.000411211
-0.000729425
0.000114134
-0.000670494
3.79345e-05
-0.000650148
-3.50504e-05
1.21678e-05
-0.000663091
-9.60591e-05
-0.000633509
-0.000113661
-0.000592299
-0.000124583
-0.000544664
-0.000135306
-0.000490636
-0.000145849
-0.000442706
-0.000155673
0.000113355
-0.000102824
-2.22133e-05
0.000119598
-1.94416e-05
0.000530148
-0.000147208
-0.00044648
0.000592717
-0.000106968
0.000649522
-9.26791e-05
0.000701629
-7.81155e-05
0.000754144
-6.49763e-05
0.000807485
-5.15161e-05
0.000800313
-4.45285e-05
0.000810935
-1.06637e-05
0.000870049
3.57107e-05
0.000856676
3.86883e-05
0.000816264
4.78132e-05
0.000762261
7.14746e-05
0.000693799
9.80984e-05
0.000617407
0.000120235
0.000540512
0.000136347
0.000464346
0.000140242
0.000394599
0.000128544
0.000333957
0.000105517
0.000284894
7.28151e-05
0.000245757
3.73584e-05
0.000213173
3.38071e-06
0.000181162
-2.61185e-05
0.000144277
-5.11134e-05
9.7856e-05
-7.11162e-05
4.41207e-05
-8.27417e-05
-6.53503e-05
-0.000407758
1.98264e-05
-8.73693e-05
-2.09573e-05
-0.000142884
-0.000368899
-0.000395201
-0.00017123
-4.12548e-05
-1.37592e-05
0.000124486
-0.000104987
0.000122567
-0.000157995
0.00013538
-0.000203634
0.000144188
-0.000239628
0.000154965
-0.000270116
0.000166795
-0.000302482
0.000182482
-0.000342939
0.000201297
-0.000390564
0.000221797
-0.000446972
0.000240413
-0.000508521
0.000254495
-0.000567908
0.000256823
-0.000626466
0.000245212
-0.000677036
0.00022138
-0.000717696
0.000187907
-0.000742359
0.00015016
-0.000740578
0.000122554
-0.000653453
0.000107135
-0.000598234
5.83387e-05
-0.000560619
-9.82241e-07
-0.000533614
-6.44509e-05
-0.00051777
-0.000114808
-0.000489859
-0.000144903
-0.000453995
-0.000164155
-0.000416042
-0.000176651
-0.000376906
-0.000188499
-0.000340529
-0.000195735
-0.000101536
4.71624e-06
-1.70544e-05
0.00017158
-5.19872e-05
-0.000146693
2.42202e-05
-0.000189208
-3.29594e-05
0.000214932
4.09662e-06
3.32208e-05
0.000434241
-0.000123361
2.84268e-05
-0.00034371
0.000436194
-0.000153143
0.00048039
-0.000154333
0.000527095
-0.000142087
0.00057409
-0.000127491
0.000617234
-0.000110118
0.000653345
-8.91377e-05
0.000670008
-6.21058e-05
0.000681645
-2.25669e-05
0.000699057
1.92112e-05
0.00069048
5.10207e-05
0.000660316
8.62749e-05
0.000614889
0.000130475
0.000557079
0.000170018
0.0004929
0.000201802
0.000429815
0.000220392
0.000370794
0.000221237
0.000316336
0.000203035
0.000271287
0.000168231
0.000235
0.00012464
0.000205763
7.9534e-05
0.000179523
3.92219e-05
0.000153571
4.23846e-06
0.00012386
-2.52185e-05
8.57149e-05
-4.84363e-05
4.13552e-05
-6.48827e-05
-1.52595e-05
-6.91581e-05
8.07918e-05
-6.3566e-05
-7.29205e-05
8.78838e-05
-7.45854e-05
9.32715e-05
-7.5135e-05
9.98016e-05
-6.27347e-05
-0.00012216
0.000152783
-0.000103158
-4.29089e-05
0.000109172
5.94168e-05
-4.78195e-05
-0.000121512
0.000150916
-8.60971e-05
-0.000157677
8.66497e-05
-0.000196643
-0.00034544
-2.15221e-05
-2.26149e-05
0.000108173
-6.97398e-05
0.000159269
0.000154124
-0.000148886
-0.000456144
-3.70395e-05
8.08186e-05
-0.00031175
-0.000204015
8.35663e-05
-6.88103e-05
-0.000117637
0.00010168
-0.000132998
0.000118744
-0.000123451
0.000131807
-9.08305e-05
0.000144869
-5.25849e-05
2.17905e-05
0.000157449
-2.33052e-05
3.83505e-06
0.000121255
-3.68904e-05
0.000129413
-9.46613e-05
0.000125966
-0.000146995
0.000140626
-0.000188223
0.000154655
-0.000223141
0.000172319
-0.000246589
0.000192276
-0.000267344
0.000216537
-0.000290252
0.000244737
-0.000318501
0.000273854
-0.00035269
0.00030007
-0.000389361
0.000317352
-0.000426671
0.000319922
-0.000463309
0.000304081
-0.000494904
0.000271835
-0.000518445
0.000227951
-0.000528202
0.000173276
-0.000516856
0.000118971
-0.000477621
7.1168e-05
-0.000438852
2.05888e-05
-0.000400419
-4.00947e-05
-0.000372535
-9.3902e-05
-0.000349238
-0.000140197
-0.000323191
-0.000173711
-0.00029536
-0.000194753
-0.0002664
-0.000208622
-0.000241075
-0.000217125
-0.000218997
-0.000221439
-0.000114023
6.39201e-05
-0.000247869
0.000293059
-1.16337e-06
5.5072e-05
-6.46167e-05
9.2541e-06
0.000207106
-0.000188824
9.59842e-05
3.68543e-05
-0.000128642
9.10408e-05
8.16049e-05
-0.000125801
7.57573e-05
0.000121267
-0.00013126
0.000156228
-0.000142228
0.000102189
0.000191734
-0.000154084
0.000230696
-0.000165923
0.000122925
0.000277083
-0.00017328
0.000304427
-0.000183479
0.000334532
-0.000186823
0.000368519
-0.000177962
0.000403235
-0.000163681
0.000433805
-0.000141722
0.00045852
-0.000114397
0.000472496
-7.60798e-05
0.000481335
-3.05061e-05
0.000484584
1.78163e-05
0.000473891
6.59573e-05
0.000447071
0.000121083
0.000411243
0.000178349
0.000369494
0.000225259
0.000325096
0.000262407
0.000283684
0.000279938
0.000247706
0.000276954
0.000217616
0.000250611
0.000193847
0.000207813
0.000174965
0.000156907
0.000157096
0.000108452
0.000139786
6.51755e-05
0.000121594
2.77736e-05
9.9162e-05
-2.64446e-06
7.00487e-05
-2.63432e-05
3.54089e-05
-4.53207e-05
-1.1411e-05
-5.12061e-05
-5.06341e-05
-6.46193e-05
-6.01397e-05
-9.4032e-05
-3.68701e-05
-0.00018241
0.000146569
7.58602e-05
-6.86402e-05
9.89887e-05
0.000110841
-0.000122224
3.47428e-05
-1.36032e-05
0.00016541
-0.000268186
-0.000125779
0.000224489
0.000119521
1.90067e-05
-3.75166e-05
-9.99986e-05
0.00010506
-8.99749e-06
-0.000215433
-0.000297429
-0.000310415
-9.56621e-06
0.000378876
3.7573e-06
3.86448e-06
0.000165506
-4.5541e-06
0.000136725
-3.31035e-05
0.000136006
-8.19693e-05
0.000130253
-0.000129339
0.000143092
-0.000167141
0.000159876
-0.000197269
0.000181378
-0.000215785
0.000206356
-0.000224787
0.000235214
-0.000229638
0.00026769
-0.000234808
0.00030165
-0.000242373
0.000332474
-0.000251815
0.000352354
-0.000263197
0.000356383
-0.000275341
0.000339316
-0.000287773
0.000303846
-0.000294697
0.000252281
-0.00029593
0.00018875
-0.000287473
0.00011993
-0.000267423
5.65114e-05
-0.000240458
-3.62133e-06
-0.00021492
-6.48024e-05
-0.000192794
-0.00011656
-0.000173353
-0.000161248
-0.00015351
-0.000195504
-0.000133473
-0.000217141
-0.000115264
-0.000229587
-0.000102189
-0.000233349
-9.22767e-05
-0.000232515
-0.000219121
-0.000210413
-7.72485e-05
-5.68392e-05
0.000106896
-1.40034e-05
0.000203403
-0.000213469
1.8294e-05
-1.37184e-05
-0.000131196
9.81558e-06
1.99782e-06
-0.000147354
2.53523e-05
-0.000159835
5.04541e-05
-0.000172035
7.57422e-05
-0.000183446
0.000101027
-0.000194668
0.000127229
-0.000202309
0.000149394
-0.000207725
0.000169314
-0.000208157
0.000191373
-0.000200871
0.000211637
-0.000184371
0.000229998
-0.00016014
0.00024245
-0.000126461
0.000250011
-8.26916e-05
0.000252431
-3.10942e-05
0.000248075
2.50451e-05
0.000235115
8.38554e-05
0.000214889
0.000149012
0.000192413
0.000211392
0.00016776
0.000262922
0.000147231
0.000297289
0.000131304
0.000312159
0.000122317
0.000302595
0.000118108
0.000270653
0.000116368
0.000223582
0.000112718
0.000172478
0.000107019
0.000124224
9.93732e-05
8.12955e-05
8.86033e-05
4.51754e-05
7.34914e-05
1.60998e-05
5.3412e-05
-6.66726e-06
2.77803e-05
-2.60122e-05
-1.03155e-05
-3.82196e-05
-3.90532e-05
-5.31066e-05
-7.69054e-05
-5.49901e-05
7.45682e-05
-7.69981e-05
-0.000105443
7.01616e-05
-0.000123018
7.26318e-05
-0.000151145
8.23148e-05
-0.000163992
9.64111e-05
-0.000144856
0.000112272
-0.000106742
0.000125991
-6.79361e-05
0.000135949
-4.13261e-05
-2.06782e-05
0.000145383
0.000111331
-1.28612e-05
2.06383e-05
-1.96584e-05
1.70898e-05
0.000162578
-0.000152294
3.29001e-05
-1.81624e-05
1.75345e-05
-3.18945e-05
6.32843e-05
-3.38281e-05
-5.814e-06
-0.000110243
9.55146e-05
1.09803e-05
-1.759e-05
-2.98053e-05
-9.301e-05
-0.000222469
-0.000212562
-0.000217824
-5.56731e-05
-2.40742e-05
-1.6957e-06
2.82857e-05
-4.39009e-05
7.35226e-05
3.73637e-05
1.97163e-05
-1.41296e-05
-4.54753e-05
0.000137344
0.000223614
-8.53214e-05
8.82247e-05
-0.00013971
-7.69228e-05
-0.000161148
-6.48465e-05
-0.000176809
-5.11939e-05
-0.000189925
-3.78241e-05
-0.00020037
-2.52833e-05
-0.000209974
-1.31952e-05
-0.000216404
-2.31301e-06
-0.000219932
6.66259e-06
-0.000217943
1.45164e-05
-0.000209008
2.16786e-05
-0.000191387
2.62354e-05
-0.000164179
2.75159e-05
-0.000126733
2.62408e-05
-7.97353e-05
2.27369e-05
-2.50487e-05
1.57726e-05
3.57432e-05
5.21492e-06
0.000100028
-5.04237e-06
0.000166536
-1.23846e-05
0.000228452
-1.60007e-05
0.000278214
-1.23511e-05
0.000306676
-1.79139e-06
0.000315786
1.41869e-05
0.000301232
3.17465e-05
0.000267059
4.60301e-05
0.000221742
5.54331e-05
0.000174025
6.04167e-05
0.000129161
6.07939e-05
8.99865e-05
5.69005e-05
5.73368e-05
4.87274e-05
3.06007e-05
3.61975e-05
9.04919e-06
1.59985e-05
-9.19271e-06
-1.49926e-05
-2.55763e-05
-3.3134e-05
-4.00341e-05
-7.20358e-05
-5.28173e-05
-9.76341e-05
-7.8009e-05
8.43249e-05
-9.64237e-05
-0.000112918
6.96261e-05
-0.0001183
6.60789e-05
-0.000143308
9.32915e-05
-0.000193331
0.000131271
-0.00020015
0.000162666
-0.000160779
0.000179135
-0.000102908
0.000179376
-5.01362e-05
0.000167876
-2.81588e-05
0.000153045
-2.475e-05
4.99547e-06
-1.89383e-05
0.000141131
-2.01638e-05
0.000162348
-1.63528e-05
0.000161778
-1.39853e-05
0.000154052
-3.19069e-05
0.000141571
-6.98309e-05
0.000135706
-0.000109275
0.000144757
-0.00014364
0.000161026
-0.000166948
0.00018326
-0.000180563
0.000209658
-0.000179724
0.000239658
-0.000169867
0.000272118
-0.000154013
0.00030639
-0.000136245
0.000338073
-0.000119055
0.000359592
-0.000104172
0.000365922
-9.19637e-05
0.00035026
-8.33237e-05
0.0003158
-7.62665e-05
0.000263236
-7.01963e-05
0.000197695
-6.33542e-05
0.000124225
-5.23957e-05
5.2843e-05
-3.73885e-05
-1.42635e-05
-2.42238e-05
-7.61015e-05
-1.2139e-05
-0.00012831
-9.9267e-07
-0.00017305
9.44344e-06
-0.000207354
1.92405e-05
-0.000229049
2.74224e-05
-0.000240447
3.27943e-05
-0.000241917
-0.000233647
3.01655e-05
-7.15065e-05
-7.94676e-05
9.00956e-05
-0.000210077
-9.9917e-05
-0.000259044
-0.000193762
0.000229711
6.91958e-05
-3.98012e-05
8.35239e-06
-9.83756e-05
6.73948e-05
-1.7904e-05
-0.000125318
-1.23845e-05
-2.32196e-06
-0.000137129
0.000201627
2.97696e-05
-0.000250763
-0.000119068
0.000115005
-0.000150622
-0.000115021
0.000141589
-0.000146506
-0.000149168
-0.000142854
-0.000169802
-0.000140015
-0.000184086
-0.000138034
-0.000195677
-0.000136329
-0.000205039
-0.000135978
-0.000212594
-0.000136113
-0.000217804
-0.000137284
-0.000219541
-0.000139862
-0.000215489
-0.000143835
-0.000204625
-0.000148975
-0.000185443
-0.000155011
-0.000156945
-0.000162113
-0.000117951
-0.000168834
-7.05577e-05
-0.000175515
-1.50961e-05
-0.000181138
4.57238e-05
-0.000185036
0.00010971
-0.000184555
0.000173416
-0.000175759
0.000228964
-0.000158396
0.000271536
-0.000133401
0.00029385
-0.000101939
0.000297331
-6.83243e-05
0.000280245
-3.72243e-05
0.000247855
-1.17559e-05
0.000207696
7.25219e-06
0.000166229
1.92533e-05
0.000127573
2.62696e-05
9.35674e-05
2.90678e-05
6.47111e-05
2.69078e-05
4.078e-05
2.03327e-05
2.07421e-05
3.29211e-06
5.98428e-06
-2.18166e-05
-1.65099e-05
-3.21123e-05
-2.95018e-05
-7.40928e-05
-4.84613e-05
-9.51603e-05
-7.8482e-05
-0.000122396
-9.45226e-05
0.000131944
-0.000127172
-0.000138577
0.000122909
-0.000118212
0.000109413
-0.000121077
9.51128e-05
-0.000142447
9.86841e-05
-0.000202232
0.000109844
-0.000205091
0.000115578
-0.000157
0.000112142
-9.73771e-05
9.68327e-05
-4.58735e-05
9.55493e-05
-3.80859e-05
0.000103111
-3.80734e-05
0.000117157
-3.69383e-05
2.41661e-05
-4.69371e-05
0.000135789
-2.07079e-06
0.000139462
-2.9946e-05
0.000180549
-2.87677e-05
0.000158457
-2.30351e-05
0.000167129
-3.40224e-05
0.000144575
-6.06727e-05
0.000141877
-9.02918e-05
0.000145323
-0.00011925
0.000159143
-0.000137458
0.000179773
-0.000144939
0.000204185
-0.000138367
0.000232418
-0.000118054
0.000262383
-8.79874e-05
0.000293918
-5.23727e-05
0.000323048
-1.36107e-05
0.000344267
2.52619e-05
0.000350174
5.96708e-05
0.000338745
8.88041e-05
0.000308078
0.000111063
0.000259513
0.000126795
0.000197331
0.000137376
0.00012652
0.000145699
5.3958e-05
0.000152132
-1.47116e-05
0.000154874
-7.58072e-05
0.000157233
-0.000129615
0.000156167
-0.000172173
0.000153427
-0.000205835
0.000150639
-0.00022837
0.000147148
-0.000239803
0.000142709
-0.000240962
-0.000232058
0.000137056
2.39863e-05
-0.000220462
-5.30129e-05
-4.63778e-05
-9.12752e-05
-5.72876e-05
6.59473e-05
-1.04245e-05
-4.31259e-05
3.99562e-05
1.15632e-05
1.60249e-05
-0.000206497
0.000152742
-7.31639e-06
5.26874e-05
0.000140399
5.05172e-06
0.000117122
5.84675e-06
-0.000139244
3.83589e-05
-0.000162213
5.38075e-06
-0.000107841
5.42124e-05
-9.71781e-05
-0.000201125
-1.38769e-05
3.75702e-05
9.20335e-05
2.50349e-06
0.000191606
-0.000179874
-0.000156006
0.000139666
-8.82501e-05
7.61294e-05
-8.20104e-05
7.07028e-05
-0.000154428
0.000137574
-0.000274311
0.000209798
-0.000275457
0.000241353
-0.000184666
0.000211887
-8.5559e-05
0.000125305
-4.8848e-06
3.07494e-05
5.90255e-06
7.69832e-07
-4.33193e-05
2.82312e-05
-7.33352e-05
8.09616e-05
-8.75687e-05
5.51709e-05
0.000131873
-8.26e-05
2.49361e-05
0.000161568
-7.08013e-06
0.000146252
-3.84838e-05
0.000193419
-3.78517e-05
0.000157259
-3.26062e-05
0.000177187
-3.82935e-05
0.000145173
-5.44588e-05
0.000147013
-7.4752e-05
0.000144318
-9.70564e-05
0.000154886
-0.00011073
0.000171694
-0.000112954
0.000192907
-0.00010275
0.000217016
-7.73555e-05
0.000243166
-3.97246e-05
0.000269214
7.34932e-06
0.000294216
6.11908e-05
0.000311181
0.000115985
0.000317561
0.00016818
0.000308871
0.000213923
0.000283587
0.000250777
0.000241704
0.000276981
0.000186879
0.000293319
0.000123064
0.000302419
5.56515e-05
0.000304368
-9.2496e-06
0.000300167
-6.7484e-05
0.000295074
-0.000122815
0.000283096
-0.000160078
0.000268871
-0.000192786
0.000253832
-0.000215632
0.000239349
-0.000228526
0.000226964
-0.000232523
-0.000228462
0.000218835
-0.000214686
0.000126839
4.21046e-05
-0.000158211
-7.66805e-05
-3.65805e-05
-1.15621e-05
-0.000202807
-4.77957e-05
3.94755e-05
0.000211136
-0.000115878
-3.36901e-06
0.00011481
5.10903e-06
-0.000185145
-0.000160215
0.000191211
-0.000189142
-0.000170336
-0.00019585
-0.000181349
-0.00020371
-0.000191048
-0.000211893
-0.000199406
-0.000221647
-0.000204567
-0.000231276
-0.000209103
-0.000242868
-0.000208148
-0.000255572
-0.000202351
-0.000269092
-0.000190204
-0.000282958
-0.000170278
-0.000296653
-0.000141492
-0.00030855
-0.000103778
-0.000317568
-5.84072e-05
-0.000323882
-4.93017e-06
-0.00032528
5.19793e-05
-0.000320447
0.000110878
-0.000306404
0.000166642
-0.000283202
0.000214174
-0.000250409
0.000247807
-0.000211028
0.000264231
-0.000167927
0.000264191
-0.000125505
0.000247927
-8.8114e-05
0.000220718
-5.75523e-05
0.000187822
-3.38339e-05
0.000153864
-1.61697e-05
0.00012179
-3.16983e-06
9.2917e-05
5.58924e-06
6.80934e-05
7.94366e-06
4.73286e-05
7.55067e-06
2.79325e-05
-6.28362e-06
1.45508e-05
-2.89482e-05
-4.23671e-06
-3.525e-05
-2.40441e-05
-8.09774e-05
-3.82836e-05
-9.88804e-05
-7.83088e-05
-0.000134075
-8.33324e-05
-0.000137649
-0.000144849
-0.000174899
-0.000153085
-9.18931e-05
-3.54249e-05
3.40988e-05
-4.48862e-05
-6.17168e-05
-0.000167401
-9.27841e-06
-6.08118e-08
0.00017802
-4.83279e-05
-0.000192203
6.8473e-05
3.42041e-06
-0.000192915
5.09389e-05
-4.65711e-05
0.000154057
1.28555e-05
0.000197377
-1.2348e-05
0.000151239
-4.77169e-05
0.000203543
-4.83579e-05
0.000152559
-4.45936e-05
0.00018051
-4.54559e-05
0.000142695
-5.17134e-05
0.000148375
-6.35589e-05
0.00014086
-7.83712e-05
0.000147754
-8.75667e-05
0.000160189
-8.61025e-05
0.000177182
-7.3635e-05
0.000196791
-4.68168e-05
0.000217874
-6.66355e-06
0.000239593
4.50082e-05
0.000256641
0.000104576
0.000269792
0.000167932
0.000274551
0.000230121
0.000267917
0.000287279
0.00024724
0.000334551
0.00021344
0.000370232
0.000167395
0.000393412
0.000113
0.000405806
5.42044e-05
0.000408191
-3.37861e-06
0.000403896
-5.83839e-05
0.000390285
-0.000107109
0.000372047
-0.000141667
0.000351222
-0.000173253
0.000326232
-0.000193244
0.000300608
-0.000206526
0.000279715
-0.000216043
0.000268482
-0.000222228
-0.000211036
0.000210305
0.000206109
-0.000146752
-2.10806e-05
1.95902e-05
-2.16865e-05
0.000224983
-0.000244045
-0.000160885
0.000209629
-0.00015196
0.000192347
-8.75133e-05
0.000168019
-7.76745e-05
0.000142885
-0.000142435
0.000135009
-0.000267795
0.000122952
-0.000258299
0.000109793
-0.00016951
5.78011e-05
-4.72953e-05
-4.57198e-05
6.39548e-05
-6.82502e-05
-1.035e-05
-4.62647e-05
-0.000103192
-1.44034e-05
-0.000120753
3.03145e-05
-0.000132268
9.64631e-05
-0.000140595
0.000203879
-0.000132962
1.92431e-05
-0.000141133
-3.92721e-05
-0.000130364
1.87213e-05
-0.000149215
2.038e-05
-0.000169311
2.03951e-05
2.00975e-05
-0.000219501
0.000105395
0.000246495
-0.000137142
-0.000109571
5.52683e-05
-5.63498e-05
-2.2174e-06
2.88382e-06
-1.26249e-05
0.000252688
-0.000287023
-0.00019865
-0.00014094
0.000175123
-0.000217007
-0.000155879
-0.000233414
-0.000168331
-0.000248855
-0.000178335
-0.000264946
-0.000185316
-0.000280535
-0.000190218
-0.000297965
-0.00019215
-0.000315875
-0.00019003
-0.000334562
-0.000182891
-0.000353708
-0.000169868
-0.000372522
-0.000149871
-0.000389553
-0.00012236
-0.000402815
-8.78152e-05
-0.000411346
-4.63275e-05
-0.000414194
2.15087e-06
-0.000409707
5.25713e-05
-0.000396104
0.000103241
-0.00037259
0.0001499
-0.000339511
0.000188481
-0.000298147
0.000214122
-0.000252731
0.000226671
-0.000206112
0.000225432
-0.000162556
0.000212405
-0.000124544
0.000191402
-9.27505e-05
0.00016596
-6.66448e-05
0.000139197
-4.52181e-05
0.000113251
-2.79856e-05
8.94683e-05
-1.49625e-05
6.85597e-05
-7.20808e-06
5.06734e-05
-2.9137e-06
3.44535e-05
-1.35102e-05
1.7662e-05
-3.54719e-05
8.73363e-06
-4.09262e-05
-2.18111e-05
-8.89233e-05
-2.36033e-05
-0.000105291
-7.78684e-05
-0.000141534
-6.74248e-05
-0.000143853
-0.00015041
-0.000177165
-0.000118903
-0.000158992
-0.000260647
2.54483e-06
-0.000163779
-4.219e-06
-0.000191295
0.00010716
-0.000177504
0.000159316
-8.53729e-05
-9.2104e-06
2.12563e-06
-3.04032e-05
-2.8865e-05
-6.80191e-05
-3.08819e-05
0.00017635
-3.74314e-06
-0.000179503
-0.000155211
-2.26775e-05
0.000144748
0.000279438
-0.000182347
-1.06966e-05
-0.000242283
0.000294083
0.000273209
0.000119519
-0.000151543
-7.89138e-06
0.000114218
1.25946e-05
-0.000126415
0.000180672
6.3516e-05
-0.000115499
-2.24158e-05
0.000173757
3.81256e-05
-0.000183239
-8.87015e-05
0.000111571
0.000209011
-1.59649e-05
9.43326e-05
-3.83016e-05
0.000229089
-3.81591e-05
0.000126624
-6.67068e-05
0.000201521
-6.3839e-05
0.00013887
-5.76401e-05
0.000174029
-5.4482e-05
0.000135265
-5.25764e-05
0.000143651
-5.685e-05
0.000133552
-6.45928e-05
0.000137233
-6.89547e-05
0.00014546
-6.50166e-05
0.000158312
-5.03586e-05
0.000173212
-2.41284e-05
0.000189127
1.58365e-05
0.000205339
6.65926e-05
0.000217454
0.000125708
0.000226041
0.000190213
0.000228472
0.000255632
0.000222374
0.000317129
0.000205677
0.000370505
0.00017855
0.000412588
0.000141552
0.000441571
9.74024e-05
0.000457406
4.91594e-05
0.000461534
7.34823e-07
0.000455281
-4.71448e-05
0.000442177
-9.18833e-05
0.00042193
-0.000121422
0.000397468
-0.000150373
0.000370725
-0.000169526
0.000343202
-0.000183086
0.000313656
-0.000191306
0.000277919
-0.000191706
-0.00019067
0.000220945
2.55127e-06
-0.000132542
0.000123793
-0.000129706
3.19073e-05
-2.95987e-05
2.47133e-05
0.000126746
0.000228571
-0.000137883
-0.000244133
0.000288144
-0.000219999
0.000261993
-0.000139073
0.000161498
-1.06109e-05
5.43633e-05
1.30945e-06
7.148e-05
-0.000177558
0.000193318
-0.000390283
0.000296099
-0.000356271
0.000231062
-9.77883e-05
8.46527e-05
0.00010117
-6.82909e-05
0.000227154
-0.000192049
0.000144779
-0.000222285
-3.35079e-05
-3.31935e-05
-0.000284176
0.000148098
-0.00028749
0.000153408
-0.000145658
-6.16791e-05
7.9352e-05
-0.000187043
0.0002257
-0.000105191
-0.000135746
3.06184e-05
-0.000150256
3.11236e-05
-0.000165052
3.1643e-05
-0.000178006
2.92183e-05
4.40332e-05
-0.000196106
3.5237e-06
1.10016e-06
1.06885e-05
2.39028e-05
-0.000194335
-0.000111206
0.000174958
0.000127341
-0.000214407
-0.000124137
-0.000235638
-0.00013777
-0.000256763
-0.000149958
-0.00027759
-0.000159688
-0.000297667
-0.000166755
-0.000317725
-0.000170983
-0.000338057
-0.000171945
-0.000358706
-0.00016889
-0.000379476
-0.000161149
-0.000399967
-0.000148067
-0.00041908
-0.000129077
-0.000435349
-0.00010388
-0.000447559
-7.27609e-05
-0.000454547
-3.56669e-05
-0.000453318
5.42793e-06
-0.000443831
4.80839e-05
-0.000424674
8.97869e-05
-0.00039607
0.000127363
-0.000358543
0.000157089
-0.000315916
0.000177558
-0.00027106
0.000187593
-0.000227023
0.000186969
-0.000186591
0.000177851
-0.000150828
0.000162694
-0.00011976
0.000143803
-9.27601e-05
0.000123336
-6.90975e-05
0.000102941
-4.86958e-05
8.37997e-05
-3.20246e-05
6.66484e-05
-2.01514e-05
5.17146e-05
-1.31897e-05
3.73475e-05
-1.86576e-05
1.91915e-05
-3.75638e-05
1.69765e-05
-4.21385e-05
-2.02378e-05
-8.18964e-05
-1.35338e-05
-9.82825e-05
-7.71381e-05
-0.000120628
-5.7828e-05
-0.000121801
-0.000154695
-0.000129382
-0.000100305
-0.000115045
-0.000268444
-0.000145406
-0.000107835
-2.71625e-05
-0.00012061
5.01476e-06
-0.000173224
0.000187589
-1.40545e-05
8.75881e-05
4.54766e-05
-6.32421e-05
-8.21961e-05
0.000101079
3.05573e-05
-8.07431e-05
9.64459e-05
-7.4073e-05
1.99164e-05
9.09775e-05
-0.000180997
6.47923e-06
-1.07019e-05
-6.71335e-05
-3.97198e-05
-2.18009e-05
-0.000161443
0.00015949
-1.41449e-05
-0.000115447
-1.72411e-06
1.11697e-05
0.000113865
0.000137206
-0.000124239
7.5488e-06
0.00031557
-6.63824e-05
-0.000276273
0.000129249
-0.000132697
4.73227e-07
0.000132135
-0.000171089
0.000173684
-2.04546e-06
-1.55356e-06
-0.000165557
-0.000304928
-0.000166857
-0.00033235
-0.000169524
-0.000362365
-0.000166363
-0.000391671
-0.000158259
-0.000419595
-0.000145091
-0.000444139
-0.000127845
-0.000460648
-0.000105212
-0.00047608
-7.4589e-05
-0.000479997
-3.83534e-05
-0.000471732
3.83288e-07
-0.000451944
3.9965e-05
-0.000419197
7.80717e-05
-0.000374533
0.000112779
-0.000320082
0.00014184
-0.000259116
0.000163479
-0.000195596
0.000177202
-0.000133975
0.000183217
-7.79164e-05
0.000183084
-3.02592e-05
0.000178273
7.41431e-06
0.000169996
3.31393e-05
0.000159224
4.88703e-05
0.000147703
5.48806e-05
0.000136899
5.46451e-05
0.000128005
5.3157e-05
0.000122884
5.48966e-05
0.000121844
6.35213e-05
0.000131091
6.94757e-05
0.000121484
7.99614e-05
0.000155081
8.46522e-05
0.000115475
8.03196e-05
0.000173755
9.04678e-05
9.3698e-05
0.000131666
0.000197385
0.00019006
4.63557e-05
0.000253791
0.000160749
0.000242624
-0.000182327
2.35222e-06
-0.000160448
-2.92356e-06
0.000340216
-0.000345466
-0.000135042
0.000319032
-0.000216526
0.000283674
-0.000178949
0.000278989
-0.000140929
0.000221666
2.39114e-05
0.000186917
1.17832e-05
0.000164566
-0.000164201
0.00012757
-0.000344421
9.93484e-05
-0.000315334
9.98892e-05
-9.20895e-05
-9.42566e-05
0.000312429
-0.000324335
0.000482939
-0.0004649
0.000308431
-0.000316107
-0.000183131
-0.000225013
-0.000364256
-0.000141841
-0.000360272
-1.41917e-05
-0.000250987
8.75881e-05
1.78415e-06
-1.52638e-05
0.000306934
-4.43224e-05
0.000259886
-4.29518e-05
-0.000118292
-0.000131553
0.000247311
-7.90135e-05
-8.39332e-05
0.000101187
-2.32705e-05
-0.000191191
0.000154359
6.22769e-05
-1.39175e-05
0.000167977
-8.42365e-06
0.000172751
-8.44156e-06
0.000173426
-0.000167521
-8.85585e-06
0.000167181
-0.00016401
-5.47273e-06
-0.00016103
-3.58963e-06
5.1538e-06
-1.31542e-05
-0.000151333
-0.00023377
1.73573e-05
1.03915e-05
-0.000153045
0.000157642
-1.1093e-05
1.38418e-05
-0.000114769
-6.42042e-06
4.40067e-06
-9.48198e-05
0.000103914
-1.81514e-06
-0.000109361
7.29705e-05
-6.18294e-05
-9.06158e-05
5.84203e-05
-6.38879e-05
-6.09068e-05
4.7266e-05
-0.000171282
7.61465e-05
-6.91185e-05
-0.000100333
4.8809e-05
2.00904e-05
-2.39853e-05
-0.000136123
3.42036e-05
-0.000143733
3.59436e-05
-0.000150199
3.5383e-05
-0.000160199
3.69985e-05
4.26219e-05
-0.000161021
0.000104399
-0.000180428
-0.000123307
-5.66778e-05
2.40439e-05
0.000100383
-6.86536e-05
-0.000176333
-8.64594e-05
0.000106429
0.000153818
-0.000197178
-9.30254e-05
-0.00021944
-0.000104589
-0.000242902
-0.000116796
-0.000266446
-0.000128414
-0.000289938
-0.000137793
-0.00031316
-0.000144562
-0.000335769
-0.000148848
-0.000357918
-0.000149658
-0.000379575
-0.000146564
-0.00040047
-0.00013919
-0.0004202
-0.000127018
-0.000437652
-0.000109961
-0.000451618
-8.77334e-05
-0.000461246
-6.04592e-05
-0.000464451
-2.88849e-05
-0.000459482
4.82259e-06
-0.000446276
3.94965e-05
-0.000424169
7.2823e-05
-0.000393835
0.000102203
-0.000357767
0.000125557
-0.000318023
0.000142037
-0.000277544
0.000150651
-0.000238705
0.000151262
-0.000202988
0.000145746
-0.000170509
0.000135355
-0.0001411
0.000121872
-0.000114084
0.000106627
-8.91407e-05
9.10446e-05
-6.63826e-05
7.59826e-05
-4.6661e-05
6.22476e-05
-3.18347e-05
4.97935e-05
-2.17683e-05
3.66305e-05
-2.30553e-05
1.96517e-05
-3.67385e-05
1.81213e-05
-4.04564e-05
-1.80115e-05
-6.50532e-05
-1.22764e-05
-8.24897e-05
-7.36275e-05
-8.69723e-05
-5.27932e-05
-0.000101724
-0.000142256
-7.00609e-05
-0.000120034
-9.38853e-05
-0.00023371
-4.54883e-07
-0.000215785
-5.17749e-05
-0.000289326
-0.000115417
2.92494e-05
0.000102939
-0.000120894
2.58324e-05
-1.15052e-05
2.08992e-05
-0.00012325
0.000140738
2.01992e-05
-0.000141516
-1.14562e-05
-0.000109476
-8.89908e-06
-0.000161088
0.000163608
8.57852e-06
-0.000144413
-9.73914e-06
-2.31554e-06
-0.000107281
7.63611e-06
3.8008e-06
-0.000158683
-3.87081e-07
0.000161616
-7.37731e-06
-4.35519e-05
-6.29655e-06
-6.13432e-05
1.46691e-05
4.28795e-05
0.000107333
-0.000118885
-9.41977e-05
-4.60417e-05
8.01042e-05
-0.00010891
-0.000155853
9.53986e-05
-0.000152686
1.37534e-05
-1.51537e-05
0.000160833
-2.06092e-05
-0.000151946
-1.31743e-05
3.26321e-05
3.54146e-05
0.000103598
-5.72218e-06
-9.64633e-05
-1.9524e-06
0.000162709
-4.89933e-06
0.000163373
-6.4992e-06
0.000160605
-7.29341e-06
-0.000303423
-0.000136421
-0.000337117
-0.000141068
-0.00036816
-0.000140532
-0.000397498
-0.000133679
-0.000423937
-0.000122555
-0.000447222
-0.000107011
-0.00046394
-8.9113e-05
-0.000475299
-6.16585e-05
-0.000474788
-3.44676e-05
-0.000463746
-3.48685e-06
-0.000440782
2.72873e-05
-0.000407081
5.75373e-05
-0.000362984
8.40513e-05
-0.00031078
0.000106704
-0.000253138
0.000123635
-0.00019367
0.000134951
-0.000136291
0.00014095
-8.39166e-05
0.000142298
-3.97291e-05
0.000139947
-4.89625e-06
0.000134695
2.02101e-05
0.000128766
3.60487e-05
0.000120579
4.40067e-05
0.000113284
4.73767e-05
0.000107705
5.02253e-05
0.000105049
5.661e-05
0.000104925
6.89521e-05
0.000110957
7.59061e-05
0.000101412
8.86613e-05
0.000124281
9.26989e-05
8.60737e-05
0.000105309
0.000129975
0.000121872
6.01119e-05
0.00019259
0.000140561
0.0002368
1.37792e-05
0.000307968
0.000103462
0.000282319
-0.000155765
0.000264301
-4.99534e-05
0.000129482
3.48651e-05
-0.000123095
0.000130481
3.4511e-05
0.000129387
3.4799e-05
0.000128935
3.44793e-05
0.000128023
3.31049e-05
0.000127528
3.04767e-05
7.82775e-05
-5.92364e-05
-5.58206e-05
-0.000120394
-5.68477e-05
0.000283477
-0.000348189
-5.70511e-05
-0.000109449
3.69398e-05
-0.000128888
-4.29447e-06
-0.000147479
2.76906e-06
6.50814e-06
-0.000152983
3.39653e-05
9.57214e-05
-2.1794e-05
-4.6891e-05
6.9432e-05
0.000409866
-0.00018761
0.000123334
-0.000350805
-2.38737e-05
8.19066e-05
5.8296e-07
-4.68904e-05
-8.79066e-05
-9.95039e-05
-1.08796e-05
-6.98685e-06
0.000158266
-0.000139144
0.000171086
2.43722e-05