/*--------------------------------*- C++ -*----------------------------------*\
| =========                 |                                                 |
| \\      /  F ield         | OpenFOAM: The Open Source CFD Toolbox           |
|  \\    /   O peration     | Version:  2212                                  |
|   \\  /    A nd           | Website:  www.openfoam.com                      |
|    \\/     M anipulation  |                                                 |
\*---------------------------------------------------------------------------*/
FoamFile
{
    version     2.0;
    format      ascii;
    arch        "LSB;label=32;scalar=64";
    class       surfaceScalarField;
    location    "0.0029";
    object      phi;
}
// * * * * * * * * * * * * * * * * * * * * * * * * * * * * * * * * * * * * * //

dimensions      [1 0 -1 0 0 0 0];

oriented        oriented;

internalField   nonuniform List<scalar> 
5190
(
-2.59989e-05
-2.18257e-05
2.58516e-05
2.19931e-05
4.0858e-05
5.21874e-05
-6.10899e-05
-4.7785e-05
-1.27035e-05
-8.16402e-05
6.95297e-06
6.87407e-05
-9.18309e-06
7.85955e-06
1.70081e-06
1.71982e-07
0.000122717
1.97049e-05
-0.000160101
-1.67392e-05
-6.50033e-05
5.29834e-05
5.48886e-05
-6.52189e-05
-1.46367e-06
3.25554e-06
1.5682e-06
-2.75773e-06
-3.34592e-06
3.44444e-06
-7.43188e-06
7.92714e-06
8.41428e-06
-8.12689e-06
-4.07615e-06
4.39217e-06
8.74133e-06
-4.84608e-06
5.1159e-06
-2.84704e-06
2.21475e-06
-7.92366e-06
-9.67486e-06
8.33595e-06
-7.96277e-06
9.7187e-06
7.75267e-06
-9.73737e-06
-7.28473e-06
-1.47233e-05
1.44137e-05
-1.128e-05
1.13493e-05
-9.80587e-06
-8.48968e-06
1.08032e-05
7.7962e-06
-1.23896e-05
-1.07109e-05
1.21393e-05
1.0928e-05
-1.16616e-05
-1.10821e-05
1.25495e-05
9.89011e-06
7.57951e-06
-3.5541e-06
3.06398e-06
-6.65475e-06
7.59433e-06
-3.97285e-06
4.43954e-06
-4.62285e-06
6.31767e-06
6.39693e-06
1.03433e-05
-3.67527e-06
4.44495e-06
-1.06241e-05
-1.01995e-05
1.01049e-05
-6.95185e-06
7.42509e-06
-1.03097e-05
-6.02013e-06
6.51889e-06
-5.10544e-06
5.57994e-06
-9.98047e-06
8.88285e-06
8.27541e-06
-6.40757e-06
7.2716e-06
-3.95099e-06
8.02936e-06
-7.32083e-06
-2.91922e-06
-4.08987e-06
6.26642e-06
-7.72782e-06
7.81597e-06
-4.2595e-06
-3.9511e-06
-8.51583e-06
9.46248e-06
-4.17256e-06
-4.29997e-06
4.03068e-06
-9.68975e-06
9.72561e-06
-5.65121e-06
-4.88343e-06
-6.58017e-06
1.2045e-05
-5.85345e-06
7.09275e-06
-1.28518e-05
1.16681e-05
-8.01766e-06
8.81179e-06
-9.52005e-06
1.1769e-05
9.8133e-06
1.05688e-05
-1.06089e-05
-8.93063e-06
1.04945e-05
-1.13364e-05
1.20508e-05
1.0661e-05
-9.72955e-06
-6.32809e-06
-7.4617e-06
8.93025e-06
-8.9207e-06
-6.26605e-06
6.75295e-06
-6.15498e-06
5.80236e-06
4.24891e-05
5.9274e-05
-7.52173e-05
-4.2696e-05
-5.51767e-06
5.90327e-06
-7.75631e-06
-3.58232e-06
3.81652e-06
-2.11605e-06
-6.46625e-06
7.20903e-06
1.97625e-06
7.26727e-06
-6.71302e-06
-2.95258e-06
2.99565e-06
-3.22872e-06
1.04074e-05
1.22243e-05
-1.10504e-05
-1.20965e-05
1.11325e-05
-7.67007e-06
3.45775e-06
8.21704e-06
-7.1491e-06
-3.06966e-06
3.10356e-06
9.16723e-06
-9.16812e-06
-6.87515e-06
9.11762e-06
-7.49091e-06
-2.311e-06
-6.73405e-06
2.3477e-06
-2.68376e-06
2.74008e-06
-6.18538e-06
-6.47423e-06
6.98037e-06
-2.8559e-06
-2.58693e-06
-5.98102e-06
-8.2869e-06
8.81225e-06
4.41558e-06
3.10489e-06
-1.05758e-05
1.04752e-05
5.07861e-06
5.10692e-06
-1.06679e-05
1.08003e-05
6.75524e-06
5.80677e-06
-1.07094e-05
9.83136e-06
9.52807e-06
7.87787e-06
-6.05611e-07
-1.85761e-06
2.51436e-06
4.29076e-07
1.17874e-05
7.2638e-06
1.22713e-05
-1.19248e-05
9.58653e-06
1.03341e-05
1.14275e-05
7.5806e-06
-1.16242e-05
8.52732e-06
-8.33421e-06
9.95333e-06
-2.36298e-07
1.18376e-06
-5.32846e-07
1.4888e-07
-9.54611e-06
1.17361e-05
-1.72318e-05
2.13923e-05
-0.000128017
-1.86437e-05
9.79032e-05
-7.08208e-06
7.19602e-06
-3.56214e-06
7.29994e-06
-6.90269e-06
-2.72736e-06
-3.32729e-06
-7.42416e-06
7.74928e-06
-4.10469e-06
-3.6969e-06
-8.01834e-06
8.74351e-06
-4.40116e-06
-4.08233e-06
-9.06486e-06
9.1922e-06
-5.35155e-06
-4.72895e-06
-6.15408e-06
8.59046e-06
-9.34619e-06
-7.64215e-06
-8.06999e-06
5.89026e-06
9.42191e-06
-9.03793e-06
-6.21338e-06
-6.87273e-06
8.79344e-06
-8.75218e-06
-5.75641e-06
-5.88697e-06
8.53021e-06
-8.31642e-06
-4.44135e-06
-5.14565e-06
7.86572e-06
-7.46875e-06
-3.38722e-06
-3.9205e-06
-3.1193e-06
-2.77595e-06
2.79707e-06
-6.62653e-06
6.92552e-06
-6.39325e-06
9.2505e-06
-8.01981e-06
-7.74855e-06
9.47589e-06
1.36603e-05
-1.51772e-05
-8.69974e-06
1.20012e-05
-1.01263e-05
1.19355e-05
-6.37742e-06
-2.21982e-06
-6.23763e-06
6.71112e-06
-2.72568e-06
-5.77613e-06
-2.4648e-06
1.36698e-05
-1.42271e-05
1.0167e-05
-1.09142e-05
1.33894e-05
1.12782e-05
-1.00117e-05
1.29296e-05
-1.1011e-05
1.19844e-05
9.12695e-06
-8.31623e-06
-7.34216e-06
6.95431e-06
-7.06173e-06
9.14543e-06
1.15511e-05
-1.30638e-05
1.00538e-05
-7.51941e-06
-6.81455e-06
7.39141e-06
2.72757e-06
2.48632e-06
-2.51872e-06
-6.05638e-06
2.41941e-06
-6.24022e-06
9.46672e-06
7.59176e-06
-9.86103e-06
-6.86145e-06
1.44104e-05
-1.25283e-05
-1.31949e-05
1.12587e-05
-1.2432e-05
1.08656e-05
-0.00023939
-5.78301e-05
0.000130951
0.000132422
8.85698e-06
-8.59713e-06
9.43469e-06
1.04574e-05
1.1662e-05
2.09632e-06
-2.00136e-06
-5.85312e-06
6.2489e-05
-7.44696e-05
-1.69103e-05
-6.13612e-06
1.95147e-05
1.34522e-05
-2.01899e-05
-1.38967e-05
1.45622e-05
-1.21039e-05
1.1686e-05
-8.81805e-06
8.54744e-06
2.49957e-06
2.21164e-06
-8.25605e-06
-8.95067e-06
9.75548e-06
4.10097e-06
3.1938e-06
-1.06291e-05
1.09449e-05
5.19548e-06
4.71168e-06
-1.12537e-05
1.15661e-05
6.77023e-06
5.85832e-06
-1.18526e-05
1.24578e-05
9.23172e-06
7.92742e-06
1.02495e-05
1.25835e-05
-1.24068e-05
9.17819e-06
1.01541e-05
1.21143e-05
7.35773e-06
-1.19073e-05
8.12599e-06
-1.15674e-05
1.47406e-05
7.50467e-06
-8.12026e-06
2.52108e-06
-1.17582e-05
1.96821e-06
-7.96947e-06
3.3892e-06
8.5353e-06
3.0326e-06
-6.46817e-06
6.81213e-06
-2.49489e-06
6.04725e-06
-1.78998e-06
-5.63755e-06
-2.02856e-06
-6.94885e-06
7.10366e-06
-3.20439e-06
-2.91804e-06
-7.31352e-06
7.40464e-06
-3.71078e-06
-3.41514e-06
-7.9057e-06
8.11709e-06
-4.08775e-06
-4.08027e-06
-8.58298e-06
8.63688e-06
-4.92721e-06
-4.68262e-06
-8.70369e-06
8.55725e-06
-6.29608e-06
-5.77144e-06
-8.50519e-06
8.45041e-06
-7.52731e-06
-7.02378e-06
-1.23961e-05
1.09281e-05
1.57718e-05
-8.2289e-06
8.57219e-06
8.53003e-06
-8.76394e-06
-6.91822e-06
-7.40603e-06
8.73892e-06
-8.60584e-06
-5.82816e-06
-6.39014e-06
8.37306e-06
-8.41632e-06
-5.13864e-06
-5.57928e-06
8.27286e-06
-7.96732e-06
-4.13849e-06
-4.68112e-06
7.61743e-06
-7.15304e-06
-3.27626e-06
-3.69041e-06
-2.96465e-06
-2.42652e-06
2.48078e-06
-5.66892e-06
2.32827e-06
-5.31038e-06
-2.21842e-06
-5.50106e-06
-5.8701e-06
2.80617e-06
1.19587e-06
-2.42853e-06
-1.01268e-06
6.67892e-07
-1.29326e-06
6.99933e-06
-5.84736e-06
-5.4466e-06
7.65443e-06
-1.0401e-06
-1.29054e-05
1.17166e-05
1.30038e-05
-1.17771e-05
1.22462e-05
-1.25674e-05
1.31089e-05
-9.66317e-06
1.18627e-05
9.57954e-06
9.69966e-06
-9.46753e-06
-1.05932e-05
1.17124e-05
5.70211e-06
-5.59052e-06
-1.26297e-06
-8.77663e-06
9.89304e-06
1.0992e-05
-8.28772e-06
1.01049e-05
-7.03654e-06
7.6687e-06
2.55274e-06
-6.41096e-06
2.27053e-06
-1.11619e-05
1.24766e-05
-1.12311e-05
1.20027e-05
-2.01538e-06
1.95723e-06
-5.18129e-06
-2.14112e-06
-4.89955e-06
0.00252069
1.81928e-07
-0.00221348
4.65407e-06
2.47981e-07
0.00278566
5.5901e-06
-0.00252053
0.00278554
6.00746e-06
-0.00221336
5.0491e-06
-2.01928e-06
2.14344e-06
-4.84478e-06
-5.12841e-06
5.57781e-06
-2.09352e-06
-4.67167e-06
-1.88275e-06
-6.00673e-06
4.25867e-06
-9.83979e-06
1.19943e-05
-1.35676e-05
1.25848e-05
1.34275e-06
3.11062e-06
-1.12519e-06
-5.80649e-06
-1.63704e-06
6.71382e-06
-2.6997e-05
-2.52155e-05
2.64932e-05
2.52483e-05
6.10993e-05
4.41284e-05
-7.85665e-05
-4.31549e-05
9.97192e-05
2.91713e-05
-2.40295e-05
-0.000126393
1.06537e-05
1.13995e-05
3.83596e-05
4.89672e-05
-5.4168e-06
1.84601e-06
-5.46927e-06
2.15674e-05
1.01971e-05
-2.67422e-05
-7.78064e-06
8.37889e-06
2.06608e-06
-2.11901e-06
1.48145e-06
-1.71137e-06
-8.75813e-06
9.11419e-06
2.64087e-06
2.34783e-06
-9.59474e-06
1.0289e-05
3.85229e-06
3.18686e-06
-1.09864e-05
1.15041e-05
5.03058e-06
4.42338e-06
-1.19519e-05
1.24208e-05
6.56963e-06
5.69732e-06
-1.30115e-05
1.37005e-05
8.7471e-06
7.61275e-06
-1.43237e-05
1.4034e-05
1.04022e-05
9.68396e-06
1.16815e-05
1.326e-05
-1.31304e-05
8.68322e-06
1.0049e-05
1.2774e-05
-1.22769e-05
6.66085e-06
7.49239e-06
1.16121e-05
-1.08667e-05
5.35962e-06
-6.11727e-06
6.00399e-06
-6.7745e-06
1.01663e-05
-9.52674e-06
4.04531e-06
-4.46087e-06
4.64166e-06
-5.23248e-06
8.90432e-06
-8.29165e-06
3.18679e-06
3.54961e-06
-3.84014e-06
2.84983e-06
0.00300203
1.40982e-07
5.94534e-06
0.00310046
3.06958e-07
5.90126e-06
0.00316549
6.02507e-07
4.93171e-06
0.00320398
9.86341e-07
3.68872e-06
0.00303146
2.74491e-06
2.11955e-06
0.0016617
5.84482e-06
-2.05356e-06
0.00108447
6.92317e-06
-5.12833e-06
0.000783609
9.09407e-06
-6.70554e-06
0.000608962
1.20739e-05
-1.03642e-05
1.41293e-05
0.00048806
-1.4255e-05
0.00049084
-0.00060984
1.21372e-05
0.000396239
1.45162e-05
-1.5862e-05
1.53421e-05
0.000323068
-1.73213e-05
-0.000399852
0.000328169
1.02972e-05
1.14969e-05
0.000781956
-0.00108313
1.20084e-05
1.18417e-05
0.00166195
-0.00302974
9.45722e-06
1.02402e-05
0.00320271
-0.00316497
6.60508e-06
8.64403e-06
0.0031004
-0.00300172
6.57887e-06
6.75376e-06
6.5626e-06
-6.13048e-06
6.47755e-06
-2.26675e-06
-1.85824e-06
-6.70796e-06
6.92238e-06
-2.89549e-06
-2.6036e-06
-7.1443e-06
7.29397e-06
-3.37413e-06
-3.13139e-06
-7.38119e-06
7.71758e-06
-3.91553e-06
-3.67925e-06
-7.98111e-06
8.23016e-06
-4.64678e-06
-4.41555e-06
-8.16379e-06
8.13708e-06
-5.77551e-06
-5.18552e-06
-7.9937e-06
7.81803e-06
-6.9077e-06
-6.43165e-06
-2.06467e-05
2.04233e-05
-2.73318e-05
-7.39436e-06
7.47476e-06
-8.90435e-06
1.04275e-05
-7.01698e-06
8.8521e-06
-8.53512e-06
-8.10004e-06
-8.64682e-06
9.35878e-06
9.94079e-06
-1.0081e-05
8.32026e-06
8.00167e-06
-5.72348e-06
-9.31888e-06
8.20793e-06
-8.08224e-06
-7.01387e-06
-7.38126e-06
8.23947e-06
-8.31222e-06
-6.34942e-06
-6.7784e-06
8.31008e-06
-8.15386e-06
-5.44265e-06
-5.86855e-06
8.12844e-06
-8.02945e-06
-4.65142e-06
-5.04622e-06
7.86177e-06
-7.59603e-06
-3.82184e-06
-4.25081e-06
7.27849e-06
-6.88062e-06
-3.0935e-06
-3.44423e-06
6.45063e-06
-6.01452e-06
-2.57196e-06
-2.79577e-06
-2.33187e-06
-2.22868e-06
2.28605e-06
-5.15089e-06
-4.99959e-06
-2.29812e-06
2.25302e-06
-5.46431e-06
-5.31613e-06
-2.16261e-06
2.0154e-06
-5.77029e-06
-5.62777e-06
-1.60773e-05
-2.50206e-05
2.37232e-05
1.65584e-05
-3.74742e-05
3.98105e-05
-1.21244e-05
9.21802e-06
-1.05186e-05
1.14197e-05
1.00568e-05
9.68235e-06
-9.72952e-06
1.03258e-05
1.05287e-05
-1.09732e-05
1.15869e-05
-4.50635e-06
-2.6057e-06
-1.35214e-05
1.57921e-05
1.01562e-05
1.30727e-07
3.14574e-06
-0.00189479
3.43298e-06
-0.00189466
5.49969e-06
-1.07218e-06
-5.14715e-06
-6.85735e-05
-4.20724e-05
3.11988e-05
7.63644e-05
0.000487803
-0.00060885
-1.3591e-05
0.000394959
-1.49784e-05
-1.20089e-05
1.20685e-05
-0.000237503
-4.96216e-05
8.15073e-05
0.000164407
9.79353e-06
8.99254e-06
1.09758e-05
-1.15852e-05
1.25084e-05
1.10722e-06
-1.38496e-06
-5.05947e-06
1.13944e-06
-5.03701e-06
-0.00189636
0.00221419
5.86297e-06
1.24757e-06
1.25884e-07
-0.0015893
1.43027e-06
-0.00159147
-1.91219e-06
1.98744e-06
-4.32051e-06
-1.77351e-06
-4.20875e-06
-4.98786e-06
5.39797e-06
-1.9158e-06
-4.53059e-06
-1.73463e-06
-1.19294e-05
0.000267678
7.49141e-06
0.000268736
-2.03259e-05
9.96179e-06
4.34193e-06
-9.68614e-06
1.01084e-05
5.43772e-06
-5.27727e-06
-1.31199e-05
1.3865e-05
1.37355e-05
9.10504e-06
6.2163e-06
-9.23221e-06
-5.66278e-06
9.80742e-06
7.78233e-06
7.72243e-05
2.67331e-05
-2.58224e-05
1.91798e-05
1.2837e-05
-2.13389e-05
-2.31922e-05
2.56261e-05
-8.34226e-06
9.30851e-07
4.88678e-07
-3.76795e-07
-4.90487e-07
-5.91577e-06
6.59186e-06
1.81474e-06
1.8075e-06
-1.95392e-06
-5.12132e-06
1.61104e-06
-5.23661e-06
1.04199e-05
1.11109e-05
1.9773e-06
-3.95727e-06
-1.96237e-06
-1.92966e-06
1.85955e-06
-4.51582e-06
-4.26859e-06
-1.77142e-06
1.60032e-06
-4.91431e-06
5.66168e-06
-4.73773e-06
-5.04171e-06
-7.7962e-06
8.37636e-06
2.0178e-06
1.92395e-06
-8.92519e-06
9.44839e-06
2.57008e-06
2.29094e-06
-1.0057e-05
1.07793e-05
3.53416e-06
3.02258e-06
-1.1446e-05
1.20852e-05
4.67762e-06
4.11726e-06
-1.26703e-05
1.32813e-05
6.17978e-06
5.34285e-06
-1.3975e-05
1.45885e-05
8.20938e-06
7.12404e-06
-1.49492e-05
1.46392e-05
1.04919e-05
9.21249e-06
1.25991e-05
-1.17062e-05
1.39597e-05
2.20793e-05
1.37399e-05
-2.15826e-05
1.37318e-05
-1.41929e-05
1.19885e-05
1.37716e-05
1.44965e-05
1.43489e-05
-1.40915e-05
8.28455e-06
1.00435e-05
1.35339e-05
-1.28691e-05
5.9224e-06
6.83843e-06
1.2151e-05
-1.14535e-05
4.62294e-06
5.21656e-06
1.07044e-05
-1.00162e-05
3.51674e-06
3.94099e-06
9.29503e-06
-8.62345e-06
2.86538e-06
3.10266e-06
7.93805e-06
-7.27222e-06
2.30625e-06
2.55767e-06
2.04265e-06
-0.0025205
0.00278474
1.20083e-05
9.61144e-06
-0.00300049
0.00309881
1.29836e-05
1.31444e-05
-0.00316343
0.00320146
9.85029e-06
1.19892e-05
-0.00302984
0.00166187
2.65504e-06
7.09255e-06
-0.00108318
0.000783512
-5.33016e-06
-7.86666e-07
-8.06543e-06
-0.00189623
0.00221392
6.31781e-06
-1.46261e-06
1.75799e-06
-0.00159152
-0.00158921
3.4094e-07
-2.55797e-05
-0.000275042
-1.78729e-05
-4.15246e-05
-8.9187e-06
5.00866e-05
-1.62617e-06
0.000334526
-0.000404038
5.3106e-06
3.76918e-06
0.000494994
-0.000613686
1.0318e-05
9.49372e-06
0.000785214
-0.00108313
1.17443e-05
1.09241e-05
0.00165934
-0.00303038
1.92424e-05
1.23472e-05
0.00320145
-0.00316308
1.26452e-05
1.42952e-05
0.00309857
-0.00300008
1.40745e-05
1.38834e-05
0.00278425
-0.00252019
1.26218e-05
1.38464e-05
1.00155e-05
-5.84858e-06
6.16285e-06
-2.01286e-06
-1.64859e-06
-6.42935e-06
6.65984e-06
-2.58592e-06
-2.31681e-06
-6.8726e-06
7.11293e-06
-3.10834e-06
-2.81823e-06
-7.29565e-06
7.56307e-06
-3.68494e-06
-3.3683e-06
-7.55683e-06
7.67307e-06
-4.21832e-06
-3.88664e-06
-7.69361e-06
7.68803e-06
-5.22633e-06
-4.64355e-06
-7.48011e-06
7.26648e-06
-6.19069e-06
-5.71416e-06
-6.93644e-06
6.49959e-06
-7.20548e-06
8.15853e-06
-6.55573e-06
-5.89515e-06
4.89755e-06
-8.39266e-06
-7.79159e-06
-9.71025e-06
1.04252e-05
4.04199e-06
-4.17935e-06
3.60723e-06
-8.69645e-06
-8.55904e-06
-1.03557e-05
7.21337e-06
9.88776e-06
3.17393e-06
-4.2546e-06
-8.78155e-06
-9.65837e-06
2.89749e-06
1.03665e-05
-3.18394e-06
-2.00043e-06
1.92699e-06
-9.10397e-06
-9.1699e-06
1.08447e-05
4.33089e-06
-6.26014e-06
-8.83291e-06
1.11973e-05
-8.75947e-06
7.09808e-06
-7.39525e-06
-7.28782e-06
-7.96713e-06
7.48506e-06
-7.57536e-06
-6.41177e-06
-6.7797e-06
7.75272e-06
-7.83587e-06
-5.73145e-06
-6.0817e-06
7.85409e-06
-7.82995e-06
-4.90864e-06
-5.30489e-06
7.7629e-06
-7.64605e-06
-4.17848e-06
-4.54232e-06
7.47858e-06
-7.24513e-06
-3.48062e-06
-3.82819e-06
6.95824e-06
-6.60544e-06
-2.86375e-06
-3.1604e-06
6.21588e-06
-5.81564e-06
-2.39798e-06
-2.60253e-06
-2.18157e-06
-2.05931e-06
2.08921e-06
-4.59306e-06
-4.47271e-06
-2.09868e-06
2.05676e-06
-4.8654e-06
-4.74688e-06
-4.99377e-06
4.77405e-05
5.11643e-05
3.25027e-05
-2.84018e-06
3.2637e-06
-3.2624e-05
0.000322599
-1.85179e-05
-1.14309e-05
1.10207e-05
1.06758e-05
8.7289e-06
1.08004e-05
9.94641e-06
-1.1411e-05
1.15081e-05
-4.94776e-06
1.54646e-06
4.94631e-06
-4.42184e-05
-3.89037e-05
3.14378e-05
3.20028e-05
-1.49978e-05
1.06365e-05
5.42203e-06
1.01283e-05
-7.8557e-06
-0.0018994
0.00221608
6.99032e-06
-0.00159545
-2.18675e-07
-1.69407e-06
1.77829e-06
-3.47683e-06
-3.26894e-05
2.02392e-06
-7.27159e-06
-3.81325e-06
-1.90137e-06
3.63968e-06
-3.58236e-06
-1.65134e-06
-1.47332e-06
-3.2496e-06
-1.52877e-06
-4.15571e-06
-6.0381e-06
6.75496e-06
1.57105e-06
-5.34223e-06
1.39514e-06
0.000218777
-2.62227e-05
1.82156e-05
-1.38803e-05
-2.04616e-05
1.5879e-05
-1.39917e-05
1.75688e-05
1.42716e-05
-5.70769e-05
4.10356e-05
2.85633e-06
-2.54311e-06
0.000487542
-0.000610444
-1.03816e-05
0.000394933
-1.34353e-05
1.44467e-05
2.20269e-05
-1.52359e-05
1.44405e-05
-2.0525e-05
2.05046e-05
2.48371e-05
-1.52837e-05
1.21052e-05
1.10656e-05
6.91892e-06
-1.31738e-05
1.22657e-05
-1.21106e-05
1.28531e-05
1.06937e-05
8.59709e-06
2.00185e-05
-1.23285e-05
-0.00189946
0.00221602
7.50172e-06
-0.00159557
1.29196e-07
-3.15647e-05
3.12876e-05
-1.72863e-05
1.71173e-05
-9.91898e-05
1.67231e-05
8.74537e-05
-0.000122208
3.00605e-05
2.27545e-05
-1.27887e-05
-1.40424e-05
1.48848e-05
1.30058e-05
1.13165e-05
4.90971e-06
1.0046e-05
2.95376e-06
-8.90303e-06
3.43019e-06
1.11259e-05
1.022e-05
1.37827e-06
-9.16884e-06
2.04065e-06
1.15361e-05
1.07461e-05
7.41638e-06
-1.24959e-05
1.4207e-05
-1.89565e-05
-1.37292e-05
2.01198e-05
1.17307e-05
0.000260667
-1.86682e-05
1.15282e-06
2.74063e-07
-6.72564e-07
-3.19927e-07
2.22892e-05
-6.94882e-06
-2.40207e-05
2.6676e-05
-1.65179e-05
-2.49962e-05
1.46245e-05
9.86138e-06
1.07735e-05
-1.79954e-06
1.79305e-06
-3.91882e-06
-3.71416e-06
-1.74738e-06
1.64654e-06
-4.24117e-06
-4.1032e-06
-1.52285e-06
1.40873e-06
-4.44075e-06
-4.37442e-06
-1.32802e-06
1.30466e-06
-4.46613e-06
-4.49045e-06
4.99523e-06
-4.49222e-06
1.27818e-06
-5.24212e-06
7.33193e-06
2.49914e-06
-4.09727e-06
1.73779e-06
-7.7869e-06
8.45924e-06
1.88238e-06
2.05111e-06
-9.14398e-06
9.82514e-06
2.33185e-06
2.10439e-06
-1.05202e-05
1.12377e-05
3.19515e-06
2.74262e-06
-1.19859e-05
1.26701e-05
4.2552e-06
3.70072e-06
-1.33647e-05
1.41064e-05
5.61726e-06
4.85724e-06
-1.48696e-05
1.55749e-05
7.44176e-06
6.47812e-06
-1.61406e-05
1.65967e-05
9.80904e-06
8.43946e-06
-1.72429e-05
1.92123e-05
1.35735e-05
1.17428e-05
1.53676e-05
1.62915e-05
2.10623e-05
-1.95297e-05
1.43296e-05
-1.57276e-05
1.42895e-05
1.84213e-05
-1.72362e-05
1.12089e-05
1.29689e-05
1.61942e-05
-1.52755e-05
7.86497e-06
9.48462e-06
1.44343e-05
-1.35006e-05
5.35424e-06
6.45988e-06
1.26781e-05
-1.18644e-05
3.95811e-06
4.62399e-06
1.11512e-05
-1.04161e-05
2.99418e-06
3.37328e-06
9.65134e-06
-8.89072e-06
2.45737e-06
2.64153e-06
8.1911e-06
-7.47861e-06
2.00969e-06
2.24272e-06
1.77159e-06
-0.00252105
0.00278375
1.84054e-05
1.35393e-05
-0.00299823
0.00309528
2.20682e-05
2.1301e-05
-0.00315976
0.00319673
1.85469e-05
2.0713e-05
-0.00302477
0.00166309
8.05794e-06
1.4859e-05
-0.00108624
0.00078493
-2.42957e-06
2.44137e-06
-5.60196e-06
1.66952e-07
-9.49813e-07
-0.00131216
6.20428e-07
-2.78892e-06
-0.00131469
-0.00131207
4.51545e-06
1.16626e-05
3.15479e-06
-0.00131917
-7.66165e-06
-0.0013146
0.000134839
-0.000168549
2.21918e-06
7.60925e-06
2.80244e-05
-3.76231e-05
0.000236804
-0.000283898
-1.86662e-05
-2.22691e-05
0.000337748
-0.000408244
2.39963e-06
-2.47304e-06
0.000498099
-0.000616857
8.90581e-06
7.61506e-06
0.000789022
-0.00108709
1.14953e-05
1.1207e-05
0.00166408
-0.0030235
2.21143e-05
1.50671e-05
0.00319365
-0.00315895
2.37312e-05
2.21881e-05
0.00309496
-0.0029979
2.36887e-05
2.26443e-05
0.00278349
-0.00252077
1.90698e-05
2.2072e-05
1.40499e-05
-3.78871e-06
3.91878e-06
-1.57171e-06
3.44388e-06
-3.02984e-06
-1.33932e-06
-1.4622e-06
-4.44818e-06
5.13499e-06
-1.27518e-06
-1.3558e-06
1.28168e-06
-5.52287e-06
5.84971e-06
-1.78619e-06
-1.50777e-06
-6.13931e-06
6.39363e-06
-2.28441e-06
-2.04676e-06
-6.66151e-06
6.87082e-06
-2.77257e-06
-2.52689e-06
-7.04503e-06
7.16143e-06
-3.28549e-06
-3.01423e-06
-7.27104e-06
7.36431e-06
-3.7719e-06
-3.48086e-06
-7.40141e-06
7.30557e-06
-4.5727e-06
-4.11792e-06
-7.09385e-06
6.84701e-06
-5.38722e-06
-4.9548e-06
-6.59125e-06
6.19102e-06
-6.26963e-06
-5.7525e-06
-5.63028e-06
4.89269e-06
-7.17128e-06
-6.70652e-06
-4.17825e-06
3.50572e-06
-7.58136e-06
-7.39567e-06
-9.19127e-06
2.22198e-06
1.04542e-05
-2.79955e-06
2.07529e-06
-7.94363e-06
-7.7205e-06
1.30017e-06
9.44346e-06
-8.12847e-06
4.84133e-07
9.5819e-06
-8.22944e-06
-9.44028e-06
5.33495e-07
1.07932e-05
3.76667e-07
-1.12883e-06
-8.17758e-06
9.62979e-06
-8.25353e-06
1.75234e-06
-2.42351e-06
-7.91606e-06
-8.02581e-06
3.25382e-06
-3.89876e-06
-7.70733e-06
-7.85966e-06
4.71651e-06
-5.72299e-06
-7.39703e-06
-7.53775e-06
6.29221e-06
-6.63872e-06
-6.39979e-06
-6.90399e-06
6.86581e-06
-7.07079e-06
-5.64266e-06
-5.98915e-06
7.25916e-06
-7.39114e-06
-5.03545e-06
-5.336e-06
7.44958e-06
-7.44941e-06
-4.33396e-06
-4.68039e-06
7.39995e-06
-7.29127e-06
-3.69664e-06
-4.01004e-06
7.13793e-06
-6.93024e-06
-3.11777e-06
-3.39998e-06
6.67123e-06
-6.36078e-06
-2.60441e-06
-2.85066e-06
6.01247e-06
-5.64348e-06
-2.19063e-06
-2.37893e-06
5.25494e-06
-4.83166e-06
-1.74003e-06
-1.98825e-06
4.41709e-06
-4.18931e-06
-1.09054e-06
-1.53721e-06
-1.74768e-06
1.72522e-06
-3.51463e-06
-2.01937e-06
-1.79101e-06
1.86107e-06
-3.78695e-06
-3.6676e-06
-1.90958e-06
1.94323e-06
-4.03281e-06
-3.9171e-06
-1.935e-06
1.89172e-06
-4.25978e-06
-4.15349e-06
-1.79638e-06
1.65108e-06
-4.46925e-06
-4.36424e-06
-1.47068e-06
-4.63697e-06
1.25929e-06
-4.56407e-06
3.86899e-05
-4.65217e-05
-3.11532e-05
0.000163122
-7.51957e-06
-1.10783e-05
-2.59496e-05
2.92456e-05
1.16229e-05
0.00031983
-1.57511e-05
1.40302e-05
4.2409e-05
-1.73597e-05
2.01372e-05
-1.75109e-05
2.17615e-05
-4.32226e-06
-2.66691e-06
-2.61241e-05
-2.23517e-05
-1.11676e-05
2.86515e-05
-2.03016e-05
-1.42753e-05
1.16594e-05
1.18801e-05
8.14982e-06
-1.26931e-05
1.07389e-05
-4.25946e-07
1.11165e-05
1.36664e-06
1.0841e-05
-1.20033e-05
1.15299e-05
1.14974e-05
9.53196e-06
1.87173e-05
-1.32636e-05
-2.34123e-05
1.27485e-05
-1.74879e-05
8.90648e-06
1.57406e-07
-3.31669e-07
1.92312e-06
-2.0368e-05
1.88938e-05
-1.87632e-05
1.9642e-05
-2.05577e-05
1.90891e-05
2.17472e-05
-2.09654e-05
1.39272e-05
-7.23038e-06
-0.00131939
-9.02421e-05
7.93486e-05
7.6382e-06
-0.000121039
3.87035e-05
-1.21614e-06
1.39194e-06
-2.65151e-06
2.94058e-06
-1.11418e-06
-2.48866e-06
3.30249e-06
-1.14894e-06
4.57386e-05
2.19565e-05
-1.49108e-05
-1.40777e-05
1.24263e-05
1.22486e-05
6.27565e-06
2.61432e-06
1.17413e-05
9.09135e-07
1.24062e-05
1.16597e-05
8.1421e-06
-1.27962e-05
1.3173e-05
2.0193e-05
-1.06285e-05
-2.23455e-05
1.23696e-06
-1.34682e-06
-3.86011e-06
1.12012e-06
-3.8671e-06
0.00021013
-2.56189e-05
-9.35485e-06
3.33456e-05
4.64256e-05
-5.47752e-05
-4.34755e-06
3.38948e-06
5.03253e-05
4.27222e-05
-3.25711e-05
6.47628e-06
1.15037e-05
-2.11438e-05
-1.46288e-05
2.40973e-05
-0.000111991
-6.26481e-06
1.75643e-05
9.4775e-05
2.15665e-05
-1.24402e-05
0.000126788
5.49693e-05
1.95632e-05
-1.53198e-05
1.05471e-05
1.21808e-05
4.24968e-06
3.41327e-06
1.30469e-05
-1.26695e-05
1.59604e-05
1.07877e-05
1.16878e-06
-1.35668e-06
-3.93661e-06
-4.69935e-06
5.42627e-06
1.03927e-06
9.64169e-07
-3.97156e-06
-1.44084e-05
7.50479e-06
-0.00107505
-0.00132797
0.00160449
-1.55432e-05
-2.39971e-05
-0.0010827
0.000260162
-1.72789e-05
1.61551e-06
-2.96129e-06
1.88232e-05
-6.42396e-06
-1.87362e-05
1.33892e-05
1.8355e-05
-1.3862e-05
-1.72083e-05
6.72084e-06
-8.87733e-06
8.55699e-06
-9.88611e-06
-8.90835e-06
9.25207e-06
1.10604e-05
1.05508e-05
-1.08303e-05
2.07199e-05
8.18387e-06
-1.51867e-06
1.62238e-06
-3.00627e-06
-2.81214e-06
-1.67619e-06
1.70484e-06
-3.34725e-06
-3.18027e-06
-1.69726e-06
1.64908e-06
-3.61378e-06
-3.50091e-06
-1.57689e-06
1.47144e-06
-3.8065e-06
-3.74215e-06
-3.86659e-06
5.17246e-06
-4.56241e-06
1.1722e-06
-5.94781e-06
7.14638e-06
1.79701e-06
1.45276e-06
-7.97254e-06
8.61871e-06
1.76641e-06
1.75017e-06
-9.40201e-06
1.01214e-05
2.07436e-06
1.83264e-06
-1.0888e-05
1.16699e-05
2.78463e-06
2.39172e-06
-1.24526e-05
1.32865e-05
3.68717e-06
3.23502e-06
-1.40673e-05
1.48856e-05
4.9239e-06
4.28772e-06
-1.57113e-05
1.65146e-05
6.50884e-06
5.65253e-06
-1.73782e-05
1.83808e-05
8.72614e-06
7.43029e-06
-1.95815e-05
2.11331e-05
1.17933e-05
1.04389e-05
1.26731e-05
-2.05569e-05
2.24755e-05
1.41554e-05
-1.64857e-05
1.57969e-05
1.97908e-05
-1.86011e-05
1.06386e-05
1.2273e-05
1.74772e-05
-1.63707e-05
7.68365e-06
9.13208e-06
1.52927e-05
-1.41897e-05
5.18315e-06
6.38097e-06
1.324e-05
-1.23444e-05
3.61811e-06
4.4155e-06
1.14746e-05
-1.07168e-05
2.63675e-06
2.93957e-06
9.94277e-06
-9.18461e-06
2.09655e-06
2.26898e-06
8.41705e-06
-7.6559e-06
1.68754e-06
1.88392e-06
6.89857e-06
-6.15754e-06
1.3139e-06
1.48313e-06
1.15447e-06
-0.00190767
0.00222223
4.74258e-06
-5.82437e-06
-0.0025243
0.00278386
2.37182e-05
1.49544e-05
-0.00299573
0.00309051
3.28152e-05
2.99372e-05
-0.00315402
0.00318908
3.04928e-05
3.21183e-05
-0.00301687
0.00166322
1.67034e-05
2.56177e-05
-0.00108757
0.000786183
1.90788e-06
6.4387e-06
-0.000612768
0.000490073
-7.04728e-06
-3.67147e-06
-0.000396287
0.000321161
-1.22824e-05
-1.05328e-05
-7.10456e-06
2.72834e-06
-0.00107062
-0.00132804
0.00160455
-1.52151e-05
1.40603e-05
-2.36759e-05
-0.00108282
-0.00107521
1.47627e-07
-3.11172e-06
-0.00106796
-0.00106795
-0.00107056
0.000143766
-0.000176255
5.40994e-06
2.47202e-05
0.000227826
-0.000282405
-9.53593e-06
-6.24656e-06
0.000340323
-0.000411492
1.50562e-06
-2.38762e-06
0.000501509
-0.000620383
7.68322e-06
5.91593e-06
0.000791075
-0.00108966
1.31942e-05
1.06917e-05
0.00166353
-0.00301467
2.98834e-05
1.66612e-05
0.00318678
-0.00315124
3.51943e-05
3.4436e-05
0.00309018
-0.0029954
3.48212e-05
3.59102e-05
0.00278368
-0.00252412
2.43406e-05
3.07453e-05
0.00222221
-0.00190767
5.17346e-06
1.54761e-05
-5.5285e-06
-3.64089e-06
3.89055e-06
-1.30263e-06
-1.2604e-06
-4.30483e-06
4.80743e-06
-1.25721e-06
-1.25967e-06
-5.22437e-06
5.56942e-06
-1.58351e-06
-1.391e-06
-5.86951e-06
6.14352e-06
-2.0029e-06
-1.78672e-06
-6.38309e-06
6.5793e-06
-2.40534e-06
-2.19716e-06
-6.75279e-06
6.84597e-06
-2.8273e-06
-2.62902e-06
-6.94521e-06
7.05249e-06
-3.33573e-06
-3.04093e-06
-7.07313e-06
6.98734e-06
-3.93369e-06
-3.58439e-06
-6.80201e-06
6.54797e-06
-4.58239e-06
-4.22663e-06
-6.296e-06
5.88461e-06
-5.31015e-06
-4.94178e-06
-5.39012e-06
4.76181e-06
-6.02279e-06
-5.67563e-06
-4.10928e-06
3.44293e-06
-6.42608e-06
-6.24008e-06
-2.75743e-06
2.04853e-06
-6.73752e-06
-6.54486e-06
-1.28894e-06
5.22967e-07
-6.95675e-06
-6.86609e-06
2.53537e-07
-9.93492e-07
-6.93629e-06
-6.97765e-06
1.68676e-06
-2.37709e-06
-6.73179e-06
-6.83102e-06
3.1059e-06
-3.80984e-06
-6.56563e-06
-6.66811e-06
4.52536e-06
-5.24727e-06
-6.1782e-06
-6.37625e-06
5.76696e-06
-6.13553e-06
-5.48035e-06
-5.84978e-06
6.40719e-06
-6.64032e-06
-4.83783e-06
-5.14302e-06
6.84237e-06
-7.00202e-06
-4.31324e-06
-4.57586e-06
7.08653e-06
-7.10419e-06
-3.7375e-06
-4.02421e-06
7.07172e-06
-6.9827e-06
-3.21049e-06
-3.46497e-06
6.84783e-06
-6.6602e-06
-2.74175e-06
-2.96957e-06
6.42535e-06
-6.14664e-06
-2.3144e-06
-2.52164e-06
5.82676e-06
-5.47899e-06
-1.94298e-06
-2.11542e-06
5.11511e-06
-4.72926e-06
-1.52802e-06
-1.75428e-06
4.39191e-06
-8.01802e-07
-4.09743e-06
-1.28503e-06
-1.66579e-06
1.72729e-06
-3.24625e-06
-3.1167e-06
-1.77456e-06
1.80108e-06
-3.46096e-06
-3.35997e-06
-1.80042e-06
1.75604e-06
-3.65023e-06
-3.56348e-06
-1.66873e-06
1.53001e-06
-3.8172e-06
-3.74055e-06
-3.88361e-06
2.75756e-06
9.46511e-06
-6.27792e-06
-2.40788e-05
7.5325e-06
2.27705e-05
-4.12922e-05
-2.70726e-05
3.08579e-05
2.73982e-06
-2.34047e-06
-9.66186e-07
-1.95611e-05
-1.64269e-05
2.03236e-05
-1.63841e-05
-1.57706e-05
-2.15743e-05
-1.37331e-05
1.05915e-05
1.31913e-05
7.4475e-06
1.67039e-06
1.22468e-05
-4.71612e-07
1.29904e-05
1.23259e-05
9.24572e-06
-1.27992e-05
1.17189e-05
1.94166e-05
-1.30786e-05
6.72691e-06
-9.51457e-06
-3.89871e-06
9.80035e-07
-2.50115e-05
1.20341e-05
-3.18333e-05
-1.48678e-05
3.41546e-05
5.73511e-05
3.66847e-05
-6.79686e-05
-2.28467e-05
2.05488e-05
0.000159545
-2.19067e-05
3.13997e-06
-1.007e-06
3.42738e-05
-1.10849e-05
2.61107e-05
-2.65301e-05
-1.06094e-05
9.99084e-06
-0.00133708
0.00161449
-2.59055e-05
-0.00109045
-3.48681e-05
3.64495e-05
3.5338e-05
-0.000122966
7.23135e-05
6.01169e-06
1.24901e-05
4.45675e-05
3.97284e-05
-1.91124e-05
-1.64593e-05
2.12315e-05
-1.49958e-05
0.000123573
2.123e-05
-3.17614e-05
-1.55062e-05
1.26994e-05
1.33236e-05
5.45415e-06
3.42902e-06
1.29343e-05
1.35473e-06
1.49181e-05
1.25045e-05
7.53523e-06
-1.33863e-05
1.39632e-05
1.80571e-05
-1.2921e-05
-1.16275e-06
1.30452e-06
-2.23551e-06
-1.03248e-06
-2.06617e-06
-4.76506e-06
5.51852e-06
8.07741e-07
-4.01427e-06
7.45085e-07
1.11462e-06
-1.29049e-06
-3.23693e-06
9.27919e-07
-3.2579e-06
-0.00133689
0.00161424
-2.60812e-05
-0.00109026
-3.50885e-05
-2.01345e-05
1.15071e-05
-0.000860365
-3.05792e-05
-0.000866286
2.76826e-05
-8.82682e-07
0.000204328
-1.87241e-05
-1.39286e-06
1.47448e-06
-2.45156e-06
-1.25452e-06
-2.30819e-06
0.000258792
-1.16852e-05
-3.41195e-07
1.74447e-06
-1.17249e-06
1.94807e-05
-1.34314e-05
-1.4502e-07
1.87053e-06
-1.10188e-06
-1.70322e-05
-1.02897e-05
8.92982e-06
1.2731e-05
1.03777e-05
-1.30969e-05
2.08994e-05
-1.41327e-06
1.50385e-06
-2.52139e-06
-2.35845e-06
-1.56481e-06
1.61356e-06
-2.78954e-06
-2.64593e-06
-1.6212e-06
1.61199e-06
-3.0146e-06
-2.90839e-06
-1.54889e-06
1.46424e-06
-3.17515e-06
-3.10711e-06
-1.33528e-06
1.19798e-06
-3.20581e-06
-3.21102e-06
-1.07331e-06
9.40425e-07
-3.23647e-06
-3.21653e-06
3.95589e-06
-3.26206e-06
7.68824e-07
-4.64373e-06
5.37675e-06
9.53952e-07
8.17412e-07
-6.20536e-06
7.15599e-06
1.34888e-06
1.13322e-06
-8.00279e-06
8.84122e-06
1.43824e-06
1.40595e-06
-9.64327e-06
1.04413e-05
1.76119e-06
1.54391e-06
-1.12306e-05
1.20541e-05
2.34682e-06
2.04408e-06
-1.29206e-05
1.37688e-05
3.09337e-06
2.6753e-06
-1.46691e-05
1.55776e-05
4.09405e-06
3.58229e-06
-1.64619e-05
1.74257e-05
5.45723e-06
4.71425e-06
-1.85434e-05
1.98651e-05
7.50278e-06
6.30836e-06
-2.14836e-05
2.31244e-05
1.00224e-05
8.83658e-06
1.07482e-05
1.69144e-05
-1.30029e-05
-3.58725e-05
2.29849e-05
-2.25533e-05
1.38066e-05
1.63923e-05
2.13468e-05
-2.00485e-05
9.5093e-06
1.12577e-05
1.87719e-05
-1.75315e-05
7.02283e-06
8.18746e-06
1.62347e-05
-1.50874e-05
4.98567e-06
5.90967e-06
1.39156e-05
-1.28706e-05
3.36291e-06
4.15181e-06
1.18697e-05
-1.10348e-05
2.36439e-06
2.60503e-06
1.02136e-05
-9.44566e-06
1.78451e-06
1.94282e-06
8.62038e-06
-7.80138e-06
1.35223e-06
1.52144e-06
7.03107e-06
-6.26259e-06
1.04607e-06
1.20299e-06
9.20574e-07
-0.00191733
0.00223135
-6.48712e-07
-1.44206e-05
-0.00253181
0.00278856
2.5244e-05
1.28015e-05
-0.00299717
0.00308797
4.2745e-05
3.62503e-05
-0.00315099
0.00318263
4.4381e-05
4.41984e-05
-0.00300393
0.0016592
2.92486e-05
4.18935e-05
-0.00108644
0.000787638
5.83487e-06
1.23689e-05
-0.000613142
0.000492469
-4.86141e-06
8.00922e-07
-0.000397756
0.000323346
-9.19875e-06
-6.40079e-06
-1.11486e-05
4.77115e-06
-0.000856388
1.9785e-05
-3.02643e-05
-0.000866419
-0.000860425
1.61146e-07
-5.11224e-06