/*--------------------------------*- C++ -*----------------------------------*\
| =========                 |                                                 |
| \\      /  F ield         | OpenFOAM: The Open Source CFD Toolbox           |
|  \\    /   O peration     | Version:  2212                                  |
|   \\  /    A nd           | Website:  www.openfoam.com                      |
|    \\/     M anipulation  |                                                 |
\*---------------------------------------------------------------------------*/
FoamFile
{
    version     2.0;
    format      ascii;
    arch        "LSB;label=32;scalar=64";
    class       volScalarField;
    location    "0.00018";
    object      p;
}
// * * * * * * * * * * * * * * * * * * * * * * * * * * * * * * * * * * * * * //

dimensions      [1 -1 -2 0 0 0 0];

internalField   nonuniform List<scalar> 
25920
(
106.046
107.011
106.248
105.274
104.518
103.152
101.722
100.316
98.9913
97.7426
96.4156
94.8645
93.4316
92.2454
91.1682
90.1767
89.9223
90.0624
90.5077
91.4597
93.6241
97.802
104.349
112.993
122.73
132.797
143.786
157.027
171.469
187.749
205.177
223.818
241.808
259.799
275.447
283.906
286.23
286.964
286.238
284.51
282.029
277.992
271.266
262.602
252.155
245.512
222.579
99.0668
99.9781
99.5222
98.6841
97.7575
96.5235
95.226
94.0066
92.8955
91.7565
90.4878
89.0107
87.533
86.2038
85.1856
84.4733
84.2262
84.3713
84.7702
85.6453
87.5243
91.1812
96.9923
104.666
113.985
123.43
133.686
145.358
158.643
172.898
188.292
205.137
221.223
236.885
252.753
262.326
264.291
264.489
263.301
261.201
258.929
255.91
251.391
245.315
237.54
232.902
221.651
97.7408
98.6486
98.2793
97.5932
96.5465
95.3528
94.1173
92.9793
91.9435
90.827
89.5411
88.064
86.5381
85.1109
84.1473
83.5454
83.2762
83.3983
83.7923
84.6466
86.4043
89.8441
95.3725
102.715
112.016
121.387
131.444
142.662
155.575
169.246
183.906
200.152
215.605
230.496
246.527
256.762
258.958
259.218
258.04
255.797
253.465
250.66
246.924
241.827
235.079
230.541
221.415
97.3542
98.2525
97.874
97.3418
96.2432
95.0631
93.8647
92.7593
91.7361
90.6266
89.3276
87.8463
86.2989
84.8263
83.9057
83.3384
83.047
83.1436
83.5365
84.3851
86.0948
89.45
94.8594
102.06
111.356
120.732
130.695
141.805
154.474
168.071
182.392
198.367
213.468
228.186
244.288
254.825
257.181
257.532
256.408
254.137
251.764
248.989
245.555
240.936
234.765
230.229
223.988
97.5156
98.2456
97.8157
97.4777
96.9241
95.8432
94.5501
93.4361
92.3056
91.0437
89.7883
88.3949
86.9224
85.4908
84.1882
83.3275
83.0414
83.1271
83.5078
84.3589
86.0691
89.4159
94.8105
101.981
111.255
120.673
130.602
141.733
154.24
167.955
182.141
198.003
212.899
227.644
243.87
254.275
256.705
257.118
256.025
253.745
251.349
248.56
245.174
240.718
234.761
230.476
225.854
100.968
101.51
100.999
100.347
99.6233
98.5064
97.6023
96.5551
95.3457
94.1212
92.6715
91.1366
89.5089
88.0081
86.7517
85.7843
85.2659
85.2577
85.4871
86.16
87.6082
90.5803
95.8696
103.468
112.571
121.511
131.593
142.321
154.299
168.351
182.449
198.082
212.917
227.589
243.98
254.24
256.641
257.072
255.994
253.713
251.315
248.526
245.145
241.383
237.206
232.677
227.477
103.187
104.716
104.535
104.096
103.542
102.51
101.102
99.94
98.8486
97.5929
96.0352
94.3569
92.7619
91.1603
89.9145
88.8646
88.2071
88.2452
88.4554
89.0658
90.45
93.4577
98.7122
105.839
115.194
125.231
135
145.844
158.117
171.635
185.968
201.843
216.48
230.656
249.235
259.58
262.229
262.751
261.936
259.438
256.668
253.513
249.675
245.127
239.902
235.146
229.511
107.554
108.752
108.498
107.75
106.616
105.43
104.37
103.276
102.067
100.612
98.9146
97.0985
95.3659
93.6477
92.1855
91.0489
90.3148
90.2928
90.4447
91.0282
92.4779
95.5094
100.793
108.416
118.645
128.384
137.49
148.154
160.134
173.457
188.09
204.95
219.994
234.221
251.884
262.271
265.052
265.74
265.082
262.732
260.117
257.099
253.412
249.062
243.632
238.43
232.129
111.287
112.678
112.878
112.367
111.329
110.109
108.609
107.226
105.847
104.398
102.837
100.953
98.9197
97.0952
95.6023
94.4315
93.569
93.5619
93.7721
94.3599
95.7622
98.6734
103.997
111.737
120.846
133.881
142.378
151.495
164.376
177.167
192.073
208.146
223.347
237.844
256.589
267.502
270.556
270.468
269.572
267.168
264.394
261.203
257.596
253.264
247.712
242.283
235.332
115.243
117.861
117.524
116.557
115.199
113.904
112.402
110.713
109.039
107.318
105.462
103.309
101.292
99.4125
97.8894
96.7152
95.8055
95.8674
96.0595
96.6373
98.0689
101.038
106.257
113.784
123.457
138.009
146.266
153.584
166.22
179.696
194.246
210.665
226.487
241.213
259.655
270.065
273.28
273.708
273.149
270.803
268.103
264.99
261.479
257.435
252.014
246.543
238.98
119.95
122.482
121.739
120.783
119.803
118.448
116.577
114.415
112.538
110.814
109.094
107.119
104.937
103.081
101.568
100.492
99.3559
99.1275
99.2438
99.7629
101.114
104.148
109.287
117.925
130.05
143.986
154.478
157.738
169.324
183.518
198.085
214.105
229.655
244.879
264.217
275.567
278.561
278.179
277.446
275.047
272.261
268.968
265.4
261.531
256.21
250.826
242.84
125.329
125.855
125.31
124.477
123.155
121.705
119.588
117.6
115.924
114.13
112.298
110.059
107.91
105.958
104.271
102.655
101.866
101.805
101.9
102.383
103.771
106.731
112.432
121.333
137.729
147.59
159.277
160.941
173.441
185.904
200.19
216.668
232.608
248.384
267.758
278.523
281.54
281.961
281.429
279.085
276.303
273.067
269.454
265.792
260.632
255.391
247.078
130.918
131.183
130.215
129.098
127.085
125.044
123.518
122.26
120.467
118.577
116.626
114.301
111.925
109.907
108.1
106.427
105.522
105.273
105.373
105.861
107.246
110.399
116.609
126.497
144.348
149.546
161.289
165.777
176.441
190.88
204.968
221.149
236.853
252.559
272.432
284.567
287.78
287.277
286.46
283.972
281.11
277.637
273.879
270.247
265.269
260.233
251.659
136.223
136.349
135.536
133.993
132.64
131.07
129
126.413
124.539
122.523
120.379
118.085
115.797
113.549
111.73
110.509
109.033
108.631
108.731
109.196
110.524
113.665
119.838
131.692
147.182
152.65
162.621
170.275
180.14
193.333
207.863
223.701
240.252
256.351
276.279
287.603
291.135
291.5
290.892
288.334
285.41
282.011
278.239
274.681
269.996
265.223
256.472
140.968
140.787
139.323
137.831
136.146
133.945
132.127
130.796
129.102
127.049
124.746
122.214
119.684
117.392
115.36
113.386
112.406
112.161
112.309
112.828
114.258
117.869
124.989
140.392
149.174
157.387
164.356
176.891
184.997
197.82
212.37
228.873
244.825
260.835
281.198
294.15
297.779
297.21
296.358
293.51
290.281
286.66
282.758
279.168
274.711
270.305
261.523
144.772
144.985
144.332
142.812
141.127
139.511
137.38
134.79
132.99
131.063
128.771
126.34
123.958
121.484
119.427
118.029
116.348
115.617
115.729
116.24
117.663
120.845
128.139
144.018
152.521
160.535
166.042
179.26
188.134
201.297
215.472
231.554
248.609
265.103
285.065
297.591
301.534
301.756
301.144
298.347
294.954
291.124
287.136
283.591
279.315
275.346
266.65
148.533
148.495
147.423
146.066
144.52
142.594
140.617
138.95
137.053
135.095
132.831
130.337
127.725
125.117
122.92
120.799
119.491
119.189
119.379
120.014
121.684
125.722
133.251
146
153.804
161.984
167.392
180.412
193.495
205.689
219.939
236.027
252.636
269.453
290.479
304.74
308.173
307.275
306.651
303.807
300.081
295.939
291.687
287.992
283.802
280.16
271.621
152.3
152.599
152.43
150.849
148.885
146.94
144.652
142.478
140.765
138.784
136.693
134.18
131.774
129.343
127.173
125.436
123.567
122.829
122.974
123.586
125.168
129.025
136.845
148.83
154.305
162.602
168.532
182.952
196.91
209.359
223.594
239.736
256.99
273.961
295.192
309.265
311.638
311.704
311.688
309.064
305.327
300.949
296.428
292.486
288.326
284.908
276.501
157.016
157.603
156.905
155.34
153.715
151.805
149.634
147.554
145.02
142.764
140.622
138.285
135.431
133.265
131.163
129.086
127.526
126.82
126.945
127.56
129.315
133.532
139.894
150.613
155.283
162.907
170.04
185.322
200.641
213.867
228.081
244.064
261.43
278.722
300.074
313.619
318.927
318.398
317.685
314.932
311.081
306.418
301.521
297.219
293.011
289.742
281.42
162.518
162.866
162.009
160.187
157.934
155.447
153.139
151.088
149.284
147.134
144.814
142.143
139.564
137.356
135.272
133.507
131.872
130.985
131.033
131.477
133.023
137.142
144.689
151.308
156.953
163.715
174.13
188.13
204.083
217.515
232.376
248.573
266.03
283.113
303.47
317.149
322.516
323.478
323.211
320.554
316.695
311.916
306.721
302.061
297.723
294.535
286.271
167.472
167.774
166.719
164.649
162.984
160.902
158.588
156.244
154.066
151.79
149.425
146.437
143.78
141.365
139.31
137.492
136.003
135.184
135.106
135.483
137.149
141.453
146.973
151.956
157.338
164.646
182.529
196.42
207.43
222.155
236.906
252.96
270.734
287.688
307.711
322.664
329.246
329.618
329.377
326.58
322.641
317.663
312.151
307.066
302.521
299.298
291.135
171.886
172.07
171.12
169.514
167.404
164.858
162.612
160.462
158.414
155.996
153.678
150.587
148.211
145.429
143.05
141.051
139.476
138.739
138.566
138.99
140.388
143.479
148.265
151.754
157.291
171.29
194.272
205.578
211.8
225.773
241.362
257.399
275.359
292.518
313.723
328.83
333.71
335.051
335.319
332.551
328.653
323.629
317.85
312.343
307.507
304.172
296.219
176.311
176.984
176.131
174.305
172.175
169.811
167.403
164.873
162.526
160.081
157.532
154.241
150.965
148.473
146.384
144.276
142.484
141.563
141.639
142.189
143.505
146.231
148.827
153.049
158.442
177.871
199.138
209.13
214.941
230.261
246.06
262.197
280.306
297.996
319.891
335.288
341.717
342.088
341.913
339.05
335.016
329.895
323.917
317.968
312.735
309.211
301.523
180.779
181.376
180.612
178.895
177.22
174.74
172.189
169.57
166.906
164.427
161.933
159.043
155.644
152.594
149.933
147.482
145.505
143.914
144.068
144.816
145.881
147.524
149.805
154.946
164.039
187.039
201.43
210.96
219.059
234.239
250.759
266.863
285.332
303.688
326.415
341.335
347.097
348.245
348.357
345.546
341.441
336.235
330.149
323.812
318.106
314.252
306.817
184.575
185.263
184.09
183.068
181.318
178.881
176.292
173.726
171.422
168.947
166.23
162.434
159.253
155.911
153.46
150.814
148.582
147.053
146.614
147.129
147.981
149.688
152.972
156.447
168.715
190.476
202.361
212.692
224.417
239.109
255.728
272.092
290.741
309.682
332.021
349.014
355.615
355.883
355.755
352.64
348.305
342.928
336.687
329.985
323.747
319.369
312.067
187.641
188.638
187.86
187.006
185.289
182.899
180.448
178.175
176.01
173.541
171.078
167.704
164.459
161.179
157.965
154.88
152.121
151.352
150.337
149.748
150.527
152.115
154.601
159.03
171.031
192.183
202.67
215.326
228.405
244.191
260.994
277.501
296.321
315.74
338.153
354.575
361.845
363.446
363.37
360.129
355.592
350.016
343.611
336.616
329.868
324.863
317.512
192.168
193.111
193.424
192.407
190.97
188.31
185.817
183.354
180.914
178.432
175.622
172.16
168.216
164.807
161.376
158.135
155.435
153.788
153.959
153.554
153.735
155.154
158.069
163.926
173.153
192.866
203.403
219.051
234.003
249.457
266.33
283.257
302.037
321.754
343.456
362.154
370.814
372.487
371.981
368.38
363.516
357.625
351.037
343.782
336.532
330.884
323.309
199.808
201.4
200.881
199.3
196.902
194.121
191.338
188.763
186.385
183.674
181.096
177.836
174.124
170.187
167.366
164.422
161.391
159.139
157.149
157.148
158.385
160.087
163.585
169.595
180.204
192.799
205.255
221.867
239.241
255.561
272.006
288.534
307.595
327.44
349.561
368.43
377.78
380.285
380.036
376.57
371.597
365.437
358.687
351.219
343.524
337.29
329.361
209.735
211.806
210.892
208.575
205.412
202.299
198.984
195.939
193.005
189.844
186.745
183.169
179.881
175.925
172.626
169.123
165.527
163.874
162.652
162.315
162.925
164.265
168.01
173.826
185.682
193.276
207.829
225.026
244.699
259.878
275.929
294.07
313.138
333.225
355.833
377.258
387.578
389.925
388.894
385.172
380.056
373.636
366.634
358.961
350.848
344.018
335.599
221.589
223.875
222.045
219.445
215.868
212.522
208.761
204.834
201.133
197.427
193.574
189.248
185.086
181.58
177.708
174.409
171.709
168.896
167.158
167.527
168.732
170.178
173.054
179.051
188.699
195.677
210.439
230.248
250.899
265.807
281.012
298.604
318.742
339.259
362.045
383.648
395.166
398.538
397.472
393.714
388.611
382.094
374.858
366.978
358.516
351.119
342.077
235.058
234.922
233.628
230.26
226.784
222.533
218.212
214.175
210.313
206.176
201.891
197.014
193.037
188.73
185.064
181.632
178.343
175.875
173.784
173.468
173.619
175.104
178.752
184.745
193.359
201.126
217.352
236.718
256.883
273.076
287.32
304.3
324.702
345.823
369.352
393.403
406.634
409.231
407.133
402.991
397.691
391.034
383.586
375.436
366.645
358.771
348.958
247.744
246.613
244.106
240.685
237.211
233.216
228.696
224.621
220.434
215.829
210.988
205.431
200.684
196.195
192.344
188.463
184.461
180.904
179.648
180.231
180.767
181.977
184.749
189.023
199.541
210.011
226.539
243.291
261.448
276.986
291.5
311.769
331.378
352.867
377.483
401.666
417.313
418.422
416.302
412.338
406.969
400.179
392.562
384.168
375.082
366.925
356.319
260.199
258.485
255.246
251.82
248.203
243.663
239.626
235.265
231.217
226.677
221.819
216.926
210.842
204.944
199.632
195.053
191.234
188.151
186.121
185.9
186.088
186.933
189.12
194.415
204.225
219.339
235.265
251.6
268.592
285.078
300.692
316.765
337.851
359.826
385.286
411.516
427.453
428.363
425.656
421.646
416.137
409.203
401.464
392.846
383.397
375.071
363.72
272.061
270.263
267.145
263.055
258.275
253.338
248.22
243.718
239.326
234.723
229.886
223.899
218.06
212.809
207.786
203.206
198.662
194.448
191.502
191.098
191.638
192.379
195.143
200.721
209.679
224.068
243.08
260.232
274.265
289.214
306.427
326.254
344.907
366.926
392.626
418.875
435.673
436.674
434.074
430.414
424.891
417.796
409.925
401.025
391.298
382.776
370.639
283.071
282.026
279.4
275.712
271.963
267.504
262.26
256.785
251.869
246.907
241.492
235.373
229.164
223.068
218.227
212.992
207.566
202.255
198.45
197.431
197.377
198.059
200.222
205.701
217.249
234.293
250.965
267.705
283.616
300.457
315.752
331.905
351.83
373.926
399.614
427.223
444.572
446.269
443.723
439.907
433.865
426.392
418.201
409.298
399.325
390.463
377.529
294.109
293.122
290.022
286.277
281.394
275.41
269.968
265.911
261.701
256.703
251.078
244.198
237.644
230.664
224.207
218.416
213.154
208.165
204.444
203.616
203.524
204.361
206.849
213.714
224.596
239.3
258.021
274.623
288.175
305.276
323.218
341.375
359.496
381.158
406.952
434.869
452.252
454.586
452.452
449.027
443.063
435.309
426.931
417.859
407.616
398.449
384.942
306.351
304.999
301.483
297.279
293.068
287.941
282.604
276.944
271.626
266.049
260.156
253.77
247.962
242.116
236.017
230.042
223.72
217.433
212.291
209.996
210.26
211.371
214.138
218.808
229.672
246.533
264.189
280.569
296.268
311.914
328.889
347.91
367.131
388.193
413.619
442.152
460.274
462.542
461.072
457.981
451.866
444.04
435.843
426.387
415.814
406.359
392.473
319.7
318.272
314.743
310.68
305.953
300.817
295.022
290.091
285.574
280.478
274.345
266.301
258.251
250.248
244.1
238
232.187
226.678
220.775
217.101
217.184
217.905
220.17
225.606
237.372
253.003
269.906
287.152
305.181
319.117
336.709
355.456
374.595
395.383
420.537
449.459
467.138
470.636
469.59
466.625
460.597
453.115
444.639
434.98
424.071
414.308
399.949
333.681
332.607
328.586
323.21
316.694
310.693
304.932
299.453
293.998
287.848
281.455
274.437
267.095
260.574
253.666
246.98
240.093
232.981
227.39
224.824
224.656
225.253
227.463
232.985
243.252
258.707
275.788
293.808
311.574
327.306
342.385
363.674
382.286
402.671
427.544
457.299
475.326
479.332
478.51
475.42
469.74
462.414
453.913
444.129
432.9
422.944
407.982
348.418
347.604
343.592
338.947
333.988
328.012
321.424
315.211
309.385
302.889
295.881
287.56
278.851
270.944
264.704
258.195
251.614
245.421
238.79
233.873
233.018
233.369
234.941
239.305
249.393
265.257
283.122
301.398
320.359
336.059
352.739
369.997
389.795
410.624
435.563
466.267
483.677
488.18
488.362
484.96
479.199
472.1
463.797
454.435
442.753
432.703
417.126
364.541
363.538
358.606
353.357
347.591
340.368
333.629
327.356
321.008
314.166
306.739
297.852
289.731
281.707
273.81
266.558
259.614
252.194
246.274
242.474
241.735
242.456
244.25
248.69
257.55
272.962
292.344
310.22
328.445
344.158
361.577
379.525
398.228
419.221
443.758
473.824
491.909
497.161
497.591
494.174
488.672
482.009
473.962
464.768
453.576
443.357
427.125
380.513
379.944
374.927
369.716
363.606
356.404
348.649
341.111
333.966
326.703
319.188
310.631
301.364
292.864
285.681
278.428
271.139
264.118
257.229
251.943
250.011
250.399
251.981
256.533
266.017
280.454
299.567
318.887
334.645
350.202
367.502
386.175
406.102
427.69
452.001
481.276
499.297
506.54
507.707
503.99
498.153
491.613
483.973
475.253
464.544
454.61
437.741
393.916
392.858
387.587
381.741
375.045
367.58
360.31
353.577
347.117
339.817
331.609
321.202
311.853
302.918
294.607
286.826
279.399
271.796
265.012
260.241
258.82
259.54
261.53
264.806
273.076
288.459
308.301
326.742
344.898
360.25
376.751
394.762
413.94
435.508
460.071
488.369
509.093
516.204
517.513
513.697
507.558
500.883
493.755
485.564
475.501
466.263
449.108
406.438
405.256
400.37
394.806
387.955
380.457
372.255
364.308
356.91
348.97
340.466
331.245
321.958
312.813
304.698
296.707
288.842
281.263
274.266
268.534
266.145
266.774
268.267
272.987
280.952
295.68
315.729
334.549
350.302
365.991
382.544
401.561
421.462
443.008
467.627
496.455
518.451
526.326
527.196
523.379
516.906
509.879
503.015
495.546
486.045
477.751
460.799
419.722
418.351
413.533
407.027
399.508
392.221
384.805
377.296
370.202
362.185
353.492
342.258
332.527
323.116
314.454
306.048
297.883
289.491
282.517
276.835
275.128
275.603
277.212
279.978
288.166
303.872
324.272
343.273
359.695
375.551
391.796
409.764
429.281
450.575
475.376
505.48
528.503
536.539
536.415
532.602
526.103
518.611
511.557
504.711
495.615
488.172
471.698
433.899
431.685
426.474
420.151
413.564
405.357
396.922
389.024
381.186
372.649
363.737
353.84
343.889
334.086
325.157
316.359
307.76
299.246
291.91
285.02
282.94
283.485
285.18
288.988
296.18
311.364
331.932
351.419
367.827
382.979
399.549
417.948
437.505
458.541
483.451
513.743
537.217
544.697
545.619
541.786
535.489
527.664
520.304
513.53
504.569
497.652
481.563
450.666
448.275
442.834
436.622
429.135
421.118
412.69
404.728
396.409
387.909
378.488
367.313
356.646
346.421
337.021
327.732
318.64
309.324
301.393
295.338
292.182
292.542
294.161
297.227
304.133
319.469
340.296
360.239
377.35
393.042
409.43
426.914
446.364
467.146
492.32
523.049
549.219
557.831
556.713
551.971
545.756
537.625
529.844
522.862
513.982
507.282
491.306
470.826
468.271
462.68
455.718
447.559
438.914
430.072
420.174
411.83
403.112
393.75
382.613
371.405
360.554
350.61
340.775
331.038
321.138
312.658
304.579
301.64
301.924
303.792
307.757
315.028
328.891
349.834
370.224
387.702
403.512
420.068
437.509
456.193
476.832
501.82
532.885
558.375
567.167
567.305
563.062
556.973
548.675
540.457
533.035
524.181
517.705
501.682
493.593
490.611
484.467
477.24
468.378
458.369
447.68
439.373
431.126
422.029
411.938
399.854
387.723
376.401
365.947
355.589
345.44
335.142
324.848
316.373
313.182
313.598
314.88
318.222
325.898
340.429
360.72
382.007
399.701
415.539
432.333
449.365
467.364
487.682
512.234
542.473
567.331
579.964
578.871
575.407
569.192
560.663
551.877
543.976
534.966
528.701
512.61
519.299
516.266
509.544
501.515
492.18
482.709
473.265
464.218
454.477
444.158
433.263
419.705
406.081
393.766
382.694
371.761
361.011
349.84
337.962
330.447
325.427
324.86
326.264
330.279
338.626
352.264
373.378
394.403
412.975
428.661
445.308
462.429
479.885
499.343
523.114
551.884
572.889
588.199
590.823
588.074
581.9
573.209
563.866
555.281
545.954
539.694
523.603
546.47
543.362
536.005
527.22
516.734
504.883
493.257
481.07
470.632
460.71
449.322
436.584
424.655
411.625
399.882
388.288
376.944
365.187
354.068
344.584
337.517
336.971
338.112
342.035
351.542
364.782
386.3
406.962
424.997
441.447
458.186
475.487
492.765
511.85
534.869
562.765
584.588
599.38
603.037
601.406
595.34
586.421
576.54
567.187
557.416
550.841
534.652
573.481
570.172
562.242
553.235
542.235
530.918
519.451
509.456
498.9
487.236
475.839
460.849
444.346
429.936
417.357
405.091
392.976
380.186
365.32
356.155
349.212
348.053
349.8
353.62
362.73
377.796
399.101
419.39
438.158
454.766
471.393
488.718
506.04
524.854
546.902
574.234
595.965
610.037
614.252
614.567
608.886
599.941
589.734
579.66
569.423
562.269
546.133
600.24
597.305
589.039
579.234
567.675
554.878
541.105
529.1
519.348
507.945
495.888
480.193
463.522
448.477
435.295
422.449
409.937
396.614
385.279
370.779
365.962
362.907
363.165
365.756
375.092
390.766
412.931
432.385
451.034
468.104
485.052
502.432
519.908
538.94
560.374
587.93
612.17
626.095
629.287
629.237
624.184
614.996
604.399
593.652
582.862
574.985
559.146
626.48
623.552
614.977
605.393
593.529
580.718
567.501
555.423
543.423
530.672
516.475
499.746
484.126
468.178
454.245
440.797
427.476
413.941
398.006
385.848
375.415
377.577
376.943
378.888
386.892
403.685
427.888
446.071
466.28
481.532
499.535
517.135
534.813
554.12
575.493
603.622
628.978
643.094
646.214
646.153
640.7
631.463
620.626
609.365
597.974
589.282
573.77
651.893
649.243
640.698
630.565
618.536
605.536
591.948
579.493
568.016
555.16
542.939
526.802
505.762
488.88
474.147
459.919
446.365
433.131
422.261
410.381
401.809
390.458
391.09
393.911
401.597
415.941
447.532
462.053
480.507
498.031
514.115
532.024
549.935
569.533
590.979
619.577
641.942
660.705
663.466
662.817
657.542
648.196
637.35
625.738
613.682
604.117
588.872
679.35
676.842
667.904
658.08
645.98
632.451
618.053
604.414
591.379
578.219
562.7
544.043
528.318
510.928
495.533
480.613
465.946
450.457
434.617
422.717
414.488
410.477
407.276
410.047
418.753
435.408
464.171
480.289
496.148
509.078
528.974
547.353
565.463
585.557
607.201
636.075
659.464
678.146
680.905
680.346
675.518
666.03
654.807
642.825
630.065
619.456
604.052
711.201
708.718
698.773
688.377
675.605
662.236
648.118
635.085
622.694
608.804
594.654
576.161
554.811
535.989
519.716
503.875
488.046
471.955
455.139
440.801
427.962
422.754
423.825
427.579
433.885
450.446
471.977
501.364
514.31
534.568
548.155
564.524
582.438
603.06
625.282
653.783
680.751
696.296
699.352
698.905
694.754
685.521
673.752
661.26
647.772
636.036
619.858
747.025
744.989
734.137
723.167
709.439
695.005
679.22
664.8
651.117
637.102
621.441
601.677
582.209
562.631
545.574
529.129
513.059
496.443
482.492
465.866
452.634
443.35
440.273
443.662
451.591
462.912
473.516
513.636
535.713
550.247
567.879
583.855
601.038
621.68
644.672
671.786
699.461
715.478
718.539
720.019
716.234
707.01
694.415
681.254
667.044
654.332
636.956
782.462
779.34
767.267
755.587
740.938
726.208
710.113
695.54
681.693
667.09
651.667
631.539
609.97
589.359
571.363
554.077
536.475
517.264
497.306
480.937
466.158
456.713
465.239
464.957
468.783
475.944
487.228
517.468
547.948
565.474
584.242
602.06
619.427
639.48
662.744
689.162
720.289
735.537
740.886
741.764
738.043
728.949
716.279
702.354
687.427
673.96
655.475
816.994
813.445
800.998
788.404
772.696
756.684
739.085
723.558
708.963
693.809
677.761
657.337
636.221
615.537
597.073
578.989
561.35
542.955
524.266
506.391
490.88
478.271
479.696
484.206
488.488
499.358
504.635
530.678
564.921
588.756
603.385
620.33
637.937
657.245
680.637
707.399
738.645
756.039
761.614
762.858
759.532
750.524
738.035
723.822
708.373
694.406
674.987
852.274
847.876
834.378
821.147
804.569
787.892
769.599
753.303
738.086
722.175
705.684
684.712
662.859
641.494
622.617
603.939
585.257
564.585
545.441
527.817
509.068
497.424
497.49
499.79
507.749
514.83
536.317
545.647
574.089
600.004
622.4
639.179
657.347
676.358
700.243
727.823
762.041
778.099
783.563
784.236
780.586
771.97
759.63
745.542
729.672
715.308
695.071
889.767
884.776
871.189
857.052
839.489
821.247
801.531
784.13
768.003
751.074
733.639
712.017
689.775
668.088
648.771
629.496
610.381
590.065
569.545
549.451
531.73
516.18
512.444
516.178
519.353
529.937
551.314
576.36
602.061
621.399
639.022
659.045
677.779
696.991
720.72
748.718
780.286
796.78
803.809
806.015
802.801
794.267
781.526
767.606
751.364
736.595
715.528
929.718
923.635
909.931
895.251
877.28
858.23
837.631
818.862
801.615
783.28
764.571
741.784
718.769
696.309
676.264
656.28
636.78
615.729
595.497
575.473
561.248
547.928
535.31
535.359
541.756
550.476
569.53
594.443
625.582
647.944
664.9
680.875
699.096
718.631
741.629
769.408
802.158
819.771
824.828
827.256
825.347
817.132
804.339
790.239
773.692
758.542
736.511
972.769
966.382
952.578
937.443
918.926
898.722
877.252
857.383
839.049
819.447
799.218
774.903
750.335
726.562
705.453
684.387
663.834
641.687
619.681
600.952
588.192
578.755
568.948
563.291
563.513
567.362
579.729
609.81
641.907
665.74
686.034
703.599
721.532
741.259
764.308
792.346
826.882
843.491
849.037
852.343
848.593
840.544
828.375
814.331
797.352
781.75
758.507
1018.73
1012.36
998.764
983.833
965.392
944.831
922.622
901.546
882.002
860.799
838.971
812.739
786.379
760.729
738.26
715.825
694.19
671.39
648.536
625.282
605.799
595.412
590.466
589.996
593.457
599.144
608.945
634.841
670.448
691.019
710.052
727.544
745.272
765.302
788.56
817.502
851.182
870.597
880.742
883.452
878.283
867.561
854.157
840.009
822.776
806.785
782.041
1068.22
1061.82
1047.97
1032.91
1014.42
993.962
971.959
950.416
930.359
908.104
885.252
856.97
828.216
800.134
775.677
751.489
727.942
702.955
678.497
656.225
636.359
616.215
610.043
612.357
613.762
621.348
634.294
666.748
689.489
719.278
737.367
754.168
771.085
790.982
814.455
843.577
876.831
897.8
909.503
910.221
903.604
897.713
883.075
867.889
850.257
834.09
807.63
1123.1
1116.76
1102.63
1087.69
1068.82
1048.19
1025.56
1003.62
983.083
959.831
936.441
906.195
875.001
844.507
817.511
790.963
765.425
738.645
712.542
687.778
665.847
644.676
631.217
628.338
635.63
646.876
661.167
688.927
716.921
738.753
760.811
781.174
799.691
819.369
842.495
872.007
905.984
928.939
940.248
941.484
936.319
928.055
913.511
897.835
879.672
863.585
835.367
1186.24
1179.16
1163.27
1147.5
1127.55
1106.77
1083.54
1061.28
1040.21
1016.72
993.052
961.468
928.021
894.897
865.53
836.213
807.848
778.302
749.674
723.389
699.845
680.216
669.381
665.335
666.672
667.737
682.032
705.57
747.396
768.228
790.361
811.107
831.338
851.446
873.84
902.966
937.459
958.785
973.774
976.455
972.055
960.897
945.425
928.944
910.228
894.349
864.698
1259.18
1251.2
1233.08
1215.69
1193.13
1170.86
1145.55
1122.2
1100.21
1076.11
1051.57
1019.16
984.459
949.191
917.39
885.757
854.91
822.187
790.198
760.249
733.751
714.648
698.606
697.909
698.772
707.097
716.737
721.82
762.752
801.588
822.69
843.108
863.96
884.714
906.381
933.636
968.129
986.498
1002.21
1005.7
1002.03
993.505
977.382
960.158
940.882
925.087
894.54
1338.95
1329.43
1307.9
1287.92
1262.13
1237.61
1209.57
1184.28
1160.93
1135.56
1109.55
1075.95
1039.94
1003.41
970.117
936.378
903.289
867.88
832.625
799.565
769.69
742.395
724.552
718.182
718.762
727.9
749.857
773.659
791.773
820.269
854.781
879.786
897.912
917.146
940.747
967.609
1000.26
1019.37
1033.39
1037.63
1035.2
1025.23
1008.86
991.103
971.255
955.329
924.233
1422.87
1411.33
1386.26
1363.07
1333.14
1305.3
1273.67
1245.75
1220.36
1192.94
1165.01
1130.11
1093.29
1055.54
1020.95
985.898
951.33
913.823
875.909
840.202
809.735
783.134
765.824
759.173
761.209
768.987
780.496
798.064
829.889
850.424
881.958
908.197
927.288
946.533
969.189
996.348
1031.01
1052.5
1066.06
1069.66
1068.12
1057.18
1040.27
1022.04
1001.56
985.456
954.121
1511.88
1498.28
1469.9
1443.27
1409.07
1377.24
1341.38
1310.13
1281.88
1251.58
1220.44
1183.21
1144.99
1106.65
1071.57
1035.81
1000.31
961.309
921.241
882.944
848.167
810.686
786.347
781.225
781.463
787.442
795.246
813.237
846.353
892.301
918.228
938.373
957.452
976.512
1000.4
1028.48
1063.93
1092.01
1104.08
1105.24
1102.59
1091.68
1073.74
1054.99
1033.68
1017.24
985.997
1611.11
1595.25
1564.38
1534.64
1496.52
1460.56
1420.24
1385.06
1353.15
1319.07
1283.86
1243.24
1202.63
1162.56
1126.19
1089.37
1052.89
1013.13
971.769
931.439
895.572
863.186
834.31
817.251
816.365
817.115
828.895
840.462
870.698
917.939
951.645
976.467
992.523
1010.39
1035.01
1064.5
1101.85
1134.01
1146.49
1147.89
1142.92
1129.94
1110.66
1091.39
1068.75
1052.12
1020.83
1727.12
1709.46
1676.62
1644.24
1602.6
1562.35
1517.4
1477.67
1441.38
1402.96
1362.53
1317.14
1272.24
1228.85
1190.32
1152.03
1114.08
1072.99
1030.18
987.664
948.992
918.04
887.796
867.846
862.476
863.798
866.27
873.441
913.536
961.209
990.801
1017.15
1036.95
1052.25
1075.63
1106.15
1143.19
1176.3
1190.06
1192.59
1181.46
1168.89
1148.74
1129.38
1104.63
1088.2
1056.09
1859.73
1840.39
1805.33
1770.95
1726.2
1682.11
1632.7
1588.27
1547.44
1504.16
1458.14
1406.64
1355.25
1306.6
1263.86
1222.08
1180.84
1137.18
1092.51
1048.02
1005.24
957.377
920.297
898.4
891.007
894.208
900.75
919.281
956.252
985.818
1027.97
1051.12
1075.44
1095.82
1118.78
1149.77
1185.58
1215.07
1230.49
1234.83
1223.52
1207.62
1186.9
1166.79
1139.57
1123.29
1089.35
2003.89
1983.42
1945.53
1909.29
1861.65
1814.21
1761.03
1712.23
1667.31
1619.34
1567.96
1509.6
1450.64
1395.19
1346.2
1298.64
1252.52
1204.64
1156.86
1111.11
1068.31
1035.15
994.742
966.318
951.722
947.885
950.464
964.415
997.859
1040.09
1072.66
1104.75
1122.46
1140.3
1161.68
1192.46
1228.31
1257.18
1273.11
1276.4
1270.96
1250.97
1228.71
1206.48
1177.28
1159.06
1122.8
2155.67
2133.5
2093.23
2055.07
2004.32
1954.09
1897.62
1845.53
1797.24
1745.5
1690.04
1625.21
1558.01
1494.87
1438.75
1384.15
1331.72
1277.2
1223.91
1173.22
1128.45
1089.41
1050.43
1013.94
1003.18
1000.21
1003.73
1012.41
1031.42
1065.61
1112.19
1145.14
1170.01
1190.2
1209.31
1237.76
1271.54
1303.57
1324.48
1331.4
1318.68
1300.04
1275.7
1251.74
1220.17
1199.63
1160.25
2319.35
2295.26
2251.53
2211.44
2157.65
2104.86
2045.54
1990.58
1939.19
1884.07
1825.3
1754.48
1682.07
1611.58
1547.42
1484.29
1423.54
1360.58
1299.93
1243.42
1191.83
1134.26
1088
1055.12
1031.85
1031.77
1036.05
1046.72
1068.1
1113.49
1157.02
1180.51
1199.3
1224.79
1253.12
1285.77
1321.56
1355.1
1377.74
1387.45
1375.14
1355.31
1328.54
1303.11
1270.16
1247.56
1204.4
2505.32
2478.38
2430.41
2387.22
2329.01
2272.81
2209.56
2151.31
2096.7
2038.17
1975.85
1899.3
1822.02
1744.61
1673.28
1602.62
1533.05
1460.81
1390.81
1326.74
1269.98
1229.81
1185.58
1146.27
1119.66
1110.21