/*--------------------------------*- C++ -*----------------------------------*\
| =========                 |                                                 |
| \\      /  F ield         | OpenFOAM: The Open Source CFD Toolbox           |
|  \\    /   O peration     | Version:  2212                                  |
|   \\  /    A nd           | Website:  www.openfoam.com                      |
|    \\/     M anipulation  |                                                 |
\*---------------------------------------------------------------------------*/
FoamFile
{
    version     2.0;
    format      ascii;
    arch        "LSB;label=32;scalar=64";
    class       volVectorField;
    location    "0.0084";
    object      U;
}
// * * * * * * * * * * * * * * * * * * * * * * * * * * * * * * * * * * * * * //

dimensions      [0 1 -1 0 0 0 0];

internalField   nonuniform List<vector> 
27200
(
(282 0.38 -1.83e-21)
(282 0.423 1.1e-19)
(283 0.404 1.1e-19)
(282 0.229 -1.83e-21)
(282 0.367 -1.09e-19)
(282 0.442 1.38e-21)
(283 0.428 -4.58e-22)
(-82.4 0.122 -3.2e-21)
(-83.4 0.0485 -1.17e-19)
(-83.7 0.13 -3.52e-20)
(-83.1 -0.000175 -8.48e-20)
(-82.5 0.121 3.6e-20)
(-82.6 0.0518 0)
(-83.9 0.134 0)
(129 -0.272 -1.87e-21)
(129 -0.493 1.53e-19)
(130 -0.0321 9.34e-22)
(129 0.103 2.93e-19)
(129 0.0453 0)
(129 -0.521 -1.39e-19)
(130 -0.332 0)
(-19.3 0.0184 6.6e-22)
(-18.9 -0.108 -2.13e-19)
(-18.8 0.239 2.12e-19)
(-19.2 0.232 -9.89e-20)
(-19.6 0.263 -2.12e-19)
(-19.6 -0.107 9.9e-20)
(-19.1 -0.0111 0)
(67 0.0677 2.38e-19)
(67.1 -0.063 2.48e-19)
(67.1 -0.128 -1.07e-20)
(67.1 -0.328 9.09e-22)
(67.1 -0.144 4.87e-19)
(67.1 -0.0467 0)
(67.2 0.0898 2.39e-19)
(28 0.0281 -2.3e-19)
(28.4 -0.0903 0)
(28.4 0.0912 -2.26e-19)
(28.2 -0.00413 0)
(27.9 0.101 -2.27e-19)
(27.9 -0.0798 9.06e-22)
(28.3 0.0314 -4.58e-19)
(40.4 0.0167 1.05e-25)
(40.5 -0.103 -7.24e-21)
(40.5 0.0121 4.63e-19)
(40.4 -0.115 0)
(40.3 0.0158 -1.81e-21)
(40.3 -0.0544 -4.62e-19)
(40.5 0.0662 2.34e-19)
(39.7 0.0365 -4.63e-19)
(40.2 -0.0883 0)
(40.2 0.0127 -9.3e-19)
(40.1 -0.118 0)
(39.9 0.0127 -1.82e-21)
(39.9 -0.0399 1.65e-21)
(40.2 0.0805 0)
(38.9 0.0716 4.77e-19)
(39.2 -0.0574 0)
(39.2 0.0604 4.67e-19)
(39.1 -0.0466 0)
(38.9 0.0617 4.67e-19)
(38.9 -0.0796 4.67e-19)
(39.2 0.0348 0)
(38.6 0.0949 -4.34e-19)
(38.8 -0.011 -4.8e-19)
(38.9 0.0777 -4.65e-19)
(38.7 -0.0332 -4.73e-19)
(38.6 0.0669 -9.24e-19)
(38.6 -0.06 -4.66e-19)
(38.8 0.0471 -4.66e-19)
(38.7 0.0935 4.49e-19)
(38.9 -0.00807 2.83e-23)
(38.9 0.0763 4.65e-19)
(38.8 -0.0363 4.65e-19)
(38.7 0.0646 9.28e-19)
(38.7 -0.0537 5.49e-21)
(38.9 0.0525 4.64e-19)
(38.8 0.0713 4.77e-19)
(39.1 -0.0268 9.33e-19)
(39.1 0.0718 0)
(39 -0.038 -4.67e-19)
(38.8 0.0626 3.63e-21)
(38.8 -0.0487 4.64e-19)
(39.1 0.0556 0)
(38.9 0.0594 4.65e-19)
(39.1 -0.0557 -1.4e-18)
(39.1 0.0618 9.31e-19)
(39 -0.0488 1.4e-18)
(38.9 0.0586 -4.62e-19)
(38.9 -0.0522 -3.64e-21)
(39.1 0.0546 0)
(38.9 0.0545 1.45e-20)
(39.1 -0.058 9.12e-19)
(39.1 0.0593 -9.29e-19)
(39 -0.0521 -9.38e-19)
(38.9 0.0572 1.09e-20)
(38.9 -0.0532 -3.63e-21)
(39.1 0.0546 9.29e-19)
(38.8 0.0597 -1.85e-18)
(39.1 -0.0529 -1.45e-20)
(39.1 0.0568 1.46e-20)
(39 -0.052 0)
(38.8 0.0593 3.64e-21)
(38.8 -0.0531 -5.44e-21)
(39.1 0.0548 -1.86e-18)
(38.8 0.0614 9.11e-19)
(39.1 -0.0495 -9.17e-19)
(39.1 0.0588 0)
(39 -0.0513 -9.35e-19)
(38.8 0.0588 0)
(38.8 -0.0534 -1.81e-21)
(39.1 0.0557 9.33e-19)
(38.8 0.0615 -9.11e-19)
(39.1 -0.0493 9.3e-19)
(39.1 0.0594 0)
(39 -0.0517 9.24e-19)
(38.8 0.0572 -9.21e-19)
(38.8 -0.0538 -9.28e-19)
(39.1 0.0559 9.29e-19)
(38.8 0.0606 9.4e-19)
(39.1 -0.0506 -7.24e-21)
(39.1 0.059 9.2e-19)
(39 -0.0522 0)
(38.8 0.0564 9.28e-19)
(38.8 -0.0539 7.74e-25)
(39.1 0.0557 -9.29e-19)
(38.8 0.0597 0)
(39.1 -0.0518 9.38e-19)
(39.1 0.0583 -7.27e-21)
(39 -0.0529 0)
(38.8 0.0559 3.62e-21)
(38.8 -0.0541 9.26e-19)
(39.1 0.0554 0)
(38.8 0.0587 9.11e-19)
(39.1 -0.053 7.29e-21)
(39.1 0.0573 -9.4e-19)
(39 -0.0539 -3.65e-21)
(38.8 0.0558 7.25e-21)
(38.8 -0.0546 -1.82e-21)
(39.1 0.0553 -1.82e-21)
(38.8 0.0575 -1.85e-18)
(39.1 -0.0539 -9.33e-19)
(39.1 0.0562 0)
(39 -0.0545 -9.34e-19)
(38.8 0.0558 0)
(38.8 -0.055 -9.29e-19)
(39.1 0.0553 0)
(38.8 0.0563 9.26e-19)
(39.1 -0.0549 0)
(39.1 0.0551 0)
(39 -0.0552 1.87e-18)
(38.8 0.0557 0)
(38.8 -0.0554 6.75e-25)
(39.1 0.0554 0)
(38.8 0.055 -9.24e-19)
(39.1 -0.0561 0)
(39.1 0.0539 -9.34e-19)
(39 -0.0562 -9.36e-19)
(38.8 0.0553 -9.3e-19)
(38.8 -0.0559 9.34e-19)
(39.1 0.0555 -4.54e-22)
(38.8 0.0538 9.26e-19)
(39.1 -0.0572 -9.35e-19)
(39.1 0.053 9.35e-19)
(39 -0.0571 9.35e-19)
(38.8 0.0549 9.35e-19)
(38.8 -0.0565 0)
(39.1 0.0554 0)
(38.8 0.0525 9.23e-19)
(39.1 -0.0589 1.87e-18)
(39.1 0.052 9.34e-19)
(39 -0.0583 -9.35e-19)
(38.8 0.0541 9.37e-19)
(38.8 -0.057 9.35e-19)
(39.1 0.0554 9.28e-19)
(38.8 0.051 -9.27e-19)
(39.1 -0.0607 9.26e-19)
(39.1 0.051 -9.34e-19)
(39 -0.0595 1.88e-18)
(38.8 0.0531 -9.31e-19)
(38.8 -0.0576 9.27e-19)
(39.1 0.0552 -9.27e-19)
(38.8 0.0492 -1.87e-18)
(39.1 -0.0625 -3.72e-18)
(39.1 0.0499 -1.87e-18)
(39 -0.0605 -3.74e-18)
(38.8 0.0522 -1.87e-18)
(38.8 -0.0581 -3.72e-18)
(39.1 0.0551 -1.86e-18)
(38.8 0.0472 -1.45e-20)
(39.1 -0.0645 1.88e-18)
(39.1 0.0488 8.55e-25)
(39 -0.0617 1.87e-18)
(38.8 0.0514 1.85e-18)
(38.8 -0.0586 1.86e-18)
(39.1 0.055 1.86e-18)
(38.8 0.0452 1.82e-18)
(39.1 -0.0665 2.91e-20)
(39.1 0.0477 1.85e-18)
(39 -0.063 0)
(38.8 0.0506 0)
(38.8 -0.0592 -3.63e-21)
(39.1 0.0549 3.63e-21)
(38.8 0.0432 1.88e-18)
(39.1 -0.0685 -2.9e-20)
(39.1 0.0467 1.87e-18)
(39 -0.0643 8.68e-27)
(38.8 0.0501 -7.25e-21)
(38.8 -0.0598 -1.09e-20)
(39.1 0.0549 3.63e-21)
(38.8 0.041 -1.85e-18)
(39.1 -0.0705 1.83e-18)
(39.1 0.0455 -1.85e-18)
(39 -0.0654 4.38e-20)
(38.8 0.0496 2.24e-26)
(38.8 -0.0603 -7.25e-21)
(39.1 0.0549 -7.26e-21)
(38.8 0.0387 0)
(39.1 -0.0726 -3.74e-18)
(39.1 0.0443 2.9e-20)
(39 -0.0665 0)
(38.8 0.0494 1.86e-18)
(38.8 -0.0608 0)
(39.1 0.055 0)
(38.8 0.0365 5.79e-20)
(39.1 -0.0746 1.77e-18)
(39.1 0.0431 2.9e-20)
(39 -0.0675 1.87e-18)
(38.8 0.0493 -1.86e-18)
(38.8 -0.0612 -1.85e-18)
(39.1 0.0552 -7.26e-21)
(38.8 0.0343 1.85e-18)
(39.1 -0.0764 1.85e-18)
(39.1 0.042 1.88e-18)
(39 -0.0684 -1.9e-18)
(38.8 0.0494 -1.86e-18)
(38.8 -0.0615 9.96e-24)
(39.1 0.0554 -1.86e-18)
(38.8 0.0326 -1.16e-19)
(39.1 -0.0779 5.79e-20)
(39.1 0.0411 -1.88e-18)
(39 -0.0688 1.87e-18)
(38.9 0.0495 2.9e-20)
(38.8 -0.0617 1.86e-18)
(39.1 0.0556 1.86e-18)
(38.8 0.0313 -1.85e-18)
(39.1 -0.079 -4.61e-26)
(39.1 0.0404 0)
(39 -0.0695 -1.87e-18)
(38.9 0.0494 3.38e-24)
(38.8 -0.062 -1.85e-18)
(39.1 0.0557 1.85e-18)
(38.8 0.0304 -5.79e-20)
(39.1 -0.0798 -1.8e-18)
(39.1 0.0401 -8.7e-20)
(39 -0.07 -1.84e-18)
(38.9 0.0491 1.84e-18)
(38.9 -0.0622 1.87e-18)
(39.1 0.0557 -1.86e-18)
(38.8 0.03 -1.85e-18)
(39.1 -0.0801 1.97e-18)
(39.1 0.0401 -8.7e-20)
(39 -0.0701 3.77e-18)
(38.9 0.0489 1.86e-18)
(38.9 -0.0623 7.26e-21)
(39.1 0.0557 1.85e-18)
(38.8 0.0299 1.91e-18)
(39.1 -0.08 -3.71e-18)
(39.1 0.0403 2.9e-20)
(39 -0.0701 -2.92e-20)
(38.9 0.0489 -1.87e-18)
(38.9 -0.0623 1.87e-18)
(39.1 0.0557 -1.86e-18)
(38.9 0.0304 0)
(39.1 -0.0795 1.85e-18)
(39.1 0.0406 2.9e-20)
(39 -0.0698 -1.9e-18)
(38.9 0.049 0)
(38.9 -0.0622 -3.72e-18)
(39.1 0.0557 0)
(38.9 0.0312 0)
(39.1 -0.0785 0)
(39.1 0.0411 2.9e-20)
(39 -0.0693 1.81e-18)
(38.9 0.0492 2.9e-20)
(38.9 -0.0621 1.87e-18)
(39.1 0.0556 -7.27e-21)
(38.9 0.0325 1.91e-18)
(39.1 -0.0773 1.86e-18)
(39.1 0.0419 -8.7e-20)
(39 -0.0687 -1.84e-18)
(38.9 0.0494 -1.86e-18)
(38.9 -0.0618 7.26e-21)
(39.1 0.0556 -1.87e-18)
(38.9 0.0343 -3.59e-18)
(39.1 -0.0756 -1.91e-18)
(39.1 0.0429 1.86e-18)
(39 -0.068 -2.92e-20)
(38.9 0.0493 3.75e-18)
(38.9 -0.0614 -1.86e-18)
(39.1 0.0556 1.86e-18)
(38.9 0.0365 1.85e-18)
(39.1 -0.0736 0)
(39.1 0.0441 -1.89e-18)
(39 -0.0673 2.92e-20)
(38.9 0.0494 -1.86e-18)
(38.9 -0.0612 -3.35e-24)
(39.1 0.0554 1.86e-18)
(38.9 0.0392 -1.85e-18)
(39.1 -0.0716 0)
(39.1 0.0451 0)
(39 -0.0663 0)
(38.9 0.0497 1.86e-18)
(38.9 -0.0608 1.86e-18)
(39.1 0.0554 -1.86e-18)
(38.9 0.0421 1.83e-18)
(39.1 -0.0693 2.92e-20)
(39.1 0.0461 0)
(39 -0.0652 1.87e-18)
(38.9 0.05 -3.74e-18)
(38.9 -0.0606 3.63e-21)
(39.1 0.0552 3.63e-21)
(38.9 0.045 0)
(39.1 -0.066 1.46e-20)
(39.1 0.0466 -1.45e-20)
(39 -0.0646 -1.87e-18)
(38.9 0.0499 1.87e-18)
(38.9 -0.0605 -1.86e-18)
(39.1 0.0551 -3.63e-21)
(38.9 0.0477 -1.45e-20)
(39.1 -0.0631 0)
(39.1 0.0472 -1.87e-18)
(39 -0.0638 0)
(38.9 0.0493 -3.63e-21)
(38.9 -0.0608 1.86e-18)
(39.1 0.0548 0)
(38.9 0.0515 0)
(39.1 -0.0597 0)
(39.1 0.0477 1.86e-18)
(39 -0.0634 -1.87e-18)
(38.9 0.0487 1.86e-18)
(38.9 -0.0611 0)
(39.1 0.0545 0)
(38.9 0.0556 -1.85e-18)
(39.1 -0.0564 0)
(39.1 0.047 7.25e-21)
(39 -0.0639 3.73e-18)
(38.9 0.0473 -1.78e-23)
(38.9 -0.0621 0)
(39.1 0.054 0)
(38.9 0.0593 1.89e-18)
(39.1 -0.054 1.83e-18)
(39.1 0.0451 -1.84e-18)
(39 -0.0656 -1.88e-18)
(38.9 0.0447 -3.72e-18)
(38.9 -0.0638 7.26e-21)
(39.1 0.0533 1.86e-18)
(38.9 0.0625 -5.8e-20)
(39.1 -0.0531 -5.57e-18)
(39.1 0.042 -1.89e-18)
(39 -0.0691 2.92e-20)
(38.9 0.0409 1.86e-18)
(38.9 -0.0668 0)
(39.1 0.0521 -1.86e-18)
(38.8 0.0653 0)
(39.1 -0.0544 7.42e-18)
(39.1 0.0348 3.74e-18)
(39 -0.0763 -2.92e-20)
(38.9 0.0317 3.72e-18)
(38.9 -0.072 1.45e-20)
(39.2 0.0502 3.72e-18)
(38.8 0.0666 5.79e-20)
(39.1 -0.0597 -3.71e-18)
(39.1 0.0275 3.78e-18)
(39 -0.0879 0)
(38.9 0.0238 2.65e-23)
(38.9 -0.0793 1.45e-20)
(39.2 0.0475 -3.74e-18)
(38.8 0.0658 3.71e-18)
(39.1 -0.0676 1.74e-19)
(39.1 0.00632 -5.83e-20)
(39 -0.107 -3.74e-18)
(38.9 0.00302 3.93e-23)
(38.9 -0.0898 0)
(39.2 0.0436 -3.72e-18)
(38.7 0.0622 -3.71e-18)
(39 -0.0877 0)
(39.1 -0.0109 -5.83e-20)
(39 -0.134 3.79e-18)
(38.9 -0.0142 -3.71e-18)
(38.9 -0.105 -2.9e-20)
(39.2 0.0378 3.72e-18)
(38.7 0.0528 -1.16e-19)
(39 -0.101 1.16e-19)
(39.1 -0.0653 -7.7e-18)
(39 -0.178 1.17e-19)
(38.9 -0.0629 5.83e-20)
(39 -0.125 -5.81e-20)
(39.2 0.0278 0)
(38.5 0.0346 1.16e-19)
(38.9 -0.172 -3.73e-18)
(39 -0.113 3.5e-18)
(39 -0.248 3.85e-18)
(39 -0.101 0)
(39 -0.173 0)
(39.3 0.0222 0)
(38.4 -0.00318 -3.94e-18)
(38.8 -0.209 3.73e-18)
(39 -0.247 1.17e-19)
(39 -0.347 -3.85e-18)
(39 -0.216 0)
(39.1 -0.197 0)
(39.4 -0.0189 0)
(38.1 -0.0668 7.41e-18)
(38.7 -0.407 0)
(38.9 -0.387 3.85e-18)
(39 -0.518 -1.17e-19)
(39.1 -0.301 0)
(39.2 -0.333 -3.73e-18)
(39.5 -0.0136 0)
(37.7 -0.189 -3.59e-18)
(38.4 -0.548 -3.73e-18)
(38.9 -0.667 -7.46e-18)
(39.1 -0.726 3.73e-18)
(39.2 -0.56 -3.73e-18)
(39.4 -0.372 3.74e-18)
(39.7 -0.133 0)
(37.2 -0.385 0)
(38.3 -1.01 3.73e-18)
(38.6 -1.04 3.76e-18)
(39 -1.14 -3.76e-18)
(39.5 -0.743 3.75e-18)
(39.6 -0.688 -7.3e-21)
(40.1 -0.08 -3.74e-18)
(36.3 -0.749 0)
(37.7 -1.47 3.8e-18)
(38.8 -1.59 3.76e-18)
(39.4 -1.54 3.81e-18)
(39.6 -1.29 3.77e-18)
(40.1 -0.728 0)
(40.4 -0.358 3.74e-18)
(35 -1.37 1.07e-18)
(37.7 -2.41 -4.35e-18)
(38.4 -2.43 -2.96e-18)
(39.3 -2.46 -4.03e-18)
(40.2 -1.6 -3.94e-18)
(40.6 -1.35 0)
(41.2 -0.197 0)
(33.2 -2.41 -1.29e-18)
(37.1 -3.45 -4.93e-18)
(38.7 -3.24 -1.02e-18)
(40.2 -3.04 -2.76e-19)
(40.6 -2.54 1.31e-19)
(41.5 -1.35 0)
(41.9 -0.738 0)
(31.2 -2.99 0)
(37.3 -5.33 5.27e-18)
(38.4 -4.74 2.45e-18)
(40.4 -4.58 -1.62e-21)
(41.6 -2.87 -2.16e-18)
(42.3 -2.4 0)
(43.1 -0.355 0)
(31.6 -6.73 -2.29e-17)
(37.3 -7.35 4.28e-17)
(39.3 -5.68 0)
(41.9 -5.12 1.87e-17)
(42.5 -4.08 1.76e-17)
(43.9 -2.19 1.86e-17)
(44.6 -1.21 -1.96e-18)
(34.9 -8.94 4.08e-17)
(39.1 -10.7 -3.94e-17)
(40.2 -7.61 3.77e-17)
(43 -7.4 -1.81e-17)
(44.3 -4.15 -3.48e-17)
(45.3 -3.76 -1.67e-17)
(46.5 -0.325 1.61e-17)
(38.8 -10.7 -3.89e-20)
(41.4 -11.7 -3.77e-17)
(43.2 -8.18 1.84e-17)
(45.7 -7.53 -1.8e-17)
(46.3 -5.6 2.64e-17)
(47.8 -3.14 -2.57e-17)
(48.8 -1.56 -3.36e-17)
(42.1 -12 -3.96e-17)
(44.5 -13.9 3.92e-17)
(45.2 -9.11 1.91e-17)
(47.6 -9.81 0)
(49.1 -4.86 9.2e-18)
(50.1 -5.27 -8.99e-18)
(51.7 -0.0177 3.54e-17)
(45.3 -13.2 -4.2e-17)
(46.7 -14.4 0)
(49.4 -9.69 -4.06e-17)
(51.3 -9.68 0)
(52.2 -6.49 -2.92e-17)
(53.6 -4.11 9.6e-18)
(55 -1.68 -3.75e-17)
(48.6 -14.2 4.5e-17)
(50.4 -16.5 2.3e-20)
(51.7 -10.7 -2.17e-17)
(53.7 -11.9 -4.24e-17)
(55.8 -5.61 3.12e-17)
(57.1 -6.66 1.02e-17)
(58.9 0.419 1.99e-17)
(52.2 -15.3 2.42e-17)
(53.3 -16.9 4.77e-17)
(56.6 -11.3 2.33e-17)
(58.5 -11.8 4.54e-17)
(60 -7.35 4.44e-17)
(61.4 -5.46 0)
(63.3 -1.56 2.12e-17)
(56.2 -16.3 5.23e-17)
(58 -19.4 -5.17e-17)
(59.8 -12.3 2.51e-17)
(61.9 -14.3 -2.45e-17)
(64.9 -6.58 -4.77e-17)
(66.3 -8.27 5.82e-18)
(68.8 0.732 -5.11e-17)
(60.8 -17.6 -5.69e-17)
(62 -20.1 8.41e-17)
(66.1 -13.4 -5.45e-17)
(68.2 -14.4 -5.29e-17)
(70.6 -8.48 7.73e-17)
(72.4 -7.27 0)
(75.1 -1.25 2.45e-17)
(66.2 -18.8 0)
(68.4 -23.3 -3.08e-17)
(70.6 -14.4 7.37e-20)
(73.6 -17.6 5.78e-17)
(77.5 -7.89 -1.41e-17)
(79.4 -10.4 -6.81e-18)
(83 1.23 -3.29e-17)
(72.5 -20.3 1.04e-16)
(73.9 -24.7 -6.83e-17)
(79.4 -16.1 -3.3e-17)
(82.1 -18.3 6.33e-17)
(85.7 -9.68 1.52e-17)
(88.4 -9.63 1.49e-17)
(92.5 -0.796 5.75e-17)
(80.3 -21.7 3.88e-17)
(83.1 -29.7 0)
(86.1 -17.3 -3.67e-17)
(90.5 -22.5 -3.53e-17)
(95.9 -9.42 -3.4e-17)
(99.3 -14.1 8.13e-18)
(105 1.92 -3.97e-17)
(89.9 -23.9 8.87e-17)
(92.1 -32.2 0)
(99.1 -19.3 0)
(103 -24.1 0)
(110 -12 0)
(114 -14.3 -2.69e-17)
(120 0.506 8.77e-18)
(102 -25.7 -1.28e-16)
(107 -40.2 1e-16)
(111 -20.8 0)
(119 -31.8 -4.44e-17)
(127 -10.6 4.24e-17)
(132 -19.5 4.09e-17)
(141 4.24 1.88e-17)
(118 -28.8 6.13e-17)
(124 -46.2 -2.87e-17)
(133 -24.5 -5.49e-17)
(141 -34.6 5.21e-17)
(150 -12.2 -7.29e-17)
(158 -20.7 2.31e-17)
(168 4.56 -2.25e-17)
(141 -31.2 -1.95e-18)
(153 -59.7 7.09e-17)
(157 -22.1 9.77e-17)
(172 -44.9 -6.17e-17)
(180 -7.41 5.79e-17)
(193 -27.9 -8.27e-19)
(203 10.8 -2.54e-17)
(175 -34.4 2.91e-16)
(190 -63.6 -2.71e-16)
(194 -17.4 -8.54e-17)
(215 -44.6 1.12e-16)
(220 0.769 -1.36e-16)
(238 -28.6 7.44e-17)
(246 21.8 1.48e-17)
(224 -23.8 -2.32e-17)
(241 -55.4 -4.09e-17)
(243 -2.32 2.02e-17)
(267 -33.2 4.27e-17)
(269 17.4 0)
(292 -21.6 -3.69e-17)
(294 37.8 0)
(287 7.52 -2.2e-17)
(304 -16.1 3.47e-17)
(302 31.4 3.01e-18)
(322 -1.39 -1.48e-17)
(323 39.7 6.24e-18)
(345 -5.85 7.89e-18)
(342 50.9 0)
(337 51.1 -4.13e-17)
(353 23.7 1.21e-17)
(349 61.4 0)
(369 17.3 2.87e-17)
(369 53.2 -3.04e-17)
(390 -0.926 0)
(382 52.1 0)
(369 79.7 -1.13e-17)
(386 45.8 0)
(386 70.5 0)
(405 25 3.86e-17)
(403 55.9 -1.21e-17)
(424 -6.68 -2.9e-17)
(411 46.2 0)
(392 87.7 -3.12e-17)
(414 42.9 3.59e-17)
(413 67.7 0)
(431 18.4 -3.8e-18)
(427 53.4 8.78e-18)
(447 -14.2 -5e-18)
(430 38.9 1.81e-17)
(412 92.8 0)
(439 35.1 -1.31e-17)
(433 65.7 0)
(451 11.8 -2.83e-18)
(445 47.6 -1.4e-17)
(463 -15.9 2.37e-18)
(445 35.4 -1.79e-17)
(430 97.1 1.07e-17)
(459 32.7 1.36e-17)
(450 65.3 1.18e-17)
(467 9.68 -1.73e-18)
(460 43.9 1.92e-17)
(475 -13.8 1.55e-17)
(458 33 1.71e-17)
(445 99.9 -1.19e-18)
(474 33.5 -2.2e-17)
(464 66.7 -1.83e-18)
(480 10.3 9.84e-18)
(472 44.5 -6.56e-18)
(484 -11 -6.72e-18)
(469 31.9 -1.65e-18)
(458 102 9.79e-18)
(487 35.5 0)
(476 69.9 -1.05e-17)
(490 12.3 -1e-17)
(482 46 -9.35e-18)
(493 -8.28 -9.98e-18)
(479 31 -1.17e-17)
(469 103 -5.83e-19)
(497 37.8 -1.69e-17)
(485 73 0)
(499 14.7 8.06e-18)
(491 48.8 4.86e-18)
(501 -6.48 -2.13e-18)
(488 30.4 6.63e-18)
(478 104 0)
(505 40 0)
(493 76.3 0)
(507 16.4 7.23e-18)
(499 51.2 -8e-18)
(509 -5.12 -6.95e-18)
(496 30 -9.2e-18)
(485 105 -1.27e-17)
(512 42.1 -1.24e-17)
(500 78.5 0)
(514 17.9 -5.96e-18)
(505 53.6 -7.18e-18)
(516 -4.93 7.02e-18)
(504 30 1.47e-17)
(492 106 0)
(518 43.7 1.25e-17)
(506 80.7 0)
(520 18.9 1.26e-17)
(511 55.1 1.55e-17)
(522 -4.72 9.71e-18)
(510 29.9 -1.66e-17)
(498 106 -1.06e-17)
(523 45 -1.09e-17)
(512 82 6.04e-18)
(526 19.7 4.78e-18)
(517 56.6 -1.15e-18)
(527 -5.52 -1.14e-17)
(516 30.7 0)
(503 107 0)
(528 46.1 -9.49e-18)
(517 83.2 1.1e-17)
(531 20 -1.04e-17)
(522 57.3 -1.89e-17)
(532 -5.84 -1.18e-17)
(521 30.9 -1.11e-17)
(508 108 0)
(532 47.1 1.87e-17)
(521 83.6 -1.44e-17)
(535 20.3 -4.05e-18)
(526 58.2 1.04e-17)
(537 -6.77 9.41e-18)
(526 32 1.12e-17)
(512 108 8.24e-18)
(536 48 -3.43e-19)
(526 84.3 1.33e-17)
(539 20.2 4.46e-18)
(530 58.2 0)
(541 -7.01 0)
(531 32.2 9.47e-18)
(516 109 1.52e-17)
(540 48.8 -1.61e-17)
(530 84.1 4.04e-18)
(543 20.2 -1.14e-17)
(534 58.7 -8.11e-18)
(544 -7.77 -9.39e-19)
(534 33.3 -8.35e-18)
(520 109 -6.86e-18)
(543 49.3 1.43e-17)
(533 84.6 -3.94e-18)
(546 20.1 3.8e-18)
(538 58.6 8.16e-18)
(547 -7.84 8.72e-19)
(538 33.3 -1.07e-18)
(523 110 7.05e-18)
(547 49.9 -7.36e-18)
(537 84 6.92e-18)
(549 20.1 3.33e-18)
(541 58.6 -8.92e-18)
(550 -8.22 -1.67e-18)
(541 34.3 7.63e-18)
(527 111 2.37e-19)
(549 50.3 -6.52e-18)
(540 84.7 -3.68e-18)
(552 20.1 -6.3e-18)
(544 58.8 1.71e-17)
(553 -8.18 -5.97e-18)
(544 33.9 -7.63e-18)
(530 111 -5.76e-18)
(551 50.2 5.98e-18)
(543 83.8 3.09e-18)
(554 20.2 -2.99e-18)
(547 58.5 -6.62e-18)
(555 -8.22 3.64e-19)
(547 34.8 0)
(532 112 0)
(554 50.5 5.43e-18)
(546 83.2 -2.92e-18)
(557 20.4 5.53e-18)
(550 58.6 4.27e-18)
(557 -8.06 -1.04e-18)
(550 34 -6.3e-18)
(535 113 -1.01e-17)
(558 51 5.04e-18)
(548 83.6 2.5e-18)
(559 20.5 -6.22e-20)
(552 58.5 -8.7e-18)
(559 -7.92 9.29e-19)
(553 34.8 -4.14e-19)
(537 113 4.96e-18)
(560 50.9 -4.76e-18)
(550 83.9 -8.02e-18)
(561 20.6 4.9e-18)
(555 58.5 3.8e-18)
(561 -7.71 3.77e-18)
(555 33.9 3.31e-19)
(540 113 1.3e-19)
(560 50.7 0)
(553 83 2.47e-18)
(563 20.8 -2.34e-18)
(557 58.1 -2.94e-19)
(563 -7.4 4.48e-18)
(557 34.3 1.09e-17)
(542 114 4.5e-18)
(563 50.9 8.3e-18)
(555 83.1 1.15e-17)
(565 21.1 -4.38e-18)
(559 58.1 -1.28e-18)
(565 -7.09 2.93e-18)
(559 33.4 -5.31e-18)
(544 114 0)
(567 51.3 -5.01e-19)
(557 83.9 -1.14e-17)
(567 21.4 1.03e-17)
(561 57.9 1.14e-18)
(566 -6.73 -1.76e-17)
(561 33.7 0)
(546 114 -6.16e-20)
(569 51.5 -1.16e-17)
(559 84.7 1.03e-17)
(568 21.7 -1.8e-17)
(563 58.2 0)
(568 -6.37 1.57e-17)
(563 32.8 0)
(548 114 0)
(569 51.4 0)
(561 84.9 -1.41e-17)
(569 21.9 5.9e-18)
(564 57.6 9.01e-18)
(569 -5.98 -1.29e-18)
(565 33.1 0)
(550 114 -1.05e-17)
(570 51.4 3.41e-18)
(563 84.9 5.94e-18)
(571 22.3 7.11e-18)
(566 57.8 1.61e-18)
(571 -5.58 -3.32e-19)
(566 32.1 8.28e-18)
(552 114 6.99e-18)
(573 51.9 -3.34e-18)
(564 85.6 5.5e-18)
(573 22.6 -8.82e-18)
(568 57.6 -8.56e-18)
(572 -5.19 -1.29e-17)
(568 32.3 -8.29e-18)
(553 114 -3.22e-18)
(575 52.4 -2.9e-18)
(565 86.5 5.07e-18)
(574 22.8 -3.19e-18)
(569 57.8 5.14e-18)
(573 -4.8 2.96e-19)
(569 31.5 0)
(555 114 -3.07e-18)
(576 52.5 8.62e-18)
(567 87 1.37e-18)
(575 23.1 4.91e-18)
(571 57.9 -6.96e-18)
(575 -4.42 6.41e-18)
(571 31.6 0)
(556 115 0)
(576 52.6 0)
(568 87.2 -6.54e-18)
(576 23.3 -1.49e-18)
(572 58 1.66e-18)
(576 -4.05 0)
(572 30.9 0)
(558 115 0)
(577 52.8 -5.21e-18)
(570 87.3 0)
(578 23.6 1.43e-18)
(573 57.9 -1.59e-18)
(577 -3.66 5.64e-18)
(574 31.1 0)
(559 115 -2.73e-18)
(579 53.5 7.93e-18)
(571 87.8 2.95e-18)
(579 23.8 4.07e-18)
(574 58.2 1.52e-18)
(578 -3.35 -5.63e-18)
(575 30.4 0)
(560 116 0)
(581 54 -2.1e-19)
(572 88.4 -5.42e-18)
(580 24 -5.47e-18)
(575 58.5 0)
(579 -3.02 0)
(576 30.5 0)
(562 116 4.93e-18)
(582 54.4 -1.14e-17)
(573 89 1.05e-17)
(581 24.2 -6.32e-18)
(577 58.3 1.4e-18)
(580 -2.74 0)
(577 30.2 -5.93e-18)
(563 116 -4.95e-18)
(582 54.6 4.48e-18)
(574 89.3 -5.28e-18)
(582 24.5 1.11e-17)
(578 58.8 -1.35e-18)
(581 -2.54 3.02e-19)
(578 30.1 -1.5e-19)
(564 116 -2.25e-18)
(583 54.9 -6.26e-18)
(575 89.2 2.5e-18)
(583 24.5 -5.84e-18)
(578 58.9 1.29e-18)
(582 -2.17 0)
(579 29.8 5.71e-18)
(565 117 4.59e-18)
(584 55.1 6.14e-18)
(576 89.6 7.24e-18)
(584 24.8 4.28e-18)
(579 58.6 6.23e-19)
(583 -2.13 3.92e-18)
(581 30 -5.32e-18)
(566 117 0)
(585 55.5 -7.98e-18)
(577 89.9 -4.77e-18)
(585 25.2 -9.75e-18)
(581 58.9 1.21e-18)
(584 -2.11 -4.47e-18)
(581 29.6 1.62e-19)
(567 118 0)
(586 55.7 1.27e-19)
(578 90.1 -4.38e-18)
(587 25.8 5.43e-18)
(581 59.3 -1.13e-18)
(585 -1.6 -4.17e-18)
(582 29.8 5.13e-18)
(567 118 0)
(587 55.9 7.42e-18)
(578 89.9 4.19e-18)
(587 25.9 -3.81e-18)
(582 59.7 -5.18e-19)
(586 -1.79 5.88e-19)
(583 29.6 -4.62e-18)
(568 118 4.15e-18)
(587 56.2 -5.45e-18)
(579 90.1 6.04e-18)
(587 25.8 2.69e-18)
(582 59.9 1.02e-18)
(586 -1.57 7.4e-18)
(583 29.5 4.31e-18)
(568 118 -3.9e-18)
(587 56.1 3.54e-18)
(580 90.3 3.69e-20)
(587 25.8 4.41e-18)
(582 59.9 -1e-18)
(586 -1.4 -7.13e-18)
(583 29.5 -4.42e-18)
(567 117 0)
(586 56 -5.25e-18)
(579 90.3 -1.85e-18)
(587 25.9 -3.47e-18)
(582 59.9 0)
(585 -1.25 -1.15e-19)
(582 29.2 4.4e-18)
(565 117 0)
(585 55.5 -1.79e-18)
(579 89.9 1.9e-18)
(586 25.8 9e-19)
(581 59.7 -1e-18)
(583 -0.953 -3.45e-19)
(578 29.1 0)
(558 115 0)
(581 54.3 5.99e-18)
(575 89.2 2.51e-18)
(583 25.6 0)
(577 59.8 -4.8e-18)
(577 -0.864 3.73e-18)
(564 25.9 0)
(538 108 0)
(573 51.2 -5.92e-19)
(563 85.1 -8.14e-18)
(572 23.3 0)
(562 57.3 4.44e-18)
(557 2.82 0)
(514 27.1 0)
(474 87.9 -3.85e-18)
(543 43.9 5.3e-18)
(520 81.1 2.08e-17)
(536 21.8 -1.71e-18)
(509 55.8 1.8e-18)
(487 -9.02 1.6e-17)
(393 -29.3 8.28e-19)
(317 45 0)
(447 11.5 -9.07e-18)
(395 28.8 5.63e-17)
(418 -17.1 0)
(346 23.6 7.45e-17)
(256 81 -1.24e-17)
(92.9 21.9 0)
(-3.95 -0.709 0)
(-3.6 -0.775 3.09e-18)
(-3.47 -0.684 0)
(-3.06 -0.757 -1.23e-20)
(-2.66 -0.651 3.78e-20)
(-1.93 -0.794 -3.3e-18)
(-1.27 -0.396 1.68e-22)
(-1.15 -0.597 -3.15e-18)
(-1.2 -0.154 -3.06e-18)
(-2.07 -0.113 -5.13e-20)
(-2.59 0.845 7.42e-20)
(-3.56 -0.652 -7.4e-18)
(-4.86 -0.0243 -6.94e-18)
(-4.01 -0.733 -6.91e-18)
(-4.17 -0.721 1.07e-19)
(-3.58 -1.01 1.11e-19)
(-2.48 -0.886 1.45e-17)
(-1.35 -0.663 0)
(-0.713 -0.569 2.3e-19)
(0.104 -0.461 7.13e-18)
(0.687 -0.421 7.38e-18)
(1.36 -0.325 -7.4e-18)
(1.83 -0.254 -7.67e-18)
(2.47 -0.102 4.68e-19)
(2.83 0.0636 1.54e-22)
(2.81 0.26 -7.76e-18)
(2.41 0.385 -7.58e-18)
(1.79 0.455 7.63e-18)
(1.07 0.564 7.64e-18)
(0.0972 0.748 2.4e-19)
(-0.933 0.674 7.81e-18)
(-1.94 0.255 -1.55e-22)
(-2.5 -0.147 -2.51e-19)
(-2.95 -0.298 -8.09e-18)
(-3.4 -0.465 5.05e-19)
(-4 -0.638 -4.99e-19)
(-4.59 -0.633 -7.75e-18)
(-5.07 -0.677 7.67e-18)
(-5.56 -0.779 -7.69e-18)
(-6.09 -0.802 -4.81e-19)
(-6.59 -0.766 -7.19e-18)
(-6.93 -0.688 0)
(-6.96 -0.636 -7.6e-18)
(-6.73 -0.705 -4.73e-19)
(-6.43 -0.721 -7.12e-18)
(-6.24 -0.41 7.62e-18)
(-5.65 0.486 0)
(-7.06 1.09 -7.92e-18)
(-7.71 1.18 -5.52e-19)
(-10.4 -1.24 -9.27e-18)
(-9.48 -4.48 -6.24e-19)
(-9.93 -10.4 -9.55e-18)
(-4.7 -1.16 0)
(-4.28 -1.24 5.04e-22)
(-4.31 -1.22 0)
(-3.97 -1.29 0)
(-3.88 -1.37 0)
(-3.45 -1.29 3.49e-20)
(-3.58 -1.03 4.24e-18)
(-4.07 -0.457 2.99e-20)
(-4.26 0.372 2.99e-20)
(-4.47 0.692 -7.24e-20)
(-4.82 0.662 -5.75e-18)
(-5.33 -0.767 0)
(-4.46 -1.11 8.01e-20)
(-3.9 -1.79 4.76e-18)
(-3.86 -1.86 8.02e-20)
(-3.09 -2.27 9.55e-20)
(-2.29 -1.91 -7.54e-18)
(-1.41 -1.29 0)
(-0.664 -0.888 2.45e-19)
(0.127 -0.781 -8.11e-18)
(0.627 -0.604 -1.58e-17)
(1.32 -0.438 5.01e-22)
(1.78 -0.359 7.69e-18)
(2.4 -0.117 -7.75e-18)
(2.78 0.337 -8.04e-18)
(2.65 1.1 8.06e-18)
(2.05 1.24 7.85e-18)
(1.19 1.23 8.36e-18)
(0.345 1.26 -7.76e-18)
(-0.819 1.04 -1.76e-23)
(-2.05 0.805 -2.48e-19)
(-2.78 0.462 7.99e-18)
(-3.33 0.241 8.03e-18)
(-4.16 0.0828 8.04e-18)
(-5.18 0.177 0)
(-5.86 0.351 7.17e-18)
(-6.37 0.132 8.04e-18)
(-6.77 -0.00907 -1.52e-17)
(-7.22 -0.186 7.58e-18)
(-7.56 -0.432 0)
(-7.72 -0.67 1.51e-17)
(-7.59 -1.25 0)
(-7.13 -1.76 7.53e-18)
(-6.57 -2.04 4.72e-19)
(-6.1 -2.06 7.1e-18)
(-5.72 -1.9 7.59e-18)
(-5.16 -1.34 0)
(-5 -0.909 1.58e-17)
(-3 1.03 -8.31e-18)
(-1.05 -0.43 1.58e-17)
(-0.623 1.33 8.22e-18)
(0.306 -1.17 1.61e-17)
(-4.59 -1.4 0)
(-4.29 -1.37 -3.11e-18)
(-4.31 -1.46 1.27e-20)
(-4.21 -1.5 3.55e-18)
(-4.16 -1.44 -1.7e-20)
(-3.99 -1.58 8.69e-25)
(-4.48 -0.799 1.37e-23)
(-4.91 -0.248 3.88e-20)
(-4.64 0.502 0)
(-4.75 0.759 0)
(-4.31 0.655 9.88e-18)
(-4.16 -0.975 0)
(-3.99 -1.85 3.32e-18)
(-3.39 -2.18 -1.06e-19)
(-3.18 -2.24 6.04e-20)
(-2.72 -2.53 8.07e-20)
(-2.21 -2.43 -3.49e-19)
(-1.7 -2.09 2.51e-19)
(-1.19 -1.98 2.5e-19)
(-0.488 -1.8 -8.28e-18)
(-0.0218 -1.75 -6.98e-22)
(0.797 -1.72 7.96e-18)
(1.35 -1.62 0)
(2.22 -1.18 8.05e-18)
(2.63 -0.231 1.6e-17)
(2.33 1.12 2.54e-19)
(1.44 1.56 0)
(0.0796 1.82 -1.64e-17)
(-0.869 2.17 -2.55e-19)
(-1.77 2.53 2.76e-23)
(-2.7 2.22 -7.58e-18)
(-3.24 1.26 7.82e-18)
(-4.06 0.919 -8.3e-18)
(-5.1 1.28 2.46e-19)
(-5.94 0.987 -7.59e-18)
(-6.14 0.408 -7.48e-18)
(-6.31 0.184 -4.67e-19)
(-6.47 0.0297 1.54e-17)
(-6.55 -0.121 -4.69e-19)
(-6.65 -0.288 4.69e-19)
(-6.66 -0.503 -7.52e-18)
(-6.51 -0.869 7.06e-18)
(-6.42 -1.37 4.71e-19)
(-6.47 -1.52 4.72e-19)
(-6.63 -1.45 -4.73e-19)
(-6.87 -1.05 -7.59e-18)
(-6.92 -0.627 0)
(-7.62 -0.79 -7.17e-18)
(-6.58 -0.99 1.49e-17)
(-7.78 -3.12 -7.75e-18)
(-5.25 -4.44 -7.74e-18)
(-8.82 -0.934 -7.37e-18)
(-3.48 -1.39 3.04e-21)
(-3.33 -1.37 -3.08e-18)
(-3.59 -1.46 0)
(-3.44 -1.25 -3.2e-18)
(-3.83 -1.26 3.65e-18)
(-3.8 -1 4.95e-18)
(-4.29 -0.653 5.45e-18)
(-4.6 0.199 8.33e-20)
(-4.25 0.625 4.95e-18)
(-4.18 0.732 -7.05e-20)
(-3.63 0.102 -3.64e-18)
(-3.51 -1.24 0)
(-3.15 -1.76 0)
(-3 -2.14 -5.07e-20)
(-2.9 -2.41 1.75e-23)
(-2.66 -2.6 1.65e-19)
(-2.35 -2.71 -1.21e-19)
(-2.29 -2.55 0)
(-2.03 -2.52 7.79e-18)
(-1.46 -2.53 7.73e-18)
(-0.994 -2.63 7.69e-18)
(0.105 -2.53 0)
(1.2 -2.33 7.97e-18)
(2.18 -1.51 2.59e-19)
(2.72 0.066 -1.72e-17)
(2.04 2.08 -2.65e-19)
(0.842 2.99 2.61e-19)
(-0.977 3.02 8e-18)
(-2.72 2.58 5.15e-19)
(-3.45 2.48 -2.99e-23)
(-4.05 2.19 -2.19e-23)
(-4.6 1.78 -8.3e-18)
(-5.69 1.96 2.46e-19)
(-6.16 1.79 -8.03e-18)
(-6.38 1.26 7.69e-18)
(-6.53 0.862 7.45e-18)
(-6.76 0.549 -7.46e-18)
(-6.89 0.452 -7.47e-18)
(-7.01 0.274 -7.48e-18)
(-7.01 -0.00773 -4.69e-19)
(-7.03 -0.422 4.69e-19)
(-6.92 -1.17 -7.52e-18)
(-6.87 -1.61 0)
(-6.86 -1.73 4.72e-19)
(-6.85 -1.7 -8.05e-18)
(-6.79 -1.49 0)
(-6.59 -1.12 0)
(-6.16 -0.605 -4.76e-19)
(-5.69 0.3 -7.63e-18)
(-5.82 -0.728 -7.16e-18)
(-6.55 0.871 7.17e-18)
(-7.9 -1.48 -7.18e-18)
(-2.58 -1.22 0)
(-2.43 -1.1 3.14e-18)
(-2.54 -0.954 0)
(-2.65 -0.655 -1.22e-20)
(-2.83 -0.951 -3.24e-18)
(-3.2 -0.509 -3.73e-18)
(-3.39 -0.482 -5.11e-18)
(-3.98 0.342 5.36e-18)
(-3.42 0.319 3.89e-20)
(-3.24 0.766 3.76e-18)
(-2.95 -0.0959 3.24e-18)
(-2.92 -1.14 4.74e-20)
(-2.94 -2.07 3.11e-18)
(-2.71 -2.45 -5.14e-20)
(-2.64 -2.7 -5.92e-20)
(-2.58 -2.78 8.54e-20)
(-2.44 -2.9 7.7e-18)
(-2.49 -2.75 0)
(-2.28 -2.73 2.07e-21)
(-1.68 -3.09 7.54e-18)
(-1.1 -3.38 0)
(0.158 -3.65 7.88e-18)
(0.716 -3.47 -8.43e-18)
(1.32 -2.55 -2.8e-19)
(1.59 -0.0925 1.81e-17)
(0.682 2.53 2.82e-19)
(-0.802 4.04 8.82e-18)
(-2.09 4.59 -8.53e-18)
(-3.58 3.98 -8.42e-18)
(-4.46 3.18 0)
(-5.17 3.15 -8.18e-18)
(-6.03 2.7 7.84e-18)
(-6.38 2.32 0)
(-6.45 1.92 7.44e-18)
(-6.69 1.35 4.64e-19)
(-6.67 0.807 -4.64e-19)
(-6.86 0.592 7.45e-18)
(-6.86 0.443 0)
(-6.82 0.182 1.5e-17)
(-6.7 -0.0583 0)
(-6.53 -0.357 7.51e-18)
(-6.41 -0.805 0)
(-6.55 -1.22 0)
(-6.74 -1.39 7.55e-18)
(-6.97 -1.35 7.57e-18)
(-7.17 -1.24 0)
(-7.34 -1.26 0)
(-7.48 -1.32 7.13e-18)
(-6.91 -1.5 4.76e-19)
(-7.19 -2.05 1.53e-17)
(-5.62 -1.59 -8.14e-18)
(-6.04 -1.12 8.64e-18)
(-2.29 -1.36 -3.09e-21)
(-2.06 -1.2 3.15e-18)
(-2.12 -1.04 0)
(-1.78 -0.577 1.22e-20)
(-1.81 0.0113 -1.22e-20)
(-1.9 0.409 0)
(-2.32 0.365 -3.6e-18)
(-2.45 0.368 -4.27e-18)
(-2.38 0.545 -4.31e-18)
(-2.17 0.607 -3.71e-18)
(-1.97 0.065 -3.18e-18)
(-2.2 -1 -4.82e-20)
(-2.09 -2.05 -3.03e-18)
(-2.09 -2.53 -5.07e-20)
(-2.1 -2.61 0)
(-2.16 -2.78 -5.31e-18)
(-2.24 -2.98 -1.54e-17)
(-2.46 -2.96 -7.38e-18)
(-2.28 -3.15 2.64e-21)
(-1.82 -3.61 -1.52e-17)
(-1.79 -4.33 0)
(-1.93 -4.69 4.72e-21)
(-2.3 -4.57 0)
(-2.45 -3.71 -2.81e-19)
(-2.69 -0.301 4.16e-22)
(-3.52 3.67 2.82e-19)
(-4.72 4.92 -8.82e-18)
(-4.95 5.3 8.56e-18)
(-5.7 4.9 8.42e-18)
(-6.59 3.79 -2.59e-19)
(-6.94 3.28 1.62e-17)
(-7.03 2.78 -7.72e-18)
(-7.05 2.41 -7.42e-18)
(-7.02 1.93 7.41e-18)
(-7.1 1.4 0)
(-7.14 0.938 -1.53e-17)
(-7.31 0.767 7.91e-18)
(-7.25 0.537 0)
(-7.26 0.244 -7.94e-18)
(-7.26 -0.138 -1.05e-22)
(-7.16 -0.599 -7.04e-18)
(-7.24 -1.09 0)
(-7.34 -1.32 0)
(-7.45 -1.38 -4.72e-19)
(-7.5 -1.32 -7.09e-18)
(-7.46 -1.14 0)
(-7.3 -0.883 7.6e-18)
(-7.06 -0.588 -1.52e-17)
(-6.8 -0.461 -7.62e-18)
(-6.7 -0.981 -1.48e-17)
(-6.51 -0.545 -8.61e-18)
(-6.44 -1.88 -6.71e-18)
(-2.25 -1.45 -3.17e-18)
(-1.96 -1.31 -3.15e-18)
(-1.89 -1.2 1.23e-20)
(-1.6 -0.877 -2.46e-20)
(-1.12 -0.473 -1.23e-20)
(-0.588 0.59 3.67e-24)
(-0.271 0.874 3.18e-18)
(-0.411 1.28 -3.31e-18)
(-0.675 1.12 -3.49e-18)
(-0.748 1.01 -3.64e-18)
(-0.678 0.214 -3.27e-18)
(-0.874 -0.723 -3.07e-18)
(-1 -1.72 -3.07e-18)
(-1.4 -2.25 -3.24e-18)
(-1.59 -2.2 -3.58e-18)
(-1.91 -2.48 7.67e-20)
(-2.07 -2.83 7.47e-18)
(-2.98 -2.89 -3.07e-21)
(-3.06 -3.26 -7.64e-18)
(-3.07 -3.77 -3.61e-21)
(-3.61 -4.13 2.56e-19)
(-4.08 -4.43 2.72e-19)
(-5.05 -4.33 -9.01e-18)
(-6.16 -3.38 9.15e-18)
(-7.78 -0.577 -1.81e-17)
(-7.89 3.03 8.92e-18)
(-7.98 4.36 -8.72e-18)
(-7.88 4.74 0)
(-7.93 4.7 -8.01e-18)
(-7.77 3.5 7.81e-18)
(-7.47 3.1 -1.49e-17)
(-7.42 2.9 7.16e-18)
(-7.47 2.38 -2.32e-19)
(-7.33 1.87 2.33e-19)
(-7.34 1.47 0)
(-7.39 1.08 1.49e-17)
(-7.42 0.85 -1.49e-17)
(-7.3 0.598 7.46e-18)
(-7.18 0.368 -7.47e-18)
(-7.07 -0.00332 7.49e-18)
(-6.93 -0.322 -7.97e-18)
(-6.96 -0.66 4.7e-19)
(-7.11 -0.987 -7.54e-18)
(-7.27 -1.2 -7.55e-18)
(-7.41 -1.27 7.57e-18)
(-7.49 -1.33 0)
(-7.44 -1.45 -7.6e-18)
(-7.23 -1.57 8.09e-18)
(-6.86 -1.73 7.63e-18)
(-6.55 -1.91 7.17e-18)
(-5.86 -1.91 8.14e-18)
(-5.64 -2.04 7.68e-18)
(-2.29 -1.71 -6.89e-22)
(-1.96 -1.52 3.17e-18)
(-1.95 -1.51 3.2e-18)
(-1.6 -1.22 3.23e-18)
(-1.17 -0.965 -3.75e-20)
(-0.442 -0.146 2.46e-20)
(0.248 0.691 3.12e-18)
(0.675 1.13 3.19e-18)
(0.93 1.5 3.18e-18)
(0.882 1.25 3.33e-18)
(1.04 0.677 3.25e-18)
(0.501 -0.162 6.33e-18)
(0.189 -1.06 3.13e-18)
(-0.637 -1.64 6.36e-18)
(-1.05 -1.66 3.39e-18)
(-1.66 -2.09 9.68e-18)
(-1.91 -2.47 0)
(-3.22 -2.56 7.31e-18)
(-3.38 -2.88 7.64e-18)
(-3.73 -3.2 1.54e-17)
(-4.73 -3.61 0)
(-5.65 -3.71 2.28e-21)
(-7.03 -3.43 8.51e-18)
(-8.34 -2.23 -8.72e-18)
(-10.1 -0.041 1.73e-17)
(-10.2 2.46 -8.45e-18)
(-9.88 3.58 1.67e-17)
(-9.42 4.05 -6.16e-23)
(-8.68 3.93 7.72e-18)
(-8.29 3.04 2.33e-19)
(-8.04 2.76 7.14e-18)
(-7.86 2.62 2.31e-19)
(-7.81 2.19 2.29e-19)
(-7.82 1.63 -7.63e-18)
(-7.77 1.34 0)
(-7.8 1.04 -7.43e-18)
(-7.77 0.766 1.44e-17)
(-7.71 0.468 4.66e-19)
(-7.66 0.176 7.47e-18)
(-7.61 -0.309 -6.64e-23)
(-7.6 -0.695 1.55e-17)
(-7.6 -0.942 6.57e-18)
(-7.71 -1.09 1.55e-17)
(-7.73 -1.17 7.54e-18)
(-7.76 -1.14 7.56e-18)
(-7.68 -1.09 0)
(-7.54 -1.06 7.59e-18)
(-7.36 -1.08 7.61e-18)
(-7.14 -1.23 7.62e-18)
(-6.9 -1.53 7.64e-18)
(-6.56 -1.72 0)
(-6.28 -2.38 7.19e-18)
(-1.9 -1.81 6.33e-18)
(-1.57 -1.6 2.27e-22)
(-1.55 -1.69 -6.45e-18)
(-1.43 -1.53 -3.29e-18)
(-1.1 -1.54 3.32e-18)
(-0.564 -0.821 2.56e-20)
(0.289 0.00838 1.91e-22)
(0.887 1.05 0)
(1.38 1.45 0)
(1.53 1.56 -4.98e-20)
(1.46 1.16 3.19e-18)