/*--------------------------------*- C++ -*----------------------------------*\
| =========                 |                                                 |
| \\      /  F ield         | OpenFOAM: The Open Source CFD Toolbox           |
|  \\    /   O peration     | Version:  2212                                  |
|   \\  /    A nd           | Website:  www.openfoam.com                      |
|    \\/     M anipulation  |                                                 |
\*---------------------------------------------------------------------------*/
FoamFile
{
    version     2.0;
    format      ascii;
    arch        "LSB;label=32;scalar=64";
    class       volScalarField;
    location    "0.012";
    object      T;
}
// * * * * * * * * * * * * * * * * * * * * * * * * * * * * * * * * * * * * * //

dimensions      [0 0 0 1 0 0 0];

internalField   nonuniform List<scalar> 
2308
(
197.864
186.936
232.318
173.154
182.866
178.504
176.57
180.742
184.47
151.98
153.858
156.544
158.45
160.367
162.26
164.118
165.921
167.475
165.778
163.987
162.096
160.157
158.172
156.122
154.074
152.018
150.011
147.987
176.884
167.678
145.88
143.837
141.817
139.81
137.813
135.822
133.833
131.844
129.852
127.861
125.869
123.88
121.89
119.9
117.91
117.91
119.897
121.883
123.872
125.86
127.848
129.836
131.826
133.812
135.8
137.791
139.784
141.786
143.8
145.837
147.921
149.868
151.774
153.6
155.333
157.026
158.796
160.644
162.507
164.355
166.186
115.924
115.915
165.977
164.012
162.037
160.047
158.036
156.013
153.995
151.945
149.896
147.892
145.863
143.835
141.822
139.819
137.822
135.829
133.836
131.844
129.851
127.859
125.867
123.877
121.887
119.898
117.909
169.144
115.921
169.371
167.988
115.894
117.886
119.873
121.862
123.849
125.838
127.829
129.821
131.807
133.795
135.784
137.772
139.762
141.756
143.757
145.759
147.748
149.696
151.65
153.55
155.406
157.234
159.063
160.915
162.78
164.638
166.485
182.146
177.791
176.122
177.137
168.305
166.183
164.067
162.023
159.996
157.971
155.947
153.925
151.891
149.849
147.845
145.837
143.825
141.818
139.819
137.822
135.828
133.835
131.841
129.848
127.855
125.864
123.873
121.882
119.893
117.905
115.918
113.928
113.933
113.935
113.923
181.864
113.905
183.551
184.289
169.751
186.553
181.481
170.962
168.337
111.939
111.942
111.943
111.93
111.916
111.9
113.888
115.88
117.866
119.855
121.842
123.831
125.821
127.812
129.803
131.793
133.782
135.77
137.758
139.747
141.737
143.727
145.712
147.681
149.622
151.577
153.511
155.454
157.379
159.267
161.152
163.037
164.918
166.784
172.496
200.955
181.357
180.385
178.345
176.38
174.372
172.329
170.264
168.189
166.129
164.06
162.002
159.962
157.932
155.904
153.878
151.85
149.821
147.816
145.815
143.813
141.812
139.816
137.82
135.826
133.832
131.837
129.843
127.852
125.859
123.866
121.876
119.888
117.898
115.91
113.922
111.933
248.551
185.282
203.924
171.181
223.587
185.309
170.185
172.666
111.887
113.876
115.864
117.853
119.839
121.828
123.818
125.809
127.8
129.79
131.781
133.77
135.758
137.747
139.734
141.72
143.701
145.675
147.634
149.581
151.534
153.49
155.464
157.443
159.401
161.341
163.258
165.159
167.055
168.654
187.777
184.393
180.475
178.287
176.256
174.229
172.19
170.143
168.094
166.049
164.003
161.959
159.925
157.896
155.871
153.845
151.82
149.8
147.795
145.797
143.802
141.808
139.811
137.818
135.822
133.827
131.831
129.84
127.846
125.852
123.86
121.871
119.881
117.89
115.902
113.914
111.926
109.937
109.943
109.947
109.949
109.948
109.941
109.927
109.913
109.9
207.092
229.686
271.13
187.024
196.099
271.999
168.935
170.525
189.394
188.914
197.187
179.968
180.238
178.186
176.135
174.098
172.064
170.03
167.997
165.966
163.935
161.905
159.879
157.857
155.836
153.816
151.796
149.783
147.78
145.785
143.794
141.801
139.807
137.813
135.817
133.821
131.828
129.835
127.839
125.846
123.856
121.864
119.872
117.883
115.893
113.905
111.918
109.931
107.942
107.948
107.953
107.953
107.956
107.958
107.947
107.936
107.925
107.914
107.904
109.89
111.878
113.865
115.855
117.841
119.83
121.819
123.809
125.801
127.791
129.78
131.77
133.759
135.747
137.733
139.718
141.7
143.677
145.645
147.603
149.555
151.511
153.479
155.46
157.446
159.451
161.444
163.414
165.354
167.28
189.236
170.785
172.394
174.558
190.859
190.513
188.697
187.034
185.294
182.316
182.162
180.154
178.075
176.011
173.965
171.937
169.913
167.896
165.878
163.86
161.843
159.826
157.812
155.799
153.787
151.775
149.767
147.768
145.775
143.783
141.791
139.797
137.803
135.808
133.815
131.822
129.826
127.833
125.842
123.85
121.856
119.866
117.874
115.885
113.898
111.91
109.923
107.936
105.949
105.954
105.958
105.961
105.964
105.961
105.961
105.954
105.946
105.936
105.927
105.918
105.91
107.897
109.883
111.871
113.859
115.847
117.836
119.824
121.814
123.804
125.793
127.783
129.772
131.761
133.749
135.736
137.72
139.703
141.681
143.655
145.621
147.581
149.538
151.496
153.472
155.451
157.441
159.45
161.47
163.492
165.495
167.458
169.183
190.954
190.764
265.727
171.042
186.399
188.398
190.271
174.092
178.473
174.726
172.597
192.316
192.223
103.96
103.963
103.967
103.969
103.968
103.968
103.966
103.961
103.954
103.947
103.939
103.93
103.921
103.914
105.902
107.891
109.879
111.867
113.856
115.844
117.833
119.821
121.811
123.8
125.788
127.776
129.765
131.752
133.738
135.724
137.707
139.688
141.666
143.637
145.603
147.565
149.524
151.487
153.463
155.445
157.432
159.444
161.461
163.491
165.537
167.573
169.396
182.752
192.579
176.446
230.823
180.077
177.944
175.865
173.823
171.802
169.792
167.788
165.786
163.781
161.775
159.769
157.763
155.759
153.754
151.751
149.75
147.754
145.761
143.77
141.777
139.785
137.791
135.798
133.805
131.811
129.819
127.827
125.835
123.842
121.85
119.857
117.867
115.879
113.89
111.902
109.915
107.929
105.942
103.955
192.338
192.565
245.455
174.334
194.195
172.871
103.908
105.897
107.886
109.875
111.863
113.853
115.842
117.83
119.819
121.807
123.796
125.783
127.771
129.757
131.743
133.728
135.711
137.693
139.672
141.649
143.622
145.589
147.552
149.514
151.48
153.458
155.433
157.424
159.433
161.448
163.476
165.528
167.611
169.58
181.307
194.076
101.965
101.969
101.972
101.975
101.974
101.974
101.974
101.972
101.966
101.961
101.955
101.947
101.939
101.932
101.924
101.917
184.126
193.865
191.708
189.598
187.474
178.589
179.25
185.957
173.843
179.855
177.737
175.68
173.659
171.658
169.667
167.678
165.69
163.698
161.704
159.709
157.713
155.716
153.719
151.723
149.728
147.735
145.744
143.753
141.761
139.77
137.778
135.786
133.794
131.802
129.809
127.818
125.826
123.834
121.842
119.851
117.862
115.871
113.882
111.896
109.91
107.922
105.936
103.948
101.959
242.073
171.288
175.816
193.907
194.322
194.212
179.925
244.909
248.223
177.294
174.712
169.751
177.143
210.271
179.117
239.134
101.912
103.902
105.892
107.882
109.871
111.861
113.849
115.839
117.827
119.815
121.803
123.79
125.778
127.764
129.749
131.734
133.717
135.699
137.679
139.657
141.633
143.606
145.576
147.542
149.506
151.474
153.449
155.426
157.416
159.419
161.431
163.455
165.493
167.542
169.603
182.672
199.26
201.964
99.9697
99.9739
99.9765
99.9798
99.9807
99.9812
99.9815
99.9793
99.9753
99.9719
99.9667
99.9602
99.9539
99.9472
99.9398
99.9331
99.9271
99.9208
178.956
195.388
193.048
190.832
188.724
186.709
226.84
199.424
181.382
179.43
177.443
175.456
173.478
171.506
169.538
167.568
165.594
163.616
161.634
159.648
157.661
155.672
153.683
151.693
149.703
147.713
145.723
143.734
141.744
139.754
137.763
135.772
133.781
131.79
129.799
127.808
125.817
123.826
121.835
119.845
117.854
115.865
113.876
111.89
109.902
107.915
105.929
103.941
101.953
99.9639
185.358
171.54
200.351
191.451
193.41
195.432
173.153
195.943
195.867
196.074
239.029
199.837
224.643
174.755
171.28
181.26
245.336
241.867
169.341
167.404
165.415
163.411
161.403
159.402
157.408
155.415
153.441
151.469
149.5
147.531
145.562
143.592
141.618
139.643
137.666
135.687
133.706
131.724
129.74
127.756
125.771
123.785
121.798
119.811
117.823
115.834
113.846
111.857
109.867
107.878
105.888
103.897
101.907
99.9154
238.786
97.9733
97.978
97.9812
97.9844
97.987
97.9867
97.9871
97.9852
97.982
97.9791
97.9752
97.97
97.9648
97.9595
97.9532
97.947
97.9414
97.935
97.9297
97.9239
183.729
171.833
189.543
249.081
248.933
248.98
248.955
248.862
245.151
241.549
238.107
174.608
235.885
197.464
201.672
201.003
192.745
194.79
196.908
175
186.512
244.073
196.677
194.275
192.061
190.042
188.228
185.244
186.849
182.673
180.876
179.023
177.134
175.218
173.289
171.353
169.411
167.46
165.501
163.537
161.566
159.59
157.611
155.629
153.645
151.661
149.675
147.689
145.702
143.714
141.726
139.737
137.748
135.758
133.769
131.778
129.788
127.798
125.808
123.817
121.827
119.837
117.847
115.858
113.87
111.882
109.895
107.908
105.921
103.934
101.946
99.9565
97.967
198.464
196.352
194.248
225.548
195.253
173.468
228.365
193.251
233.398
197.832
197.846
197.505
195.183
196.091
193.99
238.455
197.313
234.371
237.227
203.221
195.833
198.305
241.025
244.861
248.707
169.233
167.287
165.326
163.348
161.362
159.375
157.39
155.408
153.432
151.46
149.489
147.519
145.549
143.578
141.605
139.63
137.653
135.675
133.695
131.714
129.731
127.747
125.763
123.777
121.791
119.805
117.817
115.829
113.841
111.852
109.863
107.873
105.883
103.893
101.902
99.9111
97.919
189.439
191.165
193.145
195.325
197.699
200.242
220.951
182.098
172.444
190.768
193.131
234.805
235.338
200.654
198.288
173.102
229.837
224.788
183.543
184.717
253.163
239.717
244.621
202.928
95.9767
95.9817
95.9854
95.9884
95.9915
95.9916
95.9912
95.9893
95.9869
95.9846
95.9813
95.9772
95.9731
95.9689
95.9641
95.959
95.9541
95.9481
95.9425
95.9372
95.9324
95.9288
253.065
252.894
252.793
252.736
252.684
252.614
236.314
173.87
187.661
192.245
191.437
178.629
231.999
232.232
199.749
228.094
203.552
199.101
229.146
175.371
272.492
252.883
199.602
184.973
183.624
182.08
180.414
178.66
176.847
174.991
173.107
171.205
169.287
167.356
165.414
163.463
161.503
159.536
157.564
155.588
153.61
151.63
149.648
147.665
145.681
143.695
141.708
139.721
137.733
135.745
133.756
131.767
129.777
127.788
125.798
123.808
121.819
119.829
117.84
115.851
113.863
111.874
109.888
107.9
105.913
103.925
101.937
99.948
97.9593
95.9702
267.591
214.188
272.262
191.967
235.01
199.551
243.681
186.44
180.029
234.34
182.871
182.252
188.714
190.251
192.007
193.976
196.145
198.508
201.059
203.781
205.785
206.658
180.381
192.772
176.842
185.8
172.85
170.994
169.115
167.191
165.246
163.287
161.317
159.343
157.367
155.392
153.418
151.448
149.478
147.508
145.537
143.565
141.592
139.618
137.642
135.664
133.685
131.704
129.722
127.739
125.755
123.77
121.785
119.798
117.811
115.824
113.836
111.847
109.858
107.869
105.879
103.889
101.898
99.9068
97.9158
95.9256
240.442
244.494
248.522
252.529
231.779
271.922
193.933
196.239
198.888
211.001
204.652
207.817
171.462
187.331
175.693
174.421
188.841
191.162
189.706
186.02
231.474
231.73
204.874
201.552
173.632
225.249
179.775
220.964
217.194
203.031
200.597
224.99
177.237
180.993
181.561
190.967
218.487
221.445
224.851
186.844
188.05
256.841
256.868
256.817
256.722
256.628
256.558
256.522
256.49
256.463
185.775
175.831
201.359
201.696
228.386
222.491
182.696
184.568
183.162
181.655
180.053
178.364
176.607
174.798
172.951
171.076
169.179
167.264
165.336
163.396
161.446
159.487
157.522
155.552
153.578
151.602
149.623
147.642
145.66
143.677
141.692
139.706
137.719
135.731
133.744
131.755
129.766
127.777
125.788
123.799
121.81
119.821
117.832
115.843
113.855
111.867
109.879
107.892
105.904
103.916
101.928
99.9399
97.9514
95.9629
93.9737
93.9801
93.9854
93.9899
93.9919
93.9936
93.9942
93.9935
93.9921
93.9902
93.9883
93.9853
93.9825
93.9793
93.9759
93.9725
93.9684
93.9643
93.9594
93.9545
93.95
93.9454
93.9413
93.9378
93.9345
190.374
228.489
209.659
208.817
206.439
187.501
256.961
247.942
175.668
176.819
189.075
190.762
192.571
194.553
196.723
199.098
201.692
204.502
207.505
210.625
216.515
212.653
213.708
175.058
190.02
187.919
231.501
204.45
172.043
221.373
215.54
213.593
201.932
221.009
179.068
221.55
183.255
208.662
205.292
202.19
199.372
196.804
194.486
192.234
188.368
252.782
183.391
235.789
239.949
244.147
248.312
252.448
256.443
183.839
177.738
272.971
203.671
261.037
260.825
260.704
260.638
260.569
260.491
260.409
260.345
260.306
260.286
260.28
260.28
217.997
224.864
180.519
198.42
175.964
272.434
184.821
185.931
184.395
182.904
181.38
179.801
178.15
176.428
174.654
172.833
170.977
169.094
167.19
165.271
163.34
161.397
159.445
157.486
155.52
153.55
151.577
149.601
147.622
145.642
143.66
141.676
139.692
137.706
135.719
133.732
131.744
129.756
127.767
125.779
123.79
121.801
119.812
117.824
115.835
113.847
111.859
109.871
107.883
105.895
103.908
101.92
99.9319
97.9439
95.9556
93.9666
91.9764
91.9829
91.9888
91.9924
91.9946
91.9953
91.9952
91.9947
91.9936
91.9922
91.9905
91.9884
91.9863
91.9839
91.9814
91.9788
91.9757
91.9724
91.9686
91.9648
91.961
91.9573
91.9534
91.9503
91.9472
91.9437
91.9414
93.9313
95.9221
97.9134
99.9036
101.894
103.884
105.875
107.864
109.854
111.842
113.831
115.818
117.806
119.792
121.778
123.763
125.748
127.731
129.714
131.695
133.675
135.654
137.632
139.607
141.582
143.554
145.526
147.496
149.466
151.435
153.404
155.373
157.343
159.311
161.275
163.233
165.181
167.117
169.041
170.959
172.944
174.801
176.637
178.364
212.221
182.192
184.327
184.824
186.579
180.401
188.743
203.756
218.388
176.389
177.657
189.294
186.955
185.065
188.602
228.049
228.037
208.103
218.201
211.898
209.458
215.938
203.014
205.633
224.683
217.488
213.499
179.579
221.022
204.471
212.627
214.995
206.905
207.582
227.91
186.852
188.153
177.011
215.238
211.772
208.314
205.078
202.123
199.455
197.056
194.885
192.915
191.116
189.433
205.599
184.053
178.215
190.644
192.632
194.801
197.132
199.681
202.528
205.74
209.379
184.585
182.112
229.337
234.197
238.976
243.526
178.487
213.882
185.108
214.39
182.308
221.295
180.939
235.104
239.465
243.806
248.124
252.403
256.528
260.545
183.4
182.012
184.51
182.866
181.27
179.634
178.023
176.362
174.588
172.768
170.882
168.976
167.059
165.13
163.189
161.24
159.283
157.321
155.357
153.391
151.424
149.456
147.487
145.517
143.545
141.573
139.599
137.623
135.646
133.668
131.688
129.707
127.725
125.741
123.757
121.772
119.787
117.8
115.813
113.826
111.838
109.849
107.86
105.871
103.881
101.891
99.9008
97.9101
95.9195
93.9292
91.9398
208.45
205.56
89.9845
89.99
89.9938
89.9957
89.996
89.9957
89.9951
89.9941
89.993
89.9918
89.9904
89.9888
89.9872
89.9854
89.9835
89.9815
89.9791
89.9764
89.9735
89.9707
89.968
89.9649
89.962
89.9589
89.9565
89.9543
89.9529
89.9519
218.592
264.711
264.525
264.423
264.343
264.265
264.19
264.121
264.061
264.018
263.992
263.974
264.037
264.424
252.372
256.552
260.805
264.808
187.233
185.731
184.225
182.727
181.209
179.642
178.011
176.313
174.556
172.749
170.904
169.03
167.134
165.222
163.296
161.359
159.412
157.456
155.494
153.527
151.557
149.582
147.606
145.626
143.645
141.663
139.679
137.694
135.708
133.721
131.734
129.746
127.758
125.77
123.781
121.793
119.804
117.816
115.828
113.84
111.852
109.863
107.875
105.887
103.9
101.912
99.9244
97.9366
95.9484
93.9595
91.9698
89.9789
217.743
211.257
224.276
224.422
184.089
187.524
178.34
179.569
209.775
206.02
188.323
208.25
183.149
189.22
190.992
192.915
195.006
197.323
199.889
202.745
205.975
209.656
243.983
168.717
223.608
228.81
234.116
239.1
189.739
217.26
212.989
208.956
205.428
202.365
199.673
197.262
195.085
193.113
191.326
178.943
186.377
185.815
224.174
210.617
214.435
211.41
207.172
186.959
185.508
184.074
182.606
181.098
179.53
177.901
176.217
174.464
172.659
170.806
168.92
167.014
165.092
163.158
161.213
159.262
157.305
155.344
153.38
151.414
149.447
147.479
145.509
143.538
141.566
139.592
137.616
135.64
133.661
131.682
129.701
127.719
125.736
123.752
121.767
119.782
117.796
115.809
113.822
111.834
109.845
107.856
105.867
103.878
101.888
99.8979
97.9077
95.9176
93.9278
91.939
89.9512
229.581
234.358
239.003
243.473
247.983
252.434
256.882
261.147
264.963
181.428
220.737
208.28
217.102
220.369
183.154
180.308
250.87
255.569
260.204
264.46
186.122
220.676
268.38
268.159
268.044
267.987
267.933
267.878
267.824
267.772
267.726
267.688
267.658
267.649
267.698
268.041
268.483
271.025
87.9859
87.9891
87.9934
87.9952
87.9956
87.9953
87.9948
87.9937
87.9927
87.9917
87.9908
87.9898
87.9887
87.9879
87.9869
87.9855
87.9844
87.9829
87.9808
87.9786
87.9767
87.9747
87.9726
87.9705
87.9689
87.9669
87.9658
87.965
87.9646
87.9644
186.932
185.521
184.067
182.6
181.105
179.563
177.944
176.251
174.495
172.694
170.855
168.987
167.096
165.188
163.266
161.331
159.387
157.434
155.475
153.51
151.541
149.568
147.592
145.614
143.634
141.652
139.668
137.684
135.698
133.712
131.725
129.738
127.75
125.762
123.773
121.785
119.797
117.809
115.82
113.832
111.844
109.856
107.868
105.88
103.893
101.905
99.9176
97.9298
95.9417
93.9531
91.964
89.9741
87.9826
210.084
213.763
220.255
184.752
180.876
89.9508
91.9386
190.221
189.208
87.9642
85.9749
85.9779
85.9763
85.9752
85.975
85.9772
85.9764
85.9805
85.9788
85.9838
85.9821
85.9867
85.9855
85.9864
85.9874
85.9865
85.9895
85.9857
85.9849
85.9879
85.9868
85.9895
85.9888
85.9913
85.9902
85.9924
85.9923
85.9885
85.9918
89.9698
87.9797
85.9868
85.9875
93.9479
91.9592
97.9242
95.9362
101.899
99.9119
105.875
103.887
109.85
107.862
113.826
111.838
117.802
115.814
121.778
119.79
125.755
123.766
129.73
127.742
133.704
131.717
137.676
135.69
141.643
139.66
145.605
143.625
149.558
147.583
153.498
151.53
157.42
155.462
161.315
159.372
165.17
163.249
168.966
167.077
172.672
170.833
176.225
174.474
179.534
177.917
182.528
181.061
185.399
183.967
188.336
186.846
191.435
189.83
195.185
193.215
199.78
197.364
205.562
202.482
213.425
209.141
223.193
218.205
233.79
228.587
243.135
238.715
252.79
247.925
262.144
257.654
269.529
271.441
271.561
271.313
271.316
271.338
271.324
271.377
271.357
271.419
271.399
271.454
271.438
271.51
271.472
270.612
271.62
268.784
269.419
272.094
272.8
267.159
269.573
259.469
263.803
249.421
254.6
239.403
244.285
228.846
234.136
218.76
223.745
209.81
214.05
202.862
206.102
197.423
199.996
193.029
195.106
189.562
191.19
186.683
188.096
183.871
185.288
180.988
182.443
177.86
179.474
174.41
176.166
170.759
172.604
166.983
168.883
163.137
165.067
159.248
161.196
155.334
157.293
151.408
153.372
147.473
149.441
143.533
145.504
139.587
141.56
135.635
137.611
131.677
133.657
127.715
129.696
123.748
125.732
119.778
121.764
115.805
117.792
111.83
113.818
107.853
109.842
103.875
105.864
99.8957
101.885
95.9165
97.9061
93.9272
272.069
272.778
216.49
178.625
85.9811
211.02
85.9875
239.595
272.963
273.108
273.11
273.154
273.153
273.16
273.16
176.488
217.689
216.353
212.903
213.127
170.431
172.881
170.701
187.513
184.269
185.861
189.001
185.688
187.319
190.517
187.03
188.752
191.988
188.299
190.118
216.791
182.4
272.701
183.689
267.31
181.057
201.439
214.666
183.731
185.8
180.302
174.83
167.371
218.536
179.677
174.561
185.652
247.58
183.327
249.701
177.902
182.228
225.842
177.066
270.525
174.626
204.671
176.54
175.34
179.886
188.111
272.689
242.21
202.113
188.292
188.063
218.232
257.815
234.653
194.028
269.459
175.249
171.093
172.597
192.188
170.782
236.403
185.926
195.3
180.488
155.226
150.417
187.944
)
;

boundaryField
{
    wall
    {
        type            zeroGradient;
    }
    outlet
    {
        type            fixedValue;
        value           uniform 85;
    }
    inlet
    {
        type            fixedValue;
        value           uniform 273.16;
    }
    frontAndBackPlanes
    {
        type            empty;
    }
}


// ************************************************************************* //
