/*--------------------------------*- C++ -*----------------------------------*\
| =========                 |                                                 |
| \\      /  F ield         | OpenFOAM: The Open Source CFD Toolbox           |
|  \\    /   O peration     | Version:  2212                                  |
|   \\  /    A nd           | Website:  www.openfoam.com                      |
|    \\/     M anipulation  |                                                 |
\*---------------------------------------------------------------------------*/
FoamFile
{
    version     2.0;
    format      ascii;
    arch        "LSB;label=32;scalar=64";
    class       surfaceScalarField;
    location    "0.0532";
    object      phi;
}
// * * * * * * * * * * * * * * * * * * * * * * * * * * * * * * * * * * * * * //

dimensions      [1 0 -1 0 0 0 0];

oriented        oriented;

internalField   nonuniform List<scalar> 
62761
(
2.79188e-05
-0.000231252
1.66539e-05
0.00018668
1.92428e-05
-0.000107445
0.000107226
-1.90238e-05
-1.91281e-05
-0.000110309
0.000110019
1.94188e-05
-0.000108857
0.000108972
2.01521e-05
-0.00010833
-1.92667e-05
-2.07936e-05
-0.000110887
2.13721e-05
-0.000109498
2.09781e-05
-2.01641e-05
-0.000109143
-2.14105e-05
2.1722e-05
-0.000111198
-0.00010993
-0.00029053
-5.71404e-05
6.65951e-05
0.000281075
-6.90511e-05
-0.000114812
9.35287e-05
9.03345e-05
6.48557e-05
-7.8426e-05
1.35704e-05
0.000252596
-2.50353e-05
-0.000310983
8.34225e-05
0.000174329
-1.49942e-05
-0.000197938
3.86028e-05
0.000224013
-0.00017084
-0.000102847
4.96744e-05
0.000152111
-8.8851e-05
-0.000184972
0.000121712
-0.000208797
0.000209194
-5.2096e-05
5.16985e-05
0.00012189
5.55503e-05
-0.000145268
-3.21714e-05
0.000232674
-6.2257e-06
2.32037e-06
-0.000228769
0.000193326
-0.00014268
1.25291e-05
-6.31743e-05
-8.41177e-06
0.000208979
-7.24002e-06
-1.6495e-06
-0.000301992
0.00030351
1.3173e-07
-0.000221127
0.000293251
8.2738e-05
-0.000154862
0.000102966
-3.58228e-07
-0.000126786
2.41785e-05
-0.000122373
-8.48807e-05
6.45736e-05
-0.000284922
-3.26688e-06
0.000286539
0.000285703
9.9152e-05
-0.000322247
-6.26088e-05
0.000108974
-8.00935e-05
-9.79313e-05
-0.00010327
0.000124653
8.38639e-05
-0.000105248
0.000274472
3.41643e-05
-2.18182e-05
-0.000286818
3.37219e-06
-5.3205e-05
-3.53687e-06
5.337e-05
-5.40709e-07
-6.28147e-05
6.67279e-05
-6.16031e-05
-0.000174575
0.000185247
5.09313e-05
6.28363e-06
0.000178198
-0.000165365
-1.91153e-05
0.000189347
-0.000181152
0.000160997
-0.000169193
-0.000128225
-4.92572e-05
6.71084e-05
0.000110374
0.000322987
0.000102035
-0.000235674
0.000243614
-0.000222347
0.000120793
-0.000142061
3.38089e-05
-9.38399e-05
8.71076e-05
-2.70763e-05
0.000132657
-0.000129108
-1.37199e-05
1.0172e-05
-0.000104784
-1.68944e-05
0.000104166
1.75129e-05
5.78713e-05
-7.99491e-05
0.00023518
-0.000213102
-0.00015786
0.000150571
0.000138557
-0.000131268
0.000123118
-0.00015101
-0.000125041
0.000152933
-0.000100424
0.000102112
-9.80342e-05
9.63469e-05
0.000128587
-0.000163329
-0.000197604
0.000106555
-5.8987e-05
0.000150036
-0.000145518
5.99134e-05
-4.262e-05
-0.000296114
7.69935e-05
-4.32967e-05
0.000262417
-5.90768e-05
6.55914e-05
-0.00016631
0.000159796
-0.000370716
-7.27535e-05
0.000141394
0.000302075
0.000100475
9.2824e-05
-0.000124759
-6.85402e-05
-0.000177058
0.000198001
-9.20991e-06
-1.17328e-05
0.000107598
-0.000267609
-0.000140117
0.000300128
-8.33418e-05
-9.98068e-05
9.69164e-05
8.62325e-05
0.000100043
-9.40555e-05
0.000106937
-0.000112925
7.02669e-05
-0.000109151
0.00015597
-0.000117086
-0.000135834
-1.8881e-05
1.8907e-05
0.000135811
0.000135955
-0.000131094
1.19151e-05
-1.67761e-05
-2.7445e-05
-0.00013261
-1.68094e-05
0.000176864
-0.000149146
0.00012137
0.000128983
-0.000101207
0.000154549
-8.9197e-05
-0.000170007
0.000104655
1.63167e-05
0.000116805
-9.05178e-05
-4.26035e-05
-6.67166e-05
0.000157805
-0.000160251
6.9162e-05
-2.10345e-05
0.000306884
1.09951e-05
-0.000296845
-0.000146946
0.000172539
5.01458e-05
-7.57388e-05
-0.000130179
-9.34931e-06
3.69797e-06
-0.000122901
-1.7771e-06
-5.49803e-06
7.43045e-06
-1.66857e-05
-0.000113643
-0.000109424
-6.52199e-05
0.000119869
5.47741e-05
-0.000109715
-1.48937e-05
1.74342e-05
0.000107176
-0.000107219
-7.46467e-06
4.97129e-06
-0.000104828
-4.37325e-06
1.98365e-06
-0.000102401
-3.11573e-06
6.89874e-07
-0.000100132
-2.56031e-06
2.93394e-07
-9.81136e-05
-2.20723e-06
1.89612e-07
-9.66692e-05
-1.97427e-06
5.30853e-07
-9.54638e-05
-1.9912e-06
7.86657e-07
-9.46268e-05
-1.93935e-06
1.10314e-06
-9.40797e-05
-2.11966e-06
1.57323e-06
-9.38391e-05
-2.24932e-06
2.00931e-06
-9.34933e-05
-2.43183e-06
2.08643e-06
-2.36125e-06
-9.35827e-05
2.45111e-06
9.44498e-05
-9.44987e-05
-2.31191e-06
9.43648e-05
-2.3463e-06
9.45657e-05
-2.44961e-06
9.50388e-05
-2.59213e-06
9.58861e-05
-2.78593e-06
9.7056e-05
-3.16018e-06
9.85889e-05
-3.50619e-06
0.000100462
-4.07918e-06
0.000102742
-4.83916e-06
0.000105654
-6.02567e-06
0.000108647
-7.36471e-06
0.000111612
-1.04286e-05
0.000111455
-1.47347e-05
0.000114472
-9.48019e-06
6.46591e-06
0.000125948
-4.04393e-06
0.000132527
-8.35309e-06
0.000137289
-1.41087e-05
0.000136628
-1.82179e-05
0.000142589
-1.19483e-05
5.99017e-06
1.1534e-05
0.000154949
-2.46776e-05
-0.000141802
0.000157317
-3.19131e-06
1.97298e-06
0.000163657
-1.06783e-05
0.000164874
-5.58078e-06
-1.7067e-06
0.000170944
-5.57676e-06
0.000171162
-7.99213e-06
-3.25169e-06
0.000177373
-3.17419e-06
0.000176799
-8.88626e-06
-3.38868e-06
0.000182797
-2.03349e-06
0.000181863
-8.45031e-06
-3.14731e-06
0.000187399
-1.45199e-06
0.00018639
-7.6717e-06
-2.78306e-06
0.000191283
-1.09913e-06
0.000190289
-6.67996e-06
-2.54772e-06
0.000194602
-7.70416e-07
0.000193586
-5.84356e-06
-2.14454e-06
0.000197307
-5.58591e-07
0.00019638
-4.93665e-06
-1.73137e-06
0.000199436
-3.97036e-07
0.000198692
-4.04232e-06
-1.50295e-06
0.000201213
-2.73153e-07
0.00020065
-3.46003e-06
-1.25143e-06
0.0002027
-2.3418e-07
0.000202247
-2.84768e-06
-1.02565e-06
0.000203875
-1.48898e-07
0.000203563
-2.34048e-06
-9.42647e-07
0.000204889
-7.10211e-08
0.000204546
-1.92549e-06
-7.40399e-07
0.000205706
-7.57651e-08
0.000205442
-1.63567e-06
-5.59678e-07
0.000206336
-6.95218e-08
0.000206195
-1.31254e-06
-4.80321e-07
0.000206877
-6.09934e-08
0.000206819
-1.10372e-06
-4.36637e-07
0.000207355
-4.07745e-08
0.000207291
-9.08579e-07
-3.87091e-07
0.000207773
-3.04019e-08
0.000207701
-7.96084e-07
-3.28028e-07
0.000208117
-1.66375e-08
0.000208091
-7.18787e-07
-3.02828e-07
0.000208426
-5.56736e-09
0.000208402
-6.13449e-07
-2.58168e-07
0.000208683
7.10949e-10
0.000208692
-5.48559e-07
-2.4967e-07
0.00020892
1.19571e-08
0.000208919
-4.77392e-07
-2.04899e-07
0.000209162
-3.7839e-08
0.000209122
-4.07792e-07
-1.45306e-07
0.000209366
-5.88545e-08
0.000209358
-3.82345e-07
-1.1429e-07
0.000209531
-5.21286e-08
0.000209553
-3.09837e-07
-1.05886e-07
0.000209724
-8.8804e-08
0.000209737
-2.91288e-07
-6.18887e-08
0.000209894
-1.09016e-07
0.000209946
-2.73004e-07
-5.41073e-08
0.000210079
-1.33249e-07
0.000210118
-2.27384e-07
-2.21565e-08
0.000210282
-1.82858e-07
0.000210344
-2.51053e-07
2.01552e-08
0.000210504
-2.44734e-07
0.000210543
-1.81599e-07
7.87416e-08
0.000210727
-3.05148e-07
0.000210785
-1.66542e-07
1.45409e-07
0.00021099
-4.12315e-07
0.000211082
-1.54897e-07
-2.17987e-07
-1.19197e-07
0.000211415
-5.33832e-07
0.000211302
-0.000211033
0.000211335
-8.40152e-07
-0.000210776
-6.73942e-07
-0.000210548
-5.36401e-07
-0.000210347
-4.48696e-07
-0.000210149
-3.83027e-07
-0.000209962
-3.22192e-07
-0.000209771
-3.015e-07
-0.000209594
-2.67188e-07
-0.000209382
-2.64772e-07
-0.0002092
-2.42131e-07
-0.000209012
-2.2569e-07
-0.000208743
-2.57471e-07
-0.000208484
-2.59399e-07
-0.000208171
-3.18726e-07
-0.000207809
-3.77955e-07
-0.000207427
-4.12943e-07
-0.000206962
-5.04991e-07
-0.000206379
-6.43956e-07
-0.000205684
-7.64387e-07
-0.000204813
-9.45606e-07
-0.000203741
-1.14304e-06
-0.000202488
-1.40025e-06
-0.000201014
-1.70822e-06
-0.000199171
-2.11513e-06
-0.000196863
-2.70349e-06
-0.0001941
-3.3205e-06
-0.000190619
-4.2493e-06
-0.00018654
-5.17691e-06
-0.000181696
-6.29356e-06
-0.000176008
-7.71922e-06
-0.000169562
-9.6173e-06
-0.000162537
-1.25985e-05
-0.00015751
-1.57024e-05
-0.000165126
-1.70575e-05
-0.000142019
-4.19662e-06
-0.00013218
-6.13725e-06
-0.000127353
-1.03216e-05
-0.000133218
-1.08179e-05
-0.000115634
-1.47227e-07
-0.000109983
-6.77558e-07
-0.000106232
-1.76574e-06
-0.00010309
-2.45035e-06
-0.000100507
-2.28893e-06
-9.85115e-05
-1.80427e-06
-9.68625e-05
-1.11711e-06
-9.55434e-05
-5.31546e-07
2.5642e-06
-9.46914e-05
-2.37117e-06
-9.41829e-05
3.16482e-06
-9.47494e-05
3.09914e-07
-9.42565e-05
1.08097e-06
-9.36551e-05
1.40853e-06
-9.32645e-05
1.69638e-06
-9.33049e-05
2.49189e-06
-2.76358e-06
2.887e-06
-9.4306e-05
-2.28422e-06
-9.51704e-05
9.54936e-05
-9.57823e-05
-1.99513e-06
9.52299e-05
-2.10707e-06
9.51562e-05
-2.23773e-06
9.52245e-05
-2.41407e-06
9.55548e-05
-2.77938e-06
9.61454e-05
-3.18199e-06
9.7087e-05
-3.72677e-06
9.83465e-05
-4.41879e-06
0.000100071
-5.22943e-06
0.000102105
-6.11197e-06
0.000104554
-7.28668e-06
0.000107271
-8.74154e-06
0.000110609
-1.07016e-05
0.00011342
-1.32374e-05
0.000114641
-1.59533e-05
0.000119841
-1.46783e-05
0.000127132
-1.13334e-05
0.00013339
-1.46082e-05
0.000137587
-1.83035e-05
0.000140439
-2.10673e-05
0.000145928
-1.74354e-05
0.000155415
-1.26754e-05
0.000162937
-1.31e-05
0.000168862
-1.39144e-05
0.000173993
-1.40149e-05
0.000178916
-1.33711e-05
0.000183348
-1.21014e-05
0.000187331
-1.06607e-05
0.000190971
-9.48189e-06
0.000194115
-8.07879e-06
0.000196865
-6.79058e-06
0.000199072
-5.66554e-06
0.00020101
-4.78445e-06
0.000202552
-3.88149e-06
0.000203885
-3.2577e-06
0.000204898
-2.64809e-06
0.0002058
-2.21414e-06
0.000206542
-1.84558e-06
0.000207164
-1.52979e-06
0.000207647
-1.27967e-06
0.000208061
-1.13256e-06
0.000208399
-9.51577e-07
0.000208696
-8.45982e-07
0.00020896
-7.4135e-07
0.000209212
-6.60489e-07
0.000209441
-6.12274e-07
0.000209654
-5.2371e-07
0.000209871
-5.09419e-07
0.000210063
-4.67227e-07
0.000210295
-4.60788e-07
0.00021047
-4.28348e-07
0.000210716
-4.31026e-07
0.000211006
-4.59396e-07
0.000211291
-4.43179e-07
0.000211653
-4.85789e-07
1.63889e-07
-5.72929e-07
0.000212057
-2.54972e-07
0.000211828
-6.58274e-07
0.0002117
-1.02891e-06
0.000211701
-0.000211564
0.000211897
-1.3669e-06
-0.000211233
-1.17576e-06
-0.000210984
-9.27047e-07
-0.000210743
-7.81234e-07
-0.000210501
-6.93627e-07
-0.000210305
-5.81566e-07
-0.000210089
-5.39896e-07
-0.000209931
-4.61517e-07
-0.000209716
-4.83047e-07
-0.000209524
-4.58392e-07
-0.000209311
-4.56245e-07
-0.000209108
-4.28492e-07
-0.000208852
-5.14819e-07
-0.000208539
-5.72373e-07
-0.000208197
-6.61017e-07
-0.000207842
-7.32298e-07
-0.000207397
-8.58629e-07
-0.000206818
-1.08311e-06
-0.000206142
-1.32034e-06
-0.000205322
-1.5836e-06
-0.000204336
-1.93121e-06
-0.00020313
-2.34833e-06
-0.000201701
-2.82826e-06
-0.000199928
-3.48021e-06
-0.000197737
-4.30485e-06
-0.000195079
-5.36069e-06
-0.00019194
-6.45761e-06
-0.000188274
-7.91405e-06
-0.00018396
-9.48832e-06
-0.000178907
-1.13443e-05
-0.000173384
-1.32402e-05
-0.000167545
-1.54533e-05
-0.000162484
-1.76568e-05
-0.000158514
-1.96695e-05
-0.000155829
-1.97393e-05
-0.000145234
-1.47887e-05
-0.0001367
-1.46678e-05
-0.000131842
-1.51766e-05
-0.000128858
-1.37985e-05
-0.000120038
-8.96529e-06
-0.000113694
-7.01949e-06
-0.000109077
-6.38091e-06
-0.000105485
-6.04042e-06
-0.000102644
-5.12812e-06
-9.98374e-05
-4.60987e-06
-9.79896e-05
-2.96388e-06
-9.67509e-05
-1.76922e-06
-9.58205e-05
-6.19654e-07
-9.47932e-05
5.43516e-08
-9.27131e-05
2.57348e-06
-9.40455e-05
6.6147e-07
-9.35857e-05
1.23717e-06
-9.31389e-05
2.04551e-06
2.20215e-06
-9.60546e-05
-1.92965e-06
2.47644e-06
-9.54444e-05
3.66262e-06
-9.34884e-05
2.64726e-06
-9.44765e-05
-1.67855e-06
2.16819e-06
-9.65439e-05
9.6824e-05
-9.71594e-05
-1.34285e-06
9.64457e-05
-1.55103e-06
9.61999e-05
-1.74897e-06
9.60844e-05
-1.9911e-06
9.61644e-05
-2.31723e-06
9.6495e-05
-2.74409e-06
9.70062e-05
-3.28988e-06
9.78499e-05
-4.0249e-06
9.90277e-05
-4.90371e-06
0.000100512
-5.90198e-06
0.000102399
-7.11578e-06
0.000104729
-8.44011e-06
0.000107419
-9.97548e-06
0.000110468
-1.17894e-05
0.000113665
-1.38965e-05
0.000116685
-1.62561e-05
0.000119571
-1.88373e-05
0.000123288
-1.83936e-05
0.000129453
-1.74959e-05
0.000134703
-1.98566e-05
0.000138704
-2.23023e-05
0.000141723
-2.40841e-05
0.000146633
-2.23436e-05
0.000153341
-1.93814e-05
0.000159518
-1.92749e-05
0.000164848
-1.92423e-05
0.000169675
-1.88392e-05
0.000174214
-1.79073e-05
0.000178642
-1.65273e-05
0.000182922
-1.49385e-05
0.000186742
-1.33001e-05
0.000190338
-1.16725e-05
0.000193469
-9.92012e-06
0.000196299
-8.49334e-06
0.000198677
-7.16172e-06
0.000200798
-6.00093e-06
0.000202501
-4.96014e-06
0.000203938
-4.08384e-06
0.000205046
-3.32104e-06
0.000206003
-2.8027e-06
0.000206785
-2.31145e-06
0.000207415
-1.90941e-06
0.000207918
-1.63507e-06
0.000208359
-1.39315e-06
0.000208711
-1.19856e-06
0.000209041
-1.07103e-06
0.000209302
-9.22495e-07
0.000209538
-8.49102e-07
0.000209796
-7.83284e-07
0.000210021
-7.35538e-07
0.000210253
-7.01082e-07
0.000210475
-6.8427e-07
0.000210734
-6.90444e-07
0.000210991
-6.90499e-07
0.000211262
-7.33839e-07
0.000211598
-7.83087e-07
0.000211997
-8.89172e-07
0.00021242
-1.00138e-06
6.77157e-07
-1.2348e-06
0.000212972
1.90611e-07
0.000212537
-2.48211e-07
0.000212261
-6.75246e-07
0.000212121
-1.17952e-06
0.000212199
-1.61325e-06
0.000212324
-0.000212197
0.000212658
-2.08057e-06
-0.000211851
-1.71938e-06
-0.000211562
-1.4688e-06
-0.000211238
-1.2553e-06
-0.000210989
-1.03444e-06
-0.000210764
-9.21434e-07
-0.000210521
-8.27197e-07
-0.000210338
-7.25362e-07
-0.000210099
-7.02466e-07
-0.000209894
-6.89803e-07
-0.000209705
-6.4881e-07
-0.000209465
-6.96624e-07
-0.000209202
-6.92831e-07
-0.000208924
-7.92495e-07
-0.00020857
-9.26934e-07
-0.000208202
-1.02945e-06
-0.000207721
-1.2137e-06
-0.000207135
-1.44373e-06
-0.000206429
-1.78899e-06
-0.000205644
-2.10571e-06
-0.000204598
-2.62913e-06
-0.000203345
-3.18346e-06
-0.000201851
-3.84165e-06
-0.000199998
-4.67974e-06
-0.000197727
-5.74993e-06
-0.000195023
-7.00817e-06
-0.000191867
-8.51461e-06
-0.000188302
-1.00207e-05
-0.000184187
-1.20275e-05
-0.000179654
-1.40185e-05
-0.000174855
-1.61415e-05
-0.000169856
-1.8237e-05
-0.000165019
-2.02874e-05
-0.000160501
-2.21721e-05
-0.000156657
-2.35114e-05
-0.000152476
-2.39173e-05
-0.000145912
-2.135e-05
-0.000139636
-2.09413e-05
-0.000134648
-2.01621e-05
-0.000129953
-1.8491e-05
-0.000123668
-1.52478e-05
-0.000117799
-1.28869e-05
-0.000112842
-1.13359e-05
-0.000108879
-1.00014e-05
-0.0001051
-8.90567e-06
-0.000102702
-7.00621e-06
-0.000100591
-5.07409e-06
-9.89455e-05
-3.41338e-06
-9.72639e-05
-2.30037e-06
-9.59155e-05
-1.29321e-06
-9.49743e-05
-2.79054e-07
-9.31219e-05
2.55696e-06
-9.43214e-05
5.84871e-07
-9.36683e-05
1.39294e-06
2.46674e-06
-9.57426e-05
1.49221e-06
-9.74653e-05
-1.18605e-06
1.80746e-06
-9.68589e-05
3.10019e-06
-9.25591e-05
3.33292e-06
-9.41738e-05
2.94907e-06
-9.49586e-05
-8.68617e-07
1.30178e-06
-9.78982e-05
9.8187e-05
-9.8558e-05
-4.97347e-07
9.77567e-05
-7.55503e-07
9.74283e-05
-1.01413e-06
9.71878e-05
-1.31011e-06
9.70954e-05
-1.65614e-06
9.71895e-05
-2.08469e-06
9.74923e-05
-2.6194e-06
9.80773e-05
-3.32849e-06
9.89513e-05
-4.16311e-06
0.000100122
-5.19459e-06
0.000101609
-6.39035e-06
0.000103467
-7.75848e-06
0.000105691
-9.33873e-06
0.000108339
-1.10865e-05
0.000111214
-1.28491e-05
0.000114414
-1.49876e-05
0.000117727
-1.72086e-05
0.000120972
-1.94992e-05
0.000123868
-2.17315e-05
0.000127102
-2.16263e-05
0.000132209
-2.26004e-05
0.000136447
-2.40935e-05
0.000139816
-2.5669e-05
0.000142356
-2.66229e-05
0.000146336
-2.63214e-05
0.000151229
-2.42732e-05
0.000155943
-2.39871e-05
0.000160349
-2.36459e-05
0.000164541
-2.30293e-05
0.000168686
-2.20499e-05
0.000172885
-2.07236e-05
0.000177079
-1.91306e-05
0.000181163
-1.73816e-05
0.000185033
-1.55402e-05
0.000188747
-1.36322e-05
0.000192142
-1.18866e-05
0.000195187
-1.02046e-05
0.000197808
-8.62051e-06
0.00020009
-7.24121e-06
0.00020204
-6.03213e-06
0.000203674
-4.95491e-06
0.000204937
-4.06479e-06
0.000206017
-3.39126e-06
0.000206907
-2.79835e-06
0.000207603
-2.33095e-06
0.000208165
-1.9554e-06
0.00020865
-1.68378e-06
0.000209031
-1.45265e-06
0.000209392
-1.28411e-06
0.000209685
-1.14399e-06
0.000209961
-1.0602e-06
0.000210223
-9.98529e-07
0.000210482
-9.61953e-07
0.000210757
-9.61902e-07
0.00021103
-9.66389e-07
0.000211329
-9.91706e-07
0.000211631
-1.03933e-06
0.000212004
-1.16029e-06
0.000212424
-1.31374e-06
0.000212944
-1.52667e-06
0.000213525
-1.82217e-06
1.57704e-06
-2.19715e-06
0.000214139
9.39702e-07
0.000213603
2.93191e-07
0.000213177
-3.10526e-07
0.000212858
-8.33653e-07
0.000212637
-1.31066e-06
0.000212669
-1.80464e-06
0.000212811
-2.39406e-06
0.00021324
-0.00021315
0.000213712
-2.96335e-06
-0.000212714
-2.52337e-06
-0.000212283
-2.15619e-06
-0.000211945
-1.81239e-06
-0.000211653
-1.55164e-06
-0.000211329
-1.36241e-06
-0.000211081
-1.17253e-06
-0.000210844
-1.06696e-06
-0.000210582
-9.89636e-07
-0.000210348
-9.39405e-07
-0.000210127
-9.11858e-07
-0.000209853
-9.24395e-07
-0.000209604
-9.46717e-07
-0.000209274
-1.02348e-06
-0.000208935
-1.13269e-06
-0.000208535
-1.32745e-06
-0.000208027
-1.53711e-06
-0.000207385
-1.85562e-06
-0.000206625
-2.20444e-06
-0.000205739
-2.67402e-06
-0.00020459
-3.25443e-06
-0.000203256
-3.96279e-06
-0.000201627
-4.81158e-06
-0.000199557
-5.91049e-06
-0.000197079
-7.15622e-06
-0.000194221
-8.60651e-06
-0.000190944
-1.02838e-05
-0.000187299
-1.21579e-05
-0.000183253
-1.40642e-05
-0.000178988
-1.62913e-05
-0.000174604
-1.83994e-05
-0.000170168
-2.05754e-05
-0.000165806
-2.25967e-05
-0.00016165
-2.44415e-05
-0.000157879
-2.59405e-05
-0.000154425
-2.69637e-05
-0.000150924
-2.74164e-05
-0.000146298
-2.59733e-05
-0.00014171
-2.55274e-05
-0.000137334
-2.45363e-05
-0.000132943
-2.28799e-05
-0.00012767
-2.05184e-05
-0.000122328
-1.82265e-05
-0.000117564
-1.60979e-05
-0.000113292
-1.42724e-05
-0.000109628
-1.25675e-05
-0.000106648
-9.98472e-06
-0.000104134
-7.58675e-06
-0.000101533
-6.0131e-06
-9.94038e-05
-4.42888e-06
-9.76362e-05
-3.05992e-06
-9.65613e-05
-1.35311e-06
-9.54706e-05
-5.05192e-07
-9.33143e-05
2.20342e-06
-9.47317e-05
6.54668e-07
2.07255e-06
-9.60075e-05
1.50384e-06
-9.70607e-05
2.59738e-06
-9.28111e-05
6.71441e-07
-9.89292e-05
-2.99973e-07
9.16028e-07
-9.81426e-05
3.74379e-06
-9.29697e-05
2.9317e-06
-9.41561e-05
2.32231e-06
-9.52081e-05
8.19189e-08
2.03024e-07
-9.92139e-05
9.96021e-05
-9.99572e-05
4.37258e-07
9.9125e-05
1.77391e-07
9.87327e-05
-1.04757e-07
9.84153e-05
-4.37692e-07
9.82163e-05
-8.14751e-07
9.81681e-05
-1.26145e-06
9.83155e-05
-1.80308e-06
9.86955e-05
-2.46406e-06
9.9307e-05
-3.23025e-06
0.000100279
-4.30009e-06
0.000101512
-5.39501e-06
0.000103074
-6.7553e-06
0.000104979
-8.29428e-06
0.000107236
-1.00151e-05
0.00010981
-1.19108e-05
0.000112631
-1.39066e-05
0.000115824
-1.60408e-05
0.000119078
-1.824e-05
0.00012236
-2.04885e-05
0.000125735
-2.28733e-05
0.000128399
-2.43933e-05
0.000131523
-2.47489e-05
0.000135018
-2.60944e-05
0.000138233
-2.73067e-05
0.000140941
-2.8376e-05
0.000143223
-2.89034e-05
0.000145809
-2.89057e-05
0.000149322
-2.77847e-05
0.00015281
-2.74736e-05
0.000156235
-2.70694e-05
0.000159663
-2.6455e-05
0.000163192
-2.55771e-05
0.00016688
-2.44096e-05
0.000170742
-2.29908e-05
0.000174733
-2.137e-05
0.000178784
-1.95886e-05
0.000182818
-1.76647e-05
0.00018665
-1.57159e-05
0.000190198
-1.37507e-05
0.000193503
-1.19232e-05
0.00019646
-1.01972e-05
0.000199042
-8.61251e-06
0.000201266
-7.17732e-06
0.00020313
-5.9286e-06
0.000204618
-4.87852e-06
0.000205868
-4.04772e-06
0.000206883
-3.34576e-06
0.000207707
-2.77929e-06
0.000208362
-2.33927e-06
0.00020891
-2.00117e-06
0.000209366
-1.7417e-06
0.000209777
-1.55549e-06
0.000210112
-1.39705e-06
0.000210434
-1.32167e-06
0.000210752
-1.2819e-06
0.000211045
-1.25802e-06
0.000211365
-1.28923e-06
0.000211706
-1.33566e-06
0.000212078
-1.41528e-06
0.000212496
-1.58213e-06
0.000212969
-1.79102e-06
0.000213508
-2.07178e-06
0.000214114
-2.43355e-06
0.000214762
-2.85216e-06
2.61866e-06
-3.35435e-06
0.000215491
1.92879e-06
0.000214821
1.2489e-06
0.000214275
5.62841e-07
0.000213856
-1.44698e-07
0.000213558
-8.65014e-07
0.00021335
-1.43778e-06
0.000213234
-2.15055e-06
0.000213516
-2.74639e-06
0.000213828
-3.4189e-06
0.000214376
-0.000213833
0.000214429
-3.56688e-06
-0.000213359
-3.00499e-06
-0.000212911
-2.61046e-06
-0.000212475
-2.25315e-06
-0.000212116
-1.91572e-06
-0.000211808
-1.67489e-06
-0.000211473
-1.51079e-06
-0.000211197
-1.34654e-06
-0.00021092
-1.26935e-06
-0.00021063
-1.23197e-06
-0.000210357
-1.18634e-06
-0.000210048
-1.23487e-06
-0.00020968
-1.31592e-06
-0.000209279
-1.42601e-06
-0.000208826
-1.58603e-06
-0.000208268
-1.88587e-06
-0.000207562
-2.24398e-06
-0.000206699
-2.71827e-06
-0.000205671
-3.23233e-06
-0.00020437
-3.97464e-06
-0.000202833
-4.79144e-06
-0.000200916
-5.87826e-06
-0.000198656
-7.07132e-06
-0.000195969
-8.59526e-06
-0.000192859
-1.0265e-05
-0.000189377
-1.20866e-05
-0.000185623
-1.40358e-05
-0.000181592
-1.61874e-05
-0.000177378
-1.82763e-05
-0.000173223
-2.04435e-05
-0.000169069
-2.25514e-05
-0.000165089
-2.45533e-05
-0.000161317
-2.63666e-05
-0.000158032
-2.77255e-05
-0.000155183
-2.8787e-05
-0.000152586
-2.95597e-05
-0.000150105
-2.98949e-05
-0.000146763
-2.93142e-05
-0.000143337
-2.89511e-05
-0.00013983
-2.80422e-05
-0.000135846
-2.68623e-05
-0.000131599
-2.47628e-05
-0.000127188
-2.26357e-05
-0.000122677
-2.06077e-05
-0.000118359
-1.85881e-05
-0.000114828
-1.60969e-05
-0.000111435
-1.33758e-05
-0.000108042
-1.09788e-05
-0.000104997
-9.05636e-06
-0.000102315
-7.10985e-06
-0.000100657
-4.71708e-06
-9.88337e-05
-3.17548e-06
-9.74032e-05
-1.93488e-06
1.49983e-06
-9.40275e-05
-9.61494e-05
-5.98405e-07
0.000215156
-4.15418e-06
6.34864e-07
-9.52838e-05
1.73887e-06
-9.62423e-05
2.10836e-06
-9.3538e-05
1.16193e-06
-9.73064e-05
3.42125e-06
-9.24882e-05
6.36135e-07
-9.85755e-05
3.37771e-06
-9.34154e-05
-1.05142e-07
-0.000100424
5.71932e-07
2.409e-07
-9.95597e-05
2.63428e-06
-9.44679e-05
2.00852e-06
-9.54776e-05
8.11129e-07
-4.42831e-07
-0.000100792
0.000101069
-0.000101548
1.29051e-06
0.000100539
1.10168e-06
0.000100102
8.74552e-07
9.97199e-05
5.59918e-07
9.94426e-05
1.72898e-07
9.92935e-05
-2.8814e-07
9.93138e-05
-8.34633e-07
9.95406e-05
-1.4877e-06
0.00010001
-2.27163e-06
0.000100764
-3.21755e-06
0.00010186
-4.32531e-06
0.00010313
-5.56942e-06
0.000104807
-7.07106e-06
0.000106812
-8.75955e-06
0.000109144
-1.06244e-05
0.000111778
-1.26484e-05
0.000114689
-1.48208e-05
0.000117742
-1.69578e-05
0.000120907
-1.92042e-05
0.000124052
-2.13838e-05
0.000127074
-2.35094e-05
0.000129896
-2.56932e-05
0.000132252
-2.67481e-05
0.000134975
-2.74715e-05
0.00013753
-2.86474e-05
0.000139863
-2.96392e-05
0.000142074
-3.05852e-05
0.000143629
-3.04575e-05
0.000145635
-3.09109e-05
0.000147884
-3.00327e-05
0.000150369
-2.99574e-05
0.000152927
-2.96251e-05
0.000155584
-2.91113e-05
0.000158406
-2.83973e-05
0.000161457
-2.74589e-05
0.00016477
-2.63016e-05
0.000168326
-2.49241e-05
0.000172097
-2.3357e-05
0.000176044
-2.16096e-05
0.000180057
-1.97263e-05
0.000184049
-1.77412e-05
0.000187831
-1.57033e-05
0.000191393
-1.37564e-05
0.000194644
-1.18622e-05
0.000197568
-1.00995e-05
0.000200115
-8.47487e-06
0.000202278
-7.04027e-06
0.000204051
-5.82006e-06
0.000205527
-4.82117e-06
0.000206734
-3.98702e-06
0.00020771
-3.31544e-06
0.000208509
-2.80019e-06
0.000209162
-2.39647e-06
0.000209702
-2.09657e-06
0.000210193
-1.88947e-06
0.000210607
-1.7375e-06
0.000210989
-1.66566e-06
0.000211373
-1.64528e-06
0.000211749
-1.66778e-06
0.000212149
-1.7395e-06
0.000212587
-1.85652e-06
0.000213054
-2.05411e-06
0.000213577
-2.31827e-06
0.000214159
-2.65956e-06
0.000214806
-3.08646e-06
0.000215504
-3.55621e-06
0.000216319
-4.17627e-06
3.92202e-06
0.00021722
-4.83028e-06
3.00747e-06
0.000216398
2.21781e-06
0.000215603
1.49655e-06
0.000214988
7.63427e-07
0.000214581
1.12056e-08
0.000214302
-7.90789e-07
0.000214143
-1.67976e-06
0.000214114
-2.27363e-06
0.000214101
-3.08922e-06
0.000214635
-3.94709e-06
0.000215225
-4.81674e-06
0.000216017
-0.000215333
0.00021613
-4.95953e-06
-0.000214654
-4.25345e-06
-0.000214084
-3.58209e-06
-0.000213575
-3.12535e-06
-0.000213122
-2.71253e-06
-0.000212679
-2.36387e-06
-0.0002123
-2.05844e-06
-0.000211949
-1.86569e-06
-0.000211581
-1.71765e-06
-0.00021124
-1.61356e-06
-0.000210907
-1.56772e-06
-0.000210518
-1.57784e-06
-0.000210118
-1.63667e-06
-0.000209656
-1.77974e-06
-0.000209093
-1.99017e-06
-0.000208437
-2.24212e-06
-0.000207622
-2.70178e-06
-0.000206604
-3.26209e-06
-0.0002054
-3.92279e-06
-0.000203889
-4.7428e-06
-0.000202121
-5.74255e-06
-0.000199898
-7.01342e-06
-0.000197359
-8.41573e-06
-0.000194351
-1.00777e-05
-0.000191002
-1.19433e-05
-0.00018733
-1.39347e-05
-0.000183447
-1.59679e-05
-0.000179388
-1.8093e-05
-0.000175397
-2.0176e-05
-0.000171364
-2.23071e-05
-0.000167497
-2.43087e-05
-0.00016385
-2.61962e-05
-0.00016062
-2.77819e-05
-0.000158023
-2.89623e-05
-0.000155667
-3.00796e-05
-0.000153328
-3.11249e-05
-0.000151228
-3.16582e-05
-0.000149351
-3.17702e-05
-0.000146749
-3.19155e-05
-0.000144457
-3.1241e-05
-0.000141828
-3.06706e-05
-0.000139101
-2.95877e-05
-0.000135841
-2.80209e-05
-0.000132038
-2.64379e-05
-0.000128111
-2.45328e-05
-0.000124297
-2.24009e-05
-0.000120453
-1.9939e-05
-0.000116821
-1.70063e-05
-0.000112932
-1.4866e-05
-0.000109405
-1.2582e-05
-0.000106976
-9.53731e-06
-0.000104532
-7.16026e-06
-0.000101881
-5.82524e-06
-0.000100253
-3.5619e-06
-9.86213e-05
-2.22915e-06
-9.70252e-05
-9.60448e-07
0.00021705
-5.74657e-06
-1.23935e-06
4.20072e-07
-9.62053e-05
-9.44142e-05
1.41111e-06
-9.64913e-05
2.80988e-06
-9.29262e-05
8.60436e-07
-9.75306e-05
3.70393e-06
-9.2814e-05
3.23303e-07
-9.86577e-05
3.01308e-06
-9.37939e-05
-1.64849e-07
-9.98376e-05
2.33165e-06
-9.47908e-05
-8.65273e-07
-0.000102018
1.33613e-06
-6.08574e-07
-0.000101048
1.70478e-06
-9.57711e-05
4.43623e-06
-5.46495e-06
0.000218241
3.52387e-06
0.000217302
2.59856e-06
0.00021652
1.70525e-06
0.000215872
9.02069e-07
0.000215374
9.15634e-08
0.000215103
-7.6339e-07
0.000214988
-1.67738e-06
0.000215018
-2.73329e-06
0.000215147
-3.63007e-06
0.000215521
-4.61303e-06
0.000216198
-5.62529e-06
0.000217019
-6.64448e-06
0.00021806
-0.000217238
0.00021823
-6.74689e-06
-0.000216416
-5.78973e-06
-0.000215624
-5.05411e-06
-0.00021496
-4.25346e-06
-0.000214351
-3.74057e-06
-0.000213811
-3.25813e-06
-0.000213334
-2.84713e-06
-0.000212843
-2.55428e-06
-0.000212419
-2.29353e-06
-0.000211986
-2.15529e-06
-0.000211554
-2.04829e-06
-0.000211087
-2.03754e-06
-0.000210599
-2.06818e-06
-0.00021002
-2.21768e-06
-0.000209348
-2.45396e-06
-0.000208569
-2.77027e-06
-0.000207563
-3.24878e-06
-0.000206355
-3.91114e-06
-0.000204917
-4.70012e-06
-0.000203161
-5.67804e-06
-0.000201057
-6.84731e-06
-0.000198516
-8.28283e-06
-0.00019565
-9.87736e-06
-0.000192338
-1.17268e-05
-0.000188726
-1.3688e-05
-0.000184884
-1.57836e-05
-0.000181001
-1.7816e-05
-0.000176916
-2.00507e-05
-0.000173022
-2.19851e-05
-0.000169231
-2.39648e-05
-0.000165714
-2.58228e-05
-0.000162455
-2.75651e-05
-0.000159795
-2.88553e-05
-0.000157447
-3.01279e-05
-0.000155253
-3.11551e-05
-0.000153225
-3.21065e-05
-0.000151641
-3.2707e-05
-0.000150324
-3.29743e-05
-0.000148784
-3.33094e-05
-0.00014761
-3.30884e-05
-0.000145634
-3.3216e-05
-0.000143871
-3.24323e-05
-0.000141847
-3.16113e-05
-0.000139513
-3.03538e-05
-0.000136616
-2.93331e-05
-0.000133513
-2.76344e-05
-0.00013002
-2.58926e-05
-0.000126463
-2.34949e-05
-0.000122438
-2.10291e-05
-0.000118502
-1.88013e-05
-0.000115462
-1.56197e-05
-0.00011225
-1.27486e-05
-0.000108528
-1.08801e-05
-0.000106389
-7.963e-06
-0.000103586
-6.36367e-06
-0.000101405
-4.40912e-06
-9.96924e-05
-2.67262e-06
-9.80773e-05
-1.19423e-06
1.39666e-06
-2.38038e-06
-9.52209e-05
-9.6993e-05
3.1311e-07
-7.75694e-06
0.000219334
1.43765e-06
-9.96033e-07
-0.00010246
0.0001027
-0.000103289
2.02656e-06
0.000102079
1.95755e-06
0.000101554
1.81617e-06
0.000101085
1.5707e-06
0.000100734
1.22616e-06
0.000100511
7.83438e-07
0.000100439
2.45137e-07
0.000100551
-3.99865e-07
0.000100882
-1.16527e-06
0.000101465
-2.0696e-06
0.000102327
-3.13348e-06
0.000103484
-4.37361e-06
0.000104952
-5.79258e-06
0.000106778
-7.39411e-06
0.000108912
-9.20416e-06
0.000111347
-1.1193e-05
0.000114048
-1.33245e-05
0.00011697
-1.55682e-05
0.000119967
-1.78167e-05
0.000123078
-2.00677e-05
0.000126095
-2.22202e-05
0.000128943
-2.42304e-05
0.000131544
-2.61091e-05
0.000133692
-2.78399e-05
0.000135618
-2.86731e-05
0.000137781
-2.96339e-05
0.000139633
-3.04989e-05
0.000141552
-3.15567e-05
0.000142556
-3.15885e-05
0.000144115
-3.20159e-05
0.000145092
-3.18868e-05
0.000146907
-3.18471e-05
0.000148666
-3.17148e-05
0.000150514
-3.14723e-05
0.000152494
-3.10903e-05
0.000154652
-3.05538e-05
0.000157035
-2.98404e-05
0.000159688
-2.89525e-05
0.000162653
-2.78872e-05
0.000165903
-2.66055e-05
0.000169423
-2.5128e-05
0.000173196
-2.34963e-05
0.000177127
-2.16699e-05
0.000181154
-1.97285e-05
0.00018508
-1.76799e-05
0.000188883
-1.56634e-05
0.000192437
-1.36523e-05
0.000195689
-1.17252e-05
0.000198588
-9.93792e-06
0.000201092
-8.32249e-06
0.000203201
-6.93026e-06
0.000204967
-5.75255e-06
0.000206421
-4.77018e-06
0.000207606
-3.98538e-06
0.000208575
-3.36693e-06
0.000209384
-2.90589e-06
0.000210056
-2.5639e-06
0.000210645
-2.32776e-06
0.000211166
-2.18998e-06
0.000211653
-2.13441e-06
0.000212127
-2.14529e-06
0.000212609
-2.22513e-06
0.00021312
-2.37127e-06
0.000213661
-2.59956e-06
0.000214251
-2.91375e-06
0.000214899
-3.31253e-06
0.000215587
-3.78098e-06
0.000216411
-4.38582e-06
0.000217316
-5.08791e-06
0.000218302
-5.82365e-06
-6.65327e-06
0.000219484
-9.39842e-05
1.12906e-06
-9.67598e-05
-2.31607e-06
1.33589e-06
-9.60122e-05
-2.69882e-06
-9.48377e-05
3.4904e-06
-9.27124e-05
5.99086e-07
-9.78062e-05
3.34363e-06
-9.31443e-05
1.12053e-07
-9.89344e-05
2.72208e-06
-9.41841e-05
-4.4973e-07
-9.99962e-05
2.06408e-06
-9.51499e-05
-6.55604e-07
-0.000101389
1.45747e-06
-9.60993e-05
-1.3739e-06
1.89843e-06
-0.000103813
-1.11685e-06
-0.000102717
-0.000219628
0.000220884
-9.02091e-06
-0.000218552
-7.831e-06
-0.000217542