/*--------------------------------*- C++ -*----------------------------------*\
| =========                 |                                                 |
| \\      /  F ield         | OpenFOAM: The Open Source CFD Toolbox           |
|  \\    /   O peration     | Version:  2212                                  |
|   \\  /    A nd           | Website:  www.openfoam.com                      |
|    \\/     M anipulation  |                                                 |
\*---------------------------------------------------------------------------*/
FoamFile
{
    version     2.0;
    format      ascii;
    arch        "LSB;label=32;scalar=64";
    class       volScalarField;
    location    "0.0786";
    object      T;
}
// * * * * * * * * * * * * * * * * * * * * * * * * * * * * * * * * * * * * * //

dimensions      [0 0 0 1 0 0 0];

internalField   nonuniform List<scalar> 
31661
(
271.639
211.346
213.079
212.121
211.28
212.835
211.963
211.268
212.656
211.863
268.422
217.639
274.034
266.064
272.445
271.256
272.409
271.474
219.025
271.06
232.709
232.86
256.207
268.386
213.158
233.154
257.837
251.766
217.836
219.59
268.327
262.111
262.348
221.079
229.092
268.037
224.121
268.218
252.897
261.367
257.253
210.971
268.459
233.008
233.863
219.621
233.388
226.701
223.677
258.976
249.033
256.016
220.876
225.721
248.583
217.987
221.27
223.18
229.479
218.938
218.905
218.505
230.828
208.44
224.835
265.5
272.567
227.809
225.779
223.788
216.609
221.114
219.214
217.249
215.555
213.934
212.464
211.136
209.961
208.94
208.064
207.33
206.721
206.227
206.339
206.848
207.471
208.219
209.103
210.125
211.29
212.59
214.029
215.599
217.273
218.979
220.7
222.327
223.951
225.618
227.296
228.761
230.062
231.498
231.325
232.802
232.515
233.892
233.579
234.804
234.498
235.559
235.281
236.182
235.941
236.695
236.494
237.12
236.957
237.475
237.347
237.776
237.677
238.037
237.962
238.269
238.212
238.48
238.439
238.679
238.649
238.871
238.849
239.061
239.046
239.254
239.244
239.454
239.448
239.666
239.663
239.893
239.893
240.141
240.143
240.415
240.419
240.725
240.732
241.08
241.089
241.521
241.532
242.108
242.121
243.061
243.075
244.849
244.862
248.448
248.451
254.713
254.707
261.071
261.065
264.858
264.856
266.436
266.436
266.885
266.886
266.87
266.403
264.792
260.959
254.59
248.383
244.836
243.072
242.127
241.541
241.1
240.742
240.43
240.154
239.903
239.674
239.46
239.257
239.062
238.868
238.672
238.468
238.25
238.01
237.738
237.423
237.05
236.604
236.066
235.414
234.627
233.683
232.555
231.2
229.685
227.829
225.755
223.672
221.622
219.602
217.646
215.889
214.22
212.716
211.356
210.156
205.93
205.832
209.113
208.221
207.471
206.847
206.337
205.528
205.612
205.874
206.231
206.681
207.233
207.897
208.683
209.598
210.64
211.807
213.088
214.471
215.951
217.485
219.065
220.65
222.176
223.677
225.158
226.594
227.933
229.195
230.442
231.636
232.726
233.704
234.57
235.325
235.977
236.533
237.007
237.41
237.755
238.055
238.32
238.561
238.786
239.002
239.215
239.431
239.656
239.895
240.153
240.437
240.756
241.12
241.568
242.159
243.106
244.867
248.407
254.611
260.983
264.816
266.421
266.878
266.859
266.867
266.868
266.855
266.832
266.843
266.348
264.679
260.762
254.378
248.281
244.828
243.107
242.177
241.591
241.146
240.782
240.463
240.18
239.922
239.685
239.463
239.251
239.043
238.836
238.622
238.396
238.149
237.872
237.554
237.182
236.743
236.219
235.595
234.856
233.99
232.985
231.837
230.548
229.078
227.398
225.599
223.756
221.892
220.007
218.204
216.464
214.833
213.318
211.94
210.708
209.628
208.695
205.928
207.9
207.229
206.675
205.624
205.391
205.612
205.319
205.393
205.722
206.009
206.321
206.742
207.258
207.877
208.606
209.45
210.411
211.482
212.653
213.912
215.235
216.603
217.989
219.376
220.739
222.042
223.307
224.546
225.749
226.906
228.043
229.195
230.337
231.433
232.468
233.428
234.305
235.091
235.785
236.388
236.908
237.355
237.741
238.077
238.375
238.646
238.898
239.14
239.381
239.626
239.882
240.156
240.453
240.786
241.161
241.618
242.212
243.145
244.857
248.292
254.38
260.78
264.707
266.372
266.853
266.836
266.655
266.68
266.691
266.692
266.683
266.662
266.629
266.794
266.8
266.264
264.508
260.471
254.068
248.139
244.821
243.163
242.251
241.663
241.209
240.835
240.504
240.208
239.937
239.685
239.446
239.215
238.984
238.747
238.498
238.226
237.922
237.575
237.172
236.699
236.144
235.494
234.742
233.883
232.917
231.852
230.698
229.466
228.13
226.69
225.193
223.65
222.068
220.432
218.834
217.239
215.702
214.226
212.854
211.601
210.481
209.487
208.622
206.225
207.881
207.256
205.205
205.572
205.265
205.869
205.392
205.141
205.409
205.79
205.991
206.222
206.554
206.968
207.472
208.074
208.779
209.589
210.502
211.514
212.61
213.771
214.979
216.205
217.428
218.626
219.783
220.89
221.934
222.936
223.915
224.876
225.828
226.793
227.797
228.832
229.875
230.913
231.929
232.904
233.82
234.664
235.424
236.096
236.686
237.198
237.644
238.034
238.381
238.695
238.988
239.269
239.549
239.834
240.133
240.453
240.806
241.2
241.67
242.269
243.183
244.824
248.102
254.008
260.444
264.517
266.28
266.804
266.791
266.612
266.292
266.341
266.371
266.387
266.391
266.382
266.361
266.324
266.27
266.578
266.739
266.733
266.141
264.264
260.063
253.65
247.947
244.812
243.227
242.337
241.744
241.278
240.886
240.537
240.221
239.928
239.652
239.384
239.118
238.847
238.56
238.248
237.9
237.504
237.048
236.518
235.903
235.197
234.396
233.504
232.532
231.494
230.41
229.298
228.171
227.015
225.828
224.627
223.404
222.136
220.823
219.482
218.112
216.728
215.357
214.035
212.789
211.63
210.571
209.627
208.801
206.738
208.085
205.084
205.155
206.318
205.663
205.329
205.616
205.209
205.021
205.575
205.959
206.125
206.284
206.573
206.891
207.313
207.823
208.428
209.131
209.93
210.823
211.799
212.844
213.937
215.054
216.17
217.257
218.297
219.28
220.197
221.05
221.843
222.602
223.344
224.084
224.83
225.608
226.439
227.323
228.253
229.222
230.218
231.224
232.218
233.18
234.086
234.923
235.681
236.356
236.95
237.473
237.933
238.344
238.717
239.065
239.4
239.731
240.069
240.424
240.805
241.226
241.715
242.323
243.214
244.773
247.84
253.498
259.965
264.234
266.136
266.724
266.719
266.546
266.221
265.794
265.876
265.934
265.972
265.993
265.998
265.989
265.965
265.924
265.862
266.194
266.505
266.664
266.635
265.967
263.931
259.527
253.122
247.708
244.791
243.289
242.422
241.821
241.339
240.923
240.547
240.201
239.874
239.559
239.245
238.925
238.587
238.22
237.812
237.35
236.822
236.217
235.526
234.747
233.883
232.946
231.951
230.92
229.877
228.843
227.833
226.853
225.896
224.954
224.027
223.094
222.131
221.139
220.079
218.969
217.798
216.593
215.378
214.177
213.011
211.908
210.898
209.982
207.479
209.163
265.779
208.449
205.009
206.973
205.111
206.014
205.3
205.406
205.876
205.548
205.085
204.966
205.84
206.22
206.334
206.461
206.703
206.953
207.313
207.753
208.281
208.901
209.614
210.419
211.306
212.264
213.275
214.316
215.362
216.386
217.363
218.276
219.115
219.877
220.569
221.199
221.778
222.335
222.879
223.428
223.991
224.594
225.251
225.968
226.747
227.589
228.49
229.443
230.431
231.436
232.433
233.4
234.315
235.162
235.932
236.623
237.238
237.786
238.278
238.726
239.145
239.547
239.945
240.35
240.774
241.23
241.746
242.369
243.234
244.702
247.524
252.861
259.336
263.849
265.936
266.608
266.625
266.457
266.128
265.69
265.169
265.292
265.39
265.462
265.51
265.536
265.543
265.53
265.499
265.447
265.371
265.271
265.673
266.097
266.411
266.563
266.502
265.734
263.494
258.852
252.489
247.428
244.754
243.342
242.5
241.887
241.381
240.931
240.519
240.13
239.753
239.378
238.994
238.589
238.151
237.666
237.122
236.507
235.813
235.035
234.178
233.249
232.266
231.251
230.229
229.225
228.255
227.335
226.472
225.663
224.902
224.181
223.487
222.798
222.095
221.367
220.577
219.727
218.799
217.803
216.748
215.65
214.533
213.441
212.391
211.396
210.484
209.664
265.147
208.935
207.839
204.989
206.559
205.107
205.726
205.298
205.265
205.546
205.012
206.17
205.837
204.949
264.633
264.773
264.886
264.969
265.025
265.056
265.063
265.048
265.01
264.948
264.86
264.744
264.603
265.002
265.548
265.981
266.294
266.437
266.332
265.436
262.942
258.033
251.767
247.117
244.702
243.386
242.565
241.934
241.393
240.901
240.436
239.984
239.533
239.07
238.581
238.055
237.476
236.833
236.117
235.324
234.455
233.518
232.531
231.515
230.492
229.49
228.528
227.622
226.783
226.014
225.314
224.676
224.092
223.558
223.046
222.55
222.047
221.528
220.967
220.348
219.656
218.882
218.023
217.084
216.09
215.064
214.021
212.999
212.018
211.097
210.254
208.302
209.503
264.439
206.163
206.533
206.607
206.719
206.904
207.114
207.422
207.804
208.269
208.823
209.466
210.199
211.016
211.906
212.855
213.84
214.839
215.824
216.769
217.653
218.461
219.184
219.824
220.387
220.888
221.334
221.753
222.141
222.535
222.934
223.356
223.801
224.298
224.854
225.474
226.162
226.922
227.754
228.654
229.611
230.608
231.626
232.639
233.625
234.561
235.432
236.23
236.953
237.605
238.196
238.738
239.245
239.731
240.21
240.694
241.202
241.753
242.4
243.243
244.614
247.169
252.114
258.555
263.352
265.675
266.459
266.51
266.346
266.015
265.568
265.024
264.47
207.323
204.992
208.846
207.769
206.226
205.136
205.577
205.341
205.159
205.59
204.992
205.874
204.957
206.516
206.185
264.259
264.842
265.41
265.856
266.161
266.29
266.128
265.068
262.269
257.076
250.981
246.792
244.635
243.413
242.607
241.946
241.363
240.809
240.269
239.726
239.167
238.577
237.944
237.254
236.497
235.669
234.771
233.81
232.804
231.77
230.733
229.719
228.75
227.84
227.002
226.241
225.556
224.944
224.4
223.919
223.49
223.09
222.721
222.364
222.02
221.652
221.267
220.834
220.343
219.776
219.122
218.378
217.551
216.646
215.686
214.688
213.691
212.713
211.781
210.919
210.141
206.927
207.012
207.18
207.336
207.626
207.937
208.351
208.849
209.433
210.106
210.862
211.696
212.592
213.534
214.497
215.456
216.385
217.259
218.06
218.777
219.404
219.946
220.41
220.811
221.159
221.471
221.758
222.033
222.304
222.594
222.904
223.234
223.597
224.006
224.477
225.012
225.618
226.299
227.059
227.897
228.809
229.782
230.8
231.842
232.885
233.902
234.874
235.785
236.628
237.401
238.109
238.763
239.376
239.963
240.539
241.119
241.724
242.4
243.236
244.512
246.794
251.286
257.622
262.736
265.352
266.28
266.379
266.22
265.891
265.435
264.868
264.294
263.719
263.911
264.088
264.24
264.364
264.457
264.52
264.554
264.562
264.544
264.5
264.429
264.331
264.203
264.047
263.867
206.888
263.671
208.282
209.453
206.519
206.897
205.044
263.076
263.286
263.478
263.645
263.783
263.89
263.968
264.016
264.037
264.028
263.991
263.924
263.824
263.692
263.53
263.343
263.139
207.323
205.998
205.2
206.884
207.286
207.351
207.482
207.612
207.885
208.134
208.506
208.955
209.488
210.107
210.81
211.592
212.442
213.343
214.276
215.214
216.133
217.006
217.813
218.538
219.173
219.719
220.179
220.566
220.889
221.164
221.4
221.613
221.806
222.001
222.187
222.384
222.601
222.851
223.119
223.416
223.757
224.15
224.61
225.14
225.747
226.434
227.206
228.062
228.995
229.996
231.048
232.128
233.213
234.279
235.304
236.273
237.18
238.023
238.808
239.546
240.25
240.938
241.624
242.354
243.191
244.382
246.409
250.401
256.545
261.995
264.97
266.08
266.239
266.092
265.77
265.301
264.71
264.114
263.522
262.929
208.858
207.808
205.415
205.41
205.116
205.66
204.995
205.94
205.015
206.245
206.572
207.27
206.915
208.015
207.654
262.856
263.465
264.073
264.68
265.271
265.73
266.019
266.129
265.892
264.628
261.463
255.992
250.161
246.46
244.551
243.413
242.605
241.907
241.257
240.616
239.967
239.295
238.586
237.828
237.01
236.127
235.18
234.176
233.13
232.064
230.999
229.963
228.971
228.046
227.197
226.429
225.743
225.136
224.603
224.139
223.738
223.385
223.066
222.77
222.503
222.257
222.015
221.771
221.505
221.214
220.878
220.483
220.015
219.463
218.818
218.079
217.25
216.353
215.409
214.432
213.457
212.527
211.649
210.844
210.126
262.475
208.349
209.486
231.098
262.244
206.586
205.119
262.695
262.896
263.071
263.217
263.331
263.414
263.466
263.488
263.48
263.441
263.37
263.265
263.128
262.959
262.765
262.553
262.333
206.956
205.795
205.291
208.067
207.711
207.807
207.949
208.151
208.385
208.722
209.128
209.615
210.185
210.839
211.573
212.379
213.242
214.144
215.062
215.971
216.845
217.661
218.401
219.054
219.616
220.089
220.482
220.804
221.068
221.285
221.468
221.625
221.765
221.897
222.022
222.156
222.293
222.437
222.605
222.8
223.03
223.276
223.561
223.895
224.285
224.746
225.282
225.901
226.605
227.399
228.283
229.252
230.294
231.392
232.526
233.671
234.803
235.9
236.948
237.938
238.87
239.748
240.585
241.393
242.21
243.085
244.215
246.012
249.483
255.331
261.118
264.526
265.866
266.103
265.973
265.668
265.183
264.564
263.945
263.333
262.725
262.117
207.42
205.335
205.508
208.942
207.923
205.111
205.759
205.046
206.035
205.093
206.331
206.646
206.977
207.662
261.867
261.628
208.685
208.667
262.012
262.637
263.264
263.894
264.528
265.141
265.615
265.881
265.967
265.63
264.111
260.52
254.797
249.332
246.128
244.433
243.363
242.533
241.769
241.02
240.252
239.453
238.609
237.71
236.752
235.735
234.668
233.565
232.447
231.338
230.261
229.238
228.283
227.411
226.625
225.927
225.312
224.778
224.316
223.923
223.584
223.292
223.024
222.783
222.577
222.395
222.228
222.056
221.891
221.714
221.522
221.299
221.035
220.716
220.328
219.856
219.292
218.633
217.885
217.048
216.142
215.204
214.255
213.317
212.425
211.593
210.837
210.164
208.343
207.981
208.486
209.58
230.258
206.282
205.223
262.094
262.301
262.483
262.634
262.753
262.84
262.895
262.919
262.91
262.87
262.796
262.689
262.547
262.375
262.176
261.959
261.732
261.506
206.692
205.667
205.407
211.593
208.156
208.307
208.443
208.717
208.976
209.346
209.793
210.322
210.933
211.623
212.386
213.211
214.083
214.979
215.876
216.749
217.574
218.33
219.003
219.587
220.081
220.49
220.824
221.093
221.309
221.483
221.625
221.743
221.844
221.934
222.018
222.101
222.185
222.275
222.384
222.493
222.621
222.776
222.962
223.181
223.426
223.712
224.051
224.449
224.92
225.473
226.113
226.848
227.678
228.604
229.62
230.719
231.88
233.085
234.307
235.523
236.709
237.85
238.935
239.964
240.94
241.887
242.847
243.959
245.576
248.544
253.981
260.085
264.01
265.643
265.984
265.879
265.599
265.098
264.448
263.801
263.167
262.54
261.917
261.293
207.108
205.305
205.629
207.614
205.139
205.88
209.083
208.107
205.121
206.153
205.202
206.444
206.751
207.069
261.252
261.007
207.392
207.714
224.513
208.018
261.386
261.152
261.791
262.432
263.079
263.735
264.4
265.033
265.52
265.765
265.821
265.347
263.507
259.428
253.508
248.509
245.776
244.259
243.219
242.327
241.457
240.565
239.628
238.639
237.591
236.488
235.339
234.159
232.971
231.798
230.665
229.592
228.596
227.688
226.872
226.147
225.513
224.966
224.499
224.102
223.763
223.473
223.218
222.991
222.797
222.633
222.497
222.367
222.247
222.137
222.026
221.912
221.786
221.642
221.471
221.262
221.002
220.677
220.276
219.787
219.204
218.522
217.75
216.906
216.006
215.07
214.136
213.237
212.385
211.594
210.882
210.264
268.757
208.676
209.732
236.897
219.993
206.127
205.348
261.484
261.696
261.881
262.036
262.159
262.248
262.305
262.329
262.321
262.28
262.205
262.096
261.952
261.778
261.576
261.355
261.123
260.89
260.668
206.467
205.577
205.543
220.368
212.093
208.634
208.794
209.017
209.264
209.611
210.026
210.515
211.085
211.734
212.457
213.245
214.085
214.957
215.839
216.707
217.536
218.305
218.998
219.605
220.122
220.553
220.905
221.188
221.413
221.59
221.729
221.84
221.928
222
222.062
222.116
222.166
222.216
222.267
222.325
222.388
222.465
222.561
222.663
222.786
222.938
223.127
223.349
223.605
223.905
224.261
224.681
225.175
225.755
226.431
227.206
228.085
229.068
230.148
231.317
232.557
233.845
235.157
236.466
237.746
238.98
240.157
241.28
242.378
243.533
245.042
247.568
252.487
258.856
263.401
265.412
265.902
265.831
265.574
265.057
264.376
263.698
263.037
262.388
261.745
261.105
260.467
206.89
205.303
205.771
207.311
205.203
206.023
207.829
205.225
206.294
209.284
208.344
205.33
206.58
206.878
260.631
260.383
207.184
207.495
207.801
208.118
260.758
260.515
260.94
261.593
262.254
262.927
263.614
264.316
264.975
265.451
265.676
265.705
265.041
262.805
258.17
252.14
247.685
245.36
243.96
242.896
241.892
240.869
239.793
238.657
237.464
236.224
234.956
233.683
232.432
231.225
230.087
229.033
228.073
227.211
226.451
225.787
225.216
224.728
224.313
223.961
223.663
223.403
223.177
222.985
222.828
222.701
222.588
222.484
222.399
222.322
222.249
222.18
222.107
222.029
221.939
221.831
221.698
221.531
221.318
221.047
220.706
220.284
219.769
219.158
218.455
217.667
216.805
215.9
214.985
214.079
213.204
212.396
211.654
210.994
210.424
208.729
208.921
209.937
208.441
260.292
205.958
205.495
260.866
261.079
261.267
261.424
261.549
261.64
261.698
261.723
261.715
261.674
261.598
261.488
261.344
261.168
260.966
260.743
260.508
260.27
260.041
259.829
206.32
205.55
205.699
209.133
209.195
209.22
209.34
209.56
209.89
210.283
210.746
211.283
211.897
212.583
213.336
214.143
214.989
215.853
216.711
217.54
218.319
219.028
219.655
220.196
220.651
221.024
221.325
221.563
221.75
221.894
222.006
222.092
222.158
222.209
222.249
222.281
222.309
222.335
222.36
222.387
222.419
222.456
222.504
222.561
222.636
222.731
222.839
222.967
223.127
223.328
223.573
223.854
224.18
224.569
225.025
225.559
226.18
226.901
227.731
228.67
229.719
230.875
232.122
233.443
234.818
236.215
237.61
238.972
240.287
241.561
242.827
244.309
246.498
250.821
257.356
262.654
265.172
265.877
265.836
265.595
265.079
264.362
263.649
262.958
262.281
261.614
260.954
260.299
259.648
206.704
205.344
205.932
207.159
205.294
206.185
209.125
207.599
205.35
206.454
208.106
205.479
206.736
260.005
259.754
209.528
208.623
207.027
207.325
207.623
207.927
208.235
260.128
259.879
259.647
260.099
260.762
261.434
262.117
262.819
263.542
264.278
264.96
265.426
265.632
265.628
264.719
261.976
256.71
250.686
246.816
244.798
243.441
242.283
241.121
239.91
238.639
237.317
235.963
234.605
233.269
231.983
230.769
229.643
228.618
227.701
226.89
226.184
225.575
225.053
224.606
224.226
223.903
223.626
223.383
223.183
223.021
222.892
222.778
222.68
222.601
222.537
222.481
222.433
222.39
222.349
222.308
222.261
222.209
222.144
222.063
221.96
221.826
221.651
221.425
221.137
220.773
220.323
219.78
219.142
218.408
217.6
216.739
215.843
214.942
214.066
213.232
212.466
211.779
211.168
210.639
209.221
208.569
210.186
208.811
259.443
205.873
205.658
260.24
260.454
260.642
260.799
260.925
261.017
261.076
261.102
261.094
261.053
260.977
260.867
260.724
260.548
260.346
260.123
259.887
259.646
259.411
259.192
259
206.212
205.549
205.871
209.727
209.855
210.01
210.238
210.57
211.002
211.517
212.103
212.759
213.479
214.255
215.073
215.916
216.761
217.586
218.368
219.088
219.733
220.295
220.772
221.166
221.487
221.742
221.942
222.096
222.214
222.302
222.368
222.416
222.451
222.475
222.491
222.503
222.511
222.518
222.525
222.534
222.547
222.566
222.592
222.628
222.677
222.739
222.822
222.925
223.053
223.202
223.383
223.608
223.882
224.209
224.584
225.019
225.526
226.12
226.803
227.581
228.466
229.467
230.586
231.809
233.13
234.52
235.965
237.425
238.886
240.317
241.738
243.253
245.24
248.933
255.451
261.669
264.901
265.915
265.903
265.682
265.177
264.426
263.67
262.937
262.228
261.534
260.85
260.175
259.506
258.844
206.594
205.414
206.108
209.633
209.141
206.992
205.409
206.363
207.444
205.496
206.632
259.373
259.123
207.911
205.645
208.421
206.91
207.196
209.806
208.928
207.486
207.78
208.079
208.388
259.497
259.243
259.004
258.791
259.279
259.951
260.632
261.326
262.035
262.766
263.527
264.309
265.014
265.473
265.668
265.591
264.367
260.952
254.976
249.109
245.812
243.976
242.588
241.277
239.942
238.557
237.14
235.712
234.304
232.945
231.656
230.46
229.367
228.387
227.52
226.761
226.097
225.521
225.026
224.604
224.24
223.921
223.653
223.432
223.254
223.108
222.979
222.876
222.793
222.728
222.675
222.634
222.601
222.574
222.553
222.533
222.513
222.49
222.464
222.429
222.385
222.324
222.244
222.136
221.993
221.806
221.562
221.25
220.859
220.379
219.803
219.137
218.39
217.575
216.706
215.822
214.952
214.114
213.336
212.614
211.963
211.387
210.886
209.543
208.908
210.464
208.699
258.616
205.839
205.837
259.608
259.821
260.008
260.164
260.29
260.383
260.442
260.468
260.46
260.419
260.344
260.235
260.093
259.919
259.719
259.497
259.261
259.019
258.781
258.556
258.355
258.188
206.163
205.592
206.058
210.313
210.486
210.71
210.987
211.347
211.798
212.343
212.97
213.666
214.416
215.209
216.028
216.857
217.672
218.453
219.18
219.837
220.416
220.912
221.327
221.666
221.938
222.153
222.319
222.446
222.541
222.611
222.66
222.694
222.715
222.727
222.731
222.73
222.727
222.72
222.712
222.706
222.7
222.701
222.707
222.719
222.74
222.772
222.817
222.878
222.958
223.057
223.183
223.339
223.526
223.754
224.016
224.334
224.711
225.152
225.658
226.231
226.891
227.64
228.487
229.437
230.486
231.654
232.922
234.292
235.717
237.207
238.701
240.245
241.797
243.698
246.785
252.972
260.208
264.521
266.012
266.073
265.862
265.36
264.573
263.767
262.989
262.24
261.513
260.801
260.103
259.415
258.736
258.066
209.195
206.52
205.511
206.3
209.592
210.176
206.907
205.546
206.557
258.738
258.489
207.324
205.659
205.826
207.773
206.825
207.101
208.244
207.382
208.773
207.669
210.112
209.266
207.959
208.254
208.549
258.865
258.608
258.364
258.145
257.961
258.492
259.17
259.859
260.56
261.277
262.017
262.786
263.592
264.422
265.148
265.599
265.785
265.598
263.929
259.578
252.845
247.352
244.559
242.788
241.325
239.862
238.405
236.931
235.482
234.074
232.732
231.482
230.334
229.302
228.375
227.547
226.817
226.177
225.621
225.134
224.707
224.342
224.034
223.781
223.564
223.382
223.231
223.109
223.012
222.934
222.873
222.826
222.792
222.766
222.749
222.738
222.732
222.726
222.724
222.718
222.711
222.698
222.678
222.647
222.604
222.541
222.456
222.339
222.184
221.978
221.713
221.375
220.954
220.446
219.85
219.164
218.393
217.574
216.723
215.874
215.039
214.244
213.491
212.796
212.17
211.622
211.156
209.863
208.858
209.032
210.758
257.824
205.836
206.029
258.971
259.182
259.366
259.522
259.646
259.738
259.797
259.823
259.815
259.775
259.701
259.594
259.453
259.282
259.084
258.864
258.63
258.388
258.148
257.92
257.713
257.537
257.404
209.272
206.157
205.662
209.175
209.379
206.258
209.583
210.086
210.762
210.929
211.15
211.431
211.781
212.191
212.678
213.249
213.898
214.615
215.386
216.186
216.997
217.8
218.574
219.302
219.967
220.558
221.07
221.502
221.859
222.148
222.378
222.557
222.695
222.797
222.874
222.927
222.963
222.984
222.996
222.995
222.992
222.982
222.967
222.95
222.932
222.914
222.897
222.884
222.876
222.871
222.875
222.887
222.909
222.944
222.993
223.059
223.146
223.254
223.388
223.552
223.749
223.988
224.272
224.601
224.99
225.428
225.937
226.521
227.178
227.905
228.712
229.608
230.598
231.677
232.865
234.139
235.527
236.956
238.491
240.041
241.834
244.468
249.845
257.841
263.816
266.101
266.342
266.133
265.636
264.818
263.948
263.116
262.324
261.561
260.818
260.093
259.382
258.684
257.999
257.324
206.505
205.633
206.504
258.1
257.853
206.873
205.701
205.837
207.264
206.763
207.031
207.685
206.02
207.305
208.138
207.585
208.605
207.868
209.131
208.154
210.455
209.641
208.441
208.733
258.231
257.974
257.727
257.503
257.312
257.165
257.075
257.745
258.427
259.122
259.832
260.559
261.306
262.079
262.887
263.743
264.633
265.381
265.814
265.99
265.619
263.25
257.555
250.239
245.395
242.975
241.234
239.709
238.188
236.722
235.296
233.935
232.664
231.49
230.42
229.445
228.564
227.771
227.064
226.429
225.865
225.372
224.95
224.582
224.265
223.996
223.768
223.58
223.424
223.297
223.193
223.111
223.047
222.999
222.965
222.941
222.928
222.921
222.919
222.924
222.929
222.937
222.946
222.952
222.955
222.955
222.943
222.927
222.895
222.849
222.781
222.687
222.558
222.387
222.162
221.873
221.511
221.068
220.535
219.912
219.21
218.449
217.64
216.82
215.999
215.184
214.4
213.669
213.006
212.402
211.868
211.412
210.176
211.028
210.769
209.03
212.291
205.873
211.543
211.338
209.337
209.506
209.601
210.049
210.631
209.662
210.046
210.554
209.745
210.075
210.527
210.137
209.855
210.524
209.654
210.555
210.221
209.983
206.234
258.331
258.538
258.72
258.873
258.995
259.086
259.144
259.169
259.162
259.122
259.05
258.944
258.806
258.638
258.444
258.227
257.995
257.755
257.515
257.285
257.074
256.892
256.75
256.66
212.004
212.591
213.196
213.864
214.587
215.346
216.138
216.96
217.779
218.57
219.323
220.018
220.648
221.196
221.665
222.048
222.357
222.599
222.787
222.929
223.034
223.11
223.162
223.197
223.215
223.225
223.223
223.218
223.205
223.191
223.174
223.156
223.14
223.127
223.117
223.11
223.111
223.119
223.136
223.164
223.206
223.262
223.337
223.432
223.55
223.694
223.868
224.075
224.32
224.607
224.939
225.328
225.77
226.273
226.841
227.472
228.177
228.95
229.786
230.697
231.686
232.757
233.934
235.195
236.557
237.982
239.505
241.118
243.32
247.203
254.609
261.976
265.527
266.267
266.115
265.733
264.949
263.986
263.074
262.221
261.412
260.635
259.882
259.15
258.436
257.737
257.054
206.18
205.762
206.469
257.597
257.34
257.093
256.865
256.669
256.515
256.415
256.384
211.013
211.04
211.115
211.232
211.391
211.598
211.868
212.206
212.61
213.079
213.614
214.216
214.888
215.617
216.385
217.176
217.966
218.732
219.457
220.123
220.722
221.246
221.692
222.065
222.369
222.613
222.805
222.953
223.065
223.149
223.207
223.248
223.271
223.284
223.284
223.28
223.266
223.247
223.225
223.2
223.174
223.148
223.123
223.099
223.081
223.066
223.059
223.055
223.062
223.08
223.11
223.154
223.215
223.295
223.397
223.523
223.678
223.863
224.084
224.343
224.647
224.995
225.401
225.864
226.385
226.976
227.623
228.345
229.134
229.981
230.896
231.891
232.959
234.146
235.403
236.796
238.244
239.865
242.072
246.325
254.262
262.293
266.041
266.692
266.494
266.016
265.185
264.222
263.321
262.478
261.676
260.902
260.15
259.416
258.699
257.998
257.31
256.635
206.513
205.774
205.873
206.871
206.72
206.981
207.255
206.03
257.459
257.215
207.249
207.654
206.226
207.523
208.071
207.801
208.518
208.081
208.988
208.363
209.495
208.645
210.035
208.929
210.6
209.22
209.515
211.007
210.613
209.817
211.483
211.035
205.941
212.747
211.442
210.328
210.13
206.45
212.384
212.73
213.227
213.948
214.717
215.512
216.319
217.128
217.925
218.713
219.474
220.175
220.803
221.361
221.837
222.238
222.563
222.825
223.026
223.182
223.297
223.382
223.441
223.481
223.503
223.514
223.512
223.507
223.49
223.471
223.45
223.427
223.403
223.38
223.358
223.34
223.327
223.317
223.314
223.319
223.334
223.361
223.402
223.457
223.531
223.625
223.741
223.883
224.054
224.256
224.493
224.768
225.085
225.447
225.856
226.317
226.831
227.408
228.039
228.739
229.489
230.298
231.147
232.059
233.037
234.084
235.25
236.492
237.881
239.328
241.237
244.349
250.844
259.415
264.967
266.571
266.502
266.145
265.37
264.331
263.352
262.446
261.597
260.789
260.011
259.258
258.525
257.81
257.112
256.429
257.686
257.891
258.069
258.219
258.339
258.427
258.484
258.509
258.502
258.463
258.392
258.289
258.154
257.989
257.799
257.586
257.358
257.12
256.882
256.652
256.438
256.252
256.104
256.007
255.973
206.243
205.884
211.491
215.992
205.935
206.567
206.692
206.946
211.522
211.603
211.724
211.876
212.078
212.332
212.653
213.037
213.49
214.01
214.592
215.23
215.918
216.651
217.41
218.175
218.926
219.643
220.309
220.91
221.441
221.897
222.282
222.6
222.857
223.06
223.22
223.341
223.432
223.498
223.544
223.571
223.587
223.587
223.583
223.569
223.549
223.524
223.495
223.465
223.433
223.399
223.367
223.337
223.309
223.288
223.271
223.264
223.257
223.263
223.279
223.309
223.354
223.415
223.496
223.599
223.726
223.879
224.063
224.28
224.534
224.827
225.163
225.545
225.974
226.456
226.986
227.581
228.228
228.939
229.7
230.514
231.369
232.276
233.257
234.29
235.478
236.71
238.146
239.904
243.203
249.675
259.256
265.411
267.015
266.905
266.481
265.62
264.565
263.588
262.691
261.851
261.048
260.274
259.521
258.788
258.071
257.371
256.684
256.011
206.909
206.059
256.962
256.707
256.46
256.232
256.032
255.873
255.766
255.726
255.76
256.816
256.576
211.092
211.131
210.694
207.209
207.268
206.234
207.479
207.652
206.443
207.752
208.06
208.029
208.477
208.307
208.92
208.584
209.394
208.861
209.896
209.141
210.486
209.422
212.557
209.707
209.997
206.037
212.181
212.238
206.027
206.332
206.923
257.039
257.24
257.415
257.561
257.678
257.764
257.819
257.843
257.837
257.799
257.73
257.628
257.496
257.336
257.15
256.942
256.718
256.485
256.249
256.02
255.806
255.618
255.466
255.362
255.322
255.352
230.837
212.081
212.218
212.386
212.57
212.83
213.14
213.506
213.936
214.432
214.992
215.609
216.274
216.976
217.703
218.438
219.165
219.867
220.524
221.123
221.656
222.119
222.513
222.84
223.108
223.323
223.492
223.623
223.722
223.795
223.846
223.879
223.897
223.901
223.898
223.887
223.865
223.84
223.808
223.776
223.74
223.701
223.663
223.626
223.59
223.558
223.529
223.506
223.49
223.485
223.479
223.487
223.505
223.539
223.589
223.656
223.743
223.852
223.986
224.146
224.337
224.56
224.818
225.113
225.447
225.822
226.24
226.701
227.207
227.753
228.347
228.977
229.665
230.393
231.181
231.991
232.835
233.716
234.695
235.699
236.948
238.23
240.911
245.346
254.758
263.332
267.036
267.244
266.922
266.121
264.995
263.927
262.967
262.09
261.264
260.473
259.706
258.96
258.233
257.522
256.826
256.145
255.478
206.646
206.111
212.847
213.249
213.7
214.228
214.857
215.606
216.434
217.282
218.112
218.91
219.656
220.345
220.983
221.555
222.043
222.45
222.787
223.058
223.275
223.442
223.568
223.663
223.728
223.775
223.801
223.817
223.816
223.811
223.794
223.774
223.749
223.721
223.693
223.664
223.635
223.608
223.583
223.563
223.549
223.54
223.536
223.541
223.558
223.587
223.631
223.691
223.769
223.868
223.989
224.137
224.312
224.518
224.757
225.033
225.347
225.701
226.098
226.539
227.026
227.555
228.135
228.755
229.433
230.157
230.941
231.755
232.597
233.487
234.456
235.484
236.662
237.907
239.485
241.87
246.841
255.347
263.466
266.685
266.891
266.605
265.863
264.768
263.709
262.743
261.856
261.021
260.222
259.451
258.702
257.974
257.264
256.57
255.892
256.327