/*--------------------------------*- C++ -*----------------------------------*\
| =========                 |                                                 |
| \\      /  F ield         | OpenFOAM: The Open Source CFD Toolbox           |
|  \\    /   O peration     | Version:  2212                                  |
|   \\  /    A nd           | Website:  www.openfoam.com                      |
|    \\/     M anipulation  |                                                 |
\*---------------------------------------------------------------------------*/
FoamFile
{
    version     2.0;
    format      ascii;
    arch        "LSB;label=32;scalar=64";
    class       volScalarField;
    location    "0.4395";
    object      s;
}
// * * * * * * * * * * * * * * * * * * * * * * * * * * * * * * * * * * * * * //

dimensions      [0 0 0 0 0 0 0];

internalField   nonuniform List<scalar> 
24240
(
1.60449e-70
1.59847e-70
1.60944e-70
1.59178e-70
1.58814e-70
1.61348e-70
1.6059e-70
1.573e-70
1.58469e-70
1.62634e-70
1.5955e-70
1.62163e-70
1.60507e-70
1.62515e-70
1.58659e-70
1.6329e-70
1.58368e-70
1.60101e-70
1.59281e-70
1.55312e-70
5.22832e-68
5.21109e-68
5.2462e-68
5.18942e-68
5.17633e-68
5.25941e-68
5.23455e-68
5.12792e-68
5.16598e-68
5.30125e-68
5.20113e-68
5.28518e-68
5.23311e-68
5.29728e-68
5.17252e-68
5.3222e-68
5.16372e-68
5.2196e-68
5.19237e-68
5.06224e-68
8.52383e-66
8.49956e-66
8.55574e-66
8.46436e-66
8.44108e-66
8.57733e-66
8.5366e-66
8.3637e-66
8.42576e-66
8.64549e-66
8.48296e-66
8.61812e-66
8.53635e-66
8.63887e-66
8.43701e-66
8.67892e-66
8.42378e-66
8.51385e-66
8.4687e-66
8.25542e-66
8.15934e-64
8.13974e-64
8.19247e-64
8.1061e-64
8.08195e-64
8.2131e-64
8.17391e-64
8.00933e-64
8.06875e-64
8.27819e-64
8.1233e-64
8.2508e-64
8.17553e-64
8.27157e-64
8.07985e-64
8.30924e-64
8.06826e-64
8.15341e-64
8.10955e-64
7.9044e-64
5.51187e-62
5.50105e-62
5.53592e-62
5.47829e-62
5.46073e-62
5.5498e-62
5.52323e-62
5.41272e-62
5.45295e-62
5.59371e-62
5.48964e-62
5.57442e-62
5.52568e-62
5.58909e-62
5.46065e-62
5.61401e-62
5.4536e-62
5.51032e-62
5.48035e-62
5.34127e-62
2.58217e-60
2.57817e-60
2.59412e-60
2.56745e-60
2.55865e-60
2.60056e-60
2.58808e-60
2.53663e-60
2.55555e-60
2.62107e-60
2.57262e-60
2.61166e-60
2.58981e-60
2.61879e-60
2.55914e-60
2.63017e-60
2.55623e-60
2.58237e-60
2.56821e-60
2.50296e-60
8.41432e-59
8.40473e-59
8.45536e-59
8.36948e-59
8.3389e-59
8.47603e-59
8.43535e-59
8.26888e-59
8.33104e-59
8.54267e-59
8.38612e-59
8.51078e-59
8.44304e-59
8.53486e-59
8.34241e-59
8.57069e-59
8.33434e-59
8.41779e-59
8.3715e-59
8.15915e-59
1.77882e-57
1.77739e-57
1.78779e-57
1.76981e-57
1.76298e-57
1.792e-57
1.78344e-57
1.74854e-57
1.76192e-57
1.806e-57
1.77335e-57
1.79904e-57
1.78545e-57
1.80424e-57
1.76403e-57
1.81143e-57
1.7627e-57
1.77984e-57
1.77012e-57
1.72566e-57
1.09858e-56
1.09828e-56
1.10453e-56
1.09352e-56
1.08908e-56
1.10694e-56
1.10176e-56
1.08045e-56
1.08909e-56
1.11552e-56
1.09589e-56
1.11111e-56
1.10326e-56
1.11431e-56
1.08992e-56
1.11835e-56
1.08944e-56
1.0995e-56
1.09363e-56
1.06662e-56
2.87793e-57
2.88186e-57
2.90529e-57
2.86291e-57
2.85796e-57
2.87862e-57
2.88108e-57
2.83553e-57
2.90699e-57
2.8917e-57
2.89637e-57
2.89383e-57
2.87621e-57
2.88048e-57
2.84149e-57
2.85853e-57
2.8642e-57
2.85317e-57
2.85968e-57
2.86165e-57
5.31946e-57
5.34269e-57
5.39795e-57
5.30109e-57
5.28153e-57
5.28509e-57
5.31932e-57
5.25594e-57
5.39365e-57
5.37715e-57
5.39108e-57
5.3467e-57
5.34733e-57
5.30356e-57
5.26667e-57
5.29109e-57
5.24062e-57
5.26639e-57
5.29479e-57
5.27798e-57
5.68918e-57
5.71533e-57
5.75333e-57
5.65025e-57
5.66797e-57
5.61492e-57
5.71106e-57
5.66174e-57
5.69086e-57
5.79596e-57
5.729e-57
5.64597e-57
5.74833e-57
5.70997e-57
5.68552e-57
5.72259e-57
5.56526e-57
5.65995e-57
5.63204e-57
5.62266e-57
6.86087e-57
6.8877e-57
6.91786e-57
6.92672e-57
6.94293e-57
7.00194e-57
7.04288e-57
6.97315e-57
6.94697e-57
6.86562e-57
6.86716e-57
6.88425e-57
6.94947e-57
6.96907e-57
6.89016e-57
6.92563e-57
6.92552e-57
6.91055e-57
6.84878e-57
6.88241e-57
7.21769e-57
7.16489e-57
7.19688e-57
7.30535e-57
7.27562e-57
7.34496e-57
7.2197e-57
7.36851e-57
7.17045e-57
7.11666e-57
7.11269e-57
7.18204e-57
7.17082e-57
7.10396e-57
7.08617e-57
7.15118e-57
7.06759e-57
7.18419e-57
7.14496e-57
7.2229e-57
7.58816e-57
7.55749e-57
7.65932e-57
7.57138e-57
7.57542e-57
7.69949e-57
7.62268e-57
7.75787e-57
7.60266e-57
7.71339e-57
7.64832e-57
7.67436e-57
7.67829e-57
7.74723e-57
7.66127e-57
7.78116e-57
7.63079e-57
7.5488e-57
7.6303e-57
7.56206e-57
7.41032e-57
7.35276e-57
7.30561e-57
7.33051e-57
7.39104e-57
7.44408e-57
7.41991e-57
7.39898e-57
7.29633e-57
7.3163e-57
7.23715e-57
7.40052e-57
7.42947e-57
7.47333e-57
7.48059e-57
7.42683e-57
7.40893e-57
7.44015e-57
7.37933e-57
7.38818e-57
6.97965e-57
7.09562e-57
6.98628e-57
7.14675e-57
6.95519e-57
7.08863e-57
6.9838e-57
7.08788e-57
7.01709e-57
7.08052e-57
7.02334e-57
7.1809e-57
7.0351e-57
7.19452e-57
7.04362e-57
7.07414e-57
7.11434e-57
6.96685e-57
7.13225e-57
7.12588e-57
6.2512e-57
6.40642e-57
6.37889e-57
6.30654e-57
6.26862e-57
6.44733e-57
6.34073e-57
6.38281e-57
6.34939e-57
6.26363e-57
6.31327e-57
6.41406e-57
6.318e-57
6.48287e-57
6.32583e-57
6.41141e-57
6.41279e-57
6.37246e-57
6.42507e-57
6.45844e-57
6.20068e-57
6.20609e-57
6.22954e-57
6.27514e-57
6.27021e-57
6.27324e-57
6.15885e-57
6.30879e-57
6.33209e-57
6.20794e-57
6.30167e-57
6.34849e-57
6.16424e-57
6.36294e-57
6.34744e-57
6.43283e-57
6.30703e-57
6.32588e-57
6.26744e-57
6.37136e-57
3.74904e-57
3.78289e-57
3.78473e-57
3.74411e-57
3.76961e-57
3.76304e-57
3.76594e-57
3.77929e-57
3.73583e-57
3.804e-57
3.7251e-57
3.80518e-57
3.73419e-57
3.84398e-57
3.74445e-57
3.75116e-57
3.75053e-57
3.82001e-57
3.77094e-57
3.84027e-57
3.25376e-69
3.243e-69
3.265e-69
3.22971e-69
3.22167e-69
3.27346e-69
3.25801e-69
3.19164e-69
3.21526e-69
3.29968e-69
3.23723e-69
3.28969e-69
3.2571e-69
3.29711e-69
3.21932e-69
3.31263e-69
3.21355e-69
3.24841e-69
3.23138e-69
3.15015e-69
1.04543e-66
1.04247e-66
1.0494e-66
1.03821e-66
1.03539e-66
1.05213e-66
1.04713e-66
1.02592e-66
1.03351e-66
1.06054e-66
1.04055e-66
1.05718e-66
1.04709e-66
1.05969e-66
1.03488e-66
1.06461e-66
1.03317e-66
1.04425e-66
1.03868e-66
1.01241e-66
1.67761e-64
1.67364e-64
1.68457e-64
1.66684e-64
1.66192e-64
1.68894e-64
1.68088e-64
1.64703e-64
1.65921e-64
1.70242e-64
1.67048e-64
1.6968e-64
1.68123e-64
1.70103e-64
1.66153e-64
1.70881e-64
1.659e-64
1.67658e-64
1.66751e-64
1.62509e-64
1.58676e-62
1.58373e-62
1.59386e-62
1.5773e-62
1.57229e-62
1.59798e-62
1.59032e-62
1.55848e-62
1.57e-62
1.6107e-62
1.58063e-62
1.60514e-62
1.59102e-62
1.60933e-62
1.57227e-62
1.61656e-62
1.57008e-62
1.58649e-62
1.5778e-62
1.53746e-62
1.05542e-60
1.0539e-60
1.06049e-60
1.0496e-60
1.04603e-60
1.0632e-60
1.0581e-60
1.03704e-60
1.04473e-60
1.07165e-60
1.05176e-60
1.06781e-60
1.05882e-60
1.07071e-60
1.04627e-60
1.07542e-60
1.04497e-60
1.05573e-60
1.04989e-60
1.02295e-60
4.88193e-59
4.87695e-59
4.90671e-59
4.85694e-59
4.83935e-59
4.91912e-59
4.89544e-59
4.79866e-59
4.83434e-59
4.95808e-59
4.86665e-59
4.93958e-59
4.89989e-59
4.95352e-59
4.84147e-59
4.97474e-59
4.83618e-59
4.88512e-59
4.85794e-59
4.73303e-59
1.56814e-57
1.56721e-57
1.57651e-57
1.56071e-57
1.55471e-57
1.58042e-57
1.57282e-57
1.54195e-57
1.55351e-57
1.5929e-57
1.56378e-57
1.58673e-57
1.57463e-57
1.59136e-57
1.55574e-57
1.59795e-57
1.55431e-57
1.5697e-57
1.56095e-57
1.52086e-57
3.26636e-56
3.26554e-56
3.28433e-56
3.25173e-56
3.23855e-56
3.29218e-56
3.27642e-56
3.21264e-56
3.23716e-56
3.31801e-56
3.25817e-56
3.30473e-56
3.2809e-56
3.3146e-56
3.24127e-56
3.32761e-56
3.23898e-56
3.27013e-56
3.25207e-56
3.1693e-56
1.98928e-55
1.98984e-55
2.00098e-55
1.98127e-55
1.97286e-55
2.00538e-55
1.99598e-55
1.95758e-55
1.97319e-55
2.02101e-55
1.98553e-55
2.01273e-55
1.99919e-55
2.01871e-55
1.97486e-55
2.02591e-55
1.97405e-55
1.99209e-55
1.98135e-55
1.93171e-55
5.04137e-56
5.04855e-56
5.09006e-56
5.01551e-56
5.00643e-56
5.04201e-56
5.04648e-56
4.96759e-56
5.09321e-56
5.066e-56
5.07448e-56
5.06887e-56
5.03925e-56
5.04553e-56
4.97837e-56
5.00653e-56
5.01701e-56
4.99788e-56
5.00972e-56
5.01304e-56
9.44489e-56
9.48565e-56
9.58391e-56
9.41142e-56
9.37762e-56
9.38284e-56
9.44363e-56
9.33245e-56
9.5755e-56
9.54765e-56
9.57116e-56
9.49162e-56
9.49445e-56
9.41701e-56
9.35196e-56
9.39443e-56
9.30417e-56
9.34985e-56
9.40048e-56
9.36914e-56
1.00432e-55
1.00885e-55
1.01561e-55
9.97486e-56
1.00066e-55
9.91473e-56
1.00835e-55
9.99762e-56
1.00451e-55
1.023e-55
1.01117e-55
9.96603e-56
1.01469e-55
1.00809e-55
1.00376e-55
1.01029e-55
9.82798e-56
9.99141e-56
9.94411e-56
9.92674e-56
1.21517e-55
1.21962e-55
1.2251e-55
1.22687e-55
1.22966e-55
1.24018e-55
1.24691e-55
1.23508e-55
1.23026e-55
1.21579e-55
1.21607e-55
1.2192e-55
1.23062e-55
1.23389e-55
1.22026e-55
1.22635e-55
1.22627e-55
1.22389e-55
1.21296e-55
1.21897e-55
1.27252e-55
1.26311e-55
1.26879e-55
1.28765e-55
1.28253e-55
1.2948e-55
1.2727e-55
1.29896e-55
1.26396e-55
1.2549e-55
1.25403e-55
1.26625e-55
1.26421e-55
1.2525e-55
1.24954e-55
1.26087e-55
1.24613e-55
1.26651e-55
1.25988e-55
1.27323e-55
1.34273e-55
1.3373e-55
1.35515e-55
1.33951e-55
1.34055e-55
1.3623e-55
1.34869e-55
1.37252e-55
1.34535e-55
1.36489e-55
1.35326e-55
1.35783e-55
1.35862e-55
1.37103e-55
1.35575e-55
1.37667e-55
1.35035e-55
1.33579e-55
1.35021e-55
1.33795e-55
1.30539e-55
1.29557e-55
1.28697e-55
1.29155e-55
1.302e-55
1.31128e-55
1.30705e-55
1.3034e-55
1.28563e-55
1.28894e-55
1.27504e-55
1.30368e-55
1.30886e-55
1.31636e-55
1.31783e-55
1.3081e-55
1.30525e-55
1.31081e-55
1.30018e-55
1.30172e-55
1.23529e-55
1.25588e-55
1.23657e-55
1.26468e-55
1.23079e-55
1.25425e-55
1.23585e-55
1.25421e-55
1.24188e-55
1.25316e-55
1.24295e-55
1.27086e-55
1.245e-55
1.27307e-55
1.24663e-55
1.25168e-55
1.25907e-55
1.23301e-55
1.26219e-55
1.26108e-55
1.10335e-55
1.13039e-55
1.12574e-55
1.1129e-55
1.1064e-55
1.13754e-55
1.11882e-55
1.12625e-55
1.1205e-55
1.1053e-55
1.11409e-55
1.13171e-55
1.11495e-55
1.14374e-55
1.11643e-55
1.13137e-55
1.13149e-55
1.12457e-55
1.13357e-55
1.13956e-55
1.10266e-55
1.10356e-55
1.10789e-55
1.11583e-55
1.11489e-55
1.11534e-55
1.09514e-55
1.12192e-55
1.1258e-55
1.10395e-55
1.12054e-55
1.12885e-55
1.09624e-55
1.13132e-55
1.12874e-55
1.14364e-55
1.12159e-55
1.12465e-55
1.11434e-55
1.13264e-55
6.63001e-56
6.69021e-56
6.69412e-56
6.62155e-56
6.6658e-56
6.65459e-56
6.65958e-56
6.68362e-56
6.60523e-56
6.72644e-56
6.58711e-56
6.72801e-56
6.60401e-56
6.7969e-56
6.62154e-56
6.63324e-56
6.632e-56
6.75437e-56
6.66845e-56
6.78995e-56
6.29779e-68
6.28002e-68
6.32208e-68
6.25483e-68
6.23795e-68
6.33901e-68
6.30895e-68
6.18118e-68
6.22676e-68
6.39003e-68
6.26936e-68
6.36978e-68
6.30876e-68
6.38473e-68
6.23502e-68
6.41436e-68
6.22413e-68
6.291e-68
6.25728e-68
6.09843e-68
1.9912e-65
1.98657e-65
1.99962e-65
1.97864e-65
1.97284e-65
2.00497e-65
1.99541e-65
1.95523e-65
1.96963e-65
2.02107e-65
1.98307e-65
2.01438e-65
1.99583e-65
2.01935e-65
1.97239e-65
2.0286e-65
1.9692e-65
1.99011e-65
1.97928e-65
1.92868e-65
3.1432e-63
3.13741e-63
3.15762e-63
3.1249e-63
3.11504e-63
3.16604e-63
3.15088e-63
3.0878e-63
3.11054e-63
3.19143e-63
3.1317e-63
3.18043e-63
3.15232e-63
3.18866e-63
3.11511e-63
3.20304e-63
3.11052e-63
3.14313e-63
3.12579e-63
3.04538e-63
2.93391e-61
2.92993e-61
2.9484e-61
2.91823e-61
2.90836e-61
2.9562e-61
2.94199e-61
2.88343e-61
2.90468e-61
2.97984e-61
2.92435e-61
2.96913e-61
2.94402e-61
2.97716e-61
2.90907e-61
2.99033e-61
2.90517e-61
2.93521e-61
2.91885e-61
2.84332e-61
1.91949e-59
1.91779e-59
1.92961e-59
1.9101e-59
1.90321e-59
1.93466e-59
1.92534e-59
1.88726e-59
1.90119e-59
1.95011e-59
1.914e-59
1.94282e-59
1.92714e-59
1.94829e-59
1.90414e-59
1.95673e-59
1.90187e-59
1.92123e-59
1.91043e-59
1.86077e-59
8.75402e-58
8.7502e-58
8.80277e-58
8.71476e-58
8.68145e-58
8.82545e-58
8.78283e-58
8.61024e-58
8.67405e-58
8.89566e-58
8.73206e-58
8.86113e-58
8.79305e-58
8.887e-58
8.68746e-58
8.92449e-58
8.67843e-58
8.76525e-58
8.71576e-58
8.48865e-58
2.76872e-56
2.76873e-56
2.78489e-56
2.75736e-56
2.74621e-56
2.79192e-56
2.77844e-56
2.72424e-56
2.7446e-56
2.81406e-56
2.76276e-56
2.80272e-56
2.78236e-56
2.81118e-56
2.74873e-56
2.82263e-56
2.74635e-56
2.77323e-56
2.75758e-56
2.68574e-56
5.67375e-55
5.67578e-55
5.70787e-55
5.65194e-55
5.62794e-55
5.72165e-55
5.6942e-55
5.58402e-55
5.62651e-55
5.76676e-55
5.66305e-55
5.74279e-55
5.70346e-55
5.76051e-55
5.63409e-55
5.78275e-55
5.63039e-55
5.68389e-55
5.65215e-55
5.50617e-55
3.40393e-54
3.40699e-54
3.42571e-54
3.39239e-54
3.37732e-54
3.4333e-54
3.41717e-54
3.35183e-54
3.37848e-54
3.4602e-54
3.39962e-54
3.44547e-54
3.42357e-54
3.45607e-54
3.38161e-54
3.46818e-54
3.38036e-54
3.41088e-54
3.39234e-54
3.30598e-54
8.33013e-55
8.34245e-55
8.41183e-55
8.2881e-55
8.27244e-55
8.33012e-55
8.33779e-55
8.20904e-55
8.41725e-55
8.37174e-55
8.38616e-55
8.37491e-55
8.32819e-55
8.33647e-55
8.22746e-55
8.27118e-55
8.28919e-55
8.25803e-55
8.27834e-55
8.28343e-55
1.5825e-54
1.58924e-54
1.60574e-54
1.57674e-54
1.57125e-54
1.57194e-54
1.58212e-54
1.56372e-54
1.60419e-54
1.59978e-54
1.6035e-54
1.59005e-54
1.59082e-54
1.57789e-54
1.56708e-54
1.57403e-54
1.55881e-54
1.56643e-54
1.57497e-54
1.56944e-54
1.67324e-54
1.68065e-54
1.692e-54
1.66195e-54
1.66731e-54
1.65234e-54
1.68025e-54
1.66616e-54
1.67342e-54
1.70408e-54
1.68435e-54
1.66026e-54
1.69039e-54
1.67971e-54
1.67248e-54
1.68331e-54
1.63804e-54
1.6646e-54
1.65707e-54
1.65403e-54
2.03172e-54
2.03863e-54
2.04804e-54
2.05133e-54
2.05587e-54
2.07353e-54
2.08393e-54
2.06502e-54
2.05667e-54
2.03242e-54
2.03289e-54
2.03827e-54
2.05716e-54
2.06226e-54
2.04008e-54
2.04993e-54
2.04965e-54
2.04618e-54
2.0279e-54
2.03803e-54
2.11888e-54
2.10304e-54
2.11257e-54
2.14353e-54
2.13523e-54
2.1557e-54
2.11889e-54
2.16264e-54
2.10422e-54
2.08987e-54
2.08813e-54
2.10846e-54
2.10494e-54
2.0856e-54
2.08097e-54
2.09959e-54
2.0751e-54
2.10869e-54
2.09817e-54
2.11971e-54
2.24443e-54
2.23538e-54
2.26488e-54
2.23862e-54
2.24096e-54
2.27693e-54
2.25417e-54
2.29378e-54
2.24894e-54
2.28146e-54
2.26183e-54
2.26938e-54
2.27093e-54
2.29198e-54
2.26634e-54
2.30076e-54
2.2573e-54
2.23288e-54
2.25699e-54
2.23618e-54
2.17358e-54
2.15783e-54
2.14305e-54
2.15097e-54
2.16796e-54
2.18336e-54
2.17631e-54
2.17037e-54
2.14133e-54
2.14646e-54
2.12341e-54
2.17083e-54
2.17958e-54
2.19165e-54
2.19441e-54
2.17783e-54
2.1736e-54
2.18287e-54
2.16538e-54
2.16789e-54
2.06708e-54
2.1016e-54
2.06936e-54
2.11583e-54
2.05927e-54
2.09817e-54
2.06771e-54
2.09827e-54
2.07798e-54
2.09693e-54
2.07971e-54
2.12644e-54
2.08313e-54
2.12981e-54
2.08611e-54
2.09389e-54
2.10671e-54
2.06326e-54
2.11185e-54
2.11001e-54
1.8424e-54
1.88695e-54
1.87952e-54
1.85802e-54
1.84747e-54
1.89873e-54
1.86766e-54
1.88004e-54
1.87071e-54
1.84528e-54
1.85998e-54
1.8891e-54
1.86146e-54
1.90897e-54
1.86408e-54
1.88873e-54
1.88875e-54
1.87751e-54
1.89204e-54
1.90223e-54
1.8559e-54
1.8573e-54
1.86488e-54
1.87792e-54
1.87622e-54
1.87686e-54
1.84311e-54
1.88837e-54
1.89441e-54
1.85804e-54
1.88581e-54
1.8998e-54
1.8452e-54
1.90377e-54
1.89973e-54
1.92431e-54
1.8878e-54
1.8924e-54
1.87523e-54
1.9057e-54
1.11001e-54
1.12013e-54
1.12091e-54
1.10865e-54
1.11592e-54
1.11409e-54
1.11489e-54
1.11901e-54
1.10564e-54
1.12601e-54
1.10276e-54
1.1262e-54
1.10569e-54
1.13777e-54
1.10857e-54
1.1105e-54
1.11024e-54
1.13063e-54
1.11639e-54
1.13654e-54
1.21934e-66
1.21652e-66
1.22457e-66
1.21175e-66
1.20823e-66
1.22795e-66
1.2221e-66
1.1975e-66
1.2063e-66
1.23788e-66
1.21456e-66
1.23378e-66
1.22237e-66
1.23679e-66
1.20797e-66
1.24244e-66
1.20592e-66
1.21874e-66
1.21207e-66
1.18097e-66
3.79419e-64
3.78738e-64
3.81194e-64
3.77255e-64
3.76071e-64
3.82241e-64
3.80412e-64
3.72796e-64
3.75533e-64
3.85325e-64
3.78098e-64
3.83994e-64
3.80587e-64
3.84977e-64
3.76083e-64
3.86713e-64
3.75495e-64
3.79439e-64
3.77333e-64
3.67578e-64
5.89056e-62
5.88299e-62
5.92036e-62
5.85995e-62
5.84025e-62
5.93653e-62
5.90801e-62
5.79043e-62
5.83293e-62
5.98436e-62
5.87265e-62
5.96284e-62
5.91221e-62
5.97884e-62
5.8419e-62
6.0054e-62
5.83357e-62
5.89406e-62
5.86096e-62
5.70836e-62
5.42117e-60
5.41693e-60
5.4506e-60
5.39565e-60
5.37631e-60
5.46533e-60
5.43898e-60
5.33137e-60
5.37052e-60
5.50924e-60
5.40692e-60
5.48862e-60
5.44411e-60
5.50397e-60
5.37901e-60
5.52797e-60
5.37208e-60
5.427e-60
5.39623e-60
5.25481e-60
3.48763e-58
3.48663e-58
3.5078e-58
3.47284e-58
3.45962e-58
3.51715e-58
3.50015e-58
3.43133e-58
3.45659e-58
3.54535e-58
3.47989e-58
3.53157e-58
3.50432e-58
3.54186e-58
3.46219e-58
3.55697e-58
3.45824e-58
3.49304e-58
3.47311e-58
3.38161e-58
1.56687e-56
1.56715e-56
1.57642e-56
1.56087e-56
1.5546e-56
1.58054e-56
1.57289e-56
1.54216e-56
1.55356e-56
1.59317e-56
1.56395e-56
1.58674e-56
1.57512e-56
1.59153e-56
1.55607e-56
1.59814e-56
1.55454e-56
1.5699e-56
1.56092e-56
1.51967e-56
4.8784e-55
4.88149e-55
4.9095e-55
4.86162e-55
4.84101e-55
4.92203e-55
4.89823e-55
4.80324e-55
4.83904e-55
4.96124e-55
4.87107e-55
4.94049e-55
4.9064e-55
4.9559e-55
4.84669e-55
4.97576e-55
4.84273e-55
4.88955e-55
4.86163e-55
4.73308e-55
9.82908e-54
9.83884e-54
9.89346e-54
9.79776e-54
9.75426e-54
9.91756e-54
9.8699e-54
9.68005e-54
9.75353e-54
9.99611e-54
9.81688e-54
9.953e-54
9.88852e-54
9.98472e-54
9.76741e-54
1.00226e-53
9.76147e-54
9.85306e-54
9.79751e-54
9.5405e-54
5.80797e-53
5.81696e-53
5.8483e-53
5.7921e-53
5.76527e-53
5.86133e-53
5.83375e-53
5.72285e-53
5.76823e-53
5.90747e-53
5.80435e-53
5.88139e-53
5.8462e-53
5.9001e-53
5.77406e-53
5.92039e-53
5.77217e-53
5.82361e-53
5.79173e-53
5.6418e-53
1.37124e-53
1.37333e-53
1.38489e-53
1.36442e-53
1.36174e-53
1.37104e-53
1.37236e-53
1.35143e-53
1.38582e-53
1.37823e-53
1.38067e-53
1.37848e-53
1.37116e-53
1.37218e-53
1.35456e-53
1.36129e-53
1.36437e-53
1.35931e-53
1.36279e-53
1.36356e-53
2.64321e-53
2.65435e-53
2.68195e-53
2.63335e-53
2.62447e-53
2.6253e-53
2.6423e-53
2.61197e-53
2.67913e-53
2.67217e-53
2.67804e-53
2.65534e-53
2.65713e-53
2.63564e-53
2.6177e-53
2.62906e-53
2.6035e-53
2.61614e-53
2.63049e-53
2.6208e-53
2.77969e-53
2.79176e-53
2.81076e-53
2.7611e-53
2.7701e-53
2.74581e-53
2.79185e-53
2.76878e-53
2.77976e-53
2.83042e-53
2.79765e-53
2.75791e-53
2.80798e-53
2.79074e-53
2.7787e-53
2.79663e-53
2.72233e-53
2.76531e-53
2.75341e-53
2.74811e-53
3.38771e-53
3.39836e-53
3.41446e-53
3.42046e-53
3.42783e-53
3.4574e-53
3.47329e-53
3.44323e-53
3.4288e-53
3.38832e-53
3.38908e-53
3.39828e-53
3.42946e-53
3.43731e-53
3.40139e-53
3.41723e-53
3.41651e-53
3.41157e-53
3.38113e-53
3.39813e-53
3.521e-53
3.49442e-53
3.51034e-53
3.56105e-53
3.54762e-53
3.58176e-53
3.5205e-53
3.59329e-53
3.49595e-53
3.47331e-53
3.46993e-53
3.50371e-53
3.49767e-53
3.46577e-53
3.45859e-53
3.4891e-53
3.44849e-53
3.50377e-53
3.48716e-53
3.52179e-53
3.74435e-53
3.72931e-53
3.778e-53
3.73397e-53
3.73885e-53
3.7982e-53
3.7603e-53
3.82595e-53
3.75216e-53
3.80616e-53
3.77311e-53
3.7855e-53
3.7885e-53
3.8241e-53
3.78118e-53
3.83769e-53
3.76608e-53
3.7252e-53
3.76543e-53
3.73017e-53
3.61571e-53
3.59053e-53
3.56518e-53
3.57885e-53
3.60641e-53
3.63191e-53
3.62023e-53
3.61055e-53
3.56317e-53
3.57106e-53
3.53288e-53
3.6113e-53
3.6261e-53
3.64547e-53
3.65057e-53
3.62233e-53
3.61616e-53
3.63157e-53
3.6029e-53
3.60699e-53
3.4559e-53
3.51369e-53
3.45997e-53
3.53668e-53
3.44234e-53
3.50682e-53
3.4564e-53
3.50724e-53
3.47391e-53
3.5057e-53
3.47668e-53
3.55485e-53
3.48238e-53
3.55994e-53
3.48776e-53
3.49967e-53
3.52189e-53
3.4495e-53
3.5303e-53
3.52728e-53
3.07677e-53
3.15012e-53
3.13828e-53
3.1023e-53
3.08519e-53
3.16953e-53
3.11801e-53
3.13863e-53
3.12349e-53
3.08094e-53
3.10553e-53
3.15367e-53
3.10807e-53
3.18646e-53
3.1127e-53
3.15332e-53
3.15306e-53
3.13486e-53
3.15828e-53
3.17557e-53
3.12397e-53
3.12618e-53
3.13942e-53
3.1608e-53
3.15773e-53
3.15861e-53
3.10224e-53
3.17872e-53
3.18804e-53
3.12752e-53
3.17403e-53
3.19755e-53
3.10619e-53
3.20398e-53
3.19765e-53
3.23815e-53
3.17775e-53
3.18457e-53
3.15597e-53
3.20669e-53
1.85687e-53
1.87383e-53
1.87535e-53
1.8547e-53
1.86663e-53
1.86361e-53
1.86488e-53
1.87197e-53
1.84922e-53
1.88339e-53
1.84465e-53
1.88359e-53
1.84971e-53
1.90299e-53
1.85444e-53
1.85764e-53
1.85708e-53
1.89104e-53
1.86744e-53
1.90083e-53
2.35948e-65
2.3553e-65
2.37067e-65
2.34625e-65
2.33895e-65
2.3774e-65
2.36604e-65
2.31869e-65
2.33567e-65
2.39672e-65
2.35168e-65
2.38843e-65
2.36716e-65
2.39447e-65
2.33907e-65
2.40526e-65
2.33519e-65
2.35976e-65
2.34658e-65
2.28569e-65
7.22753e-63
7.2186e-63
7.26477e-63
7.19088e-63
7.16685e-63
7.28524e-63
7.25026e-63
7.10598e-63
7.15798e-63
7.34429e-63
7.20691e-63
7.31784e-63
7.25545e-63
7.33726e-63
7.16894e-63
7.36986e-63
7.15806e-63
7.23242e-63
7.19153e-63
7.00334e-63
1.10334e-60
1.10256e-60
1.10947e-60
1.09832e-60
1.09441e-60
1.11257e-60
1.10721e-60
1.0853e-60
1.09324e-60
1.12157e-60
1.10069e-60
1.11737e-60
1.10827e-60
1.12048e-60
1.095e-60
1.12538e-60
1.09349e-60
1.1047e-60
1.09839e-60
1.06942e-60
1.00077e-58
1.00059e-58
1.00672e-58
9.9672e-59
9.92949e-59
1.00949e-58
1.00461e-58
9.84855e-59
9.92067e-59
1.01764e-58
9.98795e-59
1.01368e-58
1.00582e-58
1.01661e-58
9.93704e-59
1.02098e-58
9.92476e-59
1.0025e-58
9.96729e-59
9.7025e-59
6.32951e-57
6.33165e-57
6.3695e-57
6.30692e-57
6.28168e-57
6.38676e-57
6.35582e-57
6.2316e-57
6.27734e-57
6.43818e-57
6.31968e-57
6.41218e-57
6.36502e-57
6.43149e-57
6.28794e-57
6.4585e-57
6.28111e-57
6.34355e-57
6.30684e-57
6.13829e-57
2.79969e-55
2.80199e-55
2.81829e-55
2.79089e-55
2.77912e-55
2.82576e-55
2.81206e-55
2.75745e-55
2.77778e-55
2.84844e-55
2.79636e-55
2.83651e-55
2.81678e-55
2.84535e-55
2.78247e-55
2.85698e-55
2.77987e-55
2.807e-55
2.79074e-55
2.71587e-55
8.57756e-54
8.58865e-54
8.63709e-54
8.55396e-54
8.51604e-54
8.65934e-54
8.61742e-54
8.45128e-54
8.51412e-54
8.72861e-54
8.57048e-54
8.69075e-54
8.63401e-54
8.71874e-54
8.52819e-54
8.75309e-54
8.52169e-54
8.60301e-54
8.55337e-54
8.32362e-54
1.69822e-52
1.70104e-52
1.7103e-52
1.69397e-52
1.68612e-52
1.7145e-52
1.70625e-52
1.67362e-52
1.6863e-52
1.72814e-52
1.69725e-52
1.72041e-52
1.70991e-52
1.72607e-52
1.68883e-52
1.73251e-52
1.68789e-52
1.70351e-52
1.69383e-52
1.64866e-52
9.88104e-52
9.90303e-52
9.9553e-52
9.86075e-52
9.81324e-52
9.97753e-52
9.93055e-52
9.74288e-52
9.81994e-52
1.00565e-51
9.88146e-52
1.00104e-51
9.95436e-52
1.00434e-51
9.83069e-52
1.00772e-51
9.8279e-52
9.9143e-52
9.85971e-52
9.59995e-52
2.24975e-52
2.25329e-52
2.27247e-52
2.23871e-52
2.23418e-52
2.24907e-52
2.25135e-52
2.21746e-52
2.27404e-52
2.26145e-52
2.26556e-52
2.26142e-52
2.25004e-52
2.25111e-52
2.22277e-52
2.23305e-52
2.23823e-52
2.23006e-52
2.23599e-52
2.23714e-52
4.40056e-52
4.41888e-52
4.46492e-52
4.38375e-52
4.36944e-52
4.37031e-52
4.39861e-52
4.34876e-52
4.45985e-52
4.44894e-52
4.45813e-52
4.41998e-52
4.42378e-52
4.38814e-52
4.35852e-52
4.37698e-52
4.33423e-52
4.35509e-52
4.37917e-52
4.36223e-52
4.60384e-52
4.62345e-52
4.65519e-52
4.57338e-52
4.58844e-52
4.5492e-52
4.62487e-52
4.5872e-52
4.60365e-52
4.68702e-52
4.63279e-52
4.56747e-52
4.65036e-52
4.62264e-52
4.60269e-52
4.63225e-52
4.51077e-52
4.58003e-52
4.56132e-52
4.55214e-52
5.63217e-52
5.64847e-52
5.67591e-52
5.68668e-52
5.69861e-52
5.74791e-52
5.77199e-52
5.72443e-52
5.6996e-52
5.63232e-52
5.63353e-52
5.64916e-52
5.70049e-52
5.7124e-52
5.65453e-52
5.67988e-52
5.67817e-52
5.67141e-52
5.62088e-52
5.64928e-52
5.8364e-52
5.7919e-52
5.81843e-52
5.90128e-52
5.87965e-52
5.93643e-52
5.83475e-52
5.95551e-52
5.79377e-52
5.75819e-52
5.75182e-52
5.80774e-52
5.79746e-52
5.74504e-52
5.73395e-52
5.78378e-52
5.71669e-52
5.80734e-52
5.78124e-52
5.83673e-52
6.23144e-52
6.20656e-52
6.28665e-52
6.21301e-52
6.2228e-52
6.32039e-52
6.25746e-52
6.36593e-52
6.24491e-52
6.33429e-52
6.27878e-52
6.29911e-52
6.30482e-52
6.3647e-52
6.29313e-52
6.38559e-52
6.26796e-52
6.19981e-52
6.26673e-52
6.20718e-52
6.00292e-52
5.96283e-52
5.91956e-52
5.94298e-52
5.98755e-52
6.02974e-52
6.0104e-52
5.99475e-52
5.91762e-52
5.92965e-52
5.86653e-52
5.99593e-52
6.02088e-52
6.05185e-52
6.06117e-52
6.01326e-52
6.00441e-52
6.02984e-52
5.98306e-52
5.98967e-52
5.7665e-52
5.86295e-52
5.77369e-52
5.89994e-52
5.74306e-52
5.84964e-52
5.76638e-52
5.85073e-52
5.79611e-52
5.8493e-52
5.80048e-52
5.93097e-52
5.81007e-52
5.9386e-52
5.81973e-52
5.83771e-52
5.87607e-52
5.75583e-52
5.88978e-52
5.88484e-52
5.12925e-52
5.24985e-52
5.23102e-52
5.17103e-52
5.14321e-52
5.28174e-52
5.19645e-52
5.23075e-52
5.20624e-52
5.1352e-52
5.17629e-52
5.25571e-52
5.18058e-52
5.30973e-52
5.18871e-52
5.2555e-52
5.25467e-52
5.22518e-52
5.2629e-52
5.29214e-52
5.24872e-52
5.25218e-52
5.27522e-52
5.31017e-52
5.30469e-52
5.30584e-52
5.21189e-52
5.3408e-52
5.35507e-52
5.25459e-52
5.3323e-52
5.37179e-52
5.21924e-52
5.38215e-52
5.37231e-52
5.43886e-52
5.3392e-52
5.34908e-52
5.3016e-52
5.38579e-52
3.10006e-52
3.12841e-52
3.13131e-52
3.09661e-52
3.11613e-52
3.11115e-52
3.11317e-52
3.12531e-52
3.08671e-52
3.1439e-52
3.0795e-52
3.14406e-52
3.08817e-52
3.17651e-52
3.09598e-52
3.10124e-52
3.10013e-52
3.15653e-52
3.1175e-52
3.17273e-52
4.56812e-64
4.56258e-64
4.59197e-64
4.54541e-64
4.53034e-64
4.60534e-64
4.58327e-64
4.49209e-64
4.52488e-64
4.64294e-64
4.55593e-64
4.6262e-64
4.58659e-64
4.63834e-64
4.53175e-64
4.6589e-64
4.52446e-64
4.57152e-64
4.54549e-64
4.4261e-64
1.37519e-61
1.3743e-61
1.38297e-61
1.36912e-61
1.36427e-61
1.38695e-61
1.38028e-61
1.35297e-61
1.36284e-61
1.39825e-61
1.37217e-61
1.393e-61
1.38162e-61
1.39683e-61
1.36502e-61
1.40294e-61
1.36302e-61
1.37701e-61
1.36909e-61
1.33279e-61
2.06372e-59
2.06352e-59
2.07627e-59
2.05572e-59
2.04798e-59
2.08218e-59
2.07213e-59
2.03137e-59
2.0462e-59
2.09911e-59
2.06015e-59
2.09093e-59
2.07465e-59
2.09694e-59
2.04962e-59
2.10597e-59
2.0469e-59
2.06763e-59
2.05563e-59
2.00067e-59
1.84385e-57
1.84468e-57
1.85582e-57
1.83765e-57
1.83033e-57
1.86102e-57
1.852e-57
1.81579e-57
1.82906e-57
1.8761e-57
1.84147e-57
1.86851e-57
1.8547e-57
1.87411e-57
1.8322e-57
1.88202e-57
1.83003e-57
1.84829e-57
1.83749e-57
1.78797e-57
1.14618e-55
1.14732e-55
1.15407e-55
1.14289e-55
1.13809e-55
1.15724e-55
1.15162e-55
1.12925e-55
1.13752e-55
1.16659e-55
1.14519e-55
1.1617e-55
1.15359e-55
1.16532e-55
1.13952e-55
1.17013e-55
1.13834e-55
1.14951e-55
1.14277e-55
1.11177e-55
4.98915e-54
4.99662e-54
5.0252e-54
4.97699e-54
4.95505e-54
5.03866e-54
5.01421e-54
4.9174e-54
4.95358e-54
5.07926e-54
4.98672e-54
5.0572e-54
5.02392e-54
5.07349e-54
4.96229e-54
5.09387e-54
4.95794e-54
5.00568e-54
4.97637e-54
4.84072e-54
1.50378e-52
1.50677e-52
1.51511e-52
1.50072e-52
1.49378e-52
1.51904e-52
1.51169e-52
1.48271e-52
1.49371e-52
1.53125e-52
1.5036e-52
1.52436e-52
1.51499e-52
1.52943e-52
1.49629e-52
1.53535e-52
1.49523e-52
1.50931e-52
1.50052e-52
1.45954e-52
2.92438e-51
2.93129e-51
2.94694e-51
2.91913e-51
2.90506e-51
2.95419e-51
2.93997e-51
2.88408e-51
2.90588e-51
2.97779e-51
2.92475e-51
2.964e-51
2.94706e-51
2.97407e-51
2.91046e-51
2.98496e-51
2.90899e-51
2.93555e-51
2.91875e-51
2.83957e-51
1.67521e-50
1.68014e-50
1.68881e-50
1.67295e-50
1.66458e-50
1.69258e-50
1.68461e-50
1.65296e-50
1.66601e-50
1.70604e-50
1.67644e-50
1.69795e-50
1.68909e-50
1.70371e-50
1.66797e-50
1.70935e-50
1.66757e-50
1.68202e-50
1.67272e-50
1.62783e-50
3.6756e-51
3.68152e-51
3.71324e-51
3.65776e-51
3.65014e-51
3.67385e-51
3.6778e-51
3.62316e-51
3.71586e-51
3.69508e-51
3.70195e-51
3.69426e-51
3.6767e-51
3.67748e-51
3.6321e-51
3.64766e-51
3.6563e-51
3.64318e-51
3.65326e-51
3.65493e-51
7.29898e-51
7.32906e-51
7.40557e-51
7.27045e-51
7.24755e-51
7.24815e-51
7.29509e-51
7.21347e-51
7.39649e-51
7.37953e-51
7.39379e-51
7.32991e-51
7.33761e-51
7.27873e-51
7.23002e-51
7.2599e-51
7.18871e-51
7.22293e-51
7.26324e-51
7.23376e-51
7.59708e-51
7.6288e-51
7.68164e-51
7.54743e-51
7.5725e-51
7.50944e-51
7.63331e-51
7.57202e-51
7.59634e-51
7.73294e-51
7.64358e-51
7.5366e-51
7.67333e-51
7.62896e-51
7.59604e-51
7.64459e-51
7.44677e-51
7.55786e-51
7.52864e-51
7.51281e-51
9.33059e-51
9.35526e-51
9.40184e-51
9.42096e-51
9.44022e-51
9.52209e-51
9.55812e-51
9.48334e-51
9.4408e-51
9.32941e-51
9.33133e-51
9.35776e-51
9.44199e-51
9.45972e-51
9.36696e-51
9.40734e-51
9.40361e-51
9.39487e-51
9.31135e-51
9.35853e-51
9.64293e-51
9.56865e-51
9.61275e-51
9.74764e-51
9.71298e-51
9.80711e-51
9.63877e-51
9.83857e-51
9.57063e-51
9.51508e-51
9.50332e-51
9.59553e-51
9.57813e-51
9.49225e-51
9.47533e-51
9.55639e-51
9.44593e-51
9.59402e-51
9.55339e-51
9.64186e-51
1.03376e-50
1.02967e-50
1.0428e-50
1.03051e-50
1.03241e-50
1.0484e-50
1.038e-50
1.05585e-50
1.03609e-50
1.05083e-50
1.04154e-50
1.04486e-50
1.04593e-50
1.05596e-50
1.04407e-50
1.05914e-50
1.03989e-50
1.02857e-50
1.03966e-50
1.02963e-50
9.93799e-51
9.87454e-51
9.80093e-51
9.84094e-51
9.91268e-51
9.98225e-51
9.95038e-51
9.92513e-51
9.80006e-51
9.81813e-51
9.71412e-51
9.92702e-51
9.96897e-51
1.00182e-50
1.00351e-50
9.95403e-51
9.94177e-51
9.98356e-51
9.90753e-51
9.91815e-51
9.59548e-51
9.75605e-51
9.60819e-51
9.81536e-51
9.55513e-51
9.73078e-51
9.59371e-51
9.73327e-51
9.64405e-51
9.73281e-51
9.65098e-51
9.86816e-51
9.66695e-51
9.8794e-51
9.68418e-51
9.71092e-51
9.77695e-51
9.57768e-51
9.79923e-51
9.79115e-51
8.53092e-51
8.72868e-51
8.69891e-51
8.59901e-51
8.55406e-51
8.78099e-51
8.6402e-51
8.69698e-51
8.65745e-51
8.53907e-51
8.60764e-51
8.73829e-51
8.61494e-51
8.82711e-51
8.62912e-51
8.73862e-51
8.73658e-51
8.68903e-51
8.74947e-51
8.79875e-51
8.80005e-51
8.80535e-51
8.84535e-51
8.90232e-51
8.89262e-51
8.89392e-51
8.73772e-51
8.95455e-51
8.97612e-51
8.80967e-51
8.93928e-51
9.00542e-51
8.75128e-51
9.02205e-51
9.00693e-51
9.11593e-51
8.95193e-51
8.96583e-51
8.88716e-51
9.02662e-51
5.16975e-51
5.21708e-51
5.22254e-51
5.16428e-51
5.19618e-51
5.18795e-51
5.1912e-51
5.21196e-51
5.14652e-51
5.24217e-51
5.13521e-51
5.24212e-51
5.15009e-51
5.29636e-51
5.16289e-51
5.17153e-51
5.16939e-51
5.26299e-51
5.19852e-51
5.28975e-51
8.83066e-63
8.82518e-63
8.88128e-63
8.79262e-63
8.76172e-63
8.90773e-63
8.86494e-63
8.68962e-63
8.75289e-63
8.9808e-63
8.81299e-63
8.94707e-63
8.87363e-63
8.97139e-63
8.76672e-63
9.01051e-63
8.75303e-63
8.84298e-63
8.79173e-63
8.55779e-63
2.61467e-60
2.61458e-60
2.63085e-60
2.6049e-60
2.59516e-60
2.63859e-60
2.62587e-60
2.57423e-60
2.59296e-60
2.66017e-60
2.61071e-60
2.64979e-60
2.62908e-60
2.65734e-60
2.59726e-60
2.66876e-60
2.59358e-60
2.61988e-60
2.60456e-60
2.53456e-60
3.85608e-58
3.85818e-58
3.88166e-58
3.84381e-58
3.8286e-58
3.89291e-58
3.87409e-58
3.79834e-58