/*--------------------------------*- C++ -*----------------------------------*\
| =========                 |                                                 |
| \\      /  F ield         | OpenFOAM: The Open Source CFD Toolbox           |
|  \\    /   O peration     | Version:  2212                                  |
|   \\  /    A nd           | Website:  www.openfoam.com                      |
|    \\/     M anipulation  |                                                 |
\*---------------------------------------------------------------------------*/
FoamFile
{
    version     2.0;
    format      ascii;
    arch        "LSB;label=32;scalar=64";
    class       volScalarField;
    location    "0.0068";
    object      nut;
}
// * * * * * * * * * * * * * * * * * * * * * * * * * * * * * * * * * * * * * //

dimensions      [0 2 -1 0 0 0 0];

internalField   nonuniform List<scalar> 
31661
(
0.221096
0.28305
0.283354
0.283201
0.28315
0.283468
0.283307
0.283249
0.283582
0.283415
0.0279295
0.285033
0.0540323
0.316987
0.333999
0.310505
0.317451
0.282484
0.272056
0.314534
0.195413
0.199346
0.0293525
0.245092
0.284475
0.189308
0.017986
0.0337659
0.285195
0.286171
0.260119
0.0499611
0.0621409
0.25071
0.283349
0.289823
0.196883
0.29835
0.122558
0.0715574
0.154206
0.282626
0.322877
0.290788
0.290869
0.283761
0.290623
0.220555
0.196324
0.294216
0.185561
0.217416
0.282161
0.214154
0.151247
0.281872
0.278657
0.280998
0.27791
0.277998
0.283029
0.282225
0.282102
0.281578
0.17605
0.119152
0.0430553
0.278062
0.278213
0.278357
0.285528
0.27857
0.278703
0.278831
0.278956
0.279077
0.279194
0.279308
0.279418
0.279525
0.279629
0.279728
0.279824
0.279916
0.279923
0.279832
0.279737
0.279638
0.279535
0.279429
0.27932
0.279208
0.279093
0.278975
0.278855
0.278734
0.278615
0.278493
0.278355
0.278217
0.278078
0.277946
0.277809
0.277678
0.277656
0.277525
0.277503
0.277364
0.277345
0.2772
0.277183
0.277032
0.277018
0.276861
0.27685
0.276688
0.276678
0.276511
0.276503
0.276332
0.276326
0.27615
0.276145
0.275966
0.275961
0.275779
0.275775
0.275589
0.275587
0.275398
0.275396
0.275204
0.275202
0.275009
0.275007
0.274812
0.27481
0.274613
0.274612
0.274413
0.274411
0.274211
0.274209
0.274008
0.274007
0.273805
0.273803
0.2736
0.273598
0.273395
0.273393
0.27319
0.273188
0.272984
0.272982
0.272779
0.272777
0.272574
0.272572
0.272369
0.272367
0.272165
0.272163
0.271962
0.27196
0.27176
0.271758
0.271559
0.271557
0.271358
0.271359
0.271361
0.271561
0.271762
0.271965
0.272168
0.272372
0.272576
0.272782
0.272987
0.273192
0.273398
0.273603
0.273807
0.274011
0.274214
0.274416
0.274616
0.274815
0.275012
0.275208
0.275401
0.275593
0.275783
0.27597
0.276156
0.276339
0.276519
0.276697
0.276872
0.277045
0.277215
0.277384
0.27755
0.277715
0.277878
0.278049
0.278214
0.278371
0.278521
0.27867
0.278806
0.278937
0.279061
0.27918
0.279295
0.279407
0.28001
0.280004
0.279515
0.279619
0.27972
0.279816
0.27991
0.280088
0.280094
0.280102
0.280018
0.279931
0.27984
0.279746
0.279647
0.279545
0.27944
0.279332
0.279221
0.279107
0.27899
0.278871
0.27875
0.278626
0.278498
0.278364
0.278227
0.278088
0.277949
0.277806
0.277655
0.277502
0.277344
0.277183
0.277018
0.27685
0.276679
0.276504
0.276326
0.276145
0.275962
0.275776
0.275587
0.275396
0.275203
0.275007
0.27481
0.274612
0.274411
0.27421
0.274007
0.273803
0.273598
0.273393
0.273187
0.272982
0.272776
0.272571
0.272367
0.272163
0.27196
0.271758
0.271558
0.271358
0.27116
0.27116
0.271161
0.271163
0.271166
0.271364
0.271564
0.271765
0.271968
0.272171
0.272375
0.272579
0.272784
0.27299
0.273195
0.273401
0.273605
0.27381
0.274014
0.274216
0.274418
0.274619
0.274818
0.275015
0.275211
0.275405
0.275597
0.275787
0.275974
0.27616
0.276343
0.276524
0.276703
0.276879
0.277053
0.277224
0.277392
0.277557
0.27772
0.277881
0.27804
0.278197
0.278351
0.278502
0.278648
0.278786
0.278918
0.279045
0.279167
0.279286
0.2794
0.27951
0.279615
0.28
0.279717
0.279816
0.27991
0.280182
0.280174
0.280087
0.280169
0.280259
0.28027
0.280193
0.280112
0.280028
0.279941
0.27985
0.279755
0.279657
0.279556
0.279451
0.279343
0.279232
0.279119
0.279002
0.278882
0.27876
0.278634
0.278504
0.278371
0.278235
0.278096
0.277953
0.277807
0.277656
0.277502
0.277344
0.277183
0.277019
0.27685
0.276679
0.276505
0.276327
0.276146
0.275963
0.275777
0.275588
0.275397
0.275203
0.275008
0.274811
0.274612
0.274412
0.27421
0.274007
0.273803
0.273598
0.273393
0.273188
0.272982
0.272776
0.272572
0.272367
0.272164
0.271961
0.27176
0.271559
0.27136
0.271163
0.270967
0.270964
0.270963
0.270964
0.270966
0.270969
0.270973
0.27117
0.271368
0.271568
0.271769
0.271971
0.272174
0.272378
0.272583
0.272788
0.272993
0.273198
0.273404
0.273608
0.273813
0.274016
0.274219
0.274421
0.274622
0.274821
0.275018
0.275214
0.275408
0.2756
0.27579
0.275978
0.276164
0.276347
0.276528
0.276706
0.276882
0.277056
0.277226
0.277394
0.27756
0.277723
0.277883
0.278041
0.278196
0.278348
0.278494
0.278637
0.278776
0.278909
0.279038
0.279163
0.279282
0.279397
0.279507
0.279614
0.279717
0.28
0.279816
0.27991
0.280252
0.280344
0.280334
0.280087
0.280169
0.280248
0.280416
0.280431
0.280359
0.280284
0.280206
0.280125
0.28004
0.279952
0.279861
0.279766
0.279668
0.279567
0.279462
0.279354
0.279243
0.279129
0.279012
0.278892
0.278769
0.278642
0.278511
0.278378
0.278241
0.278101
0.277957
0.277809
0.277658
0.277503
0.277345
0.277184
0.277019
0.276851
0.27668
0.276505
0.276328
0.276147
0.275964
0.275778
0.275589
0.275398
0.275204
0.275009
0.274812
0.274613
0.274412
0.27421
0.274008
0.273804
0.273599
0.273394
0.273189
0.272984
0.272779
0.272574
0.27237
0.272167
0.271964
0.271763
0.271563
0.271364
0.271167
0.270972
0.270779
0.270774
0.270771
0.270769
0.270769
0.270771
0.270774
0.270778
0.270784
0.270979
0.271175
0.271373
0.271573
0.271774
0.271976
0.272178
0.272382
0.272587
0.272791
0.272997
0.273202
0.273407
0.273612
0.273816
0.27402
0.274223
0.274424
0.274625
0.274824
0.275022
0.275217
0.275411
0.275603
0.275793
0.275981
0.276166
0.27635
0.27653
0.276709
0.276884
0.277057
0.277228
0.277396
0.277562
0.277725
0.277885
0.278042
0.278197
0.278347
0.278493
0.278635
0.278772
0.278906
0.279034
0.279159
0.279278
0.279394
0.279506
0.279614
0.279718
0.279817
0.280001
0.279912
0.280326
0.280405
0.280089
0.2805
0.280485
0.28017
0.280248
0.280323
0.280566
0.280586
0.280518
0.280449
0.280376
0.2803
0.280221
0.280139
0.280054
0.279965
0.279874
0.279779
0.279681
0.279579
0.279474
0.279366
0.279255
0.279141
0.279023
0.278902
0.278778
0.27865
0.278519
0.278385
0.278247
0.278106
0.277962
0.277813
0.277661
0.277505
0.277347
0.277185
0.27702
0.276852
0.276681
0.276506
0.276329
0.276149
0.275965
0.275779
0.275591
0.275399
0.275206
0.27501
0.274813
0.274614
0.274414
0.274212
0.274009
0.273806
0.273601
0.273397
0.273192
0.272987
0.272782
0.272578
0.272374
0.272171
0.271969
0.271768
0.271568
0.27137
0.271173
0.270979
0.270786
0.270595
0.270588
0.270583
0.270579
0.270577
0.270576
0.270578
0.270581
0.270585
0.270591
0.270791
0.270985
0.271181
0.271379
0.271578
0.271779
0.271981
0.272183
0.272387
0.272591
0.272796
0.273001
0.273206
0.273411
0.273615
0.27382
0.274023
0.274226
0.274428
0.274628
0.274827
0.275025
0.27522
0.275414
0.275606
0.275796
0.275984
0.276169
0.276352
0.276533
0.276711
0.276887
0.27706
0.277231
0.277399
0.277565
0.277727
0.277887
0.278043
0.278197
0.278346
0.278491
0.278632
0.278769
0.278902
0.279031
0.279156
0.279277
0.279394
0.279507
0.279615
0.27972
0.279819
0.280004
0.279916
0.270598
0.28001
0.280398
0.280094
0.280474
0.280174
0.280551
0.280251
0.28065
0.28063
0.280324
0.280396
0.280712
0.280738
0.280675
0.280609
0.280541
0.28047
0.280395
0.280319
0.280239
0.280156
0.28007
0.279981
0.279889
0.279793
0.279694
0.279592
0.279487
0.279378
0.279266
0.279151
0.279033
0.278911
0.278786
0.278658
0.278526
0.278391
0.278253
0.278111
0.277966
0.277818
0.277665
0.277509
0.277351
0.277188
0.277023
0.276855
0.276683
0.276508
0.27633
0.27615
0.275967
0.275781
0.275592
0.275401
0.275208
0.275013
0.274815
0.274617
0.274416
0.274215
0.274012
0.273809
0.273605
0.2734
0.273196
0.272991
0.272786
0.272582
0.272379
0.272176
0.271974
0.271773
0.271574
0.271376
0.27118
0.270986
0.270794
0.270604
0.270415
0.270407
0.270399
0.270393
0.270389
0.270387
0.270386
0.270387
0.27039
0.270394
0.2704
0.270407
0.270606
0.270799
0.270993
0.271188
0.271386
0.271585
0.271785
0.271986
0.272188
0.272392
0.272596
0.2728
0.273005
0.27321
0.273414
0.273619
0.273823
0.274027
0.274229
0.274431
0.274631
0.27483
0.275028
0.275223
0.275417
0.275609
0.275799
0.275987
0.276172
0.276355
0.276536
0.276714
0.27689
0.277063
0.277234
0.277402
0.277567
0.277729
0.277888
0.278044
0.278196
0.278345
0.278489
0.278629
0.278767
0.2789
0.27903
0.279156
0.279277
0.279395
0.279508
0.279618
0.279722
0.279825
0.279923
0.280019
0.270416
0.280111
0.280101
0.280467
0.28018
0.28054
0.280256
0.280615
0.280328
0.280692
0.280397
0.280799
0.280772
0.280465
0.270229
0.27022
0.270212
0.270206
0.270202
0.270199
0.270198
0.270198
0.270201
0.270205
0.270211
0.270219
0.270228
0.270426
0.270616
0.270808
0.271001
0.271196
0.271393
0.271591
0.271791
0.271992
0.272194
0.272397
0.2726
0.272805
0.273009
0.273214
0.273418
0.273623
0.273827
0.27403
0.274233
0.274434
0.274634
0.274833
0.275031
0.275226
0.27542
0.275612
0.275802
0.27599
0.276175
0.276358
0.276539
0.276718
0.276893
0.277066
0.277237
0.277404
0.277569
0.277731
0.277889
0.278044
0.278196
0.278344
0.278489
0.278629
0.278766
0.2789
0.27903
0.279156
0.279278
0.279396
0.279511
0.279621
0.279728
0.279831
0.279932
0.28003
0.280124
0.2802
0.280215
0.270238
0.280857
0.28089
0.280831
0.280768
0.280703
0.280636
0.280566
0.280494
0.280419
0.280341
0.28026
0.280176
0.280089
0.279999
0.279905
0.279809
0.279709
0.279606
0.2795
0.27939
0.279278
0.279162
0.279043
0.278921
0.278795
0.278667
0.278534
0.278399
0.27826
0.278118
0.277972
0.277823
0.277671
0.277515
0.277356
0.277193
0.277027
0.276859
0.276687
0.276512
0.276334
0.276153
0.27597
0.275784
0.275595
0.275404
0.275211
0.275016
0.274819
0.27462
0.27442
0.274219
0.274016
0.273813
0.273609
0.273405
0.2732
0.272996
0.272791
0.272588
0.272384
0.272182
0.27198
0.27178
0.271581
0.271384
0.271189
0.270995
0.270803
0.270613
0.270425
0.270239
0.280189
0.280534
0.280303
0.280287
0.280263
0.280604
0.280335
0.280676
0.280402
0.280751
0.280467
0.28083
0.280532
0.280948
0.280914
0.27025
0.270437
0.270626
0.270817
0.27101
0.271205
0.271401
0.271599
0.271798
0.271999
0.2722
0.272402
0.272606
0.272809
0.273014
0.273218
0.273422
0.273626
0.27383
0.274033
0.274236
0.274437
0.274637
0.274836
0.275034
0.275229
0.275423
0.275615
0.275805
0.275993
0.276179
0.276362
0.276542
0.276721
0.276896
0.277069
0.277239
0.277407
0.277571
0.277732
0.27789
0.278045
0.278196
0.278344
0.278488
0.278629
0.278766
0.2789
0.27903
0.279157
0.27928
0.279399
0.279515
0.279626
0.279735
0.279841
0.279943
0.280042
0.280139
0.280232
0.280322
0.280988
0.280928
0.280867
0.280802
0.280736
0.280667
0.280596
0.280522
0.280445
0.280366
0.280284
0.280198
0.28011
0.280018
0.279924
0.279826
0.279725
0.279621
0.279514
0.279404
0.279291
0.279174
0.279055
0.278932
0.278806
0.278677
0.278544
0.278408
0.278268
0.278125
0.27798
0.27783
0.277677
0.277521
0.277362
0.277199
0.277033
0.276864
0.276692
0.276516
0.276338
0.276157
0.275974
0.275788
0.275599
0.275408
0.275215
0.27502
0.274823
0.274624
0.274424
0.274223
0.274021
0.273818
0.273614
0.27341
0.273206
0.273001
0.272797
0.272594
0.272391
0.272189
0.271988
0.271788
0.27159
0.271393
0.271198
0.271004
0.270813
0.270624
0.270436
0.27025
0.270067
0.270055
0.270045
0.270035
0.270028
0.270021
0.270016
0.270013
0.270012
0.270012
0.270014
0.270018
0.270024
0.270032
0.270042
0.270053
0.281045
0.270065
0.280388
0.280409
0.281004
0.280273
0.280598
0.269883
0.26987
0.269858
0.269848
0.26984
0.269834
0.26983
0.269828
0.269828
0.26983
0.269833
0.269838
0.269845
0.269853
0.269862
0.269873
0.269885
0.280369
0.280344
0.280665
0.2811
0.28115
0.281092
0.281033
0.280971
0.280907
0.280841
0.280773
0.280702
0.280629
0.280553
0.280475
0.280394
0.28031
0.280223
0.280133
0.28004
0.279944
0.279846
0.279744
0.279639
0.279531
0.27942
0.279306
0.279189
0.279069
0.278945
0.278818
0.278688
0.278555
0.278418
0.278278
0.278135
0.277988
0.277838
0.277685
0.277528
0.277369
0.277205
0.277039
0.27687
0.276697
0.276522
0.276343
0.276162
0.275979
0.275792
0.275603
0.275412
0.275219
0.275024
0.274827
0.274629
0.274429
0.274228
0.274026
0.273823
0.273619
0.273415
0.273211
0.273007
0.272803
0.2726
0.272398
0.272196
0.271996
0.271796
0.271599
0.271402
0.271208
0.271015
0.270824
0.270635
0.270448
0.270262
0.270079
0.269898
0.280492
0.280469
0.28041
0.280735
0.280473
0.280808
0.280535
0.280886
0.280597
0.280968
0.281057
0.281205
0.281154
0.281495
0.281373
0.269897
0.270079
0.270263
0.270449
0.270637
0.270828
0.27102
0.271214
0.27141
0.271607
0.271805
0.272005
0.272206
0.272408
0.272611
0.272814
0.273018
0.273222
0.273426
0.27363
0.273834
0.274036
0.274239
0.27444
0.27464
0.274839
0.275036
0.275232
0.275426
0.275618
0.275808
0.275996
0.276181
0.276364
0.276545
0.276723
0.276899
0.277072
0.277242
0.277408
0.277572
0.277733
0.277891
0.278046
0.278197
0.278344
0.278488
0.278629
0.278767
0.278901
0.279032
0.279159
0.279283
0.279404
0.27952
0.279634
0.279745
0.279852
0.279957
0.280058
0.280157
0.280252
0.280343
0.280432
0.280518
0.269702
0.280573
0.280601
0.243897
0.269717
0.280355
0.28066
0.269688
0.269676
0.269666
0.269658
0.269652
0.269648
0.269646
0.269646
0.269648
0.269651
0.269657
0.269664
0.269672
0.269682
0.269693
0.269706
0.269719
0.280449
0.280421
0.280724
0.281442
0.281263
0.281205
0.281145
0.281082
0.281018
0.280952
0.280884
0.280813
0.280741
0.280665
0.280588
0.280507
0.280424
0.280338
0.28025
0.280159
0.280065
0.279968
0.279868
0.279765
0.279659
0.27955
0.279438
0.279323
0.279205
0.279084
0.27896
0.278832
0.278701
0.278567
0.27843
0.278289
0.278145
0.277998
0.277847
0.277694
0.277537
0.277376
0.277213
0.277046
0.276876
0.276704
0.276528
0.276349
0.276168
0.275984
0.275797
0.275608
0.275417
0.275224
0.275029
0.274832
0.274634
0.274434
0.274233
0.274031
0.273828
0.273625
0.273421
0.273217
0.273014
0.27281
0.272607
0.272405
0.272204
0.272004
0.271805
0.271608
0.271412
0.271218
0.271026
0.270835
0.270647
0.27046
0.270275
0.270093
0.269912
0.269733
0.280548
0.280482
0.280792
0.28068
0.28065
0.280541
0.280864
0.2806
0.28094
0.280658
0.281021
0.28111
0.281206
0.281424
0.269524
0.269539
0.281696
0.281754
0.269732
0.269911
0.270093
0.270276
0.270462
0.270649
0.270839
0.27103
0.271224
0.271419
0.271615
0.271813
0.272012
0.272213
0.272414
0.272617
0.272819
0.273023
0.273226
0.27343
0.273634
0.273837
0.27404
0.274242
0.274443
0.274643
0.274842
0.275039
0.275235
0.275429
0.275621
0.27581
0.275998
0.276184
0.276367
0.276547
0.276725
0.276901
0.277073
0.277243
0.27741
0.277573
0.277734
0.277892
0.278046
0.278198
0.278345
0.278489
0.278631
0.278769
0.278904
0.279035
0.279164
0.279288
0.279409
0.279528
0.279644
0.279756
0.279866
0.279973
0.280077
0.280177
0.280274
0.280368
0.280459
0.280547
0.280632
0.280714
0.281694
0.281539
0.280757
0.280793
0.281602
0.280433
0.280719
0.26951
0.269498
0.269487
0.269479
0.269472
0.269468
0.269466
0.269466
0.269468
0.269472
0.269477
0.269485
0.269493
0.269504
0.269515
0.269528
0.269542
0.269557
0.280526
0.280494
0.280781
0.283534
0.281385
0.281326
0.281265
0.281202
0.281137
0.28107
0.281001
0.280931
0.280858
0.280782
0.280705
0.280625
0.280542
0.280458
0.28037
0.28028
0.280187
0.280092
0.279994
0.279892
0.279788
0.279681
0.279572
0.279459
0.279343
0.279223
0.279101
0.278976
0.278848
0.278716
0.278581
0.278443
0.278301
0.278157
0.278009
0.277858
0.277703
0.277546
0.277385
0.277221
0.277054
0.276884
0.27671
0.276534
0.276355
0.276174
0.275989
0.275803
0.275614
0.275422
0.275229
0.275034
0.274837
0.274638
0.274439
0.274238
0.274036
0.273833
0.27363
0.273427
0.273223
0.27302
0.272817
0.272615
0.272413
0.272212
0.272013
0.271815
0.271618
0.271422
0.271229
0.271037
0.270847
0.270659
0.270473
0.270289
0.270107
0.269926
0.269748
0.269572
0.280624
0.280551
0.280847
0.280725
0.280607
0.280917
0.28087
0.280832
0.280662
0.280992
0.280718
0.281072
0.28116
0.281257
0.269348
0.269363
0.281361
0.281471
0.205321
0.281585
0.269555
0.269571
0.269748
0.269926
0.270107
0.27029
0.270474
0.270661
0.27085
0.271041
0.271233
0.271428
0.271624
0.271821
0.27202
0.272219
0.27242
0.272622
0.272824
0.273027
0.273231
0.273434
0.273637
0.27384
0.274043
0.274244
0.274445
0.274645
0.274844
0.275041
0.275237
0.275431
0.275623
0.275813
0.276
0.276186
0.276369
0.276549
0.276727
0.276902
0.277074
0.277244
0.277411
0.277575
0.277736
0.277893
0.278048
0.278199
0.278347
0.278492
0.278634
0.278772
0.278907
0.27904
0.279169
0.279294
0.279417
0.279538
0.279656
0.279771
0.279883
0.279992
0.280097
0.2802
0.280299
0.280395
0.280489
0.280579
0.280666
0.280751
0.280833
0.280912
0.321521
0.280944
0.280989
0.193162
0.282547
0.280508
0.280776
0.269333
0.269321
0.26931
0.269301
0.269295
0.269291
0.269289
0.269289
0.269291
0.269295
0.2693
0.269308
0.269316
0.269327
0.269339
0.269352
0.269366
0.269382
0.269397
0.2806
0.280565
0.280836
0.282734
0.283654
0.281522
0.281461
0.281398
0.281332
0.281265
0.281197
0.281127
0.281055
0.280981
0.280906
0.280828
0.280748
0.280665
0.280581
0.280494
0.280405
0.280313
0.280219
0.280122
0.280022
0.279919
0.279814
0.279706
0.279595
0.279481
0.279363
0.279243
0.27912
0.278994
0.278864
0.278732
0.278596
0.278457
0.278315
0.278169
0.278021
0.277869
0.277714
0.277555
0.277394
0.277229
0.277062
0.276891
0.276717
0.276541
0.276362
0.27618
0.275995
0.275808
0.275619
0.275427
0.275234
0.275039
0.274842
0.274643
0.274443
0.274243
0.274041
0.273838
0.273636
0.273433
0.27323
0.273027
0.272824
0.272622
0.272421
0.272221
0.272022
0.271824
0.271628
0.271433
0.27124
0.271049
0.270859
0.270672
0.270486
0.270302
0.270121
0.269941
0.269764
0.269588
0.269414
0.280696
0.280618
0.2809
0.280797
0.280669
0.280968
0.280903
0.280722
0.281042
0.281064
0.281016
0.280775
0.281122
0.28121
0.269173
0.269189
0.281306
0.281409
0.281518
0.281635
0.269379
0.269396
0.269588
0.269764
0.269942
0.270122
0.270304
0.270488
0.270674
0.270862
0.271052
0.271243
0.271437
0.271632
0.271829
0.272027
0.272226
0.272426
0.272627
0.272829
0.273032
0.273235
0.273438
0.27364
0.273843
0.274045
0.274247
0.274448
0.274647
0.274846
0.275043
0.275239
0.275433
0.275625
0.275815
0.276002
0.276187
0.27637
0.276551
0.276729
0.276904
0.277076
0.277245
0.277412
0.277576
0.277737
0.277894
0.27805
0.278201
0.27835
0.278496
0.278637
0.278776
0.278912
0.279045
0.279175
0.279303
0.279429
0.279551
0.279671
0.279788
0.279902
0.280013
0.28012
0.280225
0.280327
0.280426
0.280521
0.280615
0.280705
0.280792
0.280877
0.280959
0.281039
0.281116
0.281828
0.281136
0.281191
0.281756
0.269413
0.28058
0.28083
0.269159
0.269146
0.269135
0.269126
0.26912
0.269115
0.269113
0.269113
0.269115
0.269119
0.269125
0.269132
0.269142
0.269152
0.269165
0.269178
0.269193
0.269208
0.269225
0.269242
0.280671
0.280632
0.280889
0.28184
0.281771
0.281687
0.281612
0.281543
0.281474
0.281404
0.281333
0.281261
0.281188
0.281112
0.281036
0.280957
0.280876
0.280794
0.280709
0.280623
0.280534
0.280443
0.280349
0.280253
0.280154
0.280052
0.279948
0.279842
0.279732
0.27962
0.279504
0.279386
0.279265
0.27914
0.279013
0.278882
0.278749
0.278612
0.278472
0.278329
0.278183
0.278033
0.277881
0.277725
0.277566
0.277404
0.277238
0.27707
0.276899
0.276725
0.276548
0.276368
0.276185
0.276001
0.275813
0.275624
0.275432
0.275238
0.275043
0.274846
0.274648
0.274448
0.274247
0.274046
0.273843
0.273641
0.273438
0.273235
0.273033
0.272831
0.272629
0.272429
0.272229
0.27203
0.271833
0.271637
0.271443
0.271251
0.27106
0.270871
0.270684
0.270499
0.270316
0.270135
0.269956
0.269779
0.269604
0.269431
0.269259
0.280767
0.280681
0.280951
0.280866
0.28073
0.281018
0.281913
0.280973
0.280779
0.281091
0.281085
0.28083
0.281171
0.269001
0.269017
0.281264
0.281206
0.281258
0.281354
0.281457
0.281567
0.281687
0.269206
0.269223
0.269241
0.269431
0.269604
0.26978
0.269957
0.270136
0.270318
0.270501
0.270686
0.270873
0.271062
0.271253
0.271446
0.271641
0.271836
0.272034
0.272232
0.272432
0.272633
0.272834
0.273036
0.273238
0.273441
0.273643
0.273846
0.274048
0.274249
0.27445
0.274649
0.274848
0.275045
0.275241
0.275435
0.275627
0.275816
0.276004
0.276189
0.276372
0.276552
0.27673
0.276905
0.277077
0.277247
0.277414
0.277578
0.277738
0.277897
0.278051
0.278203
0.278352
0.278498
0.278641
0.278781
0.278918
0.279053
0.279186
0.279316
0.279443
0.279567
0.279689
0.279808
0.279924
0.280037
0.280146
0.280254
0.280358
0.280459
0.280558
0.280653
0.280746
0.280836
0.280924
0.281009
0.281092
0.281173
0.281251
0.281327
0.281335
0.281818
0.281402
0.281898
0.269259
0.28065
0.280883
0.268986
0.268973
0.268962
0.268953
0.268946
0.268942
0.268939
0.268939
0.268941
0.268945
0.268951
0.268959
0.268968
0.268979
0.268992
0.269006
0.269021
0.269037
0.269054
0.269071
0.269089
0.28074
0.280697
0.28094
0.281929
0.281851
0.28177
0.281695
0.281622
0.281551
0.281478
0.281404
0.281328
0.281252
0.281173
0.281094
0.281012
0.280929
0.280844
0.280757
0.280668
0.280576
0.280483
0.280387
0.280289
0.280189
0.280085
0.27998
0.279871
0.27976
0.279646
0.279529
0.27941
0.279287
0.279162
0.279033
0.278902
0.278767
0.278629
0.278488
0.278344
0.278197
0.278046
0.277893
0.277736
0.277576
0.277413
0.277247
0.277078
0.276906
0.276732
0.276554
0.276374
0.276191
0.276006
0.275818
0.275628
0.275436
0.275242
0.275047
0.27485
0.274651
0.274452
0.274251
0.27405
0.273848
0.273645
0.273443
0.273241
0.273038
0.272837
0.272636
0.272436
0.272236
0.272038
0.271842
0.271647
0.271453
0.271261
0.271071
0.270883
0.270696
0.270512
0.27033
0.270149
0.269971
0.269795
0.26962
0.269447
0.269276
0.269107
0.280834
0.280742
0.281001
0.282006
0.281986
0.280933
0.280788
0.281067
0.281039
0.280834
0.281139
0.268831
0.268847
0.281152
0.280882
0.281274
0.281218
0.281306
0.281475
0.281405
0.281402
0.281506
0.281619
0.281744
0.269034
0.269052
0.26907
0.269088
0.269276
0.269448
0.269621
0.269795
0.269972
0.270151
0.270331
0.270514
0.270698
0.270885
0.271073
0.271263
0.271455
0.271649
0.271844
0.27204
0.272238
0.272437
0.272637
0.272838
0.27304
0.273241
0.273444
0.273646
0.273848
0.27405
0.274251
0.274451
0.274651
0.274849
0.275046
0.275242
0.275436
0.275628
0.275818
0.276005
0.276191
0.276374
0.276554
0.276732
0.276907
0.27708
0.277249
0.277416
0.27758
0.277741
0.2779
0.278054
0.278208
0.278357
0.278503
0.278648
0.278789
0.278929
0.279066
0.2792
0.279331
0.279461
0.279587
0.27971
0.279831
0.279949
0.280063
0.280176
0.280286
0.280392
0.280496
0.280597
0.280696
0.280792
0.280885
0.280975
0.281064
0.28115
0.281234
0.281316
0.281395
0.281474
0.28155
0.281546
0.281966
0.281625
0.281881
0.269107
0.280716
0.280934
0.268816
0.268802
0.268791
0.268781
0.268775
0.26877
0.268768
0.268767
0.268769
0.268773
0.268779
0.268787
0.268797
0.268808
0.268821
0.268835
0.268851
0.268867
0.268884
0.268902
0.26892
0.268939
0.280805
0.280759
0.280989
0.282106
0.282026
0.281945
0.281864
0.281785
0.281708
0.281632
0.281556
0.281478
0.2814
0.281319
0.281238
0.281155
0.281071
0.280985
0.280897
0.280807
0.280716
0.280622
0.280526
0.280428
0.280328
0.280225
0.28012
0.280013
0.279903
0.27979
0.279674
0.279556
0.279435
0.279311
0.279184
0.279054
0.278921
0.278785
0.278646
0.278504
0.278359
0.278211
0.278059
0.277905
0.277747
0.277586
0.277423
0.277256
0.277086
0.276914
0.276738
0.27656
0.276379
0.276196
0.27601
0.275822
0.275632
0.27544
0.275246
0.27505
0.274853
0.274654
0.274455
0.274254
0.274053
0.273851
0.273649
0.273447
0.273245
0.273043
0.272842
0.272641
0.272442
0.272243
0.272046
0.271849
0.271655
0.271462
0.271271
0.271081
0.270894
0.270708
0.270524
0.270342
0.270163
0.269985
0.269809
0.269635
0.269463
0.269293
0.269124
0.268956
0.282058
0.280898
0.280801
0.281049
0.282082
0.282186
0.280998
0.280843
0.281114
0.268662
0.268679
0.281103
0.280887
0.280933
0.281217
0.281186
0.281265
0.28134
0.281353
0.281472
0.28145
0.281698
0.281616
0.281556
0.281673
0.281802
0.268865
0.268882
0.268901
0.26892
0.268938
0.269124
0.269293
0.269464
0.269636
0.26981
0.269986
0.270164
0.270344
0.270526
0.27071
0.270895
0.271083
0.271272
0.271463
0.271656
0.271851
0.272046
0.272244
0.272442
0.272641
0.272842
0.273043
0.273244
0.273446
0.273648
0.273849
0.274051
0.274252
0.274452
0.274651
0.27485
0.275047
0.275243
0.275436
0.275629
0.275819
0.276007
0.276192
0.276376
0.276556
0.276735
0.27691
0.277083
0.277253
0.27742
0.277585
0.277746
0.277905
0.278061
0.278214
0.278364
0.278512
0.278658
0.278801
0.278942
0.27908
0.279215
0.279349
0.27948
0.279608
0.279734
0.279857
0.279976
0.280094
0.280208
0.28032
0.28043
0.280536
0.28064
0.280741
0.28084
0.280936
0.28103
0.281122
0.281211
0.281299
0.281385
0.281469
0.281551
0.281631
0.28171
0.281787
0.28177
0.281944
0.282033
0.281863
0.268957
0.28078
0.280983
0.268647
0.268633
0.268621
0.268612
0.268605
0.2686
0.268598
0.268597
0.268599
0.268603
0.268609
0.268617
0.268627
0.268639
0.268652
0.268666
0.268682
0.268699
0.268716
0.268735
0.268753
0.268772
0.26879
0.28213
0.280868
0.280819
0.282102
0.282202
0.281036
0.282158
0.282266
0.282383
0.282299
0.282214
0.282131
0.282047
0.281964
0.281882
0.281801
0.28172
0.281639
0.281558
0.281475
0.281391
0.281307
0.28122
0.281133
0.281044
0.280953
0.28086
0.280766
0.28067
0.280572
0.280471
0.280369
0.280264
0.280157
0.280047
0.279935
0.279821
0.279704
0.279584
0.279461
0.279335
0.279207
0.279076
0.278942
0.278804
0.278664
0.278521
0.278374
0.278225
0.278072
0.277917
0.277758
0.277596
0.277432
0.277264
0.277093
0.27692
0.276744
0.276565
0.276384
0.2762
0.276013
0.275825
0.275634
0.275442
0.275248
0.275052
0.274854
0.274656
0.274456
0.274256
0.274055
0.273853
0.273651
0.273449
0.273248
0.273046
0.272845
0.272645
0.272446
0.272248
0.272051
0.271856
0.271662
0.271469
0.271279
0.27109
0.270903
0.270718
0.270535
0.270354
0.270175
0.269998
0.269823
0.269649
0.269478
0.269308
0.26914
0.268973
0.268807
0.28096
0.280857
0.281095
0.268495
0.268511
0.281059
0.280897
0.280938
0.281166
0.28116
0.281232
0.28128
0.280982
0.281311
0.281404
0.2814
0.281538
0.281498
0.281684
0.281607
0.281937
0.281841
0.281728
0.281861
0.268696
0.268715
0.268733
0.268753
0.268772
0.26879
0.268808
0.268974
0.269141
0.269309
0.269479
0.269651
0.269824
0.27
0.270177
0.270356
0.270537
0.27072
0.270905
0.271091
0.27128
0.27147
0.271663
0.271856
0.272051
0.272248
0.272446
0.272644
0.272844
0.273045
0.273246
0.273447
0.273648
0.27385
0.274051
0.274252
0.274452
0.274651
0.27485
0.275047
0.275242
0.275436
0.275629
0.275819
0.276007
0.276194
0.276377
0.276559
0.276737
0.276914
0.277087
0.277257
0.277425
0.277591
0.277753
0.277913
0.27807
0.278224
0.278375
0.278524
0.278671
0.278816
0.278958
0.279097
0.279234
0.279369
0.279502
0.279632
0.27976
0.279884
0.280007
0.280126
0.280243
0.280357
0.280469
0.280578
0.280685
0.280789
0.280891
0.280991
0.281088
0.281183
0.281277
0.281368
0.281458
0.281546
0.281633
0.281718
0.281801
0.281883
0.281963
0.28204
0.282009
0.282114
0.282187
0.282008
0.283096
0.280841
0.282356
0.282448
0.28217
0.282275
0.282234
0.282346
0.282468
0.28231
0.282428
0.282555
0.282387
0.28251
0.282642
0.282593
0.282465
0.282729
0.282348
0.282817
0.282675
0.282543
0.28103
0.268479
0.268466
0.268454
0.268444
0.268437
0.268432
0.268429
0.268429
0.268431
0.268434
0.268441
0.268449
0.268459
0.26847
0.268484
0.268498
0.268514
0.268532
0.26855
0.268568
0.268587
0.268606
0.268625
0.268643
0.28223
0.282154
0.282071
0.281985
0.281898
0.281809
0.281719
0.281627
0.281534
0.28144
0.281344
0.281247
0.281148
0.281047
0.280944
0.280839
0.280732
0.280622
0.28051
0.280396
0.280279
0.28016
0.280038
0.279914
0.279787
0.279657
0.279526
0.279392
0.279255
0.279116
0.278975
0.278832
0.278686
0.278538
0.278388
0.278235
0.27808
0.277922
0.277761
0.277597
0.277431
0.277262
0.277091
0.276917
0.27674
0.27656
0.276378
0.276194
0.276007
0.275819
0.275628
0.275435
0.275241
0.275045
0.274848
0.27465
0.274451
0.27425
0.27405
0.273849
0.273648
0.273446
0.273246
0.273045
0.272845
0.272646
0.272448
0.272251
0.272055
0.27186
0.271667
0.271476
0.271286
0.271098
0.270912
0.270728
0.270546
0.270366
0.270187
0.270011
0.269836
0.269664
0.269493
0.269323
0.269155
0.268989
0.268824
0.280928
0.280876
0.281082
0.268529
0.268548
0.268567
0.268587
0.268606
0.268625
0.268643
0.26866
0.282966
0.282873
0.282781
0.282689
0.282598
0.282508
0.282419
0.282331
0.282243
0.282156
0.282069
0.281983
0.281898
0.281813
0.281728
0.281642
0.281555
0.281468
0.281379
0.281289
0.281198
0.281106
0.281012
0.280917
0.280819
0.28072
0.280619
0.280517
0.280412
0.280304
0.280195
0.280083
0.279969
0.279853
0.279734
0.279612
0.279487
0.27936
0.27923
0.279098
0.278962
0.278823
0.278681
0.278537
0.278389
0.278238
0.278085
0.277928
0.277768
0.277605
0.27744
0.277271
0.277099
0.276925
0.276748
0.276569
0.276386
0.276202
0.276015
0.275826
0.275635
0.275442
0.275248
0.275052
0.274854
0.274655
0.274456
0.274255
0.274054
0.273853
0.273651
0.27345
0.273248
0.273047
0.272847
0.272647
0.272448
0.272251
0.272055
0.27186
0.271666
0.271475
0.271285
0.271096
0.27091
0.270726
0.270543
0.270363
0.270185
0.270008
0.269834
0.269661
0.26949
0.269321
0.269153
0.268987
0.268822
0.268658
0.28102
0.280911
0.280948
0.281119
0.281141
0.281205
0.281226
0.280987
0.268329
0.268346
0.281277
0.281341
0.281029
0.281357
0.281467
0.281447
0.281603
0.281548
0.28175
0.28166
0.281909
0.281784
0.28208
0.281921
0.282262
0.282073
0.282239
0.283059
0.282904
0.282421
0.283316
0.283152
0.2809
0.284189
0.282951
0.282758
0.282622
0.281076
0.282558
0.282449
0.28236
0.282273
0.282183
0.28209
0.281996
0.281902
0.281807
0.28171
0.281613
0.281514
0.281414
0.281313
0.28121
0.281105
0.280998
0.28089
0.280779
0.280667
0.280552
0.280435
0.280315
0.280194
0.28007
0.279943
0.279815
0.279684
0.27955
0.279415
0.279277
0.279136
0.278993
0.278849
0.278702
0.278553
0.278401
0.278247
0.27809
0.277931
0.277769
0.277604
0.277437
0.277267
0.277094
0.276919
0.276741
0.276561
0.276378
0.276193
0.276006
0.275817
0.275625
0.275432
0.275238
0.275042
0.274845
0.274646
0.274447
0.274247
0.274047
0.273846
0.273645
0.273444
0.273243
0.273043
0.272844
0.272645
0.272447
0.272251
0.272055
0.271862
0.271669
0.271479
0.27129
0.271102
0.270917
0.270734