/*--------------------------------*- C++ -*----------------------------------*\
| =========                 |                                                 |
| \\      /  F ield         | OpenFOAM: The Open Source CFD Toolbox           |
|  \\    /   O peration     | Version:  2212                                  |
|   \\  /    A nd           | Website:  www.openfoam.com                      |
|    \\/     M anipulation  |                                                 |
\*---------------------------------------------------------------------------*/
FoamFile
{
    version     2.0;
    format      ascii;
    arch        "LSB;label=32;scalar=64";
    class       volScalarField;
    location    "0.1635";
    object      s;
}
// * * * * * * * * * * * * * * * * * * * * * * * * * * * * * * * * * * * * * //

dimensions      [0 0 0 0 0 0 0];

internalField   nonuniform List<scalar> 
24240
(
5.9115e-103
5.83984e-103
5.94246e-103
5.73045e-103
5.8719e-103
5.85225e-103
5.8618e-103
5.69558e-103
5.74956e-103
5.90243e-103
5.757e-103
5.94193e-103
5.73798e-103
5.8883e-103
5.6946e-103
5.94386e-103
5.68139e-103
5.76561e-103
5.83015e-103
5.62767e-103
4.72562e-100
4.66739e-100
4.7485e-100
4.58115e-100
4.69223e-100
4.67783e-100
4.68513e-100
4.5522e-100
4.59581e-100
4.71729e-100
4.60243e-100
4.74846e-100
4.58757e-100
4.70685e-100
4.55295e-100
4.751e-100
4.54238e-100
4.60906e-100
4.65962e-100
4.49965e-100
2.10087e-97
2.07455e-97
2.11019e-97
2.03675e-97
2.08524e-97
2.07943e-97
2.08251e-97
2.0234e-97
2.04297e-97
2.09668e-97
2.04621e-97
2.11034e-97
2.03977e-97
2.09242e-97
2.0244e-97
2.11191e-97
2.01968e-97
2.04906e-97
2.07106e-97
2.00078e-97
5.29745e-95
5.22998e-95
5.31881e-95
5.13607e-95
5.25608e-95
5.24296e-95
5.25029e-95
5.10121e-95
5.15095e-95
5.28572e-95
5.15991e-95
5.31962e-95
5.14412e-95
5.27594e-95
5.10543e-95
5.32474e-95
5.09343e-95
5.16691e-95
5.22115e-95
5.04599e-95
9.75893e-93
9.63254e-93
9.79426e-93
9.46211e-93
9.67901e-93
9.65772e-93
9.67027e-93
9.39561e-93
9.48787e-93
9.73507e-93
9.50585e-93
9.79646e-93
9.47764e-93
9.71884e-93
9.4065e-93
9.808e-93
9.38403e-93
9.51846e-93
9.61604e-93
9.29695e-93
1.24157e-90
1.22522e-90
1.24557e-90
1.20388e-90
1.23095e-90
1.22862e-90
1.23008e-90
1.19513e-90
1.20693e-90
1.23829e-90
1.20942e-90
1.24595e-90
1.20596e-90
1.23645e-90
1.19693e-90
1.24769e-90
1.19398e-90
1.211e-90
1.2231e-90
1.1829e-90
1.12018e-88
1.10514e-88
1.12332e-88
1.0862e-88
1.11017e-88
1.10841e-88
1.10958e-88
1.07804e-88
1.08869e-88
1.11698e-88
1.09115e-88
1.12375e-88
1.08816e-88
1.11553e-88
1.08005e-88
1.12556e-88
1.07723e-88
1.09258e-88
1.10321e-88
1.06719e-88
6.71032e-87
6.61853e-87
6.72619e-87
6.50698e-87
6.64782e-87
6.63932e-87
6.64547e-87
6.4565e-87
6.52026e-87
6.68959e-87
6.53632e-87
6.72931e-87
6.5193e-87
6.68236e-87
6.47094e-87
6.74165e-87
6.45302e-87
6.54498e-87
6.60684e-87
6.39256e-87
1.04848e-85
1.03504e-85
1.04976e-85
1.01746e-85
1.0383e-85
1.03698e-85
1.03881e-85
1.00989e-85
1.02119e-85
1.04442e-85
1.02303e-85
1.05091e-85
1.01964e-85
1.04376e-85
1.01127e-85
1.0526e-85
1.01143e-85
1.02315e-85
1.03176e-85
1.0031e-85
8.25332e-86
8.26645e-86
8.23935e-86
8.09652e-86
8.20635e-86
8.17344e-86
8.27434e-86
8.08692e-86
8.29257e-86
8.19284e-86
8.22468e-86
8.2877e-86
8.11757e-86
8.19959e-86
7.98452e-86
8.21527e-86
8.21444e-86
8.10773e-86
8.12512e-86
8.22502e-86
1.23211e-85
1.24719e-85
1.25376e-85
1.23684e-85
1.22776e-85
1.2362e-85
1.25576e-85
1.22647e-85
1.26495e-85
1.25583e-85
1.25797e-85
1.25947e-85
1.24351e-85
1.2293e-85
1.21879e-85
1.23757e-85
1.22985e-85
1.22792e-85
1.23762e-85
1.24575e-85
1.45377e-85
1.46687e-85
1.47241e-85
1.45131e-85
1.44214e-85
1.41299e-85
1.4455e-85
1.41656e-85
1.46123e-85
1.4991e-85
1.48694e-85
1.44159e-85
1.48263e-85
1.45799e-85
1.45693e-85
1.46717e-85
1.40381e-85
1.46336e-85
1.43565e-85
1.44251e-85
1.65192e-85
1.69193e-85
1.68008e-85
1.66668e-85
1.67687e-85
1.69139e-85
1.74303e-85
1.67239e-85
1.68203e-85
1.66331e-85
1.67061e-85
1.6707e-85
1.68265e-85
1.67642e-85
1.64504e-85
1.6737e-85
1.68568e-85
1.65511e-85
1.64725e-85
1.65482e-85
1.83127e-85
1.83664e-85
1.8549e-85
1.88525e-85
1.86551e-85
1.89054e-85
1.85695e-85
1.88678e-85
1.86719e-85
1.79168e-85
1.81962e-85
1.82063e-85
1.83659e-85
1.79969e-85
1.79637e-85
1.81133e-85
1.80533e-85
1.83781e-85
1.81972e-85
1.85701e-85
1.8627e-85
1.8674e-85
1.90089e-85
1.8859e-85
1.86332e-85
1.88659e-85
1.89205e-85
1.91857e-85
1.86303e-85
1.89257e-85
1.88305e-85
1.88501e-85
1.90638e-85
1.88509e-85
1.87007e-85
1.93517e-85
1.87491e-85
1.85467e-85
1.87904e-85
1.89388e-85
1.90553e-85
1.86656e-85
1.88999e-85
1.87037e-85
1.8993e-85
1.91229e-85
1.91975e-85
1.90037e-85
1.85363e-85
1.87002e-85
1.85526e-85
1.92027e-85
1.90336e-85
1.9363e-85
1.9262e-85
1.92798e-85
1.90692e-85
1.90528e-85
1.88187e-85
1.89231e-85
1.73508e-85
1.75603e-85
1.73692e-85
1.80646e-85
1.75488e-85
1.79802e-85
1.76382e-85
1.77946e-85
1.75559e-85
1.76112e-85
1.7581e-85
1.79253e-85
1.76268e-85
1.81463e-85
1.74811e-85
1.79005e-85
1.78115e-85
1.72268e-85
1.7876e-85
1.78366e-85
1.58291e-85
1.65427e-85
1.62718e-85
1.61895e-85
1.59568e-85
1.6752e-85
1.64766e-85
1.64798e-85
1.63643e-85
1.60308e-85
1.63639e-85
1.66843e-85
1.62388e-85
1.70416e-85
1.63371e-85
1.66506e-85
1.68091e-85
1.63798e-85
1.67421e-85
1.67588e-85
1.42291e-85
1.41956e-85
1.41006e-85
1.43544e-85
1.45384e-85
1.44802e-85
1.42078e-85
1.41939e-85
1.46232e-85
1.41174e-85
1.44932e-85
1.45038e-85
1.4172e-85
1.46472e-85
1.45996e-85
1.48706e-85
1.43821e-85
1.47144e-85
1.45142e-85
1.49323e-85
1.04958e-85
1.0581e-85
1.05096e-85
1.04364e-85
1.06663e-85
1.05647e-85
1.07304e-85
1.05675e-85
1.07257e-85
1.08073e-85
1.05983e-85
1.08864e-85
1.05553e-85
1.09681e-85
1.05841e-85
1.05791e-85
1.07178e-85
1.08908e-85
1.07016e-85
1.10215e-85
2.65571e-101
2.62308e-101
2.66865e-101
2.57459e-101
2.637e-101
2.62889e-101
2.63306e-101
2.55838e-101
2.58291e-101
2.65112e-101
2.58656e-101
2.66864e-101
2.57816e-101
2.64511e-101
2.55863e-101
2.66995e-101
2.55278e-101
2.59017e-101
2.61862e-101
2.52883e-101
2.25122e-98
2.22312e-98
2.2613e-98
2.1826e-98
2.23454e-98
2.22831e-98
2.23168e-98
2.16836e-98
2.18936e-98
2.24684e-98
2.19278e-98
2.2615e-98
2.18583e-98
2.24217e-98
2.1693e-98
2.26309e-98
2.16434e-98
2.19574e-98
2.21934e-98
2.14414e-98
1.02867e-95
1.01563e-95
1.03286e-95
9.97381e-96
1.02067e-95
1.01811e-95
1.01957e-95
9.90639e-96
1.00032e-95
1.02644e-95
1.00203e-95
1.03303e-95
9.98939e-96
1.02449e-95
9.91393e-96
1.03398e-95
9.89121e-96
1.00334e-95
1.01388e-95
9.7994e-96
2.68121e-93
2.64668e-93
2.69103e-93
2.59982e-93
2.65935e-93
2.65349e-93
2.65706e-93
2.58165e-93
2.60709e-93
2.67482e-93
2.61194e-93
2.69173e-93
2.60411e-93
2.67022e-93
2.58446e-93
2.69477e-93
2.57851e-93
2.61525e-93
2.64208e-93
2.5547e-93
4.97415e-91
4.90908e-91
4.99031e-91
4.82347e-91
4.93172e-91
4.92234e-91
4.92849e-91
4.78862e-91
4.83615e-91
4.9612e-91
4.84587e-91
4.99201e-91
4.8318e-91
4.95359e-91
4.79539e-91
4.99872e-91
4.78424e-91
4.85187e-91
4.90039e-91
4.74025e-91
6.38974e-89
6.30483e-89
6.40788e-89
6.19661e-89
6.33289e-89
6.3228e-89
6.33004e-89
6.15042e-89
6.21181e-89
6.37185e-89
6.2253e-89
6.41068e-89
6.20786e-89
6.36326e-89
6.16115e-89
6.42066e-89
6.14652e-89
6.23286e-89
6.2935e-89
6.09006e-89
5.67327e-87
5.59662e-87
5.68702e-87
5.50211e-87
5.62069e-87
5.6135e-87
5.61925e-87
5.4598e-87
5.51447e-87
5.65621e-87
5.52739e-87
5.68997e-87
5.51254e-87
5.64966e-87
5.47116e-87
5.70002e-87
5.45766e-87
5.53403e-87
5.58632e-87
5.4074e-87
3.36322e-85
3.31709e-85
3.36984e-85
3.26198e-85
3.33079e-85
3.32755e-85
3.33062e-85
3.23617e-85
3.26869e-85
3.35235e-85
3.27694e-85
3.37196e-85
3.26848e-85
3.34918e-85
3.24395e-85
3.37858e-85
3.23575e-85
3.28078e-85
3.31075e-85
3.20594e-85
5.17325e-84
5.10624e-84
5.17811e-84
5.02104e-84
5.12147e-84
5.11679e-84
5.12522e-84
4.98259e-84
5.03852e-84
5.15302e-84
5.04833e-84
5.18431e-84
5.03219e-84
5.15029e-84
4.99091e-84
5.19345e-84
4.99117e-84
5.04886e-84
5.09013e-84
4.95023e-84
4.02858e-84
4.03467e-84
4.02223e-84
3.95315e-84
4.00549e-84
3.99084e-84
4.03931e-84
3.94753e-84
4.04854e-84
3.99952e-84
4.01559e-84
4.04526e-84
3.96345e-84
4.0029e-84
3.89898e-84
4.00951e-84
4.00981e-84
3.95809e-84
3.96645e-84
4.01507e-84
6.02614e-84
6.09845e-84
6.13188e-84
6.04817e-84
6.00407e-84
6.04454e-84
6.13923e-84
5.99642e-84
6.18497e-84
6.13957e-84
6.15182e-84
6.15684e-84
6.08119e-84
6.01152e-84
5.96062e-84
6.05096e-84
6.0132e-84
6.00477e-84
6.05215e-84
6.0911e-84
7.06671e-84
7.12991e-84
7.15705e-84
7.05297e-84
7.01053e-84
6.86937e-84
7.02779e-84
6.88781e-84
7.10326e-84
7.28565e-84
7.22626e-84
7.00775e-84
7.20631e-84
7.08648e-84
7.0814e-84
7.13078e-84
6.82385e-84
7.11145e-84
6.97711e-84
7.01051e-84
8.03391e-84
8.2255e-84
8.16997e-84
8.10542e-84
8.15546e-84
8.22547e-84
8.47445e-84
8.13413e-84
8.17995e-84
8.08753e-84
8.12323e-84
8.12449e-84
8.18368e-84
8.15541e-84
8.0028e-84
8.14021e-84
8.19819e-84
8.05071e-84
8.01259e-84
8.04883e-84
8.8182e-84
8.84178e-84
8.92796e-84
9.07571e-84
8.98198e-84
9.10083e-84
8.93916e-84
9.08399e-84
8.98693e-84
8.62752e-84
8.76023e-84
8.76677e-84
8.84241e-84
8.66605e-84
8.64876e-84
8.7223e-84
8.69057e-84
8.84798e-84
8.76062e-84
8.94086e-84
8.98192e-84
9.00254e-84
9.16489e-84
9.09091e-84
8.98334e-84
9.09777e-84
9.12192e-84
9.25011e-84
8.98301e-84
9.12632e-84
9.08087e-84
9.0902e-84
9.19028e-84
9.09096e-84
9.01909e-84
9.32944e-84
9.04076e-84
8.94246e-84
9.05944e-84
9.12795e-84
9.0656e-84
8.88001e-84
8.98833e-84
8.89731e-84
9.03563e-84
9.09758e-84
9.13117e-84
9.03952e-84
8.81882e-84
8.89545e-84
8.82384e-84
9.13238e-84
9.055e-84
9.2108e-84
9.16307e-84
9.17039e-84
9.07091e-84
9.06457e-84
8.95267e-84
9.00188e-84
8.2809e-84
8.38193e-84
8.28975e-84
8.62116e-84
8.37346e-84
8.57917e-84
8.41556e-84
8.49286e-84
8.37845e-84
8.40529e-84
8.39164e-84
8.55476e-84
8.41112e-84
8.65941e-84
8.34248e-84
8.5412e-84
8.49985e-84
8.22236e-84
8.53083e-84
8.51298e-84
7.45711e-84
7.79144e-84
7.66508e-84
7.62397e-84
7.51641e-84
7.88899e-84
7.75907e-84
7.76153e-84
7.70689e-84
7.55065e-84
7.70591e-84
7.85634e-84
7.64842e-84
8.0234e-84
7.69289e-84
7.84013e-84
7.91381e-84
7.71467e-84
7.88403e-84
7.89207e-84
6.74961e-84
6.73346e-84
6.68983e-84
6.80967e-84
6.89531e-84
6.86782e-84
6.7382e-84
6.73563e-84
6.93665e-84
6.6977e-84
6.87455e-84
6.88051e-84
6.72104e-84
6.9479e-84
6.92461e-84
7.05414e-84
6.82222e-84
6.97871e-84
6.88358e-84
7.08118e-84
4.97171e-84
5.01184e-84
4.97862e-84
4.94343e-84
5.05076e-84
5.00375e-84
5.08039e-84
5.00532e-84
5.0775e-84
5.11759e-84
5.01805e-84
5.15421e-84
4.99859e-84
5.1932e-84
5.01167e-84
5.00946e-84
5.07409e-84
5.15646e-84
5.06719e-84
5.21771e-84
1.42594e-99
1.40817e-99
1.43236e-99
1.3825e-99
1.41539e-99
1.41144e-99
1.4136e-99
1.3735e-99
1.38681e-99
1.42321e-99
1.38896e-99
1.43249e-99
1.38454e-99
1.42018e-99
1.37404e-99
1.43345e-99
1.37092e-99
1.39078e-99
1.40575e-99
1.35815e-99
1.19555e-96
1.18043e-96
1.20046e-96
1.15922e-96
1.18627e-96
1.18331e-96
1.18503e-96
1.15141e-96
1.16267e-96
1.19302e-96
1.16464e-96
1.20068e-96
1.16104e-96
1.1907e-96
1.15224e-96
1.20174e-96
1.14963e-96
1.16612e-96
1.17839e-96
1.13898e-96
5.3588e-94
5.29001e-94
5.37862e-94
5.19635e-94
5.31523e-94
5.30352e-94
5.31079e-94
5.16013e-94
5.21106e-94
5.34628e-94
5.22064e-94
5.3801e-94
5.20491e-94
5.33684e-94
5.16551e-94
5.38598e-94
5.15379e-94
5.22703e-94
5.28072e-94
5.10633e-94
1.38507e-91
1.36703e-91
1.38963e-91
1.34319e-91
1.3733e-91
1.37069e-91
1.37245e-91
1.33353e-91
1.3468e-91
1.38156e-91
1.34947e-91
1.39015e-91
1.34552e-91
1.37937e-91
1.33534e-91
1.39196e-91
1.33232e-91
1.35108e-91
1.3646e-91
1.32011e-91
2.52487e-89
2.49151e-89
2.53214e-89
2.44872e-89
2.50247e-89
2.49849e-89
2.50146e-89
2.43054e-89
2.4549e-89
2.51794e-89
2.46014e-89
2.53331e-89
2.45317e-89
2.5144e-89
2.43461e-89
2.53715e-89
2.42907e-89
2.46299e-89
2.48698e-89
2.40694e-89
3.21226e-87
3.16921e-87
3.22018e-87
3.11565e-87
3.18259e-87
3.17853e-87
3.182e-87
3.09182e-87
3.12301e-87
3.20283e-87
3.13015e-87
3.22201e-87
3.12159e-87
3.19894e-87
3.09798e-87
3.22756e-87
3.09086e-87
3.13368e-87
3.16331e-87
3.06275e-87
2.80533e-85
2.76719e-85
2.81106e-85
2.72118e-85
2.77838e-85
2.77572e-85
2.77845e-85
2.69976e-85
2.72712e-85
2.79653e-85
2.73378e-85
2.81293e-85
2.7266e-85
2.79366e-85
2.70598e-85
2.81834e-85
2.69964e-85
2.73679e-85
2.76184e-85
2.67507e-85
1.64194e-83
1.61934e-83
1.64453e-83
1.59285e-83
1.62557e-83
1.62451e-83
1.62598e-83
1.57999e-83
1.59612e-83
1.63643e-83
1.60025e-83
1.64584e-83
1.59618e-83
1.6351e-83
1.58408e-83
1.64929e-83
1.58041e-83
1.60192e-83
1.61604e-83
1.56608e-83
2.48528e-82
2.45275e-82
2.48689e-82
2.41257e-82
2.45964e-82
2.4583e-82
2.46205e-82
2.39358e-82
2.42054e-82
2.47547e-82
2.4256e-82
2.49014e-82
2.41813e-82
2.47441e-82
2.3983e-82
2.49493e-82
2.39818e-82
2.42582e-82
2.44505e-82
2.37858e-82
1.91248e-82
1.91522e-82
1.90971e-82
1.87721e-82
1.90145e-82
1.89517e-82
1.91779e-82
1.8741e-82
1.92234e-82
1.89891e-82
1.9068e-82
1.92035e-82
1.88211e-82
1.90056e-82
1.85174e-82
1.90318e-82
1.90367e-82
1.8793e-82
1.88321e-82
1.90621e-82
2.8674e-82
2.90112e-82
2.91764e-82
2.87735e-82
2.85652e-82
2.87538e-82
2.91994e-82
2.85223e-82
2.9421e-82
2.92013e-82
2.92681e-82
2.92809e-82
2.89325e-82
2.86003e-82
2.83605e-82
2.8783e-82
2.86033e-82
2.85679e-82
2.87932e-82
2.89745e-82
3.34429e-82
3.37394e-82
3.38689e-82
3.33692e-82
3.31785e-82
3.25132e-82
3.32644e-82
3.26057e-82
3.36169e-82
3.44722e-82
3.41895e-82
3.31649e-82
3.40999e-82
3.35327e-82
3.35089e-82
3.37408e-82
3.22931e-82
3.36453e-82
3.30114e-82
3.31697e-82
3.80498e-82
3.89427e-82
3.86898e-82
3.83869e-82
3.8626e-82
3.89545e-82
4.01236e-82
3.85273e-82
3.87394e-82
3.82958e-82
3.84655e-82
3.84752e-82
3.87607e-82
3.86371e-82
3.7914e-82
3.85554e-82
3.88284e-82
3.81358e-82
3.79555e-82
3.81242e-82
4.14351e-82
4.15351e-82
4.19312e-82
4.26333e-82
4.21973e-82
4.2749e-82
4.19908e-82
4.26765e-82
4.22064e-82
4.05388e-82
4.11535e-82
4.11924e-82
4.15415e-82
4.07194e-82
4.06319e-82
4.09843e-82
4.08223e-82
4.15667e-82
4.11546e-82
4.20047e-82
4.22773e-82
4.2365e-82
4.31325e-82
4.27766e-82
4.22764e-82
4.2825e-82
4.29289e-82
4.35337e-82
4.22818e-82
4.29582e-82
4.27464e-82
4.27901e-82
4.32467e-82
4.27956e-82
4.24596e-82
4.39029e-82
4.25538e-82
4.2088e-82
4.26378e-82
4.29437e-82
4.22322e-82
4.13666e-82
4.18561e-82
4.14441e-82
4.20904e-82
4.238e-82
4.25281e-82
4.21036e-82
4.10828e-82
4.14344e-82
4.10947e-82
4.25276e-82
4.21809e-82
4.29027e-82
4.2682e-82
4.27101e-82
4.2251e-82
4.22278e-82
4.17039e-82
4.1931e-82
3.87215e-82
3.91972e-82
3.87626e-82
4.0307e-82
3.91442e-82
4.01038e-82
3.93381e-82
3.97117e-82
3.9174e-82
3.93024e-82
3.92409e-82
3.9999e-82
3.93228e-82
4.04837e-82
3.90062e-82
3.99279e-82
3.9739e-82
3.84505e-82
3.98846e-82
3.98058e-82
3.45334e-82
3.60716e-82
3.54934e-82
3.52933e-82
3.48036e-82
3.65195e-82
3.59168e-82
3.59331e-82
3.56783e-82
3.49598e-82
3.56699e-82
3.63646e-82
3.54112e-82
3.71314e-82
3.56077e-82
3.62875e-82
3.66231e-82
3.57159e-82
3.64947e-82
3.65324e-82
3.14787e-82
3.14044e-82
3.1207e-82
3.17625e-82
3.21525e-82
3.20272e-82
3.14204e-82
3.14282e-82
3.23517e-82
3.12424e-82
3.20607e-82
3.20932e-82
3.13395e-82
3.24052e-82
3.22918e-82
3.29005e-82
3.18201e-82
3.2542e-82
3.20989e-82
3.30159e-82
2.30401e-82
2.32244e-82
2.30734e-82
2.29083e-82
2.33989e-82
2.31855e-82
2.35314e-82
2.31936e-82
2.35155e-82
2.37071e-82
2.32439e-82
2.3873e-82
2.31577e-82
2.40553e-82
2.32167e-82
2.32078e-82
2.35007e-82
2.38849e-82
2.34726e-82
2.41655e-82
7.61124e-98
7.51513e-98
7.64271e-98
7.38009e-98
7.55232e-98
7.53344e-98
7.54449e-98
7.3305e-98
7.40222e-98
7.5954e-98
7.41467e-98
7.64423e-98
7.39163e-98
7.58031e-98
7.33555e-98
7.65074e-98
7.31894e-98
7.42387e-98
7.5021e-98
7.25124e-98
6.34265e-95
6.26142e-95
6.36636e-95
6.15057e-95
6.29124e-95
6.27739e-95
6.28611e-95
6.10782e-95
6.16814e-95
6.32818e-95
6.17941e-95
6.36823e-95
6.16073e-95
6.31673e-95
6.114e-95
6.375e-95
6.1002e-95
6.1868e-95
6.25045e-95
6.0441e-95
2.78792e-92
2.75171e-92
2.79721e-92
2.70372e-92
2.76429e-92
2.75904e-92
2.76264e-92
2.68431e-92
2.71104e-92
2.78098e-92
2.71638e-92
2.79829e-92
2.70841e-92
2.77644e-92
2.68786e-92
2.80184e-92
2.68181e-92
2.71952e-92
2.74679e-92
2.6573e-92
7.13742e-90
7.04346e-90
7.15831e-90
6.9225e-90
7.07431e-90
7.06308e-90
7.07169e-90
6.87127e-90
6.94025e-90
7.1183e-90
6.95493e-90
7.16182e-90
6.93513e-90
7.10796e-90
6.88251e-90
7.17241e-90
6.86707e-90
6.96271e-90
7.03066e-90
6.80467e-90
1.27857e-87
1.26152e-87
1.28178e-87
1.24019e-87
1.26679e-87
1.26518e-87
1.2666e-87
1.23073e-87
1.24318e-87
1.27489e-87
1.24598e-87
1.28254e-87
1.24255e-87
1.27327e-87
1.23312e-87
1.2847e-87
1.23036e-87
1.24734e-87
1.25916e-87
1.21924e-87
1.60678e-85
1.58507e-85
1.61016e-85
1.55871e-85
1.5914e-85
1.58989e-85
1.59152e-85
1.54649e-85
1.56223e-85
1.60187e-85
1.56599e-85
1.61129e-85
1.56183e-85
1.60013e-85
1.54996e-85
1.61433e-85
1.54649e-85
1.56764e-85
1.58203e-85
1.53256e-85
1.38012e-83
1.36123e-83
1.38242e-83
1.33896e-83
1.3664e-83
1.36554e-83
1.36681e-83
1.32818e-83
1.34179e-83
1.37563e-83
1.3452e-83
1.38355e-83
1.34176e-83
1.3744e-83
1.33154e-83
1.38642e-83
1.32856e-83
1.34657e-83
1.35849e-83
1.31661e-83
7.96372e-82
7.85375e-82
7.97332e-82
7.72732e-82
7.88173e-82
7.87924e-82
7.88608e-82
7.66365e-82
7.74295e-82
7.93617e-82
7.76361e-82
7.98094e-82
7.74427e-82
7.93073e-82
7.68495e-82
7.99883e-82
7.66851e-82
7.77082e-82
7.83683e-82
7.59996e-82
1.1862e-80
1.17053e-80
1.18664e-80
1.15171e-80
1.17361e-80
1.17341e-80
1.17505e-80
1.14241e-80
1.15531e-80
1.18149e-80
1.15789e-80
1.18832e-80
1.15447e-80
1.1811e-80
1.145e-80
1.19079e-80
1.14483e-80
1.15798e-80
1.16687e-80
1.1355e-80
9.01458e-81
9.02682e-81
9.00281e-81
8.85098e-81
8.96226e-81
8.93593e-81
9.04065e-81
8.83414e-81
9.06289e-81
8.95177e-81
8.9901e-81
9.05153e-81
8.87408e-81
8.95968e-81
8.73203e-81
8.96964e-81
8.97357e-81
8.85958e-81
8.87774e-81
8.98574e-81
1.35516e-80
1.37077e-80
1.37886e-80
1.35961e-80
1.34984e-80
1.35856e-80
1.37938e-80
1.34751e-80
1.39004e-80
1.3795e-80
1.38304e-80
1.38314e-80
1.36721e-80
1.35149e-80
1.34026e-80
1.35988e-80
1.35138e-80
1.34993e-80
1.36057e-80
1.36894e-80
1.57275e-80
1.58657e-80
1.59272e-80
1.56888e-80
1.56039e-80
1.52924e-80
1.56462e-80
1.53383e-80
1.58097e-80
1.62083e-80
1.60745e-80
1.55973e-80
1.60346e-80
1.5768e-80
1.57568e-80
1.58651e-80
1.51866e-80
1.58183e-80
1.55211e-80
1.55956e-80
1.79155e-80
1.8329e-80
1.82147e-80
1.80736e-80
1.8187e-80
1.83403e-80
1.88858e-80
1.81418e-80
1.82393e-80
1.80276e-80
1.81078e-80
1.8114e-80
1.82509e-80
1.81977e-80
1.78571e-80
1.81546e-80
1.82823e-80
1.79591e-80
1.78742e-80
1.79524e-80
1.93861e-80
1.94278e-80
1.9609e-80
1.9941e-80
1.97391e-80
1.99935e-80
1.964e-80
1.99633e-80
1.97361e-80
1.89667e-80
1.925e-80
1.9272e-80
1.94323e-80
1.90508e-80
1.9007e-80
1.9175e-80
1.90932e-80
1.94436e-80
1.92501e-80
1.96492e-80
1.98231e-80
1.98593e-80
2.02206e-80
2.00503e-80
1.98189e-80
2.0081e-80
2.0125e-80
2.04089e-80
1.98245e-80
2.01425e-80
2.0044e-80
2.0065e-80
2.02717e-80
2.00679e-80
1.99114e-80
2.058e-80
1.99525e-80
1.97321e-80
1.99895e-80
2.01252e-80
1.96603e-80
1.92564e-80
1.94771e-80
1.92914e-80
1.95931e-80
1.9728e-80
1.97932e-80
1.95967e-80
1.91249e-80
1.92862e-80
1.91255e-80
1.97902e-80
1.9635e-80
1.99696e-80
1.98676e-80
1.98773e-80
1.96659e-80
1.96584e-80
1.94128e-80
1.95175e-80
1.80966e-80
1.83209e-80
1.8116e-80
1.88351e-80
1.82893e-80
1.8737e-80
1.83788e-80
1.85591e-80
1.83066e-80
1.8368e-80
1.83401e-80
1.86923e-80
1.83743e-80
1.89166e-80
1.82283e-80
1.86556e-80
1.85693e-80
1.79713e-80
1.86379e-80
1.86032e-80
1.60424e-80
1.67521e-80
1.64869e-80
1.63891e-80
1.61658e-80
1.69583e-80
1.66779e-80
1.66878e-80
1.65686e-80
1.62372e-80
1.65628e-80
1.68847e-80
1.64462e-80
1.72377e-80
1.65332e-80
1.6848e-80
1.70012e-80
1.65869e-80
1.6946e-80
1.69639e-80
1.47196e-80
1.46852e-80
1.45958e-80
1.48541e-80
1.5032e-80
1.49746e-80
1.46899e-80
1.47028e-80
1.51281e-80
1.46118e-80
1.49914e-80
1.50088e-80
1.46516e-80
1.51535e-80
1.50984e-80
1.53851e-80
1.48804e-80
1.52143e-80
1.50073e-80
1.5434e-80
1.07125e-80
1.07976e-80
1.07287e-80
1.06509e-80
1.08757e-80
1.07788e-80
1.09353e-80
1.0783e-80
1.09266e-80
1.10185e-80
1.08022e-80
1.10939e-80
1.0764e-80
1.11794e-80
1.07906e-80
1.0787e-80
1.09203e-80
1.11e-80
1.09091e-80
1.12289e-80
3.9884e-96
3.93739e-96
4.00345e-96
3.86768e-96
3.95615e-96
3.94744e-96
3.95297e-96
3.84086e-96
3.87878e-96
3.97946e-96
3.88583e-96
4.00465e-96
3.87405e-96
3.97209e-96
3.84462e-96
4.00877e-96
3.83592e-96
3.89037e-96
3.93047e-96
3.80067e-96
3.36435e-93
3.32073e-93
3.3757e-93
3.26283e-93
3.33591e-93
3.3296e-93
3.33399e-93
3.23947e-93
3.27173e-93
3.35617e-93
3.27815e-93
3.37706e-93
3.2685e-93
3.35054e-93
3.24367e-93
3.38125e-93
3.23636e-93
3.28184e-93
3.31483e-93
3.2068e-93
1.45137e-90
1.4323e-90
1.45568e-90
1.40771e-90
1.43857e-90
1.43629e-90
1.43806e-90
1.39731e-90
1.41134e-90
1.44756e-90
1.41431e-90
1.45641e-90
1.41027e-90
1.44538e-90
1.39955e-90
1.45852e-90
1.39641e-90
1.41585e-90
1.4297e-90
1.38374e-90
3.66801e-88
3.61922e-88
3.67742e-88
3.55805e-88
3.63432e-88
3.62973e-88
3.63388e-88
3.53099e-88
3.56673e-88
3.65772e-88
3.57473e-88
3.67967e-88
3.56486e-88
3.65287e-88
3.53773e-88
3.68576e-88
3.52986e-88
3.57852e-88
3.61252e-88
3.49802e-88
6.45554e-86
6.36862e-86
6.46944e-86
6.2627e-86
6.39388e-86
6.38786e-86
6.39457e-86
6.21369e-86
6.27703e-86
6.43623e-86
6.292e-86
6.47407e-86
6.27521e-86
6.42885e-86
6.22738e-86
6.48611e-86
6.21364e-86
6.29846e-86
6.35646e-86
6.15794e-86
8.00428e-84
7.89525e-84
8.01821e-84
7.76611e-84
7.92497e-84
7.9201e-84
7.92768e-84
7.70372e-84
7.78282e-84
7.979e-84
7.80246e-84
8.02495e-84
7.78239e-84
7.97132e-84
7.72295e-84
8.04146e-84
7.70606e-84
7.81019e-84
7.87968e-84
7.63723e-84
6.76e-82
6.66692e-82
6.76886e-82
6.55967e-82
6.69059e-82
6.68867e-82
6.69445e-82
6.50564e-82
6.57291e-82
6.73742e-82
6.59037e-82
6.77536e-82
6.57401e-82
6.7322e-82
6.52363e-82
6.79054e-82
6.50959e-82
6.59656e-82
6.65304e-82
6.4516e-82
3.84135e-80
3.7881e-80
3.8446e-80
3.72814e-80
3.80057e-80
3.80068e-80
3.80379e-80
3.6968e-80
3.7355e-80
3.82775e-80
3.74579e-80
3.84889e-80
3.7367e-80
3.82559e-80
3.70782e-80
3.85807e-80
3.70043e-80
3.74891e-80
3.77957e-80
3.66777e-80
5.63019e-79
5.55514e-79
5.63064e-79
5.46753e-79
5.56873e-79
5.56987e-79
5.57696e-79
5.42225e-79
5.48363e-79
5.60777e-79
5.49665e-79
5.6393e-79
5.4811e-79
5.60643e-79
5.43611e-79
5.65192e-79
5.43479e-79
5.49707e-79
5.5378e-79
5.39066e-79
4.22299e-79
4.22841e-79
4.21811e-79
4.14759e-79
4.19834e-79
4.18752e-79
4.23566e-79
4.1387e-79
4.24647e-79
4.19412e-79
4.2126e-79
4.24023e-79
4.15842e-79
4.19787e-79
4.0924e-79
4.2014e-79
4.20402e-79
4.15104e-79
4.15944e-79
4.2098e-79
6.36708e-79
6.43886e-79
6.47823e-79
6.38678e-79
6.34121e-79
6.38133e-79
6.47798e-79
6.32888e-79
6.52894e-79
6.47873e-79
6.49714e-79
6.49521e-79
6.4229e-79
6.34892e-79
6.29669e-79
6.3872e-79
6.34726e-79
6.34152e-79
6.3914e-79
6.42981e-79
7.35647e-79
7.4205e-79
7.44953e-79
7.33649e-79
7.29902e-79
7.15393e-79
7.31966e-79
7.17661e-79
7.39506e-79
7.57983e-79
7.51678e-79
7.29582e-79
7.49916e-79
7.37457e-79
7.36932e-79
7.41963e-79
7.10338e-79
7.39678e-79
7.25835e-79
7.29313e-79
8.39282e-79
8.58324e-79
8.53193e-79
8.46657e-79
8.52003e-79
8.59121e-79
8.84435e-79
8.49947e-79
8.54404e-79
8.44368e-79
8.48127e-79
8.48498e-79
8.55022e-79
8.52769e-79
8.36803e-79
8.50533e-79
8.56469e-79
8.41471e-79
8.37495e-79
8.41093e-79
9.03401e-79
9.05107e-79
9.13356e-79
9.28989e-79
9.19682e-79
9.31368e-79
9.14951e-79
9.30128e-79
9.19198e-79
8.83858e-79
8.96851e-79
8.98064e-79
9.05381e-79
8.87758e-79
8.85582e-79
8.93556e-79
8.89462e-79
9.05891e-79
8.9684e-79
9.15495e-79
9.26141e-79
9.27602e-79
9.44546e-79
9.36431e-79
9.25769e-79
9.38249e-79
9.4007e-79
9.53354e-79
9.26174e-79
9.41062e-79
9.365e-79
9.37504e-79
9.46818e-79
9.37692e-79
9.30418e-79
9.61248e-79
9.32168e-79
9.21809e-79
9.33795e-79
9.39766e-79
9.12873e-79
8.94111e-79
9.04016e-79
8.9569e-79
9.09703e-79
9.15974e-79
9.18823e-79
9.09781e-79
8.88034e-79
8.95416e-79
8.87831e-79
9.18548e-79
9.11651e-79
9.271e-79
9.22416e-79
9.22709e-79
9.12994e-79
9.12798e-79
9.01334e-79
9.0615e-79
8.43948e-79
8.54481e-79
8.44848e-79
8.78238e-79
8.52704e-79
8.73532e-79
8.56822e-79
8.65475e-79
8.5365e-79
8.56588e-79
8.55312e-79
8.71666e-79
8.56739e-79
8.82005e-79
8.50023e-79
8.6978e-79
8.65856e-79
8.38168e-79
8.69069e-79
8.67545e-79
7.44534e-79
7.77243e-79
7.6509e-79
7.6034e-79
7.50167e-79
7.86727e-79
7.73687e-79
7.74255e-79
7.68687e-79
7.53415e-79
7.68326e-79
7.83229e-79
7.63083e-79
7.99456e-79
7.66924e-79
7.81492e-79
7.88471e-79
7.69578e-79
7.86107e-79
7.86959e-79
6.87859e-79
6.86265e-79
6.82219e-79
6.94221e-79
7.0233e-79
6.99701e-79
6.86343e-79
6.87386e-79
7.06951e-79
6.82944e-79
7.00535e-79
7.01452e-79
6.84539e-79
7.08154e-79
7.05489e-79
7.18982e-79
6.95424e-79
7.10854e-79
7.01184e-79
7.21025e-79
5.00192e-79
5.04144e-79
5.00993e-79
4.97302e-79
5.07643e-79
5.03229e-79
5.10341e-79
5.03448e-79
5.09863e-79
5.14294e-79
5.04138e-79
5.1773e-79
5.02452e-79
5.21755e-79
5.03649e-79
5.0351e-79
5.09603e-79
5.18037e-79
5.09163e-79
5.23987e-79
2.1443e-94
2.11653e-94
2.15162e-94
2.07963e-94
2.12622e-94
2.1222e-94
2.12501e-94
2.06477e-94
2.08532e-94
2.13918e-94
2.08939e-94
2.15249e-94
2.08324e-94
2.1355e-94
2.06739e-94
2.1551e-94
2.06269e-94
2.0917e-94
2.11277e-94
2.04387e-94
1.78303e-91
1.75965e-91
1.78841e-91
1.72944e-91
1.76735e-91
1.76456e-91
1.76676e-91
1.71669e-91
1.73393e-91
1.77845e-91
1.73756e-91
1.78933e-91
1.7326e-91
1.7757e-91
1.71941e-91
1.79187e-91
1.71553e-91
1.73942e-91
1.75647e-91
1.69997e-91
7.54846e-89
7.44824e-89
7.56821e-89
7.3224e-89
7.47933e-89
7.46992e-89
7.47853e-89
7.26679e-89
7.34031e-89
7.52772e-89
7.35673e-89
7.57289e-89
7.33639e-89
7.51737e-89
7.28048e-89
7.58519e-89
7.26417e-89
7.36433e-89
7.4345e-89
7.1987e-89
1.88039e-86
1.85513e-86
1.88455e-86
1.82429e-86
1.86249e-86
1.86075e-86
1.86273e-86
1.81005e-86
1.82849e-86
1.87491e-86
1.83284e-86
1.88594e-86
1.82795e-86
1.87266e-86
1.814e-86
1.88939e-86
1.80997e-86
1.83469e-86
1.85164e-86
1.79377e-86
3.25056e-84
3.2064e-84
3.25641e-84
3.15397e-84
3.21842e-84
3.21648e-84
3.2196e-84
3.12866e-84
3.16078e-84
3.24051e-84
3.16872e-84
3.25917e-84
3.16056e-84
3.2372e-84
3.13638e-84
3.2658e-84
3.12952e-84
3.17181e-84
3.20016e-84
3.10168e-84
3.97082e-82
3.91631e-82
3.97634e-82
3.85335e-82
3.93016e-82
3.9291e-82
3.93255e-82
3.82166e-82
3.86118e-82
3.95794e-82
3.8714e-82
3.98024e-82
3.8618e-82
3.95461e-82
3.83216e-82
3.98909e-82
3.82393e-82
3.87503e-82
3.9084e-82
3.79004e-82
3.29647e-80
3.2508e-80
3.29964e-80
3.19942e-80
3.26155e-80
3.26176e-80
3.26434e-80
3.17248e-80
3.20555e-80
3.28521e-80
3.21443e-80
3.3033e-80
3.20673e-80
3.28306e-80
3.182e-80
3.31123e-80
3.17537e-80
3.21725e-80
3.24383e-80
3.14734e-80
1.84297e-78
1.81731e-78
1.84388e-78
1.78905e-78
1.82282e-78
1.82352e-78
1.82489e-78
1.77371e-78
1.79245e-78
1.83633e-78
1.79756e-78
1.84624e-78
1.79334e-78
1.8355e-78
1.77937e-78
1.85091e-78
1.77602e-78
1.79892e-78
1.81307e-78
1.76053e-78
2.65774e-77
2.62203e-77
2.65722e-77
2.58149e-77
2.62794e-77
2.62949e-77
2.6325e-77
2.55959e-77
2.58862e-77
2.64716e-77
2.59513e-77
2.66163e-77
2.58813e-77
2.64677e-77
2.56686e-77
2.66801e-77
2.56601e-77
2.59533e-77
2.61386e-77
2.54524e-77
1.96656e-77
1.96894e-77
1.9646e-77
1.93204e-77
1.95502e-77
1.95069e-77
1.97266e-77
1.92743e-77
1.97788e-77
1.95338e-77
1.96223e-77
1.97456e-77
1.93708e-77
1.95514e-77
1.90658e-77
1.95626e-77
1.95784e-77
1.93337e-77
1.93723e-77
1.96057e-77
2.97448e-77
3.00729e-77
3.0263e-77
2.98312e-77
2.96199e-77
2.98032e-77
3.02491e-77
2.95559e-77
3.04914e-77
3.0254e-77
3.03479e-77
3.0328e-77
3.00019e-77
2.96558e-77
2.94142e-77
2.98292e-77
2.96425e-77
2.96206e-77
2.98531e-77
3.00282e-77
3.42276e-77
3.45226e-77
3.4659e-77
3.41258e-77
3.39619e-77
3.329e-77
3.40618e-77
3.34011e-77
3.44074e-77
3.52596e-77
3.49639e-77
3.39466e-77
3.48867e-77
3.43079e-77
3.42832e-77
3.45158e-77
3.30496e-77
3.4405e-77
3.37638e-77
3.39252e-77
3.91207e-77
3.99927e-77
3.9764e-77
3.94631e-77
3.97135e-77
4.00425e-77
4.12108e-77
3.9621e-77
3.98233e-77
3.93502e-77
3.95254e-77
3.95462e-77
3.98554e-77
3.97619e-77
3.90173e-77
3.96474e-77
3.99219e-77
3.92296e-77
3.90441e-77
3.9209e-77
4.19311e-77
4.19992e-77
4.2373e-77
4.31059e-77
4.26787e-77
4.32134e-77
4.24539e-77
4.31636e-77
4.264e-77
4.10243e-77
4.16173e-77
4.16824e-77
4.20147e-77
4.1204e-77
4.10969e-77
4.14735e-77
4.12706e-77
4.20376e-77
4.1616e-77
4.24843e-77
4.31074e-77
4.31646e-77
4.39559e-77
4.35712e-77
4.3082e-77
4.36737e-77
4.37471e-77
4.43668e-77
4.31075e-77
4.38018e-77
4.3591e-77
4.36391e-77
4.40564e-77
4.36504e-77
4.33133e-77
4.47292e-77
4.33869e-77
4.2902e-77
4.34578e-77
4.37187e-77
4.23033e-77
4.14346e-77
4.18776e-77
4.15054e-77
4.21542e-77
4.24452e-77
4.2569e-77
4.21547e-77
4.11542e-77
4.14913e-77
4.11343e-77
4.25498e-77
4.22453e-77
4.2956e-77
4.27415e-77
4.27488e-77
4.23026e-77
4.23005e-77
4.17675e-77
4.19885e-77
3.92814e-77
3.97745e-77
3.93223e-77
4.08689e-77
3.96776e-77
4.06447e-77
3.98667e-77
4.02806e-77
3.97279e-77
3.98684e-77
3.98098e-77
4.05681e-77
3.98686e-77
4.10436e-77
3.95612e-77
4.04716e-77
4.02942e-77
3.90154e-77
4.04442e-77
4.03775e-77
3.45486e-77
3.60553e-77
3.5499e-77
3.52689e-77
3.48054e-77
3.64914e-77
3.58852e-77
3.59167e-77
3.56563e-77
3.49531e-77
3.56351e-77
3.63253e-77
3.54002e-77
3.70711e-77
3.55692e-77
3.62431e-77
3.65608e-77
3.56997e-77
3.64603e-77
3.6501e-77
3.21301e-77
3.20571e-77
3.18744e-77
3.24312e-77
3.27997e-77
3.26805e-77
3.20541e-77
3.21237e-77
3.3022e-77
3.19069e-77
3.27214e-77
3.27696e-77
3.19691e-77
3.30797e-77
3.29505e-77
3.3585e-77
3.24867e-77
3.31983e-77
3.27477e-77
3.36692e-77
2.32738e-77
2.34562e-77
2.33126e-77
2.31388e-77
2.36128e-77
2.3412e-77
2.37335e-77
2.34233e-77
2.37085e-77
2.39206e-77
2.3446e-77
2.40766e-77
2.33715e-77
2.42655e-77
2.3426e-77
2.3421e-77
2.36975e-77
2.40925e-77
2.3681e-77
2.4366e-77
1.15182e-92
1.13673e-92
1.15535e-92
1.11722e-92
1.14172e-92
1.13992e-92
1.14134e-92
1.109e-92
1.12012e-92
1.14892e-92
1.12246e-92
1.15594e-92
1.11925e-92
1.14709e-92
1.11073e-92
1.15755e-92
1.10819e-92
1.12364e-92
1.13469e-92
1.09815e-92
9.4254e-90
9.3004e-90
9.45051e-90
9.14333e-90
9.33931e-90
9.32761e-90
9.33843e-90
9.07402e-90
9.16575e-90
9.40006e-90
9.18623e-90
9.45645e-90
9.16083e-90
9.3867e-90
9.09095e-90
9.47158e-90
9.07036e-90
9.19556e-90
9.28343e-90
8.98862e-90
3.91546e-87
3.86294e-87
3.92433e-87
3.79875e-87