/*--------------------------------*- C++ -*----------------------------------*\
| =========                 |                                                 |
| \\      /  F ield         | OpenFOAM: The Open Source CFD Toolbox           |
|  \\    /   O peration     | Version:  2212                                  |
|   \\  /    A nd           | Website:  www.openfoam.com                      |
|    \\/     M anipulation  |                                                 |
\*---------------------------------------------------------------------------*/
FoamFile
{
    version     2.0;
    format      ascii;
    arch        "LSB;label=32;scalar=64";
    class       volScalarField;
    location    "0.0425";
    object      nut;
}
// * * * * * * * * * * * * * * * * * * * * * * * * * * * * * * * * * * * * * //

dimensions      [0 2 -1 0 0 0 0];

internalField   nonuniform List<scalar> 
7220
(
0.0434921
0.0677644
0.0784695
0.109283
0.082574
0.0952081
0.0744156
0.0784148
0.104118
0.0904508
0.02655
0.121646
0.170305
0.0427255
0.0315524
0.105311
0.0503582
0.090005
0.0397017
0.0662369
0.305539
0.0377671
0.230124
0.0448795
0.0336616
0.0565342
0.178386
0.0527558
0.26254
0.065991
0.0309749
0.0713192
0.0784157
0.0628004
0.0414135
0.0683868
0.0609859
0.0263079
0.0268455
0.129722
0.130225
0.128936
0.128464
0.0680221
0.0687453
0.0698648
0.0694352
0.0689606
0.130862
0.13158
0.1302
0.129534
0.132441
0.132999
0.131782
0.131049
0.131953
0.127524
0.127767
0.131426
0.12029
0.111338
0.110906
0.120633
0.101225
0.0907784
0.0890418
0.0998782
0.081854
0.0758082
0.074587
0.0802417
0.0721724
0.0702144
0.0695984
0.0713149
0.0691945
0.0687284
0.0683715
0.0687391
0.0685693
0.0685734
0.068302
0.068268
0.0686172
0.0684043
0.068658
0.0688436
0.0691414
0.0677036
0.129449
0.128229
0.12065
0.120218
0.0690244
0.0702521
0.0695155
0.0699262
0.0681887
0.0684157
0.0682272
0.0698901
0.0688896
0.0752716
0.0718129
0.0867401
0.0804946
0.0945297
0.0916485
0.100175
0.0969498
0.110689
0.104798
0.122453
0.117133
0.124375
0.124145
0.12339
0.123914
0.120933
0.121045
0.11575
0.119814
0.103812
0.109753
0.0952072
0.0988496
0.0885386
0.0922652
0.077025
0.0830637
0.0697219
0.0724707
0.0677138
0.0683346
0.0674611
0.0674865
0.0675447
0.0682332
0.122894
0.119754
0.0664922
0.0662128
0.0693954
0.0703612
0.0683554
0.0685845
0.0669451
0.0668146
0.068873
0.0669884
0.0671611
0.0670124
0.0681471
0.0674876
0.0717164
0.0694102
0.0802074
0.0754579
0.0860767
0.0843159
0.0850441
0.0857766
0.0845002
0.0845159
0.0873134
0.0853217
0.0962198
0.0909388
0.10823
0.102477
0.111414
0.111002
0.122384
0.110756
0.111087
0.128299
0.129428
0.10664
0.106449
0.119295
0.106889
0.107047
0.100004
0.105087
0.0886428
0.0939852
0.0824335
0.084705
0.0813262
0.0814231
0.0823126
0.0817368
0.0800363
0.0822881
0.0716277
0.0758506
0.0670387
0.0686507
0.066072
0.0663227
0.0660657
0.0671624
0.0669225
0.0639535
0.0638545
0.121949
0.110449
0.0912764
0.0918389
0.0706893
0.0674573
0.0697909
0.0692037
0.0649526
0.0643283
0.0641528
0.0671569
0.0640271
0.0647588
0.0658313
0.0652744
0.0684761
0.0668076
0.0750398
0.0712257
0.0809576
0.0788325
0.0795741
0.0808584
0.0762928
0.0779276
0.0736732
0.0748492
0.0724466
0.0728371
0.0739387
0.0727125
0.080759
0.0765351
0.0918967
0.0862127
0.0966798
0.095867
0.128422
0.129489
0.106179
0.118946
0.0833497
0.0884931
0.0736518
0.077983
0.0693384
0.0707939
0.0691506
0.0688861
0.0710382
0.0699055
0.0740583
0.0724493
0.0768395
0.0756712
0.074086
0.0765366
0.0672849
0.0704748
0.0642956
0.0652841
0.0639198
0.064047
0.0966332
0.0917176
0.0708213
0.0677673
0.064541
0.0711514
0.0646906
0.0608463
0.0610785
0.060733
0.0674042
0.077166
0.0813964
0.105816
0.091601
0.0695477
0.0701917
0.064785
0.0680797
0.0613219
0.0609766
0.0650568
0.0713124
0.0617365
0.0626192
0.0620828
0.0648545
0.0634913
0.0699763
0.0669612
0.0757112
0.0733402
0.0751094
0.0761548
0.0716186
0.0734621
0.0679708
0.0697598
0.0648925
0.0663363
0.0625355
0.063618
0.0612332
0.0617059
0.0621073
0.0612904
0.0673687
0.0640066
0.0719737
0.0963772
0.121741
0.110058
0.128468
0.129495
0.118867
0.0776096
0.0692069
0.0740667
0.0610935
0.0646075
0.0579866
0.058983
0.0581043
0.0577674
0.0598048
0.0588177
0.0623934
0.061005
0.0657359
0.0639792
0.0693732
0.0675713
0.0717193
0.0709315
0.0683015
0.070861
0.062965
0.0652697
0.0616664
0.060519
0.0606036
0.060591
0.0605274
0.060742
0.064672
0.082746
0.0784976
0.057638
0.0585355
0.057101
0.0563612
0.0677071
0.0716305
0.0705801
0.0653575
0.0699039
0.0566705
0.0585266
0.0683871
0.0614724
0.0579914
0.0615126
0.0605995
0.0593432
0.0647945
0.0623901
0.0699856
0.0676377
0.0702207
0.0708613
0.0670829
0.0687949
0.0635457
0.0653042
0.060233
0.0618492
0.0572996
0.05871
0.0549322
0.0560373
0.053156
0.0539603
0.0522872
0.052575
0.0531462
0.0524145
0.0574409
0.0547131
0.0659827
0.0613249
0.0703396
0.0962446
0.0830075
0.121831
0.109682
0.128433
0.129463
0.105478
0.119033
0.0786055
0.0914938
0.0671889
0.0589112
0.0633906
0.0520734
0.0549816
0.0494585
0.0503362
0.0493689
0.0491995
0.0505333
0.0498368
0.0524079
0.0514022
0.0548883
0.05357
0.0578971
0.0563387
0.0612458
0.0595411
0.0645881
0.0629653
0.0661524
0.0658542
0.0624636
0.0648805
0.0601161
0.0564807
0.0567458
0.0561584
0.0562831
0.0561673
0.0613251
0.0647535
0.0719046
0.0575993
0.0549546
0.0567522
0.0536687
0.0516247
0.0551529
0.0785381
0.0686279
0.0721101
0.0709431
0.0687109
0.0564572
0.0508893
0.0505808
0.0564197
0.0612684
0.0680227
0.0656249
0.0705501
0.0572984
0.0615297
0.0537137
0.0556572
0.0544942
0.0593608
0.0572962
0.0638533
0.0617115
0.0647548
0.0649736
0.0622073
0.0636639
0.0590616
0.0606356
0.0560684
0.0575323
0.0533676
0.054679
0.0509748
0.0521305
0.0489696
0.0499144
0.0475136
0.0481663
0.0466187
0.0469929
0.046493
0.0464348
0.0477265
0.0468762
0.0492198
0.0725713
0.0960067
0.0829298
0.122065
0.109458
0.128364
0.129428
0.105332
0.119227
0.0912845
0.0531323
0.046972
0.0495564
0.0443479
0.0453255
0.0436999
0.0438574
0.0440687
0.0437875
0.0450491
0.0444958
0.0465909
0.0457498
0.0485976
0.0475455
0.0509752
0.0497421
0.0536779
0.052291
0.0566354
0.0551327
0.0594998
0.0581343
0.0602313
0.0604067
0.0587915
0.0521247
0.0527458
0.0514228
0.0517115
0.051286
0.0512412
0.0515173
0.0648929
0.0531584
0.0595358
0.0574174
0.0541846
0.0527191
0.0570128
0.0612615
0.0724791
0.0725771
0.0713355
0.069052
0.0504223
0.056473
0.0395321
0.0616435
0.0473635
0.0658405
0.0526518
0.0483492
0.0502085
0.0491363
0.0536474
0.0517383
0.0575383
0.0556549
0.0588497
0.0587244
0.0570107
0.0581327
0.0544226
0.0557301
0.0519163
0.0531428
0.0496552
0.0507505
0.047689
0.0486356
0.0460115
0.0468132
0.0446579
0.0452895
0.0437156
0.044129
0.0432794
0.0434297
0.0433773
0.0432621
0.0441441
0.043655
0.0460653
0.0449103
0.0502757
0.0477721
0.0538563
0.0731164
0.0640232
0.095661
0.0829874
0.122306
0.109515
0.128315
0.129419
0.105467
0.11941
0.0785653
0.0910056
0.0615056
0.0690004
0.0522554
0.0458932
0.0485496
0.0427866
0.0440583
0.0413525
0.0419252
0.0408036
0.0409952
0.0408105
0.0407434
0.0413366
0.0410103
0.0423155
0.0417762
0.0436477
0.0429428
0.0452805
0.0444258
0.047226
0.0462157
0.0494521
0.048305
0.051911
0.0506593
0.05418
0.0531368
0.0546879
0.0480804
0.050967
0.0493905
0.0464915
0.0471317
0.0458155
0.046075
0.0450094
0.0455635
0.0441425
0.0445295
0.0433147
0.0435228
0.0503436
0.0438152
0.0651839
0.0586171
0.0521693
0.047689
0.0731332
0.0910024
0.0484574
0.0507612
0.0637336
0.0567636
0.0730715
0.0503324
0.0717663
0.0565953
0.0618284
0.069399
0.0660843
0.0681037
0.0400502
0.0353199
0.0326562
0.0395074
0.0306621
0.0566915
0.0610188
0.0392544
0.0563783
0.0369168
0.0374484
0.0707668
0.0682
0.0517127
0.0482613
0.0470936
0.052439
0.0513243
0.0465161
0.0594862
0.0401777
0.0460111
0.041438
0.0408272
0.0427476
0.042069
0.0446174
0.0435708
0.0477674
0.0460137
0.0512551
0.0496221
0.0528016
0.0524251
0.0516853
0.0524515
0.0497513
0.0507413
0.0478313
0.0487702
0.0461107
0.0469419
0.0446529
0.0453472
0.0434649
0.0440252
0.0425546
0.0429743
0.0419361
0.0422078
0.0416383
0.0417439
0.0417295
0.0416297
0.0423093
0.0419496
0.0434775
0.0428183
0.0453724
0.0443121
0.0467193
0.0584475
0.0732208
0.0671037
0.0953923
0.0829413
0.122523
0.109762
0.128336
0.129466
0.105724
0.119579
0.0784931
0.090829
0.0690997
0.0492233
0.0449531
0.0467967
0.0423795
0.0435186
0.0407472
0.0414736
0.0397394
0.0401702
0.0392748
0.0394465
0.0392448
0.0392116
0.0395592
0.0393632
0.040168
0.0398286
0.0410493
0.0405752
0.0422016
0.0415902
0.0436337
0.0428835
0.0453187
0.0444424
0.0472227
0.0462519
0.048793
0.0481295
0.0480626
0.0488568
0.0450893
0.0466526
0.042321
0.0435677
0.0408151
0.0414281
0.0396387
0.0402456
0.0384773
0.0390209
0.0379561
0.045881
0.0392215
0.032367
0.0649116
0.07247
0.0538074
0.0373262
0.0588459
0.0451105
0.0538677
0.052454
0.035961
0.0607981
0.068242
0.0710514
0.0736747
0.0504216
0.0302017
0.0561334
0.0331436
0.0326877
0.0362823
0.0735906
0.056782
0.0620813
0.0509724
0.0954304
0.0722221
0.0445765
0.0455475
0.0313167
0.0697612
0.0663755
0.0666027
0.0646752
0.0452852
0.0548991
0.0653282
0.0642521
0.0375195
0.0369251
0.0393036
0.0383126
0.0421796
0.0405831
0.0453615
0.0438896
0.0469935
0.0464606
0.046537
0.0469541
0.0452807
0.0459403
0.0439897
0.0446191
0.0428594
0.0434001
0.0419525
0.0423751
0.0412874
0.04159
0.0408666
0.0410462
0.0406933
0.0407493
0.0407691
0.0406997
0.0411112
0.0409047
0.041774
0.0413971
0.0428706
0.0422581
0.0445905
0.0436364
0.047137
0.0457549
0.0506537
0.0487521
0.0556299
0.0529173
0.0589078
0.0632251
0.0580122
0.0733699
0.0679466
0.0953758
0.0827922
0.122714
0.110053
0.128454
0.129594
0.10599
0.119739
0.0783306
0.0908773
0.0644083
0.069293
0.056705
0.0612872
0.0576581
0.051492
0.0542852
0.0471598
0.0491424
0.0440235
0.0454742
0.0417611
0.0427868
0.0402472
0.0409266
0.0392587
0.0396985
0.0386437
0.0389113
0.0383166
0.0384472
0.0382415
0.0382485
0.0384065
0.0382942
0.0388067
0.0385771
0.0394546
0.0390985
0.0403519
0.0398738
0.0414867
0.0408911
0.0427614
0.0421279
0.0435302
0.0432867
0.0423639
0.043252
0.0396249
0.0410721
0.0370306
0.038203
0.0354091
0.0361296
0.0341717
0.034739
0.0336267
0.0482378
0.0414791
0.0352366
0.0360868
0.0344899
0.0647818
0.072959
0.0663473
0.0516209
0.0507211
0.0402515
0.093981
0.0559434
0.0606667
0.0300274
0.0295351
0.0321563
0.074245
0.0684564
0.0714606
0.0622281
0.0570568
0.0559468
0.0609849
0.0644823
0.0622549
0.06218
0.0623836
0.0345642
0.0559292
0.0349787
0.0722238
0.0745498
0.0711928
0.0685981
0.141288
0.0741418
0.146582
0.20449
0.056502
0.0409067
0.0918692
0.069321
0.0506487
0.0392132
0.0346186
0.0370305
0.0432959
0.039452
0.0326478
0.0726955
0.0667196
0.0449864
0.0791992
0.070149
0.248901
0.26431
0.176074
0.0392976
0.0775145
0.230568
0.0774784
0.0800101
0.0520392
0.0530836
0.0450642
0.0444005
0.0347601
0.0337586
0.0373513
0.0359477
0.0402569
0.038875
0.0418459
0.0412598
0.0419296
0.0420412
0.0413143
0.0416578
0.0406333
0.040962
0.0400903
0.0403408
0.0397419
0.0398891
0.0396082
0.0396489
0.0396824
0.0396192
0.03996
0.0397969
0.0404263
0.0401699
0.0410902
0.0407318
0.0419926
0.0415077
0.0432157
0.0425568
0.0449021
0.0439896
0.0472668
0.0459829
0.050584
0.0487848
0.0551113
0.0526935
0.0578638
0.0631191
0.0667727
0.0632665
0.0734792
0.0682184
0.0956093
0.0826093
0.122912
0.110347
0.128676
0.129817
0.106239
0.119915
0.0782052
0.0911086
0.0647259
0.0694368
0.0641859
0.0633612
0.0566125
0.0597982
0.051298
0.0537898
0.0472305
0.0491102
0.0442821
0.0456378
0.0421536
0.0431324
0.0405966
0.0413165
0.039432
0.0399737
0.0385477
0.0389595
0.0378824
0.0381898
0.0374108
0.0376229
0.037132
0.0372466
0.0370601
0.0370692
0.0372077
0.0371062
0.0375787
0.0373651
0.0381527
0.0378453
0.0387764
0.038479
0.0389038
0.0389589
0.0375753
0.0384544
0.0350134
0.0363903
0.0326291
0.0336933
0.0311063
0.0317867
0.0305475
0.0359114
0.0383141
0.0467218
0.0418835
0.171854
0.0314855
0.0435415
0.0648084
0.02725
0.0290321
0.0734966
0.0723407
0.0951362
0.11901
0.0511123
0.0760236
0.0611483
0.0787472
0.0453711
0.0900573
0.0574423
0.0340735
0.0522588
0.0685152
0.0675856
0.0627354
0.0308933
0.0578326
0.0355454
0.0400509
0.0304076
0.060613
0.0470249
0.0312865
0.0583248
0.0330759
0.0306128
0.0322316
0.0830078
0.0748332
0.0687439
0.0719127
0.176472
0.0673429
0.122221
0.0995204
0.109185
0.080916
0.0652279
0.0886538
0.0590475
0.0721581
0.0531012
0.0318974
0.0332672
0.0843393
0.0310935
0.0550867
0.0557471
0.0343533
0.0324651
0.0369468
0.040394
0.0747157
0.22801
0.133045
0.166509
0.14101
0.0670973
0.0502443
0.0697159
0.038734
0.0315186
0.0467111
0.0643126
0.0708431
0.0864909
0.0609017
0.0931199
0.073183
0.268169
0.260034
0.221026
0.19748
0.0469467
0.0466166
0.0705605
0.0442654
0.0915559
0.258032
0.265153
0.242553
0.205873
0.0382965
0.0915345
0.100828
0.192722
0.252846
0.0940214
0.242347
0.0521764
0.0579312
0.0593129
0.268478
0.107912
0.0447168
0.160983
0.0339496
0.0328757
0.0363534
0.0351756
0.0378612
0.0372786
0.0382393
0.0381587
0.0381498
0.0382193
0.0380265
0.0380781
0.0380342
0.0380098
0.0382227
0.0381049
0.0386013
0.0383884
0.0391571
0.0388589
0.0398645
0.0394922
0.040705
0.0402705
0.041662
0.0411675
0.042783
0.0421969
0.0441618
0.0434329
0.0459349
0.0449884
0.048294
0.0470273
0.0514747
0.0497658
0.0557382
0.0534538
0.0613832
0.0583662
0.0686056
0.0648079
0.0772079
0.0727099
0.0824973
0.069094
0.0737258
0.0684102
0.0694048
0.0735517
0.0686179
0.095895
0.0826186
0.123132
0.110598
0.128979
0.130122
0.106449
0.120118
0.0782818
0.0913831
0.0652186
0.0695519
0.0681405
0.0654931
0.073242
0.0687938
0.0819861
0.0717723
0.0763957
0.0637521
0.0676065
0.0571503
0.060251
0.0520807
0.0544423
0.0482442
0.0500266
0.0453637
0.0467003
0.0431911
0.0442033
0.0415115
0.042301
0.0401626
0.0408035
0.0390323
0.0395755
0.0380508
0.0385254
0.0371993
0.0376078
0.0365007
0.0368292
0.0359699
0.0362132
0.035627
0.035774
0.0354934
0.0355348
0.0355252
0.0354927
0.0355996
0.0355723
0.0352922
0.0355434
0.0339416
0.0347681
0.0316298
0.0328491
0.0295389
0.0304854
0.0282147
0.0288028
0.0277147
0.0631584
0.0642623
0.0424494
0.0310553
0.0536117
0.0325294
0.0472647
0.0402191
0.0344384
0.0368467
0.0312672
0.0326051
0.0300924
0.0304563
0.0300664
0.0649102
0.0284863
0.0635907
0.0946629
0.0740505
0.148424
0.0811237
0.0718565
0.0906733
0.0325595
0.0303823
0.0312226
0.0449432
0.0407248
0.0404078
0.0353041
0.0303717
0.0304977
0.0504012
0.0314117
0.0342995
0.0371789
0.0591985
0.0489897
0.0309718
0.0453242
0.0327219
0.0349811
0.0310712
0.0605882
0.0306452
0.0327992
0.035343
0.0492394
0.100245
0.075453
0.0690664
0.0723981
0.20354
0.0868875
0.15081
0.126372
0.118009
0.0675128
0.0506491
0.0878491
0.0934183
0.0814824
0.0893093
0.0330432
0.0439655
0.0555318
0.0333461
0.0337775
0.0369948
0.0430722
0.0529981
0.0504508
0.107743
0.0753185
0.245487
0.173322
0.036741
0.0709974
0.0352847
0.0497393
0.0381861
0.0505437
0.106592
0.0736933
0.264254
0.223417
0.175744
0.0434487
0.106681
0.0732449
0.159429
0.256215
0.233688
0.037443
0.10827
0.218502
0.0522552
0.0583352
0.114592
0.259931
0.0636382
0.0488224
0.272559
0.12793
0.0369838
0.0443089
0.122389
0.125798
0.0580481
0.14014
0.030551
0.0295345
0.0313101
0.0304255
0.0335377
0.0324889
0.0350046
0.0343924
0.0356967
0.0354163
0.0360604
0.0358942
0.0364369
0.0362345
0.0369538
0.0366762
0.0376383
0.0372737
0.0384958
0.0380473
0.0394941
0.0389799
0.0405888
0.0400325
0.0417441
0.0411589
0.0429543
0.0423436
0.0442339
0.0435804
0.0457026
0.0449336
0.0475315
0.0465614
0.0499106
0.0486385
0.05307
0.0513776
0.0572457
0.0550167
0.0626478
0.0597814
0.069494
0.0658723
0.0780201
0.0735459
0.0828014
0.0893658
0.077306
0.0812865
0.0694716
0.073698
0.0736274
0.0691765
0.0961847
0.0828497
0.123373
0.110815
0.129329
0.130474
0.106651
0.120351
0.0785692
0.0916755
0.0657777
0.0696829
0.0715239
0.0664731
0.0766493
0.0929669
0.0820506
0.0871941
0.0726761
0.0772154
0.0648421
0.0685424
0.0586038
0.0615428
0.0536913
0.0559944
0.0499031
0.0516699
0.0470167
0.048362
0.0447975
0.0458378
0.0430352
0.0438706
0.0415628
0.0422728
0.0402315
0.0408865
0.0389701
0.0395919
0.037787
0.0383698
0.0366883
0.037225
0.035705
0.03618
0.0348991
0.0352772
0.0343068
0.0345779
0.0338883
0.0340797
0.0335485
0.033721
0.0329816
0.0333255
0.03169
0.0324529
0.0297134
0.030736
0.02799
0.0287695
0.0269154
0.0273864
0.0265659
0.0680093
0.100707
0.0831969
0.137719
0.11936
0.156619
0.169798
0.154718
0.128197
0.14353
0.105503
0.124698
0.0872502
0.035679
0.0376441
0.0383053
0.0325171
0.0340695
0.0307582
0.0314589
0.0304644
0.0311508
0.0307589
0.0327242
0.0418764
0.031436
0.0389156
0.0430598
0.0559673
0.0485059
0.0360193
0.0390319
0.0322362
0.033889
0.0305904
0.0310599
0.0302706
0.0302884
0.0305209
0.065057
0.0280398
0.033953
0.0332825
0.0431959
0.112215
0.0746419
0.177104
0.104955
0.0811325
0.0976422
0.108692
0.0679801
0.0279932
0.0319396
0.0271552
0.0375213
0.100001
0.0998027
0.0348091
0.0600866
0.0396101
0.0434958
0.0367947
0.185138
0.0327412
0.0327635
0.0340201
0.045095
0.0397001
0.0324683
0.038364
0.0324054
0.0332431
0.0321735
0.060552
0.0263308
0.0301249
0.0375431
0.0407126
0.0289802
0.0299534
0.0448058
0.0585645
0.14326
0.11857
0.0314719
0.0294708
0.0760933
0.0693725
0.072882
0.226014
0.0613333
0.0708314
0.0617621
0.109216
0.178317
0.153637
0.149892
0.0452725
0.0674098
0.0529977
0.0319533
0.0714622
0.0344253
0.0261263
0.0810081
0.0662104
0.0361461
0.0385083
0.0552676
0.0332074
0.0462105
0.0517554
0.0446124
0.182787
0.171377
0.121531
0.0759436
0.256251
0.202143
0.0345641
0.142641
0.0742319
0.049178
0.083511
0.0968667
0.0376275
0.0807672
0.0905617
0.0701903
0.113503
0.122338
0.0531149
0.124415
0.262165
0.242409
0.207247
0.0426756
0.104903
0.100194
0.160959
0.146617
0.123685
0.187436
0.0523814
0.0586122
0.0720319
0.0807935
0.0891156
0.098702
0.103786
0.110715
0.110032
0.111667
0.127569
0.242136
0.0641058
0.0602951
0.26911
0.13766
0.272118
0.0685029
0.081125
0.148986
0.0365919
0.0439354
0.0273972
0.0285097
0.0295634
0.0307334
0.0300543
0.0324932
0.0316253
0.0338858
0.0332624
0.0347638
0.0343676
0.0354898
0.0351312
0.0362703
0.0358617
0.0372083
0.036717
0.0383197
0.0377427
0.0395852
0.0389344
0.0409592
0.0402635
0.0423667
0.0416632
0.0437472
0.0430629
0.0450904
0.04442
0.0464578
0.0457677
0.0479394
0.0471738
0.0497433
0.0487851
0.052104
0.0508412
0.0552404
0.0535608
0.05938
0.0571719
0.0647131
0.0618882
0.0713683
0.0678708
0.0794302
0.0752164
0.0889674
0.0840214
0.0995444
0.0941735
0.111226
0.105168
0.11707
0.0979489
0.107355
0.0829748
0.0901955
0.0704885
0.075565
0.0738428
0.0697377
0.0964676
0.0831838
0.123637
0.111019
0.129712
0.130853
0.106865
0.120626
0.0789384
0.0919666
0.0663409
0.0699996
0.0731235
0.0675243
0.0894281
0.0811767
0.107007
0.0976987
0.116657
0.104807
0.110973
0.0936007
0.0990504
0.0833245
0.0883351
0.0743791
0.0786621
0.0669003
0.0704646
0.0607776
0.0636738
0.0559132
0.0581964
0.0521481
0.0539055
0.0492707
0.0506128
0.0470552
0.0480931
0.0452939
0.0461321
0.0437593
0.0445107
0.0422992
0.0430241
0.0408531
0.0415785
0.0393804
0.040121
0.0379103
0.0386414
0.0365201
0.0371979
0.0353298
0.035897
0.0343716
0.0348264
0.0335897
0.0339616
0.0329274
0.0332536
0.0321745
0.0325797
0.0310276
0.0316679
0.0295101
0.0302804
0.028197
0.0288009
0.0277159
0.117248
0.0984703
0.153727
0.136101
0.182483
0.16925
0.193782
0.202414
0.193449
0.176402
0.188494
0.159273
0.175078
0.122012
0.141355
0.102535
0.0563393
0.0488593
0.0333161
0.034762
0.0314305
0.0322546
0.030817
0.030997
0.0309098
0.0307927
0.0312169
0.0575065
0.0322896
0.0361637
0.0322029
0.0350402
0.038347
0.0471952
0.0420352
0.0337312
0.035675
0.0313371
0.0323172
0.030794
0.0309496
0.031018
0.0308017
0.0314558
0.0651833
0.027656
0.038893
0.0367139
0.032603
0.0507175
0.130237
0.0293258
0.0283325
0.0752529
0.0794488
0.203086
0.0450478
0.052999
0.130278
0.127936
0.0529196
0.0277704
0.0343846
0.0382711
0.070881
0.0339232
0.0356295
0.0719646
0.0347744
0.0348638
0.0642147
0.0360377
0.0355455
0.0261862
0.0574586
0.0352837
0.0547401
0.0668813
0.0391363
0.056673
0.0341282
0.0386045
0.0363858
0.0353393
0.0358349
0.0341928
0.0341071
0.0604831
0.0261221
0.0296204
0.0464105
0.0492107
0.0294595
0.0546197
0.0713625
0.159408
0.134612
0.0290917
0.0767661
0.0696587
0.0733742
0.0957603
0.0775596
0.0360623
0.242579
0.0716031
0.131177
0.202065
0.178585
0.180181
0.0525982
0.0392648
0.109297
0.0586486
0.074794
0.106351
0.121189
0.125109
0.111806
0.120099
0.0477403
0.0551624
0.0419729
0.0407597
0.0375017
0.0549597
0.0326376
0.0372528
0.143422
0.0702965
0.0638857
0.0443618
0.0291624
0.0281343
0.0998157
0.184352
0.137204
0.0421809
0.0915304
0.0765884
0.105895
0.260839
0.0908328
0.0968331
0.22491
0.0313565
0.174634
0.0300804
0.0296214
0.0382165
0.0486204
0.0370606
0.0921695
0.132415
0.20973
0.203077
0.139182
0.151834
0.0391788
0.254434
0.107924
0.0527568
0.0588048
0.0419659
0.0328869
0.109917
0.163769
0.142378
0.215514
0.115838
0.0645338
0.0739404
0.257357
0.199573
0.189641
0.148933
0.261954
0.0690334
0.277392
0.0891444
0.159132
0.0724894
0.0675945
0.035398
0.0383822
0.0381281
0.0359687
0.0289355
0.0325057
0.0329722
0.0326616
0.0339152
0.0333947
0.0350601
0.0345206
0.0360039
0.0355435
0.0369345
0.0364631
0.0380022
0.0374428
0.0392672
0.0386061
0.0406991
0.0399641
0.0422646
0.0414673
0.0438901
0.0430755
0.0454759
0.0446945
0.0469387
0.0462255
0.0482653
0.0476166
0.0495401
0.0488986
0.0509417
0.050215
0.0526498
0.051742
0.0549332
0.0537018
0.0580349
0.0563693
0.0621511
0.0599542
0.0674475
0.0646438
0.0740117
0.070569
0.0818461
0.0777752
0.0908612
0.086214
0.10087
0.0957584
0.1113
0.106094
0.11638
0.120938
0.103902
0.11283
0.0849554
0.0946366
0.0713965
0.0765896
0.0743283
0.0703118
0.0967736
0.0836231
0.123985
0.111274
0.130188
0.131321
0.10715
0.120997
0.0793852
0.0922887
0.0669309
0.0705251
0.0739997
0.0684101
0.0927048
0.0826815
0.102571
0.12467
0.116093
0.120913
0.10568
0.110946
0.0952322
0.100401
0.0855692
0.0902752
0.0770146
0.0811438
0.0696839
0.0731901
0.0636235
0.0664961
0.0587874
0.061059
0.0550443
0.0567904
0.0522063
0.0535246
0.0500697
0.0510653
0.0483736
0.0491835
0.0468921
0.0476158
0.0454618
0.0461819
0.0439317
0.0447132
0.0422652
0.0431144
0.0405245
0.0413938
0.0388694
0.039674
0.0374144
0.0381175
0.0361456
0.0367555
0.0350483
0.0355741
0.0341425
0.0345748
0.0333518
0.0337437
0.0324021
0.0329163
0.031232
0.0318297
0.0306315
0.0659985
0.0977106
0.0803101
0.13595
0.116762
0.169997
0.153973
0.194518
0.183516
0.210259
0.203314
0.215697
0.220147
0.215778
0.20852
0.215646
0.199858
0.208721
0.175049
0.188715
0.140334
0.158818
0.10079
0.120614
0.0823868
0.0426846
0.0325942
0.0334968
0.031689
0.0319458
0.0316524
0.0316146
0.032006
0.0317848
0.0330463
0.0323536
0.03429
0.0343495
0.0350621
0.0346488
0.0345477
0.0416645
0.0558622
0.0468085
0.0357987
0.0382269
0.0327839
0.0340756
0.0316949
0.0319818
0.0316947
0.0316144
0.032241
0.031891
0.0335604
0.0327689
0.0390188
0.0652847
0.0272972
0.0476229
0.0360678
0.0320251
0.0616903
0.147086
0.028726
0.0758906
0.0868909
0.0301489
0.0314745
0.224174
0.0625699
0.155054
0.15828
0.045459
0.130512
0.0774551
0.0753842
0.100601
0.0342661
0.0342594
0.116721
0.186578
0.0400487
0.047453
0.127146
0.126417
0.0817254
0.0662614
0.0370062
0.0392048
0.0383801
0.0390189
0.0384871
0.039787
0.0368914
0.0379223
0.0373028
0.0401006
0.0379232
0.0603825
0.0259233
0.0291453
0.0413739
0.0332466
0.0344677
0.0299382
0.0615877
0.0627009
0.0290391
0.0874845
0.173982
0.150563
0.0400902
0.0648168
0.0774683
0.0699257
0.0738707
0.0999351
0.0976398
0.0317892
0.0395184
0.0842071
0.0749748
0.252952
0.045784
0.0809661
0.200034
0.131324
0.205046
0.0540917
0.0345184
0.137553
0.0359775
0.035655
0.0293229
0.0462853
0.0390443
0.0452164
0.044703
0.0496951
0.0546485
0.0320912
0.0327457
0.032859
0.0533384
0.0816212
0.0418086
0.0887693
0.0740154
0.0278595
0.118744
0.195626
0.153561
0.0392607
0.22458
0.11495
0.0404577
0.0772542
0.105084
0.220963
0.222154
0.226002
0.259467
0.0509011
0.0574476
0.0450386
0.101552
0.11989
0.0947047
0.0668328
0.0589964
0.241787
0.0480839
0.0560078
0.0506561
0.0289601
0.0362821
0.10414
0.0383462
0.0399538
0.0325614
0.0288597
0.150898
0.210873
0.156926
0.231623
0.228929
0.230195
0.138138
0.181412
0.0689779
0.0658813
0.11638
0.242212
0.0649229
0.0929867
0.0417622
0.0377517
0.041284
0.0513181
0.037755
0.111178
0.117894
0.236989
0.179027
0.224064
0.220509
0.162168
0.226799
0.113452
0.241591
0.0695599
0.274398
0.0793622
0.200731
0.170258
0.276019
0.0730138
0.0759867
0.0938953
0.21564
0.179893
0.0435459
0.128639
0.039843
0.035053
0.0362138
0.0320438
0.0340586
0.0342673
0.032859
0.0399355
0.0390034
0.0393247
0.0388972
0.0388719
0.0392776
0.0390298
0.0400861
0.0396494
0.0411072
0.0405796
0.0423129
0.0416764
0.0437313
0.0429838
0.0453287
0.0445125
0.0470223
0.0461707
0.0487044
0.047873
0.0502369
0.049496
0.0515357
0.0509176
0.052615
0.0520972
0.0536045
0.0531092
0.0547306
0.0541324
0.0562776
0.0554375
0.0584604
0.0572744
0.061525
0.0598688
0.0656484
0.0634465
0.070942
0.0681442
0.0774473
0.0740438
0.0850982
0.0811361
0.0937206
0.0893051
0.103053
0.0983178
0.112635
0.107868
0.121397
0.117194
0.128107
0.125105
0.130178
0.129953
0.12898
0.121961
0.127123
0.105319
0.114435
0.0852999
0.0953595
0.071963
0.0770521
0.0748779
0.0708073
0.0971061
0.0840753
0.124516
0.11164
0.130876
0.132007
0.107516
0.121535
0.0797889
0.0925993
0.067429
0.0710357
0.0743355
0.068933
0.0931429
0.0829065
0.112988
0.103545
0.126183
0.120778
0.128275
0.129538
0.129572
0.124873
0.127836
0.116912
0.121147
0.107504
0.112315
0.0978567
0.102641
0.0887469
0.0932113
0.0804741
0.0844893
0.0732684
0.0767298
0.0672443
0.0701059
0.0624075
0.064681
0.0586721
0.0604102
0.0559005
0.0571767
0.0538751
0.0548104
0.0523666
0.053069
0.0511339
0.0517353
0.0499068
0.0505341
0.048509
0.0492374
0.0468795
0.0477197
0.0451367
0.0460104
0.0434113
0.0442682
0.0417748
0.0425795
0.0402774
0.0410103
0.0390157
0.0396088
0.0381086
0.0385141
0.0374267
0.0377598
0.0367335
0.037089
0.0363532
0.0818001
0.0681462
0.11826
0.0990152
0.156038
0.13778
0.185996
0.172286
0.205767
0.197107
0.217452
0.212398
0.224672
0.221404
0.227468
0.210332
0.217066
0.19039
0.20157
0.159935
0.176478
0.120871
0.141151
0.100494
0.0552452
0.0425567
0.0474396
0.0392872
0.0330302
0.0334422
0.0329094
0.0329104
0.0331434
0.0329965
0.0335869
0.0333378
0.0345178
0.0339033
0.0355985
0.040653
0.0627284
0.0382647
0.0387909
0.0369279
0.0386827
0.0417421
0.0349074
0.0364704
0.0330497
0.0337334
0.0328365
0.0328341
0.0332176
0.0329791
0.0339208
0.033528
0.0352566
0.034467
0.0363165
0.06536
0.0269395
0.0306651
0.0336108
0.0620443
0.0354886
0.0314998
0.0756118
0.162715
0.276882
0.316473
0.0421532
0.0479907
0.0366393
0.0450812
0.0661953
0.0316761
0.0375245
0.0565442
0.124779
0.0352199
0.0765501
0.092595
0.0437529
0.0342948
0.065763
0.239458
0.146533
0.0696356
0.17962
0.165182
0.183835
0.038979
0.0459764
0.0471002
0.0486358
0.099196
0.134954
0.0409579
0.0663082
0.0426394
0.0287993
0.0638561
0.0406046
0.0352384
0.0452546
0.0348807
0.0390292
0.0472585
0.0455933
0.0450777
0.0394314
0.041516
0.0568681
0.0602844
0.0263159
0.025802
0.0287121
0.035026
0.0479097
0.0698283
0.0486066
0.0826322
0.043873
0.0570767
0.233325
0.0434882
0.0512737
0.0286914
0.106611
0.187081
0.166241
0.232526
0.234563
0.23482
0.233068
0.26471
0.302203
0.0446051
0.0450737
0.0458023
0.0816251
0.0434404
0.0339901
0.0288814
0.0781921
0.0701603
0.0743638
0.101557
0.22845
0.146401
0.0370672
0.0341684
0.0892553
0.0811195
0.0637925
0.0730507
0.258718
0.258061
0.0604839
0.0919564
0.0858198
0.0592938
0.0303208
0.217645
0.119419
0.0516566
0.0420774
0.226088
0.192143
0.0401259
0.0426953
0.128931
0.126624
0.124874
0.126452
0.0672357
0.0488068
0.0568689
0.0493041
0.0510604
0.0408213
0.0422295
0.0543507
0.0461485
0.0608811
0.0308652
0.0314698
0.0314628
0.0460762
0.0943823
0.0464059
0.0907663
0.0276943
0.0384189
0.0866628
0.138319
0.205376
0.170124
0.231535
0.127227
0.239788
0.0465088
0.142825
0.0400436
0.0488241
0.0652911
0.077938
0.101853
0.224836
0.0596702
0.0617988
0.252141
0.112748
0.0334819
0.0653103
0.0639013
0.088332
0.286989
0.0431927
0.0475586
0.0431588
0.0275766
0.0351202
0.0346329
0.0318584
0.0603952
0.11572
0.0426742
0.207972
0.0289552
0.167888
0.217522
0.175116
0.229224
0.143469
0.0486224
0.211747
0.0919989
0.0491609
0.0485902
0.0397753
0.122699
0.0700597
0.068106
0.0406435
0.0405954
0.0276295
0.26211
0.0408942
0.033432
0.0692992
0.192237
0.22499
0.181868
0.0474164
0.263755
0.0395845
0.0735092
0.0765962
0.0857151
0.209865
0.190339
0.28249
0.137672
0.0490997
0.0347972
0.0818643
0.0817701
0.0422992
0.0372886
0.038706
0.0375221
0.0368657
0.0361256
0.0425118
0.0393463
0.0423255
0.0540632
0.0507378
0.0521368
0.0490142
0.049721
0.048268
0.0485579
0.0482924
0.0481947
0.0490421
0.0485971
0.0501297
0.0495375
0.0514378
0.050766
0.0528991
0.0521511
0.054424
0.0536667
0.0558118
0.0551444
0.0569178
0.056407
0.0576739
0.0573377
0.0581686
0.0579425
0.0586252
0.058384
0.0593371
0.0589302
0.0606093
0.0598838
0.062721
0.0615489
0.0658149
0.0641375
0.0700082
0.0677689
0.075354
0.0725364
0.0818249
0.0784554
0.0892901
0.0854477
0.097508
0.0933213
0.106176
0.101808
0.114706
0.110511
0.122282
0.118669
0.127946
0.125415
0.130632
0.129747
0.130387
0.127139
0.1212
0.125873
0.104701
0.113893
0.0847034
0.0946487
0.071999
0.0767734
0.0752502
0.0711165
0.0973614
0.0843578
0.125225
0.112069
0.131776
0.13293
0.107892
0.122197
0.0800143
0.0928027
0.0677315
0.0713737
0.0740184
0.0689408
0.0923071
0.0822268
0.112274
0.102756
0.119883
0.126148
0.130035
0.128474
0.129557
0.130386
0.125232
0.12777
0.118442
0.122081
0.110217
0.114447
0.101437
0.105844
0.0928677
0.0970966
0.0849055
0.0887929
0.0778178
0.081236
0.0717922
0.074665
0.0669018
0.0692053
0.0631253
0.064878
0.0603706
0.0616291
0.058507
0.0593353
0.0573282
0.0578507
0.0565281
0.0568988
0.0558165
0.0561796
0.0549407
0.0554096
0.0538066
0.0544051
0.0524235
0.0531414
0.0508807
0.0516673
0.0493033
0.0500879
0.0478975
0.0485636
0.0468327
0.0473129
0.0461304
0.0464375
0.0456922
0.0458905
0.0452892
0.0455028
0.0446667
0.0450323
0.101848
0.0837092
0.141759
0.121754
0.176664
0.160384
0.201246
0.190252
0.216178
0.209756
0.224201
0.220848
0.229008
0.226879
0.232678
0.231387
0.233781
0.234874
0.232169
0.23296
0.233986
0.234634
0.232141
0.233112
0.228183
0.230561
0.219945
0.224726
0.204846
0.213457
0.17989
0.193729
0.143993
0.163246
0.101837
0.123021
0.082551
0.0402237
0.0433123