/*--------------------------------*- C++ -*----------------------------------*\
| =========                 |                                                 |
| \\      /  F ield         | OpenFOAM: The Open Source CFD Toolbox           |
|  \\    /   O peration     | Version:  2212                                  |
|   \\  /    A nd           | Website:  www.openfoam.com                      |
|    \\/     M anipulation  |                                                 |
\*---------------------------------------------------------------------------*/
FoamFile
{
    version     2.0;
    format      ascii;
    arch        "LSB;label=32;scalar=64";
    class       surfaceScalarField;
    location    "0.015";
    object      phi;
}
// * * * * * * * * * * * * * * * * * * * * * * * * * * * * * * * * * * * * * //

dimensions      [1 0 -1 0 0 0 0];

oriented        oriented;

internalField   nonuniform List<scalar> 
4475
(
0.000703463
-0.000719158
0.000472887
-0.000548806
-0.000154363
0.000353244
5.46644e-05
-0.000287614
0.00108415
-0.00121776
0.000187238
-6.35322e-05
0.00032796
0.000168588
-0.000265141
-0.000239705
-0.000573802
0.000518141
0.000554182
-0.00051073
0.000505232
-0.000329905
-0.000565062
0.00038674
-0.000155105
0.000159913
0.00064965
-0.000655813
-0.000428757
-0.000609525
0.000505617
0.000524601
0.000553221
-0.000602749
-0.000535384
-0.000356312
5.79534e-07
3.91226e-05
0.000300642
-7.44364e-05
6.30108e-05
-0.00036185
-0.000443532
3.48e-05
-4.02509e-06
0.000398874
-0.000469238
-1.41583e-05
2.81075e-05
-0.000490997
-2.71027e-05
4.07864e-05
-0.000506022
-3.15771e-05
4.40266e-05
-0.000514225
-3.12911e-05
4.29861e-05
-2.65328e-05
-0.000507058
2.5683e-05
0.000490254
-7.61313e-06
-0.000489059
1.3674e-05
0.00051032
-4.08625e-05
0.0005047
-2.24195e-05
0.000490873
-1.90585e-05
0.000473217
-1.44891e-05
0.000455438
-4.04521e-06
0.000469136
9.13955e-06
0.000388688
-1.0066e-05
0.000343142
2.84984e-05
0.000393776
7.99958e-05
-0.000153395
0.000337428
-3.35648e-05
5.68121e-05
0.000684116
-0.000701444
-0.000138869
-0.00050408
-1.29286e-06
0.000283965
-4.45035e-05
5.26694e-05
0.000219015
-4.84316e-05
5.702e-05
0.000137758
-5.0544e-05
5.89654e-05
4.57608e-05
-4.62619e-05
5.887e-05
-1.94985e-05
-4.22296e-05
6.01958e-05
-3.21142e-05
-4.18157e-05
6.48296e-05
-1.06969e-05
-4.4197e-05
6.77919e-05
2.04161e-05
-4.52203e-05
6.59623e-05
4.55329e-05
-4.26949e-05
5.77419e-05
4.76739e-05
-3.51287e-05
4.2536e-05
2.62605e-05
-2.18237e-05
2.08135e-05
-9.2366e-06
-3.57426e-06
-3.45917e-06
-5.09213e-05
1.98149e-05
-2.3835e-05
-7.44192e-05
4.25769e-05
-4.09606e-05
3.61012e-05
-6.87456e-05
-2.51725e-05
7.14569e-05
-7.55146e-05
4.1361e-05
3.15898e-05
3.42836e-05
-1.33364e-05
1.14374e-05
-4.65096e-05
-8.66835e-06
-6.15968e-05
-2.02127e-05
-5.29193e-05
-2.5666e-05
-2.24424e-05
-2.59943e-05
1.19198e-05
-2.30142e-05
3.47777e-05
-1.95589e-05
1.98635e-05
-1.8533e-05
-4.82632e-05
-2.37386e-05
-0.000138205
-3.32614e-05
-0.000214834
-3.97599e-05
-0.000276595
-4.00774e-05
-0.000326116
-3.20093e-05
-0.000379982
-6.59698e-06
-0.000315349
5.39354e-05
-0.000139154
-0.00034845
5.53368e-05
-0.000357875
5.51297e-05
-0.000389171
4.6117e-05
-3.05507e-05
-0.000441201
3.35118e-05
-0.000469728
4.33923e-05
-0.000492459
5.49747e-05
-0.000508721
5.89377e-05
-0.000515738
5.48948e-05
-0.00052604
4.45232e-05
3.86498e-05
-2.56898e-05
-3.86905e-05
5.20425e-05
-5.02384e-05
0.000509696
-4.74219e-05
-0.000495268
0.000502811
-9.86429e-06
0.000491855
-5.36392e-06
0.00047797
-6.32261e-07
0.00046702
4.0157e-06
0.000457852
1.14568e-05
0.000418844
1.5546e-05
0.000390251
3.77148e-05
0.00038398
6.14477e-05
0.000343524
6.08232e-05
0.000288222
5.97859e-05
0.000223032
6.33149e-05
0.000139275
6.67044e-05
4.9117e-05
7.00651e-05
-1.41e-05
7.73354e-05
-2.8538e-05
8.62284e-05
-1.14553e-05
8.9008e-05
1.25788e-05
8.36341e-05
2.99283e-05
6.90312e-05
2.54349e-05
4.53851e-05
1.29837e-06
1.63975e-05
-3.28077e-05
-1.06832e-05
-6.20031e-05
-2.40091e-05
-6.98975e-05
-3.33019e-05
-5.51457e-05
-1.43729e-05
-2.69653e-05
-0.000500079
4.72178e-05
-1.14029e-05
-2.14996e-05
-5.612e-05
-0.000465213
-0.000526509
1.08551e-05
7.12846e-05
-6.18183e-05
6.00431e-05
5.653e-05
3.74935e-05
1.10054e-05
2.03755e-05
-3.28544e-05
1.19154e-06
-5.98917e-05
-1.21658e-05
-6.7386e-05
-1.70816e-05
-5.34572e-05
-1.52592e-05
-2.01393e-05
-8.43502e-06
1.45074e-05
-7.50515e-07
3.5699e-05
4.71188e-06
1.50465e-05
3.93339e-06
-5.57763e-05
-5.71406e-06
-0.000142222
-1.89937e-05
-0.000212865
-2.68401e-05
-0.000270536
-2.81938e-05
-0.000309511
-2.07014e-05
-0.000334215
2.58557e-07
-0.000329021
3.01746e-05
-0.000337338
4.69007e-05
-0.000361248
5.86053e-05
-0.000392343
5.69771e-05
-0.00043088
5.49256e-05
-0.000462966
6.18521e-05
-0.000487243
7.23665e-05
-0.000507514
8.1065e-05
-0.000523008
7.75473e-05
-0.000530688
6.38801e-05
-0.000516441
0.000819313
-0.000739684
0.000242154
-0.000615463
-0.000113736
0.000485888
-0.000319926
-0.000367475
0.00035103
0.000336984
0.000426894
0.000582603
7.86262e-05
-0.000103649
-0.000544228
0.000520065
2.79529e-05
0.000504588
1.64462e-05
0.000493006
1.59366e-05
0.000484459
1.49194e-05
0.000475249
1.60947e-05
0.000462334
2.0691e-05
0.000437944
2.8844e-05
0.000411519
4.37413e-05
0.000386802
5.72152e-05
0.000347574
6.1732e-05
0.000294926
6.45127e-05
0.000228099
6.86449e-05
0.000145029
7.33702e-05
5.74105e-05
8.13799e-05
-5.09542e-06
9.31419e-05
-2.44123e-05
0.000104591
-1.52798e-05
0.000106599
-8.27272e-07
9.66818e-05
5.90967e-06
7.52604e-05
-2.81185e-06
4.36854e-05
-2.46373e-05
1.04348e-05
-4.9108e-05
-1.41668e-05
-6.29062e-05
-2.10037e-05
-6.16371e-05
-2.19976e-05
-4.31905e-05
-3.47784e-06
-1.01174e-05
2.85649e-06
3.07366e-06
-1.80655e-06
-1.3869e-06
4.47742e-06
-7.21755e-06
1.39446e-05
-2.3535e-05
2.83714e-05
-4.2456e-05
-0.000514508
0.000484224
-0.000590846
-6.49446e-05
4.22035e-05
-0.00070971
-0.00060208
0.000789499
-0.000538185
0.00072665
0.000421619
-0.000610712
-5.50547e-05
-0.000515939
0.000671149
-0.00051753
0.000675496
-0.000835087
0.000528839
0.000509736
-0.000533765
-0.000644113
-6.56709e-06
0.000161041
-0.000548709
4.23864e-05
-2.1704e-05
1.8435e-05
5.07474e-06
-2.55339e-05
8.05259e-06
-1.42287e-05
-1.52587e-05
5.85448e-06
-3.81068e-05
2.54895e-05
-6.48611e-05
8.35806e-05
4.59645e-05
-9.44854e-05
6.63068e-05
4.78284e-05
5.39321e-05
5.67823e-05
3.18685e-05
2.63877e-05
-1.14159e-05
6.05606e-06
-4.7266e-05
-7.36785e-06
-6.62488e-05
-1.42993e-05
-6.62353e-05
-1.17511e-05
-4.7122e-05
-2.11247e-06
-1.26021e-05
9.51774e-06
1.87921e-05
2.07962e-05
3.49337e-05
2.72056e-05
5.14567e-06
2.52438e-05
-6.73103e-05
1.1575e-05
-0.000147955
-3.68759e-06
-0.000213686
-1.23409e-05
-0.000262678
-1.45023e-05
-0.000292897
-8.71497e-06
-0.000311407
6.52766e-06
-0.000321778
2.60995e-05
-0.000336501
4.61122e-05
-0.000358036
5.7228e-05
-0.000388508
6.53736e-05
-0.000421236
7.01578e-05
-0.000450701
7.95072e-05
-0.000477126
9.46607e-05
-0.000500169
0.000107485
-0.000521945
0.000109419
9.59784e-05
-0.000539765
0.000104193
-6.74809e-05
-0.000591414
0.000563651
0.000774207
-0.00083412
0.000711129
-0.000736817
0.000503656
-0.000498083
0.000540414
0.000648991
0.000121936
4.21253e-05
0.000646105
0.000183665
-0.000186007
0.000622602
0.000181552
0.000590467
0.000166331
-0.000130585
0.000559882
0.000143337
0.000543126
0.000122332
-9.33394e-05
0.00053828
9.87564e-05
0.000514103
6.89113e-05
0.000498583
4.85802e-05
0.000490224
4.01006e-05
0.000485875
3.2599e-05
0.000479441
3.06994e-05
0.000469628
3.04827e-05
0.000449534
3.76199e-05
0.000423868
4.65864e-05
0.000393905
5.57497e-05
0.00035451
6.2272e-05
0.000301866
6.78357e-05
0.000234898
7.3244e-05
0.000153397
7.92282e-05
6.96391e-05
9.18297e-05
6.10662e-06
0.00010638
-2.1311e-05
0.000118491
-2.32632e-05
0.000119678
-1.95326e-05
0.000104453
-2.223e-05
7.59002e-05
-3.45465e-05
3.94598e-05
-4.76863e-05
7.92653e-06
-5.66433e-05
-1.00541e-05
-5.63176e-05
-1.25953e-05
-4.81128e-05
-7.27495e-06
-3.29317e-05
8.50152e-06
-2.40617e-06
1.45726e-05
-4.05639e-06
5.08558e-06
1.02642e-05
-5.04739e-06
6.40276e-05
0.00112609
-0.000907835
-0.000305684
-0.000652264
0.000608123
-0.000639921
0.000493746
0.000648006
-0.000490658
-0.000348209
1.06902e-06
0.000249893
8.71938e-05
-0.00115988
-3.41737e-05
0.000207927
0.000976154
-0.000678885
-0.00046109
-1.10339e-05
-0.000579409
-0.000582485
-5.74462e-05
0.00058194
9.27948e-05
-0.000115809
6.22905e-05
6.47237e-05
3.98692e-05
2.99388e-05
4.69745e-05
3.72727e-06
1.31697e-05
-2.89824e-05
-2.0441e-06
-5.4652e-05
-9.74758e-06
-6.45369e-05
-8.7458e-06
-5.76301e-05
-1.14557e-07
-3.56733e-05
1.19976e-05
-1.99595e-06
2.70231e-05
2.39205e-05
4.01535e-05
3.2505e-05
4.66822e-05
-5.94326e-06
4.25482e-05
-8.15285e-05
2.73019e-05
-0.000155528
1.15882e-05
-0.000217241
3.04765e-06
-0.000257361
1.85745e-07
-0.000280907
5.30822e-06
-0.000297381
1.62838e-05
-0.000311265
3.06943e-05
-0.000328265
4.83226e-05
-0.000352037
5.7672e-05
-0.000380181
7.22276e-05
-0.000409296
8.32969e-05
-0.000436015
9.67406e-05
-0.00046038
0.000117894
-0.000483719
0.000137732
-0.000504183
0.000143204
-0.000538074
0.000145533
8.16359e-05
-0.000564041
-0.0005938
-0.000567908
0.000636494
-9.83857e-06
-0.000585976
0.000479982
0.000114353
0.000656553
0.000183612
-0.000724976
0.000631141
0.000203665
0.000595846
0.000214
0.000559909
0.000204619
0.00053249
0.000179277
0.000514383
0.000154504
0.000502634
0.000129321
0.000490342
0.000102877
0.00048103
7.99722e-05
0.000480187
6.2635e-05
0.000479572
5.17478e-05
0.000479108
4.31468e-05
0.000472419
3.96252e-05
0.000456405
4.27518e-05
0.000431803
4.76943e-05
0.000400649
5.45506e-05
0.000360921
6.13602e-05
0.000310167
6.79636e-05
0.000244717
7.50541e-05
0.00016503
8.5302e-05
8.4165e-05
9.98272e-05
1.80461e-05
0.000116186
-2.01836e-05
0.000127234
-3.61475e-05
0.00012713
-4.59142e-05
0.000107471
-5.66552e-05
7.40111e-05
-6.48381e-05
3.79619e-05
-6.45845e-05
1.26936e-05
-5.74433e-05
1.60588e-06
-4.57859e-05
2.26562e-06
-3.29554e-05
9.20223e-06
-2.56528e-05
1.99917e-05
-3.22261e-06
1.65295e-05
-1.22985e-05
1.58157e-05
-2.81211e-05
-1.09327e-05
3.07277e-05
-1.64634e-05
-3.62307e-05
2.9954e-05
-1.16421e-05
1.54022e-06
3.07391e-06
-2.03074e-05
-2.42495e-07
-2.06278e-05
-2.77811e-05
-1.64774e-05
-4.88676e-05
-2.92355e-07
-7.30299e-05
1.90937e-05
-0.000106737
-0.000134066
3.64168e-05
-0.000769376
-0.000598814
0.000741717
-0.000263465
0.000242919
-0.00103396
0.00102516
-0.00045711
0.000273964
-0.000411978
0.000595271
-0.000833393
-0.000497123
0.000769819
0.000562349
-0.000689064
-0.000122349
0.000138457
0.000522148
-0.000566549
0.000124993
4.30479e-05
-0.000604427
-0.000541607
-0.000613783
0.000556922
-0.000660814
-0.000458123
0.000280422
-0.000811398
0.000507443
-0.000680157
0.000927175
0.000497066
0.000527798
0.000593837
-0.000617215
0.000200335
0.000557601
0.000233142
0.00052763
0.000239788
0.000502078
0.000231905
0.000481926
0.000208478
0.000468018
0.000184312
0.000460141
0.000158917
0.000455915
0.000131317
0.00045691
0.000105182
0.000462512
8.32942e-05
0.000469892
6.66896e-05
0.000473187
5.42667e-05
0.000470753
4.63638e-05
0.000458982
4.51258e-05
0.00043667
4.72981e-05
0.000406886
5.20634e-05
0.000368144
5.83952e-05
0.000318223
6.59946e-05
0.000253791
7.58067e-05
0.000177784
8.87244e-05
9.89194e-05
0.000104409
2.91475e-05
0.000120355
-2.14999e-05
0.000130488
-5.44226e-05
0.000128743
-7.76561e-05
0.000107558
-9.12397e-05
7.40731e-05
-8.97491e-05
4.42384e-05
-7.40874e-05
2.54945e-05
-5.31455e-05
1.82839e-05
-3.54628e-05
1.89587e-05
-2.18159e-05
2.21522e-05
-2.23022e-05
2.4393e-05
-1.16068e-05
6.82722e-06
-2.13532e-05
1.7416e-05
-5.11627e-05
-3.55685e-05
-5.71485e-05
-1.44936e-05
5.10712e-05
-5.44992e-05
-8.88826e-05
2.16947e-05
-4.74742e-05
-9.41612e-06
-3.39332e-06
-2.89107e-05
9.65895e-06
-5.61563e-05
-8.75897e-06
-4.49109e-05
-0.000105072
-3.58295e-05
-0.000128537
-2.66408e-05
-0.000138999
-1.64791e-06
-0.000174534
2.94634e-05
-0.000205285
0.000162531
-0.000255658
7.46892e-05
0.000133245
4.46888e-05
8.97102e-05
7.34261e-05
5.58753e-05
2.79009e-05
7.84407e-06
3.67403e-05
-1.25905e-05
8.6828e-06
-3.84895e-05
3.22765e-06
-5.42017e-05
3.91332e-07
-5.63351e-05
5.89866e-06
-4.53635e-05
1.58391e-05
-2.15439e-05
2.92135e-05
7.18902e-06
4.42777e-05
2.90733e-05
5.64765e-05
2.8098e-05
6.14562e-05
-1.9041e-05
5.47773e-05
-9.58992e-05
3.90073e-05
-0.000164102
2.49211e-05
-0.000219987
1.78383e-05
-0.000253381
1.59653e-05
-0.000271435
2.06903e-05
-0.00028691
2.93091e-05
-0.000300391
4.00065e-05
-0.00031978
5.45141e-05
-0.000344773
6.14073e-05
-0.000369692
7.90639e-05
-0.000391989
9.31488e-05
-0.000413998
0.000113144
-0.000434672
0.000141544
-0.00045416
0.000166914
-0.000481687
0.000185271
0.000189115
-0.00050974
-0.000601123
-0.000600773
0.00062482
9.35102e-05
-0.000604949
-0.000690391
3.00143e-05
6.73585e-05
-6.80003e-05
-0.000554175
-0.000653077
0.000707815
-0.000659521
-0.000509868
0.000654614
-0.000438473
-0.000338644
0.000536978
-0.000353676
2.29479e-05
0.000317739
0.000166954
-6.18937e-05
0.000524526
0.000171852
-0.000534915
0.000486466
0.000230468
0.00045738
0.000254312
0.000434376
0.000257781
0.000419423
0.000248794
0.000408384
0.000229873
0.000404519
0.000206511
0.00040624
0.000181191
0.000412507
0.000151307
0.000424358
0.000122431
0.000438922
9.7571e-05
0.000453236
7.70131e-05
0.000462289
6.14452e-05
0.000464726
5.00356e-05
0.000457431
4.51911e-05
0.00043885
4.50352e-05
0.000411912
4.81943e-05
0.000374502
5.4777e-05
0.00032613
6.25354e-05
0.000264323
7.41938e-05
0.000191568
8.84138e-05
0.000113522
0.000103999
3.83005e-05
0.000118309
-2.48109e-05
0.0001268
-7.65009e-05
0.000124453
-0.000109307
0.000107432
-0.000121449
8.07782e-05
-0.000107703
5.84383e-05
-7.8604e-05
4.30072e-05
-4.99739e-05
3.54871e-05
-3.06187e-05
3.06658e-05
-2.05933e-05
2.53684e-05
-2.57584e-05
1.72338e-05
-2.70113e-05
-1.11064e-05
-3.77593e-05
4.30711e-06
-6.67441e-05
-6.74531e-05
-6.45442e-05
-2.08677e-05
-9.49607e-05
-6.93337e-05
5.41243e-05
-0.000133141
-5.00485e-05
5.92847e-05
-0.000122907
8.52559e-05
-8.21883e-05
5.50466e-05
9.32419e-06
-3.26166e-05
5.77224e-05
-6.9143e-05
-2.51897e-05
-7.3998e-05
-0.000158781
-6.96861e-05
-0.000188618
-5.5413e-05
-0.000194116
-2.00916e-05
-0.00023693
9.43783e-06
-0.000256499
4.3069e-05
-0.000316141
0.00024878
-0.000302103
5.93332e-05
0.000160318
0.00010731
0.000128079
3.83866e-05
7.33205e-05
7.33139e-05
4.09249e-05
1.84115e-05
-9.0957e-06
3.0969e-05
-2.1935e-05
1.21136e-05
-4.15211e-05
1.92843e-05
-4.97173e-05
1.82043e-05
-4.70762e-05
2.77264e-05
-3.26348e-05
3.7427e-05
-7.87608e-06
4.9421e-05
1.65727e-05
6.0841e-05
3.26818e-05
6.88171e-05
2.14753e-05
7.03964e-05
-3.37262e-05
6.08164e-05
-0.000108846
4.61054e-05
-0.000171898
3.5496e-05
-0.000221752
3.04377e-05
-0.000249384
3.12516e-05
-0.000263629
3.65016e-05
-0.000277615
4.3587e-05
-0.000289769
5.14968e-05
-0.000308211
6.1804e-05
-0.000333023
6.9618e-05
-0.000352171
8.53119e-05
-0.000369415
0.000102575
-0.000383876
0.000126542
-0.000396982
0.000160108
-0.000409915
0.000191452
-0.000430725
0.000220692
0.000237295
-0.000464747
-0.000546984
0.000175582
-0.000579786
-0.000645183
-0.0006345
-0.000618857
0.000642716
0.000286006
0.000794556
-0.000730509
-0.000345122
-0.000589519
0.00014572
-0.000529919
-0.000126468
7.27743e-05
-0.000594733
-0.000266745
-0.000614458
-0.000415318
8.11213e-05
-0.000282168
-0.000484404
-0.000282435
-0.00056444
3.88163e-05
-0.000643309
7.67472e-05
-0.000586869
-0.000631099
-0.000569242
-0.000562361
7.17219e-05
-6.8396e-05
-0.000119832
0.000100593
-0.00016453
5.59249e-05
-8.74542e-05
-2.32322e-05
4.8041e-05
-9.13351e-05
7.52554e-05
-0.000178203
-6.78192e-06
-0.000101161
-0.00029782
-4.40483e-05
-0.000296435
-3.06021e-05
-0.00022731
-4.78548e-06
-0.000243654
2.16973e-05
-0.000267511
7.49848e-05
-0.00037519
0.00010306
-0.00036181
0.000219381
0.000105633
-0.000255531
0.000193569
4.37684e-05
0.000131274
0.000108017
0.000103489
2.01079e-05
5.49559e-05
5.59703e-05
2.62994e-05
1.16612e-05
-1.74063e-05
2.3616e-05
-2.34322e-05
1.93001e-05
-3.93511e-05
3.78319e-05
-4.35481e-05
3.97723e-05
-3.84751e-05
5.36819e-05
-2.26218e-05
6.20368e-05
5.37988e-07
6.98533e-05
2.2142e-05
7.50023e-05
3.29251e-05
7.66986e-05
1.25216e-05
7.30708e-05
-4.71773e-05
6.14246e-05
-0.00011933
4.93113e-05
-0.000176488
4.22492e-05
-0.000221195
4.12091e-05
-0.000244393
4.49697e-05
-0.000256036
5.11601e-05
-0.000268576
5.72891e-05
-0.000279716
6.33207e-05
-0.000297678
7.02884e-05
-0.000316043
7.64919e-05
-0.000331343
9.32056e-05
-0.000339872
0.000108276
-0.000346997
0.000136508
-0.000349046
0.00017011
-0.000353608
0.000208093
-0.000366504
0.000247155
0.000280257
-0.00039727
0.00023183
-0.000509702
0.000582684
-0.000473546
-0.000614021
-0.000556073
-0.000687204
4.9242e-05
0.000358262
-0.000306696
-0.000114551
0.00111739
0.00011874
-0.00110163
-0.000138671
0.000356924
0.0002614
-0.000396815
0.000336916
0.000266576
0.000324647
0.000267002
0.000319371
0.000258783
0.000320405
0.000241554
0.000329943
0.000217169
0.000345003
0.000190582
0.000364167
0.000159451
0.000387226
0.000129266
0.000410391
0.000103599
0.000431926
8.10778e-05
0.000447844
6.30037e-05
0.000455438
5.02628e-05
0.000453395
4.28457e-05
0.000439135
4.15712e-05
0.000415284
4.41072e-05
0.000381684
4.98656e-05
0.000334835
5.92136e-05
0.00027561
7.08435e-05
0.000204736
8.43952e-05
0.000125967
9.80717e-05
4.50959e-05
0.000108996
-2.8668e-05
0.000115432
-9.56604e-05
0.000115616
-0.000139436
0.000109017
-0.000145122
9.25507e-05
-0.000121629
7.57885e-05
-8.47158e-05
6.06085e-05
-5.37121e-05
4.75474e-05
-3.49745e-05
3.30205e-05
-3.11443e-05
1.65176e-05
-3.83975e-05
-2.61935e-06
-4.84304e-05
-3.2763e-05
-5.77552e-05
-1.96394e-05
-8.41465e-05
-8.31396e-05
-7.32333e-05
-2.61256e-05
-0.000123941
-5.20737e-05
-0.000170519
-2.5675e-05
-0.000194741
-1.02546e-05
-0.000671006
-0.000638164
0.000664627
-0.000597872
-0.000678285
0.0009347
-1.28057e-05
4.64132e-05
-0.000976951
-0.000601476
4.30675e-05
-0.000407384
-0.000619541
0.000112446
0.00015682
-0.000166866
9.11505e-05
0.000136759
2.53641e-05
0.000101846
7.99316e-05
7.77254e-05
5.25125e-06
4.41439e-05
2.68024e-05
1.69975e-05
6.3694e-06
-1.3096e-05
9.51766e-06
-1.75578e-05
2.47616e-05
-3.20448e-05
4.79147e-05
-3.58939e-05
5.6332e-05
-3.13811e-05
7.44243e-05
-1.67911e-05
8.1776e-05
3.63193e-06
8.56323e-05
2.21704e-05
8.46137e-05
2.87308e-05
8.01712e-05
1.87837e-06
7.09976e-05
-5.81868e-05
5.81218e-05
-0.000126145
4.91255e-05
-0.000178196
4.64979e-05
-0.000217511
4.8801e-05
-0.000237831
5.58856e-05
-0.000248539
6.3165e-05
-0.00025949
6.86816e-05
-0.000270952
7.39018e-05
-0.000287302
7.81307e-05
-0.00030222
8.40946e-05
-0.00030796
9.63266e-05
-0.000309016
0.000111983
-0.000306178
0.000139441
-0.000296845
0.000170746
-0.00028699
0.000209853
-0.00028504
0.000256911
-0.000300974
0.000305782
0.000291294
-0.000448121
0.000492111
-0.00042543
0.000511947
-0.000698092
-0.000505941
0.000128805
-2.66449e-05
-0.00027405
0.000151775
-0.000122648
0.000163743
-0.00016316
0.000238192
-0.00016096
0.000110859
0.000163798
-0.000125559
0.000279638
-0.000183255
-1.33866e-05
-0.000165
-0.000363016
-0.0001281
-0.000371773
-9.66199e-05
-0.000277509
-6.05448e-05
-0.000280631
-2.58131e-05
-0.000301941
-8.61255e-07
-0.000411041
1.52317e-05
-0.00040904
5.08503e-06
-0.000263723
-2.41835e-05
-0.000163797
0.000723037
-0.000493248
-0.000707375
0.000526274
-0.000541142
0.000466071
-0.000360599
0.000403789
-0.000199329
-7.51741e-05
-0.000462194
0.000480912
0.000474602
-0.00016036
-0.000787693
0.000403676
-0.000387715
3.32456e-05
-5.31943e-05
0.000291772
-0.000152109
0.00017421
0.000180367
0.000238896
-0.000167048
0.000185472
0.000254807
0.00019227
0.000259404
0.00020504
0.000253274
0.000225619
0.000236048
0.000251696
0.000212516
0.000282197
0.000184641
0.000314934
0.00015501
0.000348392
0.000125565
0.000380083
0.000100574
0.000408913
7.79722e-05
0.000430647
5.97289e-05
0.000443816
4.66523e-05
0.000447024
3.85227e-05
0.000438066
3.67745e-05
0.00041831
3.97333e-05
0.000387211
4.62094e-05
0.000343313
5.56914e-05
0.000285883
6.71363e-05
0.000215296
7.83748e-05
0.000134852
8.77523e-05
4.97928e-05
9.33786e-05
-3.01166e-05
9.72496e-05
-0.000104283
0.000102032
-0.00015712
0.000108529
-0.000162268
0.000105939
-0.000134835
9.33446e-05
-9.74925e-05
7.45877e-05
-6.76729e-05
5.17519e-05
-5.1716e-05
2.48683e-05
-5.12309e-05
-2.44896e-06
-5.77025e-05
-2.8394e-05
-6.67166e-05
-5.06671e-05
-7.03237e-05
-4.04571e-05
-8.51425e-05
-6.82433e-05
-6.13156e-05
-2.47071e-05
-0.000128791
1.00449e-05
-0.000163282
8.3431e-06
-0.000283094
0.000137481
-0.000340627
5.93975e-05
3.84181e-05
0.000932835
-4.54447e-05
0.000190448
-0.000547399
-0.000320401
0.000146775
-0.000709913
-0.000667738
0.000697173
-0.000557371
-0.000746156
-0.000701108
-0.000629638
-0.00099144
-0.000106422
0.00107332
0.0010569
-2.72377e-05
-0.000990487
0.000499175
9.297e-05
-0.00066746
0.000378517
-0.000382409
0.000485759
0.000392673
-0.000403848
-0.000656335
-0.000858806
0.000764105
0.000158235
-0.000180415
0.000231145
-0.000221267
-8.58667e-05
-0.00107864
-3.3688e-05
0.00115501
5.48171e-05
-0.000113978
3.99011e-06
0.000126892
2.53339e-05
9.29706e-05
3.41904e-05
7.9027e-05
4.28921e-05
5.89307e-05
5.55773e-06
4.19844e-05
1.12074e-06
1.68332e-05
1.52395e-06
4.52308e-06
-5.66591e-06
-4.84697e-06
2.60731e-05
-1.66845e-05
3.94361e-05
-2.5519e-05
5.95176e-05
-2.49618e-05
7.82125e-05
-1.52563e-05
8.65449e-05
1.75625e-06
8.9812e-05
1.689e-05
8.70627e-05
1.97286e-05
7.97993e-05
-8.56714e-06
6.72368e-05
-6.67691e-05
5.37547e-05
-0.000129286
4.64808e-05
-0.000176236
4.75547e-05
-0.000210522
5.36933e-05
-0.000229084
6.28525e-05
-0.000240672
7.12442e-05
-0.000250503
7.72426e-05
-0.00026349
8.1381e-05
-0.000276933
8.28042e-05
-0.000285121
8.75978e-05
-0.00028641
9.85592e-05
-0.000280229
0.000111068
-0.000265435
0.000134557
-0.000246227
0.000163764
-0.000227037
0.000201273
-0.000203138
0.000243157
-0.000171989
0.00028093
0.000299578
-9.14618e-05
0.000696589
-0.000400221
-0.000697655
0.000424253
-0.000541428
0.000845443
-0.000671154
-0.000973208
-3.73997e-05
8.26723e-05
-0.000382088
-0.000110834
-0.00017946
2.54171e-05
-0.000213278
0.000249456
-0.000352101
0.000117682
-1.18467e-05
-2.95904e-06
0.000284113
-0.000136288
0.000407579
-0.000341825
0.000209424
-0.000198264
-0.000490743
-4.02218e-05
-0.000521287
-2.88707e-05
-0.000256267
6.03587e-05
-0.000339568
0.00017966
-0.000379718
-3.40573e-06
-0.000186643
-0.000330654
-5.93779e-05
-0.000191239
-0.000368621
0.000114846
-0.000424014
7.76572e-05
-1.98938e-05
-0.000486076
0.000375788
-0.000488635
0.000281994
-0.000278555
0.000205687
-0.000125044
0.00014709
-1.76515e-05
6.58252e-05
0.000102533
-0.00013622
8.78562e-05
0.00069112
-0.000794925
-1.18972e-05
0.000175828
2.82227e-05
-0.000201129
1.37179e-05
0.000205629
3.79267e-05
0.0002275
6.59221e-05
0.000235534
9.85503e-05
0.000231857
0.00013714
0.000215827
0.000179272
0.000193029
0.000223191
0.000166698
0.000267971
0.000139146
0.000310341
0.000113025
0.000350192
8.96238e-05
0.000385455
6.86608e-05
0.000413346
5.18346e-05
0.000432033
3.98621e-05
0.000439698
3.30486e-05
0.000435089
3.18444e-05
0.00041927
3.54436e-05
0.000391799
4.28218e-05
0.000350258
5.25534e-05
0.00029335
6.31483e-05
0.000221005
7.11437e-05
0.000138302
7.44437e-05
5.20607e-05
7.32776e-05
-2.74101e-05
7.40324e-05
-9.97664e-05
8.36171e-05
-0.000161906
0.000103427
-0.00017528
0.000115849
-0.000153385
0.000108825
-0.000120391
8.37297e-05
-9.48243e-05
4.8904e-05
-8.04451e-05
1.14105e-05
-7.72835e-05
-2.04573e-05
-7.6738e-05
-4.38635e-05
-7.22847e-05
-5.2365e-05
-6.65938e-05
-3.87933e-05
-5.37038e-05
-2.96857e-05
-2.70415e-05
-6.68279e-06
-5.82537e-05
6.69664e-05
-8.28277e-05
5.65523e-05
-0.000143357
0.00018087
-0.000215538
0.000152988
-0.000340521
0.000108269
0.000767614
-0.000502244
-0.000757366
0.00024495
-0.000498559
0.000747673
-0.00055585
-0.000738431
0.000749359
-0.000642504
0.000632078
-0.000711412
-0.000701216
0.000670478
-0.00074366
-0.000688653
-0.000593056
0.000160813
-0.000779386
-0.000650942
-0.000735782
-0.000757284
-0.000645215
0.00112253
-0.00110032
-0.000155472
0.000368429
-0.000617681
0.000562563
-0.000306473
-0.00116814
0.00106797
5.64459e-05
0.000419454
-0.000347236
9.76201e-05
-0.000283107
-0.000275562
0.000693894
0.000277015
0.000961546
-0.000953854
3.26644e-05
3.87948e-05
0.000953491
0.000104499
0.000290227
0.000133776
0.000254719
0.000167428
0.000217801
0.00019834
0.000181021
0.000228972
0.000148007
0.000252944
0.000123254
0.000266077
0.00010584
0.000271177
9.38556e-05
0.000267436
8.70225e-05
0.000256514
8.40291e-05
0.000241966
8.41118e-05
0.000229765
8.22973e-05
0.000216986
7.54295e-05
0.000198887
6.60682e-05
0.000169803
5.54668e-05
0.000127175
4.64448e-05
7.17697e-05
4.35733e-05
1.94828e-05
5.02826e-05
-8.65191e-06
6.36031e-05
-9.80092e-06
7.59202e-05
4.21115e-07
8.05929e-05
1.29936e-05
7.8395e-05
1.6079e-05
7.01456e-05
1.15249e-05
5.67248e-05
-3.83495e-06
4.146e-05
-1.7657e-05
1.26747e-05
-2.0947e-05
1.36506e-05
-2.21271e-05
-1.84353e-05
-4.11478e-05
2.42291e-06
-4.11158e-05
-7.53254e-06
-5.35559e-05
2.56641e-05
-7.1095e-05
3.42541e-05
-0.000115837
7.80539e-05
-0.000120306
5.83723e-05
-0.000213615
9.00343e-05
-0.000171697
0.000140602
4.59034e-05
0.00094526
-7.00983e-05
-5.64878e-05
0.000169629
-0.000454288
3.85531e-05
-0.000480298
0.000262555
-0.00038643
0.000302251
-0.000236653
0.00030878
-0.000340695
0.000504888
-0.000185501
0.00023091
0.000592685
-0.000199947
0.000883752
-0.000332094
0.000380759
-0.000283292
-0.000530108
-0.000260392
-0.000547391
-0.000188131
-0.000351412
-0.000180734
-0.000367831
-0.000186016
-0.000404995
-0.000131562
-0.00027007
-0.000109286
-0.000121757
-0.000198479
-0.000295717
-0.00026031
-0.000385105
-0.000150189
-0.000137137
5.73205e-05
-0.000367244
0.00076531
-0.000396821
0.000283356
-0.000420847
-0.000565644
0.000747773
0.000572074
0.000224791
0.00109767
-0.000851232
-0.000486871
0.000134309
-0.000911753
7.59237e-05
-0.000926822
5.11124e-05
-0.000934696
0.000942421
3.11338e-05
-0.00092618
0.000942867
2.83427e-05
0.000948568
2.7534e-05
-6.76586e-05
9.55499e-05
0.000913935
-1.44389e-05
0.000338591
4.64651e-05
0.00091041
-0.000914874
-6.59293e-05
0.000449865
0.000290688
-0.000365653
0.000373384
2.30495e-05
-0.000175201
-0.000210047
0.000259095
-0.0007313
-0.000637994
0.000729155
-0.000720726
-0.0007144
-0.000767343
-0.000705737
0.000125949
-0.000626564
0.000756715
-0.000492775
-0.000761634
4.66721e-05
-3.00772e-05
0.000209953
-0.000332666
7.21338e-05
-0.00016576
-1.08698e-05
-5.06755e-05
-6.35276e-05
2.73694e-05
0.000104097
-0.000104616
0.000155526
-7.96869e-05
2.07831e-05
-0.000223586
0.000161141
0.000308669
-0.000251033
-0.000202182
7.30591e-05
-0.000123534
0.000244188
-0.000165225
0.000131665
-0.000129408
0.000166456
-8.87364e-05
0.000189584
-4.25348e-05
0.000200274
8.89447e-06
0.000197933
6.15053e-05
0.000185119
0.000116748
0.000163363
0.000172254
0.000139414
0.000225635
0.000115345
0.000275785
9.35015e-05
0.000322464
7.29254e-05
0.000363149
5.49716e-05
0.000396177
4.08615e-05
0.000420307
3.12607e-05
0.000432183
2.64126e-05
0.000430972
2.68439e-05
0.000418595
3.14634e-05
0.000394136
3.93067e-05
0.000354177
4.92405e-05
0.000295811
5.84847e-05
0.000219416
6.27458e-05
0.000134162
5.89684e-05
5.06941e-05
5.06158e-05
-2.11235e-05
4.88308e-05
-8.58358e-05
6.41499e-05
-0.000154054
9.34388e-05
-0.000185577
0.000121008
-0.000180576
0.000117841
-0.000156898
8.95144e-05
-0.000133715
4.61833e-05
-0.000115257
6.23254e-06
-0.000101297
-2.29069e-05
-8.56634e-05
-3.55093e-05
-6.2696e-05
-3.18717e-05
-4.94876e-05
-1.55808e-05
-1.90391e-06
1.30383e-05
1.70646e-05
3.60404e-05
1.54429e-05
7.82075e-05
-1.71964e-05
0.000132876
-5.03944e-05
0.000154571
-8.55109e-05
0.000190673
-0.000372785
0.0002811
-0.000413137
0.000179989
0.000528196
0.00066017
-0.000620925
0.000443454
0.000540308
-0.000313493
0.000412985
0.000350242
-0.00101361
0.000331842
0.00103839
-0.000342477
0.000185337
-0.000202158
0.000208828
-0.000546978
-0.000160927
0.00111056
0.000125213
0.000208565
0.000101307
-0.000118722
0.000170425
0.000953239
-0.000276417
-0.000895994
-0.000672141
-0.000765897
-0.000778296
-0.000772214
-0.000671091
0.000610332
-0.000650862
0.000584504
0.000704803
-0.000700346
-0.00071981
0.000679839
0.000923177
-0.000688685
0.00108244
0.000219374
-0.0002387
-0.00100103
0.000116653
0.000974364
0.000818441
-0.000705599
-0.00100525
-0.000139209
-0.000142377
8.58649e-05
-0.000238379
-0.000985846
9.2354e-06
-0.000972245
1.27587e-05
-0.000946245
3.44562e-06
3.97246e-05
0.000245699
7.87722e-05
0.000216277
0.000118683
0.000184625
0.000158077
0.000153169
0.000195661
0.000126504
0.000226453
0.000106379
0.000247082
9.38547e-05
0.000256654
8.45901e-05
0.000255038
8.13407e-05
0.000246851
8.01731e-05
0.000230932
8.14774e-05
0.000215049
8.10424e-05
0.000200958
7.53499e-05
0.00018235
6.48941e-05
0.00015614
5.34773e-05
0.000119015
4.45402e-05
7.18856e-05
4.22107e-05
2.57785e-05
4.85964e-05
-3.04157e-06
5.99127e-05
-8.8462e-06
6.71799e-05
-3.09957e-06
6.33282e-05
3.38888e-06
5.02511e-05
4.5421e-07
3.26369e-05
-7.26689e-06
1.07363e-05
-2.19738e-05
5.18238e-06
-3.60063e-05
-1.72807e-05
-3.57588e-05
3.78529e-06
-2.38681e-05
-2.08995e-05
-3.45853e-05
1.55468e-05
-1.28155e-05
2.93929e-06
-2.15059e-05
6.92871e-05
-3.72226e-05
4.94336e-05
-9.04617e-05
0.000153584
-0.000128579
0.000145623
-0.000227845
0.000208271
-0.000182945
0.000234947
-0.000340811
0.000246145
0.000273262
0.000129539
-0.000305297
0.00022443
6.67916e-05
0.000154556
1.84807e-06
3.25643e-05
-8.28919e-05
-0.00017065
-0.000188363
-0.000445977
-0.000341781
-0.000645169
0.000587317
0.00025205
-0.000238171
0.00072913
-0.0003626
0.000375601
-0.000541386
0.000711479
0.000491249
0.000512116
-1.79595e-05
0.000931448
-7.75843e-06
3.71575e-05
0.000936932
0.000724666
-0.000726929
-0.000614603
-0.000763006
-0.000728525
0.000643857
-0.000177013
0.000113846
-0.000571563
-0.000213012
-0.000724826
-6.44505e-05
-0.000655609
0.000771158
-0.000406903
0.000162714
-9.78682e-05
-0.000876181
0.000800146
-0.00101544
-1.98324e-05
0.000974757
-0.000476696
-0.000713635
0.000580669
0.000238409
-0.00118284
0.000405733
-0.000365376
-0.00031188
0.000188338
-0.000778603
4.58894e-05
-5.0505e-06
-0.000988318
0.000560514
-0.000848058
0.000207109
0.000213437
0.000105456
0.000714744