/*--------------------------------*- C++ -*----------------------------------*\
| =========                 |                                                 |
| \\      /  F ield         | OpenFOAM: The Open Source CFD Toolbox           |
|  \\    /   O peration     | Version:  2212                                  |
|   \\  /    A nd           | Website:  www.openfoam.com                      |
|    \\/     M anipulation  |                                                 |
\*---------------------------------------------------------------------------*/
FoamFile
{
    version     2.0;
    format      ascii;
    arch        "LSB;label=32;scalar=64";
    class       volScalarField;
    location    "0.0384";
    object      p;
}
// * * * * * * * * * * * * * * * * * * * * * * * * * * * * * * * * * * * * * //

dimensions      [1 -1 -2 0 0 0 0];

internalField   nonuniform List<scalar> 
2308
(
600.133
594.418
609.232
584.848
597.821
593.592
594.738
597.228
598.85
577.12
574.222
572.352
572.522
573.415
574.996
577.12
579.552
583.301
580.966
578.743
576.76
575.345
574.584
574.633
575.845
578.336
582.478
587.53
594.661
582.19
593.073
598.628
603.576
607.521
610.37
612.287
613.598
614.638
615.621
616.652
617.448
618.455
619.377
620.394
621.49
621.252
620.133
619.073
618.118
617.101
616.324
615.335
614.394
613.309
611.852
609.708
606.578
602.335
597.128
591.432
585.713
580.3
575.627
572.369
570.683
570.291
570.507
571.57
573.37
575.722
578.442
622.655
622.422
582.898
580.598
578.598
577.164
576.522
576.641
577.579
579.896
584.161
589.117
594.258
599.388
603.993
607.658
610.322
612.148
613.442
614.533
615.604
616.668
617.562
618.549
619.447
620.409
621.431
585.736
622.523
584.939
581.379
621.854
620.745
619.635
618.548
617.576
616.616
615.722
614.812
613.829
612.568
610.842
608.344
604.842
600.323
594.986
589.297
583.625
578.314
573.891
570.476
568.749
568.327
568.697
569.958
571.981
574.549
577.481
597.424
592.021
591.338
591.876
586.863
584.469
582.338
580.449
579.054
578.322
578.417
579.159
581.181
585.044
589.462
594.354
599.241
603.61
607.119
609.708
611.576
613.006
614.26
615.459
616.551
617.553
618.46
619.279
620.125
621.026
622.047
623.056
623.559
623.742
623.591
597.88
623.105
597.536
596.505
584.362
599.486
597.333
588.111
580.63
624.103
624.565
624.625
624.296
623.514
622.328
622.176
620.906
619.851
618.788
617.709
616.733
615.792
614.883
613.922
612.904
611.452
609.406
606.57
602.77
598.054
592.637
586.934
581.338
576.178
571.993
568.792
567.144
566.72
567.241
568.711
570.934
573.683
576.735
591.426
603.752
596.589
596.933
595.901
594.733
593.384
591.832
590.012
588.057
585.943
583.985
582.238
580.864
580.06
580.054
580.668
582.432
585.597
589.595
594.162
598.715
602.784
606.177
608.828
610.85
612.488
613.946
615.192
616.403
617.387
618.192
618.878
619.562
620.329
621.275
622.294
623.401
610.252
598.768
606.082
582.807
606.764
597.56
583.8
590.97
620.748
620.785
619.567
618.571
617.555
616.508
615.59
614.716
613.847
612.914
611.778
610.183
607.797
604.82
600.871
596.122
590.725
585.103
579.613
574.629
570.622
567.659
566.145
565.783
566.456
568.079
570.426
573.279
576.352
579.967
600.257
594.439
596.206
595.554
594.599
593.504
592.236
590.778
589.172
587.437
585.714
584.119
582.792
581.917
581.721
582.157
583.583
586.284
589.878
594.036
598.197
602.082
605.397
608.128
610.277
612.089
613.64
614.985
616.15
617.042
617.697
618.198
618.699
619.307
620.165
621.163
622.213
624.01
624.696
625.086
625.543
625.725
625.808
625.551
624.763
623.287
607.326
610.5
611.65
598.63
600.434
612.038
579.516
583.136
600.58
599.727
602.379
596.068
595.499
594.959
594.302
593.529
592.609
591.545
590.359
589.018
587.593
586.193
584.927
584.029
583.664
583.921
585.094
587.41
590.569
594.261
598.18
601.854
605.083
607.807
610.021
611.869
613.422
614.743
615.803
616.542
617.007
617.294
617.593
618.049
618.824
619.838
620.89
623.122
621.695
622.697
624.388
625.142
625.739
625.325
624.433
623.109
621.488
619.769
618.148
621.259
618.933
619.018
617.869
616.962
616.037
615.076
614.241
613.46
612.676
611.767
610.535
608.841
606.457
603.395
599.505
594.879
589.646
584.203
578.889
574.078
570.231
567.396
565.955
565.656
566.325
567.941
570.284
573.144
576.228
600.896
582.554
586.148
593.188
600.607
599.499
598.302
597.182
593.132
595.942
594.961
594.631
594.29
593.931
593.519
593.001
592.393
591.661
590.758
589.685
588.511
587.35
586.43
586.003
586.095
587.098
589.088
591.848
595.113
598.66
602.122
605.192
607.821
609.992
611.786
613.278
614.495
615.39
615.942
616.204
616.282
616.393
616.707
617.379
618.397
619.452
621.995
620.663
627.322
627.826
628.16
628.324
627.231
627.792
628.264
629.442
630.126
629.058
627.318
624.62
621.807
616.667
619.023
616.975
617.007
615.954
615.128
614.325
613.523
612.82
612.154
611.45
610.575
609.341
607.634
605.355
602.432
598.775
594.466
589.587
584.35
579.245
574.604
570.867
568.137
566.708
566.385
566.901
568.384
570.684
573.36
576.293
579.307
601.399
601.567
611.014
582.289
595.423
596.572
597.872
588.603
595.971
592.878
585.441
600.553
599.205
617.319
618.768
619.569
621.585
623.971
625.047
622.67
620.291
617.382
616.966
614.795
614.89
615.182
613.587
619.331
614.861
616.788
614.92
614.929
613.999
613.269
612.592
611.969
611.442
610.915
610.307
609.482
608.31
606.695
604.601
601.948
598.666
594.656
590.105
585.286
580.55
576.155
572.527
569.828
568.294
567.819
568.141
569.308
571.403
573.941
576.757
579.331
597.108
601.688
588.162
607.933
593.65
593.558
593.526
593.503
593.441
593.336
593.11
592.661
591.974
591.069
590.068
589.159
588.74
588.725
589.532
591.222
593.651
596.6
599.77
602.83
605.611
608.034
610.083
611.773
613.145
614.205
614.931
615.329
615.428
615.349
615.296
615.448
616.006
617.029
618.13
620.769
620.09
626.177
617.445
602.245
602.199
610.399
588.193
600.546
585.117
612.012
617.445
613.153
614.781
612.936
612.934
612.113
611.529
611.005
610.57
610.207
609.825
609.328
608.605
607.546
606.096
604.236
601.898
598.929
595.334
591.267
586.857
582.423
578.252
574.712
572.019
570.353
569.666
569.81
570.599
572.345
574.656
577.266
579.708
595.773
601.689
633.991
634.292
632.436
630.887
636.478
629.673
632.285
636.302
639.182
639.112
636.782
636.378
631.215
627.14
624.114
622.855
597.523
598.786
597.149
595.635
594.311
594.663
593.528
586.131
585.65
592.609
592.801
593.115
593.5
593.927
594.36
594.649
594.662
594.388
593.785
592.942
592.052
591.645
591.52
592.15
593.567
595.674
598.268
601.057
603.782
606.293
608.466
610.307
611.825
613.024
613.914
614.512
614.8
614.797
614.603
614.426
614.438
614.874
615.895
616.993
619.681
619.686
625.226
618.089
633.475
610.435
582.308
589.761
602.919
602.625
603.009
595.151
610.417
610.134
593.008
587.752
580.17
593.928
608.355
590.392
610.386
620.082
611.798
615.672
612.026
613.142
611.143
611.151
610.442
610.017
609.634
609.382
609.176
608.932
608.561
607.976
607.083
605.845
604.236
602.151
599.525
596.32
592.604
588.531
584.383
580.439
577.014
574.339
572.568
571.672
571.643
572.097
573.379
575.401
577.735
580.246
596.295
599.511
601.516
607.925
607.063
607.351
610.452
614.833
607.732
619.918
616.281
604.962
606.997
607.003
604.543
603.672
607.485
610.257
606.12
603.608
604.845
596.189
598.242
596.441
594.802
593.358
592.081
607.389
603.884
591.254
591.584
592.057
592.715
593.514
594.416
595.353
596.192
596.732
596.777
596.464
595.796
594.981
594.46
594.295
594.692
595.851
597.66
599.908
602.348
604.763
606.998
608.943
610.581
611.905
612.926
613.671
614.172
614.402
614.366
614.146
613.904
613.84
614.136
615.161
616.098
618.865
619.149
624.308
618.87
632.804
610.995
597.819
582.518
602.006
601.173
602.424
603.562
585.079
602.756
603.795
603.58
610.238
604.483
607.8
590.157
582.697
594.918
610.307
610.323
580.361
578.209
576.182
574.48
573.615
573.356
573.601
574.624
576.484
579.159
582.493
586.242
590.138
593.929
597.365
600.293
602.652
604.483
605.861
606.865
607.557
607.98
608.218
608.348
608.449
608.583
608.853
609.112
609.671
609.913
611.608
611.593
614.352
612.889
618.95
609.797
610.499
654.68
650.43
647.943
647.631
640.752
635.216
651.673
632.314
650.319
653.647
648.913
651.566
654.584
652.551
644.886
639.377
638.159
638.048
628.971
631.923
596.496
582.909
599.856
610.38
610.419
610.41
610.339
610.21
610.153
610.13
610.136
586.531
610.617
603.049
604.517
604.701
601.63
602.945
604.17
587.581
598.126
610.302
597.47
595.563
593.841
592.352
591.087
590.781
587.756
589.618
590.052
590.593
591.352
592.336
593.52
594.88
596.311
597.618
598.707
599.094
598.962
598.438
597.647
596.986
596.78
596.963
597.888
599.426
601.387
603.559
605.728
607.734
609.478
610.921
612.051
612.884
613.488
613.919
614.162
614.176
613.982
613.736
613.66
613.863
614.903
615.528
618.422
618.109
624
616.95
633.4
604.457
654.281
604.077
602.76
601.371
610.093
601.629
585.242
608.928
600.268
610.646
604.484
603.9
604.555
602.442
603.412
602.06
610.362
603.805
610.279
609.805
605.172
601.645
603.134
609.856
609.935
610.044
580.722
578.721
576.923
575.649
575.055
574.907
575.294
576.443
578.394
581.065
584.306
587.897
591.593
595.164
598.382
601.1
603.254
604.863
606.007
606.782
607.265
607.521
607.641
607.698
607.738
607.812
608.042
608.199
608.631
609.052
610.584
611.393
613.649
614.043
618.706
613.209
631.023
589.83
591.13
592.668
594.455
596.389
598.414
605.342
595.068
583.865
600.273
601.054
610.142
610.572
605.329
604.686
589.641
610.241
606.468
598.48
596.716
610.375
610.464
610.398
600.447
574.397
574.581
584.33
585.04
580.935
591.93
598.138
577.557
604.656
568.28
579.494
577.56
577.388
571.022
572.96
581.163
586.661
577.449
573.548
579.976
589.769
598.562
610.442
610.481
610.476
610.425
610.329
610.202
609.395
585.569
598.485
600.004
598.995
589.685
609.711
610.685
604.939
608.251
606.333
605.264
610.66
587.717
611.931
610.299
605.393
587.411
587.858
588.325
588.906
589.656
590.667
591.946
593.491
595.278
597.169
598.933
600.494
601.253
601.218
600.783
599.963
599.162
598.9
598.929
599.638
600.951
602.696
604.681
606.685
608.529
610.1
611.351
612.254
612.878
613.368
613.775
614.072
614.176
614.088
613.92
613.882
614.057
615.109
615.411
618.382
617.013
623.653
615.253
631.303
606.719
649.253
582.874
611.144
608.907
612.034
600.682
610.41
605.09
610.183
595.011
596.768
610.49
595.185
593.888
587.349
588.411
589.747
591.354
593.195
595.199
597.294
599.372
602.331
601.291
590.877
599.508
588.502
588.605
584.703
582.878
581.04
579.26
577.678
576.698
576.325
576.22
576.751
578.035
580.062
582.726
585.882
589.338
592.871
596.267
599.3
601.829
603.793
605.209
606.146
606.718
607.016
607.12
607.138
607.161
607.242
607.358
607.535
607.629
608.051
608.645
610.108
611.313
613.605
615.141
619.01
616.735
631.372
611.73
609.532
609.676
609.844
610.052
608.619
611.989
600.001
601.389
602.956
608.107
605.906
607.12
587.174
586.553
587.47
586.22
598.903
599.666
597.735
595.025
610.091
610.615
603.28
605.172
589.345
610.445
593.505
610.238
609.809
606.504
605.853
610.597
589.921
593.706
592.156
598.206
606.863
607.422
608.583
589.892
588.727
610.456
610.522
610.583
610.62
610.628
610.586
610.52
610.423
610.312
597.03
587.984
606.194
605.971
609.515
609.555
592.274
586.212
586.637
587.143
587.838
588.757
589.977
591.517
593.38
595.54
597.864
600.07
602.081
603.157
603.177
602.805
601.967
600.994
600.657
600.618
601.169
602.295
603.893
605.765
607.666
609.392
610.824
611.856
612.458
612.915
613.346
613.744
614.081
614.298
614.348
614.317
614.372
614.538
615.551
615.649
618.219
616.775
622.617
615.716
629.214
607.832
644.078
585.957
671.638
690.274
690.67
692.894
691.603
681.75
676.274
663.139
660.643
680.954
667.675
708.092
658.739
685.529
685.653
687.631
691.743
689.488
687.295
683.531
677.044
669.601
666.36
662.168
653.611
598.7
610.713
603.095
603.992
607.503
585.163
610.39
610.038
592.985
589.844
585.9
586.984
588.342
589.992
591.884
593.959
596.154
598.362
600.473
602.389
605.413
604.652
604.054
586.931
599.327
596.396
610.423
604.319
586.818
609.783
605.93
609.179
606.286
610.391
591.797
608.184
593.445
606.994
605.747
604.364
602.955
601.462
600.03
598.461
595.879
610.148
591.081
608.909
609.168
609.407
609.645
609.908
610.204
595.456
590.1
611.967
606.912
610.564
610.619
610.684
610.752
610.804
610.836
610.849
610.815
610.775
610.706
610.63
610.562
609.002
609.258
591.569
602.007
592.05
611.974
599.062
584.984
585.112
585.512
586.074
586.862
587.903
589.276
591.023
593.16
595.649
598.354
600.956
603.381
604.73
604.797
604.482
603.583
602.479
602.091
602.004
602.463
603.476
604.977
606.773
608.618
610.279
611.614
612.287
612.68
613.07
613.424
613.785
614.139
614.443
614.651
614.766
614.92
615.105
615.995
615.959
618.002
616.532
621.587
615.216
627.366
606.147
640.16
583.861
652.725
568.576
523.912
526.835
526.784
528.273
522.78
528.085
517.829
540.835
536.89
527.658
514.805
526.003
526.71
508.954
506.289
507.56
500.148
510.213
514.282
515.616
509.626
523.949
534.938
550.43
563.958
623.144
626.756
623.077
629.84
619.588
619.181
616.091
613.935
611.558
610.201
608.652
607.931
607.466
607.3
607.068
606.855
606.715
606.707
606.752
606.746
606.586
606.174
605.401
604.172
602.399
600.049
597.192
593.959
590.566
587.222
584.123
581.459
579.368
577.961
577.267
577.295
577.598
578.409
579.733
581.355
583.04
584.925
586.403
587.957
589.193
608.054
592.319
589.194
593.354
594.507
593.593
595.905
606.399
605.33
588.472
589.413
598.349
597.514
594.786
597.409
610.613
609.992
604.879
607.585
605.457
608.49
609.94
606.874
607.574
610.668
610.221
607.989
591.947
610.513
607.352
609.305
606.672
606.432
605.71
610.37
596.114
597.973
588.963
603.783
601.916
599.763
597.441
595.065
592.772
590.629
588.692
587.054
585.765
584.739
606.664
593.663
591.731
597.058
598.451
599.889
601.309
602.752
604.164
605.537
606.827
593.567
593.983
609.998
610.053
610.036
610.047
595.377
607.824
596.073
609.772
593.059
608.893
590.742
608.388
608.789
609.143
609.474
609.803
610.127
610.517
594.62
592.493
592.913
591.667
590.941
589.616
588.574
587.468
586.1
584.688
583.11
581.565
580.131
578.981
578.29
577.951
578.077
578.92
580.427
582.576
585.248
588.292
591.547
594.825
597.911
600.593
602.757
604.361
605.441
606.087
606.381
606.451
606.42
606.38
606.411
606.583
606.87
607.257
607.631
608.237
608.848
610.663
612.238
614.757
616.78
619.077
620.686
623.533
621.307
614.028
601.787
608.52
607.725
712.379
723.009
734.873
745.833
747.635
743.937
736.043
733.429
746.873
764.332
767.341
766.07
764.167
769.564
755.135
746.509
741.549
741.996
744.984
749.948
746.563
750.019
733.081
734.697
680.585
736.993
625.95
611.755
608.749
610.896
610.947
610.999
611.049
611.086
611.111
611.126
611.106
611.077
611.037
610.996
610.962
610.936
610.139
610.188
610.542
610.834
584.106
583.94
584.115
584.552
585.16
586.019
587.134
588.592
590.488
592.834
595.586
598.589
601.543
604.293
605.919
606.058
605.786
604.823
603.617
603.2
603.084
603.489
604.456
605.939
607.714
609.526
611.167
612.342
612.711
612.992
613.276
613.543
613.852
614.199
614.558
614.876
615.12
615.342
615.56
616.314
616.349
617.876
617.045
620.165
617.725
624.52
617.011
628.268
608.305
638.473
624.326
676.098
608.331
606.292
610.525
609.812
594.467
597.052
590.499
591.097
607.693
607.46
583.403
607.846
598.384
595.948
597.177
598.47
599.834
601.22
602.611
604.004
605.345
606.649
609.875
586.197
609.471
609.682
609.858
609.903
583.966
603.976
601.888
599.312
596.734
594.21
591.825
589.599
587.631
586.029
584.814
590.874
596.648
595.77
610.233
607.078
607.459
609.259
608.261
594.326
593.225
592.229
591.225
590.2
589.168
588.141
587.064
585.814
584.471
583.04
581.64
580.367
579.306
578.663
578.364
578.631
579.576
581.178
583.361
586.042
589.06
592.23
595.412
598.384
600.917
602.936
604.418
605.396
605.95
606.166
606.191
606.164
606.163
606.253
606.477
606.83
607.33
607.851
608.58
609.433
611.3
612.992
615.635
617.503
619.514
620.736
620.931
618.392
613.333
591.04
625.802
607.372
608.012
608.512
608.949
609.353
609.742
610.091
610.507
611.003
592.622
609.515
608.397
609.035
610.308
594.074
592.406
610.096
610.147
610.438
610.97
599.642
606.517
611.332
611.334
611.346
611.371
611.399
611.418
611.434
611.442
611.427
611.413
611.403
611.386
611.376
611.364
611.349
611.702
8.55307
9.16454
8.45605
9.40894
9.0549
9.71062
9.45766
10.0472
9.48591
9.77911
9.52778
10.2006
10.2046
10.4696
9.64387
8.92361
8.23595
8.02835
7.78565
7.73563
7.61116
7.69306
7.66756
7.73891
7.59658
7.69273
7.52932
7.86234
7.33817
9.4891
583.18
583.207
583.454
583.888
584.483
585.355
586.505
587.987
589.976
592.456
595.38
598.595
601.782
604.699
606.672
606.954
606.675
605.643
604.353
603.906
603.783
604.162
605.137
606.651
608.448
610.27
611.924
612.984
613.175
613.314
613.474
613.656
613.927
614.247
614.632
615.009
615.331
615.592
615.818
616.437
616.439
617.655
616.628
619.177
617.466
622.474
618.702
628.209
613.758
635.781
580.315
640.945
10.2729
608.981
608.209
609.958
595.375
592.561
722.448
565.08
597.31
596.829
10.2486
3388.96
3385.3
2904.3
3257.61
3055
3158.16
3080.37
3113.3
3070.11
3098.76
3060.01
3058.16
3045.44
3005.65
3014.02
3095.02
2962
3057.03
2943.81
3030.55
2862.32
3060.61
2863.11
2979.39
2728.5
3121.92
2751.95
3128.76
2707.2
715.07
11.2726
3166.02
2649.28
636.667
532.49
627.99
606.248
622.827
616.277
618.896
617.345
617.467
616.477
616.45
616.42
615.735
615.952
615.082
615.445
614.302
614.685
613.759
614.007
613.534
613.619
613.454
613.541
610.665
612.331
606.992
608.813
604.424
605.44
604.118
604.022
606.044
604.694
607.46
607.106
604.654
606.892
598.324
601.664
592.015
595.006
587.421
589.475
584.919
585.931
583.483
584.109
582.777
583.026
582.921
582.744
584.117
583.342
586.8
585.257
590.951
588.722
596.082
593.418
601.598
598.852
605.44
603.981
607.733
606.804
608.8
608.372
609.718
609.275
610.692
610.164
611.705
611.901
611.997
611.765
611.818
611.746
611.745
611.741
611.735
611.74
611.742
611.747
611.742
611.812
611.766
611.644
611.876
611.438
611.366
611.768
611.953
611.172
611.67
610.293
610.715
609.848
610.025
609.857
609.953
609.621
609.798
608.544
609.275
606.345
607.55
603.678
605.023
600.989
602.335
598.395
599.667
596.08
597.206
593.83
594.938
591.854
592.84
589.904
590.863
587.863
588.916
585.529
586.702
582.894
584.249
580.419
581.606
578.768
579.411
578.896
578.534
581.525
579.888
586.434
583.747
592.545
589.419
598.597
595.677
602.981
601.051
605.306
604.402
605.985
605.791
606.004
606.012
606.208
606.053
606.937
606.497
608.175
607.532
610.029
609.038
613.561
611.609
618.095
616.261
620.691
620.012
618.383
621.089
619.217
611.777
611.967
609.935
591.763
2681.52
608.948
2484.47
610.546
611.976
611.987
611.98
611.994
611.996
611.999
611.998
590.015
609.42
609.525
608.768
609.447
589.253
590.357
588.675
600.186
598.291
599.315
600.746
598.72
599.794
601.323
599.114
600.268
601.902
599.459
600.71
609.089
593.792
611.897
592.358
611.236
593.329
605.428
608.719
595.347
596.212
591.081
591.182
584.138
606.291
590.052
592.328
593.554
609.998
592.341
610.312
589.548
596.879
609.877
594.587
611.583
591.449
605.254
590.322
589.7
596.789
599.729
611.911
610.473
603.4
584.064
595.029
610.197
610.327
609.844
600.477
611.516
586.874
582.275
584.387
598.758
587.095
610.571
587.085
601.615
594.797
572.478
580.272
595.902
)
;

boundaryField
{
    wall
    {
        type            zeroGradient;
    }
    outlet
    {
        type            fixedValue;
        value           uniform 1e-05;
    }
    inlet
    {
        type            fixedValue;
        value           uniform 612;
    }
    frontAndBackPlanes
    {
        type            empty;
    }
}


// ************************************************************************* //
