/*--------------------------------*- C++ -*----------------------------------*\
| =========                 |                                                 |
| \\      /  F ield         | OpenFOAM: The Open Source CFD Toolbox           |
|  \\    /   O peration     | Version:  2212                                  |
|   \\  /    A nd           | Website:  www.openfoam.com                      |
|    \\/     M anipulation  |                                                 |
\*---------------------------------------------------------------------------*/
FoamFile
{
    version     2.0;
    format      ascii;
    arch        "LSB;label=32;scalar=64";
    class       surfaceScalarField;
    location    "0.0384";
    object      phi;
}
// * * * * * * * * * * * * * * * * * * * * * * * * * * * * * * * * * * * * * //

dimensions      [1 0 -1 0 0 0 0];

oriented        oriented;

internalField   nonuniform List<scalar> 
4475
(
2.83664e-06
1.00487e-05
-0.00012301
0.000107576
-2.18683e-05
-7.27462e-06
9.40792e-06
1.05679e-05
-0.000128256
0.000148313
-9.03974e-06
-8.77828e-06
3.14364e-05
-0.000445104
1.40786e-05
0.000390378
-0.00015107
0.000198798
0.000136568
-0.000187605
4.83363e-05
-0.000195271
-8.01935e-05
0.000224145
1.73292e-05
-7.58042e-05
0.000268552
-0.000214085
-0.000128483
-9.73392e-05
0.00017969
4.23657e-05
0.000152762
-0.000149312
-0.00015775
-0.00074151
-3.38091e-05
0.000119769
0.000653212
-0.000145215
0.000117724
-0.00071618
-0.000753705
0.000109364
-8.25888e-05
0.000725617
-0.000735649
4.4663e-05
-6.3785e-05
-0.00070395
3.45869e-05
-6.69059e-05
-0.000660216
3.40396e-05
-7.77924e-05
-0.000606743
3.57648e-05
-8.89019e-05
4.00655e-05
-0.000536161
-0.000110109
0.000556127
-7.53226e-05
-0.000499195
1.89755e-05
0.000641117
-4.42189e-05
0.000697702
-2.00956e-05
0.000743481
-1.11545e-05
0.000779741
-2.0536e-06
0.00081324
1.05514e-05
0.0009028
1.91363e-05
0.000792504
-3.59796e-05
0.000741782
1.50284e-05
0.000910623
8.87348e-05
-0.000260992
0.000809039
7.71141e-05
2.08292e-05
0.000358981
-0.000303608
-4.21224e-05
-0.000479927
-0.000131036
0.000726391
8.06732e-05
-3.73028e-07
0.000638293
8.42341e-05
2.78504e-06
0.000542506
8.62507e-05
1.12912e-05
0.00044258
8.37827e-05
2.14194e-05
0.000344522
7.67408e-05
2.93274e-05
0.000252254
7.00321e-05
3.11971e-05
0.000170398
6.31751e-05
2.66916e-05
0.000101623
5.6657e-05
1.81451e-05
4.6405e-05
5.13741e-05
8.29133e-06
3.45874e-06
4.79316e-05
-1.30325e-06
-2.89421e-05
4.62679e-05
-9.80661e-06
-5.34375e-05
4.6926e-05
-1.84539e-05
-7.26039e-05
4.94351e-05
-2.61062e-05
-8.8454e-05
5.46873e-05
-3.4521e-05
6.14434e-05
-0.000103348
-4.22029e-05
8.14392e-05
-9.19752e-05
7.78172e-05
6.85002e-05
7.37561e-05
5.16536e-05
7.25391e-05
2.99716e-05
7.4748e-05
1.32023e-06
8.10938e-05
-3.76531e-05
9.2867e-05
-8.73657e-05
0.000107811
-0.000150279
0.000127439
-0.000225375
0.000147341
-0.000310636
0.000164528
-0.000403199
0.00017714
-0.000496286
0.000181637
-0.000586081
0.000177192
-0.000667564
0.000164177
-0.00073864
0.000148761
-0.000813684
0.000148176
-0.000633429
0.000206891
-0.000390766
-0.000662049
0.000145188
-0.000621951
7.45516e-05
-0.000619752
4.13387e-06
-8.56548e-06
-0.000645704
-5.87473e-05
-0.000628968
-8.22292e-05
-0.000598188
-9.88825e-05
-0.000558382
-0.000118241
-0.000510198
-0.000137353
-0.000465879
-0.000154445
7.18666e-05
-5.1901e-05
-0.000118813
8.79526e-05
-0.000102393
0.000596127
-0.000123105
-0.000516433
0.000652176
-7.54131e-05
0.000700215
-5.87916e-05
0.000739798
-4.08242e-05
0.000779228
-2.85172e-05
0.00081256
-1.37837e-05
0.00078527
-8.29692e-06
0.00077853
2.07085e-05
0.000807814
5.72615e-05
0.000763274
6.28779e-05
0.000690371
7.0419e-05
0.000605268
8.76724e-05
0.000511655
0.000107494
0.00041548
0.000123308
0.000321057
0.000131474
0.000233015
0.000127129
0.000155698
0.000110155
9.01296e-05
8.71887e-05
3.69236e-05
6.30408e-05
-5.01626e-06
4.19012e-05
-3.68187e-05
2.2803e-05
-6.1086e-05
7.82609e-06
-8.0409e-05
-4.01358e-06
-9.6925e-05
-1.48721e-05
-0.000112525
-2.31911e-05
-8.42442e-05
-0.000459198
4.45206e-05
-3.09255e-05
-0.000129362
-0.000160287
-0.000403846
-0.000420096
-0.000176847
8.31019e-05
-8.75204e-05
0.000100045
7.69584e-05
9.1988e-05
6.76543e-05
9.15664e-05
5.53765e-05
9.3387e-05
3.81186e-05
0.00010038
1.5108e-05
0.000112447
-1.4532e-05
0.000130864
-5.36242e-05
0.000155579
-0.000101974
0.000185016
-0.000161549
0.000216356
-0.00023107
0.000243039
-0.000306431
0.000259623
-0.00038367
0.000263091
-0.000457711
0.000252379
-0.000524206
0.000229432
-0.000577924
0.000199807
-0.000605962
0.000172692
-0.000555126
0.000152245
-0.000521665
0.000108005
-0.000500663
5.00386e-05
-0.000487995
-1.14304e-05
-0.000485553
-6.39056e-05
-0.000469942
-0.000100141
-0.000442648
-0.000128048
-0.000411324
-0.000150987
-0.00037749
-0.000172335
-0.000344975
-0.000187931
-0.000121806
3.10448e-05
-4.3218e-05
0.000170729
-3.76561e-05
-0.000141529
6.00852e-06
-0.000194114
-3.07133e-05
0.000225527
-2.88137e-06
2.26791e-05
0.000502129
-9.29722e-05
-8.8375e-06
-0.000400576
0.000500533
-0.000121127
0.000541734
-0.000116016
0.000581393
-9.77019e-05
0.000619288
-7.77684e-05
0.000649997
-5.81512e-05
0.000672343
-3.51417e-05
0.000673683
-8.89345e-06
0.000670647
2.45626e-05
0.000662539
6.51055e-05
0.000625923
9.91581e-05
0.000565071
0.000131652
0.000489759
0.0001645
0.00040788
0.000193038
0.000324494
0.000212776
0.000245319
0.000217669
0.000172912
0.000205404
0.000108668
0.000177819
5.48164e-05
0.000141846
1.01622e-05
0.000106756
-2.44343e-05
7.53164e-05
-5.20675e-05
5.00994e-05
-7.34893e-05
3.02195e-05
-9.08112e-05
1.54976e-05
-0.000105905
3.30869e-06
-0.000119688
-5.3642e-06
-0.000133783
-1.13449e-05
3.4562e-05
-0.000148481
-1.2652e-05
5.74312e-05
-0.000146668
7.64832e-05
-0.000132493
8.96861e-05
-0.000109091
-0.000149321
0.000181927
-0.000134156
-9.0111e-05
0.000100743
4.62933e-05
-6.34737e-05
-0.000112366
0.00015326
-8.68221e-05
-0.000163199
8.94469e-05
-0.000209128
-0.000371595
-5.97816e-06
-3.7077e-05
0.000138415
-9.95375e-05
0.000183806
0.000187975
-0.000176759
-0.000516766
-2.15954e-05
7.8636e-05
-0.000319588
-0.000203204
3.64334e-05
-1.0523e-05
-0.000165591
6.74721e-05
-0.000170744
9.62117e-05
-0.000154945
0.000114746
-0.000120941
0.000124095
-9.11219e-05
7.69387e-05
0.000126437
-6.81966e-05
7.64986e-05
0.000112711
7.79627e-05
0.000109227
7.52053e-05
0.000105576
7.09501e-05
0.000106811
6.30874e-05
0.000112217
5.17524e-05
0.000122395
3.63238e-05
0.000138287
1.75364e-05
0.000159549
-6.19885e-06
0.000189126
-3.71278e-05
0.000225354
-7.58839e-05
0.000263674
-0.000121851
0.000296916
-0.000173786
0.000317633
-0.00022841
0.000321518
-0.000281402
0.000306775
-0.000329451
0.000276817
-0.000366421
0.000234582
-0.000383853
0.000186942
-0.000372277
0.000137042
-0.000352475
8.44881e-05
-0.000329344
2.29211e-05
-0.000314001
-3.03561e-05
-0.000301744
-7.95415e-05
-0.000284347
-0.000120557
-0.000263066
-0.000152055
-0.000239422
-0.000177106
-0.000218623
-0.000195544
-0.000205679
-0.000203021
-9.5942e-05
4.46027e-05
-0.000298443
0.000347411
2.49183e-05
5.0686e-05
-6.07316e-05
-1.46406e-05
0.000233815
-0.000206448
0.000105834
6.06692e-05
-0.00013079
9.60378e-05
0.000110413
-0.000122979
6.87443e-05
0.000154963
-0.000124852
0.000193875
-0.000131769
8.86052e-05
0.000232858
-0.000138637
0.000275575
-0.000144857
9.92746e-05
0.000326571
-0.000145687
0.000353716
-0.000149173
0.000382191
-0.000144804
0.000412393
-0.000127622
0.00044129
-0.000105723
0.000463366
-7.84472e-05
0.000477717
-4.74083e-05
0.000481135
-9.58526e-06
0.000473954
3.45997e-05
0.000456094
8.50016e-05
0.000422221
0.000135365
0.000372409
0.000184021
0.000313179
0.00022707
0.000251217
0.000259885
0.000189656
0.000280295
0.000133511
0.000279495
8.34533e-05
0.000259226
4.0459e-05
0.000221702
3.50861e-06
0.000177223
-2.65489e-05
0.000134417
-5.20139e-05
9.85945e-05
-7.28562e-05
7.02832e-05
-8.95287e-05
4.82202e-05
-0.000103183
3.22527e-05
-0.000114794
1.95099e-05
-0.000125381
1.13843e-05
-0.000135905
7.26079e-06
-0.000146143
7.50918e-06
1.26228e-05
-0.000157704
-1.66912e-05
-0.000148338
0.000118016
4.71558e-05
-9.17234e-05
0.000125762
0.000108886
-0.000126905
1.81867e-05
2.3242e-06
0.000149673
-0.00041127
-0.000122012
0.000374543
8.40717e-05
2.24696e-05
-2.76746e-05
-7.73413e-05
9.90138e-05
-1.64666e-05
-0.000220649
-0.000309357
-0.000366102
-2.98856e-05
0.000438865
7.0033e-05
-5.74484e-05
0.000127712
7.26997e-05
0.000124349
7.64285e-05
0.000118812
7.80308e-05
0.000117118
7.71891e-05
0.000120403
7.40041e-05
0.000127596
6.88553e-05
0.000139197
6.16647e-05
0.000156729
5.28528e-05
0.000179233
4.2188e-05
0.000209796
2.99085e-05
0.000246329
1.47932e-05
0.000286237
-4.74363e-06
0.000323028
-3.03273e-05
0.000348242
-5.92444e-05
0.00035395
-8.9681e-05
0.000338863
-0.000118501
0.00030547
-0.00014148
0.000255802
-0.000155069
0.000197569
-0.000155894
0.000134185
-0.000146228
7.09149e-05
-0.00013499
7.48081e-06
-0.000121997
-4.74586e-05
-0.000108163
-9.73947e-05
-9.36836e-05
-0.000138895
-7.81587e-05
-0.000171206
-6.33122e-05
-0.000195326
-5.2866e-05
-0.000209199
-4.60727e-05
-0.000215789
-0.000212695
-0.000195767
-0.000102671
-7.27539e-05
0.000135331
1.86919e-07
0.000220117
-0.000239858
1.02702e-05
-2.28651e-06
-0.000132527
-2.47455e-06
1.41504e-05
-0.000145612
3.93359e-05
-0.000156061
6.62745e-05
-0.000164451
9.33065e-05
-0.000171023
0.000120295
-0.000176503
0.000148119
-0.000177318
0.000170563
-0.000174485
0.000189448
-0.000165418
0.000209404
-0.000148233
0.00022682
-0.000122309
0.000240586
-9.00436e-05
0.000247295
-5.05463e-05
0.000245784
-4.34274e-06
0.000234925
5.01442e-05
0.000215629
0.000108872
0.00018723
0.000168322
0.00015169
0.000223724
0.000112068
0.000271534
7.28598e-05
0.00030459
3.83178e-05
0.000320228
8.6547e-06
0.000313223
-1.38641e-05
0.000283568
-3.2723e-05
0.000239671
-5.02996e-05
0.000192204
-6.75554e-05
0.000148699
-8.30343e-05
0.000112192
-9.63068e-05
8.39375e-05
-0.000107118
6.2073e-05
-0.000115429
4.5996e-05
-0.000122541
3.40866e-05
-0.00012861
2.67838e-05
-0.000133151
2.30451e-05
-0.000134932
2.24083e-05
-0.000132092
2.44239e-05
-4.53431e-06
1.20413e-05
-0.000123387
1.15495e-05
-0.000161026
2.91236e-05
-0.000173466
5.39958e-05
-0.000188008
7.54126e-05
-0.000168963
9.13076e-05
-0.000128446
0.000109692
-9.94102e-05
0.00012981
-7.55477e-05
-6.03899e-05
0.000148443
0.000103328
1.93466e-06
5.78951e-06
1.2709e-06
-5.58485e-06
0.000132147
-0.000125789
-7.65674e-06
2.75572e-06
-5.84729e-06
1.06172e-05
4.92077e-05
-4.83727e-05
1.69423e-05
-0.000111701
9.45484e-05
2.66155e-06
-1.03196e-05
6.81529e-06
-5.15142e-05
-0.00021048
-0.000210988
-0.000207783
-7.83773e-05
-3.78892e-05
1.08117e-05
1.66926e-05
-6.21634e-05
9.03677e-05
2.83251e-05
4.05636e-05
-4.02219e-05
-2.98179e-05
0.000153487
0.000260466
-9.16363e-05
9.18838e-05
-0.000139552
-8.46589e-05
-0.000159809
-7.43154e-05
-0.000173787
-6.20742e-05
-0.000184026
-5.02215e-05
-0.000190067
-3.9368e-05
-0.000194145
-2.86865e-05
-0.000194079
-1.93962e-05
-0.000188701
-1.15325e-05
-0.000176656
-4.60651e-06
-0.000156931
1.78176e-06
-0.000128206
5.33722e-06
-9.11252e-05
4.03897e-06
-4.52722e-05
-2.59974e-06
7.8486e-06
-1.36229e-05
6.69726e-05
-2.82326e-05
0.000129731
-4.61521e-05
0.000192154
-6.61781e-05
0.000249056
-8.42407e-05
0.000294943
-9.65612e-05
0.000322361
-0.000103605
0.000331866
-0.000104168
0.000316556
-0.000101638
0.000281617
-0.000100865
0.000237486
-0.00010331
0.000192216
-0.000108062
0.000151453
-0.000114331
0.000118301
-0.000120122
9.24824e-05
-0.000124317
7.21719e-05
-0.000127254
5.74395e-05
-0.000130071
4.75663e-05
-0.000131874
4.11708e-05
-0.000132964
3.84178e-05
-0.000131301
3.65166e-05
-0.000123848
3.39039e-05
-0.000111672
1.86909e-05
-2.65042e-05
6.00276e-06
-7.30737e-05
-3.50283e-05
-9.92318e-05
-7.34195e-06
-0.000176124
2.89114e-05
-0.000200796
7.99963e-05
-0.000232619
0.000126711
-0.000209733
0.000152171
-0.000147229
0.000154167
-9.25776e-05
0.000135567
-4.49139e-05
0.000111101
-2.09667e-05
5.12626e-05
-3.56814e-05
0.000111707
5.65886e-05
0.000160798
6.72142e-05
0.000132907
7.24691e-05
0.000135291
7.86274e-05
0.000127832
8.22147e-05
0.000128181
8.5306e-05
0.000131249
8.71393e-05
0.000138947
8.7649e-05
0.000151038
8.81135e-05
0.000167703
8.79318e-05
0.000190022
8.87323e-05
0.000218348
9.06861e-05
0.000251946
9.40591e-05
0.0002887
9.79432e-05
0.000324291
9.97717e-05
0.000350655
9.69132e-05
0.000359999
9.04435e-05
0.000347148
8.05671e-05
0.000315318
7.10935e-05
0.000263781
6.43292e-05
0.000201529
6.13485e-05
0.000133309
6.38286e-05
6.40167e-05
6.50741e-05
1.60325e-06
7.24266e-05
-5.92817e-05
8.05774e-05
-0.000110023
8.91237e-05
-0.000151808
9.74798e-05
-0.000183589
0.000104352
-0.000206042
0.000109001
-0.000217223
-0.000214486
0.00010383
-9.59325e-05
-9.37296e-05
0.000114692
-0.000201768
-6.39655e-05
-0.000254594
-0.000196409
0.000240256
5.53376e-05
-6.17789e-05
-2.97842e-06
-9.29144e-05
6.06694e-05
-3.42283e-05
-0.000123994
-2.31509e-05
-6.5173e-06
-0.00014007
0.000221487
5.1212e-05
-0.000282657
-0.000120092
0.00011816
-0.000170103
-0.000112947
0.000155978
-0.000169784
-0.00014766
-0.000170262
-0.000167509
-0.000172177
-0.000180408
-0.000175517
-0.000189492
-0.00017927
-0.000195225
-0.000184537
-0.000197709
-0.000189426
-0.000197351
-0.000194889
-0.000190225
-0.000200119
-0.000176451
-0.000205347
-0.000154465
-0.000210274
-0.000123585
-0.000214972
-8.3716e-05
-0.000221928
-3.44332e-05
-0.000229722
2.11819e-05
-0.000238313
8.19851e-05
-0.000246459
0.000144593
-0.000252454
0.000204565
-0.000254547
0.000257606
-0.000250543
0.00029667
-0.00023888
0.000316076
-0.00021893
0.000315913
-0.000195948
0.000295653
-0.000175365
0.000261246
-0.000160043
0.000221128
-0.00015024
0.000181276
-0.00014584
0.000147103
-0.000144035
0.00011887
-0.0001421
9.6104e-05
-0.000139754
7.87279e-05
-0.000137577
6.68327e-05
-0.00013483
5.84796e-05
-0.000132887
5.44834e-05
-0.00013011
5.20869e-05
-0.000125095
4.86719e-05
-0.000115431
4.16246e-05
-0.000103665
2.61275e-05
-6.85891e-05
-1.18542e-05
3.24773e-05
-6.06993e-05
-2.04918e-05
2.68188e-05
-4.74914e-05
1.69894e-05
-7.17865e-05
2.50908e-05
-0.000170974
2.67642e-05
-0.000193548
4.92318e-05
-0.000248617
6.25209e-05
-0.000217222
7.84121e-05
-0.000156776
0.000110704
-0.000116712
0.000130484
-5.46629e-05
0.000157154
-3.43846e-05
0.000172063
-3.55118e-05
6.47073e-05
-6.42733e-05
0.000187363
5.0817e-05
0.000142161
5.89695e-05
0.000171536
6.43416e-05
0.000144704
7.21231e-05
0.000144689
7.94782e-05
0.000136517
8.66916e-05
0.000136341
9.38095e-05
0.00013865
0.000100401
0.000145839
0.000106926
0.000156895
0.000113174
0.000172422
0.000120618
0.000192141
0.000129974
0.000216703
0.000142615
0.000245241
0.000159359
0.000276265
0.000180448
0.000306865
0.000203344
0.000331028
0.000224213
0.000341864
0.000240133
0.000333097
0.000251516
0.000304382
0.000256423
0.000257566
0.00025694
0.000198408
0.000256072
0.000130496
0.000254518
6.12144e-05
0.000253074
-1.63888e-06
0.000253091
-6.38297e-05
0.000251784
-0.000113363
0.000250021
-0.000154754
0.000248591
-0.000186971
0.000245756
-0.00020797
0.000240481
-0.000217044
-0.000212354
0.000233415
9.31996e-05
-0.000203792
-7.67961e-05
-5.9077e-05
-0.000102086
-7.9457e-05
8.63582e-05
2.39436e-06
1.62194e-05
-1.26497e-05
-5.31154e-06
7.79727e-05
-0.000190633
0.000160195
-1.37793e-06
5.34602e-05
0.000143845
3.58712e-06
0.000117411
-2.58626e-06
-0.000146203
4.59106e-05
-0.000156968
-1.1995e-05
-0.000137004
4.54047e-05
-6.65211e-05
-0.000197188
-3.35293e-05
2.96091e-05
9.14209e-05
-1.25108e-05
6.99588e-05
-0.000110652
-1.85881e-06
-2.26663e-06
4.25784e-05
-6.99137e-05
9.36535e-06
-5.90594e-05
-0.000171151
1.97175e-05
-0.000265875
0.000131136
-0.000355514
0.000195712
-0.000275557
0.000200821
-0.00015356
0.000101835
-6.48645e-06
-4.35652e-06
6.50044e-05
-6.29179e-05
3.98635e-05
-1.66618e-05
-6.74681e-05
9.14245e-05
-0.000160585
5.15049e-05
0.000177681
-0.000127432
4.80624e-05
0.000206334
3.90443e-05
0.000167691
4.98545e-05
0.000179915
5.77806e-05
0.000154829
6.86585e-05
0.000151454
7.94027e-05
0.000142172
9.02802e-05
0.000140818
0.000101378
0.000142035
0.00011245
0.000148063
0.000123625
0.000157524
0.000135098
0.000170857
0.000147406
0.000187729
0.000162395
0.000207458
0.000181279
0.000230216
0.000205475
0.000254596
0.000236212
0.000278222
0.00027182
0.000297478
0.000308905
0.000306582
0.000343337
0.000300077
0.000370531
0.000277607
0.00038921
0.000237858
0.000400627
0.000184781
0.00040572
0.000122373
0.000405817
5.74997e-05
0.000401269
-9.10302e-07
0.000398816
-6.56065e-05
0.000388875
-0.000107866
0.000378906
-0.000149317
0.000367127
-0.000180024
0.000353897
-0.000200029
0.00034157
-0.000210266
-0.000208944
0.00033262
-0.000194681
0.000219451
4.52049e-05
-0.000166984
-8.76958e-05
-5.86959e-05
-2.26142e-05
-0.000313419
1.19355e-05
-2.17884e-05
0.00031239
-8.00165e-05
4.08409e-06
7.71945e-05
1.61691e-07
-0.000221845
-0.000156839
0.000222156
-0.000232398
-0.00016609
-0.000246788
-0.000175597
-0.000263364
-0.000182982
-0.000280861
-0.000188247
-0.000300311
-0.000188993
-0.000319013
-0.000188714
-0.000337776
-0.000180157
-0.000355536
-0.000165289
-0.000371478
-0.000142438
-0.000385169
-0.000110784
-0.000396423
-6.98744e-05
-0.000406595
-2.09776e-05
-0.000413398
3.32467e-05
-0.000416499
9.11764e-05
-0.000415016
0.000149332
-0.000407531
0.000203179
-0.000391068
0.000247106
-0.000365654
0.000276778
-0.000333615
0.000288514
-0.000297172
0.000282743
-0.000260805
0.000261248
-0.00022969
0.00023078
-0.000205815
0.000197385
-0.000189139
0.00016537
-0.000176929
0.000137235
-0.000167942
0.000114811
-0.000159933
9.62241e-05
-0.000152477
8.27534e-05
-0.000144657
7.32501e-05
-0.00013778
6.77938e-05
-0.000131825
6.57671e-05
-0.000125927
6.36832e-05
-0.000119814
5.96655e-05
-0.000114736
5.24543e-05
-0.000104135
3.27043e-05
-9.35333e-05
-7.88814e-06
-8.14849e-05
-1.57525e-05
-7.72675e-05
-9.84917e-05
-9.79911e-05
-5.46118e-05
4.98922e-05
-6.78455e-05
-7.19463e-05
-0.00012197
3.93832e-06
-1.12699e-05
0.000130425
-2.68176e-05
-0.000189091
7.20745e-05
5.57289e-05
-0.00017899
1.55485e-05
-2.30317e-05
0.000194121
5.29253e-06
0.000232572
1.95603e-05
0.000169692
3.12445e-05
0.000187329
4.68563e-05
0.000157408
6.12364e-05
0.000154626
7.70038e-05
0.000142971
9.21842e-05
0.000141046
0.000107736
0.000140684
0.000122767
0.00014562
0.000137909
0.00015303
0.000153071
0.000164007
0.00016922
0.00017744
0.000187232
0.000192991
0.000209154
0.000209943
0.000236503
0.000227831
0.000270313
0.000244693
0.000310466
0.000257594
0.000354389
0.000263713
0.000397169
0.000258173
0.000435418
0.000239637
0.000466097
0.000206526
0.000487603
0.000161765
0.000500059
0.000107917
0.000504061
5.09861e-05
0.000504876
-5.04154e-06
0.000494916
-5.90508e-05
0.000481971
-9.85392e-05
0.000466154
-0.00013736
0.000446578
-0.000164816
0.000424047
-0.000182831
0.000404292
-0.000196178
0.000394132
-0.000205106
-0.000189688
0.00032187
0.000218434
-0.000149552
-2.6786e-05
1.0721e-05
-4.14593e-05
0.000116923
-9.36668e-05
-8.55398e-05
0.000176147
-4.42605e-05
9.50816e-05
0.000139137
-5.82112e-06
0.000121572
1.33234e-05
-0.000177425
2.0945e-05
-0.000267648
4.32571e-05
-0.00037551
2.19122e-05
-0.000256014
1.43765e-05
-0.000142539
3.02963e-05
-1.83857e-05
3.22003e-05
6.59815e-05
8.25178e-05
-2.14659e-06
0.000109514
-8.48228e-05
0.000141862
-0.000184942
0.000184616
-0.000164014
0.000252994
-8.55731e-05
1.57791e-05
-0.000141257
-4.41295e-05
-0.000133627
5.10107e-06
-0.000156079
1.41085e-05
-0.000181799
2.19495e-05
3.00806e-05
-0.000240651
0.000113031
0.00027773
-0.000132888
-0.000102854
8.85456e-05
-9.52905e-05
8.71594e-06
-8.01519e-06
5.80052e-05
0.000364237
-0.000400974
-0.000246946
-0.00013657
0.000217392
-0.000272942
-0.000149849
-0.000298527
-0.000160455
-0.00032454
-0.000168213
-0.000352623
-0.000172174
-0.000380909
-0.000173265
-0.000410759
-0.00017041
-0.000439002
-0.00016219
-0.000465375
-0.000146871
-0.000488605
-0.000124137
-0.000507459
-9.35676e-05
-0.000521115
-5.49462e-05
-0.0005311
-8.59795e-06
-0.000534557
4.07471e-05
-0.000531288
9.29146e-05
-0.000520319
0.000143364
-0.000500206
0.000187933
-0.000470672
0.00022226
-0.000432723
0.000243138
-0.000389604
0.00024903
-0.000345002
0.000241029
-0.000303913
0.000222165
-0.000268887
0.000197421
-0.000240603
0.000171112
-0.00021851
0.000146363
-0.000201409
0.000124931
-0.00018702
0.000107483
-0.000174346
9.36984e-05
-0.000161735
8.34449e-05
-0.000149704
7.72973e-05
-0.000138389
7.41316e-05
-0.000127681
7.32179e-05
-0.000119799
7.32728e-05
-0.000113008
6.89267e-05
-0.000115636
6.82207e-05
-0.000112353
4.30761e-05
-0.000131852
2.22779e-05
-0.000127374
-6.82263e-06
-0.000150701
-6.20844e-05
-0.000148799
-8.37904e-05
-9.09166e-06
-0.000119
7.37591e-06
-0.000166288
0.000190008
-0.000167173
0.000160701
-8.64587e-05
-2.52214e-05
1.39409e-05
-5.2807e-05
-3.87259e-05
-7.44013e-05
-5.26739e-05
0.000132575
1.15522e-05
-0.000139041
-0.000119971
-6.84168e-06
0.000109941
0.000303426
-0.000171409
3.40983e-05
-0.000230005
0.000426759
0.000314522
0.000129772
-0.000169778
6.01927e-06
0.00010182
-2.45535e-06
-0.000171277
0.000245645
0.000159032
-0.000244326
-3.27635e-06
0.000141897
1.32167e-05
-0.000150575
-0.000104494
0.000120478
0.000241768
-6.32492e-05
0.000164889
-4.47644e-05
0.000228347
-1.78262e-05
0.000161125
1.48711e-06
0.000186954
2.86781e-05
0.000148205
5.03261e-05
0.000150474
7.27309e-05
0.000137077
9.28879e-05
0.000135858
0.000112711
0.000134385
0.00013168
0.000138227
0.000149826
0.000143989
0.000167699
0.000152493
0.000186114
0.000162686
0.000206071
0.000174258
0.000228874
0.000186515
0.00025633
0.000198805
0.000289574
0.000209557
0.000328613
0.000217278
0.000371844
0.000219413
0.00041635
0.000213124
0.000458728
0.000196903
0.00049532
0.000169486
0.000523727
0.000132745
0.000542081
8.88895e-05
0.000550405
4.17973e-05
0.000551192
-6.93732e-06
0.000545077
-5.47502e-05
0.000532037
-8.77906e-05
0.000514151
-0.00012235
0.000492799
-0.00014693
0.000470146
-0.000164791
0.000444075
-0.00017584
0.000410884
-0.00017847
-0.000184417
0.000357656
-8.87256e-06
-0.000127534
0.000121646
-0.000131778
1.82199e-05
-7.58113e-06
6.66472e-06
0.000122471
0.000172551
-0.000139747
-0.000177012
0.000186802
-9.3418e-05
0.00011835
3.29507e-05
8.23616e-05
0.00018789
-7.92505e-06
0.000223138
-0.000187667
1.40909e-05
2.95888e-05
-0.000478174
0.000284441
-0.00061789
0.000137088
-8.63082e-05
-0.000140279
0.000149786
-0.000312397
0.000171867
-0.000383908
0.000150879
-0.000370711
-4.53083e-06
-0.000191984
-0.000254639
-6.56734e-08
-0.000370131
0.00012591
-0.000285981
0.000121608
-7.7656e-05
3.35356e-05
0.000216531
-0.000139921
-0.000141065
1.90047e-05
-0.000159665
2.71988e-05
-0.000179536
3.49758e-05
-0.000196985
3.96328e-05
6.43505e-05
-0.000219606
-1.2984e-06
6.67669e-06
3.52274e-05
1.80212e-05
-0.000248143
-0.000109249
0.000222173
0.000126694
-0.0002738
-0.000120323
-0.000302256
-0.000131562
-0.000332374
-0.000141419
-0.000364179
-0.000148628
-0.000396937
-0.000152636
-0.000430773
-0.000153176
-0.00046554
-0.000149528
-0.000498234
-0.000141031
-0.000527904
-0.000126068
-0.00055383
-0.000104274
-0.000574562
-7.55433e-05
-0.00058863
-4.04478e-05
-0.000595352
2.25526e-07
-0.000595239
4.2949e-05
-0.000586517
8.71965e-05
-0.000568909
0.000128637
-0.000541923
0.000163677
-0.000506373
0.000189407
-0.000464355
0.00020379
-0.000419167
0.00020646
-0.00037436
0.000198825
-0.000333124
0.000183742
-0.000297013
0.000164607
-0.000266515
0.000144764
-0.000241204
0.00012639
-0.000220117
0.000110637
-0.000202036
9.78951e-05
-0.000185321
8.81645e-05
-0.000169304
8.13579e-05
-0.000153173
7.76885e-05
-0.000137033
7.59305e-05
-0.000123002
7.73756e-05
-0.000112079
7.93051e-05
-0.000104064
7.52124e-05
-0.000113347
8.7339e-05
-0.000117521
5.69613e-05
-0.000163065
7.44121e-05
-0.000171016
1.07599e-05
-0.000241813
1.79153e-05
-0.000244255
-7.25291e-05
-0.000297134
-8.07955e-05
-3.80043e-05
-0.000112348
6.97735e-06
-0.00013764
0.000287659
7.79679e-06
9.16484e-05
4.27004e-05
-6.66539e-05
-7.28375e-05
9.70502e-05
2.28532e-05
-7.49317e-05
9.54055e-05
-7.04444e-05
7.7881e-06
0.000163142
-0.000157284
-2.57881e-06
-3.00953e-05
-6.9096e-05
-4.63824e-05
-4.53564e-05
-0.000127916
0.000125491
-2.44546e-07
-0.000122056
1.89213e-05
-4.92933e-06
0.000110135
0.000118001
-0.000108529
1.49042e-05
0.000337575
-6.86309e-05
-0.000407472
0.000103725
-0.00012322
-1.9076e-05
0.00013087
-0.000126882
0.000129279
-1.24081e-05
-1.16759e-05
-0.000122824
-0.00044132
-0.000157539
-0.000466102
-0.000160163
-0.000492064
-0.000155112
-0.000515347
-0.000144967
-0.000536521
-0.000127769
-0.000553312
-0.000106938
-0.000560908
-8.07211e-05
-0.000567682
-4.78414e-05
-0.000562715
-1.10054e-05
-0.00054836
2.86636e-05
-0.000525492
6.70493e-05
-0.000494351
0.000102041
-0.000457
0.000131846
-0.000415975
0.000154771
-0.00037456
0.000169669
-0.000335136
0.000177088
-0.000299784
0.000178263
-0.000269055
0.000174877
-0.000242873
0.000168654
-0.000220183
0.000160841
-0.000199523
0.000152469
-0.000179748
0.000144285
-0.000159989
0.000136925
-0.000139369
0.000130512
-0.000117469
0.000126284
-9.37447e-05
0.000123058
-6.82231e-05
0.000124968
-3.97257e-05
0.000125072
-1.03627e-05
0.000138294
2.10514e-05
0.000134917
5.81758e-05
0.000169013
9.0636e-05
0.00014826
0.000132043
0.000202996
0.000170186
0.000141479
0.000226556
0.000191901
0.00029309
-1.99923e-05
-9.37756e-06
-0.000118229
1.0163e-05
0.000254468
-0.000181117
-0.000369972
0.000278977
-0.000200375
0.000308887
-0.000120183
0.000405648
-6.01332e-05
0.000178354
0.00041806
-8.53106e-05
0.000489258
-2.42691e-05
-4.12609e-05
-2.31944e-06
-0.000506492
-2.90496e-05
-0.000588795
-7.10534e-05
-3.55323e-05
-0.000223813
0.000322254
-0.000349885
0.000305586
-0.000220037
2.36979e-05
-0.000113535
-0.000110366
-0.00010129
-0.000268308
-0.000115102
-0.000362257
-8.87071e-05
-0.000322354
4.51098e-05
-0.000221797
3.07191e-05
0.000222172
-3.20204e-05
0.000350762
-6.37201e-05
-0.000104344
-7.40478e-05
0.000355549
-6.46568e-05
-9.45314e-05
9.21849e-05
-2.98076e-05
-0.000149277
0.000117473
6.22502e-05
-2.11988e-05
0.000124778
-1.67937e-05
0.000126969
-1.66224e-05
0.000130217
-0.000130775
-1.67683e-05
0.000132096
-0.00012721
-1.46467e-05
-0.000124187
-1.32051e-05
1.42117e-05
-2.00588e-05
-0.000116731
-0.000382605
0.000115978
-5.65378e-06
-0.000114371
0.000115737
6.00604e-06
-4.95411e-06
-0.000128543
1.31856e-05
-1.22639e-05
-0.000104023
0.000105845
1.25191e-05
-0.00011785
7.31971e-05
-4.84654e-05
-9.68348e-05
5.35856e-05
-5.41546e-05
-5.33726e-05
3.79672e-05
-0.000150058
0.000137019
-8.51493e-05
-8.46684e-05
5.58369e-05
2.44634e-07
-6.00347e-06
-0.000142687
2.62271e-05
-0.000154826
3.43504e-05
-0.000166204
4.02319e-05
-0.000182139
4.83014e-05
6.03749e-05
-0.000186383
0.000139139
-0.000230365
-0.000138001
-8.66314e-05
4.44058e-05
0.000128804
-9.21959e-05
-0.000235648
-9.09167e-05
0.000109141
0.00020883
-0.000260888
-9.28767e-05
-0.000288801
-0.000101971
-0.000318994
-0.000111832
-0.000350978
-0.000121112
-0.0003849
-0.000127767
-0.000420518
-0.000131333
-0.000456908
-0.000131714
-0.000493277
-0.000128155
-0.000528578
-0.00011984
-0.000557819
-0.000106234
-0.000582668
-8.62856e-05
-0.000601451
-6.04853e-05
-0.000612608
-2.98244e-05
-0.000616214
4.24385e-06
-0.000612682
3.96935e-05
-0.000600725
7.55958e-05
-0.000580327
0.000108294
-0.000551887
0.000135142
-0.000516759
0.000154356
-0.000476868
0.000164438
-0.000434887
0.000165794
-0.000393406
0.000159703
-0.000354125
0.000148007
-0.000318566
0.000133826
-0.000286892
0.000119167
-0.000259327
0.000106067
-0.000235425
9.49112e-05
-0.00021445
8.61218e-05
-0.000194723
7.95776e-05
-0.00017539
7.56582e-05
-0.000155461
7.37855e-05
-0.000135718
7.3313e-05
-0.000116699
7.53689e-05
-0.000100257
7.82302e-05
-8.62319e-05
7.3373e-05
-8.57072e-05
9.35579e-05
-8.25934e-05
6.04796e-05
-0.000103221
9.85273e-05
-0.00011618
3.05023e-05
-0.000133965
4.19688e-05
-0.000177121
-2.58176e-05
-4.84086e-05
-0.000202498
-0.000141945
-8.92967e-05
-0.000121611
1.50178e-05
0.000103371
-0.000133176
8.14907e-06
1.04517e-05
-1.04461e-06
-0.000141617
0.000111991
-1.21981e-06
-0.000114103
4.60448e-06
-0.000127751
1.0744e-05
-0.000124926
0.000250008
-5.04134e-07
-0.000126814
1.3761e-06
-2.95623e-05
-0.000129547
3.16735e-05
-1.3454e-05
-0.000123966
2.08841e-05
0.000118589
-2.95907e-05
-4.62684e-05
-1.27517e-05
-5.88351e-05
-1.38531e-06
2.67632e-05
0.000112013
-0.000129298
-9.68239e-05
-3.36271e-05
7.78164e-05
-0.000117442
-0.000116314
9.50769e-05
-0.000121806
-4.23336e-06
-8.91313e-07
0.000130365
-2.76111e-05
-0.000120979
1.3471e-05
2.99727e-05
8.68084e-06
0.000120812
1.64529e-05
-0.000125308
1.79828e-05
0.000132944
-1.41789e-05
0.000134742
-1.50582e-05
0.000134212
-1.50101e-05
-0.000445204
-0.000131121
-0.000475917
-0.000135503
-0.000501621
-0.000134077
-0.000523786
-0.00012485
-0.000541223
-0.000110685
-0.000555515
-9.24467e-05
-0.000561835
-7.29033e-05
-0.000562401
-4.46369e-05
-0.000552856
-1.71198e-05
-0.000535279
1.46576e-05
-0.000509975
4.46292e-05
-0.000479603
7.327e-05
-0.00044466
9.69038e-05
-0.000407893
0.000116247
-0.000371291
0.000129614
-0.000336764
0.000137669
-0.000305581
0.00014115
-0.000278011
0.000140811
-0.000253715
0.000138005
-0.000231825
0.000133541
-0.000211147
0.000128262
-0.000190712
0.000122809
-0.000169784
0.000117772
-0.000147486
0.000113186
-0.000123199
0.000110173
-9.65319e-05
0.00010723
-6.67117e-05
0.000108891
-3.37664e-05
0.000108494
2.03004e-06
0.000119562
3.84865e-05
0.000116309
8.52893e-05
0.000141749
0.000125429
0.000128635
0.000180212
0.000166568
0.000220803
0.000118204
0.000275702
0.000147037
0.000301618
-3.13407e-05
0.000273741
-7.30568e-06
0.000151873
5.14678e-05
-0.000150097
0.00014736
4.6097e-05
0.00014117
4.09175e-05
0.000136505
3.46506e-05
0.000131814
2.77647e-05
0.000127462
2.06662e-05
2.88638e-05
-3.57044e-05
-1.95572e-05
-0.000102797
-8.70713e-05
0.000389797
-0.000458069
-3.87892e-05
-0.000122616
1.6098e-05
-0.000145717
7.62462e-06
-0.00011635
-6.23024e-06
-7.55029e-06
-0.000114364
2.15916e-05
9.29698e-05
-9.39139e-06
-3.64205e-05
6.26486e-05
0.000447777
-0.000207672
0.000150777
-0.000392503
-7.42629e-06
2.08621e-05
7.65326e-06
-7.16875e-05
-0.000116381
-7.55131e-05
-2.01606e-05
6.11467e-06
0.000123674
-0.000109535
0.00013637
3.69583e-06
-0.000125326
1.17224e-05
0.000122018
0.000389429
-0.00059842