/*--------------------------------*- C++ -*----------------------------------*\
| =========                 |                                                 |
| \\      /  F ield         | OpenFOAM: The Open Source CFD Toolbox           |
|  \\    /   O peration     | Version:  2212                                  |
|   \\  /    A nd           | Website:  www.openfoam.com                      |
|    \\/     M anipulation  |                                                 |
\*---------------------------------------------------------------------------*/
FoamFile
{
    version     2.0;
    format      ascii;
    arch        "LSB;label=32;scalar=64";
    class       volVectorField;
    location    "0.0615";
    object      U;
}
// * * * * * * * * * * * * * * * * * * * * * * * * * * * * * * * * * * * * * //

dimensions      [0 1 -1 0 0 0 0];

internalField   nonuniform List<vector> 
44662
(
(-2.93657 71.0812 -9.46438e-17)
(4.59188 44.5705 -9.81532e-21)
(4.63182 44.1315 -2.26833e-16)
(4.25799 44.5089 2.82083e-16)
(4.41161 44.3185 1.17494e-20)
(-1.62921 54.4615 -1.37036e-16)
(-0.714994 108.483 -7.59269e-18)
(-1.54271 52.8076 -3.93078e-16)
(5.97679 38.2896 1.13553e-16)
(-9.85636 90.0646 0)
(-1.49651 59.5826 2.68313e-16)
(0.82596 24.5815 -7.7828e-17)
(0.912435 106.795 1.28639e-16)
(16.4282 31.9543 1.08489e-16)
(-4.40741 14.9735 0)
(0.818354 25.5912 1.78732e-17)
(3.57291 16.9985 4.42639e-16)
(-1.67115 17.9938 2.55229e-16)
(-22.2667 78.1047 -9.58391e-20)
(0.0437974 116.153 -9.86813e-17)
(5.29146 98.2703 7.74879e-17)
(3.10613 17.6038 -1.47203e-16)
(0.84725 109.985 6.04574e-17)
(-4.61128 73.3608 -1.13716e-16)
(-17.4928 58.5642 -5.78368e-17)
(27.3607 57.2221 -2.51018e-16)
(-0.768299 103.957 -4.10122e-19)
(-0.29177 93.188 -1.29363e-16)
(-2.48697 102.527 1.56618e-17)
(-0.382367 98.2829 -1.43501e-16)
(8.79829 8.80853 1.36921e-16)
(-8.27762 100.611 -1.43531e-17)
(9.00846 8.31993 1.54267e-16)
(-0.0285601 68.6595 -3.74762e-16)
(-2.13168 19.0182 -5.4939e-17)
(-5.561 74.3792 5.14354e-17)
(6.05656 26.4555 1.32655e-16)
(5.19561 25.4087 -2.26266e-16)
(25.1591 70.2628 0)
(-5.34016 35.054 -1.09077e-16)
(-4.07289 34.4894 1.11863e-16)
(7.31614 27.5808 -5.83343e-17)
(4.05048 81.0698 -2.61691e-16)
(-24.2858 49.4326 -1.14433e-16)
(-3.49545 105.77 6.87056e-17)
(4.48947 43.4211 1.52739e-17)
(-8.17258 97.3231 3.14036e-17)
(-17.1484 69.1673 6.69413e-17)
(13.9599 86.4595 -1.17655e-16)
(-23.0115 50.023 -3.30444e-16)
(-3.3937 42.8176 -1.19805e-16)
(-8.20998 93.939 -3.09576e-17)
(21.6557 38.1446 1.60781e-20)
(9.09693 11.8438 4.36596e-17)
(-10.0373 88.8902 5.52907e-17)
(-3.58971 45.9475 0)
(18.2976 33.9187 -1.15414e-16)
(-2.5184 83.5285 1.44067e-16)
(0.656156 91.6056 -2.88067e-16)
(0.670588 90.7844 0)
(-1.81229 56.7847 1.19709e-20)
(9.48489 13.1244 -1.07402e-16)
(14.0636 82.8002 0)
(-22.9739 37.6753 -1.0833e-16)
(-5.5821 93.0216 5.62207e-17)
(-1.219 63.2829 -3.91299e-16)
(0.790219 59.1674 1.23445e-16)
(1.64803 46.2729 -2.11189e-16)
(25.4047 42.2952 0)
(-2.07718 107.486 1.27977e-16)
(8.24196 12.0761 0)
(0.864179 69.1156 1.40698e-16)
(28.9483 68.9102 3.12733e-16)
(-1.26495 63.1881 1.5969e-16)
(-1.99195 106.814 1.24162e-16)
(-0.902071 33.8583 -3.1222e-17)
(-4.91505 17.7519 -3.03704e-16)
(0.658086 93.7031 -4.1921e-16)
(0.633637 87.34 2.71097e-16)
(-0.700032 56.339 -1.40458e-16)
(4.03211 45.6721 3.38936e-17)
(-1.85591 105.914 -1.27153e-16)
(-6.18649 40.5349 1.30427e-16)
(-3.13727 103.906 5.35418e-17)
(3.66859 48.5651 -8.29131e-17)
(-4.41479 39.1327 0)
(-1.73738 104.833 3.87741e-16)
(-0.859932 46.1989 5.10655e-17)
(-10.9275 95.3153 -6.77603e-18)
(0.812822 110.743 2.40143e-16)
(-1.35872 101.384 -5.4612e-21)
(-1.55192 103.413 -1.30774e-16)
(16.6804 63.8087 1.87156e-16)
(-3.55431 21.7493 1.44973e-16)
(-3.91821 105.583 -7.06698e-17)
(-9.75153 97.8586 2.9939e-17)
(-0.103888 71.874 -1.16248e-16)
(-4.53684 105.012 3.19257e-17)
(-3.77719 101.644 -2.46427e-17)
(-10.9611 51.5337 -2.09044e-16)
(-0.465551 127.775 1.38468e-17)
(1.43329 45.5353 7.24177e-17)
(1.02314 83.7811 6.33794e-21)
(-1.09971 40.3819 4.99039e-21)
(0.915894 104.77 -6.84452e-17)
(-1.10045 97.3961 7.85768e-21)
(0.927708 102.438 3.52392e-17)
(-3.56062 45.5432 0)
(11.6923 44.0495 -2.04921e-16)
(1.96016 112.829 6.18229e-17)
(0.915087 99.7484 -3.52393e-17)
(-10.2374 35.1653 0)
(1.53305 45.4232 -1.61935e-17)
(1.58713 69.1686 0)
(-0.508748 53.3769 2.39016e-16)
(0.919673 96.7152 2.99435e-17)
(0.676082 83.3117 -2.43107e-16)
(4.58127 40.0793 5.70499e-17)
(-7.62775 13.525 -2.0853e-21)
(0.961975 93.3069 -1.16518e-16)
(-10.3224 33.4839 2.00146e-20)
(0.870892 95.296 -3.5327e-16)
(-0.117806 87.2549 2.70125e-16)
(0.983406 89.7052 3.0189e-16)
(0.896108 93.1595 -1.35885e-16)
(-0.221416 45.6041 -5.75326e-17)
(1.06679 85.9407 -7.29278e-17)
(0.848408 90.8134 -4.72243e-21)
(-2.69594 43.3953 -1.23599e-16)
(1.1092 82.0958 1.88928e-17)
(0.816412 88.2706 0)
(0.141816 88.1004 -8.58857e-21)
(-1.30697 60.0899 2.32719e-21)
(0.339325 89.5299 -2.20381e-16)
(1.15954 78.0056 -4.09242e-17)
(0.818491 85.7284 1.48008e-16)
(0.371683 82.7087 -1.95291e-21)
(0.275126 82.8292 -1.68917e-16)
(1.26451 73.7218 -8.20092e-18)
(0.803149 83.4178 -1.6317e-16)
(0.235855 89.0686 -1.26862e-16)
(1.45456 69.4021 3.32011e-18)
(3.76271 96.2413 6.65704e-17)
(3.67807 92.3668 -1.30432e-16)
(1.66237 65.1362 2.74127e-19)
(-2.56332 43.2256 -1.94705e-16)
(-4.01565 41.2473 -2.55119e-16)
(-3.78088 41.037 2.93382e-17)
(0.344616 45.3569 3.7025e-17)
(6.9103 49.6863 0)
(-5.89429 35.4139 0)
(3.55598 43.4044 -8.13718e-17)
(1.52219 65.3248 0)
(3.66939 72.8621 2.14563e-16)
(-0.311933 44.5755 -1.48419e-17)
(0.407705 45.3232 1.55038e-17)
(9.32311 34.0062 0)
(0.0760102 128.391 6.96853e-18)
(0.0693063 128.734 -1.4411e-21)
(0.0639366 129.082 -3.50712e-18)
(0.0589635 129.433 3.51823e-18)
(0.0563236 129.787 -3.54216e-18)
(0.0547466 130.144 4.45233e-19)
(0.0545226 130.505 -8.91939e-19)
(0.055397 130.871 -3.59041e-18)
(0.0565655 131.242 3.59396e-18)
(0.0574989 131.619 -8.19682e-22)
(0.0582551 132.002 -8.3484e-22)
(0.0583153 132.392 -1.80553e-18)
(0.0580165 132.787 2.25709e-19)
(0.0574737 133.189 -1.12919e-19)
(0.0569096 133.598 3.61262e-18)
(0.0562597 134.013 -3.61616e-18)
(0.0556286 134.434 -3.61457e-18)
(0.0549644 134.863 3.61689e-18)
(0.0542883 135.299 0)
(0.0535621 135.742 2.82493e-20)
(0.0528352 136.192 1.8638e-18)
(0.0521263 136.651 -1.01782e-21)
(0.051316 137.116 -3.84119e-18)
(0.0501501 137.59 2.2595e-18)
(0.0482789 138.071 0)
(0.0456323 138.56 1.80486e-18)
(0.0424007 139.057 -3.60837e-18)
(0.039693 139.563 0)
(0.0372721 140.077 -8.99736e-19)
(0.0358891 140.599 -2.23881e-19)
(0.0357424 141.13 1.80233e-18)
(0.0371449 141.67 0)
(0.0391847 142.219 -1.80503e-18)
(0.0407777 142.778 0)
(0.0419088 143.347 -9.03325e-19)
(0.0421506 143.925 -4.50397e-19)
(0.0419872 144.514 9.05619e-19)
(0.0414602 145.112 9.05268e-19)
(0.0409206 145.72 2.65549e-18)
(0.0404841 146.338 -1.92284e-18)
(0.0400752 146.966 1.80831e-18)
(0.0400418 147.605 -4.54038e-19)
(0.0402418 148.255 1.35611e-18)
(0.0408892 148.916 -1.81404e-18)
(0.0425663 149.587 1.81405e-18)
(0.0454602 150.27 9.24806e-24)
(0.0494121 150.965 -3.631e-18)
(0.0532215 151.673 8.37012e-22)
(0.0560282 152.394 3.63109e-18)
(-0.532049 151.582 3.63935e-18)
(-0.537324 152.304 -7.26729e-18)
(-0.528505 150.873 -1.8175e-18)
(10.512 12.8462 3.36636e-17)
(0.0826426 128.053 0)
(0.354064 128.324 0)
(0.354819 127.985 7.03176e-18)
(0.0553133 153.13 -2.72375e-18)
(0.0508968 153.881 -1.80967e-18)
(-0.55845 153.788 0)
(-0.545404 153.039 2.72159e-18)
(-0.518429 149.494 -5.44736e-18)
(-0.524256 150.178 3.63707e-18)
(-0.503597 148.162 -1.81197e-18)
(-0.511477 148.823 7.67016e-22)
(-0.487029 146.874 -3.62072e-18)
(-0.495272 147.513 2.71851e-18)
(-0.470033 145.628 1.4069e-21)
(-0.478557 146.246 3.8449e-18)
(-0.453408 144.423 -1.80833e-18)
(-0.461591 145.021 -1.69442e-18)
(-0.438741 143.257 -9.03371e-19)
(-0.445695 143.835 1.80658e-18)
(-0.427989 142.128 3.61079e-18)
(-0.432893 142.688 -1.80675e-18)
(-0.417546 141.037 9.02573e-19)
(-0.423399 141.578 -2.70999e-18)
(-0.401846 139.984 -2.70714e-18)
(-0.410455 140.506 -1.12796e-19)
(-0.38228 138.968 -1.80475e-18)
(-0.392225 139.472 3.60768e-18)
(-0.362822 137.984 -1.80676e-18)
(-0.372147 138.472 -1.09343e-21)
(-0.346771 137.031 0)
(-0.354302 137.504 1.80567e-18)
(-0.332857 136.109 3.56005e-18)
(-0.339706 136.566 -1.92159e-18)
(-0.319557 135.216 -1.80853e-18)
(-0.326172 135.659 -1.83573e-18)
(-0.306652 134.352 3.62917e-18)
(-0.313057 134.781 -9.46086e-22)
(-0.294005 133.516 -2.82334e-20)
(-0.30022 133.931 -1.79301e-18)
(-0.282058 132.707 3.3846e-18)
(-0.28793 133.108 -3.61351e-18)
(-0.271484 131.922 -1.80349e-18)
(-0.276464 132.312 0)
(-0.263484 131.161 3.59492e-18)
(-0.267216 131.539 -1.21614e-21)
(-0.256139 130.422 0)
(-0.260002 130.789 -3.58989e-18)
(-0.244429 129.705 1.77152e-18)
(-0.251132 130.061 2.2087e-18)
(-0.225657 129.003 1.05072e-17)
(-0.235904 129.352 7.01904e-18)
(-0.214631 128.658 -6.9584e-18)
(0.353027 129.016 -3.51325e-18)
(0.353202 128.668 -7.00241e-18)
(0.356374 129.72 -8.84975e-19)
(0.354171 129.366 -3.53776e-18)
(0.365082 130.436 -5.3596e-18)
(0.360652 130.076 3.62913e-18)
(0.376047 131.172 3.59664e-18)
(0.370528 130.801 -8.96239e-19)
(0.387019 131.93 9.01307e-19)
(0.381483 131.548 0)
(0.397464 132.714 -1.3538e-18)
(0.3924 132.319 -9.0252e-19)
(0.40728 133.523 1.80775e-18)
(0.402411 133.115 1.13809e-19)
(0.417337 134.359 -1.77939e-18)
(0.41235 133.938 0)
(0.427512 135.223 -1.80774e-18)
(0.422368 134.787 1.80894e-18)
(0.437987 136.116 -3.6165e-18)
(0.432761 135.665 3.61601e-18)
(0.448633 137.039 4.06727e-18)
(0.443302 136.573 -1.11972e-19)
(0.458596 137.993 -3.61463e-18)
(0.453884 137.512 2.25717e-18)
(0.466964 138.98 1.8039e-18)
(0.462951 138.483 0)
(0.476412 139.999 -9.02738e-19)
(0.471497 139.486 9.00802e-19)
(0.488577 141.052 1.1986e-21)
(0.481912 140.521 -3.37965e-18)
(0.504738 142.14 1.80567e-18)
(0.496435 141.591 2.7062e-18)
(0.521212 143.265 9.03255e-19)
(0.513152 142.698 0)
(0.536427 144.43 -2.71321e-18)
(0.529032 143.843 1.35431e-18)
(0.551343 145.636 -1.7525e-18)
(0.543953 145.028 1.80717e-18)
(0.56651 146.881 9.04173e-19)
(0.558885 146.253 2.26112e-19)
(0.582953 148.169 6.33582e-18)
(0.574477 147.52 -2.93979e-18)
(0.601972 149.5 1.8139e-18)
(0.591919 148.829 -6.3401e-18)
(0.625436 150.877 1.81543e-18)
(0.613106 150.183 1.81413e-18)
(0.647046 152.306 5.44328e-18)
(0.637103 151.585 8.54771e-22)
(0.660101 153.792 1.80994e-18)
(0.654399 153.042 -2.72095e-18)
(-1.11469 151.311 9.09845e-18)
(-1.12789 152.033 -1.81645e-18)
(-1.1034 150.602 -5.4586e-18)
(-8.69941 13.079 1.40506e-16)
(10.5904 13.1049 4.15123e-17)
(0.633182 128.114 3.53623e-18)
(0.629728 127.778 -7.06779e-18)
(-0.574213 154.551 1.90936e-21)
(-1.16646 153.515 -3.62298e-18)
(-1.19279 154.274 -7.22545e-18)
(1.26955 153.518 -2.71408e-18)
(0.664957 154.555 -1.80793e-18)
(1.28507 154.28 0)
(0.355321 127.653 -7.05458e-18)
(0.0883945 127.721 -7.03719e-18)
(-1.14505 152.768 3.62345e-18)
(-1.07667 149.223 -1.81727e-18)
(-1.09057 149.906 1.81838e-18)
(-1.04552 147.892 0)
(-1.06167 148.551 -9.07803e-19)
(-1.0129 146.605 9.05073e-19)
(-1.02918 147.243 -1.3592e-18)
(-0.979987 145.362 -9.61641e-19)
(-0.996483 145.978 -2.26286e-19)
(-0.947666 144.159 6.75976e-22)
(-0.963642 144.755 1.69568e-18)
(-0.917884 142.994 -9.034e-19)
(-0.932318 143.572 -4.51603e-19)
(-0.892919 141.865 -4.51763e-18)
(-0.904936 142.425 -1.80608e-18)
(-0.868655 140.774 6.00353e-22)
(-0.881393 141.314 4.51491e-18)
(-0.839444 139.723 1.8042e-18)
(-0.854871 140.243 -1.69212e-18)
(-0.806008 138.711 -2.70981e-18)
(-0.822923 139.212 -5.67337e-22)
(-0.772937 137.732 0)
(-0.788934 138.218 -1.80686e-18)
(-0.743593 136.783 -1.80815e-18)
(-0.757704 137.254 1.80809e-18)
(-0.717427 135.863 0)
(-0.730295 136.319 1.13079e-19)
(-0.692084 134.973 7.0648e-21)
(-0.70469 135.414 0)
(-0.667479 134.112 1.79331e-18)
(-0.679696 134.539 -1.81102e-18)
(-0.64371 133.278 9.88281e-19)
(-0.655527 133.692 -9.18391e-19)
(-0.620772 132.471 0)
(-0.632127 132.872 5.64557e-20)
(-0.599652 131.689 0)
(-0.609914 132.077 0)
(-0.581763 130.928 -1.7987e-18)
(-0.59037 131.306 -1.80101e-18)
(-0.565038 130.189 -4.06141e-22)
(-0.573654 130.555 3.58987e-18)
(-0.543732 129.473 1.77021e-18)
(-0.55498 129.828 1.79753e-18)
(-0.514204 128.779 -8.74384e-18)
(-0.529908 129.124 -1.22956e-17)
(-0.497709 128.439 -6.9648e-18)
(-2.54026 102.909 3.06554e-17)
(0.0447245 154.644 5.42146e-18)
(0.642067 128.803 7.05298e-18)
(0.637088 128.456 -3.51999e-18)
(0.656098 129.504 8.88574e-19)
(0.648748 129.152 -1.77112e-18)
(0.673415 130.218 -1.79311e-18)
(0.664456 129.859 1.73026e-18)
(0.693679 130.95 -9.00874e-19)
(0.683454 130.581 1.79324e-18)
(0.714525 131.705 0)
(0.703989 131.324 0)
(0.735553 132.485 9.03531e-19)
(0.725068 132.092 -9.02172e-19)
(0.756443 133.292 -2.76969e-18)
(0.746045 132.885 1.80632e-18)
(0.777652 134.125 -2.82576e-20)
(0.766931 133.705 8.47365e-19)
(0.799426 134.986 0)
(0.788479 134.552 0)
(0.821897 135.877 -9.04988e-19)
(0.810633 135.428 9.03843e-19)
(0.844849 136.797 6.77912e-19)
(0.833348 136.333 1.13013e-19)
(0.868156 137.75 5.37604e-22)
(0.856589 137.27 -1.80724e-18)
(0.890566 138.735 0)
(0.879482 138.238 1.80632e-18)
(0.913896 139.753 9.02126e-19)
(0.902029 139.24 -9.02272e-19)
(0.939601 140.803 -9.01993e-19)
(0.926357 140.274 0)
(0.968671 141.888 -1.80651e-18)
(0.95383 141.341 1.80503e-18)
(0.999194 143.01 0)
(0.984068 142.444 1.80696e-18)
(1.02984 144.173 6.78758e-19)
(1.0147 143.586 -1.35496e-18)
(1.06036 145.375 9.61299e-19)
(1.04503 144.769 -9.03477e-19)
(1.0916 146.619 0)
(1.07583 145.992 -1.13068e-19)
(1.12408 147.905 -4.52521e-19)
(1.10758 147.257 -3.01e-24)
(1.15875 149.234 2.71808e-18)
(1.14088 148.564 -4.52583e-19)
(1.19697 150.609 -9.08008e-19)
(1.17725 149.916 -1.6211e-21)
(1.23515 152.036 0)
(1.2163 151.316 0)
(1.25289 152.77 -9.05504e-19)
(0.626045 127.447 0)
(-1.81021 153.812 -3.61488e-18)
(-1.77391 153.058 7.24574e-18)
(-1.69607 150.86 -1.8199e-18)
(-1.71766 151.582 3.63137e-18)
(-1.6763 150.15 -6.3744e-18)
(0.669234 155.332 -3.60996e-18)
(1.30079 155.055 1.80456e-18)
(-0.181922 127.656 -3.62722e-18)
(0.6213 127.123 1.06887e-17)
(0.354687 127.329 1.77658e-17)
(0.0910418 127.399 -1.77601e-18)
(-1.84836 154.579 -3.60705e-18)
(-2.42659 153.163 -3.61386e-18)
(-2.47539 153.924 0)
(0.352066 127.013 0)
(0.615376 126.806 -1.4279e-17)
(-1.74426 152.314 -7.2496e-18)
(-1.63338 148.771 9.09816e-19)
(-1.65545 149.454 1.82007e-18)
(-1.58633 147.441 0)
(-1.61017 148.1 1.81686e-18)
(-1.53742 146.158 0)
(-1.56198 146.794 0)
(-1.48846 144.917 -7.92346e-19)
(-1.51294 145.532 0)
(-1.44054 143.718 -9.04381e-19)
(-1.46427 144.313 1.80964e-18)
(-1.39556 142.556 2.71428e-18)
(-1.41758 143.133 1.16217e-23)
(-1.35636 141.428 3.61672e-18)
(-1.37536 141.988 9.04562e-19)
(-1.3188 140.337 0)
(-1.33795 140.877 -7.22472e-18)
(-1.27583 139.289 -3.60897e-18)
(-1.29724 139.809 0)
(-1.22785 138.284 3.61686e-18)
(-1.25189 138.782 0)
(-1.18107 137.312 9.04197e-19)
(-1.20376 137.795 1.80921e-18)
(-1.13881 136.368 0)
(-1.15931 136.837 1.80873e-18)
(-1.10018 135.453 0)
(-1.11929 135.907 0)
(-1.0629 134.567 -7.07084e-21)
(-1.08134 135.006 0)
(-1.02683 133.71 -9.04405e-19)
(-1.04477 134.135 8.9248e-19)
(-0.991714 132.88 -9.60718e-19)
(-1.00913 133.292 9.0462e-19)
(-0.957845 132.077 0)
(-0.974638 132.476 -5.64818e-20)
(-0.926142 131.298 0)
(-0.941664 131.685 -9.02996e-19)
(-0.898207 130.539 3.59708e-18)
(-0.911754 130.916 -9.01468e-19)
(-0.872261 129.8 -8.94247e-19)
(-0.885382 130.166 1.79676e-18)
(-0.84057 129.09 -8.86497e-18)
(-0.857402 129.441 0)
(-0.801174 128.407 7.01076e-18)
(-0.821427 128.745 8.81359e-18)
(6.93496 91.3496 -3.05327e-18)
(-0.780472 128.074 3.4887e-18)
(-0.591142 155.326 7.22003e-18)
(0.0381575 155.421 0)
(-1.22048 155.045 3.60989e-18)
(0.873961 126.46 -1.43054e-17)
(0.893522 127.099 -1.06942e-17)
(0.884048 126.776 2.85161e-17)
(0.910437 127.761 -1.06643e-17)
(0.901667 127.427 0)
(0.930069 128.441 1.7747e-18)
(0.919815 128.099 7.08644e-18)
(0.953875 129.137 1.78708e-18)
(0.941658 128.787 -1.77287e-18)
(0.981659 129.845 3.37075e-18)
(0.967491 129.489 -5.37012e-18)
(1.01099 130.573 2.70583e-18)
(0.996173 130.206 -2.69233e-18)
(1.04157 131.323 4.51169e-19)
(1.0261 130.945 0)
(1.0729 132.099 -1.3558e-18)
(1.05722 131.707 9.02583e-19)
(1.10472 132.901 9.61357e-19)
(1.08867 132.496 -9.03881e-19)
(1.13716 133.73 -9.04983e-19)
(1.12092 133.312 9.60678e-19)
(1.17058 134.587 -8.77191e-19)
(1.15377 134.155 9.18964e-19)
(1.205 135.473 9.04926e-19)
(1.18764 135.026 -1.41338e-20)
(1.24032 136.39 6.78838e-19)
(1.2226 135.928 -1.92228e-18)
(1.2765 137.338 2.26073e-19)
(1.25834 136.86 0)
(1.31284 138.32 0)
(1.29464 137.825 -9.04048e-19)
(1.35017 139.334 0)
(1.33132 138.822 4.51568e-19)
(1.38996 140.38 -1.01565e-18)
(1.36969 139.853 0)
(1.43253 141.462 4.51646e-19)
(1.4109 140.916 3.10191e-22)
(1.47728 142.58 4.52293e-19)
(1.45491 142.016 -1.80838e-18)
(1.52283 143.738 -4.76593e-24)
(1.5 143.154 9.0413e-19)
(1.56893 144.937 4.52567e-19)
(1.54582 144.332 -4.52089e-19)
(1.61627 146.177 -4.52323e-19)
(1.59245 145.552 0)
(1.66533 147.46 -6.78591e-19)
(1.64054 146.813 7.92217e-19)
(1.71641 148.786 -1.8129e-18)
(1.69035 148.118 2.26303e-18)
(1.7705 150.158 -4.10798e-22)
(1.743 149.466 9.06298e-19)
(1.82633 151.58 -6.80108e-19)
(1.79824 150.862 -8.46529e-22)
(1.87969 153.058 -2.43614e-23)
(1.85333 152.312 0)
(1.93214 154.591 -2.25745e-19)
(1.90587 153.818 2.25727e-19)
(0.608972 126.496 0)
(0.863529 126.15 -1.07725e-17)
(-0.451305 127.452 0)
(-2.38072 152.415 -1.81475e-18)
(-0.176457 127.335 1.85856e-18)
(-1.88627 155.36 7.21272e-18)
(-2.52411 154.7 -3.60471e-18)
(-3.0423 152.326 7.23698e-18)
(-3.10037 153.08 7.21563e-18)
(2.56274 153.937 4.5131e-19)
(1.95936 155.376 0)
(2.60029 154.72 -1.35394e-18)
(0.0921455 127.084 -7.07149e-18)
(0.350984 126.703 0)
(0.600794 126.193 0)
(-2.24924 149.514 2.73246e-18)
(-2.27774 150.223 9.1058e-19)
(-2.30795 150.944 0)
(0.852712 125.847 1.43763e-17)
(-0.990491 126.604 3.49717e-18)
(-0.722863 127.104 -6.99195e-18)
(-2.34205 151.674 0)
(-2.18939 148.135 0)
(-2.2196 148.818 0)
(-2.1258 146.808 4.54019e-19)
(-2.15771 147.466 0)
(-2.06043 145.528 -4.53478e-19)
(-2.09324 146.162 -4.53295e-19)
(-1.99545 144.292 -5.65957e-19)
(-2.02789 144.905 9.06255e-19)
(-1.93174 143.097 0)
(-1.96328 143.69 0)
(-1.87171 141.94 -4.52296e-19)
(-1.90111 142.514 1.70846e-22)
(-1.81799 140.813 4.52264e-19)
(-1.84419 141.372 -4.52506e-19)
(-1.76658 139.723 -1.35458e-18)
(-1.79265 140.263 3.61783e-18)
(-1.70937 138.681 1.81072e-18)
(-1.73832 139.197 -4.51499e-19)
(-1.64755 137.684 9.05001e-19)
(-1.67888 138.177 -4.52522e-19)
(-1.58688 136.72 -1.81205e-18)
(-1.61654 137.199 3.16869e-18)
(-1.53213 135.782 9.05745e-19)
(-1.55881 136.248 -4.5302e-19)
(-1.48114 134.873 -4.52584e-19)
(-1.50636 135.324 9.06364e-19)
(-1.43185 133.992 0)
(-1.45635 134.429 -4.52696e-19)
(-1.38398 133.141 -2.32387e-22)
(-1.40774 133.563 -4.38633e-19)
(-1.33761 132.317 0)
(-1.36063 132.725 4.52446e-19)
(-1.2927 131.519 -1.13044e-18)
(-1.31494 131.915 3.95844e-19)
(-1.25035 130.745 2.2563e-18)
(-1.27112 131.13 1.35544e-18)
(-1.2124 129.988 -4.04867e-18)
(-1.2308 130.364 -4.05423e-18)
(-1.17618 129.251 8.9635e-19)
(-1.19443 129.617 4.49611e-19)
(-1.13389 128.549 2.22595e-19)
(-1.15607 128.896 8.94318e-19)
(-1.08543 127.879 7.04534e-18)
(-1.11033 128.211 6.86281e-18)
(4.2655 39.8046 0)
(-1.06037 127.555 0)
(0.435127 45.1887 5.88527e-17)
(0.674787 156.121 2.48002e-18)
(1.31749 155.843 -9.01771e-19)
(-0.606984 156.115 -3.6125e-18)
(0.0329704 156.212 -3.6067e-18)
(-1.24779 155.831 1.89337e-21)
(1.09767 125.358 -1.44042e-17)
(1.1265 125.966 -5.29598e-21)
(1.11203 125.659 1.07648e-17)
(1.15426 126.599 -3.57039e-18)
(1.14035 126.28 -1.43288e-17)
(1.18288 127.253 3.56849e-18)
(1.1686 126.924 -7.13738e-18)
(1.21431 127.924 5.35265e-18)
(1.1979 127.587 0)
(1.24933 128.611 0)
(1.23116 128.266 -3.55706e-18)
(1.28615 129.314 -3.9241e-24)
(1.26739 128.961 -4.19789e-20)
(1.32575 130.034 1.80519e-18)
(1.30571 129.671 -2.25001e-18)
(1.36625 130.779 -9.03204e-19)
(1.3458 130.404 0)
(1.40805 131.548 7.91599e-19)
(1.38717 131.16 9.0362e-19)
(1.45063 132.344 0)
(1.42926 131.943 -9.05017e-19)
(1.49452 133.168 0)
(1.47245 132.752 1.13111e-19)
(1.53955 134.019 -9.33955e-19)
(1.51682 133.59 -1.41498e-20)
(1.58601 134.9 -4.52749e-19)
(1.56265 134.456 9.19747e-19)
(1.63383 135.811 2.26393e-19)
(1.60977 135.352 5.65944e-19)
(1.6829 136.754 5.55236e-24)
(1.65822 136.278 -1.13137e-19)
(1.73278 137.73 2.26121e-19)
(1.70773 137.238 4.52494e-19)
(1.78442 138.738 0)
(1.75837 138.23 -9.04466e-19)
(1.83808 139.781 -2.82774e-19)
(1.81101 139.255 3.38875e-19)
(1.8948 140.857 2.26147e-19)
(1.86617 140.314 -2.26141e-19)
(1.95363 141.97 -4.52623e-19)
(1.92395 141.409 0)
(2.01412 143.123 -4.52743e-19)
(1.98366 142.542 -1.61743e-22)
(2.07601 144.317 8.49005e-19)
(2.04494 143.715 -3.39326e-19)
(2.1395 145.552 2.26472e-19)
(2.10746 144.929 -6.79115e-19)
(2.205 146.83 -2.26412e-19)
(2.17193 146.186 -1.13192e-19)
(2.2729 148.153 9.06375e-19)
(2.23848 147.486 -4.52558e-19)
(2.34399 149.52 0)
(2.30817 148.831 -9.06343e-19)
(2.41738 150.938 -2.26586e-19)
(2.38036 150.223 0)
(2.48968 152.41 4.52429e-19)
(2.45355 151.667 0)
(2.52608 153.167 -4.51989e-19)
(0.841979 125.55 -8.99555e-18)
(1.08308 125.063 1.44124e-17)
(-0.440922 127.133 -2.61864e-18)
(-2.9878 151.583 -1.81022e-18)
(-2.85858 149.398 4.5522e-18)
(-2.89817 150.117 -9.09076e-19)
(-2.82094 148.689 0)
(-3.15958 153.85 0)
(1.98765 156.175 -4.50956e-19)
(2.6388 155.516 1.35342e-18)
(-1.25728 125.942 7.01033e-18)
(-0.969965 126.294 -1.40323e-17)
(-1.23297 125.638 0)
(-0.168588 127.021 -3.52246e-18)
(0.0941973 126.775 7.1881e-18)
(0.347781 126.4 3.57776e-18)
(0.5942 125.894 -1.43011e-17)
(0.83065 125.257 1.25979e-17)
(1.06841 124.772 0)
(-0.707078 126.789 1.04979e-17)
(-2.94001 150.847 -1.81565e-18)
(-2.74401 147.312 -3.18365e-18)
(-2.78276 147.994 0)
(-2.66369 145.988 -2.26878e-19)
(-2.70398 146.644 -2.26935e-19)
(-2.58116 144.713 3.66035e-22)
(-2.6221 145.345 4.54234e-19)
(-2.50022 143.482 -2.26689e-19)
(-2.54045 144.092 -4.53515e-19)
(-2.42086 142.293 2.26609e-19)
(-2.46019 142.882 -1.13295e-19)
(-2.34556 141.14 2.2664e-19)
(-2.38253 141.712 -2.26425e-19)
(-2.27738 140.016 3.62292e-18)
(-2.31075 140.574 -2.26412e-19)
(-2.21213 138.927 3.84746e-18)
(-2.24505 139.466 -2.26294e-19)
(-2.14059 137.891 2.25969e-19)
(-2.17722 138.402 9.04493e-19)
(-2.06457 136.904 -3.62536e-18)
(-2.10301 137.392 -2.26203e-19)
(-1.99033 135.951 0)
(-2.02676 136.424 -3.62426e-18)
(-1.92292 135.02 -4.53208e-19)
(-1.95591 135.482 -6.7989e-19)
(-1.85931 134.117 5.66821e-20)
(-1.89088 134.564 6.81625e-23)
(-1.79797 133.243 0)
(-1.82838 133.676 0)
(-1.73848 132.398 0)
(-1.76799 132.817 2.83242e-20)
(-1.6807 131.58 -4.52777e-19)
(-1.70937 131.986 4.53159e-19)
(-1.62478 130.79 5.15966e-23)
(-1.65251 131.182 2.83008e-19)
(-1.57183 130.021 -2.03265e-18)
(-1.59784 130.403 0)
(-1.52364 129.268 1.12753e-19)
(-1.54727 129.643 3.83775e-18)
(-1.47722 128.535 -1.12217e-19)
(-1.50055 128.898 4.94917e-23)
(-1.42572 127.841 -3.45736e-23)
(-1.45182 128.185 1.79215e-18)
(-1.36707 127.188 -7.06792e-18)
(-1.39636 127.512 -1.77514e-18)
(-1.30975 126.558 -1.3306e-21)
(-1.33768 126.872 0)
(-1.28273 126.25 7.01319e-18)
(0.682037 156.923 1.97213e-18)
(1.33513 156.644 -4.50683e-19)
(-0.621888 156.916 -3.60779e-18)
(0.0293326 157.014 2.70473e-18)
(-1.92283 156.156 1.80297e-18)
(-1.27378 156.631 1.80286e-18)
(-3.21804 154.636 3.60227e-18)
(-2.57143 155.492 0)
(1.3019 124.136 -1.44046e-17)
(1.33933 124.714 -1.26369e-17)
(1.3205 124.423 2.7023e-17)
(1.37598 125.316 7.19241e-18)
(1.35787 125.012 -1.07666e-17)
(1.41404 125.938 -1.79214e-18)
(1.39497 125.624 7.17979e-18)
(1.45453 126.583 -5.38082e-18)
(1.43384 126.258 1.07018e-17)
(1.49594 127.243 -3.58043e-18)
(1.47497 126.911 3.58431e-18)
(1.5403 127.921 1.79176e-18)
(1.51762 127.58 -2.68262e-18)
(1.58801 128.615 2.25224e-19)
(1.56396 128.265 -1.25315e-24)
(1.63731 129.328 9.03854e-19)
(1.61255 128.968 -4.50657e-19)
(1.68798 130.065 -4.52705e-19)
(1.66254 129.693 2.26179e-19)
(1.74037 130.827 -1.13233e-19)
(1.71389 130.443 0)
(1.79394 131.616 1.41602e-18)
(1.76698 131.218 -3.96257e-19)
(1.84909 132.432 4.53213e-19)
(1.8213 132.021 -9.62401e-19)
(1.90578 133.277 1.41654e-20)
(1.87723 132.851 -4.53472e-19)
(1.96428 134.151 -4.67322e-19)
(1.93477 133.71 0)
(2.02454 135.056 0)
(1.99421 134.599 4.53257e-19)
(2.08657 135.992 -2.26534e-19)
(2.0553 135.52 -3.4452e-24)
(2.15008 136.961 7.44076e-23)
(2.11816 136.472 -2.26509e-19)
(2.21575 137.963 2.26312e-19)
(2.18266 137.458 4.52837e-19)
(2.28359 138.999 8.49043e-19)
(2.24942 138.476 -5.65868e-19)
(2.35424 140.07 6.79382e-19)
(2.31868 139.53 -2.26501e-19)
(2.4276 141.178 -2.26446e-19)
(2.39068 140.619 -4.5312e-19)
(2.50329 142.324 -2.26662e-19)
(2.46524 141.746 6.79412e-19)
(2.58085 143.512 1.13292e-19)
(2.54176 142.913 4.22924e-24)
(2.6605 144.742 0)
(2.62038 144.122 0)
(2.74281 146.014 0)
(2.70127 145.373 0)
(2.82779 147.332 -6.79999e-19)
(2.78482 146.667 1.13268e-19)
(2.91604 148.694 2.26713e-19)
(2.87158 148.007 0)
(3.00681 150.106 0)
(2.96117 149.394 -2.26693e-19)
(3.09849 151.572 3.39413e-19)
(3.05257 150.833 5.65804e-20)
(3.19193 153.092 -4.51795e-19)
(3.14495 152.326 4.52316e-19)
(3.28844 154.665 -4.51483e-19)
(3.2397 153.872 9.03921e-19)
(1.05364 124.487 1.263e-17)
(1.2837 123.853 0)
(-1.20901 125.336 1.39545e-17)
(-0.950586 125.988 6.96683e-18)
(-0.430071 126.822 -1.7541e-18)
(-3.65834 151.297 0)
(-3.72608 152.044 -3.61064e-18)
(-3.59383 150.56 1.81479e-18)
(-0.16294 126.714 1.07201e-17)
(-3.27479 155.441 0)
(-3.86298 153.588 -3.60086e-18)
(-3.93042 154.389 0)
(3.93639 153.622 3.38952e-19)
(3.33807 155.472 1.01609e-18)
(3.99635 154.426 -4.52416e-19)
(-1.46415 124.508 0)
(-1.18724 125.03 -6.93525e-18)
(-1.4378 124.205 -1.38831e-17)
(0.0942556 126.473 -1.41762e-17)
(0.345493 126.101 7.13872e-18)
(0.588194 125.601 1.62003e-17)
(0.818724 124.971 1.80468e-18)
(1.03888 124.206 -2.88764e-17)
(-3.4862 149.098 -1.82167e-18)
(-3.43681 148.382 -2.73698e-18)
(-3.39036 147.674 1.82505e-18)
(1.26557 123.576 0)
(-0.691956 126.48 8.71179e-19)
(-3.79452 152.808 -7.21249e-18)
(-3.53698 149.826 0)
(-3.2962 146.298 3.64414e-18)
(-3.34346 146.98 9.11953e-19)
(-3.19878 144.977 -9.09089e-19)
(-3.2477 145.631 0)
(-3.10002 143.708 -3.40501e-19)
(-3.14905 144.337 2.27219e-19)
(-3.00281 142.483 2.2688e-19)
(-3.0511 143.09 1.1347e-19)
(-2.90757 141.3 1.13359e-19)
(-2.95479 141.886 1.13367e-19)
(-2.81697 140.152 1.81398e-18)
(-2.86155 140.722 0)
(-2.73411 139.031 -3.56954e-18)
(-2.77476 139.588 0)
(-2.65494 137.944 1.13347e-19)
(-2.69487 138.481 -5.66169e-20)
(-2.57 136.912 1.69772e-18)
(-2.61276 137.422 -1.01836e-18)
(-2.47865 135.939 3.62952e-18)
(-2.52449 136.421 3.73874e-18)
(-2.39091 134.997 1.13464e-19)
(-2.43399 135.465 0)
(-2.31068 134.074 4.53959e-19)
(-2.35018 134.532 7.9407e-19)
(-2.23472 133.178 1.70121e-19)
(-2.27239 133.622 -4.53899e-19)
(-2.16124 132.311 -2.26946e-19)
(-2.19771 132.741 0)
(-2.08988 131.474 0)
(-2.1253 131.889 1.98459e-19)
(-2.02062 130.664 0)
(-2.055 131.065 -3.54309e-21)
(-1.95367 129.881 3.39843e-19)
(-1.98683 130.269 1.13352e-19)
(-1.8899 129.119 1.80592e-18)
(-1.92132 129.497 9.09341e-19)
(-1.83114 128.37 0)
(-1.85999 128.743 0)
(-1.77493 127.642 1.79236e-18)
(-1.80324 128.002 0)
(-1.71305 126.958 3.57597e-18)
(-1.74436 127.295 8.97356e-19)
(-1.64558 126.32 0)
(-1.67939 126.636 -3.56501e-18)
(-1.57987 125.705 -7.06707e-18)
(-1.61184 126.012 0)
(-1.51916 125.104 1.05844e-17)
(-1.54834 125.404 -2.11628e-17)
(-1.49148 124.806 0)
(2.01654 156.987 0)
(2.67814 156.326 -1.01566e-18)
(0.690669 157.738 5.07175e-19)
(1.35371 157.458 -1.3512e-18)
(-0.635487 157.732 0)
(0.0270495 157.829 -9.03026e-19)
(-1.95821 156.968 -3.60259e-18)
(-1.29741 157.445 0)
(-2.61763 156.3 0)
(1.48796 122.787 -2.90495e-17)
(1.53157 123.335 -1.80497e-18)
(1.50961 123.058 1.44764e-17)
(1.5773 123.904 -1.80921e-18)
(1.55405 123.619 1.80165e-18)
(1.62374 124.495 7.21883e-18)
(1.60012 124.198 -3.59928e-18)
(1.67275 125.106 1.79878e-18)
(1.64773 124.798 -7.19198e-18)
(1.72255 125.741 1.79831e-18)
(1.69743 125.422 -5.3692e-18)
(1.77425 126.388 -3.59094e-18)
(1.74807 126.062 0)
(1.82873 127.055 -1.79885e-18)
(1.80114 126.72 8.54267e-18)
(1.88587 127.74 -2.25703e-19)
(1.85699 127.395 -1.74529e-18)
(1.94524 128.444 1.35754e-18)
(1.91522 128.089 -4.519e-19)
(2.00623 129.173 4.53509e-19)
(1.97547 128.806 -1.58513e-18)
(2.06904 129.927 5.13952e-23)
(2.03747 129.547 0)
(2.13381 130.708 -5.10371e-19)
(2.10117 130.314 6.23708e-19)
(2.2003 131.517 0)
(2.16678 131.109 -5.67086e-20)
(2.26889 132.354 -4.68143e-19)
(2.23437 131.932 4.55492e-19)
(2.3395 133.22 2.41118e-19)
(2.30394 132.783 -2.12647e-19)
(2.41239 134.117 0)
(2.3757 133.664 0)
(2.48738 135.046 -2.26859e-19)
(2.44961 134.577 2.83445e-19)
(2.56437 136.007 -1.13415e-19)
(2.52561 135.522 -2.26819e-19)
(2.64401 137.002 -5.66951e-20)
(2.60388 136.5 -5.1997e-23)
(2.72609 138.031 1.50492e-22)
(2.68477 137.512 -2.26622e-19)
(2.81112 139.096 -2.26813e-19)
(2.7682 138.559 5.10102e-19)
(2.89916 140.197 3.39995e-19)
(2.85478 139.642 1.13344e-19)
(2.98989 141.337 1.13391e-19)
(2.94415 140.762 -3.40244e-19)
(3.08326 142.519 -2.8345e-19)
(3.03627 141.923 -4.11993e-23)
(3.17951 143.742 2.26812e-19)
(3.13104 143.125 -1.69973e-19)
(3.27844 145.008 -2.83431e-20)
(3.2286 144.37 0)
(3.38048 146.32 2.83512e-19)
(3.32901 145.658 -2.26666e-19)
(3.48617 147.677 -4.53566e-19)
(3.43299 146.992 0)
(3.59479 149.083 1.13298e-19)
(3.54031 148.373 4.53724e-19)
(3.70589 150.542 -1.13193e-19)
(3.6502 149.806 -5.67076e-20)
(3.81936 152.055 4.52689e-19)
(3.7623 151.292 -1.13012e-19)
(3.87736 152.832 0)
(1.24697 123.305 0)
(1.4662 122.52 2.9047e-17)
(-0.934421 125.682 6.94866e-18)
(-0.421484 126.515 1.64808e-18)
(-4.27253 150.075 1.80987e-18)
(-4.34961 150.817 -1.8089e-18)
(-4.19882 149.343 0)
(-4.01434 147.173 9.12222e-19)
(-4.07284 147.888 -2.73458e-18)
(-3.9585 146.466 2.28747e-22)
(-4.50684 152.349 1.79073e-21)
(-4.58488 153.144 0)
(3.38854 156.293 4.78969e-19)
(4.05732 155.243 -2.82542e-20)
(-1.41362 123.885 1.36046e-17)
(-1.16976 124.714 -6.8088e-18)
(-0.158761 126.411 -3.51902e-18)
(0.0970028 126.174 1.06851e-17)
(0.343236 125.808 -1.442e-17)