/*--------------------------------*- C++ -*----------------------------------*\
| =========                 |                                                 |
| \\      /  F ield         | OpenFOAM: The Open Source CFD Toolbox           |
|  \\    /   O peration     | Version:  2212                                  |
|   \\  /    A nd           | Website:  www.openfoam.com                      |
|    \\/     M anipulation  |                                                 |
\*---------------------------------------------------------------------------*/
FoamFile
{
    version     2.0;
    format      ascii;
    arch        "LSB;label=32;scalar=64";
    class       volVectorField;
    location    "0.000141";
    object      U;
}
// * * * * * * * * * * * * * * * * * * * * * * * * * * * * * * * * * * * * * //

dimensions      [0 1 -1 0 0 0 0];

internalField   nonuniform List<vector> 
34861
(
(-6.43014e-12 -0.00691664 1.29747)
(-2.81588e-12 -0.0123895 1.60776)
(2.31176e-12 -0.00662896 1.73013)
(1.5339e-12 -0.00433533 1.82896)
(5.10535e-12 -0.00304854 1.90573)
(-3.53228e-12 -0.00232176 1.95865)
(1.88231e-12 -0.00215365 1.99336)
(8.10308e-12 -0.00219385 2.01833)
(1.03143e-12 -0.00182027 2.0386)
(-8.33773e-12 -0.00113579 2.05601)
(2.47938e-13 -0.000815715 2.07044)
(7.82075e-13 -0.000798151 2.08418)
(1.27008e-12 -0.000552591 2.09741)
(1.71323e-12 -0.000539572 2.11153)
(-8.78418e-12 -0.000305523 2.12432)
(-3.84006e-12 0.000866792 2.13435)
(4.96483e-13 0.000609846 2.14158)
(1.43901e-12 0.000529506 2.14884)
(-4.76517e-12 -0.000267434 2.15825)
(-2.79546e-12 -0.000592657 2.16706)
(8.83191e-12 -0.000566404 2.177)
(6.84417e-12 -0.000447708 2.18572)
(6.30962e-12 -0.000540747 2.19819)
(-8.83765e-13 -0.000296673 2.21093)
(4.8741e-12 0.0013783 2.22342)
(7.8628e-13 0.00136717 2.23448)
(8.20497e-12 0.00114437 2.24643)
(1.9711e-14 -0.000174268 2.26179)
(4.23687e-12 -0.00109262 2.277)
(-7.94511e-12 -0.00139843 2.29433)
(-5.37377e-12 -0.00103083 2.31297)
(-1.2821e-12 -0.000568166 2.33475)
(-3.70238e-12 -0.000607386 2.35787)
(1.65238e-12 -0.000804009 2.38771)
(2.5959e-12 -0.000886474 2.42549)
(2.95817e-12 -0.00124384 2.46912)
(-2.33412e-12 -0.00152341 2.51751)
(-9.7118e-13 0.000200178 2.57629)
(-3.23667e-12 0.000301292 2.64069)
(5.42338e-13 0.00041127 2.71893)
(-2.20929e-13 -0.000715993 2.8201)
(-7.21233e-13 -0.00218497 2.93873)
(-5.88145e-12 -0.00304001 3.08234)
(4.53739e-12 -0.00332823 3.2534)
(-4.23409e-12 -0.00311957 3.45719)
(1.02467e-12 -0.00249693 3.69265)
(2.82545e-14 -0.00187493 3.96271)
(-4.84748e-12 -0.00138028 4.26939)
(-2.83563e-12 -0.00096416 4.61207)
(3.48488e-12 -0.00105892 4.96953)
(4.07986e-12 0.00201001 5.32768)
(1.16941e-12 0.00106725 5.67694)
(2.50879e-12 0.00243284 6.01583)
(7.20764e-12 0.00202642 6.3364)
(-5.35549e-13 0.00228323 6.62715)
(3.24363e-12 0.00153684 6.88749)
(-5.16155e-12 0.00316527 7.11809)
(1.405e-12 0.0054455 7.32504)
(2.43574e-12 0.00485586 7.5149)
(-2.97854e-13 0.00416403 7.67652)
(-3.5047e-12 0.00836016 7.78772)
(-7.2968e-12 0.00530048 7.83361)
(-1.17747e-12 0.00662215 7.85451)
(-2.2779e-13 0.00350721 7.87135)
(-6.39583e-12 0.0019846 7.85397)
(-3.74308e-12 0.00348236 7.80013)
(9.75679e-13 0.00719316 7.721)
(3.46264e-12 0.00610941 7.66828)
(2.45168e-12 0.00266416 7.63761)
(-2.5862e-12 0.00126595 7.59482)
(-1.38881e-12 0.00446112 7.5427)
(-3.18838e-12 0.0145718 7.4919)
(2.0429e-12 0.0180725 7.44195)
(-2.57031e-12 0.0167155 7.39985)
(-4.27157e-12 0.0148912 7.3717)
(-1.73001e-12 0.00358942 7.36948)
(-4.365e-12 -0.0235025 7.55457)
(8.4313e-14 -0.0295157 8.26822)
(-1.62008e-12 -0.365156 1.58418)
(1.77262e-12 -0.090808 1.22984)
(-1.55974e-11 -72.5111 226.494)
(-1.10381e-10 -51.9972 164.633)
(-9.57052e-11 -43.939 139.603)
(-1.11043e-10 -35.6744 112.508)
(-9.44053e-11 -29.7946 94.2943)
(-4.13729e-11 -25.3666 79.3873)
(3.16029e-11 -21.5716 67.7657)
(-2.98095e-11 -18.5687 57.9622)
(-1.26034e-11 -16.1095 50.3451)
(-2.04794e-13 -14.0413 43.6552)
(-1.27398e-11 -12.349 38.3565)
(-1.20619e-11 -10.8746 33.5939)
(-4.56576e-12 -9.68981 29.8254)
(-5.9907e-12 -8.62347 26.4106)
(-1.42316e-11 -7.7349 23.6365)
(2.80102e-11 -6.93866 21.1798)
(8.51137e-13 -6.18361 18.8898)
(-2.90416e-12 -5.56019 16.9474)
(9.52151e-12 -5.0026 15.2107)
(6.30893e-13 -4.53511 13.7629)
(1.91292e-11 -4.09107 12.4957)
(-1.85907e-11 -3.76416 11.3822)
(1.13464e-11 -3.43329 10.3955)
(-6.76584e-12 -3.14664 9.55205)
(5.31786e-12 -2.89866 8.69802)
(1.02471e-12 -2.7036 8.13246)
(3.10504e-12 -2.48606 7.43506)
(-5.99023e-13 -2.31761 6.95402)
(3.85404e-12 -2.15228 6.43072)
(8.26807e-13 -2.01036 6.00366)
(4.86023e-12 -1.88104 5.6055)
(2.59579e-12 -1.75875 5.23944)
(3.96689e-13 -1.64734 4.92146)
(5.08359e-13 -1.54624 4.60392)
(-2.22746e-12 -1.45916 4.33822)
(4.43476e-12 -1.37833 4.08998)
(1.42917e-12 -1.30577 3.87387)
(6.39312e-12 -1.23655 3.67014)
(-1.84293e-12 -1.17354 3.48177)
(-9.81197e-12 -1.11564 3.30614)
(1.58892e-12 -1.06165 3.14762)
(-3.09601e-12 -1.0116 2.99303)
(-2.81763e-12 -0.967674 2.86071)
(-5.31876e-12 -0.925493 2.73641)
(-4.11139e-13 -0.886071 2.62101)
(3.18926e-13 -0.849148 2.51121)
(-1.70483e-12 -0.815176 2.40392)
(-4.66496e-12 -0.786794 2.30248)
(-7.25733e-12 -0.763169 2.23022)
(-7.36802e-12 -0.68156 2.06134)
(6.18357e-11 14.6081 278.545)
(2.88624e-10 36.936 244.17)
(6.49033e-11 61.0706 347.433)
(6.92391e-11 58.2689 366.637)
(4.25723e-11 55.3542 367.902)
(1.30175e-12 55.5109 361.603)
(2.71266e-11 54.5788 346.194)
(1.94697e-11 51.8083 326.002)
(1.44279e-11 46.6952 299.682)
(1.75985e-11 40.7658 261.209)
(3.88039e-12 35.8569 222.197)
(-1.67063e-11 31.3402 191.003)
(3.48237e-11 27.3434 167.277)
(4.94409e-12 25.4854 151.114)
(5.53776e-12 22.722 135.928)
(-4.53941e-12 22.1466 128.339)
(1.02753e-11 18.6632 111.755)
(-6.99287e-11 18.2606 106.257)
(5.46195e-12 14.2713 88.9232)
(-7.44407e-12 12.8767 72.2112)
(-1.07856e-11 7.29824 45.4803)
(-3.80886e-12 -0.269348 7.97982)
(2.04813e-12 0.821503 7.16693)
(-2.96707e-12 1.16781 7.38881)
(-4.40453e-13 1.15559 7.79098)
(-2.39612e-13 1.05695 7.55765)
(-1.17134e-13 1.03989 7.01564)
(-1.8832e-14 1.21072 7.09523)
(-1.08142e-12 1.32724 8.53446)
(-3.34586e-13 1.69121 10.9108)
(-5.27397e-13 1.97524 12.3945)
(-5.683e-13 1.66618 8.15041)
(-6.8272e-13 0.305655 2.88415)
(-3.96344e-13 -0.072664 0.951605)
(-3.43294e-13 -0.369039 -0.0300177)
(-5.34877e-13 -0.315282 -0.119949)
(-3.66239e-13 0.0237939 0.944229)
(-6.04672e-13 0.209576 2.05352)
(-1.17215e-13 0.253807 2.09667)
(-7.96138e-13 0.293895 2.262)
(-9.6071e-13 0.525434 3.44667)
(-8.67605e-13 0.702713 4.52809)
(-7.74718e-13 0.708495 4.76182)
(-6.03404e-13 0.569249 4.16129)
(-5.30618e-13 0.419051 3.34526)
(-4.14897e-13 0.332374 3.11616)
(-7.00846e-13 0.32274 3.18865)
(-5.07573e-13 0.368142 3.50396)
(-1.06304e-12 0.435413 3.86479)
(-5.25156e-13 0.520317 4.20581)
(-8.46564e-13 0.617833 4.35338)
(-5.39043e-13 0.606084 4.42671)
(-1.01245e-12 0.585645 4.50957)
(-4.39817e-13 0.608518 4.73355)
(-7.71265e-13 0.602826 4.92512)
(-2.38772e-13 0.572669 4.86748)
(-1.58883e-12 0.54235 4.72389)
(1.05102e-12 0.539308 4.5899)
(-2.41873e-12 0.603235 4.40811)
(4.79941e-13 0.606494 4.05973)
(-2.50302e-12 0.501527 3.82851)
(2.96168e-12 0.521292 3.98917)
(-3.87535e-12 0.588367 4.38727)
(1.92247e-12 0.633277 4.687)
(-3.1165e-13 0.607485 4.72943)
(2.28686e-12 0.544275 4.42571)
(-1.81916e-13 0.407502 3.67468)
(8.37216e-14 0.273746 2.91095)
(-1.24528e-12 0.214915 2.62723)
(1.61329e-12 0.210748 2.97496)
(-3.3388e-12 0.373049 3.76824)
(2.58214e-12 0.529265 4.56694)
(-3.22269e-12 0.614936 4.99704)
(1.77914e-12 0.644857 5.12308)
(-2.70207e-12 0.620799 4.97199)
(1.97271e-14 0.599339 4.95672)
(2.14095e-13 0.669509 5.34904)
(-1.39218e-12 0.77839 5.91573)
(1.54316e-12 0.868076 6.42498)
(-3.35984e-12 0.922896 6.77163)
(3.13462e-12 0.948231 6.95427)
(-4.96597e-12 0.951233 6.9591)
(5.23731e-12 0.904824 6.74862)
(-7.05783e-12 0.815261 6.40796)
(7.5135e-12 0.707968 6.31613)
(-3.12773e-12 0.726777 6.72472)
(3.60794e-12 0.84235 7.50186)
(9.86733e-13 1.03007 8.49476)
(-4.94367e-12 1.22325 9.41856)
(6.3955e-12 1.35764 10.0684)
(-2.59142e-12 1.44264 10.6989)
(-1.60229e-13 1.53514 11.4388)
(-2.30482e-12 1.69875 12.6472)
(1.84238e-12 2.02618 14.5339)
(-4.48995e-12 2.46964 16.6453)
(3.67309e-12 2.8381 18.1383)
(-9.52892e-13 3.08741 19.0361)
(-2.80928e-13 3.2112 19.5579)
(-1.84975e-12 3.31949 20.0581)
(1.93365e-12 3.42858 20.5708)
(-4.77449e-12 3.51235 21.0448)
(7.60871e-12 3.63686 21.6997)
(-3.09608e-12 3.74998 22.3038)
(3.7202e-12 3.87346 22.9531)
(2.11678e-12 4.00459 23.5668)
(2.69904e-12 4.06415 23.8293)
(-2.27239e-12 4.13192 24.0225)
(-2.38709e-12 4.15622 24.0553)
(-4.64949e-13 4.24421 24.0921)
(7.12349e-13 4.19867 23.8666)
(4.00798e-12 4.17333 23.7395)
(-3.04355e-12 4.16447 23.7979)
(9.20537e-13 4.23801 24.1958)
(-3.01295e-12 4.32957 24.723)
(2.13468e-13 4.57981 26.1032)
(4.16979e-12 4.83369 27.5903)
(2.10054e-12 5.51876 30.9095)
(-7.88917e-12 6.35929 36.1351)
(1.04252e-11 9.68809 43.6317)
(-8.24815e-12 16.1417 102.298)
(1.21755e-10 35.5688 303.468)
(5.92185e-10 69.8661 338.064)
(6.92268e-11 72.1871 406.752)
(1.03105e-10 70.4341 429.336)
(4.19846e-11 69.5409 449.299)
(1.2191e-10 70.9825 461.466)
(4.4253e-11 72.4943 468.6)
(4.68657e-11 71.7222 468.893)
(1.22121e-10 71.5471 464.739)
(8.65365e-11 70.1911 456.484)
(8.53994e-11 68.8324 443.845)
(1.83474e-11 67.4099 426.55)
(9.9846e-11 64.624 401.985)
(2.36345e-11 62.5 383.21)
(2.61974e-11 58.0069 354.488)
(-9.4841e-14 56.4239 340.092)
(8.68163e-12 49.8244 307.983)
(-1.75316e-11 48.7713 294.228)
(1.08059e-12 40.4611 261.78)
(-1.64422e-11 36.7601 229.882)
(-3.27992e-11 28.233 182.284)
(-1.35825e-11 -0.510991 48.9573)
(-2.07216e-12 2.53624 24.0274)
(3.4099e-12 2.84163 19.9396)
(-2.60308e-12 3.27462 19.6899)
(-1.28003e-12 2.88112 19.4659)
(-6.83563e-13 2.39983 18.8113)
(-3.39473e-14 2.46645 19.1541)
(-2.84329e-12 3.08378 21.4232)
(-1.04929e-12 3.98624 24.3791)
(-1.57513e-12 3.97564 24.1967)
(-1.65334e-12 2.73022 14.5395)
(-2.07341e-12 0.280112 6.0196)
(-1.22548e-12 -0.448318 2.78846)
(-9.89463e-13 -1.04491 1.03641)
(-1.66468e-12 -0.711778 1.2182)
(-9.87759e-13 0.150064 3.28693)
(-2.16224e-12 0.552782 4.95881)
(-3.79802e-13 0.767426 5.46829)
(-2.43124e-12 1.07158 6.89652)
(-3.05392e-12 1.83143 10.5268)
(-2.57287e-12 2.17074 13.2909)
(-2.20589e-12 1.98242 13.7308)
(-1.8605e-12 1.5796 12.4586)
(-1.78525e-12 1.17814 10.2664)
(-1.46576e-12 1.04154 9.70879)
(-2.1604e-12 1.03712 9.88133)
(-1.4746e-12 1.17502 10.6423)
(-3.09417e-12 1.35993 11.5595)
(-1.47158e-12 1.60774 12.478)
(-2.70754e-12 1.84027 12.9387)
(-1.65399e-12 1.83434 13.1715)
(-2.9147e-12 1.76525 13.3261)
(-1.32435e-12 1.78106 13.6787)
(-2.3412e-12 1.68882 13.882)
(-5.33091e-13 1.56067 13.6413)
(-5.35921e-12 1.45003 13.1828)
(3.62032e-12 1.43129 12.7218)
(-7.21465e-12 1.60439 12.1902)
(1.03928e-12 1.72802 11.5368)
(-7.56188e-12 1.56952 11.404)
(9.77951e-12 1.70654 12.1754)
(-1.31647e-11 1.94312 13.648)
(6.87666e-12 2.05883 14.7185)
(4.59043e-13 1.9592 15.1203)
(4.63292e-12 1.74859 14.653)
(-1.81885e-12 1.38808 13.0222)
(1.19782e-12 1.16154 11.3493)
(-3.42111e-12 1.22714 11.2311)
(5.69396e-12 1.38087 12.6689)
(-1.06805e-11 1.85009 14.96)
(8.92892e-12 2.24892 17.0885)
(-1.2446e-11 2.49373 18.5651)
(6.76242e-12 2.62623 19.4874)
(-8.28392e-12 2.59662 19.6913)
(4.54467e-13 2.57578 19.8426)
(1.18125e-12 2.75484 20.5394)
(-5.35639e-12 3.01086 21.559)
(6.02116e-12 3.23241 22.6813)
(-1.14117e-11 3.39357 23.747)
(1.1404e-11 3.50831 24.6371)
(-1.74829e-11 3.58922 25.2662)
(1.73474e-11 3.59114 25.5655)
(-2.12373e-11 3.54888 25.7778)
(1.839e-11 3.49362 26.5579)
(-7.25365e-12 3.64461 28.2765)
(5.73384e-12 4.0169 30.5802)
(4.91769e-12 4.53607 33.2375)
(-1.4801e-11 5.05147 35.6858)
(1.50113e-11 5.48247 37.7202)
(-6.67616e-12 5.80833 39.8142)
(1.34695e-13 6.10599 41.9748)
(-7.53006e-12 6.51097 44.9522)
(6.00568e-12 7.14941 48.5215)
(-1.47671e-11 7.964 52.1714)
(1.65762e-11 8.68174 54.7478)
(-8.36725e-13 9.21707 56.39)
(-4.94989e-13 9.50304 57.4708)
(-5.86824e-12 9.75012 58.4977)
(6.26208e-12 9.97912 59.4366)
(-1.50988e-11 10.1106 60.1769)
(1.93003e-11 10.3621 61.4081)
(-6.162e-12 10.5227 62.3329)
(8.14361e-12 10.6909 63.1988)
(5.69976e-12 10.8798 64.0353)
(7.45495e-12 10.9313 64.3117)
(-3.49273e-12 11.0762 64.4356)
(-5.95293e-12 11.0751 64.2164)
(-1.64825e-12 11.2761 64.0714)
(-5.58041e-12 11.1651 63.5075)
(8.09304e-12 11.1404 63.3039)
(-5.31283e-12 11.1226 63.3668)
(4.83661e-12 11.2595 63.9356)
(-1.1021e-11 11.4843 64.9253)
(5.52537e-12 11.969 67.3511)
(-4.84206e-12 12.5507 69.9421)
(1.28945e-11 13.8904 75.6798)
(-1.51454e-11 15.3419 83.1024)
(3.04796e-11 21.2565 95.6602)
(-1.26886e-11 36.9566 147.53)
(-5.60979e-11 -81.3716 254.118)
(-1.9572e-10 -56.1656 170.636)
(-4.60032e-10 -44.2489 139.504)
(-9.24696e-10 -36.971 115.766)
(-6.09975e-10 -31.4473 99.2894)
(1.50859e-10 -26.8318 83.8023)
(5.97009e-10 -23.8546 74.8913)
(-5.07438e-10 -20.5913 63.7106)
(1.33227e-10 -18.6853 58.2686)
(3.97025e-11 -16.2647 50.2024)
(-1.261e-10 -14.8822 46.3666)
(1.2308e-11 -13.1182 40.4647)
(5.79537e-11 -12.1665 37.6386)
(-2.30923e-11 -10.7679 33.1824)
(-1.07566e-10 -10.0761 31.0147)
(8.78926e-11 -8.96551 27.6434)
(4.18772e-11 -8.43275 25.9821)
(-8.25877e-11 -7.58068 23.3444)
(5.99309e-11 -7.16502 21.9824)
(-5.12637e-11 -6.49071 19.87)
(5.18497e-11 -6.20304 18.7932)
(-5.28139e-11 -5.74094 17.4897)
(4.46308e-11 -5.33392 16.1872)
(-2.27335e-11 -5.0388 15.2916)
(1.52157e-11 -4.71842 14.2494)
(-5.7646e-12 -4.44113 13.4472)
(1.04476e-11 -4.14904 12.5368)
(-4.50708e-12 -3.92968 11.8581)
(1.48895e-11 -3.69642 11.1542)
(2.018e-12 -3.49363 10.5299)
(2.68727e-11 -3.29636 9.9339)
(2.76456e-12 -3.12226 9.3852)
(-6.84586e-13 -2.96228 8.90307)
(1.54766e-11 -2.82018 8.45917)
(9.70024e-12 -2.68327 8.05087)
(-4.00007e-12 -2.55953 7.66322)
(-1.53238e-12 -2.43987 7.30297)
(5.19238e-13 -2.32618 6.96059)
(1.97157e-12 -2.22281 6.64465)
(-1.18519e-11 -2.12669 6.35021)
(-2.26853e-12 -2.03249 6.07347)
(-4.44301e-12 -1.9485 5.81116)
(-2.98107e-12 -1.86812 5.56803)
(3.01948e-12 -1.78982 5.33199)
(-3.94985e-12 -1.716 5.10747)
(4.95698e-12 -1.64094 4.88778)
(1.43547e-12 -1.5597 4.65586)
(-5.10796e-12 -1.47283 4.39844)
(-3.67034e-12 -1.36587 4.12385)
(-1.52978e-11 -1.15498 3.76616)
(-1.01148e-11 -0.666782 3.32538)
(-1.58376e-12 -0.207442 3.23321)
(-1.10004e-12 -0.0730752 3.36312)
(4.79909e-12 -0.0680364 3.76933)
(6.10919e-12 -0.0268052 3.94439)
(2.85353e-12 -0.0180898 4.08219)
(5.46317e-14 -0.0107858 4.1893)
(8.20669e-12 -0.00662576 4.26323)
(-6.9986e-13 -0.00391973 4.30975)
(6.59579e-12 -0.00243662 4.34037)
(-8.21127e-12 -0.0019584 4.36295)
(-9.58991e-12 -0.00196452 4.38095)
(-1.54825e-12 -0.0021037 4.39488)
(1.23144e-12 -0.00206481 4.40713)
(1.85699e-12 -0.00227686 4.41955)
(-6.20082e-12 -0.00246789 4.43287)
(-8.43011e-12 -0.00251612 4.44294)
(6.16637e-13 -0.00333225 4.44845)
(-2.3791e-12 -0.00283607 4.45107)
(-8.80207e-12 -0.00303488 4.45425)
(5.44903e-12 -0.00226131 4.4599)
(2.6521e-12 -0.00216047 4.46515)
(8.45974e-12 -0.00219331 4.4712)
(4.90898e-12 -0.00243597 4.47766)
(5.45014e-12 -0.00266035 4.48701)
(-4.0023e-12 -0.00266875 4.49487)
(1.03845e-13 -0.00395258 4.50112)
(1.10975e-12 -0.00360134 4.50643)
(1.03872e-11 -0.00364497 4.51375)
(-5.00189e-13 -0.00233634 4.52412)
(9.30085e-13 -0.00159721 4.53414)
(-3.88231e-12 -0.00103148 4.54526)
(-1.6405e-12 -0.00153274 4.558)
(-1.9603e-12 -0.0020166 4.57368)
(4.41848e-12 -0.00208478 4.59077)
(4.27024e-12 -0.00195669 4.61408)
(8.01388e-12 -0.0019149 4.64627)
(9.82793e-12 -0.00181837 4.68322)
(-6.56968e-12 -0.00160586 4.72478)
(-4.09837e-12 -0.00341907 4.77449)
(-1.06208e-11 -0.00275002 4.8298)
(1.71651e-12 -0.00359719 4.90075)
(-1.36397e-13 -0.0025297 4.99497)
(2.0581e-13 -0.00125338 5.10768)
(-6.93795e-12 4.61253e-05 5.24516)
(-3.37785e-12 0.000650431 5.41171)
(-1.21107e-11 0.000969252 5.61249)
(4.30572e-12 0.00050694 5.84776)
(4.43651e-12 0.000594213 6.12007)
(2.45686e-12 0.000613322 6.43328)
(3.69223e-12 0.000506605 6.78622)
(7.38902e-12 0.00124909 7.1573)
(-5.67446e-13 -0.00144513 7.53123)
(4.74363e-12 0.00075501 7.89916)
(5.08405e-12 0.000284934 8.26107)
(8.37796e-12 0.00162989 8.60778)
(-3.47252e-12 0.00136212 8.92733)
(-1.33694e-14 0.00294837 9.21798)
(-2.52694e-12 0.00240439 9.48248)
(3.96727e-12 0.000486001 9.72862)
(8.88515e-12 -0.00061455 9.9613)
(1.34068e-13 0.000381791 10.1668)
(-7.55886e-12 -0.00384097 10.3185)
(-1.23844e-11 -0.000111418 10.4023)
(-2.86067e-12 -0.000826684 10.4632)
(5.95184e-12 0.00409307 10.5227)
(-9.54352e-12 0.00507817 10.5433)
(-1.43118e-11 0.00366672 10.5284)
(3.57268e-12 -0.00228104 10.4896)
(7.38907e-12 -0.00320886 10.4767)
(-4.2793e-12 0.000892876 10.4836)
(-8.43458e-12 0.00258547 10.4739)
(-4.95829e-13 -0.000844788 10.4512)
(-3.97268e-12 -0.0125483 10.4262)
(-4.54107e-12 -0.0166765 10.3949)
(-7.65745e-12 -0.0172275 10.3676)
(-1.22962e-11 -0.0184598 10.3539)
(-7.29147e-13 -0.0278045 10.3377)
(-1.31413e-12 -0.0514418 10.3338)
(5.56561e-13 -0.0540284 10.3633)
(-3.66093e-12 -0.129705 4.2803)
(7.73669e-12 -0.119582 4.55572)
(3.46283e-12 -0.057771 4.70748)
(1.3209e-11 -0.0368708 4.83501)
(5.76937e-12 -0.0234374 4.93245)
(4.11717e-12 -0.0151584 4.99965)
(-9.30976e-12 -0.0103642 5.04005)
(-3.23457e-12 -0.0081247 5.06435)
(-7.65353e-12 -0.00605515 5.08008)
(6.97119e-13 -0.00430419 5.09126)
(5.27421e-12 -0.00367041 5.09842)
(-5.08381e-12 -0.00348016 5.10331)
(-9.14589e-12 -0.00313987 5.1086)
(-6.10272e-12 -0.00322266 5.11414)
(3.7741e-13 -0.00232077 5.11632)
(3.26663e-12 -0.000369562 5.11402)
(-1.59377e-12 -0.000437456 5.10848)
(-1.21927e-11 -0.00097573 5.10428)
(-5.86481e-13 -0.00201632 5.10213)
(7.30664e-12 -0.00272328 5.09946)
(1.00366e-11 -0.00277269 5.09766)
(3.0812e-13 -0.00280694 5.09671)
(-4.33146e-12 -0.00306831 5.09811)
(-7.41418e-12 -0.00213064 5.09698)
(-2.24386e-12 0.000300974 5.09496)
(9.15591e-12 0.000508828 5.09211)
(3.30983e-12 -0.000188674 5.09219)
(9.15012e-13 -0.00189433 5.09506)
(2.01138e-12 -0.00312284 5.09646)
(6.24715e-13 -0.00323574 5.09907)
(6.56368e-12 -0.00291999 5.10343)
(1.18891e-11 -0.00238138 5.11117)
(1.28664e-11 -0.00244394 5.12032)
(5.46354e-12 -0.00271863 5.13548)
(7.13805e-12 -0.00290855 5.1592)
(7.61947e-13 -0.00352878 5.18816)
(6.09695e-12 -0.00327028 5.2199)
(-3.3549e-12 -0.000967903 5.26179)
(-1.16051e-11 -0.000321076 5.30754)
(2.62183e-12 -0.000881152 5.37026)
(-2.50894e-13 -0.00211094 5.45735)
(5.25986e-12 -0.00405288 5.56099)
(-1.33865e-11 -0.004564 5.68997)
(-5.03749e-12 -0.00489082 5.8474)
(-1.66655e-11 -0.00449483 6.03938)
(9.38838e-12 -0.00414766 6.26589)
(1.33362e-11 -0.00342233 6.52986)
(1.0401e-11 -0.00319724 6.83374)
(6.39673e-12 -0.00328922 7.17901)
(6.63164e-12 -0.00337818 7.53996)
(1.04039e-11 0.000481224 7.90731)
(8.8546e-12 0.000429187 8.26622)
(4.08551e-12 0.00255811 8.6178)
(5.13446e-12 0.00267229 8.95992)
(-1.32367e-11 0.00259692 9.27199)
(-1.13394e-12 0.0021792 9.55926)
(-5.33062e-12 0.00453307 9.81758)
(2.68513e-12 0.00680689 10.0563)
(7.44031e-12 0.00402222 10.287)
(7.496e-12 0.00301562 10.4793)
(-9.05574e-12 0.00880596 10.6326)
(-5.3321e-12 0.00557719 10.71)
(-7.45832e-13 0.00704367 10.7626)
(5.06404e-12 0.00487944 10.823)
(9.25646e-13 0.00261969 10.8352)
(-7.71026e-13 0.00390083 10.8125)
(1.35167e-11 0.00678006 10.7681)
(-8.0412e-13 0.00520358 10.7528)
(-4.68544e-12 0.00129973 10.7579)
(-5.23521e-12 -0.000545692 10.7438)
(1.23704e-12 0.0038904 10.713)
(-1.45619e-12 0.016068 10.6878)
(6.63407e-12 0.0200997 10.6638)
(-2.88846e-12 0.016081 10.6439)
(-3.89808e-12 0.0144953 10.6356)
(1.36837e-12 0.00164803 10.6148)
(4.27355e-13 -0.0278163 10.5827)
(1.98737e-12 -0.0325554 10.5269)
(-2.22431e-11 -0.798831 3.96298)
(-8.30625e-12 -0.316083 4.07066)
(1.26142e-10 -74.6861 253.641)
(-5.36519e-11 -52.4807 172.377)
(1.50394e-11 -38.1767 143.046)
(-4.92534e-10 -34.2159 116.567)
(-1.92297e-09 -28.3623 101.375)
(-6.90737e-10 -24.8987 84.6804)
(8.7326e-10 -22.1362 76.3325)
(-7.60401e-11 -19.2635 64.9312)
(1.59584e-10 -17.5602 59.4617)
(-2.92032e-10 -15.3912 51.4292)
(1.34757e-10 -14.2211 47.5677)
(1.31358e-10 -12.6176 41.6935)
(-3.44169e-11 -11.8583 38.8538)
(-1.05166e-10 -10.557 34.4545)
(-8.62748e-11 -10.0168 32.2945)
(1.16239e-10 -8.97021 29.01)
(1.0572e-10 -8.55739 27.3838)
(-1.14865e-10 -7.71273 24.8158)
(9.14638e-11 -7.40189 23.5199)
(-9.39001e-12 -6.73635 21.4603)
(-5.40007e-12 -6.53629 20.407)
(-8.84724e-11 -5.90065 18.6847)
(1.21889e-10 -5.67301 17.776)
(-9.14001e-11 -5.22288 16.375)
(8.53963e-11 -5.06196 15.6698)
(-7.12323e-11 -4.64319 14.5275)
(6.09551e-11 -4.50743 13.9254)
(-3.53437e-11 -4.17795 12.9644)
(4.13704e-11 -4.00382 12.3567)
(-1.74108e-11 -3.7749 11.6652)
(5.92633e-11 -3.59338 11.0766)
(-7.22426e-12 -3.42582 10.5213)
(-7.72233e-12 -3.23976 9.95691)
(1.99305e-11 -3.10653 9.48296)
(6.4982e-12 -2.97023 9.07605)
(-3.26978e-13 -2.84388 8.6671)
(1.8696e-12 -2.714 8.27885)
(-1.34209e-11 -2.58767 7.89406)
(7.26194e-12 -2.47769 7.54268)
(-1.1708e-11 -2.37703 7.2223)
(6.38812e-12 -2.27106 6.91151)
(-9.68832e-12 -2.18444 6.62175)
(7.16508e-12 -2.09462 6.35319)
(-3.99731e-12 -2.00267 6.08013)
(1.91618e-12 -1.91231 5.8109)
(-7.94361e-12 -1.81534 5.54077)
(1.65174e-11 -1.70987 5.26297)
(-1.18015e-11 -1.60267 4.96929)
(-1.30089e-12 -1.47366 4.6545)
(-2.60574e-11 -1.25001 4.27024)
(-5.70942e-11 20.9233 317.826)
(7.14349e-10 61.3946 365.271)
(-1.33847e-10 69.5621 414.941)
(1.24402e-10 65.8784 440.848)
(-1.10503e-10 63.2428 461.808)
(8.33086e-11 63.034 478.886)
(-1.22152e-11 64.6265 491.349)
(-7.68515e-11 64.964 500.251)
(-5.87699e-12 67.4944 505.749)
(-1.33437e-11 68.1503 509.599)
(-5.58079e-11 69.6484 509.51)
(-6.55977e-11 71.5952 507.355)
(-2.12939e-12 72.7349 502.041)
(-4.83533e-11 73.4855 495.697)
(4.07901e-11 72.3717 480.865)
(-7.48305e-12 72.5441 471.347)
(2.44963e-12 68.4511 448.983)
(-1.30783e-11 68.1795 435.15)
(-1.5673e-11 59.5414 407.204)
(-2.11816e-11 54.2607 369.181)
(-4.74509e-11 50.3214 329.552)
(-3.03772e-11 3.06549 153.78)
(-1.87705e-11 4.68921 63.6091)
(7.67902e-13 4.28667 36.8732)
(-1.07425e-11 4.46675 30.7584)
(-3.88913e-12 3.92355 29.0414)
(-2.00662e-12 3.8296 27.7856)
(6.027e-14 4.27394 27.8739)
(-3.49169e-12 4.86548 29.9243)
(-1.58239e-12 5.2335 32.1139)
(-2.04539e-12 4.33992 30.7283)
(-2.23856e-12 1.84625 18.1332)
(-3.38889e-12 -0.23963 8.13062)
(-2.41005e-12 -0.89887 4.75704)
(-1.29895e-12 -1.47593 3.24546)
(-3.09247e-12 -0.732766 3.88662)
(-1.06389e-12 0.694103 6.49238)
(-4.54539e-12 1.055 8.41984)
(-1.0767e-13 1.39925 9.28584)
(-3.85746e-12 2.10745 11.489)
(-5.64635e-12 3.27705 16.8445)
(-4.77965e-12 3.58952 20.9569)
(-3.88335e-12 3.01841 21.6571)
(-3.19835e-12 2.42076 20.3675)
(-3.33945e-12 1.84478 17.3469)
(-2.71744e-12 1.81538 16.6137)
(-3.99036e-12 1.84531 16.8781)
(-2.40478e-12 2.07648 18.0088)
(-5.25663e-12 2.3674 19.4195)
(-2.47236e-12 2.76548 20.8924)
(-5.05553e-12 3.04538 21.7168)
(-2.54315e-12 3.10503 22.1807)
(-4.84332e-12 3.01786 22.4696)
(-2.30278e-12 2.97062 22.9008)
(-3.92378e-12 2.75853 23.0696)
(-6.69373e-13 2.53003 22.7521)
(-1.03448e-11 2.3839 22.1624)
(6.85171e-12 2.41712 21.6649)
(-1.18463e-11 2.72588 21.1624)
(6.70105e-13 3.05783 20.6418)
(-1.34695e-11 3.0022 20.7177)
(1.9463e-11 3.26845 21.9279)
(-2.59499e-11 3.67735 24.4143)
(1.82012e-11 3.84047 26.3219)
(-1.09778e-12 3.65633 27.3669)
(8.76775e-13 3.35741 27.1159)
(-3.09739e-12 2.91999 25.6889)
(2.95682e-12 2.7788 24.0207)
(-5.54685e-12 3.07304 24.1546)
(1.10019e-11 3.45715 26.2507)
(-1.85944e-11 4.12774 29.5751)
(1.58221e-11 4.67135 32.6172)
(-2.03939e-11 5.03106 34.9446)
(1.18187e-11 5.27215 36.6973)
(-1.46075e-11 5.27331 37.5842)
(7.70717e-12 5.30232 38.2329)
(5.8386e-12 5.59988 39.3932)
(-1.24057e-11 5.99484 40.881)
(1.27895e-11 6.34776 42.5578)
(-2.14634e-11 6.61199 44.2483)
(2.15413e-11 6.82686 45.8371)
(-3.08419e-11 6.98635 47.1076)
(2.79288e-11 7.08381 48.1295)
(-3.19888e-11 7.15107 49.0975)
(2.36776e-11 7.23519 50.745)
(3.24795e-13 7.44689 53.2948)
(-5.8101e-12 7.96941 56.4853)
(9.31379e-12 8.67799 60.0286)
(-1.743e-11 9.38595 63.3871)
(9.24191e-12 10.0204 66.3201)
(-1.12419e-11 10.4986 69.3527)
(8.59081e-13 10.8909 72.3443)
(-8.56373e-12 11.4225 76.2336)
(4.31511e-12 12.2203 80.6089)
(-1.52829e-11 13.1965 85.0236)
(1.58001e-11 14.1235 88.2795)
(7.99253e-13 14.8571 90.4581)
(-4.87922e-12 15.2515 91.9388)
(-3.8991e-12 15.5949 93.331)
(6.29001e-12 15.8988 94.4572)
(-2.05274e-11 15.982 95.0906)
(2.65614e-11 16.2967 96.4617)
(-2.91646e-12 16.4177 97.4661)
(3.40124e-13 16.5783 98.3654)
(-1.07061e-12 16.7684 99.2977)
(-3.39903e-12 16.8132 99.633)
(-3.62081e-12 17.0336 99.7284)
(-6.56225e-12 17.0183 99.3448)
(-3.46184e-12 17.3083 99.0244)
(-6.13116e-12 17.1383 98.1927)
(-7.33564e-13 17.1313 97.8648)
(-7.38051e-12 17.1021 97.8725)
(1.27341e-11 17.2714 98.2691)
(-2.4241e-11 17.555 99.2342)
(2.46062e-11 18.126 101.681)
(-3.5859e-11 18.8337 104.401)
(3.34642e-11 20.6395 110.372)
(-3.3796e-11 21.7334 117.719)
(4.67312e-11 29.5384 129.265)
(-3.86932e-11 40.1768 161.722)
(2.38736e-12 9.57022 324.837)
(7.98281e-10 70.4756 373.887)
(-1.69266e-10 72.7512 418.364)
(2.91541e-10 68.1318 444.704)
(-5.3011e-11 64.5955 465.305)
(2.17096e-10 64.1506 482.798)
(6.55352e-11 65.8699 496.258)
(3.28504e-11 67.3869 507.23)
(2.59281e-11 69.3187 516.289)
(2.29329e-11 69.4314 523.473)
(-1.46233e-11 70.9896 528.803)
(-2.06892e-11 72.6218 532.277)
(-6.67625e-11 73.634 534.744)
(-2.11864e-11 75.8717 534.762)
(1.39955e-11 76.4925 532.623)
(-6.46739e-11 77.3576 529.891)
(-5.25213e-11 76.0244 523.103)
(-4.10708e-11 75.9339 514.065)
(-4.05649e-11 70.1871 501.961)
(-3.34848e-11 64.2984 473.119)
(-5.20141e-11 62.4418 438.818)
(-5.62816e-11 17.8594 326.919)
(-3.90433e-11 7.50958 153.18)
(-1.56498e-11 6.03044 74.4387)
(-1.64789e-11 5.96704 47.0891)
(-7.24836e-12 4.96208 38.4282)
(-3.84666e-12 4.03255 34.9429)
(-2.88652e-13 3.74353 34.5775)
(-3.67503e-12 4.95719 35.8222)
(-2.26643e-12 6.22176 36.9602)
(-2.67533e-12 4.41749 34.6292)
(-2.61176e-12 0.75158 20.9803)
(-4.59713e-12 -0.728409 10.3682)
(-4.41931e-12 -1.2326 7.30317)
(-1.56516e-12 -1.70578 6.23089)
(-5.09708e-12 -0.703195 7.08323)
(6.74947e-13 1.16805 10.1025)
(-7.956e-12 1.51946 12.3172)
(1.32837e-12 2.01925 13.3961)
(-5.35443e-12 3.00247 15.922)
(-8.81682e-12 4.64829 22.0371)
(-8.01179e-12 4.88974 27.3739)
(-5.8861e-12 3.89313 28.6503)
(-4.71991e-12 3.15871 27.7473)
(-4.82548e-12 2.50306 24.7101)
(-4.05386e-12 2.65602 23.8981)
(-5.8879e-12 2.77451 24.2338)
(-3.34169e-12 3.08446 25.6292)
(-7.86496e-12 3.49085 27.3884)
(-2.76742e-12 3.99169 29.3326)
(-7.96182e-12 4.29877 30.5728)
(-2.88026e-12 4.4073 31.414)
(-7.65065e-12 4.39488 32.0124)
(-2.7498e-12 4.28036 32.6441)
(-6.38459e-12 3.95211 32.9654)
(-8.70159e-13 3.65067 32.7681)
(-1.53817e-11 3.54711 32.3692)
(9.53417e-12 3.71522 32.0164)
(-1.50844e-11 4.1666 31.7821)
(1.22242e-12 4.6563 31.6307)
(-2.31617e-11 4.84221 31.8953)
(2.98551e-11 5.20966 33.3186)
(-3.68239e-11 5.75068 36.3926)
(2.54159e-11 5.90822 39.0191)
(-1.29529e-11 5.64762 40.7394)
(-1.53787e-12 5.23211 41.0806)
(-5.00092e-12 4.80984 40.3276)
(1.00589e-11 4.78601 39.0725)
(-4.9757e-12 5.34526 39.358)
(1.29002e-11 6.03259 41.7601)
(-2.1022e-11 6.81512 45.8049)
(1.62202e-11 7.42576 49.4721)
(-2.06282e-11 7.83816 52.4249)
(9.63957e-12 8.1506 54.8459)
(-1.38421e-11 8.18057 56.3838)
(5.77305e-12 8.27805 57.6393)
(7.64213e-12 8.70157 59.3165)
(-2.17969e-11 9.22521 61.2549)
(1.72282e-11 9.67902 63.3592)
(-2.90983e-11 10.0033 65.4473)
(2.70698e-11 10.2788 67.5071)
(-3.69347e-11 10.4648 69.1777)
(2.8005e-11 10.6086 70.6426)
(-3.09771e-11 10.7322 72.1153)
(1.92524e-11 10.9249 74.3366)
(2.36994e-12 11.1639 77.4006)
(-1.49799e-11 11.7928 81.1516)
(1.354e-11 12.6128 85.2025)
(-2.2809e-11 13.4391 89.099)
(1.47767e-11 14.212 92.6061)
(-2.23133e-11 14.7693 96.1839)
(1.46909e-11 15.2188 99.7521)
(1.16244e-11 15.8523 104.116)
(-2.0073e-11 16.7455 108.897)
(2.1201e-11 17.8091 113.72)
(-3.55815e-11 18.8872 117.459)
(3.53758e-11 19.7697 120.034)
(-6.64737e-12 20.2503 121.812)
(4.94152e-11 20.6826 123.559)
(-1.15178e-11 21.0408 124.856)
(1.11225e-11 21.0695 125.426)
(3.28939e-11 21.3802 126.66)
(-5.60886e-12 21.4634 127.709)
(-8.69911e-13 21.6142 128.722)
(-6.69465e-14 21.8242 129.794)
(-1.83017e-12 21.892 130.255)
(-2.86867e-12 22.156 130.355)
(-4.59704e-12 22.1368 129.915)
(-5.08501e-12 22.4917 129.428)
(-6.0014e-12 22.2719 128.395)
(-2.92018e-12 22.284 127.889)
(-6.51498e-12 22.2328 127.819)
(1.63205e-11 22.4384 128.051)
(-3.21517e-11 22.729 128.763)
(4.10468e-11 23.2934 130.746)
(-5.79861e-11 24.1013 133.173)
(6.4284e-11 25.9668 138.667)
(-7.57214e-11 27.4044 144.699)
(1.05504e-10 35.19 157.772)
(-1.07414e-10 45.1929 169.758)
(2.42448e-11 -74.8235 244.664)
(1.76975e-10 -46.8658 174.894)
(-7.68471e-10 -37.8365 144.595)
(1.10297e-09 -33.1983 117.527)
(-7.38109e-10 -27.9617 102.418)
(-1.71222e-09 -24.1473 85.4269)
(4.02527e-11 -21.7353 76.8946)
(9.85378e-10 -18.8713 65.4129)
(-5.89399e-11 -17.2805 59.8484)
(-6.75324e-10 -15.1457 51.7599)
(7.44556e-10 -13.9294 47.8829)
(1.66203e-10 -12.4043 41.9768)
(-1.61706e-10 -11.6315 39.1256)
(-2.9885e-10 -10.3769 34.7378)
(4.80775e-11 -9.85893 32.5853)
(5.71135e-11 -8.85231 29.3106)
(2.6455e-10 -8.4727 27.6817)
(-1.4185e-10 -7.64417 25.1104)
(6.45401e-11 -7.35852 23.807)
(6.52164e-11 -6.69537 21.7481)
(-1.31589e-10 -6.50099 20.6867)
(8.67097e-11 -5.86128 18.9502)
(1.34989e-11 -5.65243 18.0371)
(-1.33979e-11 -5.18617 16.6168)
(4.90422e-11 -5.06879 15.8985)
(-6.42161e-11 -4.6367 14.7786)
(5.78107e-11 -4.52726 14.1697)
(-3.17301e-11 -4.15138 13.192)
(1.88879e-11 -4.02217 12.5825)
(-1.90125e-12 -3.7761 11.8837)
(3.60828e-11 -3.60864 11.2939)
(9.15364e-12 -3.43562 10.7435)
(-1.04949e-11 -3.24247 10.1615)
(2.94968e-11 -3.12957 9.67634)
(-6.8716e-12 -2.99433 9.27432)
(8.1492e-12 -2.86603 8.86481)
(5.35253e-12 -2.73097 8.47294)
(-4.66222e-12 -2.60234 8.0784)
(1.70333e-11 -2.49619 7.71832)
(-1.14102e-11 -2.39767 7.39413)
(1.02632e-11 -2.28823 7.07634)
(3.65246e-12 -2.20494 6.78082)
(3.75867e-12 -2.11215 6.50908)
(1.23863e-11 -2.01447 6.2289)
(-1.03971e-12 -1.91918 5.95)
(4.21515e-12 -1.81635 5.66938)
(5.97404e-12 -1.7043 5.38353)
(-9.53347e-12 -1.59022 5.08869)
(3.79824e-12 -1.4474 4.78209)
(-1.56195e-11 -1.21497 4.42773)
(-1.39889e-11 -0.805626 4.18639)
(-1.30482e-11 -0.358494 4.30314)