/*--------------------------------*- C++ -*----------------------------------*\
| =========                 |                                                 |
| \\      /  F ield         | OpenFOAM: The Open Source CFD Toolbox           |
|  \\    /   O peration     | Version:  2212                                  |
|   \\  /    A nd           | Website:  www.openfoam.com                      |
|    \\/     M anipulation  |                                                 |
\*---------------------------------------------------------------------------*/
FoamFile
{
    version     2.0;
    format      ascii;
    arch        "LSB;label=32;scalar=64";
    class       volVectorField;
    location    "0.0134";
    object      U;
}
// * * * * * * * * * * * * * * * * * * * * * * * * * * * * * * * * * * * * * //

dimensions      [0 1 -1 0 0 0 0];

internalField   nonuniform List<vector> 
2308
(
(-2.26872 126.275 -7.39381e-16)
(-10.5163 -23.4567 0)
(7.70761 173.9 6.15354e-17)
(19.6274 22.0053 -2.29824e-16)
(3.00996 97.7982 0)
(3.80147 74.037 2.13362e-18)
(-11.5874 73.1229 -5.23282e-19)
(-8.27625 95.5424 -3.33342e-16)
(2.25404 103.837 6.16059e-16)
(4.05098 17.896 -6.75175e-17)
(3.48972 20.0082 1.22233e-16)
(2.35499 23.906 -1.83088e-16)
(1.8861 25.8636 9.13215e-17)
(1.49264 28.1475 -4.67365e-17)
(0.935842 30.0979 8.07176e-18)
(0.182587 32.1335 6.79567e-17)
(-0.843043 34.4033 9.60188e-18)
(-4.50557 35.3945 2.12866e-17)
(-4.3209 33.1641 2.86223e-17)
(-3.09338 31.1711 2.08957e-18)
(-1.8756 29.3419 1.56406e-17)
(-0.86383 27.333 -4.54516e-17)
(0.079136 24.9074 5.76502e-17)
(1.19219 22.3691 -2.60988e-17)
(1.98682 20.2038 -1.11221e-16)
(2.83588 17.6783 -5.23601e-17)
(4.0173 15.6044 2.62627e-17)
(4.30948 16.003 -2.85248e-17)
(-8.54675 73.443 0)
(-1.91506 36.838 -1.97441e-16)
(4.66149 16.2167 1.49849e-18)
(4.62462 17.317 3.78638e-19)
(4.49939 18.8134 -6.37358e-18)
(4.43031 19.7767 5.98135e-18)
(4.44149 19.7451 -6.22935e-18)
(4.48387 18.7846 5.78122e-18)
(4.50406 17.1804 -2.86564e-18)
(4.40767 14.8164 2.80553e-18)
(3.96405 11.6043 -2.7856e-18)
(2.9951 8.33339 1.34662e-18)
(1.55735 6.61134 2.6794e-18)
(-0.0266122 7.098 3.96901e-18)
(-1.37486 8.57279 -7.83122e-18)
(-2.27196 9.03139 5.14239e-18)
(-2.83874 6.92333 2.57096e-18)
(-3.10472 6.19883 -2.52576e-18)
(-2.187 8.05701 2.58694e-18)
(-1.01443 7.26911 -3.93475e-18)
(0.449563 5.51935 -4.32705e-18)
(2.0272 5.06679 6.72554e-18)
(3.29901 7.15239 -1.36164e-18)
(4.07769 10.9459 2.76581e-18)
(4.4323 14.5993 6.79872e-19)
(4.55169 17.1786 -4.30578e-18)
(4.62054 18.8471 -1.4478e-18)
(4.69388 19.8011 2.94076e-18)
(4.82803 19.7709 0)
(5.03013 18.769 -3.78904e-19)
(5.25526 17.3604 -1.26067e-17)
(5.29509 16.3703 -4.39236e-17)
(5.10204 15.9702 5.23572e-17)
(4.53049 16.8425 5.49789e-17)
(4.57045 17.894 6.40836e-17)
(4.04419 20.0362 -4.06785e-20)
(4.0102 22.3189 7.32956e-17)
(3.81115 24.5619 -1.37595e-16)
(3.52269 26.688 -3.18736e-17)
(3.49974 28.8213 0)
(3.32764 30.9246 0)
(2.91577 33.1663 0)
(2.17484 35.6121 0)
(-3.20678 0.825649 -1.21264e-18)
(-3.80914 0.308181 1.2526e-18)
(-6.75552 32.7481 -9.8346e-17)
(-5.5497 30.1924 -1.96067e-18)
(-4.59375 28.2993 7.59322e-18)
(-3.35673 26.2169 0)
(-1.95305 23.7497 -1.42603e-17)
(-0.530048 21.2721 -1.36718e-17)
(0.814397 18.8581 6.8231e-18)
(1.99424 16.5482 2.69179e-17)
(2.98446 15.2 0)
(3.60175 15.2951 1.18695e-20)
(3.8567 15.9793 4.76797e-20)
(3.77245 17.3411 -6.10178e-18)
(3.72166 18.8285 9.05141e-18)
(3.78848 19.6954 -3.04322e-20)
(3.99208 19.5767 -5.12617e-18)
(4.236 18.6125 0)
(4.38784 17.121 -7.13923e-19)
(4.32271 15.0752 4.23212e-18)
(3.81733 12.4 -5.54659e-18)
(2.72748 9.67553 -1.85858e-20)
(1.22072 8.22274 5.36415e-18)
(-0.263905 8.59828 0)
(-1.38693 9.6423 5.22138e-18)
(-1.93019 9.64994 1.37735e-20)
(-2.10954 7.2787 -2.51477e-18)
(-5.29808 38.6297 -8.56383e-17)
(-2.07891 1.02813 -2.49891e-18)
(-2.83647 40.5676 8.72908e-17)
(1.12025 38.5041 4.62791e-19)
(-3.34935 -0.516371 -2.47904e-18)
(-2.51115 5.19447 3.21925e-18)
(-1.43727 6.88017 0)
(-0.191193 5.88399 -1.00038e-18)
(1.21616 4.02262 2.31469e-18)
(2.59705 3.75234 2.70588e-18)
(3.53688 6.28697 -2.76308e-18)
(4.01024 10.5314 0)
(4.2148 14.4635 -7.06221e-19)
(4.31886 17.1529 1.43692e-18)
(4.44999 18.8217 1.21651e-21)
(4.61169 19.7319 -1.47595e-18)
(4.87105 19.6252 0)
(5.1749 18.5899 2.29546e-18)
(5.4156 17.2566 -9.19534e-18)
(5.42909 16.4008 -6.24128e-18)
(5.27669 16.1978 2.56821e-17)
(5.02992 17.0007 9.66791e-17)
(4.92232 18.3429 7.38404e-18)
(4.76938 20.4633 7.12076e-17)
(4.79835 22.7248 -3.2661e-17)
(4.9113 24.8943 0)
(4.95138 26.9798 0)
(5.26523 29.1083 0)
(5.46634 31.3355 1.13101e-16)
(5.44781 33.7432 -1.32481e-16)
(5.0717 36.5209 1.36862e-16)
(-10.4558 101.499 -2.69484e-16)
(8.61122 67.6583 0)
(2.33977 63.0214 0)
(4.8807 66.5617 0)
(-12.3769 35.5349 1.98473e-16)
(-11.0611 31.8438 5.52562e-17)
(-9.47469 29.0393 -3.50604e-20)
(-7.77341 26.9843 -9.18421e-19)
(-5.9812 24.8403 9.0674e-19)
(-4.15999 22.3907 7.043e-18)
(-2.4466 19.8806 -1.38112e-17)
(-0.827884 17.3882 9.3869e-22)
(0.573719 15.4162 0)
(1.61994 14.5741 2.93778e-17)
(2.29298 14.7657 1.90133e-17)
(2.57169 15.7529 -3.0912e-18)
(2.6069 17.275 3.07072e-18)
(2.74177 18.6799 0)
(3.05594 19.4011 0)
(3.5169 19.1804 -3.67662e-19)
(3.97644 18.2678 0)
(4.27971 17.0038 2.14781e-18)
(4.25483 15.3798 1.62027e-21)
(3.68848 13.295 -1.38629e-18)
(2.50183 11.0972 0)
(0.954449 9.80482 -1.36868e-18)
(-0.398697 9.91442 1.99275e-18)
(-1.25297 10.4247 -3.27609e-18)
(-1.51835 9.9324 0)
(-1.37168 7.26233 -5.06288e-18)
(-1.07702 1.00524 1.27971e-18)
(-1.47219 -7.76194 5.36661e-20)
(-2.21443 -8.46818 0)
(-3.53724 -8.70501 -6.13973e-19)
(-4.47445 -8.69141 -2.0532e-18)
(-5.05256 98.404 2.92173e-16)
(-4.2212 -8.79226 1.54267e-19)
(-13.1743 104.973 -8.4718e-16)
(-18.9183 101.194 -1.93663e-16)
(-0.179444 42.1815 0)
(-3.492 115.184 2.84086e-16)
(-0.712943 94.2654 -5.82015e-16)
(-7.66881 43.4611 3.62154e-17)
(4.1111 39.7781 -2.08685e-16)
(-3.70723 -15.0937 -1.18383e-18)
(-2.89822 -16.3131 -1.2114e-18)
(-3.41441 -16.6132 -1.50154e-19)
(-3.9431 -15.8331 2.36987e-18)
(-3.69358 -14.8904 1.52375e-19)
(-2.22624 -14.0845 0)
(-2.59591 -8.88566 1.23878e-18)
(-1.82735 -1.29639 2.48881e-18)
(-1.09189 4.25685 -6.78297e-19)
(-0.12976 5.77216 -2.60646e-18)
(0.982055 4.65574 -2.97278e-18)
(2.13877 2.81494 4.00287e-18)
(3.0845 2.86496 1.35971e-18)
(3.49939 5.8728 -2.76413e-18)
(3.57431 10.4176 2.11548e-18)
(3.58391 14.4346 -6.28933e-19)
(3.67901 17.0799 0)
(3.87724 18.6673 0)
(4.14285 19.4893 0)
(4.56108 19.285 3.03657e-18)
(5.02366 18.2518 -1.5279e-18)
(5.37983 17.0723 -6.29356e-21)
(5.52291 16.4378 -1.27035e-17)
(5.51872 16.486 0)
(5.42052 17.2498 -1.37306e-17)
(5.28509 18.7227 1.44425e-17)
(5.26385 20.681 3.00535e-17)
(5.43571 22.8335 1.55105e-17)
(5.79118 24.9984 6.26174e-17)
(6.22284 26.9865 -6.27832e-17)
(6.78937 29.0811 0)
(7.31826 31.5157 1.5919e-17)
(7.67962 34.2193 -3.22927e-17)
(7.73098 37.3062 -6.6106e-17)
(-13.8801 49.7787 3.3296e-17)
(5.9551 135.239 0)
(3.51559 91.1729 8.75371e-19)
(-13.283 94.0374 3.67656e-16)
(-14.1753 84.3643 -7.78322e-17)
(-14.6517 73.1458 8.72774e-17)
(-15.6565 61.0426 -1.70041e-17)
(-16.7727 49.3555 3.12787e-17)
(-16.974 39.7971 -1.55661e-17)
(-15.9027 34.0106 0)
(-14.4304 30.086 -1.44995e-17)
(-12.604 27.3734 -1.45179e-17)
(-10.603 25.2933 0)
(-8.49445 23.1201 0)
(-6.366 20.7237 8.79309e-19)
(-4.42014 18.2477 -7.77695e-18)
(-2.57283 15.8536 0)
(-1.10419 14.2058 0)
(-0.0589751 13.7603 -9.77117e-18)
(0.666544 14.2697 -6.38312e-18)
(1.03105 15.5133 1.25805e-17)
(1.29632 17.0482 3.10561e-18)
(1.70974 18.2809 7.61957e-19)
(2.32831 18.8244 3.00121e-18)
(3.08398 18.5607 -3.3377e-18)
(3.77454 17.7495 0)
(4.18813 16.795 -1.4395e-18)
(4.16809 15.6979 0)
(3.53601 14.2842 0)
(2.21682 12.6176 0)
(0.579036 11.3739 -5.41511e-18)
(-0.713008 11.0421 0)
(-1.34424 10.9742 -2.94114e-18)
(-1.34632 9.96472 4.82673e-19)
(-0.854185 7.06274 9.99502e-18)
(-0.577166 1.32213 0)
(-1.72324 -5.40366 -4.86757e-18)
(-6.1142 -12.2368 7.55466e-20)
(-23.2776 150.283 0)
(-8.62271 112.378 4.62831e-16)
(4.20243 122.549 8.21562e-16)
(13.3316 18.2273 0)
(8.5676 162.504 -2.54702e-16)
(-15.5273 108.05 9.60149e-16)
(2.584 43.5933 -3.29036e-19)
(-10.5778 49.9182 6.909e-17)
(0.193076 -13.8058 -1.5213e-19)
(-0.0712493 -8.93946 -1.2395e-18)
(0.298568 -1.82238 1.26443e-18)
(0.681371 3.61887 0)
(1.34503 4.93871 0)
(2.1622 3.75871 1.656e-19)
(2.90042 2.07978 -6.71226e-19)
(3.24707 2.58377 -2.38645e-18)
(3.05627 5.99031 1.76491e-19)
(2.71847 10.616 -3.62428e-19)
(2.55226 14.4878 -4.37712e-19)
(2.67242 16.9324 1.99734e-18)
(2.95948 18.3817 1.81372e-19)
(3.38579 19.074 -1.49462e-18)
(4.01673 18.7567 0)
(4.70533 17.7599 6.19811e-18)
(5.2541 16.7606 1.9332e-20)
(5.58069 16.3444 3.20216e-17)
(5.74031 16.5861 -2.63525e-17)
(5.76009 17.4601 0)
(5.69 18.9863 2.82701e-17)
(5.7329 20.8222 -8.79622e-17)
(5.94975 22.7889 4.52457e-17)
(6.456 24.6842 6.0801e-17)
(7.19818 26.6059 -8.24777e-20)
(7.99223 28.7835 -6.1814e-17)
(8.87705 31.2894 6.24516e-17)
(9.66583 34.1529 6.34574e-17)
(10.1413 37.5027 -6.41307e-17)
(7.44771 40.8282 -1.33097e-16)
(0.951877 115.094 -4.61369e-19)
(-22.603 82.5659 4.23385e-19)
(-17.7961 91.8464 -6.4794e-17)
(-17.921 82.5316 -8.48326e-18)
(-18.0597 71.8835 -2.4885e-17)
(-18.7712 60.0995 -7.95609e-18)
(-19.6804 48.3613 0)
(-20.0451 38.6113 1.52786e-17)
(-19.3005 32.1438 -7.43063e-18)
(-17.5218 27.9966 -7.3033e-18)
(-15.493 25.229 3.66434e-18)
(-13.2182 23.1011 3.61002e-18)
(-10.8595 20.9766 7.12717e-18)
(-8.53446 18.7229 0)
(-6.42681 16.3891 6.85551e-18)
(-4.50944 14.2615 -6.6782e-18)
(-3.09284 13.0247 -1.0402e-19)
(-2.03733 12.8803 -1.96156e-17)
(-1.2491 13.6618 1.59747e-18)
(-0.695319 15.0754 -7.89499e-18)
(-0.105135 16.5235 0)
(0.669253 17.5557 -2.48038e-18)
(1.65693 17.9256 1.93334e-19)
(2.73366 17.6497 3.3486e-18)
(3.61684 17.0823 0)
(4.06169 16.574 0)
(3.95957 16.0705 -8.88957e-20)
(3.19472 15.3788 -2.7017e-18)
(1.82426 14.2987 2.74894e-18)
(0.0674499 13.0299 3.40828e-18)
(-1.37797 12.1203 -6.66234e-19)
(-1.90639 11.3302 1.97027e-18)
(-1.59717 9.66007 -6.60204e-19)
(-0.696769 6.72936 -5.1195e-18)
(-0.389305 2.16121 4.95282e-18)
(-2.24595 -1.36686 1.10373e-17)
(-7.42535 -8.28179 4.74511e-18)
(-10.9667 -3.18988 0)
(-8.27211 -8.4607 -2.45394e-18)
(-5.63923 -12.7927 8.93088e-22)
(-4.08104 -15.4176 2.66333e-18)
(-3.39584 -16.5337 8.83791e-19)
(-2.98737 -15.6397 -1.19843e-18)
(-2.6801 -14.2628 2.3781e-18)
(-1.71424 -12.7606 -2.40078e-18)
(0.174669 -12.2386 -1.19493e-18)
(1.47653 140.964 -3.09192e-16)
(-15.4112 181.099 -7.90558e-17)
(-49.2995 62.8556 -1.61431e-16)
(-10.9861 116.431 -4.70423e-16)
(-1.62779 129.567 -2.44939e-16)
(11.6286 72.9335 9.71022e-17)
(10.1591 41.2053 0)
(6.89438 44.782 2.69109e-16)
(0.139827 120.134 7.06288e-16)
(-7.03375 120.32 2.85538e-16)
(3.96093 132.085 -2.94517e-16)
(-0.179222 86.1872 5.92203e-16)
(-20.8625 86.8555 0)
(-21.3837 78.5162 8.34615e-18)
(-21.6042 68.5398 -2.05436e-18)
(-21.8806 57.5122 -3.76671e-17)
(-22.274 46.4275 7.662e-18)
(-22.4399 36.9454 0)
(-21.7647 30.1257 3.20772e-20)
(-20.0834 25.6999 -1.83154e-18)
(-17.8637 22.8437 0)
(-15.4138 20.6527 -3.57881e-18)
(-12.9173 18.5932 -3.51271e-18)
(-10.5397 16.4982 0)
(-8.33276 14.3976 8.58246e-19)
(-6.48565 12.6744 -8.76601e-19)
(-5.11435 11.8507 8.30503e-19)
(-4.02162 11.9889 1.22738e-17)
(-3.17305 12.9603 0)
(-2.36627 14.3576 1.58496e-18)
(-1.41373 15.6283 -7.80973e-19)
(-0.251012 16.4364 1.92022e-19)
(1.08945 16.6649 5.69736e-19)
(2.38817 16.5043 -3.36553e-18)
(3.34415 16.3479 0)
(3.75756 16.4237 7.22721e-19)
(3.5394 16.6085 1.41959e-18)
(2.64222 16.5524 1.41344e-18)
(1.21339 15.9871 -2.34333e-20)
(-0.511249 14.869 -6.83029e-19)
(-2.13533 13.3161 -2.00363e-18)
(-2.76868 11.4995 -1.32711e-18)
(-2.29164 9.00175 -1.30983e-18)
(-1.13527 6.11714 0)
(-0.560152 3.20366 -5.03517e-18)
(-2.28196 2.40123 -4.97884e-18)
(-6.46286 -3.06424 -3.68236e-18)
(-12.5718 1.96511 -6.43089e-18)
(-14.9403 -11.986 2.90376e-18)
(-16.2387 -13.3159 -2.32098e-18)
(-13.8911 -13.37 0)
(-10.0844 -14.2049 1.19139e-18)
(-6.93013 -15.2407 1.18163e-18)
(-3.90265 -15.6073 -2.32198e-18)
(-1.59156 -14.3765 2.34207e-18)
(-0.646337 -13.2332 2.97771e-22)
(0.0470163 -12.2282 -1.18146e-18)
(1.12772 -12.1516 3.52793e-18)
(3.71003 -12.72 -3.54278e-18)
(3.2505 -12.406 6.02719e-19)
(3.3239 -13.7423 -4.54528e-19)
(2.78413 -8.64967 9.22057e-19)
(2.41083 -1.72753 -3.15775e-18)
(2.2928 3.44856 1.21952e-18)
(2.53355 4.50411 0)
(2.99134 3.31533 1.6579e-19)
(3.2242 1.9404 2.35852e-18)
(2.93532 2.93547 -3.43904e-19)
(2.20936 6.60429 8.66547e-19)
(1.54088 11.0834 -2.47079e-21)
(1.27392 14.5814 3.61102e-19)
(1.47157 16.7037 -1.82557e-19)
(1.86216 17.9551 1.29616e-18)
(2.49369 18.4317 -4.51562e-18)
(3.37828 17.9685 -2.10921e-20)
(4.33743 17.0358 3.0883e-18)
(5.14048 16.2568 -3.15506e-18)
(5.66709 16.1114 -2.57603e-17)
(5.98458 16.5592 2.63207e-17)
(6.08924 17.5718 0)
(6.0903 19.1175 -5.57328e-17)
(6.17441 20.7998 4.27739e-17)
(6.46722 22.5626 -4.4031e-17)
(7.03199 24.2137 0)
(7.85429 25.9769 0)
(8.85981 28.0465 0)
(10.0183 30.5213 -7.65164e-18)
(11.1903 33.473 8.10757e-20)
(12.1871 36.8673 1.24632e-16)
(4.44986 116.452 -3.16298e-16)
(9.48155 45.1363 1.34933e-16)
(5.4707 49.1267 -1.27988e-16)
(-12.9624 60.9075 1.65141e-17)
(-1.74955 123.391 3.42311e-16)
(-8.4663 122.381 2.84255e-16)
(-12.7224 117.204 -4.27518e-19)
(-16.361 109.551 -2.94402e-16)
(-22.4861 70.185 -2.05468e-16)
(-20.1504 94.3123 -2.01173e-16)
(-23.2006 85.1101 7.24148e-17)
(-24.2145 78.685 -1.63776e-17)
(-24.7724 71.3209 -3.2376e-17)
(-24.797 62.6944 0)
(-24.5275 53.1194 3.14943e-17)
(-24.3226 43.3441 0)
(-24.0806 34.6348 0)
(-23.3207 27.9577 7.45321e-18)
(-21.7883 23.3068 1.83337e-18)
(-19.5631 20.3025 0)
(-17.0735 18.1335 3.57259e-18)
(-14.5702 16.1734 1.47297e-21)
(-12.2212 14.2307 1.16451e-20)
(-10.0923 12.4361 3.43531e-18)
(-8.38092 11.1613 3.78139e-18)
(-7.0277 10.6695 -3.752e-18)
(-5.89581 11.0275 -6.75362e-18)
(-4.87639 12.0632 2.02616e-19)
(-3.75391 13.3181 -1.1885e-18)
(-2.4486 14.3613 3.94125e-19)
(-0.955185 14.9725 1.5459e-18)
(0.603617 15.1887 -1.14299e-18)
(1.96129 15.2978 1.4984e-18)
(2.85833 15.6434 -4.88154e-21)
(3.19114 16.3451 -3.63731e-18)
(2.89783 17.2304 1.4396e-18)
(1.94102 17.8451 1.4077e-18)
(0.455958 17.6451 -2.09495e-18)
(-1.15076 16.6389 2.72137e-18)
(-2.77167 14.6696 2.69966e-18)
(-3.72474 11.7621 0)
(-3.41619 8.2761 7.81839e-18)
(-2.21523 5.23808 1.28289e-18)
(-1.29415 3.60749 1.24837e-18)
(-1.83973 4.97911 0)
(-5.00164 2.61927 0)
(-10.4419 5.81416 3.69116e-18)
(-12.1908 -8.817 5.11569e-20)
(-16.8751 -1.83211 -5.34077e-19)
(-16.3158 3.04116 5.66204e-19)
(-12.4457 10.3429 0)
(-9.66589 13.1757 0)
(-9.03938 13.9775 -5.79342e-19)
(-6.37815 12.9291 1.71127e-18)
(-2.27443 7.68243 0)
(0.28669 3.20315 -1.14664e-18)
(0.265856 1.47049 -1.14611e-18)
(0.492188 3.25164 2.24176e-18)
(1.56711 3.33168 -1.14545e-18)
(3.75412 2.00927 3.45887e-18)
(5.99242 2.1409 5.16997e-19)
(7.21301 -12.8805 5.92854e-19)
(7.00525 -12.1892 1.20187e-18)
(6.73298 -13.275 0)
(5.49567 -7.65131 -4.69875e-19)
(4.09133 -0.926911 -1.22084e-19)
(3.3886 3.78817 7.24138e-19)
(3.16303 4.49123 -1.64576e-19)
(3.21365 3.32468 -3.31869e-19)
(2.98884 2.35988 -2.70573e-18)
(2.19093 3.82678 6.82304e-19)
(1.09052 7.5809 -1.75077e-18)
(0.279179 11.6936 8.92578e-19)
(0.0259921 14.646 -3.61066e-19)
(0.319779 16.3788 0)
(0.80594 17.3708 0)
(1.67346 17.5442 0)
(2.82951 16.9262 -1.52953e-18)
(4.03052 16.0655 0)
(5.07443 15.5336 -1.03276e-20)
(5.78338 15.6801 1.28529e-17)
(6.25928 16.384 -6.55358e-18)
(6.42773 17.5945 1.3449e-17)
(6.46862 19.1738 4.13829e-17)
(6.58926 20.7139 -2.20917e-20)
(6.89491 22.2146 -1.4365e-17)
(7.46364 23.567 -2.90035e-17)
(8.35388 25.0843 5.83195e-17)
(9.46984 26.9814 -2.96944e-17)
(10.7786 29.3379 5.33528e-21)
(12.2027 32.2051 1.51771e-17)
(13.6584 35.4663 -3.20362e-20)
(12.822 40.5026 -1.92226e-16)
(4.14992 119.819 -3.27829e-16)
(7.17335 117.863 6.20406e-16)
(72.1197 99.7222 0)
(12.9129 44.6152 -1.32545e-16)
(-20.5277 96.1771 5.3208e-16)
(-16.8136 105.2 -2.85635e-16)
(-13.4113 115.987 -5.54618e-16)
(2.25373 54.6398 -4.29886e-17)
(-11.2383 84.1639 -4.27017e-17)
(-11.0007 60.3443 -1.64892e-17)
(8.00102 49.6351 -5.07612e-19)
(-3.69935 124.894 -3.35321e-16)
(-8.9329 122.575 2.75367e-16)
(-8.44973 -23.0498 -5.61549e-19)
(-3.84903 -18.4597 -5.65377e-19)
(-5.5806 -11.9324 0)
(-9.13242 1.6298 -5.56576e-19)
(-10.4955 3.51801 5.64595e-19)
(-11.7858 -4.62934 -5.47329e-19)
(-11.0092 -20.1671 5.32759e-19)
(-6.23972 -24.6248 1.13144e-18)
(0.0815745 -26.4626 -1.12467e-18)
(4.08322 -28.4293 2.29128e-18)
(4.01092 -29.9818 -3.50002e-18)
(4.68944 -31.3143 0)
(5.48189 -30.1952 4.46195e-20)
(6.51555 -25.8311 0)
(8.26943 4.34985 -3.48847e-18)
(10.6065 -12.4901 1.1842e-18)
(10.7151 -11.2143 0)
(9.86442 -11.9506 0)
(7.52455 -5.50012 3.14562e-19)
(4.98413 0.799072 -4.00178e-20)
(3.68874 4.72184 0)
(3.05149 4.93227 -1.62642e-19)
(2.77504 3.76281 1.66352e-19)
(2.21847 3.20818 6.81842e-19)
(1.12688 5.04849 3.42776e-19)
(-0.113676 8.69736 6.95404e-19)
(-0.882792 12.2748 -9.87736e-21)
(-0.993408 14.6159 -1.44533e-18)
(-0.62908 15.9583 3.6686e-19)
(0.0012911 16.6078 1.48923e-18)
(1.09786 16.407 3.85524e-19)
(2.47206 15.6573 -7.59684e-19)
(3.85719 14.8884 1.55938e-18)
(5.04498 14.6409 -4.73155e-18)
(5.90311 15.0981 -6.42106e-18)
(6.49684 16.0986 3.2612e-18)
(6.71269 17.5467 -6.66647e-18)
(6.80868 19.1447 0)
(6.95513 20.5648 -2.08561e-17)
(7.27299 21.8292 4.27249e-17)
(7.81064 22.8733 0)
(8.65347 24.1109 0)
(9.74685 25.7507 0)
(11.0682 27.8533 1.10368e-17)
(12.6488 30.3772 2.19033e-20)
(14.506 33.1429 2.28977e-19)
(14.9269 38.8897 -1.23707e-16)
(6.74703 95.8813 -3.15892e-16)
(2.59714 122.337 1.83694e-18)
(17.1212 8.01138 2.51474e-16)
(11.998 170.276 0)
(-26.8708 69.6149 -1.56878e-17)
(-27.4213 63.0874 0)
(-27.0391 55.93 0)
(-26.2711 47.8469 7.83019e-18)
(-25.5347 39.5011 -1.52031e-17)
(-24.8533 31.8302 0)
(-23.8799 25.6523 7.41327e-18)
(-22.4208 20.9756 0)
(-20.4194 17.8116 -1.80632e-18)
(-18.0843 15.6258 1.78406e-18)
(-15.7153 13.8008 -8.80986e-18)
(-13.5104 12.1022 6.67198e-21)
(-11.6137 10.6642 -3.41719e-18)
(-10.0526 9.73438 6.75976e-18)
(-8.70369 9.48416 4.98499e-18)
(-7.47029 9.94011 -4.93652e-18)
(-6.20813 10.8891 0)
(-4.7832 11.9472 -5.62618e-21)
(-3.18314 12.797 -2.36614e-18)
(-1.50354 13.3033 0)
(0.0876106 13.6448 0)
(1.35023 14.1534 7.53955e-19)
(2.09334 15.0482 2.22424e-18)
(2.31927 16.351 -1.45394e-18)
(2.00638 17.8713 1.44249e-18)
(1.1731 19.082 -2.82765e-18)
(-0.128788 19.2364 -6.99234e-19)
(-1.60459 18.3295 -5.50881e-18)
(-3.12029 16.1557 2.68442e-18)
(-4.4259 12.3954 0)
(-4.73694 7.76216 -5.20826e-18)
(-3.94889 4.20491 -2.55242e-18)
(-2.82841 3.07719 0)
(-2.31884 6.41776 2.48334e-18)
(-4.25377 5.89891 -4.90823e-21)
(-6.76934 9.01032 3.57368e-18)
(-9.63859 -4.66612 3.46703e-18)
(-14.3385 -2.11957 0)
(-10.8327 -27.408 -1.13386e-18)
(9.56835 119.263 -3.10009e-16)
(6.55256 120.797 -6.31538e-16)
(-9.44922 144.254 1.21203e-16)
(6.77134 55.3734 -1.20235e-16)
(-3.3207 127.796 5.62723e-16)
(12.3638 49.3938 -5.96153e-19)
(7.83411 -19.8953 5.99382e-19)
(10.5123 6.51751 2.94227e-18)
(13.5659 -12.2399 -2.3726e-18)
(13.8316 -9.74805 0)
(11.8499 -9.56709 0)
(8.18733 -2.06721 0)
(4.80729 3.29554 0)
(3.19571 6.07903 6.46887e-19)
(2.35778 5.6494 -3.28925e-19)
(1.92767 4.4059 1.65345e-19)
(1.17947 4.23587 -1.01497e-18)
(-0.0721095 6.3611 6.91342e-19)
(-1.27992 9.74184 3.48539e-19)
(-1.88974 12.6667 -5.37115e-19)
(-1.77377 14.4399 0)
(-1.32382 15.4068 -3.74396e-22)
(-0.468805 15.6468 -3.71649e-19)
(0.826407 15.0915 3.77733e-19)
(2.32892 14.2303 7.66174e-19)
(3.81015 13.5877 -8.7515e-19)
(5.04184 13.624 8.8833e-19)
(6.00936 14.3865 -2.40209e-18)
(6.64861 15.7297 -4.88602e-18)
(6.92374 17.4172 3.32631e-18)
(7.08812 19.0314 0)
(7.27861 20.3505 8.21719e-21)
(7.56704 21.4245 -2.10933e-17)
(8.0245 22.2501 1.77442e-17)
(8.71953 23.2249 -3.59545e-18)
(9.66397 24.5294 0)
(10.8677 26.2255 -3.64053e-18)
(12.4082 28.1762 5.07603e-17)
(14.438 30.2184 -2.86815e-17)
(16.3616 35.9394 1.17342e-16)
(7.43922 89.0741 6.41008e-16)
(0.845904 126.124 1.4985e-18)
(-9.05714 -0.463503 -2.68872e-19)
(-5.63095 -2.53612 1.64001e-18)
(-2.5999 6.00062 2.70587e-19)
(5.47473 19.5787 0)
(3.01689 25.0743 -5.48004e-19)
(-16.1425 30.5725 5.51769e-19)
(-26.0207 32.6922 -8.23305e-19)
(-17.8874 30.4604 -1.98017e-18)
(-4.42999 23.196 2.16696e-18)
(-1.23846 21.009 0)
(0.857077 24.0146 -1.02831e-18)
(2.97568 25.0795 3.252e-18)
(5.13616 23.6853 -2.22628e-18)
(6.24685 25.2074 -1.02573e-18)
(8.03942 26.8039 1.69996e-18)
(10.1739 29.3292 -2.25449e-18)
(10.1371 100.146 6.14701e-16)
(-7.53051 121.574 -2.62621e-16)
(-12.8358 110.254 2.63522e-16)
(-16.8064 97.6203 5.22295e-16)
(-19.7576 84.6753 2.45756e-16)
(0.715593 77.2977 4.20837e-18)
(8.22499 74.8632 1.83332e-16)
(-4.46297 6.33021 0)
(17.1693 15.4478 0)
(-28.0695 57.6787 0)
(-28.5613 53.2581 3.92049e-18)
(-28.2302 47.9343 -7.86553e-18)
(-27.1456 41.6229 -1.16645e-19)
(-25.9225 34.9624 2.29294e-17)
(-24.7844 28.5949 -1.50658e-17)
(-23.5402 23.0919 -7.46126e-20)
(-22.0871 18.6453 7.34617e-18)
(-20.3168 15.4762 -1.26352e-17)
(-18.3037 13.3046 1.75679e-18)
(-16.2404 11.6292 7.02503e-18)
(-14.3379 10.2132 -1.73881e-18)
(-12.689 9.08996 1.70989e-18)
(-11.2609 8.38946 -5.06987e-18)
(-9.9313 8.23672 1.66809e-18)
(-8.58633 8.66376 4.91822e-18)
(-7.09012 9.46302 -3.24124e-18)
(-5.41179 10.3307 3.20219e-18)
(-3.63913 11.0588 1.18106e-18)
(-1.94784 11.6212 2.7115e-18)
(-0.52859 12.2267 -3.45535e-18)
(0.488886 13.184 2.25238e-18)
(1.0534 14.5858 -4.10293e-18)
(1.20988 16.3701 -2.91333e-18)
(0.999742 18.3683 2.89946e-18)
(0.452014 20.0338 1.42166e-18)
(-0.473748 20.5276 -1.3927e-18)
(-1.66086 19.7859 0)
(-3.00366 17.693 -2.69826e-18)
(-4.57774 13.5887 1.34849e-18)
(-5.79828 8.0238 -2.60833e-18)
(-6.03004 3.60326 -3.87298e-18)
(-5.27334 2.26174 -2.50586e-18)
(-4.34644 6.71782 -4.92973e-18)
(-4.64644 7.46403 1.21324e-18)
(-5.21737 11.4721 -1.18796e-18)
(-7.42232 -0.318762 -2.36404e-18)
(-10.7626 -0.828797 0)
(-8.66856 -27.9739 0)
(-12.0828 -2.41339 0)
(-9.66563 151.507 0)
(15.7341 42.7397 7.57677e-20)
(7.1651 60.8391 6.58167e-16)
(11.4691 121.257 3.06355e-16)
(5.56275 123.269 3.17348e-16)
(8.86677 121.269 6.21971e-16)
(4.14152 82.7867 -3.08786e-16)
(-16.7714 147.137 -1.0325e-16)
(-30.5982 159.221 0)
(1.08349 69.339 -3.47451e-16)
(11.5119 54.8171 -1.40384e-16)
(16.9605 31.94 -5.19805e-17)
(-2.55346 71.3239 -9.15527e-16)
(0.196515 158.98 3.28381e-16)
(17.8235 2.71564 2.52229e-16)
(-19.1065 170.506 -5.50612e-17)
(11.4831 28.9254 -1.11546e-18)
(9.87658 -16.8863 -2.97054e-19)
(13.6253 6.15448 -8.72238e-19)
(16.8041 -12.8507 -1.01969e-20)
(16.1554 -7.74304 0)
(12.0351 -5.77307 0)
(7.42405 2.25778 0)
(3.88353 6.11366 -1.58591e-19)
(2.306 7.51481 -2.01364e-19)
(1.51848 6.43116 2.05307e-19)
(1.04012 5.15543 -1.68832e-19)
(0.100169 5.37435 4.26645e-19)
(-1.25057 7.63205 -5.19936e-19)
(-2.3454 10.5899 0)
(-2.71077 12.8039 0)
(-2.39462 14.0565 0)
(-1.76689 14.6486 0)
(-0.646376 14.453 0)
(0.824088 13.628 0)
(2.38233 12.724 -1.91827e-19)
(3.84553 12.2474 7.77531e-19)
(5.06273 12.5373 0)
(6.04902 13.6023 -2.00023e-18)
(6.65177 15.299 3.66094e-18)
(6.98428 17.1932 3.30591e-18)
(7.23478 18.8261 0)
(7.4932 20.1047 1.02832e-17)
(7.78023 21.0484 -1.04503e-17)
(8.13902 21.688 -3.51076e-18)
(8.61513 22.4323 7.12707e-18)
(9.25233 23.4188 -1.078e-17)
(10.2136 24.6134 5.44542e-18)
(11.7435 25.7882 -1.44187e-17)
(13.8488 26.9615 3.60499e-18)
(15.9617 28.0895 1.11914e-16)
(10.7768 93.7913 3.44837e-16)
(-0.758377 117.791 5.01702e-16)
(6.51908 131.451 2.46882e-16)
(-5.56881 -37.2752 0)
(-12.0193 -34.4688 -3.42734e-21)
(-2.37972 -26.0965 -5.54015e-19)
(15.4619 -29.277 -2.73359e-19)
(10.7954 -30.5321 -6.65429e-20)
(1.50969 0.118405 6.83198e-20)
(-2.14472 5.84226 0)
(-1.44575 -5.02485 0)
(-4.73545 -34.3697 8.83296e-19)
(-8.3568 -34.9098 -2.17121e-18)
(0.569034 -36.3714 2.77507e-18)
(7.14526 -40.7699 0)
(9.10779 -44.7422 -2.16538e-18)
(6.97241 -51.9137 2.19171e-18)
(-5.68327 -52.716 6.30032e-19)
(-14.3153 -46.8084 6.07403e-19)
(-11.5328 -32.7655 0)
(-1.18313 -29.9859 0)
(-7.63996 85.5923 0)
(-8.31531 114.605 2.55885e-16)
(-12.48 99.9013 0)
(-15.2348 84.7651 -5.19745e-16)
(-17.2135 70.6092 2.57709e-16)
(-19.7258 57.9748 4.63589e-16)
(9.51539 163.602 -8.21222e-17)
(6.06462 132.231 3.01992e-16)
(-26.3359 46.3947 8.74513e-18)
(-27.7039 45.0547 -6.432e-17)
(-28.2215 42.5977 2.79237e-17)
(-27.9371 39.4011 -3.11763e-17)
(-26.6241 35.0482 -1.36457e-17)
(-25.1599 30.1461 1.89693e-17)
(-23.7587 25.0879 3.82579e-18)
(-22.353 20.3614 -1.85469e-17)
(-20.9079 16.3379 1.09396e-17)
(-19.3398 13.3482 0)
(-17.6852 11.2973 -8.92714e-18)
(-16.0448 9.79403 5.25969e-18)
(-14.5346 8.60746 8.67974e-18)
(-13.19 7.68729 1.71066e-18)
(-11.9339 7.09806 -6.76924e-18)
(-10.6314 6.93625 -3.33738e-18)
(-9.14734 7.20552 0)
(-7.42603 7.77914 0)
(-5.57787 8.51904 -7.98324e-19)
(-3.80453 9.29938 -3.93645e-19)
(-2.29966 10.1076 3.88164e-18)
(-1.19412 11.0913 7.44297e-19)
(-0.495175 12.4464 -2.65941e-18)
(-0.102846 14.2166 8.36047e-23)
(0.044735 16.3224 0)
(0.0297541 18.5891 0)
(-0.115318 20.5521 -2.84084e-18)
(-0.54911 21.3849 4.19345e-18)
(-1.38719 20.9223 -1.37e-18)
(-2.52109 19.1931 -2.06884e-20)
(-4.24488 15.3575 1.28456e-18)
(-6.35494 9.43038 1.29046e-18)
(-7.98173 3.9916 7.70925e-18)
(-8.19866 1.75703 0)
(-7.47779 6.20706 3.68814e-18)
(-6.21511 7.38353 -3.66847e-18)
(-5.8238 12.5832 2.41836e-18)
(-6.47683 2.13041 -2.3091e-18)
(-8.51817 -0.579285 2.2938e-18)
(-6.14622 -25.2344 0)
(-12.8732 -5.99049 0)
(3.50475 -36.2155 -1.13506e-18)
(13.3772 103.116 6.03757e-16)
(17.9754 39.2093 -1.20661e-16)
(2.86795 133.247 -2.58209e-16)
(15.6696 117.969 5.93722e-16)
(14.3495 121.67 -1.37292e-19)
(12.83 124.45 6.1852e-16)
(15.7242 47.2509 1.34107e-16)
(4.24062 127.503 -6.56507e-16)
(10.3047 122.691 0)
(7.63474 123.129 0)
(-23.8668 176.547 -5.94184e-17)
(8.94653 112.986 -3.10612e-16)
(7.1104 177.659 2.33694e-17)
(1.07425 58.2665 -5.45267e-16)
(16.4597 21.9505 -6.0654e-17)
(11.3665 84.8263 -3.76173e-16)
(-3.6876 143.947 0)
(-4.32597 150.722 -5.32982e-17)
(13.8108 23.297 0)
(11.7432 23.7864 1.85142e-18)
(10.1551 23.7623 3.64932e-18)
(9.10743 23.3221 1.35597e-18)
(8.55814 22.5497 2.23471e-19)
(8.28871 21.7836 0)
(8.05658 21.1914 4.36933e-18)
(7.78186 20.6312 -4.32057e-18)
(7.49399 19.744 1.6984e-18)
(7.17447 18.4748 -3.34254e-18)
(6.84903 16.8075 8.22123e-19)
(6.4814 14.77 0)
(5.96344 12.7709 1.60158e-18)
(5.0914 11.3867 -7.89449e-19)
(3.93856 10.8598 7.75161e-19)
(2.54963 11.1522 -1.34216e-18)
(0.981157 11.9987 1.53642e-18)
(-0.620128 12.9693 -5.283e-21)
(-2.00706 13.5609 -7.82999e-19)
(-2.89443 13.4117 3.62613e-19)
(-3.31075 12.6602 -4.00758e-19)
(-3.181 11.1753 0)
(-2.19888 8.83892 1.73841e-19)
(-0.73743 6.62283 -8.55792e-20)
(0.456893 5.96877 -3.34423e-19)
(0.990513 7.09123 2.85996e-19)
(1.50285 8.69993 4.07607e-20)
(2.61872 8.65222 -1.58428e-19)
(5.52208 6.61914 0)
(9.94028 -0.356596 0)
(16.2101 -3.66406 -6.02067e-19)
(18.8575 -13.0825 3.23498e-18)
(17.0439 3.56621 -5.69486e-19)
(12.1049 -16.7906 0)
(14.4292 25.3154 2.14907e-18)
(6.6241 -37.6608 -7.78207e-20)
(-9.2168 157.5 2.78075e-16)
(-13.1892 34.3478 1.00809e-18)
(-12.2279 41.9644 0)
(-2.40107 33.8947 -2.72045e-19)
(4.39847 6.50754 2.94437e-19)
(2.9023 20.4654 6.49837e-19)
(19.1778 46.7511 -5.27579e-19)
(17.0812 51.1705 1.22167e-19)
(-17.9182 60.0608 2.41705e-19)
(-34.0629 64.2107 1.91102e-18)
(-27.5813 49.7391 -2.55748e-18)
(-13.5199 25.7811 -2.12895e-18)
(-7.54333 21.6672 2.10686e-18)
(-3.73246 27.5396 -2.38374e-19)
(-0.214314 33.2921 4.71297e-19)
(1.49688 48.2796 -2.13131e-18)
(0.367616 57.8616 -4.46047e-19)
(-1.11288 43.2937 2.15926e-18)
(8.25546 29.9301 0)
(3.03185 32.0527 9.34311e-19)
(14.7499 40.16 -4.60949e-19)
(14.0312 95.7886 3.1413e-16)
(19.4481 33.924 -1.05575e-16)
(16.7697 111.54 -2.97093e-16)
(-21.6697 142.022 0)
(-15.938 139.4 0)
(-8.95762 136.746 -9.98966e-17)
(-2.74921 136.762 -2.54164e-17)
(3.99966 138.497 -3.12853e-17)
(2.55392 145.947 -7.59367e-17)
(1.58218 152.664 1.04451e-16)
(-0.418025 158.019 5.62802e-17)
(15.0218 8.13896 0)
(-12.051 164.221 -5.5183e-17)
(9.19725 89.6399 3.91963e-18)
(0.625587 62.9375 2.78201e-16)
(4.73281 95.7015 -2.66515e-16)
(16.6447 118.245 -3.02254e-16)
(14.9825 124.821 0)
(12.7508 129.053 0)
(15.1935 52.31 2.82923e-16)
(16.4111 104.324 5.93527e-16)
(-24.458 161.527 -7.58079e-17)
(-7.16827 100.649 2.54356e-16)
(-10.2919 82.5568 -2.63107e-16)
(-11.4605 66.7645 0)
(-12.1473 54.0589 -5.44625e-16)
(-13.5886 44.083 2.7079e-16)
(-20.1073 44.9173 -3.59039e-16)
(-7.26224 15.0263 -2.22819e-16)
(-21.6218 33.0236 6.88394e-17)
(-24.1586 33.8783 -7.55773e-17)
(-25.6697 33.8842 3.30343e-17)
(-26.1593 33.0238 -3.19876e-17)
(-25.9054 31.5113 0)
(-24.7366 28.9941 -1.94056e-18)
(-23.2576 25.5681 -2.87491e-18)
(-21.7993 21.6509 1.13652e-17)
(-20.3758 17.7233 3.82019e-18)
(-19.0018 14.2008 -1.83117e-17)
(-17.6607 11.5011 7.19282e-18)
(-16.3644 9.65388 8.92935e-18)
(-15.169 8.33068 -7.02238e-18)
(-14.0874 7.30365 4.34222e-18)
(-13.0622 6.46964 -4.28535e-18)
(-11.9567 5.82167 -1.68926e-18)
(-10.6235 5.4453 5.01138e-18)
(-8.98378 5.44191 8.24921e-19)
(-7.13562 5.85017 3.24052e-18)
(-5.30182 6.62588 -3.21408e-18)
(-3.73482 7.65725 0)
(-2.57917 8.85524 -7.78868e-19)
(-1.83939 10.2396 -3.83922e-19)
(-1.41817 11.9024 -3.76967e-18)
(-1.17624 13.8721 3.37329e-18)
(-0.985664 16.097 -3.67537e-19)
(-0.754636 18.4262 2.88175e-18)
(-0.499908 20.5319 -5.35142e-18)
(-0.44056 21.7376 2.8021e-18)
(-0.946531 21.7264 1.37458e-18)
(-1.85526 20.5806 6.75102e-19)
(-3.57356 17.5572 -1.37913e-18)
(-6.28862 12.0017 3.88769e-18)
(-9.36326 5.75955 -3.85798e-18)
(-10.9354 2.12396 -1.26375e-18)
(-10.8052 5.34113 -3.73548e-18)
(-8.27339 6.49412 4.84655e-18)
(-7.41826 12.8129 -3.59792e-18)
(-6.1942 3.68021 2.40729e-18)
(-8.03186 -0.564815 -4.56603e-18)
(-6.17188 -20.8522 0)
(-12.121 -12.6219 2.15313e-18)
(-1.85766 -28.9865 -1.09922e-18)
(-15.2664 3.87511 -1.02954e-18)
(10.9597 123.586 -7.04371e-16)
(13.1663 105.072 3.22238e-16)
(13.157 85.9917 -3.22598e-16)
(-9.70492 180.718 1.64559e-16)
(8.04301 68.6767 -3.32856e-16)
(18.8405 43.3803 0)
(6.60436 176.293 -8.99836e-17)
(7.27603 52.1437 -3.53106e-16)
(-15.2737 173.671 2.53346e-16)
(8.80809 124.15 9.17602e-16)