/*--------------------------------*- C++ -*----------------------------------*\
| =========                 |                                                 |
| \\      /  F ield         | OpenFOAM: The Open Source CFD Toolbox           |
|  \\    /   O peration     | Version:  2212                                  |
|   \\  /    A nd           | Website:  www.openfoam.com                      |
|    \\/     M anipulation  |                                                 |
\*---------------------------------------------------------------------------*/
FoamFile
{
    version     2.0;
    format      ascii;
    arch        "LSB;label=32;scalar=64";
    class       volScalarField;
    location    "0.0464";
    object      T;
}
// * * * * * * * * * * * * * * * * * * * * * * * * * * * * * * * * * * * * * //

dimensions      [0 0 0 1 0 0 0];

internalField   nonuniform List<scalar> 
2308
(
268.238
267.522
270.491
266.613
267.254
266.966
266.839
267.114
267.36
265.206
265.332
265.511
265.638
265.766
265.891
266.015
266.134
266.238
266.125
266.006
265.881
265.752
265.62
265.483
265.346
265.209
265.074
264.939
266.86
266.251
264.797
264.66
264.523
264.388
264.253
264.118
263.983
263.848
263.712
263.577
263.44
263.304
263.167
263.03
262.892
262.891
263.028
263.166
263.302
263.439
263.575
263.711
263.846
263.981
264.116
264.251
264.386
264.521
264.657
264.794
264.934
265.064
265.192
265.314
265.43
265.543
265.661
265.784
265.908
266.03
266.152
262.754
262.753
266.138
266.008
265.877
265.745
265.611
265.476
265.341
265.204
265.067
264.933
264.796
264.66
264.524
264.389
264.254
264.119
263.984
263.849
263.714
263.578
263.442
263.306
263.169
263.032
262.894
266.348
262.756
266.363
266.271
262.751
262.889
263.027
263.164
263.301
263.437
263.574
263.71
263.845
263.98
264.115
264.25
264.384
264.519
264.654
264.788
264.922
265.052
265.183
265.31
265.434
265.556
265.678
265.801
265.925
266.049
266.171
267.207
266.919
266.809
266.876
266.293
266.152
266.012
265.876
265.741
265.606
265.472
265.337
265.201
265.064
264.93
264.795
264.66
264.525
264.39
264.255
264.12
263.986
263.85
263.715
263.579
263.443
263.307
263.17
263.033
262.896
262.758
262.62
262.618
262.616
262.614
267.188
262.613
267.3
267.348
266.388
267.497
267.163
266.468
266.294
262.481
262.478
262.476
262.475
262.474
262.473
262.612
262.751
262.888
263.026
263.163
263.3
263.436
263.572
263.708
263.844
263.979
264.114
264.249
264.383
264.517
264.651
264.785
264.917
265.047
265.178
265.307
265.437
265.565
265.691
265.817
265.942
266.067
266.191
266.57
268.44
267.155
267.091
266.956
266.827
266.694
266.559
266.423
266.285
266.149
266.011
265.875
265.739
265.604
265.469
265.334
265.198
265.062
264.928
264.794
264.659
264.525
264.391
264.256
264.121
263.987
263.851
263.716
263.58
263.444
263.308
263.172
263.035
262.898
262.76
262.622
262.483
271.553
267.414
268.636
266.483
269.921
267.416
266.416
266.581
262.474
262.612
262.751
262.888
263.026
263.162
263.299
263.436
263.572
263.708
263.843
263.978
264.113
264.248
264.382
264.516
264.65
264.782
264.914
265.044
265.175
265.306
265.438
265.57
265.7
265.829
265.957
266.083
266.209
266.315
267.578
267.355
267.097
266.953
266.819
266.685
266.55
266.415
266.279
266.143
266.008
265.872
265.737
265.601
265.466
265.331
265.196
265.061
264.926
264.792
264.659
264.525
264.391
264.257
264.122
263.987
263.852
263.717
263.581
263.445
263.309
263.173
263.036
262.899
262.762
262.624
262.485
262.346
262.343
262.341
262.338
262.336
262.335
262.334
262.334
262.334
268.843
270.319
273.027
267.528
268.122
273.084
266.333
266.439
267.684
267.652
268.194
267.063
267.081
266.946
266.811
266.676
266.542
266.407
266.273
266.138
266.003
265.868
265.734
265.599
265.464
265.329
265.194
265.06
264.926
264.792
264.658
264.525
264.391
264.256
264.122
263.987
263.852
263.717
263.582
263.446
263.31
263.174
263.038
262.901
262.764
262.626
262.488
262.349
262.21
262.206
262.203
262.2
262.198
262.196
262.194
262.193
262.193
262.194
262.195
262.335
262.474
262.613
262.751
262.888
263.026
263.162
263.299
263.435
263.571
263.707
263.842
263.978
264.112
264.247
264.381
264.515
264.648
264.78
264.912
265.043
265.174
265.305
265.437
265.57
265.703
265.836
265.967
266.096
266.224
267.673
266.456
266.563
266.706
267.78
267.757
267.638
267.529
267.414
267.218
267.208
267.076
266.939
266.802
266.667
266.533
266.4
266.266
266.132
265.998
265.864
265.73
265.596
265.462
265.328
265.193
265.059
264.925
264.791
264.658
264.524
264.39
264.256
264.122
263.987
263.852
263.717
263.582
263.447
263.311
263.175
263.039
262.902
262.765
262.628
262.491
262.353
262.214
262.075
262.07
262.066
262.062
262.059
262.056
262.054
262.052
262.052
262.052
262.053
262.055
262.057
262.197
262.337
262.476
262.614
262.752
262.889
263.026
263.163
263.299
263.435
263.571
263.707
263.842
263.977
264.112
264.246
264.38
264.514
264.647
264.779
264.91
265.042
265.173
265.305
265.437
265.569
265.703
265.838
265.972
266.105
266.235
266.35
267.786
267.773
272.673
266.473
267.487
267.618
267.741
266.675
266.965
266.717
266.576
267.875
267.869
261.935
261.929
261.924
261.92
261.916
261.913
261.911
261.91
261.909
261.91
261.911
261.913
261.916
261.92
262.061
262.2
262.339
262.477
262.615
262.753
262.89
263.027
263.163
263.299
263.435
263.571
263.706
263.842
263.976
264.111
264.245
264.379
264.513
264.646
264.778
264.909
265.041
265.172
265.304
265.437
265.569
265.703
265.837
265.972
266.108
266.243
266.364
267.246
267.892
266.831
270.393
267.071
266.93
266.793
266.658
266.525
266.392
266.259
266.126
265.993
265.86
265.727
265.593
265.459
265.326
265.192
265.058
264.924
264.791
264.658
264.524
264.39
264.256
264.122
263.987
263.852
263.717
263.582
263.447
263.312
263.176
263.04
262.904
262.768
262.631
262.494
262.356
262.219
262.08
261.941
267.876
267.891
271.35
266.691
267.998
266.594
261.925
262.064
262.203
262.342
262.479
262.617
262.754
262.891
263.028
263.164
263.3
263.436
263.571
263.706
263.841
263.976
264.11
264.244
264.378
264.512
264.645
264.777
264.909
265.04
265.172
265.304
265.436
265.569
265.702
265.837
265.971
266.108
266.246
266.376
267.151
267.99
261.801
261.794
261.787
261.782
261.776
261.772
261.769
261.767
261.765
261.765
261.766
261.767
261.77
261.774
261.779
261.785
267.337
267.976
267.835
267.697
267.557
266.972
267.015
267.458
266.659
267.056
266.916
266.781
266.647
266.515
266.384
266.252
266.12
265.988
265.856
265.723
265.59
265.457
265.324
265.19
265.057
264.924
264.79
264.657
264.523
264.39
264.256
264.121
263.987
263.852
263.718
263.583
263.448
263.313
263.177
263.041
262.906
262.77
262.633
262.497
262.36
262.223
262.086
261.948
261.809
271.129
266.489
266.789
267.979
268.006
267.999
267.06
271.314
271.531
266.886
266.716
266.388
266.877
269.051
267.008
270.937
261.791
261.93
262.069
262.207
262.344
262.482
262.619
262.756
262.892
263.028
263.164
263.3
263.436
263.571
263.706
263.841
263.975
264.11
264.244
264.377
264.511
264.644
264.776
264.908
265.04
265.172
265.304
265.436
265.568
265.702
265.836
265.97
266.105
266.241
266.378
267.241
268.329
268.507
261.67
261.661
261.652
261.645
261.638
261.632
261.627
261.624
261.621
261.62
261.62
261.62
261.623
261.626
261.631
261.637
261.644
261.651
266.997
268.076
267.923
267.777
267.639
267.507
270.133
268.34
267.157
267.028
266.897
266.766
266.636
266.505
266.375
266.245
266.114
265.983
265.851
265.719
265.587
265.454
265.322
265.189
265.056
264.923
264.789
264.656
264.523
264.389
264.255
264.121
263.987
263.852
263.718
263.583
263.448
263.313
263.178
263.043
262.907
262.772
262.636
262.5
262.364
262.228
262.091
261.954
261.817
261.679
267.418
266.506
268.401
267.818
267.947
268.079
266.613
268.112
268.108
268.121
270.93
268.368
269.99
266.719
266.489
267.148
271.342
271.116
266.361
266.232
266.1
265.967
265.834
265.701
265.568
265.435
265.303
265.171
265.039
264.907
264.775
264.643
264.51
264.376
264.243
264.109
263.975
263.841
263.706
263.571
263.436
263.3
263.165
263.029
262.893
262.757
262.62
262.484
262.347
262.21
262.073
261.935
261.798
261.659
270.915
261.541
261.529
261.519
261.509
261.5
261.493
261.486
261.481
261.477
261.474
261.473
261.473
261.473
261.476
261.48
261.486
261.493
261.502
261.511
261.521
267.311
266.526
267.693
271.587
271.577
271.58
271.579
271.573
271.33
271.095
270.87
266.71
270.725
268.212
268.488
268.444
267.903
268.037
268.176
266.735
267.494
271.26
268.16
268.003
267.858
267.725
267.607
267.411
267.516
267.242
267.124
267.002
266.877
266.751
266.623
266.495
266.367
266.238
266.108
265.978
265.847
265.715
265.584
265.452
265.319
265.187
265.054
264.921
264.788
264.655
264.522
264.388
264.255
264.121
263.987
263.852
263.718
263.583
263.449
263.314
263.179
263.044
262.909
262.774
262.638
262.503
262.367
262.232
262.096
261.961
261.825
261.689
261.553
268.278
268.139
268.002
270.049
268.067
266.634
270.233
267.936
270.563
268.236
268.237
268.215
268.063
268.122
267.985
270.893
268.202
270.626
270.812
268.589
268.105
268.267
271.06
271.311
271.563
266.354
266.225
266.094
265.963
265.831
265.699
265.567
265.434
265.302
265.171
265.039
264.906
264.774
264.642
264.509
264.376
264.242
264.108
263.974
263.84
263.706
263.571
263.436
263.301
263.165
263.03
262.894
262.758
262.622
262.486
262.35
262.213
262.077
261.941
261.804
261.668
261.531
267.686
267.799
267.929
268.072
268.228
268.394
269.75
267.203
266.566
267.773
267.928
270.655
270.69
268.421
268.266
266.61
270.329
270
267.299
267.376
271.854
270.975
271.296
268.571
261.416
261.402
261.388
261.376
261.365
261.355
261.346
261.339
261.333
261.328
261.326
261.325
261.324
261.325
261.327
261.332
261.339
261.348
261.359
261.369
261.381
261.394
271.847
271.836
271.829
271.826
271.822
271.818
270.752
266.661
267.57
267.87
267.818
266.975
270.471
270.487
268.362
270.215
268.611
268.319
270.285
266.76
273.116
271.836
268.352
267.393
267.305
267.203
267.094
266.978
266.859
266.736
266.612
266.486
266.359
266.231
266.102
265.973
265.843
265.712
265.581
265.449
265.317
265.185
265.053
264.92
264.787
264.654
264.521
264.388
264.254
264.12
263.986
263.852
263.718
263.584
263.449
263.315
263.18
263.045
262.91
262.775
262.641
262.506
262.371
262.236
262.102
261.967
261.833
261.699
261.565
261.431
272.796
269.307
273.101
267.852
270.668
268.349
271.234
267.49
267.067
270.624
267.254
267.214
267.639
267.74
267.855
267.984
268.126
268.281
268.448
268.627
268.758
268.815
267.091
267.905
266.857
267.448
266.593
266.471
266.346
266.218
266.089
265.959
265.828
265.697
265.565
265.433
265.302
265.17
265.038
264.906
264.773
264.641
264.508
264.375
264.242
264.108
263.974
263.84
263.705
263.571
263.436
263.301
263.166
263.03
262.895
262.759
262.624
262.488
262.352
262.217
262.081
261.946
261.811
261.676
261.542
261.408
271.022
271.287
271.55
271.812
270.456
273.079
267.981
268.133
268.306
269.099
268.684
268.891
266.501
267.548
266.781
266.697
267.647
267.799
267.704
267.462
270.437
270.454
268.698
268.48
266.645
270.03
267.05
269.75
269.504
268.576
268.417
270.013
266.883
267.131
267.169
267.787
269.588
269.781
270.004
267.516
267.595
272.094
272.096
272.093
272.086
272.08
272.075
272.073
272.071
272.069
267.446
266.79
268.467
268.489
270.235
269.85
267.243
267.367
267.275
267.176
267.07
266.959
266.843
266.724
266.602
266.477
266.352
266.225
266.097
265.969
265.839
265.709
265.578
265.447
265.315
265.184
265.051
264.919
264.786
264.654
264.52
264.387
264.254
264.12
263.986
263.852
263.718
263.584
263.449
263.315
263.181
263.046
262.911
262.777
262.643
262.508
262.374
262.24
262.106
261.973
261.84
261.708
261.577
261.446
261.316
261.297
261.279
261.261
261.245
261.231
261.219
261.208
261.198
261.19
261.183
261.178
261.176
261.175
261.174
261.174
261.176
261.182
261.19
261.202
261.214
261.227
261.24
261.255
261.274
267.748
270.242
269.012
268.956
268.8
267.56
272.102
271.513
266.779
266.855
267.663
267.774
267.892
268.022
268.165
268.32
268.49
268.674
268.871
269.075
269.46
269.208
269.277
266.739
267.724
267.587
270.439
268.669
266.539
269.777
269.396
269.268
268.504
269.753
267.004
269.788
267.28
268.946
268.726
268.523
268.338
268.17
268.018
267.87
267.616
271.829
267.289
270.718
270.99
271.264
271.537
271.807
272.068
267.318
266.916
273.148
268.619
272.368
272.354
272.346
272.342
272.338
272.332
272.327
272.323
272.32
272.319
272.319
272.319
269.556
270.005
267.1
268.275
266.799
273.113
267.383
267.457
267.356
267.258
267.158
267.054
266.945
266.831
266.714
266.594
266.471
266.346
266.22
266.093
265.965
265.836
265.706
265.576
265.445
265.314
265.182
265.05
264.918
264.785
264.653
264.52
264.387
264.253
264.12
263.986
263.852
263.718
263.584
263.45
263.315
263.181
263.047
262.912
262.778
262.644
262.51
262.377
262.243
262.11
261.978
261.847
261.716
261.587
261.459
261.333
261.209
261.186
261.163
261.14
261.119
261.1
261.084
261.071
261.06
261.05
261.039
261.03
261.025
261.023
261.025
261.023
261.021
261.022
261.028
261.037
261.054
261.069
261.083
261.096
261.113
261.139
261.166
261.292
261.421
261.552
261.683
261.816
261.95
262.085
262.219
262.354
262.489
262.625
262.76
262.896
263.031
263.166
263.301
263.436
263.571
263.705
263.839
263.974
264.107
264.241
264.374
264.507
264.64
264.773
264.905
265.037
265.169
265.301
265.432
265.563
265.695
265.825
265.956
266.085
266.214
266.341
266.468
266.6
266.723
266.844
266.958
269.179
267.21
267.351
267.383
267.499
267.092
267.641
268.624
269.582
266.827
266.911
267.677
267.523
267.399
267.631
270.214
270.213
268.909
269.57
269.158
268.998
269.422
268.575
268.747
269.993
269.523
269.262
267.038
269.754
268.671
269.205
269.36
268.83
268.875
270.205
267.516
267.602
266.868
269.377
269.15
268.924
268.712
268.519
268.344
268.187
268.045
267.916
267.798
267.687
268.744
267.333
266.947
267.766
267.897
268.039
268.192
268.359
268.545
268.755
268.993
267.368
267.205
270.297
270.615
270.927
271.224
266.966
269.287
267.402
269.321
267.218
269.772
267.128
270.673
270.958
271.242
271.524
271.804
272.074
272.336
267.29
267.198
267.363
267.255
267.149
267.042
266.935
266.826
266.709
266.588
266.463
266.337
266.21
266.082
265.953
265.823
265.693
265.562
265.431
265.3
265.168
265.036
264.904
264.772
264.64
264.507
264.374
264.241
264.107
263.973
263.839
263.705
263.571
263.436
263.301
263.166
263.031
262.896
262.761
262.626
262.491
262.356
262.221
262.087
261.954
261.821
261.69
261.56
261.432
261.307
261.187
268.931
268.742
261.085
261.056
261.029
261
260.973
260.951
260.933
260.92
260.91
260.902
260.885
260.874
260.868
260.868
260.877
260.872
260.866
260.863
260.869
260.878
260.906
260.926
260.941
260.949
260.961
261.004
261.046
261.072
269.595
272.608
272.596
272.589
272.584
272.579
272.574
272.57
272.566
272.563
272.561
272.56
272.564
272.589
271.802
272.075
272.353
272.614
267.543
267.444
267.345
267.246
267.146
267.043
266.936
266.824
266.708
266.588
266.466
266.342
266.217
266.09
265.962
265.834
265.704
265.574
265.444
265.312
265.181
265.049
264.917
264.785
264.652
264.519
264.386
264.253
264.119
263.986
263.852
263.718
263.584
263.45
263.316
263.181
263.047
262.913
262.779
262.645
262.512
262.379
262.246
262.114
261.982
261.852
261.723
261.596
261.471
261.349
261.231
261.118
269.54
269.116
269.967
269.977
267.335
267.561
266.956
267.037
269.018
268.772
267.615
268.918
267.273
267.673
267.789
267.915
268.053
268.205
268.373
268.56
268.771
269.011
271.254
266.32
269.923
270.263
270.609
270.935
267.708
269.508
269.229
268.966
268.735
268.535
268.359
268.201
268.058
267.929
267.812
266.996
267.485
267.448
269.961
269.073
269.324
269.125
268.847
267.524
267.429
267.335
267.238
267.138
267.035
266.928
266.816
266.701
266.581
266.458
266.333
266.207
266.079
265.951
265.821
265.691
265.561
265.43
265.299
265.168
265.036
264.904
264.772
264.639
264.506
264.373
264.24
264.107
263.973
263.839
263.705
263.57
263.436
263.301
263.166
263.031
262.896
262.761
262.626
262.492
262.357
262.223
262.089
261.956
261.825
261.694
261.566
261.44
261.317
261.201
261.092
270.313
270.625
270.929
271.22
271.515
271.806
272.096
272.375
272.624
267.16
269.736
268.92
269.498
269.712
267.273
267.086
271.704
272.011
272.313
272.591
267.469
269.731
272.848
272.833
272.826
272.822
272.819
272.815
272.811
272.808
272.805
272.803
272.801
272.8
272.803
272.825
272.854
273.02
261.011
260.957
260.922
260.896
260.855
260.824
260.797
260.777
260.768
260.757
260.761
260.724
260.713
260.704
260.706
260.739
260.719
260.707
260.693
260.706
260.699
260.766
260.784
260.804
260.796
260.778
260.866
260.938
260.958
260.994
267.523
267.431
267.335
267.238
267.14
267.038
266.931
266.82
266.704
266.585
266.463
266.339
266.214
266.088
265.96
265.832
265.703
265.573
265.442
265.311
265.18
265.048
264.916
264.784
264.651
264.519
264.386
264.252
264.119
263.986
263.852
263.718
263.584
263.45
263.316
263.182
263.048
262.913
262.78
262.646
262.513
262.38
262.247
262.116
261.985
261.856
261.728
261.602
261.479
261.36
261.246
261.139
261.04
269.038
269.28
269.705
267.378
267.123
261.093
261.205
267.738
267.671
260.982
260.757
260.861
260.839
260.516
260.682
260.704
260.475
260.566
260.661
260.468
260.454
260.493
260.476
260.524
260.513
260.549
260.531
260.556
260.575
260.608
260.562
260.617
260.641
260.685
260.644
260.737
260.71
260.83
260.785
261.146
261.048
260.918
260.863
261.365
261.252
261.605
261.483
261.857
261.73
262.117
261.986
262.38
262.248
262.646
262.513
262.914
262.78
263.182
263.048
263.45
263.316
263.718
263.584
263.985
263.852
264.252
264.119
264.518
264.385
264.783
264.651
265.048
264.916
265.311
265.179
265.572
265.442
265.831
265.702
266.087
265.959
266.338
266.213
266.583
266.462
266.818
266.702
267.036
266.93
267.234
267.137
267.423
267.328
267.616
267.518
267.819
267.714
268.065
267.936
268.366
268.208
268.744
268.543
269.258
268.978
269.897
269.571
270.589
270.25
271.199
270.91
271.829
271.511
272.439
272.146
272.922
273.048
273.055
273.039
273.04
273.041
273.04
273.044
273.042
273.046
273.045
273.049
273.048
273.052
273.05
272.993
273.059
272.874
272.916
273.09
273.137
272.768
272.926
272.266
272.549
271.61
271.949
270.955
271.274
270.265
270.611
269.606
269.932
269.022
269.299
268.567
268.779
268.211
268.38
267.923
268.059
267.695
267.802
267.506
267.599
267.322
267.415
267.131
267.227
266.925
267.031
266.697
266.813
266.455
266.578
266.205
266.331
265.949
266.078
265.69
265.82
265.43
265.56
265.167
265.298
264.903
265.035
264.639
264.771
264.373
264.506
264.106
264.24
263.839
263.973
263.57
263.705
263.301
263.436
263.031
263.166
262.761
262.896
262.492
262.627
262.224
262.358
261.958
262.09
261.696
261.826
261.444
261.569
261.322
273.089
273.135
269.458
266.974
260.87
269.099
260.972
270.967
273.147
273.157
273.157
273.16
273.16
273.16
273.16
266.833
269.536
269.449
269.223
269.237
266.434
266.595
266.451
267.56
267.346
267.451
267.658
267.44
267.547
267.757
267.528
267.641
267.854
267.611
267.731
269.477
267.224
273.13
267.308
272.777
267.135
268.472
269.338
267.311
267.448
267.086
266.724
266.231
269.591
267.045
266.706
267.438
271.489
267.285
271.628
266.927
267.212
270.068
266.872
272.987
266.71
268.684
266.837
266.757
267.058
267.6
273.129
271.138
268.516
267.612
267.597
269.571
272.157
270.644
267.987
272.918
266.752
266.477
266.576
267.867
266.456
270.758
267.456
268.07
267.097
265.423
265.102
267.588
)
;

boundaryField
{
    wall
    {
        type            zeroGradient;
    }
    outlet
    {
        type            inletOutlet;
        inletValue      uniform 85;
        value           nonuniform List<scalar> 
33
(
261.408
261.444
261.423
261.118
261.315
261.277
261.063
261.092
261.213
260.991
260.976
260.966
260.967
260.985
260.975
261.019
260.997
261.067
261.046
261.129
261.114
261.257
261.176
261.253
261.28
261.282
261.263
261.355
261.318
261.469
261.416
261.432
261.506
)
;
    }
    inlet
    {
        type            fixedValue;
        value           uniform 273.16;
    }
    frontAndBackPlanes
    {
        type            empty;
    }
}


// ************************************************************************* //
