/*--------------------------------*- C++ -*----------------------------------*\
| =========                 |                                                 |
| \\      /  F ield         | OpenFOAM: The Open Source CFD Toolbox           |
|  \\    /   O peration     | Version:  2212                                  |
|   \\  /    A nd           | Website:  www.openfoam.com                      |
|    \\/     M anipulation  |                                                 |
\*---------------------------------------------------------------------------*/
FoamFile
{
    version     2.0;
    format      ascii;
    arch        "LSB;label=32;scalar=64";
    class       volScalarField;
    location    "0.041";
    object      p;
}
// * * * * * * * * * * * * * * * * * * * * * * * * * * * * * * * * * * * * * //

dimensions      [0 2 -2 0 0 0 0];

internalField   nonuniform List<scalar> 
24240
(
20.1952
20.1953
20.1955
20.1957
20.1961
20.1964
20.1969
20.1973
20.1977
20.1982
20.1986
20.1989
20.1993
20.1995
20.1997
20.1999
20.2001
20.2002
20.2003
20.2003
18.2176
18.2176
18.2176
18.2177
18.2177
18.2177
18.2177
18.2176
18.2176
18.2176
18.2175
18.2174
18.2174
18.2173
18.2172
18.2171
18.2171
18.217
18.2169
18.2169
17.7609
17.7608
17.7606
17.7604
17.7601
17.7598
17.7594
17.759
17.7586
17.7582
17.7577
17.7573
17.7568
17.7564
17.7561
17.7558
17.7555
17.7553
17.7551
17.755
16.9821
16.982
16.9819
16.9816
16.9812
16.9808
16.9803
16.9798
16.9793
16.9787
16.9782
16.9776
16.9771
16.9766
16.9761
16.9758
16.9754
16.9752
16.975
16.9749
16.9334
16.9333
16.9331
16.9327
16.9323
16.9318
16.9312
16.9306
16.9299
16.9292
16.9285
16.9278
16.9272
16.9266
16.926
16.9256
16.9252
16.9249
16.9247
16.9246
16.57
16.5699
16.5697
16.5693
16.5689
16.5683
16.5677
16.5671
16.5664
16.5657
16.5649
16.5642
16.5636
16.563
16.5624
16.5619
16.5616
16.5612
16.561
16.5609
16.6083
16.6082
16.608
16.6076
16.6071
16.6066
16.606
16.6053
16.6046
16.6038
16.6031
16.6024
16.6017
16.6011
16.6005
16.6001
16.5997
16.5993
16.5991
16.599
16.4203
16.4201
16.4199
16.4196
16.4192
16.4187
16.4181
16.4174
16.4168
16.4161
16.4154
16.4147
16.4141
16.4135
16.413
16.4125
16.4122
16.4119
16.4117
16.4116
16.4791
16.479
16.4788
16.4785
16.4781
16.4776
16.4771
16.4766
16.476
16.4754
16.4747
16.4741
16.4736
16.473
16.4725
16.4721
16.4718
16.4715
16.4713
16.4712
16.4241
16.424
16.4239
16.4236
16.4233
16.423
16.4225
16.4221
16.4216
16.4211
16.4206
16.4201
16.4196
16.4191
16.4187
16.4184
16.418
16.4178
16.4177
16.4176
16.4831
16.483
16.4828
16.4825
16.4821
16.4817
16.4812
16.4806
16.4801
16.4795
16.4789
16.4783
16.4777
16.4772
16.4767
16.4763
16.476
16.4757
16.4755
16.4754
16.5917
16.5915
16.5913
16.5909
16.5905
16.5899
16.5893
16.5886
16.5879
16.5872
16.5865
16.5857
16.5851
16.5844
16.5839
16.5834
16.583
16.5827
16.5825
16.5824
16.6103
16.6102
16.6099
16.6096
16.6092
16.6087
16.6081
16.6074
16.6068
16.6061
16.6054
16.6047
16.6041
16.6035
16.603
16.6025
16.6021
16.6018
16.6017
16.6016
16.9628
16.9627
16.9625
16.9622
16.9618
16.9613
16.9607
16.9601
16.9595
16.9588
16.9582
16.9575
16.9569
16.9563
16.9558
16.9554
16.955
16.9548
16.9546
16.9545
16.889
16.8889
16.8887
16.8885
16.8881
16.8878
16.8873
16.8869
16.8864
16.8859
16.8853
16.8848
16.8844
16.8839
16.8835
16.8832
16.8829
16.8826
16.8825
16.8825
17.5684
17.5683
17.5682
17.5679
17.5677
17.5673
17.5669
17.5665
17.566
17.5655
17.5651
17.5646
17.5642
17.5637
17.5634
17.5631
17.5628
17.5626
17.5624
17.5624
17.5916
17.5916
17.5915
17.5914
17.5912
17.591
17.5908
17.5906
17.5903
17.59
17.5897
17.5894
17.5891
17.5889
17.5887
17.5884
17.5883
17.5881
17.588
17.5879
18.9027
18.9027
18.9027
18.9026
18.9025
18.9024
18.9023
18.9021
18.902
18.9018
18.9016
18.9015
18.9013
18.9011
18.901
18.9008
18.9007
18.9005
18.9004
18.9002
19.5314
19.5315
19.5315
19.5317
19.5318
19.532
19.5322
19.5323
19.5325
19.5327
19.5329
19.5331
19.5332
19.5333
19.5334
19.5334
19.5334
19.5334
19.5333
19.5332
22.4633
22.4634
22.4636
22.464
22.4643
22.4648
22.4653
22.4659
22.4664
22.467
22.4675
22.468
22.4684
22.4687
22.469
22.4692
22.4694
22.4695
22.4696
22.4696
54.8059
54.8059
54.8059
54.8059
54.806
54.806
54.806
54.806
54.806
54.8059
54.8058
54.8056
54.8054
54.8052
54.805
54.8048
54.8046
54.8044
54.8043
54.8043
52.7905
52.7905
52.7903
52.7902
52.7899
52.7897
52.7893
52.7889
52.7885
52.788
52.7874
52.7869
52.7864
52.7858
52.7853
52.7848
52.7844
52.7841
52.7839
52.7837
51.6605
51.6603
51.6599
51.6593
51.6586
51.6577
51.6567
51.6556
51.6545
51.6533
51.652
51.6508
51.6496
51.6485
51.6475
51.6466
51.6459
51.6453
51.6449
51.6446
50.6449
50.6447
50.6442
50.6435
50.6427
50.6416
50.6404
50.6391
50.6377
50.6362
50.6348
50.6333
50.632
50.6307
50.6295
50.6285
50.6276
50.6269
50.6265
50.6262
50.3338
50.3335
50.3329
50.3321
50.3311
50.3299
50.3284
50.3269
50.3253
50.3236
50.3219
50.3203
50.3187
50.3172
50.3159
50.3147
50.3137
50.313
50.3125
50.3122
49.5714
49.5711
49.5705
49.5697
49.5686
49.5673
49.5658
49.5642
49.5625
49.5608
49.559
49.5573
49.5557
49.5541
49.5527
49.5515
49.5506
49.5498
49.5493
49.549
49.5783
49.578
49.5775
49.5767
49.5756
49.5744
49.5729
49.5714
49.5697
49.568
49.5663
49.5646
49.563
49.5616
49.5602
49.559
49.5581
49.5573
49.5568
49.5566
49.1259
49.1256
49.1251
49.1243
49.1232
49.122
49.1205
49.119
49.1173
49.1156
49.1139
49.1122
49.1106
49.1091
49.1077
49.1065
49.1055
49.1048
49.1043
49.1041
49.275
49.2747
49.2741
49.2733
49.2723
49.2711
49.2696
49.2681
49.2665
49.2648
49.263
49.2614
49.2597
49.2582
49.2569
49.2557
49.2547
49.254
49.2535
49.2532
49.144
49.1437
49.1432
49.1425
49.1415
49.1404
49.1391
49.1376
49.1361
49.1345
49.1329
49.1314
49.1299
49.1284
49.1272
49.126
49.1251
49.1244
49.1239
49.1237
49.294
49.2937
49.2932
49.2924
49.2913
49.2901
49.2886
49.2871
49.2854
49.2837
49.2819
49.2802
49.2786
49.2771
49.2757
49.2745
49.2735
49.2727
49.2722
49.272
49.6258
49.6255
49.6249
49.624
49.6229
49.6216
49.6201
49.6185
49.6167
49.6149
49.6131
49.6113
49.6096
49.608
49.6066
49.6054
49.6043
49.6035
49.603
49.6027
49.6291
49.6288
49.6283
49.6275
49.6265
49.6253
49.6239
49.6224
49.6208
49.6191
49.6174
49.6158
49.6142
49.6128
49.6114
49.6103
49.6093
49.6085
49.608
49.6078
50.5586
50.5583
50.5578
50.5571
50.5561
50.555
50.5537
50.5523
50.5508
50.5492
50.5477
50.5461
50.5446
50.5432
50.542
50.5409
50.5399
50.5392
50.5387
50.5385
50.4942
50.4939
50.4935
50.4929
50.4921
50.4911
50.4899
50.4887
50.4874
50.486
50.4846
50.4832
50.4819
50.4807
50.4796
50.4786
50.4778
50.4771
50.4767
50.4765
51.9385
51.9383
51.9379
51.9374
51.9367
51.9358
51.9348
51.9337
51.9326
51.9314
51.9301
51.9289
51.9278
51.9267
51.9257
51.9248
51.924
51.9234
51.923
51.9228
52.2509
52.2507
52.2505
52.2501
52.2496
52.2489
52.2482
52.2474
52.2466
52.2457
52.2448
52.2439
52.243
52.2422
52.2414
52.2407
52.2401
52.2397
52.2393
52.239
53.914
53.9139
53.9138
53.9135
53.9131
53.9127
53.9122
53.9117
53.9111
53.9104
53.9098
53.9091
53.9085
53.9079
53.9073
53.9068
53.9063
53.9059
53.9056
53.9053
55.4899
55.49
55.49
55.4901
55.4902
55.4903
55.4904
55.4905
55.4906
55.4907
55.4907
55.4907
55.4907
55.4907
55.4906
55.4905
55.4904
55.4902
55.4901
55.4899
58.487
58.4871
58.4873
58.4876
58.488
58.4885
58.489
58.4896
58.4902
58.4907
58.4913
58.4917
58.4921
58.4925
58.4927
58.4929
58.4931
58.4932
58.4933
58.4934
90.4521
90.452
90.4518
90.4516
90.4513
90.4509
90.4504
90.4498
90.4492
90.4485
90.4477
90.4469
90.4461
90.4453
90.4446
90.4439
90.4433
90.4428
90.4425
90.4424
87.4772
87.477
87.4766
87.4759
87.475
87.474
87.4728
87.4714
87.47
87.4685
87.4669
87.4653
87.4638
87.4624
87.4611
87.4599
87.4589
87.4581
87.4575
87.4572
86.0243
86.024
86.0234
86.0225
86.0213
86.0199
86.0182
86.0164
86.0145
86.0125
86.0105
86.0085
86.0066
86.0048
86.0031
86.0016
86.0004
85.9994
85.9988
85.9984
84.1829
84.1825
84.1818
84.1807
84.1794
84.1777
84.1759
84.1738
84.1716
84.1694
84.1671
84.1648
84.1627
84.1606
84.1588
84.1572
84.1558
84.1548
84.1541
84.1537
83.6306
83.6302
83.6294
83.6282
83.6267
83.6249
83.6229
83.6206
83.6183
83.6158
83.6133
83.6108
83.6085
83.6063
83.6043
83.6026
83.6011
83.6
83.5992
83.5989
82.4464
82.446
82.4452
82.444
82.4425
82.4407
82.4387
82.4364
82.434
82.4315
82.429
82.4266
82.4242
82.422
82.42
82.4183
82.4168
82.4157
82.415
82.4146
82.4071
82.4066
82.4058
82.4046
82.403
82.4011
82.399
82.3966
82.3941
82.3915
82.3889
82.3864
82.3839
82.3816
82.3795
82.3777
82.3762
82.375
82.3743
82.3739
81.7408
81.7404
81.7395
81.7383
81.7367
81.7348
81.7326
81.7302
81.7277
81.725
81.7223
81.7197
81.7172
81.7149
81.7127
81.7109
81.7093
81.7081
81.7073
81.7069
81.9397
81.9392
81.9384
81.9372
81.9355
81.9336
81.9314
81.929
81.9264
81.9238
81.9211
81.9184
81.9159
81.9135
81.9113
81.9095
81.9079
81.9067
81.9058
81.9054
81.7727
81.7723
81.7715
81.7703
81.7688
81.7669
81.7648
81.7625
81.76
81.7575
81.7549
81.7524
81.7499
81.7476
81.7455
81.7437
81.7421
81.741
81.7401
81.7398
81.9872
81.9867
81.9858
81.9846
81.9829
81.9809
81.9787
81.9762
81.9736
81.9708
81.9681
81.9654
81.9627
81.9603
81.9581
81.9561
81.9545
81.9532
81.9524
81.9519
82.5386
82.5382
82.5373
82.5361
82.5345
82.5325
82.5303
82.5278
82.5252
82.5225
82.5198
82.5171
82.5146
82.5122
82.51
82.508
82.5064
82.5052
82.5043
82.5039
82.5712
82.5708
82.57
82.5688
82.5673
82.5655
82.5634
82.5611
82.5587
82.5561
82.5536
82.5511
82.5486
82.5464
82.5443
82.5425
82.5409
82.5397
82.5389
82.5385
83.989
83.9886
83.9878
83.9867
83.9853
83.9836
83.9816
83.9795
83.9772
83.9748
83.9724
83.97
83.9677
83.9655
83.9635
83.9618
83.9603
83.9592
83.9584
83.958
84.0387
84.0383
84.0376
84.0366
84.0354
84.0338
84.032
84.0301
84.028
84.0258
84.0236
84.0214
84.0193
84.0174
84.0156
84.014
84.0126
84.0116
84.0109
84.0105
86.2853
86.285
86.2844
86.2835
86.2823
86.281
86.2794
86.2776
86.2758
86.2738
86.2719
86.2699
86.268
86.2662
86.2646
86.2632
86.262
86.261
86.2603
86.26
86.8695
86.8692
86.8688
86.868
86.8671
86.866
86.8647
86.8633
86.8617
86.8602
86.8585
86.8569
86.8554
86.8539
86.8526
86.8514
86.8504
86.8496
86.849
86.8486
89.9946
89.9944
89.994
89.9935
89.9928
89.9919
89.9909
89.9899
89.9887
89.9874
89.9862
89.9849
89.9837
89.9826
89.9815
89.9806
89.9798
89.9791
89.9786
89.9783
91.919
91.9189
91.9188
91.9185
91.9182
91.9178
91.9174
91.9168
91.9163
91.9157
91.915
91.9144
91.9138
91.9132
91.9126
91.9121
91.9117
91.9114
91.9111
91.9109
96.4231
96.4231
96.4232
96.4234
96.4236
96.4239
96.4242
96.4245
96.4248
96.425
96.4252
96.4254
96.4256
96.4257
96.4258
96.4259
96.426
96.4261
96.4263
96.4265
123.443
123.443
123.442
123.442
123.441
123.44
123.438
123.437
123.435
123.434
123.432
123.43
123.429
123.427
123.426
123.424
123.423
123.422
123.422
123.421
120.833
120.832
120.831
120.83
120.829
120.827
120.825
120.822
120.82
120.817
120.814
120.812
120.809
120.807
120.804
120.802
120.801
120.799
120.798
120.798
119.171
119.171
119.17
119.168
119.167
119.165
119.162
119.16
119.157
119.154
119.151
119.149
119.146
119.143
119.141
119.139
119.137
119.136
119.135
119.134
117.151
117.151
117.15
117.148
117.147
117.144
117.142
117.139
117.136
117.133
117.13
117.127
117.124
117.121
117.119
117.117
117.115
117.114
117.113
117.112
116.43
116.429
116.428
116.427
116.425
116.423
116.42
116.418
116.415
116.412
116.408
116.405
116.402
116.4
116.397
116.395
116.393
116.392
116.391
116.39
115.027
115.026
115.025
115.024
115.022
115.02
115.017
115.014
115.011
115.008
115.005
115.002
114.999
114.996
114.993
114.991
114.989
114.988
114.987
114.986
114.963
114.963
114.962
114.96
114.958
114.955
114.953
114.95
114.946
114.943
114.939
114.936
114.933
114.93
114.927
114.924
114.922
114.921
114.92
114.919
114.146
114.146
114.144
114.143
114.141
114.138
114.135
114.132
114.129
114.125
114.122
114.118
114.115
114.112
114.109
114.106
114.104
114.102
114.101
114.101
114.38
114.379
114.378
114.376
114.374
114.372
114.369
114.365
114.362
114.358
114.355
114.351
114.348
114.345
114.342
114.339
114.337
114.335
114.334
114.334
114.205
114.204
114.203
114.202
114.2
114.197
114.194
114.191
114.188
114.184
114.181
114.178
114.174
114.171
114.168
114.166
114.164
114.162
114.161
114.16
114.469
114.469
114.467
114.466
114.463
114.461
114.458
114.455
114.451
114.447
114.444
114.44
114.436
114.433
114.43
114.427
114.425
114.423
114.422
114.422
115.216
115.215
115.214
115.213
115.21
115.208
115.205
115.202
115.198
115.195
115.191
115.188
115.184
115.181
115.178
115.176
115.173
115.172
115.171
115.17
115.289
115.289
115.288
115.286
115.284
115.282
115.279
115.276
115.273
115.269
115.266
115.262
115.259
115.256
115.253
115.251
115.249
115.247
115.246
115.245
117.073
117.072
117.071
117.07
117.068
117.066
117.063
117.06
117.057
117.054
117.051
117.047
117.044
117.041
117.039
117.036
117.034
117.033
117.032
117.031
117.245
117.245
117.244
117.243
117.241
117.239
117.236
117.234
117.231
117.228
117.225
117.222
117.219
117.216
117.214
117.211
117.21
117.208
117.207
117.207
119.92
119.92
119.919
119.918
119.916
119.914
119.912
119.91
119.907
119.904
119.902
119.899
119.896
119.894
119.891
119.889
119.888
119.886
119.885
119.885
120.748
120.747
120.747
120.746
120.744
120.743
120.741
120.738
120.736
120.734
120.731
120.729
120.727
120.725
120.723
120.721
120.719
120.718
120.717
120.717
124.108
124.108
124.107
124.106
124.105
124.104
124.102
124.1
124.099
124.097
124.095
124.093
124.091
124.089
124.087
124.086
124.085
124.084
124.083
124.082
126.335
126.335
126.335
126.334
126.333
126.332
126.331
126.33
126.328
126.327
126.325
126.324
126.323
126.321
126.32
126.319
126.319
126.318
126.318
126.317
130.157
130.157
130.156
130.156
130.156
130.156
130.155
130.155
130.155
130.154
130.154
130.153
130.153
130.152
130.152
130.152
130.152
130.152
130.152
130.152
156.56
156.56
156.559
156.557
156.555
156.553
156.551
156.548
156.545
156.542
156.539
156.535
156.532
156.529
156.527
156.524
156.522
156.521
156.52
156.519
153.722
153.722
153.721
153.719
153.717
153.714
153.711
153.708
153.704
153.7
153.697
153.693
153.689
153.686
153.683
153.68
153.678
153.676
153.675
153.674
151.973
151.972
151.971
151.969
151.967
151.965
151.962
151.959
151.955
151.952
151.948
151.945
151.941
151.938
151.935
151.932
151.93
151.928
151.927
151.927
149.668
149.667
149.666
149.665
149.663
149.66
149.657
149.654
149.651
149.647
149.644
149.64
149.637
149.634
149.631
149.628
149.626
149.625
149.624
149.623
148.882
148.882
148.88
148.879
148.876
148.874
148.871
148.867
148.864
148.86
148.856
148.852
148.848
148.845
148.842
148.839
148.837
148.835
148.834
148.833
147.304
147.303
147.302
147.3
147.298
147.295
147.292
147.288
147.284
147.28
147.276
147.272
147.268
147.264
147.261
147.258
147.256
147.254
147.253
147.252
147.221
147.221
147.219
147.217
147.215
147.212
147.208
147.204
147.2
147.196
147.192
147.188
147.183
147.18
147.176
147.173
147.17
147.168
147.167
147.166
146.297
146.296
146.295
146.293
146.29
146.287
146.283
146.279
146.275
146.271
146.266
146.262
146.258
146.254
146.25
146.247
146.244
146.242
146.241
146.24
146.554
146.554
146.552
146.55
146.547
146.544
146.541
146.537
146.532
146.528
146.523
146.519
146.515
146.511
146.507
146.504
146.501
146.499
146.497
146.497
146.392
146.392
146.39
146.388
146.386
146.383
146.379
146.375
146.371
146.367
146.362
146.358
146.354
146.35
146.346
146.343
146.34
146.338
146.336
146.336
146.697
146.696
146.694
146.692
146.69
146.686
146.683
146.679
146.674
146.67
146.665
146.66
146.656
146.652
146.648
146.645
146.642
146.639
146.638
146.637
147.609
147.608
147.607
147.605
147.602
147.599
147.596
147.592
147.588
147.583
147.579
147.574
147.57
147.566
147.562
147.559
147.556
147.554
147.553
147.552
147.736
147.735
147.734
147.732
147.73
147.727
147.723
147.719
147.715
147.711
147.707
147.703
147.698
147.695
147.691
147.688
147.685
147.683
147.682
147.681
149.803
149.802
149.801
149.799
149.796
149.794
149.79
149.787
149.783
149.779
149.774
149.77
149.766
149.763
149.759
149.756
149.754
149.752
149.75
149.75
150.104
150.104
150.102
150.101
150.098
150.096
150.093
150.089
150.085
150.082
150.078
150.074
150.07
150.067
150.063
150.061
150.058
150.056
150.055
150.054
153.117
153.116
153.115
153.114
153.112
153.109
153.106
153.103
153.1
153.096
153.092
153.089
153.085
153.082
153.079
153.076
153.074
153.072
153.071
153.07
154.14
154.14
154.139
154.137
154.135
154.133
154.131
154.128
154.125
154.121
154.118
154.115
154.112
154.109
154.106
154.104
154.102
154.1
154.099
154.099
157.882
157.881
157.88
157.879
157.877
157.875
157.873
157.87
157.867
157.865
157.862
157.859
157.856
157.854
157.851
157.849
157.848
157.846
157.846
157.845
160.238
160.238
160.237
160.236
160.234
160.232
160.23
160.228
160.226
160.224
160.221
160.219
160.217
160.215
160.213
160.211
160.21
160.209
160.209
160.208
164.558
164.558
164.558
164.557
164.556
164.555
164.554
164.552
164.551
164.549
164.548
164.547
164.545
164.544
164.543
164.543
164.542
164.542
164.543
164.543
188.736
188.735
188.733
188.731
188.729
188.725
188.722
188.718
188.714
188.709
188.705
188.7
188.696
188.692
188.688
188.685
188.682
188.68
188.678
188.678
185.998
185.998
185.996
185.994
185.992
185.989
185.985
185.981
185.977
185.973
185.968
185.964
185.96
185.956
185.952
185.949
185.946
185.944
185.943
185.942
184.161
184.16
184.159
184.157
184.154
184.151
184.147
184.144
184.139
184.135
184.131
184.126
184.122
184.118
184.115
184.112
184.109
184.107
184.106
184.105
181.777
181.776
181.775
181.773
181.77
181.767
181.763
181.759
181.755
181.751
181.746
181.741
181.737
181.733
181.729
181.726
181.724
181.722
181.72
181.72
180.935
180.934
180.932
180.93
180.927
180.924
180.92
180.916
180.911
180.907
180.902
180.897
180.892
180.888
180.884
180.881
180.878
180.876
180.874
180.874
179.227
179.226
179.224
179.222
179.219
179.216
179.212
179.207
179.202
179.197
179.192
179.187
179.183
179.178
179.174
179.17
179.167
179.165
179.164
179.163
179.137
179.136
179.134
179.132
179.129
179.125
179.121
179.116
179.111
179.106
179.101
179.096
179.091
179.086
179.082
179.078
179.075
179.072
179.071
179.07
178.144
178.143
178.142
178.139
178.136
178.132
178.128
178.123
178.118
178.113
178.108
178.102
178.097
178.092
178.088
178.084
178.081
178.078
178.076
178.075
178.418
178.417
178.415
178.413
178.409
178.406
178.401
178.396
178.391
178.386
178.381
178.375
178.37
178.365
178.361
178.357
178.353
178.351
178.349
178.348
178.295
178.294
178.293
178.29
178.287
178.284
178.279
178.274
178.269
178.264
178.259
178.253
178.248
178.243
178.239
178.235
178.231
178.229
178.227
178.226
178.606
178.605
178.604
178.601
178.598
178.594
178.59
178.585
178.58
178.574
178.569
178.563
178.558
178.553
178.548
178.544
178.541
178.538
178.536
178.535
179.668
179.667
179.666
179.663
179.66
179.657
179.652
179.648
179.642
179.637
179.632
179.627
179.621
179.616
179.612
179.608
179.605
179.602
179.6
179.599
179.851
179.85
179.849
179.847
179.844
179.84
179.836
179.831
179.826
179.821
179.816
179.811
179.806
179.801
179.796
179.793
179.789
179.787
179.785
179.784
182.123
182.122
182.121
182.118
182.115
182.112
182.108
182.103
182.098
182.094
182.088
182.083
182.079
182.074
182.07
182.066
182.063
182.06
182.059
182.058
182.544
182.544
182.542
182.54
182.537
182.534
182.53
182.526
182.521
182.516
182.511
182.507
182.502
182.498
182.493
182.49
182.487
182.485
182.483
182.482
185.762
185.761
185.76
185.758
185.755
185.752
185.748
185.744
185.74
185.735
185.73
185.726
185.721
185.717
185.713
185.71
185.707
185.705
185.704
185.703
186.948
186.947
186.946
186.944
186.942
186.939
186.935
186.931
186.927
186.923
186.919
186.915
186.911
186.907
186.903
186.9
186.898
186.896
186.894
186.894
190.816
190.815
190.814
190.812
190.81
190.807
190.804
190.8
190.797
190.793
190.789
190.785
190.781
190.778
190.775
190.772
190.77
190.768
190.767
190.767
193.294
193.293
193.292
193.291
193.288
193.286
193.283
193.28
193.276
193.273
193.269
193.266
193.263
193.26
193.257
193.255
193.253
193.252
193.251
193.25
197.592
197.591
197.591
197.589
197.587
197.585
197.583
197.581
197.578
197.576
197.573
197.57
197.568
197.566
197.565
197.563
197.563
197.562
197.562
197.563
220.597
220.597
220.595
220.592
220.589
220.585
220.581
220.576
220.571
220.566
220.56
220.555
220.55
220.545
220.541
220.537
220.534
220.531
220.53
220.529
217.684
217.683
217.681
217.679
217.675
217.671
217.667
217.662
217.657
217.651
217.646
217.64
217.635
217.63
217.626
217.622
217.618
217.616
217.614
217.613
215.857
215.856
215.855
215.852
215.849
215.845
215.841
215.836
215.831
215.825
215.82
215.815
215.809
215.805
215.8
215.796
215.793
215.791
215.789
215.788
213.431
213.43
213.429
213.426
213.423
213.419
213.414
213.409
213.404
213.399
213.393
213.387
213.382
213.377
213.372
213.368
213.365
213.363
213.361
213.36
212.572
212.571
212.569
212.566
212.563
212.559
212.554
212.549
212.543
212.538
212.532
212.526
212.521
212.515
212.511
212.506
212.503
212.5
212.499
212.498
210.777
210.776
210.774
210.771
210.767
210.763
210.758
210.753
210.747
210.741
210.735
210.729
210.724
210.718
210.713
210.709
210.705
210.703
210.701
210.7
210.686
210.685
210.683
210.68
210.676
210.672
210.667
210.661
210.656
210.649
210.643
210.637
210.631
210.625
210.62
210.616
210.612
210.609
210.607
210.606
209.66
209.659
209.657
209.654
209.651
209.646
209.641
209.635
209.629
209.623
209.617
209.61
209.604
209.599
209.593
209.589
209.585
209.582
209.58
209.579
209.939
209.938
209.936
209.933
209.93
209.925
209.92
209.914
209.908
209.902
209.895
209.889
209.883
209.877
209.872
209.867
209.863
209.86
209.858
209.857
209.88
209.879
209.877
209.874
209.871
209.866
209.861
209.855
209.849
209.843
209.836
209.83
209.824
209.818
209.813
209.808
209.804
209.801
209.799
209.798
210.169
210.168
210.166
210.163
210.16
210.155
210.15
210.144
210.138
210.132
210.125
210.119
210.112
210.106
210.101
210.096
210.092
210.089
210.087
210.085
211.371
211.37
211.368
211.365
211.361
211.357
211.352
211.346
211.34
211.334
211.328
211.321
211.315
211.309
211.304
211.299
211.295
211.292
211.29
211.289
211.606
211.605
211.603
211.6
211.597
211.592
211.587
211.582
211.576
211.57
211.563
211.557
211.551
211.545
211.54
211.535
211.531
211.528
211.526
211.525
214.026
214.025
214.023
214.021
214.017
214.013
214.008
214.003
213.997
213.991
213.985
213.979
213.973
213.967
213.962
213.957
213.954
213.951
213.949
213.948
214.558
214.557
214.556
214.553
214.55
214.545
214.541
214.535
214.53
214.524
214.518
214.512
214.506
214.501
214.496
214.492
214.488
214.485
214.483
214.482
217.91
217.909
217.907
217.905
217.901
217.897
217.893
217.888
217.882
217.877
217.871
217.865
217.86
217.855
217.85
217.846
217.842
217.84
217.838
217.837
219.233
219.232
219.23
219.228
219.225
219.221
219.216
219.211
219.206
219.201
219.196
219.19
219.185
219.18
219.176
219.172
219.169
219.166
219.165
219.164
223.194
223.194
223.192
223.19
223.187
223.183
223.179
223.174
223.169
223.164
223.159
223.154
223.149
223.145
223.141
223.137
223.135
223.133
223.131
223.131
225.76
225.76
225.758
225.756
225.753
225.749
225.745
225.741
225.736
225.732
225.727
225.722
225.718
225.714
225.71
225.707
225.704
225.703
225.701
225.701
230.104
230.104
230.102
230.1
230.098
230.095
230.091
230.088
230.084
230.08
230.076
230.072
230.068
230.065
230.063
230.061
230.059
230.058
230.058
230.058
251.918
251.917
251.915
251.912
251.908
251.903
251.898
251.892
251.886
251.88
251.873
251.867
251.861
251.855
251.85
251.846
251.842
251.839
251.837
251.836
248.951
248.95
248.948
248.945
248.941
248.937
248.931
248.925
248.919
248.912
248.906
248.899
248.893
248.887
248.881
248.877
248.873
248.87
248.867
248.866
247.113
247.112
247.11
247.107
247.103
247.098
247.093
247.087
247.081
247.074
247.067
247.061
247.055
247.049
247.043
247.039
247.035
247.032
247.03
247.029
244.652
244.651
244.649
244.646
244.642
244.637
244.632
244.626
244.619
244.612
244.606
244.599
244.592
244.586
244.581
244.576
244.572
244.569
244.567
244.566
243.791
243.79
243.788
243.785
243.78
243.776
243.77
243.764
243.757
243.75
243.743
243.737
243.73
243.724
243.718
243.713
243.709
243.706
243.704
243.703
241.945
241.944
241.941
241.938
241.934
241.929
241.923
241.917
241.91
241.903
241.896
241.889
241.882
241.876
241.87
241.865
241.861
241.857
241.855
241.854
241.855
241.853
241.851
241.848
241.844
241.839
241.833
241.826
241.819
241.812
241.805
241.798
241.791
241.784
241.778
241.773
241.768
241.765
241.762
241.761
240.823
240.822
240.82
240.816
240.812
240.807
240.801
240.794
240.787
240.78
240.772
240.765
240.758
240.751
240.745
240.74
240.735
240.732
240.729
240.728
241.102
241.101
241.098
241.095
241.091
241.085
241.079
241.073
241.066
241.058
241.051
241.043
241.036
241.029
241.023
241.017
241.013
241.009
241.007
241.006
241.107
241.105
241.103
241.1
241.095
241.09
241.084
241.077
241.07
241.063
241.055
241.048
241.04
241.033
241.027
241.022
241.017
241.013
241.011
241.009
241.384
241.383
241.381
241.377
241.373
241.367
241.361
241.355
241.347
241.34
241.332
241.325
241.317
241.311
241.304
241.299
241.294
241.29
241.288
241.286
242.698
242.697
242.694
242.691
242.687
242.681
242.675
242.669
242.662
242.654
242.647
242.639
242.632
242.625
242.619
242.613
242.609
242.605
242.602
242.601
242.983
242.982
242.98
242.977
242.972
242.967
242.961
242.955
242.948
242.94
242.933
242.925
242.918
242.911
242.905
242.9
242.895
242.891
242.889
242.888
245.507
245.506
245.504
245.501
245.496
245.491
245.485
245.479
245.472
245.465
245.457
245.45
245.443
245.436
245.43
245.425
245.421
245.417
245.415
245.413
246.142
246.14
246.138
246.135
246.131
246.126
246.12
246.114
246.107
246.1
246.093
246.086
246.079
246.072
246.066
246.061
246.057
246.053
246.051
246.05
249.572
249.571
249.569
249.565
249.561
249.556
249.551
249.545
249.538
249.531
249.524
249.517
249.511
249.504
249.499
249.494
249.489
249.486
249.484
249.483
251.014
251.013
251.011
251.008
251.004
250.999
250.993
250.987
250.981
250.974
250.968
250.961
250.955
250.949
250.943
250.938
250.935
250.931
250.929
250.928
255.017
255.016
255.014
255.011
255.007
255.003
254.998
254.992
254.986
254.979
254.973
254.966
254.96
254.955
254.95
254.945
254.942
254.939
254.937
254.937
257.656
257.655
257.653
257.65
257.647
257.642
257.637
257.631
257.625
257.619
257.613
257.607
257.601
257.596
257.591
257.587
257.583
257.581
257.579
257.578
262.004
262.003
262.001
261.998
261.995
261.991
261.986
261.981
261.975
261.97
261.964
261.959
261.954
261.95
261.946
261.943
261.941
261.939
261.938
261.938
282.779
282.778
282.775
282.772
282.767
282.762
282.755
282.749
282.741
282.734
282.726
282.718
282.711
282.704
282.698
282.693
282.688
282.685
282.682
282.681
279.791
279.79
279.787
279.784
279.779
279.773
279.767
279.76
279.752
279.745
279.737
279.729
279.721
279.714
279.708
279.702
279.698
279.694
279.692
279.69
277.946
277.945
277.943
277.939
277.934
277.929
277.922
277.915
277.908
277.9
277.892
277.884
277.877
277.87
277.863
277.858
277.853
277.85
277.847
277.846
275.46
275.459
275.457
275.453
275.448
275.443
275.436
275.429
275.421
275.413
275.405
275.397
275.39
275.383
275.376
275.37
275.366
275.362
275.36
275.358
274.599
274.598
274.595
274.591
274.587
274.581
274.574
274.567
274.559
274.551
274.543
274.535
274.527
274.52
274.513
274.507
274.502
274.499
274.496
274.495
272.73
272.729
272.727
272.723
272.718
272.712
272.705
272.698
272.69
272.682
272.674
272.665
272.657
272.65
272.643
272.637
272.632
272.628
272.626
272.624
272.639
272.637
272.635
272.631
272.626
272.62
272.613
272.606
272.598
272.589
272.581
272.572
272.564
272.556
272.549
272.543
272.538
272.534
272.532
272.53
271.622
271.621
271.618
271.614
271.609
271.603
271.596
271.589
271.58
271.572
271.563
271.555
271.546
271.538
271.531
271.525
271.52
271.516
271.513
271.512
271.897
271.896
271.893
271.889
271.884
271.878
271.871
271.863
271.855
271.847
271.838
271.829
271.821
271.813
271.805
271.799
271.794
271.79
271.787
271.786
271.963
271.961
271.959
271.955
271.95
271.943
271.936
271.929
271.92
271.912
271.903
271.894
271.885
271.877
271.87
271.864
271.858
271.854
271.851
271.85
272.239
272.238
272.235
272.231
272.226
272.22
272.213
272.205
272.197
272.188
272.179
272.17
272.162
272.154
272.146
272.14
272.134
272.13
272.127
272.126
273.639
273.638
273.635
273.631
273.626
273.62
273.613
273.605
273.597
273.588
273.579
273.57
273.562
273.554
273.546
273.54
273.535
273.53
273.528
273.526
273.977
273.976
273.973
273.969
273.964
273.958
273.951
273.943
273.935
273.926
273.918
273.909
273.9
273.892
273.885
273.879
273.873
273.869
273.866
273.865
276.569
276.568
276.565
276.561
276.556
276.55
276.543
276.536
276.527
276.519
276.51
276.501
276.493
276.485
276.478
276.472
276.466
276.462
276.46
276.458
277.3
277.299
277.296
277.292
277.287
277.281
277.274
277.267
277.259
277.25
277.242
277.233
277.225
277.217
277.21
277.204
277.199
277.195
277.192
277.19
280.771
280.77
280.768
280.764
280.759
280.753
280.746
280.739
280.731
280.722
280.714
280.705
280.697
280.69
280.683
280.677
280.672
280.668
280.665
280.664
282.32
282.319
282.316
282.313
282.308
282.302
282.295
282.288
282.28
282.272
282.264
282.256
282.248
282.241
282.234
282.228
282.223
282.22
282.217
282.216
286.34
286.339
286.336
286.333
286.328
286.322
286.316
286.308
286.301
286.293
286.285
286.277
286.27
286.263
286.257
286.251
286.247
286.243
286.241
286.24
289.04
289.039
289.036
289.033
289.028
289.022
289.016
289.009
289.001
288.994
288.986
288.978
288.971
288.964
288.958
288.953
288.948
288.945
288.943
288.942
293.387
293.386
293.383
293.38
293.375
293.37
293.364
293.357
293.35
293.343
293.336
293.329
293.322
293.316
293.311
293.307
293.303
293.301
293.299
293.298
313.21
313.209
313.206
313.202
313.196
313.19
313.182
313.174
313.165
313.156
313.147
313.138
313.129
313.121
313.114
313.107
313.102
313.098
313.095
313.093
310.213
310.212
310.209
310.205
310.199
310.193
310.185
310.177
310.168
310.159
310.149
310.14
310.131
310.123
310.116
310.109
310.104
310.099
310.097
310.095
308.365
308.364
308.361
308.357
308.351
308.345
308.337
308.329
308.32
308.311
308.301
308.292
308.283
308.275
308.268
308.261
308.255
308.251
308.248
308.247
305.869
305.868
305.865
305.861
305.855
305.848
305.841
305.832
305.823
305.814
305.805
305.795
305.786
305.778
305.77
305.764
305.758
305.754
305.751
305.75
305.004
305.002
304.999
304.995
304.989
304.983
304.975
304.966