/*--------------------------------*- C++ -*----------------------------------*\
| =========                 |                                                 |
| \\      /  F ield         | OpenFOAM: The Open Source CFD Toolbox           |
|  \\    /   O peration     | Version:  2212                                  |
|   \\  /    A nd           | Website:  www.openfoam.com                      |
|    \\/     M anipulation  |                                                 |
\*---------------------------------------------------------------------------*/
FoamFile
{
    version     2.0;
    format      ascii;
    arch        "LSB;label=32;scalar=64";
    class       volVectorField;
    location    "0.0407";
    object      U;
}
// * * * * * * * * * * * * * * * * * * * * * * * * * * * * * * * * * * * * * //

dimensions      [0 1 -1 0 0 0 0];

internalField   nonuniform List<vector> 
2308
(
(15.0229 -12.9311 -7.44164e-16)
(0.676666 -2.26263 0)
(3.55566 -12.6217 6.17748e-17)
(-15.3065 -31.5855 -2.30108e-16)
(1.57131 19.3086 0)
(-7.73616 15.027 2.34149e-19)
(13.5805 17.8238 1.02084e-19)
(12.6253 12.3073 -3.32691e-16)
(4.46523 16.9575 6.17126e-16)
(4.53835 69.1651 -6.74713e-17)
(3.7023 69.8754 1.20805e-16)
(2.17451 69.3081 -1.82196e-16)
(0.862014 67.2639 9.14601e-17)
(0.199905 64.6824 -4.66802e-17)
(-0.601064 61.2018 8.05837e-18)
(-0.962231 57.4202 6.79139e-17)
(-1.17097 53.4093 9.43952e-18)
(3.1753 51.3811 2.14592e-17)
(3.68359 55.1428 2.84985e-17)
(3.75047 59.1769 2.08475e-18)
(3.70021 63.0783 1.56579e-17)
(3.778 66.5345 -4.54817e-17)
(3.7095 69.1559 5.74884e-17)
(3.49681 71.418 -2.60962e-17)
(3.98223 71.4192 -1.089e-16)
(4.04409 70.5397 -5.11881e-17)
(4.48516 68.9669 2.61166e-17)
(4.83946 65.5345 -2.85113e-17)
(9.09195 25.4703 0)
(-1.14512 49.5175 -1.97747e-16)
(4.93171 59.8142 1.5019e-18)
(4.69219 53.3207 3.79401e-19)
(4.24009 46.1257 -6.40704e-18)
(3.65882 38.4861 5.95516e-18)
(3.10314 30.7595 -6.25463e-18)
(2.66674 23.2778 5.79982e-18)
(2.49498 16.4513 -2.85691e-18)
(2.56608 10.5225 2.81466e-18)
(2.76273 5.60701 -2.76848e-18)
(2.94931 1.69519 1.36519e-18)
(3.13386 -1.67238 2.6885e-18)
(3.29811 -4.56169 3.97197e-18)
(3.49059 -6.83157 -7.8352e-18)
(3.73268 -8.78752 5.15266e-18)
(4.02418 -10.4284 2.53379e-18)
(5.38228 -9.8546 -2.54255e-18)
(5.12055 -8.4672 2.57631e-18)
(5.04026 -6.69503 -3.91969e-18)
(5.16207 -4.57446 -4.31452e-18)
(5.47202 -1.865 6.72984e-18)
(6.08885 1.33781 -1.36743e-18)
(6.79957 5.08312 2.78242e-18)
(7.66645 9.77041 7.06809e-19)
(8.59927 15.4504 -4.29598e-18)
(9.51124 22.0176 -1.45579e-18)
(10.3157 29.2177 2.95454e-18)
(10.8357 36.6268 0)
(10.8962 43.9178 -3.7717e-19)
(10.4451 50.689 -1.25729e-17)
(9.5198 56.6478 -4.3905e-17)
(8.33565 61.8206 5.24757e-17)
(7.07493 64.3892 5.48634e-17)
(5.70692 63.3099 6.37847e-17)
(3.4281 63.5049 3.74676e-20)
(1.11376 61.0801 7.35217e-17)
(-1.20573 60.1733 -1.37416e-16)
(-2.44935 58.9979 -3.18757e-17)
(-3.96582 56.2995 0)
(-5.10358 53.2205 0)
(-5.82368 49.8189 0)
(-6.10988 46.4219 0)
(4.3643 -11.8342 -1.248e-18)
(5.81398 -10.8902 1.25294e-18)
(7.90833 49.7566 -9.82949e-17)
(7.80415 53.8658 -1.96708e-18)
(7.5487 57.727 7.61592e-18)
(7.0402 61.1466 0)
(6.285 63.7247 -1.42145e-17)
(5.41942 65.8412 -1.37911e-17)
(4.33953 66.0987 6.78424e-18)
(3.19251 65.1862 2.69065e-17)
(2.42259 64.1489 0)
(1.37353 61.0879 4.29985e-20)
(-0.00788523 55.6502 4.80214e-20)
(-1.29684 49.3667 -6.12742e-18)
(-2.49505 42.5394 9.06917e-18)
(-3.4727 35.2766 1.52472e-20)
(-4.05196 27.9739 -5.14617e-18)
(-4.10638 20.9833 0)
(-3.52685 14.6598 -7.14538e-19)
(-2.45921 9.20993 4.22199e-18)
(-1.22822 4.70818 -5.54501e-18)
(-0.149715 1.02864 1.86651e-21)
(0.823773 -2.18373 5.38291e-18)
(1.46154 -4.94567 0)
(1.95627 -7.19568 5.2199e-18)
(2.33567 -9.15796 -1.21394e-21)
(2.61785 -10.8531 -2.53537e-18)
(3.80085 47.0838 -8.58259e-17)
(2.80645 -12.3865 -2.49539e-18)
(-0.508642 45.5885 8.75005e-17)
(-5.8665 43.263 -2.07542e-21)
(7.04075 -9.8545 -2.51034e-18)
(6.56381 -9.25626 3.18458e-18)
(6.35735 -8.22604 0)
(6.43993 -6.76827 -9.84835e-19)
(6.84511 -4.9496 2.33272e-18)
(7.59411 -2.65534 2.70608e-18)
(8.85364 0.0841966 -2.74828e-18)
(10.3981 3.28081 0)
(12.2081 7.16756 -7.08114e-19)
(14.0581 11.9332 1.44105e-18)
(15.6926 17.4931 -1.72905e-21)
(16.8684 23.5931 -1.48362e-18)
(17.3778 29.9132 0)
(17.0257 36.1556 2.28513e-18)
(15.8154 41.9434 -9.23306e-18)
(13.837 46.9621 -6.24479e-18)
(11.4531 51.1296 2.57656e-17)
(8.9075 52.9851 9.67865e-17)
(6.26823 51.0573 7.40787e-18)
(2.72317 50.3012 7.1315e-17)
(-0.486015 48.1987 -3.25938e-17)
(-3.56818 47.0014 0)
(-6.06761 45.5529 0)
(-8.09337 43.2462 0)
(-9.60914 40.5282 1.13257e-16)
(-10.5208 37.682 -1.32466e-16)
(-10.7989 35.1017 1.37004e-16)
(14.8411 4.55873 -2.6887e-16)
(-12.3102 5.50468 0)
(-8.6429 18.4263 0)
(-10.2183 12.4657 0)
(12.5514 36.079 1.99001e-16)
(12.9402 39.6677 5.54663e-17)
(12.2601 43.129 -5.12167e-20)
(11.3783 46.5045 -9.18952e-19)
(10.1611 49.5824 9.06913e-19)
(8.60982 51.9715 7.1116e-18)
(6.76594 53.5833 -1.38149e-17)
(4.63218 53.9986 1.29706e-21)
(2.32305 53.3388 0)
(0.167304 52.355 2.9339e-17)
(-2.14346 49.6763 1.90508e-17)
(-4.64095 44.9651 -3.10867e-18)
(-6.94686 39.4811 3.07075e-18)
(-8.82099 33.5665 0)
(-10.0943 27.3501 0)
(-10.5995 21.2386 -3.69132e-19)
(-10.1792 15.5113 0)
(-8.8088 10.4391 2.14785e-18)
(-6.78936 6.13728 -1.03091e-21)
(-4.66227 2.56685 -1.39092e-18)
(-2.7602 -0.533998 0)
(-1.22656 -3.2963 -1.35121e-18)
(-0.176222 -5.68977 1.99343e-18)
(0.561439 -7.73458 -3.2743e-18)
(1.05628 -9.53633 0)
(1.34137 -11.0915 -5.06479e-18)
(1.44706 -12.4707 1.24811e-18)
(1.39078 -13.5992 -4.87606e-22)
(2.90092 -13.6938 0)
(4.72594 -12.9556 -6.14454e-19)
(6.35498 -11.5995 -1.99747e-18)
(9.97127 15.3927 2.91798e-16)
(7.73378 -10.0998 1.5442e-19)
(16.5901 -2.9663 -8.47578e-16)
(18.0461 -12.6866 -1.96311e-16)
(-4.99812 40.5191 0)
(11.8557 5.57763 2.86199e-16)
(4.65544 21.5419 -5.82768e-16)
(4.70254 42.9307 3.59686e-17)
(-10.4879 32.7318 -2.09085e-16)
(1.28293 -14.3877 -1.21058e-18)
(2.98786 -14.8063 -1.20839e-18)
(5.12689 -13.8467 -1.51244e-19)
(6.96349 -11.9761 2.42534e-18)
(8.53788 -9.987 1.51746e-19)
(9.75135 -8.25691 0)
(8.77305 -8.57901 1.23599e-18)
(7.99057 -8.85892 2.51852e-18)
(7.50039 -8.70318 -6.37571e-19)
(7.35176 -8.08292 -2.59762e-18)
(7.58292 -7.03149 -2.9661e-18)
(8.21826 -5.63201 4.01879e-18)
(9.30251 -3.89263 1.35895e-18)
(10.9531 -1.81031 -2.76808e-18)
(13.1289 0.588285 2.10678e-18)
(15.6657 3.35363 -6.23488e-19)
(18.2497 6.70252 0)
(20.5303 10.6454 0)
(22.0867 15.0482 0)
(22.6647 19.6713 3.02553e-18)
(22.0495 24.2858 -1.54134e-18)
(20.3238 28.562 8.09853e-21)
(17.5336 32.1672 -1.27463e-17)
(13.9599 35.0932 0)
(10.3074 36.4291 -1.37603e-17)
(6.45034 35.3584 1.4409e-17)
(2.15845 34.158 3.00421e-17)
(-1.97392 32.4745 1.55227e-17)
(-5.79707 31.0281 6.27885e-17)
(-9.03578 29.5371 -6.26489e-17)
(-11.6179 27.63 0)
(-13.5176 25.4242 1.59202e-17)
(-14.699 23.2806 -3.23553e-17)
(-15.1078 21.5623 -6.63076e-17)
(13.5279 26.1158 3.2749e-17)
(12.3562 -7.91203 0)
(-1.5353 19.6484 -3.20293e-19)
(16.2165 2.48065 3.68791e-16)
(16.4805 5.28616 -7.78106e-17)
(16.6838 8.7252 8.75081e-17)
(16.9678 12.0994 -1.63707e-17)
(17.0005 15.7203 3.19238e-17)
(17.0746 19.2086 -1.531e-17)
(16.8194 23.2071 0)
(16.3641 26.4071 -1.45298e-17)
(15.5824 29.0634 -1.45635e-17)
(14.3096 31.6823 0)
(12.5616 34.0297 0)
(10.3272 35.8909 8.7681e-19)
(7.66303 36.9702 -7.75348e-18)
(4.6466 37.28 0)
(1.44325 36.6782 0)
(-1.91001 35.5915 -9.84083e-18)
(-5.28371 33.284 -6.39404e-18)
(-8.67201 29.5422 1.25493e-17)
(-11.7706 25.3122 3.08784e-18)
(-14.1329 20.7862 7.61636e-19)
(-15.5463 16.2247 3.00947e-18)
(-15.8223 11.9179 -3.33185e-18)
(-14.8578 8.03645 0)
(-12.7236 4.73962 -1.4402e-18)
(-9.93118 2.00269 0)
(-7.11572 -0.409863 0)
(-4.68163 -2.68582 0)
(-2.83704 -4.78957 -5.41752e-18)
(-1.52258 -6.7107 0)
(-0.629631 -8.42141 -2.94701e-18)
(-0.0640474 -9.95824 4.83712e-19)
(0.226733 -11.2784 9.99355e-18)
(0.290528 -12.4194 0)
(0.199738 -13.3055 -4.90027e-18)
(0.0986514 -13.6836 7.52769e-20)
(1.08112 -7.11851 0)
(14.4377 1.24566 4.65715e-16)
(-3.32869 -10.3299 8.20073e-16)
(-13.1456 -33.505 0)
(5.16689 -11.1087 -2.71268e-16)
(17.3118 -8.61505 9.75427e-16)
(-9.47076 30.9945 -4.84449e-19)
(9.06469 34.2043 6.91615e-17)
(10.5289 -6.77178 -1.52299e-19)
(9.46618 -7.21413 -1.24347e-18)
(8.68466 -8.01321 1.26119e-18)
(8.21895 -8.265 0)
(8.12472 -8.07639 0)
(8.44494 -7.4519 1.65295e-19)
(9.22247 -6.50478 -6.72929e-19)
(10.4897 -5.32407 -2.39191e-18)
(12.3067 -3.98606 1.73548e-19)
(14.7787 -2.52093 -3.62774e-19)
(17.7096 -0.917106 -4.39136e-19)
(20.8146 0.865176 1.99813e-18)
(23.5849 2.93029 1.83425e-19)
(25.487 5.34729 -1.49966e-18)
(26.1969 7.98749 0)
(25.5004 10.6038 6.17378e-18)
(23.4191 13.2124 -4.10781e-21)
(20.1472 15.4186 3.21404e-17)
(15.8493 17.1485 -2.63782e-17)
(11.2749 18.0177 0)
(6.49565 17.4061 2.83561e-17)
(1.52056 16.3205 -8.79788e-17)
(-3.29805 15.175 4.51523e-17)
(-7.65812 13.7915 6.09768e-17)
(-11.3702 12.5242 2.30392e-19)
(-14.3254 11.1931 -6.1688e-17)
(-16.4765 9.7801 6.26502e-17)
(-17.8188 8.52649 6.39011e-17)
(-18.3144 7.58334 -6.40059e-17)
(-14.8312 20.2014 -1.33302e-16)
(9.18593 8.69131 -1.95764e-19)
(17.8366 -19.1603 -2.88438e-19)
(17.9298 -4.40948 -6.50401e-17)
(18.539 -3.03462 -8.49519e-18)
(19.0327 -0.716132 -2.4932e-17)
(19.3964 1.77455 -8.05161e-18)
(19.6174 4.43091 0)
(19.7393 6.93427 1.52524e-17)
(19.4725 9.45379 -7.43739e-18)
(18.9684 11.7012 -7.30329e-18)
(17.9721 13.5208 3.66381e-18)
(16.4086 15.1757 3.60938e-18)
(14.2507 16.6324 7.10536e-18)
(11.4822 17.7325 0)
(8.18289 18.2259 6.8815e-18)
(4.47062 18.2168 -6.65957e-18)
(0.41964 17.5476 -1.04147e-19)
(-3.89356 16.4956 -1.96374e-17)
(-8.03182 14.6569 1.60776e-18)
(-12.0492 12.1049 -7.89331e-18)
(-15.5389 9.38514 0)
(-18.0325 6.57257 -2.48813e-18)
(-19.2929 4.02683 1.84065e-19)
(-19.1657 1.8934 3.34419e-18)
(-17.6385 0.135242 0)
(-14.9096 -1.23988 0)
(-11.643 -2.42891 -8.8948e-20)
(-8.50736 -3.67291 -2.71224e-18)
(-5.90683 -5.02675 2.75991e-18)
(-3.94248 -6.43919 3.39917e-18)
(-2.5285 -7.84522 -6.67997e-19)
(-1.56546 -9.14902 1.97361e-18)
(-0.951929 -10.3441 -6.46756e-19)
(-0.634345 -11.343 -5.09588e-18)
(-0.546864 -12.1527 4.98639e-18)
(-0.575846 -12.5846 1.10375e-17)
(-0.573919 -12.4527 4.81072e-18)
(-0.507173 -11.6314 0)
(-0.109197 -13.7763 -2.44018e-18)
(1.10012 -15.073 6.80696e-22)
(3.19312 -15.9369 2.67776e-18)
(5.69621 -14.6157 8.88491e-19)
(7.63229 -11.9631 -1.19124e-18)
(9.17912 -8.84023 2.37806e-18)
(10.1664 -5.57881 -2.38556e-18)
(10.7341 -2.18976 -1.19627e-18)
(-2.69693 -9.99485 -3.09366e-16)
(1.02552 -9.73189 -7.88051e-17)
(-2.06993 2.94444 -1.61514e-16)
(15.4015 -4.39876 -4.779e-16)
(14.6887 -10.7459 -2.47684e-16)
(0.370369 2.864 9.73448e-17)
(-18.0639 7.15155 0)
(-13.9587 19.3503 2.69267e-16)
(10.927 4.31098 7.0574e-16)
(14.1881 -2.15461 2.88757e-16)
(12.2843 -5.70772 -3.02084e-16)
(1.15753 24.0974 5.9112e-16)
(19.1238 -11.6467 0)
(19.7085 -10.5156 8.35064e-18)
(20.3252 -9.3316 -2.03256e-18)
(20.7611 -7.87623 -3.76191e-17)
(21.0797 -6.37223 7.75332e-18)
(21.1828 -5.03336 0)
(20.9567 -3.75405 6.44651e-21)
(20.3425 -2.66694 -1.83237e-18)
(19.1781 -1.86621 0)
(17.364 -1.22268 -3.57324e-18)
(14.8676 -0.718368 -3.52976e-18)
(11.7089 -0.450245 0)
(7.94027 -0.542348 8.562e-19)
(3.7115 -0.942026 -8.46609e-19)
(-0.76528 -1.62212 8.32549e-19)
(-5.58589 -2.4297 1.22841e-17)
(-10.1892 -3.51358 0)
(-14.4894 -4.7637 1.58434e-18)
(-18.0216 -5.91773 -7.79916e-19)
(-20.2989 -6.75468 1.92186e-19)
(-21.1231 -7.15402 5.68671e-19)
(-20.5029 -7.23924 -3.36592e-18)
(-18.4415 -6.90897 0)
(-15.396 -6.63206 7.2518e-19)
(-12.049 -6.53359 1.42821e-18)
(-8.99847 -6.76383 1.41036e-18)
(-6.48471 -7.32162 -3.44157e-21)
(-4.56367 -8.10172 -6.80655e-19)
(-3.17176 -8.99971 -2.00813e-18)
(-2.21586 -9.9013 -1.31941e-18)
(-1.59236 -10.7586 -1.29524e-18)
(-1.2516 -11.4654 0)
(-1.08125 -11.9899 -5.00838e-18)
(-0.973038 -12.209 -4.91997e-18)
(-0.694078 -11.8486 -3.62164e-18)
(-0.240428 -10.5483 -6.49308e-18)
(0.231036 -12.5967 2.90655e-18)
(-1.01083 -13.1722 -2.31974e-18)
(-0.512458 -14.4937 0)
(1.15 -15.5255 1.16545e-18)
(3.79745 -16.5595 1.16876e-18)
(6.64531 -15.0831 -2.33379e-18)
(9.01688 -13.2223 2.33402e-18)
(11.508 -11.7732 3.60972e-21)
(13.1184 -10.9021 -1.18732e-18)
(13.4405 -10.1789 3.52897e-18)
(12.6167 -9.17517 -3.57227e-18)
(10.8157 0.399756 6.01224e-19)
(10.837 -5.67526 -4.58513e-19)
(9.82781 -6.10455 9.34169e-19)
(9.10996 -7.34879 -3.15963e-18)
(8.6889 -7.95193 1.20444e-18)
(8.63268 -8.14114 0)
(8.97444 -7.94267 1.65493e-19)
(9.81524 -7.45208 2.3643e-18)
(11.1309 -6.81463 -3.43092e-19)
(12.9742 -6.16626 8.70216e-19)
(15.4289 -5.55334 4.83683e-22)
(18.3947 -5.04342 3.61649e-19)
(21.668 -4.67776 -1.82566e-19)
(24.6943 -4.33844 1.29501e-18)
(26.9258 -3.94391 -4.50728e-18)
(27.8455 -3.30909 4.5421e-21)
(27.2137 -2.65855 3.1038e-18)
(25.2749 -1.88165 -3.15901e-18)
(21.8124 -1.11305 -2.57661e-17)
(17.2225 -0.577931 2.63354e-17)
(12.059 -0.333077 0)
(6.6232 -0.882364 -5.5854e-17)
(1.11141 -1.55218 4.27617e-17)
(-4.17657 -2.25579 -4.39521e-17)
(-8.92558 -3.18022 0)
(-12.9321 -3.90581 0)
(-16.1111 -4.57579 0)
(-18.3839 -5.16004 -7.66032e-18)
(-19.7603 -5.5474 -1.89899e-21)
(-20.3211 -5.54358 1.25044e-16)
(6.8983 9.46484 -3.17341e-16)
(-17.2439 7.25268 1.35217e-16)
(-12.6031 19.2776 -1.28093e-16)
(13.6622 21.6828 1.64907e-17)
(12.5186 -0.353586 3.41949e-16)
(14.8983 -6.72985 2.91124e-16)
(16.0417 -8.97018 -2.49261e-19)
(17.0964 -11.8936 -2.97581e-16)
(16.501 -20.7929 -2.05306e-16)
(18.6488 -11.2287 -2.0151e-16)
(18.909 -17.0193 7.26845e-17)
(19.3303 -16.9871 -1.67642e-17)
(20.0229 -16.8876 -3.25681e-17)
(20.6116 -16.4789 0)
(21.1076 -16.0519 3.14145e-17)
(21.3935 -15.6594 0)
(21.4593 -15.3919 0)
(21.1792 -15.2781 7.43146e-18)
(20.4511 -15.3043 1.83201e-18)
(19.1308 -15.5118 0)
(17.14 -15.8186 3.56403e-18)
(14.4347 -16.2293 -1.67591e-20)
(11.0629 -16.7103 -5.53252e-21)
(7.10572 -17.3236 3.42917e-18)
(2.7704 -18.0869 3.79881e-18)
(-1.82438 -18.5423 -3.75039e-18)
(-6.78457 -18.7549 -6.7616e-18)
(-11.4736 -18.9784 2.01757e-19)
(-15.6185 -18.944 -1.19366e-18)
(-18.7872 -18.4561 3.9032e-19)
(-20.5249 -17.5248 1.54534e-18)
(-21.0095 -15.9831 -1.14218e-18)
(-19.8596 -14.2336 1.50257e-18)
(-17.5216 -12.4341 1.1696e-21)
(-14.5581 -10.9845 -3.64015e-18)
(-11.5046 -9.97606 1.43596e-18)
(-8.7729 -9.47338 1.41292e-18)
(-6.50999 -9.41495 -2.0835e-18)
(-4.76015 -9.64568 2.73108e-18)
(-3.47794 -10.0642 2.69369e-18)
(-2.60162 -10.5673 0)
(-2.04273 -11.0764 7.80912e-18)
(-1.73183 -11.4752 1.27812e-18)
(-1.54471 -11.7244 1.25467e-18)
(-1.32489 -11.7371 0)
(-0.861592 -11.2274 0)
(-0.262829 -9.8991 3.55776e-18)
(0.874965 -11.81 2.49892e-21)
(1.32475 -3.26498 -5.71063e-19)
(1.76406 -2.53398 5.65273e-19)
(1.25481 -4.81454 0)
(1.21073 -10.6083 0)
(2.15181 -14.6321 -5.7006e-19)
(4.85652 -16.2171 1.71941e-18)
(6.49872 -12.0583 0)
(6.9934 -6.34758 -1.14811e-18)
(7.64033 0.652695 -1.14246e-18)
(7.66338 6.57152 2.24299e-18)
(8.1851 11.4377 -1.12973e-18)
(9.22035 13.4206 3.44319e-18)
(10.4438 12.5416 5.30561e-19)
(12.0641 -8.44914 6.08017e-19)
(10.6453 1.84814 1.20628e-18)
(10.9487 -5.04255 0)
(9.91531 -5.24989 -4.67874e-19)
(9.29337 -6.80305 -1.18806e-19)
(8.88786 -7.70069 7.27025e-19)
(8.84206 -8.24378 -1.63562e-19)
(9.18552 -8.42864 -3.34065e-19)
(10.0081 -8.38581 -2.70845e-18)
(11.2728 -8.25082 6.87997e-19)
(13.0153 -8.18511 -1.74806e-18)
(15.2734 -8.26124 8.86438e-19)
(18.0104 -8.5843 -3.60338e-19)
(21.0548 -9.26338 0)
(24.0144 -10.2845 0)
(26.3915 -11.4904 0)
(27.6038 -12.6967 -1.53006e-18)
(27.1714 -13.9561 0)
(25.5948 -14.7746 5.24281e-21)
(22.2401 -15.4961 1.28637e-17)
(17.6529 -16.0488 -6.55413e-18)
(12.3 -16.4514 1.34347e-17)
(6.63685 -17.2189 4.13748e-17)
(0.913951 -17.6762 -3.38934e-21)
(-4.50819 -18.0998 -1.43877e-17)
(-9.37253 -18.4303 -2.90783e-17)
(-13.494 -18.478 5.83524e-17)
(-16.7138 -18.3758 -2.96173e-17)
(-19.0225 -18.09 -7.02829e-21)
(-20.4584 -17.6495 1.51214e-17)
(-21.0543 -16.8811 7.14269e-20)
(-20.2395 -5.2667 -1.92235e-16)
(8.84475 5.5976 -3.29302e-16)
(4.48128 8.74826 6.19987e-16)
(1.92872 4.37634 0)
(-19.5604 -4.45582 -1.32788e-16)
(17.3098 -17.3017 5.32611e-16)
(16.9798 -14.9591 -2.86581e-16)
(16.2993 -12.4753 -5.54198e-16)
(-10.9258 17.8765 -4.33562e-17)
(14.0049 13.2666 -4.22996e-17)
(9.36936 29.5558 -1.65125e-17)
(-15.8958 7.86903 1.11459e-19)
(13.5345 -4.48378 -3.37547e-16)
(15.4652 -10.2426 2.80792e-16)
(6.04903 -16.0365 -5.64361e-19)
(3.28843 -17.0697 -5.65238e-19)
(-4.04646 -16.5943 0)
(-3.74873 -17.6831 -5.60608e-19)
(0.931202 -19.1246 5.61117e-19)
(7.41459 -21.0159 -5.46636e-19)
(12.3156 -20.3842 5.6029e-19)
(14.4884 -20.3805 1.11619e-18)
(16.1379 -21.6292 -1.13713e-18)
(13.4092 -21.8388 2.26041e-18)
(9.17268 -20.0582 -3.48053e-18)
(7.56817 -18.8682 0)
(8.71594 -18.3346 1.41418e-20)
(10.7677 -17.4666 0)
(12.4902 13.1131 -3.49025e-18)
(12.0331 -7.08917 1.18253e-18)
(10.7868 3.16132 0)
(11.109 -4.49428 0)
(9.82378 -4.29466 3.12785e-19)
(9.28935 -6.24953 -3.98114e-20)
(8.8651 -7.41926 0)
(8.79768 -8.29814 -1.63749e-19)
(9.12063 -8.86639 1.67098e-19)
(9.85178 -9.24067 6.79577e-19)
(10.9934 -9.55061 3.44381e-19)
(12.5494 -9.95482 7.00331e-19)
(14.5171 -10.5441 2.07883e-22)
(16.87 -11.4323 -1.44344e-18)
(19.4855 -12.7616 3.65837e-19)
(22.0844 -14.6039 1.48756e-18)
(24.2719 -16.8565 3.77323e-19)
(25.5516 -19.3716 -7.66502e-19)
(25.4716 -21.8486 1.55479e-18)
(24.0365 -24.0781 -4.73491e-18)
(21.0606 -26.0142 -6.4207e-18)
(16.8663 -27.5948 3.28427e-18)
(11.7985 -28.7558 -6.68574e-18)
(6.38044 -29.8792 0)
(0.859416 -30.3699 -2.09029e-17)
(-4.39249 -30.6589 4.27131e-17)
(-9.09937 -30.5049 0)
(-13.1101 -29.9862 0)
(-16.2417 -29.1808 0)
(-18.4715 -28.1265 1.10373e-17)
(-19.8713 -26.9775 -1.39811e-20)
(-20.5239 -25.5521 -8.43951e-20)
(-21.0267 -15.9275 -1.24031e-16)
(-3.79099 13.982 -3.14155e-16)
(10.6745 1.41433 -1.71113e-19)
(-11.0582 -27.2715 2.5201e-16)
(2.83267 -8.05189 0)
(18.8431 -21.0191 -1.56935e-17)
(19.5257 -21.5783 0)
(20.1003 -21.9003 0)
(20.5182 -22.301 7.74857e-18)
(20.7529 -22.7902 -1.52964e-17)
(20.7159 -23.4216 0)
(20.3199 -24.2303 7.43209e-18)
(19.4907 -25.1487 0)
(18.0802 -26.221 -1.80716e-18)
(16.0325 -27.3309 1.77431e-18)
(13.3062 -28.4437 -8.80631e-18)
(9.96252 -29.4651 9.76597e-21)
(6.09206 -30.457 -3.42267e-18)
(1.87751 -31.25 6.76227e-18)
(-2.66972 -31.2624 4.99277e-18)
(-7.28963 -30.8495 -4.9319e-18)
(-11.5863 -30.176 0)
(-15.2002 -28.9329 1.50627e-21)
(-17.7681 -27.0819 -2.35829e-18)
(-19.0182 -24.6933 0)
(-19.0046 -21.9016 0)
(-17.7299 -18.9855 7.53255e-19)
(-15.5146 -16.3487 2.22683e-18)
(-12.9441 -14.2557 -1.46208e-18)
(-10.3739 -12.7319 1.43712e-18)
(-8.06657 -11.7549 -2.82921e-18)
(-6.13385 -11.2213 -6.97175e-19)
(-4.62165 -10.9967 -5.48735e-18)
(-3.50196 -10.9918 2.69949e-18)
(-2.75368 -11.1136 0)
(-2.3021 -11.2812 -5.22172e-18)
(-2.05395 -11.3889 -2.56211e-18)
(-1.87223 -11.4022 0)
(-1.58901 -11.2528 2.47288e-18)
(-0.982532 -10.7528 1.41796e-21)
(-0.296159 -9.63631 3.56363e-18)
(0.955023 -11.3918 3.48966e-18)
(1.19748 -4.55412 0)
(5.11342 -15.3759 -1.13711e-18)
(2.30671 6.59358 -3.08298e-16)
(6.71934 5.86583 -6.33705e-16)
(1.44271 -9.50606 1.20953e-16)
(-14.5674 7.14831 -1.20577e-16)
(14.3621 -7.75906 5.77185e-16)
(-18.3848 -3.40588 -2.6072e-19)
(11.3533 -14.7282 5.92627e-19)
(15.5645 15.1555 2.92085e-18)
(11.8591 -4.60035 -2.36908e-18)
(11.4739 4.48989 0)
(10.9472 -3.61576 0)
(9.55375 -3.13561 0)
(9.09763 -5.64982 0)
(8.63368 -7.0599 6.48451e-19)
(8.53224 -8.28987 -3.28457e-19)
(8.77524 -9.21878 1.67151e-19)
(9.39158 -9.98194 -1.02015e-18)
(10.3637 -10.6727 6.90443e-19)
(11.6848 -11.4444 3.50648e-19)
(13.327 -12.3945 -5.34064e-19)
(15.2575 -13.6399 0)
(17.3785 -15.3047 6.50585e-23)
(19.4738 -17.4874 -3.72057e-19)
(21.2641 -20.1845 3.77837e-19)
(22.365 -23.2586 7.66415e-19)
(22.3802 -26.4151 -8.7575e-19)
(21.2168 -29.4937 8.87869e-19)
(18.7558 -32.2884 -2.4042e-18)
(15.2086 -34.6588 -4.88744e-18)
(10.7815 -36.4559 3.29761e-18)
(5.95952 -37.9506 0)
(0.843249 -38.5929 -2.55668e-20)
(-3.98363 -38.9418 -2.10604e-17)
(-8.2964 -38.5219 1.77274e-17)
(-11.9495 -37.6812 -3.60135e-18)
(-14.861 -36.4132 0)
(-17.0241 -34.8855 -3.63707e-18)
(-18.405 -33.2837 5.08901e-17)
(-19.1576 -31.453 -2.85518e-17)
(-20.5906 -24.2585 1.17303e-16)
(-6.27345 11.4029 6.39822e-16)
(12.2059 -2.74251 -2.02362e-19)
(3.79964 4.00266 -2.85422e-19)
(4.78689 7.40318 1.63634e-18)
(6.1523 15.3721 2.68906e-19)
(4.29735 12.0745 0)
(3.90135 -2.51755 -5.47603e-19)
(4.28657 -12.0965 5.52279e-19)
(3.85096 -11.0896 -8.22243e-19)
(2.53877 4.23508 -1.9244e-18)
(-0.807292 11.5374 2.20932e-18)
(-1.20393 21.8263 0)
(0.438165 30.1682 -1.05571e-18)
(2.67366 31.5929 3.27785e-18)
(4.97578 26.9832 -2.22482e-18)
(7.27695 21.8407 -1.04956e-18)
(11.1409 22.3209 1.70315e-18)
(18.1556 28.3998 -2.2518e-18)
(-5.56838 7.94296 6.15106e-16)
(15.6559 -12.894 -2.62769e-16)
(16.163 -14.8974 2.64716e-16)
(16.4699 -17.0245 5.24434e-16)
(16.5664 -19.052 2.46127e-16)
(-2.32625 23.9817 -3.22229e-19)
(-10.1978 8.14142 1.82398e-16)
(5.75935 -10.8806 0)
(-13.0699 -30.9368 0)
(18.0025 -23.7435 0)
(18.5374 -24.6529 3.92087e-18)
(19.0069 -25.5752 -7.80398e-18)
(19.3107 -26.5528 1.9331e-20)
(19.4096 -27.6469 2.29005e-17)
(19.2411 -28.9021 -1.50652e-17)
(18.7336 -30.3121 1.27662e-20)
(17.8081 -31.8364 7.30328e-18)
(16.3541 -33.4613 -1.26398e-17)
(14.3415 -35.0828 1.8122e-18)
(11.7537 -36.6049 7.04921e-18)
(8.64992 -37.8577 -1.73774e-18)
(5.09373 -38.9182 1.70654e-18)
(1.1299 -39.5105 -5.07142e-18)
(-3.0613 -39.1104 1.66813e-18)
(-7.05255 -38.1548 4.92611e-18)
(-10.7009 -36.7193 -3.24221e-18)
(-13.6244 -34.6074 3.19628e-18)
(-15.5663 -31.854 1.18229e-18)
(-16.3767 -28.6639 2.72342e-18)
(-16.1406 -25.2466 -3.44615e-18)
(-14.9368 -21.9085 2.26785e-18)
(-13.0866 -19.0017 -4.09167e-18)
(-11.0064 -16.6648 -2.93262e-18)
(-8.94676 -14.8913 2.88627e-18)
(-7.07706 -13.6154 1.41973e-18)
(-5.4875 -12.7296 -1.39722e-18)
(-4.22966 -12.1376 0)
(-3.31176 -11.7577 -2.70522e-18)
(-2.73091 -11.5058 1.329e-18)
(-2.42545 -11.3253 -2.60947e-18)
(-2.30075 -11.139 -3.85072e-18)
(-2.21536 -10.9236 -2.52264e-18)
(-2.01436 -10.695 -4.94912e-18)
(-1.48802 -10.4413 1.21081e-18)
(-0.785898 -9.76037 -1.18854e-18)
(-0.0734213 -11.6744 -2.33534e-18)
(1.17681 -6.98245 0)
(3.11162 -15.9253 0)
(4.87851 -1.36737 0)
(1.66482 -10.0901 0)
(-20.5182 -14.4124 -3.01246e-19)
(-13.2279 8.54872 6.60001e-16)
(0.432739 3.4798 3.08034e-16)
(8.90827 2.26494 3.17506e-16)
(4.63926 4.91573 6.24596e-16)
(-4.81521 17.9405 -3.11147e-16)
(1.36707 -9.50809 -1.03326e-16)
(0.812329 -4.45937 0)
(-5.88082 21.6624 -3.48907e-16)
(-16.6639 -2.33099 -1.40281e-16)
(-19.12 -30.1432 -5.19282e-17)
(0.301681 28.9888 -9.13594e-16)
(-1.86183 -9.90326 3.28675e-16)
(-9.49785 -24.4712 2.50437e-16)
(1.11364 -8.88652 -5.44281e-17)
(23.8882 36.63 -1.1006e-18)
(10.1184 -6.10905 -2.91935e-19)
(17.7783 18.1533 -9.04513e-19)
(11.1796 -0.575467 -3.31611e-21)
(12.1888 6.12447 0)
(10.3232 -1.8959 0)
(9.13471 -1.80885 0)
(8.6728 -4.92812 -1.59528e-19)
(8.15918 -6.58084 -2.02926e-19)
(8.03083 -8.20274 2.05668e-19)
(8.18822 -9.48174 -1.67598e-19)
(8.68288 -10.5876 4.25357e-19)
(9.48303 -11.5904 -5.1873e-19)
(10.569 -12.6521 0)
(11.899 -13.8641 0)
(13.4282 -15.3224 0)
(15.065 -17.1192 0)
(16.6535 -19.36 0)
(17.9812 -22.0535 0)
(18.7813 -25.1532 -1.919e-19)
(18.7832 -28.4695 7.77235e-19)
(17.8737 -31.8165 0)
(15.8986 -34.97 -2.00402e-18)
(13.0198 -37.7485 3.65147e-18)
(9.31425 -39.9578 3.29654e-18)
(5.1289 -41.5987 0)
(0.780566 -42.5497 1.02722e-17)
(-3.40296 -42.8427 -1.04205e-17)
(-7.22402 -42.4307 -3.50042e-18)
(-10.5115 -41.5385 7.12957e-18)
(-13.1558 -40.2512 -1.07993e-17)
(-15.1248 -38.6952 5.41677e-18)
(-16.4616 -36.9347 -1.44336e-17)
(-17.2145 -35.2733 3.59147e-18)
(-17.7797 -33.2168 1.12474e-16)
(-8.03142 5.24354 3.42374e-16)
(14.7237 -14.4393 5.01084e-16)
(13.9379 -13.4129 2.46756e-16)
(7.26895 -24.3438 0)
(10.9389 -23.8718 -3.56063e-21)
(8.56008 -26.3155 -5.54088e-19)
(2.61898 -16.8823 -2.76722e-19)
(0.0459143 -16.3974 -6.75187e-20)
(-4.78979 -25.4911 6.76347e-20)
(3.91107 -24.8524 0)
(17.7463 -29.5939 0)
(25.533 -27.7266 8.51833e-19)
(12.7646 -26.0113 -2.13945e-18)
(4.31253 -31.2364 2.78825e-18)
(-0.0757454 -33.5418 0)
(-0.507707 -34.3367 -2.17082e-18)
(2.42053 -34.1934 2.18774e-18)
(4.83691 -34.9977 6.17329e-19)
(10.0475 -37.3958 6.01643e-19)
(7.13965 -37.5183 0)
(-0.591788 -18.1405 0)
(10.3673 19.6325 0)
(15.4392 -14.6529 2.54479e-16)
(15.5542 -16.2092 0)
(15.4505 -17.773 -5.19821e-16)
(15.254 -19.2498 2.58671e-16)
(14.8414 -20.4742 4.63984e-16)
(3.94917 -9.21139 -8.66585e-17)
(10.7777 -4.56175 3.03471e-16)
(15.7231 -23.937 8.34512e-18)
(16.455 -25.113 -6.4612e-17)
(17.0443 -26.3998 2.77633e-17)
(17.4488 -27.6846 -3.13702e-17)
(17.659 -29.0592 -1.35149e-17)
(17.6495 -30.533 1.90991e-17)
(17.3729 -32.1332 3.75311e-18)
(16.7739 -33.8429 -1.85506e-17)
(15.7923 -35.6288 1.09945e-17)
(14.3745 -37.4271 0)
(12.494 -39.139 -8.89685e-18)
(10.1339 -40.656 5.29411e-18)
(7.34588 -41.9149 8.67438e-18)
(4.19694 -42.8527 1.70018e-18)
(0.65642 -43.264 -6.76824e-18)
(-2.90591 -42.7157 -3.33676e-18)
(-6.20905 -41.3609 0)
(-9.16036 -39.4768 0)
(-11.4269 -36.932 -8.00083e-19)
(-12.8597 -33.8448 -3.94646e-19)
(-13.3716 -30.441 3.89549e-18)
(-13.0823 -26.9663 7.71918e-19)
(-12.0875 -23.6869 -2.64667e-18)
(-10.6442 -20.8355 1.06669e-22)
(-9.02781 -18.4768 0)
(-7.4103 -16.592 0)
(-5.9268 -15.1291 -2.8477e-18)
(-4.66534 -13.9885 4.20432e-18)
(-3.67157 -13.0849 -1.37875e-18)
(-2.97661 -12.3612 7.79923e-22)
(-2.57909 -11.7505 1.33232e-18)
(-2.4342 -11.2145 1.30889e-18)
(-2.4756 -10.7011 7.71988e-18)
(-2.56455 -10.1912 0)
(-2.64309 -9.83607 3.71253e-18)
(-2.54628 -9.77283 -3.64563e-18)
(-1.73283 -8.93472 2.37747e-18)
(-2.47816 -11.6789 -2.33911e-18)
(0.923789 -7.27499 2.29745e-18)
(-1.34321 -17.0236 0)
(6.60244 -3.12095 0)
(-0.763533 -26.8874 -1.13602e-18)
(-7.11553 1.7015 6.05648e-16)
(-20.2977 -22.2654 -1.20951e-16)
(14.2118 -11.3856 -2.58544e-16)
(-4.94434 -3.04928 6.05635e-16)
(-3.051 -1.1686 2.15024e-19)
(-1.07411 -0.0384827 6.19677e-16)
(-19.4957 -12.6999 1.34143e-16)
(10.8345 -1.70125 -6.75586e-16)
(2.64743 2.91033 0)
(6.95107 2.24754 0)
(0.813659 -6.28584 -5.96837e-17)
(-4.06529 -11.6181 -3.12528e-16)
(6.06178 -12.9904 2.39635e-17)
(-7.80908 23.0213 -5.4505e-16)
(-15.0555 -33.5337 -6.07769e-17)
(-10.1199 2.3123 -3.78456e-16)
(1.47808 -9.85935 0)
(1.78976 -10.512 -5.30193e-17)
(-15.1657 -35.4293 0)
(-15.0884 -37.0878 1.85274e-18)
(-14.4009 -38.7736 3.6477e-18)
(-13.1624 -40.3968 1.3529e-18)
(-11.3764 -41.8398 2.24014e-19)
(-9.04628 -42.9617 0)
(-6.19588 -43.679 4.37336e-18)
(-2.92091 -43.8775 -4.32682e-18)
(0.575582 -43.344 1.69692e-18)
(4.18492 -42.2261 -3.34142e-18)
(7.61855 -40.4833 8.23083e-19)
(10.5809 -38.131 0)
(12.9039 -35.3252 1.59845e-18)
(14.49 -32.2346 -7.90355e-19)
(15.2563 -29.0342 7.77563e-19)
(15.3301 -25.9289 -1.34342e-18)
(14.8 -23.0668 1.5372e-18)
(13.885 -20.5568 -1.06204e-21)
(12.737 -18.4132 -7.81724e-19)
(11.522 -16.6013 3.62035e-19)
(10.3483 -15.0383 -4.01586e-19)
(9.2985 -13.6569 0)
(8.41948 -12.3755 1.73015e-19)
(7.76328 -11.1071 -8.51718e-20)
(7.36978 -9.69864 -3.352e-19)
(7.26414 -8.09344 2.86094e-19)
(7.41997 -6.0695 4.05605e-20)
(7.93525 -4.13073 -1.59352e-19)
(8.55272 -0.504958 0)
(9.29767 0.430861 0)
(12.0388 7.86267 -6.01099e-19)
(10.3417 4.41306 3.25797e-18)
(17.5783 19.9576 -5.89331e-19)
(9.13963 3.51306 0)
(21.527 37.8237 2.19156e-18)
(-0.926313 -6.61853 -2.82699e-20)
(1.9716 -10.6651 2.80581e-16)
(14.3544 6.85736 1.00563e-18)
(11.3356 7.93688 0)
(10.4169 16.7553 -2.74448e-19)
(14.3294 27.6948 2.8067e-19)
(14.5125 31.7222 6.54682e-19)
(-0.00826582 29.243 -5.3011e-19)
(2.97997 14.5844 1.25815e-19)
(3.54088 -10.8058 2.53976e-19)
(1.85276 1.39305 1.84434e-18)
(-1.02673 33.7375 -2.65798e-18)
(-17.5808 47.9597 -2.14342e-18)
(-22.6858 51.1771 2.07556e-18)
(-15.7416 49.8777 -2.34659e-19)
(-12.335 46.3176 4.64297e-19)
(-7.57521 39.9426 -2.14011e-18)
(-3.76134 36.1067 -4.76229e-19)
(4.47308 35.6882 2.13877e-18)
(14.322 55.9483 0)
(13.7739 59.6607 9.7554e-19)
(6.15669 55.6411 -4.98516e-19)
(-9.38306 -1.37204 3.14637e-16)
(-19.1882 -27.7613 -1.05943e-16)
(-6.75212 -5.54451 -2.98312e-16)
(1.1054 -8.69466 0)
(1.16188 -8.8506 0)
(1.21136 -8.91494 -1.00943e-16)
(1.18202 -9.19695 -2.52645e-17)
(1.09328 -9.48193 -3.14891e-17)
(1.45583 -10.2296 -7.6244e-17)
(1.86865 -10.9619 1.04702e-16)
(2.37098 -11.6445 5.61446e-17)
(-10.5106 -28.9027 0)
(1.84721 -10.7706 -5.48171e-17)
(-4.84535 -12.6482 3.09465e-19)
(-2.88002 -9.45996 2.8096e-16)
(-4.01489 -11.0853 -2.67624e-16)
(-5.52451 -6.84403 -3.05676e-16)
(-3.93224 -4.89942 0)
(-2.24541 -3.51232 0)
(-18.0743 -11.0377 2.83666e-16)
(-8.10612 -3.81238 5.94916e-16)
(1.03572 -8.25288 -7.59439e-17)
(14.7673 -15.3987 2.56113e-16)
(14.513 -16.3958 -2.62261e-16)
(14.0661 -17.3727 0)
(13.5786 -18.2025 -5.44864e-16)
(12.9512 -18.7778 2.71557e-16)
(13.9426 -20.9405 -3.60373e-16)
(8.40284 -14.6618 -2.22561e-16)
(13.0593 -21.9387 6.8775e-17)
(13.8658 -23.6084 -7.58682e-17)
(14.5835 -25.1286 3.29434e-17)
(15.1303 -26.7247 -3.21598e-17)
(15.5099 -28.3504 0)
(15.6846 -30.0455 -1.94066e-18)
(15.6275 -31.8051 -2.87105e-18)
(15.3077 -33.6271 1.12911e-17)
(14.6922 -35.4854 3.69019e-18)
(13.7474 -37.3437 -1.8306e-17)
(12.4404 -39.1345 7.23714e-18)
(10.7411 -40.7772 8.89531e-18)
(8.66862 -42.191 -7.0467e-18)
(6.24302 -43.3073 4.33334e-18)
(3.48469 -44.0279 -4.28864e-18)
(0.479018 -44.1681 -1.69055e-18)
(-2.44283 -43.4631 5.00773e-18)
(-5.06009 -41.9437 8.23808e-19)
(-7.33292 -39.8778 3.25006e-18)
(-9.05706 -37.303 -3.2047e-18)
(-10.1134 -34.3079 0)
(-10.47 -31.0919 -7.79557e-19)
(-10.2095 -27.8762 -3.84346e-19)
(-9.44419 -24.8668 -3.79027e-18)
(-8.35583 -22.1969 3.35862e-18)
(-7.12375 -19.9143 -3.67807e-19)
(-5.8764 -18.001 2.8987e-18)
(-4.7266 -16.398 -5.34966e-18)
(-3.76478 -15.0436 2.80813e-18)
(-3.02976 -13.8776 1.38086e-18)
(-2.54714 -12.8453 6.79359e-19)
(-2.31543 -11.8984 -1.33233e-18)
(-2.31261 -10.9992 3.93251e-18)
(-2.51014 -10.1064 -3.85841e-18)
(-2.79211 -9.17758 -1.2643e-18)
(-3.12377 -8.40316 -3.71878e-18)
(-3.66282 -8.36541 4.86776e-18)
(-2.49353 -5.85164 -3.58211e-18)
(-5.39349 -10.1793 2.36166e-18)