/*--------------------------------*- C++ -*----------------------------------*\
| =========                 |                                                 |
| \\      /  F ield         | OpenFOAM: The Open Source CFD Toolbox           |
|  \\    /   O peration     | Version:  2212                                  |
|   \\  /    A nd           | Website:  www.openfoam.com                      |
|    \\/     M anipulation  |                                                 |
\*---------------------------------------------------------------------------*/
FoamFile
{
    version     2.0;
    format      ascii;
    arch        "LSB;label=32;scalar=64";
    class       volScalarField;
    location    "0.041";
    object      k;
}
// * * * * * * * * * * * * * * * * * * * * * * * * * * * * * * * * * * * * * //

dimensions      [0 2 -2 0 0 0 0];

internalField   nonuniform List<scalar> 
7700
(
4.1862e+06
2.25675e+06
1.30464e+06
789865
498166
325813
219904
152536
108370
78638.1
58147.6
43729.5
33395.2
25865.5
20299
16131.1
12975.9
10565.4
8710.4
7276.09
6165.02
5306.29
4648.04
4152.4
3791.96
3547.43
3406.02
3360.46
3408.43
3552.37
3799.55
4162.8
4661.44
5322.93
6185.21
7300.21
8738.94
10598.9
13015.3
16177.3
20353.2
25929.2
33470.5
43818.8
58253.7
78764.1
108519
152708
220096
326007
498315
789855
1.30432e+06
2.25552e+06
4.18303e+06
4.21264e+06
2.26423e+06
1.30617e+06
789741
497907
325610
219759
152432
108294
78581
58103.8
43695.4
33368.3
25844.1
20281.8
16117.1
12964.4
10555.7
8702.24
7269.06
6158.85
5300.75
4642.96
4147.61
3787.32
3542.8
3401.28
3355.46
3403.01
3546.42
3792.94
4155.34
4652.93
5313.11
6173.75
7286.7
8722.85
10579.6
12991.9
16148.7
20317.9
25885.4
33415.5
43749.2
58164.9
78650.2
108372
152517
219849
325698
497981
789754
1.30583e+06
2.26331e+06
4.21062e+06
4.22023e+06
2.26404e+06
1.30494e+06
788674
496929
324803
219135
151961
107940
78313.7
57900.2
43538.8
33246.4
25748.2
20205.5
16055.7
12914.4
10514.6
8667.9
7240.04
6133.94
5279.01
4623.62
4130.03
3770.96
3527.17
3385.92
3339.94
3386.9
3529.3
3774.35
4134.74
4629.69
5286.46
6142.75
7250.17
8679.29
10527.1
12927.9
16069.9
20219.9
25762.3
33259.4
43549.1
57906.1
78312.1
107927
151930
219079
324712
496791
788471
1.30457e+06
2.26327e+06
4.22052e+06
4.23708e+06
2.2662e+06
1.30392e+06
787183
495515
323608
218183
151221
107370
77874.3
57560.1
43273.8
33038.3
25583.2
20073.4
15949
12827.4
10442.7
8607.95
7189.35
6090.48
5241.15
4590.03
4099.63
3742.8
3500.44
3359.86
3313.82
3360
3500.94
3743.76
4101.06
4591.88
5243.3
6092.74
7191.42
8609.45
10443.1
12825.9
15944.8
20065.1
25568.9
33015.6
43239.5
57509.8
77802
107268
151082
217999
323382
495282
787033
1.30352e+06
2.26648e+06
4.24117e+06
4.28124e+06
2.27975e+06
1.30751e+06
787470
494577
322432
217087
150295
106618
77273.6
57083.6
42895.6
32737.2
25342.2
19879.2
15791.2
12698
10335.7
8518.38
7113.53
6025.43
5184.49
4539.81
4054.24
3700.87
3460.76
3321.33
3275.38
3320.61
3459.6
3699.36
4052.35
4537.42
5181.34
6021.16
7107.63
8510.16
10324.2
12682.1
15769.2
19849.1
25301
32681.3
42820
56981.6
77136.8
106435
150055
216778
322052
494156
786845
1.30755e+06
2.28185e+06
4.28931e+06
4.35308e+06
2.30582e+06
1.31659e+06
789938
494673
321678
216137
149389
105833
76620.8
56550.6
42463.9
32388
25059
19648.6
15602.3
12542.1
10205.9
8409.35
7020.87
5945.69
5114.86
4478
3998.32
3649.2
3411.89
3273.93
3228.2
3272.4
3409.16
3645.38
3993.35
4471.69
5106.86
5935.5
7007.78
8392.42
10183.9
12513.4
15564.9
19599.6
24994.8
32303.6
42353.1
56404.9
76429.2
105581
149060
215713
321147
494018
789363
1.31658e+06
2.30774e+06
4.36085e+06
4.42807e+06
2.33439e+06
1.32724e+06
793337
495201
321179
215328
148557
105082
75979.5
56016.8
42024.8
32028.4
24764.7
19406.9
15403
12376.6
10067.5
8292.55
6921.27
5859.72
5039.62
4411.08
3937.7
3593.14
3358.86
3222.52
3177.08
3220.24
3354.68
3587.18
3929.87
4401.13
5027.11
5844.01
6901.48
8267.5
10035.7
12336
15350.9
19340.1
24678.4
31916.9
41880.2
55828.8
75735
104764
148147
214805
320535
494433
792603
1.32707e+06
2.33632e+06
4.43668e+06
4.50216e+06
2.36284e+06
1.33803e+06
796911
495899
320793
214601
147781
104369
75362.2
55497.8
41594.5
31673.7
24472.5
19165.8
15203.1
12210.1
9927.68
8174.15
6820.02
5772.12
4962.78
4342.62
3875.6
3535.67
3304.46
3169.79
3124.66
3166.8
3298.94
3527.72
3865.13
4329.32
4946.12
5751.33
6794.05
8141.6
9886.73
12158.3
15137.5
19082.2
24365.7
31536.6
41418
55269.8
75067
103987
147289
213976
320024
494989
795994
1.33769e+06
2.36489e+06
4.51191e+06
4.57572e+06
2.39098e+06
1.34865e+06
800436
496601
320438
213904
147032
103676
74760.7
54990.5
41172.4
31324.5
24184
18927
15004.7
12044.3
9788.19
8055.8
6718.62
5684.23
4885.58
4273.76
3813.08
3477.76
3249.64
3116.65
3071.86
3113.01
3242.87
3467.98
3800.16
4257.35
4865.06
5658.71
6686.89
8016.25
9738.72
11982.1
14926.3
18827.7
24057.6
31163
40965
54723.3
74415.6
103230
146457
213173
319534
495530
799328
1.34816e+06
2.39316e+06
4.58665e+06
4.64895e+06
2.41883e+06
1.3591e+06
803877
497281
320087
213220
146298
102998
74172.6
54494.3
40759.4
30982.6
23901.3
18692.7
14809.7
11881.2
9650.77
7939.06
6618.47
5597.34
4809.18
4205.55
3751.12
3420.35
3195.28
3063.95
3019.5
3059.7
3187.33
3408.84
3735.91
4186.23
4785.05
5567.39
6581.33
7892.92
9593.23
11809.1
14719.1
18578.2
23755.9
30797.3
40521.8
54188.7
73778
102488
145640
212382
319046
496054
802604
1.35847e+06
2.42117e+06
4.66112e+06
4.72193e+06
2.44643e+06
1.36938e+06
807223
497916
319718
212534
145569
102329
73593.2
54006.3
40353.6
30646.9
23623.6
18462.6
14618.2
11720.8
9515.62
7824.19
6519.87
5511.74
4733.89
4138.31
3690.01
3363.72
3141.65
3011.97
2967.88
3007.14
3132.6
3350.6
3672.65
4116.25
4706.36
5477.62
6477.63
7771.8
9450.44
11639.4
14515.9
18333.5
23459.9
30438.3
40086.3
53662.4
73149
101754
144827
211585
318534
496513
805753
1.3686e+06
2.44895e+06
4.73548e+06
4.79471e+06
2.47381e+06
1.3795e+06
810475
498505
319330
211845
144844
101667
73021.4
53525.8
39954.6
30317.1
23351.1
18236.8
14430.4
11563.6
9383.09
7711.53
6423.17
5427.78
4660.03
4072.34
3630.05
3308.16
3089.03
2960.97
2917.23
2955.6
3078.94
3293.5
3610.66
4047.69
4629.28
5389.71
6376.09
7653.23
9310.65
11473.2
14317
18093.9
23169.9
30086.1
39658.4
53144.1
72527.6
101026
144015
210779
317994
496908
808783
1.37854e+06
2.47648e+06
4.80965e+06
4.86734e+06
2.50096e+06
1.38945e+06
813633
499045
318920
211148
144120
101009
72455.6
53051.5
39561.5
29992.7
23083.3
18015.1
14245.9
11409.3
9253.07
7601.02
6328.32
5345.44
4587.6
4007.65
3571.27
3253.69
3037.47
2911.01
2867.62
2905.12
3026.4
3237.6
3549.96
3980.56
4553.81
5303.62
6276.64
7537.08
9173.68
11310.3
14121.9
17858.8
22885.2
29740.1
39237.6
52633.6
71914
100304
143205
209968
317432
497252
811713
1.38832e+06
2.50376e+06
4.88359e+06
4.93977e+06
2.52789e+06
1.39926e+06
816695
499536
318489
210445
143396
100355
71895.6
52583.1
39174.1
29673.3
22819.9
17797.2
14064.9
11257.9
9125.52
7492.65
6235.33
5264.74
4516.63
3944.29
3513.72
3200.38
2987.01
2862.12
2819.09
2855.75
2975
3182.92
3490.58
3914.88
4479.95
5219.34
6179.27
7423.32
9039.49
11150.7
13930.6
17628.1
22605.6
29400.1
38823.5
52130.6
71308.2
99589.6
142399
209153
316851
497545
814538
1.39792e+06
2.53079e+06
4.95728e+06
5.01201e+06
2.55459e+06
1.40889e+06
819644
499972
318033
209733
142673
99705
71340.7
52120.3
38791.8
29358.6
22560.7
17583
13886.9
11109.1
9000.27
7386.28
6144.1
5185.59
4447.06
3882.21
3457.35
3148.19
2937.62
2814.29
2771.62
2807.45
2924.73
3129.41
3432.46
3850.57
4407.61
5136.78
6083.84
7311.79
8907.88
10994.1
13742.8
17401.5
22330.7
29065.5
38415.6
51634.5
70709.7
98882
141599
208339
316258
497803
817282
1.40736e+06
2.55756e+06
5.03071e+06
5.08404e+06
2.58106e+06
1.41837e+06
822507
500362
317556
209015
141950
99058.9
70790.9
51662.7
38414.6
29048.5
22305.3
17372.1
13711.9
10962.9
8877.18
7281.79
6054.52
5107.92
4378.83
3821.35
3402.12
3097.08
2889.29
2767.5
2725.19
2760.21
2875.55
3077.06
3375.58
3787.6
4336.73
5055.85
5990.24
7202.35
8778.67
10840.2
13558.3
17178.7
22060.3
28736.1
38013.7
51144.8
70118.2
98181.3
140804
207527
315657
498042
819980
1.41671e+06
2.58411e+06
5.10387e+06
5.15584e+06
2.60731e+06
1.4277e+06
825294
500714
317064
208293
141229
98417.2
70246.2
51210.1
38042
28742.4
22053.6
17164.3
13539.4
10818.9
8756.06
7179.02
5966.47
5031.62
4311.84
3761.64
3347.98
3047.01
2841.97
2721.7
2679.75
2713.99
2827.41
3025.81
3319.86
3725.88
4267.22
4976.42
5898.33
7094.82
8651.65
10688.9
13376.6
16959.3
21793.9
28411.1
37616.7
50660.5
69531.7
97484.1
140009
206706
315031
498216
822549
1.42583e+06
2.61038e+06
5.17676e+06
5.22738e+06
2.63331e+06
1.43687e+06
827995
501024
316555
207567
140510
97779.2
69706.2
50762.2
37673.6
28440.1
21805.2
16959.4
13369.4
10677
8636.74
7077.83
5879.81
4956.58
4246.01
3703.03
3294.87
2997.94
2795.62
2676.87
2635.29
2668.76
2780.3
2975.61
3265.25
3665.34
4198.99
4898.4
5807.99
6989.04
8526.63
10539.9
13197.7
16743
21531
28090.2
37224.1
50180.7
68949.3
96789.2
139212
205873
314375
498327
824997
1.43475e+06
2.63637e+06
5.24932e+06
5.29857e+06
2.65905e+06
1.44587e+06
830602
501287
316025
206833
139790
97143.9
69169.9
50318.3
37309
28141.2
21559.6
16756.9
13201.6
10537
8519.03
6978.07
5794.44
4882.71
4181.28
3645.44
3242.76
2949.83
2750.22
2632.99
2591.78
2624.5
2734.18
2926.45
3211.71
3605.94
4131.97
4821.69
5719.07
6884.88
8403.43
10392.9
13021.2
16529.5
21271.3
27773
36835.6
49705.3
68370.8
96096.9
138414
205033
313697
498385
827340
1.44347e+06
2.66208e+06
5.32155e+06
5.36933e+06
2.68447e+06
1.45467e+06
833105
501500
315474
206091
139068
96510.5
68636.8
49877.9
36947.8
27845.3
21316.7
16556.7
13035.7
10398.6
8402.79
6879.61
5710.26
4809.95
4117.58
3588.86
3191.61
2902.68
2705.77
2590.05
2549.23
2581.2
2689.05
2878.29
3159.22
3547.62
4066.1
4746.2
5631.5
6782.19
8281.89
10247.9
12846.8
16318.5
21014.6
27459.2
36451
49234.1
67796.7
95408.2
137618
204188
313005
498413
829623
1.45207e+06
2.68754e+06
5.39334e+06
5.43948e+06
2.70952e+06
1.46321e+06
835480
501654
314893
205336
138344
95878.4
68106.7
49440.9
36589.8
27552.2
21076.2
16358.5
12871.5
10261.8
8287.88
6782.35
5627.18
4738.23
4054.89
3533.25
3141.43
2856.49
2662.28
2548.08
2507.64
2538.89
2644.91
2831.15
3107.77
3490.38
4001.34
4671.89
5545.18
6680.87
8161.87
10104.6
12674.4
16109.9
20760.6
27148.7
36070.1
48766.9
67226.6
94722.5
136821
203336
312291
498390
831811
1.4605e+06
2.7127e+06
5.46448e+06
5.50882e+06
2.73416e+06
1.47158e+06
837764
501765
314299
204580
137622
95250.8
67581.1
49007.9
36235.2
27262
20838.1
16162.3
12709
10126.3
8174.23
6686.24
5545.18
4667.54
3993.21
3478.64
3092.24
2811.29
2619.79
2507.11
2467.07
2497.61
2601.82
2785.06
3057.38
3434.22
3937.69
4598.73
5460.07
6580.84
8043.28
9962.89
12503.9
15903.4
20509.2
26841.1
35692.8
48303.6
66660.3
94039.8
136024
202476
311548
498292
833805
1.46853e+06
2.73714e+06
5.53455e+06
5.5772e+06
2.75829e+06
1.47971e+06
839933
501829
313689
203824
136905
94628.2
67060.4
48579.1
35884.1
26974.6
20602.3
15968
12548.1
9992.24
8061.79
6591.26
5464.26
4597.91
3932.57
3425.08
3044.11
2767.16
2578.38
2467.23
2427.6
2457.43
2559.83
2740.08
3008.12
3379.19
3875.2
4526.75
5376.18
6482.11
7926.08
9822.73
12335.2
15699
20260.2
26536.5
35318.8
47844.3
66098.3
93360.7
135229
201610
310786
498147
835701
1.47635e+06
2.76112e+06
5.6036e+06
5.64437e+06
2.7817e+06
1.4875e+06
841962
501844
313064
203066
136191
94010.4
66544.4
48154.5
35536.4
26690
20368.7
15775.5
12388.7
9859.53
7950.61
6497.47
5384.5
4529.43
3873.09
3372.68
2997.16
2724.22
2538.16
2428.56
2389.34
2418.48
2519.08
2696.35
2960.1
3325.41
3813.95
4456.02
5293.59
6384.72
7810.31
9684.13
12168.2
15496.6
20013.7
26234.8
34948.5
47389.2
65540.9
92686.1
134436
200742
310007
497950
837473
1.4839e+06
2.78453e+06
5.67141e+06
5.70926e+06
2.80436e+06
1.49497e+06
843847
501799
312418
202303
135479
93396.7
66032.7
47733.7
35192
26408
20137.3
15584.9
12230.9
9728.31
7840.83
6405.02
5306.06
4462.27
3814.94
3321.62
2951.56
2682.64
2499.32
2391.28
2352.48
2380.92
2479.73
2654.02
2913.49
3273.04
3754.12
4386.74
5212.45
6288.84
7696.13
9547.26
12003.1
15296.5
19769.8
25936.3
34582
46938.7
64988.8
92016.6
133646
199870
309208
497695
839096
1.49109e+06
2.80716e+06
5.7374e+06
5.7719e+06
2.82607e+06
1.50202e+06
845555
501678
311743
201532
134767
92786.9
65525.6
47317.1
34851.2
26129.1
19908.5
15396.5
12075.2
9598.92
7732.78
6314.25
5229.27
4396.74
3758.41
3272.19
2907.58
2642.69
2462.11
2355.62
2317.25
2345.01
2442.03
2613.35
2868.54
3222.34
3695.98
4319.16
5133.07
6194.77
7583.87
9412.46
11840.4
15099.1
19529.1
25641.7
34220.1
46493.7
64442.9
91353.7
132861
198997
308389
497376
840553
1.49788e+06
2.82882e+06
5.801e+06
5.83148e+06
2.84656e+06
1.50856e+06
847052
501477
311041
200756
134059
92182.9
65024.5
46906
34515.1
25854.2
19683.1
15211.1
11922.1
9471.95
7627
6225.66
5154.59
4333.28
3703.93
3224.78
2865.61
2604.72
2426.87
2321.93
2283.98
2311.07
2406.31
2574.68
2825.62
3173.7
3639.93
4253.72
5055.87
6102.99
7474.05
9280.32
11680.6
14905
19292.5
25352
33864.4
46056.2
63906
90700.5
132085
198125
307549
496982
841803
1.50415e+06
2.84922e+06
5.86138e+06
5.88699e+06
2.86548e+06
1.51446e+06
848298
501185
310313
199979
133358
91587.7
64531.9
46502.5
34185.5
25584.8
19462.5
15029.9
11772.7
9348.38
7524.38
6140.03
5082.74
4272.54
3652.08
3179.93
2826.15
2569.23
2394.08
2290.67
2253.14
2279.56
2373.05
2538.49
2785.22
3127.64
3586.52
4191.01
4981.53
6014.22
7367.44
9151.71
11524.9
14715.6
19061.3
25068.9
33516.8
45628.9
63381.4
90061.6
131324
197257
306688
496500
842803
1.50977e+06
2.86797e+06
5.91738e+06
5.93696e+06
2.88231e+06
1.51955e+06
849240
500788
309557
199202
132666
91004.8
64051.5
46110
33865.4
25323.7
19249
14854.8
11628.7
9229.68
7426.18
6058.51
5014.73
4215.45
3603.71
3138.44
2789.94
2536.91
2364.39
2262.47
2225.36
2251.12
2342.89
2505.46
2748.05
3084.9
3536.56
4131.89
4910.97
5929.48
7265.2
9027.92
11374.5
14532.5
18837.6
24794.9
33180.3
45214.9
62872.7
89440.3
130578
196398
305807
495919
843498
1.51456e+06
2.88458e+06
5.96756e+06
5.97965e+06
2.89647e+06
1.52363e+06
849827
500276
308774
198428
131986
90439.9
63589.8
45734.5
33560.2
25075.2
19046.2
14688.9
11492.7
9117.99
7334.28
5982.71
4952.01
4163.28
3559.99
3101.36
2757.96
2508.67
2338.7
2238.2
2201.47
2226.6
2316.71
2476.5
2715.08
3046.52
3491.17
4077.6
4845.55
5850.27
7169.02
8910.88
11231.8
14358.3
18624.6
24533.9
32859.8
44820.9
62388.3
88847.7
129863
195561
304915
495227
843805
1.51831e+06
2.89842e+06
6.01016e+06
6.01253e+06
2.90722e+06
1.52653e+06
850046
499656
307982
197681
131346
89913.3
63161.9
45387.8
33278.9
24846.3
18859.5
14536.5
11368.2
9016.21
7251.13
5914.76
4896.42
4117.67
3522.36
3070.01
2731.42
2485.66
2318.07
2218.91
2182.52
2207.04
2295.57
2452.74
2687.52
3013.81
3451.77
4029.7
4787.03
5778.6
7081.16
8803.2
11099.9
14196.8
18426.9
24291.8
32563.3
44457.5
61943.6
88306.1
129201
194774
304042
494447
843724
1.52093e+06
2.90916e+06
6.04407e+06
6.0327e+06
2.91409e+06
1.52838e+06
850124
499156
307343
197070
130809
89455.5
62788.9
45085.8
33032.9
24645.5
18695.4
14402.4
11258.9
8927.56
7179.5
5857.12
4850.15
4080.55
3492.55
3046
2711.86
2469.33
2303.88
2205.89
2169.78
2193.7
2280.76
2435.52
2666.83
2988.37
3420.1
3990.12
4737.53
5716.81
7004.25
8707.82
10982.2
14052
18249.4
24075
32299.1
44136.7
61555.1
87833.6
128627
194091
303271
493703
843417
1.52239e+06
2.91609e+06
6.06607e+06
6.0425e+06
2.91845e+06
1.53002e+06
850608
499266
307298
196924
130598
89209
62535.7
44853.7
32835.3
24481.9
18560.5
14292.3
11170.1
8856.69
7123.68
5813.77
4816.94
4055.32
3473.57
3032.13
2701.91
2462.08
2298.36
2201.27
2165.29
2188.62
2274.38
2427.06
2655.47
2972.8
3398.97
3962.02
4700.69
5668.95
6942.63
8629.35
10883.3
13928.8
18097.3
23888.7
32073
43864.8
61228.2
87437
128155
193544
302659
493093
843031
1.52292e+06
2.91947e+06
6.07584e+06
6.04891e+06
2.9244e+06
1.53349e+06
852323
500108
307704
197109
130667
89213.9
62491.2
44774
32736.8
24381.7
18472.1
14219.6
11113.2
8814.08
7093.28
5793.38
4804.42
4049.28
3472.54
3034.07
2705.68
2467.24
2304.43
2207.74
2171.69
2194.47
2279.14
2430.05
2655.74
2970.07
3392.44
3950.29
4682.48
5642.34
6904.86
8577.66
10814.7
13840.2
17985.3
23749.3
31901.5
43653.9
60970.1
87132.3
127812
193183
302288
492794
843190
1.52484e+06
2.92506e+06
6.08672e+06
6.07381e+06
2.94061e+06
1.54187e+06
856241
502042
308676
197593
130901
89322.1
62541.9
44799.7
32752.4
24393.3
18481.5
14228
11121.9
8823.78
7104.28
5805.84
4818.84
4065.31
3489.74
3052.36
2724.73
2486.58
2323.76
2226.9
2190.58
2213.02
2297.31
2447.72
2672.73
2985.64
3405.71
3960.14
4686.84
5640
6895.62
8559.98
10786.4
13799.1
17929.1
23672.8
31800.9
43528.1
60819.6
86958.8
127645
193142
302728
494375
847264
1.53452e+06
2.94466e+06
6.11894e+06
6.11346e+06
2.96379e+06
1.55288e+06
860851
504091
309650
198067
131136
89442.3
62609
44843.6
32787
24424.8
18512.8
14262.1
11158.8
8862.64
7144.07
5845.6
4857.53
4102.39
3525.03
3085.88
2756.6
2516.97
2352.93
2255.16
2218.29
2240.56
2325.1
2476.1
2701.96
3015.85
3436.95
3992.42
4720.33
5674.08
6928.75
8590.61
10812.2
13815.7
17931.5
23664
31784.3
43514.2
60845.5
87114
128070
194041
304466
497733
854090
1.54957e+06
2.97554e+06
6.16741e+06
6.15608e+06
2.99177e+06
1.56563e+06
866123
506474
310791
198639
131447
89635.4
62750.3
44962.6
32895.9
24528
18610.6
14353.4
11243.1
8940.02
7214.78
5909.97
4915.93
4155.32
3573.03
3129.57
2796.63
2554.03
2387.71
2288.39
2250.72
2272.97
2358.27
2510.79
2738.86
3055.6
3480.16
4039.67
4772.16
5730.92
6990.91
8658.51
10886.6
13898.4
18025.6
23770.7
31909.4
43670.2
61051.5
87398.8
128501
194773
305797
500304
859502
1.5624e+06
3.00458e+06
6.21166e+06
6.18508e+06
3.01562e+06
1.57548e+06
870078
508365
311834
199287
131895
89975.7
63028.1
45199
33102
24709
18769.7
14492.7
11364.9
9046.36
7307.69
5991.24
4987.14
4217.87
3628.2
3178.53
2840.48
2593.83
2424.5
2323.21
2284.59
2306.91
2393.37
2548.07
2779.34
3100.29
3530.08
4095.88
4835.81
5803.26
7073.39
8752.9
10995.2
14024
18171.5
23940.3
32107.7
43904.5
61333.4
87747.8
128959
195426
306813
502080
863065
1.57101e+06
3.026e+06
6.23719e+06
6.18126e+06
3.02666e+06
1.58065e+06
872497
509770
312820
200039
132480
90448.9
63421.2
45528.6
33380.7
24945.2
18969.8
14662
11508.4
9168.23
7411.53
6080.05
5063.39
4283.61
3685.17
3228.26
2884.35
2633.12
2460.44
2356.98
2317.36
2339.86
2427.69
2584.97
2820.03
3145.99
3582.08
4155.59
4904.8
5883.41
7166.94
8862.66
11124.7
14177.6
18354.4
24158.5
32367.6
44214.3
61704.5
88193.7
129509
196130
307725
503373
865238
1.5754e+06
3.03467e+06
6.2302e+06
6.15842e+06
3.02756e+06
1.58178e+06
873228
510384
313402
200594
133027
90953.9
63872.2
45916.4
33712.2
25225.7
19205.4
14859.3
11673.6
9307.09
7528.64
6179.21
5147.69
4355.59
3746.95
3281.68
2931.03
2674.57
2498.08
2392.19
2351.49
2374.25
2463.73
2624.06
2863.58
3195.46
3639.04
4221.75
4982.13
5974.24
7274.13
8989.81
11276.3
14359.3
18572.6
24420.2
32679.2
44580.3
62130.9
88668.3
130020
196650
308299
503999
865988
1.57645e+06
3.03502e+06
6.20586e+06
6.10799e+06
3.01525e+06
1.58062e+06
873644
511101
314266
201386
133677
91474.2
64294
46295.3
34060.4
25531.1
19466.5
15080.3
11860
9464.33
7661.57
6291.89
5243.47
4437.25
3816.87
3341.92
2983.48
2720.96
2540.08
2431.4
2389.49
2412.61
2504.1
2668.07
2912.89
3251.81
3704.24
4297.79
5071.26
6079.06
7397.82
9136.22
11450.2
14566.2
18818.8
24710.8
33014.8
44949.8
62534.1
89161.6
130633
197392
309103
504679
866422
1.57558e+06
3.02383e+06
6.15969e+06
6.03523e+06
2.98859e+06
1.57058e+06
871107
511857
315480
202507
134601
92212.9
64880.2
46758.5
34434.7
25864.5
19754.9
15326.3
12068.7
9641.24
7811.68
6419.42
5351.98
4529.75
3895.96
3409.92
3042.51
2773.03
2587.09
2475.24
2431.99
2455.61
2549.5
2717.79
2968.88
3316.08
3778.9
4385.11
5173.75
6199.62
7539.84
9303.81
11648.2
14800.5
19095.4
25034.6
33382.8
45388.4
63085.3
89851.4
131490
198422
310199
505371
864657
1.56768e+06
3.00149e+06
6.09602e+06
5.95749e+06
2.96271e+06
1.56317e+06
871229
513369
317196
204015
135825
93183
65645
47361.8
34917.1
26255.3
20089.3
15609.4
12307.9
9843.6
7983.08
6564.77
5475.36
4634.61
3985.28
3486.39
3108.6
2831.06
2639.3
2523.79
2479.05
2503.3
2600.05
2773.44
3031.93
3388.89
3863.94
4485.05
5291.53
6338.57
7703.91
9497.75
11877.8
15072.6
19418.3
25417.7
33838.5
45956.4
63801
90754.4
132621
199798
311723
506547
863578
1.55895e+06
2.97455e+06
6.0172e+06
5.88182e+06
2.93954e+06
1.55814e+06
872394
515738
319510
205957
137374
94399.7
66599.4
48112.6
35513.9
26734
20485.9
15940.1
12585.1
10076.7
8179.62
6730.72
5615.59
4753.21
4085.78
3571.95
3182.11
2895.24
2696.77
2577.08
2530.65
2555.67
2655.79
2835.15
3102.3
3470.69
3960.11
4598.74
5426.24
6498.29
7893.34
9722.62
12145.2
15391.5
19799.8
25875.4
34403.6
46664.2
64696.2
91890.8
134059
201582
313803
508557
864286
1.55286e+06
2.94991e+06
5.9402e+06
5.80571e+06
2.91817e+06
1.55572e+06
874995
519065
322487
208375
139276
95882.8
67757.5
49021.6
36233.8
27310.6
20955.8
16327.7
12907.3
10346
8405.36
6920.27
5774.86
4887.11
4198.54
3667.32
3263.51
2965.88
2759.68
2635.21
2586.84
2612.78
2716.79
2903.07
3180.25
3561.95
4068.16
4727.34
5579.57
6681.16
8111.45
9982.95
12456.6
15765.4
20250.9
26422.6
35087.7
47525.6
65790.1
93286.5
135840
203830
316532
511508
866275
1.54883e+06
2.927e+06
5.86313e+06
5.72816e+06
2.898e+06
1.55611e+06
879076
523371
326162
211308
141564
97659.7
69142.3
50106.9
37091.6
27995.4
21509.8
16781.6
13282.5
10657.7
8665.12
7137.07
5955.89
5038.32
4325.02
3773.55
3353.56
3043.52
2828.42
2698.4
2647.81
2674.81
2783.32
2977.6
3266.39
3663.52
4189.27
4872.51
5753.84
6890.36
8362.51
10284.4
12819.4
16203.8
20784.2
27077.6
35906.6
48560
67108.1
94973.8
138005
206593
319968
515469
869848
1.54856e+06
2.90583e+06
5.78481e+06
5.65775e+06
2.88345e+06
1.55797e+06
884375
528614
330555
214789
144274
99763.8
70781.7
51391.4
38105.2
28801.9
22157.4
17310.9
13717.9
11017.5
8963.24
7384.35
6161.03
5208.52
4466.4
3891.49
3452.84
3128.45
2903.11
2766.78
2713.66
2741.88
2855.55
3059.04
3361.26
3776.27
4324.7
5036
5951.51
7129.26
8651.1
10633.1
13241.6
16716.8
21411.7
27852.1
36877.1
49788.9
68676.2
96984.7
140592
209909
324138
520411
874732
1.5497e+06
2.88755e+06
5.70739e+06
5.59105e+06
2.87285e+06
1.56059e+06
890526
534678
335644
218830
147426
102214
72692.2
52888.2
39284.9
29738.1
22905.4
17920.8
14217.5
11428.1
9301.49
7663.16
6390.83
5397.9
4622.66
4020.88
3560.9
3220.26
2983.38
2839.96
2784.02
2813.64
2933.17
3147.09
3464.57
3900.03
4474.57
5218.22
6173.33
7399.2
8979.34
11032.2
13727.4
17310.3
22140.7
28753.1
38009.5
51225.7
70511.6
99339.6
143623
213796
329038
526258
880684
1.55225e+06
2.87663e+06
5.63891e+06
5.50587e+06
2.85297e+06
1.562e+06
897092
541435
341394
223431
151031
105024
74886.2
54607.5
40638
30809.3
23760.4
18614.8
14783.2
11890.7
9680.33
7973.54
6645.03
5606.07
4793.23
4161.09
3677.19
3318.42
3068.69
2917.37
2858.29
2889.46
3015.49
3241.02
3575.51
4033.85
4637.81
5418.23
6418.44
7699.43
9346.74
11481.6
14277.4
17985.1
22972.8
29787.3
39314
52884.7
72633.2
102062
147122
218276
334664
532923
887313
1.5544e+06
2.86121e+06
5.5624e+06
5.40085e+06
2.82555e+06
1.56231e+06
903976
548864
347838
228638
155135
108234
77396
56574.5
42183.6
32029.8
24731.5
19399.9
15420.2
12409
10102.6
8317.47
6925.06
5833.9
4978.65
4312.54
3801.98
3423.04
3159.06
2999
2936.43
2969.27
3102.43
3340.75
3694.09
4177.87
4814.62
5636.32
6687.67
8031.28
9755.36
11984.4
14896
18747.1
23914.6
30967.7
40809.8
54791.6
75073.7
105192
151138
223396
341045
540373
894403
1.5552e+06
2.83549e+06
5.46181e+06
5.28045e+06
2.7946e+06
1.56178e+06
911005
556869
354944
234454
159750
111856
80231.9
58796.7
43927.4
33403.2
25819.7
20273.7
16126.6
12981.3
10566.3
8693.22
7229.21
6079.86
5177.69
4474.14
3934.31
3533.31
3253.77
3084.17
3017.78
3052.39
3193.27
3445.5
3819.36
4330.97
5003.79
5871.01
6979.14
8392.96
10203.3
12538.6
15581.5
19595.1
24960.4
32297.2
42502.5
56955.2
77843.8
108743
155682
229157
348155
548524
901862
1.55539e+06
2.80551e+06
5.3446e+06
5.14664e+06
2.75876e+06
1.55972e+06
917788
565314
362671
240868
164877
115894
83396.6
61275.6
45870.8
34929.8
27022.9
21224.7
16896.1
13602.2
11067.3
9097.11
7554.42
6341.57
5388.38
4644.29
4072.89
3648.16
3351.91
3172.07
3101.57
3138.03
3287.12
3554.19
3950.04
4491.55
5203.27
6119.9
7289.8
8780.53
10686.2
13139.2
16328.1
20524
26122.2
33776.2
44391.8
59374.4
80942.9
112713
160748
235539
355931
557215
909339
1.55486e+06
2.77153e+06
5.21235e+06
4.99269e+06
2.71338e+06
1.55338e+06
923709
574021
370944
247846
170499
120339
86884.5
64007
48011.1
36607.6
28339.9
22256.6
17722.5
14265.9
11600.5
9525.09
7897.61
6616.55
5608.8
4821.52
4216.58
3766.7
3452.78
3262.1
3187.22
3225.61
3383.34
3666.04
4085.1
4658.28
5411.35
6380.64
7616.82
9190.21
11198.9
13780.1
17127.9
21518.5
27394.4
35403.2
46475.5
62044.4
84365.4
117094
166319
242507
364293
566238
916129
1.55122e+06
2.72994e+06
5.06203e+06
4.81667e+06
2.65581e+06
1.54141e+06
928579
582856
379666
255323
176576
125166
90678.8
66978.9
50338.2
38430.5
29767.5
23373
18592.8
14965.4
12160.7
9973.26
8255.74
6902.52
5837.26
5004.57
4364.46
3888.22
3555.77
3353.72
3274.19
3314.52
3481.18
3780.11
4223.32
4829.51
5625.8
6650.36
7956.27
9617.2
11735.1
14453
17971.2
22587.1
28772.9
37172.1
48744
64952.9
88094
121859
172355
249989
373120
575380
921644
1.53996e+06
2.67335e+06
4.88696e+06
4.62874e+06
2.59442e+06
1.52854e+06
932871
591695
388667
263168
183014
130306
94731
70155.7
52825.1
40377.3
31290.8
24562.4
19516.9
15690.6
12740.3
10435.6
8624.08
7195.84
6070.94
5191.27
4514.81
4011.38
3659.8
3445.97
3361.6
3403.92
3579.74
3895.34
4363.39
5003.57
5844.45
6926.15
8304.4
10056.4
12288.6
15149.7
18847.8
23726.9
30243.5
39061.8
51168.2
68062.1
92077.2
126938
178754
257845
382231
584509
926525
1.52817e+06
2.61322e+06
4.69934e+06
4.44007e+06
2.53207e+06
1.51498e+06
936454
600305
397731
271207
189682
135664
98968.7
73483.2
55430.7
42416
32885.5
25807
20484.3
16437.5
13329.1
10904.4
8996.91
7492.06
6306.28
5378.76
4665.35
4134.31
3763.31
3537.51
3448.18
3492.43
3677.47
4009.87
4502.98
5177.55
6063.65
7203.48
8655.45
10500.2
12848.9
15854.4
19768.2
24920.3
31783.5
41040.7
53708.4
71320.5
96246.3
132239
185393
265914
391423
593403
930588
1.51501e+06
2.55068e+06
4.50842e+06
4.2514e+06
2.46742e+06
1.49927e+06
938927
608468
406705
279335
196505
141186
103355
76935.1
58135.8
44532
34539.9
27098.8
21489.9
17215.9
13927.2
11375.9
9371.15
7788.66
6541.39
5565.62
4815.03
4256.23
3865.72
3627.85
3533.47
3579.58
3773.75
4122.89
4641.03
5350.01
6281.49
7479.79
9006.15
10944.9
13410.8
16590
20725.9
26159.7
33380
43093.3
56343.7
74699.7
100561
137703
192192
274081
400539
601852
933527
1.49994e+06
2.4861e+06
4.3172e+06
4.06061e+06
2.39832e+06
1.4801e+06
940056
615939
415392
287406
203378
146794
107833
80470
60911.6
46705.2
36237.5
28423.3
22521.2
18015.3
14543.2
11847
9741.39
8081.66
6773.23
5749.52
4962.05
4375.75
3965.93
3716.11
3616.7
3664.59
3867.75
4233.39
4776.24
5519.25
6495.68
7752.03
9352.45
11384
13988.2
17345.7
21708.1
27429.6
35016.5
45199.1
59047.4
78159.1
104967
143256
199049
282211
409401
609637
935074
1.48154e+06
2.41748e+06
4.12417e+06
3.86975e+06
2.3262e+06
1.45867e+06
940191
622476
423612
295297
210211
152424
112360
84058.7
63731.7
48911.5
37960.3
29766.7
23566.5
18826.2
15169.2
12327.2
10106.8
8368.43
6999.88
5928.97
5105.26
4491.98
4063.2
3801.63
3697.24
3746.79
3958.65
4340.35
4907.31
5683.59
6704.01
8017.32
9689.73
11830.4
14575.3
18112.1
22703
28716.3
36676
47335.3
61792.2
81670.9
109424
148834
205875
290184
417848
616580
935469
1.46016e+06
2.34473e+06
3.93048e+06
3.68452e+06
2.25399e+06
1.43537e+06
937612
627702
431233
302928
216940
158042
116902
87666.3
66567.2
51130.8
39692
31115.8
24615.4
19639.9
15798.2
12810.7
10475.9
8647.64
7219.49
6102.47
5243.53
4604
4156.77
3883.76
3774.47
3825.55
4045.75
4442.94
5033.22
5841.72
6904.8
8272.86
10029.6
12279.8
15164.6
18880.4
23699.8
30006.1
38341
49480.9
64548.7
85197.7
113894
154405
212608
297911
425747
622408
934276
1.43816e+06
2.27307e+06
3.74336e+06
3.50281e+06
2.17981e+06
1.40857e+06
932021
631630
438238
310239
223529
163586
121399
91240
69379.5
53330.2
41407
32450.7
25653
20444.7
16420.6
13289.8
10842.4
8925.72
7428.33
6267.85
5375.13
4710.4
4245.46
3961.47
3847.45
3899.93
4128.06
4540.04
5152.64
5992.04
7095.64
8526.15
10366.6
12724.3
15747
19639
24684.3
31280.2
39987.1
51603.1
67278
88687.2
118315
159900
219204
305327
433035
626923
929677
1.41261e+06
2.19972e+06
3.56035e+06
3.32028e+06
2.10249e+06
1.37868e+06
924648
634834
444800
317302
229957
169009
125798
94738.3
72129.3
55479.5
43082.2
33754.1
26665.9
21230.2
17027.9
13757.4
11200.4
9197.91
7633.64
6423.12
5498.64
4809.93
4328.19
4033.76
3915.22
3968.96
4204.52
4630.43
5264.1
6132.71
7279.9
8773.52
10695.3
13157.4
16314.3
20378.2
25644
32522.9
41593.4
53675.5
69944.4
92100.1
122636
165271
225639
312502
439861
630667
923512
1.38458e+06
2.12434e+06
3.37834e+06
3.14775e+06
2.031e+06
1.35261e+06
919316
638152
451228
324223
236234
174282
130069
98127.3
74790.8
57557.7
44700.9
35013.1
27643.6
21988
17613.5
14208.2
11545.5
9460.38
7831.71
6570.87
5612.96
4901.55
4404.03
4099.78
3976.94
4031.8
4274.25
4713.12
5366.52
6263.24
7457.15
9011.2
11011
13573.7
16859.6
21089.4
26568
33720.4
43142.3
55675.2
72519.7
95400.1
126825
170487
231912
319522
446529
634322
918436
1.35909e+06
2.05357e+06
3.20503e+06
3.0124e+06
1.97573e+06
1.33261e+06
915222
641768
457789
331094
242353
179376
134164
101363
77323.1
59532
46237
36206.8
28569.9
22705.3
18167.5
14634.2
11871.4
9707.99
8018.42
6710.21
5715.39
4983.5
4471.5
4158.2
4031.34
4087.17
4335.91
4786.68
5457.68
6386.16
7623.67
9234.62
11308.2
13966
17374.2
21761
27441.5
34853.5
44609.4
57572.2
74966.7
98545.4
130834
175515
238017
326477
453339
638308
914055
1.33815e+06
1.99656e+06
3.06531e+06
2.88573e+06
1.91354e+06
1.30429e+06
909356
646331
464921
338076
248370
184278
138055
104411
79698.2
61378.6
47671.4
37320.2
29433.2
23373.3
18682.5
15029.7
12173.3
9936.95
8190.65
6838.52
5809.99
5054.52
4529.46
4207.85
4077.25
4133.84
4388.19
4849.87
5539.11
6498.47
7776.37
9440.1
11582.2
14328.6
17851
22384.5
28253.4
35907.8
45976
59342.1
77257
101503
134634
180341
243998
333520
460724
643562
910013
1.31043e+06
1.93359e+06
2.93624e+06
2.72367e+06
1.83874e+06
1.28453e+06
912730
654298
473222
345336
254285
188950
141690