/*--------------------------------*- C++ -*----------------------------------*\
| =========                 |                                                 |
| \\      /  F ield         | OpenFOAM: The Open Source CFD Toolbox           |
|  \\    /   O peration     | Version:  2212                                  |
|   \\  /    A nd           | Website:  www.openfoam.com                      |
|    \\/     M anipulation  |                                                 |
\*---------------------------------------------------------------------------*/
FoamFile
{
    version     2.0;
    format      ascii;
    arch        "LSB;label=32;scalar=64";
    class       surfaceScalarField;
    location    "0.042";
    object      phi;
}
// * * * * * * * * * * * * * * * * * * * * * * * * * * * * * * * * * * * * * //

dimensions      [1 0 -1 0 0 0 0];

oriented        oriented;

internalField   nonuniform List<scalar> 
4475
(
0.000551122
-0.000555369
0.000705766
-0.000701505
6.5895e-05
-0.000215861
-3.5852e-06
0.000153692
0.00125853
-0.00143478
0.000129178
4.7068e-05
-0.000292763
0.000821085
0.000168632
-0.000696677
-0.000496961
0.000452283
0.000478075
-0.000433391
0.000421213
-0.0003132
-0.000476146
0.000368145
-0.000136092
0.000129448
0.000607905
-0.00060124
-0.000378848
-0.000518157
0.000450289
0.000446728
0.000472656
-0.000519611
-0.00045
-0.000412559
-6.49472e-06
4.76837e-05
0.000371524
-6.78175e-05
5.97002e-05
-0.000404267
-0.000447879
6.30295e-05
-3.23392e-05
0.000417263
-0.000461205
2.00756e-05
-6.69237e-06
-0.000473114
9.67285e-06
2.29381e-06
-0.000482067
5.68375e-06
3.31918e-06
-0.00048705
4.03274e-06
9.85866e-07
6.08291e-06
-0.000476752
-1.63473e-05
0.000465051
-3.75238e-05
-0.000459615
3.21094e-05
0.000487556
-1.6395e-05
0.000483479
8.14511e-06
0.000473555
1.56524e-05
0.000462701
2.0573e-05
0.000455806
2.70485e-05
0.000490808
2.80796e-05
0.000427051
-3.91121e-06
0.000401908
1.88176e-05
0.000511508
6.0244e-05
-0.000169639
0.000490166
2.67246e-06
1.89313e-05
0.000629755
-0.000637369
-0.000128461
-0.000472932
-4.13201e-05
0.000492928
-2.38517e-06
-8.34255e-08
0.000507233
-6.73356e-06
-7.19498e-06
0.000540493
-1.43844e-05
-1.83191e-05
0.000603285
-2.57774e-05
-3.61008e-05
0.00071502
-4.52278e-05
-6.47547e-05
0.000843491
-5.89603e-05
-6.77545e-05
0.000964959
-5.84999e-05
-6.12841e-05
0.00101173
-2.28308e-05
-2.28458e-05
0.00102647
-1.21426e-05
-1.413e-06
0.000998631
7.14593e-06
2.19027e-05
0.000964213
9.857e-06
2.5855e-05
0.000935434
6.97091e-06
2.31674e-05
0.000925601
-1.86003e-06
1.33456e-05
0.000950003
-2.08896e-05
-1.08427e-06
-2.91048e-05
0.000989931
-6.68027e-06
-0.000977208
0.00100203
-5.02372e-05
-0.00097099
-2.49714e-05
-0.000982281
1.09359e-05
-0.000999393
2.51368e-05
-0.000995408
6.83367e-06
-0.000969302
-1.73071e-05
-0.000910324
-6.84345e-05
-0.000844139
-8.79006e-05
-0.000787925
-0.000113762
-0.000728122
-0.000117378
-0.000651497
-0.000120813
-0.000573822
-0.00010252
-0.000531128
-5.65585e-05
-0.000508147
-2.93738e-05
-0.000503006
-7.21926e-06
-0.000521048
2.09834e-05
-0.000404873
8.5995e-05
-0.00020196
-0.000422974
6.59699e-05
-0.000409904
4.68013e-05
-0.000421303
2.45333e-05
-1.30358e-05
-0.000455615
2.0462e-06
-0.000468133
5.90382e-06
-0.000478457
1.26892e-05
-0.000486595
1.1512e-05
-0.000488565
3.0005e-06
-0.000494324
-1.05506e-05
-4.61052e-05
-2.35586e-05
0.00106719
-0.000103295
0.00106629
0.000493122
-2.69539e-05
-0.000482531
0.0004864
1.49055e-05
0.000477019
2.50786e-05
0.000467385
3.02595e-05
0.000464827
2.9671e-05
0.000468008
2.4991e-05
0.000448144
1.61418e-05
0.000446129
2.10225e-05
0.000477847
2.87359e-05
0.000484799
1.22296e-05
0.000494616
-9.61936e-06
0.000520419
-3.2563e-05
0.000567793
-6.51036e-05
0.000648035
-0.000115254
0.000712241
-0.000127896
0.000763283
-0.000117957
0.000816949
-0.000114243
0.000887744
-9.31242e-05
0.000953054
-6.41552e-05
0.000988219
-1.11993e-05
0.000999847
1.57231e-05
0.000987438
3.71456e-05
0.000973204
2.94658e-05
0.000972466
2.27048e-06
0.000992736
-2.27225e-05
-5.47789e-05
-0.000471556
6.67382e-05
-7.52178e-05
0.00105193
-8.9393e-05
-0.000438298
-0.000492814
-4.27994e-05
-0.00105648
0.00107567
-0.000117007
-0.00105019
-5.18048e-05
-0.00106098
-1.03658e-05
-0.00104964
3.36228e-06
-0.000995207
-2.72405e-05
-0.000918107
-6.9626e-05
-0.000838178
-9.40325e-05
-0.000789552
-0.000115359
-0.000750148
-0.000126647
-0.000725853
-0.000137458
-0.000703158
-0.000139352
-0.000676806
-0.000146531
-0.000642331
-0.000136371
-0.000580705
-0.000117462
-0.000539087
-7.05389e-05
-0.000515549
-3.04065e-05
-0.000498585
4.30376e-06
-0.00045623
4.38885e-05
-0.000440375
5.03422e-05
-0.00044074
4.73755e-05
-0.000446573
3.05626e-05
-0.000462645
1.81904e-05
-0.000475644
1.90166e-05
-0.000485998
2.31452e-05
-0.000496856
2.24433e-05
-0.000504337
1.05387e-05
-0.000507708
-7.1318e-06
-0.000458838
0.000694563
-0.000614557
0.000252288
-0.000514029
-0.000153563
0.000415321
-0.000315484
-0.000302491
0.00034771
0.000270277
0.000358032
0.000571101
7.49104e-05
-0.000115594
-0.000530382
0.000510654
3.35329e-05
0.00049508
3.05247e-05
0.000482755
3.74565e-05
0.000475736
3.73442e-05
0.000472519
3.29667e-05
0.000469675
2.79897e-05
0.00046416
2.18217e-05
0.000466715
1.86417e-05
0.000482763
1.28987e-05
0.000505031
-9.7808e-06
0.000536759
-4.0984e-05
0.000591864
-8.7126e-05
0.000649581
-0.000121896
0.000673631
-0.000138631
0.000693696
-0.000147352
0.000715958
-0.000139645
0.000736344
-0.000134104
0.000768139
-0.000124296
0.000818188
-0.000113202
0.000903129
-9.41928e-05
0.000988569
-6.5844e-05
0.00104409
-1.56702e-05
0.00105639
1.90133e-05
0.00104839
1.25851e-05
0.00104978
-2.05182e-05
0.00106702
-8.6458e-05
5.28143e-05
0.00110795
-8.20646e-05
5.96886e-06
0.00111566
-3.27202e-05
0.00112342
-7.59946e-05
0.0011257
-0.000437094
0.000425316
-0.000506369
0.00110942
-0.000102159
-0.000592279
-0.000540043
0.000673508
-0.000484488
0.000727743
0.000408825
-0.000652042
-0.000102875
-0.000479307
0.000557725
-0.000431969
0.000565963
-0.000691711
0.000462937
0.000455694
-0.000466341
-0.000607
1.03263e-05
0.000125136
-0.00051845
-3.20149e-05
3.67349e-05
-5.0473e-05
0.00112516
5.24024e-06
0.00115001
-1.87579e-05
0.00115054
-5.19272e-05
0.00116183
-6.68479e-05
0.00112742
-0.00109273
-8.31192e-05
0.00111067
-0.00108497
-0.000105492
-0.00111581
-8.13937e-05
-0.00113042
-3.21455e-05
-0.00106388
-7.0727e-05
-0.000951202
-0.000106095
-0.000856548
-0.000119688
-0.000797316
-0.000127334
-0.000756772
-0.000132854
-0.00073334
-0.000137777
-0.00071689
-0.000142486
-0.000707548
-0.000146279
-0.000695868
-0.000150538
-0.000690399
-0.000151561
-0.000680873
-0.000145429
-0.000662702
-0.000135153
-0.000619137
-0.000113545
-0.000568066
-8.0731e-05
-0.000531582
-3.17535e-05
-0.000492776
5.38072e-06
-0.000475046
3.2836e-05
-0.000462808
3.53351e-05
-0.000467305
3.52438e-05
-0.000479115
3.01746e-05
-0.000488932
2.90011e-05
-0.000498617
3.29947e-05
-0.000509356
3.32891e-05
-0.000522099
2.3361e-05
2.20222e-06
-0.000531368
8.19935e-05
-6.37896e-05
-0.000562718
0.000544538
0.000647508
-0.000782727
0.000704603
-0.000569381
0.00044696
-0.000429136
0.000460256
0.000570836
6.59041e-05
5.78416e-05
0.000591642
0.000128434
-0.000149217
0.000590254
0.000130864
0.000575926
0.000117072
-0.00010271
0.000558738
9.9214e-05
0.000549286
8.84816e-05
-7.8995e-05
0.000548085
7.61501e-05
0.000523105
5.85599e-05
0.000505583
4.81035e-05
0.000494657
4.84594e-05
0.000490137
4.19518e-05
0.000484415
3.8843e-05
0.000483889
2.86692e-05
0.000485313
2.05847e-05
0.000500287
3.893e-06
0.00052933
-1.58264e-05
0.000569897
-4.98812e-05
0.00062745
-9.7691e-05
0.000662614
-0.000121873
0.000681486
-0.000140307
0.000687942
-0.000144684
0.000692125
-0.000151159
0.000701346
-0.000148439
0.000710094
-0.000142349
0.000724427
-0.000137982
0.000748789
-0.000136785
0.000784886
-0.000129173
0.00084109
-0.000119986
0.000936079
-0.000107849
0.00105687
-9.79044e-05
0.00113092
-5.49925e-05
0.00112433
-8.36613e-06
0.00109304
-4.96835e-05
0.00109186
-7.50938e-05
-6.57705e-05
0.00111115
5.6971e-05
0.00135501
-0.00107995
-0.000332034
-0.00053777
0.000503232
-0.000889623
0.0009059
0.000312374
-0.000328642
-5.36461e-05
0.000766312
6.94469e-05
-0.000782016
-0.00141411
-0.000211302
0.000495515
0.00112989
-0.000588665
-0.000435838
-8.17175e-05
-0.000539576
-0.000546344
-7.11315e-05
0.000553705
-0.00110892
0.00109038
-6.26816e-05
-0.00112906
-8.17688e-05
-0.00110758
-9.8648e-05
-0.0010062
-0.00012361
-0.00090749
-0.000164895
-0.000847285
-0.000163872
-0.00079605
-0.000169414
-0.000757326
-0.000164163
-0.000733483
-0.000155453
-0.000717719
-0.000152781
-0.000706575
-0.000153024
-0.000698214
-0.00015413
-0.000695061
-0.000153244
-0.000697983
-0.000148244
-0.000698206
-0.000144829
-0.000695258
-0.000137718
-0.000680792
-0.000127595
-0.000653174
-0.000107894
-0.000602655
-8.1721e-05
-0.000558447
-3.84591e-05
-0.000521555
-3.77072e-06
-0.000498588
1.26079e-05
-0.000495221
3.20877e-05
-0.000500298
3.5446e-05
-0.000508169
3.70583e-05
-0.000518243
4.32473e-05
-0.000527538
4.276e-05
-0.000537384
3.33346e-05
-0.000555545
2.04638e-05
-1.82039e-05
-0.000545122
-0.000498578
-0.000476267
0.000542883
-0.000224503
-0.000752416
0.000737716
0.000239284
0.000604038
0.000119608
-0.00065771
0.000602668
0.000129842
0.000596009
0.000137564
0.000582059
0.000131062
0.000567931
0.000113385
0.000556791
9.96697e-05
0.0005465
8.64933e-05
0.000531845
7.32806e-05
0.000518284
6.17568e-05
0.000512465
5.44079e-05
0.00050416
5.03896e-05
0.000504168
3.89877e-05
0.000511108
2.19138e-05
0.000533648
-1.68892e-06
0.000565836
-2.7893e-05
0.00061866
-6.79115e-05
0.000665645
-9.62943e-05
0.000685065
-0.000116671
0.000696158
-0.000132659
0.00069739
-0.000141261
0.000697517
-0.00014452
0.000693208
-0.000146527
0.000693323
-0.000148171
0.000700671
-0.000149196
0.000715124
-0.000151764
0.000727738
-0.000148645
0.000748344
-0.000148816
0.000785965
-0.000155806
0.000841618
-0.000161595
0.000902302
-0.000155853
0.0010022
-0.000150268
0.00112162
-0.000118579
0.00113157
-5.62203e-05
0.00112136
-6.19076e-05
0.00111424
-5.63964e-05
4.81299e-05
-3.67757e-05
0.00110302
2.54415e-05
0.00113452
2.86352e-06
0.00115014
-4.54862e-06
0.00115941
-6.52856e-06
0.00115454
-1.267e-05
0.00116975
-3.89999e-05
0.00115437
-5.36926e-05
0.00112645
0.00106518
-3.04335e-05
-0.000933933
-0.000363032
0.000407346
-7.73053e-05
0.000106845
-0.00126575
0.00123621
-0.000757913
0.00062836
-0.00104607
0.00117562
-0.00070623
-0.000420189
0.000622909
0.000671446
-0.000743224
-0.000465654
0.000368307
0.000768801
-0.000566762
-6.90535e-06
-5.31255e-05
-0.000573668
-0.000444614
-0.000520909
0.00046695
-0.000563468
-0.00036751
0.000224759
-0.000743918
0.000440803
-0.000526243
0.000829363
0.000430167
0.000479738
0.000622431
-0.000630606
0.000127826
0.000605332
0.000146985
0.00059645
0.000146491
0.00058618
0.000141381
0.00057487
0.000124755
0.000564897
0.000109715
0.000554979
9.64966e-05
0.000546846
8.15124e-05
0.00053602
7.27593e-05
0.000529083
6.15283e-05
0.000532479
4.7196e-05
0.000547458
2.42462e-05
0.000577727
-8.05144e-06
0.000617775
-4.13184e-05
0.000667759
-7.72032e-05
0.000694016
-9.37545e-05
0.000708598
-0.000110556
0.000716827
-0.000124622
0.000715581
-0.000131128
0.00070827
-0.000133661
0.000702352
-0.000138195
0.000697907
-0.000141674
0.000694694
-0.000144528
0.00069796
-0.000152002
0.000703025
-0.000156285
0.000714848
-0.000159769
0.000736566
-0.000169543
0.000764204
-0.00018166
0.000795423
-0.000191202
0.000835054
-0.000194239
0.000875009
-0.000187438
0.000942636
-0.000180278
0.0010402
-0.000138862
0.00109326
-0.0001155
0.00109189
-5.60045e-05
0.00105145
1.55656e-06
-4.48509e-06
4.84411e-05
0.00100408
1.73118e-05
0.00107762
1.07702e-06
0.00115111
-2.75884e-05
0.00117987
-1.54196e-05
0.00114703
8.9124e-06
0.00113026
2.11627e-05
0.00115728
-1.71176e-06
0.0011771
-8.45649e-06
0.00113348
1.33663e-05
0.00104071
-0.00100647
0.000962417
5.29299e-05
-0.00105288
1.43531e-05
-0.00106866
-4.71847e-05
-0.00103259
-0.000116896
-0.000962734
-0.000156155
-0.000871666
-0.000208826
-0.000834939
-0.000198843
-0.000796154
-0.000201447
-0.000766332
-0.000197841
-0.000739766
-0.000188872
-0.000718846
-0.000175234
-0.000704018
-0.000166857
-0.000695472
-0.000160986
-0.000695055
-0.000154054
-0.00069808
-0.000149775
-0.000702262
-0.000143638
-0.000707368
-0.000139303
-0.000711164
-0.000133539
-0.000708959
-0.000129423
-0.000700248
-0.000116277
-0.000682228
-9.93754e-05
-0.000643789
-7.64459e-05
-0.000600318
-4.67474e-05
-0.000562728
-2.46379e-05
-0.000542012
1.16478e-05
-0.00053282
2.64932e-05
-0.000534137
3.85976e-05
-0.000540379
4.97004e-05
-0.000551052
5.36413e-05
-0.00056523
4.77169e-05
3.00983e-05
-0.000574715
-0.000523675
-0.000496942
0.000544354
-3.53575e-05
-0.000584465
-0.000650753
-5.51808e-05
0.000132304
-5.74992e-05
-0.000440938
-0.000567138
0.000639837
-0.000592101
-0.000415233
0.000614196
-0.000394528
-0.000360266
0.000538657
-0.000681374
-0.000301475
0.000758453
0.000112987
-1.58118e-05
0.000656141
0.000105023
-0.00064813
0.000629681
0.00015434
0.000611646
0.000165073
0.000598122
0.000160074
0.000592118
0.000147454
0.000584585
0.00013238
0.000579837
0.000114584
0.000570824
0.000105666
0.000561157
9.1341e-05
0.000560869
7.32313e-05
0.000572304
5.03169e-05
0.000600767
1.90219e-05
0.0006402
-1.47814e-05
0.000685872
-5.30511e-05
0.000715527
-7.05699e-05
0.000727304
-8.86725e-05
0.000738353
-0.000104557
0.000740335
-0.000112294
0.000733414
-0.000117442
0.000723433
-0.000120856
0.000717715
-0.000127531
0.000712741
-0.000132732
0.000709698
-0.000138135
0.000709723
-0.000144046
0.000709686
-0.000151429
0.000711064
-0.000157069
0.000719705
-0.000167681
0.000731748
-0.000180542
0.000745292
-0.00019363
0.000761728
-0.000206099
0.000783123
-0.000214652
0.000807193
-0.000209547
0.000833696
-0.000203351
0.000931639
-0.000227669
0.000975256
-0.000158352
0.000974811
-5.52426e-05
0.000943367
3.28768e-05
0.000906574
8.41678e-05
-8.57851e-05
0.000878046
0.000112501
-5.69937e-05
0.000971898
-3.8807e-05
0.00105439
-4.37349e-05
0.00115506
-3.0994e-05
0.00116449
-8.68221e-06
0.00112035
1.29604e-05
0.00110448
4.02469e-05
0.00112503
4.74334e-05
0.00116722
5.00993e-05
0.00112921
6.62816e-05
0.00102215
9.03486e-05
0.000935734
-0.000863107
0.00083975
0.000111323
-0.000896662
8.3578e-05
-0.000915241
3.13026e-05
-0.000906007
-5.75273e-05
-0.000870176
-0.00015362
-0.000791539
-0.000224
-0.000785036
-0.000210978
-0.00077448
-0.000207453
-0.00075863
-0.000216552
-0.000743092
-0.000212075
-0.00072667
-0.000203699
-0.000714977
-0.00018585
-0.000707929
-0.000173063
-0.000705752
-0.0001625
-0.000705633
-0.000153596
-0.000708391
-0.000146504
-0.00071151
-0.000140025
-0.000717854
-0.000132455
-0.00072384
-0.000127168
-0.000733107
-0.000119841
-0.000733908
-0.000115198
-0.000725761
-0.000107255
-0.000711668
-9.02743e-05
-0.000687758
-7.03668e-05
-0.000656451
-5.55946e-05
-0.000618023
-2.64071e-05
-0.00058796
-3.27375e-06
-0.000570217
2.11135e-05
-0.000567062
4.67814e-05
-0.000573168
5.99711e-05
-0.000586206
6.09746e-05
4.81124e-05
-0.000604004
-0.000586293
4.79159e-06
-0.000498126
-0.000546454
-0.000509738
-0.000557602
0.000570402
0.000568507
0.00118973
-0.00113011
-0.000628128
-0.000594662
-2.68902e-05
-0.000622724
-0.000242997
0.000113366
-0.000649933
-0.000333014
-0.000640129
-0.000404307
1.24825e-05
-0.000213986
-0.000449228
-0.000245868
-0.000504575
2.59291e-05
-0.000597016
-4.2577e-05
-0.000460986
-0.000572046
-0.000581166
-0.000474182
-0.000122889
0.000138365
0.000860865
-0.00011083
0.00095693
-0.000102139
0.0010423
-6.24176e-05
0.00111188
-2.22189e-05
0.00111604
-1.0234e-06
0.00109385
1.20675e-05
0.00108522
3.45654e-05
0.00109645
8.22096e-05
0.00111254
0.000115389
0.00109196
0.000121322
0.00101338
0.00012938
0.000925868
0.000136892
0.000830641
-0.000736052
0.000141338
0.000730246
-0.000747537
0.000121027
-0.000754833
9.00632e-05
-0.000740398
1.65987e-05
-0.000731128
-6.67878e-05
-0.000734725
-0.000148083
-0.000729244
-0.000220792
-0.000727859
-0.000209409
-0.000718847
-0.000215722
-0.000720062
-0.000214629
-0.000719967
-0.000211191
-0.000719211
-0.000203118
-0.000715324
-0.00018855
-0.000714677
-0.000172739
-0.000714979
-0.00016147
-0.000715284
-0.000152652
-0.000717939
-0.000143337
-0.000721626
-0.000135783
-0.000725369
-0.000128239
-0.000731601
-0.000120399
-0.000737818
-0.000113251
-0.000747373
-0.000105373
-0.000756691
-9.77001e-05
-0.000755188
-9.15549e-05
-0.00074398
-8.13555e-05
-0.000727325
-7.20292e-05
-0.000710094
-4.33572e-05
-0.000676135
-3.68445e-05
-0.000644061
-1.05808e-05
-0.000614826
1.78446e-05
-0.000602481
4.78814e-05
-0.00060712
6.58477e-05
7.05686e-05
-0.000629351
1.84335e-05
-0.000617435
0.000485026
-0.000394906
-0.000519251
-0.000465631
-0.000599629
0.000643037
-0.000170626
0.000214545
-0.000686855
0.00136758
-7.75411e-07
-0.00133499
-3.18183e-05
0.000628485
0.000185387
-0.000659454
0.000615452
0.000178187
0.000607841
0.000167769
0.00060533
0.000150084
0.000602673
0.000135185
0.00059399
0.000123517
0.000593255
0.000106665
0.000605659
7.92284e-05
0.000632574
4.66482e-05
0.000672575
1.07247e-05
0.000713775
-2.16118e-05
0.000745153
-4.56959e-05
0.000757191
-6.47994e-05
0.000768094
-8.12949e-05
0.000769465
-8.98675e-05
0.000759475
-9.4388e-05
0.000748214
-0.000100836
0.000739081
-0.000108039
0.000733355
-0.000114729
0.000727817
-0.00012147
0.000724036
-0.000128423
0.000721819
-0.000135373
0.000720881
-0.000142544
0.000720324
-0.000150278
0.00072187
-0.000157951
0.000721644
-0.000166674
0.000724956
-0.000182647
0.000728334
-0.000195683
0.000732461
-0.000208921
0.000731007
-0.000212658
0.000738319
-0.000215608
0.000744494
-0.000207219
0.000739889
-0.000218534
0.000759109
-0.000169124
0.000780594
-7.60786e-05
0.000796574
1.7246e-05
0.000784417
9.59458e-05
0.000768442
0.000127005
0.000758983
0.000146904
-0.000514868
-0.000593408
0.00059854
-0.00054437
-0.000559683
0.0010987
-5.43813e-05
9.1555e-05
-0.00113588
-0.000522186
-6.23107e-05
-0.000419234
-0.000589914
-4.72478e-05
-0.000619142
0.00062615
0.000133492
-0.000614429
0.000115658
-0.00059031
6.62791e-05
-0.000578406
5.37637e-06
-0.000581433
-6.28898e-05
-0.000599303
-0.000127935
-0.000630103
-0.000185178
-0.000642662
-0.000195059
-0.000657877
-0.000199831
-0.000672785
-0.000199271
-0.000687
-0.000196135
-0.00069747
-0.000191672
-0.00070336
-0.000181509
-0.000706746
-0.000168289
-0.000711794
-0.000155544
-0.000716934
-0.00014683
-0.000721174
-0.000138536
-0.000726016
-0.00013041
-0.0007314
-0.000122368
-0.000737046
-0.000114262
-0.000743623
-0.000106188
-0.000750566
-9.80709e-05
-0.000757553
-9.044e-05
-0.000766964
-8.19483e-05
-0.000775585
-7.25452e-05
-0.000781632
-6.57957e-05
-0.000770021
-5.47801e-05
-0.000759707
-4.69668e-05
-0.00074377
-2.62653e-05
-0.000715657
-9.92821e-06
-0.000679868
1.24732e-05
-0.000657049
4.3326e-05
-0.000658116
7.18972e-05
4.68392e-05
-0.000657533
0.000438702
-0.000360851
0.000407184
-0.000627541
-0.000410131
-0.000161287
0.000162576
0.000757141
-0.000155248
0.000853241
-0.000143562
0.000942577
-0.000118111
0.00101223
-7.08532e-05
0.00105677
-3.01007e-05
0.00106883
-4.03715e-06
0.0010622
1.80867e-05
0.00105679
4.46617e-05
0.00106378
9.10558e-05
0.00106015
0.000135741
0.00104006
0.000153656
0.000992274
0.000160173
0.000917659
0.000161649
0.000827954
0.000157908
0.000733124
0.000145888
0.000637574
0.000588745
-0.000397371
-0.000586276
0.000670288
-0.000473008
0.000656436
-0.000390423
0.000650085
-0.000326611
-0.0002742
-0.000422822
0.000408271
0.000444727
-0.000169027
-0.000658186
-0.000416459
0.000395915
-5.20573e-06
2.58318e-05
-0.000267943
-0.000733121
0.000708442
0.000620389
0.000177736
-0.000612618
0.000626352
0.000172344
0.000629624
0.000164631
0.000624885
0.000155075
0.000627337
0.000132996
0.000643814
0.000107339
0.000675009
7.58352e-05
0.000713292
4.14473e-05
0.000751977
8.49165e-06
0.000779578
-1.65703e-05
0.000793589
-3.54738e-05
0.000800539
-5.25069e-05
0.000798708
-6.28334e-05
0.000786115
-6.85677e-05
0.000773592
-7.72012e-05
0.000764658
-8.52647e-05
0.000756788
-9.27088e-05
0.000749148
-0.00010003
0.000742462
-0.000107522
0.000736856
-0.00011533
0.000731768
-0.000122813
0.000727164
-0.000130223
0.000722643
-0.000137429
0.000717941
-0.000144921
0.000713767
-0.000153016
0.000710947
-0.000162952
0.000706637
-0.00017716
0.000700758
-0.000188555
0.0006877
-0.000195143
0.000673417
-0.000197865
0.00065971
-0.000201282
0.000647638
-0.000193344
0.000622655
-0.000190711
0.000603539
-0.000146388
0.000601126
-7.30881e-05
0.000615621
3.15109e-06
0.000642379
6.9322e-05
0.000646115
0.000122798
0.000651686
0.000141067
0.000659796
0.000154319
7.96465e-05
0.00110086
-8.18002e-05
-3.47952e-05
-0.000609377
-0.00034308
0.000178945
-0.000511858
-0.000638672
0.000635665
-0.000506202
-0.000637794
-0.000556343
-0.000596745
-0.00115823
-0.000141266
0.00124512
0.00128945
-4.71094e-05
-0.00118537
0.000473937
-4.44734e-05
-0.000607691
0.000125174
-0.000736187
0.000463559
0.00034187
-0.000360691
-0.000380561
-0.000979419
0.000426049
0.000396256
-0.000592113
-0.000500392
0.000696439
-1.38922e-05
-0.00131207
-8.55122e-05
0.00141147
-0.000526603
0.00054251
0.00012979
-0.000510602
0.000117253
-0.000483826
8.92547e-05
-0.000463254
4.62088e-05
-0.000456121
-1.26794e-06
-0.000467228
-5.09636e-05
-0.000491411
-0.000102083
-0.000529461
-0.000144428
-0.000559296
-0.000163808
-0.000585052
-0.000173225
-0.000610662
-0.000173156
-0.000633881
-0.000172335
-0.000654241
-0.000170529
-0.000669088
-0.000165712
-0.000679825
-0.000156431
-0.000689353
-0.000144983
-0.000698785
-0.00013669
-0.000707967
-0.000128812
-0.000716625
-0.000121258
-0.000724765
-0.000113721
-0.000733019
-0.000105526
-0.000741045
-9.76622e-05
-0.000749163
-8.95489e-05
-0.000757499
-8.17437e-05
-0.000764755
-7.44349e-05
-0.000770298
-6.67941e-05
-0.000779477
-5.64431e-05
-0.00079286
-4.12404e-05
-0.000798736
-4.09407e-05
-0.000798784
-2.60684e-05
-0.000793066
-1.54949e-05
-0.000778787
-1.60006e-06
-0.000758991
2.38417e-05
-0.000737056
5.03203e-05
0.000105902
-0.000717457
0.000559404
-0.0003315
-0.000909809
0.000801701
-0.000447245
0.000627957
-0.000459322
-0.00107844
-0.000175112
0.000164518
0.000670209
-0.000177835
0.000759402
-0.000173121
0.000847155
-0.000154921
0.00092215
-0.000122733
0.000976605
-7.85134e-05
0.00100759
-3.54702e-05
0.00102127
-2.66913e-06
0.00102464
2.26206e-05
0.001026
5.63902e-05
0.00102497
9.86754e-05
0.00101364
0.000140248
0.000994776
0.000168616
0.000961332
0.000181412
0.000903131
0.000181016
0.000827136
0.000172675
0.000740738
0.000159306
0.000650504
0.000139635
0.000562117
-0.000432935
0.000688954
-0.000456177
0.000662997
-0.000364433
0.000640751
-0.000304307
0.000617687
-0.000251044
-0.000294099
0.000610423
-9.21022e-06
-3.7311e-05
0.000624699
-0.000721105
0.000639052
0.000182926
-0.000627781
-0.000194043
0.000638958
0.000178013
0.000643087
0.000168409
0.000657424
0.000150516
0.000686254
0.000126517
0.000720879
9.87333e-05
0.000759308
6.94606e-05
0.000791826
4.38258e-05
0.000814075
1.94943e-05
0.000825158
-2.4794e-06
0.000825991
-1.7299e-05
0.000820242
-2.96225e-05
0.000807773
-3.99361e-05
0.00079594
-5.0891e-05
0.000787102
-5.95697e-05
0.0007779
-6.77868e-05
0.000768611
-7.5719e-05
0.000759536
-8.33183e-05
0.000750574
-9.0654e-05
0.000741635
-9.80374e-05
0.000732477
-0.000105622
0.0007232
-0.000112999
0.000713788
-0.000120234
0.000704275
-0.000127361
0.000694954
-0.000134923
0.000685371
-0.00014269
0.00067676
-0.000153277
0.000664843
-0.000164157
0.000647285
-0.000170109
0.000625431
-0.000172745
0.000601247
-0.000173267
0.000573764
-0.000173066
0.000548759
-0.000166627
0.000512734
-0.0001526
0.000482772
-0.000114474
0.000469123
-5.88682e-05
0.000477306
-5.30547e-06
0.000500127
4.63104e-05
0.000528321
9.44595e-05
0.000544851
0.000124242
0.000560797
0.000138204
0.000578686
0.000146499
0.000615735
-0.000396735
-0.000616355
-4.70271e-05
-0.000645087
0.000564859
-0.0006384
-0.000657439
0.00064971
-0.000440293
0.000448028
-0.000660426
-0.00046923
0.000472222
-0.000500914
-0.000671367
-0.000604701
-5.18037e-05
-0.000692936
-0.000643343
-0.000551668
-0.000628043
-0.000606493
0.00137474
-0.00133881
-4.98183e-05
0.000685468
-0.000504658
0.000394064
-0.00057486
-0.00136499
0.00122539
-7.17007e-05
0.000429958
-0.000296218
0.000764342
3.45543e-06
-0.000255358
0.000563779
0.000250997
0.00112622
-0.00110958
7.49146e-05
8.10492e-05
0.00112482
0.00080984
6.06549e-05
0.000813765
4.65494e-05
0.000812974
2.47799e-05
0.000804271
7.2416e-06
0.000795757
-6.84892e-06
0.000787712
-1.79029e-05
0.000774863
-2.79452e-05
0.000771707
-3.79051e-05
0.000762009
-4.65319e-05
0.000751258
-5.57984e-05
0.000740829
-6.37069e-05
0.000730066
-7.05866e-05
0.000719109
-7.81374e-05
0.000707798
-8.58386e-05
0.000696089
-9.33348e-05
0.000683479
-0.000100602
0.000670289
-0.000107572
0.00065647
-0.000114385
0.000641937
-0.000121438
0.000627417
-0.000129474
0.000609715
-0.000137765
0.000587669
-0.000142836
0.000562131
-0.000144246
0.000534216
-0.000143752
0.000504074
-0.000142383
0.000470171
-0.000138483
0.000433356
-0.00012588
0.000396909
-0.000106412
0.000370595
-7.46967e-05
0.000358361
-3.81043e-05
0.000360337
-2.72585e-06
0.000375166
3.17188e-05
0.000399411
6.51786e-05
0.000424518
9.25505e-05
0.00044752
0.000107136
0.000473662
0.00011392
8.34019e-05
0.00111452
-9.70653e-05
-0.000168985
0.000149675
0.000597836
-0.000181433
0.000682203
-0.00018566
0.000763068
-0.000177235
0.000837414
-0.000154609
0.000897638
-0.000120975
0.000940293
-7.94284e-05
0.000962576
-4.01241e-05
0.000978449
-6.16273e-06
0.000986815
2.75844e-05
0.000988011
6.35112e-05
0.000985257
0.000101034
0.000973254
0.000138301
0.000955309
0.000169684
0.000928119
0.00018701
0.000884179
0.000190128
0.000822714
0.00018298
0.000747057
0.000166466
0.000666583
0.000145756
0.000582914
0.000119127
0.000500484
0.000611006
-0.000326754
-0.000122392
-0.000660569
-0.00040515
0.000634019
0.000420853
0.000316541
0.00128919
-0.000993489
-0.000612241
0.00020902
-0.00105071
0.000130134
-0.00105699
9.19488e-05
-0.0010714
0.00110527
5.81134e-05
-0.00107143
0.00111187
6.83103e-05
0.00111791
7.5015e-05
-0.000116165
0.000158252
0.00107582
0.000716284
-0.000341101
5.91352e-05
0.0010822
-0.00106257
-7.87656e-05
0.00035057
0.000671895
-0.000336981
0.000341972
0.000725262
-0.000812262
-0.000254946
0.000743233
-0.000675678
-0.000423532
0.000658924
-0.000685623
-0.000459279
-0.000488291
-0.000698243
-5.78958e-05
-0.000591191
0.000613101
-0.000384166
-0.000625646
7.37624e-05
-3.082e-05
0.000722734
-0.000377181
0.000674931
-0.000316583
0.000639716
-0.000269023
0.000642665
-0.000253882
-0.000262707
0.000611385
-0.000481963
0.000735339
0.000357181
0.000339864
-0.000207736
-0.000510974
0.000378961
0.000662884
0.00021802
-0.000243067
-0.000637681
0.000670556
0.000175445
0.000696149
0.000152672
0.000731535
0.000133356
0.000766532
0.000116016
0.000795613
9.78092e-05
0.000816205
7.83413e-05
0.000827979
5.7794e-05
0.000834297
3.76053e-05
0.000833295
2.05963e-05
0.000824977
5.93782e-06
0.000815716
-7.92096e-06
0.00080694
-2.07148e-05
0.000798384
-3.12377e-05
0.000788095
-4.04246e-05
0.000777366
-4.86336e-05
0.000766012
-5.61903e-05
0.000754149
-6.35925e-05
0.000741859
-7.07043e-05
0.000729522
-7.79062e-05
0.000716978
-8.49393e-05
0.0007039
-9.20171e-05
0.000690642
-9.91829e-05
0.000676762
-0.000105828
0.000662769
-0.000112763
0.000647939
-0.000119469
0.000633094
-0.000127083
0.000617722
-0.000136889
0.000597915
-0.000143416
0.000573769
-0.000145193
0.000547059
-0.000145413
0.000517711
-0.000143288
0.000485492
-0.000139918
0.000449807
-0.000129622
0.000411591
-0.000112978
0.000380896
-8.26953e-05
0.000366515
-4.393e-05
0.000367919
-6.28124e-06
0.000383267
3.14241e-05
0.000410718
6.74192e-05
0.000437896
9.73447e-05
0.000461683
0.000114252
0.000487374
0.000120678
0.000513905
0.000123033
0.000685601
0.000412797
-0.000704324
0.000661576
0.000374604
-0.000295905
0.000338534
0.00061896
-0.00123974
0.000118998
0.00126794
-0.000147198
0.000596405
-0.0002204
-7.08125e-05
-0.000625876
-5.51862e-05
0.00126791
4.5814e-05
0.000311914
0.000549323
-0.000264788
0.000151317
0.001163
-0.00025322
-0.00106109
-0.000666766
-0.000604617
-0.000674728
-0.000541198
-0.000681833
0.000400447
-0.000687644
0.000661808
0.000683197
-0.000434256
-0.000708213
0.000660118
0.00109206
-0.000709096
0.0013303
0.000107491
-6.3055e-05
-0.00118446
0.000235122
0.00110759
0.000748432
-0.000644704
-0.000886453
-0.000691522
-0.000208009
0.000679196
-0.000285237
-0.00117552
6.60733e-05
-0.00116197
5.47591e-05
-0.0011162
1.23447e-05
0.000774155
5.29085e-05
0.000778556
4.22451e-05
0.000773868
2.95723e-05
0.00076693
1.42923e-05
0.00075905
1.16205e-06
0.000753099
-1.17951e-05
0.000742926
-1.75947e-05
0.000733329
-2.81044e-05
0.000720408
-3.33833e-05
0.000707453
-4.25924e-05
0.000694079
-5.00148e-05
0.000681918
-5.80429e-05
0.00066895
-6.46934e-05
0.000655278
-7.165e-05
0.000640688
-7.82136e-05
0.000625198
-8.45942e-05
0.000608998
-9.08232e-05
0.000591975
-9.67567e-05
0.000573835
-0.000102586
0.000554853
-0.000109529
0.0005327
-0.000114616
0.000506398
-0.000115673
0.000476866
-0.00011393
0.000445115
-0.000111319
0.000410743
-0.000107349
0.000373924
-0.000100876
0.000338242
-8.91842e-05
0.00030613
-7.32225e-05
0.000283396
-5.10955e-05
0.000272468
-2.65346e-05
0.000271873
-1.60558e-06
0.00028216
2.19408e-05
0.000302583
4.52535e-05
0.000328728
6.69613e-05
0.000355362
8.10603e-05
0.00038071
8.91529e-05
0.000406493
9.39451e-05
-0.000634703
-0.000227861
0.000599979
-0.000663894
-0.000224569
-0.000688122
-0.000244672
-0.000749304
-0.000255309
-0.000825888
-0.000300555
-0.000924089
-0.000349027
-0.00112132
0.000772092
0.000844741
-0.000239363
0.000595035
-0.000667384
0.000713875
-0.000385148
0.000638934
0.000364362
0.000635994
-5.67832e-05
0.00109847
3.41419e-05
6.6461e-05
0.0011072
0.000423654
-0.000771731
-0.000356243
-0.000463607
-0.000732893
0.000597149
-0.000196993
0.000137332
-0.000537473
1.32569e-05
-0.00116378
3.32544e-05
-0.000548407
0.000633858
-0.000347486
0.000264649
-0.000206393
-0.00100253
0.000944274
-0.00122169
-3.68459e-06
0.00113986
-0.000368456
-0.00101494
-0.000149729
0.000127804
0.000535677
-0.000172513
0.000620339
-0.000184182
0.00069322
-0.000185555
0.000763544
-0.000173526
0.000824041
-0.000149667
0.000872087