/*--------------------------------*- C++ -*----------------------------------*\
| =========                 |                                                 |
| \\      /  F ield         | OpenFOAM: The Open Source CFD Toolbox           |
|  \\    /   O peration     | Version:  2212                                  |
|   \\  /    A nd           | Website:  www.openfoam.com                      |
|    \\/     M anipulation  |                                                 |
\*---------------------------------------------------------------------------*/
FoamFile
{
    version     2.0;
    format      ascii;
    arch        "LSB;label=32;scalar=64";
    class       surfaceScalarField;
    location    "0.027";
    object      phi;
}
// * * * * * * * * * * * * * * * * * * * * * * * * * * * * * * * * * * * * * //

dimensions      [1 0 -1 0 0 0 0];

oriented        oriented;

internalField   nonuniform List<scalar> 
4475
(
0.000647377
-0.000660298
0.000804651
-0.000790897
2.74109e-05
-4.55484e-05
2.12928e-06
1.83301e-05
0.00141735
-0.00161584
0.0001451
5.33783e-05
-0.000394226
0.000975537
0.000337021
-0.000916626
-0.000574265
0.000524403
0.0005538
-0.000503397
0.000503795
-0.000403283
-0.000559041
0.000459494
-0.000144142
0.000127544
0.000756363
-0.000738588
-0.000466973
-0.000599652
0.000544349
0.000523002
0.00054233
-0.000599346
-0.000516748
-0.000789613
1.69297e-05
9.60066e-06
0.000773347
-8.35175e-05
3.14336e-05
-0.000730348
-0.000707474
0.00011179
-9.31071e-05
0.000692911
-0.000699589
4.11443e-05
-4.5998e-05
-0.000693703
2.47603e-05
-2.81919e-05
-0.000686217
1.80439e-05
-2.33895e-05
-0.000673887
1.38671e-05
-2.42733e-05
1.48442e-05
-0.000642031
-4.49679e-05
0.000628229
-5.49281e-05
-0.000608472
3.67252e-05
0.000674315
-2.94877e-05
0.000688581
1.68638e-06
0.00069892
1.00681e-05
0.000712526
1.38825e-05
0.000737333
1.96632e-05
0.000833897
2.00896e-05
0.00079883
-4.11864e-05
0.000852156
-2.47869e-05
0.0011779
9.84631e-05
-0.000415811
0.0012414
-6.47815e-05
1.63539e-05
0.000769335
-0.00077065
-0.00014155
-0.000621045
-7.43258e-05
0.00131169
-1.42614e-05
-2.98073e-05
0.00130059
3.84575e-05
-1.4855e-05
0.00129189
1.58319e-05
-5.65704e-06
0.00128658
7.97019e-06
-1.97302e-06
0.00129001
-2.08407e-06
-1.76588e-06
0.00129691
-6.47944e-06
-1.98905e-06
0.00130324
-1.06866e-05
1.33436e-06
0.00129407
-1.25736e-06
5.78562e-06
0.00127435
4.82436e-06
8.72521e-06
0.0012476
9.4797e-06
1.04456e-05
0.00121813
1.00628e-05
1.21699e-05
0.00118466
1.25081e-05
1.40278e-05
0.00114884
1.4682e-05
1.51638e-05
0.00111435
1.39662e-05
1.56915e-05
1.12506e-05
0.00108484
1.44918e-05
-0.00110844
0.00107253
4.36164e-05
-0.0011444
4.54537e-05
-0.00117582
4.08141e-05
-0.0012094
4.04119e-05
-0.00123753
3.30214e-05
-0.00125755
2.49096e-05
-0.00126925
1.05237e-05
-0.00128315
6.5026e-06
-0.00127673
-1.39478e-05
-0.0012662
-1.75709e-05
-0.00127105
-1.28857e-07
-0.00127762
9.61603e-06
-0.00128236
1.62227e-05
-0.0012385
1.1852e-05
-0.00114281
-9.5078e-05
-0.00115181
-4.89198e-05
-0.000852232
6.84157e-05
-0.000360646
-0.00083175
-5.59226e-06
-0.000752261
-4.0681e-05
-0.000711609
-6.95386e-05
3.51472e-05
-0.000717142
-8.32617e-05
-0.000706321
-5.3645e-05
-0.000698015
-3.39688e-05
-0.000690251
-2.90127e-05
-0.000675423
-3.71897e-05
-0.000666104
-5.25027e-05
1.56932e-05
1.48541e-05
0.00105092
4.14665e-05
0.00104351
0.000686862
-6.68029e-05
-0.000647415
0.000702815
-1.18529e-05
0.000717589
-1.78258e-06
0.00073531
-6.03739e-07
0.000768203
-9.86731e-06
0.000824225
-3.0985e-05
0.00086339
-7.24467e-05
0.0009378
-8.97752e-05
0.00109713
-5.46365e-05
0.00120737
-7.93698e-05
0.00130166
-9.18874e-05
0.00129182
5.85009e-06
0.001283
5.50232e-06
0.00128425
-1.4824e-06
0.00129263
-9.7191e-06
0.00130171
-1.10916e-05
0.00131277
-9.6573e-06
0.00130456
1.25658e-05
0.00127699
2.57542e-05
0.00124751
3.21015e-05
0.00121742
3.4516e-05
0.00118436
4.00259e-05
0.00115104
4.27352e-05
0.00111691
4.52023e-05
0.00108276
4.4935e-05
-7.42351e-05
-0.000608799
7.6123e-05
4.25667e-05
0.00105158
-0.000130417
-0.000563428
-0.000647083
-9.1647e-05
-0.00106082
0.0010339
6.5743e-05
-0.00109414
7.40345e-05
-0.00112339
7.09296e-05
-0.00115922
7.19412e-05
-0.00118829
6.42813e-05
-0.00121366
5.3348e-05
-0.00123314
3.98206e-05
-0.00125246
2.36537e-05
-0.00125969
4.42443e-06
-0.00127137
-1.10262e-05
-0.00128114
-1.1041e-05
-0.00127973
-3.75333e-06
-0.00127588
3.7023e-06
-0.00126744
5.58259e-06
-0.00110804
-0.00010926
-0.00106498
-0.000120074
-0.00102033
-8.35633e-05
-0.000895565
-5.06254e-05
-0.000840093
-5.76532e-05
-0.000808345
-6.84214e-05
-0.000780078
-9.31154e-05
-0.000753714
-0.000103442
-0.000728688
-7.46414e-05
-0.000713137
-4.65694e-05
-0.000705838
-3.40572e-05
-0.000697727
-4.32753e-05
-0.000685189
-6.31913e-05
-0.000580197
0.000824894
-0.000710728
0.000340864
-0.000628667
-0.000231129
0.000519845
-0.000411597
-0.00035666
0.0004468
0.00032224
0.000433913
0.000773482
4.99789e-05
-0.00011837
-0.000702709
0.000718534
-9.21421e-06
0.000728187
-1.86536e-05
0.000746146
-1.61501e-05
0.000775049
-2.55369e-05
0.000816631
-4.69415e-05
0.000870339
-7.75359e-05
0.000914767
-0.000110931
0.000953567
-0.000123815
0.00102786
-0.000125213
0.00108021
-0.000124209
0.00114487
-0.000142445
0.00128284
-9.61235e-05
0.00128784
2.29485e-06
0.00128852
-1.10006e-06
0.00129007
-1.25993e-05
0.00128768
-1.34869e-05
0.00128215
-7.43872e-06
0.00127443
1.18732e-05
0.0012586
3.26154e-05
0.00123765
4.49149e-05
0.00120674
5.81271e-05
0.00117375
6.70409e-05
0.00114232
6.94416e-05
0.00111159
7.21966e-05
0.00107863
7.47776e-05
0.00104562
7.25777e-05
-4.20974e-05
0.00101823
6.66873e-05
-1.31799e-05
0.00101959
1.61129e-05
0.00101868
4.23448e-05
0.00101441
-0.000523377
0.000507059
-0.000582633
0.00100714
6.67442e-05
-0.000679833
-0.000694277
0.000795229
-0.000547895
0.000940402
0.000454386
-0.000845357
-0.000163596
-0.000612331
0.000630226
-0.000489645
0.000661146
-0.000801116
0.000542402
0.000528347
-0.00054562
-0.00076399
1.71932e-06
0.000155113
-0.000682462
-9.25634e-05
-3.43002e-05
5.95293e-05
0.000990492
-9.0979e-06
0.000991735
1.69986e-05
0.000990278
3.91466e-05
0.000989877
5.99551e-05
0.000984352
-0.00100389
7.98288e-05
0.000982553
-0.0010213
8.25086e-05
-0.00105085
9.33931e-05
-0.00107509
9.60075e-05
-0.00110803
0.000101191
-0.00113645
9.69512e-05
-0.00116416
8.81005e-05
-0.00118771
7.22467e-05
-0.00121031
5.65961e-05
-0.00123389
3.92786e-05
-0.00125814
1.99467e-05
-0.00128673
1.20509e-05
-0.00130621
8.15215e-06
-0.00130072
-6.21909e-06
-0.00126773
-2.45504e-05
-0.00113569
-9.50281e-05
-0.0010714
-0.000157401
-0.00103682
-0.000145504
-0.000972772
-0.000141422
-0.000906958
-0.000111963
-0.000871151
-8.99101e-05
-0.000840757
-9.57022e-05
-0.000828901
-0.0001019
-0.000817127
-0.000111002
-0.000784068
-0.000101655
-0.000753802
-7.29203e-05
-0.000736403
-4.84821e-05
-0.000729712
-4.76713e-05
-6.80692e-05
-0.000722816
6.50437e-05
-5.39815e-05
-0.000711547
0.000702203
0.000735047
-0.000878401
0.00079252
-0.000648911
0.000527001
-0.000508024
0.000535505
0.000703161
3.12969e-05
9.15056e-05
0.00074285
0.000113502
-0.000152081
0.00075308
0.00011873
0.000747917
0.000100907
-9.38671e-05
0.000741343
7.3809e-05
0.000744953
5.54719e-05
-5.65099e-05
0.000763637
3.39651e-05
0.000758524
-1.29277e-06
0.000768134
-2.52469e-05
0.000792815
-3.73736e-05
0.000829978
-5.82745e-05
0.00087058
-8.24838e-05
0.00091102
-0.000112366
0.000935931
-0.000131774
0.000962966
-0.000147053
0.00100107
-0.000160514
0.00104986
-0.000168635
0.00107673
-0.000162579
0.00115584
-0.000160447
0.00128204
-9.12741e-05
0.00130827
-2.54847e-05
0.00131341
-1.75021e-05
0.0012956
1.00309e-06
0.00127251
8.44813e-06
0.00125563
2.10326e-05
0.00124353
4.06261e-05
0.00122012
6.54456e-05
0.00119057
8.44581e-05
0.00116227
9.17838e-05
0.00113224
9.58106e-05
0.00109945
0.000101741
0.00106991
0.00010141
0.00104265
9.7263e-05
0.00101802
8.89958e-05
7.97893e-05
0.000995715
7.77111e-05
0.00153346
-0.0012462
-0.00036505
-0.00065553
0.00060686
-0.00101597
0.00104446
0.000372498
-0.000400461
-2.23994e-06
0.000739304
3.63842e-05
-0.000771604
-0.00161176
-0.000239271
0.000563232
0.00128783
-0.000674273
-0.000566692
-0.000153058
-0.000691233
-0.000678773
-7.54609e-05
0.000701732
-0.00099328
0.000978684
9.38409e-05
-0.0010151
0.000102898
-0.00103107
0.000107854
-0.00105937
0.000122023
-0.00108317
0.000121994
-0.00110937
0.000119571
-0.00113632
0.00011123
-0.00116509
9.67486e-05
-0.00119715
8.2914e-05
-0.00123302
6.61696e-05
-0.00127859
5.3342e-05
-0.00132478
5.91191e-05
-0.00132727
1.26419e-05
-0.0012902
-3.93491e-05
-0.00120972
-8.61875e-05
-0.0010921
-0.000196743
-0.00105358
-0.00018886
-0.000999273
-0.000193025
-0.000962081
-0.000174437
-0.000924607
-0.000145968
-0.000893272
-0.000117635
-0.000868515
-0.000117437
-0.000862633
-0.000105059
-0.000862815
-0.000108155
-0.000852621
-0.00010851
-0.000831477
-8.9581e-05
-0.000804708
-6.99509e-05
-0.000786712
-6.21565e-05
-0.000787698
-6.45233e-05
-8.90069e-05
-0.000724546
-0.000575535
-0.000539558
0.000625879
-0.000413261
-0.000950271
0.000974026
0.000392219
0.000772908
9.49334e-05
-0.000834962
0.000781188
0.000106937
0.000784968
0.000116974
0.000782567
0.000105746
0.000781449
7.74173e-05
0.000788398
5.11126e-05
0.000800953
2.41449e-05
0.000810597
-7.90115e-06
0.00082571
-3.68474e-05
0.000854453
-6.21333e-05
0.000882203
-8.18295e-05
0.000912246
-0.000108383
0.000936359
-0.000132095
0.000957315
-0.000148836
0.000977844
-0.000163856
0.000998421
-0.000178384
0.00102639
-0.000192712
0.00106528
-0.000196079
0.00110485
-0.000194183
0.00122297
-0.000193225
0.00130834
-8.66748e-05
0.00134139
-5.04698e-05
0.00134136
-3.29041e-07
0.00129707
4.79415e-05
0.00126216
4.84329e-05
0.00122562
6.90204e-05
0.00119395
9.11308e-05
0.00116801
0.000105313
0.00114117
0.000114208
0.00110919
0.000123961
0.00108029
0.000127611
0.00105627
0.000122954
0.00103419
0.00011737
0.00101517
0.000106082
0.000994675
9.90885e-05
-7.21514e-05
8.73849e-05
0.000979278
-5.27256e-05
0.000975271
-3.04535e-05
0.000966777
-7.29873e-06
0.00096686
1.24392e-05
0.000968974
3.69791e-05
0.000963793
5.82686e-05
0.000962042
7.52643e-05
0.000965084
0.000968347
8.5664e-05
-0.00106337
-0.000423522
0.000471192
-8.35848e-05
0.0001142
-0.00142416
0.00139356
-0.000916571
0.000694149
-0.00126239
0.00148482
-0.000811057
-0.000517693
0.000727582
0.000756705
-0.000836299
-0.000479594
0.000326612
0.000930834
-0.000782834
-9.18001e-05
-0.000127206
-0.000748665
-0.000516396
-0.000588495
0.000529748
-0.000639618
-0.000441874
0.00027113
-0.000836835
0.000504495
-0.000608697
0.000941265
0.000504989
0.000565177
0.000820748
-0.000821194
9.72541e-05
0.000812329
0.000117507
0.000818929
0.000112867
0.000822659
0.000104573
0.000829603
7.31189e-05
0.000841299
4.2196e-05
0.000857575
1.08571e-05
0.000874035
-2.09765e-05
0.000890778
-5.00476e-05
0.000908379
-7.61165e-05
0.00092801
-9.79236e-05
0.000945963
-0.000122769
0.000962488
-0.000144924
0.000979156
-0.000161695
0.000993583
-0.000174849
0.00100644
-0.000188168
0.00101827
-0.000201321
0.00104057
-0.000214083
0.00105712
-0.000203672
0.00107639
-0.000199502
0.00120378
-0.000185922
0.00126196
-0.00011579
0.00128667
-3.22911e-05
0.00128733
4.00137e-05
0.00122901
9.78398e-05
0.00118317
0.000105831
0.00115138
0.000115391
0.00112565
0.000125405
0.00109812
0.000137803
0.00107428
0.00014509
0.00105609
0.000143919
0.00103541
0.000142072
0.00102231
0.000129502
0.00100664
0.000120829
0.000993606
0.000112119
0.00098411
9.77056e-05
-7.38896e-05
8.1832e-05
0.000978182
-6.16913e-05
0.000968255
-4.23623e-05
0.000956075
-2.85936e-05
0.000952531
-1.03272e-05
0.000947958
1.23513e-05
0.000945638
3.22775e-05
0.000943344
4.77543e-05
0.000946438
6.3765e-05
0.000949477
7.44306e-05
0.000958742
-0.000967926
0.000964255
7.97723e-05
-0.000974704
9.33333e-05
-0.00098654
0.000105818
-0.00100072
0.000116433
-0.00101679
0.000123042
-0.00102968
0.000133173
-0.00104834
0.000138392
-0.00106899
0.000137475
-0.00109146
0.000130717
-0.0011226
0.000124119
-0.00115845
0.000112953
-0.00120231
0.000101152
-0.00126338
0.000104148
-0.001267
5.54132e-05
-0.00123715
-2.42444e-05
-0.0011775
-0.000106159
-0.0010518
-0.0001834
-0.00103537
-0.000199744
-0.0010092
-0.000207479
-0.000987942
-0.000209703
-0.000969361
-0.00018992
-0.000945983
-0.000166305
-0.000924486
-0.000135793
-0.000903456
-0.000135377
-0.000898978
-0.000106894
-0.000895771
-0.000108896
-0.000895694
-0.00010613
-0.000889369
-9.2819e-05
-0.000872134
-8.27855e-05
-0.000851577
-7.77369e-05
-8.27081e-05
-0.000829961
-0.000598869
-0.000562948
0.000622603
-0.000122036
-0.000786255
-0.000838276
-0.000118806
0.000210229
-4.75981e-05
-0.00051502
-0.00064059
0.000729753
-0.000672024
-0.000498856
0.000707169
-0.000494021
-0.000490179
0.000631918
-0.000843145
-0.000516805
0.000949416
8.18876e-05
3.90318e-05
0.000875138
5.62159e-05
-0.000847465
0.000860177
0.000114509
0.000851923
0.000128176
0.000850385
0.000116863
0.000864024
9.34286e-05
0.000878901
6.08316e-05
0.000899346
2.45199e-05
0.000915577
-2.32774e-06
0.000930725
-3.28011e-05
0.000942149
-5.82215e-05
0.000952727
-8.34739e-05
0.000965979
-0.000107977
0.00097743
-0.000131
0.000987529
-0.000151783
0.000996605
-0.000167384
0.0010043
-0.000179557
0.00100974
-0.000190876
0.00101166
-0.000200861
0.00101152
-0.000210925
0.00102914
-0.000217124
0.00103393
-0.000198663
0.00107224
-0.000210443
0.00113021
-0.000150627
0.00116462
-6.21681e-05
0.00118257
2.45846e-05
0.00117057
0.000108561
0.00112602
0.000143088
0.00108996
0.000144565
0.00106003
0.000151043
0.00103955
0.000155985
0.0010278
0.000155676
0.00101382
0.000157105
0.00100913
0.000146388
0.00100123
0.000137074
0.000990468
0.000131884
0.000986781
0.00011676
0.000985251
0.000100988
0.000984913
8.40466e-05
-6.3839e-05
0.000984736
6.60567e-05
-5.6808e-05
0.000973841
-4.81835e-05
0.000962314
-3.73365e-05
0.000947151
-1.93785e-05
0.000935899
-4.55389e-06
0.000934216
1.12408e-05
0.000930883
2.57013e-05
0.000929954
4.13936e-05
0.000932226
5.09213e-05
0.000941772
6.08165e-05
0.000951413
6.63916e-05
0.000961341
-0.00096496
0.000966576
6.71393e-05
-0.000964875
8.15153e-05
-0.000965857
9.57941e-05
-0.000969126
0.000110118
-0.00097557
0.000123427
-0.000983765
0.000130731
-0.000989629
0.000138436
-0.000999796
0.000147242
-0.0010138
0.000150033
-0.00103387
0.000149041
-0.00105885
0.000146425
-0.00109784
0.000147068
-0.00114855
0.00014548
-0.00115942
0.000113196
-0.00113627
3.34137e-05
-0.00110106
-5.60765e-05
-0.00104165
-0.000143778
-0.00100598
-0.000205953
-0.000999236
-0.000200933
-0.000983449
-0.000218972
-0.000983133
-0.000206939
-0.000976414
-0.000194156
-0.000965464
-0.000174459
-0.000946849
-0.000151478
-0.000939884
-0.000139338
-0.000928505
-0.000115483
-0.000927531
-0.000107118
-0.000927293
-0.000103866
-0.000928705
-8.89515e-05
-0.000927674
-8.11152e-05
-0.000921678
-8.04622e-05
-8.96656e-05
-0.000910428
-0.000822203
-9.69659e-05
-0.000570442
-0.000616601
-0.000577656
-0.000633202
0.000648191
0.000671972
0.00136078
-0.0013297
-0.000703024
-0.000815768
-0.000126402
-0.0007556
-0.000405748
0.000212878
-0.000759969
-0.000484296
-0.000726883
-0.000525902
-1.75973e-05
-0.000244399
-0.000574935
-0.000275004
-0.000614814
4.42643e-05
-0.000779737
-0.000123747
-0.000540568
-0.000646048
-0.000655848
-0.000569066
-4.54632e-05
4.88508e-05
0.000983457
-4.1949e-05
0.000973135
-3.43638e-05
0.000957537
-2.40476e-05
0.000939939
-1.43117e-05
0.000929186
-7.32189e-07
0.000923401
9.36901e-06
0.000923358
2.2062e-05
0.000920084
3.13537e-05
0.000926022
4.15126e-05
0.000934678
4.888e-05
0.00094672
5.25186e-05
0.000960404
5.17444e-05
0.000969608
-0.000956876
5.11024e-05
0.000959094
-0.000951444
6.31726e-05
-0.000947847
7.93043e-05
-0.00094314
9.26102e-05
-0.000939882
0.000108319
-0.000936287
0.000120892
-0.000936687
0.000131199
-0.000935668
0.000137379
-0.000933874
0.00014471
-0.000938782
0.000153672
-0.000949464
0.000157679
-0.000967306
0.000161031
-0.000985761
0.000160447
-0.00099808
0.00015476
-0.000974976
8.89309e-05
-0.00095464
1.3064e-05
-0.000940996
-6.90315e-05
-0.00091613
-0.000155476
-0.000927074
-0.000187966
-0.000932661
-0.000190737
-0.000947433
-0.000201239
-0.000960166
-0.000192053
-0.000966614
-0.0001853
-0.000967085
-0.000171602
-0.000960561
-0.000155413
-0.000951128
-0.000146067
-0.00095376
-0.000110276
-0.000947195
-0.000110939
-0.000954211
-9.42207e-05
-0.000954693
-8.60767e-05
-0.000959545
-7.41272e-05
-0.000968404
-6.93718e-05
-7.37108e-05
-0.000981596
-0.000117276
-0.000886366
0.000560226
-0.000470348
-0.000597226
-0.000534851
-0.000675877
0.000583911
-0.000191402
0.000281754
-0.000672785
0.00155941
-2.70368e-06
-0.00151837
-3.82789e-05
0.0008727
0.000134925
-0.000890543
0.000881052
0.000122372
0.000900413
0.000100086
0.00092488
7.16476e-05
0.000943497
4.50627e-05
0.000958172
1.27483e-05
0.000966493
-7.81705e-06
0.000973086
-3.64868e-05
0.000980103
-6.21751e-05
0.000987864
-8.82213e-05
0.000995212
-0.000112357
0.00100129
-0.000134141
0.00100312
-0.000150828
0.00100204
-0.000163447
0.000998887
-0.000173841
0.000992955
-0.000182503
0.000985427
-0.000191298
0.000972454
-0.000195863
0.000961062
-0.000202514
0.00096029
-0.000193
0.000954482
-0.000197547
0.000967316
-0.000150812
0.000977561
-6.85714e-05
0.000993922
1.12781e-05
0.0010198
8.41872e-05
0.00101029
0.000151005
0.000988421
0.000160413
0.00097074
0.000165461
0.000962899
0.000162157
0.000957011
0.000160786
0.000959719
0.000153838
0.00096334
0.00014273
0.000958551
0.000142196
0.000961726
0.000129698
0.000966059
0.000113524
0.000971678
9.68002e-05
0.000974942
8.2033e-05
0.000978045
6.41066e-05
0.000978245
4.98536e-05
-0.000583852
-0.000671158
0.00067758
-0.000618388
-0.000631167
0.00123287
-6.01265e-05
0.000101165
-0.00127391
-0.000653988
-0.000142032
-0.000468331
-0.000793624
-0.000144116
-0.000917964
0.000916077
5.41851e-05
-0.000915446
6.20073e-05
-0.000906687
7.21412e-05
-0.000898505
8.60269e-05
-0.000887153
9.85971e-05
-0.000877073
0.000112601
-0.000867554
0.000123385
-0.000859789
0.000130361
-0.000852747
0.000137445
-0.000843677
0.000143869
-0.000842622
0.00015477
-0.00084361
0.000158714
-0.000844863
0.000158715
-0.000810755
0.000120559
-0.000783723
6.3124e-05
-0.000772877
3.63903e-06
-0.000778245
-6.05689e-05
-0.000802529
-0.00012391
-0.000825234
-0.000160375
-0.000848846
-0.000164045
-0.000876561
-0.000171404
-0.00090015
-0.000166295
-0.000920913
-0.000162722
-0.000935293
-0.000155174
-0.000942843
-0.000145636
-0.000954205
-0.000132548
-0.000948365
-0.000113846
-0.000949714
-0.000107416
-0.000955196
-8.63269e-05
-0.000963462
-7.54564e-05
-0.000970545
-6.48811e-05
-0.000984112
-5.35569e-05
-0.00101653
-3.89777e-05
-0.000106582
-0.000988448
0.000531765
-0.000442035
0.000471335
-0.000707543
-0.000473075
-3.20195e-05
3.69685e-05
0.000974565
-3.06126e-05
0.000984003
-2.76221e-05
0.000972955
-2.13357e-05
0.000954203
-1.64317e-05
0.000938185
-1.07214e-05
0.000926584
-1.51337e-06
0.000917213
9.71075e-06
0.000914806
1.7376e-05
0.000915431
2.53762e-05
0.000921135
3.18002e-05
0.000931375
3.38848e-05
0.000947458
3.60146e-05
0.000961097
3.69422e-05
0.00097095
3.90538e-05
0.000958703
4.32603e-05
0.000912962
0.000680536
-0.000478012
-0.000672205
0.000771473
-0.000582767
0.00078317
-0.000536126
0.000792329
-0.000491534
-0.000454533
-0.000509088
0.000480906
0.000534044
-0.000236377
-0.000794559
-0.000302808
0.000277551
-1.67609e-05
4.30525e-05
-0.000293411
-0.000777451
0.000678424
0.000915576
0.000113552
-0.000891438
0.000943526
9.73588e-05
0.000964856
8.1524e-05
0.000977618
6.14831e-05
0.000987898
3.729e-05
0.000990129
1.29567e-05
0.000995157
-1.03368e-05
0.000997522
-3.62261e-05
0.00100163
-6.34601e-05
0.00100465
-8.84214e-05
0.00100375
-0.000108897
0.00099727
-0.000125302
0.000986927
-0.000138154
0.000973316
-0.00014773
0.000957274
-0.000155754
0.000938126
-0.000161548
0.00091499
-0.000166703
0.000890595
-0.000169703
0.000864291
-0.000173514
0.000845859
-0.000170011
0.00081469
-0.000160902
0.00078943
-0.0001199
0.000782451
-5.88507e-05
0.000792422
2.50855e-06
0.000818567
5.9002e-05
0.000854335
0.000115199
0.000854365
0.000158026
0.000857582
0.000159875
0.000859437
0.000158543
0.000869011
0.000150123
0.000880728
0.000141661
0.000884646
0.00013893
0.000897248
0.000130668
0.000910184
0.000118191
0.000920554
0.000104277
0.000927047
9.14345e-05
0.000934408
7.57313e-05
0.000937265
6.21149e-05
0.000934101
5.38493e-05
0.000929143
4.31622e-05
8.74116e-05
0.0012367
-9.12252e-05
-0.00017021
-0.000839866
-0.000471452
0.000252306
-0.000581319
-0.000720213
0.000717899
-0.000576382
-0.000717652
-0.000627381
-0.000674728
-0.00129006
-0.000160566
0.00139049
0.00148596
-1.91777e-05
-0.00138906
0.000584614
-0.000131341
-0.000802715
7.37545e-06
-0.00112771
0.000557993
0.000405667
-0.000428686
-0.000438752
-0.00111012
0.00048567
0.00032081
-0.000591488
-0.000493716
0.000766066
-8.62735e-06
-0.00147469
-0.000101355
0.00158457
-0.000842449
0.00084102
4.58979e-05
-0.000842783
5.52339e-05
-0.00084186
6.18782e-05
-0.000838136
6.96139e-05
-0.000827709
7.71701e-05
-0.000814511
8.7168e-05
-0.000796388
9.65233e-05
-0.000778406
0.000107201
-0.000763418
0.000117038
-0.000749957
0.000125508
-0.000736714
0.000130765
-0.000718628
0.000135513
-0.00070284
0.000140579
-0.000670065
0.000125665
-0.000635819
8.72484e-05
-0.000616021
4.47806e-05
-0.000612612
1.73668e-06
-0.000626535
-4.35973e-05
-0.000658283
-8.77413e-05
-0.000696752
-0.000118835
-0.000730449
-0.000127724
-0.000765966
-0.000133606
-0.000796814
-0.000133392
-0.000826378
-0.000131295
-0.000851746
-0.00012803
-0.000872477
-0.000123257
-0.000889642
-0.000113561
-0.000903966
-9.79193e-05
-0.00091414
-9.57317e-05
-0.000921754
-7.68784e-05
-0.000929985
-6.52597e-05
-0.000941248
-5.1415e-05
-0.000961254
-3.14442e-05
-0.000986384
-1.15902e-05
4.18253e-05
-0.00101854
0.000658443
-0.000419157
-0.00103777
0.000926143
-0.000547728
0.000726653
-0.000540782
-0.00122319
-2.52666e-05
3.30047e-05
0.000922599
-1.68315e-05
0.000967942
-1.56314e-05
0.000984892
-1.28436e-05
0.000973051
-1.13161e-05
0.000955798
-8.02133e-06
0.000938177
-1.59435e-06
0.000923416
4.92778e-06
0.000913838
7.13624e-06
0.000915523
1.25956e-05
0.000913063
1.75967e-05
0.000919368
2.0216e-05
0.000932018
2.18456e-05
0.000948901
2.34725e-05
0.0009626
2.36319e-05
0.00097328
2.97811e-05
0.000954841
3.67707e-05
0.000907474
3.91568e-05
0.00084044
-0.000500348
0.000806867
-0.000583666
0.000796725
-0.000524141
0.000781003
-0.000473917
0.000739215
-0.000410803
-0.000492319
0.000717229
-1.17404e-05
-4.06102e-05
0.000707599
-0.000809193
0.000938628
0.00012937
-0.000906808
-0.000158866
0.000946141
0.000107989
0.000955277
9.01004e-05
0.000964841
7.38e-05
0.000971399
5.67642e-05
0.000973396
3.71125e-05
0.000973586
1.46801e-05
0.000975816
-1.06132e-05
0.000978678
-3.69371e-05
0.000977476
-6.01089e-05
0.00096936
-7.83595e-05
0.000954781
-9.254e-05
0.000935335
-0.00010429
0.00091298
-0.000114118
0.000888353
-0.000121599
0.000862077
-0.000127918
0.000834478
-0.000132197
0.000804765
-0.000135287
0.000773309
-0.000136281
0.000738492
-0.000136207
0.000702263
-0.000130265
0.000660977
-0.000116075
0.000629904
-8.52101e-05
0.000616345
-4.32245e-05
0.000619316
3.83577e-07
0.00063774
4.14424e-05
0.000671441
8.19084e-05
0.000708178
0.000120741
0.00072493
0.000141096
0.000744324
0.00013814
0.000761432
0.00013254
0.0007738
0.000129383
0.000792032
0.000121567
0.000812057
0.000111486
0.0008311
0.000100038
0.000844531
9.17721e-05
0.000855843
8.07387e-05
0.000860492
7.15425e-05
0.000858224
6.49057e-05
0.000858328
5.46162e-05
0.000856079
4.63381e-05
0.000853228
3.70585e-05
0.000712058
-0.000484052
-0.000705233
-0.000229028
-0.000925373
0.000652047
-0.000715861
-0.000742919
0.000738592
-0.000514765
0.000519542
-0.000744978
-0.000538636
0.000541027
-0.000569542
-0.000756531
-0.000812452
-0.000169343
-0.00077923
-0.000724764
-0.000622643
-0.000706028
-0.000686189
0.00156838
-0.00153129
-4.56732e-05
0.000792944
-0.000626163
0.000486656
-0.000652646
-0.00156077
0.00139983
-7.82721e-05
0.000553868
-0.00035036
0.000878918
9.61866e-05
-0.000345198
0.000681697
0.000322831
0.00126894
-0.00124818
8.04036e-05
8.95582e-05
0.00126682
0.000906735
1.5774e-05
0.000890347
6.64292e-06
0.000872761
-1.21762e-05
0.000853697
-3.06688e-05
0.000836864
-4.68553e-05
0.00082009
-5.86324e-05
0.000795757
-7.00975e-05
0.000780098
-8.06517e-05
0.00075553
-8.71685e-05
0.000726239
-9.19981e-05
0.000694431
-9.42359e-05
0.000660382
-9.52414e-05
0.00062345
-9.43986e-05
0.000584459
-9.25703e-05
0.000546881
-8.78077e-05
0.000509409
-7.90336e-05
0.000481137
-5.64364e-05
0.000468425
-2.85433e-05
0.000470201
1.66607e-06
0.000486371
3.03155e-05
0.000515568
5.94994e-05
0.000550932
9.11427e-05
0.000582415
0.000109451
0.000606913
0.000111219
0.000631376
0.000108111
0.000656104
0.000102684
0.000678872
9.62672e-05
0.00069871
8.92507e-05
0.000714768
8.23363e-05
0.00072697
7.67213e-05
0.000735824
6.97338e-05
0.000741105
6.44082e-05
0.000746348
5.76163e-05
0.000751439
5.14811e-05
0.000753672
4.55784e-05
0.0007563
3.87691e-05
9.21553e-05
0.00125115
-0.000106618
-2.15049e-05
2.79301e-05
0.000848726
-1.35101e-05
0.000915931
-4.8053e-06
0.000961276
-2.73364e-07
0.000982644
1.83427e-06
0.000974145
1.18618e-06
0.000959797
3.25014e-06
0.000939604
4.4992e-06
0.000925621
5.37795e-06
0.000916329
7.21732e-06
0.00091686
9.26579e-06
0.000914295
9.43171e-06
0.000922639
8.62458e-06
0.000936265
8.66247e-06
0.000952376
9.27886e-06
0.000965722
1.22608e-05
0.000972873
2.16103e-05
0.000948128
2.72394e-05
0.000903887
3.25968e-05
0.000837377
3.37352e-05
0.000757382
0.000726369
-0.000432452
-0.000373688
-0.000980239
-0.000495005
0.000732851
0.000501493
0.0003638
0.00143094
-0.00110196
-0.000692774
0.000244749
-0.00117098
0.000144608
-0.00117373
9.34893e-05
-0.00119703
0.00123801
5.07393e-05
-0.00119523
0.00124718
7.12296e-05
0.00125433
8.24467e-05
-0.000130484
0.000178931
0.00120587
0.000581831
-0.000289607
6.04004e-05
0.00120821
-0.00118752
-8.10253e-05
0.000453761
0.000796842
-0.000456545
0.000447162
0.000863928
-0.00094378
-0.000366185
0.000866613
-0.000767955
-0.000503346
0.000757069
-0.000770976
-0.000535332
-0.000553923
-0.000786362
-0.000165755
-0.000776279
0.000716275
-0.000483475
-0.000715908
8.79796e-05
-2.90481e-05
0.000853806
-0.000509876
0.000815353
-0.000483777
0.000774895
-0.000431524
0.000781856
-0.000415573
-0.00045037
0.000742719
-0.000735695
0.00105167
0.000404366
0.000415821
-0.000204819
-0.000547864
0.000337975
0.00086798
0.00017149
-0.000193175
-0.000844629
0.000871927
0.00012704
0.000876148
0.000105284
0.000880108
8.78033e-05
0.000883246
7.23136e-05
0.000888038
5.3679e-05
0.000893922
3.29968e-05
0.000898742
1.17796e-05
0.000899852
-9.62282e-06
0.000894107
-2.9194e-05
0.000879808
-4.40396e-05
0.000861434
-5.82705e-05
0.000839766
-6.91702e-05
0.000815351
-7.81445e-05
0.000788696
-8.56457e-05
0.00076011
-9.11367e-05
0.000729577
-9.54509e-05
0.000696819
-9.74817e-05
0.000662016
-9.85397e-05
0.000625651
-9.79288e-05
0.0005868
-9.5138e-05
0.000547837
-8.85466e-05
0.000510833
-7.62683e-05
0.00048413
-5.58496e-05
0.000471673
-2.89383e-05
0.00047274
3.31042e-07
0.000487681
2.74796e-05
0.000514983
5.5291e-05
0.000549494
8.61782e-05
0.000582229
0.000107547
0.000609737
0.000110229
0.000633974
0.000108902
0.000660976
0.000103958
0.000686234
9.78868e-05
0.000707774
9.14808e-05
0.000723646
8.55106e-05
0.000736792
7.95126e-05
0.000746119
7.10468e-05
0.000752262
6.59602e-05
0.000759423
5.83958e-05
0.000763781
5.12459e-05
0.000765729
4.60129e-05
0.000767337
3.77297e-05
0.00076718
3.07892e-05
0.000789068
0.000501953
-0.000803771
0.00077534
0.000468465
-0.000429446
0.000463064
0.000743178
-0.00141193
0.000135487
0.00144387
-0.000167387
0.000718987
-0.000350125
-0.000234796
-0.000856978
-6.56016e-05
0.00142996
5.30375e-05
0.00046984
0.00065349
-0.000402921
0.000164827
0.00129852
-0.000282178
-0.00118117
-0.00075107
-0.000679589
-0.00075763
-0.000611593
-0.000767376
0.000487328
-0.00079116
0.000773152
0.000782757
-0.000517162
-0.000800414
0.000767451
0.00122848
-0.00080577
0.00151472
0.000121691
-6.80119e-05
-0.00132162
0.000264064
0.00123647
0.000844119
-0.000721772
-0.00100064
-0.000841632
-0.00038065
0.000873802
-0.000430312
-0.00130918
7.00687e-05
-0.00129678
5.88011e-05
-0.00125255
6.55739e-06
0.000736712
2.01248e-05
0.00073362
1.14857e-05
0.000722713
4.46303e-07
0.000707715
-1.37985e-05
0.000689239
-2.64873e-05
0.000670044
-3.75273e-05
0.00064619
-4.44055e-05
0.0006214
-5.39431e-05
0.000592651
-5.64665e-05
0.000562723
-6.00407e-05
0.000531527
-6.09382e-05
0.000499176
-6.06219e-05
0.000466068
-5.91346e-05
0.000432883
-5.71209e-05
0.000400981
-5.351e-05
0.000372175
-4.79132e-05
0.00035413
-3.59149e-05
0.000345572
-1.80372e-05
0.000348343
5.20551e-07
0.000361752
1.87099e-05
0.000385381
3.75466e-05
0.000419288
5.86191e-05
0.000453579
7.65014e-05
0.000483277
8.32394e-05
0.000510178
8.29992e-05
0.000534329
8.01419e-05
0.000555695
7.62397e-05
0.000574322
7.18391e-05
0.000590678
6.71667e-05
0.000606066
6.26296e-05
0.000618288
5.89589e-05
0.000629462
5.4822e-05
0.000639326
4.94993e-05
0.000646909
4.58458e-05
0.000654014
4.06416e-05
0.000658586
3.62887e-05
0.000663167
3.0985e-05
-0.000772925
-0.000376726
0.000701427
-0.000791747
-0.000394837
-0.000830161
-0.000391361
-0.000898522
-0.000413739
-0.000961717
-0.000445014
-0.00106184
-0.000446503
-0.00128746
0.000888358
0.000962455
-0.000345569
0.000727962
-0.000956061
0.000921413
-0.000486009
0.000748975
0.000476009
0.000761456
-6.26804e-05
0.0012302
3.83734e-05
7.09865e-05
0.0012406
0.000485962
-0.000874381
-0.000415095
-0.000527178
-0.00082686
0.000747643
-0.000256255
0.000171725
-0.000661552
1.92208e-05
-0.0013347
3.56419e-05
-0.000626504
0.000763242
-0.000478131
0.000322022
-0.000227169
-0.00115263
0.00105781
-0.00135842
-5.12561e-06
0.00126218
-0.000443336
-0.00115868
-1.97884e-05
2.38558e-05
0.000765843
-1.34618e-05
0.000844922
-4.54725e-06
0.000909034
5.51801e-06
0.000953362
1.38272e-05
0.000976728
1.66684e-05
0.000974353
1.6925e-05
0.000963361
1.40596e-05
0.000946153
1.1179e-05
0.000932243
9.14809e-06
0.000922011
5.77736e-06
0.000923727
2.10215e-06
0.000921527
-2.93739e-07
0.000928805
-2.87213e-06
0.000942656
-3.76498e-06
0.000957593
-1.74705e-06
0.00096696
5.72999e-06
0.000968231
1.27727e-05
0.000943561
1.93396e-05