/*--------------------------------*- C++ -*----------------------------------*\
| =========                 |                                                 |
| \\      /  F ield         | OpenFOAM: The Open Source CFD Toolbox           |
|  \\    /   O peration     | Version:  2212                                  |
|   \\  /    A nd           | Website:  www.openfoam.com                      |
|    \\/     M anipulation  |                                                 |
\*---------------------------------------------------------------------------*/
FoamFile
{
    version     2.0;
    format      ascii;
    arch        "LSB;label=32;scalar=64";
    class       volScalarField;
    location    "0.061";
    object      alphat;
}
// * * * * * * * * * * * * * * * * * * * * * * * * * * * * * * * * * * * * * //

dimensions      [1 -1 -1 0 0 0 0];

internalField   nonuniform List<scalar> 
44662
(
0.000272882
0.00142086
0.00141927
0.00142262
0.00142131
0.0001494
0.000592606
0.000136453
0.00133511
0.00150276
0.000181149
0.00021559
0.000561731
0.000769677
4.21075e-05
0.000275895
3.38812e-05
3.35866e-05
0.000848559
0.000976827
0.00153687
3.31017e-05
0.00145869
0.0015476
6.65353e-05
0.000847296
0.000499198
0.00020511
0.00050911
0.000273958
5.49765e-05
0.000809756
6.67626e-05
0.000125786
0.000169236
0.00155981
0.000547323
0.000406323
0.000849813
0.00120671
0.00114046
0.000690567
6.98879e-05
0.00112572
0.00127012
8.46809e-05
0.000190211
0.00152286
0.0013097
0.00126417
0.0014137
0.000129261
0.000848825
2.92214e-05
0.00152443
0.000111419
0.000815397
7.85414e-05
0.000343564
0.000332339
0.000172302
2.62824e-05
0.00145954
0.000637623
0.00161535
0.000196942
5.63843e-05
4.61897e-05
0.000638196
0.000606278
2.70076e-05
6.77679e-05
0.000349143
0.0001922
0.000518236
0.000881193
2.52407e-05
0.000358128
0.000305567
5.50642e-05
9.97393e-05
0.000449094
0.00138041
0.000349075
0.000117841
0.00133983
0.000389292
0.00146006
0.0010202
0.000670367
0.000276199
0.000335112
0.00152425
3.23959e-05
0.00117674
0.00093823
9.44792e-05
0.001087
0.00153811
0.00144232
0.00080441
0.00145555
0.000322761
5.14974e-05
0.000518782
0.000207964
0.000482967
0.000109771
0.0014201
0.000627823
0.000450077
0.0012701
0.00145386
0.00150677
8.36562e-05
0.00041782
0.000276302
0.00136676
2.41331e-05
0.000387307
0.00119276
0.000401085
0.000254852
0.000362114
0.000381169
0.00151645
0.000339099
0.000361067
0.00142494
0.000316358
0.000341551
0.000229429
0.000175773
0.000298475
0.000290256
0.000323517
0.000241216
0.000237054
0.000262357
0.000307464
0.000265195
0.000234859
0.000153675
0.000114597
0.00020812
0.00142313
0.00138688
0.00138244
0.00150992
0.00142177
0.00123521
0.00142089
0.000205536
5.5783e-05
0.00148431
0.00150269
0.00122881
0.000810732
0.000808836
0.000806991
0.000805191
0.000803446
0.00080174
0.000800067
0.00079842
0.000796797
0.000795199
0.000793625
0.000792075
0.000790547
0.000789041
0.000787557
0.000786094
0.000784652
0.000783231
0.000781831
0.000780451
0.000779091
0.00077775
0.000776429
0.000775125
0.000773838
0.00077257
0.000771321
0.000770095
0.000768892
0.000767712
0.000766549
0.000765405
0.00076428
0.000763174
0.000762085
0.000761016
0.000759963
0.000758928
0.000757911
0.000756913
0.000755933
0.000754971
0.000754027
0.000753101
0.000752193
0.000751301
0.000750427
0.000749573
0.000748737
0.000748041
0.000747203
0.000748848
2.82773e-05
0.000812659
0.000808548
0.00081035
0.000747913
0.000747094
0.000745519
0.00074637
0.00075053
0.000749678
0.00075231
0.000751406
0.00075419
0.000753239
0.000756152
0.00075516
0.000758192
0.000757163
0.000760297
0.000759238
0.000762433
0.000761361
0.000764622
0.000763517
0.000766923
0.000765752
0.000769365
0.000768128
0.000771911
0.00077063
0.000774512
0.000773207
0.000777159
0.000775827
0.000779876
0.000778507
0.000782673
0.000781264
0.000785552
0.000784102
0.000788515
0.000787023
0.000791552
0.000790026
0.000794638
0.000793087
0.000797803
0.000796208
0.000801121
0.000799436
0.000804742
0.000802886
0.000806668
0.000805016
0.00080677
0.000801579
0.000803288
0.000798214
0.000799887
0.000794937
0.000796562
0.000791763
0.000793338
0.000788696
0.000790214
0.000785731
0.000787202
0.000782855
0.000784281
0.000780063
0.000781449
0.000777353
0.000778697
0.000774723
0.000776028
0.000772181
0.000773439
0.000769729
0.000770945
0.00076734
0.000768527
0.000765006
0.000766167
0.000762725
0.000763857
0.000760522
0.000761612
0.000758402
0.00075945
0.000756362
0.000757372
0.000754395
0.00075537
0.000752493
0.000753436
0.000750647
0.000751564
0.000748847
0.000749741
0.000747154
0.000747983
0.000745554
0.000746341
0.000743455
0.000742611
0.000744194
2.5779e-05
2.78861e-05
0.000802186
0.000803842
0.00074467
0.000740937
0.000740042
0.000740987
0.000744788
0.000740236
0.000812179
0.000814608
0.000741797
0.00074575
0.000744957
0.000747453
0.000746581
0.000749274
0.000748351
0.000751188
0.000750219
0.000753181
0.000752176
0.000755229
0.0007542
0.000757275
0.000756254
0.000759333
0.000758292
0.000761556
0.000760424
0.00076397
0.000762745
0.000766506
0.000765232
0.000769071
0.000767788
0.000771652
0.000770357
0.000774294
0.000772963
0.00077701
0.000775642
0.000779806
0.000778398
0.000782679
0.000781232
0.000785615
0.000784141
0.000788551
0.000787085
0.000791522
0.000790024
0.00079471
0.000793078
0.000798339
0.000796466
0.000800312
0.000513029
0.000746289
0.000798888
0.000800536
0.000795582
0.000797234
0.00079232
0.000793941
0.000789131
0.00079071
0.000786046
0.000787577
0.00078306
0.000784539
0.000780182
0.000781609
0.000777391
0.000778776
0.000774685
0.000776028
0.000772056
0.00077336
0.000769507
0.000770771
0.000767042
0.000768262
0.000764671
0.000765847
0.00076236
0.000763509
0.000760091
0.000761221
0.000757863
0.00075897
0.000755704
0.000756771
0.000753626
0.000754652
0.000751627
0.000752617
0.000749698
0.000750654
0.00074783
0.000748757
0.000746004
0.000746915
0.000744224
0.0007451
0.000742558
0.000743388
0.00074176
0.000805513
0.000732689
0.000733603
0.000736019
0.000735254
0.000736736
0.000744033
0.000739497
0.000812749
0.000807213
0.000814017
0.000816561
0.000731783
0.000722999
0.000722083
0.000815874
0.000808959
0.000734451
0.000738147
0.000737416
0.000739743
0.00073893
0.000741473
0.000740593
0.000743304
0.000742377
0.000745213
0.000744251
0.000747159
0.000746184
0.000749069
0.000748122
0.000750969
0.000750009
0.000753074
0.000752011
0.000755417
0.000754217
0.000757899
0.000756656
0.000760376
0.000759142
0.000762835
0.000761602
0.000765346
0.000764082
0.000767923
0.000766625
0.000770573
0.000769239
0.000773293
0.000771924
0.000776057
0.000774672
0.000778785
0.000777431
0.000781485
0.000780126
0.000784478
0.00078292
0.000788033
0.000786192
0.00159475
0.000789972
0.000743839
0.000745502
0.000739171
0.000798047
0.000794913
0.000796461
0.000791876
0.000793396
0.000788821
0.000790363
0.000785715
0.000787264
0.000782641
0.000784166
0.000779637
0.000781126
0.000776723
0.00077817
0.000773901
0.000775299
0.000771172
0.000772525
0.00076853
0.000769841
0.000765965
0.000767237
0.000763471
0.000764709
0.000761054
0.000762253
0.000758711
0.000759873
0.000756454
0.000757573
0.000754255
0.000755348
0.000752095
0.000753171
0.000749972
0.000751029
0.000747905
0.000748929
0.00074591
0.000746899
0.00074399
0.000744942
0.000742132
0.000743053
0.000740329
0.000741225
0.000738555
0.000739441
0.000736861
0.000737704
0.000735214
0.000736032
0.000733688
0.000734441
0.000732228
0.000732952
0.000810722
0.000799656
0.000806443
0.000723912
0.000814695
0.000730919
0.000721201
0.000711432
0.00071052
0.000722635
0.000731509
0.000721935
0.000818529
0.000817768
0.000812516
0.000726841
0.000726176
0.000725486
0.000801308
0.000781583
0.000795922
0.00072475
0.000728142
0.000727486
0.000729591
0.000728845
0.000731203
0.000730381
0.000732915
0.000732049
0.000734703
0.000733803
0.000736513
0.000735611
0.000738249
0.00073739
0.000739962
0.000739092
0.000741897
0.000740878
0.000744117
0.000742972
0.000746498
0.000745302
0.000748821
0.000747672
0.000751105
0.000749961
0.000753426
0.000752259
0.000755808
0.000754609
0.000758251
0.000757022
0.000760756
0.000759496
0.000763283
0.000762022
0.000765725
0.00076452
0.000768103
0.000766911
0.000770875
0.000769413
0.000774208
0.000772477
0.00135993
0.000776038
0.00149753
0.000743285
0.000738765
0.000743038
0.000744734
0.000738333
0.000786394
0.000783508
0.000784937
0.000780723
0.000782108
0.000778004
0.000779362
0.000775231
0.000776626
0.00077241
0.000773825
0.000769612
0.000771012
0.000766867
0.00076823
0.000764203
0.000765529
0.000761615
0.000762895
0.000759106
0.00076035
0.00075667
0.000757877
0.000754303
0.000755478
0.000752
0.000753143
0.000749762
0.000750872
0.000747592
0.000748669
0.000745492
0.000746534
0.000743441
0.00074446
0.000741436
0.000742434
0.000739461
0.000740441
0.00073753
0.000738489
0.000735659
0.000736588
0.000733853
0.000734748
0.0007321
0.00073297
0.000730391
0.000731242
0.000728727
0.00072956
0.000727096
0.000727913
0.000725531
0.000726305
0.000724056
0.000724786
0.00072334
0.000802969
0.000787899
0.000808411
0.000712322
0.000714419
0.000713779
0.000715008
0.00070964
0.000730796
0.000721239
0.00076401
0.000783343
0.000765562
0.000816719
0.000820513
0.000819706
0.000814366
0.000804668
0.000789428
0.000797855
0.000713113
0.000716168
0.000715574
0.000717466
0.000716812
0.000718944
0.000718205
0.000720504
0.000719715
0.000722135
0.000721313
0.000723772
0.000722957
0.000725305
0.000724554
0.000726772
0.000726032
0.00072849
0.000727601
0.000730561
0.000729484
0.000732787
0.000731674
0.0007349
0.000733858
0.000736955
0.000735925
0.000739034
0.00073799
0.000741163
0.000740092
0.000743344
0.000742247
0.000745572
0.000744453
0.000747798
0.000746689
0.000749908
0.000748866
0.000751941
0.000750915
0.00075436
0.000753138
0.000757409
0.000755841
0.000760731
0.000759077
0.000762398
0.000742548
0.00073804
0.000742267
0.000743986
0.000730101
0.000737537
0.000708809
0.000720376
0.000771059
0.000768441
0.000769747
0.000765947
0.000767184
0.000763523
0.000764723
0.000761139
0.000762334
0.000758735
0.000759943
0.000756265
0.000757509
0.000753796
0.000755023
0.000751374
0.000752574
0.00074902
0.000750186
0.000746714
0.000747859
0.000744487
0.000745595
0.000742314
0.000743393
0.0007402
0.00074125
0.000738137
0.000739162
0.000736128
0.000737125
0.000734173
0.000735144
0.000732276
0.000733219
0.000730416
0.00073134
0.0007286
0.000729503
0.000726812
0.0007277
0.000725058
0.000725928
0.000723346
0.000724194
0.000721684
0.000722509
0.000720066
0.000720871
0.000718489
0.000719274
0.000716939
0.000717714
0.000715419
0.000716174
0.000713948
0.000714675
0.000712536
0.000713232
0.000711167
0.000711847
0.000709817
0.000710491
0.000790979
0.00077239
0.000767038
0.000785115
0.00081042
0.000698375
0.000697499
0.000699232
0.000818719
0.00070804
0.000695817
0.00069505
0.00069693
0.000709147
0.000696279
0.000746475
0.000768357
0.000747424
0.000822496
0.000821655
0.000816199
0.000806403
0.000792544
0.000700581
0.00070118
0.000701708
0.000773739
0.000799719
0.000696636
0.000699974
0.000702696
0.000702204
0.000703859
0.00070325
0.000705166
0.000704502
0.000706545
0.000705847
0.000707997
0.000707266
0.000709439
0.000708725
0.000710741
0.000710108
0.000711949
0.000711336
0.000713395
0.000712637
0.000715273
0.00071429
0.000717292
0.000716288
0.000719153
0.000718237
0.000720933
0.000720045
0.000722722
0.000721824
0.000724549
0.00072363
0.000726417
0.000725478
0.000728318
0.000727365
0.000730199
0.000729266
0.000731939
0.000731094
0.000733577
0.000732752
0.000735616
0.000734512
0.00073828
0.000736889
0.000741157
0.000739737
0.000743989
0.000742593
0.000745292
0.000730093
0.000720551
0.000741823
0.000737326
0.000741525
0.000743257
0.000729329
0.000736783
0.000719601
0.000752423
0.000750219
0.000751301
0.000748086
0.000749152
0.000746019
0.000747059
0.00074401
0.000745016
0.000742014
0.000743021
0.000739984
0.000741002
0.000737912
0.000738957
0.000735813
0.00073686
0.000733756
0.000734783
0.000731755
0.000732752
0.000729799
0.000730772
0.000727887
0.000728834
0.000726023
0.000726951
0.000724205
0.000725108
0.000722425
0.00072331
0.000720684
0.000721549
0.000718986
0.000719829
0.000717328
0.000718153
0.000715696
0.000716508
0.000714098
0.000714893
0.000712522
0.000713309
0.000710971
0.000711744
0.000709447
0.000710207
0.000707956
0.000708699
0.000706497
0.000707224
0.000705062
0.000705777
0.000703647
0.000704352
0.000702248
0.000702944
0.000700877
0.000701555
0.000699541
0.000700203
0.000698233
0.000698885
0.000697581
0.000775133
0.000753584
0.000786762
0.00081237
0.000684178
0.000683324
0.000685002
0.000686801
0.000686263
0.000687282
0.000681671
0.00068091
0.000708482
0.000695629
0.000747956
0.000769454
0.000820705
0.000824528
0.000823621
0.000818081
0.000808171
0.000794144
0.000776564
0.000754778
0.000801633
0.00068248
0.000685696
0.000688124
0.000687706
0.000689112
0.000688596
0.00069024
0.000689657
0.000691451
0.000690831
0.000692718
0.000692086
0.00069395
0.000693347
0.000695017
0.00069451
0.000695966
0.000695485
0.000697144
0.000696492
0.00069875
0.000697916
0.000700524
0.000699632
0.000702109
0.000701342
0.000703578
0.000702848
0.000705042
0.000704308
0.000706531
0.000705783
0.000708048
0.000707286
0.00070958
0.000708814
0.000711067
0.000710339
0.000712415
0.000711774
0.000713593
0.000713003
0.000715215
0.000714329
0.000717451
0.000716277
0.000719881
0.00071866
0.000722266
0.000721091
0.000724391
0.000723382
0.000725645
0.000725211
0.000747921
0.000725346
0.0007294
0.00071987
0.000741114
0.000736623
0.000740808
0.000742546
0.000728607
0.000736058
0.000707318
0.000718876
0.000680197
0.000694335
0.000731179
0.00072934
0.000730249
0.000727651
0.000728481
0.00072602
0.000726835
0.000724417
0.000725236
0.000722851
0.000723636
0.00072126
0.000722062
0.000719641
0.00072045
0.000717986
0.000718813
0.000716293
0.000717137
0.000714643
0.000715465
0.000713019
0.000713822
0.000711432
0.000712221
0.000709878
0.00071065
0.000708354
0.000709111
0.000706859
0.000707603
0.000705391
0.000706122
0.000703946
0.000704666
0.000702529
0.000703234
0.000701135
0.00070183
0.000699755
0.000700444
0.000698394
0.000699072
0.000697047
0.000697719
0.000695711
0.000696377
0.000694384
0.000695045
0.000693075
0.000693728
0.000691778
0.000692425
0.00069049
0.000691132
0.000689207
0.000689847
0.000687925
0.000688567
0.00068665
0.000687284
0.000685386
0.000686015
0.000684129
0.000684758
0.000682863
0.000683498
0.000681582
0.000682224
0.000756029
0.00073221
0.000788299
0.000814341
0.000669016
0.000668168
0.000669804
0.000671513
0.000671008
0.000671951
0.000770523
0.000822753
0.000679515
0.00066501
0.00066431
0.000666446
0.000680937
0.000665785
0.000726087
0.000748507
0.000826577
0.000825609
0.000820006
0.000809939
0.000795804
0.000778071
0.000733473
0.000757436
0.000803442
0.000666513
0.000665741
0.000667328
0.000670457
0.000672642
0.000672302
0.000673484
0.000673038
0.000674457
0.000673956
0.000675528
0.000674985
0.000676618
0.000676076
0.000677648
0.000677148
0.00067849
0.000678095
0.00067917
0.000678835
0.000680112
0.000679589
0.000681434
0.000680741
0.000682921
0.000682172
0.000684221
0.000683604
0.000685366
0.000684799
0.000686488
0.000685927
0.000687619
0.000687052
0.00068876
0.000688188
0.000689901
0.000689333
0.000690987
0.00069045
0.0006919
0.000691465
0.000692625
0.00069226
0.000693735
0.000693097
0.000695496
0.000694589
0.00069742
0.000696487
0.000699285
0.000698355
0.00070099
0.00070018
0.00070197
0.000701635
0.000701001
0.000701773
0.000729386
0.000704022
0.000701813
0.000707823
0.000694982
0.000728718
0.000719197
0.00074042
0.000735934
0.000740113
0.000741851
0.000727906
0.000735357
0.000706635
0.000718181
0.000693654
0.000712008
0.000708428
0.000734925
0.000709899
0.000706612
0.000707381
0.000705275
0.000705932
0.000704064
0.000704662
0.000702907
0.000703487
0.000701773
0.000702365
0.000700643
0.000701219
0.000699487
0.000700075
0.000698286
0.000698889
0.000697065
0.000697683
0.000695815
0.000696443
0.000694573
0.000695183
0.000693348
0.000693957
0.000692148
0.000692744
0.000690962
0.000691552
0.000689792
0.000690376
0.000688636
0.000689212
0.000687489
0.000688062
0.000686351
0.000686919
0.00068522
0.000685784
0.000684097
0.000684659
0.000682973
0.000683535
0.00068185
0.000682411
0.000680725
0.000681289
0.000679596
0.000680161
0.000678459
0.000679028
0.00067732
0.000677891
0.000676173
0.000676748
0.000675016
0.000675596
0.000673846
0.000674432
0.000672659
0.000673255
0.000671454
0.000672057
0.000670236
0.000670846
0.000669004
0.000669623
0.000667742
0.000668378
0.000667098
0.000789829
0.000816317
0.000652872
0.000652022
0.000653633
0.000648725
0.000647974
0.000680291
0.000665117
0.000771843
0.000824786
0.000752562
0.000828614
0.00070589
0.00073162
0.000827618
0.000821939
0.000811769
0.000797471
0.000779668
0.000759079
0.000736745
0.000687075
0.000712776
0.000654874
0.00065538
0.000655744
0.000805217
0.000650307
0.000649498
0.000651156
0.000654314
0.000656343
0.000656046
0.000657064
0.000656696
0.00065796
0.000657506
0.000658913
0.000658435
0.000659853
0.000659388
0.000660711
0.000660296
0.000661358
0.000661061
0.000661817
0.000661589
0.000662517
0.000662126
0.000663597
0.00066303
0.000664812
0.000664203
0.00066582
0.000665355
0.000666649
0.000666242
0.000667436
0.000667045
0.000668211
0.000667825
0.000668978
0.000668596
0.000669723
0.000669355
0.000670391
0.00067007
0.00067087
0.000670665
0.000671133
0.000671005
0.000671703
0.000671362
0.000672926
0.000672242
0.000674301
0.000673614
0.00067558
0.000674962
0.000676618
0.000676154
0.000677039
0.000676943
0.000676287
0.000676699
0.000677963
0.000676783
0.000707303
0.000680303
0.000679239
0.00070717
0.000694338
0.000728047
0.000718534
0.000739742
0.000735258
0.000739433
0.000741174
0.000727225
0.000734675
0.000705965
0.000717505
0.000678847
0.000692993
0.000647236
0.000663624
0.000683328
0.000684978
0.000681781
0.000682383
0.000680838
0.000681282
0.000680033
0.00068043
0.000679312
0.000679675
0.000678634
0.000678996
0.000677937
0.000678295
0.000677208
0.000677574
0.000676437
0.000676831
0.00067565
0.000676043
0.000674828
0.000675244
0.000673997
0.000674409
0.000673177
0.000673585
0.000672353
0.000672764
0.000671535
0.000671943
0.000670711
0.000671123
0.000669883
0.000670298
0.000669048
0.000669466
0.000668202
0.000668625
0.000667344
0.000667775
0.000666474
0.000666911
0.000665587
0.000666033
0.000664681
0.000665135
0.000663753
0.00066422
0.000662802
0.00066328
0.000661824
0.000662316
0.000660821
0.000661325
0.000659789
0.000660308
0.000658724
0.000659261
0.000657625
0.000658179
0.000656488
0.000657062
0.00065531
0.000655904
0.000654092
0.000654706
0.000652834
0.000653469
0.000651525
0.000652186
0.000650158
0.000650848
0.000648733
0.000649452
0.000791471
0.0008183
0.000635585
0.000634693
0.000636424
0.00063821
0.000637718
0.000638548
0.000774498
0.00082685
0.000646495
0.000629456
0.000628619
0.000630905
0.000647998
0.000630075
0.000755393
0.000830677
0.000733252
0.000829654
0.000681143
0.000708423
0.000823889
0.000813592
0.000799238
0.000781419
0.000760925
0.000737873
0.000685767
0.000712415
0.000807048
0.000631124
0.000630292
0.000632858
0.000631976
0.000633772
0.000637112
0.000639156
0.000638858
0.000639851
0.000639493
0.000640692
0.000640258
0.000641573
0.000641134
0.000642417
0.000642004
0.000643156
0.000642805
0.000643658
0.000643444
0.000643945
0.000643806
0.000644442
0.000644147
0.00064535
0.000644878
0.00064634
0.000645848
0.00064707
0.000646737
0.00064762
0.000647357
0.000648105
0.000647868
0.000648556
0.000648334
0.000648975
0.00064877
0.000649352
0.000649171
0.000649627
0.000649505
0.000649669
0.000649686
0.000649489
0.000649592
0.00064953
0.000649439
0.000650258
0.000649831
0.000651068
0.000650686
0.000651732
0.00065143
0.000652055
0.000651946
0.000651832
0.000652025
0.000651299
0.000651479
0.000651979
0.000651513
0.000653168
0.000652621
0.000681901
0.000654081
0.000653653
0.000679642
0.00066444
0.000706524
0.000693696
0.000727388
0.000717882
0.000739077
0.000734596
0.00073877
0.000740511
0.000726559
0.000734009
0.000705311
0.000716843
0.00067819
0.000692343
0.000662941
0.000685453
0.000658497
0.000661197
0.000659353
0.000658648
0.000660094
0.000657035
0.000657677
0.000656326
0.000656627
0.000655913
0.000656109
0.000655623
0.000655769
0.000655374
0.000655512
0.0006551
0.00065524
0.000654797
0.000654954
0.000654449
0.000654629
0.000654067
0.000654256
0.000653662
0.000653867
0.000653225
0.000653442
0.000652773
0.000653002
0.00065231
0.000652545
0.000651826
0.00065207
0.00065132
0.000651577
0.000650789
0.000651058
0.00065023
0.000650513
0.00064964
0.000649939
0.000649019
0.000649334
0.000648362
0.000648695
0.000647667
0.00064802
0.000646933
0.000647305
0.000646155
0.00064655
0.000645331
0.000645749
0.00064446
0.000644902
0.000643537
0.000644005
0.000642563
0.000643057
0.000641533
0.000642055
0.000640444
0.000640996
0.000639292
0.000639876
0.000638075
0.000638691
0.00063679
0.000637441
0.000635439
0.000636124
0.000634011
0.000634735
0.000632501
0.000633267
0.000631714
0.000793652
0.000820311
0.000616887
0.000615904
0.00061783
0.000619787
0.000619269
0.000620161
0.000609948
0.000608969
0.000647248
0.000629222
0.000777198
0.000828971
0.000757545
0.000832786
0.000734719
0.000831708
0.00070945
0.000825854
0.000654482
0.000682644
0.000815497
0.000801115
0.000783262
0.000762219
0.000738529
0.000658702
0.000712458
0.00068596
0.000632144
0.000659581
0.000633312
0.000809125
0.000611882
0.000610915
0.000613866
0.000612863
0.000614885
0.000618584
0.000620827
0.000620493
0.000621581
0.000621195
0.000622443
0.000622004
0.000623323
0.000622885
0.000624148
0.000623746
0.000624841
0.000624515
0.000625261
0.000625088
0.000625437
0.000625357
0.000625816
0.000625588
0.000626612
0.000626183
0.000627433
0.000627044
0.000627962
0.000627725
0.000628293
0.000628142
0.000628536
0.000628423
0.000628719
0.000628634
0.000628848
0.00062879
0.000628909
0.00062889
0.000628832
0.000628891
0.000628512
0.000628701
0.00062793
0.000628231
0.000627557
0.000627687
0.000627819
0.000627618
0.000628123
0.000627986
0.000628227
0.000628214
0.000627993
0.000628153
0.000627382
0.000627733
0.000626691
0.000626966
0.000626563
0.000626562
0.00062668
0.000626616
0.000626751
0.000626725
0.00065492
0.000626826
0.000626767
0.000678988
0.000663754
0.000705885
0.000693054
0.000726743
0.00071724
0.00073843
0.00073395
0.000738125
0.000739865
0.00072591
0.000733363
0.00070467
0.000716201
0.00067754
0.000691705
0.000645746
0.000662257
0.000607964
0.000627771
0.00063162
0.000631614
0.000632724
0.00063204
0.000632429
0.000632619
0.000631938
0.000632203
0.000631785
0.000631813
0.000631874
0.000631829
0.000632034
0.000631953
0.000632215
0.000632132
0.000632351
0.00063229
0.000632447
0.000632412
0.000632497
0.00063248
0.000632491
0.000632501
0.000632454
0.000632479
0.000632369
0.000632417
0.000632253
0.000632316
0.000632094
0.000632176
0.000631897
0.000632001
0.000631656
0.000631782
0.000631367
0.000631518
0.000631029
0.000631205
0.000630638
0.00063084
0.000630191
0.000630422
0.000629687
0.000629947
0.000629121
0.000629412
0.000628491
0.000628814
0.000627796
0.000628152
0.00062703
0.000627422
0.000626192
0.00062662
0.000625278
0.000625745
0.000624287
0.000624792
0.000623214
0.000623761
0.000622057
0.000622646
0.000620811
0.000621445
0.000619474
0.000620154
0.000618042
0.000618769
0.000616514
0.000617291
0.000614885
0.000615713
0.000613145
0.000614029
0.000611294
0.000612234
0.000609326
0.000610325
0.000796126
0.000822449
0.000595285
0.000596424
0.000779531
0.000831131
0.000606948
0.000585942
0.000584721
0.000587163
0.000608297
0.000585937
0.000759385
0.000834925
0.000736095
0.000833794
0.000710503
0.000827879
0.000683384
0.000817487
0.000626981
0.000655411
0.000803035
0.000784754
0.000763328
0.000739164
0.00137076
0.00145941
0.000713302
0.000687246
0.000661079
0.000565568
0.000347243
0.000599188
0.000634336
0.000599754
0.000811346
0.000588303
0.000587132
0.000590597
0.000589453
0.000592923
0.000591748
0.000594114
0.0005975
0.000598442
0.000601015
0.000600198
0.0006006
0.00060191
0.00060145
0.000602877
0.000602382
0.000603848
0.000603366
0.000604744
0.000604311
0.000605476
0.000605137
0.000605903
0.000605729
0.000606055
0.000605989
0.000606402
0.000606182
0.000607155
0.000606753
0.000607898
0.000607557
0.000608318
0.000608142
0.000608514
0.000608434
0.000608595
0.000608566
0.000608591
0.000608603
0.000608508
0.000608559
0.000608332
0.000608434
0.000607991
0.000608183
0.000607374
0.000607712
0.000606487
0.000606944
0.000605777
0.000606064
0.000605641
0.000605649
0.000605555
0.000605614
0.000605228
0.000605434
0.000604576
0.000604939
0.000603646
0.000604141
0.000602655
0.000603132
0.000601902
0.000602249
0.000601249
0.000601588
0.000600497
0.00060089
0.00059975
0.000600116
0.000627234
0.000599332
0.000599487
0.000646481
0.000628346
0.000678332
0.000663057
0.000705252
0.000692416
0.000726108
0.000716606
0.000737799
0.000733315
0.000737495
0.000739236
0.000725279
0.000732734
0.000704041
0.00071557
0.000676891
0.000691072
0.000644991
0.000661568
0.000626903
0.00060537
0.000605264
0.000606086
0.000605714
0.000606671
0.000606351
0.000607044
0.0006069
0.000607488
0.000607228
0.000608055
0.00060778
0.000608649
0.000608365
0.000609227
0.00060895
0.000609742
0.000609498
0.000610202
0.00060998
0.00061059
0.000610401
0.000610917
0.000610762
0.000611185
0.000611054
0.000611388
0.000611292
0.000611532
0.000611466
0.000611614
0.00061158
0.000611635
0.000611633
0.000611587
0.000611619
0.000611468
0.000611536
0.000611275
0.000611381
0.000611006
0.00061115
0.000610657
0.000610842
0.000610226
0.000610452
0.000609709
0.000609978
0.000609103
0.000609417
0.000608405
0.000608765
0.000607614
0.000608022
0.000606724
0.000607181
0.000605733
0.000606241
0.000604638
0.000605198
0.000603435
0.00060405
0.000602121
0.000602792
0.000600692
0.000601421
0.000599145
0.000599934
0.000597477
0.000598326
0.000595684
0.000596596
0.000593762
0.00059474
0.000591704
0.00059275
0.000589506
0.000590622
0.000588353
0.000798469
0.000824672
0.00056131
0.000559843
0.000258224
0.00060724
0.000584673
0.000781594
0.000833324
0.000761052
0.000837082
0.000737444
0.000835908
0.00071155
0.000829974
0.000684137
0.000819507
0.000655965
0.000804738
0.0005995
0.000627709
0.000786236
0.000764442
0.000740279
0.000714844
0.000688997
0.000662388
0.0006341
0.00060585
0.000500807
0.000599273
0.000967301
0.000813675
0.000564139
0.000562735
0.00056689
0.000565522
0.000569657
0.000568259
0.000572442
0.000571064
0.000575051
0.000573817
0.000576966
0.00057613
0.000578236
0.000577669
0.000579304
0.000578765
0.000580422
0.000579845
0.000581599
0.000580997
0.00058277
0.000582192
0.000583834
0.00058332
0.000584695
0.0005843
0.000585219
0.000585013
0.000585435
0.000585337
0.000585866
0.000585585
0.00058666
0.000586222
0.000587424
0.000587084
0.00058783
0.000587672
0.00058799
0.000587934
0.000588004
0.000588011
0.000587908
0.000587969
0.000587708
0.000587821
0.000587392
0.000587567
0.000586879
0.00058717
0.000586052
0.000586511
0.000584948
0.000585518
0.000584016
0.000584409
0.000583595
0.000583737
0.000583228
0.00058343
0.000582596
0.00058296
0.000581638
0.000582151
0.000580452
0.00058107
0.000579175
0.000579815
0.000577993
0.00057857
0.000576824
0.000577414
0.000575577
0.000576223
0.000574248
0.000574921
0.000573307
0.000573688
0.000542162
0.000535737
0.000573697
0.000475155
0.000557163
0.000449426
0.0006457
0.000627448
0.000677673
0.000662352
0.000704625
0.000691781
0.000725485
0.000715981
0.000737182
0.000732695
0.000736881
0.000738623
0.000724663
0.000732117
0.000703421
0.000714951
0.00067624
0.000690441
0.000644219
0.000660873
0.000605901
0.000626018
0.000558345
0.000583471
0.000579746
0.000579677
0.000580742
0.000580226
0.000581681
0.000581188
0.000582576
0.00058216
0.000583505
0.000583034
0.000584481
0.000583998
0.000585429
0.000584969
0.000586336
0.0005859
0.000587162
0.000586764
0.000587914
0.000587549
0.000588576
0.000588258
0.000589157
0.000588878
0.000589652
0.000589416
0.000590065
0.000589869
0.00059039
0.000590239
0.00059063
0.000590521
0.000590783
0.000590719
0.000590843
0.000590825
0.000590807
0.000590838
0.000590673
0.000590753
0.000590437
0.000590568
0.000590097
0.00059028
0.000589649
0.000589887
0.00058909
0.000589383
0.000588417
0.000588768
0.000587627
0.000588037
0.000586717
0.000587187
0.000585684
0.000586216
0.000584523
0.00058512
0.000583233
0.000583895
0.000581808
0.000582537
0.000580247
0.000581045
0.000578544
0.000579413
0.000576696
0.000577638
0.000574701
0.000575717
0.000572554
0.000573647
0.000570251
0.000571422
0.000567786
0.000569039
0.000565155
0.000566492
0.000562354
0.000563776
0.000559377
0.000560888
0.000581066
0.000800661
0.000826928
0.000783486
0.000835531
0.000556804
0.000530225
0.000528394
0.000531059
0.000557823
0.000529217
0.00076264
0.000839251
0.00073877
0.000838077
0.00071262
0.000832088
0.000684949
0.000821417
0.000656558
0.000806495
0.000628328
0.000787768
0.000765926
0.00136614
0.000741882
0.000472232
0.000716712
0.000690671
0.000631984
0.000601741
0.000576048
0.000595703
0.000570372
0.000663135
0.000566106
0.000545058
0.000540815
0.000815927
0.000533746
0.000532011
0.000537135
0.000535452
0.000540413
0.000538774
0.000543694
0.00054204
0.000547004
0.000545356
0.00055
0.000548586
0.000552278
0.000551246
0.0005539
0.000553145
0.000555284
0.000554593
0.000556717
0.000555981
0.000558226
0.000557462
0.000559691
0.000558971
0.000561015
0.000560374
0.000562112
0.0005616
0.000562806
0.000562519
0.000563192
0.000563007
0.000563775
0.000563423
0.000564737
0.000564215
0.000565618
0.000565225
0.00056612
0.000565919
0.000566338
0.000566256
0.000566388
0.000566381
0.000566303
0.000566362
0.00056609
0.000566213
0.000565735
0.000565933
0.000565159
0.000565485
0.000564217
0.000564733
0.000562989
0.000563622
0.000561915
0.000562385
0.000561339
0.000561567
0.000560823
0.000561105
0.000560002
0.000560465
0.000558841
0.000559454
0.000557462
0.000558176
0.000555984
0.000556728
0.000554512
0.000555246
0.00055303
0.000553774
0.000551518
0.000552275
0.000550081
0.000550774
0.000549171
0.000549511
0.000547802
0.000549177
0.000452316
0.000606148
0.000583372
0.0006449
0.000626525
0.000677009
0.000661637
0.000704001
0.000691144
0.000724871
0.000715364