/*--------------------------------*- C++ -*----------------------------------*\
| =========                 |                                                 |
| \\      /  F ield         | OpenFOAM: The Open Source CFD Toolbox           |
|  \\    /   O peration     | Version:  2212                                  |
|   \\  /    A nd           | Website:  www.openfoam.com                      |
|    \\/     M anipulation  |                                                 |
\*---------------------------------------------------------------------------*/
FoamFile
{
    version     2.0;
    format      ascii;
    arch        "LSB;label=32;scalar=64";
    class       volVectorField;
    location    "0.0195";
    object      U;
}
// * * * * * * * * * * * * * * * * * * * * * * * * * * * * * * * * * * * * * //

dimensions      [0 1 -1 0 0 0 0];

internalField   nonuniform List<vector> 
2308
(
(-2.0083 5.91448 -1.02357e-15)
(0.947526 1.42778 0)
(-0.371726 11.4697 7.24025e-17)
(0.882013 3.34358 -3.61161e-16)
(0.0867552 4.33006 0)
(0.441019 4.01413 1.34818e-20)
(-0.452288 3.91615 -1.84133e-21)
(-0.46932 4.12503 -4.98803e-16)
(-0.0624446 4.46881 9.07663e-16)
(0.0737305 3.69791 -1.20555e-16)
(0.0864744 3.7062 2.15007e-16)
(0.0930267 3.72336 -3.15914e-16)
(0.0852692 3.72603 1.5632e-16)
(0.0846379 3.72983 -7.91584e-17)
(0.0835227 3.73299 1.34801e-17)
(0.0811624 3.73607 1.12007e-16)
(0.0783536 3.7403 1.4975e-17)
(-0.050917 3.7416 3.46377e-17)
(-0.0545615 3.73909 4.66097e-17)
(-0.0536542 3.73613 3.4508e-18)
(-0.0495097 3.73273 2.63247e-17)
(-0.0443935 3.72858 -7.69259e-17)
(-0.0373929 3.72364 9.88349e-17)
(-0.0265614 3.71934 -4.553e-17)
(-0.0245204 3.7117 -1.95756e-16)
(-0.0284431 3.69809 -9.31732e-17)
(-0.0142439 3.68001 4.76714e-17)
(0.00301533 3.66378 -5.24598e-17)
(-0.287302 3.96117 0)
(0.0743948 3.74692 -3.19778e-16)
(0.00332998 3.64038 2.79372e-18)
(0.00303323 3.61288 7.1543e-19)
(0.00360283 3.58317 -1.22355e-17)
(0.00367705 3.55151 1.15643e-17)
(0.00399166 3.51802 -1.22971e-17)
(0.00421765 3.48361 1.15807e-17)
(0.0044274 3.44925 -5.78599e-18)
(0.00466786 3.41612 5.78432e-18)
(0.00486079 3.3851 -5.77812e-18)
(0.00498511 3.35732 2.88857e-18)
(0.00499098 3.33357 5.78274e-18)
(0.0049096 3.31467 8.68477e-18)
(0.00477922 3.3011 -1.74092e-17)
(0.00463161 3.29299 1.16391e-17)
(0.00449797 3.29004 5.81549e-18)
(0.068856 3.28919 -5.8355e-18)
(0.069737 3.2921 5.81804e-18)
(0.0708217 3.29999 -8.70968e-18)
(0.0720374 3.31355 -9.43235e-18)
(0.0734739 3.3323 1.44859e-17)
(0.0750774 3.35592 -2.89699e-18)
(0.076918 3.38343 5.8044e-18)
(0.0791167 3.41464 1.45102e-18)
(0.0818226 3.44739 -8.7028e-18)
(0.0848335 3.48156 -2.9071e-18)
(0.088322 3.51595 5.80936e-18)
(0.0925053 3.54915 0)
(0.0971267 3.58064 -7.22189e-19)
(0.102522 3.61018 -2.37447e-17)
(0.107495 3.63679 -8.18312e-17)
(0.114574 3.65562 9.64128e-17)
(0.138924 3.68337 9.95191e-17)
(0.172301 3.68557 1.14202e-16)
(0.191636 3.69948 3.55494e-22)
(0.210371 3.70517 1.27969e-16)
(0.209296 3.70978 -2.37191e-16)
(0.211253 3.71983 -5.44144e-17)
(0.213957 3.72648 0)
(0.214969 3.73089 0)
(0.213722 3.73347 0)
(0.212613 3.73968 0)
(0.00428613 3.29234 -2.90894e-18)
(0.067895 3.29131 2.92339e-18)
(-0.178248 3.74833 -1.60725e-16)
(-0.182294 3.73549 -3.25039e-18)
(-0.180687 3.72724 1.27443e-17)
(-0.173467 3.72306 0)
(-0.162946 3.71893 -2.4436e-17)
(-0.152211 3.71379 -2.39153e-17)
(-0.145489 3.70428 1.19956e-17)
(-0.137129 3.69247 4.81087e-17)
(-0.122841 3.67806 0)
(-0.109162 3.65881 2.2725e-22)
(-0.101848 3.63629 8.91681e-20)
(-0.0958256 3.6105 -1.1551e-17)
(-0.0904673 3.58141 1.73339e-17)
(-0.0855457 3.54974 9.84071e-22)
(-0.0811039 3.51636 -1.01345e-17)
(-0.0770499 3.48209 0)
(-0.0734236 3.44782 -1.44774e-18)
(-0.0703073 3.41502 8.68087e-18)
(-0.0676611 3.38432 -1.15698e-17)
(-0.065522 3.35677 -3.98793e-22)
(-0.0638705 3.33323 1.15841e-17)
(-0.0625507 3.31456 0)
(-0.061527 3.3011 1.15989e-17)
(-0.0607272 3.29316 -1.31064e-22)
(-0.060102 3.29031 -5.81866e-18)
(-0.0673318 3.76107 -1.3709e-16)
(-0.0595307 3.29249 -5.81916e-18)
(0.0603977 3.765 1.39771e-16)
(0.207056 3.75358 5.32535e-22)
(0.129828 3.28941 -5.85645e-18)
(0.13135 3.28769 7.31385e-18)
(0.132966 3.29026 0)
(0.134772 3.29809 -2.18925e-18)
(0.136911 3.31125 5.09952e-18)
(0.139439 3.32958 5.82644e-18)
(0.142497 3.35284 -5.82594e-18)
(0.146194 3.37987 0)
(0.150654 3.41032 -1.45496e-18)
(0.15601 3.44243 2.91725e-18)
(0.162193 3.4762 -1.96542e-22)
(0.16945 3.5099 -2.91746e-18)
(0.177702 3.54257 0)
(0.186794 3.57358 4.37585e-18)
(0.196768 3.60182 -1.74189e-17)
(0.207874 3.62624 -1.16496e-17)
(0.221287 3.6467 4.73212e-17)
(0.242843 3.67014 1.7543e-16)
(0.267184 3.67875 1.32338e-17)
(0.290451 3.68926 1.25826e-16)
(0.309817 3.69497 -5.68785e-17)
(0.321298 3.70058 0)
(0.329335 3.71036 0)
(0.336037 3.71884 0)
(0.341552 3.72375 1.88222e-16)
(0.344362 3.7247 -2.18624e-16)
(0.346818 3.73094 2.22714e-16)
(-0.656372 4.15111 -4.00846e-16)
(0.655681 3.92556 0)
(0.430861 3.9113 0)
(0.524234 3.92871 0)
(-0.329392 3.75661 3.20792e-16)
(-0.330601 3.72947 9.07596e-17)
(-0.320878 3.72514 3.18569e-22)
(-0.30996 3.71827 -1.54301e-18)
(-0.297554 3.71394 1.53426e-18)
(-0.28422 3.70995 1.21662e-17)
(-0.270836 3.70432 -2.40514e-17)
(-0.258973 3.69496 -1.93783e-22)
(-0.245423 3.68444 0)
(-0.229386 3.67092 5.31717e-17)
(-0.214435 3.65085 3.49164e-17)
(-0.202067 3.62815 -5.78777e-18)
(-0.191057 3.60279 5.78533e-18)
(-0.181013 3.5742 0)
(-0.171761 3.54323 0)
(-0.163319 3.5103 -7.25556e-19)
(-0.155653 3.47673 0)
(-0.148925 3.4432 4.35081e-18)
(-0.143062 3.41108 4.19434e-23)
(-0.138074 3.38111 -2.9016e-18)
(-0.133996 3.35414 0)
(-0.130791 3.33138 -2.90254e-18)
(-0.128267 3.31325 4.35769e-18)
(-0.126301 3.30003 -7.27097e-18)
(-0.12464 3.2924 0)
(-0.123248 3.28978 -1.16335e-17)
(-0.121866 3.29185 2.91185e-18)
(-0.120297 3.29821 -2.06082e-22)
(-0.0588411 3.29909 0)
(0.00399902 3.29895 -1.45971e-18)
(0.066717 3.29788 -4.75352e-18)
(-0.370331 4.2429 4.35623e-16)
(0.127951 3.296 3.66641e-19)
(-0.871416 4.26159 -1.25652e-15)
(-1.12684 4.16634 -2.89032e-16)
(0.191715 3.77603 0)
(-0.557771 4.58654 4.16398e-16)
(-0.0672868 4.23315 -8.71338e-16)
(-0.0857044 3.78922 5.72328e-17)
(0.344786 3.74791 -3.36791e-16)
(-0.118513 3.30726 -2.92641e-18)
(-0.0581054 3.30847 -2.9253e-18)
(0.00356846 3.30852 -3.66017e-19)
(0.0652554 3.30733 5.85711e-18)
(0.125582 3.30496 3.67234e-19)
(0.183195 3.30143 0)
(0.186193 3.29291 2.94134e-18)
(0.188551 3.28694 5.87557e-18)
(0.190513 3.2852 -1.46783e-18)
(0.192595 3.2878 -5.87031e-18)
(0.194967 3.29528 -6.59297e-18)
(0.197679 3.30786 8.78859e-18)
(0.200957 3.3254 2.93002e-18)
(0.205122 3.34796 -5.86632e-18)
(0.210407 3.37434 4.39779e-18)
(0.216898 3.40354 -1.28204e-18)
(0.224577 3.43475 0)
(0.233564 3.46738 0)
(0.244013 3.50001 0)
(0.255767 3.53173 5.87657e-18)
(0.268742 3.56159 -2.94357e-18)
(0.282895 3.58894 5.5146e-22)
(0.298303 3.61251 -2.37328e-17)
(0.315679 3.63395 0)
(0.336783 3.65474 -2.49339e-17)
(0.360453 3.66877 2.57833e-17)
(0.383452 3.67765 5.30582e-17)
(0.404633 3.68396 2.70657e-17)
(0.42149 3.68933 1.07966e-16)
(0.43492 3.69798 -1.06858e-16)
(0.446392 3.70687 0)
(0.457834 3.71092 2.64801e-17)
(0.467571 3.71055 -5.32208e-17)
(0.47511 3.71603 -1.07856e-16)
(-0.390464 3.80505 5.17125e-17)
(-1.28378 6.87956 0)
(0.219434 4.20188 3.15076e-22)
(-0.698316 4.09655 5.53794e-16)
(-0.636494 3.9675 -1.18263e-16)
(-0.598454 3.87973 1.34582e-16)
(-0.563691 3.82444 -2.56159e-17)
(-0.529182 3.7826 5.00516e-17)
(-0.498958 3.75335 -2.45004e-17)
(-0.472893 3.73564 0)
(-0.457551 3.71702 -2.37269e-17)
(-0.442445 3.71062 -2.40741e-17)
(-0.427417 3.70688 0)
(-0.411804 3.70236 0)
(-0.395674 3.69788 1.50962e-18)
(-0.379428 3.69124 -1.35018e-17)
(-0.36325 3.68271 0)
(-0.34608 3.67188 0)
(-0.327784 3.65763 -1.775e-17)
(-0.310012 3.63824 -1.17305e-17)
(-0.293635 3.61583 2.33584e-17)
(-0.278442 3.59066 5.83286e-18)
(-0.264415 3.56223 1.45772e-18)
(-0.251429 3.53249 5.82901e-18)
(-0.239525 3.50016 -6.56148e-18)
(-0.228785 3.46776 0)
(-0.219231 3.43537 -2.9143e-18)
(-0.21097 3.40441 0)
(-0.20401 3.37536 0)
(-0.198359 3.3497 0)
(-0.193823 3.32799 -1.16594e-17)
(-0.190271 3.31044 0)
(-0.187565 3.29779 -6.55273e-18)
(-0.185331 3.29077 1.09238e-18)
(-0.1833 3.28827 2.29379e-17)
(-0.181361 3.29023 0)
(-0.179057 3.29615 -1.16618e-17)
(-0.176414 3.30477 1.8219e-19)
(-1.08567 11.3756 0)
(-0.787465 4.47172 6.83159e-16)
(2.79381 6.49097 1.09393e-15)
(0.751711 3.18322 0)
(-1.62501 8.97685 -3.2987e-16)
(-1.11033 4.37312 1.43076e-15)
(0.329388 3.77277 3.92784e-21)
(-0.238352 3.822 1.0865e-16)
(0.236508 3.29639 -3.69543e-19)
(0.239864 3.2887 -2.95155e-18)
(0.24251 3.28321 2.94893e-18)
(0.244666 3.28186 0)
(0.247066 3.28417 0)
(0.249642 3.29123 3.68052e-19)
(0.252668 3.30334 -1.47182e-18)
(0.25644 3.31994 -5.14651e-18)
(0.261299 3.34153 3.6755e-19)
(0.26764 3.36648 -7.58052e-19)
(0.275533 3.39435 -9.0252e-19)
(0.285071 3.42431 4.04872e-18)
(0.296317 3.45519 3.6827e-19)
(0.309269 3.48689 -2.94966e-18)
(0.323865 3.51714 0)
(0.339986 3.54599 1.18251e-17)
(0.357469 3.57231 9.65477e-24)
(0.376172 3.59554 5.98373e-17)
(0.396517 3.6166 -4.84352e-17)
(0.419098 3.63599 0)
(0.443195 3.65252 5.07001e-17)
(0.466883 3.66012 -1.55403e-16)
(0.488912 3.66946 7.88093e-17)
(0.508596 3.67463 1.04832e-16)
(0.52664 3.68195 -2.20626e-21)
(0.544029 3.69047 -1.03905e-16)
(0.561518 3.6927 1.03896e-16)
(0.577627 3.69133 1.0438e-16)
(0.590599 3.69755 -1.04332e-16)
(0.479847 3.73347 -2.14017e-16)
(-0.415443 4.79708 1.6464e-20)
(-1.38448 3.91568 2.44119e-20)
(-0.905316 4.01364 -9.77436e-17)
(-0.810297 3.91256 -1.29422e-17)
(-0.743596 3.84067 -3.83466e-17)
(-0.693891 3.79053 -1.25258e-17)
(-0.65323 3.75334 0)
(-0.619964 3.72857 2.43208e-17)
(-0.592215 3.71195 -1.20185e-17)
(-0.570524 3.69929 -1.19733e-17)
(-0.550791 3.69302 6.01412e-18)
(-0.531888 3.68988 6.032e-18)
(-0.512953 3.68633 1.20613e-17)
(-0.493889 3.68146 0)
(-0.474682 3.67426 1.19717e-17)
(-0.455101 3.66593 -1.17487e-17)
(-0.434768 3.65434 -1.85979e-19)
(-0.413981 3.63958 -3.55485e-17)
(-0.393479 3.62067 2.94761e-18)
(-0.373806 3.59857 -1.46795e-17)
(-0.355158 3.57377 0)
(-0.337781 3.54627 -4.75241e-18)
(-0.321612 3.51746 3.65274e-19)
(-0.306828 3.48647 6.58306e-18)
(-0.29351 3.45539 0)
(-0.28178 3.42455 0)
(-0.271717 3.3948 -1.82859e-19)
(-0.263356 3.36739 -5.66319e-18)
(-0.256474 3.34335 5.85159e-18)
(-0.251013 3.32265 7.31243e-18)
(-0.246871 3.30599 -1.45995e-18)
(-0.243704 3.29443 4.38055e-18)
(-0.24107 3.28785 -1.46156e-18)
(-0.238607 3.28533 -1.16867e-17)
(-0.236271 3.28735 1.16727e-17)
(-0.233595 3.29263 2.62772e-17)
(-0.230329 3.30071 1.16694e-17)
(-0.226515 3.31005 0)
(-0.173284 3.31497 -6.01899e-18)
(-0.116458 3.31808 4.77653e-23)
(-0.0572693 3.31967 6.5978e-18)
(0.0030667 3.31981 2.19801e-18)
(0.063463 3.3185 -2.93444e-18)
(0.122675 3.31582 5.88072e-18)
(0.179423 3.31172 -5.8834e-18)
(0.232233 3.30574 -2.95166e-18)
(2.67376 7.28336 -4.06891e-16)
(0.660638 11.1969 -9.34876e-17)
(-2.7284 2.95421 -1.6274e-16)
(-0.982921 4.56162 -6.94296e-16)
(-1.66349 5.73631 -3.43557e-16)
(1.83345 5.19329 9.77303e-17)
(0.599995 3.71177 0)
(0.479165 3.75092 4.28354e-16)
(-0.617294 4.9612 1.0112e-15)
(-0.936721 4.88299 4.14526e-16)
(-1.16277 6.10164 -4.16739e-16)
(0.0674517 4.11464 8.91716e-16)
(-0.993558 3.93478 0)
(-0.916595 3.85551 1.27131e-17)
(-0.853095 3.79308 -3.13767e-18)
(-0.800172 3.75051 -5.87259e-17)
(-0.756097 3.7183 1.22114e-17)
(-0.719693 3.69786 0)
(-0.689122 3.68499 1.8728e-22)
(-0.663318 3.67626 -2.99772e-18)
(-0.639936 3.6715 0)
(-0.617948 3.6684 -6.00604e-18)
(-0.596318 3.66552 -6.00461e-18)
(-0.574712 3.6603 0)
(-0.552831 3.65298 1.49315e-18)
(-0.530556 3.64426 -1.49032e-18)
(-0.507785 3.63208 1.48828e-18)
(-0.48475 3.61691 2.22429e-17)
(-0.461936 3.59834 0)
(-0.439811 3.57647 2.9472e-18)
(-0.418632 3.55234 -1.47131e-18)
(-0.398634 3.52606 3.67845e-19)
(-0.380041 3.49802 1.10367e-18)
(-0.363035 3.46884 -6.6212e-18)
(-0.347784 3.43954 0)
(-0.334486 3.41019 1.46935e-18)
(-0.323269 3.38224 2.93611e-18)
(-0.313914 3.35717 2.93989e-18)
(-0.306416 3.33425 -9.56704e-22)
(-0.300635 3.3148 -1.4657e-18)
(-0.296224 3.29963 -4.39456e-18)
(-0.292805 3.28905 -2.93267e-18)
(-0.289997 3.2825 -2.92979e-18)
(-0.287439 3.28046 0)
(-0.284904 3.28224 -1.17094e-17)
(-0.282121 3.28687 -1.1704e-17)
(-0.278631 3.29427 -8.76538e-18)
(-0.274341 3.3026 -1.6062e-17)
(-0.269201 3.31084 7.30459e-18)
(-0.221898 3.31947 -5.84355e-18)
(-0.16959 3.32529 0)
(-0.113937 3.32919 2.93392e-18)
(-0.05621 3.33137 2.93836e-18)
(0.0025982 3.33164 -5.87002e-18)
(0.0614064 3.33007 5.8847e-18)
(0.119214 3.32669 -1.6805e-22)
(0.174882 3.32166 -2.94625e-18)
(0.226989 3.31478 8.84917e-18)
(0.273866 3.30516 -8.89245e-18)
(0.279418 3.29727 1.4823e-18)
(0.283912 3.28901 -1.10995e-18)
(0.287449 3.28245 2.21867e-18)
(0.290129 3.27744 -7.37826e-18)
(0.292396 3.27652 2.76993e-18)
(0.294628 3.27859 0)
(0.297064 3.28545 3.69477e-19)
(0.30003 3.29671 5.17423e-18)
(0.303954 3.31274 -7.38582e-19)
(0.309302 3.33285 1.8448e-18)
(0.316222 3.35621 3.00797e-23)
(0.324966 3.38238 7.4431e-19)
(0.335719 3.41086 -3.69468e-19)
(0.348502 3.43972 2.58666e-18)
(0.363308 3.46995 -8.87284e-18)
(0.380108 3.49853 2.9032e-22)
(0.398562 3.52639 5.93716e-18)
(0.41854 3.55149 -5.96012e-18)
(0.439729 3.57446 -4.79796e-17)
(0.462234 3.5946 4.83832e-17)
(0.486228 3.613 0)
(0.51104 3.63044 -9.98744e-17)
(0.535365 3.63762 7.55694e-17)
(0.558608 3.65046 -7.67569e-17)
(0.580447 3.65473 0)
(0.60234 3.6606 0)
(0.625045 3.66789 0)
(0.647724 3.66863 -1.27126e-17)
(0.669018 3.66758 9.44208e-22)
(0.687543 3.67262 2.02518e-16)
(-0.225835 4.99502 -4.55014e-16)
(0.603195 3.72704 2.14467e-16)
(0.469392 3.76935 -2.01953e-16)
(-0.422568 3.85297 2.56341e-17)
(-0.826312 5.12316 4.86326e-16)
(-1.19751 4.9919 4.15156e-16)
(-1.24347 4.68131 -4.4444e-20)
(-1.29782 4.41635 -4.32673e-16)
(-1.55371 3.89449 -3.01385e-16)
(-1.10171 4.01739 -2.99795e-16)
(-1.20021 3.94387 1.08271e-16)
(-1.09375 3.85096 -2.5127e-17)
(-1.00756 3.78455 -4.96137e-17)
(-0.938109 3.73327 0)
(-0.880248 3.6998 4.89973e-17)
(-0.832803 3.67593 0)
(-0.79366 3.66087 0)
(-0.760592 3.65344 1.20128e-17)
(-0.732036 3.64779 2.99769e-18)
(-0.706253 3.64492 0)
(-0.682056 3.64244 5.99226e-18)
(-0.658534 3.6392 1.62325e-22)
(-0.635097 3.63413 1.77657e-23)
(-0.611334 3.6265 5.96843e-18)
(-0.587162 3.61719 6.71199e-18)
(-0.562611 3.60451 -6.69867e-18)
(-0.537908 3.58896 -1.22527e-17)
(-0.513428 3.57066 3.70544e-19)
(-0.489551 3.54888 -2.2214e-18)
(-0.466615 3.52575 7.39339e-19)
(-0.444825 3.5005 2.9561e-18)
(-0.42464 3.47384 -2.21671e-18)
(-0.40623 3.44633 2.95449e-18)
(-0.389829 3.41894 2.76296e-22)
(-0.375712 3.39128 -7.37197e-18)
(-0.363804 3.36602 2.95198e-18)
(-0.354045 3.34255 2.94935e-18)
(-0.346437 3.32106 -4.41214e-18)
(-0.340694 3.30353 5.87964e-18)
(-0.336347 3.28971 5.88766e-18)
(-0.333051 3.27949 0)
(-0.33041 3.27369 1.76411e-17)
(-0.328044 3.27161 2.93675e-18)
(-0.325617 3.27291 2.92913e-18)
(-0.322792 3.27727 0)
(-0.319352 3.28348 0)
(-0.314953 3.29064 8.77335e-18)
(-0.309633 3.29766 -5.67701e-23)
(-0.30346 3.30296 -1.46051e-18)
(-0.263243 3.31741 1.4612e-18)
(-0.216512 3.32736 0)
(-0.165323 3.33451 0)
(-0.110998 3.3393 -1.46606e-18)
(-0.0548541 3.34198 4.39942e-18)
(0.00208126 3.34252 0)
(0.0590347 3.34072 -2.94628e-18)
(0.11526 3.33672 -2.94571e-18)
(0.16968 3.33066 5.89697e-18)
(0.220874 3.32252 -2.95285e-18)
(0.267278 3.31167 8.88765e-18)
(0.307017 3.29617 1.48589e-18)
(0.313611 3.29099 1.48636e-18)
(0.319151 3.28438 2.97248e-18)
(0.323611 3.2776 0)
(0.327029 3.27193 -1.11339e-18)
(0.329594 3.26806 -2.7819e-19)
(0.331741 3.26711 1.66905e-18)
(0.333693 3.2696 -3.7094e-19)
(0.335785 3.27624 -7.41594e-19)
(0.338451 3.28675 -5.92431e-18)
(0.342154 3.30167 1.48132e-18)
(0.347363 3.32044 -3.70474e-18)
(0.354433 3.34213 1.85114e-18)
(0.363559 3.36637 -7.40319e-19)
(0.374865 3.39296 0)
(0.388511 3.41998 0)
(0.404431 3.44795 0)
(0.422528 3.47539 -2.96847e-18)
(0.442499 3.50159 0)
(0.464089 3.52568 9.72531e-23)
(0.486971 3.54782 2.39565e-17)
(0.511126 3.56726 -1.20606e-17)
(0.536038 3.5852 2.43693e-17)
(0.56158 3.60272 7.41075e-17)
(0.586528 3.61096 1.60959e-22)
(0.610605 3.62495 -2.50678e-17)
(0.634705 3.62908 -5.00246e-17)
(0.659342 3.63311 9.92803e-17)
(0.685845 3.63869 -4.9846e-17)
(0.712094 3.63864 3.14622e-22)
(0.73707 3.63882 2.48134e-17)
(0.760549 3.64298 6.30312e-22)
(0.705678 3.68306 -3.08614e-16)
(-0.432922 5.20884 -4.67963e-16)
(-0.0174304 5.20392 8.82732e-16)
(2.95321 4.52341 0)
(0.718957 3.69984 -2.10347e-16)
(-1.50276 4.22696 7.75553e-16)
(-1.51773 4.44953 -4.13492e-16)
(-1.50836 4.76727 -7.91214e-16)
(0.446246 3.82792 -6.75079e-17)
(-0.495876 3.98809 -6.42831e-17)
(-0.273008 3.87035 -2.5633e-17)
(0.598378 3.76222 -4.20658e-21)
(-1.09768 5.27728 -4.76515e-16)
(-1.46712 5.13346 3.97372e-16)
(-0.296469 3.30555 -1.46224e-18)
(-0.256514 3.32141 -1.46151e-18)
(-0.210463 3.33282 0)
(-0.160389 3.34126 -1.46596e-18)
(-0.107704 3.34728 1.4683e-18)
(-0.0534185 3.3508 -1.46724e-18)
(0.00147676 3.35156 1.46934e-18)
(0.0563721 3.34949 2.94449e-18)
(0.110757 3.34471 -2.94715e-18)
(0.163701 3.3375 5.8988e-18)
(0.213912 3.32803 -8.86844e-18)
(0.259784 3.31569 0)
(0.299474 3.29871 -7.72769e-23)
(0.330926 3.27353 0)
(0.338034 3.27233 -8.92323e-18)
(0.344381 3.26874 2.97783e-18)
(0.349758 3.26344 0)
(0.35397 3.25828 0)
(0.357164 3.25377 7.43834e-19)
(0.359459 3.25083 -9.29806e-20)
(0.361134 3.2507 0)
(0.362603 3.2534 -3.71798e-19)
(0.36416 3.26007 3.71693e-19)
(0.366329 3.27012 1.48554e-18)
(0.369646 3.28385 7.41854e-19)
(0.374456 3.3012 1.48437e-18)
(0.38114 3.32127 -1.43125e-22)
(0.390098 3.34357 -2.96843e-18)
(0.401427 3.36781 7.42463e-19)
(0.415239 3.39318 2.97057e-18)
(0.431479 3.4189 7.42681e-19)
(0.449985 3.44469 -1.48619e-18)
(0.470733 3.46931 2.97604e-18)
(0.493069 3.49242 -8.94316e-18)
(0.516672 3.51347 -1.19575e-17)
(0.541235 3.53236 6.00564e-18)
(0.566489 3.55021 -1.2103e-17)
(0.592628 3.56706 0)
(0.618264 3.57792 -3.68962e-17)
(0.643502 3.59255 7.45603e-17)
(0.669241 3.59465 0)
(0.695421 3.59898 0)
(0.722997 3.60183 0)
(0.75079 3.6026 1.83237e-17)
(0.777413 3.60271 8.9291e-22)
(0.805811 3.60661 2.92994e-21)
(0.785894 3.6522 -1.98612e-16)
(0.374489 4.30746 -4.67272e-16)
(-0.671945 5.4228 -4.3211e-20)
(0.901634 3.13713 3.87325e-16)
(-0.687862 9.23698 0)
(-1.15606 3.75988 -2.36534e-17)
(-1.06892 3.69656 0)
(-0.99233 3.66055 0)
(-0.929778 3.63869 1.21238e-17)
(-0.87926 3.62548 -2.41622e-17)
(-0.83818 3.61688 0)
(-0.803677 3.61534 1.20261e-17)
(-0.773936 3.61249 0)
(-0.746984 3.61155 -2.99403e-18)
(-0.721646 3.60986 2.9927e-18)
(-0.697104 3.60647 -1.49562e-17)
(-0.672637 3.60106 -1.31921e-22)
(-0.647953 3.59296 -5.96793e-18)
(-0.62277 3.58278 1.19328e-17)
(-0.597199 3.56957 8.9323e-18)
(-0.571585 3.55368 -8.92811e-18)
(-0.546244 3.53532 0)
(-0.521465 3.51415 4.33889e-24)
(-0.497622 3.49164 -4.45071e-18)
(-0.475017 3.46749 0)
(-0.454064 3.44232 0)
(-0.435064 3.41656 1.48208e-18)
(-0.418417 3.39094 4.44373e-18)
(-0.404094 3.36563 -2.96078e-18)
(-0.3921 3.34249 2.95462e-18)
(-0.382549 3.32092 -5.90391e-18)
(-0.375242 3.30106 -1.47713e-18)
(-0.36973 3.28558 -1.18134e-17)
(-0.36576 3.27243 5.90049e-18)
(-0.362908 3.26307 0)
(-0.360667 3.2577 -1.17929e-17)
(-0.358703 3.25499 -5.8798e-18)
(-0.356583 3.25631 0)
(-0.353982 3.25987 5.88101e-18)
(-0.350686 3.26475 -1.29729e-22)
(-0.346455 3.27065 8.79523e-18)
(-0.341203 3.27643 8.78225e-18)
(-0.335083 3.28022 0)
(-0.328291 3.28158 -2.92565e-18)
(0.215414 5.42697 -4.34906e-16)
(-0.232506 5.4621 -8.93977e-16)
(-0.0921145 11.7146 1.344e-16)
(0.600145 3.83152 -1.86667e-16)
(-1.39898 5.53749 8.06221e-16)
(0.729564 3.73444 4.36704e-22)
(0.352356 3.23371 1.48749e-18)
(0.358886 3.23374 7.44119e-18)
(0.364787 3.23167 -5.95794e-18)
(0.369708 3.22817 0)
(0.373544 3.22454 0)
(0.376312 3.22171 0)
(0.378174 3.21995 0)
(0.37929 3.22074 1.48936e-18)
(0.3801 3.22421 -7.44322e-19)
(0.38101 3.23074 3.72053e-19)
(0.38248 3.24065 -2.23205e-18)
(0.385066 3.2534 1.48705e-18)
(0.389233 3.26925 7.43219e-19)
(0.395292 3.28778 -1.11513e-18)
(0.403679 3.30838 0)
(0.41459 3.33043 -6.94069e-23)
(0.427979 3.35387 -7.43322e-19)
(0.443869 3.3777 7.43877e-19)
(0.462142 3.40152 1.48811e-18)
(0.482653 3.42477 -1.67458e-18)
(0.504992 3.44686 1.67587e-18)
(0.528607 3.46741 -4.47749e-18)
(0.552849 3.486 -8.98235e-18)
(0.577659 3.50306 6.0171e-18)
(0.603273 3.51951 0)
(0.629196 3.532 5.60508e-22)
(0.655241 3.54667 -3.68203e-17)
(0.680902 3.54907 3.05836e-17)
(0.707164 3.55555 -6.12271e-18)
(0.733997 3.55561 0)
(0.761979 3.55496 -6.04334e-18)
(0.789852 3.55314 8.34159e-17)
(0.819072 3.55537 -4.63081e-17)
(0.838487 3.61664 1.87879e-16)
(0.492017 4.19815 9.56808e-16)
(-0.941708 5.63668 -4.67003e-20)
(-0.321183 3.2794 -7.31903e-19)
(-0.289074 3.30458 4.39372e-18)
(-0.249246 3.32192 7.31276e-19)
(-0.203865 3.33481 0)
(-0.154988 3.34487 -1.46663e-18)
(-0.103911 3.35236 1.46718e-18)
(-0.0517787 3.35687 -2.20484e-18)
(0.000825697 3.35792 -5.14627e-18)
(0.0534386 3.35544 5.88817e-18)
(0.105779 3.34967 0)
(0.157121 3.34104 -2.95116e-18)
(0.206325 3.32985 8.86424e-18)
(0.251725 3.31583 -5.919e-18)
(0.291491 3.2975 -2.96374e-18)
(0.323448 3.27115 4.4473e-18)
(0.345574 3.23001 -5.93999e-18)
(0.564038 4.38473 9.05956e-16)
(-1.7709 5.26279 -3.68371e-16)
(-1.78928 4.82729 3.75533e-16)
(-1.75604 4.45562 7.52307e-16)
(-1.68063 4.16022 3.57064e-16)
(0.205228 4.03956 1.44105e-20)
(0.605967 3.99326 2.75206e-16)
(-1.34315 2.45428 0)
(0.847259 3.23367 0)
(-1.22652 3.62591 0)
(-1.1008 3.59248 5.99847e-18)
(-1.01108 3.57517 -1.20787e-17)
(-0.944319 3.56698 -6.14477e-22)
(-0.89256 3.56425 3.62211e-17)
(-0.851093 3.56355 -2.41105e-17)
(-0.81674 3.56637 -4.97697e-22)
(-0.787244 3.56699 1.19914e-17)
(-0.760487 3.56766 -2.09587e-17)
(-0.735274 3.5665 2.99144e-18)
(-0.710721 3.56287 1.19602e-17)
(-0.686208 3.55671 -2.98837e-18)
(-0.661403 3.54794 2.98652e-18)
(-0.636128 3.53678 -8.95496e-18)
(-0.610552 3.52286 2.97998e-18)
(-0.584928 3.50667 8.93085e-18)
(-0.559591 3.48797 -5.95175e-18)
(-0.534804 3.46738 5.94977e-18)
(-0.510938 3.44538 2.2307e-18)
(-0.488425 3.42225 5.20401e-18)
(-0.467588 3.39848 -6.68953e-18)
(-0.448867 3.37455 4.45833e-18)
(-0.432495 3.35082 -8.17046e-18)
(-0.41855 3.32773 -5.93894e-18)
(-0.40708 3.30611 5.93449e-18)
(-0.398034 3.28662 2.96292e-18)
(-0.391253 3.26862 -2.96082e-18)
(-0.386354 3.25445 0)
(-0.383066 3.24236 -5.91484e-18)
(-0.38084 3.23374 2.95522e-18)
(-0.379285 3.22784 -5.89801e-18)
(-0.377764 3.22542 -8.8424e-18)
(-0.376142 3.22584 -5.89305e-18)
(-0.373992 3.22819 -1.17611e-17)
(-0.37101 3.23182 2.93548e-18)
(-0.367119 3.23637 -2.93637e-18)
(-0.362244 3.24047 -5.87154e-18)
(-0.356464 3.24284 0)
(-0.350152 3.24304 0)
(-0.343628 3.23977 0)
(-0.0691016 11.903 0)
(0.809602 3.66157 4.31183e-21)
(0.581664 3.84033 1.01194e-15)
(0.484046 5.64856 4.31644e-16)
(-0.488943 5.72913 4.43807e-16)
(0.00305166 5.72835 8.73358e-16)
(0.348147 4.09577 -4.6858e-16)
(-0.389533 11.7588 -1.15157e-16)
(-1.22496 10.836 0)
(0.319261 3.9659 -5.33082e-16)
(0.744544 3.78202 -2.17572e-16)
(0.853355 3.58013 -8.30926e-17)
(0.0907078 3.9868 -1.39934e-15)
(2.44793 8.10902 4.24855e-16)
(1.02367 3.07267 3.81013e-16)
(-0.188066 11.5942 -6.20015e-17)
(0.356402 3.1641 -2.97184e-18)
(0.362338 3.16892 -7.42962e-19)
(0.368169 3.17031 -2.23263e-18)
(0.373406 3.16994 6.84555e-23)
(0.377744 3.16844 0)
(0.381045 3.16662 0)
(0.383274 3.16544 0)
(0.384456 3.16542 -3.7243e-19)
(0.384945 3.16731 -4.65435e-19)
(0.385074 3.17179 4.65366e-19)
(0.385269 3.17844 -3.7233e-19)
(0.386103 3.18822 9.30462e-19)
(0.387882 3.20027 -1.11695e-18)
(0.391104 3.2151 0)
(0.396247 3.23206 0)
(0.40367 3.25106 0)
(0.413633 3.27135 0)
(0.426151 3.29288 0)
(0.441234 3.31498 0)
(0.458749 3.33708 -3.72169e-19)
(0.478317 3.35897 1.48918e-18)
(0.499723 3.38008 0)
(0.52254 3.40007 -3.72817e-18)
(0.54608 3.4188 6.72266e-18)
(0.569993 3.43599 5.99166e-18)
(0.594144 3.45181 0)
(0.618879 3.46614 1.81772e-17)
(0.644143 3.47971 -1.8237e-17)
(0.669273 3.48356 -6.05115e-18)
(0.69416 3.49144 1.21441e-17)
(0.718893 3.4923 -1.81489e-17)
(0.744519 3.49189 9.00977e-18)
(0.774566 3.48903 -2.36757e-17)
(0.814085 3.48151 5.82366e-18)
(0.855599 3.46508 1.79443e-16)
(0.656692 4.23322 5.08595e-16)
(-2.37711 5.945 6.83891e-16)
(-2.27077 6.63376 3.32566e-16)
(-0.337384 3.23243 0)
(-0.314206 3.27274 6.51816e-25)
(-0.281685 3.29901 -1.46483e-18)
(-0.241908 3.31786 -7.32297e-19)
(-0.197133 3.33263 -1.83369e-19)
(-0.149314 3.34468 1.83389e-19)
(-0.0999091 3.35388 0)
(-0.0499423 3.35955 0)
(0.000169106 3.36104 2.20718e-18)
(0.0503627 3.35811 -5.88739e-18)
(0.100583 3.35107 7.36865e-18)
(0.150309 3.34066 0)
(0.198566 3.32758 -5.90312e-18)
(0.24357 3.31184 5.91231e-18)
(0.283502 3.29201 1.47967e-18)
(0.315989 3.26451 1.48072e-18)
(0.338962 3.22273 0)
(0.350791 3.15625 0)
(-0.32991 4.03988 0)
(-2.08009 5.33272 3.54164e-16)
(-2.06823 4.83184 0)
(-1.98978 4.41591 -7.39889e-16)
(-1.87365 4.09298 3.72879e-16)
(-1.76091 3.83334 6.76187e-16)
(-1.25099 8.887 -1.03951e-16)
(-0.922971 6.59693 4.13611e-16)
(-1.29496 3.49556 1.25925e-17)
(-1.1689 3.48115 -9.77513e-17)
(-1.06731 3.47489 4.25417e-17)
(-0.985619 3.47504 -4.85144e-17)
(-0.921555 3.47964 -2.11817e-17)
(-0.871665 3.48622 3.02122e-17)
(-0.832043 3.49312 6.02792e-18)
(-0.799508 3.49939 -3.00568e-17)
(-0.771551 3.50345 1.80008e-17)
(-0.746291 3.50525 0)
(-0.722425 3.5042 -1.4962e-17)
(-0.699017 3.50008 8.97068e-18)
(-0.675608 3.49301 1.49445e-17)
(-0.651741 3.48296 2.98778e-18)
(-0.627469 3.47052 -1.19454e-17)
(-0.602823 3.45558 -5.96834e-18)
(-0.578029 3.43873 0)
(-0.553496 3.41992 0)
(-0.529612 3.39959 -1.48994e-18)
(-0.506641 3.37815 -7.44854e-19)
(-0.48503 3.35599 7.44735e-18)
(-0.465144 3.33347 1.48917e-18)
(-0.447312 3.31101 -5.21157e-18)
(-0.431684 3.28901 1.09677e-22)
(-0.418509 3.26787 0)
(-0.407966 3.248 0)
(-0.399897 3.23001 -5.94483e-18)
(-0.394009 3.2139 8.91061e-18)
(-0.389973 3.20036 -2.96711e-18)
(-0.387411 3.18933 3.56744e-22)
(-0.385806 3.18081 2.95681e-18)
(-0.384966 3.17502 2.95725e-18)
(-0.384193 3.17221 1.7735e-17)
(-0.383243 3.17135 0)
(-0.381675 3.17234 8.83265e-18)
(-0.379103 3.17485 -8.83334e-18)
(-0.37561 3.1776 5.8868e-18)
(-0.371255 3.17975 -5.87577e-18)
(-0.366051 3.18082 5.87539e-18)
(-0.360436 3.1796 0)
(-0.354705 3.17556 0)
(-0.349433 3.16776 -2.93393e-18)
(0.77461 4.4538 8.87046e-16)
(0.871717 3.60845 -1.91387e-16)
(-1.89732 6.56459 -3.50712e-16)
(1.06556 5.15596 8.59893e-16)
(0.940001 5.49807 4.02905e-20)
(0.779224 5.86764 8.61467e-16)
(0.830961 3.69661 2.10441e-16)
(-0.774869 5.98383 -9.36271e-16)
(0.276122 5.99509 0)
(-0.254402 6.04039 0)
(-0.215965 10.8828 -6.80404e-17)
(2.56904 5.90585 -4.24709e-16)
(-1.34726 10.2621 2.90018e-17)
(0.377442 3.89105 -8.44658e-16)
(0.820269 3.37418 -9.63467e-17)
(0.720215 4.10363 -5.64805e-16)
(0.200791 11.7064 0)
(0.0982479 11.8902 -5.97542e-17)
(0.778156 3.37414 0)
(0.753232 3.37951 3.00221e-18)
(0.726884 3.39055 5.99056e-18)
(0.70209 3.39524 2.25056e-18)
(0.678846 3.39508 3.76299e-19)
(0.656519 3.39244 0)
(0.634356 3.38468 7.53944e-18)
(0.611601 3.37734 -7.54926e-18)
(0.588555 3.36418 3.00178e-18)
(0.565874 3.34911 -5.98577e-18)
(0.543207 3.33271 1.4935e-18)
(0.520748 3.31509 0)
(0.498838 3.29628 2.98182e-18)
(0.477722 3.2766 -1.49068e-18)
(0.457955 3.25638 1.48956e-18)
(0.439927 3.23563 -2.60733e-18)
(0.423927 3.21487 3.02625e-18)
(0.410165 3.19453 -8.14945e-24)
(0.398903 3.1748 -1.58317e-18)
(0.390293 3.15605 7.45024e-19)
(0.384059 3.13868 -8.3816e-19)
(0.379873 3.12295 0)
(0.377441 3.10912 3.72655e-19)
(0.376453 3.09738 -1.86362e-19)
(0.37636 3.08771 -7.45542e-19)
(0.376835 3.08033 6.4642e-19)
(0.377321 3.07504 9.31972e-20)
(0.377477 3.07181 -3.7267e-19)
(0.376946 3.06991 0)
(0.375424 3.06951 0)
(0.37286 3.06905 -1.49018e-18)
(0.369196 3.06874 8.19136e-18)
(0.364779 3.0672 -1.48935e-18)
(0.359858 3.0643 0)
(0.35483 3.05868 5.95111e-18)
(0.350187 3.05017 2.38912e-22)
(-0.0356723 11.9559 3.19252e-16)
(-0.3449 3.15568 2.93443e-18)
(-0.331974 3.22042 0)
(-0.308073 3.26117 -7.33421e-19)
(-0.27504 3.28844 7.3294e-19)
(-0.235181 3.30883 1.83335e-18)
(-0.19081 3.32572 -1.46711e-18)
(-0.143952 3.3401 3.67164e-19)
(-0.0961801 3.35145 7.34918e-19)
(-0.0482917 3.35866 5.14654e-18)
(-0.000453373 3.3607 -7.35139e-18)
(0.047448 3.35716 -5.89007e-18)
(0.0956392 3.34853 5.89498e-18)
(0.143948 3.33595 -7.37221e-19)
(0.191281 3.32056 1.47552e-18)
(0.236005 3.30274 -5.90895e-18)
(0.276186 3.2814 -1.47848e-18)
(0.309284 3.25302 5.91746e-18)
(0.33309 3.21087 0)
(0.345813 3.14432 2.96445e-18)
(0.346181 3.03847 -1.48338e-18)
(0.850944 4.27233 4.65058e-16)
(0.898996 3.53755 -1.67247e-16)
(1.15862 4.84393 -4.27231e-16)
(-0.824125 11.5258 0)
(-0.50483 11.4832 0)
(-0.0966618 11.4169 -1.10521e-16)
(0.322589 11.4068 -2.76903e-17)
(0.735522 11.4347 -3.45072e-17)
(0.487024 11.718 -8.48453e-17)
(0.259424 11.8845 1.18233e-16)
(0.065889 11.9416 6.42657e-17)
(0.7555 2.97674 0)
(0.0422975 11.9102 -6.3195e-17)
(2.53854 5.27978 3.99711e-20)
(2.9536 5.18887 3.79914e-16)
(2.80421 5.70953 -3.62876e-16)
(1.35584 5.26699 -4.30344e-16)
(1.24837 5.65571 0)
(1.101 6.07543 0)
(0.851605 3.74566 4.39602e-16)
(0.995833 4.5136 8.66841e-16)
(-0.644442 11.5403 -8.48555e-17)
(-2.3992 5.30286 3.54445e-16)
(-2.33614 4.75249 -3.66919e-16)
(-2.2143 4.30755 0)
(-2.0641 3.95889 -7.79197e-16)
(-1.90596 3.67794 3.91842e-16)
(-1.54721 3.53474 -5.28133e-16)
(-1.60627 2.92859 -3.22969e-16)
(-1.35019 3.28465 1.02276e-16)
(-1.21321 3.30051 -1.13869e-16)
(-1.09589 3.31446 5.00008e-17)
(-1.00052 3.32905 -4.92759e-17)
(-0.92392 3.34524 0)
(-0.864269 3.36203 -3.03896e-18)
(-0.818123 3.37763 -4.54586e-18)
(-0.781883 3.39069 1.81101e-17)
(-0.752551 3.40051 6.01777e-18)
(-0.727625 3.40673 -3.00284e-17)
(-0.705208 3.40911 1.19909e-17)
(-0.683864 3.40756 1.49667e-17)
(-0.662741 3.40238 -1.19635e-17)
(-0.641397 3.39393 7.4734e-18)
(-0.619503 3.38248 -7.47182e-18)
(-0.59715 3.36859 -2.98761e-18)
(-0.574366 3.35249 8.95853e-18)
(-0.551386 3.33479 1.49235e-18)
(-0.528625 3.31568 5.96747e-18)
(-0.506453 3.29533 -5.96627e-18)
(-0.485184 3.27431 0)
(-0.465236 3.25296 -1.4914e-18)
(-0.446922 3.23153 -7.45681e-19)
(-0.43056 3.21044 -7.45519e-18)
(-0.416381 3.18985 6.70827e-18)
(-0.404484 3.17046 -7.4509e-19)
(-0.395089 3.15225 5.95945e-18)