/*--------------------------------*- C++ -*----------------------------------*\
| =========                 |                                                 |
| \\      /  F ield         | OpenFOAM: The Open Source CFD Toolbox           |
|  \\    /   O peration     | Version:  2212                                  |
|   \\  /    A nd           | Website:  www.openfoam.com                      |
|    \\/     M anipulation  |                                                 |
\*---------------------------------------------------------------------------*/
FoamFile
{
    version     2.0;
    format      ascii;
    arch        "LSB;label=32;scalar=64";
    class       volVectorField;
    location    "0.0002";
    object      U;
}
// * * * * * * * * * * * * * * * * * * * * * * * * * * * * * * * * * * * * * //

dimensions      [0 1 -1 0 0 0 0];

internalField   nonuniform List<vector> 
2308
(
(2.34346e-05 -3.96843e-06 -1.02329e-15)
(0.000222629 0.000349079 0)
(0.000263983 -0.00174095 7.23892e-17)
(-6.73002e-05 0.00139707 -3.60991e-16)
(-8.62007e-05 0.000798197 0)
(-4.11254e-06 0.00103268 -1.07605e-21)
(-1.8238e-05 0.00120297 2.36058e-22)
(-3.47783e-05 0.000910882 -4.98527e-16)
(-7.68135e-05 0.000744058 9.07358e-16)
(-0.00014682 0.0024471 -1.2048e-16)
(-0.000288729 0.00228473 2.14935e-16)
(9.0427e-05 0.00215633 -3.157e-16)
(-3.4114e-05 0.00215394 1.56251e-16)
(-7.48141e-05 0.00208921 -7.91224e-17)
(-8.02389e-05 0.00202021 1.34745e-17)
(-7.09396e-05 0.00195282 1.11964e-16)
(-6.91142e-05 0.0018703 1.4972e-17)
(-9.44468e-05 0.00180619 3.4639e-17)
(2.64553e-07 0.00188449 4.6611e-17)
(-5.11951e-05 0.00195177 3.44948e-18)
(-5.40347e-05 0.00202375 2.63129e-17)
(-5.51421e-05 0.00209558 -7.68936e-17)
(-7.28641e-05 0.00217467 9.87901e-17)
(-0.00016619 0.00227568 -4.55287e-17)
(6.59536e-05 0.00235422 -1.9577e-16)
(-1.10187e-06 0.002446 -9.31452e-17)
(-0.000184542 0.00262858 4.76706e-17)
(7.51536e-05 0.00265453 -5.24492e-17)
(-8.35945e-06 0.00114164 0)
(-7.24566e-05 0.00176788 -3.19658e-16)
(-7.16408e-07 0.00276886 2.79219e-18)
(-1.6082e-05 0.00286306 7.15039e-19)
(-1.15389e-05 0.00295429 -1.22282e-17)
(-9.53915e-06 0.00304098 1.15583e-17)
(-6.96582e-06 0.00312528 -1.22894e-17)
(-7.52868e-06 0.00320931 1.15745e-17)
(-7.65372e-06 0.00329358 -5.78222e-18)
(-9.76777e-06 0.0033779 5.78108e-18)
(-1.14855e-05 0.00346188 -5.77429e-18)
(-1.38749e-05 0.00354491 2.88721e-18)
(-1.59367e-05 0.00362682 5.77923e-18)
(-1.67421e-05 0.00370799 8.67906e-18)
(-1.68699e-05 0.00378953 -1.73979e-17)
(-1.6884e-05 0.00387078 1.16314e-17)
(-1.48031e-05 0.00395028 5.81483e-18)
(8.73304e-07 0.00395474 -5.83465e-18)
(9.16185e-07 0.00387068 5.8142e-18)
(3.78426e-07 0.00378881 -8.70409e-18)
(7.83865e-07 0.00370719 -9.42656e-18)
(4.62226e-07 0.00362466 1.44764e-17)
(1.11072e-06 0.00354202 -2.89513e-18)
(1.43617e-06 0.00345994 5.80107e-18)
(3.55865e-06 0.0033772 1.45074e-18)
(3.52032e-06 0.0032935 -8.69736e-18)
(5.15745e-06 0.00321024 -2.90562e-18)
(4.28882e-06 0.00312625 5.80571e-18)
(3.54965e-06 0.0030418 0)
(-9.76831e-07 0.00295698 -7.21812e-19)
(-5.45557e-06 0.00287124 -2.37325e-17)
(-3.9969e-05 0.00278157 -8.17903e-17)
(-0.00015137 0.00266251 9.63938e-17)
(5.63534e-05 0.00269262 9.95211e-17)
(-8.64235e-05 0.00247886 1.14147e-16)
(8.69967e-06 0.00241725 5.38554e-23)
(-9.54681e-05 0.00232958 1.27912e-16)
(-0.000175143 0.00224758 -2.3707e-16)
(-0.000113485 0.00214833 -5.43882e-17)
(-0.000103669 0.0020725 0)
(-9.68882e-05 0.00199929 0)
(-8.3492e-05 0.00192524 0)
(-6.30737e-05 0.00183865 0)
(-1.05035e-05 0.00403095 -2.90995e-18)
(5.52581e-06 0.00403798 2.92414e-18)
(-0.000210296 0.0018058 -1.60863e-16)
(-8.22593e-05 0.00194086 -3.25106e-18)
(-3.51599e-05 0.00202075 1.27388e-17)
(-2.37033e-05 0.00209843 0)
(-2.85296e-05 0.00217848 -2.44248e-17)
(-2.19601e-05 0.00227162 -2.39042e-17)
(-2.82355e-05 0.0023565 1.19898e-17)
(-3.19466e-05 0.00244493 4.8085e-17)
(-4.18697e-05 0.00255844 0)
(-4.70155e-05 0.00266135 9.97637e-24)
(-1.61926e-05 0.0027629 8.91172e-20)
(-1.38912e-05 0.00285939 -1.15445e-17)
(-1.67829e-05 0.00294846 1.73239e-17)
(-1.72075e-05 0.00303655 -7.7433e-23)
(-1.89693e-05 0.003124 -1.01292e-17)
(-1.87658e-05 0.00321101 0)
(-2.02866e-05 0.00329652 -1.44691e-18)
(-2.2577e-05 0.00338015 8.67537e-18)
(-2.2532e-05 0.00346286 -1.15627e-17)
(-2.22489e-05 0.00354496 4.2589e-23)
(-2.14704e-05 0.00362663 1.1577e-17)
(-2.30918e-05 0.00370771 0)
(-2.40109e-05 0.00378825 1.15913e-17)
(-2.27695e-05 0.00386822 -2.27449e-23)
(-2.09733e-05 0.00394847 -5.81782e-18)
(-0.000163618 0.00170514 -1.37032e-16)
(-1.99396e-05 0.00402857 -5.82144e-18)
(-7.53569e-05 0.00166325 1.39764e-16)
(-4.10264e-05 0.00173042 -1.06046e-22)
(7.50711e-06 0.00403624 -5.85743e-18)
(1.11201e-05 0.00395522 7.31301e-18)
(9.86642e-06 0.003873 0)
(9.04833e-06 0.00379081 -2.18794e-18)
(7.91338e-06 0.00370904 5.09603e-18)
(7.4368e-06 0.00362724 5.82312e-18)
(5.85722e-06 0.00354504 -5.82206e-18)
(4.36732e-06 0.00346095 0)
(5.36218e-06 0.00337707 -1.45403e-18)
(4.94648e-06 0.00329416 2.91543e-18)
(3.57074e-06 0.00321068 9.93096e-24)
(2.77243e-06 0.00312723 -2.91563e-18)
(3.30048e-07 0.00304409 0)
(-3.02278e-06 0.00296128 4.37354e-18)
(-1.40093e-05 0.00287893 -1.74095e-17)
(-1.68773e-05 0.00279701 -1.16442e-17)
(1.84855e-05 0.00271876 4.7297e-17)
(2.53811e-05 0.00263713 1.75342e-16)
(1.03804e-05 0.00252733 1.32278e-17)
(-2.9329e-05 0.00241901 1.25768e-16)
(-6.16616e-05 0.00232074 -5.68516e-17)
(-9.41146e-05 0.00224017 0)
(-0.000105327 0.00215038 0)
(-0.00010247 0.00206031 0)
(-9.23936e-05 0.00197403 1.88158e-16)
(-7.43278e-05 0.00188947 -2.18529e-16)
(-5.32164e-05 0.00179676 2.22625e-16)
(2.87495e-05 0.000911838 -4.00673e-16)
(-2.49931e-05 0.00111939 0)
(-3.23715e-05 0.0011538 0)
(-2.55845e-05 0.00116257 0)
(-0.000132833 0.00172096 3.20669e-16)
(6.17126e-05 0.00181909 9.07187e-17)
(7.14123e-06 0.00191821 -6.58577e-23)
(4.14547e-06 0.00200782 -1.5423e-18)
(5.25807e-06 0.00209772 1.53359e-18)
(4.52964e-06 0.00218544 1.21609e-17)
(1.87011e-06 0.00227344 -2.40396e-17)
(2.98581e-06 0.00236372 3.39986e-23)
(-1.05979e-05 0.00246239 0)
(-2.82324e-05 0.00256004 5.31447e-17)
(-3.60987e-05 0.00265787 3.4898e-17)
(-3.23406e-05 0.00276109 -5.78467e-18)
(-2.68108e-05 0.00285763 5.78211e-18)
(-2.36388e-05 0.00294791 0)
(-2.12669e-05 0.00303604 0)
(-2.08937e-05 0.00312351 -7.25122e-19)
(-2.07875e-05 0.00320936 0)
(-1.90939e-05 0.00329474 4.34828e-18)
(-1.77319e-05 0.00337934 -1.04289e-23)
(-1.72054e-05 0.00346233 -2.89993e-18)
(-1.68807e-05 0.00354447 0)
(-1.74629e-05 0.00362634 -2.90015e-18)
(-1.73148e-05 0.00370794 4.3549e-18)
(-1.65599e-05 0.0037883 -7.26603e-18)
(-1.76439e-05 0.00386772 0)
(-1.89394e-05 0.00394694 -1.16324e-17)
(-1.87817e-05 0.00402677 2.91309e-18)
(-1.84489e-05 0.00410663 -2.37053e-23)
(-1.71915e-05 0.00410902 0)
(-6.4787e-06 0.00411454 -1.4595e-18)
(7.48034e-06 0.00411808 -4.7524e-18)
(-1.12344e-05 0.000824107 4.35447e-16)
(7.52408e-06 0.00411655 3.66501e-19)
(4.58533e-05 0.00076223 -1.25588e-15)
(-9.32156e-06 0.000822886 -2.89032e-16)
(-3.16782e-05 0.00159529 0)
(-6.84102e-05 0.000771574 4.16385e-16)
(-8.30871e-05 0.000856872 -8.71038e-16)
(1.59458e-05 0.00154531 5.72008e-17)
(-3.53822e-05 0.00168977 -3.36652e-16)
(-1.55268e-05 0.00418698 -2.92425e-18)
(-1.21837e-05 0.00419054 -2.92339e-18)
(-3.06062e-06 0.00419659 -3.65762e-19)
(7.78389e-06 0.00419733 5.85277e-18)
(6.9938e-06 0.00419687 3.66973e-19)
(6.14851e-06 0.00419671 0)
(7.51381e-06 0.00411726 2.94019e-18)
(8.71978e-06 0.0040364 5.87624e-18)
(8.79456e-06 0.00395496 -1.46767e-18)
(9.25124e-06 0.00387334 -5.8664e-18)
(8.67375e-06 0.00379176 -6.58869e-18)
(8.36289e-06 0.00370984 8.78279e-18)
(7.96493e-06 0.00362798 2.92856e-18)
(7.7003e-06 0.00354566 -5.86264e-18)
(8.13039e-06 0.00346237 4.39501e-18)
(5.91699e-06 0.00337888 -1.28118e-18)
(5.03701e-06 0.00329517 0)
(5.689e-06 0.00321172 0)
(5.27462e-06 0.00312871 0)
(5.72537e-06 0.00304647 5.87347e-18)
(6.32129e-06 0.00296544 -2.94178e-18)
(1.0863e-05 0.00288408 5.45813e-25)
(1.92982e-05 0.00279897 -2.37207e-17)
(3.34667e-05 0.00270705 0)
(4.2261e-05 0.00261838 -2.49219e-17)
(5.19805e-05 0.00253197 2.57701e-17)
(4.18062e-05 0.00244572 5.30332e-17)
(7.96115e-07 0.00235439 2.70529e-17)
(-3.2253e-05 0.00225348 1.07917e-16)
(-5.29114e-05 0.00215037 -1.06808e-16)
(-6.2491e-05 0.00204837 0)
(-5.97114e-05 0.00194911 2.64685e-17)
(-4.74331e-05 0.00185297 -5.31987e-17)
(-3.29725e-05 0.00175656 -1.07812e-16)
(-4.1847e-05 0.00144542 5.16908e-17)
(3.14724e-05 -0.00017565 0)
(-7.82433e-05 0.000883845 -2.43372e-23)
(-3.31467e-05 0.000873871 5.53721e-16)
(-6.18935e-05 0.0010678 -1.18252e-16)
(-2.6536e-05 0.00120881 1.34535e-16)
(-2.19024e-05 0.0013376 -2.56048e-17)
(-3.01755e-05 0.00145948 5.00341e-17)
(-4.07458e-05 0.00157696 -2.44899e-17)
(-2.65459e-05 0.00169454 0)
(-9.3982e-06 0.0018017 -2.37168e-17)
(1.41825e-05 0.0019033 -2.40636e-17)
(1.38556e-05 0.00200204 0)
(1.35534e-05 0.00209628 0)
(1.15501e-05 0.00218821 1.50889e-18)
(6.51116e-06 0.00227958 -1.34954e-17)
(-4.23837e-06 0.00237463 0)
(-1.22738e-05 0.00247292 0)
(-1.30658e-05 0.00256674 -1.77405e-17)
(-2.05106e-05 0.00266057 -1.17243e-17)
(-2.13102e-05 0.00275825 2.33463e-17)
(-1.75314e-05 0.00285398 5.82985e-18)
(-1.41291e-05 0.00294537 1.45695e-18)
(-1.40159e-05 0.00303446 5.82547e-18)
(-1.24804e-05 0.00312218 -6.55795e-18)
(-1.22628e-05 0.00320834 0)
(-1.20794e-05 0.00329391 -2.91243e-18)
(-1.14433e-05 0.00337837 0)
(-1.0617e-05 0.00346142 0)
(-1.05567e-05 0.00354398 0)
(-1.08184e-05 0.00362675 -1.1652e-17)
(-1.08371e-05 0.003708 0)
(-1.08062e-05 0.00378799 -6.54877e-18)
(-1.1232e-05 0.00386803 1.09166e-18)
(-1.18941e-05 0.00394747 2.2935e-17)
(-1.18686e-05 0.00402609 0)
(-1.09289e-05 0.00410469 -1.16569e-17)
(-8.75511e-06 0.00418348 1.82069e-19)
(6.8203e-05 -0.00274342 0)
(4.41907e-05 0.000686671 6.82977e-16)
(2.30412e-05 -0.000496447 1.09362e-15)
(-8.53246e-05 0.00142909 0)
(-0.000208477 -0.00119827 -3.29813e-16)
(0.000133761 0.000670966 1.43027e-15)
(-1.56118e-05 0.00157505 -9.658e-22)
(-8.00213e-05 0.00143665 1.08607e-16)
(7.10517e-06 0.00419625 -3.69295e-19)
(7.52399e-06 0.00411628 -2.95025e-18)
(9.05381e-06 0.00403615 2.94873e-18)
(8.79452e-06 0.00395535 0)
(7.85726e-06 0.00387413 0)
(7.78279e-06 0.00379268 3.67836e-19)
(7.31057e-06 0.00371116 -1.47084e-18)
(5.66671e-06 0.00362908 -5.14302e-18)
(6.15449e-06 0.00354636 3.67266e-19)
(5.68438e-06 0.00346319 -7.57636e-19)
(5.05364e-06 0.00337961 -9.01991e-19)
(4.60626e-06 0.00329579 4.0464e-18)
(4.47914e-06 0.00321187 3.68311e-19)
(6.20967e-06 0.00312787 -2.94784e-18)
(9.37297e-06 0.00304414 0)
(1.44951e-05 0.00296006 1.18188e-17)
(2.37346e-05 0.00287481 3.85554e-23)
(3.53795e-05 0.00278603 5.98058e-17)
(4.77986e-05 0.00269507 -4.841e-17)
(5.43122e-05 0.00260961 0)
(6.17933e-05 0.00252995 5.06758e-17)
(6.11003e-05 0.00245261 -1.55327e-16)
(5.65905e-05 0.00236921 7.87713e-17)
(4.03365e-05 0.00226998 1.04784e-16)
(1.54336e-05 0.00215905 5.58462e-22)
(-3.04466e-06 0.00204302 -1.03857e-16)
(-1.38003e-05 0.00193079 1.03853e-16)
(-1.72621e-05 0.00182509 1.04339e-16)
(-5.38497e-06 0.00172083 -1.04286e-16)
(-2.31304e-05 0.00165284 -2.13931e-16)
(-1.27478e-05 0.000670944 -3.2725e-22)
(0.000135654 0.000877088 -1.3946e-21)
(0.000153253 0.000933259 -9.77192e-17)
(5.8203e-05 0.00107204 -1.29374e-17)
(1.53513e-05 0.00121118 -3.8332e-17)
(-7.7113e-07 0.00134627 -1.25214e-17)
(-8.6979e-06 0.00146804 0)
(-1.25288e-05 0.00158108 2.43108e-17)
(-1.14811e-05 0.0016881 -1.20136e-17)
(-4.29371e-06 0.00179267 -1.19679e-17)
(3.16748e-06 0.00189718 6.01178e-18)
(8.69841e-06 0.0019984 6.0294e-18)
(1.12387e-05 0.00209464 1.20558e-17)
(1.11336e-05 0.00218965 0)
(9.06876e-06 0.00228482 1.19659e-17)
(3.43393e-06 0.00238187 -1.1743e-17)
(-1.19084e-06 0.00247894 -1.85889e-19)
(-5.23928e-06 0.002572 -3.55301e-17)
(-9.95579e-06 0.00266392 2.94601e-18)
(-1.15857e-05 0.00275773 -1.46715e-17)
(-1.08104e-05 0.002851 0)
(-8.90432e-06 0.00294306 -4.74964e-18)
(-8.2729e-06 0.003033 3.65269e-19)
(-6.45729e-06 0.00312084 6.57947e-18)
(-5.4104e-06 0.00320776 0)
(-5.0179e-06 0.00329335 0)
(-4.48951e-06 0.00337753 -1.8274e-19)
(-3.95605e-06 0.00346098 -5.66011e-18)
(-5.09323e-06 0.00354467 5.84836e-18)
(-5.25177e-06 0.00362688 7.30734e-18)
(-4.65356e-06 0.00370749 -1.45904e-18)
(-4.9046e-06 0.00378819 4.37733e-18)
(-5.25435e-06 0.00386877 -1.46056e-18)
(-4.18232e-06 0.00394775 -1.16846e-17)
(-4.95179e-06 0.00402602 1.16731e-17)
(-4.85851e-06 0.00410394 2.62626e-17)
(-5.33048e-06 0.00418208 1.16617e-17)
(-4.28628e-06 0.00426139 0)
(-5.16532e-06 0.00426295 -6.01464e-18)
(-1.21809e-05 0.00426889 1.23554e-23)
(-7.49454e-06 0.00427263 6.59301e-18)
(-6.26942e-07 0.00427632 2.19646e-18)
(6.3319e-06 0.00427699 -2.93236e-18)
(7.19916e-06 0.00427694 5.87663e-18)
(6.73747e-06 0.00427651 -5.87916e-18)
(4.68737e-06 0.00427604 -2.94962e-18)
(-2.00916e-05 -0.000691305 -4.06796e-16)
(-0.000238578 -0.00184828 -9.34612e-17)
(0.000900301 -0.00159562 -1.62805e-16)
(5.03356e-05 0.000751819 -6.94031e-16)
(5.32377e-05 0.000321619 -3.43459e-16)
(-0.000144086 -0.00277806 9.86131e-17)
(1.04841e-05 0.00161684 0)
(-3.23485e-05 0.00154992 4.28178e-16)
(-2.60098e-06 0.000697861 1.01074e-15)
(3.35341e-05 0.000661582 4.14378e-16)
(0.000101361 0.000293983 -4.1655e-16)
(-7.29664e-05 0.000973917 8.91398e-16)
(6.04556e-05 0.000940054 0)
(5.10826e-05 0.00109567 1.27083e-17)
(2.5999e-05 0.00123055 -3.13639e-18)
(1.2011e-05 0.00135709 -5.87033e-17)
(3.73752e-06 0.00147538 1.22068e-17)
(-8.12286e-07 0.00158605 0)
(-3.36879e-06 0.00169072 2.30915e-24)
(-4.79036e-06 0.00179289 -2.99645e-18)
(-3.31044e-06 0.0018946 0)
(1.05934e-06 0.0019947 -6.00322e-18)
(3.63494e-06 0.00209278 -6.00172e-18)
(5.73088e-06 0.00219004 0)
(4.96942e-06 0.00228773 1.49241e-18)
(2.27682e-06 0.00238576 -1.48979e-18)
(-2.19948e-07 0.00248208 1.48751e-18)
(-1.74327e-06 0.0025749 2.22315e-17)
(-4.48679e-06 0.00266593 0)
(-6.13077e-06 0.00275747 2.9457e-18)
(-5.15579e-06 0.00284955 -1.47056e-18)
(-4.461e-06 0.00294146 3.67627e-19)
(-2.65121e-06 0.00303183 1.10307e-18)
(-2.49177e-06 0.00312035 -6.61741e-18)
(-1.58235e-06 0.00320724 0)
(-1.25013e-06 0.00329265 1.46858e-18)
(-1.99161e-07 0.00337732 2.93422e-18)
(-7.57831e-07 0.00346182 2.93754e-18)
(-1.30651e-07 0.0035449 -1.41251e-25)
(5.38475e-07 0.00362652 -1.46473e-18)
(2.82606e-07 0.00370794 -4.39218e-18)
(-6.96112e-07 0.0037891 -2.93069e-18)
(-3.63274e-07 0.00386883 -2.92824e-18)
(-1.18939e-06 0.00394777 0)
(-6.42192e-07 0.00402632 -1.17073e-17)
(3.7025e-07 0.00410397 -1.16965e-17)
(-4.00711e-07 0.00418168 -8.75882e-18)
(-4.537e-07 0.00426 -1.60509e-17)
(4.33085e-07 0.00434458 7.29926e-18)
(-1.47288e-06 0.0043466 -5.83942e-18)
(-2.19227e-06 0.00434966 0)
(-4.35432e-06 0.00435372 2.93168e-18)
(-7.28278e-06 0.00435932 2.93608e-18)
(8.38553e-07 0.00436254 -5.86582e-18)
(7.31315e-06 0.00436263 5.88065e-18)
(6.557e-06 0.00436243 -1.27367e-23)
(5.4839e-06 0.00436188 -2.94426e-18)
(4.13238e-06 0.00436134 8.84297e-18)
(3.36248e-06 0.00436076 -8.88608e-18)
(4.13301e-06 0.00427539 1.4811e-18)
(3.7376e-06 0.00419574 -1.10921e-18)
(4.81001e-06 0.00411636 2.21787e-18)
(3.6971e-06 0.00403588 -7.37543e-18)
(5.82882e-06 0.00395517 2.76804e-18)
(6.77989e-06 0.00387443 0)
(6.44461e-06 0.00379317 3.69319e-19)
(6.09367e-06 0.0037119 5.17103e-18)
(5.98279e-06 0.00362969 -7.38089e-19)
(4.64558e-06 0.00354675 1.84371e-18)
(4.12156e-06 0.00346378 2.70603e-24)
(3.68924e-06 0.00338012 7.43913e-19)
(3.80733e-06 0.00329562 -3.69223e-19)
(3.9673e-06 0.00321048 2.58525e-18)
(6.13948e-06 0.00312502 -8.86779e-18)
(8.50292e-06 0.003039 -3.95637e-23)
(1.57401e-05 0.00295195 5.9337e-18)
(2.52449e-05 0.00286335 -5.95709e-18)
(3.73605e-05 0.00277299 -4.79545e-17)
(4.61788e-05 0.00268304 4.83569e-17)
(5.21551e-05 0.00259838 0)
(6.00965e-05 0.00251955 -9.98258e-17)
(6.69882e-05 0.00244484 7.55321e-17)
(7.59424e-05 0.00236483 -7.67193e-17)
(7.49428e-05 0.00227396 0)
(6.80747e-05 0.00216789 0)
(5.26253e-05 0.00204867 0)
(3.55058e-05 0.00192657 -1.27072e-17)
(3.01199e-05 0.00180606 -2.38093e-23)
(2.86608e-05 0.00169127 2.02437e-16)
(-3.30218e-05 0.000664196 -4.5485e-16)
(2.02369e-05 0.00151574 2.14387e-16)
(-9.32911e-05 0.00145782 -2.01886e-16)
(-2.59319e-05 0.00131697 2.56245e-17)
(1.23352e-05 0.000714798 4.86197e-16)
(7.95109e-05 0.000686504 4.15064e-16)
(8.31351e-05 0.000719252 1.14232e-21)
(0.000106348 0.000728474 -4.32453e-16)
(7.36787e-05 0.000783926 -3.01243e-16)
(0.000164803 0.000828346 -2.99684e-16)
(7.80815e-05 0.000836236 1.08271e-16)
(3.34704e-05 0.000967118 -2.51236e-17)
(1.69621e-05 0.00111508 -4.95968e-17)
(1.04957e-05 0.00124352 0)
(3.45516e-06 0.00136677 4.89771e-17)
(-1.27733e-06 0.001483 0)
(-4.26407e-06 0.00159206 0)
(-6.60563e-06 0.00169543 1.20076e-17)
(-8.46464e-06 0.00179542 2.99636e-18)
(-8.20116e-06 0.00189442 0)
(-5.86006e-06 0.00199296 5.98942e-18)
(-3.14442e-06 0.00209119 -3.29419e-23)
(-1.89475e-06 0.00218953 -1.69021e-23)
(-1.75405e-06 0.00228823 5.96559e-18)
(-1.8921e-06 0.00238651 6.70846e-18)
(-6.1882e-07 0.00248275 -6.69537e-18)
(1.95417e-07 0.00257587 -1.22462e-17)
(-6.46875e-07 0.002667 3.70352e-19)
(-1.39044e-06 0.00275838 -2.22007e-18)
(-3.34383e-06 0.00285028 7.38907e-19)
(-3.92075e-06 0.00294156 2.95445e-18)
(-3.50474e-06 0.00303128 -2.21543e-18)
(-2.75486e-06 0.00311949 2.95262e-18)
(-2.30262e-06 0.0032064 -1.02436e-23)
(-6.43581e-07 0.0032921 -7.36745e-18)
(2.24163e-07 0.00337716 2.95027e-18)
(7.75134e-07 0.00346128 2.9478e-18)
(1.15595e-06 0.0035443 -4.40873e-18)
(2.11628e-06 0.00362684 5.87645e-18)
(2.16462e-06 0.00370884 5.88335e-18)
(2.22915e-06 0.00378937 0)
(2.12296e-06 0.00386911 1.76299e-17)
(2.09365e-06 0.00394809 2.93643e-18)
(3.4658e-06 0.00402575 2.92883e-18)
(3.47519e-06 0.004104 0)
(3.92745e-06 0.00418201 0)
(4.78689e-06 0.00425961 8.76671e-18)
(5.35665e-06 0.0043432 -2.47667e-23)
(5.19598e-06 0.00449374 -1.45941e-18)
(3.22325e-06 0.00449647 1.46017e-18)
(3.42636e-06 0.00449845 0)
(-2.13788e-06 0.00450281 0)
(-1.9282e-07 0.00450501 -1.46499e-18)
(3.94088e-07 0.00451086 4.39607e-18)
(2.0488e-06 0.00451496 0)
(4.97488e-06 0.00451471 -2.94399e-18)
(5.58588e-06 0.00451465 -2.94342e-18)
(5.03695e-06 0.00451464 5.89269e-18)
(2.74452e-06 0.00451426 -2.95061e-18)
(3.04473e-06 0.00451476 8.88109e-18)
(4.23705e-06 0.00451561 1.48479e-18)
(4.1159e-06 0.00436091 1.4853e-18)
(4.48703e-06 0.00427495 2.9703e-18)
(4.96891e-06 0.00419521 0)
(5.34618e-06 0.00411566 -1.11289e-18)
(6.81305e-06 0.00403575 -2.78176e-19)
(5.45565e-06 0.00395548 1.66865e-18)
(5.27067e-06 0.00387472 -3.70665e-19)
(4.7641e-06 0.00379368 -7.40977e-19)
(3.8044e-06 0.00371184 -5.92033e-18)
(4.46164e-06 0.00362963 1.48042e-18)
(4.49803e-06 0.0035472 -3.70236e-18)
(3.69227e-06 0.00346403 1.84998e-18)
(3.40979e-06 0.0033801 -7.39811e-19)
(3.96505e-06 0.00329534 0)
(4.01506e-06 0.00320944 0)
(4.50867e-06 0.00312243 0)
(7.96439e-06 0.00303396 -2.96695e-18)
(1.21966e-05 0.0029443 0)
(1.73781e-05 0.0028536 -3.78882e-23)
(2.44412e-05 0.00276231 2.39431e-17)
(3.1777e-05 0.00267274 -1.20541e-17)
(3.79844e-05 0.00258772 2.43566e-17)
(4.63561e-05 0.00250895 7.40695e-17)
(5.06674e-05 0.00243127 7.2679e-23)
(6.19148e-05 0.00235065 -2.50561e-17)
(7.76433e-05 0.00226374 -5.00013e-17)
(8.38993e-05 0.00216521 9.9234e-17)
(8.4986e-05 0.00205466 -4.98227e-17)
(7.47992e-05 0.00192979 -2.58756e-24)
(6.01542e-05 0.00179724 2.48016e-17)
(5.10378e-05 0.00167063 2.1845e-22)
(3.07913e-05 0.00158322 -3.08489e-16)
(7.02865e-06 0.000661636 -4.67794e-16)
(-2.1647e-05 0.000611908 8.82478e-16)
(-0.00136515 -0.00297241 0)
(4.73951e-05 0.00147856 -2.10267e-16)
(0.000141907 0.000716568 7.75262e-16)
(0.000123305 0.000748666 -4.13372e-16)
(0.000103734 0.000696573 -7.90939e-16)
(8.76878e-05 0.00139031 -6.75079e-17)
(-1.86765e-05 0.00108047 -6.42732e-17)
(2.23757e-05 0.00129119 -2.5622e-17)
(5.22295e-05 0.00140849 5.18163e-22)
(3.9798e-05 0.000655336 -4.76407e-16)
(8.37334e-05 0.000611687 3.97274e-16)
(7.54894e-06 0.00527071 -1.46114e-18)
(7.68411e-06 0.00527221 -1.4604e-18)
(6.08802e-06 0.00527386 0)
(2.29434e-06 0.00527768 -1.4649e-18)
(1.8376e-06 0.00528241 1.46721e-18)
(3.45201e-06 0.00528624 -1.4661e-18)
(3.39645e-06 0.00529157 1.46818e-18)
(3.20418e-06 0.00529365 2.94231e-18)
(4.42217e-06 0.00529636 -2.94501e-18)
(2.80705e-06 0.00529844 5.89462e-18)
(1.5568e-06 0.00530211 -8.86207e-18)
(2.39784e-06 0.0053057 0)
(1.8009e-06 0.00530872 -4.51909e-23)
(3.71985e-06 0.00530967 0)
(4.62531e-06 0.00451552 -8.91672e-18)
(5.05196e-06 0.00436121 2.97572e-18)
(4.48162e-06 0.0042754 0)
(5.09751e-06 0.00419544 0)
(4.43401e-06 0.00411555 7.43602e-19)
(4.32281e-06 0.00403563 -9.29515e-20)
(4.69225e-06 0.00395525 0)
(4.09504e-06 0.00387452 -3.71642e-19)
(4.40891e-06 0.00379344 3.71482e-19)
(4.27786e-06 0.00371187 1.48445e-18)
(3.49746e-06 0.00362979 7.41452e-19)
(3.49454e-06 0.00354726 1.48348e-18)
(3.73088e-06 0.00346403 1.07693e-23)
(3.57904e-06 0.00337988 -2.96663e-18)
(3.15686e-06 0.00329491 7.42008e-19)
(3.69855e-06 0.00320867 2.96882e-18)
(4.59412e-06 0.00312083 7.42272e-19)
(5.20197e-06 0.00303143 -1.48556e-18)
(6.16044e-06 0.00294015 2.9744e-18)
(9.49076e-06 0.00284763 -8.93798e-18)
(1.28193e-05 0.00275547 -1.19511e-17)
(1.63167e-05 0.00266549 6.00293e-18)
(2.09725e-05 0.00257961 -1.20971e-17)
(2.61066e-05 0.00249843 0)
(3.94804e-05 0.00241939 -3.68783e-17)
(4.91642e-05 0.00233572 7.45237e-17)
(5.43475e-05 0.00224738 0)
(6.19266e-05 0.00214989 0)
(7.1577e-05 0.00204299 0)
(8.30224e-05 0.00192756 1.83154e-17)
(8.01777e-05 0.00179984 -2.82227e-24)
(7.00061e-05 0.00166382 -2.46858e-22)
(5.19912e-05 0.00155348 -1.98534e-16)
(-4.96971e-05 0.000795635 -4.6709e-16)
(3.27953e-05 0.000612597 1.19609e-21)
(8.77044e-05 0.00103842 3.87226e-16)
(-0.000315208 -0.00173595 0)
(-4.11397e-05 0.000970399 -2.36437e-17)
(-2.44779e-05 0.00111138 0)
(-2.18458e-05 0.00124712 0)
(-2.11842e-05 0.00137237 1.21186e-17)
(-2.06216e-05 0.00148785 -2.41528e-17)
(-1.87008e-05 0.00159538 0)
(-1.77459e-05 0.00169773 1.20212e-17)
(-1.58135e-05 0.00179666 0)
(-1.40788e-05 0.00189455 -2.99273e-18)
(-1.21828e-05 0.00199229 2.99117e-18)
(-1.04289e-05 0.00209034 -1.49492e-17)
(-8.91154e-06 0.00218871 1.63075e-23)
(-7.01129e-06 0.00228724 -5.96493e-18)
(-4.79289e-06 0.0023853 1.19269e-17)
(-3.28594e-06 0.00248177 8.92763e-18)
(-2.53887e-06 0.00257593 -8.92361e-18)
(-3.37964e-06 0.00266823 0)
(-4.58297e-06 0.00275995 -9.46328e-24)
(-5.19179e-06 0.00285137 -4.44834e-18)
(-5.32909e-06 0.00294176 0)
(-4.85996e-06 0.00303089 0)
(-4.04253e-06 0.00311882 1.48132e-18)
(-2.76828e-06 0.00320562 4.44102e-18)
(-1.92932e-06 0.00329143 -2.95895e-18)
(-1.99637e-06 0.00337648 2.95289e-18)
(-2.5294e-07 0.00346049 -5.90028e-18)
(1.96208e-06 0.00354374 -1.47607e-18)
(2.27071e-06 0.00362643 -1.18052e-17)
(3.01455e-06 0.00370849 5.89687e-18)
(4.16325e-06 0.0037896 0)
(3.94328e-06 0.00386928 -1.17841e-17)
(5.82073e-06 0.00394748 -5.87856e-18)
(4.78676e-06 0.00402583 0)
(4.72125e-06 0.00410417 5.87819e-18)
(6.59544e-06 0.00418173 4.81785e-23)
(6.99521e-06 0.00425946 8.78894e-18)
(6.79778e-06 0.0043431 8.77602e-18)
(7.83258e-06 0.00449364 0)
(8.50248e-06 0.00527011 -2.92345e-18)
(-1.1361e-05 0.000531169 -4.34791e-16)
(2.16785e-05 0.000571999 -8.9368e-16)
(0.000135851 -0.0024793 1.34365e-16)
(9.59779e-05 0.00125005 -1.86885e-16)
(6.59597e-05 0.000472718 8.06046e-16)
(5.0104e-05 0.00137737 -3.7153e-22)
(-1.44751e-06 0.00531117 1.48642e-18)
(9.94569e-07 0.00451497 7.43576e-18)
(2.17793e-06 0.00436092 -5.95363e-18)
(2.46633e-06 0.00427518 0)
(2.62735e-06 0.0041953 0)
(3.51444e-06 0.00411574 0)
(3.14314e-06 0.00403547 0)
(2.99014e-06 0.00395523 1.48841e-18)
(3.01062e-06 0.00387452 -7.4384e-19)
(2.96656e-06 0.00379338 3.71909e-19)
(3.30798e-06 0.00371184 -2.23073e-18)
(3.55052e-06 0.00362969 1.4862e-18)
(3.29444e-06 0.00354706 7.42775e-19)
(3.47987e-06 0.00346377 -1.11439e-18)
(3.71016e-06 0.00337958 0)
(4.08526e-06 0.00329442 2.58263e-24)
(4.40722e-06 0.00320808 -7.42874e-19)
(3.96577e-06 0.00312021 7.43397e-19)
(4.39384e-06 0.00303053 1.48717e-18)
(4.35114e-06 0.00293909 -1.67372e-18)
(3.54926e-06 0.00284616 1.67494e-18)
(3.67976e-06 0.00275311 -4.47506e-18)
(4.00589e-06 0.00266206 -8.97759e-18)
(5.36524e-06 0.00257473 6.01346e-18)
(9.13069e-06 0.00249166 0)
(1.13072e-05 0.00240758 4.76747e-26)
(2.30943e-05 0.00232289 -3.68016e-17)
(3.77746e-05 0.00223545 3.05686e-17)
(5.02466e-05 0.00213828 -6.11992e-18)
(5.21889e-05 0.00203264 0)
(4.91318e-05 0.00191982 -6.04044e-18)
(5.51647e-05 0.00179713 8.33786e-17)
(7.30359e-05 0.0016638 -4.62969e-17)
(5.11933e-05 0.00153585 1.87802e-16)
(-5.82125e-05 0.000807462 9.56318e-16)
(6.43411e-05 0.000520554 1.28613e-21)
(1.26091e-05 0.0106022 -7.31384e-19)
(1.47115e-05 0.0105996 4.39027e-18)
(1.34446e-05 0.0105911 7.30713e-19)
(9.14351e-06 0.0105894 0)
(4.97708e-06 0.0105991 -1.46556e-18)
(5.88759e-06 0.0106061 1.46606e-18)
(-1.93165e-07 0.0106136 -2.20312e-18)
(-8.70057e-07 0.0106235 -5.1425e-18)
(-3.95979e-08 0.0106424 5.8838e-18)
(-1.83452e-06 0.0106545 0)
(-5.01359e-06 0.0106727 -2.94884e-18)
(-1.64851e-06 0.010694 8.85734e-18)
(-7.53578e-06 0.0107106 -5.91471e-18)
(-8.26437e-06 0.0107292 -2.96149e-18)
(-1.32377e-06 0.0107435 4.4438e-18)
(-6.49158e-06 0.0107582 -5.93567e-18)
(-4.83205e-05 0.000752983 9.05607e-16)
(8.16011e-05 0.000473414 -3.68218e-16)
(0.000111334 0.000608058 3.75391e-16)
(0.000128843 0.000686316 7.52063e-16)
(0.000131609 0.000720893 3.56941e-16)
(-7.31647e-05 0.00105633 -1.33515e-21)
(-7.83868e-05 0.00109688 2.75159e-16)
(-0.000189749 0.000553979 0)
(8.95694e-05 0.00120011 0)
(-2.10699e-06 0.00100073 0)
(-5.29506e-05 0.00112874 5.99621e-18)
(-6.18784e-05 0.00125216 -1.20735e-17)
(-5.53322e-05 0.00137143 5.44584e-23)
(-4.5854e-05 0.00148487 3.62057e-17)
(-3.74879e-05 0.00159232 -2.41002e-17)
(-3.02123e-05 0.00169523 2.78564e-23)
(-2.43746e-05 0.00179467 1.19858e-17)
(-2.04194e-05 0.00189319 -2.09492e-17)
(-1.76431e-05 0.00199133 2.99048e-18)
(-1.554e-05 0.00208958 1.19546e-17)
(-1.39863e-05 0.00218798 -2.98698e-18)
(-1.29026e-05 0.00228629 2.98494e-18)
(-1.15933e-05 0.00238402 -8.95032e-18)
(-1.01417e-05 0.00248056 2.97852e-18)
(-8.68228e-06 0.00257546 8.92604e-18)
(-7.35262e-06 0.00266868 -5.94858e-18)
(-7.33419e-06 0.00276077 5.94654e-18)
(-7.36122e-06 0.00285186 2.22944e-18)
(-7.08272e-06 0.00294177 5.20106e-18)
(-6.44805e-06 0.00303053 -6.68577e-18)
(-5.53625e-06 0.00311821 4.45581e-18)
(-4.456e-06 0.00320488 -8.16565e-18)
(-3.49738e-06 0.00329065 -5.9353e-18)
(-1.89115e-06 0.0033756 5.931e-18)
(-1.15935e-06 0.00345971 2.96082e-18)
(-1.32481e-07 0.00354294 -2.95925e-18)
(8.52584e-07 0.00362559 0)
(2.6161e-06 0.00370752 -5.91158e-18)
(3.66746e-06 0.00378879 2.95319e-18)
(5.56042e-06 0.00386855 -5.8941e-18)
(5.684e-06 0.00394772 -8.84193e-18)
(6.21752e-06 0.00402631 -5.89345e-18)
(7.21531e-06 0.00410346 -1.17554e-17)
(7.90242e-06 0.0041809 2.93333e-18)
(8.14758e-06 0.00425942 -2.93436e-18)
(8.75241e-06 0.00434334 -5.86723e-18)
(9.90445e-06 0.00449395 0)
(1.15109e-05 0.00527284 0)
(2.2006e-05 0.0106171 0)
(0.000226751 -0.00232657 0)
(5.23457e-05 0.00145104 -8.80116e-22)
(-2.71057e-05 0.00132374 1.01262e-15)
(-2.29171e-05 0.000449694 4.31488e-16)
(5.77965e-05 0.000480986 4.43692e-16)
(2.68911e-05 0.000456372 8.73035e-16)
(-6.58582e-05 0.00100265 -4.68408e-16)
(0.000239487 -0.00239174 -1.15076e-16)
(0.000168126 -0.0027244 0)
(-1.7608e-05 0.00112072 -5.32872e-16)
(4.78551e-06 0.00129468 -2.175e-16)
(0.000132403 0.00151458 -8.31111e-17)
(-8.41895e-05 0.00107603 -1.39883e-15)
(-6.07712e-05 -0.000842934 4.24756e-16)
(-6.50674e-05 0.0010357 3.80871e-16)
(-9.67638e-05 -0.00234152 -6.19962e-17)
(-1.05373e-05 0.0107654 -2.96948e-18)
(-4.69867e-07 0.00531136 -7.42434e-19)
(3.5241e-07 0.0045147 -2.23104e-18)
(4.33579e-08 0.00436049 2.02699e-26)
(1.36176e-06 0.00427488 0)
(1.26465e-06 0.00419488 0)
(1.76974e-06 0.00411533 0)
(2.10124e-06 0.00403554 -3.72385e-19)
(2.52432e-06 0.00395501 -4.65174e-19)
(3.19864e-06 0.00387435 4.65019e-19)
(3.01157e-06 0.00379323 -3.72035e-19)
(3.44374e-06 0.00371165 9.29811e-19)
(3.17601e-06 0.00362954 -1.1162e-18)
(3.43191e-06 0.00354679 0)
(3.69276e-06 0.00346337 0)
(4.27549e-06 0.00337916 0)
(4.49869e-06 0.00329397 0)
(4.93453e-06 0.00320763 0)
(5.65578e-06 0.00311998 0)
(5.0902e-06 0.00303077 -3.71979e-19)
(4.55266e-06 0.00293983 1.48827e-18)
(3.36e-06 0.00284739 0)
(2.97971e-07 0.00275438 -3.72627e-18)
(-2.40733e-06 0.00266242 6.71886e-18)
(-3.94913e-06 0.00257301 5.98834e-18)
(-2.87823e-06 0.00248654 0)
(4.88195e-06 0.00240105 1.81677e-17)
(8.93716e-06 0.00231441 -1.82276e-17)
(1.3532e-05 0.00222423 -6.04806e-18)
(2.38616e-05 0.0021285 1.21383e-17)
(3.42517e-05 0.00202578 -1.81405e-17)
(4.6019e-05 0.00191375 9.0053e-18)
(4.65512e-05 0.00179323 -2.36649e-17)
(1.77473e-05 0.00166419 5.82421e-18)
(-7.75638e-05 0.00150956 1.79589e-16)
(-3.51789e-05 0.000838627 5.08378e-16)
(-5.17668e-06 -0.000283944 6.83643e-16)
(-4.68027e-05 -0.000506755 3.32488e-16)
(6.14114e-05 0.041864 0)
(2.15995e-05 0.0418097 1.87212e-22)
(4.76467e-05 0.0417759 -1.46371e-18)
(2.88336e-05 0.0417157 -7.31732e-19)
(8.54821e-06 0.0417326 -1.8323e-19)
(9.92077e-06 0.0417334 1.83239e-19)
(-2.47262e-06 0.0417354 0)
(-1.67754e-05 0.0417964 0)
(-1.29118e-05 0.0418757 2.20532e-18)
(-2.30289e-05 0.0419152 -5.88268e-18)
(-3.02583e-05 0.041998 7.36273e-18)
(-3.05323e-05 0.0420967 0)
(-2.38597e-05 0.0421655 -5.89824e-18)
(-5.6671e-05 0.0422628 5.90787e-18)
(-3.57618e-05 0.0423792 1.4782e-18)
(-3.21961e-05 0.0424553 1.47961e-18)
(-4.30336e-05 0.0425169 0)
(-3.7737e-05 0.0426063 0)
(-4.89523e-05 0.00105378 0)
(5.70327e-05 0.000237705 3.54061e-16)
(8.49022e-05 0.000433774 0)
(8.88752e-05 0.000574586 -7.39585e-16)
(7.19565e-05 0.000650608 3.7278e-16)
(6.96352e-05 0.000665969 6.75957e-16)
(-0.000297606 -0.00143954 -1.03933e-16)
(6.70525e-05 6.51027e-05 4.13469e-16)
(-7.86275e-05 0.000957007 1.25796e-17)
(-9.395e-05 0.00103845 -9.77185e-17)
(-9.89623e-05 0.00113704 4.25237e-17)
(-9.38171e-05 0.0012447 -4.84964e-17)
(-8.09029e-05 0.00135861 -2.11722e-17)
(-6.52423e-05 0.00147233 3.02003e-17)
(-5.09031e-05 0.00158209 6.02484e-18)
(-3.88689e-05 0.00168756 -3.00438e-17)
(-3.08999e-05 0.0017898 1.79931e-17)
(-2.54912e-05 0.00189017 0)
(-2.16854e-05 0.00198954 -1.49548e-17)