/*--------------------------------*- C++ -*----------------------------------*\
| =========                 |                                                 |
| \\      /  F ield         | OpenFOAM: The Open Source CFD Toolbox           |
|  \\    /   O peration     | Version:  2212                                  |
|   \\  /    A nd           | Website:  www.openfoam.com                      |
|    \\/     M anipulation  |                                                 |
\*---------------------------------------------------------------------------*/
FoamFile
{
    version     2.0;
    format      ascii;
    arch        "LSB;label=32;scalar=64";
    class       volScalarField;
    location    "0.073";
    object      epsilon;
}
// * * * * * * * * * * * * * * * * * * * * * * * * * * * * * * * * * * * * * //

dimensions      [0 2 -3 0 0 0 0];

internalField   nonuniform List<scalar> 
31661
(
1.08257e+06
91082.3
105765
96956.7
90213.3
102569
95155.7
89690.3
100201
93872.8
1.05257e+07
126472
3.31534e+07
260121
534655
652921
626973
804746
176472
617315
667097
663781
2.13262e+06
895767
99938.5
703121
3.34648e+06
1.41695e+06
124813
110051
816674
1.66534e+06
1.81403e+06
204536
322527
648436
387533
598422
726434
2.16869e+06
1.3535e+06
90012.5
340233
119254
121105
133876
121224
261700
371761
280217
1.05499e+06
479160
140481
270109
526728
151162
151572
145435
523134
153028
136624
140580
149409
77649.2
354818
1.52671e+06
5.70527e+06
463352
398047
338164
123261
261056
220409
185943
158002
135514
117901
104235
93841.5
85993.3
80174.8
75910.3
72839.1
70650.8
71629.5
74152.3
77665.7
82486.1
88956.7
97513
108626
122825
140739
162949
189859
222057
257551
294882
339923
390247
443035
493896
542937
614872
597241
668278
648993
714069
694834
751503
733784
780874
765700
803011
790795
819027
809704
830099
823338
837299
832651
841536
838545
843547
841806
843910
843082
843065
842881
841349
841608
839024
839574
836294
837023
833321
834153
830238
831120
827162
828056
824203
825084
821466
822322
819061
819883
817106
817893
815737
816485
815108
815824
815418
816114
816944
817629
820136
820815
825932
826612
836791
837470
860180
860826
920061
920408
1.09077e+06
1.09024e+06
1.56668e+06
1.56918e+06
1.54537e+06
1.08345e+06
918516
860305
837222
826348
820458
817165
815551
815166
815736
817063
818982
821356
824066
826999
830043
833087
836004
838652
840855
842393
842982
842251
839720
834764
826599
814263
796678
772693
741282
701739
653757
597387
534542
466448
397111
332671
277261
231434
194544
164739
140847
122034
107411
96253.5
69851.6
69129
87842.6
81618.9
77056.2
73740.2
71359.7
68115.2
68640.8
70217.1
71958
74428.9
77845.6
82477.2
88672.8
96781.8
107175
120246
136276
155595
178381
204607
234032
266180
300097
336883
376590
417944
460322
504320
552119
600380
646613
689011
726407
758055
783688
803554
818201
828422
835046
838836
840462
840490
839347
837390
834898
832097
829163
826254
823514
821076
819082
817678
817036
817368
818952
822236
828131
838996
861950
919657
1.08276e+06
1.53918e+06
2.59482e+06
2.66292e+06
2.6696e+06
2.61361e+06
2.50322e+06
1.50019e+06
1.0703e+06
916266
861087
838660
827757
821681
818195
816418
815910
816392
817655
819529
821869
824540
827419
830373
833266
835942
838211
839840
840533
839906
837471
832609
824566
812477
795388
772437
742982
706821
664307
616405
564323
509637
450794
393511
340443
292190
249286
212969
182200
156517
135491
118524
105221
94970.6
87212.2
69687.3
81399.1
77088.6
73933.7
69030.2
67858.5
68552
67476.5
68258
69896.9
71204.1
73118.2
75797
79466.3
84397.9
90895.1
99300.7
109953
123089
138934
157478
178560
201827
226806
252938
279596
306282
333688
362181
391972
423473
458022
496739
538306
581378
624474
665902
704225
737952
766363
789112
806488
819055
827550
832776
835464
836239
835636
834077
831903
829386
826748
824182
821866
819968
818659
818129
818602
820368
823866
829964
840845
863029
917213
1.06794e+06
1.48825e+06
2.47109e+06
3.95989e+06
4.14809e+06
4.25095e+06
4.26189e+06
4.18014e+06
4.01294e+06
3.77272e+06
2.34891e+06
1.43799e+06
1.05228e+06
913203
862231
840691
829737
823386
819606
817578
816872
817202
818347
820123
822362
824911
827614
830303
832790
834849
836204
836506
835314
832075
826113
816644
802818
783836
759078
728350
691987
650921
606593
560751
515007
470058
425069
382527
342674
305401
270037
237489
207802
181186
157725
137832
121452
108276
97821.3
89677.6
71659.1
83502.6
78876.9
67374.6
69034.6
67776
70055.8
67819.4
67090.7
68470
70051.5
71085.1
72612
74799.3
77845.8
81976.2
87468.2
94633.7
103790
115228
129145
145563
164324
185028
206967
229447
251666
273021
293102
311961
330414
349075
368676
390037
414395
442858
475318
511399
550424
591257
632355
671955
708383
740251
766824
787940
803844
815145
822603
827000
829075
829458
828670
827131
825188
823120
821172
819572
818531
818267
819028
821118
824967
831373
842282
863411
912829
1.04695e+06
1.41897e+06
2.3025e+06
3.698e+06
4.83994e+06
5.10057e+06
5.28591e+06
5.38707e+06
5.39845e+06
5.32005e+06
5.15729e+06
4.91917e+06
4.61572e+06
3.475e+06
2.16387e+06
1.36387e+06
1.03037e+06
908978
863059
842614
831596
824882
820702
818311
817294
817357
818262
819793
821760
823968
826202
828227
829761
830462
829904
827558
822780
814822
802868
786127
763953
736081
702776
664888
623897
581534
539612
499734
462852
428971
397424
368584
341526
315712
289631
263502
237440
211821
187364
165046
145399
128494
114384
102949
93972
75446.9
87009
67099.8
67509.8
72948.5
69366.8
68151
68969
67365.4
66888.9
68954.9
70442.5
71291.3
72533.9
74343.5
76911.2
80431
85161.8
91395.4
99443
109600
122116
137095
154449
173837
194645
216014
236993
256713
274580
290303
303875
315848
327005
338084
349820
363022
378626
397600
420399
447311
478420
513436
551591
591619
631851
670412
705716
736454
761852
781816
796720
807172
813987
817980
819878
820317
819819
818824
817689
816730
816235
816475
817727
820315
824661
831478
842427
862290
906131
1.02114e+06
1.33766e+06
2.1037e+06
3.38007e+06
4.51592e+06
4.98204e+06
5.25846e+06
5.48027e+06
5.63802e+06
5.72424e+06
5.73451e+06
5.66886e+06
5.5316e+06
5.32951e+06
5.07091e+06
4.25935e+06
3.13819e+06
1.96245e+06
1.28361e+06
1.00557e+06
903121
862712
843513
832438
825292
820602
817710
816222
815834
816275
817302
818671
820105
821305
821914
821504
819549
815417
808362
797591
782289
761796
735789
704378
668325
629050
588256
547844
509511
474493
443467
416545
393285
372947
355041
338474
322138
304977
286414
266062
244037
221063
198133
176087
155697
137615
122363
109733
81730.4
99500.6
4.76544e+06
91488.9
66999.6
77769.2
67421.5
71159.6
68024.9
68256.1
69906
68759.3
67107.3
66845.4
69612.1
71001.4
71696.1
72744.2
74263.5
76427
79433
83524
88970.3
96077.1
105156
116480
130214
146389
164776
184858
205849
226772
246586
264467
279849
292563
302767
310863
317521
323419
329187
335392
342650
351634
363055
377457
395375
417294
443539
474157
508778
546532
586064
625683
663552
697974
727771
752265
771417
785631
795611
802202
806221
808425
809456
809865
810108
810594
811680
813696
816995
821990
829306
840288
858743
896655
991803
1.25076e+06
1.89121e+06
3.0269e+06
4.14241e+06
4.66115e+06
4.7155e+06
4.99382e+06
5.23501e+06
5.42946e+06
5.56823e+06
5.6443e+06
5.65352e+06
5.59589e+06
5.47576e+06
5.29931e+06
5.07483e+06
4.8113e+06
4.42239e+06
3.86426e+06
2.78152e+06
1.75798e+06
1.20222e+06
978652
894941
860176
842341
831249
823630
818319
814764
812590
811474
811115
811209
811414
811341
810543
808483
804521
797917
787852
773494
754179
729498
699478
664859
626803
587000
547402
509721
475329
445013
419085
397467
379705
365172
353180
343042
333859
324759
314799
303242
289394
272920
253914
232971
210810
188559
167588
148568
131757
117617
106033
4.5151e+06
96763.2
85339.7
67035.7
74837.9
67462
69927.1
68033
67800.2
68717.2
67015.9
70586.2
69497.8
66922.4
4.59474e+06
4.85107e+06
5.07242e+06
5.2504e+06
5.37721e+06
5.4467e+06
5.45531e+06
5.40272e+06
5.29318e+06
5.13233e+06
4.92719e+06
4.68566e+06
4.41465e+06
4.19417e+06
4.05189e+06
3.44628e+06
2.42463e+06
1.56207e+06
1.12326e+06
949943
883642
854359
837989
826953
818856
812824
808408
805252
803009
801337
799816
797952
795190
790872
784240
774461
760681
742171
718467
689567
656047
619031
580144
541286
504128
470100
440094
414486
393315
376236
362737
352229
344132
337886
332923
328601
324338
319550
313490
305485
294906
281359
264722
245312
224178
202352
180669
160484
142261
126517
113336
89556.2
102692
4.12229e+06
70380.5
71699.6
72264.5
73148.1
74441.6
76287.3
78871.9
82414.5
87169.2
93438
101533
111753
124329
139361
156739
176088
196733
217754
238104
256774
272999
286355
296810
304636
310278
314289
317238
319641
321919
324518
327773
332115
338092
346151
356775
370505
387880
409365
435257
465558
499853
537222
576289
615315
652463
686140
715143
738926
757506
771357
781257
788067
792648
795771
798113
800242
802682
805857
810141
815954
823831
834811
851772
883798
959845
1.16376e+06
1.67985e+06
2.65972e+06
3.73453e+06
4.30613e+06
4.40745e+06
4.31126e+06
80669.1
67166.7
94385.2
84063.4
72720.7
67600.6
69099.5
68152.7
67547.7
68795.5
67055.4
69519.7
67081.7
71384.9
70334.9
3.81808e+06
3.85957e+06
3.66462e+06
3.02074e+06
2.08499e+06
1.38282e+06
1.04891e+06
919318
868404
844226
829384
818504
809932
803054
797494
792924
788997
785225
781001
775662
768430
758442
744819
726767
703771
675730
643155
607074
569104
530987
494388
460797
431156
405834
384929
368144
355014
345019
337606
332298
328632
326136
324443
323214
322036
320544
318250
314606
309023
300874
289651
275192
257754
237696
216251
194210
173030
153526
136172
121437
109426
72981.5
73721.5
74837.9
76422.7
78659.2
81753.2
85915.3
91431.8
98637.7
107833
119290
133178
149496
167994
188133
209095
229865
249388
266742
281310
292843
301447
307473
311405
313742
314970
315498
315668
315752
316041
316774
318131
320434
324089
329486
337022
347179
360490
377487
398623
424166
454092
487972
524851
563354
601715
638160
671101
699447
722717
741014
754909
765213
772842
778681
783533
788076
792948
798633
805504
814022
824970
840409
866909
925766
1.08047e+06
1.48122e+06
2.29869e+06
3.30861e+06
3.92852e+06
4.07898e+06
4.0101e+06
3.87626e+06
4.1595e+06
4.42603e+06
4.66686e+06
4.8741e+06
5.04019e+06
5.15829e+06
5.22295e+06
5.23109e+06
5.18251e+06
5.08065e+06
4.9308e+06
4.73942e+06
4.51314e+06
4.25916e+06
3.98539e+06
72529.1
3.69993e+06
87954.5
99867.4
71255
77174
67373.3
3.5666e+06
3.83729e+06
4.09662e+06
4.33722e+06
4.55124e+06
4.73209e+06
4.87322e+06
4.96896e+06
5.01449e+06
5.00662e+06
4.94563e+06
4.83442e+06
4.67772e+06
4.48175e+06
4.25335e+06
4.00032e+06
3.7315e+06
79914.8
71225.8
67812.2
72293.4
73846.5
74466.7
75424.1
76798.4
78753.1
81472.4
85141.8
90026.5
96419.7
104672
115072
127837
143052
160588
180042
200719
221678
241862
260267
276116
288974
298773
305748
310311
312952
314139
314281
313720
312723
311497
310221
309053
308178
307726
307804
308633
310509
313777
318805
325989
335800
348766
365399
386137
411244
440688
474010
510281
548081
585734
621465
653770
681648
704710
723164
737637
749006
758205
766128
773540
781144
789475
798857
809830
823841
845451
889728
1.00302e+06
1.303e+06
1.96086e+06
2.88158e+06
3.53966e+06
3.7419e+06
3.70159e+06
3.58559e+06
3.45545e+06
92453.4
83071.2
68548.1
68348.9
67465.3
68961.4
67187.7
69645.8
67309
70409.7
71259.6
73485.5
72227.1
75821.7
74547.2
3.29141e+06
3.40998e+06
3.50935e+06
3.51914e+06
3.27075e+06
2.6043e+06
1.776e+06
1.22528e+06
980195
886573
848553
828935
815610
804933
795823
787836
780711
774168
767661
760510
751958
741139
727140
709126
686496
659084
627272
592057
554905
517604
481720
448741
419499
394577
373976
357470
344603
334913
327815
322868
319668
317825
317007
316780
317114
317794
318516
319058
319122
318376
316361
312529
306335
297243
284909
269170
250423
229688
207925
186034
165255
146707
130569
117005
106204
3.43558e+06
86732
97579.7
236921
3.1745e+06
74613.1
67634.3
3.69207e+06
3.9375e+06
4.16509e+06
4.36783e+06
4.53884e+06
4.672e+06
4.76226e+06
4.80502e+06
4.79732e+06
4.73949e+06
4.63433e+06
4.48618e+06
4.30059e+06
4.08408e+06
3.84425e+06
3.58935e+06
3.32759e+06
76842.4
70193.9
68078.9
76329
75367.4
76190.9
77406.5
79125.1
81514.8
84778.7
89141.8
94861.1
102246
111643
123341
137458
153967
172590
192765
213655
234244
253488
270496
284673
295783
303924
309430
312753
314365
314695
314094
312847
311167
309220
307134
305014
302957
301058
299431
298194
297388
297142
297707
299334
302354
307119
314022
323530
336146
352375
372651
397230
426067
458716
494256
531320
568249
603362
635244
662987
686317
705505
721229
734360
745792
756305
766571
777199
788566
801495
819118
851767
932142
1.14893e+06
1.65919e+06
2.46995e+06
3.14975e+06
3.40528e+06
3.39372e+06
3.29612e+06
3.18085e+06
3.06742e+06
79409.5
68230.5
68603.9
90919.1
82374.7
67506.3
69195
67394.4
69850.9
67585.7
70576.6
71384
72287.4
74405.4
3.30636e+06
3.05828e+06
78242.1
77817.1
2.91525e+06
3.01845e+06
3.1225e+06
3.20111e+06
3.18009e+06
2.87953e+06
2.21286e+06
1.50698e+06
1.09097e+06
917146
851589
823793
807980
795977
785353
775378
765892
756670
747114
736553
724204
709188
690651
667944
640811
609550
575048
538696
502134
467053
434726
406138
381667
361533
345346
332778
323302
316454
311714
308756
307191
306651
306856
307712
308966
310587
312392
314245
316018
317519
318546
318816
317957
315514
310940
303651
293209
279401
262481
242745
221150
199272
177968
158125
140495
125554
113289
103487
76420.2
75443
85828.6
95783.9
150304
72779.4
67938.2
3.54985e+06
3.78271e+06
3.99863e+06
4.19073e+06
4.3525e+06
4.47863e+06
4.56385e+06
4.60412e+06
4.59653e+06
4.54156e+06
4.44186e+06
4.30132e+06
4.1251e+06
3.91965e+06
3.69214e+06
3.45024e+06
3.2019e+06
2.95511e+06
74606.9
69498.7
68386.7
90442.6
77088.2
78185.7
79713
81851
84791
88713.4
93872.3
100545
109040
119682
132741
148205
165908
185413
206000
226726
246552
264516
279889
292281
301647
308222
312406
314662
315429
315088
313943
312226
310115
307740
305201
302577
299935
297332
294825
292475
290347
288543
287134
286166
285787
286221
287704
290546
295105
301766
310982
323245
339048
358816
382792
410954
442865
477654
514004
550351
585086
616908
645007
669149
689623
707049
722162
735669
748159
760280
772841
787772
811899
867730
1.01975e+06
1.40181e+06
2.08988e+06
2.77037e+06
3.07919e+06
3.09513e+06
3.01752e+06
2.91709e+06
2.81747e+06
2.71769e+06
76711.2
68099.4
68904.1
79144.5
67644.6
69480.7
89821.8
81996.9
67655.2
70116.3
67901.1
70816.4
71589.8
72446
3.18206e+06
2.94534e+06
73392.6
74373.5
284799
75322
2.81165e+06
2.572e+06
2.66451e+06
2.75642e+06
2.84734e+06
2.9062e+06
2.85157e+06
2.50301e+06
1.85996e+06
1.282e+06
978804
859277
814450
794209
781147
769838
758783
747635
736023
723393
709159
692604
672973
649645
622337
591268
557242
521543
485739
451384
419798
391844
367994
348305
332546
320251
311015
304376
299850
297029
295584
295160
295583
296601
298059
299934
302113
304494
306978
309528
312032
314375
316466
318114
319105
319132
317775
314537
308916
300362
288501
273289
255015
234587
212837
191019
170183
151412
135045
121293
110167
101371
375927
85308.8
94498.7
802341
138669
71504.3
68273.3
3.41416e+06
3.63595e+06
3.84116e+06
4.02349e+06
4.17719e+06
4.29675e+06
4.37721e+06
4.41503e+06
4.40762e+06
4.35541e+06
4.26079e+06
4.12729e+06
3.95989e+06
3.76461e+06
3.54813e+06
3.31789e+06
3.08145e+06
2.84635e+06
2.61967e+06
73017.1
69073.1
68726.4
137987
93606.1
78904.4
80396.3
82385
85068.5
88653.4
93367.1
99458.9
107215
116936
128906
143346
160089
178809
198905
219527
239676
258356
274741
288306
298865
306541
311667
314675
316012
316077
315198
313633
311575
309168
306519
303707
300795
297832
294861
291921
289047
286277
283652
281217
279036
277189
275745
274750
274348
274749
276172
278901
283298
289760
298716
310650
326043
345292
368667
396156
427369
461492
497301
533322
568050
600234
629072
654273
675986
694636
710757
724927
737921
751378
770049
809036
913638
1.19144e+06
1.75534e+06
2.41507e+06
2.77491e+06
2.82247e+06
2.7625e+06
2.67426e+06
2.58601e+06
2.49681e+06
2.4079e+06
74770.9
68105.7
69239.5
76803.3
67854.5
69806.8
79170.3
67959.1
70429.1
89190.5
81933.9
68244.8
71111.3
71859.9
3.06547e+06
2.83908e+06
72680
73565.3
74477.3
75438.9
2.70954e+06
2.48009e+06
2.3447e+06
2.4275e+06
2.51005e+06
2.59025e+06
2.633e+06
2.53972e+06
2.15243e+06
1.55632e+06
1.10089e+06
886570
805993
775272
759839
748229
737010
724985
711503
696083
678219
657370
633084
605173
573885
539982
504684
469464
435792
404888
377595
354314
335094
319716
307766
298770
292284
287900
285179
283781
283412
283858
284894
286403
288349
290593
293092
295816
298623
301558
304529
307448
310304
313012
315489
317576
319101
319797
319326
317269
313091
306252
296320
283090
266621
247381
226295
204392
183112
163223
145310
130326
117894
107858
99939
77773.9
85173.1
93758.5
76550.7
2.26192e+06
70618.4
68633.5
3.28698e+06
3.49825e+06
3.69348e+06
3.86664e+06
4.01232e+06
4.12534e+06
4.2013e+06
4.23688e+06
4.22982e+06
4.18028e+06
4.09052e+06
3.96393e+06
3.80502e+06
3.61943e+06
3.41347e+06
3.19418e+06
2.9687e+06
2.74405e+06
2.52685e+06
2.3231e+06
71916.8
68863.3
69090.4
80070.3
80832.9
81560.7
83022.9
85480.6
88831.4
93227.5
98872.9
106038
115005
126048
139394
155173
173045
192514
212832
233062
252212
269397
283977
295639
304389
310476
314292
316272
316826
316306
314991
313094
310777
308156
305318
302331
299242
296093
292915
289738
286589
283493
280478
277571
274801
272199
269808
267683
265900
264535
263633
263306
263769
265233
267960
272282
278601
287361
299015
314042
332859
355714
382623
413275
446923
482428
518380
553296
585881
615211
640822
662676
681072
696666
710783
726776
754817
826444
1.02463e+06
1.47348e+06
2.09318e+06
2.49841e+06
2.5825e+06
2.53781e+06
2.45881e+06
2.37908e+06
2.29819e+06
2.21658e+06
2.13821e+06
73411.2
68219.1
69601.8
75145.4
68120.3
70163.9
79608.3
77134.8
68294.1
70778.3
79461.3
68611.3
71449.3
2.95654e+06
2.73998e+06
88992.3
82177
72181.2
72975
73823.1
74720
75695.1
2.6132e+06
2.39294e+06
2.18323e+06
2.06018e+06
2.13458e+06
2.20854e+06
2.28218e+06
2.35134e+06
2.37733e+06
2.24834e+06
1.83703e+06
1.3066e+06
959115
810464
756221
734345
721534
710113
697469
682544
664712
643518
618700
590261
558601
524569
489397
454525
421346
391010
364282
341517
322715
307660
295980
287185
280830
276504
273798
272366
271938
272313
273261
274690
276562
278780
281261
283934
286838
289810
292921
296105
299299
302480
305635
308735
311686
314432
316842
318771
320011
320268
319154
316215
310966
302906
291604
277001
259340
239297
218019
196446
175805
156937
140411
126661
115423
106353
99152.8
85383.4
76804.4
93510.5
77863.8
1.98901e+06
70055.6
69012.4
3.16793e+06
3.36905e+06
3.55441e+06
3.71848e+06
3.85634e+06
3.96318e+06
4.03495e+06
4.06848e+06
4.06163e+06
4.0147e+06
3.92974e+06
3.80989e+06
3.65926e+06
3.48307e+06
3.28733e+06
3.07854e+06
2.86341e+06
2.64849e+06
2.44001e+06
2.24365e+06
2.06466e+06
71184.9
68811.8
69473.8
83434.1
84871
86707
89448.9
93360
98611.7
105335
113729
124029
136464
151179
168176
186929
206787
226890
246278
264035
279442
292076
301826
308852
313489
316150
317246
317143
316139
314469
312308
309789
307007
304035
300926
297723
294459
291161
287851
284550
281279
278058
274907
271846
268894
266074
263412
260936
258689
256719
255109
253930
253246
253149
253807
255453
258327
262735
269054
277718
289208
303986
322446
344897
371373
401568
434797
469969
505675
540380
572672
601481
626242
646984
664505
681151
703846
754394
895034
1.24477e+06
1.81009e+06
2.25232e+06
2.3775e+06
2.34636e+06
2.27484e+06
2.20149e+06
2.12673e+06
2.05061e+06
1.97702e+06
1.90776e+06
72484.4
68412.2
69985.3
82385.9
79399.7
73972.3
68427.9
70545.6
75692.1
68654.5
71156.4
2.85442e+06
2.64731e+06
77684
68994.7
79999.1
71821.4
72543.2
89178.9
82710.1
73322.4
74156.8
75051.4
76031
2.52335e+06
2.31169e+06
2.10977e+06
1.92247e+06
1.81527e+06
1.87999e+06
1.94685e+06
2.01237e+06
2.07712e+06
2.13508e+06
2.14511e+06
1.98446e+06
1.56504e+06
1.10929e+06
849643
746867
709351
692121
679314
665676
649242
629134
604995
576899
545392
511478
476491
441908
409116
379208
352903
330515
312056
297254
285720
277030
270706
266304
263461
261864
261262
261421
262180
263433
265125
267195
269535
272113
274868
277815
280866
284008
287297
290575
293898
297247
300610
303925
307184
310306
313228
315897
318143
319803
320633
320329
318488
314620
308199
298826
286184
270387
251902
231526
210149
188941
169280
151716
136779
124195
113862
105487
98813.9
85897.4
78049.8
93599.5
77117.1
1.75434e+06
69743.1
69406.3
3.05609e+06
3.24734e+06
3.42312e+06
3.57833e+06
3.70863e+06
3.8095e+06
3.87703e+06
3.90843e+06
3.90182e+06
3.85748e+06
3.77728e+06
3.66398e+06
3.52146e+06
3.35446e+06
3.16865e+06
2.97003e+06
2.76478e+06
2.55911e+06
2.35885e+06
2.16952e+06
1.9961e+06
1.84319e+06
70745.5
68883.3
69871.9
86587
88548.7
91153.6
94559.1
99129.7
105179
112970
122655
134381
148234
164242
182234
201518
221320
240733
258840
274870
288310
298949
306853
312291
315642
317307
317657
317007
315607
313649
311278
308600
305696
302624
299431
296149
292810
289440
286053
282667
279299
275968
272689
269479
266351
263315
260391
257601
254966
252509
250261
248265
246581
245272
244417
244099
244417
245493
247518
250765
255508
262071
270858
282315
296920
315089
337095
362989
392477
424896
459177
493917
527542
558604
586069
609661
630476
652965
692114
794000
1.0644e+06
1.56908e+06
2.0397e+06
2.20638e+06
2.18847e+06
2.12485e+06
2.05699e+06
1.98709e+06
1.91469e+06
1.84392e+06
1.77704e+06
1.7146e+06
79362.2
71887.7
68666.6
70385.6
81688.2
85140.7
73192.2
68768.1
70946.5
2.7582e+06
2.56029e+06
74693.3
69033.6
69392.1
76423.9
71557.2
72220.7
78436.2
72938.9
80780.9
73714.6
89643.7
83494.7
74544.8
75443.1
76424.1
2.43962e+06
2.23616e+06
2.04166e+06
1.86062e+06
1.69761e+06
1.60947e+06
1.66634e+06
1.72615e+06
1.78686e+06
1.84533e+06
1.90207e+06
1.9491e+06
1.94514e+06
1.75575e+06
1.34141e+06
958249
765001
692183
663653
646916
631048
612444
589877
563150
532763
499765
465566
431701
399564
370238
344401
322381
304175
289522
278036
269251
262723
258037
254853
252908
251930
251708
252115
253070
254480
256265
258371
260721
263285
266023
268941
271970
275092
278351
281659
284995
288404
291865
295322
298792
302209
305543
308792
311884
314736
317231
319228
320538
320894
319945
317250
312383
304799
294225
280483
263777
244520
223948
202937
182833
164374
148207
134280
122497
112807
104992
98868
86697.9
77502.4
78333.1
94048.2
1.55627e+06
69615.7
69812.1
2.95038e+06
3.13209e+06
3.2985e+06
3.44531e+06
3.56816e+06
3.663e+06
3.72642e+06
3.75576e+06
3.7495e+06
3.70774e+06
3.63215e+06
3.52525e+06
3.39061e+06
3.23262e+06
3.05643e+06
2.86758e+06
2.6719e+06
2.47516e+06
2.28285e+06
2.10024e+06
1.93219e+06
1.7831e+06
1.65652e+06
79469.6
70524.3
69046.5
78691.5
79696.3
70282.5
81271.1
84124.7
88422.2
90334.2
92899.1
96292.8
100673
106226
113289
122174
133074
146105
161290
178443
197101
216476
235728
253972
270422
284488
295873
304560
310750
314772
317011
317834
317564
316466
314744
312554
310015
307214
304215
301069
297813
294482
291095
287674
284246
280813
277391
274001
270654
267366
264151
261018
257963
255013
252188
249499
246971
244626
242493
240606
239011
237765
236934
236593
236845
237794
239570
242315
246211
251537
258603
267704
279210
293553
311168
332343
357108
385216
416060
448679
481766
513841
543637
570742
597199
632706
710995
922129
1.36889e+06
1.86494e+06
2.07614e+06
2.07263e+06
2.01585e+06
1.95122e+06
1.88325e+06
1.81175e+06
1.74142e+06
1.67474e+06
1.61239e+06
1.55439e+06
71552
68967.4
70799.2
2.66706e+06
2.47807e+06
72719.1
69132.8
69428.1
74049.6
71363.1
71976.4
75578.3
69800.4
72642.1
77348.1
73361.7
79392.5
74138.3
81766.4
74974.4
90365.4
84500
75878.7
76862
2.36129e+06
2.16577e+06
1.97828e+06
1.80329e+06
1.64495e+06
1.50681e+06
1.39126e+06
1.43916e+06
1.4906e+06
1.54531e+06
1.6023e+06
1.65922e+06
1.71327e+06
1.76444e+06
1.80332e+06
1.78457e+06
1.56785e+06
1.16471e+06
843574
696803
641429
615460
595260
573493
548212
519406
487987
455332
422942
392155
363979
339067
317708
299924
285467
273912
264828
257828
252594
248832
246233
244593
243782
243664
244132
245094
246466
248182
250194
252446
254904
257544
260356
263297
266347
269517
272758
276057
279432
282883
286365
289891
293411
296902
300386
303839
307195
310389
313368
316058
318326
320017
320910
320711
319077
315537
309687
301067
289352
274689
257226
237960
217518
197375
178361
160967
145557
132342
121322
112205
104808
99017.3
87651.6
94498.5
91205.7
77934.4
99333.9
69631.2
97066.2
94225.4
79113.5
80018.5
81085.3
83469.3
87033.2
81097.5
83105.9
86088
81242.7
82970.3
85495.3
83013.7
81504.2
85172.4
80411.5
85063.5
83188.4
81853.4
70227.9
2.85e+06
3.02245e+06
3.18e+06
3.31858e+06
3.43417e+06
3.52321e+06
3.5826e+06
3.61008e+06
3.60406e+06
3.56482e+06
3.49365e+06
3.39297e+06
3.26597e+06
3.11668e+06
2.94982e+06
2.77049e+06
2.58408e+06
2.39597e+06
2.21138e+06
2.03534e+06
1.87252e+06
1.72712e+06
1.60251e+06
1.50054e+06
104189
111358
120116
130818
143494
158075
174680
193209
212948
232734
251935
269435
284758
297178
306740
313477
317822
320145
320904
320458
319119
317116
314634
311803
308712
305432
302051
298564
295012
291431
287870
284343
280820
277326
273900
270527
267252
264055
260930
257886
254972
252191
249555
247097
244831
242784
240991
239496
238340
237584
237297
237559
238455
240111
242644
246178
250856
256828
264355
273711
285182
299145
316024
336122
359447
385792
414665
445181
476114
506099
534052
560137
588477
635944
752649
1.02581e+06
1.41865e+06
1.66427e+06
1.69859e+06
1.66554e+06
1.61732e+06
1.56505e+06
1.50937e+06
1.45303e+06
1.39846e+06
1.34693e+06
1.29893e+06
70470.2
69280.6
70703
2.2875e+06
2.09972e+06
1.91908e+06
1.74985e+06
1.59601e+06
1.46087e+06
1.34678e+06
1.25444e+06
87777.2
88347.1
89246.6
90560.5
92382.7
94853.9
98143.4
102405
107825
114594
122916
133048
145207
159429
175592
193489
212403
231369
249574
266231
280735
292713
302068
308930
313583
316379
317677
317803
317026
315564
313584
311210
308538
305639
302568
299367
296071
292702
289289
285849
282386
278921
275475
272058
268681
265354
262091
258902
255808
252801
249877
247067
244399
241888
239552
237414
235504
233854
232506
231508
230918
230803
231246
232329
234168
236882
240592
245436
251527
259077
268379
279694
293392
309918
329629
352595
378688
407496
438227
469788
501136
532458
569060
634674
803296
1.19886e+06
1.72329e+06
1.99096e+06
2.00298e+06
1.94947e+06
1.88449e+06
1.8149e+06
1.74132e+06
1.6689e+06
1.6001e+06
1.53573e+06
1.47595e+06
1.42059e+06
71412.8
69303.8
69517
72475.5
71224.2
71792.5
73681.6
69834.4
2.5803e+06
2.40003e+06
72410.5
75057.7
70217.8
73081.2
76632.7
73808.1
78443
74588.7
80527.6
75432.5
82939.8
76346.3
85733.6
77335.1
89255.4
78410.6
79581.2
87467.5
85122.2
80861.9
90268.8
87372.4
69754.9
97139.2
92361.9
83469.1
82270.2
70651.7
104027
109136
117181
128094
140933
155571
171882
189608
208419
228023
247330
265062
280543
293570
303718
311229
316250
319226
320526
320539
319573
317870
315622
312971
310021
306861
303540
300096
296586
293046
289451
285858
282268
278725
275238
271789
268392
265079
261843
258717
255674
252705
249844
247137
244580
242192
240001
238026
236297
234848
233721
232957
232609
232734
233396
234665
236622
239339
242910
247438
253004
259653
267476
276701
287603
300566
316057
334461
355890
380265
407270
436223
466167
496434
528656
574017
672214
909748
1.29733e+06
1.57946e+06
1.63217e+06
1.60311e+06
1.5551e+06
1.50196e+06
1.44502e+06
1.38711e+06
1.33081e+06
1.27764e+06
1.22816e+06
1.18238e+06
2.7543e+06
2.91784e+06
3.06683e+06
3.19748e+06
3.30616e+06
3.38961e+06
3.44516e+06
3.47074e+06
3.46505e+06
3.42813e+06
3.36133e+06
3.26657e+06
3.14693e+06
3.00605e+06
2.84822e+06
2.67811e+06
2.50067e+06
2.32095e+06
2.14391e+06
1.97428e+06
1.81657e+06
1.67481e+06
1.55207e+06
1.45041e+06
1.36938e+06
70543.6
69567.6
90062.6
124711
69667.6
71424.4
71132
71658.3
90855.9
91753.7
93048.3
94825.6
97215.3
100384
104487
109716
116271
124327
134043
145548
158921
174154
191037
209158
227689
245707
262423
277183
289583
299469
306908
312128
315447
317208
317729
317286
316101
314348
312160
309641
306865
303891
300766
297527
294201
290817
287391
283928
280450
276979
273524
270097
266710
263371
260090
256880
253748
250719
247788
244940
242196
239597
237166
234913
232858
231030
229457
228176
227227
226654
226510
226852
227739
229238
231420
234352
238103
242775
248433
255105
262849
271864
282442
294978
309976
327880
348873
372977
400024
429619
461655
498795
556724
693270
1.03958e+06
1.59325e+06
1.94108e+06
1.97437e+06
1.92149e+06
1.85209e+06
1.77696e+06
1.69813e+06
1.62105e+06
1.54805e+06
1.47998e+06
1.41702e+06
1.35897e+06
1.30563e+06
72411.2
69916.3
2.21767e+06
2.03747e+06
1.8635e+06
1.69986e+06
1.55036e+06
1.41802e+06
1.30535e+06
1.21322e+06
1.1403e+06
2.49748e+06
2.32569e+06
87451.9
87544.6
85305.1
72232.4
73523.2
70250.6
72857.1
74780.2
70642.5
73534.6
76210.3
74268.3
77838.3
75059.3
79711.6
75915.2
81879.3
76838.5
84455.9
77836.2
87761.6
78918.3
102500
80089
81357.8
69961
93827.4
93949.2
69895.8
70714.1
71568.1
2.66278e+06
2.81769e+06
2.95845e+06
3.08153e+06
3.18362e+06
3.2618e+06
3.31365e+06
3.33739e+06
3.3319e+06
3.29738e+06
3.23466e+06
3.14557e+06
3.03299e+06
2.90025e+06
2.75111e+06
2.58988e+06
2.42113e+06
2.24957e+06
2.07987e+06
1.91642e+06
1.76363e+06
1.62559e+06
1.50515e+06
1.40416e+06
1.32233e+06
1.25683e+06
155080
94332.5
95723.5
97530.5
99923.4
103058
107085
112147
118460
126227
135601
146685
159508
174006
189978
207113
224995
242624
259166
273980
286621
296883
304775
310475
314264
316458
317364
317254
316353
314841
312857
310507
307872
305017
301986
298824
295558
292220
288831
285389
281918
278443
274974
271523
268101
264717
261381
258103
254891
251757
248710
245771
242937
240191
237553
235069
232766
230649
228742
227070
225663
224555
223783
223386
223407
223889
224875
226403
228506
231209
234531
238486
243083
248350
254340
261035
268430
276704
286238
297513
311078
327411
346880
369813
396699
429520
478498
586367
873729
1.43653e+06
1.89953e+06
1.97122e+06
1.91879e+06
1.8417e+06
1.75815e+06
1.67165e+06
1.58794e+06
1.50934e+06
1.43671e+06
1.37007e+06
1.30903e+06
1.25332e+06
1.20256e+06
71550.2
70052.6
106605
112013
118781
127354
138462
152293
168499
186397
205335
224637
243353
260736
276635
290177
300888
308886
314497
318009
319819
320265
319663
318271
316277
313842
311067