/*--------------------------------*- C++ -*----------------------------------*\
| =========                 |                                                 |
| \\      /  F ield         | OpenFOAM: The Open Source CFD Toolbox           |
|  \\    /   O peration     | Version:  2212                                  |
|   \\  /    A nd           | Website:  www.openfoam.com                      |
|    \\/     M anipulation  |                                                 |
\*---------------------------------------------------------------------------*/
FoamFile
{
    version     2.0;
    format      ascii;
    arch        "LSB;label=32;scalar=64";
    class       volVectorField;
    location    "0.000111";
    object      U;
}
// * * * * * * * * * * * * * * * * * * * * * * * * * * * * * * * * * * * * * //

dimensions      [0 1 -1 0 0 0 0];

internalField   nonuniform List<vector> 
23217
(
(3.28974e-12 -0.0238737 2.18191)
(6.36463e-12 -0.0256081 2.43799)
(2.27207e-12 -0.0127421 2.55436)
(2.34246e-12 -0.010659 2.6448)
(5.49777e-12 -0.00870125 2.70674)
(-9.56666e-12 -0.00690276 2.74063)
(3.98966e-13 -0.00463682 2.75815)
(-1.09185e-12 -0.00408405 2.77203)
(-3.52058e-12 -0.00230918 2.78909)
(1.79226e-12 -0.00241286 2.81927)
(8.60856e-12 0.000137391 2.86014)
(1.97799e-12 -0.000717638 2.91447)
(-6.71572e-12 -0.000707303 2.99674)
(6.83654e-12 -0.00128306 3.10769)
(-1.66611e-13 -0.00194463 3.24709)
(6.72924e-12 -0.00236584 3.41377)
(2.93197e-15 -0.00239542 3.60743)
(-5.53955e-14 -0.00299395 3.82542)
(-1.01124e-12 -0.00377294 4.06296)
(-7.60134e-12 -0.00472545 4.31166)
(-3.06574e-13 -0.00521574 4.55438)
(-4.09595e-12 -0.00585295 4.76278)
(-1.06051e-12 -0.00681042 4.92394)
(1.48781e-12 -0.00731762 5.05135)
(6.90266e-12 -0.00718672 5.15966)
(-2.64953e-13 -0.00794416 5.26163)
(-2.34844e-12 -0.00880322 5.32727)
(-1.09552e-11 -0.0090152 5.3171)
(-8.68745e-12 -0.0088492 5.24002)
(9.21819e-13 -0.00862839 5.10595)
(9.71488e-12 -0.00886273 4.91405)
(8.37973e-12 -0.00834395 4.66539)
(-8.88425e-12 -0.00756232 4.36569)
(5.88135e-12 -0.00695702 4.01902)
(-2.12979e-13 -0.00631679 3.63081)
(-4.90446e-12 -0.00614055 3.20881)
(-6.60307e-13 -0.00555475 2.76426)
(-1.23413e-11 -0.00478428 2.3155)
(-8.03782e-14 -0.00372372 1.88437)
(-2.22988e-13 -0.00301146 1.48366)
(-4.16592e-12 -0.00227753 1.12123)
(-1.1652e-12 -0.00165036 0.812361)
(-4.40086e-13 -0.00110473 0.568328)
(-3.59561e-13 -0.000765065 0.385096)
(-4.45249e-12 -0.000492494 0.252221)
(6.09649e-12 -0.000297337 0.160443)
(1.014e-11 -0.000183253 0.0998166)
(-2.07909e-12 -0.000110905 0.0605757)
(-9.3103e-14 -6.26373e-05 0.0357381)
(4.00529e-13 -3.39722e-05 0.0206103)
(-1.17263e-11 -1.86304e-05 0.0116943)
(4.18544e-13 -1.0469e-05 0.00650176)
(-1.02518e-13 -5.74286e-06 0.00353353)
(-6.11415e-12 -2.95894e-06 0.0018856)
(1.6784e-12 -1.5109e-06 0.000991748)
(9.29582e-15 -7.73177e-07 0.000514127)
(4.39746e-13 -4.22664e-07 0.000264032)
(-1.32196e-14 -1.9137e-07 0.000136597)
(-1.27714e-11 -9.28581e-08 7.20226e-05)
(3.12844e-12 -4.18955e-08 3.92567e-05)
(2.71725e-14 -1.86081e-08 2.32053e-05)
(-9.21337e-13 -5.21561e-09 1.59243e-05)
(9.86021e-13 -0.514372 2.19107)
(-4.5323e-12 -0.174243 2.06122)
(-1.36676e-10 -72.0585 225.115)
(3.172e-12 -51.614 163.325)
(-9.32954e-11 -43.5215 138.587)
(-2.59021e-11 -35.3406 111.992)
(1.03871e-10 -29.6483 94.0189)
(8.10216e-11 -25.2069 79.0254)
(-3.08886e-11 -21.61 67.6547)
(-1.76726e-11 -18.5547 57.9133)
(-9.74812e-12 -16.189 50.3512)
(-8.96319e-12 -14.1437 43.9102)
(5.81727e-14 -12.4586 38.5978)
(-4.5539e-12 -11.0799 34.1639)
(-1.86042e-12 -9.85575 30.3393)
(-6.1911e-12 -8.85577 27.1309)
(-4.91647e-12 -7.97318 24.3753)
(1.19813e-11 -7.23613 22.0425)
(-6.8614e-12 -6.56682 19.981)
(-1.20794e-11 -5.99288 18.1975)
(-1.59874e-12 -5.43921 16.5514)
(-8.50597e-12 -4.98728 15.1269)
(-8.9797e-12 -4.57442 13.8625)
(-4.06369e-12 -4.22479 12.735)
(4.13617e-12 -3.90827 11.7789)
(-6.9474e-12 -3.63078 10.9176)
(3.25679e-12 -3.38073 10.1582)
(-1.77446e-12 -3.16682 9.47344)
(2.18909e-12 -2.94681 8.86152)
(-2.39664e-12 -2.77217 8.29392)
(-2.49676e-12 -2.6074 7.79814)
(-3.45955e-12 -2.45682 7.33157)
(-4.15743e-12 -2.31646 6.91686)
(-5.37456e-12 -2.1941 6.53369)
(-3.11023e-13 -2.07887 6.19042)
(6.15547e-12 -1.97417 5.86534)
(7.68157e-12 -1.87407 5.5697)
(3.6889e-13 -1.77968 5.28724)
(7.71105e-12 -1.69151 5.02615)
(3.52116e-12 -1.61067 4.78116)
(2.36715e-12 -1.53784 4.55867)
(3.93073e-12 -1.47072 4.35537)
(-4.24603e-12 -1.40539 4.16426)
(2.70267e-12 -1.34277 3.97903)
(-2.52421e-12 -1.28331 3.80173)
(-6.31146e-12 -1.2258 3.63114)
(-1.02178e-12 -1.17023 3.46596)
(-1.76591e-12 -1.11459 3.30477)
(-2.22586e-13 -1.05961 3.14295)
(-3.06107e-12 -1.00861 2.98332)
(2.99457e-12 -0.954256 2.83193)
(2.21339e-12 -0.848954 2.61194)
(-8.73084e-11 14.5806 278.35)
(8.277e-09 37.0842 244.009)
(-2.77114e-08 60.9147 346.712)
(-9.38209e-09 57.9156 365.197)
(-6.39322e-10 55.2452 365.788)
(1.45984e-09 54.9145 359.019)
(1.54506e-09 54.9027 342.841)
(9.12378e-10 49.4391 320.924)
(2.08441e-10 47.1318 291.996)
(-6.81789e-11 33.5235 233.241)
(-4.80586e-11 28.5744 157.138)
(-2.43198e-11 2.29426 42.5746)
(-2.88146e-11 -3.1364 -12.4101)
(-2.30558e-13 -0.128967 -4.5075)
(1.9418e-12 0.784418 7.17372)
(-2.16066e-12 0.98232 6.81882)
(6.40406e-12 -0.371202 -0.716489)
(-1.20289e-11 -0.570946 -6.6392)
(5.16814e-12 -1.6974 -9.97696)
(-2.40838e-12 -1.56363 -5.0949)
(3.54133e-12 -0.931275 0.384127)
(-2.61287e-12 -1.07599 1.19533)
(1.46531e-11 -0.918983 1.07844)
(1.4588e-11 -1.17936 -2.20881)
(4.52234e-12 -2.27681 -10.8095)
(2.96728e-13 -3.53533 -19.673)
(1.60069e-13 -4.0538 -23.8334)
(-1.71007e-13 -5.00951 -28.2633)
(-3.73223e-13 -5.23235 -29.5116)
(-5.55515e-14 -4.18345 -23.2593)
(1.3234e-13 -2.0552 -11.037)
(1.32546e-13 -0.15243 0.144363)
(-1.44027e-13 1.48569 9.80921)
(-1.75458e-13 3.14539 18.9337)
(-2.89074e-13 4.40129 25.8563)
(-3.3819e-13 5.30431 31.2779)
(-6.39084e-13 6.10266 35.9291)
(-4.06947e-13 6.66642 39.2527)
(-1.9327e-13 6.86153 40.7954)
(-4.17852e-13 6.94099 41.352)
(-5.66503e-13 7.09348 42.1152)
(-9.4296e-13 7.24816 43.1001)
(-1.2372e-12 7.32556 43.6517)
(-1.17089e-12 7.34316 43.6869)
(-1.02517e-12 7.29602 43.4893)
(-6.17628e-13 7.2721 43.2917)
(-6.91943e-13 7.21803 43.0441)
(-6.90712e-13 7.19945 43.021)
(-9.64684e-13 7.20802 42.997)
(-9.35205e-13 7.1824 42.7489)
(-7.10566e-13 7.15217 42.5324)
(-6.35709e-13 7.10533 42.2744)
(-8.01005e-13 7.06965 42.0576)
(-1.05533e-12 7.02906 41.7977)
(-2.35527e-13 6.96186 41.5911)
(-1.34113e-12 6.92906 41.5753)
(4.24484e-13 6.96155 41.6303)
(-9.26824e-13 6.98747 41.8423)
(-1.32259e-12 7.12912 41.8227)
(9.98884e-14 7.03972 41.6389)
(-1.61176e-12 6.98752 41.4819)
(3.85562e-13 6.99275 41.4795)
(7.54849e-13 6.98396 41.4069)
(-3.82205e-12 6.97729 41.2792)
(5.5677e-13 6.91761 40.9218)
(4.87146e-12 6.86908 40.5861)
(1.38448e-11 6.79312 40.2208)
(-2.21878e-12 6.76789 40.0507)
(-2.39778e-12 6.7253 39.8868)
(-1.7433e-12 6.73423 39.8696)
(4.33192e-12 6.71663 39.781)
(-9.31603e-12 6.72288 39.7693)
(1.11132e-11 6.69523 39.6443)
(-9.161e-13 6.69309 39.5803)
(-1.77285e-12 6.65934 39.4313)
(-3.37171e-12 6.66319 39.387)
(2.81153e-12 6.637 39.2946)
(-1.82511e-12 6.64483 39.2902)
(-1.46336e-12 6.63113 39.2471)
(1.52015e-12 6.62943 39.2263)
(-3.20134e-14 6.61522 39.1705)
(-1.90941e-12 6.61225 39.1431)
(-1.40898e-13 6.61189 39.1508)
(2.4937e-12 6.62217 39.2087)
(-1.21067e-12 6.64615 39.3438)
(1.34188e-11 6.66843 39.4756)
(-1.42903e-11 6.70684 39.689)
(3.11248e-11 6.73347 39.861)
(-3.58713e-11 6.78117 40.1287)
(3.3413e-11 6.80917 40.3073)
(-1.75112e-11 6.86384 40.612)
(1.28781e-11 6.88629 40.7548)
(-1.14086e-11 6.9441 41.0708)
(4.75106e-12 6.96223 41.1891)
(-3.53326e-12 7.0143 41.467)
(5.60152e-12 7.03251 41.5738)
(-7.8231e-12 7.08804 41.8489)
(8.86458e-12 7.113 41.9939)
(-9.36098e-12 7.18052 42.3414)
(1.39927e-11 7.20696 42.5096)
(-1.60789e-11 7.28306 42.9061)
(1.90147e-11 7.30912 43.0795)
(-8.85127e-12 7.39282 43.4976)
(1.40566e-11 7.42264 43.692)
(6.92003e-13 7.51829 44.1672)
(1.40897e-11 7.5529 44.3953)
(-7.46349e-12 7.66628 44.9598)
(8.70017e-12 7.70923 45.2426)
(-8.81914e-12 7.84552 45.9278)
(1.71929e-11 7.90106 46.2871)
(-1.16459e-11 8.07425 47.1449)
(2.83942e-11 8.1728 47.7387)
(-3.34943e-11 8.44341 49.0482)
(4.99697e-11 8.67858 50.3101)
(-6.2442e-11 9.18842 52.8266)
(6.50133e-11 9.86324 56.3178)
(-1.56916e-11 10.9437 61.4781)
(1.31759e-11 13.0738 72.7519)
(-3.08898e-11 17.1824 85.5741)
(-1.2418e-10 33.7224 161.033)
(-2.59909e-09 35.2326 302.965)
(2.88924e-08 69.7276 338.869)
(-4.33557e-08 71.7644 406.912)
(-3.20098e-08 70.4759 427.936)
(-1.00236e-08 69.5053 448.906)
(1.01797e-09 70.3503 459.671)
(3.01137e-09 72.3313 467.239)
(2.6463e-09 70.4363 465.074)
(1.78857e-09 72.2655 459.299)
(8.51901e-10 64.6691 439.19)
(2.40746e-10 56.3221 400.488)
(3.10257e-10 25.5156 237.024)
(-2.99695e-10 -1.03845 38.9999)
(4.44102e-11 -1.34245 2.40807)
(8.52307e-13 2.12039 10.6736)
(-4.35498e-12 2.61264 9.75984)
(1.2938e-11 -1.40126 1.59701)
(-2.21134e-11 -1.5086 -4.24549)
(4.56492e-12 -2.03278 -6.96461)
(-5.07778e-12 -2.65689 -1.59998)
(7.38617e-12 -2.14679 2.56599)
(-1.10433e-11 -2.79956 1.07059)
(2.10199e-11 -1.78452 -0.687407)
(6.45667e-11 -0.991555 -4.37097)
(-1.67309e-11 -2.26648 -12.5393)
(1.54148e-14 -4.02674 -19.4783)
(-2.21067e-12 -4.4144 -18.7592)
(-2.46126e-12 -5.35548 -20.9982)
(-4.37001e-12 -4.89431 -16.0709)
(-1.70529e-12 -3.00022 -2.14646)
(-4.99176e-12 0.614574 16.9679)
(-3.57217e-12 4.33344 35.6802)
(-3.89394e-12 7.57828 52.2477)
(-2.69187e-12 10.8558 67.1801)
(-2.64316e-12 13.2024 77.7506)
(-1.99583e-12 14.6598 85.5991)
(-2.35311e-12 15.7567 92.2154)
(-2.09111e-12 16.627 96.7919)
(-1.78588e-12 16.8924 98.8699)
(-2.06686e-12 17.0243 99.9666)
(-1.96029e-12 17.25 101.053)
(-2.03782e-12 17.4643 102.23)
(-2.16792e-12 17.5156 102.85)
(-2.39268e-12 17.5411 102.877)
(-2.58992e-12 17.4564 102.52)
(-2.81276e-12 17.4086 102.078)
(-2.74982e-12 17.2454 101.504)
(-2.61943e-12 17.1754 101.311)
(-2.83867e-12 17.143 101.16)
(-2.48508e-12 17.1007 100.627)
(-1.74491e-12 17.0579 100.196)
(-2.30231e-12 16.9728 99.7857)
(-1.10306e-12 16.8979 99.4116)
(-3.10871e-12 16.8385 99.0208)
(8.4661e-13 16.6881 98.7603)
(-4.28747e-12 16.6134 98.7708)
(1.10791e-12 16.6745 98.943)
(1.53859e-12 16.6876 99.2754)
(-6.32363e-12 16.9848 99.3518)
(2.50237e-12 16.8605 99.1953)
(-5.48356e-12 16.7721 99.0681)
(4.50116e-13 16.787 99.094)
(1.48923e-11 16.7928 99.0873)
(-3.55093e-11 16.8086 98.9668)
(2.58718e-11 16.755 98.5627)
(4.3903e-11 16.6999 98.2023)
(-2.28987e-11 16.5952 97.8366)
(7.77333e-12 16.5637 97.7444)
(3.53876e-12 16.5237 97.7207)
(-2.53781e-11 16.5694 97.8252)
(1.70317e-11 16.5678 97.8756)
(-3.07951e-12 16.6167 98.0127)
(-1.78497e-11 16.5968 98.0259)
(1.7602e-11 16.6261 98.1371)
(5.21902e-12 16.6161 98.1726)
(-3.29641e-11 16.6701 98.3172)
(1.29208e-11 16.6674 98.4077)
(2.49637e-11 16.7265 98.6775)
(-3.45397e-11 16.7355 98.8669)
(3.51296e-12 16.7811 99.1649)
(1.87526e-11 16.8023 99.3833)
(1.87724e-12 16.855 99.6633)
(-3.99903e-11 16.9074 99.9911)
(4.45717e-11 16.962 100.343)
(-1.42645e-11 17.0485 100.853)
(4.00908e-11 17.1192 101.281)
(-6.71934e-11 17.2392 101.938)
(1.07478e-10 17.3214 102.423)
(-7.92322e-11 17.4508 103.189)
(4.44279e-11 17.5316 103.681)
(-1.84124e-11 17.6798 104.545)
(1.51204e-11 17.7532 104.987)
(6.80499e-12 17.9126 105.895)
(-1.57147e-11 17.9765 106.319)
(-3.42135e-11 18.1316 107.171)
(8.47728e-11 18.1933 107.572)
(-3.6349e-11 18.354 108.405)
(1.67902e-11 18.424 108.832)
(-2.76848e-11 18.5986 109.725)
(4.87712e-11 18.6677 110.173)
(-2.65579e-11 18.8554 111.125)
(3.87437e-11 18.9208 111.589)
(-3.70645e-11 19.1223 112.579)
(4.20575e-11 19.1917 113.066)
(1.72813e-11 19.4102 114.121)
(3.21208e-11 19.4857 114.649)
(-3.19859e-11 19.7322 115.818)
(3.01481e-12 19.8155 116.417)
(9.04602e-13 20.1022 117.749)
(4.75613e-11 20.1984 118.448)
(-3.5266e-11 20.5447 119.998)
(4.25873e-11 20.7142 120.958)
(-8.81895e-11 21.175 123.032)
(2.01613e-10 21.5513 124.718)
(-1.46195e-10 22.3791 128.1)
(4.76674e-11 23.2988 132.34)
(-3.24102e-13 25.1272 138.444)
(2.48294e-10 27.3148 149.953)
(-7.2807e-11 34.5224 164.877)
(-2.74228e-10 48.8377 213.071)
(-2.49719e-09 -81.2644 252.984)
(-8.03741e-10 -55.9588 169.373)
(-8.58896e-10 -43.2154 138.622)
(-1.26714e-09 -37.6425 115.355)
(2.07479e-09 -31.0501 98.2475)
(5.72061e-10 -26.7057 83.4135)
(-6.55501e-10 -23.6889 74.4989)
(-1.15382e-10 -20.1984 63.4372)
(1.10747e-10 -18.7369 57.9497)
(-1.25537e-10 -16.0255 50.1868)
(5.94928e-11 -15.1372 46.2217)
(-4.71956e-12 -13.1029 40.6677)
(6.35484e-11 -12.4019 37.7373)
(-8.38632e-11 -10.9067 33.5509)
(8.79692e-11 -10.3546 31.4024)
(-1.28463e-10 -9.21938 28.2325)
(8.73874e-11 -8.77372 26.6053)
(-6.98505e-11 -7.915 24.1271)
(3.83424e-11 -7.4119 22.6391)
(-5.7411e-11 -6.86502 20.7251)
(-1.26255e-11 -6.4007 19.5165)
(-2.01616e-11 -5.94859 17.9038)
(6.44544e-11 -5.57982 16.8998)
(-3.4119e-11 -5.20331 15.6541)
(1.9647e-11 -4.95559 14.9285)
(3.80159e-12 -4.6172 13.8938)
(6.74533e-12 -4.38716 13.1796)
(-3.05207e-12 -4.16189 12.4768)
(-2.27586e-12 -3.93056 11.8008)
(-1.54327e-13 -3.72352 11.1579)
(-1.64739e-12 -3.53757 10.5899)
(3.89633e-13 -3.36863 10.0721)
(-4.52939e-12 -3.2046 9.58551)
(-2.72548e-12 -3.05133 9.12124)
(7.44976e-12 -2.90293 8.68154)
(-2.35287e-12 -2.76599 8.26649)
(1.05903e-11 -2.63937 7.88115)
(1.25912e-11 -2.52164 7.52152)
(6.70054e-12 -2.41253 7.19085)
(7.22422e-12 -2.30992 6.8828)
(4.68203e-12 -2.21071 6.5872)
(8.69459e-12 -2.1148 6.30021)
(1.4053e-12 -2.02185 6.02427)
(-4.76606e-12 -1.93077 5.75677)
(-5.5247e-12 -1.8416 5.49586)
(-1.28276e-11 -1.75336 5.2401)
(-1.51099e-11 -1.66566 4.98834)
(-4.43551e-12 -1.56954 4.71587)
(1.16671e-11 -1.44911 4.38701)
(7.55378e-12 -1.26576 4.00138)
(7.10295e-12 -0.810003 3.63094)
(2.38637e-14 -0.290723 3.70445)
(6.63074e-12 -0.0759404 3.8788)
(7.33449e-12 -0.0569481 4.13014)
(8.19971e-12 -0.0298917 4.28618)
(3.3515e-12 -0.0179543 4.40168)
(3.59184e-12 -0.00927671 4.48018)
(-1.61758e-11 -0.0045478 4.51936)
(1.35498e-14 -0.00313674 4.53428)
(-3.94963e-12 -0.00281651 4.53538)
(-1.30232e-11 -0.00240821 4.5355)
(1.59686e-12 -0.00393674 4.54716)
(5.24295e-12 -0.00501799 4.5671)
(1.17988e-11 -0.0043417 4.5982)
(-3.30657e-12 -0.00366285 4.65376)
(-3.0916e-12 -0.00370711 4.73635)
(-5.67647e-12 -0.00373623 4.84365)
(-1.60036e-12 -0.00424761 4.97513)
(5.88812e-13 -0.00407238 5.13005)
(3.9698e-13 -0.00393532 5.30544)
(1.77457e-12 -0.00403185 5.49572)
(-1.80253e-12 -0.00297399 5.69092)
(-1.3893e-13 -0.00340825 5.87427)
(-1.59342e-11 -0.00364763 6.01995)
(-4.38044e-12 -0.00284197 6.11371)
(2.46186e-12 -0.00269974 6.16932)
(-2.19749e-12 -0.0034877 6.20273)
(-3.98382e-13 -0.00341792 6.22823)
(-5.57484e-12 -0.00282709 6.2147)
(-1.10495e-11 -0.00277777 6.12098)
(-3.80634e-12 -0.00334119 5.96036)
(9.80091e-13 -0.00357073 5.74537)
(4.78671e-12 -0.00274619 5.47408)
(3.66638e-12 -0.00279726 5.14811)
(-4.00975e-12 -0.00297197 4.77528)
(2.27414e-11 -0.0029034 4.3607)
(-1.04527e-12 -0.00262426 3.91031)
(-1.85113e-11 -0.00154416 3.43245)
(-1.85087e-12 -0.00156824 2.93864)
(-1.3806e-11 -0.00148398 2.44789)
(-4.57395e-13 -0.000868769 1.98225)
(-1.11303e-12 -0.000814861 1.55399)
(-1.46663e-11 -0.000421664 1.1702)
(-4.51565e-12 -0.000636454 0.845362)
(-2.0723e-12 -0.000333401 0.589981)
(-1.60006e-12 -0.000154127 0.398931)
(-1.60134e-11 -0.000169724 0.26081)
(2.27077e-11 -0.000141316 0.165643)
(6.57666e-12 -8.0767e-05 0.102909)
(-8.9471e-12 -4.98777e-05 0.0623764)
(-4.79664e-13 -3.31471e-05 0.0367604)
(1.93751e-12 -2.02134e-05 0.0211791)
(-1.29767e-11 -1.13019e-05 0.0120064)
(2.04299e-12 -5.59966e-06 0.00667)
(-4.98691e-13 -3.25674e-06 0.00362239)
(-2.27794e-11 -1.63072e-06 0.00193177)
(7.01633e-12 -1.01483e-06 0.00101543)
(3.51632e-14 -5.98541e-07 0.000526115)
(2.04968e-12 -3.50406e-07 0.000270057)
(4.47554e-14 -1.55484e-07 0.000139654)
(-1.29285e-11 -6.94195e-08 7.36026e-05)
(1.18565e-11 -2.17133e-08 4.01016e-05)
(1.29378e-13 -4.47692e-09 2.3695e-05)
(-3.77541e-12 9.58813e-10 1.62546e-05)
(1.53231e-11 -0.138215 4.21367)
(4.38389e-12 -0.119218 4.43379)
(1.04836e-11 -0.0677575 4.56486)
(-2.05829e-12 -0.0466016 4.68147)
(1.16246e-12 -0.0303129 4.74558)
(-2.62748e-11 -0.0194558 4.77258)
(1.98143e-12 -0.0117579 4.77872)
(-2.15089e-12 -0.00927239 4.76904)
(-6.88182e-12 -0.00492376 4.75767)
(-1.26874e-12 -0.00674302 4.75839)
(-3.08751e-12 -0.00217799 4.76829)
(5.79927e-12 -0.00329027 4.78861)
(9.09695e-13 -0.00219973 4.83246)
(-1.85277e-11 -0.00345449 4.90439)
(-1.68394e-11 -0.00441734 5.00044)
(-1.41282e-11 -0.00556278 5.12089)
(3.47344e-12 -0.00492317 5.26537)
(1.06352e-12 -0.00529602 5.43042)
(9.01105e-12 -0.00660914 5.61051)
(6.10088e-12 -0.0065333 5.79522)
(6.44231e-12 -0.00685509 5.9683)
(-9.03603e-12 -0.00743228 6.1046)
(-1.3331e-11 -0.00789009 6.18874)
(7.56177e-12 -0.00782223 6.23516)
(-1.61477e-11 -0.0075788 6.2602)
(-6.46058e-14 -0.00825804 6.2783)
(-1.26178e-11 -0.00833767 6.25724)
(-1.82676e-11 -0.00820926 6.15709)
(-2.63754e-13 -0.00847862 5.99062)
(1.974e-12 -0.00819643 5.77055)
(1.54934e-12 -0.00803101 5.49461)
(-4.07349e-13 -0.00763823 5.16443)
(-1.23051e-12 -0.0071436 4.78814)
(2.21065e-11 -0.00656951 4.37069)
(-1.23215e-12 -0.00568399 3.91799)
(-1.31714e-11 -0.00500413 3.43815)
(-5.64302e-12 -0.00482999 2.94267)
(1.09434e-11 -0.00432311 2.45073)
(-2.29736e-12 -0.00293637 1.9842)
(-3.98735e-12 -0.00250454 1.55529)
(-2.02954e-12 -0.00178893 1.17102)
(-1.06877e-11 -0.00149951 0.845868)
(-6.73518e-12 -0.000919617 0.590321)
(-4.69239e-12 -0.000562166 0.399128)
(-6.36129e-12 -0.000433567 0.260917)
(2.34658e-11 -0.000273027 0.165711)
(8.00932e-12 -0.000160062 0.102951)
(-2.52131e-11 -9.57515e-05 0.0623988)
(-1.80043e-12 -5.63345e-05 0.0367725)
(6.27362e-12 -2.97933e-05 0.021186)
(-2.46349e-11 -1.56693e-05 0.0120103)
(6.71817e-12 -8.43825e-06 0.00667211)
(-1.75708e-12 -4.8659e-06 0.00362343)
(-2.31646e-11 -2.24778e-06 0.00193229)
(1.89929e-11 -1.3389e-06 0.00101568)
(7.55573e-14 -7.66021e-07 0.000526255)
(6.53943e-12 -5.1542e-07 0.000270132)
(3.4882e-13 -1.7131e-07 0.000139693)
(-2.29613e-11 -7.13958e-08 7.36235e-05)
(1.13036e-11 -1.52079e-08 4.01126e-05)
(4.87712e-13 2.66607e-09 2.37007e-05)
(-9.82825e-12 4.64032e-09 1.62576e-05)
(-1.41646e-12 -0.861173 3.91288)
(8.01028e-12 -0.378744 3.99717)
(-1.06697e-08 -74.8268 252.884)
(-1.1762e-08 -52.7557 170.903)
(6.60018e-09 -36.7191 142.102)
(-5.2054e-09 -34.6119 116.048)
(2.50201e-09 -27.9562 100.654)
(7.64982e-10 -24.6446 84.1109)
(5.31183e-10 -22.0318 75.8082)
(-2.49284e-10 -18.7108 64.5284)
(-1.00175e-10 -17.7445 58.8463)
(-1.84794e-10 -14.9883 51.3672)
(1.68425e-10 -14.5218 47.0446)
(6.32548e-11 -12.4798 41.7183)
(5.44097e-11 -12.0388 38.5816)
(-1.16504e-10 -10.557 34.5464)
(1.45443e-10 -10.1829 32.3025)
(-1.67786e-10 -9.05879 29.1934)
(1.43418e-10 -8.71204 27.5339)
(-9.32001e-11 -7.80899 24.9797)
(6.04888e-11 -7.36673 23.5766)
(-5.39606e-11 -6.83911 21.526)
(8.18171e-12 -6.39448 20.3845)
(-1.13979e-11 -5.97912 18.6884)
(6.80762e-11 -5.66611 17.7933)
(-3.17372e-11 -5.30988 16.5003)
(3.68239e-11 -5.05007 15.6748)
(7.78642e-12 -4.74353 14.7228)
(2.65523e-11 -4.4872 13.8773)
(-6.75673e-12 -4.2618 13.1159)
(-1.04956e-11 -4.02453 12.444)
(1.47319e-11 -3.8287 11.7812)
(-1.63988e-11 -3.63648 11.1693)
(-4.3077e-12 -3.46852 10.613)
(-1.34893e-11 -3.29781 10.106)
(-1.39324e-11 -3.1458 9.61828)
(1.76361e-11 -2.99258 9.16455)
(-5.54117e-12 -2.85084 8.72079)
(2.17153e-11 -2.72241 8.31748)
(2.06697e-11 -2.60462 7.93693)
(1.01961e-11 -2.4966 7.59095)
(2.01309e-12 -2.39289 7.26927)
(-8.75891e-12 -2.28753 6.95847)
(1.34794e-11 -2.18618 6.65374)
(4.98916e-12 -2.08956 6.36303)
(-2.43976e-12 -1.99328 6.08053)
(5.93655e-12 -1.89896 5.80289)
(-2.83886e-12 -1.8018 5.52823)
(-2.6343e-11 -1.69739 5.24762)
(3.21183e-12 -1.58111 4.9588)
(1.01663e-11 -1.44709 4.64472)
(1.13191e-11 -1.25036 4.24404)
(-2.9545e-08 20.6886 316.914)
(3.87832e-08 61.5966 366.35)
(-5.02007e-08 69.1109 414.741)
(-5.2736e-08 66.2007 441.911)
(-2.85401e-08 63.0433 460.109)
(-4.6474e-09 62.4623 480.122)
(7.18785e-09 64.2041 488.579)
(4.73237e-09 64.2532 500.609)
(2.85402e-09 69.1188 502.711)
(1.19023e-09 65.3333 498.345)
(-8.82346e-10 59.8216 482.698)
(-2.95403e-09 41.0655 413.249)
(-4.08873e-09 -4.63087 162.195)
(1.44846e-09 -0.418963 38.5273)
(-3.3064e-11 2.02099 21.6709)
(-1.13252e-11 3.12633 17.4832)
(1.35563e-11 -0.0683355 9.19741)
(-1.16102e-11 0.919853 3.51999)
(-7.99154e-13 -0.327721 1.09113)
(-3.32815e-12 -3.43648 6.737)
(-5.40966e-13 -4.11424 9.25592)
(2.56261e-12 -5.02367 6.88655)
(-3.7298e-11 -3.24604 5.63012)
(1.20403e-10 -1.13585 2.42116)
(-8.87262e-12 -1.43497 -4.78334)
(-2.22436e-13 -1.92212 -10.4916)
(-6.56368e-12 -1.28595 -7.06574)
(-2.195e-13 -2.06033 -6.10238)
(-1.35145e-11 -0.614992 0.246574)
(1.21444e-11 1.19446 16.1312)
(-1.51498e-11 4.89955 37.1705)
(-5.82355e-12 9.28739 58.025)
(-5.91397e-12 13.0178 77.6861)
(-5.91924e-12 16.9054 95.7186)
(-6.63928e-12 19.5631 109.033)
(-5.53123e-12 20.9997 118.861)
(-5.79117e-12 22.0672 126.563)
(-5.50472e-12 22.7957 131.77)
(-5.08743e-12 22.8369 134.018)
(-4.56117e-12 22.8665 135.253)
(-4.39665e-12 23.0797 136.486)
(-3.68271e-12 23.272 137.791)
(-3.47646e-12 23.2394 138.552)
(-2.97614e-12 23.2347 138.653)
(-3.48064e-12 23.1655 138.302)
(-3.91146e-12 23.0792 137.732)
(-4.13187e-12 22.8961 137.085)
(-5.54418e-12 22.8016 136.804)
(-4.28362e-12 22.745 136.59)
(-6.22453e-12 22.7131 135.995)
(-2.74815e-12 22.673 135.431)
(-7.82993e-12 22.5793 134.985)
(3.25096e-12 22.5005 134.609)
(-1.47163e-11 22.4766 134.24)
(1.58791e-11 22.2986 134.032)
(-1.82094e-11 22.2247 134.085)
(-9.51458e-12 22.2922 134.378)
(4.92111e-11 22.3515 134.826)
(-4.6543e-11 22.6937 135.083)
(2.88483e-11 22.6743 135.124)
(-2.26257e-11 22.6068 135.196)
(-1.28792e-11 22.6456 135.417)
(7.75963e-11 22.7003 135.602)
(-6.12847e-11 22.7546 135.651)
(2.80817e-12 22.7477 135.474)
(1.62267e-10 22.7264 135.246)
(-1.70666e-10 22.6547 135.087)
(4.17976e-12 22.6689 135.183)
(2.12445e-10 22.6555 135.36)
(-2.82218e-10 22.7665 135.784)
(2.28525e-11 22.7981 136.009)
(2.38728e-10 22.9114 136.47)
(-2.42654e-10 22.9237 136.679)
(-7.25554e-12 23.0205 137.128)
(1.83618e-10 23.0405 137.366)
(-7.17565e-11 23.1663 137.846)
(-1.59113e-10 23.2051 138.184)
(2.40368e-10 23.3307 138.756)
(-1.56236e-12 23.3853 139.248)
(-1.88975e-10 23.4896 139.853)
(4.76746e-11 23.563 140.432)
(2.60169e-10 23.6777 141.029)
(-2.74354e-10 23.7901 141.744)
(9.799e-12 23.9094 142.384)
(1.22516e-10 24.0562 143.283)
(1.41579e-10 24.1904 144.002)
(-2.41043e-10 24.3679 145.038)
(9.05608e-13 24.5146 145.827)
(2.65431e-10 24.696 146.989)
(-1.49523e-10 24.8428 147.773)
(-3.09282e-11 25.0401 149.055)
(-8.90322e-11 25.1857 149.796)
(2.48412e-10 25.398 151.141)
(4.35834e-12 25.5323 151.874)
(-3.09754e-10 25.7438 153.199)
(1.89073e-10 25.882 153.896)
(1.98554e-10 26.1129 155.233)
(-1.03043e-10 26.2543 155.926)
(-8.94697e-11 26.4982 157.305)
(-2.63982e-12 26.6277 158.005)
(1.32221e-10 26.8857 159.434)
(1.27362e-10 27.0107 160.147)
(-1.17417e-10 27.2861 161.606)
(-1.17286e-10 27.4106 162.335)
(1.72162e-10 27.708 163.84)
(1.05185e-10 27.8314 164.6)
(1.5877e-11 28.1593 166.19)
(-1.6347e-10 28.2844 167.007)
(-8.32772e-11 28.651 168.73)
(1.14922e-10 28.7815 169.631)
(2.93103e-10 29.2117 171.524)
(-9.69857e-11 29.4134 172.663)
(-4.26469e-10 29.9621 174.791)
(3.19179e-10 30.4111 176.867)
(4.39599e-10 31.332 179.698)
(-3.47094e-10 32.2767 183.967)
(-2.95728e-10 34.2851 188.689)
(1.14085e-09 36.449 198.717)
(1.49782e-10 43.8527 209.759)
(6.52654e-11 56.3273 238.007)
(5.6532e-09 9.11544 324.207)
(8.53938e-08 70.1746 375.115)
(-4.77689e-08 72.4919 418.553)
(-6.44623e-08 67.5484 445.604)
(-4.46031e-08 65.5489 464.566)
(-1.54197e-08 61.9608 483.488)
(6.40432e-09 68.1182 495.661)
(7.88474e-09 63.9743 505.152)
(4.81151e-09 69.7745 516.653)
(2.27389e-09 68.1003 516.916)
(2.51685e-09 63.1963 511.516)
(4.65478e-09 47.5905 485.435)
(1.61055e-08 7.01701 390.047)
(3.32715e-09 -1.40772 151.247)
(-5.22988e-09 6.95877 59.54)
(-5.09202e-10 7.21866 28.8488)
(-5.94251e-12 -1.23749 17.8036)
(3.72533e-12 0.288052 12.2778)
(-2.51431e-13 0.495555 9.8365)
(9.19812e-13 -2.40774 16.3897)
(-1.15517e-11 -3.3421 20.2581)
(1.75533e-11 -4.74486 18.1546)
(-6.00027e-11 -2.19408 14.6271)
(6.95685e-11 0.669982 9.7572)
(-1.33674e-11 0.160677 2.02329)
(-5.11112e-12 -0.671498 -4.52111)
(-1.43579e-11 -0.70148 -1.72308)
(2.32641e-11 -1.21402 0.941963)
(-5.41231e-11 0.0896968 6.9077)
(8.85215e-11 1.97844 22.556)
(-6.37903e-11 5.67288 43.8936)
(9.07049e-12 10.4175 65.4001)
(4.35694e-13 14.3817 86.232)
(-2.10762e-12 19.365 106.324)
(-4.81549e-12 22.7335 122.205)
(-6.30467e-12 24.3426 134.18)
(-6.55931e-12 25.4441 143.056)
(-6.4448e-12 26.107 149.181)
(-6.54412e-12 26.1071 152.125)
(-6.00176e-12 26.0676 153.672)
(-6.22028e-12 26.2891 155.081)
(-4.89673e-12 26.4875 156.491)
(-4.53976e-12 26.3864 157.371)
(-3.81402e-12 26.3125 157.526)
(-2.14827e-12 26.287 157.199)
(-7.38626e-12 26.1523 156.581)
(7.67894e-13 25.9611 156.001)
(-1.36915e-11 25.8394 155.695)
(2.83333e-12 25.7552 155.44)
(-1.71133e-11 25.7443 154.86)
(1.1254e-11 25.6996 154.236)
(-4.49451e-11 25.6011 153.783)
(6.8422e-11 25.5208 153.442)
(-1.02279e-10 25.4979 153.152)
(1.19978e-10 25.3072 153.019)
(-6.08206e-11 25.218 153.111)
(-1.97099e-10 25.2845 153.506)
(5.31388e-10 25.4156 154.057)
(-5.17467e-10 25.795 154.439)
(2.10501e-10 25.8014 154.675)
(7.76232e-11 25.7699 154.925)
(-2.8603e-10 25.816 155.304)
(4.59264e-10 25.9062 155.667)
(-1.96078e-10 25.9878 155.892)
(-3.07564e-10 26.0307 155.913)
(8.51171e-10 26.032 155.89)
(-6.94154e-10 25.9781 155.911)
(-7.03217e-10 26.0201 156.229)
(1.77364e-09 26.0532 156.623)
(-1.00705e-09 26.1964 157.239)
(-7.85445e-10 26.2673 157.657)
(1.52409e-09 26.4157 158.351)
(-4.78098e-10 26.4711 158.814)
(-1.05359e-09 26.6059 159.498)
(1.13651e-09 26.6635 159.982)
(2.75322e-10 26.8323 160.703)
(-1.28109e-09 26.903 161.276)
(5.50496e-10 27.0797 162.073)
(8.84389e-10 27.1662 162.808)
(-8.24201e-10 27.3206 163.675)
(-6.90806e-10 27.4337 164.557)
(1.41548e-09 27.5996 165.426)
(-1.70842e-10 27.7518 166.442)
(-9.75147e-10 27.9362 167.349)
(2.72433e-10 28.1193 168.516)
(9.76037e-10 28.3095 169.503)
(-2.49727e-10 28.5223 170.818)
(-1.31509e-09 28.7256 171.852)
(1.24621e-09 28.944 173.307)
(7.30003e-11 29.1557 174.366)
(-6.16178e-11 29.3793 175.89)
(-9.74252e-10 29.5962 176.969)
(6.01095e-10 29.8302 178.523)
(9.23992e-10 30.0384 179.603)
(-5.7176e-10 30.2756 181.177)
(-1.08583e-09 30.4869 182.222)
(1.1344e-09 30.7453 183.806)
(4.69459e-10 30.9629 184.873)
(-1.10258e-10 31.237 186.487)
(-8.31595e-10 31.4311 187.504)
(2.80462e-10 31.7353 189.231)
(8.06332e-10 31.9106 190.216)
(4.67574e-10 32.2361 191.962)
(-9.96402e-10 32.4062 192.964)
(-7.23367e-11 32.7599 194.765)
(2.68195e-10 32.9174 195.752)
(1.06477e-09 33.309 197.623)
(-2.32724e-10 33.4614 198.683)
(-6.13905e-10 33.8863 200.586)
(-1.1513e-09 34.0325 201.764)
(1.51546e-09 34.5321 203.698)
(1.10569e-09 34.7331 205.252)
(-9.13782e-10 35.3818 207.179)
(-1.58381e-09 35.7659 209.464)
(1.79898e-09 36.8331 211.803)
(7.6904e-11 37.6194 215.763)
(-1.14974e-09 39.721 219.401)
(2.29083e-09 41.9861 227.554)
(2.88623e-09 47.7313 235.788)
(-4.07189e-09 60.3934 250.441)
(6.52035e-09 -75.2263 244.232)
(-1.62819e-08 -46.6655 173.775)
(-1.00753e-08 -35.4589 144.391)
(-1.11581e-08 -33.9672 116.235)
(-1.56487e-09 -27.5208 102.013)
(4.11128e-09 -23.9765 84.7682)
(8.74149e-09 -21.7563 76.2721)
(-3.36327e-09 -18.1443 65.0104)
(-1.48652e-09 -17.5823 59.1942)
(7.20523e-10 -14.4685 51.6621)
(1.03355e-10 -14.428 47.3658)
(4.98585e-10 -12.1197 41.9421)
(-2.88124e-10 -11.9667 38.7993)
(1.05024e-10 -10.3221 34.7299)
(-4.33521e-11 -10.1348 32.486)
(5.28994e-11 -8.89779 29.3908)
(-8.00609e-12 -8.63797 27.6951)
(-9.27817e-12 -7.70493 25.1532)
(1.80646e-11 -7.25278 23.7519)
(-1.36795e-11 -6.78404 21.6478)
(9.38656e-12 -6.29048 20.5245)
(1.05377e-11 -5.94188 18.7987)
(-7.84781e-12 -5.61454 17.9118)
(4.74871e-11 -5.25849 16.6167)
(-1.82402e-11 -5.01237 15.7848)
(2.56843e-11 -4.70345 14.8387)
(2.23347e-11 -4.4345 13.9852)
(8.21751e-13 -4.23099 13.2082)
(-6.7183e-12 -3.99231 12.5346)
(1.04464e-11 -3.79811 11.8677)
(-2.00649e-11 -3.60401 11.2514)
(-1.72235e-11 -3.44588 10.6873)
(3.44893e-12 -3.27178 10.1788)
(-2.73211e-11 -3.1239 9.68686)
(1.62007e-11 -2.96705 9.23319)
(-2.04309e-12 -2.82905 8.78387)
(6.08123e-12 -2.70307 8.37504)
(1.05188e-11 -2.58754 7.98969)
(1.80137e-11 -2.481 7.64157)
(1.25288e-11 -2.37849 7.31977)
(-6.00829e-12 -2.27195 7.00787)
(2.49384e-11 -2.17142 6.69943)
(7.87116e-12 -2.07498 6.40603)
(-3.32574e-12 -1.97693 6.12136)
(-1.12422e-11 -1.88004 5.84171)
(-1.21445e-11 -1.77917 5.5658)
(-2.15636e-11 -1.67152 5.2841)
(1.00683e-11 -1.55565 4.99825)
(-4.77105e-12 -1.41579 4.69998)
(5.26493e-12 -1.21119 4.33714)
(-3.48491e-12 -0.835894 4.04733)
(5.47231e-12 -0.391344 4.10375)
(1.29834e-11 -0.19237 4.30512)
(8.73979e-12 -0.144378 4.47836)
(2.18926e-13 -0.0822701 4.5965)
(-1.18972e-12 -0.0532243 4.70961)
(1.27132e-11 -0.0277328 4.77205)
(-1.2382e-11 -0.0145972 4.79619)
(-7.18126e-12 -0.00830904 4.80018)
(-1.04034e-12 -0.00570354 4.78826)
(-5.1162e-12 -0.0026938 4.77508)
(-7.69626e-12 -0.00563386 4.77471)
(-1.50383e-11 -0.00546214 4.78307)
(1.37317e-12 -0.00430867 4.80146)
(1.54266e-11 -0.00288354 4.84423)
(-9.53912e-12 -0.00282379 4.91494)
(-6.75828e-12 -0.00329062 5.01002)
(-9.93226e-12 -0.00444272 5.12967)
(6.09776e-12 -0.00417825 5.27325)
(2.87508e-12 -0.00408786 5.43724)
(2.61318e-11 -0.00372878 5.61647)
(2.10345e-11 -0.00257001 5.80054)
(2.11528e-11 -0.00320671 5.97291)
(-4.22563e-12 -0.00386416 6.10827)
(2.78008e-12 -0.00294011 6.1918)
(2.1667e-11 -0.00297953 6.2379)
(-9.7049e-12 -0.00438823 6.2624)
(-1.35085e-13 -0.00477805 6.2798)
(8.6372e-12 -0.00337796 6.25837)
(-8.88796e-12 -0.00316027 6.15794)
(8.79633e-13 -0.00439218 5.99117)
(6.16592e-12 -0.00479828 5.77067)
(-1.07859e-13 -0.00378795 5.49449)
(-6.08099e-12 -0.00361333 5.16428)
(-1.71318e-12 -0.00400161 4.78783)
(2.37727e-12 -0.00353508 4.37023)
(-2.07035e-12 -0.00339287 3.91734)
(-1.96614e-11 -0.00233622 3.43742)
(-1.51273e-11 -0.00245635 2.94204)
(1.13564e-11 -0.00251543 2.4502)
(-7.86179e-12 -0.00163234 1.98373)
(-1.36735e-11 -0.00101194 1.55484)