/*--------------------------------*- C++ -*----------------------------------*\
| =========                 |                                                 |
| \\      /  F ield         | OpenFOAM: The Open Source CFD Toolbox           |
|  \\    /   O peration     | Version:  2212                                  |
|   \\  /    A nd           | Website:  www.openfoam.com                      |
|    \\/     M anipulation  |                                                 |
\*---------------------------------------------------------------------------*/
FoamFile
{
    version     2.0;
    format      ascii;
    arch        "LSB;label=32;scalar=64";
    class       surfaceScalarField;
    location    "0.0045";
    object      phi;
}
// * * * * * * * * * * * * * * * * * * * * * * * * * * * * * * * * * * * * * //

dimensions      [1 0 -1 0 0 0 0];

oriented        oriented;

internalField   nonuniform List<scalar> 
4475
(
0.000272762
-0.000275401
0.000377075
-0.000381755
1.35704e-05
-0.000225353
1.80659e-05
0.00018204
0.000763203
-0.000865364
6.31099e-05
4.07631e-05
-4.55101e-05
0.000171026
3.06308e-05
-0.0001798
-0.000215364
0.000188321
0.000200394
-0.000186179
0.0001572
-0.000127822
-0.000184689
0.00014167
-4.42032e-05
3.98174e-05
0.000212481
-0.00022677
-0.000162322
-0.000210146
0.000183874
0.000175566
0.000202143
-0.000232204
-0.000197204
-4.47905e-05
-1.4147e-06
6.13895e-06
2.70202e-05
-1.0334e-05
9.18657e-06
-5.54899e-05
-7.24157e-05
9.00617e-06
-3.5502e-06
6.21667e-05
-7.64221e-05
2.48784e-06
4.06137e-07
-7.92903e-05
6.45247e-07
1.9701e-06
-8.38947e-05
-1.45208e-07
2.25023e-06
-9.05285e-05
-2.26094e-07
1.58141e-06
1.0247e-06
-9.84196e-05
-2.40104e-06
9.32765e-05
-6.66286e-06
-0.000103562
6.11182e-06
9.02052e-05
-4.37945e-06
8.44757e-05
4.69435e-07
7.96322e-05
2.41232e-06
7.67335e-05
3.35422e-06
7.33712e-05
4.25857e-06
7.09157e-05
4.64436e-06
4.8169e-05
-6.37053e-07
2.97746e-05
2.54022e-06
1.98544e-05
4.28246e-06
-9.03587e-06
1.03285e-05
7.20801e-07
1.60921e-06
0.00022175
-0.000243901
-4.37506e-05
-0.00010918
-8.11061e-06
1.60156e-05
1.46959e-07
1.73316e-06
3.53142e-05
-3.30983e-07
2.17748e-06
6.51484e-05
-1.31354e-06
3.15976e-06
0.000103815
-2.63398e-06
4.69502e-06
0.000151233
-5.10763e-06
7.03777e-06
0.000207009
-7.97269e-06
1.02483e-05
0.000271231
-1.20623e-05
1.43541e-05
0.000341937
-1.72811e-05
1.95359e-05
0.000415555
-2.30233e-05
2.52426e-05
0.000485808
-2.79233e-05
3.07602e-05
0.0005452
-3.3656e-05
3.6101e-05
0.000576747
-3.81082e-05
4.10184e-05
0.00055087
-4.15108e-05
4.40675e-05
0.000496952
-4.37611e-05
4.42209e-05
-4.47494e-05
0.000355436
4.08095e-05
-0.000498585
0.000365964
-4.78585e-05
-0.000551875
-4.36096e-05
-0.0005719
-4.09987e-05
-0.00053931
-3.43479e-05
-0.000479591
-3.03283e-05
-0.000408461
-2.51963e-05
-0.000334611
-2.0843e-05
-0.000265884
-1.32225e-05
-0.000202289
-9.68723e-06
-0.000147324
-5.8347e-06
-0.000101667
-2.42284e-06
-6.37752e-05
-6.14133e-07
-3.46775e-05
6.63537e-07
-1.57039e-05
1.46047e-06
-9.82678e-06
1.95902e-06
-1.84758e-05
2.80091e-06
-2.68298e-05
6.99771e-06
-1.20457e-05
-4.30611e-05
8.67557e-06
-5.36222e-05
8.48575e-06
-6.32728e-05
6.14306e-06
-3.39759e-06
-7.3295e-05
3.04902e-06
-7.70745e-05
3.45092e-06
-8.0028e-05
4.43944e-06
-8.49726e-05
4.31467e-06
-9.17809e-05
2.48981e-06
-0.000103579
-8.88641e-07
-3.07145e-05
2.45217e-05
6.71076e-05
-4.17241e-05
0.000106968
9.11703e-05
-7.1155e-06
-9.92283e-05
8.38516e-05
2.19165e-06
7.93393e-05
4.47011e-06
7.69441e-05
5.46218e-06
7.38951e-05
5.40996e-06
6.66219e-05
5.10578e-06
4.96539e-05
3.46756e-06
3.21569e-05
4.00031e-06
1.82753e-05
4.03102e-06
1.07937e-05
3.15144e-06
1.67616e-05
3.40489e-06
3.63268e-05
4.08419e-06
6.65133e-05
5.08112e-06
0.000106029
6.58806e-06
0.000154126
9.04535e-06
0.000210632
1.25023e-05
0.000275812
1.60365e-05
0.000346791
2.14202e-05
0.000420114
2.69336e-05
0.000490104
3.24921e-05
0.000548971
3.69168e-05
0.000578805
4.20308e-05
0.000549175
4.38089e-05
0.000494593
4.31456e-05
0.000340491
3.81141e-05
-1.09772e-05
-0.000120344
1.42918e-05
1.89945e-05
2.47865e-05
-2.13619e-05
-0.000112261
-0.000116513
-8.8814e-06
-0.000373909
0.00014214
-5.81696e-05
-0.000496289
-5.47746e-05
-0.000545035
-4.833e-05
-0.000565614
-3.88991e-05
-0.000531058
-3.24372e-05
-0.000471059
-2.72559e-05
-0.000400832
-2.14976e-05
-0.000329615
-1.57908e-05
-0.000259294
-1.08562e-05
-0.000197053
-6.74181e-06
-0.000144097
-2.56718e-06
-9.91347e-05
2.77955e-09
-6.24077e-05
1.70204e-06
-3.39269e-05
2.7355e-06
-1.54238e-05
3.36053e-06
-8.99607e-06
3.64086e-06
-1.56657e-05
4.43972e-06
-2.82334e-05
6.73667e-06
-4.28858e-05
8.88369e-06
-5.61169e-05
9.70843e-06
-6.58478e-05
8.32224e-06
-7.29288e-05
6.86141e-06
-7.67691e-05
6.73724e-06
-8.02453e-05
7.16994e-06
-8.63671e-05
6.99608e-06
-9.53201e-05
4.57599e-06
-0.000108003
2.55927e-07
-0.000203461
0.000284304
-0.000258364
9.93756e-05
-0.000198232
-6.47185e-05
0.000152443
-0.000117395
-0.000107374
0.000121776
9.18288e-05
0.000128322
0.000121839
1.49474e-05
-2.54527e-05
-0.000130229
9.45035e-05
6.67113e-06
8.44576e-05
5.9559e-06
7.92792e-05
6.96896e-06
7.71163e-05
7.25826e-06
7.35669e-05
6.92968e-06
6.54433e-05
6.29094e-06
5.05383e-05
5.445e-06
3.30058e-05
5.27716e-06
1.80738e-05
4.90369e-06
1.12011e-05
4.5447e-06
1.74587e-05
4.9731e-06
3.73459e-05
5.73021e-06
6.80401e-05
6.97173e-06
0.000107797
8.66338e-06
0.00015657
1.09199e-05
0.000214291
1.40973e-05
0.000279329
1.81063e-05
0.000350466
2.27505e-05
0.000423578
2.78542e-05
0.000494312
3.16957e-05
0.000551107
3.69991e-05
0.000578072
4.10016e-05
0.000544027
3.97747e-05
0.000489996
3.76366e-05
0.000327071
3.23072e-05
-1.94212e-05
1.33165e-05
2.2928e-05
-0.000380993
-2.05702e-05
1.89151e-05
-0.000362395
8.05509e-06
-0.000330224
-1.07469e-05
-0.00028378
-0.000190014
0.000177048
-0.000211342
-0.000223619
-3.94298e-05
-0.000253108
-0.000246475
0.000278187
-0.000202238
0.000319461
0.000166172
-0.000297114
-2.61131e-05
-0.000127226
0.00024453
-0.000193439
0.000258871
-0.000321603
0.000189958
0.000183178
-0.000199305
-0.000175094
2.25872e-06
3.44541e-05
-0.000125738
-6.51993e-06
4.19683e-05
-2.60624e-05
-0.000306898
5.08856e-05
-0.000319926
5.22819e-05
-0.000327073
4.50163e-05
-0.000325969
2.74415e-05
-0.000308806
0.000157318
9.53592e-06
-0.000268513
-0.000168834
-7.19504e-05
-0.00037773
-7.61405e-05
-0.000488566
-6.84267e-05
-0.000537668
-5.26339e-05
-0.000555473
-4.14932e-05
-0.000521848
-3.1367e-05
-0.000461962
-2.51621e-05
-0.000392388
-1.77866e-05
-0.000321085
-1.1476e-05
-0.00025299
-6.95608e-06
-0.000192414
-2.97558e-06
-0.000140116
4.00541e-07
-9.65236e-05
2.7305e-06
-6.08212e-05
4.05773e-06
-3.30731e-05
4.72447e-06
-1.4991e-05
5.10855e-06
-8.53824e-06
5.26337e-06
-1.48588e-05
5.92595e-06
-2.83836e-05
7.50652e-06
-4.39836e-05
9.59444e-06
-5.69634e-05
1.00551e-05
-6.67383e-05
1.01902e-05
-7.28596e-05
9.69445e-06
-7.63215e-05
9.55125e-06
-8.07673e-05
1.01479e-05
-8.77235e-05
9.91355e-06
-9.90675e-05
7.88845e-06
2.80922e-06
-0.000114498
2.01195e-05
-1.54833e-05
-0.000178617
0.000153255
0.000332253
-0.000421197
0.000373993
-0.000290613
0.000181918
-0.000181189
0.000186029
0.00022567
1.31449e-05
3.06682e-05
0.000222109
3.79197e-05
-4.97022e-05
0.000205171
3.83807e-05
0.000180923
3.2249e-05
-2.85474e-05
0.000155089
2.4537e-05
0.000132378
1.96676e-05
-1.77011e-05
0.000113542
1.56973e-05
9.55585e-05
1.17398e-05
8.53155e-05
9.68539e-06
7.97104e-05
9.72996e-06
7.72233e-05
9.254e-06
7.33613e-05
8.66878e-06
6.50457e-05
7.62437e-06
5.04666e-05
7.01491e-06
3.32595e-05
6.47014e-06
1.83499e-05
6.04213e-06
1.18606e-05
5.96004e-06
1.82704e-05
6.54631e-06
3.83075e-05
7.59968e-06
6.93202e-05
8.63444e-06
0.000109435
1.06741e-05
0.000158771
1.25303e-05
0.000216519
1.58007e-05
0.00028217
1.93629e-05
0.000353155
2.3592e-05
0.000427381
2.63684e-05
0.000495828
3.11043e-05
0.000551067
3.51547e-05
0.000577121
3.50873e-05
0.000538935
3.15485e-05
0.000482487
2.95822e-05
0.000315233
2.16574e-05
-3.76148e-05
5.61993e-06
-0.000384307
-1.31726e-05
-7.38198e-07
-0.000290903
5.53374e-05
0.000805747
-0.00063868
-0.000219071
-0.000250275
0.000226569
-0.000541344
0.000548189
0.000138666
-0.000150177
-2.91703e-05
0.000126463
2.67081e-05
-0.00014688
-0.000833038
-0.000155237
0.000321346
0.00066772
-0.000258791
-0.000204105
-2.15776e-05
-0.000148343
-0.000174169
-1.81508e-05
0.000157139
9.47238e-05
-0.000209143
-5.57005e-06
-0.000189716
-9.70229e-05
-0.00037224
-9.5929e-05
-0.000480827
-7.99615e-05
-0.000523532
-6.18945e-05
-0.000543243
-4.58937e-05
-0.000511641
-3.16608e-05
-0.000454279
-2.26596e-05
-0.000385982
-1.3994e-05
-0.000314431
-8.16453e-06
-0.000247172
-3.15376e-06
-0.000187573
7.37271e-07
-0.000136564
3.39255e-06
-9.41802e-05
5.59787e-06
-5.92649e-05
6.41191e-06
-3.23628e-05
6.74688e-06
-1.46492e-05
6.90011e-06
-8.32697e-06
7.00943e-06
-1.46244e-05
7.52266e-06
-2.85098e-05
8.57375e-06
-4.42833e-05
1.02254e-05
-5.77912e-05
1.07284e-05
-6.72199e-05
1.19349e-05
-7.27647e-05
1.20873e-05
-7.6227e-05
1.2065e-05
-8.11063e-05
1.28962e-05
-8.88424e-05
1.29565e-05
-0.000101167
1.09811e-05
-0.000120182
7.54079e-06
-3.16541e-06
-0.000134733
-0.0002347
-0.000217392
0.000249036
-0.000111556
-0.000332124
0.000311847
0.000116874
0.000240482
3.42696e-05
-0.000278253
0.000223859
3.70817e-05
0.000203577
3.93137e-05
0.000179334
3.54918e-05
0.000154574
2.76151e-05
0.000131226
2.22147e-05
0.000110805
1.82904e-05
9.46351e-05
1.51923e-05
8.4605e-05
1.31322e-05
7.94181e-05
1.19495e-05
7.66866e-05
1.13412e-05
7.29777e-05
1.016e-05
6.44733e-05
9.0748e-06
5.02805e-05
8.34976e-06
3.33471e-05
7.67574e-06
1.86809e-05
7.33023e-06
1.2552e-05
7.46142e-06
1.92286e-05
8.22327e-06
3.97226e-05
9.15407e-06
7.07614e-05
1.06189e-05
0.000111571
1.22242e-05
0.000160649
1.44751e-05
0.00021867
1.71369e-05
0.000284269
2.02303e-05
0.000356654
2.21839e-05
0.000428664
2.56133e-05
0.000495929
2.90544e-05
0.000551581
2.88746e-05
0.000574527
2.63148e-05
0.000530648
2.22354e-05
0.000473709
1.74435e-05
0.000307076
7.10216e-06
-4.63756e-05
-1.37147e-06
-0.000369501
1.1911e-06
-0.000267504
3.06801e-05
-2.34685e-05
5.48085e-05
-0.000112508
2.45441e-06
-0.000128849
2.15522e-05
-0.000144284
3.47561e-05
-0.000158315
4.54065e-05
-0.000170428
4.73276e-05
-0.000175029
3.797e-05
-0.000175137
1.3728e-05
-0.000159891
-0.000124277
-1.22579e-05
-0.000566935
-0.000173063
0.000195378
-1.87435e-05
3.97637e-05
-0.000768626
0.00074872
-0.00029187
0.000189366
-0.000253085
0.000357058
-0.000324221
-0.00019832
0.000310078
0.000343446
-0.000388979
-9.93346e-05
0.000112029
0.000363063
-0.00014114
-1.96695e-07
-1.4545e-05
-0.000160996
-0.000215008
-0.000244119
0.000216222
-0.000266985
-0.000177044
0.000109611
-0.000385467
0.000218797
-0.000264389
0.000424614
0.000168874
0.000187683
0.00024499
-0.000263664
3.74106e-05
0.000221545
4.26996e-05
0.00020025
4.0922e-05
0.000176918
3.75863e-05
0.000152536
3.01522e-05
0.000129093
2.48114e-05
0.000108611
2.10261e-05
9.31357e-05
1.801e-05
8.3833e-05
1.57839e-05
7.85417e-05
1.41681e-05
7.61163e-05
1.29633e-05
7.22405e-05
1.16792e-05
6.38036e-05
1.04532e-05
4.99327e-05
9.60505e-06
3.33145e-05
8.96166e-06
1.90474e-05
8.72846e-06
1.33559e-05
9.00379e-06
2.02845e-05
9.85905e-06
4.08573e-05
1.09667e-05
7.21635e-05
1.21941e-05
0.000112768
1.37989e-05
0.000162421
1.56776e-05
0.000220435
1.802e-05
0.000287077
1.93516e-05
0.000357559
2.14594e-05
0.000427975
2.43393e-05
0.000496165
2.31432e-05
0.000549764
2.05584e-05
0.000566707
1.76555e-05
0.00052204
9.79073e-06
0.000466672
1.08158e-06
0.00030483
-6.86652e-06
-3.72164e-05
-7.37267e-06
-0.000333179
1.94406e-05
-0.000238408
6.68154e-05
-9.74797e-05
8.80083e-05
-7.74021e-05
0.000107474
7.26038e-05
-4.77089e-05
6.46813e-05
-2.02559e-05
5.68276e-05
3.34315e-06
4.79203e-05
2.57862e-05
4.5302e-05
5.26024e-05
4.04777e-05
8.6727e-05
4.17407e-05
0.000127931
3.94121e-05
0.000161235
3.58918e-05
0.000176655
3.22744e-05
7.80953e-05
2.99765e-05
0.000161845
0.000131561
-2.02542e-05
4.48081e-05
-2.09445e-05
-0.000203359
-0.000108827
-0.000367741
-0.000108692
-0.000466808
-9.48525e-05
-0.000506436
-7.08641e-05
-0.000528576
-5.16573e-05
-0.000499513
-3.39131e-05
-0.000445361
-2.03216e-05
-0.000378093
-1.14158e-05
-0.000308274
-4.73328e-06
-0.000241946
1.94117e-07
-0.000183667
4.34231e-06
-0.00013401
6.44512e-06
-9.22694e-05
8.08634e-06
-5.82169e-05
8.5181e-06
-3.17893e-05
8.76344e-06
-1.45027e-05
8.82563e-06
-8.312e-06
8.92203e-06
-1.4563e-05
9.16925e-06
-2.84875e-05
9.88069e-06
-4.46779e-05
1.1225e-05
-5.8453e-05
1.16235e-05
-6.76082e-05
1.32712e-05
-7.25633e-05
1.35951e-05
-7.59364e-05
1.421e-05
-8.10145e-05
1.53724e-05
-8.93388e-05
1.59307e-05
-0.000103878
1.50419e-05
1.09281e-05
-0.00012284
-0.000248752
-0.000230566
0.000252624
-1.00593e-05
-0.000165179
-0.000204379
-1.84709e-05
4.04991e-05
-1.51857e-05
-0.000217383
-0.000272478
0.000301088
-0.000287428
-0.000200062
0.000278947
-0.00018687
-0.000174293
0.000238555
-0.000305918
-0.000133224
0.000311478
3.34664e-05
7.64587e-06
0.00026834
2.91977e-05
-0.000277553
0.000242689
4.68337e-05
0.000218889
4.82697e-05
0.000195486
4.42522e-05
0.000173134
3.84629e-05
0.000149181
3.20982e-05
0.000126325
2.67417e-05
0.000106129
2.34842e-05
9.12391e-05
2.02358e-05
8.23958e-05
1.79077e-05
7.73913e-05
1.60245e-05
7.50223e-05
1.44229e-05
7.12423e-05
1.30488e-05
6.30103e-05
1.17214e-05
4.94249e-05
1.08349e-05
3.3214e-05
1.02605e-05
1.94655e-05
1.01265e-05
1.41895e-05
1.05458e-05
2.13357e-05
1.14183e-05
4.21508e-05
1.24286e-05
7.35381e-05
1.36891e-05
0.000114418
1.49235e-05
0.000164065
1.64017e-05
0.00022254
1.79113e-05
0.000287725
1.8868e-05
0.000356619
2.0563e-05
0.000428625
1.92208e-05
0.000494757
1.63102e-05
0.000542826
1.34252e-05
0.000556902
6.95945e-06
0.000515471
-5.20547e-06
0.000458699
-1.26314e-05
0.000312489
-2.15624e-05
-5.38981e-06
-1.06489e-05
-0.00027842
3.77519e-05
-0.00020594
0.000103111
-8.48068e-05
0.00012119
7.50044e-05
0.000140797
-7.91574e-05
1.75165e-06
0.000105197
-5.98253e-05
-5.52101e-06
-4.77413e-05
-1.8058e-05
-3.72528e-05
-2.64077e-05
-2.89953e-05
-3.2111e-05
-2.29861e-05
-3.12192e-05
-1.55082e-05
-2.7371e-05
-6.77967e-06
-1.84925e-05
3.18066e-06
-8.2939e-06
1.12216e-05
6.02859e-07
1.94031e-05
-1.59501e-06
3.56665e-05
-1.15826e-05
-2.34616e-05
-2.41623e-05
6.22848e-05
3.40072e-05
0.000119204
3.8485e-05
3.09079e-06
3.07138e-06
-4.53135e-05
-0.000213323
-0.000109301
-0.000357456
-0.000114865
-0.000451394
-0.000103909
-0.000487605
-7.81055e-05
-0.000511793
-5.72136e-05
-0.000487642
-3.5921e-05
-0.000434526
-2.11564e-05
-0.000370118
-9.21003e-06
-0.000302258
-1.81726e-06
-0.000237805
3.47332e-06
-0.00018048
7.20801e-06
-0.000131938
9.21194e-06
-9.11105e-05
1.02362e-05
-5.77255e-05
1.07122e-05
-3.15162e-05
1.07571e-05
-1.43753e-05
1.07395e-05
-8.2236e-06
1.07101e-05
-1.44877e-05
1.07018e-05
-2.85026e-05
1.11232e-05
-4.44879e-05
1.20697e-05
-5.86417e-05
1.27928e-05
-6.74565e-05
1.40412e-05
-7.22859e-05
1.48729e-05
-7.52282e-05
1.57613e-05
-8.02358e-05
1.73676e-05
-8.88102e-05
1.8479e-05
-0.000103719
1.83729e-05
1.54552e-05
-0.000124899
-0.000145236
3.41219e-06
-0.000241692
-0.000259408
-0.000240184
-0.000266956
0.000267665
0.000188243
0.000516106
-0.000493628
-0.000207507
-0.000168082
-7.37828e-06
-0.000285964
-0.000121581
6.34167e-05
-0.000306303
-0.000164182
-0.000307327
-0.000195663
-9.04315e-07
-6.68041e-05
-0.000152427
-8.92724e-05
-0.000201285
1.20223e-05
-0.000187535
-1.59268e-05
-0.000229702
-0.000282476
-0.000287797
-0.000228482
-9.7378e-05
0.000101316
3.7554e-05
-8.55436e-05
4.36406e-05
-5.77528e-05
4.68859e-05
-1.82756e-05
4.8647e-05
2.45314e-05
4.72617e-05
6.31965e-05
4.2127e-05
9.27712e-05
3.51425e-05
0.000111054
3.55145e-05
0.00012135
3.1134e-05
0.000120207
3.04052e-05
0.00010486
2.98454e-05
8.08568e-05
2.19574e-05
5.75293e-05
8.73381e-06
3.62773e-05
4.54075e-05
-5.19001e-06
-2.00118e-05
9.76248e-05
-7.36087e-06
4.55598e-05
-3.58237e-05
3.65528e-05
-6.22753e-05
-5.49607e-05
-0.000227195
-0.000101237
-0.000350555
-0.000113743
-0.000435725
-0.000106849
-0.000468596
-8.24544e-05
-0.000493316
-6.104e-05
-0.00047229
-3.85112e-05
-0.000424063
-2.15397e-05
-0.000361549
-8.99834e-06
-0.000296183
4.08075e-07
-0.000233738
6.07507e-06
-0.000178011
9.48945e-06
-0.000130595
1.15657e-05
-9.06148e-05
1.23129e-05
-5.73459e-05
1.25308e-05
-3.14209e-05
1.26594e-05
-1.43908e-05
1.24063e-05
-8.26063e-06
1.22583e-05
-1.44944e-05
1.20776e-05
-2.8455e-05
1.22589e-05
-4.44385e-05
1.28233e-05
-5.80181e-05
1.33783e-05
-6.70002e-05
1.51045e-05
-7.11789e-05
1.55559e-05
-7.41355e-05
1.71532e-05
-7.8822e-05
1.86762e-05
-8.73999e-05
2.0414e-05
-0.000103045
2.14873e-05
2.06861e-05
-0.000126189
7.81421e-06
-0.000149322
0.000200954
-0.000172314
-0.000222481
-0.000230204
-0.000291397
0.000163128
-3.30277e-05
4.05724e-05
-0.00019017
0.000813793
-1.75299e-05
-0.000798182
3.66736e-06
0.000234505
5.78443e-05
-0.000262598
0.000212434
5.16918e-05
0.000190984
4.53568e-05
0.000168697
3.90508e-05
0.000145299
3.33902e-05
0.000122926
2.81751e-05
0.000103465
2.52252e-05
8.90525e-05
2.19493e-05
8.06045e-05
1.95562e-05
7.59015e-05
1.75175e-05
7.35998e-05
1.57474e-05
7.00761e-05
1.418e-05
6.21148e-05
1.28768e-05
4.89214e-05
1.19872e-05
3.31547e-05
1.1489e-05
1.99059e-05
1.14679e-05
1.50787e-05
1.19236e-05
2.23685e-05
1.28402e-05
4.33217e-05
1.37316e-05
7.48776e-05
1.47044e-05
0.000115668
1.5705e-05
0.000165273
1.66915e-05
0.000223128
1.73982e-05
0.000287633
1.76058e-05
0.000357413
1.69285e-05
0.000425798
1.52755e-05
0.000488218
9.77519e-06
0.000534052
4.63829e-06
0.000547798
-5.63418e-06
0.000507399
-1.66119e-05
0.000456685
-2.62774e-05
0.000327897
-3.21659e-05
5.41515e-05
-1.14188e-05
-0.000207122
5.17135e-05
-0.00017025
0.00013249
-7.23991e-05
0.000149484
7.07279e-05
0.000175405
1.69613e-06
0.000142749
2.69333e-05
0.000110708
-0.000246196
-0.000286885
0.000284546
-0.000265411
-0.000268941
0.000670944
-2.36812e-05
5.43115e-05
-0.000699069
-0.000178619
-2.67636e-05
-0.000215188
-0.000186932
-1.71743e-05
3.88972e-05
-2.03908e-05
2.6443e-05
-3.10987e-05
0.000143907
-6.91522e-05
-9.81331e-06
-8.61783e-05
5.39336e-05
-0.00011931
-5.46297e-05
-0.000245315
-8.98419e-05
-0.000346917
-0.000106646
-0.00042101
-0.000104318
-0.000452093
-8.20273e-05
-0.000474078
-6.33983e-05
-0.00045586
-4.03888e-05
-0.00041119
-2.25669e-05
-0.00035298
-8.65362e-06
-0.00028997
1.19785e-06
-0.000229983
7.86753e-06
-0.000176343
1.1358e-05
-0.000129795
1.31264e-05
-9.03196e-05
1.38506e-05
-5.74004e-05
1.39986e-05
-3.15321e-05
1.40198e-05
-1.45376e-05
1.38347e-05
-8.4211e-06
1.35943e-05
-1.45729e-05
1.33227e-05
-2.83968e-05
1.33098e-05
-4.4335e-05
1.36317e-05
-5.80222e-05
1.42777e-05
-6.59889e-05
1.54664e-05
-6.99336e-05
1.62053e-05
-7.24874e-05
1.8076e-05
-7.69407e-05
1.95056e-05
-8.47996e-05
2.11672e-05
-9.98476e-05
2.33444e-05
-0.000124085
2.60015e-05
1.38176e-05
-0.000153822
0.000180582
-0.000155826
0.000162899
-0.000312472
-0.000206518
-0.000149485
0.000192789
7.90786e-06
-0.000117809
3.87608e-05
-9.85314e-05
7.12555e-05
-8.34695e-05
9.96586e-05
-6.86383e-05
0.000120961
-5.59897e-05
0.000126952
-4.06743e-05
0.000111688
-2.09439e-05
8.70532e-05
3.74497e-06
7.03823e-05
3.20205e-05
4.38091e-05
6.01386e-05
2.46702e-05
8.02227e-05
7.73174e-06
9.77091e-05
-1.06371e-05
0.000115205
-4.72741e-05
0.000135103
-6.22137e-05
0.000167467
-7.87775e-05
0.000251324
-0.000178757
-0.000257028
0.000336309
-0.000230058
0.00032323
-0.000192062
0.000307128
-0.000158507
-0.000132537
-0.000167298
0.000152931
0.000168075
-7.34522e-05
-0.00026537
-0.000204954
0.000184896
2.39037e-05
-1.06168e-05
-4.78079e-05
-0.000173667
0.000153348
0.000219766
5.58731e-05
-0.000235072
0.0002033
4.94126e-05
0.000184472
4.37138e-05
0.000163166
3.85717e-05
0.000140992
3.34299e-05
0.000118985
2.92625e-05
0.000100546
2.59296e-05
8.66335e-05
2.309e-05
7.85736e-05
2.07119e-05
7.4188e-05
1.86342e-05
7.21061e-05
1.68032e-05
6.87549e-05
1.52087e-05
6.11719e-05
1.38669e-05
4.84451e-05
1.30061e-05
3.3177e-05
1.25679e-05
2.04087e-05
1.26431e-05
1.58838e-05
1.313e-05
2.33409e-05
1.39698e-05
4.43988e-05
1.4742e-05
7.59573e-05
1.54153e-05
0.000116876
1.60214e-05
0.0001661
1.65575e-05
0.000223076
1.65223e-05
0.000286546
1.55657e-05
0.000353875
1.34417e-05
0.000421169
9.5522e-06
0.00048056
3.22422e-06
0.000524864
-5.01498e-06
0.000536567
-1.55351e-05
0.000502483
-2.71758e-05
0.000458472
-3.59426e-05
0.000345907
-3.56905e-05
0.000119424
-1.24435e-05
-0.000123872
5.80917e-05
-0.000134162
0.000151556
-6.13688e-05
0.000173868
6.38276e-05
0.000203694
4.96995e-07
0.000182208
1.39937e-05
0.000128899
-2.36903e-05
0.000232952
4.6434e-05
0.000669289
-4.27144e-05
-8.05354e-06
-0.00016964
-0.000127294
6.50927e-05
-0.000247918
-0.000313655
0.000307617
-0.000250285
-0.000313795
-0.000270132
-0.000293243
-0.000707765
-7.51093e-05
0.00076205
0.000760861
-4.25685e-06
-0.000697881
0.000172789
-2.07726e-05
-0.000212256
3.47103e-05
-0.000169877
0.000165429
0.000121892
-0.000135868
-0.000189162
-0.000592481
0.000212618
0.000124339
-0.000185068
-0.000151186
0.000194434
-1.42211e-06
-0.000784893
-5.99676e-05
0.000849287
2.55099e-05
-8.41118e-05
0.000195084
2.20443e-05
-8.73802e-07
-6.54133e-05
0.000171361
-0.000121379
-3.37005e-05
-0.000133117
5.11731e-05
-0.000169641
-4.7151e-05
-0.00026422
-7.82892e-05
-0.000345097
-9.53688e-05
-0.000409002
-9.57535e-05
-0.000437323
-7.84366e-05
-0.000456298
-6.22346e-05
-0.000438808
-4.17858e-05
-0.000397572
-2.34094e-05
-0.000343018
-8.84063e-06
-0.000283856
1.68376e-06
-0.000226349
8.5165e-06
-0.00017459
1.23117e-05
-0.000129359
1.41352e-05
-9.04158e-05
1.48104e-05
-5.75985e-05
1.4943e-05
-3.18224e-05
1.50001e-05
-1.47279e-05
1.48907e-05
-8.6609e-06
1.47515e-05
-1.47031e-05
1.44196e-05
-2.83463e-05
1.42718e-05
-4.40845e-05
1.43793e-05
-5.71912e-05
1.4941e-05
-6.51899e-05
1.61182e-05
-6.87684e-05
1.67011e-05
-7.08335e-05
1.85017e-05
-7.49851e-05
1.9913e-05
-8.28374e-05
2.16102e-05
-9.67991e-05
2.37823e-05
-0.000115668
2.59575e-05
3.11697e-05
-0.000135097
0.000233045
-0.00014921
-0.000512159
0.000450618
-0.000220461
0.000315929
-0.000229129
-0.000604785
3.88337e-05
-1.80574e-05
-2.96667e-06
4.24966e-05
3.31015e-05
3.95993e-05
4.59456e-05
3.18437e-05
5.24848e-05
2.3196e-05
5.92882e-05
1.83411e-05
7.07031e-05
1.38327e-05
8.28921e-05
8.55344e-06
8.45607e-05
1.17079e-05
7.39629e-05
2.3995e-05
6.55593e-05
3.39188e-05
5.38376e-05
3.50917e-05
4.89025e-05
2.4095e-05
5.17096e-05
-9.94063e-06
5.31423e-05
-4.60583e-05
3.26601e-05
-6.55956e-05
-9.10203e-06
-7.66758e-05
-4.78865e-05
-7.06704e-05
-6.11718e-05
-0.000166035
0.000362807
-0.000223961
0.000339611
-0.000177789
0.000315192
-0.000143871
0.000284724
-0.000112787
-0.000124552
0.000262985
2.16447e-05
-3.98499e-05
0.000317025
-0.000376075
0.000226655
6.43942e-05
-0.000236512
-6.91617e-05
0.000211664
5.41237e-05
0.000195675
4.67586e-05
0.00017775
4.11958e-05
0.000157667
3.68185e-05
0.00013627
3.26659e-05
0.000115465
2.90882e-05
9.74555e-05
2.60841e-05
8.41062e-05
2.35548e-05
7.64387e-05
2.13291e-05
7.23776e-05
1.93392e-05
7.05264e-05
1.75627e-05
6.74755e-05
1.60074e-05
6.02474e-05
1.47265e-05
4.79645e-05
1.39043e-05
3.31417e-05
1.35154e-05
2.08488e-05
1.36113e-05
1.66445e-05
1.40867e-05
2.42287e-05
1.48112e-05
4.53407e-05
1.53551e-05
7.6979e-05
1.58456e-05
0.000117515
1.61501e-05
0.000166202
1.5935e-05
0.000222298
1.5041e-05
0.000284297
1.31288e-05
0.000349571
9.58137e-06
0.000413937
4.13269e-06
0.000471244
-3.53816e-06
0.000513368
-1.34916e-05
0.000527717
-2.46475e-05
0.000499537
-3.4073e-05
0.00046082
-3.81531e-05
0.000366959
-3.67169e-05
0.000186224
-1.15925e-05
-3.9889e-05
5.96964e-05
-8.99309e-05
0.000158345
-4.60696e-05
0.000190082
5.66046e-05
0.000220224
-3.08318e-06
0.000217428
-1.27696e-06
0.000145266
-5.6009e-05
0.000267311
-4.85327e-05
2.90535e-06
0.000267678
-0.000182702
-0.000275353
-9.68948e-06
-0.000174723
0.000286119
-0.000358097
-0.000318243
0.000308814
-0.000211656
0.00021238
-0.000325958
-0.000226473
0.000226346
-0.000245126
-0.000335906
-0.00018944
-1.78767e-05
-0.000350185
-0.000320302
-0.000270521
-0.000311163
-0.000302869
0.000822642
-0.000796897
-2.41923e-05
0.000397508
-0.000250763
0.000198662
-0.00035064
-0.000822793
0.000739576
-7.15459e-05
0.000140551
-0.000100414
0.000129585
-1.00462e-05
-0.000115462
0.000229308
0.000107945
0.000689713
-0.000684143
5.13574e-05
5.37031e-05
0.000684718
0.00011247
2.78128e-05
9.41114e-05
2.5941e-05
8.07947e-05
2.35957e-05
7.31546e-05
2.16238e-05
6.93249e-05
1.99211e-05
6.76105e-05
1.85992e-05
6.40541e-05
1.73885e-05
5.67961e-05
1.62636e-05
4.39344e-05
1.55026e-05
2.8323e-05
1.5072e-05
1.48761e-05
1.50765e-05
8.95908e-06
1.53021e-05
1.49832e-05
1.56306e-05
3.20542e-05
1.56363e-05
5.78436e-05
1.55852e-05
9.04804e-05
1.54101e-05
0.000128881
1.51008e-05
0.000172912
1.43448e-05
0.000222655
1.23561e-05
0.000277118
8.39226e-06
0.000332713
1.47092e-06
0.000383637
-9.30284e-06
0.000422013
-2.36708e-05
0.000438744
-4.10949e-05
0.000425876
-5.90658e-05
0.000398106
-7.11164e-05
0.000346081
-8.34298e-05
0.000282221
-8.10813e-05
0.000208705
-6.42298e-05
0.000174013
-3.64765e-05
0.000164406
4.28858e-05
0.000103363
-3.64302e-05
7.25805e-06
0.000166086
-3.70158e-06
-2.44155e-05
-6.21617e-05
0.000209396
-5.88556e-05
-3.95934e-05
5.0066e-05
0.000676955
-5.58548e-05
-0.000185195
0.000237642
-0.000143956
-0.000156911
-5.48097e-05
-0.000121143
-1.92861e-05
-8.58699e-05
-1.08664e-05
-7.08313e-05
-3.93951e-07
-7.89708e-05
1.92689e-05
-9.13137e-05
3.85097e-05
-0.000103063
6.64322e-05
-0.000108921
8.52322e-05
-8.5613e-05
6.63654e-05
-2.8961e-05
3.72898e-05
3.57558e-05
2.84071e-05
8.65558e-05
4.18198e-05
0.000122618
5.65695e-05
0.000136321
6.12616e-05
0.000128842
3.05873e-05
0.000133597
-5.08916e-05
0.00018709
-0.000139133
0.000244279
-0.000134909
0.000276974
-9.08481e-05
0.000260137
-0.000153729
-2.82599e-05
-0.00017734
-0.000196491
0.000296614
0.000199035
0.000175731
0.000780178
-0.000601663
-0.000351208
0.000117768
-0.000647034
8.02937e-05
-0.000658817
6.6666e-05
-0.000667731
0.000677997
5.52929e-05
-0.000663812
0.000678618
5.33686e-05
0.0006802
5.43882e-05
-7.41482e-05
0.000102682
0.00065347
0.000173235
-7.88894e-05
3.07537e-05
0.000658274
-0.000651027
-3.63383e-05
0.000170294
0.000381473
-0.000160341
0.000158875
0.000462706
-0.000519147
-0.000107434
0.000450603
-0.000336271
-0.000207236
0.000323746
-0.000346717
-0.000223243
-0.0002395
-0.000358848
-2.52425e-05
-0.000203905
0.000273106
-0.000182267
-0.000284711
2.52948e-05
-8.94749e-07
0.000401135
-0.000181867
0.000364309
-0.000149089
0.000330803
-0.000119117
0.000313472
-0.000104854
-0.000105029
0.000283715
-0.000198199
0.00029094
0.000156797
0.000127374
-6.26481e-05
-0.000246203
0.000175026
0.000230355
8.20497e-05
-8.71417e-05
-0.000238509
0.000218313
6.15644e-05
0.000204847
5.08529e-05
0.000189384
4.34803e-05
0.000171692
3.83397e-05
0.000152216
3.44753e-05
0.00013178
3.09466e-05
0.000111857
2.7977e-05
9.44963e-05
2.54903e-05
8.16849e-05
2.33402e-05
7.4361e-05
2.1423e-05
7.06016e-05
1.96264e-05
6.89878e-05
1.80064e-05
6.62263e-05
1.65797e-05
5.93532e-05
1.54183e-05
4.7511e-05
1.46353e-05
3.3135e-05
1.43071e-05
2.12679e-05
1.44203e-05
1.73089e-05
1.48737e-05
2.49236e-05
1.54906e-05
4.59591e-05
1.58686e-05
7.74433e-05
1.59786e-05
0.000117688
1.56765e-05
0.000165679
1.48873e-05
0.000220614
1.32075e-05
0.00028091
1.04156e-05
0.000344044
5.73601e-06
0.000405905
-7.28525e-07
0.000460995
-9.68337e-06
0.000501986
-1.97783e-05
0.000518872
-3.08373e-05
0.000498568
-3.75026e-05
0.000467624
-3.76596e-05
0.000386548
-3.2869e-05
0.000248123
-8.3403e-06
4.42478e-05
5.95241e-05
-3.46526e-05
0.000151957
-2.61672e-05
0.000205723
5.58599e-05
0.000215298
-2.92148e-06
0.000235028
-6.52605e-06
0.000144874
-7.13976e-05
0.000277118
-7.3824e-05
1.6561e-05
-0.00017299
0.000284617
0.000382728
0.000205526
-0.000394706
0.000361402
0.000185388
-0.000144835
0.00016826
0.00033098
-0.000749127
3.05603e-05
0.000770904
-5.20725e-05
0.000333149
-0.000102724
-2.23509e-05
-0.000191863
-1.22484e-05
0.000768394
7.86638e-06
0.000152855
0.000297931
-0.000124111
7.66433e-05
0.000708715
-0.000126912
-0.000656662
-0.000336535
-0.000301401
-0.000342316
-0.000267984
-0.000344939
0.000198553
-0.000368653
0.000348707
0.000352232
-0.000213564
-0.000368477
0.000336087
0.000662528
-0.000382554
0.00080264
4.38997e-05
-2.16404e-05
-0.000715117
0.000144153
0.000675693
0.000389069
-0.000349143
-0.000465816
-0.000410852
-7.70287e-05
0.000378608
-0.00012655
-0.000711728
5.34363e-05
-0.000703031
4.74322e-05
-0.00067991
3.51013e-05
0.000107907
2.52384e-05
9.15061e-05
2.40929e-05
7.8864e-05
2.27003e-05
7.15632e-05
2.11269e-05
6.78591e-05
1.97235e-05
6.63761e-05
1.84582e-05
6.33938e-05
1.762e-05
5.62404e-05
1.64235e-05
4.36299e-05
1.59493e-05
2.82928e-05
1.55913e-05
1.50556e-05
1.56948e-05
9.23195e-06
1.59717e-05
1.5205e-05
1.61693e-05
3.21966e-05
1.60867e-05
5.79275e-05
1.57923e-05
9.0481e-05
1.53119e-05
0.000128353
1.47087e-05
0.000171263
1.37039e-05
0.000218975
1.15727e-05
0.000270435
7.5416e-06
0.000322515
7.23287e-07
0.000369965
-9.68035e-06
0.000406272
-2.32374e-05
0.000423847
-3.88868e-05
0.000417543
-5.36092e-05
0.000390422
-6.18544e-05
0.000351003
-6.83332e-05
0.000298127
-6.46976e-05
0.000239208
-4.85233e-05
0.000206229
-2.57156e-05
0.000195807
3.40395e-05
0.000140213
-3.58533e-05
6.35376e-05
0.000140595
3.68882e-05
-3.93505e-05
-4.13644e-05
0.000246602
-3.97333e-05
-2.86801e-05
-6.10565e-05
0.000311424
-0.000327962
-8.36553e-05
0.000298055
-0.000356972
-8.4329e-05
-0.000389181
-9.47841e-05
-0.00043266
-0.000112911
-0.000482799
-0.000138275
-0.000542798
-0.0001662
-0.000624587
0.000428158
0.00051843
-0.000112977
0.000245073
-0.000176912
0.000154794
-0.000190439
0.000308637
0.00018162
0.000327646
-3.76103e-05
0.000665285
2.72214e-05
3.94924e-05
0.000669886
0.000207262
-0.000431814
-0.000174443
-0.000227341
-0.000386497
0.000175242
-6.08993e-05
4.08442e-05
-0.000174348
3.60586e-05
-0.000646909
4.54309e-05
-0.000235777
0.000275125
-0.000168166
0.000128405
-7.43139e-05
-0.000620643
0.000569002
-0.000733744
-1.56568e-05
0.000692136
-0.000177152
-0.000599753
0.000207366
-0.000264748
-3.85725e-05
0.000104851
2.30704e-05
9.46385e-05
8.32491e-06
8.26351e-05
3.43426e-05
7.18164e-05
4.01596e-05
8.58332e-05
2.75706e-05
9.81614e-05
3.60536e-05
7.37922e-05
6.93928e-05
2.90381e-05
0.000108557