/*--------------------------------*- C++ -*----------------------------------*\
| =========                 |                                                 |
| \\      /  F ield         | OpenFOAM: The Open Source CFD Toolbox           |
|  \\    /   O peration     | Version:  2212                                  |
|   \\  /    A nd           | Website:  www.openfoam.com                      |
|    \\/     M anipulation  |                                                 |
\*---------------------------------------------------------------------------*/
FoamFile
{
    version     2.0;
    format      ascii;
    arch        "LSB;label=32;scalar=64";
    class       surfaceScalarField;
    location    "0.0092";
    object      phi;
}
// * * * * * * * * * * * * * * * * * * * * * * * * * * * * * * * * * * * * * //

dimensions      [1 0 -1 0 0 0 0];

oriented        oriented;

internalField   nonuniform List<scalar> 
4475
(
9.29728e-05
-9.11796e-05
0.000145388
-0.000145433
5.12139e-06
-4.54926e-05
4.73683e-06
4.10324e-05
0.000279489
-0.000304188
-5.954e-06
4.46772e-05
-3.94859e-05
0.000119376
2.86462e-05
-0.000109233
-7.66573e-05
8.0863e-05
7.48849e-05
-7.50054e-05
7.72357e-05
-6.05428e-05
-8.18893e-05
7.17346e-05
-3.0863e-05
2.87368e-05
0.000115817
-0.000109554
-6.15589e-05
-9.48078e-05
7.55047e-05
8.2322e-05
8.36924e-05
-8.10465e-05
-7.71822e-05
-2.84942e-05
-1.08794e-05
1.82881e-05
2.22935e-05
-1.50111e-05
1.83635e-05
-3.21479e-05
-5.32552e-05
6.66751e-07
5.72794e-06
4.52646e-05
-6.21294e-05
6.08026e-07
6.57234e-06
-7.14442e-05
1.83089e-06
5.85713e-06
-8.01565e-05
2.56498e-06
4.50182e-06
-8.75597e-05
2.67962e-06
2.88998e-06
2.85231e-06
-9.08445e-05
-1.36093e-06
8.90063e-05
-9.21951e-06
-9.08491e-05
1.03046e-05
8.72232e-05
3.21838e-06
7.89849e-05
8.96682e-06
6.90009e-05
1.04773e-05
5.84639e-05
1.03709e-05
4.84321e-05
8.89949e-06
4.29211e-05
5.37469e-06
3.00965e-05
-9.80886e-07
2.53458e-05
-2.62453e-06
3.18545e-05
-2.83129e-06
2.35923e-06
3.11971e-05
1.39367e-05
-5.68528e-06
0.000118784
-0.000112929
-3.12261e-05
-9.3638e-05
-7.75408e-06
3.23819e-05
9.52186e-06
-5.64265e-06
3.22008e-05
4.15851e-06
-3.37349e-06
2.84928e-05
-1.27757e-06
-1.54336e-07
2.06616e-05
-6.61441e-06
3.0869e-06
9.36352e-06
-1.07596e-05
5.8582e-06
-3.56744e-06
-1.25386e-05
7.17086e-06
-1.67784e-05
-1.15327e-05
6.39861e-06
-2.70144e-05
-7.69315e-06
3.40642e-06
-3.29217e-05
-1.8513e-06
-1.32152e-06
-3.40387e-05
4.20038e-06
-6.34699e-06
-3.13489e-05
9.46539e-06
-1.06378e-05
-2.56734e-05
1.26717e-05
-1.30604e-05
-1.74809e-05
1.43076e-05
-1.40539e-05
-7.00585e-06
1.35324e-05
-1.23724e-05
1.0962e-05
1.29517e-06
-9.33331e-06
9.43131e-06
-2.22045e-06
1.28493e-05
1.79393e-05
1.46986e-05
2.40099e-05
1.42133e-05
2.74987e-05
1.17998e-05
2.82323e-05
8.15288e-06
2.60229e-05
2.71829e-06
2.05939e-05
-3.19556e-06
1.259e-05
-9.21532e-06
2.46957e-06
-1.33848e-05
-7.41364e-06
-1.47705e-05
-1.63817e-05
-1.29816e-05
-2.27099e-05
-8.4855e-06
-2.61487e-05
-2.03198e-06
-2.69587e-05
4.56658e-06
-2.63872e-05
1.12812e-05
-2.6182e-05
1.70888e-05
-2.24906e-05
2.31366e-05
-2.5885e-05
-2.99887e-05
2.46034e-05
-3.64399e-05
2.2538e-05
-4.58619e-05
1.94913e-05
-1.25545e-05
-5.73676e-05
1.47858e-05
-6.6241e-05
1.31511e-05
-7.48799e-05
1.22312e-05
-8.30864e-05
1.02749e-05
-8.96305e-05
6.75677e-06
-9.58443e-05
2.06733e-06
6.76582e-06
-3.06182e-06
1.66511e-05
1.12172e-05
1.11021e-05
8.98303e-05
6.91366e-06
-9.53696e-05
7.98274e-05
1.61487e-05
6.83868e-05
1.86174e-05
5.64213e-05
1.9057e-05
4.5668e-05
1.71067e-05
3.66097e-05
1.37548e-05
2.85071e-05
9.29784e-06
2.56031e-05
6.1322e-06
2.85367e-05
3.22015e-06
3.22184e-05
4.14235e-07
3.51431e-05
-1.4373e-06
3.56814e-05
-1.95432e-06
3.20357e-05
-1.69034e-06
2.35969e-05
-1.18849e-06
1.07967e-05
-6.33419e-07
-4.30465e-06
-5.76077e-07
-1.98753e-05
-1.39358e-06
-3.20181e-05
-3.29477e-06
-3.83661e-05
-6.11894e-06
-3.86112e-05
-9.17505e-06
-3.42057e-05
-1.17332e-05
-2.64616e-05
-1.3011e-05
-1.63906e-05
-1.32873e-05
-3.59934e-06
-1.09974e-05
8.02076e-06
-7.74292e-06
-1.38913e-05
-9.49197e-05
1.78986e-05
-3.65655e-08
2.35722e-05
-1.93176e-05
-8.87823e-05
-9.91898e-05
-6.573e-06
3.88033e-06
7.43099e-06
1.61632e-05
1.03456e-05
1.4886e-05
1.70269e-05
1.59204e-05
2.14605e-05
1.35902e-05
2.30996e-05
1.06038e-05
2.22291e-05
6.88056e-06
1.92046e-05
1.96271e-06
1.43172e-05
-3.1297e-06
8.02217e-06
-8.22871e-06
9.39827e-07
-1.20703e-05
-5.73524e-06
-1.35846e-05
-1.16159e-05
-1.21934e-05
-1.59338e-05
-7.9684e-06
-1.84892e-05
-1.55836e-06
-1.98268e-05
5.2495e-06
-2.08711e-05
1.22445e-05
-2.30574e-05
1.82583e-05
-2.58995e-05
2.3042e-05
-3.13405e-05
2.55797e-05
-3.99932e-05
2.61434e-05
-4.93589e-05
2.40534e-05
-5.96517e-05
2.09856e-05
-6.91882e-05
1.90878e-05
-7.81325e-05
1.75089e-05
-8.70485e-05
1.51382e-05
-9.48895e-05
1.03088e-05
-0.00010072
3.82896e-06
-7.43849e-05
0.000121229
-0.000108787
5.13762e-05
-9.44924e-05
-3.16915e-05
7.99475e-05
-6.40717e-05
-5.50692e-05
7.13393e-05
5.18278e-05
6.91148e-05
0.000110107
2.70817e-05
-3.19038e-05
-0.00010611
9.32877e-05
2.07099e-05
8.15323e-05
2.3538e-05
6.84117e-05
2.65181e-05
5.53417e-05
2.69112e-05
4.29192e-05
2.53591e-05
3.2731e-05
2.23898e-05
2.56378e-05
1.8548e-05
2.35566e-05
1.46748e-05
2.61094e-05
1.06737e-05
3.06452e-05
6.67051e-06
3.47011e-05
3.01133e-06
3.59772e-05
-7.94637e-08
3.26395e-05
-3.02873e-06
2.40996e-05
-5.4576e-06
1.09108e-05
-7.48217e-06
-5.14798e-06
-9.10118e-06
-2.17216e-05
-1.04682e-05
-3.485e-05
-1.13974e-05
-4.14642e-05
-1.21089e-05
-4.12831e-05
-1.24892e-05
-3.55967e-05
-1.30547e-05
-2.62498e-05
-1.28012e-05
-1.45169e-05
-1.20344e-05
1.54342e-06
-9.03708e-06
1.6044e-05
-5.71318e-06
3.16221e-05
3.003e-06
-9.66425e-06
5.8803e-05
1.38407e-05
-4.99243e-06
5.02768e-05
5.82252e-07
4.09275e-05
6.97921e-06
3.1766e-05
-6.91846e-05
6.7502e-05
-9.14842e-05
2.46617e-05
1.29815e-05
-0.000104418
-8.93175e-05
0.000116343
-8.48375e-05
0.000125796
6.89974e-05
-0.000114253
-2.14722e-05
-9.77743e-05
0.000100281
-7.71979e-05
9.19395e-05
-0.000116594
7.39535e-05
8.3974e-05
-7.29332e-05
-0.000122077
5.81842e-06
2.22973e-05
-0.000106334
-4.03214e-06
-1.39533e-05
1.74768e-05
6.75215e-05
-1.06608e-05
5.62479e-05
-6.65838e-06
4.50477e-05
-1.38204e-06
3.57525e-05
4.47966e-06
2.98016e-05
-1.88168e-05
1.16493e-05
2.50344e-05
-5.39139e-06
1.91405e-05
3.86882e-06
2.03877e-05
9.19557e-06
1.69053e-05
1.46791e-05
1.6882e-05
1.79183e-05
1.28535e-05
1.85633e-05
9.43236e-06
1.68686e-05
5.90992e-06
1.33923e-05
1.91154e-06
8.78017e-06
-1.89118e-06
3.88662e-06
-5.54922e-06
-6.27632e-07
-8.3484e-06
-4.38819e-06
-9.54045e-06
-7.21899e-06
-8.46804e-06
-9.09369e-06
-4.93321e-06
-1.05349e-05
4.12872e-07
-1.21991e-05
6.69603e-06
-1.48458e-05
1.30335e-05
-1.92353e-05
1.84718e-05
-2.55075e-05
2.26879e-05
-3.3553e-05
2.55833e-05
-4.21081e-05
2.65061e-05
-5.16917e-05
2.62184e-05
-6.1681e-05
2.46787e-05
-7.13207e-05
2.29506e-05
-8.11001e-05
2.14149e-05
-9.06807e-05
1.84415e-05
-0.000100106
1.34093e-05
5.63081e-06
-0.000107466
2.28188e-05
-1.86428e-05
-0.000111156
0.000109957
0.000118068
-0.000152716
0.000137798
-0.000101468
8.16468e-05
-7.56993e-05
7.48391e-05
0.000101782
1.4156e-05
6.06587e-06
0.00010952
2.56231e-05
-3.12541e-05
0.000114085
2.7791e-05
0.000115342
2.71253e-05
-2.4747e-05
0.000114163
2.63917e-05
0.000111685
2.7342e-05
-2.45974e-05
0.000107935
2.86629e-05
9.57679e-05
2.8331e-05
8.27435e-05
3.00318e-05
6.87962e-05
3.27707e-05
5.44371e-05
3.35434e-05
4.07582e-05
3.26698e-05
2.97507e-05
3.00698e-05
2.24885e-05
2.67722e-05
2.0207e-05
2.26575e-05
2.25394e-05
1.80078e-05
2.71471e-05
1.28033e-05
3.12667e-05
7.46611e-06
3.27718e-05
1.82658e-06
3.00183e-05
-3.81797e-06
2.19843e-05
-9.11441e-06
9.31714e-06
-1.378e-05
-6.21507e-06
-1.72489e-05
-2.23973e-05
-1.92705e-05
-3.51302e-05
-1.95603e-05
-4.18846e-05
-1.82071e-05
-4.14121e-05
-1.63343e-05
-3.53548e-05
-1.44897e-05
-2.51828e-05
-1.23258e-05
-1.19552e-05
-1.02124e-05
5.89857e-06
-6.22391e-06
2.45878e-05
-2.66274e-06
4.0793e-05
6.42387e-06
6.68941e-05
1.83744e-05
2.13253e-05
7.8769e-05
4.70502e-05
0.000250265
-0.000189063
-9.12248e-05
-8.75159e-05
8.0648e-05
-0.000216905
0.000212028
1.28269e-05
-2.20323e-05
-6.15482e-06
0.000106097
5.51716e-06
-0.000107652
-0.000288727
-8.00056e-05
0.000134004
0.000237555
-0.000104962
-7.3617e-05
-1.71743e-05
-0.000111602
-0.000107772
-1.93686e-05
0.00011155
-1.31793e-05
2.05679e-05
1.80973e-05
-4.6206e-06
2.65056e-05
2.42104e-06
2.29322e-05
6.3878e-06
1.8848e-05
1.0936e-05
1.78908e-05
1.37733e-05
1.22892e-05
1.43145e-05
8.79806e-06
1.26021e-05
5.51133e-06
9.09357e-06
2.59085e-06
4.75893e-06
1.75422e-07
8.73551e-07
-1.92901e-06
-1.87684e-06
-3.43659e-06
-3.31667e-06
-3.78961e-06
-3.61893e-06
-2.58141e-06
-3.36687e-06
1.59242e-07
-3.70209e-06
4.08325e-06
-5.52375e-06
9.01957e-06
-9.39271e-06
1.4042e-05
-1.58174e-05
1.8291e-05
-2.42327e-05
2.1539e-05
-3.37761e-05
2.40713e-05
-4.33588e-05
2.51792e-05
-5.31882e-05
2.61499e-05
-6.32614e-05
2.58432e-05
-7.3509e-05
2.46135e-05
-8.3798e-05
2.30653e-05
-9.4109e-05
1.99564e-05
-0.000103711
1.46302e-05
-0.000113515
8.33674e-06
-1.66601e-06
-0.000113943
-8.10514e-05
-8.30677e-05
8.63695e-05
-4.21092e-05
-0.000127719
0.000120865
4.34102e-05
0.000106885
1.9904e-05
-0.000112738
0.000111837
2.2817e-05
0.000116177
2.67915e-05
0.00011808
2.83499e-05
0.000117869
2.80844e-05
0.000115083
2.90657e-05
0.000108965
3.07395e-05
9.80172e-05
3.24264e-05
8.41395e-05
3.47056e-05
6.94228e-05
3.705e-05
5.36384e-05
3.87572e-05
3.89693e-05
3.82005e-05
2.68638e-05
3.64188e-05
1.89756e-05
3.35091e-05
1.6027e-05
2.93541e-05
1.76728e-05
2.42786e-05
2.16551e-05
1.81299e-05
2.54218e-05
1.13194e-05
2.68994e-05
3.68885e-06
2.43431e-05
-4.00491e-06
1.72311e-05
-1.1849e-05
5.86558e-06
-1.87257e-05
-8.09903e-06
-2.39072e-05
-2.22515e-05
-2.66232e-05
-3.35995e-05
-2.64032e-05
-3.94459e-05
-2.38805e-05
-3.89742e-05
-2.00408e-05
-3.33174e-05
-1.56757e-05
-2.27411e-05
-1.16102e-05
-8.3695e-06
-7.58246e-06
1.05731e-05
-2.17039e-06
3.33897e-05
2.21791e-06
5.10907e-05
1.04148e-05
7.45794e-05
2.32133e-05
8.77603e-05
2.59549e-05
-3.6649e-05
3.67671e-05
8.22656e-05
-3.59604e-05
7.51182e-05
-3.3213e-05
6.86711e-05
-2.7423e-05
6.42488e-05
-1.75272e-05
5.87611e-05
-5.07422e-06
5.38219e-05
4.43808e-06
5.33626e-05
1.13324e-05
4.95004e-05
4.00001e-05
1.95324e-05
-0.000232354
-3.33842e-05
4.12388e-05
2.64668e-05
-1.30029e-05
-0.000286383
0.000289102
-6.60371e-05
5.54565e-05
-5.76613e-05
6.82303e-05
-0.000127016
-6.93e-05
0.000106864
0.000132877
-0.000145603
-3.44681e-05
4.77953e-05
8.67509e-05
-0.000119304
-5.42681e-07
-1.16692e-05
-0.000120966
-7.38354e-05
-9.23973e-05
8.43844e-05
-0.00010282
-5.90382e-05
3.28887e-05
-0.000139505
7.73083e-05
-9.11481e-05
0.000154932
7.15632e-05
8.97519e-05
0.000110479
-0.000109146
1.85404e-05
0.000112565
2.29356e-05
0.000117204
2.52092e-05
0.000120417
2.76006e-05
0.000120965
2.79643e-05
0.000118187
2.93291e-05
0.000111352
3.15951e-05
0.000100354
3.41443e-05
8.61738e-05
3.69492e-05
7.04032e-05
3.9773e-05
5.35557e-05
4.17581e-05
3.75311e-05
4.20226e-05
2.42391e-05
4.08854e-05
1.53414e-05
3.83399e-05
1.12868e-05
3.43145e-05
1.18079e-05
2.89062e-05
1.46409e-05
2.21207e-05
1.75206e-05
1.43133e-05
1.84804e-05
5.34952e-06
1.62571e-05
-3.99503e-06
1.01485e-05
-1.34113e-05
7.67885e-07
-2.18794e-05
-1.06005e-05
-2.82836e-05
-2.18515e-05
-3.15033e-05
-3.04891e-05
-3.13763e-05
-3.4825e-05
-2.81376e-05
-3.43323e-05
-2.28417e-05
-2.89519e-05
-1.6491e-05
-1.81735e-05
-1.06827e-05
-3.48841e-06
-4.28891e-06
1.62783e-05
2.76619e-06
4.18814e-05
8.99703e-06
6.22565e-05
1.53307e-05
8.1679e-05
2.82212e-05
9.30487e-05
3.08116e-05
8.61229e-05
3.8823e-05
-3.27003e-05
3.05771e-05
6.51376e-05
-3.38387e-05
6.54145e-05
-3.21506e-05
6.36568e-05
-2.926e-05
6.44356e-05
-2.56322e-05
6.63798e-05
-2.03132e-05
6.45559e-05
-1.44338e-05
6.23099e-05
-7.93537e-06
6.31023e-05
1.02265e-06
5.75791e-05
9.72667e-06
4.66781e-05
-2.77883e-05
3.41645e-05
1.59856e-05
-1.69537e-05
3.15311e-05
-9.95506e-06
2.26072e-05
-6.14381e-06
3.28698e-05
-5.42995e-07
2.36723e-05
1.78743e-06
2.20229e-05
6.40921e-06
1.85864e-05
9.30006e-06
1.23921e-05
1.04629e-05
9.07339e-06
9.42868e-06
6.05811e-06
6.40893e-06
4.01042e-06
2.57067e-06
2.76882e-06
-5.74179e-07
2.10585e-06
-2.25307e-06
2.02713e-06
-2.07028e-06
2.65174e-06
-6.19739e-07
4.0266e-06
7.31639e-07
6.0863e-06
1.29297e-06
8.83696e-06
-5.80381e-07
1.19493e-05
-5.36757e-06
1.51741e-05
-1.29524e-05
1.77728e-05
-2.27209e-05
1.98693e-05
-3.33977e-05
2.17395e-05
-4.39334e-05
2.27384e-05
-5.41155e-05
2.409e-05
-6.42243e-05
2.40888e-05
-7.48019e-05
2.34871e-05
-8.56629e-05
2.24804e-05
-9.69235e-05
1.99634e-05
-0.000108208
1.55729e-05
8.65059e-06
-0.000116706
-8.61239e-05
-8.36613e-05
8.69255e-05
-8.5276e-06
-0.000124
-0.00013514
-1.35848e-05
2.93702e-05
-1.59462e-05
-7.42322e-05
-0.000103128
0.00011915
-0.000111377
-6.85208e-05
0.000111697
-6.51488e-05
-6.19436e-05
9.58996e-05
-0.000115032
-5.00229e-05
0.000115209
1.70498e-05
-2.73206e-06
0.00011215
1.32115e-05
-0.00011075
0.000110789
1.97422e-05
0.000113635
2.21692e-05
0.000118048
2.35959e-05
0.000122485
2.49696e-05
0.000123677
2.61668e-05
0.000121325
2.78069e-05
0.000114212
3.10296e-05
0.000103007
3.38731e-05
8.83847e-05
3.71618e-05
7.19838e-05
4.0425e-05
5.38159e-05
4.27648e-05
3.64983e-05
4.37875e-05
2.19155e-05
4.31933e-05
1.16209e-05
4.10421e-05
6.05239e-06
3.72801e-05
5.07988e-06
3.1611e-05
6.42567e-06
2.48038e-05
8.1772e-06
1.61938e-05
8.53053e-06
6.48431e-06
6.48327e-06
-3.57999e-06
1.62857e-06
-1.38459e-05
-5.55013e-06
-2.30833e-05
-1.37876e-05
-3.00943e-05
-2.12669e-05
-3.37799e-05
-2.66163e-05
-3.38269e-05
-2.90492e-05
-3.02641e-05
-2.77475e-05
-2.44471e-05
-2.20306e-05
-1.69228e-05
-1.13894e-05
-9.42373e-06
2.71623e-06
-1.20119e-06
2.36581e-05
7.56689e-06
5.03597e-05
1.70108e-05
7.36851e-05
2.18232e-05
8.90249e-05
3.43315e-05
9.55676e-05
3.50819e-05
8.3959e-05
4.38212e-05
5.83995e-05
3.02435e-05
-2.86166e-05
-7.77588e-06
2.17305e-05
-4.05486e-05
1.26129e-05
-4.65987e-05
2.1174e-05
-4.43823e-05
2.43912e-05
-4.00187e-05
3.40703e-05
-3.53267e-05
4.59223e-05
-2.3978e-05
4.87371e-05
-8.74693e-06
5.59995e-05
-5.01445e-06
7.77577e-05
-8.48072e-06
8.49119e-05
-6.72574e-06
6.85919e-05
9.86352e-06
3.73652e-05
-2.6857e-05
1.30523e-05
3.78249e-05
-2.13948e-05
1.9031e-05
-1.60756e-05
4.38311e-05
-1.07296e-05
2.52382e-05
-9.36715e-06
3.67681e-05
-5.82885e-06
2.42894e-05
-2.82171e-06
2.48318e-05
1.72311e-06
1.85141e-05
4.84692e-06
1.34583e-05
7.13326e-06
1.03911e-05
7.12101e-06
7.7397e-06
5.01782e-06
6.29023e-06
1.84327e-06
5.86446e-06
-7.17878e-07
6.25121e-06
-1.63402e-06
7.21987e-06
-6.60666e-07
8.51626e-06
1.16069e-06
1.00152e-05
3.39447e-06
1.16846e-05
4.48435e-06
1.33768e-05
2.69419e-06
1.48982e-05
-2.78183e-06
1.61687e-05
-1.10813e-05
1.71406e-05
-2.14521e-05
1.7935e-05
-3.25229e-05
1.88951e-05
-4.36374e-05
1.95876e-05
-5.42307e-05
2.06659e-05
-6.50507e-05
2.07604e-05
-7.62512e-05
2.01671e-05
-8.73937e-05
1.95797e-05
-9.87346e-05
1.77861e-05
-0.000109546
1.45551e-05
9.38297e-06
-0.000118954
-0.000122683
4.32757e-07
-8.4124e-05
-9.43515e-05
-8.19977e-05
-9.35238e-05
9.25979e-05
4.97649e-05
9.18566e-05
-0.000106899
-3.53869e-05
-0.000125152
-7.5518e-06
-0.000111238
-4.22852e-05
2.01966e-05
-0.000120792
-5.69122e-05
-0.000121329
-6.7644e-05
9.65324e-07
-4.05554e-05
-9.2319e-05
-4.93864e-05
-8.89471e-05
-4.40252e-07
-0.000125076
-1.10026e-05
-7.88357e-05
-0.000107202
-0.000112264
-7.88973e-05
-1.52681e-05
-4.47146e-06
-2.36912e-05
-2.35996e-05
8.40022e-06
-2.87306e-05
1.73597e-05
-3.06241e-05
1.24315e-05
-3.12784e-05
1.91405e-05
-3.17193e-05
3.31981e-05
-2.91874e-05
3.78956e-05
-2.41592e-05
4.82228e-05
-1.90693e-05
7.38961e-05
-1.06479e-05
8.2565e-05
-8.77028e-07
6.87162e-05
4.3785e-06
4.36565e-05
2.52868e-06
2.50377e-05
-2.06846e-05
-1.61571e-06
3.16606e-05
-2.97422e-05
5.66979e-05
-2.49748e-05
1.93941e-05
-1.94439e-05
4.94512e-05
-1.55486e-05
2.59361e-05
-1.37727e-05
3.67263e-05
-1.08671e-05
2.44171e-05
-7.5033e-06
2.55658e-05
-3.46689e-06
1.86712e-05
6.38832e-07
1.55816e-05
4.25661e-06
1.26908e-05
5.46221e-06
1.05021e-05
4.45826e-06
9.49584e-06
2.12997e-06
9.44807e-06
8.05e-08
1.02755e-05
-3.76211e-07
1.16145e-05
5.44442e-07
1.31169e-05
2.67805e-06
1.45363e-05
5.06981e-06
1.57221e-05
6.0569e-06
1.65572e-05
4.06467e-06
1.6884e-05
-1.7776e-06
1.68109e-05
-1.03112e-05
1.64666e-05
-2.08322e-05
1.61291e-05
-3.19781e-05
1.6083e-05
-4.30973e-05
1.6015e-05
-5.41769e-05
1.67851e-05
-6.51573e-05
1.60636e-05
-7.70395e-05
1.5773e-05
-8.82564e-05
1.49128e-05
-9.95678e-05
1.39803e-05
-0.000110083
1.23204e-05
9.99254e-06
-0.000119598
1.588e-06
-0.00012499
7.70719e-05
-6.63878e-05
-8.04325e-05
-8.02074e-05
-0.000106695
8.65713e-05
-2.27485e-05
2.66471e-05
-9.06599e-05
0.000276263
-3.48719e-05
-0.000261222
2.52459e-05
0.000108572
2.03441e-05
-0.000109294
0.000113222
1.96621e-05
0.000119335
2.01979e-05
0.000124357
2.13642e-05
0.00012615
2.31043e-05
0.000124121
2.49991e-05
0.000117339
2.88205e-05
0.000105902
3.18976e-05
9.10833e-05
3.5538e-05
7.39574e-05
3.90979e-05
5.45468e-05
4.18652e-05
3.58492e-05
4.34305e-05
1.97521e-05
4.33805e-05
7.84236e-06
4.15782e-05
7.00148e-07
3.79544e-05
-1.90424e-06
3.23756e-05
-2.13508e-06
2.54769e-05
-1.69533e-06
1.70153e-05
-1.9615e-06
7.39427e-06
-3.78528e-06
-2.73019e-06
-7.37514e-06
-1.31076e-05
-1.22928e-05
-2.24186e-05
-1.71762e-05
-2.94992e-05
-2.0875e-05
-3.32714e-05
-2.29072e-05
-3.349e-05
-2.26039e-05
-3.03692e-05
-1.97236e-05
-2.45008e-05
-1.33323e-05
-1.65936e-05
-2.50879e-06
-7.79906e-06
1.29178e-05
1.75214e-06
3.31155e-05
1.1087e-05
5.86559e-05
2.36359e-05
8.30642e-05
2.88156e-05
9.65185e-05
4.17628e-05
9.76478e-05
3.90569e-05
7.93406e-05
4.91884e-05
4.78972e-05
3.0901e-05
-2.15979e-05
2.04219e-05
-8.16591e-05
-2.39904e-05
-7.85571e-05
-0.000102341
9.97934e-05
-9.3944e-05
-9.3157e-05
0.000217644
-1.41084e-06
1.99073e-05
-0.000215109
-0.000104808
-1.55883e-05
-8.37731e-05
-0.000122174
-1.22872e-05
-3.54091e-05
4.50666e-05
-6.4151e-06
-3.50493e-05
6.18875e-05
-3.06212e-05
1.78246e-05
-2.3555e-05
4.79154e-05
-2.05207e-05
2.48135e-05
-1.8216e-05
3.41634e-05
-1.54934e-05
2.326e-05
-1.19085e-05
2.49397e-05
-8.06466e-06
1.90966e-05
-2.46421e-06
1.79154e-05
2.10387e-06
1.55508e-05
4.3577e-06
1.40978e-05
4.40817e-06
1.34149e-05
2.89893e-06
1.33821e-05
1.24966e-06
1.40117e-05
8.13276e-07
1.50262e-05
1.80772e-06
1.6107e-05
3.78179e-06
1.70311e-05
5.82127e-06
1.76233e-05
6.44195e-06
1.77372e-05
4.14525e-06
1.73856e-05
-1.9202e-06
1.66913e-05
-1.0562e-05
1.57213e-05
-2.09595e-05
1.46504e-05
-3.20168e-05
1.36742e-05
-4.33202e-05
1.28215e-05
-5.41889e-05
1.23131e-05
-6.55201e-05
1.11137e-05
-7.72561e-05
1.07088e-05
-8.85857e-05
9.76212e-06
-9.94823e-05
9.12146e-06
-0.000109251
9.1515e-06
-0.000118408
1.0235e-05
4.53586e-06
-0.000127563
7.92901e-05
-6.21769e-05
6.71076e-05
-0.00011521
-7.15115e-05
1.50718e-05
-1.45198e-05
-9.27172e-05
5.18356e-06
-5.77207e-05
-1.5103e-05
-2.85014e-05
-2.47696e-05
-3.03581e-05
-1.72418e-05
-4.74203e-05
-7.25671e-06
-3.49868e-05
-2.44031e-06
-1.05499e-05
7.73497e-06
-5.36909e-06
2.42316e-05
4.11068e-06
9.88535e-06
7.12172e-05
-2.81317e-05
0.00011403
-5.63704e-05
9.76866e-05
-3.89656e-05
3.10944e-05
8.44244e-06
-1.5622e-05
5.55568e-05
-1.14167e-05
8.47342e-05
1.80293e-05
9.3519e-05
-6.28678e-05
-9.10477e-05
0.000131594
-7.8007e-05
0.000126325
-6.50107e-05
0.000118152
-5.37704e-05
-4.5974e-05
-7.9203e-05
7.13903e-05
8.57168e-05
-3.26096e-05
-0.000115704
-6.07506e-05
5.58721e-05
1.47592e-06
1.63812e-06
-3.77505e-05
-9.85391e-05
9.61497e-05
0.00010497
1.53634e-05
-9.95823e-05
0.000112481
1.47334e-05
0.00012011
1.54728e-05
0.000125905
1.70283e-05
0.000128653
1.89658e-05
0.000126716
2.16695e-05
0.000120626
2.50201e-05
0.000109009
2.85944e-05
9.41095e-05
3.24007e-05
7.6266e-05
3.6121e-05
5.57496e-05
3.91903e-05
3.55184e-05
4.11759e-05
1.78333e-05
4.15245e-05
4.1423e-06
4.00542e-05
-4.92033e-06
3.6641e-05
-8.90142e-06
3.14242e-05
-1.05451e-05
2.4742e-05
-1.12334e-05
1.67817e-05
-1.21853e-05
7.80848e-06
-1.39906e-05
-1.70327e-06
-1.66031e-05
-1.13569e-05
-1.91855e-05
-2.01464e-05
-2.07473e-05
-2.68044e-05
-2.08508e-05
-3.04643e-05
-1.93867e-05
-3.09106e-05
-1.63568e-05
-2.82686e-05
-1.1448e-05
-2.29792e-05
-3.67331e-06
-1.54571e-05
7.70534e-06
-6.32978e-06
2.39409e-05
4.32722e-06
4.4046e-05
1.37544e-05
6.73774e-05
2.82972e-05
9.06987e-05
3.3554e-05
0.000102839
4.83145e-05
9.83566e-05
4.31012e-05
7.25167e-05
5.515e-05
3.23739e-05
3.31629e-05
-3.9655e-05
2.76826e-05
-0.000121425
-2.67634e-05
-0.000131899
-4.93772e-06
1.83661e-05
0.000226214
-7.86714e-06
-9.74621e-06
-0.000124178
-7.0878e-05
3.91241e-05
-7.33184e-05
-0.000113834
0.000109217
-8.87988e-05
-0.000110648
-8.84971e-05
-0.000105918
-0.000218037
-3.94761e-06
0.000244209
0.000233688
3.05372e-05
-0.000205594
9.39663e-05
-1.17461e-05
-0.000121472
1.61804e-05
-0.000135199
9.16315e-05
6.05894e-05
-6.06895e-05
-4.25175e-05
-0.000244852
5.23017e-05
4.9411e-05
-7.61314e-05
-6.53627e-05
9.19479e-05
3.63237e-05
-0.000259592
-5.19096e-05
0.000298157
-5.75295e-05
7.09935e-05
7.11126e-05
-5.01393e-05
-1.16776e-05
-4.01009e-05
5.42014e-05
-3.57924e-05
1.49234e-05
-2.74154e-05
4.15488e-05
-2.46485e-05
2.19577e-05
-2.15355e-05
2.98757e-05
-1.87041e-05
2.09244e-05
-1.48398e-05
2.33594e-05
-1.05985e-05
1.9398e-05
-4.14314e-06
1.99728e-05
8.9084e-07
1.86424e-05
3.82657e-06
1.80426e-05
4.59741e-06
1.75562e-05
3.71473e-06
1.72857e-05
2.38477e-06
1.72358e-05
1.95134e-06
1.72996e-05
2.76387e-06
1.73545e-05
4.43348e-06
1.73264e-05
6.05855e-06
1.71714e-05
6.21793e-06
1.68469e-05
3.66035e-06
1.63307e-05
-2.57899e-06
1.56329e-05
-1.13277e-05
1.46656e-05
-2.16991e-05
1.33717e-05
-3.26729e-05
1.17996e-05
-4.37646e-05
1.01376e-05
-5.49913e-05
8.69018e-06
-6.6382e-05
6.54068e-06
-7.77559e-05
5.70609e-06
-8.86109e-05
4.69306e-06
-9.92109e-05
4.45449e-06
-0.000107939
5.43858e-06
-0.000113509
7.21312e-06
1.26484e-05
-0.000114809
9.27571e-05
-5.46878e-05
-0.000189306
0.000169591
-7.06568e-05
0.000106278
-7.28795e-05
-0.000221867
0.000149379
-0.000121393
-0.00013352
0.000132529
-9.15287e-05
6.88458e-05
-5.82122e-05
5.03807e-06
-2.32436e-05
-4.64947e-05
-2.508e-05
-5.17015e-05
-8.91898e-05
-2.7345e-05
-9.70231e-05
-3.32098e-05
-3.56889e-05
-2.80189e-05
-4.3045e-05
-2.7646e-05
-1.60447e-05
-2.17532e-05
5.27953e-05
-5.39302e-06
9.13205e-05
9.64473e-06
8.43894e-05
-3.65475e-07
5.50488e-05
-2.74912e-05
1.92727e-05
-4.70325e-05
1.7819e-05
-7.41967e-05
5.85084e-05
-9.26169e-05
9.40813e-05
-8.32902e-05
0.00014099
-7.35126e-05
0.00013167
-5.80382e-05
0.000120124
-4.72554e-05
0.000105368
-3.80678e-05
-4.49651e-05
9.23556e-05
2.88514e-05
-3.74405e-05
0.000114114
-0.000133595
9.92401e-05
1.42081e-05
-9.39856e-05
-2.01991e-05
0.000105077
1.12548e-05
0.000113081
1.0211e-05
0.000121256
1.0808e-05
0.000127813
1.23993e-05
0.000131076
1.46386e-05
0.000129981
1.74833e-05
0.000123891
2.07773e-05
0.000112219
2.43948e-05
9.72509e-05
2.81727e-05
7.87737e-05
3.1874e-05
5.71875e-05
3.5083e-05
3.54131e-05
3.72958e-05
1.59836e-05
3.79502e-05
4.50919e-07
3.68339e-05
-1.0532e-05
3.37359e-05
-1.5968e-05
2.91124e-05
-1.87647e-05
2.30339e-05
-2.04595e-05
1.59482e-05
-2.20033e-05
7.98457e-06
-2.38569e-05
-5.05058e-07
-2.55496e-05
-9.05076e-06
-2.60016e-05
-1.68163e-05
-2.45395e-05
-2.2696e-05
-2.13037e-05
-2.61124e-05
-1.67128e-05
-2.67191e-05
-1.09439e-05
-2.4676e-05
-3.77805e-06
-2.02236e-05
5.53015e-06
-1.35494e-05
1.79267e-05
-5.01759e-06
3.50302e-05
5.69325e-06
5.54489e-05
1.54761e-05
7.79537e-05
3.03217e-05
9.83268e-05
3.61224e-05
0.000107811
5.21757e-05
9.68602e-05
4.67655e-05
6.54869e-05
5.99378e-05
1.62701e-05
3.82338e-05
-5.8969e-05
4.26924e-05
-0.000142805
-5.93987e-06
-0.000159081
1.70529e-05
-0.00017966
-6.78169e-05
9.69011e-05
-5.80612e-05
-9.58391e-05
-1.35809e-05
-0.00012499
9.73827e-05
-0.000134513
-0.000111234
0.000105289
-5.2993e-05
5.95738e-05
-0.000117377
-5.87815e-05
6.46365e-05
-6.67992e-05
-0.000124015
-0.000121758
-1.2887e-05
-0.000125172
-0.000118044
-8.33958e-05
-0.000105215
-0.000109786
0.000283076
-0.000258766
2.84882e-05
0.000149357
-5.40797e-05
4.09427e-05
-0.000149334
-0.000301343
0.000276499
-4.99439e-05
8.95124e-05
-5.46945e-05
0.000109204
1.71829e-06
-4.42015e-05
9.78704e-05
4.55909e-05
0.000223454
-0.000211154
2.89711e-05
3.09699e-05
0.000231476
0.000110443
6.79143e-06
0.000105406
4.40882e-06
9.80129e-05
1.77377e-06
8.8295e-05
4.33929e-07
7.8168e-05
2.98408e-07
6.73811e-05
1.39481e-06
5.59127e-05
3.28581e-06
4.51361e-05
5.60406e-06
3.3912e-05
8.11593e-06
2.26156e-05
1.03478e-05
1.18988e-05
1.21146e-05
2.83357e-06
1.32503e-05
-3.5759e-06
1.37616e-05
-6.24476e-06
1.40844e-05
-6.21151e-06
1.4412e-05
-4.82628e-06
1.49753e-05
-3.3468e-06
1.58153e-05
-2.65027e-06
1.69127e-05
-3.12931e-06
1.81611e-05
-4.38011e-06
1.94185e-05
-5.04866e-06
2.0496e-05
-4.03799e-06
2.12487e-05
-8.67841e-07
2.16309e-05
4.24641e-06
2.14027e-05
1.07793e-05
2.15121e-05
1.54992e-05
1.92274e-05
1.99585e-05
2.10282e-05
2.32937e-05
1.7637e-05
2.73632e-05
2.42935e-05
3.05517e-05
1.7603e-05
4.04321e-05
3.20852e-05
4.54909e-05
1.05232e-05
6.36969e-05
3.71137e-05
7.06776e-05
-1.94537e-05
0.000111456
2.68637e-05
0.000130954
-0.000110619
1.9715e-05
0.000238129
-1.26044e-05
2.91492e-05
-1.70688e-05
-0.00019235
2.59639e-05
-0.000135324
9.43423e-06
-7.86116e-05
1.66832e-05
-4.75251e-05
1.28105e-05
6.37151e-06
1.23595e-05
-8.77956e-06
4.11779e-05
-0.000101626
5.04307e-05
-0.000111081
4.87845e-05
-5.33739e-05
3.13793e-05
-4.07501e-05
4.13004e-05
-4.62822e-05
5.05545e-05
1.55734e-05
-2.27531e-05
0.000143488
-8.53638e-05
0.000142882
-9.13782e-05
6.4168e-05
-3.712e-05
-1.85587e-05
3.68782e-05
-3.7231e-05
0.000116083
-7.52833e-06
9.07816e-05
0.000137077
-9.52227e-06
0.000238379
9.99095e-05
-5.04762e-05
-2.80391e-05
-0.000122132
-4.83109e-05
0.000100619
5.55484e-05
3.53014e-05
0.000244938
-0.000176868
-8.26883e-05
2.79703e-05
-0.000188732
2.66418e-05
-0.00019162
3.158e-05
-0.000194849
0.000209947
3.61001e-05
-0.000194873
0.000219948
3.87097e-05
0.000229739
4.03516e-05
-3.72413e-05
5.42687e-05
0.000229597
0.000102644
-5.40905e-05
3.08983e-06
0.000241119
-0.000230252
3.49808e-06
2.59751e-05
0.000131796
-2.19374e-05
2.55567e-05
0.000170289
-0.00020534
-1.22419e-05
0.000164603
-0.000118362
-4.6037e-05
0.000110424
-0.000126459
-5.25472e-05
-6.02114e-05
-0.000134683
-1.34906e-05
-0.000115661
9.65574e-05
-5.13658e-05
-9.77339e-05
-2.3672e-05
3.60886e-05
0.000153179
-5.75333e-05
0.000139265
-4.68617e-05
0.000124461
-3.76919e-05
0.000114026
-3.44883e-05
-3.66979e-05
9.84969e-05
-7.26397e-05
0.000109647
4.91604e-05
4.52848e-05
-2.25099e-05
-7.90998e-05
5.28858e-05
9.29681e-05
1.83167e-05
-2.29079e-05
-8.96835e-05
9.80101e-05
1.04507e-05
0.000105491
7.24279e-06
0.000114173
6.20981e-06
0.000122699
6.75916e-06
0.000129541
8.28654e-06
0.000133303
1.0463e-05
0.000132701
1.32057e-05
0.000126845
1.63545e-05
0.000115216
1.97114e-05
0.000100173
2.33062e-05
8.11173e-05
2.68057e-05
5.85091e-05
2.99467e-05
3.52105e-05
3.22185e-05
1.40406e-05
3.30921e-05
-3.20756e-06
3.23146e-05
-1.598e-05
2.97483e-05
-2.28307e-05
2.58963e-05
-2.66437e-05
2.07744e-05
-2.91806e-05
1.48025e-05
-3.12675e-05
8.05374e-06
-3.31622e-05
8.16364e-07
-3.40101e-05
-6.44134e-06
-3.26123e-05
-1.29902e-05
-2.85888e-05
-1.79758e-05
-2.25509e-05
-2.09817e-05
-1.52525e-05
-2.1723e-05
-7.00758e-06
-2.02803e-05
2.41955e-06
-1.67484e-05
1.38402e-05
-1.11257e-05
2.77401e-05
-3.76308e-06
4.5673e-05
5.97361e-06
6.68183e-05
1.53304e-05
8.90183e-05
2.94208e-05
0.000106721
3.58416e-05
0.000112803
5.23015e-05
9.64638e-05
4.8304e-05
6.08497e-05
6.22961e-05
6.90694e-06
4.3992e-05
-6.65171e-05
5.9116e-05
-0.000142906
2.39177e-05
-0.000159143
4.37665e-05
-0.000191296
-4.42084e-06
-0.000209948
6.71094e-06
0.000141668
4.12964e-05
-0.000150794
0.000125869
3.22379e-05
-1.6986e-05
2.57384e-05
0.000109445
-0.0002861
-2.17795e-05
0.000305633
1.22822e-05
0.00010739
-3.50243e-06
-1.63489e-05
-0.000119741
2.23976e-05
0.000287905
-2.07403e-05
2.12562e-05
9.33306e-05
-1.49531e-05
1.08717e-05
0.000269239
-1.30167e-05
-0.000248016
-0.00012473
-9.73339e-05
-0.000118937
-7.76294e-05
-0.000129704
3.89264e-05
-0.000133133
0.00012042
0.000125476
-4.58548e-05
-0.000136197
0.000115136
0.000233378
-0.000144128
0.000290365
-1.9961e-05
2.87311e-05
-0.00023894
8.1423e-05
0.000229321
0.000142203
-0.000125346
-0.000168499
-0.000135852
8.10591e-06
0.000108488
-1.17424e-05
-0.000230059
4.96318e-05
-0.000218241
4.49458e-05
-0.000201755
3.64898e-05
0.000105519
3.10171e-06
0.000102354
8.49241e-07
9.60666e-05
-1.14572e-06
8.7536e-05
-2.74083e-06
7.79077e-05
-2.80118e-06
6.79307e-05
-1.68397e-06
5.72095e-05
9.78161e-07
4.62577e-05
3.59347e-06
3.45981e-05
6.65223e-06
2.27157e-05
9.0548e-06
1.1402e-05
1.07318e-05
1.84375e-06
1.15345e-05
-4.79236e-06
1.13785e-05
-7.50407e-06
1.12921e-05
-7.24518e-06
1.12814e-05
-5.59903e-06
1.18511e-05
-3.91668e-06
1.31671e-05
-3.11146e-06
1.51035e-05
-3.65068e-06
1.74529e-05
-5.12752e-06
1.99237e-05
-6.11659e-06
2.20874e-05
-5.50711e-06
2.34964e-05
-2.73899e-06
2.39555e-05
2.13441e-06
2.31249e-05
8.242e-06
2.21163e-05
1.34895e-05
1.82785e-05
1.87718e-05
1.81416e-05
2.2791e-05
1.39011e-05
2.7785e-05
1.80409e-05
3.14987e-05
1.2394e-05
4.18947e-05
2.12602e-05
4.71415e-05
5.43142e-06
6.79094e-05
1.69116e-05
7.37022e-05
-2.78966e-05
0.000111674
-1.56918e-05
0.000130971
-0.000130655
0.000211479
-8.942e-05
-0.000117019
-2.79321e-05
0.000101179
-0.000131917
-2.67193e-05
-0.000146429
-2.87957e-05
-0.000163255
-3.36949e-05
-0.000181137
-4.14076e-05
-0.000202358
-4.99454e-05
-0.000219068
0.000145736
0.000208094
-3.84676e-05
0.000101541
-0.000114489
0.000114343
-4.05548e-05
0.000103711
3.31141e-05
0.000108779
-2.40472e-05
0.000242461
2.60565e-05
1.5782e-05
0.000243932
4.50416e-05
-0.000167115
-3.54292e-05
-5.30387e-05
-0.000146998
0.000120703
-4.28697e-05
3.2628e-05
-0.000107639
4.39036e-05
-0.000216861
2.83935e-05
-9.79967e-05
0.000102411
-4.89452e-05
2.12831e-05
-1.16463e-06
-0.000172617
0.000166195
-0.000241965
-2.33863e-05
0.000236219
-5.2605e-05
-0.000223029
0.000221104
-0.000145158
-0.000271065
0.000199735
-0.000145625
0.000166311
-5.33958e-05
0.000171807
-4.25071e-05
0.000130002
7.19255e-06
6.10892e-05
5.50502e-05
-2.44695e-05
4.9102e-05
-0.000119846
-3.14444e-05