/*--------------------------------*- C++ -*----------------------------------*\
| =========                 |                                                 |
| \\      /  F ield         | OpenFOAM: The Open Source CFD Toolbox           |
|  \\    /   O peration     | Version:  2212                                  |
|   \\  /    A nd           | Website:  www.openfoam.com                      |
|    \\/     M anipulation  |                                                 |
\*---------------------------------------------------------------------------*/
FoamFile
{
    version     2.0;
    format      ascii;
    arch        "LSB;label=32;scalar=64";
    class       volScalarField;
    location    "9.6e-05";
    object      p;
}
// * * * * * * * * * * * * * * * * * * * * * * * * * * * * * * * * * * * * * //

dimensions      [1 -1 -2 0 0 0 0];

internalField   nonuniform List<scalar> 
105480
(
5682.94
5613.85
5722.94
5756.89
5767.18
5768.69
5754.43
5727.25
5696.59
5665.95
5637.13
5612.24
5589.11
5569.39
5554.59
5541.91
5527.12
5512.8
5499.8
5486.22
5470.61
5452.22
5432.11
5410.47
5390.76
5372.44
5356.38
5344.37
5332.74
5322.35
5310.78
5298.28
5286.32
5273.99
5260.67
5246.3
5231.13
5215.25
5198.24
5180.15
5162.23
5145.88
5131.62
5118.68
5106.04
5092.89
5078.92
5064.3
5049.38
5033.95
5018.49
5003.7
4989.22
4975.04
4961
4946.75
4931.84
4915.6
4897.68
4878.48
4858.71
4838.59
4818.51
4798.51
4778.3
4757.76
4737.48
4717.96
4698.65
4678.56
4657.98
4638.38
4620.28
4602.44
4584.44
4566.16
4547.11
4526.8
4504.98
4481.26
4455.21
4426.51
4395.11
4361.64
4327.03
4291.32
4254.44
4217.33
4182.26
4148.75
4113.56
4074.34
4032.72
3991.41
3951.1
3911.25
3870.2
3826.62
3785.98
3744.62
3704.59
3665.9
3626.12
3585.09
3544.45
3502.86
3457.4
3409.25
3361.6
3313.99
3266.88
3219.16
3170.69
3122.64
3075.53
3030.56
2987.93
2949.23
2914.64
2885.27
2860.8
2839.73
2822.76
2810.88
2803.78
2800.84
2800.52
2801.14
2803.68
2811.06
2829.62
2866.88
2909.99
2958.58
3012.65
3069.66
3129.56
3177.13
3242.84
3189.5
3450.18
2857.52
3920.67
1669.19
5986.91
5812.37
5825.31
5823.55
5817.09
5796.5
5763.23
5725.28
5690.64
5657.64
5626.48
5601.5
5579.68
5561.64
5548.62
5537.77
5522.84
5507.39
5493.68
5479.95
5465.2
5446.72
5425.32
5404.06
5384.44
5366.65
5351.3
5339.64
5327.91
5317.3
5305.73
5294.57
5283.2
5270.93
5257.39
5242.67
5227.07
5210.42
5192.59
5174.28
5156.51
5140.68
5127.29
5115.14
5102.91
5089.54
5074.67
5059.29
5044.07
5028.6
5013.32
4998.56
4984.09
4970.09
4956.05
4941.44
4926.03
4909.37
4891.05
4871.54
4851.71
4831.63
4811.51
4791.45
4771.46
4751.15
4731.15
4711.85
4692.57
4672.17
4651.38
4631.97
4613.8
4595.67
4577.22
4558.52
4539.19
4518.66
4496.63
4472.62
4446.28
4417.15
4385.34
4351.78
4316.9
4280.82
4243.5
4206.16
4170.91
4137.27
4101.94
4062.5
4020.36
3978.4
3937.31
3896.72
3855.35
3813.12
3771.24
3728.89
3689.6
3650.58
3609.71
3567.61
3526.59
3485
3439.15
3390.17
3342.34
3295.24
3248.76
3200.87
3152.45
3104.85
3058.52
3013.88
2971.76
2933.4
2899.9
2872.76
2849.56
2829.09
2812.72
2801.2
2795.2
2793.68
2794.07
2795.39
2799
2807.89
2828.26
2868.31
2916.58
2968.05
3022.89
3079.85
3136.38
3188.88
3225.75
3221.05
3214.83
3083.97
3162.72
2738.07
6150.1
5954.58
5958.61
5931.21
5889.68
5827.98
5768.77
5718.5
5674.24
5636.3
5607.71
5587.8
5569.08
5554.08
5543.6
5533.51
5518.42
5501.62
5486.17
5471.81
5456.94
5438.17
5415.64
5395.37
5375.13
5357.53
5341.48
5328.13
5317.67
5309.91
5301.06
5292.1
5280.72
5267.58
5252.69
5236.65
5220.89
5204.68
5187.14
5169.41
5152.31
5137.55
5125.32
5113.77
5101.21
5086.53
5069.8
5053.48
5038.65
5023.97
5008.5
4992.88
4978.5
4965.35
4952.05
4937.22
4920.94
4904.02
4886.17
4866.9
4847.05
4827.4
4807.76
4788.01
4768.2
4748.45
4728.55
4708.96
4689.12
4668.36
4647.71
4628.65
4610.73
4592.99
4575.03
4556.77
4537.54
4516.56
4493.66
4468.57
4440.79
4410.63
4378.08
4343.66
4308.09
4271.81
4234.82
4198.64
4165.08
4133.01
4098.34
4059.09
4016.53
3974.29
3933.04
3892.18
3849.9
3806.33
3762.84
3721.76
3677.92
3640.22
3600.08
3556.62
3514.75
3473.47
3427.61
3377.89
3330.14
3283.88
3237.98
3190.01
3141.76
3094.78
3049.18
3004.94
2963.14
2925.59
2892.81
2865.07
2841.22
2821.14
2805.07
2793.79
2788.65
2787.91
2788.36
2789.84
2793.6
2802.58
2823.53
2863.28
2910.62
2961.55
3016.83
3073.13
3129.63
3179.73
3213.56
3226.48
3256.24
3256.38
3336.87
3335.44
6338.5
6114.92
6112.58
6032.08
5938.54
5839.61
5769.14
5704.51
5653.25
5618.41
5593.67
5574.81
5559.85
5549.4
5543.99
5534.03
5514.63
5494.37
5477.5
5461.57
5446.26
5429.2
5404.5
5382.42
5364.51
5349.1
5332.4
5318.27
5310.24
5303.18
5294.88
5286.81
5275.19
5262.37
5247.75
5231.77
5215.8
5199.12
5181.18
5164.01
5148.6
5134.75
5121.7
5109.01
5095.49
5080.28
5063.52
5047.37
5031.9
5016.17
5000.46
4986.17
4973.17
4959.34
4944.89
4929.67
4913.25
4896.54
4878.69
4859.22
4839.5
4820.17
4800.65
4781.12
4761.84
4742.77
4722.97
4703.19
4683.14
4662.57
4642.4
4623.11
4604.99
4587.33
4569.39
4550.85
4531.03
4509.68
4486.45
4461.15
4433.22
4402.27
4368.75
4333.79
4297.99
4261.42
4224.31
4188.54
4155.06
4122.75
4088
4048.78
4006.22
3963.87
3922.34
3880.96
3838.06
3793.91
3749.91
3708.5
3663.61
3626.35
3586.19
3542.09
3499.49
3457.65
3411.74
3362.4
3314.59
3267.91
3222.01
3174.53
3126.56
3079.61
3034.1
2990.23
2948.98
2911.83
2878.99
2850.84
2827.17
2807.8
2792.14
2781.55
2776.05
2776.34
2776.93
2778.53
2782.42
2791.62
2812.9
2853.17
2899.71
2951.08
3006.64
3062.68
3117.34
3165.49
3204.98
3233.38
3266.26
3295.48
3345.82
3444.13
6477.68
6230.46
6221.23
6095.82
5960.89
5841.9
5757.45
5680.72
5627.44
5595.55
5574.04
5556.8
5548.83
5545.74
5544.35
5531.02
5500.68
5474.99
5457.39
5444.31
5435.05
5416.25
5387.21
5366.49
5355.72
5338.35
5321.44
5309.52
5299.75
5292.2
5285.58
5277.41
5266.17
5254.98
5242.13
5226.06
5209.14
5192.71
5176
5159.74
5143.37
5127.74
5113.86
5101.81
5089.22
5074.25
5056.96
5039.75
5023.13
5008.38
4995.32
4982.59
4968.08
4951.79
4936.63
4922.64
4907.16
4889.36
4871.12
4852.71
4833.32
4813.8
4794.97
4776.61
4758.02
4739.36
4720.77
4701.78
4682.23
4661.8
4641.7
4622.72
4604.4
4585.9
4566.63
4547.1
4526.78
4504.82
4480.99
4454.85
4425.93
4394.11
4359.68
4323.87
4287.52
4250.68
4213.37
4177.29
4143.47
4111.13
4076.62
4037.92
3996.52
3954.51
3912.78
3870.89
3827.55
3782.92
3738.44
3696.7
3651.56
3613.48
3573.07
3529.68
3486.78
3443.82
3397.85
3349.44
3301.54
3253.83
3207.53
3160.56
3112.72
3065.54
3019.56
2975.85
2935.01
2897.8
2864.65
2836.34
2813.07
2794.05
2778.58
2768.13
2763.12
2763.33
2764.19
2766.45
2770.96
2780.62
2802.6
2842.61
2888.29
2939.1
2995.44
3050.94
3104.08
3151.06
3194.93
3229.48
3267.39
3317.16
3369.02
3442.71
6652.81
6334.38
6289.77
6132.48
5969.02
5835.73
5733.67
5653.14
5601.26
5574.06
5560.17
5553.74
5551.45
5551.23
5550.8
5519.49
5467.9
5442.37
5432.63
5429.02
5424.79
5402.74
5374.09
5356.77
5348.12
5329.4
5311.97
5299.82
5289.34
5281.69
5275.2
5267.25
5257.49
5248.27
5236.45
5219.39
5202.44
5187.42
5171.26
5152.58
5134.42
5120.35
5108.22
5095.06
5080.85
5064.99
5047.59
5030.86
5015.7
5003.21
4991.44
4977.58
4960.54
4943.4
4929.18
4914.89
4898.78
4881.54
4864.01
4845.77
4826.72
4807.83
4789.21
4771.24
4753.32
4734.85
4716.26
4697.9
4679.49
4659.86
4639.42
4619.63
4600.09
4580.44
4560.77
4540.51
4519.1
4496.32
4471.95
4445.45
4416.5
4384.8
4350.36
4314.38
4277.76
4240.58
4203.07
4166.72
4132.73
4100.46
4066.1
4027.66
3986.44
3944.39
3902.23
3859.8
3816
3771.05
3726.37
3683.78
3640.17
3600.27
3559.4
3517.07
3474.22
3430.39
3384.06
3336.03
3288.02
3239.53
3192.86
3145.79
3097.95
3050.45
3004.26
2960.45
2919.53
2882.09
2848.86
2820.79
2797.78
2778.64
2763.08
2752.47
2748.22
2748.55
2749.54
2751.76
2756.61
2768.47
2792.02
2829.74
2874.53
2925.06
2981.4
3036.41
3088.32
3134.42
3179.69
3218.89
3262.82
3311.07
3361.41
3414.37
6763.31
6389.59
6317.78
6137.86
5952.21
5809.34
5697.45
5616.82
5578.15
5562.93
5558.97
5558.22
5558.72
5558.93
5553.51
5487.48
5435.45
5415.3
5409.24
5408.23
5407.17
5387.73
5366.75
5348.14
5337.67
5320.24
5301.48
5287.65
5278.95
5271.91
5264.05
5256.81
5250.22
5241.94
5230.1
5214.05
5197.41
5181
5162.78
5144.42
5130.07
5116.92
5101.55
5083.2
5067.27
5054.28
5040.69
5025.41
5011.42
4998.44
4984.99
4968.65
4952.06
4937.57
4922.94
4906.2
4890.12
4874.28
4856.52
4838.62
4820.97
4802.33
4783.82
4766.06
4748.31
4730.11
4711.69
4693.34
4675.12
4656.19
4636.29
4616.14
4596.13
4576.15
4555.61
4533.88
4510.89
4487.04
4462.14
4435.36
4405.95
4374.1
4340.19
4304.77
4268.48
4231.67
4195.3
4159.87
4125.85
4092.85
4057.8
4018.91
3977.16
3934.34
3891.46
3848.49
3804.32
3759.31
3714.46
3670.49
3629.91
3588.57
3546.41
3504.18
3461.79
3417.83
3370.77
3322.14
3274.1
3225.45
3178.45
3130.55
3082.23
3034.66
2988.08
2943.72
2902.39
2864.81
2831.68
2803.7
2780.5
2760.99
2745.24
2734.9
2731.36
2731.77
2732.97
2735.66
2741.52
2754.07
2778.99
2814.9
2859.15
2908.95
2964.86
3019.21
3069.72
3114.5
3158.29
3199.06
3244.68
3288.71
3326.94
3352.89
6858.94
6420.67
6315.92
6103.99
5903.34
5772.39
5677.67
5604.91
5569.31
5556.88
5555.22
5560.75
5562.76
5562.73
5545.11
5456.85
5408.64
5389.63
5385.63
5385.22
5384.61
5368.88
5358.93
5340.28
5326.87
5309.02
5291.41
5277.58
5267.93
5260.7
5254.15
5249.36
5243.42
5235.28
5224.05
5208.33
5190.02
5172.38
5156.72
5142.26
5124.14
5105.95
5087.88
5072.69
5058.89
5047.69
5035.81
5021.37
5007.36
4990.32
4974.03
4959.82
4946.89
4932.35
4915.44
4899.49
4882.62
4865.79
4850.08
4832.46
4814.32
4796.77
4779.02
4761.23
4743.63
4725.7
4707.28
4688.71
4670.04
4650.77
4630.89
4611.02
4591.11
4570.83
4550.3
4529.21
4506.44
4482.13
4456.83
4429.93
4400.87
4369.68
4336.43
4301.02
4264.01
4226.76
4189.53
4153
4118.48
4085.23
4049.86
4010.45
3967.58
3923.77
3880.26
3836.9
3792.55
3747.49
3702.31
3657.63
3618.81
3577.61
3533.97
3490.99
3448.86
3405.14
3357.36
3307.56
3259.41
3210.77
3163.46
3114.39
3065.47
3017.64
2970.5
2925.54
2883.83
2846.23
2813.12
2784.95
2761.23
2741.28
2725.55
2715.64
2713.26
2713.73
2715.1
2718.19
2724.94
2738.17
2762.95
2798.09
2841.6
2890.39
2945.58
2998.86
3047.27
3089.83
3130.5
3167.68
3205.71
3241.56
3267.96
3281.29
6925.95
6425.74
6287.65
6028.14
5845.71
5745.44
5663.85
5593.94
5561.06
5549.64
5548.3
5557.96
5561.42
5561.71
5523.2
5427.16
5384.18
5368.91
5365.8
5365.03
5362.65
5348.26
5338.62
5328.11
5318.58
5299.41
5282.05
5267.62
5257.57
5252.49
5248.35
5242.74
5233.27
5226.67
5217.55
5200.14
5180.1
5165.66
5153.94
5134.97
5107.74
5087.64
5078.9
5068.52
5057.02
5047.44
5035.06
5018.09
4997.56
4974.26
4962.51
4956.83
4943.08
4924.77
4908.98
4893.21
4875.86
4859.09
4843.39
4826.11
4807.98
4790.71
4773.79
4756.49
4738.86
4720.96
4702.51
4683.82
4664.89
4645.24
4625.1
4605.3
4585.79
4566.07
4545.93
4525.28
4503.81
4480.46
4455.51
4428.59
4399.15
4367.14
4332.7
4296.13
4258.67
4220.94
4183.1
4146.07
4111.09
4077.4
4041.53
4001.32
3957.58
3913.13
3869.13
3825.39
3780.75
3735.36
3690.1
3644.61
3606.08
3565.74
3521.35
3477.05
3434.5
3390.97
3342.92
3292.04
3243.35
3194.41
3146.92
3096.98
3047.43
2998.92
2951.29
2905.92
2863.98
2826.21
2792.87
2764.29
2739.97
2719.77
2704.46
2694.95
2693.8
2694.33
2695.87
2699.32
2706.64
2720.34
2744.76
2779.6
2821.72
2869.69
2923.18
2974.59
3020.06
3059.62
3095.82
3127.68
3158.27
3186.49
3207.02
3216
6961.73
6392.95
6210.97
5946.8
5811.25
5738.59
5648.66
5584.25
5553.01
5543.2
5543.17
5554.25
5557.34
5555.98
5492.94
5405
5363.68
5349.42
5347.09
5346.82
5339.81
5327.05
5318.17
5313.61
5307.65
5292.2
5275.28
5260.89
5252.82
5247.25
5238.58
5231.06
5222.53
5216.42
5207.4
5190.77
5173.01
5160.61
5145.83
5116.46
5091.55
5080.69
5074.04
5064.67
5058.89
5049.46
5031
5004.66
4978.21
4966.12
4961.27
4953.8
4935.49
4917.63
4902.53
4886.31
4869.8
4853.18
4836.37
4820.15
4802.35
4784.64
4768.07
4751.37
4733.82
4715.74
4697.23
4678.43
4659.23
4639.22
4618.83
4599.14
4579.94
4560.39
4540.44
4520.1
4498.85
4476.18
4451.55
4424.44
4394.31
4361.2
4326.13
4289.76
4252.54
4214.57
4176.18
4138.67
4103.29
4069.07
4032.56
3991.68
3947.47
3902.59
3858.17
3814.03
3768.93
3722.98
3678.34
3630.62
3591.83
3551.9
3507.69
3462.27
3418.65
3374.85
3326.92
3275.31
3225.59
3175.91
3128.31
3077.92
3027.77
2978.38
2930.5
2884.94
2842.78
2804.61
2770.81
2741.7
2717.03
2696.81
2681.91
2672.47
2672.35
2672.95
2674.65
2678.38
2686.22
2700.3
2724.07
2758.31
2799.14
2846.12
2896.63
2945.65
2987.54
3023.33
3054.68
3081.44
3105.7
3126
3141.94
3149.85
6927.58
6314.78
6128.43
5910.15
5798.64
5736.27
5643.77
5576.27
5544.93
5536.01
5537.05
5546.14
5548.38
5541.61
5467.84
5386
5344.84
5328.92
5324.46
5320.71
5309.53
5304.8
5304.01
5304.04
5300.13
5288.74
5274.82
5257.1
5243.58
5235.55
5224.97
5218.41
5214.16
5208.39
5200.84
5187.62
5166.8
5146.09
5125.15
5098.24
5085.08
5078.87
5070.49
5066.64
5064.19
5047.65
5016.32
4982.54
4967.18
4962.94
4961.86
4947.3
4928.45
4912.15
4896.05
4879.05
4862.97
4846.55
4829.8
4813.66
4796.55
4778.9
4762.31
4745.8
4728.39
4710.34
4691.62
4672.37
4652.79
4632.55
4612.04
4592.28
4573.06
4553.55
4533.62
4513.27
4491.9
4468.96
4444.02
4416.5
4386.1
4353.21
4318.62
4282.76
4245.75
4207.53
4168.63
4130.53
4094.68
4060.08
4023.16
3981.76
3937.1
3891.8
3846.99
3802.42
3756.76
3710.29
3664.98
3617.22
3576.62
3536.05
3492.31
3446.45
3401.52
3356.77
3308.78
3256.88
3206.23
3155.61
3107.71
3057.08
3006.68
2956.54
2908.62
2862.85
2820.36
2781.62
2747.36
2717.79
2692.95
2672.69
2657.88
2648.34
2648.86
2649.87
2651.73
2655.65
2663.83
2678.13
2701.09
2734.46
2773.79
2819.2
2866.63
2912.15
2949.72
2981.36
3007.67
3029.51
3048.47
3063.12
3073.08
3076.07
6863.92
6254.03
6075.05
5887.68
5792.6
5732.01
5632.78
5566.39
5536.43
5528.19
5530.35
5537.39
5538.77
5524.99
5455.41
5367.03
5320.96
5303.59
5298.53
5290.3
5286.6
5286.36
5294.17
5296.5
5296.13
5285.66
5268.96
5243.74
5227.98
5220.46
5217.18
5215.59
5209.77
5206.19
5194.47
5177.07
5149.74
5114.61
5097.11
5089.54
5086.24
5078.67
5075.55
5074.66
5062.18
5030.93
4989.36
4969.45
4963.68
4963.8
4958.88
4938.68
4921.44
4905.64
4888.82
4871.43
4855.41
4839.62
4823.35
4806.84
4789.94
4772.73
4756.08
4739.4
4721.89
4703.63
4684.85
4665.79
4646.41
4626.13
4605.22
4585.17
4565.74
4546.13
4526
4505.35
4483.73
4460.55
4435.42
4407.8
4377.48
4344.91
4310.71
4275.06
4237.95
4199.46
4160.26
4121.79
4085.46
4050.29
4012.75
3970.79
3925.61
3879.87
3834.72
3789.76
3743.66
3696.58
3649.31
3604.05
3560.97
3518.68
3474.85
3429.11
3383.21
3337.06
3288.4
3236.41
3185.35
3133.93
3085.42
3034.68
2984.24
2933.68
2885.66
2839.34
2796.54
2757.21
2722.59
2692.57
2667.56
2646.97
2631.91
2622.57
2622.92
2624.47
2627.26
2631.32
2639.38
2653.48
2675.4
2708.04
2745.81
2789.06
2833.02
2874.59
2907.01
2934.33
2956.56
2974.59
2988.77
2999.78
3004.27
3001.85
6798.02
6204.04
6036.77
5872.66
5790.79
5725.65
5615.96
5553.39
5525.26
5517.52
5519.79
5525
5526.02
5502.19
5433.76
5343.07
5299.54
5281.64
5274.2
5267.55
5265.63
5269
5282.95
5288.35
5289.16
5285.96
5252.22
5224.95
5212.37
5208.33
5210.41
5210.97
5210.05
5207.48
5186.99
5147.94
5112.37
5095.54
5089.73
5088.61
5087.37
5085.18
5084.54
5072.55
5047.44
4998.49
4972.68
4963.63
4963.15
4963.63
4951.74
4932.56
4914.54
4897.27
4880.37
4863.67
4847.55
4832.49
4816.43
4799.7
4783.36
4766.49
4749.39
4732.39
4714.61
4696.15
4677.59
4658.56
4639.17
4619.07
4598.25
4577.97
4558.28
4538.35
4517.89
4496.77
4474.7
4451.28
4426.05
4398.38
4368.1
4335.76
4301.73
4266.2
4229.24
4190.74
4151.29
4112.58
4075.86
4040.11
4001.83
3959.09
3913.26
3867.03
3821.41
3775.94
3729.32
3681.34
3632.22
3589.18
3544.98
3500.48
3455.55
3409.9
3363.72
3316.44
3266.59
3214.28
3163.19
3111.28
3062.1
3011.16
2960.69
2909.76
2861.42
2814.41
2771.27
2731.4
2696.48
2665.95
2640.61
2619.46
2604.02
2595.15
2595.53
2596.86
2600.37
2605.18
2613.09
2626.53
2647.36
2678.98
2715.14
2756.17
2796.13
2832.97
2860.94
2884.46
2902.8
2917.79
2929.27
2936.27
2936.39
2930.08
6748.52
6177.56
6022.33
5866.22
5788.51
5716.62
5597.27
5538.29
5512.11
5505.06
5508.68
5512.51
5512.94
5475.03
5403.79
5319.71
5281.21
5264.97
5257.55
5250.17
5247.76
5248.17
5271.71
5281.61
5284.29
5283.63
5235.37
5208.27
5198.78
5197.5
5208.15
5211.06
5211.25
5205.17
5161.19
5111.94
5090.27
5083.98
5085.4
5088.93
5090.96
5091.98
5091.48
5064.42
5013.7
4980.1
4965.72
4963.06
4964.63
4961.58
4942.97
4926.03
4908.18
4887.86
4870.68
4854.93
4839
4824.5
4809.4
4793.39
4777.43
4759.73
4741.8
4724.73
4707.19
4688.79
4669.97
4650.71
4631.15
4611.24
4590.77
4570.32
4550.48
4530.24
4509.26
4487.74
4465.42
4441.84
4416.74
4389.43
4359.28
4326.84
4292.48
4256.78
4220
4181.76
4142.51
4103.61
4066.39
4030.05
3991.19
3947.8
3901.25
3854.34
3808.01
3761.85
3714.44
3665.62
3614.92
3572.5
3528.54
3482.49
3435.77
3389.58
3343.5
3295.79
3244.78
3191.69
3140.49
3088.35
3038.58
2987.26
2936.43
2885.08
2836.19
2788.5
2744.94
2704.6
2669.26
2638.14
2612.29
2590.55
2574.84
2566.45
2566.91
2568.43
2571.64
2577.26
2585.1
2597.81
2617.85
2648.13
2682.8
2721.21
2757.39
2789.31
2813.46
2833.6
2848.99
2862.18
2871.36
2873.65
2872.21
2861.62
6709.25
6157.02
6011.52
5858.93
5782.3
5698.44
5578.51
5520.01
5496.16
5491.39
5498.8
5500.65
5498.71
5448.35
5364.42
5297.43
5265.15
5251.12
5240.64
5234.13
5232.18
5234
5260.55
5270.94
5273.5
5272.68
5218.97
5194.86
5186.59
5185.58
5202.36
5208.41
5209.42
5187.08
5124.47
5094.07
5082.85
5081.39
5085.95
5088.65
5090.01
5091.24
5087.93
5036.12
4986.95
4965.84
4959.54
4962.87
4964.19
4956.28
4937.43
4919.41
4901.38
4878.44
4860.29
4846.21
4831.09
4816.77
4802.56
4786.69
4770.53
4752.72
4734.42
4717.14
4699.6
4681.26
4662.37
4643.23
4623.88
4603.92
4583.23
4562.68
4542.62
4522.22
4501.06
4479.52
4457.21
4433.7
4408.89
4381.91
4351.87
4319.07
4284.44
4248.2
4210.91
4172.45
4133.03
4094.07
4056.8
4020.24
3980.97
3936.98
3889.82
3842.21
3795.11
3748.16
3699.79
3650.82
3598.02
3555.14
3511.6
3465.17
3416.84
3369.4
3323.14
3275.42
3223.7
3169.55
3117.89
3065.47
3015.17
2963.27
2911.76
2859.95
2810.36
2762.11
2718.02
2677.25
2641.28
2609.54
2583.13
2560.95
2545.03
2536.96
2537.51
2539.14
2542.17
2548.12
2555.99
2568.25
2587.81
2616.42
2649.66
2685.07
2717.46
2745.08
2766.08
2783.52
2796.96
2808.3
2815.35
2814.83
2811.88
2798.65
6688.61
6153.33
6016.8
5855.39
5772.43
5674.1
5558.72
5503.33
5482.85
5478.99
5487.55
5490.59
5483.27
5420.12
5329.09
5274.96
5252.47
5244.42
5229.32
5221.42
5219.08
5219.9
5247.69
5259.76
5262.94
5262.13
5212.24
5185.24
5175.89
5175.08
5194.44
5202
5203.24
5165.58
5110
5082.34
5073.45
5078.45
5085.34
5086.81
5087.04
5089.03
5077.03
5003.1
4968.22
4954.82
4953.23
4959.16
4960.3
4947.72
4931.51
4913.11
4893.97
4870.12
4851.64
4839.14
4823.85
4808.7
4795.02
4779.38
4763.41
4746.43
4728.11
4710.2
4692.04
4673.3
4654.44
4635.39
4616.4
4597.08
4576.58
4555.94
4535.71
4515.06
4493.68
4471.91
4449.74
4426.5
4401.79
4374.89
4344.83
4311.77
4276.53
4239.5
4201.48
4162.87
4123.54
4084.39
4046.74
4009.84
3970.23
3925.89
3878.22
3829.88
3781.98
3734.2
3685.07
3636.47
3581.33
3537.65
3493.93
3447.85
3398.62
3349.61
3302.54
3254.67
3202.6
3147.4
3094.94
3042.02
2991.13
2938.52
2886.13
2833.8
2783.42
2734.75
2689.99
2648.74
2612.01
2579.7
2552.71
2530.16
2514.01
2506.12
2506.71
2508.4
2511.55
2517.6
2525.43
2537.45
2556.55
2583.71
2614.85
2647.1
2676.16
2700.21
2718.77
2733.31
2745.72
2754.95
2760.49
2759.24
2754.38
2739.05
6674.6
6151.71
6021.69
5845.41
5755.46
5647.57
5536.88
5485.63
5468.08
5465.36
5474.81
5477.61
5459
5379.42
5299.82
5259.77
5243.79
5238.04
5221.32
5212.81
5209.72
5209.43
5228.29
5244.15
5249.84
5250.49
5211.24
5176.42
5163.98
5162.87
5183.23
5189.52
5190.21
5152.38
5094.98
5066.67
5057.5
5065.85
5079.74
5084.29
5085.67
5087
5073.5
4995.7
4960.21
4947.92
4947.12
4954.23
4955.65
4941.37
4924.52
4904
4885.3
4863.59
4845.15
4832
4816.48
4800.65
4786.54
4771.45
4756.45
4740.48
4722.48
4703.92
4685
4665.94
4647.04
4627.75
4608.83
4590.17
4569.92
4549.01
4528.8
4508.23
4486.79
4465
4442.54
4418.96
4393.97
4366.6
4336.26
4303.18
4267.78
4230.81
4192.36
4152.81
4112.64
4073.02
4035.27
3998.37
3958.7
3914.1
3865.72
3816.48
3767.69
3719.17
3669.5
3619.51
3566.06
3519.83
3475.04
3429.18
3379.81
3329.48
3281.07
3232.58
3180.27
3124.2
3070.71
3017.01
2965.41
2912.02
2858.62
2805.72
2754.53
2705.47
2659.87
2618.13
2580.57
2547.7
2520.06
2497.16
2480.69
2472.93
2473.55
2475.3
2478.59
2484.77
2492.67
2504.52
2522.73
2548.36
2577.67
2606.58
2632.66
2653.09
2669.5
2682.23
2693.49
2701.18
2705.59
2703.89
2697.28
2679.8
6665.05
6150.06
6023.17
5837.53
5739.37
5621.21
5516.86
5469.51
5454.61
5452.95
5462.24
5464.38
5435.51
5352.84
5276.94
5244.19
5232.55
5228.66
5213.39
5205.61
5202.78
5202.39
5209.12
5225.87
5233.94
5235.97
5219.5
5177.11
5157.91
5152.06
5161.09
5171.89
5174.16
5152.79
5087.2
5056.11
5046.28
5046.04
5067.58
5077.88
5081.53
5082.47
5071.18
4997.01
4960.27
4945.39
4943.13
4949.69
4950.95
4933.95
4914.07
4893.58
4877.35
4857.59
4839.27
4824.23
4808.36
4792.94
4778.17
4763.2
4749.39
4734.11
4715.6
4696.36
4677.53
4658.65
4639.59
4619.64
4600.2
4581.61
4561.33
4540.46
4519.63
4498.72
4476.81
4454.56
4432.1
4408.7
4383.49
4355.65
4325.1
4291.99
4256.54
4219.07
4180.01
4140.14
4100.15
4060.77
4023.12
3986.24
3946.51
3901.53
3852.28
3802.04
3752.31
3703.07
3652.46
3600.26
3550.16
3501.59
3454.77
3408.39
3359.2
3308.16
3258.33
3208.7
3155.95
3099.2
3044.64
2989.96
2937.52
2883.28
2828.89
2775.36
2723.31
2673.84
2627.32
2585.03
2546.55
2513.11
2484.77
2461.48
2444.61
2436.89
2437.53
2439.33
2442.78
2449.06
2457.26
2468.9
2485.92
2509.51
2536.82
2563.06
2585.99
2603.77
2618.56
2630.17
2640.59
2646.88
2649.9
2647.84
2639.68
2620.21
6657.91
6145.3
6018.77
5825.39
5720.82
5596.69
5497.61
5452.08
5439.14
5438.84
5448.36
5450.58
5416.06
5328.28
5264.03
5233.03
5219.97
5213.21
5199.14
5194.63
5193.79
5196.02
5202.23
5204.38
5212.34
5218.32
5218.84
5188.44
5157.42
5142.69
5139.18
5149.47
5151.88
5150.27
5087.16
5053.42
5039.09
5035.42
5047.24
5061.05
5066.95
5068.67
5062.85
5005.37
4960.1
4939.73
4933.85
4937.61
4938.52
4925.41
4906.13
4883.24
4866.39
4849
4832.93
4817.12
4800.34
4784.94
4769.69
4755.22
4741.52
4725.76
4707.13
4688.27
4669.84
4651.05
4632.02
4611.81
4591.41
4571.61
4550.72
4528.79
4507.97
4487.16
4465.57
4444.08
4422.21
4398.66
4372.65
4344.29
4312.67
4278.67
4243.22
4206.34
4168.06
4128.61
4088.43
4048.68
4010.68
3973.52
3933.44
3887.95
3838
3786.93
3736.28
3686.15
3634.23
3580.06
3532.18
3482.93
3433.83
3385.99
3336.65
3285.4
3234.47
3183.47
3129.9
3072.5
3016.94
2961.23
2907.88
2852.83
2797.53
2743.27
2690.37
2640.42
2592.91
2549.98
2510.61
2476.56
2447.45
2423.66
2406.31
2398.55
2399.19
2401.06
2404.63
2410.97
2419.38
2430.74
2446.47
2467.81
2492.74
2516.64
2537.01
2553.12
2567.14
2578.09
2587.55
2592.46
2593.63
2591.35
2582.13
2560.96
6650.55
6139.56
6013.54
5816.85
5703.06
5571.34
5479.73
5437.6
5426.12
5426.54
5434.18
5435.84
5400.59
5320.83
5252.36
5219.8
5205.81
5197.7
5184.84
5180.58
5180.05
5188.02
5193.15
5194.42
5193.63
5192.84
5195.35
5188.43
5178.53
5148.19
5125.4
5119.14
5122.24
5124.89
5094.2
5059.4
5036.55
5027.1
5025.38
5036.5
5048.68
5052.23
5052.69
5022.97
4966.18
4936.94
4926.45
4927.24
4930.01
4921.48
4896.89
4872.76
4855.1
4838.13
4824.59
4811.25
4795.61
4779.47
4762.74
4746.97
4732.06
4717.44
4700.8
4682.12
4662.06
4643.13
4623.75
4603.57
4583.91
4564.26
4543.86
4522.59
4501.79
4480.98
4459.79
4438.47
4416.04
4391.14
4363.99
4334.1
4301.68
4267.71
4232.54
4196
4157.82
4117.98
4076.96
4036.41
3997.77
3959.99
3919.23
3873.12
3822.66
3771.03
3719.64
3668.53
3615.72
3559.69
3512.32
3463.46
3412.83
3363.07
3312.83
3261.41
3209.79
3157.52
3102.81
3044.67
2988.21
2931.51
2877.26
2821.45
2765.31
2710.29
2656.6
2605.98
2557.56
2513.93
2473.72
2438.94
2409.05
2384.67
2366.8
2358.84
2359.5
2361.45
2365.13
2371.53
2379.92
2390.73
2405.27
2424.61
2447.12
2469.01
2487.66
2502.79
2515.7
2526.38
2534.73
2538.27
2537.97
2535.44
2525.49
2502.71
6646.28
6131.2
6002.45
5802.28
5685.09
5550.86
5462.84
5423.85
5413.64
5414.35
5421.23
5422.59
5383.88
5306.32
5243.62
5212.13
5197.95
5186.88
5170.61
5164.7
5163.83
5173.69
5180.3
5182.19
5177.81
5176.22
5176.45
5178.59
5178.42
5165.64
5129.24
5103.83
5093.16
5090.18
5087.83
5067.22
5045.07
5027.65
5019.9
5018.34
5022.09
5023.49
5025.07
5019.1
4981.94
4944
4925
4918.71
4918.96
4918.2
4890.4
4862.5
4842.12
4825.39
4814.9
4806.5
4794.35
4774.77
4754.34
4736.9
4722.9
4710.56
4695.92
4677.99
4658.42
4639.31
4621.11
4602.51
4582.46
4561.76
4540.82
4518.96
4497.64
4476.72
4456.19
4434.58
4411.38
4385.11
4356.48
4326.06
4293.54
4259.32
4223.73
4186.56
4147.75
4107.3
4065.48
4023.98
3984.46
3945.81
3904.26
3857.39
3806.3
3754.03
3701.92
3649.9
3597.23
3538.44
3490.87
3442.3
3391.15
3339.65
3287.91
3235.93
3183.79
3130.47
3074.51
3015.53
2958.21
2900.63
2845.46
2788.85
2731.98
2676.16
2621.65
2570.27
2521.11
2476.67
2435.67
2400.08
2369.41
2344.32
2325.85
2317.58
2318.27
2320.3
2323.98
2330.57
2338.75
2348.82
2362.14
2380.12
2400.58
2420.44
2437.17
2451.63
2464.19
2474.45
2481.7
2484.27
2483.58
2480.39
2469.49
2445.23
6639.28
6126.79
5999.18
5796.49
5668.08
5530.47
5447.43
5411.67
5402.24
5403.71
5408.93
5409.59
5366.73
5281.25
5232.37
5208.33
5197.41
5182.81
5160.92
5152.66
5151.07
5157.8
5166.3
5170.22
5170.58
5161.47
5158.25
5158.47
5161.03
5160.78
5149.34
5106.61
5070.35
5058.48
5057.71
5057.41
5052.05
5036.13
5021.4
5009.26
4999.98
4996.79
4996.77
4998.18
4983.65
4965.3
4933.19
4917.41
4911.73
4909.88
4884.71
4849.13
4825.96
4815.02
4809.37
4802.33
4793.13
4769.3
4742.11
4725.55
4717.08
4705.85
4691.13
4675.5
4657.58
4638.35
4619.59
4601.82
4582.4
4560.93
4538.36
4516.93
4496.03
4475.25
4454.98
4432.72
4406.81
4378.93
4350.39
4320.16
4287.33
4252.35
4215.66
4177.33
4137.64
4096.54
4054
4011.54
3971.04
3931.43
3888.99
3841.2
3789.21
3736.07
3683.07
3630.22
3577.41
3516.62
3467.84
3418.89
3367.75
3315.09
3261.6
3208.57
3155.85
3101.62
3044.38
2984.37
2926.17
2867.71
2811.57
2754.08
2696.5
2639.78
2584.53
2532.33
2482.53
2437.19
2395.49
2358.95
2327.5
2301.59
2282.45
2273.75
2274.46
2276.56
2280.19
2286.99
2294.95
2304.41
2316.73
2333.61
2351.92
2369.82
2385.03
2398.69
2411.05
2421.09
2427.45
2429.39
2428.41
2424.59
2413
2387.87
6631.42
6119.7
5992.07
5787.31
5653.48
5512.44
5432.76
5398.45
5389.64
5391.98
5396.47
5396.76
5344.33
5259.14
5220.24
5203.3
5196.4
5186.23
5155.87
5144.37
5141.4
5141.46
5151.9
5156.93
5158.76
5156.15
5144.46
5139.76
5139.18
5143.91
5144.63
5124.06
5068.01
5043.1
5035.67
5040.24
5042.91
5038.2
5027
5013.54
4993.33
4973.86
4967.16
4966.48
4968.13
4964.11
4948.77
4922.35
4911.14
4904.13
4879
4832.77
4811.51
4805.22
4804.01
4799.61
4790.26
4756.02
4729.51
4717.54
4712.99
4701.51
4686.18
4671.97
4655.9
4638.23
4619.16
4600.71
4582
4561.2
4538.73
4517.17
4496.19
4475.25
4453.79
4427.86
4400.07
4373.02
4344.92
4314.51
4281.16
4245.01
4207.04
4167.64
4126.95
4084.94
4041.63
3998.35
3956.97
3916.44
3873.05
3824.22
3771.18
3717.05
3663.02
3609.17
3554.14
3495.21
3443.2
3392.92
3341.75
3288.48
3233.37
3178.9
3125.34
3070.24
3011.73
2950.48
2891.29
2831.79
2774.69
2716.27
2657.93
2600.26
2544.4
2491.27
2440.93
2394.61
2352.25
2314.66
2282.44
2255.57
2235.67
2226.35
2227.07
2229.23
2232.88
2239.83
2247.51
2256.67
2268.06
2283.83
2300.45
2316.6
2330.68
2343.92
2355.82
2365.52
2371.24
2372.85
2371.7
2367.33
2355.27
2329.83
6620.3
6114.19
5985.8
5783.47
5637.85
5494.27
5417.29
5385.57
5377.31
5380.12
5382.84
5382.17
5319.24
5245.51
5210.78
5196.84
5192.39
5187.35
5154.12
5140.72
5135.46
5134.24
5135.98
5146.44
5150.76
5151.71
5137.27
5124.54
5120.24
5119.98
5123.38
5122.52
5080.11
5038.78
5020.69
5016.5
5025.44
5028.43
5026.47
5026.28
5005.53
4969.91
4944.19
4936.87
4939.39
4942.66
4942.44
4929.42
4915.01
4903.31
4879.61
4835.99
4806.98
4795.31
4792.67
4792.14
4785.07
4756.08
4723.27
4708.22
4702.94
4696.59
4681.85
4666.77
4651.97
4637.28
4619.17
4599.93
4581.92
4561.52
4539.46
4518.5
4497.41
4474.88
4447.7
4420.49
4394.35
4367.44
4338.95
4308.26
4274.4
4237.16
4197.86
4157.21
4115.2
4072.02
4027.81
3983.74
3941.47
3899.99
3855.53
3805.66
3751.59
3696.44
3641.33
3586.02
3528.29
3472.06
3417.03
3364.52
3312.77
3259.08
3202.55
3146.37
3091.67
3035.65
2975.92
2913.37
2853.08
2792.51
2734.44
2675.03
2615.91
2557.33
2500.85
2446.72
2395.9
2348.56
2305.57
2266.93
2233.92
2205.95
2185.19
2175.14
2175.84
2178.1
2181.98
2189.02
2196.42
2205.32
2216.09
2231.07
2246.02
2261
2274.17
2286.86
2298.4
2307.77
2313.08
2314.35
2313.17
2308.55
2296.26
2270.79
6607.21
6102.63
5976.51
5774.64
5625.95
5476.85
5403.81
5372.51
5364.52
5367.54
5369.01
5367.27
5298.54
5233.34
5201.92
5189.79
5186.52
5183.33
5152.3
5137.23
5130.09
5127.88
5127.74
5135.29
5140.36
5142.57
5135.82
5114.18
5103.51
5100.61
5108.57
5111.49
5091.77
5035.48
5010.73
5003.5
5003.33
5013.43
5020.05
5022.48
5021.91
4988.46
4937.22
4914.86
4909.26
4916.18
4920.82
4921.55
4912.76
4900.73
4879.06
4847.91
4818.07
4791.42
4777.68
4772.03
4769.41
4755.39
4728.06
4708.13
4695.47
4686.25
4673.47
4661.23
4648.45
4634.18
4617.36
4599.23
4581.78
4562.54
4541.09
4517.98
4493.36
4467.1
4440.82
4415.35
4389.35
4361.66
4332.33
4301.13
4266.76
4228.82
4188.38
4146.21
4102.54
4058.03
4012.84
3967.91
3924.57
3881.86
3836.13
3785.03
3729.8
3673.62
3617.39
3560.64
3500.57
3446.1
3389.32
3334.15
3281.04
3226.74
3169.09
3111.31
3055.39
2998.47
2937.71
2873.94
2812.53
2750.94
2691.92
2631.57
2571.72
2512.21
2455.07
2399.97
2348.67
2300.38
2256.8
2217.18
2183.38
2154.24
2132.52
2121.57
2122.26
2124.61
2128.83
2135.84
2143.04
2151.77
2162.36
2176.47
2190.67
2204.65
2217.25
2229.66
2240.77
2249.66
2254.52
2255.43
2254.28
2249.66
2237.4
2212.2
6591.82
6087.35
5962.61
5765.52
5612.45
5460.76
5389.93
5359.67
5352.05
5355.98
5357.14
5352.65
5280.24
5222.04
5193.42
5182.87
5180.65
5176.36
5146.42
5131.39
5125.03
5123.08
5122.83
5124.19
5128.02
5129.69
5127.07
5101.26
5091.5
5089.11
5096.13
5097.14
5092.7
5034.82
5008.48
4998.01
4995.73
4999.37
5013.45
5019.77
5021.52
5003.74
4935.35
4904.13
4893.36
4892.42
4899.45
4901.95
4901.99
4891.7
4875.62
4855.27
4830.93
4801.74
4772.95
4754.14
4746.85
4743.95
4729.26
4711.55
4695.57
4678.86
4663.75
4652.31
4642.5
4629.37
4610.84
4592.11
4575.91
4556.89
4534.37
4510.09
4486.33
4462.05
4436.54
4410.52
4383.69
4355.07
4324.98
4293.21
4258.21
4219.72
4178.48
4135.02
4089.91
4044.1
3997.74
3951.7
3907.29
3863.43
3816.31
3763.76