/*--------------------------------*- C++ -*----------------------------------*\
| =========                 |                                                 |
| \\      /  F ield         | OpenFOAM: The Open Source CFD Toolbox           |
|  \\    /   O peration     | Version:  2212                                  |
|   \\  /    A nd           | Website:  www.openfoam.com                      |
|    \\/     M anipulation  |                                                 |
\*---------------------------------------------------------------------------*/
FoamFile
{
    version     2.0;
    format      ascii;
    arch        "LSB;label=32;scalar=64";
    class       volVectorField;
    location    "0.13";
    object      U;
}
// * * * * * * * * * * * * * * * * * * * * * * * * * * * * * * * * * * * * * //

dimensions      [0 1 -1 0 0 0 0];

internalField   nonuniform List<vector> 
2308
(
(-176.417 449.955 -1.85565e-16)
(15.2527 -23.801 0)
(166.268 466.561 1.18948e-17)
(242.968 508.584 -4.82668e-17)
(9.62409 542.048 0)
(48.104 546.1 -2.31096e-18)
(-46.4942 553.55 5.59423e-19)
(-49.8867 544.939 -7.62189e-17)
(-3.10433 538.649 1.38399e-16)
(13.9605 587.487 -1.49313e-17)
(16.677 585.032 2.58312e-17)
(16.5031 581.461 -3.86696e-17)
(14.3286 579.747 1.98439e-17)
(14.6661 576.964 -9.72895e-18)
(13.4395 574.739 1.72862e-18)
(13.868 571.938 1.49184e-17)
(12.8688 569.722 2.68411e-18)
(-3.2773 567.943 4.55468e-18)
(-4.44709 570.618 6.08228e-18)
(-3.0686 572.868 4.45964e-19)
(-3.97703 575.738 3.19113e-18)
(-2.02336 577.742 -9.81082e-18)
(-2.71441 580.736 1.18925e-17)
(0.45654 582.255 -5.82383e-18)
(0.535682 585.346 -2.31886e-17)
(-1.86135 587.769 -1.06926e-17)
(4.30479 589.483 5.67399e-18)
(5.61993 591.908 -6.096e-18)
(-27.2841 552.894 0)
(12.4458 566.932 -4.23955e-17)
(6.14183 594.138 3.18201e-19)
(6.74616 596.163 8.05084e-20)
(7.11235 598.17 -1.34349e-18)
(7.62549 600.077 1.3076e-18)
(8.01144 601.928 -1.32181e-18)
(8.49547 603.697 1.27865e-18)
(8.92254 605.394 -6.07716e-19)
(9.32059 607.033 6.2418e-19)
(9.77238 608.567 -5.94912e-19)
(10.0986 610.08 3.1916e-19)
(10.4384 611.463 6.04206e-19)
(10.6439 612.808 8.75261e-19)
(10.8579 614.009 -1.76282e-18)
(10.8772 615.152 1.17796e-18)
(11.0244 616.206 5.71059e-19)
(18.8743 616.111 -5.88151e-19)
(19.5295 614.933 5.78715e-19)
(19.955 614.022 -8.89282e-19)
(20.5478 612.706 -9.90232e-19)
(20.8168 611.613 1.47192e-18)
(21.3647 610.094 -3.02203e-19)
(21.4286 608.793 6.19207e-19)
(21.8091 607.089 1.75284e-19)
(21.8068 605.61 -9.18555e-19)
(22.0332 603.774 -3.30413e-19)
(21.8386 602.175 6.23817e-19)
(22.0407 600.231 0)
(21.707 598.529 -7.87976e-20)
(21.8764 596.478 -2.75082e-18)
(21.4724 594.619 -9.6661e-18)
(21.9845 592.355 1.09846e-17)
(22.5966 590.071 1.23316e-17)
(29.4805 588.084 1.30884e-17)
(28.5309 585.911 2.65158e-19)
(31.6899 583.592 1.58233e-17)
(30.2006 581.368 -2.92498e-17)
(29.619 579.462 -6.8677e-18)
(29.068 576.925 0)
(28.7513 574.505 0)
(28.2107 571.769 0)
(27.4285 569.318 0)
(10.8182 617.17 -2.9429e-19)
(18.1022 616.66 2.8878e-19)
(-21.5278 569.812 -2.09724e-17)
(-21.5913 572.713 -4.21386e-19)
(-20.8254 575.157 1.63297e-18)
(-20.2907 577.833 0)
(-18.9593 580.049 -3.04442e-18)
(-18.268 582.592 -2.94795e-18)
(-16.8226 584.666 1.45576e-18)
(-17.4872 587.051 5.74917e-18)
(-14.7186 589.381 0)
(-13.4353 591.504 -1.86072e-20)
(-12.5379 593.583 1.00927e-20)
(-12.1527 595.486 -1.30684e-18)
(-11.4261 597.474 1.94626e-18)
(-11.1438 599.215 -5.07347e-20)
(-10.3307 601.137 -1.14605e-18)
(-9.97163 602.826 0)
(-9.08591 604.599 -1.56925e-19)
(-8.65134 606.265 9.1941e-19)
(-7.77203 607.87 -1.22584e-18)
(-7.24974 609.467 2.13513e-20)
(-6.48328 610.905 1.21557e-18)
(-6.01334 612.356 0)
(-5.37278 613.61 1.18012e-18)
(-5.04181 614.82 -4.79687e-21)
(-4.48946 615.958 -5.91853e-19)
(-6.98395 565.705 -1.8803e-17)
(-4.23898 616.905 -5.77429e-19)
(9.81567 564.563 1.92107e-17)
(26.0387 566.583 3.62173e-20)
(29.3056 613.809 -5.92834e-19)
(31.0835 614.675 7.36119e-19)
(32.8205 613.269 0)
(33.841 612.835 -2.30232e-19)
(34.9128 611.192 5.18295e-19)
(35.6625 610.515 6.11875e-19)
(36.5527 608.768 -6.0233e-19)
(37.0737 607.931 0)
(37.7217 606.09 -1.55838e-19)
(38.0763 605.01 3.14918e-19)
(38.4141 603.059 3.5934e-21)
(38.495 601.754 -3.13422e-19)
(38.7347 599.668 0)
(38.6294 598.168 5.08784e-19)
(38.919 595.921 -1.94872e-18)
(38.9501 594.207 -1.37852e-18)
(39.8848 591.804 5.51216e-18)
(41.2518 589.847 2.09358e-17)
(45.3769 587.311 1.6092e-18)
(45.9448 584.861 1.54611e-17)
(48.6471 582.784 -6.83537e-18)
(47.6552 580.253 0)
(48.3326 578.233 0)
(47.5638 575.417 0)
(48.2913 573.018 2.50368e-17)
(47.3858 569.986 -2.79995e-17)
(47.0887 567.476 3.03953e-17)
(-71.6497 540.613 -5.80929e-17)
(71.4752 544.886 0)
(47.0345 550.99 0)
(54.6022 549.223 0)
(-36.6006 566.538 4.31357e-17)
(-35.8333 569.955 1.16473e-17)
(-35.6692 573.252 -9.86753e-20)
(-34.1153 575.846 -1.92853e-19)
(-33.5149 578.526 1.98451e-19)
(-31.5155 580.839 1.55412e-18)
(-31.0391 583.318 -2.89334e-18)
(-29.1116 585.511 3.01383e-20)
(-28.9661 587.811 0)
(-26.7253 590.034 6.25738e-18)
(-25.835 592.26 4.07628e-18)
(-24.2475 594.307 -6.51531e-19)
(-23.9803 596.242 6.59778e-19)
(-22.876 598.218 0)
(-22.6825 599.874 0)
(-21.7701 601.825 -7.98998e-20)
(-21.3752 603.333 0)
(-20.5778 605.272 4.69706e-19)
(-20.0222 606.629 -4.58007e-21)
(-19.2791 608.541 -3.12024e-19)
(-18.6131 609.7 0)
(-17.8846 611.588 -2.91207e-19)
(-17.1405 612.584 4.51481e-19)
(-16.3055 614.307 -7.39451e-19)
(-15.3872 615.226 0)
(-14.3823 616.513 -1.17921e-18)
(-13.1135 617.3 2.88384e-19)
(-11.5122 617.748 -1.86944e-21)
(-3.59727 617.823 0)
(10.7322 618.002 -1.44974e-19)
(16.472 617.343 -4.71087e-19)
(-32.7728 543.322 6.47513e-17)
(26.7322 614.876 3.6042e-20)
(-90.7176 533.761 -1.91322e-16)
(-123.191 521.279 -4.63355e-17)
(23.392 564.085 0)
(-56.2814 532.806 6.45456e-17)
(-10.8479 544.866 -1.28115e-16)
(-7.92376 562.531 7.11706e-18)
(45.066 564.431 -4.55747e-17)
(-9.49343 617.64 -2.89924e-19)
(-2.97519 618.171 -2.87429e-19)
(9.97535 618.371 -3.64149e-20)
(14.9515 616.912 5.78664e-19)
(23.8201 613.57 3.64327e-20)
(19.9437 608.717 0)
(30.4525 612.119 3.33483e-19)
(35.4232 612.461 5.98144e-19)
(38.7809 613.27 -1.4758e-19)
(41.7676 612.313 -5.9973e-19)
(43.8576 612.476 -6.74938e-19)
(45.7452 611.009 9.00776e-19)
(46.9668 610.462 3.08508e-19)
(48.2564 608.735 -6.12475e-19)
(49.084 607.976 4.57984e-19)
(50.3557 606.145 -1.33871e-19)
(50.9889 605.186 0)
(52.1588 603.263 0)
(52.7558 602.009 0)
(53.8759 599.847 6.59988e-19)
(54.4354 598.255 -3.10223e-19)
(55.4947 595.903 2.59495e-20)
(56.2489 594.022 -2.68235e-18)
(57.6107 591.491 0)
(59.2718 589.377 -2.98e-18)
(61.8528 586.675 2.99882e-18)
(63.3945 584.511 6.29034e-18)
(65.4262 581.874 3.33919e-18)
(65.6262 579.55 1.36446e-17)
(66.5892 576.873 -1.30738e-17)
(66.2527 574.3 0)
(67.0942 571.447 3.43591e-18)
(66.307 568.683 -6.8548e-18)
(66.0203 565.737 -1.4135e-17)
(-41.5222 560.467 6.80009e-18)
(-101.816 483.591 0)
(21.1491 545.174 -1.80489e-19)
(-77.5038 544.219 8.35924e-17)
(-75.2228 548.451 -1.70896e-17)
(-71.0226 552.57 1.91426e-17)
(-67.7543 556.606 -3.25544e-18)
(-65.225 559.845 7.291e-18)
(-62.8883 563.286 -3.12653e-18)
(-60.6783 566.024 0)
(-58.7035 569.484 -3.12441e-18)
(-58.2883 572.312 -3.12607e-18)
(-56.1702 575.421 0)
(-55.383 577.808 0)
(-53.0965 580.493 1.8296e-19)
(-52.3247 582.674 -1.64915e-18)
(-50.3319 585.151 0)
(-49.6067 587.105 0)
(-47.5966 589.513 -2.13914e-18)
(-46.3476 591.236 -1.37494e-18)
(-44.7579 593.644 2.72057e-18)
(-43.7507 595.143 6.81964e-19)
(-42.5278 597.436 1.64586e-19)
(-41.5455 598.881 6.42064e-19)
(-40.3416 600.931 -7.38001e-19)
(-39.3135 602.519 0)
(-38.1132 604.171 -3.15983e-19)
(-36.9921 605.972 0)
(-35.8589 607.166 0)
(-34.7 609.185 0)
(-33.591 609.994 -1.2256e-18)
(-32.3275 612.068 0)
(-30.9434 612.584 -6.84593e-19)
(-29.4423 614.353 1.11515e-19)
(-27.4957 614.384 2.37013e-18)
(-24.8104 615.38 0)
(-21.9421 614.784 -1.24775e-18)
(-17.9401 614.796 1.85964e-20)
(-192.285 405.779 0)
(-72.0687 533.581 1.09006e-16)
(42.1529 469.603 2.38122e-16)
(248.533 496.695 0)
(51.3885 546.918 -3.91925e-17)
(-102.949 527.428 2.1655e-16)
(42.7356 562.009 -1.61762e-18)
(-25.9649 559.457 1.50904e-17)
(-25.1181 583.906 -6.35434e-20)
(11.5249 600.188 -2.92463e-19)
(32.1614 603.811 3.94181e-19)
(43.6695 607.392 0)
(49.2939 607.093 0)
(53.705 608.103 4.03734e-20)
(56.5081 606.683 -1.5797e-19)
(59.3906 606.994 -5.38536e-19)
(61.0397 605.161 3.79208e-20)
(63.1179 604.705 -8.14572e-20)
(64.3301 602.585 -9.86778e-20)
(66.0197 601.75 4.41874e-19)
(67.523 599.501 5.03591e-20)
(69.1077 598.385 -3.20234e-19)
(70.8616 596.112 0)
(72.037 594.853 1.35356e-18)
(73.6657 592.524 3.07429e-20)
(74.5315 591.046 6.93646e-18)
(76.1581 588.607 -5.53819e-18)
(77.2475 586.886 0)
(79.3228 584.445 6.16151e-18)
(80.6757 582.501 -1.87851e-17)
(82.1084 580.018 9.39996e-18)
(82.9038 577.796 1.32326e-17)
(83.7828 575.219 6.21728e-19)
(83.9917 572.721 -1.28438e-17)
(84.8842 569.866 1.37191e-17)
(84.6292 567.093 1.49599e-17)
(84.3301 564.142 -1.29055e-17)
(63.5434 563.021 -2.96437e-17)
(-34.6432 529.427 -2.29934e-18)
(-179.868 497.592 -7.14814e-18)
(-94.3531 542.031 -1.42023e-17)
(-91.1621 547.301 -1.83296e-18)
(-88.0194 551.8 -5.47693e-18)
(-83.859 556.052 -1.78007e-18)
(-81.5265 559.947 0)
(-78.6441 563.436 3.26997e-18)
(-77.0866 566.711 -1.55421e-18)
(-74.8871 569.93 -1.51013e-18)
(-73.8426 572.727 8.30481e-19)
(-71.7277 575.902 7.79318e-19)
(-70.5552 578.378 1.48076e-18)
(-68.4335 581.315 0)
(-67.3127 583.413 1.46155e-18)
(-65.3625 586.211 -1.39264e-18)
(-63.9884 587.987 -2.2484e-20)
(-62.2376 590.539 -4.15962e-18)
(-60.6327 592.13 3.34888e-19)
(-59.4017 594.469 -1.68705e-18)
(-57.7086 595.971 0)
(-57.0444 598.024 -5.26385e-19)
(-55.2913 599.658 5.23595e-20)
(-54.8361 601.436 7.29753e-19)
(-53.0811 603.279 0)
(-52.3637 604.723 0)
(-50.782 606.709 -1.91852e-20)
(-49.6386 607.862 -6.05098e-19)
(-48.2236 609.744 6.20633e-19)
(-46.5476 610.79 7.55332e-19)
(-44.9301 612.071 -1.52211e-19)
(-42.3484 612.983 4.39102e-19)
(-39.5412 613.407 -1.48035e-19)
(-36.364 613.257 -1.15459e-18)
(-31.8917 612.943 1.29686e-18)
(-25.4464 612.185 2.80259e-18)
(-14.0396 609.422 1.49513e-18)
(5.33708 605.598 0)
(-13.5377 614.039 -5.9293e-19)
(-7.16379 617.608 2.79531e-20)
(-1.94579 618.323 6.55252e-19)
(9.30936 618.301 2.19976e-19)
(12.6175 617.281 -2.84194e-19)
(19.0799 613.824 6.57532e-19)
(1.11132 603.793 -5.63283e-19)
(-62.5333 556.007 -4.78511e-19)
(43.8685 482.397 -7.68066e-17)
(-146.046 474.722 -2.29423e-17)
(-229.308 246.325 -4.83812e-17)
(-92.8769 525.525 -9.94726e-17)
(-140.286 478.229 -6.11221e-17)
(118.067 530.733 2.05643e-17)
(82.3371 561.201 0)
(61.7137 560.082 5.88047e-17)
(-53.0339 526.011 1.62467e-16)
(-77.2867 525.147 6.37506e-17)
(-94.8345 498.914 -8.09047e-17)
(6.76157 546.317 1.30871e-16)
(-120.998 534.974 0)
(-116.755 541.2 1.84394e-18)
(-113.152 546.622 -4.28074e-19)
(-108.597 552.053 -7.8743e-18)
(-105.211 556.343 1.7033e-18)
(-102.072 560.829 0)
(-99.8563 564.17 5.74524e-20)
(-97.4616 568.07 -3.77357e-19)
(-95.5121 570.71 0)
(-93.3715 574.156 -7.3043e-19)
(-91.0414 576.539 -7.39735e-19)
(-88.8428 579.575 0)
(-86.2876 581.713 1.76301e-19)
(-84.3114 584.239 -1.63134e-19)
(-81.2894 586.328 1.72342e-19)
(-79.5101 588.427 2.59514e-18)
(-76.3279 590.626 0)
(-74.8378 592.263 3.37861e-19)
(-71.9669 594.575 -1.66992e-19)
(-70.6812 595.769 4.14299e-20)
(-68.2217 598.323 1.21657e-19)
(-66.6415 599.174 -7.37405e-19)
(-64.4302 601.744 0)
(-62.3348 602.444 1.62248e-19)
(-60.5141 604.83 3.11856e-19)
(-57.8418 605.273 3.07045e-19)
(-55.9904 607.427 2.50812e-20)
(-52.3512 607.715 -1.5622e-19)
(-49.6466 608.644 -4.96182e-19)
(-44.9862 608.795 -3.12937e-19)
(-40.3455 608.412 -3.74311e-19)
(-32.8428 608.848 0)
(-18.8442 604.149 -1.16853e-18)
(6.24366 601.894 -1.14571e-18)
(37.1868 583.663 -7.76068e-19)
(71.8383 562.828 -2.3923e-18)
(91.6153 554.604 8.33065e-19)
(33.498 592.438 -9.52056e-19)
(-4.87276 611.8 0)
(-4.60492 617.096 2.90696e-19)
(-1.24654 618.165 2.87169e-19)
(8.31545 618.171 -5.64189e-19)
(10.4855 616.502 6.04319e-19)
(9.64817 609.989 3.21455e-20)
(-31.7914 587.711 -4.1711e-19)
(-87.3869 542.704 1.30581e-18)
(-98.8147 539.2 -1.24198e-18)
(-96.3181 538.427 1.58362e-19)
(-81.7571 539.086 -1.75568e-19)
(-56.8241 550.782 3.02489e-19)
(-17.406 579.594 -8.63295e-19)
(20.0341 596.929 3.37782e-19)
(42.3629 599.643 0)
(55.4029 604.248 5.20616e-20)
(61.9614 603.647 5.73962e-19)
(66.5499 605.319 -7.8144e-20)
(69.8884 603.202 2.00254e-19)
(73.2286 604.011 -3.28672e-22)
(75.4364 601.611 8.18128e-20)
(78.088 601.43 -3.94127e-20)
(79.9042 598.815 2.87099e-19)
(82.0446 598.403 -9.66324e-19)
(83.8441 595.945 -1.74565e-20)
(85.5935 595.384 6.45728e-19)
(87.5242 592.947 -6.68403e-19)
(89.0684 592.173 -5.45117e-18)
(91.3365 589.625 5.5315e-18)
(92.8961 588.411 0)
(95.657 585.58 -1.17198e-17)
(97.5203 583.843 8.91693e-18)
(99.9053 580.856 -9.1243e-18)
(101.981 578.611 0)
(104.004 575.428 0)
(105.478 572.749 0)
(107.316 569.303 -1.58086e-18)
(108.169 566.414 2.5406e-19)
(108.598 562.905 2.73223e-17)
(-21.6229 527.919 -7.07927e-17)
(79.9284 558.177 3.01899e-17)
(56.7386 557.333 -2.71205e-17)
(-45.7252 557.145 3.60892e-18)
(-75.3065 522.105 7.92861e-17)
(-102.549 512.312 7.13054e-17)
(-114.349 513.372 5.76069e-18)
(-124.207 512.372 -6.79612e-17)
(-209.908 472.149 -5.43643e-17)
(-123.839 528.482 -4.62985e-17)
(-147.015 520.052 1.5664e-17)
(-144.704 526.858 -4.72552e-18)
(-139.934 534.233 -7.45305e-18)
(-136.03 540.459 0)
(-131.24 546.733 6.90184e-18)
(-127.381 552.094 0)
(-123.776 557.111 0)
(-120.375 561.063 1.58974e-18)
(-117.614 565.145 3.89149e-19)
(-114.732 568.272 0)
(-112.535 571.911 7.23424e-19)
(-109.591 574.618 -3.11232e-20)
(-107.354 577.97 -1.52063e-20)
(-104.23 580.172 7.10137e-19)
(-102.414 583.079 7.90808e-19)
(-99.376 585.15 -7.81195e-19)
(-97.85 587.602 -1.40749e-18)
(-94.9213 589.744 4.2878e-20)
(-93.383 591.634 -2.48349e-19)
(-90.8934 594.02 8.63577e-20)
(-89.1456 595.668 3.27116e-19)
(-87.0638 597.891 -2.44426e-19)
(-85.0079 599.529 3.18817e-19)
(-82.8402 601.315 -9.61309e-21)
(-80.2259 603.186 -7.70039e-19)
(-77.2868 604.453 3.06109e-19)
(-74.0995 605.665 3.15379e-19)
(-71.0284 604.661 -4.37817e-19)
(-65.9444 606.594 6.6096e-19)
(-59.8751 603.72 6.08708e-19)
(-50.0018 605.442 0)
(-33.979 598.21 2.3602e-18)
(-4.62342 596.71 6.66455e-19)
(35.633 572.124 3.44207e-19)
(68.1934 550.4 0)
(88.1571 548.236 0)
(98.911 549.64 1.07265e-18)
(101.537 551.827 -1.24001e-20)
(101.381 556.121 -2.15798e-19)
(105.022 555.069 1.96086e-19)
(69.93 571.629 0)
(11.5989 607.748 0)
(-0.675804 616.486 -1.39812e-19)
(0.224287 618.014 4.29339e-19)
(7.10345 617.949 0)
(6.09705 615.944 -2.85741e-19)
(-8.70636 606.028 -2.93312e-19)
(-67.544 560.159 7.85152e-19)
(-100.441 541.932 -4.25357e-19)
(-99.2499 540.481 1.27148e-18)
(-90.0755 541.421 2.00342e-19)
(-92.4451 538.601 2.16179e-19)
(-93.4388 536.315 4.34374e-19)
(-93.6027 534.057 0)
(-91.5884 532.994 -1.56906e-19)
(-78.5869 533.045 -4.16298e-20)
(-51.6734 542.012 2.08611e-19)
(-11.8513 571.669 -1.32106e-19)
(29.2261 591.596 -1.08263e-19)
(54.4966 593.25 -7.07103e-19)
(69.7042 598.884 1.58014e-19)
(77.8644 597.662 -4.05157e-19)
(83.2071 599.908 2.01281e-19)
(87.2714 597.681 -7.93545e-20)
(90.8841 597.996 0)
(93.4675 595.557 0)
(96.4634 595.111 0)
(98.1332 592.573 -3.33962e-19)
(100.97 591.82 0)
(103.005 589.086 -2.11761e-20)
(105.797 588.123 2.70717e-18)
(108.499 585.295 -1.4428e-18)
(111.459 584.093 2.78463e-18)
(114.828 581.097 8.83876e-18)
(117.802 579.472 8.21831e-20)
(120.889 576.379 -2.98303e-18)
(123.559 574.248 -6.20947e-18)
(125.884 570.972 1.22712e-17)
(127.408 568.502 -6.07029e-18)
(129.414 565.131 8.25784e-20)
(130.02 562.285 3.43549e-18)
(130.878 558.722 9.26964e-19)
(107.587 559.817 -3.99542e-17)
(-35.5481 521.269 -7.49153e-17)
(-6.63595 527.177 1.44609e-16)
(246.613 236.285 0)
(105.14 556.367 -2.93988e-17)
(-158.949 501.435 1.17341e-16)
(-151.592 491.624 -7.13943e-17)
(-134.674 498.026 -1.28419e-16)
(53.9864 553.933 -9.19549e-18)
(-54.0565 549.359 -9.03981e-18)
(-29.3835 556.431 -3.56579e-18)
(75.967 555.428 4.54283e-19)
(-90.4326 515.185 -8.07467e-17)
(-125.947 495.598 7.43997e-17)
(99.8927 558.825 -2.04765e-19)
(105.6 555.579 -1.93524e-19)
(89.9779 557.932 0)
(41.657 593.497 -1.45323e-19)
(7.81474 613.291 1.71942e-19)
(1.58404 617.366 -1.3955e-19)
(5.43958 617.357 1.36602e-19)
(-3.99365 611.953 3.52644e-19)
(-44.2165 588.026 -2.95491e-19)
(-91.6957 548.29 8.88006e-19)
(-103.665 542.612 -1.20501e-18)
(-98.8954 542.421 0)
(-88.2942 543.198 -1.26857e-20)
(-77.0207 544.588 0)
(-78.2856 542.98 -1.30965e-18)
(-80.3777 540.548 4.39968e-19)
(-82.4066 538.578 0)
(-85.4254 535.522 0)
(-87.516 532.323 1.11037e-19)
(-88.4712 529.192 -1.31423e-20)
(-87.987 527.579 0)
(-76.2492 525.804 -7.45753e-20)
(-49.1784 533.306 6.2925e-20)
(-10.0954 562.654 1.64887e-19)
(33.3857 585.458 1.42916e-19)
(62.1246 586.659 1.66221e-19)
(80.1737 592.987 1.60407e-21)
(90.2793 591.444 -3.37536e-19)
(95.788 594.028 8.90416e-20)
(100.818 591.127 3.35969e-19)
(104.74 592.141 8.09667e-20)
(108.432 589.361 -1.74669e-19)
(112.186 589.121 3.37752e-19)
(115.044 586.449 -1.01726e-18)
(118.54 585.995 -1.37538e-18)
(121.471 583.158 6.84076e-19)
(125.018 582.472 -1.39943e-18)
(128.243 579.58 0)
(131.771 578.616 -4.34767e-18)
(134.914 575.529 8.84559e-18)
(138.586 574.172 0)
(141.397 570.689 0)
(144.687 568.699 0)
(147.438 564.47 2.3222e-18)
(150.366 561.714 1.65813e-19)
(152.826 556.709 1.69859e-19)
(129.288 555.543 -2.66619e-17)
(35.403 539.529 -6.94142e-17)
(-53.3475 518.699 4.32113e-18)
(257.623 457.208 6.05481e-17)
(85.0025 525.606 0)
(-174.149 517.243 -3.59642e-18)
(-168.652 526.139 0)
(-162.963 532.29 0)
(-157.597 539.213 1.62478e-18)
(-151.732 543.994 -3.30947e-18)
(-147.163 549.987 0)
(-141.695 553.739 1.56886e-18)
(-137.217 558.625 0)
(-132.298 561.951 -3.81287e-19)
(-128.153 565.779 3.62979e-19)
(-123.538 568.855 -1.86039e-18)
(-119.862 571.795 1.27935e-20)
(-115.456 575.141 -7.24007e-19)
(-112.331 577.396 1.43591e-18)
(-108.567 580.868 1.05089e-18)
(-106.192 582.44 -1.06014e-18)
(-102.944 585.784 0)
(-100.877 587.21 -5.85553e-21)
(-97.8887 589.795 -5.1433e-19)
(-95.7227 591.728 0)
(-92.6254 593.291 0)
(-90.3643 595.399 1.70424e-19)
(-86.3716 596.705 4.95704e-19)
(-83.4651 598.322 -3.26967e-19)
(-78.4661 598.915 3.27048e-19)
(-74.2957 600.667 -6.56511e-19)
(-65.9475 599.886 -1.51826e-19)
(-53.6977 599.031 -1.25912e-18)
(-37.3901 593.938 6.43838e-19)
(-10.2899 589.824 0)
(33.5677 565.769 -1.28608e-18)
(60.7495 541.235 -6.50766e-19)
(84.225 541.08 0)
(87.8194 542.643 8.55984e-19)
(89.6378 545.522 4.42333e-20)
(89.1302 551.028 1.27224e-18)
(87.4368 555.321 1.23474e-18)
(85.7255 559.223 0)
(84.8386 561.292 -3.93108e-19)
(18.4116 520.409 -7.40318e-17)
(-25.3559 518.409 -1.46347e-16)
(-35.8518 577.301 1.61719e-17)
(72.9504 552.252 -2.90347e-17)
(-114.442 501.316 1.33323e-16)
(101.543 553.587 -1.23902e-18)
(-65.7418 544.979 2.20381e-19)
(-66.1436 543.805 1.10453e-18)
(-67.1699 541.882 -8.86935e-19)
(-68.267 540.266 0)
(-70.1063 538.018 0)
(-72.5387 535.871 0)
(-76.4419 532.306 0)
(-80.5919 527.592 2.3771e-19)
(-82.7457 523.53 -1.10338e-19)
(-83.5954 520.713 6.10338e-20)
(-76.3461 518.902 -3.6428e-19)
(-47.8401 520.551 2.85981e-19)
(-12.1314 550.915 9.48205e-20)
(39.4277 576.932 -1.46234e-19)
(70.4171 578.056 0)
(91.6273 585.478 3.6957e-21)
(104.774 584.359 -8.78809e-20)
(112.736 587.35 8.01779e-20)
(119.938 584.781 1.63453e-19)
(124.717 586.803 -1.94714e-19)
(129.298 584.22 1.92221e-19)
(133.435 583.54 -5.08118e-19)
(137.39 580.622 -1.04602e-18)
(140.932 579.527 6.7822e-19)
(144.539 576.127 0)
(148.13 574.291 -1.08414e-20)
(152.322 570.356 -4.43724e-18)
(156.369 567.543 3.65019e-18)
(161.196 563.489 -7.49739e-19)
(165.631 559.863 0)
(170.967 555.626 -7.64187e-19)
(175.931 550.993 1.07872e-17)
(181.388 545.874 -5.83043e-18)
(154.731 553.091 2.38378e-17)
(48.2425 539.743 1.4664e-16)
(-76.2813 511.914 5.16153e-18)
(83.831 562.428 -9.21509e-20)
(97.0858 560.156 5.91699e-19)
(105.48 557.099 9.5183e-20)
(104.125 557.374 0)
(74.7764 571.456 -1.53195e-19)
(22.5286 608.482 1.99914e-19)
(5.52472 616.257 -2.09563e-19)
(0.847685 615.657 -5.51475e-19)
(-20.7726 606.596 5.55498e-19)
(-76.1555 561.855 0)
(-104.103 547.156 -4.07527e-19)
(-104.59 543.927 1.22535e-18)
(-96.9518 544.892 -8.47397e-19)
(-86.5889 545.602 -4.32731e-19)
(-75.7322 546.833 6.48197e-19)
(-65.2826 546.92 -8.58699e-19)
(57.355 532.784 1.4056e-16)
(-152.791 473.663 -6.03862e-17)
(-164.307 470.554 6.28532e-17)
(-175.13 471.622 1.26179e-16)
(-195.488 476.715 5.47476e-17)
(18.5293 549.757 -2.57778e-18)
(62.0514 542.401 3.8579e-17)
(-54.3561 104.616 0)
(254.156 491.993 0)
(-204.01 508.115 0)
(-197.129 517.264 8.42299e-19)
(-188.694 525.979 -1.62389e-18)
(-182.522 532.049 7.80034e-20)
(-175.424 538.425 4.84271e-18)
(-169.993 542.869 -3.17606e-18)
(-164.408 548.53 2.18207e-20)
(-159.668 552.163 1.50659e-18)
(-154.871 556.976 -2.63476e-18)
(-150.868 560.154 4.2541e-19)
(-146.348 564.48 1.49105e-18)
(-142.725 567.339 -3.64994e-19)
(-138.532 571.472 3.42009e-19)
(-134.929 573.804 -1.06663e-18)
(-130.494 577.649 3.50993e-19)
(-126.946 579.855 1.02505e-18)
(-122.737 582.893 -6.81853e-19)
(-119.156 585.005 6.82941e-19)
(-115.187 587.331 2.52657e-19)
(-110.934 589.177 5.75285e-19)
(-106.683 591.28 -7.51359e-19)
(-101.474 591.216 5.02982e-19)
(-95.945 592.317 -9.11368e-19)
(-87.9601 591.761 -6.81057e-19)
(-78.1168 591.713 6.70642e-19)
(-61.4854 588.744 3.17336e-19)
(-29.5949 587.228 -5.67562e-19)
(-1.16799 575.7 0)
(44.1067 553.083 -1.03496e-18)
(63.0521 533.977 4.55619e-19)
(85.9918 535.674 -8.45856e-19)
(85.662 537.314 -1.17413e-18)
(84.013 540.3 -8.16124e-19)
(81.6046 544.257 -1.67758e-18)
(77.2697 547.062 4.16149e-19)
(73.9255 550.041 -4.2844e-19)
(71.6285 553.435 -8.30931e-19)
(69.7832 557.217 0)
(69.2699 559.507 0)
(68.6162 561.054 0)
(-42.6843 557.67 0)
(127.45 552.015 -1.7898e-18)
(69.3377 548.66 1.42429e-16)
(34.004 512.416 7.00045e-17)
(-43.6814 513.164 7.7165e-17)
(-1.88542 516.471 1.4032e-16)
(37.0081 545.879 -7.07345e-17)
(-107.488 513.901 -2.19304e-17)
(-212.717 411.393 0)
(39.2661 549.294 -7.92297e-17)
(97.9501 550.1 -3.07786e-17)
(186.062 539.817 -1.10673e-17)
(6.6553 552.386 -2.00472e-16)
(16.6541 505.868 9.20206e-17)
(262.808 430.619 6.54758e-17)
(-197.619 424.442 -1.27561e-17)
(-56.2615 545.071 -4.35286e-19)
(-55.9677 543.38 -1.09808e-19)
(-55.5812 542.683 -3.18368e-19)
(-55.1647 541.488 -1.05853e-20)
(-54.3927 539.828 0)
(-54.0094 538.959 0)
(-53.839 537.817 0)
(-54.7326 536.02 -5.77836e-20)
(-57.1714 533.559 -7.50757e-20)
(-62.2188 530.069 6.76026e-20)
(-68.0651 524.862 -6.19584e-20)
(-72.2104 518.648 1.41314e-19)
(-74.431 514.648 -1.61142e-19)
(-74.4378 512.208 0)
(-45.415 509.801 0)
(-18.0036 542.339 0)
(36.1778 567.104 0)
(66.5701 571.914 0)
(92.8901 576.207 0)
(111.149 577.652 -5.33304e-20)
(124.192 578.364 1.64705e-19)
(131.854 575.842 0)
(139.438 577.148 -4.59222e-19)
(143.97 574.06 7.84602e-19)
(149.429 572.683 7.03059e-19)
(153.434 568.112 0)
(159.462 566.439 2.1955e-18)
(163.602 561.156 -2.24741e-18)
(169.636 559.965 -7.39091e-19)
(174.185 554.495 1.53567e-18)
(180.162 552.901 -2.26704e-18)
(185.747 547.2 1.12039e-18)
(191.624 544.313 -3.01949e-18)
(198.512 538.466 7.37685e-19)
(204.79 533.812 2.33529e-17)
(65.1557 536.888 7.5163e-17)
(-185.725 433.793 1.16091e-16)
(-188.687 437.908 6.39791e-17)
(68.6537 561.966 0)
(82.9001 563.061 2.54003e-21)
(95.3201 560.386 -2.00775e-19)
(104.613 557.972 -1.00689e-19)
(107.382 556.318 -2.39172e-20)
(96.9732 557.684 2.58952e-20)
(48.5052 594.026 0)
(10.297 612.381 0)
(-5.03401 612.05 2.1586e-19)
(-51.6273 590.226 -8.97258e-19)
(-100.004 551.528 8.53518e-19)
(-107.537 546.668 0)
(-104.349 545.223 -8.36939e-19)
(-95.555 546.341 8.4025e-19)
(-85.1069 547.09 2.09642e-19)
(-74.8938 548.202 2.15485e-19)
(-65.1504 548.112 0)
(-56.6471 546.173 0)
(-36.5313 548.126 0)
(-178.729 448.824 6.38615e-17)
(-183.299 443.02 0)
(-194.944 446.833 -1.26448e-16)
(-211.035 440.212 6.60799e-17)
(-228.818 447.75 1.05078e-16)
(53.0991 534.869 -1.31271e-17)
(-69.5649 495.414 7.0644e-17)
(-239.727 474.771 1.09152e-18)
(-230.036 489.357 -1.4891e-17)
(-220.25 501.232 6.00086e-18)
(-209.493 510.579 -7.07081e-18)
(-199.973 519.129 -2.8827e-18)
(-191.1 525.775 4.24052e-18)
(-183.223 531.897 7.80926e-19)
(-176.364 536.768 -4.05167e-18)
(-169.65 542.179 2.41989e-18)
(-164.039 546.139 0)
(-158.449 550.858 -1.91726e-18)
(-154.315 554.045 1.19177e-18)
(-149.048 558.418 1.8941e-18)
(-145.437 560.873 3.51656e-19)
(-140.295 565.613 -1.49968e-18)
(-136.825 567.717 -7.45355e-19)
(-131.804 572.374 0)
(-128.555 574.698 0)
(-123.137 577.994 -1.73623e-19)
(-119.347 580.83 -8.48632e-20)
(-112.893 580.799 8.88847e-19)
(-107.152 583.847 1.85055e-19)
(-96.4192 582.742 -5.91778e-19)
(-82.2275 584.028 -2.61018e-20)
(-64.9787 577.732 0)
(-36.5379 578.237 0)
(1.5273 556.148 -1.03566e-18)
(41.1765 530.31 1.13214e-18)
(63.0318 526.405 -4.79088e-19)
(79.4187 529.634 -1.19351e-19)
(78.2588 531.928 4.50645e-19)
(75.467 535.316 4.53977e-19)
(70.0317 541.818 2.65462e-18)
(64.7467 546.365 0)
(60.8232 549.524 1.29122e-18)
(58.6921 550.333 -1.28374e-18)
(57.3923 551.843 8.30486e-19)
(56.952 553.496 -8.44755e-19)
(56.9109 555.254 8.36557e-19)
(57.5982 556.92 0)
(57.606 558.436 0)
(57.8884 559.855 -3.973e-19)
(71.7146 528.739 1.41521e-16)
(154.694 547.689 -2.52091e-17)
(-162.937 459.197 -6.32318e-17)
(88.7666 510.869 1.43852e-16)
(76.0911 509.019 -4.55014e-18)
(59.1455 504.767 1.48314e-16)
(121.889 549.367 2.81481e-17)
(-63.5502 508.334 -1.54214e-16)
(18.5471 509.653 0)
(-24.4549 508.733 0)
(-176.546 448.164 -1.38519e-17)
(135.078 407.956 -9.03781e-17)
(83.2285 531.965 6.86611e-18)
(35.9668 554.12 -1.20228e-16)
(238.726 511.981 -1.27791e-17)
(78.5628 537.084 -8.74296e-17)
(-0.92893 580.88 0)
(10.4539 564.823 -8.86846e-18)
(229.531 521.716 0)
(220.947 526.491 3.99422e-19)
(213.15 535.721 7.52553e-19)
(204.661 539.673 2.78846e-19)
(198.386 547.055 4.80909e-20)
(190.854 549.753 0)
(185.121 554.059 9.56856e-19)
(177.986 556.224 -9.64063e-19)
(170.811 556.515 3.67036e-19)
(162.507 558.706 -7.3472e-19)
(152.147 558.512 1.63367e-19)
(142.84 561.754 0)
(127.974 560.199 3.58298e-19)
(111.079 564.392 -2.5009e-19)
(92.1715 557.174 2.16616e-19)
(53.7747 560.038 -3.78152e-19)
(10.1065 539.65 4.94348e-19)
(-34.5833 512.893 5.77451e-20)
(-61.3772 497.404 -2.63136e-19)
(-80.4749 502.134 1.19798e-19)
(-77.1225 505.077 -1.35574e-19)
(-68.8139 511.131 0)
(-59.714 518.999 6.38089e-20)
(-49.2998 523.924 -3.16039e-20)
(-43.4351 527.24 -1.16302e-19)
(-40.2121 528.769 1.03284e-19)
(-40.3397 530.153 1.45292e-20)
(-41.5077 530.482 -5.94299e-20)
(-43.549 531.124 0)
(-45.4576 531.58 0)
(-46.546 533.027 -2.29516e-19)
(-47.5629 534.333 1.25242e-18)
(-48.09 536.24 -2.20723e-19)
(-48.5183 537.641 0)
(-48.6569 539.409 8.81061e-19)
(-48.9858 540.477 -2.90777e-21)
(-90.2202 514.224 6.53062e-17)
(57.8046 561.306 4.0332e-19)
(68.0051 563.311 0)
(81.4391 564.01 -9.64142e-20)
(92.9832 561.752 9.87408e-20)
(103.055 559.318 2.45497e-19)
(108.617 556.581 -1.97052e-19)
(107.522 555.31 4.99378e-20)
(84.9816 567.318 1.03541e-19)
(29.3986 607.146 5.2043e-19)
(-22.7393 606.018 -7.53575e-19)
(-84.9328 561.425 -8.61645e-19)
(-108.755 548.701 7.4467e-19)
(-108.879 547.698 -1.00936e-19)
(-103.254 547.659 2.04341e-19)
(-93.8192 548.793 -8.334e-19)
(-83.7839 549.34 -2.1552e-19)
(-74.0566 550.175 8.41603e-19)
(-65.0584 549.796 0)
(-56.9705 547.617 4.25498e-19)
(-49.1719 542.048 -2.16531e-19)
(80.446 531.679 7.27503e-17)
(188.726 533.599 -2.07394e-17)
(104.691 509.562 -7.20419e-17)
(-57.3634 534.851 0)
(-27.4584 557.424 0)
(-9.78285 586.782 -1.34731e-17)
(2.27898 590.835 -3.02996e-18)
(17.7877 581.581 -4.45029e-18)
(52.9721 560.915 -2.00723e-17)
(105.935 508.066 1.61288e-17)
(162.332 451.845 9.14932e-18)
(254.13 454.677 0)
(-168.066 431.12 -1.05396e-17)
(107.24 377.601 1.38789e-17)
(1.5958 427.065 7.58793e-17)
(36.7687 441.355 -7.29617e-17)
(112.962 495.414 -7.10268e-17)
(97.9909 498.924 0)
(82.4917 495.369 0)
(118.861 545.921 6.22688e-17)
(93.2052 522.378 1.40308e-16)
(-205.118 413.496 -1.53811e-17)
(-176.03 424.387 6.25905e-17)
(-174.265 394.096 -7.54122e-17)
(-190.166 387.5 0)
(-209.36 377.089 -1.57601e-16)
(-228.114 376.353 8.35917e-17)
(-242.372 432.546 -1.03984e-16)
(-113.419 163.524 -9.401e-17)
(-254.947 418.915 1.77201e-17)
(-254.503 443.384 -1.89857e-17)
(-249.914 464.631 7.60317e-18)
(-242.45 481.825 -7.46411e-18)
(-234.933 495.931 0)
(-225.463 507.551 -4.18186e-19)
(-216.972 517.115 -6.01752e-19)
(-207.302 525.243 2.35341e-18)
(-200.163 531.3 7.20538e-19)
(-191.637 537.549 -3.8377e-18)
(-185.855 541.506 1.54606e-18)
(-178.132 546.908 1.848e-18)
(-172.425 549.559 -1.51779e-18)
(-165.873 554.048 9.25842e-19)
(-159.939 555.979 -9.43255e-19)
(-153.409 558.876 -3.69977e-19)
(-146.444 560.66 1.10526e-18)
(-139.025 562.668 2.02088e-19)
(-131.179 564.708 7.42851e-19)
(-122.648 565.407 -7.51204e-19)
(-112.898 568.407 0)
(-98.6318 567.63 -2.04853e-19)
(-84.056 568.612 -8.6109e-20)
(-48.9077 563.577 -1.10052e-18)
(-23.5889 561.875 8.56819e-19)
(20.9925 542.587 -1.40279e-19)
(43.9044 515.193 9.92017e-19)
(70.1652 517.674 -1.72435e-18)
(69.9099 519.896 8.96855e-19)
(67.333 524.358 4.39991e-19)
(63.0757 529.77 2.2103e-19)
(56.6602 534.932 -4.35329e-19)
(50.2453 539.16 1.35223e-18)
(46.1346 543.526 -1.33168e-18)
(44.5415 546.932 -4.50439e-19)
(44.6854 548.62 -1.31351e-18)
(45.7464 549.062 1.70981e-18)
(46.5437 549.252 -1.3019e-18)
(47.4665 549.54 8.44518e-19)
(47.9244 550.654 -1.69024e-18)
(48.4694 552.211 0)
(48.7242 554.259 8.19485e-19)
(49.4546 555.69 -4.2611e-19)
(49.8902 556.893 -4.13947e-19)
(192.256 422.185 -1.70895e-16)
(186.134 414.287 8.58545e-17)
(190.157 401.842 -8.66948e-17)
(-85.7177 523.173 2.85749e-17)
(125.88 340.65 -1.14753e-16)
(149.116 544.919 0)
(130.98 488.557 -2.2151e-17)
(147.981 325.09 -1.2354e-16)
(-169.814 444.716 5.58608e-17)
(-4.37906 504.15 2.27249e-16)
(-46.0334 503.28 -1.53324e-16)
(42.4019 501.035 -7.15154e-17)
(181.314 444.39 0)
(138.394 474.803 -8.06761e-17)
(153.113 469.361 7.62883e-17)
(16.9569 525.531 -3.25077e-17)
(180.903 443.013 -8.33685e-17)