/*--------------------------------*- C++ -*----------------------------------*\
| =========                 |                                                 |
| \\      /  F ield         | OpenFOAM: The Open Source CFD Toolbox           |
|  \\    /   O peration     | Version:  2212                                  |
|   \\  /    A nd           | Website:  www.openfoam.com                      |
|    \\/     M anipulation  |                                                 |
\*---------------------------------------------------------------------------*/
FoamFile
{
    version     2.0;
    format      ascii;
    arch        "LSB;label=32;scalar=64";
    class       volVectorField;
    location    "0.401";
    object      U;
}
// * * * * * * * * * * * * * * * * * * * * * * * * * * * * * * * * * * * * * //

dimensions      [0 1 -1 0 0 0 0];

internalField   nonuniform List<vector> 
24240
(
(9.0228 0.767184 8.35803e-07)
(9.02306 0.767206 -1.02151e-06)
(9.02305 0.767204 -3.05769e-07)
(9.02306 0.767202 -8.39985e-07)
(9.02306 0.7672 -6.18014e-07)
(9.02306 0.767197 -8.09899e-07)
(9.02306 0.767193 -7.54844e-07)
(9.02306 0.76719 -8.36612e-07)
(9.02306 0.767186 -8.14691e-07)
(9.02306 0.767182 -8.40777e-07)
(9.02307 0.767179 -7.98466e-07)
(9.02307 0.767175 -7.8877e-07)
(9.02307 0.767172 -6.96102e-07)
(9.02307 0.767169 -6.75501e-07)
(9.02307 0.767166 -4.84084e-07)
(9.02307 0.767164 -5.19054e-07)
(9.02307 0.767162 -1.02362e-07)
(9.02307 0.76716 -4.30097e-07)
(9.02308 0.76716 5.58717e-07)
(9.02282 0.767136 -1.01557e-06)
(9.01582 0.769977 -1.44672e-06)
(9.01609 0.770002 -2.58108e-06)
(9.01609 0.770002 -3.41432e-06)
(9.01609 0.770004 -4.67843e-06)
(9.01609 0.770006 -5.4627e-06)
(9.01609 0.770009 -6.31719e-06)
(9.01609 0.770012 -6.82846e-06)
(9.01609 0.770016 -7.24082e-06)
(9.01609 0.770019 -7.38139e-06)
(9.0161 0.770023 -7.37673e-06)
(9.0161 0.770026 -7.14705e-06)
(9.0161 0.77003 -6.7929e-06)
(9.0161 0.770033 -6.2459e-06)
(9.0161 0.770036 -5.65115e-06)
(9.0161 0.770038 -4.8626e-06)
(9.0161 0.770041 -4.16582e-06)
(9.01611 0.770043 -3.14894e-06)
(9.01611 0.770044 -2.41592e-06)
(9.01611 0.770045 -1.03429e-06)
(9.01584 0.770022 2.01313e-07)
(9.04222 0.544833 -2.85166e-07)
(9.04248 0.544851 8.47457e-07)
(9.04248 0.544851 2.0011e-06)
(9.04248 0.544851 2.73944e-06)
(9.04248 0.544851 3.76629e-06)
(9.04248 0.544851 4.30619e-06)
(9.04248 0.544851 4.85137e-06)
(9.04247 0.544851 5.12235e-06)
(9.04247 0.54485 5.29968e-06)
(9.04247 0.54485 5.28219e-06)
(9.04247 0.54485 5.16518e-06)
(9.04247 0.54485 4.89184e-06)
(9.04247 0.54485 4.56533e-06)
(9.04247 0.54485 4.0972e-06)
(9.04246 0.54485 3.69238e-06)
(9.04246 0.54485 3.07825e-06)
(9.04246 0.54485 2.79686e-06)
(9.04246 0.54485 2.06583e-06)
(9.04246 0.54485 1.64624e-06)
(9.0422 0.544833 1.10123e-06)
(9.01343 0.540331 -1.13422e-06)
(9.0137 0.540348 -2.44451e-06)
(9.0137 0.540348 -3.34273e-06)
(9.0137 0.540348 -4.53326e-06)
(9.0137 0.540349 -5.54472e-06)
(9.0137 0.54035 -6.38676e-06)
(9.0137 0.540351 -6.96347e-06)
(9.0137 0.540351 -7.37638e-06)
(9.0137 0.540352 -7.53941e-06)
(9.0137 0.540353 -7.52995e-06)
(9.0137 0.540354 -7.30653e-06)
(9.0137 0.540355 -6.93832e-06)
(9.0137 0.540356 -6.39202e-06)
(9.0137 0.540356 -5.7698e-06)
(9.0137 0.540357 -5.00046e-06)
(9.0137 0.540357 -4.23804e-06)
(9.0137 0.540358 -3.38236e-06)
(9.0137 0.540358 -2.51878e-06)
(9.0137 0.540359 -1.14314e-06)
(9.01344 0.540342 -7.36297e-08)
(9.03533 0.340463 7.83528e-08)
(9.03559 0.340474 1.37823e-06)
(9.03559 0.340475 2.90464e-06)
(9.03559 0.340476 3.96599e-06)
(9.03559 0.340477 4.90928e-06)
(9.03559 0.340478 5.63153e-06)
(9.03558 0.340479 6.22029e-06)
(9.03558 0.340481 6.55683e-06)
(9.03558 0.340483 6.73383e-06)
(9.03558 0.340484 6.69146e-06)
(9.03557 0.340486 6.50738e-06)
(9.03557 0.340487 6.14587e-06)
(9.03557 0.340489 5.69681e-06)
(9.03557 0.34049 5.11019e-06)
(9.03556 0.340491 4.51305e-06)
(9.03556 0.340492 3.78977e-06)
(9.03556 0.340493 3.09612e-06)
(9.03556 0.340494 2.29687e-06)
(9.03556 0.340494 1.84928e-06)
(9.0353 0.340483 1.01727e-06)
(9.01244 0.331899 -7.98784e-07)
(9.0127 0.33191 -1.65847e-06)
(9.0127 0.331909 -2.28472e-06)
(9.0127 0.331908 -3.02217e-06)
(9.0127 0.331906 -3.52253e-06)
(9.0127 0.331905 -4.03139e-06)
(9.0127 0.331903 -4.35041e-06)
(9.0127 0.331901 -4.59108e-06)
(9.0127 0.331899 -4.665e-06)
(9.0127 0.331897 -4.64272e-06)
(9.0127 0.331896 -4.47702e-06)
(9.0127 0.331894 -4.23247e-06)
(9.0127 0.331892 -3.8643e-06)
(9.01269 0.331891 -3.46274e-06)
(9.01269 0.331889 -2.94112e-06)
(9.01269 0.331888 -2.45598e-06)
(9.01269 0.331887 -1.78852e-06)
(9.01269 0.331887 -1.26445e-06)
(9.01269 0.331886 -4.8907e-07)
(9.01243 0.331875 8.92455e-08)
(9.02403 0.154081 -1.82326e-07)
(9.02429 0.154087 4.83689e-07)
(9.02429 0.154088 1.36607e-06)
(9.02429 0.154089 1.90884e-06)
(9.02429 0.154091 2.41128e-06)
(9.02429 0.154093 2.78168e-06)
(9.02429 0.154096 3.09465e-06)
(9.02429 0.154098 3.26837e-06)
(9.02428 0.154101 3.37193e-06)
(9.02428 0.154104 3.35407e-06)
(9.02428 0.154106 3.27607e-06)
(9.02428 0.154109 3.09756e-06)
(9.02427 0.154111 2.89001e-06)
(9.02427 0.154113 2.60003e-06)
(9.02427 0.154115 2.3255e-06)
(9.02427 0.154117 1.97143e-06)
(9.02427 0.154118 1.66612e-06)
(9.02427 0.154119 1.26991e-06)
(9.02427 0.15412 1.15957e-06)
(9.024 0.154115 7.40205e-07)
(9.016 0.140747 -3.56354e-07)
(9.01626 0.14075 -3.76019e-07)
(9.01626 0.140749 -2.18439e-07)
(9.01626 0.140748 -2.21221e-07)
(9.01626 0.140746 -9.77115e-08)
(9.01626 0.140744 -9.08805e-08)
(9.01625 0.140742 -2.82063e-08)
(9.01625 0.14074 -1.96008e-08)
(9.01625 0.140737 1.89992e-08)
(9.01624 0.140735 2.6435e-08)
(9.01624 0.140732 5.85917e-08)
(9.01624 0.14073 6.34723e-08)
(9.01624 0.140728 1.0594e-07)
(9.01623 0.140726 1.1319e-07)
(9.01623 0.140724 1.88375e-07)
(9.01623 0.140723 1.95574e-07)
(9.01623 0.140722 3.41835e-07)
(9.01623 0.140721 3.22932e-07)
(9.01623 0.14072 4.7525e-07)
(9.01596 0.140715 4.0172e-07)
(9.01875 -0.0227588 -5.18209e-07)
(9.01901 -0.0227595 -6.84145e-07)
(9.01901 -0.0227585 -6.37496e-07)
(9.01901 -0.0227569 -7.7507e-07)
(9.01901 -0.022755 -8.09582e-07)
(9.01901 -0.0227528 -8.99611e-07)
(9.01901 -0.0227503 -9.18445e-07)
(9.01901 -0.0227476 -9.53574e-07)
(9.01901 -0.0227448 -9.35525e-07)
(9.01901 -0.022742 -9.19978e-07)
(9.01901 -0.0227392 -8.59164e-07)
(9.01901 -0.0227366 -8.03841e-07)
(9.01901 -0.0227341 -7.00216e-07)
(9.01901 -0.0227319 -6.15912e-07)
(9.019 -0.0227299 -4.63573e-07)
(9.019 -0.0227283 -3.62074e-07)
(9.019 -0.022727 -1.43648e-07)
(9.019 -0.0227261 -4.74909e-08)
(9.019 -0.0227254 3.0489e-07)
(9.01874 -0.0227239 4.16165e-07)
(9.02968 -0.0387224 -1.91403e-09)
(9.02994 -0.0387254 8.77789e-07)
(9.02994 -0.0387272 1.929e-06)
(9.02994 -0.0387298 2.68039e-06)
(9.02994 -0.0387331 3.41782e-06)
(9.02993 -0.038737 3.9606e-06)
(9.02993 -0.0387414 4.41291e-06)
(9.02993 -0.0387461 4.68519e-06)
(9.02993 -0.038751 4.84026e-06)
(9.02992 -0.0387559 4.8291e-06)
(9.02992 -0.0387608 4.71025e-06)
(9.02992 -0.0387654 4.45025e-06)
(9.02991 -0.0387697 4.1237e-06)
(9.02991 -0.0387736 3.69079e-06)
(9.02991 -0.038777 3.25744e-06)
(9.02991 -0.0387799 2.74161e-06)
(9.02991 -0.0387822 2.29683e-06)
(9.0299 -0.0387838 1.73285e-06)
(9.0299 -0.038785 1.35009e-06)
(9.02964 -0.0387834 7.30424e-07)
(9.02351 -0.203167 -1.18501e-06)
(9.02378 -0.203174 -2.91146e-06)
(9.02378 -0.203173 -4.34892e-06)
(9.02378 -0.203172 -5.7857e-06)
(9.02378 -0.20317 -6.8979e-06)
(9.02378 -0.203168 -7.89809e-06)
(9.02379 -0.203166 -8.59648e-06)
(9.02379 -0.203164 -9.07752e-06)
(9.02379 -0.203161 -9.26567e-06)
(9.02379 -0.203159 -9.21652e-06)
(9.02379 -0.203157 -8.90178e-06)
(9.0238 -0.203154 -8.38705e-06)
(9.0238 -0.203152 -7.65632e-06)
(9.0238 -0.20315 -6.80626e-06)
(9.0238 -0.203149 -5.78902e-06)
(9.0238 -0.203147 -4.76903e-06)
(9.0238 -0.203146 -3.56352e-06)
(9.0238 -0.203145 -2.50361e-06)
(9.0238 -0.203145 -1.21882e-06)
(9.02354 -0.203137 -1.64561e-07)
(9.05519 -0.216341 3.01932e-07)
(9.05545 -0.21635 1.92633e-06)
(9.05545 -0.216351 3.73548e-06)
(9.05545 -0.216353 5.11925e-06)
(9.05545 -0.216355 6.35213e-06)
(9.05544 -0.216357 7.33847e-06)
(9.05544 -0.21636 8.11466e-06)
(9.05544 -0.216363 8.60836e-06)
(9.05543 -0.216366 8.86527e-06)
(9.05543 -0.216369 8.84278e-06)
(9.05543 -0.216372 8.60216e-06)
(9.05542 -0.216375 8.12155e-06)
(9.05542 -0.216378 7.48767e-06)
(9.05542 -0.21638 6.68666e-06)
(9.05541 -0.216383 5.82685e-06)
(9.05541 -0.216384 4.87293e-06)
(9.05541 -0.216386 3.92297e-06)
(9.05541 -0.216387 2.90365e-06)
(9.05541 -0.216387 2.10208e-06)
(9.05514 -0.216379 1.01762e-06)
(9.03931 -0.396167 -1.65589e-06)
(9.03958 -0.396181 -4.34565e-06)
(9.03958 -0.39618 -6.73947e-06)
(9.03958 -0.396179 -9.0004e-06)
(9.03958 -0.396178 -1.075e-05)
(9.03959 -0.396177 -1.23363e-05)
(9.03959 -0.396175 -1.34648e-05)
(9.0396 -0.396174 -1.42368e-05)
(9.0396 -0.396172 -1.45607e-05)
(9.0396 -0.396171 -1.44952e-05)
(9.03961 -0.396169 -1.40224e-05)
(9.03961 -0.396168 -1.32187e-05)
(9.03961 -0.396166 -1.20913e-05)
(9.03962 -0.396165 -1.07581e-05)
(9.03962 -0.396164 -9.1886e-06)
(9.03962 -0.396163 -7.58618e-06)
(9.03962 -0.396162 -5.70312e-06)
(9.03963 -0.396162 -4.02302e-06)
(9.03963 -0.396161 -2.16018e-06)
(9.03936 -0.396147 -4.90591e-07)
(9.08799 -0.404439 4.85751e-07)
(9.08826 -0.404454 2.60678e-06)
(9.08826 -0.404455 4.97562e-06)
(9.08825 -0.404457 6.76421e-06)
(9.08825 -0.404458 8.2755e-06)
(9.08825 -0.404459 9.54592e-06)
(9.08825 -0.404461 1.05361e-05)
(9.08824 -0.404463 1.11752e-05)
(9.08824 -0.404465 1.15043e-05)
(9.08824 -0.404467 1.14714e-05)
(9.08823 -0.404469 1.11494e-05)
(9.08823 -0.404471 1.05166e-05)
(9.08822 -0.404473 9.67752e-06)
(9.08822 -0.404474 8.62697e-06)
(9.08822 -0.404476 7.48391e-06)
(9.08822 -0.404477 6.23758e-06)
(9.08821 -0.404478 4.91757e-06)
(9.08821 -0.404478 3.60577e-06)
(9.08821 -0.404479 2.60638e-06)
(9.08794 -0.404464 1.22261e-06)
(9.06153 -0.611116 -1.96526e-06)
(9.0618 -0.611137 -5.21986e-06)
(9.0618 -0.611137 -8.20844e-06)
(9.0618 -0.611136 -1.10012e-05)
(9.0618 -0.611136 -1.31572e-05)
(9.06181 -0.611136 -1.51498e-05)
(9.06181 -0.611136 -1.65857e-05)
(9.06182 -0.611136 -1.75745e-05)
(9.06182 -0.611135 -1.80067e-05)
(9.06183 -0.611135 -1.79503e-05)
(9.06183 -0.611135 -1.73866e-05)
(9.06184 -0.611135 -1.64081e-05)
(9.06184 -0.611135 -1.50317e-05)
(9.06185 -0.611135 -1.3396e-05)
(9.06185 -0.611135 -1.1488e-05)
(9.06185 -0.611134 -9.52771e-06)
(9.06186 -0.611134 -7.20347e-06)
(9.06186 -0.611135 -5.12568e-06)
(9.06186 -0.611135 -2.84241e-06)
(9.0616 -0.611114 -7.02303e-07)
(9.11776 -0.613291 4.66894e-07)
(9.11802 -0.613312 2.72292e-06)
(9.11802 -0.613312 5.27394e-06)
(9.11802 -0.613313 7.07948e-06)
(9.11802 -0.613313 8.52442e-06)
(9.11802 -0.613313 9.80519e-06)
(9.11802 -0.613313 1.08351e-05)
(9.11801 -0.613313 1.14778e-05)
(9.11801 -0.613313 1.18198e-05)
(9.11801 -0.613313 1.17673e-05)
(9.118 -0.613313 1.14252e-05)
(9.118 -0.613314 1.07479e-05)
(9.118 -0.613314 9.87324e-06)
(9.118 -0.613314 8.76599e-06)
(9.11799 -0.613314 7.58892e-06)
(9.11799 -0.613314 6.28286e-06)
(9.11799 -0.613314 4.82186e-06)
(9.11799 -0.613313 3.4679e-06)
(9.11799 -0.613313 2.59913e-06)
(9.11772 -0.613293 1.27351e-06)
(9.07968 -0.854369 -1.92283e-06)
(9.07995 -0.854397 -5.09945e-06)
(9.07995 -0.854398 -7.62354e-06)
(9.07995 -0.854398 -1.04988e-05)
(9.07996 -0.8544 -1.32133e-05)
(9.07996 -0.854402 -1.52964e-05)
(9.07997 -0.854404 -1.68418e-05)
(9.07997 -0.854406 -1.78786e-05)
(9.07998 -0.854409 -1.833e-05)
(9.07998 -0.854411 -1.82877e-05)
(9.07999 -0.854414 -1.77124e-05)
(9.07999 -0.854416 -1.67268e-05)
(9.08 -0.854418 -1.53333e-05)
(9.08 -0.85442 -1.36958e-05)
(9.08001 -0.854422 -1.1845e-05)
(9.08001 -0.854423 -9.91764e-06)
(9.08001 -0.854425 -8.0952e-06)
(9.08001 -0.854427 -5.99318e-06)
(9.08002 -0.854428 -3.13555e-06)
(9.07975 -0.8544 -8.24174e-07)
(9.12994 -0.848521 4.80006e-08)
(9.1302 -0.848547 1.85219e-06)
(9.1302 -0.848546 3.10119e-06)
(9.1302 -0.848545 4.11269e-06)
(9.1302 -0.848543 5.57254e-06)
(9.1302 -0.84854 6.33353e-06)
(9.1302 -0.848538 7.12065e-06)
(9.1302 -0.848535 7.49565e-06)
(9.1302 -0.848532 7.73535e-06)
(9.1302 -0.848529 7.65032e-06)
(9.1302 -0.848526 7.40587e-06)
(9.1302 -0.848523 6.89755e-06)
(9.1302 -0.848521 6.31401e-06)
(9.1302 -0.848518 5.5187e-06)
(9.1302 -0.848516 4.83349e-06)
(9.1302 -0.848515 3.8966e-06)
(9.1302 -0.848513 3.46554e-06)
(9.1302 -0.848512 2.4417e-06)
(9.13019 -0.848512 1.49945e-06)
(9.12993 -0.848485 1.01617e-06)
(9.0797 -1.12687 -1.44518e-06)
(9.07996 -1.12691 -3.39305e-06)
(9.07996 -1.12691 -5.70234e-06)
(9.07996 -1.12691 -8.08225e-06)
(9.07997 -1.12692 -9.81191e-06)
(9.07997 -1.12692 -1.1438e-05)
(9.07997 -1.12693 -1.25025e-05)
(9.07998 -1.12693 -1.32931e-05)
(9.07998 -1.12694 -1.3588e-05)
(9.07999 -1.12695 -1.35626e-05)
(9.07999 -1.12695 -1.31057e-05)
(9.07999 -1.12696 -1.23826e-05)
(9.08 -1.12697 -1.13154e-05)
(9.08 -1.12697 -1.01333e-05)
(9.08 -1.12698 -8.70146e-06)
(9.08001 -1.12698 -7.36719e-06)
(9.08001 -1.12698 -5.74983e-06)
(9.08001 -1.12699 -4.4267e-06)
(9.08001 -1.12699 -2.77486e-06)
(9.07975 -1.12696 -6.68966e-07)
(9.10916 -1.10903 2.66693e-06)
(9.10939 -1.10906 -2.34423e-07)
(9.10938 -1.10905 -9.09321e-07)
(9.10939 -1.10905 -2.39654e-06)
(9.10939 -1.10904 -2.70818e-06)
(9.10939 -1.10904 -3.36074e-06)
(9.1094 -1.10903 -3.56138e-06)
(9.1094 -1.10903 -3.84987e-06)
(9.10941 -1.10902 -3.894e-06)
(9.10941 -1.10902 -3.93665e-06)
(9.10942 -1.10901 -3.8021e-06)
(9.10942 -1.10901 -3.6659e-06)
(9.10942 -1.109 -3.35912e-06)
(9.10943 -1.109 -3.12641e-06)
(9.10943 -1.10899 -2.65793e-06)
(9.10943 -1.10899 -2.48266e-06)
(9.10944 -1.10899 -1.84382e-06)
(9.10944 -1.10898 -2.23164e-06)
(9.10945 -1.10899 -1.75854e-06)
(9.10921 -1.10896 -3.43685e-06)
(8.75216 0.753596 2.75993e-07)
(8.75241 0.753618 -1.3975e-06)
(8.75241 0.753616 -8.85915e-07)
(8.75241 0.753615 -1.50454e-06)
(8.75241 0.753612 -1.33909e-06)
(8.75241 0.75361 -1.61763e-06)
(8.75241 0.753607 -1.59528e-06)
(8.75241 0.753603 -1.72626e-06)
(8.75242 0.7536 -1.70662e-06)
(8.75242 0.753597 -1.73982e-06)
(8.75242 0.753593 -1.66676e-06)
(8.75242 0.75359 -1.63416e-06)
(8.75242 0.753587 -1.47827e-06)
(8.75242 0.753584 -1.41251e-06)
(8.75242 0.753582 -1.12247e-06)
(8.75242 0.75358 -1.08818e-06)
(8.75242 0.753578 -5.2402e-07)
(8.75242 0.753577 -6.99731e-07)
(8.75242 0.753576 3.71094e-07)
(8.75217 0.753553 -6.61964e-07)
(8.7703 0.754945 -1.48583e-06)
(8.77056 0.754969 -2.76299e-06)
(8.77056 0.754971 -3.70585e-06)
(8.77056 0.754974 -4.99038e-06)
(8.77056 0.754977 -5.7856e-06)
(8.77056 0.754981 -6.67801e-06)
(8.77055 0.754986 -7.20135e-06)
(8.77055 0.754991 -7.64399e-06)
(8.77055 0.754996 -7.7891e-06)
(8.77055 0.755002 -7.80396e-06)
(8.77055 0.755007 -7.57352e-06)
(8.77055 0.755012 -7.23355e-06)
(8.77055 0.755017 -6.67508e-06)
(8.77055 0.755022 -6.08475e-06)
(8.77055 0.755026 -5.25824e-06)
(8.77055 0.755029 -4.5351e-06)
(8.77055 0.755032 -3.42514e-06)
(8.77055 0.755034 -2.58769e-06)
(8.77055 0.755037 -1.13902e-06)
(8.77029 0.755014 1.54452e-07)
(8.7912 0.549591 -7.79778e-08)
(8.79146 0.549608 1.40089e-06)
(8.79146 0.549608 2.75355e-06)
(8.79146 0.549608 3.86377e-06)
(8.79146 0.549608 5.32515e-06)
(8.79146 0.549608 6.13016e-06)
(8.79146 0.549608 6.92045e-06)
(8.79145 0.549608 7.33081e-06)
(8.79145 0.549608 7.60232e-06)
(8.79145 0.549608 7.59749e-06)
(8.79145 0.549608 7.45077e-06)
(8.79145 0.549608 7.0794e-06)
(8.79145 0.549608 6.62848e-06)
(8.79145 0.549608 5.97186e-06)
(8.79145 0.549608 5.39333e-06)
(8.79145 0.549607 4.53257e-06)
(8.79145 0.549607 4.11553e-06)
(8.79144 0.549607 3.09659e-06)
(8.79144 0.549607 2.20983e-06)
(8.79119 0.549591 1.29359e-06)
(8.7879 0.543807 -1.10734e-06)
(8.78816 0.543824 -2.52303e-06)
(8.78816 0.543824 -3.49772e-06)
(8.78816 0.543824 -4.75285e-06)
(8.78816 0.543824 -5.86193e-06)
(8.78816 0.543825 -6.75465e-06)
(8.78815 0.543825 -7.362e-06)
(8.78815 0.543826 -7.80519e-06)
(8.78815 0.543826 -7.97499e-06)
(8.78815 0.543827 -7.97703e-06)
(8.78815 0.543827 -7.74652e-06)
(8.78815 0.543828 -7.38e-06)
(8.78815 0.543828 -6.81834e-06)
(8.78815 0.543829 -6.19067e-06)
(8.78815 0.543829 -5.39731e-06)
(8.78815 0.543829 -4.61683e-06)
(8.78815 0.54383 -3.75753e-06)
(8.78815 0.543831 -2.82456e-06)
(8.78815 0.543831 -1.37051e-06)
(8.78789 0.543814 -2.12692e-07)
(8.80698 0.348186 2.70454e-07)
(8.80724 0.348197 1.82545e-06)
(8.80724 0.348198 3.53636e-06)
(8.80724 0.3482 4.85521e-06)
(8.80724 0.348202 6.0247e-06)
(8.80724 0.348204 6.94184e-06)
(8.80724 0.348206 7.70854e-06)
(8.80724 0.348208 8.16211e-06)
(8.80724 0.348211 8.43017e-06)
(8.80724 0.348213 8.42259e-06)
(8.80724 0.348216 8.24897e-06)
(8.80724 0.348218 7.84595e-06)
(8.80724 0.348221 7.33908e-06)
(8.80724 0.348223 6.6401e-06)
(8.80724 0.348225 5.92408e-06)
(8.80724 0.348227 5.01881e-06)
(8.80724 0.348228 4.12486e-06)
(8.80724 0.348229 3.06771e-06)
(8.80724 0.348229 2.29916e-06)
(8.80698 0.348219 1.15995e-06)
(8.80504 0.338669 -6.49114e-07)
(8.8053 0.338679 -1.32319e-06)
(8.8053 0.338678 -1.86065e-06)
(8.8053 0.338676 -2.42351e-06)
(8.8053 0.338675 -2.72632e-06)
(8.8053 0.338673 -3.10411e-06)
(8.80529 0.338672 -3.29937e-06)
(8.80529 0.33867 -3.47134e-06)
(8.80529 0.338668 -3.49148e-06)
(8.80529 0.338666 -3.46464e-06)
(8.80529 0.338664 -3.31008e-06)
(8.80529 0.338662 -3.12229e-06)
(8.80529 0.33866 -2.82002e-06)
(8.80529 0.338659 -2.5248e-06)
(8.80528 0.338657 -2.10073e-06)
(8.80528 0.338656 -1.75501e-06)
(8.80528 0.338655 -1.18487e-06)
(8.80528 0.338655 -8.12145e-07)
(8.80528 0.338655 -2.9313e-07)
(8.80502 0.338644 1.12836e-07)
(8.81433 0.153364 -7.84819e-09)
(8.81459 0.153369 8.662e-07)
(8.81459 0.15337 1.87773e-06)
(8.81459 0.153373 2.63523e-06)
(8.81459 0.153375 3.341e-06)
(8.81459 0.153377 3.88869e-06)
(8.81459 0.15338 4.37157e-06)
(8.81459 0.153383 4.66356e-06)
(8.81459 0.153386 4.86884e-06)
(8.81459 0.15339 4.9031e-06)
(8.81459 0.153393 4.85786e-06)
(8.81459 0.153396 4.6625e-06)
(8.81459 0.153399 4.42148e-06)
(8.81459 0.153402 4.0449e-06)
(8.81459 0.153404 3.67217e-06)
(8.81459 0.153406 3.15868e-06)
(8.81459 0.153408 2.67505e-06)
(8.81459 0.153409 2.037e-06)
(8.81459 0.15341 1.58651e-06)
(8.81433 0.153406 8.50961e-07)
(8.81839 0.139662 -1.44336e-07)
(8.81865 0.139666 1.6375e-07)
(8.81865 0.139664 5.32992e-07)
(8.81865 0.139663 8.42204e-07)
(8.81865 0.13966 1.29406e-06)
(8.81865 0.139658 1.54527e-06)
(8.81864 0.139655 1.83069e-06)
(8.81864 0.139652 1.98686e-06)
(8.81864 0.139649 2.13852e-06)
(8.81864 0.139646 2.19104e-06)
(8.81864 0.139643 2.23365e-06)
(8.81864 0.13964 2.18807e-06)
(8.81864 0.139637 2.15284e-06)
(8.81864 0.139635 2.02489e-06)
(8.81864 0.139632 1.95318e-06)
(8.81864 0.139631 1.74685e-06)
(8.81864 0.139629 1.68979e-06)
(8.81864 0.139628 1.37092e-06)
(8.81864 0.139627 1.06374e-06)
(8.81838 0.139623 5.70767e-07)
(8.81962 -0.0379561 -4.55219e-07)
(8.81988 -0.0379573 -6.11061e-07)
(8.81988 -0.0379564 -6.46563e-07)
(8.81988 -0.0379548 -7.50409e-07)
(8.81988 -0.037953 -7.07807e-07)
(8.81988 -0.0379509 -7.5085e-07)
(8.81988 -0.0379486 -6.96799e-07)
(8.81988 -0.037946 -6.8251e-07)
(8.81988 -0.0379433 -5.99231e-07)
(8.81988 -0.0379406 -5.3744e-07)
(8.81988 -0.0379379 -4.19645e-07)
(8.81988 -0.0379353 -3.29185e-07)
(8.81987 -0.0379328 -1.84213e-07)
(8.81987 -0.0379305 -8.97657e-08)
(8.81987 -0.0379284 7.7413e-08)
(8.81987 -0.0379266 1.44749e-07)
(8.81987 -0.0379251 3.35154e-07)
(8.81987 -0.0379242 3.42454e-07)
(8.81987 -0.0379233 4.59689e-07)
(8.81961 -0.0379212 4.05972e-07)
(8.83054 -0.0527421 2.0178e-07)
(8.8308 -0.0527455 1.35226e-06)
(8.8308 -0.0527471 2.58303e-06)
(8.8308 -0.0527497 3.62352e-06)
(8.8308 -0.0527527 4.65401e-06)
(8.8308 -0.0527562 5.43567e-06)
(8.8308 -0.0527602 6.10967e-06)
(8.8308 -0.0527644 6.54806e-06)
(8.8308 -0.0527689 6.84455e-06)
(8.8308 -0.0527734 6.92435e-06)
(8.8308 -0.0527778 6.87312e-06)
(8.8308 -0.0527821 6.63503e-06)
(8.8308 -0.052786 6.30753e-06)
(8.8308 -0.0527897 5.82396e-06)
(8.8308 -0.0527929 5.30835e-06)
(8.8308 -0.0527957 4.63483e-06)
(8.8308 -0.0527979 3.98275e-06)
(8.8308 -0.0527994 3.09462e-06)
(8.8308 -0.0528006 2.18721e-06)
(8.83054 -0.0527986 9.86424e-07)
(8.82523 -0.233242 -1.06564e-06)
(8.82548 -0.23325 -2.64853e-06)
(8.82548 -0.233249 -4.07748e-06)
(8.82548 -0.233248 -5.37947e-06)
(8.82548 -0.233246 -6.29599e-06)
(8.82548 -0.233244 -7.18139e-06)
(8.82548 -0.233242 -7.75248e-06)
(8.82548 -0.23324 -8.15783e-06)
(8.82547 -0.233238 -8.27919e-06)
(8.82547 -0.233236 -8.20822e-06)
(8.82547 -0.233233 -7.88966e-06)
(8.82547 -0.233231 -7.41666e-06)
(8.82547 -0.233229 -6.74361e-06)
(8.82547 -0.233227 -5.99352e-06)
(8.82546 -0.233225 -5.06868e-06)
(8.82546 -0.233223 -4.17739e-06)
(8.82546 -0.233222 -3.04549e-06)
(8.82546 -0.233221 -2.11055e-06)
(8.82546 -0.23322 -1.11601e-06)
(8.8252 -0.233212 -2.06495e-07)
(8.84414 -0.244191 5.07377e-07)
(8.8444 -0.2442 2.3453e-06)
(8.8444 -0.244201 4.31783e-06)
(8.84441 -0.244204 5.97151e-06)
(8.84441 -0.244206 7.46524e-06)
(8.84441 -0.244209 8.69641e-06)
(8.84441 -0.244212 9.70894e-06)
(8.84441 -0.244215 1.04038e-05)
(8.84441 -0.244218 1.08476e-05)
(8.84441 -0.244222 1.09756e-05)
(8.84441 -0.244225 1.08702e-05)
(8.84441 -0.244229 1.04894e-05)
(8.84441 -0.244232 9.93193e-06)
(8.84441 -0.244235 9.15681e-06)
(8.84441 -0.244237 8.26746e-06)
(8.84441 -0.244239 7.19267e-06)
(8.84441 -0.244241 6.00976e-06)
(8.84441 -0.244242 4.62164e-06)
(8.84441 -0.244243 3.23118e-06)
(8.84415 -0.244235 1.37754e-06)
(8.83014 -0.436403 -1.57807e-06)
(8.8304 -0.436417 -4.19899e-06)
(8.8304 -0.436416 -6.70606e-06)
(8.8304 -0.436415 -8.91817e-06)
(8.83039 -0.436414 -1.05164e-05)
(8.83039 -0.436413 -1.20641e-05)
(8.83039 -0.436411 -1.31319e-05)
(8.83039 -0.43641 -1.38891e-05)
(8.83039 -0.436408 -1.41988e-05)
(8.83038 -0.436406 -1.41523e-05)
(8.83038 -0.436405 -1.37081e-05)
(8.83038 -0.436403 -1.29676e-05)
(8.83038 -0.436402 -1.19097e-05)
(8.83038 -0.4364 -1.06701e-05)
(8.83038 -0.436399 -9.17093e-06)
(8.83037 -0.436398 -7.64403e-06)
(8.83037 -0.436397 -5.72143e-06)
(8.83037 -0.436397 -4.04719e-06)
(8.83037 -0.436396 -2.35545e-06)
(8.83011 -0.436381 -6.39216e-07)
(8.85458 -0.441915 7.28818e-07)
(8.85484 -0.441931 3.06579e-06)
(8.85484 -0.441931 5.62912e-06)
(8.85484 -0.441934 7.71425e-06)
(8.85484 -0.441935 9.4776e-06)
(8.85484 -0.441937 1.10136e-05)
(8.85484 -0.441939 1.22625e-05)
(8.85484 -0.441942 1.31296e-05)
(8.85484 -0.441944 1.36733e-05)
(8.85485 -0.441947 1.38196e-05)
(8.85485 -0.441949 1.3662e-05)
(8.85485 -0.441952 1.31581e-05)
(8.85485 -0.441954 1.24225e-05)
(8.85485 -0.441956 1.14212e-05)
(8.85485 -0.441958 1.02596e-05)
(8.85485 -0.44196 8.89217e-06)
(8.85485 -0.441962 7.29542e-06)
(8.85485 -0.441962 5.571e-06)
(8.85485 -0.441962 3.94857e-06)
(8.85459 -0.441948 1.66328e-06)
(8.83046 -0.650994 -1.95419e-06)
(8.83072 -0.651015 -5.28248e-06)
(8.83072 -0.651015 -8.52326e-06)
(8.83072 -0.651014 -1.14022e-05)
(8.83072 -0.651014 -1.3539e-05)
(8.83071 -0.651014 -1.56062e-05)
(8.83071 -0.651014 -1.70829e-05)
(8.83071 -0.651014 -1.8132e-05)
(8.83071 -0.651014 -1.86043e-05)
(8.83071 -0.651013 -1.86002e-05)
(8.8307 -0.651013 -1.80785e-05)
(8.8307 -0.651013 -1.71594e-05)
(8.8307 -0.651013 -1.58335e-05)
(8.8307 -0.651013 -1.42536e-05)
(8.8307 -0.651013 -1.2367e-05)
(8.8307 -0.651013 -1.03969e-05)
(8.8307 -0.651013 -7.92616e-06)
(8.8307 -0.651014 -5.68513e-06)
(8.8307 -0.651014 -3.36834e-06)
(8.83044 -0.650993 -9.74459e-07)
(8.85439 -0.649798 7.01053e-07)
(8.85465 -0.649819 3.14325e-06)
(8.85465 -0.649819 5.88705e-06)
(8.85465 -0.64982 7.98998e-06)
(8.85465 -0.649821 9.66517e-06)
(8.85465 -0.649821 1.12062e-05)
(8.85465 -0.649821 1.2504e-05)
(8.85465 -0.649822 1.33733e-05)
(8.85466 -0.649822 1.3935e-05)
(8.85466 -0.649822 1.40592e-05)
(8.85466 -0.649823 1.38823e-05)
(8.85466 -0.649823 1.33298e-05)
(8.85466 -0.649824 1.25609e-05)
(8.85466 -0.649824 1.15026e-05)
(8.85466 -0.649825 1.03221e-05)
(8.85466 -0.649825 8.90542e-06)
(8.85466 -0.649826 7.18064e-06)
(8.85466 -0.649824 5.44177e-06)
(8.85466 -0.649825 3.9922e-06)
(8.8544 -0.649804 1.74555e-06)
(8.81927 -0.87655 -1.96077e-06)
(8.81952 -0.876578 -5.2876e-06)
(8.81952 -0.876579 -7.86313e-06)
(8.81952 -0.876578 -1.08828e-05)
(8.81952 -0.87658 -1.38746e-05)
(8.81952 -0.876582 -1.61023e-05)
(8.81952 -0.876585 -1.77773e-05)
(8.81952 -0.876587 -1.89275e-05)
(8.81951 -0.87659 -1.94597e-05)
(8.81951 -0.876593 -1.94997e-05)
(8.81951 -0.876596 -1.898e-05)
(8.81951 -0.876598 -1.80587e-05)
(8.81951 -0.876601 -1.67063e-05)
(8.81951 -0.876603 -1.51049e-05)
(8.81951 -0.876606 -1.32651e-05)
(8.81951 -0.876607 -1.12784e-05)
(8.81951 -0.876609 -9.46318e-06)
(8.81951 -0.876612 -7.08729e-06)
(8.81951 -0.876614 -3.83199e-06)
(8.81925 -0.876586 -1.16331e-06)
(8.83432 -0.867409 9.38816e-08)
(8.83457 -0.867436 1.96471e-06)
(8.83457 -0.867435 3.05681e-06)
(8.83458 -0.867433 4.31902e-06)
(8.83458 -0.867431 6.28203e-06)
(8.83458 -0.867429 7.2637e-06)
(8.83458 -0.867427 8.33448e-06)
(8.83458 -0.867424 8.8924e-06)
(8.83458 -0.867421 9.32915e-06)
(8.83458 -0.867418 9.38012e-06)
(8.83459 -0.867415 9.27018e-06)
(8.83459 -0.867413 8.84363e-06)
(8.83459 -0.86741 8.34313e-06)
(8.83459 -0.867408 7.56683e-06)
(8.83459 -0.867405 6.93252e-06)
(8.83459 -0.867403 5.92774e-06)
(8.83459 -0.867402 5.62837e-06)
(8.83459 -0.8674 4.3367e-06)
(8.83458 -0.8674 2.68694e-06)
(8.83433 -0.867373 1.47051e-06)
(8.7889 -1.1094 -1.73197e-06)
(8.78915 -1.10943 -3.91836e-06)
(8.78915 -1.10944 -6.2665e-06)
(8.78915 -1.10944 -8.71724e-06)
(8.78915 -1.10944 -1.0487e-05)
(8.78915 -1.10945 -1.22199e-05)
(8.78915 -1.10946 -1.3357e-05)
(8.78915 -1.10946 -1.4246e-05)
(8.78915 -1.10947 -1.45967e-05)
(8.78914 -1.10948 -1.46396e-05)
(8.78914 -1.10949 -1.42118e-05)
(8.78914 -1.1095 -1.35303e-05)
(8.78914 -1.1095 -1.24659e-05)
(8.78914 -1.10951 -1.12898e-05)
(8.78914 -1.10951 -9.79956e-06)
(8.78914 -1.10952 -8.38024e-06)
(8.78914 -1.10952 -6.55157e-06)
(8.78914 -1.10953 -4.95593e-06)
(8.78914 -1.10953 -2.96542e-06)
(8.78888 -1.1095 -6.86246e-07)
(8.78112 -1.09175 1.62125e-06)
(8.78134 -1.09178 -7.96167e-07)
(8.78133 -1.09177 -1.53003e-06)
(8.78133 -1.09177 -2.87801e-06)
(8.78133 -1.09177 -3.05077e-06)
(8.78133 -1.09176 -3.67257e-06)
(8.78133 -1.09176 -3.8014e-06)
(8.78133 -1.09175 -4.0767e-06)
(8.78133 -1.09174 -4.0672e-06)
(8.78134 -1.09174 -4.09024e-06)
(8.78134 -1.09173 -3.90365e-06)
(8.78134 -1.09173 -3.74673e-06)
(8.78134 -1.09172 -3.38602e-06)
(8.78134 -1.09172 -3.13545e-06)
(8.78134 -1.09171 -2.58187e-06)
(8.78134 -1.09171 -2.36403e-06)
(8.78134 -1.0917 -1.54975e-06)
(8.78134 -1.0917 -1.78024e-06)
(8.78135 -1.0917 -1.29295e-06)
(8.78113 -1.09167 -2.43627e-06)
(8.71168 0.753782 -6.91161e-08)
(8.71193 0.753806 -1.73109e-06)
(8.71192 0.753805 -1.14494e-06)
(8.71192 0.753804 -1.67579e-06)
(8.71192 0.753802 -1.53267e-06)
(8.71192 0.7538 -1.82405e-06)
(8.71192 0.753798 -1.8274e-06)
(8.71192 0.753795 -1.97854e-06)
(8.71192 0.753792 -1.97483e-06)
(8.71192 0.75379 -2.02427e-06)
(8.71192 0.753787 -1.96017e-06)
(8.71192 0.753785 -1.93765e-06)
(8.71192 0.753782 -1.78597e-06)
(8.71192 0.75378 -1.72541e-06)
(8.71192 0.753778 -1.4337e-06)
(8.71192 0.753777 -1.37496e-06)
(8.71192 0.753775 -7.83162e-07)
(8.71192 0.753774 -7.94051e-07)
(8.71193 0.753774 4.4854e-07)
(8.71167 0.753749 -4.31514e-07)
(8.73345 0.755865 -1.49903e-06)
(8.73371 0.75589 -2.55047e-06)
(8.73371 0.755892 -3.2661e-06)
(8.73371 0.755894 -4.32055e-06)
(8.7337 0.755898 -4.96474e-06)
(8.7337 0.755902 -5.73239e-06)
(8.7337 0.755906 -6.17861e-06)
(8.7337 0.755911 -6.57872e-06)
(8.7337 0.755916 -6.71773e-06)
(8.7337 0.755922 -6.76307e-06)
(8.7337 0.755927 -6.59139e-06)
(8.7337 0.755932 -6.34287e-06)
(8.7337 0.755937 -5.89773e-06)
(8.7337 0.755941 -5.43967e-06)
(8.7337 0.755945 -4.75396e-06)
(8.73369 0.755948 -4.15796e-06)
(8.73369 0.755952 -3.16827e-06)
(8.73369 0.755954 -2.37335e-06)
(8.73369 0.755956 -9.87313e-07)
(8.73344 0.755933 2.67115e-07)
(8.7554 0.544308 -3.16151e-07)
(8.75565 0.544325 1.14626e-06)
(8.75565 0.544325 2.47887e-06)
(8.75565 0.544326 3.54935e-06)
(8.75565 0.544326 4.97782e-06)
(8.75565 0.544326 5.73902e-06)
(8.75565 0.544327 6.48852e-06)
(8.75565 0.544327 6.86656e-06)
(8.75565 0.544327 7.12217e-06)
(8.75565 0.544328 7.11339e-06)
(8.75565 0.544328 6.98149e-06)
(8.75565 0.544329 6.63812e-06)
(8.75565 0.544329 6.23514e-06)
(8.75565 0.544329 5.63304e-06)
(8.75565 0.54433 5.11976e-06)
(8.75565 0.54433 4.32926e-06)
(8.75565 0.54433 3.99956e-06)
(8.75565 0.54433 3.06265e-06)
(8.75565 0.544331 2.27776e-06)
(8.7554 0.544314 1.4576e-06)
(8.74233 0.538316 -1.11198e-06)
(8.74258 0.538333 -2.13636e-06)
(8.74258 0.538333 -2.67685e-06)
(8.74258 0.538333 -3.61946e-06)
(8.74258 0.538333 -4.46943e-06)
(8.74258 0.538334 -5.14816e-06)
(8.74258 0.538334 -5.60002e-06)
(8.74258 0.538335 -5.94094e-06)
(8.74258 0.538335 -6.06397e-06)
(8.74258 0.538336 -6.07799e-06)
(8.74258 0.538337 -5.90675e-06)
(8.74258 0.538337 -5.65333e-06)
(8.74257 0.538338 -5.24516e-06)
(8.74257 0.538339 -4.80368e-06)
(8.74257 0.538339 -4.22559e-06)
(8.74257 0.53834 -3.66395e-06)
(8.74257 0.53834 -3.02966e-06)
(8.74257 0.538341 -2.30276e-06)
(8.74257 0.538342 -9.5263e-07)
(8.74232 0.538325 5.61783e-08)
(8.76303 0.340696 3.32852e-08)
(8.76328 0.340707 1.56606e-06)
(8.76328 0.340708 3.29312e-06)
(8.76328 0.34071 4.55729e-06)
(8.76328 0.340712 5.70585e-06)
(8.76328 0.340714 6.60099e-06)
(8.76328 0.340716 7.35845e-06)
(8.76328 0.340718 7.81835e-06)
(8.76328 0.34072 8.1097e-06)
(8.76328 0.340723 8.13716e-06)
(8.76328 0.340725 8.01332e-06)
(8.76328 0.340728 7.66486e-06)
(8.76328 0.34073 7.22028e-06)
(8.76328 0.340732 6.57888e-06)
(8.76328 0.340734 5.91708e-06)
(8.76328 0.340736 5.05672e-06)
(8.76328 0.340738 4.2159e-06)
(8.76328 0.340738 3.17095e-06)
(8.76328 0.340739 2.49134e-06)
(8.76302 0.340729 1.37449e-06)
(8.75332 0.33115 -6.82733e-07)
(8.75358 0.331159 -9.85606e-07)
(8.75358 0.331159 -1.11795e-06)
(8.75358 0.331158 -1.39435e-06)
(8.75358 0.331157 -1.44498e-06)
(8.75358 0.331155 -1.62117e-06)
(8.75358 0.331154 -1.66328e-06)
(8.75358 0.331153 -1.72984e-06)
(8.75358 0.331151 -1.69353e-06)
(8.75358 0.33115 -1.6609e-06)
(8.75357 0.331148 -1.54285e-06)
(8.75357 0.331147 -1.4388e-06)
(8.75357 0.331146 -1.25378e-06)
(8.75357 0.331145 -1.1111e-06)
(8.75357 0.331144 -8.63855e-07)
(8.75357 0.331143 -7.13533e-07)
(8.75357 0.331142 -3.40237e-07)
(8.75357 0.331142 -1.88454e-07)
(8.75357 0.331142 2.18053e-07)