/*--------------------------------*- C++ -*----------------------------------*\
| =========                 |                                                 |
| \\      /  F ield         | OpenFOAM: The Open Source CFD Toolbox           |
|  \\    /   O peration     | Version:  2212                                  |
|   \\  /    A nd           | Website:  www.openfoam.com                      |
|    \\/     M anipulation  |                                                 |
\*---------------------------------------------------------------------------*/
FoamFile
{
    version     2.0;
    format      ascii;
    arch        "LSB;label=32;scalar=64";
    class       surfaceScalarField;
    location    "0.0169";
    object      phi;
}
// * * * * * * * * * * * * * * * * * * * * * * * * * * * * * * * * * * * * * //

dimensions      [1 0 -1 0 0 0 0];

oriented        oriented;

internalField   nonuniform List<scalar> 
4475
(
2.39863e-05
-2.3225e-05
3.61703e-05
-3.64381e-05
2.13241e-06
-2.04683e-05
9.79532e-07
1.69414e-05
6.81149e-05
-7.74533e-05
3.67048e-06
5.7217e-06
-9.21898e-06
3.55416e-05
6.4146e-06
-3.2889e-05
-2.49076e-05
2.29503e-05
2.43998e-05
-2.16589e-05
2.28902e-05
-1.71082e-05
-2.52002e-05
2.01009e-05
-7.31368e-06
6.90544e-06
3.41073e-05
-3.28086e-05
-1.97187e-05
-2.68399e-05
2.37126e-05
2.3547e-05
2.36302e-05
-2.56299e-05
-2.21439e-05
-3.09637e-05
-5.49727e-07
4.37834e-06
2.77364e-05
-5.2883e-06
5.20372e-06
-3.01158e-05
-3.2966e-05
4.64792e-06
-2.01798e-06
3.1229e-05
-3.32341e-05
1.46702e-06
-2.37659e-07
-3.32832e-05
7.27206e-07
3.17521e-07
-3.3036e-05
4.36841e-07
3.24524e-07
-3.24601e-05
3.11732e-07
1.02107e-07
4.22408e-07
-3.08851e-05
-1.06551e-06
3.02031e-05
-2.42985e-06
-2.90751e-05
2.10558e-06
3.2526e-05
-1.00112e-06
3.31445e-05
6.98077e-07
3.33399e-05
1.2757e-06
3.33858e-05
1.70664e-06
3.3602e-05
2.26371e-06
3.67667e-05
2.50936e-06
3.22858e-05
1.05971e-07
3.04212e-05
2.00692e-06
3.81897e-05
5.35505e-06
-1.24642e-05
3.5869e-05
8.27265e-07
2.09366e-06
3.5073e-05
-3.43192e-05
-6.97118e-06
-2.98008e-05
-2.64331e-06
3.49523e-05
5.67667e-07
7.63263e-07
3.42422e-05
4.77816e-07
4.98268e-07
3.36086e-05
4.00963e-07
3.69946e-07
3.28918e-05
4.21126e-07
3.15854e-07
3.22006e-05
2.89751e-07
3.21378e-07
3.14268e-05
3.04794e-07
3.12438e-07
3.06664e-05
2.58775e-07
2.8573e-07
2.99294e-05
1.82013e-07
2.97203e-07
2.92308e-05
1.18736e-07
2.96033e-07
2.85364e-05
1.29059e-07
2.67062e-07
2.7911e-05
7.11437e-08
2.47875e-07
2.72981e-05
5.0675e-08
2.49765e-07
2.66909e-05
3.87148e-08
2.50363e-07
2.61443e-05
-2.62248e-08
2.46246e-07
-1.16665e-07
2.5712e-05
2.13065e-07
-2.61225e-05
2.5538e-05
1.41485e-07
-2.66966e-05
2.28681e-07
-2.7193e-05
2.22126e-07
-2.78102e-05
3.5866e-07
-2.8434e-05
3.88753e-07
-2.90677e-05
4.62466e-07
-2.9706e-05
4.69779e-07
-3.05685e-05
7.81636e-07
-3.12845e-05
7.49739e-07
-3.19809e-05
8.33366e-07
-3.28191e-05
1.03484e-06
-3.34862e-05
1.09211e-06
-3.4174e-05
1.20769e-06
-3.47988e-05
1.34782e-06
-3.57245e-05
1.88126e-06
-3.77716e-05
3.43083e-06
-2.97589e-05
8.09729e-06
-1.55224e-05
-3.13299e-05
6.54745e-06
-3.03165e-05
4.83197e-06
-3.10506e-05
2.83237e-06
-1.43459e-06
-3.31512e-05
8.54433e-07
-3.34322e-05
9.38174e-07
-3.34069e-05
1.24634e-06
-3.31292e-05
1.02319e-06
-3.23601e-05
2.99016e-07
-3.18012e-05
-6.81481e-07
-2.1866e-08
2.23631e-07
2.51646e-05
8.65415e-08
2.50956e-05
3.2762e-05
-1.61597e-06
-3.11291e-05
3.3252e-05
1.2469e-06
3.35098e-05
2.05563e-06
3.36397e-05
2.59823e-06
3.41401e-05
2.75582e-06
3.48507e-05
2.74148e-06
3.36056e-05
2.20044e-06
3.35058e-05
2.84323e-06
3.57156e-05
3.77112e-06
3.55552e-05
2.77747e-06
3.48486e-05
1.85419e-06
3.42042e-05
1.39104e-06
3.35372e-05
1.1581e-06
3.28644e-05
9.94901e-07
3.21383e-05
9.56503e-07
3.13482e-05
9.3649e-07
3.06179e-05
7.9297e-07
2.98683e-05
7.84628e-07
2.91536e-05
7.24177e-07
2.84664e-05
6.54589e-07
2.78621e-05
5.45846e-07
2.72709e-05
5.31276e-07
2.67235e-05
4.83134e-07
2.61859e-05
4.62251e-07
2.56476e-05
4.2258e-07
-3.45006e-06
-2.89608e-05
4.14187e-06
3.65815e-07
2.51682e-05
-5.56239e-06
-2.68981e-05
-3.07611e-05
-2.77496e-06
-2.54622e-05
2.50423e-05
1.97282e-07
-2.60036e-05
3.78609e-07
-2.64332e-05
3.57822e-07
-2.70368e-05
5.2656e-07
-2.75623e-05
5.82283e-07
-2.81469e-05
6.68055e-07
-2.88049e-05
8.13819e-07
-2.9622e-05
9.86013e-07
-3.02549e-05
1.13049e-06
-3.0993e-05
1.23699e-06
-3.18372e-05
1.4771e-06
-3.25569e-05
1.62486e-06
-3.32736e-05
1.76904e-06
-3.3948e-05
1.95077e-06
-3.46692e-05
2.25933e-06
-3.5326e-05
2.85454e-06
-3.55549e-05
4.09359e-06
-3.28469e-05
5.90466e-06
-3.16781e-05
5.96233e-06
-3.15953e-05
5.38433e-06
-3.19416e-05
3.87267e-06
-3.29213e-05
2.59319e-06
-3.34322e-05
2.28235e-06
-3.34918e-05
2.20376e-06
-3.34454e-05
1.90776e-06
-3.30915e-05
8.79545e-07
-3.23978e-05
-4.47452e-07
-2.35585e-05
3.59868e-05
-3.13442e-05
1.41529e-05
-2.78589e-05
-8.78743e-06
2.29913e-05
-1.76601e-05
-1.65808e-05
1.96931e-05
1.50744e-05
1.98876e-05
3.62285e-05
4.67816e-06
-7.17256e-06
-3.26028e-05
3.35549e-05
2.20554e-06
3.35761e-05
2.27413e-06
3.36535e-05
2.99004e-06
3.39067e-05
3.32303e-06
3.41864e-05
3.40728e-06
3.44667e-05
3.32902e-06
3.42391e-05
3.20706e-06
3.42916e-05
3.46979e-06
3.4953e-05
3.67575e-06
3.49794e-05
3.20093e-06
3.45704e-05
2.58578e-06
3.4014e-05
2.14214e-06
3.3411e-05
1.83371e-06
3.26702e-05
1.6991e-06
3.19447e-05
1.55568e-06
3.1224e-05
1.46002e-06
3.04079e-05
1.36141e-06
2.96594e-05
1.25249e-06
2.89427e-05
1.14253e-06
2.83437e-05
9.47949e-07
2.7699e-05
8.84551e-07
2.71086e-05
8.18263e-07
2.66142e-05
6.75663e-07
2.61563e-05
6.15834e-07
2.56442e-05
6.26035e-07
2.51046e-05
5.91685e-07
-4.03082e-07
2.46437e-05
5.47514e-07
-1.96168e-07
2.46202e-05
5.9681e-09
2.46136e-05
1.628e-07
2.46e-05
-2.22499e-05
2.19969e-05
-2.57742e-05
2.45595e-05
3.33745e-07
-2.97737e-05
-2.73414e-05
3.44731e-05
-2.44126e-05
3.75715e-05
2.06309e-05
-3.32222e-05
-6.44959e-06
-2.9013e-05
2.76894e-05
-2.12079e-05
2.80398e-05
-3.37746e-05
2.4079e-05
2.35151e-05
-2.37967e-05
-3.60342e-05
4.8935e-07
7.53795e-06
-3.21317e-05
-2.11707e-06
-3.04293e-07
5.28854e-07
2.41071e-05
-1.23836e-07
2.41036e-05
6.92762e-08
2.40771e-05
1.92963e-07
2.41424e-05
3.3478e-07
2.41105e-05
-2.45707e-05
4.95331e-07
2.41414e-05
-2.48793e-05
3.70211e-07
-2.54065e-05
4.53383e-07
-2.57502e-05
4.51357e-07
-2.62969e-05
6.31287e-07
-2.67498e-05
6.98521e-07
-2.72627e-05
8.02364e-07
-2.77956e-05
8.94513e-07
-2.84335e-05
1.13425e-06
-2.91593e-05
1.38944e-06
-2.99059e-05
1.56147e-06
-3.07072e-05
1.74539e-06
-3.14452e-05
1.9639e-06
-3.22001e-05
2.19111e-06
-3.29232e-05
2.38552e-06
-3.35705e-05
2.59051e-06
-3.42207e-05
3.01516e-06
-3.46396e-05
3.49732e-06
-3.45555e-05
4.3442e-06
-3.35069e-05
5.28511e-06
-3.28822e-05
5.85053e-06
-3.22023e-05
5.29e-06
-3.2385e-05
4.70261e-06
-3.29611e-05
3.87452e-06
-3.33078e-05
3.38999e-06
-3.35704e-05
3.2866e-06
-3.36373e-05
2.83717e-06
-3.37233e-05
1.84558e-06
1.9636e-07
-3.34882e-05
4.58939e-06
-3.58785e-06
-3.25026e-05
3.24727e-05
2.90847e-05
-3.90594e-05
3.51219e-05
-2.46123e-05
2.31948e-05
-2.19385e-05
2.39265e-05
3.05038e-05
3.05592e-06
3.14435e-06
3.24939e-05
6.56305e-06
-7.85197e-06
3.32968e-05
6.9086e-06
3.33458e-05
6.36445e-06
-5.53378e-06
3.32762e-05
5.58911e-06
3.37072e-05
5.15346e-06
-4.6164e-06
3.46734e-05
4.71322e-06
3.408e-05
3.8043e-06
3.38704e-05
3.45624e-06
3.39164e-05
3.87968e-06
3.41174e-05
4.01642e-06
3.42742e-05
4.09187e-06
3.44663e-05
3.90719e-06
3.43873e-05
3.96665e-06
3.44494e-05
3.98675e-06
3.46532e-05
3.94243e-06
3.45811e-05
3.62764e-06
3.41882e-05
3.21181e-06
3.36373e-05
2.80463e-06
3.30779e-05
2.38945e-06
3.23327e-05
2.34078e-06
3.16336e-05
2.06972e-06
3.08518e-05
1.99487e-06
3.00863e-05
1.83872e-06
2.93318e-05
1.69554e-06
2.87366e-05
1.41782e-06
2.80525e-05
1.31519e-06
2.74231e-05
1.20714e-06
2.69536e-05
9.93162e-07
2.65145e-05
8.30783e-07
2.60199e-05
8.3281e-07
2.55882e-05
7.8159e-07
2.51599e-05
7.42877e-07
2.47145e-05
7.1411e-07
6.77329e-07
2.42905e-05
5.61177e-06
7.38704e-05
-5.90219e-05
-2.05256e-05
-2.64755e-05
2.52768e-05
-4.60971e-05
4.71101e-05
9.89611e-06
-1.05954e-05
-5.34795e-06
3.09956e-05
4.98587e-06
-3.10324e-05
-6.13895e-05
-1.51038e-05
2.55683e-05
5.09855e-05
-2.94267e-05
-2.16192e-05
-5.21265e-06
-3.2435e-05
-3.14735e-05
-4.10333e-06
3.2955e-05
-2.44089e-05
2.40939e-05
5.88783e-07
-2.48678e-05
6.04946e-07
-2.51471e-05
5.06712e-07
-2.56526e-05
7.262e-07
-2.60159e-05
7.52739e-07
-2.64505e-05
8.73066e-07
-2.69422e-05
1.0098e-06
-2.7522e-05
1.16299e-06
-2.81733e-05
1.44941e-06
-2.88077e-05
1.6699e-06
-2.95248e-05
1.9192e-06
-3.02912e-05
2.16326e-06
-3.1014e-05
2.36901e-06
-3.18046e-05
2.71547e-06
-3.25241e-05
2.91144e-06
-3.32454e-05
3.20749e-06
-3.37337e-05
3.5029e-06
-3.40962e-05
3.9706e-06
-3.40861e-05
4.55376e-06
-3.36599e-05
5.17707e-06
-3.31327e-05
5.73092e-06
-3.26602e-05
5.30432e-06
-3.274e-05
5.33923e-06
-3.31026e-05
4.85375e-06
-3.34001e-05
4.35166e-06
-3.36458e-05
4.24681e-06
-3.38371e-05
3.79581e-06
-3.39195e-05
2.71965e-06
-3.44184e-05
1.50462e-06
-1.23531e-06
-3.34724e-05
-2.38505e-05
-2.30656e-05
2.63723e-05
-1.16153e-05
-3.78665e-05
3.72597e-05
1.26253e-05
3.24493e-05
5.73345e-06
-3.44041e-05
3.31687e-05
6.55785e-06
3.35823e-05
7.24901e-06
3.36139e-05
7.13202e-06
3.37165e-05
6.32529e-06
3.39796e-05
5.75595e-06
3.42914e-05
5.28128e-06
3.41823e-05
4.78933e-06
3.39555e-05
4.53328e-06
3.41043e-05
4.54631e-06
3.41644e-05
4.72872e-06
3.43567e-05
4.6166e-06
3.44128e-05
4.49409e-06
3.44071e-05
4.52465e-06
3.44052e-05
4.44096e-06
3.43786e-05
4.31451e-06
3.4203e-05
4.03611e-06
3.38858e-05
3.64631e-06
3.34298e-05
3.26281e-06
3.27095e-05
3.00692e-06
3.20593e-05
2.79906e-06
3.12284e-05
2.63727e-06
3.04587e-05
2.45132e-06
2.96889e-05
2.26537e-06
2.90881e-05
1.94181e-06
2.83709e-05
1.7846e-06
2.77032e-05
1.64893e-06
2.72156e-05
1.38368e-06
2.67796e-05
1.14297e-06
2.62669e-05
1.08041e-06
2.58303e-05
1.02404e-06
2.54837e-05
8.92811e-07
2.5102e-05
8.92855e-07
2.47485e-05
8.36792e-07
2.43345e-05
8.62428e-07
-7.14896e-07
8.97394e-07
2.3932e-05
-5.20333e-07
2.38345e-05
-3.05851e-07
2.35991e-05
-9.99989e-08
2.35823e-05
7.63971e-09
2.3647e-05
2.59891e-07
2.35767e-05
4.75375e-07
2.36054e-05
6.48651e-07
2.37129e-05
2.37753e-05
7.53832e-07
-4.83557e-05
-1.15613e-05
1.41014e-05
4.55049e-07
1.84547e-06
-6.8319e-05
6.61144e-05
-1.87127e-05
1.56471e-05
-1.54098e-05
1.84559e-05
-3.49801e-05
-2.01356e-05
2.8155e-05
3.36921e-05
-3.72687e-05
-1.10905e-05
1.70841e-05
2.55885e-05
-3.43826e-05
-4.51903e-07
-3.45931e-06
-3.43217e-05
-2.10524e-05
-2.52232e-05
2.30096e-05
-2.76571e-05
-1.71378e-05
1.04834e-05
-3.62149e-05
1.96447e-05
-2.31162e-05
4.02438e-05
2.27813e-05
2.53474e-05
3.32794e-05
-3.32015e-05
6.22482e-06
3.3083e-05
7.36899e-06
3.33961e-05
7.58354e-06
3.3633e-05
7.57909e-06
3.38256e-05
6.85018e-06
3.40282e-05
6.28722e-06
3.41631e-05
5.88387e-06
3.41693e-05
5.51071e-06
3.41277e-05
5.27781e-06
3.41487e-05
5.19353e-06
3.4298e-05
5.20391e-06
3.43644e-05
5.11699e-06
3.43646e-05
4.98236e-06
3.43515e-05
4.93534e-06
3.42722e-05
4.81964e-06
3.41369e-05
4.64563e-06
3.3903e-05
4.35941e-06
3.35329e-05
3.99613e-06
3.29475e-05
3.72156e-06
3.2271e-05
3.46442e-06
3.15419e-05
3.23109e-06
3.08042e-05
3.01907e-06
3.00273e-05
2.83446e-06
2.94011e-05
2.48054e-06
2.86686e-05
2.26553e-06
2.79264e-05
2.13797e-06
2.74229e-05
1.79521e-06
2.69688e-05
1.51829e-06
2.64416e-05
1.39088e-06
2.59993e-05
1.28087e-06
2.57012e-05
1.11025e-06
2.53148e-05
1.08736e-06
2.50333e-05
9.92078e-07
2.47437e-05
9.4785e-07
2.44158e-05
1.01183e-06
2.40577e-05
1.08027e-06
-9.8862e-07
1.19032e-06
2.36915e-05
-7.86312e-07
2.35306e-05
-4.89918e-07
2.33065e-05
-3.94749e-07
2.3246e-05
-2.15215e-07
2.31277e-05
7.60562e-08
2.30749e-05
3.08422e-07
2.30714e-05
4.72025e-07
2.31877e-05
7.20808e-07
2.32376e-05
9.19302e-07
2.33827e-05
-2.37602e-05
2.34402e-05
1.07944e-06
-2.40778e-05
9.02285e-07
-2.44345e-05
7.73107e-07
-2.47338e-05
7.31247e-07
-2.5139e-05
7.33467e-07
-2.53883e-05
7.86946e-07
-2.57438e-05
8.98723e-07
-2.61489e-05
1.03797e-06
-2.65904e-05
1.17318e-06
-2.71966e-05
1.44926e-06
-2.77913e-05
1.68384e-06
-2.84505e-05
1.9356e-06
-2.91297e-05
2.18488e-06
-2.99001e-05
2.51721e-06
-3.06634e-05
2.73339e-06
-3.1379e-05
3.07189e-06
-3.20802e-05
3.31461e-06
-3.2745e-05
3.65323e-06
-3.32931e-05
3.92549e-06
-3.36617e-05
4.3173e-06
-3.3781e-05
4.75718e-06
-3.36464e-05
5.22681e-06
-3.34392e-05
5.80045e-06
-3.31768e-05
5.40284e-06
-3.32139e-05
5.80954e-06
-3.32625e-05
5.39967e-06
-3.34716e-05
5.10349e-06
-3.36843e-05
5.04852e-06
-3.39455e-05
4.69651e-06
-3.44555e-05
3.90571e-06
2.39046e-06
-3.46471e-05
-2.48304e-05
-2.3727e-05
2.61741e-05
-2.30844e-06
-3.47239e-05
-3.79156e-05
-3.58306e-06
8.13887e-06
-2.97733e-06
-2.06114e-05
-2.75276e-05
3.18717e-05
-2.94152e-05
-1.89891e-05
3.06354e-05
-1.82925e-05
-1.76637e-05
2.71912e-05
-3.42119e-05
-1.41134e-05
3.70195e-05
5.36845e-06
-4.12364e-07
3.41644e-05
5.06792e-06
-3.34411e-05
3.32914e-05
7.57112e-06
3.30141e-05
8.14251e-06
3.30498e-05
8.06577e-06
3.34622e-05
7.71062e-06
3.37137e-05
7.1656e-06
3.39622e-05
6.61473e-06
3.40275e-05
6.39211e-06
3.40987e-05
5.99884e-06
3.41268e-05
5.7822e-06
3.417e-05
5.64696e-06
3.42772e-05
5.54846e-06
3.43054e-05
5.4775e-06
3.42741e-05
5.32379e-06
3.41971e-05
5.234e-06
3.40639e-05
5.08028e-06
3.38758e-05
4.86325e-06
3.35276e-05
4.63627e-06
3.30885e-05
4.26078e-06
3.25024e-05
4.03864e-06
3.1832e-05
3.78414e-06
3.1114e-05
3.53339e-06
3.03836e-05
3.28805e-06
2.96988e-05
3.03332e-06
2.89501e-05
2.74017e-06
2.81717e-05
2.57328e-06
2.76478e-05
2.22655e-06
2.71412e-05
1.91368e-06
2.65707e-05
1.75585e-06
2.60982e-05
1.58731e-06
2.57928e-05
1.36218e-06
2.54166e-05
1.30538e-06
2.52086e-05
1.14516e-06
2.49935e-05
1.07335e-06
2.4696e-05
1.11716e-06
2.4451e-05
1.1292e-06
2.41839e-05
1.21632e-06
2.3888e-05
1.35431e-06
-1.31293e-06
2.35462e-05
1.53061e-06
-1.06861e-06
2.33059e-05
-8.32783e-07
2.31327e-05
-6.1085e-07
2.29021e-05
-2.96869e-07
2.27314e-05
-1.07114e-07
2.27252e-05
1.08859e-07
2.26432e-05
3.0837e-07
2.26616e-05
5.95304e-07
2.27031e-05
8.10859e-07
2.28426e-05
1.09085e-06
2.29435e-05
1.31081e-06
2.3081e-05
-2.35137e-05
2.3212e-05
1.48986e-06
-2.38004e-05
1.23758e-06
-2.4069e-05
1.04417e-06
-2.43435e-05
9.24477e-07
-2.46006e-05
8.64314e-07
-2.48593e-05
8.61686e-07
-2.51485e-05
9.2817e-07
-2.54689e-05
1.03914e-06
-2.58517e-05
1.19687e-06
-2.63327e-05
1.37704e-06
-2.68026e-05
1.58478e-06
-2.74125e-05
1.90297e-06
-2.80703e-05
2.15277e-06
-2.87839e-05
2.42138e-06
-2.94938e-05
2.7321e-06
-3.02642e-05
3.01238e-06
-3.09622e-05
3.30434e-06
-3.17278e-05
3.66234e-06
-3.23396e-05
3.9145e-06
-3.28954e-05
4.21455e-06
-3.33008e-05
4.55059e-06
-3.35267e-05
4.91253e-06
-3.35825e-05
5.31108e-06
-3.33992e-05
5.73818e-06
-3.3485e-05
5.69442e-06
-3.33857e-05
5.98992e-06
-3.34598e-05
5.82288e-06
-3.35072e-05
5.55491e-06
-3.36429e-05
5.62543e-06
-3.38618e-05
5.39875e-06
-3.42239e-05
4.79695e-06
3.57227e-06
-3.48489e-05
-3.48441e-05
4.46044e-07
-2.32882e-05
-2.61377e-05
-2.39847e-05
-2.6314e-05
2.72583e-05
1.37619e-05
2.66833e-05
-3.07236e-05
-9.79075e-06
-3.47944e-05
-1.65342e-06
-3.12683e-05
-1.20048e-05
5.83073e-06
-3.25451e-05
-1.59308e-05
-3.18309e-05
-1.84809e-05
4.96593e-07
-1.20334e-05
-2.56757e-05
-1.30243e-05
-2.69416e-05
1.6201e-06
-3.4698e-05
-2.80952e-06
-2.14087e-05
-2.80873e-05
-2.92903e-05
-2.09797e-05
-1.4737e-06
1.75709e-06
2.31589e-05
-1.22934e-06
2.29591e-05
-9.3122e-07
2.27285e-05
-6.27814e-07
2.24864e-05
-3.79272e-07
2.23633e-05
-6.48876e-08
2.22854e-05
1.70556e-07
2.22809e-05
4.64283e-07
2.22437e-05
7.16527e-07
2.23322e-05
1.02943e-06
2.24178e-05
1.32685e-06
2.25398e-05
1.56819e-06
2.2736e-05
1.74146e-06
2.2933e-05
-2.33932e-05
1.89677e-06
2.31233e-05
-2.35969e-05
1.58091e-06
-2.38379e-05
1.37572e-06
-2.40369e-05
1.15264e-06
-2.42581e-05
1.0658e-06
-2.44629e-05
9.89453e-07
-2.46573e-05
9.67055e-07
-2.49049e-05
1.06162e-06
-2.51732e-05
1.15104e-06
-2.55325e-05
1.34258e-06
-2.59647e-05
1.52743e-06
-2.6483e-05
1.74759e-06
-2.70063e-05
1.99785e-06
-2.76621e-05
2.31399e-06
-2.83708e-05
2.58202e-06
-2.90763e-05
2.85555e-06
-2.98476e-05
3.18963e-06
-3.0608e-05
3.48191e-06
-3.12696e-05
3.77568e-06
-3.19475e-05
4.09954e-06
-3.25229e-05
4.36993e-06
-3.29742e-05
4.66651e-06
-3.32805e-05
4.97702e-06
-3.34277e-05
5.31236e-06
-3.3393e-05
5.64866e-06
-3.33143e-05
5.64396e-06
-3.34871e-05
6.26553e-06
-3.33659e-05
5.87224e-06
-3.35359e-05
5.95632e-06
-3.35037e-05
5.87202e-06
-3.36219e-05
5.8294e-06
-3.40171e-05
5.54526e-06
4.8755e-06
-3.49315e-05
1.49796e-06
-3.53192e-05
2.4841e-05
-1.98705e-05
-2.61652e-05
-2.1369e-05
-2.88628e-05
2.71025e-05
-5.25506e-06
6.77664e-06
-2.89744e-05
5.98472e-05
-3.59291e-06
-5.86144e-05
2.36049e-06
3.24904e-05
8.87884e-06
-3.34496e-05
3.24788e-05
8.51274e-06
3.27801e-05
8.13116e-06
3.31759e-05
7.69809e-06
3.34557e-05
7.27909e-06
3.37082e-05
6.75716e-06
3.38513e-05
6.63643e-06
3.3963e-05
6.25649e-06
3.40375e-05
6.04862e-06
3.40993e-05
5.89032e-06
3.41451e-05
5.75956e-06
3.41875e-05
5.62785e-06
3.41265e-05
5.50131e-06
3.40115e-05
5.3813e-06
3.38242e-05
5.2105e-06
3.35506e-05
4.98745e-06
3.32243e-05
4.71718e-06
3.26753e-05
4.47077e-06
3.20701e-05
4.22232e-06
3.13949e-05
3.96748e-06
3.06765e-05
3.70758e-06
2.99436e-05
3.4446e-06
2.92188e-05
3.17138e-06
2.84924e-05
2.89204e-06
2.78938e-05
2.63052e-06
2.72351e-05
2.3957e-06
2.66726e-05
2.05204e-06
2.61723e-05
1.90409e-06
2.5823e-05
1.65703e-06
2.54426e-05
1.52996e-06
2.52281e-05
1.36347e-06
2.50532e-05
1.20468e-06
2.4791e-05
1.24429e-06
2.4605e-05
1.22086e-06
2.44327e-05
1.21853e-06
2.42564e-05
1.29939e-06
2.40002e-05
1.50558e-06
2.37332e-05
1.68458e-06
2.34169e-05
1.96055e-06
-2.38838e-05
-2.8004e-05
2.85735e-05
-2.53642e-05
-2.64418e-05
6.51203e-05
-2.21648e-06
5.34607e-06
-6.82662e-05
-2.95724e-05
-3.92885e-06
-2.19823e-05
-3.39155e-05
-2.98389e-06
-2.34433e-05
2.32077e-05
2.00013e-06
-2.36731e-05
1.69954e-06
-2.38146e-05
1.43142e-06
-2.40052e-05
1.28013e-06
-2.41158e-05
1.12992e-06
-2.42828e-05
1.11235e-06
-2.44531e-05
1.08016e-06
-2.46099e-05
1.12895e-06
-2.48798e-05
1.2789e-06
-2.51526e-05
1.4034e-06
-2.55619e-05
1.64213e-06
-2.6039e-05
1.84089e-06
-2.66049e-05
2.09047e-06
-2.7204e-05
2.35717e-06
-2.79133e-05
2.66558e-06
-2.8667e-05
2.93277e-06
-2.94016e-05
3.22027e-06
-3.01506e-05
3.52417e-06
-3.08815e-05
3.82039e-06
-3.15308e-05
4.1053e-06
-3.21365e-05
4.39288e-06
-3.26281e-05
4.65096e-06
-3.2994e-05
4.91942e-06
-3.32087e-05
5.1949e-06
-3.32816e-05
5.4778e-06
-3.34882e-05
5.68785e-06
-3.32951e-05
5.98301e-06
-3.32503e-05
5.80373e-06
-3.33051e-05
6.04592e-06
-3.33025e-05
5.95459e-06
-3.32332e-05
5.88755e-06
-3.34564e-05
5.92791e-06
-3.44472e-05
6.05565e-06
2.94644e-06
-3.596e-05
2.29006e-05
-1.86659e-05
2.13303e-05
-3.0466e-05
-1.84886e-05
-2.01719e-06
2.25941e-06
2.30732e-05
-1.74788e-06
2.28205e-05
-1.43582e-06
2.26013e-05
-1.06047e-06
2.23233e-05
-7.56886e-07
2.21623e-05
-4.69755e-07
2.20603e-05
-1.33961e-07
2.19354e-05
2.58322e-07
2.18747e-05
5.57627e-07
2.19296e-05
9.04881e-07
2.19676e-05
1.24663e-06
2.20529e-05
1.51775e-06
2.22345e-05
1.79237e-06
2.24102e-05
2.0386e-06
2.2612e-05
2.21143e-06
2.28439e-05
2.2626e-06
2.30092e-05
2.98418e-05
-1.97449e-05
-2.92458e-05
3.37601e-05
-2.05327e-05
3.33435e-05
-1.76013e-05
3.28179e-05
-1.49975e-05
-1.30439e-05
-2.24098e-05
2.19949e-05
2.39977e-05
-9.3723e-06
-3.4976e-05
-2.12457e-05
1.99503e-05
1.885e-06
-7.72118e-07
-9.09613e-06
-3.04056e-05
2.99724e-05
3.11465e-05
8.45358e-06
-3.05238e-05
3.17578e-05
8.09496e-06
3.231e-05
7.77625e-06
3.27523e-05
7.46109e-06
3.31455e-05
7.09151e-06
3.3322e-05
6.77991e-06
3.36159e-05
6.5284e-06
3.37571e-05
6.27941e-06
3.38622e-05
6.07996e-06
3.39371e-05
5.91533e-06
3.39785e-05
5.76984e-06
3.39649e-05
5.63131e-06
3.38969e-05
5.48545e-06
3.37612e-05
5.35252e-06
3.35552e-05
5.16798e-06
3.32364e-05
4.97066e-06
3.27877e-05
4.73951e-06
3.22448e-05
4.50468e-06
3.16219e-05
4.26338e-06
3.09356e-05
4.01311e-06
3.02081e-05
3.75458e-06
2.94634e-05
3.49003e-06
2.87222e-05
3.21744e-06
2.80056e-05
2.94152e-06
2.73454e-05
2.67349e-06
2.67772e-05
2.41465e-06
2.62093e-05
2.15215e-06
2.5791e-05
1.94259e-06
2.53942e-05
1.76221e-06
2.51458e-05
1.56822e-06
2.4979e-05
1.3886e-06
2.47201e-05
1.37339e-06
2.4634e-05
1.27169e-06
2.45517e-05
1.25701e-06
2.44278e-05
1.29358e-06
2.42058e-05
1.45647e-06
2.404e-05
1.58413e-06
2.38302e-05
1.78286e-06
2.35658e-05
2.09367e-06
2.32879e-05
2.39293e-06
4.64412e-06
6.43516e-05
-3.87207e-06
-1.81241e-06
-3.45784e-05
-1.95716e-05
1.0399e-05
-2.33391e-05
-3.03773e-05
3.04738e-05
-2.31888e-05
-3.04275e-05
-2.59425e-05
-2.78625e-05
-6.86029e-05
-6.8532e-06
7.32215e-05
6.47088e-05
1.1801e-06
-6.03534e-05
2.62353e-05
-2.93816e-06
-3.41957e-05
7.6139e-06
-3.88867e-05
2.54841e-05
1.87569e-05
-1.93835e-05
-1.24952e-05
-5.11141e-05
1.55189e-05
1.70968e-05
-2.52245e-05
-2.05561e-05
2.83721e-05
1.37201e-06
-7.10336e-05
-6.55379e-06
7.62083e-05
-2.32385e-05
2.29929e-05
2.31122e-06
-2.34253e-05
2.02754e-06
-2.35607e-05
1.71565e-06
-2.37106e-05
1.5021e-06
-2.37986e-05
1.32195e-06
-2.39155e-05
1.22231e-06
-2.39655e-05
1.14246e-06
-2.40886e-05
1.16698e-06
-2.42488e-05
1.21342e-06
-2.4427e-05
1.31917e-06
-2.47158e-05
1.47234e-06
-2.50491e-05
1.65899e-06
-2.55016e-05
1.87284e-06
-2.60456e-05
2.10922e-06
-2.66783e-05
2.36606e-06
-2.73586e-05
2.63666e-06
-2.8105e-05
2.90424e-06
-2.88804e-05
3.17823e-06
-2.96452e-05
3.45417e-06
-3.03711e-05
3.7187e-06
-3.10693e-05
4.00582e-06
-3.1677e-05
4.25201e-06
-3.22047e-05
4.49551e-06
-3.26244e-05
4.73116e-06
-3.28979e-05
4.94469e-06
-3.30121e-05
5.15412e-06
-3.30999e-05
5.41611e-06
-3.31741e-05
5.76882e-06
-3.31473e-05
5.55245e-06
-3.3097e-05
5.82893e-06
-3.30508e-05
5.78965e-06
-3.30431e-05
5.80274e-06
-3.31085e-05
5.94359e-06
-3.31093e-05
6.02632e-06
6.97108e-06
-3.24735e-05
2.89029e-05
-1.70935e-05
-4.61059e-05
4.12947e-05
-1.80041e-05
2.65392e-05
-1.81123e-05
-5.40835e-05
-2.55314e-06
2.72647e-06
2.29668e-05
-2.29265e-06
2.27349e-05
-2.00981e-06
2.25183e-05
-1.6361e-06
2.22558e-05
-1.27776e-06
2.20298e-05
-8.98984e-07
2.1875e-05
-4.6486e-07
2.17353e-05
-5.36189e-08
2.16424e-05
2.90466e-07
2.16511e-05
6.90377e-07
2.16456e-05
1.08287e-06
2.16794e-05
1.43358e-06
2.17869e-05
1.78322e-06
2.19409e-05
2.10936e-06
2.21021e-05
2.35247e-06
2.23394e-05
2.53779e-06
2.25719e-05
2.6797e-06
2.27136e-05
2.6841e-06
2.2759e-05
-2.27524e-05
3.54347e-05
-1.93601e-05
3.41196e-05
-1.59024e-05
3.28507e-05
-1.3409e-05
3.10797e-05
-1.10303e-05
-1.29787e-05
3.01113e-05
3.98873e-06
-5.49948e-06
2.85596e-05
-3.51365e-05
3.02659e-05
8.78507e-06
-2.94457e-05
-9.57778e-06
3.07142e-05
8.02646e-06
3.12776e-05
7.55254e-06
3.18396e-05
7.23411e-06
3.23518e-05
6.9674e-06
3.27404e-05
6.71276e-06
3.30374e-05
6.47928e-06
3.32842e-05
6.25884e-06
3.34529e-05
6.06551e-06
3.35774e-05
5.88288e-06
3.36612e-05
5.72285e-06
3.36938e-05
5.58042e-06
3.36654e-05
5.44323e-06
3.35662e-05
5.29828e-06
3.33946e-05
5.16113e-06
3.31314e-05
4.98995e-06
3.27746e-05
4.80344e-06
3.23057e-05
4.59944e-06
3.17448e-05
4.38323e-06
3.11028e-05
4.16024e-06
3.03997e-05
3.92372e-06
2.96581e-05
3.67584e-06
2.88988e-05
3.42371e-06
2.81472e-05
3.16197e-06
2.74236e-05
2.90075e-06
2.67561e-05
2.64195e-06
2.6164e-05
2.3915e-06
2.5646e-05
2.15128e-06
2.52328e-05
1.94007e-06
2.49362e-05
1.74575e-06
2.47092e-05
1.5772e-06
2.44731e-05
1.48748e-06
2.44046e-05
1.36557e-06
2.43328e-05
1.30555e-06
2.42861e-05
1.28171e-06
2.41521e-05
1.40102e-06
2.40914e-05
1.4686e-06
2.39794e-05
1.61507e-06
2.37559e-05
1.88554e-06
2.35729e-05
2.11658e-06
2.33108e-05
2.45808e-06
2.30289e-05
2.78084e-06
3.08594e-05
-1.94326e-05
-3.04881e-05
-2.27981e-06
-3.50483e-05
2.46987e-05
-3.40862e-05
-3.1817e-05
3.17154e-05
-1.99209e-05
2.06276e-05
-3.18613e-05
-2.09295e-05
2.15786e-05
-2.23835e-05
-3.22149e-05
-3.39458e-05
-3.03078e-06
-3.34706e-05
-3.03881e-05
-2.53105e-05
-2.96486e-05
-2.80195e-05
6.86574e-05
-6.69981e-05
-3.13512e-07
3.65416e-05
-2.05062e-05
1.66544e-05
-3.23709e-05
-6.84406e-05
6.21307e-05
-8.71617e-06
2.48238e-05
-1.64601e-05
3.16298e-05
-1.64112e-06
-1.36997e-05
2.97996e-05
1.33652e-05
6.70238e-05
-6.68508e-05
5.15337e-06
5.69892e-06
6.59714e-05
3.25452e-05
5.84608e-06
3.24926e-05
5.84504e-06
3.25552e-05
5.63039e-06
3.26132e-05
5.46248e-06
3.27361e-05
5.34331e-06
3.28498e-05
5.34576e-06
3.26733e-05
5.30494e-06
3.27984e-05
5.15744e-06
3.26653e-05
4.99185e-06
3.2421e-05
4.76782e-06
3.20758e-05
4.57733e-06
3.16122e-05
4.406e-06
3.10424e-05
4.20874e-06
3.03962e-05
3.98688e-06
2.96951e-05
3.75687e-06
2.89273e-05
3.51855e-06
2.81471e-05
3.27118e-06
2.73607e-05
3.0323e-06
2.66128e-05
2.77677e-06
2.59232e-05
2.53109e-06
2.52998e-05
2.29357e-06
2.47725e-05
2.05319e-06
2.43385e-05
1.84254e-06
2.40039e-05
1.64754e-06
2.37685e-05
1.47125e-06
2.36071e-05
1.33724e-06
2.35065e-05
1.24166e-06
2.34595e-05
1.18725e-06
2.34143e-05
1.18029e-06
2.33672e-05
1.25601e-06
2.33216e-05
1.32637e-06
2.32265e-05
1.51527e-06
2.30908e-05
1.71519e-06
2.29472e-05
1.97706e-06
2.27197e-05
2.28545e-06
2.24998e-05
2.59377e-06
4.98621e-06
6.46234e-05
-5.22832e-06
-3.03594e-06
3.11484e-06
2.27002e-05
-2.86045e-06
2.26499e-05
-2.61511e-06
2.24467e-05
-2.26578e-06
2.22123e-05
-1.85147e-06
2.19574e-05
-1.43604e-06
2.17891e-05
-9.53078e-07
2.16115e-05
-4.95367e-07
2.15279e-05
-8.10361e-08
2.14952e-05
3.62661e-07
2.1479e-05
8.03705e-07
2.14674e-05
1.21812e-06
2.1507e-05
1.62493e-06
2.15883e-05
2.03773e-06
2.1689e-05
2.3856e-06
2.18553e-05
2.66948e-06
2.2084e-05
2.91431e-06
2.22713e-05
3.02201e-06
2.2455e-05
3.07385e-06
2.24529e-05
2.97461e-06
2.22373e-05
3.13441e-05
-1.69441e-05
-6.01672e-06
-3.48715e-05
-1.8974e-05
3.14683e-05
1.98162e-05
1.66672e-05
7.46687e-05
-5.80901e-05
-3.32915e-05
1.12862e-05
-6.32492e-05
7.68715e-06
-6.47028e-05
6.28798e-06
-6.54904e-05
6.59759e-05
5.15083e-06
-6.48834e-05
6.5493e-05
5.61176e-06
6.50658e-05
6.1228e-06
-7.64675e-06
1.06101e-05
6.21218e-05
3.15891e-05
-1.40416e-05
2.63013e-06
6.19617e-05
-6.19792e-05
-2.57215e-06
1.46366e-05
3.55503e-05
-1.33627e-05
1.24025e-05
3.90023e-05
-4.30748e-05
-8.12121e-06
3.93193e-05
-3.30327e-05
-1.89681e-05
3.2626e-05
-3.3375e-05
-2.00363e-05
-2.1228e-05
-3.39798e-05
-3.59027e-06
-3.27096e-05
3.07509e-05
-1.87109e-05
-3.08384e-05
1.25427e-06
1.53825e-06
3.77279e-05
-1.54364e-05
3.53854e-05
-1.32638e-05
3.3328e-05
-1.11268e-05
3.27693e-05
-1.03234e-05
-1.08889e-05
3.07417e-05
-2.20234e-05
3.39091e-05
1.82552e-05
1.40267e-05
-6.96387e-06
-2.58357e-05
1.86662e-05
2.92197e-05
1.01071e-05
-1.09465e-05
-2.84879e-05
2.97112e-05
8.17107e-06
3.02539e-05
7.34656e-06
3.08016e-05
6.85565e-06
3.1316e-05
6.56219e-06
3.17866e-05
6.32804e-06
3.2195e-05
6.11902e-06
3.25267e-05
5.94273e-06
3.27819e-05
5.77838e-06
3.29824e-05
5.61655e-06
3.31171e-05
5.47082e-06
3.32033e-05
5.32258e-06
3.32271e-05
5.19531e-06
3.31788e-05
5.0724e-06
3.30523e-05
4.93856e-06
3.28545e-05
4.79985e-06
3.25581e-05
4.65498e-06
3.21647e-05
4.48605e-06
3.16684e-05
4.30777e-06
3.10853e-05
4.11262e-06
3.04199e-05
3.9186e-06
2.96952e-05
3.70524e-06
2.89382e-05
3.47334e-06
2.81609e-05
3.24863e-06
2.74003e-05
3.00198e-06
2.66631e-05
2.77408e-06
2.59918e-05
2.52864e-06
2.53952e-05
2.30114e-06
2.48943e-05
2.07595e-06
2.44824e-05
1.89319e-06
2.41983e-05
1.68742e-06
2.3989e-05
1.55154e-06
2.38953e-05
1.43763e-06
2.38382e-05
1.34882e-06
2.38079e-05
1.30691e-06
2.37425e-05
1.33677e-06
2.37178e-05
1.40916e-06
2.3697e-05
1.44524e-06
2.35688e-05
1.65766e-06
2.34706e-05
1.84437e-06
2.32991e-05
2.09e-06
2.30601e-05
2.43982e-06
2.28089e-05
2.71852e-06
2.25082e-05
3.05173e-06
3.57898e-05
1.75137e-05
-3.63131e-05
3.45514e-05
1.62132e-05
-1.28318e-05
1.51835e-05
3.25037e-05
-6.20476e-05
-2.95116e-08
6.35845e-05
-1.40634e-06
3.19081e-05
-8.95697e-06
-3.7796e-06
-3.38347e-05
1.40279e-06
6.82255e-05
-1.43429e-06
1.41156e-05
2.92103e-05
-1.12451e-05
6.35997e-06
6.55406e-05
-9.73603e-06
-6.20924e-05
-3.12869e-05
-2.81443e-05
-3.23519e-05
-2.43623e-05
-3.25731e-05
1.77243e-05
-3.50662e-05
3.39585e-05
3.40519e-05
-1.86594e-05
-3.4943e-05
3.3285e-05
6.3337e-05
-3.57992e-05
6.64559e-05
1.81424e-06
3.99766e-07
-6.69086e-05
1.47701e-05
6.27662e-05
3.46295e-05
-3.21308e-05
-4.10494e-05
-3.67857e-05
-7.09931e-06
3.51083e-05
-1.05821e-05
-6.73263e-05
6.52956e-06
-6.72141e-05
5.46541e-06
-6.55895e-05
3.47571e-06
3.14187e-05
5.02851e-06
3.17491e-05
5.09355e-06
3.18852e-05
5.04489e-06
3.19816e-05
4.88502e-06
3.20312e-05
4.77423e-06
3.21343e-05
4.67955e-06
3.20927e-05
4.73062e-06
3.20796e-05
4.49198e-06
3.18634e-05
4.46352e-06
3.1561e-05
4.25731e-06
3.11333e-05
4.11636e-06
3.06593e-05
3.9229e-06
3.00736e-05
3.77544e-06
2.94111e-05
3.58329e-06
2.86782e-05
3.3937e-06
2.78973e-05
3.19547e-06
2.70999e-05
2.98113e-06
2.631e-05
2.7778e-06
2.55529e-05
2.55883e-06
2.48571e-05
2.34436e-06
2.42384e-05
2.14159e-06
2.37122e-05
1.93448e-06
2.32946e-05
1.74752e-06
2.2985e-05
1.57542e-06
2.27668e-05
1.42892e-06
2.26391e-05
1.30751e-06
2.25811e-05
1.22113e-06
2.25642e-05
1.17683e-06
2.25626e-05
1.17636e-06
2.25873e-05
1.21844e-06
2.25428e-05
1.32637e-06
2.24956e-05
1.46794e-06
2.24254e-05
1.6257e-06
2.22768e-05
1.89065e-06
2.21085e-05
2.13963e-06
2.18626e-05
2.44614e-06
2.16297e-05
2.73809e-06
-3.28454e-05
-8.76299e-06
3.07073e-05
-3.45948e-05
-8.50992e-06
-3.65066e-05
-9.07757e-06
-3.93867e-05
-1.01787e-05
-4.29118e-05
-1.165e-05
-4.74774e-05
-1.31268e-05
-4.18405e-05
2.96219e-05
3.78495e-05
-1.29061e-05
3.11413e-05
-3.36757e-05
3.41287e-05
-1.79081e-05
3.20904e-05
1.67047e-05
3.28153e-05
-4.24055e-06
6.27788e-05
3.62476e-06
3.95346e-06
6.33577e-05
1.72589e-05
-3.93253e-05
-1.39148e-05
-1.95703e-05
-3.61099e-05
3.51977e-05
-1.15229e-05
8.09619e-06
-3.08173e-05
4.92472e-06
-4.20114e-05
4.18409e-06
-2.75065e-05
3.23925e-05
-1.79701e-05
1.28774e-05
-7.2099e-06
-5.95641e-05
5.38417e-05
-6.90395e-05
-2.15141e-06
6.46462e-05
-1.31748e-05
-5.20723e-05
-3.46563e-06
3.37961e-06
2.21879e-05
-3.41363e-06
2.23841e-05
-3.21646e-06
2.23262e-05
-2.9134e-06
2.21445e-05
-2.51243e-06
2.19263e-05
-2.06405e-06
2.17219e-05
-1.54956e-06
2.15688e-05
-1.05607e-06
2.14746e-05
-5.75309e-07
2.14474e-05
-7.00205e-08
2.14148e-05
4.2093e-07
2.14192e-05
8.91756e-07
2.14154e-05
1.36489e-06
2.14232e-05
1.83522e-06
2.14596e-05
2.27761e-06
2.15223e-05
2.66993e-06
2.16564e-05
3.03419e-06
2.18152e-05
3.26842e-06
2.20204e-05
3.39995e-06
2.21834e-05
3.40113e-06