/*--------------------------------*- C++ -*----------------------------------*\
| =========                 |                                                 |
| \\      /  F ield         | OpenFOAM: The Open Source CFD Toolbox           |
|  \\    /   O peration     | Version:  2212                                  |
|   \\  /    A nd           | Website:  www.openfoam.com                      |
|    \\/     M anipulation  |                                                 |
\*---------------------------------------------------------------------------*/
FoamFile
{
    version     2.0;
    format      ascii;
    arch        "LSB;label=32;scalar=64";
    class       surfaceScalarField;
    location    "0.0308";
    object      phi;
}
// * * * * * * * * * * * * * * * * * * * * * * * * * * * * * * * * * * * * * //

dimensions      [1 0 -1 0 0 0 0];

oriented        oriented;

internalField   nonuniform List<scalar> 
4475
(
-1.95682e-05
2.62615e-05
8.57549e-06
-8.71745e-06
1.54498e-06
2.79676e-05
-5.30037e-06
-1.97991e-05
-2.97307e-05
3.3448e-05
2.19856e-05
-2.20407e-05
-6.78215e-06
1.47022e-06
7.26812e-06
-2.34898e-06
-1.72874e-05
2.19874e-05
2.10574e-05
-2.07102e-05
2.53163e-05
-1.31485e-05
-2.74467e-05
1.71094e-05
-7.44916e-06
8.59212e-06
2.56112e-05
-2.16841e-05
-4.00443e-06
-2.56598e-05
1.29324e-05
2.09219e-05
2.42101e-05
-1.37211e-05
-2.2516e-05
-1.84696e-05
8.59384e-06
-8.99329e-06
1.77014e-05
8.01988e-06
-9.03695e-06
-1.89697e-05
-1.27265e-05
1.1952e-05
-1.12175e-05
9.32571e-06
-1.51207e-05
7.97695e-06
-9.60845e-06
-1.81007e-05
4.94936e-06
-7.05536e-06
-2.15222e-05
2.15824e-06
-4.21438e-06
-2.47944e-05
-3.75021e-07
-1.55555e-06
-2.18378e-06
-2.67477e-05
-3.9622e-08
2.73962e-05
1.58101e-06
-2.85199e-05
-2.56915e-06
2.6807e-05
-5.19163e-06
2.40775e-05
-2.73936e-06
2.08212e-05
-4.91989e-07
1.7978e-05
1.88982e-06
1.63282e-05
4.25065e-06
1.78689e-05
5.75014e-06
1.69888e-05
5.14721e-06
1.73012e-05
5.30885e-06
2.45285e-05
5.51592e-06
-1.57662e-05
2.56949e-05
-6.15142e-06
1.14931e-06
2.96686e-05
-2.57234e-05
-5.55438e-06
-2.84117e-05
3.41772e-07
2.67476e-05
-2.21843e-06
-3.34834e-06
2.76103e-05
1.49541e-06
-7.63762e-06
2.85884e-05
5.21432e-06
-1.12789e-05
3.04328e-05
8.61344e-06
-1.44317e-05
3.36977e-05
1.17208e-05
-1.70697e-05
3.88473e-05
1.49761e-05
-1.95832e-05
4.56749e-05
1.83939e-05
-2.22386e-05
5.35392e-05
2.18237e-05
-2.509e-05
6.21781e-05
2.51514e-05
-2.82099e-05
7.06467e-05
2.82604e-05
-3.15851e-05
7.8818e-05
3.05679e-05
-3.48555e-05
8.65754e-05
3.21099e-05
-3.76467e-05
9.41529e-05
3.26149e-05
-3.96107e-05
0.000102021
3.15935e-05
-4.02734e-05
2.91114e-05
0.000110538
-3.94826e-05
-9.99723e-05
0.000106754
1.97793e-05
-9.35574e-05
2.27744e-05
-8.69571e-05
2.44954e-05
-8.04186e-05
2.54687e-05
-7.32052e-05
2.49075e-05
-6.52924e-05
2.32869e-05
-5.69344e-05
2.04711e-05
-4.93906e-05
1.74182e-05
-4.2426e-05
1.33646e-05
-3.70432e-05
9.41308e-06
-3.38392e-05
5.69889e-06
-3.22344e-05
2.03946e-06
-3.15873e-05
-1.24291e-06
-3.0878e-05
-4.46578e-06
-2.9989e-05
-7.12608e-06
-3.00177e-05
-8.53405e-06
-2.18475e-05
-7.60597e-06
-1.26992e-06
-1.89601e-05
-1.13891e-05
-1.48084e-05
-1.27084e-05
-1.1845e-05
-1.3283e-05
1.02618e-05
-1.15088e-05
-1.27091e-05
-1.27914e-05
-1.10862e-05
-1.5448e-05
-8.68289e-06
-1.89643e-05
-5.93867e-06
-2.24567e-05
-3.44138e-06
-2.5877e-05
-1.43903e-06
2.62927e-05
-3.68388e-05
0.000118696
1.6281e-05
0.000114709
2.79336e-05
-9.49586e-06
-2.69286e-05
2.59128e-05
-5.744e-06
2.30189e-05
-3.73998e-06
2.01732e-05
-1.82541e-06
1.82964e-05
-2.41523e-07
1.74183e-05
7.51367e-07
1.67135e-05
6.77592e-07
1.73663e-05
5.39103e-08
1.99046e-05
-1.20832e-06
2.131e-05
-4.52597e-06
2.23183e-05
-8.60253e-06
2.35657e-05
-1.25359e-05
2.51784e-05
-1.60182e-05
2.74174e-05
-1.89598e-05
3.09085e-05
-2.11687e-05
3.5897e-05
-2.30747e-05
4.23446e-05
-2.52057e-05
4.99605e-05
-2.76137e-05
5.83454e-05
-3.06462e-05
6.6895e-05
-3.43995e-05
7.54468e-05
-3.87023e-05
8.41218e-05
-4.2923e-05
9.32332e-05
-4.67579e-05
0.000102801
-4.93996e-05
0.000112613
-5.02857e-05
1.38659e-06
-2.90551e-05
-1.64841e-06
-4.91542e-05
0.000122689
-1.23923e-06
-2.72128e-05
-2.83669e-05
-8.53777e-07
-0.000103348
0.000111477
5.53067e-06
-9.70047e-05
9.33038e-06
-9.10359e-05
1.21883e-05
-8.60075e-05
1.51222e-05
-8.04944e-05
1.67234e-05
-7.44649e-05
1.72108e-05
-6.77445e-05
1.65039e-05
-6.06631e-05
1.45199e-05
-5.30745e-05
1.1302e-05
-4.63216e-05
7.38677e-06
-4.10209e-05
3.30451e-06
-3.74545e-05
-5.92844e-07
-3.56332e-05
-4.17145e-06
-3.48389e-05
-7.17682e-06
-3.42364e-05
-9.56052e-06
-3.27944e-05
-1.12407e-05
-2.97474e-05
-1.19738e-05
-2.3625e-05
-1.22832e-05
-1.87822e-05
-1.37169e-05
-1.43302e-05
-1.46402e-05
-1.12296e-05
-1.48172e-05
-9.85896e-06
-1.39258e-05
-1.04107e-05
-1.21845e-05
-1.26746e-05
-9.91619e-06
-1.62688e-05
-7.30243e-06
-2.02561e-05
-4.91523e-06
-2.40692e-05
-2.9936e-06
4.35971e-06
2.34791e-05
-2.71578e-05
1.06249e-05
-2.88416e-05
-4.88999e-06
2.34146e-05
-1.47877e-05
-1.99097e-05
1.69956e-05
1.80633e-05
2.15672e-05
3.40769e-05
-4.22214e-06
1.22103e-06
-3.12069e-05
2.97607e-05
-7.94006e-06
2.74257e-05
-8.02547e-06
2.45872e-05
-6.91437e-06
2.16698e-05
-5.78792e-06
1.92056e-05
-4.79236e-06
1.73523e-05
-4.13043e-06
1.60689e-05
-4.20078e-06
1.55318e-05
-4.99047e-06
1.59674e-05
-6.57205e-06
1.67409e-05
-9.2133e-06
1.79802e-05
-1.24484e-05
1.96509e-05
-1.58931e-05
2.19004e-05
-1.90708e-05
2.47695e-05
-2.16871e-05
2.85247e-05
-2.38212e-05
3.34221e-05
-2.56569e-05
3.93137e-05
-2.75542e-05
4.62209e-05
-2.99598e-05
5.38161e-05
-3.32499e-05
6.19535e-05
-3.76807e-05
7.03718e-05
-4.2891e-05
7.95109e-05
-4.86688e-05
8.98997e-05
-5.45041e-05
0.000101502
-5.92754e-05
0.000113788
-6.20978e-05
0.000125936
-6.2257e-05
4.49186e-05
0.000137838
-5.8873e-05
3.28268e-05
0.000131718
2.26617e-05
0.000126708
1.36331e-05
0.000123064
-7.38675e-06
1.2386e-05
-2.57493e-05
0.000121048
3.71831e-06
-2.72372e-05
1.01246e-05
2.64937e-05
-2.65103e-05
-1.88739e-06
2.32465e-05
7.94338e-06
-2.58687e-06
-2.93129e-05
3.07894e-05
-2.41969e-05
9.06913e-06
-1.0995e-05
1.98822e-05
2.21427e-05
-1.49521e-05
-3.59153e-05
-5.41942e-06
1.29643e-05
-2.79042e-05
-1.80862e-06
3.91201e-05
-5.13661e-05
0.000147662
2.81545e-05
0.000139782
1.94357e-05
0.000134285
1.16382e-05
0.00013198
2.86932e-06
0.000131728
-0.000120658
-9.79108e-06
0.000133785
-0.000108716
-1.01612e-05
-0.000100098
-7.49419e-06
-9.30054e-05
-4.17941e-06
-8.80412e-05
-4.00779e-08
-8.35107e-05
3.53339e-06
-7.92153e-05
6.29477e-06
-7.44701e-05
7.81311e-06
-6.91602e-05
8.22257e-06
-6.3149e-05
7.10595e-06
-5.6659e-05
4.39553e-06
-5.0338e-05
8.4862e-07
-4.47783e-05
-2.66027e-06
-4.07718e-05
-6.34529e-06
-3.83731e-05
-9.56936e-06
-3.70006e-05
-1.19871e-05
-3.57876e-05
-1.33998e-05
-3.34808e-05
-1.4177e-05
-2.95236e-05
-1.43306e-05
-2.39161e-05
-1.43769e-05
-1.83817e-05
-1.45994e-05
-1.34145e-05
-1.51132e-05
-9.89138e-06
-1.49811e-05
-8.03813e-06
-1.42081e-05
-8.08272e-06
-1.27016e-05
-1.00527e-05
-1.06897e-05
-1.35306e-05
-8.41506e-06
-1.76584e-05
-6.20024e-06
-4.34165e-06
-2.22299e-05
5.44296e-07
8.4467e-07
-2.69968e-05
2.94562e-05
-5.7874e-06
-8.13438e-06
1.06693e-05
9.30871e-06
2.11564e-05
-1.97856e-05
2.40571e-05
1.61663e-05
1.86506e-05
-7.08574e-06
1.79652e-05
1.43116e-05
-1.1911e-05
2.10492e-05
1.0264e-05
2.42082e-05
6.06473e-06
-4.40589e-06
2.71061e-05
1.83303e-06
2.96526e-05
-1.89635e-06
2.21985e-06
3.14379e-05
-5.18604e-06
3.01313e-05
-8.22389e-06
2.8049e-05
-9.80519e-06
2.54236e-05
-9.85296e-06
2.2494e-05
-9.52985e-06
1.95995e-05
-8.97143e-06
1.70916e-05
-8.64329e-06
1.49444e-05
-8.6194e-06
1.34469e-05
-9.23986e-06
1.28327e-05
-1.04327e-05
1.30708e-05
-1.23452e-05
1.41045e-05
-1.48152e-05
1.60273e-05
-1.75523e-05
1.87734e-05
-2.03402e-05
2.21556e-05
-2.2799e-05
2.61838e-05
-2.51317e-05
3.08168e-05
-2.72174e-05
3.60875e-05
-2.95106e-05
4.19804e-05
-3.23805e-05
4.85538e-05
-3.64067e-05
5.55311e-05
-4.15353e-05
6.33679e-05
-4.79083e-05
7.27845e-05
-5.53591e-05
8.41223e-05
-6.30834e-05
9.75546e-05
-6.98669e-05
0.000112993
-7.49899e-05
0.000129309
-7.69114e-05
0.000145155
-7.40982e-05
-6.54935e-05
0.000159376
-2.36673e-06
-2.77363e-05
2.47329e-05
5.48212e-06
6.58848e-06
2.09496e-06
5.95383e-05
-5.87892e-05
-5.0307e-06
1.09649e-05
7.61929e-06
-1.37626e-06
-6.35882e-06
7.6326e-07
3.90201e-05
2.1813e-05
-2.65433e-05
-3.0868e-05
-2.7273e-05
1.45299e-05
-2.45935e-06
-3.1471e-05
-2.86806e-05
6.93605e-07
3.20169e-05
-0.000119882
0.000136866
-2.91938e-05
-0.000106533
-2.80628e-05
-9.56348e-05
-2.50868e-05
-8.87151e-05
-1.95421e-05
-8.34711e-05
-1.44587e-05
-7.9679e-05
-9.35509e-06
-7.65892e-05
-5.17391e-06
-7.35205e-05
-2.32429e-06
-6.97387e-05
-7.39456e-07
-6.48636e-05
-9.3924e-07
-5.93753e-05
-2.44764e-06
-5.35817e-05
-5.02305e-06
-4.79013e-05
-8.21787e-06
-4.34496e-05
-1.10057e-05
-4.02492e-05
-1.35326e-05
-3.81418e-05
-1.50336e-05
-3.60268e-05
-1.56501e-05
-3.32683e-05
-1.54726e-05
-2.90263e-05
-1.50288e-05
-2.35365e-05
-1.44299e-05
-1.77396e-05
-1.40538e-05
-1.24876e-05
-1.42764e-05
-8.60717e-06
-1.39908e-05
-6.40742e-06
-1.35556e-05
-6.12451e-06
-1.26063e-05
-7.7652e-06
-1.11011e-05
-1.09651e-05
-9.30322e-06
-1.5063e-05
-7.40753e-06
-1.99875e-05
-5.60377e-06
-2.87884e-06
-2.68167e-05
-3.50314e-06
-2.55189e-05
9.49575e-06
3.98121e-05
-4.90014e-06
-6.33499e-06
-2.72714e-05
9.61917e-06
1.86635e-05
-5.43897e-06
1.28435e-05
1.53972e-05
1.63222e-05
1.13621e-05
1.99823e-05
7.07415e-06
2.35592e-05
2.5026e-06
2.66586e-05
-1.80323e-06
2.8666e-05
-5.71868e-06
2.88321e-05
-9.05692e-06
2.75444e-05
-1.13384e-05
2.55368e-05
-1.24694e-05
2.27116e-05
-1.2653e-05
1.96829e-05
-1.25291e-05
1.66732e-05
-1.22463e-05
1.39364e-05
-1.19991e-05
1.17362e-05
-1.21828e-05
1.03894e-05
-1.28613e-05
1.00632e-05
-1.40584e-05
1.088e-05
-1.57165e-05
1.27594e-05
-1.77832e-05
1.55652e-05
-2.00945e-05
1.91685e-05
-2.2553e-05
2.32174e-05
-2.50335e-05
2.75784e-05
-2.76747e-05
3.21279e-05
-3.06939e-05
3.69819e-05
-3.4554e-05
4.20089e-05
-3.94533e-05
4.76355e-05
-4.57373e-05
5.46466e-05
-5.36204e-05
6.37501e-05
-6.27125e-05
7.55887e-05
-7.22544e-05
9.09846e-05
-8.16188e-05
0.000109806
-8.95697e-05
0.000130809
-9.36973e-05
0.000152452
-9.19676e-05
0.00017206
-8.17084e-05
4.9721e-05
-6.17257e-05
0.000187753
3.96854e-05
0.000170004
3.0652e-05
0.00015501
2.27909e-05
0.000145793
1.62987e-05
0.00014089
1.1568e-05
0.000139151
5.21411e-06
0.000141379
-5.96439e-06
0.000146916
0.000154928
-2.52376e-05
6.10574e-05
1.00754e-05
-8.21467e-06
4.74813e-07
-5.2708e-06
3.48206e-05
-4.21149e-05
1.21473e-05
-7.04614e-06
4.52156e-06
-7.61684e-06
-2.96793e-05
1.33612e-05
-1.40647e-05
1.68295e-05
-1.61526e-05
7.38917e-06
-1.15806e-05
-2.32412e-05
-2.47065e-05
-4.28525e-06
-2.54057e-06
-3.12283e-05
2.38129e-06
-2.58603e-05
2.40544e-05
-2.39746e-05
1.3015e-05
-1.48111e-05
-1.51668e-05
-6.56257e-06
1.25544e-05
1.4717e-05
2.27012e-05
2.28052e-05
3.86367e-06
-1.76719e-06
1.98902e-05
6.97463e-06
1.61231e-05
1.06893e-05
1.18598e-05
1.48233e-05
7.32174e-06
1.8918e-05
2.57896e-06
2.25489e-05
-1.9978e-06
2.51821e-05
-6.22635e-06
2.64031e-05
-9.90879e-06
2.62006e-05
-1.27012e-05
2.47998e-05
-1.44148e-05
2.25101e-05
-1.51241e-05
1.95169e-05
-1.51627e-05
1.62595e-05
-1.48248e-05
1.30834e-05
-1.43238e-05
1.03596e-05
-1.40289e-05
8.48337e-06
-1.40785e-05
7.64161e-06
-1.45483e-05
7.97476e-06
-1.54776e-05
9.49557e-06
-1.68981e-05
1.212e-05
-1.87762e-05
1.55588e-05
-2.1069e-05
1.93927e-05
-2.37716e-05
2.32464e-05
-2.69452e-05
2.69767e-05
-3.08463e-05
3.04198e-05
-3.56495e-05
3.38602e-05
-4.16979e-05
3.80635e-05
-4.94726e-05
4.37324e-05
-5.88958e-05
5.19002e-05
-6.9755e-05
6.40908e-05
-8.19006e-05
8.13267e-05
-9.461e-05
0.00010338
-0.000106014
0.00012997
-0.000114056
0.000158622
-0.000114461
0.000185648
-0.000102936
0.000207767
-7.78664e-05
3.23289e-05
-3.95017e-05
0.000222436
2.79295e-05
0.000197399
2.48152e-05
0.000175369
2.01204e-05
0.000159709
1.65992e-05
0.000148928
1.5083e-05
0.000143594
1.35845e-05
0.000143686
9.78151e-06
0.000148755
1.48586e-06
0.000157416
-1.51805e-05
0.000170266
-0.000163623
0.000186534
-4.28012e-05
-0.000139841
-5.3473e-05
-0.000119044
-5.54582e-05
-0.000102336
-5.191e-05
-9.04904e-05
-4.55081e-05
-8.20159e-05
-3.78495e-05
-7.706e-05
-2.99259e-05
-7.41585e-05
-2.26472e-05
-7.23335e-05
-1.67137e-05
-7.09704e-05
-1.21036e-05
-6.87605e-05
-9.46171e-06
-6.53929e-05
-8.4882e-06
-6.08285e-05
-8.954e-06
-5.56396e-05
-1.02674e-05
-5.02082e-05
-1.23434e-05
-4.50643e-05
-1.42633e-05
-4.09988e-05
-1.56657e-05
-3.79077e-05
-1.62379e-05
-3.5226e-05
-1.60098e-05
-3.21283e-05
-1.51011e-05
-2.79726e-05
-1.39615e-05
-2.27171e-05
-1.29348e-05
-1.71436e-05
-1.21667e-05
-1.18121e-05
-1.23909e-05
-7.76128e-06
-1.21313e-05
-5.21376e-06
-1.22644e-05
-4.60896e-06
-1.19975e-05
-5.89113e-06
-1.11779e-05
-8.67104e-06
-1.00068e-05
-1.26419e-05
-8.53208e-06
-6.99114e-06
-1.73164e-05
-5.73994e-06
-2.50497e-05
1.07525e-05
-3.34014e-06
-2.90718e-05
-3.66762e-05
-1.18341e-06
3.6213e-06
-9.69528e-07
7.17545e-06
-2.46114e-05
2.63906e-05
-2.50224e-05
1.54042e-05
2.41818e-05
1.90959e-05
2.20663e-05
1.93234e-05
-4.00572e-06
4.64232e-05
-2.50384e-06
2.23392e-05
-2.29552e-05
-3.47756e-06
2.46948e-05
3.32721e-06
-2.04813e-06
2.13749e-05
6.98424e-07
1.68085e-05
4.52823e-06
1.18479e-05
8.95371e-06
6.94393e-06
1.3452e-05
2.16854e-06
1.76109e-05
-2.45737e-06
2.08962e-05
-6.71078e-06
2.30488e-05
-1.05966e-05
2.38423e-05
-1.36413e-05
2.33333e-05
-1.56779e-05
2.16839e-05
-1.66877e-05
1.902e-05
-1.68053e-05
1.57464e-05
-1.63924e-05
1.23417e-05
-1.56336e-05
9.28988e-06
-1.4923e-05
6.91632e-06
-1.43764e-05
5.54007e-06
-1.41966e-05
5.30775e-06
-1.44975e-05
6.31369e-06
-1.53563e-05
8.43663e-06
-1.6768e-05
1.13698e-05
-1.88027e-05
1.45978e-05
-2.15195e-05
1.76869e-05
-2.49865e-05
2.02326e-05
-2.94119e-05
2.21968e-05
-3.50108e-05
2.40646e-05
-4.21984e-05
2.64266e-05
-5.12214e-05
3.03585e-05
-6.22658e-05
3.74288e-05
-7.5469e-05
4.93006e-05
-9.099e-05
6.72851e-05
-0.000108112
9.26072e-05
-0.000125449
0.000124497
-0.000139364
0.000159994
-0.000143469
0.000195289
-0.000132112
0.000225519
-0.000101638
0.000246765
-5.23527e-05
-8.61283e-06
0.000257498
9.73091e-06
-3.82991e-06
0.000227933
1.69466e-06
0.000199676
6.06467e-06
0.000175531
9.67472e-06
0.000158091
1.188e-05
0.000147852
1.49944e-05
0.000142586
1.77685e-05
0.000144054
1.88118e-05
0.000150769
1.44916e-05
0.000163028
2.60303e-06
0.000180096
-1.9725e-05
0.000203509
-0.00020524
0.000232984
-5.47343e-05
-0.000172348
-8.27703e-05
-0.00014083
-9.2136e-05
-0.000114634
-8.91489e-05
-9.4891e-05
-8.01531e-05
-8.11585e-05
-6.85361e-05
-7.2558e-05
-5.64763e-05
-6.81278e-05
-4.5162e-05
-6.649e-05
-3.52642e-05
-6.65047e-05
-2.72678e-05
-6.66456e-05
-2.13228e-05
-6.62413e-05
-1.71637e-05
-6.4411e-05
-1.49613e-05
-6.10187e-05
-1.4119e-05
-5.62886e-05
-1.41628e-05
-5.08618e-05
-1.47906e-05
-4.53447e-05
-1.55056e-05
-4.06002e-05
-1.58299e-05
-3.66993e-05
-1.56115e-05
-3.34881e-05
-1.4644e-05
-3.02276e-05
-1.31964e-05
-2.62282e-05
-1.16739e-05
-2.14029e-05
-1.03975e-05
-1.60902e-05
-9.65047e-06
-1.12165e-05
-9.65964e-06
-7.01352e-06
-9.9349e-06
-4.39156e-06
-1.04653e-05
-3.54452e-06
-1.09424e-05
-4.45761e-06
-1.08527e-05
-6.79766e-06
-1.03844e-05
-1.02549e-05
-9.49268e-06
-8.26236e-06
-1.44527e-05
-2.20041e-05
-5.71052e-06
-8.7731e-07
-2.57747e-05
-2.33196e-05
-7.35316e-06
1.19699e-05
-5.30973e-06
-2.77103e-05
2.99649e-05
4.40855e-06
-2.60398e-05
-4.72798e-06
-1.15214e-05
3.6542e-05
-2.82171e-05
-1.84573e-05
3.14243e-05
-2.19601e-05
2.59718e-05
3.66212e-06
-1.60914e-05
-2.53895e-05
-1.41283e-05
-1.53375e-05
4.52339e-06
-3.2297e-05
-1.76894e-06
8.28117e-06
-2.19695e-05
-2.32707e-05
2.09215e-05
-6.08683e-05
7.7058e-05
0.000255938
-4.39139e-05
0.000223509
-2.7593e-05
0.000193566
-1.41312e-05
0.000169045
-3.69547e-06
0.000151828
6.2427e-06
0.000140673
1.59683e-05
0.000135836
2.5627e-05
0.000137562
3.24157e-05
0.000146452
3.45652e-05
0.000161253
3.02592e-05
0.000181879
1.72311e-05
0.000211121
-6.19558e-06
0.000249258
-0.000264632
-4.07702e-05
0.000292382
-0.000223179
-0.000103493
-0.00017792
-0.000135881
-0.000136894
-0.000141518
-0.00010497
-0.000129492
-8.22038e-05
-0.000111448
-6.75956e-05
-9.22394e-05
-5.93567e-05
-7.43385e-05
-5.6161e-05
-5.90007e-05
-5.63882e-05
-4.62238e-05
-5.84123e-05
-3.62185e-05
-6.07796e-05
-2.86658e-05
-6.20224e-05
-2.32503e-05
-6.16783e-05
-1.95019e-05
-5.93273e-05
-1.72595e-05
-5.52024e-05
-1.60173e-05
-4.99428e-05
-1.53004e-05
-4.41902e-05
-1.49007e-05
-3.87751e-05
-1.43331e-05
-3.43266e-05
-1.33287e-05
-3.07223e-05
-1.19228e-05
-2.74799e-05
-1.02348e-05
-2.38769e-05
-8.59256e-06
-1.96075e-05
-7.36665e-06
-1.4889e-05
-6.76856e-06
-1.01496e-05
-7.02846e-06
-6.32229e-06
-7.44168e-06
-3.61406e-06
-8.56326e-06
-2.68047e-06
-9.53756e-06
-3.24095e-06
-1.02724e-05
-5.11593e-06
-1.04486e-05
-7.94981e-06
-1.0159e-05
-9.3412e-06
-1.14342e-05
-7.14698e-06
-1.87847e-05
2.49594e-05
-1.70543e-05
-2.30434e-05
4.07088e-06
-2.49277e-05
-6.11266e-06
-3.10314e-06
3.4401e-06
6.63021e-06
-4.16548e-05
1.73075e-05
4.3582e-05
-1.28888e-05
-9.54492e-06
2.34729e-05
9.71823e-06
-6.41856e-06
1.66592e-05
-2.09916e-06
1.11389e-05
2.60329e-06
6.14187e-06
7.43068e-06
1.44643e-06
1.19843e-05
-3.0283e-06
1.59099e-05
-7.16849e-06
1.88763e-05
-1.09627e-05
2.06358e-05
-1.39948e-05
2.1074e-05
-1.61146e-05
2.01636e-05
-1.72468e-05
1.80518e-05
-1.7501e-05
1.50125e-05
-1.70406e-05
1.15625e-05
-1.61314e-05
8.19518e-06
-1.50928e-05
5.42046e-06
-1.4128e-05
3.51939e-06
-1.34405e-05
2.70515e-06
-1.32083e-05
3.09047e-06
-1.34807e-05
4.52633e-06
-1.43403e-05
6.64051e-06
-1.59358e-05
8.94691e-06
-1.83661e-05
1.08929e-05
-2.1767e-05
1.20671e-05
-2.63069e-05
1.23869e-05
-3.22083e-05
1.22283e-05
-3.99412e-05
1.24676e-05
-4.98931e-05
1.43553e-05
-6.24628e-05
1.95056e-05
-7.82449e-05
2.977e-05
-9.78304e-05
4.75531e-05
-0.000121328
7.4258e-05
-0.000146955
0.000109566
-0.000169378
0.00015089
-0.000179778
0.000193296
-0.000169466
0.000231767
-0.000133961
0.000260909
-7.26646e-05
0.000278687
4.60865e-06
0.000286611
8.65112e-05
-2.0351e-05
-8.09546e-06
1.22763e-05
-3.04863e-06
-2.42907e-05
-1.81306e-05
1.12708e-05
-1.53716e-05
2.32842e-05
-2.97755e-05
-9.50135e-07
-2.4035e-05
-2.85008e-05
-3.60847e-06
-0.000287609
0.000327866
-8.58223e-05
-0.000232438
-0.000164462
-0.000174487
-0.000200901
-0.000124169
-0.000199824
-8.69007e-05
-0.000174669
-6.25265e-05
-0.000143181
-4.85568e-05
-0.000113647
-4.1952e-05
-8.89229e-05
-4.10972e-05
-6.92011e-05
-4.37644e-05
-5.3859e-05
-4.82416e-05
-4.20421e-05
-5.27541e-05
-3.31978e-05
-5.59872e-05
-2.65872e-05
-5.69864e-05
-2.1739e-05
-5.5721e-05
-1.82055e-05
-5.23829e-05
-1.57933e-05
-4.73957e-05
-1.40427e-05
-4.15463e-05
-1.26638e-05
-3.57951e-05
-1.13968e-05
-3.0923e-05
-9.97e-06
-2.71072e-05
-8.38731e-06
-2.39839e-05
-6.76116e-06
-2.08624e-05
-5.28134e-06
-1.72615e-05
-4.32142e-06
-1.32156e-05
-4.05273e-06
-9.14864e-06
-4.47886e-06
-5.39412e-06
-5.45996e-06
-2.74368e-06
-6.85945e-06
-1.54425e-06
-8.21789e-06
-1.96328e-06
-9.32859e-06
-3.5402e-06
-9.97943e-06
-5.78148e-06
-1.02986e-05
-8.38622e-06
-9.97169e-06
-8.2395e-06
-1.53018e-05
1.97586e-05
-1.52596e-05
2.39988e-05
-2.09991e-05
7.24569e-06
-0.00014677
0.000171084
0.00028464
-0.000114977
0.000241439
-8.46317e-05
0.000207355
-5.7566e-05
0.000178315
-3.57937e-05
0.000156178
-1.71645e-05
0.000139563
-2.30963e-07
0.000128118
1.59218e-05
0.000123507
3.01769e-05
0.000126345
4.33324e-05
0.00013513
5.40164e-05
0.00015028
5.94658e-05
0.000174001
5.8806e-05
0.000207424
5.10147e-05
0.000250874
3.78823e-05
0.000299138
2.02319e-05
0.000341214
2.89471e-05
-1.51683e-05
-2.56388e-05
1.59411e-05
2.65541e-05
1.28675e-05
3.2514e-05
8.77531e-06
3.758e-05
4.22316e-05
-1.9806e-05
2.45062e-05
2.12441e-05
-5.47781e-06
-3.49419e-05
3.74972e-05
-4.18156e-05
2.2502e-05
-2.28628e-05
-3.27574e-06
2.64674e-06
-5.6053e-06
-1.9197e-05
1.93653e-05
2.51164e-05
-1.43049e-05
1.45353e-05
-9.30555e-06
9.61037e-06
-4.13225e-06
4.91794e-06
1.01493e-06
5.60862e-07
5.88364e-06
-3.59148e-06
1.03666e-05
-7.43972e-06
1.40518e-05
-1.0871e-05
1.66828e-05
-1.36865e-05
1.80117e-05
-1.57284e-05
1.79084e-05
-1.68984e-05
1.63872e-05
-1.72384e-05
1.36922e-05
-1.68688e-05
1.03113e-05
-1.59979e-05
6.85219e-06
-1.48639e-05
3.77965e-06
-1.36483e-05
1.44192e-06
-1.25977e-05
1.13458e-07
-1.18412e-05
-2.58913e-07
-1.1471e-05
3.19947e-07
-1.17253e-05
1.44668e-06
-1.27051e-05
2.64294e-06
-1.4525e-05
3.32192e-06
-1.73733e-05
2.96584e-06
-2.14734e-05
1.43714e-06
-2.71525e-05
-8.59508e-07
-3.4762e-05
-3.08338e-06
-4.48965e-05
-4.00221e-06
-5.84586e-05
-2.00172e-06
-7.66078e-05
5.03492e-06
-0.000100723
1.96384e-05
-0.000131395
4.40652e-05
-0.000167285
7.98947e-05
-0.00020168
0.000123015
-0.000219343
0.000169119
-0.000211241
0.000213616
-0.000171674
0.000251271
-9.99092e-05
0.000279205
-8.26893e-06
0.000302501
8.48916e-05
0.000324962
0.000177659
-1.59577e-05
-1.38009e-05
1.14419e-05
-6.53637e-06
-2.21955e-05
-1.62521e-05
7.46755e-06
-1.63531e-05
-7.8559e-06
1.16462e-05
1.69832e-06
-2.42607e-05
-2.12339e-05
-4.59972e-06
2.2111e-05
1.19162e-05
-2.30341e-05
-2.98427e-05
-2.39553e-06
2.97178e-05
2.35562e-05
-1.56803e-06
-3.07636e-05
-9.03275e-06
-1.13992e-05
2.20373e-05
2.17917e-05
-1.92885e-05
1.02845e-05
5.906e-05
-8.17945e-06
-7.72576e-06
6.55341e-06
5.63054e-06
-4.1676e-06
2.97617e-06
2.59358e-05
-5.99822e-06
-3.09049e-05
-0.000336854
0.000355448
1.10241e-06
-0.000284317
-0.000140022
-0.000217858
-0.000234224
-0.000151934
-0.000272067
-9.54867e-05
-0.00026258
-5.66934e-05
-0.0002197
-3.41275e-05
-0.000170951
-2.34299e-05
-0.000129413
-2.06103e-05
-9.76928e-05
-2.31411e-05
-7.42315e-05
-2.90155e-05
-5.70103e-05
-3.61978e-05
-4.41605e-05
-4.29775e-05
-3.45075e-05
-4.80474e-05
-2.71216e-05
-5.05531e-05
-2.14497e-05
-5.03467e-05
-1.70838e-05
-4.77469e-05
-1.37656e-05
-4.32501e-05
-1.12167e-05
-3.75209e-05
-9.24241e-06
-3.16462e-05
-7.58769e-06
-2.66415e-05
-6.02787e-06
-2.27817e-05
-4.5598e-06
-1.99073e-05
-3.21681e-06
-1.73349e-05
-2.21361e-06
-1.44488e-05
-1.72519e-06
-1.10811e-05
-1.89647e-06
-7.47257e-06
-2.66857e-06
-4.14887e-06
-3.89726e-06
-1.54834e-06
-5.51838e-06
-2.33185e-07
-7.00091e-06
-2.26473e-07
-8.34678e-06
-1.32777e-06
-9.26248e-06
-3.33274e-06
-9.54293e-06
-5.74003e-06
-9.32291e-06
-8.12406e-06
-8.48356e-06
2.93103e-05
-1.20225e-05
8.84388e-06
-4.93593e-06
2.84029e-05
-1.85686e-05
2.17593e-05
1.23289e-05
-0.000264144
0.000268647
0.000350066
-0.000225903
0.000270079
-0.000177308
0.00021212
-0.000135113
0.000180688
-9.95739e-05
0.00015559
-6.92054e-05
0.000136082
-4.22569e-05
0.000120327
-1.6073e-05
0.000107546
9.50826e-06
0.000101905
3.47433e-05
0.000103741
6.13151e-05
0.000109482
8.80663e-05
0.000122302
0.000109398
0.000149908
0.000123231
0.000189894
0.000126526
0.00024214
0.000127775
0.00029175
0.000130845
0.000333483
0.000131502
0.000353847
-2.17788e-05
7.91506e-06
3.22172e-05
6.79153e-06
3.68858e-05
5.53229e-06
4.04087e-05
6.74409e-06
4.10316e-05
4.39386e-05
7.76414e-06
-1.36888e-05
1.59866e-05
-1.5872e-06
-1.36373e-05
-3.26476e-05
1.87222e-05
3.62593e-05
-2.20203e-05
-2.72955e-05
1.54997e-05
-2.20082e-05
1.18644e-05
-1.66325e-05
7.70762e-06
-1.11469e-05
3.54675e-06
-5.71265e-06
-3.10309e-07
-3.79043e-07
-4.01601e-06
4.43733e-06
-7.34462e-06
8.69941e-06
-1.02881e-05
1.20374e-05
-1.27314e-05
1.41491e-05
-1.45705e-05
1.47817e-05
-1.57272e-05
1.38668e-05
-1.62045e-05
1.16182e-05
-1.60589e-05
8.49991e-06
-1.53832e-05
5.05654e-06
-1.43179e-05
1.82157e-06
-1.30345e-05
-8.32537e-07
-1.17264e-05
-2.75224e-06
-1.04724e-05
-3.70365e-06
-9.55215e-06
-3.88973e-06
-9.14643e-06
-3.58395e-06
-9.36583e-06
-3.41541e-06
-1.03614e-05
-4.01706e-06
-1.22771e-05
-5.93084e-06
-1.53786e-05
-9.40598e-06
-2.00101e-05
-1.41548e-05
-2.66719e-05
-1.93578e-05
-3.61455e-05
-2.39944e-05
-4.96858e-05
-2.67732e-05
-6.91591e-05
-2.58232e-05
-9.68951e-05
-1.83519e-05
-0.000134654
-1.24746e-06
-0.000181159
2.75816e-05
-0.000227945
6.64775e-05
-0.000255195
0.000112162
-0.000251673
0.00016088
-0.000211965
0.000206614
-0.000132556
0.000247799
-3.10685e-05
0.000290516
6.73336e-05
0.000340511
0.000161617
0.000410194
0.000234166
2.81672e-05
-1.2104e-05
-2.5433e-05
-8.23659e-06
-1.82776e-05
-1.34427e-05
-7.33466e-06
-1.24294e-05
1.62184e-05
-7.60396e-06
1.23495e-05
-8.58866e-06
-9.64084e-06
1.44159e-05
-1.14401e-05
-5.30474e-06
-2.50257e-05
-4.99791e-06
-2.09557e-05
-4.70126e-06
-1.7298e-05
-2.12012e-05
-1.57537e-06
-3.83353e-05
3.2214e-05
8.10875e-07
-3.24796e-05
1.86916e-05
-9.84411e-06
3.12449e-05
3.89172e-05
-3.51199e-05
2.05532e-05
2.09356e-05
-1.98238e-05
2.03163e-06
6.84541e-06
-8.3375e-06
2.99504e-05
9.90168e-06
-1.99534e-05
2.51871e-05
-1.83832e-05
-1.91069e-05
-1.57014e-05
1.57194e-06
-8.10378e-06
1.36818e-07
-8.48676e-06
-1.25424e-06
-8.58611e-06
-2.0167e-06
-8.1748e-06
-1.69743e-06
-7.30332e-06
-2.11024e-07
-6.04495e-06
2.29297e-06
-4.54912e-06
5.4225e-06
-3.01556e-06
8.55202e-06
-1.55175e-06
1.12609e-05
-4.76499e-07
1.34586e-05
1.20774e-07
1.54198e-05
2.37882e-07
1.79978e-05
-1.94174e-07
2.17367e-05
-1.02427e-06
2.66734e-05
-2.12745e-06
3.2392e-05
-3.49822e-06
3.77429e-05
-5.22986e-06
4.16382e-05
-7.46053e-06
4.3456e-05
-1.04516e-05
4.25683e-05
-1.41965e-05
3.87119e-05
-1.89404e-05
3.19931e-05
-2.48883e-05
2.30982e-05
-3.23222e-05
1.31628e-05
-4.18536e-05
4.00966e-06
-5.484e-05
-2.93199e-06
-7.2461e-05
-6.22761e-06
-9.78433e-05
-3.00676e-06
-0.000135234
1.1138e-05
-0.000187975
4.26068e-05
-0.000255033
9.50908e-05
-0.000319075
0.000159843
-0.000339215
0.000228525
-0.000303181
0.000286283
-0.00019622
0.000315231
-2.57361e-05
0.000326154
0.000122927
-1.68316e-05
-1.17923e-05
1.33341e-05
-0.000365879
0.000302344
0.000481953
-0.000365868
0.000356337
-0.000299334
0.00021955
-0.000225031
0.000160318
-0.00017102
0.000146854
-0.000124242
0.000126035
-8.34077e-05
0.000109411
-4.91882e-05
9.62235e-05
-2.01861e-05
8.49878e-05
5.19444e-06
7.99429e-05
2.91319e-05
8.06242e-05
5.39501e-05
8.26067e-05
8.0345e-05
9.21906e-05
0.000107634
0.000118593
0.000137492
0.000156556
0.000167163
0.000208087
0.000194969
0.000258699
0.000218537
0.000304807
0.000246905
0.000324331
0.000277508
0.000297726
2.9407e-05
-9.10515e-06
-1.01692e-05
-1.31125e-05
-5.59022e-06
1.93492e-05
1.02212e-05
-1.25783e-05
-2.36664e-05
2.17613e-05
1.53661e-05
-1.35731e-05
2.47831e-05
-1.53406e-05
2.76616e-05
-1.79488e-05
3.10671e-05
-2.86235e-05
-1.99086e-05
3.48819e-05
-2.26833e-05
-2.08531e-05
-1.78895e-05
-2.14562e-05
1.99125e-05
-2.15597e-05
-1.50077e-05
-7.01841e-06
-1.04385e-06
-1.3715e-05
-1.25593e-05
1.23383e-05
9.72241e-06
-1.06318e-05
-2.8729e-05
1.41584e-05
-1.6174e-05
-6.1161e-05
6.96945e-05
1.40856e-05
-4.83227e-05
-7.05079e-06
-2.45176e-06
1.07006e-05
-3.46322e-06
-4.34623e-06
-6.06108e-06
-5.07533e-07
-3.0299e-06
-2.65637e-05
2.51712e-05
-8.03358e-06
-2.31043e-05
-6.67295e-06
1.5161e-06
-2.19775e-06
3.39089e-05
-1.24566e-06
3.84791e-05
-8.68635e-07
4.05373e-05
-2.94729e-06
4.2125e-05
4.10343e-05
-2.56176e-06
4.43256e-05
-4.75653e-05
8.92327e-06
-4.184e-05
3.40758e-05
2.07742e-05
-1.67961e-05
-4.50783e-05
1.25018e-05
-1.88261e-05
4.9752e-05
-3.99238e-05
1.36691e-05
-3.49325e-05
1.19518e-05
-2.95328e-05
9.08808e-06
-2.38644e-05
5.6969e-06
-1.8117e-05
2.23497e-06
-1.24918e-05
-1.05983e-06
-6.91093e-06
-4.154e-06
-1.63956e-06
-6.88384e-06
3.03651e-06
-9.24917e-06
6.89799e-06
-1.1272e-05
9.59129e-06
-1.28715e-05
1.08173e-05
-1.39693e-05
1.04783e-05
-1.45898e-05
8.71587e-06
-1.46891e-05
5.9589e-06
-1.42913e-05
2.72972e-06
-1.34443e-05
-4.49005e-07
-1.22538e-05
-3.30964e-06
-1.07565e-05
-5.48723e-06
-9.20192e-06
-6.92029e-06
-7.78997e-06
-7.70782e-06
-6.69625e-06
-8.16284e-06
-6.06779e-06
-8.88321e-06
-6.06789e-06
-1.05931e-05
-6.83263e-06
-1.39033e-05
-8.59961e-06
-1.91297e-05
-1.16948e-05
-2.60852e-05
-1.66992e-05
-3.42414e-05
-2.4517e-05
-4.29731e-05
-3.67068e-05
-5.17015e-05
-5.56289e-05
-5.92059e-05
-8.47037e-05
-6.33702e-05
-0.000126764
-6.0729e-05
-0.000181286
-4.68798e-05
-0.00023978
-2.10558e-05
-0.000277423
1.64293e-05
-0.000282187
6.60547e-05
-0.000249531
0.000118566
-0.000169028
0.000172857
-6.5281e-05
0.00023435
3.16462e-05
0.00031617
0.000114017
0.000425298
0.000156456
0.000539849
0.000184175
-2.04521e-05
-6.03393e-06
2.3869e-05
-1.64965e-05
-6.93565e-06
1.06726e-05
-7.93528e-06
-1.24111e-05
5.32368e-05
2.1612e-06
-6.44566e-05
-3.50441e-06
-2.2903e-05
1.09044e-05
-6.49487e-06
-2.06956e-05
-1.88639e-05
-3.03176e-05
2.17289e-05
-1.18514e-05
-1.91434e-05
1.27456e-05
-1.14784e-05
-2.29569e-05
1.18807e-05
1.40065e-05
-2.3354e-06
-1.71083e-05
-1.84021e-05
-1.25648e-05
-2.65035e-06
-2.58524e-06
9.8213e-06
-5.99894e-06
-4.31435e-07
1.0785e-06
3.75993e-06
3.18078e-06
-1.27588e-05
1.29994e-05
-4.60676e-05
-3.92133e-06
-2.59963e-07
2.17864e-05
-2.90175e-05
-1.13439e-05
-2.72122e-06
-4.57928e-06
4.53469e-06
4.25058e-05
1.09566e-05
-3.64392e-05
1.51832e-05
2.81319e-05
-2.36803e-05
3.43924e-05
-2.2127e-05
4.02671e-05
-2.03225e-05
-2.32592e-06
-6.91152e-06
-3.47223e-06
-7.2652e-06
-4.43879e-06
-7.29499e-06
-4.79087e-06
-6.99785e-06
-4.16907e-06
-6.31317e-06
-2.4938e-06
-5.2883e-06
-3.6798e-08
-3.99344e-06
2.99611e-06
-2.5716e-06
5.75263e-06
-1.03307e-06
7.95619e-06
1.55725e-07
9.51251e-06
1.24597e-06
1.09842e-05
1.8526e-06
1.31796e-05
2.0299e-06
1.66626e-05
1.78615e-06
2.13456e-05
1.17239e-06
2.66929e-05
1.75896e-07
3.15223e-05
-1.35985e-06
3.47776e-05
-3.51516e-06
3.57004e-05
-6.49802e-06
3.38332e-05
-1.02391e-05
2.89092e-05
-1.48462e-05
2.0938e-05
-2.04088e-05
1.0426e-05
-2.71133e-05
-1.55981e-06
-3.5653e-05
-1.40469e-05
-4.66882e-05
-2.60184e-05
-6.27051e-05
-3.70151e-05
-8.72145e-05
-4.58395e-05
-0.000126165
-4.8855e-05
-0.000185628
-3.90925e-05
-0.000266409
-9.01881e-06
-0.000350167
3.86513e-05
-0.000386073
0.000101395
-0.000362872
0.000160293
-0.000250738
0.000210138
-7.09386e-05
0.000242663
9.41116e-05
0.000229554
0.000293333
1.37616e-05
4.04132e-05
-1.72484e-05
1.22289e-05
4.07555e-05
1.15533e-05
4.00965e-05
1.32362e-05
3.76991e-05
1.59947e-05
3.39489e-05
1.97299e-05
2.89672e-05
3.27875e-05
-1.91815e-05
-3.67468e-05
-5.4324e-06
2.90897e-05
-6.92658e-06
2.18714e-06
-6.73366e-07
1.37787e-05
-3.91242e-06
-2.61798e-06
1.96961e-05
-1.57303e-05
-1.8791e-05
-1.7447e-05
-1.10364e-05
-4.08347e-06
2.71208e-05
7.39966e-06
-6.86878e-07
6.59573e-06
3.69875e-05
-7.56219e-06
2.0369e-06