/*--------------------------------*- C++ -*----------------------------------*\
| =========                 |                                                 |
| \\      /  F ield         | OpenFOAM: The Open Source CFD Toolbox           |
|  \\    /   O peration     | Version:  2212                                  |
|   \\  /    A nd           | Website:  www.openfoam.com                      |
|    \\/     M anipulation  |                                                 |
\*---------------------------------------------------------------------------*/
FoamFile
{
    version     2.0;
    format      ascii;
    arch        "LSB;label=32;scalar=64";
    class       volVectorField;
    location    "0.000216";
    object      U;
}
// * * * * * * * * * * * * * * * * * * * * * * * * * * * * * * * * * * * * * //

dimensions      [0 1 -1 0 0 0 0];

internalField   nonuniform List<vector> 
10556
(
(-1.62254e-09 5.40855 631.506)
(-8.46954e-10 8.04274 631.486)
(-4.36159e-10 11.3613 631.413)
(-2.62349e-10 14.5223 631.312)
(-1.81262e-10 17.6435 631.163)
(-1.32507e-10 20.5778 631.036)
(-9.69788e-11 23.4276 630.924)
(-6.50892e-11 26.3037 630.752)
(-3.92075e-11 29.2927 630.552)
(-1.81714e-11 32.3415 630.318)
(-9.15032e-12 35.3816 630.06)
(-1.07947e-11 38.4007 629.829)
(-1.78147e-11 41.1853 629.769)
(-3.10577e-11 44.0205 630.042)
(-2.90678e-11 47.6131 630.773)
(-4.39924e-11 52.1105 631.189)
(-4.41532e-11 58.218 628.407)
(-6.11822e-11 64.8824 616.24)
(-6.76282e-11 69.0927 588.122)
(-6.51477e-11 70.9648 541.93)
(-5.95686e-11 70.1429 480.134)
(2.1633e-11 67.0704 403.438)
(1.18574e-09 59.5506 316.297)
(1.60844e-08 49.3872 221.386)
(1.03436e-07 20.1684 108.228)
(-1.61892e-09 5.27469 629.763)
(-8.45409e-10 8.02693 629.78)
(-4.35178e-10 11.3679 629.696)
(-2.62045e-10 14.558 629.589)
(-1.8135e-10 17.6706 629.454)
(-1.32362e-10 20.5713 629.337)
(-9.63399e-11 23.4338 629.207)
(-6.43578e-11 26.3326 629.026)
(-3.84332e-11 29.3218 628.821)
(-1.74985e-11 32.3792 628.586)
(-8.72146e-12 35.433 628.318)
(-1.05766e-11 38.4549 628.07)
(-1.75805e-11 41.2348 627.972)
(-3.11065e-11 44.0353 628.149)
(-2.88035e-11 47.599 628.625)
(-4.3412e-11 52.0171 628.493)
(-4.35369e-11 57.9028 624.635)
(-6.06174e-11 64.4975 610.867)
(-6.72979e-11 68.6304 580.987)
(-6.46779e-11 69.8795 532.825)
(-6.47678e-11 68.0067 468.475)
(-1.39789e-10 63.623 388.009)
(9.97032e-11 55.24 294.456)
(6.28961e-09 43.9134 190.978)
(7.50394e-08 17.7824 77.4371)
(-1.61394e-09 5.17208 630.53)
(-8.42859e-10 8.0187 630.491)
(-4.33651e-10 11.3796 630.423)
(-2.61306e-10 14.5764 630.319)
(-1.91145e-10 17.6813 630.212)
(-1.41842e-10 20.5736 630.094)
(-9.57253e-11 23.4516 629.941)
(-6.37284e-11 26.3614 629.755)
(-3.78148e-11 29.3519 629.562)
(-1.69157e-11 32.4178 629.354)
(-8.28299e-12 35.4807 629.123)
(-1.02752e-11 38.5037 628.885)
(-1.72243e-11 41.2813 628.785)
(-3.1075e-11 44.0554 629.01)
(-2.85196e-11 47.5965 629.521)
(-4.36723e-11 51.9784 629.67)
(-4.38124e-11 57.7619 626.583)
(-5.99008e-11 64.3041 614.425)
(-6.68996e-11 68.3842 585.895)
(-6.37023e-11 69.2275 538.46)
(-6.17103e-11 66.4903 473.745)
(-3.81809e-11 60.6282 391.306)
(-2.63169e-10 50.7701 294.657)
(-2.29355e-09 37.3007 189.202)
(7.51644e-10 15.6295 72.2372)
(-1.61356e-09 5.09999 630.728)
(-8.40535e-10 8.01088 630.674)
(-4.32322e-10 11.3935 630.609)
(-2.60562e-10 14.5865 630.507)
(-1.78467e-10 17.6839 630.41)
(-1.29466e-10 20.5781 630.289)
(-9.52828e-11 23.4723 630.13)
(-6.31393e-11 26.387 629.943)
(-3.72801e-11 29.3773 629.733)
(-1.64197e-11 32.4494 629.495)
(-7.89295e-12 35.5168 629.234)
(-9.95431e-12 38.5393 628.997)
(-1.6796e-11 41.3126 628.912)
(-3.10107e-11 44.0639 629.126)
(-2.83926e-11 47.5777 629.753)
(-1.39057e-10 51.9491 630.051)
(-1.47474e-10 57.7015 627.275)
(-6.06541e-11 64.2919 615.362)
(-6.665e-11 68.3806 587.281)
(-6.29715e-11 69.1194 540.114)
(-6.41384e-11 66.1313 475.448)
(-5.72005e-11 59.8251 392.724)
(1.73093e-10 49.0897 295.249)
(8.46037e-10 34.3278 188.553)
(1.12334e-10 13.3256 69.9698)
(-1.61742e-09 5.05044 630.782)
(-8.38398e-10 8.00194 630.714)
(-4.31419e-10 11.401 630.634)
(-2.60161e-10 14.5864 630.536)
(-1.80615e-10 17.6799 630.444)
(-1.31397e-10 20.5829 630.321)
(-9.51805e-11 23.4897 630.16)
(-6.2713e-11 26.4039 629.972)
(-3.68929e-11 29.3942 629.761)
(-1.61081e-11 32.4691 629.52)
(-7.62044e-12 35.5373 629.261)
(-9.66706e-12 38.5589 629.023)
(-1.63993e-11 41.3291 628.935)
(-3.08987e-11 44.0652 629.151)
(-2.60215e-11 47.5433 629.789)
(-4.96967e-11 51.9063 630.207)
(-2.65874e-11 57.6578 627.68)
(-6.00148e-11 64.2472 616.325)
(-6.6384e-11 68.3188 588.99)
(-6.20943e-11 69.0298 542.409)
(-6.18428e-11 65.8388 478.01)
(-6.78048e-11 58.8929 395.183)
(-1.97265e-10 47.3866 297.423)
(-2.88518e-10 32.5932 189.016)
(-4.15177e-11 12.3834 68.4364)
(-1.61686e-09 4.9815 630.785)
(-8.33e-10 7.99088 630.673)
(-4.28853e-10 11.4127 630.604)
(-2.59015e-10 14.5801 630.523)
(-1.80062e-10 17.673 630.443)
(-1.31128e-10 20.6058 630.315)
(-9.53106e-11 23.5316 630.14)
(-6.17876e-11 26.4428 629.954)
(-3.59265e-11 29.4373 629.738)
(-1.54086e-11 32.5131 629.49)
(-7.04552e-12 35.5855 629.232)
(-9.05729e-12 38.6066 628.994)
(-1.53539e-11 41.374 628.902)
(-3.06847e-11 44.0701 629.106)
(-2.5456e-11 47.4837 629.744)
(-5.03984e-11 51.8395 630.275)
(-4.02643e-11 57.6142 627.939)
(-5.9439e-11 64.2633 616.959)
(-6.60914e-11 68.3228 590.017)
(-6.23853e-11 69.0169 543.752)
(-6.28588e-11 65.6841 479.551)
(-4.22035e-11 58.2217 396.871)
(4.90559e-11 46.5487 298.559)
(6.09389e-11 31.8132 189.132)
(-4.19576e-14 11.9524 67.8064)
(-1.60815e-09 4.91206 630.73)
(-8.32585e-10 8.0277 630.62)
(-4.28216e-10 11.388 630.539)
(-2.78509e-10 14.5666 630.465)
(-1.9831e-10 17.6668 630.39)
(-1.50216e-10 20.6285 630.255)
(-1.14065e-10 23.5436 630.094)
(-6.17966e-11 26.4542 629.918)
(-3.58498e-11 29.4547 629.705)
(-1.52727e-11 32.5306 629.451)
(-7.0761e-12 35.6022 629.192)
(-9.20503e-12 38.6214 628.956)
(-1.54563e-11 41.3857 628.859)
(-3.07954e-11 44.0745 629.058)
(-2.48849e-11 47.4846 629.689)
(-5.14221e-11 51.7671 630.314)
(-3.80392e-11 57.5817 628.101)
(-5.91049e-11 64.2652 617.627)
(-6.91104e-11 68.2862 591.519)
(-2.52021e-10 68.9757 545.84)
(-2.24954e-10 65.5436 481.959)
(-7.33839e-11 57.9967 399.051)
(-1.01785e-10 46.3292 299.852)
(-7.11775e-11 31.5603 189.778)
(-1.49886e-11 11.7537 67.6207)
(-1.59223e-09 4.79617 630.533)
(-8.28969e-10 8.04618 630.549)
(-4.25501e-10 11.3976 630.465)
(-2.3926e-10 14.5521 630.378)
(-1.60042e-10 17.6672 630.278)
(-1.11904e-10 20.6429 630.151)
(-7.46486e-11 23.5727 630.019)
(-6.07397e-11 26.4908 629.855)
(-3.51626e-11 29.5069 629.658)
(-1.4743e-11 32.5844 629.412)
(-6.78131e-12 35.6472 629.153)
(-9.2395e-12 38.6658 628.915)
(-1.53998e-11 41.4279 628.804)
(-3.10257e-11 44.0811 628.975)
(-2.52006e-11 47.4413 629.547)
(-4.25535e-11 51.7276 630.305)
(-3.68894e-11 57.5499 628.114)
(-5.83525e-11 64.3051 617.982)
(-5.7472e-11 68.3118 592.398)
(8.03291e-11 68.9873 546.917)
(6.38818e-11 65.6385 483.124)
(-3.59729e-11 58.2202 400.115)
(-1.11733e-11 46.4912 300.659)
(-1.00692e-11 31.4894 190.192)
(-8.91905e-12 11.6734 67.5852)
(-1.58232e-09 4.74327 630.429)
(-8.25109e-10 8.00158 630.419)
(-4.25791e-10 11.4114 630.349)
(-2.76505e-10 14.5719 630.266)
(-1.97407e-10 17.6889 630.17)
(-1.48834e-10 20.6352 630.029)
(-1.11152e-10 23.5549 629.876)
(-6.04466e-11 26.4854 629.716)
(-3.49605e-11 29.5079 629.519)
(-1.47056e-11 32.6039 629.298)
(-6.84699e-12 35.6786 629.043)
(-9.45813e-12 38.6983 628.795)
(-1.55879e-11 41.4809 628.679)
(-3.12933e-11 44.1579 628.838)
(-2.08734e-10 47.4432 629.36)
(-1.90561e-10 51.724 630.065)
(-3.64378e-11 57.4727 627.978)
(-5.74937e-11 64.0825 618.193)
(-7.452e-11 68.3181 592.982)
(-1.70454e-10 69.2038 548.004)
(-1.53188e-10 65.9029 484.413)
(-7.50912e-11 58.414 401.343)
(-6.6381e-11 46.6261 301.698)
(-4.01758e-11 31.5257 190.858)
(-1.19864e-11 11.636 67.7025)
(-1.57117e-09 4.79041 630.348)
(-8.20372e-10 8.0001 630.245)
(-4.20674e-10 11.4155 630.224)
(-2.37387e-10 14.5622 630.146)
(-1.59748e-10 17.6986 630.031)
(-1.12308e-10 20.694 629.899)
(-7.70406e-11 23.6236 629.759)
(-5.95822e-11 26.5395 629.585)
(-3.4019e-11 29.5602 629.374)
(-1.40429e-11 32.6546 629.143)
(-6.45861e-12 35.7424 628.891)
(-9.20166e-12 38.7657 628.643)
(-1.53155e-11 41.5409 628.518)
(-2.5872e-11 44.2202 628.632)
(1.36153e-10 47.4273 629.169)
(7.07905e-12 51.7538 629.601)
(-3.64077e-11 57.4667 627.921)
(-5.4665e-11 64.0025 618.253)
(-5.2924e-11 68.1186 593.221)
(1.58566e-11 69.0273 548.478)
(5.76603e-12 65.8909 484.992)
(-3.9598e-11 58.519 401.98)
(-3.27358e-11 46.7422 302.249)
(-2.46608e-11 31.5782 191.228)
(-9.74032e-12 11.6332 67.8276)
(-1.56642e-09 5.01485 630.124)
(-8.1562e-10 8.00477 630.062)
(-4.19542e-10 11.3931 630)
(-2.70847e-10 14.6057 629.925)
(-1.94029e-10 17.7409 629.824)
(-1.45676e-10 20.6889 629.733)
(-1.07058e-10 23.6138 629.59)
(-5.90792e-11 26.5665 629.441)
(-3.38878e-11 29.5982 629.253)
(-1.40323e-11 32.6905 629.011)
(-6.52129e-12 35.7853 628.752)
(-9.31125e-12 38.8165 628.503)
(-1.55541e-11 41.6192 628.366)
(-3.55396e-11 44.3106 628.431)
(-1.72232e-10 47.5294 628.983)
(-6.49271e-11 51.7657 629.49)
(-3.51516e-11 57.3966 627.875)
(-5.39084e-11 63.9046 618.461)
(-7.12679e-11 68.1361 593.654)
(-1.17563e-10 69.0834 549.226)
(-1.0211e-10 66.0066 485.876)
(-6.70829e-11 58.6293 402.807)
(-5.18076e-11 46.848 302.906)
(-3.17904e-11 31.6705 191.651)
(-1.05169e-11 11.6524 67.959)
(-1.57357e-09 5.19835 629.978)
(-8.11276e-10 8.01162 629.895)
(-4.15935e-10 11.432 629.826)
(-2.3917e-10 14.6013 629.754)
(-1.62842e-10 17.7152 629.698)
(-1.15018e-10 20.7189 629.575)
(-7.79312e-11 23.6633 629.435)
(-5.81792e-11 26.5828 629.285)
(-3.31223e-11 29.6368 629.104)
(-1.35236e-11 32.7565 628.877)
(-6.24269e-12 35.8519 628.625)
(-9.1586e-12 38.8831 628.372)
(-1.48835e-11 41.707 628.224)
(-2.37479e-11 44.3682 628.295)
(1.04367e-10 47.5675 628.834)
(-5.39368e-11 51.785 629.464)
(-3.46823e-11 57.3716 627.861)
(-5.10994e-11 63.902 618.612)
(-5.3579e-11 68.0302 593.891)
(-2.29713e-11 68.9244 549.606)
(-1.98526e-10 65.967 486.333)
(-1.93498e-10 58.659 403.286)
(-4.44064e-11 46.898 303.287)
(-2.79409e-11 31.715 191.875)
(-1.01408e-11 11.6563 68.0317)
(-1.57014e-09 5.32458 629.921)
(-8.08698e-10 8.03681 629.83)
(-4.15345e-10 11.4087 629.752)
(-2.84544e-10 14.5909 629.677)
(-2.08771e-10 17.7354 629.597)
(-1.4117e-10 20.7133 629.466)
(-1.06155e-10 23.6443 629.33)
(-5.80914e-11 26.5969 629.158)
(-3.29791e-11 29.6491 628.969)
(-1.35784e-11 32.7665 628.744)
(-6.45378e-12 35.8857 628.496)
(-9.42697e-12 38.9356 628.239)
(-1.53629e-11 41.7791 628.091)
(-3.76682e-11 44.4394 628.175)
(-1.59274e-10 47.5969 628.684)
(-3.50082e-11 51.7959 629.424)
(-3.43688e-11 57.3561 627.864)
(-5.15047e-11 63.8981 618.769)
(-6.95181e-11 68.1968 594.299)
(-9.01365e-11 68.9639 550.335)
(5.55231e-11 66.0205 487.278)
(5.12948e-11 58.7424 404.19)
(-3.6868e-11 46.9834 303.992)
(-2.89549e-11 31.7783 192.279)
(-1.01417e-11 11.6617 68.1067)
(-1.55988e-09 5.32633 629.776)
(-8.04584e-10 8.05844 629.708)
(-4.11855e-10 11.4167 629.662)
(-2.38576e-10 14.5826 629.598)
(-1.81435e-10 17.7312 629.509)
(-1.53501e-10 20.7385 629.38)
(-9.67945e-11 23.6893 629.233)
(-5.71808e-11 26.6242 629.06)
(-3.25154e-11 29.6756 628.856)
(-1.32319e-11 32.8087 628.625)
(-6.26993e-12 35.9304 628.362)
(-9.36249e-12 38.98 628.103)
(-1.43973e-11 41.8324 627.949)
(-1.92012e-11 44.4857 628.017)
(-7.49739e-11 47.5543 628.547)
(-1.63655e-10 51.7837 629.294)
(-3.42209e-11 57.3641 627.825)
(-5.02563e-11 63.9651 619.013)
(-5.38304e-11 68.1165 594.843)
(-4.278e-11 68.819 551.018)
(-1.50426e-10 65.9515 488.088)
(-1.34168e-10 58.7655 405.088)
(-5.36951e-11 47.0446 304.769)
(-2.97293e-11 31.8312 192.788)
(-1.01459e-11 11.6805 68.2968)
(-1.55317e-09 5.30635 629.582)
(-8.01469e-10 8.04478 629.519)
(-4.11386e-10 11.3968 629.464)
(-2.63075e-10 14.571 629.41)
(-1.68565e-10 17.7429 629.313)
(-1.01096e-10 20.7528 629.189)
(-8.22508e-11 23.6987 629.052)
(-5.70567e-11 26.6422 628.903)
(-3.23287e-11 29.7012 628.698)
(-1.33692e-11 32.8345 628.472)
(-6.5271e-12 35.9779 628.213)
(-9.66129e-12 39.0378 627.95)
(-1.54741e-11 41.9189 627.782)
(-3.59254e-11 44.5564 627.849)
(2.57408e-11 47.5355 628.373)
(9.88935e-11 51.7256 629.092)
(-3.46498e-11 57.4071 627.626)
(-5.20792e-11 64.0598 619.165)
(-6.79564e-11 68.3544 595.598)
(-7.35864e-11 68.9424 552.068)
(1.57107e-11 65.9584 489.293)
(6.86495e-12 58.8162 406.239)
(-3.28127e-11 47.1229 305.703)
(-2.71329e-11 31.8927 193.351)
(-9.81082e-12 11.6989 68.4559)
(-1.53799e-09 5.22633 629.397)
(-7.97707e-10 8.0539 629.339)
(-4.0714e-10 11.401 629.264)
(-2.36534e-10 14.5811 629.182)
(-2.02785e-10 17.7409 629.097)
(-1.73216e-10 20.7405 628.993)
(-1.00549e-10 23.6949 628.884)
(-5.64724e-11 26.6644 628.718)
(-3.18719e-11 29.7321 628.534)
(-1.30394e-11 32.8731 628.297)
(-6.27952e-12 36.0261 628.041)
(-9.28771e-12 39.0973 627.78)
(-1.43573e-11 41.9742 627.612)
(-2.35082e-11 44.5968 627.684)
(-8.43729e-11 47.4956 628.199)
(-2.10566e-10 51.7149 628.887)
(-3.2738e-11 57.4345 627.425)
(-5.16222e-11 63.9999 619.277)
(-5.44692e-11 68.3381 596.401)
(-5.31895e-11 69.0108 553.023)
(-1.13603e-10 65.9696 490.281)
(-9.86569e-11 58.8283 407.245)
(-5.30956e-11 47.1695 306.586)
(-3.01814e-11 31.9357 193.942)
(-1.01913e-11 11.7123 68.641)
(-1.51722e-09 5.21698 629.179)
(-8.14074e-10 8.05905 629.148)
(-4.28299e-10 11.4145 629.11)
(-2.60772e-10 14.5751 629.031)
(-1.48048e-10 17.7254 628.96)
(-8.40515e-11 20.7332 628.842)
(-7.8263e-11 23.6929 628.704)
(-5.61559e-11 26.6626 628.549)
(-3.194e-11 29.7435 628.363)
(-1.32799e-11 32.902 628.129)
(-6.52057e-12 36.0677 627.869)
(-9.92213e-12 39.1499 627.604)
(-2.10549e-10 42.0514 627.433)
(-2.19794e-10 44.6563 627.489)
(3.40481e-11 47.519 627.986)
(1.30404e-10 51.7742 628.549)
(-3.40306e-11 57.4003 627.299)
(-5.29122e-11 63.8094 619.42)
(-6.5852e-11 68.4205 597.098)
(-6.42534e-11 69.2647 554.314)
(-1.10114e-11 66.1379 491.706)
(-1.85426e-11 58.9391 408.53)
(-3.42279e-11 47.2574 307.627)
(-2.65302e-11 32.0026 194.617)
(-9.66123e-12 11.7291 68.8629)
(-1.5062e-09 5.24259 629.008)
(-7.70277e-10 8.02113 628.987)
(-3.83168e-10 11.3728 628.944)
(-2.37101e-10 14.5539 628.907)
(-2.00319e-10 17.7433 628.836)
(-1.87675e-10 20.7586 628.711)
(-1.19908e-10 23.7176 628.526)
(-5.5627e-11 26.6843 628.371)
(-3.14906e-11 29.7753 628.179)
(-1.30519e-11 32.9433 627.957)
(-6.48053e-12 36.1204 627.694)
(-3.19906e-12 39.2058 627.428)
(1.76122e-10 42.1078 627.25)
(1.58941e-10 44.7145 627.297)
(-8.82667e-11 47.583 627.729)
(-1.84357e-10 51.8725 628.196)
(-3.19657e-11 57.3073 627.209)
(-5.10381e-11 63.5319 619.614)
(-5.43888e-11 68.134 597.572)
(-5.8073e-11 69.2349 555.223)
(-8.93364e-11 66.2954 492.826)
(-7.8589e-11 59.0529 409.636)
(-4.99688e-11 47.3207 308.55)
(-2.96916e-11 32.0502 195.234)
(-1.00643e-11 11.7394 69.0812)
(-1.50557e-09 5.30562 628.84)
(-8.04398e-10 8.00888 628.78)
(-4.21516e-10 11.3692 628.745)
(-2.53784e-10 14.5372 628.679)
(-1.48205e-10 17.7292 628.607)
(-6.49638e-11 20.7939 628.52)
(-6.19084e-11 23.7461 628.395)
(-5.54457e-11 26.6892 628.192)
(-3.15527e-11 29.7806 627.991)
(-1.34349e-11 32.9635 627.768)
(-7.28699e-12 36.1672 627.513)
(-1.69957e-11 39.2666 627.249)
(-2.02036e-10 42.1889 627.069)
(-1.99272e-10 44.8097 627.099)
(3.46245e-11 47.7242 627.493)
(8.15972e-11 51.9108 627.976)
(-3.2694e-11 57.1616 627.156)
(-5.23258e-11 63.3987 619.844)
(-6.30086e-11 68.2013 598.177)
(-5.90332e-11 69.2568 556.294)
(-2.69506e-11 66.4369 494.239)
(-3.28149e-11 59.2429 410.985)
(-3.64112e-11 47.4466 309.601)
(-2.65131e-11 32.1234 195.884)
(-9.47386e-12 11.7542 69.291)
(-1.50745e-09 5.37225 628.658)
(-7.6548e-10 8.00167 628.588)
(-3.82093e-10 11.3477 628.523)
(-2.40543e-10 14.5278 628.45)
(-1.97143e-10 17.6921 628.35)
(-1.96452e-10 20.7316 628.234)
(-1.35129e-10 23.7676 628.173)
(-5.49973e-11 26.7516 628.021)
(-3.13843e-11 29.8179 627.821)
(-1.33517e-11 32.9934 627.581)
(-6.85164e-12 36.2017 627.328)
(1.9273e-12 39.3072 627.07)
(1.63026e-10 42.2387 626.887)
(1.37028e-10 44.8803 626.893)
(-8.52095e-11 47.8001 627.273)
(-1.43678e-10 51.9519 627.838)
(-3.10135e-11 57.115 627.1)
(-5.22036e-11 63.3036 620.065)
(-5.48867e-11 67.9519 598.885)
(-6.36142e-11 69.0941 557.209)
(-2.64203e-10 66.4248 495.415)
(-2.2826e-10 59.3582 412.24)
(-5.33342e-11 47.5529 310.634)
(-2.89853e-11 32.1787 196.519)
(-9.80119e-12 11.7624 69.4695)
(-1.50486e-09 5.36316 628.452)
(-7.9587e-10 8.02823 628.412)
(-4.15089e-10 11.3593 628.344)
(-2.47958e-10 14.5192 628.278)
(-1.50368e-10 17.6986 628.199)
(-7.17453e-11 20.7174 628.079)
(-4.80798e-11 23.6954 627.909)
(-5.51194e-11 26.7155 627.826)
(-3.15101e-11 29.8261 627.647)
(-1.37472e-11 33.0087 627.413)
(-7.88051e-12 36.2206 627.15)
(-2.2091e-11 39.3412 626.885)
(-1.85994e-10 42.309 626.685)
(-1.76086e-10 44.9644 626.666)
(-1.63342e-10 47.8496 627.041)
(-1.30819e-10 51.8647 627.714)
(-3.24696e-11 57.1017 626.981)
(-5.47722e-11 63.336 620.267)
(-5.98385e-11 68.1675 599.611)
(-4.37006e-11 69.1899 558.604)
(1.08796e-10 66.4756 497.073)
(8.2669e-11 59.5088 413.912)
(-2.33807e-11 47.7237 311.997)
(-2.48842e-11 32.2761 197.361)
(-9.23612e-12 11.7895 69.7096)
(-1.49826e-09 5.29733 628.258)
(-7.63271e-10 7.98941 628.243)
(-3.82496e-10 11.328 628.211)
(-2.42564e-10 14.4972 628.152)
(-1.94383e-10 17.7064 628.098)
(-1.76812e-10 20.7463 627.998)
(-1.20877e-10 23.6875 627.804)
(-5.46045e-11 26.676 627.632)
(-3.15202e-11 29.8203 627.459)
(-1.38352e-11 33.0262 627.244)
(-6.82066e-12 36.2477 626.983)
(7.42727e-12 39.3719 626.712)
(1.49243e-10 42.3656 626.501)
(1.21039e-10 45.0139 626.453)
(9.81511e-11 47.8061 626.821)
(5.32383e-11 51.847 627.529)
(-3.29629e-11 57.1012 626.778)
(-5.53256e-11 63.3401 620.449)
(-5.59425e-11 68.0178 600.366)
(-7.31218e-11 69.1398 559.803)
(-1.8433e-10 66.4969 498.567)
(-1.49711e-10 59.602 415.51)
(-5.91515e-11 47.8793 313.391)
(-3.04688e-11 32.3744 198.268)
(-1.00725e-11 11.8215 69.9693)
(-1.49134e-09 5.2113 628.087)
(-8.11689e-10 7.95863 628.069)
(-4.32223e-10 11.3007 628.028)
(-2.44984e-10 14.4646 627.975)
(-1.51263e-10 17.6565 627.884)
(-7.93306e-11 20.7365 627.802)
(-5.8764e-11 23.7282 627.693)
(-5.5194e-11 26.6705 627.468)
(-3.18576e-11 29.7886 627.277)
(-1.45224e-11 33.0101 627.059)
(-9.39033e-12 36.2609 626.807)
(-2.82172e-11 39.4058 626.529)
(-1.77407e-10 42.4392 626.301)
(-1.64854e-10 45.1025 626.249)
(-1.50944e-10 47.8141 626.585)
(-1.13007e-10 51.7866 627.238)
(-3.12879e-11 57.0603 626.571)
(-5.24861e-11 63.275 620.655)
(-5.7058e-11 68.156 601.226)
(-3.62867e-11 69.3011 561.316)
(4.97224e-11 66.6514 500.444)
(2.78233e-11 59.7773 417.42)
(-2.31882e-11 48.0977 315.067)
(-2.38584e-11 32.5475 199.419)
(-9.03261e-12 11.8914 70.3588)
(-1.48118e-09 5.19553 627.908)
(-7.36442e-10 7.93223 627.859)
(-3.5856e-10 11.279 627.815)
(-2.42847e-10 14.4505 627.747)
(-2.16894e-10 17.6264 627.652)
(-1.93071e-10 20.6737 627.544)
(-1.18466e-10 23.709 627.458)
(-5.42356e-11 26.7151 627.326)
(-3.1901e-11 29.8161 627.114)
(-1.46437e-11 33.0263 626.874)
(-7.29561e-12 36.2876 626.613)
(1.1873e-11 39.451 626.343)
(1.46593e-10 42.4937 626.107)
(1.16582e-10 45.1595 626.054)
(8.89111e-11 47.8392 626.395)
(3.49298e-11 51.8641 626.929)
(-3.1102e-11 56.962 626.414)
(-4.45541e-11 63.0477 620.848)
(-5.58607e-11 68.0199 601.956)
(-7.43462e-11 69.3991 562.44)
(-1.37414e-10 66.7927 501.944)
(-1.08405e-10 59.9252 419.042)
(-5.56559e-11 48.272 316.546)
(-3.04659e-11 32.7214 200.491)
(-1.00472e-11 11.9701 70.7654)
(-1.47676e-09 5.25201 627.724)
(-8.06348e-10 7.93163 627.679)
(-4.29146e-10 11.2655 627.627)
(-2.63374e-10 14.4442 627.564)
(-1.49974e-10 17.6346 627.5)
(-6.07163e-11 20.6591 627.377)
(-5.96981e-11 23.658 627.226)
(-5.5097e-11 26.6974 627.097)
(-3.21811e-11 29.8419 626.915)
(-1.53571e-11 33.0553 626.684)
(-1.10045e-11 36.3153 626.42)
(-3.42968e-11 39.4986 626.145)
(-1.77317e-10 42.5807 625.906)
(-1.60382e-10 45.2413 625.862)
(-1.39672e-10 47.9387 626.18)
(-9.612e-11 51.8876 626.658)
(-2.95189e-11 56.7995 626.268)
(-4.0532e-11 62.801 620.984)
(-5.35517e-11 68.2558 602.738)
(-3.41604e-11 69.656 563.758)
(1.50334e-11 67.0217 503.647)
(-7.23983e-13 60.1558 420.782)
(-2.64162e-11 48.4888 318.097)
(-2.39946e-11 32.9424 201.628)
(-9.0151e-12 12.0776 71.2329)
(-1.47185e-09 5.25384 627.514)
(-7.31601e-10 7.9164 627.476)
(-3.56946e-10 11.257 627.426)
(-2.21895e-10 14.4102 627.376)
(-1.93121e-10 17.6232 627.303)
(-1.87108e-10 20.707 627.201)
(-1.14196e-10 23.6986 627.062)
(-5.41104e-11 26.6868 626.886)
(-3.22736e-11 29.8419 626.702)
(-1.54538e-11 33.0854 626.478)
(-7.33303e-12 36.3642 626.215)
(1.60489e-11 39.5519 625.929)
(1.38752e-10 42.6231 625.683)
(1.06236e-10 45.2977 625.639)
(7.55833e-11 48.0399 625.915)
(1.62443e-11 51.9901 626.415)
(-2.96582e-11 56.6726 626.132)
(-4.5364e-11 62.4936 621.141)
(-5.52646e-11 68.019 603.382)
(-7.10889e-11 69.7186 564.787)
(-1.06006e-10 67.182 504.99)
(-8.35803e-11 60.3625 422.21)
(-5.07522e-11 48.6387 319.388)
(-2.97612e-11 33.0949 202.565)
(-1.00617e-11 12.1583 71.6089)
(-1.47187e-09 5.19132 627.284)
(-7.93749e-10 7.91094 627.253)
(-4.1958e-10 11.2304 627.208)
(-2.57352e-10 14.4028 627.14)
(-1.52163e-10 17.5986 627.056)
(-6.92014e-11 20.653 626.964)
(-6.4333e-11 23.6958 626.854)
(-5.48344e-11 26.7234 626.699)
(-3.26944e-11 29.8613 626.502)
(-1.64081e-11 33.0984 626.272)
(-1.26066e-11 36.392 626.009)
(-3.60938e-11 39.6053 625.733)
(-1.56399e-10 42.6972 625.486)
(-1.42493e-10 45.376 625.417)
(-1.24002e-10 48.1059 625.655)
(-7.75256e-11 51.9626 626.189)
(-2.92092e-11 56.5556 626.011)
(-6.09028e-11 62.2216 621.196)
(-5.3088e-11 68.1863 603.783)
(-3.61008e-11 70.002 566.226)
(-1.03768e-11 67.4789 506.67)
(-1.91608e-11 60.6692 423.96)
(-3.03377e-11 48.867 320.938)
(-2.47993e-11 33.2722 203.687)
(-9.19926e-12 12.2446 72.0572)
(-1.45929e-09 5.14861 627.076)
(-7.3114e-10 7.88206 627.046)
(-3.59055e-10 11.2315 627.006)
(-2.24268e-10 14.3894 626.953)
(-1.90343e-10 17.5891 626.88)
(-1.79547e-10 20.6547 626.751)
(-1.11413e-10 23.672 626.615)
(-5.41315e-11 26.7061 626.477)
(-3.291e-11 29.8734 626.299)
(-1.65757e-11 33.1232 626.078)
(-8.29956e-12 36.4186 625.819)
(1.51653e-11 39.636 625.552)
(1.16571e-10 42.7389 625.305)
(8.65823e-11 45.4557 625.207)
(5.76587e-11 48.1789 625.414)
(5.27375e-12 52.0148 625.906)
(-1.39718e-10 56.49 625.905)
(-1.83585e-10 62.1433 621.193)
(-5.74133e-11 67.9019 604.198)
(-6.54527e-11 70.0487 567.188)
(-8.29883e-11 67.7734 507.996)
(-6.63923e-11 60.9481 425.428)
(-4.57015e-11 49.0713 322.268)
(-2.87765e-11 33.4054 204.668)
(-9.91441e-12 12.301 72.4725)
(-1.46352e-09 5.1593 626.91)
(-7.84972e-10 7.87317 626.877)
(-4.13131e-10 11.1926 626.835)
(-2.53205e-10 14.3654 626.782)
(-1.51959e-10 17.5944 626.708)
(-7.14114e-11 20.6636 626.612)
(-6.40259e-11 23.682 626.474)
(-5.48636e-11 26.7046 626.301)
(-3.33293e-11 29.8706 626.107)
(-1.76629e-11 33.1341 625.887)
(-1.45682e-11 36.4421 625.635)
(-3.86074e-11 39.6799 625.354)
(-1.43088e-10 42.8197 625.098)
(-1.27092e-10 45.5484 624.984)
(-1.07581e-10 48.2622 625.154)
(-6.01146e-11 51.9806 625.714)
(-3.29083e-11 56.444 625.801)
(2.0072e-11 62.1573 621.25)
(-5.28159e-11 67.894 604.674)
(-3.89498e-11 70.0944 568.129)
(-2.5682e-11 68.0579 509.422)
(-3.00217e-11 61.2879 426.977)
(-3.36127e-11 49.3536 323.665)
(-2.58298e-11 33.5951 205.717)
(-9.42601e-12 12.3731 72.9396)
(-1.44942e-09 5.12412 626.722)
(-7.24261e-10 7.85585 626.681)
(-3.55235e-10 11.2012 626.632)
(-2.23309e-10 14.3604 626.568)
(-1.90699e-10 17.5687 626.5)
(-1.80746e-10 20.6583 626.408)
(-1.13703e-10 23.7112 626.285)
(-5.40469e-11 26.7517 626.133)
(-3.35948e-11 29.9094 625.936)
(-1.77479e-11 33.159 625.699)
(-8.96935e-12 36.4792 625.441)
(1.65352e-11 39.7301 625.164)
(1.10196e-10 42.8819 624.908)
(8.07807e-11 45.661 624.783)
(5.33139e-11 48.3277 624.923)
(-8.65951e-12 51.9489 625.624)
(-3.32823e-11 56.441 625.622)
(-6.13161e-11 62.1835 621.344)
(-5.89974e-11 67.6895 605.295)
(-6.10028e-11 70.054 568.768)
(-7.51816e-11 68.1165 510.399)
(-2.39612e-10 61.5044 428.1)
(-1.86875e-10 49.579 324.714)
(-3.47972e-11 33.7542 206.506)
(-9.86613e-12 12.4278 73.3213)
(-1.4408e-09 5.13807 626.493)
(-7.76891e-10 7.86773 626.455)
(-4.08617e-10 11.1883 626.408)
(-2.50291e-10 14.3495 626.36)
(-1.49668e-10 17.5665 626.285)
(-7.00012e-11 20.6438 626.171)
(-6.17943e-11 23.6928 626.051)
(-5.47765e-11 26.7498 625.905)
(-3.40414e-11 29.9415 625.729)
(-1.90142e-11 33.2072 625.505)
(-1.65355e-11 36.5199 625.242)
(-4.22338e-11 39.7859 624.965)
(-1.4341e-10 42.9738 624.692)
(-1.268e-10 45.7899 624.566)
(-1.06688e-10 48.3438 624.745)
(-6.34387e-11 51.861 625.43)
(-3.20179e-11 56.4224 625.351)
(-3.68296e-11 62.1676 621.398)
(-5.31671e-11 67.8285 605.955)
(-3.89256e-11 70.1912 569.769)
(-2.01845e-11 68.2629 511.604)
(1.09607e-10 61.7438 429.371)
(7.53279e-11 49.8236 325.87)
(-7.85441e-12 33.9416 207.338)
(-6.30011e-12 12.4901 73.6643)
(-1.44339e-09 5.1034 626.273)
(-7.1746e-10 7.84037 626.25)
(-3.51647e-10 11.1742 626.21)
(-2.22242e-10 14.3328 626.147)
(-1.90438e-10 17.5727 626.074)
(-2.0059e-10 20.6662 625.973)
(-1.35181e-10 23.7098 625.839)
(-5.41846e-11 26.7563 625.681)
(-3.44832e-11 29.9406 625.494)
(-1.91587e-11 33.2234 625.282)
(-9.67604e-12 36.5579 625.026)
(1.95328e-11 39.8353 624.744)
(1.12185e-10 43.0309 624.48)
(7.80835e-11 45.8586 624.352)
(4.3308e-11 48.3503 624.549)
(-7.74384e-12 51.8916 625.101)
(-3.17126e-11 56.3774 625.052)
(-3.93769e-11 62.0073 621.418)
(-5.74701e-11 67.8627 606.367)
(-5.91417e-11 70.3851 570.66)
(-7.99682e-11 68.3793 512.743)
(-1.70259e-10 61.9414 430.621)
(-1.22154e-10 50.0207 326.999)
(-4.29661e-11 34.0943 208.141)
(-1.17616e-11 12.5414 73.9919)
(-1.44013e-09 5.04217 626.052)
(-7.68291e-10 7.83339 626.01)
(-4.02699e-10 11.1709 625.963)
(-2.46614e-10 14.3304 625.91)
(-1.4845e-10 17.5424 625.842)
(-7.35305e-11 20.6379 625.742)
(-6.44193e-11 23.7158 625.617)
(-5.51588e-11 26.7805 625.466)
(-3.51482e-11 29.964 625.274)
(-2.09541e-11 33.2377 625.044)
(-1.95603e-11 36.5821 624.794)
(-4.70796e-11 39.8775 624.53)
(-1.41227e-10 43.1004 624.275)
(-1.20201e-10 45.947 624.13)
(-9.11525e-11 48.4429 624.308)
(-4.81808e-11 51.9294 624.747)
(-3.07691e-11 56.2918 624.809)
(-3.72641e-11 61.7351 621.324)
(-5.48812e-11 67.9377 606.63)
(-3.80172e-11 70.6922 571.893)
(-1.7978e-11 68.6181 514.24)
(5.25832e-11 62.1755 432.175)
(2.82772e-11 50.2507 328.359)
(-7.37681e-12 34.2761 209.089)
(-5.63942e-12 12.6082 74.3517)
(-1.41583e-09 5.07053 625.799)
(-7.33733e-10 7.83171 625.77)
(-3.71324e-10 11.1504 625.727)
(-2.21706e-10 14.298 625.672)
(-1.89418e-10 17.5521 625.602)
(-1.75092e-10 20.654 625.498)
(-1.09712e-10 23.7031 625.377)
(-5.45978e-11 26.772 625.228)
(-3.57334e-11 29.9837 625.05)
(-2.09784e-11 33.2671 624.829)
(-1.11076e-11 36.5965 624.574)
(1.91689e-11 39.8965 624.299)
(1.02949e-10 43.1455 624.019)
(7.1369e-11 46.0164 623.862)
(3.55457e-11 48.554 624.016)
(-1.62811e-11 52.0462 624.399)
(-3.01014e-11 56.2377 624.617)
(-3.66975e-11 61.5773 621.175)
(-5.83383e-11 67.7436 606.944)
(-5.67709e-11 70.8029 572.743)
(-7.59367e-11 68.9108 515.535)
(-1.19976e-10 62.4072 433.582)
(-8.35332e-11 50.4442 329.601)
(-3.79241e-11 34.4276 209.96)
(-1.09919e-11 12.666 74.7032)
(-1.4315e-09 5.05613 625.572)
(-7.37486e-10 7.81251 625.54)
(-3.75084e-10 11.1518 625.497)
(-2.42846e-10 14.305 625.442)
(-1.48386e-10 17.5209 625.373)
(-9.83642e-11 20.6239 625.28)
(-8.9155e-11 23.721 625.154)
(-5.55383e-11 26.7965 625.001)
(-3.64336e-11 29.9941 624.816)
(-2.29643e-11 33.2902 624.598)
(-2.2e-11 36.6468 624.342)
(-4.84539e-11 39.9714 624.053)
(-1.31738e-10 43.2438 623.775)
(-1.12746e-10 46.1259 623.618)
(-8.57399e-11 48.6952 623.731)
(-4.24864e-11 52.1033 624.126)
(-2.92488e-11 56.2123 624.454)
(-3.59176e-11 61.554 621.085)
(-5.63512e-11 67.6759 607.364)
(-3.78e-11 70.7346 573.656)
(-2.22629e-11 69.0528 516.882)
(1.34793e-11 62.6271 435.053)
(7.92724e-13 50.669 330.872)
(-1.26131e-11 34.6065 210.826)
(-6.56304e-12 12.7302 75.0366)
(-1.41036e-09 5.01364 625.34)
(-7.26783e-10 7.81541 625.307)
(-3.67029e-10 11.1341 625.261)
(-2.21331e-10 14.2764 625.208)
(-2.08909e-10 17.5347 625.139)
(-1.71816e-10 20.6466 625.031)
(-1.08524e-10 23.7116 624.907)
(-7.72289e-11 26.7976 624.76)
(-3.71886e-11 30.0216 624.572)
(-2.2946e-11 33.3138 624.345)
(-1.26407e-11 36.6699 624.09)
(1.84312e-11 39.9978 623.818)
(9.40538e-11 43.2785 623.546)
(6.3193e-11 46.197 623.387)
(3.23486e-11 48.7835 623.467)
(-1.65418e-11 52.214 623.939)
(-2.86428e-11 56.2164 624.282)
(-3.54039e-11 61.5068 621.036)
(-5.83847e-11 67.539 607.694)
(-5.40036e-11 70.7706 574.428)
(-6.93697e-11 69.1053 518.025)
(-8.97286e-11 62.7548 436.371)
(-6.19565e-11 50.8365 332.039)
(-3.21513e-11 34.751 211.607)
(-1.00906e-11 12.7827 75.3099)
(-1.41202e-09 5.03212 625.105)
(-7.30166e-10 7.80156 625.071)
(-3.70808e-10 11.1358 625.027)
(-2.38349e-10 14.2757 624.969)
(-1.29119e-10 17.5012 624.898)
(-7.96305e-11 20.6138 624.805)
(-6.84923e-11 23.719 624.681)
(-3.49081e-11 26.8085 624.525)
(-3.80937e-11 30.0272 624.343)
(-2.52448e-11 33.3365 624.124)
(-2.49356e-11 36.6945 623.868)
(-5.04497e-11 40.0364 623.584)
(-1.23137e-10 43.3376 623.304)
(-1.03885e-10 46.2979 623.144)
(-8.05096e-11 48.8676 623.22)
(-4.03613e-11 52.1345 623.65)
(-2.74559e-11 56.214 623.931)
(-3.48027e-11 61.5467 620.888)
(-5.7339e-11 67.5536 608.015)
(-3.72012e-11 70.7347 575.525)
(-2.65091e-11 69.1828 519.54)
(-7.7795e-12 62.8967 437.997)
(-1.25426e-11 51.0192 333.465)
(-1.60127e-11 34.905 212.568)
(-7.327e-12 12.8474 75.636)
(-1.40772e-09 5.0048 624.881)
(-7.21894e-10 7.79451 624.849)
(-3.86853e-10 11.1102 624.801)
(-2.44442e-10 14.2442 624.749)
(-2.03783e-10 17.4975 624.679)
(-1.66471e-10 20.611 624.573)
(-1.06297e-10 23.6952 624.45)
(-7.48049e-11 26.7939 624.309)
(-3.86312e-11 30.0255 624.124)
(-2.50503e-11 33.3317 623.898)
(-1.42388e-11 36.705 623.637)
(1.73291e-11 40.0503 623.353)
(8.46239e-11 43.3501 623.074)
(5.50647e-11 46.3455 622.891)
(2.80169e-11 48.9679 622.949)
(-1.52665e-11 52.2522 623.266)
(-2.61033e-11 56.2437 623.388)
(-3.45115e-11 61.4399 620.85)
(-6.01655e-11 67.1626 608.422)
(-5.1422e-11 70.681 576.38)
(-6.38109e-11 69.2265 521.001)
(-7.29002e-11 63.0523 439.683)
(-5.00436e-11 51.1933 334.971)
(-2.83395e-11 35.0247 213.584)
(-1.01934e-11 12.8995 75.9709)
(-1.4058e-09 4.99168 624.666)