/*--------------------------------*- C++ -*----------------------------------*\
| =========                 |                                                 |
| \\      /  F ield         | OpenFOAM: The Open Source CFD Toolbox           |
|  \\    /   O peration     | Version:  2212                                  |
|   \\  /    A nd           | Website:  www.openfoam.com                      |
|    \\/     M anipulation  |                                                 |
\*---------------------------------------------------------------------------*/
FoamFile
{
    version     2.0;
    format      ascii;
    arch        "LSB;label=32;scalar=64";
    class       volScalarField;
    location    "0.0183";
    object      s;
}
// * * * * * * * * * * * * * * * * * * * * * * * * * * * * * * * * * * * * * //

dimensions      [0 0 0 0 0 0 0];

internalField   nonuniform List<scalar> 
24240
(
3.89048e-182
4.06848e-182
3.99465e-182
3.98257e-182
3.96754e-182
4.04303e-182
4.06114e-182
4.09375e-182
3.89695e-182
4.05375e-182
3.97254e-182
4.0733e-182
3.99913e-182
4.05518e-182
3.8602e-182
3.95893e-182
3.9677e-182
4.04999e-182
4.11275e-182
3.97516e-182
3.38551e-178
3.54104e-178
3.47699e-178
3.4651e-178
3.45363e-178
3.51803e-178
3.53426e-178
3.5616e-178
3.39102e-178
3.5288e-178
3.45628e-178
3.54476e-178
3.47905e-178
3.52833e-178
3.35831e-178
3.44626e-178
3.45189e-178
3.52368e-178
3.57825e-178
3.45825e-178
1.87717e-174
1.96376e-174
1.92835e-174
1.92097e-174
1.91553e-174
1.9505e-174
1.95977e-174
1.97432e-174
1.88016e-174
1.95729e-174
1.91602e-174
1.96555e-174
1.92844e-174
1.95605e-174
1.86157e-174
1.91151e-174
1.91347e-174
1.95339e-174
1.98364e-174
1.91694e-174
6.22079e-171
6.50889e-171
6.39194e-171
6.36481e-171
6.34994e-171
6.46326e-171
6.49486e-171
6.54102e-171
6.23048e-171
6.48849e-171
6.34817e-171
6.51393e-171
6.38862e-171
6.48106e-171
6.16728e-171
6.33675e-171
6.33929e-171
6.47194e-171
6.57215e-171
6.35052e-171
1.57237e-167
1.64547e-167
1.61601e-167
1.60846e-167
1.60553e-167
1.63349e-167
1.6417e-167
1.65282e-167
1.57475e-167
1.64056e-167
1.60416e-167
1.6465e-167
1.6142e-167
1.6378e-167
1.55831e-167
1.60217e-167
1.60177e-167
1.63538e-167
1.66071e-167
1.60452e-167
2.84243e-164
2.97509e-164
2.92204e-164
2.90707e-164
2.90336e-164
2.9526e-164
2.96788e-164
2.98696e-164
2.84668e-164
2.96672e-164
2.8992e-164
2.97659e-164
2.91702e-164
2.9601e-164
2.81606e-164
2.89729e-164
2.89458e-164
2.95548e-164
3.00125e-164
2.8993e-164
3.76459e-161
3.94093e-161
3.87093e-161
3.84932e-161
3.8466e-161
3.90998e-161
3.93078e-161
3.95465e-161
3.77015e-161
3.93051e-161
3.83876e-161
3.94247e-161
3.86191e-161
3.91951e-161
3.72831e-161
3.83852e-161
3.83222e-161
3.91302e-161
3.97364e-161
3.83816e-161
3.28329e-158
3.4376e-158
3.37679e-158
3.35627e-158
3.35596e-158
3.40945e-158
3.4281e-158
3.44762e-158
3.28807e-158
3.42907e-158
3.34697e-158
3.4386e-158
3.3668e-158
3.41745e-158
3.25041e-158
3.34893e-158
3.341e-158
3.41158e-158
3.46452e-158
3.34606e-158
1.32709e-155
1.38962e-155
1.36514e-155
1.3561e-155
1.35689e-155
1.37765e-155
1.38538e-155
1.39272e-155
1.32895e-155
1.38633e-155
1.35231e-155
1.38988e-155
1.36017e-155
1.38076e-155
1.31322e-155
1.35405e-155
1.34984e-155
1.37837e-155
1.39983e-155
1.35181e-155
2.03027e-155
2.08306e-155
2.03793e-155
1.98848e-155
2.04581e-155
1.97282e-155
1.97904e-155
1.97991e-155
2.01329e-155
2.03484e-155
2.00497e-155
2.0847e-155
2.01678e-155
1.97321e-155
1.96968e-155
2.01308e-155
2.02967e-155
2.01752e-155
2.06072e-155
2.02073e-155
2.7615e-155
2.78159e-155
2.75827e-155
2.84822e-155
2.83582e-155
2.82105e-155
2.8369e-155
2.82597e-155
2.82188e-155
2.94588e-155
2.77905e-155
2.89757e-155
2.86087e-155
2.78587e-155
2.88174e-155
2.87403e-155
2.8643e-155
2.84645e-155
2.75437e-155
2.83445e-155
3.5315e-155
3.52733e-155
3.51025e-155
3.53263e-155
3.51067e-155
3.44305e-155
3.46491e-155
3.44898e-155
3.4445e-155
3.59645e-155
3.58208e-155
3.54957e-155
3.45889e-155
3.47681e-155
3.49813e-155
3.56594e-155
3.4795e-155
3.5787e-155
3.57151e-155
3.44986e-155
3.87002e-155
4.09114e-155
3.95065e-155
4.06938e-155
4.05442e-155
3.99775e-155
4.06559e-155
4.09273e-155
4.03502e-155
4.02933e-155
4.08821e-155
4.04223e-155
3.91725e-155
3.97846e-155
3.86062e-155
4.01023e-155
3.95555e-155
4.03666e-155
3.95141e-155
3.94393e-155
4.36276e-155
4.44109e-155
4.63683e-155
4.61639e-155
4.54043e-155
4.57665e-155
4.5968e-155
4.5597e-155
4.51978e-155
4.51868e-155
4.50049e-155
4.44961e-155
4.47256e-155
4.3892e-155
4.51453e-155
4.47253e-155
4.53457e-155
4.43683e-155
4.47095e-155
4.45938e-155
4.61634e-155
4.76075e-155
4.72848e-155
4.77823e-155
4.80147e-155
4.66005e-155
4.74693e-155
4.75793e-155
4.71033e-155
4.77204e-155
4.65276e-155
4.74287e-155
4.84462e-155
4.66914e-155
4.65719e-155
4.82424e-155
4.64923e-155
4.65072e-155
4.70416e-155
4.88432e-155
5.0343e-155
5.12402e-155
5.13426e-155
5.01e-155
5.00245e-155
5.03613e-155
5.13903e-155
5.02779e-155
4.89621e-155
5.04801e-155
5.13193e-155
5.1237e-155
5.06692e-155
5.00923e-155
5.28374e-155
5.02966e-155
5.19946e-155
4.9876e-155
5.00006e-155
4.99346e-155
4.53831e-155
4.77702e-155
4.60236e-155
4.74396e-155
4.65552e-155
4.82281e-155
4.75083e-155
4.64332e-155
4.68939e-155
4.78906e-155
4.71315e-155
4.82323e-155
4.89788e-155
4.74043e-155
4.68419e-155
4.7367e-155
4.83054e-155
4.69147e-155
4.94004e-155
4.6594e-155
4.7761e-155
4.87964e-155
4.81336e-155
4.84883e-155
4.8309e-155
4.86265e-155
4.86433e-155
4.77329e-155
4.85719e-155
4.6719e-155
4.74455e-155
4.83717e-155
4.94463e-155
4.93968e-155
4.97565e-155
5.03144e-155
5.05508e-155
4.89303e-155
5.06415e-155
4.93323e-155
3.92282e-155
3.9264e-155
3.87788e-155
4.01552e-155
4.03611e-155
4.00348e-155
4.01014e-155
3.87093e-155
3.97473e-155
4.0378e-155
3.94925e-155
4.0672e-155
3.97713e-155
3.93282e-155
4.08215e-155
4.03993e-155
4.05382e-155
4.17854e-155
4.10698e-155
4.14161e-155
3.50488e-155
3.51386e-155
3.51657e-155
3.48638e-155
3.60817e-155
3.47877e-155
3.67157e-155
3.4748e-155
3.648e-155
3.63044e-155
3.4659e-155
3.61838e-155
3.48275e-155
3.55986e-155
3.52727e-155
3.4704e-155
3.68975e-155
3.67256e-155
3.50784e-155
3.77319e-155
1.98062e-179
2.0716e-179
2.03414e-179
2.02723e-179
2.02047e-179
2.0582e-179
2.06769e-179
2.0837e-179
1.98386e-179
2.06446e-179
2.02204e-179
2.07378e-179
2.03536e-179
2.06419e-179
1.96471e-179
2.01612e-179
2.01943e-179
2.06142e-179
2.09331e-179
2.0231e-179
2.11577e-175
2.21336e-175
2.17346e-175
2.1652e-175
2.15902e-175
2.19849e-175
2.20894e-175
2.22536e-175
2.11918e-175
2.20611e-175
2.15962e-175
2.21541e-175
2.17362e-175
2.20475e-175
2.09825e-175
2.15449e-175
2.15672e-175
2.20171e-175
2.23576e-175
2.16058e-175
1.30166e-171
1.36194e-171
1.33747e-171
1.33183e-171
1.32869e-171
1.35244e-171
1.35905e-171
1.36873e-171
1.30371e-171
1.3577e-171
1.32835e-171
1.36303e-171
1.33683e-171
1.35618e-171
1.29052e-171
1.32595e-171
1.3265e-171
1.35426e-171
1.37521e-171
1.32884e-171
4.65588e-168
4.87234e-168
4.78513e-168
4.76292e-168
4.7541e-168
4.83709e-168
4.86142e-168
4.89443e-168
4.66308e-168
4.85801e-168
4.7503e-168
4.87562e-168
4.78011e-168
4.85006e-168
4.61463e-168
4.74445e-168
4.74334e-168
4.84293e-168
4.91787e-168
4.75154e-168
1.21889e-164
1.27577e-164
1.25302e-164
1.24666e-164
1.24501e-164
1.26619e-164
1.27273e-164
1.28094e-164
1.22072e-164
1.27221e-164
1.24327e-164
1.27644e-164
1.25094e-164
1.26944e-164
1.20765e-164
1.24246e-164
1.24133e-164
1.26748e-164
1.2871e-164
1.24342e-164
2.25967e-161
2.36552e-161
2.32351e-161
2.31065e-161
2.30888e-161
2.34709e-161
2.35957e-161
2.37395e-161
2.26303e-161
2.35933e-161
2.30429e-161
2.3665e-161
2.31824e-161
2.35288e-161
2.23805e-161
2.30417e-161
2.30046e-161
2.34904e-161
2.38541e-161
2.30411e-161
2.9882e-158
3.12867e-158
3.07334e-158
3.05489e-158
3.05433e-158
3.10337e-158
3.12032e-158
3.13819e-158
2.9926e-158
3.12102e-158
3.04635e-158
3.12964e-158
3.06445e-158
3.1107e-158
2.9585e-158
3.04807e-158
3.04094e-158
3.10531e-158
3.15342e-158
3.04553e-158
2.55674e-155
2.67731e-155
2.63016e-155
2.61305e-155
2.61422e-155
2.65475e-155
2.66965e-155
2.68392e-155
2.56046e-155
2.67121e-155
2.60567e-155
2.6779e-155
2.62088e-155
2.66079e-155
2.53033e-155
2.60888e-155
2.60083e-155
2.656e-155
2.69724e-155
2.60467e-155
1.01047e-152
1.05823e-152
1.03968e-152
1.03234e-152
1.03351e-152
1.04886e-152
1.0549e-152
1.0601e-152
1.01188e-152
1.05595e-152
1.02939e-152
1.05836e-152
1.03529e-152
1.05115e-152
9.99573e-153
1.0314e-152
1.02744e-152
1.04925e-152
1.06559e-152
1.02889e-152
1.5405e-152
1.58057e-152
1.54616e-152
1.50842e-152
1.55253e-152
1.49643e-152
1.50156e-152
1.50241e-152
1.52774e-152
1.54419e-152
1.52112e-152
1.58164e-152
1.52976e-152
1.49694e-152
1.49388e-152
1.5278e-152
1.53993e-152
1.53046e-152
1.56305e-152
1.53303e-152
2.09173e-152
2.10734e-152
2.089e-152
2.15773e-152
2.14701e-152
2.13676e-152
2.14906e-152
2.14048e-152
2.13746e-152
2.23229e-152
2.10498e-152
2.19511e-152
2.16708e-152
2.10989e-152
2.18217e-152
2.17671e-152
2.16886e-152
2.15571e-152
2.08668e-152
2.14695e-152
2.66491e-152
2.66264e-152
2.64885e-152
2.66656e-152
2.64839e-152
2.59833e-152
2.61407e-152
2.60189e-152
2.59899e-152
2.71471e-152
2.70327e-152
2.67876e-152
2.61001e-152
2.6242e-152
2.63907e-152
2.69043e-152
2.62416e-152
2.70071e-152
2.69495e-152
2.60334e-152
2.9037e-152
3.07054e-152
2.96494e-152
3.0537e-152
3.04107e-152
2.99977e-152
3.05072e-152
3.07057e-152
3.02794e-152
3.02378e-152
3.06667e-152
3.03342e-152
2.93889e-152
2.98539e-152
2.89595e-152
3.00936e-152
2.96884e-152
3.02812e-152
2.96495e-152
2.95873e-152
3.24762e-152
3.30695e-152
3.45184e-152
3.4366e-152
3.37906e-152
3.40777e-152
3.42153e-152
3.39462e-152
3.36482e-152
3.36337e-152
3.34947e-152
3.31194e-152
3.32913e-152
3.26628e-152
3.35909e-152
3.32804e-152
3.37408e-152
3.30261e-152
3.32759e-152
3.31976e-152
3.40986e-152
3.51647e-152
3.49208e-152
3.52981e-152
3.54603e-152
3.44215e-152
3.50508e-152
3.51457e-152
3.47846e-152
3.52431e-152
3.43605e-152
3.50234e-152
3.57876e-152
3.44861e-152
3.43862e-152
3.56367e-152
3.43346e-152
3.43503e-152
3.474e-152
3.60828e-152
3.6564e-152
3.72289e-152
3.7301e-152
3.63888e-152
3.63389e-152
3.65758e-152
3.73271e-152
3.65179e-152
3.55583e-152
3.66599e-152
3.72732e-152
3.72176e-152
3.67986e-152
3.63918e-152
3.83838e-152
3.65343e-152
3.77672e-152
3.6226e-152
3.63197e-152
3.62745e-152
3.27571e-152
3.44871e-152
3.32267e-152
3.4261e-152
3.36194e-152
3.48268e-152
3.43045e-152
3.35261e-152
3.38601e-152
3.45741e-152
3.40235e-152
3.48222e-152
3.5368e-152
3.42344e-152
3.38216e-152
3.42073e-152
3.48925e-152
3.38667e-152
3.56718e-152
3.3651e-152
3.347e-152
3.42102e-152
3.37401e-152
3.3985e-152
3.3855e-152
3.40847e-152
3.40995e-152
3.34551e-152
3.40489e-152
3.27449e-152
3.32507e-152
3.39129e-152
3.46431e-152
3.46309e-152
3.48796e-152
3.52712e-152
3.54417e-152
3.42999e-152
3.5492e-152
3.45858e-152
2.75167e-152
2.75417e-152
2.7197e-152
2.81663e-152
2.83164e-152
2.80901e-152
2.81309e-152
2.7154e-152
2.7884e-152
2.83189e-152
2.77071e-152
2.85366e-152
2.79016e-152
2.75961e-152
2.86497e-152
2.83469e-152
2.84382e-152
2.93106e-152
2.88131e-152
2.90612e-152
2.33289e-152
2.33901e-152
2.34038e-152
2.32041e-152
2.40161e-152
2.31604e-152
2.44522e-152
2.3129e-152
2.42941e-152
2.41721e-152
2.30799e-152
2.41013e-152
2.31851e-152
2.37059e-152
2.34921e-152
2.3104e-152
2.45652e-152
2.44535e-152
2.33582e-152
2.5129e-152
1.17504e-176
1.22923e-176
1.20708e-176
1.20252e-176
1.19906e-176
1.22101e-176
1.2268e-176
1.23593e-176
1.17693e-176
1.22521e-176
1.19939e-176
1.23036e-176
1.20716e-176
1.22444e-176
1.16529e-176
1.19649e-176
1.19774e-176
1.22272e-176
1.24161e-176
1.19986e-176
1.46632e-172
1.53422e-172
1.50667e-172
1.50036e-172
1.49678e-172
1.52358e-172
1.53103e-172
1.54194e-172
1.46866e-172
1.52949e-172
1.49643e-172
1.53548e-172
1.50599e-172
1.52779e-172
1.45381e-172
1.49369e-172
1.49432e-172
1.52559e-172
1.54916e-172
1.49692e-172
9.63832e-169
1.00864e-168
9.90591e-169
9.86021e-169
9.8417e-169
1.00138e-168
1.00642e-168
1.01326e-168
9.65341e-169
1.0057e-168
9.83406e-169
1.00934e-168
9.89585e-169
1.00407e-168
9.55326e-169
9.82182e-169
9.81962e-169
1.00258e-168
1.01808e-168
9.83652e-169
3.60236e-165
3.77048e-165
3.70326e-165
3.68457e-165
3.67958e-165
3.74235e-165
3.7617e-165
3.78602e-165
3.60792e-165
3.76014e-165
3.67466e-165
3.77266e-165
3.69738e-165
3.75211e-165
3.56947e-165
3.6723e-165
3.66903e-165
3.74634e-165
3.80429e-165
3.67522e-165
9.53969e-162
9.98655e-162
9.8092e-162
9.75531e-162
9.74738e-162
9.90923e-162
9.96187e-162
1.00227e-161
9.55399e-162
9.96066e-162
9.72841e-162
9.99091e-162
9.78746e-162
9.93391e-162
9.44902e-162
9.72796e-162
9.71254e-162
9.91787e-162
1.00714e-161
9.72845e-162
1.78732e-158
1.87134e-158
1.83825e-158
1.82731e-158
1.82686e-158
1.85633e-158
1.86646e-158
1.87719e-158
1.78997e-158
1.86683e-158
1.82218e-158
1.87197e-158
1.83305e-158
1.86077e-158
1.76969e-158
1.82323e-158
1.81902e-158
1.85759e-158
1.88635e-158
1.82184e-158
2.32276e-155
2.43233e-155
2.38951e-155
2.37414e-155
2.37498e-155
2.41209e-155
2.42562e-155
2.43865e-155
2.32618e-155
2.42689e-155
2.36738e-155
2.43291e-155
2.38123e-155
2.41762e-155
2.29896e-155
2.37025e-155
2.363e-155
2.41323e-155
2.45063e-155
2.36648e-155
1.94751e-152
2.03964e-152
2.0039e-152
1.98999e-152
1.99197e-152
2.02197e-152
2.03362e-152
2.04375e-152
1.95034e-152
2.03543e-152
1.98426e-152
2.03998e-152
1.99566e-152
2.02644e-152
1.92676e-152
1.98803e-152
1.98042e-152
2.02261e-152
2.05403e-152
1.98327e-152
7.52082e-150
7.87739e-150
7.73997e-150
7.68186e-150
7.69498e-150
7.80567e-150
7.85178e-150
7.88761e-150
7.53135e-150
7.86205e-150
7.65949e-150
7.87797e-150
7.70271e-150
7.82227e-150
7.43714e-150
7.67972e-150
7.64437e-150
7.80734e-150
7.92905e-150
7.65489e-150
1.14238e-149
1.1721e-149
1.14647e-149
1.11831e-149
1.15148e-149
1.10934e-149
1.11345e-149
1.11423e-149
1.13301e-149
1.14528e-149
1.12788e-149
1.17276e-149
1.13403e-149
1.10989e-149
1.10732e-149
1.13323e-149
1.14188e-149
1.13467e-149
1.15867e-149
1.13667e-149
1.54857e-149
1.56044e-149
1.54634e-149
1.59767e-149
1.58874e-149
1.58186e-149
1.59118e-149
1.58461e-149
1.58242e-149
1.6533e-149
1.55836e-149
1.62534e-149
1.60441e-149
1.5618e-149
1.61504e-149
1.61131e-149
1.60511e-149
1.59565e-149
1.5451e-149
1.58941e-149
1.96606e-149
1.96506e-149
1.95421e-149
1.9679e-149
1.95329e-149
1.91707e-149
1.92813e-149
1.91902e-149
1.91724e-149
2.00342e-149
1.99451e-149
1.97645e-149
1.92551e-149
1.93647e-149
1.94652e-149
1.98455e-149
1.93488e-149
1.99263e-149
1.98812e-149
1.92069e-149
2.13174e-149
2.25491e-149
2.17725e-149
2.24216e-149
2.23183e-149
2.20246e-149
2.2399e-149
2.25406e-149
2.22328e-149
2.2203e-149
2.25082e-149
2.22734e-149
2.15738e-149
2.19194e-149
2.12552e-149
2.20962e-149
2.18028e-149
2.22258e-149
2.17682e-149
2.17182e-149
2.36678e-149
2.41076e-149
2.51573e-149
2.5046e-149
2.46196e-149
2.48418e-149
2.49326e-149
2.47421e-149
2.45242e-149
2.45087e-149
2.44048e-149
2.41338e-149
2.42597e-149
2.37959e-149
2.44685e-149
2.42439e-149
2.45785e-149
2.40672e-149
2.4246e-149
2.41949e-149
2.47113e-149
2.54834e-149
2.53028e-149
2.55834e-149
2.56939e-149
2.49453e-149
2.53922e-149
2.54712e-149
2.52024e-149
2.55367e-149
2.48957e-149
2.53743e-149
2.59374e-149
2.49905e-149
2.49092e-149
2.58279e-149
2.48772e-149
2.48921e-149
2.51708e-149
2.61527e-149
2.61074e-149
2.65915e-149
2.66415e-149
2.5983e-149
2.59512e-149
2.61147e-149
2.6654e-149
2.60755e-149
2.53873e-149
2.6173e-149
2.66136e-149
2.65771e-149
2.62732e-149
2.59916e-149
2.74123e-149
2.60893e-149
2.69688e-149
2.58669e-149
2.59359e-149
2.5906e-149
2.33091e-149
2.45438e-149
2.36484e-149
2.43921e-149
2.39344e-149
2.4792e-149
2.44187e-149
2.3863e-149
2.4103e-149
2.46075e-149
2.4212e-149
2.47834e-149
2.51766e-149
2.43737e-149
2.40751e-149
2.43543e-149
2.48473e-149
2.41014e-149
2.53953e-149
2.39596e-149
2.32784e-149
2.38036e-149
2.34726e-149
2.36404e-149
2.35467e-149
2.37119e-149
2.37242e-149
2.32716e-149
2.36886e-149
2.27774e-149
2.31275e-149
2.35974e-149
2.40886e-149
2.40964e-149
2.42666e-149
2.45395e-149
2.46615e-149
2.3863e-149
2.46871e-149
2.40649e-149
1.92031e-149
1.92205e-149
1.89768e-149
1.96559e-149
1.97646e-149
1.96085e-149
1.96327e-149
1.89508e-149
1.94617e-149
1.97596e-149
1.93395e-149
1.99196e-149
1.94744e-149
1.92651e-149
2.00047e-149
1.97885e-149
1.98479e-149
2.04548e-149
2.0111e-149
2.02878e-149
1.59922e-149
1.60353e-149
1.60416e-149
1.59056e-149
1.64631e-149
1.58804e-149
1.67718e-149
1.58554e-149
1.66627e-149
1.65753e-149
1.58291e-149
1.65336e-149
1.58962e-149
1.62585e-149
1.61141e-149
1.58414e-149
1.68437e-149
1.67692e-149
1.60193e-149
1.72361e-149
8.76914e-174
9.17522e-174
9.01044e-174
8.97287e-174
8.9513e-174
9.11178e-174
9.15627e-174
9.22159e-174
8.78315e-174
9.14689e-174
8.94922e-174
9.18259e-174
9.00631e-174
9.1367e-174
8.69418e-174
8.93254e-174
8.93634e-174
9.12332e-174
9.26415e-174
8.95173e-174
1.13272e-169
1.18538e-169
1.16417e-169
1.15883e-169
1.15663e-169
1.17689e-169
1.1828e-169
1.19086e-169
1.13452e-169
1.18195e-169
1.15576e-169
1.18622e-169
1.16302e-169
1.18005e-169
1.12276e-169
1.15429e-169
1.15405e-169
1.17828e-169
1.19647e-169
1.156e-169
7.48541e-166
7.83474e-166
7.69508e-166
7.65647e-166
7.6459e-166
7.77657e-166
7.81676e-166
7.86738e-166
7.49708e-166
7.81342e-166
7.63585e-166
7.83941e-166
7.6831e-166
7.79687e-166
7.41731e-166
7.63083e-166
7.62411e-166
7.78477e-166
7.90506e-166
7.6369e-166
2.84732e-162
2.9807e-162
2.92778e-162
2.9118e-162
2.90934e-162
2.95778e-162
2.97349e-162
2.99172e-162
2.8517e-162
2.97312e-162
2.90383e-162
2.98216e-162
2.92152e-162
2.96527e-162
2.82052e-162
2.90373e-162
2.89918e-162
2.9605e-162
3.00628e-162
2.90396e-162
7.50035e-159
7.85294e-159
7.71409e-159
7.66848e-159
7.66625e-159
7.79033e-159
7.83283e-159
7.87799e-159
7.51158e-159
7.8342e-159
7.64695e-159
7.85575e-159
7.69268e-159
7.80917e-159
7.42685e-159
7.6514e-159
7.63393e-159
7.79596e-159
7.91663e-159
7.64613e-159
1.39947e-155
1.46549e-155
1.4397e-155
1.43051e-155
1.43093e-155
1.45339e-155
1.46154e-155
1.46942e-155
1.40155e-155
1.46227e-155
1.42642e-155
1.46588e-155
1.4348e-155
1.45677e-155
1.38524e-155
1.42817e-155
1.42385e-155
1.45416e-155
1.47668e-155
1.426e-155
1.77514e-152
1.85915e-152
1.82659e-152
1.81404e-152
1.81568e-152
1.84324e-152
1.85385e-152
1.86314e-152
1.77776e-152
1.8554e-152
1.80877e-152
1.85949e-152
1.8192e-152
1.84735e-152
1.75638e-152
1.81217e-152
1.80529e-152
1.84383e-152
1.87242e-152
1.80788e-152
1.45643e-149
1.52555e-149
1.49896e-149
1.48788e-149
1.49021e-149
1.51198e-149
1.5209e-149
1.52791e-149
1.45856e-149
1.52274e-149
1.48351e-149
1.52573e-149
1.49191e-149
1.51522e-149
1.44043e-149
1.48735e-149
1.48053e-149
1.51221e-149
1.53572e-149
1.4826e-149
5.49274e-147
5.75389e-147
5.65408e-147
5.60905e-147
5.62188e-147
5.70012e-147
5.73462e-147
5.75861e-147
5.50045e-147
5.74397e-147
5.59235e-147
5.75412e-147
5.62344e-147
5.71189e-147
5.42968e-147
5.61109e-147
5.58089e-147
5.70042e-147
5.78937e-147
5.58835e-147
8.31089e-147
8.52705e-147
8.33986e-147
8.13376e-147
8.37838e-147
8.06788e-147
8.10001e-147
8.10681e-147
8.24331e-147
8.33302e-147
8.20434e-147
8.53095e-147
8.2472e-147
8.07321e-147
8.05211e-147
8.24635e-147
8.30671e-147
8.25276e-147
8.42614e-147
8.26805e-147
1.12485e-146
1.13371e-146
1.12308e-146
1.16069e-146
1.15347e-146
1.14901e-146
1.15593e-146
1.151e-146
1.14945e-146
1.20142e-146
1.13196e-146
1.1808e-146
1.16545e-146
1.13431e-146
1.17277e-146
1.1703e-146
1.16552e-146
1.15885e-146
1.12253e-146
1.15449e-146
1.42369e-146
1.42346e-146
1.41512e-146
1.42549e-146
1.41402e-146
1.38832e-146
1.39592e-146
1.38922e-146
1.38821e-146
1.4512e-146
1.44441e-146
1.43133e-146
1.3943e-146
1.4026e-146
1.4092e-146
1.43685e-146
1.4003e-146
1.44304e-146
1.43959e-146
1.39089e-146
1.53769e-146
1.62704e-146
1.57092e-146
1.61756e-146
1.60932e-146
1.58885e-146
1.61589e-146
1.62578e-146
1.60396e-146
1.60187e-146
1.62317e-146
1.6069e-146
1.55604e-146
1.58126e-146
1.53281e-146
1.59408e-146
1.57323e-146
1.60283e-146
1.57028e-146
1.56637e-146
1.696e-146
1.72806e-146
1.8028e-146
1.79481e-146
1.76376e-146
1.78064e-146
1.78642e-146
1.7732e-146
1.75755e-146
1.75604e-146
1.74842e-146
1.7292e-146
1.73825e-146
1.7046e-146
1.75252e-146
1.73654e-146
1.76045e-146
1.72452e-146
1.73708e-146
1.73387e-146
1.76467e-146
1.81976e-146
1.80661e-146
1.82714e-146
1.83453e-146
1.78138e-146
1.81262e-146
1.81902e-146
1.7993e-146
1.82333e-146
1.77743e-146
1.81149e-146
1.85236e-146
1.7845e-146
1.77803e-146
1.84456e-146
1.77613e-146
1.77746e-146
1.7971e-146
1.86792e-146
1.84174e-146
1.87653e-146
1.87996e-146
1.83298e-146
1.83103e-146
1.84215e-146
1.88041e-146
1.83956e-146
1.79079e-146
1.84614e-146
1.87739e-146
1.87508e-146
1.8533e-146
1.83407e-146
1.93414e-146
1.84068e-146
1.90265e-146
1.82482e-146
1.82984e-146
1.8279e-146
1.6427e-146
1.73005e-146
1.66699e-146
1.72002e-146
1.68761e-146
1.74801e-146
1.7216e-146
1.68232e-146
1.6993e-146
1.73467e-146
1.70654e-146
1.74704e-146
1.77508e-146
1.7187e-146
1.69736e-146
1.71737e-146
1.75244e-146
1.69872e-146
1.79063e-146
1.68965e-146
1.61509e-146
1.65228e-146
1.62903e-146
1.64047e-146
1.63376e-146
1.64559e-146
1.64658e-146
1.61489e-146
1.6441e-146
1.58058e-146
1.60475e-146
1.638e-146
1.67088e-146
1.67262e-146
1.6842e-146
1.70317e-146
1.71188e-146
1.65619e-146
1.71298e-146
1.67041e-146
1.33873e-146
1.33995e-146
1.32273e-146
1.37026e-146
1.37811e-146
1.36738e-146
1.36874e-146
1.32119e-146
1.35692e-146
1.37726e-146
1.3485e-146
1.38901e-146
1.35784e-146
1.34353e-146
1.39538e-146
1.37997e-146
1.38381e-146
1.42595e-146
1.40225e-146
1.41483e-146
1.10443e-146
1.10751e-146
1.10772e-146
1.09838e-146
1.13694e-146
1.09698e-146
1.15895e-146
1.09502e-146
1.15137e-146
1.14506e-146
1.09372e-146
1.14267e-146
1.09799e-146
1.1234e-146
1.11358e-146
1.09427e-146
1.16353e-146
1.15854e-146
1.10682e-146
1.19104e-146
7.02703e-171
7.35371e-171
7.22214e-171
7.18915e-171
7.17536e-171
7.30121e-171
7.33789e-171
7.38791e-171
7.0382e-171
7.33244e-171
7.16996e-171
7.35888e-171
7.21501e-171
7.32065e-171
6.96517e-171
7.16068e-171
7.15917e-171
7.30948e-171
7.42224e-171
7.1712e-171
9.13445e-167
9.56074e-167
9.39035e-167
9.34348e-167
9.33038e-167
9.49012e-167
9.53916e-167
9.60103e-167
9.14891e-167
9.53497e-167
9.31833e-167
9.56665e-167
9.37604e-167
9.51491e-167
9.05167e-167
9.31203e-167
9.30392e-167
9.49996e-167
9.64657e-167
9.3193e-167
5.96209e-163
6.24136e-163
6.13057e-163
6.09728e-163
6.09198e-163
6.1936e-163
6.2265e-163
6.26472e-163
5.97136e-163
6.22564e-163
6.08059e-163
6.24454e-163
6.11765e-163
6.20931e-163
5.90617e-163
6.08028e-163
6.07081e-163
6.19922e-163
6.29499e-163
6.08075e-163
2.27234e-159
2.37916e-159
2.33711e-159
2.32337e-159
2.32263e-159
2.36032e-159
2.3732e-159
2.38693e-159
2.27583e-159
2.37361e-159
2.3169e-159
2.38015e-159
2.33081e-159
2.36614e-159
2.25029e-159
2.31828e-159
2.31303e-159
2.36214e-159
2.39867e-159
2.31675e-159
5.89621e-156
6.17435e-156
6.06569e-156
6.02723e-156
6.02871e-156
6.12369e-156
6.15799e-156
6.19131e-156
5.90505e-156
6.16093e-156
6.00999e-156
6.17614e-156
6.0454e-156
6.13808e-156
5.83663e-156
6.01739e-156
5.99932e-156
6.12718e-156
6.22205e-156
6.00868e-156
1.07895e-152
1.13001e-152
1.11022e-152
1.10266e-152
1.10358e-152
1.12042e-152
1.12687e-152
1.13254e-152
1.08056e-152
1.12778e-152
1.09944e-152
1.13025e-152
1.10581e-152
1.12296e-152
1.06764e-152
1.10153e-152
1.09738e-152
1.12084e-152
1.13821e-152
1.09899e-152
1.33539e-149
1.39879e-149
1.37442e-149
1.36437e-149
1.36636e-149
1.3865e-149
1.39468e-149
1.40114e-149
1.33737e-149
1.39628e-149
1.36032e-149
1.39898e-149
1.36805e-149
1.3895e-149
1.32084e-149
1.36382e-149
1.3576e-149
1.38672e-149
1.40823e-149
1.35949e-149
1.07071e-146
1.12167e-146
1.10223e-146
1.09359e-146
1.09592e-146
1.11143e-146
1.11815e-146
1.12288e-146
1.07228e-146
1.11986e-146
1.0903e-146
1.12177e-146
1.09638e-146
1.11375e-146
1.05858e-146
1.0939e-146
1.08802e-146
1.11142e-146
1.12871e-146
1.08951e-146
3.94172e-144
4.12962e-144
4.05841e-144
4.02421e-144
4.03579e-144
4.09003e-144
4.11538e-144
4.131e-144
3.94727e-144
4.12345e-144
4.01195e-144
4.1297e-144
4.03392e-144
4.09825e-144
3.89502e-144
4.02833e-144
4.00341e-144
4.08957e-144
4.15346e-144
4.00861e-144
5.93978e-144
6.09421e-144
5.9599e-144
5.81172e-144
5.9889e-144
5.76423e-144
5.78879e-144
5.7944e-144
5.89187e-144
5.95627e-144
5.86285e-144
6.09632e-144
5.8921e-144
5.76899e-144
5.75209e-144
5.89511e-144
5.93641e-144
5.89678e-144
6.01968e-144
5.90822e-144
8.02812e-144
8.0932e-144
8.01449e-144
8.28518e-144
8.22825e-144
8.20043e-144
8.25088e-144
8.21448e-144
8.20366e-144
8.57814e-144
8.07892e-144
8.42883e-144
8.31816e-144
8.09465e-144
8.36741e-144
8.3516e-144
8.31544e-144
8.26928e-144
8.01307e-144
8.23939e-144
1.01331e-143
1.01352e-143
1.00723e-143
1.01494e-143
1.00614e-143
9.88225e-144
9.93336e-144
9.88493e-144
9.8798e-144
1.03323e-143
1.02815e-143
1.01884e-143
9.92385e-144
9.98559e-144
1.00276e-143
1.02252e-143
9.96091e-144
1.02717e-143
1.02458e-143
9.90018e-144
1.09136e-143
1.15513e-143
1.11523e-143
1.14821e-143
1.14178e-143
1.1278e-143
1.14701e-143
1.15377e-143
1.13857e-143
1.13712e-143
1.15172e-143
1.14066e-143
1.10428e-143
1.12238e-143
1.08762e-143
1.13153e-143
1.11698e-143
1.1373e-143
1.11453e-143
1.11155e-143
1.19674e-143
1.21974e-143
1.27213e-143
1.26648e-143
1.24423e-143
1.25682e-143
1.26037e-143
1.25137e-143
1.24029e-143
1.23893e-143
1.23343e-143
1.22001e-143
1.2264e-143
1.20237e-143
1.23597e-143
1.22479e-143
1.24162e-143
1.21676e-143
1.22545e-143
1.22352e-143
1.24314e-143
1.28192e-143
1.2725e-143
1.2873e-143
1.29217e-143
1.25492e-143
1.27644e-143
1.28151e-143
1.26726e-143
1.28427e-143
1.25184e-143
1.27575e-143
1.30502e-143
1.25705e-143
1.25201e-143
1.29958e-143
1.25095e-143
1.25207e-143
1.26572e-143
1.31609e-143
1.28446e-143
1.30916e-143
1.31149e-143
1.27835e-143
1.27721e-143
1.28467e-143
1.31151e-143
1.283e-143
1.24882e-143
1.28736e-143
1.30927e-143
1.30785e-143
1.29242e-143
1.27947e-143
1.34912e-143
1.28388e-143
1.32702e-143
1.27268e-143
1.27629e-143
1.27507e-143
1.14673e-143
1.20794e-143
1.16395e-143
1.20142e-143
1.17868e-143
1.2208e-143
1.20232e-143
1.17481e-143
1.18671e-143
1.21126e-143
1.19144e-143
1.21988e-143
1.23968e-143
1.20048e-143
1.18534e-143
1.19953e-143
1.22427e-143
1.18596e-143
1.25061e-143
1.18025e-143
1.11474e-143
1.14091e-143
1.12468e-143
1.13243e-143
1.12764e-143
1.13608e-143
1.13686e-143
1.11479e-143
1.13513e-143
1.0911e-143
1.1077e-143
1.1311e-143
1.15293e-143
1.15499e-143
1.1628e-143
1.17593e-143
1.18211e-143
1.14347e-143
1.18239e-143
1.15345e-143
9.29465e-144
9.30315e-144
9.18184e-144
9.51315e-144
9.56961e-144
9.49614e-144
9.50324e-144
9.17309e-144
9.42204e-144
9.56001e-144
9.36414e-144
9.64586e-144
9.4286e-144
9.3312e-144
9.69326e-144
9.58377e-144
9.60834e-144
9.89976e-144
9.73711e-144
9.82626e-144
7.62778e-144
7.64979e-144
7.64959e-144
7.58556e-144
7.85231e-144
7.57828e-144
8.00901e-144
7.56311e-144
7.95649e-144
7.9108e-144
7.55773e-144
7.89788e-144
7.58474e-144
7.76287e-144
7.69611e-144
7.55949e-144
8.03792e-144
8.00468e-144
7.64796e-144
8.23087e-144
5.8472e-168
6.12007e-168
6.01101e-168
5.98112e-168
5.97262e-168
6.07499e-168
6.10637e-168
6.146e-168
5.85645e-168
6.10358e-168
5.9649e-168
6.12378e-168
6.00182e-168
6.0907e-168
5.79413e-168
5.96069e-168
5.95552e-168
6.081e-168
6.17476e-168
5.96527e-168
7.53311e-164
7.88596e-164
7.74601e-164
7.70416e-164
7.69728e-164
7.82591e-164
7.86747e-164
7.91585e-164
7.54499e-164
7.8663e-164
7.68306e-164
7.89014e-164
7.72993e-164
7.84576e-164
7.4627e-164
7.68253e-164
7.67063e-164
7.83286e-164
7.95372e-164
7.683e-164
4.80742e-160
5.03341e-160
4.94446e-160
4.91554e-160
4.91383e-160
4.99374e-160
5.02098e-160
5.05007e-160
4.81489e-160
5.02178e-160
4.90183e-160
5.03558e-160
4.93127e-160
5.00604e-160
4.76091e-160
4.90466e-160
4.89359e-160
4.99752e-160
5.07472e-160
4.90141e-160
1.81038e-156
1.89578e-156
1.86243e-156
1.85069e-156
1.85108e-156
1.88033e-156
1.89087e-156
1.90113e-156
1.81317e-156
1.89177e-156
1.84544e-156
1.89644e-156
1.85635e-156
1.88484e-156
1.79226e-156
1.84773e-156
1.84222e-156
1.8815e-156
1.9106e-156
1.84511e-156
4.57908e-153
4.7958e-153
4.71182e-153
4.6799e-153
4.68361e-153
4.75535e-153
4.78269e-153
4.80682e-153
4.58597e-153
4.78644e-153
4.66625e-153
4.79694e-153
4.69335e-153
4.76622e-153
4.53138e-153
4.67513e-153
4.65762e-153
4.75734e-153
4.83102e-153
4.66472e-153
8.19749e-150
8.58668e-150
8.43711e-150
8.37586e-150
8.3876e-150
8.51185e-150
8.56204e-150
8.60191e-150
8.20978e-150
8.57163e-150
8.35096e-150
8.58816e-150
8.39861e-150
8.53055e-150
8.10887e-150
8.37257e-150
8.33462e-150
8.51369e-150
8.64569e-150
8.34661e-150
9.89541e-147
1.03665e-146
1.0187e-146
1.01079e-146
1.01285e-146
1.02731e-146
1.03352e-146
1.03792e-146
9.91016e-147
1.03504e-146
1.00772e-146
1.03677e-146
1.01337e-146
1.02947e-146
9.78419e-147
1.01103e-146
1.00563e-146
1.02731e-146
1.04326e-146
1.007e-146
7.74505e-144
8.11465e-144
7.97487e-144
7.90865e-144
7.9302e-144
8.03867e-144
8.08847e-144
8.11952e-144
7.75646e-144
8.10348e-144
7.88433e-144
8.11522e-144
7.92767e-144
8.05499e-144
7.65448e-144
7.91615e-144
7.86724e-144
8.03729e-144
8.16244e-144
7.87768e-144
2.78205e-141
2.91499e-141
2.86505e-141
2.83955e-141
2.84944e-141
2.88636e-141
2.90465e-141
2.91454e-141
2.78599e-141
2.91133e-141
2.8307e-141
2.91504e-141
2.84597e-141
2.892e-141
2.74805e-141
2.84439e-141
2.82444e-141
2.88555e-141
2.93068e-141
2.82801e-141
4.17455e-141
4.28301e-141
4.18828e-141
4.08351e-141
4.20967e-141
4.04987e-141
4.06824e-141
4.0727e-141
4.14112e-141
4.18657e-141
4.11991e-141
4.28402e-141
4.13947e-141
4.05389e-141
4.04065e-141
4.14421e-141
4.17192e-141
4.1433e-141
4.22889e-141
4.1517e-141
5.63548e-141
5.68251e-141
5.62522e-141
5.81681e-141
5.77302e-141
5.75639e-141
5.79249e-141
5.76614e-141
5.75871e-141
6.02407e-141
5.67124e-141
5.91777e-141
5.83924e-141
5.6815e-141
5.87167e-141
5.86194e-141
5.83509e-141
5.80369e-141
5.626e-141
5.78356e-141
7.09554e-141
7.09956e-141
7.05302e-141
7.10943e-141
7.04323e-141
6.92047e-141
6.95419e-141
6.9197e-141
6.9176e-141
7.23745e-141
7.20003e-141
7.13488e-141
6.949e-141
6.99408e-141
7.01993e-141
7.15889e-141
6.97089e-141
7.19314e-141
7.17404e-141
6.93284e-141
7.62799e-141
8.0762e-141
7.79678e-141
8.0264e-141
7.97724e-141
7.88361e-141
8.01796e-141
8.06334e-141
7.95917e-141
7.94927e-141
8.04764e-141
7.97369e-141
7.71747e-141
7.8453e-141
7.59978e-141
7.90967e-141
7.80973e-141
7.94681e-141