/*--------------------------------*- C++ -*----------------------------------*\
| =========                 |                                                 |
| \\      /  F ield         | OpenFOAM: The Open Source CFD Toolbox           |
|  \\    /   O peration     | Version:  2212                                  |
|   \\  /    A nd           | Website:  www.openfoam.com                      |
|    \\/     M anipulation  |                                                 |
\*---------------------------------------------------------------------------*/
FoamFile
{
    version     2.0;
    format      ascii;
    arch        "LSB;label=32;scalar=64";
    class       volScalarField;
    location    "0.004";
    object      k;
}
// * * * * * * * * * * * * * * * * * * * * * * * * * * * * * * * * * * * * * //

dimensions      [0 2 -2 0 0 0 0];

internalField   nonuniform List<scalar> 
44662
(
458.34
489.048
489.165
489.057
489.113
474.516
467.307
476.285
490.284
480.656
472.045
419.272
468.226
454.913
394.388
429.868
338.603
334.251
449.615
463.843
484.053
333.632
484.526
485.8
385.331
449.101
467.531
479.751
466.65
480.547
273.811
470.626
240.29
480.1
1442.44
485.665
448.7
436.958
449.836
488.9
487.74
457.66
420.597
466.027
483.335
461.685
440.764
481.166
474.302
472.89
489.708
428.456
455.793
417.9
480.926
463.138
456.406
439.898
475.88
476.768
469.016
438.251
477.603
443.757
484.494
472.522
445.442
395.301
439.916
480.913
427.992
454.651
415.368
473.709
480.302
479.725
472.037
476.262
477.238
443.337
461.827
479.76
489.941
473.132
461.666
490.322
479.249
489.034
470.534
469.542
478.272
478.737
483.805
473.643
482.241
471.043
472.515
480.721
484.742
487.763
481.061
489.16
468.688
464.361
468.009
476.614
467.734
463.694
488.946
466.049
467.534
487.012
489.173
486.086
478.356
467.453
477.603
490.255
451.558
467.438
483.722
468.953
480.155
467.185
469.789
499.381
467.016
470.583
489.657
466.97
471.339
480.667
474.363
479.162
467.021
472.057
479.675
479.908
467.066
472.733
480.197
467.123
455.791
448.556
467.217
489.762
490.04
490.128
496.879
487.993
489.256
489.462
468.985
404.302
492.023
494.297
486.321
481.407
481.746
482.085
482.422
482.757
483.092
483.427
483.764
484.103
484.445
484.791
485.14
485.493
485.849
486.208
486.571
486.938
487.309
487.684
488.063
488.446
488.834
489.227
489.625
490.03
490.442
490.86
491.286
491.72
492.163
492.616
493.079
493.554
494.04
494.539
495.051
495.575
496.112
496.662
497.225
497.802
498.393
498.997
499.614
500.246
500.892
501.553
502.229
502.924
502.237
502.931
501.561
424.219
481.069
481.414
481.078
503.636
504.366
504.371
503.642
500.253
500.899
499.003
499.621
497.808
498.399
496.668
497.231
495.58
496.117
494.544
495.056
493.558
494.045
492.619
493.083
491.722
492.166
490.861
491.287
490.031
490.442
489.227
489.626
488.446
488.834
487.684
488.063
486.939
487.31
486.209
486.572
485.494
485.849
484.792
485.141
484.104
484.447
483.428
483.765
482.757
483.092
482.082
482.42
481.742
482.088
481.75
482.758
482.423
483.427
483.092
484.102
483.763
484.791
484.445
485.494
485.141
486.211
485.851
486.942
486.575
487.688
487.313
488.45
488.067
489.231
488.838
490.035
489.63
490.865
490.446
491.725
491.291
492.622
492.169
493.56
493.085
494.546
494.047
495.582
495.058
496.67
496.12
497.811
497.234
499.007
498.402
500.258
499.625
501.567
500.905
502.939
502.244
504.38
503.651
502.261
502.955
501.584
441.299
426.021
481.42
481.086
505.118
504.395
505.143
504.413
505.126
505.159
480.742
480.731
503.666
500.276
500.923
499.024
499.643
497.828
498.419
496.686
497.25
495.596
496.135
494.559
495.071
493.571
494.059
492.63
493.095
491.731
492.175
490.868
491.295
490.036
490.448
489.231
489.631
488.45
488.838
487.687
488.066
486.941
487.312
486.211
486.574
485.496
485.852
484.794
485.143
484.106
484.448
483.428
483.766
482.755
483.092
482.08
482.418
481.739
467.711
505.112
482.09
481.754
482.758
482.424
483.426
483.092
484.104
483.764
484.794
484.447
485.498
485.144
486.216
485.856
486.948
486.58
487.695
487.319
488.458
488.074
489.239
488.846
490.044
489.639
490.875
490.456
491.737
491.302
492.636
492.182
493.576
493.1
494.563
494.063
495.601
495.076
496.691
496.14
497.834
497.256
499.032
498.426
500.286
499.652
501.598
500.935
502.973
502.277
503.685
480.752
505.182
504.433
502.298
502.992
501.621
505.888
505.92
480.725
480.417
480.407
480.396
505.948
505.234
506.002
480.071
480.079
503.704
500.311
500.959
499.058
499.678
497.86
498.452
496.715
497.28
495.623
496.162
494.582
495.096
493.591
494.08
492.648
493.114
491.745
492.191
490.88
491.308
490.046
490.459
489.239
489.639
488.456
488.845
487.693
488.072
486.946
487.318
486.215
486.579
485.499
485.856
484.797
485.147
484.107
484.451
483.428
483.766
482.753
483.091
482.077
482.416
483.916
481.737
505.881
505.874
505.907
480.081
480.756
480.419
481.423
481.09
482.091
481.756
482.758
482.425
483.428
483.092
484.107
483.766
484.798
484.451
485.504
485.149
486.223
485.862
486.956
486.588
487.703
487.328
488.467
488.083
489.25
488.856
490.057
489.65
490.89
490.47
491.754
491.318
492.656
492.2
493.599
493.122
494.589
494.088
495.63
495.103
496.722
496.169
497.869
497.289
499.07
498.462
500.327
499.692
501.643
500.978
503.02
502.323
504.462
503.733
505.97
505.208
479.738
479.739
480.724
504.485
480.39
506.731
506.787
505.294
506.063
506.032
506.748
506.811
480.06
479.733
479.393
501.67
502.348
503.042
479.393
480.725
480.724
503.754
500.358
501.006
499.102
499.723
497.901
498.495
496.752
497.32
495.657
496.198
494.612
495.128
493.618
494.109
492.67
493.139
491.764
492.213
490.895
491.325
490.058
490.473
489.25
489.651
488.465
488.855
487.701
488.081
486.953
487.325
486.221
486.585
485.504
485.861
484.8
485.15
484.109
484.453
483.427
483.767
482.75
483.088
482.074
482.413
490.338
481.735
493.182
506.665
506.698
506.661
506.653
506.688
479.393
480.083
479.74
480.758
480.421
481.425
481.092
482.091
481.757
482.759
482.425
483.43
483.094
484.111
483.769
484.803
484.455
485.51
485.155
486.23
485.869
486.964
486.596
487.713
487.337
488.478
488.093
489.263
488.868
490.071
489.664
490.907
490.485
491.775
491.337
492.68
492.223
493.627
493.148
494.621
494.118
495.665
495.137
496.762
496.207
497.911
497.33
499.116
498.507
500.378
499.74
501.697
501.03
503.077
502.379
504.522
503.791
505.269
479.039
479.037
480.388
504.544
502.406
503.101
501.726
506.85
507.543
507.608
480.728
480.389
480.391
480.052
479.721
479.389
479.04
478.673
478.67
480.387
503.813
500.411
501.062
499.153
499.775
497.947
498.543
496.795
497.365
495.696
496.239
494.647
495.165
493.648
494.142
492.696
493.166
491.786
492.236
490.912
491.345
490.072
490.488
489.261
489.663
488.475
488.865
487.709
488.089
486.96
487.332
486.227
486.592
485.508
485.866
484.803
485.154
484.109
484.455
483.425
483.766
482.747
483.085
482.072
482.409
481.399
481.734
481.064
507.459
507.492
507.456
507.447
507.53
507.485
507.655
507.589
478.666
479.392
479.035
480.085
479.741
480.76
480.424
481.427
481.094
482.092
481.759
482.76
482.426
483.432
483.095
484.114
483.772
484.808
484.46
485.516
485.161
486.237
485.875
486.972
486.603
487.722
487.345
488.489
488.103
489.276
488.879
490.086
489.678
490.925
490.502
491.797
491.357
492.707
492.247
493.658
493.177
494.657
494.151
495.705
495.174
496.805
496.249
497.959
497.376
499.168
498.557
500.434
499.794
501.757
501.088
503.141
502.441
504.589
503.857
506.101
505.337
507.681
506.882
478.289
478.283
480.051
480.049
480.049
505.358
506.128
504.608
479.713
508.476
507.723
508.547
507.756
508.496
508.573
480.056
479.707
479.709
479.377
479.036
478.675
478.294
477.889
503.163
502.466
501.785
477.88
480.049
506.916
503.876
500.467
501.119
499.205
499.83
497.996
498.594
496.84
497.411
495.736
496.281
494.683
495.203
493.679
494.175
492.722
493.195
491.807
492.259
490.929
491.364
490.085
490.503
489.272
489.675
488.483
488.875
487.715
488.097
486.966
487.339
486.232
486.597
485.511
485.87
484.804
485.156
484.109
484.455
483.422
483.764
482.743
483.082
482.068
482.406
481.399
481.732
480.732
481.066
480.396
508.355
508.422
508.269
508.303
508.267
508.257
508.346
508.298
508.407
477.868
478.66
478.274
479.39
479.031
480.085
479.741
480.761
480.425
481.429
481.096
482.093
481.76
482.76
482.426
483.434
483.096
484.117
483.774
484.812
484.463
485.521
485.165
486.243
485.88
486.978
486.609
487.729
487.352
488.498
488.111
489.287
488.889
490.1
489.69
490.942
490.517
491.819
491.376
492.733
492.271
493.69
493.206
494.693
494.185
495.746
495.213
496.85
496.291
498.009
497.423
499.222
498.608
500.491
499.849
501.818
501.147
503.206
502.504
504.657
503.923
506.173
505.406
506.956
477.451
477.435
479.706
479.708
505.419
506.19
504.668
502.524
503.222
501.841
507.788
508.615
509.33
509.409
479.352
479.354
479.368
479.024
478.674
478.298
477.896
477.463
476.988
476.968
479.706
506.979
503.937
500.52
501.173
499.254
499.881
498.042
498.641
496.882
497.455
495.773
496.321
494.716
495.238
493.707
494.205
492.745
493.22
491.825
492.28
490.944
491.38
490.096
490.516
489.279
489.684
488.489
488.881
487.719
488.102
486.969
487.342
486.233
486.599
485.512
485.871
484.803
485.156
484.105
484.453
483.417
483.76
482.738
483.077
482.064
482.4
481.398
481.729
480.737
481.067
480.072
480.406
479.383
479.732
478.972
479.026
509.185
509.253
509.097
509.132
509.095
509.085
509.178
509.127
509.315
509.242
509.459
509.389
476.943
477.849
477.412
478.65
478.259
479.386
479.025
480.084
479.739
480.761
480.424
481.428
481.095
482.092
481.759
482.76
482.426
483.433
483.095
484.117
483.774
484.813
484.463
485.522
485.166
486.245
485.882
486.981
486.611
487.733
487.355
488.503
488.116
489.294
488.896
490.11
489.699
490.956
490.529
491.837
491.392
492.756
492.291
493.718
493.231
494.726
494.216
495.783
495.248
496.892
496.331
498.055
497.467
499.272
498.656
500.545
499.901
501.876
501.203
503.267
502.564
504.721
503.986
506.24
505.472
507.826
507.025
509.483
508.646
476.466
476.438
479.357
479.362
505.472
506.243
504.721
502.573
503.272
501.889
478.989
479.014
510.321
509.519
510.383
509.546
510.339
510.404
478.466
478.577
478.662
478.298
477.902
477.473
477.004
476.489
475.89
475.92
479.358
507.843
508.672
507.034
503.989
500.566
501.22
499.297
499.925
498.081
498.683
496.917
497.493
495.805
496.355
494.743
495.268
493.73
494.23
492.763
493.24
491.838
492.295
490.953
491.391
490.102
490.523
489.282
489.688
488.489
488.883
487.719
488.102
486.967
487.341
486.231
486.597
485.509
485.868
484.798
485.152
484.099
484.448
483.41
483.754
482.731
483.069
482.058
482.394
481.395
481.725
480.737
481.066
480.076
480.408
479.397
479.739
478.688
479.05
478.071
477.961
478.334
510.181
510.262
510.033
510.102
509.942
509.978
509.941
509.93
510.027
509.974
510.169
510.094
510.247
474.637
475.848
475.302
475.263
476.903
476.395
477.82
477.377
478.633
478.237
479.378
479.012
480.08
479.733
480.758
480.421
481.425
481.093
482.09
481.757
482.757
482.423
483.431
483.093
484.114
483.771
484.811
484.461
485.52
485.164
486.243
485.88
486.98
486.609
487.732
487.354
488.503
488.115
489.297
488.897
490.116
489.703
490.965
490.536
491.85
491.403
492.774
492.307
493.741
493.252
494.753
494.241
495.815
495.278
496.928
496.365
498.094
497.504
499.314
498.697
500.591
499.945
501.925
501.25
503.319
502.614
504.775
504.039
506.297
505.528
507.886
507.083
508.707
478.998
479.008
505.511
506.282
504.761
509.562
510.429
511.213
511.28
478.607
478.652
478.161
478.286
477.552
477.652
477.903
477.481
477.017
476.509
475.948
475.334
474.672
474.131
473.982
503.309
502.608
501.924
479.004
507.884
508.713
507.074
504.027
500.599
501.255
499.329
499.957
498.11
498.713
496.943
497.52
495.827
496.379
494.761
495.288
493.744
494.247
492.772
493.252
491.843
492.302
490.952
491.393
490.1
490.522
489.278
489.686
488.484
488.878
487.712
488.095
486.96
487.334
486.223
486.589
485.5
485.86
484.79
485.144
484.09
484.439
483.4
483.744
482.721
483.059
482.05
482.386
481.389
481.718
480.733
481.061
480.071
480.404
479.386
479.733
478.65
479.025
477.875
478.271
477.106
477.001
477.455
511.051
511.134
510.898
510.97
510.807
510.842
510.805
510.793
510.894
510.84
511.043
510.964
511.2
511.123
511.313
511.265
475.742
475.125
476.843
476.316
477.782
477.33
478.609
478.207
479.362
478.993
480.07
479.721
480.75
480.412
481.417
481.085
482.082
481.749
482.75
482.416
483.424
483.085
484.108
483.764
484.804
484.454
485.513
485.157
486.235
485.872
486.972
486.602
487.725
487.346
488.497
488.109
489.292
488.892
490.114
489.7
490.967
490.536
491.856
491.407
492.784
492.315
493.755
493.264
494.772
494.258
495.838
495.299
496.954
496.389
498.123
497.532
499.346
498.727
500.624
499.978
501.961
501.285
503.357
502.651
504.815
504.078
506.339
505.569
507.931
507.126
509.593
508.753
511.33
510.452
478.626
478.645
505.534
506.304
504.781
502.627
503.328
501.942
478.209
478.276
512.215
511.339
512.243
511.358
512.227
512.257
477.735
477.891
477.206
477.483
476.513
476.628
477.026
476.524
475.972
475.364
474.701
473.998
473.388
473.283
478.638
509.585
510.453
507.905
508.735
507.095
504.047
500.617
501.272
499.345
499.974
498.125
498.729
496.956
497.534
495.838
496.39
494.769
495.297
493.748
494.252
492.772
493.255
491.839
492.3
490.946
491.387
490.09
490.514
489.267
489.675
488.47
488.865
487.698
488.081
486.945
487.319
486.209
486.575
485.486
485.846
484.776
485.13
484.076
484.425
483.387
483.73
482.708
483.046
482.038
482.372
481.379
481.707
480.722
481.051
480.055
480.391
479.356
479.711
478.606
478.989
477.798
478.211
476.89
477.359
475.984
475.841
476.386
512.106
512.175
511.94
512.025
511.783
511.857
511.689
511.725
511.688
511.676
511.781
511.724
511.934
511.853
512.097
512.018
512.165
472.568
472.547
474.213
473.387
475.613
474.944
476.768
476.219
477.735
477.271
478.577
478.168
479.339
478.966
480.052
479.701
480.735
480.396
481.403
481.07
482.068
481.735
482.737
482.403
483.411
483.073
484.095
483.752
484.791
484.441
485.499
485.143
486.221
485.858
486.957
486.587
487.711
487.332
488.484
488.094
489.28
488.879
490.104
489.688
490.96
490.528
491.852
491.401
492.784
492.313
493.759
493.266
494.779
494.263
495.848
495.307
496.967
496.401
498.138
497.546
499.362
498.743
500.642
499.995
501.98
501.304
503.377
502.671
504.837
504.099
506.362
505.591
507.955
507.15
509.619
508.778
510.479
478.237
478.268
505.532
506.302
504.781
502.63
503.33
501.945
511.339
512.245
513.144
513.175
477.79
477.88
477.289
477.47
476.729
477.029
476.11
476.536
475.251
475.41
475.991
475.392
474.729
474.014
473.277
471.677
472.511
471.702
470.733
470.783
469.827
478.256
509.584
510.452
507.902
508.733
507.092
504.047
500.618
501.275
499.345
499.975
498.124
498.728
496.954
497.532
495.834
496.387
494.763
495.292
493.739
494.246
492.76
493.244
491.823
492.286
490.928
491.371
490.071
490.495
489.245
489.654
488.448
488.843
487.675
488.059
486.922
487.296
486.187
486.552
485.465
485.824
484.756
485.109
484.057
484.405
483.368
483.711
482.689
483.027
482.019
482.354
481.359
481.688
480.698
481.029
480.024
480.364
479.316
479.675
478.553
478.943
477.719
478.147
476.774
477.262
475.682
476.249
474.611
474.411
475.071
513.019
513.09
512.848
512.936
512.687
512.762
512.59
512.628
512.59
512.577
512.686
512.627
512.845
512.761
513.014
512.932
513.136
513.083
513.169
513.165
472.488
471.619
474.128
473.331
475.517
474.857
476.684
476.125
477.675
477.199
478.533
478.117
479.306
478.928
480.025
479.671
480.712
480.372
481.382
481.048
482.048
481.715
482.719
482.384
483.393
483.055
484.076
483.733
484.771
484.422
485.478
485.123
486.199
485.837
486.935
486.565
487.688
487.309
488.461
488.071
489.258
488.856
490.084
489.667
490.942
490.509
491.837
491.385
492.772
492.299
493.75
493.255
494.773
494.255
495.844
495.302
496.964
496.398
498.136
497.544
499.362
498.742
500.642
499.995
501.98
501.304
503.377
502.671
504.837
504.099
506.362
505.591
507.955
507.15
509.62
508.779
511.361
510.481
513.179
512.26
477.826
477.87
506.278
505.508
477.349
477.459
514.112
513.143
514.087
513.155
514.119
514.096
476.813
477.017
476.218
476.541
475.547
476.005
474.785
475.413
473.7
473.917
474.754
474.035
473.277
472.493
490.03
490.007
471.67
470.798
469.849
468.982
418.25
503.307
468.897
502.608
477.853
511.312
512.218
509.556
510.425
507.876
508.706
507.066
504.757
504.023
500.598
501.924
501.254
499.325
499.955
498.104
498.708
496.934
497.513
495.814
496.368
494.742
495.272
493.716
494.223
492.734
493.22
491.796
492.26
490.899
491.343
490.04
490.465
489.213
489.623
488.415
488.811
487.642
488.026
486.89
487.264
486.156
486.521
485.436
485.794
484.728
485.081
484.031
484.378
483.343
483.686
482.665
483.003
481.994
482.329
481.331
481.662
480.665
480.999
479.983
480.327
479.266
479.63
478.491
478.888
477.633
478.075
476.651
477.159
475.512
476.104
474.191
474.876
472.935
472.673
473.456
514.081
514.113
513.951
514.025
513.776
513.866
513.61
513.688
513.511
513.55
513.511
513.498
513.61
513.55
513.774
513.687
513.949
513.864
514.076
514.021
514.107
472.378
471.509
474.002
473.212
475.406
474.736
476.588
476.02
477.601
477.114
478.478
478.054
479.263
478.88
479.989
479.632
480.68
480.338
481.353
481.018
482.021
481.687
482.693
482.357
483.367
483.029
484.05
483.707
484.744
484.396
485.45
485.095
486.169
485.807
486.903
486.534
487.655
487.277
488.428
488.039
489.226
488.824
490.053
489.636
490.913
490.479
491.81
491.357
492.747
492.273
493.727
493.231
494.752
494.233
495.824
495.282
496.945
496.378
498.117
497.524
499.342
498.722
500.621
499.974
501.958
501.282
503.354
502.648
504.813
504.075
506.337
505.566
507.93
507.124
509.595
508.753
511.335
510.455
512.235
477.391
477.445
513.087
514.031
469.838
515.08
515.058
476.878
477.004
476.305
476.53
475.662
476.012
474.933
475.427
474.104
474.776
473.164
474.056
471.859
472.116
473.285
472.474
471.64
470.762
469.85
468.869
467.953
467.404
463.641
470.048
464.098
477.422
511.256
512.162
509.5
510.368
507.822
508.651
506.226
507.014
504.707
505.456
503.262
503.975
501.881
502.564
500.556
501.212
499.285
499.914
498.066
498.669
496.896
497.475
495.777
496.33
494.705
495.235
493.678
494.186
492.695
493.181
491.755
492.22
490.858
491.302
489.997
490.423
489.17
489.58
488.372
488.768
487.6
487.983
486.849
487.222
486.117
486.481
485.399
485.756
484.693
485.045
483.998
484.344
483.312
483.654
482.633
482.972
481.961
482.297
481.295
481.628
480.623
480.961
479.934
480.282
479.207
479.576
478.418
478.822
477.535
477.991
476.518
477.045
475.333
475.949
473.951
474.668
472.345
473.178
468.955
467.851
471.455
462.678
467.898
461.832
515.038
515.073
514.904
514.98
514.723
514.816
514.554
514.633
514.452
514.491
514.452
514.438
514.554
514.492
514.723
514.634
514.903
514.816
515.035
514.978
515.074
515.068
514.996
515.051
472.172
471.27
473.835
473.029
475.272
474.585
476.48
475.9
477.514
477.016
478.41
477.977
479.208
478.819
479.943
479.582
480.64
480.295
481.316
480.979
481.986
481.652
482.659
482.323
483.334
482.996
484.016
483.674
484.708
484.361
485.412
485.059
486.13
485.769
486.862
486.494
487.613
487.235
488.385
487.996
489.183
488.781
490.011
489.593
490.872
490.437
491.77
491.316
492.708
492.234
493.689
493.193
494.714
494.196
495.786
495.244
496.907
496.341
498.078
497.486
499.301
498.683
500.578
499.933
501.913
501.238
503.307
502.602
504.763
504.027
506.285
505.516
507.876
507.072
509.54
508.699
511.28
510.4
513.1
512.18
515.004
514.041
467.836
476.925
476.987
476.374
476.515
515.982
514.908
515.895
514.917
515.988
515.902
475.754
476
475.055
475.435
474.262
474.791
473.362
474.076
472.351
473.299
471.237
472.475
471.614
490.191
470.72
461.849
469.795
468.847
466.993
466.395
466.72
465.359
465.578
467.834
464.511
465.583
464.523
476.961
512.999
513.943
511.169
512.074
509.415
510.283
507.741
508.568
506.147
506.934
504.632
505.379
503.192
503.904
501.814
502.496
500.493
501.147
499.224
499.852
498.007
498.609
496.84
497.417
495.722
496.275
494.65
495.18
493.624
494.132
492.641
493.127
491.701
492.166
490.803
491.247
489.943
490.368
489.116
489.525
488.319
488.714
487.547
487.93
486.798
487.17
486.068
486.431
485.353
485.709
484.65
485
483.957
484.302
483.272
483.613
482.594
482.932
481.921
482.257
481.251
481.586
480.574
480.914
479.876
480.229
479.138
479.514
478.333
478.746
477.425
477.895
476.375
476.92
475.146
475.785
473.706
474.454
472.028
472.899
470.07
471.086
462.63
516.062
516.041
516.016
516.053
515.878
515.956
515.691
515.787
515.517
515.599
515.413
515.453
515.414
515.399
515.519
515.455
515.692
515.6
515.877
515.787
516.014
515.955
516.058
516.05
516.036
467.893
466.736
470.008
468.979
471.932
470.996
473.645
472.816
475.115
474.411
476.355
475.761
477.412
476.904
478.328
477.886
479.141
478.745
479.886
479.52
480.59
480.242
481.271
480.932
481.944
481.608
482.617
482.28
483.292
482.954
483.974
483.632
484.664
484.318
485.366
485.014
486.081
485.722
486.811
486.444
487.56
487.183
488.332
487.943
489.129
488.727
489.956
489.538
490.817
490.382
491.716
491.262
492.654
492.18
493.635
493.139
494.66
494.142
495.731
495.19
496.85
496.285
498.019
497.428
499.239
498.622
500.513
499.869
501.844
501.171
503.234
502.532
504.687
503.953
506.206
505.438
507.795
506.992
509.456
508.616
511.194
510.315
513.013
512.093
513.954
476.427
476.495
470.977
514.787
515.773
516.995
516.909
475.828
475.983
475.154
475.422
474.392
474.798
473.529
474.091
472.559
473.315
463.54
463.503
471.48
472.48
470.319
471.604
469.128
470.688
464.333
467.952
469.745
465.072
489.504
468.781
462.39
467.812
466.768
462.623
463.537
462.641
476.466
512.879
513.822
511.051
511.955
509.302
510.167
507.631
508.456
506.041
506.826
504.532
505.276
503.098
503.807
501.724
502.404
500.406
501.059
499.142
499.768
497.928
498.529
496.764
497.34
495.648
496.2
494.579
495.108
493.554
494.061
492.572
493.058
491.633
492.097
490.735
491.179
489.876
490.301
489.05
489.459
488.254
488.648
487.484
487.866
486.737
487.108
486.009
486.371
485.297
485.652
484.597
484.946
483.907
484.251
483.224
483.565
482.547
482.885
481.872
482.209
481.2
481.537
480.517
480.86
479.81
480.167
479.059
479.441
478.236
478.658
477.303
477.786
476.22
476.782
474.951
475.611
473.47
474.238
471.768
472.647
469.836
470.836
468.782
517.067
517.047
517.016
517.055
516.872
516.953
516.68
516.778
516.501
516.585
516.394
516.436
516.395
516.38
516.503
516.437
516.682
516.587
516.872
516.779
517.014
516.952
517.063
517.053
516.99
517.043
516.78
516.903
465.538
464.502
467.686
466.61
469.765
468.748
471.697
470.753
473.436
472.594
474.939
474.218
476.213
475.602
477.296
476.775
478.232
477.781
479.061
478.658
479.819
479.448
480.531
480.179
481.217
480.876
481.892
481.556
482.568
482.23
483.242
482.905
483.922
483.581
484.611
484.265
485.31
484.959
486.023
485.665
486.75
486.384
487.497
487.121
488.267
487.879
489.063
488.661
489.889
489.472
490.75
490.315
491.648
491.194
492.586
492.112
493.565
493.07
494.589
494.072
495.658
495.118
496.774
496.21
497.939
497.35
499.155
498.54
500.425
499.783
501.751
501.081
503.137
502.437
504.585
503.853
506.1
505.334
507.684
506.883
509.342
508.504
511.077
510.2
512.894
511.975
514.796
513.834
516.787
515.78
475.884
475.96
475.232
475.403
517.812
516.62
517.65
516.628
517.818
517.658
474.496
474.786
473.666
474.097
461.808
461.76
472.732
473.326
462.557
471.692
472.487
470.556
471.595
469.361
470.669
463.362
468.132
469.702
464.111
466.965
468.725
464.789
481.761
485.27
467.737
466.773
465.751
461.032
461.833
461.086
475.928
514.63
515.614
512.726
513.667
510.903
511.805
509.158
510.021
507.492
508.315
505.909
506.69
504.408
505.148
502.978
503.685
501.61
502.286
500.297
500.947
499.037
499.661
497.828
498.426
496.668
497.242
495.557
496.107
494.491
495.018
493.469
493.975
492.488
492.973
491.55
492.014
490.655
491.097
489.797
490.221
488.972
489.381
488.178
488.572
487.411
487.791
486.666
487.036
485.941
486.302
485.232
485.585
484.536
484.883
483.848
484.191
483.167
483.507
482.49
482.828
481.815
482.152
481.14
481.479
480.451
480.798
479.733
480.097
478.968
479.358
478.124
478.558
477.165
477.662
476.05
476.629
474.743
475.422
473.226
474.011
471.501
472.388
469.579
470.565
467.522
468.559
465.48
466.49
463.564
464.502
518.025
517.94
518.093
518.076
518.037
518.079
517.888
517.972
517.691
517.792
517.507
517.593
517.396
517.439
517.397
517.382
517.509
517.441
517.692
517.595
517.888
517.792
518.036
517.971
518.09
518.077
518.02
518.071
517.934
463.511
462.636
465.442
464.453
467.493
466.463
469.525
468.518
471.455
470.507
473.21
472.359
474.742
474.005
476.052
475.424
477.164
476.63
478.124
477.661
478.972
478.559
479.742
479.365
480.463
480.107
481.155
480.812
481.833
481.495
482.509
482.171
483.184
482.846
483.862
483.522
484.549
484.204
485.245
484.895
485.954
485.598
486.68
486.315
487.424
487.049
488.191
487.804
488.985
488.585
489.81
489.394
490.669
490.235
491.566
491.113
492.502
492.029
493.48
492.986
494.501
493.985
495.566
495.028
496.678
496.116
497.838
497.252
499.05
498.437
500.314
499.675
501.635
500.967
503.014
502.317
504.457
503.728
505.966
505.203
507.545
506.747
509.198
508.362
510.928
510.053
512.741
511.824
514.639
513.679
515.622
475.293
475.376
516.42
517.447
463.484
459.873
518.873
518.711
474.58
474.765
460.403
460.323
473.776
474.084
460.959
472.874
473.331
461.676
471.868
472.494
470.764
471.592
469.581
470.65
462.433
468.351
469.672
463.175
467.115
468.674
463.882
465.941
467.672
461.444
466.683
465.756
464.725
462.725
460.459
475.34
514.435
515.416
512.537
513.475
510.721
511.619
508.984
509.843
507.326
508.144
505.751
506.527
504.257
504.994
502.833
503.537
501.471
502.145
500.165
500.811
498.911
499.531
497.708
498.303
496.554
497.125
495.447
495.994
494.386
494.911
493.367
493.871
492.39
492.873
491.455
491.917
490.561
491.003
489.706
490.129
488.884
489.291
488.092
488.484
487.327
487.706
486.585
486.953
485.864
486.222
485.158
485.509
484.465
484.81
483.78
484.122
483.101
483.44
482.425
482.763
481.749
482.086
481.071
481.411
480.375
480.726
479.646
480.016
478.864
479.264
477.998
478.444
477.01
477.522
475.862
476.458
474.52
475.217
472.969
473.77
471.222
472.118
469.309
470.283
467.303
468.311
465.33
466.305
464.388
519.078
518.994
519.142
519.127
519.081
519.126
518.926
519.013
518.723
518.826
518.534
518.622
518.42
518.464
518.421
518.405
518.536
518.466
518.724
518.624
518.926
518.827
519.08
519.012
519.139
519.123
519.073
519.123
518.866
518.988
518.497
518.704
460.51
459.951
458.838
459.32
459.78
460.455
459.855
461.835
461.117
463.462
462.614
465.313
464.365
467.289
466.293
469.279
468.288
471.199
470.254
472.969
472.109
474.528
473.776
475.87
475.226
477.015
476.465
478.002
477.526
478.869
478.448
479.655
479.27
480.386
480.025
481.084
480.738
481.765
481.426
482.442
482.103
483.117
482.779
483.793
483.454
484.477
484.134
485.17
484.822
485.877
485.522
486.599
486.235
487.34
486.967
488.105
487.719
488.896
488.497
489.719
489.304
490.576
490.143
491.47
491.019
492.404
491.932
493.378
492.886
494.395
493.881
495.456
494.92
496.563
496.004
497.718
497.134
498.923
498.314
500.18
499.545
501.494
500.83
502.867
502.173
504.302
503.577
505.804
505.045
507.377
506.582
509.023
508.19
510.747
509.875
512.553
511.639
514.445
513.488
516.428
515.425
518.506
517.455
459.364
459.212
474.645
474.736
459.676
473.864
474.063
519.573
518.239
519.309
518.248
519.581
519.319
460.222
472.989
473.316
460.858
472.013
472.497
470.939
471.597
469.781
470.639
461.551
468.56
469.646
462.262
467.308
468.631
462.973
466.084
467.61
464.91
466.603
462.874
465.627
463.75
464.71
462.779
461.871
461.093
461.082
458.666
458.428
458.698
460.415
466.205
474.697
516.172
517.194
514.198
515.174
512.311
513.244
510.504
511.397
508.777
509.631
507.129
507.943
505.565
506.336
504.079
504.813
502.662
503.363
501.308
501.978
500.009
500.652
498.763
499.379
497.567
498.159
496.42
496.987
495.319
495.864
494.264
494.786
493.25
493.752
492.277
492.758
491.345
491.806
490.456
490.895
489.603
490.025
488.784
489.189
487.995
488.386
487.233
487.611
486.495
486.861
485.777
486.133
485.075
485.424
484.385
484.728
483.703
484.043
483.026
483.364
482.35
482.688
481.674
482.011
480.992
481.335
480.289
480.644
479.548
479.924
478.748
479.157
477.857
478.316
476.838
477.366
475.655
476.269
474.278
474.992
472.697
473.512
470.931
471.835
469.027
469.992
467.069
468.047
465.164
466.103
463.397
464.26
461.816
462.579
461.107
519.952
519.79
520.155
520.072
520.214
520.202
520.148
520.195
519.986
520.076
519.777
519.883
519.583
519.674
519.466
519.512
519.467
519.451
519.584
519.513
519.777
519.675
519.985
519.884
520.146
520.075
520.211
520.193
520.15
520.197
519.945
520.066
519.782
460.482
459.89
461.824
461.129
463.392
462.579
465.164
464.256
467.072
466.107
469.022
468.048
470.93
469.987
472.709
471.84
474.294
473.527
475.67
475.008
476.849
476.282
477.865
477.375
478.755
478.323
479.556
479.165
480.299
479.933
481.004
480.655
481.689
481.348
482.366
482.027
483.04
482.704
483.715
483.378
484.396
484.055
485.086
484.74
485.789
485.436
486.508
486.146
487.246
486.874
488.007
487.623
488.796
488.398
489.616
489.202
490.47
490.039
491.361
490.911
492.291
491.821
493.261
492.771
494.273
493.762
495.329
494.795
496.429
495.873
497.577
496.997
498.774
498.169
500.024
499.392
501.329
500.669
502.694
502.004
504.121
503.399
505.614
504.859
507.177
506.387
508.814
507.986
510.529
509.662
512.326
511.417
514.208
513.256
516.181
515.183
517.202
459.083
473.935
474.033
467.046
517.917
518.977
520.683
520.414
459.548
473.082
473.294
460.099
472.132
472.479
471.086
471.591
469.951
470.633
460.723
468.747
469.629
461.386
467.494
468.591
462.071
466.246
467.551
465.04
466.523
463.899
465.525
462.802
464.565
462.847
461.903
463.678
461.079
460.38
458.285
458.499
458.159
435.874
488.998
459.802
457.943
458.06
458.246
458.545
473.99
515.869
516.882
513.911
514.879
512.039
512.965
510.247
511.133
508.534
509.381
506.899
507.707
505.348
506.114
503.873
504.601
502.466
503.161
501.12
501.785
499.83
500.468
498.593
499.205
497.406
497.993
496.267
496.83
495.174
495.715
494.125
494.644
493.118
493.616
492.15
492.629
491.223
491.681
490.337
490.775
489.489
489.909
488.673
489.077
487.887
488.277
487.129
487.505
486.395
486.759
485.68
486.035
484.982
485.329
484.295
484.637