/*--------------------------------*- C++ -*----------------------------------*\
| =========                 |                                                 |
| \\      /  F ield         | OpenFOAM: The Open Source CFD Toolbox           |
|  \\    /   O peration     | Version:  2212                                  |
|   \\  /    A nd           | Website:  www.openfoam.com                      |
|    \\/     M anipulation  |                                                 |
\*---------------------------------------------------------------------------*/
FoamFile
{
    version     2.0;
    format      ascii;
    arch        "LSB;label=32;scalar=64";
    class       volScalarField;
    location    "0.033";
    object      epsilon;
}
// * * * * * * * * * * * * * * * * * * * * * * * * * * * * * * * * * * * * * //

dimensions      [0 2 -3 0 0 0 0];

internalField   nonuniform List<scalar> 
7220
(
3.398e+07
6.72675e+06
6.3354e+06
4.60596e+06
5.21156e+06
4.8975e+06
6.26594e+06
5.12251e+06
4.56417e+06
4.83673e+06
9.36445e+07
1.42195e+09
4.71111e+07
2.19084e+08
5.58528e+08
8.25988e+08
1.10336e+09
3.90774e+07
5.87152e+08
3.98169e+07
1.02068e+08
1.25763e+08
731643
2.65952e+08
2.71536e+07
3.44323e+08
2.34488e+09
8.67353e+07
1.22485e+08
1.75765e+08
1.21647e+07
1.31006e+08
3.60408e+06
1.95757e+08
5.37046e+07
1.41196e+07
1.04476e+07
1.24045e+08
9.26204e+07
1.0067e+07
1.00458e+07
1.00454e+07
1.00666e+07
1.1219e+07
1.14261e+07
1.11484e+07
1.09842e+07
1.08501e+07
1.00274e+07
1.00121e+07
1.00116e+07
1.00269e+07
1.00001e+07
9.99166e+06
9.991e+06
9.99949e+06
9.98708e+06
9.98699e+06
9.98605e+06
9.98642e+06
9.99127e+06
1.00006e+07
9.9995e+06
9.99029e+06
1.00154e+07
1.00362e+07
1.00348e+07
1.00142e+07
1.00636e+07
1.00984e+07
1.00966e+07
1.00621e+07
1.01412e+07
1.0193e+07
1.01902e+07
1.0139e+07
1.02548e+07
1.03282e+07
1.03223e+07
1.0251e+07
1.04146e+07
1.0516e+07
1.04993e+07
1.04048e+07
1.07234e+07
1.0605e+07
1.06353e+07
1.07725e+07
1.09269e+07
1.11264e+07
1.00909e+07
1.00905e+07
1.05331e+07
1.05559e+07
1.16431e+07
1.133e+07
1.10953e+07
1.12703e+07
1.11197e+07
1.08854e+07
1.09925e+07
1.0721e+07
1.07954e+07
1.0609e+07
1.06596e+07
1.05344e+07
1.05676e+07
1.04895e+07
1.05087e+07
1.04688e+07
1.04764e+07
1.04679e+07
1.0466e+07
1.04841e+07
1.0474e+07
1.05146e+07
1.04977e+07
1.05572e+07
1.05345e+07
1.04959e+07
1.0513e+07
1.04719e+07
1.04822e+07
1.04634e+07
1.04656e+07
1.04731e+07
1.04658e+07
1.05044e+07
1.04858e+07
1.05618e+07
1.05295e+07
1.06507e+07
1.06019e+07
1.07765e+07
1.07088e+07
1.0939e+07
1.08535e+07
1.10302e+07
1.12701e+07
1.05825e+07
1.05814e+07
1.20433e+07
1.19926e+07
1.18721e+07
1.14572e+07
1.14406e+07
1.1626e+07
1.24258e+07
1.21752e+07
1.18195e+07
1.26224e+07
1.20906e+07
1.2247e+07
1.18494e+07
1.19593e+07
1.1685e+07
1.17582e+07
1.1578e+07
1.16258e+07
1.15103e+07
1.154e+07
1.14725e+07
1.14881e+07
1.14591e+07
1.1463e+07
1.14645e+07
1.1459e+07
1.14875e+07
1.14741e+07
1.15244e+07
1.15043e+07
1.15733e+07
1.15475e+07
1.06102e+07
1.16321e+07
1.16016e+07
1.01169e+07
1.01172e+07
1.15994e+07
1.16303e+07
1.06092e+07
1.15449e+07
1.15709e+07
1.15013e+07
1.15216e+07
1.14705e+07
1.14842e+07
1.14549e+07
1.14606e+07
1.14572e+07
1.14537e+07
1.14807e+07
1.14661e+07
1.15295e+07
1.15016e+07
1.16091e+07
1.15651e+07
1.17232e+07
1.16619e+07
1.18634e+07
1.17915e+07
1.19339e+07
1.26925e+07
1.24408e+07
1.35132e+07
1.34456e+07
1.06402e+07
1.1665e+07
1.32222e+07
1.32576e+07
1.1543e+07
1.29577e+07
1.21269e+07
1.20276e+07
1.3955e+07
1.43548e+07
1.4089e+07
1.2834e+07
1.36282e+07
1.41587e+07
1.3617e+07
1.37737e+07
1.33767e+07
1.34849e+07
1.32201e+07
1.32892e+07
1.31246e+07
1.31668e+07
1.30679e+07
1.30921e+07
1.30411e+07
1.30512e+07
1.3038e+07
1.30371e+07
1.30545e+07
1.3044e+07
1.30874e+07
1.3069e+07
1.31342e+07
1.31092e+07
1.31926e+07
1.31621e+07
1.32605e+07
1.32255e+07
1.01455e+07
1.01459e+07
1.16633e+07
1.06393e+07
1.31581e+07
1.31889e+07
1.31047e+07
1.31299e+07
1.30637e+07
1.30825e+07
1.30375e+07
1.30486e+07
1.30287e+07
1.30308e+07
1.30402e+07
1.30317e+07
1.30761e+07
1.30548e+07
1.31412e+07
1.31047e+07
1.32364e+07
1.31854e+07
1.33476e+07
1.32922e+07
1.33953e+07
1.3841e+07
1.32976e+07
1.32951e+07
1.16697e+07
1.32508e+07
1.46406e+07
1.17877e+07
1.43833e+07
1.56721e+07
1.56064e+07
1.57729e+07
1.30662e+07
1.56236e+07
1.56666e+07
1.16984e+07
1.33345e+07
1.22714e+07
1.2417e+07
1.49446e+07
1.35775e+07
1.74781e+07
1.7216e+07
1.5269e+07
1.19062e+07
1.65913e+07
1.61527e+07
1.63599e+07
1.58206e+07
1.59727e+07
1.55929e+07
1.56944e+07
1.5454e+07
1.5514e+07
1.53748e+07
1.54084e+07
1.53346e+07
1.53507e+07
1.53231e+07
1.53256e+07
1.53348e+07
1.53264e+07
1.53655e+07
1.5348e+07
1.54121e+07
1.5387e+07
1.54721e+07
1.54406e+07
1.55434e+07
1.55065e+07
1.55825e+07
1.33369e+07
1.06725e+07
1.17e+07
1.01764e+07
1.01767e+07
1.06715e+07
1.56629e+07
1.55777e+07
1.56194e+07
1.55009e+07
1.55382e+07
1.54343e+07
1.54663e+07
1.53798e+07
1.54054e+07
1.53393e+07
1.53576e+07
1.53153e+07
1.53251e+07
1.53107e+07
1.53104e+07
1.53289e+07
1.53167e+07
1.53733e+07
1.53477e+07
1.5442e+07
1.54054e+07
1.55191e+07
1.54817e+07
1.55588e+07
1.6187e+07
1.59575e+07
1.67147e+07
1.64426e+07
1.69822e+07
1.46281e+07
1.57116e+07
1.57083e+07
1.87123e+07
1.86548e+07
1.87952e+07
2.00306e+07
1.33434e+07
1.20677e+07
1.27495e+07
1.56338e+07
1.2482e+07
2.05952e+07
1.96508e+07
1.39408e+07
1.68434e+07
1.99098e+07
1.7954e+07
1.92149e+07
1.94181e+07
1.89006e+07
1.90433e+07
1.8698e+07
1.87861e+07
1.85815e+07
1.86308e+07
1.85244e+07
1.85474e+07
1.85056e+07
1.85112e+07
1.85141e+07
1.85068e+07
1.85449e+07
1.85271e+07
1.85937e+07
1.85673e+07
1.86575e+07
1.86239e+07
1.87341e+07
1.86943e+07
1.88213e+07
1.87765e+07
1.89171e+07
1.88683e+07
1.90195e+07
1.89675e+07
1.90732e+07
1.33782e+07
1.57583e+07
1.07067e+07
1.17371e+07
1.02092e+07
1.02095e+07
1.17356e+07
1.07059e+07
1.57555e+07
1.3376e+07
1.90696e+07
1.89625e+07
1.90152e+07
1.8862e+07
1.89113e+07
1.87693e+07
1.88146e+07
1.86863e+07
1.87265e+07
1.86146e+07
1.86489e+07
1.85561e+07
1.85836e+07
1.8513e+07
1.85325e+07
1.84878e+07
1.84979e+07
1.84833e+07
1.84828e+07
1.85e+07
1.84893e+07
1.85316e+07
1.85152e+07
1.85784e+07
1.85523e+07
1.86117e+07
1.91646e+07
1.89553e+07
1.96488e+07
1.94007e+07
1.98791e+07
1.71186e+07
1.48937e+07
1.21787e+07
2.01958e+07
2.29032e+07
2.28563e+07
2.29713e+07
2.35492e+07
2.36111e+07
1.58045e+07
1.91255e+07
1.23862e+07
1.31253e+07
1.43427e+07
2.12265e+07
2.50164e+07
2.56422e+07
2.18079e+07
1.74346e+07
1.35825e+07
1.60826e+07
1.27184e+07
2.05271e+07
1.8512e+07
2.44025e+07
2.38487e+07
2.41135e+07
2.34308e+07
2.36207e+07
2.31504e+07
2.32749e+07
2.29787e+07
2.30526e+07
2.28928e+07
2.29273e+07
2.28639e+07
2.28738e+07
2.28717e+07
2.28647e+07
2.29049e+07
2.28854e+07
2.29588e+07
2.29295e+07
2.30295e+07
2.29923e+07
2.31139e+07
2.30701e+07
2.32099e+07
2.31606e+07
2.33159e+07
2.32618e+07
2.34297e+07
2.3372e+07
2.34889e+07
1.91287e+07
1.34214e+07
1.5807e+07
1.07429e+07
1.17761e+07
1.0244e+07
1.02443e+07
1.17747e+07
1.07421e+07
1.34194e+07
2.36063e+07
2.34822e+07
2.35437e+07
2.33641e+07
2.34224e+07
2.3253e+07
2.33076e+07
2.31507e+07
2.32006e+07
2.30585e+07
2.31032e+07
2.29783e+07
2.30168e+07
2.2912e+07
2.29433e+07
2.28619e+07
2.28848e+07
2.28299e+07
2.28435e+07
2.28108e+07
2.282e+07
2.27947e+07
2.28043e+07
2.28071e+07
2.27972e+07
2.28257e+07
2.32928e+07
2.31079e+07
2.36843e+07
2.34947e+07
2.38989e+07
2.38104e+07
2.4239e+07
1.51692e+07
2.47322e+07
2.36741e+07
2.36703e+07
2.86334e+07
2.86639e+07
2.09426e+07
1.78504e+07
1.24508e+07
1.27497e+07
1.35361e+07
1.47925e+07
2.62491e+07
2.24112e+07
3.95983e+07
1.90754e+07
5.1619e+06
1.65958e+07
2.51402e+07
3.08581e+07
3.01529e+07
3.0471e+07
2.9609e+07
2.98674e+07
2.92275e+07
2.9398e+07
2.89927e+07
2.90955e+07
2.88641e+07
2.8921e+07
2.88157e+07
2.88331e+07
2.88219e+07
2.88161e+07
2.88598e+07
2.88373e+07
2.8922e+07
2.88883e+07
2.90029e+07
2.89604e+07
2.90985e+07
2.9049e+07
2.92061e+07
2.91509e+07
2.93237e+07
2.92637e+07
2.94502e+07
2.93859e+07
2.95833e+07
2.95158e+07
2.97213e+07
2.96519e+07
2.98627e+07
2.97915e+07
2.99347e+07
1.91859e+07
2.37387e+07
1.34665e+07
1.58577e+07
1.07809e+07
1.18169e+07
1.02806e+07
1.02809e+07
1.18156e+07
1.07801e+07
1.58554e+07
1.34646e+07
2.37356e+07
1.91832e+07
2.99311e+07
2.97855e+07
2.9858e+07
2.96436e+07
2.97141e+07
2.95063e+07
2.95744e+07
2.93754e+07
2.94401e+07
2.92518e+07
2.93127e+07
2.91369e+07
2.91932e+07
2.9032e+07
2.9083e+07
2.89391e+07
2.89839e+07
2.88597e+07
2.88977e+07
2.87959e+07
2.88262e+07
2.87402e+07
2.87686e+07
2.8669e+07
2.87075e+07
2.8622e+07
2.86455e+07
2.8622e+07
2.89746e+07
2.87124e+07
2.88224e+07
2.9259e+07
2.91291e+07
2.95793e+07
2.93847e+07
3.04462e+07
2.98975e+07
3.16291e+07
3.10369e+07
3.36786e+07
3.29621e+07
2.68957e+07
3.2263e+07
1.55855e+07
5.12168e+06
2.563e+07
3.13314e+07
1.27655e+07
5.97227e+06
3.83047e+07
3.83832e+07
2.38023e+07
3.00056e+07
1.3151e+07
2.75986e+07
1.39866e+07
2.30695e+07
1.96859e+07
1.52959e+07
1.71569e+07
5.4296e+06
6.27377e+06
7.59526e+06
8.82411e+06
2.75833e+07
1.15489e+07
2.14512e+07
1.83893e+07
7.29994e+06
2.20011e+07
4.15158e+07
4.0548e+07
1.37074e+07
1.46848e+07
2.61709e+07
6.04819e+06
3.1864e+07
1.70615e+07
2.67493e+07
3.244e+07
5.78373e+06
4.24707e+07
3.30446e+07
4.09264e+07
4.14279e+07
3.9686e+07
4.02726e+07
3.87231e+07
3.91709e+07
3.80736e+07
3.83651e+07
3.75613e+07
3.7798e+07
3.72453e+07
3.73771e+07
3.70606e+07
3.71348e+07
3.6988e+07
3.70144e+07
3.69855e+07
3.69808e+07
3.70254e+07
3.69999e+07
3.70985e+07
3.70588e+07
3.71927e+07
3.71432e+07
3.73027e+07
3.7246e+07
3.7425e+07
3.73626e+07
3.75565e+07
3.74897e+07
3.76959e+07
3.76254e+07
3.78418e+07
3.77682e+07
3.79934e+07
3.79171e+07
3.81484e+07
3.80708e+07
3.82265e+07
3.00082e+07
1.92448e+07
2.3805e+07
1.35132e+07
1.591e+07
1.08205e+07
1.18594e+07
1.03188e+07
1.03191e+07
1.18582e+07
1.08198e+07
1.59079e+07
1.35116e+07
1.92424e+07
3.83791e+07
3.82193e+07
3.82989e+07
3.80611e+07
3.81398e+07
3.79063e+07
3.79831e+07
3.7756e+07
3.78304e+07
3.76114e+07
3.7683e+07
3.74729e+07
3.75413e+07
3.73422e+07
3.74065e+07
3.72206e+07
3.72801e+07
3.71094e+07
3.71637e+07
3.701e+07
3.70579e+07
3.6912e+07
3.69619e+07
3.6789e+07
3.68573e+07
3.66562e+07
3.67201e+07
3.65975e+07
3.66178e+07
3.66366e+07
3.66066e+07
3.68161e+07
3.67115e+07
3.70184e+07
3.69072e+07
3.73901e+07
3.71646e+07
3.81079e+07
3.76851e+07
3.91796e+07
3.86244e+07
3.98201e+07
5.46982e+06
6.73189e+06
9.25891e+06
1.61903e+07
1.3104e+07
4.7545e+06
8.81462e+07
7.36459e+07
3.42277e+07
3.84627e+07
3.84598e+07
7.26236e+06
1.89525e+07
1.52017e+07
1.4143e+07
1.31383e+07
2.8338e+07
1.31666e+07
2.25717e+07
5.12922e+07
5.24153e+07
4.37494e+07
1.35958e+07
2.38e+07
2.03615e+07
2.73578e+07
1.18754e+10
1.44899e+07
1.67691e+08
3.3726e+07
1.01124e+07
1.58574e+07
1.77772e+07
4.28077e+06
4.10521e+06
3.53917e+07
4.50041e+06
3.88187e+06
8.28879e+06
5.20991e+07
5.22838e+07
5.05625e+07
5.12077e+07
4.96617e+07
5.00618e+07
4.91039e+07
4.93537e+07
4.86673e+07
4.88702e+07
4.84085e+07
4.85092e+07
4.82992e+07
4.83378e+07
4.82876e+07
4.82847e+07
4.8325e+07
4.82993e+07
4.84085e+07
4.83622e+07
4.85186e+07
4.84612e+07
4.86454e+07
4.85801e+07
4.87838e+07
4.87134e+07
4.89305e+07
4.88563e+07
4.90832e+07
4.90063e+07
4.92402e+07
4.91612e+07
4.9401e+07
4.93201e+07
4.95649e+07
4.94826e+07
4.97301e+07
4.96472e+07
4.98945e+07
4.98125e+07
5.00577e+07
4.99761e+07
5.01395e+07
3.00835e+07
3.85432e+07
1.93054e+07
2.38727e+07
1.35615e+07
1.59638e+07
1.08617e+07
1.19035e+07
1.03586e+07
1.03588e+07
1.19024e+07
1.08611e+07
1.5962e+07
1.356e+07
2.38706e+07
1.93033e+07
3.85412e+07
3.00812e+07
5.01372e+07
4.99711e+07
5.00543e+07
4.98042e+07
4.98878e+07
4.9637e+07
4.97205e+07
4.94707e+07
4.95535e+07
4.93067e+07
4.93884e+07
4.91453e+07
4.92257e+07
4.8987e+07
4.90657e+07
4.88325e+07
4.89092e+07
4.86835e+07
4.87573e+07
4.85399e+07
4.86109e+07
4.84033e+07
4.84712e+07
4.82612e+07
4.83329e+07
4.80752e+07
4.81755e+07
4.78432e+07
4.79507e+07
4.76852e+07
4.77534e+07
4.76569e+07
4.76507e+07
4.77341e+07
4.76844e+07
4.79034e+07
4.78085e+07
4.82632e+07
4.80583e+07
4.88809e+07
4.85349e+07
4.98898e+07
4.93567e+07
5.05205e+07
5.18712e+06
6.02923e+06
5.67299e+07
8.86061e+06
8.42258e+06
1.67511e+07
1.34722e+07
3.7749e+06
2.98618e+07
2.90829e+07
6.56917e+06
2.74225e+06
6.9528e+06
1.95164e+07
6.65388e+07
6.76996e+07
5.42982e+07
1.35732e+07
1.57023e+07
1.46025e+07
4.10454e+06
2.46035e+07
8.75251e+06
6.6107e+07
6.61814e+07
3.86238e+07
5.02206e+07
2.1119e+07
3.63979e+07
2.31768e+07
4.66905e+07
4.59307e+06
7.84605e+06
9.89072e+06
1.26505e+07
1.94753e+06
1.40978e+07
4.14148e+06
3.04379e+06
4.62002e+06
6.48293e+07
5.93088e+06
8.35693e+06
2.80461e+07
4.10524e+07
9.92298e+06
9.37178e+06
7.2013e+06
7.7128e+06
1.04225e+07
1.50561e+07
1.847e+07
3.4731e+07
3.71258e+06
1.64872e+07
2.42055e+06
2.52045e+06
4.01533e+06
4.46317e+07
3.55178e+06
3.02302e+06
3.37573e+06
3.19161e+06
3.10434e+07
1.09839e+07
3.70181e+07
2.59637e+07
6.69483e+07
6.75311e+07
6.58413e+07
6.63687e+07
6.50987e+07
6.54183e+07
6.46916e+07
6.48557e+07
6.43376e+07
6.44904e+07
6.41589e+07
6.42178e+07
6.41252e+07
6.41249e+07
6.41596e+07
6.41368e+07
6.42479e+07
6.41971e+07
6.43732e+07
6.43077e+07
6.45163e+07
6.44429e+07
6.46697e+07
6.45922e+07
6.48292e+07
6.4749e+07
6.49915e+07
6.49102e+07
6.51546e+07
6.50731e+07
6.53174e+07
6.52361e+07
6.54793e+07
6.53984e+07
6.56402e+07
6.55599e+07
6.58e+07
6.57203e+07
6.5956e+07
6.58786e+07
6.60321e+07
5.0222e+07
3.01598e+07
3.86255e+07
1.93675e+07
2.39423e+07
1.36112e+07
1.60192e+07
1.09043e+07
1.19489e+07
1.03999e+07
1.04e+07
1.1948e+07
1.09037e+07
1.60177e+07
1.36099e+07
2.39405e+07
1.93656e+07
3.01582e+07
6.61784e+07
6.60263e+07
6.61029e+07
6.58698e+07
6.59483e+07
6.571e+07
6.57902e+07
6.55478e+07
6.5629e+07
6.53842e+07
6.54661e+07
6.52188e+07
6.53017e+07
6.50517e+07
6.51355e+07
6.48834e+07
6.49676e+07
6.47148e+07
6.47992e+07
6.45457e+07
6.463e+07
6.43725e+07
6.44602e+07
6.41808e+07
6.42821e+07
6.39244e+07
6.40646e+07
6.3586e+07
6.37541e+07
6.33016e+07
6.34281e+07
6.31613e+07
6.32068e+07
6.31872e+07
6.31623e+07
6.33152e+07
6.32298e+07
6.36596e+07
6.34444e+07
6.42509e+07
6.39099e+07
6.51509e+07
6.4658e+07
6.57428e+07
7.6328e+06
9.59263e+06
8.97776e+06
9.33176e+06
1.5516e+06
1.07531e+07
1.80468e+07
1.72915e+07
9.10394e+07
6.93607e+07
1.39057e+07
6.24204e+06
4.56793e+06
4.32987e+06
5.68825e+06
4.8718e+06
5.2581e+06
3.26238e+06
7.08081e+06
6.4691e+09
2.54985e+07
6.0598e+07
5.63857e+06
6.62544e+07
6.62532e+07
2.19717e+07
1.17128e+07
6.61212e+06
8.45874e+06
7.60278e+06
1.72451e+07
2.01015e+07
1.15136e+07
5.66695e+07
1.34201e+07
1.03586e+07
1.3948e+07
1.06806e+07
4.25593e+06
1.40733e+07
1.62339e+07
1.51135e+07
3.11708e+06
4.26627e+06
3.42937e+06
3.66529e+06
4.63568e+06
6.30146e+06
6.49653e+06
4.8098e+06
5.31607e+06
3.67543e+06
1.211e+07
1.29102e+07
1.23414e+07
9.29145e+06
1.74341e+07
8.76522e+06
2.38456e+07
4.85512e+07
1.00521e+07
8.09092e+06
3.45324e+07
1.46696e+07
2.39435e+06
4.51458e+06
3.40545e+06
3.49882e+06
1.92532e+07
2.89246e+07
8.5547e+07
4.28364e+07
1.11327e+07
6.08938e+06
6.59967e+06
7.81681e+06
5.93451e+06
8.21743e+06
3.26153e+06
1.56969e+07
2.17145e+06
2.02791e+06
2.64079e+06
2.64819e+06
7.35157e+07
7.89338e+07
1.71974e+07
3.61253e+07
3.09772e+06
2.24604e+06
1.95594e+06
2.15577e+06
3.94678e+06
4.69486e+07
2.94515e+06
6.16505e+06
3.36468e+06
3.06608e+06
2.76967e+06
2.69594e+06
3.25915e+07
2.65005e+07
1.20552e+08
2.42158e+06
3.78262e+06
3.90153e+07
2.51307e+09
8.84693e+07
8.88184e+07
8.77285e+07
8.81364e+07
8.72191e+07
8.74803e+07
8.69638e+07
8.70598e+07
8.6746e+07
8.68415e+07
8.6656e+07
8.66791e+07
8.66842e+07
8.66629e+07
8.67668e+07
8.67157e+07
8.69012e+07
8.68312e+07
8.70538e+07
8.69762e+07
8.72152e+07
8.71341e+07
8.7377e+07
8.72963e+07
8.75368e+07
8.74573e+07
8.76919e+07
8.7615e+07
8.78404e+07
8.7767e+07
8.79816e+07
8.79119e+07
8.81151e+07
8.80492e+07
8.82416e+07
8.81791e+07
8.83627e+07
8.83028e+07
8.84755e+07
8.84203e+07
8.85788e+07
8.85284e+07
8.86725e+07
8.86276e+07
8.8713e+07
5.03055e+07
6.63272e+07
3.02381e+07
3.87088e+07
1.94309e+07
2.40132e+07
1.36622e+07
1.60758e+07
1.09482e+07
1.19956e+07
1.04424e+07
1.04426e+07
1.19949e+07
1.09477e+07
1.60745e+07
1.36612e+07
2.40117e+07
1.94294e+07
3.87076e+07
3.02367e+07
6.63287e+07
5.03057e+07
8.87183e+07
8.8623e+07
8.8671e+07
8.85222e+07
8.85733e+07
8.84121e+07
8.84681e+07
8.82938e+07
8.83541e+07
8.81684e+07
8.82319e+07
8.80354e+07
8.81027e+07
8.78946e+07
8.7966e+07
8.7745e+07
8.78208e+07
8.75865e+07
8.76669e+07
8.74198e+07
8.75042e+07
8.72418e+07
8.73328e+07
8.70438e+07
8.71464e+07
8.68167e+07
8.69343e+07
8.6488e+07
8.66713e+07
8.60071e+07
8.62544e+07
8.55825e+07
8.57815e+07
8.53412e+07
8.54339e+07
8.53565e+07
8.53453e+07
8.54723e+07
8.53799e+07
8.58101e+07
8.56225e+07
8.63287e+07
8.60241e+07
8.71071e+07
8.66689e+07
8.84325e+07
8.76593e+07
8.95648e+07
2.29313e+07
1.06388e+08
1.20788e+07
1.34604e+07
6.75709e+06
9.83167e+06
7.05751e+06
1.17725e+07
1.2445e+07
1.21602e+07
1.30934e+07
1.26711e+07
1.47589e+07
1.39913e+07
1.57194e+07
1.78523e+07
7.13034e+07
1.00406e+08
4.0188e+06
1.44075e+07
3.24792e+06
3.95307e+06
5.03782e+06
2.94669e+06
2.76598e+07
1.54128e+07
8.06801e+07
1.47661e+07
1.53379e+07
8.81398e+06
1.17667e+07
1.84529e+07
1.97351e+07
1.72826e+08
1.52994e+07
1.03637e+07
9.74418e+06
8.77223e+06
8.97669e+06
1.50271e+07
9.21216e+06
1.14564e+07
1.04333e+07
2.20132e+07
2.07431e+07
5.88404e+07
9.40275e+06
8.37545e+06
9.29549e+06
3.40409e+06
1.46451e+07
1.6827e+07
1.56951e+07
2.42258e+06
3.33331e+06
2.63795e+06
2.81904e+06
3.64066e+06
2.01362e+07
1.41247e+07
1.2043e+08
1.20407e+08
6.64056e+07
8.87656e+07
2.31013e+07
1.26554e+07
2.46311e+07
3.46512e+07
5.05911e+07
7.39187e+06
6.41849e+06
8.60001e+06
1.09221e+07
2.93377e+06
1.53205e+07
1.95823e+06
2.7067e+06
5.2926e+07
1.79994e+07
3.47782e+07
2.99915e+07
4.50003e+07
5.50853e+06
2.73381e+06
1.64211e+07
1.77501e+06
2.12906e+06
5.3408e+06
3.76575e+07
2.58279e+06
8.65397e+06
4.44731e+06
1.83218e+06
3.91797e+06
4.87144e+07
2.4432e+06
3.3814e+06
3.44606e+07
2.77396e+07
2.27552e+06
2.82727e+06
2.40182e+07
6.62548e+06
2.72038e+06
2.07815e+06
3.71131e+07
4.14474e+07
3.55733e+06
2.99647e+06
1.04421e+07
2.80868e+06
8.29356e+07
1.13248e+08
1.14441e+08
1.11226e+08
1.19961e+08
1.19384e+08
1.19706e+08
1.20022e+08
1.19459e+08
1.19658e+08
1.19385e+08
1.19402e+08
1.19279e+08
1.19326e+08
1.19277e+08
1.19269e+08
1.19342e+08
1.19303e+08
1.19464e+08
1.19396e+08
1.19611e+08
1.19537e+08
1.19759e+08
1.19686e+08
1.19899e+08
1.1983e+08
1.20027e+08
1.19965e+08
1.20142e+08
1.20086e+08
1.2024e+08
1.20193e+08
1.20322e+08
1.20283e+08
1.20385e+08
1.20356e+08
1.20431e+08
1.20411e+08
1.20461e+08
1.20448e+08
1.20479e+08
1.20471e+08
1.2048e+08
1.20482e+08
1.20465e+08
1.20475e+08
1.2045e+08
8.87565e+07
5.03915e+07
6.64022e+07
3.03177e+07
3.87936e+07
1.94955e+07
2.40854e+07
1.37144e+07
1.61336e+07
1.09933e+07
1.20436e+07
1.04861e+07
1.04863e+07
1.2043e+07
1.09929e+07
1.61326e+07
1.37136e+07
2.40841e+07
1.94943e+07
3.87935e+07
3.03167e+07
5.03917e+07
1.20416e+08
1.20449e+08
1.20435e+08
1.2047e+08
1.20461e+08
1.20476e+08
1.20475e+08
1.20466e+08
1.20474e+08
1.20441e+08
1.20455e+08
1.204e+08
1.20422e+08
1.20341e+08
1.20373e+08
1.20263e+08
1.20305e+08
1.20165e+08
1.20217e+08
1.20047e+08
1.20109e+08
1.19903e+08
1.19979e+08
1.19716e+08
1.19816e+08
1.19471e+08
1.1961e+08
1.19076e+08
1.19308e+08
1.18456e+08
1.18766e+08
1.17911e+08
1.18158e+08
1.17609e+08
1.17716e+08
1.17633e+08
1.17618e+08
1.17806e+08
1.17707e+08
1.18035e+08
1.17927e+08
1.18484e+08
1.18264e+08
1.19148e+08
1.18793e+08
1.20324e+08
1.19634e+08
1.22567e+08
1.21298e+08
1.24079e+08
9.89905e+06
5.59748e+06
7.38953e+06
3.34342e+06
4.29798e+06
2.24741e+06
2.10632e+06
2.63554e+06
3.598e+06
3.37679e+06
5.61895e+06
4.32793e+06
7.39698e+06
1.54281e+07
1.58246e+07
1.12201e+07
1.58491e+07
1.53678e+07
1.69899e+07
1.64204e+07
1.75922e+07
2.27935e+07
1.79952e+07
7.29939e+07
9.29082e+06
1.29739e+07
9.74188e+06
1.47335e+07
1.3474e+07
1.41574e+07
1.57042e+07
1.52361e+07
1.65109e+07
1.60972e+07
1.74744e+07
1.69375e+07
1.92074e+07
1.82868e+07
2.03482e+07
1.84655e+07
7.32312e+07
8.74242e+06
6.26234e+07
1.02215e+07
3.19631e+06
1.49839e+07
2.5054e+06
3.04976e+06
4.03756e+06
3.83137e+06
3.14229e+06
2.11291e+07
2.36527e+08
2.96057e+07
1.72524e+08
4.19456e+07
1.20385e+08
1.20397e+08
2.34303e+08
1.40136e+08
2.01424e+07
1.94028e+07
2.07179e+07
1.75666e+08
1.98344e+07
1.43415e+07
1.3507e+07
1.25288e+07
1.26785e+07
1.99536e+07
1.31922e+07
1.57934e+07
1.46051e+07
2.87309e+07
2.14724e+07
9.55527e+07
6.11163e+07
7.08399e+06
6.61716e+06
1.15068e+08
8.47115e+07
8.33919e+06
7.19429e+06
2.40028e+06
2.73434e+06
2.34753e+08
3.03865e+08
1.52941e+07
1.75066e+07
1.63633e+07
1.95048e+06
1.00789e+08
1.00154e+08
1.19532e+08
2.66876e+06
2.08514e+06
2.22515e+06
2.81464e+06
1.47867e+08
2.55753e+07
2.544e+07
2.24604e+07
1.89041e+07
2.87768e+07
1.3043e+08
9.28571e+06
1.26447e+07
3.136e+07
1.88094e+07
2.5543e+07
5.29872e+07
5.48985e+06
5.18736e+06
1.13689e+07
1.70748e+06
1.82186e+06
2.45424e+06
1.60588e+07
1.67107e+06
2.15436e+06
1.85914e+08
7.46382e+06
1.72396e+07
3.11744e+07
8.32606e+07
7.40763e+07
4.76071e+07
9.72107e+07
8.37942e+07
4.13761e+06
3.83109e+06
2.28497e+06
1.25008e+07
6.08405e+06
1.62005e+06
1.77578e+06
5.25774e+06
3.91202e+07
7.61633e+07
8.5112e+07
2.66856e+06
2.84413e+06
2.15571e+06
4.43087e+06
3.66511e+07
2.92391e+07
8.45164e+07
9.96674e+07
8.5447e+07
8.63136e+07
7.68815e+07
7.97009e+07
7.38188e+07
7.92787e+07
2.03328e+06
3.46893e+06
2.52872e+07
5.1219e+06
3.20466e+06
1.88377e+06
3.07114e+06
2.22522e+07
3.41391e+09
1.78217e+06
2.79719e+07
4.44316e+07
2.50856e+08
1.16881e+08
1.62807e+08
1.59597e+08
1.61049e+08
1.61779e+08
1.59031e+08
1.66842e+08
1.65238e+08
1.67401e+08
1.67356e+08
1.67337e+08
1.67355e+08
1.67353e+08
1.67315e+08
1.67349e+08
1.67362e+08
1.67379e+08
1.67358e+08
1.67449e+08
1.67414e+08
1.67553e+08
1.67499e+08
1.67643e+08
1.67601e+08
1.67708e+08
1.67678e+08
1.67747e+08
1.67731e+08
1.6775e+08
1.67753e+08
1.67728e+08
1.67743e+08
1.67672e+08
1.67704e+08
1.67581e+08
1.67631e+08
1.67458e+08
1.67524e+08
1.67301e+08
1.67383e+08
1.67114e+08
1.67211e+08
1.66901e+08
1.6701e+08
1.66661e+08
1.66784e+08
1.66396e+08
1.66532e+08
1.66103e+08
1.66252e+08
1.65794e+08
1.65948e+08
1.65639e+08
8.88072e+07
1.20367e+08
5.04786e+07
6.64816e+07
3.03986e+07
3.88806e+07
1.95612e+07
2.41587e+07
1.37677e+07
1.61925e+07
1.10394e+07
1.20925e+07
1.05309e+07
1.0531e+07
1.20921e+07
1.10391e+07
1.61918e+07
1.3767e+07
2.41579e+07
1.95604e+07
3.88805e+07
3.0398e+07
6.64846e+07
5.04801e+07
1.2038e+08
8.88155e+07
1.65658e+08
1.65962e+08
1.6581e+08
1.66259e+08
1.66111e+08
1.66535e+08
1.66399e+08
1.66788e+08
1.66665e+08
1.67015e+08
1.66905e+08
1.67213e+08
1.67117e+08
1.6738e+08
1.673e+08
1.67516e+08
1.67452e+08
1.67619e+08
1.67572e+08
1.67682e+08
1.67655e+08
1.67707e+08
1.67698e+08
1.67695e+08
1.67709e+08
1.67588e+08
1.67653e+08
1.67372e+08
1.67496e+08
1.66941e+08
1.67217e+08
1.66242e+08
1.66618e+08
1.65623e+08
1.65885e+08
1.6534e+08
1.65397e+08
1.65428e+08
1.65367e+08
1.65632e+08
1.65532e+08
1.65908e+08
1.65755e+08
1.66226e+08
1.66037e+08
1.66743e+08
1.6646e+08
1.67539e+08
1.67075e+08
1.6874e+08
1.68171e+08
1.68858e+08
5.24825e+06
6.92903e+06
3.13212e+06
4.02816e+06
1.97323e+06
2.46944e+06
1.40356e+06
1.31414e+06
1.59874e+06
2.13594e+06
2.00022e+06
3.16049e+06
2.49734e+06
5.26604e+06
4.05198e+06
6.94073e+06
1.75181e+07
1.85306e+07
2.11427e+07
2.09981e+07
2.16662e+07
2.1327e+07
2.28196e+07
2.21894e+07
2.47668e+07
2.36476e+07
2.64546e+07
2.68394e+07
1.63225e+07
1.30004e+07
1.75478e+07
1.38008e+07
2.01947e+07
1.86651e+07
1.95088e+07
2.12887e+07
2.07659e+07
2.22821e+07
2.17757e+07
2.35392e+07
2.28728e+07
2.54564e+07
2.44132e+07
2.68014e+07
1.91643e+07
7.56497e+07
6.81503e+06
5.0291e+07
6.43031e+07
7.78094e+06
2.56529e+06
2.34242e+08
2.99402e+08
1.56433e+07
8.53402e+07
1.99249e+06
1.80963e+08
1.45281e+08
2.41645e+06
2.9749e+06
1.20923e+08
2.96083e+08
1.92576e+07
2.83998e+07
1.31589e+07
3.84774e+08
3.82477e+08
1.99219e+07
2.85671e+07
2.85823e+08
4.46771e+06
4.21767e+07
2.599e+07
1.42008e+08
6.45552e+07
5.74421e+08
1.75743e+07
1.63461e+07
2.71182e+07
4.89089e+06
2.01629e+07
1.8432e+07
1.83928e+07
2.71444e+07
1.94605e+07
2.22018e+07
2.09207e+07
2.23079e+07
1.00472e+08
6.39038e+07
5.38492e+06
5.2756e+06
8.64609e+07
6.30258e+06
5.57049e+06
1.94814e+06
2.25067e+06
3.96249e+08
1.6034e+07
1.82821e+07
1.71242e+07
7.50619e+07
7.37013e+07
1.37247e+08
1.62656e+06
1.18264e+08
2.19654e+06
1.70037e+06
1.80789e+06
2.22758e+06
1.01598e+08
1.49466e+08
1.07514e+07
7.45221e+07
1.81641e+07
6.96522e+07
2.32066e+08
2.31648e+08
1.20368e+08
1.65511e+08
2.47456e+07
2.31141e+07
4.99554e+07
4.23657e+07
2.88018e+07
2.65674e+07
5.58485e+07
5.74548e+08
2.30264e+09
1.15257e+08
4.12815e+06
7.52819e+06
1.65037e+08
1.19026e+08
4.07666e+06
1.4974e+06
2.05004e+06
1.85934e+07
8.58896e+06
1.68944e+07
6.99586e+07
1.4857e+06
9.94447e+07
3.20318e+06
1.77216e+06
1.86722e+08
7.34236e+06
2.38169e+08
2.38029e+08
7.44152e+07
3.24261e+07
5.09003e+07
9.75476e+07
3.02879e+06
1.09748e+06
1.17105e+06
1.91547e+06
6.04159e+06
4.38769e+07
1.53722e+06
8.79736e+07
3.90457e+07
3.09887e+07
4.05794e+07
4.43971e+08
8.69723e+07
2.27472e+06
1.80687e+06
4.46515e+06
8.38743e+07
2.67606e+07
4.02952e+06
3.97515e+06
1.62514e+06
1.73356e+06
1.70303e+06
3.6514e+06
2.35362e+07
3.48326e+06
7.28336e+07
1.61183e+06
2.10693e+07
4.057e+06
3.96761e+07
8.02528e+08
3.73258e+08
8.06581e+08
1.68353e+08
2.39612e+08
2.33174e+08
2.35749e+08
2.30793e+08
2.31645e+08
2.33155e+08
2.30681e+08
2.38019e+08
2.35925e+08
2.39513e+08
2.39147e+08
2.39668e+08
2.39562e+08
2.39746e+08
2.39663e+08
2.39744e+08
2.39759e+08
2.39714e+08
2.39718e+08
2.39673e+08
2.39699e+08
2.39611e+08
2.39647e+08
2.39499e+08
2.39564e+08
2.39326e+08
2.3942e+08
2.39096e+08
2.39219e+08
2.38805e+08
2.38958e+08
2.38457e+08
2.38638e+08
2.3805e+08
2.38261e+08
2.37586e+08
2.37825e+08
2.37063e+08
2.37331e+08
2.36484e+08
2.36781e+08
2.35854e+08
2.36175e+08
2.35176e+08
2.35521e+08
2.34455e+08
2.34821e+08
2.33693e+08
2.34079e+08
2.32893e+08
2.33297e+08
2.32481e+08
1.6549e+08
8.88618e+07
1.20355e+08
5.05691e+07
6.65625e+07
3.04808e+07
3.8969e+07
1.96279e+07
2.42331e+07
1.38218e+07
1.62523e+07
1.10864e+07
1.21424e+07
1.05764e+07
1.05765e+07
1.2142e+07
1.10861e+07
1.62518e+07
1.38213e+07
2.42327e+07
1.96274e+07
3.89694e+07
3.04807e+07
6.65668e+07
5.05707e+07
8.88691e+07
2.31678e+08
2.32504e+08
2.32091e+08
2.33316e+08
2.32914e+08
2.34098e+08
2.33711e+08
2.34842e+08
2.34476e+08
2.35542e+08
2.35198e+08
2.36194e+08
2.35874e+08
2.36795e+08
2.36501e+08
2.37342e+08
2.37075e+08
2.37831e+08
2.37594e+08
2.3826e+08
2.38054e+08
2.38623e+08
2.3845e+08
2.38901e+08
2.38777e+08
2.39019e+08
2.3898e+08
2.39018e+08
2.39033e+08
2.38648e+08
2.38857e+08
2.37954e+08
2.38324e+08
2.37358e+08
2.37596e+08
2.37263e+08
2.37218e+08
2.37565e+08
2.37377e+08
2.37925e+08
2.37739e+08
2.38185e+08
2.38073e+08
2.38413e+08
2.38295e+08
2.38716e+08
2.38553e+08
2.39071e+08
2.38898e+08
2.39066e+08
2.39184e+08
2.38319e+08
1.60388e+07
8.61244e+06
1.16733e+07
4.88412e+06
6.44365e+06
2.91961e+06
3.75223e+06
1.84148e+06
2.30273e+06
1.22812e+06
1.49298e+06
934724
875606
1.02711e+06
1.34068e+06
1.25282e+06
1.86511e+06
1.51675e+06
2.94311e+06
2.3265e+06
4.90574e+06
3.77302e+06
8.66329e+06
6.46748e+06
1.17954e+07
2.60527e+07
2.92842e+07
2.89643e+07
3.00154e+07
2.96109e+07
3.13758e+07
3.05879e+07
3.37825e+07
3.24168e+07
3.90929e+07
3.57738e+07
4.41475e+07
2.20737e+07
1.86808e+07
2.42214e+07
2.01016e+07
2.63696e+07
2.22849e+07
2.50991e+07
2.81612e+07
2.73566e+07
2.94417e+07
2.882e+07
3.07119e+07
3.00666e+07
3.22515e+07
3.14212e+07
3.44057e+07
3.32294e+07
3.78786e+07
3.58931e+07
1.84808e+08
1.99612e+07
7.90942e+07
5.31074e+06
5.19031e+07
6.59694e+07
6.0011e+06
2.08919e+06
3.86028e+08
1.63912e+07
7.40173e+07
4.05608e+08
3.06529e+08
1.63661e+06
1.42704e+08
1.9593e+06
2.357e+06
1.22206e+08
1.55674e+08
1.6171e+07
1.92065e+07
6.67336e+07
4.03426e+07
8.90476e+07
4.56186e+08
1.27193e+08
7.44401e+06
6.59528e+07
2.31237e+08
2.31271e+08
1.50337e+07
2.11505e+07
3.86939e+07
3.81957e+07
2.94808e+07
2.78601e+07
2.74886e+07
3.7425e+07
2.96967e+07
3.18034e+07
3.0731e+07
5.66777e+07
5.42311e+07
2.3254e+07
1.07225e+08
6.7219e+07
1.14864e+08
2.94427e+08
1.89217e+08
1.83429e+08
4.12195e+06
4.22016e+06
8.84294e+07
4.32887e+06
1.60232e+06
1.8681e+06
2.85209e+07
1.25038e+07
1.68721e+07
1.9166e+07
1.79898e+07
6.72851e+07
1.17759e+09
4.13688e+08
2.3224e+08
6.45441e+07
6.41546e+07
1.40525e+06
4.69381e+07
1.17365e+08
1.50953e+06
2.52057e+06
1.81429e+06
3.44002e+08
1.5087e+08
1.07105e+07
3.44967e+08
3.38587e+08
2.24293e+08
5.80089e+07
4.56901e+07
3.69219e+07
1.03094e+08
3.687e+07
2.76993e+07
5.93454e+07
3.77487e+08
2.81737e+08
1.03641e+08
1.14455e+08
2.82684e+08
3.19254e+06
5.95829e+09
1.21772e+08
3.22256e+06
1.24918e+06
1.72126e+06
5.23909e+08
1.03406e+08
8.53977e+06
4.23779e+07
1.78417e+07
6.4894e+07
1.05232e+06
1.16407e+06
977785
1.37885e+06
2.86887e+08
2.94124e+08
4.17215e+07
9.95443e+07
1.43976e+09
5.99238e+08
1.14712e+07
3.29444e+07
1.50909e+06
3.37796e+07
5.70441e+07
6.56483e+07
1.91461e+08
5.51818e+07
9.78984e+07
5.27998e+08
3.75622e+08
2.45087e+08
1.73088e+08
2.41951e+06
995842
1.61384e+06
573472
647491
603987
1.25704e+08
6.02752e+06
2.40074e+08
1.53996e+08
9.06593e+07
1.09983e+06
2.84379e+07
3.00543e+06
5.30755e+07
8.43265e+07
4.21326e+07
1.07338e+09
2.86439e+08
9.0397e+08
8.99909e+07
5.21252e+06
1.84377e+06
764735
814467
1.5267e+06
688306
7.64085e+06
4.5853e+06
2.49968e+07
4.15601e+06
7.26708e+07
1.42754e+06
1.45431e+06
3.98272e+06
2.23636e+07
2.03788e+07
6.4778e+07
1.12452e+06
1.41155e+06
6.32878e+07
1.78195e+09
5.41694e+08
5.31135e+08
5.26298e+08
3.67899e+08
4.96624e+08
5.14973e+08
2.52965e+08
3.66243e+08
3.50597e+08
3.57069e+08
3.43499e+08
3.4636e+08
3.41293e+08
3.42013e+08
3.4358e+08
3.41214e+08
3.48592e+08
3.4624e+08
3.50932e+08
3.50077e+08
3.5131e+08
3.51206e+08
3.51279e+08
3.51305e+08
3.51102e+08
3.51236e+08
3.5081e+08
3.50953e+08
3.50394e+08
3.50622e+08
3.49888e+08
3.50155e+08
3.4927e+08
3.49594e+08
3.4854e+08
3.48919e+08
3.47706e+08
3.48136e+08
3.46769e+08
3.4725e+08
3.45732e+08
3.46263e+08
3.44596e+08
3.45176e+08
3.43364e+08
3.43992e+08
3.42037e+08
3.42712e+08
3.40619e+08
3.41339e+08
3.39115e+08
3.39877e+08
3.37533e+08
3.38334e+08
3.3588e+08
3.36715e+08
3.34161e+08
3.35028e+08
3.32388e+08