/*--------------------------------*- C++ -*----------------------------------*\
| =========                 |                                                 |
| \\      /  F ield         | OpenFOAM: The Open Source CFD Toolbox           |
|  \\    /   O peration     | Version:  2212                                  |
|   \\  /    A nd           | Website:  www.openfoam.com                      |
|    \\/     M anipulation  |                                                 |
\*---------------------------------------------------------------------------*/
FoamFile
{
    version     2.0;
    format      ascii;
    arch        "LSB;label=32;scalar=64";
    class       volScalarField;
    location    "0.033";
    object      p;
}
// * * * * * * * * * * * * * * * * * * * * * * * * * * * * * * * * * * * * * //

dimensions      [1 -1 -2 0 0 0 0];

internalField   nonuniform List<scalar> 
7220
(
192.587
515.526
515.829
515.858
515.268
515.571
515.791
515.256
515.85
515.564
192.58
515.534
426.807
185.1
181.098
517.032
262.283
187.349
266.447
188.743
314.452
466.373
514.972
461.367
510.382
493.702
510.768
184.18
313.114
365.751
510.681
392.274
511.982
352.669
511.071
191.013
516.703
193.061
192.867
175.233
175.911
175.913
175.236
188.63
189.078
189.42
188.995
188.593
176.584
177.252
177.255
176.586
177.916
178.575
178.579
177.919
179.229
179.878
179.881
179.233
180.52
181.156
181.16
180.524
181.786
182.408
182.412
181.79
183.023
183.63
183.635
183.028
184.228
184.816
184.822
184.233
185.393
185.959
185.967
185.4
186.511
187.05
187.064
186.521
188.108
187.592
187.577
188.078
188.551
188.111
174.551
174.553
175.914
175.236
189.795
189.795
188.997
189.457
187.568
186.506
187.043
185.388
185.954
184.223
184.811
183.019
183.626
181.782
182.404
180.516
181.152
179.225
179.874
177.912
178.571
176.579
177.248
175.229
175.906
177.257
176.587
178.581
177.921
179.884
179.235
181.163
180.527
182.416
181.793
183.64
183.032
184.828
184.239
185.976
185.408
187.073
186.531
187.597
188.072
174.548
174.553
188.685
188.161
190.143
189.866
188.56
189.036
188.572
189.29
189.495
189.052
187.57
188.08
186.504
187.042
185.386
185.953
184.22
184.809
183.016
183.623
181.779
182.401
180.512
181.149
179.221
179.87
177.907
178.567
176.574
177.243
175.223
175.9
173.862
173.856
174.541
173.867
173.865
174.551
173.864
173.867
175.912
175.234
177.256
176.586
178.581
177.921
179.885
179.236
181.166
180.529
182.42
181.796
183.645
183.036
184.837
184.245
185.991
185.419
187.101
186.552
187.636
190.131
189.66
188.719
188.178
173.172
173.166
174.546
173.859
190.21
190.53
190.564
189.945
188.571
190.529
190.116
189.513
189.248
189.05
187.567
188.081
186.505
187.046
185.385
185.953
184.219
184.808
183.014
183.621
181.776
182.399
180.508
181.145
179.216
179.865
177.901
178.561
176.567
177.237
175.215
175.893
173.847
174.533
173.174
173.172
173.174
173.177
175.909
175.229
177.254
176.584
178.58
177.92
179.886
179.236
181.167
180.53
182.423
181.799
183.65
183.04
184.844
184.251
186
185.427
187.112
186.565
187.652
189.657
173.158
173.168
190.265
190.908
190.906
190.603
189.507
188.723
188.192
189.219
189.973
173.837
173.146
172.481
172.474
190.377
190.922
191.258
191.257
191.867
191.59
191.568
190.631
189.531
188.589
189.071
187.579
188.094
186.51
187.056
185.388
185.957
184.22
184.81
183.013
183.621
181.773
182.397
180.504
181.142
179.211
179.86
177.895
178.555
176.559
177.229
175.206
175.885
174.523
172.465
172.48
172.474
172.475
172.473
172.483
173.16
174.539
173.851
175.903
175.223
177.25
176.579
178.578
177.917
179.885
179.234
181.168
180.529
182.425
181.8
183.654
183.043
184.849
184.256
186.007
185.434
187.122
186.574
187.665
190.123
189.679
190.939
190.556
191.306
189.956
172.453
172.465
188.728
188.209
189.225
191.693
190.437
190.964
191.271
191.878
190.656
191.72
189.57
191.579
189.984
190.023
192.144
188.617
189.104
187.599
188.117
186.521
187.069
185.394
185.966
184.222
184.814
183.012
183.621
181.769
182.394
180.499
181.138
179.204
179.855
177.887
178.548
176.55
177.221
175.195
175.874
173.824
174.511
172.438
173.133
171.74
171.768
171.755
171.783
171.778
171.771
171.77
171.784
171.786
171.766
171.776
171.754
173.149
172.453
174.53
173.842
175.896
175.215
177.245
176.573
178.574
177.912
179.883
179.231
181.168
180.528
182.427
181.801
183.657
183.046
184.854
184.26
186.013
185.441
187.131
186.584
187.677
190.151
189.701
191.014
190.601
191.419
190.42
190.385
191.051
190.462
188.731
188.221
189.226
172.422
171.723
171.064
171.051
191.288
191.589
191.874
192.319
192.258
192.569
192.547
190.865
190.805
192.16
191.095
190.899
192.295
190.481
189.601
190.047
188.638
189.126
187.612
188.134
186.531
187.08
185.398
185.972
184.222
184.816
183.009
183.62
181.765
182.391
180.493
181.132
179.196
179.847
177.877
178.539
176.538
177.21
175.182
175.862
173.809
174.497
173.117
171.038
171.067
171.054
171.082
171.078
171.065
171.064
171.083
171.085
171.075
171.739
173.136
172.439
174.519
173.83
175.887
175.205
177.237
176.564
178.568
177.905
179.879
179.226
181.166
180.525
182.427
181.8
183.659
183.047
184.859
184.264
186.02
185.446
187.137
186.593
187.686
190.146
189.701
190.971
190.577
191.661
191.33
192.118
190.783
190.91
171.02
171.035
188.229
188.736
191.292
191.319
191.332
191.61
191.878
192.141
192.725
192.696
192.81
192.545
510.843
192.33
191.291
191.306
190.498
190.92
189.625
190.073
188.656
189.141
187.624
188.147
186.538
187.087
185.401
185.974
184.222
184.816
183.006
183.618
181.759
182.386
180.484
181.125
179.186
179.838
177.865
178.528
176.525
177.197
175.166
175.848
173.792
174.481
172.402
173.099
170.999
171.702
170.291
170.333
170.314
170.362
170.349
170.377
170.374
170.357
170.356
170.379
170.38
170.358
170.369
170.327
170.344
170.307
171.721
171.016
173.121
172.423
174.506
173.815
175.875
175.193
177.227
176.553
178.56
177.896
179.872
179.219
181.162
180.52
182.425
181.797
183.66
183.047
184.863
184.266
186.028
185.449
187.146
186.597
187.694
190.148
189.231
189.703
190.979
190.568
191.769
191.336
192.317
192.141
192.76
192.579
192.958
192.946
192.821
192.887
191.308
513.702
191.641
191.662
191.651
516.115
170.974
170.266
169.616
169.595
191.899
192.852
192.148
192.782
192.672
192.357
192.542
514.891
511.126
511.719
510.133
492.544
511.949
191.612
191.579
512.765
191.94
192.819
192.828
191.529
191.622
191.956
513.083
191.968
492.862
192.244
192.275
514.301
192.932
192.488
192.579
192.726
192.006
192.332
191.328
191.689
190.516
190.945
189.641
190.097
188.672
189.161
187.635
188.157
186.544
187.092
185.402
185.977
184.219
184.815
183
183.613
181.75
182.379
180.474
181.115
179.173
179.826
177.851
178.514
176.509
177.182
175.149
175.831
173.772
174.462
172.38
173.078
171.679
169.58
169.623
169.603
169.654
169.64
169.669
169.666
169.644
169.644
169.671
169.671
169.648
169.66
169.633
170.284
171.7
170.994
173.103
172.403
174.49
173.798
175.861
175.177
177.215
176.54
178.55
177.885
179.864
179.209
181.155
180.513
182.422
181.792
183.659
183.044
184.865
184.266
186.034
185.451
187.158
186.599
188.236
187.701
189.241
188.747
190.164
189.712
191.003
190.581
191.788
191.38
192.356
192.067
192.717
192.55
192.798
511.452
512.293
511.986
191.575
191.728
511.842
185.231
505.864
192.989
169.554
169.571
509.956
191.926
191.907
191.965
191.932
192.792
510.288
192.224
192.947
193.042
193.2
192.165
192.811
192.75
192.468
220.436
192.368
183.853
192.753
511.027
192.542
192.662
513.193
512.344
192.374
510.664
511.346
516.108
192.854
193.053
192.08
192.457
191.358
191.729
190.536
190.97
189.657
190.118
188.682
189.179
187.642
188.168
186.546
187.097
185.4
185.977
184.214
184.811
182.992
183.607
181.74
182.369
180.46
181.103
179.157
179.812
177.833
178.498
176.49
177.164
175.128
175.811
173.75
174.441
172.356
173.055
170.947
171.653
169.525
170.238
168.808
168.865
168.838
168.91
168.889
168.942
168.927
168.956
168.954
168.929
168.929
168.959
168.959
168.935
168.948
168.901
168.919
168.853
168.879
168.825
170.258
169.543
171.677
170.969
173.081
172.381
174.47
173.778
175.843
175.159
177.199
176.524
178.536
177.87
179.852
179.197
181.146
180.502
182.415
181.784
183.656
183.039
184.864
184.264
186.035
185.454
187.163
186.602
188.243
187.709
189.253
188.758
190.179
189.724
191.025
190.608
191.776
191.414
192.364
192.063
192.741
192.543
192.837
508.811
509.519
192.867
513.736
512.849
191.913
191.951
510.23
192.762
192.685
508.474
511.344
515.071
192.206
193.022
193.065
193.13
192.182
192.199
192.186
508.558
192.793
515.814
169.493
168.775
168.133
168.103
192.777
511.863
192.459
192.515
514.2
516.412
517.016
517.666
510.128
192.38
498.957
498.731
507.882
511.833
499.31
497.837
192.731
192.367
512.858
513.37
513.049
512.555
506.982
192.55
192.729
192.923
513.421
192.668
498.741
496.934
497.095
193.027
512.798
496.9
512.078
510.957
192.429
516.386
192.09
489.192
192.404
192.496
191.994
192.268
191.351
191.706
190.545
190.978
189.666
190.13
188.69
189.191
187.645
188.174
186.544
187.101
185.395
185.975
184.206
184.805
182.981
183.597
181.726
182.357
180.444
181.088
179.139
179.794
177.813
178.478
176.467
177.142
175.104
175.788
173.724
174.416
172.328
173.028
170.918
171.625
170.207
168.088
168.147
168.119
168.192
168.171
168.226
168.21
168.24
168.239
168.213
168.212
168.243
168.243
168.218
168.231
168.182
168.201
168.159
168.793
170.229
169.513
171.65
170.941
173.057
172.355
174.448
173.754
175.823
175.137
177.18
176.504
178.519
177.852
179.838
179.181
181.134
180.489
182.406
181.773
183.649
183.031
184.86
184.26
186.033
185.454
187.164
186.606
188.25
187.715
189.267
188.766
190.195
189.736
191.046
190.624
191.774
191.427
192.383
192.083
192.802
192.577
192.915
508.61
514.661
515.288
514.896
510.664
512.548
495.028
192.199
193.055
193.019
192.192
501.14
502.302
500.708
505.823
503.641
504.825
510.011
504.96
212.962
192.714
192.767
512.912
168.053
168.069
192.769
509.272
502.88
507.212
506.43
511.839
192.453
516.054
192.671
517.347
512.247
511.472
511.609
514.818
192.397
192.425
192.42
500.437
507.211
503.491
504.739
500.186
499.054
501.019
501.94
505.027
508.424
496.352
513.154
513.714
517.306
510.163
499.937
192.686
192.489
508.503
512.042
505.763
192.56
500.407
498.278
499.638
501.34
192.751
192.863
184.991
192.085
511.06
512.219
515.458
516.362
516.096
516.034
513.821
192.671
498.761
500.373
499.189
500.904
185.426
512.007
192.731
192.993
513.123
498.941
500.449
500.658
495.07
192.986
512.493
496.915
497.765
494.907
511.919
497.322
192.114
192.622
185.231
497.072
515.35
191.546
180.373
192.614
192.936
192.055
192.378
191.373
191.747
190.558
191.001
189.675
190.146
188.695
189.201
187.645
188.178
186.539
187.1
185.387
185.969
184.194
184.795
182.966
183.584
181.708
182.341
180.424
181.069
179.117
179.773
177.789
178.455
176.442
177.118
175.077
175.761
173.695
174.388
172.297
172.998
170.885
171.593
169.457
170.173
168.015
168.738
167.288
167.363
167.327
167.425
167.396
167.472
167.45
167.506
167.49
167.522
167.52
167.495
167.495
167.524
167.524
167.497
167.512
167.46
167.48
167.408
167.436
167.342
167.377
167.304
168.758
168.033
170.196
169.479
171.62
170.91
173.029
172.326
174.422
173.727
175.798
175.112
177.158
176.48
178.498
177.83
179.819
179.162
181.118
180.472
182.393
181.759
183.639
183.02
184.853
184.252
186.028
185.45
187.166
186.607
188.254
187.716
189.278
188.771
190.207
189.745
191.051
190.646
191.78
191.454
192.387
192.128
192.836
192.633
193.064
192.98
193.098
192.667
509.993
515.674
512.406
502.929
508.566
504.703
515.548
514.659
515.103
513.388
514.337
512.665
513.193
512.394
192.438
192.746
184.179
515.08
192.411
502.007
506.021
503.522
509.614
510.521
511.846
192.492
516.656
516.252
513.955
514.311
512.639
511.683
185.557
507.187
504.852
503.58
497.871
499.968
508.771
501.872
506.439
505.325
512.29
192.652
192.54
509.18
511.389
515.501
514.389
192.574
192.621
192.603
501.869
507.747
504.506
505.662
502.831
192.717
517.011
167.973
167.245
166.612
166.572
509.496
498.639
192.818
511.47
192.102
508.224
511.784
515.679
516.308
514.11
192.673
501.902
502.538
511.667
192.753
510.076
192.938
191.534
506.329
513.486
192.728
501.919
502.197
493.019
193
512.881
495.533
496.208
501.989
492.839
193.046
512.183
495.646
191.678
192.373
511.131
495.267
192.502
513.492
495.05
510.502
510.191
190.91
515.631
515.138
516.655
515.417
192.989
193.107
192.597
193.327
192.75
192.868
192.174
192.478
191.42
191.799
190.582
191.031
189.688
190.16
188.698
189.206
187.644
188.178
186.532
187.095
185.376
185.96
184.179
184.782
182.948
183.567
181.687
182.321
180.4
181.047
179.091
179.748
177.761
178.429
176.412
177.089
175.046
175.731
173.662
174.356
172.263
172.965
170.848
171.558
169.418
170.135
168.698
166.557
166.635
166.598
166.699
166.669
166.748
166.725
166.784
166.767
166.801
166.798
166.777
166.777
166.802
166.803
166.774
166.789
166.735
166.756
166.681
166.709
166.648
167.262
168.719
167.993
170.16
169.442
171.586
170.875
172.997
172.293
174.391
173.696
175.77
175.083
177.131
176.453
178.474
177.805
179.797
179.138
181.098
180.45
182.375
181.74
183.625
183.003
184.844
184.24
186.021
185.441
187.164
186.601
188.255
187.715
189.287
188.772
190.217
189.753
191.059
190.669
191.808
191.466
192.414
192.141
192.872
192.672
193.131
193.031
193.179
193.173
193.133
516.973
516.377
516.66
515.883
516.11
515.219
515.46
515.659
515.617
515.878
516.384
516.124
516.699
515.694
515.742
514.825
514.477
514.922
513.518
514.032
513.043
510.762
509.772
193.475
501.902
507.724
503.725
516.598
517.316
516.966
515.803
516.21
514.949
515.376
513.927
514.57
513.102
513.55
512.66
192.633
192.589
510.489
193.019
514.811
514.811
192.589
503.207
506.752
505.712
504.22
506.114
192.584
180.263
511.803
192.711
510.796
166.512
166.528
183.726
186.263
516.933
517.324
516.518
259.803
506.791
505.164
503.45
496.601
498.872
508.347
500.681
505.745
504.298
512.187
192.784
192.429
192.218
508.976
511.092
193.058
193.028
514.483
515.155
514.962
514.446
181.995
180.339
192.686
192.734
192.72
503.277
184.841
185.488
185.509
508.122
505.581
506.688
503.946
183.802
481.523
486.023
509.554
192.722
509.005
191.662
517.269
517.636
509.036
497.18
192.89
191.618
507.902
511.475
515.933
515.268
515.048
513.905
192.725
503.406
503.712
182.226
491.084
192.747
192.966
185.938
185.913
190.868
186.301
185.973
506.992
515.334
513.287
494.084
494.638
503.268
503.373
490.536
193.001
187.044
187.59
515.659
515.403
512.621
493.901
191.178
192.051
185.398
186.327
186.222
187.351
186.906
187.763
186.903
187.645
511.812
493.373
192.23
513.395
492.801
511.297
493.012
192.385
218.05
510.427
517.223
190.286
179.737
192.929
193.003
193.194
193.12
192.834
193.241
192.692
192.795
192.202
192.443
191.44
191.806
190.597
191.043
189.697
190.164
188.696
189.206
187.639
188.174
186.522
187.085
185.36
185.946
184.159
184.764
182.925
183.546
181.662
182.297
180.373
181.02
179.061
179.719
177.729
178.397
176.378
177.056
175.01
175.696
173.626
174.32
172.225
172.927
170.809
171.519
169.376
170.095
167.928
168.654
166.464
167.199
165.726
165.822
165.776
165.904
165.865
165.97
165.939
166.022
165.998
166.059
166.042
166.078
166.073
166.058
166.058
166.076
166.08
166.048
166.063
166.006
166.029
165.949
165.98
165.877
165.915
165.79
165.836
165.741
167.217
166.481
168.677
167.949
170.121
169.401
171.549
170.837
172.961
172.257
174.357
173.661
175.737
175.049
177.1
176.421
178.445
177.775
179.77
179.11
181.074
180.425
182.354
181.717
183.607
182.984
184.829
184.222
186.013
185.426
187.156
186.591
188.252
187.713
189.289
188.773
190.23
189.759
191.079
190.675
191.844
191.468
192.451
192.149
192.904
192.693
193.123
193.051
193.045
193.143
192.764
516.635
516.934
516.097
516.344
515.654
515.864
515.104
515.292
515.46
515.455
515.659
516.1
515.871
516.634
516.358
516.961
518.055
517.7
515.816
516.109
514.766
515.248
513.881
514.351
513.039
513.448
512.331
519.577
505.391
501.108
507.093
502.585
516.889
517.69
517.288
516.052
516.48
515.198
515.646
514.325
514.792
513.457
513.891
512.939
192.754
192.435
510.101
193.047
193.031
514.625
514.689
181.055
179.616
192.704
185.494
504.414
184.736
185.546
507.588
504.944
184.466
179.3
502.154
500.581
191.411
181.329
184.737
192.595
516.795
182.733
512.387
511.045
505.583
192.344
185.575
187.707
518.048
518.388
517.642
511.692
503.906
495.357
497.745
507.837
499.463
505.075
503.473
192.847
192.267
191.849
508.993
510.787
192.866
514.279
514.896
514.797
514.275
179.117
192.74
192.787
192.775
186.121
185.16
424.326
504.789
186.417
508.588
506.582
507.688
505.276
184.382
182.718
489.277
185.156
192.703
186.506
166.413
165.673
165.048
164.997
518.461
518.838
510.753
509.587
495.545
192.916
191.004
192.151
185.827
185.772
508.071
514.165
192.79
192.694
515.046
514.889
513.678
492.629
492.99
192.74
186.358
504.58
187.712
507.348
504.663
181.582
488.255
192.873
192.826
186.656
192.967
190.18
187.837
515.116
515.136
514.956
513.065
492.099
490.692
504.4
188.559
190.64
191.651
192.939
177.172
188.488
515.214
512.395
491.359
188.781
191.893
512.952
490.457
515.467
515.267
511.747
490.934
192.064
490.576
185.561
511.062
192.408
511.856
517.497
190.455
186.875
186.554
192.558
192.63
193.053
192.885
193.224
193.188
193.011
193.176
192.681
192.831
192.172
192.42
191.441
191.816
190.607
191.048
189.697
190.167
188.69
189.204
187.627
188.168
186.506
187.072
185.34
185.928
184.135
184.742
182.898
183.52
181.632
182.268
180.34
180.989
179.026
179.686
177.693
178.362
176.34
177.019
174.971
175.658
173.585
174.28
172.183
172.886
170.765
171.476
169.331
170.05
167.881
168.608
167.149
164.983
165.083
165.035
165.169
165.128
165.239
165.206
165.293
165.268
165.331
165.314
165.351
165.346
165.342
165.341
165.349
165.353
165.319
165.336
165.275
165.299
165.215
165.247
165.139
165.179
165.096
165.689
167.169
166.431
168.632
167.903
170.078
169.357
171.507
170.794
172.921
172.216
174.318
173.622
175.7
175.011
177.065
176.384
178.411
177.74
179.739
179.078
181.045
180.395
182.328
181.69
183.584
182.959
184.81
184.201
185.999
185.408
187.143
186.577
188.244
187.705
189.286
188.774
190.237
189.763
191.098
190.679
191.857
191.484
192.478
192.179
192.938
192.726
193.16
193.087
193.124
193.182
192.972
518.287
517.539
517.915
516.861
517.181
516.285
516.553
515.817
516.039
515.439
515.615
515.002
515.137
515.277
515.296
515.446
515.825
515.627
516.297
516.05
516.866
516.56
517.572
517.205
517.97
518.055
515.981
516.381
515.083
515.52
514.237
514.658
513.412
513.823
512.586
512.952
512.341
504.563
499.986
506.52
501.585
518.08
518.657
518.526
517.181
517.616
516.314
516.749
515.463
515.896
514.632
515.051
513.809
514.216
513.019
513.415
183.309
192.812
192.138
509.908
192.937
192.871
514.325
514.532
178.443
192.759
185.549
180.902
182.111
505.472
186.977
508.543
506.442
183.494
336.344
486.275
192.567
185.883
517.05
186.211
514.695
328.022
506.406
509.846
164.928
164.942
518.696
519.175
517.952
508.222
502.241
494.16
496.593
507.719
498.207
504.495
502.794
512.936
512.288
192.865
191.875
191.308
434.091
408.957
402.015
436.632
509.128
510.545
192.557
514.766
514.618
514.044
491.169
491.293
192.755
192.803
192.791
185.924
490.667
182.863
185.667
185.398
185.415
505.935
503.517
187.816
508.117
506.979
505.757
487.8
182.245
485.934
192.994
192.488
191.379
508.927
494.022
519.578
183.698
519.961
192.895
190.404
179.36
181.11
183.921
187.851
186.957
508.267
214.821
192.418
514.767
514.741
513.473
300.537
342.34
490.216
487.128
192.681
186.115
515.296
515.565
515.403
505.174
320.02
306.982
495.387
189.618
517.207
516.246
493.495
191.155
505.636
192.872
186.351
185.926
181.126
189.368
189.257
186.498
189.331
192.28
192.17
514.938
514.818
512.887
514.958
515.219
514.912
355.15
489.352
325.995
379.329
189.794
509.526
191.461
511.069
188.024
518.507
192.754
274.655
184.922
517.873
190.02
487.871
515.032
515.023
514.89
512.243
515.039
493.421
488.601
191.656
487.928
185.469
515.105
511.611
488.242
192.124
192.365
185.584
515.157
510.626
510.745
184.094
192.754
179.157
182.105
178.1
176.419
177.427
191.841
191.932
192.701
192.384
193.141
192.956
193.25
193.24
193.083
193.199
192.7
192.891
192.157
192.449
191.446
191.837
190.617
191.055
189.693
190.168
188.682
189.199
187.612
188.157
186.486
187.055
185.316
185.906
184.107
184.716
182.866
183.491
181.597
182.235
180.303
180.953
178.987
179.648
177.652
178.322
176.298
176.977
174.927
175.614
173.54
174.235
172.137
172.84
170.718
171.429
169.282
170.002
167.83
168.558
166.359
167.097
164.87
165.617
164.117
164.235
164.178
164.34
164.29
164.43
164.387
164.504
164.469
164.56
164.534
164.6
164.582
164.621
164.614
164.623
164.623
164.617
164.623
164.587
164.604
164.541
164.566
164.478
164.512
164.398
164.44
164.302
164.352
164.191
164.248
164.131
165.634
164.885
167.118
166.378
168.583
167.852
170.03
169.309
171.461
170.748
172.876
172.171
174.275
173.578
175.658
174.969
177.024
176.343
178.373
177.701
179.703
179.041
181.012
180.36
182.297
181.658
183.557
182.93
184.786
184.175
185.981
185.386
187.129
186.559
188.235
187.691
189.279
188.77
190.24
189.767
191.11
190.688
191.879
191.506
192.512
192.211
192.982
192.766
193.233
193.147
193.258
193.265
193.165
518.647
519.167
517.783
518.193
517.058
517.402
516.443
516.728
515.949
516.179
515.548
515.735
515.233
515.384
515.084
515.956
515.749
516.453
516.192
517.068
516.736
517.816
517.422
518.244
519.643
518.886
519.331
518.417
516.185
516.615
515.353
515.758
514.555
514.932
513.795
514.174
513.071
513.429
512.641
509.366
188.567
498.644
506.038
500.627
518.38
518.84
517.459
517.921
516.561
517.005
515.711
516.131
514.903
515.303
514.129
514.515
513.25
513.734
513.164
192.829
191.543
423.821
412.762
510.018
192.747
192.539
514.134
514.35
327.779
327.471
487.828
489.59
518.247
497.518
499.186
175.659
173.88
187.524
517.209
177.365
192.775
185.619
190.008
184.429
185.479
506.459
310.307
187.656
508.616
508.124
506.608
182.937
332.378
465.677
467.392
483.024
517.181
196.677
191.256
503.652
177.492
182.67
185.366
192.029
246.887
517.283
513.552
508.229
502.614
507.294
497.062
502.353
520.496
192.832
191.191
191.005
190.789
182.265
184.346
187.839
187.393
509.209
184.748
338.838
508.713
440.339
184.733
192.131
514.321
514.464
513.836
514.99
515.021
515.005
514.972
339.067
342.078
486.394
482.206
484.257
488.24
483.662
182.339
192.522
192.695
192.736
192.732
185.838
515.207
517.989
517.978
186.242
185.726
185.802
186.21
513.372
505.799
299.556
295.079
190.686
491.337
190.584
177.304
508.862
508.38
509.974
186.01
506.759
509.201
513.15
513.27
164.809
164.054
163.435
163.372
520.081
520.126
520.721
475.078
480.43
488.982
492.639
192.768
185.75
188.105
182.033
189.63
179.841
183.692
189.966
190.149
512.622
192.075
316.008
513.17
514.634
514.605
513.314
514.895
349.375
355.456
478.21
487.213
485.212
294.731
218.896
192.534
185.835
515.155
190.275
187.247
506.599
190.928
174.436
190.996
205.54
476.86
290.207
486.719
192.672
186.553
180.708
188.591
176.221
177.869
185.08
191.06
194.961
485.252
191.767
514.76
514.704
512.724
514.862
368.017
470.939
486.357
179.363
251.801
241.706
279.518
191.56
191.115
290.561
192.489
187.476
179.409
485.074
191.44
191.356
185.223
514.869
514.812
512.07
463.681
485.671
255.48
191.789
192.076
185.599
514.961
511.328
485.326
323.374
510.66
454.287
516.275
514.546
190.168
178.719
181.714
174.833
176.345
176.367
174.602
174.398
190.841
190.903
192.053
191.524
192.821
192.476
193.232
193.034
193.301
193.306
193.137
193.249
192.736
192.953
192.173
192.488
191.462
191.852
190.626
191.062
189.69
190.168
188.672
189.192
187.594
188.142
186.462
187.034
185.287
185.879
184.074
184.685
182.83
183.456
181.558
182.197
180.261
180.912
178.943
179.605
177.605
178.276
176.25
176.93
174.878
175.566
173.49
174.186
172.086
172.79
170.666
171.378
169.229
169.949
167.775
168.504
166.302
167.041
165.558
163.359
163.484
163.423
163.595
163.541
163.69
163.644
163.768
163.731
163.828
163.8
163.87
163.851
163.892
163.883
163.906
163.905
163.886
163.894
163.855
163.873
163.806
163.833
163.739
163.775
163.654
163.699
163.552
163.605
163.495
164.069
165.576
164.825
167.063
166.322
168.529
167.798
169.979
169.256
171.411
170.697
172.827
172.121
174.227
173.529
175.611
174.921
176.979
176.297
178.33
177.657
179.662
178.998
180.973
180.32
182.261
181.62
183.525
182.896
184.756
184.144
185.957
185.36
187.11
186.537
188.224
187.673
189.27
188.76
190.246
189.768
191.125
190.695
191.903
191.531
192.55
192.246
193.033
192.813
193.302
193.208
193.34
193.339
193.025
193.234
192.299
192.592
518.942
519.482
518.003
518.447
517.22
517.59
516.563
516.873
516.033
516.287
515.613
515.809
515.303
515.445
515.154
515.211
515.054
515.012
514.917
514.949
515.076
515.034
515.307
515.216
515.625
515.456
516.046
515.822
516.573
516.296
517.232
516.882
518.031
517.606
518.976
518.489
519.508
519.308
519.887
518.763
516.4
516.831
515.575
515.972
514.834
515.178
514.16
514.481
513.48
513.835
513.102
509.516
198.769
490.102
505.374
499.906
519.916
521.074
520.464
518.712
519.262
517.712
518.204
516.782
517.237
515.922
516.342
515.141
515.523
514.42
514.775
513.738
514.073
513.559
192.777
190.981
183.085
187.863
510.098
515.785
493.366
192.435
191.985
176.777
514.182
514.97
341.076
486.279
474.268
479.193
184.496
176.335
178.479
507.802
173.651
175.069
175.704
192.1
192.392
192.721
185.712
507.243
517.753
187.499
185.961
406.148
297.801
191.245
194.566
509.221
508.736
456.562
450.118
507.933
512.047
509.589
337.846
282.165
398.689
194.344
189.977
421.887
163.293
163.306
191.302
521.221
257.383
506.865
501.063
484.983
506.614
496.01
501.87
192.679
494.541
182.963
190.857
190.624
190.13
181.262
183.467
190.361
190.667
509.478
511.133
326.021
225.432
191.825
513.673
514.36
514.325
513.688
514.887
352.207
355.42
480.519
485.007
481.039
327.344
431.747
188.859
191.014
192.55
192.568
192.581
185.842
515.066
514.894
514.938
511.25
189.873
186.011
186.209
186.805
513.7
513.548
513.006
508.611
507.589
283.164
283.572
192.243
180.401
190.43
511.523
510.605
179.287
509.849
469.226
243.681
279.605
482.607
515.57
491.275
521.651
521.673
522.369
192.537
185.64
181.74
189.25
179.465
183.764
174.723
174.342
176.532
192.198
194.703
482.574
479.252
512.804
361.757
191.708
514.47
514.487
513.152
514.79
508.413
361.59
368.647
473.873
483.941
189.211
234.082
305.488
516.952
183.758
185.385
184.239
185.493
192.314
185.685
515.035
282.501
189.252
187.999
507.58
193.122
486.924
190.49
195.379
200.236
184.66
496.787
191.97
192.422
186.869
180.742
189.254
177.991
176.644
193.028
515.484
460.245
482.141
184.397
191.199
176.003
514.591
514.606
512.568
514.719
381.117
466.662
483.076
458.267
245.24
226.587
511.708
179.091
190.764
191.368
191.715
185.64
514.72
511.903
482.474
257.359
511.492
512.088
182.803
188.354
175.411
178.503
172.117
173.355
172.216
172.036
172.907
180.307
191.048
190.226
192.214
191.667
192.945
192.611
193.325
193.16
193.377
193.389
193.189
193.322
192.784
193.021
192.209
192.52
191.482
191.864
190.63
191.07
189.685
190.168
188.658
189.181
187.571
188.122
186.433
187.008
185.252
185.847
184.035
184.648
182.787
183.415
181.511
182.152
180.212
180.865
178.892
179.555
177.552
178.224
176.195
176.876
174.822
175.511
173.433
174.13
172.029
172.733
170.608
171.32
169.17
169.891
167.715
168.445
166.241
166.98
164.745
165.496
163.224
163.988
162.453
162.596
162.526
162.727
162.663
162.844
162.788
162.945
162.897
163.027
162.988
163.09
163.061
163.134
163.114
163.158
163.148
163.179
163.178
163.15
163.16
163.119
163.137
163.067
163.095
162.996
163.034
162.905
162.953
162.797
162.853
162.673
162.737
162.537
162.606
162.465
164.003
163.237
165.514
164.761
167.003
166.261
168.471
167.739
169.921
169.198
171.354
170.64
172.771
172.064
174.172
173.473
175.557
174.866
176.927
176.244
178.279
177.605
179.614
178.949
180.928
180.273
182.219
181.576
183.486
182.855
184.72
184.108
185.927
185.327
187.086
186.51
188.206
187.652
189.261
188.746
190.249
189.766
191.141
190.703
191.931
191.553
192.596
192.282
193.094
192.862
193.378
193.272
193.434
193.423
193.124
193.309
192.482
192.807
191.423
192.117
190.822
520.373
520.995
519.196
519.781
518.187
518.663
517.34
517.736
516.633
516.97
516.068
516.342
515.634
515.837
515.318
515.461
515.116
515.203
514.999
515.046
514.997
514.985
515.093
515.035
515.323
515.214
515.641
515.465
516.083
515.848
516.643
516.345
517.35
516.979
518.205
517.753
519.229
518.697
520.446
519.811
521.786
521.134
522.433
521.194
521.68
519.637
520.236
249.33
519.066
517.485
259.369
516.572
517.009
515.758
516.156
515.066
515.382
514.454
514.737
513.946
514.187
513.977
513.819
508.464
516.739
471.024
488.949
505.724
499.299
520.285
520.951
519.017
519.627
517.932
518.458
516.965
517.434
516.1
516.521
515.331
515.702
514.663
514.988
514.113
514.368
513.904
192.603
512.181
190.41
182.395
347.583
175.43
177.521
190.606
510.428
507.472
322.51
191.986
191.443
514.018
514.033
514.884
354.28
482.668
476.119
369.721
363.613
345.703
270.438
178.792
183.958
173.092
175.231
171.712
171.768
172.681
171.999
175.009
173.839
176.756
186.703
187.959
191.15
192.574
185.884
515.051
288.93
190.935
186.457
513.18
195.069
379.01
381.963
512.898
509.523
411.142
508.045
284.66
193.601
190.199
510.875
218.946
228.159
190.975
184.292
434.12
516.614
510.484
516.726
459.047
198.408
190.062
461.36
257.648
199.307
284.602
194.033
517.677
185.507
505.987
501.713
492.319
483.672
198.393
495.139
501.815
522.232
523.07
192.428
184.187
182.688
190.201
189.947
189.533
180.895
183.185
180.463
177.76
193.019
194.449
511.745
468.619
509.722
268.979
515.01
375.726
191.694
495.527
416.727
216.716
513.374
514.183
514.2
513.557
514.769
365.211
368.788
476.442
481.528
205.124
209.45
210.622
224.977
341.33
478.738
324.92
281.309
210.185
205.311
202.762
189
190.174
186.698
190.705
190.464
192.329
192.307
192.349
185.895
514.938
514.769
514.794
178.439
194.051
186.322
186.647
187.374
508.349
271.993
194.782
189.306
202.172
183.882
285.221
510.568
163.159
162.385
161.762
161.685
522.309
523.13
513.601
191.311
424.356
188.901
192.268
185.441
181.783
189.289
179.558
184.029
177.82
194.817
466.11
199.18
512.245
479.261
510.276
512.732
190.965
185.155
514.284
514.374
513.007
514.647
374.41
381.623
469.273
480.392
452.273
206.659
236.124
270.65
213.089
442.036
300.703
208.295