/*--------------------------------*- C++ -*----------------------------------*\
| =========                 |                                                 |
| \\      /  F ield         | OpenFOAM: The Open Source CFD Toolbox           |
|  \\    /   O peration     | Version:  2212                                  |
|   \\  /    A nd           | Website:  www.openfoam.com                      |
|    \\/     M anipulation  |                                                 |
\*---------------------------------------------------------------------------*/
FoamFile
{
    version     2.0;
    format      ascii;
    arch        "LSB;label=32;scalar=64";
    class       volScalarField;
    location    "0.0974";
    object      k;
}
// * * * * * * * * * * * * * * * * * * * * * * * * * * * * * * * * * * * * * //

dimensions      [0 2 -2 0 0 0 0];

internalField   nonuniform List<scalar> 
31661
(
1734.54
509.333
551.876
526.299
505.629
540.64
519.468
503.123
532.013
514.348
1959.42
571.507
4817.07
1065.92
1437.77
1664.99
1507.75
1761.31
544.716
1646.03
484.483
486.946
969.313
1865.01
522.206
485.413
1089.25
838.173
573.549
575.874
1832.46
873.097
909.142
573.63
695.224
1714.81
454.116
1658.7
1196.8
963.769
738.288
510.318
1253.08
651.977
659.414
594.753
657.811
657.584
457.046
1136.1
610.47
1374.3
611.1
626.937
1104.1
548.349
617.534
637.386
1689.11
576.283
587.336
580.375
697.413
478.874
520.526
1723.62
1584.25
1555.28
1403.81
1258.82
555.718
1060.83
948.929
849.568
765.271
694.119
635.909
588.846
551.678
522.618
500.386
483.619
471.231
462.195
466.01
476.238
490.143
508.728
532.972
564.051
603.084
651.205
709.643
779.261
860.268
952.971
1050.75
1149.63
1264.13
1386.77
1510.62
1625.98
1733.81
1885.13
1849.64
1995.9
1957.54
2089.38
2051.48
2165.1
2130.39
2224.37
2194.66
2269.27
2245.24
2302.22
2283.64
2325.6
2311.81
2341.51
2331.63
2351.69
2344.86
2357.52
2352.98
2360.09
2357.2
2360.2
2358.48
2358.46
2357.54
2355.36
2354.95
2351.24
2351.15
2346.39
2346.47
2341.03
2341.18
2335.33
2335.49
2329.46
2329.57
2323.54
2323.59
2317.72
2317.68
2312.12
2311.99
2306.87
2306.64
2302.11
2301.78
2297.99
2297.57
2294.69
2294.19
2292.4
2291.83
2291.36
2290.73
2291.85
2291.17
2294.23
2293.51
2298.95
2298.21
2306.7
2305.94
2317.87
2318.66
2318.19
2306.07
2298.16
2293.29
2290.8
2290.22
2291.19
2293.42
2296.68
2300.76
2305.5
2310.73
2316.31
2322.12
2328.02
2333.87
2339.52
2344.82
2349.58
2353.54
2356.43
2357.83
2357.24
2353.99
2347.17
2335.64
2317.9
2292.11
2256.13
2207.58
2144.18
2063.99
1965.55
1847.69
1712.7
1561.32
1400.88
1244.32
1102.58
978.756
873.914
785.049
710.45
649.09
599.398
560.004
458.641
455.772
529.235
505.719
487.969
474.728
464.994
451.402
453.516
459.804
466.931
476.829
490.193
507.851
530.828
560.024
596.296
640.449
692.815
753.803
823.279
900.498
984.125
1072.31
1162.23
1256.43
1354.59
1453.44
1551.56
1650.39
1754.69
1857.38
1953.67
2040.49
2116.15
2179.73
2231.13
2271.13
2300.97
2322.25
2336.6
2345.46
2350.1
2351.52
2350.55
2347.81
2343.79
2338.89
2333.38
2327.52
2321.51
2315.52
2309.71
2304.24
2299.27
2294.95
2291.48
2289.06
2287.94
2288.39
2290.78
2295.57
2303.43
2315.49
2334.04
2336.41
2337.26
2336.91
2335.26
2316.36
2303.94
2295.73
2290.62
2287.93
2287.2
2288.08
2290.26
2293.51
2297.61
2302.38
2307.66
2313.29
2319.14
2325.05
2330.87
2336.41
2341.47
2345.81
2349.11
2350.95
2350.8
2347.98
2341.57
2330.44
2313.14
2288.02
2253.2
2206.87
2147.53
2074.36
1987.44
1887.95
1777.43
1658.19
1525.84
1392.08
1262.88
1139.78
1025.44
924.292
834.851
757.071
690.816
635.279
590.092
554.036
525.835
458.004
504.053
487.448
474.981
454.842
450.133
453.159
448.584
451.544
458.072
463.452
471.172
481.734
495.85
514.332
538.005
567.738
604.277
647.937
698.968
756.863
820.724
889.186
960.674
1033.5
1105.91
1176.63
1247.42
1319.04
1391.88
1466.78
1546.66
1633.75
1724.86
1817.04
1907.32
1992.56
2070.29
2138.01
2194.73
2240.11
2274.94
2300.43
2318.05
2329.35
2335.69
2338.23
2337.96
2335.62
2331.82
2327.01
2321.56
2315.76
2309.85
2304.05
2298.54
2293.51
2289.15
2285.64
2283.23
2282.16
2282.73
2285.29
2290.32
2298.47
2310.79
2329.42
2359.54
2364.74
2367.47
2368.48
2368.08
2366.14
2362.08
2331.72
2312.61
2299.77
2291.13
2285.64
2282.66
2281.73
2282.46
2284.56
2287.78
2291.89
2296.69
2302.01
2307.67
2313.5
2319.32
2324.92
2330.05
2334.44
2337.69
2339.34
2338.76
2335.15
2327.51
2314.56
2294.83
2266.66
2228.44
2178.81
2117.11
2043.58
1959.55
1867.35
1770.04
1670.56
1570.08
1466.44
1365.08
1266.66
1171.98
1078.69
989.828
906.033
828.386
757.655
695.613
642.76
598.792
562.749
533.777
465.781
511.133
493.684
447.982
454.447
449.429
459.159
449.965
446.825
452.01
458.216
462.503
468.701
477.392
489.218
504.849
525.07
550.698
582.465
620.932
666.287
718.159
775.695
837.44
901.212
965.067
1026.91
1085.3
1139.33
1189.32
1237.44
1285.17
1334.26
1386.53
1444.68
1510.95
1584.67
1664.6
1749.05
1835.5
1920.82
2001.67
2075.05
2138.63
2191.34
2233.18
2264.8
2287.48
2302.7
2311.96
2316.62
2317.83
2316.53
2313.45
2309.18
2304.16
2298.75
2293.26
2287.95
2283.06
2278.81
2275.42
2273.15
2272.28
2273.1
2276
2281.43
2290.01
2302.71
2321.45
2350.75
2402.5
2414.71
2422.46
2426.75
2428.22
2427.13
2423.46
2416.74
2406.03
2354.85
2325.26
2305.95
2292.61
2283.43
2277.45
2274.05
2272.79
2273.28
2275.21
2278.31
2282.33
2287.05
2292.26
2297.75
2303.31
2308.67
2313.54
2317.56
2320.26
2321.07
2319.23
2313.78
2303.54
2287.11
2262.94
2229.46
2185.3
2129.72
2062.9
1986.1
1901.81
1813.12
1723.51
1636.25
1553.49
1475.41
1400.7
1330.49
1262.86
1196.55
1128.05
1057.87
986.26
914.182
843.592
777.342
717.25
663.922
617.966
579.498
548.318
480.404
523.376
446.707
448.21
470.497
455.307
450.584
454.576
447.928
445.846
453.505
459.179
462.735
467.821
475.071
485.134
498.59
516.201
538.755
567.01
601.578
642.844
690.695
744.46
802.805
863.775
924.916
983.725
1038.09
1086.69
1129.04
1165.33
1197.15
1226.54
1255.39
1285.47
1318.68
1357.1
1402.82
1456.52
1518.45
1588.37
1665.27
1747.2
1831.36
1914.36
1992.61
2063.31
2124.25
2174.29
2213.5
2242.79
2263.39
2276.87
2284.77
2288.4
2288.9
2287.19
2283.98
2279.86
2275.29
2270.64
2266.24
2262.39
2259.38
2257.47
2256.99
2258.26
2261.67
2267.66
2276.81
2289.97
2308.76
2336.97
2384.62
2478.56
2508.37
2530.86
2546.5
2555.64
2558.48
2555.06
2545.7
2530.37
2508.85
2390.08
2343.08
2314.53
2295.1
2281.25
2271.43
2264.83
2260.88
2259.14
2259.23
2260.82
2263.61
2267.32
2271.69
2276.47
2281.36
2286.07
2290.21
2293.34
2294.86
2294.06
2290
2281.56
2267.36
2245.91
2215.63
2175.15
2123.65
2061.07
1988.51
1908.37
1823.72
1738.2
1655.3
1577.79
1507.46
1444.92
1389.56
1339.99
1295.33
1253.16
1210.85
1165.81
1116.48
1061.71
1001.57
937.708
872.589
808.425
747.439
691.715
643.201
601.716
503.902
567.006
2480.65
538.947
446.18
488.885
447.749
463.245
449.97
451.505
456.874
452.602
446.715
445.557
455.566
460.654
463.591
467.917
474.054
482.608
494.216
509.614
529.552
554.811
586.095
623.898
668.298
718.964
774.843
834.17
894.612
953.526
1008.29
1056.98
1098.42
1132.44
1159.66
1181.25
1199.03
1214.76
1230.03
1246.26
1264.95
1287.68
1316.03
1351.08
1393.81
1444.99
1504.93
1573.31
1648.91
1729.55
1812.26
1893.58
1970.05
2038.6
2097.31
2145.17
2182.37
2209.82
2228.92
2241.27
2248.36
2251.54
2251.93
2250.43
2247.78
2244.56
2241.25
2238.27
2236
2234.78
2234.95
2236.89
2241
2247.69
2257.49
2271.1
2289.82
2316.65
2359.66
2440.76
2615.43
2685.37
2745.56
2794.46
2830.46
2852.18
2858.54
2849.13
2824.56
2786.6
2736.93
2677.29
2445.02
2367.39
2325.09
2297.95
2278.6
2264.27
2253.78
2246.46
2241.8
2239.41
2238.88
2239.87
2242.05
2245.08
2248.65
2252.4
2255.93
2258.78
2260.36
2259.94
2256.64
2249.31
2236.64
2217.11
2189.13
2151.38
2102.9
2043.49
1974.24
1897.05
1814.97
1731.73
1650.84
1575.36
1507.29
1447.73
1396.95
1354.32
1318.68
1288.67
1262.81
1239.01
1215.14
1188.94
1158.37
1121.6
1077.58
1026.26
968.884
907.047
843.553
782.127
724.79
672.542
627.149
588.733
2609.14
556.973
516.741
446.248
477.487
447.844
458.146
449.932
449.485
452.345
446.22
458.846
455.006
445.799
2997.28
3135.03
3258.64
3362.06
3439.52
3486.49
3499.73
3477.99
3422.81
3337.86
3229.33
3103.16
2965.35
2533.43
2400.96
2336.32
2299.1
2273.78
2254.81
2240.18
2229.05
2220.95
2215.45
2212.19
2210.77
2210.82
2211.93
2213.72
2215.76
2217.52
2218.42
2217.72
2214.52
2207.72
2195.98
2177.81
2151.62
2115.98
2069.88
2013.1
1946.44
1871.75
1791.95
1710.65
1631.29
1557.01
1490.05
1431.65
1382.34
1341.77
1309.09
1283.2
1262.88
1246.95
1234.09
1222.73
1211.47
1198.73
1182.65
1161.55
1133.67
1097.83
1053.46
1001.07
943.053
881.887
819.643
760.073
704.66
655.24
612.481
531.481
576.786
2821.36
457.899
462.504
464.916
468.594
473.856
481.205
491.273
504.744
522.346
544.892
573.134
607.677
648.838
696.48
749.864
807.564
867.47
926.997
983.431
1034.32
1077.96
1113.55
1141.26
1161.97
1176.93
1187.63
1195.56
1202.04
1208.17
1215.05
1223.54
1234.7
1249.84
1269.91
1295.96
1329.05
1370.16
1420.02
1478.86
1546.24
1620.82
1700.34
1781.75
1861.52
1936.17
2002.86
2059.57
2105.55
2141.05
2167.09
2185.15
2196.83
2203.67
2206.99
2207.92
2207.38
2206.11
2204.71
2203.74
2203.64
2204.82
2207.69
2212.67
2220.18
2230.63
2244.59
2262.98
2288.08
2326.05
2394.09
2536.9
2850.67
499.385
446.733
547.992
511.455
469.065
448.367
454.651
450.369
448.315
452.602
446.298
455
446.406
461.109
457.624
2675.61
2450.74
2347.36
2295.2
2263.33
2240.3
2222.11
2207.46
2195.83
2186.93
2180.48
2176.11
2173.45
2172.03
2171.43
2171.14
2170.48
2168.71
2164.93
2158.03
2146.68
2129.36
2104.49
2070.55
2026.5
1971.94
1907.61
1835.18
1757.6
1678.16
1600.28
1527.22
1461.35
1403.87
1355.47
1315.89
1284.43
1260.14
1241.89
1228.64
1219.37
1213.01
1208.67
1205.44
1202.28
1198.26
1192.23
1182.7
1168.14
1146.89
1117.53
1079.44
1032.99
978.779
919.7
857.605
796.34
738.263
684.951
638.177
598.739
466.636
469.738
474.311
480.658
489.427
501.289
516.847
536.909
562.341
593.797
631.749
676.289
726.975
782.698
841.647
901.419
959.3
1012.66
1059.35
1098.07
1128.47
1151.02
1166.79
1177.07
1183.21
1186.46
1187.87
1188.33
1188.52
1189.22
1191.02
1194.37
1200.12
1209.22
1222.56
1241.01
1265.62
1297.43
1337.41
1386.23
1444.06
1510.39
1583.85
1662.07
1742.02
1820.11
1892.96
1957.71
2012.55
2056.82
2090.86
2115.85
2133.29
2144.82
2151.99
2156.16
2158.44
2159.77
2160.9
2162.54
2165.22
2169.34
2175.39
2183.76
2194.8
2208.89
2226.62
2249.56
2282.21
2337.56
2450.46
2699.75
3203.81
3461.27
3714.17
3951.93
4163.73
4339.56
4470.07
4548.01
4568.72
4530.51
4435.86
4289.73
4100.64
3879.54
3636.79
3383.58
464.685
3130.81
524.996
566.289
460.475
486.045
447.553
3841.42
4199.44
4545.4
4865.68
5148.34
5382.73
5560.86
5675.82
5723.45
5701.32
5610.7
5455.27
5241.05
4975.21
4667.78
4329.86
3973.21
495.904
462.99
449.21
463.616
468.726
471.347
475.291
480.822
488.526
499.016
512.832
530.755
553.556
582.102
616.948
658.354
706.137
759.503
816.964
876.373
935.127
990.506
1040.11
1082.21
1116
1141.53
1159.6
1171.36
1178.11
1181.08
1181.32
1179.71
1176.92
1173.5
1169.9
1166.54
1163.91
1162.32
1162.05
1163.7
1168.02
1175.81
1187.91
1205.2
1228.69
1259.43
1298.34
1346.04
1402.71
1467.79
1539.83
1616.52
1694.7
1770.93
1841.79
1904.57
1957.56
2000.25
2033.14
2057.45
2074.78
2086.8
2095.06
2100.93
2105.55
2109.82
2114.62
2120.49
2127.86
2137.15
2148.65
2162.58
2179.25
2199.62
2226.82
2270.33
2356.49
2547.89
2950.28
3611.72
540.296
507.019
452.259
451.141
447.872
453.235
446.785
455.468
447.317
457.858
460.423
467.145
463.243
473.293
469.806
3485.44
2887.05
2530.85
2361.21
2283.31
2242.62
2216.24
2195.91
2178.98
2164.65
2152.74
2143.11
2135.54
2129.77
2125.3
2121.74
2118.49
2114.72
2109.53
2101.8
2090.21
2073.22
2049.22
2016.66
1974.36
1921.86
1859.68
1789.49
1713.95
1636.52
1560.39
1488.88
1424.07
1367.7
1320.21
1281.52
1250.94
1227.68
1210.5
1198.48
1190.74
1186.46
1184.67
1184.32
1185.48
1187.46
1189.49
1191.02
1191.22
1189.41
1184.29
1174.47
1158.52
1135.01
1102.89
1061.51
1011.56
955.331
895.061
832.949
772.325
716.514
666.377
622.815
586.919
4560.32
519.629
557.309
758.412
4157.35
476.026
448.615
4946.13
5303.02
5621.33
5894.42
6116.96
6284.74
6393.22
6439.45
6421.24
6339.28
6195.82
5994.32
5739.6
5437.4
5093.73
4717.22
4318.42
484.086
458.707
450.295
475.362
473.332
476.742
481.659
488.458
497.71
510.065
526.181
546.747
572.541
604.357
642.703
687.499
738.235
793.742
852.166
911.097
967.85
1019.86
1065.07
1102.27
1131.12
1152.08
1166.13
1174.51
1178.44
1179.04
1177.19
1173.63
1168.9
1163.41
1157.5
1151.44
1145.49
1139.89
1134.96
1130.97
1128.05
1126.58
1127.18
1130.52
1137.35
1148.49
1164.8
1187.28
1216.95
1254.68
1301.13
1356.4
1419.92
1490.25
1565.03
1641.17
1715.24
1783.94
1844.68
1895.91
1937.27
1969.37
1993.53
2011.39
2024.67
2034.91
2043.44
2051.33
2059.58
2068.75
2079.12
2090.99
2104.49
2119.72
2137.22
2159.04
2191.95
2255.27
2397.13
2707.9
3258.24
3909.4
493.168
450.831
452.17
533.716
503.442
447.962
454.167
447.603
456.268
448.448
458.484
460.846
463.4
469.177
4985.17
4603.65
479.971
478.173
3750.33
3144.26
2657.96
2388.46
2264.75
2208.21
2177.72
2156.72
2139.46
2124.18
2110.55
2098.55
2088.19
2079.31
2071.56
2064.62
2057.87
2050.32
2040.91
2028.33
2011.04
1987.41
1955.82
1915.01
1864.39
1804.35
1736.39
1663.08
1587.6
1513.49
1443.62
1380.45
1325.27
1279.06
1241.32
1211.69
1189.2
1172.93
1161.73
1154.9
1151.65
1150.78
1152.3
1155.1
1158.9
1163.65
1168.82
1174.05
1179.02
1183.22
1186.16
1187.12
1185.14
1179.07
1167.51
1148.91
1122.05
1086.19
1041.68
988.96
930.168
869.188
808.225
749.769
696.19
649.24
609.371
576.434
474.22
471.884
515.159
549.714
695.436
468.695
449.868
5340.65
5663.2
5947.34
6189.88
6386.99
6535.54
6631.99
6673.53
6658.44
6586.89
6460.69
6282.63
6056.35
5785.57
5474.42
5127.85
4752.58
4357.03
475.283
455.748
451.562
503.833
478.476
482.916
488.965
497.263
508.432
522.982
541.638
565.112
594.126
629.343
671.174
719.139
772.357
829.273
887.724
945.14
998.898
1046.73
1087.05
1119.16
1143.17
1159.85
1170.32
1175.79
1177.41
1176.13
1172.74
1167.82
1161.81
1155.05
1147.79
1140.23
1132.56
1124.92
1117.45
1110.33
1103.73
1097.92
1093.05
1089.29
1087.08
1086.96
1089.56
1095.62
1105.93
1121.34
1142.82
1171.35
1207.81
1252.79
1306.38
1368.03
1436.26
1508.79
1582.57
1654.27
1720.7
1779.44
1829.11
1869.49
1901.3
1925.95
1945.09
1960.39
1973.3
1984.99
1996.53
2008.47
2020.87
2033.85
2047.47
2062
2078.81
2102.61
2147.31
2248.93
2481.23
2923.81
3503.74
3950.61
482.71
450.189
453.398
491.124
448.478
455.322
528.41
500.811
448.662
457.324
449.752
459.415
461.622
463.973
5114.19
4762.24
466.499
469.052
578.015
471.455
4204.13
3796.91
3353.4
2827.74
2446.15
2248.76
2161.48
2122.1
2100.33
2084.4
2070.3
2056.98
2044.25
2032.23
2020.92
2010.17
1999.83
1989.26
1977.39
1963.02
1944.71
1920.81
1889.7
1850.03
1801.09
1743.09
1677.42
1606.46
1533.32
1461.29
1393.43
1331.98
1278.46
1233.51
1197.04
1168.3
1146.67
1131.22
1120.88
1114.73
1112.14
1111.88
1114.23
1117.98
1122.83
1128.63
1135.18
1142.19
1149.38
1156.69
1163.81
1170.42
1176.34
1181.04
1184.02
1184.45
1181.34
1173.39
1159.29
1137.57
1107.14
1067.65
1019.55
964.777
905.23
843.997
783.888
728.034
677.744
634.057
597.493
567.64
1313.39
511.83
543.597
511.676
600.516
463.485
451.26
5440.44
5735.8
5994.27
6214.79
6394.94
6531.1
6619.65
6657.85
6643.78
6577.79
6461.6
6297.92
6090.21
5842.08
5556.11
5235.28
4886.23
4515.71
4131
468.885
453.883
452.97
604.779
511.828
483.744
489.61
497.314
507.511
520.839
537.946
559.48
586.133
618.547
657.217
702.37
753.093
808.112
865.521
922.931
977.754
1027.59
1070.58
1105.67
1132.67
1152.06
1164.82
1172.11
1175.08
1174.76
1171.97
1167.37
1161.43
1154.52
1146.91
1138.79
1130.33
1121.66
1112.88
1104.1
1095.41
1086.91
1078.72
1070.95
1063.79
1057.45
1052.04
1047.77
1045.07
1044.44
1046.45
1051.86
1061.42
1075.96
1096.43
1123.75
1158.77
1202.06
1253.72
1313.18
1379.01
1448.99
1520.17
1589.36
1653.54
1710.46
1758.9
1798.75
1830.81
1856.46
1877.27
1894.69
1909.9
1923.92
1937.39
1950.32
1962.58
1974.47
1986.96
2003.37
2033.6
2104.03
2272.6
2617.08
3114.97
3544.37
3740.15
475.017
450.132
454.779
481.986
449.308
456.652
489.962
449.913
458.582
524.493
499.11
451.183
460.582
462.671
5093.53
4759.1
464.869
467.168
469.478
471.829
4389.9
4004.45
3393.87
2979.64
2541.75
2252.05
2111.51
2052.04
2025.88
2011.23
1999.72
1988.63
1977.15
1965.19
1952.74
1939.93
1926.73
1912.42
1895.94
1876.08
1851.34
1820.16
1781.18
1733.6
1677.51
1614.09
1545.59
1474.95
1405.35
1339.73
1280.33
1228.59
1185.13
1149.95
1122.43
1101.71
1086.95
1077.31
1071.79
1069.68
1070.16
1072.84
1077.04
1082.48
1088.93
1096.07
1103.81
1112.09
1120.46
1129.11
1137.78
1146.2
1154.39
1162.12
1169.18
1175.16
1179.65
1181.96
1181.26
1176.47
1166.24
1149.15
1124.02
1090.14
1047.36
996.587
939.838
879.542
819.358
761.461
707.683
661.135
621.219
587.934
560.845
477.621
509.643
539.084
474.489
3613.85
459.779
452.763
5403.16
5683.46
5929.88
6139.92
6311.01
6439.9
6523.51
6559.47
6545.69
6482.75
6372.11
6216.12
6017.73
5780.13
5506.22
5199.55
4865.71
4510.77
4141.3
3764.49
464.348
452.911
454.484
485.028
488.226
491.57
497.435
506.807
519.278
535.257
555.263
579.975
610.025
645.929
687.965
736.094
788.951
844.88
901.703
956.934
1008.12
1053.24
1090.93
1120.67
1142.7
1157.8
1167.03
1171.55
1172.39
1170.45
1166.42
1160.84
1154.11
1146.52
1138.29
1129.59
1120.53
1111.23
1101.77
1092.22
1082.65
1073.12
1063.73
1054.52
1045.6
1037.04
1028.95
1021.5
1014.87
1009.2
1004.65
1001.66
1000.68
1002.27
1007.1
1015.96
1029.64
1049.06
1075.11
1108.58
1150.03
1199.54
1256.56
1319.76
1386.98
1455.45
1522.12
1584.18
1639.51
1686.99
1726.54
1758.9
1785.25
1806.88
1824.91
1840.23
1853.61
1865.41
1875.65
1885.03
1895.99
1915.62
1962.98
2082.5
2343.36
2755.42
3150.71
3352.65
3388.46
469.497
450.536
456.276
475.367
450.385
458.114
482.896
481.965
451.302
459.996
489.566
452.715
461.932
5020.02
4696.12
521.842
498.295
463.937
466.022
468.179
470.384
472.673
4405.13
4037.32
3662.82
3228.69
3008.4
2639.8
2288.84
2074.96
1977.08
1937.79
1921.32
1912.02
1903.98
1895.13
1884.76
1872.8
1859.43
1844.38
1826.83
1805.88
1780.33
1748.87
1710.25
1663.71
1609.29
1548.03
1482
1413.99
1347.01
1283.88
1226.75
1177.01
1135.27
1101.47
1075.13
1055.43
1041.46
1032.39
1027.43
1025.74
1026.62
1029.57
1034.04
1039.71
1046.4
1053.92
1062.07
1070.61
1079.73
1088.88
1098.35
1107.91
1117.38
1126.72
1135.91
1144.89
1153.39
1161.29
1168.24
1173.9
1177.74
1179.03
1176.78
1169.87
1157.05
1136.97
1108.41
1071.03
1025.12
972.091
914.535
854.757
795.966
740.569
690.473
647.371
610.983
580.695
555.936
508.446
475.241
535.993
477.666
3290.26
457.357
454.347
5319.64
5590.66
5829.33
6032.42
6197.48
6321.53
6401.81
6435.98
6422.37
6361.42
6254.4
6103.45
5911.14
5680.36
5414.14
5116.55
4792.4
4447.43
4088.15
3721.65
3355.71
461.252
452.605
456.081
495.752
501.489
508.719
519.016
533.256
551.875
575.095
603.295
636.907
676.271
721.418
771.951
826.079
881.836
936.885
988.806
1035.45
1075.25
1107.41
1131.88
1149.25
1160.46
1166.6
1168.73
1167.78
1164.48
1159.42
1153.05
1145.68
1137.56
1128.86
1119.73
1110.26
1100.53
1090.63
1080.61
1070.51
1060.38
1050.3
1040.3
1030.44
1020.78
1011.38
1002.29
993.607
985.433
977.912
971.214
965.488
960.886
957.783
956.632
957.923
962.285
970.49
983.374
1001.75
1026.5
1058.39
1097.88
1145.09
1199.53
1259.93
1324.29
1389.99
1454.15
1514.08
1567.74
1613.98
1652.59
1684.06
1709.28
1729.29
1745
1757.2
1766.68
1774.47
1782.24
1794.93
1826.47
1910.35
2104.32
2434.9
2783.02
2980.2
3022.06
2999.66
465.64
451.288
457.864
491.432
481.736
470.562
451.648
459.681
476.158
452.804
461.531
4933.11
4617.32
482.54
454.32
489.845
463.425
465.374
520.281
498.286
467.388
469.467
471.592
473.817
4352.99
3996.53
3633.65
3272.69
2929.63
2860.86
2653.47
2341.04
2068.77
1913.52
1846.08
1820.51
1810.43
1804.52
1798.41
1790.57
1780.55
1767.9
1751.95
1731.96
1707.02
1676.1
1638.22
1592.82
1540.01
1480.85
1417.28
1351.96
1287.73
1227.24
1172.55
1124.96
1085.07
1052.77
1027.61
1008.88
995.706
987.235
982.697
981.3
982.375
985.427
990.028
995.742
1002.46
1010.08
1018.31
1027.07
1036.19
1045.79
1055.52
1065.38
1075.58
1085.59
1095.62
1105.63
1115.61
1125.36
1134.89
1143.96
1152.42
1160.19
1166.79
1171.84
1174.71
1174.63
1170.67
1161.53
1145.83
1122.54
1090.65
1050.22
1002.06
947.946
889.885
830.781
774.352
722.357
676.673
636.953
603.315
575.243
552.243
508.077
478.085
533.786
476.235
2922.3
455.957
455.996
5225.3
5489.46
5722.05
5919.79
6080.29
6200.67
6278.26
6311.03
6297.45
6237.9
6133.67
5986.55
5798.92
5573.49
5313.5
5022.98
4706.54
4369.84
4019.41
3662.22
3305.96
2959.38
459.332
452.824
457.742
504.776
512.317
522.082
534.559
550.816
571.732
597.922
629.57
666.779
709.429
757.227
809.347
863.66
918.009
970.07
1017.65
1059.02
1093.17
1119.8
1139.28
1152.4
1160.18
1163.66
1163.77
1161.31
1156.89
1150.98
1143.96
1136.07
1127.52
1118.45
1108.98
1099.2
1089.18
1078.97
1068.63
1058.2
1047.71
1037.22
1026.76
1016.37
1006.11
996.002
986.079
976.382
966.99
957.967
949.38
941.319
933.922
927.351
921.79
917.363
914.332
913.198
914.411
918.531
926.251
938.373
955.764
979.212
1009.42
1046.91
1091.75
1143.46
1200.9
1262.2
1324.86
1386.12
1443.34
1494.41
1538.05
1573.85
1602.1
1623.6
1639.34
1650.46
1658.14
1664.29
1673.01
1694.65
1754.28
1898.35
2158.58
2453.66
2635.97
2681.79
2666.28
2633.29
481.225
463.084
452.308
459.523
488.408
499.035
467.281
453.053
461.328
4844.31
4536.86
472.032
454.388
455.986
477.429
463.161
465.031
483.63
466.948
490.773
468.928
519.422
498.925
470.948
473.017
475.191
4283.07
3936.04
3582.99
3231.62
2890.64
2591.8
2591.54
2522.31
2339.21
2085.91
1878.91
1766.01
1718.72
1701.6
1695.02
1690.75
1685.47
1677.51
1665.84
1649.58
1627.78
1599.49
1563.93
1520.74
1470.22
1413.55
1352.69
1290.24
1228.91
1171.23
1119.12
1073.79
1035.76
1005.03
981.122
963.318
950.868
942.911
938.614
937.298
938.395
941.407
945.83
951.434
958.052
965.503
973.671
982.336
991.461
1000.92
1010.77
1020.79
1030.95
1041.41
1051.84
1062.21
1072.71
1083.25
1093.67
1104.06
1114.2
1124.02
1133.55
1142.6
1150.95
1158.31
1164.32
1168.53
1170.28
1168.69
1162.66
1151.11
1132.61
1106.37
1071.71
1028.92
978.713
923.904
866.573
810.192
756.872
708.695
665.891
628.565
596.946
570.716
549.589
508.462
477.529
478.919
532.544
2568.28
455.326
457.695
5128.76
5385.97
5612.19
5804.66
5960.51
6077.11
6152.17
6183.66
6170.14
6111.93
6010.3
5866.95
5684.03
5464.22
5210.73
4927.48
4619.08
4290.96
3949.37
3601.17
3254.23
2917.06
2598.66
481.332
458.304
453.436
480.049
481.883
459.454
486.443
494.853
508.035
515.364
524.913
537.215
552.721
571.893
595.628
624.661
659.273
699.455
744.894
794.705
847.354
900.607
952.269
1000.2
1042.61
1078.27
1106.7
1128.04
1142.93
1152.29
1157.12
1158.34
1156.77
1153.06
1147.71
1141.11
1133.55
1125.23
1116.34
1106.97
1097.24
1087.22
1076.97
1066.56
1056
1045.32
1034.59
1023.85
1013.12
1002.44
991.819
981.307
970.928
960.725
950.73
940.956
931.438
922.258
913.489
905.183
897.437
890.362
884.145
878.957
874.971
872.379
871.517
872.919
877.077
884.583
896.165
912.613
934.737
963.227
998.508
1040.71
1089.36
1143.35
1200.89
1259.63
1316.87
1369.96
1416.74
1455.85
1486.82
1510
1526.34
1537.24
1544.67
1552.2
1568.09
1612.06
1721.31
1925.8
2169.16
2328.95
2374.37
2362.98
2335.41
2306.37
461.581
453.53
461.237
4752.76
4453.22
465.217
454.566
456.037
469.285
463.04
464.866
473.896
457.697
466.726
479.18
468.628
485.221
470.584
492.179
472.571
519.2
500.103
474.609
476.746
4211.44
3873.65
3530
3187.73
2854.99
2539.92
2249.63
2272.13
2289.57
2285.23
2222.51
2070.78
1872.01
1714.7
1630.4
1595.59
1583.2
1578.21
1573.79
1566.85
1555.66
1538.88
1515.34
1484.2
1445.1
1398.44
1345.48
1288.27
1229.38
1171.49
1116.99
1067.74
1024.84
988.852
959.737
937.064
920.185
908.29
900.587
896.312
894.853
895.701
898.336
902.391
907.634
913.94
921.111
928.952
937.38
946.26
955.527
965.142
975.096
985.219
995.504
1006.05
1016.64
1027.25
1037.96
1048.81
1059.59
1070.42
1081.13
1091.66
1102.09
1112.37
1122.31
1131.72
1140.5
1148.47
1155.29
1160.58
1163.8
1164.22
1161
1152.96
1139.05
1118.03
1089.01
1052.08
1007.34
956.99
902.397
847.212
793.65
743.2
697.147
656.444
621.48
591.726
566.918
546.992
509.14
531.089
519.19
479.008
535.024
455.298
536.199
526.137
481.436
482.823
485.377
492.001
502.553
485.017
490.223
498.648
485.234
489.312
496.011
489.06
485.886
494.361
484.043
493.519
489.342
486.889
459.435
5029.8
5280.26
5500.55
5687.75
5839.08
5952.14
6024.74
6055.07
6041.54
5984.62
5885.43
5745.64
5567.32
5353.03
5105.95
4829.91
4529.39
4209.68
3876.76
3537.48
3199.56
2871.26
2560.71
2274.69
561.549
585.447
613.974
647.894
686.942
730.588
778.841
831.107
885.227
938.169
988.369
1033.23
1071.79
1102.53
1125.76
1141.79
1151.73
1156.61
1157.52
1155.36
1150.91
1144.72
1137.26
1128.83
1119.66
1109.9
1099.81
1089.37
1078.63
1067.72
1056.81
1045.89
1034.87
1023.82
1012.87
1001.94
991.169
980.47
969.866
959.359
949.093
939.029
929.156
919.569
910.3
901.411
892.958
885.019
877.674
871.064
865.349
860.694
857.3
855.375
855.161
857.058
861.633
869.417
880.998
897.085
918.41
945.658
979.191
1019.06
1064.74
1115.09
1168.4
1222.4
1274.5
1322.2
1363.47
1397.08
1422.72
1440.92
1452.91
1460.51
1466.73
1477.56
1505.47
1571.72
1693.76
1847.42
1966.36
2017.33
2021.84
2008.06
1989.61
457.971
454.355
461.207
4136.13
3807.18
3472.74
3139.61
2815.36
2507.72
2223.62
1968.35
500.378
502.946
506.694
511.902
518.817
527.962
539.857
554.824
573.388
596.001
623.094
655.196
692.65
735.222
782.221
832.767
884.754
935.639
983.42
1026.29
1062.98
1092.79
1115.68
1132.15
1142.98
1149.11
1151.44
1150.79
1147.83
1143.1
1136.99
1129.81
1121.81
1113.15
1103.96
1094.36
1084.43
1074.23
1063.83
1053.24
1042.49
1031.67
1020.79
1009.89
998.994
988.127
977.313
966.577
955.945
945.441
935.095
924.942
915.026
905.335
895.858
886.708
877.967
869.662
861.86
854.661
848.201
842.612
838.088
834.803
832.988
832.865
834.78
839.29
846.923
858.23
873.871
894.559
920.988
953.583
992.455
1037.12
1086.53
1139.05
1192.45
1244.18
1291.67
1332.81
1366.28
1391.75
1409.87
1422.27
1432.15
1446.56
1481.77
1568.25
1731.77
1930.21
2064.05
2104.1
2094.36
2070.58
2045.57
2018.63
460.881
454.908
456.164
464.076
462.997
464.802
467.63
457.737
4661.42
4369.32
466.631
471.629
459.445
468.491
476.15
470.397
481.305
472.33
487.209
474.298
494.001
476.328
501.816
478.442
511.724
480.665
483.005
498.76
493.303
485.497
504.925
497.937
455.727
517.186
514.447
490.036
488.164
461.206
556.601
574.161
600.588
635.245
674.822
718.608
765.989
816.049
867.731
920.158
970.559
1015.94
1054.86
1087.02
1111.67
1129.49
1141.02
1147.41
1149.6
1148.54
1144.99
1139.52
1132.62
1124.63
1115.8
1106.35
1096.42
1086.05
1075.42
1064.7
1053.67
1042.53
1031.3
1020.14
1009.05
997.949
986.865
975.913
965.03
954.305
943.683
933.189
922.836
912.74
902.871
893.197
883.774
874.687
865.995
857.73
849.966
842.764
836.224
830.477
825.664
821.939
819.513
818.591
819.422
822.244
827.392
835.41
846.793
862.03
881.712
906.463
936.695
972.491
1013.33
1058.23
1105.66
1153.56
1199.52
1241.18
1276.61
1304.72
1325.47
1339.96
1350.86
1363.65
1389.34
1445.49
1544.4
1664.26
1754
1790.78
1792.2
1779.78
1763.69
1745.69
4931.66
5175.99
5390.77
5573.08
5720.21
5829.86
5900.06
5929.11
5915.69
5860.02
5763.3
5626.88
5452.9
5243.86
5002.83
4733.55
4440.51
4128.82
3804.29
3473.55
3144.02
2823.61
2520.3
2240.48
1989.33
458.172
455.504
503.551
549.377
456.405
460.806
462.992
464.792
507.538
511.264
516.374
523.111
531.902
543.228
557.534
575.316
597.048
623.085
653.684
688.969
728.883
773.112
820.788
870.576
920.219
967.414
1010.33
1047.55
1078.29
1102.39
1120.17
1132.3
1139.63
1143.04
1143.31
1141.13
1137.04
1131.47
1124.74
1117.1
1108.74
1099.79
1090.38
1080.59
1070.49
1060.18
1049.64
1038.9
1028.06
1017.13
1006.16
995.159
984.164
973.194
962.27
951.414
940.648
929.992
919.469
909.105
898.924
888.973
879.269
869.76
860.487
851.563
843.046
834.97
827.394
820.395
814.067
808.527
803.923
800.393
798.15
797.4
798.364
801.298
806.467
814.306
825.356
840.045
858.915
882.585
911.538
945.947
985.364
1028.91
1075.17
1122.19
1167.6
1208.99
1244.37
1272.64
1293.93
1310.33
1327.74
1360.15
1433.51
1569.49
1733.14
1842.46
1873.81
1863.68
1842.14
1819.9
1796.31
1770.56
463.668
457.826
4060.02
3739.16
3413.02
3088.41
2772.36
2472.08
2194.15
1943.82
1724.8
4573.31
4288.49
497.755
497.86
493.597
466.605
466.818
459.477
468.445
470.323
461.223
470.31
474.259
472.216
478.705
474.146
483.798
476.117
489.683
478.146
496.699
480.25
505.904
482.443
546.294
484.735
487.133
456.51
511.273
510.619
456.831
458.784
464.806
4836.78
5074.89
5284.1
5461.46
5604.37
5710.62
5778.39
5806.16
5792.75
5738.53
5644.29
5511.36
5341.84
5138.2
4903.32
4640.85
4355.23
4051.44
3735.1
3412.64
3091.13
2778.17
2481.25
2206.82
1959.96
1744.33
705.436
515.653
520.934
527.674
536.359
547.441
561.332
578.38
599.118
623.999
653.272
687.013
725.048
766.942
811.911
858.911
906.693
952.73
995.054
1032.26
1063.46
1088.37
1107.14
1120.35
1128.75
1133.14
1134.3
1132.89
1129.47
1124.47
1118.23
1111
1102.98
1094.33
1085.16
1075.56
1065.62
1055.44
1044.99
1034.34
1023.53
1012.62
1001.64
990.61
979.562
968.518
957.499
946.524
935.615
924.79
914.067
903.468
893.011
882.721
872.62
862.743
853.124
843.71
834.505
825.608
817.102
809.022
801.403
794.3
787.783
781.929
776.831
772.592
769.333
767.19
766.298
766.822
768.96
772.872
778.713
786.589
796.829
809.846
826.064
846.081
870.442
899.439
932.822
969.933
1009.67
1050.35
1089.83
1125.91
1156.95
1182.94
1207.69
1242.89
1311.19
1431.11
1571.34
1661.66
1684.6
1672.76
1651.88
1631.03
1609.27
1585.66
1561.52
461.207
457.994
560.521
578.717
600.943
628.329
662.628
704.035
751.09
801.534
853.409
904.931
953.764
998.225
1038.04
1071.33
1097.23
1116.19
1129.14
1136.76
1140.02
1140.11
1137.39
1132.67
1126.37
1118.91
1110.53
1101.41
1091.73
1081.62
1071.15
1060.46
1049.56
1038.51
1027.32
1016.04
1004.77
993.422
982.235
971.15
960.098
949.114
938.283
927.553
916.998
906.577
896.317
886.26
876.465
866.889
857.49
848.405
839.704
831.401
823.543
816.195
809.414
803.286
797.907
793.382
789.841
787.427
786.282
786.617
788.626
792.495
798.395
806.519
817.292
831.1
848.386
869.75
895.674
926.342
961.398
1000.04
1041.04
1082.59
1122.51
1158.57
1189.06
1213.31
1232.54
1251.25
1279.24
1331.67
1417.21
1514.28
1581.55
1605.17
1601.65
1588.82
1573.59
1557.42
1538.92