/*--------------------------------*- C++ -*----------------------------------*\
| =========                 |                                                 |
| \\      /  F ield         | OpenFOAM: The Open Source CFD Toolbox           |
|  \\    /   O peration     | Version:  2212                                  |
|   \\  /    A nd           | Website:  www.openfoam.com                      |
|    \\/     M anipulation  |                                                 |
\*---------------------------------------------------------------------------*/
FoamFile
{
    version     2.0;
    format      ascii;
    arch        "LSB;label=32;scalar=64";
    class       volVectorField;
    location    "2.25e-05";
    object      U;
}
// * * * * * * * * * * * * * * * * * * * * * * * * * * * * * * * * * * * * * //

dimensions      [0 1 -1 0 0 0 0];

internalField   nonuniform List<vector> 
22212
(
(-3.8e-11 258 253)
(-7.65e-11 267 182)
(-1.25e-10 264 191)
(-2.33e-10 267 188)
(-5.41e-10 268 185)
(2.94e-10 270 180)
(-6.03e-10 271 177)
(-2.7e-10 272 172)
(1.93e-10 273 169)
(-2.92e-10 275 163)
(3.8e-10 276 159)
(-3.55e-10 278 153)
(2.36e-10 279 149)
(-2.43e-10 282 142)
(1.9e-10 283 138)
(-6.33e-11 285 132)
(-1.77e-11 286 128)
(8.16e-11 288 122)
(-1.61e-10 289 118)
(9.99e-11 291 112)
(-4.27e-12 292 108)
(-9.64e-11 294 102)
(-8.88e-11 295 99.2)
(-6.75e-10 296 93.4)
(-9.3e-12 298 89.9)
(-2.98e-11 299 83.2)
(8.86e-12 301 79.5)
(-1.31e-12 302 73.4)
(1.23e-12 304 69.7)
(2.75e-12 305 64.5)
(-5.56e-12 306 60.4)
(-8.77e-11 308 55.6)
(6.41e-11 309 51.7)
(-5.74e-11 310 47)
(-5.98e-11 311 42.9)
(-5.53e-11 313 38.2)
(1.88e-11 314 34.6)
(-4.54e-12 315 30.4)
(-1.44e-11 316 26.9)
(-3e-11 317 22.4)
(-1.67e-11 318 18.9)
(-8.47e-13 319 14.5)
(-5.74e-14 321 11.4)
(2.22e-13 321 7.95)
(-1.91e-12 322 5.57)
(7.95e-11 322 3.59)
(6.81e-11 323 2.34)
(3.61e-12 323 1.43)
(-7.47e-13 323 0.84)
(-1.25e-11 323 0.431)
(5.69e-11 323 0.168)
(6.56e-11 323 0.0299)
(-2.65e-12 323 -0.0263)
(-2.02e-11 323 -0.0458)
(-3.82e-11 323 -0.0555)
(-3.52e-11 323 -0.0594)
(-9.85e-13 323 -0.0579)
(1.65e-13 323 -0.0444)
(-1.45e-12 323 -0.034)
(-1.83e-12 323 -0.036)
(7.39e-15 323 -0.0441)
(1.27e-13 323 -0.0432)
(1.4e-13 323 -0.038)
(7.83e-14 323 -0.0339)
(1.44e-12 323 -0.035)
(-1.35e-11 323 -0.0423)
(-2.47e-11 323 -0.059)
(-1.28e-12 323 -0.0703)
(-1.64e-12 323 -0.0604)
(-1.12e-11 323 -0.0464)
(-2.44e-11 323 -0.0471)
(-7.85e-13 323 -0.047)
(-1.2e-12 323 -0.045)
(-9.94e-12 323 -0.0435)
(-2.04e-11 323 -0.0453)
(-2.25e-13 323 -0.0448)
(-2.1e-12 323 -0.0401)
(-2.43e-11 323 -0.0408)
(-4.03e-11 323 -0.0477)
(1.63e-12 323 -0.0584)
(6.39e-11 323 -0.0625)
(6.77e-11 323 -0.0609)
(5.28e-12 323 -0.0557)
(3.76e-13 323 -0.0539)
(1.26e-13 323 -0.0546)
(7.66e-14 323 -0.0567)
(1.91e-13 323 -0.0512)
(8.55e-14 323 -0.0395)
(1.3e-13 323 -0.0296)
(1.24e-13 323 -0.023)
(1.04e-13 323 -0.0157)
(6.61e-14 323 -0.0159)
(8.98e-14 323 -0.0245)
(4.31e-14 323 -0.0282)
(-1.51e-11 323 -0.029)
(-1.54e-11 323 -0.0338)
(7.3e-14 323 -0.0426)
(-2.16e-13 323 -0.0388)
(-1.64e-11 323 -0.0205)
(-1.52e-11 323 -0.00247)
(-8.09e-14 323 0.00283)
(1.16e-13 323 0.00208)
(1.78e-13 323 -0.00225)
(1.98e-13 323 -0.00346)
(-7.25e-12 323 0.00801)
(-7.15e-12 323 0.0167)
(-4.5e-10 323 0.00885)
(-4.39e-10 323 -0.0112)
(4.39e-14 323 -0.0257)
(7.31e-14 323 -0.0184)
(2.25e-14 323 -0.00303)
(1.87e-13 323 0.00735)
(-6.36e-13 323 0.0125)
(-1.8e-11 323 0.00999)
(-6.09e-11 323 0.00496)
(-3.91e-11 323 -0.00616)
(-2.12e-11 323 -0.00939)
(-3.16e-11 323 -0.00132)
(-1.29e-11 323 0.00369)
(2.29e-12 323 -0.00574)
(-9.53e-12 323 -0.0229)
(-1.31e-12 323 -0.0468)
(-2.15e-12 323 -0.0589)
(2.64e-13 323 -0.0605)
(1.7e-13 323 -0.0829)
(2.02e-13 323 -0.164)
(8.47e-14 323 -0.325)
(-1.64e-11 323 -0.592)
(-1.32e-11 323 -1.03)
(-2.73e-12 323 -1.77)
(-6.66e-11 322 -2.83)
(-5.97e-11 322 -4.45)
(1.64e-12 322 -6.35)
(1.26e-13 321 -9.19)
(1.02e-13 320 -12.1)
(1.06e-13 319 -16.3)
(-1.86e-12 318 -19.8)
(4.56e-12 317 -24.4)
(-6.09e-11 316 -28)
(-7.28e-11 314 -32.6)
(-1.43e-11 313 -36.7)
(-1.46e-12 312 -42)
(-8.66e-14 310 -46.6)
(4.24e-13 309 -52.1)
(-3.38e-13 307 -56.7)
(1.81e-12 306 -62.6)
(-1.3e-11 304 -67.4)
(4.74e-11 302 -73.6)
(-9.97e-11 301 -77.7)
(8.51e-11 299 -84)
(9.3e-13 298 -87.6)
(-4.04e-11 296 -94.4)
(-8.03e-12 295 -98.3)
(-1.34e-11 293 -105)
(7.85e-11 292 -108)
(-2.04e-10 290 -114)
(2.9e-10 289 -118)
(-3.13e-10 287 -122)
(1.07e-10 287 -125)
(1.67e-10 285 -129)
(-2.5e-10 284 -133)
(2.59e-10 282 -139)
(-1.13e-10 281 -143)
(-8.32e-12 279 -150)
(-1.2e-10 278 -154)
(2.82e-10 276 -161)
(-2.66e-10 275 -165)
(1.74e-10 273 -170)
(-1.57e-10 272 -174)
(2.14e-10 270 -179)
(4.35e-11 269 -182)
(1.08e-12 267 -186)
(-4.77e-12 266 -189)
(-9.75e-13 264 -191)
(2.12e-12 266 -184)
(3.41e-12 257 -252)
(-1.83e-12 191 262)
(-7.11e-12 192 183)
(-1.32e-11 194 193)
(-2.06e-11 196 189)
(5.58e-11 197 187)
(5.71e-10 198 183)
(-3.05e-10 199 180)
(2.24e-10 201 175)
(4.35e-10 201 172)
(-3.98e-10 202 166)
(4.28e-10 203 162)
(-2.92e-10 205 156)
(2.14e-10 205 152)
(-2.32e-10 207 145)
(1.47e-10 207 141)
(-1.14e-11 209 134)
(-9.5e-11 209 131)
(1.24e-10 211 125)
(-1.58e-10 211 121)
(8.86e-11 212 115)
(2.82e-11 213 111)
(-7.81e-11 214 105)
(1.28e-10 215 102)
(1.07e-10 216 95.8)
(3.08e-10 217 92.6)
(-5.13e-11 218 85.7)
(7.68e-12 219 82.1)
(-8.41e-13 220 75.9)
(9.13e-13 221 72.2)
(4.19e-12 221 66.9)
(6.3e-12 222 62.8)
(-1.06e-10 223 58)
(7.76e-11 224 54.1)
(-5.79e-11 224 49.3)
(-4.4e-11 225 45.1)
(-4.44e-11 226 40.4)
(3.48e-11 227 36.7)
(-7.6e-12 227 32.4)
(-2.34e-11 228 28.8)
(-3.49e-11 229 24.1)
(-3.05e-11 229 20.4)
(-1.13e-12 230 15.9)
(-1.11e-13 230 12.6)
(1.51e-13 231 9)
(-2.11e-13 231 6.42)
(8.38e-11 232 4.19)
(7.23e-11 232 2.76)
(2.22e-12 232 1.7)
(-1.08e-12 232 1)
(-1.14e-11 232 0.53)
(6.49e-11 232 0.237)
(7.11e-11 232 0.0803)
(-5.55e-12 232 0.011)
(-2.44e-11 232 -0.0131)
(-3.47e-11 232 -0.0248)
(-2.87e-11 232 -0.0312)
(3.12e-13 232 -0.0354)
(3.04e-13 232 -0.0361)
(-3.07e-12 232 -0.0381)
(-3.83e-12 232 -0.0357)
(-1.59e-13 232 -0.035)
(1.31e-13 233 -0.0355)
(1.33e-13 233 -0.0396)
(1.87e-14 233 -0.0421)
(2.12e-12 233 -0.0449)
(-2e-11 233 -0.0441)
(-3.39e-11 233 -0.0403)
(-2.51e-12 233 -0.0365)
(-8.1e-13 233 -0.0394)
(-1.8e-11 233 -0.0415)
(-3.37e-11 233 -0.0405)
(-2.31e-12 233 -0.0402)
(-1.41e-12 233 -0.0416)
(-8.79e-12 233 -0.0433)
(-1.95e-11 233 -0.0445)
(1.02e-12 233 -0.0458)
(-3.2e-12 233 -0.0495)
(-2.53e-11 233 -0.0508)
(-4e-11 233 -0.0475)
(1.97e-12 233 -0.0466)
(6.72e-11 233 -0.0451)
(7e-11 233 -0.0463)
(3.81e-12 233 -0.0461)
(2.2e-13 233 -0.0465)
(1.03e-13 233 -0.0437)
(7.55e-14 233 -0.0417)
(1.97e-13 233 -0.0393)
(8.51e-14 233 -0.0396)
(1.08e-13 233 -0.038)
(7.51e-14 233 -0.0344)
(9.29e-14 233 -0.0319)
(6.39e-14 233 -0.0257)
(-1.09e-14 233 -0.0179)
(-1.08e-14 233 -0.0133)
(-1.32e-11 233 -0.0104)
(-1.35e-11 233 -0.00565)
(5.46e-14 233 -0.000795)
(3.28e-13 233 0.00215)
(1.82e-12 233 -1.6e-05)
(2.58e-12 233 -0.000746)
(-2.18e-13 233 -0.00104)
(1.13e-13 233 0.00157)
(1.93e-13 233 0.00322)
(1.32e-13 233 0.00673)
(-8.15e-12 233 0.00523)
(-5.72e-12 233 0.00284)
(2.38e-10 233 0.00574)
(2.39e-10 233 0.00883)
(1.76e-14 233 0.011)
(9.73e-14 233 0.00989)
(-1.7e-14 233 0.00899)
(2.08e-13 233 0.0082)
(-9.53e-13 233 0.00794)
(-2.73e-11 233 0.00645)
(-7.6e-11 233 0.00691)
(-4.46e-11 233 0.00732)
(-3.24e-11 233 0.00904)
(-3.89e-11 233 0.00714)
(-1.01e-11 233 0.007)
(2.06e-12 233 0.0058)
(-1.05e-11 233 0.00524)
(-2.07e-12 233 -0.00218)
(-2e-12 233 -0.0186)
(2.88e-13 233 -0.058)
(1.56e-13 233 -0.128)
(2.12e-13 233 -0.243)
(3.68e-13 233 -0.433)
(-1.36e-11 233 -0.746)
(-1.05e-11 233 -1.25)
(-2.07e-12 233 -2.1)
(-5.91e-11 232 -3.32)
(-5.27e-11 232 -5.16)
(9.62e-13 232 -7.25)
(9.98e-14 231 -10.3)
(8.77e-14 231 -13.4)
(1.98e-13 230 -17.8)
(-3.57e-12 230 -21.4)
(3.7e-12 229 -26.2)
(-5.48e-11 228 -29.9)
(-6.58e-11 228 -34.6)
(-1.43e-11 227 -38.8)
(-1.63e-12 226 -44.2)
(-2.01e-13 225 -48.8)
(5.25e-13 224 -54.4)
(-2.7e-13 223 -59.1)
(9.37e-13 223 -65)
(-1.2e-11 221 -69.8)
(4.62e-11 221 -76)
(-1.08e-10 219 -80.1)
(1.03e-10 219 -86.6)
(-8.38e-12 218 -90)
(-4.21e-11 217 -97.1)
(-7.08e-12 216 -101)
(1.53e-11 215 -108)
(4.22e-11 214 -111)
(-1.2e-10 213 -117)
(2.19e-10 212 -120)
(-4.08e-10 211 -125)
(3.23e-10 211 -127)
(2.85e-11 210 -132)
(-2.89e-10 210 -135)
(3.5e-10 208 -141)
(-2.13e-10 207 -146)
(-1.68e-11 205 -152)
(-3.42e-11 205 -157)
(2.18e-10 203 -163)
(-3.21e-10 203 -167)
(2.35e-10 201 -173)
(-1.43e-10 201 -176)
(3.35e-10 200 -182)
(-8.29e-11 199 -184)
(-1.98e-11 198 -188)
(-5.31e-12 197 -190)
(9.67e-13 195 -193)
(2.64e-12 193 -185)
(5.25e-13 192 -261)
(2.87e-12 200 260)
(2.25e-12 202 185)
(-4.57e-12 203 194)
(-4.37e-11 205 190)
(-2.05e-10 206 188)
(3.41e-10 207 183)
(-1.84e-10 208 181)
(-6.74e-11 210 175)
(2.95e-10 210 172)
(-8.17e-12 212 166)
(4.41e-10 212 163)
(-2.18e-10 214 156)
(2.02e-10 214 152)
(-2.2e-10 216 145)
(9.68e-11 216 141)
(3.72e-11 218 135)
(-1.44e-10 219 131)
(1.42e-10 220 125)
(-1.42e-10 221 122)
(6.72e-11 222 115)
(4.48e-11 223 111)
(-1e-10 224 105)
(1.06e-10 225 102)
(-7.35e-11 226 96.1)
(3.4e-11 227 92.9)
(-1.04e-11 228 85.9)
(2.63e-12 229 82.3)
(-4.01e-13 230 76.1)
(3.72e-13 231 72.4)
(3.71e-12 231 67.1)
(1.8e-11 232 63.1)
(-1.18e-10 233 58.2)
(8.52e-11 234 54.3)
(-5.11e-11 235 49.4)
(-2.51e-11 236 45.3)
(-3.16e-11 236 40.5)
(4.67e-11 237 36.8)
(-9.47e-12 238 32.5)
(-3.36e-11 239 28.8)
(-4.2e-11 239 24.1)
(-4.26e-11 240 20.5)
(-1.25e-12 241 15.9)
(-1.45e-13 241 12.7)
(1.25e-13 242 9.02)
(6.4e-13 242 6.46)
(3.18e-10 243 4.23)
(3.11e-10 243 2.8)
(1.63e-12 243 1.74)
(-3.91e-13 243 1.03)
(-1.65e-11 243 0.553)
(2.91e-10 244 0.253)
(3.11e-10 244 0.0902)
(-9.93e-12 244 0.0173)
(-3.4e-11 244 -0.00718)
(-3.15e-11 244 -0.0182)
(-1.91e-11 244 -0.024)
(1.81e-12 244 -0.0294)
(5.32e-13 244 -0.0312)
(-5e-12 244 -0.0326)
(-6.23e-12 244 -0.0306)
(-3.55e-13 244 -0.0307)
(1.65e-13 244 -0.0313)
(1.32e-13 244 -0.0353)
(-1.05e-14 244 -0.0376)
(2.51e-12 244 -0.0402)
(-2.29e-11 244 -0.039)
(-3.82e-11 244 -0.0363)
(-3.27e-12 244 -0.0334)
(-2.56e-13 244 -0.035)
(-2.12e-11 244 -0.0366)
(-3.82e-11 244 -0.0366)
(-3.12e-12 244 -0.037)
(-7.1e-13 244 -0.0384)
(-1.46e-11 244 -0.0401)
(-2.76e-11 244 -0.0415)
(1.91e-13 244 -0.0432)
(-3.85e-12 244 -0.0459)
(-2.18e-11 244 -0.047)
(-3.68e-11 244 -0.0446)
(4.58e-12 244 -0.0437)
(3.03e-10 244 -0.0419)
(3.08e-10 244 -0.0426)
(3.02e-12 244 -0.0423)
(1.32e-13 244 -0.043)
(9.42e-14 244 -0.0405)
(7.09e-14 244 -0.0387)
(1.95e-13 244 -0.0366)
(9.14e-14 244 -0.0364)
(7.56e-14 244 -0.0348)
(3.62e-14 244 -0.0316)
(1e-13 244 -0.0279)
(7.57e-14 244 -0.0217)
(-6.32e-14 244 -0.0145)
(6.59e-14 244 -0.00825)
(-2.03e-11 244 -0.00472)
(-2.07e-11 244 -0.00116)
(6.78e-14 244 0.00341)
(5.78e-13 244 0.00684)
(1.12e-11 244 0.00462)
(1.19e-11 244 0.00395)
(-2.79e-13 244 0.00382)
(8.65e-14 244 0.00605)
(1.77e-13 244 0.0074)
(-1.17e-13 244 0.0106)
(-1.5e-11 244 0.00886)
(-1.29e-11 244 0.00642)
(3.05e-12 244 0.00964)
(3.14e-12 244 0.013)
(-5.21e-14 244 0.0145)
(1.19e-13 244 0.0131)
(-3.32e-14 244 0.0123)
(2.14e-13 244 0.0117)
(-1.19e-12 244 0.0118)
(-3.5e-11 244 0.0102)
(-8.25e-11 244 0.011)
(-4.33e-11 244 0.0116)
(-4.01e-11 244 0.0129)
(-5.25e-11 244 0.0107)
(-1.65e-11 244 0.0106)
(1.51e-12 244 0.0102)
(-1.89e-11 244 0.00908)
(-8.97e-12 244 0.000973)
(-1.21e-12 244 -0.0165)
(2.72e-13 244 -0.0587)
(1.38e-13 244 -0.133)
(1.96e-13 244 -0.253)
(3.36e-14 244 -0.449)
(-2.12e-11 244 -0.769)
(-1.75e-11 244 -1.28)
(-9.46e-13 244 -2.15)
(-4.53e-11 243 -3.37)
(-3.99e-11 243 -5.21)
(4.05e-13 243 -7.29)
(6.49e-14 242 -10.4)
(6.94e-14 242 -13.4)
(3.25e-13 241 -17.8)
(-5.54e-12 240 -21.5)
(1.07e-12 240 -26.3)
(-4.33e-11 239 -30)
(-5.08e-11 238 -34.8)
(-1.19e-11 237 -39)
(-1.45e-12 236 -44.3)
(-2.93e-13 235 -49)
(6.6e-13 235 -54.6)
(-2.55e-13 233 -59.3)
(1.67e-13 233 -65.2)
(-1.15e-11 231 -70)
(4.35e-11 231 -76.3)
(-1.08e-10 229 -80.3)
(1.09e-10 229 -86.9)
(-1.75e-11 227 -90.3)
(-3.37e-11 226 -97.4)
(5.53e-12 225 -101)
(3.66e-11 224 -108)
(3.32e-11 223 -111)
(-5.94e-11 222 -117)
(1.09e-10 222 -120)
(-3.78e-10 221 -125)
(5.22e-10 221 -128)
(2.1e-10 219 -133)
(-2.64e-10 219 -136)
(4e-10 217 -142)
(-3.01e-10 217 -146)
(2.92e-11 215 -153)
(1.59e-11 214 -157)
(1.17e-10 212 -164)
(-3.29e-10 212 -167)
(2.84e-10 210 -174)
(-7.92e-11 210 -177)
(7.79e-10 208 -182)
(1.64e-10 208 -185)
(1.87e-11 206 -189)
(8.29e-12 205 -191)
(7.74e-12 204 -194)
(6.09e-12 203 -186)
(-7.22e-15 201 -259)
(5.93e-12 198 262)
(1.98e-11 200 187)
(4.68e-11 201 196)
(1.42e-10 203 192)
(2.87e-10 204 190)
(4.24e-10 205 185)
(1.32e-10 206 183)
(-4.26e-10 207 177)
(2.83e-10 208 174)
(-1.92e-10 209 168)
(-2.01e-10 210 165)
(-5.86e-11 212 158)
(2.11e-10 212 154)
(-1.98e-10 214 147)
(-3.86e-11 214 144)
(1.59e-10 216 137)
(-2.28e-10 216 134)
(1.65e-10 218 127)
(-9.38e-11 218 124)
(6.33e-12 220 117)
(8.67e-11 221 114)
(-1.29e-10 222 107)
(1.26e-10 223 104)
(-8.75e-11 223 98.2)
(4.21e-11 224 95)
(-1.37e-11 225 88)
(3.3e-12 226 84.4)
(-6.83e-13 227 78.1)
(-1.14e-12 228 74.5)
(-1.65e-12 229 69.1)
(4.94e-11 230 65)
(5.2e-10 231 60.1)
(5.05e-10 232 56.2)
(-2.75e-11 232 51.3)
(2.17e-11 233 47.1)
(-7.43e-12 234 42.3)
(7.01e-11 235 38.5)
(-1.26e-11 235 34.2)
(-6.21e-11 236 30.5)
(-6.15e-11 237 25.7)
(-7.55e-11 238 21.9)
(-9.45e-13 238 17.2)
(-2.22e-13 239 13.9)
(7.84e-14 239 9.99)
(1.78e-12 240 7.23)
(-3.29e-10 240 4.77)
(-3.24e-10 241 3.19)
(-2.46e-12 241 2.01)
(2.28e-12 241 1.21)
(-3.24e-11 241 0.663)
(-3.83e-10 241 0.316)
(-3.26e-10 241 0.124)
(-2.53e-11 241 0.0373)
(-6.3e-11 241 0.00721)
(-2.49e-11 241 -0.00516)
(6.5e-12 241 -0.0109)
(6.11e-12 241 -0.0177)
(1.38e-12 241 -0.0216)
(-1.24e-11 241 -0.0241)
(-1.54e-11 241 -0.0226)
(-1.09e-12 241 -0.0232)
(2.55e-13 241 -0.0244)
(7.95e-14 241 -0.029)
(1.61e-15 241 -0.0313)
(2.43e-12 241 -0.0338)
(-1.9e-11 241 -0.0321)
(-3.28e-11 241 -0.0291)
(-2.48e-12 242 -0.0258)
(-2.17e-13 242 -0.028)
(-1.72e-11 242 -0.0304)
(-3.36e-11 242 -0.0308)
(-2e-12 242 -0.0318)
(2.53e-12 242 -0.0338)
(-3.76e-11 242 -0.0362)
(-5.93e-11 242 -0.038)
(-3.75e-12 242 -0.0401)
(-4.35e-12 242 -0.0426)
(6.14e-10 242 -0.0436)
(6.15e-10 242 -0.0409)
(1.53e-11 242 -0.0395)
(-3.21e-10 242 -0.0372)
(-3.19e-10 242 -0.0379)
(-5.05e-12 242 -0.0375)
(-3.14e-14 242 -0.0385)
(4.27e-14 242 -0.0362)
(3e-14 242 -0.0349)
(1.22e-13 242 -0.0334)
(1.17e-13 242 -0.0339)
(-1.07e-14 242 -0.0324)
(-9.3e-14 242 -0.0292)
(1.1e-13 242 -0.025)
(1.29e-13 242 -0.0184)
(-1.5e-13 242 -0.01)
(4.36e-13 242 -0.00243)
(-4.97e-11 242 0.00129)
(-5.04e-11 242 0.00454)
(1.08e-13 242 0.00919)
(7.89e-13 242 0.013)
(1.98e-11 242 0.0105)
(2.05e-11 242 0.00916)
(-3.23e-13 242 0.00839)
(-1.61e-14 242 0.0101)
(1.62e-13 242 0.0109)
(-9.23e-13 242 0.0134)
(-3.92e-11 242 0.0115)
(-3.66e-11 242 0.00947)
(2.45e-12 242 0.0123)
(2.08e-12 242 0.0161)
(-1.19e-13 242 0.018)
(1.48e-13 242 0.0163)
(-8.2e-14 242 0.0152)
(1.68e-13 242 0.0141)
(-1.68e-12 242 0.014)
(-5.59e-11 242 0.0126)
(-8.82e-11 242 0.0134)
(-2.72e-11 242 0.0143)
(-4.34e-11 242 0.0157)
(-8.5e-11 242 0.0135)
(-4.55e-11 242 0.0129)
(2.6e-13 242 0.0119)
(-4.96e-11 242 0.00967)
(-3.37e-11 242 0.000315)
(1.75e-12 242 -0.0214)
(1.74e-13 242 -0.0712)
(9.89e-14 242 -0.159)
(1.4e-13 242 -0.302)
(-1.43e-12 242 -0.531)
(-5.4e-11 242 -0.903)
(-4.77e-11 242 -1.49)
(2.65e-12 241 -2.48)
(1.42e-13 241 -3.84)
(2.66e-12 241 -5.87)
(-1.24e-12 240 -8.13)
(-4.86e-14 240 -11.4)
(-1.82e-15 239 -14.6)
(7.69e-13 239 -19.2)
(-1.24e-11 238 -23)
(-8.87e-12 237 -27.9)
(-7.97e-12 236 -31.6)
(-4.78e-12 236 -36.5)
(-3.79e-12 235 -40.7)
(-6.88e-13 234 -46.1)
(-5.36e-13 233 -50.8)
(1.17e-12 232 -56.4)
(-2.28e-13 231 -61.1)
(-2.07e-12 230 -67.1)
(-1.09e-11 229 -71.9)
(3.38e-11 228 -78.2)
(-9.94e-11 227 -82.2)
(1.13e-10 226 -88.9)
(-3.97e-11 225 -92.2)
(-7.55e-12 224 -99.4)
(4.29e-11 223 -103)
(7.84e-11 222 -110)
(3.87e-11 221 -113)
(2.67e-11 220 -119)
(-1.11e-10 220 -122)
(-1.31e-10 219 -127)
(1.11e-10 218 -130)
(-4.15e-10 217 -135)
(-3.13e-10 217 -138)
(6.42e-10 215 -144)
(2.3e-10 214 -148)
(2.17e-10 212 -155)
(5.73e-11 212 -159)
(-1.13e-10 210 -166)
(-2.66e-10 210 -169)
(4.28e-10 208 -176)
(-5.72e-10 208 -179)
(1.32e-10 206 -184)
(-4.96e-10 206 -186)
(-8.59e-11 204 -191)
(2.55e-11 203 -193)
(2.19e-11 202 -196)
(1.32e-11 201 -188)
(3.65e-13 199 -261)
(-9.16e-12 196 263)
(-3.43e-11 199 188)
(-8.24e-11 199 197)
(-2.25e-10 201 192)
(-3.9e-10 202 191)
(-4e-10 204 186)
(7.05e-10 204 183)
(-2.63e-10 206 178)
(1.2e-10 206 175)
(3.93e-10 208 169)
(1.56e-10 208 165)
(-5.47e-10 210 159)
(2.74e-10 210 155)
(-1.21e-10 212 148)
(-2.08e-10 213 144)
(2.29e-10 215 137)
(-1.62e-10 215 134)
(1.08e-10 216 128)
(-4.79e-11 217 124)
(-5.31e-11 218 117)
(1.07e-10 219 114)
(-1.25e-10 220 107)
(1.05e-10 221 105)
(-7.24e-11 222 98.3)
(4.15e-11 223 95.2)
(-1.54e-11 223 88.1)
(3.32e-12 225 84.5)
(-1.11e-13 225 78.2)
(-1.68e-12 227 74.6)
(-1.86e-11 227 69.1)
(-1.33e-10 228 65.1)
(-5.51e-10 229 60.1)
(-4.03e-10 230 56.2)
(9.18e-11 231 51.3)
(8.48e-12 231 47.2)
(-5.65e-11 232 42.3)
(4.41e-11 233 38.6)
(-5.34e-12 234 34.2)
(-6.02e-11 234 30.5)
(-4.72e-11 235 25.7)
(-7.53e-11 236 21.9)
(7.37e-13 237 17.3)
(-1.34e-13 237 14)
(1.4e-13 238 10.2)
(-4.7e-12 239 7.48)
(2.76e-10 239 4.99)
(2.82e-10 239 3.37)
(8.98e-12 240 2.14)
(1.99e-12 240 1.32)
(-4.11e-11 240 0.742)
(2.21e-10 240 0.369)
(2.78e-10 240 0.156)
(-4.12e-12 240 0.0557)
(-3.78e-11 240 0.0176)
(-3.36e-11 240 0.00155)
(-2.12e-11 240 -0.00458)
(3.64e-12 240 -0.0104)
(1.81e-12 240 -0.0122)
(-2.02e-11 240 -0.0138)
(-2.49e-11 240 -0.014)
(-1.91e-12 240 -0.0167)
(2.69e-13 240 -0.0181)
(-1.15e-13 240 -0.0212)
(3.88e-13 240 -0.0226)
(-1.62e-12 240 -0.0245)
(1.95e-11 240 -0.024)
(2.35e-11 240 -0.0245)
(6.65e-12 240 -0.0232)
(-5.88e-12 240 -0.0228)
(2.46e-11 240 -0.0227)
(2.25e-11 240 -0.0238)
(8.32e-12 240 -0.0258)
(2.95e-12 240 -0.0276)
(-3.85e-11 240 -0.0298)
(-5.99e-11 240 -0.0323)
(-4.93e-12 240 -0.0343)
(1.06e-11 240 -0.0358)
(-5.4e-10 240 -0.0364)
(-5.68e-10 240 -0.0349)
(5.56e-10 240 -0.0348)
(8.6e-10 240 -0.033)
(2.88e-10 240 -0.0335)
(9.31e-12 240 -0.0323)
(3.45e-13 240 -0.0326)
(2.22e-14 240 -0.031)
(-4.93e-14 240 -0.0306)
(-1.63e-14 240 -0.029)
(1.22e-13 240 -0.0282)
(-3.55e-14 240 -0.0261)
(-1.41e-13 240 -0.0226)
(1.8e-13 240 -0.0182)
(1.78e-13 240 -0.0122)
(5.55e-14 240 -0.00483)
(5.09e-13 240 0.00201)
(-5.44e-11 240 0.00621)
(-5.53e-11 240 0.00954)
(-3.78e-15 240 0.0118)
(-4.43e-13 240 0.0147)
(-3.22e-11 240 0.0154)
(-3e-11 240 0.0168)
(-2.01e-15 240 0.0158)
(-5.23e-14 240 0.0169)
(1.17e-13 240 0.0159)
(-6.33e-13 240 0.0169)
(-3.1e-11 240 0.0172)
(-2.93e-11 240 0.0182)
(-1.04e-11 240 0.0194)
(-9.55e-12 240 0.0191)
(4.24e-13 240 0.0193)
(5.3e-14 240 0.0189)
(-1.92e-14 240 0.0197)
(6.57e-14 240 0.0195)
(-1.48e-12 240 0.0197)
(-5.38e-11 240 0.0187)
(-5.3e-11 240 0.0188)
(6.83e-12 240 0.0179)
(1.89e-11 240 0.0188)
(-3.95e-11 240 0.0186)
(-5.77e-11 240 0.0187)
(3.21e-12 240 0.0154)
(-4.32e-11 240 0.0106)
(-2.67e-11 240 -0.00377)
(1.45e-12 240 -0.0302)
(1.68e-13 240 -0.0812)
(1.07e-13 240 -0.175)
(2.97e-14 240 -0.332)
(-1.7e-12 240 -0.58)
(-6.5e-11 240 -0.98)
(-5.8e-11 240 -1.6)
(2.66e-12 240 -2.63)
(1.04e-11 240 -4.02)
(1.23e-11 239 -6.07)
(-1.22e-12 239 -8.32)
(-7.97e-14 238 -11.6)
(5.84e-14 238 -14.8)
(1.11e-12 237 -19.3)
(-1.98e-11 236 -23.1)
(-2.09e-11 236 -27.9)
(6.16e-12 235 -31.7)
(1.58e-11 234 -36.5)
(2.05e-12 233 -40.7)
(2.21e-13 232 -46.2)
(-7.43e-13 231 -50.8)
(2.1e-12 230 -56.5)
(-1.23e-13 229 -61.1)
(-5.95e-12 229 -67.1)
(-9.27e-12 227 -71.9)
(1.4e-11 227 -78.3)
(-7.02e-11 225 -82.3)
(1.07e-10 225 -88.9)
(-5.37e-11 223 -92.3)
(-7.5e-12 223 -99.5)
(4.27e-11 222 -103)
(6.31e-11 221 -110)
(5.76e-11 220 -113)
(-6.58e-11 219 -120)
(1.76e-11 218 -122)
(-2.43e-10 217 -127)
(3.43e-10 217 -130)
(6.22e-10 215 -135)
(2.87e-10 215 -138)
(1.88e-11 213 -144)
(-7.5e-10 213 -148)
(8.53e-12 211 -155)
(-1.16e-10 211 -159)
(-1.43e-10 209 -166)
(6.61e-11 208 -170)
(2.45e-11 207 -176)
(-4.13e-10 206 -179)
(7.34e-10 205 -184)
(-1.65e-10 204 -187)
(4.82e-10 203 -191)
(1.53e-10 202 -193)
(4.25e-11 200 -197)
(1.54e-11 199 -189)
(-3.92e-12 197 -262)
(3.99e-11 193 265)
(1.13e-10 195 190)
(1.88e-10 196 198)
(3.55e-10 198 194)
(4.1e-10 199 193)
(3.11e-10 200 188)
(1.13e-10 201 185)
(-3.46e-12 203 179)
(-3.83e-10 203 177)
(-2.07e-10 204 171)
(4.96e-10 205 167)
(-2.52e-10 207 160)
(-9.7e-11 207 157)
(7.03e-11 209 149)
(-3.43e-10 209 146)
(2.65e-10 211 139)
(-1.11e-10 211 136)
(9.8e-11 213 129)
(-3.31e-11 213 126)
(-1e-10 214 119)
(1.33e-10 215 116)
(-1.33e-10 216 109)
(1.09e-10 217 106)
(-8.41e-11 218 99.9)
(5.56e-11 219 96.8)
(-2.29e-11 220 89.7)
(5.81e-12 221 86.1)
(-5.39e-13 221 79.7)
(3.31e-12 223 76.1)
(2.52e-11 223 70.6)
(1.39e-10 224 66.6)
(4.42e-10 225 61.6)
(2.7e-10 226 57.7)
(-1.05e-10 226 52.7)
(-2.18e-11 227 48.5)
(-1.25e-10 228 43.5)
(3.1e-11 229 39.8)
(1.38e-12 230 35.3)
(5.45e-10 230 31.6)
(4.82e-10 231 26.7)
(-6.77e-11 232 22.9)
(2.48e-12 232 18.1)
(1.94e-14 233 14.7)
(4.81e-14 234 10.8)
(2.13e-12 234 7.96)
(-1.78e-10 235 5.34)
(-1.75e-10 235 3.62)
(-3.44e-12 235 2.31)
(-4.13e-12 236 1.44)
(9.53e-12 236 0.823)
(-1.72e-10 236 0.43)
(-1.75e-10 236 0.204)
(5.3e-10 236 0.0955)
(1.09e-09 236 0.0551)
(5.04e-10 236 0.0375)
(-6.54e-11 236 0.0291)
(-5.84e-13 236 0.0208)
(2.2e-12 236 0.015)
(-3.11e-11 236 0.00972)
(-3.84e-11 236 0.00995)
(-2.91e-12 236 0.00929)
(1.56e-13 236 0.00747)
(-1.52e-13 236 0.00166)
(9.15e-14 236 -0.00162)
(2.6e-12 236 -0.00378)
(8.39e-12 236 -0.000115)
(8.98e-12 236 0.00521)
(7.02e-12 236 0.0106)
(-4.32e-12 236 0.00821)
(1.63e-11 236 0.00394)
(1.05e-11 236 0.00241)
(8.82e-12 236 -9.88e-05)
(-3.28e-12 236 -0.00314)
(2.78e-12 236 -0.00653)
(-6.24e-12 236 -0.0091)
(3.87e-12 236 -0.0118)
(-5.08e-12 236 -0.0158)
(3.81e-10 236 -0.0164)
(3.98e-10 236 -0.0111)
(-4.37e-10 236 -0.00719)
(-6.25e-10 236 -0.00317)
(-1.74e-10 236 -0.0039)
(-3.29e-12 236 -0.00388)
(2.01e-13 236 -0.00496)
(-4.66e-14 236 -0.00235)
(3.14e-15 236 -0.000927)
(-1.1e-13 236 -0.000515)
(7.41e-14 236 -0.00358)
(-4.52e-14 236 -0.00448)
(-1.01e-13 236 -0.0021)
(1.87e-13 236 0.00151)
(1.84e-13 236 0.01)
(1.43e-13 236 0.0227)
(-2.37e-13 236 0.0333)
(-7.36e-12 236 0.0401)
(-8.02e-12 236 0.0472)
(-3.2e-13 236 0.0542)
(-4.77e-13 236 0.057)
(-3.82e-11 236 0.0507)
(-3.59e-11 236 0.0454)
(-3.56e-14 236 0.0419)
(-2.06e-14 236 0.0435)
(1.06e-13 236 0.044)
(1.24e-12 236 0.0467)
(5.55e-10 236 0.0428)
(5.53e-10 236 0.0404)
(-1.1e-11 236 0.046)
(-8.75e-12 236 0.0537)
(4.53e-13 236 0.0598)
(4.43e-14 236 0.057)
(-4.83e-14 236 0.0521)
(8.13e-14 236 0.0476)
(-1.21e-12 236 0.0454)
(-5.2e-11 236 0.0449)
(-4.26e-11 236 0.0471)
(1.43e-11 236 0.0504)
(2.2e-11 236 0.0535)
(7.25e-12 236 0.0501)
(-1.54e-11 236 0.0489)
(9.85e-12 236 0.0491)
(5.56e-10 236 0.0495)
(5.53e-10 236 0.0396)
(-4.41e-12 236 0.00999)
(3.93e-13 236 -0.0571)
(9.88e-14 236 -0.172)
(3.71e-14 236 -0.346)
(6.04e-13 236 -0.613)
(-2e-11 236 -1.04)
(-1.63e-11 236 -1.7)
(1.99e-13 236 -2.8)
(-5.61e-12 236 -4.27)
(-2.35e-12 235 -6.43)
(-9.99e-13 235 -8.79)
(-9.07e-14 234 -12.2)
(1.97e-13 233 -15.5)
(1.53e-12 233 -20.2)
(-3.05e-11 232 -24)
(-3.24e-11 231 -28.9)
(-6.46e-12 231 -32.7)
(-2.18e-12 230 -37.6)
(-1.17e-12 229 -41.9)
(4.26e-14 228 -47.4)
(-1.34e-12 227 -52.1)
(3.72e-12 227 -57.8)
(6.84e-13 225 -62.5)
(-1.45e-11 225 -68.5)
(-2.03e-12 223 -73.3)
(-1.77e-11 223 -79.7)
(-5.17e-11 221 -83.7)
(1.49e-10 221 -90.4)
(-7.28e-11 220 -93.8)
(-6.49e-11 219 -101)
(-4.37e-11 218 -105)
(2.09e-11 217 -112)
(-5.1e-11 216 -115)
(3.06e-12 215 -121)
(-1.38e-10 215 -124)
(9.91e-11 213 -129)
(-2.18e-10 213 -132)
(-6.04e-10 212 -137)
(-5.93e-10 212 -140)
(1.48e-11 210 -146)
(2.42e-11 210 -150)
(6.28e-10 208 -157)
(8.84e-11 208 -161)
(1.52e-10 206 -168)
(-1.46e-11 205 -171)
(9.62e-11 204 -178)
(7.11e-11 203 -181)
(3.85e-10 202 -186)
(-7.84e-10 201 -188)
(1.8e-10 200 -193)
(-3.75e-10 199 -195)
(-1.21e-10 197 -198)
(-5.77e-11 197 -190)
(-3.01e-11 194 -264)
(-1.23e-10 190 266)
(-2.27e-10 193 190)
(-2.89e-10 194 199)
(-3.79e-10 196 195)
(-2.95e-10 196 193)
(-1.98e-10 198 188)
(-6.77e-11 199 185)
(5.84e-11 200 180)
(1.78e-10 201 177)
(-3.5e-10 202 171)
(2.29e-10 203 167)
(-1.53e-10 205 161)
(1.93e-11 205 157)
(8.55e-11 207 150)
(3.88e-10 207 146)
(4.05e-10 209 139)
(-4.37e-11 209 136)
(7.65e-11 211 130)
(2.73e-11 211 126)
(-1.36e-10 212 119)
(1.37e-10 213 116)
(-1.02e-10 214 109)
(1.04e-10 215 106)
(-1.04e-10 216 100)
(6.93e-11 217 97)
(-3.04e-11 218 89.9)
(1.05e-11 219 86.4)
(-3.4e-12 219 80)
(-3.81e-12 221 76.4)
(-3.4e-11 221 70.8)
(-1.55e-10 222 66.9)
(-4.03e-10 223 61.8)
(-2.11e-10 224 58)
(7.57e-11 225 52.9)
(-5.15e-11 225 48.8)
(5.54e-10 226 43.8)
(5.32e-10 227 40.1)
(-6.69e-11 228 35.7)
(-4.94e-10 228 32)
(-4.68e-10 229 27.2)
(-1.38e-11 230 23.3)
(3.82e-12 231 18.5)
(1.58e-13 231 15.1)
(-3.29e-13 232 11.2)
(-1.3e-12 232 8.38)
(1.44e-10 233 5.67)
(1.39e-10 233 3.87)
(1.97e-12 234 2.48)
(-4.31e-12 234 1.57)
(1.19e-11 234 0.904)
(1.49e-10 234 0.47)
(1.45e-10 234 0.214)
(-4.59e-10 234 0.0876)
(-9.29e-10 234 0.0377)
(-4.95e-10 234 0.0177)
(-4.37e-11 234 0.0104)
(1.69e-12 234 0.00403)
(3.22e-12 234 0.00227)
(-4.42e-11 234 0.000654)
(-5.49e-11 234 -0.000482)
(-4.07e-12 234 -0.00389)
(3.76e-14 234 -0.00553)
(-8.65e-14 234 -0.0084)
(-8.17e-13 234 -0.00932)
(1.36e-11 234 -0.0107)
(-5.38e-11 234 -0.00977)
(-7.67e-11 234 -0.0111)
(-5.93e-12 234 -0.0108)
(4.79e-12 234 -0.00982)
(-4.6e-11 234 -0.00893)
(-7.41e-11 234 -0.0103)
(-2.95e-12 234 -0.0127)
(-5.53e-12 234 -0.0147)
(1.43e-11 234 -0.0172)
(8.97e-12 234 -0.0197)
(5.5e-12 234 -0.022)
(8.18e-12 234 -0.023)
(-3.51e-10 234 -0.023)
(-3.66e-10 234 -0.0213)
(3.99e-10 234 -0.0211)
(5.56e-10 234 -0.0193)
(1.46e-10 234 -0.0189)
(2.13e-12 234 -0.017)
(3.4e-14 234 -0.017)
(7.17e-15 234 -0.0155)
(8.2e-14 234 -0.0154)
(-1.02e-13 234 -0.014)
(7.19e-14 234 -0.0129)
(-1.49e-14 234 -0.0106)
(-3.91e-14 234 -0.00671)
(1.13e-13 234 -0.00119)
(1.51e-13 234 0.0049)
(2e-13 234 0.0119)
(-5.71e-13 234 0.0191)
(9.57e-12 234 0.0252)
(8.97e-12 234 0.0292)
(-3.29e-13 234 0.0315)
(-4.1e-13 234 0.0348)
(-3.06e-11 234 0.0362)
(-2.9e-11 234 0.0381)
(-7.68e-14 234 0.0366)
(-8.75e-14 234 0.037)
(4.43e-14 234 0.0351)
(3.3e-13 234 0.0356)
(-4.74e-10 234 0.0367)
(-4.75e-10 234 0.0388)
(1.07e-11 234 0.0396)
(9.84e-12 234 0.0389)
(-1.66e-13 234 0.0397)
(8.16e-14 234 0.0401)
(4.06e-14 234 0.0409)
(1.26e-13 234 0.0402)
(-4.13e-13 234 0.0402)
(-3.59e-11 234 0.0397)
(-1.7e-11 234 0.04)
(1.66e-11 234 0.0392)
(-5.6e-11 234 0.0406)
(-4.09e-11 234 0.041)
(8.23e-12 234 0.0409)
(5.13e-12 234 0.0369)
(-4.84e-10 234 0.0296)
(-4.81e-10 234 0.0118)
(-5.81e-13 234 -0.0208)
(4.06e-13 234 -0.0852)
(7.36e-14 234 -0.202)
(-5.28e-14 234 -0.392)
(1.41e-12 234 -0.687)
(1.08e-12 234 -1.16)
(3.25e-12 234 -1.88)
(-9.84e-13 234 -3.06)
(-2.02e-11 234 -4.6)
(-1.63e-11 233 -6.85)
(-7.43e-13 233 -9.25)
(-1.3e-13 232 -12.7)
(2.65e-13 232 -16)
(1.9e-12 231 -20.7)
(-4.49e-11 230 -24.5)
(-4.86e-11 229 -29.4)
(-1.57e-11 229 -33.2)
(-1.98e-11 228 -38)
(-3.96e-12 227 -42.2)
(2.1e-13 226 -47.8)
(-2.41e-12 225 -52.3)
(6.4e-12 224 -58.1)
(1.24e-12 223 -62.7)
(-2.35e-11 223 -68.8)
(-9.19e-12 221 -73.5)
(-3.53e-11 221 -80)
(-1.67e-11 219 -84)
(4.66e-10 219 -90.6)
(6.49e-10 218 -94)
(-2.79e-11 217 -101)
(-5.86e-11 216 -105)
(-1.32e-11 215 -112)
(8.3e-12 214 -115)
(-1.64e-10 213 -121)
(9.98e-11 212 -124)
(-2.61e-10 211 -129)
(-1.86e-10 211 -132)
(2.37e-10 210 -137)
(6.21e-10 210 -140)
(4.17e-10 208 -146)
(-4.78e-10 207 -150)
(1.54e-11 205 -157)
(-4.19e-10 205 -161)
(-1.45e-10 203 -168)
(8.54e-11 203 -171)
(2.09e-10 201 -178)
(-1.24e-10 201 -181)
(6.57e-11 199 -186)
(5.06e-10 199 -189)
(8.36e-10 197 -193)
(6.31e-10 197 -195)
(2.45e-10 195 -199)
(1.03e-10 194 -191)
(7.45e-12 191 -265)
(1.46e-10 185 268)
(2.1e-10 188 192)
(2.49e-10 189 200)
(3.07e-10 191 196)
(2.23e-10 192 194)
(5.93e-11 193 190)
(-1.28e-10 194 187)
(-1.49e-10 195 181)
(1.03e-10 196 178)
(7.2e-10 197 172)
(4.4e-10 198 169)
(-1.12e-10 200 162)
(-2.28e-10 200 158)
(-8.21e-11 202 151)
(-7.16e-10 202 147)
(-2.08e-10 204 141)
(7.98e-11 204 137)
(1.07e-10 206 131)
(7.86e-11 206 128)
(-1.61e-10 207 121)
(1.3e-10 208 117)
(-6.46e-11 209 111)
(1.03e-10 210 108)
(-1.26e-10 211 102)
(8.36e-11 212 98.3)
(-3.76e-11 213 91.2)
(1.49e-11 214 87.7)
(-2.4e-12 214 81.2)
(1.52e-11 216 77.6)
(6.26e-11 216 72)
(2.2e-10 217 68)
(4.5e-10 218 62.9)
(1.73e-10 219 59)
(-1.49e-10 219 53.9)
(-1.11e-10 220 49.8)
(-5.16e-10 221 44.7)
(-4.24e-10 222 40.9)
(1.12e-10 223 36.4)
(4.95e-10 223 32.7)
(4.15e-10 224 27.8)
(-4.75e-11 225 23.9)
(5.76e-12 225 19)
(-1.04e-14 226 15.6)
(-4.72e-13 227 11.6)
(7.69e-12 227 8.69)
(-1.7e-10 228 5.92)
(-1.85e-10 228 4.05)
(-1.32e-11 228 2.59)
(-2.06e-12 229 1.63)
(5.5e-12 229 0.938)
(-1.81e-10 229 0.489)
(-1.83e-10 229 0.221)
(4.38e-10 229 0.0861)
(9.02e-10 229 0.0307)
(4.76e-10 229 0.006)
(1.52e-11 229 -0.00325)
(6.62e-12 229 -0.0109)
(4.08e-12 229 -0.0178)
(-5.45e-11 229 -0.024)
(-6.83e-11 229 -0.0244)
(-4.97e-12 229 -0.0253)
(-2.28e-14 229 -0.0273)
(-6.71e-14 229 -0.0333)
(-4.72e-13 229 -0.0362)
(1.12e-11 229 -0.0376)
(5.14e-10 229 -0.0339)
(5.06e-10 229 -0.0284)
(-1.02e-11 229 -0.0232)
(3.17e-12 229 -0.0263)
(5.2e-10 229 -0.0301)
(5.08e-10 229 -0.0315)
(-4.91e-12 229 -0.0347)
(-3.81e-12 229 -0.0381)
(5.32e-12 229 -0.0417)
(-3.31e-12 229 -0.0444)
(5.19e-12 229 -0.0472)
(-1.64e-11 229 -0.0512)
(3.8e-10 229 -0.0512)
(4.23e-10 229 -0.0459)
(-4.13e-10 229 -0.0419)
(-6.39e-10 229 -0.0377)
(-2.05e-10 229 -0.0379)
(-1.08e-11 229 -0.0375)
(-2.76e-13 229 -0.0382)
(5.6e-15 229 -0.0358)
(1.09e-13 229 -0.0345)
(-1.95e-14 229 -0.0344)
(9.5e-14 229 -0.0379)
(8.09e-15 229 -0.039)
(1.3e-13 229 -0.0368)
(4.29e-14 229 -0.0329)
(9.69e-14 229 -0.0244)
(1.67e-13 229 -0.0118)
(-4.87e-13 229 -0.00168)
(7.98e-12 229 0.00774)
(7.76e-12 229 0.0159)
(-2.75e-13 229 0.0221)
(1.45e-13 229 0.0245)
(-5.77e-12 229 0.0185)
(-5e-12 229 0.0137)
(-2.04e-13 229 0.00952)
(-1.51e-13 229 0.0105)
(-3.44e-15 229 0.0103)
(5.53e-13 229 0.0126)
(4.84e-10 229 0.00968)
(4.83e-10 229 0.00812)
(1.72e-11 229 0.0138)
(1.6e-11 229 0.0211)
(-3.7e-13 229 0.0276)
(1.22e-13 229 0.0252)
(5.72e-14 229 0.0202)
(2.58e-13 229 0.0152)
(5.3e-13 229 0.0122)
(-1.12e-11 229 0.012)
(-1.01e-11 229 0.0143)
(-1.06e-12 229 0.0175)
(5.07e-10 229 0.0203)
(5.22e-10 229 0.0175)
(1.67e-11 229 0.0167)