/*--------------------------------*- C++ -*----------------------------------*\
| =========                 |                                                 |
| \\      /  F ield         | OpenFOAM: The Open Source CFD Toolbox           |
|  \\    /   O peration     | Version:  2212                                  |
|   \\  /    A nd           | Website:  www.openfoam.com                      |
|    \\/     M anipulation  |                                                 |
\*---------------------------------------------------------------------------*/
FoamFile
{
    version     2.0;
    format      ascii;
    arch        "LSB;label=32;scalar=64";
    class       volScalarField;
    location    "0.0105";
    object      nut;
}
// * * * * * * * * * * * * * * * * * * * * * * * * * * * * * * * * * * * * * //

dimensions      [0 2 -1 0 0 0 0];

internalField   nonuniform List<scalar> 
2308
(
0.108881
0.0863906
0.292498
0.0750094
0.179043
0.148648
0.14202
0.146199
0.184434
0.186865
0.180022
0.169579
0.163768
0.158457
0.154075
0.150835
0.148755
0.149709
0.150339
0.152386
0.15571
0.160238
0.166009
0.172852
0.180105
0.187598
0.194879
0.202613
0.151605
0.147939
0.20992
0.216555
0.222473
0.227626
0.232034
0.23573
0.238783
0.241265
0.243253
0.244818
0.246029
0.246944
0.247615
0.248088
0.248401
0.248404
0.248068
0.247561
0.246845
0.245874
0.244593
0.242938
0.240841
0.238232
0.235023
0.231141
0.226537
0.221164
0.215015
0.208152
0.200656
0.192714
0.184777
0.177175
0.16982
0.163712
0.158325
0.153361
0.149317
0.146497
0.145059
0.248583
0.248604
0.147023
0.149556
0.153452
0.158586
0.164874
0.172023
0.17955
0.187558
0.195655
0.20328
0.210392
0.216919
0.222725
0.2278
0.232132
0.235771
0.238781
0.241231
0.243198
0.244754
0.245963
0.246882
0.247561
0.248044
0.248366
0.150153
0.24856
0.148193
0.144906
0.248605
0.24836
0.247963
0.247379
0.246569
0.245482
0.244061
0.242241
0.239954
0.237109
0.233642
0.229485
0.224572
0.218886
0.212444
0.205312
0.197639
0.189536
0.18058
0.171806
0.163818
0.156897
0.1511
0.146209
0.142397
0.139823
0.138681
0.133271
0.132385
0.144902
0.140443
0.139552
0.141022
0.143888
0.148213
0.15388
0.160653
0.168275
0.176361
0.184828
0.193271
0.20128
0.20871
0.215466
0.221475
0.226708
0.231189
0.234961
0.238083
0.240642
0.242707
0.244352
0.245638
0.246628
0.247371
0.247909
0.248279
0.248513
0.248634
0.248648
0.248659
0.248693
0.160323
0.248726
0.118745
0.0973967
0.146118
0.164001
0.174449
0.151535
0.139009
0.248663
0.248652
0.248652
0.248692
0.248748
0.24875
0.248691
0.248517
0.248201
0.247711
0.24701
0.246052
0.244785
0.243147
0.241067
0.23847
0.235273
0.231401
0.226769
0.221336
0.215083
0.208036
0.200277
0.1919
0.182984
0.173551
0.164275
0.155564
0.14801
0.141755
0.136695
0.132892
0.130453
0.129445
0.138923
0.196024
0.170367
0.130245
0.129824
0.129174
0.128281
0.127624
0.12778
0.129077
0.131135
0.134619
0.139685
0.146096
0.153594
0.161916
0.170734
0.179815
0.18882
0.197384
0.205311
0.212506
0.218907
0.224489
0.229281
0.233331
0.23671
0.239495
0.241763
0.24358
0.245024
0.246151
0.24701
0.247646
0.248099
0.248401
0.248574
0.248644
0.302145
0.137267
0.109193
0.0730078
0.105546
0.108024
0.140817
0.14742
0.24857
0.248463
0.248221
0.247815
0.247209
0.246357
0.245213
0.243718
0.241805
0.239397
0.236404
0.232748
0.228344
0.223112
0.217009
0.210022
0.202202
0.193604
0.184387
0.174664
0.164663
0.154781
0.145582
0.137482
0.13073
0.125375
0.12142
0.11896
0.11798
0.130055
0.182513
0.0858097
0.112967
0.112641
0.112681
0.112753
0.11299
0.11384
0.11567
0.118552
0.122766
0.128582
0.135748
0.144063
0.153189
0.162862
0.172736
0.182474
0.191755
0.200364
0.208176
0.21511
0.221205
0.226443
0.230908
0.234658
0.237775
0.240324
0.242398
0.244066
0.245381
0.246399
0.247172
0.247737
0.248127
0.248371
0.248493
0.248509
0.248624
0.248613
0.248583
0.248575
0.248617
0.248685
0.248713
0.248566
0.113303
0.279572
0.160501
0.122672
0.119739
0.141505
0.1185
0.132132
0.174806
0.139757
0.172603
0.170224
0.0952096
0.0952849
0.0958735
0.096706
0.0976966
0.0992104
0.101645
0.105234
0.110187
0.11665
0.12453
0.133546
0.143434
0.153892
0.16453
0.175017
0.185033
0.194343
0.20281
0.210386
0.217053
0.222836
0.227781
0.231967
0.235452
0.238341
0.240715
0.242631
0.244155
0.245354
0.246277
0.246959
0.247443
0.247755
0.247925
0.24797
0.247915
0.24844
0.248532
0.2485
0.248456
0.248442
0.248483
0.248558
0.2486
0.248472
0.24782
0.247906
0.24789
0.247745
0.247444
0.246953
0.246231
0.24523
0.243896
0.242164
0.239959
0.237194
0.233785
0.229634
0.224659
0.218787
0.211949
0.204167
0.195476
0.186003
0.175913
0.165395
0.154746
0.144335
0.134676
0.126106
0.118868
0.113151
0.108937
0.106282
0.105257
0.197433
0.120596
0.135594
0.140189
0.161688
0.123532
0.109141
0.099542
0.0863694
0.0956882
0.088316
0.0868213
0.0859763
0.0857379
0.0860887
0.086914
0.0884328
0.0909748
0.0947698
0.100019
0.106781
0.114967
0.124351
0.134661
0.145566
0.156697
0.167696
0.178237
0.188088
0.197112
0.205226
0.212402
0.218658
0.224044
0.228603
0.232436
0.235637
0.238255
0.240369
0.242064
0.243399
0.244417
0.245175
0.245704
0.246036
0.246209
0.246241
0.246157
0.245966
0.247765
0.248291
0.248371
0.248327
0.248275
0.248256
0.248294
0.24837
0.248418
0.248298
0.247643
0.245554
0.245778
0.245906
0.245922
0.245796
0.245498
0.244988
0.24422
0.243141
0.241687
0.239789
0.237362
0.234317
0.230561
0.225998
0.220527
0.214094
0.206628
0.19816
0.188719
0.178479
0.167628
0.156439
0.145253
0.134385
0.124429
0.115533
0.108069
0.102137
0.0977695
0.0949575
0.0936655
0.105515
0.195009
0.206093
0.101244
0.107218
0.0892862
0.0939557
0.10032
0.139127
0.143085
0.149192
0.124017
0.144995
0.110788
0.24569
0.247544
0.248082
0.248159
0.24811
0.248053
0.24803
0.248065
0.248137
0.248186
0.248066
0.247399
0.245259
0.239467
0.239915
0.240294
0.240584
0.24078
0.240821
0.240691
0.240353
0.239732
0.238785
0.237428
0.235592
0.233189
0.230106
0.226253
0.221531
0.215839
0.209114
0.201313
0.192424
0.182549
0.171833
0.160506
0.148878
0.13731
0.126181
0.115934
0.106931
0.0993141
0.0933226
0.088879
0.085993
0.0845839
0.0937763
0.165646
0.187497
0.0787493
0.103682
0.080832
0.0793535
0.0785464
0.0784276
0.0790009
0.0803994
0.0829231
0.086756
0.0921191
0.0990018
0.107314
0.11687
0.127366
0.138474
0.149832
0.16107
0.171895
0.182034
0.191372
0.199798
0.207273
0.213801
0.219419
0.224182
0.228184
0.231472
0.234135
0.236271
0.237952
0.239231
0.240187
0.240848
0.241266
0.241488
0.241535
0.241432
0.241207
0.240872
0.240453
0.208458
0.209457
0.315792
0.128109
0.128163
0.110211
0.225441
0.226203
0.226953
0.227647
0.228259
0.228794
0.22915
0.22934
0.229296
0.228905
0.228146
0.226875
0.225036
0.222497
0.219126
0.21483
0.209513
0.203082
0.195511
0.186807
0.177036
0.166362
0.155026
0.143345
0.131694
0.120485
0.110186
0.101022
0.0933229
0.0872323
0.0827408
0.0797735
0.0782275
0.0845033
0.153367
0.176498
0.239951
0.245334
0.247248
0.247807
0.247889
0.247839
0.247781
0.247756
0.247786
0.247854
0.247899
0.247772
0.247086
0.244888
0.238954
0.224642
0.155907
0.10468
0.096996
0.0925783
0.0893694
0.162705
0.138434
0.0912759
0.0753361
0.07807
0.0759378
0.0745276
0.073895
0.0741237
0.0753229
0.0777529
0.0815781
0.0869441
0.0938343
0.102145
0.111664
0.122104
0.133124
0.144369
0.155484
0.166171
0.176207
0.185424
0.193716
0.201031
0.207364
0.212739
0.217209
0.220847
0.223742
0.225953
0.227625
0.228816
0.229631
0.23011
0.230304
0.230315
0.230136
0.229786
0.229301
0.228735
0.228069
0.227351
0.226577
0.324655
0.0950057
0.133609
0.203388
0.206035
0.219827
0.159621
0.318913
0.257498
0.153686
0.11415
0.0779198
0.161559
0.126046
0.0832946
0.301338
0.194464
0.195721
0.196954
0.198255
0.199588
0.200969
0.202293
0.203628
0.204831
0.205903
0.206765
0.20733
0.207503
0.207178
0.206215
0.204441
0.201705
0.197901
0.192923
0.18671
0.179257
0.170631
0.160963
0.150483
0.13949
0.128354
0.117492
0.107358
0.0983031
0.0905949
0.0844487
0.0799171
0.0769524
0.0754078
0.0750793
0.143487
0.105838
0.114973
0.225758
0.239392
0.244924
0.246905
0.247491
0.247583
0.247537
0.24748
0.247453
0.247479
0.24754
0.247578
0.24744
0.246732
0.244476
0.238404
0.223829
0.193319
0.152486
0.100967
0.0973371
0.0952173
0.0932705
0.0912763
0.102021
0.211783
0.0812314
0.07756
0.0746252
0.0725222
0.0714065
0.0713533
0.0724859
0.0749652
0.0788946
0.084334
0.0912404
0.0994655
0.108775
0.118864
0.129396
0.140022
0.150418
0.160301
0.16945
0.177706
0.184961
0.191162
0.196296
0.200389
0.203501
0.205722
0.207164
0.207949
0.208234
0.208134
0.207726
0.207095
0.206362
0.20546
0.204434
0.203341
0.202247
0.201094
0.199905
0.198753
0.197591
0.196441
0.14239
0.085439
0.127242
0.144868
0.166613
0.191533
0.0976225
0.194468
0.222482
0.224696
0.229757
0.106024
0.195359
0.147078
0.0736473
0.133519
0.316398
0.325901
0.0731373
0.0735932
0.0753002
0.078447
0.0831327
0.0893163
0.0968245
0.105447
0.114759
0.124365
0.133833
0.142763
0.150831
0.157795
0.1635
0.167854
0.170869
0.172617
0.173228
0.172873
0.171769
0.170134
0.168166
0.16598
0.163652
0.161287
0.158934
0.156629
0.154384
0.152318
0.150253
0.148425
0.146675
0.145127
0.143616
0.142248
0.33122
0.195238
0.22487
0.238766
0.244442
0.246494
0.247112
0.24722
0.24718
0.247126
0.247099
0.24712
0.247174
0.247203
0.247053
0.246318
0.244003
0.2378
0.223002
0.192186
0.141003
0.129688
0.0787351
0.127578
0.311868
0.309056
0.304542
0.304229
0.306264
0.317469
0.326209
0.332139
0.076169
0.332332
0.104172
0.122789
0.109806
0.129206
0.149578
0.175218
0.101015
0.127742
0.303475
0.103204
0.102606
0.10201
0.100743
0.0989584
0.0903719
0.0978951
0.084495
0.0801987
0.0764075
0.0733025
0.0710883
0.069954
0.0700144
0.0714249
0.0742434
0.0784397
0.0840012
0.0908281
0.0987066
0.107355
0.116446
0.125641
0.134608
0.143053
0.150733
0.157461
0.163109
0.167601
0.170911
0.173065
0.174139
0.174261
0.17357
0.172268
0.170568
0.168676
0.166584
0.164504
0.162505
0.160497
0.158555
0.156711
0.155031
0.153292
0.151631
0.150127
0.148649
0.147281
0.145958
0.144633
0.109615
0.102738
0.0989169
0.179274
0.102884
0.08765
0.284368
0.101711
0.317799
0.236524
0.221853
0.216523
0.106959
0.133215
0.11613
0.332619
0.119109
0.213905
0.324671
0.238418
0.111174
0.111389
0.320279
0.313742
0.305131
0.0725314
0.0731335
0.0749679
0.0781058
0.0824903
0.0879343
0.0941276
0.100716
0.107267
0.113388
0.118748
0.123109
0.126306
0.128258
0.128967
0.128514
0.127049
0.124786
0.12194
0.118828
0.115666
0.112511
0.109457
0.106544
0.103801
0.101228
0.0988291
0.0966116
0.0945561
0.092659
0.0909513
0.0893858
0.0878752
0.0866212
0.085439
0.0843226
0.0833353
0.106673
0.110004
0.112284
0.112597
0.110973
0.108579
0.131481
0.120054
0.0763509
0.114462
0.0995705
0.33565
0.335645
0.123202
0.157007
0.152475
0.20484
0.152467
0.150485
0.115717
0.305066
0.321909
0.31827
0.107137
0.143344
0.194074
0.223977
0.238107
0.243927
0.246053
0.246708
0.246835
0.246804
0.246753
0.246726
0.246743
0.24679
0.24681
0.246645
0.245883
0.243509
0.237191
0.222186
0.19112
0.139804
0.0823699
0.302817
0.295593
0.290179
0.289837
0.293404
0.295056
0.294751
0.080758
0.114378
0.0965246
0.102893
0.0825386
0.323766
0.331098
0.243416
0.198016
0.116747
0.203686
0.312128
0.0905753
0.145433
0.295415
0.238623
0.0909917
0.086731
0.0822533
0.0781301
0.0745839
0.0718095
0.070023
0.0693947
0.0700512
0.0720408
0.0752388
0.0794999
0.0847294
0.0907123
0.0971471
0.103705
0.110056
0.115909
0.121023
0.125209
0.128348
0.130372
0.131277
0.131112
0.129948
0.127958
0.125306
0.122204
0.118918
0.115675
0.112548
0.109558
0.106784
0.104205
0.101836
0.0996584
0.0976652
0.0958596
0.094212
0.092744
0.0913863
0.0901229
0.0889517
0.0879237
0.0868841
0.0858521
0.0848318
0.158307
0.11468
0.178471
0.104861
0.336882
0.13854
0.243259
0.100647
0.164606
0.291023
0.106183
0.0830262
0.10305
0.110289
0.117499
0.123432
0.12674
0.126723
0.123066
0.117156
0.111033
0.110311
0.0865923
0.11203
0.0794639
0.0943833
0.0740341
0.0724712
0.0718591
0.0721122
0.073194
0.0749401
0.0770904
0.0793473
0.0814862
0.0831912
0.0843781
0.0848831
0.0847091
0.0838532
0.0824081
0.0804487
0.0781086
0.075497
0.0728211
0.0702602
0.0679029
0.0657265
0.063756
0.0619691
0.0603484
0.0588791
0.0575472
0.0563347
0.0552311
0.0542232
0.0532933
0.0524364
0.0516466
0.0509187
0.0502539
0.0496395
0.049056
0.0485153
0.047986
0.0474845
0.289885
0.286012
0.280821
0.275277
0.203421
0.234399
0.119868
0.122594
0.124294
0.110608
0.11847
0.113595
0.148847
0.0967033
0.0774181
0.078335
0.103953
0.0948835
0.103367
0.09877
0.335736
0.336852
0.13457
0.243173
0.14865
0.261085
0.126845
0.231127
0.204819
0.13916
0.185431
0.303961
0.0940756
0.103464
0.0883874
0.111206
0.174748
0.192504
0.279523
0.0970969
0.102401
0.295418
0.298587
0.290867
0.28057
0.274657
0.27457
0.280291
0.285112
0.270932
0.104425
0.0829447
0.232347
0.254463
0.320583
0.11568
0.0897083
0.0867649
0.0827929
0.0789745
0.0755915
0.0728364
0.0708839
0.0698941
0.0699534
0.0710399
0.0729625
0.0754076
0.0781532
0.0809908
0.0836583
0.0859172
0.0875984
0.0886066
0.088911
0.0885461
0.0875303
0.0859503
0.0838821
0.0814297
0.0787112
0.075813
0.0729537
0.0702664
0.0678325
0.0656194
0.0636211
0.0618439
0.0602532
0.0588305
0.0575538
0.0564032
0.0553613
0.0544122
0.053543
0.0527462
0.052046
0.0514234
0.0508643
0.0503058
0.0497559
0.0492032
0.0486566
0.0481199
0.0475643
0.0837428
0.141953
0.192798
0.22299
0.237361
0.243327
0.245536
0.246235
0.246384
0.246364
0.246318
0.246292
0.246306
0.246347
0.246357
0.246176
0.245385
0.242955
0.23653
0.221347
0.190095
0.138711
0.0815099
0.0470053
0.0958887
0.328086
0.106933
0.124483
0.132092
0.08887
0.270955
0.160735
0.159538
0.104898
0.09563
0.105619
0.116324
0.127637
0.138295
0.145703
0.147736
0.143725
0.13398
0.121071
0.104922
0.111443
0.109534
0.0769665
0.0973283
0.102046
0.33838
0.178544
0.144172
0.13549
0.133125
0.158466
0.163374
0.295579
0.0982844
0.272569
0.090618
0.133493
0.140478
0.142425
0.139113
0.132778
0.124621
0.11744
0.103665
0.261804
0.0856823
0.208064
0.208047
0.207917
0.207049
0.208264
0.210904
0.0968466
0.0852673
0.102648
0.257297
0.246599
0.286314
0.294962
0.287864
0.275688
0.26372
0.257774
0.258112
0.26506
0.272875
0.266543
0.213806
0.129376
0.316547
0.0845015
0.147757
0.154893
0.144162
0.170795
0.0845689
0.0813482
0.0785378
0.0759539
0.0736507
0.0716539
0.0700297
0.0688012
0.0678838
0.0671033
0.0662093
0.0650369
0.0636315
0.0620569
0.0603731
0.0586523
0.056977
0.0553865
0.0539066
0.0525469
0.0513028
0.0501878
0.0491967
0.0483436
0.0476629
0.0471491
0.0467711
0.0464925
0.0462843
0.0461267
0.0460041
0.045906
0.0458239
0.0457516
0.0456855
0.0456221
0.0455591
0.0454949
0.0454283
0.0453572
0.0452779
0.0451836
0.0450777
0.0449575
0.0448218
0.0446712
0.0445068
0.0443241
0.0441177
0.0438883
0.0469998
0.0826446
0.140537
0.191501
0.221975
0.236588
0.242717
0.245016
0.245762
0.245935
0.245927
0.245886
0.245861
0.245873
0.245908
0.245908
0.245712
0.244892
0.242407
0.235882
0.220545
0.189134
0.137706
0.0807497
0.046566
0.0440678
0.0443366
0.044569
0.0447655
0.0449188
0.0450483
0.0451569
0.0452519
0.0453382
0.0454096
0.0454744
0.0455353
0.0455944
0.0456536
0.0457138
0.0457764
0.0458433
0.0459167
0.0459991
0.0460948
0.0462107
0.0463558
0.0465449
0.0467927
0.0471224
0.0475674
0.0481558
0.0488873
0.0497233
0.0506401
0.0516405
0.0527297
0.0539176
0.0552397
0.0566755
0.0582784
0.0600404
0.0619321
0.063984
0.0661986
0.0685957
0.0713191
0.0742582
0.0770221
0.0802601
0.124594
0.090749
0.0892771
0.0915704
0.0962832
0.114488
0.0924023
0.262062
0.112701
0.0806435
0.0796416
0.0922412
0.0965082
0.0931539
0.0958212
0.33526
0.334016
0.16803
0.251383
0.153982
0.162374
0.254941
0.218205
0.164707
0.323045
0.307468
0.148435
0.0876723
0.316766
0.196168
0.209398
0.202929
0.25076
0.216542
0.337079
0.0950677
0.0924225
0.0790315
0.140214
0.161647
0.176637
0.178085
0.168511
0.15165
0.132986
0.116297
0.103544
0.0942528
0.086819
0.262683
0.0947061
0.121559
0.100322
0.108119
0.116529
0.129464
0.144066
0.158188
0.166534
0.162963
0.0960075
0.0902197
0.122704
0.1289
0.135739
0.143195
0.165239
0.209256
0.0912928
0.28656
0.0864623
0.309009
0.0845294
0.109177
0.112237
0.115761
0.119973
0.127771
0.134581
0.140122
0.0875869
0.081011
0.0836752
0.0817932
0.0790315
0.0764254
0.0734341
0.0691648
0.0651728
0.0607275
0.0564155
0.0532507
0.0509732
0.0494692
0.0486399
0.0483784
0.0485537
0.0490772
0.0498704
0.0508764
0.0520379
0.0533651
0.0547828
0.0562081
0.0575786
0.0588767
0.0600955
0.0612286
0.0622756
0.0632465
0.0641422
0.0649671
0.0657316
0.0664399
0.0670975
0.0677113
0.0682917
0.0688411
0.0693643
0.0698675
0.0703489
0.0708082
0.071241
0.0716351
0.0719964
0.0723008
0.0725781
0.0727711
0.0729122
0.072982
0.0729346
0.205178
0.2518
0.0436269
0.0464198
0.0815375
0.139081
0.190142
0.220896
0.235765
0.242059
0.244451
0.245247
0.245445
0.245449
0.245413
0.245391
0.245401
0.245429
0.24542
0.245208
0.244359
0.24182
0.235201
0.219733
0.188194
0.136779
0.0800251
0.0461159
0.043761
0.0727839
0.19967
0.250666
0.285538
0.282667
0.265727
0.250654
0.239402
0.234441
0.235365
0.241515
0.254279
0.260349
0.220458
0.147866
0.169439
0.176224
0.169242
0.17542
0.0806915
0.0783058
0.0764757
0.0745855
0.0723867
0.0697312
0.0664907
0.0630072
0.059681
0.056597
0.0539789
0.0518671
0.0502759
0.0492198
0.0486562
0.0485194
0.0487462
0.0492738
0.0500457
0.0510095
0.0521386
0.053426
0.054812
0.0562138
0.0575673
0.0588542
0.0600654
0.061195
0.0622402
0.0632043
0.0640959
0.0649173
0.0656792
0.0663819
0.0670325
0.0676387
0.0682073
0.0687437
0.0692527
0.0697364
0.0701938
0.0706172
0.0710012
0.0713457
0.0716314
0.0719286
0.0721744
0.0723934
0.0725659
0.0726949
0.072764
0.0727619
0.294124
0.214391
0.331426
0.329605
0.0882559
0.0908237
0.0831965
0.0816998
0.282593
0.27463
0.0704483
0.283647
0.174722
0.0765034
0.0848589
0.0917065
0.0991394
0.110164
0.127074
0.152588
0.185176
0.20709
0.162826
0.145883
0.17944
0.166714
0.165825
0.167232
0.0740659
0.2069
0.229027
0.222798
0.195034
0.16039
0.12998
0.109987
0.096489
0.0874483
0.0802908
0.0811971
0.0892901
0.0897023
0.333339
0.259559
0.262618
0.251524
0.237318
0.0708026
0.0717005
0.073291
0.0743318
0.0743119
0.073181
0.0714966
0.0704322
0.0704415
0.0717163
0.0738413
0.076406
0.079322
0.082484
0.0858315
0.0892801
0.0926956
0.096047
0.0993517
0.102569
0.105568
0.108233
0.110618
0.112773
0.114741
0.116551
0.118224
0.119786
0.121248
0.12263
0.123944
0.125207
0.126421
0.127606
0.128764
0.129906
0.131041
0.132177
0.133313
0.134458
0.135611
0.136776
0.137948
0.139135
0.140324
0.141524
0.142725
0.143917
0.145051
0.146157
0.147186
0.148123
0.145557
0.139638
0.1372
0.133681
0.127268
0.12246
0.120767
0.11654
0.0991766
0.083773
0.322552
0.27898
0.312113
0.325879
0.0855958
0.0861733
0.139606
0.137614
0.144243
0.152685
0.185643
0.112327
0.196345
0.256743
0.27635
0.262163
0.239524
0.225061
0.215143
0.21153
0.21277
0.217786
0.235017
0.249038
0.223499
0.173956
0.136312
0.1619
0.0726469
0.0433407
0.0458738
0.0805686
0.137872
0.189102
0.220201
0.235347
0.241814
0.2443
0.245144
0.245367
0.245382
0.245352
0.245332
0.24534
0.245364
0.245346
0.245118
0.24424
0.241647
0.234931
0.219312
0.187601
0.136093
0.0794603
0.0456946
0.0434307
0.0724983
0.148905
0.0698578
0.0702682
0.0705791
0.0708783
0.0707233
0.0698631
0.0688758
0.0685482
0.0692235
0.0707351
0.0729635
0.075721
0.0788384
0.0821733
0.0856308
0.0891145
0.0925788
0.0959615
0.0992718
0.102503
0.105545
0.108251
0.11065
0.11281
0.11478
0.116592
0.118266
0.119824
0.12128
0.122653
0.123957
0.125208
0.126416
0.127596
0.128751
0.129894
0.131029
0.132167
0.133306
0.134458
0.135614
0.136786
0.137962
0.139162
0.140368
0.141605
0.142826
0.144046
0.145238
0.146418
0.147565
0.148655
0.149575
0.275621
0.293843
0.327217
0.087293
0.0834266
0.31157
0.306235
0.110199
0.108662
0.317266
0.0429176
0.149101
0.0718528
0.0786875
0.045195
0.186082
0.134904
0.233286
0.217668
0.242658
0.240034
0.243802
0.243558
0.243811
0.24383
0.243824
0.243805
0.243818
0.243847
0.242687
0.243572
0.233556
0.240131
0.187102
0.218265
0.0793732
0.136098
0.0428896
0.0452496
0.312731
0.318207
0.149897
0.0721732
0.302766
0.307536
0.293999
0.29822
0.286225
0.289982
0.279258
0.282639
0.273105
0.276077
0.267712
0.270328
0.262896
0.26524
0.258565
0.260671
0.254689
0.25657
0.251196
0.252901
0.24798
0.249559
0.244885
0.246424
0.241707
0.24332
0.238194
0.240004
0.234073
0.236226
0.228939
0.231668
0.221868
0.225736
0.21202
0.21734
0.198676
0.205838
0.181022
0.190454
0.158222
0.170269
0.131635
0.145336
0.104132
0.117711
0.0780798
0.0908351
0.0700455
0.0717496
0.0728785
0.0704151
0.0850807
0.0786427
0.0922257
0.0895831
0.101747
0.0948823
0.177808
0.125267
0.321038
0.242309
0.427109
0.407716
0.364438
0.377389
0.360406
0.370966
0.288179
0.325344
0.238083
0.255882
0.193754
0.241114
0.193263
0.242197
0.256305
0.212587
0.220305
0.211287
0.211401
0.214941
0.212209
0.233889
0.221321
0.270983
0.253016
0.160965
0.266251
0.144959
0.185199
0.193478
0.108269
0.224651
0.197051
0.282687
0.265886
0.359781
0.309826
0.377834
0.394678
0.377866
0.365865
0.354267
0.382469
0.229799
0.298117
0.118879
0.165168
0.0982563
0.103593
0.093564
0.0958918
0.0803291
0.0891957
0.0689057
0.0720126
0.0707806
0.0680387
0.0930372
0.0791924
0.11748
0.104848
0.146761
0.13209
0.172323
0.160438
0.191333
0.182433
0.206199
0.199229
0.217372
0.212238
0.225478
0.221762
0.231315
0.228605
0.235885
0.233726
0.239657
0.237845
0.243005
0.241368
0.246171
0.244603
0.249355
0.24775
0.252714
0.251006
0.256385
0.25451
0.260455
0.258368
0.264953
0.262651
0.269919
0.267377
0.275419
0.272597
0.281613
0.27842
0.288763
0.285051
0.296909
0.292733
0.301438
0.192063
0.105805
0.316832
0.109312
0.324659
0.296987
0.325208
0.328798
0.0993477
0.143589
0.146638
0.112488
0.11003
0.0672883
0.0683044
0.118192
0.129169
0.318338
0.305325
0.301592
0.138429
0.153493
0.146101
0.194897
0.177721
0.187928
0.197293
0.170327
0.184691
0.192792
0.157883
0.175217
0.182055
0.142791
0.161106
0.116822
0.0857097
0.108268
0.0846109
0.135717
0.0899798
0.114217
0.115259
0.0902459
0.095067
0.0870321
0.153942
0.146293
0.112968
0.0821541
0.156678
0.0821491
0.137929
0.0881296
0.308784
0.0812029
0.114811
0.120465
0.162292
0.143946
0.156506
0.233727
0.130094
0.139098
0.14214
0.158531
0.108866
0.322573
0.172567
0.0808202
0.0687741
0.291115
0.242908
0.326574
0.108989
0.160539
0.0772696
0.0755517
0.0743091
0.116708
0.149247
0.32281
0.0946365
0.166504
0.143738
0.17263
0.191133
0.105069
)
;

boundaryField
{
    wall
    {
        type            nutkWallFunction;
        blending        stepwise;
        value           uniform 0;
    }
    outlet
    {
        type            calculated;
        value           nonuniform List<scalar> 
33
(
0.0429176
0.149101
0.0718528
0.0786875
0.045195
0.186082
0.134904
0.233286
0.217668
0.242658
0.240034
0.243802
0.243558
0.243811
0.24383
0.243824
0.243805
0.243818
0.243847
0.242687
0.243572
0.233556
0.240131
0.187102
0.218265
0.0793732
0.136098
0.0428896
0.0452496
0.149897
0.0721732
0.324659
0.325208
)
;
    }
    inlet
    {
        type            calculated;
        value           uniform 0.338346;
    }
    frontAndBackPlanes
    {
        type            empty;
    }
}


// ************************************************************************* //
