/*--------------------------------*- C++ -*----------------------------------*\
| =========                 |                                                 |
| \\      /  F ield         | OpenFOAM: The Open Source CFD Toolbox           |
|  \\    /   O peration     | Version:  2212                                  |
|   \\  /    A nd           | Website:  www.openfoam.com                      |
|    \\/     M anipulation  |                                                 |
\*---------------------------------------------------------------------------*/
FoamFile
{
    version     2.0;
    format      ascii;
    arch        "LSB;label=32;scalar=64";
    class       volVectorField;
    location    "2.7e-05";
    object      U;
}
// * * * * * * * * * * * * * * * * * * * * * * * * * * * * * * * * * * * * * //

dimensions      [0 1 -1 0 0 0 0];

internalField   nonuniform List<vector> 
12075
(
(10 0.00263 8.52e-33)
(10 8.77e-05 0)
(10 8.42e-05 0)
(10 8.21e-05 0)
(10 8.01e-05 -3.77e-19)
(10 7.81e-05 4.83e-19)
(10 7.63e-05 -4.65e-19)
(10 7.45e-05 5.61e-19)
(10 7.28e-05 0)
(10 7.12e-05 0)
(10 6.97e-05 0)
(10 6.82e-05 0)
(10 6.68e-05 0)
(10 6.54e-05 0)
(10 6.41e-05 0)
(10 6.28e-05 0)
(10 6.16e-05 0)
(10 6.05e-05 0)
(10 5.93e-05 0)
(10 5.82e-05 0)
(10 5.72e-05 -1.22e-18)
(10 5.62e-05 1.19e-18)
(10 5.52e-05 0)
(10 5.43e-05 0)
(10 4.43e-05 0)
(10 9.3e-05 -3.1e-19)
(10 9.01e-05 0)
(10 8.76e-05 0)
(10 8.52e-05 -1.51e-19)
(10 8.3e-05 -3e-19)
(10 8.08e-05 2.97e-19)
(10 7.88e-05 -5.68e-29)
(10 7.69e-05 1.46e-19)
(10 7.51e-05 -2.9e-19)
(10 7.33e-05 2.88e-19)
(10 7.16e-05 5.71e-19)
(10 7e-05 -5.66e-19)
(10 6.85e-05 -5.62e-19)
(10 6.71e-05 5.57e-19)
(10 6.57e-05 0)
(10 6.43e-05 0)
(10 6.3e-05 0)
(10 6.18e-05 -1.08e-18)
(10 6.06e-05 1.34e-18)
(10 5.95e-05 -2.66e-19)
(10 5.84e-05 -1.06e-18)
(10 5.73e-05 7.87e-19)
(10 5.63e-05 0)
(10 5.53e-05 -1.29e-18)
(10 5.43e-05 9.78e-28)
(10 1.16e-07 3.55e-19)
(10 9.35e-09 3.96e-20)
(10 8.93e-09 -7.97e-20)
(10 8.73e-09 -1.6e-19)
(10 8.55e-09 4.83e-19)
(10 8.37e-09 -3.24e-19)
(10 8.2e-09 -4.88e-19)
(10 8.04e-09 1.64e-19)
(10 7.88e-09 3.29e-19)
(10 7.73e-09 -3.31e-19)
(10 7.59e-09 -1.66e-19)
(10 7.45e-09 -3.35e-19)
(10 7.32e-09 3.36e-19)
(10 7.19e-09 0)
(10 7.07e-09 0)
(10 6.96e-09 -6.84e-19)
(10 6.85e-09 6.88e-19)
(10 6.74e-09 -1.73e-19)
(10 6.64e-09 -1.74e-19)
(10 6.54e-09 3.5e-19)
(10 6.44e-09 7.04e-19)
(10 6.35e-09 -3.54e-19)
(10 6.26e-09 0)
(10 6.18e-09 3.58e-19)
(10 6.74e-09 0)
(10 4.06e-09 -1.19e-19)
(10 3.94e-09 -3.99e-20)
(10 3.84e-09 8.04e-20)
(10 3.75e-09 8.08e-20)
(10 3.66e-09 -5.32e-32)
(10 3.58e-09 -1.64e-19)
(10 3.5e-09 -1.65e-19)
(10 3.43e-09 0)
(10 3.36e-09 1.66e-19)
(10 3.3e-09 -1.67e-19)
(10 3.23e-09 1.87e-28)
(10 3.17e-09 1.7e-19)
(10 3.12e-09 1.71e-19)
(10 3.06e-09 -8.58e-19)
(10 3.01e-09 5.18e-19)
(10 2.96e-09 -1.74e-19)
(10 2.91e-09 -1.75e-19)
(10 2.87e-09 1.76e-19)
(10 2.82e-09 -3.54e-19)
(10 2.78e-09 5.35e-19)
(10 2.74e-09 -1.61e-18)
(10 2.7e-09 7.22e-19)
(10 2.67e-09 -1.82e-19)
(10 2.63e-09 -1.83e-19)
(10 2.59e-09 0)
(10 1.22e-12 1.2e-19)
(10 7.1e-13 4.02e-20)
(10 6.98e-13 -1.62e-19)
(10 6.9e-13 0)
(10 6.88e-13 -1.64e-19)
(10 6.71e-13 1.65e-19)
(10 6.63e-13 1.66e-19)
(10 6.55e-13 0)
(10 6.47e-13 -1.68e-19)
(10 6.43e-13 1.69e-19)
(10 6.35e-13 1.7e-19)
(10 6.28e-13 -1.71e-19)
(10 6.31e-13 1.72e-19)
(10 6.22e-13 1.73e-19)
(10 6.15e-13 -1.74e-19)
(10 6.15e-13 5.26e-19)
(10 6.07e-13 -1.76e-19)
(10 6.07e-13 7.1e-19)
(10 6.04e-13 -1.25e-18)
(10 5.94e-13 8.99e-19)
(10 6.06e-13 9.05e-19)
(10 5.96e-13 -7.28e-19)
(10 5.9e-13 1.83e-19)
(10 5.92e-13 1.85e-19)
(10 6.13e-13 -1.86e-19)
(10 1.51e-14 4.03e-20)
(10 1.63e-14 4.06e-20)
(10 1.77e-14 8.16e-20)
(10 1.71e-14 -1.64e-19)
(10 1.83e-14 3.3e-19)
(10 1.13e-14 -1.66e-19)
(10 1.78e-14 0)
(10 7.13e-15 0)
(10 1.72e-14 -1.69e-19)
(10 1.3e-14 0)
(10 1.84e-14 0)
(10 1.45e-14 0)
(10 1.82e-14 0)
(10 2.12e-14 -3.49e-19)
(10 1.96e-14 3.51e-19)
(10 1.19e-14 3.53e-19)
(10 1.49e-14 1.78e-19)
(10 1.38e-14 -7.16e-19)
(10 1.46e-14 -7.2e-19)
(10 1.99e-14 1.63e-18)
(10 7.86e-15 -1.28e-18)
(10 6.92e-15 9.18e-19)
(10 1.85e-14 0)
(10 8.36e-15 -1.86e-19)
(10 1.42e-14 3.75e-19)
(10 -5.79e-15 1.22e-19)
(10 5.2e-15 -4.09e-20)
(10 3.4e-15 0)
(10 3.89e-15 2.48e-19)
(10 -5.8e-15 8.32e-20)
(10 3.85e-15 -8.37e-20)
(10 6.04e-15 1.68e-19)
(10 -4.98e-15 -8.47e-20)
(10 8.48e-16 1.7e-19)
(10 1.88e-15 0)
(10 -4.46e-15 0)
(10 -3.26e-15 0)
(10 -1.95e-15 0)
(10 1.71e-15 0)
(10 -4.79e-15 4.42e-19)
(10 -1.14e-15 -3.56e-19)
(10 -4.03e-17 2.69e-19)
(10 5.74e-15 -7.22e-19)
(10 2.63e-16 6.36e-19)
(10 6.09e-16 5.48e-19)
(10 -2.62e-15 -9.2e-19)
(10 -2.24e-15 -1.85e-19)
(10 -1.73e-15 9.32e-20)
(10 1.74e-15 -5.63e-19)
(10 3.03e-15 4.73e-19)
(10 7e-16 -1.64e-19)
(10 -1.25e-15 8.24e-20)
(10 -3.11e-15 -8.29e-20)
(10 -2.5e-15 -1.67e-19)
(10 -2.67e-15 -8.39e-20)
(10 8.37e-15 -1.74e-34)
(10 -1.73e-15 0)
(10 5.51e-15 -5.28e-35)
(10 5.02e-15 -2.58e-19)
(10 1.69e-15 3.46e-19)
(10 -1.28e-15 0)
(10 -1.5e-15 -3.5e-19)
(10 2.01e-15 3.52e-19)
(10 -7.7e-15 3.55e-19)
(10 -6.95e-15 -4.46e-19)
(10 1.68e-16 3.59e-19)
(10 1.33e-15 -1.18e-18)
(10 -1.3e-16 1.46e-18)
(10 3.93e-16 -6.41e-19)
(10 -1e-14 7.38e-19)
(10 2.64e-15 -7.43e-19)
(10 8.56e-15 0)
(10 3.26e-15 -9.41e-20)
(10 6.39e-15 0)
(10 3.2e-15 9.54e-20)
(10 3.06e-15 1.65e-19)
(10 3.27e-15 -8.3e-20)
(10 4.77e-16 8.35e-20)
(10 7.18e-16 1.68e-19)
(10 4.13e-15 0)
(10 -1.9e-15 1.7e-19)
(10 1.38e-15 -1.71e-19)
(10 4.86e-15 -8.61e-20)
(10 2.91e-16 -8.66e-20)
(10 3.56e-15 0)
(10 6.83e-15 0)
(10 2.18e-15 -8.83e-20)
(10 2.11e-15 3.55e-19)
(10 1.87e-15 2.95e-34)
(10 4.15e-15 -4.45e-34)
(10 2.15e-15 -3.62e-19)
(10 4.5e-15 7.29e-19)
(10 -5.31e-15 -7.34e-19)
(10 -6.98e-15 0)
(10 7.55e-15 7.44e-19)
(10 7.52e-15 -7.49e-19)
(10 4.88e-15 0)
(10 2.83e-18 0)
(10 1.27e-15 6.69e-19)
(10 1.34e-15 -7.7e-19)
(10 -5.88e-15 -8.32e-20)
(10 -8.3e-17 -4.18e-20)
(10 5.24e-15 -4.21e-20)
(10 -1.04e-15 -8.47e-20)
(10 -2.79e-15 2.13e-19)
(10 -7.34e-16 -3e-19)
(10 2.17e-15 0)
(10 -2.02e-15 3.47e-19)
(10 -1.49e-15 -6.99e-19)
(10 -6.51e-15 3.52e-19)
(10 -1.39e-15 -4.42e-20)
(10 -2.53e-16 8.9e-20)
(10 -2.6e-15 0)
(10 9e-16 3.61e-19)
(10 -1.94e-15 -3.63e-19)
(10 -3.47e-16 3.65e-19)
(10 -6.56e-16 -1.1e-18)
(10 -6.37e-15 7.41e-19)
(10 9.95e-15 0)
(10 1.23e-14 7.51e-19)
(10 -2.46e-15 -1.51e-18)
(10 -7.9e-15 7.61e-19)
(10 2.18e-15 4.79e-20)
(10 -3.8e-15 4.82e-20)
(10 -6.43e-15 4.85e-20)
(10 6.01e-15 5.24e-20)
(10 1.28e-15 9.49e-20)
(10 -3.7e-15 -1.27e-19)
(10 -5.15e-15 -8.54e-20)
(10 -2.07e-16 1.18e-19)
(10 1.6e-15 4.32e-20)
(10 -1.36e-15 1.09e-20)
(10 -4.7e-15 0)
(10 -3.26e-15 0)
(10 -1.73e-15 0)
(10 -9.28e-15 3.34e-20)
(10 2.04e-15 3.48e-19)
(10 -1.27e-14 -3.73e-19)
(10 1.68e-15 3.52e-19)
(10 -2.26e-15 -1.14e-20)
(10 -3.5e-15 -4.56e-34)
(10 -6.65e-15 3.59e-19)
(10 6.87e-15 -1.69e-33)
(10 2.24e-15 1.18e-20)
(10 -1.26e-15 1.72e-33)
(10 -1.62e-14 -7.62e-19)
(10 -2.92e-15 -1.2e-20)
(10 2.98e-15 -4.83e-20)
(10 -3.56e-15 6.08e-20)
(10 -6.65e-15 -4.9e-20)
(10 3.97e-15 -1.06e-20)
(10 1.82e-15 7.44e-20)
(10 -6.29e-15 1.23e-34)
(10 -2.58e-15 8.6e-20)
(10 -4.32e-15 -1.62e-19)
(10 -2.36e-15 0)
(10 -9.07e-15 2.26e-35)
(10 3.89e-15 0)
(10 -8.43e-16 -3.55e-19)
(10 -7.63e-16 3.46e-19)
(10 4.82e-15 1.12e-20)
(10 -2.06e-15 1.13e-20)
(10 5.28e-15 -3.64e-19)
(10 -1.61e-15 3.67e-19)
(10 5.22e-15 1.19e-35)
(10 1.41e-15 -1.16e-20)
(10 4.4e-15 4.82e-36)
(10 5.39e-16 -7.54e-19)
(10 -6.03e-15 -1.19e-20)
(10 -1.22e-14 7.64e-19)
(10 1.04e-15 0)
(10 1.93e-15 1.21e-20)
(10 -2.64e-15 0)
(10 3.31e-15 -1.23e-20)
(10 4.83e-15 0)
(10 2.71e-15 -8.51e-20)
(10 -1.06e-15 -9.71e-35)
(10 2.33e-15 8.62e-20)
(10 4.37e-15 0)
(10 4.99e-16 -4.36e-20)
(10 1.67e-16 -4.39e-20)
(10 -1.51e-15 -1.1e-20)
(10 2.7e-15 0)
(10 -2.51e-15 0)
(10 -9.85e-16 5.63e-20)
(10 1.72e-15 0)
(10 8.68e-16 -3.65e-19)
(10 1.37e-14 7.47e-19)
(10 1.63e-15 1.16e-20)
(10 1.9e-15 1.16e-20)
(10 5.8e-16 1.17e-20)
(10 6.45e-15 -3.66e-19)
(10 -4.03e-16 4.75e-20)
(10 -8.95e-15 7.66e-19)
(10 -3.71e-15 0)
(10 3.92e-15 -1.55e-18)
(10 2.55e-15 7.82e-19)
(10 1.22e-15 0)
(10 2.45e-15 -4.96e-20)
(10 9.81e-15 0)
(10 4.73e-15 8.84e-35)
(10 8.45e-17 -3.56e-35)
(10 1.69e-15 -8.69e-20)
(10 6.06e-15 -2.62e-19)
(10 7.96e-16 3.96e-19)
(10 2.52e-15 -1.33e-19)
(10 1.27e-15 -8.91e-20)
(10 3.75e-15 0)
(10 9.88e-16 -3.61e-19)
(10 2.81e-15 3.18e-19)
(10 3.43e-15 0)
(10 -2.01e-15 9.21e-20)
(10 -2.25e-15 0)
(10 7.13e-15 3.73e-19)
(10 -3.97e-17 3.87e-34)
(10 2.51e-15 -3.12e-34)
(10 -3.12e-15 4.76e-19)
(10 8.18e-16 -4.79e-20)
(10 5.32e-15 -6.76e-19)
(10 1.51e-14 7.78e-19)
(10 8.84e-15 9.79e-20)
(10 8.96e-16 -8.88e-19)
(10 6.27e-15 9.93e-20)
(10 -6.14e-16 1.5e-19)
(10 1.55e-16 0)
(10 -3.74e-15 1.73e-19)
(10 -2.69e-15 7.17e-35)
(10 -3.75e-16 -1.75e-19)
(10 1.67e-15 -8.82e-20)
(10 2.55e-16 8.87e-20)
(10 -2.97e-16 8.93e-20)
(10 -1.92e-15 1.8e-19)
(10 2.79e-15 9.05e-20)
(10 3.55e-15 9.11e-20)
(10 -2.6e-16 -9.17e-20)
(10 2.58e-15 0)
(10 7.97e-16 -4.64e-19)
(10 -4e-15 3.74e-19)
(10 -2.91e-15 3.77e-19)
(10 2.25e-15 -3.79e-19)
(10 -3.16e-16 0)
(10 -1.64e-15 -9.61e-20)
(10 5.19e-15 0)
(10 1.29e-14 -9.74e-20)
(10 -4.61e-15 6.87e-19)
(10 -4.46e-15 -1.68e-18)
(10 5.05e-15 9.95e-19)
(10 -5.76e-15 -2.01e-19)
(10 2.25e-15 -1.01e-19)
(10 -1.32e-14 1.02e-19)
(10 -3.52e-15 -8.72e-20)
(10 3.96e-15 1.76e-19)
(10 4.2e-15 7.28e-35)
(10 3.89e-15 -1.78e-19)
(10 3.65e-15 3.58e-19)
(10 -3.84e-16 -1.8e-19)
(10 6.46e-16 -9.06e-20)
(10 -9.23e-15 -1.82e-19)
(10 5.1e-15 -5.51e-19)
(10 6.23e-15 5.55e-19)
(10 -6.53e-15 0)
(10 5.91e-15 3.75e-19)
(10 1.83e-16 -7.77e-35)
(10 1.13e-15 -3.13e-34)
(10 -3.54e-15 -3.83e-19)
(10 -2.79e-15 3.85e-19)
(10 -1.75e-15 -1.16e-18)
(10 -4.04e-15 1.56e-18)
(10 -6.01e-19 2.27e-33)
(10 -1.34e-14 9.9e-20)
(10 -3.37e-15 -6.98e-19)
(10 3.67e-15 -1e-19)
(10 -4.42e-15 1.01e-19)
(10 -2.76e-15 0)
(10 -7.65e-15 1.27e-34)
(10 -7.23e-15 1.76e-19)
(10 -1.47e-15 -8.85e-20)
(10 -4.91e-15 -8.91e-20)
(10 -4.9e-15 1.79e-19)
(10 -3e-15 -9.02e-20)
(10 -1.04e-15 9.08e-20)
(10 1.43e-15 1.83e-19)
(10 2.18e-15 -9.2e-20)
(10 -2.33e-15 9.26e-20)
(10 -1.86e-15 -9.33e-20)
(10 -3.7e-15 -1.88e-19)
(10 2.78e-15 -3.78e-19)
(10 6.34e-16 3.81e-19)
(10 -1.73e-15 0)
(10 1.19e-15 0)
(10 4.52e-15 3.89e-19)
(10 -9.28e-16 3.91e-19)
(10 -9.64e-15 -7.88e-19)
(10 -3.49e-15 -7.94e-19)
(10 5.13e-15 1.8e-18)
(10 1.07e-14 -9.06e-19)
(10 5.31e-17 2.03e-19)
(10 -3.3e-15 2.04e-19)
(10 -8.75e-15 2.06e-19)
(10 -1.32e-15 -3.11e-19)
(10 5.05e-16 -1.77e-19)
(10 -6.1e-15 0)
(10 -3.84e-15 8.98e-20)
(10 1.24e-16 2.71e-19)
(10 -3.5e-15 1.82e-19)
(10 4.78e-15 -3.66e-19)
(10 2.64e-16 1.84e-19)
(10 2.21e-15 3.71e-19)
(10 -1.12e-14 -5.61e-19)
(10 -1.22e-14 1.88e-19)
(10 4.22e-15 1.89e-19)
(10 9.99e-16 1.91e-19)
(10 -3.24e-15 1.92e-19)
(10 -3.95e-15 1.93e-19)
(10 3.37e-15 3.9e-19)
(10 -1.03e-14 1.96e-19)
(10 5.56e-16 -9.88e-19)
(10 4.01e-15 1.59e-18)
(10 -1.35e-14 -8.02e-19)
(10 3.68e-15 6.06e-19)
(10 2.03e-15 -8.13e-19)
(10 -1.21e-14 -2.05e-19)
(10 6.56e-15 -2.06e-19)
(10 -7.85e-16 -4.28e-35)
(10 8.18e-15 4.19e-19)
(10 3.91e-15 2.24e-19)
(10 8.33e-15 -4.5e-20)
(10 2.58e-15 1.81e-19)
(10 -8.21e-16 -1.82e-19)
(10 3.22e-15 -1.84e-19)
(10 -7.44e-16 0)
(10 8.38e-16 -1.86e-19)
(10 -2.98e-15 5.62e-19)
(10 2.21e-16 -1.89e-19)
(10 -2.12e-15 -1.9e-19)
(10 1.72e-15 0)
(10 -1.06e-14 -1.92e-19)
(10 5.66e-15 1.94e-19)
(10 1.49e-15 -5.86e-19)
(10 1.45e-15 0)
(10 -5.45e-15 -1.98e-19)
(10 -3.12e-15 -1.99e-19)
(10 9.67e-15 0)
(10 -4.32e-15 0)
(10 2.88e-16 0)
(10 -1e-14 -8.21e-19)
(10 -7.08e-15 8.27e-19)
(10 4.1e-15 0)
(10 1.99e-15 -2.1e-19)
(10 4.12e-15 -2.12e-19)
(10 7.33e-15 -1.8e-19)
(10 3.06e-15 1.82e-19)
(10 1.22e-15 -3.65e-19)
(10 -5.59e-15 3.68e-19)
(10 7.44e-16 -1.85e-19)
(10 -2.61e-15 -3.73e-19)
(10 1.31e-16 -3.87e-35)
(10 5.97e-15 5.67e-19)
(10 7.86e-15 -5.71e-19)
(10 2.32e-15 -1.92e-19)
(10 3.21e-15 0)
(10 -3.87e-15 0)
(10 4.97e-15 0)
(10 3.6e-15 0)
(10 -3.34e-15 3.97e-19)
(10 1.19e-14 -7.99e-19)
(10 4.59e-15 4.03e-19)
(10 7.27e-16 -2.03e-19)
(10 4.22e-15 0)
(10 -1.32e-15 8.23e-19)
(10 -1.97e-15 -8.29e-19)
(10 3.87e-15 -2.09e-19)
(10 -9.84e-17 0)
(10 1.71e-15 -2.12e-19)
(10 -1.95e-15 0)
(10 2.85e-15 2.27e-19)
(10 -2.34e-15 -2.29e-19)
(10 1.71e-15 1.84e-19)
(10 -1.41e-15 -3.71e-19)
(10 -1.55e-15 1.87e-19)
(10 -6.27e-16 1.88e-19)
(10 3.6e-16 -1.89e-19)
(10 5.89e-16 5.72e-19)
(10 -3.46e-15 -1.92e-19)
(10 -8.29e-16 1.93e-19)
(10 -1.89e-15 0)
(10 4.37e-15 0)
(10 2.72e-15 3.95e-19)
(10 -4.91e-15 -7.95e-19)
(10 -6.52e-15 8.01e-19)
(10 2.11e-15 -4.03e-19)
(10 9.99e-15 0)
(10 -4.46e-15 2.05e-19)
(10 1.52e-15 -8.25e-19)
(10 7.88e-16 1.66e-18)
(10 4.37e-15 -8.37e-19)
(10 5.26e-15 2.11e-19)
(10 -5.14e-15 0)
(10 6e-15 2.14e-19)
(10 4.77e-16 6.47e-19)
(10 -9.89e-15 -1.38e-19)
(10 2.14e-15 -4.62e-20)
(10 -4.19e-15 -9.3e-20)
(10 -2.68e-16 2.81e-19)
(10 -3.14e-16 1.16e-34)
(10 4.73e-15 1.9e-19)
(10 1.32e-15 -1.91e-19)
(10 -3.47e-15 9.62e-19)
(10 -3.91e-15 -3.87e-19)
(10 5.93e-15 3.9e-19)
(10 1.17e-15 0)
(10 1.27e-15 -7.34e-34)
(10 -3.93e-15 -3.99e-19)
(10 -9.43e-15 4.01e-19)
(10 4.98e-15 4.04e-19)
(10 -5.26e-15 1.68e-34)
(10 1.75e-15 0)
(10 -4.22e-15 4.13e-19)
(10 1.23e-15 -1.67e-18)
(10 6.47e-15 1.68e-18)
(10 3.37e-15 -4.23e-19)
(10 1.52e-15 0)
(10 -6.01e-15 -4.29e-19)
(10 -5.91e-15 0)
(10 -3.21e-15 6.54e-19)
(10 -6.42e-15 0)
(10 -6.37e-15 -2.79e-19)
(10 -2.36e-15 -4.69e-19)
(10 3.76e-15 0)
(10 3.66e-15 1.9e-19)
(10 -1.41e-15 -9.57e-19)
(10 -1.74e-15 -1.93e-19)
(10 -2.03e-15 -5.82e-19)
(10 1.58e-15 -3.91e-19)
(10 -6.52e-16 -3.94e-19)
(10 -1.7e-15 -3.97e-19)
(10 5.78e-15 3.99e-19)
(10 -8.49e-15 0)
(10 5.57e-15 -4.05e-19)
(10 -3.53e-15 -8.16e-19)
(10 -1.27e-15 -4.24e-34)
(10 -4.67e-15 2.56e-34)
(10 -2.78e-15 4.17e-19)
(10 8.73e-15 -1.39e-33)
(10 -3.51e-15 -8.73e-34)
(10 -4.59e-16 -8.54e-19)
(10 7.66e-16 0)
(10 1.34e-15 4.34e-19)
(10 -6.17e-15 0)
(10 7.92e-16 8.81e-19)
(10 5.14e-15 -3.73e-19)
(10 -2.25e-16 3.76e-19)
(10 3.9e-15 7.57e-19)
(10 3.71e-15 0)
(10 4.99e-16 0)
(10 -5.08e-16 3.86e-19)
(10 -4.02e-15 -1.95e-19)
(10 -1.54e-15 9.79e-19)
(10 3.37e-15 4.88e-34)
(10 -4.75e-16 0)
(10 9.45e-16 4e-19)
(10 9.51e-16 0)
(10 -4.1e-15 0)
(10 -7.87e-18 0)
(10 -7.12e-18 -2.55e-34)
(10 1.82e-15 1.25e-18)
(10 -1.1e-15 -4.18e-19)
(10 2.69e-15 8.43e-19)
(10 1.11e-15 0)
(10 -3.57e-15 4.28e-19)
(10 -2.67e-15 -2.16e-18)
(10 -3.88e-15 4.35e-19)
(10 5.07e-16 -4.38e-19)
(10 1.02e-14 -4.42e-19)
(10 3.81e-15 -8.9e-19)
(10 -2.84e-14 7.53e-19)
(10 -3.6e-14 0)
(10 -3.96e-14 5.9e-33)
(10 -4.27e-14 3.84e-19)
(10 -4.58e-14 5.81e-19)
(10 -4.01e-14 1.95e-19)
(10 -4.74e-14 -1.96e-19)
(10 -4.44e-14 1.98e-19)
(10 -4.18e-14 3.98e-19)
(10 -4.97e-14 -4.01e-19)
(10 -5.37e-14 4.04e-19)
(10 -6.03e-14 4.07e-19)
(10 -5.03e-14 -4.1e-19)
(10 -5.99e-14 4.13e-19)
(10 -6e-14 -4.16e-19)
(10 -6.26e-14 -4.19e-19)
(10 -7.04e-14 0)
(10 -7.43e-14 8.51e-19)
(10 -8e-14 -8.58e-19)
(10 -7.57e-14 -1.22e-32)
(10 -7.69e-14 -4.36e-19)
(10 -8.28e-14 -1.34e-32)
(10 -8.41e-14 4.43e-19)
(10 -9.24e-14 4.46e-19)
(10 -1.01e-13 9e-19)
(10 -2.18e-12 -7.6e-19)
(10 -1.48e-12 0)
(10 -1.54e-12 -4.82e-19)
(10 -1.59e-12 -6.79e-19)
(10 -1.65e-12 -9.77e-19)
(10 -1.72e-12 -5.9e-19)
(10 -1.78e-12 0)
(10 -1.84e-12 0)
(10 -1.92e-12 -4.02e-19)
(10 -1.99e-12 4.05e-19)
(10 -2.07e-12 -4.08e-19)
(10 -2.15e-12 4.11e-19)
(10 -2.23e-12 -4.14e-19)
(10 -2.31e-12 -8.34e-19)
(10 -2.42e-12 1.26e-18)
(10 -2.52e-12 4.23e-19)
(10 -2.62e-12 -4.27e-19)
(10 -2.72e-12 8.6e-19)
(10 -2.84e-12 -1.3e-18)
(10 -2.96e-12 -4.37e-19)
(10 -3.08e-12 8.8e-19)
(10 -3.21e-12 4.44e-19)
(10 -3.35e-12 0)
(10 -3.5e-12 0)
(10 -2.21e-12 4.55e-19)
(10 -4.56e-09 3.83e-19)
(10 -4.63e-09 3.86e-19)
(10 -4.74e-09 0)
(10 -4.85e-09 3.92e-19)
(10 -4.97e-09 3.94e-19)
(10 -5.09e-09 5.96e-19)
(10 -5.22e-09 -4e-19)
(10 -5.35e-09 2.01e-19)
(10 -5.48e-09 0)
(10 -5.62e-09 4.09e-19)
(10 -5.77e-09 -4.12e-19)
(10 -5.91e-09 6.02e-28)
(10 -6.07e-09 4.18e-19)
(10 -6.23e-09 0)
(10 -6.39e-09 3.74e-31)
(10 -6.56e-09 -8.55e-19)
(10 -6.74e-09 4.31e-19)
(10 -6.92e-09 -8.69e-19)
(10 -7.11e-09 8.76e-19)
(10 -7.31e-09 4.41e-19)
(10 -7.51e-09 4.45e-19)
(10 -7.72e-09 4.48e-19)
(10 -7.94e-09 -9.04e-19)
(10 -8.16e-09 4.56e-19)
(10 -8.33e-09 1.38e-18)
(10 -3.26e-07 -3.87e-19)
(10 -1.78e-07 -3.9e-19)
(10 -1.82e-07 -9.81e-20)
(10 -1.86e-07 4.94e-19)
(10 -1.91e-07 0)
(10 -1.96e-07 0)
(10 -2e-07 0)
(10 -2.05e-07 0)
(10 -2.1e-07 0)
(10 -2.16e-07 -4.13e-19)
(10 -2.21e-07 8.32e-19)
(10 -2.27e-07 -8.38e-19)
(10 -2.33e-07 4.22e-19)
(10 -2.39e-07 -4.25e-19)
(10 -2.45e-07 4.29e-19)
(10 -2.52e-07 -4.32e-19)
(10 -2.58e-07 0)
(10 -2.65e-07 8.78e-19)
(10 -2.73e-07 8.85e-19)
(10 -2.8e-07 -8.92e-19)
(10 -2.88e-07 -4.5e-19)
(10 -2.96e-07 -1.36e-18)
(10 -3.04e-07 4.57e-19)
(10 -3.12e-07 9.21e-19)
(10 -1.53e-07 -4.65e-19)
(10 -0.000468 -4.26e-23)
(10 -0.000475 -4.92e-19)
(10 -0.000481 9.9e-20)
(10 -0.000488 -3.99e-19)
(10 -0.000494 0)
(10 -0.000501 2.02e-19)
(10 -0.000508 -2.04e-19)
(10 -0.000515 0)
(10 -0.000522 0)
(10 -0.000529 0)
(10 -0.000537 -4.2e-19)
(10 -0.000544 0)
(10 -0.000552 4.26e-19)
(10 -0.00056 -4.3e-19)
(10 -0.000568 4.33e-19)
(10 -0.000577 0)
(10 -0.000585 0)
(10 -0.000594 0)
(10 -0.000603 5.61e-23)
(10 -0.000612 1.8e-18)
(10 -0.000622 -9.09e-19)
(10 -0.000631 9.16e-19)
(10 -0.000641 -9.24e-19)
(10 -0.000651 1.4e-18)
(10 -0.00066 -9.39e-19)
(10 -0.00351 4.43e-19)
(10 -0.000328 5.46e-19)
(10 -0.00033 -9.99e-20)
(10 -0.000335 1.01e-19)
(10 -0.000341 -2.03e-19)
(10 -0.000347 4.09e-19)
(10 -0.000352 4.12e-19)
(10 -0.000358 0)
(10 -0.000364 4.18e-19)
(10 -0.000371 4.21e-19)
(10 -0.000377 8.48e-19)
(10 -0.000384 -4.27e-19)
(10 -0.00039 8.61e-19)
(10 -0.000397 4.34e-19)
(10 -0.000404 8.75e-19)
(10 -0.000411 4.41e-19)
(10 -0.000419 4.33e-25)
(10 -0.000426 0)
(10 -0.000434 5.64e-23)
(10 -0.000442 5.73e-23)
(10 -0.00045 9.18e-19)
(10 -0.000459 -9.26e-19)
(10 -0.000467 6.12e-23)
(10 -0.000475 1.47e-24)
(10 0.00162 -1.9e-18)
(10 0.00351 0)
(10 0.000328 2.98e-19)
(10 0.00033 2e-19)
(10 0.000335 -1.01e-19)
(10 0.000341 2.03e-19)
(10 0.000347 -6.13e-19)
(10 0.000352 -4.12e-19)
(10 0.000358 4.15e-19)
(10 0.000364 -4.18e-19)
(10 0.000371 0)
(10 0.000377 -4.24e-19)
(10 0.000384 -8.55e-19)
(10 0.00039 -8.61e-19)
(10 0.000397 -8.68e-19)
(10 0.000404 -4.37e-19)
(10 0.000411 -8.82e-19)
(10 0.000419 -1.33e-18)
(10 0.000426 1.34e-18)
(10 0.000434 -4.52e-19)
(10 0.000442 -4.55e-19)
(10 0.00045 -4.59e-19)
(10 0.000459 1.39e-18)
(10 0.000467 -4.67e-19)
(10 0.000475 -1.47e-24)
(10 -0.00162 4.75e-19)
(10 0.000468 0)
(10 0.000475 -3.93e-19)
(10 0.000481 0)
(10 0.000488 0)
(10 0.000494 0)
(10 0.000501 4.05e-19)
(10 0.000508 0)
(10 0.000515 4.11e-19)
(10 0.000522 -4.14e-19)
(10 0.000529 -4.17e-19)
(10 0.000537 4.2e-19)
(10 0.000544 -4.23e-19)
(10 0.000552 5.1e-23)
(10 0.00056 4.3e-19)
(10 0.000568 5.25e-23)
(10 0.000577 8.73e-19)
(10 0.000585 -8.8e-19)
(10 0.000594 -8.87e-19)
(10 0.000603 4.47e-19)
(10 0.000612 -1.35e-18)
(10 0.000622 -5.78e-23)
(10 0.000631 -4.58e-19)
(10 0.000641 4.62e-19)
(10 0.000651 9.31e-19)
(10 0.00066 -4.7e-19)
(10 3.26e-07 0)
(10 1.78e-07 0)
(10 1.82e-07 3.92e-19)
(10 1.86e-07 -5.93e-19)
(10 1.91e-07 1.99e-19)
(10 1.96e-07 -3.38e-26)
(10 2e-07 2.02e-19)
(10 2.05e-07 6.1e-19)
(10 2.11e-07 -5.56e-28)
(10 2.16e-07 -8.26e-19)
(10 2.21e-07 4.16e-19)
(10 2.27e-07 4.19e-19)
(10 2.33e-07 8.44e-19)
(10 2.39e-07 -4.25e-19)
(10 2.45e-07 -4.29e-19)
(10 2.52e-07 -4.32e-19)
(10 2.58e-07 1.31e-18)
(10 2.65e-07 4.39e-19)
(10 2.73e-07 -8.85e-19)
(10 2.8e-07 1.78e-18)
(10 2.88e-07 4.5e-19)
(10 2.96e-07 -1.36e-18)
(10 3.04e-07 -5.21e-26)
(10 3.12e-07 -1.38e-18)
(10 1.53e-07 1.39e-18)
(10 4.56e-09 -4.79e-20)
(10 4.63e-09 -4.34e-19)
(10 4.74e-09 -2.92e-19)
(10 4.85e-09 3.92e-19)
(10 4.97e-09 0)
(10 5.09e-09 -3.97e-19)
(10 5.22e-09 -8e-19)
(10 5.35e-09 -4.03e-19)
(10 5.48e-09 -4.06e-19)
(10 5.62e-09 4.09e-19)
(10 5.77e-09 4.12e-19)
(10 5.91e-09 -8.3e-19)
(10 6.07e-09 6.16e-28)
(10 6.23e-09 -4.21e-19)
(10 6.39e-09 -6.46e-28)
(10 6.56e-09 6.63e-28)
(10 6.74e-09 -8.62e-19)
(10 6.92e-09 -4.34e-19)
(10 7.11e-09 4.38e-19)
(10 7.31e-09 -1.77e-18)
(10 7.51e-09 1.78e-18)
(10 7.72e-09 -4.48e-19)
(10 7.94e-09 -4.52e-19)
(10 8.16e-09 4.56e-19)
(10 8.33e-09 -4.6e-19)
(10 2.18e-12 3.8e-19)
(10 1.48e-12 4.78e-19)
(10 1.54e-12 -4.82e-19)
(10 1.59e-12 0)
(10 1.66e-12 0)
(10 1.72e-12 0)
(10 1.79e-12 1.98e-19)
(10 1.84e-12 -2e-19)
(10 1.91e-12 1.21e-18)
(10 2e-12 -4.05e-19)
(10 2.07e-12 4.08e-19)
(10 2.15e-12 3.29e-31)
(10 2.23e-12 8.28e-19)
(10 2.32e-12 8.34e-19)
(10 2.41e-12 -4.2e-19)
(10 2.51e-12 8.47e-19)
(10 2.62e-12 3.88e-31)
(10 2.72e-12 4.14e-31)
(10 2.84e-12 0)
(10 2.96e-12 4.48e-31)
(10 3.09e-12 0)
(10 3.21e-12 0)
(10 3.36e-12 -4.47e-19)
(10 3.49e-12 -9.02e-19)
(10 2.2e-12 9.09e-19)
(10 3.52e-14 -3.77e-19)
(10 3.33e-14 2.84e-19)
(10 3.79e-14 4.77e-19)
(10 3.63e-14 0)
(10 4.12e-14 0)
(10 4.78e-14 1.95e-19)
(10 4.74e-14 -1.96e-19)
(10 4.97e-14 0)
(10 4.82e-14 -3.98e-19)
(10 5.15e-14 -4.01e-19)
(10 5.51e-14 4.04e-19)
(10 6.1e-14 4.07e-19)
(10 5.64e-14 -8.2e-19)
(10 6.14e-14 -4.13e-19)
(10 7.05e-14 4.16e-19)
(10 6.83e-14 0)
(10 7.21e-14 -8.45e-19)
(10 6.72e-14 8.51e-19)
(10 6.65e-14 0)
(10 7.61e-14 8.65e-19)
(10 7.63e-14 0)
(10 8.45e-14 4.39e-19)
(10 9.56e-14 -4.43e-19)
(10 9.92e-14 8.92e-19)
(10 9.06e-14 4.5e-19)
(10 -2.83e-15 -3.73e-19)
(10 2.99e-15 -7.52e-19)
(10 -1.88e-15 -3.78e-19)
(10 -1.35e-15 -1.91e-19)
(10 -9.01e-15 -4.74e-34)
(10 -4.49e-15 -1.93e-19)
(10 -4.66e-15 1.95e-19)
(10 4.7e-15 -1.96e-19)
(10 3.94e-15 0)
(10 -3.48e-15 0)
(10 -6.65e-15 4e-19)
(10 -1.89e-16 0)
(10 1.64e-15 1.22e-18)
(10 -1.84e-15 -4.09e-19)
(10 5.63e-15 4.12e-19)
(10 3.16e-15 0)
(10 6.52e-16 4.18e-19)
(10 4.61e-16 4.22e-19)
(10 -4.07e-15 4.25e-19)
(10 -2.94e-15 8.82e-35)
(10 3.69e-15 -8.63e-19)
(10 5.43e-15 -6.27e-34)
(10 -6.44e-15 -4.38e-19)
(10 9.52e-16 0)
(10 -2.73e-15 -4.45e-19)
(10 2.5e-15 4.16e-19)
(10 2.3e-15 3.26e-19)
(10 5.57e-15 4.69e-19)
(10 2.02e-15 -4.72e-19)
(10 2.39e-15 5.7e-19)
(10 -5.5e-15 -1.91e-19)
(10 1.69e-15 0)
(10 6.82e-15 0)
(10 4.18e-15 -3.91e-19)
(10 -6.03e-15 0)
(10 4.89e-15 -3.97e-19)
(10 -6.63e-15 0)
(10 -4.32e-16 -4.02e-19)
(10 -3.32e-15 0)
(10 -1.17e-14 -4.08e-19)
(10 4.33e-16 0)
(10 -1.17e-14 -4.14e-19)
(10 4.15e-15 0)
(10 8.14e-15 -1.26e-18)
(10 -2.48e-16 1.69e-18)
(10 -3.95e-15 0)
(10 1.12e-15 -1.29e-18)
(10 -8.85e-15 1.3e-18)
(10 2.59e-15 0)
(10 -5.76e-16 0)
(10 -1.26e-15 4.59e-20)
(10 1.97e-15 -2.31e-19)
(10 -2.25e-15 1.86e-19)
(10 6.04e-15 5.4e-34)
(10 3.09e-15 3.77e-19)
(10 2.72e-16 -3.79e-19)
(10 -5.44e-16 1.91e-19)
(10 -7.76e-15 -3.85e-19)
(10 4.53e-16 7.75e-19)
(10 -4.77e-15 0)
(10 -2.71e-15 0)
(10 -7.19e-15 0)
(10 -2.56e-15 3.99e-19)
(10 -1.95e-15 -4.01e-19)
(10 -4.27e-15 0)
(10 -1.79e-15 0)
(10 -4.33e-15 0)
(10 -8.05e-15 0)
(10 -5.09e-15 0)
(10 -5.63e-15 -1.26e-18)
(10 -5.47e-15 8.46e-19)
(10 -8.14e-15 0)
(10 1.17e-15 0)
(10 -1.1e-14 0)
(10 -4.87e-15 0)
(10 -7.04e-15 -4.55e-20)
(10 1.08e-15 5.04e-19)
(10 -9.93e-15 -1.84e-19)
(10 3.46e-16 -9.28e-20)
(10 -2.67e-16 0)
(10 2.05e-15 0)
(10 -8.97e-16 0)
(10 -5.79e-15 0)
(10 -6.61e-15 -1.92e-19)
(10 6.14e-15 0)
(10 -8.89e-17 0)
(10 1.82e-15 -3.92e-19)
(10 5.14e-16 7.9e-19)
(10 6.14e-15 -7.95e-19)
(10 2.52e-15 4.01e-19)
(10 -4.93e-15 0)
(10 9.01e-15 0)
(10 6.03e-15 2.05e-19)
(10 -3.27e-15 0)
(10 -5.13e-15 2.08e-19)
(10 1.01e-14 -8.37e-19)
(10 3.11e-15 -2.11e-19)
(10 6.51e-15 6.38e-19)
(10 8.65e-16 0)
(10 5.15e-16 0)
(10 3.38e-15 -1.35e-19)
(10 -8.14e-15 -3.18e-19)
(10 1.99e-15 -3.76e-35)
(10 -2.27e-15 -9.2e-20)
(10 -1.89e-15 -1.85e-19)
(10 2.12e-15 3.84e-35)
(10 -4.32e-15 -1.88e-19)
(10 4.9e-16 0)
(10 -3.34e-15 3.92e-35)
(10 7.45e-15 -1.92e-19)
(10 2.32e-16 0)
(10 7.38e-15 -1.94e-19)
(10 -5.52e-16 -1.96e-19)
(10 3.69e-15 0)
(10 -4.68e-16 -1.98e-19)
(10 -1.04e-15 -2e-19)
(10 -1.92e-16 -8.05e-19)
(10 4.43e-15 4.05e-19)
(10 7.61e-15 -2.04e-19)
(10 5.91e-15 -2.06e-19)
(10 -3.91e-16 -2.07e-19)
(10 5.1e-15 1.29e-34)
(10 8.05e-16 2.1e-19)
(10 9.66e-15 0)
(10 1.1e-14 -2.14e-19)
(10 8.58e-15 2.24e-19)
(10 3.42e-15 2.25e-19)
(10 1.64e-15 3.62e-19)
(10 -3.88e-16 9.12e-20)
(10 6.96e-16 1.84e-19)
(10 -6.4e-15 -1.52e-34)
(10 -1.73e-15 5.58e-19)
(10 3.87e-15 -1.87e-19)
(10 -3e-15 1.89e-19)
(10 -1.53e-15 0)
(10 4.72e-15 0)
(10 7.35e-16 1.92e-19)
(10 3.08e-15 5.81e-19)
(10 -4.72e-15 -3.9e-19)
(10 5.83e-15 3.93e-19)
(10 7.76e-15 1.98e-19)
(10 -5.91e-15 0)
(10 -4.58e-15 2.01e-19)
(10 6.19e-15 4.05e-19)
(10 3.25e-15 -2.04e-19)
(10 -6.82e-15 -4.11e-19)
(10 -2.51e-15 1.03e-18)
(10 -3.96e-15 -1.04e-18)
(10 -3.34e-15 8.4e-19)
(10 3.11e-15 -4.23e-19)
(10 -5.73e-15 -1.77e-19)
(10 5.08e-15 -2.68e-19)
(10 -6.52e-15 -1.8e-19)
(10 8.11e-16 -2.71e-19)
(10 -4.75e-15 -1.82e-19)
(10 -4.96e-15 0)
(10 2.45e-15 1.84e-19)
(10 5.69e-15 1.86e-19)
(10 -4.12e-17 -1.87e-19)
(10 -8.31e-15 3.76e-19)
(10 1.66e-15 0)
(10 3.31e-15 -1.91e-19)
(10 5.06e-15 0)
(10 1.56e-15 0)
(10 -2.73e-15 -3.9e-19)
(10 -7.93e-16 3.92e-19)
(10 2.58e-15 -3.95e-19)
(10 1.04e-15 -7.96e-19)
(10 -3.61e-15 6.01e-19)
(10 -2.97e-15 4.04e-19)
(10 2.32e-15 -2.03e-19)
(10 -3.45e-15 0)
(10 -1.32e-14 4.13e-19)
(10 1.13e-15 0)
(10 -6.93e-15 2.16e-34)
(10 -8.82e-15 2.2e-19)
(10 -5.93e-15 1.33e-19)
(10 9.38e-15 8.91e-20)
(10 -3.49e-15 -8.97e-20)
(10 3.64e-15 4.51e-19)
(10 1.55e-15 -2.72e-19)
(10 -1.78e-15 -3.66e-19)
(10 -6.98e-16 9.2e-20)
(10 7.35e-15 -2.78e-19)
(10 -1.5e-15 -1.87e-19)
(10 -4.55e-15 0)
(10 -4.63e-15 6.62e-19)
(10 -1.99e-15 -3.81e-19)
(10 -9.57e-16 0)
(10 -7.33e-16 1.93e-19)
(10 -5.77e-15 0)
(10 7.76e-15 -7.83e-19)
(10 1.08e-15 7.88e-19)
(10 -6.79e-15 -7.94e-19)
(10 4.41e-15 6e-19)
(10 4.97e-15 0)
(10 2.03e-15 0)
(10 -2.23e-15 -3.07e-19)
(10 -1.66e-15 8.24e-19)
(10 4.74e-15 -1.04e-18)
(10 1.16e-15 -8.72e-20)
(10 2.94e-16 0)
(10 4.99e-15 -8.83e-20)
(10 -8.23e-15 0)
(10 8.36e-15 2.68e-19)
(10 7.4e-15 -1.8e-19)
(10 -1.46e-15 9.06e-20)
(10 -8.58e-17 1.82e-19)
(10 3.66e-15 -2.76e-19)
(10 8.35e-16 9.25e-20)
(10 -1.41e-15 0)
(10 -2.23e-15 -1.87e-19)
(10 -9.43e-16 0)
(10 1.81e-15 -3.8e-19)
(10 3.99e-15 3.83e-19)
(10 5.03e-15 0)
(10 -5.49e-16 0)
(10 -2.88e-15 9.77e-20)
(10 1.38e-16 -7.87e-19)
(10 -4.98e-15 6.93e-19)
(10 9.47e-16 0)
(10 1.76e-15 -8.04e-19)
(10 1e-14 9.11e-19)
(10 -3e-15 -1.02e-19)
(10 -6.05e-15 1.03e-19)
(10 5.18e-15 -4.33e-20)
(10 2.36e-15 -4.35e-20)
(10 -1.33e-15 2.63e-19)
(10 -2.47e-15 -1.76e-19)
(10 -6.79e-15 1.77e-19)
(10 4.58e-15 -1.79e-19)
(10 4.53e-15 1.85e-34)
(10 -2.28e-15 6.33e-19)
(10 2.51e-15 -4.55e-19)
(10 -2.43e-15 -9.17e-20)
(10 7.01e-15 0)
(10 -1.85e-15 -3.83e-35)
(10 3.15e-15 4.68e-19)
(10 3.89e-15 -4.71e-19)
(10 -2.79e-15 -9.48e-20)
(10 4.17e-15 4.77e-19)
(10 -3.97e-15 -4.8e-19)
(10 3.44e-15 -9.68e-20)
(10 2.92e-15 0)
(10 -4.75e-15 1.96e-19)
(10 -3.99e-15 0)
(10 -5.21e-16 0)
(10 2.9e-15 1e-19)
(10 4.17e-15 1.01e-19)
(10 -7.74e-15 1.26e-34)
(10 -1.88e-15 8.58e-20)
(10 -1.64e-15 8.64e-20)
(10 -2.64e-15 -8.69e-20)
(10 3.78e-15 8.75e-20)
(10 -4.13e-15 4.4e-20)
(10 2.14e-15 1.33e-19)
(10 1.99e-15 8.91e-20)
(10 -4.51e-15 -5.38e-19)
(10 -2.92e-15 4.97e-19)
(10 2.67e-15 0)
(10 4.56e-15 0)
(10 -3.48e-16 1.38e-19)
(10 -8.86e-17 -9.27e-20)
(10 -3.19e-15 9.33e-20)
(10 -2.14e-15 9.4e-20)
(10 4.49e-16 -4.73e-19)
(10 -1.4e-15 4.76e-19)
(10 -1.73e-15 -4.8e-20)
(10 -1.42e-15 -8.21e-19)
(10 3.09e-15 -9.72e-20)
(10 -4.52e-17 -4.9e-20)
(10 5.01e-15 -4.93e-20)
(10 -4.15e-15 6.46e-19)
(10 4.99e-15 0)
(10 7.96e-15 -1.51e-19)
(10 -2.87e-15 1.06e-20)
(10 2.6e-15 -8.57e-20)
(10 2.29e-15 1.72e-19)
(10 3.58e-15 -8.67e-20)
(10 6.13e-15 1.31e-19)
(10 -3.71e-15 -2.2e-19)
(10 1.38e-15 1.77e-19)
(10 2.28e-15 1.67e-19)
(10 7.25e-16 -4.03e-19)
(10 3.38e-15 1.13e-20)
(10 -4.78e-15 1.13e-20)
(10 1.13e-15 -3.42e-20)
(10 -9.61e-16 0)
(10 2.41e-15 1.16e-20)
(10 -6.45e-15 1.16e-20)
(10 4.81e-15 -1.17e-20)
(10 3.05e-15 0)
(10 3.66e-15 4.75e-20)
(10 6.83e-16 5.98e-20)
(10 -3.66e-15 0)
(10 4.49e-17 4.85e-20)
(10 6.96e-16 3.66e-20)
(10 7.49e-16 4.92e-20)
(10 8.47e-16 7.81e-19)
(10 1.06e-14 -7.49e-19)
(10 9.63e-16 -2.11e-20)
(10 -3.63e-16 9.56e-20)
(10 5.44e-15 -3.52e-35)
(10 -2.08e-15 -9.68e-20)
(10 3.21e-15 0)
(10 -4.51e-15 -1.63e-19)
(10 2.83e-15 -1.1e-20)
(10 4.73e-15 1.76e-19)
(10 -9.68e-16 1.11e-20)
(10 -2.12e-16 -2.23e-20)
(10 -7.34e-15 -1.12e-20)
(10 3.82e-16 -2.26e-20)
(10 -8.64e-16 -1.14e-20)
(10 1.57e-15 -2.29e-20)
(10 -1.23e-15 -2.31e-20)
(10 6.6e-16 2.32e-20)
(10 4.9e-16 1.17e-20)
(10 6.31e-15 0)
(10 5.23e-15 -7.59e-19)
(10 2.77e-15 7.52e-19)
(10 -6.07e-15 1.2e-20)
(10 -1.8e-15 2.42e-20)
(10 3.15e-15 -1.22e-20)
(10 -3.35e-15 1.23e-20)
(10 -3.54e-15 -1.24e-20)
(10 1.99e-16 1.05e-20)
(10 8.02e-16 -1.37e-19)
(10 2.74e-15 2.12e-19)
(10 -8.9e-16 -7.47e-20)
(10 2.84e-16 1.72e-19)
(10 1.03e-15 -1.08e-20)
(10 -5.7e-15 -1.63e-19)
(10 2.05e-16 5.47e-20)
(10 -5.6e-15 -4.07e-19)
(10 -2.48e-15 3.66e-19)
(10 -4.07e-15 0)
(10 4.05e-15 1.12e-20)
(10 -5.87e-15 1.13e-20)
(10 -6.22e-15 1.14e-20)
(10 7.69e-15 1.14e-20)
(10 -5.03e-15 -1.15e-20)
(10 1.32e-15 -1.16e-20)
(10 -5.41e-15 -7.47e-19)
(10 -4.78e-15 -1.18e-20)
(10 5.3e-15 7.69e-19)
(10 -1.9e-15 -7.74e-19)
(10 2.78e-15 7.56e-19)
(10 2.07e-15 6.04e-20)
(10 -4.16e-15 4.87e-20)
(10 -9.67e-16 1.22e-20)
(10 -5.13e-15 8.32e-20)
(10 1.39e-15 4.18e-20)
(10 -1.28e-15 -4.21e-20)
(10 5.43e-15 8.47e-20)
(10 1.62e-15 1.7e-19)
(10 1.63e-15 -8.57e-20)
(10 -6.14e-16 -8.62e-20)
(10 -7.62e-15 3.91e-19)
(10 1.28e-15 -3.06e-19)
(10 1.38e-15 0)
(10 7.39e-15 8.84e-20)
(10 -2.83e-15 -2.67e-19)
(10 4.29e-15 3.58e-19)
(10 -2.14e-15 -9.02e-20)
(10 1.16e-15 -9.08e-20)
(10 -3.43e-15 0)
(10 8.28e-16 0)
(10 -7.6e-15 -9.26e-20)
(10 -2.22e-15 0)
(10 -4.48e-17 0)
(10 2.29e-15 9.45e-20)
(10 -2.39e-15 0)
(10 -7.28e-16 4.79e-20)
(10 -1.05e-15 -4.82e-20)
(10 1.28e-15 0)
(10 1.25e-15 -1.24e-19)
(10 -3.62e-15 4.15e-20)
(10 -5.18e-16 -8.35e-20)
(10 -5.02e-15 -1.68e-19)
(10 1.97e-16 1.69e-19)
(10 3.71e-15 1.75e-34)
(10 -2.76e-15 1.71e-19)
(10 4.45e-15 -1.72e-19)
(10 5.68e-15 -2.6e-19)
(10 4.99e-16 3.49e-19)
(10 3.62e-15 -8.77e-20)
(10 -4.52e-15 -8.83e-20)
(10 4.76e-15 0)
(10 5.06e-15 8.94e-20)
(10 1.11e-15 4.5e-19)
(10 -2.36e-15 -3.62e-19)
(10 1.3e-15 0)
(10 6.55e-16 9.18e-20)
(10 1.58e-15 -7.39e-19)
(10 1.9e-15 0)
(10 3.47e-15 6.55e-19)
(10 6.73e-16 0)
(10 2.57e-15 -9.49e-20)
(10 9.53e-16 7.64e-19)
(10 1.88e-15 -7.7e-19)
(10 8.01e-15 8.19e-20)
(10 -9.35e-16 -8.24e-20)
(10 -2.32e-15 1.66e-19)
(10 1.46e-15 5.15e-35)
(10 -2.95e-15 0)
(10 -2.6e-15 -2.53e-19)
(10 1.81e-15 -1.75e-35)