/*--------------------------------*- C++ -*----------------------------------*\
| =========                 |                                                 |
| \\      /  F ield         | OpenFOAM: The Open Source CFD Toolbox           |
|  \\    /   O peration     | Version:  2212                                  |
|   \\  /    A nd           | Website:  www.openfoam.com                      |
|    \\/     M anipulation  |                                                 |
\*---------------------------------------------------------------------------*/
FoamFile
{
    version     2.0;
    format      ascii;
    arch        "LSB;label=32;scalar=64";
    class       volScalarField;
    location    "0.0817";
    object      s;
}
// * * * * * * * * * * * * * * * * * * * * * * * * * * * * * * * * * * * * * //

dimensions      [0 0 0 0 0 0 0];

internalField   nonuniform List<scalar> 
24240
(
2.76837e-126
2.78913e-126
2.86699e-126
2.71637e-126
2.82469e-126
2.81385e-126
2.80708e-126
2.73636e-126
2.7122e-126
2.86813e-126
2.70383e-126
2.87052e-126
2.7078e-126
2.82739e-126
2.6843e-126
2.84141e-126
2.6379e-126
2.75191e-126
2.80904e-126
2.60677e-126
4.01809e-123
4.04469e-123
4.15923e-123
3.93929e-123
4.09744e-123
4.08035e-123
4.07027e-123
3.96674e-123
3.93383e-123
4.1582e-123
3.92203e-123
4.16274e-123
3.92726e-123
4.10012e-123
3.89435e-123
4.12155e-123
3.82658e-123
3.99056e-123
4.07351e-123
3.78052e-123
3.44207e-120
3.46167e-120
3.56141e-120
3.37162e-120
3.508e-120
3.49227e-120
3.48323e-120
3.39366e-120
3.36719e-120
3.5581e-120
3.35744e-120
3.56282e-120
3.36154e-120
3.50921e-120
3.33449e-120
3.52846e-120
3.27572e-120
3.41519e-120
3.4864e-120
3.23542e-120
1.68399e-117
1.69194e-117
1.7417e-117
1.64804e-117
1.71527e-117
1.7071e-117
1.70239e-117
1.65809e-117
1.64589e-117
1.73891e-117
1.64136e-117
1.74157e-117
1.64324e-117
1.71542e-117
1.63065e-117
1.72526e-117
1.60134e-117
1.66925e-117
1.70425e-117
1.58116e-117
6.2292e-115
6.25196e-115
6.44091e-115
6.09035e-115
6.34154e-115
6.30977e-115
6.29055e-115
6.12448e-115
6.08163e-115
6.42591e-115
6.06602e-115
6.4367e-115
6.07285e-115
6.3404e-115
6.02912e-115
6.37827e-115
5.91716e-115
6.16838e-115
6.29897e-115
5.84043e-115
1.60527e-112
1.60923e-112
1.65968e-112
1.56789e-112
1.63348e-112
1.62503e-112
1.61935e-112
1.57583e-112
1.56515e-112
1.6546e-112
1.56155e-112
1.65747e-112
1.56343e-112
1.63288e-112
1.5531e-112
1.64296e-112
1.52273e-112
1.58795e-112
1.6221e-112
1.50224e-112
2.94823e-110
2.95118e-110
3.04932e-110
2.87626e-110
2.99922e-110
2.98381e-110
2.97087e-110
2.88887e-110
2.86898e-110
3.03756e-110
2.8636e-110
3.04228e-110
2.8679e-110
2.99801e-110
2.85155e-110
3.01679e-110
2.79024e-110
2.91319e-110
2.97776e-110
2.75071e-110
3.52957e-108
3.5257e-108
3.65768e-108
3.43921e-108
3.59228e-108
3.57673e-108
3.55414e-108
3.45076e-108
3.42287e-108
3.64096e-108
3.4196e-108
3.64298e-108
3.4283e-108
3.59329e-108
3.41511e-108
3.61439e-108
3.32399e-108
3.48454e-108
3.56743e-108
3.27248e-108
1.63276e-106
1.63733e-106
1.66272e-106
1.58691e-106
1.64698e-106
1.62453e-106
1.63243e-106
1.59681e-106
1.60149e-106
1.64979e-106
1.59385e-106
1.66475e-106
1.58524e-106
1.63564e-106
1.56494e-106
1.65341e-106
1.57769e-106
1.60483e-106
1.6278e-106
1.56393e-106
1.75782e-106
1.77214e-106
1.75629e-106
1.70492e-106
1.75637e-106
1.7146e-106
1.74467e-106
1.72186e-106
1.7484e-106
1.73789e-106
1.73168e-106
1.77079e-106
1.70732e-106
1.72927e-106
1.66793e-106
1.75875e-106
1.75043e-106
1.72025e-106
1.72682e-106
1.74814e-106
2.45864e-106
2.5184e-106
2.49745e-106
2.50213e-106
2.46291e-106
2.49781e-106
2.54144e-106
2.49674e-106
2.54957e-106
2.58574e-106
2.52644e-106
2.5818e-106
2.51196e-106
2.47717e-106
2.4627e-106
2.51283e-106
2.48897e-106
2.47809e-106
2.48113e-106
2.51223e-106
3.02965e-106
3.06577e-106
3.06446e-106
3.06071e-106
3.00386e-106
2.94306e-106
2.98356e-106
2.92826e-106
3.01359e-106
3.14476e-106
3.11004e-106
3.00656e-106
3.06912e-106
3.04623e-106
3.02624e-106
3.06731e-106
2.92909e-106
3.07198e-106
3.02536e-106
3.01954e-106
3.39072e-106
3.52961e-106
3.45664e-106
3.46403e-106
3.43285e-106
3.49558e-106
3.60552e-106
3.45415e-106
3.47562e-106
3.45509e-106
3.46076e-106
3.44697e-106
3.43108e-106
3.40275e-106
3.33193e-106
3.43271e-106
3.46352e-106
3.38551e-106
3.36523e-106
3.39532e-106
3.81081e-106
3.86428e-106
3.94775e-106
3.95835e-106
3.90143e-106
3.99758e-106
3.90359e-106
3.96137e-106
3.95635e-106
3.76228e-106
3.82414e-106
3.79849e-106
3.83814e-106
3.73926e-106
3.77064e-106
3.77e-106
3.80458e-106
3.84368e-106
3.81693e-106
3.87322e-106
3.89476e-106
3.95059e-106
3.99215e-106
4.00963e-106
3.94251e-106
3.93842e-106
3.96067e-106
4.04016e-106
3.90662e-106
3.97066e-106
3.90833e-106
3.93307e-106
4.04311e-106
3.94263e-106
3.87786e-106
4.1001e-106
3.91324e-106
3.90109e-106
3.94917e-106
4.06413e-106
4.08418e-106
4.03886e-106
4.12871e-106
4.02902e-106
4.08608e-106
4.09279e-106
4.15866e-106
4.09606e-106
3.9721e-106
4.02457e-106
4.03869e-106
4.17839e-106
4.08219e-106
4.15768e-106
4.16284e-106
4.14622e-106
4.13177e-106
4.07138e-106
4.0503e-106
4.07402e-106
3.68032e-106
3.75315e-106
3.6968e-106
3.86558e-106
3.76269e-106
3.87615e-106
3.81102e-106
3.78932e-106
3.76729e-106
3.77826e-106
3.73691e-106
3.8426e-106
3.81682e-106
3.89761e-106
3.75703e-106
3.86278e-106
3.84202e-106
3.67835e-106
3.86404e-106
3.81329e-106
3.50012e-106
3.67861e-106
3.60491e-106
3.61572e-106
3.5484e-106
3.72586e-106
3.67898e-106
3.65187e-106
3.64946e-106
3.54931e-106
3.64395e-106
3.72752e-106
3.59683e-106
3.83518e-106
3.67765e-106
3.75388e-106
3.80274e-106
3.65588e-106
3.73954e-106
3.75802e-106
3.05235e-106
3.04206e-106
2.99475e-106
3.06287e-106
3.13438e-106
3.11459e-106
3.06741e-106
2.98541e-106
3.11546e-106
3.01522e-106
3.10299e-106
3.10489e-106
3.06495e-106
3.123e-106
3.1527e-106
3.17143e-106
3.08186e-106
3.17491e-106
3.13161e-106
3.23339e-106
2.40676e-106
2.43874e-106
2.41273e-106
2.39957e-106
2.48221e-106
2.4364e-106
2.5321e-106
2.43698e-106
2.53337e-106
2.51931e-106
2.47558e-106
2.55602e-106
2.44112e-106
2.5631e-106
2.47314e-106
2.4598e-106
2.52499e-106
2.55539e-106
2.4983e-106
2.60548e-106
2.12929e-124
2.1439e-124
2.20369e-124
2.08805e-124
2.17125e-124
2.1623e-124
2.15742e-124
2.10279e-124
2.08546e-124
2.20351e-124
2.07904e-124
2.20599e-124
2.08165e-124
2.17275e-124
2.06382e-124
2.18403e-124
2.02871e-124
2.115e-124
2.15859e-124
2.00463e-124
3.64796e-121
3.66972e-121
3.77366e-121
3.57427e-121
3.71768e-121
3.70116e-121
3.69249e-121
3.59806e-121
3.57029e-121
3.77092e-121
3.55966e-121
3.77613e-121
3.5637e-121
3.71921e-121
3.5343e-121
3.73951e-121
3.47365e-121
3.62022e-121
3.69498e-121
3.43156e-121
3.39744e-118
3.41449e-118
3.513e-118
3.32587e-118
3.46035e-118
3.44395e-118
3.43541e-118
3.34655e-118
3.32232e-118
3.50808e-118
3.31284e-118
3.5137e-118
3.31628e-118
3.46078e-118
3.29008e-118
3.48055e-118
3.23274e-118
3.36837e-118
3.43821e-118
3.19268e-118
1.77223e-115
1.77939e-115
1.83184e-115
1.73335e-115
1.80404e-115
1.79502e-115
1.79023e-115
1.74335e-115
1.73147e-115
1.82805e-115
1.7268e-115
1.83134e-115
1.72849e-115
1.80382e-115
1.71552e-115
1.81458e-115
1.68494e-115
1.75542e-115
1.79204e-115
1.66354e-115
6.73088e-113
6.75075e-113
6.9555e-113
6.57693e-113
6.84806e-113
6.81238e-113
6.79207e-113
6.61154e-113
6.5686e-113
6.93617e-113
6.55224e-113
6.94953e-113
6.55868e-113
6.84566e-113
6.51263e-113
6.88801e-113
6.39218e-113
6.66029e-113
6.80073e-113
6.30856e-113
1.78095e-110
1.78405e-110
1.84031e-110
1.73846e-110
1.81116e-110
1.8015e-110
1.79526e-110
1.74664e-110
1.73559e-110
1.83387e-110
1.73178e-110
1.83745e-110
1.73367e-110
1.81026e-110
1.72258e-110
1.82179e-110
1.68881e-110
1.76047e-110
1.79824e-110
1.66585e-110
3.252e-108
3.25278e-108
3.36191e-108
3.17079e-108
3.30637e-108
3.28905e-108
3.27467e-108
3.18348e-108
3.16274e-108
3.34755e-108
3.15726e-108
3.35333e-108
3.16183e-108
3.30476e-108
3.14463e-108
3.32606e-108
3.0762e-108
3.21111e-108
3.28228e-108
3.03203e-108
3.85717e-106
3.84978e-106
3.99555e-106
3.75622e-106
3.92356e-106
3.90632e-106
3.88127e-106
3.76725e-106
3.73784e-106
3.97562e-106
3.73502e-106
3.97839e-106
3.74456e-106
3.92444e-106
3.73137e-106
3.94823e-106
3.62981e-106
3.80532e-106
3.89601e-106
3.57258e-106
1.73127e-104
1.73514e-104
1.7623e-104
1.68213e-104
1.74551e-104
1.72187e-104
1.73025e-104
1.69209e-104
1.69766e-104
1.74825e-104
1.6897e-104
1.76422e-104
1.68048e-104
1.73366e-104
1.6593e-104
1.75253e-104
1.67253e-104
1.70086e-104
1.72512e-104
1.65789e-104
1.85529e-104
1.87003e-104
1.85343e-104
1.79979e-104
1.8534e-104
1.8102e-104
1.842e-104
1.81737e-104
1.84578e-104
1.83429e-104
1.82812e-104
1.86876e-104
1.80236e-104
1.82564e-104
1.76104e-104
1.8561e-104
1.84744e-104
1.81563e-104
1.82249e-104
1.84529e-104
2.59336e-104
2.65582e-104
2.63464e-104
2.63816e-104
2.59759e-104
2.63391e-104
2.68026e-104
2.63238e-104
2.6891e-104
2.7253e-104
2.66475e-104
2.72178e-104
2.64864e-104
2.61239e-104
2.59647e-104
2.64947e-104
2.62441e-104
2.61312e-104
2.61694e-104
2.64945e-104
3.17793e-104
3.21571e-104
3.21493e-104
3.20987e-104
3.15096e-104
3.08692e-104
3.13046e-104
3.07187e-104
3.16225e-104
3.29833e-104
3.26236e-104
3.15329e-104
3.22053e-104
3.19549e-104
3.17508e-104
3.21761e-104
3.07249e-104
3.22215e-104
3.17272e-104
3.16763e-104
3.55119e-104
3.69514e-104
3.61998e-104
3.62602e-104
3.59538e-104
3.66033e-104
3.77588e-104
3.6164e-104
3.63903e-104
3.61705e-104
3.6234e-104
3.60923e-104
3.59392e-104
3.56377e-104
3.49e-104
3.5946e-104
3.62684e-104
3.54524e-104
3.52407e-104
3.55568e-104
3.94759e-104
4.00191e-104
4.08758e-104
4.09984e-104
4.04116e-104
4.14001e-104
4.04279e-104
4.10282e-104
4.09757e-104
3.89578e-104
3.96046e-104
3.93443e-104
3.97582e-104
3.87369e-104
3.90524e-104
3.90538e-104
3.94023e-104
3.98161e-104
3.95362e-104
4.01248e-104
4.02952e-104
4.08616e-104
4.12994e-104
4.14668e-104
4.07745e-104
4.07463e-104
4.09801e-104
4.17932e-104
4.04129e-104
4.10742e-104
4.04432e-104
4.06917e-104
4.18154e-104
4.0789e-104
4.0127e-104
4.24105e-104
4.04899e-104
4.03539e-104
4.08546e-104
4.20236e-104
4.15212e-104
4.10413e-104
4.19545e-104
4.09531e-104
4.15365e-104
4.16138e-104
4.227e-104
4.16365e-104
4.03795e-104
4.0909e-104
4.10391e-104
4.24703e-104
4.14975e-104
4.22716e-104
4.23084e-104
4.21535e-104
4.19903e-104
4.13976e-104
4.11706e-104
4.14129e-104
3.74601e-104
3.81886e-104
3.76215e-104
3.93416e-104
3.82886e-104
3.94416e-104
3.87715e-104
3.85663e-104
3.83334e-104
3.84426e-104
3.80316e-104
3.9099e-104
3.88219e-104
3.96622e-104
3.82221e-104
3.9303e-104
3.9085e-104
3.74254e-104
3.93078e-104
3.88061e-104
3.47961e-104
3.65749e-104
3.58403e-104
3.59424e-104
3.52705e-104
3.70493e-104
3.65767e-104
3.63157e-104
3.62821e-104
3.52913e-104
3.62357e-104
3.70636e-104
3.57618e-104
3.81307e-104
3.65562e-104
3.73129e-104
3.78e-104
3.6347e-104
3.71784e-104
3.73605e-104
3.05167e-104
3.04094e-104
2.99428e-104
3.06217e-104
3.13354e-104
3.11336e-104
3.06592e-104
2.98526e-104
3.11516e-104
3.01428e-104
3.10224e-104
3.10352e-104
3.06357e-104
3.12233e-104
3.15089e-104
3.17089e-104
3.08018e-104
3.17345e-104
3.12995e-104
3.23193e-104
2.36737e-104
2.3986e-104
2.37305e-104
2.36023e-104
2.4409e-104
2.39647e-104
2.48909e-104
2.39709e-104
2.4904e-104
2.4776e-104
2.43444e-104
2.51329e-104
2.40112e-104
2.52067e-104
2.4317e-104
2.4191e-104
2.48245e-104
2.51246e-104
2.45683e-104
2.56126e-104
2.1157e-122
2.12876e-122
2.18817e-122
2.07337e-122
2.15599e-122
2.14644e-122
2.14185e-122
2.08731e-122
2.07135e-122
2.1868e-122
2.06501e-122
2.18992e-122
2.06716e-122
2.15682e-122
2.04972e-122
2.16854e-122
2.01539e-122
2.09971e-122
2.1427e-122
1.99128e-122
3.8349e-119
3.85511e-119
3.96442e-119
3.755e-119
3.90565e-119
3.88717e-119
3.8785e-119
3.77873e-119
3.75177e-119
3.95947e-119
3.74072e-119
3.9661e-119
3.74422e-119
3.90619e-119
3.71385e-119
3.92847e-119
3.65102e-119
3.80261e-119
3.88066e-119
3.60644e-119
3.64253e-116
3.65827e-116
3.76398e-116
3.56354e-116
3.70759e-116
3.68904e-116
3.68027e-116
3.58452e-116
3.56058e-116
3.75684e-116
3.5506e-116
3.76394e-116
3.55363e-116
3.7072e-116
3.5261e-116
3.72927e-116
3.4654e-116
3.60856e-116
3.68296e-116
3.42213e-116
1.95015e-113
1.95665e-113
2.01445e-113
1.90618e-113
1.98388e-113
1.97349e-113
1.96839e-113
1.91653e-113
1.9045e-113
2.00932e-113
1.89949e-113
2.01348e-113
1.90103e-113
1.98323e-113
1.88707e-113
1.99551e-113
1.85376e-113
1.93018e-113
1.97024e-113
1.83003e-113
7.41128e-111
7.42786e-111
7.65386e-111
7.23734e-111
7.5355e-111
7.4947e-111
7.47286e-111
7.2729e-111
7.22935e-111
7.62906e-111
7.21197e-111
7.64567e-111
7.21799e-111
7.53155e-111
7.16858e-111
7.57981e-111
7.03674e-111
7.32807e-111
7.48193e-111
6.94392e-111
1.96309e-108
1.96507e-108
2.02733e-108
1.91511e-108
1.99515e-108
1.98418e-108
1.97737e-108
1.92343e-108
1.91215e-108
2.01935e-108
1.90815e-108
2.02375e-108
1.91002e-108
1.99388e-108
1.89818e-108
2.007e-108
1.86097e-108
1.93911e-108
1.98058e-108
1.83543e-108
3.52455e-106
3.52273e-106
3.64175e-106
3.43455e-106
3.58132e-106
3.56216e-106
3.54655e-106
3.44697e-106
3.42587e-106
3.62468e-106
3.42042e-106
3.63162e-106
3.42513e-106
3.57924e-106
3.40733e-106
3.60302e-106
3.33256e-106
3.47778e-106
3.55475e-106
3.28415e-106
4.13387e-104
4.12256e-104
4.28008e-104
4.02327e-104
4.20251e-104
4.18367e-104
4.1566e-104
4.03338e-104
4.00316e-104
4.25695e-104
4.00091e-104
4.26063e-104
4.01109e-104
4.20314e-104
3.99813e-104
4.22952e-104
3.88769e-104
4.07536e-104
4.17254e-104
3.82542e-104
1.79898e-102
1.80198e-102
1.83043e-102
1.74738e-102
1.81288e-102
1.78852e-102
1.79721e-102
1.75715e-102
1.76357e-102
1.81548e-102
1.75547e-102
1.83219e-102
1.74579e-102
1.80077e-102
1.72413e-102
1.82038e-102
1.73758e-102
1.76656e-102
1.79167e-102
1.72231e-102
1.91743e-102
1.93226e-102
1.91524e-102
1.86043e-102
1.91509e-102
1.87139e-102
1.9043e-102
1.87827e-102
1.90806e-102
1.89577e-102
1.88979e-102
1.93112e-102
1.86313e-102
1.88729e-102
1.82069e-102
1.91807e-102
1.90926e-102
1.87644e-102
1.88344e-102
1.90732e-102
2.67969e-102
2.74359e-102
2.72269e-102
2.72484e-102
2.68377e-102
2.72078e-102
2.76899e-102
2.71877e-102
2.7784e-102
2.81375e-102
2.7533e-102
2.81079e-102
2.73578e-102
2.69877e-102
2.68166e-102
2.73654e-102
2.71078e-102
2.69929e-102
2.70388e-102
2.73717e-102
3.2665e-102
3.30521e-102
3.30502e-102
3.29865e-102
3.23886e-102
3.17277e-102
3.21862e-102
3.15781e-102
3.25161e-102
3.3899e-102
3.35339e-102
3.24077e-102
3.31153e-102
3.28473e-102
3.26435e-102
3.30746e-102
3.15815e-102
3.31176e-102
3.26041e-102
3.25621e-102
3.64703e-102
3.79327e-102
3.7174e-102
3.72185e-102
3.69249e-102
3.75835e-102
3.87747e-102
3.7127e-102
3.7361e-102
3.71307e-102
3.72002e-102
3.70573e-102
3.6914e-102
3.66e-102
3.58462e-102
3.69104e-102
3.7241e-102
3.64043e-102
3.61876e-102
3.65129e-102
4.01615e-102
4.07032e-102
4.15662e-102
4.17043e-102
4.11104e-102
4.21073e-102
4.11208e-102
4.1733e-102
4.16782e-102
3.96188e-102
4.02827e-102
4.00237e-102
4.04475e-102
3.94119e-102
3.9723e-102
3.97325e-102
4.00772e-102
4.05071e-102
4.02194e-102
4.08238e-102
4.09804e-102
4.1545e-102
4.19982e-102
4.21569e-102
4.14526e-102
4.14389e-102
4.16798e-102
4.24995e-102
4.10933e-102
4.17683e-102
4.11388e-102
4.13838e-102
4.25132e-102
4.14809e-102
4.0816e-102
4.31235e-102
4.11819e-102
4.10329e-102
4.15457e-102
4.27153e-102
4.16159e-102
4.11157e-102
4.203e-102
4.1038e-102
4.16269e-102
4.17131e-102
4.23569e-102
4.17259e-102
4.04689e-102
4.09962e-102
4.11126e-102
4.25575e-102
4.15884e-102
4.23708e-102
4.23916e-102
4.22508e-102
4.20708e-102
4.14983e-102
4.12583e-102
4.15012e-102
3.76363e-102
3.83544e-102
3.77922e-102
3.95219e-102
3.84582e-102
3.96137e-102
3.8934e-102
3.87437e-102
3.85002e-102
3.86082e-102
3.82053e-102
3.92692e-102
3.89761e-102
3.98375e-102
3.83825e-102
3.94721e-102
3.92465e-102
3.75863e-102
3.94685e-102
3.89802e-102
3.43597e-102
3.61184e-102
3.53915e-102
3.54889e-102
3.48235e-102
3.65922e-102
3.61189e-102
3.58696e-102
3.58268e-102
3.4855e-102
3.57886e-102
3.66034e-102
3.53178e-102
3.76531e-102
3.60905e-102
3.68368e-102
3.73183e-102
3.58907e-102
3.67126e-102
3.68895e-102
3.03432e-102
3.02341e-102
2.97765e-102
3.04479e-102
3.11549e-102
3.09527e-102
3.04781e-102
2.96903e-102
3.09795e-102
2.99689e-102
3.08468e-102
3.08537e-102
3.04548e-102
3.10485e-102
3.13203e-102
3.1532e-102
3.06195e-102
3.15479e-102
3.11136e-102
3.21293e-102
2.34268e-102
2.37333e-102
2.34808e-102
2.33554e-102
2.41472e-102
2.3714e-102
2.46149e-102
2.37202e-102
2.46286e-102
2.4512e-102
2.40838e-102
2.48611e-102
2.376e-102
2.49381e-102
2.40536e-102
2.3934e-102
2.45528e-102
2.48511e-102
2.43057e-102
2.53291e-102
2.47237e-120
2.48588e-120
2.55536e-120
2.42128e-120
2.51782e-120
2.50591e-120
2.50082e-120
2.43678e-120
2.41961e-120
2.55247e-120
2.41231e-120
2.5569e-120
2.41435e-120
2.51819e-120
2.39436e-120
2.53253e-120
2.35488e-120
2.45179e-120
2.5017e-120
2.32648e-120
4.3709e-117
4.39086e-117
4.5155e-117
4.27703e-117
4.44863e-117
4.42633e-117
4.41693e-117
4.30267e-117
4.27448e-117
4.50761e-117
4.26211e-117
4.5165e-117
4.26527e-117
4.44821e-117
4.23131e-117
4.47469e-117
4.16081e-117
4.33074e-117
4.4191e-117
4.10964e-117
4.0534e-114
4.06807e-114
4.18573e-114
3.96297e-114
4.12308e-114
4.10138e-114
4.09205e-114
3.98498e-114
3.96063e-114
4.17575e-114
3.94976e-114
4.18485e-114
3.9524e-114
4.12174e-114
3.92236e-114
4.14728e-114
3.85579e-114
4.01249e-114
4.09473e-114
3.80731e-114
2.18302e-111
2.18875e-111
2.25349e-111
2.13246e-111
2.2193e-111
2.20716e-111
2.20167e-111
2.14332e-111
2.13103e-111
2.24669e-111
2.12557e-111
2.25195e-111
2.12693e-111
2.21814e-111
2.11163e-111
2.2324e-111
2.0748e-111
2.15901e-111
2.20357e-111
2.04806e-111
8.19679e-109
8.2093e-109
8.45959e-109
7.99956e-109
8.32873e-109
8.28194e-109
8.25844e-109
8.03607e-109
7.99208e-109
8.42834e-109
7.97357e-109
8.44886e-109
7.979e-109
8.32295e-109
7.9257e-109
8.37814e-109
7.78111e-109
8.09871e-109
8.26792e-109
7.67771e-109
2.14835e-106
2.14897e-106
2.21727e-106
2.09461e-106
2.18202e-106
2.16967e-106
2.16234e-106
2.10294e-106
2.09161e-106
2.20757e-106
2.08747e-106
2.2129e-106
2.08924e-106
2.18033e-106
2.07668e-106
2.19515e-106
2.03609e-106
2.12055e-106
2.16572e-106
2.00791e-106
3.79241e-104
3.78761e-104
3.91623e-104
3.69344e-104
3.85105e-104
3.82998e-104
3.81325e-104
3.70537e-104
3.6842e-104
3.89625e-104
3.67888e-104
3.90452e-104
3.68363e-104
3.84844e-104
3.66528e-104
3.87479e-104
3.58451e-104
3.7394e-104
3.82196e-104
3.5319e-104
4.39103e-102
4.37549e-102
4.54377e-102
4.27099e-102
4.46107e-102
4.4406e-102
4.41175e-102
4.27993e-102
4.24933e-102
4.51732e-102
4.24776e-102
4.5221e-102
4.2584e-102
4.46136e-102
4.24573e-102
4.49039e-102
4.12731e-102
4.32571e-102
4.42874e-102
4.06031e-102
1.85197e-100
1.85401e-100
1.88352e-100
1.79832e-100
1.86535e-100
1.84051e-100
1.84944e-100
1.80778e-100
1.81502e-100
1.86781e-100
1.80687e-100
1.8851e-100
1.79681e-100
1.85313e-100
1.77488e-100
1.87331e-100
1.78839e-100
1.81776e-100
1.8435e-100
1.77264e-100
1.96204e-100
1.97681e-100
1.95952e-100
1.9041e-100
1.95925e-100
1.91552e-100
1.94923e-100
1.922e-100
1.95293e-100
1.93993e-100
1.93422e-100
1.97581e-100
1.9069e-100
1.93173e-100
1.86376e-100
1.96248e-100
1.95361e-100
1.9201e-100
1.92719e-100
1.95191e-100
2.74276e-100
2.80749e-100
2.78711e-100
2.78779e-100
2.74663e-100
2.78397e-100
2.83362e-100
2.78145e-100
2.84352e-100
2.87759e-100
2.81789e-100
2.87525e-100
2.79909e-100
2.76167e-100
2.74348e-100
2.79977e-100
2.77355e-100
2.76196e-100
2.76732e-100
2.80109e-100
3.327e-100
3.36629e-100
3.3667e-100
3.359e-100
3.2989e-100
3.23133e-100
3.27916e-100
3.21663e-100
3.31307e-100
3.4523e-100
3.41558e-100
3.30039e-100
3.37411e-100
3.34571e-100
3.32558e-100
3.36886e-100
3.21666e-100
3.37288e-100
3.32002e-100
3.31678e-100
3.71418e-100
3.8615e-100
3.78558e-100
3.78834e-100
3.76058e-100
3.82677e-100
3.94852e-100
3.77976e-100
3.80374e-100
3.77984e-100
3.78734e-100
3.77309e-100
3.75989e-100
3.72751e-100
3.65113e-100
3.75848e-100
3.79207e-100
3.70702e-100
3.68502e-100
3.71819e-100
4.05853e-100
4.11216e-100
4.19844e-100
4.21381e-100
4.1541e-100
4.2539e-100
4.15454e-100
4.21653e-100
4.21078e-100
4.00212e-100
4.06978e-100
4.04421e-100
4.08729e-100
3.98301e-100
4.01343e-100
4.01521e-100
4.04903e-100
4.09338e-100
4.06401e-100
4.12565e-100
4.14358e-100
4.19966e-100
4.24613e-100
4.26097e-100
4.18977e-100
4.18993e-100
4.21458e-100
4.2967e-100
4.15433e-100
4.22279e-100
4.16052e-100
4.18439e-100
4.29719e-100
4.19399e-100
4.12764e-100
4.35939e-100
4.16431e-100
4.14815e-100
4.20051e-100
4.31662e-100
4.1644e-100
4.11239e-100
4.20379e-100
4.10565e-100
4.16506e-100
4.17453e-100
4.23758e-100
4.17472e-100
4.04928e-100
4.10166e-100
4.11201e-100
4.25761e-100
4.1612e-100
4.24021e-100
4.24071e-100
4.22794e-100
4.20839e-100
4.15326e-100
4.12795e-100
4.15223e-100
3.7776e-100
3.84829e-100
3.79263e-100
3.96636e-100
3.85902e-100
3.97464e-100
3.90581e-100
3.88836e-100
3.86294e-100
3.87363e-100
3.83418e-100
3.94009e-100
3.90924e-100
3.99733e-100
3.85053e-100
3.96025e-100
3.93692e-100
3.77105e-100
3.95902e-100
3.91162e-100
3.41227e-100
3.58703e-100
3.51472e-100
3.5241e-100
3.45786e-100
3.63462e-100
3.58696e-100
3.56304e-100
3.55784e-100
3.46208e-100
3.55477e-100
3.63542e-100
3.50787e-100
3.7392e-100
3.5833e-100
3.65733e-100
3.70513e-100
3.5641e-100
3.64587e-100
3.6631e-100
3.03355e-100
3.02251e-100
2.97738e-100
3.04408e-100
3.11444e-100
3.09418e-100
3.04642e-100
2.96915e-100
3.09774e-100
2.99589e-100
3.08404e-100
3.08418e-100
3.04402e-100
3.10447e-100
3.13036e-100
3.15285e-100
3.06063e-100
3.15343e-100
3.10986e-100
3.21155e-100
2.32155e-100
2.35166e-100
2.32668e-100
2.3144e-100
2.3922e-100
2.34991e-100
2.43761e-100
2.35051e-100
2.43903e-100
2.42847e-100
2.38595e-100
2.46265e-100
2.35447e-100
2.47069e-100
2.38267e-100
2.37132e-100
2.43181e-100
2.46151e-100
2.40798e-100
2.50839e-100
2.75834e-118
2.77149e-118
2.84895e-118
2.69956e-118
2.80717e-118
2.79305e-118
2.78773e-118
2.71597e-118
2.69847e-118
2.84426e-118
2.69044e-118
2.85007e-118
2.69215e-118
2.80685e-118
2.6702e-118
2.82356e-118
2.62702e-118
2.73319e-118
2.78846e-118
2.59513e-118
4.96152e-115
4.9807e-115
5.12208e-115
4.85182e-115
5.04635e-115
5.01964e-115
5.00958e-115
4.8793e-115
4.8502e-115
5.11057e-115
4.83641e-115
5.12219e-115
4.83902e-115
5.04467e-115
4.80114e-115
5.07596e-115
4.72258e-115
4.91204e-115
5.01161e-115
4.66413e-115
4.56676e-112
4.58009e-112
4.71256e-112
4.46204e-112
4.64212e-112
4.6165e-112
4.60652e-112
4.48533e-112
4.46048e-112
4.69905e-112
4.44852e-112
4.71065e-112
4.45064e-112
4.63961e-112
4.41742e-112
4.66949e-112
4.34368e-112
4.51715e-112
4.60915e-112
4.28874e-112
2.44783e-109
2.45254e-109
2.5251e-109
2.38966e-109
2.48683e-109
2.47266e-109
2.46676e-109
2.40101e-109
2.38856e-109
2.5163e-109
2.38263e-109
2.5229e-109
2.38372e-109
2.48506e-109
2.36691e-109
2.50161e-109
2.32622e-109
2.41906e-109
2.46868e-109
2.29606e-109
9.02502e-107
9.03244e-107
9.30802e-107
8.80258e-107
9.1641e-107
9.11079e-107
9.08576e-107
8.83967e-107
8.79589e-107
9.26948e-107
8.77632e-107
9.29448e-107
8.78088e-107
9.15623e-107
8.72353e-107
9.21902e-107
8.56616e-107
8.91037e-107
9.09549e-107
8.45163e-107
2.3358e-104
2.3348e-104
2.40912e-104
2.27604e-104
2.37081e-104
2.357e-104
2.3492e-104
2.28427e-104
2.27306e-104
2.39757e-104
2.26881e-104
2.40393e-104
2.27043e-104
2.36866e-104
2.25715e-104
2.38527e-104
2.21332e-104
2.30389e-104
2.35272e-104
2.18248e-104
4.05346e-102
4.04535e-102
4.18315e-102
3.94542e-102
4.11341e-102
4.09038e-102
4.07267e-102
3.95666e-102
3.93575e-102
4.16011e-102
3.93063e-102
4.16984e-102
3.93531e-102
4.11021e-102
3.91645e-102
4.13923e-102
3.83014e-102
3.99394e-102
4.0818e-102
3.77344e-102
4.62704e-100
4.60702e-100
4.78495e-100
4.49786e-100
4.69764e-100
4.67549e-100
4.64517e-100
4.5054e-100
4.47488e-100
4.75511e-100
4.47406e-100
4.76116e-100
4.485e-100
4.69748e-100
4.47264e-100
4.72921e-100
4.34728e-100
4.55483e-100
4.66304e-100
4.27591e-100
1.89067e-98
1.89168e-98
1.92201e-98
1.83537e-98
1.90336e-98
1.87828e-98
1.88737e-98
1.8444e-98
1.85243e-98
1.90566e-98
1.84431e-98
1.9234e-98
1.83396e-98
1.89115e-98
1.81193e-98
1.91173e-98
1.82539e-98
1.8549e-98
1.88106e-98
1.80927e-98
1.98994e-98
2.00451e-98
1.9871e-98
1.93158e-98
1.98671e-98
1.94337e-98
1.97758e-98
1.94936e-98
1.9812e-98
1.96758e-98
1.96221e-98
2.00366e-98
1.93447e-98
1.95973e-98
1.891e-98
1.99016e-98
1.98133e-98
1.94741e-98
1.95452e-98
1.97989e-98
2.78369e-98
2.84868e-98
2.82904e-98
2.82818e-98
2.7873e-98
2.82464e-98
2.87533e-98
2.8216e-98
2.88565e-98
2.91808e-98
2.8597e-98
2.91638e-98
2.83975e-98
2.80223e-98
2.78312e-98
2.84032e-98
2.81388e-98
2.80229e-98
2.80841e-98
2.84236e-98
3.36122e-98
3.40076e-98
3.40178e-98
3.39278e-98
3.33289e-98
3.26438e-98
3.31382e-98
3.25007e-98
3.34841e-98
3.48741e-98
3.45079e-98
3.33395e-98
3.41008e-98
3.38025e-98
3.36056e-98
3.40364e-98
3.24975e-98
3.40733e-98
3.35337e-98
3.35114e-98
3.75447e-98
3.90175e-98
3.82638e-98
3.82738e-98
3.8015e-98
3.86748e-98
3.99099e-98
3.81946e-98
3.84386e-98
3.81924e-98
3.82724e-98
3.81315e-98
3.80124e-98
3.76814e-98
3.69131e-98
3.79876e-98
3.83262e-98
3.74682e-98
3.72468e-98
3.7582e-98
4.07591e-98
4.12864e-98
4.21433e-98
4.23121e-98
4.17155e-98
4.27078e-98
4.1714e-98
4.23376e-98
4.2277e-98
4.0177e-98
4.0862e-98
4.06115e-98
4.10463e-98
4.0003e-98
4.02981e-98
4.03244e-98
4.06537e-98
4.11081e-98
4.08101e-98
4.1435e-98
4.16702e-98
4.22236e-98
4.26992e-98
4.28346e-98
4.21203e-98
4.21353e-98
4.23871e-98
4.3205e-98
4.17721e-98
4.24621e-98
4.18507e-98
4.20809e-98
4.32007e-98
4.21751e-98
4.1517e-98
4.38307e-98
4.18822e-98
4.17087e-98
4.224e-98
4.33857e-98
4.15273e-98
4.09888e-98
4.18988e-98
4.09326e-98
4.15291e-98
4.16322e-98
4.2247e-98
4.16228e-98
4.03753e-98
4.0894e-98
4.0984e-98
4.24461e-98
4.14906e-98
4.22856e-98
4.22751e-98
4.21603e-98
4.19506e-98
4.14223e-98
4.11562e-98
4.1399e-98
3.78162e-98
3.85101e-98
3.79607e-98
3.97005e-98
3.86205e-98
3.97738e-98
3.9079e-98
3.8921e-98
3.86565e-98
3.87622e-98
3.83776e-98
3.94285e-98
3.91056e-98
4.00031e-98
3.85265e-98
3.96281e-98
3.93879e-98
3.77355e-98
3.96073e-98
3.91487e-98
3.38725e-98
3.56076e-98
3.48887e-98
3.49789e-98
3.43202e-98
3.60854e-98
3.56056e-98
3.53765e-98
3.53158e-98
3.43726e-98
3.52921e-98
3.60899e-98
3.48257e-98
3.71151e-98
3.55608e-98
3.62948e-98
3.67689e-98
3.53768e-98
3.61901e-98
3.63573e-98
3.03222e-98
3.02109e-98
2.97661e-98
3.04284e-98
3.11284e-98
3.09251e-98
3.04449e-98
2.9688e-98
3.09698e-98
2.99439e-98
3.08285e-98
3.08247e-98
3.04201e-98
3.10355e-98
3.12815e-98
3.15193e-98
3.0588e-98
3.15153e-98
3.10781e-98
3.20959e-98
2.31503e-98
2.34477e-98
2.31992e-98
2.30781e-98
2.38471e-98
2.34319e-98
2.42905e-98
2.34378e-98
2.43054e-98
2.421e-98
2.3785e-98
2.45467e-98
2.34773e-98
2.46307e-98
2.37495e-98
2.36412e-98
2.42362e-98
2.45337e-98
2.4005e-98
2.49964e-98
3.23563e-116
3.2488e-116
3.33954e-116
3.1646e-116
3.29068e-116
3.27316e-116
3.26733e-116
3.1828e-116
3.1642e-116
3.33236e-116
3.15493e-116
3.3402e-116
3.15628e-116
3.28949e-116
3.13096e-116
3.30992e-116
3.08136e-116
3.20359e-116
3.26791e-116
3.04374e-116
5.73145e-113
5.74962e-113
5.91269e-113
5.60112e-113
5.82545e-113
5.79303e-113
5.78213e-113
5.63099e-113
5.60072e-113
5.89648e-113
5.58511e-113
5.91168e-113
5.587e-113
5.82217e-113
5.54396e-113
5.85975e-113
5.45507e-113
5.66984e-113
5.78396e-113
5.38719e-113
5.17087e-110
5.18238e-110
5.33212e-110
5.04914e-110
5.25258e-110
5.22227e-110
5.21162e-110
5.07379e-110
5.04859e-110
5.3143e-110
5.03538e-110
5.32898e-110
5.03681e-110
5.24864e-110
4.99984e-110
5.28371e-110
4.91796e-110
5.11075e-110
5.21411e-110
4.85544e-110
2.73314e-107
2.73651e-107
2.81738e-107
2.66657e-107
2.77476e-107
2.75832e-107
2.75206e-107
2.67832e-107
2.66592e-107
2.80628e-107
2.6595e-107
2.81443e-107
2.66024e-107
2.77227e-107
2.64181e-107
2.79139e-107
2.59718e-107
2.69897e-107
2.75395e-107
2.56334e-107
9.89282e-105
9.89408e-105
1.01957e-104
9.6433e-105
1.00383e-104
9.97792e-105
9.95157e-105
9.68056e-105
9.63772e-105
1.01491e-104
9.61717e-105
1.01791e-104
9.62056e-105
1.00281e-104
9.55898e-105
1.00991e-104
9.389e-105
9.75988e-105
9.96134e-105
9.26286e-105
2.52393e-102
2.52108e-102
2.60132e-102
2.45794e-102
2.55998e-102
2.54464e-102
2.53645e-102
2.46595e-102
2.45506e-102
2.58776e-102
2.45075e-102
2.59528e-102
2.45214e-102
2.55733e-102
2.43815e-102
2.57583e-102
2.39127e-102
2.48763e-102
2.54006e-102
2.35777e-102
4.30481e-100
4.29308e-100
4.4395e-100
4.18771e-100
4.36545e-100
4.34044e-100
4.32192e-100
4.19804e-100
4.17773e-100
4.41328e-100
4.17288e-100
4.42462e-100
4.17737e-100
4.36161e-100
4.15805e-100
4.39338e-100
4.06676e-100
4.23854e-100
4.33134e-100
4.00613e-100
4.83949e-98
4.81481e-98
5.00111e-98
4.70158e-98
4.90977e-98
4.88595e-98
4.85448e-98
4.70753e-98
4.67754e-98
4.9679e-98
4.67753e-98
4.97538e-98
4.68858e-98
4.90909e-98
4.67652e-98
4.94354e-98
4.54543e-98
4.76039e-98
4.87303e-98
4.47012e-98
1.91517e-96
1.91512e-96
1.94604e-96
1.85866e-96
1.92704e-96
1.90194e-96
1.91112e-96
1.86715e-96
1.87592e-96
1.92919e-96
1.86791e-96
1.94722e-96
1.85735e-96
1.91496e-96
1.83541e-96
1.93579e-96
1.84869e-96
1.87811e-96
1.90448e-96
1.83233e-96
2.00169e-96
2.01593e-96
1.99856e-96
1.94342e-96
1.99804e-96
1.95549e-96
1.98989e-96
1.9609e-96
1.99341e-96
1.97928e-96
1.9743e-96
2.01526e-96
1.94637e-96
1.97185e-96
1.90294e-96
2.00167e-96
1.99296e-96
1.95894e-96
1.966e-96
1.99179e-96
2.80314e-96
2.86783e-96
2.84912e-96
2.84671e-96
2.80644e-96
2.84347e-96
2.89479e-96
2.83991e-96
2.90546e-96
2.93594e-96
2.8794e-96
2.93491e-96
2.85846e-96
2.82112e-96
2.80124e-96
2.85891e-96
2.83247e-96
2.82096e-96
2.8278e-96
2.86167e-96
3.37032e-96
3.40981e-96
3.41142e-96
3.40117e-96
3.34195e-96
3.27303e-96
3.32374e-96
3.25924e-96
3.35874e-96
3.49643e-96
3.4602e-96
3.3426e-96
3.42056e-96
3.38952e-96
3.37043e-96
3.41296e-96
3.25855e-96
3.4163e-96
3.36162e-96
3.36041e-96
3.7688e-96
3.91498e-96
3.84071e-96
3.83992e-96
3.81615e-96
3.88141e-96
4.00581e-96
3.83273e-96
3.85737e-96
3.83221e-96
3.84066e-96
3.82685e-96
3.81631e-96
3.78277e-96
3.70601e-96
3.81278e-96
3.84668e-96
3.76075e-96
3.73861e-96
3.77222e-96
4.06934e-96
4.12084e-96
4.20537e-96
4.22372e-96
4.16447e-96
4.26248e-96
4.16371e-96
4.22606e-96
4.21968e-96
4.00967e-96
4.07858e-96
4.05421e-96
4.09783e-96
3.99409e-96
4.02249e-96
4.02595e-96
4.05777e-96
4.10405e-96
4.074e-96
4.13698e-96
4.16861e-96
4.22278e-96
4.27121e-96
4.28333e-96
4.21207e-96
4.21497e-96
4.24059e-96
4.32151e-96
4.17815e-96