/*--------------------------------*- C++ -*----------------------------------*\
| =========                 |                                                 |
| \\      /  F ield         | OpenFOAM: The Open Source CFD Toolbox           |
|  \\    /   O peration     | Version:  2212                                  |
|   \\  /    A nd           | Website:  www.openfoam.com                      |
|    \\/     M anipulation  |                                                 |
\*---------------------------------------------------------------------------*/
FoamFile
{
    version     2.0;
    format      ascii;
    arch        "LSB;label=32;scalar=64";
    class       volScalarField;
    location    "0.012";
    object      p;
}
// * * * * * * * * * * * * * * * * * * * * * * * * * * * * * * * * * * * * * //

dimensions      [1 -1 -2 0 0 0 0];

internalField   nonuniform List<scalar> 
44662
(
596.133
625.707
625.802
625.764
625.782
600.297
599.064
600.521
626.884
610.844
599.979
628.718
599.17
627.333
628.468
628.604
629.001
629.194
614.284
598.601
607.621
629.02
602.738
617.066
609.846
620.676
599.147
601.167
592.955
601.334
601.812
605.603
601.876
601.118
608.701
616.712
628.645
628.728
616.862
627.436
627.583
628.435
601.211
622.989
604.081
598.362
603.602
618.019
611.865
622.961
626.227
603.375
625.769
601.947
611.319
598.853
626.836
600.901
600.215
600.343
599.669
601.939
613.364
625.811
609.895
600.007
600.198
599.913
624.568
601.969
601.807
600.401
616.906
600.129
601.844
627.695
601.274
600.254
600.438
600.129
598.459
601.72
626.442
601.933
598.432
626.827
601.599
625.766
608.188
599.29
601.394
601.475
619.739
601.111
604.011
607.007
600.713
604.128
606.219
623.433
587.506
625.902
599.464
600.354
599.18
601.192
599.182
599.004
625.266
593.108
599.19
627.16
625.92
618.399
600.917
599.221
600.511
626.657
601.683
599.206
627.437
599.364
600.981
599.212
599.483
626.207
599.22
599.592
626.189
599.243
599.693
601.247
600.23
600.759
599.277
599.787
600.912
600.915
599.31
599.882
601.054
599.345
601.579
601.405
599.387
626.241
626.48
626.533
626.242
624.098
627.349
626.082
599.594
600.975
626.323
626.228
627.378
587.217
586.933
586.649
586.363
586.076
585.788
585.498
585.206
584.911
584.613
584.311
584.006
583.696
583.383
583.066
582.745
582.419
582.089
581.754
581.414
581.069
580.719
580.364
580.003
579.637
579.265
578.888
578.504
578.115
577.72
577.317
576.909
576.494
576.072
575.642
575.206
574.762
574.311
573.852
573.386
572.911
572.429
571.938
571.439
570.931
570.414
569.888
569.352
568.804
569.357
568.81
569.893
601.899
587.497
587.211
587.49
568.245
567.675
567.681
568.251
570.936
570.419
571.942
571.443
572.915
572.433
573.856
573.389
574.765
574.314
575.646
575.209
576.497
576.075
577.321
576.912
578.118
577.722
578.89
578.507
579.64
579.268
580.366
580.006
581.072
580.722
581.756
581.417
582.422
582.091
583.069
582.748
583.699
583.386
584.314
584.009
584.915
584.616
585.502
585.209
586.08
585.791
586.654
586.367
586.939
586.645
586.929
586.075
586.361
585.498
585.788
584.911
585.206
584.311
584.613
583.697
584.006
583.066
583.383
582.419
582.744
581.753
582.088
581.068
581.413
580.363
580.718
579.636
580.002
578.886
579.264
578.114
578.503
577.317
577.719
576.494
576.909
575.643
576.072
574.762
575.206
573.852
574.311
572.911
573.385
571.938
572.428
570.93
571.438
569.885
570.412
568.8
569.348
567.672
568.242
569.363
568.817
569.898
601.87
601.855
587.206
587.483
567.099
567.689
567.107
567.672
567.092
567.092
587.765
587.774
568.259
570.94
570.423
571.947
571.448
572.919
572.437
573.86
573.393
574.77
574.318
575.65
575.213
576.501
576.079
577.324
576.916
578.122
577.726
578.894
578.511
579.643
579.272
580.37
580.01
581.075
580.726
581.76
581.42
582.426
582.095
583.073
582.752
583.703
583.39
584.318
584.013
584.919
584.62
585.506
585.214
586.085
585.796
586.659
586.372
586.944
592.73
567.094
586.644
586.927
586.075
586.361
585.499
585.788
584.912
585.207
584.312
584.614
583.697
584.007
583.067
583.384
582.419
582.745
581.754
582.089
581.069
581.414
580.364
580.719
579.636
580.003
578.887
579.264
578.114
578.504
577.318
577.719
576.495
576.91
575.643
576.073
574.763
575.207
573.853
574.312
572.912
573.386
571.938
572.429
570.93
571.439
569.886
570.413
568.801
569.348
568.242
587.758
567.118
567.699
569.37
568.825
569.904
566.5
566.502
587.779
588.029
588.037
588.045
566.525
567.13
566.538
588.304
588.296
568.268
570.946
570.43
571.952
571.453
572.924
572.442
573.865
573.398
574.774
574.323
575.654
575.218
576.506
576.084
577.329
576.921
578.127
577.731
578.899
578.516
579.648
579.277
580.375
580.015
581.08
580.731
581.765
581.425
582.431
582.1
583.078
582.757
583.709
583.395
584.324
584.018
584.924
584.626
585.512
585.22
586.091
585.802
586.664
586.378
610.508
586.948
566.507
566.502
566.515
588.288
587.75
588.021
587.203
587.478
586.645
586.926
586.077
586.362
585.501
585.79
584.914
585.209
584.315
584.616
583.7
584.009
583.069
583.387
582.422
582.748
581.756
582.091
581.071
581.416
580.366
580.721
579.639
580.005
578.889
579.267
578.117
578.506
577.32
577.721
576.496
576.912
575.645
576.074
574.765
575.209
573.855
574.314
572.914
573.389
571.94
572.431
570.932
571.441
569.887
570.415
568.802
569.35
567.675
568.244
566.507
567.096
588.56
588.553
587.781
567.71
588.049
565.921
565.934
567.144
566.552
566.513
565.906
565.913
588.311
588.567
588.819
569.912
569.378
568.834
588.814
587.783
587.782
568.278
570.953
570.437
571.958
571.46
572.93
572.448
573.871
573.404
574.78
574.329
575.66
575.224
576.511
576.089
577.335
576.927
578.133
577.737
578.905
578.522
579.655
579.283
580.382
580.021
581.087
580.737
581.771
581.431
582.437
582.106
583.084
582.763
583.715
583.402
584.33
584.024
584.931
584.632
585.519
585.226
586.098
585.809
586.669
586.384
626.728
586.952
626.237
565.898
565.901
565.903
565.899
565.911
588.807
588.283
588.547
587.749
588.018
587.203
587.478
586.647
586.927
586.08
586.365
585.505
585.794
584.918
585.213
584.319
584.62
583.704
584.013
583.074
583.391
582.426
582.752
581.761
582.096
581.076
581.421
580.37
580.725
579.643
580.009
578.894
579.271
578.121
578.51
577.324
577.725
576.5
576.915
575.649
576.078
574.769
575.213
573.86
574.318
572.918
573.393
571.944
572.436
570.936
571.445
569.891
570.418
568.806
569.353
567.681
568.249
567.103
589.072
589.065
588.052
567.722
569.387
568.843
569.921
565.949
565.294
565.301
587.782
588.053
588.053
588.317
588.574
588.827
589.077
589.327
589.321
588.053
568.288
570.96
570.445
571.966
571.467
572.938
572.456
573.878
573.412
574.787
574.336
575.667
575.231
576.518
576.096
577.342
576.934
578.14
577.744
578.913
578.529
579.662
579.29
580.389
580.028
581.094
580.744
581.779
581.439
582.444
582.114
583.092
582.77
583.723
583.409
584.338
584.032
584.939
584.64
585.527
585.234
586.105
585.817
586.674
586.391
587.234
586.955
587.509
565.285
565.288
565.29
565.286
565.307
565.297
565.333
565.319
589.318
588.806
589.063
588.283
588.546
587.75
588.018
587.205
587.479
586.651
586.929
586.086
586.37
585.511
585.799
584.924
585.219
584.325
584.626
583.71
584.02
583.08
583.397
582.432
582.758
581.767
582.102
581.082
581.427
580.376
580.731
579.649
580.015
578.9
579.277
578.127
578.516
577.329
577.731
576.506
576.921
575.655
576.084
574.775
575.219
573.866
574.324
572.925
573.399
571.951
572.442
570.942
571.451
569.897
570.424
568.813
569.36
567.688
568.256
566.521
567.11
565.31
565.921
589.574
589.571
588.321
588.322
588.32
567.157
566.567
567.735
588.58
564.706
565.35
564.722
565.32
564.687
564.698
588.318
588.587
588.584
588.834
589.084
589.331
589.58
589.825
568.854
569.397
569.931
589.821
588.321
565.965
568.3
570.97
570.455
571.975
571.476
572.947
572.465
573.886
573.421
574.796
574.345
575.675
575.239
576.527
576.104
577.35
576.942
578.148
577.752
578.921
578.537
579.67
579.299
580.397
580.037
581.103
580.753
581.788
581.448
582.453
582.123
583.101
582.779
583.732
583.418
584.347
584.041
584.948
584.649
585.536
585.243
586.113
585.825
586.68
586.397
587.236
586.959
587.782
587.511
588.05
564.671
564.678
564.662
564.665
564.665
564.662
564.681
564.671
564.693
589.819
589.318
589.57
588.807
589.064
588.285
588.547
587.752
588.02
587.208
587.481
586.657
586.934
586.093
586.377
585.519
585.807
584.932
585.227
584.333
584.634
583.718
584.028
583.088
583.405
582.44
582.766
581.774
582.11
581.089
581.434
580.384
580.739
579.657
580.023
578.907
579.285
578.134
578.524
577.337
577.739
576.513
576.928
575.662
576.091
574.783
575.226
573.873
574.332
572.933
573.407
571.959
572.45
570.95
571.459
569.905
570.432
568.822
569.368
567.698
568.265
566.531
567.12
565.931
590.069
590.065
588.587
588.584
567.172
566.583
567.749
569.409
568.866
569.942
565.367
564.739
564.052
564.063
588.853
588.853
588.84
589.092
589.338
589.581
589.829
590.073
590.314
590.308
588.586
565.981
568.313
570.981
570.466
571.985
571.487
572.957
572.475
573.896
573.43
574.805
574.355
575.685
575.249
576.536
576.114
577.36
576.951
578.158
577.762
578.931
578.547
579.68
579.308
580.407
580.046
581.113
580.762
581.798
581.458
582.464
582.133
583.111
582.79
583.742
583.429
584.357
584.052
584.958
584.659
585.546
585.254
586.122
585.835
586.687
586.405
587.24
586.965
587.783
587.513
588.312
588.049
588.839
588.574
589.124
589.095
564.036
564.043
564.026
564.03
564.029
564.026
564.044
564.035
564.068
564.055
564.1
564.083
590.308
589.82
590.066
589.32
589.571
588.809
589.066
588.288
588.55
587.756
588.024
587.214
587.487
586.664
586.941
586.102
586.385
585.528
585.817
584.942
585.237
584.343
584.644
583.728
584.037
583.097
583.415
582.45
582.776
581.784
582.119
581.098
581.444
580.393
580.748
579.666
580.032
578.916
579.294
578.143
578.533
577.346
577.748
576.522
576.937
575.672
576.1
574.792
575.236
573.883
574.341
572.942
573.417
571.968
572.46
570.96
571.469
569.915
570.442
568.832
569.379
567.709
568.276
566.543
567.131
565.332
565.943
564.076
564.71
590.547
590.548
588.85
588.845
567.189
566.601
567.765
569.423
568.88
569.955
589.116
589.098
563.449
564.118
563.466
564.09
563.429
563.444
589.457
589.388
589.344
589.588
589.83
590.075
590.318
590.557
590.782
590.784
588.848
565.385
564.758
565.999
568.328
570.993
570.478
571.997
571.499
572.968
572.486
573.907
573.441
574.817
574.366
575.696
575.26
576.547
576.125
577.371
576.962
578.169
577.773
578.942
578.558
579.691
579.319
580.418
580.057
581.124
580.774
581.809
581.469
582.475
582.145
583.123
582.801
583.754
583.441
584.369
584.064
584.97
584.672
585.558
585.266
586.132
585.847
586.695
586.415
587.246
586.972
587.785
587.517
588.312
588.051
588.82
588.569
589.284
589.06
589.695
589.739
589.509
563.406
563.417
563.389
563.396
563.379
563.383
563.381
563.378
563.396
563.387
563.419
563.406
563.433
591.215
590.787
591.007
591.01
590.311
590.551
589.823
590.068
589.324
589.575
588.814
589.07
588.294
588.555
587.764
588.03
587.224
587.495
586.673
586.95
586.113
586.395
585.54
585.828
584.954
585.248
584.354
584.656
583.74
584.049
583.109
583.426
582.461
582.787
581.795
582.13
581.109
581.454
580.404
580.759
579.677
580.043
578.927
579.305
578.154
578.544
577.356
577.758
576.533
576.948
575.682
576.111
574.803
575.246
573.894
574.352
572.953
573.428
571.98
572.471
570.972
571.48
569.927
570.454
568.845
569.391
567.722
568.288
566.556
567.144
565.346
565.957
564.724
589.11
589.103
567.206
566.619
567.781
564.137
563.485
562.77
562.785
589.373
589.351
589.651
589.594
589.973
589.934
589.836
590.075
590.319
590.559
590.795
591.014
591.231
591.366
591.423
568.897
569.439
569.97
589.106
565.404
564.777
566.018
568.345
571.007
570.493
572.01
571.512
572.981
572.499
573.92
573.454
574.829
574.379
575.709
575.273
576.56
576.138
577.384
576.975
578.182
577.786
578.954
578.571
579.704
579.332
580.431
580.07
581.137
580.786
581.822
581.482
582.488
582.158
583.136
582.815
583.768
583.454
584.383
584.077
584.984
584.685
585.571
585.279
586.145
585.86
586.705
586.426
587.253
586.981
587.791
587.523
588.316
588.055
588.822
588.572
589.306
589.066
589.775
589.541
590.206
590.241
590.008
562.747
562.758
562.73
562.737
562.719
562.723
562.722
562.719
562.735
562.727
562.757
562.745
562.785
562.77
562.821
562.802
590.803
591.042
590.316
590.558
589.829
590.074
589.33
589.581
588.822
589.077
588.303
588.563
587.774
588.04
587.235
587.506
586.685
586.961
586.126
586.407
585.553
585.841
584.967
585.262
584.367
584.669
583.753
584.062
583.122
583.439
582.474
582.8
581.807
582.143
581.122
581.467
580.416
580.772
579.689
580.055
578.939
579.317
578.166
578.556
577.369
577.771
576.545
576.96
575.695
576.123
574.816
575.259
573.907
574.365
572.966
573.441
571.993
572.484
570.986
571.494
569.941
570.468
568.859
569.405
567.736
568.303
566.572
567.159
565.362
565.973
564.107
564.741
562.802
563.461
589.366
589.356
567.225
566.639
567.8
569.456
568.915
569.988
589.629
589.6
562.145
562.843
562.166
562.821
562.131
562.15
589.901
589.841
590.173
590.081
590.471
590.438
590.319
590.56
590.796
591.027
591.241
591.452
591.587
591.636
589.36
564.159
563.507
565.426
564.799
566.039
568.363
571.023
570.51
572.025
571.528
572.996
572.514
573.935
573.469
574.844
574.393
575.723
575.287
576.574
576.152
577.398
576.989
578.196
577.8
578.969
578.585
579.718
579.346
580.445
580.084
581.151
580.801
581.837
581.496
582.503
582.172
583.151
582.829
583.783
583.469
584.398
584.092
584.999
584.701
585.586
585.295
586.159
585.875
586.719
586.44
587.265
586.993
587.8
587.534
588.323
588.063
588.833
588.58
589.326
589.081
589.805
589.567
590.274
590.041
590.7
590.734
590.505
562.099
562.114
562.075
562.086
562.058
562.066
562.047
562.052
562.049
562.047
562.062
562.054
562.083
562.071
562.11
562.095
562.126
591.806
591.767
591.305
591.541
590.817
591.061
590.326
590.571
589.837
590.082
589.34
589.59
588.833
589.087
588.314
588.575
587.787
588.052
587.248
587.519
586.7
586.975
586.14
586.421
585.568
585.855
584.982
585.276
584.382
584.684
583.767
584.077
583.136
583.454
582.488
582.814
581.821
582.157
581.136
581.481
580.43
580.786
579.703
580.069
578.953
579.331
578.18
578.57
577.383
577.785
576.559
576.974
575.709
576.138
574.83
575.273
573.921
574.379
572.981
573.455
572.008
572.499
571.001
571.509
569.957
570.484
568.875
569.421
567.753
568.32
566.589
567.177
565.38
565.99
564.125
564.759
563.48
589.618
589.605
567.247
566.66
567.821
569.476
568.935
570.007
562.866
562.19
561.446
561.466
589.88
589.847
590.145
590.086
590.409
590.324
590.668
590.56
590.96
590.926
590.797
591.029
591.255
591.466
591.663
591.984
591.849
592.021
592.182
592.191
592.376
589.61
564.182
563.53
565.449
564.822
566.061
568.383
571.042
570.528
572.043
571.546
573.013
572.532
573.952
573.486
574.86
574.41
575.739
575.303
576.59
576.168
577.414
577.005
578.211
577.816
578.984
578.601
579.734
579.362
580.461
580.1
581.167
580.817
581.853
581.512
582.519
582.188
583.168
582.846
583.799
583.485
584.415
584.109
585.016
584.717
585.603
585.312
586.176
585.892
586.734
586.457
587.279
587.008
587.814
587.548
588.337
588.077
588.849
588.595
589.347
589.099
589.833
589.591
590.306
590.071
590.769
590.539
591.183
591.219
590.996
561.414
561.429
561.39
561.401
561.373
561.381
561.363
561.367
561.364
561.362
561.376
561.369
561.395
561.385
561.422
561.408
561.457
561.439
561.502
561.478
591.762
591.978
591.305
591.536
590.828
591.07
590.34
590.585
589.849
590.095
589.352
589.602
588.846
589.1
588.328
588.589
587.801
588.066
587.264
587.534
586.716
586.991
586.156
586.437
585.584
585.872
584.998
585.293
584.399
584.7
583.783
584.093
583.152
583.47
582.504
582.83
581.837
582.173
581.152
581.497
580.446
580.801
579.718
580.085
578.969
579.346
578.196
578.585
577.398
577.8
576.575
576.99
575.725
576.153
574.846
575.289
573.938
574.396
572.998
573.472
572.026
572.516
571.019
571.526
569.975
570.502
568.894
569.439
567.772
568.338
566.609
567.196
565.401
566.01
564.146
564.779
562.843
563.501
561.488
562.172
589.867
589.851
566.683
567.27
590.126
590.091
560.801
561.528
560.827
561.513
560.791
560.816
590.384
590.329
590.641
590.564
590.896
590.797
591.15
591.031
591.439
591.403
591.261
591.482
591.686
591.874
626.576
626.212
592.059
592.232
592.396
592.512
614.435
568.958
592.565
569.497
589.858
562.892
562.216
564.208
563.556
565.473
564.847
566.085
567.844
568.407
571.062
570.027
570.549
572.063
571.566
573.032
572.551
573.97
573.505
574.878
574.428
575.757
575.321
576.607
576.185
577.431
577.023
578.229
577.833
579.002
578.618
579.751
579.379
580.478
580.117
581.185
580.834
581.87
581.53
582.537
582.206
583.186
582.864
583.817
583.503
584.433
584.127
585.035
584.736
585.622
585.33
586.194
585.91
586.752
586.475
587.297
587.026
587.831
587.565
588.355
588.094
588.867
588.612
589.369
589.119
589.858
589.615
590.336
590.099
590.803
590.571
591.257
591.032
591.656
591.697
591.479
560.749
560.769
560.716
560.731
560.692
560.703
560.675
560.683
560.665
560.669
560.665
560.664
560.677
560.67
560.696
560.685
560.722
560.708
560.757
560.738
560.778
591.766
591.983
591.311
591.541
590.838
591.077
590.356
590.598
589.865
590.111
589.367
589.617
588.861
589.115
588.345
588.604
587.818
588.082
587.281
587.551
586.733
587.009
586.174
586.455
585.602
585.89
585.017
585.311
584.417
584.718
583.801
584.111
583.17
583.488
582.521
582.848
581.855
582.19
581.169
581.514
580.463
580.818
579.736
580.102
578.986
579.364
578.213
578.603
577.416
577.818
576.592
577.007
575.742
576.171
574.864
575.307
573.956
574.414
573.017
573.49
572.045
572.535
571.038
571.546
569.995
570.521
568.914
569.46
567.794
568.359
566.63
567.217
565.423
566.033
564.17
564.802
562.867
563.524
562.197
590.113
590.096
561.557
560.857
599.598
560.08
560.106
590.367
590.333
590.62
590.568
590.871
590.799
591.122
591.03
591.372
591.262
591.622
591.49
591.906
591.869
591.705
591.902
592.083
592.267
592.438
592.602
592.755
592.862
593.6
592.321
598.628
590.103
562.92
562.244
564.235
563.584
565.498
564.873
566.709
566.11
567.87
567.296
568.981
568.431
570.049
569.52
571.083
570.57
572.083
571.587
573.052
572.572
573.99
573.525
574.898
574.448
575.776
575.341
576.627
576.205
577.45
577.042
578.248
577.852
579.021
578.637
579.77
579.398
580.498
580.137
581.204
580.853
581.89
581.549
582.556
582.225
583.205
582.883
583.837
583.523
584.453
584.147
585.055
584.756
585.642
585.35
586.214
585.93
586.772
586.495
587.316
587.045
587.85
587.585
588.374
588.114
588.888
588.632
589.391
589.14
589.883
589.638
590.365
590.125
590.835
590.601
591.294
591.066
591.751
591.521
592.498
592.726
591.979
593.821
592.739
594.042
560.037
560.058
560.005
560.02
559.98
559.992
559.963
559.971
559.953
559.957
559.953
559.952
559.964
559.958
559.983
559.973
560.008
559.994
560.043
560.024
560.088
560.064
560.144
560.114
591.777
591.999
591.321
591.551
590.85
591.087
590.372
590.613
589.882
590.128
589.384
589.634
588.878
589.132
588.363
588.622
587.837
588.101
587.301
587.57
586.753
587.028
586.194
586.475
585.622
585.909
585.036
585.331
584.436
584.738
583.821
584.131
583.189
583.507
582.541
582.867
581.874
582.21
581.188
581.533
580.482
580.837
579.754
580.121
579.005
579.383
578.232
578.621
577.435
577.837
576.612
577.027
575.762
576.19
574.884
575.326
573.976
574.434
573.037
573.511
572.066
572.556
571.06
571.567
570.017
570.543
568.937
569.482
567.817
568.382
566.655
567.241
565.448
566.057
564.195
564.828
562.894
563.551
561.541
562.224
560.134
560.844
592.755
590.354
590.338
590.604
590.572
559.417
560.176
559.45
560.165
559.41
559.442
590.852
590.803
591.1
591.032
591.346
591.262
591.593
591.491
591.838
591.714
592.083
591.922
592.114
626.628
592.291
594.025
592.474
592.641
592.943
593.04
592.973
593.247
593.197
592.807
593.411
593.17
593.389
590.345
561.588
560.888
562.951
562.275
564.264
563.614
565.527
564.902
566.738
566.139
567.896
567.324
569.005
568.456
570.072
569.543
571.105
570.593
572.106
571.609
573.075
572.594
574.013
573.547
574.92
574.47
575.798
575.363
576.648
576.226
577.471
577.063
578.269
577.873
579.042
578.658
579.791
579.419
580.518
580.157
581.225
580.874
581.911
581.57
582.577
582.246
583.226
582.904
583.858
583.544
584.475
584.168
585.077
584.777
585.664
585.372
586.236
585.952
586.793
586.516
587.338
587.067
587.872
587.606
588.395
588.135
588.909
588.654
589.413
589.162
589.907
589.662
590.391
590.151
590.865
590.629
591.328
591.097
591.789
591.558
592.265
592.023
593.836
559.355
559.381
559.312
559.332
559.279
559.294
559.255
559.266
559.238
559.246
559.228
559.232
559.228
559.226
559.238
559.232
559.256
559.246
559.282
559.268
559.317
559.298
559.361
559.338
559.388
592.707
592.941
592.251
592.476
591.798
592.025
591.337
591.569
590.867
591.104
590.39
590.63
589.902
590.147
589.404
589.654
588.899
589.152
588.383
588.642
587.858
588.122
587.322
587.591
586.774
587.05
586.215
586.496
585.643
585.931
585.058
585.352
584.458
584.759
583.842
584.152
583.21
583.528
582.562
582.888
581.895
582.231
581.209
581.554
580.502
580.858
579.775
580.141
579.026
579.403
578.253
578.642
577.456
577.857
576.633
577.048
575.783
576.212
574.906
575.348
573.998
574.456
573.06
573.533
572.089
572.578
571.083
571.59
570.042
570.567
568.962
569.507
567.843
568.408
566.681
567.267
565.476
566.084
564.224
564.856
562.923
563.58
561.571
562.254
560.875
590.592
590.577
592.109
560.211
559.485
558.671
558.703
590.838
590.808
591.082
591.036
591.326
591.264
591.569
591.491
591.811
591.716
593.6
593.62
592.053
591.935
592.293
592.136
592.514
592.324
593.452
592.746
592.498
593.31
626.08
592.679
599.304
592.84
593.009
593.806
593.602
593.807
590.584
561.622
560.923
562.984
562.309
564.296
563.646
565.559
564.934
566.768
566.17
567.923
567.353
569.03
568.482
570.097
569.569
571.13
570.618
572.13
571.634
573.099
572.618
574.037
573.572
574.944
574.494
575.822
575.386
576.671
576.25
577.494
577.086
578.292
577.896
579.064
578.681
579.814
579.442
580.541
580.18
581.247
580.897
581.933
581.593
582.6
582.269
583.249
582.927
583.881
583.567
584.498
584.191
585.1
584.801
585.687
585.395
586.259
585.975
586.816
586.54
587.361
587.09
587.895
587.629
588.418
588.158
588.932
588.677
589.437
589.186
589.931
589.685
590.417
590.175
590.892
590.655
591.358
591.126
591.817
591.588
592.274
592.046
592.502
558.616
558.642
558.573
558.593
558.539
558.555
558.515
558.526
558.499
558.506
558.489
558.493
558.488
558.487
558.499
558.492
558.516
558.506
558.541
558.527
558.576
558.557
558.621
558.597
558.677
558.647
558.746
558.71
593.171
593.39
592.723
592.947
592.275
592.498
591.82
592.048
591.358
591.591
590.888
591.124
590.41
590.65
589.923
590.168
589.426
589.676
588.921
589.175
588.405
588.664
587.88
588.144
587.345
587.614
586.797
587.073
586.238
586.519
585.666
585.954
585.081
585.375
584.48
584.782
583.865
584.175
583.233
583.551
582.584
582.911
581.917
582.253
581.231
581.577
580.525
580.881
579.798
580.164
579.048
579.426
578.276
578.665
577.479
577.88
576.656
577.071
575.807
576.235
574.929
575.372
574.023
574.48
573.085
573.558
572.114
572.604
571.109
571.616
570.069
570.594
568.99
569.534
567.871
568.436
566.711
567.296
565.506
566.114
564.255
564.886
562.955
563.611
561.604
562.286
560.2
560.909
558.739
559.476
590.827
590.813
591.069
591.041
557.992
558.785
558.032
558.777
557.986
558.025
591.31
591.267
591.55
591.493
594.007
594.005
591.789
591.716
593.822
592.028
591.938
592.266
592.152
592.494
592.349
593.649
592.732
592.533
593.495
592.944
592.703
593.37
602.126
606.162
592.882
593.034
593.209
594.201
594.013
594.207
590.819
560.249
559.524
561.659
560.961
563.019
562.345
564.331
563.681
565.592
564.968
566.799
566.202
567.952
567.382
569.058
568.51
570.126
569.597
571.158
570.646
572.157
571.661
573.126
572.646
574.063
573.599
574.97
574.52
575.847
575.412
576.697
576.275
577.52
577.111
578.317
577.921
579.089
578.706
579.838
579.466
580.565
580.204
581.271
580.921
581.958
581.617
582.625
582.293
583.274
582.951
583.906
583.592
584.522
584.216
585.125
584.825
585.712
585.42
586.284
586
586.841
586.565
587.385
587.115
587.919
587.653
588.443
588.182
588.957
588.701
589.461
589.21
589.956
589.71
590.442
590.2
590.918
590.681
591.385
591.153
591.844
591.615
592.297
592.071
592.746
592.522
593.185
592.967
593.613
593.401
557.918
557.95
557.862
557.889
557.819
557.839
557.785
557.801
557.761
557.772
557.744
557.752
557.735
557.739
557.735
557.734
557.744
557.738
557.761
557.752
557.787
557.773
557.821
557.803
557.866
557.842
557.923
557.893
557.956
593.607
593.813
593.178
593.394
592.74
592.959
592.295
592.518
591.842
592.07
591.381
591.613
590.911
591.147
590.432
590.673
589.946
590.19
589.45
589.699
588.944
589.198
588.429
588.688
587.904
588.168
587.369
587.638
586.822
587.097
586.263
586.544
585.691
585.978
585.105
585.4
584.505
584.807
583.889
584.199
583.258
583.576
582.609
582.935
581.941
582.277
581.255
581.601
580.549
580.905
579.822
580.188
579.073
579.45
578.3
578.689
577.503
577.905
576.681
577.096
575.832
576.26
574.955
575.397
574.049
574.506
573.112
573.584
572.142
572.631
571.138
571.644
570.098
570.622
569.02
569.564
567.902
568.466
566.743
567.328
565.539
566.146
564.289
564.92
562.99
563.646
561.641
562.322
560.237
560.946
559.514
591.06
591.046
558.828
558.075
593.628
594.657
557.219
557.258
591.298
591.271
594.395
594.389
591.536
591.496
594.2
591.772
591.718
594.018
592.008
591.938
592.243
592.157
592.476
592.366
593.844
592.707
592.559
593.683
592.934
592.738
593.549
593.151
592.906
599.398
593.082
593.224
593.408
593.807
594.462
591.052
560.291
559.567
561.699
561.002
563.058
562.385
564.368
563.719
565.627
565.004
566.832
566.236
567.983
567.414
569.09
568.542
570.157
569.628
571.188
570.677
572.187
571.692
573.155
572.675
574.092
573.628
574.998
574.549
575.875
575.44
576.724
576.303
577.546
577.139
578.343
577.948
579.116
578.732
579.864
579.493
580.592
580.231
581.298
580.947
581.984
581.643
582.651
582.32
583.3
582.977
583.932
583.618
584.549
584.242
585.151
584.852
585.739
585.447
586.311
586.027
586.868
586.591
587.412
587.141
587.945
587.68
588.469
588.208
588.983
588.727
589.487
589.236
589.982
589.736
590.468
590.227
590.945
590.708
591.412
591.18
591.871
591.643
592.322
592.097
592.767
592.545
593.202
592.986
593.416
557.15
557.183
557.094
557.12
557.05
557.07
557.016
557.032
556.992
557.003
556.975
556.983
556.967
556.97
556.966
556.965
556.975
556.969
556.992
556.982
557.017
557.003
557.051
557.033
557.097
557.073
557.153
557.124
557.223
557.187
557.307
557.264
594.485
594.68
594.926
594.763
594.577
594.407
594.59
594.022
594.217
593.616
593.822
593.192
593.406
592.758
592.976
592.317
592.538
591.866
592.092
591.404
591.636
590.935
591.171
590.457
590.697
589.97
590.215
589.475
589.724
588.97
589.224
588.455
588.714
587.93
588.194
587.395
587.664
586.848
587.123
586.289
586.57
585.717
586.005
585.131
585.426
584.531
584.833
583.916
584.225
583.284
583.602
582.635
582.961
581.967
582.303
581.281
581.627
580.575
580.931
579.848
580.214
579.099
579.476
578.327
578.716
577.53
577.932
576.708
577.123
575.86
576.288
574.984
575.425
574.078
574.534
573.141
573.613
572.172
572.661
571.169
571.675
570.129
570.654
569.052
569.596
567.936
568.499
566.777
567.362
565.575
566.182
564.326
564.956
563.029
563.684
561.68
562.361
560.278
560.986
558.819
559.556
557.301
558.068
594.818
594.751
591.289
591.277
594.571
591.525
591.5
556.524
557.355
556.572
557.348
556.519
556.566
594.388
591.759
591.721
594.208
591.993
591.939
592.225
592.156
592.456
592.372
594.036
592.685
592.578
593.872
592.914
592.767
593.732
593.137
592.941
593.357
593.106
599.461
593.278
593.594
593.424
593.794
594.01
594.243
594.226
595.053
595.089
594.922
594.442
599.409
591.282
558.874
558.122
560.336
559.612
561.743
561.046
563.1
562.427
564.407
563.759
565.664
565.042
566.867
566.272
568.018
567.449
569.125
568.577
570.191
569.662
571.222
570.71
572.22
571.725
573.187
572.708
574.123
573.659
575.029
574.58
575.905
575.47
576.753
576.332
577.576
577.168
578.372
577.977
579.144
578.761
579.893
579.521
580.62
580.259
581.326
580.975
582.012
581.671
582.679
582.348
583.328
583.005
583.96
583.646
584.576
584.27
585.179
584.879
585.767
585.475
586.339
586.055
586.896
586.619
587.439
587.169
587.973
587.707
588.496
588.236
589.01
588.755
589.515
589.264
590.01
589.764
590.496
590.254
590.973
590.736
591.44
591.208
591.899
591.671
592.349
592.125
592.791
592.571
593.224
593.009
593.647
593.437
594.06
593.855
594.263
556.436
556.476
556.366
556.399
556.31
556.336
556.265
556.286
556.231
556.247
556.207
556.218
556.191
556.198
556.182
556.186
556.182
556.181
556.191
556.185
556.207
556.198
556.232
556.218
556.267
556.248
556.312
556.288
556.369
556.339
556.44
556.402
556.48
594.433
594.628
594.042
594.239
593.634
593.84
593.212
593.425
592.78
592.997
592.34
592.561
591.89
592.116
591.43
591.661
590.961
591.197
590.483
590.723
589.997
590.241
589.502
589.75
588.997
589.251
588.482
588.741
587.958
588.221
587.422
587.691
586.876
587.15
586.317
586.598
585.745
586.032
585.159
585.454
584.559
584.861
583.943
584.253
583.311
583.629
582.662
582.989
581.995
582.331
581.309
581.655
580.603
580.959
579.876
580.242
579.127
579.504
578.355
578.744
577.559
577.96
576.738
577.152
575.89
576.317
575.014
575.455
574.109
574.565
573.173
573.645
572.204
572.693
571.202
571.707
570.164
570.687
569.088
569.63
567.972
568.535
566.815
567.399
565.614
566.22
564.366
564.996
563.07
563.724
561.723
562.403
560.322
561.029
558.865
559.601
558.114
594.747
591.517
591.504
599.464
557.406
556.624
555.721
555.768
594.569
591.749
591.725
594.395
591.981
591.943
592.211
592.159
592.44
592.371
594.225
592.667
592.583
594.06
592.895
592.786
593.917
593.12
592.972
593.341
593.142
593.561
593.303
593.78
593.468
593.779
593.995
593.621
594.209
594.423
595.235
595.241
595.419
617.207
625.78
594.636
595.41
595.246
595.089
594.92
591.51
558.924
558.173
560.384
559.661
561.789
561.093
563.144
562.473
564.45
563.803
565.704
565.084
566.906
566.311
568.057
567.488
569.162
568.615
570.227
569.699
571.257
570.746
572.255
571.76
573.222
572.742
574.157
573.693
575.061
574.613
575.937
575.503
576.785
576.364
577.607
577.199
578.403
578.008
579.175
578.792
579.923
579.552
580.65
580.289
581.356
581.005
582.042
581.701
582.708
582.377
583.357
583.035
583.989
583.675
584.606
584.299
585.208