/*--------------------------------*- C++ -*----------------------------------*\
| =========                 |                                                 |
| \\      /  F ield         | OpenFOAM: The Open Source CFD Toolbox           |
|  \\    /   O peration     | Version:  2212                                  |
|   \\  /    A nd           | Website:  www.openfoam.com                      |
|    \\/     M anipulation  |                                                 |
\*---------------------------------------------------------------------------*/
FoamFile
{
    version     2.0;
    format      ascii;
    arch        "LSB;label=32;scalar=64";
    class       volVectorField;
    location    "0.0333";
    object      U;
}
// * * * * * * * * * * * * * * * * * * * * * * * * * * * * * * * * * * * * * //

dimensions      [0 1 -1 0 0 0 0];

internalField   nonuniform List<vector> 
2308
(
(23.9634 -17.2124 -7.44313e-16)
(-3.96942 -5.08798 0)
(1.08697 -41.9734 6.17746e-17)
(-17.2356 -34.1374 -2.29459e-16)
(-1.79645 50.2228 0)
(-14.0614 48.2505 -2.12546e-19)
(15.8513 53.642 2.66377e-19)
(16.2393 42.4532 -3.33343e-16)
(2.88447 45.1173 6.17492e-16)
(4.68835 74.3263 -6.76997e-17)
(4.78757 80.8889 1.2164e-16)
(2.8866 89.3265 -1.83221e-16)
(2.4669 92.3402 9.07107e-17)
(1.22274 94.1788 -4.61584e-17)
(0.386378 94.9309 8.00046e-18)
(-0.637467 94.2453 6.79436e-17)
(-1.27905 92.5063 9.62577e-18)
(0.93038 92.6191 2.14376e-17)
(1.08493 94.8217 2.84831e-17)
(0.900084 96.7891 2.08388e-18)
(0.687621 96.9587 1.54115e-17)
(0.578409 96.1929 -4.44972e-17)
(0.119841 94.1136 5.72928e-17)
(0.612483 90.5512 -2.61604e-17)
(0.138275 84.2546 -1.11309e-16)
(-1.87225 76.6823 -5.23906e-17)
(0.836239 68.1236 2.62559e-17)
(0.526116 58.9333 -2.86138e-17)
(9.67196 63.4918 0)
(-1.77778 89.9234 -1.97503e-16)
(0.537287 49.0936 1.50279e-18)
(0.64468 39.7257 3.7945e-19)
(0.882582 31.3641 -6.40971e-18)
(1.11441 24.4859 5.95563e-18)
(1.24965 19.2751 -6.25499e-18)
(1.28366 15.5657 5.80059e-18)
(1.28451 12.9619 -2.86027e-18)
(1.33414 11.0691 2.81154e-18)
(1.48919 9.58475 -2.77512e-18)
(1.72175 8.30773 1.35136e-18)
(1.97672 7.28382 2.68168e-18)
(2.15808 6.39649 3.97428e-18)
(2.20613 6.09497 -7.83401e-18)
(2.08787 5.51671 5.14871e-18)
(2.02012 6.11931 2.52621e-18)
(3.66836 5.96234 -2.53943e-18)
(3.72077 5.47865 2.57267e-18)
(3.76377 6.1116 -3.91688e-18)
(3.68506 6.53027 -4.30271e-18)
(3.5736 7.44668 6.74052e-18)
(3.51252 8.41559 -1.36791e-18)
(3.61021 9.54369 2.7777e-18)
(3.91521 10.8342 6.9942e-19)
(4.45801 12.4852 -4.3e-18)
(5.22366 14.8025 -1.45487e-18)
(6.15369 18.1402 2.95512e-18)
(7.09089 22.8528 0)
(7.86288 29.1547 -3.77094e-19)
(8.38574 36.9155 -1.25567e-17)
(8.7888 45.7028 -4.37976e-17)
(9.06934 54.916 5.27445e-17)
(8.54726 62.8152 5.48147e-17)
(10.4017 67.2302 6.41401e-17)
(8.39512 73.4465 -1.05632e-20)
(7.53389 77.6177 7.33374e-17)
(5.53755 82.0221 -1.37635e-16)
(3.69773 84.894 -3.18913e-17)
(1.48689 86.0471 0)
(-0.751139 86.6923 0)
(-2.59372 86.101 0)
(-4.10403 84.7909 0)
(1.65172 4.53144 -1.24814e-18)
(3.41216 4.51071 1.25059e-18)
(3.52088 90.1395 -9.80641e-17)
(2.19847 91.5341 -1.96592e-18)
(0.842382 92.3219 7.61039e-18)
(-0.589691 91.6099 0)
(-2.02495 89.507 -1.42055e-17)
(-2.92154 86.6594 -1.37527e-17)
(-4.16835 80.3366 6.80356e-18)
(-6.02207 72.7648 2.69576e-17)
(-6.20136 65.049 0)
(-6.5389 56.1972 9.98546e-21)
(-6.91169 47.0638 4.81251e-20)
(-6.8264 38.2076 -6.13435e-18)
(-6.13132 30.2365 9.06978e-18)
(-5.02445 23.675 1.34976e-20)
(-3.82325 18.7188 -5.14878e-18)
(-2.77324 15.1756 0)
(-1.91795 12.6411 -7.15178e-19)
(-1.21003 10.7309 4.22998e-18)
(-0.580851 9.20779 -5.54642e-18)
(-0.0383173 7.9441 -1.18024e-20)
(0.373939 7.01842 5.379e-18)
(0.594557 6.2855 0)
(0.607267 6.16149 5.21594e-18)
(0.425951 5.65125 -1.99048e-21)
(0.323922 6.40868 -2.53207e-18)
(1.74765 89.137 -8.59105e-17)
(-0.184205 4.63179 -2.49008e-18)
(-1.62068 86.7069 8.74972e-17)
(-5.10221 82.9785 3.50233e-20)
(5.0296 4.45999 -2.50766e-18)
(5.2082 5.88668 3.17818e-18)
(5.24244 5.51618 0)
(5.2154 6.21947 -9.81828e-19)
(5.12409 6.6697 2.33592e-18)
(5.09354 7.50407 2.70139e-18)
(5.20815 8.29812 -2.75425e-18)
(5.57035 9.17084 0)
(6.22195 10.1502 -7.07643e-19)
(7.21511 11.4139 1.44014e-18)
(8.5774 13.2213 -1.42937e-21)
(10.2689 15.8563 -1.48433e-18)
(12.1173 19.6272 0)
(13.7917 24.744 2.28307e-18)
(14.9668 31.1463 -9.23951e-18)
(15.4848 38.3724 -6.2185e-18)
(15.412 45.7222 2.57801e-17)
(15.0147 52.3002 9.68048e-17)
(14.8232 56.5946 7.3803e-18)
(12.5896 61.1568 7.12176e-17)
(10.16 64.7448 -3.26399e-17)
(7.14389 68.6067 0)
(4.31324 70.8273 0)
(1.37225 71.6388 0)
(-1.75586 72.0627 1.13275e-16)
(-4.64743 71.6738 -1.32359e-16)
(-7.04141 70.8096 1.37209e-16)
(21.1343 29.972 -2.67893e-16)
(-20.9272 34.2384 0)
(-13.7753 53.942 0)
(-17.0241 44.8157 0)
(8.14316 76.5755 1.99053e-16)
(7.21852 78.7822 5.53809e-17)
(4.52478 80.1081 -6.28075e-20)
(1.69664 80.6851 -9.19562e-19)
(-1.18436 80.2028 9.05976e-19)
(-3.74551 78.3944 7.08747e-18)
(-5.9938 75.774 -1.38386e-17)
(-8.37731 70.0726 -1.27612e-20)
(-10.9636 63.1422 0)
(-12.4391 56.2457 2.93847e-17)
(-13.4463 48.4435 1.90443e-17)
(-13.9642 40.3963 -3.12279e-18)
(-13.6992 32.6787 3.07e-18)
(-12.4774 25.9147 0)
(-10.5227 20.5159 0)
(-8.33846 16.5136 -3.69013e-19)
(-6.34786 13.6283 0)
(-4.72122 11.4945 2.14925e-18)
(-3.4208 9.82725 3.68391e-21)
(-2.39568 8.4842 -1.38795e-18)
(-1.62253 7.40626 0)
(-1.1182 6.71346 -1.34853e-18)
(-0.883868 6.21939 1.98987e-18)
(-0.871218 6.30034 -3.26618e-18)
(-1.03586 5.86877 0)
(-1.08969 6.77065 -5.05917e-18)
(-1.58418 4.92685 1.24525e-18)
(-1.45693 7.44267 -2.57154e-21)
(-0.105607 6.90258 0)
(1.74187 6.73851 -6.1389e-19)
(3.42497 6.77279 -1.99257e-18)
(12.336 46.0263 2.91656e-16)
(4.88028 6.79613 1.54039e-19)
(24.7171 16.0855 -8.48389e-16)
(27.52 -1.68903 -1.96398e-16)
(-5.55139 81.3634 0)
(16.114 26.8961 2.86003e-16)
(3.16158 54.5714 -5.8294e-16)
(3.10394 85.4633 3.5703e-17)
(-8.79841 69.6602 -2.09056e-16)
(-2.76913 2.94205 -1.21023e-18)
(-1.05793 2.1181 -1.21e-18)
(1.18077 2.25835 -1.51175e-19)
(3.2249 2.56047 2.42417e-18)
(4.91803 2.66989 1.51588e-19)
(6.42625 1.83909 0)
(6.25612 6.54546 1.23627e-18)
(6.46508 4.2801 2.515e-18)
(6.56824 5.8869 -6.36442e-19)
(6.54669 5.65256 -2.59622e-18)
(6.47592 6.39026 -2.96434e-18)
(6.39076 6.80209 4.02208e-18)
(6.43877 7.46849 1.3587e-18)
(6.68272 8.02088 -2.7683e-18)
(7.21033 8.58017 2.1083e-18)
(8.07328 9.17472 -6.24452e-19)
(9.32705 9.96475 0)
(11.0323 11.1285 0)
(13.2215 12.8451 0)
(15.7685 15.3022 3.02465e-18)
(18.2948 18.7034 -1.54353e-18)
(20.243 23.1167 7.74508e-21)
(21.2259 28.2831 -1.27512e-17)
(21.1957 33.6476 0)
(20.4357 38.5876 -1.37148e-17)
(18.9992 42.0875 1.44598e-17)
(16.0972 45.1026 3.00385e-17)
(12.6259 47.806 1.55227e-17)
(8.62073 50.5691 6.26321e-17)
(4.70219 52.163 -6.27677e-17)
(0.853594 52.6467 0)
(-3.14468 52.7913 1.59269e-17)
(-6.97706 52.6123 -3.23188e-17)
(-10.323 52.511 -6.62453e-17)
(13.1368 65.4642 3.25815e-17)
(14.7005 -12.2093 0)
(-6.20489 52.4464 -5.48934e-19)
(22.2188 28.2667 3.67747e-16)
(21.2495 33.4561 -7.76402e-17)
(20.4302 40.2615 8.75305e-17)
(19.4315 45.8543 -1.62377e-17)
(17.6217 51.1216 3.20794e-17)
(15.3244 55.414 -1.5232e-17)
(12.5508 60.0208 0)
(9.53041 62.5329 -1.4526e-17)
(6.03999 63.5672 -1.456e-17)
(2.23872 63.9222 0)
(-1.57807 63.3248 0)
(-5.17766 61.6981 8.78875e-19)
(-8.71796 59.1715 -7.75659e-18)
(-12.0623 54.3283 0)
(-15.2679 48.4872 0)
(-17.5966 42.7852 -9.79803e-18)
(-19.1309 36.5063 -6.39405e-18)
(-19.7734 30.1449 1.25405e-17)
(-19.2626 24.2711 3.08407e-18)
(-17.4145 19.3901 7.62238e-19)
(-14.6433 15.7504 3.00981e-18)
(-11.6591 13.1339 -3.3334e-18)
(-8.98814 11.2213 0)
(-6.82303 9.72964 -1.43876e-18)
(-5.13074 8.49887 0)
(-3.85373 7.50364 0)
(-2.95683 6.75909 0)
(-2.41556 6.38806 -5.41752e-18)
(-2.16304 6.15971 0)
(-2.10699 6.40785 -2.94257e-18)
(-2.1794 6.02147 4.82696e-19)
(-2.10405 7.02662 9.97561e-18)
(-2.43154 5.06873 0)
(-2.19739 7.92076 -4.90038e-18)
(-3.58123 3.60432 7.51511e-20)
(-2.39256 -45.9857 0)
(21.1422 21.2708 4.66449e-16)
(-20.0818 -22.1071 8.19518e-16)
(-13.5897 -39.0656 0)
(7.13046 -44.1449 -2.71375e-16)
(27.3194 4.43642 9.73832e-16)
(-9.51708 69.2243 -1.08194e-18)
(8.03587 75.4115 6.91657e-17)
(7.89172 0.733482 -1.52622e-19)
(7.74746 6.21372 -1.24047e-18)
(7.71041 4.07979 1.26049e-18)
(7.73177 5.94924 0)
(7.60583 5.8526 0)
(7.49009 6.59204 1.65498e-19)
(7.40812 6.92514 -6.73783e-19)
(7.50476 7.37462 -2.39142e-18)
(7.80545 7.66469 1.73839e-19)
(8.3893 7.89407 -3.6324e-19)
(9.30247 8.09984 -4.38503e-19)
(10.6099 8.40109 1.99735e-18)
(12.4043 8.87973 1.80276e-19)
(14.7827 9.60424 -1.5015e-18)
(17.7029 10.6169 0)
(20.8345 12.0604 6.16985e-18)
(23.5063 14.1118 -9.78832e-21)
(25.0683 16.805 3.21193e-17)
(25.2375 19.797 -2.64101e-17)
(24.136 22.7136 0)
(22.0514 24.9608 2.82456e-17)
(18.5861 26.5769 -8.79697e-17)
(14.3315 28.1983 4.52524e-17)
(9.68202 29.6757 6.08113e-17)
(4.94388 30.6145 -1.84584e-20)
(0.174529 30.8372 -6.17648e-17)
(-4.49099 30.7709 6.26574e-17)
(-8.89426 30.7371 6.41262e-17)
(-12.7332 31.2023 -6.37617e-17)
(-13.119 52.6718 -1.33092e-16)
(11.1921 29.3453 -9.49355e-19)
(29.0486 -16.7252 -8.59679e-19)
(27.1716 15.5279 -6.49726e-17)
(26.1229 19.7063 -8.50158e-18)
(25.0081 24.5103 -2.49386e-17)
(23.5722 29.284 -8.07313e-18)
(21.5129 33.5665 0)
(18.9224 37.1676 1.5246e-17)
(15.6246 40.2414 -7.44112e-18)
(11.8101 42.241 -7.29584e-18)
(7.51458 43.0965 3.6707e-18)
(2.91367 43.2707 3.60928e-18)
(-1.73517 42.5763 7.11013e-18)
(-6.40535 41.1707 0)
(-10.9326 38.9587 6.8773e-18)
(-14.9573 35.0983 -6.66631e-18)
(-18.7708 30.7306 -1.03768e-19)
(-21.6154 26.5524 -1.96364e-17)
(-23.4106 22.1407 1.6125e-18)
(-23.9134 18.0581 -7.88937e-18)
(-22.8547 14.5489 0)
(-20.2904 12.0121 -2.48893e-18)
(-16.8907 10.4013 1.83984e-19)
(-13.4638 9.29149 3.3458e-18)
(-10.4874 8.42767 0)
(-8.09782 7.65992 0)
(-6.25475 6.9655 -8.91621e-20)
(-4.90648 6.42568 -2.71565e-18)
(-3.99706 6.09735 2.76216e-18)
(-3.46368 6.06943 3.39838e-18)
(-3.19783 6.09218 -6.67025e-19)
(-3.07429 6.46101 1.96885e-18)
(-3.02918 6.08593 -6.45732e-19)
(-2.85016 7.15656 -5.08007e-18)
(-2.99225 5.15756 4.99353e-18)
(-2.70052 8.38104 1.10372e-17)
(-4.01101 4.30679 4.81105e-18)
(-3.50217 11.1096 0)
(-3.3975 9.96168 -2.44219e-18)
(-2.76738 8.48803 2.28955e-21)
(-1.16389 6.81051 2.67648e-18)
(0.831831 7.17769 8.92132e-19)
(2.53023 8.03446 -1.19083e-18)
(3.95861 9.07545 2.38708e-18)
(5.26959 8.78823 -2.38508e-18)
(7.24962 8.12307 -1.19841e-18)
(-17.2846 -25.2332 -3.10134e-16)
(-7.53766 -42.3002 -7.84193e-17)
(4.00021 -4.21947 -1.61418e-16)
(23.2548 10.6259 -4.76331e-16)
(22.9841 -10.8211 -2.47548e-16)
(-6.08115 -16.5568 9.78587e-17)
(-15.9564 32.4346 0)
(-14.5528 53.2034 2.65789e-16)
(14.2035 20.8647 7.0558e-16)
(20.6637 11.7918 2.88586e-16)
(16.016 -4.35425 -3.02232e-16)
(-1.96738 59.6102 5.90848e-16)
(28.2082 2.67768 0)
(28.0385 5.53936 8.34536e-18)
(27.3228 8.57321 -2.02711e-18)
(26.0332 11.762 -3.76201e-17)
(24.0419 14.7156 7.77452e-18)
(21.2437 17.1236 0)
(17.6466 18.9962 -5.51846e-21)
(13.3877 20.2404 -1.83423e-18)
(8.57747 20.7943 0)
(3.40016 20.6604 -3.57694e-18)
(-1.92867 19.9233 -3.52859e-18)
(-7.45109 18.8824 0)
(-12.5887 17.2586 8.59117e-19)
(-17.1383 14.7074 -8.58832e-19)
(-21.3404 12.0872 8.35796e-19)
(-24.3377 9.74617 1.22922e-17)
(-25.9309 7.60241 0)
(-25.8593 5.92524 1.58385e-18)
(-24.2506 5.18923 -7.79789e-19)
(-20.9592 5.11184 1.92478e-19)
(-17.2738 5.38372 5.69839e-19)
(-13.8239 5.59812 -3.36662e-18)
(-10.9207 5.66222 0)
(-8.60109 5.57528 7.26018e-19)
(-6.82415 5.43234 1.43141e-18)
(-5.54459 5.38382 1.41073e-18)
(-4.70161 5.47717 -5.95151e-22)
(-4.20545 5.7674 -6.81417e-19)
(-3.93098 5.99441 -2.01003e-18)
(-3.74028 6.43445 -1.31888e-18)
(-3.59088 6.05055 -1.29563e-18)
(-3.37369 7.17903 0)
(-3.36168 5.13403 -5.00498e-18)
(-2.93214 8.86803 -4.91615e-18)
(-4.12353 4.79395 -3.62083e-18)
(-2.52609 12.2842 -6.5013e-18)
(-5.03733 6.10571 2.90698e-18)
(-5.8477 4.43613 -2.32186e-18)
(-5.46352 1.84214 0)
(-4.71029 -1.06556 1.173e-18)
(-2.70741 -3.32942 1.15973e-18)
(-0.844276 -3.17425 -2.34292e-18)
(1.90203 -2.43341 2.35792e-18)
(4.83291 -1.55249 1.20309e-20)
(6.64963 -3.22525 -1.18879e-18)
(8.70306 -5.22168 3.54406e-18)
(9.67747 -5.81347 -3.55295e-18)
(9.41211 7.96458 5.9925e-19)
(8.95266 0.41186 -4.60396e-19)
(9.0612 6.16458 9.32296e-19)
(8.64451 4.23636 -3.15552e-18)
(8.63065 6.16431 1.2048e-18)
(8.36538 6.16643 0)
(8.20705 6.83162 1.65837e-19)
(8.11226 7.05823 2.36531e-18)
(8.20439 7.28709 -3.43404e-19)
(8.48268 7.32123 8.69955e-19)
(9.01455 7.24431 -4.48538e-22)
(9.84551 7.09052 3.61966e-19)
(11.0456 6.92476 -1.82423e-19)
(12.725 6.74901 1.29344e-18)
(15.0094 6.55227 -4.50709e-18)
(17.9313 6.25089 1.05457e-20)
(21.2812 5.89092 3.10919e-18)
(24.5286 5.62534 -3.15539e-18)
(26.7167 5.69502 -2.56985e-17)
(27.2655 6.21462 2.63554e-17)
(26.382 6.92771 0)
(24.0643 7.34317 -5.5724e-17)
(20.3885 7.54418 4.27672e-17)
(15.7081 7.87672 -4.40601e-17)
(10.5791 7.97644 0)
(5.20673 8.18881 0)
(-0.340067 8.21127 0)
(-5.41123 8.14438 -7.65411e-18)
(-10.1136 8.31092 1.53203e-20)
(-14.3425 9.38156 1.25288e-16)
(6.4742 28.2432 -3.17386e-16)
(-17.9624 34.2301 1.35203e-16)
(-14.9751 53.7316 -1.25917e-16)
(14.8409 59.1688 1.64888e-17)
(17.1337 12.2144 3.41947e-16)
(22.8897 2.6115 2.9136e-16)
(25.1732 0.80324 3.09195e-19)
(27.2958 -2.6868 -2.97291e-16)
(28.0493 -23.4354 -2.05439e-16)
(29.5925 1.84149 -2.01698e-16)
(29.2726 -10.1479 7.25661e-17)
(29.0924 -8.888 -1.6953e-17)
(28.9622 -7.70175 -3.26409e-17)
(28.3414 -6.10124 0)
(27.1013 -4.58088 3.13871e-17)
(25.1073 -3.16738 0)
(22.2321 -2.12385 0)
(18.5435 -1.43211 7.42377e-18)
(14.1647 -0.978716 1.83008e-18)
(9.11709 -0.952496 0)
(3.61868 -1.35315 3.56781e-18)
(-1.96758 -1.94829 -6.15216e-21)
(-7.81918 -2.49213 7.11955e-21)
(-13.2495 -3.31141 3.43526e-18)
(-18.0548 -4.33858 3.78749e-18)
(-22.1548 -5.0752 -3.75328e-18)
(-24.7607 -5.37474 -6.75248e-18)
(-25.8537 -4.94332 2.01066e-19)
(-25.1751 -3.89136 -1.19422e-18)
(-22.8924 -2.25944 3.89424e-19)
(-19.6463 -0.422442 1.54613e-18)
(-16.2303 1.19938 -1.14209e-18)
(-13.1298 2.40257 1.50225e-18)
(-10.5355 3.20051 2.84096e-21)
(-8.47777 3.68461 -3.64088e-18)
(-6.91437 4.04985 1.43373e-18)
(-5.7983 4.45864 1.41349e-18)
(-5.0712 4.92647 -2.08291e-18)
(-4.63311 5.48607 2.73155e-18)
(-4.36941 5.87299 2.69331e-18)
(-4.15642 6.35447 0)
(-3.95935 5.99513 7.7955e-18)
(-3.80711 7.19987 1.27822e-18)
(-3.69288 5.10682 1.25312e-18)
(-3.24625 9.40815 0)
(-4.05538 4.78508 0)
(-1.46305 13.2931 3.55906e-18)
(-3.638 5.12054 -2.94595e-22)
(5.4957 18.5259 -5.69376e-19)
(0.0764609 17.3923 5.68471e-19)
(-5.57405 15.1292 0)
(-7.21938 13.0356 0)
(-6.43215 9.33019 -5.74231e-19)
(-4.71942 5.22268 1.71174e-18)
(-3.15349 5.43634 0)
(-0.543316 6.68115 -1.14155e-18)
(1.83256 10.8494 -1.14036e-18)
(4.0732 11.3623 2.27052e-18)
(7.18772 10.5822 -1.14124e-18)
(9.5129 11.8384 3.46472e-18)
(11.0435 12.8442 5.63055e-19)
(9.64157 -5.01367 5.97568e-19)
(11.1311 8.05848 1.20643e-18)
(9.51243 0.827805 0)
(10.0216 6.29142 -4.67942e-19)
(9.17961 4.70666 -1.19073e-19)
(9.1261 6.49916 7.26365e-19)
(8.74259 6.56947 -1.64223e-19)
(8.54707 7.12237 -3.33866e-19)
(8.41496 7.23752 -2.70333e-18)
(8.45127 7.25691 6.86643e-19)
(8.65106 7.06885 -1.74555e-18)
(9.06649 6.72763 8.87519e-19)
(9.73346 6.24942 -3.60167e-19)
(10.7444 5.66442 0)
(12.1978 4.91001 0)
(14.2205 3.92774 0)
(16.892 2.59103 -1.52959e-18)
(20.0183 0.876611 0)
(23.197 -1.14752 1.3685e-20)
(25.8051 -3.29884 1.28805e-17)
(27.0325 -5.3292 -6.52471e-18)
(26.6274 -7.08987 1.34706e-17)
(24.7011 -8.6806 4.13229e-17)
(21.1184 -9.93989 -5.05998e-20)
(16.4408 -10.9148 -1.43735e-17)
(11.0729 -11.8322 -2.89961e-17)
(5.36263 -12.2027 5.83609e-17)
(-0.528297 -12.5882 -2.96489e-17)
(-5.85485 -12.7083 -3.08402e-21)
(-10.6218 -12.1897 1.51228e-17)
(-14.9103 -10.474 1.97528e-19)
(-18.0893 11.0968 -1.91915e-16)
(9.96558 20.3171 -3.29427e-16)
(1.48394 25.1989 6.20184e-16)
(-6.65785 -13.5284 0)
(-20.7888 13.8492 -1.33121e-16)
(29.1561 -14.98 5.32514e-16)
(28.4403 -11.0698 -2.8683e-16)
(26.9211 -7.76311 -5.54096e-16)
(-14.1513 53.4647 -4.29222e-17)
(17.4836 45.6356 -4.20908e-17)
(10.1803 69.0245 -1.6521e-17)
(-18.7753 35.9169 4.92948e-19)
(19.8868 4.23232 -3.37842e-16)
(24.6692 -5.52253 2.81053e-16)
(-0.494515 3.96874 -5.61378e-19)
(-3.53837 9.19416 -5.60344e-19)
(-6.21959 4.98909 0)
(-7.15858 -2.9114 -5.61426e-19)
(-7.82625 -7.80025 5.63669e-19)
(-6.19799 -8.25623 -5.50672e-19)
(-4.97316 -8.30482 5.53332e-19)
(-0.531552 -9.32166 1.12754e-18)
(5.5416 -9.15369 -1.13496e-18)
(8.09976 -11.8394 2.27309e-18)
(8.77639 -13.3989 -3.43702e-18)
(8.1916 -13.0896 0)
(6.44722 -11.4891 7.85299e-21)
(5.35411 -10.9944 0)
(11.7918 13.2595 -3.48619e-18)
(9.12734 -3.37656 1.18509e-18)
(11.8776 8.30016 0)
(9.62923 2.03872 0)
(10.3439 6.62175 3.12386e-19)
(9.28719 5.4462 -3.97913e-20)
(9.17582 6.94748 0)
(8.71639 7.05233 -1.63936e-19)
(8.4865 7.44982 1.66775e-19)
(8.31566 7.46358 6.78243e-19)
(8.26948 7.31356 3.43579e-19)
(8.35392 6.95032 6.9855e-19)
(8.6096 6.38343 -1.99632e-21)
(9.09363 5.6134 -1.44367e-18)
(9.90129 4.64061 3.68497e-19)
(11.1079 3.38874 1.48797e-18)
(12.8433 1.74626 3.74025e-19)
(15.0981 -0.311612 -7.67556e-19)
(17.6976 -2.81486 1.55266e-18)
(20.4455 -5.89413 -4.74111e-18)
(22.9024 -9.48406 -6.40634e-18)
(24.3703 -13.3291 3.28473e-18)
(24.4411 -16.9154 -6.67314e-18)
(23.0308 -20.3958 0)
(19.9517 -23.2646 -2.08387e-17)
(15.7338 -25.6667 4.27507e-17)
(10.7804 -27.5614 0)
(5.32231 -28.6315 0)
(-0.269215 -29.3357 0)
(-5.67978 -29.4986 1.10343e-17)
(-10.3509 -28.719 -1.5657e-20)
(-14.4084 -26.2775 -2.73825e-19)
(-18.7589 -8.16587 -1.24232e-16)
(-10.4825 43.2999 -3.13481e-16)
(13.2467 12.3332 -1.31124e-20)
(-15.5529 -31.0351 2.52384e-16)
(3.85988 -46.0273 0)
(28.5673 -18.4922 -1.55803e-17)
(28.5889 -18.3536 0)
(28.0436 -18.1098 0)
(26.8513 -17.9712 7.72956e-18)
(24.9257 -17.9596 -1.5322e-17)
(22.1559 -18.1652 0)
(18.5866 -18.5156 7.4419e-18)
(14.2946 -18.7414 0)
(9.24296 -19.2501 -1.81009e-18)
(3.85572 -19.9463 1.7757e-18)
(-1.59411 -20.2408 -8.81275e-18)
(-7.25927 -19.9868 8.67527e-21)
(-12.5389 -19.7416 -3.41806e-18)
(-17.0538 -19.1911 6.76292e-18)
(-20.5149 -17.9924 4.99542e-18)
(-22.5334 -16.0998 -4.92998e-18)
(-23.0108 -13.5736 0)
(-22.0084 -10.4893 3.65597e-21)
(-19.8063 -7.27845 -2.35706e-18)
(-17.058 -4.35139 0)
(-14.294 -1.99404 0)
(-11.7899 -0.215132 7.53633e-19)
(-9.65306 1.10744 2.22684e-18)
(-7.91738 2.08829 -1.46499e-18)
(-6.62991 2.89491 1.43504e-18)
(-5.72288 3.68495 -2.82927e-18)
(-5.13799 4.46256 -6.97323e-19)
(-4.7697 5.23551 -5.49201e-18)
(-4.54929 5.74395 2.69683e-18)
(-4.37037 6.26238 0)
(-4.19001 5.99414 -5.20978e-18)
(-4.16744 7.29063 -2.55588e-18)
(-3.96977 5.27737 0)
(-3.72942 10.0586 2.4766e-18)
(-3.82162 4.81614 1.50906e-20)
(-1.06802 14.2126 3.57226e-18)
(-2.1374 3.03312 3.49464e-18)
(8.25988 19.3047 0)
(2.32318 -5.40893 -1.14438e-18)
(-3.23682 20.1434 -3.08917e-16)
(5.48722 18.4542 -6.33324e-16)
(-2.34262 -39.2575 1.20891e-16)
(-19.6442 36.4677 -1.20668e-16)
(21.7547 -3.76817 5.77176e-16)
(-22.5171 16.9508 -6.09037e-19)
(5.5995 -10.6614 5.8013e-19)
(12.7058 12.5994 2.91334e-18)
(8.56324 -1.63821 -2.37335e-18)
(11.9006 8.36004 0)
(9.3623 3.46974 0)
(10.0753 7.00983 0)
(8.99222 6.32071 0)
(8.79486 7.46464 6.4788e-19)
(8.28451 7.5879 -3.29089e-19)
(8.00658 7.83434 1.66655e-19)
(7.7844 7.74392 -1.01948e-18)
(7.65293 7.45759 6.89857e-19)
(7.62968 6.93267 3.50265e-19)
(7.76222 6.17427 -5.34777e-19)
(8.09824 5.14481 0)
(8.72424 3.82947 -8.55308e-22)
(9.69707 2.13051 -3.72832e-19)
(11.131 0.0143995 3.78154e-19)
(12.8713 -2.45877 7.67092e-19)
(14.924 -5.4338 -8.74517e-19)
(17.1384 -9.03373 8.86431e-19)
(19.163 -13.2076 -2.40197e-18)
(20.5518 -17.8588 -4.88269e-18)
(20.879 -22.5648 3.31645e-18)
(19.995 -27.2298 0)
(17.7011 -31.2931 -4.64803e-21)
(14.264 -34.874 -2.10538e-17)
(10.0108 -37.5266 1.77681e-17)
(5.1875 -39.2892 -3.59928e-18)
(0.154381 -40.2413 0)
(-4.82027 -40.5417 -3.63474e-18)
(-9.3792 -39.6252 5.0937e-17)
(-13.1814 -36.8832 -2.84562e-17)
(-18.2436 -23.7967 1.17165e-16)
(-14.3129 40.4262 6.40279e-16)
(16.4592 4.37076 -1.6696e-19)
(24.1801 30.1178 -2.79849e-19)
(20.8 29.2729 1.63354e-18)
(8.63324 27.6708 2.69468e-19)
(-6.68306 23.7863 0)
(-12.1653 21.1171 -5.53282e-19)
(-8.74618 11.742 5.50462e-19)
(-6.78967 4.86802 -8.19022e-19)
(-6.94643 3.51525 -1.93071e-18)
(-4.85201 0.275058 2.21367e-18)
(-3.64969 7.29477 0)
(0.983711 12.1575 -1.08192e-18)
(2.42669 14.2245 3.3096e-18)
(6.14742 19.0423 -2.23089e-18)
(6.54986 20.4519 -1.08563e-18)
(8.45837 19.4867 1.68696e-18)
(12.8847 13.6801 -2.23311e-18)
(-14.8426 33.8086 6.1543e-16)
(25.9139 -12.4667 -2.62725e-16)
(27.7155 -14.6617 2.64647e-16)
(28.6674 -17.5919 5.24542e-16)
(28.7976 -20.7096 2.45953e-16)
(-6.62779 60.6468 -1.28705e-18)
(-19.2173 38.1962 1.81474e-16)
(15.0647 -23.0518 0)
(-14.6623 -34.9858 0)
(28.0411 -25.5269 0)
(27.3055 -25.918 3.92054e-18)
(26.5838 -26.6117 -7.78621e-18)
(25.3932 -27.4461 5.46274e-20)
(23.579 -28.4166 2.28955e-17)
(21.0577 -29.5193 -1.50669e-17)
(17.8122 -30.5485 3.63319e-20)
(13.8384 -31.2341 7.29421e-18)
(9.1471 -32.0518 -1.2642e-17)
(4.15487 -32.6936 1.79947e-18)
(-0.991146 -32.4075 7.03738e-18)
(-6.07616 -31.3737 -1.74065e-18)
(-10.6964 -30.1188 1.71613e-18)
(-14.5131 -28.231 -5.05898e-18)
(-17.2391 -25.5426 1.6693e-18)
(-18.6801 -22.1419 4.93002e-18)
(-18.8357 -18.2634 -3.24218e-18)
(-17.8553 -14.2153 3.19444e-18)
(-16.111 -10.374 1.18269e-18)
(-14.0201 -7.00881 2.72659e-18)
(-11.952 -4.27676 -3.44488e-18)
(-10.0862 -2.17234 2.27184e-18)
(-8.48055 -0.555472 -4.08961e-18)
(-7.12051 0.771842 -2.93809e-18)
(-6.11211 1.95051 2.8824e-18)
(-5.41351 3.05506 1.42038e-18)
(-4.9735 4.07488 -1.39666e-18)
(-4.68734 5.00864 0)
(-4.53863 5.61448 -2.70416e-18)
(-4.42512 6.17971 1.32858e-18)
(-4.31278 6.05888 -2.60341e-18)
(-4.41498 7.39626 -3.8438e-18)
(-4.12006 5.56837 -2.51115e-18)
(-4.17296 10.5775 -4.93418e-18)
(-3.44174 4.92155 1.20686e-18)
(-1.16157 14.894 -1.19174e-18)
(-0.999448 0.785172 -2.33646e-18)
(8.47087 19.8014 0)
(4.01405 -13.7536 0)
(20.2313 26.8395 0)
(-2.7723 -38.6585 0)
(-21.7666 -4.43005 -1.0318e-18)
(-20.2802 38.2299 6.54417e-16)
(-7.53888 13.7976 3.07906e-16)
(9.27443 10.9418 3.17742e-16)
(0.900509 15.0548 6.24699e-16)
(-10.7437 51.358 -3.11733e-16)
(-2.86416 -40.2873 -1.02816e-16)
(-1.16663 -48.6829 0)
(-10.5963 57.4737 -3.49292e-16)
(-23.6134 19.6066 -1.40072e-16)
(-16.1282 -34.226 -5.18245e-17)
(-2.29055 67.4754 -9.12888e-16)
(-14.4141 -28.6286 3.28724e-16)
(-16.7452 -26.8641 2.51031e-16)
(-4.97299 -44.9066 -5.4521e-17)
(17.3679 16.7383 -1.11252e-18)
(6.67948 -8.23593 -2.88934e-19)
(14.7193 12.1885 -8.8132e-19)
(8.3395 0.614319 -9.41758e-22)
(11.522 8.41748 0)
(8.9264 5.03733 0)
(9.38246 7.56539 0)
(8.3879 7.25623 -1.59261e-19)
(8.05713 8.05072 -2.02414e-19)
(7.50302 8.11028 2.06066e-19)
(7.16458 8.2198 -1.6798e-19)
(6.89694 8.02435 4.25825e-19)
(6.71061 7.62127 -5.19084e-19)
(6.62022 6.96014 0)
(6.65917 6.02591 0)
(6.88241 4.76577 0)
(7.3534 3.16067 0)
(8.13656 1.11104 0)
(9.24183 -1.3058 0)
(10.5745 -4.06703 -1.91619e-19)
(12.173 -7.33084 7.78313e-19)
(13.8597 -11.1025 0)
(15.4287 -15.3875 -1.99981e-18)
(16.5686 -20.1641 3.65879e-18)
(16.9343 -25.1477 3.30285e-18)
(16.4031 -30.1852 0)
(14.6985 -34.8313 1.02709e-17)
(12.0238 -38.9609 -1.04499e-17)
(8.58725 -42.1303 -3.5075e-18)
(4.5959 -44.3182 7.13057e-18)
(0.325865 -45.6108 -1.07976e-17)
(-3.81424 -45.9919 5.41192e-18)
(-7.92446 -44.9756 -1.44285e-17)
(-11.3397 -42.7041 3.57755e-18)
(-15.8889 -39.0025 1.1283e-16)
(-18.3784 31.6471 3.42067e-16)
(24.6261 -22.5772 5.01149e-16)
(20.8859 -23.1565 2.46585e-16)
(9.8459 -33.6724 0)
(8.4189 -19.9266 -2.44341e-21)
(3.22915 4.43006 -5.49801e-19)
(1.12909 17.2118 -2.72381e-19)
(-2.9304 9.17437 -6.69611e-20)
(-5.37432 -11.5704 6.78677e-20)
(-11.63 -22.9713 0)
(-9.29075 -18.0982 0)
(-6.42704 -20.8551 8.43171e-19)
(-2.61787 -24.3954 -2.15417e-18)
(0.723613 -23.2325 2.75823e-18)
(3.58004 -25.1233 0)
(-6.38448 -24.5915 -2.18028e-18)
(-5.48891 -21.998 2.18225e-18)
(0.642707 -19.5879 5.74682e-19)
(1.22078 -26.0953 5.67582e-19)
(7.85926 -24.1116 0)
(6.85854 -23.8783 0)
(12.1455 53.9109 0)
(26.5077 -18.2407 2.54445e-16)
(27.9039 -19.8989 0)
(28.3033 -22.1586 -5.19576e-16)
(28.0728 -24.5427 2.58868e-16)
(27.1054 -26.78 4.63631e-16)
(5.59397 -44.8603 -8.66341e-17)
(11.7148 -5.35833 3.03418e-16)
(25.0504 -29.6516 8.12035e-18)
(25.384 -29.9747 -6.47197e-17)
(25.1022 -30.9686 2.77005e-17)
(24.4136 -31.9221 -3.14329e-17)
(23.2739 -33.1266 -1.34826e-17)
(21.6137 -34.3857 1.91312e-17)
(19.3821 -35.6581 3.74002e-18)
(16.5087 -36.7951 -1.85375e-17)
(12.9891 -37.6786 1.09825e-17)
(8.88661 -38.4671 0)
(4.44388 -39.0043 -8.89611e-18)
(-0.0392878 -38.3813 5.27983e-18)
(-4.32452 -36.8018 8.68251e-18)
(-8.16136 -34.8297 1.71759e-18)
(-11.2278 -32.1237 -6.76193e-18)
(-13.3442 -28.6673 -3.33701e-18)
(-14.4117 -24.6583 0)
(-14.4826 -20.3729 0)
(-13.7553 -16.1348 -8.00501e-19)
(-12.5294 -12.2166 -3.9486e-19)
(-11.0795 -8.77813 3.8987e-18)
(-9.60552 -5.90508 7.77237e-19)
(-8.2673 -3.60729 -2.64469e-18)
(-7.12991 -1.80126 3.2291e-22)
(-6.20224 -0.263044 0)
(-5.4523 1.17105 0)
(-4.95584 2.51063 -2.85173e-18)
(-4.65365 3.70575 4.20292e-18)
(-4.44264 4.77419 -1.37785e-18)
(-4.38032 5.47217 -1.58835e-21)
(-4.35141 6.09959 1.32576e-18)
(-4.33187 6.15468 1.30513e-18)
(-4.53055 7.45529 7.69924e-18)
(-4.15633 5.92067 0)
(-4.56115 10.7961 3.70374e-18)
(-3.09424 4.95326 -3.64606e-18)
(-2.1927 15.2686 2.37572e-18)
(-0.185781 -1.57591 -2.34641e-18)
(4.85118 19.9943 2.29696e-18)
(5.56813 -20.3079 0)
(13.2208 22.8991 0)
(11.1405 -44.2923 -1.14939e-18)
(-18.5785 23.3198 6.06073e-16)
(-21.4959 -19.2695 -1.21122e-16)
(20.2228 -17.2782 -2.58313e-16)
(-18.3237 8.85462 6.05548e-16)
(-14.9921 8.57157 2.65951e-19)
(-11.2376 6.91357 6.19656e-16)
(-23.6698 -0.369959 1.33757e-16)
(12.7282 3.08621 -6.75745e-16)
(-3.51055 10.2333 0)
(4.924 8.69774 0)
(-4.4095 -48.3612 -5.96882e-17)
(-22.3033 -17.8859 -3.11087e-16)
(5.15008 -43.1084 2.39551e-17)
(-10.8389 59.7875 -5.43386e-16)
(-13.355 -38.6387 -6.04499e-17)
(-21.0307 27.2657 -3.7934e-16)
(-1.75483 -38.9148 0)
(-1.87908 -38.2624 -5.31693e-17)
(-11.6253 -41.7326 0)
(-9.69864 -44.8884 1.85257e-18)
(-6.54988 -46.8649 3.64457e-18)
(-3.15227 -47.6994 1.3523e-18)
(0.282112 -47.1254 2.23838e-19)
(3.67764 -45.5448 0)
(6.84277 -43.131 4.37492e-18)
(9.54217 -39.7744 -4.32263e-18)
(11.5844 -35.6099 1.70155e-18)
(12.8368 -30.9832 -3.34196e-18)
(13.2048 -26.1121 8.19432e-19)
(12.9148 -21.3251 0)
(12.0591 -16.7525 1.60123e-18)
(10.9009 -12.5608 -7.8892e-19)
(9.63721 -8.76532 7.79061e-19)
(8.41969 -5.37324 -1.34288e-18)
(7.36877 -2.40894 1.53706e-18)
(6.54535 0.228176 1.61599e-21)
(5.89421 2.53018 -7.80396e-19)
(5.54331 4.38346 3.62632e-19)
(5.40051 5.83691 -4.01069e-19)
(5.42137 6.92529 0)
(5.55142 7.70924 1.73381e-19)
(5.76603 8.21163 -8.53501e-20)
(6.04921 8.51748 -3.35568e-19)
(6.41781 8.54722 2.86062e-19)
(6.97816 8.63645 4.06404e-20)
(7.45769 8.17717 -1.59302e-19)
(8.43443 8.32495 0)
(8.33122 6.80246 0)
(10.607 8.77041 -6.02578e-19)
(8.05469 3.94393 3.26454e-18)
(14.6181 12.0036 -5.81089e-19)
(6.44548 -0.547914 0)
(18.9814 18.7728 2.21003e-18)
(-2.43683 -6.96035 -2.26401e-20)
(-2.96021 -37.6014 2.80618e-16)
(14.496 45.664 9.93898e-19)
(24.321 35.2231 0)
(31.9288 55.8272 -2.64863e-19)
(32.715 53.2173 2.82163e-19)
(16.0229 50.9532 6.53121e-19)
(-12.4095 45.4268 -5.20819e-19)
(-18.891 44.0342 1.22331e-19)
(-10.8094 24.9481 2.42443e-19)
(-7.41414 11.9651 1.8803e-18)
(-11.0479 12.2715 -2.61997e-18)
(-10.7829 8.92213 -2.11843e-18)
(-16.5269 14.4146 2.12284e-18)
(-10.6981 26.5854 -2.50675e-19)
(-8.91098 29.744 5.02806e-19)
(-4.82064 19.0499 -2.13515e-18)
(-4.89592 20.9304 -5.1894e-19)
(4.61659 21.641 2.12907e-18)
(5.07643 15.8487 0)
(13.957 35.3833 9.96504e-19)
(8.09756 38.9751 -5.03816e-19)
(-21.2834 19.7352 3.14927e-16)
(-20.3117 -29.0826 -1.06528e-16)
(-21.1002 7.52661 -2.98406e-16)
(-2.37048 -41.7617 0)
(-2.05255 -40.149 0)
(-1.85804 -39.537 -1.00889e-16)
(-1.55988 -39.3139 -2.52523e-17)
(-1.26956 -39.8262 -3.15125e-17)
(-1.17386 -39.4675 -7.64559e-17)
(-1.05277 -38.9477 1.04635e-16)
(-0.91333 -38.3243 5.63154e-17)
(-13.9736 -32.0189 0)
(-4.66612 -37.974 -5.48109e-17)
(-23.4385 -17.451 2.21158e-19)
(-20.5129 -21.0091 2.81468e-16)
(-21.7376 -20.3948 -2.6741e-16)
(-20.6626 1.49219 -3.05645e-16)
(-17.7748 1.49802 0)
(-14.3098 0.203462 0)
(-24.6547 3.50969 2.8416e-16)
(-21.3329 13.5414 5.95211e-16)
(-3.50923 -45.1063 -7.58118e-17)
(26.6711 -22.6712 2.56122e-16)
(27.5135 -23.5331 -2.62162e-16)
(27.4347 -24.8979 0)
(26.8276 -26.274 -5.44524e-16)
(25.624 -27.3621 2.7173e-16)
(25.1217 -28.0259 -3.59439e-16)
(19.4943 -26.4876 -2.22193e-16)
(23.1251 -31.0003 6.86816e-17)
(23.171 -31.8548 -7.59757e-17)
(22.9759 -32.7847 3.28899e-17)
(22.5988 -33.8357 -3.22157e-17)
(21.9683 -34.9562 0)
(20.9494 -36.1232 -1.94075e-18)
(19.5079 -37.3169 -2.87064e-18)
(17.5669 -38.4321 1.12794e-17)
(15.0785 -39.3034 3.66977e-18)
(11.9983 -40.0176 -1.82776e-17)
(8.52901 -40.5962 7.22922e-18)
(4.76296 -40.881 8.89408e-18)
(1.03625 -39.9918 -7.04059e-18)
(-2.42651 -38.0937 4.34327e-18)
(-5.48297 -35.7683 -4.28511e-18)
(-7.9032 -32.8366 -1.6995e-18)
(-9.56418 -29.2753 5.00218e-18)
(-10.4321 -25.3151 8.23784e-19)
(-10.5722 -21.1926 3.25534e-18)
(-10.1573 -17.1425 -3.20064e-18)
(-9.37864 -13.3717 0)
(-8.44349 -10.0073 -7.79677e-19)
(-7.46044 -7.11848 -3.84554e-19)
(-6.55255 -4.71735 -3.79424e-18)
(-5.78505 -2.7507 3.35642e-18)
(-5.20474 -1.09889 -3.67638e-19)
(-4.73198 0.462764 2.90283e-18)
(-4.39318 1.98085 -5.3511e-18)
(-4.22065 3.28798 2.80569e-18)
(-4.0839 4.46634 1.38259e-18)
(-4.09278 5.25103 6.78832e-19)
(-4.11517 5.96967 -1.33766e-18)
(-4.21191 6.20208 3.92112e-18)
(-4.47234 7.39286 -3.84597e-18)
(-4.08845 6.27602 -1.26082e-18)
(-4.82896 10.6536 -3.7152e-18)
(-2.79185 5.30652 4.85882e-18)
(-3.85581 15.5408 -3.58474e-18)
(0.191124 -0.723434 2.36177e-18)
(-0.599221 21.1083 -4.5917e-18)
(7.07473 -18.5077 0)
(8.40147 23.5368 2.11275e-18)
(20.2169 -41.5031 -1.11493e-18)
(13.4519 47.565 -9.94278e-19)
(-22.3165 -14.552 -7.06078e-16)
(-23.7967 -14.5223 3.24092e-16)
(-24.4342 -15.0178 -3.21234e-16)
(-8.97013 -43.197 1.67757e-16)