/*--------------------------------*- C++ -*----------------------------------*\
| =========                 |                                                 |
| \\      /  F ield         | OpenFOAM: The Open Source CFD Toolbox           |
|  \\    /   O peration     | Version:  2212                                  |
|   \\  /    A nd           | Website:  www.openfoam.com                      |
|    \\/     M anipulation  |                                                 |
\*---------------------------------------------------------------------------*/
FoamFile
{
    version     2.0;
    format      ascii;
    arch        "LSB;label=32;scalar=64";
    class       volScalarField;
    location    "0.000123";
    object      p;
}
// * * * * * * * * * * * * * * * * * * * * * * * * * * * * * * * * * * * * * //

dimensions      [1 -1 -2 0 0 0 0];

internalField   nonuniform List<scalar> 
58408
(
1148
1106.03
1174.47
1203.09
1229.13
1250.33
1264.72
1276.63
1282.01
1284.32
1285.01
1285.25
1284.95
1284.26
1281.81
1277.99
1272.6
1265.53
1257.53
1250.26
1243.64
1236.6
1226.18
1213.82
1204.07
1195.66
1188.6
1182.58
1176.97
1171.19
1164.99
1158.18
1151.34
1144.61
1138.07
1131.59
1125.5
1119.76
1114.13
1108.64
1103.21
1097.72
1092.15
1086.47
1080.87
1075.41
1070.01
1064.93
1059.87
1055.31
1050.9
1046.84
1042.82
1039.03
1035.25
1031.64
1028.02
1024.3
1020.27
1016.33
1012.52
1008.98
1005.39
1001.93
998.515
995.183
991.562
987.764
984.068
980.653
977.345
974.066
970.778
967.482
964.222
961.079
957.999
954.884
951.793
948.8
945.84
942.865
939.973
937.217
934.551
931.942
929.387
926.894
924.547
922.366
920.233
918.176
916.335
914.763
913.418
912.248
911.286
910.501
909.978
909.707
909.571
909.476
909.383
909.262
909.199
909.211
909.326
909.619
910.067
910.4
910.506
910.426
910.339
910.231
910.132
910.083
910.067
910.066
910.283
910.489
910.704
911.016
911.383
911.763
912.11
911.999
911.886
911.612
911.019
910.342
909.682
908.831
907.119
905.744
900.9
902.083
887.105
912.607
844.941
955.962
725.22
1175.68
271.057
1207.07
1146.6
1199.85
1222.89
1253.51
1270.62
1279.53
1283.59
1285.24
1285.82
1286
1286.06
1285.5
1284.96
1282.01
1278.25
1272.81
1263.27
1254.7
1247.35
1240.91
1233.35
1222.45
1210.4
1200.68
1192.46
1185.68
1179.86
1174.44
1168.83
1162.72
1155.99
1149.16
1142.24
1135.58
1129.1
1123.11
1117.47
1111.92
1106.47
1101.08
1095.59
1090.04
1084.36
1078.86
1073.43
1068.12
1063.09
1058.07
1053.56
1049.17
1045.14
1041.14
1037.37
1033.61
1030.02
1026.4
1022.69
1018.68
1014.76
1010.95
1007.43
1003.85
1000.41
997.012
993.707
990.108
986.35
982.696
979.315
976.03
972.769
969.486
966.188
962.925
959.781
956.702
953.597
950.525
947.56
944.633
941.694
938.835
936.108
933.466
930.868
928.281
925.779
923.507
921.446
919.447
917.527
915.83
914.339
913.011
911.865
910.925
910.191
909.658
909.301
909.076
908.971
908.962
908.934
908.885
908.857
908.91
909.082
909.426
909.685
909.663
909.604
909.459
909.229
909.002
908.873
908.82
908.82
908.854
908.983
909.249
909.547
909.93
910.307
910.56
910.5
910.381
910.178
909.756
909.066
908.349
907.474
905.88
903.826
899.711
896.995
890.996
887.102
873.181
875.516
838.379
890.032
716.406
1230.57
1176.78
1228.08
1250.21
1270.69
1281.23
1286.6
1288.99
1289.95
1290.27
1290.36
1290.38
1289.7
1288.8
1285.77
1280.53
1275.69
1263.48
1254.35
1246.35
1238.73
1229.3
1217.69
1206.2
1196.08
1188.41
1182.26
1177.03
1172.14
1166.98
1161.27
1155
1148.19
1140.79
1133.73
1127.05
1121.24
1115.61
1110.25
1104.84
1099.4
1093.88
1088.24
1082.59
1077.15
1071.78
1066.62
1061.59
1056.7
1052.23
1047.93
1043.94
1039.96
1036.21
1032.47
1028.88
1025.27
1021.52
1017.5
1013.55
1009.75
1006.2
1002.6
999.141
995.736
992.4
988.766
984.989
981.326
977.945
974.654
971.395
968.117
964.838
961.605
958.496
955.452
952.391
949.378
946.48
943.628
940.774
938.014
935.395
932.867
930.396
927.959
925.585
923.374
921.334
919.318
917.348
915.552
913.982
912.605
911.458
910.552
909.817
909.292
908.918
908.617
908.443
908.317
908.168
908.049
907.903
907.833
907.826
907.85
907.891
907.85
907.676
907.329
906.957
906.405
905.945
905.79
905.738
905.72
905.73
905.798
905.976
906.504
906.894
907.049
907.049
906.985
906.878
906.675
906.257
905.455
904.56
903.164
900.76
897.135
895.053
890.837
889.696
885.357
888.109
880.532
921.745
867.011
1293.7
1241.2
1271.79
1284.13
1289.96
1292.77
1294.19
1294.89
1295.22
1295.35
1295.4
1295.17
1293.99
1292.13
1286.37
1281.32
1278.01
1262.29
1252.85
1243.76
1233.9
1223.46
1211.42
1198.68
1189.13
1183.32
1178.28
1173.52
1168.85
1163.89
1158.29
1152.85
1146.02
1138.31
1130.77
1123.97
1118.21
1112.75
1107.44
1102.05
1096.55
1091.03
1085.42
1079.91
1074.61
1069.34
1064.29
1059.34
1054.55
1050.12
1045.91
1041.92
1038.02
1034.27
1030.57
1026.99
1023.38
1019.64
1015.62
1011.67
1007.9
1004.35
1000.77
997.32
993.943
990.623
986.99
983.243
979.625
976.298
973.048
969.83
966.583
963.34
960.153
957.097
954.102
951.098
948.156
945.334
942.564
939.804
937.145
934.627
932.199
929.824
927.479
925.198
923.1
921.13
919.177
917.276
915.518
913.958
912.558
911.358
910.339
909.47
908.761
908.178
907.718
907.361
907.028
906.631
906.305
905.934
905.652
905.306
905.067
904.86
904.725
904.452
903.953
903.22
902.462
901.736
901.321
901.322
901.34
901.42
901.593
901.929
902.295
902.614
902.806
902.817
902.798
902.732
902.574
902.286
901.749
901.131
900.009
898.243
895.104
893.265
890.6
889.538
887.793
888.622
891.166
899.106
915.743
1336.8
1284.74
1297.78
1301.48
1302.7
1302.89
1302.89
1302.86
1303
1303.07
1303.1
1303.11
1301.04
1294.21
1287.92
1284.69
1283.03
1262.11
1252.48
1242.43
1230.25
1216.97
1200.06
1190.44
1184.39
1179.43
1175.04
1170.76
1166.51
1161.45
1156.15
1150.84
1144.67
1136.55
1128.15
1121.22
1115.57
1110.24
1104.96
1099.5
1093.95
1088.37
1082.89
1077.52
1072.37
1067.25
1062.28
1057.42
1052.73
1048.38
1044.21
1040.27
1036.4
1032.68
1029
1025.45
1021.83
1018.08
1014.04
1010.12
1006.34
1002.79
999.203
995.767
992.39
989.072
985.423
981.693
978.09
974.784
971.544
968.342
965.107
961.886
958.731
955.716
952.768
949.821
946.949
944.206
941.521
938.857
936.306
933.899
931.583
929.324
927.094
924.924
922.891
920.959
919.032
917.146
915.414
913.86
912.423
911.148
910.022
909.019
908.134
907.373
906.72
906.145
905.565
904.909
904.153
903.439
902.812
902.299
901.809
901.441
901.176
900.681
899.753
898.636
897.753
897.099
896.779
896.704
896.718
896.807
897.056
897.543
898.052
898.432
898.649
898.803
898.833
898.813
898.738
898.561
898.191
897.518
896.566
895.366
893.622
892.348
890.972
891.112
892.098
895.135
902.046
915.544
933.239
1372.38
1315.16
1321.24
1322.61
1323.08
1323.17
1315.79
1311.96
1310.1
1309.2
1308.75
1307.12
1301.57
1294.48
1289.42
1286.82
1285.48
1262.04
1251.53
1239.56
1222.57
1203.83
1191.16
1184.45
1179.39
1175.17
1171.41
1167.33
1163.16
1158.17
1153.13
1148.35
1142.71
1134.14
1124.94
1117.92
1112.37
1107.07
1101.74
1096.26
1090.72
1085.27
1079.95
1074.76
1069.75
1064.74
1059.87
1055.09
1050.48
1046.19
1042.08
1038.17
1034.33
1030.64
1026.97
1023.45
1019.82
1016.07
1012.02
1008.12
1004.35
1000.82
997.234
993.821
990.467
987.168
983.535
979.844
976.281
973.019
969.812
966.648
963.45
960.272
957.165
954.205
951.312
948.431
945.634
942.972
940.371
937.799
935.342
933.029
930.807
928.643
926.507
924.425
922.471
920.611
918.726
916.858
915.148
913.586
912.106
910.722
909.486
908.381
907.375
906.461
905.586
904.72
903.79
902.744
901.691
900.704
899.657
898.778
897.908
897.213
896.634
895.785
894.608
893.487
892.61
892.031
892.059
892.072
892.122
892.226
892.485
893.16
893.857
894.311
894.609
894.839
895.032
895.025
894.984
894.869
894.693
894.361
893.666
892.679
891.668
891.122
890.812
891.131
892.676
896.485
904.426
914.052
928.827
1394.78
1334.39
1339.26
1340.35
1340.75
1340.85
1332.63
1322.27
1316.21
1313.27
1311.01
1308.02
1301.61
1295.49
1292.5
1290.97
1289.77
1261.86
1249.35
1233.37
1208.26
1193.38
1184.18
1179.25
1175.18
1171.45
1168.06
1164.15
1159.9
1154.99
1150.31
1146.2
1141.17
1132.09
1121.65
1114.66
1109.24
1103.97
1098.57
1093.1
1087.66
1082.37
1077.22
1072.22
1067.31
1062.44
1057.64
1052.97
1048.42
1044.2
1040.12
1036.26
1032.44
1028.8
1025.13
1021.64
1018.01
1014.27
1010.21
1006.35
1002.6
999.087
995.52
992.143
988.817
985.549
981.943
978.297
974.772
971.545
968.364
965.228
962.051
958.897
955.814
952.882
950.021
947.175
944.419
941.798
939.239
936.71
934.301
932.037
929.867
927.757
925.679
923.661
921.771
919.962
918.115
916.269
914.584
912.982
911.432
909.939
908.529
907.245
906.022
904.836
903.641
902.442
901.163
899.733
898.257
896.905
895.591
894.541
893.589
892.807
892.011
890.995
889.921
888.986
888.299
888.178
888.213
888.211
888.355
888.531
888.834
889.426
890.167
890.943
891.347
891.598
891.85
891.84
891.824
891.774
891.651
891.471
891.075
890.531
890.078
890.088
890.273
890.914
892.541
896.179
903.371
909.469
909.177
1417.62
1355.56
1360.51
1361.75
1362.23
1362.35
1345.62
1329.4
1321.47
1317.61
1313.68
1308.94
1302.32
1297.77
1295.56
1294.41
1292.07
1261.32
1244.84
1219.47
1197.54
1185.54
1178.89
1174.47
1170.88
1167.43
1164.24
1160.7
1156.68
1152.13
1147.68
1144.03
1139.03
1129.14
1117.9
1111.28
1105.94
1100.62
1095.19
1089.83
1084.53
1079.46
1074.46
1069.63
1064.8
1060.06
1055.32
1050.74
1046.24
1042.09
1038.04
1034.23
1030.41
1026.81
1023.14
1019.68
1016.04
1012.32
1008.27
1004.45
1000.72
997.241
993.7
990.363
987.072
983.836
980.26
976.651
973.158
969.957
966.793
963.672
960.505
957.358
954.279
951.354
948.499
945.665
942.922
940.318
937.785
935.295
932.93
930.705
928.571
926.495
924.452
922.47
920.625
918.866
917.042
915.176
913.43
911.726
909.979
908.305
906.684
905.103
903.501
901.884
900.253
898.653
897.001
895.428
893.895
892.542
891.354
890.459
889.69
889.076
888.386
887.462
886.499
885.682
885.139
885.212
885.223
885.277
885.339
885.538
885.776
886.206
886.869
887.975
888.509
888.8
889.003
889.088
889.08
889.051
889.004
888.871
888.712
888.624
888.627
888.715
889.09
889.972
891.715
894.777
898.792
898.704
897.189
1436.49
1374.97
1380.14
1381.34
1381.79
1381.86
1348.81
1331.24
1322.64
1318.46
1314.54
1309.63
1304.33
1300.99
1298.46
1296.94
1291.86
1260.1
1235.35
1203.93
1187.73
1178.85
1173.94
1169.77
1166.33
1163.27
1160.18
1157.34
1153.72
1149.99
1145.85
1142.32
1136.4
1124.65
1114.01
1107.71
1102.42
1097.11
1091.73
1086.54
1081.44
1076.58
1071.7
1067.06
1062.28
1057.68
1052.99
1048.49
1044.04
1039.95
1035.91
1032.15
1028.33
1024.77
1021.1
1017.68
1014.03
1010.34
1006.31
1002.54
998.832
995.395
991.888
988.595
985.341
982.144
978.61
975.05
971.597
968.428
965.289
962.193
959.047
955.922
952.866
949.96
947.115
944.283
941.535
938.922
936.377
933.871
931.486
929.24
927.083
924.982
922.91
920.9
919.034
917.273
915.458
913.497
911.464
909.518
907.657
905.759
903.863
902.009
900.158
898.334
896.504
894.751
892.958
891.534
890.191
889.033
888.072
887.352
886.752
886.266
885.675
884.865
883.996
883.252
882.797
882.875
882.898
882.944
882.996
883.137
883.395
883.717
884.226
885.279
886.112
886.454
886.58
886.709
886.703
886.697
886.642
886.595
886.572
886.569
886.583
886.684
887.038
887.888
889.47
890.144
889.954
889.494
887.584
1455.72
1393.65
1397.93
1398.64
1398.87
1393.49
1353.75
1333.69
1323.88
1319.11
1315.36
1311.03
1307.1
1304.9
1303.23
1298.49
1290.74
1255.94
1214.34
1192.31
1180.46
1173.26
1168.57
1165.02
1161.71
1159.11
1156.4
1154.18
1151.21
1148.07
1144.22
1140.35
1132.83
1119.59
1110.1
1104.11
1098.91
1093.63
1088.36
1083.36
1078.35
1073.71
1068.9
1064.4
1059.7
1055.21
1050.57
1046.19
1041.75
1037.77
1033.73
1030.04
1026.23
1022.72
1019.06
1015.67
1012.04
1008.39
1004.39
1000.68
997.011
993.625
990.162
986.922
983.716
980.566
977.08
973.566
970.146
967.001
963.875
960.787
957.638
954.499
951.417
948.479
945.597
942.725
939.936
937.279
934.685
932.125
929.681
927.373
925.151
922.98
920.83
918.732
916.77
914.919
913.036
911.058
908.981
906.88
904.775
902.734
900.776
898.893
897.02
895.193
893.361
891.66
889.932
888.598
887.346
886.326
885.52
884.927
884.43
883.99
883.443
882.724
881.966
881.328
881.014
881.062
881.12
881.188
881.229
881.317
881.557
881.795
882.216
883.174
884.363
884.717
884.732
884.754
884.748
884.733
884.693
884.614
884.477
884.359
884.355
884.384
884.497
884.724
884.715
884.527
884.025
883.013
879.936
1471.65
1409.52
1413.41
1413.89
1414.02
1393.26
1354.69
1335.21
1325.69
1320.8
1317.34
1313.95
1311
1309.43
1308.52
1300.48
1287.2
1242.08
1202.14
1183.92
1174.71
1168.44
1162.94
1160.02
1157.28
1155.12
1153.11
1151.33
1149.22
1146.35
1142.59
1137.93
1127.78
1113.22
1106.01
1100.25
1095.05
1089.93
1084.74
1080
1075.16
1070.72
1066.04
1061.69
1057.06
1052.69
1048.09
1043.8
1039.38
1035.46
1031.43
1027.77
1023.97
1020.49
1016.85
1013.49
1009.88
1006.27
1002.32
998.675
995.068
991.748
988.347
985.174
982.027
978.935
975.507
972.045
968.662
965.538
962.423
959.337
956.177
953.015
949.896
946.912
943.975
941.039
938.176
935.438
932.756
930.099
927.553
925.142
922.814
920.534
918.268
916.047
913.952
911.961
909.94
907.878
905.802
903.7
901.564
899.499
897.541
895.696
893.888
892.158
890.433
888.876
887.316
886.121
885.017
884.179
883.574
883.139
882.757
882.373
881.874
881.25
880.613
880.103
879.937
879.929
880.006
880.082
880.133
880.169
880.358
880.626
881.077
881.865
883.166
883.421
883.469
883.466
883.457
883.4
883.269
883.095
882.75
882.473
882.044
881.99
881.892
881.899
881.819
880.999
878.963
875.924
870.205
1486.66
1423.33
1426.24
1426.32
1416.95
1389.1
1354.91
1337.74
1329.41
1324.73
1321.9
1320.36
1319.58
1319.09
1318.75
1305.05
1275.36
1216.88
1190.63
1178.12
1170.97
1162.92
1157.21
1154.2
1152.64
1151.33
1150.67
1149.34
1147.94
1145.41
1141.76
1135.53
1119.32
1108.09
1101.94
1096.55
1091.27
1086.32
1081.24
1076.73
1072.05
1067.78
1063.24
1059
1054.45
1050.18
1045.61
1041.42
1037
1033.14
1029.12
1025.5
1021.71
1018.26
1014.65
1011.32
1007.74
1004.19
1000.29
996.72
993.177
989.923
986.585
983.474
980.384
977.344
973.966
970.546
967.187
964.073
960.956
957.857
954.671
951.468
948.293
945.242
942.225
939.196
936.226
933.371
930.562
927.769
925.083
922.532
920.065
917.645
915.237
912.873
910.637
908.504
906.333
904.142
902.016
899.953
897.908
895.952
894.115
892.41
890.755
889.201
887.658
886.309
884.989
884.04
883.224
882.652
882.282
882
881.724
881.423
881.004
880.489
879.967
879.551
879.4
879.4
879.449
879.463
879.51
879.579
879.663
879.944
880.442
881.284
882.45
882.589
882.616
882.614
882.596
882.547
882.402
882.129
881.874
881.531
880.857
880.368
879.527
878.786
877.379
875.14
870.886
865.041
858.578
1496.61
1434.05
1437.08
1437.09
1412.56
1376.91
1353.55
1341.8
1336.01
1332.42
1329.99
1328.34
1326.83
1325.51
1320.95
1306.13
1247.24
1201.09
1180.49
1171.07
1164.48
1156.67
1152.37
1150.18
1149.18
1148.73
1148.53
1147.63
1146.52
1144.27
1140.22
1130.57
1112.38
1103.96
1097.81
1092.63
1087.36
1082.61
1077.7
1073.4
1068.9
1064.77
1060.36
1056.24
1051.76
1047.6
1043.06
1038.95
1034.56
1030.75
1026.74
1023.16
1019.4
1015.98
1012.41
1009.12
1005.59
1002.09
998.261
994.765
991.288
988.101
984.824
981.773
978.734
975.739
972.403
969.015
965.67
962.556
959.429
956.312
953.093
949.843
946.606
943.479
940.373
937.238
934.146
931.159
928.207
925.262
922.421
919.717
917.099
914.533
911.981
909.484
907.129
904.893
902.623
900.352
898.198
896.198
894.3
892.55
890.941
889.474
888.059
886.749
885.449
884.343
883.281
882.567
882.023
881.675
881.469
881.278
881.093
880.892
880.587
880.198
879.778
879.406
879.199
879.169
879.172
879.178
879.201
879.251
879.366
879.645
880.066
880.842
881.916
882.007
882.004
882.001
881.986
881.939
881.822
881.578
881.123
880.386
879.352
878.437
876.776
874.761
871.573
867.954
862.843
856.367
849.618
1511.64
1446.54
1448.83
1436.07
1390.71
1364.68
1350.96
1344.05
1340.74
1339.2
1338.5
1338.22
1338.13
1338.1
1323.81
1298.02
1223.24
1187.2
1170.88
1163.38
1159.15
1152.93
1149.27
1147.36
1146.51
1146.22
1146.15
1146.13
1145.53
1144
1137.42
1120.68
1106.59
1099.85
1093.99
1088.92
1083.74
1079.19
1074.47
1070.33
1065.99
1061.99
1057.68
1053.68
1049.25
1045.18
1040.68
1036.63
1032.26
1028.49
1024.51
1020.96
1017.23
1013.85
1010.31
1007.06
1003.57
1000.13
996.364
992.93
989.511
986.374
983.145
980.135
977.132
974.164
970.853
967.476
964.132
961.006
957.859
954.714
951.456
948.153
944.849
941.643
938.445
935.203
931.987
928.867
925.772
922.677
919.685
916.834
914.077
911.379
908.706
906.105
903.672
901.385
899.087
896.816
894.699
892.793
891.053
889.515
888.144
886.921
885.755
884.693
883.645
882.78
881.973
881.467
881.151
880.952
880.831
880.709
880.594
880.495
880.342
880.065
879.689
879.339
879.119
879.014
879.012
879.014
879.017
879.042
879.151
879.383
879.771
880.549
881.495
881.494
881.49
881.477
881.442
881.365
881.193
880.864
880.202
879.295
877.843
876.265
873.306
870.149
866.054
861.715
856.001
849.626
841.758
1514.72
1450.05
1453.11
1410.58
1376.99
1359.6
1351.12
1347.44
1346.1
1345.69
1345.55
1345.51
1345.52
1345.6
1329.19
1270.12
1206.85
1176.74
1163.24
1157.05
1153.58
1150.3
1147.49
1145.49
1144.39
1143.9
1143.74
1143.73
1143.74
1143.44
1131.74
1111.77
1102.13
1095.8
1090.07
1085.15
1080.17
1075.8
1071.26
1067.28
1063.06
1059.21
1054.98
1051.09
1046.72
1042.74
1038.28
1034.29
1029.96
1026.23
1022.29
1018.77
1015.08
1011.74
1008.25
1005.03
1001.59
998.192
994.485
991.102
987.728
984.627
981.431
978.445
975.463
972.506
969.204
965.826
962.471
959.326
956.154
952.978
949.68
946.327
942.962
939.687
936.407
933.069
929.745
926.506
923.285
920.057
916.935
913.961
911.091
908.291
905.532
902.867
900.4
898.111
895.841
893.633
891.611
889.827
888.241
886.884
885.708
884.684
883.726
882.877
882.056
881.409
880.845
880.525
880.387
880.279
880.207
880.173
880.119
880.066
879.96
879.811
879.505
879.198
878.963
878.834
878.791
878.793
878.795
878.82
878.912
879.1
879.455
880.176
880.878
880.872
880.84
880.78
880.712
880.592
880.365
879.921
879.092
877.939
875.926
873.52
869.523
865.263
860.606
855.797
849.812
843.199
835.3
1514.47
1446.74
1448.29
1396.76
1371.69
1358.97
1353.45
1351.81
1351.4
1351.36
1353.95
1356.12
1357.06
1357.28
1322.07
1233.34
1187.56
1165.63
1155.75
1151.2
1148.71
1147.22
1145.6
1143.87
1142.86
1142.25
1141.97
1141.88
1141.9
1141.92
1124.74
1106.49
1097.78
1091.73
1086.28
1081.61
1076.78
1072.59
1068.18
1064.38
1060.24
1056.54
1052.36
1048.6
1044.27
1040.38
1035.95
1032.03
1027.73
1024.05
1020.14
1016.66
1013.01
1009.7
1006.25
1003.07
999.663
996.3
992.635
989.285
985.934
982.847
979.659
976.675
973.692
970.726
967.413
964.014
960.635
957.459
954.257
951.047
947.709
944.309
940.891
937.557
934.21
930.794
927.38
924.043
920.717
917.383
914.156
911.089
908.137
905.272
902.466
899.779
897.32
895.071
892.872
890.768
888.874
887.229
885.79
884.583
883.557
882.684
881.884
881.199
880.56
880.087
879.731
879.553
879.514
879.487
879.491
879.494
879.493
879.423
879.399
879.31
879.131
878.873
878.632
878.457
878.375
878.342
878.342
878.365
878.434
878.568
878.879
879.445
879.875
879.872
879.844
879.756
879.527
879.353
879.042
878.529
877.528
876.057
873.394
870.14
865.061
859.974
855.014
849.932
844.076
837.238
829.913
1512.61
1437.61
1438.14
1392.84
1371.35
1360.76
1356.66
1355.21
1354.84
1354.8
1356.02
1364.71
1369.06
1370.61
1294.33
1217.22
1178.16
1159.54
1151.24
1147.47
1145.59
1144.58
1143.62
1143.11
1142.58
1141.93
1140.84
1139.72
1138.88
1138.43
1116.31
1100.51
1092.96
1087.85
1082.61
1078.11
1073.41
1069.39
1065.08
1061.44
1057.39
1053.83
1049.72
1046.07
1041.79
1037.98
1033.6
1029.74
1025.49
1021.85
1017.99
1014.55
1010.94
1007.67
1004.26
1001.11
997.73
994.388
990.751
987.413
984.065
980.968
977.768
974.763
971.759
968.764
965.422
961.986
958.571
955.361
952.126
948.884
945.513
942.08
938.627
935.256
931.871
928.411
924.943
921.547
918.159
914.761
911.476
908.36
905.371
902.487
899.68
897.017
894.606
892.427
890.323
888.338
886.573
885.055
883.736
882.638
881.714
880.938
880.24
879.66
879.135
878.768
878.529
878.427
878.419
878.418
878.434
878.516
878.561
878.481
878.465
878.355
878.307
878.176
877.933
877.684
877.524
877.444
877.424
877.432
877.465
877.568
877.702
878.026
877.999
877.987
877.946
877.845
877.653
877.479
877.065
876.362
875.215
873.317
870.049
865.911
859.906
854.249
849.206
844.124
838.625
831.842
825.227
1509.2
1433.82
1434.44
1391.84
1371.72
1362.02
1358.14
1356.81
1356.48
1356.46
1357.75
1364.68
1367.49
1368.33
1254.87
1197.42
1168.06
1153.72
1146.6
1143.36
1142.53
1142.18
1142.01
1141.93
1141.86
1141.33
1140.43
1138.82
1135.44
1131.41
1107.81
1095.77
1089.28
1084.3
1079.13
1074.8
1070.19
1066.33
1062.12
1058.62
1054.66
1051.22
1047.19
1043.64
1039.41
1035.68
1031.35
1027.55
1023.35
1019.76
1015.94
1012.54
1008.97
1005.74
1002.35
999.219
995.858
992.525
988.893
985.545
982.176
979.046
975.808
972.759
969.713
966.672
963.282
959.793
956.333
953.082
949.816
946.547
943.154
939.703
936.236
932.857
929.466
925.999
922.523
919.115
915.714
912.304
909.012
905.896
902.918
900.057
897.29
894.682
892.342
890.245
888.238
886.357
884.693
883.262
882.016
880.977
880.102
879.372
878.722
878.186
877.708
877.376
877.154
877.051
876.997
876.995
877.004
877.043
877.058
876.976
876.923
876.81
876.747
876.747
876.621
876.274
876.006
875.8
875.701
875.662
875.644
875.615
875.497
875.521
875.225
875.156
875.156
875.098
874.788
874.595
874.188
873.634
872.124
869.797
866.272
860.803
854.137
848.229
843.257
838.356
833.148
826.731
820.335
1509.22
1433.89
1434.55
1392.01
1371.88
1362.03
1358.07
1356.73
1356.45
1356.46
1359.6
1362.2
1362.92
1359.97
1250.2
1193.71
1163.57
1149.17
1143.48
1141.22
1140.33
1140.01
1139.93
1139.93
1139.96
1140.01
1139.58
1138.62
1131.26
1117.01
1100.74
1092.24
1085.77
1080.81
1075.73
1071.52
1067.02
1063.29
1059.2
1055.81
1051.94
1048.61
1044.66
1041.19
1037.04
1033.37
1029.1
1025.36
1021.21
1017.68
1013.9
1010.55
1007.01
1003.8
1000.44
997.316
993.96
990.618
986.976
983.597
980.189
977.004
973.71
970.598
967.495
964.392
960.943
957.391
953.88
950.59
947.297
944.011
940.61
937.16
933.705
930.35
926.989
923.559
920.123
916.756
913.398
910.035
906.79
903.724
900.8
897.998
895.297
892.762
890.496
888.475
886.545
884.737
883.131
881.738
880.511
879.479
878.603
877.87
877.215
876.67
876.173
875.815
875.523
875.354
875.232
875.147
875.013
874.99
874.943
874.851
874.699
874.539
874.398
874.225
874.075
873.726
873.502
873.257
873.163
873.05
872.95
872.788
872.51
872.068
871.827
871.71
871.687
871.421
871.265
871.098
870.812
869.991
868.318
865.547
861.389
855.057
847.9
841.832
836.942
832.261
827.317
821.425
815.298
1509.69
1434.69
1435.4
1392.56
1372.13
1361.96
1357.69
1356.22
1355.9
1356.26
1357.12
1357.32
1357.52
1352.3
1242.29
1186.97
1158.79
1145.5
1139.89
1137.65
1136.78
1136.48
1136.41
1136.4
1137.12
1137.59
1137.79
1137.83
1123.49
1106.04
1096.92
1088.54
1082.28
1077.43
1072.46
1068.37
1063.98
1060.36
1056.38
1053.09
1049.33
1046.08
1042.22
1038.82
1034.74
1031.13
1026.92
1023.24
1019.15
1015.66
1011.94
1008.61
1005.11
1001.92
998.572
995.446
992.08
988.716
985.048
981.621
978.156
974.904
971.538
968.353
965.182
962.01
958.494
954.876
951.315
947.989
944.676
941.383
937.989
934.559
931.139
927.833
924.536
921.181
917.828
914.55
911.287
908.023
904.876
901.902
899.065
896.344
893.718
891.25
889.041
887.067
885.176
883.395
881.795
880.386
879.123
878.046
877.12
876.337
875.629
875.025
874.451
874.013
873.592
873.303
873.048
872.855
872.564
872.402
872.121
871.979
871.856
871.667
871.498
871.191
870.866
870.505
870.277
869.912
869.708
869.569
869.392
869.114
868.764
868.371
868.163
868.025
867.847
867.672
867.446
867.134
866.665
865.523
863.562
860.44
855.404
848.475
841.174
835.091
830.251
825.734
821.018
815.647
809.909
1511
1437.41
1438.28
1393.79
1372.51
1361.7
1356.8
1354.81
1354.05
1353.75
1353.6
1353.73
1353.78
1347.1
1237.83
1183.09
1155.27
1142.13
1136.57
1134.36
1133.5
1133.2
1133.13
1133.12
1133.71
1134.82
1135.32
1135.5
1116.03
1101.03
1093.23
1085.02
1079.06
1074.33
1069.48
1065.47
1061.19
1057.66
1053.79
1050.58
1046.9
1043.74
1039.94
1036.61
1032.58
1029.04
1024.88
1021.26
1017.22
1013.78
1010.08
1006.79
1003.3
1000.13
996.779
993.641
990.256
986.862
983.156
979.676
976.15
972.827
969.391
966.133
962.899
959.664
956.091
952.417
948.818
945.469
942.148
938.863
935.49
932.097
928.73
925.492
922.277
919.019
915.775
912.613
909.473
906.338
903.315
900.454
897.717
895.079
892.518
890.096
887.911
885.943
884.045
882.243
880.599
879.129
877.788
876.629
875.615
874.748
873.948
873.246
872.561
872.002
871.432
870.998
870.564
870.242
869.789
869.489
869.08
868.834
868.581
868.291
868.014
867.63
867.293
866.886
866.554
866.138
865.749
865.452
865.201
864.976
864.797
864.541
864.336
864.085
863.824
863.561
863.177
862.707
861.963
860.699
858.417
854.491
848.603
841.662
834.514
828.401
823.532
819.063
814.536
809.538
804.229
1513.87
1443.34
1444.8
1396.53
1372.91
1360.66
1354.52
1351.64
1350.43
1350.03
1349.93
1349.94
1349.97
1345.93
1235.6
1180.31
1152.23
1138.94
1133.28
1130.99
1130.08
1129.76
1129.67
1129.66
1130.03
1130.57
1130.82
1130.9
1111.67
1097.17
1089.64
1081.83
1076.13
1071.51
1066.76
1062.83
1058.65
1055.19
1051.41
1048.28
1044.68
1041.58
1037.85
1034.57
1030.6
1027.1
1022.99
1019.41
1015.42
1012.01
1008.34
1005.06
1001.59
998.416
995.066
991.908
988.501
985.07
981.327
977.791
974.208
970.82
967.321
964.001
960.712
957.428
953.812
950.099
946.478
943.119
939.805
936.539
933.2
929.854
926.547
923.385
920.259
917.105
913.976
910.937
907.925
904.923
902.028
899.279
896.635
894.07
891.558
889.155
886.963
884.968
883.026
881.163
879.44
877.878
876.431
875.163
874.039
873.065
872.152
871.333
870.521
869.826
869.107
868.529
867.917
867.456
866.847
866.418
865.889
865.526
865.126
864.74
864.368
863.924
863.537
863.083
862.649
862.198
861.74
861.38
861.062
860.678
860.455
860.134
860.038
859.87
859.579
859.229
858.778
858.159
857.203
855.608
852.728
848.322
841.953
834.928
828.031
821.964
817.031
812.523
808.112
803.338
798.394
1519.8
1453.72
1455.43
1400.04
1372.55
1358.22
1351.12
1348.04
1346.9
1346.58
1346.52
1346.7
1346.79
1345.96
1233.89
1177.6
1149.01
1135.36
1129.47
1127.07
1126.14
1125.81
1125.71
1125.7
1125.95
1126.08
1126.13
1126.15
1107.68
1093.51
1086.16
1078.82
1073.26
1068.75
1064.1
1060.23
1056.15
1052.76
1049.07
1046
1042.47
1039.43
1035.76
1032.53
1028.6
1025.15
1021.09
1017.55
1013.59
1010.2
1006.55
1003.29
999.826
996.646
993.288
990.106
986.673
983.205
979.424
975.837
972.201
968.755
965.202
961.831
958.503
955.183
951.54
947.806
944.179
940.825
937.53
934.295
930.999
927.707
924.469
921.386
918.351
915.302
912.288
909.368
906.482
903.609
900.834
898.191
895.633
893.13
890.652
888.252
886.031
883.982
881.966
880.009
878.174
876.493
874.912
873.513
872.257
871.157
870.114
869.162
868.219
867.383
866.528
865.808
865.038
864.432
863.69
863.144
862.484
862.002
861.467
860.987
860.53
860.031
859.588
859.094
858.565
858.065
857.525
857.107
856.731
856.316
856.022
855.574
855.34
855.161
854.983
854.714
854.183
853.344
852.053
850.038
846.66
841.836
835.27
828.342
821.766
815.753
810.696
806.05
801.658
796.981
792.294
1524.06
1457.14
1459.45
1400.17
1370.92
1355.59
1347.99
1344.6
1343.31
1342.95
1342.89
1344.08
1345.26
1345.73
1232.55
1175.11
1145.7
1131.56
1125.27
1122.57
1121.41
1120.94
1120.78
1120.73
1120.73
1120.79
1120.81
1120.82
1103.77
1090.03
1082.91
1075.75
1070.38
1065.94
1061.38
1057.57
1053.57
1050.25
1046.64
1043.64
1040.18
1037.19
1033.57
1030.38
1026.49
1023.08
1019.06
1015.55
1011.62
1008.26
1004.62
1001.36
997.898
994.709
991.338
988.13
984.673
981.168
977.355
973.721
970.043
966.55
962.959
959.553
956.203
952.866
949.217
945.482
941.869
938.536
935.274
932.082
928.838
925.607
922.438
919.434
916.487
913.535
910.624
907.812
905.037
902.275
899.603
897.049
894.562
892.109
889.656
887.247
884.982
882.863
880.749
878.671
876.694
874.865
873.126
871.574
870.168
868.927
867.743
866.655
865.587
864.616
863.648
862.798
861.89
861.161
860.305
859.647
858.882
858.287
857.619
857.04
856.489
855.923
855.41
854.861
854.243
853.683
853.038
852.532
852.055
851.63
851.254
850.817
850.506
850.212
849.927
849.598
848.947
847.977
846.322
843.993
840.244
835.137
828.629
821.851
815.525
809.499
804.257
799.413
794.932
790.275
785.678
1523.94
1456.91
1459.36
1399.61
1369.98
1354.4
1346.6
1342.95
1341.38
1340.84
1340.72
1341.11
1342.49
1343.05
1230.85
1173.97
1144.69
1128.54
1121.19
1117.8
1116.14
1115.35
1114.99
1114.85
1114.82
1114.83
1114.83
1114.83
1100.89
1086.59
1079.17
1072.74
1067.51
1063.08
1058.63
1054.85
1050.95
1047.67
1044.15
1041.2
1037.8
1034.84
1031.26
1028.11
1024.25
1020.88
1016.88
1013.4
1009.48
1006.13
1002.49
999.243
995.773
992.569
989.188
985.953
982.477
978.942
975.109
971.446
967.745
964.227
960.623
957.207
953.861
950.534
946.907
943.201
939.624
936.33
933.114
929.973
926.786
923.614
920.508
917.57
914.693
911.816
908.982
906.245
903.545
900.856
898.251
895.75
893.306
890.881
888.435
886.009
883.697
881.502
879.281
877.067
874.931
872.937
871.025
869.309
867.746
866.361
865.041
863.823
862.652
861.568
860.52
859.563
858.556
857.731
856.785
856.043
855.189
854.493
853.722
853.041
852.38
851.741
851.147
850.532
849.829
849.206
848.457
847.861
847.266
846.799
846.329
845.86
845.455
845.045
844.607
844.145
843.276
842.114
840.125
837.54
833.588
828.386
822.065
815.472
809.275
803.18
797.722
792.658
787.971
783.248
778.557
1522.57
1455.21
1457.43
1398.6
1369.48
1354.27
1346.68
1343.09
1341.53
1340.95
1340.77
1340.73
1340.75
1335.81
1226.52
1171.09
1142.45
1127.39
1120.53
1116.67
1113.81
1112.2
1110.64
1109.63
1108.66
1108.18
1107.49
1105.81
1097.07
1084.81
1076.27
1069.89
1064.76
1060.32
1055.98
1052.18
1048.39
1045.12
1041.69
1038.76
1035.42
1032.49
1028.94
1025.8
1021.96
1018.61
1014.61
1011.15
1007.23
1003.89
1000.24
996.985
993.504
990.287
986.895
983.64
980.156
976.604
972.773
969.102
965.408
961.893
958.307
954.913
951.602
948.313
944.739
941.087
937.568
934.327
931.164
928.076
924.939
921.815
918.755
915.859
913.023
910.184
907.385
904.679
902.005
899.339
896.748
894.255
891.813
889.381
886.922
884.469
882.114
879.856
877.545
875.214
872.937
870.795
868.728
866.868
865.171
863.662
862.236
860.916
859.677
858.512
857.421
856.388
855.317
854.426
853.412
852.601
851.67
850.889