/*--------------------------------*- C++ -*----------------------------------*\
| =========                 |                                                 |
| \\      /  F ield         | OpenFOAM: The Open Source CFD Toolbox           |
|  \\    /   O peration     | Version:  2212                                  |
|   \\  /    A nd           | Website:  www.openfoam.com                      |
|    \\/     M anipulation  |                                                 |
\*---------------------------------------------------------------------------*/
FoamFile
{
    version     2.0;
    format      ascii;
    arch        "LSB;label=32;scalar=64";
    class       surfaceScalarField;
    location    "0.0059";
    object      phi;
}
// * * * * * * * * * * * * * * * * * * * * * * * * * * * * * * * * * * * * * //

dimensions      [1 0 -1 0 0 0 0];

oriented        oriented;

internalField   nonuniform List<scalar> 
4475
(
3.83727e-08
1.48971e-07
-1.33794e-07
4.11913e-07
1.20324e-06
-1.50242e-06
-6.08845e-07
1.92732e-06
-1.88041e-06
2.14554e-06
-6.97905e-08
-1.89844e-07
-7.99293e-06
1.42237e-05
7.00473e-06
-1.15543e-05
-5.02206e-06
5.7455e-06
6.01661e-06
-4.63763e-06
8.37645e-06
-7.28154e-06
-8.1446e-06
8.81553e-06
-1.73545e-06
9.3244e-07
1.63838e-05
-1.36131e-05
-5.99343e-06
-6.86513e-06
8.21986e-06
6.58665e-06
4.56006e-06
-4.03954e-06
-3.58959e-06
-1.1903e-05
-1.37011e-07
1.42484e-06
1.05288e-05
-1.90083e-06
1.59797e-06
-1.21419e-05
-1.41437e-05
2.06769e-06
-1.59716e-06
1.24964e-05
-1.54713e-05
7.67696e-07
-1.00077e-06
-1.68151e-05
4.6156e-07
-8.85515e-07
-1.79521e-05
3.35078e-07
-9.6812e-07
-1.86414e-05
2.44907e-07
-1.10891e-06
2.35423e-07
-1.83073e-05
-1.73167e-06
1.82222e-05
-1.49707e-06
-1.78327e-05
3.96999e-07
1.86997e-05
-1.3895e-06
1.7957e-05
-5.99799e-07
1.67964e-05
-3.21756e-07
1.54899e-05
-4.92254e-08
1.43398e-05
3.02899e-07
1.46663e-05
4.62757e-07
1.23107e-05
-2.64036e-07
1.14761e-05
5.80899e-07
1.46932e-05
1.99476e-06
-4.79044e-06
1.43552e-05
4.13799e-07
9.79152e-07
1.65863e-05
-1.38429e-05
-2.07335e-06
-1.79107e-05
-2.62674e-06
1.48618e-05
4.34421e-07
5.45315e-07
1.56532e-05
5.04974e-07
5.49078e-07
1.66029e-05
5.73109e-07
5.90255e-07
1.75736e-05
6.60702e-07
6.40793e-07
1.85572e-05
6.44905e-07
6.89396e-07
1.94258e-05
6.76635e-07
7.0473e-07
2.01838e-05
6.42168e-07
6.7887e-07
2.08057e-05
5.62307e-07
6.49159e-07
2.12859e-05
4.74811e-07
5.93166e-07
2.15996e-05
4.33596e-07
5.08201e-07
2.18093e-05
3.48246e-07
4.29413e-07
2.18938e-05
3.05302e-07
3.75504e-07
2.18747e-05
2.86125e-07
3.3324e-07
2.18275e-05
2.42082e-07
3.02043e-07
1.96966e-07
2.18267e-05
2.62525e-07
-2.18301e-05
2.17225e-05
9.25162e-07
-2.1881e-05
9.53798e-07
-2.17929e-05
9.50379e-07
-2.16967e-05
1.10542e-06
-2.14769e-05
1.21773e-06
-2.11178e-05
1.39292e-06
-2.06065e-05
1.52898e-06
-2.00917e-05
1.85939e-06
-1.93361e-05
1.91302e-06
-1.84624e-05
1.97502e-06
-1.75974e-05
2.01895e-06
-1.66346e-05
1.89637e-06
-1.57248e-05
1.72305e-06
-1.49119e-05
1.49855e-06
-1.4416e-05
1.39637e-06
-1.46653e-05
1.71034e-06
-1.1453e-05
3.09679e-06
-5.85632e-06
-1.22093e-05
2.17405e-06
-1.21307e-05
1.12466e-06
-1.29007e-05
7.82361e-08
-1.29837e-08
-1.45478e-05
-1.05227e-06
-1.57587e-05
-1.30214e-06
-1.69774e-05
-1.38443e-06
-1.79983e-05
-1.65519e-06
-1.8475e-05
-2.11172e-06
-1.86402e-05
-2.67229e-06
3.22047e-07
2.74876e-07
2.17126e-05
9.63341e-07
2.17081e-05
1.86986e-05
-3.37062e-06
-1.79625e-05
1.8065e-05
-1.60754e-06
1.6959e-05
-1.06405e-06
1.56955e-05
-6.12135e-07
1.46952e-05
-3.02896e-07
1.39962e-05
-4.59373e-08
1.30063e-05
3.18416e-08
1.28173e-05
6.63445e-07
1.38437e-05
1.40774e-06
1.43892e-05
1.40003e-06
1.49445e-05
1.39185e-06
1.57316e-05
1.53092e-06
1.66361e-05
1.71533e-06
1.76067e-05
1.8646e-06
1.85379e-05
1.99618e-06
1.93627e-05
2.05202e-06
2.01109e-05
1.94839e-06
2.07015e-05
1.86053e-06
2.11574e-05
1.68933e-06
2.14734e-05
1.4906e-06
2.17049e-05
1.26392e-06
2.18183e-05
1.13688e-06
2.18644e-05
1.01999e-06
2.18431e-05
9.67497e-07
2.17731e-05
9.41958e-07
-2.11321e-06
-1.74847e-05
1.44497e-06
9.45337e-07
2.17293e-05
-4.17741e-06
-1.61069e-05
-1.81515e-05
-3.78037e-06
-2.17319e-05
2.1769e-05
1.88936e-06
-2.17627e-05
1.94852e-06
-2.165e-05
1.88165e-06
-2.16028e-05
2.01559e-06
-2.13991e-05
2.11172e-06
-2.11297e-05
2.27715e-06
-2.07902e-05
2.5189e-06
-2.04311e-05
2.78475e-06
-1.98166e-05
3.00445e-06
-1.91573e-05
3.13916e-06
-1.84627e-05
3.26294e-06
-1.76344e-05
3.21542e-06
-1.67858e-05
3.04046e-06
-1.59598e-05
2.76662e-06
-1.52643e-05
2.45602e-06
-1.47217e-05
2.19698e-06
-1.4216e-05
2.16055e-06
-1.29587e-05
2.34446e-06
-1.25724e-05
1.82799e-06
-1.29153e-05
1.0698e-06
-1.36217e-05
-1.16045e-08
-1.48387e-05
-1.01647e-06
-1.61024e-05
-1.54048e-06
-1.7258e-05
-1.89852e-06
-1.82698e-05
-2.27457e-06
-1.88254e-05
-2.92761e-06
-1.88329e-05
-3.64768e-06
-6.19049e-06
9.01648e-06
-6.52203e-06
7.26374e-06
-9.72931e-06
-5.10697e-06
8.89578e-06
-8.86931e-06
-6.32056e-06
1.02796e-05
6.01277e-06
7.98665e-06
2.14129e-05
-7.51435e-07
-1.6945e-06
-1.95912e-05
1.9315e-05
-2.57487e-06
1.8413e-05
-2.34279e-06
1.72267e-05
-1.70629e-06
1.60357e-05
-1.2257e-06
1.49794e-05
-8.07609e-07
1.41862e-05
-4.0691e-07
1.35734e-05
2.5086e-08
1.34646e-05
6.84495e-07
1.39582e-05
1.35791e-06
1.45291e-05
1.73986e-06
1.5184e-05
2.04592e-06
1.5958e-05
2.38499e-06
1.68236e-05
2.70367e-06
1.76657e-05
3.00335e-06
1.84976e-05
3.1783e-06
1.92699e-05
3.25207e-06
1.98813e-05
3.20744e-06
2.04155e-05
3.06025e-06
2.08401e-05
2.84804e-06
2.12211e-05
2.54382e-06
2.14399e-05
2.34225e-06
2.15887e-05
2.16827e-06
2.17215e-05
1.9777e-06
2.18148e-05
1.90477e-06
2.18111e-05
1.94142e-06
2.17547e-05
1.98402e-06
-1.05883e-06
2.17473e-05
2.0516e-06
-2.68229e-07
2.16243e-05
4.06714e-07
2.15931e-05
1.14581e-06
2.16439e-05
-5.4833e-06
6.6587e-06
-5.80177e-06
2.17346e-05
2.12671e-06
-4.54056e-06
-5.39732e-06
6.42914e-06
-2.93492e-06
7.55033e-06
2.44749e-06
-5.18047e-06
-5.62559e-06
-1.68502e-05
3.34078e-06
-2.2258e-06
4.30019e-06
-3.6617e-06
7.27993e-06
6.6948e-06
-5.92704e-06
-2.06859e-05
-1.02728e-06
4.47236e-06
-1.86155e-05
-4.51351e-06
-1.08055e-06
2.15767e-06
2.16717e-05
-2.35257e-07
2.15551e-05
5.29499e-07
2.14956e-05
1.30615e-06
2.16185e-05
2.25735e-06
2.17216e-05
-2.18663e-05
3.32696e-06
2.18621e-05
-2.17425e-05
3.18266e-06
-2.17683e-05
3.1994e-06
-2.15953e-05
3.15011e-06
-2.15266e-05
3.26357e-06
-2.13107e-05
3.31381e-06
-2.10581e-05
3.42358e-06
-2.07283e-05
3.55126e-06
-2.03787e-05
3.80353e-06
-1.9994e-05
4.06134e-06
-1.95303e-05
4.22735e-06
-1.90149e-05
4.33426e-06
-1.83909e-05
4.36689e-06
-1.77259e-05
4.28073e-06
-1.70191e-05
4.03646e-06
-1.62922e-05
3.661e-06
-1.56415e-05
3.27368e-06
-1.50346e-05
2.81928e-06
-1.44492e-05
2.48049e-06
-1.3734e-05
2.15597e-06
-1.35299e-05
1.66454e-06
-1.35799e-05
7.26922e-07
-1.42422e-05
-1.76636e-07
-1.53179e-05
-1.15278e-06
-1.64551e-05
-1.89507e-06
-1.76023e-05
-2.35724e-06
-1.85163e-05
-2.86373e-06
-1.91355e-05
-3.51204e-06
-4.324e-06
-1.92628e-05
-6.06399e-07
5.0006e-08
-1.7356e-05
1.88338e-05
-3.73065e-07
6.63798e-07
-4.21571e-07
4.22472e-07
7.26585e-06
-5.94788e-06
6.83972e-06
1.00955e-05
-1.11226e-06
2.12726e-06
1.31786e-05
2.40971e-07
-1.41795e-06
1.57284e-05
2.66635e-07
1.76023e-05
-2.36307e-07
-8.92485e-08
1.89509e-05
-9.53313e-07
1.99449e-05
-1.49906e-06
7.98384e-07
2.07054e-05
-1.9607e-06
1.97519e-05
-2.69682e-06
1.87375e-05
-2.82358e-06
1.76049e-05
-2.31064e-06
1.64682e-05
-1.822e-06
1.54203e-05
-1.25905e-06
1.46596e-05
-7.36556e-07
1.41447e-05
-3.93925e-08
1.40763e-05
6.99712e-07
1.443e-05
1.44891e-06
1.49594e-05
2.07738e-06
1.5573e-05
2.63522e-06
1.62678e-05
3.13605e-06
1.70455e-05
3.52909e-06
1.77468e-05
3.98866e-06
1.84519e-05
4.18429e-06
1.90519e-05
4.35639e-06
1.95868e-05
4.35365e-06
2.00419e-05
4.26012e-06
2.0518e-05
4.00399e-06
2.08304e-05
3.84044e-06
2.10841e-05
3.66997e-06
2.13721e-05
3.43109e-06
2.16033e-05
3.26317e-06
2.17177e-05
3.26389e-06
2.18288e-05
3.2488e-06
2.19005e-05
3.26365e-06
2.1926e-05
3.29805e-06
3.32016e-06
2.19476e-05
-2.80971e-07
-2.0777e-06
1.67537e-06
6.87425e-07
-3.93973e-06
5.03349e-06
1.07061e-06
-9.50841e-07
-2.17416e-07
2.46653e-07
3.06632e-06
1.45652e-05
-2.00294e-06
-1.4003e-05
1.90935e-06
4.58293e-07
-8.2705e-07
-1.53259e-06
-3.0709e-06
-3.22969e-06
-5.91729e-06
-1.82587e-05
-1.6958e-05
-1.3021e-06
1.91945e-05
-2.17648e-05
2.18271e-05
4.25505e-06
-2.17827e-05
4.40325e-06
-2.16025e-05
4.4151e-06
-2.15457e-05
4.65138e-06
-2.13072e-05
4.70839e-06
-2.10501e-05
4.81692e-06
-2.07573e-05
4.92402e-06
-2.04521e-05
5.03237e-06
-2.0122e-05
5.21853e-06
-1.97127e-05
5.33265e-06
-1.93016e-05
5.4204e-06
-1.8873e-05
5.43805e-06
-1.83732e-05
5.34097e-06
-1.78813e-05
5.2219e-06
-1.73246e-05
4.87875e-06
-1.67724e-05
4.4577e-06
-1.61513e-05
3.90656e-06
-1.55784e-05
3.33902e-06
-1.50193e-05
2.75751e-06
-1.45041e-05
2.15024e-06
-1.42793e-05
1.49878e-06
-1.43641e-05
4.2289e-07
-1.49782e-05
-3.80906e-07
-1.59515e-05
-1.37914e-06
-1.70002e-05
-2.29144e-06
-1.80084e-05
-2.83669e-06
-1.8804e-05
-3.37545e-06
-1.92606e-05
-4.02718e-06
-1.95131e-05
-4.6231e-06
-4.94508e-06
-1.91243e-05
-2.11259e-06
-1.87424e-06
3.1681e-06
-3.22228e-06
-4.5701e-06
6.30916e-06
3.38282e-06
1.05714e-05
-4.04633e-07
-8.99274e-06
1.31788e-05
-2.35175e-07
1.5514e-05
-1.50372e-07
1.73967e-05
-5.13568e-07
1.88744e-05
-1.31729e-06
1.99003e-05
-2.03576e-06
2.03646e-05
-2.63266e-06
1.99462e-05
-3.11592e-06
1.90567e-05
-3.21701e-06
1.81003e-05
-2.92335e-06
1.69869e-05
-2.31871e-06
1.60413e-05
-1.71934e-06
1.52946e-05
-1.0041e-06
1.48684e-05
-1.31962e-07
1.48084e-05
7.41479e-07
1.5086e-05
1.61892e-06
1.5555e-05
2.41335e-06
1.615e-05
3.10724e-06
1.67974e-05
3.72692e-06
1.73607e-05
4.29776e-06
1.79624e-05
4.76435e-06
1.84334e-05
5.11932e-06
1.89014e-05
5.33198e-06
1.93228e-05
5.43233e-06
1.98109e-05
5.34913e-06
2.01574e-05
5.31852e-06
2.047e-05
5.26232e-06
2.08482e-05
5.08276e-06
2.11919e-05
4.90759e-06
2.13943e-05
4.86929e-06
2.1585e-05
4.82561e-06
2.17886e-05
4.69987e-06
2.1905e-05
4.66502e-06
2.20037e-05
4.54619e-06
2.20141e-05
4.4655e-06
-3.37763e-06
4.34569e-06
2.20002e-05
-2.26798e-06
2.19278e-05
-1.19653e-06
2.16215e-05
-2.51856e-07
2.14909e-05
5.43705e-07
2.15057e-05
1.50114e-06
2.15041e-05
2.50493e-06
2.16522e-05
3.47161e-06
2.18399e-05
2.18614e-05
4.21237e-06
1.20446e-06
3.08875e-07
-3.60146e-07
-3.75974e-08
-2.68754e-08
1.90094e-06
-1.83008e-06
2.57881e-07
-1.75612e-07
1.20781e-07
-2.02924e-07
-2.84299e-06
-2.26469e-06
3.03099e-07
1.71436e-07
1.67828e-07
1.88372e-07
-3.30908e-07
-5.0044e-07
-1.91703e-05
-5.29181e-06
-5.66795e-06
-1.90705e-05
-1.3599e-06
-1.36984e-06
1.71018e-06
-1.50736e-06
-1.33693e-06
1.35463e-06
2.53567e-07
5.33284e-08
5.6757e-08
1.20261e-07
7.81606e-06
8.99189e-06
1.06046e-05
-8.62268e-06
-3.96797e-07
1.26751e-05
-2.93213e-07
1.49504e-05
-5.10292e-07
1.69368e-05
-8.63728e-07
1.85159e-05
-1.67657e-06
1.96209e-05
-2.46065e-06
2.01445e-05
-3.09448e-06
2.00253e-05
-3.54941e-06
1.94574e-05
-3.66297e-06
1.86144e-05
-3.41365e-06
1.77016e-05
-2.84173e-06
1.68064e-05
-2.10746e-06
1.61139e-05
-1.24176e-06
1.57379e-05
-2.26556e-07
1.56791e-05
7.97078e-07
1.59077e-05
1.80346e-06
1.63187e-05
2.71794e-06
1.68128e-05
3.52537e-06
1.72792e-05
4.27578e-06
1.77218e-05
4.91904e-06
1.81277e-05
5.45378e-06
1.85113e-05
5.87955e-06
1.88526e-05
6.21593e-06
1.9278e-05
6.34795e-06
1.96036e-05
6.49737e-06
1.98821e-05
6.6442e-06
2.02902e-05
6.57342e-06
2.06804e-05
6.49449e-06
2.0938e-05
6.4809e-06
2.11846e-05
6.42025e-06
2.14775e-05
6.23846e-06
2.16185e-05
6.11423e-06
2.17866e-05
5.85638e-06
2.18967e-05
5.56806e-06
2.19322e-05
5.31557e-06
2.19077e-05
5.0001e-06
-4.21771e-06
4.66101e-06
2.18428e-05
-3.42646e-06
2.19642e-05
-2.33951e-06
2.18286e-05
-1.38973e-06
2.17059e-05
-3.94906e-07
2.1492e-05
6.67104e-07
2.1396e-05
1.66962e-06
2.14462e-05
2.59536e-06
2.1659e-05
3.50148e-06
2.17563e-05
4.12194e-06
2.18037e-05
-2.16203e-05
2.15697e-05
4.37502e-06
-2.1641e-05
4.68792e-06
-2.1659e-05
4.98759e-06
-2.15875e-05
5.30098e-06
-2.15479e-05
5.58726e-06
-2.13186e-05
5.84461e-06
-2.10959e-05
6.07646e-06
-2.08319e-05
6.25952e-06
-2.05169e-05
6.36984e-06
-2.02478e-05
6.51953e-06
-1.99083e-05
6.5788e-06
-1.95647e-05
6.59097e-06
-1.91963e-05
6.53484e-06
-1.88638e-05
6.467e-06
-1.8507e-05
6.23811e-06
-1.81031e-05
5.9944e-06
-1.76783e-05
5.57992e-06
-1.72359e-05
5.10643e-06
-1.67542e-05
4.4624e-06
-1.62597e-05
3.7776e-06
-1.5777e-05
3.0174e-06
-1.53811e-05
2.2179e-06
-1.52799e-05
1.43423e-06
-1.54074e-05
1.7756e-07
-1.59845e-05
-5.94956e-07
-1.67534e-05
-1.75406e-06
-1.76526e-05
-2.72456e-06
-1.8467e-05
-3.31328e-06
-1.90616e-05
-3.82566e-06
-1.9461e-05
-4.32017e-06
-4.91611e-06
-1.93822e-05
-1.49589e-06
-1.4244e-06
2.31251e-06
-5.66049e-06
-1.86353e-05
-2.00599e-05
-5.06494e-06
7.00258e-06
5.2282e-07
-9.48642e-07
-9.81351e-07
1.72584e-06
-9.86764e-07
-9.90668e-07
2.36427e-06
-1.54438e-06
-2.23321e-06
2.77731e-06
-3.10299e-06
-2.91526e-06
4.73623e-06
-5.18397e-07
1.47494e-06
8.37722e-06
-5.71923e-07
-6.56306e-06
1.02607e-05
-3.30477e-07
1.23195e-05
-3.8597e-07
1.43556e-05
-6.7913e-07
1.63578e-05
-1.21386e-06
1.79734e-05
-1.97647e-06
1.92056e-05
-2.81365e-06
1.98691e-05
-3.39849e-06
2.00527e-05
-3.92919e-06
1.97776e-05
-4.07011e-06
1.92019e-05
-3.85381e-06
1.84722e-05
-3.30429e-06
1.77055e-05
-2.45898e-06
1.70922e-05
-1.46363e-06
1.67408e-05
-3.12067e-07
1.66715e-05
8.41645e-07
1.68483e-05
1.9617e-06
1.71389e-05
3.01355e-06
1.75038e-05
3.8911e-06
1.78472e-05
4.7313e-06
1.81586e-05
5.44209e-06
1.84439e-05
6.04269e-06
1.87206e-05
6.54416e-06
1.90268e-05
6.95042e-06
1.9285e-05
7.25289e-06
1.95059e-05
7.56977e-06
1.98883e-05
7.67433e-06
2.02394e-05
7.72168e-06
2.04761e-05
7.79285e-06
2.07141e-05
7.75585e-06
2.10102e-05
7.55961e-06
2.11614e-05
7.3904e-06
2.13812e-05
7.02053e-06
2.15339e-05
6.61954e-06
2.15605e-05
6.22064e-06
2.15992e-05
5.70631e-06
2.15892e-05
5.18643e-06
2.15321e-05
4.64537e-06
-4.27322e-06
2.14083e-05
4.09072e-06
-4.02209e-06
2.17325e-05
-3.40341e-06
2.19044e-05
-2.51777e-06
2.1811e-05
-1.39954e-06
2.16287e-05
-3.28362e-07
2.15366e-05
7.48674e-07
2.14267e-05
1.76919e-06
2.14777e-05
2.76569e-06
2.15917e-05
3.49801e-06
2.17268e-05
3.98722e-06
2.16752e-05
4.06461e-06
2.14579e-05
-2.1145e-05
2.10401e-05
3.74881e-06
-2.12189e-05
4.24882e-06
-2.12551e-05
4.76138e-06
-2.12692e-05
5.28421e-06
-2.1232e-05
5.79133e-06
-2.11468e-05
6.26597e-06
-2.10211e-05
6.70147e-06
-2.08432e-05
7.07026e-06
-2.06298e-05
7.36574e-06
-2.0406e-05
7.56351e-06
-2.01002e-05
7.66953e-06
-1.98336e-05
7.7514e-06
-1.95511e-05
7.6859e-06
-1.92789e-05
7.54114e-06
-1.89859e-05
7.33721e-06
-1.87271e-05
7.03165e-06
-1.8421e-05
6.64862e-06
-1.81643e-05
6.22359e-06
-1.7808e-05
5.61779e-06
-1.74447e-05
4.93025e-06
-1.70547e-05
4.14666e-06
-1.66854e-05
3.26546e-06
-1.64074e-05
2.32474e-06
-1.62943e-05
1.33851e-06
-1.65835e-05
1.05267e-07
-1.70107e-05
-9.09747e-07
-1.77138e-05
-2.08222e-06
-1.83911e-05
-3.19079e-06
-1.89508e-05
-3.76907e-06
-1.92751e-05
-4.23366e-06
-1.93193e-05
-4.60785e-06
-4.96479e-06
-1.91001e-05
-1.88977e-05
-5.46065e-06
-9.12849e-07
-9.60223e-07
-9.86962e-07
-1.01031e-06
1.66682e-06
-1.57949e-07
-5.86283e-07
6.00605e-07
1.44692e-07
-1.78763e-05
-5.8767e-06
-2.56022e-06
-2.24039e-06
1.75471e-06
-1.79771e-06
-1.75187e-06
-1.06917e-06
-1.17394e-06
-1.71795e-06
-4.31819e-06
-1.29347e-05
-3.82443e-06
-9.41072e-06
1.7494e-06
-1.74544e-05
-5.20829e-06
-6.08457e-07
-5.53504e-07
-4.99206e-07
-6.82593e-07
-3.86179e-06
3.53803e-06
2.12155e-05
-3.83516e-06
2.16225e-05
-3.37472e-06
2.17997e-05
-2.56248e-06
2.17463e-05
-1.54458e-06
2.16651e-05
-3.20397e-07
2.15362e-05
8.42427e-07
2.15277e-05
1.98498e-06
2.14946e-05
2.88772e-06
2.16113e-05
3.56014e-06
2.16358e-05
3.85741e-06
2.15485e-05
3.73498e-06
2.13308e-05
3.22263e-06
2.09324e-05
-2.05147e-05
2.52147e-06
2.03997e-05
-2.05615e-05
3.1062e-06
-2.06353e-05
3.77976e-06
-2.06672e-05
4.41278e-06
-2.07062e-05
5.11676e-06
-2.07086e-05
5.76809e-06
-2.06637e-05
6.38057e-06
-2.06092e-05
6.99069e-06
-2.05005e-05
7.48113e-06
-2.03813e-05
7.92488e-06
-2.02335e-05
8.22568e-06
-2.00669e-05
8.40993e-06
-1.98343e-05
8.48055e-06
-1.96426e-05
8.46681e-06
-1.9449e-05
8.29534e-06
-1.92322e-05
8.01701e-06
-1.90565e-05
7.6857e-06
-1.88826e-05
7.23756e-06
-1.86536e-05
6.70179e-06
-1.8455e-05
6.09205e-06
-1.82183e-05
5.33706e-06
-1.79616e-05
4.47331e-06
-1.77184e-05
3.49244e-06
-1.7551e-05
2.4161e-06
-1.75089e-05
1.26531e-06
-1.76463e-05
-1.12523e-07
-1.81883e-05
-1.02601e-06
-1.86193e-05
-2.50646e-06
-1.92313e-05
-3.43946e-06
-1.94297e-05
-4.23978e-06
-1.94064e-05
-4.60737e-06
-1.9134e-05
-4.78085e-06
-4.81354e-06
-1.87115e-05
-5.45313e-06
-1.84539e-05
5.71546e-06
-4.51711e-06
-5.10934e-06
-5.21665e-07
-5.85603e-07
8.36379e-06
-4.54419e-06
5.12397e-06
-7.56666e-06
-1.87834e-06
1.33224e-07
1.8459e-06
-9.51765e-08
9.89234e-06
-3.32457e-07
-7.92294e-06
1.18909e-05
-4.66599e-07
1.38584e-05
-8.33842e-07
1.57128e-05
-1.42447e-06
1.73066e-05
-2.16614e-06
1.86121e-05
-3.034e-06
1.95166e-05
-3.62213e-06
2.0006e-05
-4.2087e-06
2.00665e-05
-4.39972e-06
1.97917e-05
-4.21284e-06
1.92922e-05
-3.66679e-06
1.87298e-05
-2.79673e-06
1.82211e-05
-1.6755e-06
1.79022e-05
-4.08026e-07
1.77926e-05
8.70406e-07
1.78696e-05
2.10389e-06
1.80884e-05
3.22106e-06
1.82799e-05
4.24525e-06
1.84865e-05
5.13337e-06
1.86806e-05
5.89733e-06
1.88618e-05
6.55374e-06
1.9046e-05
7.11798e-06
1.92443e-05
7.59116e-06
1.9442e-05
7.97736e-06
1.9717e-05
8.2885e-06
1.99098e-05
8.51985e-06
2.01199e-05
8.55356e-06
2.03086e-05
8.6052e-06
2.05386e-05
8.44271e-06
2.06544e-05
8.23636e-06
2.08288e-05
7.85377e-06
2.09665e-05
7.34442e-06
2.09751e-05
6.88196e-06
2.1009e-05
6.26223e-06
2.10293e-05
5.56539e-06
2.10352e-05
4.86747e-06
2.0956e-05
4.22755e-06
2.08616e-05
3.52301e-06
2.07091e-05
2.88657e-06
-6.08687e-07
-6.03088e-07
1.12854e-06
-5.44774e-07
-5.74203e-07
-1.79344e-06
4.30719e-08
-1.52739e-07
1.90649e-06
-1.29778e-05
-4.89775e-06
-1.11143e-07
-1.61552e-05
-5.69833e-06
-1.98265e-05
1.97506e-05
1.79403e-06
-1.99044e-05
2.40511e-06
-1.99199e-05
3.05185e-06
-1.99877e-05
3.7857e-06
-1.9997e-05
4.49492e-06
-2.00492e-05
5.2693e-06
-2.00835e-05
5.96211e-06
-2.00676e-05
6.63709e-06
-2.00879e-05
7.29237e-06
-2.00347e-05
7.80028e-06
-2.001e-05
8.26761e-06
-1.99528e-05
8.54958e-06
-1.98809e-05
8.7219e-06
-1.97651e-05
8.75931e-06
-1.96779e-05
8.68681e-06
-1.95869e-05
8.44635e-06
-1.94684e-05
8.09971e-06
-1.93695e-05
7.65893e-06
-1.92831e-05
7.11262e-06
-1.91719e-05
6.44836e-06
-1.90713e-05
5.67182e-06
-1.89582e-05
4.73525e-06
-1.88559e-05
3.67187e-06
-1.88037e-05
2.47583e-06
-1.88414e-05
1.18843e-06
-1.91473e-05
-1.5993e-07
-1.93001e-05
-1.41739e-06
-1.95761e-05
-2.84062e-06
-1.98104e-05
-3.6978e-06
-1.98592e-05
-4.44756e-06
-1.95163e-05
-4.83045e-06
-1.88809e-05
-4.85915e-06
-1.82105e-05
-4.50316e-06
-5.11828e-06
-1.8032e-05
7.5767e-06
-5.21138e-06
5.38916e-06
-2.68344e-07
-2.3817e-07
-2.98346e-06
2.26699e-06
2.05106e-05
-3.49866e-06
2.10308e-05
-3.63154e-06
2.14518e-05
-3.31742e-06
2.16311e-05
-2.65851e-06
2.17199e-05
-1.66041e-06
2.17401e-05
-4.07393e-07
2.16235e-05
9.38229e-07
2.15851e-05
2.09223e-06
2.16025e-05
3.01979e-06
2.16098e-05
3.564e-06
2.15532e-05
3.62637e-06
2.14679e-05
3.32978e-06
2.11802e-05
2.71712e-06
2.07565e-05
1.94331e-06
2.02559e-05
1.17602e-06
1.96986e-05
5.73734e-06
-3.80844e-06
-4.51266e-06
6.16388e-07
-4.00728e-07
1.21184e-06
-8.40601e-07
1.95882e-06
-1.35196e-06
-1.9481e-06
-8.39365e-06
8.20974e-06
1.00153e-05
-4.39322e-06
-1.08966e-05
-2.01094e-06
2.65682e-06
-7.78359e-07
7.89443e-07
-6.44206e-06
-9.72314e-06
9.69666e-06
9.60935e-06
-3.00827e-07
-7.8173e-06
1.14699e-05
-5.34758e-07
1.3289e-05
-9.41568e-07
1.50026e-05
-1.53222e-06
1.65834e-05
-2.27777e-06
1.79052e-05
-3.07577e-06
1.90896e-05
-3.79801e-06
1.98842e-05
-4.36004e-06
2.03069e-05
-4.61002e-06
2.03772e-05
-4.4737e-06
2.01848e-05
-3.93879e-06
1.98313e-05
-3.0512e-06
1.94601e-05
-1.87965e-06
1.91836e-05
-5.2179e-07
1.90492e-05
8.4032e-07
1.90199e-05
2.19123e-06
1.90547e-05
3.42001e-06
1.91249e-05
4.50751e-06
1.92048e-05
5.46026e-06
1.92797e-05
6.27498e-06
1.93617e-05
6.97023e-06
1.94575e-05
7.56074e-06
1.95663e-05
8.04931e-06
1.96827e-05
8.43319e-06
1.98104e-05
8.70788e-06
1.99575e-05
8.86362e-06
2.00376e-05
8.8762e-06
2.01514e-05
8.77947e-06
2.01979e-05
8.55357e-06
2.02825e-05
8.16708e-06
2.03608e-05
7.6455e-06
2.03026e-05
7.13214e-06
2.03478e-05
6.43593e-06
2.03788e-05
5.71242e-06
2.03641e-05
4.95759e-06
2.02707e-05
4.25217e-06
2.02359e-05
3.48434e-06
2.01718e-05
2.75614e-06
2.00661e-05
2.12421e-06
1.99437e-05
1.50117e-06
-1.28371e-07
-1.75346e-06
9.1583e-08
-6.32299e-06
-1.6944e-05
-1.03925e-05
6.52915e-06
-3.18295e-07
-2.75227e-07
7.05915e-07
-2.20668e-07
-2.52235e-07
-2.56791e-07
-2.30239e-07
1.90139e-06
1.39791e-07
-1.9942e-06
-1.88876e-06
-1.50227e-07
1.76184e-06
1.23737e-05
-4.80591e-06
-1.46475e-05
-3.62396e-06
-1.82307e-05
1.17957e-05
7.98671e-06
-7.85621e-06
3.47115e-07
1.32306e-06
-4.17293e-07
2.85429e-06
-4.5943e-06
-6.30387e-06
9.4971e-06
-8.8045e-08
1.98786e-06
2.2446e-07
-2.11868e-06
-1.91803e-05
1.91285e-05
6.47808e-07
-1.91919e-05
1.17059e-06
-1.91823e-05
1.701e-06
-1.92134e-05
2.32571e-06
-1.92222e-05
2.9769e-06
-1.9281e-05
3.6843e-06
-1.92973e-05
4.37963e-06
-1.93757e-05
5.12046e-06
-1.94658e-05
5.82102e-06
-1.95285e-05
6.49542e-06
-1.96241e-05
7.11581e-06
-1.96797e-05
7.65198e-06
-1.97495e-05
8.08079e-06
-1.98082e-05
8.3886e-06
-1.98595e-05
8.5672e-06
-1.98769e-05
8.60369e-06
-1.99006e-05
8.49741e-06
-1.9919e-05
8.24281e-06
-1.99276e-05
7.85606e-06
-1.99307e-05
7.33183e-06
-1.99645e-05
6.69341e-06
-1.99895e-05
5.88034e-06
-2.00362e-05
4.91446e-06
-2.00987e-05
3.77831e-06
-2.01689e-05
2.47889e-06
-2.02644e-05
1.06819e-06
-2.04332e-05
-3.29517e-07
-2.06352e-05
-1.59482e-06
-2.06786e-05
-3.08802e-06
-2.05514e-05
-3.90679e-06
-2.01433e-05
-4.61134e-06
-1.94666e-05
-4.86629e-06
-1.86917e-05
-4.60981e-06
-1.78189e-05
-4.05458e-06
-2.61423e-06
-1.72732e-05
6.69251e-06
-4.3566e-06
7.06034e-07
-3.81223e-07
1.85546e-07
-4.27327e-07
3.34109e-07
1.05772e-06
-1.65279e-06
9.41128e-07
1.97623e-05
-2.42114e-06
2.02775e-05
-3.08411e-06
2.08204e-05
-3.36997e-06
2.12148e-05
-3.27047e-06
2.14931e-05
-2.6871e-06
2.16778e-05
-1.6238e-06
2.1755e-05
-3.2707e-07
2.17678e-05
9.51341e-07
2.18433e-05
2.17281e-06
2.17435e-05
3.065e-06
2.16533e-05
3.47079e-06
2.15139e-05
3.41563e-06
2.13222e-05
2.97436e-06
2.09789e-05
2.21729e-06
2.05749e-05
1.39371e-06
2.0084e-05
7.23795e-07
1.95429e-05
2.44852e-07
1.90787e-05
-7.16898e-06
2.48712e-07
-1.96515e-07
7.12117e-07
-5.54203e-07
1.26427e-06
-9.45991e-07
1.76278e-06
-1.29379e-06
-1.97494e-06
2.30506e-06
-1.4287e-07
1.80453e-07
-2.37928e-07
4.71332e-07
7.86985e-06
-3.54954e-08
-6.40278e-06
5.31422e-08
9.43247e-06
-2.85646e-07
1.10793e-05
-6.02766e-07
1.27177e-05
-1.0124e-06
1.43048e-05
-1.57647e-06
1.5822e-05
-2.28151e-06
1.72611e-05
-3.05456e-06
1.85928e-05
-3.79909e-06
1.96855e-05
-4.36907e-06
2.04807e-05
-4.67661e-06
2.09399e-05
-4.60413e-06
2.10914e-05
-4.11194e-06
2.10092e-05
-3.22989e-06
2.08011e-05
-2.04319e-06
2.05687e-05
-6.46955e-07
2.03659e-05
8.01271e-07
2.02285e-05
2.22233e-06
2.0122e-05
3.52923e-06
2.00398e-05
4.69059e-06
1.99789e-05
5.68739e-06
1.99359e-05
6.52822e-06
1.99133e-05
7.22685e-06
1.99071e-05
7.79267e-06
1.99117e-05
8.22606e-06
1.99119e-05
8.53133e-06
1.9908e-05
8.69176e-06
1.98978e-05
8.71079e-06
1.9868e-05
8.59175e-06
1.98345e-05
8.34441e-06
1.98118e-05
7.96361e-06
1.97719e-05
7.46954e-06
1.96602e-05
6.92217e-06
1.96453e-05
6.24505e-06
1.96098e-05
5.53241e-06
1.95896e-05
4.78557e-06
1.95101e-05
4.10698e-06
1.9516e-05
3.35194e-06
1.95076e-05
2.64535e-06
1.94361e-05
2.03599e-06
1.94194e-05
1.40696e-06
1.93485e-05
8.94432e-07
1.92557e-05
4.13139e-07
4.81998e-06
-3.17246e-06
-3.68081e-06
-6.88076e-06
-1.613e-05
-2.50537e-07
5.58171e-07
-8.14783e-07
1.41931e-06
-8.37434e-07
1.19391e-06
-3.49838e-07
-4.16938e-07
6.96605e-07
-9.92062e-08
2.74891e-09
-1.52385e-05
-6.0009e-06
4.53576e-08
4.18846e-08
-2.0997e-08
2.6669e-08
3.98023e-08
-2.00611e-06
1.9585e-06
-3.54288e-08
-4.66659e-07
2.94979e-07
-1.45681e-07
5.63844e-07
1.97106e-06
-1.76077e-06
2.54971e-07
1.40599e-05
-6.93026e-06
1.49201e-05
3.96429e-06
-4.56946e-06
8.20739e-06
4.71196e-06
-1.84691e-06
1.87169e-06
-1.74085e-07
-1.76622e-07
-1.79507e-06
1.69153e-05
-3.04779e-06
1.81632e-05
-3.69641e-06
1.93698e-05
-4.35394e-06
2.03839e-05
-4.69796e-06
2.12122e-05
-4.63165e-06
2.17601e-05
-4.04012e-06
2.18404e-05
-3.0881e-06
2.19812e-05
-1.89298e-06
2.18509e-05
-4.8881e-07
2.16449e-05
9.37149e-07
2.14142e-05
2.39977e-06
2.11773e-05
3.75925e-06
2.09535e-05
4.93723e-06
2.07564e-05
5.91621e-06
2.05939e-05
6.70671e-06
2.04327e-05
7.31131e-06
2.02854e-05
7.7432e-06
2.01295e-05
8.01313e-06
1.9971e-05
8.10983e-06
1.98023e-05
8.05326e-06
1.96159e-05
7.86067e-06
1.94258e-05
7.52649e-06
1.92332e-05
7.09449e-06
1.90519e-05
6.57076e-06
1.88931e-05
5.97737e-06
1.87555e-05
5.3486e-06
1.8646e-05
4.70084e-06
1.85789e-05
4.04646e-06
1.85283e-05
3.40117e-06
1.85039e-05
2.8043e-06
1.85193e-05
2.18847e-06
1.85374e-05
1.6647e-06
1.85656e-05
1.15368e-06
1.86227e-05
7.06669e-07
1.86368e-05
3.2576e-07
1.86668e-05
-3.95042e-09
-1.36593e-07
-1.7435e-06
1.30185e-07
-4.11832e-07
1.18514e-08
1.90969e-05
-1.07379e-06
1.95393e-05
-1.89657e-06
2.0025e-05
-2.63336e-06
2.05193e-05
-3.05944e-06
2.09258e-05
-3.06982e-06
2.13175e-05
-2.52342e-06
2.15862e-05
-1.53995e-06
2.18611e-05
-3.23696e-07
2.20773e-05
9.67176e-07
2.21956e-05
2.14142e-06
2.20092e-05
2.9643e-06
2.17809e-05
3.29149e-06
2.14796e-05
3.13908e-06
2.11264e-05
2.5518e-06
2.07374e-05
1.71848e-06
2.03263e-05
9.18058e-07
1.98267e-05
2.68805e-07
1.93732e-05
-6.86546e-08
1.89425e-05
-1.84435e-07
1.86512e-05
6.13337e-06
-3.83964e-06
-8.64787e-06
-1.47421e-05
-1.37422e-06
2.15422e-06
1.82895e-06
-4.02316e-07
-2.07534e-06
1.64513e-06
8.36443e-07
-2.90283e-07
1.79271e-06
-2.27328e-07
1.84706e-06
-2.25716e-07
1.87333e-06
-1.84588e-06
-2.29177e-07
1.85252e-06
-1.80283e-06
-2.13645e-07
-1.77085e-06
-2.04984e-07
2.21196e-07
-3.10845e-07
-1.67761e-06
1.11842e-05
-7.93502e-06
-5.92275e-08
-1.66603e-06
1.68178e-06
4.7351e-08
5.62669e-08
-2.11162e-07
1.33524e-08
-1.9644e-07
-7.33404e-07
9.73155e-07
1.36775e-07
-6.23284e-07
-4.49292e-07
-5.53714e-07
9.44455e-07
-6.57867e-08
-2.09215e-07
6.21254e-08
2.36666e-07
-5.29277e-06
-1.31067e-05
3.86951e-06
-2.58796e-06
-2.85101e-06
3.87773e-08
-1.23568e-07
-3.85234e-08
-6.90253e-08
3.48516e-07
-3.46081e-07
7.79466e-07
-6.30473e-07
1.34211e-06
-9.5618e-07
-1.32059e-06
1.7469e-06
-3.13076e-06
5.65546e-06
1.27616e-06
2.10903e-06
-1.30776e-06
-1.63537e-06
1.47156e-06
6.5318e-06
3.5238e-07
-1.89731e-07
-5.33882e-06
7.95203e-06
-2.64353e-08
9.38635e-06
-2.701e-07
1.07958e-05
-5.76276e-07
1.2204e-05
-9.85233e-07
1.36168e-05
-1.52514e-06
1.50585e-05
-2.18728e-06
1.65478e-05
-2.9294e-06
1.80295e-05
-3.65097e-06
1.94226e-05
-4.24532e-06
2.05871e-05
-4.58167e-06
2.14549e-05
-4.58054e-06
2.1984e-05
-4.15407e-06
2.22064e-05
-3.32251e-06
2.21882e-05
-2.15989e-06
2.20274e-05
-7.71816e-07
2.17906e-05
6.84917e-07
2.15236e-05
2.15475e-06
2.12561e-05
3.51347e-06
2.10149e-05
4.71064e-06
2.07956e-05
5.73976e-06
2.06094e-05
6.57832e-06
2.0458e-05
7.23066e-06
2.03172e-05
7.72629e-06
2.01873e-05
8.03632e-06
2.00447e-05
8.20335e-06
1.98997e-05
8.19127e-06
1.97394e-05
8.04517e-06
1.9574e-05
7.75836e-06
1.93989e-05
7.37598e-06
1.92538e-05
6.85969e-06
1.91066e-05
6.30938e-06
1.90132e-05
5.69621e-06
1.89252e-05
5.04554e-06
1.88543e-05
4.38602e-06
1.8771e-05
3.75007e-06
1.87504e-05
3.12452e-06
1.87698e-05
2.45385e-06
1.87479e-05
1.91674e-06
1.87943e-05
1.36362e-06
1.88204e-05
8.71094e-07
1.88208e-05
4.90153e-07
1.88239e-05
1.03076e-07
1.8776e-05
-1.38294e-07
-2.93603e-07
-5.6675e-08
4.92202e-07
-1.21271e-08
1.75206e-07
-3.01662e-07
4.63894e-07
3.28584e-07
1.80475e-06
1.87822e-08
-1.83719e-06
2.10936e-08
9.76649e-08
-2.09211e-07
-6.46013e-06
-1.40738e-05
-6.11644e-08
-1.8717e-06
5.82549e-08
6.01301e-07
3.47856e-07
-3.81169e-07
-1.4941e-07
-1.77506e-06
2.31447e-07
1.69828e-06
2.84061e-07
2.29408e-07
2.77629e-07
1.57571e-07
2.74884e-07
3.35982e-07
8.57924e-08
2.45058e-07
1.54776e-07
-5.45688e-08
1.67542e-07
5.55658e-07
-1.70679e-06
3.51133e-07
-1.93873e-06
-1.98048e-08
-4.21305e-08
1.82803e-06
-4.42907e-07
-1.69162e-06
-6.24415e-07
6.48249e-07
8.3771e-07
3.31463e-07
-2.32822e-07
8.46968e-08
1.91314e-08
1.85978e-06
-2.32709e-07
1.88179e-06
-2.31865e-07
1.8687e-06
-2.12648e-07
1.60598e-05
-2.79168e-06
1.76582e-05
-3.41435e-06
1.91815e-05
-3.98827e-06
2.05979e-05
-4.38401e-06
2.17721e-05
-4.40052e-06
2.27027e-05
-3.9983e-06
2.32169e-05
-3.08299e-06
2.34796e-05
-2.0456e-06
2.33834e-05
-6.07531e-07
2.31143e-05
7.79923e-07
2.27245e-05
2.22866e-06
2.23356e-05
3.54225e-06
2.19289e-05
4.72972e-06
2.15439e-05
5.6819e-06
2.11903e-05
6.42175e-06
2.0853e-05
6.94519e-06
2.0538e-05
7.24362e-06
2.02255e-05
7.36369e-06
1.99119e-05
7.29223e-06
1.95949e-05
7.07026e-06
1.92792e-05
6.7285e-06
1.89733e-05
6.27843e-06
1.86943e-05
5.76821e-06
1.84518e-05
5.21482e-06
1.82449e-05
4.64591e-06
1.80865e-05
4.07149e-06
1.79778e-05
3.50851e-06
1.79094e-05
2.96986e-06
1.78761e-05
2.45696e-06
1.79004e-05
1.97261e-06
1.79154e-05
1.53599e-06
1.79801e-05
1.12561e-06
1.80788e-05
7.3108e-07
1.81643e-05
4.323e-07
1.82765e-05
1.43146e-07
1.83575e-05
-5.68442e-08
1.84607e-05
-1.99739e-07
-9.57064e-07
-9.83626e-07
1.41038e-06
-4.90667e-07
-6.98683e-07
-8.57009e-08
-4.49149e-07
2.65388e-07
-2.17477e-07
5.77092e-07
-5.9983e-09
8.67448e-07
1.71065e-07
1.42161e-06
-9.35614e-07
-1.30142e-06
-4.10747e-06
7.51003e-06
-1.2548e-05
1.26385e-05
-9.92829e-07
1.55431e-06
6.92468e-07
6.5389e-07
1.24683e-07
-1.683e-06
-1.1559e-07
-1.06393e-07
-1.69224e-06
-2.19826e-07
6.94328e-07
2.21975e-07
1.66307e-07
4.27231e-07
1.99032e-05
-7.08282e-06
4.46728e-06
-1.63164e-05
-1.65611e-07
1.45848e-06
-1.70946e-07
-4.7739e-06
5.3832e-06
-3.54899e-06
-2.51792e-07
6.32298e-08
1.71705e-06
-1.52549e-06
1.89178e-06
8.51307e-08
-1.74757e-06
2.72747e-07
1.12071e-06
2.60629e-07
-3.53783e-07
1.86797e-05
-1.9759e-08
1.88942e-05
-5.85516e-07
1.92378e-05
-1.36316e-06
1.96627e-05
-2.14084e-06
2.01191e-05
-2.66076e-06
2.05712e-05
-2.70794e-06
2.10428e-05
-2.26294e-06
2.15243e-05
-1.38849e-06
2.2076e-05
-2.32119e-07
2.25185e-05
9.1482e-07
2.27806e-05