/*--------------------------------*- C++ -*----------------------------------*\
| =========                 |                                                 |
| \\      /  F ield         | OpenFOAM: The Open Source CFD Toolbox           |
|  \\    /   O peration     | Version:  2212                                  |
|   \\  /    A nd           | Website:  www.openfoam.com                      |
|    \\/     M anipulation  |                                                 |
\*---------------------------------------------------------------------------*/
FoamFile
{
    version     2.0;
    format      ascii;
    arch        "LSB;label=32;scalar=64";
    class       volScalarField;
    location    "0.000117";
    object      T;
}
// * * * * * * * * * * * * * * * * * * * * * * * * * * * * * * * * * * * * * //

dimensions      [0 0 0 1 0 0 0];

internalField   nonuniform List<scalar> 
37920
(
115.16
115.069
115.21
111.977
103.92
95.2807
77.207
57.8292
43.2566
35.4917
33.7364
33.7756
34.7462
36.8024
41.0413
48.4248
58.7166
64.3285
64.5099
57.6298
48.256
46.8797
52.2336
56.0823
57.7176
58.0168
57.0449
55.0763
52.3049
48.0191
43.0381
41.1462
40.2214
39.9837
39.9153
40.0055
39.1976
37.6052
37.1041
36.9613
36.8663
37.0935
39.0801
43.0496
45.802
46.4641
46.5245
123.366
123.944
124.445
120.356
114.368
102.313
80.6761
63.6647
45.4442
37.5681
36.4071
37.0094
38.1439
40.4243
44.608
52.3686
63.791
70.2268
70.5257
62.4099
52.7915
51.3151
57.4078
61.3271
62.7905
62.8678
61.5129
58.8197
55.3216
50.3774
45.037
43.2304
42.2878
42.4505
42.0189
41.9219
40.8319
39.1149
38.386
38.3197
38.4525
38.768
41.0467
45.537
48.7187
49.2791
48.6039
115.369
116.639
117.175
113.579
107.306
93.3907
66.0614
42.1881
34.6004
33.3252
33.7194
34.0063
35.5674
38.3681
42.1888
49.705
60.5922
67.039
67.7927
59.9974
50.9575
49.8683
55.9426
59.5323
60.7401
60.465
58.4926
55.645
52.0936
47.3436
43.2385
41.9477
41.1759
41.4074
40.4424
39.6432
38.3038
36.5282
35.3054
35.2251
35.6008
36.0616
38.3976
43.037
46.6005
47.6313
47.9196
114.262
115.465
116.396
112.833
108.291
90.7273
66.6819
42.6793
35.3798
34.0547
34.4322
35.0603
35.9485
38.2356
43.0406
50.3434
61.2409
68.1519
68.0461
60.0807
50.8475
50.3161
56.486
59.6155
60.5669
60.0654
58.0037
55.2138
51.5251
46.6326
42.9976
41.7717
40.8642
40.9087
39.9104
38.9381
37.8193
36.1995
34.8853
34.8326
35.2736
35.8991
38.2374
42.8338
46.5452
47.4254
47.8018
112.863
113.638
113.656
110.683
103.869
80.9576
57.9461
39.0119
33.5195
32.6511
33.1219
34.0633
35.3351
37.8225
41.8572
50.4407
60.6084
67.7897
67.8522
59.9486
50.6444
50.6018
56.6823
59.6805
60.4766
59.6309
57.029
53.7191
49.6976
44.9783
41.613
40.481
39.9619
40.1422
38.5262
37.5262
36.1598
35.0336
34.2268
34.1705
34.7776
35.6361
38.0382
42.463
45.8275
46.9161
47.2691
112.734
113.068
112.548
103.613
88.9531
75.584
41.6124
36.4962
33.6573
33.2987
33.7198
34.8309
35.9849
38.1237
42.0561
50.3529
61.087
68.514
68.3639
59.9495
50.8385
51.2036
57.2384
59.8363
60.4641
59.4377
56.452
52.8526
49.0406
44.3262
41.0865
40.0234
39.4992
39.5556
37.5088
36.8068
35.5105
34.6664
34.0178
33.9197
34.5803
35.613
38.0836
42.3593
45.509
46.496
46.9931
98.1736
92.7634
83.4385
77.7439
71.2288
55.9503
36.394
33.4431
32.513
32.7105
33.4627
34.5668
35.7301
38.3121
42.302
50.9537
61.7283
69.083
69.0846
60.812
51.0245
51.9185
58.1632
60.5624
60.9346
59.4543
56.2052
52.2562
47.9269
43.582
40.4543
39.0843
38.5903
38.7111
36.4616
35.4954
34.1672
33.2205
33.0248
33.5402
34.4215
35.7624
38.1587
42.3874
45.2075
45.8478
46.3289
78.2883
75.4353
78.6627
73.8049
53.6081
31.3348
32.6382
32.1727
32.2655
33.1669
33.8674
34.9952
35.9221
38.6919
42.9724
50.9783
62.3958
69.8753
69.6925
61.3592
51.4234
52.5276
58.8218
60.9814
61.1337
59.3272
55.4639
51.3651
47.0597
42.9494
40.129
38.7035
38.1223
37.8354
35.6082
34.6861
33.6119
32.5905
32.4347
32.7454
33.2961
34.9705
38.1919
42.3765
44.6246
45.3688
45.9386
50.091
46.1286
39.5644
32.9611
27.5475
27.9806
31.1322
32.1313
32.2808
33.0795
33.8993
35.0495
35.7558
38.7411
43.0756
50.5546
62.9752
70.5763
70.4597
62.0516
52.098
53.3161
59.7382
61.6905
61.5626
59.3111
54.9029
50.9147
46.0906
42.1799
39.3855
37.8602
37.3473
36.5823
34.7572
33.9668
33.0847
31.961
31.7177
31.7501
31.9438
33.4745
36.6148
41.1396
44.0331
44.6758
45.3079
23.876
23.2549
22.1187
21.1796
22.923
28.1757
32.3315
32.5293
32.8808
33.2106
34.2219
35.4794
35.8605
38.5571
42.6347
50.2159
63.497
71.6201
71.7355
62.6468
52.5898
53.6724
60.1848
61.9909
61.6542
58.9698
54.0778
50.0764
44.9098
41.3509
38.6986
37.0876
36.5993
35.5548
34.2989
33.5938
32.6549
31.6098
31.4713
31.3237
31.475
32.9861
35.9847
40.359
43.2885
44.2963
44.8217
19.3878
19.2686
18.8881
18.772
20.6604
27.1414
33.4117
32.9704
33.5157
33.3064
34.3497
35.6763
36.03
38.5676
42.5321
50.283
63.6318
72.5518
72.8079
63.6162
53.372
54.3855
60.8763
62.4452
61.7713
58.6197
53.6193
49.4964
43.9858
40.4523
37.9285
36.1218
35.3469
34.1042
33.3281
32.9377
31.8702
31.4204
31.4108
30.6856
31.2973
32.8714
35.7434
39.9227
42.8131
43.6806
44.1643
17.9894
18.1033
17.8394
17.7329
19.1533
24.9136
33.7025
33.5933
34.1713
33.7884
34.42
35.9097
36.2781
38.6597
43.6536
51.7346
63.9362
73.3452
74.3685
65.0362
53.9163
54.7029
61.1757
62.6128
61.6663
57.9114
52.9666
48.6364
42.9117
39.6014
37.2993
35.5212
34.6043
33.3194
32.8602
32.5405
31.5383
30.643
29.9059
30.1425
30.5996
32.3912
35.7268
39.6901
42.2111
43.2628
43.6004
17.4183
17.6742
17.4789
17.455
18.6561
22.512
33.1033
35.1154
34.4334
34.0351
34.7144
35.9602
36.6732
38.9573
43.6792
51.991
63.7931
74.0967
75.5549
66.303
54.6657
55.288
61.6925
62.8799
61.6268
57.3799
52.5899
47.977
42.0455
38.667
36.6889
34.9768
33.934
32.6647
31.4288
31.0229
30.2897
29.5477
29.2128
29.2521
30.2948
32.1244
35.5451
39.5373
41.7764
42.6912
42.9543
17.2499
17.531
17.5155
17.6452
18.3775
20.7495
29.0015
34.9633
34.5752
34.2252
34.8267
35.9703
37.1087
38.6519
43.4673
51.9544
64.0626
74.6762
76.7021
67.7382
55.2469
55.5167
61.8989
62.9747
61.4936
56.7121
52.2145
47.1231
41.0403
37.7277
36.2053
34.5478
33.231
31.8615
30.8257
30.2486
29.5197
29.0148
28.9804
28.9917
29.8733
31.988
35.4584
39.3262
41.2346
42.2334
42.3624
17.0522
17.1839
17.3275
17.5591
18.1751
19.9548
25.0458
33.8396
34.8852
34.193
34.7784
35.7612
37.023
38.0785
42.6351
50.4479
63.7081
74.9484
77.5026
69.0311
56.0429
55.9651
62.1803
63.1582
61.4532
56.3006
52.0729
46.4601
40.2166
36.8839
35.6357
33.957
32.3592
31.0261
30.1275
29.676
29.1132
28.7757
28.6841
28.8677
29.7053
31.7567
35.167
39.1757
40.8255
41.633
41.7225
16.8766
16.9714
17.0695
17.1396
17.5745
18.9962
20.2518
29.8092
34.3681
34.4259
34.753
35.2939
36.7392
37.4761
42.5063
50.5065
63.6932
75.3469
78.1745
70.0265
56.6453
56.1563
62.2792
63.2173
61.3446
55.7589
51.9938
45.6912
39.4044
36.2963
35.1932
33.3513
31.6291
30.3199
29.7057
29.2808
28.7782
28.5571
28.5967
28.852
29.6809
31.679
34.9868
38.71
40.3284
41.14
41.1465
16.7773
16.7819
16.9045
16.9717
17.4185
18.4561
20.162
26.213
32.929
34.3748
34.4628
35.0247
36.5572
37.2584
42.3577
50.2119
63.704
75.5389
78.5937
71.3339
57.5863
56.5625
62.3765
63.2791
61.2974
55.4662
51.9435
45.0015
38.7573
35.9148
34.7968
32.9072
31.3359
29.9678
29.2323
28.8169
28.4304
28.3806
28.4508
28.8533
29.7139
31.6473
34.867
38.3632
39.8313
40.5626
40.5805
16.5787
16.4674
16.6284
16.9417
17.2237
17.7721
20.4382
21.7798
30.8703
33.9597
34.1544
34.7899
36.4718
37.5972
42.3094
49.8192
63.7751
75.7734
79.3071
72.6686
58.4749
56.7738
62.408
63.2682
61.1329
55.0974
51.7993
44.4067
38.3133
35.6032
34.3888
32.5799
31.0982
29.7665
28.975
28.5286
28.1138
28.1543
28.3209
28.8337
29.7255
31.6286
34.7072
37.9328
39.3031
40.0393
40.0147
16.3401
16.2821
16.432
16.6707
17.2922
17.8975
19.2435
21.8461
27.5196
32.5943
33.5442
34.6388
36.1867
37.8442
42.4081
49.5436
62.0511
75.9207
79.9508
73.8967
59.7792
57.326
62.6616
63.2639
61.0162
54.9151
51.6581
44.0181
37.9275
35.3021
33.9419
32.2366
30.8141
29.5958
28.6769
28.0628
27.5585
27.479
27.8844
28.6308
29.8304
31.6496
34.4587
37.4462
38.657
39.3912
39.3768
16.1657
16.0786
16.1364
16.3695
16.9529
17.817
18.8947
21.5682
23.974
31.1726
33.4201
34.7448
36.0427
37.5667
42.2673
49.2637
61.6155
76.4711
80.5688
75.2317
60.7968
58.2544
63.5372
63.2686
60.7615
54.6319
51.2307
43.822
37.6609
35.0435
33.5435
32.0008
30.6353
29.4661
28.4704
27.7731
27.2723
27.1543
27.6528
28.4046
29.8853
31.6963
34.322
36.9032
38.0345
38.7567
38.7094
16.0914
15.9718
16.0065
16.2815
16.8606
17.6318
18.8929
19.9569
21.9166
27.7045
32.5983
34.1075
35.7773
36.9985
41.788
48.8054
61.9367
77.3735
81.5572
76.3458
61.8219
58.5388
63.6199
63.3269
60.6803
54.4117
50.8069
44.0418
37.5887
34.9419
33.4043
31.8466
30.5663
29.4148
28.3698
27.5748
27.046
26.9219
26.7695
27.517
28.9226
31.4044
34.1201
36.3263
37.3328
38.0605
38.0243
16.0033
15.9078
15.9999
16.2227
16.7871
17.5455
18.709
19.913
23.4577
24.7793
28.9935
32.2087
35.0643
36.8329
41.4969
48.6667
61.9241
77.9533
83.2764
77.7156
62.8937
58.3429
63.3174
62.982
60.656
54.3652
50.5987
44.695
37.7811
34.9775
33.3928
31.7803
30.5464
29.3501
28.3557
27.3381
26.5737
26.5454
26.4574
26.8501
28.1085
30.4781
33.6745
35.8993
36.747
37.4348
37.3792
15.8812
15.8292
15.8704
16.0924
16.6696
17.424
18.4871
20.836
24.2512
27.0997
29.5641
32.9062
35.0299
37.0129
41.3364
48.2363
60.8452
78.2377
83.9469
78.7787
63.349
58.1838
63.0459
62.7822
60.7533
54.6852
50.6686
45.36
38.1959
35.1653
33.4355
31.6736
30.4851
29.2879
28.2601
27.0215
25.9415
25.7789
25.9266
26.4976
27.7231
29.9731
33.0822
35.3369
36.1234
36.8061
36.7501
15.8819
15.826
15.8821
16.1135
16.6161
17.3235
18.4696
20.044
23.5498
28.5665
32.4483
34.5282
35.6012
37.4757
41.3643
47.7948
60.9307
78.577
84.6915
79.9661
64.3131
58.0616
62.7012
62.8365
60.9893
55.6189
51.0073
46.0247
38.7582
35.4182
33.4652
31.5272
30.3321
29.1103
27.9864
26.7265
25.6565
25.4788
25.6717
26.3208
27.5888
29.6937
32.4897
34.8455
35.581
36.2356
36.174
16.0608
15.9597
15.9954
16.2494
16.7705
17.4807
18.4952
19.7988
22.8957
27.9047
34.5799
35.8861
36.3484
37.9337
41.5693
47.6075
60.867
78.6895
85.7362
81.3383
64.8806
57.971
62.4907
62.968
61.1148
55.854
51.5306
47.1093
39.4294
35.7131
33.4582
31.3506
30.0846
28.9047
27.7015
26.3957
25.4939
25.2284
25.5064
26.3058
27.6046
29.6507
32.2097
34.3625
35.0684
35.698
35.6451
16.2831
16.1306
16.1886
16.4421
16.9745
17.5891
18.2864
20.1346
22.6217
26.4582
32.193
37.0357
36.799
38.249
41.4231
47.3099
60.7042
80.2477
86.755
82.6948
65.9082
57.9076
62.2766
62.9695
61.105
55.8858
51.6079
47.5591
39.9951
35.9926
33.4688
31.3063
29.9686
28.7877
27.5302
26.2385
25.4
25.1331
25.4091
26.314
27.6632
29.6965
32.1181
33.9774
34.6545
35.2382
35.1858
16.4743
16.4068
16.4613
16.6479
17.0688
17.7388
18.4425
20.0858
21.8809
24.4424
28.1365
34.6163
37.3671
39.0244
41.3321
47.2648
60.9215
80.5338
87.8588
83.9712
67.0004
57.9184
62.0784
62.9075
61.0286
55.8197
51.6796
47.6773
40.6939
36.231
33.5156
31.2295
29.8081
28.6461
27.3639
26.1584
25.3274
25.0974
25.3695
26.3059
27.7475
29.7272
32.0168
33.6257
34.2618
34.8274
34.7734
16.6934
16.7377
16.7874
16.9063
17.4939
18.5688
18.8548
19.9497
21.8087
23.7983
27.0823
30.4674
36.6785
38.7078
41.1422
46.5957
59.8501
79.888
89.5562
85.7007
68.5799
58.0374
61.8599
62.7739
61.0231
55.8236
51.7977
47.7387
41.9329
36.7054
33.6497
31.1727
29.7081
28.5122
27.1971
26.0073
25.1884
25.008
25.289
26.3047
27.8164
29.7897
31.9834
33.3333
33.8783
34.4266
34.3683
17.0234
17.0987
17.167
17.2626
18.3099
19.0288
19.4238
20.1318
21.768
23.0186
24.7329
28.8904
33.5441
37.9429
40.7243
45.9424
58.9111
80.279
90.4881
88.0242
70.4678
58.5588
61.6974
62.607
61.2061
55.9415
51.9563
47.9293
44.0464
37.4987
33.8795
31.1402
29.5531
28.3136
26.9456
25.7641
25.1301
24.978
25.2637
26.309
27.8741
29.8148
31.9501
33.0667
33.4721
33.9959
33.9357
17.3516
17.4234
17.5839
17.8255
18.4901
18.7961
19.3668
20.2595
21.9329
22.8798
23.3067
26.6032
30.173
36.8371
39.8855
44.993
58.1176
78.8669
90.8577
89.9052
72.8308
59.5826
61.5939
62.4468
61.1466
56.3902
52.2575
48.2299
44.967
38.5934
34.2375
31.1378
29.3137
28.035
26.708
25.4784
25.0054
24.9176
25.2449
26.2455
27.8484
29.8273
31.9489
32.8619
33.0458
33.5193
33.4551
17.6719
17.6831
17.9085
18.4337
18.5988
18.8519
19.4153
20.1931
21.4096
22.692
24.2913
25.3379
26.4104
35.1021
38.3394
44.4367
56.7632
77.2954
91.5515
92.1335
75.5271
60.5383
61.5012
62.2596
60.7747
56.9444
52.6614
48.3666
45.3356
39.9191
34.7179
31.2499
29.1503
27.7237
26.5004
25.3542
24.9817
24.8939
25.1908
26.0782
27.4485
29.4188
31.4719
32.2985
32.5615
32.9947
32.9361
17.9978
17.9372
18.5004
18.679
18.6603
18.8447
19.4216
20.0163
21.2224
22.3806
24.7864
24.8548
24.9795
32.6577
36.394
42.1682
55.1485
74.6137
91.639
93.3602
78.4027
61.7188
61.3913
62.0229
60.5999
57.4738
52.9405
48.467
45.5478
42.7175
35.8315
31.606
29.0477
27.4446
26.2431
25.1626
24.7997
24.6606
24.765
25.5991
26.8373
28.3717
30.4052
31.6211
32.0001
32.4363
32.3932
18.5998
18.4651
18.8238
18.8187
18.6547
18.7438
19.3868
20.0352
21.2073
22.5224
24.4576
25.4313
28.1717
29.075
34.116
40.9754
53.6234
72.2871
91.5356
94.4076
81.1498
62.984
61.3465
61.8934
60.5608
58.0316
53.2654
48.7248
45.644
43.911
37.4921
32.2965
29.1173
27.347
25.8442
24.5086
24.1481
24.1176
24.232
24.9766
26.2047
27.9042
29.7386
30.9001
31.3978
31.8627
31.838
19.2349
18.7994
19.0145
18.8938
18.625
18.699
19.3125
20.0482
21.1128
22.3593
23.9302
25.4413
27.6315
29.6122
34.7996
41.1464
50.6052
69.6794
90.8713
94.9478
83.6668
63.826
61.2816
61.8756
60.1607
58.4807
53.9947
49.0783
45.7194
44.3365
40.372
33.3742
29.3794
27.1486
25.5114
24.2259
23.7114
23.6596
23.9245
24.7312
25.9348
27.565
29.451
30.4281
30.8909
31.3319
31.3154
19.4108
19.2333
19.1144
18.9851
18.8713
19.0002
19.4251
19.9327
20.8012
22.136
23.9098
24.9877
26.1108
31.6367
36.7912
41.2812
49.1196
67.1078
89.6922
95.7012
85.9319
65.322
61.0661
61.9277
59.9542
58.5256
54.9075
49.5208
45.9778
44.5033
42.0015
35.1228
29.8805
27.1052
25.2439
23.9114
23.4509
23.4536
23.7928
24.6303
25.8425
27.4327
29.1678
30.0508
30.4668
30.8509
30.8388
19.4972
19.4364
19.1468
19.0783
19.1606
19.3232
19.6199
19.9762
20.8782
22.1852
23.872
25.0983
25.7488
29.8315
39.6384
41.5123
48.8402
64.5941
88.4671
96.0425
88.3726
66.9949
61.0902
62.2667
59.962
58.5027
55.249
50.4694
46.4431
44.5277
42.4043
37.9591
30.9148
27.3093
25.0887
23.7796
23.3321
23.3516
23.7721
24.6495
25.8443
27.3932
28.9666
29.7117
30.0898
30.4195
30.4081
19.4883
19.4753
19.1597
19.0312
19.5546
19.8073
20.2219
20.4477
21.1904
22.2117
23.6743
25.6323
26.9684
28.2493
36.2881
42.4746
48.6967
62.8225
87.1367
96.2299
90.6908
68.7534
61.1137
62.4017
60.1031
58.5503
55.5884
51.2927
47.2749
44.5673
42.5296
39.0056
32.4171
27.8131
25.1354
23.7526
23.2899
23.2048
23.7576
24.6775
25.8811
27.374
28.7463
29.3821
29.742
30.0316
30.0207
19.5621
19.4531
19.1541
19.3301
20.3441
20.3502
20.7217
20.9444
21.1082
21.9918
23.4998
25.369
26.79
28.1135
32.3034
42.5558
48.7451
60.9618
85.4144
96.2445
92.5038
70.8942
61.3413
62.2689
60.0737
58.5291
55.6633
51.4464
47.7796
44.8497
42.5596
39.3275
34.7796
28.8564
25.4449
23.7827
23.2496
23.1202
23.6961
24.7279
25.9735
27.381
28.5712
29.0814
29.418
29.6759
29.6661
19.2947
19.4073
19.413
19.6938
20.6537
20.695
20.9329
21.3279
21.5804
21.9735
23.311
24.9261
26.4049
27.5664
29.6594
41.6932
47.884
59.397
83.4843
96.0165
93.731
73.6922
61.6039
62.0173
60.1418
58.432
55.5772
51.5279
47.8816
45.3511
42.5262
39.3553
35.8164
30.7073
26.0578
24.0152
23.2472
23.0975
23.4468
24.6449
25.9792
27.3116
28.3833
28.8032
29.1066
29.3353
29.327
19.3854
19.6163
19.8835
20.0371
20.8096
20.8091
21.1081
21.4137
22.0821
22.0976
23.2149
24.4918
26.4071
27.3162
29.9851
39.5296
46.8204
58.4329
81.3203
95.4467
94.7173
77.0048
61.8664
61.7382
60.018
58.39
55.4325
51.4713
47.8144
45.4225
42.5091
39.3181
36.3231
32.9326
27.2
24.3943
23.3524
23.0976
23.3454
24.2256
25.591
27.0008
28.1086
28.5144
28.7879
28.992
28.9887
19.7756
20.2226
20.4656
20.7679
20.872
20.8106
21.1014
21.5001
22.1478
22.5108
23.2776
24.2532
26.1138
27.2079
29.9621
35.8449
45.8266
57.4516
78.9793
94.8498
95.4026
79.9552
62.2964
61.3219
59.8957
58.1991
55.2216
51.4063
47.7212
45.3659
42.5527
39.159
36.4099
33.6039
29.0233
25.1157
23.5562
23.0756
23.2872
23.9809
25.126
26.5362
27.7287
28.1736
28.4611
28.6467
28.6495
20.2163
20.8776
21.1749
21.0984
20.8861
20.788
21.0742
21.5055
22.1418
23.1042
23.3654
24.2204
25.5399
27.1632
28.8406
31.6251
44.5591
55.9517
76.7115
94.3294
95.8538
82.0032
63.1922
60.5901
59.7883
58.0077
55.0684
51.3263
47.649
45.2151
42.4489
39.1194
36.2423
33.7011
31.0248
26.4474
24.1027
23.1589
23.245
23.876
24.8868
26.1465
27.3019
27.7717
28.1156
28.2977
28.3108
20.7827
21.6349
21.4704
21.2225
20.8451
20.7642
21.02
21.4897
22.0736
23.0559
23.4513
24.3167
25.4095
26.9158
27.7613
31.1492
40.8926
54.7865
74.4569
93.5921
96.1397
83.5255
64.4317
59.6657
59.5424
57.8483
55.1439
50.9682
47.6333
45.0955
42.2714
39.1078
36.2021
33.7132
31.6661
28.3586
25.0046
23.7322
23.3275
23.9223
24.8075
25.9525
26.9466
27.4047
27.7706
27.9494
27.9722
21.7162
21.8322
21.5923
21.2337
20.8275
20.7954
20.9696
21.4744
22.1189
23.0943
23.3044
24.3237
25.6156
26.8396
27.6004
30.9668
36.3309
53.418
72.6369
92.7337
96.261
85.2601
66.2786
58.7723
59.1317
57.6915
55.0877
50.8684
47.6602
45.0825
42.2346
39.1147
36.2088
33.7331
31.8646
29.8337
26.1594
24.3197
23.7106
23.9845
24.7953
25.8195
26.6586
27.0661
27.438
27.6105
27.6401
22.1997
21.8908
21.6096
21.2366
20.6484
20.6031
20.9292
21.4332
22.0584
22.9572
23.9598
24.5516
25.6048
26.8426
27.7255
29.5274
36.0188
52.0773
70.9463
91.6351
96.3005
87.4441
68.0718
58.1491
58.7166
57.483
54.9864
51.0447
47.675
45.076
42.2257
39.1691
36.2193
33.857
31.9242
30.5224
28.0073
25.0132
24.1624
24.2704
24.8118
25.7748
26.4554
26.7614
27.1243
27.2886
27.3212
22.7448
21.873
21.5601
21.5218
21.1816
20.6571
21.0185
21.3793
22.0125
22.7882
24.192
24.6779
25.6421
26.6323
27.3646
28.6067
34.3438
50.1649
68.9698
90.0651
96.1394
88.5054
69.094
58.014
58.3824
57.3342
54.9462
51.0579
47.5945
44.9608
42.118
39.1175
36.1829
33.8283
31.9537
30.8012
29.4199
26.3042
24.6096
24.5125
24.9525
25.7018
26.2786
26.5101
26.8394
26.9831
27.0153
23.1804
21.95
21.9911
21.7522
21.6889
21.153
20.9454
21.345
21.9511
22.6762
24.0222
24.4783
25.7641
26.7485
27.832
29.4821
33.0481
46.4364
66.5065
88.2128
95.8624
89.1176
70.3502
58.2418
58.0093
57.1782
54.9362
51.0819
47.5794
44.91
42.0632
39.076
36.1114
33.8311
31.9508
30.7878
30.0689
28.3948
25.5031
24.7576
25.0582
25.5732
26.1113
26.2942
26.5749
26.6909
26.719
23.5349
22.6511
22.6516
22.3571
22.1292
21.6975
21.2715
21.3468
21.8977
22.5951
23.8745
24.644
25.7137
26.8039
28.1053
29.231
32.8119
41.9418
64.1114
86.488
95.7827
90.3915
72.8961
59.3609
57.4942
56.9333
54.9795
51.2528
47.5257
44.9136
42.0659
39.1024
36.128
33.9038
32.0657
30.8644
30.1418
29.6658
27.297
25.3796
25.1287
25.546
25.9086
26.062
26.3115
26.4042
26.4301
23.7796
23.1792
22.8967
22.768
22.5515
22.2355
21.7546
21.6571
21.8763
22.5717
23.6001
24.4752
25.6345
26.8416
28.0333
28.9168
32.1168
38.4924
62.4419
84.7815
95.4804
91.2106
75.1512
60.8654
56.5233
56.4875
55.0181
51.4495
47.6036
44.9322
42.1331
39.1956
36.2757
33.9937
32.2796
31.0261
30.2732
30.0105
29.6014
26.6487
25.5032
25.5289
25.6817
25.8201
26.06
26.134
26.1598
23.9801
23.7859
23.1726
23.1002
23.0152
22.7521
22.2404
22
22.1169
22.536
23.4564
24.3602
25.6421
26.8466
28.0109
29.5323
31.3277
39.1047
58.2541
82.2846
94.7748
91.5723
76.0125
63.1517
55.7788
55.9248
54.8845
51.6485
47.8237
44.9774
42.2003
39.2858
36.4463
34.1623
32.3605
31.1629
30.5144
30.3712
30.4911
28.8846
26.2856
25.5944
25.6044
25.6223
25.82
25.8798
25.9076
24.2625
24.3478
23.8402
23.5077
23.576
23.2887
22.7336
22.3731
22.4472
22.7056
23.3907
24.365
25.5024
26.8103
28.0755
29.578
31.8092
37.7151
52.4063
79.7011
94.2094
92.0869
76.6674
63.9957
55.1092
55.3968
54.6688
51.8454
48.0075
45.0118
42.2597
39.4323
36.6107
34.3487
32.4516
31.1594
30.5774
30.5791
30.9015
31.0385
27.8447
25.9841
25.5819
25.4261
25.6031
25.6369
25.6661
24.6702
24.6388
24.514
24.0876
24.1948
23.906
23.2878
22.9438
22.9028
23.0001
23.5384
24.2964
25.4423
26.6849
28.0788
29.5339
31.7592
36.5367
48.774
76.966
92.373
92.2813
78.3191
64.0223
54.4996
54.8432
54.4763
51.9467
48.2057
45.0937
42.3551
39.6067
36.8043
34.6091
32.657
31.1751
30.4905
30.5672
30.9829
31.6756
30.4446
26.8414
25.6253
25.3323
25.4035
25.4015
25.4245
25.1736
25.238
25.086
24.774
24.6396
24.3436
23.9066
23.8171
23.5125
23.3853
23.6222
24.2715
25.2955
26.5909
28.1399
29.679
31.6518
36.4938
49.3877
74.256
90.915
92.1395
80.3546
64.2831
54.2307
54.2436
54.2522
52.099
48.4703
45.2745
42.5084
39.8012
37.1588
34.9365
32.9618
31.4287
30.4981
30.5412
30.9654
31.805
32.3739
28.5463
25.9791
25.3194
25.2277
25.1948
25.1875
25.7476
26.1183
25.7169
25.4632
25.0431
24.94
24.574
24.3943
24.1978
23.7794
23.7959
24.339
25.2749
26.575
28.2576
29.5545
31.7349
36.2965
48.0896
71.4426
89.9564
92.0314
81.3283
65.4131
54.3483
53.487
53.8187
52.3203
48.8957
45.594
42.7326
39.9952
37.5062
35.2537
33.4075
31.8021
30.6847
30.5014
30.9078
31.7576
32.737
31.6458
26.8409
25.3929
25.1036
25.0121
24.979
26.3218
26.5619
26.4511
25.9252
25.3309
25.1616
24.9766
24.6334
24.6128
24.0197
24.0153
24.3734
25.2717
26.4382
28.2855
29.4255
31.6734
36.2649
46.6685
64.7715
89.6052
91.9195
81.7288
67.3643
55.2094
52.543
53.114
52.2442
49.2992
45.9942
43.0462
40.242
37.7857
35.5094
33.6416
32.1814
31.0928
30.544
30.8593
31.6627
32.7902
33.642
28.6387
25.7305
25.0765
24.8607
24.8094
26.7685
26.7943
26.7227
26.1826
25.5536
25.345
25.2253
24.8169
24.8827
24.7033
24.4278
24.6582
25.2231
26.5309
28.1308
29.5019
31.7039
36.0907
46.0723
63.445
89.1993
92.2066
81.1685
68.2326
56.4039
51.6082
52.3514
51.8996
49.32
46.2775
43.3543
40.517
38.0629
35.7983
33.7526
32.2793
31.3517
30.7809
30.8745
31.5516
32.7954
33.988
32.1045
26.5555
25.1728
24.7772
24.68
27.0336
26.8897
26.7851
26.3768
25.7265
25.4847
25.4115
25.0245
25.0904
25.1359
24.7345
24.7721
25.313
26.4443
28.0941
29.4787
31.6942
36.3922
45.712
62.8526
84.6059
92.205
81.4411
68.2863
56.777
50.8607
51.6984
51.6126
49.3896
46.3684
43.5941
40.8263
38.3693
36.1422
34.016
32.4276
31.4916
30.9573
30.9854
31.5202
32.7967
34.034
34.4892
28.2575
25.5149
24.7912
24.6011
27.3309
27.0324
26.6761
26.5611
25.9693
25.6162
25.5427
25.2195
25.1851
25.2152
25.0309
25.0033
25.5278
26.4361
28.0106
29.5671
31.9482
36.7146
45.7147
60.5877
75.5001
90.8658
81.6305
68.1338
56.6827
50.1003
50.8192
51.1553
49.5541
46.4247
43.8012
41.1431
38.7384
36.5343
34.427
32.7185
31.7354
31.2408
31.2573
31.6336
32.764
34.0371
34.8753
31.4
26.2928
24.9264
24.5875
27.1619
26.9394
26.7053
26.6512
26.3351
25.814
25.6631
25.2933
25.2033
25.2356
25.2394
25.1109
25.5219
26.429
28.2439
29.6798
32.1989
36.8109
45.6996
59.6511
73.1977
88.1192
81.5116
68.5869
56.7099
49.7458
49.6419
50.3295
49.4014
46.6978
44.0132
41.4565
39.1267
37.0011
34.9685
33.1777
32.0861
31.6379
31.6572
31.9654
32.785
34.1105
35.0066
34.3086
27.7011
25.2687
24.6588
27.4504
27.1749
26.8956
26.7261
26.6511
26.0719
25.7871
25.3027
25.2024
25.2527
25.4438
25.3834
25.518
26.3437
28.06
29.689
32.2989
36.9775
46.1505
59.2787
74.417
84.3315
81.4664
68.4505
57.6537
49.607
48.3674
49.3609
48.9726
46.8124
44.3231
41.742
39.5076
37.5273
35.6165
33.9211
32.7664
32.344
32.3639
32.6595
33.1886
34.3586
35.254
35.6011
30.6158
25.9736
24.8455
27.9607
27.6679
27.3297
27.0784
26.853
26.2986
25.8973
25.2632
25.1511
25.3138
25.6027
25.6317
25.8219
26.4614
28.0755
29.7779
32.3855
37.283
46.3841
59.4178
73.4088
78.037
81.3565
68.3011
58.0879
49.8211
47.1347
48.3548
48.5071
46.7321
44.4379
41.9837
39.9114
38.1419
36.3776
34.8612
33.8037
33.3725
33.5308
34.0346
34.6073
35.2192
35.9246
36.2419
33.9308
27.326
25.3005
28.6105
28.444
28.169
27.5621
27.0666
26.5174
25.9955
25.3042
25.0693
25.3367
25.7638
25.7572
25.9269
26.4255
28.2308
29.9066
32.4701
37.3814
46.4889
59.6385
72.3841
76.1171
79.0188
68.2992
58.1359
50.4069
46.4086
47.3922
47.9402
46.6512
44.3587
42.0639
40.3585
39.1296
37.4538
35.9847
35.2014
34.7338
35.1147
36.1437
37.3785
37.8256
37.7895
37.7737
36.6216
30.0875
26.6036
29.4487
29.9194
29.7471
28.1866
27.3123
26.7374
26.1363
25.3592
25.2554
25.3997
25.8302
25.9828
26.145
26.6978
28.2233
29.8913
32.5301
37.6105
47.0879
59.7135
71.9102
77.6939
75.6711
67.2508
57.2341
50.8666
45.943
46.606
47.1479
46.3132
44.1151
42.3775
41.0337
39.9383
38.6409
37.3027
35.9585
35.467
35.868
36.9962
38.6207
40.1472
41.6921
42.1239
41.1045
37.309
32.4765
31.2992
31.2299
30.6101
28.9316
27.6175
26.9832
26.3504
25.8216
25.615
25.5648
25.8425
26.1019
26.2374
26.8615
28.5893
29.9688
32.626
38.011
47.5891
60.0195
71.8704
76.134
71.7287
65.9537
56.7946
50.841
45.3812
45.6713
46.2621
45.5584
44.1962
42.8613
41.7005
40.5945
39.3967
38.2145
36.7771
36.193
36.5944
37.4832
39.0123
41.0668
43.2813
46.4821
51.0024
56.8482
56.0767
32.2922
31.6384
30.9034
29.6504
28.063
27.267
26.7157
26.3969
26.0975
25.8535
25.8817
26.1361
26.5091
27.4522
28.7978
30.2982
32.7765
38.6311
48.1376
61.0446
71.905
75.9892
72.1935
63.7193
55.6873
50.1654
44.161
44.3457
45.0603
45.1356
44.4687
43.341
42.2918
41.2159
40.0468
38.8424
37.5934
36.8669
37.2209
37.7605
39.0923
41.4603
43.806
47.6253
52.4543
60.6939
65.5416
32.6582
31.7161
30.9439
29.9897
28.5784
27.6579
27.3012
27.1617
26.7956
26.215
26.0975
26.2683
26.886
27.7748
28.784
30.635
33.1168
39.45
49.582
61.9995
72.5282
75.734
72.0706
61.0719
53.8608
48.943
43.4285
42.8275
44.0354
44.9101
44.74
43.8084
42.9679
41.7972
40.6585
39.4291
38.0548
37.1659
37.391
37.8067
39.0157
41.6212
43.9591
47.6097
52.1272
60.3144
67.0801
32.6977
31.6978
30.9173
30.2452
29.1676
28.2182
27.9209
27.606
27.0545
26.5743
26.434
26.5885
26.947
27.8788
28.7953
30.6869
33.4129
39.9419
50.4608
63.0371
73.0103
75.453
71.0023
60.8624
51.7857
47.0766
43.2086
41.9984
43.34
44.7281
44.9021
44.2531
43.4186
42.1905
41.1553
39.9459
38.4013
37.5102
37.4778
37.8091
38.9742
41.6624
44.0384
47.4657
51.8083
59.7993
67.5835
32.6633
31.6499
30.8955
30.4516
29.8003
28.9191
28.5355
27.7466
27.2301
26.9024
26.7593
26.8387
27.042
27.8841
28.8403
30.7995
33.6855
40.2503
50.9975
63.8949
73.2813
75.3793
70.527
60.2125
50.4475
45.6521
43.5403
41.3339
42.8396
44.5406
44.9885
44.5476
43.802
42.5348
41.5441
40.2675
38.6411
37.9424
37.6613
37.7625
38.8573
41.6346
44.1177
47.5225
51.5787
58.9264
67.7005
32.6279
31.8321
30.8901
30.6752
30.4333
29.8085
29.0731
27.9409
27.3739
27.1116
27.0167
26.9387
27.0736
27.873
28.877
30.8548
33.7634
40.6329
51.519
64.3903
73.582
75.2594
70.1095
59.2512
49.8476
45.5347
44.3666
41.108
42.4541
44.3428
45.0233
44.7457
44.0675
42.8333
41.8849
40.5114
38.7962
38.2195
37.7113
37.7
38.6225
41.2665
43.9545
47.5656
51.0998
57.5468
67.0944
32.6133
31.6708
30.7387
31.0202
31.0278
30.7645
29.4995
28.0513
27.4457
27.2476
27.2311
27.0475
27.1494
27.8565
28.9277
30.9918
34.1076
40.9829
51.9694
65.4151
73.8923
75.2487
69.791
58.8275
48.9361
45.4049
44.5529
40.8378
42.0558
44.1327
45.038
44.8739
44.2494
43.0621
42.1341
40.8518
39.0375
38.3248
37.7184
37.5957
38.4294
40.7729
43.5587
47.1611
50.2602
55.9596
65.4753
32.6218
32.1014
31.0611
31.4794
31.5643
31.1705
29.8281
28.1615
27.4537
27.448
27.3977
27.1506
27.196
27.8218
28.9693
31.1024
34.2449
41.3037
52.6409
66.2578
74.2747
75.2574
69.6943
58.3187
48.0232
44.7865
44.3773
40.4878
41.6175
43.9259
45.0035
44.9525
44.409
43.2355
42.2682
41.0143
39.2874
38.4389
37.7733
37.568
38.4288
40.4871
42.9804
45.7001
48.8887
54.1368
63.0474
32.7024
32.8239
31.5951
31.8082
31.8066
31.4119
30.0198
28.295
27.3967
27.5539
27.5317
27.241
27.258
27.8117
28.9978
31.1398
34.3611
41.4743
52.9443
66.6833
74.8596
75.242
69.1438
57.6129
47.6295
44.0325
43.7811
40.3897
41.199
43.7159
44.897
44.9776
44.5261
43.3912
42.4273
41.19
39.5274
38.5545
37.7784
37.587
38.4578
40.3459
42.8776
44.9952
47.1239
52.2468
60.0845
33.0267
33.6726
32.2339
31.7759
31.7777
31.4754
30.2439
28.6683
27.4459
27.5991
27.5939
27.341
27.3706
27.8083
29.0142
31.2397
34.5016
41.6269
53.1892
66.9455
75.5871
75.3347
68.75
57.3829
47.3603
43.276
43.023
40.4119
40.9278
43.4793
44.7414
44.9635
44.5438
43.4635
42.5175
41.2254
39.731
38.5079
37.624
37.5319
38.4004
40.114
42.5966
44.3424
46.0326
50.7071
57.2778
33.574
34.5382
33.0198
32.023
31.8106
31.4087
30.5004
29.1564
27.723
27.6673
27.6244
27.439
27.4188
27.8177
29.0244
31.2622
34.633
41.8072
53.5188
67.2487
76.4276
75.5147
68.4227
57.3119
47.0296
42.6295
42.2967
40.1252
40.711
43.1793
44.4929
44.8571
44.4249
43.3923
42.4424
41.1448
39.7564
38.233
37.0603
37.1439
38.0007
39.6528
41.9441
43.6282
45.41
49.4738
55.2611
34.872
34.9362
34.2421
32.751
31.5896
31.2506
30.8352
29.7346
28.3332
27.9186
27.6925
27.5638
27.5097
27.8918
29.0503
31.2178
34.7113
42.0192
53.7026
67.6695
77.4495
75.8942
68.0539
56.6283
46.5399
42.2984
41.756
39.9914
40.3679
42.8102
44.1289
44.5748
44.1815
43.2484
42.2332
40.8662
39.6586
37.7709
36.5769
36.4636
37.3386
38.9716
41.2153
42.8485
44.6537
48.4744
53.711
35.5178
35.0392
35.301
34.1192
32.2082
31.4046
31.0258
30.4675
28.7522
28.063
27.8062
27.6083
27.7897
28.1056
29.0737
31.1834
34.8791
42.3436
54.0953
68.0591
78.0308
76.4557
67.578
56.0062
45.9087
42.2077
41.4387
40.0173
40.0068
42.2908
43.6368
44.1438
43.826
42.9565
41.9173
40.4529
39.4394
37.2611
36.3154
35.9742
36.6885
38.3219
40.5627
42.0817
44.0191
47.725
52.4282
35.8362
35.0701
35.8196
34.9396
32.6913
32.0746
31.5279
30.9991
29.7376
28.6036
27.9185
27.893
28.1066
28.2335
29.0959
31.2107
35.083
42.7605
54.8677
68.6857
78.5286
76.9931
67.3689
55.5378
45.4685
42.3183
41.3441
40.0339
39.8396
41.5827
42.7416
43.4831
43.2065
42.3668
41.442
40.3707
39.1337
36.9722
35.9492
35.677
36.3463
37.8496
40.1095
41.4808
43.4684
47.0786
51.3771
35.9324
35.035
36.0284
35.4777
33.8995
32.7603
31.7573
31.4677
30.9852
29.3237
28.3092
28.2709
28.3207
28.3259
29.0965
31.2327
35.302
43.4617
55.6044
69.2158
79.0179
77.1106
67.3416
55.1041
45.2254
41.8767
41.2732
40.0264
39.6422
41.2281
42.0609
42.2549
41.988
41.1972
40.5926
40.1838
38.7249
36.6708
35.5169
35.3385
36.0861
37.5692
39.6879
40.9967
42.9718
46.49
50.4852
35.8727
34.8243
36.0732
35.6306
34.8306
33.4308
32.3408
32.2322
31.4596
29.9396
28.7695
28.5502
28.4265
28.5218
29.3279
31.291
35.7154
44.1198
56.1176
69.811
79.377