/*--------------------------------*- C++ -*----------------------------------*\
| =========                 |                                                 |
| \\      /  F ield         | OpenFOAM: The Open Source CFD Toolbox           |
|  \\    /   O peration     | Version:  2212                                  |
|   \\  /    A nd           | Website:  www.openfoam.com                      |
|    \\/     M anipulation  |                                                 |
\*---------------------------------------------------------------------------*/
FoamFile
{
    version     2.0;
    format      ascii;
    arch        "LSB;label=32;scalar=64";
    class       volScalarField;
    location    "0.0085";
    object      epsilon;
}
// * * * * * * * * * * * * * * * * * * * * * * * * * * * * * * * * * * * * * //

dimensions      [0 2 -3 0 0 0 0];

internalField   nonuniform List<scalar> 
7220
(
750449
294665
250680
177360
207039
184477
1.0699e+06
1.19822e+06
786943
1.04315e+06
1.24806e+06
1.48928e+07
1.06405e+07
421659
2.8943e+06
1.0999e+07
1.50977e+06
99288.4
1.21194e+06
176230
808049
1.38031e+07
61638.6
2.15963e+07
575410
3.94987e+06
4.42483e+07
270162
635193
3.9012e+06
1.31179e+06
6.24748e+06
314705
3.18269e+06
627218
333384
407648
1.27378e+06
1.08359e+06
28703.5
31591.7
31578.4
28689.8
223989
248091
253331
238157
223902
35063.8
39196.8
39185.2
35051
44065.2
49730.6
49719.4
44054.1
56240.1
63616.1
63600.3
56227.9
71847.7
80886.2
80848.3
71824.6
90638
100967
100864
90574.1
111708
122691
122477
111554
133768
144831
144516
133498
155826
166731
166384
155482
177558
188383
188059
177204
211011
199170
199478
211213
223715
210474
26321.4
26307.6
31478.3
28601.9
266448
269934
237712
253248
198977
177256
188008
155662
166509
133606
144687
111478
122496
90372
100711
71603.1
80624.9
56046.3
63395.7
43923.8
49564
34965.5
39078.3
28636.7
31510.6
39054.3
34936.7
49547
43903.6
63374.4
56030.5
80550.5
71565.9
100465
90230.3
121955
111094
143897
132920
165737
154844
187410
176570
198523
210485
26266.6
26230.1
225213
210728
288282
270538
222696
236072
220977
241775
250959
233853
197913
209112
176504
187128
155067
165864
133029
144116
110867
121902
89774.1
100097
71088.5
80062
55645.4
62936.6
43629.1
49218.2
34755.2
38829.1
28489.3
31334.4
24326.5
24222.1
26142.8
24357.8
24371.5
26094.3
24169.2
24288.9
31299.7
28446.8
38815.5
34730.4
49229.5
43627.8
62961.1
55667
80027.9
71099.6
99824.2
89648.7
121208
110396
143098
132135
164995
154059
186857
175902
198188
284315
261769
222053
208305
22748.7
22659.5
25904.2
24002.1
290471
310268
313497
267558
219247
303237
278400
248185
237928
231788
196635
207631
175505
186021
154169
164928
132103
143213
109907
120951
88867.3
99150.8
70319.8
79216.7
55046.4
62251.6
43187.2
48701
34438.9
38454.4
28265.3
31068.2
24061.3
25953.5
22772.5
22786.2
22603.6
22710.5
31046.5
28228.2
38472.6
34435.8
48769.8
43229.8
62360.1
55139.1
79271.3
70421.5
98913.1
88813.3
120160
109414
141932
131027
163673
152827
185183
174453
196208
256667
22521.4
22454.8
290170
340002
331418
313731
245857
218187
205218
233243
264144
23850.1
22339.7
21337.2
21202.5
285874
342066
363278
373883
410213
377789
398488
312048
243266
217409
229618
195279
206050
174351
184789
153035
163805
130885
142043
108638
119694
87679.9
97906.1
69318.2
78113.4
54265.2
61359.7
42609.7
48025.9
34025.1
37964.2
27971.8
30719.8
25705.3
21274.5
21472.8
21395.2
21491.2
21504.8
21434.4
22267.6
25663
23791.1
30722
27949.6
38029.2
34056.5
48170.5
42712.9
61574.3
54449.8
78284.7
69535.5
97739.7
87729.6
118834
108160
140463
129634
161971
151262
183071
172562
193744
270770
250687
318971
293563
347133
261623
21115.5
21033.9
214095
202026
227952
357914
281776
340347
374848
435916
305104
401814
240900
412092
258525
255649
439567
215668
227630
193925
204531
173105
183527
151684
162523
129382
140613
107078
118143
86231.1
96381.4
68101.6
76771.1
53317.4
60277.6
41908.8
47206.6
33523.5
37369.5
27616.9
30297.9
23595.5
25405.8
20924.6
22120.9
19956.9
20268.7
20126.6
20445.9
20376.6
20460.5
20473.9
20317.3
20407.5
20038.4
20192.9
19858.9
22047.2
20836.8
25375.2
23540.9
30331
27615.3
37491.2
33597.6
47440.1
42084
60615.8
53608.7
77086.9
68456.4
96332.6
86420.8
117281
106672
138792
128024
160094
149509
180797
170521
191149
262151
243954
305322
282613
330335
275639
279306
337496
272235
209934
198761
222552
20710.3
19767.9
19237.1
19070.7
370544
412457
453565
427493
397927
426533
455387
295054
301715
473143
328075
291143
467172
269487
238988
253331
214266
226038
192691
203242
171795
182288
150120
161091
127589
138918
105229
116295
84532.1
94584.4
66684.4
75203.2
52216.4
59019.1
41096.2
46255.6
32944.4
36681.2
27209.7
29812.1
23306.1
25063.7
21873.6
19175.4
19459.4
19329.7
19622.3
19558.5
19634.6
19647.8
19498.8
19584.2
19381.6
19661.9
21799.8
20617.8
25046
23257.1
29878.2
27230.1
36863.5
33064.2
46584.9
41348.7
59492.1
52622.8
75687.3
67192.8
94702.6
84896.7
115511
104960
136946
126215
158106
147608
178424
168377
188443
253299
236947
292626
271855
341944
315723
370986
299482
287970
19005.2
18890.3
195434
205713
312426
317008
365400
405894
454301
497117
461007
488610
893673
498068
1.42684e+06
510371
308765
306700
267729
285978
237744
251830
213345
225020
191637
202276
170402
181083
148309
159483
125488
136935
103088
114140
82591.8
92519.3
65079.3
73421.2
50975.9
57597.8
40185.2
45186.7
32299.7
35912.2
26761.6
29274.1
22993.2
24690.2
20484.4
21609.3
18831.9
19571.8
18231.7
18544.3
18387.7
18809.8
18688
18963.5
18903.2
18974.8
18987.7
18843.5
18925.9
18593.2
18731
18267.9
18435.9
18102.9
19458.7
18708.6
21534.5
20387.2
24682.9
22948.1
29369.1
26800.6
36150.1
32460.9
45606.5
40509.9
58202.6
51493
74079.6
65741.5
92834.6
83146.8
113500
103004
134893
124174
155972
145530
175984
166126
185661
244111
217043
229750
279204
260445
324684
300379
382490
352166
458651
416941
658879
577150
503979
511087
322413
1.12838e+06
331393
329432
398102
230098
18677
18099
17765.8
17613.8
446407
559136
500721
529639
533770
542881
548897
1.23807e+06
1.11062e+06
879296
843143
6.30104e+06
688287
335861
341573
866546
361318
727278
631993
370799
356649
355644
988265
354077
7.7326e+06
380821
380772
1.1904e+06
498064
408929
421220
457529
357488
387649
306537
330512
267129
285444
237281
251289
212852
224624
190722
201638
168869
179866
146206
157643
123058
134629
100655
111669
80419.5
90191.2
63301.7
71437.8
49613.3
56030.5
39193.5
44017.4
31606.3
35079.6
26289.4
28700.6
22674.6
24302.5
20266.1
21346.4
19388.9
17744.1
18034.6
17887.3
18288.6
18171.5
18437.5
18378.9
18448.5
18461.2
18319.7
18400.5
18076
18209.9
17924.8
17964.3
19269.4
18547.1
21268.4
20163.5
24300
22629.5
28815
26339.6
35359.1
31797
44509.4
39574
56746.3
50221.1
72254.3
64097.9
90707.3
81156.3
111212
100776
132593
121865
153690
143241
173578
163813
192399
183031
212288
201978
236675
223720
269592
251700
316804
291004
385669
347946
484365
430518
551502
1.16526e+06
928239
732689
347773
386725
1.2394e+06
508409
990584
827197
17629.2
17493.9
1.08549e+06
368564
384096
398381
433489
631315
632046
387212
663317
757350
834891
491245
583786
577545
405816
2.28929e+07
550826
381399
437835
803726
590625
591428
1.27053e+06
1.34788e+06
859059
1.46739e+06
1.54307e+06
346253
436867
480079
363952
398101
308470
334152
267885
286556
237571
251786
212689
224690
189807
201162
167080
178501
143742
155482
120273
131955
97929.3
108870
78030.6
87609.4
61374.1
69272.5
48154.3
54341.2
38148.1
42774.6
30892.4
34210.8
25822.8
28120.4
22381.9
23931.1
20090.4
21118.1
18579.3
19256
17585.6
18030.5
17224.8
17347.2
17246.6
17622.4
17481.1
17870.6
17755.6
18018.1
17959.8
18029.4
18041.8
17901.4
17981.7
17660.6
17792.5
17360.2
17513
17114.3
17218.3
17096.1
17894.4
17451.3
19131.7
18446
21034.8
19982.3
23926.7
22332.6
28241.7
25874.8
34512.4
31096.7
43311.4
38560.9
55135.2
48822
70214.7
62269.9
88309.4
78922.4
108621
98256.3
130008
119256
151260
140725
171276
161472
189939
180710
208929
199174
232015
219688
264811
246696
316643
287616
398695
353262
513295
452525
581911
1.84154e+06
1.4334e+06
561576
832470
779748
375693
416570
1.82917e+06
810187
714765
1.7743e+06
2.28316e+06
1.15109e+06
396675
691717
787517
866228
474335
414919
431046
1.98094e+06
654375
415133
17694.6
17367.1
16807.7
16811.9
637292
883960
411923
953990
1.31846e+06
305602
368641
437991
2.44197e+06
541115
2.43224e+06
1.13536e+06
2.30659e+06
603549
4.8787e+06
5.99635e+06
431019
927847
966308
885761
779754
907421
1.45412e+06
605281
642910
473083
1.40635e+06
642229
619954
573536
1.58127e+06
545599
1.47702e+06
807584
1.63419e+06
1.91704e+06
823750
474403
677613
8.37303e+06
451538
505519
369081
406902
310372
337161
268904
287931
238075
252540
212503
224881
188621
200520
164880
176782
140847
152885
117116
128873
94927.2
105745
75457
84798.5
59336
66961.9
46644.6
52572.8
37098.2
41505.5
30211
33356.9
25418.6
27588.4
22176.4
23634.9
20024.4
20988.6
18612.8
19243.7
18103.8
16932.5
17023.3
16934.5
17288.3
17150.4
17534.9
17420.1
17683.5
17624.6
17695.6
17707.8
17567.2
17647.8
17326.5
17458.1
17032
17180.7
16898
17252.3
17973.8
17570.2
19119.4
18482.3
20900.8
19913.9
23624.6
22121.6
27705.8
25465.2
33661.8
30414.2
42059.1
37520.3
53409.5
47340.1
67992
60293.9
85657
76469.7
105724
95451.2
127123
116333
148636
137945
169074
159049
188093
178712
207049
197384
229954
217675
263826
244917
320031
288272
411880
360913
539058
471685
610892
1.33475e+06
916429
1.07221e+06
994128
1.65111e+06
725058
6.38168e+06
405622
933572
904142
452994
5.07953e+06
4.65215e+06
3.61677e+06
2.48015e+06
4.08451e+06
3.11832e+06
2.17345e+06
1.5169e+06
6.27987e+06
741234
631813
609309
17106.8
17004
714292
793282
3.8801e+06
1.78018e+06
2.29293e+06
616303
423781
569373
993007
471271
1.03717e+06
1.18357e+06
1.11401e+06
1.31655e+06
521650
448989
469079
1.71252e+06
2.70264e+06
3.66985e+06
4.03522e+06
1.93192e+06
1.95122e+06
1.75996e+06
1.7117e+06
1.43764e+06
2.42574e+06
6.37489e+06
1.01531e+06
946116
352720
572177
4.97187e+06
436612
1.0109e+06
1.36695e+06
997260
706215
597883
826968
2.23175e+06
1.82092e+06
1.60335e+06
710231
461184
232078
804422
1.20386e+06
792453
1.16143e+06
911187
866407
1.06674e+06
1.48821e+06
666572
484501
480216
1.20804e+06
1.09582e+06
321606
789576
703016
518549
1.58245e+06
658726
411017
601762
1.06741e+06
605225
1.73417e+06
2.21074e+06
2.0959e+06
682937
1.98341e+06
1.33188e+06
582199
848907
237810
719633
972558
441983
5.6652e+06
448967
497266
368880
406167
310686
337228
269468
288415
238359
253050
211951
224792
186943
199424
162152
174538
137479
149778
113603
125371
91698.9
102331
72767.7
81819.4
57270.5
64582.3
45176.1
50813.8
36144.3
40306.3
29670.1
32622.4
25192.7
27216.4
22183.3
23534.4
20203.3
21087.8
18923.7
19492.7
18114
18471.4
17627.3
17836.9
17473.9
16695.8
16901.5
16758.1
16679.4
17016.6
16880.4
17264.7
17148.7
17416.3
17356
17429.7
17441.6
17299.9
17381.5
17057.2
17189.6
16765.7
16911.8
16559.8
16638
16812.4
16585.3
17423.9
17750.6
17558.6
18358.4
18012
19377.6
18806.9
21001.8
20098.6
23520
22127.1
27326.2
25233.1
32919.5
29865.1
40858.7
36560.7
51666.6
45876.6
65671.2
58261.6
82817.6
73874.7
102555
92415.2
123920
113107
145757
134860
166853
156467
186652
176885
206228
196303
229546
217060
264258
244867
322454
289534
417442
364911
549263
479745
709612
625249
810036
812611
1.4408e+06
669118
1.09719e+06
1.62409e+06
1.20058e+06
2.94092e+06
1.01287e+06
889510
946035
785050
835875
715059
747035
672945
436371
1.04328e+06
209855
1.20264e+06
495772
2.58817e+06
3.35915e+06
1.55635e+06
2.60212e+06
762785
1.32413e+06
657478
629595
730026
780927
883877
1.27127e+06
1.25794e+06
311452
1.30501e+06
1.52662e+06
1.58722e+06
1.84551e+06
1.74193e+06
713174
3.6995e+06
1.66093e+06
2.26586e+06
734006
451670
1.10014e+06
1.25415e+06
1.07132e+06
520216
1.33268e+06
576685
488347
514079
1.20563e+06
2.8963e+06
2.63717e+06
3.44953e+06
1.44192e+06
791068
538235
18836.2
18767.2
16667.3
17337
554158
4.77112e+06
464531
660873
955802
1.30104e+06
925871
1.11138e+06
1.04532e+06
1.44954e+06
663135
601789
1.00658e+06
543701
775355
607198
499461
585706
1.33583e+06
1.59156e+06
737075
371277
553498
1.46746e+06
574032
1.75827e+06
1.99154e+06
2.59688e+06
352712
830665
679830
1.97912e+06
2.41116e+06
343275
844453
2.2102e+06
1.44027e+06
926959
609355
778077
2.38668e+06
625673
370126
670396
849593
926614
526998
762209
796376
602677
679019
461813
524779
370702
411287
311106
337877
269966
288878
238388
253425
210878
224310
184659
197723
158847
171684
133669
146152
109827
121515
88380
98742.6
70128.6
78824.3
55363.7
62311
43952
49258.7
35504.6
39388.4
29502
32232.5
25391.6
27243.9
22664.5
23883.5
20906.6
21686.1
19808.9
20291
19159.6
19438.6
18964.3
17367.5
16504.7
16741.8
16540.2
16470.6
16794.6
16658.8
17046.5
16928.2
17202.5
17140.2
17217.5
17229.1
17085.5
17168.6
16839.3
16973.3
16548.8
16693.3
16359.2
16426.3
16405.1
18778.8
18925.3
18822.1
19357.9
19099.8
20198.7
19719.8
21614.4
20820.6
23874.4
22617.8
27352.1
25433.6
32523.8
29692.8
39936.6
35915.1
50121.1
44653.4
63449.7
56379.9
79960.6
71322.4
99237.3
89296.6
120465
109669
142599
131494
164460
153637
185303
175017
205904
195491
229761
217086
264353
245094
321294
289195
412882
362136
542353
473305
707419
619538
938110
811250
1.09341e+06
712489
596995
668311
389530
501214
373220
189001
278030
140402
146165
224954
180058
286520
879746
816853
808800
955029
907750
1.09558e+06
1.01427e+06
1.19109e+06
1.03125e+06
1.20916e+06
574933
1.66599e+06
1.06264e+06
2.86599e+06
1.01421e+06
732460
921665
974998
1.01718e+06
898095
931381
831301
863543
813540
818598
790217
469961
1.1824e+06
1.15407e+06
717243
670776
1.14303e+06
546422
1.80984e+06
3.44165e+06
1.23724e+06
1.32589e+06
878706
891431
1.83758e+06
872537
1.45036e+06
732367
18748.8
18786.7
992448
242602
769116
673361
857512
335958
997875
1.35835e+06
1.46314e+06
1.61118e+06
1.57571e+06
638344
3.62345e+06
1.43828e+06
2.1925e+06
947197
483168
1.39606e+06
1.11527e+06
1.19781e+06
1.02047e+06
928531
878046
655949
376248
674246
1.2869e+06
1.26615e+06
1.8466e+06
640610
534909
567662
841684
295539
242480
310417
2.96468e+06
1.83519e+06
2.59336e+06
942710
526260
5.71195e+06
7.92179e+06
915561
857708
685724
1.53784e+06
477355
511282
581665
4.68924e+06
499858
781071
1.23559e+06
790981
1.06101e+06
130955
254636
1.46414e+06
738175
434172
518318
915892
2.10245e+06
815971
547933
148158
127107
508525
165098
141841
1.14455e+06
140367
1.65061e+06
1.66537e+06
2.522e+06
289483
309145
1.0556e+06
638706
124672
135561
119631
113432
1.85271e+06
3.03304e+06
275623
531853
173788
207459
172248
157926
137970
133248
123506
126413
2.0261e+06
2.72856e+06
893397
422802
830881
2.1189e+06
1.51374e+06
980723
2.44153e+06
2.11731e+06
869920
356524
2.13135e+06
1.07281e+06
1.08797e+06
790927
928942
591410
678849
455468
517186
366615
405834
309514
335111
269696
288176
237791
253154
209086
223174
181672
195303
155047
168230
129621
142153
106083
117557
85329.8
95310.7
67943.8
76197.6
54054.3
60569.5
43439.4
48360.9
35671.1
39231.1
30223.1
32691.3
26556.6
28199.4
24187.6
25236.6
22730.4
23365.1
21900.4
22251
21503.7
21656.9
21411.9
21425.5
21599.6
21474.1
21782.1
17301.4
18775.2
16351
16620.3
16360.4
16299.2
16612.3
16476.1
16869.4
16748.1
17030.8
16966
17047.6
17058.8
16912.9
16997.8
16662.2
16798.4
16371.2
16514.9
16196.6
16253.2
16560.6
16262.7
18839.9
17290.7
21961.1
21574.6
21739.1
21441.8
21472.5
21629.8
21496.4
22199.7
21857.4
23322.6
22678.6
25246.9
24165.1
28320.7
26614.5
32993
30425.1
39793.3
36092.8
49253.1
44160.6
61781
55117.1
77501.7
69249.7
96134.9
86487.4
117023
106349
139282
128041
161839
150596
183813
172927
205627
194638
229917
217177
263116
244875
315733
286231
398863
352929
518316
453893
675520
591369
898396
775494
1.05258e+06
359008
425359
212162
285237
110059
150781
94350.1
68362.2
84382.6
98707.5
105630
156456
128447
230857
189704
284082
537853
591047
966426
923300
1.05252e+06
997443
1.23961e+06
1.13951e+06
1.30441e+06
1.31593e+06
1.13105e+06
408070
1.20744e+06
1.53281e+06
903997
2.84932e+06
976855
733510
900860
948431
977062
912148
925790
885731
894926
950962
908630
975050
508868
1.27336e+06
1.10607e+06
758659
813893
504099
1.01425e+06
1.53971e+06
2.17635e+06
606265
195349
1.2399e+06
562250
410362
3.09493e+06
906609
388963
2.502e+06
1.05599e+06
737439
350797
1.21685e+06
904148
955589
942381
801556
440987
565739
772631
1.69608e+06
275782
1.67441e+06
526726
514311
783327
620065
985762
1.15861e+06
1.13832e+06
612583
3.62033e+06
1.20502e+06
1.97074e+06
522617
1.48829e+06
1.03022e+06
1.12139e+06
902137
992580
466963
256344
495166
1.18968e+06
2.73099e+06
716262
593986
634938
146898
187513
1.99619e+06
580397
255839
2.74735e+06
1.23737e+06
1.8132e+06
494841
371229
667196
3.17638e+06
283659
908834
118374
27556.3
28007.2
18933.8
22236.6
638812
605464
730339
666534
4.73652e+06
546266
699831
1.22864e+06
6.71758e+06
197865
1.0385e+06
984147
1.25484e+06
1.20376e+06
149443
167971
1.37857e+06
1.20699e+06
2.19307e+06
827033
124385
310273
186655
801546
279341
1.12882e+06
1.43164e+06
1.17229e+06
1.41203e+06
479220
603516
500655
152397
110819
58876.5
73261.3
1.55882e+06
2.90794e+06
6.48852e+06
230940
148384
256700
279318
704785
4.62123e+06
133665
93375.7
1.69431e+06
3.52319e+06
132472
478981
292795
887856
88199.3
82918.8
1.75785e+06
2.98898e+06
922265
1.52505e+06
132446
1.73559e+06
1.01967e+06
478988
928378
1.97977e+06
632223
2.87648e+06
1.39961e+06
1.35638e+06
1.01053e+06
1.18378e+06
732500
858629
550603
632086
432254
485329
355003
388810
305386
327972
268276
285845
236312
251975
206522
221180
178247
192240
151249
164552
126028
138385
103210
114271
83486.6
92929.4
67222
74914.5
54406.8
60396.2
44750.5
49209.5
37800.4
40969.2
33034.1
35177.4
29935.1
31306.7
28048.1
28864.8
27017.1
27444
26583.6
26737.9
26579.4
26533.9
26903.1
26696.7
27189
22017.8
17270
18841.8
16227.8
16530.5
16211
16158.1
16461.3
16324.2
16724.4
16599.8
16891.8
16824.4
16910.5
16921.5
16772.9
16859.8
16517
16655.8
16224.6
16368
16064.3
16110.6
16485.7
16151
17279.1
28345.9
27400.8
27831.3
26799.4
27056.6
26564.3
26631.8
26728.3
26587.9
27434.2
27001.7
28903.3
28055.5
31456.6
30020.6
35514.2
33267.1
41581.9
38263.4
50182.2
45534.9
61746.4
55574.3
76469.4
68713.6
94193.8
84980.4
114406
104030
136422
125238
159349
147838
182233
170840
205182
193643
229810
217084
260991
244223
306719
281373
376715
338136
480631
423993
618382
543874
823615
708749
974534
418127
355116
393869
248589
304515
147580
194534
87939.5
111531
61182.4
71873
53665.7
50882.1
54542.3
75649.7
80038.2
113799
94121.5
169866
139292
245226
204581
354757
294364
429015
700396
1.04924e+06
997052
1.21858e+06
1.11749e+06
1.42536e+06
1.33894e+06
1.27565e+06
1.4242e+06
764881
1.00097e+06
608308
898116
1.10485e+06
782568
2.84078e+06
722486
425634
527249
933545
869018
918050
935353
905578
908076
930988
907150
1.10153e+06
998845
1.21508e+06
1.19377e+06
725366
557652
1.28606e+06
1.00664e+06
808029
896508
345329
835095
3.16594e+06
679303
162328
2.26196e+06
1.48143e+06
829473
320492
2.47269e+06
486483
491914
717335
4.98399e+06
1.01706e+06
117429
993656
613630
6.64705e+06
1.65581e+06
1.42675e+06
886545
28541.1
28945.2
517219
598838
855313
637252
731807
786915
760588
651224
3.64954e+06
1.01984e+06
1.66143e+06
854391
1.05957e+06
574037
1.54099e+06
945885
2.32913e+06
2.16741e+06
1.47544e+06
3.18828e+06
912040
669257
1.06746e+06
173885
335568
1.00341e+06
859650
1.79133e+06
811997
672321
725168
129111
1.29175e+07
1.82294e+06
752874
156019
184211
389626
730363
228390
1.18092e+06
447194
260083
6.56155e+06
841973
2.12786e+06
978418
1.18904e+06
1.66867e+06
814643
4.83717e+06
443120
477700
402706
598999
694149
1.54474e+06
1.02742e+06
271716
176410
452750
703926
1.17762e+07
1.29043e+06
113320
113413
1.15934e+06
627811
1.9159e+06
2.50879e+06
8.67811e+06
934519
115905
70468.9
84387.5
73564.7
221968
611899
541319
629080
170651
1.34794e+07
4.91804e+06
6.246e+06
215565
192910
660247
266702
325908
1.40255e+06
521088
146218
890415
539938
1.50803e+06
1.50728e+06
90237.1
62268.7
1.27065e+06
50457.5
49256.1
50153.5
2.7621e+06
3.4152e+06
2.11786e+06
4.88706e+06
143132
331900
233644
237460
406851
893579
724130
1.73786e+06
602928
8.18485e+06
136142
975629
78650.4
49376.4
51261.6
1.32099e+06
49331.1
3.24509e+06
4.03629e+06
409424
1.47893e+06
148342
71617.9
1.30432e+06
3.10723e+06
910493
1.07695e+06
120135
67171
1.27567e+06
840038
1.90078e+06
689891
1.88139e+06
1.41423e+06
1.88963e+06
2.78491e+06
2.33693e+06
1.6334e+06
1.45714e+06
1.15216e+06
1.31331e+06
845749
991119
628825
725596
489295
551653
399382
439689
340212
365822
300181
319004
266273
282850
234339
250178
204122
218991
175781
189743
149258
162258
125019
136827
103558
113905
85359.8
94033.3
70594.3
77548.7
59152.4
64474.3
50705.5
54581.2
44797
47465.3
40924.5
42637.4
38607
39599.5
37424.7
37896.6
37053.8
37154.6
37266.1
37096.9
37927.2
37547.2
38947.4
38400.6
40349.4
39572.4
42453.5
41315.9
43774.6
22305.6
29161.7
17269.4
18946
16130.1
16468
16086
16041.7
16335
16196.7
16604.6
16476.3
16778.3
16708
16799.1
16809.7
16658.3
16747.3
16396.9
16538.4
16102.5
16245.9
15956.5
15992.3
16438
16064.5
19065.2
17298.1
29632.5
22564.5
44604.6
41890.8
43155
39878.1
40799.4
38550.4
39142.6
37608.4
38033.7
37098.3
37291.2
37148
37043.1
37942.1
37436.3
39769.6
38704.7
43020
41188.6
48168
45325.5
55709.7
51609.8
66077.2
60519.2
79507.9
72406
95932.3
87363.1
114961
105151
136084
125295
158639
147234
181737
170178
205256
193414
229960
217356
259018
243704
297106
276507
351420
321771
432480
387871
541003
482467
700570
611420
818624
401432
412526
334941
375953
229639
283946
137794
179482
86287.9
107739
60930.1
71147.7
50875.4
54485.7
49288.3
122821
100390
185741
151763
266097
223341
371170
315092
438922
671936
721754
685242
781878
1.15201e+06
1.0609e+06
1.43165e+06
1.27889e+06
1.59906e+06
1.56234e+06
1.23502e+06
1.48295e+06
722656
937086
595997
627896
190901
747629
735668
2.68149e+06
703630
537680
884622
829346
875679
887803
871301
869283
958549
893602
1.24752e+06
1.07395e+06
1.51408e+06
1.43367e+06
1.35235e+06
621761
1.24839e+06
2.64211e+06
1.70947e+06
768599
768002
901077
231767
626539
1.25983e+06
949690
1.03972e+06
1.33987e+06
887511
631816
992858
4.70202e+06
6.25883e+06
402255
2.01029e+07
4.52847e+06
775752
138883
365017
1.14668e+06
224792
536691
542548
291760
1.6783e+06
235466
249219
632290
693384
1.36611e+07
8.8903e+06
3.4437e+06
2.11222e+07
565215
329575
925750
3.46092e+06
2.11015e+06
1.5748e+06
1.4465e+06
783761
1.02041e+06
568842
789303
694756
762550
3.54619e+06
1.37485e+06
400896
633978
1.82499e+06
1.57749e+06
933977
696496
334946
211008
337403
599516
466567
2.61934e+06
518621
4.11953e+07
367259
1.07602e+06
123403
213414
748794
51685.1
51023.6
52503.9
53100.3
860453
1.50854e+06
962346
1.45637e+06
1.42848e+06
2.05663e+06
1.10024e+07
3.81347e+06
1.90328e+06
929101
765798
834157
117071
66429
1.58308e+07
956102
1.36491e+06
133648
153034
221912
269058
245965
546537
487372
203251
4.65867e+06
201398
4.09172e+06
726156
393830
943216
395044
167183
135916
1.36605e+06
1.07527e+06
75516.7
78539.8
30411.9
46252.2
681413
719542
726919
3.09615e+06
1.64352e+06
6.98309e+06
4.874e+06
652655
394863
212752
1.06985e+06
717421
1.28839e+06
346112
165430
380568
200861
1.33079e+06
711199
190499
90051.9
84482.9
843455
51441.9
831139
2.31567e+06
2.48158e+06
3.02233e+06
9.12604e+06
951707
1.37746e+06
1.06769e+06
111770
64257.7
200162
218666
170323
159435
6.1195e+06
175779
1.85198e+07
3.83122e+06
593925
7.76377e+06
651359
423994
1.70364e+06
563134
3.20028e+06
2.24347e+06
213870
145027
453161
1.15153e+06
1.59167e+06
75827.7
56664.5
888200
50181.3
3.40336e+06
6.07076e+06
4.08052e+06
1.93024e+06
1.32344e+06
1.18667e+06
1.39072e+06
142677
195261
1.7347e+06
631876
450792
2.81802e+06
1.39477e+06
1.57803e+06
1.73858e+06
175984
68286.1
50622.9
897181
1.19123e+07
4.5097e+06
1.06862e+06
350825
880555
129560
64038.4
898686
2.99529e+06
624366
999571
1.22985e+07
3.78872e+06
1.39378e+06
1.13521e+06
2.85492e+06
2.15609e+06
4.09871e+06
3.53268e+06
3.5066e+06
4.65268e+06
4.47633e+06
1.67273e+06
1.34256e+06
1.13132e+06
1.24848e+06
870963
1.00172e+06
654841
752577
516325
577487
427223
467127
368070
394971
328298
346276
296708
312224
265803
281291
235105
250341
206197
220389
179487
192571
154990
166939
133032
143675
113968
123111
98118.6
105635
85504.9
91413.7
75961.5
80366.5
69159.9
72243.7
64668.3
66653.9
62038.6
63147.7
60867.7
61293.6
60808.4
60718.5
61590.6
61107.8
63038.6
62237.9
65058.4
63987
67589
66267.6
70893
69099.5
72989.2
45287.3
22644.8
29872.3
17296
19085.2
16053.2
16428.5
15980
15944.8
16227.5
16088.1
16503.6
16371.8
16683.8
16610.6
16706.7
16716.9
16562.7
16653.9
16295.6
16440.1
15999.1
16142.5
15868.1
15892.9
16413.1
15998.6
19231.8
17344.3
22944.6
80109.2
73951
76784.1
69583.8
71582.3
66396.8
67861.4
63960.2
65116.4
62120.2
62962.5
60956.9
61443.1
60630.7
60677.4
61365.6
60846.8
63499.8
62233.1
67434.8
65216.3
73596.3
70210.2
82379.6
77640
94023.9
87838.9
108493
100920
125481
116695
144611
134804
165414
154841
187203
176246
209760
198364
233408
221427
259702
246118
290979
274518
330750
309536
386509
355870
460729
421346
561882
506497
724326
631959
1.01818e+06
848902
418531
424461
351199
393550
241371
298328
146476
188232
91849.3
114998
64135.5
75464
52147.4
56650.4
49552.6
49896.4
49985.8
54297.4
57874.3
56172.8
58762.9
56315.5
67981.8
62314.9
88165.6
76011.5
131963
106339
203536
165046
291197
245275
396988
342154
538046
462167
614739
775481
743542
827909
1.25004e+06
1.11287e+06
1.61016e+06
1.42757e+06
1.74355e+06
1.73582e+06
1.32736e+06
1.59783e+06
767759
999882
626969
870335
2.04297e+08
746550
775269
2.28127e+06
452835
391732
403474
682834
547080
833942
787384
821610
835609
803160
808871
910838
824979
1.36818e+06
1.08531e+06
1.89009e+06
1.69807e+06
1.75887e+06
697723
1.2324e+06
476731
262053
484686
2.65623e+06
658796
653155
834307
4.8471e+06
419436
54605.4
1.12505e+06
1.63872e+06
6.32084e+06
9.07354e+06
2.2531e+06
5.49968e+06
4.71361e+06
1.05311e+06
6.37987e+06
5.96987e+06
5.50384e+06
1.23526e+06
1.71352e+06
894534
122470
4.25018e+07
950600
872765
182579
5.61414e+07
470381
252296
354356
1.01005e+06
213602
1.99629e+07
2.91707e+07
149102
1.03018e+06
4.49222e+07
2.98101e+06
432436
1.4996e+07
271579
1.40618e+06
2.77177e+07
82070.8
83950.4
1.45355e+06
746951
839895
1.11006e+06
852171
1.06077e+06
956836
3.11326e+06
1.18665e+06
695043
3.0654e+06
816579
1.93466e+06
1.60712e+06
961908
883201
446917
193253
291004
336852
226670
737744
1.31473e+08
1.04523e+06
132447
93972.9
138802
491876
52828.1
1.01552e+06
1.82914e+06
2.19697e+06
2.56411e+06
1.26847e+07
803238
3.35577e+07
1.10582e+06
2.10817e+06
1.08079e+06
870246
965385
109730
60343.4
55394.1
56611.2
4.70373e+06
1.00712e+06
117944
130807
181826
1.83667e+06
1.40603e+06
134451
251145
175543
601308
459592
183473
3.58216e+06
163430
84711.9
910115
2.13871e+06
451463
9.94414e+06
1.7573e+06
496322
1.0093e+07
1.80681e+07
4.87018e+06
401335
400185
417190
618493
534372
1.33429e+06
762533
1.5651e+06
435014
4.52265e+06
4.13563e+06
4.05093e+06
160232
328544
1.53476e+06
2.32097e+06
7.41745e+06
4.22777e+06
1.35629e+06
74924.4
69655.9
539003
51397.4
369570
968285
2.85321e+06
4.48454e+06
3.78176e+06
431265
1.07357e+06
1.44839e+06
5.57283e+06
1.39229e+06
1.23863e+06
1.46936e+06
1.45733e+06
1.1535e+06
111501
61729
1.1164e+06
260775
180037
137354
153791
9.49097e+06
148036
1.21767e+06
708253
1.95126e+06
710162
502376
512358
557230
2.18259e+06
603690
2.56093e+06
3.64115e+06
147759
1.89923e+07
8.64938e+06
1.34681e+06
216436
1.66663e+06
4.54066e+06
65942.3
54141.7
572074
51035.6
4.25392e+06
9.24912e+06
4.86772e+06
1.60371e+07
946738
2.62452e+06
1.06558e+06
3.38826e+06
1.83274e+06
168206
302603
147351
61390.5
590081
4.82135e+06
864604
1.27912e+06
1.18487e+06
2.86331e+06
1.99571e+06
4.74868e+06
3.7968e+06
6.03273e+06
5.55914e+06
5.86948e+06
6.11507e+06
5.2823e+06
1.60548e+06
985100
1.04683e+06
815237
905255
639467
723812
512367
568365
435121
469030
385660
407881
352068
367276
327539
339099
304027
316035
278718
291547
253234
265856
229517
241124
207965
218465
188500
197964
171294
179603
156640
163623
144789
150366
135624
139881
128993
132001
124694
126569
122429
123322
121997
121996
123210
122412
125829
124358
129678
127609
134722
132048
141015
137709
148667
144654
157481
152929
169883
162911
188542
178485
200122
47011.5
86163
23037.3
30680.2
17347.9
19258.9
15993.9
16409.6
15889.2
15864
16134.5
15994.3
16417.1
16281.7
16603.6
16527.6
16628.6
16638.4
16481.6
16574.9
16208.9
16356.2
15910.3
16053.7
15795.5
15808.5
16408.5
15950.1
19433.2
17415.6
31292.7
23379.3
88369.9
48120.2
204885
181913
192625
164865
172605
153635
158593
144992
149194
137572
141078
131627
134419
127067
129178
123865
125291
122124
122800
122087
121873
124027
122797
128134
125801
134567
131045
143460
138709
154653
148790
167863
161020
182853
175151
199271
190919
216614
207860
234681
225506
253745
244110
274414
263844
297285
285526
323842
310016
357811
339480
402755
379173
458703
428902
538794
494073
681280
598348
925691
792739
1.08246e+06
433113
414242
436933
442660
368281
410628
260038
315735
160819
206435
99110.5
125151
68557.5
80997.8
54666.4
60002.4
50523.1
51731.4
51284.5
50493.3
54397
52633.7
59118.6
56480.2
69139.1
63093.2
91122
77747.8
140127
111498
219704
176871
316021
266140
428660
372118
565891
494077
699774
637444
767377
745769
806992
772019
776525
801146
771940
522323
842508
1.03679e+06
546716
1.30949e+06
1.15382e+06
1.70336e+06
1.502e+06
2.0123e+06
1.88558e+06
1.66344e+06
1.95405e+06
918502
1.24201e+06
642484
720078
1.28088e+06
9.65819e+06
9.76762e+06
820502
918921
1.8648e+06
466477
415748
663920
553477
789138
749779
768322
787403
727262
745344
827810
739002
1.45902e+06
1.04713e+06
2.38309e+06
2.00128e+06
2.32839e+06
777443
68073.7
1.26088e+06
617101
792941
3.44631e+06
2.78986e+06
232960
276203
803027
2.41979e+06
595573
777007
104993
260293
54161
1.34978e+06
2.23504e+06
1.36644e+07
979585
1.00874e+06
893961
580663
6.44577e+06
5.01612e+06
8.57915e+06
7.67154e+06
8.59586e+06
8.88299e+06
6.98774e+06
7.92076e+06
4.77562e+06
5.90065e+06
3.69073e+06
1.18172e+06
1.14162e+06
1.94198e+06
1.04516e+06
111484
58011.9
734374
652872
151940
1.29278e+06
811754
1.17891e+06
1.13293e+06
99126.8
168215
2.08201e+07
201110
417986
218789
163612
675070
2.40592e+06
1.92207e+06
472986
335416
2.52101e+07
6.62075e+06
638943
1.03269e+07
3.85391e+07