/*--------------------------------*- C++ -*----------------------------------*\
| =========                 |                                                 |
| \\      /  F ield         | OpenFOAM: The Open Source CFD Toolbox           |
|  \\    /   O peration     | Version:  2212                                  |
|   \\  /    A nd           | Website:  www.openfoam.com                      |
|    \\/     M anipulation  |                                                 |
\*---------------------------------------------------------------------------*/
FoamFile
{
    version     2.0;
    format      ascii;
    arch        "LSB;label=32;scalar=64";
    class       volScalarField;
    location    "6.6e-05";
    object      p;
}
// * * * * * * * * * * * * * * * * * * * * * * * * * * * * * * * * * * * * * //

dimensions      [1 -1 -2 0 0 0 0];

internalField   nonuniform List<scalar> 
58408
(
28992.3
28231.1
28415.1
28431.2
28417.4
28404.9
28453.9
28488.6
28512.5
28536
28558.9
28591.4
28627.6
28680.2
28791.6
29037.6
29016.7
28995.7
29025.1
29083.1
29207.5
29219
29214.1
29219.6
29228.2
29233.6
29291.1
29334
29302.3
29305
29336.8
29330.1
29323.1
29347.4
29386.1
29367.4
29361.9
29370.1
29378.3
29388
29395.8
29416.7
29444.2
29440.6
29440.6
29444.6
29445.3
29445.2
29443.3
29438
29435.5
29432.3
29430.1
29426.1
29418.9
29407
29393.2
29370.6
29331.7
29280.5
29226.1
29167
29099.8
29029.6
28964.6
28901.5
28820.9
28720.7
28620.7
28533.2
28454
28375.5
28293.9
28206.8
28109.9
28009.6
27906
27794.4
27678.6
27565.3
27450.4
27329.5
27210.3
27097.9
26987.6
26875.6
26757.5
26631.9
26507.7
26386.7
26253.6
26108.3
25963.1
25821.8
25677.9
25536.4
25398.5
25263
25126.1
24984.5
24835.8
24683.3
24514.6
24324.3
24123.3
23915.9
23699
23485.5
23270
23042.4
22801.2
22547.1
22292.4
22041.5
21773.6
21508.8
21221.4
20953
20548.2
20293.1
19946.3
19642.3
19345.3
19003.1
18679.7
18304.7
17930.8
17559.4
17219.3
16876.2
16578.6
16331.5
16149.3
16011.3
15932.2
15933.7
15943.3
15986.3
16120.2
16435.7
16910.5
18195.5
15414.3
29786.8
28486.2
28531.2
28516.3
28514.2
28511.5
28531.1
28562.7
28594.3
28608.5
28619.8
28629.5
28640.6
28786.8
28968.3
28911.4
28914
28938.4
28980.1
29037.4
29147.9
29242.1
29201.1
29154.4
29177
29223.2
29328.6
29305.4
29277.7
29285.5
29301.2
29366.5
29362.3
29340.2
29351
29367.6
29375.3
29381.8
29387.1
29400
29406.6
29413.2
29431.6
29429.5
29428.9
29434.1
29434.6
29434.4
29434.3
29431.9
29430.7
29429.3
29427.8
29421.8
29410.5
29396.3
29377.9
29349.6
29307.1
29256.1
29203.3
29144
29077.5
29008.6
28943
28873.6
28788.8
28689.3
28592.1
28505
28424.8
28343
28259.6
28170.6
28072.3
27968
27859.6
27748.4
27634.7
27519.5
27401.1
27281.8
27165.7
27054.7
26941.6
26826.7
26709.5
26587.2
26461.3
26334.3
26199
26055.3
25910
25767
25623.7
25481.5
25343.2
25206.5
25068.6
24926.4
24777.8
24621.1
24449.3
24259
24058.6
23850.4
23629.1
23409.4
23188.9
22957
22714.4
22460.4
22205
21945.4
21678.1
21419.3
21126.9
20852.6
20471.2
20201.8
19843.9
19529.8
19207
18884.3
18536.3
18153.7
17777.2
17405
17065.2
16741.5
16464.3
16231.6
16052.6
15920.5
15862.8
15863.9
15872.8
15916.3
16049.4
16356.9
16990.3
17688.4
17628.3
29822.2
28461.7
28556.7
28609.8
28586.5
28497.6
28510.5
28536.2
28554.4
28567.1
28578.6
28593
28666.5
28852.3
28821
28803.1
28811
28821.1
28863.5
29050.2
29077.2
29073.7
29091
29112.9
29137.3
29206.4
29249.1
29216.5
29209.3
29220.6
29232.1
29306.8
29328.9
29290.1
29298.1
29310.8
29356.1
29354.9
29342.7
29347.1
29360.8
29366.2
29370.8
29388.3
29391.8
29388.7
29388.8
29388.4
29389.8
29390.9
29391.2
29391.3
29390.9
29383
29367.6
29350.7
29327.8
29289.9
29242.3
29192.3
29141.1
29082.5
29019.5
28954.1
28887.9
28813.3
28725.5
28627.3
28535.2
28452.6
28375.1
28295.3
28213.3
28123.5
28024
27919.4
27812.8
27703.3
27591.2
27479.4
27362.6
27244.3
27130.7
27022.3
26910.4
26797.2
26681.5
26560.1
26434.5
26306.6
26170.7
26026.6
25882.6
25742
25601.8
25464
25327.6
25190.7
25053.2
24911.6
24764.8
24610.2
24440.2
24249.2
24044.3
23830.6
23614.2
23395.4
23169.8
22930.6
22682.4
22426
22175.7
21932.6
21687.1
21438.2
21145.5
20867.5
20494.6
20200
19830.6
19506.2
19183.8
18850.2
18497
18109.3
17726.1
17342.7
16994.8
16650.1
16363.5
16123.8
15948.7
15829.7
15793.2
15794.8
15803.9
15848.9
15987.3
16302.5
16950.6
18109.5
18348.8
29950.5
28508.1
28588.7
28656.6
28661.2
28532.7
28551.5
28565.8
28563.2
28564.7
28567.1
28584
28757.5
28792.1
28763.2
28773.6
28786.8
28811
28854.7
29000.4
29085.8
29043.4
29025
29041.9
29072.6
29152.6
29246.6
29203.8
29187.4
29195.8
29206.8
29255.6
29256.5
29248
29269
29302
29292.6
29295.7
29303.2
29313.7
29324
29336.8
29351.8
29351.7
29353.9
29356.6
29358.8
29362.8
29365.6
29366.7
29367.1
29367.1
29365.8
29355.5
29342.2
29324.6
29299.3
29259.9
29208.6
29158.3
29107.8
29051.8
28988.8
28923.6
28857.6
28783.7
28695.5
28596.9
28507.3
28428.3
28349.5
28267.5
28181.9
28087.4
27985.5
27879.6
27773.5
27665.3
27554.7
27444.4
27329.3
27211.6
27098.3
26989.5
26877.4
26764.1
26648.4
26526.6
26400.3
26271.5
26136.2
25993.3
25849.3
25708.1
25566.7
25427.2
25289.8
25152
25011.5
24868
24720.2
24566.5
24398.3
24208.2
23998
23778.1
23555.6
23330.2
23099.1
22856.7
22606.9
22349.8
22100.2
21863.2
21623.1
21377.4
21079.2
20784.2
20412.9
20104.6
19721.7
19395.3
19050.7
18710.2
18333.6
17939
17538.4
17161.8
16811.3
16483.2
16207.2
15973.6
15801.3
15682.4
15652.9
15654.9
15664.6
15709.8
15850
16175.7
16840.1
18056.2
18177
29932.1
28487.7
28556.8
28617.1
28661.6
28541.8
28546.5
28557.6
28541.6
28534.4
28532.8
28542.2
28712.6
28749.8
28697.2
28709.9
28720.9
28752.2
28814.8
28945.8
29041.7
29012.2
28994.7
29002.9
29017.2
29038
29142.3
29214.9
29140.7
29122.2
29140.1
29177
29235.9
29230.8
29219
29224.6
29241.1
29249.8
29264.4
29294.8
29297.1
29294.9
29297.9
29303.2
29308.8
29311.9
29316
29317.9
29319.7
29320.4
29320.5
29320.5
29318.7
29313.5
29301.8
29285.3
29259.9
29215.9
29161.7
29108.6
29059.4
29005.9
28942
28872.3
28804.9
28731.1
28641.2
28543.2
28455.7
28379.1
28301
28218.8
28129.5
28030.9
27926.2
27821.4
27716.5
27610.2
27501.2
27393.3
27281.3
27166.7
27055.2
26947
26836
26723.2
26607.7
26486.8
26361.7
26233.5
26099.5
25958.4
25814.9
25673.3
25531.6
25390.1
25248
25106.9
24964.4
24818.3
24668.6
24513.6
24345.2
24157.8
23955.3
23736.1
23503.8
23272.6
23039.8
22799.8
22558.3
22312.9
22071.9
21825.1
21568.1
21308.5
20998.7
20696.1
20355.7
20040.8
19657.8
19332.2
18986.9
18647
18258
17866.9
17458
17064.7
16694.6
16335.7
16036.7
15793.8
15614
15503.5
15488.6
15491.4
15502.2
15545.1
15684.1
16019.2
16709.9
17716.4
17697.1
29952.3
28484.7
28515.6
28530.5
28660.2
28590.5
28506
28543.9
28524.5
28509.8
28509.2
28516.4
28657.1
28681.3
28652.8
28681.2
28679.1
28668.9
28691
28811.8
28961.1
28943
28930.6
28941.4
28961.4
28982.1
29021.5
29145.1
29142.4
29088.2
29080.3
29080.5
29137.3
29203.7
29210.8
29172
29175.1
29196.2
29236.5
29233
29236.8
29247.7
29256.7
29261.1
29265.4
29273.4
29279.8
29281
29282
29282.3
29282.4
29282.2
29281.6
29278.8
29267.8
29247.8
29221.2
29176.5
29120.1
29066.8
29017.7
28964.7
28897.9
28826.5
28759.1
28684.3
28591.7
28494.6
28410.2
28336.5
28259.7
28175.9
28082.4
27980.6
27872.9
27770.4
27667.8
27563.6
27457
27352.5
27242.9
27131.7
27021.6
26912.6
26801.5
26687.9
26572.3
26451.2
26326.9
26200
26067.5
25928.1
25784.9
25641.7
25497.2
25353.3
25210.7
25068.1
24924
24777
24626.1
24468.2
24295.1
24101.5
23894.5
23676
23446.9
23215.3
22979.8
22742.9
22508.8
22265.8
22014.1
21754.8
21489.7
21226.2
20912.4
20601.1
20259
19932.3
19531.3
19202
18841.4
18492.8
18089.7
17686.1
17256.4
16863.2
16483.2
16142.9
15849.5
15603
15412.6
15299.1
15271.7
15275.2
15286.8
15327.7
15459.4
15774.5
16422.9
17072.1
17055.7
29950.8
28470.3
28475.5
28462.5
28569.7
28597.5
28456
28482.2
28487.2
28466.8
28467.5
28474.7
28584.3
28643.8
28583.3
28591.5
28601.3
28635.5
28667.2
28703.7
28841.3
28909.4
28861.1
28851.1
28877.9
28978.3
28978.3
28966.8
29017.3
29083.6
29044.4
29011.5
29029.9
29046.6
29079.4
29156.3
29158.7
29130.6
29133
29146.2
29159.2
29175.8
29186.5
29204.8
29215.7
29213.8
29217.2
29223.2
29228.6
29231.1
29231.9
29232.1
29232.1
29229.9
29218.4
29197.5
29172.2
29130.3
29074.7
29020.7
28972
28918
28847.3
28774.7
28705.4
28631.6
28539.7
28443.2
28361.9
28289.8
28211.3
28125.4
28028.4
27924
27815.4
27715.3
27615
27512.3
27408.1
27305.9
27200.2
27092.7
26984.4
26874.2
26762
26647.8
26531.7
26411.3
26288
26162.3
26031.1
25893.5
25751.3
25607.6
25462
25318.5
25177.4
25035.8
24891.4
24743.5
24590.8
24430.2
24253.6
24057
23848.5
23632.1
23411.2
23190.5
22968.1
22728.4
22480
22216.4
21952.9
21692.9
21429.2
21166.8
20857.5
20534.2
20173.3
19822.4
19402.4
19063.7
18693.5
18345.3
17935
17537.7
17097.7
16708.6
16321.4
15953.8
15636.2
15387.2
15179.6
15061
15024.1
15027.8
15039.3
15077.9
15183.8
15441.2
15965.2
16512.3
16500.2
29949.6
28450.7
28433.8
28408.7
28473
28556.3
28440
28435.9
28449.9
28430.1
28427.8
28432.7
28482.8
28595.3
28538.9
28525.2
28535.8
28553.4
28582.1
28615.2
28756
28835.7
28800.6
28798.4
28812.6
28910.9
28957.9
28920.9
28927.3
28968.5
29032.6
28994.3
28962.7
28973.9
28976.8
29003
29038.8
29077.8
29120.7
29138.8
29137.4
29138
29139.8
29144.8
29153.8
29158.1
29160.9
29166
29175.9
29179.7
29181.2
29181.6
29181.6
29179.6
29171.9
29153.2
29127.7
29085.5
29030.1
28975.3
28923.6
28868
28799.2
28726.9
28656.1
28582.3
28492.7
28397.4
28315.8
28243.1
28165.3
28077.7
27978.9
27872.3
27763.3
27663.6
27565.5
27465.1
27364
27264.6
27162.2
27057.3
26949.1
26837.7
26724.1
26609.8
26493.1
26371.9
26249.2
26125.4
25996
25859.5
25718.8
25576
25430.1
25284.5
25141.1
24999.9
24857.3
24709.3
24553.2
24388.2
24208.2
24011
23805.3
23593.4
23379.2
23165.4
22942.5
22696.2
22427.3
22151.8
21889.7
21630.9
21367.4
21101.3
20780.5
20439.4
20069
19705.8
19274.3
18931.2
18550.7
18196.1
17779.5
17360.5
16913.1
16499.2
16079.9
15719.9
15401.8
15140.9
14917
14779.3
14723.3
14726.3
14736.6
14767.1
14842
15037.7
15450.4
15914.6
15904.5
29908.5
28405.4
28375.2
28315.3
28316.9
28443.8
28441.6
28342.4
28379.8
28380.1
28360.7
28362
28373.9
28504.8
28527.9
28463.6
28471.6
28484.7
28492.8
28531.5
28598.9
28758.2
28753.3
28722.5
28735
28778.7
28879.8
28861.7
28828
28833.9
28864.6
28979.9
28962.1
28891.9
28895.6
28921.3
28977.4
29028.7
29016.1
29031.8
29061.6
29082.5
29112.6
29117
29116.4
29112.2
29111.8
29110.5
29111.6
29116.5
29117.8
29118.7
29118.9
29118
29113.6
29095.2
29069.7
29030.6
28977.8
28926.1
28875.3
28817.9
28750.6
28676.4
28606.7
28530.2
28442.4
28348.7
28268.4
28195
28114.8
28027.3
27927.8
27819.3
27712.3
27614
27517.6
27419.8
27321.7
27226.4
27126.4
27023
26914.5
26801.9
26686.3
26570.7
26453.2
26331.5
26209.2
26086.4
25957.8
25822.4
25684
25543.7
25399.9
25256.2
25113.9
24970.1
24824.1
24673.9
24515
24348
24168
23971.6
23766.8
23555.7
23337.6
23118.4
22890.5
22646.6
22388.7
22120.9
21857.3
21591.3
21314.4
21032
20701.2
20346.3
19977.4
19610.8
19173.5
18821.4
18428.5
18062.7
17632.3
17207.5
16735.3
16312.8
15883.6
15493.2
15147.4
14862.3
14623.4
14461.4
14382.1
14383.5
14390.3
14410.8
14461
14592.7
14878.8
15269.5
15267.4
29797.3
28292.5
28312.8
28241.8
28233.7
28291.5
28405.6
28281.5
28242.6
28302
28300.7
28298.8
28302.4
28396.9
28489.8
28417.7
28408.4
28425.6
28439.7
28476.8
28506.5
28647.6
28708
28652.7
28652.3
28675.3
28718.6
28799.3
28772.5
28758.3
28767.4
28790
28919.8
28943.2
28873.6
28865.8
28880.9
28903
28951
28973.5
28990.1
28999.3
29010.2
29020.8
29028.2
29029.8
29037.2
29046.5
29050.4
29051.2
29051.1
29051.5
29051.7
29051.3
29047.4
29032.7
29012.4
28972.7
28921.7
28871.9
28821.3
28764.2
28698.7
28626.5
28558.5
28479.5
28392.7
28297.1
28215.3
28143.4
28065.7
27980.1
27878.1
27769.3
27663.6
27565.9
27470.7
27377.1
27282.4
27190.6
27091.1
26987.6
26878.2
26764.8
26647.1
26529.4
26411.3
26289.5
26168
26045.3
25917.6
25785.1
25648.6
25510.7
25369.6
25229.4
25090.8
24952.8
24810.5
24661.7
24504.2
24338.7
24158.9
23960.1
23749.2
23528.4
23301.7
23072.1
22836.9
22596.9
22349.5
22079.9
21805.5
21529.8
21245.5
20954.3
20610.8
20251.3
19883.9
19510.8
19064.9
18702
18297.8
17920.1
17468.9
17024.8
16536.5
16094.6
15638.9
15230.7
14866.9
14556.5
14300
14102
13984.8
13953.6
13957.2
13971.3
14002.9
14084.1
14263
14544.1
14590.1
29730.9
28231.9
28289.2
28178.8
28069.2
28083.3
28274.7
28307.1
28169.8
28175.2
28210.8
28220.4
28225.4
28254.9
28392
28385
28334.7
28349.6
28370.7
28400.6
28421.8
28489.7
28629.5
28599
28555.9
28574.2
28592.3
28673.2
28758.3
28713.2
28687.7
28703.5
28724
28806.9
28910.6
28890.4
28858.4
28850.2
28852.4
28872.8
28895.7
28907.2
28930.8
28957.1
28956.2
28951.6
28952.8
28956.4
28968.5
28977.9
28982.8
28985.1
28986.1
28986.4
28985.1
28969.8
28944.6
28909.3
28861.2
28810.3
28760.2
28708.6
28641.9
28572.5
28506.5
28428.1
28338.5
28241.9
28161.5
28089.4
28015.6
27931.6
27830
27722.5
27616.7
27520.1
27427.5
27338.3
27245.9
27154.4
27055.4
26950
26839.5
26725.2
26605.8
26486.2
26367.7
26245.7
26124.2
26003.2
25877
25747
25611.5
25476
25338.6
25201.7
25066.1
24930.4
24791
24646.2
24493.6
24332
24153.5
23954.1
23743.1
23519.9
23287.2
23053
22816.2
22571.2
22303.2
22024.5
21745
21464.2
21174.8
20877.3
20530.8
20161.4
19788.3
19406.9
18949.2
18574
18158.4
17768.6
17298.7
16834.7
16321.1
15853.4
15369.6
14936
14542.6
14201.2
13928.8
13705.3
13570.4
13467.3
13470.2
13478.5
13495.8
13542.1
13640.1
13797.1
13846.5
29680.6
28238.1
28242.2
28076.5
28064.9
28048.6
28105.5
28220.1
28227.9
28128.9
28138.1
28149.3
28143.3
28141.4
28178.4
28318.7
28296.7
28270.3
28290.8
28310.6
28335.8
28360.2
28433.7
28550.9
28502.7
28484.9
28501.2
28541
28676.5
28664.5
28617.4
28661.9
28700.7
28689.5
28711.9
28801.7
28875.7
28835.6
28806.2
28816.7
28839.7
28864.9
28862.1
28865
28874.1
28899.5
28905.8
28907.5
28905.3
28904.5
28903.9
28903.1
28903.2
28903.2
28901.5
28893.9
28870.7
28844
28803.8
28755.8
28702.5
28651.5
28586.7
28515.3
28449.5
28372.8
28284.3
28187.4
28109.5
28037.2
27966.2
27883.6
27781.2
27676
27572.5
27476.5
27387.7
27302.8
27212.5
27118.5
27018.9
26910.5
26799
26683.8
26562.5
26441.9
26323.1
26202.4
26080.6
25960.9
25836
25706.6
25573.8
25441.7
25307.7
25173.5
25040.6
24907.5
24770.8
24630
24481.8
24323.7
24147.6
23949
23736.4
23512.2
23277.3
23038.9
22795.1
22527.8
22247.9
21962.2
21676.4
21388.8
21094.3
20789.9
20440.2
20065.9
19680.3
19288.5
18819.8
18432
18006.4
17605.5
17120.8
16635.6
16096.2
15605.8
15089.7
14613.7
14181.8
13804.6
13504.5
13241.2
13074.4
12940.8
12942.2
12945.7
12952.4
12972.1
13010.9
13097.7
13134.9
29632
28218.3
28205.6
28041.6
28059.9
28037.4
28012.5
28036.7
28162.4
28176.2
28053.2
28020.6
28032.4
28054.3
28064.4
28115.7
28277.8
28226.2
28204.2
28222.5
28243.8
28261.8
28274.9
28380.3
28493.2
28433.6
28421.3
28435.7
28465.4
28526.6
28616.5
28615.1
28624.8
28632.2
28635.6
28645.1
28681.7
28783.8
28790.1
28779.1
28784.3
28801.1
28834.3
28831.1
28819.9
28817.9
28821.6
28823.3
28823.9
28819.1
28821.3
28820.8
28820.2
28819.9
28819.2
28815.1
28799.8
28776.9
28748
28702.9
28649.4
28593
28526.1
28455.5
28391.4
28315.7
28229.9
28136.5
28062.3
27990.8
27918.5
27836.1
27733.7
27630
27529.7
27436.6
27353.5
27269.5
27178.6
27084
26983.8
26872
26757.6
26640.3
26517.9
26398
26279.3
26158.7
26037.7
25919.7
25796.2
25667.4
25536.7
25407.5
25277
25145.8
25014.1
24881.7
24747.5
24608.8
24462.5
24308.7
24135.6
23941.6
23726
23498.8
23259.5
23015.6
22757.4
22477.4
22192.6
21900.2
21609.2
21317.4
21017.7
20706.9
20350.3
19965.4
19560.9
19161.7
18685.3
18283.9
17844.2
17426.7
16923.7
16410.8
15855.2
15337.4
14803.2
14315.3
13842.5
13437.8
13090.7
12802.7
12588.2
12431.4
12378.6
12380.2
12385.5
12401.8
12403.7
12409.2
12422.2
29626.9
28157.1
28204.7
28037.3
28010.7
28022
27985.9
27976.6
28002.3
28119.4
28092.5
27938.8
27935.4
27972.1
27990
28000
28101.4
28235.2
28169.9
28185.7
28202.4
28218.6
28227
28256.3
28334.1
28439.9
28402.4
28396
28414
28436.6
28462.5
28534.1
28609.3
28597.2
28562.5
28552.8
28569.7
28599
28684.3
28679.3
28672
28678.4
28701
28728.4
28736.7
28741.9
28756.3
28757.9
28756.2
28754.4
28753.7
28753.1
28752.8
28751.5
28749.6
28732.1
28716.3
28700.8
28685.1
28647.4
28594.9
28535
28467.2
28399
28336.5
28261.7
28176.8
28088.8
28014.8
27944.9
27871.6
27787.3
27686.5
27585.1
27488.8
27401.1
27322.9
27239.8
27147.2
27049.9
26947.1
26832.2
26714.7
26595.5
26474.9
26356.7
26239.1
26119.7
26000.2
25882.8
25759
25631
25502.6
25376
25247.7
25116.6
24985.7
24854.9
24721
24582.7
24436.9
24282.6
24117.9
23925.7
23708.1
23479
23235.4
22974.9
22701.9
22426.6
22141.1
21847.3
21554.3
21259.3
20954.1
20634.4
20264.8
19868
19443.6
19047.2
18564.1
18142.3
17682.4
17237.5
16704.8
16161.4
15556.4
15008.6
14441.5
13935.8
13458.2
13053.3
12685.7
12389
12129.5
11960.1
11824.7
11827.3
11835.7
11835.4
11826.5
11802.3
11799
29612.1
28105.6
28080.8
28057
27968.5
27936.8
27950.8
27934.3
27919.7
27944.5
28041.5
27978
27868
27895.1
27918.4
27926.1
27937.6
28055.1
28240.5
28168.8
28134.2
28141.1
28154.6
28180.2
28199.2
28256.3
28400.7
28429.5
28376.3
28360
28370.2
28384.1
28409.2
28502.5
28541
28538.7
28543
28564.9
28609.7
28636.4
28634
28633.7
28648
28664.3
28662.7
28668.7
28680.6
28691.1
28694.7
28694.4
28693
28695.5
28695.2
28683.8
28664.3
28654.3
28642.3
28629.2
28619.5
28588
28534.4
28477.5
28407.4
28340.1
28280.7
28210.5
28129.1
28041
27967.8
27899.4
27825.6
27739.7
27639.7
27542.3
27450.8
27368.3
27291.5
27208.2
27112.8
27013
26907.2
26790.1
26669.9
26552.4
26434.5
26318
26202.8
26085.1
25965.6
25847.9
25725.5
25599.8
25473.8
25346.3
25216.4
25085.8
24956.2
24827.4
24693.9
24556.6
24409.4
24251.2
24075.6
23882.3
23670.2
23431.2
23170.6
22911.6
22650.3
22379.5
22096.1
21803.3
21509
21208.4
20893.1
20561.8
20183.5
19780
19335.6
18942
18445.5
17996.5
17507.8
17038.7
16464
15893.6
15239.4
14652.1
14020.3
13485.6
12985.8
12585.8
12202.7
11908.3
11633.3
11463.8
11291.6
11293.8
11289.5
11275.1
11240.8
11231.2
11216.3
29532.3
28101.6
27995.7
27904.7
27967.9
27937.7
27886.6
27841
27823
27814.1
27849.1
27967.3
27907.4
27803.9
27820.8
27839.9
27846.6
27876
28149.4
28177.6
28048.3
28011.3
28029.8
28068.9
28162.7
28224.4
28213.8
28282.5
28401.4
28376.7
28326.3
28333.2
28347
28362.6
28388.5
28439.3
28554.4
28555.5
28527.3
28551
28574.2
28576.3
28580.4
28594.5
28612.9
28614.9
28622.5
28631.1
28630.4
28628.3
28631.9
28625.8
28610.6
28596.3
28580.1
28571.5
28565.6
28556.8
28547.9
28523.8
28471.7
28414
28342.1
28277.2
28224.4
28160.4
28081.2
27994.9
27921.2
27853
27777.3
27690
27592.8
27498.7
27411.7
27333.1
27257.2
27172.6
27075.3
26973
26864
26744.8
26624.3
26510.8
26396.2
26281.2
26169
26052.9
25932.7
25815.3
25693.9
25569.9
25443.1
25314.9
25185.2
25056.8
24926.8
24795.9
24663.2
24525
24375.5
24213.8
24033.5
23829
23604.5
23363.4
23111
22859.6
22604.3
22338.1
22059.2
21769.3
21469.3
21155.5
20831.4
20491.5
20111.1
19709.2
19233.8
18838.7
18315.9
17827.9
17316.9
16815.3
16210.8
15621.6
14936.7
14353.3
13707.1
13134
12565.7
12122.5
11702
11387.6
11094.9
10912.7
10728.5
10729.7
10724.1
10708.8
10680.1
10650.3
10595.5
29443
28045.5
28062.2
27791
27784.5
27912.8
27908.5
27842.2
27736.1
27732.8
27740.8
27813.5
27909.3
27867.8
27773.8
27779.4
27805.1
27870.3
27946.1
28103.9
28075.2
27968.2
27968.9
27994.2
28070.6
28185.7
28145
28142.2
28176.1
28333.2
28385.7
28311
28266.4
28282
28303.6
28329
28423.8
28506.8
28467.3
28484.6
28526.1
28529.4
28524.9
28544.1
28555.9
28553.5
28557.3
28571.1
28573.8
28576.5
28551.9
28539.9
28532.6
28524.3
28517.7
28505.6
28494.9
28482
28469.1
28442.4
28393.4
28340
28278.7
28217
28166.1
28109.4
28034.8
27950.1
27875.2
27806.6
27728.4
27639
27544.8
27453.4
27370.3
27294.4
27217.6
27132.5
27037.3
26931.2
26818.7
26699.2
26580.3
26470.7
26359.5
26246.7
26135.2
26020
25901.9
25786.5
25665.6
25541
25413.1
25286.2
25157.4
25027.2
24896
24764.5
24630.9
24490.8
24339.8
24175.1
23990.4
23781.1
23552.6
23312.8
23065.2
22818.4
22567.1
22304.5
22026.9
21728.2
21416.8
21097.5
20768.9
20425.2
20048.4
19647.9
19122.4
18713.1
18154.6
17631
17091.8
16558.1
15920.8
15289.3
14564.1
13996.3
13368.5
12813.3
12203.7
11715.5
11242
10884.6
10554
10344.3
10146.1
10140.4
10124.9
10118
10105.1
10076.7
10021.9
29401.4
27923.8
28023.5
27875
27683.3
27727.6
27882.7
27877.6
27776
27692.6
27687.5
27711.8
27721.6
27763.1
27785.4
27796.1
27864.6
27843.1
27783.6
27810.2
27979.2
27976.6
27938.2
27949
27974.6
28087.4
28107.2
28073.6
28078.8
28114.5
28283.4
28314.2
28255.7
28278.8
28275.1
28274
28282.7
28304.3
28362.7
28389.7
28395.2
28418.4
28422.7
28429.1
28445.5
28471.6
28471.3
28463
28465.1
28460.9
28460.8
28457.6
28457.6
28457
28456.2
28450
28433.3
28408.5
28381.6
28355.4
28320.2
28270.4
28216.7
28160.7
28109.8
28060
27990.2
27906.7
27827.7
27754.4
27672.9
27584
27491.8
27404.8
27326.5
27251.2
27176.8
27091.8
26995.7
26888.6
26773.5
26657
26542.7
26436.7
26325.8
26212.7
26099.6
25985.8
25870.8
25757.5
25639.1
25515.5
25387.7
25262.2
25133.8
24999
24865.3
24736.2
24599.3
24452.5
24297
24129.7
23941.2
23730.5
23505.1
23271.9
23031.9
22790.3
22542.1
22277.8
21986.6
21675.7
21355.8
21032.3
20702.5
20355.6
19975
19560.1
18991
18552.7
17963.9
17397.2
16839.6
16269.4
15592.7
14902.1
14122.7
13463
12687.3
12166.7
11615.1
11203.3
10737.6
10401
10063.3
9823.59
9612.35
9544.05
9544.23
9546.16
9538.68
9510.94
9453.01
29372.2
27841.1
27859.7
27847.4
27782
27641.1
27637.5
27726
27801.5
27763.7
27730.9
27670.3
27651
27646.4
27651.5
27707
27888.2
27872.2
27725.9
27733.5
27783.3
27944.7
27954
27904.4
27908.2
27938.4
28042.5
28025.6
27998.7
28007.1
28036.1
28169
28262.9
28242.5
28259.9
28258.1
28251.6
28252.9
28261.7
28293.4
28313.8
28331.5
28345.8
28355.2
28362.9
28378.1
28386.1
28387.6
28400.1
28412
28414.3
28414.2
28410.6
28408.5
28409.7
28389.3
28368.8
28342.6
28314
28280.9
28252.5
28205.8
28154.4
28110.4
28056.8
28004.1
27939.1
27854.2
27773
27698
27615.1
27527.5
27437.3
27354.9
27281.3
27210.9
27138.7
27053.5
26956.9
26848.6
26732.7
26620.4
26510
26405.9
26297.5
26184.5
26070.2
25955.7
25843.3
25730.9
25613.2
25488.9
25359.9
25233.8
25105.6
24968.1
24827.8
24692.9
24553.8
24403.3
24241.6
24072.6
23889.1
23684.6
23467.3
23241.6
23007.6
22770.9
22517.5
22237.6
21932.4
21611.6
21288.2
20963.8
20629.3
20276
19879.4
19415.1
18851.8
18340.4
17733.9
17133.4
16554.5
15956
15270.4
14569.1
13766
13042.3
12273.8
11615.2
11009.9
10588.4
10145.4
9829.61
9494.23
9270.42
9043.2
8945.82
8947.42
8944.68
8937.32
8914.17
8869.67
29355.2
27814
27731.4
27708.4
27786.1
27730.5
27557.8
27559.4
27599
27678.7
27698.6
27678.5
27640.8
27616.8
27611.6
27621.9
27762.4
27850.8
27716.3
27693.4
27702.6
27788.9
27941.3
27903.2
27837.2
27857.9
27916.5
27986.5
27951.4
27939.7
27952.6
27958.5
28098.1
28191.2
28175.1
28189.2
28209.2
28237.7
28249.8
28292.8
28302.4
28285.1
28283
28316.9
28342.7
28338.1
28330.3
28329.3
28342.2
28352.4
28352.9
28358.8
28364.4
28356.6
28341
28328.4
28306.6
28276.1
28244.7
28222
28198.5
28148.3
28091.5
28048
27995.6
27937.4
27875.8
27792.9
27708.1
27634.5
27552.2
27471
27386.8
27310.6
27242.5
27175.2
27105.1
27019
26918.5
26807.4
26691.9
26584.6
26481.5
26380.1
26274.2
26158.3
26041.1
25924.7
25808
25697.6
25586.2
25462.8
25326.5
25189.1
25058.3
24928.6
24780.3
24635.4
24495.6
24340.3
24175.6
24008.3
23829.7
23635.7
23431.8
23212.5
22973.8
22726.7
22459.9
22167.9
21855
21535.8
21216.1
20891.4
20549
20180.4
19756.3
19251.3
18682.4
18079.1
17483.5
16837.7
16214.7
15599
14908.8
14214.6
13472.2
12840.2
12109.6
11412
10683
10178.8
9687.49
9320.34
8948.65
8716.24
8505.96
8422.67
8395.06
8390.74
8383.41
8363.91
8325.37
29271.9
27803.3
27725.4
27595.7
27627.2
27739.9
27643.2
27478.1
27502
27527.3
27522.5
27549.3
27564.3
27570.4
27574.4
27617.8
27656.9
27679.1
27734.4
27717.2
27698.8
27711.8
27840.8
27890.5
27838.4
27845.9
27852.2
27858.5
27905.9
27920.3
27913.2
27918.8
27938.6
27970
27993.9
28004.1
28052.4
28112.6
28180.3
28312.9
28327.7
28253.8
28246.9
28264.5
28301.5
28304.3
28290.6
28293.1
28296.7
28308.5
28312.1
28297.6
28286.6
28281.5
28277.5
28273
28245.1
28223.9
28198.5
28179.4
28149.2
28096.5
28034.5
27986.7
27936
27879.5
27816.5
27732.9
27649.7
27579.1
27501.8
27427.6
27354.2
27282.4
27214.8
27145.6
27073.9
26985.2
26881.7
26772.3
26662
26559
26458.8
26358.6
26255.9
26146.8
26031.7
25912.2
25790.9
25678.7
25565.4
25446.3
25308.4
25161
25019.2
24888.5
24744.7
24591.6
24445
24291.6
24127.1
23960.7
23788.1
23601.6
23398
23176.8
22941.3
22682.5
22404.5
22107.7
21793.8
21476.3
21156.9
20824.4
20467.8
20071.6
19623.4
19104.6
18546.3
17825.8
17247.3
16536
15863.2
15210.4
14479
13711.4
12950.3
12334.9
11706.3
11073.2
10369
9833.12
9277.74
8894.78
8475.19
8229.49
7968
7868.97
7863.99
7857.48
7842.88
7823.81
7794.68
29212.4
27723.4
27755.6
27542.8
27473.2
27554.7
27685
27562.6
27424.4
27451.3
27475.6
27473.3
27452.5
27448.1
27450.3
27509.6
27642.2
27583.9
27568.7
27627
27668
27696.3
27785.4
27853
27810.2
27815.4
27799.7
27776.6
27786.4
27861.4
27927.3
27901.7
27881.9
27897.9
27904.6
27918.5
27954.7
27997.8
28028.1
28142.1
28228
28232.9
28206.1
28200.3
28211.1
28256.1
28239.8
28240.5
28242.5
28233.4
28224.7
28221.7
28221.2
28221
28220.7
28212.6
28188.6
28172.4
28154
28129.6
28091.8
28039.2
27979.4
27929.9
27878.1
27823.6
27759.9
27676.2
27594.5
27527.6
27461.2
27394.6
27321.4
27251.6
27182
27111.4
27037.7
26951.3
26848.6
26739.1
26633.3
26533.8
26437.2
26338.9
26239.4
26134.5
26022.7
25901.5
25773.1
25654.8
25540.1
25422.5
25286.4
25133.9
24982.4
24856.5
24713
24554.3
24407.4
24263.9
24104.9
23942.8
23771.3
23577.1
23366.5
23136.4
22892.5
22636.8
22363.5
22073.4
21765.5
21444.6
21105.4
20746.3
20366.2
19947
19482.1
18965.9
18368.2
17611.2
17010.4
16311.6
15573.7
14868.4
14073.5
13245
12308.7
11483.6
10758.2
10289.3
9775.02
9336.23
8827.39
8442.93
8004.3
7748.6
7496.75
7380.74
7370.47
7350.93
7328.69
7283.99
7283.7
29192.3
27616.6
27638
27615.9
27496
27380.9
27474.8
27629.7
27525.9
27394.3
27416.7
27437.6
27424.1
27413.3
27408.3
27411
27502.1
27550
27489.3
27497.8
27510.7
27537.7
27559.7
27714.8
27814.7
27758.9
27732.7
27708.8
27703.6
27723.9
27836.8
27933.3
27861.9
27855.9
27867.7
27881.7
27904.2
27936.7
27960.1
28053.1
28060.7
28042.7
28053.6
28054.9
28061.8
28071.8
28100.1
28124.9
28158.9
28165.8
28172.1
28175
28175.6
28175.2
28173.8
28157
28132
28117.2
28102.6
28080
28038.4
27982.4
27916
27866.6
27821.2
27767.4
27705.5
27625.9
27549.4
27483.4
27420.3
27354.4
27283.2
27216.9
27150.3
27078.9
27005.6
26919.7
26817.8
26710.5
26609.3
26511.4
26411.3
26314.3
26218.5
26117.1
26008.5
25892.5
25766.1
25654.4
25538.6
25419.1
25281.4
25127.5
24970.6
24839.9
24701.8
24547.2
24400.3
24257.5
24105
23940.3
23768.6
23574.8
23362.5
23130.6
22881.6
22620.4
22343
22048
21728.9
21388.8
21029.2
20652.8
20254.4
19820.8
19365.5
18839.3
18199.6
17455.6
16777.3
16155.5
15349.4
14607.3
13773.4
12893.6
11911.5
11020
10194
9587.39
9100.95
8650.1
8218.23
7872.6
7513.48
7284.25
7056.95
6943.61
6914.19
6899.12
6880.63
6841.19
6851.84
29195.1
27553.9
27480
27570.2
27544.6
27373.6
27375.5
27459
27554.3
27466
27370.7
27385
27390.4
27382.5
27382.4
27376.8
27380
27477.3
27487.8
27446
27445.7
27459.7
27472.5
27489.7
27680.9
27757.6
27699.6
27705.2
27681
27670.4
27683.5
27803.8
27840.9
27807.5
27822.6
27826.7
27826.2
27827.9
27852.2
27980.8
28007.4
27956
27957
27967
27979.8
28002.1
28025.5
28070.1
28085.7
28094.4
28101.3
28104.9
28105.3
28105.4
28103.3
28096.3
28082.7
28065.8
28043.2
28016.2
27969.1
27912.6
27849.3
27796.6
27755.4
27709.2
27645.4
27567.7
27494.5
27430.1
27369.9
27307.7
27243.6
27180.6
27116.7
27047.5
26973.4
26883.7
26778.7
26677.3
26582.3
26479.4
26376.4
26283.5
26189.5
26090.6
25986.9
25875.7
25764.8
25651.4
25533.9
25410.4
25269.9
25113.9
24944.9
24808.5
24684.4
24533.1
24392.7
24251.5
24102.1
23939
23761.4
23569.8
23354.6
23119
22858.6
22586.7
22300.3
21996.8
21666.1
21314.3
20945.8
20564
20170.2
19752.2
19291.4
18741.1
18078
17348.5
16513.4
15892.1
15157.1
14416.7
13595.1
12684.1
11719.4
10824.3
9957.68
9235.52
8607.55
8141.77
7742.41
7409.57
7086.44
6876.54
6669.82
6566.5
6516.66
6499.26
6460.1
6446.26
6457.14
29117.9
27541.9
27344.7
27340.6
27507
27483
27301.2
27300.7
27369.2
27450.3
27405.5
27340
27347.9
27350.5
27339.2
27326.7
27326
27351
27474.2
27465.7
27400.2
27381.1
27398.5
27411.1
27441.7
27598.2
27684.1
27666.6
27671.6
27654.6
27651
27703.8
27724.1
27704.2
27715.4
27734.8
27751.5
27777.5
27807.6
27880.6
27951.9
27907
27900.1
27912.4
27935.3
27961.8
27977.5
27987.1
28017.7
28025.3
28040.9
28045.5
28048.7
28050.8
28050.5
28048.2
28029.6
28008.4
27995.3
27955.9
27902.9
27843.4
27784.3
27735.6
27696.8
27649.1
27587.4
27514.5
27445
27384.6
27326.3
27276.2
27219.3
27158.9
27094.7
27020.4
26941.5
26849.8
26745.3
26646
26549.2
26446.7
26345.2
26250.4
26158.3
26064.2
25968.5
25871.2
25763.7
25643.8
25527
25397.2
25260.8
25112.2
24945
24795
24673.6
24536.9
24391.6
24251.7
24101.6
23941.9
23761.1
23564.1
23345.7
23107.6
22848
22575
22285.4
21973.9
21633.7
21272.4
20899.3
20526.7
20151.1
19739.4
19246.2
18643.8
17962
17141
16284.5
15556.4
14915.6
14247.5
13448.4
12569.1
11632.3
10790.2
9915.56
9158.38
8429.94
7881.16
7415.91
7035.48
6728.46
6505.97
6333.07
6262.31
6215.72
6184.65
6135.9
6138.84
6154.72
28909.8
27498.4
27381.9
27177.1
27263
27444.6
27388.5
27198.7
27180.8
27216.7
27340.5
27367.1
27325.7
27270.1
27237.5
27255.8
27252.4
27252.6
27312.5
27471.6
27420.1
27336
27342
27361.2
27371.6
27382.9
27491.4
27555.8
27529.1
27532.9
27552
27614.4
27709.6
27699.3
27681.9
27694.7
27698.6
27710.4
27738.9
27765.2
27825.9
27892.8
27881.8
27882.2
27884.5
27885.6
27905.1
27914.8
27943.8
27948.7
27967.8
27982.1
27985.8
27986.6
27972.8
27956.1
27947.1
27943.3
27924
27879
27829.7
27773.6
27714
27665.6
27625.2
27580.8
27529.2
27461.9
27396.9
27344.1
27289.3
27242
27192.4
27133.2
27066.7
26985
26902.4
26807
26700.5
26601.3
26500.4
26401.4
26305.2
26215.9
26126.7
26038
25953.1
25870.3
25764.1
25639.8
25512.1
25371.9
25242.6
25108
24944.5
24786.2
24662.1
24537.2
24393.8
24251.8
24101.4
23941.1
23760.2
23560.9
23325.8
23083.1
22830.9
22549
22250.8
21922.8
21568.1
21201.9
20850
20496
20109
19667.4
19142.9
18518.5
17791.1
16939.5
16102.7
15243.2
14523.3
13788
13028.8
12281.2
11486.9
10744.2
9872.2
9047.97
8247.43
7643.11
7155.65
6721.96
6415.07
6211.1
6087.76
6032.69
5964.25
5939.05
5907.38
5910.61
5922.37
28843.3
27394.9
27429.7
27135.7
27096.5
27162.2
27395.5
27279
27093.8
27106.8
27137.6
27276.9