/*--------------------------------*- C++ -*----------------------------------*\
| =========                 |                                                 |
| \\      /  F ield         | OpenFOAM: The Open Source CFD Toolbox           |
|  \\    /   O peration     | Version:  2212                                  |
|   \\  /    A nd           | Website:  www.openfoam.com                      |
|    \\/     M anipulation  |                                                 |
\*---------------------------------------------------------------------------*/
FoamFile
{
    version     2.0;
    format      ascii;
    arch        "LSB;label=32;scalar=64";
    class       volVectorField;
    location    "0.023";
    object      U;
}
// * * * * * * * * * * * * * * * * * * * * * * * * * * * * * * * * * * * * * //

dimensions      [0 1 -1 0 0 0 0];

internalField   nonuniform List<vector> 
24240
(
(9.83087 0.500502 -3.55562e-08)
(9.83089 0.500504 -1.7974e-06)
(9.83089 0.500505 -2.7352e-06)
(9.8309 0.500506 -3.77263e-06)
(9.8309 0.500508 -4.62578e-06)
(9.8309 0.50051 -5.34897e-06)
(9.83091 0.500512 -5.90842e-06)
(9.83091 0.500515 -6.30175e-06)
(9.83092 0.500518 -6.52317e-06)
(9.83093 0.50052 -6.57416e-06)
(9.83093 0.500523 -6.46185e-06)
(9.83094 0.500525 -6.1949e-06)
(9.83094 0.500528 -5.78851e-06)
(9.83095 0.50053 -5.2684e-06)
(9.83095 0.500532 -4.66446e-06)
(9.83095 0.500533 -3.99461e-06)
(9.83096 0.500535 -3.28778e-06)
(9.83096 0.500536 -2.56666e-06)
(9.83096 0.500536 -1.53708e-06)
(9.83094 0.500536 -1.1237e-06)
(9.15424 0.51056 -2.06523e-07)
(9.15426 0.510561 -5.6563e-07)
(9.15426 0.510562 -8.49054e-07)
(9.15426 0.510564 -1.15371e-06)
(9.15426 0.510566 -1.4265e-06)
(9.15426 0.510569 -1.67315e-06)
(9.15426 0.510572 -1.88222e-06)
(9.15426 0.510575 -2.04834e-06)
(9.15426 0.510578 -2.1662e-06)
(9.15426 0.510581 -2.2317e-06)
(9.15426 0.510584 -2.2432e-06)
(9.15426 0.510587 -2.19815e-06)
(9.15426 0.51059 -2.09847e-06)
(9.15426 0.510592 -1.94743e-06)
(9.15426 0.510595 -1.7522e-06)
(9.15426 0.510596 -1.51923e-06)
(9.15426 0.510598 -1.25778e-06)
(9.15426 0.510599 -9.61642e-07)
(9.15426 0.5106 -6.17011e-07)
(9.15424 0.5106 -2.34041e-07)
(9.172 0.182161 -1.50574e-07)
(9.17201 0.182162 -2.4706e-07)
(9.17201 0.182163 -3.56043e-07)
(9.17201 0.182164 -4.88245e-07)
(9.17201 0.182165 -6.23455e-07)
(9.17201 0.182166 -7.65288e-07)
(9.17201 0.182168 -9.06789e-07)
(9.17201 0.182169 -1.04025e-06)
(9.17201 0.182171 -1.15938e-06)
(9.17201 0.182173 -1.25579e-06)
(9.17201 0.182174 -1.32317e-06)
(9.172 0.182176 -1.35504e-06)
(9.172 0.182178 -1.34646e-06)
(9.172 0.182179 -1.29573e-06)
(9.172 0.18218 -1.20304e-06)
(9.172 0.182182 -1.06457e-06)
(9.172 0.182183 -9.00207e-07)
(9.172 0.182184 -6.85437e-07)
(9.172 0.182184 -4.26462e-07)
(9.17198 0.182184 -1.03852e-07)
(8.86966 0.185885 7.30984e-08)
(8.86967 0.185886 2.08488e-07)
(8.86967 0.185886 3.84611e-07)
(8.86967 0.185887 5.3258e-07)
(8.86967 0.185887 6.51962e-07)
(8.86967 0.185888 7.29508e-07)
(8.86966 0.185889 7.682e-07)
(8.86966 0.18589 7.73e-07)
(8.86966 0.185891 7.50397e-07)
(8.86966 0.185892 7.08932e-07)
(8.86966 0.185893 6.56478e-07)
(8.86965 0.185894 6.0004e-07)
(8.86965 0.185895 5.45836e-07)
(8.86965 0.185896 4.9887e-07)
(8.86965 0.185897 4.61581e-07)
(8.86964 0.185898 4.37346e-07)
(8.86964 0.185898 4.20815e-07)
(8.86964 0.185899 4.0696e-07)
(8.86964 0.185899 3.04059e-07)
(8.86962 0.185899 8.40473e-08)
(8.85608 0.0797934 5.85548e-08)
(8.8561 0.0797937 2.41072e-07)
(8.8561 0.0797939 4.21894e-07)
(8.8561 0.0797942 5.7224e-07)
(8.85609 0.0797945 6.80882e-07)
(8.85609 0.0797949 7.41322e-07)
(8.85609 0.0797954 7.53924e-07)
(8.85609 0.0797959 7.26231e-07)
(8.85609 0.0797964 6.64696e-07)
(8.85608 0.079797 5.80152e-07)
(8.85608 0.0797975 4.81869e-07)
(8.85608 0.0797981 3.79552e-07)
(8.85608 0.0797986 2.84544e-07)
(8.85607 0.0797991 2.03912e-07)
(8.85607 0.0797995 1.44379e-07)
(8.85607 0.0797998 1.17077e-07)
(8.85607 0.0798001 1.15096e-07)
(8.85607 0.0798003 1.38032e-07)
(8.85607 0.0798005 1.25092e-07)
(8.85605 0.0798004 5.74763e-08)
(8.72037 0.074568 1.57893e-07)
(8.72038 0.0745682 4.66435e-07)
(8.72038 0.0745682 7.78517e-07)
(8.72038 0.0745683 1.05562e-06)
(8.72038 0.0745683 1.29212e-06)
(8.72038 0.0745684 1.47552e-06)
(8.72037 0.0745685 1.60346e-06)
(8.72037 0.0745686 1.67715e-06)
(8.72037 0.0745688 1.70024e-06)
(8.72036 0.0745689 1.67874e-06)
(8.72036 0.0745691 1.61951e-06)
(8.72036 0.0745693 1.52948e-06)
(8.72035 0.0745694 1.41637e-06)
(8.72035 0.0745695 1.28864e-06)
(8.72035 0.0745697 1.15298e-06)
(8.72035 0.0745697 1.01694e-06)
(8.72034 0.0745697 8.79238e-07)
(8.72034 0.0745697 7.25722e-07)
(8.72034 0.0745697 4.94841e-07)
(8.72033 0.0745694 1.64589e-07)
(8.7044 0.0342378 1.0647e-07)
(8.70442 0.0342379 3.19981e-07)
(8.70442 0.0342379 5.15828e-07)
(8.70442 0.0342378 6.84906e-07)
(8.70441 0.0342377 8.2043e-07)
(8.70441 0.0342377 9.16744e-07)
(8.70441 0.0342376 9.70367e-07)
(8.70441 0.0342375 9.83164e-07)
(8.70441 0.0342374 9.56383e-07)
(8.7044 0.0342373 8.95502e-07)
(8.7044 0.0342372 8.06399e-07)
(8.7044 0.0342372 6.96422e-07)
(8.7044 0.0342371 5.74897e-07)
(8.70439 0.034237 4.51243e-07)
(8.70439 0.0342368 3.35746e-07)
(8.70439 0.0342367 2.35918e-07)
(8.70439 0.0342365 1.53311e-07)
(8.70439 0.0342363 8.95949e-08)
(8.70439 0.0342361 2.08098e-08)
(8.70437 0.0342358 -1.03115e-08)
(8.6536 0.0275582 1.4807e-07)
(8.65362 0.0275583 4.36416e-07)
(8.65362 0.0275583 7.09821e-07)
(8.65361 0.0275584 9.54058e-07)
(8.65361 0.0275584 1.1691e-06)
(8.65361 0.0275585 1.34504e-06)
(8.65361 0.0275586 1.47689e-06)
(8.6536 0.0275587 1.56049e-06)
(8.6536 0.0275588 1.5939e-06)
(8.6536 0.0275589 1.57804e-06)
(8.65359 0.027559 1.51529e-06)
(8.65359 0.0275591 1.41157e-06)
(8.65359 0.0275591 1.27481e-06)
(8.65359 0.0275591 1.11475e-06)
(8.65358 0.0275591 9.41384e-07)
(8.65358 0.027559 7.60448e-07)
(8.65358 0.0275589 5.75692e-07)
(8.65358 0.0275587 3.8221e-07)
(8.65358 0.0275585 1.93988e-07)
(8.65356 0.0275583 4.94331e-08)
(8.64827 0.005198 1.28816e-07)
(8.64828 0.00519801 3.74458e-07)
(8.64828 0.00519801 5.89967e-07)
(8.64828 0.005198 7.76724e-07)
(8.64828 0.00519799 9.34012e-07)
(8.64828 0.00519797 1.05597e-06)
(8.64828 0.00519796 1.13557e-06)
(8.64827 0.00519794 1.16892e-06)
(8.64827 0.00519792 1.15136e-06)
(8.64827 0.00519789 1.08328e-06)
(8.64827 0.00519783 9.68303e-07)
(8.64826 0.00519774 8.13089e-07)
(8.64826 0.00519762 6.29876e-07)
(8.64826 0.00519745 4.32918e-07)
(8.64826 0.00519725 2.38492e-07)
(8.64826 0.00519701 5.60043e-08)
(8.64825 0.00519675 -9.60347e-08)
(8.64825 0.0051965 -2.093e-07)
(8.64825 0.00519625 -2.38803e-07)
(8.64824 0.00519611 -1.09917e-07)
(8.6474 -0.00721859 1.49606e-07)
(8.64742 -0.00721876 4.34175e-07)
(8.64742 -0.00721906 6.95139e-07)
(8.64742 -0.00721949 9.30076e-07)
(8.64741 -0.00722004 1.1381e-06)
(8.64741 -0.00722067 1.31085e-06)
(8.64741 -0.00722137 1.43889e-06)
(8.64741 -0.00722211 1.51489e-06)
(8.6474 -0.00722288 1.53069e-06)
(8.6474 -0.00722364 1.48511e-06)
(8.6474 -0.00722439 1.37917e-06)
(8.64739 -0.00722512 1.21864e-06)
(8.64739 -0.0072258 1.01801e-06)
(8.64739 -0.00722642 7.92804e-07)
(8.64738 -0.00722697 5.62486e-07)
(8.64738 -0.00722745 3.37953e-07)
(8.64738 -0.00722785 1.36879e-07)
(8.64738 -0.00722815 -4.46653e-08)
(8.64738 -0.00722838 -1.25921e-07)
(8.64736 -0.00722842 -6.08448e-08)
(8.66421 -0.0221494 1.09139e-09)
(8.66422 -0.0221498 -4.75219e-09)
(8.66422 -0.0221505 -1.78173e-08)
(8.66422 -0.0221515 -3.26484e-08)
(8.66422 -0.0221528 -4.19998e-08)
(8.66422 -0.0221543 -4.88437e-08)
(8.66422 -0.022156 -5.91573e-08)
(8.66422 -0.0221579 -7.97129e-08)
(8.66422 -0.0221598 -1.17629e-07)
(8.66422 -0.0221618 -1.76353e-07)
(8.66422 -0.0221637 -2.55607e-07)
(8.66421 -0.0221656 -3.51233e-07)
(8.66421 -0.0221674 -4.52081e-07)
(8.66421 -0.022169 -5.46857e-07)
(8.66421 -0.0221704 -6.21171e-07)
(8.66421 -0.0221717 -6.7342e-07)
(8.66421 -0.0221727 -6.82347e-07)
(8.66421 -0.0221735 -6.56194e-07)
(8.66421 -0.022174 -4.79566e-07)
(8.66419 -0.0221741 -1.60897e-07)
(8.69689 -0.03742 -1.4141e-07)
(8.69691 -0.0374203 -4.29472e-07)
(8.69691 -0.0374208 -7.08744e-07)
(8.69691 -0.0374215 -9.63053e-07)
(8.69691 -0.0374224 -1.18021e-06)
(8.69691 -0.0374235 -1.35915e-06)
(8.69691 -0.0374247 -1.50195e-06)
(8.69691 -0.0374259 -1.61282e-06)
(8.69691 -0.0374273 -1.69819e-06)
(8.69691 -0.0374286 -1.76138e-06)
(8.69691 -0.0374299 -1.8033e-06)
(8.69691 -0.0374311 -1.82145e-06)
(8.69692 -0.0374323 -1.80863e-06)
(8.69692 -0.0374333 -1.7578e-06)
(8.69692 -0.0374342 -1.66129e-06)
(8.69692 -0.0374349 -1.52656e-06)
(8.69692 -0.0374354 -1.34262e-06)
(8.69692 -0.0374357 -1.12515e-06)
(8.69692 -0.0374359 -7.32643e-07)
(8.6969 -0.0374359 -2.27761e-07)
(8.74526 -0.0570322 -2.17885e-07)
(8.74527 -0.0570327 -6.41195e-07)
(8.74527 -0.0570335 -1.02635e-06)
(8.74527 -0.0570347 -1.37743e-06)
(8.74528 -0.0570363 -1.67588e-06)
(8.74528 -0.0570382 -1.91677e-06)
(8.74528 -0.0570403 -2.10363e-06)
(8.74528 -0.0570426 -2.23822e-06)
(8.74528 -0.057045 -2.32622e-06)
(8.74528 -0.0570475 -2.37228e-06)
(8.74529 -0.05705 -2.37842e-06)
(8.74529 -0.0570524 -2.34322e-06)
(8.74529 -0.0570547 -2.26204e-06)
(8.74529 -0.0570567 -2.13024e-06)
(8.74529 -0.0570585 -1.93899e-06)
(8.74529 -0.05706 -1.70615e-06)
(8.74529 -0.0570611 -1.42155e-06)
(8.74529 -0.0570619 -1.1246e-06)
(8.74529 -0.0570625 -6.59845e-07)
(8.74528 -0.0570625 -1.71316e-07)
(8.8215 -0.0733004 -4.85497e-07)
(8.82152 -0.0733008 -1.45381e-06)
(8.82152 -0.0733013 -2.39072e-06)
(8.82152 -0.0733019 -3.25115e-06)
(8.82153 -0.0733027 -4.01582e-06)
(8.82153 -0.0733037 -4.66185e-06)
(8.82153 -0.0733048 -5.17952e-06)
(8.82154 -0.073306 -5.56268e-06)
(8.82154 -0.0733072 -5.80823e-06)
(8.82155 -0.0733085 -5.91507e-06)
(8.82155 -0.0733097 -5.87955e-06)
(8.82155 -0.0733107 -5.70167e-06)
(8.82156 -0.0733117 -5.38167e-06)
(8.82156 -0.0733125 -4.92921e-06)
(8.82157 -0.0733131 -4.36037e-06)
(8.82157 -0.0733135 -3.71788e-06)
(8.82157 -0.0733137 -3.01442e-06)
(8.82157 -0.0733139 -2.26627e-06)
(8.82157 -0.0733139 -1.34323e-06)
(8.82156 -0.0733138 -4.01417e-07)
(8.89311 -0.122735 -3.88753e-07)
(8.89313 -0.122735 -1.18837e-06)
(8.89313 -0.122735 -1.92843e-06)
(8.89313 -0.122735 -2.60588e-06)
(8.89314 -0.122735 -3.18974e-06)
(8.89314 -0.122735 -3.66286e-06)
(8.89314 -0.122735 -4.02206e-06)
(8.89314 -0.122735 -4.26202e-06)
(8.89315 -0.122736 -4.3851e-06)
(8.89315 -0.122736 -4.39163e-06)
(8.89315 -0.122736 -4.28393e-06)
(8.89315 -0.122736 -4.06532e-06)
(8.89316 -0.122737 -3.73763e-06)
(8.89316 -0.122737 -3.31284e-06)
(8.89316 -0.122738 -2.80844e-06)
(8.89316 -0.122738 -2.27782e-06)
(8.89316 -0.122738 -1.74264e-06)
(8.89316 -0.122739 -1.29199e-06)
(8.89316 -0.122739 -7.54792e-07)
(8.89315 -0.122739 -2.17679e-07)
(9.0715 -0.129107 -4.65004e-07)
(9.07152 -0.129108 -1.37205e-06)
(9.07152 -0.129108 -2.31818e-06)
(9.07152 -0.129108 -3.22269e-06)
(9.07153 -0.129108 -4.05428e-06)
(9.07153 -0.129108 -4.77873e-06)
(9.07153 -0.129108 -5.38838e-06)
(9.07154 -0.129109 -5.86919e-06)
(9.07154 -0.129109 -6.21554e-06)
(9.07154 -0.12911 -6.41787e-06)
(9.07155 -0.12911 -6.46829e-06)
(9.07155 -0.12911 -6.3597e-06)
(9.07156 -0.129111 -6.08648e-06)
(9.07156 -0.129111 -5.6534e-06)
(9.07156 -0.129111 -5.07534e-06)
(9.07157 -0.129112 -4.39326e-06)
(9.07157 -0.129112 -3.6534e-06)
(9.07157 -0.129112 -2.92963e-06)
(9.07157 -0.129112 -2.00114e-06)
(9.07156 -0.129112 -6.94674e-07)
(9.12898 -0.289876 -3.31344e-07)
(9.129 -0.289877 -1.16665e-06)
(9.129 -0.289877 -2.02718e-06)
(9.129 -0.289877 -2.84204e-06)
(9.129 -0.289877 -3.55183e-06)
(9.129 -0.289878 -4.13259e-06)
(9.12901 -0.289878 -4.58706e-06)
(9.12901 -0.289878 -4.90247e-06)
(9.12901 -0.289879 -5.08147e-06)
(9.12902 -0.289879 -5.11769e-06)
(9.12902 -0.289879 -5.01215e-06)
(9.12902 -0.28988 -4.76544e-06)
(9.12902 -0.28988 -4.38421e-06)
(9.12903 -0.28988 -3.88695e-06)
(9.12903 -0.289881 -3.29671e-06)
(9.12903 -0.289881 -2.682e-06)
(9.12903 -0.289881 -2.12633e-06)
(9.12903 -0.289881 -1.78881e-06)
(9.12903 -0.289881 -1.20724e-06)
(9.12902 -0.28988 -3.9784e-07)
(9.55251 -0.274927 -6.18373e-07)
(9.55253 -0.274927 -1.59716e-06)
(9.55253 -0.274928 -2.62141e-06)
(9.55253 -0.274928 -3.62573e-06)
(9.55254 -0.274929 -4.5493e-06)
(9.55254 -0.27493 -5.36027e-06)
(9.55254 -0.27493 -6.04061e-06)
(9.55255 -0.274931 -6.57118e-06)
(9.55255 -0.274932 -6.94203e-06)
(9.55256 -0.274933 -7.14109e-06)
(9.55256 -0.274934 -7.16402e-06)
(9.55257 -0.274935 -7.0072e-06)
(9.55257 -0.274936 -6.67414e-06)
(9.55257 -0.274937 -6.1762e-06)
(9.55258 -0.274938 -5.52956e-06)
(9.55258 -0.274939 -4.75762e-06)
(9.55258 -0.274939 -3.89469e-06)
(9.55258 -0.27494 -2.98011e-06)
(9.55259 -0.27494 -1.89594e-06)
(9.55257 -0.274939 -5.6846e-07)
(9.53254 -0.777889 -5.70226e-07)
(9.53256 -0.777891 -1.74505e-06)
(9.53256 -0.777892 -2.74336e-06)
(9.53256 -0.777893 -3.73545e-06)
(9.53256 -0.777894 -4.63235e-06)
(9.53257 -0.777896 -5.40181e-06)
(9.53257 -0.777899 -6.02137e-06)
(9.53258 -0.777901 -6.47045e-06)
(9.53258 -0.777903 -6.74199e-06)
(9.53259 -0.777905 -6.82799e-06)
(9.5326 -0.777908 -6.72888e-06)
(9.5326 -0.777909 -6.44831e-06)
(9.53261 -0.777911 -6.00044e-06)
(9.53261 -0.777913 -5.41105e-06)
(9.53261 -0.777914 -4.70086e-06)
(9.53262 -0.777915 -3.90812e-06)
(9.53262 -0.777915 -3.05901e-06)
(9.53262 -0.777916 -2.26289e-06)
(9.53262 -0.777916 -1.30725e-06)
(9.53261 -0.777914 -4.18067e-07)
(10.51 -0.755596 1.7933e-07)
(10.51 -0.755598 -2.9105e-06)
(10.51 -0.755599 -4.45555e-06)
(10.51 -0.7556 -6.17101e-06)
(10.51 -0.755602 -7.63095e-06)
(10.51 -0.755604 -8.88513e-06)
(10.51 -0.755606 -9.87894e-06)
(10.5101 -0.755609 -1.05875e-05)
(10.5101 -0.755611 -1.09921e-05)
(10.5101 -0.755614 -1.10848e-05)
(10.5101 -0.755617 -1.08697e-05)
(10.5101 -0.755619 -1.03602e-05)
(10.5101 -0.755622 -9.59042e-06)
(10.5101 -0.755624 -8.61612e-06)
(10.5101 -0.755626 -7.48663e-06)
(10.5101 -0.755627 -6.26572e-06)
(10.5101 -0.755629 -4.98225e-06)
(10.5101 -0.75563 -3.75369e-06)
(10.5101 -0.75563 -2.07377e-06)
(10.5101 -0.755629 -1.81692e-06)
(8.91945 0.560437 -4.09943e-07)
(8.91946 0.56044 -2.56277e-06)
(8.91946 0.560441 -4.04879e-06)
(8.91946 0.560444 -5.54605e-06)
(8.91946 0.560448 -6.81507e-06)
(8.91946 0.560452 -7.88742e-06)
(8.91946 0.560457 -8.7259e-06)
(8.91946 0.560463 -9.3201e-06)
(8.91946 0.560468 -9.66066e-06)
(8.91946 0.560474 -9.75273e-06)
(8.91946 0.56048 -9.60233e-06)
(8.91946 0.560485 -9.22406e-06)
(8.91946 0.56049 -8.64811e-06)
(8.91946 0.560495 -7.89694e-06)
(8.91946 0.5605 -7.02995e-06)
(8.91946 0.560504 -6.04825e-06)
(8.91946 0.560507 -5.06579e-06)
(8.91946 0.56051 -3.95204e-06)
(8.91946 0.560512 -2.5261e-06)
(8.91944 0.560512 -1.42167e-06)
(8.87341 0.5802 -1.77462e-08)
(8.87342 0.580202 -1.12112e-07)
(8.87342 0.580204 -8.93722e-08)
(8.87342 0.580207 -1.09295e-07)
(8.87342 0.58021 -1.13525e-07)
(8.87342 0.580214 -1.34889e-07)
(8.87342 0.580219 -1.58928e-07)
(8.87342 0.580224 -1.84373e-07)
(8.87342 0.58023 -2.0408e-07)
(8.87342 0.580235 -2.1363e-07)
(8.87341 0.580241 -2.09719e-07)
(8.87341 0.580246 -1.90448e-07)
(8.87341 0.58025 -1.58501e-07)
(8.87341 0.580255 -1.12299e-07)
(8.87341 0.580259 -6.47476e-08)
(8.87341 0.580262 3.68431e-09)
(8.87341 0.580265 3.75505e-08)
(8.87341 0.580267 6.70344e-08)
(8.87341 0.580269 4.35399e-08)
(8.87339 0.580269 -7.54403e-08)
(8.9003 0.314065 -4.00156e-08)
(8.90032 0.314066 -9.37556e-08)
(8.90032 0.314067 -7.82783e-08)
(8.90032 0.314068 -1.03625e-07)
(8.90032 0.314069 -1.46046e-07)
(8.90032 0.31407 -2.24712e-07)
(8.90032 0.314072 -3.30021e-07)
(8.90032 0.314073 -4.51643e-07)
(8.90032 0.314075 -5.77434e-07)
(8.90031 0.314077 -6.95543e-07)
(8.90031 0.314078 -7.9338e-07)
(8.90031 0.31408 -8.61178e-07)
(8.90031 0.314082 -8.93555e-07)
(8.90031 0.314083 -8.84635e-07)
(8.90031 0.314084 -8.37996e-07)
(8.90031 0.314085 -7.35702e-07)
(8.90031 0.314086 -6.37127e-07)
(8.90031 0.314087 -4.67872e-07)
(8.90031 0.314088 -3.3861e-07)
(8.90029 0.314088 -1.99246e-07)
(8.75199 0.319316 2.51072e-07)
(8.75201 0.319317 7.00241e-07)
(8.75201 0.319318 1.18426e-06)
(8.75201 0.319319 1.61542e-06)
(8.752 0.31932 1.99506e-06)
(8.752 0.319321 2.29579e-06)
(8.752 0.319322 2.51656e-06)
(8.752 0.319323 2.65887e-06)
(8.752 0.319325 2.72828e-06)
(8.752 0.319326 2.73338e-06)
(8.752 0.319328 2.68445e-06)
(8.752 0.31933 2.5875e-06)
(8.752 0.319331 2.45152e-06)
(8.75199 0.319332 2.2845e-06)
(8.75199 0.319334 2.09009e-06)
(8.75199 0.319335 1.87986e-06)
(8.75199 0.319336 1.63325e-06)
(8.75199 0.319336 1.33487e-06)
(8.75199 0.319337 8.7702e-07)
(8.75197 0.319337 2.5552e-07)
(8.75831 0.170549 1.86034e-07)
(8.75832 0.17055 6.03318e-07)
(8.75832 0.17055 1.01396e-06)
(8.75832 0.17055 1.37563e-06)
(8.75832 0.170551 1.67234e-06)
(8.75832 0.170551 1.8877e-06)
(8.75832 0.170552 2.01832e-06)
(8.75832 0.170552 2.07141e-06)
(8.75832 0.170553 2.05429e-06)
(8.75832 0.170553 1.97885e-06)
(8.75831 0.170554 1.85875e-06)
(8.75831 0.170555 1.70658e-06)
(8.75831 0.170555 1.53491e-06)
(8.75831 0.170556 1.35624e-06)
(8.75831 0.170556 1.17869e-06)
(8.75831 0.170557 1.02414e-06)
(8.75831 0.170557 8.59781e-07)
(8.75831 0.170557 7.04727e-07)
(8.75831 0.170557 4.54627e-07)
(8.75829 0.170557 1.36092e-07)
(8.65589 0.163507 3.32221e-07)
(8.65591 0.163507 9.79448e-07)
(8.65591 0.163507 1.62168e-06)
(8.6559 0.163507 2.20628e-06)
(8.6559 0.163507 2.72255e-06)
(8.6559 0.163507 3.14667e-06)
(8.6559 0.163507 3.47108e-06)
(8.6559 0.163507 3.69327e-06)
(8.6559 0.163507 3.81567e-06)
(8.6559 0.163507 3.8438e-06)
(8.6559 0.163508 3.78619e-06)
(8.65589 0.163508 3.65115e-06)
(8.65589 0.163508 3.44903e-06)
(8.65589 0.163508 3.19325e-06)
(8.65589 0.163508 2.89068e-06)
(8.65589 0.163508 2.55313e-06)
(8.65589 0.163508 2.17248e-06)
(8.65589 0.163508 1.71775e-06)
(8.65589 0.163508 1.11428e-06)
(8.65587 0.163507 3.67636e-07)
(8.65196 0.0759113 2.04804e-07)
(8.65197 0.0759115 6.26264e-07)
(8.65197 0.0759114 1.0277e-06)
(8.65197 0.0759113 1.38806e-06)
(8.65197 0.0759112 1.69504e-06)
(8.65197 0.0759111 1.93645e-06)
(8.65197 0.075911 2.10502e-06)
(8.65197 0.0759109 2.19986e-06)
(8.65197 0.0759108 2.2221e-06)
(8.65197 0.0759107 2.17803e-06)
(8.65196 0.0759107 2.075e-06)
(8.65196 0.0759106 1.92341e-06)
(8.65196 0.0759105 1.73525e-06)
(8.65196 0.0759104 1.52309e-06)
(8.65196 0.0759103 1.3e-06)
(8.65196 0.0759101 1.07951e-06)
(8.65196 0.0759099 8.5394e-07)
(8.65196 0.0759097 6.31695e-07)
(8.65196 0.0759095 3.75259e-07)
(8.65194 0.0759093 1.13445e-07)
(8.6102 0.0628739 3.07901e-07)
(8.61022 0.062874 9.17653e-07)
(8.61021 0.062874 1.5137e-06)
(8.61021 0.0628739 2.06165e-06)
(8.61021 0.0628739 2.55679e-06)
(8.61021 0.0628738 2.97773e-06)
(8.61021 0.0628737 3.31408e-06)
(8.61021 0.0628737 3.55552e-06)
(8.61021 0.0628736 3.6971e-06)
(8.61021 0.0628736 3.73858e-06)
(8.61021 0.0628735 3.68175e-06)
(8.6102 0.0628735 3.536e-06)
(8.6102 0.0628734 3.31198e-06)
(8.6102 0.0628733 3.02331e-06)
(8.6102 0.0628731 2.68351e-06)
(8.6102 0.062873 2.30037e-06)
(8.6102 0.0628728 1.87465e-06)
(8.6102 0.0628725 1.39449e-06)
(8.6102 0.0628723 8.71852e-07)
(8.61018 0.0628721 2.96433e-07)
(8.60871 0.00764014 1.93023e-07)
(8.60872 0.00764014 5.83822e-07)
(8.60872 0.00764009 9.48727e-07)
(8.60872 0.00764002 1.28077e-06)
(8.60872 0.00763994 1.57525e-06)
(8.60872 0.00763985 1.82019e-06)
(8.60872 0.00763975 2.00447e-06)
(8.60872 0.00763965 2.11899e-06)
(8.60872 0.00763954 2.15622e-06)
(8.60872 0.00763942 2.11594e-06)
(8.60872 0.00763927 2.00034e-06)
(8.60872 0.00763909 1.81949e-06)
(8.60872 0.00763887 1.58768e-06)
(8.60872 0.0076386 1.32254e-06)
(8.60872 0.00763831 1.04329e-06)
(8.60872 0.00763799 7.60852e-07)
(8.60871 0.00763766 4.97931e-07)
(8.60871 0.00763736 2.58087e-07)
(8.60871 0.0076371 1.04479e-07)
(8.6087 0.00763698 3.66466e-08)
(8.60874 -0.0200213 2.85473e-07)
(8.60875 -0.0200216 8.53335e-07)
(8.60875 -0.0200221 1.40497e-06)
(8.60875 -0.0200228 1.91967e-06)
(8.60875 -0.0200236 2.38889e-06)
(8.60875 -0.0200246 2.79361e-06)
(8.60875 -0.0200258 3.11833e-06)
(8.60875 -0.020027 3.3465e-06)
(8.60875 -0.0200282 3.4655e-06)
(8.60875 -0.0200294 3.47127e-06)
(8.60874 -0.0200307 3.36518e-06)
(8.60874 -0.0200318 3.15698e-06)
(8.60874 -0.0200329 2.86444e-06)
(8.60874 -0.0200339 2.51286e-06)
(8.60874 -0.0200348 2.1284e-06)
(8.60874 -0.0200355 1.72621e-06)
(8.60874 -0.0200362 1.32432e-06)
(8.60874 -0.0200366 9.01788e-07)
(8.60874 -0.0200369 5.43814e-07)
(8.60872 -0.0200369 2.02271e-07)
(8.62534 -0.0581449 -6.79031e-09)
(8.62536 -0.0581457 -1.72682e-08)
(8.62536 -0.0581471 -2.50324e-08)
(8.62536 -0.0581492 -2.27755e-08)
(8.62536 -0.0581518 -3.28319e-09)
(8.62536 -0.0581549 2.48659e-08)
(8.62536 -0.0581584 5.51874e-08)
(8.62536 -0.0581622 7.42959e-08)
(8.62536 -0.0581661 7.15287e-08)
(8.62536 -0.0581702 4.23018e-08)
(8.62535 -0.0581742 -1.35599e-08)
(8.62535 -0.0581781 -9.22763e-08)
(8.62535 -0.0581817 -1.82371e-07)
(8.62535 -0.058185 -2.67146e-07)
(8.62535 -0.058188 -3.33598e-07)
(8.62535 -0.0581905 -3.8264e-07)
(8.62535 -0.0581926 -3.91168e-07)
(8.62535 -0.0581942 -3.86761e-07)
(8.62535 -0.0581953 -2.32418e-07)
(8.62533 -0.0581956 -3.66447e-08)
(8.65522 -0.0944898 -3.08609e-07)
(8.65523 -0.0944905 -9.0922e-07)
(8.65523 -0.0944915 -1.47061e-06)
(8.65524 -0.0944929 -1.97416e-06)
(8.65524 -0.0944947 -2.39743e-06)
(8.65524 -0.0944969 -2.73543e-06)
(8.65524 -0.0944992 -2.98733e-06)
(8.65524 -0.0945018 -3.15834e-06)
(8.65524 -0.0945045 -3.25765e-06)
(8.65524 -0.0945072 -3.2895e-06)
(8.65524 -0.0945098 -3.2582e-06)
(8.65524 -0.0945123 -3.1638e-06)
(8.65524 -0.0945146 -3.00461e-06)
(8.65524 -0.0945167 -2.7786e-06)
(8.65524 -0.0945184 -2.48757e-06)
(8.65524 -0.0945198 -2.14994e-06)
(8.65524 -0.0945209 -1.7567e-06)
(8.65524 -0.0945216 -1.35438e-06)
(8.65524 -0.0945221 -7.71807e-07)
(8.65523 -0.094522 -1.89517e-07)
(8.69552 -0.142984 -4.28758e-07)
(8.69554 -0.142985 -1.27139e-06)
(8.69554 -0.142986 -2.04834e-06)
(8.69554 -0.142987 -2.73885e-06)
(8.69554 -0.142988 -3.31953e-06)
(8.69554 -0.142989 -3.78241e-06)
(8.69554 -0.142991 -4.12055e-06)
(8.69554 -0.142993 -4.34074e-06)
(8.69554 -0.142995 -4.44717e-06)
(8.69554 -0.142997 -4.44696e-06)
(8.69555 -0.142999 -4.34575e-06)
(8.69555 -0.143001 -4.14744e-06)
(8.69555 -0.143003 -3.85438e-06)
(8.69555 -0.143005 -3.47028e-06)
(8.69555 -0.143006 -3.0054e-06)
(8.69555 -0.143008 -2.48624e-06)
(8.69555 -0.143009 -1.92468e-06)
(8.69555 -0.14301 -1.38593e-06)
(8.69555 -0.14301 -7.06622e-07)
(8.69553 -0.14301 -1.44209e-07)
(8.7644 -0.174029 -5.84789e-07)
(8.76442 -0.17403 -1.71882e-06)
(8.76442 -0.17403 -2.80248e-06)
(8.76442 -0.17403 -3.79731e-06)
(8.76442 -0.17403 -4.67353e-06)
(8.76442 -0.174031 -5.41107e-06)
(8.76442 -0.174031 -5.99884e-06)
(8.76442 -0.174031 -6.42983e-06)
(8.76442 -0.174032 -6.70293e-06)
(8.76442 -0.174032 -6.81641e-06)
(8.76442 -0.174033 -6.76993e-06)
(8.76442 -0.174033 -6.56272e-06)
(8.76442 -0.174033 -6.19559e-06)
(8.76442 -0.174033 -5.67346e-06)
(8.76442 -0.174033 -5.01019e-06)
(8.76442 -0.174033 -4.24146e-06)
(8.76441 -0.174033 -3.37453e-06)
(8.76441 -0.174033 -2.48783e-06)
(8.76441 -0.174033 -1.44541e-06)
(8.7644 -0.174032 -4.10026e-07)
(8.81133 -0.276503 -4.86303e-07)
(8.81135 -0.276504 -1.48175e-06)
(8.81135 -0.276504 -2.36986e-06)
(8.81135 -0.276504 -3.1701e-06)
(8.81135 -0.276504 -3.84884e-06)
(8.81135 -0.276505 -4.39179e-06)
(8.81135 -0.276505 -4.79072e-06)
(8.81135 -0.276506 -5.04265e-06)
(8.81135 -0.276507 -5.14973e-06)
(8.81135 -0.276507 -5.11518e-06)
(8.81135 -0.276508 -4.94559e-06)
(8.81135 -0.276509 -4.64698e-06)
(8.81135 -0.27651 -4.22623e-06)
(8.81135 -0.276511 -3.69578e-06)
(8.81135 -0.276512 -3.08081e-06)
(8.81135 -0.276512 -2.41993e-06)
(8.81135 -0.276513 -1.753e-06)
(8.81135 -0.276513 -1.17909e-06)
(8.81135 -0.276514 -5.76463e-07)
(8.81133 -0.276514 -1.35231e-07)
(8.94829 -0.283108 -6.55325e-07)
(8.94831 -0.283108 -1.92001e-06)
(8.94831 -0.283108 -3.15608e-06)
(8.94831 -0.283108 -4.31417e-06)
(8.94831 -0.283108 -5.36883e-06)
(8.94831 -0.283108 -6.28642e-06)
(8.94831 -0.283108 -7.04721e-06)
(8.94831 -0.283108 -7.63557e-06)
(8.94831 -0.283108 -8.04175e-06)
(8.94831 -0.283108 -8.25693e-06)
(8.94831 -0.283108 -8.27645e-06)
(8.94831 -0.283108 -8.09566e-06)
(8.94831 -0.283108 -7.71358e-06)
(8.94831 -0.283108 -7.134e-06)
(8.94831 -0.283107 -6.3713e-06)
(8.94831 -0.283107 -5.45454e-06)
(8.94831 -0.283107 -4.41226e-06)
(8.94831 -0.283107 -3.30775e-06)
(8.94831 -0.283107 -2.0229e-06)
(8.94829 -0.283106 -6.31984e-07)
(8.97233 -0.495127 -4.61366e-07)
(8.97235 -0.495128 -1.49246e-06)
(8.97235 -0.495129 -2.36667e-06)
(8.97235 -0.495129 -3.15956e-06)
(8.97235 -0.49513 -3.83842e-06)
(8.97235 -0.495132 -4.38681e-06)
(8.97235 -0.495133 -4.78826e-06)
(8.97235 -0.495134 -5.03579e-06)
(8.97235 -0.495136 -5.12815e-06)
(8.97235 -0.495138 -5.06683e-06)
(8.97235 -0.495139 -4.86537e-06)
(8.97235 -0.495141 -4.5287e-06)
(8.97235 -0.495143 -4.07379e-06)
(8.97235 -0.495144 -3.51956e-06)
(8.97235 -0.495146 -2.89525e-06)
(8.97235 -0.495147 -2.23982e-06)
(8.97235 -0.495148 -1.58338e-06)
(8.97235 -0.495149 -9.82341e-07)
(8.97235 -0.495149 -4.28284e-07)
(8.97234 -0.495149 -1.31786e-07)
(9.1673 -0.469881 -8.31717e-07)
(9.16732 -0.469882 -2.53565e-06)
(9.16732 -0.469882 -4.1584e-06)
(9.16732 -0.469883 -5.72628e-06)
(9.16732 -0.469883 -7.1617e-06)
(9.16732 -0.469884 -8.41706e-06)
(9.16732 -0.469885 -9.46338e-06)
(9.16732 -0.469886 -1.0275e-05)
(9.16733 -0.469888 -1.08334e-05)
(9.16733 -0.469889 -1.11247e-05)
(9.16733 -0.46989 -1.11459e-05)
(9.16733 -0.469891 -1.08975e-05)
(9.16733 -0.469892 -1.03843e-05)
(9.16733 -0.469893 -9.61965e-06)
(9.16733 -0.469893 -8.62389e-06)
(9.16733 -0.469894 -7.42034e-06)
(9.16733 -0.469894 -6.0742e-06)
(9.16733 -0.469895 -4.59476e-06)
(9.16733 -0.469895 -2.86458e-06)
(9.16732 -0.469894 -9.8899e-07)
(9.14065 -0.859519 -6.07021e-07)
(9.14067 -0.859522 -1.98954e-06)
(9.14067 -0.859523 -3.1567e-06)
(9.14067 -0.859526 -4.25531e-06)
(9.14067 -0.859529 -5.20182e-06)
(9.14068 -0.859532 -5.97187e-06)
(9.14068 -0.859536 -6.54153e-06)
(9.14068 -0.85954 -6.8968e-06)
(9.14068 -0.859545 -7.03606e-06)
(9.14068 -0.859549 -6.95636e-06)
(9.14068 -0.859554 -6.67718e-06)
(9.14069 -0.859558 -6.21721e-06)
(9.14069 -0.859562 -5.59726e-06)
(9.14069 -0.859565 -4.85188e-06)
(9.14069 -0.859568 -4.02116e-06)
(9.14069 -0.859571 -3.14237e-06)
(9.14069 -0.859573 -2.28599e-06)
(9.14069 -0.859575 -1.52927e-06)
(9.14069 -0.859576 -6.67114e-07)
(9.14068 -0.859575 -1.71027e-07)
(9.16589 -0.798754 -8.79067e-07)
(9.16591 -0.798757 -4.62068e-06)
(9.16591 -0.798759 -7.40136e-06)
(9.16591 -0.798762 -1.01656e-05)
(9.16591 -0.798766 -1.2628e-05)
(9.16591 -0.798771 -1.47347e-05)
(9.16591 -0.798776 -1.64347e-05)
(9.16591 -0.798783 -1.76819e-05)
(9.16592 -0.798789 -1.8438e-05)
(9.16592 -0.798797 -1.86847e-05)
(9.16592 -0.798804 -1.84423e-05)
(9.16592 -0.798811 -1.77496e-05)
(9.16592 -0.798818 -1.66371e-05)
(9.16592 -0.798824 -1.51789e-05)
(9.16593 -0.79883 -1.34603e-05)
(9.16593 -0.798836 -1.15351e-05)
(9.16593 -0.798841 -9.4948e-06)
(9.16593 -0.798845 -7.21232e-06)
(9.16593 -0.798847 -4.45013e-06)
(9.16591 -0.798848 -2.24111e-06)
(8.89052 0.674328 -5.86089e-07)
(8.89053 0.67433 -1.90255e-06)
(8.89053 0.674331 -2.91108e-06)
(8.89053 0.674333 -3.96614e-06)
(8.89053 0.674335 -4.86468e-06)
(8.89053 0.674337 -5.64621e-06)
(8.89053 0.67434 -6.27103e-06)
(8.89052 0.674343 -6.72875e-06)
(8.89052 0.674346 -7.01047e-06)
(8.89052 0.67435 -7.11391e-06)
(8.89052 0.674353 -7.04035e-06)
(8.89051 0.674356 -6.80174e-06)
(8.89051 0.674359 -6.4153e-06)
(8.89051 0.674362 -5.90183e-06)
(8.89051 0.674365 -5.30929e-06)
(8.8905 0.674367 -4.62647e-06)
(8.8905 0.674369 -4.00678e-06)
(8.8905 0.674371 -3.22366e-06)
(8.8905 0.674372 -2.17508e-06)
(8.89049 0.674371 -9.89774e-07)
(8.74979 0.697521 -1.63018e-07)
(8.74981 0.697523 -3.8424e-07)
(8.74981 0.697524 -5.41744e-07)
(8.74981 0.697527 -7.2127e-07)
(8.74981 0.697529 -8.78046e-07)
(8.74981 0.697533 -1.03639e-06)
(8.74981 0.697536 -1.17811e-06)
(8.74981 0.69754 -1.29846e-06)
(8.74981 0.697544 -1.3887e-06)
(8.74981 0.697548 -1.44237e-06)
(8.74981 0.697552 -1.45499e-06)
(8.74981 0.697556 -1.42579e-06)
(8.74981 0.69756 -1.35707e-06)
(8.7498 0.697563 -1.25244e-06)
(8.7498 0.697566 -1.12909e-06)
(8.7498 0.697569 -9.77286e-07)
(8.7498 0.697571 -8.5524e-07)
(8.7498 0.697573 -6.99637e-07)
(8.7498 0.697575 -5.78961e-07)
(8.74979 0.697575 -2.96096e-07)
(8.78258 0.399835 -7.31666e-08)
(8.7826 0.399836 -1.03295e-08)
(8.7826 0.399837 9.57855e-08)
(8.7826 0.399839 1.58859e-07)
(8.7826 0.39984 1.9516e-07)
(8.7826 0.399842 1.79134e-07)
(8.7826 0.399845 1.24208e-07)
(8.7826 0.399847 4.07715e-08)
(8.7826 0.39985 -5.65491e-08)
(8.78259 0.399853 -1.55393e-07)
(8.78259 0.399855 -2.41549e-07)
(8.78259 0.399858 -3.06058e-07)
(8.78259 0.399861 -3.44712e-07)
(8.78259 0.399863 -3.52854e-07)
(8.78259 0.399865 -3.37741e-07)
(8.78259 0.399867 -2.70786e-07)
(8.78259 0.399869 -2.31578e-07)
(8.78259 0.399871 -1.42463e-07)
(8.78259 0.399872 -1.63185e-07)
(8.78257 0.399872 -1.17972e-07)
(8.65874 0.405909 2.73546e-07)
(8.65876 0.40591 8.27174e-07)
(8.65876 0.405911 1.40052e-06)
(8.65876 0.405912 1.92067e-06)
(8.65876 0.405913 2.37557e-06)
(8.65876 0.405914 2.73943e-06)
(8.65876 0.405915 3.00857e-06)
(8.65875 0.405917 3.18626e-06)
(8.65875 0.405919 3.27862e-06)
(8.65875 0.40592 3.29488e-06)
(8.65875 0.405922 3.24627e-06)
(8.65875 0.405924 3.13899e-06)
(8.65875 0.405926 2.98117e-06)
(8.65875 0.405927 2.78141e-06)
(8.65875 0.405928 2.547e-06)
(8.65875 0.40593 2.29174e-06)
(8.65875 0.405931 1.99908e-06)
(8.65875 0.405932 1.64891e-06)
(8.65875 0.405932 1.07758e-06)
(8.65873 0.405932 3.34448e-07)
(8.67013 0.224689 2.42477e-07)
(8.67015 0.22469 7.96988e-07)
(8.67015 0.22469 1.34082e-06)
(8.67015 0.22469 1.83094e-06)
(8.67015 0.224691 2.24379e-06)
(8.67015 0.224691 2.55822e-06)
(8.67015 0.224692 2.76975e-06)
(8.67015 0.224693 2.88405e-06)
(8.67015 0.224693 2.90969e-06)
(8.67014 0.224694 2.85956e-06)
(8.67014 0.224695 2.7475e-06)
(8.67014 0.224696 2.58608e-06)
(8.67014 0.224696 2.38767e-06)
(8.67014 0.224697 2.16714e-06)
(8.67014 0.224698 1.93072e-06)
(8.67014 0.224698 1.70976e-06)
(8.67014 0.224699 1.45768e-06)
(8.67014 0.224699 1.19036e-06)
(8.67014 0.224699 7.64816e-07)
(8.67012 0.224699 2.37997e-07)
(8.5904 0.218498 3.8756e-07)
(8.59042 0.218499 1.1644e-06)
(8.59042 0.218499 1.9286e-06)
(8.59042 0.218499 2.63228e-06)