/*--------------------------------*- C++ -*----------------------------------*\
| =========                 |                                                 |
| \\      /  F ield         | OpenFOAM: The Open Source CFD Toolbox           |
|  \\    /   O peration     | Version:  2212                                  |
|   \\  /    A nd           | Website:  www.openfoam.com                      |
|    \\/     M anipulation  |                                                 |
\*---------------------------------------------------------------------------*/
FoamFile
{
    version     2.0;
    format      ascii;
    arch        "LSB;label=32;scalar=64";
    class       volScalarField;
    location    "0.00348";
    object      k;
}
// * * * * * * * * * * * * * * * * * * * * * * * * * * * * * * * * * * * * * //

dimensions      [0 2 -2 0 0 0 0];

internalField   nonuniform List<scalar> 
7220
(
439.026
558.794
549.249
539.383
553.608
545.517
555.216
556.894
543.26
549.145
427.846
8250.55
595.013
825.147
902.943
11494.9
476.473
534.862
524.017
516.193
477.991
588.436
528.194
574.674
815.404
6136.57
13909.9
602.876
482.886
557.925
839.358
583.779
602.828
543.899
3216.77
434.618
548.409
424.68
422.015
381.929
383.148
383.217
381.999
432.926
438.254
441.007
437.99
433.871
384.411
385.734
385.804
384.481
387.127
388.605
388.674
387.196
390.178
391.845
391.912
390.245
393.583
395.338
395.404
393.65
397.315
399.441
399.515
397.386
401.743
404.269
404.358
401.822
406.749
409.193
409.306
406.851
411.714
414.424
414.586
411.845
417.336
420.518
420.804
417.543
428.99
424.57
424.171
428.418
433.022
427.484
380.721
380.791
381.645
380.457
440.949
442.344
437.32
440.286
421.381
414.669
417.779
409.227
411.85
404.409
406.78
399.542
402.003
395.222
397.293
391.6
393.302
388.3
389.917
385.336
386.774
382.69
383.979
380.269
381.459
384.163
382.876
386.949
385.516
390.086
388.472
393.469
391.768
397.483
395.402
402.234
399.746
407.079
404.676
412.269
409.568
418.637
415.242
422.692
425.583
379.093
379.277
429.491
423.443
441.232
441.458
430.157
434.534
425.384
434.48
437.796
430.013
416.45
420.658
409.898
412.912
404.702
407.204
400.122
402.37
395.499
397.842
391.373
393.345
387.956
389.562
384.849
386.37
382.052
383.409
379.546
380.768
377.25
378.379
377.916
375.032
376.138
379.573
379.506
376.406
375.284
378.086
378.649
377.524
381.031
379.814
383.66
382.309
386.611
385.094
389.798
388.193
393.622
391.634
398.181
395.796
402.811
400.515
407.802
405.2
414.079
410.697
418.255
437.976
437.189
422.961
416.861
376.704
373.892
372.538
371.519
442.557
437.741
440.781
439.281
418.902
433.354
433.302
433.523
428.419
423.804
409.838
414.043
403.512
406.399
398.619
400.964
394.337
396.432
390.042
392.224
386.173
388.017
383.025
384.507
380.175
381.568
377.62
378.86
375.329
376.446
373.227
374.261
371.208
372.213
378.319
378.256
374.129
376.863
374.587
373.558
376.759
375.65
379.156
377.924
381.851
380.464
384.785
383.303
388.344
386.483
392.624
390.39
396.948
394.8
401.65
399.196
407.617
404.393
411.673
431.926
370.171
370.468
441.628
437.311
433.019
442.105
427.612
414.716
408.756
420.563
435.204
366.84
365.935
372.965
369.393
439.269
440.331
433.035
437.345
430.42
428.824
433.765
441.426
420.606
411.099
416.267
402.048
406.173
396.046
398.751
391.52
393.686
387.591
389.51
383.668
385.664
380.08
381.79
377.237
378.577
374.691
375.929
372.437
373.529
370.431
371.408
368.597
369.499
367.716
369.094
375.477
372.723
377.064
377.001
375.639
366.274
368.075
367.192
369.858
368.962
371.748
370.782
373.846
372.765
376.232
374.999
378.875
377.534
382.132
380.413
386.072
384.025
390.031
388.059
394.376
392.105
399.932
396.921
403.769
427.218
424.934
427.961
427.916
428.058
429.51
364.985
365.322
405.513
399.772
411.657
422.846
435.423
441.692
440.43
435.223
438.798
425.445
412.767
438.073
423.191
416.171
432.094
402.398
407.82
393.558
397.499
388.017
390.495
383.91
385.872
380.361
382.099
376.83
378.628
373.542
375.109
371.015
372.205
368.799
369.869
366.888
367.808
365.226
366.031
363.725
364.462
362.285
363.004
360.751
361.542
360.009
368.184
364.146
374.485
371.763
376.064
375.997
372.025
374.66
364.51
368.506
360.393
361.911
361.112
363.391
362.669
364.839
364.111
366.386
365.593
368.135
367.229
370.177
369.115
372.506
371.319
375.445
373.874
379.016
377.173
382.588
380.802
386.537
384.469
391.612
388.863
395.133
420.304
416.94
422.183
421.786
422.238
424.169
430.005
441.318
417.778
395.813
390.42
402.069
356.644
356.026
363.846
359.781
441.924
441.22
439.546
427.086
420.545
423.325
429.939
424.205
434.812
437.228
438.827
418.154
433.804
410.993
404.287
408.556
393.223
398.784
384.841
388.495
379.885
382.079
376.262
377.999
373.061
374.622
369.925
371.521
366.945
368.367
364.726
365.77
362.841
363.74
361.29
362.027
360.005
360.62
358.882
359.43
357.812
358.348
357.252
359.392
367.49
363.485
373.755
371.046
375.322
375.258
371.3
373.922
367.805
356.418
357.643
357.023
358.756
358.218
359.823
359.287
360.99
360.385
362.366
361.646
364.053
363.165
366.066
365.03
368.68
367.264
371.865
370.235
375.048
373.446
378.591
376.748
383.089
380.644
386.236
412.504
408.093
415.442
414.725
417.074
415.937
418.644
429.903
411.909
355.47
355.869
381.101
386.004
418.088
423.922
441.812
442.874
442.777
441.725
426.711
433.251
440.192
436.425
633.779
439.602
412.167
406.355
403.841
405.562
395.35
400.437
383.972
389.456
376.312
379.575
371.998
373.897
368.843
370.358
366.017
367.398
363.254
364.66
360.57
361.853
358.634
359.54
357.059
357.798
355.864
356.416
354.956
355.38
354.24
354.583
353.572
353.91
352.796
353.21
351.858
352.324
351.477
358.888
355.031
366.867
362.918
373.045
370.374
374.579
374.524
370.588
373.187
363.236
367.138
355.4
359.239
351.849
352.713
352.244
353.617
353.185
354.337
353.995
355
354.665
355.768
355.361
356.781
356.239
358.124
357.403
359.835
358.944
362.142
360.872
364.954
363.529
367.75
366.335
370.858
369.247
374.746
372.638
377.448
404.097
392.113
398.601
409.265
407.578
411.284
410.225
414.625
412.735
420.459
417.204
432.718
428.235
430.438
424.191
429.307
594.305
412.575
407.09
442.999
542.102
348.599
348.28
354.781
351.341
444.569
434.428
445.088
436.863
439.652
444.415
442.442
566.758
654.614
677.983
695.236
609.013
731.333
418.279
424.015
644.377
419.211
426.597
422.269
438.795
434.345
413.593
615.109
408.247
617.828
415.314
409.975
578.596
413.756
412.361
407.603
410.622
403.299
405.181
400.664
401.862
396.409
399.139
386.195
391.97
374.983
380.175
368.203
371.037
364.536
366.145
361.849
363.146
359.388
360.596
356.969
358.201
354.578
355.723
352.89
353.675
351.6
352.19
350.723
351.114
350.188
350.418
349.879
350.013
349.627
349.758
349.246
349.464
348.941
351.028
358.23
354.481
366.026
362.159
372.113
369.478
373.621
373.571
369.671
372.241
362.424
366.265
358.513
348.627
349.314
348.952
349.88
349.638
350.2
350.059
350.459
350.326
350.839
350.623
351.496
351.123
352.541
351.968
353.979
353.218
355.999
354.875
358.461
357.225
360.891
359.66
363.556
362.184
366.827
365.058
372.179
369.086
382.159
376.477
395.108
388.768
402.763
399.889
405.773
404.429
409.082
407.28
414.64
411.552
418.254
633.294
653.535
704.146
429.386
441.447
612.09
550.79
1282.38
444.734
347.925
348.228
671.494
424.935
435.635
439.972
444.712
438.815
733.81
420.98
416.836
420.921
430.197
446.97
440.672
443.148
417.725
2300.99
447.939
753.281
415.294
704.973
447.442
445.639
586.467
593.437
450.015
616.916
599.043
553.283
403.382
405.71
399.005
401.162
395.163
397.07
388.74
392.643
377.101
383.313
366.516
371.243
360.675
363.074
357.621
358.957
355.366
356.461
353.243
354.291
351.138
352.21
349.033
350.044
347.573
348.244
346.525
346.996
345.937
346.177
345.752
345.8
345.832
345.77
345.989
345.915
345.997
346.025
345.661
345.869
345.151
345.423
344.708
350.338
347.359
357.33
353.663
365.029
361.204
371.066
368.449
372.569
372.518
368.632
371.191
361.443
365.248
353.912
357.576
347.59
350.582
344.915
345.732
345.433
346.209
345.975
346.428
346.371
346.364
346.418
346.234
346.294
346.248
346.211
346.583
346.367
347.354
346.909
348.565
347.917
350.319
349.334
352.454
351.388
354.543
353.487
356.787
355.644
359.463
358.025
363.861
361.307
372.612
367.525
385.913
379.019
396.096
391.907
400.404
398.624
403.991
402.061
409.424
406.443
412.937
634.315
649.91
411.136
657.837
680.707
430.502
443.147
604.61
449.056
443.766
651.223
581.496
575.538
426.788
412.16
416.302
425.392
447.084
437.78
442.22
614.223
444.711
564.38
342.667
342.336
346.76
344.17
446.749
1119.63
423.439
435.315
569.676
545.15
541.778
539.469
568.812
449.88
595.309
587.162
622.839
4699.39
607.484
615.855
420.656
445.438
732.915
686.842
655.906
694.317
766.558
451.064
448.964
418.467
572.381
450.63
582.177
583.231
593.74
416.788
578.048
587.061
583.646
588.261
454.507
557.504
456.201
612.922
399.705
402.014
394.773
397.24
389.654
392.351
380.932
386.012
368.384
374.723
358.78
362.913
353.87
355.865
351.347
352.452
349.454
350.38
347.627
348.535
345.807
346.732
343.985
344.86
342.72
343.3
341.884
342.236
341.566
341.661
341.695
341.584
342.133
341.889
342.66
342.401
343.023
342.878
342.995
343.064
342.855
344.039
349.498
346.597
356.409
352.775
364.079
360.262
370.136
367.506
371.645
371.596
367.683
370.258
360.481
364.287
352.985
356.627
349.688
342.504
343.112
342.906
343.364
343.262
343.257
343.368
342.84
343.073
342.354
342.59
342.039
342.162
342.077
342.006
342.593
342.271
343.599
343.041
345.129
344.273
346.956
346.046
348.745
347.842
350.608
349.666
352.767
351.61
356.326
354.25
363.747
359.367
376.644
369.67
388.967
383.486
395.193
392.66
399.403
397.245
404.834
401.877
408.298
667.977
629.848
586.73
604.717
558.78
711.113
618.981
432.505
417.015
420.941
445.487
613.298
602.79
598.143
629.851
609.484
618.771
596.886
685.243
662.747
449.084
415.099
633.563
341.767
341.853
450.452
705.371
621.437
662.857
646.374
767.739
429.332
569.938
430.253
544.793
775.869
850.452
810.47
558.626
449.907
440.496
444.983
587.885
612.913
592.802
597.74
619.28
633.674
647.906
630.628
660.302
606.034
620.636
773.145
722.717
536.921
728.799
621.94
426.378
440.694
787.694
731.861
865.453
453.022
581.58
610.232
599.53
606.307
452.303
423.831
649.222
451.753
826.388
662.598
564.196
553.897
548.266
562.144
561.619
454.248
580.136
578.304
587.51
590.641
555.208
5878.77
453.827
421.75
565.544
581.499
578.078
581.705
592.954
420.176
569.934
622.179
594.636
587.379
573.524
585.847
460.507
453.763
709.197
582.499
543.865
463.33
534.337
396.81
399.489
390.839
393.881
384.014
387.734
373.043
379.147
360.339
366.436
351.927
355.456
347.869
349.514
345.778
346.697
344.178
344.965
342.609
343.391
341.034
341.835
339.445
340.217
338.356
338.84
337.741
337.984
337.66
337.635
338.063
337.809
338.801
338.4
339.646
339.226
340.31
340.017
340.561
340.499
340.42
340.523
339.712
340.188
339.023
343.233
341.018
348.619
345.747
355.513
351.885
363.206
359.37
369.318
366.661
370.839
370.793
366.827
369.434
359.574
363.401
352.076
355.714
345.881
348.789
341.054
343.321
339.008
340.296
339.742
340.715
340.594
340.75
340.77
340.361
340.611
339.639
340.028
338.844
339.233
338.241
338.504
338.026
338.075
338.313
338.103
339.101
338.65
340.42
339.678
342.002
341.218
343.533
342.765
345.067
344.299
346.81
345.878
349.681
348.004
355.823
352.152
367.629
361.01
381.479
374.873
390.003
386.489
395.21
392.685
400.89
397.853
408.207
404.346
412.396
454.357
6146.39
586.69
815.795
664.913
682.885
632.415
601.803
657.631
626.741
722.483
689.847
764.625
747.741
771.584
435.14
425.8
674.219
550.118
448.252
589.573
604.554
644.37
590.876
1261.91
892.093
409.518
562.827
577.106
646.506
674.609
898.679
952.609
796.972
835.036
737.156
707.361
646.35
662.505
704.133
630.468
668.534
654.129
826.537
432.304
435.929
788.624
761.79
579.709
551.787
453.015
443.547
448.056
581.511
597.751
584.123
587.375
614.786
455.672
552.314
337.751
337.127
340.223
338.208
743.776
625.651
429.575
1718.19
447.085
736.94
692.213
572.871
570.011
552.905
456.184
576.938
595.304
3359.68
456.942
1559.47
427.155
458.974
677.186
556.462
457.335
575.341
583.203
599.925
425.282
559.515
633.336
603.333
577.017
592.695
423.833
562.562
591.389
467.4
458.906
565.474
585.573
458.563
622.166
584.691
566.25
1030.7
471.7
539.109
540.039
560.092
535.936
415.146
412.258
402.85
405.986
394.434
397.655
387.07
390.942
378.011
382.963
365.239
372.001
353.105
358.661
345.987
348.918
342.65
344.007
340.894
341.667
339.558
340.212
338.209
338.894
336.815
337.521
335.425
336.102
334.499
334.899
334.062
334.213
334.183
334.054
334.813
334.442
335.798
335.274
336.894
336.352
337.792
337.386
338.264
338.095
338.282
338.308
338.134
338.211
342.369
340.176
347.742
344.872
354.644
351.01
362.382
358.517
368.57
365.876
370.108
370.067
366.026
368.677
358.7
362.558
351.182
354.824
345.005
347.902
342.464
337.059
338.189
337.724
338.432
338.388
338.289
338.407
337.679
338.038
336.729
337.234
335.693
336.201
334.855
335.234
334.418
334.576
334.5
334.391
335.093
334.741
336.206
335.574
337.559
336.883
338.9
338.232
340.195
339.555
341.611
340.853
343.931
342.582
348.889
345.916
359.178
353.239
373.559
366.301
384.544
379.819
391.258
388.18
397.498
394.267
404.894
401.029
413.806
409.13
418.921
552.73
542.956
547.643
535.491
538.86
533.53
530.884
532.865
537.083
533.053
536.75
534.705
539.136
620.596
595.656
631.233
703.873
655.833
813.589
759.838
858.296
1055.8
930.019
404.822
682.475
685.295
641.267
579.109
558.223
566.991
619.114
595.903
689.184
650.464
764.474
729.841
808.511
791.556
817.458
438.158
431.5
776.039
419.086
601.692
545.345
451.327
582.161
591.857
636.307
625.071
616.466
459.195
714.57
1331.32
429.416
1315.55
336.351
336.281
808.961
770.869
569.973
557.28
587.464
555.202
848.782
745.372
712.327
653.543
669.12
701.99
632.603
662.642
650.794
938.983
435.503
433.957
442.361
738.57
715.232
417.71
420.736
613.452
571.511
537.028
547.186
773.63
803.85
456.136
446.717
451.204
576.059
674.507
700.747
732.622
585.045
576.633
578.423
601.486
734.822
623.337
617.339
1024.15
460.032
1171.28
435.118
547.27
551.91
839.575
621.328
432.899
454.313
689.886
661.582
583.468
529.446
531.769
549.128
459.207
573.062
586.076
736.985
607.624
460.287
430.707
665.062
663.762
467.278
713.22
688.581
646.355
542.246
551.949
640.793
613.289
573.276
577.039
599.144
429.092
690.381
717.514
531.817
535.377
554.806
598.315
475.398
464.564
643.949
728.845
697.951
725.919
695.154
722.609
692.339
719.865
557.828
589.651
463.236
606.817
588.077
560.84
586.671
463.009
511.969
562.787
577.763
481.839
690.709
423.41
421.213
410.463
415.55
400.392
405.371
391.836
395.798
382.804
387.571
371.381
377.497
357.659
364.571
346.646
351.521
340.645
343.095
337.856
338.979
336.366
337.037
335.152
335.756
333.948
334.542
332.848
333.388
331.768
332.281
331.064
331.364
330.781
330.863
331.017
330.833
331.75
331.327
332.85
332.266
334.083
333.468
335.149
334.656
335.808
335.541
335.991
335.948
335.629
335.917
334.381
335.097
333.558
337.347
335.493
341.493
339.301
346.88
344.001
353.805
350.159
361.603
357.701
367.875
365.14
369.431
369.396
365.268
367.968
357.855
361.751
350.294
353.953
344.103
347.004
339.32
341.559
335.382
337.308
333.371
334.967
334.238
335.91
335.555
336.012
336.031
335.692
335.904
334.924
335.36
333.828
334.403
332.677
333.242
331.731
332.163
331.203
331.405
331.183
331.129
331.632
331.356
332.498
332.013
333.555
333.037
334.557
334.056
335.576
335.062
336.762
336.127
338.679
337.566
342.878
340.36
351.661
346.531
365.58
358.238
378.621
372.689
387.269
383.36
394.353
390.831
401.959
398.029
410.865
406.224
416.025
539.061
542.963
532.831
535.65
528.921
530.616
528.527
526.964
527.714
530.927
528.626
530.013
529.146
532.791
531.197
534.695
542.187
548.375
642.717
610.957
737.122
685.76
851.87
795.147
978.814
907.598
1099.11
555.771
789.304
688.185
678.37
640.896
589.36
564.346
574.766
639.016
610.009
723.371
677.546
810.07
770.313
867.035
840.41
896.256
441.348
437.869
727.955
428.759
424.393
588.735
541.633
741.208
768.421
454.451
672.272
575.704
806.166
767.513
581.228
609.11
703.008
738.786
707.426
699.095
438.917
844.094
878.811
463.243
597.596
817.252
615.904
2244.39
870.747
440.894
568.138
933.213
557.041
537.837
562.882
638.374
741.825
651.843
665.641
734.282
625.084
653.047
638.387
438.788
440.402
449.455
689.672
676.394
426.284
597.53
564.148
534.772
543.415
824.08
459.131
449.865
454.269
669.719
626.909
597.238
571.288
762.057
574.862
570.27
570.629
589.931
650.833
703.343
614.998
594.614
463.177
665.174
331.055
330.216
334.353
332.367
545.034
540.015
1445.33
1013.68
607.065
436.393
462.484
926.516
467
738.771
651.728
609.45
427.281
429.462
548.979
530.644
545.858
640.919
623.088
462.054
667.202
570.082
758.449
621.55
578.501
707.765
606.713
417.989
424.289
528.639
434.552
476.902
745.733
539.948
526.647
528.07
548.858
606.415
588.091
572.151
755.142
484.176
470.994
433.675
702.825
749.122
534.042
551.772
594.964
751.423
468.455
595.737
592.711
528.415
530.454
554.698
589.404
467.276
589.103
641.264
556.944
466.759
623.457
583.499
910.495
902.816
920.57
433.762
431.419
418.819
424.929
408.015
413.122
397.474
403.184
387.756
392.539
376.919
382.608
363.473
370.465
349.842
356.359
340.576
344.525
336.01
337.838
333.941
334.789
332.786
333.321
331.635
332.239
330.301
330.977
329.044
329.644
327.974
328.469
327.291
327.561
327.085
327.13
327.374
327.169
328.124
327.695
329.226
328.642
330.474
329.848
331.591
331.067
332.331
332.02
332.578
332.514
332.26
332.52
331.765
332.614
336.399
334.529
340.579
338.366
346.019
343.112
352.995
349.323
360.865
356.923
367.22
364.445
368.793
368.763
364.549
367.296
357.04
360.981
349.413
353.102
343.157
346.09
338.318
340.583
336.289
329.982
331.587
330.862
332.453
332.142
332.535
332.566
332.135
332.387
331.32
331.774
330.213
330.788
329.066
329.631
328.095
328.544
327.5
327.743
327.356
327.371
327.641
327.444
328.351
327.943
329.268
328.803
330.32
329.775
331.491
330.89
332.805
332.125
334.509
333.567
337.654
335.791
344.459
340.426
356.812
349.993
371.192
364.202
382.114
377.158
390.258
386.35
398.198
394.148
407.131
402.497
412.254
551.149
543.134
546.973
536.222
539.525
530.93
533.334
527.524
528.99
525.922
526.506
526.665
525.889
525.75
528.451
527.301
527.099
527.101
527.864
527.331
529.964
528.726
533.389
531.494
535.604
552.303
662.19
624.8
767.995
711.303
891.499
827.821
1131.29
978.732
1837.37
1405.38
2475.11
790.322
683.328
680.397
630.158
570.708
556.148
562.21
599.727
582.544
661.632
625.161
761.495
708.747
861.312
813.294
970.803
909.804
1159.47
1056.05
770.953
444.572
444.711
683.205
434.101
429.849
577.993
538.625
784.968
457.454
646.923
862.492
841.56
570.112
796.593
571.701
594.879
675.277
516.308
620.669
466.179
641.214
604.542
535.478
9004.85
501.143
708.49
2197.15
329.249
328.965
534.72
535.956
568.156
1348.68
740.234
640.992
653.765
811.695
608.135
654.21
626.415
2091.61
1898.36
442.193
446.259
457.359
604.991
616.574
579.338
641.697
651.58
642.659
432.25
558.215
533.362
540.863
631.916
630.454
461.96
452.983
457.251
644.562
18944.6
894.281
843.357
607.525
592.758
567.33
872.57
791.388
564.345
601.625
580.908
3144.45
676.588
614.558
412.614
419.358
432.978
1387.67
585.385
563.431
629.944
561.296
440.158
471.733
801.949
776.256
648.7
774.638
884.062
622.951
603.248
436.01
545.673
530.064
543.81
531.071
511.751
614.869
595.306
464.839
642.563
527.66
526.828
527.243
568.283
521.008
512.254
640.338
788.56
7643.48
7615.81
617.343
478.376
572.529
438.906
546.928
557.838
683.83
488.012
778.949
919.429
918.934
438.199
440.658
538.041
527.94
546.786
527.403
526.436
527.178
536.716
601.42
514.532
572.663
784.022
555.979
474.385
594.376
505.576
573.196
438.776
473.725
854.37
9264.01
781.176
598.602
533.205
526.34
526.951
549.343
526.958
609.209
593.209
472.11
592.936
621.312
530.297
551.834
590.661
470.752
469.503
620.568
528.744
554.18
2594.96
450.165
923.788
860.467
893.011
756.489
772.147
818.868
445.384
441.749
428.036
434.738
415.259
421.506
403.824
409.366
392.423
398.492
380.872
386.667
367.867
374.596
353.504
360.724
340.355
346.522
331.771
335.416
327.529
329.232
325.779
326.457
324.936
325.298
324.565
324.708
324.217
324.422
323.549
323.91
322.811
323.172
322.215
322.482
321.953
322.036
322.109
321.98
322.68
322.344
323.578
323.098
324.624
324.095
325.59
325.129
326.306
325.992
326.57
326.507
326.363
326.535
325.377
326.007
323.691
324.609
322.637
331.549
328.157
335.349
333.455
339.61
337.351
345.15
342.193
352.213
348.5
360.165
356.182
366.594
363.786
368.18
368.155
363.863
366.652
356.261
360.248
348.542
352.279
342.177
345.166
337.239
339.549
333.224
335.177
327.837
331.254
322.285
324.354
323.374
325.867
325.197
326.559
326.328
326.624
326.641
326.258
326.492
325.538
325.933
324.613
325.09
323.672
324.136
322.896
323.249
322.468
322.632
322.438
322.405
322.795
322.566
323.45
323.102
324.231
323.844
324.917
324.597
325.384
325.17
325.892
325.597
327.083
326.371
329.724
328.115
335.886
332.207
347.445
340.999
361.927
354.7
373.952
368.393
383.302
378.807
392.073
387.666
401.516
396.644
406.834
547.029
550.944
540.192
543.501
534.224
537.073
529.574
531.728
526.617
527.886
525.388
525.783
525.636
525.379
526.201
526.327
526.503
526.615
526.33
528.121
527.201
530.99
529.369
532.897
543.591
552.253
550.656
557.411
680.753
635.908
795.704
736.071
952.327
860.981
1437.4
1124.76
2600.03
1935.94
3471.09
1983.55
508.686
671.736
708.436
613.288
576.616
568.232
611.221
590.101
687.866
643.332
798.8
741.691
932.078
858.456
1177.15
1035.17
1578.77
1366
1739.34
447.839
451.961
631.755
586.844
645.771
440.057
435.807
570.847
536.73
489.797
486.067
625.615
632.172
569.179
663.639
852.147
748.273
744.111
850.181
11662.8
665.641
460.328
624.686
492.992
874.461
579.944
565.603
498.242
823.108
563.932
587.799
584.407
650.893
536.322
557.978
563.078
621.502
12829.6
909.193
876.44
695.945
747.187
505.241
902.24
427.474
577.41
614.4
5253.42
1500.61
764.416
991.708
590.068
638.213
555.874
445.811
447.749
454.517
466.385
745.573
679.944
803.752
859.848
623.008
594.513
528.86
560.364
551.214
611.039
438.865
552.902
532.634
539.479
527.923
528.115
528.351
528.339
503.872
502.363
609.609
606.681
620.599
621.903
603.882
912.45
442.119
464.718
456.19
460.259
622.643
527.733
8596.77
590.789
917.066
590.765
578.103
556.593
585.735
565.581
481
511.067
821.022
616.145
486.736
831.961
559.281
603.305
5057.2
541.501
573.679
575.83
3145.52
4145.05
309
308.061
326.625
321.11
539.118
547.993
540.106
581.53
583.089
567.565
575.233
444.339
570.897
521.17
655.303
482.322
733.142
624.444
808.092
905.507
585.791
443.154
546.235
578.026
543.071
529.76
542.403
528.06
529.703
526.812
604.659
608.481
571.363
537.407
525.48
467.746
621.284
528.154
495.348
537.18
567.57
816.269
830.404
481.079
593.886
627.91
481.148
589.36
443.832
547.85
663.722
502.046
723.597
710.355
585.83
810.493
925.995
605.878
448.05
536.736
528.023
544.911
527.449
551.143
583.021
598.063
498.369
492.047
511.127
509.744
812.248
477.65
517.609
444.537
525.072
669.811
598.064
449.024
452.845
602.926
532.835
527.444
547.252
566.563
592.989
545.254
475.352
473.349
602.58
530.419
549.95
593.434
505.356
4841.59
593.552
7336.06
565.649
899.603
858.247
885.631
775.602
820.598
677.085
678.995
726.894
456.523
448.821
434.219
441.533
419.792
426.993
405.32
412.579
390.985
398.123
376.486
383.888
362.019
369.223
347.463
354.717
333.742
340.325
323.977
328.224
318.793
320.925
316.366
317.348
315.08
315.651
314.101
314.581
313.238
313.649
312.439
312.846
311.573
312.015
310.657
311.116
309.812
310.216
309.2
309.481
308.929
309.017
309.046
308.937
309.491
309.235
310.127
309.797
310.752
310.449
311.268
311.036
311.455
311.417
311.206
311.383
310.467
310.915
309.804
321.481
330.389
326.965
334.227
332.295
338.596
336.276
344.278
341.249
351.458
347.69
359.5
355.475
365.985
363.154
367.576
367.557
363.207
366.026
355.52
359.553
347.693
351.487
341.186
344.249
336.117
338.488
332.029
334.012
330.065
307.796
309.658
308.782
310.95
310.437
311.562
311.307
311.753
311.711
311.612
311.719
311.232
311.444
310.763
310.997
310.348
310.543
310.12
310.201
310.186
310.111
310.56
310.343
311.16
310.823
311.898
311.533
312.551
312.242
313.064
312.825
313.602
313.31
314.373
313.959
315.473
314.867
317.35
316.262
321.289
318.942
329.172
324.619
341.668
334.98
354.703
348.453
365.739
360.334
376.419
371.082
387.574
381.852
400.409
393.719
416.089
407.949
544.218
547.564
538.155
541.124
532.811
535.359
528.736
530.591
526.132
527.255
525.289
525.489
525.852
525.431
527.119
526.281
527.893
528.46
528.699
528.695
528.258
528.489
527.866
528.086
526.993
527.405
526.335
526.632
526.248
526.203
527.252
526.587
529.656
528.275
533.024
531.316
534.439
548.295
542.879
557.419
699.449
651.355
809.875
752.45
1044.1
888.597
1921.45
1371.79
3508.48
2652.55
4418.26
2561.66
12488.6
614.63
798.91
605.654
571.224
563.477
568.857
586.735
576.921
626.938
603.382
709.286
661.909
829.589
764.772
1076.89
924.919
1565.65
1283.84
2269.96
1912.44
2648.43
451.264
460.77
713.926
832.594
620.166
6790.57
624.592
446.75
442.457
642.994
535.769
528.586
499.113
624.849
625.231
615.35
924.321
865.748
893.487
3018.53
788.603
702.044
669.068
426.103
437.274
463.18
605.426
11139.7
587.696
899.282
566.977
7814.16
497.07
850.761
909.745
558.863
589.125
545.906
539.334
575.004
5578.21
12507.4
524.38
499.907
725.209
893.972
455.947
556.567
307.002
306.699
435.404
549.238
552.828
1880
849.985
589.187
1525.66
604.121
760.405
449.798
1656.96
630.764
457.858
464.053
476.559
706.231
650.355
835.964
886.268
602.987
596.499
490.882
14183.3
446.409
565.24
549.231
532.137
538.539
528.672
519.494
518.318
616.096
614.895
580.511
555.887
543.413
451.205
451.778
467.624
459.694
463.518
603.906
528.676
529.464
529.456
10556.4
928.583
576.313
565.433
546.345
5062.89
6122.15
571.641
557.207
563.634
533.083
520.866
846.226
627.723
489.271
567.858
553.302
473.873
554.413
596.623
495.244
496.747
570.289
9317.1
643.426
568.446
556.721
562.688
449.119
561.054
638.174
495.406
690.959
601.873
632.654
571.571
592.814
837.959
917.707
613.916
622.508
13025.9
538.934
450.841
541.132
529.591
540.966
528.301
560.648
542.853
543.36
602.966
603.708
498.786
541.241
527.304
7656.28
471.551
471.118
486.257
484.287
471.02
602.986
529.223
503.792
499.372
529.421
567.093
841.373
818.588
484.195
793.065
848.534
498.708
671.06
451.035
449.471
538.245
646.557
515.836
667.088
634.149
838.808
10396.5
605.628
604.608
623.001
455.702
790.67
536.066
528.362
543.207
528.004
564.37
585.767
596.301
566.624
573.307
527.265
6188.55
650.664
460.638
480.655
477.857
586.491
532.739
545.899
594.312
546.9
7187.41
7075.91
856.601
845.503
831.329
851.024
759.192
799.567
668.433
713.736
624.965
489.36
434.555
441.307
419.627
427.224
403.784
411.83
387.12
395.523
370.076
378.589
353.489
361.713
337.938
345.564
323.67
330.554
312.384
317.559
304.404
308.031
299.047
301.373
296.566
297.472
295.89
296.1
295.9
295.853
295.924
295.943
295.573
295.804
294.9
295.272
294.011
294.474
293.106
293.55
292.353
292.7
291.897
292.087
291.788
291.794
292.02
291.87
292.451
292.221
292.915
292.689
293.271
293.117
293.328
293.349
292.989
293.188
292.234
292.693
290.78
291.585
288.849
289.871
287.73
320.258
305.837
329.17
325.707
333.071
331.091
337.569
335.176
343.419
340.306
350.738
346.906
358.87
354.807
365.391
362.548
366.979
366.965
362.58
365.418
354.824
358.898
346.879
350.737
340.209
343.358
334.988
337.429
330.806
332.83
325.358
328.83
305.5
319.875
287.402
289.629
288.558
291.452
290.595
292.731
292.204
293.344
293.092
293.615
293.52
293.533
293.613
293.227
293.397
292.896
293.055
292.668
292.764
292.643
292.623
292.922
292.74
293.499
293.178
294.317
293.875
295.19
294.763
295.972
295.598
296.622
296.31
297.253
296.934
297.856
297.56
298.507
298.148
299.935
299.054
303.407
301.318
310.076
306.331
319.786
314.595
330.961
325.344
342.027
336.45
353.694
347.805
366.202
359.785
380.523
373.101
397.479
388.687
417.959
407.702
429.271
548.531
551.484
542.467
545.197
537.166
539.804
532.402
534.669
528.784
530.432
526.493
527.437
526.169
526.086
526.994
526.504
528.236
527.474
529.099
528.938
529.095
529.15
528.703
528.982
528.519
528.54
527.934
528.286
527.266
527.561
526.892
527.002
527.476
527.027
529.433
528.287
532.454
530.87
536.615
534.107
539.017
537.955
545.161
583.972
555.328
553.876
557.076
596.68
560.924
616.21
566.485
698.223
651.115
807.603
748.909
1169.96
915.288
2491.35
1699.93
4317.82
3401.44
5717.48
5130.87
4212.64
9212.99
609.113
597.981
1095.93
660.363
576.699
573.656
588.894
580.86
627.362
603.4
718.874
664.822
884.905
782.382
1373.5
1081.55
2182.27
1738.42
3306.07
2721.59
4024.55
455.029
560.597
470.546
677.864
552.359
544.374
521.961
862.426
600.75
565.027
514.454
454.123
450.567
555.976
535.07
529.137
515.014
618.493
594.672
568.895
567.765
561.587
545.579
877.671
880.845
839.331
863.511
767.38
806.264
689.753
727.172
636.936
659.744
623.024
466.086
459.182
446.032
466.224
588.946
529.241
486.961
915.099
555.657
6828.42
880.628
580.652
585.778
565.547
554.887
623.065
560.025
509.174
872.408
497.716
934.107
604.844
582.249
472.58
584.116
538.387
7477.11
553.794
10310.7
1821.91
901.086
441.913
741.872
506.777
820.249
498.599
695.724
10800.9
449.754
3857.86
1153.07
656.574
585.116
915.177
769.825
1475.87
553.785
559.526
454.398
577.614
615.393
468.379
474.715
488.618
668.597
623.166
515.907
561.108
862.565
902.854
5754.23
630.506
589.046
519.867
11512.9
548.224
454.395
611.766
593.67
819.903
560.946
546.52
531.681
537.425
529.096
535.718
535.499
611.867
609.2
740.341
585.579
682.441
582.749
523.065
567.282
528.645
538.997
631.972
773.915
668.844
462.176
466.505
478.785
445.897
462.276
470.924
463.752
467.279
587.962
529.744
530.292
530.372
637.597
926.376
563.821
554.353
537.331
561.919
538.673
866.688
510.225
880.349
508.658
691.719
763.318
282.856
282.205
304.213
286.171
537.834
547.424
5974.47
458.297
536.08
500.653
454.641
551.168
623.541
508.581
652.096
581.255
598.283
862.386
618.503
913.496
626.496
612.025
552.287
6250.52
458.647
569.936
540.036
529.702
539.605
528.856
553.842
558.636
601.681
600.464
564.004
808.585
610.792
522.627
726.504
537.22
685.573
547.316
464.1