/*--------------------------------*- C++ -*----------------------------------*\
| =========                 |                                                 |
| \\      /  F ield         | OpenFOAM: The Open Source CFD Toolbox           |
|  \\    /   O peration     | Version:  2212                                  |
|   \\  /    A nd           | Website:  www.openfoam.com                      |
|    \\/     M anipulation  |                                                 |
\*---------------------------------------------------------------------------*/
FoamFile
{
    version     2.0;
    format      ascii;
    arch        "LSB;label=32;scalar=64";
    class       volVectorField;
    location    "0.0016";
    object      U;
}
// * * * * * * * * * * * * * * * * * * * * * * * * * * * * * * * * * * * * * //

dimensions      [0 1 -1 0 0 0 0];

internalField   nonuniform List<vector> 
2308
(
(-6.17821 25.4663 -7.42718e-16)
(6.46882 13.6223 0)
(-1.90499 43.4202 6.1134e-17)
(1.0786 14.91 -2.29103e-16)
(-0.030844 19.8947 0)
(0.753743 17.8752 -5.76206e-19)
(-0.826186 17.1927 1.19732e-19)
(-1.19479 19.1342 -3.31477e-16)
(-0.290681 20.6006 6.15518e-16)
(-0.124242 7.0963 -6.75676e-17)
(-0.231631 7.87678 1.21779e-16)
(0.243526 9.04176 -1.8193e-16)
(0.0715133 10.028 9.12235e-17)
(0.00828803 10.8889 -4.66498e-17)
(0.00474032 11.7247 8.04795e-18)
(0.0348835 12.5063 6.77258e-17)
(0.0641634 13.2201 9.30948e-18)
(-0.132005 14.0563 2.13842e-17)
(0.00847443 13.2612 2.84528e-17)
(-0.0644012 12.4405 2.08225e-18)
(-0.0891499 11.628 1.56635e-17)
(-0.0834154 10.7878 -4.53673e-17)
(-0.102675 9.91141 5.74552e-17)
(-0.233006 8.94404 -2.62054e-17)
(0.0903771 8.02382 -1.11007e-16)
(0.00844102 7.14983 -5.21409e-17)
(-0.179168 6.2187 2.63535e-17)
(0.0267085 5.21358 -2.85699e-17)
(-0.512015 17.0724 0)
(0.0184511 13.9085 -1.97326e-16)
(-0.0137506 4.20116 1.49992e-18)
(-0.0438478 3.15939 3.78842e-19)
(-0.0496432 2.08934 -6.3909e-18)
(-0.0517993 0.976137 5.95304e-18)
(-0.0503335 -0.158374 -6.24656e-18)
(-0.0491178 -1.41011 5.79091e-18)
(-0.0462804 -2.76447 -2.85664e-18)
(-0.0433736 -4.13847 2.80742e-18)
(-0.040267 -5.58877 -2.77071e-18)
(-0.0371262 -7.10829 1.35095e-18)
(-0.0343655 -8.70598 2.67831e-18)
(-0.0321534 -10.3875 3.97607e-18)
(-0.0294852 -12.1506 -7.8296e-18)
(-0.0256914 -13.9821 5.14106e-18)
(-0.0233717 -15.7166 2.53089e-18)
(-0.0126212 -15.7247 -2.52477e-18)
(-0.0167351 -13.9922 2.58359e-18)
(-0.0187986 -12.1643 -3.90886e-18)
(-0.0220556 -10.4002 -4.28834e-18)
(-0.0236784 -8.71855 6.73718e-18)
(-0.0256779 -7.12099 -1.36549e-18)
(-0.0268289 -5.6001 2.77393e-18)
(-0.0285611 -4.14795 6.97609e-19)
(-0.0285509 -2.77493 -4.29456e-18)
(-0.0287505 -1.42227 -1.45242e-18)
(-0.0254035 -0.171896 2.95072e-18)
(-0.0214546 0.957624 0)
(-0.0163684 2.0636 -3.7706e-19)
(-0.0124306 3.12201 -1.25714e-17)
(-0.0331537 4.14714 -4.3936e-17)
(-0.0710869 5.1295 5.24819e-17)
(0.111568 6.14025 5.49585e-17)
(0.0214802 6.98865 6.38126e-17)
(0.107634 7.87433 5.32444e-21)
(0.0791267 8.73696 7.33259e-17)
(-0.0151692 9.4129 -1.37097e-16)
(0.0598156 10.1597 -3.18035e-17)
(0.0918449 10.9753 0)
(0.122306 11.7922 0)
(0.158237 12.5644 0)
(0.193074 13.2756 0)
(-0.02231 -16.559 -1.237e-18)
(-0.0164592 -16.5611 1.2484e-18)
(-0.568238 13.1672 -9.80671e-17)
(-0.378432 12.3942 -1.96223e-18)
(-0.22961 11.611 7.597e-18)
(-0.167996 10.7422 0)
(-0.149192 9.83612 -1.42074e-17)
(-0.136545 8.95124 -1.37255e-17)
(-0.111967 8.03736 6.79711e-18)
(-0.123517 7.07422 2.69032e-17)
(-0.133967 6.15679 0)
(-0.102688 5.19663 -1.02675e-22)
(-0.0821119 4.18792 4.78716e-20)
(-0.0795162 3.1575 -6.11705e-18)
(-0.0807207 2.0959 9.05332e-18)
(-0.079044 0.98534 4.43464e-21)
(-0.0750192 -0.148492 -5.14257e-18)
(-0.0700831 -1.40061 0)
(-0.0628154 -2.75619 -7.13969e-19)
(-0.057201 -4.13008 4.22221e-18)
(-0.0528138 -5.58032 -5.53885e-18)
(-0.0498419 -7.09932 -1.09827e-20)
(-0.0471402 -8.69612 5.37099e-18)
(-0.0422798 -10.3771 0)
(-0.0381964 -12.1411 5.21567e-18)
(-0.0362993 -13.9723 9.3444e-21)
(-0.0344854 -15.7103 -2.51739e-18)
(-0.308364 14.5647 -8.5466e-17)
(-0.0302217 -16.5603 -2.48545e-18)
(-0.0718639 14.4975 8.72823e-17)
(0.196628 13.9401 -3.3257e-20)
(-0.00462664 -16.5591 -2.49495e-18)
(-0.0105533 -15.7317 3.18098e-18)
(-0.00873454 -14.006 0)
(-0.0103513 -12.1752 -9.76671e-19)
(-0.0109515 -10.4125 2.33738e-18)
(-0.0127515 -8.7293 2.69819e-18)
(-0.0135818 -7.13055 -2.75181e-18)
(-0.0133936 -5.60812 0)
(-0.0136834 -4.15819 -7.06778e-19)
(-0.011943 -2.78313 1.43826e-18)
(-0.00899124 -1.43126 -1.08846e-21)
(-0.00294628 -0.183762 -1.48169e-18)
(0.00224804 0.943404 0)
(0.00821398 2.04184 2.2839e-18)
(0.012417 3.09229 -9.22021e-18)
(0.0231877 4.11153 -6.25358e-18)
(0.0608041 5.10296 2.57373e-17)
(0.106539 6.04858 9.6684e-17)
(0.101623 6.93639 7.39508e-18)
(0.121864 7.81622 7.11593e-17)
(0.121655 8.65257 -3.25398e-17)
(0.112324 9.47615 0)
(0.145887 10.2968 0)
(0.181303 11.1047 0)
(0.221071 11.8997 1.12901e-16)
(0.26535 12.6601 -1.32287e-16)
(0.300397 13.3721 1.36589e-16)
(-1.32538 19.8737 -2.66765e-16)
(0.823681 17.8012 0)
(0.531445 16.9037 0)
(0.715456 17.4684 0)
(-0.682566 13.971 1.98384e-16)
(-0.166875 13.1953 5.53636e-17)
(-0.259985 12.4432 -1.97188e-20)
(-0.266478 11.6324 -9.18444e-19)
(-0.241766 10.7388 9.04114e-19)
(-0.217148 9.8271 7.07789e-18)
(-0.194053 8.92375 -1.37869e-17)
(-0.146038 8.00909 5.47948e-21)
(-0.141583 7.07384 0)
(-0.149153 6.139 2.93221e-17)
(-0.128784 5.18755 1.89996e-17)
(-0.118661 4.19695 -3.10676e-18)
(-0.114715 3.16795 3.06339e-18)
(-0.110131 2.10424 0)
(-0.103895 0.992449 0)
(-0.0963201 -0.14311 -3.68344e-19)
(-0.086343 -1.39697 0)
(-0.0771734 -2.75208 2.14569e-18)
(-0.0698011 -4.12689 2.08555e-21)
(-0.0627929 -5.57754 -1.38681e-18)
(-0.0564188 -7.0969 0)
(-0.051249 -8.69202 -1.35061e-18)
(-0.0479638 -10.3732 1.98962e-18)
(-0.0458252 -12.1369 -3.26753e-18)
(-0.0414215 -13.9668 0)
(-0.0374425 -15.7049 -5.05147e-18)
(-0.033094 -16.5608 1.24253e-18)
(-0.0264365 -16.1632 -4.39849e-21)
(-0.0269778 -16.1586 0)
(-0.0186857 -16.1532 -6.14073e-19)
(-0.0153362 -16.1468 -1.99279e-18)
(-0.740726 19.4438 2.909e-16)
(-0.00715028 -16.1392 1.54169e-19)
(-1.99851 19.6579 -8.47056e-16)
(-3.30916 20.0616 -1.94211e-16)
(0.138948 14.5951 0)
(-1.75656 21.7477 2.83278e-16)
(-0.412827 19.2731 -5.81269e-16)
(0.0149847 15.0596 3.58584e-17)
(0.327057 14.0377 -2.08602e-16)
(-0.0235961 -14.8689 -1.21158e-18)
(-0.0239942 -14.8618 -1.20427e-18)
(-0.0168593 -14.8543 -1.51141e-19)
(-0.0140806 -14.846 2.42474e-18)
(-0.00726281 -14.8369 1.51608e-19)
(-0.00356667 -14.8272 0)
(-0.00209103 -16.1329 1.23662e-18)
(-0.0019256 -16.5612 2.50275e-18)
(0.000130591 -15.7424 -6.51927e-19)
(0.000224035 -14.0157 -2.60605e-18)
(0.000360339 -12.1855 -2.9561e-18)
(-0.000151916 -10.4207 4.02233e-18)
(-0.000330788 -8.73723 1.35684e-18)
(-0.000916721 -7.13717 -2.76514e-18)
(-0.00166604 -5.61481 2.10593e-18)
(0.000254482 -4.1632 -6.23815e-19)
(0.00390592 -2.78791 0)
(0.0085464 -1.43728 0)
(0.0166242 -0.189678 0)
(0.0253193 0.937646 3.02402e-18)
(0.0350857 2.03589 -1.53731e-18)
(0.046333 3.08662 3.26912e-23)
(0.06153 4.10312 -1.27323e-17)
(0.08812 5.07937 0)
(0.123931 6.01069 -1.37421e-17)
(0.147258 6.91954 1.43825e-17)
(0.171588 7.81485 2.99894e-17)
(0.165724 8.6789 1.54886e-17)
(0.169915 9.53134 6.26109e-17)
(0.207829 10.3704 -6.25771e-17)
(0.256263 11.1864 0)
(0.313661 11.975 1.58822e-17)
(0.374175 12.7311 -3.22959e-17)
(0.411446 13.4551 -6.6188e-17)
(-0.56452 15.5473 3.26972e-17)
(-3.99283 28.4898 0)
(0.270247 19.3171 -2.23518e-20)
(-1.72594 18.4657 3.66857e-16)
(-1.72792 17.785 -7.74885e-17)
(-1.31609 17.1342 8.72346e-17)
(-0.947645 16.2674 -1.63397e-17)
(-0.788074 15.4345 3.18075e-17)
(-0.704622 14.6564 -1.52916e-17)
(-0.625385 13.9285 0)
(-0.50496 13.1609 -1.4494e-17)
(-0.424027 12.3405 -1.45254e-17)
(-0.359721 11.5285 0)
(-0.312117 10.6779 0)
(-0.275681 9.79283 8.76258e-19)
(-0.247258 8.89547 -7.74568e-18)
(-0.220637 7.98791 0)
(-0.20195 7.06442 0)
(-0.183759 6.13236 -9.78769e-18)
(-0.167391 5.18201 -6.38294e-18)
(-0.155198 4.1966 1.25395e-17)
(-0.145115 3.17036 3.08869e-18)
(-0.13553 2.1061 7.61268e-19)
(-0.125568 0.993219 3.00288e-18)
(-0.114744 -0.14513 -3.32995e-18)
(-0.100353 -1.39994 0)
(-0.088104 -2.75533 -1.4372e-18)
(-0.0779383 -4.12992 0)
(-0.0679935 -5.58112 0)
(-0.0598403 -7.09814 0)
(-0.0530928 -8.69411 -5.41168e-18)
(-0.0472516 -10.3758 0)
(-0.0429185 -12.1365 -2.94753e-18)
(-0.040029 -13.9642 4.82807e-19)
(-0.0374068 -15.7053 9.9602e-18)
(-0.034589 -16.5637 0)
(-0.0304949 -16.1688 -4.90365e-18)
(-0.0264686 -14.8731 7.49932e-20)
(-0.610858 44.1089 0)
(-1.74289 20.4579 4.64539e-16)
(9.73196 28.2766 8.18343e-16)
(0.742473 13.9412 0)
(-7.34553 43.9322 -2.69027e-16)
(-2.23995 19.9338 9.69401e-16)
(0.382202 14.6456 -3.35103e-19)
(-0.451949 15.7376 6.89626e-17)
(-0.00284608 -14.8239 -1.52523e-19)
(0.00118579 -16.1334 -1.24078e-18)
(0.000915235 -16.5629 1.25842e-18)
(0.0037052 -15.746 0)
(0.00663665 -14.0228 0)
(0.00715509 -12.1921 1.65453e-19)
(0.00811084 -10.4265 -6.7396e-19)
(0.00982365 -8.7401 -2.38886e-18)
(0.00896812 -7.13854 1.73947e-19)
(0.00957855 -5.61668 -3.62722e-19)
(0.0116799 -4.1654 -4.37939e-19)
(0.0163094 -2.79142 1.99498e-18)
(0.0236435 -1.4418 1.81775e-19)
(0.0343083 -0.193691 -1.49789e-18)
(0.0462917 0.93488 0)
(0.0600797 2.03491 6.17113e-18)
(0.0754979 3.08603 -8.37669e-22)
(0.0934595 4.10336 3.20967e-17)
(0.115873 5.08 -2.63239e-17)
(0.133585 6.01407 0)
(0.14903 6.92302 2.83006e-17)
(0.173361 7.81592 -8.7809e-17)
(0.201351 8.69549 4.50794e-17)
(0.230561 9.5613 6.08107e-17)
(0.272058 10.4087 1.2864e-19)
(0.330702 11.2273 -6.16146e-17)
(0.398561 12.0129 6.24778e-17)
(0.468134 12.7686 6.36385e-17)
(0.552087 13.4898 -6.39604e-17)
(0.407072 14.1563 -1.32931e-16)
(-0.904571 21.822 -2.34413e-19)
(-3.0401 19.4788 -8.07529e-19)
(-1.39133 18.2635 -6.46263e-17)
(-1.4056 17.5225 -8.47515e-18)
(-1.32607 16.8536 -2.48523e-17)
(-1.14541 16.0891 -8.03523e-18)
(-0.987108 15.3025 0)
(-0.854054 14.5378 1.52129e-17)
(-0.729171 13.8091 -7.42555e-18)
(-0.57503 13.0633 -7.30091e-18)
(-0.476747 12.2824 3.64055e-18)
(-0.410461 11.4758 3.5974e-18)
(-0.356331 10.6319 7.09505e-18)
(-0.313624 9.75636 0)
(-0.27919 8.86707 6.86546e-18)
(-0.250838 7.96864 -6.65112e-18)
(-0.228989 7.05657 -1.03977e-19)
(-0.213646 6.1283 -1.95993e-17)
(-0.199117 5.17606 1.60327e-18)
(-0.185287 4.19015 -7.87926e-18)
(-0.171981 3.16426 0)
(-0.158258 2.10074 -2.4821e-18)
(-0.143446 0.986011 1.8714e-19)
(-0.128989 -0.154402 3.34156e-18)
(-0.109944 -1.4113 0)
(-0.0946281 -2.76525 0)
(-0.0808641 -4.14039 -8.89798e-20)
(-0.0684712 -5.58912 -2.71088e-18)
(-0.0569838 -7.10629 2.75849e-18)
(-0.0474685 -8.70223 3.39554e-18)
(-0.0408633 -10.3806 -6.65329e-19)
(-0.0358567 -12.1396 1.96742e-18)
(-0.0318246 -13.9693 -6.53462e-19)
(-0.0306311 -15.71 -5.08143e-18)
(-0.0255719 -16.5672 4.98101e-18)
(-0.0232378 -16.1706 1.10488e-17)
(-0.0206165 -14.8747 4.81799e-18)
(-0.0201475 -13.5105 0)
(-0.0228735 -13.5115 -2.43663e-18)
(-0.0210298 -13.51 2.562e-22)
(-0.0200752 -13.5039 2.67453e-18)
(-0.0152357 -13.5001 8.89773e-19)
(-0.0118939 -13.495 -1.18779e-18)
(-0.00737913 -13.4905 2.38008e-18)
(-0.00559617 -13.4855 -2.3808e-18)
(-0.00321589 -13.4841 -1.1943e-18)
(9.10023 31.3058 -3.08381e-16)
(2.70113 43.1039 -7.90049e-17)
(-11.5334 14.9322 -1.61583e-16)
(-2.47041 21.3536 -4.74428e-16)
(-4.59822 25.5795 -2.47537e-16)
(4.87812 20.9124 9.72094e-17)
(0.632846 14.1875 0)
(0.322383 14.8447 2.68464e-16)
(-1.49413 22.8083 7.04349e-16)
(-2.30317 21.7776 2.87362e-16)
(-2.48622 26.719 -3.0206e-16)
(0.0113709 18.8343 5.89937e-16)
(-2.01702 18.1134 0)
(-1.76096 17.3363 8.32288e-18)
(-1.53629 16.5931 -2.02783e-18)
(-1.32185 15.8668 -3.75627e-17)
(-1.13533 15.1301 7.73587e-18)
(-0.976759 14.3959 0)
(-0.833676 13.674 7.94072e-22)
(-0.694054 12.9434 -1.82923e-18)
(-0.580916 12.1888 0)
(-0.488868 11.4013 -3.57229e-18)
(-0.419161 10.5732 -3.52736e-18)
(-0.364423 9.71438 0)
(-0.325074 8.83679 8.55413e-19)
(-0.29426 7.94594 -8.44506e-19)
(-0.269189 7.04021 8.3098e-19)
(-0.247886 6.11579 1.22618e-17)
(-0.229627 5.16496 0)
(-0.21283 4.17949 1.58186e-18)
(-0.195279 3.15356 -7.79025e-19)
(-0.176849 2.08826 1.92084e-19)
(-0.157518 0.972774 5.68503e-19)
(-0.139236 -0.171804 -3.36132e-18)
(-0.115646 -1.43005 0)
(-0.0965607 -2.7827 7.24641e-19)
(-0.0797697 -4.15539 1.42873e-18)
(-0.0642994 -5.60393 1.40908e-18)
(-0.0513094 -7.12117 -1.78815e-22)
(-0.0408196 -8.71372 -6.81981e-19)
(-0.0325606 -10.3895 -2.00959e-18)
(-0.0250205 -12.1497 -1.32295e-18)
(-0.0205918 -13.9783 -1.30042e-18)
(-0.0147192 -15.7152 0)
(-0.0147257 -16.5678 -4.99738e-18)
(-0.0171664 -16.1658 -4.92019e-18)
(-0.0168954 -14.8688 -3.62268e-18)
(-0.0185041 -13.5066 -6.50438e-18)
(-0.0213152 -13.0028 2.90537e-18)
(-0.0233165 -13.006 -2.3241e-18)
(-0.0215527 -13.0111 0)
(-0.02169 -13.012 1.16731e-18)
(-0.0183702 -13.0107 1.16645e-18)
(-0.0151662 -13.0122 -2.33501e-18)
(-0.0119973 -13.0117 2.34317e-18)
(-0.0105117 -13.0148 2.41672e-21)
(-0.00980197 -13.0178 -1.17415e-18)
(-0.00892952 -13.0232 3.52131e-18)
(-0.0115576 -13.0304 -3.5383e-18)
(-0.00427506 -13.4862 6.01548e-19)
(0.0016771 -14.8238 -4.56221e-19)
(0.00462327 -16.1329 9.33294e-19)
(0.0105861 -16.5653 -3.14413e-18)
(0.00966137 -15.751 1.20429e-18)
(0.00962351 -14.0269 0)
(0.0111536 -12.1946 1.66107e-19)
(0.0123906 -10.4276 2.36241e-18)
(0.0134979 -8.73959 -3.4356e-19)
(0.0163118 -7.13955 8.6868e-19)
(0.0189165 -5.61801 -6.54851e-22)
(0.0226139 -4.16805 3.61534e-19)
(0.0283564 -2.79479 -1.82119e-19)
(0.0368619 -1.4466 1.29273e-18)
(0.0490496 -0.199891 -4.50195e-18)
(0.0635828 0.929891 2.33365e-21)
(0.0802178 2.03199 3.09922e-18)
(0.0980665 3.08578 -3.15339e-18)
(0.117464 4.10329 -2.5732e-17)
(0.138843 5.08457 2.62889e-17)
(0.161394 6.03113 0)
(0.182397 6.94477 -5.57183e-17)
(0.208115 7.83611 4.26919e-17)
(0.236142 8.7115 -4.38962e-17)
(0.26687 9.5724 0)
(0.319667 10.419 0)
(0.391536 11.2344 0)
(0.481127 12.0189 -7.64262e-18)
(0.584471 12.775 -7.59604e-21)
(0.679304 13.5039 1.24745e-16)
(-0.680631 22.6133 -3.16014e-16)
(0.72699 14.8937 1.34856e-16)
(0.254532 15.6818 -1.27536e-16)
(-0.619944 16.3258 1.64486e-17)
(-2.24891 23.6325 3.41476e-16)
(-2.95696 22.6426 2.90904e-16)
(-3.24319 21.7273 7.23417e-19)
(-3.20117 21.0042 -2.97116e-16)
(-3.97012 18.847 -2.0546e-16)
(-2.14112 19.0525 -2.00173e-16)
(-2.68398 18.589 7.23216e-17)
(-2.29214 17.7967 -1.68047e-17)
(-1.96329 17.0374 -3.25227e-17)
(-1.6753 16.3475 0)
(-1.4409 15.6581 3.13297e-17)
(-1.23993 14.9537 0)
(-1.06698 14.241 0)
(-0.916091 13.5315 7.41524e-18)
(-0.779705 12.8151 1.82839e-18)
(-0.661771 12.0804 0)
(-0.560368 11.3133 3.56273e-18)
(-0.478701 10.5054 -7.47763e-21)
(-0.416983 9.66355 -3.57302e-21)
(-0.371005 8.79865 3.42119e-18)
(-0.334663 7.91701 3.79766e-18)
(-0.304009 7.01802 -3.74189e-18)
(-0.278336 6.09787 -6.75381e-18)
(-0.256825 5.14951 2.01626e-19)
(-0.236004 4.16405 -1.1921e-18)
(-0.21456 3.13629 3.9137e-19)
(-0.191192 2.06851 1.54374e-18)
(-0.166866 0.952091 -1.14125e-18)
(-0.144253 -0.195752 1.49984e-18)
(-0.116068 -1.45546 1.4489e-21)
(-0.0944875 -2.80384 -3.63574e-18)
(-0.0754814 -4.17532 1.43267e-18)
(-0.0585984 -5.62412 1.41169e-18)
(-0.0444232 -7.13799 -2.07951e-18)
(-0.0344605 -8.72737 2.729e-18)
(-0.0258774 -10.4035 2.68969e-18)
(-0.0197561 -12.1624 0)
(-0.0149843 -13.9886 7.80384e-18)
(-0.0113684 -15.7236 1.27209e-18)
(-0.0134241 -16.5663 1.24733e-18)
(-0.0140697 -16.1605 0)
(-0.0164368 -14.8602 0)
(-0.0200024 -13.4979 3.55054e-18)
(-0.0235304 -12.996 1.99751e-21)
(-0.0283839 -13.7447 -5.65008e-19)
(-0.0273064 -13.7501 5.73412e-19)
(-0.029746 -13.7556 0)
(-0.0227159 -13.7648 0)
(-0.0212052 -13.7666 -5.72496e-19)
(-0.020188 -13.7727 1.71548e-18)
(-0.015937 -13.7786 0)
(-0.0130454 -13.7854 -1.148e-18)
(-0.0137624 -13.7939 -1.14769e-18)
(-0.0152469 -13.8046 2.30575e-18)
(-0.0154337 -13.8172 -1.15029e-18)
(-0.0211114 -13.8315 3.46686e-18)
(-0.0242118 -13.8524 5.87296e-19)
(-0.0110397 -13.0417 5.92235e-19)
(-0.00138196 -13.4922 1.20258e-18)
(0.00403703 -14.8259 0)
(0.00754549 -16.1337 -4.67835e-19)
(0.0077294 -16.5669 -1.18552e-19)
(0.0130024 -15.7537 7.21989e-19)
(0.0167628 -14.0282 -1.68606e-19)
(0.019767 -12.194 -3.3746e-19)
(0.0227772 -10.4261 -2.70769e-18)
(0.0239648 -8.74027 6.85777e-19)
(0.0257241 -7.13936 -1.74591e-18)
(0.0291777 -5.61866 8.86965e-19)
(0.0336448 -4.17003 -3.59534e-19)
(0.0397387 -2.79902 0)
(0.0487467 -1.45267 0)
(0.0617622 -0.208178 0)
(0.0771797 0.921694 -1.52758e-18)
(0.0946581 2.02439 0)
(0.113336 3.08052 -2.61353e-22)
(0.132279 4.0995 1.28442e-17)
(0.152969 5.07991 -6.55742e-18)
(0.179197 6.02753 1.34099e-17)
(0.210559 6.94699 4.13339e-17)
(0.237821 7.84516 8.45373e-21)
(0.275089 8.71952 -1.43413e-17)
(0.32507 9.57484 -2.90106e-17)
(0.386231 10.4093 5.82432e-17)
(0.469952 11.2177 -2.95744e-17)
(0.567191 11.9958 -7.28185e-22)
(0.679063 12.7381 1.50971e-17)
(0.806374 13.4578 7.64768e-20)
(0.764932 14.2177 -1.91837e-16)
(-1.17242 23.4873 -3.27925e-16)
(-0.191895 23.3282 6.19566e-16)
(15.2793 25.7115 0)
(0.869772 14.9129 -1.32475e-16)
(-3.6364 19.9703 5.30518e-16)
(-3.91359 21.4756 -2.86438e-16)
(-4.00868 22.1977 -5.52964e-16)
(0.780167 16.3278 -4.31266e-17)
(-1.15032 18.0314 -4.20752e-17)
(-0.195482 16.3592 -1.64632e-17)
(0.906608 15.5529 2.15705e-19)
(-2.94529 24.0874 -3.37198e-16)
(-3.92368 23.0013 2.80823e-16)
(-0.0357294 -16.2592 -5.56074e-19)
(-0.0374628 -16.2572 -5.55806e-19)
(-0.0395326 -16.259 0)
(-0.0286247 -16.2654 -5.60399e-19)
(-0.0220688 -16.2663 5.61236e-19)
(-0.0235346 -16.2722 -5.54128e-19)
(-0.0213122 -16.281 5.54816e-19)
(-0.0165914 -16.2873 1.12552e-18)
(-0.0212455 -16.3003 -1.12639e-18)
(-0.0233431 -16.3126 2.27381e-18)
(-0.0249591 -16.3299 -3.40259e-18)
(-0.0351188 -16.3417 0)
(-0.0431149 -16.3654 1.93563e-20)
(-0.0461589 -16.3827 0)
(-0.0225667 -13.8739 -3.48274e-18)
(-0.00579449 -13.0557 1.18395e-18)
(0.00678904 -13.5014 0)
(0.0137234 -14.8318 0)
(0.018693 -16.1381 3.12708e-19)
(0.0228947 -16.5687 -3.96666e-20)
(0.0252866 -15.7521 0)
(0.0287783 -14.0258 -1.64441e-19)
(0.0311194 -12.1915 1.67074e-19)
(0.0337927 -10.4241 6.78425e-19)
(0.036824 -8.73845 3.442e-19)
(0.0395067 -7.13939 6.9813e-19)
(0.0424682 -5.61904 -2.42452e-21)
(0.0469565 -4.17204 -1.44185e-18)
(0.0533063 -2.80321 3.67553e-19)
(0.061672 -1.45975 1.48577e-18)
(0.0736816 -0.217783 3.75507e-19)
(0.0881257 0.909807 -7.65448e-19)
(0.105923 2.01268 1.55256e-18)
(0.125675 3.07039 -4.73044e-18)
(0.145548 4.09253 -6.41165e-18)
(0.165295 5.07406 3.26129e-18)
(0.18819 6.01875 -6.66156e-18)
(0.217234 6.93462 0)
(0.25896 7.82841 -2.08497e-17)
(0.300094 8.6983 4.26396e-17)
(0.34371 9.54311 0)
(0.402799 10.369 0)
(0.489798 11.1659 0)
(0.606623 11.936 1.10175e-17)
(0.730878 12.676 -4.00141e-22)
(0.857891 13.4002 -8.70947e-20)
(0.928235 14.1801 -1.23794e-16)
(0.710299 19.7147 -3.13517e-16)
(-1.79848 24.2814 9.09699e-19)
(2.07154 14.7754 2.50263e-16)
(-3.86217 46.2191 0)
(-2.91695 17.5422 -1.56414e-17)
(-2.2468 16.8945 0)
(-1.82221 16.1872 0)
(-1.53522 15.4842 7.73311e-18)
(-1.3167 14.7843 -1.52705e-17)
(-1.13314 14.0828 0)
(-0.980449 13.3875 7.41852e-18)
(-0.844314 12.6856 0)
(-0.725469 11.9678 -1.8032e-18)
(-0.62192 11.2179 1.77663e-18)
(-0.534618 10.4282 -8.78952e-18)
(-0.465061 9.60325 3.49268e-21)
(-0.410426 8.75262 -3.41992e-18)
(-0.367623 7.8818 6.75108e-18)
(-0.334742 6.99079 4.98743e-18)
(-0.307983 6.07544 -4.92181e-18)
(-0.283502 5.12834 0)
(-0.257799 4.1418 -9.08059e-23)
(-0.229264 3.11089 -2.35629e-18)
(-0.199667 2.04108 0)
(-0.170347 0.924784 0)
(-0.143714 -0.225295 7.52346e-19)
(-0.112968 -1.48477 2.2235e-18)
(-0.0893221 -2.82896 -1.46171e-18)
(-0.0692028 -4.19876 1.43384e-18)
(-0.0543632 -5.64263 -2.8256e-18)
(-0.0441377 -7.15352 -6.96197e-19)
(-0.0352995 -8.74204 -5.48933e-18)
(-0.0287896 -10.4166 2.68877e-18)
(-0.0251474 -12.1732 0)
(-0.0213693 -13.9995 -5.21595e-18)
(-0.0229035 -15.7283 -2.55231e-18)
(-0.0191559 -16.567 0)
(-0.0200926 -16.1558 2.47874e-18)
(-0.0228445 -14.8517 1.40564e-20)
(-0.0255136 -13.4892 3.56718e-18)
(-0.0278663 -12.9893 3.49273e-18)
(-0.0325368 -13.7394 0)
(-0.0403736 -16.2631 -1.13173e-18)
(0.403801 24.0445 -3.07887e-16)
(-0.691862 24.2253 -6.32334e-16)
(0.234197 42.4001 1.21201e-16)
(1.0697 16.1565 -1.19951e-16)
(-3.75607 23.9928 5.7467e-16)
(0.940475 15.5769 -1.38275e-19)
(-0.0332548 -16.4036 5.6534e-19)
(-0.0125522 -13.8956 2.90112e-18)
(0.00578569 -13.0715 -2.36874e-18)
(0.0215687 -13.5127 0)
(0.0316485 -14.8377 0)
(0.0365509 -16.1421 0)
(0.0410056 -16.5706 0)
(0.0449263 -15.7523 6.43727e-19)
(0.0479517 -14.0245 -3.31567e-19)
(0.0507285 -12.1911 1.67241e-19)
(0.0529853 -10.423 -1.01767e-18)
(0.0550981 -8.73753 6.91684e-19)
(0.0581217 -7.13865 3.49539e-19)
(0.0613542 -5.62011 -5.3412e-19)
(0.0654136 -4.17408 0)
(0.070362 -2.80704 -3.77659e-22)
(0.0772277 -1.46716 -3.72075e-19)
(0.0874972 -0.228075 3.77347e-19)
(0.0997537 0.896861 7.65607e-19)
(0.11583 1.99681 -8.73579e-19)
(0.135021 3.05448 8.86363e-19)
(0.155311 4.07866 -2.40039e-18)
(0.175622 5.06284 -4.87943e-18)
(0.196507 6.00884 3.31154e-18)
(0.219748 6.9222 0)
(0.246365 7.80917 4.17989e-22)
(0.293325 8.66933 -2.10724e-17)
(0.353867 9.50794 1.77009e-17)
(0.423175 10.3215 -3.59086e-18)
(0.493075 11.111 0)
(0.580955 11.8846 -3.63322e-18)
(0.734064 12.6403 5.08083e-17)
(0.990322 13.3377 -2.84965e-17)
(0.998577 14.1481 1.1703e-16)
(0.804529 18.7651 6.3769e-16)
(-2.67108 24.966 9.77456e-19)
(-0.0190004 -10.6068 -2.82184e-19)
(-0.0224461 -10.6352 1.63632e-18)
(-0.023743 -10.653 2.68953e-19)
(-0.038155 -10.6754 0)
(-0.0382498 -10.7043 -5.4972e-19)
(-0.0228035 -10.6985 5.49882e-19)
(-0.0248715 -10.7096 -8.19894e-19)
(-0.0395461 -10.7447 -1.92517e-18)
(-0.0377312 -10.7416 2.20669e-18)
(-0.0415566 -10.7621 0)
(-0.0566288 -10.7777 -1.0929e-18)
(-0.0502085 -10.8042 3.30845e-18)
(-0.0556363 -10.8162 -2.21778e-18)
(-0.0740872 -10.8694 -1.09743e-18)
(-0.0749479 -10.9139 1.67613e-18)
(-0.0484199 -10.9314 -2.2252e-18)
(0.99521 20.3864 6.13278e-16)
(-4.74589 23.9436 -2.61824e-16)
(-4.86776 22.64 2.63861e-16)
(-4.74516 21.4138 5.23568e-16)
(-4.39365 20.1252 2.45324e-16)
(0.202017 18.1783 -7.35251e-19)
(0.791272 18.5374 1.80039e-16)
(-5.34888 15.985 0)
(1.72436 14.4763 0)
(-2.39898 17.076 0)
(-2.14603 16.5432 3.91616e-18)
(-1.86503 15.9012 -7.78559e-18)
(-1.59464 15.2427 2.44488e-20)
(-1.36332 14.5793 2.28555e-17)
(-1.17339 13.9106 -1.50389e-17)
(-1.01585 13.2393 1.02969e-20)
(-0.881144 12.5574 7.29631e-18)
(-0.764932 11.8551 -1.2617e-17)
(-0.662421 11.1196 1.79534e-18)
(-0.573828 10.3457 7.03373e-18)
(-0.501391 9.53735 -1.73376e-18)
(-0.444799 8.70139 1.70834e-18)
(-0.400686 7.84229 -5.06772e-18)
(-0.365371 6.95948 1.66391e-18)
(-0.334231 6.04817 4.92108e-18)
(-0.302729 5.10071 -3.23701e-18)
(-0.269575 4.11101 3.19291e-18)
(-0.234945 3.07768 1.18079e-18)
(-0.200524 2.00723 2.71771e-18)
(-0.167923 0.892316 -3.44331e-18)
(-0.139024 -0.258553 2.26512e-18)
(-0.108468 -1.51637 -4.08587e-18)
(-0.0861491 -2.85463 -2.93185e-18)
(-0.0696165 -4.21964 2.87975e-18)
(-0.0569906 -5.66044 1.41789e-18)
(-0.0486333 -7.16741 -1.39559e-18)
(-0.0427258 -8.75431 0)
(-0.0401791 -10.427 -2.7022e-18)
(-0.0374306 -12.1834 1.33294e-18)
(-0.0376163 -14.0067 -2.60923e-18)
(-0.0351824 -15.7337 -3.84328e-18)
(-0.0353934 -16.5675 -2.51295e-18)
(-0.0369646 -16.1497 -4.94171e-18)
(-0.036861 -14.8442 1.20791e-18)
(-0.0370439 -13.484 -1.19201e-18)
(-0.0364175 -12.9868 -2.33492e-18)
(-0.0378388 -13.738 0)
(-0.0440901 -16.27 0)
(-0.0145763 -10.5779 0)
(0.0378937 43.1959 0)
(1.00602 14.8936 -3.47621e-19)
(0.713133 17.098 6.53289e-16)
(1.02907 24.8008 3.0688e-16)
(-1.34051 25.0151 3.17241e-16)
(-0.130259 25.0061 6.22048e-16)
(0.378152 18.7235 -3.10212e-16)
(-0.99751 42.4179 -1.02337e-16)
(-1.64922 44.8492 0)
(0.590827 17.4552 -3.48231e-16)
(0.95667 16.2784 -1.39638e-16)
(1.35376 13.9809 -5.18446e-17)
(-0.00108068 17.3124 -9.09372e-16)
(8.36314 33.7939 3.27596e-16)
(2.26586 15.7744 2.50485e-16)
(1.0524 43.9098 -5.43572e-17)
(-0.0315007 -10.9674 -1.11302e-18)
(-0.0281139 -16.4178 -2.8236e-19)
(-0.00502432 -13.921 -8.69847e-19)
(0.0202388 -13.092 5.16393e-23)
(0.0425664 -13.5269 0)
(0.0573078 -14.8465 0)
(0.0661871 -16.1462 0)
(0.0711321 -16.5729 -1.58567e-19)
(0.0734603 -15.7523 -2.00393e-19)
(0.0743647 -14.0243 2.07523e-19)
(0.076684 -12.19 -1.66787e-19)
(0.078411 -10.423 4.2492e-19)
(0.0812259 -8.73739 -5.18162e-19)
(0.0837193 -7.13893 0)
(0.0864843 -5.62092 0)
(0.0895325 -4.17627 0)
(0.0932252 -2.81034 0)
(0.0980408 -1.47259 0)
(0.104867 -0.236304 0)
(0.113291 0.885168 -1.91455e-19)
(0.12618 1.98133 7.76804e-19)
(0.142694 3.0365 0)
(0.161852 4.06035 -1.99828e-18)
(0.181865 5.04539 3.65135e-18)
(0.202494 5.99178 3.29728e-18)
(0.225994 6.90327 0)
(0.257265 7.78422 1.02672e-17)
(0.291606 8.63663 -1.04272e-17)
(0.338955 9.45985 -3.50457e-18)
(0.407868 10.2551 7.12578e-18)
(0.49507 11.0208 -1.07806e-17)
(0.59967 11.7627 5.40713e-18)
(0.682666 12.4736 -1.44111e-17)
(0.694891 13.1153 3.58315e-18)
(0.68945 13.7527 1.11902e-16)
(1.07256 19.8825 3.41149e-16)
(-6.82339 26.8188 4.994e-16)
(-6.51227 28.7227 2.46955e-16)
(-0.126398 -34.0992 0)
(-0.0803875 -34.1107 -9.68802e-21)
(-0.119201 -34.1053 -5.48205e-19)
(-0.07925 -34.0656 -2.74043e-19)
(-0.073776 -34.095 -6.73268e-20)
(-0.0899158 -34.0708 6.73115e-20)
(-0.0149934 -34.0381 0)
(0.000638063 -34.0872 0)
(-0.0417553 -34.0923 8.35513e-19)
(-0.0292964 -34.0741 -2.16112e-18)
(-0.00298967 -34.0795 2.7345e-18)
(-0.0377164 -34.0973 0)
(-0.056651 -34.0818 -2.16639e-18)
(-0.0364014 -34.0619 2.1697e-18)
(-0.0870072 -34.0882 5.72691e-19)
(-0.0962714 -34.0734 5.53634e-19)
(-0.0368573 -34.0683 0)
(-0.0259437 -34.0523 0)
(-1.02087 18.2151 0)
(-6.24272 24.1344 2.54535e-16)
(-6.06642 22.7276 0)
(-5.75865 21.313 -5.17886e-16)
(-5.44356 19.8715 2.58679e-16)
(-4.67379 18.244 4.61748e-16)
(-6.08031 44.4478 -8.60415e-17)
(-2.49269 28.0127 3.02406e-16)
(-3.19029 17.0778 8.16979e-18)
(-2.70131 16.6002 -6.45363e-17)
(-2.25265 16.0548 2.76873e-17)
(-1.89348 15.5088 -3.13332e-17)
(-1.60436 14.9406 -1.3482e-17)
(-1.36631 14.3439 1.90697e-17)
(-1.17185 13.7256 3.74652e-18)
(-1.01266 13.0892 -1.85175e-17)
(-0.88337 12.4315 1.09699e-17)
(-0.772941 11.7453 0)
(-0.675295 11.0232 -8.88627e-18)
(-0.59043 10.2635 5.27913e-18)
(-0.519987 9.47033 8.66803e-18)
(-0.463539 8.64858 1.70555e-18)
(-0.418236 7.80054 -6.75762e-18)
(-0.379854 6.92412 -3.33177e-18)
(-0.344212 6.01412 0)
(-0.307705 5.06463 0)
(-0.269607 4.07265 -7.99407e-19)
(-0.231406 3.03871 -3.94248e-19)
(-0.195207 1.96953 3.8885e-18)
(-0.162597 0.857619 7.68652e-19)
(-0.134956 -0.291802 -2.64379e-18)
(-0.108501 -1.54599 5.2549e-23)
(-0.0905042 -2.87735 0)
(-0.0782811 -4.23727 0)
(-0.0702516 -5.67401 -2.85008e-18)
(-0.0649889 -7.17895 4.19434e-18)
(-0.0620018 -8.76356 -1.37695e-18)
(-0.0600398 -10.4352 -7.90712e-21)
(-0.0607592 -12.1908 1.31714e-18)
(-0.062376 -14.0142 1.30371e-18)
(-0.0620503 -15.7396 7.69392e-18)
(-0.0641616 -16.5664 0)
(-0.063095 -16.1458 3.71085e-18)
(-0.0596788 -14.8398 -3.64949e-18)
(-0.0552667 -13.481 2.38137e-18)
(-0.0482716 -12.9885 -2.3371e-18)
(-0.0441698 -13.7414 2.2934e-18)
(-0.0494926 -16.2818 0)
(-0.0195214 -10.5538 0)
(-0.184861 -34.1108 -1.1368e-18)
(1.52181 20.8102 6.04985e-16)
(1.12082 14.8824 -1.2065e-16)
(-5.58544 26.6987 -2.58231e-16)
(2.49711 23.3192 6.04531e-16)
(2.21996 24.3494 -8.86203e-19)
(1.84429 25.4264 6.18282e-16)
(1.12747 15.5781 1.33791e-16)
(-2.14504 25.698 -6.71488e-16)
(0.543233 25.7802 0)
(-0.803333 26.0129 0)
(0.627996 45.4503 -5.95941e-17)
(8.02304 25.4969 -3.12097e-16)
(-6.55187 42.8672 2.37698e-17)
(0.097771 15.9105 -5.40178e-16)
(1.41992 14.3034 -6.05982e-17)
(1.27869 19.1517 -3.76783e-16)
(0.25828 42.3969 0)
(0.0819515 42.6879 -5.30201e-17)
(1.20564 13.6886 0)
(0.857611 13.0372 1.84702e-18)
(0.655816 12.354 3.64398e-18)
(0.540777 11.6597 1.35264e-18)
(0.458007 10.939 2.23363e-19)
(0.386382 10.1897 0)
(0.328706 9.40922 4.365e-18)
(0.284811 8.59716 -4.31751e-18)
(0.248339 7.75597 1.69382e-18)
(0.222187 6.88126 -3.33698e-18)
(0.201293 5.97138 8.22719e-19)
(0.182054 5.02502 0)
(0.164028 4.04067 1.59811e-18)
(0.148536 3.01977 -7.88182e-19)
(0.137752 1.96916 7.77157e-19)
(0.131152 0.87772 -1.34131e-18)
(0.127748 -0.241178 1.53508e-18)
(0.1243 -1.47623 1.32135e-21)
(0.121736 -2.81271 -7.79416e-19)
(0.119713 -4.17791 3.62305e-19)
(0.117601 -5.62227 -4.00387e-19)
(0.115824 -7.13991 0)
(0.114438 -8.7378 1.7287e-19)
(0.11403 -10.4226 -8.51045e-20)
(0.113434 -12.1894 -3.36171e-19)
(0.113643 -14.0232 2.84776e-19)
(0.113598 -15.752 4.04257e-20)
(0.111171 -16.5746 -1.58903e-19)
(0.104912 -16.1521 0)
(0.0920166 -14.8577 0)
(0.0694494 -13.5475 -6.0297e-19)
(0.0394312 -13.1182 3.25884e-18)
(0.0146324 -13.946 -5.80275e-19)
(0.00582344 -16.422 0)
(0.0114382 -10.9663 2.20874e-18)
(0.100256 -34.0118 -2.14733e-20)
(-0.0733856 43.0201 2.76298e-16)
(-0.014987 15.8591 1.00473e-18)
(-0.0224264 15.8064 0)
(0.0423384 15.7951 -2.77637e-19)
(0.0304099 15.7023 2.98195e-19)
(-0.0348308 15.6467 6.43999e-19)
(-0.0091351 15.6825 -5.28844e-19)
(-0.0371521 15.5361 1.15356e-19)
(-0.119228 15.5674 2.30935e-19)
(-0.0491207 15.6836 1.89046e-18)
(-0.0393519 15.5698 -2.60444e-18)
(-0.11225 15.5641 -2.12353e-18)
(-0.0761779 15.5792 2.08322e-18)
(-0.0576043 15.5975 -2.3168e-19)
(-0.108374 15.504 4.63701e-19)
(-0.144592 15.5528 -2.12947e-18)
(-0.0459822 15.52 -5.06144e-19)
(-0.163854 15.3574 2.13258e-18)
(-0.0873275 15.4408 0)
(-0.0747317 15.3905 9.31738e-19)
(-0.00310554 15.4023 -4.66212e-19)
(1.61355 20.0293 3.14398e-16)
(0.997958 14.8127 -1.05679e-16)
(2.68641 22.318 -2.97946e-16)
(-1.51039 43.0374 0)
(-0.876204 42.159 0)
(-0.137182 41.784 -1.00502e-16)
(0.323964 41.9379 -2.53321e-17)
(0.919783 42.1799 -3.13976e-17)
(0.575985 42.6016 -7.60687e-17)
(0.161312 42.7458 1.04528e-16)
(-0.683368 42.7854 5.60624e-17)
(1.27818 14.9195 0)
(1.18126 42.8005 -5.41376e-17)
(7.95071 24.056 -7.49524e-19)
(11.2725 26.1504 2.81918e-16)
(9.13433 26.7158 -2.6836e-16)
(3.31114 23.7348 -3.04307e-16)
(3.07435 24.8843 0)
(2.75342 26.0438 0)
(1.30189 16.2529 2.83109e-16)
(2.11734 21.0859 5.94626e-16)
(-0.2058 44.0933 -7.58046e-17)
(-7.17003 24.6781 2.55344e-16)
(-7.164 22.7937 -2.62213e-16)
(-6.8464 21.1616 0)
(-6.34899 19.8335 -5.43115e-16)
(-5.6419 18.7666 2.71326e-16)
(-4.96334 18.2848 -3.57964e-16)