/*--------------------------------*- C++ -*----------------------------------*\
| =========                 |                                                 |
| \\      /  F ield         | OpenFOAM: The Open Source CFD Toolbox           |
|  \\    /   O peration     | Version:  2212                                  |
|   \\  /    A nd           | Website:  www.openfoam.com                      |
|    \\/     M anipulation  |                                                 |
\*---------------------------------------------------------------------------*/
FoamFile
{
    version     2.0;
    format      ascii;
    arch        "LSB;label=32;scalar=64";
    class       volScalarField;
    location    "0.376";
    object      nut;
}
// * * * * * * * * * * * * * * * * * * * * * * * * * * * * * * * * * * * * * //

dimensions      [0 2 -1 0 0 0 0];

internalField   nonuniform List<scalar> 
24240
(
0
0
0
0
0
0
0
0
0
0
0
0
0
0
0
0
0
0
0
0
0
0
0
0
0
0
0
0
0
0
0
0
0
0
0
0
0
0
0
0
0
0
0
0
0
0
0
0
0
0
0
0
0
0
0
0
0
0
0
0
0
0
0
0
0
0
0
0
0
0
0
0
0
0
0
0
0
0
0
0
0
0
0
0
0
0
0
0
0
0
0
0
0
0
0
0
0
0
0
0
0
0
0
0
0
0
0
0
0
0
0
0
0
0
0
0
0
0
0
0
0
0
0
0
0
0
0
0
0
0
0
0
0
0
0
0
0
0
0
0
0
0
0
0
0
0
0
0
0
0
0
0
0
0
0
0
0
0
0
0
0
0
0
0
0
0
0
0
0
0
0
0
0
0
0
0
0
0
0
0
0
0
0
0
0
0
0
0
0
0
0
0
0
0
0
0
0
0
0
0
0
0
0
0
0
0
0
0
0
0
0
0
0
0
0
0
0
0
0
0
0
0
0
0
0
0
0
0
0
0
0
0
0
0
0
0
0
0
0
0
0
0
0
0
0
0
0
0
0
0
0
0
0
0
0
0
0
0
0
0
0
0
0
0
0
0
0
0
0
0
0
0
0
0
0
0
0
0
0
0
0
0
0
0
0
0
0
0
0
0
0
0
0
0
0
0
0
0
0
0
0
0
0
0
0
0
0
0
0
0
0
0
0
0
0
0
0
0
0
0
0
0
0
0
0
0
0
0
0
0
0
0
0
0
0
0
0
0
0
0
0
0
0
0
0
0
0
0
0
0
0
0
0
0
0
0
0
0
0
0
0
0
0
0
0
0
0
0
0
0
0
0
0
0
0
0
0
0
0
0
0
0
0
0
0
0
0
0
0
0
0
0
0
0
0
0
0
0
0
0
0
0
0
0
0
0
0
0
0
0
0
0
0
0
0
0
0
0
0
0
0
0
0
0
0
0
0
0
0
0
0
0
0
0
0
0
0
0
0
0
0
0
0
0
0
0
0
0
0
0
0
0
0
0
0
0
0
0
0
0
0
0
0
0
0
0
0
0
0
0
0
0
0
0
0
0
0
0
0
0
0
0
0
0
0
0
0
0
0
0
0
0
0
0
0
0
0
0
0
0
0
0
0
0
0
0
0
0
0
0
0
0
0
0
0
0
0
0
0
0
0
0
0
0
0
0
0
0
0
0
0
0
0
0
0
0
0
0
0
0
0
0
0
0
0
0
0
0
0
0
0
0
0
0
0
0
0
0
0
0
0
0
0
0
0
0
0
0
0
0
0
0
0
0
0
0
0
0
0
0
0
0
0
0
0
0
0
0
0
0
0
0
0
0
0
0
0
0
0
0
0
0
0
0
0
0
0
0
0
0
0
0
0
0
0
0
0
0
0
0
0
0
0
0
0
0
0
0
0
0
0
0
0
0
0
0
0
0
0
0
0
0
0
0
0
0
0
0
0
0
0
0
0
0
0
0
0
0
0
0
0
0
0
0
0
0
0
0
0
0
0
0
0
0
0
0
0
0
0
0
0
0
0
0
0
0
0
0
0
0
0
0
0
0
0
0
0
0
0
0
0
0
0
0
0
0
0
0
0
0
0
0
0
0
0
0
0
0
0
0
0
0
0
0
0
0
0
0
0
0
0
0
0
0
0
0
0
0
0
0
0
0
0
0
0
0
0
0
0
0
0
0
0
0
0
0
0
0
0
0
0
0
0
0
0
0
0
0
0
0
0
0
0
0
0
0
0
0
0
0
0
0
0
0
0
0
0
0
0
0
0
0
0
0
0
0
0
0
0
0
0
2.21339e-07
3.41156e-07
3.40319e-07
3.40389e-07
3.40469e-07
3.4056e-07
3.40658e-07
3.40761e-07
3.40864e-07
3.40966e-07
3.41064e-07
3.41156e-07
3.41241e-07
3.41317e-07
3.41386e-07
3.41441e-07
3.42375e-07
2.22241e-07
0
0
0
1.72464e-08
2.10349e-08
2.00036e-08
2.00062e-08
2.00093e-08
2.00126e-08
2.00161e-08
2.00197e-08
2.00232e-08
2.00267e-08
2.003e-08
2.00331e-08
2.00359e-08
2.00386e-08
2.10733e-08
1.72836e-08
0
0
0
0
0
0
0
0
0
0
0
0
0
0
0
0
0
0
0
0
0
0
0
0
0
2.66639e-06
2.68775e-06
2.68778e-06
2.6878e-06
2.68783e-06
2.68786e-06
2.68789e-06
2.68791e-06
2.68794e-06
2.68797e-06
2.68799e-06
2.68801e-06
2.68802e-06
2.6667e-06
0
0
0
0
0
0
2.75002e-06
2.77438e-06
2.77443e-06
2.77448e-06
2.77454e-06
2.77459e-06
2.77464e-06
2.77469e-06
2.77474e-06
2.77479e-06
2.77483e-06
2.77486e-06
2.77488e-06
2.75058e-06
0
0
0
0
0
0
2.06556e-06
2.08395e-06
2.08382e-06
2.08367e-06
2.0835e-06
2.08333e-06
2.08316e-06
2.08298e-06
2.08281e-06
2.08264e-06
2.08249e-06
2.08235e-06
2.08223e-06
2.06363e-06
0
0
0
0
0
0
2.07132e-06
2.09063e-06
2.09051e-06
2.09037e-06
2.09022e-06
2.09006e-06
2.08989e-06
2.08973e-06
2.08957e-06
2.08942e-06
2.08928e-06
2.08914e-06
2.08903e-06
2.06952e-06
0
0
0
0
0
0
1.39509e-06
1.40808e-06
1.40792e-06
1.40774e-06
1.40755e-06
1.40734e-06
1.40713e-06
1.40692e-06
1.40672e-06
1.40652e-06
1.40633e-06
1.40616e-06
1.40601e-06
1.39277e-06
0
0
0
0
0
0
1.30052e-06
1.31246e-06
1.31228e-06
1.31209e-06
1.31188e-06
1.31166e-06
1.31144e-06
1.31122e-06
1.31101e-06
1.3108e-06
1.31061e-06
1.31043e-06
1.31027e-06
1.29808e-06
0
0
0
0
0
0
1.40589e-06
1.41855e-06
1.41831e-06
1.41805e-06
1.41777e-06
1.41747e-06
1.41716e-06
1.41686e-06
1.41656e-06
1.41627e-06
1.41601e-06
1.41576e-06
1.41555e-06
1.40254e-06
0
0
0
0
0
0
1.27583e-06
1.28705e-06
1.28676e-06
1.28644e-06
1.2861e-06
1.28574e-06
1.28537e-06
1.285e-06
1.28465e-06
1.28432e-06
1.28401e-06
1.28374e-06
1.2835e-06
1.27187e-06
0
0
0
0
0
0
2.0981e-06
2.11634e-06
2.1161e-06
2.11583e-06
2.11555e-06
2.11525e-06
2.11494e-06
2.11464e-06
2.11435e-06
2.11407e-06
2.11382e-06
2.11359e-06
2.1134e-06
2.09481e-06
0
0
0
0
0
0
2.0051e-06
2.02159e-06
2.0213e-06
2.02097e-06
2.02063e-06
2.02026e-06
2.0199e-06
2.01954e-06
2.0192e-06
2.01888e-06
2.0186e-06
2.01836e-06
2.01815e-06
2.00129e-06
0
0
0
0
0
0
3.39675e-06
3.42417e-06
3.42404e-06
3.4239e-06
3.42376e-06
3.4236e-06
3.42346e-06
3.42332e-06
3.42319e-06
3.42308e-06
3.42298e-06
3.42291e-06
3.42285e-06
3.39529e-06
0
0
0
0
0
0
3.40844e-06
3.43455e-06
3.43433e-06
3.43407e-06
3.43381e-06
3.43353e-06
3.43326e-06
3.43301e-06
3.43278e-06
3.43258e-06
3.43241e-06
3.43228e-06
3.43218e-06
3.40584e-06
0
0
0
0
0
0
5.10242e-06
5.13964e-06
5.13995e-06
5.14028e-06
5.14064e-06
5.14102e-06
5.14143e-06
5.14185e-06
5.14227e-06
5.14269e-06
5.1431e-06
5.14348e-06
5.14381e-06
5.10713e-06
0
0
0
0
0
0
5.65427e-06
5.69317e-06
5.69352e-06
5.69377e-06
5.69405e-06
5.69434e-06
5.69466e-06
5.69489e-06
5.69533e-06
5.69568e-06
5.69603e-06
5.69636e-06
5.69656e-06
5.65813e-06
0
0
0
0
0
0
1.66155e-09
1.61591e-09
1.55093e-09
1.55217e-09
1.55349e-09
1.55489e-09
1.55632e-09
1.61469e-09
1.55897e-09
1.56017e-09
1.56136e-09
1.56239e-09
1.63018e-09
1.6781e-09
0
0
0
0
0
5.2847e-08
6.20122e-08
5.85984e-08
5.85637e-08
5.85667e-08
5.85699e-08
5.85733e-08
5.85767e-08
5.86382e-08
5.85833e-08
5.85863e-08
5.85892e-08
5.85918e-08
5.86316e-08
6.20516e-08
5.28837e-08
0
0
1.64431e-07
1.98572e-06
2.54667e-06
2.54478e-06
2.54504e-06
2.54536e-06
2.54573e-06
2.54613e-06
2.54657e-06
2.54701e-06
2.54745e-06
2.54789e-06
2.54831e-06
2.5487e-06
2.54907e-06
2.54942e-06
2.54972e-06
2.55203e-06
1.98994e-06
1.64817e-07
0
1.40689e-08
6.06954e-08
6.08322e-08
6.08519e-08
6.08736e-08
6.08995e-08
6.09268e-08
6.09555e-08
6.09843e-08
6.10125e-08
6.10396e-08
6.10649e-08
6.10885e-08
6.11094e-08
6.11291e-08
6.11442e-08
6.10293e-08
1.41726e-08
0
0
0
0
0
0
0
0
0
0
0
0
0
0
0
0
0
0
0
0
0
0
0
0
0
0
0
0
0
0
0
0
0
0
0
0
0
0
0
0
0
0
0
0
2.63171e-06
2.65329e-06
2.65334e-06
2.65338e-06
2.65342e-06
2.65347e-06
2.65351e-06
2.65355e-06
2.65359e-06
2.65362e-06
2.65365e-06
2.65366e-06
2.65367e-06
2.63213e-06
0
0
0
0
0
0
2.90147e-06
2.92834e-06
2.92835e-06
2.92835e-06
2.92835e-06
2.92834e-06
2.92834e-06
2.92833e-06
2.92833e-06
2.92832e-06
2.92831e-06
2.9283e-06
2.92827e-06
2.90138e-06
0
0
0
0
0
0
2.12701e-06
2.14629e-06
2.14616e-06
2.146e-06
2.14582e-06
2.14564e-06
2.14545e-06
2.14526e-06
2.14508e-06
2.1449e-06
2.14473e-06
2.14457e-06
2.14443e-06
2.12492e-06
0
0
0
0
0
0
2.21476e-06
2.23594e-06
2.23579e-06
2.23561e-06
2.23542e-06
2.23522e-06
2.23501e-06
2.2348e-06
2.2346e-06
2.23441e-06
2.23423e-06
2.23405e-06
2.2339e-06
2.21248e-06
0
0
0
0
0
0
1.50171e-06
1.51594e-06
1.51576e-06
1.51556e-06
1.51535e-06
1.51512e-06
1.51488e-06
1.51465e-06
1.51441e-06
1.51419e-06
1.51398e-06
1.51378e-06
1.5136e-06
1.49909e-06
0
0
0
0
0
0
1.45046e-06
1.46389e-06
1.4637e-06
1.46349e-06
1.46326e-06
1.46301e-06
1.46277e-06
1.46252e-06
1.46228e-06
1.46204e-06
1.46182e-06
1.46161e-06
1.46143e-06
1.4477e-06
0
0
0
0
0
0
1.59586e-06
1.61055e-06
1.6103e-06
1.61002e-06
1.60972e-06
1.6094e-06
1.60907e-06
1.60874e-06
1.60842e-06
1.60811e-06
1.60781e-06
1.60754e-06
1.60729e-06
1.59222e-06
0
0
0
0
0
0
1.50641e-06
1.51975e-06
1.51949e-06
1.5192e-06
1.51887e-06
1.51853e-06
1.51819e-06
1.51784e-06
1.5175e-06
1.51717e-06
1.51686e-06
1.51658e-06
1.51633e-06
1.50257e-06
0
0
0
0
0
0
2.4619e-06
2.48419e-06
2.48393e-06
2.48364e-06
2.48332e-06
2.48299e-06
2.48265e-06
2.48231e-06
2.48198e-06
2.48166e-06
2.48137e-06
2.4811e-06
2.48086e-06
2.45818e-06
0
0
0
0
0
0
2.40546e-06
2.42555e-06
2.42529e-06
2.42499e-06
2.42468e-06
2.42434e-06
2.424e-06
2.42366e-06
2.42333e-06
2.42302e-06
2.42273e-06
2.42247e-06
2.42224e-06
2.40176e-06
0
0
0
0
0
0
3.98057e-06
4.01521e-06
4.01505e-06
4.01488e-06
4.0147e-06
4.0145e-06
4.01431e-06
4.01413e-06
4.01396e-06
4.0138e-06
4.01366e-06
4.01354e-06
4.01343e-06
3.9786e-06
0
0
0
0
0
0
3.88359e-06
3.91463e-06
3.91448e-06
3.91431e-06
3.91413e-06
3.91393e-06
3.91374e-06
3.91355e-06
3.91338e-06
3.91323e-06
3.91309e-06
3.91297e-06
3.91287e-06
3.88164e-06
0
0
0
0
0
0
5.68095e-06
5.72555e-06
5.72583e-06
5.72612e-06
5.72644e-06
5.72678e-06
5.72714e-06
5.72752e-06
5.72792e-06
5.72831e-06
5.7287e-06
5.72907e-06
5.72939e-06
5.68529e-06
0
0
0
0
0
0
5.69518e-06
5.73672e-06
5.73714e-06
5.7375e-06
5.73789e-06
5.7383e-06
5.73873e-06
5.73911e-06
5.73963e-06
5.74007e-06
5.7405e-06
5.74091e-06
5.74118e-06
5.7002e-06
0
0
0
0
0
0
0
0
0
0
0
0
0
0
0
0
0
0
0
0
0
0
0
0
0
1.57085e-08
2.20776e-08
2.08532e-08
2.08467e-08
2.08527e-08
2.08593e-08
2.08662e-08
2.08734e-08
2.089e-08
2.08875e-08
2.08942e-08
2.09007e-08
2.09066e-08
2.09239e-08
2.21621e-08
1.57899e-08
0
0
0
9.51279e-07
1.33893e-06
1.34086e-06
1.3411e-06
1.34138e-06
1.34172e-06
1.34209e-06
1.34248e-06
1.34289e-06
1.3433e-06
1.34371e-06
1.3441e-06
1.34449e-06
1.34484e-06
1.34519e-06
1.34548e-06
1.34395e-06
9.55151e-07
0
0
1.03647e-07
1.82137e-07
1.81969e-07
1.82008e-07
1.82053e-07
1.82105e-07
1.82161e-07
1.8222e-07
1.8228e-07
1.8234e-07
1.82398e-07
1.82453e-07
1.82505e-07
1.82552e-07
1.82594e-07
1.82627e-07
1.82849e-07
1.04047e-07
0
0
0
7.8087e-09
1.17186e-08
1.08433e-08
1.08446e-08
1.08462e-08
1.08479e-08
1.08497e-08
1.08516e-08
1.08534e-08
1.08551e-08
1.08567e-08
1.08582e-08
1.08595e-08
1.08607e-08
1.17393e-08
7.82724e-09
0
0
0
0
0
0
0
0
0
0
0
0
0
0
0
0
0
0
0
0
0
0
0
0
0
5.02033e-06
5.06366e-06
5.06368e-06
5.06368e-06
5.06368e-06
5.06367e-06
5.06367e-06
5.06365e-06
5.06364e-06
5.06362e-06
5.0636e-06
5.06358e-06
5.06354e-06
5.02019e-06
0
0
0
0
0
0
5.02259e-06
5.06929e-06
5.06928e-06
5.06924e-06
5.06919e-06
5.06914e-06
5.06909e-06
5.06904e-06
5.06899e-06
5.06893e-06
5.06888e-06
5.06883e-06
5.06877e-06
5.02199e-06
0
0
0
0
0
0
3.67664e-06
3.71152e-06
3.71139e-06
3.71122e-06
3.71105e-06
3.71085e-06
3.71066e-06
3.71045e-06
3.71026e-06
3.71006e-06
3.70987e-06
3.70969e-06
3.70952e-06
3.67438e-06
0
0
0
0
0
0
3.59773e-06
3.63254e-06
3.63237e-06
3.63218e-06
3.63197e-06
3.63174e-06
3.63152e-06
3.63128e-06
3.63105e-06
3.63082e-06
3.63061e-06
3.63041e-06
3.63023e-06
3.59514e-06
0
0
0
0
0
0
2.57598e-06
2.60101e-06
2.60081e-06
2.60058e-06
2.60033e-06
2.60006e-06
2.59978e-06
2.5995e-06
2.59922e-06
2.59895e-06
2.59868e-06
2.59843e-06
2.5982e-06
2.57282e-06
0
0
0
0
0
0
2.47503e-06
2.49815e-06
2.49792e-06
2.49766e-06
2.49739e-06
2.49709e-06
2.49679e-06
2.49649e-06
2.49619e-06
2.4959e-06
2.49561e-06
2.49535e-06
2.4951e-06
2.47161e-06
0
0
0
0
0
0
2.65512e-06
2.67988e-06
2.67961e-06
2.6793e-06
2.67896e-06
2.67861e-06
2.67824e-06
2.67786e-06
2.67749e-06
2.67713e-06
2.67678e-06
2.67644e-06
2.67614e-06
2.65093e-06
0
0
0
0
0
0
2.57134e-06
2.59495e-06
2.59467e-06
2.59435e-06
2.59401e-06
2.59365e-06
2.59327e-06
2.59288e-06
2.5925e-06
2.59212e-06
2.59177e-06
2.59142e-06
2.59111e-06
2.56703e-06
0
0
0
0
0
0
3.84818e-06
3.88307e-06
3.8828e-06
3.88248e-06
3.88214e-06
3.88177e-06
3.8814e-06
3.88102e-06
3.88064e-06
3.88027e-06
3.87992e-06
3.87959e-06
3.87929e-06
3.84393e-06
0
0
0
0
0
0
3.93553e-06
3.97056e-06
3.97029e-06
3.96998e-06
3.96965e-06
3.96929e-06
3.96893e-06
3.96855e-06
3.96818e-06
3.96782e-06
3.96747e-06
3.96714e-06
3.96684e-06
3.93136e-06
0
0
0
0
0
0
6.07424e-06
6.12781e-06
6.12765e-06
6.12745e-06
6.12725e-06
6.12703e-06
6.12682e-06
6.12659e-06
6.1264e-06
6.1262e-06
6.12602e-06
6.12585e-06
6.1257e-06
6.07187e-06
0
0
0
0
0
0
6.42022e-06
6.47518e-06
6.47505e-06
6.47488e-06
6.47471e-06
6.47452e-06
6.47433e-06
6.47414e-06
6.47396e-06
6.47378e-06
6.47362e-06
6.47346e-06
6.4733e-06
6.41809e-06
0
0
0
0
0
0
9.45318e-06
9.53105e-06
9.53133e-06
9.53159e-06
9.53189e-06
9.53221e-06
9.53257e-06
9.53294e-06
9.53334e-06
9.53374e-06
9.53414e-06
9.53453e-06
9.53486e-06
9.45748e-06
0
0
0
0
0
0
1.02685e-05
1.03506e-05
1.0351e-05
1.03514e-05
1.03519e-05
1.03524e-05
1.03529e-05
1.03534e-05
1.0354e-05
1.03545e-05
1.0355e-05
1.03555e-05
1.03559e-05
1.02744e-05
0
0
0
0
0
0
0
0
0
0
0
0
0
0
0
0
0
0
0
0
0
0
0
0
0
3.9855e-08
4.72972e-08
4.46165e-08
4.45817e-08
4.45869e-08
4.45926e-08
4.45987e-08
4.4605e-08
4.46264e-08
4.46176e-08
4.46237e-08
4.46297e-08
4.46354e-08
4.468e-08
4.73738e-08
3.99286e-08
0
0
9.22466e-08
1.48473e-06
1.97365e-06
1.97466e-06
1.9749e-06
1.97519e-06
1.97553e-06
1.97591e-06
1.97632e-06
1.97675e-06
1.97719e-06
1.97762e-06
1.97805e-06
1.97847e-06
1.97886e-06
1.97924e-06
1.97956e-06
1.97897e-06
1.48894e-06
9.28098e-08
0
8.09631e-09
4.31121e-08
4.31861e-08
4.32045e-08
4.32248e-08
4.32486e-08
4.3274e-08
4.33008e-08
4.33277e-08
4.33541e-08
4.33793e-08
4.34026e-08
4.34239e-08
4.3442e-08
4.34579e-08
4.34688e-08
4.34127e-08
8.20876e-09
0
0
0
0
0
0
0
0
0
0
0
0
0
0
0
0
0
0
0
0
0
0
0
0
0
0
0
0
0
0
0
0
0
0
0
0
0
0
0
0
0
0
0
0
4.36626e-06
4.40543e-06
4.40545e-06
4.40545e-06
4.40546e-06
4.40545e-06
4.40545e-06
4.40544e-06
4.40543e-06
4.40541e-06
4.40539e-06
4.40536e-06
4.40533e-06
4.36613e-06
0
0
0
0
0
0
4.57145e-06
4.61627e-06
4.61625e-06
4.6162e-06
4.61616e-06
4.61609e-06
4.61604e-06
4.61598e-06
4.61592e-06
4.61586e-06
4.6158e-06
4.61574e-06
4.61567e-06
4.57077e-06
0
0
0
0
0
0
3.46006e-06
3.49389e-06
3.49377e-06
3.49363e-06
3.49347e-06
3.49329e-06
3.49312e-06
3.49293e-06
3.49275e-06
3.49257e-06
3.4924e-06
3.49222e-06
3.49207e-06
3.45801e-06
0
0
0
0
0
0
3.51744e-06
3.55275e-06
3.5526e-06
3.55241e-06
3.55222e-06
3.55201e-06
3.5518e-06
3.55158e-06
3.55136e-06
3.55115e-06
3.55095e-06
3.55075e-06
3.55058e-06
3.51503e-06
0
0
0
0
0
0
2.58204e-06
2.60784e-06
2.60766e-06
2.60745e-06
2.60722e-06
2.60697e-06
2.60672e-06
2.60646e-06
2.6062e-06
2.60594e-06
2.60569e-06
2.60545e-06
2.60524e-06
2.57911e-06
0
0
0
0
0
0
2.52554e-06
2.54973e-06
2.54952e-06
2.54928e-06
2.54902e-06
2.54874e-06
2.54845e-06
2.54816e-06
2.54787e-06
2.54758e-06
2.54731e-06
2.54704e-06
2.5468e-06
2.52224e-06
0
0
0
0
0
0
2.72884e-06
2.7551e-06
2.75485e-06
2.75457e-06
2.75426e-06
2.75393e-06
2.75359e-06
2.75324e-06
2.75289e-06
2.75254e-06
2.7522e-06
2.75188e-06
2.75159e-06
2.72489e-06
0
0
0
0
0
0
2.6753e-06
2.70057e-06
2.70033e-06
2.70005e-06
2.69974e-06
2.69941e-06
2.69907e-06
2.69871e-06
2.69836e-06
2.698e-06
2.69765e-06
2.69732e-06
2.69701e-06
2.67129e-06
0
0
0
0
0
0
3.95838e-06
3.9964e-06
3.99614e-06
3.99583e-06
3.9955e-06
3.99514e-06
3.99478e-06
3.99439e-06
3.99402e-06
3.99365e-06
3.99329e-06
3.99295e-06
3.99264e-06
3.95416e-06
0
0
0
0
0
0
3.99224e-06
4.0287e-06
4.02846e-06
4.02817e-06
4.02786e-06
4.02752e-06
4.02717e-06
4.02681e-06
4.02645e-06
4.02608e-06
4.02573e-06
4.02538e-06
4.02507e-06
3.98815e-06
0
0
0
0
0
0
5.97855e-06
6.03446e-06
6.03432e-06
6.03415e-06
6.03397e-06
6.03377e-06
6.03358e-06
6.03338e-06
6.0332e-06
6.03301e-06
6.03284e-06
6.03267e-06
6.03251e-06
5.97636e-06
0
0
0
0
0
0
6.07247e-06
6.12656e-06
6.12648e-06
6.12635e-06
6.12624e-06
6.12609e-06
6.12595e-06
6.12579e-06
6.12565e-06
6.12548e-06
6.12534e-06
6.12517e-06
6.12501e-06
6.07069e-06
0
0
0
0
0
0
8.43421e-06
8.51144e-06
8.51174e-06
8.51202e-06
8.51237e-06
8.51271e-06
8.51311e-06
8.51351e-06
8.51395e-06
8.51438e-06
8.51482e-06
8.51524e-06
8.5156e-06
8.43889e-06
0
0
0
0
0
0
8.75435e-06
8.83074e-06
8.83122e-06
8.83168e-06
8.83221e-06
8.83276e-06
8.83335e-06
8.8339e-06
8.83454e-06
8.83512e-06
8.83569e-06
8.83621e-06
8.83664e-06
8.76094e-06
0
0
0
0
0
0
0
0
0
0
0
0
0
0
0
0
0
0
0
0
0
0
0
0
0
1.91451e-08
2.49036e-08
2.34749e-08
2.34757e-08
2.348e-08
2.34848e-08
2.34898e-08
2.34951e-08
2.35059e-08
2.35055e-08
2.35104e-08
2.35153e-08
2.35198e-08
2.35268e-08
2.4966e-08
1.92044e-08
0
0
0
9.29408e-07
1.29217e-06
1.29354e-06
1.29371e-06
1.29392e-06
1.29418e-06
1.29446e-06
1.29476e-06
1.29508e-06
1.29541e-06
1.29573e-06
1.29605e-06
1.29636e-06
1.29665e-06
1.29693e-06
1.29717e-06
1.29609e-06
9.32389e-07
0
0
4.15002e-08
8.7162e-08
8.68918e-08
8.6914e-08
8.69389e-08
8.69678e-08
8.69992e-08
8.70322e-08
8.70659e-08
8.70991e-08
8.71314e-08
8.71613e-08
8.71888e-08
8.72123e-08
8.72328e-08
8.72469e-08
8.7542e-08
4.17014e-08
0
0
0
2.03645e-09
6.0909e-09
5.69446e-09
5.69599e-09
5.69784e-09
5.6998e-09
5.70185e-09
5.70388e-09
5.70584e-09
5.70767e-09
5.70927e-09
5.71067e-09
5.71172e-09
5.71262e-09
6.11176e-09
2.05339e-09
0
0
0
0
0
0
0
0
0
0
0
0
0
0
0
0
0
0
0
0
0
0
0
0
0
5.4534e-06
5.50438e-06
5.50439e-06
5.50439e-06
5.50439e-06
5.50437e-06
5.50436e-06
5.50434e-06
5.50432e-06
5.50429e-06
5.50426e-06
5.50422e-06
5.50416e-06
5.45314e-06
0
0
0
0
0
0
5.4945e-06
5.54966e-06
5.54965e-06
5.5496e-06
5.54955e-06
5.54948e-06
5.54943e-06
5.54935e-06
5.5493e-06
5.54922e-06
5.54916e-06
5.54909e-06
5.54901e-06
5.49375e-06
0
0
0
0
0
0
4.09416e-06
4.1361e-06
4.136e-06
4.13586e-06
4.13571e-06
4.13554e-06
4.13537e-06
4.13519e-06
4.13501e-06
4.13483e-06
4.13466e-06
4.13449e-06
4.13435e-06
4.0922e-06
0
0
0
0
0
0
4.07194e-06
4.11402e-06
4.11389e-06
4.11373e-06
4.11356e-06
4.11337e-06
4.11318e-06
4.11298e-06
4.11278e-06
4.11259e-06
4.11241e-06
4.11223e-06
4.11209e-06
4.0698e-06
0
0
0
0
0
0
3.07082e-06
3.10254e-06
3.10236e-06
3.10215e-06
3.10193e-06
3.10168e-06
3.10143e-06
3.10117e-06
3.10091e-06
3.10065e-06
3.1004e-06
3.10016e-06
3.09994e-06
3.06789e-06
0
0
0
0
0
0
3.00445e-06
3.03404e-06
3.03383e-06
3.03359e-06
3.03334e-06
3.03307e-06
3.0328e-06
3.03251e-06
3.03222e-06
3.03193e-06
3.03166e-06
3.03139e-06
3.03114e-06
3.00118e-06
0
0
0
0
0
0
3.22507e-06
3.2568e-06
3.25657e-06
3.25631e-06
3.25603e-06
3.25573e-06
3.25542e-06
3.25509e-06
3.25477e-06
3.25443e-06
3.25412e-06
3.25381e-06
3.25354e-06
3.22141e-06
0
0
0
0
0
0
3.19731e-06
3.22853e-06
3.22831e-06
3.22806e-06
3.2278e-06
3.2275e-06
3.22719e-06
3.22686e-06
3.22654e-06
3.2262e-06
3.22588e-06
3.22556e-06
3.22528e-06
3.19365e-06
0
0
0
0
0
0
4.53169e-06
4.57638e-06
4.57615e-06
4.57588e-06
4.5756e-06
4.57529e-06
4.57497e-06
4.57464e-06
4.57432e-06
4.57398e-06
4.57367e-06
4.57337e-06
4.57312e-06
4.52805e-06
0
0
0
0
0
0
4.68007e-06
4.72504e-06
4.72483e-06
4.72457e-06
4.72431e-06
4.72401e-06
4.72371e-06
4.72337e-06
4.72305e-06
4.72271e-06
4.72239e-06
4.72207e-06
4.72178e-06
4.67641e-06
0
0
0
0
0
0
6.7741e-06
6.83948e-06
6.83935e-06
6.83917e-06
6.83901e-06
6.8388e-06
6.83861e-06
6.8384e-06
6.83821e-06
6.838e-06
6.83781e-06
6.83762e-06
6.83745e-06
6.77182e-06
0
0
0
0
0
0
7.13366e-06
7.20039e-06
7.20032e-06
7.20021e-06
7.20011e-06
7.19996e-06
7.19983e-06
7.19967e-06
7.19952e-06
7.19934e-06
7.19917e-06
7.19897e-06
7.19878e-06
7.13179e-06
0
0
0
0
0
0
9.97631e-06
1.00713e-05
1.00716e-05
1.00719e-05
1.00722e-05
1.00726e-05
1.0073e-05
1.00734e-05
1.00738e-05
1.00743e-05
1.00747e-05
1.00751e-05
1.00755e-05
9.98102e-06
0
0
0
0
0
0
1.0622e-05
1.07209e-05
1.07213e-05
1.07217e-05
1.07223e-05
1.07228e-05
1.07234e-05
1.07241e-05
1.07247e-05
1.07252e-05
1.07258e-05
1.07263e-05
1.07269e-05
1.06287e-05
0
0
0
0
0
0
0
0
0
0
0
0
0
0
0
0
0
0
0
0
0
0
0
0
0
3.20053e-08
3.87634e-08
3.65422e-08
3.65316e-08
3.65358e-08
3.65405e-08
3.65453e-08
3.65504e-08
3.65648e-08
3.65604e-08
3.65651e-08
3.65697e-08
3.65738e-08
3.65912e-08
3.88228e-08
3.20615e-08
0
0
5.02758e-08
1.14545e-06
1.54372e-06
1.54416e-06
1.54433e-06
1.54452e-06
1.54476e-06
1.54503e-06
1.54532e-06
1.54563e-06
1.54594e-06
1.54625e-06
1.54655e-06
1.54685e-06
1.54713e-06
1.54739e-06
1.5476e-06
1.54744e-06
1.14831e-06
5.05895e-08
0
0
1.03221e-08
1.03976e-08
1.04073e-08
1.04183e-08
1.04311e-08
1.0445e-08
1.04593e-08
1.04738e-08
1.04877e-08
1.05008e-08
1.05122e-08
1.05222e-08
1.05298e-08
1.05362e-08
1.05397e-08
1.04719e-08
0
0
0
0
0
0
0
0
0
0
0
0
0
0
0
0
0
0
0
0
0
0
0
0
0
0
0
0
0
0
0
0
0
0
0
0
0
0
0
0
0
0
0
0
0
5.02014e-06
5.06993e-06
5.06995e-06
5.06994e-06
5.06994e-06
5.06992e-06
5.06991e-06
5.06989e-06
5.06987e-06
5.06984e-06
5.06982e-06
5.06977e-06
5.06973e-06
5.01988e-06
0
0
0
0
0
0
5.15257e-06
5.20676e-06
5.20675e-06
5.2067e-06
5.20666e-06
5.2066e-06
5.20655e-06
5.20648e-06
5.20642e-06
5.20635e-06
5.20629e-06
5.20622e-06
5.20614e-06
5.15186e-06
0
0
0
0
0
0
4.06143e-06
4.10444e-06
4.10434e-06
4.10422e-06
4.10409e-06
4.10393e-06
4.10378e-06
4.10361e-06
4.10345e-06
4.10327e-06
4.10311e-06
4.10295e-06
4.10282e-06
4.05963e-06
0
0
0
0
0
0
4.11745e-06
4.16151e-06
4.1614e-06
4.16126e-06
4.16111e-06
4.16094e-06
4.16078e-06
4.16059e-06
4.16042e-06
4.16024e-06
4.16008e-06
4.15992e-06
4.15979e-06
4.11556e-06
0
0
0
0
0
0
3.19952e-06
3.23349e-06
3.23332e-06
3.23312e-06
3.23291e-06
3.23268e-06
3.23245e-06
3.2322e-06
3.23195e-06
3.2317e-06
3.23146e-06
3.23123e-06
3.23102e-06
3.19675e-06
0
0
0
0
0
0
3.15461e-06
3.18654e-06
3.18635e-06
3.18614e-06
3.18591e-06
3.18567e-06
3.18542e-06
3.18515e-06
3.1849e-06
3.18463e-06
3.18438e-06
3.18412e-06
3.1839e-06
3.15162e-06
0
0
0
0
0
0
3.39758e-06
3.43232e-06
3.43214e-06
3.43192e-06
3.43169e-06
3.43144e-06
3.43118e-06
3.4309e-06
3.43063e-06
3.43035e-06
3.43009e-06
3.42983e-06
3.42961e-06
3.39455e-06
0
0
0
0
0
0
3.39838e-06
3.43295e-06
3.43278e-06
3.43258e-06
3.43237e-06
3.43212e-06
3.43188e-06
3.43161e-06
3.43134e-06
3.43106e-06
3.4308e-06
3.43053e-06
3.43031e-06
3.39543e-06
0
0
0
0
0
0
4.70376e-06
4.75218e-06
4.752e-06
4.75177e-06
4.75155e-06
4.75128e-06
4.75102e-06
4.75073e-06
4.75045e-06
4.75016e-06
4.7499e-06
4.74964e-06
4.74943e-06
4.7007e-06
0
0
0
0
0
0
4.85623e-06
4.90564e-06
4.90548e-06
4.90527e-06
4.90506e-06
4.9048e-06
4.90455e-06
4.90426e-06
4.90398e-06
4.90367e-06
4.90339e-06
4.9031e-06
4.90285e-06
4.85311e-06
0
0
0
0
0
0
6.7189e-06
6.78857e-06
6.78847e-06
6.78831e-06
6.78817e-06
6.78798e-06
6.78782e-06
6.78762e-06
6.78745e-06
6.78726e-06
6.7871e-06
6.78692e-06
6.78679e-06
6.71692e-06
0
0
0
0
0
0
6.94464e-06
7.01515e-06
7.01511e-06
7.01502e-06
7.01495e-06
7.01483e-06
7.01474e-06
7.0146e-06
7.01448e-06
7.01432e-06
7.01418e-06
7.01401e-06
7.01387e-06
6.94318e-06
0
0
0
0
0
0
8.99312e-06
9.08559e-06
9.08587e-06
9.08611e-06
9.08643e-06
9.08672e-06
9.08709e-06
9.08744e-06
9.08785e-06
9.08822e-06
9.08863e-06
9.08899e-06
9.08933e-06
8.99731e-06
0
0
0
0
0
0
9.3849e-06
9.47976e-06
9.48024e-06
9.48064e-06
9.48112e-06
9.48159e-06
9.48213e-06
9.48261e-06
9.48321e-06
9.48373e-06
9.48426e-06
9.48473e-06
9.48511e-06
9.39084e-06
0
0
0
0
0
0
0
0
0
0
0
0
0
0
0
0
0
0
0
0
0
0
0
0
0
1.69285e-08
2.20517e-08
2.07509e-08
2.07446e-08
2.07481e-08
2.07518e-08
2.07557e-08
2.07598e-08
2.07677e-08
2.07675e-08
2.0771e-08
2.07743e-08
2.07771e-08
2.07874e-08
2.20966e-08
1.69702e-08
0
0
0
7.81711e-07
1.11111e-06
1.11291e-06
1.11304e-06
1.11319e-06
1.11337e-06
1.11358e-06
1.11379e-06
1.11403e-06
1.11426e-06
1.11449e-06
1.11471e-06
1.11492e-06
1.11511e-06
1.11528e-06
1.11541e-06
1.11377e-06
7.83659e-07
0
0
8.37252e-09
3.05891e-08
3.04303e-08
3.04426e-08
3.04569e-08
3.04736e-08
3.04918e-08
3.05109e-08
3.05306e-08
3.05498e-08
3.05684e-08
3.05854e-08
3.06011e-08
3.06142e-08
3.06263e-08
3.06356e-08
3.08119e-08
8.47783e-09
0
0
0
0
6.33006e-10
5.76117e-10
5.77581e-10
5.79249e-10
5.81119e-10
5.8297e-10
5.84926e-10
5.86692e-10
5.88445e-10
5.89882e-10
5.91242e-10
5.92231e-10
5.93237e-10
6.53952e-10
0
0
0
0
0
0
0
0
0
0
0
0
0
0
0
0
0
0
0
0
0
0
0
0
0
0
5.55001e-06
5.60687e-06
5.60688e-06
5.60686e-06
5.60686e-06
5.60682e-06
5.60681e-06
5.60677e-06
5.60675e-06
5.6067e-06
5.60667e-06
5.60661e-06
5.60656e-06
5.54964e-06
0
0
0
0
0
0
5.5881e-06
5.6486e-06
5.64858e-06
5.64853e-06
5.64849e-06
5.64842e-06
5.64836e-06
5.64829e-06
5.64823e-06
5.64815e-06
5.64808e-06
5.64799e-06
5.6479e-06
5.58728e-06
0
0
0
0
0
0
4.38387e-06
4.43138e-06
4.43129e-06
4.43118e-06
4.43106e-06
4.43092e-06
4.43078e-06
4.43062e-06
4.43047e-06
4.4303e-06
4.43015e-06
4.42999e-06
4.42986e-06
4.38219e-06
0
0
0
0
0
0
4.41265e-06
4.46166e-06
4.46156e-06
4.46143e-06
4.4613e-06
4.46115e-06
4.461e-06
4.46083e-06
4.46068e-06
4.46051e-06
4.46036e-06
4.46022e-06
4.46011e-06
4.41095e-06
0
0
0
0
0
0
3.51511e-06
3.55401e-06
3.55386e-06
3.55369e-06
3.5535e-06
3.55329e-06
3.55309e-06
3.55286e-06
3.55265e-06
3.55242e-06
3.55221e-06
3.552e-06
3.55182e-06
3.51264e-06
0
0
0
0
0
0
3.4651e-06
3.5014e-06
3.50125e-06
3.50107e-06
3.5009e-06
3.50069e-06
3.50049e-06
3.50027e-06
3.50007e-06
3.49984e-06
3.49964e-06
3.49943e-06
3.49926e-06
3.46266e-06
0
0
0
0
0
0
3.71449e-06
3.75363e-06
3.75349e-06
3.75332e-06
3.75315e-06
3.75295e-06
3.75276e-06
3.75254e-06
3.75234e-06
3.75212e-06
3.75193e-06
3.75173e-06
3.75158e-06
3.71222e-06
0
0
0
0
0
0
3.74373e-06
3.78316e-06
3.78304e-06
3.7829e-06
3.78275e-06
3.78257e-06
3.7824e-06
3.7822e-06
3.78201e-06
3.78179e-06
3.78161e-06
3.78142e-06
3.78127e-06
3.74165e-06
0
0
0
0
0
0
5.03191e-06
5.08673e-06
5.0866e-06
5.08643e-06
5.08625e-06
5.08604e-06
5.08583e-06
5.08559e-06
5.08537e-06
5.08513e-06
5.08491e-06
5.08469e-06
5.08451e-06
5.02946e-06
0
0
0
0
0
0
5.23671e-06
5.29373e-06
5.29362e-06
5.29346e-06
5.2933e-06
5.29309e-06
5.29289e-06
5.29265e-06
5.29242e-06
5.29216e-06
5.29192e-06
5.29167e-06
5.29145e-06
5.23416e-06
0
0
0
0
0
0
7.13114e-06
7.2082e-06
7.20812e-06
7.20799e-06
7.20788e-06
7.20773e-06
7.2076e-06
7.20743e-06
7.20729e-06
7.20712e-06
7.20698e-06
7.20682e-06
7.2067e-06
7.12948e-06
0
0
0
0
0
0
7.50163e-06
7.58166e-06
7.58165e-06
7.58158e-06
7.58154e-06
7.58146e-06
7.58139e-06
7.58128e-06
7.5812e-06
7.58107e-06
7.58096e-06
7.58082e-06
7.58072e-06
7.50056e-06
0
0
0
0
0
0
9.75828e-06
9.86438e-06
9.86461e-06
9.86481e-06
9.86508e-06
9.86532e-06
9.86564e-06
9.86592e-06
9.86627e-06
9.86657e-06
9.86691e-06
9.8672e-06
9.86748e-06
9.76175e-06
0
0
0
0
0
0
1.038e-05
1.04915e-05
1.04917e-05
1.04921e-05
1.04925e-05
1.04929e-05
1.04934e-05
1.04939e-05
1.04944e-05
1.04948e-05
1.04953e-05
1.04958e-05
1.04962e-05
1.03853e-05
0
0
0
0
0
0
0
0
0
0
0
0
0
0
0
0
0
0
0
0
0
0
0
0
0
2.74896e-08
3.35179e-08
3.15707e-08
3.15692e-08
3.15723e-08
3.15757e-08
3.15793e-08
3.1583e-08
3.15901e-08
3.15902e-08
3.15935e-08
3.15966e-08
3.15992e-08
3.16031e-08
3.35585e-08
2.75286e-08
0
0
3.79176e-08
9.72532e-07
1.32564e-06
1.32591e-06
1.32603e-06
1.32617e-06
1.32634e-06
1.32653e-06
1.32674e-06
1.32696e-06
1.32718e-06
1.32741e-06
1.32762e-06
1.32783e-06
1.32802e-06
1.32819e-06
1.32832e-06
1.32823e-06
9.74513e-07
3.81471e-08
0
0
0
0
0
0
0
6.40749e-12
1.63505e-11
2.67617e-11
3.65714e-11
4.63655e-11
5.50538e-11
6.3549e-11
7.09168e-11
7.86117e-11
8.55632e-11
9.05166e-11
0
0
0
0
0
0
0
0
0
0
0
0
0
0
0
0
0
0
0
0
0
0
0
0
0
0
0
0
0
0
0
0
0
0
0
0
0
0
0
0
0
0
0
0
0
5.40178e-06
5.45992e-06
5.45991e-06
5.45987e-06
5.45985e-06
5.45979e-06
5.45976e-06
5.4597e-06
5.45966e-06
5.4596e-06
5.45955e-06
5.45948e-06
5.45943e-06
5.4012e-06
0
0
0
0
0
0
5.49388e-06
5.55542e-06
5.55538e-06
5.5553e-06
5.55522e-06
5.55512e-06
5.55503e-06
5.55492e-06
5.55483e-06
5.55471e-06
5.55461e-06
5.5545e-06
5.55438e-06
5.49268e-06
0
0
0
0
0
0
4.47126e-06
4.52135e-06
4.52127e-06
4.52118e-06
4.52108e-06
4.52095e-06
4.52083e-06
4.52069e-06
4.52055e-06
4.5204e-06
4.52026e-06
4.52012e-06
4.52e-06
4.46976e-06
0
0
0
0
0
0
4.53996e-06
4.59161e-06
4.59153e-06
4.59142e-06
4.59131e-06
4.59118e-06
4.59105e-06
4.5909e-06
4.59076e-06
4.5906e-06
4.59047e-06
4.59033e-06
4.59023e-06
4.53844e-06
0
0
0
0
0
0
3.7008e-06
3.74349e-06
3.74337e-06
3.74322e-06
3.74306e-06
3.74289e-06
3.74272e-06
3.74252e-06
3.74234e-06
3.74215e-06
3.74198e-06
3.7418e-06
3.74165e-06
3.69873e-06
0
0
0
0
0
0
3.66361e-06
3.70351e-06
3.7034e-06
3.70327e-06
3.70315e-06
3.70299e-06
3.70285e-06
3.70269e-06
3.70254e-06
3.70237e-06
3.70223e-06
3.70208e-06
3.70196e-06
3.66186e-06
0
0
0
0
0
0
3.92978e-06
3.97318e-06
3.97309e-06
3.97297e-06
3.97286e-06
3.97271e-06
3.97258e-06
3.97241e-06
3.97227e-06
3.97209e-06
3.97196e-06
3.97181e-06
3.97171e-06
3.92815e-06
0
0
0
0
0
0
3.99625e-06
4.04044e-06
4.04036e-06
4.04027e-06
4.04017e-06
4.04005e-06
4.03993e-06
4.03978e-06
4.03965e-06
4.03949e-06
4.03936e-06
4.03922e-06
4.03913e-06
3.99482e-06
0
0
0
0
0
0
5.23212e-06
5.2912e-06
5.29111e-06
5.29098e-06
5.29086e-06
5.29069e-06
5.29054e-06
5.29034e-06
5.29017e-06
5.28996e-06
5.28978e-06
5.28959e-06
5.28943e-06
5.23015e-06
0
0
0
0
0
0
5.46126e-06
5.52307e-06
5.52299e-06
5.52288e-06
5.52277e-06
5.52262e-06
5.52247e-06
5.52228e-06
5.52211e-06
5.52189e-06
5.52171e-06
5.52149e-06
5.52132e-06
5.4593e-06
0
0
0
0
0
0
7.16903e-06
7.25142e-06
7.25139e-06
7.25132e-06
7.25127e-06
7.25117e-06
7.2511e-06
7.25097e-06
7.25088e-06
7.25075e-06
7.25065e-06
7.25051e-06
7.25041e-06
7.16789e-06
0
0
0
0
0
0
7.48996e-06
7.57594e-06
7.57597e-06
7.57596e-06
7.57597e-06
7.57593e-06
7.57592e-06
7.57586e-06
7.57582e-06
7.57574e-06
7.57569e-06
7.57561e-06
7.57555e-06
7.48952e-06
0
0
0
0
0
0
9.3189e-06
9.42753e-06
9.42773e-06
9.42789e-06
9.42811e-06
9.4283e-06
9.42855e-06
9.42876e-06
9.42904e-06
9.42926e-06
9.42951e-06
9.42971e-06
9.42989e-06
9.32152e-06
0
0
0
0
0
0
9.78803e-06
9.90139e-06
9.90179e-06
9.90209e-06
9.90245e-06
9.9028e-06
9.90321e-06
9.90357e-06
9.90403e-06
9.90442e-06
9.90484e-06
9.90521e-06
9.90551e-06
9.79258e-06
0
0
0
0
0
0
0
0
0
0
0
0
0
0
0
0
0
0
0
0
0
0
0
0
0
1.78498e-08
2.29435e-08
2.1506e-08
2.14956e-08
2.14985e-08
2.15018e-08
2.15052e-08
2.15088e-08
2.15162e-08
2.15155e-08
2.15186e-08
2.15214e-08
2.15238e-08
2.15355e-08
2.29789e-08
1.78864e-08
0
0
0
7.42711e-07
1.05693e-06
1.05862e-06
1.05872e-06
1.05884e-06
1.05898e-06
1.05914e-06
1.05932e-06
1.0595e-06
1.05968e-06
1.05986e-06
1.06003e-06
1.06019e-06
1.06033e-06
1.06046e-06
1.06055e-06
1.059e-06
7.44279e-07
0
0
0
1.62502e-09
1.57979e-09
1.58622e-09
1.5938e-09
1.60243e-09
1.61198e-09
1.62182e-09
1.63213e-09
1.64211e-09
1.65223e-09
1.66166e-09
1.67116e-09
1.67991e-09
1.68896e-09
1.69705e-09
1.75505e-09
0
0
0
0
0
0
0
0
0
0
0
0
0
0
0
0
0
0
0
0
0
0
0
0
0
0
0
0
0
0
0
0
0
0
0
0
0
0
0
0
0
0
0
0
0
5.62081e-06
5.68314e-06
5.68311e-06
5.68306e-06
5.68301e-06
5.68294e-06
5.68289e-06
5.68281e-06
5.68275e-06
5.68266e-06
5.6826e-06
5.68252e-06
5.68246e-06
5.62002e-06
0
0
0
0
0
0
5.68729e-06
5.75267e-06
5.7526e-06
5.7525e-06
5.7524e-06
5.75227e-06
5.75216e-06
5.75202e-06
5.7519e-06
5.75176e-06
5.75163e-06
5.75149e-06
5.75136e-06
5.68581e-06
0
0
0
0
0
0
4.66531e-06
4.71882e-06
4.71875e-06
4.71866e-06
4.71857e-06
4.71845e-06