/*--------------------------------*- C++ -*----------------------------------*\
| =========                 |                                                 |
| \\      /  F ield         | OpenFOAM: The Open Source CFD Toolbox           |
|  \\    /   O peration     | Version:  2212                                  |
|   \\  /    A nd           | Website:  www.openfoam.com                      |
|    \\/     M anipulation  |                                                 |
\*---------------------------------------------------------------------------*/
FoamFile
{
    version     2.0;
    format      ascii;
    arch        "LSB;label=32;scalar=64";
    class       volVectorField;
    location    "0.0002";
    object      U;
}
// * * * * * * * * * * * * * * * * * * * * * * * * * * * * * * * * * * * * * //

dimensions      [0 1 -1 0 0 0 0];

internalField   nonuniform List<vector> 
2681
(
(7.76437e-14 1.88416e-12 -6.23663e-18)
(8.58836e-13 -8.39334e-13 0)
(-5.17136e-13 -8.6407e-14 -9.32194e-18)
(-1.17961e-12 -1.2922e-14 -2.75936e-17)
(-9.00694e-13 -1.02662e-12 6.45246e-18)
(3.43627e-13 -1.73733e-13 1.58641e-17)
(1.57702e-13 -1.22239e-12 -6.86317e-18)
(7.78572e-13 -5.83629e-13 8.92384e-19)
(-1.53006e-13 2.27832e-12 1.76935e-18)
(-1.03001e-12 2.32424e-12 -4.45408e-19)
(-2.8139e-12 1.77632e-13 0)
(-1.0585e-12 7.19036e-13 -4.73158e-19)
(-7.88357e-13 3.31918e-13 -4.59415e-19)
(-1.03344e-12 5.05307e-13 0)
(-2.50948e-13 1.14176e-12 -2.09994e-18)
(5.18892e-14 1.32706e-12 3.44044e-18)
(6.8327e-14 -5.38997e-13 0)
(7.13488e-13 -7.37199e-14 -2.19898e-18)
(-6.46621e-13 4.55824e-13 9.74546e-18)
(-8.14269e-13 1.64987e-12 -1.12586e-17)
(-6.76758e-13 -5.28991e-14 -3.62513e-17)
(7.90052e-13 -4.57867e-14 2.66936e-18)
(1.75209e-12 5.15394e-13 -1.06635e-17)
(-7.47023e-13 1.69009e-13 7.18357e-18)
(1.6563e-13 2.36725e-12 -3.98554e-18)
(-1.67777e-13 -1.84525e-12 0)
(-1.42772e-12 3.24699e-13 -8.35513e-18)
(1.61931e-12 1.81464e-12 7.82855e-19)
(4.48634e-13 -3.41102e-13 3.55658e-18)
(-1.82195e-13 -7.25517e-13 4.26472e-18)
(-6.84203e-13 6.62276e-15 -2.01635e-18)
(3.665e-13 -6.17619e-13 4.18088e-18)
(5.36081e-13 -4.45428e-13 -3.64855e-18)
(4.89381e-13 -1.18519e-12 1.84846e-18)
(1.14886e-13 -2.15335e-12 0)
(1.44556e-13 1.6922e-13 -2.73701e-18)
(-6.20867e-13 -4.87688e-13 6.91295e-18)
(-6.60776e-13 -2.2178e-12 8.28481e-19)
(-6.56793e-13 -7.47243e-13 -1.65202e-18)
(2.58201e-12 -5.52316e-14 -1.67451e-18)
(1.38741e-12 -1.0355e-12 3.08326e-18)
(-2.61399e-12 -2.97533e-13 0)
(-6.28599e-13 -8.96326e-13 -8.74152e-19)
(9.03104e-13 -1.90009e-12 0)
(3.39128e-13 -1.84459e-12 0)
(-1.87306e-13 7.13384e-13 0)
(5.99298e-13 -2.02606e-12 4.51272e-19)
(2.20235e-12 1.67994e-12 -3.51658e-18)
(1.35743e-13 4.23995e-13 0)
(-2.09094e-12 1.94359e-12 -8.93646e-19)
(-2.4794e-13 1.79207e-12 -4.26421e-33)
(9.67464e-13 3.87445e-13 6.57697e-18)
(8.25066e-13 -1.18339e-12 4.91727e-19)
(-1.50577e-12 -4.8115e-13 -8.90415e-19)
(-5.91833e-13 -4.42779e-13 1.8117e-18)
(-8.32215e-13 8.59191e-13 4.58867e-19)
(1.42065e-12 -5.93207e-13 -1.37937e-18)
(-2.16636e-13 1.38023e-12 -9.29713e-19)
(-1.17573e-12 9.13758e-13 0)
(5.21487e-13 -5.14935e-13 1.77349e-18)
(-2.50675e-13 5.94473e-13 4.4476e-19)
(5.62107e-13 -1.64937e-13 0)
(9.2225e-13 -1.30831e-12 7.81661e-18)
(-1.01401e-12 8.69996e-13 9.28437e-18)
(4.59503e-14 -8.21653e-13 -1.59131e-18)
(4.00658e-15 1.7068e-12 3.47748e-33)
(3.56362e-13 1.78809e-12 0)
(1.48236e-12 -1.18676e-12 0)
(-1.8413e-12 -4.90386e-13 1.70891e-18)
(4.54941e-13 -4.30947e-13 0)
(1.29474e-12 7.63193e-13 3.52644e-18)
(-1.69761e-13 -2.40325e-13 8.0388e-19)
(-2.16105e-12 1.24396e-12 -2.89558e-18)
(1.53834e-13 8.29418e-13 -5.17507e-18)
(-3.57086e-13 -7.72983e-14 -1.55051e-18)
(9.70541e-13 -8.5379e-13 1.90438e-18)
(5.08447e-14 3.70335e-13 0)
(7.26584e-13 1.00479e-12 2.4326e-17)
(1.65543e-12 -2.35201e-13 1.56247e-17)
(5.01119e-13 -2.51308e-14 3.83391e-18)
(-4.57803e-13 2.37886e-13 -2.13534e-18)
(1.75618e-12 2.35005e-13 5.42718e-18)
(-4.74876e-13 -2.75766e-13 0)
(1.9443e-13 -9.08269e-13 3.97824e-18)
(9.43806e-13 -5.65913e-13 4.00384e-18)
(-6.33374e-13 -4.76321e-13 -3.85346e-19)
(-4.73923e-13 1.97095e-13 0)
(-2.42914e-13 -6.39547e-13 -1.91881e-18)
(-6.55693e-13 -4.99161e-13 2.76147e-18)
(-4.19456e-13 -3.28321e-13 0)
(1.00633e-13 -7.69605e-13 0)
(-3.24573e-14 -1.19902e-12 3.69384e-18)
(2.03025e-13 3.41417e-12 -3.63274e-18)
(6.82416e-13 4.0405e-13 9.33122e-19)
(2.49432e-13 -6.35398e-13 0)
(-3.24024e-12 2.4308e-12 0)
(-1.58229e-12 9.61899e-13 -9.05575e-19)
(5.40463e-13 -5.73412e-13 0)
(-6.48717e-13 1.59431e-12 0)
(8.8442e-13 3.02482e-12 1.76213e-18)
(4.41497e-13 -4.96261e-14 -2.27308e-19)
(-9.71947e-13 9.88661e-13 2.26953e-19)
(1.52221e-12 2.85649e-13 1.8181e-18)
(1.32288e-12 -1.17158e-12 1.47411e-17)
(4.86582e-13 -3.2522e-13 0)
(-2.19081e-13 2.78717e-12 -6.67742e-18)
(5.62933e-13 -1.49873e-12 0)
(4.99081e-13 8.45444e-13 -4.40218e-19)
(-1.36031e-12 6.42441e-15 -2.20034e-18)
(-4.16297e-13 3.73447e-13 -2.16971e-17)
(1.51284e-12 -2.25471e-12 1.41705e-17)
(1.23007e-14 2.60294e-13 0)
(1.51323e-12 -1.48777e-12 0)
(6.396e-13 -3.1869e-13 -6.34509e-18)
(-1.69729e-12 -8.17579e-13 1.41658e-17)
(-2.04065e-13 1.30575e-12 1.56497e-17)
(-9.11364e-13 -9.99206e-13 -1.80551e-18)
(-4.32948e-13 -2.35207e-13 3.66967e-18)
(2.49503e-13 -5.19377e-13 1.83993e-18)
(1.08529e-12 -4.87397e-13 -7.0711e-18)
(-1.08552e-13 -1.21125e-12 4.39822e-18)
(1.99805e-12 -5.40621e-13 -9.69928e-19)
(-1.32867e-12 1.0356e-12 -3.27854e-17)
(-6.12818e-13 7.73063e-13 3.58565e-18)
(1.12003e-12 -9.32461e-13 -3.76591e-18)
(-6.27725e-13 -1.05803e-12 0)
(2.62749e-13 -2.73441e-13 0)
(4.772e-13 -4.91623e-13 2.35666e-17)
(-9.12154e-13 2.34999e-12 1.57894e-19)
(-1.57808e-13 6.52813e-13 0)
(-1.2994e-13 -4.42393e-13 7.41156e-18)
(-7.80372e-13 1.20954e-12 1.02035e-17)
(-1.32695e-12 2.56392e-14 -3.31624e-18)
(-1.90892e-13 3.1059e-13 -8.52265e-19)
(-2.14007e-13 9.61274e-13 8.71649e-19)
(1.16137e-12 1.47269e-13 -4.88224e-18)
(4.0206e-13 -1.73867e-12 1.66339e-18)
(-3.08911e-13 3.48668e-13 0)
(-1.71049e-13 1.28315e-12 3.27471e-18)
(7.29196e-13 4.15186e-13 1.61841e-18)
(-1.50672e-12 -4.27018e-13 1.8628e-18)
(-1.06818e-13 -1.57181e-12 3.04417e-18)
(-1.67529e-12 6.95922e-13 7.95081e-19)
(-6.64921e-13 -1.47557e-12 -1.94356e-18)
(1.21656e-12 9.94611e-13 3.87114e-19)
(2.8008e-13 -1.14293e-12 -3.20285e-33)
(1.12892e-12 1.46479e-12 3.47191e-18)
(-4.62704e-13 1.27902e-13 9.06032e-19)
(-6.54578e-13 -7.59498e-13 7.66341e-17)
(-1.32497e-12 -1.09511e-12 -8.79557e-19)
(4.94888e-14 -1.32369e-12 0)
(-5.16311e-13 -1.28467e-12 4.373e-19)
(1.49397e-12 -1.3864e-12 3.32856e-18)
(-7.05497e-13 3.00097e-13 0)
(-2.95362e-14 6.62945e-13 -1.91055e-18)
(8.5135e-13 2.70093e-14 -3.5901e-18)
(-5.21121e-13 1.11146e-12 9.8203e-19)
(-4.13418e-13 4.16329e-13 -9.66462e-19)
(3.86824e-13 8.45677e-14 -1.93551e-18)
(1.03231e-12 1.17773e-13 1.84203e-18)
(2.88263e-13 1.03457e-13 0)
(-8.74951e-13 1.2564e-12 -9.48963e-19)
(-7.15974e-13 -2.87311e-13 0)
(-3.30312e-13 6.0745e-13 -9.14786e-19)
(-6.60079e-13 2.21319e-12 -1.77511e-18)
(-2.47809e-13 1.13278e-12 0)
(4.89695e-13 5.57602e-13 0)
(-3.77796e-13 1.79495e-12 3.44571e-18)
(-1.50426e-12 -2.64249e-13 -1.83631e-18)
(5.78179e-13 8.52484e-13 3.98384e-18)
(1.23187e-12 5.09674e-13 -1.82286e-18)
(4.16782e-13 2.8653e-13 3.67883e-18)
(-1.00316e-12 8.10973e-13 -9.14419e-19)
(-1.13437e-12 4.24895e-13 0)
(-1.60153e-12 -1.92288e-12 2.18888e-19)
(-1.37824e-12 6.05695e-13 0)
(7.07238e-13 -2.65674e-13 -3.48774e-18)
(2.55553e-12 -6.27924e-13 1.96386e-18)
(-3.51474e-13 -2.32535e-13 1.75612e-18)
(1.21536e-13 1.09021e-12 1.35066e-18)
(1.21815e-12 -2.52351e-12 4.36377e-18)
(3.43925e-13 -2.76577e-13 4.41953e-19)
(4.28434e-13 1.75668e-12 -1.8151e-18)
(3.06101e-13 1.565e-14 7.63144e-18)
(-2.28534e-14 2.72535e-12 -1.07204e-17)
(2.12206e-13 -1.27511e-12 -2.16937e-17)
(-3.481e-13 -3.10256e-13 -2.86609e-18)
(3.37835e-14 1.16286e-13 -7.62369e-18)
(-9.94485e-13 -5.58311e-13 3.98166e-18)
(1.84256e-13 1.18543e-12 7.67483e-18)
(-1.31358e-12 1.40259e-12 -1.07453e-17)
(-1.01341e-12 4.22605e-13 0)
(-2.34812e-13 -5.26326e-13 6.23862e-18)
(-2.40831e-13 1.01196e-13 -7.05558e-18)
(1.31007e-12 1.74996e-12 7.08531e-18)
(1.39112e-12 1.61392e-13 1.79797e-18)
(8.07124e-13 1.30468e-12 -2.27546e-18)
(-1.70272e-12 -2.10832e-13 3.79408e-18)
(2.81901e-13 -5.77079e-13 7.88284e-18)
(-1.71663e-12 5.14617e-13 0)
(1.10119e-14 -2.06721e-13 -1.65567e-18)
(-2.40277e-12 1.93283e-08 1.01218e-20)
(5.64361e-13 1.95713e-09 -1.34877e-20)
(-2.02218e-12 1.95717e-09 -1.09631e-19)
(-1.70497e-11 1.93435e-08 1.08817e-19)
(3.54021e-13 -3.28569e-14 -1.73556e-18)
(3.11576e-13 -1.78049e-12 -1.72732e-18)
(-7.02141e-13 -3.08085e-13 0)
(-3.62758e-13 -1.26431e-12 1.73187e-17)
(4.01965e-13 -2.17746e-12 0)
(3.6447e-13 7.00789e-13 -8.15871e-18)
(1.06776e-12 -9.23479e-13 3.50432e-18)
(7.65946e-13 3.4239e-13 -3.26734e-17)
(-5.09747e-13 1.20582e-12 2.20913e-17)
(-5.57972e-13 -5.49631e-13 -8.97649e-18)
(6.6937e-13 2.04841e-13 0)
(-1.75081e-12 -8.42985e-13 0)
(-2.52942e-14 1.82139e-14 3.67691e-17)
(-2.21298e-12 1.60775e-12 -3.58371e-18)
(2.10698e-13 -7.48322e-13 1.43438e-17)
(8.60775e-13 -1.0016e-12 -3.31904e-18)
(-2.10024e-12 -5.18668e-13 3.38133e-18)
(-9.56437e-14 -8.02342e-13 0)
(1.81809e-12 -9.41498e-13 3.34667e-18)
(-2.02981e-12 -8.38217e-13 8.38047e-19)
(-1.15179e-13 2.09799e-13 -1.68864e-18)
(1.9199e-12 -3.78482e-13 1.64493e-18)
(-1.16309e-13 7.66535e-13 6.20989e-34)
(-1.53833e-12 -3.70881e-13 0)
(7.573e-13 -7.18759e-13 -8.17005e-19)
(4.72557e-13 2.34484e-12 0)
(-1.90348e-12 9.9056e-13 -2.04823e-19)
(-9.5953e-13 1.11856e-12 -3.25759e-18)
(1.16847e-12 8.09752e-13 0)
(-4.10333e-14 1.49843e-13 -1.7338e-18)
(2.37516e-13 2.82823e-13 1.59225e-18)
(-9.82618e-13 -4.30445e-13 2.35413e-18)
(1.49183e-12 -3.5085e-13 -1.97009e-18)
(2.40476e-14 6.73964e-13 -1.56595e-18)
(-6.23567e-13 -2.50994e-12 4.08605e-19)
(-1.71286e-13 -1.27726e-12 9.96488e-19)
(3.68923e-13 9.1503e-13 -2.11293e-19)
(1.03911e-13 -1.69676e-12 0)
(-1.55848e-12 8.21388e-13 -1.68999e-18)
(1.70116e-13 -2.11705e-12 2.16078e-18)
(-4.71021e-13 -2.03017e-12 0)
(-7.61989e-13 6.61654e-11 3.37078e-21)
(1.1744e-12 6.35143e-12 -3.36795e-21)
(-1.8965e-12 5.85054e-13 -5.21503e-20)
(-1.53251e-14 -2.17304e-12 1.61299e-19)
(-7.37353e-13 -2.34921e-12 -8.05392e-20)
(1.20251e-12 1.29645e-13 -1.339e-20)
(1.46354e-12 8.9044e-13 -2.26772e-19)
(1.61798e-12 -1.62996e-12 -4.12008e-19)
(1.87157e-12 -5.14923e-13 -1.31864e-20)
(5.3458e-14 1.64429e-12 -2.09198e-19)
(-2.69342e-13 4.04888e-13 0)
(-3.18574e-13 5.70318e-13 4.13164e-19)
(-4.11147e-13 -1.00642e-13 1.42222e-18)
(1.16271e-12 -2.55333e-14 2.42579e-18)
(1.57036e-13 -5.15401e-13 -8.26431e-19)
(-1.11589e-12 1.30893e-13 4.39276e-19)
(-2.30417e-12 8.78831e-13 8.32996e-19)
(-1.99347e-12 -6.56276e-13 8.03921e-20)
(-1.41813e-13 8.59239e-13 0)
(2.33849e-12 -1.01916e-12 5.37925e-20)
(1.49639e-13 -1.74548e-12 4.98614e-35)
(3.75111e-13 6.30881e-12 5.72767e-20)
(2.18681e-13 1.16028e-12 -1.21094e-19)
(-4.75647e-14 6.54049e-11 -3.37082e-21)
(-2.82637e-13 -9.94492e-13 0)
(3.54502e-13 8.89988e-13 0)
(3.84232e-14 -1.05008e-13 1.86353e-18)
(-3.21517e-13 3.29886e-13 0)
(-1.82698e-13 -1.23097e-14 -9.55793e-19)
(-3.13009e-13 -2.05207e-14 -9.45089e-19)
(-1.53259e-13 3.16535e-13 9.62913e-19)
(4.04378e-13 -2.07298e-13 -8.42838e-19)
(1.33074e-13 -9.54938e-13 -1.84975e-18)
(-1.15254e-13 -2.74521e-13 -9.3691e-19)
(-1.23584e-12 -1.04847e-12 0)
(-4.99542e-13 9.65693e-13 1.81543e-18)
(8.6448e-13 -1.62233e-12 -1.74072e-18)
(-8.81685e-13 1.72344e-12 8.83315e-19)
(-1.29203e-13 -6.21599e-13 3.36054e-17)
(1.48516e-12 -1.80232e-12 2.35483e-18)
(1.45189e-12 -1.25463e-12 3.81333e-19)
(-1.54242e-12 1.00574e-12 0)
(-1.22283e-12 3.47023e-13 -2.75018e-17)
(2.88222e-13 1.21541e-12 -2.75729e-17)
(-5.94585e-13 -5.68995e-13 -6.16753e-18)
(1.04103e-12 3.80364e-15 1.88988e-18)
(8.62262e-13 -6.93565e-13 0)
(-4.49838e-14 9.64715e-13 -1.84047e-18)
(-2.5677e-13 1.22106e-12 -9.46732e-19)
(-2.12223e-13 8.19156e-13 -9.0627e-19)
(-5.99982e-13 -1.05832e-12 1.81499e-18)
(5.49743e-13 -9.0031e-13 2.67498e-18)
(2.17842e-13 3.79039e-13 0)
(-2.20789e-12 -3.06261e-12 1.52888e-18)
(1.08519e-12 -6.29459e-13 -8.83128e-19)
(3.49754e-13 2.5519e-13 -1.73785e-18)
(-2.40377e-12 -2.12502e-12 -1.90829e-18)
(3.16807e-13 2.57489e-12 4.36803e-19)
(-2.37906e-13 -2.4782e-12 8.71929e-19)
(2.86456e-12 9.70029e-13 4.35895e-19)
(1.98051e-12 9.57737e-13 -1.79703e-18)
(-1.07312e-13 -7.32713e-13 -1.76212e-18)
(-1.53472e-13 -3.36558e-13 -5.73368e-18)
(1.83093e-13 3.25345e-13 2.04079e-18)
(2.47513e-15 3.84593e-13 1.84479e-18)
(6.40532e-13 3.13634e-13 0)
(-9.95671e-13 7.17996e-13 0)
(1.2848e-12 -4.35308e-13 -1.61304e-17)
(-2.33461e-13 -1.18848e-12 -3.74698e-18)
(-7.56271e-13 1.76915e-12 1.401e-17)
(1.67382e-12 1.06265e-12 -1.4157e-17)
(2.09434e-13 -6.45682e-13 -7.46094e-18)
(1.0388e-12 9.3775e-14 -1.56686e-18)
(-8.39145e-13 5.10003e-14 1.40007e-17)
(-1.7567e-10 5.2789e-07 1.34969e-20)
(-3.67238e-10 5.28205e-07 0)
(6.86878e-13 -2.23304e-13 -7.2284e-18)
(-1.84313e-12 -4.25769e-13 0)
(1.33909e-12 -1.73316e-12 8.39473e-19)
(-1.5602e-13 -7.78841e-13 8.32225e-19)
(8.20443e-14 5.67094e-13 -1.53856e-17)
(-7.16443e-15 7.7799e-13 9.14941e-18)
(-1.71258e-12 5.10823e-13 2.8192e-17)
(1.76916e-13 -1.18285e-12 8.08836e-18)
(8.69689e-14 7.35358e-13 3.704e-18)
(6.5469e-13 7.832e-13 1.22784e-17)
(8.96078e-10 5.28284e-07 -5.39839e-20)
(-2.06494e-10 3.98169e-06 -1.68663e-20)
(4.47567e-09 3.98539e-06 1.07948e-19)
(-3.00929e-12 -1.54886e-12 -1.08436e-19)
(1.51943e-12 -3.35382e-14 6.95023e-19)
(2.66279e-12 6.55454e-13 -6.64216e-33)
(-1.25791e-12 -1.79093e-12 0)
(-1.51694e-12 -2.54117e-13 2.32535e-18)
(2.57063e-14 -1.3208e-12 -1.5754e-18)
(-1.18895e-12 1.52242e-13 4.9006e-18)
(3.55645e-13 3.699e-13 5.37361e-18)
(-6.07525e-13 -2.89886e-13 0)
(-8.74518e-13 -7.96637e-13 8.8426e-18)
(1.50997e-12 4.57908e-13 4.01764e-18)
(3.69967e-13 1.61119e-12 -2.31122e-17)
(-3.47224e-13 1.08204e-13 1.66117e-17)
(4.69451e-13 9.99932e-13 1.54766e-17)
(4.05024e-14 -8.04003e-13 1.38385e-17)
(2.28552e-13 4.5688e-13 -1.55854e-17)
(-4.86917e-13 -1.09707e-13 -1.37308e-18)
(-1.95188e-13 1.24021e-13 -1.85092e-18)
(9.95594e-14 -4.38424e-13 1.85375e-18)
(1.75715e-13 5.14495e-13 1.22295e-32)
(3.68521e-13 -6.06183e-13 7.21475e-18)
(5.53208e-13 -4.09854e-14 3.46094e-18)
(1.64501e-12 1.73342e-12 -1.72012e-18)
(-9.05263e-14 1.17614e-12 3.42103e-18)
(2.48348e-12 -2.37792e-12 3.5222e-18)
(8.09011e-13 2.06317e-12 -1.63913e-18)
(-2.00426e-12 -2.29982e-12 -3.58823e-18)
(-7.06642e-13 -4.82777e-13 -1.64438e-18)
(-2.1189e-13 -2.12714e-13 1.54808e-18)
(6.84936e-13 -2.43994e-13 0)
(-8.54716e-13 -1.93091e-12 1.66612e-18)
(4.21649e-13 -1.78954e-13 -8.34e-19)
(-1.2585e-13 -9.44204e-13 0)
(-4.03267e-13 -6.6414e-13 8.26908e-19)
(8.33284e-13 -3.06945e-13 1.24413e-18)
(1.25809e-12 -9.52284e-13 -4.08229e-19)
(5.52488e-14 -8.39562e-13 -2.45352e-18)
(3.0909e-13 1.15669e-12 -3.33638e-18)
(1.0015e-12 -8.3234e-13 2.85738e-18)
(-8.95939e-13 -1.30157e-13 3.24269e-18)
(-7.43714e-13 2.56027e-14 -3.24775e-18)
(-1.66809e-12 1.0055e-12 2.48597e-18)
(-1.9953e-12 -6.06795e-14 -8.67612e-18)
(6.32586e-13 -1.36361e-12 -3.29593e-17)
(2.33599e-13 -5.48323e-13 -3.02155e-18)
(-3.47045e-13 9.63723e-13 2.15948e-18)
(-7.45133e-13 -5.22405e-13 -3.15665e-18)
(7.24945e-14 1.12887e-12 3.88953e-18)
(-6.14202e-13 2.99395e-13 0)
(-1.58476e-13 1.2996e-12 1.55213e-18)
(-5.89605e-13 -1.80624e-12 4.08217e-19)
(-1.0428e-12 5.03378e-13 -2.00548e-19)
(1.20902e-12 -9.02846e-14 8.29096e-19)
(1.8972e-12 -3.23109e-13 0)
(-1.5249e-12 1.46691e-12 -5.41064e-20)
(-3.8902e-13 1.11472e-14 -8.42951e-19)
(2.29862e-12 -5.29322e-13 1.79215e-18)
(-4.18854e-13 2.06758e-12 -2.18689e-18)
(3.36501e-13 -7.90711e-13 1.3565e-18)
(2.45868e-12 1.95701e-09 0)
(1.81987e-11 1.93381e-08 -5.73415e-20)
(-2.40053e-12 5.04469e-12 0)
(-1.57163e-12 6.54823e-11 0)
(-1.50011e-12 2.49646e-13 1.67981e-21)
(-3.04341e-12 -3.03011e-13 -1.68257e-21)
(8.92784e-13 1.50295e-12 -5.35934e-20)
(-1.15889e-12 -5.6009e-13 1.175e-20)
(9.01676e-13 5.41649e-13 0)
(-2.46369e-13 1.20734e-12 4.81096e-19)
(1.18917e-12 -5.72374e-13 -8.46997e-19)
(-9.07539e-10 5.28956e-07 -1.07979e-19)
(-5.47547e-09 3.98959e-06 -1.07987e-19)
(-1.18067e-09 3.9837e-06 3.03687e-20)
(-2.8771e-13 3.51829e-14 8.34359e-18)
(2.3585e-13 -1.54998e-12 5.26365e-18)
(6.7431e-14 -2.67395e-13 1.38802e-17)
(7.28579e-13 1.4144e-12 -3.69723e-18)
(-3.22923e-13 1.85746e-13 -3.20325e-18)
(2.07178e-12 -7.88808e-13 -8.42093e-19)
(-4.34728e-13 -4.98205e-13 0)
(-1.69198e-12 6.39426e-13 -4.26123e-19)
(-3.95175e-13 -1.32259e-12 -4.24262e-19)
(-1.071e-12 3.6876e-13 -1.60738e-19)
(-1.09279e-12 -1.58487e-13 -5.35031e-20)
(8.49093e-13 -1.98724e-12 -8.07033e-20)
(-1.51112e-13 2.06919e-12 1.60966e-19)
(-1.17647e-12 6.11436e-12 -6.73588e-21)
(-2.31517e-13 -1.49371e-12 6.7276e-20)
(-3.48442e-12 1.96163e-09 5.56567e-20)
(-1.78296e-12 6.60195e-11 -5.05646e-20)
(-2.36647e-11 1.93748e-08 1.07127e-19)
(9.94314e-14 -2.01396e-13 -9.09805e-19)
(-1.81583e-13 6.78709e-14 1.8017e-18)
(4.34045e-13 -7.44252e-13 -4.64191e-19)
(-2.87314e-13 1.26449e-13 -9.13793e-19)
(-4.28986e-13 1.8598e-13 4.70069e-19)
(-3.28243e-13 -4.85096e-13 -2.33989e-19)
(4.65451e-13 9.4078e-14 -9.25594e-19)
(5.15868e-13 -5.12794e-13 8.48459e-19)
(-8.0808e-13 -7.86443e-13 -9.18757e-19)
(2.94731e-13 -1.11857e-12 0)
(-1.25764e-12 -1.99916e-12 0)
(-4.32161e-13 2.72641e-13 0)
(2.99125e-12 -2.56063e-12 -1.08331e-18)
(3.26252e-13 -3.29207e-13 2.19564e-19)
(-9.89313e-13 -1.00807e-13 -1.66703e-18)
(-5.66723e-13 -2.48603e-14 1.90989e-33)
(-1.88587e-13 3.34761e-14 -5.14305e-18)
(8.59705e-13 -5.25652e-13 2.89992e-18)
(9.22491e-13 -5.45828e-14 -1.87441e-18)
(-1.21817e-12 -1.03839e-12 1.7897e-18)
(-4.97305e-13 -1.25971e-12 0)
(-1.2595e-12 8.91783e-13 1.32705e-17)
(2.94683e-13 -2.98674e-12 -2.43334e-18)
(7.75864e-13 3.26895e-13 8.48782e-18)
(-5.49774e-13 -1.03981e-12 9.86529e-19)
(-4.31151e-13 1.64992e-12 3.56599e-18)
(-5.55338e-13 -2.46455e-13 1.22183e-17)
(-5.40362e-13 5.98596e-14 3.69284e-18)
(8.916e-13 -7.78252e-13 -5.01649e-18)
(2.84064e-13 2.96832e-13 3.79077e-19)
(-1.24652e-12 -4.63494e-14 4.50414e-18)
(1.4073e-13 -1.15246e-12 3.52124e-18)
(7.0751e-13 1.22662e-12 -9.02093e-19)
(-2.15649e-13 -1.78842e-13 -2.7298e-18)
(-1.69054e-13 -1.15419e-12 8.94415e-19)
(6.77864e-13 -4.32896e-13 1.79963e-18)
(1.47807e-14 -8.2847e-13 -1.32326e-18)
(5.68465e-13 1.2025e-12 2.22401e-18)
(1.57127e-13 2.23835e-12 0)
(8.53587e-13 2.03991e-12 -1.31699e-18)
(8.4293e-13 1.82775e-13 0)
(-7.33116e-13 9.59049e-14 -5.44451e-20)
(-3.08974e-12 -2.26926e-12 -1.08671e-18)
(-2.67802e-12 -2.49622e-12 8.68652e-19)
(2.70026e-12 5.64491e-14 4.33423e-19)
(-3.67708e-13 1.32594e-12 -5.59425e-20)
(-5.13373e-13 1.26309e-12 2.46685e-19)
(-1.51319e-13 5.13522e-14 1.60385e-18)
(-7.34566e-14 -4.46144e-13 -1.5516e-18)
(3.0332e-13 -1.46428e-13 0)
(-8.63413e-13 6.11497e-13 -3.37036e-17)
(-4.65608e-13 -1.75818e-12 -3.57594e-17)
(-1.93061e-13 2.06365e-13 -4.89788e-33)
(-5.74228e-13 -7.87915e-13 7.53443e-18)
(-3.27191e-13 4.99009e-13 1.446e-17)
(6.21645e-13 -1.82512e-12 0)
(8.28182e-13 4.63035e-14 -2.29489e-17)
(-4.19128e-13 -4.25621e-14 -1.10385e-18)
(-8.73569e-13 5.66342e-14 -8.01533e-17)
(6.61606e-13 -2.02582e-13 -7.58769e-18)
(-1.40888e-12 7.05962e-13 -1.43941e-17)
(1.1583e-09 5.29487e-07 1.07919e-19)
(8.09685e-09 3.99668e-06 3.37287e-21)
(-3.71379e-13 2.20643e-13 -4.42724e-18)
(-3.44341e-13 2.79828e-13 1.83918e-17)
(-9.13281e-14 3.2638e-13 2.95858e-17)
(-3.14987e-13 -1.26742e-12 -1.78257e-32)
(-6.07073e-13 -1.06759e-12 0)
(-6.59506e-13 -4.84148e-13 2.47539e-18)
(3.01583e-13 -2.97501e-15 -2.26958e-18)
(-1.73781e-13 -5.20532e-13 -1.02899e-33)
(4.44063e-14 -1.54469e-13 -1.18801e-17)
(2.08499e-13 1.67681e-13 1.40063e-17)
(2.35266e-12 -1.20671e-12 1.39258e-17)
(7.60959e-14 -5.78714e-13 1.71874e-17)
(-1.51692e-12 4.72307e-13 0)
(-1.96823e-12 3.80832e-13 -1.6921e-18)
(3.76018e-13 -9.76737e-13 -3.13062e-34)
(8.69954e-13 1.65725e-12 1.50505e-17)
(9.91229e-13 4.75027e-13 6.43603e-18)
(-9.61561e-14 7.56248e-13 1.43144e-17)
(3.62439e-13 -1.85745e-13 -1.60894e-17)
(-6.66691e-13 -3.80072e-13 0)
(2.61127e-13 9.59511e-13 0)
(5.51424e-13 -1.57339e-12 0)
(1.42822e-12 2.55816e-12 4.24363e-17)
(-1.07333e-09 5.30141e-07 3.37332e-21)
(-7.61056e-09 4.00076e-06 6.74671e-21)
(6.80609e-13 1.61635e-13 1.71833e-17)
(6.79009e-13 6.40609e-13 -6.21859e-18)
(6.32203e-13 -4.58621e-13 -9.94895e-33)
(1.19923e-13 -9.3577e-13 -1.43255e-17)
(2.87779e-13 1.08281e-12 0)
(-4.69609e-13 -2.15523e-14 -1.92641e-18)
(-1.96187e-12 1.78633e-12 0)
(-1.03361e-12 7.24539e-13 0)
(-9.71417e-13 8.6768e-13 3.66984e-18)
(-1.15975e-12 -1.06945e-13 1.36005e-33)
(8.41365e-13 1.39575e-12 1.45059e-17)
(-9.87287e-14 3.45002e-13 0)
(-6.71831e-13 3.31047e-13 -3.25736e-17)
(-4.91412e-13 -1.69849e-13 -4.86345e-18)
(-9.1723e-13 1.38183e-12 5.83447e-17)
(6.52666e-14 8.6508e-13 3.0719e-17)
(2.55697e-13 -4.38645e-13 2.06124e-17)
(-1.20189e-12 2.7125e-14 -7.3586e-18)
(1.01496e-12 -3.62537e-14 0)
(1.72711e-12 -6.7473e-13 -8.03841e-33)
(-8.32338e-13 -1.28898e-12 -2.60983e-18)
(4.38967e-12 6.77054e-13 -1.75973e-18)
(4.69962e-12 1.08697e-12 1.35593e-20)
(3.38838e-13 2.73657e-13 0)
(-4.90822e-13 9.43951e-13 1.80691e-18)
(3.70456e-13 1.59394e-13 0)
(-1.04752e-13 -8.99707e-13 -3.91619e-18)
(-2.81443e-13 -5.36461e-13 0)
(4.27367e-13 -2.00208e-13 -1.07352e-32)
(-2.54654e-13 -1.113e-12 -1.03948e-18)
(-9.79425e-13 8.47149e-14 0)
(-1.42692e-12 3.50086e-13 -7.70079e-18)
(1.10687e-12 1.57959e-13 4.47064e-19)
(1.66724e-12 1.2082e-12 -4.44602e-19)
(-1.59753e-12 1.47269e-12 -8.34977e-19)
(1.62865e-14 1.32898e-12 4.17713e-19)
(1.59213e-12 -1.67888e-13 0)
(-6.25367e-13 -6.56535e-13 1.07609e-33)
(-1.61483e-12 9.55399e-13 2.45952e-18)
(4.20842e-13 2.61282e-13 4.11663e-19)
(1.25621e-12 -1.39578e-12 -5.15711e-20)
(2.10578e-14 -1.16153e-12 -1.23229e-18)
(-8.40194e-14 -9.22102e-13 -3.20126e-18)
(2.08201e-13 -2.98511e-12 0)
(3.52181e-13 2.63372e-12 4.44563e-18)
(1.62623e-13 2.05321e-13 2.36138e-18)
(-9.04414e-13 1.05763e-12 -1.20058e-17)
(8.3336e-13 -5.43958e-13 5.62262e-18)
(-2.51314e-12 4.61051e-13 -1.15529e-17)
(-3.60348e-13 -1.58671e-12 0)
(8.26612e-13 -9.02998e-13 -5.13749e-18)
(4.46236e-13 2.80375e-13 1.5254e-18)
(-8.7942e-13 -2.14715e-12 0)
(7.82814e-13 1.04e-12 -7.87568e-19)
(7.82025e-13 2.34522e-13 0)
(-1.26539e-12 2.6245e-13 0)
(-2.07483e-12 6.11314e-13 0)
(4.93594e-13 -9.84769e-13 1.64972e-18)
(1.60785e-12 8.54047e-13 -1.63465e-18)
(2.97031e-13 -3.04932e-13 8.57726e-19)
(1.63523e-12 6.89639e-13 4.15845e-19)
(-1.4543e-12 4.883e-14 -8.86118e-19)
(-2.24464e-12 1.498e-12 -2.17059e-18)
(1.25629e-12 1.25069e-13 1.78946e-18)
(1.20367e-12 1.95908e-09 -4.71885e-20)
(3.15698e-11 1.93783e-08 -1.01155e-19)
(-1.02305e-12 4.78957e-12 5.38617e-20)
(1.49571e-12 6.29932e-11 6.73658e-20)
(-1.89724e-12 -1.64888e-13 0)
(-5.91014e-13 1.44874e-12 -5.38218e-20)
(6.35337e-13 1.10619e-12 -1.07306e-19)
(4.58329e-13 -3.8108e-14 -6.71651e-21)
(-2.51071e-12 -1.39758e-13 -4.26531e-19)
(-9.6253e-13 9.92391e-13 -2.14155e-19)
(-2.67693e-12 -3.14616e-14 1.27652e-18)
(5.79441e-08 9.61115e-05 0)
(-1.29664e-07 9.6257e-05 1.01122e-19)
(-9.14954e-08 9.61338e-05 -7.41662e-20)
(6.41403e-13 4.27928e-13 -7.87514e-18)
(2.08601e-07 9.64497e-05 -6.74204e-21)
(1.361e-07 9.62102e-05 6.74011e-21)
(5.78727e-13 -3.47493e-13 0)
(5.31409e-13 3.34539e-13 9.97114e-18)
(-5.72593e-13 2.4194e-13 -3.54312e-18)
(-1.09784e-12 -4.09357e-13 8.71087e-18)
(-1.18724e-12 -8.31227e-14 -2.95171e-18)
(-3.59648e-13 3.29221e-13 4.22958e-18)
(6.66688e-13 4.51446e-13 4.24281e-19)
(-1.42515e-13 5.44336e-13 4.22858e-19)
(-1.22235e-13 -6.12044e-13 -4.26775e-19)
(-1.98148e-13 -2.75025e-12 1.66222e-33)
(-3.22112e-13 4.76166e-13 -2.14149e-19)
(6.8379e-13 1.43579e-12 8.55755e-19)
(-4.76152e-13 -1.11503e-12 -2.69106e-20)
(9.55077e-13 9.802e-14 -2.68648e-20)
(1.65019e-12 4.92533e-12 -4.71345e-20)
(1.75213e-12 -9.95195e-13 5.38465e-20)
(-1.8407e-12 1.96586e-09 5.39454e-20)
(1.62852e-12 6.63013e-11 2.35973e-20)
(-2.69625e-11 1.94165e-08 -5.39782e-20)
(-9.18994e-13 -5.84513e-13 1.35075e-17)
(-3.08333e-13 -7.66201e-13 7.76088e-18)
(-9.73291e-13 -3.89073e-14 -2.36618e-17)
(2.11706e-13 3.61901e-13 -1.03494e-18)
(3.8875e-13 -5.94273e-13 -3.34285e-18)
(-1.53353e-13 1.9846e-13 -4.07142e-19)
(9.3201e-14 -1.06995e-13 1.42158e-18)
(6.44444e-13 3.79131e-13 2.31782e-19)
(2.29368e-13 -1.60057e-13 -5.76693e-20)
(-1.68297e-13 -5.63504e-13 2.453e-19)
(-1.36891e-12 2.64841e-13 -5.99587e-34)
(3.72134e-13 6.50391e-13 -2.29097e-19)
(5.66695e-13 -4.19421e-14 -2.87202e-20)
(-1.22685e-12 5.52582e-13 1.35713e-18)
(6.77384e-13 9.75774e-13 4.56659e-19)
(-6.412e-13 8.12455e-13 4.41118e-19)
(8.27222e-13 -1.16215e-12 -1.16515e-33)
(5.35475e-13 1.27119e-12 1.08382e-18)
(-3.44249e-13 -1.49611e-12 -1.31579e-18)
(8.12758e-13 4.48771e-13 2.11294e-19)
(-1.06036e-12 2.15147e-12 -1.50827e-18)
(6.68078e-13 2.21714e-12 -5.97533e-18)
(1.24461e-12 -2.31443e-13 1.27189e-18)
(-1.96482e-12 -7.17394e-13 -1.74568e-18)
(-1.10845e-13 -3.45658e-13 3.47327e-18)
(1.93951e-13 2.03983e-13 0)
(1.46991e-12 -2.27796e-12 -1.72822e-18)
(-2.11934e-12 -2.57441e-12 1.73893e-18)
(5.9206e-13 -2.5444e-12 0)
(-5.40029e-13 -1.50589e-12 -4.24808e-19)
(-4.88862e-13 2.26751e-12 0)
(-5.72616e-13 2.90031e-12 8.70368e-19)
(-1.01653e-12 4.59482e-13 0)
(-1.32961e-14 -1.31642e-12 -1.12993e-19)
(2.09026e-12 1.36652e-12 8.92454e-19)
(5.75385e-13 -1.52474e-12 0)
(1.06989e-12 9.06135e-13 1.10272e-19)
(1.15507e-12 -9.63424e-13 2.54906e-18)
(-1.26173e-12 -5.07931e-13 -4.32678e-19)
(-2.05196e-13 4.59039e-13 3.76962e-33)
(-2.91577e-13 -1.0363e-12 1.65857e-18)
(7.77277e-14 -1.32675e-14 -8.80476e-19)
(3.57863e-13 2.37886e-13 0)
(2.49856e-13 -2.30138e-12 8.93183e-19)
(-1.64558e-12 -1.40551e-12 -1.78696e-18)
(-1.8247e-12 1.0711e-13 4.42013e-19)
(1.78936e-12 -1.06149e-12 4.45073e-19)
(-3.53446e-13 1.96673e-12 -2.19168e-18)
(-1.81864e-13 5.38938e-13 1.32292e-18)
(-2.20043e-13 1.52317e-12 -8.70377e-19)
(-2.05263e-12 1.26029e-13 1.31187e-18)
(3.04196e-12 1.85798e-12 0)
(-3.87969e-13 4.52985e-13 0)
(-2.34286e-12 -2.06004e-12 1.95201e-18)
(2.38129e-12 2.52399e-12 -6.50292e-19)
(2.12299e-12 6.02188e-13 -1.5876e-33)
(-1.10998e-13 -3.5691e-12 -8.65279e-19)
(-1.69782e-12 -1.69661e-12 -3.06261e-18)
(5.05304e-13 -5.5059e-13 3.36003e-18)
(-6.51889e-13 1.35877e-12 2.48842e-18)
(2.86867e-13 -6.85641e-13 4.64214e-18)
(-4.63906e-14 -2.06326e-12 2.1801e-19)
(-1.75497e-13 -2.80401e-12 -1.2292e-18)
(-1.39027e-12 1.56499e-12 -1.11636e-19)
(1.58451e-12 1.87577e-12 1.20674e-18)
(-4.51364e-13 1.16829e-13 -2.2804e-19)
(2.2058e-13 5.88824e-13 1.8e-18)
(9.24965e-14 1.13979e-13 0)
(4.79822e-13 2.68931e-13 2.29713e-19)
(7.6493e-14 9.30397e-14 1.6816e-18)
(5.33612e-14 -7.5422e-14 -1.73687e-18)
(-4.28646e-13 -4.92921e-13 -1.63939e-17)
(1.46538e-12 9.11197e-13 -1.34505e-17)
(7.66472e-13 4.04396e-13 -3.14329e-18)
(1.31863e-12 5.23284e-13 2.91566e-17)
(-1.90166e-13 -3.4186e-13 -1.67651e-18)
(-2.17956e-12 -1.81208e-12 3.05806e-17)
(-2.4602e-13 2.80786e-13 -1.66933e-17)
(-1.47095e-13 -8.24598e-13 4.18137e-33)
(3.34261e-14 -1.45456e-12 2.2188e-17)
(-3.91578e-13 -2.24723e-13 -2.32554e-17)
(5.64988e-13 -9.25121e-14 7.46873e-18)
(2.05182e-13 3.62862e-13 -7.42332e-18)
(2.45661e-12 3.3947e-13 -1.70211e-18)
(-2.51611e-13 -7.9395e-13 -3.18663e-33)
(6.88373e-13 1.47928e-14 3.13033e-17)
(-9.18419e-13 -1.2476e-12 0)
(-1.05908e-12 1.32255e-12 -4.61888e-17)
(-3.7449e-13 -8.95493e-13 -1.20704e-17)
(1.85045e-14 -5.99821e-13 -2.72247e-18)
(-6.81986e-13 1.24352e-12 -1.42246e-17)
(1.45302e-13 4.42051e-13 -5.10404e-17)
(7.80665e-13 -1.87013e-12 8.19499e-19)
(-4.02387e-13 -2.29936e-13 5.88948e-18)
(-2.16319e-07 9.64989e-05 -1.07901e-19)
(-2.80219e-14 8.5648e-13 8.68178e-18)
(-4.78259e-13 -5.55806e-13 -6.67183e-33)
(1.35916e-12 7.96101e-13 1.91244e-18)
(1.38048e-12 5.71463e-14 2.89496e-33)
(7.51085e-13 1.6947e-12 9.79388e-18)
(2.34441e-13 8.1148e-13 3.90504e-17)
(8.01095e-14 1.05156e-12 -3.14067e-17)
(-1.07663e-12 -8.57308e-13 0)
(7.15914e-13 -2.70486e-13 7.64849e-18)
(-1.13414e-12 1.43769e-12 -2.20354e-19)
(-4.91113e-13 -7.30068e-13 0)
(8.84495e-13 2.7504e-13 2.71648e-33)
(-2.53324e-13 1.5693e-12 -2.52093e-17)
(3.5367e-14 -1.38853e-12 -1.66128e-17)
(-3.07795e-13 8.85953e-15 -1.44768e-18)
(2.43259e-13 -1.3729e-13 4.83039e-19)
(8.57246e-13 1.09601e-12 1.57958e-18)
(1.4097e-12 -9.46492e-13 8.48934e-18)
(1.23883e-12 -8.47843e-13 -2.01907e-17)
(1.48856e-12 -1.90849e-13 4.94727e-17)
(-3.48049e-13 -7.43135e-13 0)
(-1.75641e-13 1.33608e-12 1.92594e-17)
(5.29696e-13 1.85575e-13 -4.14204e-17)
(8.46191e-13 -1.95434e-12 -1.265e-17)
(-3.13919e-13 3.34193e-13 -3.1837e-17)
(-4.00926e-13 3.03983e-13 3.96234e-32)
(-1.52156e-13 1.1725e-12 -4.8309e-17)
(-4.4431e-13 3.31235e-13 1.8286e-18)
(3.7321e-13 8.16429e-13 -7.10255e-18)
(4.21177e-13 -1.18635e-12 -9.73863e-18)
(-2.51073e-13 -6.68527e-13 2.32585e-19)
(8.11299e-14 -2.47899e-13 -8.689e-19)
(-4.81932e-13 8.64828e-13 6.97386e-19)
(5.05401e-07 0.000531369 0)
(2.57192e-07 9.67642e-05 1.07884e-19)
(7.47311e-07 0.000533165 0)
(-1.24797e-12 -2.51355e-13 6.64211e-18)
(1.69446e-13 -8.17673e-13 8.55523e-19)
(-1.21374e-12 -1.26095e-13 -7.03108e-32)
(-2.14318e-13 -2.57505e-13 -1.49208e-17)
(6.17421e-13 7.25897e-13 -1.08508e-17)
(2.46149e-12 -8.11089e-13 -3.49784e-18)
(4.18039e-13 2.01391e-12 2.26303e-18)
(-2.17731e-13 -3.83859e-14 7.35438e-18)
(2.1833e-12 -5.13149e-13 2.12522e-18)
(5.49306e-13 -5.3618e-13 -1.50014e-17)
(-9.21124e-13 4.25613e-13 0)
(7.21807e-13 1.15266e-13 3.59531e-18)
(-7.37777e-13 -1.11536e-12 -1.84825e-18)
(-8.8243e-13 -3.52184e-12 1.52851e-18)
(5.50058e-13 -7.91364e-13 0)
(3.71148e-13 2.66532e-12 6.22611e-33)
(5.05623e-13 -5.13313e-13 -6.55338e-19)
(7.34789e-13 3.19542e-13 0)
(3.20953e-13 1.79985e-12 -8.96792e-19)
(7.57882e-14 8.12935e-13 -9.48064e-19)
(-6.16955e-13 1.6122e-14 9.68816e-19)
(3.9952e-13 -2.89442e-13 7.23986e-18)
(3.68888e-13 1.23681e-13 0)
(1.86883e-13 3.18602e-12 2.50257e-33)
(7.86938e-13 -7.29862e-13 -8.49352e-19)
(4.83893e-13 5.81184e-13 -2.64504e-20)
(-5.04323e-13 8.01504e-13 4.36155e-19)
(-1.4022e-12 -1.04901e-12 2.0928e-19)
(1.10631e-12 1.21787e-13 4.33829e-19)
(3.40926e-13 3.61555e-13 2.07402e-19)
(-8.94929e-13 7.33696e-13 -1.45394e-18)
(1.58762e-13 4.94548e-13 -2.4656e-18)