/*--------------------------------*- C++ -*----------------------------------*\
| =========                 |                                                 |
| \\      /  F ield         | OpenFOAM: The Open Source CFD Toolbox           |
|  \\    /   O peration     | Version:  2212                                  |
|   \\  /    A nd           | Website:  www.openfoam.com                      |
|    \\/     M anipulation  |                                                 |
\*---------------------------------------------------------------------------*/
FoamFile
{
    version     2.0;
    format      ascii;
    arch        "LSB;label=32;scalar=64";
    class       volVectorField;
    location    "0.0014";
    object      U;
}
// * * * * * * * * * * * * * * * * * * * * * * * * * * * * * * * * * * * * * //

dimensions      [0 1 -1 0 0 0 0];

internalField   nonuniform List<vector> 
31661
(
(-26.6392 24.9279 4.66954e-16)
(0.187692 4.74287 -2.77882e-17)
(0.205675 4.69895 3.66516e-17)
(0.197061 4.72074 0)
(0.217097 4.70125 5.57249e-17)
(0.236038 4.65273 -7.39844e-17)
(0.226633 4.67679 -4.62915e-17)
(0.249003 4.65487 0)
(0.268899 4.60166 5.49117e-17)
(0.259612 4.62771 6.4711e-21)
(-37.3589 31.0082 0)
(-0.997207 3.36606 -2.83516e-16)
(6.09702 6.37563 -1.18859e-16)
(-0.031272 37.6436 0)
(13.9716 36.6292 2.1291e-16)
(22.3085 29.4864 1.42481e-18)
(9.02261 40.594 0)
(-24.1804 28.3345 -1.25051e-16)
(1.05529 3.385 0)
(21.903 30.1468 0)
(1.34309 3.22957 9.17681e-17)
(1.30695 3.21588 -2.23664e-16)
(-2.46006 44.4117 -1.21578e-18)
(-24.536 35.9715 3.9546e-17)
(-0.507521 4.16349 -2.62777e-16)
(1.3783 3.23544 0)
(-2.2235 44.1176 -3.64084e-18)
(6.57287 43.5545 -7.25499e-17)
(-1.00408 3.37297 3.54198e-16)
(0.94639 3.20705 -1.42976e-16)
(-22.2077 36.167 -4.39202e-16)
(-1.34868 2.70336 1.92821e-16)
(-1.37398 2.7652 -1.01446e-16)
(1.22724 3.5688 1.30112e-16)
(-0.543754 3.19142 -4.05576e-17)
(-16.609 36.7812 8.31646e-17)
(1.50342 3.47493 -4.09143e-16)
(-15.3573 36.3408 -1.67492e-17)
(-5.55062 42.0967 -1.76569e-16)
(-1.53666 2.8943 5.73212e-21)
(1.06152 2.88238 -2.81946e-16)
(0.108037 4.85774 -4.40509e-22)
(6.64476 35.6262 1.72141e-16)
(-0.0774656 4.00215 -2.99045e-16)
(-0.0594382 4.24378 -3.13804e-16)
(0.990137 3.46002 -1.73696e-16)
(-0.0866225 4.11403 -1.50552e-16)
(1.11522 4.64652 -1.52673e-16)
(1.51658 3.51285 0)
(-2.37877 40.0367 0)
(1.05996 2.96608 0)
(-4.35235 41.3518 -3.33694e-17)
(-0.909171 3.46738 -8.91064e-17)
(1.23642 4.41381 1.48655e-16)
(6.91299 38.2373 -1.41003e-16)
(-0.916585 3.28876 1.44016e-16)
(-0.934127 3.49566 -1.64944e-16)
(-0.663694 3.39701 -8.58637e-17)
(4.21663e-06 5.0001 -2.47688e-16)
(-1.04349 3.47257 -3.65967e-16)
(-1.00771 3.44403 3.01113e-16)
(-1.01938 3.43858 0)
(0.0782057 3.79072 -3.42033e-16)
(-0.0128626 4.98436 0)
(-1.63344 4.61197 0)
(23.6815 40.4486 0)
(-33.022 8.23741 2.69257e-16)
(4.45304e-06 5.00005 7.74939e-17)
(6.53208e-06 5.00003 1.71721e-17)
(8.97111e-06 5.00001 1.42729e-16)
(-0.963676 3.30105 -1.30567e-16)
(8.45272e-06 5.00001 -3.56067e-17)
(5.74398e-06 5 0)
(4.21488e-06 5 9.08182e-18)
(3.25377e-06 5 7.48444e-17)
(2.72805e-06 5 -7.01407e-17)
(2.33299e-06 5 0)
(1.97624e-06 5 0)
(1.60602e-06 5 0)
(1.10797e-06 5 0)
(4.87066e-07 5 -4.50946e-18)
(-3.63777e-07 5 -4.53178e-17)
(-1.4161e-06 5 3.63732e-17)
(-2.58079e-06 5 -9.13281e-18)
(3.47763e-05 5 4.5533e-17)
(3.58271e-05 5 5.01185e-26)
(3.67807e-05 5 -3.6227e-17)
(3.75912e-05 5 9.00881e-18)
(3.81837e-05 5 0)
(3.86962e-05 5 2.26339e-18)
(3.90608e-05 5 0)
(3.93403e-05 5 -7.31172e-17)
(3.98125e-05 5 7.18703e-17)
(4.04776e-05 5 -2.29112e-18)
(4.13792e-05 5 7.8555e-17)
(4.29599e-05 5 -7.45678e-17)
(4.52333e-05 5 6.34727e-25)
(4.71374e-05 5.00001 4.14918e-17)
(4.49641e-05 5.00001 0)
(4.31871e-05 5.00003 -9.21864e-18)
(4.35851e-05 5.00005 9.20548e-18)
(4.73142e-05 5.00009 6.92615e-17)
(5.05306e-05 5.00017 -1.04587e-17)
(1.81606e-05 5.00025 1.39899e-16)
(4.39063e-05 5.00029 -7.91549e-17)
(1.30249e-05 5.00046 3.55425e-17)
(4.52349e-05 5.0005 5.52836e-17)
(1.06695e-05 5.00084 5.34192e-17)
(4.63746e-05 5.00089 -9.06912e-18)
(1.01209e-05 5.00149 -4.01069e-17)
(4.73793e-05 5.00155 4.06432e-17)
(1.09774e-05 5.0026 0)
(4.9647e-05 5.00269 -7.42162e-17)
(1.32295e-05 5.00448 0)
(5.32457e-05 5.0046 3.71007e-17)
(1.75589e-05 5.0076 0)
(5.72057e-05 5.00776 0)
(2.33013e-05 5.01269 -1.39839e-19)
(6.45622e-05 5.0129 1.40491e-19)
(3.00168e-05 5.02086 -2.79996e-19)
(6.93524e-05 5.02113 -9.00004e-18)
(4.03982e-05 5.03373 2.80584e-19)
(7.55291e-05 5.03409 1.77402e-17)
(5.2115e-05 5.05366 8.85759e-18)
(8.88937e-05 5.05411 -1.80407e-17)
(7.47044e-05 5.08396 -9.00688e-18)
(9.66898e-05 5.08453 9.02163e-18)
(9.61521e-05 5.12921 -9.23179e-18)
(0.000104094 5.12993 -4.41257e-18)
(0.000127414 5.19555 2.08059e-21)
(0.000120195 5.19646 -3.3655e-21)
(0.000176086 5.29101 9.03657e-18)
(0.000121593 5.29222 4.59327e-18)
(0.000235851 5.42566 2.8289e-19)
(0.000215461 5.42728 4.52438e-18)
(0.000277686 5.61194 0)
(0.000280706 5.61409 -4.46285e-18)
(0.000340711 5.86478 4.53076e-18)
(0.000279184 5.86743 4.67496e-18)
(0.000442208 6.20134 1.36562e-19)
(0.000375761 6.20466 -5.09557e-21)
(0.000646905 6.64078 -6.58285e-21)
(0.000372534 6.64499 -4.50074e-18)
(0.00093172 7.20324 -9.20842e-18)
(0.000233143 7.20839 1.41736e-19)
(0.0010281 7.90898 8.92801e-18)
(0.000457215 7.91542 0)
(0.0010175 8.7778 -4.54057e-18)
(0.00069655 8.78575 7.08748e-20)
(0.0012091 9.82801 -8.90359e-18)
(0.000858425 9.83744 0)
(0.00148172 11.0747 8.65161e-18)
(0.00138674 11.0862 1.41527e-19)
(0.00189644 12.5286 4.51681e-18)
(0.00171954 12.5423 1.41485e-19)
(0.00209842 14.1966 -1.37047e-17)
(0.00208808 14.2125 -4.51228e-18)
(0.00241698 16.0812 4.55957e-18)
(0.00222628 16.0988 -4.48143e-18)
(0.002886 18.1803 2.94622e-20)
(0.00215963 18.199 4.55965e-18)
(0.00297164 20.4874 3.21906e-20)
(0.00272023 20.5073 3.22092e-20)
(0.00273586 22.9931 1.37617e-17)
(0.00353108 23.0136 4.51789e-18)
(0.00342588 25.6833 -9.02345e-18)
(0.00380948 25.7042 -1.67574e-18)
(0.00442657 28.5425 -5.60412e-19)
(0.0033322 28.5633 2.25164e-18)
(0.00289482 31.5741 -5.59327e-19)
(0.00427986 31.5543 2.78461e-18)
(0.00327124 31.5339 -1.64576e-18)
(0.00289199 28.5219 -1.67073e-18)
(0.00362104 25.6627 0)
(0.00284209 22.9734 1.97725e-18)
(0.00173418 20.4688 -4.78752e-18)
(0.00161838 18.1626 -2.27931e-18)
(0.00164441 16.0647 4.22211e-18)
(0.00178106 14.1812 -4.53545e-18)
(0.00166802 12.5149 4.51738e-18)
(0.0015547 11.0629 9.36031e-18)
(0.0013088 9.81835 -1.35878e-17)
(0.000898283 8.76992 -4.41001e-18)
(0.000675952 7.90242 1.82766e-17)
(0.000478229 7.19797 1.66798e-20)
(0.000369246 6.63669 -4.52199e-18)
(0.000279539 6.19821 5.07241e-21)
(0.000162086 5.86234 3.83914e-21)
(0.0001057 5.61005 -4.52486e-18)
(7.96566e-05 5.4242 -9.3292e-18)
(6.63671e-05 5.28991 4.51366e-18)
(4.35399e-05 5.19473 9.01789e-18)
(1.2964e-05 5.12858 1.41455e-19)
(-2.89531e-07 5.08347 -8.99442e-18)
(-8.24901e-06 5.05328 -4.34752e-18)
(-1.4016e-05 5.03344 8.39143e-18)
(-1.66279e-05 5.02064 8.37246e-19)
(-1.88761e-05 5.01252 0)
(-1.89704e-05 5.00747 0)
(-2.00959e-05 5.00438 2.21447e-18)
(-2.27579e-05 5.00253 -1.76558e-17)
(-2.63958e-05 5.00143 1.75779e-17)
(-2.9578e-05 5.00079 -4.35441e-17)
(-3.10858e-05 5.00043 -3.39122e-17)
(-3.15154e-05 5.00022 4.65734e-17)
(-2.45376e-05 5.00011 1.35554e-17)
(-2.87318e-05 5.00006 -6.05675e-18)
(-2.96389e-05 5.00003 -1.61354e-17)
(-2.88426e-05 5.00001 0)
(-2.8429e-05 5.00001 -1.2508e-16)
(-3.04889e-05 5 6.89218e-17)
(-3.2299e-05 5 -8.82595e-18)
(-3.35398e-05 5 1.42511e-16)
(-3.43139e-05 5 -3.5856e-17)
(-3.47943e-05 5 -7.17723e-17)
(-3.51934e-05 5 -3.59195e-17)
(-3.5598e-05 5 1.39192e-16)
(3.36101e-05 5 2.7329e-17)
(-3.73404e-06 5 1.82161e-17)
(-3.60838e-05 5 -1.12452e-16)
(-3.67499e-05 5 7.22045e-17)
(-3.75896e-05 5 -2.71742e-17)
(-3.85317e-05 5 -3.63653e-17)
(-3.95828e-05 5 3.63764e-17)
(-4.79927e-06 5 0)
(3.23365e-05 5 -6.37873e-17)
(6.7951e-05 4.99999 3.64276e-17)
(6.93339e-05 5 9.0957e-18)
(7.04922e-05 5 0)
(7.14912e-05 5 -1.81411e-17)
(7.22594e-05 5 2.27071e-17)
(7.29941e-05 5 -4.51519e-18)
(7.35984e-05 5 -3.85152e-17)
(7.41057e-05 5 -2.26974e-18)
(7.45313e-05 5 3.63969e-17)
(7.49998e-05 5 3.72128e-17)
(7.54788e-05 5 -3.65992e-17)
(7.61793e-05 5 -2.29504e-18)
(7.72298e-05 5 -9.27479e-18)
(7.8466e-05 5 0)
(7.95718e-05 5 -1.89476e-17)
(8.03661e-05 5.00001 1.93663e-17)
(7.96862e-05 5.00001 0)
(7.88414e-05 5.00003 7.05112e-18)
(7.92333e-05 5.00005 -1.17353e-17)
(8.12572e-05 5.00009 -3.35546e-17)
(8.26134e-05 5.00017 3.63662e-18)
(8.06261e-05 5.0003 0)
(7.97975e-05 5.00053 1.85941e-17)
(8.10226e-05 5.00093 -3.66309e-17)
(8.34458e-05 5.00161 3.64265e-17)
(8.4135e-05 5.00277 3.40528e-18)
(8.53734e-05 5.00471 -4.22708e-25)
(8.64468e-05 5.00791 1.81021e-17)
(8.88922e-05 5.01311 -1.80459e-17)
(8.93162e-05 5.0214 0)
(9.12478e-05 5.03443 -3.52991e-20)
(0.000103244 5.05454 3.52802e-20)
(0.000111025 5.08509 0)
(0.000134843 5.13064 -3.53463e-20)
(0.000178494 5.1974 -4.5122e-18)
(0.000220309 5.29342 -6.92309e-20)
(0.000223353 5.42882 4.54593e-18)
(0.000327584 5.61611 4.45929e-18)
(0.000381737 5.87001 -4.68237e-18)
(0.000311693 6.20775 2.26561e-18)
(0.000452794 6.64874 -2.30398e-18)
(0.000837785 7.21297 7.08612e-20)
(0.00099522 7.92116 7.08172e-20)
(0.00114954 8.79291 -1.34918e-24)
(0.00114593 9.8459 -7.08113e-20)
(0.000667522 11.0957 2.25981e-18)
(0.00117514 12.5537 -2.54953e-18)
(0.00157866 14.2261 2.39713e-18)
(0.00196494 16.114 -2.26694e-18)
(0.00244432 18.2156 2.53268e-18)
(0.0023542 20.5247 -2.26223e-18)
(0.00190431 23.0315 2.24231e-18)
(0.00138439 25.7217 -5.80465e-19)
(0.00168599 28.5803 -2.81213e-18)
(0.00207357 31.59 0)
(0.00251405 34.7295 -2.22921e-18)
(0.00225865 34.7159 -5.58395e-19)
(0.0035759 34.6989 -2.23138e-18)
(0.0033737 34.6799 -1.07237e-18)
(0.000822978 34.6624 0)
(0.000849816 31.5167 -5.58675e-19)
(0.000674453 28.5052 2.25071e-18)
(-0.000488668 25.6468 -2.51657e-18)
(0.000821285 22.9577 0)
(0.00151001 20.4539 2.81638e-19)
(0.00141862 18.1485 -2.26334e-18)
(0.00140494 16.0514 2.39329e-18)
(0.000854844 14.1689 2.82583e-19)
(0.00111948 12.5036 0)
(0.00106929 11.053 0)
(0.000689355 9.8102 -2.12554e-19)
(0.000415467 8.76341 2.12753e-18)
(0.000313669 7.89718 -1.36488e-19)
(0.000292726 7.19379 -1.98105e-18)
(0.000240139 6.63344 -2.26727e-18)
(0.000138866 6.19576 2.12268e-18)
(5.78601e-05 5.86051 2.26486e-18)
(1.83834e-05 5.60862 -1.69578e-18)
(2.6303e-05 5.42309 0)
(1.53618e-05 5.28907 0)
(-4.73767e-06 5.19412 0)
(-2.49515e-05 5.12813 0)
(-3.79476e-05 5.08314 -2.24571e-18)
(-4.4344e-05 5.05304 2.23992e-18)
(-4.82846e-05 5.03325 5.58296e-19)
(-5.04631e-05 5.0205 -5.01484e-18)
(-5.62895e-05 5.01242 3.32893e-18)
(-6.04825e-05 5.00739 2.21144e-18)
(-6.24074e-05 5.00433 4.82392e-26)
(-6.50232e-05 5.00249 8.77289e-18)
(-6.76334e-05 5.0014 -8.71114e-18)
(-6.88714e-05 5.00078 -8.59635e-18)
(-6.87108e-05 5.00042 -8.41417e-18)
(-6.7253e-05 5.00022 -2.46455e-17)
(-6.61355e-05 5.00012 5.0583e-19)
(-6.65356e-05 5.00006 8.15984e-18)
(-6.65382e-05 5.00003 -3.27478e-17)
(-6.67683e-05 5.00001 6.53784e-17)
(-6.73003e-05 5.00001 -2.47802e-17)
(-6.73332e-05 5 0)
(-6.83817e-05 5 7.81746e-17)
(-6.93335e-05 5 -7.02896e-17)
(-7.00343e-05 5 -3.54012e-17)
(-7.05611e-05 5 3.4424e-17)
(-7.09598e-05 5 -3.57315e-17)
(-7.13594e-05 5 8.04897e-17)
(-7.18661e-05 5 -6.73027e-17)
(-7.25157e-05 5 9.09071e-26)
(-4.06043e-05 5 -1.82754e-17)
(-7.32299e-05 5 4.51521e-17)
(-7.39933e-05 5 0)
(-7.48024e-05 5 0)
(6.62473e-05 4.99999 -3.64275e-17)
(3.0958e-05 4.99999 -9.107e-18)
(-4.15085e-05 5 0)
(-5.83906e-06 4.99999 9.12979e-18)
(6.41582e-05 4.99999 -3.6422e-17)
(9.54205e-05 4.99999 1.81864e-17)
(9.81451e-05 4.99999 -1.8182e-17)
(0.000100196 4.99999 -2.72751e-17)
(0.000101765 4.99999 -6.61581e-26)
(0.000103018 5 -4.67959e-26)
(0.000104003 5 1.81371e-17)
(0.00010482 5 -4.54354e-18)
(0.000105488 5 -2.26543e-18)
(0.00010609 5 2.26635e-18)
(0.000106538 5 0)
(0.000107115 5 -1.13805e-18)
(0.000107651 5 -1.8816e-17)
(0.000108246 5 1.71445e-17)
(0.000108981 5 2.29267e-18)
(0.000109869 5 2.30165e-18)
(0.000110714 5 0)
(0.000111311 5 9.30463e-18)
(0.000111709 5.00001 -9.71872e-18)
(0.000111559 5.00001 -1.41834e-17)
(0.000111217 5.00003 -2.33713e-18)
(0.000111454 5.00005 0)
(0.000112405 5.00009 9.41368e-18)
(0.000113214 5.00017 -3.53965e-18)
(0.000112899 5.00031 0)
(0.000112495 5.00054 -9.24213e-18)
(0.000113021 5.00095 3.2074e-17)
(0.000114978 5.00165 -1.59577e-17)
(0.00012029 5.00284 -2.90468e-25)
(0.000126808 5.00482 -1.13562e-18)
(0.000134639 5.00806 -1.76039e-17)
(0.00014164 5.0133 2.71653e-17)
(0.000154174 5.02167 -9.06394e-18)
(0.000170187 5.03477 3.18657e-19)
(0.000179503 5.055 9.01719e-18)
(0.000199725 5.08566 -4.53033e-18)
(0.00024764 5.13137 -4.52657e-18)
(0.000272779 5.19835 0)
(0.00023724 5.29461 -4.53113e-18)
(0.000236372 5.43018 4.44435e-18)
(0.000259284 5.6178 0)
(0.00044338 5.87225 4.53433e-18)
(0.000525597 6.21057 -4.54077e-18)
(0.00044321 6.65198 0)
(0.000456674 7.21693 -1.41688e-19)
(0.000596127 7.92598 -7.0823e-20)
(0.000580691 8.7986 -2.33478e-18)
(0.000617241 9.8525 7.84689e-20)
(0.00108346 11.103 2.26971e-18)
(0.000941384 12.5621 2.82655e-19)
(0.00122679 14.236 2.25527e-18)
(0.00142691 16.1254 -2.26647e-18)
(0.00168939 18.2282 1.96784e-18)
(0.00192158 20.5382 -2.26271e-18)
(0.00180399 23.0446 1.96138e-18)
(0.0022115 25.7345 -2.25676e-18)
(0.00203337 28.5928 1.73181e-23)
(0.00186328 31.6013 -1.11422e-18)
(0.00217162 34.7391 1.12815e-18)
(0.00137967 37.9859 1.67941e-18)
(0.0028401 37.9787 5.44675e-21)
(0.00147477 37.9676 5.5737e-19)
(0.00291908 37.954 2.23914e-18)
(0.0023849 37.9382 5.57665e-18)
(0.00237381 37.9209 1.11285e-18)
(0.00278138 37.9034 -3.33833e-18)
(0.0028812 34.6466 2.22151e-18)
(0.0011661 31.503 -5.63787e-19)
(0.001448 28.4923 1.1153e-18)
(0.00199336 25.635 -8.81563e-24)
(0.00055555 22.9469 0)
(0.000645638 20.4431 1.97854e-18)
(0.000414953 18.1385 -2.38979e-18)
(-0.000124434 16.0425 2.82316e-19)
(0.00054618 14.1603 -2.82432e-19)
(0.000289109 12.4958 -1.41477e-19)
(0.000107234 11.0462 0)
(0.000607166 9.80424 2.27008e-18)
(0.000714363 8.75858 6.32866e-21)
(0.000418918 7.89337 -2.12189e-18)
(0.000241783 7.19078 -2.83316e-19)
(0.000117675 6.63117 -2.26719e-18)
(8.99987e-05 6.19401 4.53028e-18)
(0.000105721 5.85914 -3.96165e-18)
(7.31838e-05 5.60758 -8.49541e-19)
(6.86326e-06 5.42233 2.25877e-18)
(-3.92058e-05 5.28853 -5.64159e-19)
(-6.17057e-05 5.19375 0)
(-8.05696e-05 5.12789 5.62245e-19)
(-9.57487e-05 5.08298 1.12221e-18)
(-9.83893e-05 5.05292 -2.79789e-18)
(-9.94292e-05 5.03317 -5.1042e-23)
(-0.000103461 5.02044 -3.24827e-23)
(-0.000105662 5.01238 3.32498e-18)
(-0.000106933 5.00737 -1.1037e-18)
(-0.000108549 5.00431 -6.59531e-18)
(-0.000108706 5.00247 -2.18559e-18)
(-0.000106865 5.00139 2.16654e-18)
(-0.000104954 5.00077 -9.1185e-18)
(-0.000103468 5.00042 2.1772e-17)
(-0.000102325 5.00022 -4.19971e-18)
(-0.000101629 5.00012 -5.18995e-19)
(-0.000101302 5.00006 0)
(-0.000101158 5.00003 3.53991e-17)
(-0.000101449 5.00001 -3.13724e-17)
(-0.00010175 5.00001 -1.05266e-17)
(-0.000101625 5 0)
(-0.000102056 5 2.59395e-17)
(-0.000102629 5 -6.9816e-17)
(-0.000103177 5 3.51918e-17)
(-0.000103598 5 -1.10391e-18)
(-0.000104003 5 3.54527e-17)
(-0.000104413 5 -4.00417e-17)
(-0.00010489 5 0)
(-0.000105376 5 2.69004e-17)
(-0.000105878 5 -8.11111e-17)
(-7.55836e-05 5 -1.8183e-17)
(-0.000106403 5 6.32811e-17)
(-0.000106921 5 -4.52509e-17)
(2.94175e-05 4.99999 2.68866e-25)
(9.1773e-05 4.99999 0)
(6.15664e-05 4.99999 1.81834e-17)
(-7.60424e-05 5 1.82604e-17)
(-4.22271e-05 5 -1.82399e-17)
(-6.86195e-06 4.99999 -1.82683e-17)
(8.68575e-05 4.99998 -9.09112e-18)
(0.000109511 4.99997 -2.72326e-17)
(0.000116548 4.99998 9.07958e-18)
(0.000121607 4.99999 2.86684e-25)
(0.00012524 4.99999 -2.27044e-17)
(0.000127848 4.99999 -4.54081e-18)
(0.000129755 4.99999 4.54049e-18)
(0.000131189 4.99999 -1.81636e-17)
(0.00013227 5 1.5893e-17)
(0.00013316 5 -1.13449e-18)
(0.00013383 5 2.26839e-18)
(0.000134448 5 0)
(0.000135028 5 -1.82084e-17)
(0.000135651 5 1.87531e-17)
(0.000136269 5 5.68901e-19)
(0.000136885 5 -2.8545e-19)
(0.000137594 5 0)
(0.000138313 5 2.291e-18)
(0.000138892 5 2.29818e-18)
(0.000139277 5 0)
(0.000139524 5.00001 2.91222e-19)
(0.000139554 5.00001 1.3979e-17)
(0.000139502 5.00003 -2.31616e-18)
(0.000139696 5.00005 0)
(0.000140209 5.00009 9.29908e-18)
(0.00014069 5.00017 -9.30719e-18)
(0.000140694 5.00031 4.62172e-18)
(0.000140657 5.00055 -9.18848e-18)
(0.000141002 5.00097 4.57247e-18)
(0.000141983 5.00168 -2.2793e-18)
(0.000143803 5.00289 -2.27545e-18)
(0.000147394 5.00489 -5.68524e-19)
(0.000154712 5.00817 8.52399e-18)
(0.000162095 5.01347 -1.81617e-17)
(0.000162011 5.0219 1.81818e-17)
(0.000154963 5.03507 -1.39127e-17)
(0.000155027 5.05537 4.53479e-18)
(0.000163752 5.08615 0)
(0.000156342 5.132 4.54878e-18)
(0.000186448 5.19914 -4.52527e-18)
(0.000307995 5.29561 7.086e-20)
(0.000324482 5.43141 2.3036e-18)
(0.000311179 5.61915 -2.23315e-18)
(0.000307425 5.87395 2.26627e-18)
(0.000476846 6.21283 -2.26986e-18)
(0.000584705 6.65467 0)
(0.000505349 7.2199 2.33634e-18)
(0.000541589 7.92941 -3.40052e-18)
(0.000930861 8.8027 1.13491e-18)
(0.00102967 9.85742 -7.08244e-20)
(0.000881226 11.1086 0)
(0.000794022 12.5679 -1.27006e-18)
(0.000712511 14.2422 1.1331e-18)
(0.00110684 16.1328 9.85147e-19)
(0.000831622 18.2364 -1.13245e-18)
(0.000650337 20.5468 0)
(0.00112611 23.0536 5.62978e-19)
(0.00122672 25.7434 0)
(0.0011246 28.6008 1.11936e-18)
(0.000901196 31.6075 -5.13614e-21)
(-0.00049017 34.7435 -6.31184e-19)
(-0.00157901 37.9872 -2.09052e-19)
(-0.00119868 41.3157 -4.18387e-19)
(5.70751e-05 41.3185 8.36291e-19)
(0.00196687 41.3159 -1.11382e-18)
(0.000675621 41.3091 5.56277e-19)
(0.00200073 41.2988 0)
(0.00229061 41.2855 -1.13406e-18)
(0.00306687 41.2697 3.32355e-18)
(0.00138192 41.2533 2.23312e-18)
(0.00280758 41.2365 0)
(0.00165555 37.8874 -1.66992e-18)
(0.00207798 34.6321 1.68447e-18)
(0.00259577 31.4908 -3.34574e-18)
(0.000697322 28.4821 -1.1249e-18)
(0.000802018 25.6253 2.52584e-18)
(0.00160637 22.9385 -1.12043e-18)
(0.000525546 20.4358 2.81449e-19)
(0.00083523 18.1317 -2.22847e-24)
(0.0011998 16.0363 2.13619e-24)
(0.000364017 14.155 0)
(0.00046796 12.4911 1.41428e-19)
(0.000583484 11.042 1.41493e-19)
(9.07305e-05 9.80048 1.20521e-18)
(0.000122053 8.75532 -1.13205e-18)
(0.000157899 7.89081 2.83296e-19)
(0.000102242 7.18882 -1.13415e-18)
(9.21419e-05 6.62966 2.81566e-19)
(6.38284e-05 6.19281 1.98151e-18)
(8.05704e-06 5.85821 -2.82927e-18)
(-2.89285e-05 5.60693 1.4132e-18)
(-5.35781e-05 5.4219 -1.07849e-22)
(-9.2076e-05 5.28825 1.12778e-18)
(-0.000105821 5.19361 2.81674e-19)
(-0.000118117 5.12782 -8.43285e-19)
(-0.0001274 5.08295 -1.75342e-20)
(-0.000136666 5.05292 5.77366e-19)
(-0.000148023 5.03318 -1.11605e-18)
(-0.000150415 5.02045 0)
(-0.000145686 5.01238 2.21696e-18)
(-0.000144606 5.00737 -2.20663e-18)
(-0.000142342 5.00431 6.59225e-18)
(-0.000139525 5.00247 0)
(-0.000137487 5.0014 -8.67739e-18)
(-0.00013567 5.00077 8.62613e-18)
(-0.00013412 5.00042 8.5762e-18)
(-0.000132977 5.00023 0)
(-0.000132183 5.00012 2.11173e-18)
(-0.000131792 5.00006 0)
(-0.000131648 5.00003 -2.39152e-25)
(-0.00013185 5.00002 3.17746e-17)
(-0.000131904 5.00001 -3.13193e-17)
(-0.00013175 5 3.42398e-17)
(-0.000131982 5 -3.24075e-17)
(-0.000132268 5 0)
(-0.000132587 5 0)
(-0.000132959 5 4.38576e-18)
(-0.00013332 5 0)
(-0.000133659 5 3.54197e-17)
(-0.000133956 5 -1.19559e-25)
(-0.000134224 5 -1.78559e-17)
(-0.000134452 5 -3.60342e-17)
(-0.000134658 5 9.02228e-17)
(-0.000107248 5 0)
(-0.000134804 5 9.02482e-18)
(2.76917e-05 4.99999 3.64249e-17)
(5.82754e-05 4.99998 3.63748e-17)
(-0.000107227 5 0)
(9.97058e-05 4.99996 6.35367e-17)
(8.01738e-05 4.99997 1.81644e-17)
(-7.6341e-05 4.99999 1.83085e-17)
(-4.26853e-05 4.99999 0)
(-7.76995e-06 4.99999 4.55935e-17)
(8.60308e-05 4.99995 -3.6281e-17)
(9.09466e-05 4.99992 0)
(0.000110616 4.99995 1.35993e-17)
(0.000124638 4.99996 -1.81367e-17)
(0.000134592 4.99997 9.0698e-18)
(0.000141631 4.99998 -1.81425e-17)
(0.000146593 4.99999 2.26809e-17)
(0.000150082 4.99999 4.53655e-18)
(0.000152553 4.99999 -4.53655e-18)
(0.00015432 4.99999 -1.13405e-18)
(0.000155616 4.99999 3.40761e-18)
(0.000156639 5 -8.50629e-18)
(0.000157396 5 5.67374e-19)
(0.000158072 5 9.36642e-18)
(0.000158757 5 -1.41938e-19)
(0.000159366 5 -8.37816e-18)
(0.000160057 5 8.52663e-18)
(0.000160724 5 3.5917e-26)
(0.000161381 5 -9.68582e-18)
(0.000161985 5 9.13076e-18)
(0.000162432 5 -6.8523e-18)
(0.000162743 5 2.29061e-18)
(0.000162946 5.00001 2.30444e-18)
(0.000163068 5.00001 1.15126e-18)
(0.000163164 5.00003 -5.74653e-19)
(0.000163347 5.00005 1.14889e-18)
(0.000163651 5.00009 1.72558e-18)
(0.000163965 5.00017 -2.59139e-18)
(0.000164069 5.00031 0)
(0.000164135 5.00055 0)
(0.000164402 5.00098 0)
(0.000164982 5.0017 4.55438e-18)
(0.00016601 5.00291 -3.98055e-18)
(0.000167719 5.00494 1.21059e-25)
(0.000170464 5.00825 -4.54479e-18)
(0.00017597 5.01359 4.68539e-18)
(0.000195845 5.02207 4.54958e-18)
(0.000227543 5.03532 -4.4043e-18)
(0.000249769 5.05571 4.53971e-18)
(0.000244115 5.08658 -4.54315e-18)
(0.000241217 5.13251 -4.52061e-18)
(0.000210281 5.19974 4.53179e-18)
(0.000198732 5.29631 -1.4168e-19)
(0.00030833 5.43235 3.54527e-20)
(0.000361972 5.62032 -2.3044e-18)
(0.000367438 5.87522 1.94277e-21)
(0.000350605 6.21442 2.2692e-18)
(0.000528702 6.65674 1.77269e-20)
(0.000659826 7.22234 0)
(0.000593798 7.93197 0)
(0.000607639 8.80567 1.20217e-18)
(0.00095004 9.86104 -1.064e-18)
(0.00111887 11.1127 -1.05943e-18)
(0.00112275 12.5721 9.92671e-19)
(0.00104533 14.2462 4.22472e-19)
(0.000786266 16.137 -4.25132e-19)
(0.00135247 18.2412 -1.41132e-19)
(0.00204063 20.5522 0)
(0.00168459 23.0594 -5.60909e-19)
(0.00109596 25.7487 -2.76361e-19)
(0.000958069 28.6052 5.63478e-19)
(-2.09077e-05 31.6103 6.96948e-20)
(-0.00104822 34.7439 -6.29752e-19)
(-0.000855385 37.9834 1.39145e-18)
(-0.000470076 41.3089 -9.82352e-19)
(-0.00032422 44.701 -8.70939e-21)
(-0.000370421 44.7085 8.70656e-21)
(-0.000387133 44.7152 0)
(0.000301532 44.7176 2.78205e-19)
(-0.000204497 44.7166 -2.77925e-19)
(0.000675864 44.7111 5.52469e-19)
(0.00261525 44.7011 -3.34093e-18)
(0.00214411 44.6882 -1.12022e-18)
(0.00188546 44.6731 -1.1087e-18)
(0.00304974 44.6558 1.10939e-18)
(0.00216123 41.219 2.23474e-18)
(0.000801449 37.8737 -5.4048e-19)
(0.000124394 34.6206 -1.11039e-18)
(0.000874506 31.4804 5.59255e-19)
(0.00192391 28.4738 0)
(0.000360077 25.6185 0)
(0.000194767 22.9321 0)
(0.000811301 20.4309 0)
(3.16948e-05 18.1274 1.40923e-19)
(0.000216536 16.032 1.26537e-24)
(0.000565568 14.1518 4.25272e-19)
(4.49842e-05 12.4883 -5.63966e-19)
(0.000133637 11.0395 4.25486e-19)
(0.000362214 9.79828 -4.2368e-19)
(0.000207654 8.75344 -7.09218e-19)
(0.000138205 7.8893 2.82579e-19)
(0.00010951 7.1876 2.83275e-19)
(7.4448e-05 6.62868 -2.83185e-19)
(1.46361e-05 6.19211 8.49603e-19)
(-4.99584e-05 5.85775 2.73089e-22)
(-8.28875e-05 5.60665 0)
(-0.00012504 5.42179 -5.56206e-19)
(-0.000137959 5.28823 -8.80969e-21)
(-0.000147528 5.19362 0)
(-0.000163752 5.12787 0)
(-0.000174826 5.08301 0)
(-0.000177187 5.05298 -2.24276e-18)
(-0.000176487 5.03324 3.34947e-18)
(-0.000170406 5.02049 0)
(-0.000167553 5.01242 -4.43942e-18)
(-0.000165892 5.0074 -2.20961e-18)
(-0.000164149 5.00433 2.20035e-18)
(-0.000161836 5.00249 0)
(-0.000160246 5.00141 -4.36446e-18)
(-0.000159577 5.00078 0)
(-0.000159027 5.00043 -8.64548e-18)
(-0.000158309 5.00023 -1.71771e-17)
(-0.000157691 5.00012 5.12737e-17)
(-0.000157315 5.00006 -2.13423e-18)
(-0.000157154 5.00003 -7.0441e-17)
(-0.00015723 5.00002 -1.20942e-24)
(-0.000157238 5.00001 3.37541e-17)
(-0.000157132 5 -3.44599e-17)
(-0.000157256 5 -2.16021e-18)
(-0.000157382 5 5.42389e-19)
(-0.000157565 5 3.48034e-17)
(-0.00015786 5 -4.36867e-18)
(-0.000158111 5 0)
(-0.000158252 5 0)
(-0.00015835 5 0)
(-0.000158375 5 -1.78116e-17)
(-0.000158386 5 -3.58744e-17)
(-0.000158281 5 6.27218e-17)
(-0.000134716 5 -3.61787e-17)
(-0.000157939 5 -3.60765e-17)
(0.00288131 44.6368 1.10919e-18)
(-0.000157161 5 0)
(2.57742e-05 4.99999 9.10233e-18)
(-0.000134027 4.99999 1.81951e-17)
(5.40106e-05 4.99998 -4.54487e-17)
(-0.000106756 4.99999 -1.82528e-17)
(7.10123e-05 4.99996 0)
(-7.61199e-05 4.99999 0)
(6.34954e-05 4.99989 0)
(6.69885e-05 4.99992 -1.81779e-17)
(-4.26834e-05 4.99999 -9.13685e-18)
(-8.40346e-06 4.99999 -2.37859e-25)
(2.53784e-05 4.99985 -9.07143e-18)
(-9.08099e-06 4.99979 -2.71931e-17)
(4.46459e-05 4.99985 3.62399e-17)
(8.34844e-05 4.99989 -2.2646e-17)
(0.000111332 4.99992 4.52897e-17)
(0.000131131 4.99995 -1.35888e-17)
(0.000145105 4.99996 1.81222e-17)
(0.000154907 4.99997 -1.81264e-17)
(0.000161751 4.99998 2.26636e-18)
(0.000166514 4.99999 0)
(0.000169831 4.99999 -9.06881e-18)
(0.000172163 4.99999 1.01972e-17)
(0.000173842 4.99999 -1.13489e-18)
(0.000175076 4.99999 5.10284e-18)
(0.000176007 5 -5.10503e-18)
(0.000176787 5 -2.837e-19)
(0.000177518 5 7.09403e-20)
(0.000178155 5 -1.41888e-19)
(0.000178815 5 -4.68933e-18)
(0.000179516 5 2.84289e-19)
(0.000180162 5 5.12059e-18)
(0.000180691 5 2.27756e-18)
(0.000181087 5 -4.55561e-18)
(0.000181395 5 4.28636e-18)
(0.000181621 5.00001 -4.58369e-18)
(0.000181813 5.00001 -1.51283e-25)
(0.000181986 5.00003 0)
(0.000182192 5.00005 1.42801e-19)
(0.000182419 5.00009 1.00011e-18)
(0.000182635 5.00017 -8.57989e-19)
(0.000182739 5.00031 -1.1419e-18)
(0.000182843 5.00056 1.14059e-18)
(0.000183035 5.00098 0)
(0.000183372 5.0017 0)
(0.000184035 5.00293 1.13685e-18)
(0.000185207 5.00496 2.84072e-19)
(0.000186907 5.00828 0)
(0.000189043 5.01365 -1.4201e-19)
(0.000191938 5.02217 0)
(0.000195027 5.03548 2.13014e-18)
(0.000205469 5.05596 -2.27166e-18)
(0.000238454 5.08692 0)
(0.000249031 5.13293 -3.54959e-20)
(0.000245145 5.2002 -3.54659e-20)
(0.000254622 5.2968 7.53335e-20)
(0.000242539 5.43295 0)
(0.000336245 5.62115 0)
(0.000392394 5.87625 0)
(0.000401503 6.2155 -1.13384e-18)
(0.000392028 6.65809 1.0994e-18)
(0.000560228 7.22411 3.54473e-20)
(0.00068205 7.93398 0)
(0.000569908 8.80767 4.9504e-19)
(0.000568259 9.86331 -1.13248e-18)
(0.000914262 11.1156 1.62653e-18)
(0.000999266 12.5753 -4.28331e-19)
(0.00101713 14.2491 -9.89456e-19)
(0.00112003 16.1397 3.33614e-21)
(0.000907748 18.2443 7.07151e-19)
(0.000563173 20.5557 -2.80728e-19)
(0.000956541 23.0629 -5.59769e-19)
(0.00129381 25.7519 5.65619e-19)
(0.000253901 28.6073 2.81852e-19)
(-0.000606253 31.6104 2.80289e-19)
(-0.00035335 34.7406 5.57141e-19)
(-0.00011237 37.978 -7.01623e-19)
(0.000192078 41.3025 0)
(0.000758824 44.6939 1.10939e-18)
(0.000849298 48.1316 -1.15497e-20)
(-2.47132e-05 48.1395 1.03763e-18)
(-0.000232125 48.1473 6.95408e-20)
(-0.000233562 48.1558 1.10639e-18)
(-0.000142638 48.1633 -1.10557e-18)
(-0.00111237 48.1673 -5.52308e-19)
(-0.00084072 48.1671 -2.89029e-21)
(0.000935141 48.1633 -2.88788e-21)
(0.00246802 48.1538 1.10807e-18)
(0.00312946 48.1403 1.09629e-18)
(0.00214889 48.1236 0)
(0.00226926 48.1052 2.20272e-18)
(0.000623272 44.6181 1.12071e-18)
(0.00177039 41.2024 2.25341e-20)
(0.00245682 37.8604 -2.21864e-18)
(0.00128211 34.6112 5.58469e-19)
(-0.000140779 31.4733 0)
(0.00016434 28.4673 2.80216e-19)
(0.00131038 25.6135 -1.40397e-19)
(0.000441727 22.9282 -2.82167e-19)
(0.000294091 20.4275 2.80554e-19)
(0.000902177 18.1248 0)
(0.00019097 16.0299 -1.41093e-19)
(0.000235343 14.1499 7.078e-19)
(0.000599711 12.487 -2.80779e-19)
(0.000197514 11.0383 -2.82282e-19)
(4.09969e-05 9.79713 2.36225e-25)
(0.000166438 8.75242 -2.3282e-25)
(0.000175386 7.88842 2.8357e-19)
(0.000132683 7.18684 -1.1331e-18)
(0.00010265 6.62809 2.82569e-19)
(1.68128e-05 6.19178 -3.15283e-22)
(-8.30212e-05 5.85765 -7.09062e-20)
(-0.000174566 5.60669 -4.9484e-19)
(-0.000196127 5.42184 1.08033e-22)
(-0.000198307 5.28832 -1.1282e-18)
(-0.00020428 5.19372 -1.12769e-18)
(-0.000192118 5.12799 2.25222e-18)
(-0.000188035 5.08312 0)
(-0.000189268 5.05308 0)
(-0.000184115 5.03333 3.3534e-18)
(-0.000190452 5.02057 -4.45444e-18)
(-0.000189959 5.01248 7.25991e-25)
(-0.000184503 5.00745 -2.21331e-18)
(-0.000181274 5.00437 1.10281e-17)
(-0.000181174 5.00252 -2.64038e-17)
(-0.000181657 5.00143 2.62894e-17)
(-0.000180711 5.0008 -1.30937e-17)
(-0.000179468 5.00044 3.47953e-17)
(-0.000178578 5.00024 -1.73128e-17)
(-0.000177941 5.00013 -2.15714e-18)
(-0.000177558 5.00007 3.03335e-25)
(-0.000177404 5.00004 -3.66003e-17)
(-0.000177403 5.00002 6.89221e-17)
(-0.000177444 5.00001 -5.37873e-19)
(-0.000177526 5 -3.45122e-17)
(-0.000177541 5 3.46348e-17)
(-0.000177596 5 -6.97562e-17)
(-0.000177725 5 3.5853e-17)
(-0.000177896 5 3.71018e-17)
(-0.000177966 5 -3.5011e-17)
(-0.000177931 5 0)
(-0.00017785 5 0)
(-0.000177725 5 8.86877e-18)
(-0.000177429 5 0)
(-0.000176912 5 3.56398e-17)
(-0.000176044 5 -3.58592e-17)
(-0.000174675 4.99999 1.80087e-17)
(0.000534735 48.0849 0)
(-0.000172375 4.99999 -2.70458e-17)
(-0.000155767 4.99999 -9.0625e-18)
(2.35549e-05 4.99998 -1.81955e-17)
(-0.00013264 4.99999 8.819e-25)
(4.83572e-05 4.99997 2.27197e-17)
(-0.000105622 4.99999 -3.66167e-17)
(5.83413e-05 4.99995 0)
(-7.50691e-05 4.99999 0)
(4.05242e-05 4.99989 2.53111e-24)
(-4.19804e-05 4.99999 -9.13209e-18)
(-8.27803e-05 4.99971 -9.07708e-18)
(-2.72459e-05 4.99979 9.08402e-18)
(-8.72336e-06 4.99998 -3.64367e-17)
(0.000567945 51.5961 -9.78296e-19)
(3.52281e-06 51.6039 -1.15961e-20)
(-7.66971e-06 51.6131 0)
(-0.000232613 51.6232 -1.15958e-20)
(-0.000447454 51.6338 1.1153e-18)
(-0.00108149 51.6414 1.38299e-18)
(-0.00156522 51.6474 -5.48147e-19)
(-0.00131412 51.6487 -2.79659e-19)
(0.00229457 51.6443 -5.53129e-19)
(0.00336867 51.6337 -1.12845e-18)
(0.00134584 51.6196 3.30338e-18)
(0.00216632 51.6017 -2.22203e-18)
(0.000981819 51.579 0)
(0.00259686 48.0617 0)
(0.000471151 44.5999 5.61121e-19)
(-0.000677833 41.1879 -1.10633e-18)
(-0.000583589 37.8486 0)
(-0.000683205 34.6031 0)
(-0.00024988 31.4682 2.79806e-19)
(-0.000879574 28.4639 -1.40084e-19)
(-0.000504895 25.6102 1.40351e-19)
(0.000585586 22.9257 0)
(0.000381298 20.4256 1.4076e-19)
(-5.44663e-05 18.1235 -7.07262e-20)
(0.00016306 16.0293 7.03317e-20)
(5.43062e-05 14.1494 0)
(-0.000215008 12.4866 0)
(-6.98053e-05 11.0381 1.41446e-19)
(-0.000136047 9.79705 -1.41752e-19)
(-0.00027458 8.7522 3.53915e-19)
(-0.000180122 7.88813 -2.12501e-19)
(-0.000166288 7.18668 1.769e-19)
(-0.000252885 6.62812 -3.53749e-20)
(-0.000289773 6.19188 2.83181e-19)