/*--------------------------------*- C++ -*----------------------------------*\
| =========                 |                                                 |
| \\      /  F ield         | OpenFOAM: The Open Source CFD Toolbox           |
|  \\    /   O peration     | Version:  2212                                  |
|   \\  /    A nd           | Website:  www.openfoam.com                      |
|    \\/     M anipulation  |                                                 |
\*---------------------------------------------------------------------------*/
FoamFile
{
    version     2.0;
    format      ascii;
    arch        "LSB;label=32;scalar=64";
    class       volScalarField;
    location    "0.0424";
    object      nut;
}
// * * * * * * * * * * * * * * * * * * * * * * * * * * * * * * * * * * * * * //

dimensions      [0 2 -1 0 0 0 0];

internalField   nonuniform List<scalar> 
31661
(
0.250123
0.260358
0.266374
0.262613
0.258412
0.262707
0.259865
0.256779
0.259555
0.257543
0.0328279
0.232155
0.0629912
0.39311
0.347976
0.382126
0.326327
0.346941
0.150195
0.395014
0.031574
0.0320076
0.0396514
0.34947
0.248067
0.0301921
0.0319089
0.0446227
0.236968
0.271137
0.370052
0.0407811
0.040859
0.144146
0.128668
0.408137
0.047161
0.413782
0.177456
0.0387919
0.0370967
0.265355
0.415358
0.320799
0.323145
0.237605
0.321259
0.148535
0.0498031
0.414557
0.0325962
0.354751
0.239097
0.130737
0.208289
0.178605
0.226251
0.251329
0.53524
0.194797
0.226964
0.215288
0.292972
0.268713
0.0684417
0.175135
0.0395926
0.518585
0.497575
0.474994
0.225194
0.43999
0.41724
0.394327
0.373819
0.355249
0.338799
0.324587
0.312676
0.302814
0.294798
0.288352
0.283232
0.279185
0.280184
0.284425
0.28977
0.296454
0.304677
0.314665
0.326578
0.340507
0.356524
0.374561
0.393854
0.41335
0.432947
0.451704
0.47201
0.491944
0.510263
0.525954
0.539744
0.557202
0.553425
0.568624
0.565243
0.577869
0.574923
0.585227
0.582756
0.591056
0.589055
0.595676
0.594087
0.599359
0.5981
0.602325
0.601316
0.604746
0.603917
0.606754
0.606049
0.608452
0.607827
0.609921
0.609342
0.611219
0.610663
0.612398
0.611846
0.613493
0.612936
0.614539
0.613969
0.615568
0.614979
0.616615
0.616003
0.617721
0.617086
0.618957
0.618298
0.620456
0.619771
0.622497
0.621782
0.625689
0.624921
0.631297
0.630469
0.641853
0.64091
0.661656
0.660459
0.696243
0.694726
0.748802
0.746905
0.812375
0.810241
0.868611
0.866483
0.903876
0.902024
0.919816
0.918172
0.924624
0.92304
0.922616
0.92419
0.92248
0.922928
0.918063
0.901907
0.866323
0.809888
0.746505
0.694401
0.660253
0.640743
0.630351
0.624825
0.621684
0.61967
0.618189
0.616966
0.615871
0.614835
0.613811
0.612767
0.611669
0.61048
0.609159
0.607652
0.605892
0.603789
0.601228
0.598059
0.594093
0.589085
0.582749
0.574758
0.564745
0.552287
0.53697
0.517988
0.49572
0.471615
0.447132
0.422385
0.399259
0.378098
0.358932
0.342004
0.327372
0.315046
0.276847
0.276027
0.304831
0.296531
0.289858
0.28452
0.280279
0.273594
0.27425
0.276359
0.279431
0.283312
0.288161
0.294154
0.301515
0.310398
0.320914
0.333107
0.346844
0.362007
0.378304
0.395296
0.412556
0.429501
0.446191
0.463231
0.480196
0.496436
0.511749
0.526432
0.540808
0.55383
0.565084
0.574532
0.582313
0.588621
0.59367
0.597687
0.600878
0.603428
0.605491
0.607188
0.608616
0.609854
0.61096
0.611983
0.612965
0.613949
0.614984
0.616141
0.617553
0.619495
0.622552
0.62798
0.638256
0.657693
0.691698
0.74363
0.806854
0.863007
0.898101
0.913894
0.918519
0.917916
0.915176
0.920005
0.921585
0.919848
0.914791
0.917494
0.918017
0.913161
0.896875
0.861051
0.80456
0.741605
0.690267
0.656821
0.637811
0.627723
0.62238
0.619348
0.617408
0.615985
0.614811
0.613757
0.612756
0.611758
0.610727
0.609622
0.608397
0.606998
0.605354
0.603373
0.60094
0.597904
0.594078
0.589239
0.583137
0.575522
0.566173
0.554954
0.541773
0.526599
0.508455
0.4886
0.467916
0.446818
0.425539
0.404626
0.384881
0.366485
0.349708
0.334735
0.3218
0.310881
0.30184
0.276949
0.294415
0.288387
0.283543
0.273962
0.27227
0.274359
0.271753
0.272131
0.274487
0.276928
0.280027
0.2839
0.288687
0.294546
0.301624
0.310062
0.319929
0.331139
0.343567
0.356903
0.3708
0.384901
0.398911
0.412631
0.42593
0.438987
0.452283
0.465812
0.479442
0.493162
0.507273
0.521704
0.535594
0.548412
0.559849
0.56973
0.578058
0.584875
0.590358
0.594695
0.59811
0.600798
0.602926
0.604641
0.606056
0.607258
0.60832
0.609302
0.610258
0.611244
0.612337
0.613668
0.615507
0.618423
0.623636
0.633576
0.652427
0.685716
0.736919
0.799661
0.855659
0.890754
0.906403
0.910796
0.909951
0.907005
0.903208
0.911559
0.916502
0.918098
0.916318
0.911173
0.902643
0.906403
0.909251
0.909921
0.905151
0.888801
0.852775
0.796316
0.734046
0.683781
0.651329
0.633023
0.623368
0.618279
0.615406
0.613576
0.612237
0.611132
0.610135
0.609174
0.608195
0.607153
0.605992
0.60465
0.603045
0.601074
0.598606
0.595476
0.591485
0.586406
0.580008
0.572087
0.562503
0.551242
0.538453
0.524418
0.509308
0.49286
0.47606
0.459349
0.442631
0.425603
0.409137
0.392649
0.376463
0.360795
0.346128
0.332814
0.321066
0.310896
0.302265
0.279674
0.295089
0.289185
0.270805
0.272597
0.270765
0.276611
0.272381
0.270411
0.271199
0.2734
0.275445
0.278076
0.281379
0.285469
0.290474
0.296529
0.303758
0.312241
0.321975
0.332827
0.344516
0.35669
0.368941
0.380853
0.392189
0.402814
0.412768
0.422202
0.431456
0.441006
0.451025
0.461629
0.472935
0.485191
0.498418
0.512042
0.525537
0.538452
0.550383
0.561017
0.57017
0.577801
0.583982
0.588889
0.592735
0.595725
0.598054
0.599889
0.601363
0.602591
0.603656
0.604647
0.605618
0.606664
0.607918
0.609641
0.612379
0.6173
0.626739
0.644784
0.676957
0.726993
0.789021
0.84491
0.880052
0.895576
0.899705
0.898569
0.895355
0.891311
0.886816
0.898971
0.907513
0.91257
0.914194
0.912378
0.907139
0.898453
0.886262
0.890669
0.894629
0.897696
0.898584
0.893962
0.877581
0.841383
0.785035
0.723687
0.674845
0.64368
0.626268
0.617156
0.612385
0.609706
0.608004
0.606756
0.605717
0.604757
0.603801
0.602784
0.601641
0.600292
0.598643
0.596572
0.593925
0.590517
0.586129
0.580532
0.573519
0.564936
0.554756
0.543081
0.530188
0.516514
0.502526
0.488514
0.474565
0.46124
0.448597
0.436427
0.424341
0.412206
0.399741
0.386808
0.373485
0.360137
0.34716
0.334853
0.323555
0.313512
0.304875
0.28438
0.297516
0.269764
0.269804
0.280505
0.271848
0.270195
0.27422
0.270915
0.269475
0.270709
0.272593
0.274347
0.276645
0.279551
0.283168
0.287608
0.292995
0.299447
0.307055
0.315836
0.325723
0.336492
0.347801
0.35922
0.370301
0.380649
0.390008
0.398303
0.405629
0.412195
0.418273
0.424269
0.430539
0.437339
0.444887
0.453367
0.462991
0.473908
0.485879
0.498583
0.511643
0.524614
0.537026
0.548449
0.558559
0.567167
0.574276
0.579982
0.584456
0.587918
0.590591
0.592657
0.594284
0.595613
0.596751
0.597798
0.598855
0.600069
0.60169
0.60424
0.608818
0.617646
0.634668
0.665367
0.713814
0.774847
0.830615
0.865848
0.881249
0.885076
0.883594
0.880052
0.875698
0.870875
0.865579
0.881839
0.894247
0.902978
0.908143
0.909797
0.907946
0.902607
0.893769
0.881366
0.870457
0.875139
0.879363
0.882716
0.883885
0.87948
0.863094
0.826708
0.770584
0.710412
0.663347
0.633751
0.617403
0.608931
0.60452
0.602048
0.600468
0.59929
0.598274
0.597289
0.596245
0.595053
0.593619
0.591824
0.589527
0.586544
0.582668
0.577674
0.571335
0.563482
0.554063
0.543147
0.53099
0.517998
0.504663
0.491484
0.478882
0.467089
0.456193
0.446365
0.437476
0.429258
0.421314
0.413309
0.404806
0.395546
0.385382
0.374377
0.362722
0.350761
0.338961
0.327898
0.317783
0.291366
0.308764
0.86529
0.300961
0.269056
0.286297
0.269149
0.277401
0.269472
0.272383
0.271282
0.269886
0.269866
0.268844
0.27031
0.271858
0.273388
0.275415
0.277995
0.281238
0.285238
0.29011
0.295969
0.302914
0.311
0.320192
0.330321
0.341112
0.352159
0.362987
0.373145
0.382275
0.390159
0.396777
0.402238
0.406766
0.410632
0.414129
0.417594
0.421274
0.425403
0.430225
0.435933
0.442718
0.450791
0.460151
0.47072
0.48234
0.494728
0.507492
0.520154
0.532213
0.543231
0.552903
0.561074
0.56774
0.573037
0.577153
0.580317
0.582745
0.584631
0.586146
0.587428
0.588614
0.589863
0.591432
0.59381
0.598026
0.606162
0.621987
0.650905
0.697348
0.757085
0.812636
0.847992
0.863256
0.866728
0.864832
0.860893
0.856161
0.850936
0.845247
0.83927
0.859961
0.876515
0.889151
0.898047
0.90331
0.904992
0.903105
0.89768
0.888699
0.876102
0.859779
0.845381
0.850877
0.855906
0.860457
0.864162
0.865677
0.861543
0.845191
0.808619
0.752813
0.694147
0.649191
0.621419
0.606288
0.598518
0.594487
0.592208
0.590714
0.589544
0.58846
0.58732
0.586005
0.584394
0.582342
0.579672
0.57619
0.571663
0.565861
0.558617
0.549816
0.539503
0.527917
0.515428
0.502535
0.489739
0.477506
0.466215
0.456068
0.447131
0.439383
0.432739
0.427018
0.42195
0.417173
0.412374
0.407279
0.401409
0.394505
0.386406
0.377044
0.366597
0.355544
0.344294
0.333189
0.322777
0.313333
0.839563
0.304951
0.294344
0.268579
0.282151
0.268708
0.274933
0.268996
0.270994
0.26932
0.269144
0.270726
0.269626
0.268419
0.833218
0.854234
0.87105
0.883892
0.892935
0.898286
0.899997
0.898082
0.892572
0.883467
0.870693
0.854143
0.833655
0.815248
0.821433
0.827328
0.832779
0.837725
0.841848
0.843796
0.839995
0.823701
0.786981
0.73164
0.674813
0.632317
0.606592
0.592787
0.585754
0.582085
0.579953
0.578466
0.577186
0.575871
0.574348
0.572461
0.570029
0.566852
0.562703
0.557353
0.550607
0.542341
0.532569
0.521494
0.509448
0.496919
0.484423
0.472438
0.461387
0.451524
0.442964
0.435711
0.429695
0.424768
0.420792
0.417559
0.414855
0.412425
0.410026
0.407334
0.404108
0.400019
0.394781
0.388182
0.380217
0.37099
0.360671
0.349813
0.338778
0.328096
0.318123
0.297724
0.309161
0.809015
0.269887
0.271118
0.272463
0.27424
0.276546
0.279472
0.283099
0.287535
0.29289
0.299269
0.306746
0.315327
0.324912
0.335272
0.346052
0.356803
0.367048
0.376364
0.384451
0.391159
0.396508
0.40064
0.403778
0.406174
0.40807
0.409718
0.411331
0.413114
0.415202
0.417803
0.421116
0.425314
0.430582
0.437049
0.444798
0.45386
0.46418
0.475582
0.487762
0.500298
0.512687
0.524419
0.535065
0.544328
0.552078
0.558353
0.563289
0.567103
0.570026
0.572281
0.574075
0.57559
0.577021
0.578634
0.580901
0.584771
0.592174
0.606666
0.63354
0.677586
0.735657
0.790853
0.826327
0.841414
0.844449
0.842063
0.837647
0.832456
0.82674
0.820578
0.814171
0.807733
0.288802
0.268304
0.301352
0.29163
0.278784
0.268475
0.272997
0.268731
0.27
0.268986
0.26865
0.269185
0.268193
0.270104
0.269316
0.779963
0.786576
0.793186
0.799571
0.805513
0.810954
0.815571
0.818036
0.814669
0.798495
0.761669
0.707018
0.652392
0.612696
0.589206
0.576789
0.57048
0.567118
0.565036
0.563413
0.561823
0.560002
0.557734
0.554801
0.550973
0.546012
0.539713
0.531927
0.522667
0.512065
0.500434
0.488256
0.476069
0.46433
0.453494
0.443834
0.435495
0.428518
0.422829
0.41832
0.414836
0.412247
0.410374
0.408972
0.407924
0.407128
0.406334
0.405366
0.404036
0.402074
0.399231
0.395258
0.389959
0.383163
0.374962
0.365433
0.355032
0.344194
0.333331
0.322987
0.313551
0.271496
0.273076
0.27514
0.277788
0.281084
0.285134
0.290044
0.295918
0.30284
0.310847
0.319891
0.329804
0.340291
0.350944
0.361293
0.370884
0.379348
0.386457
0.39214
0.396463
0.399597
0.401757
0.403173
0.404055
0.404589
0.404947
0.405267
0.40569
0.406318
0.407257
0.408677
0.410744
0.413621
0.41745
0.422377
0.428534
0.436014
0.444845
0.454961
0.466171
0.478144
0.490435
0.502534
0.513922
0.524183
0.533032
0.540378
0.54627
0.550879
0.554431
0.557172
0.559349
0.561206
0.563041
0.565314
0.568909
0.575587
0.588666
0.613269
0.654531
0.710522
0.76516
0.800684
0.815523
0.818
0.815034
0.810043
0.804291
0.797987
0.791263
0.784356
0.777477
0.770683
0.801314
0.827133
0.848436
0.865482
0.878503
0.887672
0.8931
0.89484
0.892908
0.887333
0.878114
0.865193
0.848439
0.827707
0.802784
0.270292
0.77342
0.294652
0.305133
0.269386
0.284223
0.268208
0.766964
0.796583
0.821745
0.842684
0.859591
0.872647
0.881954
0.887575
0.889516
0.887751
0.882258
0.872982
0.859806
0.842563
0.821022
0.794922
0.763988
0.286563
0.276075
0.268408
0.269411
0.27047
0.271876
0.27373
0.276134
0.279138
0.282844
0.287351
0.292771
0.299185
0.30665
0.315154
0.324589
0.334718
0.345187
0.355557
0.365366
0.374205
0.381777
0.387937
0.392681
0.396126
0.398456
0.399882
0.400608
0.400816
0.400654
0.400252
0.399715
0.399136
0.39859
0.398179
0.397972
0.398029
0.398481
0.39948
0.401169
0.403691
0.407191
0.411817
0.417702
0.424934
0.433541
0.443439
0.45442
0.466145
0.478152
0.489913
0.500922
0.510758
0.51918
0.52611
0.531633
0.535941
0.539291
0.541973
0.544325
0.546822
0.550286
0.556323
0.567973
0.590133
0.628222
0.681656
0.735439
0.770897
0.785362
0.787134
0.783458
0.777766
0.771334
0.76434
0.756978
0.749515
0.742162
0.73498
0.72799
0.297883
0.289054
0.27154
0.268643
0.269307
0.268826
0.268356
0.268944
0.26814
0.268969
0.268922
0.269392
0.268803
0.268057
0.268394
0.732654
0.73936
0.746245
0.753273
0.760371
0.767306
0.77386
0.779869
0.785098
0.788174
0.785374
0.769434
0.73262
0.678928
0.62693
0.590352
0.569228
0.558202
0.55255
0.549375
0.547169
0.545168
0.54294
0.540183
0.536627
0.532021
0.526136
0.518817
0.510021
0.499902
0.488709
0.47693
0.465028
0.453576
0.442968
0.433523
0.425394
0.418664
0.413228
0.409005
0.405859
0.403626
0.402189
0.401384
0.401069
0.400908
0.400998
0.401347
0.40167
0.401824
0.4018
0.401328
0.400248
0.398344
0.395369
0.391095
0.385345
0.378132
0.369527
0.359712
0.349126
0.338403
0.327901
0.318019
0.309152
0.760619
0.291722
0.301237
0.218455
0.726126
0.280488
0.268249
0.790428
0.815767
0.836856
0.853904
0.867061
0.876429
0.882081
0.884024
0.882235
0.87669
0.867324
0.854023
0.836615
0.81488
0.788561
0.757402
0.721201
0.282383
0.273936
0.268468
0.269213
0.270624
0.272303
0.274471
0.277219
0.280627
0.284781
0.289778
0.295727
0.302687
0.31067
0.319608
0.329325
0.339523
0.349805
0.359725
0.368852
0.376844
0.383486
0.388714
0.392587
0.395253
0.396906
0.397744
0.39795
0.397677
0.397052
0.396168
0.395111
0.393944
0.392723
0.391502
0.390334
0.389293
0.388428
0.387778
0.387433
0.387518
0.38817
0.389529
0.391736
0.394937
0.399278
0.404892
0.411862
0.420209
0.429842
0.440548
0.451968
0.463626
0.474994
0.485565
0.494944
0.502906
0.509415
0.514589
0.518674
0.522016
0.525095
0.528698
0.534275
0.544576
0.564193
0.598734
0.649048
0.701578
0.736774
0.750679
0.751556
0.747015
0.740479
0.733253
0.72549
0.717444
0.709403
0.701587
0.694056
0.686829
0.679911
0.284397
0.270472
0.268673
0.294501
0.286528
0.268826
0.26881
0.268244
0.268846
0.268208
0.268803
0.268652
0.268422
0.267731
0.754389
0.719798
0.26769
0.266567
0.686862
0.693508
0.700437
0.707641
0.715091
0.722713
0.730275
0.737505
0.74422
0.750156
0.753992
0.751931
0.736374
0.699766
0.6474
0.598511
0.56534
0.546644
0.536937
0.53179
0.528586
0.525962
0.52319
0.519826
0.515534
0.510053
0.503191
0.494884
0.485222
0.474506
0.463125
0.451619
0.440457
0.430171
0.420972
0.413099
0.406585
0.40142
0.397444
0.394581
0.392658
0.391527
0.391114
0.391149
0.391368
0.392191
0.393036
0.394029
0.395116
0.396174
0.397139
0.397946
0.398475
0.39858
0.398158
0.396965
0.39481
0.391452
0.386721
0.380464
0.372693
0.363695
0.353727
0.343198
0.332637
0.322506
0.313146
0.304754
0.266183
0.267252
0.288819
0.297462
0.289577
0.277447
0.268395
0.784323
0.809788
0.831001
0.84814
0.861345
0.870758
0.876425
0.878366
0.876555
0.870967
0.861533
0.848137
0.830607
0.808722
0.782246
0.750936
0.714625
0.673311
0.278958
0.272287
0.268626
0.254433
0.270749
0.272747
0.275299
0.278447
0.28229
0.286921
0.292433
0.298912
0.306402
0.314848
0.324122
0.333981
0.344078
0.353993
0.363297
0.371617
0.378687
0.384382
0.388707
0.391769
0.39374
0.394808
0.395158
0.394947
0.394308
0.393342
0.392129
0.390731
0.389198
0.387571
0.385886
0.384175
0.382476
0.380825
0.379271
0.377866
0.376639
0.375641
0.374972
0.374742
0.375087
0.376145
0.378056
0.380963
0.385012
0.390332
0.397007
0.405049
0.414366
0.424731
0.43577
0.447011
0.457916
0.467993
0.476867
0.484354
0.490468
0.495421
0.499628
0.503806
0.509255
0.518417
0.535491
0.566134
0.612687
0.663434
0.698092
0.711199
0.710969
0.70542
0.697912
0.689816
0.681264
0.672542
0.663976
0.655781
0.648007
0.640665
0.633756
0.62727
0.280549
0.269686
0.26881
0.282245
0.268553
0.268905
0.291233
0.284068
0.268266
0.268896
0.268376
0.268778
0.268558
0.268224
0.748274
0.713674
0.267806
0.267318
0.105263
0.266748
0.680501
0.636659
0.642931
0.649592
0.656657
0.664119
0.671947
0.68008
0.688274
0.696259
0.70374
0.710544
0.715268
0.714148
0.699188
0.663035
0.612489
0.56723
0.537718
0.521427
0.512856
0.507939
0.504344
0.500837
0.496735
0.491613
0.48521
0.477408
0.468269
0.458034
0.447124
0.436026
0.425267
0.415298
0.406443
0.398829
0.392581
0.387693
0.384026
0.381419
0.379772
0.378917
0.37877
0.379085
0.379883
0.380894
0.382117
0.383559
0.385082
0.386697
0.388326
0.389903
0.391425
0.392811
0.394022
0.394958
0.395531
0.395598
0.395009
0.393542
0.390981
0.387151
0.38188
0.37513
0.366963
0.357628
0.347502
0.33712
0.326906
0.317187
0.308309
0.300539
0.412975
0.286006
0.29383
0.0295959
0.233852
0.275013
0.268619
0.778265
0.803807
0.825077
0.842257
0.855512
0.86495
0.870618
0.872548
0.87072
0.865098
0.855616
0.842148
0.82453
0.80255
0.775973
0.744591
0.708259
0.667019
0.621192
0.276194
0.271056
0.26886
0.238392
0.254611
0.270708
0.27317
0.276161
0.279781
0.284122
0.289273
0.295319
0.302321
0.310295
0.319117
0.328594
0.338426
0.348233
0.357601
0.366141
0.373553
0.37966
0.384413
0.387879
0.390198
0.391547
0.392106
0.392039
0.391483
0.390546
0.389315
0.387853
0.386211
0.384428
0.382535
0.380557
0.37852
0.376445
0.374356
0.372278
0.370236
0.368262
0.366401
0.364697
0.363173
0.361886
0.360938
0.36043
0.36049
0.361258
0.362875
0.365482
0.369219
0.374215
0.380552
0.388234
0.397166
0.407109
0.417695
0.428438
0.438808
0.448332
0.456683
0.463752
0.469705
0.475063
0.480906
0.489311
0.503986
0.530442
0.572503
0.620808
0.654604
0.666695
0.665165
0.65851
0.649993
0.641046
0.631789
0.622482
0.613561
0.60517
0.597345
0.590084
0.583375
0.577192
0.571502
0.277416
0.269146
0.269029
0.278738
0.268451
0.269092
0.280138
0.268398
0.269039
0.288097
0.281643
0.268618
0.268866
0.268575
0.742281
0.707736
0.268174
0.267682
0.267116
0.26646
0.67443
0.63077
0.588781
0.594807
0.601339
0.608388
0.615963
0.624041
0.632577
0.641349
0.650039
0.658336
0.666079
0.671822
0.671856
0.657713
0.622347
0.574206
0.53316
0.5075
0.493463
0.485697
0.480565
0.476039
0.471051
0.465039
0.457749
0.449165
0.439489
0.429101
0.418495
0.408178
0.398598
0.390107
0.382877
0.376954
0.372339
0.368967
0.366652
0.365278
0.3647
0.364799
0.365382
0.36652
0.367821
0.36933
0.371033
0.372929
0.374858
0.37689
0.378941
0.38094
0.382918
0.384826
0.386658
0.38834
0.389845
0.391101
0.392021
0.392505
0.392393
0.39151
0.389688
0.386711
0.382369
0.376588
0.369355
0.360816
0.351321
0.34125
0.331001
0.321224
0.312025
0.303774
0.296578
0.265666
0.283281
0.290367
0.265778
0.583221
0.273125
0.268907
0.77226
0.797811
0.819105
0.836306
0.849571
0.859001
0.864662
0.866579
0.864739
0.859096
0.84958
0.836072
0.818402
0.796371
0.769756
0.738368
0.702094
0.661012
0.61548
0.566251
0.274003
0.270142
0.269155
0.26754
0.269157
0.271078
0.273577
0.277033
0.281207
0.286115
0.291832
0.298423
0.305922
0.314302
0.323375
0.332887
0.342501
0.351826
0.360477
0.368132
0.374572
0.379704
0.38355
0.386217
0.387864
0.388663
0.388778
0.388353
0.387501
0.386316
0.384866
0.383204
0.381372
0.3794
0.377314
0.375134
0.372879
0.370564
0.368206
0.365822
0.363427
0.361039
0.358677
0.356365
0.354131
0.352016
0.350064
0.348293
0.34676
0.345563
0.344798
0.344587
0.34507
0.346384
0.348674
0.352075
0.356708
0.36265
0.369907
0.378376
0.387818
0.39786
0.408022
0.417802
0.426774
0.434726
0.441792
0.448647
0.456859
0.469465
0.491547
0.528336
0.573449
0.606112
0.617074
0.614186
0.606454
0.597077
0.587416
0.577663
0.568072
0.559067
0.550754
0.543144
0.536215
0.529932
0.524263
0.51915
0.514519
0.274925
0.268826
0.26931
0.275899
0.268482
0.269348
0.266145
0.276933
0.268612
0.269258
0.278047
0.268921
0.269041
0.736406
0.701983
0.285064
0.27926
0.268699
0.268246
0.267697
0.267058
0.266311
0.668631
0.625211
0.578069
0.532791
0.537855
0.54347
0.549659
0.55647
0.563918
0.572026
0.580749
0.589928
0.599169
0.608185
0.616849
0.623642
0.624953
0.611813
0.577555
0.532497
0.496279
0.474567
0.462469
0.454992
0.449049
0.443008
0.436098
0.428064
0.41899
0.409202
0.399164
0.389377
0.380286
0.372221
0.365396
0.359868
0.3556
0.352526
0.350524
0.349442
0.349133
0.349491
0.350332
0.351644
0.353211
0.355008
0.356965
0.359056
0.361333
0.363591
0.365945
0.368313
0.370647
0.372951
0.37522
0.377459
0.379601
0.381656
0.383567
0.3853
0.386814
0.388023
0.388835
0.389128
0.388783
0.387592
0.385344
0.381897
0.377059
0.370806
0.36319
0.354424
0.344887
0.334954
0.325066
0.315709
0.307171
0.299534
0.292831
0.280606
0.265439
0.287027
0.265016
0.528194
0.271689
0.269243
0.766313
0.791823
0.813087
0.830263
0.843511
0.852929
0.858576
0.860481
0.858626
0.852971
0.84344
0.829915
0.812229
0.790187
0.763585
0.732246
0.696098
0.655228
0.610049
0.561342
0.510277
0.272323
0.269495
0.269496
0.269478
0.27191
0.274822
0.278425
0.282909
0.288308
0.294576
0.301692
0.309627
0.3183
0.327462
0.336818
0.346012
0.354673
0.36247
0.369156
0.3746
0.378782
0.381776
0.383717
0.384766
0.385084
0.384814
0.384079
0.382974
0.381575
0.379938
0.378108
0.376118
0.373994
0.371757
0.369424
0.36701
0.364527
0.361987
0.359403
0.356785
0.354147
0.3515
0.348858
0.346236
0.343649
0.341119
0.338674
0.336352
0.33419
0.332211
0.330465
0.329044
0.328041
0.327568
0.327761
0.328761
0.330708
0.333735
0.337953
0.34344
0.350197
0.358119
0.366973
0.376394
0.385931
0.39515
0.403785
0.411965
0.420522
0.431522
0.44919
0.479933
0.521107
0.552594
0.562632
0.55859
0.550055
0.540155
0.530147
0.520278
0.510799
0.502076
0.494178
0.487084
0.480747
0.475123
0.470155
0.465777
0.461864
0.458438
0.272989
0.268684
0.26964
0.267438
0.265041
0.273654
0.268619
0.269656
0.274355
0.268892
0.269538
0.730612
0.696357
0.27512
0.269267
0.275953
0.269285
0.268905
0.28209
0.276894
0.26841
0.267812
0.267092
0.266237
0.663065
0.619931
0.573226
0.523948
0.476986
0.480941
0.48536
0.490361
0.495992
0.502318
0.509379
0.517201
0.525793
0.535036
0.544535
0.554044
0.563376
0.571073
0.573598
0.561428
0.528474
0.487205
0.456418
0.438605
0.427962
0.420185
0.412951
0.405221
0.396708
0.387558
0.378161
0.368987
0.360472
0.352939
0.346585
0.341491
0.337629
0.334905
0.333222
0.332445
0.332424
0.333025
0.334114
0.335603
0.337378
0.339391
0.341559
0.343888
0.346309
0.348861
0.35142
0.353993
0.356651
0.359223
0.361784
0.364333
0.366873
0.369344
0.371769
0.374093
0.376299
0.378411
0.380341
0.382058
0.383501
0.384603
0.385264
0.385344
0.384676
0.383142
0.380484
0.376592
0.371305
0.364677
0.356777
0.347858
0.338433
0.328785
0.319461
0.310657
0.302639
0.295457
0.28914
0.277938
0.264565
0.283685
0.265297
0.473486
0.270606
0.269615
0.760409
0.785838
0.807044
0.824166
0.837376
0.846765
0.852383
0.854261
0.852392
0.846732
0.837204
0.823681
0.806006
0.783992
0.75744
0.726202
0.690242
0.649668
0.604924
0.55679
0.506459
0.45545
0.271063
0.269088
0.269872
0.269816
0.272749
0.276216
0.280281
0.285117
0.290856
0.297528
0.305054
0.313332
0.322141
0.331198
0.34019
0.34877
0.35661
0.363451
0.369128
0.373588
0.376873
0.379091
0.380385
0.380911
0.380811
0.380209
0.379206
0.377881
0.376296
0.374498
0.372522
0.370397
0.368145
0.365783
0.363325
0.360785
0.358174
0.355501
0.352776
0.350007
0.347203
0.344375
0.341529
0.338677
0.335827
0.332993
0.330187
0.327421
0.324719
0.322104
0.31961
0.317273
0.315121
0.313193
0.31157
0.310343
0.309613
0.30951
0.310175
0.311743
0.314349
0.3181
0.323062
0.329239
0.336534
0.344727
0.35349
0.362451
0.371344
0.380222
0.389907
0.403188
0.427119
0.463695
0.494442
0.50432
0.499741
0.490952
0.481069
0.471247
0.461763
0.452844
0.444791
0.437636
0.431329
0.425809
0.421014
0.416882
0.41334
0.410261
0.407671
0.40553
0.264204
0.271498
0.268681
0.270007
0.265756
0.267389
0.271918
0.268836
0.270006
0.72491
0.690883
0.272333
0.269221
0.269648
0.272788
0.269864
0.269584
0.273288
0.269173
0.273852
0.268646
0.27909
0.274509
0.267993
0.267194
0.266271
0.657697
0.614947
0.568757
0.520125
0.470424
0.423578
0.426283
0.429481
0.43313
0.437365
0.442265
0.44788
0.454275
0.461502
0.469587
0.47847
0.487795
0.497347
0.506904
0.515108
0.518433
0.506758
0.474963
0.438132
0.413324
0.399245
0.38962
0.381287
0.372977
0.364377
0.355648
0.347153
0.339291
0.332371
0.326576
0.321982
0.318569
0.316259
0.314933
0.314469
0.314736
0.315589
0.316879
0.318579
0.320537
0.3227
0.325061
0.327553
0.330161
0.33284
0.335617
0.338398
0.34118
0.344033
0.346835
0.349593
0.352364
0.355137
0.357853
0.360556
0.363175
0.365708
0.368188
0.370565
0.372823
0.374915
0.376804
0.378458
0.379807
0.380766
0.381173
0.381047
0.380091
0.378194
0.375136
0.370829
0.365174
0.358257
0.350228
0.341476
0.332228
0.323034
0.314134
0.305771
0.29815
0.29136
0.285473
0.275266
0.265249
0.264277
0.280372
0.421321
0.269823
0.270016
0.754546
0.779855
0.80096
0.818016
0.831167
0.840505
0.846084
0.847935
0.846054
0.840396
0.830876
0.817378
0.79974
0.777783
0.751331
0.720256
0.684532
0.644318
0.600073
0.552589
0.50302
0.45286
0.403798
0.26359
0.270112
0.268871
0.264119
0.263151
0.270275
0.26441
0.265408
0.26745
0.270285
0.273671
0.277653
0.282283
0.287615
0.293748
0.300725
0.308469
0.316841
0.325592
0.334357
0.342789
0.350588
0.357491
0.363319
0.36799
0.371516
0.373977
0.375501
0.376231
0.376304
0.375845
0.374957
0.373723
0.372207
0.37046
0.36852
0.366416
0.364173
0.361809
0.35934
0.356778
0.354135
0.35142
0.348642
0.34581
0.342929
0.340009
0.337056
0.334077
0.331078
0.328067
0.32505
0.322036
0.319034
0.316053
0.313106
0.310205
0.307369
0.304621
0.30199
0.29951
0.297215
0.295132
0.293322
0.291879
0.290896
0.290488
0.290793
0.291947
0.29408
0.297298
0.301666
0.307193
0.313792
0.321268
0.329317
0.33754
0.345589
0.354356
0.370483
0.401642
0.432698
0.443963
0.439884
0.431601
0.422383
0.413339
0.404745
0.396792
0.389728
0.383559
0.378221
0.373642
0.369755
0.366498
0.363798
0.361541
0.359757
0.358415
0.357467
0.27036
0.268788
0.270402
0.719299
0.685555
0.270575
0.269117
0.269589
0.270777
0.270387
0.270227
0.270965
0.270056
0.269925
0.271169
0.26949
0.271406
0.268929
0.271699
0.268217
0.27606
0.272078
0.267358
0.266379
0.652553
0.610245
0.564631
0.516686
0.467772
0.419481
0.373412
0.374488
0.375968
0.377891
0.380303
0.383147
0.386562
0.390613
0.395372
0.400895
0.407254
0.414499
0.422595
0.43126
0.440303
0.449491
0.457532
0.460809
0.448455
0.417139
0.385401
0.367211
0.35681
0.348257
0.339992
0.331857
0.324064
0.316911
0.310673
0.305512
0.301489
0.298581
0.296727
0.295803
0.295687
0.296239
0.297333
0.298846
0.300713
0.302831
0.30515
0.307641
0.310284
0.31303
0.315853
0.318733
0.321679
0.324637
0.327602
0.330608
0.333583
0.336519
0.339459
0.342411
0.345317
0.348222
0.351066
0.353836
0.356581
0.359287
0.361905
0.364398
0.366764
0.368994
0.371037
0.372862
0.374412
0.37562
0.37642
0.37667
0.376246
0.374981
0.372737
0.369358
0.364711
0.358832
0.351767
0.343834
0.335254
0.326306
0.31737
0.308825
0.300915
0.293685
0.287215
0.281628
0.2725
0.27685
0.272937
0.265284
0.265819
0.269297
0.27468
0.27143
0.264075
0.262909
0.263362
0.263793
0.265116
0.262567
0.262499
0.263209
0.26199
0.261486
0.261643
0.260705
0.261509
0.260382
0.262731
0.259392
0.260148
0.261291
0.270439
0.74873
0.773883
0.794867
0.811827
0.824894
0.834167
0.839703
0.841528
0.839632
0.833977
0.82448
0.811016
0.79344
0.771578
0.745267
0.714397
0.678969
0.63918
0.595498
0.548702
0.499932
0.450646
0.402437
0.356874
0.282599
0.288784
0.295727
0.303423
0.31166
0.320199
0.328881
0.337403
0.345323
0.352363
0.358368
0.363195
0.366868
0.369397
0.370913
0.371581
0.371528
0.370952
0.369881
0.368438
0.366701
0.364722
0.362548
0.360212
0.357733
0.355122
0.352446
0.349665
0.346791
0.343855
0.340906
0.337946
0.334929
0.331869
0.328815
0.325726
0.322654
0.319562
0.316455
0.313326
0.310225
0.307131
0.304052
0.301024
0.298038
0.295105
0.292251
0.289507
0.286893
0.28444
0.282188
0.280155
0.278436
0.277097
0.276242
0.275992
0.276481
0.277839
0.280181
0.283573
0.288045
0.293539
0.299885
0.306727
0.313482
0.319987
0.330657
0.355958
0.387712
0.402824
0.400875
0.393793
0.385582
0.377572
0.369986
0.362981
0.356801
0.351461
0.346899
0.34305
0.339847
0.337227
0.335106
0.333423
0.332206
0.331406
0.330984
0.269444
0.268808
0.270699
0.647601
0.605791
0.560791
0.513579
0.465474
0.417997
0.372685
0.330893
0.259274
0.260818
0.262682
0.264938
0.267659
0.27091
0.27474
0.279209
0.284353
0.290195
0.296734
0.303961
0.311803
0.32008
0.328503
0.336714
0.344411
0.351299
0.357196
0.362005
0.365713
0.368377
0.370103
0.371022
0.371265
0.370951
0.370186
0.369053
0.367619
0.365937
0.364047
0.361982
0.359765
0.357418
0.354957
0.352395
0.349744
0.347013
0.344213
0.341351
0.338433
0.335467
0.332459
0.329416
0.326343
0.323246
0.320129
0.316997
0.313857
0.310714
0.307574
0.304445
0.301334
0.29825
0.295204
0.292206
0.289273
0.286427
0.28369
0.281097
0.278676
0.276456
0.274478
0.272827
0.27159
0.270866
0.270786
0.271488
0.273099
0.275729
0.279439
0.284225
0.289935
0.296124
0.301762
0.305875
0.313054
0.336731
0.369027
0.384146
0.381957
0.374982
0.367008
0.359232
0.351898
0.345172
0.33927
0.334189
0.329868
0.326236
0.323227
0.320783
0.318833
0.317304
0.316227
0.315556
0.315251
0.315283
0.26953
0.268982
0.269446
0.26957
0.27082
0.270793
0.269566
0.269986
0.71378
0.680359
0.270618
0.269539
0.270484
0.270298
0.269503
0.269841
0.269465
0.269239
0.269452
0.268479
0.269495
0.267578
0.269607
0.26655
0.270044
0.265395
0.264105
0.258022
0.258626
0.262689
0.256672
0.25703
0.268985
0.250312
0.262672
0.259671
0.261133
0.270879
0.277119
0.282226
0.288849
0.29684
0.305291
0.313916
0.322509
0.330816
0.338567
0.345616
0.35172
0.356698
0.36053
0.363281
0.36508
0.365954
0.366114
0.365668
0.364751
0.363448
0.36183
0.359943
0.357837
0.355549
0.353107
0.350541
0.347863
0.345076
0.342212
0.339312
0.336298
0.333246
0.330146
0.32704
0.323935
0.320792
0.317616
0.314447
0.311255
0.308074
0.304876
0.301667
0.298446
0.295246
0.292056
0.288884
0.285748
0.282644
0.279583
0.27658
0.273655
0.270822
0.268107
0.265543
0.26316
0.260983
0.259057
0.257469
0.256307
0.255677
0.255713
0.25654
0.258282
0.26099
0.264649
0.268988
0.273207
0.27584
0.278693
0.294641
0.326136
0.346904
0.348
0.342602
0.335807