/*--------------------------------*- C++ -*----------------------------------*\
| =========                 |                                                 |
| \\      /  F ield         | OpenFOAM: The Open Source CFD Toolbox           |
|  \\    /   O peration     | Version:  2212                                  |
|   \\  /    A nd           | Website:  www.openfoam.com                      |
|    \\/     M anipulation  |                                                 |
\*---------------------------------------------------------------------------*/
FoamFile
{
    version     2.0;
    format      ascii;
    arch        "LSB;label=32;scalar=64";
    class       volScalarField;
    location    "0.00083";
    object      p;
}
// * * * * * * * * * * * * * * * * * * * * * * * * * * * * * * * * * * * * * //

dimensions      [1 -1 -2 0 0 0 0];

internalField   nonuniform List<scalar> 
2681
(
190.786
194.318
194.397
190.621
195.196
194.501
190.619
190.625
190.628
190.628
190.624
190.638
190.637
190.678
190.646
190.659
190.66
190.627
190.632
190.636
190.63
190.639
190.638
190.633
190.643
190.64
190.625
190.626
190.623
190.628
190.627
190.632
190.629
190.635
190.635
190.636
190.636
190.638
190.642
190.637
190.64
190.637
190.637
190.63
190.633
194.313
190.628
190.626
190.623
190.624
190.625
190.645
190.663
190.626
190.625
190.636
190.638
190.624
190.623
190.623
190.622
190.631
190.625
190.633
190.633
190.64
190.635
190.646
190.641
190.621
190.657
190.65
190.653
190.64
190.643
190.64
190.624
190.672
194.972
190.625
190.625
190.625
190.626
190.626
190.629
190.626
190.632
190.631
190.634
190.636
190.644
190.633
190.632
190.628
190.63
190.627
190.628
190.625
190.626
190.624
190.624
190.623
190.639
190.653
190.652
190.648
190.623
190.622
190.622
190.657
190.659
190.656
190.658
190.635
190.639
190.639
190.624
190.623
190.623
190.642
190.678
190.659
195.987
190.643
190.646
190.642
190.622
194.409
190.622
190.758
190.704
190.627
190.626
190.628
190.627
190.634
190.631
190.641
190.639
190.649
190.643
190.655
190.653
190.656
190.642
190.648
190.68
190.624
192.699
190.627
190.625
190.623
190.622
190.622
190.624
190.624
190.626
190.625
190.628
190.627
190.631
190.629
190.633
190.632
190.638
190.635
190.688
190.64
190.632
190.634
190.631
190.631
190.629
190.63
190.626
190.627
190.624
190.625
190.623
190.622
190.621
190.621
190.622
190.618
190.623
190.626
190.665
190.665
190.668
190.656
190.646
190.653
190.621
190.642
190.643
190.625
190.624
190.661
190.658
190.621
190.621
240.311
232.854
232.862
240.317
190.621
190.621
190.621
190.644
190.673
190.619
190.622
190.871
194.375
194.776
190.65
190.644
194.164
190.622
190.704
190.625
190.624
190.628
190.627
190.629
190.629
190.638
190.632
190.643
190.641
190.652
190.647
190.662
190.658
190.666
190.655
190.657
190.647
190.652
190.635
190.638
190.631
190.633
190.627
190.629
190.626
226.73
221.642
217.375
213.77
210.704
208.082
205.829
203.888
202.205
200.737
200.719
199.452
198.329
198.312
199.435
203.872
202.184
208.076
205.821
213.771
210.701
221.65
217.38
226.738
190.623
190.621
190.624
190.623
190.625
190.624
190.628
190.626
190.629
190.629
190.632
190.63
190.635
190.633
190.85
190.636
190.643
190.639
190.643
190.639
190.639
190.632
190.636
190.632
190.631
190.631
190.631
190.627
190.629
190.625
190.626
190.623
190.624
190.622
190.623
190.621
190.621
190.621
190.622
190.622
190.623
190.622
190.808
190.848
190.658
190.647
190.648
190.657
190.622
190.693
249.523
249.532
190.62
191.102
200.76
199.492
190.662
195.873
190.645
190.662
190.622
190.623
249.528
261.134
261.139
190.62
190.62
190.621
190.621
197.284
197.352
190.643
190.649
190.676
190.665
190.646
190.647
194.377
190.692
190.714
190.619
190.623
190.622
190.622
190.654
190.653
190.621
190.621
190.62
190.622
190.621
190.622
190.625
190.625
190.629
190.627
190.632
190.63
190.639
190.634
190.645
190.642
190.655
190.65
190.668
190.66
190.675
190.669
190.706
190.665
190.68
190.654
190.659
190.645
190.65
190.637
190.64
190.632
190.634
190.628
190.63
190.625
190.626
190.624
232.854
240.312
221.637
226.728
213.764
217.369
208.082
210.699
203.895
205.834
202.217
249.542
261.151
261.142
196.414
196.502
190.904
198.379
197.385
200.717
199.454
203.856
202.17
208.066
205.806
213.767
210.696
221.649
217.377
232.869
226.743
240.326
190.622
190.621
190.623
190.622
190.624
190.623
190.627
190.625
190.628
190.628
190.63
190.629
190.634
190.632
190.635
190.634
190.641
190.638
190.645
190.64
190.639
190.644
190.644
190.645
190.64
190.647
190.639
190.639
190.636
190.639
190.633
190.633
190.631
190.632
190.629
190.63
190.626
190.628
190.624
190.625
190.623
190.623
190.622
190.622
190.621
190.621
190.62
190.621
190.621
190.622
194.131
190.786
198.401
190.661
190.65
190.653
190.66
190.62
193.663
190.698
190.643
249.553
261.176
190.619
190.848
190.623
190.621
190.619
190.62
190.623
190.623
196.514
190.716
190.74
193.864
190.619
200.786
199.526
190.721
190.77
190.754
190.651
190.667
190.667
190.65
190.716
249.56
261.182
190.817
194.315
194.676
190.712
190.685
190.65
190.641
190.645
190.642
190.647
190.649
190.68
190.725
197.451
190.619
190.697
190.792
190.659
190.657
190.62
190.62
190.621
190.621
190.622
190.621
190.62
190.621
190.621
190.625
190.623
190.625
190.625
190.629
190.628
190.633
190.631
190.64
190.636
190.648
190.643
190.66
190.654
190.672
190.665
190.696
190.68
190.715
190.693
190.706
190.668
190.681
190.656
190.661
190.646
190.651
190.639
190.642
190.633
190.636
190.629
190.631
190.625
190.627
190.624
232.863
240.327
221.641
226.733
213.767
217.372
208.086
210.703
203.908
205.842
202.236
276.122
276.146
276.13
190.651
276.177
276.138
195.596
195.113
196.746
196.11
198.445
197.522
200.748
199.507
203.858
202.188
208.057
205.798
213.761
210.689
221.645
217.371
232.871
226.74
240.336
190.62
190.62
190.62
190.621
190.619
190.621
190.622
190.622
190.621
190.623
190.623
190.625
190.624
190.627
190.626
190.629
190.628
190.632
190.63
190.633
190.633
190.635
190.633
190.637
190.637
190.642
190.638
190.638
190.638
190.638
190.641
190.638
190.636
190.637
190.638
190.638
190.641
190.636
190.635
190.633
190.635
190.632
190.632
190.629
190.63
190.627
190.628
190.625
190.626
190.623
190.624
190.622
190.623
190.621
190.622
190.621
190.621
190.619
190.62
190.619
190.62
190.62
190.619
190.62
190.62
190.621
190.621
190.621
190.621
190.622
190.622
193.955
195.737
190.636
190.774
198.436
190.859
190.757
190.84
190.832
190.809
190.656
190.663
190.638
190.641
190.664
190.655
190.713
190.745
190.773
190.619
190.814
190.736
190.713
276.182
194.284
194.682
190.62
190.62
190.619
194.075
190.729
190.674
190.654
190.646
190.648
190.655
190.671
190.704
190.622
190.621
196.601
190.799
192.12
193.99
190.651
190.801
194.622
194.675
190.705
195.593
190.683
190.65
190.653
190.685
190.621
190.622
190.622
296.195
276.227
296.249
197.486
190.619
190.686
190.735
190.773
190.632
190.638
190.66
190.642
190.659
190.721
190.619
190.62
190.62
190.62
190.62
190.62
190.621
190.621
190.621
190.622
190.624
190.623
190.627
190.624
190.629
190.628
190.634
190.631
190.641
190.637
190.651
190.645
190.664
190.657
190.678
190.671
190.7
190.686
190.714
190.808
190.717
190.679
190.694
190.659
190.668
190.647
190.652
190.639
190.643
190.634
190.636
190.629
190.631
190.626
190.627
190.624
190.625
190.623
249.574
261.209
232.872
240.341
221.644
226.739
213.768
217.374
208.093
210.707
203.923
205.852
200.814
202.257
198.47
199.561
296.153
276.225
296.249
296.19
296.121
296.137
296.149
195.615
195.135
196.824
196.163
198.495
197.587
200.782
199.547
203.878
202.216
208.057
205.809
213.75
210.68
221.637
217.362
232.869
226.735
249.572
240.339
261.208
190.62
190.62
190.62
190.619
190.621
190.62
190.622
190.621
190.623
190.622
190.624
190.624
190.626
190.625
190.628
190.627
190.63
190.629
190.631
190.631
190.632
190.631
190.635
190.635
190.635
190.635
190.635
190.635
190.635
190.634
190.636
190.635
190.633
190.635
190.633
190.634
190.631
190.631
190.631
190.631
190.627
190.629
190.626
190.627
190.624
190.625
190.623
190.624
190.622
190.622
190.621
190.621
190.62
190.621
190.618
190.619
190.619
190.619
190.62
190.62
190.62
190.62
190.621
190.621
190.621
190.622
192.695
193.645
190.619
190.781
190.737
190.793
190.667
190.658
190.645
190.643
190.659
190.667
190.705
190.634
190.622
190.764
190.841
194.158
190.75
195.761
190.619
190.79
190.752
276.253
296.295
193.75
194.683
190.659
193.924
190.784
190.717
195.036
195.066
190.681
190.654
190.651
190.653
190.661
190.674
190.692
190.62
190.619
190.622
190.622
190.621
190.621
276.267
296.313
324.164
324.249
190.808
196.628
190.618
190.618
197.523
190.624
190.698
190.619
190.759
190.633
190.662
190.646
190.662
190.711
190.619
190.62
190.62
190.619
190.62
190.62
190.621
190.62
190.622
190.621
190.622
190.622
190.621
190.622
190.622
190.623
190.623
190.627
190.625
190.63
190.628
190.635
190.632
190.642
190.638
190.653
190.647
190.668
190.66
190.687
190.677
190.712
190.698
190.731
190.78
190.701
190.725
190.667
190.681
190.652
190.658
190.644
190.647
190.638
190.641
190.633
190.635
190.629
190.631
190.626
190.628
190.624
190.625
190.623
249.59
261.235
232.878
240.351
221.648
226.743
213.777
217.38
208.104
210.716
203.94
205.865
200.842
202.279
198.519
199.598
324.091
324.244
324.159
324.068
324.074
324.088
195.529
195.056
196.828
196.147
198.523
197.618
200.806
199.579
203.89
202.232
208.06
205.817
213.745
210.679
221.629
217.354
232.863
226.726
249.577
240.336
261.221
195.409
190.62
190.62
190.62
190.62
190.62
190.62
190.621
190.621
190.622
190.622
190.624
190.623
190.625
190.624
190.626
190.626
190.628
190.627
190.629
190.629
190.631
190.63
190.633
190.632
190.633
190.633
190.633
190.633
190.633
190.633
190.634
190.633
190.631
190.633
190.631
190.633
190.63
190.63
190.629
190.63
190.626
190.628
190.625
190.626
190.624
190.624
190.622
190.623
190.621
190.622
190.62
190.621
190.62
190.62
190.62
190.62
190.619
190.619
190.619
190.62
190.62
190.62
190.62
190.62
190.62
190.621
190.819
190.82
324.327
193.482
193.621
193.886
190.847
190.784
190.657
193.702
190.764
190.733
190.773
195.246
190.948
194.908
190.675
190.66
190.651
190.647
190.664
190.67
190.703
190.631
190.619
190.621
190.621
190.778
194.164
190.798
190.758
190.621
324.35
190.856
190.796
195.874
190.618
190.868
196.703
197.587
190.663
193.883
190.772
190.713
190.882
190.683
190.657
190.681
365.237
365.285
193.357
190.697
190.986
190.621
190.649
193.248
193.458
190.751
190.628
190.905
192.94
190.666
190.654
190.667
190.713
190.619
190.619
190.619
190.619
190.619
190.62
190.619
190.62
190.62
190.62
190.62
190.621
190.62
190.621
190.621
190.621
190.622
190.621
190.624
190.622
190.627
190.625
190.63
190.628
190.636
190.633
190.644
190.64
190.654
190.648
190.671
190.662
190.697
190.682
190.74
190.716
190.758
190.868
190.69
190.721
190.653
190.667
190.641
190.645
190.637
190.638
190.634
190.636
190.632
190.633
190.629
190.63
190.626
190.627
190.624
190.625
190.622
190.623
190.621
190.622
276.285
324.419
296.345
249.594
261.244
232.877
240.352
221.65
226.743
213.782
217.384
208.115
210.724
203.956
205.878
200.869
202.3
198.563
199.632
190.953
365.151
365.19
365.147
365.144
365.193
365.151
365.3
365.246
195.511
194.966
196.843
196.157
198.542
197.635
200.825
199.598
203.905
202.25
208.067
205.828
213.745
210.682
221.623
217.352
232.857
226.72
249.579
240.334
276.274
261.231
324.408
296.336
190.619
190.618
190.618
191.027
190.619
190.619
190.619
190.641
190.619
190.619
190.62
190.619
190.62
190.62
190.621
190.62
190.622
190.621
190.623
190.622
190.624
190.624
190.625
190.625
190.627
190.626
190.628
190.628
190.629
190.628
190.631
190.63
190.631
190.631
190.631
190.631
190.631
190.631
190.632
190.632
190.63
190.631
190.629
190.63
190.628
190.629
190.627
190.628
190.626
190.626
190.624
190.625
190.623
190.624
190.622
190.622
190.621
190.621
190.62
190.621
190.62
190.62
190.619
190.62
190.619
190.619
190.619
190.619
190.619
190.618
190.619
190.619
190.619
190.619
190.62
190.62
190.62
190.62
190.621
190.62
190.621
190.621
194.227
194.012
193.533
193.772
194.262
194.59
190.871
196.793
197.641
190.66
193.56
190.754
190.722
190.758
190.922
190.619
190.974
190.871
196.032
190.68
190.664
190.659
190.649
190.666
190.675
190.693
190.715
190.619
190.942
190.621
365.335
365.328
192.364
193.288
193.091
194.645
190.707
190.69
190.622
190.619
190.675
190.831
190.772
191.448
191.577
191.627
191.447
193.097
196.85
190.743
190.66
193.29
190.74
190.748
190.942
190.894
194.08
193.845
190.618
193.6
196.182
196.136
193.7
190.671
190.662
190.671
190.705
190.619
190.619
190.619
190.619
190.619
190.619
190.62
190.619
190.62
190.62
190.621
190.62
190.621
190.621
190.621
190.621
190.621
190.622
190.621
190.624
190.623
190.627
190.625
190.631
190.629
190.637
190.634
190.645
190.64
190.656
190.65
190.673
190.663
190.702
190.685
190.752
190.726
190.788
190.766
190.839
190.769
190.822
190.882
190.695
190.728
190.651
190.669
190.635
190.641
190.633
190.633
190.632
190.632
190.63
190.631
190.628
190.629
190.626
190.627
190.624
190.625
190.622
190.623
190.621
190.622
190.621
365.352
324.437
296.343
276.278
261.235
249.585
240.343
232.871
226.738
221.647
217.382
213.783
210.727
208.119
205.886
203.966
202.312
200.884
199.65
198.585
197.668
196.882
196.213
195.648
195.174
194.754
194.119
190.946
193.561
379.165
379.169
379.168
379.168
379.167
379.171
379.173
379.166
379.172
379.177
379.177
379.173
379.173
191.058
195.086
195.579
196.167
196.835
197.623
198.535
199.597
200.83
202.258
203.913
205.835
208.072
210.684
213.745
217.35
221.62
226.715
232.852
240.329
249.574
261.229
276.277
296.351
324.47
365.383
379.185
193.336
193.024
193.826
190.707
190.714
191.237
191.203
190.745
190.713
190.701
191.084
190.628
191.929
190.643
192.473
191.014
190.939
194.053
191.045
191.845
191.498
195.489
194.741
195.62
193.416
192.889
191.37
191.815
191.576
191.381
190.823
190.68
190.671
190.664
190.665
190.696
190.686
194.147
193.896
193.653
193.41
193.165
192.928
190.642
190.746
194.914
190.622
191.046
191.083
190.621
190.621
190.621
190.621
190.62
190.62
190.62
190.62
190.62
190.619
190.619
190.619
190.619
190.619
190.619
190.618
190.619
190.619
190.619
190.619
190.619
190.619
190.619
190.619
190.619
190.619
190.619
190.62
190.62
190.62
190.62
190.621
190.621
190.622
190.622
190.623
190.623
190.624
190.624
190.625
190.626
190.626
190.627
190.627
190.628
190.628
190.629
190.629
190.63
190.63
190.63
190.63
190.63
190.63
190.63
190.63
190.629
190.629
190.629
190.628
190.628
190.627
190.627
190.626
190.625
190.625
190.624
190.624
190.623
190.622
190.622
190.621
190.621
190.62
190.62
190.619
190.619
190.619
190.618
190.618
190.618
190.618
380.05
380.064
365.256
379.176
190.619
193.069
190.942
190.618
190.618
190.842
190.736
190.619
190.619
190.619
190.619
190.619
190.619
190.619
190.619
190.619
190.619
190.619
190.62
190.62
190.62
190.62
190.62
190.62
190.62
190.619
190.621
190.622
190.623
190.624
190.625
190.625
190.626
190.628
190.63
190.632
190.634
190.637
190.641
190.646
190.652
190.659
190.667
190.678
190.693
190.716
190.745
190.776
190.804
190.83
190.894
190.855
190.793
190.996
190.926
190.844
190.792
190.766
190.734
190.708
190.69
190.678
190.667
190.659
190.653
190.647
190.643
190.639
190.636
190.633
190.631
190.629
190.627
190.626
190.626
190.625
190.624
190.622
190.623
193.258
190.621
190.62
190.62
190.62
190.62
190.62
190.62
190.62
190.619
190.619
190.619
190.619
190.619
190.619
190.619
190.619
190.619
190.619
190.624
190.619
190.619
190.619
190.619
190.619
190.62
190.62
190.62
190.62
190.62
190.62
190.621
190.621
190.621
190.622
190.622
190.623
190.623
190.624
190.624
190.625
190.625
190.626
190.626
190.626
190.627
190.627
190.628
190.628
190.628
190.628
190.628
190.628
190.628
190.628
190.628
190.628
190.628
190.627
190.627
190.626
190.626
190.626
190.625
190.625
190.624
190.624
190.623
190.623
190.622
190.622
190.622
190.621
190.621
190.621
190.621
190.621
190.621
190.621
190.621
190.62
190.62
190.62
190.619
190.749
191.059
190.619
190.619
192.679
192.372
192.614
192.865
193.156
193.453
193.724
193.997
194.282
194.693
195.138
195.632
196.191
196.846
197.624
198.534
199.595
200.827
202.255
203.911
205.834
208.071
210.683
213.743
217.347
221.615
226.709
232.844
240.319
249.564
261.218
276.271
365.285
324.411
296.352
190.697
190.677
190.663
190.67
191.106
190.856
191.291
192.07
191.921
191.744
191.608
191.455
192.751
190.898
195.153
195.583
380.058
380.069
380.081
380.089
380.093
380.101
380.1
380.093
380.084
380.073
380.062
190.841
195.298
191.686
191.945
191.21
190.751
190.698
190.624
192.517
192.687
192.912
191.223
193.312
193.606
194.463
194.822
195.215
195.673
196.229
196.894
197.678
198.592
199.654
200.886
202.313
203.967
205.887
208.12
210.726
213.781
217.38
221.643
226.733
232.863
240.334
249.574
261.223
276.27
296.342
324.379
193.918
193.842
190.985
190.985
191.147
192.182
190.73
190.732
190.627
190.639
190.621
380.059
379.186
190.698
192.51
191.08
194.322
380.156
380.154
190.62
193.169
192.208
191.155
190.725
190.691
190.67
191.314
190.619
190.628
191.031
190.627
192.489
190.713
191.394
191.045
194.127
324.339
379.279
365.319
276.184
296.255
249.523
261.155
232.833
240.295
221.624
226.709
213.768
217.364
208.11
210.715
203.96
205.879
200.88
202.307
198.587
199.649
196.885
197.671
195.661
196.216
194.787
195.199
194.102
194.421
193.492
193.788
192.929
193.182
192.623
192.809
192.311
192.511
191.77
191.952
191.705
191.704
191.308
375.977
375.978
375.966
376.01
375.995
376.033
376.025
376.024
376.033
376.002
376.016
375.974
375.981
376.182
380.247
376.186
375.981
195.126
190.771
190.622
191.234
191.181
190.671
190.69
380.242
365.333
379.279
296.261
324.361
261.149
276.183
240.28
249.512
226.685
232.813
217.331
221.596
210.671
213.73
205.825
208.061
202.248
203.903
199.59
200.821
197.617
198.529
196.168
196.836
195.091
195.588
194.408
194.663
193.847
190.831
193.344
193.596
192.848
193.084
192.383
192.636
191.964
192.262
191.506
191.681
191.405
190.62
190.619
190.62
190.62
190.62
190.62
190.619
190.619
190.619
190.619
190.62
190.619
190.62
190.62
190.621
190.621
190.622
190.622
190.623
190.622
190.623
190.623
190.624
190.624
190.625
190.624
190.625
190.625
190.626
190.626
190.626
190.626
190.626
190.626
190.626
190.626
190.626
190.626
190.626
190.626
190.625
190.626
190.625
190.625
190.624
190.624
190.623
190.624
190.623
190.623
190.622
190.622
190.622
190.622
190.621
190.621
190.621
190.621
190.62
190.62
190.62
190.62
190.62
190.62
190.619
190.62
190.623
190.619
190.861
190.619
190.619
190.619
190.619
190.619
190.619
190.619
190.619
190.619
190.619
190.62
190.619
190.62
190.62
190.62
190.62
190.621
190.62
191.171
190.622
191.296
190.624
190.622
190.625
190.625
190.626
190.626
190.629
190.628
190.634
190.632
190.641
190.637
190.649
190.645
190.661
190.655
190.678
190.669
190.705
190.69
190.753
190.724
190.88
190.802
191.001
190.955
191.092
190.9
190.932
190.817
190.858
190.762
190.783
190.724
190.743
190.688
190.705
190.662
190.674
190.645
190.653
190.636
190.64
190.631
190.633
190.627
190.629
190.625
190.626
190.625
190.625
190.622
190.624
190.621
190.628
190.619
190.62
190.621
190.62
190.62
190.62
190.62
190.619
190.619
190.619
190.619
190.619
190.619
190.619
190.619
190.619
190.619
190.619
190.619
193.416
190.62
191.309
190.623
376.336
376.345
190.629
192.27
190.621
190.621
190.62
190.62
190.62
190.62
190.62
190.62
190.619
190.619
190.619
190.619
190.619
190.619
190.619
190.619
190.619
190.619
190.619
190.62
190.622
190.624
190.629
193.163
190.621
190.625
190.629
190.631
190.633
190.634
190.636
190.638
190.641
190.645
190.65
190.658
190.667
190.679
190.695
190.715
190.74
190.771
190.807
190.843
190.866
190.871
190.873
190.888
190.936
191.007
191.127
191.16
191.381
191.15
190.987
190.9
190.844
190.805
190.771
190.742
190.72
190.702
190.689
190.679
190.67
190.662
190.655
190.65
190.646
190.643
190.64
190.638
190.637
190.636
190.635
190.634
190.633
190.631
190.628
190.622
192.228
190.627
190.622
190.621
190.62
190.619
190.619
190.619
190.619
190.619
190.62
190.62
190.62
190.62
190.62
190.62
190.62
190.62
190.62
190.621
190.621
190.886
190.619
190.62
190.621
190.622
190.623
190.623
190.623
190.622
190.622
190.622
190.622
190.622
190.622
190.622
190.622
190.622
190.622
190.622
190.622
190.622
190.622
190.622
190.622
190.622
190.622
190.622
190.623
190.623
190.623
190.623
190.623
190.624
190.624
190.624
190.624
190.623
190.623
190.623
190.623
190.623
190.623
190.623
190.623
190.623
190.623
190.623
190.623
190.623
190.623
190.623
190.623
190.623
190.624
190.624
190.624
190.624
190.624
190.624
190.624
190.624
190.625
190.625
190.626
190.625
190.624
190.623
190.621
190.621
190.621
190.621
191.493
191.34
191.444
191.726
191.83
192.119
192.406
192.529
192.664
192.874
193.139
193.442
193.731
194.073
194.34
194.708
195.094
195.564
196.13
196.802
197.587
198.501
199.563
200.794
202.219
203.87
205.786
208.014
210.615
213.661
217.247
221.495
226.564
232.67
240.108
249.3
260.895
275.919
295.809
322.238
363.897
380.401
381.859
377.809
190.686
190.686
192.798
191.304
190.62
192.392
194.701
385.913
385.708
385.41
385.413
385.423
385.454
385.478
385.492
385.502
385.503
385.493
385.473
385.449
385.419
385.404
385.4
385.7
385.9
387.565
190.847
191.419
191.454
191.897
191.907
192.041
192.2
192.295
192.451
192.706
193.025
193.359
193.7
194.034
194.362
194.706
195.103
195.588
196.17
196.846
197.633
198.549
199.613
200.845
202.271
203.921
205.835
208.06
210.657
213.699
217.281
221.525
226.591
232.694
240.13
249.32
260.913
275.937
295.827
322.257
363.913
380.417
381.875
377.824
387.582
191.165
191.029
190.689
190.69
194.511
191.329
191.097
192.975
190.627
190.71
190.814
191.168
190.619
190.691
190.62
190.624
190.996
194.093
190.621
190.619
191.45
190.623
190.784
190.773
194.533
190.644
191.003
190.819
194.1
190.699
190.619
190.696
190.688
190.688
194.604
190.623
190.637
190.652
195.631
190.62
190.846
194.228
194.732
190.774
190.625
194.475
190.623
190.669
190.622
191.166
190.625
191.482
190.654
193.047
192.191
194.438
191.053
190.619
192.197
194.817
190.816
194.32
190.737
190.644
190.62
190.641
190.621
190.702
190.625
190.632
190.64
)
;

boundaryField
{
    wall
    {
        type            zeroGradient;
    }
    outlet
    {
        type            inletOutlet;
        inletValue      uniform 1e-05;
        value           nonuniform List<scalar> 
20
(
385.913
385.708
385.41
385.413
385.423
385.454
385.478
385.492
385.502
385.503
385.493
385.473
385.449
385.419
385.404
385.4
385.7
385.9
387.565
387.582
)
;
    }
    frontAndBackPlanes
    {
        type            empty;
    }
}


// ************************************************************************* //
