/*--------------------------------*- C++ -*----------------------------------*\
| =========                 |                                                 |
| \\      /  F ield         | OpenFOAM: The Open Source CFD Toolbox           |
|  \\    /   O peration     | Version:  2212                                  |
|   \\  /    A nd           | Website:  www.openfoam.com                      |
|    \\/     M anipulation  |                                                 |
\*---------------------------------------------------------------------------*/
FoamFile
{
    version     2.0;
    format      ascii;
    arch        "LSB;label=32;scalar=64";
    class       volScalarField;
    location    "0.0555";
    object      T;
}
// * * * * * * * * * * * * * * * * * * * * * * * * * * * * * * * * * * * * * //

dimensions      [0 0 0 1 0 0 0];

internalField   nonuniform List<scalar> 
2308
(
236.31
260.217
260.681
234.46
228.235
224.632
223.436
226.433
229.52
212.639
212.659
213.201
213.73
214.45
215.239
216.087
216.998
217.917
217.007
216.095
215.236
214.395
213.681
212.964
212.554
212.591
212.805
213.09
223.832
217.941
213.598
214.575
216.347
219.383
225.778
230.986
237.42
242.499
242.412
241.908
241.452
240.529
239.813
239.742
239.82
239.937
240.049
240.449
240.588
240.78
240.875
239.187
235.9
233.672
230.633
227.145
222.279
217.853
215.752
214.392
213.756
213.385
213.239
213.156
213.418
213.685
214.095
214.725
215.442
216.254
217.132
239.944
239.976
217.218
216.252
215.363
214.524
213.803
213.185
212.964
213.045
213.262
213.636
214.292
215.807
218.007
222.757
227.382
230.255
232.74
234.992
238.392
240.93
241.024
240.75
240.638
240.246
240.091
218.814
240.137
218.911
218.083
240.334
240.632
240.768
240.991
240.988
238.159
234.84
232.317
230.705
229.419
228.44
227.198
226.111
223.38
219.105
216.723
215.284
214.725
214.477
214.377
214.396
214.555
214.764
215.243
215.884
216.638
217.471
227.237
223.869
223.062
223.583
218.652
217.518
216.477
215.578
214.825
214.208
213.934
214.066
214.212
214.611
215.387
216.837
219.815
223.926
226.026
227.136
228.248
229.004
230.155
231.722
234.019
237.403
241.079
241.378
241.057
240.982
240.642
240.539
240.203
240.194
240.058
227.297
240.335
227.941
227.393
219.103
230.571
227.22
219.877
218.397
240.667
240.35
240.564
240.226
240.471
241.712
241.637
241.653
241.85
241.455
237.982
234.521
231.912
230.127
228.979
228.234
227.801
227.369
227.025
226.728
226.205
224.935
221.587
218.647
217.401
216.651
216.381
216.153
216.048
215.92
216.093
216.56
217.181
217.926
220.96
241.29
227.049
225.79
224.421
223.224
222.082
220.986
219.878
218.821
217.792
216.851
216.08
215.504
215.324
215.41
215.757
216.16
217.338
218.758
222.416
225.706
226.493
226.817
227.086
227.302
227.656
228.032
228.656
229.692
231.331
233.771
237.227
241.565
242.156
241.878
241.862
241.814
266.398
229.28
238.618
243.146
252.412
228.66
219.411
221.121
243.978
243.918
242.566
239.019
235.187
232.442
230.451
229.223
228.193
227.684
227.248
227.018
226.986
226.98
227.013
227.114
227.014
226.531
224.688
221.784
219.911
218.945
218.28
217.955
217.767
217.658
217.686
218.032
218.591
218.745
231.9
226.908
225.466
224.258
223.197
222.173
221.099
220.086
219.118
218.268
217.526
217.098
217.003
217.185
217.546
218.382
219.67
222.229
225.512
226.989
227.381
227.284
227.188
226.989
226.926
226.952
227.091
227.49
227.874
228.82
229.988
231.766
234.263
238.082
242.481
243.987
243.979
244.042
241.927
240.851
240.643
241.037
240.566
240.719
241.889
244.099
241.737
258.805
268.042
230.221
236.217
260.082
219.262
219.662
232.935
231.783
238.772
226.158
225.21
224.23
223.239
222.267
221.337
220.456
219.718
219.123
218.88
218.985
219.278
219.882
220.957
222.853
225.897
228.084
228.467
228.386
228.23
228.081
227.754
227.279
226.956
226.979
227.068
227.227
227.493
228.035
228.645
229.682
230.988
233.18
235.843
240.098
245.42
247.962
247.937
244.22
242.226
241.159
241.159
241.459
241.131
241.068
242.156
244.37
248.123
248.164
246.66
241.519
236.774
234.287
231.771
230.323
229.094
228.372
227.743
227.431
227.198
227.075
227.037
227.278
227.643
227.82
227.946
228.058
227.994
227.307
225.112
222.762
221.259
220.373
219.906
219.637
219.512
219.421
219.623
233.197
219.993
220.688
222.154
233.661
232.63
230.874
229.211
227.653
226.289
226.094
225.26
224.352
223.475
222.624
221.925
221.262
220.971
220.999
221.271
221.748
222.691
224.18
226.825
229.304
229.856
229.799
229.61
229.42
229.056
228.537
228.119
227.8
227.531
227.467
227.543
227.722
227.936
228.267
228.806
229.584
230.514
231.927
233.917
236.735
240.434
247.162
251.956
251.838
247.88
244.57
242.629
241.788
241.786
241.894
241.776
241.789
242.696
244.73
248.025
251.875
252.039
249.466
243.159
237.906
235.306
232.994
231.462
230.299
229.46
228.769
228.387
228.046
227.857
227.655
227.648
227.844
228.172
228.563
228.948
229.143
229.233
229.365
229.337
228.364
226.015
224.018
222.777
222.033
221.679
221.491
221.381
220.075
234.399
234.523
268.23
220.592
227.813
229.277
231.066
221.735
224.679
222.424
220.839
234.267
233.181
251.53
247.997
244.99
243.492
242.743
242.574
242.57
242.567
242.918
243.581
245.045
247.868
251.449
255.237
255.24
254.415
248.315
242.274
239.283
236.725
234.701
233.017
231.927
230.983
230.462
229.881
229.559
229.169
228.99
228.981
229.076
229.258
229.496
229.832
230.235
230.568
230.732
230.808
230.916
230.773
229.495
227.245
225.521
224.511
223.87
223.56
221.381
227.988
235.4
242.896
255.492
225.532
224.754
224.032
223.571
223.33
223.304
223.487
223.892
224.644
226.169
228.296
230.639
231.396
231.315
231.118
230.942
230.58
230.036
229.617
229.268
228.997
228.807
228.629
228.549
228.619
228.948
229.207
229.733
230.146
231.011
231.838
233.465
235.258
237.838
240.379
245.655
251.849
255.499
255.482
235.72
235.923
267.963
221.746
235.285
221.23
258.459
258.239
254.879
249.794
245.173
242.923
240.128
237.864
236.063
234.934
233.928
233.187
232.517
231.936
231.44
231.13
231.067
231.056
231.104
231.195
231.338
231.564
231.828
232.176
232.437
232.551
232.576
232.627
232.496
231.378
229.42
227.701
226.708
223.394
226.712
236.22
255.005
250.788
247.49
245.696
244.894
244.646
244.231
244.012
244.219
244.618
244.745
245.259
247.128
250.43
254.436
258.234
228.785
233.389
231.067
229.239
228.124
225.029
224.952
257.862
240.354
226.704
226.317
225.92
225.728
225.872
226.272
226.94
228.248
230.249
232.267
232.967
232.774
232.652
232.524
232.225
231.753
231.406
231.074
230.861
230.671
230.568
230.456
230.425
230.439
230.637
231.144
231.626
232.366
232.987
234.026
235.001
236.708
238.731
241.578
244.084
247.333
252.727
258.195
258.82
258.806
266.406
221.612
222.656
236.784
237.153
237.306
225.849
267.114
264.232
224.038
222.017
225.928
224.172
245.07
242.483
262.956
260.904
260.926
260.415
257.421
253.108
249.996
247.673
244.951
242.699
240.662
239.34
238.121
237.176
236.285
235.515
234.799
234.31
234.075
233.899
233.831
233.802
233.794
233.841
233.927
234.077
234.258
234.483
234.727
234.843
234.79
234.786
234.646
233.766
232.306
231.1
227.391
236.114
239.614
257.948
253.529
249.207
246.723
245.842
246.362
247.003
246.948
246.581
246.696
246.372
245.755
245.389
246.239
248.76
252.681
256.981
260.324
225.281
233.327
231.055
229.35
228.861
228.897
254.394
240.732
229.567
229.238
229.201
229.238
229.458
230.038
231.223
232.947
234.269
234.648
234.51
234.492
234.407
234.178
233.912
233.666
233.476
233.311
233.224
233.142
233.125
233.146
233.192
233.34
233.552
234.056
234.721
235.562
236.412
237.423
238.552
239.926
241.725
244.052
246.589
249.158
251.642
255.969
259.88
261.061
261.062
260.721
229.34
223.274
239.185
233.617
235.695
237.629
221.998
238.181
238.556
238.724
261.025
235.711
255.086
222.244
236.618
226.225
268.015
266.556
237.791
238.065
237.931
237.948
238.031
237.963
237.826
237.689
237.554
237.457
237.423
237.433
237.468
237.531
237.667
237.845
238.069
238.403
238.829
239.538
240.347
241.35
242.274
243.515
244.687
246.421
248.344
250.672
252.881
255.122
257.322
259.301
260.959
261.364
261.356
261.128
264.877
259.347
255.878
250.98
247.512
245.815
245.969
246.998
248.185
248.883
249.021
248.337
247.346
246.133
245.355
245.33
247.044
250.342
254.801
258.755
260.246
227.787
225.435
231.524
267.879
268.697
269.325
269.378
269.142
267.751
266.242
264.713
248.242
263.085
233.085
235.503
235.578
233.779
236.135
238.345
222.54
229.553
264.736
233.166
231.041
229.887
230.22
230.998
231.319
247.295
235.178
234.407
234.073
234.109
234.761
235.837
236.499
236.713
236.68
236.716
236.8
236.928
236.887
236.866
236.828
236.78
236.757
236.762
236.783
236.842
236.919
237.034
237.247
237.505
237.836
238.29
238.966
239.845
240.821
241.818
242.981
244.219
245.776
247.699
249.897
252.105
254.285
256.32
258.254
260.325
261.198
261.19
261.111
260.359
236.052
233.381
231.314
254.891
231.607
223.274
258.72
230.509
261.132
240.206
239.936
239.623
233.76
236.212
233.754
264.989
236.164
259.152
263.754
243.988
232.325
233.152
265.526
267.015
268.542
242.993
242.906
242.904
242.957
242.953
242.923
242.796
242.704
242.599
242.581
242.599
242.639
242.752
242.861
243.056
243.241
243.561
243.897
244.471
245.15
246.065
246.951
247.973
249.071
250.315
251.97
253.911
255.654
256.947
257.932
258.674
259.501
260.16
260.2
260.182
260.133
259.832
234.969
232.955
231.473
231.29
232.982
235.221
250.599
226.409
228.378
231.561
231.387
263.123
263.293
238.572
238.734
221.335
257.028
255.326
228.313
227.918
269.372
264.047
266.068
238.28
259.309
257.452
253.515
249.072
246.27
245.298
246.138
247.15
248.263
248.984
249.27
248.551
247.484
246.234
245.295
244.86
245.934
248.629
252.684
256.752
259.082
259.245
269.935
270.451
270.818
270.794
270.537
269.964
262.495
225.123
229.588
230.056
230.721
252.555
261.082
261.488
241.731
256.747
240.472
240.513
259.325
223.464
265.856
268.058
241.446
249.895
247.396
245.415
244.569
243.932
243.438
243.055
242.744
242.433
242.268
242.207
242.212
242.245
242.334
242.399
242.404
242.406
242.415
242.438
242.499
242.542
242.65
242.76
242.935
243.118
243.402
243.729
244.233
244.894
245.765
246.642
247.606
248.649
249.816
251.315
253.167
254.896
256.251
257.238
258.004
258.743
259.516
259.769
259.713
259.78
259.533
259.07
268.607
246.433
263.145
231.536
263.355
238.724
262.766
254.664
226.161
260.835
226.52
226.286
251.736
242.941
238.484
235.614
233.708
233.688
235.08
237.169
241.425
239.738
256.516
232.609
253.318
239.61
251.278
251.238
251.012
250.859
250.772
250.714
250.568
250.251
249.902
249.622
249.422
249.244
249.14
249.02
248.951
248.952
248.977
249.051
249.211
249.486
249.934
250.523
251.287
251.992
252.908
253.778
254.998
256.224
257.186
257.808
258.182
258.437
258.677
258.66
258.562
258.296
258.144
258.023
257.958
257.999
264.145
265.725
267.25
268.806
258.549
260.055
236.261
233.894
234.385
243.536
237.969
240.587
220.205
255.591
236.413
227.219
229.566
229.725
233.368
241.777
261.427
261.65
242.881
242.94
221.569
256.485
225.062
254.126
251.26
241.239
241.161
257.499
223.866
225.428
242.862
237.908
251.6
253.417
256.977
233.726
239.381
270.266
271.433
272.139
272.483
272.643
272.572
272.29
271.778
270.891
227.897
224.973
242.611
243.224
259.406
250.798
258.982
257.293
256.521
255.589
254.719
253.927
253.189
252.517
251.967
251.541
251.255
251.065
250.952
250.824
250.576
250.256
249.976
249.75
249.56
249.395
249.232
249.1
248.947
248.883
248.85
248.876
248.963
249.145
249.515
250.027
250.732
251.416
252.219
253.051
254.133
255.42
256.483
257.19
257.604
257.863
258.125
258.124
258.054
257.891
257.561
257.548
257.414
257.47
257.593
258.635
258.145
255.7
251.638
247.505
245.299
244.741
245.799
246.941
248.04
248.835
249.114
248.34
247.309
246.057
244.921
244.303
245.065
247.355
251.15
255.27
258.045
258.798
258.001
229.468
259.678
242.541
244.573
243.139
259.415
268.825
261.278
223.185
223.274
258.406
255.684
248.865
243.611
239.224
237.044
236.679
237.924
239.855
242.245
247.276
245.716
244.674
231.03
229.556
237.897
261.65
244.009
220.511
251.984
248.815
248.286
241.383
255.284
224.485
254.995
238.018
241.051
238.634
237.163
237.392
240.329
244.662
248.602
258.36
265.918
230.084
260.049
261.574
263.142
264.619
266.534
269.056
226.88
224.934
272.119
244.645
272.067
273.553
273.71
273.812
273.976
274.088
274.152
274.15
274.121
274.13
273.917
272.814
248.089
257.622
235.071
238.741
223.214
264.949
229.472
259.755
260.028
260.195
260.164
260.048
259.837
259.514
259.147
258.731
258.373
258.043
257.775
257.428
256.979
256.349
255.827
255.325
254.931
254.499
254.149
253.755
253.455
253.146
252.893
252.76
252.703
252.744
252.875
253.148
253.612
254.213
254.812
255.471
256.04
256.687
257.147
257.449
257.599
257.569
257.425
257.097
256.543
255.859
255.152
254.592
254.316
254.24
254.349
254.69
254.984
257.542
258.143
257.339
254.717
250.809
247.098
245.204
244.824
245.791
247.008
248.015
248.587
248.809
248.29
247.309
246.175
245.046
244.49
245.123
247.104
250.531
254.497
257.393
258.404
257.922
255.561
255.329
254.979
254.849
254.849
255.154
255.563
256.267
256.903
257.493
257.86
258.034
258.086
257.99
257.714
257.323
256.732
256.204
255.618
254.97
254.398
253.868
253.553
253.373
253.306
253.3
253.427
253.568
253.947
254.143
254.587
254.882
255.37
255.787
256.411
257.036
257.588
257.919
258.21
258.451
258.727
258.938
258.489
259.433
259.902
243.791
253.339
236.507
260.04
259.683
225.227
260.178
244.775
247.94
226.584
232.894
228.869
228.117
235.06
230.491
259.81
259.714
245.874
252.913
247.666
246.129
251.313
243.387
243.661
257.846
253.68
245.189
225.067
255.795
243.802
248.862
250.42
246.801
246.534
259.87
232.632
228.432
229.018
246.15
244.198
242.626
241.674
242.209
245.213
250.461
255.43
258.716
259.578
259.519
246.114
247.926
224
259.442
259.168
256.176
251.497
245.877
242.448
241.923
243.006
257.583
226.167
255.379
257.007
258.509
259.73
225.11
249.59
227.258
251.328
232.811
255.656
260.968
257.422
258.137
259.908
261.454
263.946
266.944
270.533
226.985
227.169
260.432
261.228
261.1
261.179
261.73
261.519
261.499
261.43
261.243
261.047
260.817
260.44
259.982
259.457
258.979
258.456
258.043
257.566
257.245
256.812
256.627
256.261
256.169
256.103
256.123
256.199
256.368
256.63
256.948
257.22
257.435
257.536
257.66
257.724
257.693
257.564
257.28
256.861
256.272
255.398
254.172
252.804
251.551
250.735
250.285
250.307
250.47
250.873
251.171
246.353
245.627
255.466
257.58
258.068
257.009
254.123
250.188
246.497
244.794
244.393
245.122
246.341
247.291
247.815
248.033
247.594
246.802
245.658
244.547
244.068
244.66
246.477
249.988
254.013
257.128
258.337
257.941
255.967
251.729
251.188
273.343
274.547
274.58
274.63
274.709
274.771
274.777
274.784
274.808
274.885
274.776
273.814
271.462
262.955
265.58
269.561
270.361
259.998
260.058
260.287
260.719
261.082
261.349
261.492
261.468
261.371
261.163
260.937
260.685
260.375
259.92
259.409
258.883
258.429
257.948
257.549
257.105
256.77
256.378
256.145
255.837
255.678
255.595
255.602
255.661
255.797
256.052
256.374
256.678
256.916
257.061
257.173
257.276
257.26
257.159
256.922
256.537
255.991
255.169
253.97
252.535
251.185
250.229
249.711
249.708
249.864
250.277
250.624
251.229
253.501
248.704
257.947
257.886
230.92
228.732
226.429
231.373
249.144
246.473
260.507
248.093
228.422
260.163
260.265
260.307
259.867
258.382
256.636
253.302
250.269
249.403
258.797
218.739
253.325
255.857
257.72
258.608
260.523
250.234
249.124
249.24
250.163
252.865
256.44
258.373
259.917
260.443
260.537
228.35
227.78
229.685
257.99
249.12
251.302
248.964
246.286
260.223
260.306
260.493
261.119
261.172
261.249
261.659
261.751
261.86
261.838
261.762
261.631
261.437
261.168
260.878
260.582
260.272
259.96
259.641
259.352
259.071
258.858
258.623
258.448
258.327
258.206
258.114
258.043
257.985
257.937
257.884
257.818
257.718
257.589
257.455
257.252
257.011
256.682
256.191
255.369
253.988
251.974
249.629
247.534
246.086
245.358
245.207
245.33
245.65
246.148
246.549
247.082
256.205
257.785
258.715
259.445
260.63
262.576
265.199
267.927
268.349
229.68
255.892
247.868
253.776
255.841
228.733
226.184
261.543
263.543
267.108
268.583
230.738
250.704
268.721
271.921
271.922
270.788
270.033
269.328
268.696
268.667
268.819
269.357
270.12
270.781
270.967
268.362
268.032
266.019
251.471
255.56
257.51
257.916
256.797
253.938
250.263
246.813
245.173
244.793
245.123
245.976
246.594
246.973
247.186
246.864
246.355
245.574
244.755
244.504
245.039
246.818
250.084
253.814
256.9
258.184
257.861
256.031
251.944
247.352
260.41
260.336
260.411
260.645
261
261.315
261.537
261.652
261.649
261.607
261.516
261.352
261.125
260.818
260.515
260.207
259.899
259.589
259.29
259.007
258.749
258.518
258.306
258.095
257.97
257.836
257.729
257.65
257.584
257.536
257.486
257.423
257.337
257.206
257.087
256.9
256.68
256.377
255.933
255.193
253.913
251.96
249.572
247.333
245.738
244.915
244.723
244.852
245.196
245.738
246.182
246.775
247.074
248.905
251.451
255.945
228.066
227.645
244.52
244.016
254.807
244.854
244.939
256.174
247.953
252.48
257.709
257.604
252.723
256.101
245.649
248.775
243.576
244.093
244.095
243.56
245.18
244.77
245.217
245.414
244.31
244.869
243.772
243.786
245.662
244.208
252.847
248.896
257.474
256.047
255.778
257.3
244.338
244.786
247.728
252.071
243.255
243.79
242.14
242.672
241.611
241.739
243.178
241.994
248.078
245.289
253.213
250.924
255.587
254.718
256.425
256.088
256.957
256.709
257.329
257.158
257.702
257.514
258.104
257.896
258.554
258.325
259.031
258.79
259.532
259.278
260.043
259.792
260.533
260.292
260.982
260.762
261.36
261.182
261.61
261.509
261.678
261.658
261.585
261.674
261.183
261.422
260.622
260.902
260.306
260.412
260.334
260.31
260.025
260.256
259.123
259.632
258.664
258.801
258.044
258.345
255.452
256.038
259.537
256.299
263.758
262.322
263.878
264.386
265.013
263.716
267.779
266.594
266.442
256.665
262.281
253.941
254.868
252.826
253.2
252.349
252.541
252.132
252.176
252.454
252.184
254.238
253.111
268.349
256.172
268.878
266.87
270.263
268.385
268.029
268.009
266.832
267.392
263.565
264.937
263.763
263.42
261.526
263.14
257.03
259.095
256.871
256.666
258.052
258.108
258.426
258.261
259.373
258.826
259.953
259.751
260.183
260.1
260.537
260.306
261.066
260.9
261.487
261.201
261.827
261.678
261.862
261.881
261.739
261.82
261.447
261.608
261.053
261.263
260.592
260.831
260.093
260.346
259.58
259.835
259.099
259.337
258.643
258.868
258.227
258.428
257.852
258.037
257.495
257.67
257.029
257.288
256.37
256.736
254.844
255.811
250.828
253.213
245.31
247.987
242.286
243.353
242.097
241.967
242.973
242.474
243.518
270.627
267.808
253.779
224.17
245.501
249.921
245.369
264.637
271.878
272.801
272.817
272.117
272.154
272.557
272.547
222.951
249.397
253.747
251.404
251.429
219.815
221.105
219.84
231.907
229.261
230.604
233.087
230.176
231.642
234.12
230.886
232.468
234.974
231.365
233.185
248.092
227.507
272.193
227.709
268.382
225.56
238.158
246.177
226.836
228.083
248.102
222.493
217.95
249.643
261.128
222.328
260.491
259.292
259.957
267.582
240.629
226.654
253.036
224.139
267.001
222.407
244.937
223.056
222.52
225.699
231.731
271.973
265.874
241.591
260.205
260.195
253.322
268.627
262.547
231.444
269.864
254.471
231.214
243.673
240.299
219.79
262.636
252.264
236.686
225.937
212.953
212.868
253.511
)
;

boundaryField
{
    wall
    {
        type            zeroGradient;
    }
    outlet
    {
        type            inletOutlet;
        inletValue      uniform 85;
        value           nonuniform List<scalar> 
33
(
256.173
247.951
252.477
257.711
257.605
252.728
256.105
245.655
248.78
243.58
244.098
244.097
243.563
245.18
244.771
245.216
245.413
244.311
244.869
243.776
243.788
245.668
244.213
252.852
248.902
257.476
256.05
255.777
257.3
247.726
252.068
245.5
245.368
)
;
    }
    inlet
    {
        type            fixedValue;
        value           uniform 273.16;
    }
    frontAndBackPlanes
    {
        type            empty;
    }
}


// ************************************************************************* //
