/*--------------------------------*- C++ -*----------------------------------*\
| =========                 |                                                 |
| \\      /  F ield         | OpenFOAM: The Open Source CFD Toolbox           |
|  \\    /   O peration     | Version:  2212                                  |
|   \\  /    A nd           | Website:  www.openfoam.com                      |
|    \\/     M anipulation  |                                                 |
\*---------------------------------------------------------------------------*/
FoamFile
{
    version     2.0;
    format      ascii;
    arch        "LSB;label=32;scalar=64";
    class       volScalarField;
    location    "0.00011";
    object      nut;
}
// * * * * * * * * * * * * * * * * * * * * * * * * * * * * * * * * * * * * * //

dimensions      [0 2 -1 0 0 0 0];

internalField   nonuniform List<scalar> 
2681
(
0.337573
0.337573
0.337573
0.337573
0.337573
0.337573
0.337573
0.337573
0.337573
0.337573
0.337573
0.337573
0.337573
0.337573
0.337573
0.337573
0.337573
0.337573
0.337573
0.337573
0.337573
0.337573
0.337573
0.337573
0.337573
0.337573
0.337573
0.337573
0.337573
0.337573
0.337573
0.337573
0.337573
0.337573
0.337573
0.337573
0.337573
0.337573
0.337573
0.337573
0.337573
0.337573
0.337573
0.337573
0.337573
0.337573
0.337573
0.337573
0.337573
0.337573
0.337573
0.337573
0.337573
0.337573
0.337573
0.337573
0.337573
0.337573
0.337573
0.337573
0.337573
0.337573
0.337573
0.337573
0.337573
0.337573
0.337573
0.337573
0.337573
0.337572
0.337573
0.337573
0.337573
0.337573
0.337573
0.337573
0.322343
0.337573
0.337573
0.337573
0.337573
0.337573
0.337573
0.337573
0.337573
0.337573
0.337573
0.337573
0.337573
0.337573
0.337573
0.337573
0.337573
0.337573
0.337573
0.337573
0.337573
0.337573
0.337573
0.337573
0.337573
0.337573
0.337573
0.337573
0.337573
0.337573
0.337573
0.337573
0.337573
0.337573
0.337573
0.337573
0.337573
0.337573
0.337573
0.337573
0.337573
0.337573
0.337573
0.337573
0.337573
0.337573
0.337573
0.337573
0.337573
0.337573
0.337573
0.337573
0.337573
0.337573
0.337573
0.337573
0.337573
0.337573
0.337573
0.337573
0.337573
0.337573
0.337573
0.337573
0.337573
0.337573
0.337573
0.337573
0.337573
0.337573
0.337573
0.337573
0.337573
0.337573
0.337573
0.337573
0.337573
0.337573
0.337573
0.337573
0.337573
0.337573
0.337573
0.337573
0.337573
0.337573
0.337573
0.337573
0.337573
0.337573
0.337573
0.337573
0.337573
0.337573
0.337573
0.337573
0.337573
0.337573
0.337573
0.337573
0.337573
0.337573
0.337573
0.337573
0.337573
0.337573
0.337573
0.337573
0.337573
0.337573
0.337573
0.337573
0.337573
0.337573
0.337573
0.337573
0.337573
0.337573
0.337573
0.337573
0.337573
0.337573
0.337573
0.337573
0.337573
0.337573
0.337573
0.337573
0.337573
0.337573
0.337573
0.337573
0.337573
0.337573
0.337573
0.337573
0.337573
0.337573
0.337573
0.337573
0.337573
0.337573
0.337573
0.337573
0.337573
0.337573
0.337573
0.337573
0.337573
0.337573
0.337573
0.337573
0.337573
0.337573
0.337573
0.337573
0.337573
0.337573
0.337573
0.337573
0.337573
0.337573
0.337573
0.337573
0.337573
0.337573
0.337573
0.337573
0.337573
0.337573
0.337573
0.337573
0.337573
0.337573
0.337573
0.337573
0.337573
0.337573
0.337573
0.337573
0.337573
0.337573
0.337573
0.337573
0.337573
0.337573
0.337573
0.337573
0.337573
0.337573
0.337573
0.337573
0.337573
0.337573
0.337573
0.337573
0.337573
0.337573
0.337573
0.337573
0.337573
0.337573
0.337573
0.337573
0.337573
0.337573
0.337573
0.337573
0.337573
0.337573
0.337573
0.337573
0.337573
0.337573
0.337573
0.337573
0.337573
0.337573
0.337573
0.337573
0.337573
0.337573
0.337573
0.337573
0.337573
0.337573
0.337573
0.337573
0.337573
0.337573
0.337573
0.337573
0.337573
0.337573
0.337573
0.337573
0.337573
0.337573
0.337573
0.337573
0.337573
0.337573
0.337573
0.337573
0.337573
0.337573
0.337573
0.337573
0.337573
0.337573
0.337573
0.337573
0.337573
0.337573
0.337573
0.337573
0.337573
0.337573
0.337573
0.337573
0.337573
0.337573
0.337573
0.337573
0.337573
0.337573
0.337573
0.337573
0.337573
0.337573
0.337573
0.337573
0.337573
0.337573
0.337559
0.337573
0.337573
0.337573
0.337573
0.337573
0.337573
0.337573
0.337573
0.337573
0.337573
0.337573
0.337573
0.337573
0.337573
0.337573
0.337573
0.337573
0.337573
0.337573
0.337573
0.337573
0.337573
0.337573
0.337573
0.337573
0.337573
0.337573
0.337573
0.337573
0.337573
0.337573
0.337573
0.337573
0.337573
0.337573
0.337573
0.337573
0.337573
0.337573
0.337573
0.337573
0.337573
0.337573
0.337573
0.337573
0.337573
0.337573
0.337573
0.337573
0.337573
0.337573
0.337573
0.337573
0.337573
0.337573
0.337573
0.337573
0.337573
0.337573
0.337573
0.337573
0.337573
0.337573
0.337573
0.337573
0.337573
0.337573
0.337573
0.337573
0.337573
0.337573
0.337573
0.337573
0.337573
0.337573
0.337573
0.337573
0.337573
0.337573
0.337573
0.337573
0.337573
0.337573
0.337573
0.337573
0.337573
0.337573
0.337573
0.337573
0.337573
0.337573
0.337573
0.337573
0.337573
0.337573
0.337573
0.337573
0.337573
0.337573
0.337573
0.337573
0.337573
0.337573
0.337573
0.337573
0.337573
0.337573
0.337573
0.337573
0.337573
0.337573
0.337573
0.337573
0.337573
0.337573
0.337573
0.337573
0.337573
0.337573
0.337573
0.337573
0.337573
0.337573
0.337573
0.337573
0.337573
0.337573
0.337573
0.337573
0.337573
0.337573
0.337573
0.337573
0.337573
0.337573
0.337573
0.337573
0.337573
0.337573
0.337573
0.337573
0.337573
0.337573
0.337573
0.337573
0.337573
0.337573
0.337573
0.337573
0.337573
0.337573
0.337573
0.337573
0.337573
0.337573
0.337573
0.337573
0.337573
0.337573
0.337573
0.337573
0.337573
0.337573
0.337573
0.337573
0.337573
0.337573
0.337573
0.337573
0.337573
0.337573
0.337573
0.337573
0.337573
0.337573
0.337573
0.337573
0.337546
0.337573
0.337573
0.337573
0.337573
0.337573
0.337573
0.337573
0.337573
0.337573
0.337573
0.337573
0.337573
0.337573
0.337573
0.337573
0.337573
0.337573
0.337573
0.337573
0.337573
0.337573
0.337573
0.337573
0.337573
0.337573
0.337573
0.337573
0.337573
0.337573
0.337573
0.337573
0.337573
0.337573
0.337573
0.337573
0.337573
0.337573
0.337573
0.337573
0.337573
0.337573
0.337573
0.337573
0.337573
0.337573
0.337573
0.337573
0.337573
0.337573
0.337573
0.337573
0.337573
0.337573
0.337573
0.337573
0.337573
0.337573
0.337573
0.337573
0.337573
0.337573
0.337573
0.337573
0.337573
0.337573
0.337573
0.337573
0.337573
0.337573
0.337573
0.337573
0.337573
0.337573
0.337573
0.337573
0.337573
0.337573
0.337573
0.337573
0.337573
0.337573
0.337573
0.337573
0.337573
0.337573
0.337573
0.337573
0.337573
0.337573
0.337573
0.337573
0.337573
0.337573
0.337573
0.337573
0.337573
0.337573
0.337573
0.337573
0.337573
0.337573
0.337573
0.337573
0.337573
0.337573
0.337573
0.337573
0.337573
0.337573
0.337573
0.337573
0.337573
0.337573
0.337573
0.337573
0.337573
0.337573
0.337573
0.337573
0.337573
0.337573
0.337573
0.337573
0.337573
0.337573
0.337573
0.337573
0.337573
0.337573
0.337573
0.337573
0.337573
0.337573
0.337573
0.337573
0.337573
0.337573
0.337573
0.337573
0.337573
0.337573
0.337573
0.337573
0.337573
0.337573
0.337573
0.337573
0.337573
0.337573
0.337573
0.337573
0.337573
0.337573
0.337573
0.337573
0.337573
0.337573
0.337573
0.337573
0.337573
0.337573
0.337573
0.337573
0.337573
0.337573
0.337573
0.337573
0.337573
0.337573
0.337573
0.337573
0.337573
0.337573
0.337573
0.337573
0.337573
0.337573
0.337573
0.337573
0.337573
0.337573
0.337573
0.337573
0.337573
0.337573
0.337573
0.337573
0.337573
0.337573
0.337573
0.337573
0.337573
0.337573
0.337573
0.337573
0.337573
0.337573
0.337573
0.337573
0.337573
0.337573
0.337573
0.337573
0.337573
0.337573
0.337573
0.337573
0.337573
0.337573
0.337573
0.337573
0.337573
0.337573
0.337573
0.337573
0.337573
0.337573
0.337573
0.337573
0.337573
0.337573
0.337573
0.337573
0.337573
0.337573
0.337573
0.337573
0.337573
0.337573
0.337573
0.337573
0.337573
0.337573
0.337573
0.337573
0.337573
0.337573
0.337573
0.337573
0.337573
0.337573
0.337573
0.337573
0.337573
0.337573
0.337573
0.337573
0.337573
0.337573
0.337573
0.337573
0.337573
0.337573
0.337573
0.337573
0.337573
0.337573
0.337573
0.337573
0.337573
0.337573
0.337573
0.337573
0.337573
0.337573
0.337573
0.337573
0.337573
0.337573
0.337573
0.337573
0.337573
0.337573
0.337573
0.337573
0.337573
0.337573
0.337573
0.337573
0.337573
0.337573
0.337573
0.337573
0.337573
0.337573
0.337573
0.337573
0.337573
0.337573
0.337573
0.337573
0.337573
0.337573
0.337573
0.337573
0.337573
0.337573
0.337573
0.337573
0.337573
0.337573
0.337573
0.337573
0.337573
0.337573
0.337573
0.337573
0.337573
0.337573
0.337573
0.337573
0.337573
0.337573
0.337573
0.337573
0.337573
0.337573
0.337573
0.337573
0.337573
0.337573
0.337573
0.337573
0.337573
0.337573
0.337573
0.337573
0.337573
0.337573
0.337573
0.337573
0.337573
0.337573
0.337573
0.337573
0.337573
0.337573
0.337573
0.337573
0.337573
0.337573
0.337573
0.337573
0.337573
0.337573
0.337573
0.337573
0.337573
0.337573
0.337573
0.337573
0.337573
0.337573
0.337573
0.337573
0.337573
0.337573
0.337573
0.337573
0.337573
0.337573
0.337573
0.337573
0.337573
0.337573
0.337573
0.337573
0.337573
0.337573
0.337573
0.337573
0.337573
0.337573
0.337573
0.337573
0.337573
0.337573
0.337573
0.337573
0.337573
0.337573
0.337573
0.337573
0.337573
0.337573
0.337573
0.337573
0.337573
0.337573
0.337573
0.337573
0.337573
0.337573
0.337573
0.337573
0.337573
0.337573
0.337573
0.337573
0.337573
0.337573
0.337573
0.337573
0.337573
0.337573
0.337573
0.337573
0.337573
0.337573
0.337573
0.337573
0.337573
0.337573
0.337573
0.337573
0.337573
0.337573
0.337573
0.337573
0.337573
0.337573
0.337573
0.337573
0.337573
0.337573
0.337573
0.337573
0.337573
0.337573
0.337573
0.337573
0.337573
0.337573
0.337573
0.337573
0.337573
0.337573
0.337573
0.337573
0.337573
0.337499
0.337573
0.337573
0.337573
0.337573
0.337573
0.337573
0.337573
0.337573
0.337573
0.337573
0.337573
0.337573
0.337573
0.337573
0.337573
0.337573
0.337573
0.337573
0.337573
0.337573
0.337573
0.337573
0.337573
0.337573
0.337573
0.337573
0.337573
0.337573
0.337573
0.337573
0.337573
0.337573
0.337573
0.337573
0.337573
0.337573
0.337573
0.337573
0.337573
0.337573
0.337573
0.337573
0.337573
0.337573
0.337573
0.337573
0.337573
0.337573
0.337573
0.337573
0.337573
0.337573
0.337573
0.337573
0.337573
0.337573
0.337573
0.337573
0.337573
0.337573
0.337573
0.337573
0.337573
0.337573
0.337573
0.337573
0.337573
0.337573
0.337573
0.337573
0.337573
0.337573
0.337573
0.337573
0.337573
0.337573
0.337573
0.337573
0.337573
0.337573
0.337573
0.337573
0.337573
0.337573
0.337573
0.337573
0.337573
0.337573
0.337573
0.337573
0.337573
0.337573
0.337573
0.337573
0.337573
0.337573
0.337573
0.337573
0.337573
0.337573
0.337573
0.337573
0.337573
0.337573
0.337573
0.337573
0.337573
0.337573
0.337573
0.337573
0.337573
0.337573
0.337573
0.337573
0.337573
0.337573
0.337573
0.337573
0.337573
0.337573
0.337573
0.337573
0.337573
0.337573
0.337573
0.337573
0.337573
0.337573
0.337573
0.337573
0.337573
0.337573
0.337573
0.337573
0.337573
0.337573
0.337573
0.337573
0.337573
0.337573
0.337573
0.337573
0.337573
0.337573
0.337573
0.337573
0.337573
0.337573
0.337573
0.337573
0.337573
0.337573
0.337573
0.337573
0.337573
0.337573
0.337573
0.337573
0.337573
0.337573
0.337573
0.337573
0.337573
0.337573
0.337573
0.337573
0.337573
0.337573
0.337573
0.337573
0.337573
0.337573
0.337573
0.337573
0.337573
0.337573
0.337573
0.337573
0.337573
0.337573
0.337573
0.337573
0.337573
0.337573
0.337573
0.337573
0.337573
0.337573
0.337573
0.337573
0.337573
0.337573
0.337573
0.337573
0.337573
0.337573
0.337573
0.337573
0.337573
0.337573
0.337573
0.337573
0.337573
0.337573
0.337573
0.337573
0.337573
0.337573
0.337573
0.337573
0.337573
0.337573
0.337573
0.337573
0.337573
0.337573
0.337573
0.337573
0.337573
0.337573
0.337571
0.337571
0.337573
0.337573
0.337573
0.337573
0.337573
0.337573
0.337573
0.337573
0.337573
0.337573
0.337573
0.337573
0.337573
0.337573
0.337573
0.337573
0.337573
0.337573
0.337573
0.337573
0.337573
0.337573
0.337573
0.337573
0.337573
0.337573
0.337573
0.337573
0.337573
0.337573
0.337573
0.337573
0.337573
0.337573
0.337573
0.337573
0.337573
0.337573
0.337573
0.337573
0.337573
0.337573
0.337573
0.337573
0.337573
0.337573
0.337573
0.337573
0.337573
0.337573
0.337573
0.337573
0.337573
0.337573
0.337573
0.337573
0.337573
0.337573
0.337573
0.337573
0.337573
0.337573
0.337573
0.337573
0.337573
0.337573
0.337573
0.337573
0.337573
0.337573
0.337573
0.337573
0.337573
0.337573
0.337573
0.337573
0.337573
0.337573
0.337573
0.337573
0.337573
0.337573
0.337573
0.337573
0.337573
0.337573
0.337573
0.337573
0.337573
0.337573
0.337573
0.337573
0.337573
0.337573
0.337573
0.337571
0.337571
0.337571
0.337571
0.337571
0.337571
0.337571
0.337571
0.337573
0.337573
0.337573
0.337573
0.337573
0.337573
0.337573
0.337573
0.337573
0.337573
0.337573
0.337573
0.337573
0.337573
0.337573
0.337573
0.337573
0.337573
0.337573
0.337573
0.337573
0.337573
0.337573
0.337573
0.337573
0.337573
0.337573
0.337573
0.337573
0.337573
0.337573
0.337573
0.337573
0.337573
0.337573
0.337573
0.337573
0.337573
0.337573
0.337573
0.337573
0.337573
0.337573
0.337573
0.337573
0.337573
0.337573
0.337573
0.337573
0.337573
0.337573
0.337573
0.337573
0.337573
0.337573
0.337573
0.337573
0.337573
0.337573
0.337573
0.337573
0.337573
0.337573
0.337573
0.337573
0.337573
0.337573
0.337573
0.337573
0.337573
0.337573
0.337573
0.337573
0.337573
0.337573
0.337573
0.337573
0.337573
0.337573
0.337573
0.337573
0.337573
0.337573
0.337573
0.337573
0.337573
0.337573
0.337573
0.337573
0.337573
0.337573
0.337573
0.337573
0.337573
0.337573
0.337573
0.337573
0.337573
0.337573
0.337573
0.337573
0.337573
0.337573
0.337573
0.337573
0.337573
0.337573
0.337573
0.337573
0.337573
0.337573
0.337573
0.337573
0.337573
0.337573
0.337573
0.337573
0.337573
0.337573
0.337573
0.337573
0.332753
0.337573
0.337573
0.337573
0.337573
0.337573
0.337573
0.337573
0.337573
0.337573
0.337573
0.337573
0.337573
0.337573
0.337573
0.337571
0.337571
0.337572
0.337573
0.337573
0.337573
0.337573
0.337573
0.337529
0.337573
0.337573
0.337573
0.337573
0.337573
0.337573
0.337573
0.337573
0.337573
0.337573
0.337573
0.337573
0.337573
0.337573
0.337573
0.337573
0.337573
0.337573
0.337573
0.337486
0.337573
0.337573
0.337573
0.337573
0.337573
0.337573
0.337573
0.337573
0.337573
0.337573
0.337573
0.337573
0.337573
0.337573
0.337573
0.337573
0.337573
0.337573
0.337573
0.337573
0.337573
0.337573
0.337573
0.337573
0.337573
0.337573
0.337573
0.337573
0.337573
0.337573
0.337573
0.337573
0.337573
0.337573
0.337573
0.337573
0.337573
0.337573
0.337573
0.337573
0.337573
0.337573
0.337573
0.337573
0.337573
0.337573
0.337573
0.337573
0.337573
0.337573
0.337573
0.337573
0.337573
0.337573
0.337573
0.337573
0.337573
0.337573
0.337573
0.337573
0.337573
0.337573
0.337573
0.337573
0.337573
0.337573
0.337573
0.337573
0.337573
0.337573
0.337573
0.337573
0.337573
0.337573
0.337571
0.337573
0.337573
0.337573
0.337573
0.337573
0.337573
0.337573
0.337573
0.337573
0.337573
0.337573
0.337573
0.337573
0.337573
0.337573
0.337573
0.337573
0.337573
0.337573
0.337573
0.337573
0.337573
0.337573
0.337573
0.337573
0.337545
0.337573
0.337572
0.337566
0.337566
0.337566
0.337566
0.337566
0.337566
0.337566
0.337566
0.337566
0.337566
0.337566
0.337566
0.337566
0.337573
0.337573
0.337573
0.337573
0.337573
0.337573
0.337573
0.337573
0.337573
0.337573
0.337573
0.337573
0.337573
0.337573
0.337573
0.337573
0.337573
0.337573
0.337573
0.337573
0.337573
0.337573
0.337573
0.337573
0.337573
0.337571
0.337566
0.337573
0.337573
0.33755
0.337573
0.337573
0.337572
0.337508
0.337573
0.337573
0.337573
0.337573
0.337573
0.337573
0.337573
0.337573
0.337573
0.337573
0.337573
0.337573
0.337573
0.337572
0.337573
0.337573
0.337573
0.337573
0.337573
0.337573
0.337573
0.337573
0.337573
0.337573
0.337573
0.337573
0.337573
0.337573
0.337573
0.337573
0.337573
0.337573
0.337573
0.337573
0.337573
0.337573
0.337573
0.337573
0.337573
0.337573
0.337573
0.337573
0.337572
0.337573
0.337573
0.337573
0.337573
0.337573
0.337573
0.337573
0.337573
0.337573
0.337573
0.337573
0.337573
0.337573
0.337573
0.337573
0.337573
0.337573
0.337573
0.337572
0.337573
0.337573
0.337573
0.337573
0.337573
0.337573
0.337573
0.337573
0.337573
0.337573
0.337573
0.337573
0.337573
0.337573
0.337573
0.337573
0.337573
0.337573
0.337573
0.337573
0.337573
0.337573
0.337573
0.337573
0.337573
0.337573
0.337573
0.337573
0.337573
0.337573
0.337573
0.337573
0.337573
0.337573
0.337573
0.337573
0.337573
0.337573
0.337573
0.337573
0.337573
0.337573
0.337573
0.337573
0.337573
0.337573
0.337573
0.337573
0.337573
0.337573
0.337573
0.337573
0.337573
0.337573
0.337573
0.337573
0.337573
0.337573
0.337573
0.337573
0.337573
0.337573
0.337381
0.337381
0.337555
0.33755
0.337571
0.337573
0.337556
0.337573
0.337573
0.337573
0.337573
0.337553
0.337553
0.337554
0.337555
0.337556
0.337556
0.337556
0.337556
0.337556
0.337556
0.337556
0.337555
0.337555
0.337554
0.337554
0.337554
0.337555
0.337554
0.33754
0.337555
0.337558
0.337557
0.337556
0.337556
0.337556
0.337556
0.337556
0.337557
0.337557
0.337557
0.337557
0.337557
0.337557
0.337557
0.337557
0.337556
0.337555
0.337554
0.337552
0.337549
0.337548
0.337549
0.337551
0.337555
0.337555
0.337573
0.33756
0.337545
0.337549
0.337552
0.337554
0.337555
0.337556
0.337556
0.337557
0.337557
0.337557
0.337557
0.337557
0.337557
0.337557
0.337557
0.337557
0.337557
0.337557
0.337556
0.337556
0.337555
0.337555
0.337555
0.337553
0.337555
0.337572
0.337551
0.337554
0.337554
0.337554
0.337554
0.337555
0.337556
0.337556
0.337556
0.337556
0.337556
0.337556
0.337555
0.337554
0.337553
0.337551
0.337547
0.337549
0.337573
0.337552
0.337558
0.337557
0.337556
0.337555
0.337555
0.337556
0.337556
0.337556
0.337556
0.337556
0.337557
0.337557
0.337557
0.337556
0.337556
0.337556
0.337556
0.337556
0.337556
0.337556
0.337556
0.337556
0.337556
0.337556
0.337556
0.337556
0.337556
0.337556
0.337557
0.337557
0.337557
0.337557
0.337557
0.337557
0.337557
0.337557
0.337557
0.337557
0.337557
0.337557
0.337557
0.337557
0.337557
0.337557
0.337557
0.337556
0.337556
0.337556
0.337556
0.337556
0.337555
0.337555
0.337555
0.337555
0.337554
0.337554
0.337553
0.337553
0.337552
0.337552
0.337553
0.337557
0.337565
0.337573
0.337573
0.337554
0.333395
0.337573
0.337544
0.337537
0.337541
0.337547
0.337551
0.337557
0.337559
0.337571
0.337557
0.337555
0.337556
0.337556
0.337556
0.337556
0.337557
0.337557
0.337557
0.337557
0.337557
0.337557
0.337557
0.337557
0.337557
0.337557
0.337557
0.337557
0.337557
0.337557
0.337557
0.337557
0.337557
0.337555
0.337557
0.337557
0.337573
0.337573
0.337573
0.337573
0.33743
0.337573
0.337573
0.337551
0.337553
0.337553
0.337543
0.337535
0.337573
0.337573
0.337573
0.337573
0.337381
0.337382
0.337382
0.337382
0.337382
0.337382
0.337382
0.337382
0.337382
0.337382
0.337382
0.337573
0.337573
0.337555
0.337558
0.337538
0.337573
0.337573
0.337573
0.337563
0.337549
0.337544
0.337573
0.337524
0.337545
0.337546
0.337548
0.337549
0.33755
0.337552
0.337553
0.337554
0.337555
0.337556
0.337556
0.337556
0.337557
0.337557
0.337557
0.337557
0.337557
0.337557
0.337557
0.337557
0.337557
0.337557
0.337557
0.337557
0.337557
0.337557
0.337557
0.337573
0.337573
0.337573
0.337573
0.337573
0.337573
0.337573
0.337573
0.337573
0.337573
0.337538
0.337381
0.33755
0.337573
0.337573
0.337573
0.337573
0.337366
0.337366
0.334318
0.337573
0.337573
0.337573
0.337573
0.337573
0.337573
0.334073
0.333535
0.337573
0.33502
0.337573
0.337573
0.337573
0.167457
0.337573
0.337573
0.334885
0.33488
0.334884
0.334884
0.334884
0.334885
0.334884
0.334885
0.334885
0.334886
0.334886
0.334886
0.334886
0.334882
0.334885
0.334863
0.334875
0.334811
0.334844
0.334682
0.33476
0.334447
0.334579
0.334134
0.334309
0.334209
0.334125
0.334149
0.334186
0.333913
0.334123
0.334309
0.333249
0.334653
0.334968
0.335342
0.334713
0.335256
0.335388
0.334402
0.335428
0.33723
0.337218
0.337217
0.337217
0.337219
0.337219
0.33722
0.337219
0.337219
0.33722
0.337219
0.337219
0.337218
0.337218
0.337204
0.334694
0.337205
0.337217
0.337573
0.337573
0.337333
0.337573
0.337573
0.337573
0.337573
0.334694
0.334884
0.33488
0.334885
0.334885
0.334884
0.334884
0.334884
0.334884
0.334886
0.334885
0.33489
0.334888
0.334895
0.334892
0.334903
0.334899
0.334903
0.334904
0.334888
0.334898
0.334844
0.334867
0.334783
0.334805
0.334894
0.334771
0.337573
0.335265
0.333919
0.337573
0.334542
0.334564
0.333781
0.334224
0.333448
0.333429
0.334576
0.334315
0.334196
0.334327
0.333812
0.332565
0.333015
0.33463
0.333552
0.334562
0.334778
0.334419
0.334454
0.33448
0.334434
0.334583
0.334521
0.334662
0.334624
0.334717
0.33469
0.334766
0.334737
0.334821
0.334791
0.334868
0.334843
0.3349
0.334884
0.334922
0.334912
0.334932
0.334928
0.334936
0.334933
0.334943
0.334939
0.334936
0.334942
0.334909
0.334925
0.33487
0.334889
0.334846
0.334853
0.334847
0.334844
0.334841
0.334845
0.334826
0.334833
0.334823
0.334819
0.334832
0.334826
0.334842
0.334839
0.334851
0.334847
0.334851
0.334851
0.334836
0.334847
0.334803
0.334827
0.33475
0.334788
0.334804
0.33476
0.335134
0.334962
0.337573
0.33484
0.337573
0.333882
0.333638
0.334334
0.334115
0.334634
0.334513
0.334771
0.334718
0.334795
0.334791
0.334742
0.334779
0.334613
0.334683
0.334566
0.334566
0.334499
0.334647
0.337572
0.333113
0.337573
0.334799
0.334594
0.334632
0.334672
0.33472
0.334663
0.334836
0.334782
0.334902
0.334872
0.334921
0.334911
0.334938
0.334928
0.334924
0.334958
0.334905
0.334924
0.334801
0.334869
0.334453
0.334656
0.334548
0.334322
0.335242
0.335068
0.335205
0.334206
0.334438
0.334082
0.334076
0.334397
0.334183
0.334752
0.334624
0.334865
0.334822
0.334912
0.334893
0.33493
0.334929
0.334903
0.334917
0.334861
0.334892
0.33483
0.334863
0.334807
0.334817
0.334915
0.334823
0.334931
0.335092
0.33334
0.337573
0.333175
0.334575
0.333369
0.334565
0.334659
0.334589
0.334567
0.334682
0.33464
0.334755
0.334721
0.334796
0.334786
0.334759
0.334792
0.334591
0.334698
0.334283
0.334449
0.337573
0.333799
0.330837
0.142181
0.334525
0.334525
0.337573
0.337573
0.176429
0.17991
0.160532
0.163141
0.164987
0.167277
0.169039
0.170159
0.170675
0.170844
0.170669
0.170216
0.169587
0.168928
0.168224
0.167503
0.167026
0.167369
0.16995
0.170153
0.157269
0.159262
0.337573
0.337573
0.160475
0.179185
0.17936
0.174091
0.17178
0.171272
0.171503
0.171938
0.172142
0.17268
0.172581
0.172916
0.173083
0.173303
0.173352
0.173132
0.172731
0.172148
0.171343
0.170045
0.167569
0.162797
0.158363
0.156019
0.155266
0.155811
0.158968
0.17311
0.182244
0.172154
0.168189
0.16241
0.161239
0.163601
0.167655
0.17099
0.172416
0.173045
0.173357
0.173562
0.173663
0.173566
0.173477
0.173318
0.173064
0.172741
0.172254
0.171542
0.170672
0.169692
0.168727
0.168286
0.169385
0.173025
0.170516
0.144491
0.337555
0.147302
0.153778
0.168757
0.169766
0.167382
0.167175
0.168013
0.169142
0.170082
0.170627
0.170817
0.17085
0.170553
0.169758
0.168317
0.166281
0.16372
0.160208
0.159021
0.160258
0.337573
0.153256
0.176812
0.180731
0.175241
0.1717
0.170609
0.170525
0.170861
0.171229
0.171512
0.171701
0.17187
0.171952
0.171998
0.172002
0.171956
0.171897
0.17183
0.171735
0.171561
0.171481
0.171539
0.1716
0.171699
0.171827
0.171907
0.17193
0.171902
0.171952
0.172113
0.172377
0.172696
0.173027
0.173314
0.173514
0.173625
0.173654
0.173619
0.173556
0.173502
0.173452
0.173389
0.173279
0.173107
0.172892
0.172636
0.172302
0.1719
0.17147
0.171004
0.170549
0.170122
0.169723
0.169232
0.168719
0.168125
0.167406
0.166576
0.165754
0.165039
0.164569
0.164822
0.167085
0.172306
0.173248
0.163142
0.155096
0.155458
0.159114
0.161082
0.151643
0.14856
0.158943
0.157549
0.156033
0.151717
0.145086
0.147203
0.154322
0.162446
0.16859
0.169126
0.161398
0.175831
0.184941
0.175117
0.173888
0.171141
0.170813
0.171234
0.171759
0.172234
0.172569
0.172802
0.17292
0.17295
0.172916
0.172859
0.1728
0.172752
0.17271
0.172671
0.172639
0.172617
0.172609
0.172604
0.172601
0.172602
0.172606
0.172613
0.172622
0.17263
0.172587
0.172562
0.337573
0.337573
0.337573
0.337573
0.337539
0.337573
0.337573
0.334584
0.337759
0.337696
0.337694
0.337693
0.337692
0.337692
0.337692
0.337692
0.337692
0.337692
0.337692
0.337692
0.337693
0.337694
0.337696
0.337759
0.334584
0.172563
0.337573
0.159346
0.175991
0.174163
0.173611
0.171569
0.163074
0.162788
0.167541
0.164151
0.159646
0.162719
0.166355
0.166847
0.166779
0.165222
0.16224
0.161615
0.163242
0.165344
0.16731
0.168988
0.170291
0.171208
0.171802
0.17217
0.172406
0.172541
0.172607
0.172629
0.172636
0.172632
0.172626
0.172619
0.172614
0.172609
0.172606
0.172605
0.172606
0.172611
0.172618
0.17263
0.172591
0.172567
0.172568
0.337573
0.337573
0.337573
0.337573
0.337573
0.337573
0.337573
0.337573
0.159086
0.337573
0.337573
0.32879
0.337449
0.337573
0.320788
0.0857943
0.33757
0.32834
0.0798408
0.337572
0.31544
0.325137
0.337573
0.337573
0.337573
0.337573
0.33753
0.337573
0.337573
0.337573
0.337492
0.337573
0.337573
0.337573
0.337573
0.0961814
0.337573
0.337573
0.337573
0.337573
0.337573
0.337572
0.337573
0.337573
0.0789596
0.337573
0.337573
0.337573
0.324718
0.337573
0.322762
0.337519
0.337573
0.337553
0.337572
0.331919
0.337573
0.337573
0.337573
0.337573
0.337573
0.337573
0.337573
0.337573
0.32847
0.337573
0.337573
0.337573
0.337573
0.337573
0.337573
)
;

boundaryField
{
    wall
    {
        type            nutkWallFunction;
        blending        stepwise;
        value           nonuniform List<scalar> 
264
(
0.0202775
0.0171389
0.0213776
0.0218025
0.0194238
0.019746
0.0199736
0.0202554
0.020472
0.0206096
0.0206729
0.0206936
0.0206721
0.0206165
0.0205393
0.0204584
0.0203719
0.0202832
0.0202245
0.0202667
0.0205839
0.0206089
0.01902
0.0192666
0.0194168
0.0217142
0.0217355
0.0210916
0.0208084
0.0207462
0.0207745
0.0208279
0.0208528
0.0209187
0.0209066
0.0209477
0.0209681
0.0209951
0.0210011
0.0209741
0.020925
0.0208536
0.0207548
0.0205956
0.0202913
0.0197035
0.0191554
0.018865
0.0187716
0.0188392
0.0192303
0.0209714
0.0220869
0.0208543
0.0203676
0.0196557
0.0195111
0.0198026
0.0203019
0.0207115
0.0208864
0.0209635
0.0210017
0.0210269
0.0210391
0.0210273
0.0210165
0.0209969
0.0209658
0.0209262
0.0208666
0.0207793
0.0206726
0.0205522
0.0204337
0.0203796
0.0205145
0.020961
0.0206534
0.0174285
0.01778
0.0185867
0.0204374
0.0205614
0.0202684
0.0202429
0.0203459
0.0204847
0.0206001
0.020667
0.0206903
0.0206944
0.020658
0.0205603
0.0203833
0.0201329
0.0198173
0.0193836
0.0192369
0.0193899
0.018522
0.0214244
0.0219027
0.0212323
0.0207987
0.0206648
0.0206546
0.0206957
0.0207409
0.0207756
0.0207988
0.0208195
0.0208296
0.0208352
0.0208356
0.0208301
0.0208228
0.0208146
0.0208029
0.0207816
0.0207717
0.0207789
0.0207864
0.0207985
0.0208143
0.020824
0.0208269
0.0208234
0.0208295
0.0208493
0.0208817
0.0209207
0.0209613
0.0209965
0.0210209
0.0210345
0.0210381
0.0210338
0.0210261
0.0210194
0.0210134
0.0210057
0.0209922
0.0209711
0.0209448
0.0209134
0.0208725
0.0208232
0.0207704
0.0207133
0.0206574
0.0206051
0.0205561
0.0204957
0.0204327
0.0203597
0.0202714
0.0201691
0.0200681
0.01998
0.0199221
0.0199533
0.0202318
0.0208729
0.0209883
0.0197461
0.0187504
0.0187953
0.0192484
0.0194917
0.0183211
0.017937
0.0192272
0.0190546
0.0188666
0.0183304
0.0175029
0.0177675
0.0186543
0.0196602
0.0204169
0.0204827
0.0195307
0.0213045
0.022415
0.0212171
0.0210667
0.02073
0.0206899
0.0207416
0.0208059
0.0208641
0.0209052
0.0209338
0.0209482
0.0209518
0.0209477
0.0209407
0.0209335
0.0209276
0.0209225
0.0209177
0.0209137
0.020911
0.02091
0.0209094
0.0209091
0.0209092
0.0209097
0.0209106
0.0209116
0.0209127
0.0209077
0.0209046
0.0209036
0.0192769
0.021324
0.0211004
0.0210328
0.0207826
0.0197376
0.0197024
0.0202879
0.0198705
0.0193141
0.0196939
0.0201419
0.0202026
0.0201942
0.0200024
0.0196348
0.0195576
0.0197584
0.0200175
0.0202595
0.0204658
0.0206258
0.0207383
0.0208111
0.0208563
0.0208852
0.0209017
0.0209098
0.0209126
0.0209134
0.0209129
0.0209121
0.0209113
0.0209106
0.02091
0.0209096
0.0209096
0.0209098
0.0209103
0.0209112
0.0209126
0.0209082
0.0209052
0.0209042
0.0192449
0.00985884
0.00905958
0.0112364
0.00894047
)
;
    }
    outlet
    {
        type            calculated;
        value           nonuniform List<scalar> 
20
(
0.334584
0.337759
0.337696
0.337694
0.337693
0.337692
0.337692
0.337692
0.337692
0.337692
0.337692
0.337692
0.337692
0.337693
0.337694
0.337696
0.337759
0.334584
0.172563
0.172568
)
;
    }
    frontAndBackPlanes
    {
        type            empty;
    }
}


// ************************************************************************* //
