/*--------------------------------*- C++ -*----------------------------------*\
| =========                 |                                                 |
| \\      /  F ield         | OpenFOAM: The Open Source CFD Toolbox           |
|  \\    /   O peration     | Version:  2212                                  |
|   \\  /    A nd           | Website:  www.openfoam.com                      |
|    \\/     M anipulation  |                                                 |
\*---------------------------------------------------------------------------*/
FoamFile
{
    version     2.0;
    format      ascii;
    arch        "LSB;label=32;scalar=64";
    class       volScalarField;
    location    "9.3e-05";
    object      p;
}
// * * * * * * * * * * * * * * * * * * * * * * * * * * * * * * * * * * * * * //

dimensions      [1 -1 -2 0 0 0 0];

internalField   nonuniform List<scalar> 
25920
(
101.567
102.546
102.205
101.021
100.002
98.8483
97.5763
96.2417
95.0488
93.823
92.4765
90.9285
89.441
88.0973
87.0846
86.3987
86.3312
86.4341
86.9024
87.9705
90.1255
94.2506
100.616
108.442
118.034
128.976
139.713
152.6
166.996
182.43
200.519
218.274
235.227
251.545
265.672
275.195
279.623
283.545
286.945
290.093
293.598
294.794
293.005
285.278
271.927
264.251
247.174
95.4055
96.6799
96.2456
95.331
94.4359
93.344
92.1163
90.8569
89.7374
88.5755
87.3335
85.8881
84.4493
83.1661
82.1919
81.507
81.335
81.456
81.8778
82.8754
84.8557
88.5071
94.1938
101.784
111.811
119.958
129.755
141.198
154.415
168.492
183.816
199.947
215.383
230.413
244.32
253.904
257.129
259.248
260.945
262.627
265.173
267.182
267.668
265.094
258.416
252.532
245.313
94.4776
95.8574
95.3268
94.4905
93.6506
92.5753
91.361
90.1249
89.0285
87.8704
86.6491
85.2276
83.7924
82.5179
81.5463
80.8456
80.6104
80.7207
81.1167
82.0927
84.0404
87.5193
92.9993
100.746
111.076
118.015
127.495
138.504
151.389
164.948
179.328
194.977
209.922
224.456
238.423
248.401
251.448
252.97
254.014
254.984
256.8
258.782
260.027
259.401
256.212
251.329
245.8
94.274
95.684
95.1197
94.2735
93.454
92.3904
91.1885
89.9632
88.8801
87.7228
86.5077
85.0954
83.6613
82.388
81.4156
80.7075
80.4436
80.5341
80.9151
81.8798
83.8226
87.248
92.664
100.559
110.978
117.419
126.754
137.633
150.385
163.572
177.633
193.076
207.845
222.227
236.205
246.439
249.505
250.772
251.526
252.144
253.519
255.262
256.809
257.039
255.581
251.515
248.353
97.2204
97.0319
96.4604
95.2205
94.0414
92.7129
91.6652
90.5123
89.5293
88.3941
87.1045
85.5493
83.9568
82.5089
81.4262
80.6991
80.4293
80.5106
80.8877
81.8536
83.8057
87.2396
92.6657
101.321
112.019
117.345
126.684
137.55
150.274
163.207
177.205
192.579
207.352
221.668
235.689
245.871
248.975
250.129
250.767
251.223
252.376
253.902
255.485
256.051
255.349
253.115
250.582
99.0025
99.2881
98.9141
98.495
98.0014
96.2822
94.9013
93.7092
92.666
91.6897
90.4505
88.772
86.9927
85.5478
84.2925
83.3182
82.875
82.8283
83.0336
83.7423
85.5908
89.022
94.4887
105.533
115.625
119.924
128.14
138.159
150.588
163.218
177.218
192.583
207.39
221.623
235.691
245.8
248.885
249.999
250.605
251.008
252.074
253.479
255.026
255.714
255.314
254.004
252.211
101.598
102.688
102.615
102.146
101.461
100.162
98.4695
97.1191
95.7498
94.7226
93.6423
92.0172
90.5082
88.9986
87.6473
86.6872
86.2006
86.2689
86.4495
86.9222
88.554
92.0513
98.3601
110.148
117.497
122.901
131.781
141.386
153.102
166.934
181.076
196.202
210.747
225.512
240.716
250.44
252.411
253.195
253.073
251.913
252.055
253.405
254.925
255.633
255.611
254.714
253.36
104.737
105.495
105.073
104.627
103.146
102.433
101.065
99.8108
98.7561
97.3847
96.1422
94.6197
92.4816
90.8733
89.4596
88.394
87.9384
88.1243
88.672
89.6554
91.3676
94.4734
100.303
111.887
118.703
125.866
136.109
144.96
155.841
168.794
183.22
198.984
213.747
227.823
243.476
252.922
255.746
256.692
256.595
255.385
254.635
254.623
255.287
256.12
256.525
255.602
254.443
107.24
108.08
107.733
106.576
105.037
103.917
103.114
101.93
100.865
99.9813
98.8731
97.4257
95.4491
93.5977
92.3867
91.6212
90.8732
90.9346
91.1649
91.7221
93.3292
97.552
104.369
112.81
119.406
130.512
142.997
150.121
159.379
172.828
187.016
202.458
216.972
230.902
247.691
257.622
260.079
260.711
260.335
258.874
257.754
257.103
257.144
257.585
257.71
256.752
255.654
110.565
111.275
110.524
109.46
108.566
107.269
105.678
104.432
103.24
102.111
101.025
99.7632
97.892
96.1114
94.5703
93.4373
93.0742
93.2823
93.7253
94.851
96.8865
100.189
107.131
114.213
121.182
132.526
147.43
155.543
161.417
175.517
189.668
205.38
219.756
233.738
250.331
259.944
263.063
263.94
263.817
262.212
260.725
259.464
258.874
259.086
259.166
258.136
257.036
113.31
113.842
113.41
113.037
111.804
110.361
108.791
107.165
105.785
104.532
103.281
101.959
100.182
98.4282
97.1411
96.1804
95.4548
95.6151
95.7509
96.4529
98.8213
102.97
110.168
114.905
122.056
135.005
149.186
160.297
165.78
178.584
192.532
208.619
222.868
237.477
255.089
265.498
267.549
267.818
267.475
265.768
264.035
262.205
260.932
260.701
260.583
259.532
258.427
116.707
117.236
116.775
115.453
114.438
113.12
111.693
110.204
108.644
106.937
105.31
103.59
102.391
100.691
99.1655
97.6727
97.6764
97.9847
98.9671
99.7714
101.736
105.565
111.856
116.498
124.105
136.758
150.745
162.415
169.701
182.534
195.997
211.619
226.312
241.457
258.802
268.69
271.138
271.731
271.352
269.59
267.688
265.543
263.571
262.577
262.282
261.125
259.896
119.899
120.281
119.844
119.091
118.09
116.49
114.765
113.21
111.849
110.158
108.243
106.707
104.777
103.011
101.526
100.664
100.127
100.257
100.642
102.149
103.867
107.992
112.952
117.472
125.802
137.644
151.7
163.76
173.029
186.03
199.979
215.646
230.562
246.011
264.09
274.51
276.63
276.556
275.806
273.777
271.68
269.299
266.872
265.086
264.279
262.947
261.449
123.33
124.02
123.607
122.509
121.322
119.765
118.072
116.388
114.69
113.239
111.323
108.827
107.575
106.163
104.821
103.413
103.037
103.235
103.829
104.247
105.916
109.607
114.731
120.095
128.954
141.803
154.272
166.039
177.646
189.211
202.909
219.298
234.676
250.204
268.378
278.101
280.731
281.12
280.394
278.099
275.702
273.047
270.241
267.862
266.56
265.044
263.163
126.514
127.083
126.601
125.599
124.058
122.388
120.866
119.301
117.731
115.888
114.001
112.023
109.761
108.102
106.549
105.346
104.827
104.897
105.47
106.864
108.282
111.659
115.561
121.62
132.064
146.051
155.702
167.115
180.377
193.869
207.366
223.075
238.835
254.552
273.845
284.541
286.996
286.555
285.474
282.896
280.148
277.094
273.926
271.073
269.145
267.412
265.134
129.421
130.153
129.745
128.479
126.813
125.165
123.635
122.167
120.883
119.252
117.539
115.458
113.451
111.479
109.944
108.755
108.175
107.991
108.03
108.231
109.492
112.568
117.787
124.341
135.119
149.631
158.436
169.959
183.795
196.138
210.377
226.707
242.537
258.668
277.486
288.164
290.897
291.127
290.365
287.701
284.684
281.289
277.706
274.364
271.882
269.919
267.29
132.555
133.219
132.649
131.428
130.343
128.799
127.073
125.268
123.542
121.74
119.913
117.806
115.779
114.072
112.409
111.016
110.221
109.615
109.669
110.001
110.955
113.575
119.303
127.511
139.035
154.464
163.278
172.453
187.369
200.479
214.402
230.226
246.328
262.942
282.798
294.808
297.048
296.338
295.501
292.785
289.492
285.678
281.727
277.946
274.883
272.549
269.507
136.682
137.346
136.765
135.696
134.136
132.518
130.835
129.009
127.338
125.609
123.697
121.477
119.162
117.199
115.489
113.994
112.936
112.695
112.683
112.943
114.008
117.028
122.519
131.12
142.556
161.43
171.213
175.626
189.759
203.334
217.901
234.153
250.508
267.233
287.15
298.919
300.998
301.331
300.679
298.02
294.622
290.492
286.124
281.821
278.134
275.379
271.878
142.078
142.802
142.189
140.753
139.275
137.365
135.42
133.441
131.313
129.394
127.585
125.359
123.108
121.123
119.274
117.641
116.48
115.838
115.866
116.449
117.905
120.82
126.494
135.249
147.244
164.707
174.605
180.33
194.009
207.494
221.853
238.132
255.017
271.944
291.86
303.086
307.606
307.435
306.49
303.673
300.07
295.635
290.905
286.17
281.874
278.588
274.558
148.43
148.89
147.937
146.317
144.334
142.206
140.067
137.822
135.914
133.673
131.485
129.226
127.079
124.754
122.732
121.099
120.051
119.425
119.415
119.464
120.654
123.84
129.942
138.944
150.768
166.763
176.089
186.759
197.375
211.254
226.202
242.416
259.655
276.21
295.31
307.747
311.625
312.531
311.937
309.216
305.635
300.989
295.85
290.682
285.856
282.06
277.487
155.038
155.233
154.232
152.689
150.804
148.351
145.919
143.68
141.29
139.064
136.575
133.823
131.412
129.024
126.91
124.998
123.522
122.541
122.48
122.777
123.904
127.178
133.656
142.339
154.042
169.354
176.633
189.656
201.534
215.341
230.421
246.612
264.173
280.863
301.044
314.161
318.304
318.443
317.855
315.018
311.342
306.544
301.112
295.541
290.206
285.89
280.712
161.367
161.594
160.284
158.337
156.445
154.182
151.789
149.22
146.817
144.126
141.567
138.618
135.889
133.109
130.826
128.724
127.152
126.052
126.161
126.617
128.148
131.303
137.097
145.754
157.226
171.404
176.746
190.882
204.599
220.231
235.073
250.995
268.795
285.818
306.96
319.27
323.523
324.114
323.818
320.948
317.211
312.325
306.599
300.677
294.9
290.132
284.372
167.473
167.797
166.73
164.831
162.732
160.064
157.426
155
152.247
149.648
146.856
143.864
140.308
137.619
135.09
132.778
131.009
129.646
129.676
129.893
130.854
133.885
139.844
148.369
159.91
172.807
176.861
191.512
207.425
224.075
239.601
255.586
273.456
291.307
313.745
326.853
331.277
330.948
330.248
327.207
323.354
318.411
312.518
306.249
300.022
294.829
288.511
173.508
173.894
172.686
170.753
168.563
166.026
163.411
160.677
158.088
155.388
152.409
149.066
145.943
142.448
139.677
137.218
135.233
133.788
133.776
134.021
135.027
137.495
142.674
150.687
163.484
173.893
178.344
193.381
210.049
227.764
244.135
260.486
278.355
296.689
318.975
332.432
337.052
337.537
336.799
333.678
329.693
324.629
318.593
312.045
305.396
299.791
292.948
179.579
180.025
178.828
176.852
174.555
171.825
168.943
166.223
163.682
160.876
157.763
154.036
150.943
147.535
144.531
141.943
139.612
137.753
137.392
137.53
138.324
140.679
145.795
154.417
167.852
174.743
181.812
196.124
213.725
231.508
248.754
265.634
283.527
302.126
324.383
339.431
344.811
345.015
343.941
340.553
336.359
331.168
325.011
318.207
311.166
305.11
297.672
186.031
186.516
185.292
183.416
181.267
178.488
175.781
173.361
170.664
167.83
164.595
160.849
156.39
152.947
149.837
146.99
144.484
142.441
141.544
141.668
142.311
144.316
149.208
157.894
170.434
173.69
187.814
200.516
217.528
234.545
252.645
270.676
288.828
307.57
329.498
344.404
351.085
352.645
351.519
348.05
343.607
338.168
331.803
324.789
317.431
310.967
302.898
192.871
193.302
191.849
189.666
187.084
184.233
181.219
178.193
175.523
172.501
169.371
165.766
162.607
158.53
155.192
152.185
149.515
147.326
146.077
146.188
146.846
148.643
152.692
160.327
171.614
178.253
195.28
207.764
223.241
238.793
256.697
275.62
294.282
313.442
334.78
351.767
359.442
360.835
359.568
355.914
351.256
345.632
339.115
331.927
324.299
317.489
308.767
200.26
200.563
199.125
196.839
194.357
191.388
188.295
185.413
182.528
179.533
176.147
172.117
167.795
164.554
161.296
158.083
155.081
152.487
150.909
150.969
151.444
153.155
157.146
164.545
173.28
188.101
203.788
213.77
229.487
244.384
260.823
280.046
299.477
318.993
340.407
357.642
365.697
368.249
367.363
363.944
359.147
353.292
346.619
339.273
331.444
324.406
315.099
208.279
208.386
206.851
204.509
201.794
198.696
195.375
192.015
188.934
185.765
182.301
178.107
174.319
170.26
166.825
163.688
160.844
158.2
156.478
156.594
156.999
158.368
161.786
168.226
177.344
194.41
215.263
221.395
235.29
249.96
265.616
284.459
304.568
324.685
346.812
366.132
375.442
376.915
375.41
371.935
367.117
361.178
354.403
346.926
338.902
331.663
321.765
217.008
216.909
215.231
212.711
209.856
206.449
202.855
199.619
196.233
192.524
188.803
184.651
180.311
176.417
172.928
169.561
166.324
163.655
161.918
162.137
162.653
164.117
167.257
172.618
182.337
200.015
221.189
229.943
241.83
255.16
271.605
289.211
309.644
330.361
353.513
371.871
381.363
384.423
383.381
380.069
375.259
369.271
362.362
354.763
346.584
339.211
328.722
226.407
226.253
224.465
221.747
218.609
214.849
210.906
207.371
204.047
200.434
196.322
191.572
187.241
183.131
179.292
175.794
172.635
169.755
167.937
168.156
168.585
169.939
173.298
179.76
187.141
205.475
223.748
236.866
248.059
260.805
276.76
294.467
314.959
336.204
360.189
381.086
392.478
393.804
391.866
388.343
383.488
377.577
370.724
363.021
354.674
347.204
336.087
235.986
235.654
233.951
231.174
228.053
224.225
220.184
216.436
212.732
208.678
204.448
199.535
194.61
190.057
186.006
182.059
178.792
175.862
174.005
174.298
174.849
176.211
179.324
185.272
195.353
210.45
224.602
242.001
254.613
267.594
282.665
300.302
320.541
341.993
366.859
387.225
400.557
402.54
400.462
396.947
391.931
385.955
379.175
371.441
362.95
355.533
343.845
245.92
245.427
243.518
240.603
237.333
233.298
229.124
225.374
221.713
217.633
213.165
208
203.001
198.174
193.575
189.261
185.574
182.117
179.912
180.135
180.679
182.052
185.359
192.321
202.126
212.118
226.913
246.993
259.324
273.241
289.78
306.466
326.371
347.644
373.364
395.821
410.82
411.312
408.707
405.213
400.082
394.006
387.386
379.723
371.025
363.716
351.613
256.212
255.663
253.832
250.867
247.359
243.09
238.729
234.838
231.053
226.807
222.166
216.67
211.295
206.114
201.517
197.273
192.673
188.866
186.197
186.268
186.58
187.699
190.631
196.93
205.944
216.419
233.27
254.327
267.128
280.428
295.548
312.849
332.306
353.379
379.047
403.404
417.837
418.387
415.967
413.07
407.92
401.633
395
387.36
378.683
371.109
358.936
267.184
266.546
264.432
261.05
257.256
252.592
248.083
244.472
240.802
236.452
231.647
225.877
220.211
214.691
209.332
204.295
199.834
195.614
192.43
192.237
192.38
193.321
195.973
202.11
211.821
224.266
238.442
258.622
272.857
287.519
302.949
319.693
338.377
359.462
385.206
413.369
425.991
426.395
424.456
421.165
415.872
409.228
402.589
395.036
386.208
378.402
366.074
279.258
278.526
276.037
272.373
268.113
263.388
258.839
254.336
250.576
246.105
241.066
235.08
229.223
223.595
218.826
213.804
208.234
203.139
199.253
198.357
198.383
198.992
201.307
206.796
216.831
230.644
243.469
262.67
278.01
292.846
309.388
326.805
345.17
366.052
391.63
420.405
433.528
434.415
432.929
429.724
424.257
417.187
410.469
402.893
393.988
385.976
373.448
292.288
291.518
289.269
285.701
282.028
277.539
272.278
266.715
261.548
256.703
251.459
245.107
238.817
232.74
226.986
221.381
216.227
211.118
206.789
205.19
205.056
205.548
207.493
212.803
222.833
237.129
252.263
269.839
284.775
300.02
316.796
334.289
352.359
372.878
397.667
423.387
440.376
442.173
440.915
437.585
432.209
425.037
418.331
410.787
401.723
393.515
380.692
306.214
305.359
302.33
298.079
293.262
288.068
282.86
277.469
272.615
267.461
261.828
255.104
248.48
242.147
236.338
230.696
224.923
219.321
214.572
212.198
211.777
212.284
214.229
219.279
230.427
243.058
259.234
277.107
292.248
306.883
323.812
341.856
359.952
379.885
403.858
428.543
446.07
448.801
448.02
445.095
440.012
433.065
426.211
418.606
409.415
401.06
387.798
320.725
319.951
316.666
312.203
307.323
301.95
295.946
290.11
284.443
278.661
272.575
265.321
258.241
251.512
245.345
239.182
233.328
227.602
222.637
219.655
219.217
219.717
221.754
226.992
237.328
250.713
267.783
284.513
300.267
315.389
331.791
349.8
367.883
387.25
410.639
436.655
453.001
456.958
456.003
452.908
447.957
441.428
434.44
426.91
417.581
409.206
395.385
335.573
334.863
331.118
326.368
321.071
314.77
308.911
302.303
296.643
290.608
284.029
276.202
268.567
261.406
254.879
248.645
242.234
236.238
231.103
227.525
227.104
227.801
229.917
235.062
245.519
258.23
276.399
293.371
307.597
323.293
339.834
358.196
376.368
395.612
418.733
447.335
461.528
465.443
464.92
461.552
456.343
450.016
443.13
435.941
426.726
418.359
403.965
350.854
350.31
346.204
341.341
335.895
328.985
321.306
315.517
309.764
303.181
296.083
287.691
279.546
271.933
265.084
258.333
251.853
245.535
240.082
235.938
235.567
236.356
238.917
244.026
252.542
266.278
284.214
302.566
318.05
332.189
348.227
366.47
385.266
404.699
427.679
457.279
470.015
473.522
473.676
469.938
464.526
458.71
452.061
445.064
436.467
428.262
413.29
365.311
364.879
360.483
355.45
349.666
343.574
337.416
329.334
322.305
315.441
308.082
299.23
290.563
282.394
275.014
267.948
261.018
254.399
248.648
244.195
243.849
244.889
247.549
252.795
263.082
275.433
293.139
311.037
326.653
341.77
357.47
374.707
393.914
413.653
435.977
461.542
478.459
482.493
483.335
479.12
473.107
467.107
460.807
454.129
446.255
438.605
423.081
377.514
376.916
372.497
367.448
361.64
354.511
346.536
340.501
334.065
326.537
318.797
309.655
300.715
292.249
284.64
277.209
270.029
262.941
256.734
252.142
252.017
252.736
255.054
260.123
268.545
283.062
300.811
318.824
334.1
349.217
365.525
382.4
401.722
421.564
444
470.526
487.071
492.867
493.004
488.322
481.818
475.4
469.253
462.991
455.845
449.121
433.459
388.246
387.408
383.212
378.009
372.174
365.691
359.508
352.215
344.881
337.192
329.11
319.689
310.51
301.696
293.727
286.004
278.517
271.133
264.388
259.748
259.25
260.362
262.577
267.836
276.236
291.555
308.683
326.844
342.744
357.765
373.583
390.118
409.176
429.018
452.432
480.447
497.924
502.967
502.42
497.374
490.591
483.55
477.233
471.416
464.79
459.129
444.05
399.032
397.652
393.743
388.593
382.752
375.867
368.123
362.07
355.126
347.431
339.446
329.832
320.52
311.505
303.36
295.343
287.559
279.771
272.613
268.239
267.942
268.492
270.426
275.047
285.866
298.38
316.437
334.852
351.361
366.644
381.774
397.996
416.601
436.17
460.113
487.863
508.162
513.562
510.925
505.866
499.318
491.738
484.817
479.002
472.696
467.966
453.716
411.41
409.836
405.833
400.35
394.252
387.315
380.66
373.403
366.253
358.641
350.545
340.664
331.152
321.856
313.425
305.075
296.979
288.909
282.03
277.365
276.986
277.26
278.831
283.368
292.198
307.574
324.099
342.637
359.48
375.591
390.011
406.14
424.335
443.512
467.772
496.473
516.617
522.193
520.047
514.797
508.457
500.423
492.864
486.463
480.013
475.819
462.298
426.328
424.427
420.14
414.537
408.183
400.832
393.274
385.052
378.301
370.811
362.753
352.702
342.907
333.24
324.528
315.84
307.177
298.686
290.828
285.447
284.992
285.574
287.457
291.349
301.183
316.006
333.648
351.993
368.632
385.594
399.431
415.081
432.743
451.62
476.097
505.25
527.132
533.264
530.971
524.875
518.625
510.238
501.88
494.697
487.696
483.628
470.627
444.026
442.025
437.291
431.071
424.069
415.086
406.7
400.322
393.636
385.565
376.934
366.336
356.099
346.029
336.966
327.962
318.935
310.026
302.027
295.936
294.933
295.432
297.273
301.603
311.266
325.454
343.234
361.11
378.783
396.572
409.654
425.604
442.429
460.994
485.145
514.207
537.111
543.738
542.198
537.045
530.02
521.322
512.218
504.021
496.192
491.884
479.386
464.467
462.202
456.97
450.188
442.539
434.926
426.912
417.581
409.238
401.017
392.308
381.426
370.704
360.149
350.618
341.144
331.752
322.476
314.025
307.141
305.454
305.93
307.76
311.633
320.682
336.487
353.267
371.565
389.956
410.256
421.53
437.198
453.694
471.95
495.239
523.738
547.86
556.355
554.263
549.743
542.593
533.496
523.618
514.353
505.551
500.625
488.497
486.837
484.399
478.492
471.071
462.653
452.433
442.393
434.525
427.134
418.366
409.132
397.718
386.3
375.29
365.449
355.652
345.848
336.11
327.082
319.702
317.155
317.531
319.016
323.194
333.308
347.787
365.884
383.559
401.777
424.403
434.31
448.965
466.25
484.081
506.282
533.469
556.883
565.565
565.638
561.847
555.386
546.146
535.672
525.417
515.528
509.485
497.57
509.551
507.094
500.711
492.706
483.531
473.288
463.414
453.544
444.849
435.691
425.984
413.916
401.852
390.252
379.889
369.61
359.507
349.331
339.673
332.037
328.09
328.629
330.659
335.112
344.803
359.013
376.623
394.124
413.465
430.841
446.968
462.783
479.5
497.277
518.581
544.837
568.99
577.521
577.389
574.815
568.732
559.337
548.37
537.104
526.166
518.745
506.698
531.402
529.149
522.314
514.052
504.795
494.347
483.39
473.159
463.631
453.552
443.171
430.272
417.443
405.212
394.457
383.86
373.42
362.547
352.22
343.944
339.344
339.674
341.527
346.432
356.116
370.159
388.556
406.232
425.848
440.549
459.609
476.111
492.759
510.675
531.137
556.901
580.293
588.158
589.438
587.899
582.033
572.828
561.667
549.605
537.562
528.606
516.181
552.283
550.432
543.312
534.828
524.972
513.215
501.938
491.354
481.914
471.491
460.412
446.637
433.039
420.107
408.783
397.772
386.963
375.789
365.014
355.892
350.443
350.618
352.545
358.701
368.819
380.81
400.748
417.909
440.246
460.89
471.098
488.562
505.626
524.626
544.951
571.246
594.369
604.383
604.836
602.666
596.977
587.723
576.468
563.838
550.751
540.13
526.948
572.277
570.731
563.444
554.991
545.313
534.574
523.171
511.987
501.462
490.317
478.628
464.107
449.687
436.006
424.113
412.58
401.125
389.485
378.395
368.92
362.956
362.753
364.393
372
381.774
393.809
417.469
432.79
456.554
468.439
489.477
505.742
520.558
539.581
560.078
587.419
607.095
618.749
621.083
619.629
613.251
603.883
592.633
579.823
565.943
553.91
539.571
592.321
590.902
583.5
574.987
565.237
553.626
542.154
531.173
521.063
509.781
497.642
482.459
467.228
452.797
440.259
428.152
416.451
404.123
392.568
382.332
374.59
374.004
376.136
384.844
395.663
407.527
436.325
448.586
471.176
477.823
500.889
515.867
534.367
553.91
575.062
603.084
622.546
634.237
636.595
636.052
630.046
620.654
609.295
596.471
582.021
568.979
553.323
615.309
613.971
605.928
597.152
587.234
576.173
564.689
553.333
542.621
530.97
518.417
502.569
486.434
471.198
457.986
445.23
432.814
419.623
407.053
395.354
386.506
384.791
385.744
392.581
405.348
420.642
451.171
463.717
482.798
492.582
515.959
535.933
549.963
568.621
589.883
617.738
638.612
650.291
652.994
653.271
647.594
637.931
626.487
613.796
599.034
585.178
567.877
644.49
643.206
633.788
624.467
613.644
601.755
589.223
577.715
566.89
555.045
542.167
525.705
508.663
492.511
478.491
464.938
451.328
437.384
423.764
411.281
402.309
396.612
394.66
397.84
413.424
431.902
461.111
480.431
492.857
507.827
523.587
547.021
565.184
583.983
605.237
632.635
654.098
670.267
671.598
671.554
666.629
656.98
645.015
632.195
617.41
603.016
583.854
679.01
677.596
666.416
656.059
643.893
631.326
617.704
605.349
593.697
581.288
567.918
550.806
532.914
515.836
500.992
486.683
472.613
457.401
442.97
430.242
419.837
412.404
409.897
405.581
425.141
442.789
470.897
494.007
498.127
515.641
543.928
562.09
580.737
601.031
622.031
648.13
670.806
686.102
690.25
691.099
686.912
677.585
665.145
651.98
637.283
622.785
601.885
715.075
712.707
700.38
688.936
675.304
661.297
646.183
632.841
620.446
607.452
593.616
575.965
557.451
539.63
523.931
508.861
493.78
477.78
462.09
446.889
434.819
424.87
424.132
418.912
438.19
455.394
479.345
503.38
514.397
536.148
558.689
575.391
597.501
619.006
639.813
665.718
692.379
706.282
710.621
711.927
707.468
698.484
686.144
672.563
657.944
643.878
621.81
751.371
748.088
734.795
722.177
707.161
692.129
675.553
661.019
647.597
633.559
618.878
600.478
581.368
562.958
546.791
531.172
515.56
498.736
482.215
468.493
455.517
442.677
438.419
440.78
446.032
463.639
487.837
516.811
535.607
558.094
577.908
591.84
615.549
636.056
657.666
684.317
707.463
726.283
732.385
733.185
727.945
718.916
706.93
693.252
678.728
665.351
642.921
789.046
785.118
771.168
757.737
741.347
724.666
706.721
690.927
676.397
661.192
645.434
626.032
606.169
587.195
570.196
553.69
537.353
519.855
502.38
485.901
473.798
463.66
463.824
459.629
462.728
475.275
491.339
527.197
549.219
580.971
601.823
618.256
632.58
653.351
675.734
702.777
729.963
746.537
752.664
753.563
748.057
738.89
727.198
713.799
699.376
686.534
664.435
828.89
824.259
809.862
795.707
778.488
760.983
741.664
724.382
708.492
691.826
674.643
653.838
632.679
612.542
594.927
577.764
560.811
542.567
524.821
509.291
495.136
484.916
478.747
478.391
479.486
488.113
497.323
542.056
576.604
598.687
613.751
634.377
653.169
671.012
694.031
721.559
754.258
771.682
776.443
776.261
769.919
760.026
747.906
734.597
720.055
707.451
685.646
871.701
866.109
851.863
837.065
818.963
800.088
779.894
761.516
744.412
726.142
707.26
684.715
662.12
640.575
621.683
603.182
585.241
566.377
547.518
530.404
517.385
506.255
497.639
493.294
495.868
505.182
510.656
555.439
593.951
621.33
639.461
655.482
670.608
690.177
713.177
741.522
774.065
791.969
797.665
798.41
792.54
782.317
769.526
755.876
741.014
728.4
706.634
918.103
912.028
897.492
882.486
864.084
844.761
823.525
803.805
785.624
766.068
745.574
721.045
696.217
672.496
651.695
631.634
612.195
591.769
572.057
554.339
539.536
529.155
517.603
511.61
514.564
520.115
536.81
565.013
603.412
633.209
652.32
676.433
692.943
711.086
735
764.298
798.631
817.995
823.265
823.224
817.098
806.641
793.037
778.739
762.999
750.054
728.043
970.069
963.636
948.632
933.202
914.339
894.578
872.791
851.928
832.513
811.529
789.615
762.964
735.75
709.597
686.798
664.735
643.457
621.223
599.669
579.888
561.455
545.515
538.601
536.121
537.702
547.747
561.015
586.778
623.146
648.859
669.744
690.231
713.467
734.68
758.325
787.376
821.113
841.46
847.947
846.902
842.425
833.017
818.814
803.7
786.732
773.059
750.417
1028.44
1021.51
1005.68
989.731
969.333
948.394
925.488
904.541
884.75
862.861
840.219
811.745
782.33
753.667
728.029
703.153
679.161
654.548
630.93
609.002
591.339
576.619
562.865
560.374
565.451
581.29
598.618
624.909
656.71
678.305
705.273
719.174
737.798
760.169
783.617
813.061
849.387
871.622
876.97
877.157
870.171
861.985
847.471
831.345
812.827
798.033
774.29
1094.87
1087.15
1069.65
1052.54
1031.13
1009.79
985.528
962.663
941.712
918.824
895.283
865.041
833.437
802.425
774.723
747.612
721.019
693.145
666.518
643.343
625.36
611.9
603.557
604.796
607.235
616.268
630.469
639.477
676.676
705.936
722.66
747.859
768.296
788.447
812.227
842.255
877.851
899.724
906.667
908.457
903.249
893.918
878.699
861.652
841.486
825.287
799.936
1169.4
1160.99
1141.52
1123.08
1099.22
1075.8
1049.45
1025.64
1003.41
979.242
954.121
922.439
889.271
856.511
826.744
797.309
768.215
737.592
707.613
680.217
656.423
637.969
624.075
629.643
636.885
640.727
646.047
657.7
692.982
730.307
749.138
768.054
793.213
817.062
842.157
872.302
907.166
929.372
937.85
939.939
934.977
927.577
911.521
893.828
872.255
854.62
827.081
1249.49
1240.2
1218.38
1197.84
1171.43
1146.16
1117.26
1091.13
1067.31
1041.71
1014.74
981.232
946.201
911.67
880.253
849.135
818.086
784.817
751.694
721.107
696.018
678.034
664.797
658.397
656.156
660.539
668.986
689.629
722.106
756.928
784.338
807.535
827.435
847.092
871.752
901.632
935.839
955.17
968.429
971.427
966.658
959.218
943.841
926.286
904.101
885.196
855.291
1330.53
1320.32
1296.41
1274.07
1245.08
1217.23
1185.64
1157.13
1130.97
1103.16
1074.27
1038.59
1001.62
965.678
932.985
900.532
868.067
832.788
796.742
763.071
733.629
709.943
697.038
677.893
676.29
676.985
695.141
727.657
758.546
786.573
813.344
836.815
855.785
876.763
901.018
931.105
966.074
982.161
996.447
1002.35
999.151
989.809
974.999
957.987
936.14
916.54
884.37
1407.93
1396.81
1371.26
1346.99
1315.48
1285.19
1251.01
1220.12
1191.84
1161.74
1130.65
1092.62
1053.55
1015.94
981.862
948.303
914.841
878.481
840.98
804.661
772.47
746.025
725.014
713.528
702.828
709.546
719.13
749.623
779.878
815.963
846.765
871.179
889.198
907.121
930.158
959.622
995.761
1015.91
1030.36
1034.11
1028.54
1019.75
1005.22
988.905
968.036
948.676
914.868
1482.96
1471.04
1444.25
1418.71
1385.48
1352.92
1316.55
1283.18
1252.63
1220.07
1186.7
1145.86
1104.22
1064.87
1029.38
994.572
960.183
922.875
884.315
846.862
812.63
783.963
761.297
745.383
743.332
753.186
759.546
775.582
805.826
841.349
869.391
894.945
916.113
937.093
960.001
988.777
1025.59
1049.46
1063.96
1066.84
1062.1
1051.07
1036.46
1020.86
1001.27
983.288
948.548
1562.56
1549.63
1522.39
1495.97
1461.59
1427.15
1389.06
1353.63
1321.05
1285.86
1249.83
1206.08
1161.53
1119.68
1081.93
1045.06
1008.94
970.533
931.264
892.471
856.719
823.045
795.77
784.985
785.238
783.788
792.163
810.757
837.868
872.754
911.638
934.225
948.313
968.789
993.74
1022.67
1059.74
1090.1
1103.37
1102.18
1099.76
1086.5
1070.52
1054.97
1036.44
1021.12
986.437
1655.84
1641.54
1613.49
1586.24
1550.59
1514.26
1474.56
1436.72
1402.13
1364.71
1326.15
1279.25
1230.62
1185.18
1144.06
1104.01
1065.24
1024.53
983.57
943.582
905.544
871.27
845.9
824.41
819.124
815.865
819.855
835.993
864.922
902.995
941.281
966.116
994.698
1008.54
1032.48
1063.37
1098.03
1129.59
1141.41
1141.09
1136.29
1122.3
1104.93
1089.08
1070.46
1058.68
1024.87
1766.61
1751.01
1721.53
1693.37
1656.14
1617.82
1575.95
1535.74
1499.03
1459.04
1417.26
1366.64
1313.68
1263.97
1218.49
1173.81
1130.42
1085.5
1041.21
999.046
960.38
926.75
897.118
872.367
867.193
864.728
867.764
877.581
902.05
935.698
967.524
999.697
1021.84
1045.09
1070.58
1104.22
1137.04
1166.65
1179.34
1180.43
1173.37
1157.08
1138.54
1122.45
1101.88
1092.8
1059.72
1893.56
1876.21
1844.04
1813.62
1773.41
1732.77
1688.59
1645.77
1606.52
1563.76
1519.07
1464.2
1407.13
1352.17
1301.48
1251.38
1202.46
1151.81
1102.52
1056.61
1015
976.76
943.109
921.629
911.23
913.396
920.841
932.187
952.29
987.387
1016.96
1039.92
1056.61
1075.33
1105.54
1141.49
1176.57
1206.15
1219.62
1223.72
1213.84
1195.83
1175.34
1157.62
1134.63
1125.19
1092.19
2034.95
2015.87
1980.01
1946.57
1902.52
1859.02
1811.45
1766.09
1724.36
1678.67
1630.95
1571.52
1510.59
1450.33
1394.54
1338.8
1283.7
1226.1
1170.02
1118.25
1071.66
1030.94
998.833
970.898
961.695
966.891
970.976
979.287
1002.64
1039.37
1051.9
1082.63
1097.5
1117.27
1142.77
1180.07
1216.58
1248.86
1264.16
1269.63
1256.53
1238.98
1217.2
1197.04
1171.8
1159.19
1126.81
2195.37
2173.85
2133.38
2095.9
2046.82
1999.71
1948.19
1899.64
1854.69
1805.36
1754.12
1690.19
1625.27
1560.45
1499.97
1438.78
1377.52
1312.79
1248.92
1189.67
1137.55
1092.08
1052.56
1022.3
1004.73
1004.85
1011.19
1024.57
1042.23
1064.15
1109.1
1119.39
1138.43
1159.58
1185.8
1221.63
1260.34
1295.26
1314.89
1323.35
1307.97
1288.94
1264.56
1242.56
1214.82
1197.63
1165.63
2383.34
2358.22
2311.82
2269.22
2213.61
2161.1
2103.5
2050.86
2002.01
1948.41
1892.82
1823.64
1752.91
1682.89
1617.97
1552
1485.21
1413.72
1341.93
1274.89
1214.11
1160.01