/*--------------------------------*- C++ -*----------------------------------*\
| =========                 |                                                 |
| \\      /  F ield         | OpenFOAM: The Open Source CFD Toolbox           |
|  \\    /   O peration     | Version:  2212                                  |
|   \\  /    A nd           | Website:  www.openfoam.com                      |
|    \\/     M anipulation  |                                                 |
\*---------------------------------------------------------------------------*/
FoamFile
{
    version     2.0;
    format      ascii;
    arch        "LSB;label=32;scalar=64";
    class       volScalarField;
    location    "0.4353";
    object      s;
}
// * * * * * * * * * * * * * * * * * * * * * * * * * * * * * * * * * * * * * //

dimensions      [0 0 0 0 0 0 0];

internalField   nonuniform List<scalar> 
24240
(
7.77917e-71
7.74722e-71
7.80088e-71
7.71426e-71
7.69783e-71
7.81991e-71
7.78333e-71
7.62319e-71
7.68003e-71
7.88204e-71
7.73235e-71
7.86002e-71
7.77795e-71
7.87658e-71
7.68885e-71
7.9145e-71
7.67451e-71
7.75904e-71
7.71999e-71
7.52902e-71
2.5588e-68
2.54945e-68
2.56678e-68
2.53868e-68
2.53266e-68
2.57309e-68
2.56097e-68
2.50858e-68
2.52725e-68
2.59349e-68
2.54443e-68
2.58588e-68
2.55981e-68
2.59164e-68
2.53033e-68
2.60395e-68
2.52594e-68
2.55346e-68
2.54035e-68
2.47718e-68
4.21472e-66
4.20117e-66
4.22919e-66
4.18353e-66
4.17264e-66
4.23964e-66
4.21957e-66
4.13376e-66
4.16451e-66
4.27322e-66
4.19276e-66
4.26011e-66
4.21871e-66
4.2701e-66
4.16987e-66
4.29008e-66
4.16319e-66
4.20801e-66
4.18603e-66
4.08145e-66
4.07478e-64
4.06345e-64
4.09002e-64
4.04645e-64
4.03498e-64
4.10013e-64
4.08062e-64
3.99812e-64
4.02787e-64
4.13252e-64
4.05507e-64
4.11926e-64
4.08073e-64
4.12937e-64
4.03321e-64
4.14835e-64
4.02729e-64
4.07009e-64
4.04849e-64
3.94693e-64
2.78043e-62
2.77391e-62
2.79166e-62
2.7623e-62
2.75384e-62
2.79854e-62
2.78518e-62
2.72923e-62
2.74956e-62
2.82061e-62
2.76805e-62
2.81117e-62
2.78594e-62
2.81839e-62
2.75331e-62
2.83108e-62
2.74967e-62
2.77847e-62
2.76354e-62
2.69402e-62
1.31581e-60
1.31326e-60
1.32146e-60
1.30774e-60
1.30344e-60
1.3247e-60
1.31836e-60
1.29204e-60
1.3017e-60
1.33511e-60
1.31039e-60
1.33045e-60
1.31901e-60
1.334e-60
1.30347e-60
1.33985e-60
1.30194e-60
1.31535e-60
1.30822e-60
1.27528e-60
4.33025e-59
4.3236e-59
4.34992e-59
4.30532e-59
4.29017e-59
4.36043e-59
4.33954e-59
4.25357e-59
4.28562e-59
4.39461e-59
4.31394e-59
4.37864e-59
4.34278e-59
4.39075e-59
4.29126e-59
4.40936e-59
4.28697e-59
4.3302e-59
4.30662e-59
4.19841e-59
9.25274e-58
9.24169e-58
9.29633e-58
9.20201e-58
9.16769e-58
9.31803e-58
9.27362e-58
9.09139e-58
9.16113e-58
9.3906e-58
9.22052e-58
9.35531e-58
9.2825e-58
9.38177e-58
9.17164e-58
9.41953e-58
9.16447e-58
9.25422e-58
9.20411e-58
8.97518e-58
5.76399e-57
5.76015e-57
5.79332e-57
5.73508e-57
5.7125e-57
5.80582e-57
5.77872e-57
5.6665e-57
5.71193e-57
5.85068e-57
5.74759e-57
5.82817e-57
5.78564e-57
5.84458e-57
5.71599e-57
5.86596e-57
5.7133e-57
5.76646e-57
5.7359e-57
5.5957e-57
1.53351e-57
1.53553e-57
1.54795e-57
1.52538e-57
1.52285e-57
1.53389e-57
1.53523e-57
1.51081e-57
1.54896e-57
1.54062e-57
1.54323e-57
1.54196e-57
1.53234e-57
1.53477e-57
1.51385e-57
1.52308e-57
1.52626e-57
1.52022e-57
1.52368e-57
1.52503e-57
2.82587e-57
2.83826e-57
2.86757e-57
2.81622e-57
2.80565e-57
2.80772e-57
2.82595e-57
2.79202e-57
2.86542e-57
2.85643e-57
2.86403e-57
2.84057e-57
2.84063e-57
2.8173e-57
2.79764e-57
2.81079e-57
2.78403e-57
2.79779e-57
2.81282e-57
2.80423e-57
3.027e-57
3.04102e-57
3.06112e-57
3.00613e-57
3.01551e-57
2.98686e-57
3.03828e-57
3.01181e-57
3.02795e-57
3.08413e-57
3.04844e-57
3.00404e-57
3.0586e-57
3.03784e-57
3.02488e-57
3.04465e-57
2.96026e-57
3.01146e-57
2.99615e-57
2.99139e-57
3.64649e-57
3.66125e-57
3.677e-57
3.68145e-57
3.69017e-57
3.72155e-57
3.74415e-57
3.70615e-57
3.69256e-57
3.64919e-57
3.65012e-57
3.65915e-57
3.6939e-57
3.70472e-57
3.66209e-57
3.68131e-57
3.68157e-57
3.67297e-57
3.64018e-57
3.65806e-57
3.83878e-57
3.8108e-57
3.82777e-57
3.88592e-57
3.86987e-57
3.90669e-57
3.84003e-57
3.91924e-57
3.81402e-57
3.7846e-57
3.78283e-57
3.81974e-57
3.81385e-57
3.77805e-57
3.7683e-57
3.80318e-57
3.75862e-57
3.82106e-57
3.79969e-57
3.84194e-57
4.03295e-57
4.01657e-57
4.07106e-57
4.0244e-57
4.02591e-57
4.09226e-57
4.05153e-57
4.12354e-57
4.04048e-57
4.09955e-57
4.06515e-57
4.07903e-57
4.08095e-57
4.11735e-57
4.07171e-57
4.13604e-57
4.05556e-57
4.0119e-57
4.05525e-57
4.01938e-57
3.94046e-57
3.90914e-57
3.88451e-57
3.8975e-57
3.9301e-57
3.95836e-57
3.94551e-57
3.93419e-57
3.87903e-57
3.89002e-57
3.84784e-57
3.93509e-57
3.9503e-57
3.9741e-57
3.97763e-57
3.94941e-57
3.93941e-57
3.95603e-57
3.92338e-57
3.92826e-57
3.70903e-57
3.77062e-57
3.71239e-57
3.79839e-57
3.69631e-57
3.76761e-57
3.71154e-57
3.76706e-57
3.72908e-57
3.76273e-57
3.73253e-57
3.81621e-57
3.73866e-57
3.82378e-57
3.74291e-57
3.7599e-57
3.78079e-57
3.70214e-57
3.79044e-57
3.78709e-57
3.32205e-57
3.4051e-57
3.39015e-57
3.35166e-57
3.33131e-57
3.42707e-57
3.37022e-57
3.39256e-57
3.37452e-57
3.32892e-57
3.35533e-57
3.40919e-57
3.35783e-57
3.44604e-57
3.36186e-57
3.40768e-57
3.40856e-57
3.38682e-57
3.41524e-57
3.43287e-57
3.28982e-57
3.29269e-57
3.30483e-57
3.32941e-57
3.32694e-57
3.32863e-57
3.26767e-57
3.34702e-57
3.35995e-57
3.29362e-57
3.34352e-57
3.36835e-57
3.27026e-57
3.3762e-57
3.36769e-57
3.41354e-57
3.34611e-57
3.35673e-57
3.3255e-57
3.38109e-57
1.99557e-57
2.01354e-57
2.01438e-57
1.99284e-57
2.00658e-57
2.00305e-57
2.00465e-57
2.01161e-57
1.98874e-57
2.02497e-57
1.98286e-57
2.02566e-57
1.98762e-57
2.04629e-57
1.99311e-57
1.9967e-57
1.99645e-57
2.03353e-57
2.00727e-57
2.04441e-57
1.59155e-69
1.58571e-69
1.59656e-69
1.5791e-69
1.57541e-69
1.6006e-69
1.59307e-69
1.56048e-69
1.57206e-69
1.61337e-69
1.58279e-69
1.60865e-69
1.59234e-69
1.61217e-69
1.57397e-69
1.61984e-69
1.5711e-69
1.58826e-69
1.58007e-69
1.54065e-69
5.16412e-67
5.14757e-67
5.18214e-67
5.12627e-67
5.11307e-67
5.1953e-67
5.17071e-67
5.06553e-67
5.10309e-67
5.23668e-67
5.13783e-67
5.22062e-67
5.16961e-67
5.23269e-67
5.10964e-67
5.25723e-67
5.101e-67
5.15608e-67
5.12902e-67
5.00032e-67
8.37229e-65
8.3493e-65
8.4043e-65
8.31492e-65
8.29158e-65
8.42569e-65
8.38562e-65
8.21605e-65
8.27694e-65
8.49273e-65
8.33315e-65
8.46553e-65
8.38592e-65
8.48611e-65
8.28815e-65
8.52532e-65
8.27525e-65
8.36353e-65
8.31892e-65
8.10907e-65
7.99822e-63
7.97989e-63
8.0314e-63
7.94709e-63
7.92295e-63
8.05178e-63
8.01331e-63
7.85222e-63
7.91042e-63
8.11568e-63
7.96391e-63
8.08851e-63
8.01544e-63
8.10908e-63
7.92145e-63
8.14586e-63
7.91019e-63
7.99345e-63
7.95022e-63
7.74872e-63
5.37368e-61
5.36378e-61
5.39764e-61
5.3417e-61
5.32426e-61
5.41128e-61
5.38534e-61
5.27776e-61
5.31695e-61
5.45415e-61
5.35273e-61
5.43512e-61
5.3881e-61
5.44956e-61
5.32456e-61
5.47377e-61
5.31777e-61
5.37292e-61
5.34354e-61
5.20764e-61
2.51103e-59
2.50746e-59
2.52291e-59
2.49708e-59
2.48837e-59
2.52922e-59
2.51706e-59
2.46711e-59
2.48549e-59
2.54919e-59
2.5021e-59
2.53993e-59
2.51893e-59
2.54693e-59
2.48904e-59
2.55795e-59
2.48624e-59
2.51158e-59
2.49775e-59
2.43413e-59
8.14573e-58
8.13758e-58
8.18638e-58
8.10358e-58
8.07348e-58
8.20651e-58
8.16707e-58
8.00619e-58
8.06631e-58
8.27112e-58
8.11965e-58
8.23988e-58
8.17514e-58
8.26342e-58
8.07749e-58
8.29796e-58
8.0698e-58
8.15035e-58
8.10532e-58
7.89915e-58
1.71504e-56
1.71392e-56
1.72389e-56
1.70663e-56
1.69993e-56
1.72798e-56
1.71971e-56
1.68611e-56
1.69901e-56
1.74149e-56
1.71003e-56
1.7347e-56
1.72178e-56
1.73977e-56
1.70108e-56
1.74667e-56
1.69983e-56
1.7163e-56
1.70689e-56
1.66388e-56
1.05358e-55
1.05345e-55
1.05942e-55
1.0489e-55
1.04457e-55
1.06173e-55
1.05676e-55
1.03636e-55
1.04464e-55
1.06998e-55
1.05117e-55
1.0657e-55
1.05829e-55
1.06881e-55
1.04547e-55
1.07265e-55
1.04501e-55
1.05463e-55
1.04898e-55
1.02298e-55
2.71233e-56
2.71607e-56
2.73828e-56
2.69821e-56
2.69349e-56
2.71271e-56
2.71514e-56
2.67244e-56
2.74015e-56
2.72518e-56
2.72996e-56
2.72711e-56
2.71075e-56
2.71441e-56
2.67802e-56
2.69342e-56
2.69935e-56
2.68877e-56
2.69511e-56
2.69742e-56
5.06497e-56
5.08691e-56
5.13954e-56
5.04721e-56
5.02877e-56
5.03189e-56
5.06455e-56
5.00449e-56
5.13526e-56
5.11992e-56
5.1329e-56
5.09045e-56
5.09147e-56
5.04981e-56
5.0148e-56
5.0379e-56
4.98957e-56
5.01421e-56
5.04124e-56
5.02506e-56
5.39433e-56
5.41887e-56
5.45493e-56
5.35734e-56
5.37431e-56
5.32421e-56
5.41532e-56
5.36882e-56
5.39545e-56
5.49525e-56
5.43156e-56
5.35293e-56
5.45023e-56
5.41421e-56
5.39103e-56
5.42617e-56
5.27729e-56
5.36653e-56
5.3403e-56
5.33139e-56
6.51959e-56
6.54432e-56
6.57324e-56
6.58231e-56
6.59746e-56
6.65393e-56
6.69155e-56
6.62638e-56
6.60112e-56
6.52324e-56
6.52495e-56
6.54165e-56
6.60307e-56
6.62137e-56
6.54695e-56
6.58031e-56
6.58046e-56
6.56655e-56
6.50792e-56
6.54021e-56
6.83169e-56
6.78133e-56
6.81174e-56
6.91386e-56
6.88594e-56
6.95167e-56
6.833e-56
6.97406e-56
6.78633e-56
6.73634e-56
6.73223e-56
6.79789e-56
6.78706e-56
6.72377e-56
6.70737e-56
6.76874e-56
6.68944e-56
6.79958e-56
6.76309e-56
6.83621e-56
7.20336e-56
7.17412e-56
7.27053e-56
7.18675e-56
7.19122e-56
7.30867e-56
7.23576e-56
7.3639e-56
7.21715e-56
7.32233e-56
7.26026e-56
7.28487e-56
7.28881e-56
7.355e-56
7.27306e-56
7.38637e-56
7.24418e-56
7.16589e-56
7.24337e-56
7.17825e-56
7.00629e-56
6.9523e-56
6.90692e-56
6.93107e-56
6.98792e-56
7.03783e-56
7.01508e-56
6.99517e-56
6.89878e-56
6.91717e-56
6.84241e-56
6.99682e-56
7.02426e-56
7.06536e-56
7.07269e-56
7.02111e-56
7.00497e-56
7.03488e-56
6.97722e-56
6.9858e-56
6.6256e-56
6.73602e-56
6.63216e-56
6.78423e-56
6.60197e-56
6.7285e-56
6.62917e-56
6.728e-56
6.66122e-56
6.72162e-56
6.66722e-56
6.81684e-56
6.67804e-56
6.82928e-56
6.68626e-56
6.71473e-56
6.75347e-56
6.61323e-56
6.77049e-56
6.76457e-56
5.91779e-56
6.06385e-56
6.03833e-56
5.96934e-56
5.93417e-56
6.10256e-56
6.00182e-56
6.04162e-56
6.01027e-56
5.92876e-56
5.97589e-56
6.07093e-56
5.98053e-56
6.13597e-56
5.9882e-56
6.06897e-56
6.06989e-56
6.03221e-56
6.08127e-56
6.11327e-56
5.90428e-56
5.90906e-56
5.93174e-56
5.97496e-56
5.97016e-56
5.97274e-56
5.86406e-56
6.00716e-56
6.02891e-56
5.91107e-56
6.0002e-56
6.04472e-56
5.86947e-56
6.05823e-56
6.04392e-56
6.12473e-56
6.00541e-56
6.02288e-56
5.96727e-56
6.0661e-56
3.56163e-56
3.59389e-56
3.59573e-56
3.55689e-56
3.58096e-56
3.57487e-56
3.57766e-56
3.59031e-56
3.54866e-56
3.61368e-56
3.53863e-56
3.61464e-56
3.54756e-56
3.6516e-56
3.55703e-56
3.56335e-56
3.56283e-56
3.62876e-56
3.58234e-56
3.64804e-56
3.11036e-68
3.10043e-68
3.12138e-68
3.0878e-68
3.07992e-68
3.12955e-68
3.11476e-68
3.05142e-68
3.07398e-68
3.15466e-68
3.09499e-68
3.14498e-68
3.11412e-68
3.15215e-68
3.07791e-68
3.16693e-68
3.07243e-68
3.10568e-68
3.08928e-68
3.01149e-68
9.93179e-66
9.90488e-66
9.97054e-66
9.86476e-66
9.83725e-66
9.99667e-66
9.94914e-66
9.74797e-66
9.81995e-66
1.00767e-65
9.8869e-66
1.00443e-65
9.94951e-66
1.00685e-65
9.83324e-66
1.0115e-65
9.81706e-66
9.92204e-66
9.8688e-66
9.61865e-66
1.5839e-63
1.58036e-63
1.59063e-63
1.57398e-63
1.56923e-63
1.5948e-63
1.58718e-63
1.55528e-63
1.56676e-63
1.60755e-63
1.57741e-63
1.60217e-63
1.58764e-63
1.60621e-63
1.56899e-63
1.61353e-63
1.56663e-63
1.58317e-63
1.57455e-63
1.5344e-63
1.49331e-61
1.49069e-61
1.50017e-61
1.48467e-61
1.47985e-61
1.50408e-61
1.49687e-61
1.46696e-61
1.47779e-61
1.51607e-61
1.48779e-61
1.51078e-61
1.49764e-61
1.51476e-61
1.47995e-61
1.52153e-61
1.47792e-61
1.49332e-61
1.48509e-61
1.44701e-61
9.86852e-60
9.8558e-60
9.91712e-60
9.81587e-60
9.78179e-60
9.94275e-60
9.89491e-60
9.69844e-60
9.77019e-60
1.00219e-59
9.836e-60
9.98543e-60
9.90251e-60
1.00129e-59
9.78488e-60
1.00567e-59
9.77288e-60
9.87315e-60
9.81822e-60
9.56545e-60
4.54686e-58
4.543e-58
4.57057e-58
4.52445e-58
4.50774e-58
4.58222e-58
4.56013e-58
4.47017e-58
4.50336e-58
4.61857e-58
4.53347e-58
4.6011e-58
4.56467e-58
4.61423e-58
4.51012e-58
4.6339e-58
4.50527e-58
4.55069e-58
4.52523e-58
4.40848e-58
1.45235e-56
1.45175e-56
1.46031e-56
1.44575e-56
1.44009e-56
1.46396e-56
1.45691e-56
1.42838e-56
1.43907e-56
1.47554e-56
1.44859e-56
1.46975e-56
1.45872e-56
1.47409e-56
1.44117e-56
1.48015e-56
1.43987e-56
1.45408e-56
1.44594e-56
1.40865e-56
3.0085e-55
3.00832e-55
3.02552e-55
2.99564e-55
2.98328e-55
3.03279e-55
3.01825e-55
2.95963e-55
2.98219e-55
3.05663e-55
3.00155e-55
3.04423e-55
3.02267e-55
3.05342e-55
2.98607e-55
3.06534e-55
2.98401e-55
3.01259e-55
2.99587e-55
2.9193e-55
1.82069e-54
1.82157e-54
1.8317e-54
1.81374e-54
1.8059e-54
1.83574e-54
1.82712e-54
1.79205e-54
1.80633e-54
1.85007e-54
1.81763e-54
1.84238e-54
1.83024e-54
1.84793e-54
1.80791e-54
1.85448e-54
1.8072e-54
1.82364e-54
1.81377e-54
1.76811e-54
4.52729e-55
4.53377e-55
4.57129e-55
4.50411e-55
4.49587e-55
4.52737e-55
4.53157e-55
4.46115e-55
4.57453e-55
4.54924e-55
4.55743e-55
4.55161e-55
4.5255e-55
4.53048e-55
4.4708e-55
4.49499e-55
4.50527e-55
4.48786e-55
4.49884e-55
4.50247e-55
8.57082e-55
8.60747e-55
8.6967e-55
8.53996e-55
8.50967e-55
8.51391e-55
8.56915e-55
8.4688e-55
8.68871e-55
8.66411e-55
8.68493e-55
8.61239e-55
8.61571e-55
8.54551e-55
8.4867e-55
8.52491e-55
8.44261e-55
8.48414e-55
8.53012e-55
8.50129e-55
9.07685e-55
9.11736e-55
9.17853e-55
9.01506e-55
9.04399e-55
8.96151e-55
9.11377e-55
9.03668e-55
9.0779e-55
9.24506e-55
9.13783e-55
9.00647e-55
9.1702e-55
9.11127e-55
9.07213e-55
9.13107e-55
8.88344e-55
9.0299e-55
8.98775e-55
8.97195e-55
1.10089e-54
1.10477e-54
1.10979e-54
1.1115e-54
1.11399e-54
1.12357e-54
1.12945e-54
1.11892e-54
1.11449e-54
1.10131e-54
1.1016e-54
1.1045e-54
1.11476e-54
1.11766e-54
1.10542e-54
1.11087e-54
1.11082e-54
1.10874e-54
1.09884e-54
1.10434e-54
1.14881e-54
1.14025e-54
1.1454e-54
1.16233e-54
1.15775e-54
1.16883e-54
1.14887e-54
1.1726e-54
1.14096e-54
1.13295e-54
1.1321e-54
1.14314e-54
1.14125e-54
1.13069e-54
1.1281e-54
1.13828e-54
1.12497e-54
1.14331e-54
1.13745e-54
1.14937e-54
1.21597e-54
1.21104e-54
1.22714e-54
1.21293e-54
1.21401e-54
1.23363e-54
1.22131e-54
1.24284e-54
1.21836e-54
1.23605e-54
1.22547e-54
1.22958e-54
1.23035e-54
1.2417e-54
1.22781e-54
1.24665e-54
1.22293e-54
1.20967e-54
1.22275e-54
1.21158e-54
1.17807e-54
1.16932e-54
1.16143e-54
1.16565e-54
1.17499e-54
1.18335e-54
1.17953e-54
1.17625e-54
1.16034e-54
1.16323e-54
1.15071e-54
1.17652e-54
1.18121e-54
1.1879e-54
1.1893e-54
1.18041e-54
1.17797e-54
1.18302e-54
1.17344e-54
1.17485e-54
1.11958e-54
1.13827e-54
1.12076e-54
1.14615e-54
1.11543e-54
1.13662e-54
1.12001e-54
1.13663e-54
1.12553e-54
1.13578e-54
1.1265e-54
1.15181e-54
1.12833e-54
1.15373e-54
1.12985e-54
1.1343e-54
1.1411e-54
1.11748e-54
1.14393e-54
1.14294e-54
9.97808e-55
1.0221e-54
1.01799e-54
1.00632e-54
1.00055e-54
1.02855e-54
1.01166e-54
1.01837e-54
1.01323e-54
9.9945e-55
1.00741e-54
1.02327e-54
1.00822e-54
1.03412e-54
1.00959e-54
1.02304e-54
1.0231e-54
1.01692e-54
1.02493e-54
1.03042e-54
1.00342e-54
1.00418e-54
1.00819e-54
1.01536e-54
1.01447e-54
1.01485e-54
9.96515e-55
1.02094e-54
1.02437e-54
1.00456e-54
1.01963e-54
1.02719e-54
9.97567e-55
1.0294e-54
1.02712e-54
1.04058e-54
1.02063e-54
1.0233e-54
1.01395e-54
1.03056e-54
6.02147e-55
6.07621e-55
6.08e-55
6.01378e-55
6.05369e-55
6.04365e-55
6.04815e-55
6.07011e-55
5.99833e-55
6.10868e-55
5.98219e-55
6.10989e-55
5.99787e-55
6.17258e-55
6.01356e-55
6.0241e-55
6.02293e-55
6.13389e-55
6.05618e-55
6.16621e-55
6.08072e-67
6.06432e-67
6.10478e-67
6.04017e-67
6.02348e-67
6.12129e-67
6.09222e-67
5.96907e-67
6.01303e-67
6.17064e-67
6.05419e-67
6.15081e-67
6.09251e-67
6.16542e-67
6.02113e-67
6.1939e-67
6.01069e-67
6.07508e-67
6.04228e-67
5.88858e-67
1.91089e-64
1.9067e-64
1.91918e-64
1.89914e-64
1.89344e-64
1.92436e-64
1.91517e-64
1.87667e-64
1.89048e-64
1.93983e-64
1.90339e-64
1.93332e-64
1.91572e-64
1.93815e-64
1.89317e-64
1.94698e-64
1.89014e-64
1.91015e-64
1.89968e-64
1.851e-64
2.99719e-62
2.99212e-62
3.0113e-62
2.98026e-62
2.97065e-62
3.0194e-62
3.00492e-62
2.94488e-62
2.96654e-62
3.04365e-62
2.98674e-62
3.03301e-62
3.00655e-62
3.04096e-62
2.97097e-62
3.05461e-62
2.96664e-62
2.99763e-62
2.98099e-62
2.9041e-62
2.78619e-60
2.78285e-60
2.80032e-60
2.77181e-60
2.76224e-60
2.80778e-60
2.79427e-60
2.73877e-60
2.75892e-60
2.83027e-60
2.77761e-60
2.81996e-60
2.79643e-60
2.82767e-60
2.76316e-60
2.84013e-60
2.7595e-60
2.78793e-60
2.77229e-60
2.70034e-60
1.81056e-58
1.80928e-58
1.82037e-58
1.80206e-58
1.79543e-58
1.82517e-58
1.81636e-58
1.78051e-58
1.79364e-58
1.83976e-58
1.80573e-58
1.83279e-58
1.81822e-58
1.83801e-58
1.79646e-58
1.84594e-58
1.79435e-58
1.81255e-58
1.80231e-58
1.7553e-58
8.2181e-57
8.21603e-57
8.26513e-57
8.18292e-57
8.15105e-57
8.28656e-57
8.2465e-57
8.08479e-57
8.14464e-57
8.35259e-57
8.19912e-57
8.31972e-57
8.25684e-57
8.34429e-57
8.15744e-57
8.37931e-57
8.14911e-57
8.23031e-57
8.18359e-57
7.96952e-57
2.58409e-55
2.5846e-55
2.5996e-55
2.57403e-55
2.56344e-55
2.60619e-55
2.5936e-55
2.54311e-55
2.5621e-55
2.62689e-55
2.57905e-55
2.61617e-55
2.5975e-55
2.62416e-55
2.56603e-55
2.63479e-55
2.56385e-55
2.58884e-55
2.57415e-55
2.50681e-55
5.2632e-54
5.26616e-54
5.29574e-54
5.24411e-54
5.22145e-54
5.30859e-54
5.28309e-54
5.1811e-54
5.22048e-54
5.35051e-54
5.25439e-54
5.32796e-54
5.2922e-54
5.3446e-54
5.22766e-54
5.36511e-54
5.22432e-54
5.27374e-54
5.24417e-54
5.10809e-54
3.13727e-53
3.14077e-53
3.15791e-53
3.12733e-53
3.11321e-53
3.16492e-53
3.15004e-53
3.08994e-53
3.11448e-53
3.18976e-53
3.13398e-53
3.176e-53
3.15625e-53
3.18589e-53
3.11747e-53
3.19697e-53
3.11637e-53
3.14437e-53
3.12722e-53
3.04719e-53
7.52802e-54
7.53919e-54
7.60231e-54
7.49008e-54
7.47579e-54
7.52711e-54
7.53439e-54
7.41877e-54
7.6079e-54
7.56532e-54
7.57933e-54
7.56782e-54
7.52643e-54
7.53279e-54
7.43537e-54
7.473e-54
7.49071e-54
7.46217e-54
7.48114e-54
7.48683e-54
1.44576e-53
1.45186e-53
1.46694e-53
1.44041e-53
1.43546e-53
1.436e-53
1.44532e-53
1.42861e-53
1.46547e-53
1.46154e-53
1.46486e-53
1.45251e-53
1.45334e-53
1.44155e-53
1.4317e-53
1.438e-53
1.42403e-53
1.431e-53
1.43881e-53
1.43369e-53
1.5229e-53
1.52956e-53
1.53991e-53
1.51261e-53
1.51753e-53
1.504e-53
1.52937e-53
1.51663e-53
1.52294e-53
1.55084e-53
1.53285e-53
1.51097e-53
1.53844e-53
1.52884e-53
1.52225e-53
1.53211e-53
1.49105e-53
1.515e-53
1.50826e-53
1.50547e-53
1.85381e-53
1.85987e-53
1.86855e-53
1.87172e-53
1.87579e-53
1.89199e-53
1.9011e-53
1.88419e-53
1.87645e-53
1.85422e-53
1.8547e-53
1.85971e-53
1.87681e-53
1.88133e-53
1.86131e-53
1.87017e-53
1.86994e-53
1.86691e-53
1.85026e-53
1.85958e-53
1.92787e-53
1.91335e-53
1.92204e-53
1.95005e-53
1.94257e-53
1.96123e-53
1.92768e-53
1.96756e-53
1.91431e-53
1.90154e-53
1.89984e-53
1.91836e-53
1.91508e-53
1.8975e-53
1.89342e-53
1.91029e-53
1.88799e-53
1.91848e-53
1.90911e-53
1.92849e-53
2.0486e-53
2.04032e-53
2.06715e-53
2.04309e-53
2.04545e-53
2.07815e-53
2.05742e-53
2.09346e-53
2.05277e-53
2.08244e-53
2.06444e-53
2.07126e-53
2.07279e-53
2.09217e-53
2.0687e-53
2.09993e-53
2.06046e-53
2.03804e-53
2.06008e-53
2.04097e-53
1.97895e-53
1.9648e-53
1.95113e-53
1.9585e-53
1.97381e-53
1.98779e-53
1.98139e-53
1.97599e-53
1.94977e-53
1.95428e-53
1.93333e-53
1.97644e-53
1.98445e-53
1.99529e-53
1.99792e-53
1.98264e-53
1.97902e-53
1.98749e-53
1.97163e-53
1.97395e-53
1.89016e-53
1.92177e-53
1.8923e-53
1.93463e-53
1.88287e-53
1.91835e-53
1.89058e-53
1.91851e-53
1.9001e-53
1.91746e-53
1.90167e-53
1.94442e-53
1.90474e-53
1.94736e-53
1.90754e-53
1.91444e-53
1.92635e-53
1.88662e-53
1.93103e-53
1.92939e-53
1.68262e-53
1.72301e-53
1.71638e-53
1.69667e-53
1.68721e-53
1.73374e-53
1.70545e-53
1.71673e-53
1.70831e-53
1.68503e-53
1.69847e-53
1.72495e-53
1.69987e-53
1.74303e-53
1.70233e-53
1.72472e-53
1.72464e-53
1.71455e-53
1.72758e-53
1.737e-53
1.70551e-53
1.70672e-53
1.71379e-53
1.72567e-53
1.72406e-53
1.72459e-53
1.69366e-53
1.73534e-53
1.74071e-53
1.70743e-53
1.73291e-53
1.74575e-53
1.69568e-53
1.74934e-53
1.74574e-53
1.76814e-53
1.73481e-53
1.73884e-53
1.72311e-53
1.75103e-53
1.01723e-53
1.0265e-53
1.02726e-53
1.01599e-53
1.0226e-53
1.02093e-53
1.02166e-53
1.02547e-53
1.01313e-53
1.03182e-53
1.01054e-53
1.03197e-53
1.01327e-53
1.04258e-53
1.01588e-53
1.01764e-53
1.01738e-53
1.03604e-53
1.02304e-53
1.04145e-53
1.18802e-65
1.18544e-65
1.19325e-65
1.18082e-65
1.17731e-65
1.19657e-65
1.19087e-65
1.16694e-65
1.1755e-65
1.20627e-65
1.18356e-65
1.20221e-65
1.19122e-65
1.20518e-65
1.17716e-65
1.21067e-65
1.17517e-65
1.18763e-65
1.18108e-65
1.15071e-65
3.67552e-63
3.66947e-63
3.69316e-63
3.6552e-63
3.64349e-63
3.7034e-63
3.68565e-63
3.61202e-63
3.6385e-63
3.73333e-63
3.66336e-63
3.72025e-63
3.68766e-63
3.72989e-63
3.64391e-63
3.74663e-63
3.63826e-63
3.67635e-63
3.65582e-63
3.56104e-63
5.66865e-61
5.66228e-61
5.69808e-61
5.64025e-61
5.6209e-61
5.71377e-61
5.68629e-61
5.57334e-61
5.61421e-61
5.75987e-61
5.65245e-61
5.73888e-61
5.69081e-61
5.75446e-61
5.62297e-61
5.7799e-61
5.61504e-61
5.67305e-61
5.641e-61
5.49366e-61
5.19367e-59
5.19052e-59
5.22263e-59
5.17025e-59
5.15135e-59
5.23685e-59
5.21157e-59
5.10867e-59
5.14614e-59
5.27898e-59
5.18103e-59
5.25896e-59
5.21694e-59
5.27384e-59
5.1544e-59
5.29672e-59
5.14786e-59
5.20028e-59
5.17062e-59
5.03464e-59
3.318e-57
3.31767e-57
3.3377e-57
3.30461e-57
3.2918e-57
3.34666e-57
3.33047e-57
3.26513e-57
3.28913e-57
3.37353e-57
3.31131e-57
3.36024e-57
3.33474e-57
3.37015e-57
3.29454e-57
3.38445e-57
3.29085e-57
3.32383e-57
3.30476e-57
3.21735e-57
1.48281e-55
1.48337e-55
1.49209e-55
1.47746e-55
1.47141e-55
1.49602e-55
1.48877e-55
1.45975e-55
1.47053e-55
1.50799e-55
1.48037e-55
1.50182e-55
1.49102e-55
1.50641e-55
1.47294e-55
1.51263e-55
1.47152e-55
1.486e-55
1.47745e-55
1.43824e-55
4.58811e-54
4.59199e-54
4.61818e-54
4.57337e-54
4.55364e-54
4.63002e-54
4.60761e-54
4.51846e-54
4.5521e-54
4.66696e-54
4.58223e-54
4.64717e-54
4.61574e-54
4.66184e-54
4.55941e-54
4.68041e-54
4.55578e-54
4.59962e-54
4.57324e-54
4.45175e-54
9.18308e-53
9.19426e-53
9.24493e-53
9.15596e-53
9.11462e-53
9.26754e-53
9.22297e-53
9.04597e-53
9.11457e-53
9.34106e-53
9.17378e-53
9.30022e-53
9.24129e-53
9.33022e-53
9.1278e-53
9.36541e-53
9.12243e-53
9.2076e-53
9.15551e-53
8.91411e-53
5.39016e-52
5.39976e-52
5.42863e-52
5.37671e-52
5.35141e-52
5.44075e-52
5.41514e-52
5.31244e-52
5.35451e-52
5.48367e-52
5.38806e-52
5.45911e-52
5.42725e-52
5.4767e-52
5.3601e-52
5.4954e-52
5.35844e-52
5.40595e-52
5.37626e-52
5.23629e-52
1.24761e-52
1.24952e-52
1.2601e-52
1.24141e-52
1.23895e-52
1.24727e-52
1.24853e-52
1.22962e-52
1.26105e-52
1.25392e-52
1.2563e-52
1.25408e-52
1.24757e-52
1.2483e-52
1.23246e-52
1.23828e-52
1.24129e-52
1.23664e-52
1.2399e-52
1.24077e-52
2.4308e-52
2.44095e-52
2.46635e-52
2.4216e-52
2.41354e-52
2.41417e-52
2.42982e-52
2.40208e-52
2.46365e-52
2.45744e-52
2.46269e-52
2.44172e-52
2.44358e-52
2.42383e-52
2.40741e-52
2.41775e-52
2.39415e-52
2.40577e-52
2.419e-52
2.40995e-52
2.54736e-52
2.55829e-52
2.57575e-52
2.53033e-52
2.53864e-52
2.51656e-52
2.55867e-52
2.53766e-52
2.54725e-52
2.59363e-52
2.56356e-52
2.52723e-52
2.57317e-52
2.55757e-52
2.54654e-52
2.56295e-52
2.49515e-52
2.53414e-52
2.52343e-52
2.51854e-52
3.11254e-52
3.12193e-52
3.13688e-52
3.14264e-52
3.14931e-52
3.17658e-52
3.19056e-52
3.16352e-52
3.15007e-52
3.11276e-52
3.11351e-52
3.12211e-52
3.15056e-52
3.15753e-52
3.12492e-52
3.13925e-52
3.13857e-52
3.13431e-52
3.10637e-52
3.12211e-52
3.22722e-52
3.20267e-52
3.2173e-52
3.26351e-52
3.25134e-52
3.28268e-52
3.22645e-52
3.29326e-52
3.20389e-52
3.18361e-52
3.18033e-52
3.2113e-52
3.20566e-52
3.17649e-52
3.17012e-52
3.19793e-52
3.16072e-52
3.21123e-52
3.19633e-52
3.22771e-52
3.44299e-52
3.42913e-52
3.47372e-52
3.43309e-52
3.43796e-52
3.49229e-52
3.45752e-52
3.51766e-52
3.45025e-52
3.49985e-52
3.46932e-52
3.48062e-52
3.48357e-52
3.51653e-52
3.47699e-52
3.5286e-52
3.4631e-52
3.42536e-52
3.46238e-52
3.42979e-52
3.31788e-52
3.29511e-52
3.27153e-52
3.28428e-52
3.3093e-52
3.33266e-52
3.32195e-52
3.31313e-52
3.27001e-52
3.27699e-52
3.24201e-52
3.31384e-52
3.32749e-52
3.34501e-52
3.34989e-52
3.3237e-52
3.3184e-52
3.33252e-52
3.30638e-52
3.31017e-52
3.18495e-52
3.23821e-52
3.18876e-52
3.25911e-52
3.1722e-52
3.23143e-52
3.18513e-52
3.23192e-52
3.20144e-52
3.23078e-52
3.20395e-52
3.27601e-52
3.20917e-52
3.28049e-52
3.21426e-52
3.22485e-52
3.24563e-52
3.17899e-52
3.25333e-52
3.25062e-52
2.8326e-52
2.89966e-52
2.889e-52
2.85581e-52
2.84028e-52
2.91746e-52
2.87017e-52
2.88912e-52
2.87534e-52
2.8361e-52
2.85878e-52
2.9029e-52
2.86115e-52
2.93296e-52
2.86552e-52
2.90271e-52
2.90236e-52
2.88584e-52
2.90705e-52
2.92314e-52
2.89352e-52
2.89544e-52
2.90788e-52
2.92749e-52
2.92457e-52
2.9253e-52
2.87325e-52
2.9442e-52
2.95253e-52
2.89674e-52
2.93972e-52
2.9615e-52
2.87707e-52
2.96734e-52
2.96167e-52
2.99885e-52
2.9433e-52
2.94927e-52
2.92289e-52
2.96971e-52
1.7149e-52
1.73054e-52
1.73202e-52
1.7129e-52
1.72382e-52
1.72105e-52
1.72221e-52
1.72882e-52
1.70766e-52
1.73926e-52
1.70353e-52
1.7394e-52
1.70826e-52
1.75733e-52
1.71261e-52
1.71554e-52
1.71499e-52
1.74629e-52
1.72457e-52
1.75533e-52
2.32237e-64
2.3186e-64
2.33367e-64
2.30975e-64
2.30241e-64
2.34035e-64
2.32915e-64
2.28263e-64
2.29933e-64
2.3594e-64
2.3151e-64
2.35113e-64
2.33045e-64
2.35715e-64
2.30273e-64
2.36771e-64
2.29895e-64
2.32305e-64
2.30998e-64
2.24987e-64
7.06146e-62
7.05389e-62
7.0988e-62
7.02698e-62
7.00302e-62
7.11897e-62
7.08476e-62
6.94405e-62
6.99481e-62
7.17677e-62
7.04264e-62
7.15057e-62
7.09043e-62
7.16977e-62
7.00568e-62
7.20146e-62
6.99516e-62
7.06756e-62
7.02735e-62
6.84288e-62
1.07059e-59
1.07003e-59
1.0767e-59
1.06594e-59
1.06206e-59
1.07973e-59
1.07452e-59
1.0533e-59
1.061e-59
1.08848e-59
1.06824e-59
1.08435e-59
1.07565e-59
1.0874e-59
1.06273e-59
1.09213e-59
1.06129e-59
1.07212e-59
1.06596e-59
1.03775e-59
9.66222e-58
9.66234e-58
9.72122e-58
9.62517e-58
9.58806e-58
9.74819e-58
9.70103e-58
9.51062e-58
9.5802e-58
9.82697e-58
9.64519e-58
9.7882e-58
9.71354e-58
9.81688e-58
9.59624e-58
9.85878e-58
9.58456e-58
9.68097e-58
9.62492e-58
9.36822e-58
6.06699e-56
6.07029e-56
6.10636e-56
6.04669e-56
6.02205e-56
6.12301e-56
6.09333e-56
5.97449e-56
6.0183e-56
6.17239e-56
6.0589e-56
6.14711e-56
6.10271e-56
6.16585e-56
6.02862e-56
6.19159e-56
6.02219e-56
6.08178e-56
6.04641e-56
5.88411e-56
2.66828e-54
2.67105e-54
2.68649e-54
2.66051e-54
2.6491e-54
2.69365e-54
2.68058e-54
2.62864e-54
2.648e-54
2.7153e-54
2.66572e-54
2.70377e-54
2.68534e-54
2.71231e-54
2.65254e-54
2.72332e-54
2.65012e-54
2.67586e-54
2.66029e-54
2.58858e-54
8.12248e-53
8.13487e-53
8.18043e-53
8.10211e-53
8.06559e-53
8.20159e-53
8.16186e-53
8.00487e-53
8.06433e-53
8.26731e-53
8.11772e-53
8.23095e-53
8.17839e-53
8.25779e-53
8.07789e-53
8.2901e-53
8.07189e-53
8.14853e-53
8.10133e-53
7.88259e-53
1.59691e-51
1.59995e-51
1.6086e-51
1.59331e-51
1.58581e-51
1.61255e-51
1.60479e-51
1.57417e-51
1.58609e-51
1.6254e-51
1.59639e-51
1.61803e-51
1.6084e-51
1.62342e-51
1.58851e-51
1.62943e-51
1.58766e-51
1.60228e-51
1.59315e-51
1.55042e-51
9.22863e-51
9.25152e-51
9.29994e-51
9.21203e-51
9.16695e-51
9.32073e-51
9.27683e-51
9.10193e-51
9.17385e-51
9.39462e-51
9.23133e-51
9.351e-51
9.30005e-51
9.38215e-51
9.1842e-51
9.41357e-51
9.18175e-51
9.26203e-51
9.21091e-51
8.96671e-51
2.05893e-51
2.06217e-51
2.07984e-51
2.04882e-51
2.04464e-51
2.05803e-51
2.06022e-51
2.02942e-51
2.08144e-51
2.06957e-51
2.07357e-51
2.0694e-51
2.05924e-51
2.0599e-51
2.03427e-51
2.04318e-51
2.04825e-51
2.0407e-51
2.0463e-51
2.04762e-51
4.0717e-51
4.0885e-51
4.13113e-51
4.05591e-51
4.04287e-51
4.04345e-51
4.06967e-51
4.0238e-51
4.12626e-51
4.11648e-51
4.12473e-51
4.08926e-51
4.09315e-51
4.06022e-51
4.03292e-51
4.04984e-51
4.01014e-51
4.02941e-51
4.05175e-51
4.03584e-51
4.24528e-51
4.26314e-51
4.29249e-51
4.21723e-51
4.23121e-51
4.19536e-51
4.26497e-51
4.23046e-51
4.24484e-51
4.32161e-51
4.27155e-51
4.21148e-51
4.288e-51
4.26277e-51
4.24438e-51
4.27161e-51
4.1601e-51
4.22328e-51
4.20636e-51
4.19782e-51
5.20742e-51
5.22181e-51
5.24745e-51
5.25782e-51
5.26869e-51
5.31443e-51
5.33565e-51
5.29267e-51
5.26939e-51
5.20699e-51
5.20819e-51
5.22288e-51
5.27002e-51
5.28059e-51
5.22777e-51
5.25083e-51
5.2492e-51
5.24345e-51
5.19679e-51
5.22322e-51
5.3847e-51
5.34331e-51
5.36785e-51
5.44385e-51
5.42413e-51
5.47661e-51
5.3826e-51
5.49422e-51
5.34472e-51
5.31269e-51
5.30651e-51
5.35811e-51
5.34845e-51
5.30019e-51
5.29034e-51
5.33605e-51
5.27416e-51
5.35752e-51
5.33403e-51
5.38461e-51
5.76804e-51
5.74503e-51
5.81884e-51
5.75039e-51
5.76011e-51
5.85e-51
5.79196e-51
5.89192e-51
5.78072e-51
5.86334e-51
5.81174e-51
5.83038e-51
5.83599e-51
5.89181e-51
5.82543e-51
5.91041e-51
5.80214e-51
5.73881e-51
5.8008e-51
5.74532e-51
5.54693e-51
5.51048e-51
5.46993e-51
5.49196e-51
5.53264e-51
5.57154e-51
5.55372e-51
5.53934e-51
5.46871e-51
5.47936e-51
5.42114e-51
5.54048e-51
5.56366e-51
5.59183e-51
5.60079e-51
5.55603e-51
5.54849e-51
5.57195e-51
5.52902e-51
5.5352e-51
5.35186e-51
5.44143e-51
5.35868e-51
5.47528e-51
5.32968e-51
5.42827e-51
5.35128e-51
5.42948e-51
5.37919e-51
5.42865e-51
5.38321e-51
5.50434e-51
5.392e-51
5.51104e-51
5.4012e-51
5.41721e-51
5.45336e-51
5.34183e-51
5.466e-51
5.46153e-51
4.75738e-51
4.86842e-51
4.85138e-51
4.79556e-51
4.77023e-51
4.8979e-51
4.81906e-51
4.85075e-51
4.8283e-51
4.76228e-51
4.80047e-51
4.87378e-51
4.80456e-51
4.92369e-51
4.81226e-51
4.87384e-51
4.87288e-51
4.84598e-51
4.88031e-51
4.9077e-51
4.89873e-51
4.90171e-51
4.92354e-51
4.95583e-51
4.9506e-51
4.95148e-51
4.86409e-51
4.98461e-51
4.9974e-51
4.90407e-51
4.97646e-51
5.01329e-51
4.87124e-51
5.02276e-51
5.01394e-51
5.07546e-51
4.98312e-51
4.99174e-51
4.94761e-51
5.02592e-51
2.88799e-51
2.91438e-51
2.91722e-51
2.88478e-51
2.90282e-51
2.8982e-51
2.90007e-51
2.91148e-51
2.87525e-51
2.92864e-51
2.8687e-51
2.92869e-51
2.87691e-51
2.95895e-51
2.8841e-51
2.88896e-51
2.88787e-51
2.94033e-51
2.90411e-51
2.95541e-51
4.53295e-63
4.52821e-63
4.55725e-63
4.51129e-63
4.49603e-63
4.57063e-63
4.5487e-63
4.45839e-63
4.4909e-63
4.60801e-63
4.52173e-63
4.59116e-63
4.55239e-63
4.60335e-63
4.49782e-63
4.62365e-63
4.49065e-63
4.53718e-63
4.51118e-63
4.39232e-63
1.35564e-60
1.355e-60
1.36351e-60
1.34993e-60
1.34505e-60
1.36747e-60
1.36088e-60
1.33402e-60
1.34374e-60
1.37862e-60
1.35293e-60
1.37338e-60
1.36232e-60
1.3772e-60
1.34591e-60
1.38319e-60
1.34396e-60
1.3577e-60
1.34985e-60
1.31394e-60
2.01984e-58
2.02004e-58
2.03245e-58
2.01244e-58
2.00473e-58
2.03828e-58
2.02843e-58
1.98862e-58