/*--------------------------------*- C++ -*----------------------------------*\
| =========                 |                                                 |
| \\      /  F ield         | OpenFOAM: The Open Source CFD Toolbox           |
|  \\    /   O peration     | Version:  2212                                  |
|   \\  /    A nd           | Website:  www.openfoam.com                      |
|    \\/     M anipulation  |                                                 |
\*---------------------------------------------------------------------------*/
FoamFile
{
    version     2.0;
    format      ascii;
    arch        "LSB;label=32;scalar=64";
    class       volScalarField;
    location    "0.169";
    object      p;
}
// * * * * * * * * * * * * * * * * * * * * * * * * * * * * * * * * * * * * * //

dimensions      [0 2 -2 0 0 0 0];

internalField   nonuniform List<scalar> 
24240
(
17.3189
17.3175
17.3146
17.3103
17.3049
17.2984
17.2912
17.2833
17.2752
17.267
17.2588
17.251
17.2436
17.2369
17.2309
17.2257
17.2214
17.2181
17.2157
17.2145
16.1555
16.155
16.1542
16.153
16.1514
16.1496
16.1475
16.1453
16.1429
16.1405
16.1381
16.1358
16.1336
16.1316
16.1298
16.1283
16.127
16.126
16.1254
16.125
15.6273
15.6274
15.6275
15.6278
15.6281
15.6284
15.6288
15.6292
15.6296
15.63
15.6304
15.6308
15.6311
15.6314
15.6317
15.632
15.6322
15.6324
15.6325
15.6326
15.1849
15.1852
15.1859
15.1869
15.1881
15.1896
15.1912
15.1929
15.1948
15.1966
15.1984
15.2002
15.2019
15.2034
15.2047
15.2059
15.2069
15.2077
15.2083
15.2086
14.9593
14.9597
14.9607
14.962
14.9638
14.9659
14.9682
14.9707
14.9734
14.9761
14.9787
14.9813
14.9837
14.9859
14.9879
14.9897
14.9911
14.9923
14.9931
14.9935
14.7561
14.7566
14.7577
14.7593
14.7613
14.7636
14.7663
14.7692
14.7722
14.7753
14.7784
14.7813
14.7841
14.7867
14.7891
14.7911
14.7928
14.7941
14.795
14.7955
14.6628
14.6633
14.6644
14.6661
14.6681
14.6706
14.6734
14.6764
14.6796
14.6828
14.6861
14.6892
14.6921
14.6949
14.6973
14.6994
14.7012
14.7026
14.7035
14.704
14.5868
14.5873
14.5884
14.5899
14.592
14.5944
14.5971
14.6
14.6031
14.6062
14.6094
14.6124
14.6153
14.618
14.6204
14.6225
14.6242
14.6255
14.6264
14.6269
14.5724
14.5729
14.5739
14.5753
14.5771
14.5793
14.5818
14.5844
14.5872
14.5901
14.593
14.5958
14.5984
14.6009
14.6031
14.605
14.6065
14.6077
14.6086
14.609
14.591
14.5915
14.5923
14.5936
14.5952
14.5972
14.5994
14.6018
14.6043
14.6069
14.6095
14.612
14.6144
14.6166
14.6186
14.6203
14.6217
14.6228
14.6236
14.6239
14.6179
14.6183
14.6191
14.6202
14.6216
14.6233
14.6252
14.6273
14.6296
14.6318
14.6341
14.6363
14.6384
14.6404
14.6421
14.6436
14.6449
14.6458
14.6465
14.6468
14.7332
14.7336
14.7342
14.7351
14.7364
14.7378
14.7395
14.7413
14.7432
14.7452
14.7472
14.7491
14.7509
14.7526
14.7541
14.7553
14.7564
14.7572
14.7578
14.7581
14.808
14.8083
14.8088
14.8095
14.8105
14.8116
14.8129
14.8144
14.8159
14.8174
14.819
14.8205
14.8219
14.8232
14.8244
14.8254
14.8262
14.8269
14.8273
14.8276
15.0287
15.0289
15.0293
15.0298
15.0305
15.0313
15.0322
15.0332
15.0343
15.0354
15.0364
15.0375
15.0385
15.0394
15.0402
15.0409
15.0415
15.042
15.0423
15.0425
15.1862
15.1863
15.1864
15.1866
15.1869
15.1873
15.1877
15.1881
15.1886
15.1891
15.1896
15.19
15.1904
15.1908
15.1912
15.1915
15.1917
15.192
15.1922
15.1922
15.559
15.5589
15.5589
15.5587
15.5586
15.5584
15.5582
15.558
15.5578
15.5575
15.5573
15.557
15.5567
15.5565
15.5563
15.5561
15.556
15.5559
15.5559
15.5559
15.8747
15.8745
15.8741
15.8735
15.8726
15.8717
15.8706
15.8694
15.8681
15.8668
15.8655
15.8642
15.863
15.8618
15.8608
15.8599
15.8592
15.8587
15.8584
15.8583
16.5581
16.5576
16.5567
16.5553
16.5535
16.5514
16.5491
16.5465
16.5437
16.5409
16.5381
16.5353
16.5327
16.5302
16.5281
16.5262
16.5247
16.5236
16.5228
16.5225
17.2359
17.235
17.2331
17.2304
17.2269
17.2227
17.218
17.2129
17.2074
17.2019
17.1964
17.191
17.1859
17.1813
17.1772
17.1736
17.1707
17.1685
17.167
17.1663
18.7589
18.757
18.7532
18.7477
18.7406
18.7322
18.7226
18.7122
18.7013
18.6903
18.6793
18.6687
18.6588
18.6498
18.6418
18.635
18.6295
18.6252
18.6223
18.6209
49.2197
49.2171
49.2119
49.2043
49.1945
49.1828
49.1698
49.1556
49.1409
49.1258
49.111
49.0966
49.083
49.0705
49.0593
49.0495
49.0414
49.0351
49.0307
49.0283
47.395
47.394
47.3919
47.3889
47.385
47.3804
47.3752
47.3696
47.3637
47.3576
47.3516
47.3458
47.3402
47.3351
47.3305
47.3265
47.3232
47.3206
47.3188
47.3179
46.1523
46.1522
46.1522
46.1521
46.152
46.1519
46.1518
46.1516
46.1514
46.1512
46.151
46.1507
46.1505
46.1503
46.15
46.1499
46.1497
46.1496
46.1496
46.1496
45.268
45.2686
45.2698
45.2715
45.2737
45.2762
45.2791
45.2823
45.2855
45.2889
45.2921
45.2953
45.2983
45.3011
45.3036
45.3058
45.3076
45.3091
45.3101
45.3107
44.6616
44.6625
44.6644
44.6672
44.6708
44.675
44.6797
44.6849
44.6902
44.6957
44.7012
44.7065
44.7115
44.7162
44.7204
44.724
44.7271
44.7295
44.7312
44.7321
44.1879
44.189
44.1913
44.1946
44.1988
44.2039
44.2096
44.2159
44.2224
44.2291
44.2357
44.2422
44.2483
44.254
44.2592
44.2637
44.2674
44.2704
44.2724
44.2735
43.9276
43.9288
43.9313
43.9348
43.9394
43.9448
43.9509
43.9576
43.9646
43.9718
43.979
43.986
43.9926
43.9988
44.0044
44.0093
44.0133
44.0166
44.0188
44.0199
43.7338
43.735
43.7374
43.7409
43.7454
43.7507
43.7568
43.7634
43.7704
43.7776
43.7848
43.7917
43.7984
43.8046
43.8102
43.8151
43.8192
43.8224
43.8246
43.8258
43.6847
43.6858
43.688
43.6912
43.6954
43.7004
43.706
43.7122
43.7187
43.7254
43.7321
43.7387
43.745
43.7508
43.7561
43.7607
43.7646
43.7676
43.7697
43.7708
43.7283
43.7293
43.7313
43.7342
43.738
43.7425
43.7476
43.7532
43.7592
43.7653
43.7715
43.7775
43.7832
43.7886
43.7935
43.7977
43.8013
43.8041
43.8061
43.8071
43.8143
43.8152
43.817
43.8195
43.8228
43.8268
43.8313
43.8362
43.8415
43.8469
43.8523
43.8576
43.8627
43.8675
43.8718
43.8756
43.8788
43.8813
43.8831
43.884
44.1049
44.1056
44.1071
44.1092
44.112
44.1153
44.1191
44.1233
44.1278
44.1324
44.137
44.1415
44.1458
44.1499
44.1536
44.1568
44.1596
44.1618
44.1633
44.1641
44.3429
44.3435
44.3446
44.3462
44.3483
44.3509
44.3538
44.357
44.3604
44.364
44.3675
44.371
44.3743
44.3774
44.3803
44.3829
44.3851
44.3868
44.3881
44.3887
44.8879
44.8882
44.8889
44.89
44.8913
44.8929
44.8948
44.8969
44.8991
44.9014
44.9037
44.9059
44.9081
44.9101
44.912
44.9137
44.9152
44.9164
44.9173
44.9178
45.3498
45.3499
45.3501
45.3503
45.3507
45.3511
45.3517
45.3523
45.3529
45.3535
45.3542
45.3548
45.3555
45.3561
45.3566
45.3572
45.3578
45.3583
45.3588
45.3591
46.1964
46.1962
46.1957
46.1951
46.1942
46.1932
46.192
46.1908
46.1895
46.1881
46.1867
46.1854
46.1841
46.1829
46.1819
46.181
46.1804
46.1801
46.1799
46.1799
47.0254
47.0247
47.0233
47.0213
47.0188
47.0157
47.0122
47.0084
47.0044
47.0003
46.9961
46.992
46.9881
46.9844
46.9812
46.9784
46.9762
46.9745
46.9735
46.973
48.3293
48.328
48.3254
48.3216
48.3167
48.3108
48.3041
48.2969
48.2891
48.2812
48.2732
48.2654
48.2579
48.251
48.2448
48.2394
48.2349
48.2315
48.2292
48.2281
49.9023
49.9
49.8955
49.8889
49.8803
49.8701
49.8585
49.8458
49.8325
49.8187
49.805
49.7916
49.7788
49.767
49.7564
49.7471
49.7394
49.7334
49.7292
49.7271
52.2643
52.2605
52.2531
52.2422
52.2281
52.2113
52.1923
52.1715
52.1496
52.1272
52.1049
52.0832
52.0627
52.0438
52.0269
52.0121
51.9998
51.9901
51.9834
51.9798
80.3223
80.3193
80.3133
80.3045
80.2932
80.2797
80.2645
80.248
80.2307
80.2131
80.1956
80.1786
80.1624
80.1473
80.1338
80.1219
80.1119
80.104
80.0985
80.0955
78.0917
78.0903
78.0875
78.0835
78.0782
78.072
78.0649
78.0572
78.0491
78.0408
78.0325
78.0245
78.0168
78.0097
78.0032
77.9976
77.9928
77.9891
77.9865
77.9851
76.4567
76.4565
76.4563
76.456
76.4556
76.4552
76.4546
76.454
76.4533
76.4526
76.4519
76.4512
76.4505
76.4498
76.4492
76.4486
76.4482
76.4478
76.4476
76.4475
75.1446
75.1452
75.1465
75.1485
75.1509
75.1539
75.1572
75.1608
75.1645
75.1683
75.1721
75.1758
75.1792
75.1825
75.1854
75.188
75.1902
75.1919
75.1931
75.1937
74.2752
74.2763
74.2786
74.282
74.2863
74.2914
74.2972
74.3035
74.3101
74.3169
74.3236
74.3302
74.3365
74.3423
74.3476
74.3523
74.3562
74.3593
74.3615
74.3626
73.5395
73.5409
73.5437
73.5479
73.5532
73.5595
73.5667
73.5746
73.5828
73.5913
73.5998
73.608
73.616
73.6233
73.6301
73.636
73.641
73.6449
73.6476
73.6491
73.1469
73.1485
73.1515
73.156
73.1618
73.1688
73.1766
73.1852
73.1942
73.2035
73.2129
73.222
73.2307
73.2389
73.2464
73.253
73.2585
73.2629
73.266
73.2676
72.8464
72.8479
72.851
72.8555
72.8613
72.8682
72.8761
72.8848
72.8939
72.9033
72.9128
72.922
72.9309
72.9393
72.9469
72.9536
72.9593
72.9638
72.967
72.9687
72.7664
72.7678
72.7707
72.7749
72.7804
72.7869
72.7944
72.8026
72.8112
72.8202
72.8292
72.838
72.8465
72.8545
72.8619
72.8684
72.8739
72.8783
72.8814
72.883
72.8252
72.8265
72.8291
72.8329
72.8379
72.8439
72.8507
72.8582
72.8662
72.8744
72.8827
72.8909
72.8988
72.9063
72.9131
72.9192
72.9244
72.9286
72.9315
72.933
72.9679
72.969
72.9713
72.9746
72.979
72.9842
72.9902
72.9968
73.0039
73.0111
73.0185
73.0258
73.0328
73.0395
73.0456
73.0511
73.0559
73.0597
73.0624
73.0638
73.3986
73.3995
73.4014
73.4042
73.4078
73.4122
73.4172
73.4227
73.4286
73.4347
73.441
73.4471
73.4531
73.4587
73.464
73.4687
73.4728
73.4762
73.4786
73.4799
73.7862
73.7869
73.7882
73.7903
73.793
73.7962
73.8
73.8041
73.8086
73.8132
73.8179
73.8225
73.8271
73.8314
73.8355
73.8392
73.8425
73.8452
73.8472
73.8483
74.6023
74.6027
74.6035
74.6047
74.6063
74.6082
74.6104
74.6129
74.6155
74.6183
74.6212
74.624
74.6268
74.6295
74.6321
74.6345
74.6368
74.6387
74.6402
74.6411
75.3273
75.3273
75.3273
75.3274
75.3276
75.3278
75.3281
75.3284
75.3288
75.3293
75.3297
75.3302
75.3307
75.3313
75.332
75.3327
75.3336
75.3344
75.3352
75.3356
76.6105
76.6101
76.6092
76.608
76.6064
76.6045
76.6023
76.6
76.5975
76.595
76.5925
76.59
76.5877
76.5856
76.5838
76.5824
76.5814
76.5808
76.5805
76.5805
77.8466
77.8456
77.8435
77.8404
77.8365
77.8317
77.8264
77.8205
77.8142
77.8078
77.8013
77.7949
77.7888
77.7832
77.7781
77.7737
77.7702
77.7676
77.7659
77.7652
79.8236
79.8217
79.818
79.8125
79.8055
79.797
79.7874
79.7768
79.7656
79.754
79.7424
79.7309
79.7199
79.7096
79.7003
79.6921
79.6853
79.6799
79.6763
79.6746
81.9343
81.9313
81.9253
81.9165
81.9051
81.8914
81.8757
81.8586
81.8405
81.8218
81.803
81.7845
81.7668
81.7502
81.7351
81.7217
81.7103
81.7013
81.6949
81.6916
84.9468
84.9422
84.9331
84.9197
84.9023
84.8814
84.8576
84.8316
84.804
84.7757
84.7473
84.7194
84.6928
84.668
84.6453
84.6251
84.6079
84.5939
84.5839
84.5783
110.137
110.134
110.128
110.119
110.108
110.095
110.079
110.063
110.045
110.027
110.009
109.992
109.975
109.959
109.945
109.932
109.921
109.913
109.907
109.903
107.843
107.842
107.839
107.835
107.83
107.823
107.816
107.808
107.799
107.791
107.782
107.774
107.765
107.758
107.751
107.745
107.739
107.735
107.732
107.731
106.024
106.024
106.023
106.023
106.022
106.021
106.02
106.018
106.017
106.016
106.014
106.013
106.011
106.01
106.009
106.008
106.007
106.006
106.006
106.005
104.546
104.547
104.548
104.55
104.552
104.555
104.558
104.561
104.565
104.568
104.572
104.575
104.579
104.582
104.585
104.587
104.589
104.591
104.592
104.593
103.51
103.511
103.513
103.517
103.521
103.526
103.532
103.539
103.546
103.553
103.56
103.566
103.573
103.579
103.585
103.59
103.594
103.597
103.6
103.601
102.636
102.638
102.641
102.645
102.651
102.658
102.665
102.673
102.682
102.691
102.7
102.709
102.718
102.726
102.733
102.74
102.746
102.75
102.753
102.755
102.144
102.146
102.149
102.154
102.16
102.168
102.176
102.185
102.195
102.205
102.216
102.226
102.235
102.244
102.253
102.26
102.267
102.272
102.276
102.277
101.776
101.777
101.781
101.786
101.792
101.799
101.808
101.818
101.828
101.838
101.848
101.859
101.869
101.878
101.887
101.895
101.902
101.907
101.911
101.913
101.67
101.672
101.675
101.68
101.686
101.693
101.701
101.71
101.72
101.73
101.74
101.75
101.76
101.769
101.778
101.785
101.792
101.797
101.801
101.803
101.746
101.747
101.75
101.754
101.76
101.766
101.774
101.782
101.791
101.8
101.81
101.819
101.828
101.837
101.845
101.853
101.859
101.864
101.868
101.87
101.935
101.936
101.938
101.942
101.947
101.953
101.959
101.967
101.974
101.983
101.991
101.999
102.008
102.016
102.023
102.03
102.036
102.04
102.044
102.046
102.471
102.472
102.475
102.478
102.481
102.486
102.492
102.498
102.504
102.511
102.518
102.525
102.532
102.539
102.545
102.551
102.557
102.561
102.564
102.566
102.981
102.982
102.983
102.985
102.988
102.992
102.996
103
103.005
103.01
103.015
103.021
103.026
103.031
103.036
103.041
103.045
103.049
103.051
103.053
103.989
103.989
103.99
103.991
103.992
103.994
103.996
103.999
104.002
104.005
104.008
104.011
104.014
104.017
104.02
104.023
104.026
104.029
104.031
104.032
104.915
104.915
104.915
104.915
104.915
104.915
104.914
104.914
104.914
104.915
104.915
104.915
104.915
104.916
104.917
104.918
104.919
104.92
104.921
104.922
106.44
106.439
106.438
106.436
106.434
106.431
106.428
106.425
106.422
106.418
106.415
106.412
106.409
106.406
106.404
106.402
106.401
106.4
106.4
106.4
107.958
107.957
107.954
107.95
107.946
107.94
107.933
107.926
107.918
107.91
107.902
107.894
107.886
107.879
107.873
107.868
107.863
107.86
107.858
107.857
110.152
110.149
110.145
110.139
110.13
110.12
110.109
110.097
110.083
110.07
110.056
110.042
110.029
110.016
110.004
109.994
109.986
109.979
109.974
109.972
112.554
112.551
112.544
112.534
112.521
112.506
112.488
112.469
112.448
112.427
112.405
112.384
112.363
112.343
112.325
112.309
112.294
112.283
112.275
112.27
115.667
115.662
115.652
115.638
115.619
115.597
115.571
115.543
115.513
115.482
115.451
115.419
115.389
115.361
115.334
115.31
115.289
115.271
115.258
115.251
139.531
139.528
139.522
139.514
139.503
139.491
139.476
139.461
139.444
139.427
139.409
139.392
139.376
139.36
139.346
139.333
139.322
139.313
139.307
139.303
137.134
137.132
137.13
137.126
137.12
137.114
137.107
137.099
137.091
137.083
137.074
137.066
137.057
137.05
137.042
137.036
137.03
137.026
137.023
137.021
135.246
135.246
135.246
135.245
135.244
135.243
135.241
135.24
135.238
135.236
135.235
135.233
135.231
135.229
135.228
135.227
135.225
135.224
135.224
135.223
133.593
133.593
133.594
133.596
133.598
133.6
133.603
133.606
133.609
133.612
133.615
133.618
133.621
133.624
133.627
133.629
133.631
133.632
133.634
133.634
132.455
132.456
132.458
132.462
132.466
132.47
132.476
132.482
132.488
132.495
132.502
132.508
132.515
132.521
132.526
132.531
132.536
132.539
132.541
132.543
131.465
131.467
131.47
131.474
131.479
131.486
131.493
131.501
131.509
131.518
131.527
131.536
131.545
131.553
131.56
131.567
131.573
131.578
131.581
131.583
130.906
130.907
130.91
130.915
130.921
130.928
130.937
130.946
130.956
130.966
130.976
130.986
130.996
131.005
131.014
131.022
131.029
131.034
131.038
131.04
130.49
130.491
130.494
130.499
130.505
130.513
130.521
130.531
130.541
130.551
130.562
130.573
130.583
130.593
130.602
130.61
130.618
130.624
130.628
130.63
130.368
130.37
130.373
130.377
130.383
130.39
130.399
130.408
130.417
130.428
130.438
130.448
130.459
130.468
130.478
130.486
130.493
130.499
130.504
130.506
130.458
130.46
130.462
130.467
130.472
130.479
130.486
130.495
130.504
130.514
130.523
130.533
130.543
130.552
130.561
130.569
130.576
130.582
130.587
130.589
130.686
130.687
130.69
130.693
130.698
130.704
130.711
130.718
130.726
130.735
130.744
130.752
130.761
130.77
130.778
130.785
130.792
130.798
130.802
130.805
131.302
131.303
131.305
131.308
131.312
131.317
131.322
131.328
131.335
131.342
131.349
131.357
131.364
131.372
131.379
131.386
131.392
131.397
131.401
131.403
131.909
131.91
131.911
131.913
131.916
131.919
131.923
131.928
131.933
131.938
131.943
131.949
131.955
131.96
131.966
131.971
131.976
131.981
131.984
131.986
133.06
133.06
133.061
133.062
133.063
133.065
133.067
133.069
133.072
133.075
133.078
133.081
133.084
133.088
133.091
133.095
133.098
133.102
133.104
133.106
134.137
134.137
134.137
134.136
134.136
134.135
134.135
134.135
134.134
134.134
134.134
134.134
134.134
134.135
134.136
134.137
134.139
134.14
134.142
134.143
135.877
135.876
135.875
135.873
135.87
135.867
135.863
135.86
135.856
135.852
135.848
135.844
135.841
135.838
135.835
135.833
135.832
135.831
135.831
135.831
137.581
137.579
137.576
137.572
137.567
137.56
137.553
137.545
137.537
137.528
137.519
137.51
137.502
137.494
137.487
137.481
137.475
137.472
137.469
137.468
140.042
140.039
140.035
140.028
140.019
140.009
139.997
139.983
139.969
139.954
139.939
139.924
139.91
139.896
139.883
139.872
139.862
139.854
139.848
139.845
142.614
142.611
142.604
142.594
142.581
142.565
142.547
142.527
142.505
142.483
142.46
142.437
142.414
142.393
142.372
142.354
142.337
142.324
142.314
142.308
145.871
145.866
145.857
145.842
145.824
145.801
145.776
145.747
145.717
145.685
145.652
145.62
145.588
145.557
145.527
145.5
145.476
145.455
145.439
145.43
168.172
168.17
168.165
168.157
168.148
168.136
168.123
168.109
168.094
168.078
168.062
168.046
168.031
168.016
168.002
167.989
167.979
167.97
167.963
167.959
165.811
165.81
165.807
165.804
165.799
165.793
165.787
165.779
165.772
165.764
165.756
165.747
165.74
165.732
165.725
165.718
165.713
165.708
165.705
165.703
163.888
163.888
163.888
163.887
163.886
163.884
163.883
163.881
163.879
163.877
163.875
163.873
163.872
163.87
163.868
163.866
163.865
163.864
163.863
163.862
162.202
162.202
162.203
162.204
162.206
162.208
162.21
162.212
162.215
162.217
162.22
162.223
162.225
162.227
162.23
162.231
162.233
162.234
162.235
162.236
161.007
161.008
161.01
161.013
161.016
161.021
161.026
161.031
161.037
161.043
161.049
161.054
161.06
161.066
161.071
161.075
161.079
161.083
161.085
161.086
159.969
159.97
159.973
159.976
159.981
159.987
159.994
160.001
160.009
160.017
160.025
160.033
160.041
160.049
160.056
160.063
160.068
160.073
160.076
160.078
159.37
159.372
159.375
159.379
159.384
159.391
159.399
159.407
159.416
159.425
159.435
159.444
159.454
159.463
159.471
159.479
159.486
159.491
159.495
159.498
158.932
158.934
158.936
158.941
158.947
158.953
158.961
158.97
158.98
158.989
159
159.01
159.02
159.03
159.039
159.047
159.055
159.061
159.065
159.068
158.804
158.805
158.808
158.812
158.818
158.824
158.832
158.841
158.85
158.86
158.87
158.88
158.89
158.9
158.909
158.917
158.925
158.931
158.936
158.939
158.91
158.911
158.914
158.918
158.923
158.929
158.936
158.944
158.953
158.962
158.972
158.981
158.991
159
159.009
159.018
159.025
159.032
159.037
159.039
159.169
159.17
159.172
159.176
159.18
159.186
159.192
159.199
159.207
159.215
159.224
159.233
159.241
159.25
159.259
159.267
159.274
159.28
159.285
159.287
159.841
159.842
159.844
159.847
159.85
159.855
159.86
159.866
159.872
159.879
159.886
159.894
159.901
159.909
159.916
159.923
159.93
159.936
159.94
159.943
160.52
160.521
160.522
160.524
160.526
160.529
160.533
160.537
160.542
160.547
160.552
160.558
160.563
160.569
160.575
160.581
160.587
160.592
160.596
160.598
161.761
161.761
161.761
161.762
161.763
161.764
161.766
161.768
161.771
161.773
161.776
161.779
161.783
161.786
161.79
161.794
161.798
161.802
161.805
161.807
162.942
162.942
162.941
162.941
162.94
162.939
162.939
162.938
162.937
162.937
162.937
162.937
162.937
162.938
162.939
162.94
162.942
162.944
162.946
162.947
164.782
164.781
164.78
164.777
164.775
164.771
164.768
164.763
164.759
164.755
164.751
164.747
164.743
164.74
164.737
164.736
164.734
164.734
164.734
164.734
166.604
166.603
166.6
166.595
166.59
166.583
166.576
166.568
166.559
166.55
166.54
166.531
166.522
166.514
166.507
166.5
166.495
166.491
166.488
166.487
169.109
169.107
169.102
169.096
169.087
169.076
169.064
169.051
169.037
169.022
169.006
168.991
168.976
168.961
168.948
168.935
168.924
168.916
168.91
168.907
171.768
171.764
171.758
171.748
171.735
171.72
171.702
171.682
171.661
171.638
171.615
171.592
171.569
171.546
171.525
171.505
171.487
171.472
171.461
171.455
175.007
175.003
174.994
174.98
174.963
174.941
174.917
174.889
174.859
174.828
174.796
174.763
174.73
174.698
174.667
174.638
174.611
174.588
174.57
174.559
196.445
196.443
196.439
196.433
196.424
196.415
196.403
196.391
196.377
196.363
196.349
196.335
196.321
196.307
196.294
196.283
196.272
196.264
196.258
196.254
194.082
194.08
194.078
194.075
194.071
194.065
194.059
194.053
194.046
194.038
194.031
194.023
194.016
194.009
194.002
193.996
193.99
193.986
193.983
193.981
192.159
192.159
192.158
192.157
192.156
192.155
192.153
192.151
192.149
192.147
192.145
192.143
192.141
192.139
192.137
192.135
192.133
192.132
192.131
192.13
190.434
190.435
190.435
190.436
190.437
190.439
190.44
190.442
190.444
190.446
190.448
190.45
190.451
190.453
190.455
190.456
190.457
190.458
190.459
190.459
189.216
189.217
189.218
189.22
189.223
189.227
189.231
189.235
189.24
189.245
189.25
189.255
189.26
189.264
189.269
189.273
189.276
189.279
189.281
189.282
188.149
188.15
188.152
188.155
188.159
188.164
188.169
188.175
188.182
188.189
188.196
188.203
188.21
188.217
188.224
188.229
188.235
188.239
188.242
188.243
187.531
187.532
187.534
187.538
187.543
187.548
187.555
187.562
187.57
187.578
187.587
187.595
187.604
187.612
187.62
187.627
187.633
187.638
187.642
187.644
187.085
187.087
187.089
187.093
187.098
187.104
187.111
187.118
187.127
187.136
187.145
187.154
187.163
187.172
187.181
187.189
187.196
187.202
187.206
187.208
186.957
186.959
186.961
186.965
186.97
186.976
186.982
186.99
186.998
187.007
187.016
187.026
187.035
187.044
187.053
187.061
187.069
187.075
187.08
187.082
187.079
187.08
187.083
187.086
187.091
187.096
187.102
187.11
187.118
187.126
187.135
187.144
187.153
187.162
187.171
187.179
187.187
187.193
187.198
187.201
187.364
187.365
187.367
187.37
187.374
187.379
187.385
187.391
187.398
187.406
187.414
187.422
187.431
187.439
187.447
187.455
187.463
187.469
187.474
187.476
188.075
188.076
188.078
188.08
188.083
188.087
188.092
188.097
188.103
188.109
188.116
188.123
188.131
188.138
188.145
188.153
188.159
188.165
188.17
188.173
188.806
188.807
188.808
188.809
188.811
188.814
188.817
188.821
188.825
188.83
188.835
188.84
188.846
188.852
188.858
188.864
188.869
188.874
188.878
188.881
190.105
190.105
190.106
190.106
190.107
190.108
190.109
190.111
190.113
190.115
190.118
190.121
190.124
190.128
190.132
190.136
190.14
190.144
190.148
190.149
191.354
191.354
191.354
191.353
191.352
191.351
191.35
191.349
191.348
191.348
191.347
191.347
191.348
191.348
191.349
191.351
191.353
191.355
191.357
191.358
193.267
193.266
193.265
193.262
193.26
193.256
193.252
193.248
193.244
193.24
193.236
193.232
193.228
193.225
193.222
193.221
193.219
193.219
193.219
193.219
195.15
195.149
195.146
195.142
195.137
195.13
195.123
195.115
195.106
195.097
195.088
195.079
195.07
195.062
195.055
195.048
195.043
195.039
195.036
195.035
197.734
197.732
197.728
197.721
197.713
197.703
197.692
197.679
197.665
197.65
197.635
197.62
197.605
197.591
197.577
197.564
197.553
197.544
197.538
197.535
200.418
200.415
200.409
200.4
200.388
200.373
200.356
200.338
200.317
200.296
200.273
200.25
200.227
200.205
200.183
200.162
200.144
200.128
200.117
200.11
203.666
203.662
203.654
203.641
203.625
203.606
203.582
203.557
203.529
203.499
203.468
203.436
203.403
203.371
203.339
203.308
203.28
203.256
203.237
203.226
224.201
224.199
224.195
224.19
224.183
224.175
224.165
224.155
224.144
224.132
224.119
224.107
224.094
224.082
224.071
224.06
224.051
224.044
224.039
224.036
221.882
221.881
221.879
221.876
221.872
221.868
221.863
221.857
221.851
221.844
221.837
221.83
221.823
221.817
221.81
221.805
221.8
221.795
221.793
221.791
219.981
219.981
219.98
219.979
219.978
219.976
219.975
219.973
219.97
219.968
219.966
219.964
219.961
219.959
219.957
219.955
219.953
219.951
219.95
219.949
218.271
218.271
218.272
218.272
218.273
218.273
218.274
218.275
218.276
218.277
218.279
218.28
218.281
218.282
218.283
218.284
218.284
218.285
218.285
218.285
217.052
217.053
217.054
217.056
217.058
217.06
217.063
217.066
217.07
217.073
217.077
217.081
217.085
217.089
217.092
217.095
217.098
217.1
217.101
217.102
215.986
215.987
215.989
215.991
215.994
215.998
216.002
216.007
216.012
216.018
216.024
216.029
216.035
216.041
216.046
216.051
216.055
216.059
216.061
216.062
215.367
215.368
215.369
215.372
215.376
215.381
215.386
215.392
215.398
215.405
215.412
215.419
215.426
215.433
215.44
215.446
215.451
215.456
215.459
215.461
214.929
214.93
214.932
214.935
214.939
214.944
214.949
214.956
214.962
214.97
214.978
214.985
214.993
215.001
215.009
215.016
215.022
215.027
215.031
215.033
214.808
214.809
214.811
214.814
214.818
214.823
214.828
214.835
214.842
214.849
214.857
214.865
214.873
214.882
214.89
214.897
214.904
214.909
214.914
214.916
214.945
214.946
214.948
214.951
214.955
214.959
214.965
214.971
214.978
214.985
214.993
215.001
215.009
215.017
215.025
215.033
215.04
215.045
215.05
215.052
215.251
215.252
215.254
215.256
215.259
215.263
215.268
215.274
215.28
215.286
215.294
215.301
215.309
215.316
215.324
215.332
215.339
215.344
215.349
215.351
215.987
215.988
215.989
215.991
215.994
215.997
216.001
216.005
216.01
216.016
216.022
216.029
216.035
216.042
216.049
216.056
216.062
216.068
216.072
216.074
216.753
216.753
216.754
216.755
216.756
216.759
216.761
216.764
216.768
216.772
216.776
216.781
216.787
216.792
216.798
216.804
216.809
216.814
216.817
216.819
218.079
218.079
218.08
218.08
218.08
218.081
218.082
218.083
218.085
218.087
218.089
218.092
218.095
218.099
218.102
218.106
218.11
218.114
218.117
218.118
219.367
219.367
219.366
219.365
219.364
219.363
219.362
219.361
219.36
219.359
219.359
219.359
219.359
219.36
219.361
219.362
219.364
219.366
219.367
219.369
221.297
221.296
221.295
221.292
221.289
221.286
221.282
221.278
221.274
221.27
221.266
221.262
221.259
221.256
221.253
221.251
221.25
221.25
221.25
221.25
223.206
223.205
223.202
223.198
223.193
223.187
223.18
223.172
223.164
223.156
223.147
223.139
223.13
223.122
223.115
223.109
223.103
223.099
223.097
223.096
225.771
225.769
225.765
225.759
225.751
225.742
225.731
225.719
225.706
225.692
225.678
225.664
225.65
225.635
225.622
225.61
225.599
225.591
225.585
225.582
228.437
228.434
228.429
228.421
228.41
228.396
228.381
228.364
228.345
228.324
228.303
228.282
228.259
228.237
228.216
228.196
228.178
228.163
228.152
228.146
231.608
231.604
231.597
231.586
231.572
231.554
231.533
231.509
231.484
231.456
231.427
231.396
231.365
231.333
231.302
231.273
231.245
231.222
231.204
231.194
251.568
251.567
251.564
251.56
251.554
251.547
251.54
251.531
251.522
251.512
251.502
251.491
251.481
251.471
251.461
251.452
251.445
251.439
251.436
251.434
249.293
249.292
249.29
249.288
249.285
249.281
249.276
249.271
249.266
249.26
249.254
249.248
249.241
249.235
249.23
249.225
249.22
249.217
249.214
249.213
247.425
247.425
247.424
247.423
247.421
247.42
247.418
247.416
247.413
247.411
247.408
247.406
247.403
247.401
247.398
247.396
247.394
247.392
247.391
247.39
245.738
245.738
245.738
245.738
245.738
245.738
245.738
245.738
245.739
245.739
245.739
245.739
245.739
245.74
245.74
245.74
245.74
245.74
245.739
245.739
244.534
244.534
244.535
244.536
244.537
244.539
244.54
244.542
244.544
244.547
244.549
244.552
244.554
244.556
244.559
244.561
244.562
244.563
244.564
244.564
243.484
243.484
243.485
243.487
243.489
243.492
243.495
243.498
243.501
243.505
243.509
243.513
243.518
243.522
243.526
243.529
243.532
243.535
243.536
243.536
242.874
242.874
242.876
242.878
242.88
242.884
242.887
242.892
242.896
242.901
242.906
242.912
242.917
242.923
242.928
242.933
242.937
242.94
242.942
242.943
242.453
242.453
242.455
242.457
242.46
242.464
242.468
242.473
242.478
242.483
242.489
242.496
242.502
242.508
242.514
242.52
242.525
242.529
242.532
242.533
242.343
242.344
242.346
242.348
242.351
242.355
242.359
242.364
242.369
242.375
242.381
242.388
242.395
242.401
242.408
242.414
242.42
242.424
242.427
242.429
242.497
242.498
242.499
242.501
242.504
242.508
242.512
242.517
242.522
242.528
242.534
242.54
242.547
242.554
242.561
242.567
242.573
242.578
242.581
242.583
242.819
242.82
242.821
242.823
242.826
242.829
242.832
242.837
242.842
242.847
242.853
242.859
242.866
242.872
242.879
242.885
242.891
242.896
242.899
242.901
243.57
243.57
243.571
243.573
243.575
243.577
243.58
243.584
243.588
243.593
243.598
243.603
243.609
243.615
243.621
243.627
243.632
243.636
243.639
243.641
244.356
244.356
244.357
244.358
244.359
244.361
244.362
244.365
244.368
244.371
244.375
244.379
244.383
244.388
244.393
244.398
244.402
244.406
244.409
244.41
245.692
245.692
245.692
245.692
245.692
245.692
245.693
245.694
245.695
245.696
245.698
245.7
245.703
245.706
245.709
245.713
245.716
245.719
245.721
245.722
246.996
246.996
246.995
246.994
246.993
246.992
246.99
246.989
246.988
246.987
246.986
246.986
246.986
246.987
246.987
246.988
246.99
246.991
246.992
246.993
248.921
248.92
248.919
248.916
248.914
248.91
248.907
248.903
248.899
248.895
248.891
248.888
248.884
248.881
248.879
248.877
248.876
248.875
248.875
248.875
250.826
250.825
250.822
250.818
250.813
250.808
250.801
250.794
250.787
250.779
250.771
250.763
250.755
250.748
250.741
250.735
250.73
250.727
250.724
250.723
253.359
253.357
253.353
253.348
253.341
253.332
253.322
253.312
253.3
253.287
253.274
253.261
253.248
253.235
253.223
253.211
253.202
253.194
253.189
253.186
255.975
255.972
255.967
255.96
255.95
255.938
255.925
255.909
255.892
255.874
255.854
255.834
255.814
255.793
255.774
255.755
255.739
255.726
255.717
255.712
259.065
259.062
259.056
259.046
259.033
259.018
258.999
258.978
258.955
258.93
258.904
258.876
258.847
258.817
258.789
258.761
258.737
258.717
258.702
258.694
278.532
278.53
278.528
278.525
278.521
278.516
278.51
278.503
278.496
278.488
278.48
278.472
278.463
278.455
278.448
278.441
278.436
278.432
278.43
278.43
276.308
276.307
276.306
276.304
276.301
276.298
276.294
276.289
276.285
276.28
276.274
276.269
276.264
276.258
276.254
276.249
276.246
276.243
276.241
276.24
274.482
274.482
274.481
274.48
274.478
274.476
274.474
274.472
274.469
274.466
274.464
274.461
274.458
274.455
274.453
274.45
274.448
274.446
274.445
274.444
272.836
272.836
272.836
272.836
272.835
272.834
272.834
272.833
272.832
272.831
272.83
272.83
272.829
272.828
272.827
272.827
272.826
272.825
272.824
272.823
271.659
271.66
271.66
271.66
271.66
271.661
271.661