/*--------------------------------*- C++ -*----------------------------------*\
| =========                 |                                                 |
| \\      /  F ield         | OpenFOAM: The Open Source CFD Toolbox           |
|  \\    /   O peration     | Version:  2212                                  |
|   \\  /    A nd           | Website:  www.openfoam.com                      |
|    \\/     M anipulation  |                                                 |
\*---------------------------------------------------------------------------*/
FoamFile
{
    version     2.0;
    format      ascii;
    arch        "LSB;label=32;scalar=64";
    class       volVectorField;
    location    "0.169";
    object      UMean;
}
// * * * * * * * * * * * * * * * * * * * * * * * * * * * * * * * * * * * * * //

dimensions      [0 1 -1 0 0 0 0];

internalField   nonuniform List<vector> 
24240
(
(9.50616 0.581623 6.93238e-07)
(9.50622 0.581628 -6.23285e-07)
(9.50621 0.581628 -5.22423e-07)
(9.50621 0.581627 -9.36375e-07)
(9.50621 0.581627 -1.10131e-06)
(9.50621 0.581627 -1.33712e-06)
(9.50621 0.581626 -1.50768e-06)
(9.50621 0.581626 -1.66539e-06)
(9.50621 0.581625 -1.78186e-06)
(9.50621 0.581625 -1.86186e-06)
(9.50621 0.581625 -1.89731e-06)
(9.50621 0.581625 -1.8866e-06)
(9.50621 0.581624 -1.82745e-06)
(9.50621 0.581624 -1.72561e-06)
(9.50621 0.581624 -1.57549e-06)
(9.50621 0.581624 -1.42009e-06)
(9.50621 0.581624 -1.16208e-06)
(9.50621 0.581624 -1.08754e-06)
(9.50622 0.581624 -4.2267e-07)
(9.50616 0.58162 -1.08552e-06)
(9.13119 0.587344 -2.99223e-07)
(9.13125 0.587349 -6.90471e-07)
(9.13125 0.587349 -1.00914e-06)
(9.13125 0.58735 -1.39966e-06)
(9.13125 0.58735 -1.68187e-06)
(9.13125 0.587351 -1.94884e-06)
(9.13125 0.587352 -2.14032e-06)
(9.13125 0.587353 -2.28101e-06)
(9.13125 0.587354 -2.35614e-06)
(9.13125 0.587355 -2.37232e-06)
(9.13125 0.587356 -2.32949e-06)
(9.13125 0.587356 -2.23167e-06)
(9.13125 0.587357 -2.08362e-06)
(9.13125 0.587358 -1.89381e-06)
(9.13125 0.587358 -1.66713e-06)
(9.13125 0.587359 -1.42837e-06)
(9.13126 0.587359 -1.1452e-06)
(9.13126 0.587359 -8.99314e-07)
(9.13126 0.58736 -5.26478e-07)
(9.1312 0.587355 -1.45298e-07)
(9.15665 0.282506 -1.19261e-07)
(9.15671 0.282509 1.97637e-08)
(9.15671 0.282509 1.47775e-07)
(9.15671 0.282509 1.46153e-07)
(9.15671 0.282509 1.64572e-07)
(9.15671 0.28251 1.14586e-07)
(9.15671 0.28251 4.75403e-08)
(9.1567 0.282511 -5.31554e-08)
(9.1567 0.282511 -1.68349e-07)
(9.1567 0.282512 -2.91752e-07)
(9.1567 0.282512 -4.1085e-07)
(9.1567 0.282513 -5.14934e-07)
(9.1567 0.282513 -5.95416e-07)
(9.1567 0.282514 -6.44948e-07)
(9.1567 0.282514 -6.57281e-07)
(9.1567 0.282515 -6.39901e-07)
(9.1567 0.282515 -5.68046e-07)
(9.1567 0.282515 -4.94888e-07)
(9.1567 0.282516 -2.94819e-07)
(9.15664 0.282513 -2.20805e-08)
(8.9304 0.281049 -1.49581e-07)
(8.93046 0.281052 -4.30517e-07)
(8.93046 0.281052 -6.43753e-07)
(8.93046 0.281052 -8.6858e-07)
(8.93046 0.281052 -1.04287e-06)
(8.93046 0.281052 -1.19788e-06)
(8.93046 0.281052 -1.30993e-06)
(8.93046 0.281053 -1.38801e-06)
(8.93047 0.281053 -1.42417e-06)
(8.93047 0.281053 -1.42102e-06)
(8.93047 0.281054 -1.37824e-06)
(8.93047 0.281054 -1.29872e-06)
(8.93047 0.281054 -1.18631e-06)
(8.93047 0.281055 -1.0461e-06)
(8.93047 0.281055 -8.8256e-07)
(8.93047 0.281055 -7.06958e-07)
(8.93047 0.281056 -5.12752e-07)
(8.93047 0.281056 -3.31456e-07)
(8.93047 0.281056 -1.54272e-07)
(8.93041 0.281053 -6.28829e-08)
(8.93789 0.143109 3.11754e-09)
(8.93795 0.143111 1.69131e-07)
(8.93795 0.143111 3.27485e-07)
(8.93795 0.143111 4.28673e-07)
(8.93795 0.143111 5.05004e-07)
(8.93795 0.143112 5.31729e-07)
(8.93795 0.143112 5.23109e-07)
(8.93794 0.143113 4.77781e-07)
(8.93794 0.143113 4.06252e-07)
(8.93794 0.143114 3.16254e-07)
(8.93794 0.143114 2.18386e-07)
(8.93794 0.143115 1.22869e-07)
(8.93794 0.143115 3.76131e-08)
(8.93794 0.143116 -2.88823e-08)
(8.93794 0.143116 -7.13257e-08)
(8.93794 0.143117 -8.51235e-08)
(8.93794 0.143117 -6.9968e-08)
(8.93794 0.143117 -3.71295e-08)
(8.93794 0.143117 7.11129e-09)
(8.93788 0.143116 3.33674e-08)
(8.81186 0.13708 -5.30526e-08)
(8.81192 0.137081 -1.45254e-07)
(8.81192 0.137081 -2.05596e-07)
(8.81192 0.137081 -2.77256e-07)
(8.81192 0.137081 -3.28338e-07)
(8.81192 0.13708 -3.78804e-07)
(8.81192 0.13708 -4.16372e-07)
(8.81192 0.13708 -4.45446e-07)
(8.81192 0.137079 -4.61079e-07)
(8.81192 0.137079 -4.63495e-07)
(8.81192 0.137079 -4.51071e-07)
(8.81192 0.137078 -4.23878e-07)
(8.81192 0.137078 -3.8226e-07)
(8.81192 0.137078 -3.27316e-07)
(8.81192 0.137078 -2.57843e-07)
(8.81192 0.137078 -1.79733e-07)
(8.81192 0.137077 -8.75424e-08)
(8.81192 0.137077 -9.29641e-09)
(8.81192 0.137077 4.37499e-08)
(8.81186 0.137076 1.49671e-08)
(8.8149 0.0623787 -1.98211e-08)
(8.81496 0.0623794 1.33772e-08)
(8.81496 0.0623794 4.67035e-08)
(8.81496 0.0623794 5.33081e-08)
(8.81496 0.0623795 5.19992e-08)
(8.81496 0.0623795 3.33698e-08)
(8.81496 0.0623796 1.93457e-09)
(8.81496 0.0623796 -4.21857e-08)
(8.81496 0.0623797 -9.50809e-08)
(8.81496 0.0623797 -1.52705e-07)
(8.81496 0.0623798 -2.10321e-07)
(8.81496 0.0623798 -2.62357e-07)
(8.81496 0.0623799 -3.03509e-07)
(8.81496 0.0623799 -3.28665e-07)
(8.81496 0.0623799 -3.32576e-07)
(8.81495 0.0623798 -3.13604e-07)
(8.81495 0.0623798 -2.69264e-07)
(8.81495 0.0623797 -2.07612e-07)
(8.81495 0.0623796 -1.28113e-07)
(8.81489 0.0623788 -3.64896e-08)
(8.75823 0.0543994 -3.25466e-08)
(8.75829 0.0543999 -9.93909e-08)
(8.75829 0.0543998 -1.49653e-07)
(8.75829 0.0543997 -2.067e-07)
(8.75829 0.0543995 -2.46062e-07)
(8.75829 0.0543993 -2.80347e-07)
(8.75829 0.0543991 -3.03892e-07)
(8.75829 0.0543988 -3.21275e-07)
(8.75829 0.0543986 -3.32015e-07)
(8.75829 0.0543983 -3.37425e-07)
(8.75829 0.0543981 -3.381e-07)
(8.75829 0.0543978 -3.3348e-07)
(8.75829 0.0543976 -3.2196e-07)
(8.75829 0.0543973 -3.03859e-07)
(8.75829 0.054397 -2.74636e-07)
(8.75828 0.0543968 -2.40956e-07)
(8.75828 0.0543965 -1.9486e-07)
(8.75828 0.0543962 -1.58446e-07)
(8.75828 0.054396 -1.04207e-07)
(8.75823 0.0543953 -4.45503e-08)
(8.76467 0.00361177 -4.93893e-08)
(8.76472 0.00361172 -9.54893e-08)
(8.76472 0.00361152 -1.48966e-07)
(8.76472 0.00361125 -2.13921e-07)
(8.76472 0.0036109 -2.74064e-07)
(8.76472 0.00361049 -3.32806e-07)
(8.76472 0.00361002 -3.89617e-07)
(8.76472 0.00360951 -4.46452e-07)
(8.76472 0.00360898 -5.04769e-07)
(8.76472 0.00360842 -5.64159e-07)
(8.76472 0.00360787 -6.23554e-07)
(8.76472 0.00360731 -6.79875e-07)
(8.76472 0.00360677 -7.26558e-07)
(8.76472 0.00360625 -7.59194e-07)
(8.76472 0.00360577 -7.66879e-07)
(8.76472 0.00360533 -7.50371e-07)
(8.76472 0.00360494 -6.91816e-07)
(8.76472 0.00360462 -6.00452e-07)
(8.76472 0.00360436 -4.29559e-07)
(8.76466 0.00360422 -1.46708e-07)
(8.75926 -0.0111683 -1.14399e-07)
(8.75932 -0.0111687 -3.35574e-07)
(8.75932 -0.0111692 -5.38078e-07)
(8.75932 -0.0111699 -7.30064e-07)
(8.75932 -0.0111709 -8.91345e-07)
(8.75932 -0.0111719 -1.0245e-06)
(8.75932 -0.0111731 -1.12694e-06)
(8.75932 -0.0111744 -1.20178e-06)
(8.75932 -0.0111757 -1.25158e-06)
(8.75932 -0.011177 -1.27797e-06)
(8.75932 -0.0111783 -1.28284e-06)
(8.75932 -0.0111795 -1.26574e-06)
(8.75932 -0.0111806 -1.22329e-06)
(8.75932 -0.0111816 -1.15713e-06)
(8.75932 -0.0111825 -1.06208e-06)
(8.75932 -0.0111832 -9.50225e-07)
(8.75932 -0.0111838 -8.07559e-07)
(8.75932 -0.0111843 -6.56688e-07)
(8.75932 -0.0111846 -4.18359e-07)
(8.75926 -0.0111846 -1.32021e-07)
(8.77378 -0.0536697 -2.42874e-07)
(8.77384 -0.0536704 -7.2573e-07)
(8.77384 -0.0536705 -1.17462e-06)
(8.77384 -0.0536706 -1.58749e-06)
(8.77384 -0.0536708 -1.93748e-06)
(8.77384 -0.053671 -2.22252e-06)
(8.77384 -0.0536713 -2.43814e-06)
(8.77384 -0.0536716 -2.58739e-06)
(8.77384 -0.0536719 -2.67411e-06)
(8.77384 -0.0536723 -2.70333e-06)
(8.77384 -0.0536727 -2.67964e-06)
(8.77384 -0.0536731 -2.60686e-06)
(8.77384 -0.0536735 -2.48524e-06)
(8.77385 -0.0536739 -2.31966e-06)
(8.77385 -0.0536743 -2.10765e-06)
(8.77385 -0.0536747 -1.86488e-06)
(8.77385 -0.053675 -1.57219e-06)
(8.77385 -0.0536753 -1.25107e-06)
(8.77385 -0.0536755 -7.99368e-07)
(8.77379 -0.0536749 -2.61795e-07)
(8.81492 -0.070249 -1.7532e-07)
(8.81498 -0.07025 -4.63653e-07)
(8.81498 -0.0702502 -7.39325e-07)
(8.81498 -0.0702506 -1.00407e-06)
(8.81498 -0.070251 -1.2398e-06)
(8.81498 -0.0702515 -1.4444e-06)
(8.81498 -0.0702521 -1.61564e-06)
(8.81498 -0.0702528 -1.75462e-06)
(8.81498 -0.0702534 -1.86221e-06)
(8.81498 -0.0702541 -1.93839e-06)
(8.81498 -0.0702547 -1.98153e-06)
(8.81498 -0.0702554 -1.98808e-06)
(8.81498 -0.0702559 -1.9513e-06)
(8.81498 -0.0702564 -1.86957e-06)
(8.81498 -0.0702568 -1.73325e-06)
(8.81498 -0.0702572 -1.55807e-06)
(8.81498 -0.0702574 -1.32543e-06)
(8.81498 -0.0702576 -1.06096e-06)
(8.81498 -0.0702577 -6.59399e-07)
(8.81492 -0.0702568 -1.84225e-07)
(8.83773 -0.125594 -3.35649e-07)
(8.83779 -0.125596 -1.04445e-06)
(8.83779 -0.125596 -1.67957e-06)
(8.83779 -0.125596 -2.26375e-06)
(8.83779 -0.125596 -2.7593e-06)
(8.83779 -0.125597 -3.16501e-06)
(8.83779 -0.125597 -3.47247e-06)
(8.83779 -0.125598 -3.68265e-06)
(8.8378 -0.125598 -3.79762e-06)
(8.8378 -0.125599 -3.8224e-06)
(8.8378 -0.125599 -3.76183e-06)
(8.8378 -0.1256 -3.62061e-06)
(8.8378 -0.1256 -3.40228e-06)
(8.8378 -0.125601 -3.11504e-06)
(8.8378 -0.125601 -2.76032e-06)
(8.8378 -0.125602 -2.36638e-06)
(8.83781 -0.125602 -1.91729e-06)
(8.83781 -0.125602 -1.45966e-06)
(8.83781 -0.125602 -8.58339e-07)
(8.83775 -0.125601 -2.64537e-07)
(8.93676 -0.13836 -2.6541e-07)
(8.93682 -0.138362 -6.67697e-07)
(8.93682 -0.138362 -1.06004e-06)
(8.93682 -0.138362 -1.44279e-06)
(8.93682 -0.138363 -1.79473e-06)
(8.93682 -0.138363 -2.10708e-06)
(8.93682 -0.138363 -2.37394e-06)
(8.93683 -0.138364 -2.59344e-06)
(8.93683 -0.138364 -2.76227e-06)
(8.93683 -0.138365 -2.87741e-06)
(8.93683 -0.138365 -2.93258e-06)
(8.93683 -0.138366 -2.9228e-06)
(8.93683 -0.138366 -2.83873e-06)
(8.93683 -0.138366 -2.67929e-06)
(8.93683 -0.138366 -2.43679e-06)
(8.93683 -0.138367 -2.13463e-06)
(8.93683 -0.138367 -1.76053e-06)
(8.93683 -0.138367 -1.34135e-06)
(8.93683 -0.138367 -7.88625e-07)
(8.93677 -0.138365 -1.97671e-07)
(8.96027 -0.234048 -3.83308e-07)
(8.96033 -0.234051 -1.23912e-06)
(8.96033 -0.234051 -1.99822e-06)
(8.96033 -0.234051 -2.70447e-06)
(8.96033 -0.234051 -3.30203e-06)
(8.96034 -0.234051 -3.79759e-06)
(8.96034 -0.234051 -4.17229e-06)
(8.96034 -0.234051 -4.42611e-06)
(8.96034 -0.234052 -4.55787e-06)
(8.96034 -0.234052 -4.57083e-06)
(8.96035 -0.234052 -4.46922e-06)
(8.96035 -0.234053 -4.25977e-06)
(8.96035 -0.234053 -3.94884e-06)
(8.96035 -0.234054 -3.55019e-06)
(8.96035 -0.234054 -3.07515e-06)
(8.96035 -0.234054 -2.5665e-06)
(8.96035 -0.234055 -2.01442e-06)
(8.96035 -0.234055 -1.5023e-06)
(8.96035 -0.234055 -8.84643e-07)
(8.9603 -0.234053 -2.96098e-07)
(9.14505 -0.239409 -3.13636e-07)
(9.14511 -0.239411 -7.06821e-07)
(9.14511 -0.239411 -1.13165e-06)
(9.14511 -0.239411 -1.58864e-06)
(9.14511 -0.239412 -2.02171e-06)
(9.14511 -0.239412 -2.42535e-06)
(9.14511 -0.239412 -2.78331e-06)
(9.14511 -0.239413 -3.09427e-06)
(9.14511 -0.239413 -3.34685e-06)
(9.14511 -0.239413 -3.53406e-06)
(9.14511 -0.239414 -3.64391e-06)
(9.14511 -0.239414 -3.66775e-06)
(9.14511 -0.239414 -3.59268e-06)
(9.14511 -0.239415 -3.41728e-06)
(9.14511 -0.239415 -3.1357e-06)
(9.14512 -0.239415 -2.77348e-06)
(9.14512 -0.239415 -2.3305e-06)
(9.14512 -0.239415 -1.85984e-06)
(9.14512 -0.239416 -1.21307e-06)
(9.14506 -0.239413 -3.48056e-07)
(9.15442 -0.438132 -4.00872e-07)
(9.15448 -0.438136 -1.33389e-06)
(9.15448 -0.438136 -2.18719e-06)
(9.15448 -0.438137 -3.02039e-06)
(9.15448 -0.438137 -3.73072e-06)
(9.15448 -0.438137 -4.32539e-06)
(9.15448 -0.438137 -4.77875e-06)
(9.15449 -0.438138 -5.09237e-06)
(9.15449 -0.438138 -5.25988e-06)
(9.15449 -0.438139 -5.28302e-06)
(9.15449 -0.438139 -5.16459e-06)
(9.1545 -0.43814 -4.91287e-06)
(9.1545 -0.438141 -4.53851e-06)
(9.1545 -0.438141 -4.06411e-06)
(9.1545 -0.438142 -3.50539e-06)
(9.1545 -0.438142 -2.92008e-06)
(9.1545 -0.438142 -2.31743e-06)
(9.1545 -0.438143 -1.81011e-06)
(9.1545 -0.438143 -1.10724e-06)
(9.15444 -0.438139 -3.72781e-07)
(9.47451 -0.43157 -4.79487e-07)
(9.47457 -0.431574 -9.16317e-07)
(9.47457 -0.431574 -1.40157e-06)
(9.47457 -0.431574 -2.01876e-06)
(9.47457 -0.431574 -2.54431e-06)
(9.47457 -0.431574 -3.07356e-06)
(9.47457 -0.431574 -3.52907e-06)
(9.47457 -0.431574 -3.93199e-06)
(9.47457 -0.431574 -4.25301e-06)
(9.47457 -0.431574 -4.4881e-06)
(9.47457 -0.431574 -4.62112e-06)
(9.47457 -0.431574 -4.64453e-06)
(9.47457 -0.431574 -4.54601e-06)
(9.47457 -0.431574 -4.32973e-06)
(9.47458 -0.431574 -3.97946e-06)
(9.47458 -0.431574 -3.53462e-06)
(9.47458 -0.431573 -2.94295e-06)
(9.47458 -0.431573 -2.33658e-06)
(9.47458 -0.431573 -1.46084e-06)
(9.47452 -0.431569 -3.51514e-07)
(9.44196 -0.881401 -4.7667e-07)
(9.44202 -0.881408 -1.347e-06)
(9.44202 -0.881408 -2.14169e-06)
(9.44202 -0.881408 -2.99499e-06)
(9.44202 -0.881409 -3.66562e-06)
(9.44202 -0.881409 -4.27354e-06)
(9.44203 -0.88141 -4.73035e-06)
(9.44203 -0.881411 -5.06212e-06)
(9.44203 -0.881411 -5.24477e-06)
(9.44203 -0.881412 -5.28481e-06)
(9.44203 -0.881412 -5.17938e-06)
(9.44204 -0.881413 -4.93961e-06)
(9.44204 -0.881413 -4.57313e-06)
(9.44204 -0.881413 -4.1099e-06)
(9.44204 -0.881413 -3.5493e-06)
(9.44204 -0.881413 -2.96451e-06)
(9.44204 -0.881413 -2.28449e-06)
(9.44205 -0.881413 -1.72523e-06)
(9.44205 -0.881413 -9.36731e-07)
(9.44198 -0.881406 -2.25937e-07)
(9.96611 -0.862102 5.62921e-07)
(9.96617 -0.862108 -1.37242e-06)
(9.96617 -0.862107 -1.78593e-06)
(9.96617 -0.862107 -2.83379e-06)
(9.96617 -0.862107 -3.46237e-06)
(9.96617 -0.862107 -4.13021e-06)
(9.96617 -0.862107 -4.64026e-06)
(9.96617 -0.862107 -5.06059e-06)
(9.96618 -0.862107 -5.34498e-06)
(9.96618 -0.862107 -5.50206e-06)
(9.96618 -0.862107 -5.51704e-06)
(9.96618 -0.862108 -5.39549e-06)
(9.96618 -0.862108 -5.13317e-06)
(9.96618 -0.862109 -4.75695e-06)
(9.96618 -0.862109 -4.24819e-06)
(9.96618 -0.86211 -3.70918e-06)
(9.96619 -0.86211 -2.96694e-06)
(9.96619 -0.86211 -2.53072e-06)
(9.96619 -0.862112 -1.29397e-06)
(9.96613 -0.862106 -1.45656e-06)
(8.78914 0.6615 3.40408e-07)
(8.7892 0.661504 -1.93789e-07)
(8.7892 0.661504 -1.6351e-07)
(8.7892 0.661503 -3.82585e-07)
(8.7892 0.661502 -4.43593e-07)
(8.7892 0.661501 -5.86506e-07)
(8.7892 0.6615 -6.96222e-07)
(8.7892 0.6615 -8.26886e-07)
(8.7892 0.661499 -9.40821e-07)
(8.78919 0.661498 -1.04654e-06)
(8.78919 0.661497 -1.1285e-06)
(8.78919 0.661497 -1.18265e-06)
(8.78919 0.661496 -1.20391e-06)
(8.78919 0.661496 -1.19079e-06)
(8.78919 0.661496 -1.13803e-06)
(8.78919 0.661496 -1.07648e-06)
(8.78919 0.661496 -9.49538e-07)
(8.78919 0.661496 -9.11349e-07)
(8.78919 0.661496 -5.75216e-07)
(8.78914 0.661491 -6.85415e-07)
(8.83348 0.676117 -2.38872e-07)
(8.83354 0.676122 -7.25598e-07)
(8.83353 0.676122 -1.1043e-06)
(8.83353 0.676123 -1.51699e-06)
(8.83353 0.676124 -1.79666e-06)
(8.83353 0.676125 -2.05547e-06)
(8.83353 0.676126 -2.22208e-06)
(8.83353 0.676127 -2.33101e-06)
(8.83353 0.676128 -2.36111e-06)
(8.83353 0.676129 -2.32659e-06)
(8.83353 0.67613 -2.22602e-06)
(8.83353 0.676131 -2.06966e-06)
(8.83353 0.676132 -1.86615e-06)
(8.83353 0.676133 -1.62854e-06)
(8.83353 0.676133 -1.36549e-06)
(8.83353 0.676134 -1.10347e-06)
(8.83353 0.676135 -8.16206e-07)
(8.83353 0.676135 -5.9597e-07)
(8.83353 0.676136 -3.30917e-07)
(8.83347 0.67613 -1.59591e-07)
(8.86623 0.417088 7.4495e-08)
(8.86629 0.417092 3.21051e-07)
(8.86629 0.417092 6.21311e-07)
(8.86629 0.417092 7.91546e-07)
(8.86629 0.417093 9.6376e-07)
(8.86629 0.417093 1.0285e-06)
(8.86629 0.417094 1.04563e-06)
(8.86629 0.417094 9.91691e-07)
(8.86629 0.417095 8.92635e-07)
(8.86629 0.417095 7.56854e-07)
(8.86628 0.417096 6.0313e-07)
(8.86628 0.417096 4.46395e-07)
(8.86628 0.417097 2.96742e-07)
(8.86628 0.417097 1.67916e-07)
(8.86628 0.417097 6.58871e-08)
(8.86628 0.417098 -1.11321e-08)
(8.86628 0.417098 -4.59474e-08)
(8.86628 0.417098 -8.54569e-08)
(8.86628 0.417099 -5.99818e-08)
(8.86622 0.417095 -6.12174e-08)
(8.77791 0.415141 -1.54444e-07)
(8.77797 0.415144 -4.60761e-07)
(8.77797 0.415144 -6.88345e-07)
(8.77797 0.415144 -9.25603e-07)
(8.77797 0.415144 -1.10136e-06)
(8.77797 0.415144 -1.2532e-06)
(8.77797 0.415144 -1.35168e-06)
(8.77797 0.415144 -1.41194e-06)
(8.77797 0.415144 -1.42304e-06)
(8.77797 0.415144 -1.39082e-06)
(8.77797 0.415145 -1.31588e-06)
(8.77796 0.415145 -1.20422e-06)
(8.77796 0.415145 -1.06191e-06)
(8.77796 0.415145 -8.96554e-07)
(8.77796 0.415145 -7.13377e-07)
(8.77796 0.415146 -5.27181e-07)
(8.77796 0.415146 -3.31027e-07)
(8.77796 0.415146 -1.72505e-07)
(8.77796 0.415146 -4.44219e-08)
(8.77791 0.415143 -3.74803e-08)
(8.79346 0.240753 8.17941e-08)
(8.79352 0.240756 3.45109e-07)
(8.79352 0.240756 6.2706e-07)
(8.79352 0.240756 8.38804e-07)
(8.79352 0.240757 1.01633e-06)
(8.79352 0.240757 1.12509e-06)
(8.79352 0.240758 1.18151e-06)
(8.79352 0.240758 1.17995e-06)
(8.79352 0.240759 1.13393e-06)
(8.79352 0.24076 1.05213e-06)
(8.79352 0.24076 9.47537e-07)
(8.79352 0.240761 8.33011e-07)
(8.79352 0.240761 7.16788e-07)
(8.79352 0.240762 6.10384e-07)
(8.79352 0.240762 5.17911e-07)
(8.79352 0.240763 4.47914e-07)
(8.79352 0.240763 3.9019e-07)
(8.79352 0.240763 3.32652e-07)
(8.79351 0.240763 2.5036e-07)
(8.79346 0.240761 8.22737e-08)
(8.71513 0.232257 -5.06788e-08)
(8.71518 0.232259 -1.27126e-07)
(8.71518 0.232259 -1.77757e-07)
(8.71518 0.232259 -2.31516e-07)
(8.71518 0.232258 -2.55654e-07)
(8.71518 0.232258 -2.81693e-07)
(8.71518 0.232257 -2.90425e-07)
(8.71518 0.232257 -2.91608e-07)
(8.71518 0.232256 -2.78387e-07)
(8.71518 0.232256 -2.53367e-07)
(8.71518 0.232256 -2.15873e-07)
(8.71518 0.232255 -1.6776e-07)
(8.71518 0.232255 -1.10335e-07)
(8.71518 0.232254 -4.67725e-08)
(8.71518 0.232254 2.53437e-08)
(8.71518 0.232254 9.35859e-08)
(8.71518 0.232254 1.68807e-07)
(8.71518 0.232253 2.00033e-07)
(8.71518 0.232253 1.77245e-07)
(8.71512 0.232251 6.04342e-08)
(8.72137 0.108041 7.27819e-09)
(8.72143 0.108042 1.21852e-07)
(8.72143 0.108042 2.3616e-07)
(8.72143 0.108042 3.20429e-07)
(8.72143 0.108042 3.88949e-07)
(8.72143 0.108042 4.28428e-07)
(8.72143 0.108042 4.43425e-07)
(8.72143 0.108042 4.31988e-07)
(8.72143 0.108042 3.98756e-07)
(8.72143 0.108042 3.48778e-07)
(8.72143 0.108043 2.87507e-07)
(8.72143 0.108043 2.21754e-07)
(8.72143 0.108043 1.58507e-07)
(8.72143 0.108043 1.04063e-07)
(8.72143 0.108043 6.56844e-08)
(8.72143 0.108043 4.53823e-08)
(8.72143 0.108043 4.49946e-08)
(8.72143 0.108043 4.99661e-08)
(8.72143 0.108043 5.25007e-08)
(8.72137 0.108042 3.21088e-08)
(8.68418 0.0940852 -2.1978e-08)
(8.68424 0.094086 -6.94813e-08)
(8.68424 0.0940857 -9.4115e-08)
(8.68424 0.0940854 -1.17584e-07)
(8.68424 0.094085 -1.16886e-07)
(8.68424 0.0940846 -1.1319e-07)
(8.68424 0.0940841 -9.7082e-08)
(8.68424 0.0940836 -7.74336e-08)
(8.68424 0.094083 -5.36613e-08)
(8.68424 0.0940825 -2.88347e-08)
(8.68424 0.0940819 -4.80129e-09)
(8.68424 0.0940814 1.8115e-08)
(8.68424 0.0940809 4.13158e-08)
(8.68424 0.0940804 6.22593e-08)
(8.68424 0.0940799 8.88628e-08)
(8.68424 0.0940795 1.07533e-07)
(8.68424 0.0940791 1.34921e-07)
(8.68424 0.0940787 1.27285e-07)
(8.68424 0.0940784 1.15367e-07)
(8.68418 0.0940775 4.37311e-08)
(8.68947 0.00159574 -7.43268e-08)
(8.68953 0.00159557 -1.38312e-07)
(8.68953 0.00159522 -2.06746e-07)
(8.68953 0.00159473 -2.75323e-07)
(8.68953 0.00159408 -3.32881e-07)
(8.68953 0.00159332 -3.84941e-07)
(8.68953 0.00159247 -4.30537e-07)
(8.68953 0.00159154 -4.74432e-07)
(8.68953 0.00159056 -5.19285e-07)
(8.68953 0.00158956 -5.65134e-07)
(8.68953 0.00158856 -6.12314e-07)
(8.68953 0.00158757 -6.57968e-07)
(8.68953 0.00158662 -6.94854e-07)
(8.68953 0.00158573 -7.19152e-07)
(8.68953 0.00158492 -7.15918e-07)
(8.68953 0.0015842 -6.90616e-07)
(8.68953 0.00158358 -6.1551e-07)
(8.68953 0.00158308 -5.19893e-07)
(8.68953 0.00158271 -3.39199e-07)
(8.68947 0.00158257 -8.75505e-08)
(8.68934 -0.0236493 -1.79028e-07)
(8.68939 -0.0236498 -5.12243e-07)
(8.68939 -0.0236504 -8.14294e-07)
(8.68939 -0.0236512 -1.0872e-06)
(8.68939 -0.0236522 -1.31122e-06)
(8.68939 -0.0236534 -1.49039e-06)
(8.68939 -0.0236548 -1.61869e-06)
(8.6894 -0.0236562 -1.70211e-06)
(8.6894 -0.0236577 -1.7433e-06)
(8.6894 -0.0236592 -1.74525e-06)
(8.6894 -0.0236606 -1.71137e-06)
(8.6894 -0.023662 -1.64302e-06)
(8.6894 -0.0236633 -1.53856e-06)
(8.6894 -0.0236645 -1.40437e-06)
(8.6894 -0.0236656 -1.2343e-06)
(8.6894 -0.0236664 -1.05232e-06)
(8.6894 -0.0236672 -8.33843e-07)
(8.6894 -0.0236677 -6.26694e-07)
(8.6894 -0.0236681 -3.30367e-07)
(8.68934 -0.0236679 -6.59007e-08)
(8.70114 -0.104189 -2.83061e-07)
(8.7012 -0.10419 -8.39769e-07)
(8.7012 -0.104191 -1.35684e-06)
(8.7012 -0.104191 -1.82494e-06)
(8.7012 -0.104191 -2.21789e-06)
(8.7012 -0.104192 -2.53751e-06)
(8.70119 -0.104192 -2.77626e-06)
(8.70119 -0.104192 -2.94002e-06)
(8.70119 -0.104193 -3.03327e-06)
(8.70119 -0.104194 -3.0607e-06)
(8.70119 -0.104194 -3.02787e-06)
(8.70119 -0.104195 -2.93861e-06)
(8.70119 -0.104195 -2.79265e-06)
(8.70119 -0.104196 -2.59566e-06)
(8.70119 -0.104196 -2.34026e-06)
(8.70119 -0.104197 -2.04813e-06)
(8.70119 -0.104197 -1.68518e-06)
(8.70119 -0.104198 -1.30359e-06)
(8.70119 -0.104198 -7.79999e-07)
(8.70114 -0.104197 -2.26482e-07)
(8.7371 -0.13186 -2.84266e-07)
(8.73716 -0.131862 -7.43108e-07)
(8.73716 -0.131862 -1.17584e-06)
(8.73716 -0.131862 -1.57305e-06)
(8.73716 -0.131863 -1.91687e-06)
(8.73716 -0.131864 -2.20337e-06)
(8.73716 -0.131865 -2.42841e-06)
(8.73716 -0.131866 -2.59384e-06)
(8.73716 -0.131867 -2.70195e-06)
(8.73716 -0.131868 -2.75323e-06)
(8.73716 -0.131869 -2.74801e-06)
(8.73716 -0.13187 -2.68521e-06)
(8.73716 -0.131871 -2.55924e-06)
(8.73716 -0.131872 -2.37524e-06)
(8.73716 -0.131872 -2.12231e-06)
(8.73716 -0.131873 -1.82881e-06)
(8.73716 -0.131873 -1.46644e-06)
(8.73716 -0.131873 -1.09647e-06)
(8.73716 -0.131874 -6.05654e-07)
(8.7371 -0.131872 -1.1991e-07)
(8.7528 -0.232798 -4.23046e-07)
(8.75286 -0.232801 -1.31856e-06)
(8.75286 -0.232801 -2.13348e-06)
(8.75286 -0.232801 -2.87238e-06)
(8.75286 -0.232801 -3.494e-06)
(8.75286 -0.232801 -4.00564e-06)
(8.75286 -0.232802 -4.38941e-06)
(8.75286 -0.232802 -4.65e-06)
(8.75286 -0.232802 -4.78749e-06)
(8.75286 -0.232803 -4.808e-06)
(8.75286 -0.232803 -4.7181e-06)
(8.75286 -0.232804 -4.52425e-06)
(8.75286 -0.232804 -4.23177e-06)
(8.75286 -0.232804 -3.85198e-06)
(8.75286 -0.232805 -3.38663e-06)
(8.75286 -0.232805 -2.86812e-06)
(8.75286 -0.232805 -2.27006e-06)
(8.75286 -0.232806 -1.6773e-06)
(8.75286 -0.232806 -9.50287e-07)
(8.7528 -0.232804 -2.80109e-07)
(8.83014 -0.252513 -3.56812e-07)
(8.8302 -0.252515 -8.86544e-07)
(8.8302 -0.252516 -1.38969e-06)
(8.8302 -0.252516 -1.86953e-06)
(8.8302 -0.252516 -2.30079e-06)
(8.8302 -0.252516 -2.6752e-06)
(8.8302 -0.252517 -2.98458e-06)
(8.8302 -0.252517 -3.22807e-06)
(8.8302 -0.252518 -3.4018e-06)
(8.8302 -0.252518 -3.50285e-06)
(8.8302 -0.252519 -3.52613e-06)
(8.8302 -0.252519 -3.46839e-06)
(8.8302 -0.25252 -3.31953e-06)
(8.8302 -0.25252 -3.08279e-06)
(8.8302 -0.25252 -2.74866e-06)
(8.8302 -0.25252 -2.34787e-06)
(8.8302 -0.25252 -1.86069e-06)
(8.8302 -0.25252 -1.35621e-06)
(8.8302 -0.25252 -7.47769e-07)
(8.83014 -0.252518 -1.50508e-07)
(8.84135 -0.405273 -4.8742e-07)
(8.8414 -0.405277 -1.55093e-06)
(8.8414 -0.405277 -2.50227e-06)
(8.8414 -0.405277 -3.37259e-06)
(8.8414 -0.405277 -4.09596e-06)
(8.8414 -0.405278 -4.70568e-06)
(8.8414 -0.405278 -5.16305e-06)
(8.8414 -0.405278 -5.47271e-06)
(8.8414 -0.405279 -5.62892e-06)
(8.8414 -0.405279 -5.63783e-06)
(8.8414 -0.40528 -5.5055e-06)
(8.8414 -0.40528 -5.24176e-06)
(8.8414 -0.405281 -4.85695e-06)
(8.8414 -0.405281 -4.3666e-06)
(8.8414 -0.405282 -3.78325e-06)
(8.8414 -0.405282 -3.14585e-06)
(8.8414 -0.405283 -2.42793e-06)
(8.8414 -0.405283 -1.75243e-06)
(8.8414 -0.405283 -9.81498e-07)
(8.84135 -0.40528 -3.09264e-07)
(8.96113 -0.411353 -4.00685e-07)
(8.96119 -0.411357 -9.85386e-07)
(8.96119 -0.411357 -1.53096e-06)
(8.96119 -0.411357 -2.10874e-06)
(8.96119 -0.411357 -2.64651e-06)
(8.96119 -0.411358 -3.13517e-06)
(8.96119 -0.411358 -3.55395e-06)
(8.96119 -0.411358 -3.90656e-06)
(8.96119 -0.411359 -4.176e-06)
(8.96119 -0.411359 -4.35855e-06)
(8.96119 -0.411359 -4.4403e-06)
(8.96119 -0.41136 -4.4164e-06)
(8.96119 -0.41136 -4.27202e-06)
(8.96119 -0.41136 -4.01171e-06)
(8.96119 -0.41136 -3.6267e-06)
(8.96119 -0.41136 -3.14991e-06)
(8.96119 -0.411361 -2.57502e-06)
(8.96119 -0.411361 -1.95452e-06)
(8.96119 -0.411361 -1.1652e-06)
(8.96113 -0.411357 -3.15043e-07)
(8.95438 -0.649093 -5.45282e-07)
(8.95444 -0.649099 -1.74747e-06)
(8.95444 -0.649099 -2.76334e-06)
(8.95444 -0.649099 -3.7486e-06)
(8.95444 -0.649099 -4.58622e-06)
(8.95444 -0.6491 -5.2853e-06)
(8.95444 -0.6491 -5.80385e-06)
(8.95444 -0.6491 -6.15226e-06)
(8.95444 -0.649101 -6.31693e-06)
(8.95444 -0.649101 -6.30744e-06)
(8.95444 -0.649102 -6.1303e-06)
(8.95444 -0.649102 -5.80115e-06)
(8.95444 -0.649103 -5.33583e-06)
(8.95444 -0.649104 -4.76313e-06)
(8.95444 -0.649104 -4.09856e-06)
(8.95444 -0.649105 -3.39885e-06)
(8.95444 -0.649105 -2.64216e-06)
(8.95444 -0.649106 -1.90563e-06)
(8.95444 -0.649106 -1.03724e-06)
(8.95438 -0.649101 -3.4534e-07)
(9.07407 -0.635559 -4.27676e-07)
(9.07413 -0.635565 -1.08358e-06)
(9.07413 -0.635565 -1.69227e-06)
(9.07413 -0.635565 -2.41231e-06)
(9.07413 -0.635565 -3.01608e-06)
(9.07413 -0.635565 -3.63002e-06)
(9.07413 -0.635565 -4.15321e-06)
(9.07413 -0.635565 -4.62119e-06)
(9.07413 -0.635565 -4.99165e-06)
(9.07413 -0.635565 -5.26501e-06)
(9.07413 -0.635565 -5.41688e-06)
(9.07413 -0.635565 -5.44528e-06)
(9.07413 -0.635565 -5.32649e-06)
(9.07413 -0.635565 -5.07177e-06)
(9.07413 -0.635565 -4.64961e-06)
(9.07413 -0.635564 -4.12156e-06)
(9.07413 -0.635564 -3.41333e-06)
(9.07413 -0.635564 -2.67946e-06)
(9.07413 -0.635564 -1.69153e-06)
(9.07407 -0.635558 -5.49139e-07)
(9.02841 -1.00374 -5.57396e-07)
(9.02847 -1.00374 -1.8112e-06)
(9.02847 -1.00374 -2.88209e-06)
(9.02847 -1.00374 -3.96393e-06)
(9.02847 -1.00374 -4.79037e-06)
(9.02847 -1.00375 -5.51038e-06)
(9.02847 -1.00375 -6.01126e-06)
(9.02847 -1.00375 -6.33602e-06)
(9.02847 -1.00375 -6.45188e-06)
(9.02847 -1.00375 -6.37839e-06)
(9.02847 -1.00375 -6.11983e-06)
(9.02847 -1.00375 -5.70299e-06)
(9.02847 -1.00375 -5.14225e-06)
(9.02847 -1.00375 -4.48943e-06)
(9.02847 -1.00375 -3.74493e-06)
(9.02847 -1.00375 -3.01055e-06)
(9.02847 -1.00375 -2.19545e-06)
(9.02847 -1.00375 -1.55351e-06)
(9.02847 -1.00376 -6.8256e-07)
(9.02841 -1.00375 -1.51074e-07)
(8.93592 -0.950379 -6.17222e-07)
(8.93597 -0.950386 -1.49545e-06)
(8.93597 -0.950385 -2.325e-06)
(8.93597 -0.950384 -3.42921e-06)
(8.93597 -0.950384 -4.22918e-06)
(8.93597 -0.950384 -5.04438e-06)
(8.93597 -0.950383 -5.69468e-06)
(8.93597 -0.950383 -6.25088e-06)
(8.93597 -0.950383 -6.64944e-06)
(8.93597 -0.950384 -6.89934e-06)
(8.93597 -0.950384 -6.97976e-06)
(8.93597 -0.950385 -6.90279e-06)
(8.93597 -0.950385 -6.64998e-06)
(8.93597 -0.950386 -6.25228e-06)
(8.93597 -0.950388 -5.67649e-06)
(8.93597 -0.950389 -5.02856e-06)
(8.93597 -0.95039 -4.15145e-06)
(8.93597 -0.950391 -3.38227e-06)
(8.93597 -0.950393 -2.12875e-06)
(8.93592 -0.950388 -6.54527e-07)
(8.88806 0.725393 2.13611e-07)
(8.88812 0.725399 -5.02001e-07)
(8.88812 0.725398 -2.11256e-07)
(8.88812 0.725398 -3.66283e-07)
(8.88812 0.725398 -3.53136e-07)
(8.88812 0.725397 -4.6005e-07)
(8.88812 0.725396 -5.24562e-07)
(8.88812 0.725396 -6.16634e-07)
(8.88812 0.725395 -6.90439e-07)
(8.88812 0.725395 -7.56212e-07)
(8.88812 0.725394 -8.00782e-07)
(8.88812 0.725394 -8.23494e-07)
(8.88812 0.725393 -8.18142e-07)
(8.88811 0.725393 -7.92122e-07)
(8.88811 0.725392 -7.31214e-07)
(8.88811 0.725392 -6.83464e-07)
(8.88811 0.725392 -5.50667e-07)
(8.88811 0.725392 -5.37246e-07)
(8.88811 0.725392 -4.7314e-08)
(8.88806 0.725386 -4.82346e-07)
(8.75183 0.738683 -4.37981e-07)
(8.75189 0.738688 -6.82835e-07)
(8.75189 0.738689 -8.27772e-07)
(8.75189 0.738689 -1.07982e-06)
(8.75189 0.73869 -1.24967e-06)
(8.75189 0.738691 -1.44317e-06)
(8.75189 0.738692 -1.576e-06)
(8.75189 0.738692 -1.68364e-06)
(8.75189 0.738693 -1.73667e-06)
(8.75188 0.738694 -1.74592e-06)
(8.75188 0.738695 -1.70813e-06)
(8.75188 0.738696 -1.62831e-06)
(8.75188 0.738697 -1.5077e-06)
(8.75188 0.738698 -1.35763e-06)
(8.75188 0.738698 -1.17464e-06)
(8.75188 0.738699 -9.91836e-07)
(8.75188 0.7387 -7.60392e-07)
(8.75188 0.7387 -5.58071e-07)
(8.75188 0.7387 -2.51381e-07)
(8.75182 0.738695 4.78542e-08)
(8.78677 0.458353 -1.42683e-07)
(8.78683 0.458356 2.02228e-07)
(8.78683 0.458356 5.10919e-07)
(8.78683 0.458356 6.95626e-07)
(8.78683 0.458357 8.94302e-07)
(8.78683 0.458357 9.78618e-07)
(8.78683 0.458357 1.02659e-06)
(8.78683 0.458357 1.00851e-06)
(8.78683 0.458358 9.51437e-07)
(8.78683 0.458358 8.61295e-07)
(8.78683 0.458359 7.57366e-07)
(8.78683 0.458359 6.503e-07)
(8.78682 0.458359 5.4578e-07)
(8.78682 0.45836 4.52952e-07)
(8.78682 0.45836 3.78275e-07)
(8.78682 0.45836 3.13919e-07)
(8.78682 0.458361 2.9226e-07)
(8.78682 0.458361 2.30371e-07)
(8.78682 0.458361 1.95296e-07)
(8.78676 0.458358 1.97779e-07)
(8.68859 0.459374 -1.98682e-07)
(8.68865 0.459378 -3.94912e-07)
(8.68865 0.459378 -5.38765e-07)
(8.68865 0.459378 -7.04679e-07)
(8.68865 0.459378 -8.33629e-07)
(8.68865 0.459378 -9.53939e-07)
(8.68865 0.459379 -1.03719e-06)
(8.68865 0.459379 -1.0959e-06)
(8.68865 0.459379 -1.11673e-06)
(8.68865 0.45938 -1.10223e-06)
(8.68865 0.45938 -1.05111e-06)
(8.68865 0.45938 -9.68044e-07)
(8.68865 0.459381 -8.56347e-07)
(8.68865 0.459381 -7.23608e-07)
(8.68865 0.459382 -5.67989e-07)
(8.68865 0.459382 -4.05023e-07)
(8.68865 0.459382 -2.18636e-07)
(8.68865 0.459382 -4.99582e-08)
(8.68865 0.459383 6.43208e-08)
(8.68859 0.45938 5.94516e-08)
(8.70554 0.265363 5.70274e-08)
(8.7056 0.265365 4.17924e-07)
(8.7056 0.265366 7.7054e-07)
(8.7056 0.265366 1.05502e-06)
(8.7056 0.265366 1.29348e-06)
(8.7056 0.265367 1.45604e-06)
(8.7056 0.265367 1.55772e-06)
(8.7056 0.265368 1.59211e-06)
(8.7056 0.265368 1.57411e-06)
(8.7056 0.265369 1.51387e-06)
(8.7056 0.26537 1.42311e-06)
(8.7056 0.26537 1.31417e-06)
(8.7056 0.265371 1.19518e-06)
(8.7056 0.265371 1.0774e-06)
(8.70559 0.265372 9.65207e-07)
(8.70559 0.265372 8.69687e-07)
(8.70559 0.265372 7.79793e-07)
(8.70559 0.265373 6.71517e-07)
(8.70559 0.265373 4.97565e-07)
(8.70554 0.265371 2.17408e-07)
(8.6429 0.257812 -5.05097e-08)
(8.64296 0.257814 -7.47149e-08)
(8.64296 0.257814 -8.43385e-08)