/*--------------------------------*- C++ -*----------------------------------*\
| =========                 |                                                 |
| \\      /  F ield         | OpenFOAM: The Open Source CFD Toolbox           |
|  \\    /   O peration     | Version:  2212                                  |
|   \\  /    A nd           | Website:  www.openfoam.com                      |
|    \\/     M anipulation  |                                                 |
\*---------------------------------------------------------------------------*/
FoamFile
{
    version     2.0;
    format      ascii;
    arch        "LSB;label=32;scalar=64";
    class       volScalarField;
    location    "0.0959";
    object      s;
}
// * * * * * * * * * * * * * * * * * * * * * * * * * * * * * * * * * * * * * //

dimensions      [0 0 0 0 0 0 0];

internalField   nonuniform List<scalar> 
24240
(
8.63461e-121
8.63561e-121
8.87263e-121
8.41511e-121
8.74516e-121
8.68633e-121
8.67748e-121
8.4466e-121
8.42615e-121
8.82942e-121
8.40502e-121
8.86534e-121
8.39861e-121
8.7319e-121
8.33639e-121
8.79831e-121
8.22362e-121
8.51099e-121
8.67395e-121
8.12079e-121
1.08444e-117
1.08377e-117
1.11382e-117
1.05625e-117
1.09772e-117
1.09022e-117
1.08902e-117
1.0598e-117
1.0576e-117
1.10793e-117
1.05512e-117
1.11261e-117
1.05426e-117
1.09596e-117
1.0467e-117
1.10449e-117
1.03239e-117
1.06819e-117
1.08866e-117
1.01932e-117
7.93674e-115
7.92557e-115
8.14857e-115
7.72566e-115
8.02964e-115
7.97427e-115
7.96431e-115
7.74846e-115
7.73451e-115
8.10202e-115
7.71785e-115
8.13708e-115
7.71151e-115
8.01632e-115
7.65858e-115
8.07997e-115
7.55129e-115
7.81239e-115
7.96265e-115
7.45409e-115
3.30422e-112
3.29676e-112
3.39136e-112
3.21431e-112
3.34122e-112
3.31812e-112
3.31322e-112
3.22238e-112
3.21722e-112
3.37057e-112
3.21106e-112
3.38538e-112
3.20859e-112
3.33564e-112
3.18774e-112
3.36264e-112
3.14134e-112
3.25022e-112
3.31316e-112
3.10008e-112
1.03672e-109
1.03336e-109
1.06389e-109
1.0078e-109
1.04784e-109
1.04065e-109
1.03871e-109
1.00981e-109
1.00824e-109
1.05688e-109
1.00663e-109
1.0615e-109
1.006e-109
1.04611e-109
9.99953e-110
1.05472e-109
9.84436e-110
1.019e-109
1.03899e-109
9.71136e-110
2.26216e-107
2.25222e-107
2.32168e-107
2.19734e-107
2.2856e-107
2.27027e-107
2.26468e-107
2.20041e-107
2.19666e-107
2.30529e-107
2.1941e-107
2.31506e-107
2.19338e-107
2.28208e-107
2.18167e-107
2.30114e-107
2.14437e-107
2.22176e-107
2.26632e-107
2.11419e-107
3.51251e-105
3.49156e-105
3.60722e-105
3.40848e-105
3.54826e-105
3.52575e-105
3.5132e-105
3.4105e-105
3.40254e-105
3.57972e-105
3.40091e-105
3.59346e-105
3.40192e-105
3.54373e-105
3.38743e-105
3.57358e-105
3.31955e-105
3.44661e-105
3.51863e-105
3.26967e-105
3.57028e-103
3.54019e-103
3.6733e-103
3.45961e-103
3.60754e-103
3.58757e-103
3.56703e-103
3.4573e-103
3.44347e-103
3.6427e-103
3.44626e-103
3.65301e-103
3.45198e-103
3.60548e-103
3.44423e-103
3.63571e-103
3.35437e-103
3.49963e-103
3.57878e-103
3.2981e-103
1.20423e-101
1.20118e-101
1.22099e-101
1.1676e-101
1.20879e-101
1.19423e-101
1.19984e-101
1.17089e-101
1.17812e-101
1.20987e-101
1.17388e-101
1.22126e-101
1.16717e-101
1.20236e-101
1.15439e-101
1.21527e-101
1.16153e-101
1.17881e-101
1.19495e-101
1.15114e-101
1.22752e-101
1.2351e-101
1.22503e-101
1.19323e-101
1.2243e-101
1.20137e-101
1.22219e-101
1.20258e-101
1.22396e-101
1.21431e-101
1.2123e-101
1.2353e-101
1.19521e-101
1.211e-101
1.16954e-101
1.22691e-101
1.22186e-101
1.20158e-101
1.20574e-101
1.22174e-101
1.73673e-101
1.7745e-101
1.76595e-101
1.76004e-101
1.73785e-101
1.75903e-101
1.79143e-101
1.75534e-101
1.79886e-101
1.81108e-101
1.78283e-101
1.81263e-101
1.76756e-101
1.7456e-101
1.73161e-101
1.76741e-101
1.75216e-101
1.74496e-101
1.75122e-101
1.77142e-101
2.12031e-101
2.14459e-101
2.14728e-101
2.13715e-101
2.10253e-101
2.05861e-101
2.0937e-101
2.05177e-101
2.11688e-101
2.19853e-101
2.17705e-101
2.10226e-101
2.15553e-101
2.13261e-101
2.12271e-101
2.14736e-101
2.0499e-101
2.14847e-101
2.11243e-101
2.11436e-101
2.38186e-101
2.46946e-101
2.42666e-101
2.42104e-101
2.41243e-101
2.45025e-101
2.53022e-101
2.41849e-101
2.43464e-101
2.41794e-101
2.42428e-101
2.41652e-101
2.41409e-101
2.3926e-101
2.34497e-101
2.4091e-101
2.42983e-101
2.37647e-101
2.36278e-101
2.38323e-101
2.67017e-101
2.70068e-101
2.75238e-101
2.76934e-101
2.73156e-101
2.79163e-101
2.72957e-101
2.77017e-101
2.76399e-101
2.62668e-101
2.67327e-101
2.65934e-101
2.68815e-101
2.62171e-101
2.63688e-101
2.64165e-101
2.65939e-101
2.69244e-101
2.67165e-101
2.71465e-101
2.72351e-101
2.7551e-101
2.78958e-101
2.79286e-101
2.74735e-101
2.75415e-101
2.77143e-101
2.82125e-101
2.72873e-101
2.77295e-101
2.73905e-101
2.75064e-101
2.81735e-101
2.75554e-101
2.71641e-101
2.85944e-101
2.73866e-101
2.7234e-101
2.7591e-101
2.82492e-101
2.84159e-101
2.7985e-101
2.85878e-101
2.79901e-101
2.84006e-101
2.85025e-101
2.88666e-101
2.84643e-101
2.76248e-101
2.79678e-101
2.7968e-101
2.89949e-101
2.83905e-101
2.89413e-101
2.88794e-101
2.88578e-101
2.86481e-101
2.83677e-101
2.81421e-101
2.83166e-101
2.56781e-101
2.60922e-101
2.5756e-101
2.69189e-101
2.61808e-101
2.69382e-101
2.64533e-101
2.6406e-101
2.61848e-101
2.62549e-101
2.60388e-101
2.67154e-101
2.64407e-101
2.7104e-101
2.60862e-101
2.68318e-101
2.66528e-101
2.55702e-101
2.67886e-101
2.65348e-101
2.41252e-101
2.53535e-101
2.48428e-101
2.48977e-101
2.44244e-101
2.57131e-101
2.53472e-101
2.52174e-101
2.51392e-101
2.45005e-101
2.51436e-101
2.57001e-101
2.48198e-101
2.6403e-101
2.5278e-101
2.57973e-101
2.61251e-101
2.5172e-101
2.57621e-101
2.58587e-101
2.11842e-101
2.11114e-101
2.08259e-101
2.127e-101
2.17367e-101
2.15999e-101
2.12519e-101
2.07931e-101
2.16662e-101
2.09197e-101
2.15497e-101
2.15318e-101
2.12287e-101
2.1711e-101
2.18284e-101
2.20462e-101
2.13676e-101
2.20019e-101
2.16935e-101
2.24018e-101
1.64514e-101
1.66502e-101
1.6478e-101
1.63957e-101
1.69132e-101
1.6644e-101
1.71873e-101
1.66457e-101
1.72005e-101
1.7171e-101
1.68668e-101
1.73925e-101
1.66749e-101
1.74671e-101
1.68328e-101
1.67739e-101
1.71614e-101
1.73798e-101
1.70237e-101
1.76869e-101
5.72551e-119
5.72359e-119
5.87848e-119
5.57764e-119
5.79487e-119
5.75469e-119
5.75026e-119
5.59718e-119
5.58686e-119
5.84802e-119
5.57296e-119
5.87353e-119
5.56736e-119
5.78519e-119
5.52588e-119
5.83034e-119
5.45509e-119
5.64022e-119
5.74674e-119
5.38739e-119
8.33751e-116
8.32848e-116
8.55651e-116
8.11741e-116
8.43392e-116
8.37477e-116
8.36744e-116
8.14267e-116
8.13026e-116
8.50868e-116
8.11144e-116
8.54692e-116
8.10302e-116
8.4193e-116
8.04479e-116
8.48639e-116
7.94001e-116
8.20782e-116
8.3631e-116
7.8401e-116
6.57948e-113
6.56708e-113
6.74977e-113
6.40188e-113
6.65204e-113
6.60511e-113
6.59819e-113
6.41908e-113
6.41092e-113
6.70922e-113
6.39742e-113
6.73999e-113
6.39085e-113
6.64025e-113
6.34693e-113
6.69419e-113
6.26179e-113
6.47267e-113
6.59566e-113
6.18165e-113
2.90659e-110
2.89863e-110
2.98091e-110
2.82637e-110
2.93716e-110
2.91645e-110
2.9127e-110
2.8327e-110
2.82961e-110
2.96179e-110
2.82437e-110
2.97553e-110
2.82164e-110
2.93197e-110
2.80329e-110
2.95623e-110
2.76408e-110
2.85747e-110
2.91215e-110
2.72797e-110
9.33847e-108
9.30368e-108
9.57583e-108
9.07442e-108
9.43234e-108
9.36648e-108
9.35072e-108
9.08995e-108
9.08034e-108
9.51011e-108
9.06648e-108
9.55395e-108
9.05919e-108
9.41601e-108
9.00475e-108
9.49515e-108
8.86977e-108
9.17373e-108
9.35173e-108
8.7505e-108
2.08898e-105
2.07875e-105
2.14229e-105
2.02833e-105
2.1092e-105
2.09484e-105
2.09002e-105
2.03057e-105
2.02804e-105
2.12661e-105
2.02587e-105
2.13609e-105
2.02488e-105
2.10582e-105
2.01409e-105
2.12377e-105
1.98062e-105
2.05052e-105
2.09122e-105
1.95284e-105
3.21987e-103
3.19901e-103
3.30412e-103
3.1233e-103
3.25041e-103
3.22951e-103
3.21849e-103
3.12419e-103
3.11827e-103
3.27811e-103
3.11712e-103
3.29139e-103
3.1176e-103
3.24611e-103
3.10438e-103
3.27406e-103
3.04354e-103
3.1577e-103
3.22302e-103
2.99793e-103
3.24505e-101
3.21595e-101
3.33587e-101
3.14317e-101
3.27649e-101
3.25801e-101
3.23989e-101
3.14005e-101
3.12884e-101
3.30726e-101
3.13179e-101
3.31738e-101
3.13656e-101
3.27445e-101
3.12954e-101
3.30265e-101
3.04938e-101
3.17897e-101
3.25014e-101
2.99833e-101
1.06391e-99
1.06073e-99
1.07823e-99
1.03138e-99
1.06744e-99
1.0548e-99
1.05973e-99
1.03395e-99
1.04062e-99
1.06836e-99
1.037e-99
1.07843e-99
1.03107e-99
1.06196e-99
1.01993e-99
1.07333e-99
1.02607e-99
1.04111e-99
1.05528e-99
1.01689e-99
1.0786e-99
1.08508e-99
1.07629e-99
1.04871e-99
1.07559e-99
1.05595e-99
1.07421e-99
1.0567e-99
1.07574e-99
1.06704e-99
1.06551e-99
1.08533e-99
1.05049e-99
1.06434e-99
1.02807e-99
1.07793e-99
1.07361e-99
1.05584e-99
1.05945e-99
1.07364e-99
1.52587e-99
1.55864e-99
1.55169e-99
1.5458e-99
1.52668e-99
1.54502e-99
1.57353e-99
1.54147e-99
1.58017e-99
1.58998e-99
1.56618e-99
1.59156e-99
1.55244e-99
1.53332e-99
1.52082e-99
1.5522e-99
1.53886e-99
1.53268e-99
1.53849e-99
1.55602e-99
1.85209e-99
1.87321e-99
1.87579e-99
1.86634e-99
1.83657e-99
1.79816e-99
1.82934e-99
1.79246e-99
1.84968e-99
1.92013e-99
1.90162e-99
1.83619e-99
1.88338e-99
1.86281e-99
1.85448e-99
1.87569e-99
1.79058e-99
1.87649e-99
1.84474e-99
1.84687e-99
2.07833e-99
2.15394e-99
2.11734e-99
2.11166e-99
2.10516e-99
2.13767e-99
2.20753e-99
2.10983e-99
2.12394e-99
2.10903e-99
2.11478e-99
2.10822e-99
2.10676e-99
2.08797e-99
2.04658e-99
2.10194e-99
2.12002e-99
2.07358e-99
2.0617e-99
2.07944e-99
2.30445e-99
2.33016e-99
2.37421e-99
2.38966e-99
2.35721e-99
2.40856e-99
2.35515e-99
2.39029e-99
2.38474e-99
2.26623e-99
2.30658e-99
2.29492e-99
2.31985e-99
2.26276e-99
2.2753e-99
2.27989e-99
2.29454e-99
2.32351e-99
2.30546e-99
2.34292e-99
2.34915e-99
2.37569e-99
2.40591e-99
2.40792e-99
2.36894e-99
2.37555e-99
2.39057e-99
2.433e-99
2.35339e-99
2.39151e-99
2.363e-99
2.37264e-99
2.42924e-99
2.3767e-99
2.34348e-99
2.46572e-99
2.36238e-99
2.34866e-99
2.37957e-99
2.43514e-99
2.40971e-99
2.3723e-99
2.42312e-99
2.37316e-99
2.40817e-99
2.41726e-99
2.44734e-99
2.41342e-99
2.3425e-99
2.37136e-99
2.37065e-99
2.45809e-99
2.4074e-99
2.45429e-99
2.44845e-99
2.44708e-99
2.42864e-99
2.40589e-99
2.38612e-99
2.40096e-99
2.18127e-99
2.216e-99
2.18767e-99
2.28649e-99
2.22349e-99
2.28767e-99
2.24616e-99
2.24299e-99
2.22381e-99
2.22962e-99
2.21188e-99
2.2688e-99
2.24479e-99
2.30188e-99
2.21504e-99
2.27846e-99
2.26315e-99
2.17154e-99
2.2746e-99
2.25374e-99
2.00589e-99
2.10814e-99
2.06566e-99
2.06972e-99
2.03048e-99
2.13807e-99
2.1074e-99
2.097e-99
2.09011e-99
2.0372e-99
2.09076e-99
2.13685e-99
2.06376e-99
2.19504e-99
2.10126e-99
2.14432e-99
2.17161e-99
2.09291e-99
2.14192e-99
2.14978e-99
1.77186e-99
1.76551e-99
1.74202e-99
1.77914e-99
1.81793e-99
1.80631e-99
1.77707e-99
1.7396e-99
1.81241e-99
1.74974e-99
1.80238e-99
1.80069e-99
1.77517e-99
1.8159e-99
1.82522e-99
1.84406e-99
1.78679e-99
1.83985e-99
1.81398e-99
1.87322e-99
1.36061e-99
1.37689e-99
1.36273e-99
1.35591e-99
1.39834e-99
1.37639e-99
1.42055e-99
1.37655e-99
1.42164e-99
1.41972e-99
1.39447e-99
1.43778e-99
1.37895e-99
1.44412e-99
1.39154e-99
1.38687e-99
1.41854e-99
1.43668e-99
1.40745e-99
1.46182e-99
4.96512e-117
4.96092e-117
5.0939e-117
4.83473e-117
5.02193e-117
4.98624e-117
4.98329e-117
4.85032e-117
4.84394e-117
5.06579e-117
4.83212e-117
5.08919e-117
4.82627e-117
5.01283e-117
4.79038e-117
5.05288e-117
4.73161e-117
4.8881e-117
4.9794e-117
4.67311e-117
7.46122e-114
7.44934e-114
7.65138e-114
7.26111e-114
7.54248e-114
7.48841e-114
7.48316e-114
7.28167e-114
7.27435e-114
7.60621e-114
7.25794e-114
7.64229e-114
7.249e-114
7.52856e-114
7.19702e-114
7.58992e-114
7.10712e-114
7.3408e-114
7.47814e-114
7.01805e-114
5.93436e-111
5.92017e-111
6.0833e-111
5.77176e-111
5.9958e-111
5.95268e-111
5.94746e-111
5.78563e-111
5.78121e-111
6.04496e-111
5.76943e-111
6.07414e-111
5.76243e-111
5.98462e-111
5.72293e-111
6.03429e-111
5.64914e-111
5.83465e-111
5.9443e-111
5.57714e-111
2.67495e-108
2.66627e-108
2.74123e-108
2.60006e-108
2.70126e-108
2.68189e-108
2.67889e-108
2.60513e-108
2.60357e-108
2.72287e-108
2.59894e-108
2.73614e-108
2.59597e-108
2.69628e-108
2.57913e-108
2.71904e-108
2.54436e-108
2.62823e-108
2.67797e-108
2.51126e-108
8.57078e-106
8.53453e-106
8.78185e-106
8.32517e-106
8.65108e-106
8.5898e-106
8.57672e-106
8.33695e-106
8.33211e-106
8.71925e-106
8.32012e-106
8.76137e-106
8.31204e-106
8.63558e-106
8.26222e-106
8.70961e-106
8.14241e-106
8.41486e-106
8.57635e-106
8.03338e-106
1.91032e-103
1.9e-103
1.95753e-103
1.85415e-103
1.92748e-103
1.9142e-103
1.91009e-103
1.85564e-103
1.85419e-103
1.94271e-103
1.85238e-103
1.95179e-103
1.85118e-103
1.92431e-103
1.84134e-103
1.94104e-103
1.81163e-103
1.87411e-103
1.9109e-103
1.78633e-103
2.89705e-101
2.87681e-101
2.97043e-101
2.80911e-101
2.92245e-101
2.90343e-101
2.894e-101
2.80904e-101
2.80498e-101
2.94636e-101
2.80426e-101
2.95893e-101
2.80426e-101
2.91849e-101
2.79238e-101
2.94415e-101
2.73902e-101
2.83955e-101
2.89764e-101
2.69813e-101
2.88895e-99
2.86151e-99
2.96719e-99
2.79713e-99
2.91471e-99
2.898e-99
2.88239e-99
2.79344e-99
2.78471e-99
2.94105e-99
2.78771e-99
2.95073e-99
2.79154e-99
2.91277e-99
2.78527e-99
2.93852e-99
2.71543e-99
2.82847e-99
2.89109e-99
2.67012e-99
9.203e-98
9.17135e-98
9.32278e-98
8.92028e-98
9.22909e-98
9.12173e-98
9.16422e-98
8.93957e-98
8.99958e-98
9.23695e-98
8.96954e-98
9.32395e-98
8.91817e-98
9.18354e-98
8.823e-98
9.2816e-98
8.87465e-98
9.00294e-98
9.12462e-98
8.7954e-98
9.27118e-98
9.32529e-98
9.25018e-98
9.01635e-98
9.24373e-98
9.07942e-98
9.23593e-98
9.08293e-98
9.24898e-98
9.17231e-98
9.16107e-98
9.32795e-98
9.03194e-98
9.15074e-98
8.84052e-98
9.26412e-98
9.22818e-98
9.07592e-98
9.10651e-98
9.22938e-98
1.31201e-97
1.33981e-97
1.33432e-97
1.32866e-97
1.31255e-97
1.32808e-97
1.35263e-97
1.32477e-97
1.35844e-97
1.36605e-97
1.34649e-97
1.36761e-97
1.3344e-97
1.31809e-97
1.30718e-97
1.33409e-97
1.32269e-97
1.31748e-97
1.32275e-97
1.33763e-97
1.58392e-97
1.6019e-97
1.60429e-97
1.5957e-97
1.57064e-97
1.53776e-97
1.56488e-97
1.53314e-97
1.58235e-97
1.64186e-97
1.62624e-97
1.57021e-97
1.61111e-97
1.59305e-97
1.5862e-97
1.60406e-97
1.5313e-97
1.6046e-97
1.57722e-97
1.57941e-97
1.77651e-97
1.84044e-97
1.80978e-97
1.80427e-97
1.79958e-97
1.82694e-97
1.88673e-97
1.80303e-97
1.81511e-97
1.8021e-97
1.80719e-97
1.80178e-97
1.8011e-97
1.78503e-97
1.74979e-97
1.79659e-97
1.81201e-97
1.77243e-97
1.76235e-97
1.7774e-97
1.95169e-97
1.97292e-97
2.00973e-97
2.02351e-97
1.99617e-97
2.03918e-97
1.99415e-97
2.02397e-97
2.01903e-97
1.91873e-97
1.95301e-97
1.94345e-97
1.96462e-97
1.91648e-97
1.92661e-97
1.93092e-97
1.94275e-97
1.96768e-97
1.95228e-97
1.98431e-97
1.98989e-97
2.01186e-97
2.03777e-97
2.03889e-97
2.00598e-97
2.01226e-97
2.02502e-97
2.06063e-97
1.9932e-97
2.02561e-97
2.00202e-97
2.00985e-97
2.0571e-97
2.01315e-97
1.98547e-97
2.0881e-97
2.00123e-97
1.98912e-97
2.01541e-97
2.06154e-97
2.013e-97
1.98103e-97
2.0232e-97
1.98203e-97
2.01148e-97
2.01943e-97
2.04391e-97
2.01574e-97
1.95673e-97
1.98065e-97
1.97947e-97
2.05277e-97
2.01092e-97
2.05025e-97
2.04487e-97
2.0441e-97
2.02817e-97
2.01e-97
1.99298e-97
2.00536e-97
1.82725e-97
1.8559e-97
1.83241e-97
1.91521e-97
1.86218e-97
1.91575e-97
1.88076e-97
1.87882e-97
1.86238e-97
1.86717e-97
1.85282e-97
1.90002e-97
1.87938e-97
1.92776e-97
1.85476e-97
1.90791e-97
1.89499e-97
1.8186e-97
1.90449e-97
1.88765e-97
1.65422e-97
1.73849e-97
1.70349e-97
1.70652e-97
1.67426e-97
1.76324e-97
1.73774e-97
1.72949e-97
1.72349e-97
1.68011e-97
1.72422e-97
1.76208e-97
1.70202e-97
1.80981e-97
1.73231e-97
1.76775e-97
1.79021e-97
1.72578e-97
1.7662e-97
1.77251e-97
1.47149e-97
1.46615e-97
1.44696e-97
1.47766e-97
1.50962e-97
1.49996e-97
1.47555e-97
1.44522e-97
1.50545e-97
1.45315e-97
1.49689e-97
1.49535e-97
1.47394e-97
1.50822e-97
1.51548e-97
1.53165e-97
1.48373e-97
1.52772e-97
1.50619e-97
1.55536e-97
1.12515e-97
1.13846e-97
1.12682e-97
1.12118e-97
1.15595e-97
1.13806e-97
1.1739e-97
1.13819e-97
1.17481e-97
1.17363e-97
1.1527e-97
1.18837e-97
1.14017e-97
1.19376e-97
1.15021e-97
1.14651e-97
1.17235e-97
1.18742e-97
1.16345e-97
1.20799e-97
4.82788e-115
4.82126e-115
4.94946e-115
4.699e-115
4.87993e-115
4.84451e-115
4.84237e-115
4.71279e-115
4.70896e-115
4.92055e-115
4.69778e-115
4.94445e-115
4.69124e-115
4.87052e-115
4.65651e-115
4.91031e-115
4.60159e-115
4.7501e-115
4.83793e-115
4.54486e-115
7.11241e-112
7.09742e-112
7.28822e-112
6.9187e-112
7.18511e-112
7.13264e-112
7.12876e-112
6.9363e-112
6.93278e-112
7.24298e-112
6.91763e-112
7.27903e-112
6.90786e-112
7.17116e-112
6.85851e-112
7.23086e-112
6.7762e-112
6.9935e-112
7.12296e-112
6.69159e-112
5.51283e-109
5.49687e-109
5.64688e-109
5.35959e-109
5.56618e-109
5.52548e-109
5.52154e-109
5.37093e-109
5.36948e-109
5.60968e-109
5.35894e-109
5.63805e-109
5.35148e-109
5.55536e-109
5.31488e-109
5.6024e-109
5.24905e-109
5.4171e-109
5.51777e-109
5.18245e-109
2.49406e-106
2.48472e-106
2.55389e-106
2.42329e-106
2.5169e-106
2.49859e-106
2.49619e-106
2.4273e-106
2.42702e-106
2.53611e-106
2.4229e-106
2.54902e-106
2.41972e-106
2.51209e-106
2.40405e-106
2.53371e-106
2.37285e-106
2.44912e-106
2.49496e-106
2.34213e-106
7.86767e-104
7.83051e-104
8.05511e-104
7.63933e-104
7.93596e-104
7.87906e-104
7.86833e-104
7.64788e-104
7.64706e-104
7.99567e-104
7.63673e-104
8.03602e-104
7.62805e-104
7.92137e-104
7.58239e-104
7.99055e-104
7.47627e-104
7.72029e-104
7.86676e-104
7.37666e-104
1.73517e-101
1.72496e-101
1.77663e-101
1.68355e-101
1.74955e-101
1.73736e-101
1.73392e-101
1.68439e-101
1.68386e-101
1.76277e-101
1.68238e-101
1.77138e-101
1.68102e-101
1.74661e-101
1.67208e-101
1.76208e-101
1.64597e-101
1.70137e-101
1.73438e-101
1.6231e-101
2.58877e-99
2.56941e-99
2.65213e-99
2.5093e-99
2.60959e-99
2.59243e-99
2.58446e-99
2.50845e-99
2.50597e-99
2.63006e-99
2.5056e-99
2.64184e-99
2.50522e-99
2.606e-99
2.49458e-99
2.62936e-99
2.44823e-99
2.53602e-99
2.58729e-99
2.41187e-99
2.54989e-97
2.52438e-97
2.61658e-97
2.46791e-97
2.57063e-97
2.55569e-97
2.5424e-97
2.46387e-97
2.45728e-97
2.59298e-97
2.46024e-97
2.60211e-97
2.46326e-97
2.56886e-97
2.45765e-97
2.59213e-97
2.39746e-97
2.4951e-97
2.54967e-97
2.35765e-97
7.89237e-96
7.8617e-96
7.99175e-96
7.64888e-96
7.91092e-96
7.82089e-96
7.85695e-96
7.66284e-96
7.71633e-96
7.9179e-96
7.69163e-96
7.99214e-96
7.64757e-96
7.87373e-96
7.56696e-96
7.95741e-96
7.61003e-96
7.71843e-96
7.82209e-96
7.54217e-96
7.89563e-96
7.94035e-96
7.87683e-96
7.68046e-96
7.87093e-96
7.73485e-96
7.86774e-96
7.73532e-96
7.87877e-96
7.81184e-96
7.80397e-96
7.94309e-96
7.694e-96
7.7949e-96
7.53206e-96
7.88851e-96
7.8589e-96
7.72967e-96
7.75536e-96
7.86077e-96
1.11823e-95
1.14159e-95
1.13734e-95
1.132e-95
1.11855e-95
1.13159e-95
1.15253e-95
1.12853e-95
1.15756e-95
1.16336e-95
1.14745e-95
1.16484e-95
1.13692e-95
1.12313e-95
1.1137e-95
1.13656e-95
1.1269e-95
1.12256e-95
1.12728e-95
1.1398e-95
1.34323e-95
1.35839e-95
1.36058e-95
1.35286e-95
1.33196e-95
1.30405e-95
1.32744e-95
1.30035e-95
1.34232e-95
1.39215e-95
1.37908e-95
1.33151e-95
1.36664e-95
1.35093e-95
1.34536e-95
1.36026e-95
1.29858e-95
1.36059e-95
1.33719e-95
1.33936e-95
1.50682e-95
1.56043e-95
1.53497e-95
1.52974e-95
1.52651e-95
1.54933e-95
1.6001e-95
1.52897e-95
1.53924e-95
1.52797e-95
1.53244e-95
1.52801e-95
1.52792e-95
1.5143e-95
1.48452e-95
1.52377e-95
1.53683e-95
1.50336e-95
1.49486e-95
1.50753e-95
1.64301e-95
1.66043e-95
1.69097e-95
1.70318e-95
1.68029e-95
1.71608e-95
1.67835e-95
1.70351e-95
1.69913e-95
1.61478e-95
1.64372e-95
1.63594e-95
1.65379e-95
1.61346e-95
1.62157e-95
1.62554e-95
1.63502e-95
1.65634e-95
1.64328e-95
1.6705e-95
1.67676e-95
1.69484e-95
1.717e-95
1.71738e-95
1.68975e-95
1.69563e-95
1.70639e-95
1.73612e-95
1.67932e-95
1.70673e-95
1.68739e-95
1.69364e-95
1.73284e-95
1.69629e-95
1.67336e-95
1.75905e-95
1.68642e-95
1.67581e-95
1.69811e-95
1.73611e-95
1.67985e-95
1.65254e-95
1.6875e-95
1.65362e-95
1.67839e-95
1.6853e-95
1.70519e-95
1.68179e-95
1.63275e-95
1.65254e-95
1.65108e-95
1.71248e-95
1.67795e-95
1.71092e-95
1.70603e-95
1.70565e-95
1.69197e-95
1.6775e-95
1.66285e-95
1.67315e-95
1.52978e-95
1.55341e-95
1.53395e-95
1.60325e-95
1.55866e-95
1.60331e-95
1.57386e-95
1.57285e-95
1.55878e-95
1.56273e-95
1.55114e-95
1.59024e-95
1.57253e-95
1.61347e-95
1.55217e-95
1.59668e-95
1.58578e-95
1.52214e-95
1.59365e-95
1.58008e-95
1.37173e-95
1.44152e-95
1.41253e-95
1.4148e-95
1.38814e-95
1.46211e-95
1.44078e-95
1.43422e-95
1.42899e-95
1.39325e-95
1.42973e-95
1.461e-95
1.41142e-95
1.50035e-95
1.43598e-95
1.4653e-95
1.48387e-95
1.43085e-95
1.46438e-95
1.46945e-95
1.22832e-95
1.22384e-95
1.20808e-95
1.23358e-95
1.26004e-95
1.25198e-95
1.2315e-95
1.20687e-95
1.25692e-95
1.21304e-95
1.24959e-95
1.2482e-95
1.23011e-95
1.25914e-95
1.26479e-95
1.27873e-95
1.23846e-95
1.27508e-95
1.25708e-95
1.29808e-95
9.31351e-96
9.4224e-96
9.32667e-96
9.27998e-96
9.56513e-96
9.41926e-96
9.71015e-96
9.42021e-96
9.71781e-96
9.71138e-96
9.53783e-96
9.83163e-96
9.43654e-96
9.87745e-96
9.51658e-96
9.48728e-96
9.69829e-96
9.82367e-96
9.62676e-96
9.99202e-96
4.47477e-113
4.46636e-113
4.58399e-113
4.35347e-113
4.52002e-113
4.48658e-113
4.48535e-113
4.36503e-113
4.36372e-113
4.55585e-113
4.35364e-113
4.57907e-113
4.34677e-113
4.51089e-113
4.31467e-113
4.54852e-113
4.26604e-113
4.40015e-113
4.4806e-113
4.21368e-113
6.72009e-110
6.70255e-110
6.88098e-110
6.5344e-110
6.78427e-110
6.7339e-110
6.73132e-110
6.54914e-110
6.54908e-110
6.8363e-110
6.53524e-110
6.8719e-110
6.52483e-110
6.77055e-110
6.47833e-110
6.82804e-110
6.40389e-110
6.60396e-110
6.72485e-110
6.3243e-110
5.17192e-107
5.15437e-107
5.29362e-107
5.02619e-107
5.21847e-107
5.17977e-107
5.1769e-107
5.03535e-107
5.03645e-107
5.25731e-107
5.02696e-107
5.28507e-107
5.01909e-107
5.20798e-107
4.98482e-107
5.25292e-107
4.92562e-107
5.07925e-107
5.17257e-107
4.86344e-107
2.32088e-104
2.31106e-104
2.37471e-104
2.25418e-104
2.34055e-104
2.32332e-104
2.32146e-104
2.25725e-104
2.25808e-104
2.35757e-104
2.25443e-104
2.37009e-104
2.25109e-104
2.33597e-104
2.23653e-104
2.35644e-104
2.20865e-104
2.27782e-104
2.31995e-104
2.18021e-104
7.19147e-102
7.15404e-102
7.35694e-102
6.98027e-102
7.2489e-102
7.19639e-102
7.1878e-102
6.98599e-102
6.98857e-102
7.30094e-102
6.97976e-102
7.33931e-102
6.97067e-102
7.23533e-102
6.92891e-102
7.29964e-102
6.83559e-102
7.05299e-102
7.18516e-102
6.74507e-102
1.56643e-99
1.55647e-99
1.60255e-99
1.51931e-99
1.5783e-99
1.56721e-99
1.56438e-99
1.51961e-99
1.51985e-99
1.5897e-99
1.51866e-99
1.5978e-99
1.51719e-99
1.57563e-99
1.5091e-99
1.58982e-99
1.48635e-99
1.53512e-99
1.56452e-99
1.46583e-99
2.29867e-97
2.28039e-97
2.35292e-97
2.22735e-97
2.31547e-97
2.30012e-97
2.29347e-97
2.22592e-97
2.22475e-97
2.33288e-97
2.22466e-97
2.34381e-97
2.22398e-97
2.31227e-97
2.21447e-97
2.33339e-97
2.17457e-97
2.25066e-97
2.29557e-97
2.14248e-97
2.23342e-95
2.20999e-95
2.28972e-95
2.16086e-95
2.24983e-95
2.23659e-95
2.22541e-95
2.15663e-95
2.15185e-95
2.26863e-95
2.15471e-95
2.27713e-95
2.15702e-95
2.24825e-95
2.15201e-95
2.2691e-95
2.10067e-95
2.18424e-95
2.23139e-95
2.06599e-95
6.71656e-94
6.68747e-94
6.79837e-94
6.50851e-94
6.72923e-94
6.6544e-94
6.68459e-94
6.51819e-94
6.56541e-94
6.7354e-94
6.54533e-94
6.79828e-94
6.50785e-94
6.69923e-94
6.44024e-94
6.77009e-94
6.4757e-94
6.56656e-94
6.65433e-94
6.41807e-94
6.66906e-94
6.70569e-94
6.65243e-94
6.48893e-94
6.64709e-94
6.53544e-94
6.6473e-94
6.53366e-94
6.65658e-94
6.59867e-94
6.59347e-94
6.7084e-94
6.5006e-94
6.58555e-94
6.36473e-94
6.66208e-94
6.63796e-94
6.5292e-94
6.55057e-94
6.64022e-94
9.4564e-94
9.65108e-94
9.61871e-94
9.56928e-94
9.45793e-94
9.56645e-94
9.74361e-94
9.53855e-94
9.78682e-94
9.83004e-94
9.70202e-94
9.84393e-94
9.61113e-94
9.49546e-94
9.4146e-94
9.6073e-94
9.52612e-94
9.49015e-94
9.5321e-94
9.63654e-94
1.13065e-93
1.14335e-93
1.14532e-93
1.13844e-93
1.12117e-93
1.09765e-93
1.11766e-93
1.09472e-93
1.13024e-93
1.17165e-93
1.16079e-93
1.12072e-93
1.15066e-93
1.1371e-93
1.13261e-93
1.14494e-93
1.09305e-93
1.14512e-93
1.12526e-93
1.12734e-93
1.26932e-93
1.31397e-93
1.29298e-93
1.28812e-93
1.28601e-93
1.3049e-93
1.34772e-93
1.28771e-93
1.29636e-93
1.28669e-93
1.29057e-93
1.28698e-93
1.28731e-93
1.27586e-93
1.25087e-93
1.28355e-93
1.29452e-93
1.26642e-93
1.25931e-93
1.26988e-93
1.37538e-93
1.38958e-93
1.41476e-93
1.4255e-93
1.40644e-93
1.43603e-93
1.40463e-93
1.42571e-93
1.42184e-93
1.35135e-93
1.37564e-93
1.36934e-93
1.3843e-93
1.35071e-93
1.35715e-93
1.36076e-93
1.36829e-93
1.38641e-93
1.3754e-93
1.39841e-93
1.40596e-93
1.42074e-93
1.43961e-93
1.43944e-93
1.41641e-93
1.42176e-93
1.43085e-93
1.4555e-93
1.40794e-93
1.43097e-93
1.4152e-93
1.42016e-93
1.45251e-93
1.42227e-93
1.40338e-93
1.47454e-93
1.41414e-93
1.40491e-93
1.42372e-93
1.45484e-93
1.39732e-93
1.37407e-93
1.40294e-93
1.3752e-93
1.39593e-93
1.40192e-93
1.41802e-93
1.39863e-93
1.35802e-93
1.37434e-93
1.3727e-93
1.42397e-93
1.3956e-93
1.42315e-93
1.41876e-93
1.41864e-93
1.40696e-93
1.39549e-93
1.38291e-93
1.39149e-93
1.27757e-93
1.29702e-93
1.28094e-93
1.33878e-93
1.30137e-93
1.3385e-93
1.31378e-93
1.31345e-93
1.30143e-93
1.30469e-93
1.29538e-93
1.32767e-93
1.31254e-93
1.34706e-93
1.29574e-93
1.33291e-93
1.32374e-93
1.27086e-93
1.33025e-93
1.31935e-93
1.13687e-93
1.19462e-93
1.17063e-93
1.1723e-93
1.1503e-93
1.21173e-93
1.19391e-93
1.1887e-93
1.18416e-93
1.15473e-93
1.18489e-93
1.21069e-93
1.1698e-93
1.24309e-93
1.18968e-93
1.21393e-93
1.22925e-93
1.18566e-93
1.21347e-93
1.21753e-93
1.02502e-93
1.02126e-93
1.00833e-93
1.0295e-93
1.05139e-93
1.04467e-93
1.02749e-93
1.00752e-93
1.04908e-93
1.0123e-93
1.04281e-93
1.04159e-93
1.02629e-93
1.05088e-93
1.05524e-93
1.06723e-93
1.03343e-93
1.06389e-93
1.04884e-93
1.08302e-93
7.75834e-94
7.84798e-94
7.7688e-94
7.72983e-94
7.96504e-94
7.84541e-94
8.08299e-94
7.84614e-94
8.0894e-94
8.08684e-94
7.94198e-94
8.18556e-94
7.8597e-94
8.22472e-94
7.92381e-94
7.90048e-94
8.07381e-94
8.17881e-94
8.01606e-94
8.31748e-94
4.35478e-111
4.34439e-111
4.45773e-111
4.23499e-111
4.39591e-111
4.36286e-111
4.36233e-111
4.245e-111
4.24582e-111
4.42906e-111
4.23633e-111
4.45264e-111
4.22888e-111
4.38665e-111
4.19775e-111
4.42398e-111
4.15252e-111
4.27968e-111
4.35707e-111
4.10177e-111
6.44225e-108
6.42222e-108
6.59147e-108
6.26176e-108
6.49943e-108
6.4505e-108
6.44904e-108
6.27405e-108
6.27707e-108
6.54686e-108
6.26429e-108
6.58238e-108
6.25321e-108
6.48584e-108
6.20874e-108
6.54195e-108
6.14053e-108
6.32734e-108
6.44184e-108
6.0646e-108
4.86137e-105
4.8425e-105
4.97191e-105
4.72262e-105
4.90181e-105
4.86503e-105
4.86312e-105
4.72984e-105
4.73316e-105
4.93655e-105
4.72462e-105
4.96366e-105
4.71642e-105
4.89171e-105
4.68425e-105
4.93468e-105
4.63103e-105
4.77165e-105
4.85827e-105
4.57291e-105
2.15132e-102
2.14119e-102
2.19949e-102
2.08875e-102
2.16807e-102
2.15195e-102
2.15059e-102
2.09097e-102
2.09275e-102
2.1831e-102
2.08955e-102
2.19514e-102
2.0861e-102
2.16375e-102
2.0726e-102
2.18304e-102
2.04786e-102
2.11028e-102
2.14883e-102
2.02167e-102
6.54618e-100
6.50906e-100
6.6914e-100
6.35179e-100
6.59389e-100
6.54574e-100
6.53905e-100
6.35511e-100
6.36048e-100
6.63904e-100
6.35303e-100
6.67528e-100
6.34371e-100
6.58143e-100
6.30563e-100
6.64089e-100
6.22414e-100
6.4168e-100
6.53551e-100
6.14231e-100
1.40585e-97
1.39627e-97
1.43707e-97
1.36313e-97
1.4155e-97
1.40549e-97
1.40321e-97
1.36299e-97
1.36384e-97
1.42527e-97
1.3629e-97
1.43282e-97
1.36136e-97
1.4131e-97
1.35407e-97
1.42604e-97
1.33442e-97
1.37705e-97
1.40307e-97
1.31614e-97
2.02863e-95
2.01158e-95
2.0747e-95
1.96508e-95
2.04196e-95
2.02834e-95
2.02286e-95
1.96322e-95
1.9631e-95
2.05667e-95
1.96323e-95
2.06673e-95
1.96232e-95
2.03916e-95
1.95385e-95
2.0581e-95
1.91982e-95
1.98526e-95
2.02433e-95
1.8917e-95
1.94223e-93
1.92094e-93
1.9893e-93
1.8785e-93
1.95494e-93
1.94334e-93
1.93403e-93
1.87424e-93
1.87095e-93
1.97065e-93
1.87368e-93
1.97847e-93
1.87539e-93
1.95359e-93
1.87091e-93
1.9721e-93
1.82753e-93
1.89846e-93
1.93886e-93
1.79758e-93
5.675e-92
5.64777e-92
5.74168e-92
5.49853e-92
5.68302e-92
5.62134e-92
5.64647e-92
5.50471e-92
5.54605e-92
5.68845e-92
5.52989e-92
5.74132e-92
5.49829e-92
5.6591e-92
5.44208e-92
5.71867e-92
5.47091e-92
5.54666e-92
5.62036e-92
5.42234e-92
5.59011e-92
5.61986e-92
5.57559e-92
5.44052e-92
5.57079e-92
5.48e-92
5.57338e-92
5.47662e-92
5.58116e-92
5.53146e-92
5.52832e-92
5.62246e-92
5.4505e-92
5.52145e-92
5.33739e-92
5.58343e-92
5.56398e-92
5.47317e-92
5.49082e-92
5.56644e-92
7.93874e-92
8.0997e-92
8.07553e-92
8.03051e-92
7.93898e-92
8.02859e-92
8.17736e-92
8.00349e-92
8.21421e-92
8.24556e-92
8.1436e-92
8.25833e-92
8.06583e-92
7.96939e-92
7.90072e-92
8.06183e-92
7.99418e-92
7.96465e-92
8.00149e-92
8.08795e-92
9.45135e-92
9.55684e-92
9.57441e-92
9.51376e-92
9.372e-92
9.17524e-92
9.34514e-92
9.15235e-92
9.4508e-92
9.79238e-92
9.70283e-92
9.3678e-92
9.62094e-92
9.50481e-92
9.46897e-92
9.57024e-92
9.13675e-92
9.57093e-92
9.40355e-92
9.42308e-92
1.06236e-91
1.09929e-91
1.08212e-91
1.07768e-91
1.07642e-91
1.09195e-91
1.12782e-91
1.07752e-91
1.08478e-91
1.07652e-91
1.07987e-91
1.07699e-91
1.0776e-91
1.06805e-91
1.04721e-91
1.07424e-91
1.08339e-91
1.05996e-91
1.05405e-91
1.06281e-91
1.14519e-91
1.15669e-91
1.17733e-91
1.1867e-91
1.17092e-91
1.19524e-91
1.16925e-91
1.18684e-91
1.18343e-91
1.12485e-91
1.14512e-91
1.14007e-91
1.15253e-91
1.12471e-91
1.12977e-91
1.13302e-91
1.13895e-91
1.15426e-91
1.14502e-91
1.16436e-91
1.17321e-91
1.1852e-91
1.20118e-91
1.20063e-91
1.18154e-91
1.18637e-91
1.19401e-91
1.21434e-91
1.17472e-91
1.19396e-91
1.18118e-91
1.18508e-91
1.21163e-91
1.18674e-91
1.17127e-91
1.23005e-91
1.18011e-91
1.17213e-91
1.18788e-91
1.21323e-91
1.15888e-91
1.13918e-91
1.16293e-91
1.14031e-91
1.15759e-91
1.16274e-91
1.17572e-91
1.15973e-91
1.1262e-91
1.13963e-91
1.13791e-91
1.18058e-91
1.15736e-91
1.18029e-91
1.17639e-91
1.17645e-91
1.16651e-91
1.15746e-91
1.14673e-91
1.15386e-91
1.06415e-91
1.0801e-91
1.06687e-91
1.11498e-91
1.08372e-91
1.11449e-91
1.0938e-91
1.09395e-91
1.08372e-91
1.0864e-91
1.07896e-91
1.10555e-91
1.09266e-91
1.12169e-91
1.07884e-91
1.10978e-91
1.1021e-91
1.05829e-91
1.10747e-91
1.09874e-91
9.41892e-92
9.89643e-92
9.69816e-92
9.71013e-92
9.52875e-92
1.00385e-91
9.88979e-92
9.84845e-92
9.80913e-92
9.56697e-92
9.81601e-92
1.00288e-91
9.6919e-92
1.02955e-91
9.85252e-92
1.0053e-91
1.01793e-91
9.82119e-92
1.00517e-91
1.00842e-91
8.54933e-92
8.51796e-92