/*--------------------------------*- C++ -*----------------------------------*\
| =========                 |                                                 |
| \\      /  F ield         | OpenFOAM: The Open Source CFD Toolbox           |
|  \\    /   O peration     | Version:  2212                                  |
|   \\  /    A nd           | Website:  www.openfoam.com                      |
|    \\/     M anipulation  |                                                 |
\*---------------------------------------------------------------------------*/
FoamFile
{
    version     2.0;
    format      ascii;
    arch        "LSB;label=32;scalar=64";
    class       surfaceScalarField;
    location    "0.0306";
    object      phi;
}
// * * * * * * * * * * * * * * * * * * * * * * * * * * * * * * * * * * * * * //

dimensions      [1 0 -1 0 0 0 0];

oriented        oriented;

internalField   nonuniform List<scalar> 
4475
(
1.35453e-05
-1.23458e-05
2.10709e-05
-2.22041e-05
-8.63155e-07
-1.34227e-06
7.6958e-07
1.14725e-06
3.87999e-05
-4.44587e-05
4.18327e-06
1.16738e-06
-3.3831e-06
1.55279e-05
2.68343e-06
-1.49208e-05
-1.5363e-05
1.39472e-05
1.49041e-05
-1.318e-05
1.33858e-05
-9.70442e-06
-1.49958e-05
1.15826e-05
-4.36941e-06
4.14101e-06
1.95706e-05
-1.89979e-05
-1.14344e-05
-1.6308e-05
1.3907e-05
1.41065e-05
1.46632e-05
-1.59332e-05
-1.37964e-05
-1.7292e-05
-2.82173e-07
2.31531e-06
1.55874e-05
-2.88971e-06
2.73762e-06
-1.67651e-05
-1.81927e-05
2.64068e-06
-1.29557e-06
1.72387e-05
-1.83331e-05
8.62854e-07
-3.19462e-07
-1.83778e-05
4.42343e-07
4.58055e-09
-1.82782e-05
2.71609e-07
2.54717e-08
-1.80109e-05
1.9535e-07
-7.56164e-08
2.53387e-07
-1.72065e-05
-6.94187e-07
1.682e-05
-1.36805e-06
-1.62724e-05
1.13408e-06
1.80473e-05
-6.23728e-07
1.83466e-05
2.89017e-07
1.84261e-05
6.02191e-07
1.84474e-05
8.36487e-07
1.85966e-05
1.14081e-06
2.04186e-05
1.27628e-06
1.80206e-05
-4.81833e-08
1.71056e-05
1.00989e-06
2.17002e-05
2.89758e-06
-7.07893e-06
2.06618e-05
3.81023e-07
1.12046e-06
2.03076e-05
-2.00864e-05
-4.15965e-06
-1.66887e-05
-1.54528e-06
2.04575e-05
2.47776e-07
3.8411e-07
2.04147e-05
2.10243e-07
2.41634e-07
2.04586e-05
1.78498e-07
1.77884e-07
2.04867e-05
2.07996e-07
1.58131e-07
2.05568e-05
1.44382e-07
1.77527e-07
2.05858e-05
1.73744e-07
1.89815e-07
2.06253e-05
1.65321e-07
1.92322e-07
2.06721e-05
1.36437e-07
2.21344e-07
2.0728e-05
1.15854e-07
2.42688e-07
2.07629e-05
1.46485e-07
2.44978e-07
2.08231e-05
1.27547e-07
2.52004e-07
2.08689e-05
1.34788e-07
2.74106e-07
2.09003e-05
1.46511e-07
2.93205e-07
2.09697e-05
1.12107e-07
3.06217e-07
5.09347e-08
2.11321e-05
2.91899e-07
-2.09618e-05
2.09921e-05
5.15428e-07
-2.09207e-05
5.49605e-07
-2.08082e-05
4.96147e-07
-2.07706e-05
5.42951e-07
-2.07132e-05
5.01225e-07
-2.06379e-05
4.88416e-07
-2.05427e-05
4.25002e-07
-2.0585e-05
5.73716e-07
-2.05179e-05
4.86597e-07
-2.04408e-05
4.8036e-07
-2.04659e-05
5.52999e-07
-2.04088e-05
5.36542e-07
-2.03994e-05
5.61388e-07
-2.0393e-05
6.03832e-07
-2.0611e-05
8.81267e-07
-2.15158e-05
1.7309e-06
-1.67749e-05
4.30144e-06
-8.66169e-06
-1.74871e-05
3.36209e-06
-1.68069e-05
2.38005e-06
-1.71287e-05
1.25171e-06
-6.23155e-07
-1.82507e-05
1.65456e-07
-1.84065e-05
2.1077e-07
-1.84112e-05
3.91443e-07
-1.82989e-05
2.95268e-07
-1.79385e-05
-6.22363e-08
-1.77109e-05
-5.55859e-07
1.35553e-07
3.0969e-07
2.12089e-05
4.91356e-07
2.11461e-05
1.81697e-05
-1.07561e-06
-1.73214e-05
1.83882e-05
4.7797e-07
1.85033e-05
9.004e-07
1.85758e-05
1.18086e-06
1.88821e-05
1.25573e-06
1.9339e-05
1.24501e-06
1.87507e-05
9.59155e-07
1.88472e-05
1.32373e-06
2.02924e-05
1.86681e-06
2.04752e-05
1.35886e-06
2.03949e-05
8.74828e-07
2.03936e-05
6.44371e-07
2.04185e-05
5.45636e-07
2.04757e-05
4.89836e-07
2.05245e-05
5.15262e-07
2.05442e-05
5.57833e-07
2.06043e-05
5.24265e-07
2.06424e-05
5.82562e-07
2.06862e-05
6.07319e-07
2.07248e-05
6.2637e-07
2.07983e-05
6.11608e-07
2.08576e-05
6.6341e-07
2.09333e-05
6.82773e-07
2.10075e-05
7.14774e-07
2.10794e-05
7.19083e-07
-1.93377e-06
-1.63131e-05
2.29105e-06
6.97778e-07
2.12072e-05
-3.15745e-06
-1.51554e-05
-1.72331e-05
-1.66768e-06
-2.09335e-05
2.10865e-05
8.23202e-07
-2.08867e-05
9.37625e-07
-2.0748e-05
8.63833e-07
-2.07333e-05
9.18513e-07
-2.06374e-05
8.6898e-07
-2.05605e-05
8.31543e-07
-2.05089e-05
8.30956e-07
-2.05432e-05
8.42479e-07
-2.04301e-05
8.34559e-07
-2.03795e-05
8.02466e-07
-2.03978e-05
8.61944e-07
-2.03472e-05
8.65307e-07
-2.03184e-05
8.72939e-07
-2.02972e-05
9.1e-07
-2.03435e-05
1.028e-06
-2.03927e-05
1.31382e-06
-2.02413e-05
1.9631e-06
-1.84839e-05
2.9156e-06
-1.76638e-05
2.8938e-06
-1.74859e-05
2.53452e-06
-1.75953e-05
1.68774e-06
-1.80862e-05
9.90011e-07
-1.83532e-05
8.25673e-07
-1.84019e-05
7.99996e-07
-1.84206e-05
6.77583e-07
-1.82926e-05
1.72533e-07
-1.80021e-05
-4.86794e-07
-1.3371e-05
2.14617e-05
-1.92223e-05
7.92745e-06
-1.61947e-05
-4.71526e-06
1.31727e-05
-1.00566e-05
-9.69538e-06
1.12484e-05
8.70974e-06
1.1453e-05
2.01889e-05
2.41714e-06
-3.90143e-06
-1.82632e-05
1.85841e-05
9.76757e-07
1.8528e-05
9.46978e-07
1.85424e-05
1.29184e-06
1.8685e-05
1.44187e-06
1.88744e-05
1.46852e-06
1.91008e-05
1.42092e-06
1.90928e-05
1.36513e-06
1.9281e-05
1.53151e-06
1.98598e-05
1.6781e-06
2.01474e-05
1.46172e-06
2.02411e-05
1.16683e-06
2.02965e-05
9.6825e-07
2.03662e-05
8.49699e-07
2.03858e-05
8.40339e-07
2.04377e-05
8.32126e-07
2.05052e-05
8.60847e-07
2.0509e-05
8.94528e-07
2.05461e-05
9.25625e-07
2.05846e-05
9.57164e-07
2.06824e-05
9.28224e-07
2.07185e-05
9.88371e-07
2.07695e-05
1.03999e-06
2.08743e-05
1.02171e-06
2.09989e-05
1.0516e-06
2.10769e-05
1.11957e-06
2.1139e-05
1.12981e-06
-7.38596e-07
2.12772e-05
1.10776e-06
-2.91192e-07
2.1289e-05
1.60065e-07
2.1293e-05
5.61584e-07
2.12695e-05
-1.31969e-05
1.30579e-05
-1.58518e-05
2.12e-05
9.47367e-07
-1.85636e-05
-1.53471e-05
2.08674e-05
-1.52061e-05
2.11621e-05
1.25989e-05
-1.83744e-05
-3.67816e-06
-1.6375e-05
1.77713e-05
-1.37209e-05
1.71307e-05
-2.09076e-05
1.44653e-05
1.42123e-05
-1.43948e-05
-2.04646e-05
2.54686e-07
4.27314e-06
-1.79717e-05
-1.33913e-06
-6.47108e-07
1.07908e-06
2.13641e-05
-2.28338e-07
2.1411e-05
2.09644e-07
2.1402e-05
5.75598e-07
2.14411e-05
9.29435e-07
2.13573e-05
-2.11448e-05
1.25987e-06
2.12869e-05
-2.09167e-05
1.17916e-06
-2.0883e-05
1.23506e-06
-2.07043e-05
1.18879e-06
-2.06825e-05
1.2559e-06
-2.05714e-05
1.20661e-06
-2.04828e-05
1.16494e-06
-2.03799e-05
1.09978e-06
-2.0323e-05
1.13303e-06
-2.03002e-05
1.16793e-06
-2.02686e-05
1.14319e-06
-2.02597e-05
1.12777e-06
-2.02065e-05
1.14e-06
-2.0174e-05
1.16403e-06
-2.0142e-05
1.17443e-06
-2.00945e-05
1.19993e-06
-2.00869e-05
1.36269e-06
-1.99882e-05
1.56133e-06
-1.96494e-05
1.97037e-06
-1.88276e-05
2.43234e-06
-1.82985e-05
2.69527e-06
-1.77914e-05
2.35054e-06
-1.7801e-05
2.01579e-06
-1.80554e-05
1.56685e-06
-1.82151e-05
1.31566e-06
-1.8364e-05
1.28544e-06
-1.84392e-05
1.09143e-06
-1.85498e-05
6.23571e-07
-1.82961e-07
-1.85141e-05
2.58489e-06
-2.03943e-06
-1.8478e-05
1.83076e-05
1.93905e-05
-2.67137e-05
2.33379e-05
-1.59402e-05
1.38259e-05
-1.30649e-05
1.4454e-05
1.77263e-05
2.48909e-06
1.51688e-06
1.8611e-05
4.17725e-06
-4.7983e-06
1.88951e-05
4.1617e-06
1.87833e-05
3.68872e-06
-3.24354e-06
1.86186e-05
3.10141e-06
1.87518e-05
2.7206e-06
-2.4853e-06
1.91964e-05
2.35836e-06
1.87948e-05
1.76933e-06
1.86278e-05
1.49877e-06
1.86311e-05
1.66827e-06
1.87503e-05
1.69872e-06
1.88774e-05
1.71484e-06
1.90635e-05
1.60584e-06
1.91458e-05
1.64995e-06
1.93533e-05
1.68681e-06
1.96889e-05
1.70184e-06
1.99264e-05
1.58084e-06
2.0034e-05
1.41129e-06
2.00983e-05
1.25108e-06
2.02005e-05
1.09007e-06
2.02226e-05
1.15827e-06
2.0295e-05
1.09859e-06
2.03246e-05
1.17142e-06
2.03615e-05
1.20087e-06
2.03915e-05
1.2442e-06
2.05108e-05
1.19428e-06
2.05389e-05
1.26697e-06
2.0575e-05
1.33121e-06
2.07033e-05
1.30515e-06
2.08338e-05
1.30086e-06
2.09058e-05
1.40555e-06
2.1024e-05
1.44394e-06
2.11511e-05
1.46115e-06
2.12759e-05
1.45512e-06
1.40555e-06
2.14334e-05
-1.38203e-07
4.27851e-05
-3.38561e-05
-9.10606e-06
-1.53624e-05
1.48899e-05
-2.14946e-05
2.10662e-05
5.45673e-06
-5.08941e-06
-2.5887e-06
1.18527e-05
2.17924e-06
-1.16121e-05
-2.38273e-05
-5.08004e-06
7.53762e-06
2.11407e-05
-1.85288e-05
-1.17892e-05
-2.99077e-06
-1.82953e-05
-1.80091e-05
-2.32309e-06
1.86722e-05
-2.09006e-05
2.10957e-05
1.48378e-06
-2.08403e-05
1.52645e-06
-2.06425e-05
1.43102e-06
-2.06294e-05
1.55457e-06
-2.04936e-05
1.48467e-06
-2.03945e-05
1.45707e-06
-2.03098e-05
1.41678e-06
-2.02558e-05
1.3709e-06
-2.02172e-05
1.40897e-06
-2.01347e-05
1.39068e-06
-2.00842e-05
1.39058e-06
-2.0051e-05
1.38709e-06
-1.99846e-05
1.36349e-06
-1.99679e-05
1.43794e-06
-1.99248e-05
1.42466e-06
-1.99107e-05
1.48321e-06
-1.97961e-05
1.54941e-06
-1.96553e-05
1.72479e-06
-1.93511e-05
1.9721e-06
-1.88713e-05
2.25539e-06
-1.83887e-05
2.51051e-06
-1.79845e-05
2.23979e-06
-1.79252e-05
2.24813e-06
-1.80515e-05
1.98805e-06
-1.81688e-05
1.73309e-06
-1.8293e-05
1.71234e-06
-1.84233e-05
1.52576e-06
-1.85255e-05
1.03009e-06
-1.88755e-05
4.74448e-07
-8.77536e-07
-1.86302e-05
-1.48767e-05
-1.50579e-05
1.64567e-05
-4.33955e-06
-2.10727e-05
1.98573e-05
5.65694e-06
1.84892e-05
4.00897e-06
-1.97464e-05
1.87188e-05
4.20908e-06
1.88058e-05
4.35222e-06
1.87091e-05
4.08059e-06
1.86667e-05
3.45387e-06
1.87268e-05
2.98372e-06
1.88279e-05
2.59109e-06
1.87184e-05
2.21749e-06
1.8565e-05
1.99052e-06
1.86411e-05
1.92869e-06
1.86951e-05
1.9792e-06
1.88531e-05
1.88877e-06
1.89757e-05
1.81238e-06
1.91104e-05
1.84038e-06
1.92938e-05
1.82458e-06
1.95137e-05
1.79965e-06
1.97033e-05
1.70554e-06
1.98645e-05
1.56077e-06
1.99952e-05
1.4278e-06
2.00095e-05
1.37966e-06
2.00977e-05
1.37137e-06
2.00926e-05
1.40351e-06
2.01322e-05
1.43168e-06
2.01664e-05
1.46876e-06
2.02999e-05
1.41733e-06
2.03268e-05
1.48099e-06
2.03566e-05
1.55932e-06
2.04844e-05
1.53701e-06
2.06201e-05
1.51684e-06
2.06685e-05
1.61431e-06
2.0756e-05
1.69481e-06
2.09093e-05
1.68323e-06
2.10368e-05
1.74172e-06
2.12007e-05
1.71286e-06
2.13283e-05
1.71158e-06
-1.38049e-06
1.67204e-06
2.14788e-05
-1.0306e-06
2.15759e-05
-6.24301e-07
2.14842e-05
-2.01263e-07
2.15363e-05
1.41174e-07
2.16156e-05
6.04393e-07
2.15242e-05
1.00702e-06
2.14752e-05
1.33164e-06
2.14438e-05
2.13068e-05
1.54923e-06
-2.35553e-05
-6.40136e-06
8.38555e-06
-1.89012e-06
3.2328e-06
-3.83268e-05
3.6682e-05
-1.0345e-05
9.00083e-06
-8.57019e-06
9.86759e-06
-2.23834e-05
-1.12447e-05
1.6717e-05
2.10731e-05
-2.41242e-05
-6.67756e-06
1.07008e-05
1.39893e-05
-1.89735e-05
-4.69087e-07
-2.00958e-06
-1.92637e-05
-1.29853e-05
-1.67426e-05
1.50541e-05
-1.81248e-05
-9.79486e-06
5.75584e-06
-2.46896e-05
1.2656e-05
-1.44197e-05
2.65773e-05
1.35741e-05
1.50572e-05
1.85417e-05
-1.86175e-05
4.27957e-06
1.83116e-05
4.6531e-06
1.83808e-05
4.51176e-06
1.84305e-05
4.27464e-06
1.84637e-05
3.67694e-06
1.85152e-05
3.19925e-06
1.85437e-05
2.83781e-06
1.85201e-05
2.52133e-06
1.84901e-05
2.30288e-06
1.85146e-05
2.18661e-06
1.86338e-05
2.14175e-06
1.87378e-05
2.06531e-06
1.88443e-05
1.98357e-06
1.89878e-05
1.97108e-06
1.9143e-05
1.9404e-06
1.93167e-05
1.89436e-06
1.94857e-05
1.80216e-06
1.96291e-05
1.67997e-06
1.96946e-05
1.62171e-06
1.97443e-05
1.58616e-06
1.97909e-05
1.57833e-06
1.98495e-05
1.59683e-06
1.98879e-05
1.64482e-06
2.00194e-05
1.59036e-06
2.00603e-05
1.6328e-06
2.00621e-05
1.74072e-06
2.01996e-05
1.69105e-06
2.03369e-05
1.67956e-06
2.03797e-05
1.76525e-06
2.04529e-05
1.84514e-06
2.06172e-05
1.849e-06
2.06973e-05
1.93627e-06
2.08625e-05
1.9238e-06
2.10309e-05
1.90459e-06
2.11836e-05
1.93082e-06
2.1328e-05
1.90848e-06
-1.63602e-06
1.87268e-06
2.14787e-05
-1.35012e-06
2.16405e-05
-9.33286e-07
2.16562e-05
-6.64818e-07
2.17479e-05
-2.96165e-07
2.17206e-05
1.84013e-07
2.16957e-05
5.99804e-07
2.16589e-05
9.26748e-07
2.16742e-05
1.29471e-06
2.15624e-05
1.57292e-06
2.14639e-05
-2.10242e-05
2.11988e-05
1.77038e-06
-2.08635e-05
1.7537e-06
-2.07526e-05
1.72939e-06
-2.06083e-05
1.7278e-06
-2.05587e-05
1.71495e-06
-2.03815e-05
1.69642e-06
-2.02754e-05
1.68339e-06
-2.01825e-05
1.6563e-06
-2.00833e-05
1.59784e-06
-2.00657e-05
1.62343e-06
-1.99975e-05
1.60214e-06
-1.99385e-05
1.58586e-06
-1.98628e-05
1.56283e-06
-1.98302e-05
1.5981e-06
-1.97847e-05
1.56015e-06
-1.97127e-05
1.60945e-06
-1.96495e-05
1.60766e-06
-1.95906e-05
1.67421e-06
-1.95014e-05
1.71361e-06
-1.93529e-05
1.83348e-06
-1.91146e-05
1.99359e-06
-1.87848e-05
2.18479e-06
-1.84671e-05
2.44942e-06
-1.81623e-05
2.19052e-06
-1.80674e-05
2.40591e-06
-1.80083e-05
2.18409e-06
-1.80629e-05
2.04582e-06
-1.81512e-05
2.05893e-06
-1.8299e-05
1.93175e-06
-1.86093e-05
1.59929e-06
9.08285e-07
-1.87813e-05
-1.59799e-05
-1.56013e-05
1.67678e-05
-1.36968e-06
-1.93081e-05
-2.14771e-05
-2.00211e-06
4.58683e-06
-1.78267e-06
-1.25221e-05
-1.84038e-05
2.0377e-05
-1.93272e-05
-1.06657e-05
1.9054e-05
-9.73629e-06
-8.97972e-06
1.63979e-05
-1.83038e-05
-5.03835e-06
1.90432e-05
3.9826e-06
-1.24212e-06
1.85898e-05
3.83159e-06
-1.83106e-05
1.80259e-05
4.98974e-06
1.77995e-05
5.03759e-06
1.77646e-05
4.71693e-06
1.79452e-05
4.27632e-06
1.80445e-05
3.77005e-06
1.81501e-05
3.29538e-06
1.81691e-05
3.02786e-06
1.82049e-05
2.70011e-06
1.82342e-05
2.49165e-06
1.82905e-05
2.35007e-06
1.84033e-05
2.24946e-06
1.85038e-05
2.18482e-06
1.8609e-05
2.0968e-06
1.87323e-05
2.06409e-06
1.88733e-05
2.01414e-06
1.90319e-05
1.94895e-06
1.9151e-05
1.89422e-06
1.92675e-05
1.77205e-06
1.9345e-05
1.75019e-06
1.9409e-05
1.7252e-06
1.94711e-05
1.71667e-06
1.95414e-05
1.72517e-06
1.96446e-05
1.73953e-06
1.9696e-05
1.73721e-06
1.97027e-05
1.82641e-06
1.9854e-05
1.79401e-06
1.99775e-05
1.77879e-06
2.00094e-05
1.86664e-06
2.00682e-05
1.93513e-06
2.02173e-05
1.93644e-06
2.02803e-05
2.03889e-06
2.046e-05
2.02255e-06
2.0631e-05
2.03159e-06
2.07385e-05
2.08715e-06
2.09063e-05
2.0637e-06
2.10749e-05
2.04963e-06
2.12392e-05
2.02515e-06
-1.79867e-06
2.1377e-05
1.98143e-06
-1.54849e-06
2.1619e-05
-1.26242e-06
2.18056e-05
-9.49654e-07
2.18418e-05
-5.16452e-07
2.18489e-05
-1.7948e-07
2.19393e-05
1.88781e-07
2.18877e-05
5.3247e-07
2.18659e-05
9.36534e-07
2.17969e-05
1.24002e-06
2.17477e-05
1.56352e-06
2.15782e-05
1.79045e-06
2.13479e-05
-2.08458e-05
2.10013e-05
1.94115e-06
-2.06933e-05
1.91947e-06
-2.05452e-05
1.90093e-06
-2.0421e-05
1.89127e-06
-2.02963e-05
1.87853e-06
-2.01786e-05
1.86083e-06
-2.00792e-05
1.84821e-06
-1.99841e-05
1.82748e-06
-1.99057e-05
1.80579e-06
-1.98605e-05
1.77037e-06
-1.97602e-05
1.73252e-06
-1.9716e-05
1.76013e-06
-1.96612e-05
1.72797e-06
-1.96106e-05
1.70482e-06
-1.95342e-05
1.71123e-06
-1.94877e-05
1.70252e-06
-1.93972e-05
1.70958e-06
-1.93627e-05
1.76696e-06
-1.92624e-05
1.77122e-06
-1.91658e-05
1.81787e-06
-1.90266e-05
1.89899e-06
-1.88343e-05
2.00899e-06
-1.85978e-05
2.15676e-06
-1.8276e-05
2.33441e-06
-1.81532e-05
2.27434e-06
-1.79595e-05
2.41628e-06
-1.7901e-05
2.3305e-06
-1.78555e-05
2.20704e-06
-1.78841e-05
2.29302e-06
-1.79861e-05
2.23854e-06
-1.81941e-05
2.01083e-06
1.48951e-06
-1.85732e-05
-1.8992e-05
2.3546e-09
-1.49456e-05
-1.7565e-05
-1.58337e-05
-1.7429e-05
1.78981e-05
8.15564e-06
1.29266e-05
-1.62308e-05
-4.98679e-06
-1.91123e-05
-9.90427e-07
-1.8097e-05
-4.78376e-06
1.91754e-06
-1.96591e-05
-7.29998e-06
-1.9972e-05
-9.28377e-06
3.51045e-07
-6.93617e-06
-1.46198e-05
-7.80836e-06
-1.57197e-05
9.07589e-07
-1.94656e-05
-1.54195e-06
-1.2914e-05
-1.87789e-05
-1.90708e-05
-1.14222e-05
-1.71733e-06
1.93773e-06
2.14776e-05
-1.4981e-06
2.17902e-05
-1.19336e-06
2.19509e-05
-8.47162e-07
2.19924e-05
-5.24936e-07
2.20575e-05
-1.18211e-07
2.20855e-05
2.17279e-07
2.21101e-05
6.01793e-07
2.20293e-05
9.24637e-07
2.19981e-05
1.27705e-06
2.1882e-05
1.58056e-06
2.17115e-05
1.79629e-06
2.15094e-05
1.91859e-06
2.11882e-05
-2.05699e-05
1.99851e-06
2.0726e-05
-2.03759e-05
1.97856e-06
-2.02376e-05
2.00732e-06
-2.00871e-05
1.96929e-06
-1.9976e-05
1.99038e-06
-1.98643e-05
1.96701e-06
-1.97466e-05
1.93218e-06
-1.96602e-05
1.94049e-06
-1.95644e-05
1.90016e-06
-1.95006e-05
1.901e-06
-1.94434e-05
1.86414e-06
-1.93974e-05
1.83111e-06
-1.93024e-05
1.80495e-06
-1.92523e-05
1.81403e-06
-1.91988e-05
1.78506e-06
-1.91166e-05
1.76137e-06
-1.90639e-05
1.78236e-06
-1.90036e-05
1.78368e-06
-1.88963e-05
1.79719e-06
-1.88233e-05
1.83932e-06
-1.87257e-05
1.86479e-06
-1.85986e-05
1.91997e-06
-1.84374e-05
1.9987e-06
-1.82357e-05
2.10701e-06
-1.79826e-05
2.23246e-06
-1.77482e-05
2.18963e-06
-1.76931e-05
2.50847e-06
-1.75122e-05
2.29635e-06
-1.75224e-05
2.36291e-06
-1.74439e-05
2.3589e-06
-1.74697e-05
2.40656e-06
-1.76695e-05
2.3501e-06
2.12301e-06
-1.81661e-05
5.50134e-07
-1.89185e-05
1.52226e-05
-1.17526e-05
-1.62435e-05
-1.35486e-05
-1.96197e-05
9.9196e-06
-6.74413e-07
1.88748e-06
-1.13146e-05
2.33309e-05
-1.33612e-07
-2.34025e-05
-9.24424e-08
1.68963e-05
5.72492e-06
-1.75429e-05
1.68725e-05
5.15665e-06
1.704e-05
4.65368e-06
1.72585e-05
4.17138e-06
1.74139e-05
3.73612e-06
1.75545e-05
3.28451e-06
1.76454e-05
3.07394e-06
1.77276e-05
2.76149e-06
1.78027e-05
2.56468e-06
1.7887e-05
2.41717e-06
1.79842e-05
2.30574e-06
1.81088e-05
2.21449e-06
1.82146e-05
2.14548e-06
1.83339e-05
2.09912e-06
1.84591e-05
2.04335e-06
1.85851e-05
1.97676e-06
1.87312e-05
1.90075e-06
1.88011e-05
1.85307e-06
1.88801e-05
1.81983e-06
1.89533e-05
1.79807e-06
1.90253e-05
1.78834e-06
1.91021e-05
1.78989e-06
1.91847e-05
1.79723e-06
1.92536e-05
1.80833e-06
1.93837e-05
1.83745e-06
1.94348e-05
1.88678e-06
1.9505e-05
1.85654e-06
1.95698e-05
1.95585e-06
1.96984e-05
1.9688e-06
1.97567e-05
2.04957e-06
1.99078e-05
2.06973e-06
2.00676e-05
2.05606e-06
2.0147e-05
2.15583e-06
2.02919e-05
2.15648e-06
2.04609e-05
2.11785e-06
2.06496e-05
2.09259e-06
2.0793e-05
2.11982e-06
2.09481e-05
2.06892e-06
2.10769e-05
2.05447e-06
-1.57575e-05
-1.90062e-05
1.91494e-05
-1.68498e-05
-1.79365e-05
4.34052e-05
-1.98343e-06
3.23646e-06
-4.4917e-05
-1.67773e-05
-2.07265e-06
-1.51245e-05
-1.88077e-05
-1.58888e-06
-1.98736e-05
2.00194e-05
2.01114e-06
-1.97498e-05
2.00821e-06
-1.9581e-05
1.9853e-06
-1.94786e-05
2.00677e-06
-1.93335e-05
1.97672e-06
-1.92443e-05
2.00033e-06
-1.91573e-05
1.95838e-06
-1.90444e-05
1.93202e-06
-1.89877e-05
1.93973e-06
-1.8888e-05
1.89021e-06
-1.88377e-05
1.89643e-06
-1.87792e-05
1.85064e-06
-1.87248e-05
1.82587e-06
-1.86401e-05
1.80315e-06
-1.85862e-05
1.80448e-06
-1.85306e-05
1.77943e-06
-1.8446e-05
1.77231e-06
-1.83686e-05
1.78264e-06
-1.8291e-05
1.79901e-06
-1.81887e-05
1.82014e-06
-1.80932e-05
1.85536e-06
-1.79747e-05
1.89045e-06
-1.7831e-05
1.94626e-06
-1.7653e-05
2.02105e-06
-1.74445e-05
2.11498e-06
-1.73539e-05
2.18882e-06
-1.70789e-05
2.31964e-06
-1.6927e-05
2.22764e-06
-1.68539e-05
2.36921e-06
-1.67839e-05
2.36557e-06
-1.66985e-05
2.39463e-06
-1.67786e-05
2.49986e-06
-1.72777e-05
2.68887e-06
1.29379e-06
-1.87713e-05
1.33654e-05
-1.08224e-05
1.29629e-05
-2.06782e-05
-1.15098e-05
-1.88512e-06
2.01982e-06
2.11882e-05
-1.70667e-06
2.16181e-05
-1.46374e-06
2.19337e-05
-1.13006e-06
2.2062e-05
-8.37113e-07
2.21906e-05
-5.34496e-07
2.22797e-05
-1.6412e-07
2.22598e-05
2.69609e-07
2.22271e-05
6.02156e-07
2.22381e-05
9.63661e-07
2.21545e-05
1.29353e-06
2.20335e-05
1.52604e-06
2.19123e-05
1.73669e-06
2.16737e-05
1.8991e-06
2.13347e-05
1.97891e-06
2.08833e-05
1.94329e-06
2.02173e-05
1.83571e-05
-1.1472e-05
-1.83627e-05
2.02811e-05
-1.05206e-05
1.92305e-05
-8.13229e-06
1.81919e-05
-6.18201e-06
-4.83267e-06
-1.31349e-05
1.29858e-05
1.40432e-05
-5.0744e-06
-2.05868e-05
-4.55765e-06
4.20977e-06
1.38032e-06
-1.16322e-06
-2.70119e-06
-1.25931e-05
1.17556e-05
1.52521e-05
5.18539e-06
-1.46897e-05
1.56848e-05
4.75152e-06
1.60467e-05
4.3255e-06
1.63341e-05
3.92464e-06
1.65842e-05
3.53348e-06
1.67171e-05
3.20624e-06
1.691e-05
2.94317e-06
1.70296e-05
2.71139e-06
1.71391e-05
2.53043e-06
1.72467e-05
2.38943e-06
1.73572e-05
2.2787e-06
1.74674e-05
2.1902e-06
1.75843e-05
2.11648e-06
1.77075e-05
2.06561e-06
1.78375e-05
2.00461e-06
1.79543e-05
1.95197e-06
1.80492e-05
1.89754e-06
1.81375e-05
1.85565e-06
1.82212e-05
1.82531e-06
1.83012e-05
1.80519e-06
1.83798e-05
1.79461e-06
1.84594e-05
1.79304e-06
1.85396e-05
1.79812e-06
1.86185e-05
1.80916e-06
1.87056e-05
1.82987e-06
1.88143e-05
1.85882e-06
1.88717e-05
1.88232e-06
1.89804e-05
1.93464e-06
1.90486e-05
1.99338e-06
1.91778e-05
2.02014e-06
1.93275e-05
2.02804e-06
1.93758e-05
2.12417e-06
1.9546e-05
2.11117e-06
1.97202e-05
2.11668e-06
1.98715e-05
2.10907e-06
1.99644e-05
2.14988e-06
2.01303e-05
2.11045e-06
2.02858e-05
2.07537e-06
2.04202e-05
2.08516e-06
2.05619e-05
2.04561e-06
2.88129e-06
4.34012e-05
-3.11359e-06
-1.03187e-06
-1.86733e-05
-1.09589e-05
5.83176e-06
-1.52731e-05
-2.09599e-05
2.06698e-05
-1.5287e-05
-2.1004e-05
-1.76911e-05
-1.9058e-05
-4.45959e-05
-6.28158e-06
4.85896e-05
3.3474e-05
-2.17592e-06
-3.17412e-05
1.51593e-05
-1.4421e-06
-1.91784e-05
3.6248e-06
-1.95409e-05
1.48296e-05
1.0965e-05
-1.1409e-05
-7.52586e-06
-2.60684e-05
9.94196e-06
6.47392e-06
-1.04491e-05
-6.19332e-06
9.9842e-06
-1.65779e-06
-4.07976e-05
-1.54756e-06
4.36192e-05
-1.91095e-05
1.9239e-05
1.90051e-06
-1.89594e-05
1.94299e-06
-1.88003e-05
1.92534e-06
-1.86867e-05
1.94081e-06
-1.85516e-05
1.93293e-06
-1.8462e-05
1.94095e-06
-1.83289e-05
1.91279e-06
-1.82502e-05
1.91681e-06
-1.81796e-05
1.8913e-06
-1.80855e-05
1.8691e-06
-1.80258e-05
1.84867e-06
-1.79393e-05
1.82439e-06
-1.78757e-05
1.79895e-06
-1.78132e-05
1.77419e-06
-1.77532e-05
1.75451e-06
-1.76769e-05
1.74097e-06
-1.76091e-05
1.72632e-06
-1.75395e-05
1.71936e-06
-1.74584e-05
1.72057e-06
-1.73639e-05
1.72632e-06
-1.72734e-05
1.7548e-06
-1.7164e-05
1.77387e-06
-1.70497e-05
1.80603e-06
-1.69201e-05
1.84787e-06
-1.67596e-05
1.89175e-06
-1.65633e-05
1.94821e-06
-1.63925e-05
2.04472e-06
-1.62483e-05
2.19836e-06
-1.60956e-05
2.09326e-06
-1.59562e-05
2.24294e-06
-1.58426e-05
2.25959e-06
-1.57706e-05
2.32483e-06
-1.5751e-05
2.4768e-06
-1.56943e-05
2.62265e-06
3.15725e-06
-1.52465e-05
1.73968e-05
-9.62126e-06
-2.52945e-05
2.15465e-05
-8.58363e-06
1.54999e-05
-9.6476e-06
-3.11429e-05
-1.95054e-06
2.00372e-06
2.06767e-05
-1.818e-06
2.12987e-05
-1.6612e-06
2.17764e-05
-1.40386e-06
2.20571e-05
-1.1405e-06
2.22341e-05
-8.31757e-07
2.2363e-05
-4.42143e-07
2.2405e-05
-5.75342e-08
2.24086e-05
2.64973e-07
2.24444e-05
6.37891e-07
2.23961e-05
9.84965e-07
2.23152e-05
1.26692e-06
2.22249e-05
1.52622e-06
2.20803e-05
1.74247e-06
2.18278e-05
1.86923e-06
2.15151e-05
1.93936e-06
2.10493e-05
1.97475e-06
2.03461e-05
1.90006e-06
1.94042e-05
-1.36432e-05
1.97769e-05
-9.16335e-06
1.83064e-05
-6.60717e-06
1.70256e-05
-4.8692e-06
1.57296e-05
-3.52595e-06
-4.17361e-06
1.48385e-05
3.0595e-07
-1.06711e-06
1.94065e-05
-2.46e-05
1.34646e-05
5.11428e-06
-1.27512e-05
-5.87451e-06
1.39645e-05
4.64121e-06
1.44363e-05
4.23836e-06
1.48519e-05
3.87199e-06
1.52053e-05
3.53845e-06
1.54772e-05
3.23486e-06
1.56923e-05
2.9707e-06
1.58791e-05
2.74334e-06
1.60286e-05
2.55675e-06
1.61625e-05
2.39823e-06
1.62878e-05
2.27198e-06
1.64074e-05
2.1721e-06
1.65232e-05
2.09169e-06
1.66387e-05
2.02218e-06
1.67576e-05
1.97123e-06
1.68715e-05
1.9181e-06
1.69832e-05
1.86982e-06
1.7084e-05
1.82735e-06
1.71785e-05
1.79194e-06
1.72679e-05
1.76587e-06
1.73538e-05
1.74772e-06
1.74387e-05
1.73623e-06
1.75225e-05
1.73349e-06
1.7606e-05
1.73673e-06
1.76876e-05
1.74752e-06
1.77724e-05
1.7635e-06
1.7862e-05
1.7871e-06
1.7947e-05
1.81577e-06
1.80458e-05
1.85629e-06
1.81677e-05
1.89516e-06
1.82845e-05
1.93164e-06
1.83475e-05
1.99872e-06
1.85031e-05
2.00859e-06
1.86372e-05
2.02404e-06
1.87873e-05
2.021e-06
1.88792e-05
2.07855e-06
1.90506e-05
2.04661e-06
1.92095e-05
2.02673e-06
1.93114e-05
2.0544e-06
1.94757e-05
2.00666e-06
1.9604e-05
2.00612e-06
1.9738e-05
1.96154e-06
1.90075e-05
-1.09835e-05
-1.9248e-05
-1.18613e-06
-1.84749e-05
1.51029e-05
-2.17517e-05
-2.11074e-05
2.04809e-05
-1.14933e-05
1.23048e-05
-2.16473e-05
-1.27691e-05
1.34853e-05
-1.44109e-05
-2.23468e-05
-1.85221e-05
-1.53483e-06
-2.3171e-05
-2.12313e-05
-1.72479e-05
-2.0707e-05
-1.91869e-05
3.39881e-05
-3.3899e-05
-2.09484e-06
1.80622e-05
-9.47775e-06
8.42679e-06
-1.70199e-05
-3.30212e-05
3.04234e-05
-2.70175e-06
1.41392e-05
-9.55143e-06
1.37045e-05
-8.62533e-07
-7.43515e-06
1.75273e-05
7.51592e-06
4.46062e-05
-4.36895e-05
2.04901e-06
2.68116e-06
4.45438e-05
1.41891e-05
2.58523e-06
1.42648e-05
2.46479e-06
1.43818e-05
2.28531e-06
1.44952e-05
2.14445e-06
1.46519e-05
2.04332e-06
1.48305e-05
2.01203e-06
1.49004e-05
1.97778e-06
1.51466e-05
1.91263e-06
1.53057e-05
1.851e-06
1.5448e-05
1.77545e-06
1.55855e-05
1.72644e-06
1.57087e-05
1.6979e-06
1.5819e-05
1.66873e-06
1.5924e-05
1.64068e-06
1.60289e-05
1.6198e-06
1.6117e-05
1.60575e-06
1.62049e-05
1.59746e-06
1.62825e-05
1.60348e-06
1.63604e-05
1.60672e-06
1.64374e-05
1.61871e-06
1.65063e-05
1.63695e-06
1.6578e-05
1.65144e-06
1.66469e-05
1.6778e-06
1.67177e-05
1.70177e-06
1.67959e-05
1.72095e-06
1.68746e-05
1.74418e-06
1.69586e-05
1.76546e-06
1.70595e-05
1.78007e-06
1.71539e-05
1.78878e-06
1.72569e-05
1.81563e-06
1.7381e-05
1.79438e-06
1.74989e-05
1.81621e-06
1.76212e-05
1.80357e-06
1.77744e-05
1.79698e-06
1.78986e-05
1.79005e-06
1.80624e-05
1.75629e-06
3.23779e-06
4.40667e-05
-4.14708e-06
-1.92023e-06
1.90467e-06
1.98466e-05
-1.87189e-06
2.07952e-05
-1.7794e-06
2.14459e-05
-1.59632e-06
2.19022e-05
-1.34688e-06
2.21788e-05
-1.08481e-06
2.23973e-05
-7.32218e-07
2.24793e-05
-3.81456e-07
2.25557e-05
-5.94935e-08
2.26054e-05
3.00752e-07
2.26095e-05
6.52031e-07
2.25618e-05
9.5831e-07
2.25042e-05
1.23751e-06
2.2409e-05
1.50433e-06
2.22329e-05
1.69647e-06
2.19993e-05
1.8262e-06
2.16871e-05
1.92829e-06
2.11811e-05
1.92489e-06
2.05147e-05
1.89482e-06
1.95279e-05
1.76049e-06
1.82215e-05
1.87894e-05
-9.17084e-06
-2.89077e-06
-1.77625e-05
-1.03559e-05
1.97418e-05
1.12821e-05
1.249e-05
4.65075e-05
-3.62157e-05
-2.30864e-05
8.09934e-06
-4.04843e-05
4.62601e-06
-4.17111e-05
2.54586e-06
-4.18778e-05
4.21003e-05
7.59073e-07
-4.05768e-05
4.25117e-05
1.36732e-06
4.28672e-05
2.06114e-06
-4.26478e-06
5.52302e-06
4.13677e-05
1.05174e-05
-3.50786e-06
2.45818e-06
4.12417e-05
-4.0974e-05
-2.96712e-06
6.51774e-06
1.6789e-05
-5.25268e-06
4.93999e-06
1.29249e-05
-1.53315e-05
-2.61998e-06
1.64771e-05
-2.157e-05
-1.04829e-05
2.07067e-05
-2.23836e-05
-1.18158e-05
-1.33216e-05
-2.33467e-05
-1.68685e-06
-1.8073e-05
1.88734e-05
-1.01474e-05
-1.94919e-05
3.61744e-06
-2.00351e-06
1.88372e-05
-6.4415e-06
1.6978e-05
-4.74397e-06
1.54658e-05
-3.37445e-06
1.46512e-05
-2.75028e-06
-2.86059e-06
1.32726e-05
-7.88029e-06
1.4073e-05
8.57092e-06
3.4755e-06
-8.62434e-07
-8.28588e-06
5.57308e-06
1.12288e-05
4.95688e-06
-5.99494e-06
-1.03022e-05
1.18995e-05
4.33442e-06
1.24674e-05
3.96449e-06
1.29575e-05
3.63914e-06
1.33665e-05
3.35451e-06
1.3714e-05
3.08624e-06
1.40088e-05
2.84097e-06
1.42519e-05
2.63398e-06
1.44522e-05
2.45689e-06
1.46264e-05
2.30495e-06
1.4774e-05
2.18077e-06
1.49096e-05
2.07377e-06
1.5035e-05
1.9908e-06
1.51536e-05
1.92337e-06
1.52677e-05
1.86382e-06
1.53862e-05
1.81377e-06
1.54984e-05
1.77142e-06
1.56075e-05
1.7299e-06
1.57113e-05
1.69539e-06
1.58126e-05
1.66382e-06
1.5907e-05
1.64502e-06
1.59987e-05
1.62899e-06
1.60924e-05
1.61405e-06
1.61816e-05
1.61342e-06
1.62734e-05
1.61115e-06
1.63581e-05
1.62591e-06
1.64472e-05
1.63465e-06
1.65359e-05
1.65619e-06
1.66299e-05
1.67805e-06
1.67209e-05
1.72094e-06
1.68353e-05
1.73716e-06
1.69426e-05
1.78273e-06
1.70827e-05
1.82027e-06
1.72125e-05
1.84476e-06
1.73389e-05
1.86866e-06
1.74331e-05
1.90331e-06
1.75682e-05
1.92652e-06
1.77238e-05
1.87985e-06
1.78283e-05
1.91765e-06
1.79917e-05
1.89307e-06
1.81351e-05
1.87172e-06
1.82623e-05
1.89322e-06
1.84103e-05
1.83188e-06
1.85425e-05
1.79401e-06
1.98133e-05
9.36758e-06
-2.07278e-05
1.84415e-05
7.91896e-06
-4.97788e-06
6.72046e-06
1.6723e-05
-2.92725e-05
2.23021e-06
2.91707e-05
-2.38306e-06
1.45071e-05
-2.70929e-06
-1.80521e-06
-1.8055e-05
-1.09096e-06
3.86299e-05
1.00567e-06
5.11269e-06
1.28143e-05
-3.44379e-06
5.51195e-06
4.06684e-05
-8.01746e-06
-3.84645e-05
-2.2004e-05
-1.97882e-05
-2.28167e-05
-1.64649e-05
-2.29876e-05
9.26986e-06
-2.09811e-05
1.96976e-05
2.15203e-05
-1.0525e-05
-2.27099e-05
2.04146e-05
4.32675e-05
-2.20758e-05
3.20737e-05
3.08894e-06
-1.51146e-06
-4.1977e-05
6.6479e-06
4.05671e-05
2.40807e-05
-2.27045e-05
-2.80382e-05
-1.45419e-05
-1.44509e-06
1.32247e-05
-3.36542e-06
-4.16332e-05
1.42889e-06
-4.09868e-05
4.34969e-07
-3.94516e-05
-1.0498e-06
1.21449e-05
2.13704e-06
1.2385e-05
2.07619e-06
1.25454e-05
1.98505e-06
1.26876e-05
1.87106e-06
1.28194e-05
1.78891e-06
1.29923e-05
1.72507e-06
1.31359e-05
1.72806e-06
1.33169e-05
1.63253e-06
1.3449e-05
1.62643e-06
1.35766e-05
1.5609e-06
1.36909e-05
1.52932e-06
1.38225e-05
1.48582e-06
1.39413e-05
1.47041e-06
1.40566e-05
1.44604e-06
1.41641e-05
1.43217e-06
1.42641e-05
1.42396e-06
1.43603e-05
1.41654e-06
1.44528e-05
1.42236e-06
1.45401e-05
1.4264e-06
1.46246e-05
1.43626e-06
1.47048e-05
1.45393e-06
1.47808e-05
1.46816e-06
1.48595e-05
1.48852e-06
1.49405e-05
1.5085e-06
1.50189e-05
1.53001e-06
1.51035e-05
1.54827e-06
1.51956e-05
1.56468e-06
1.52909e-05
1.58002e-06
1.53876e-05
1.59232e-06
1.55111e-05
1.59866e-06
1.56067e-05
1.61251e-06
1.57314e-05
1.61303e-06
1.58756e-05
1.5891e-06
1.6006e-05
1.60389e-06
1.61621e-05
1.57989e-06
1.63009e-05
1.57084e-06
1.64836e-05
1.53756e-06
-1.21681e-05
-1.51847e-06
1.07287e-05
-1.33976e-05
-1.60097e-06
-1.477e-05
-2.0641e-06
-1.66821e-05
-2.87535e-06
-1.91158e-05
-4.04243e-06
-2.23137e-05
-5.41969e-06
-1.14653e-05
1.03784e-05
8.38088e-06
-6.63322e-06
1.82011e-05
-1.63449e-05
1.61248e-05
-9.26157e-06
1.97598e-05
8.07947e-06
1.84024e-05
-2.12246e-06
4.20891e-05
1.18159e-06
2.64381e-06
4.36317e-05
9.92285e-06
-2.313e-05
-7.50356e-06
-1.18352e-05
-2.41079e-05
2.00287e-05
-6.54317e-06
4.58135e-06
-1.76887e-05
6.1975e-07
-1.16814e-05
2.27919e-07
-1.72222e-05
1.92361e-05
-9.32159e-06
1.05924e-05
-7.3681e-06
-3.57765e-05
3.23174e-05
-4.34751e-05
3.75171e-08
4.15539e-05
-6.28666e-06
-2.57192e-05
-1.85627e-06
1.74403e-06
1.86792e-05
-1.89041e-06
1.99734e-05
-1.83355e-06
2.09028e-05
-1.71078e-06
2.15573e-05
-1.51629e-06
2.20085e-05
-1.28358e-06
2.23062e-05
-9.78422e-07
2.25049e-05
-6.79244e-07
2.26346e-05
-3.72248e-07
2.27341e-05
-2.07099e-08
2.27578e-05
3.22471e-07
2.27753e-05
6.38516e-07
2.27467e-05
9.41713e-07
2.26826e-05
1.22407e-06
2.25774e-05
1.46519e-06
2.23999e-05
1.65279e-06
2.21676e-05
1.82186e-06
2.18134e-05
1.89055e-06
2.13439e-05
1.90007e-06
2.06688e-05
1.83246e-06
1.96916e-05