/*--------------------------------*- C++ -*----------------------------------*\
| =========                 |                                                 |
| \\      /  F ield         | OpenFOAM: The Open Source CFD Toolbox           |
|  \\    /   O peration     | Version:  2212                                  |
|   \\  /    A nd           | Website:  www.openfoam.com                      |
|    \\/     M anipulation  |                                                 |
\*---------------------------------------------------------------------------*/
FoamFile
{
    version     2.0;
    format      ascii;
    arch        "LSB;label=32;scalar=64";
    class       surfaceScalarField;
    location    "0.0431";
    object      phi;
}
// * * * * * * * * * * * * * * * * * * * * * * * * * * * * * * * * * * * * * //

dimensions      [1 0 -1 0 0 0 0];

oriented        oriented;

internalField   nonuniform List<scalar> 
4475
(
1.69632e-05
-1.59535e-05
2.04542e-05
-2.13376e-05
9.15308e-07
-5.00536e-06
2.62871e-08
4.07696e-06
3.86178e-05
-4.38317e-05
3.46745e-06
1.87384e-06
-5.69664e-06
1.69206e-05
4.71055e-06
-1.58957e-05
-1.85347e-05
1.68868e-05
1.78751e-05
-1.61313e-05
1.57528e-05
-1.25318e-05
-1.77138e-05
1.45641e-05
-4.50897e-06
3.89547e-06
2.38223e-05
-2.3122e-05
-1.43884e-05
-1.89749e-05
1.71986e-05
1.62457e-05
1.74343e-05
-1.92821e-05
-1.65878e-05
-2.06344e-05
-2.52398e-07
2.32054e-06
1.85224e-05
-3.32204e-06
2.80575e-06
-2.01519e-05
-2.17556e-05
3.26513e-06
-1.98034e-06
2.04587e-05
-2.20144e-05
1.08284e-06
-8.21287e-07
-2.21326e-05
5.62009e-07
-4.26963e-07
-2.2076e-05
3.51233e-07
-3.78631e-07
-2.18142e-05
2.54051e-07
-4.76858e-07
3.16717e-07
-2.08895e-05
-1.19614e-06
2.04571e-05
-1.66646e-06
-1.98426e-05
1.09713e-06
2.18869e-05
-1.06981e-06
2.21931e-05
-1.29497e-08
2.2233e-05
3.40565e-07
2.21994e-05
6.11921e-07
2.23087e-05
9.74657e-07
2.44029e-05
1.15323e-06
2.1463e-05
-4.19055e-07
2.0329e-05
8.32278e-07
2.56873e-05
3.12968e-06
-8.56242e-06
2.4371e-05
1.62129e-07
1.0481e-06
2.47423e-05
-2.45901e-05
-4.55547e-06
-2.03066e-05
-2.19984e-06
2.40427e-05
2.29675e-08
1.85286e-07
2.39058e-05
-1.77426e-08
1.86855e-08
2.38675e-05
-6.21812e-08
-5.20139e-08
2.38079e-05
-3.32135e-08
-7.53319e-08
2.37937e-05
-1.16568e-07
-5.23905e-08
2.37285e-05
-9.14036e-08
-4.01827e-08
2.36708e-05
-1.10874e-07
-4.05293e-08
2.36147e-05
-1.53812e-07
-1.0711e-08
2.35623e-05
-1.87039e-07
9.07239e-09
2.34777e-05
-1.6167e-07
6.9662e-09
2.34123e-05
-1.91943e-07
1.00589e-08
2.33199e-05
-1.92251e-07
3.00028e-08
2.31995e-05
-1.87373e-07
4.65814e-08
2.31085e-05
-2.32541e-07
5.6266e-08
-3.06429e-07
2.31047e-05
3.54142e-08
-2.30802e-05
2.29337e-05
-4.27507e-07
-2.32017e-05
-3.72618e-07
-2.32308e-05
-4.13802e-07
-2.33315e-05
-3.40449e-07
-2.33993e-05
-3.66169e-07
-2.3437e-05
-3.58399e-07
-2.34434e-05
-4.06157e-07
-2.35997e-05
-2.13321e-07
-2.36245e-05
-2.91375e-07
-2.36319e-05
-2.77003e-07
-2.37568e-05
-1.71586e-07
-2.37812e-05
-1.7374e-07
-2.38637e-05
-1.29685e-07
-2.39434e-05
-7.15528e-08
-2.4309e-05
2.71046e-07
-2.55371e-05
1.28713e-06
-1.99888e-05
4.31425e-06
-9.93359e-06
-2.08509e-05
3.13595e-06
-2.00551e-05
1.97907e-06
-2.04112e-05
6.36845e-07
-2.98019e-07
-2.17651e-05
-6.33241e-07
-2.20122e-05
-5.68512e-07
-2.20829e-05
-3.37635e-07
-2.20047e-05
-4.26471e-07
-2.16222e-05
-8.19176e-07
-2.13852e-05
-1.38513e-06
-2.19326e-07
4.94277e-08
2.29928e-05
-4.68025e-07
2.29081e-05
2.19311e-05
-2.12241e-06
-2.08267e-05
2.21902e-05
-2.2973e-07
2.2293e-05
2.68368e-07
2.23314e-05
5.9054e-07
2.26301e-05
6.7732e-07
2.31048e-05
6.6237e-07
2.23341e-05
3.1733e-07
2.23791e-05
7.34199e-07
2.40185e-05
1.4164e-06
2.41423e-05
8.27537e-07
2.39568e-05
2.55215e-07
2.38614e-05
-1.94447e-08
2.37996e-05
-1.39822e-07
2.37713e-05
-2.13054e-07
2.37326e-05
-1.94034e-07
2.36563e-05
-1.58015e-07
2.36209e-05
-2.11312e-07
2.35556e-05
-1.62082e-07
2.34892e-05
-1.51391e-07
2.34093e-05
-1.48879e-07
2.33586e-05
-1.83117e-07
2.32817e-05
-1.4391e-07
2.32104e-05
-1.40049e-07
2.3124e-05
-1.2242e-07
2.30208e-05
-1.33258e-07
-2.32779e-06
-1.99116e-05
2.44764e-06
-1.74207e-07
2.29653e-05
-4.09966e-06
-1.84841e-05
-2.08445e-05
-2.68662e-06
-2.28044e-05
2.27819e-05
-7.06405e-07
-2.29301e-05
-5.55882e-07
-2.29391e-05
-6.1163e-07
-2.30752e-05
-5.19701e-07
-2.31083e-05
-5.43435e-07
-2.31519e-05
-5.51745e-07
-2.32149e-05
-5.17375e-07
-2.33679e-05
-4.67507e-07
-2.33445e-05
-4.42211e-07
-2.33865e-05
-4.44365e-07
-2.3505e-05
-3.42273e-07
-2.35396e-05
-3.08038e-07
-2.3599e-05
-2.71295e-07
-2.36679e-05
-2.03033e-07
-2.38255e-05
-4.11817e-08
-2.3982e-05
3.18472e-07
-2.38905e-05
1.10592e-06
-2.18766e-05
2.23264e-06
-2.09747e-05
2.1862e-06
-2.07753e-05
1.74906e-06
-2.09123e-05
7.57029e-07
-2.15053e-05
-4.45295e-08
-2.1854e-05
-2.11409e-07
-2.1955e-05
-2.15845e-07
-2.20198e-05
-3.29362e-07
-2.19064e-05
-8.90403e-07
-2.16033e-05
-1.63799e-06
-1.70922e-05
2.49174e-05
-2.21129e-05
1.04004e-05
-1.91511e-05
-6.71609e-06
1.55197e-05
-1.27636e-05
-1.12873e-05
1.40917e-05
1.00089e-05
1.34405e-05
2.44339e-05
1.73912e-06
-3.90351e-06
-2.21971e-05
2.23984e-05
-2.45927e-08
2.22945e-05
-7.97118e-08
2.22737e-05
3.21783e-07
2.23926e-05
4.90124e-07
2.25619e-05
5.11102e-07
2.27675e-05
4.43052e-07
2.26922e-05
3.61215e-07
2.28238e-05
5.52258e-07
2.34341e-05
7.36415e-07
2.36904e-05
4.81577e-07
2.37101e-05
1.27435e-07
2.36826e-05
-1.17257e-07
2.36711e-05
-2.70564e-07
2.35988e-05
-2.98938e-07
2.35617e-05
-3.29152e-07
2.35386e-05
-3.2006e-07
2.34393e-05
-3.08788e-07
2.33726e-05
-3.02662e-07
2.33011e-05
-2.96318e-07
2.32866e-05
-3.5925e-07
2.31958e-05
-3.24231e-07
2.31111e-05
-2.98148e-07
2.30736e-05
-3.4811e-07
2.30424e-05
-3.4365e-07
2.29487e-05
-2.9864e-07
2.28224e-05
-3.13303e-07
1.42494e-07
2.27678e-05
-3.60245e-07
-2.35985e-08
2.28462e-05
-1.9532e-07
2.28756e-05
-4.03967e-07
2.28345e-05
-1.64148e-05
1.61789e-05
-1.86422e-05
2.2701e-05
-5.90799e-07
-2.05682e-05
-1.93507e-05
2.29497e-05
-1.54656e-05
2.46911e-05
1.22867e-05
-2.14264e-05
-5.05851e-06
-1.98284e-05
1.96915e-05
-1.55198e-05
2.09085e-05
-2.49751e-05
1.76049e-05
1.70036e-05
-1.76228e-05
-2.49811e-05
-9.03353e-08
5.22805e-06
-2.15949e-05
-2.63745e-06
2.55395e-07
-4.12114e-07
2.26449e-05
5.04727e-08
2.27578e-05
-1.42504e-07
2.27723e-05
-3.97303e-07
2.27989e-05
-6.25023e-07
2.26538e-05
-2.25347e-05
-8.20058e-07
2.24774e-05
-2.24839e-05
-8.87028e-07
-2.26329e-05
-7.95986e-07
-2.26072e-05
-8.14663e-07
-2.27434e-05
-7.02715e-07
-2.2767e-05
-7.1825e-07
-2.28048e-05
-7.22024e-07
-2.2817e-05
-7.49746e-07
-2.28735e-05
-6.64398e-07
-2.29597e-05
-5.77689e-07
-2.30288e-05
-5.61544e-07
-2.31189e-05
-5.33937e-07
-2.31529e-05
-4.77281e-07
-2.32084e-05
-4.09891e-07
-2.32638e-05
-3.60234e-07
-2.33022e-05
-2.94901e-07
-2.33873e-05
-7.07987e-08
-2.33604e-05
1.92999e-07
-2.30356e-05
7.00681e-07
-2.2124e-05
1.25981e-06
-2.15488e-05
1.56758e-06
-2.09931e-05
1.16557e-06
-2.1031e-05
7.81247e-07
-2.13518e-05
2.75419e-07
-2.15649e-05
1.3087e-08
-2.17721e-05
1.44762e-08
-2.18941e-05
-1.73379e-07
-2.20579e-05
-6.82951e-07
-1.57941e-06
-2.20651e-05
1.96521e-06
-1.68037e-06
-2.24814e-05
2.22746e-05
2.21963e-05
-2.69803e-05
2.35107e-05
-1.85979e-05
1.69883e-05
-1.62047e-05
1.71821e-05
2.10698e-05
1.13348e-06
2.79947e-06
2.2395e-05
3.46398e-06
-4.71228e-06
2.28361e-05
3.53599e-06
2.2721e-05
2.97228e-06
-2.77543e-06
2.2511e-05
2.25315e-06
2.26332e-05
1.77469e-06
-1.82392e-06
2.3119e-05
1.32024e-06
2.25733e-05
5.79379e-07
2.23163e-05
2.23686e-07
2.2269e-05
4.0303e-07
2.23587e-05
4.20796e-07
2.24521e-05
4.23337e-07
2.26094e-05
2.75719e-07
2.26346e-05
3.09129e-07
2.28023e-05
3.39947e-07
2.31232e-05
3.52539e-07
2.33212e-05
2.0283e-07
2.33596e-05
-8.90518e-09
2.33429e-05
-2.15509e-07
2.33657e-05
-4.24139e-07
2.3295e-05
-3.73437e-07
2.32783e-05
-4.70959e-07
2.32114e-05
-4.23732e-07
2.31487e-05
-4.27901e-07
2.30736e-05
-4.18829e-07
2.30908e-05
-5.12895e-07
2.30006e-05
-4.76151e-07
2.29118e-05
-4.49393e-07
2.29128e-05
-5.1979e-07
2.29037e-05
-5.65979e-07
2.28211e-05
-4.93751e-07
2.27747e-05
-4.91023e-07
2.27236e-05
-5.07362e-07
2.26573e-05
-5.4541e-07
-6.28549e-07
2.26148e-05
1.68152e-06
4.12968e-05
-3.26086e-05
-1.02715e-05
-1.93336e-05
1.85787e-05
-2.28388e-05
2.22886e-05
8.51641e-06
-7.84095e-06
-8.62521e-07
1.37694e-05
9.28784e-07
-1.38052e-05
-3.00328e-05
-6.31474e-06
1.09732e-05
2.54887e-05
-1.97486e-05
-1.49636e-05
-4.56736e-06
-2.20213e-05
-2.19449e-05
-2.45293e-06
2.27942e-05
-2.21084e-05
2.21197e-05
-1.05207e-06
-2.22346e-05
-9.75738e-07
-2.21954e-05
-1.04494e-06
-2.23486e-05
-8.66151e-07
-2.23516e-05
-9.00309e-07
-2.23841e-05
-8.81644e-07
-2.24239e-05
-8.73234e-07
-2.24897e-05
-8.70135e-07
-2.25659e-05
-7.68831e-07
-2.25846e-05
-7.33369e-07
-2.26334e-05
-6.79937e-07
-2.26958e-05
-6.30776e-07
-2.27169e-05
-6.06051e-07
-2.27904e-05
-4.75853e-07
-2.28337e-05
-4.44814e-07
-2.2908e-05
-3.35031e-07
-2.28626e-05
-2.16132e-07
-2.2782e-05
2.7394e-08
-2.24942e-05
3.42829e-07
-2.19906e-05
7.03201e-07
-2.14754e-05
1.01565e-06
-2.1042e-05
7.10057e-07
-2.10108e-05
7.41043e-07
-2.11899e-05
4.57638e-07
-2.13517e-05
1.89524e-07
-2.15224e-05
2.10739e-07
-2.17027e-05
4.25494e-08
-2.18614e-05
-4.80093e-07
-2.22974e-05
-1.09172e-06
-2.37308e-06
-2.22703e-05
-1.81257e-05
-1.72651e-05
1.99678e-05
-7.50168e-06
-2.22334e-05
2.14555e-05
8.35759e-06
2.19428e-05
2.86429e-06
-2.35827e-05
2.23134e-05
3.1766e-06
2.25014e-05
3.42959e-06
2.24226e-05
3.13015e-06
2.23719e-05
2.37909e-06
2.24204e-05
1.79657e-06
2.25063e-05
1.29849e-06
2.23274e-05
8.14159e-07
2.20908e-05
5.06251e-07
2.21294e-05
3.99232e-07
2.21388e-05
4.3397e-07
2.22687e-05
3.02497e-07
2.23518e-05
1.87275e-07
2.24421e-05
1.97784e-07
2.25806e-05
1.6382e-07
2.27608e-05
1.18422e-07
2.29016e-05
-7.0283e-09
2.30009e-05
-1.94512e-07
2.30573e-05
-3.73437e-07
2.29775e-05
-4.59975e-07
2.29797e-05
-5.04736e-07
2.28747e-05
-5.07095e-07
2.28167e-05
-5.18053e-07
2.27497e-05
-5.227e-07
2.27869e-05
-6.26257e-07
2.27033e-05
-6.07199e-07
2.26159e-05
-5.73297e-07
2.26272e-05
-6.51059e-07
2.26373e-05
-7.25952e-07
2.25441e-05
-6.73943e-07
2.24835e-05
-6.39164e-07
2.2479e-05
-6.97627e-07
2.24356e-05
-6.80748e-07
2.24161e-05
-7.48521e-07
2.23455e-05
-7.8701e-07
6.76254e-07
-8.5865e-07
2.2293e-05
4.80727e-07
2.25441e-05
2.91438e-07
2.25467e-05
8.62271e-08
2.26622e-05
-2.1409e-07
2.27679e-05
-3.71768e-07
2.26578e-05
-5.54729e-07
2.25537e-05
-7.60667e-07
2.24232e-05
2.21335e-05
-1.00207e-06
-2.48815e-05
-8.69233e-06
1.08558e-05
-1.29967e-06
2.67279e-06
-3.837e-05
3.71354e-05
-9.74133e-06
8.27749e-06
-8.00161e-06
9.47698e-06
-2.44707e-05
-1.4494e-05
2.03273e-05
2.07252e-05
-2.39624e-05
-6.10553e-06
9.71868e-06
1.32966e-05
-2.24907e-05
-2.1213e-06
-3.63513e-06
-2.31368e-05
-1.60112e-05
-1.87349e-05
1.67108e-05
-1.97767e-05
-1.28117e-05
8.2222e-06
-2.5846e-05
1.52057e-05
-1.77883e-05
2.85436e-05
1.63654e-05
1.83209e-05
2.17095e-05
-2.1668e-05
2.89888e-06
2.15354e-05
3.42744e-06
2.17129e-05
3.32772e-06
2.18249e-05
3.09223e-06
2.18824e-05
2.39263e-06
2.19354e-05
1.8104e-06
2.19451e-05
1.34992e-06
2.18794e-05
9.33852e-07
2.17982e-05
6.33068e-07
2.17764e-05
4.56969e-07
2.18652e-05
3.70279e-07
2.1931e-05
2.49935e-07
2.19939e-05
1.24419e-07
2.2092e-05
8.54002e-08
2.21987e-05
2.82893e-08
2.23221e-05
-4.83276e-08
2.24335e-05
-1.76446e-07
2.25101e-05
-3.42446e-07
2.24923e-05
-4.41177e-07
2.24521e-05
-5.1748e-07
2.24049e-05
-5.66788e-07
2.23684e-05
-5.90876e-07
2.2307e-05
-5.86143e-07
2.23437e-05
-6.97076e-07
2.2279e-05
-7.06571e-07
2.21688e-05
-6.48306e-07
2.2199e-05
-7.59772e-07
2.222e-05
-8.34131e-07
2.21336e-05
-8.05815e-07
2.20722e-05
-7.82216e-07
2.20953e-05
-8.35673e-07
2.20202e-05
-7.999e-07
2.20228e-05
-8.64901e-07
2.2018e-05
-9.29851e-07
2.19846e-05
-9.44903e-07
2.19309e-05
-1.00232e-06
9.17101e-07
-1.06723e-06
2.18776e-05
7.25694e-07
2.22421e-05
5.97478e-07
2.23986e-05
2.57145e-07
2.25912e-05
-8.1628e-09
2.26183e-05
-1.67297e-07
2.26133e-05
-3.78696e-07
2.25617e-05
-6.44446e-07
2.25276e-05
-8.08955e-07
2.23198e-05
-9.89513e-07
2.20788e-05
-2.16345e-05
2.16123e-05
-1.16199e-06
-2.16632e-05
-1.16201e-06
-2.17363e-05
-1.16245e-06
-2.17603e-05
-1.13e-06
-2.1877e-05
-1.10298e-06
-2.18392e-05
-1.07476e-06
-2.187e-05
-1.03684e-06
-2.19057e-05
-1.00996e-06
-2.19257e-05
-1.01371e-06
-2.20317e-05
-9.21138e-07
-2.20734e-05
-8.80139e-07
-2.21186e-05
-8.36066e-07
-2.21413e-05
-7.99203e-07
-2.22061e-05
-7.01233e-07
-2.22534e-05
-6.86206e-07
-2.22679e-05
-5.79864e-07
-2.22909e-05
-5.30191e-07
-2.23118e-05
-4.11201e-07
-2.22943e-05
-3.1824e-07
-2.21998e-05
-1.38215e-07
-2.19983e-05
8.35945e-08
-2.16764e-05
3.37887e-07
-2.13631e-05
6.73518e-07
-2.10518e-05
3.83152e-07
-2.09921e-05
6.77984e-07
-2.0957e-05
4.30247e-07
-2.10432e-05
2.94098e-07
-2.11654e-05
3.61141e-07
-2.13513e-05
2.65554e-07
-2.17236e-05
-6.2949e-08
-7.95566e-07
-2.19685e-05
-1.90797e-05
-1.8073e-05
1.99911e-05
-3.09019e-06
-2.29726e-05
-2.60045e-05
-3.51152e-06
6.4557e-06
-1.35013e-06
-1.55875e-05
-2.01065e-05
2.13504e-05
-2.02484e-05
-1.38114e-05
1.98292e-05
-1.28735e-05
-1.19978e-05
1.69458e-05
-1.83135e-05
-8.15021e-06
1.90403e-05
2.51919e-06
5.87266e-07
2.11691e-05
2.09377e-06
-2.06756e-05
2.07185e-05
3.42102e-06
2.06173e-05
3.59882e-06
2.06787e-05
3.33545e-06
2.0954e-05
2.88479e-06
2.10993e-05
2.31304e-06
2.12276e-05
1.7445e-06
2.12334e-05
1.40184e-06
2.12469e-05
9.72404e-07
2.12429e-05
6.82318e-07
2.12643e-05
4.72827e-07
2.13472e-05
3.15562e-07
2.1409e-05
2.06042e-07
2.14684e-05
7.13624e-08
2.15423e-05
5.52582e-09
2.16348e-05
-8.1862e-08
2.17373e-05
-1.80417e-07
2.179e-05
-2.71961e-07
2.18315e-05
-4.39045e-07
2.18241e-05
-5.00195e-07
2.17973e-05
-5.6798e-07
2.17646e-05
-6.21344e-07
2.17376e-05
-6.60184e-07
2.17439e-05
-6.96605e-07
2.16915e-05
-7.55485e-07
2.15893e-05
-7.20813e-07
2.16378e-05
-8.18063e-07
2.16522e-05
-8.99731e-07
2.15635e-05
-8.7471e-07
2.14981e-05
-8.71904e-07
2.15191e-05
-9.37188e-07
2.14424e-05
-8.95852e-07
2.14778e-05
-9.74313e-07
2.14921e-05
-1.0212e-06
2.14348e-05
-1.01768e-06
2.14275e-05
-1.08647e-06
2.14123e-05
-1.14009e-06
2.13811e-05
-1.19384e-06
1.16241e-06
2.13176e-05
-1.26217e-06
1.02461e-06
2.1806e-05
8.29736e-07
2.21871e-05
5.89688e-07
2.23572e-05
4.20716e-07
2.24548e-05
1.18226e-07
2.26017e-05
-1.59053e-07
2.25677e-05
-4.47169e-07
2.25327e-05
-6.36711e-07
2.24157e-05
-8.71287e-07
2.22785e-05
-1.00879e-06
2.19737e-05
-1.15281e-06
2.15549e-05
-2.1003e-05
2.09666e-05
-1.2713e-06
-2.10357e-05
-1.27835e-06
-2.10657e-05
-1.27628e-06
-2.11119e-05
-1.25634e-06
-2.11474e-05
-1.23112e-06
-2.11799e-05
-1.20476e-06
-2.12219e-05
-1.16478e-06
-2.12594e-05
-1.12936e-06
-2.13065e-05
-1.09077e-06
-2.13837e-05
-1.06235e-06
-2.13941e-05
-1.0344e-06
-2.14603e-05
-9.3491e-07
-2.15116e-05
-9.02581e-07
-2.15633e-05
-8.61109e-07
-2.15827e-05
-7.90008e-07
-2.16314e-05
-7.39416e-07
-2.16317e-05
-6.74322e-07
-2.16868e-05
-5.61614e-07
-2.1669e-05
-5.05952e-07
-2.16473e-05
-4.06355e-07
-2.157e-05
-2.71241e-07
-2.14237e-05
-1.05718e-07
-2.12202e-05
1.0236e-07
-2.09046e-05
3.38091e-07
-2.08304e-05
3.0089e-07
-2.06421e-05
4.92614e-07
-2.06188e-05
4.19902e-07
-2.05946e-05
2.92164e-07
-2.06458e-05
4.43067e-07
-2.07718e-05
4.29609e-07
-2.10138e-05
2.2333e-07
-3.07716e-07
-2.14519e-05
-2.22652e-05
-1.76843e-06
-1.7919e-05
-1.9794e-05
-1.85075e-05
-2.03195e-05
2.08631e-05
7.35592e-06
1.3551e-05
-1.5853e-05
-5.02518e-06
-2.24367e-05
-2.85774e-06
-1.8701e-05
-7.90244e-06
4.44786e-06
-2.00467e-05
-1.05703e-05
-2.01995e-05
-1.26253e-05
-4.90861e-07
-7.67634e-06
-1.77762e-05
-8.68606e-06
-1.90737e-05
1.53444e-06
-2.31833e-05
-3.23323e-06
-1.58321e-05
-1.99094e-05
-1.90546e-05
-1.48523e-05
1.25892e-06
-1.32134e-06
2.12121e-05
1.08515e-06
2.17635e-05
9.09149e-07
2.21052e-05
7.02407e-07
2.22737e-05
4.17533e-07
2.24258e-05
1.86796e-07
2.25033e-05
-1.25658e-07
2.25466e-05
-3.73235e-07
2.24533e-05
-6.46093e-07
2.23777e-05
-8.33438e-07
2.21807e-05
-9.95258e-07
2.18847e-05
-1.15386e-06
2.15051e-05
-1.3022e-06
2.09539e-05
-2.02462e-05
-1.38011e-06
2.02145e-05
-2.02337e-05
-1.38855e-06
-2.02689e-05
-1.3439e-06
-2.02862e-05
-1.35688e-06
-2.03347e-05
-1.30295e-06
-2.03733e-05
-1.28552e-06
-2.03977e-05
-1.27183e-06
-2.04453e-05
-1.20768e-06
-2.04759e-05
-1.18847e-06
-2.05335e-05
-1.12232e-06
-2.05929e-05
-1.09152e-06
-2.06602e-05
-1.05504e-06
-2.06699e-05
-1.01204e-06
-2.07262e-05
-9.31649e-07
-2.07768e-05
-8.93276e-07
-2.07942e-05
-8.51759e-07
-2.08401e-05
-7.68231e-07
-2.08752e-05
-7.08256e-07
-2.08601e-05
-6.39827e-07
-2.08752e-05
-5.46274e-07
-2.08584e-05
-4.70371e-07
-2.08015e-05
-3.65424e-07
-2.06998e-05
-2.35991e-07
-2.05416e-05
-7.47824e-08
-2.03182e-05
1.05425e-07
-2.00974e-05
8.03673e-08
-2.01022e-05
5.0706e-07
-1.99342e-05
2.70094e-07
-1.99988e-05
3.82805e-07
-1.99208e-05
3.98001e-07
-1.99518e-05
4.99248e-07
-2.01644e-05
4.79489e-07
2.65015e-07
-2.06888e-05
-1.31108e-06
-2.18547e-05
1.77688e-05
-1.47406e-05
-1.91412e-05
-1.64151e-05
-2.15092e-05
1.07953e-05
-2.82917e-06
3.86841e-06
-1.18099e-05
2.91547e-05
-8.3164e-07
-2.86676e-05
4.66073e-07
1.9133e-05
3.87166e-06
-1.95174e-05
1.92675e-05
3.52758e-06
1.95495e-05
3.11503e-06
1.98529e-05
2.64216e-06
2.00603e-05
2.16507e-06
2.02294e-05
1.63268e-06
2.0327e-05
1.35825e-06
2.04015e-05
9.4805e-07
2.04578e-05
6.70956e-07
2.05166e-05
4.52857e-07
2.0583e-05
2.80822e-07
2.06754e-05
1.36722e-07
2.07378e-05
2.24061e-08
2.08086e-05
-6.14535e-08
2.08772e-05
-1.5658e-07
2.09409e-05
-2.60359e-07
2.10179e-05
-3.76001e-07
2.10058e-05
-4.63934e-07
2.09973e-05
-5.38109e-07
2.09774e-05
-6.03373e-07
2.0952e-05
-6.59454e-07
2.09289e-05
-7.07658e-07
2.09098e-05
-7.54451e-07
2.08737e-05
-8.01365e-07
2.09001e-05
-8.33493e-07
2.08408e-05
-8.48218e-07
2.07993e-05
-9.50083e-07
2.07481e-05
-9.16715e-07
2.07565e-05
-9.74927e-07
2.06875e-05
-9.63947e-07
2.07072e-05
-1.01186e-06
2.07259e-05
-1.09024e-06
2.06571e-05
-1.05069e-06
2.06458e-05
-1.1062e-06
2.06506e-05
-1.19347e-06
2.06632e-05
-1.25753e-06
2.06289e-05
-1.26759e-06
2.05947e-05
-1.33919e-06
2.0531e-05
-1.37317e-06
-1.8566e-05
-2.15691e-05
2.174e-05
-1.96708e-05
-2.03334e-05
4.03741e-05
-1.6101e-06
3.09724e-06
-4.17773e-05
-1.97696e-05
-3.84055e-06
-1.44495e-05
-2.21214e-05
-3.4835e-06
-1.92447e-05
1.92147e-05
-1.40609e-06
-1.92889e-05
-1.39686e-06
-1.92851e-05
-1.3983e-06
-1.93385e-05
-1.35236e-06
-1.93437e-05
-1.34509e-06
-1.93951e-05
-1.28102e-06
-1.94427e-05
-1.27122e-06
-1.94567e-05
-1.2409e-06
-1.95211e-05
-1.17203e-06
-1.95376e-05
-1.15489e-06
-1.95995e-05
-1.07982e-06
-1.96494e-05
-1.05628e-06
-1.9703e-05
-1.01004e-06
-1.97237e-05
-9.62874e-07
-1.97753e-05
-8.92542e-07
-1.98239e-05
-8.524e-07
-1.98411e-05
-7.97564e-07
-1.98638e-05
-7.28473e-07
-1.98822e-05
-6.59579e-07
-1.98752e-05
-5.86391e-07
-1.98665e-05
-5.06072e-07
-1.98282e-05
-4.2386e-07
-1.97543e-05
-3.21994e-07
-1.96321e-05
-2.01267e-07
-1.94653e-05
-5.90782e-08
-1.944e-05
6.46763e-08
-1.91628e-05
2.46483e-07
-1.9037e-05
1.67915e-07
-1.89939e-05
3.69117e-07
-1.89633e-05
4.01863e-07
-1.88919e-05
4.66212e-07
-1.89631e-05
5.92732e-07
-1.94689e-05
8.16747e-07
-6.23515e-07
-2.13231e-05
1.676e-05
-1.36617e-05
1.47559e-05
-2.20924e-05
-1.41391e-05
1.38297e-06
-1.41689e-06
2.04453e-05
1.27229e-06
2.11491e-05
1.12358e-06
2.1689e-05
9.77235e-07
2.19863e-05
7.15903e-07
2.22364e-05
4.11369e-07
2.24068e-05
1.44883e-07
2.24309e-05
-6.65945e-08
2.24148e-05
-3.65858e-07
2.24156e-05
-6.0078e-07
2.2292e-05
-8.12624e-07
2.20981e-05
-1.04466e-06
2.18575e-05
-1.20996e-06
2.14542e-05
-1.32188e-06
2.08983e-05
-1.40232e-06
2.01801e-05
-1.47321e-06
1.9226e-05
2.1227e-05
-1.45932e-05
-2.12799e-05
2.0045e-05
-1.40636e-05
1.91169e-05
-1.16011e-05
1.81421e-05
-9.51029e-06
-7.99481e-06
-1.63149e-05
1.54646e-05
1.72984e-05
-7.02497e-06
-2.45898e-05
-6.44859e-06
6.14805e-06
2.50331e-07
5.7835e-08
-4.70035e-06
-1.33326e-05
1.23671e-05
1.72246e-05
3.41345e-06
-1.67098e-05
1.77188e-05
3.08727e-06
1.81613e-05
2.72542e-06
1.85189e-05
2.33741e-06
1.88221e-05
1.91449e-06
1.89813e-05
1.52535e-06
1.9202e-05
1.18776e-06
1.93247e-05
8.73325e-07
1.94262e-05
6.14237e-07
1.95168e-05
4.02806e-07
1.9602e-05
2.30729e-07
1.96782e-05
8.88959e-08
1.97527e-05
-3.09918e-08
1.98274e-05
-1.21169e-07
1.98996e-05
-2.22124e-07
1.99503e-05
-3.13054e-07
1.99698e-05
-4.05537e-07
1.99737e-05
-4.85912e-07
1.99661e-05
-5.56202e-07
1.99494e-05
-6.1939e-07
1.99271e-05
-6.76112e-07
1.99027e-05
-7.2745e-07
1.98768e-05
-7.77166e-07
1.98477e-05
-8.24325e-07
1.98261e-05
-8.65999e-07
1.98254e-05
-9.03232e-07
1.97686e-05
-9.49485e-07
1.97631e-05
-9.67433e-07
1.97126e-05
-9.80418e-07
1.97183e-05
-1.02497e-06
1.97393e-05
-1.08751e-06
1.96525e-05
-1.05738e-06
1.96829e-05
-1.13399e-06
1.97078e-05
-1.18396e-06
1.97016e-05
-1.24033e-06
1.96352e-05
-1.24503e-06
1.96296e-05
-1.31701e-06
1.96106e-05
-1.37741e-06
1.95661e-05
-1.38768e-06
1.95241e-05
-1.43731e-06
2.7707e-06
4.0355e-05
-2.66954e-06
-3.04902e-06
-2.16051e-05
-1.40276e-05
7.7485e-06
-1.81758e-05
-2.31103e-05
2.28344e-05
-1.79867e-05
-2.30819e-05
-2.01734e-05
-2.16146e-05
-4.15705e-05
-5.01594e-06
4.50771e-05
3.41773e-05
-5.13082e-07
-3.18872e-05
1.88125e-05
-3.24315e-06
-2.26491e-05
1.72458e-06
-2.17627e-05
1.81403e-05
1.31507e-05
-1.39101e-05
-9.29422e-06
-2.72592e-05
1.17931e-05
6.03324e-06
-1.01373e-05
-8.2087e-06
1.23369e-05
-5.54838e-07
-3.98504e-05
-2.42743e-06
4.29742e-05
-1.80172e-05
1.7975e-05
-1.43478e-06
-1.80358e-05
-1.38886e-06
-1.80411e-05
-1.39169e-06
-1.80814e-05
-1.35723e-06
-1.80959e-05
-1.33687e-06
-1.81462e-05
-1.29425e-06
-1.81499e-05
-1.27797e-06
-1.81975e-05
-1.2257e-06
-1.82483e-05
-1.19391e-06
-1.82724e-05
-1.15403e-06
-1.83255e-05
-1.11025e-06
-1.83492e-05
-1.06736e-06
-1.83943e-05
-1.02499e-06
-1.84397e-05
-9.80574e-07
-1.84879e-05
-9.32452e-07
-1.85199e-05
-8.7965e-07
-1.85602e-05
-8.31202e-07
-1.85973e-05
-7.78492e-07
-1.86209e-05
-7.21309e-07
-1.86303e-05
-6.64038e-07
-1.86383e-05
-5.888e-07
-1.86256e-05
-5.24922e-07
-1.86003e-05
-4.50647e-07
-1.85512e-05
-3.67589e-07
-1.84587e-05
-2.84177e-07
-1.83153e-05
-1.8743e-07
-1.81894e-05
-4.20607e-08
-1.80879e-05
1.69181e-07
-1.79663e-05
7.51964e-08
-1.7853e-05
2.88765e-07
-1.77526e-05
3.37436e-07
-1.76903e-05
4.42073e-07
-1.7714e-05
6.56416e-07
-1.77305e-05
8.7492e-07
1.65671e-06
-1.76186e-05
2.01282e-05
-1.24831e-05
-2.54261e-05
2.14805e-05
-1.18854e-05
1.86892e-05
-1.26455e-05
-3.13313e-05
1.48905e-06
-1.48411e-06
1.94534e-05
1.44826e-06
2.0362e-05
1.31642e-06
2.11016e-05
1.18204e-06
2.15931e-05
9.65356e-07
2.19305e-05
7.20904e-07
2.21737e-05
5.07151e-07
2.22876e-05
2.57343e-07
2.23322e-05
-6.43092e-08
2.23832e-05
-3.21887e-07
2.23261e-05
-5.7078e-07
2.2211e-05
-8.28607e-07
2.20522e-05
-1.03779e-06
2.17985e-05
-1.20011e-06
2.13922e-05
-1.34516e-06
2.08696e-05
-1.43581e-06
2.01504e-05
-1.44547e-06
1.91718e-05
-1.43679e-06
1.79599e-05
-1.59844e-05
1.92939e-05
-1.27946e-05
1.78293e-05
-1.00432e-05
1.6471e-05
-8.07061e-06
1.48912e-05
-6.34676e-06
-6.79112e-06
1.35948e-05
1.00644e-06
-1.76561e-06
2.20306e-05
-2.55592e-05
1.51962e-05
3.3787e-06
-1.44518e-05
-4.08119e-06
1.56699e-05
2.98306e-06
1.61695e-05
2.63118e-06
1.66367e-05
2.30219e-06
1.70481e-05
1.971e-06
1.73721e-05
1.63647e-06
1.76272e-05
1.31683e-06
1.78436e-05
1.01786e-06
1.80045e-05
7.58266e-07
1.81384e-05
5.24757e-07
1.82528e-05
3.30323e-07
1.83513e-05
1.70694e-07
1.84355e-05
3.87124e-08
1.851e-05
-7.49527e-08
1.85789e-05
-1.65905e-07
1.86317e-05
-2.56117e-07
1.8672e-05
-3.40536e-07
1.86923e-05
-4.19134e-07
1.86979e-05
-4.90766e-07
1.8691e-05
-5.54347e-07
1.86751e-05
-6.1344e-07
1.86536e-05
-6.68937e-07
1.8628e-05
-7.19635e-07
1.85999e-05
-7.6931e-07
1.85687e-05
-8.15002e-07
1.85397e-05
-8.59425e-07
1.8515e-05
-9.00464e-07
1.84843e-05
-9.39541e-07
1.84665e-05
-9.68503e-07
1.84698e-05
-1.0004e-06
1.84644e-05
-1.03377e-06
1.84014e-05
-1.03626e-06
1.84262e-05
-1.0917e-06
1.84227e-05
-1.13754e-06
1.84298e-05
-1.19594e-06
1.83769e-05
-1.1908e-06
1.83928e-05
-1.26306e-06
1.83899e-05
-1.31674e-06
1.83285e-05
-1.31861e-06
1.83215e-05
-1.38389e-06
1.82772e-05
-1.39712e-06
1.82345e-05
-1.44694e-06
2.15831e-05
-1.42084e-05
-2.18731e-05
-3.35772e-06
-2.09577e-05
1.81117e-05
-2.06266e-05
-2.26747e-05
2.20277e-05
-1.47852e-05
1.5537e-05
-2.32133e-05
-1.59337e-05
1.6582e-05
-1.73595e-05
-2.39147e-05
-2.14401e-05
-3.58663e-06
-2.47684e-05
-2.33647e-05
-1.98012e-05
-2.28268e-05
-2.17502e-05
3.60188e-05
-3.52647e-05
-1.18116e-06
1.78756e-05
-1.29943e-05
1.11697e-05
-1.59522e-05
-3.58426e-05
3.28435e-05
-3.20401e-06
1.77033e-05
-1.12265e-05
1.53614e-05
7.31901e-07
-1.00044e-05
2.03989e-05
9.80154e-06
4.14261e-05
-4.07002e-05
2.45883e-06
2.93665e-06
4.13513e-05
1.6039e-05
1.01363e-06
1.61022e-05
8.48727e-07
1.62035e-05
5.92943e-07
1.62954e-05
3.8818e-07
1.64378e-05
2.32662e-07
1.65973e-05
1.65525e-07
1.66139e-05
9.27147e-08
1.68309e-05
-1.57942e-08
1.69344e-05
-1.15553e-07
1.7006e-05
-2.3267e-07
1.70639e-05
-3.19189e-07
1.70964e-05
-3.80278e-07
1.71088e-05
-4.4626e-07
1.71091e-05
-5.11236e-07
1.71056e-05
-5.73558e-07
1.70831e-05
-6.31365e-07
1.70579e-05
-6.86801e-07
1.70207e-05
-7.31883e-07
1.69838e-05
-7.83825e-07
1.69467e-05
-8.30177e-07
1.69028e-05
-8.73236e-07
1.68625e-05
-9.21692e-07
1.68201e-05
-9.59815e-07
1.6779e-05
-9.99456e-07
1.67435e-05
-1.04391e-06
1.67058e-05
-1.08141e-06
1.66699e-05
-1.11911e-06
1.66437e-05
-1.15723e-06
1.66076e-05
-1.19671e-06
1.65744e-05
-1.2133e-06
1.6554e-05
-1.26673e-06
1.65219e-05
-1.27409e-06
1.64884e-05
-1.3066e-06
1.64771e-05
-1.32599e-06
1.64334e-05
-1.34035e-06
1.64188e-05
-1.37231e-06
3.08612e-06
4.10228e-05
-3.66274e-06
1.56295e-06
-1.50064e-06
1.81645e-05
1.56181e-06
1.9386e-05
1.48019e-06
2.03153e-05
1.37551e-06
2.10212e-05
1.23327e-06
2.14986e-05
1.01637e-06
2.18674e-05
8.19857e-07
2.20549e-05
5.68936e-07
2.21972e-05
2.60324e-07
2.22836e-05
-2.1026e-08
2.23009e-05
-2.97989e-07
2.22465e-05
-5.84872e-07
2.21578e-05
-8.45173e-07
2.19997e-05
-1.04802e-06
2.17253e-05
-1.23382e-06
2.13465e-05
-1.37653e-06
2.08317e-05
-1.43977e-06
2.00878e-05
-1.48355e-06
1.91477e-05
-1.43847e-06
1.79055e-05
-1.36701e-06
1.63958e-05
2.13938e-05
-1.22093e-05
-5.41551e-06
-1.96471e-05
-1.36708e-05
2.12207e-05
1.45767e-05
1.06915e-05
4.38256e-05
-3.39972e-05
-2.04257e-05
7.11455e-06
-3.79078e-05
4.42663e-06
-3.90077e-05
3.02141e-06
-3.92133e-05
3.93547e-05
1.84688e-06
-3.80988e-05
3.96575e-05
2.24426e-06
3.99955e-05
2.69067e-06
-4.28518e-06
5.67224e-06
3.86988e-05
1.21767e-05
-6.05935e-06
2.10689e-06
3.87946e-05
-3.84309e-05
-2.37319e-06
9.60241e-06
1.68324e-05
-8.47182e-06
8.09271e-06
1.54617e-05
-1.80678e-05
-5.3816e-06
1.75021e-05
-2.25266e-05
-1.37718e-05
2.16154e-05
-2.33368e-05
-1.50155e-05
-1.62995e-05
-2.42835e-05
-3.71871e-06
-2.09006e-05
2.09039e-05
-1.34459e-05
-2.15725e-05
2.09865e-06
-5.26613e-07
1.85674e-05
-9.77677e-06
1.65943e-05
-7.98208e-06
1.49326e-05
-6.3357e-06
1.41086e-05
-5.46231e-06
-5.17303e-06
1.25389e-05
-9.9291e-06
1.62596e-05
7.31186e-06
5.4357e-06
-2.60434e-06
-8.91245e-06
6.09602e-06
1.29267e-05
3.60137e-06
-4.29241e-06
-1.22055e-05
1.34854e-05
2.85121e-06
1.40278e-05
2.47308e-06
1.45298e-05
2.163e-06
1.49825e-05
1.88484e-06
1.53843e-05
1.60665e-06
1.57292e-05
1.33113e-06
1.60175e-05
1.06997e-06
1.62496e-05
8.28563e-07
1.64445e-05
6.06991e-07
1.6597e-05
4.1611e-07
1.67263e-05
2.44275e-07
1.68328e-05
1.06112e-07
1.69203e-05
-8.19694e-09
1.69924e-05
-1.09381e-07
1.70569e-05
-1.95831e-07
1.71036e-05
-2.72202e-07
1.71362e-05
-3.46377e-07
1.71528e-05
-4.12918e-07
1.71585e-05
-4.774e-07
1.71494e-05
-5.29901e-07
1.71312e-05
-5.83028e-07
1.71105e-05
-6.38455e-07
1.7082e-05
-6.83076e-07
1.70542e-05
-7.34058e-07
1.70181e-05
-7.71134e-07
1.69862e-05
-8.18833e-07
1.69536e-05
-8.57157e-07
1.69264e-05
-8.9862e-07
1.68956e-05
-9.20436e-07
1.68867e-05
-9.7013e-07
1.68699e-05
-9.91269e-07
1.68822e-05
-1.01878e-06
1.68802e-05
-1.0554e-06
1.68718e-05
-1.09108e-06
1.68285e-05
-1.11101e-06
1.68183e-05
-1.13561e-06
1.68236e-05
-1.22117e-06
1.67765e-05
-1.22022e-06
1.67786e-05
-1.27e-06
1.67565e-05
-1.31032e-06
1.67174e-05
-1.30643e-06
1.66915e-05
-1.36944e-06
1.6646e-05
-1.40413e-06
1.94473e-05
1.24068e-05
-2.05968e-05
1.80901e-05
1.10464e-05
-8.07688e-06
9.87219e-06
1.6374e-05
-3.22065e-05
1.86548e-06
3.25717e-05
-2.1006e-06
1.44739e-05
-5.64565e-06
-4.0269e-06
-2.04573e-05
-6.00835e-07
3.87835e-05
5.54919e-07
8.09836e-06
1.2553e-05
-6.11767e-06
4.84753e-06
3.92256e-05
-7.08842e-06
-3.68573e-05
-2.41781e-05
-2.18904e-05
-2.4369e-05
-1.90683e-05
-2.45281e-05
1.25109e-05
-2.09104e-05
1.95379e-05
2.1878e-05
-1.36645e-05
-2.3125e-05
2.07151e-05
4.02456e-05
-2.20707e-05
3.46814e-05
2.33555e-06
-8.61983e-07
-3.97021e-05
7.27453e-06
3.82075e-05
2.63588e-05
-2.29442e-05
-3.02666e-05
-1.57501e-05
-4.71758e-06
1.48981e-05
-6.62702e-06
-3.93512e-05
2.44033e-06
-3.87613e-05
1.74753e-06
-3.73702e-05
5.3991e-07
1.40867e-05
7.27828e-07
1.43512e-05
6.18089e-07
1.45107e-05
4.69711e-07
1.46426e-05
2.94282e-07
1.47528e-05
1.61594e-07
1.49021e-05
5.57233e-08
1.50034e-05
3.11226e-08
1.5136e-05
-1.08781e-07
1.51996e-05
-1.40694e-07
1.52465e-05
-2.4212e-07
1.52665e-05
-3.03029e-07
1.53e-05
-3.78711e-07
1.53105e-05
-4.2281e-07
1.53126e-05
-4.80334e-07
1.53008e-05
-5.28965e-07
1.52774e-05
-5.75065e-07
1.52485e-05
-6.24217e-07
1.52152e-05
-6.63184e-07
1.51766e-05
-7.07188e-07
1.51369e-05
-7.4863e-07
1.50943e-05
-7.84291e-07
1.50499e-05
-8.26074e-07
1.50089e-05
-8.62154e-07
1.49709e-05
-8.99474e-07
1.49298e-05
-9.34776e-07
1.48933e-05
-9.71252e-07
1.48606e-05
-1.00717e-06
1.48277e-05
-1.0401e-06
1.4792e-05
-1.07236e-06
1.47756e-05
-1.10439e-06
1.47285e-05
-1.12405e-06
1.47015e-05
-1.14912e-06
1.46852e-05
-1.19055e-06
1.46511e-05
-1.19094e-06
1.46337e-05
-1.221e-06
1.45947e-05
-1.23136e-06
1.45876e-05
-1.25786e-06
-1.24583e-05
-3.79951e-06
1.11232e-05
-1.37307e-05
-4.13765e-06
-1.51585e-05
-4.843e-06
-1.72175e-05
-5.8434e-06
-1.9804e-05
-7.09609e-06
-2.31716e-05
-8.40739e-06
-1.91423e-05
1.44793e-05
1.57616e-05
-9.30894e-06
2.07733e-05
-1.75262e-05
1.6869e-05
-1.25474e-05
2.05879e-05
1.13001e-05
1.81945e-05
-2.22708e-06
3.95141e-05
1.50157e-06
2.50805e-06
4.07236e-05
1.27967e-05
-2.32018e-05
-1.01014e-05
-1.47923e-05
-2.45221e-05
2.43746e-05
-8.26995e-06
5.59536e-06
-2.16244e-05
1.30645e-06
-1.93459e-05
1.34496e-06
-1.98462e-05
2.14003e-05
-1.26186e-05
8.54494e-06
-5.33822e-06
-3.37978e-05
3.0659e-05
-4.10309e-05