/*--------------------------------*- C++ -*----------------------------------*\
| =========                 |                                                 |
| \\      /  F ield         | OpenFOAM: The Open Source CFD Toolbox           |
|  \\    /   O peration     | Version:  2212                                  |
|   \\  /    A nd           | Website:  www.openfoam.com                      |
|    \\/     M anipulation  |                                                 |
\*---------------------------------------------------------------------------*/
FoamFile
{
    version     2.0;
    format      ascii;
    arch        "LSB;label=32;scalar=64";
    class       surfaceScalarField;
    location    "0.0108";
    object      phi;
}
// * * * * * * * * * * * * * * * * * * * * * * * * * * * * * * * * * * * * * //

dimensions      [1 0 -1 0 0 0 0];

oriented        oriented;

internalField   nonuniform List<scalar> 
5190
(
0.00168897
0.00130585
-0.00149426
-0.00132857
0.000147825
6.23914e-05
-0.000142478
3.88429e-05
-0.000231208
4.69988e-05
0.000233524
3.37135e-05
2.22787e-05
-2.14351e-05
-8.27626e-06
3.63394e-06
0.000110207
-7.99026e-05
3.61905e-05
0.000140564
-0.000173519
2.89845e-05
0.000180109
0.000114444
2.65489e-06
-3.61577e-06
-3.00069e-06
2.95466e-06
1.20505e-05
-1.28491e-05
1.74433e-05
-2.03233e-05
-2.3726e-05
2.11555e-05
1.6429e-05
-1.82648e-05
-2.65558e-05
2.04674e-05
-2.26507e-05
9.89293e-06
-8.65651e-06
1.73738e-05
4.92324e-05
-7.40464e-05
6.01663e-05
-5.53605e-05
-5.89671e-05
4.44554e-05
4.93353e-05
0.00114555
-0.00106185
0.00106328
-0.00107055
6.91049e-05
8.83108e-05
-9.7389e-05
-0.000106239
0.000159036
0.000186006
-0.000241846
-0.000329596
0.000741999
0.000979176
-0.000934055
-0.000942528
-2.02488e-05
1.33657e-05
-1.28881e-05
1.6498e-05
-2.13689e-05
1.59002e-05
-1.89221e-05
1.93555e-05
-2.77298e-05
-1.79181e-05
-3.95871e-05
2.0035e-05
-2.58012e-05
3.89121e-05
4.70189e-05
-5.25903e-05
4.70417e-05
-5.68258e-05
4.28815e-05
3.69184e-05
-4.3678e-05
2.89394e-05
-3.38356e-05
5.97375e-05
-9.69849e-05
-7.39366e-05
1.44809e-05
-1.7827e-05
1.3546e-05
-1.71007e-05
1.45112e-05
9.12851e-06
1.27143e-05
-1.86903e-05
2.05423e-05
-2.25893e-05
1.75321e-05
1.49459e-05
2.70394e-05
-3.26887e-05
2.06534e-05
1.92e-05
-1.88529e-05
3.63945e-05
-4.00691e-05
3.22812e-05
2.60521e-05
4.05598e-05
-6.23034e-05
3.7476e-05
-4.92819e-05
6.09119e-05
-6.8084e-05
5.55435e-05
-6.99945e-05
7.43594e-05
-8.12427e-05
-9.33244e-05
-5.91415e-05
5.27795e-05
6.12195e-05
-9.67688e-05
8.38743e-05
-7.8032e-05
-4.76762e-05
3.90248e-05
3.66674e-05
4.6979e-05
-3.21296e-05
2.9281e-05
2.99924e-05
-3.34803e-05
3.2402e-05
-3.25674e-05
9.89942e-05
0.000145392
-0.000113227
-5.90643e-05
2.47027e-05
-2.77609e-05
1.85499e-05
1.3496e-05
-1.48283e-05
6.51281e-06
1.19433e-05
-1.44441e-05
-6.40039e-06
-1.59266e-05
1.34618e-05
9.34593e-06
-9.9044e-06
1.11854e-05
-0.000128464
-0.000105374
0.000588042
0.000458129
-0.00102328
1.91181e-05
-1.34275e-05
-2.24495e-05
1.62776e-05
1.04884e-05
-1.10104e-05
-4.02754e-05
3.67932e-05
4.23597e-05
-4.40399e-05
5.04606e-05
7.18014e-06
1.23828e-05
-7.74641e-06
7.81127e-06
-8.30197e-06
1.13799e-05
1.20399e-05
-1.41373e-05
8.65116e-06
7.23762e-06
1.02555e-05
2.43972e-05
-2.81123e-05
-2.01656e-05
-1.38813e-05
3.71606e-05
-4.21097e-05
-2.9233e-05
-2.5382e-05
4.88314e-05
-5.68368e-05
-5.08555e-05
-3.77528e-05
6.6387e-05
-7.1083e-05
-0.000108753
-7.13257e-05
1.82258e-06
3.7071e-06
-5.04482e-06
-1.49406e-06
-0.000178257
-6.24052e-05
-0.000110164
8.26123e-05
-0.000123981
-0.000195286
-6.29479e-05
-5.89608e-05
5.3378e-05
-8.3023e-05
7.0968e-05
-6.65632e-05
1.3332e-06
-3.20337e-06
2.00646e-06
-1.26296e-06
0.000949871
-0.00112199
0.00136547
-7.89041e-05
-6.29427e-05
0.000160826
0.000128958
1.49585e-05
-1.6378e-05
1.17967e-05
-1.43984e-05
1.25603e-05
8.20365e-06
1.02827e-05
1.82828e-05
-2.05198e-05
1.60278e-05
1.34303e-05
2.29211e-05
-2.73236e-05
2.03469e-05
1.75125e-05
3.06452e-05
-3.3815e-05
2.86324e-05
2.37269e-05
3.51337e-05
-3.80011e-05
3.94759e-05
4.72356e-05
5.32344e-05
-2.37273e-05
-3.66088e-05
3.19395e-05
3.34759e-05
3.99362e-05
-2.85574e-05
2.65442e-05
2.63328e-05
2.92967e-05
-2.40411e-05
2.17408e-05
1.82219e-05
2.2148e-05
-1.89773e-05
1.65164e-05
1.23018e-05
1.51094e-05
1.03334e-05
8.72262e-06
-9.11627e-06
1.37805e-05
-1.48441e-05
1.25249e-05
-5.0004e-05
5.90389e-05
0.000145515
-0.000265756
-0.000285257
0.000211431
0.000112561
-0.000150453
0.000118582
-0.000137583
1.07799e-05
6.5578e-06
1.07116e-05
-1.24919e-05
7.91962e-06
9.20592e-06
6.64623e-06
-0.000452379
0.000254536
-0.000430153
0.000517538
-0.00088279
-0.000975769
0.000283811
-0.000450013
0.000308796
-0.000397393
-4.52352e-05
3.62996e-05
4.87786e-05
-5.03436e-05
5.84071e-05
-8.68405e-05
-7.7792e-05
8.09252e-05
-5.55545e-05
5.44419e-05
1.49136e-05
-1.7772e-05
-9.30723e-06
-7.50192e-06
7.33288e-06
1.15322e-05
-7.62451e-06
1.25109e-05
-0.000129701
-6.37681e-05
6.66594e-05
7.83258e-05
-0.00110001
0.00120268
0.00100168
-0.00106729
0.000273664
-0.000709867
0.000172954
0.000135313
-0.000117208
-5.00693e-05
-8.71493e-05
7.03402e-05
-5.90393e-05
-8.69369e-05
-9.42527e-05
-6.18562e-06
5.65371e-06
9.27465e-06
8.50855e-06
1.15763e-05
-0.000154758
1.04788e-05
-0.00131592
-0.000931734
0.00139585
0.000979619
-0.00124912
0.00108112
-0.000816472
2.27325e-05
-2.41363e-05
-1.10001e-05
-8.84835e-06
1.93102e-05
2.80344e-05
-3.39174e-05
-2.00327e-05
-1.47037e-05
4.12107e-05
-4.82167e-05
-3.21435e-05
-2.54037e-05
5.81144e-05
-7.24841e-05
-5.95629e-05
-4.22875e-05
9.54504e-05
-0.000139915
-0.00014568
-8.95678e-05
-0.000248135
-0.000164178
0.00011073
-0.000185122
-0.000339825
-8.11689e-05
-7.31594e-05
6.46502e-05
-0.000110096
0.000716433
-0.00137805
-0.000410665
0.000545822
-0.000599358
0.0006853
-0.000555935
2.10533e-05
-1.39378e-05
-2.47393e-05
-1.12874e-05
1.08764e-05
-1.23303e-05
7.24537e-06
-9.44763e-06
4.97004e-06
8.25692e-06
5.84997e-06
1.35156e-05
-1.48776e-05
1.02299e-05
8.78233e-06
1.65143e-05
-1.79278e-05
1.39249e-05
1.18618e-05
2.06894e-05
-2.28653e-05
1.81245e-05
1.63793e-05
2.61149e-05
-2.83397e-05
2.49928e-05
2.19285e-05
3.08688e-05
-3.27232e-05
3.59634e-05
3.07107e-05
3.52282e-05
-3.83089e-05
4.96537e-05
4.29051e-05
0.00116322
-0.00100464
-0.00118861
5.86205e-05
-4.29807e-05
-3.40841e-05
3.25251e-05
3.9758e-05
4.56444e-05
-3.01196e-05
2.73431e-05
2.95977e-05
3.45103e-05
-2.47446e-05
2.32516e-05
2.27871e-05
2.6195e-05
-2.13356e-05
1.9087e-05
1.63097e-05
1.94875e-05
-1.68327e-05
1.44944e-05
1.12718e-05
1.36067e-05
9.39618e-06
6.57399e-06
-6.97716e-06
9.63131e-06
-6.10208e-06
7.9372e-06
5.63123e-06
8.76094e-06
1.05728e-05
-2.61908e-06
-2.04502e-06
2.14177e-06
1.61397e-06
-3.2364e-06
4.57306e-06
-1.4621e-05
1.1223e-05
1.11389e-05
-1.67546e-05
2.52624e-07
0.000512252
-0.00118116
-0.000953968
0.00108619
-0.00117574
0.00125492
-0.00101088
0.000168078
-0.000220351
-0.000113905
-7.2358e-05
8.71196e-05
0.000173223
-0.000200903
-8.4057e-06
7.49187e-06
4.08261e-06
7.99725e-05
-0.000112934
-8.44261e-05
6.54374e-05
-6.25119e-05
1.61931e-05
-1.94528e-05
-9.24467e-06
1.34958e-05
-7.58682e-06
0.00051767
-0.000813217
0.000474465
-0.000771981
5.24327e-06
-5.42855e-06
7.72054e-06
5.09601e-06
6.75035e-06
2.12031e-05
-9.09535e-07
-2.68741e-05
-3.1469e-06
-1.34108e-06
1.04472e-05
-3.83228e-06
-2.08026e-05
9.96036e-06
-6.45755e-06
-2.65905e-05
-4.97561e-06
4.85833e-06
-5.27453e-06
6.8931e-06
7.18898e-06
-8.25141e-06
5.17407e-06
6.29954e-06
4.44554e-06
2.4927e-05
-1.842e-05
7.1219e-05
-9.68703e-05
0.000943783
-0.00113215
-2.34216e-06
-3.10142e-06
1.96102e-06
1.05709e-05
5.19412e-06
-1.3217e-05
0.00153022
0.00144287
-0.00145097
-0.00139418
0.000128355
0.000119009
-0.000101125
-7.8632e-05
9.23743e-05
5.76343e-05
-5.26992e-05
1.10901e-05
-0.00011475
-0.00012059
0.00016866
9.00899e-05
8.65412e-06
-5.4549e-06
0.000479509
-0.00153819
-0.000807884
0.00199525
1.76441e-05
-2.07493e-05
-7.78108e-06
7.64785e-06
-5.5957e-06
5.96749e-06
2.38401e-05
-2.75422e-05
-1.17828e-05
-9.55717e-06
3.22156e-05
-3.86146e-05
-2.02091e-05
-1.53279e-05
4.66538e-05
-5.68674e-05
-3.44618e-05
-2.60243e-05
7.18189e-05
-9.63585e-05
-7.10872e-05
-4.76214e-05
0.000140803
-0.000231583
-0.000201103
-0.00011516
0.000420038
-0.000840061
-0.000838333
-0.000371662
-0.00108454
-0.000288412
0.000169674
-0.000303084
-0.000735141
-0.000111024
7.99696e-05
-9.18883e-05
-0.00015673
-6.10511e-05
4.83781e-05
-4.19296e-05
3.93001e-05
-5.99103e-05
5.24067e-05
-3.92953e-05
3.27342e-05
-2.28866e-05
2.23335e-05
-3.03816e-05
2.94483e-05
-2.75288e-05
2.31698e-05
-1.40869e-05
-1.76422e-05
1.73727e-05
-1.13466e-05
-8.05492e-06
-1.87008e-06
-5.11078e-06
-3.7282e-05
-2.40042e-06
-7.38522e-06
-8.49735e-05
-2.86681e-06
-1.10184e-05
-0.000162209
-3.19369e-06
-1.58861e-05
-0.00028617
-3.40922e-06
-2.04861e-05
-0.000467793
-4.53614e-06
-1.84207e-05
-0.000757914
-6.59736e-06
9.54615e-06
-0.000765381
-1.49908e-05
5.21206e-05
-0.000712516
-2.57284e-05
7.30109e-05
-3.50328e-05
-0.000632267
8.79033e-05
-0.000636213
0.000718571
2.99655e-05
-0.000529572
-3.49697e-05
9.18522e-05
-3.18638e-05
-0.000415316
8.73351e-05
0.000529507
-0.000410056
2.86767e-05
3.05088e-05
-0.000771578
0.000764323
2.16017e-05
2.82604e-05
-0.000467856
0.000285661
-2.69719e-05
-6.38888e-06
-0.000162175
8.52499e-05
-2.15663e-05
-2.67179e-05
-3.76965e-05
8.52308e-06
-1.18364e-05
-1.61868e-05
-8.68387e-06
9.65911e-06
-1.08397e-05
6.32062e-06
5.21554e-06
1.19884e-05
-1.32522e-05
8.85602e-06
7.55322e-06
1.46816e-05
-1.6092e-05
1.2071e-05
1.03481e-05
1.74502e-05
-1.96391e-05
1.63249e-05
1.41388e-05
2.17987e-05
-2.41484e-05
2.2179e-05
1.95273e-05
2.55883e-05
-2.72728e-05
3.07976e-05
2.61897e-05
2.87261e-05
-3.01468e-05
4.15552e-05
3.62915e-05
0.00123594
-0.00116152
0.00158254
4.76061e-05
-3.06381e-05
6.33456e-05
-8.78032e-05
2.98827e-05
-4.57946e-05
3.9723e-05
5.73532e-05
7.57931e-05
-9.85186e-05
-7.09224e-05
5.95986e-05
-8.46998e-05
-5.5416e-05
5.63549e-05
6.99278e-05
-3.44189e-05
3.1005e-05
4.31202e-05
4.87914e-05
-2.96038e-05
2.76755e-05
3.43806e-05
3.89672e-05
-2.56845e-05
2.34341e-05
2.61131e-05
2.99816e-05
-2.17731e-05
2.01399e-05
1.98194e-05
2.27768e-05
-1.84343e-05
1.65328e-05
1.44013e-05
1.70207e-05
-1.46063e-05
1.26934e-05
1.01207e-05
1.20956e-05
-1.09804e-05
9.50667e-06
7.17504e-06
8.46773e-06
6.07024e-06
5.66118e-06
-6.00318e-06
8.1925e-06
7.51612e-06
6.24932e-06
-6.36267e-06
9.6476e-06
8.90964e-06
6.36706e-06
-6.24707e-06
1.12145e-05
1.0435e-05
0.00104668
0.00157268
-0.00143635
-0.00106111
0.00199776
-0.00207747
0.000637098
-0.000413745
0.00026959
-0.000341047
-0.000154927
-8.98143e-05
0.000105734
-0.000147669
-0.000100526
0.0002542
-0.000335037
5.71411e-06
5.24526e-06
0.000916743
-0.00135177
-0.000660117
-6.09119e-07
-2.75683e-06
-2.9278e-05
-3.99682e-06
-2.91036e-05
-7.81854e-06
3.13332e-06
7.32018e-06
0.00280905
0.00150682
-0.00113013
-0.00291122
-0.000635274
0.000705918
0.000138214
-0.000543007
0.000148838
0.00108854
-0.000888726
0.000164045
3.09718e-05
-1.25048e-06
-2.83732e-05
-0.000129126
-7.72145e-05
-0.00108767
0.000985497
-0.000950168
-3.86076e-06
4.36499e-06
9.07456e-06
-3.80132e-06
9.54628e-06
-2.89499e-05
2.64457e-05
-6.2184e-06
-2.47503e-06
-4.17592e-07
-2.95896e-05
-5.51273e-06
-2.93162e-05
4.34986e-06
-4.66617e-06
5.93767e-06
3.97605e-06
5.4999e-06
6.55919e-06
-7.43362e-06
4.70039e-06
5.76281e-06
4.06164e-06
1.22049e-05
-0.000278719
3.42111e-05
-0.000299262
7.34926e-05
-9.13479e-05
-2.07021e-05
7.45556e-05
-0.000119711
-3.66925e-05
3.08868e-05
0.00129578
-0.00108298
-0.00108714
-8.60564e-05
-3.83214e-05
7.45135e-05
3.10338e-05
-0.000116122
-6.30778e-05
0.000182802
6.3989e-05
-5.21583e-05
-0.00148794
-0.00112663
0.00169591
0.00175453
-0.00189083
0.000748481
-5.21532e-07
-6.10863e-07
4.22601e-07
1.6085e-07
1.20314e-05
-1.4552e-05
-5.99081e-06
-5.26252e-06
5.42506e-06
9.31142e-06
-4.96479e-06
9.92913e-06
-0.000156487
-0.000167796
-4.51284e-06
4.76184e-06
4.10853e-06
4.75887e-06
-4.87136e-06
6.34066e-06
5.56382e-06
4.90936e-06
-4.68668e-06
7.90209e-06
-9.72947e-06
7.13753e-06
8.60926e-06
1.8535e-05
-2.18328e-05
-7.92501e-06
-6.81783e-06
2.5702e-05
-3.02798e-05
-1.20087e-05
-9.73664e-06
3.60698e-05
-4.38134e-05
-2.00822e-05
-1.54262e-05
5.37404e-05
-6.8368e-05
-3.67135e-05
-2.6886e-05
9.17796e-05
-0.000133483
-8.64988e-05
-5.40242e-05
0.000214312
-0.000379772
-0.000280679
-0.000150875
0.000801858
-0.00098694
-0.000976494
-0.000608802
-0.00115463
0.0011284
-0.00110759
-0.00161674
-0.00116393
0.00163909
-0.000932721
0.000914608
-0.00118466
-0.00129133
-0.00092493
-0.000530055
0.000289098
-0.000487026
-0.00103652
-0.000164555
0.000106537
-0.000118628
-0.000225795
-7.58392e-05
5.76869e-05
-4.54005e-05
-6.99864e-05
-4.55069e-05
3.70397e-05
-2.29549e-05
-3.1123e-05
-3.05883e-05
2.55095e-05
-1.38799e-05
-1.74229e-05
-2.12341e-05
1.76351e-05
-8.99053e-06
-1.11111e-05
-7.28853e-06
-2.04246e-05
8.9645e-06
-9.06867e-06
-7.28491e-06
1.04684e-05
-4.10049e-05
-1.70008e-05
-1.21336e-05
8.95613e-05
-0.000165157
-3.35105e-05
-2.42703e-05
0.000279687
-0.000443512
-4.00999e-05
-4.20133e-05
0.000721194
-0.00075679
7.26459e-05
-4.65538e-06
0.000113385
-2.84171e-05
2.55899e-05
-7.45017e-06
3.32817e-06
-6.39308e-06
-2.90163e-05
-2.94944e-05
4.04452e-05
2.80118e-05
0.000287968
0.000109873
0.00217214
0.000351538
-0.00239371
5.04902e-05
-0.000414922
0.000532351
0.000103213
9.00495e-05
-0.00063808
0.000716929
9.38512e-05
0.000100928
-0.000770958
0.000730448
3.82667e-05
7.42145e-05
-0.000444127
0.000279872
-4.8941e-05
-2.2198e-05
-0.000165288
9.00386e-05
-3.73465e-05
-4.65073e-05
-4.19703e-05
1.1732e-05
-2.06111e-05
-2.81551e-05
7.56579e-06
-1.92322e-05
-1.14731e-05
-1.51886e-05
-9.03546e-06
8.6392e-06
-9.54414e-06
5.40885e-06
4.41613e-06
1.05348e-05
-1.16056e-05
7.6032e-06
6.47509e-06
1.27892e-05
-1.41561e-05
1.04856e-05
8.90486e-06
1.55715e-05
-1.73463e-05
1.43768e-05
1.22404e-05
1.84729e-05
-2.00355e-05
1.91405e-05
1.64958e-05
2.13467e-05
-2.27204e-05
2.62884e-05
2.23202e-05
2.34126e-05
-2.40944e-05
3.45921e-05
3.02804e-05
2.40774e-05
-2.33485e-05
4.44872e-05
-5.55339e-05
3.88061e-05
2.19767e-05
-1.89764e-05
5.55712e-05
5.01212e-05
7.96343e-05
-0.000103793
-2.19817e-05
1.66756e-05
-1.51405e-05
6.29547e-05
5.89302e-05
8.73463e-05
-5.19199e-05
-0.000104219
-1.29869e-05
1.82538e-05
6.4958e-05
8.48245e-05
-2.1215e-05
-0.000112565
1.9782e-05
8.51032e-06
-9.47467e-06
6.97456e-05
6.83393e-05
-8.91156e-05
-1.78487e-05
2.54027e-05
5.97328e-05
-8.03259e-05
6.22085e-05
-2.88284e-05
2.86253e-05
4.69716e-05
5.31042e-05
-2.70677e-05
2.54124e-05
3.70183e-05
4.14483e-05
-2.43782e-05
2.31333e-05
2.93304e-05
3.30625e-05
-2.17316e-05
2.02365e-05
2.25119e-05
2.57261e-05
-1.87723e-05
1.73292e-05
1.70514e-05
1.96287e-05
-1.5839e-05
1.42387e-05
1.24874e-05
1.46638e-05
-1.263e-05
1.10702e-05
8.90521e-06
1.0552e-05
-9.6645e-06
8.46535e-06
6.42121e-06
7.51494e-06
5.50011e-06
4.97721e-06
-5.22146e-06
6.95113e-06
6.43998e-06
5.40869e-06
-5.48425e-06
8.08995e-06
7.51866e-06
8.6882e-06
0.000175186
0.000193404
-0.00197238
7.79157e-05
-2.22051e-05
0.00209247
-0.000436763
0.000152949
0.000457874
-0.000571301
-0.000231063
-0.00010826
-0.00022002
-0.000129601
0.000426143
-0.00062802
9.4646e-06
-4.69929e-06
-1.00077e-05
-0.000221406
-0.000219667
0.000237885
0.000287803
0.00130017
-0.000931411
-4.77909e-05
-0.000127186
7.99953e-05
-2.81094e-05
2.52008e-05
-9.98631e-06
-2.87671e-05
-9.00018e-06
3.5188e-06
-3.96304e-06
3.97246e-06
0.00180302
-0.000138618
0.000438678
4.19644e-06
3.52029e-06
-3.74269e-06
3.89325e-06
3.1994e-06
2.84348e-06
3.41986e-06
3.47752e-06
5.14787e-06
1.28065e-05
-1.56134e-05
-5.55716e-06
1.05432e-05
-4.58843e-06
-0.000166663
7.52385e-05
-0.00115245
0.00110066
0.00133601
-0.00114097
0.00108651
-0.00122957
-0.000901946
-0.000184026
0.000220844
-2.79449e-06
2.45545e-06
-0.000629427
0.000694916
0.000178894
-0.000546651
0.000205369
-0.00105686
-0.00144977
0.00115689
-0.000948657
0.00128936
-0.00119895
-0.00147918
0.00117496
-0.000959922
-0.000194316
-7.18577e-05
0.00137835
-0.0010074
0.00120955
-0.0010564
-0.000185792
-9.64293e-05
-0.00144744
0.00105121
-2.72136e-05
2.38154e-05
-1.1145e-05
-2.82343e-05
-9.87904e-06
0.00185557
-0.00173893
0.00109106
-0.00107504
-0.000111202
4.58367e-05
0.000227727
-8.50557e-07
6.43977e-05
-0.00157977
0.00102801
0.0013851
-0.0012015
-0.00118708
-0.000158148
-3.77058e-05
-8.70485e-05
-1.30186e-05
6.70438e-05
-2.03361e-05
-0.000123113
-9.42274e-05
-8.71626e-06
7.24323e-05
-1.83689e-05
-0.000143918
-0.000158769
-7.22528e-05
0.0011784
-0.00114107
0.00139487
0.00107181
-0.00143069
-0.000880956
-0.000314658
0.000142898
-7.14865e-07
-1.14789e-07
3.84397e-07
5.70755e-09
-0.00170174
0.000650212
0.00192559
-0.00156213
0.00105552
0.00137986
-0.000779802
-0.000231071
-0.000262418
4.27546e-06
-4.46922e-06
5.22169e-06
4.59645e-06
4.5361e-06
-4.44049e-06
6.44349e-06
5.86174e-06
4.25062e-06
-4.0675e-06
7.53539e-06
7.05344e-06
3.84771e-06
-3.84982e-06
8.13453e-06
7.99313e-06
-9.93642e-06
8.50827e-06
-3.82938e-06
1.10917e-05
-1.64736e-05
-7.45841e-06
1.05692e-05
-5.16129e-06
1.9296e-05
-2.32257e-05
-7.62323e-06
-7.14759e-06
2.78251e-05
-3.34497e-05
-1.15611e-05
-9.42138e-06
4.04629e-05
-4.97324e-05
-1.98395e-05
-1.50121e-05
6.32751e-05
-8.40683e-05
-3.94271e-05
-2.72073e-05
0.000121006
-0.000191424
-0.000104481
-6.12357e-05
0.000333855
-0.00059243
-0.000370987
-0.000192129
0.00104162
-0.00117867
-0.000890282
-0.000744193
0.00125038
-0.0013421
-0.00115153
-0.00102963
-0.00123643
-0.00110953
-0.00141075
0.00134159
-0.00112591
0.00136023
-0.00107843
-0.00126104
0.00116175
-0.000999076
-0.00108005
-0.000992545
0.000488003
-0.000717869
-0.000894852
-0.000260866
0.000149066
-0.000148165
-0.000301169
-9.67544e-05
6.8969e-05
-4.86062e-05
-8.1377e-05
-5.25744e-05
4.17951e-05
-2.25718e-05
-3.17668e-05
-3.39393e-05
2.79166e-05
-1.31784e-05
-1.67169e-05
-2.30555e-05
1.89973e-05
-8.45692e-06
-1.05423e-05
-6.82841e-06
-1.83774e-05
5.56266e-06
-1.44005e-05
-1.1624e-05
1.54038e-05
-4.80338e-05
-2.58704e-05
-1.89681e-05
9.78343e-05
-0.000170733
-4.74454e-05
-3.57036e-05
0.000271614
-0.0004036
-5.63933e-05
-5.75434e-05
0.000608137
-0.000738294
4.72435e-05
-2.82394e-05
0.000129288
-3.11565e-07
-2.23453e-06
-2.81079e-05
2.8699e-06
-5.67201e-06
-2.78298e-05
-2.8063e-05
-5.05223e-05
-0.000182709
5.01112e-06
-2.78454e-05
-8.37996e-06
-2.79699e-05
-7.62696e-05
0.000138663
0.000129041
-8.5632e-05
8.14824e-05
-5.0088e-05
-0.000228782
0.000322961
0.000181449
0.000170968
-0.000423758
0.000528666
0.000174225
0.000166103
-0.000624401
0.000697435
0.0001395
0.00016509
-0.000746385
0.000638393
1.92996e-05
8.74204e-05
-0.00041166
0.000273805
-6.46064e-05
-4.56906e-05
-0.00017092
9.82197e-05
-4.9578e-05
-6.05941e-05
-4.91584e-05
1.71328e-05
-2.82747e-05
-3.79144e-05
3.46378e-06
-1.65275e-05
-1.63455e-05
-2.12034e-05
-1.31672e-05
4.09271e-06
-4.59108e-06
3.03776e-06
-3.53569e-06
2.93239e-06
2.37793e-06
2.66802e-06
5.56014e-06
-6.72067e-06
3.12653e-06
2.96668e-06
-3.02073e-06
7.52734e-06
-8.33827e-06
4.6524e-06
3.83757e-06
9.20103e-06
-1.01043e-05
6.483e-06
5.5481e-06
1.11743e-05
-1.22681e-05
8.94064e-06
7.6466e-06
1.3459e-05
-1.46206e-05
1.21924e-05
1.04462e-05
1.58735e-05
-1.71602e-05
1.62647e-05
1.402e-05
1.83158e-05
-1.91259e-05
2.19224e-05
1.88413e-05
1.95585e-05
-1.98252e-05
2.84825e-05
2.49888e-05
1.99954e-05
-1.95937e-05
3.61001e-05
3.18926e-05
1.82961e-05
-1.6323e-05
4.41611e-05
4.00433e-05
1.44728e-05
-1.24936e-05
5.02141e-05
4.71142e-05
7.13397e-05
-1.00636e-05
-9.57842e-05
1.01523e-05
-7.56483e-06
5.58072e-05
5.29372e-05
-4.55258e-06
-7.55381e-05
5.82262e-05
-1.33819e-06
-7.81964e-05
5.96378e-05
7.68324e-05
-4.76521e-06
-0.00010764
-2.66677e-06
5.45018e-06
5.94467e-05
-8.0942e-05
6.06474e-05
-7.32611e-06
9.80872e-06
5.55897e-05
5.76306e-05
-1.25641e-05
1.42125e-05
5.22927e-05
5.42694e-05
-1.71695e-05
2.03421e-05
4.67879e-05
4.90765e-05
-2.14232e-05
2.17037e-05
3.82826e-05
4.26684e-05
-2.13095e-05
2.07309e-05
3.08777e-05
3.4377e-05
-2.01296e-05
1.93326e-05
2.46238e-05
2.76207e-05
-1.83522e-05
1.72519e-05
1.90164e-05
2.16866e-05
-1.60935e-05
1.48768e-05
1.43898e-05
1.65803e-05
-1.36067e-05
1.22741e-05
1.05784e-05
1.2376e-05
-1.09513e-05
9.69354e-06
7.65123e-06
8.98883e-06
-8.56767e-06
7.6113e-06
5.63577e-06
6.52636e-06
-6.79099e-06
6.07638e-06
4.19997e-06
4.88638e-06
-5.37612e-06
4.78794e-06
2.9569e-06
3.67626e-06
3.46736e-06
-3.62478e-06
4.22381e-06
3.55155e-06
3.90936e-06
-4.19577e-06
5.06331e-06
4.66568e-06
4.44856e-06
-4.653e-06
5.88473e-06
5.4701e-06
4.77871e-06
-4.81581e-06
6.7792e-06
6.32242e-06
4.74005e-06
-4.55411e-06
7.72468e-06
7.24075e-06
4.27431e-06
8.65097e-06
-3.88637e-06
8.2042e-06
0.000204752
-0.000150543
5.75257e-05
-3.01556e-05
4.8137e-05
5.09822e-05
0.00173029
-0.00185695
-0.000646129
-0.000446304
0.000221609
-0.000685855
-0.00214007
0.000916483
-0.00117026
0.00123359
-0.0014193
0.000302931
9.78084e-05
0.00149301
0.00127479
0.000718464
-0.00160509
0.00118265
0.000915646
-0.000744621
-0.000379823
-0.000146691
0.000972829
-0.000864937
1.57322e-06
-0.000120221
-6.33282e-06
-0.000105076
0.000889908
-0.000911595
-0.000362478
-0.000186567
-0.00133013
0.00107667
0.00160693
-0.000908211
0.00105328
-0.000452608
6.38663e-08
-1.42468e-07
-1.35746e-06
0.00128662
-0.00115411
0.00119185
-0.00121899
0.0012866
-0.00122522
-0.00140111
0.00138062
-0.000965536
-9.06007e-06
-2.75681e-05
-0.000109692
0.0002044
5.54539e-05
-8.50756e-06
9.51764e-05
2.09443e-06
-2.61665e-06
2.41988e-06
-2.6776e-06
1.70892e-06
2.0776e-06
-3.21596e-06
1.89168e-06
0.000164127
-0.00143248
0.00116941
0.00145644
-0.00102772
-0.000295129
-8.23028e-05
-1.69734e-05
-0.000146251
-1.20935e-05
-0.000183566
-0.000297159
-0.00012735
0.00128195
-0.00111159
-0.0015415
0.00092026
0.00176638
-3.46236e-06
3.61914e-06
6.79476e-06
-3.24353e-06
7.05735e-06
-0.000175957
0.000144567
0.000451772
-0.00179364
-0.00178446
0.00198597
0.000388635
-0.000370142
0.000223917
0.000175557
-0.000110887
-8.40681e-05
-0.000229228
0.00127559
0.000947543
-0.00141408
-7.15783e-05
-1.07916e-05
-3.10331e-05
0.000221652
-0.00155831
0.00104614
-1.79326e-05
3.05063e-05
-0.00155369
0.00145106
-0.000988785
-0.000207546
-3.86162e-05
-4.91477e-05
-0.000272012
0.0011776
-0.00126823
-0.000983133
-3.399e-06
3.74295e-06
7.09003e-06
9.08742e-06
-1.11146e-05
-3.43502e-06
-2.98824e-06
7.39958e-06
-8.22831e-06
4.86672e-06
-2.48567e-05
-2.74005e-05
2.77736e-05
-1.2708e-05
-1.25277e-05
-2.50901e-05
-0.000330263
0.000223561
-3.25774e-06
3.42425e-06
-0.00145614
0.000670613
0.0014168
-0.000987546
-0.00134235
0.00107874
0.00115499
-3.39037e-05
2.91711e-05
-2.99925e-05
3.99688e-05
4.78869e-05
-0.000360034
-0.000112136
-0.000440338
0.000865408
-0.00141091
-0.000682666
3.091e-06
-3.52636e-06
3.27258e-06
2.80058e-06
3.84178e-06
-4.05138e-06
4.25984e-06
3.75001e-06
4.15134e-06
-4.13373e-06
5.24564e-06
4.78409e-06
4.03803e-06
-3.86018e-06
6.17998e-06
5.77686e-06
6.58063e-06
-1.06679e-05
8.94463e-06
-3.61549e-06
1.31052e-05
-1.70662e-05
-5.87451e-06
-4.57129e-06
2.08209e-05
-2.48558e-05
-7.34164e-06
-6.47065e-06
3.01674e-05
-3.64721e-05
-1.08678e-05
-8.63139e-06
4.48571e-05
-5.65842e-05
-1.9019e-05
-1.40824e-05
7.46369e-05
-0.000105542
-4.0955e-05
-2.71059e-05
0.000161269
-0.000269701
-0.000121897
-6.81871e-05
0.000478247
-0.000943871
-0.000471477
-0.000229611
0.00116666
-0.0012773
-0.000760073
-0.000683771
0.00137856
-0.00148693
-0.000919762
-0.00084264
-0.000967593
0.00127126
-0.00135884
-0.000882858
0.00105805
-0.00104908
-0.00130025
0.00121619
-0.00082303
-0.000886731
-0.00111396
0.000825602
-0.000660953
-0.000753889
-0.000377058
0.000204266
-0.000173781
-0.000362191
-0.000123933
8.33092e-05
-5.14399e-05
-9.15062e-05
-6.04097e-05
4.67901e-05
-2.17065e-05
-3.12529e-05
-3.73968e-05
3.04486e-05
-1.21153e-05
-1.55509e-05
-2.48933e-05
2.04016e-05
-7.66987e-06
-9.55545e-06
-1.66548e-05
1.36072e-05
-4.99427e-06
-6.13418e-06
-4.07254e-06
-2.6663e-05
2.30535e-05
-1.42842e-05
-1.32472e-05
-1.49942e-05
3.86998e-08
-1.96878e-05
-1.62478e-05
2.26939e-05
-5.78122e-05
-3.30313e-05
-2.51012e-05
0.000108742
-0.000178146
-5.56879e-05
-4.37254e-05
0.000266448
-0.000369995
-6.59392e-05
-6.52799e-05
0.000483806
-0.000656946
4.01401e-06
-4.8527e-05
0.0006836
-0.000618326
0.00018473
9.01761e-05
0.000538987
-0.000444392
0.000276496
0.000250186
-5.39775e-06
2.65766e-06
-2.45215e-05
-2.69833e-05
2.70293e-05
-1.339e-05
8.78544e-06
-1.31027e-05
-2.48885e-05
-2.47323e-05
-2.60511e-07
-2.13926e-06
-2.45545e-05
-2.45437e-05
-2.45666e-05
-8.15199e-05
0.000160919
0.000183612
0.000130272
-0.000253228
0.000353538
0.000238244
0.000214531
-0.00044698
0.000533141
0.000232355
0.000229665
-0.000612271
0.000674358
0.000147351
0.000206535
-0.000668688
0.00050387
-1.39656e-05
6.29171e-05
-0.000383581
0.000271879
-7.39175e-05
-6.19045e-05
-0.000179354
0.000108855
-5.69318e-05
-6.84743e-05
-5.87406e-05
2.45009e-05
-3.41344e-05
-4.46609e-05
-2.1244e-06
-1.27362e-05
-2.09371e-05
-2.63624e-05
2.12637e-05
-2.54629e-05
-1.52643e-05
-1.7413e-05
-1.40667e-05
3.76956e-06
-4.20375e-06
2.45326e-06
2.1901e-06
4.89481e-06
-5.774e-06
2.88744e-06
2.61858e-06
6.55968e-06
-7.29613e-06
4.00719e-06
3.38226e-06
8.04609e-06
-8.84102e-06
5.51954e-06
4.73488e-06
9.69879e-06
-1.05844e-05
7.51363e-06
6.46897e-06
1.15426e-05
-1.24594e-05
1.01248e-05
8.76024e-06
1.34839e-05
-1.46053e-05
1.36303e-05
1.16981e-05
1.55571e-05
-1.62262e-05
1.79906e-05
1.56223e-05
1.66159e-05
-1.67397e-05
2.31179e-05
2.03656e-05
1.68297e-05
-1.62952e-05
2.90091e-05
2.59968e-05
1.54055e-05
-1.39517e-05
3.51104e-05
3.20823e-05
1.23897e-05
-1.05937e-05
3.99269e-05
3.75351e-05
8.55893e-06
-6.35454e-06
4.40547e-05
4.19122e-05
3.81065e-06
-1.23971e-06
4.67292e-05
4.56566e-05
-1.55094e-06
3.99085e-06
4.68332e-05
4.72537e-05
-6.1941e-06
8.18623e-06
4.43925e-05
4.5769e-05
-1.03406e-05
1.23719e-05
4.15242e-05
4.31508e-05
-1.40872e-05
1.59753e-05
3.69118e-05
3.9048e-05
-1.7006e-05
1.73114e-05
3.09718e-05
3.40624e-05
-1.72631e-05
1.70194e-05
2.52685e-05
2.80245e-05
-1.66527e-05
1.61845e-05
2.02095e-05
2.26645e-05
-1.55194e-05
1.46989e-05
1.56832e-05
1.78587e-05
-1.37881e-05
1.27937e-05
1.18387e-05
1.3659e-05
-1.17422e-05
1.06535e-05
8.72015e-06
1.01771e-05
-9.58203e-06
8.5769e-06
6.40267e-06
7.45295e-06
-7.67795e-06
6.90254e-06
4.83824e-06
5.52959e-06
-6.23791e-06
5.6671e-06
3.64809e-06
4.23903e-06
-5.25021e-06
2.15949e-06
5.09233e-06
3.08378e-06
3.52366e-06
-3.79371e-06
4.22519e-06
3.83956e-06
4.02379e-06
-4.1938e-06
4.9227e-06
4.57511e-06
4.29655e-06
-4.30006e-06
5.64208e-06
5.28154e-06
4.21551e-06
-4.02803e-06
6.39058e-06
6.01762e-06
6.74581e-06
-2.51891e-06
-0.000986853
0.00034551
0.00125443
-0.000511534
3.65434e-05
-0.000211155
-0.000131587
0.00035198
-2.28164e-06
1.78371e-06
1.27291e-06
0.00120553
0.00107935
-0.00127399
0.00118923
0.00104933
0.00139993
0.00145298
-0.000898477
-0.000622597
-0.000200114
-1.26031e-05
-0.000170533
2.7972e-06
-0.00022364
-0.000604531
-0.000297945
0.00130542
-0.000997099
-0.00143197
0.00107016
-3.75319e-05
3.45791e-05
7.36103e-06
-2.95155e-06
0.00168309
-0.00068902
0.0017428
0.000851944
-0.00183566
0.000183368
0.000128977
-0.000127977
0.00137946
-0.00115239
-2.40273e-05
0.000112241
-2.82555e-06
1.46659e-06
-0.00192373
0.000553654
-0.00167536
0.00174264
0.000773017
-0.000719237
-2.52683e-05
2.47557e-05
-1.85107e-05
-2.37766e-05
-1.82583e-05
0.000281291
0.000219875
1.47687e-05
6.94629e-05
-0.000116367
-0.00035906
0.000235214
0.00018674
0.00121302
0.00109746
-0.00146168
0.00120838
0.00012907
-3.96505e-05
-3.02407e-05
0.00155813
-0.00101006
-0.000439824
-9.45025e-05
-3.7802e-05
-0.000276615
-3.22361e-05
-0.000425868
-0.000484466
-0.000180104
0.00131581
-0.00115802
-0.00140486
0.00115089
1.9186e-06
-2.37395e-06
1.89164e-06
1.5087e-06
1.56234e-06
9.55001e-06
-1.1739e-05
-2.88981e-06
7.73e-06
-2.5079e-06
-3.05524e-06
3.38072e-06
5.73669e-06
-2.68945e-06
5.96216e-06
-2.5804e-05
2.56461e-05
-1.78511e-05
-2.40596e-05
-1.76743e-05
-8.68686e-06
5.21059e-06
-1.94791e-05
-1.27225e-05
-2.06342e-05
-0.00169216
3.90522e-05
-0.000190506
0.000225187
2.56336e-06
-2.86791e-06
2.70291e-06
2.19795e-06
2.34552e-06
-0.000331824
0.000285995
1.34199e-06
-3.88796e-06
2.93371e-06
-0.00144653
0.0011667
4.75418e-08
-1.17037e-06
6.50106e-07
0.00118507
4.11786e-05
-0.000630942
-0.000195735
-0.000823235
0.00103322
-0.00148229
2.79233e-06
-3.17059e-06
2.60046e-06
2.19532e-06
3.45559e-06
-3.67165e-06
3.41291e-06
2.97331e-06
3.76865e-06
-3.8043e-06
4.22834e-06
3.82325e-06
3.7104e-06
-3.59041e-06
5.01005e-06
4.63464e-06
3.3699e-06
-3.15694e-06
5.51068e-06
5.2998e-06
2.92973e-06
-2.66431e-06
5.94873e-06
5.72209e-06
-7.70499e-06
6.17688e-06
-2.32268e-06
9.41085e-06
-1.15061e-05
-3.12565e-06
-2.59875e-06
1.42182e-05
-1.7796e-05
-4.79384e-06
-3.83654e-06
2.18584e-05
-2.67377e-05
-6.31958e-06
-5.52264e-06
3.25373e-05
-3.98481e-05
-9.68882e-06
-7.5906e-06
4.96263e-05
-6.42421e-05
-1.76518e-05
-1.28541e-05
8.85234e-05
-0.000131184
-4.10048e-05
-2.5689e-05
0.000211749
-0.000368601
-0.000130532
-7.06063e-05
0.000639511
-0.0010814
-0.000488188
-0.000250716
0.00126289
-0.0013461
-0.000617356
-0.000565367
0.0014332
-0.00155038
-0.000705595
-0.000664013
-0.000707157
-0.00103335
0.000823742
0.00221318
-0.00142224
0.00142931
-0.000874854
-0.000960656
-0.00137704
0.00129938
-0.000662222
-0.000746075
-0.00120148
0.000997623
-0.000521328
-0.000592835
-0.000501227
0.000274737
-0.000182936
-0.000381551
-0.000157858
0.000100021
-5.07595e-05
-9.36382e-05
-6.93034e-05
5.20474e-05
-1.99464e-05
-2.91935e-05
-4.08174e-05
3.29249e-05
-1.0694e-05
-1.38118e-05
-2.66959e-05
2.16924e-05
-6.57047e-06
-8.22509e-06
-1.76818e-05
1.43721e-05
-4.26483e-06
-5.26814e-06
-3.50511e-06
-2.3895e-05
1.92414e-05
-1.9029e-05
-1.81339e-05
-9.6391e-06
-6.83797e-06
-2.45613e-05
-2.10829e-05
3.20661e-05
-6.93184e-05
-3.76242e-05
-2.99257e-05
0.0001207
-0.000186586
-5.85147e-05
-4.75724e-05
0.000264754
-0.000349641
-7.12104e-05
-6.76564e-05
0.000432874
-0.000503841
-3.23874e-05
-6.29818e-05
0.000577763
-0.000592257
0.000129882
3.72732e-05
0.000520031
-0.000438143
0.000306927
0.000240362
-5.6828e-06
2.72416e-06
-1.88794e-05
9.16902e-06
-1.32202e-05
-2.05594e-05
-1.94449e-05
-2.41495e-07
-2.2501e-06
-1.87475e-05
-1.87534e-05
-1.8878e-05
-0.000104113
0.000188182
0.00025397
0.000224656
-0.000276556