/*--------------------------------*- C++ -*----------------------------------*\
| =========                 |                                                 |
| \\      /  F ield         | OpenFOAM: The Open Source CFD Toolbox           |
|  \\    /   O peration     | Version:  2212                                  |
|   \\  /    A nd           | Website:  www.openfoam.com                      |
|    \\/     M anipulation  |                                                 |
\*---------------------------------------------------------------------------*/
FoamFile
{
    version     2.0;
    format      ascii;
    arch        "LSB;label=32;scalar=64";
    class       volScalarField;
    location    "0.00901";
    object      p;
}
// * * * * * * * * * * * * * * * * * * * * * * * * * * * * * * * * * * * * * //

dimensions      [1 -1 -2 0 0 0 0];

internalField   nonuniform List<scalar> 
2681
(
207.743
254.377
248.876
190.221
254.819
252.586
189.925
190.219
190.288
190.341
190.172
190.896
190.784
192.946
191.147
191.45
192.083
190.256
190.305
190.364
190.46
190.767
190.652
190.55
191.018
190.891
190.224
190.145
190.185
190.317
190.27
190.427
190.367
190.583
190.5
190.679
190.703
190.839
190.98
190.864
190.982
190.638
190.748
190.471
190.545
292.137
190.402
190.24
190.085
190.154
190.196
191.12
191.88
190.242
190.195
190.688
190.784
190.102
190.113
190.135
190.095
190.343
190.282
190.492
190.414
190.729
190.606
191.019
190.869
190.015
191.18
191.105
191.277
190.764
190.936
191.013
190.009
192.645
252.729
190.195
190.116
190.156
190.284
190.238
190.385
190.331
190.519
190.448
190.6
190.744
190.842
190.56
190.651
190.417
190.482
190.306
190.358
190.217
190.26
190.175
190.152
190.132
190.886
191.437
191.298
191.269
190.078
190.116
190.076
191.554
191.827
191.64
191.641
190.79
190.989
190.879
190.171
190.11
190.128
191.187
192.647
191.663
253.889
191
191.145
191.094
190.043
250.866
190.064
197.63
193.337
190.247
190.193
190.377
190.308
190.555
190.457
190.818
190.675
191.164
190.982
191.364
191.252
191.454
190.886
191.063
192.209
190.174
285.519
190.265
190.216
190.092
190.023
190.055
190.169
190.13
190.253
190.21
190.347
190.298
190.462
190.402
190.604
190.53
190.772
190.685
192.984
190.867
190.643
190.718
190.493
190.567
190.372
190.428
190.278
190.323
190.196
190.236
190.156
190.074
190.038
190.057
190.092
189.916
190.083
190.098
191.914
192.078
192.344
191.464
191.118
191.433
190.001
191.107
190.976
190.188
190.145
191.846
191.832
190.013
189.995
200.023
200.626
200.623
200.02
190.005
190.019
189.988
190.973
192.343
189.927
190.067
279.362
288.782
274.139
191.284
191.256
251.967
190.032
195.182
190.166
190.122
190.272
190.216
190.414
190.338
190.615
190.505
190.913
190.751
191.3
191.098
191.772
191.52
192.052
191.412
191.655
190.991
191.192
190.663
190.815
190.431
190.534
190.288
190.351
190.235
201.322
202.09
202.976
203.993
205.197
206.612
208.275
210.201
212.469
215.241
215.278
218.837
223.823
223.912
218.906
210.226
212.499
206.627
208.295
203.996
205.206
202.087
202.975
201.319
190.069
190.035
190.144
190.106
190.225
190.184
190.313
190.268
190.413
190.361
190.533
190.471
190.671
190.6
273.161
190.749
190.917
190.856
191.077
191.036
190.941
190.699
190.774
190.565
190.632
190.44
190.5
190.337
190.385
190.254
190.294
190.176
190.215
190.095
190.136
190.055
190.039
190.022
190.072
190.055
190.104
190.089
217.492
280.808
191.632
191.24
191.232
191.605
189.98
192.71
199.475
199.473
189.992
268.922
215.656
219.468
192.067
258.18
191.197
192.052
190.05
190.062
199.482
199.037
199.043
189.977
189.963
190.002
189.975
231.815
231.719
191.011
191.174
192.624
192.339
191.034
191.173
284.753
193.365
194.524
189.881
190.118
190.067
190.08
191.426
191.405
189.961
189.989
189.974
190.021
190.005
190.036
190.185
190.137
190.298
190.238
190.453
190.369
190.68
190.555
191.011
190.832
191.446
191.217
191.994
191.701
192.336
192.61
193.879
192.245
192.638
191.588
191.891
191.102
191.328
190.734
190.905
190.472
190.589
190.311
190.381
190.204
190.254
190.16
200.647
200.036
202.129
201.352
204.049
203.025
206.689
205.262
210.366
208.379
212.734
199.478
199.04
199.035
244.07
245.869
263.38
225.054
233.185
215.608
219.408
210.415
212.749
206.738
208.439
204.059
205.29
202.121
203.023
200.638
201.343
200.029
190.05
190.019
190.121
190.084
190.199
190.16
190.282
190.24
190.372
190.326
190.474
190.422
190.588
190.53
190.715
190.651
190.832
190.778
191.076
190.928
190.878
191.103
190.961
191.15
190.999
190.985
190.868
190.9
190.748
190.82
190.618
190.683
190.502
190.559
190.397
190.448
190.309
190.351
190.232
190.27
190.154
190.193
190.074
190.114
190.036
190.008
189.993
190.038
190.023
190.053
288.905
212.622
225.081
191.817
191.383
191.372
191.799
190.071
294.694
193.93
191.192
199.494
199.051
189.947
278.707
189.965
189.95
189.939
189.954
190.131
190.092
243.728
195.455
196.723
298.621
189.921
216.266
220.446
196.901
199.145
199.63
191.345
192.307
192.292
191.331
194.422
199.489
199.049
265.313
271.233
264.848
195.842
192.941
191.251
190.974
191.133
191.034
191.198
191.271
192.892
195.237
233.763
189.885
194.156
222.691
191.587
191.572
189.97
189.958
189.997
189.983
190.023
190.011
190.046
190.036
190.058
190.118
190.085
190.204
190.153
190.325
190.26
190.493
190.401
190.745
190.606
191.111
190.913
191.595
191.338
192.25
191.892
193.198
192.685
193.73
193.74
194.345
192.587
193.106
191.767
192.137
191.208
191.463
190.802
190.99
190.514
190.643
190.335
190.413
190.22
190.273
190.173
200.679
200.056
202.196
201.401
204.154
203.11
206.848
205.389
210.665
208.591
213.173
198.644
198.654
198.644
191.321
198.661
198.655
254.518
258.435
243.88
250.924
226.172
234.816
216.258
220.263
210.769
213.234
206.93
208.699
204.168
205.434
202.183
203.105
200.667
201.386
200.047
189.954
189.934
189.943
189.985
189.967
190.034
190.007
190.099
190.065
190.174
190.136
190.254
190.214
190.338
190.296
190.428
190.382
190.524
190.475
190.626
190.575
190.725
190.678
190.81
190.768
191.014
190.881
190.848
190.906
190.92
191.059
190.921
190.928
190.883
190.905
190.835
190.862
190.759
190.796
190.662
190.714
190.554
190.608
190.454
190.503
190.364
190.408
190.285
190.324
190.21
190.247
190.133
190.172
190.056
190.094
189.992
190.022
189.948
189.968
189.939
189.936
189.957
189.946
189.983
189.97
190.009
189.996
190.035
190.022
190.058
190.047
286.192
258.991
190.727
204.736
226.681
280.89
202.619
262.235
239.237
215.709
191.534
192.019
191.072
191.045
192.008
191.528
195.359
195.938
199.54
189.894
216.497
197.032
194.311
198.661
263.344
259.233
189.926
189.923
189.931
296.279
197.157
192.572
191.448
191.185
191.244
191.466
192.553
194.027
190.025
190.036
245.542
252.571
283.121
266.01
191.393
215.027
286.254
258.963
194.98
261.283
193.295
191.326
191.397
193.199
190.031
190.069
190.04
198.367
198.639
198.34
235.747
189.929
193.692
195.121
207.57
190.459
190.642
191.762
191.062
191.753
196.159
189.937
189.931
189.956
189.946
189.979
189.967
190.003
189.991
190.015
190.069
190.132
190.098
190.224
190.174
190.351
190.282
190.531
190.432
190.807
190.655
191.206
190.991
191.746
191.457
192.513
192.09
193.696
193.045
194.729
216.523
195.494
192.868
193.523
191.93
192.35
191.307
191.59
190.864
191.067
190.553
190.693
190.358
190.443
190.236
190.291
190.142
190.187
190.103
199.498
199.039
200.717
200.077
202.275
201.457
204.292
203.217
207.079
205.566
211.103
208.904
217.151
213.785
228.685
221.918
198.364
198.641
198.344
198.369
198.349
198.349
198.363
251.995
255.336
243.272
248.395
228.184
236.085
217.17
221.752
211.267
213.909
207.195
209.062
204.31
205.629
202.258
203.209
200.704
201.439
199.494
200.069
199.039
189.95
189.94
189.978
189.963
190.021
189.998
190.08
190.049
190.15
190.114
190.228
190.189
190.309
190.268
190.391
190.35
190.475
190.433
190.561
190.518
190.643
190.603
190.719
190.682
190.781
190.752
190.816
190.802
190.819
190.823
190.792
190.809
190.747
190.772
190.681
190.715
190.597
190.641
190.505
190.551
190.418
190.461
190.338
190.377
190.264
190.3
190.19
190.227
190.115
190.153
190.045
190.079
189.988
190.014
189.95
189.967
189.943
189.934
189.964
189.953
189.987
189.976
190.009
189.998
190.02
189.932
285.155
259.344
189.92
205.25
198.755
205.256
192.234
191.677
191.227
191.268
191.692
192.235
194.626
190.526
190.045
198.514
284.184
287.08
200.907
257.017
189.929
240.116
200.576
198.603
198.311
276.821
254.233
191.523
296.281
204.92
195.814
264.662
277.677
192.862
191.552
191.393
191.488
191.61
192.832
193.574
189.92
189.916
190.078
190.049
190.01
190.019
198.598
198.304
198.063
198.038
213.658
244.946
189.921
189.916
236.909
190.008
194.408
189.893
201.442
190.593
191.937
191.251
191.949
195.293
189.931
189.925
189.947
189.938
189.967
189.956
189.988
189.978
190.009
189.999
190.026
190.018
190.033
190.078
190.053
190.145
190.108
190.241
190.189
190.374
190.302
190.567
190.46
190.865
190.7
191.295
191.062
191.894
191.569
192.794
192.29
194.376
193.459
195.877
240.521
195.372
197.351
193.235
194.103
192.097
192.592
191.395
191.709
190.92
191.137
190.588
190.736
190.38
190.47
190.249
190.308
190.153
190.199
190.113
199.473
199.003
200.732
200.07
202.35
201.502
204.441
203.323
207.359
205.771
211.63
209.289
218.25
214.489
230.207
223.453
198.065
198.043
198.066
198.047
198.047
198.064
250.042
252.904
242.357
246.971
229.632
236.482
218.294
223.235
211.868
214.691
207.501
209.497
204.459
205.841
202.33
203.313
200.723
201.487
199.473
200.065
199.005
273.086
189.949
189.938
189.975
189.96
190.013
189.992
190.065
190.037
190.129
190.096
190.203
190.166
190.282
190.243
190.361
190.322
190.437
190.399
190.512
190.475
190.584
190.548
190.649
190.618
190.704
190.679
190.737
190.724
190.742
190.744
190.721
190.734
190.68
190.702
190.621
190.652
190.548
190.586
190.468
190.508
190.39
190.428
190.316
190.352
190.245
190.28
190.174
190.21
190.103
190.138
190.039
190.07
189.988
190.011
189.953
189.968
189.939
189.933
189.926
189.951
189.942
189.97
189.961
189.99
189.98
190
255.978
273.116
198.024
290.457
268.663
261.156
278.52
205.784
191.648
300.376
200.441
196.834
200.07
262.964
270.226
281.607
192.449
191.809
191.452
191.529
191.869
192.479
194.043
190.481
189.913
190.012
190.018
201.069
255.671
227.408
209.458
190.026
198.016
243.455
208.411
251.946
189.911
270.007
243.683
236.888
191.765
287.135
199.987
194.908
281.678
193.112
191.643
193.15
197.835
197.808
281.466
193.843
276.083
190.012
191.764
293.098
297.245
198.242
190.383
273.918
285.627
192.109
191.484
192.161
194.557
189.904
189.915
189.91
189.927
189.921
189.941
189.933
189.959
189.95
189.979
189.969
189.997
189.988
190.005
190.039
190.023
190.085
190.059
190.155
190.116
190.255
190.201
190.392
190.318
190.598
190.484
190.914
190.739
191.372
191.124
192.031
191.67
193.091
192.49
195.16
193.936
197.361
249.711
196.923
200.974
193.605
194.819
192.237
192.808
191.467
191.806
190.963
191.192
190.616
190.771
190.397
190.493
190.26
190.322
190.162
190.208
190.085
190.121
190.033
190.055
198.563
198.004
198.274
199.442
198.967
200.719
200.045
202.395
201.511
204.582
203.414
207.658
205.98
212.194
209.708
219.477
215.316
230.845
224.854
253.036
197.867
197.862
197.854
197.854
197.858
197.865
197.8
197.829
247.775
249.65
241.658
245.689
230.582
236.597
219.488
224.564
212.467
215.533
207.811
209.941
204.604
206.055
202.388
203.41
200.715
201.506
199.444
200.044
198.569
198.971
198.014
198.282
189.926
189.906
189.916
254.09
189.906
189.902
189.896
190.55
189.948
189.937
189.975
189.96
190.01
189.991
190.056
190.031
190.113
190.083
190.182
190.147
190.257
190.219
190.334
190.296
190.407
190.371
190.475
190.442
190.538
190.507
190.596
190.568
190.643
190.621
190.673
190.661
190.679
190.679
190.662
190.673
190.626
190.646
190.574
190.602
190.511
190.544
190.439
190.475
190.367
190.403
190.297
190.332
190.229
190.263
190.161
190.195
190.094
190.127
190.035
190.063
189.987
190.01
189.951
189.968
189.923
189.936
189.901
189.911
189.914
189.908
189.927
189.92
189.942
189.934
189.96
189.951
189.978
189.969
189.996
189.987
190.011
190.004
272.923
252.228
264.171
257.369
249.755
248.468
241.318
242.165
236.417
191.922
294.577
197.797
195.619
197.595
278.24
189.889
271.298
282.007
247.99
192.656
191.929
191.723
191.837
192.061
192.752
193.526
194.459
189.899
267.728
190.016
197.788
197.799
283.266
276.368
288.217
270.805
194.21
193.303
190.007
189.893
192.231
254.946
200.265
268.004
270.473
268.285
265.635
291.045
241.075
196.213
192.067
292.779
196.493
196.134
275.847
278.791
249.716
251.632
189.887
276.104
244.258
245.625
285.52
192.268
191.787
192.394
193.946
189.911
189.905
189.924
189.918
189.939
189.932
189.956
189.947
189.973
189.964
189.989
189.982
190.003
189.997
190.008
190.042
190.026
190.089
190.063
190.162
190.122
190.264
190.209
190.407
190.33
190.621
190.502
190.953
190.77
191.44
191.174
192.162
191.76
193.437
192.692
196.488
194.596
206.79
200.222
220.804
221.451
245.653
259.143
199.083
206.172
194.006
195.688
192.358
193.014
191.524
191.886
190.996
191.235
190.638
190.799
190.411
190.511
190.269
190.332
190.168
190.215
190.09
190.126
190.037
190.06
190.02
197.764
197.969
198.23
198.524
198.933
199.413
200.016
200.694
201.498
202.402
203.464
204.696
206.168
207.937
210.103
212.749
216.192
220.606
225.713
230.884
235.866
240.302
243.952
245.597
246.242
247.48
246.65
250.71
255.299
197.484
197.513
197.571
197.596
197.609
197.607
197.606
197.607
197.593
197.566
197.505
197.472
197.486
266.9
246.821
245.631
244.174
241.226
236.633
231.122
225.513
220.486
216.301
212.959
210.295
208.07
206.239
204.73
203.485
202.416
201.505
200.701
200.021
199.417
198.938
198.531
198.239
197.981
197.777
197.5
285.82
286.424
246.884
193.392
194.324
268.785
266.795
196.23
194.705
193.596
268.097
190.32
272.802
190.968
284.843
271.181
278.582
272.2
264.956
276.171
271.31
250.015
248.957
245.859
292.527
286.627
265.473
278.902
274.934
272.061
249.138
192.845
192.23
192.039
192.266
193.793
193.059
249.142
251.151
254.551
259.541
267.402
278.795
191.071
199.806
278.726
190.05
266.901
269.222
190.009
190.005
190
189.994
189.987
189.979
189.971
189.962
189.954
189.946
189.937
189.929
189.922
189.915
189.908
189.901
189.894
189.889
189.886
189.885
189.891
189.898
189.908
189.92
189.933
189.948
189.965
189.984
190.005
190.029
190.055
190.084
190.115
190.147
190.18
190.213
190.247
190.28
190.314
190.347
190.381
190.414
190.447
190.478
190.508
190.535
190.559
190.58
190.597
190.611
190.62
190.625
190.624
190.619
190.609
190.594
190.575
190.554
190.53
190.504
190.476
190.446
190.414
190.381
190.345
190.309
190.272
190.236
190.2
190.166
190.134
190.104
190.076
190.052
190.03
190.01
189.992
189.976
189.961
189.947
189.935
189.923
197.354
197.364
197.71
197.495
189.89
288.156
261.097
189.912
189.901
278.325
197.533
189.881
189.883
189.887
189.894
189.902
189.91
189.918
189.926
189.935
189.943
189.952
189.96
189.968
189.976
189.983
189.999
189.995
189.99
190.012
190.023
190.039
190.063
190.093
190.129
190.171
190.218
190.272
190.337
190.417
190.519
190.649
190.81
191.009
191.249
191.543
191.916
192.415
193.146
194.357
196.628
201.566
211.468
229.692
254.779
246.656
204.834
253.913
240.97
218.014
205.014
198.393
195.42
193.808
192.879
192.264
191.823
191.484
191.208
190.978
190.789
190.636
190.514
190.416
190.337
190.27
190.213
190.165
190.124
190.091
190.064
190.028
190.044
259.379
190.004
190.001
189.997
189.992
189.986
189.979
189.971
189.963
189.955
189.947
189.939
189.931
189.923
189.915
189.908
189.9
189.888
189.894
190.126
189.892
189.898
189.907
189.917
189.93
189.945
189.96
189.978
189.997
190.019
190.044
190.071
190.1
190.132
190.164
190.198
190.232
190.265
190.298
190.331
190.362
190.393
190.422
190.45
190.476
190.5
190.521
190.539
190.554
190.566
190.574
190.578
190.578
190.575
190.567
190.555
190.541
190.523
190.502
190.478
190.452
190.423
190.392
190.359
190.324
190.289
190.254
190.22
190.187
190.155
190.126
190.099
190.074
190.051
190.03
190.011
189.993
189.976
189.96
189.946
189.931
189.918
189.907
189.898
197.775
274.509
189.885
189.881
285.237
280.1
270.667
262.259
256.399
252.874
249.833
248.113
246.787
246.608
245.81
244.566
243.35
240.982
236.803
231.618
226.176
221.185
216.897
213.355
210.535
208.242
206.363
204.81
203.525
202.431
201.502
200.684
199.996
199.388
198.903
198.487
197.724
197.915
198.18
193.403
192.656
192.127
192.416
261.583
283.276
270.677
281.899
280.503
277.605
275.25
271.482
285.93
276.552
247.15
246.976
197.343
197.432
197.53
197.562
197.585
197.591
197.592
197.588
197.566
197.535
197.44
281.549
273.37
277.582
281.664
256.219
205.577
193.022
190.146
282.256
274.961
263.929
268.032
250.545
248.355
246.878
246.508
245.624
245.506
244.13
240.126
235.554
230.84
226.031
221.294
216.942
213.289
210.434
208.155
206.295
204.757
203.486
202.399
201.477
200.668
199.986
199.381
198.897
198.479
198.169
197.902
255.053
267.072
275.04
276.242
265.229
281.772
195.194
195.285
190.266
190.829
190.003
197.35
197.51
193.945
284.111
268.855
260.352
197.386
197.371
189.883
289.412
282.445
267.989
196.241
193.07
192.474
269.473
189.88
190.355
248.492
190.294
284.052
194.402
249.057
271.909
258.362
197.821
197.449
197.628
198.443
198.112
199.351
198.864
200.629
199.95
202.354
201.434
204.765
203.458
208.287
206.352
213.664
210.695
221.49
217.282
230.85
226.11
240.448
235.519
244.924
243.975
245.635
245.233
246.067
246.183
248.1
246.6
252.615
249.855
264.463
257.226
280.125
271.222
283.684
284.516
275.462
281.234
269.958
197.332
197.114
197.011
197.531
197.499
197.581
197.569
197.567
197.58
197.492
197.527
197.005
197.326
197.155
197.332
197.139
197.102
248.972
216.774
190.005
268.654
270.426
192.555
192.947
197.347
197.643
197.464
198.124
197.835
198.871
198.452
199.963
199.358
201.475
200.654
203.525
202.411
206.405
204.83
210.683
208.316
217.149
213.585
226.472
221.443
236.98
231.917
242.38
240.688
244.823
243.545
247.743
246.114
247.427
253.561
250.998
248.848
257.08
253.367
267.911
262.54
280.35
276.57
277.213
279.887
274.81
189.882
189.88
189.893
189.887
189.914
189.902
189.944
189.928
189.978
189.961
190.013
189.995
190.052
190.032
190.098
190.074
190.151
190.123
190.21
190.18
190.276
190.243
190.343
190.309
190.407
190.376
190.461
190.436
190.502
190.483
190.529
190.517
190.543
190.538
190.543
190.545
190.531
190.539
190.507
190.52
190.472
190.49
190.427
190.451
190.376
190.402
190.318
190.348
190.253
190.286
190.184
190.219
190.116
190.149
190.056
190.085
190.008
190.031
189.971
189.989
189.941
189.956
189.916
189.928
189.899
189.907
190.104
189.893
273.237
189.89
189.885
189.905
189.897
189.923
189.914
189.94
189.931
189.956
189.948
189.971
189.964
189.985
189.978
189.994
189.99
190
189.997
270.09
190.002
270.571
190.044
190.028
190.092
190.065
190.167
190.126
190.274
190.216
190.422
190.341
190.646
190.521
190.994
190.802
191.512
191.228
192.338
191.865
194.214
193.039
200.761
196.4
228.532
209.569
250.415
246.028
250.051
243.132
247.23
212.97
232.491
197.098
202.564
193.227
194.561
191.938
192.455
191.261
191.558
190.819
191.019
190.525
190.656
190.34
190.422
190.22
190.275
190.13
190.172
190.063
190.094
190.023
190.04
190.012
190.322
190.017
189.996
189.999
189.988
189.992
189.975
189.982
189.959
189.967
189.942
189.951
189.925
189.934
189.906
189.915
189.889
189.897
189.879
189.882
265.907
189.878
248.499
189.884
197.212
197.197
190.431
282.022
189.881
189.879
189.876
189.876
189.879
189.885
189.893
189.903
189.913
189.923
189.933
189.943
189.952
189.96
189.968
189.976
189.983
189.988
189.993
189.996
189.998
190
190.392
274.425
190.014
190.023
190.037
190.059
190.089
190.125
190.167
190.215
190.269
190.334
190.412
190.511
190.636
190.79
190.979
191.205
191.482
191.834
192.314
193.029
194.269
196.499
201.537
211.565
228.888
234.192
235.907
236.574
241.239
234.716
231.425
221.421
208.916
200.956
196.585
194.309
193.075
192.336
191.847
191.491
191.21
190.981
190.792
190.638
190.515
190.417
190.337
190.269
190.211
190.162
190.12
190.087
190.06
190.04
190.027
190.018
282.602
190.002
190.001
189.999
189.997
189.994
189.99
189.985
189.979
189.972
189.965
189.957
189.948
189.94
189.931
189.921
189.912
189.902
189.894
189.886
189.881
275.731
189.891
189.895
189.9
189.906
189.915
189.926
189.939
189.952
189.967
189.983
190.001
190.022
190.046
190.074
190.105
190.139
190.174
190.21
190.246
190.279
190.311
190.34
190.367
190.392
190.415
190.437
190.457
190.474
190.49
190.502
190.513
190.52
190.525
190.527
190.527
190.523
190.517
190.507
190.493
190.475
190.453
190.428
190.399
190.367
190.335
190.301
190.268
190.236
190.205
190.176
190.148
190.121
190.096
190.073
190.051
190.03
190.011
189.992
189.974
189.956
189.939
189.922
189.907
189.896
189.888
189.883
189.879
189.877
189.877
189.878
246.223
261.478
264.505
263.27
263.199
263.894
262.036
258.278
253.075
250.553
248.474
247.111
246.798
246.3
246.022
245.639
245.056
243.558
242.113
240.438
236.939
231.964
226.593
221.537
217.21
213.641
210.727
208.349
206.422
204.833
203.518
202.398
201.456
200.628
199.93
199.316
198.821
198.394
198.052
197.746
197.532
197.363
197.259
197.169
193.25
192.743
286.673
265.625
190.016
284.584
251.027
197.132
197.088
197.069
197.028
197.407
197.582
197.627
197.675
197.693
197.694
197.677
197.632
197.59
197.415
197.035
197.082
197.105
197.147
197.115
284.199
263.451
269.124
266.697
266.239
266.139
263.112
258.088
252.861
250.662
248.768
247.659
246.889
246.416
246.167
245.54
245.261
244.737
243.564
240.75
235.477
230.826
226.132
221.529
217.351
213.768
210.792
208.349
206.375
204.763
203.443
202.333
201.408
200.6
199.914
199.307
198.814
198.385
198.039
197.732
197.517
197.347
197.244
197.155
197.101
266.65
271.87
192.703
193.298
254.073
267.761
269.281
288.429
190.003
193.541
250.36
261.252
189.886
193.348
189.886
190.009
263.345
246.826
189.889
189.893
256.24
190.006
208.982
204.664
288.348
191.101
251.239
219.925
275.802
194.347
189.885
193.674
193.49
192.971
277.761
190.007
190.61
191.277
257.547
189.941
266.22
248.503
250.087
213.667
190.01
252.327
190.212
192.347
190.002
266.835
190.004
272.254
191.877
254.056
282.48
246.03
268.239
189.901
278.45
247.193
228.532
257.952
197.411
191.103
189.879
190.97
189.974
193.573
190.099
190.402
190.885
)
;

boundaryField
{
    wall
    {
        type            zeroGradient;
    }
    outlet
    {
        type            inletOutlet;
        inletValue      uniform 1e-05;
        value           nonuniform List<scalar> 
20
(
197.132
197.088
197.069
197.028
197.407
197.582
197.627
197.675
197.693
197.694
197.677
197.632
197.59
197.415
197.035
197.082
197.105
197.147
197.115
197.101
)
;
    }
    frontAndBackPlanes
    {
        type            empty;
    }
}


// ************************************************************************* //
