/*--------------------------------*- C++ -*----------------------------------*\
| =========                 |                                                 |
| \\      /  F ield         | OpenFOAM: The Open Source CFD Toolbox           |
|  \\    /   O peration     | Version:  2212                                  |
|   \\  /    A nd           | Website:  www.openfoam.com                      |
|    \\/     M anipulation  |                                                 |
\*---------------------------------------------------------------------------*/
FoamFile
{
    version     2.0;
    format      ascii;
    arch        "LSB;label=32;scalar=64";
    class       volScalarField;
    location    "0.00397";
    object      p;
}
// * * * * * * * * * * * * * * * * * * * * * * * * * * * * * * * * * * * * * //

dimensions      [1 -1 -2 0 0 0 0];

internalField   nonuniform List<scalar> 
2681
(
190.867
204.053
204.65
190.22
209.539
205.262
190.18
190.222
190.229
190.241
190.213
190.299
190.286
190.502
190.336
190.391
190.437
190.223
190.231
190.24
190.253
190.293
190.278
190.265
190.323
190.308
190.215
190.207
190.21
190.228
190.221
190.243
190.235
190.262
190.252
190.273
190.307
190.325
190.342
190.312
190.323
190.284
190.298
190.261
190.27
205.142
190.252
190.219
190.203
190.203
190.21
190.356
190.42
190.234
190.222
190.267
190.279
190.202
190.198
190.196
190.193
190.241
190.23
190.264
190.252
190.296
190.279
190.335
190.315
190.199
190.354
190.361
190.377
190.323
190.343
190.312
190.2
190.471
207.539
190.208
190.201
190.204
190.219
190.213
190.233
190.226
190.248
190.241
190.257
190.278
190.288
190.256
190.267
190.239
190.247
190.223
190.231
190.206
190.214
190.2
190.213
190.205
190.29
190.378
190.352
190.369
190.198
190.192
190.19
190.401
190.427
190.398
190.404
190.263
190.302
190.273
190.221
190.206
190.213
190.309
190.497
190.403
215.177
190.302
190.325
190.335
190.195
204.608
190.199
190.763
190.541
190.228
190.219
190.251
190.239
190.279
190.264
190.317
190.296
190.361
190.339
190.38
190.368
190.386
190.331
190.35
190.438
190.212
197.681
190.244
190.231
190.197
190.191
190.194
190.203
190.2
190.212
190.207
190.224
190.218
190.237
190.231
190.252
190.244
190.271
190.261
190.52
190.282
190.249
190.256
190.235
190.242
190.222
190.228
190.21
190.216
190.198
190.203
190.194
190.194
190.188
190.19
190.2
190.18
190.205
190.208
190.415
190.449
190.47
190.368
190.312
190.38
190.189
190.313
190.283
190.227
190.218
190.417
190.417
190.192
190.189
242.731
247.585
247.579
242.728
190.186
190.187
190.185
190.281
190.476
190.181
190.202
191.159
205.532
208.029
190.338
190.347
203.558
190.195
190.597
190.217
190.211
190.235
190.225
190.261
190.247
190.294
190.276
190.338
190.315
190.384
190.362
190.429
190.405
190.453
190.372
190.394
190.33
190.35
190.298
190.312
190.275
190.286
190.25
190.263
190.238
253.238
259.627
266.522
273.531
280.117
285.684
289.956
291.215
291.201
290.702
290.687
287.018
262.452
262.694
287.037
291.208
291.191
285.677
289.949
273.52
280.108
259.616
266.508
253.229
190.194
190.191
190.199
190.197
190.206
190.202
190.217
190.211
190.228
190.223
190.239
190.233
190.255
190.247
191.065
190.264
190.28
190.259
190.29
190.276
190.266
190.243
190.251
190.231
190.237
190.221
190.226
190.212
190.216
190.202
190.207
190.194
190.197
190.19
190.191
190.188
190.191
190.188
190.201
190.196
190.211
190.206
190.916
191.252
190.383
190.322
190.322
190.39
190.186
190.502
238.688
238.685
190.187
192.014
290.562
286.938
190.437
213.919
190.299
190.434
190.2
190.202
238.821
235.285
235.365
190.185
190.184
190.186
190.185
230.98
230.885
190.283
190.3
190.492
190.459
190.269
190.286
205.766
190.53
190.599
190.18
190.215
190.205
190.209
190.35
190.356
190.184
190.189
190.187
190.195
190.192
190.198
190.222
190.214
190.242
190.231
190.271
190.255
190.309
190.289
190.358
190.333
190.404
190.382
190.452
190.427
190.477
190.484
190.553
190.439
190.465
190.387
190.413
190.334
190.36
190.295
190.312
190.273
190.283
190.252
190.263
190.232
190.242
190.223
247.809
242.916
259.857
253.478
273.682
266.722
285.681
280.197
291.082
289.879
291.065
238.816
235.361
235.284
218.826
219.327
191.288
264.368
232.191
290.598
287.161
291.1
291.082
285.669
289.879
273.655
280.174
259.834
266.696
247.797
253.461
242.908
190.192
190.189
190.196
190.194
190.201
190.199
190.21
190.205
190.221
190.215
190.23
190.225
190.241
190.235
190.256
190.249
190.264
190.261
190.286
190.269
190.266
190.274
190.26
190.278
190.265
190.263
190.252
190.255
190.244
190.25
190.231
190.238
190.222
190.226
190.214
190.218
190.205
190.209
190.197
190.201
190.191
190.194
190.189
190.19
190.188
190.189
190.187
190.197
190.193
190.201
204.299
190.859
263.021
190.4
190.333
190.331
190.402
190.205
202.037
190.559
190.283
239.009
235.463
190.183
191.129
190.185
190.183
190.182
190.183
190.219
190.212
219.327
190.64
190.693
203.096
190.18
290.38
286.819
190.655
190.713
190.732
190.32
190.458
190.456
190.309
190.604
239.004
235.459
191.053
205.302
207.318
190.644
190.515
190.305
190.272
190.29
190.269
190.284
190.293
190.513
190.689
231.234
190.181
190.588
190.911
190.364
190.366
190.187
190.185
190.192
190.19
190.196
190.194
190.201
190.198
190.204
190.212
190.208
190.227
190.218
190.249
190.237
190.282
190.264
190.325
190.302
190.375
190.35
190.421
190.398
190.469
190.444
190.516
190.494
190.544
190.531
190.58
190.466
190.494
190.414
190.441
190.354
190.384
190.302
190.325
190.272
190.284
190.253
190.262
190.235
190.244
190.226
248.134
243.184
260.229
253.838
273.968
267.071
285.756
280.382
290.932
289.832
290.907
232.447
232.473
232.445
190.294
232.501
232.475
212.262
209.405
221.777
215.737
266.929
233.627
290.459
287.259
290.956
290.935
285.745
289.825
273.933
280.357
260.207
267.042
248.124
253.823
243.176
190.184
190.182
190.183
190.186
190.185
190.19
190.188
190.195
190.193
190.199
190.197
190.204
190.201
190.214
190.209
190.222
190.218
190.231
190.226
190.243
190.237
190.249
190.247
190.254
190.252
190.274
190.258
190.257
190.259
190.259
190.272
190.257
190.258
190.253
190.255
190.247
190.25
190.241
190.243
190.235
190.238
190.225
190.23
190.216
190.22
190.209
190.213
190.201
190.205
190.195
190.198
190.191
190.192
190.189
190.19
190.186
190.187
190.183
190.184
190.182
190.181
190.184
190.183
190.187
190.185
190.193
190.19
190.2
190.197
190.206
190.203
203.205
213.433
190.314
190.764
263.951
191.393
190.781
191.022
190.973
190.897
190.346
190.418
190.274
190.275
190.419
190.341
190.652
190.624
190.767
190.181
190.917
190.698
190.568
232.498
204.866
206.838
190.182
190.182
190.183
204.176
190.69
190.481
190.329
190.293
190.29
190.319
190.483
190.594
190.198
190.2
219.394
191.009
195.452
203.52
190.303
190.906
206.931
206.205
190.626
211.837
190.54
190.311
190.303
190.546
190.201
190.209
190.204
230.028
232.526
230.011
231.682
190.181
190.574
190.689
190.837
190.273
190.306
190.38
190.275
190.379
190.693
190.182
190.182
190.186
190.184
190.19
190.188
190.193
190.192
190.195
190.207
190.217
190.211
190.232
190.223
190.257
190.243
190.293
190.273
190.34
190.315
190.389
190.365
190.432
190.411
190.48
190.455
190.531
190.504
190.567
190.915
190.629
190.491
190.522
190.445
190.468
190.386
190.418
190.322
190.353
190.278
190.297
190.255
190.265
190.238
190.246
190.222
190.23
190.215
239.172
235.541
248.516
243.45
260.752
254.319
274.385
267.564
285.909
280.682
290.711
289.787
290.122
290.673
264.913
286.632
230.061
232.52
230.005
230.025
230.079
230.077
230.062
211.971
208.929
222.116
215.853
268.023
234.515
290.192
287.002
290.749
290.714
285.906
289.793
274.361
280.663
260.737
267.543
248.51
254.311
239.167
243.445
235.535
190.184
190.183
190.186
190.185
190.189
190.187
190.193
190.191
190.197
190.195
190.201
190.199
190.207
190.204
190.215
190.211
190.223
190.219
190.232
190.227
190.238
190.236
190.241
190.24
190.245
190.243
190.245
190.245
190.244
190.245
190.243
190.244
190.238
190.241
190.234
190.236
190.229
190.232
190.22
190.225
190.212
190.216
190.205
190.208
190.199
190.202
190.194
190.196
190.191
190.192
190.188
190.19
190.186
190.187
190.183
190.184
190.182
190.181
190.185
190.183
190.19
190.187
190.196
190.193
190.198
190.181
197.282
201.33
190.182
190.841
190.738
190.856
190.439
190.359
190.294
190.294
190.353
190.441
190.637
190.292
190.203
190.673
191.171
204.33
190.785
213.338
190.182
190.987
190.794
232.543
230.013
202.272
206.471
190.315
203.026
190.852
190.665
209.174
209.028
190.509
190.337
190.315
190.315
190.331
190.515
190.583
190.181
190.181
190.212
190.206
190.197
190.2
232.552
230.021
227.814
227.778
190.863
219.838
190.18
190.18
232.338
190.2
190.609
190.181
190.787
190.299
190.397
190.294
190.396
190.674
190.181
190.181
190.184
190.183
190.188
190.186
190.191
190.189
190.195
190.193
190.2
190.197
190.202
190.21
190.206
190.22
190.214
190.238
190.228
190.265
190.25
190.304
190.282
190.353
190.328
190.399
190.377
190.439
190.418
190.488
190.463
190.551
190.516
190.602
190.973
190.614
190.696
190.51
190.552
190.463
190.484
190.413
190.441
190.347
190.381
190.291
190.316
190.26
190.273
190.241
190.25
190.225
190.233
190.218
239.267
235.583
248.767
243.62
261.115
254.631
274.821
267.989
286.167
281.048
290.62
289.856
289.978
290.569
265.774
286.498
227.884
227.773
227.812
227.931
227.93
227.885
211.668
208.176
222.238
215.589
268.131
234.445
290.035
286.807
290.643
290.595
286.17
289.863
274.82
281.048
261.113
267.991
248.766
254.63
239.261
243.616
235.575
210.116
190.184
190.183
190.185
190.184
190.188
190.186
190.191
190.189
190.195
190.193
190.198
190.197
190.203
190.2
190.209
190.206
190.215
190.212
190.223
190.219
190.229
190.226
190.232
190.231
190.234
190.233
190.234
190.234
190.234
190.234
190.234
190.234
190.231
190.233
190.228
190.23
190.223
190.226
190.215
190.219
190.207
190.211
190.202
190.204
190.197
190.199
190.193
190.195
190.19
190.191
190.188
190.189
190.185
190.186
190.183
190.184
190.182
190.181
190.18
190.183
190.182
190.187
190.185
190.192
190.19
190.195
191.137
191.141
227.768
201.191
201.601
202.794
191.07
190.852
190.33
201.909
190.798
190.705
190.808
210.279
191.415
207.765
190.46
190.372
190.319
190.321
190.37
190.469
190.62
190.286
190.181
190.197
190.199
190.729
204.026
190.957
190.865
190.202
227.776
190.985
190.813
213.467
190.18
191.199
220.382
232.972
190.347
202.515
190.808
190.642
191.27
190.524
190.345
190.55
226.213
226.21
200.502
190.579
191.47
190.198
190.344
200.119
200.956
190.749
190.26
191.326
198.19
190.415
190.32
190.418
190.655
190.181
190.18
190.18
190.181
190.18
190.183
190.182
190.186
190.184
190.189
190.187
190.193
190.19
190.195
190.203
190.2
190.212
190.207
190.223
190.217
190.242
190.231
190.272
190.256
190.314
190.291
190.363
190.338
190.405
190.386
190.443
190.422
190.504
190.472
190.585
190.539
190.649
191.061
190.657
190.754
190.523
190.579
190.461
190.486
190.42
190.441
190.365
190.394
190.306
190.334
190.266
190.283
190.244
190.254
190.228
190.236
190.214
190.221
190.204
190.209
232.639
227.816
230.102
239.372
235.67
248.954
243.749
261.551
254.925
275.366
268.517
286.58
281.548
290.582
290.016
289.852
290.511
265.861
286.25
191.117
226.363
226.262
226.433
226.433
226.265
226.365
226.218
226.218
211.343
207.844
221.845
215.278
267.015
233.952
289.877
286.394
290.597
290.526
286.588
290.026
275.373
281.557
261.562
268.525
248.954
254.931
239.366
243.745
232.63
235.662
227.807
230.093
190.182
190.181
190.181
191.275
190.18
190.179
190.18
190.288
190.183
190.183
190.185
190.184
190.187
190.186
190.189
190.188
190.193
190.191
190.196
190.195
190.2
190.198
190.204
190.202
190.21
190.207
190.215
190.212
190.221
190.218
190.225
190.223
190.226
190.225
190.227
190.226
190.227
190.227
190.227
190.227
190.225
190.226
190.223
190.224
190.216
190.22
190.209
190.213
190.203
190.206
190.199
190.201
190.195
190.197
190.192
190.194
190.19
190.191
190.187
190.188
190.184
190.186
190.182
190.183
190.181
190.182
190.18
190.181
190.179
190.179
190.18
190.179
190.182
190.18
190.185
190.183
190.19
190.187
190.194
190.192
190.199
190.197
204.174
203.084
200.91
201.956
204.168
205.601
190.966
221.073
233.301
190.366
201.168
190.762
190.678
190.767
191.374
190.181
191.566
191.409
214.182
190.479
190.385
190.352
190.358
190.391
190.502
190.588
190.655
190.18
191.257
190.201
226.272
226.263
196.306
199.894
199.438
206.21
190.609
190.541
190.198
190.18
190.41
190.989
190.803
193.427
194.126
194.205
193.567
199.185
221.408
190.724
190.388
200.071
190.719
190.727
191.47
191.551
202.895
201.863
190.18
200.471
215.151
214.795
201.369
190.431
190.356
190.446
190.623
190.18
190.18
190.18
190.179
190.181
190.18
190.184
190.183
190.187
190.185
190.191
190.189
190.195
190.193
190.197
190.205
190.202
190.213
190.208
190.226
190.219
190.246
190.235
190.278
190.26
190.321
190.298
190.37
190.345
190.408
190.391
190.449
190.425
190.524
190.484
190.624
190.568
190.79
190.701
190.897
190.919
191.035
191.146
190.69
190.797
190.538
190.603
190.459
190.492
190.411
190.433
190.366
190.39
190.314
190.34
190.271
190.29
190.247
190.257
190.23
190.238
190.216
190.222
190.206
190.21
190.203
226.278
227.835
230.184
232.714
235.735
239.441
243.831
249.077
255.077
261.684
268.65
275.608
281.903
286.99
290.283
290.765
290.685
289.978
286.165
265.241
233.196
221.466
215.264
211.409
208.51
206.39
203.523
191.091
200.932
224.631
224.614
224.646
224.736
224.874
224.966
224.966
224.875
224.739
224.651
224.621
224.64
224.658
191.721
208.269
211.388
215.217
221.612
233.343
265.504
286.195
289.98
290.69
290.769
290.294
287.01
281.923
275.627
268.665
261.691
255.081
249.076
243.826
239.433
235.726
232.706
230.175
227.827
226.27
224.65
199.425
198.836
202.53
190.547
190.642
192.37
192.144
190.726
190.642
190.567
192.056
190.246
195.03
190.291
196.953
191.762
191.536
203.037
191.529
194.813
193.228
210.327
206.427
211.297
200.143
198.482
192.996
195.188
194.368
193.741
190.985
190.495
190.413
190.396
190.418
190.604
190.538
203.581
202.441
201.36
200.347
199.385
198.426
190.298
190.778
207.5
190.199
191.491
191.74
190.2
190.198
190.196
190.194
190.192
190.19
190.188
190.186
190.184
190.182
190.18
190.179
190.179
190.179
190.179
190.179
190.179
190.179
190.18
190.18
190.18
190.181
190.181
190.181
190.182
190.182
190.183
190.184
190.185
190.186
190.187
190.189
190.19
190.192
190.193
190.194
190.196
190.198
190.199
190.201
190.203
190.205
190.208
190.21
190.213
190.216
190.218
190.219
190.22
190.221
190.221
190.221
190.221
190.221
190.22
190.22
190.219
190.218
190.217
190.214
190.212
190.21
190.207
190.205
190.203
190.201
190.199
190.197
190.196
190.194
190.193
190.191
190.189
190.188
190.187
190.186
190.185
190.184
190.184
190.183
190.182
190.182
224.027
224.055
226.278
224.665
190.181
198.445
191.355
190.181
190.181
191.065
190.739
190.18
190.179
190.179
190.179
190.178
190.178
190.178
190.179
190.179
190.181
190.183
190.185
190.187
190.189
190.191
190.196
190.194
190.193
190.201
190.204
190.207
190.212
190.217
190.223
190.231
190.239
190.248
190.259
190.273
190.291
190.312
190.334
190.356
190.377
190.4
190.428
190.462
190.502
190.551
190.619
190.711
190.826
190.963
191.226
191.091
190.858
191.437
191.019
190.86
190.749
190.66
190.597
190.545
190.498
190.458
190.429
190.411
190.394
190.374
190.35
190.326
190.302
190.282
190.264
190.249
190.237
190.228
190.221
190.214
190.21
190.203
190.206
199.857
190.197
190.195
190.193
190.191
190.189
190.187
190.186
190.184
190.182
190.181
190.18
190.18
190.179
190.179
190.179
190.18
190.18
190.18
190.207
190.181
190.181
190.181
190.181
190.182
190.183
190.183
190.184
190.185
190.185
190.186
190.188
190.189
190.191
190.192
190.193
190.195
190.196
190.198
190.2
190.201
190.203
190.204
190.206
190.208
190.21
190.212
190.214
190.215
190.215
190.216
190.216
190.216
190.216
190.216
190.215
190.214
190.213
190.211
190.21
190.208
190.206
190.204
190.202
190.2
190.199
190.197
190.195
190.194
190.193
190.191
190.19
190.188
190.187
190.186
190.186
190.185
190.184
190.184
190.183
190.183
190.182
190.182
190.181
190.755
191.698
190.181
190.181
197.49
197.214
198.085
199.019
199.919
200.882
201.912
202.986
204.225
206.157
208.398
211.162
215.008
221.071
232.367
262.872
285.794
290.221
291.086
291.205
290.896
287.712
282.512
276.198
269.238
262.144
255.4
249.307
243.991
239.551
235.811
232.76
226.269
227.844
230.247
190.576
190.479
190.404
190.446
191.87
191.169
193.173
195.135
194.361
193.783
193.192
192.751
197.868
191.249
208.455
210.976
224.035
224.034
224.079
224.191
224.344
224.445
224.444
224.343
224.189
224.075
224.028
191.073
209.726
193.844
194.642
191.711
190.839
190.498
190.213
197.113
198.068
199.013
192.417
200.826
201.616
204.759
206.375
208.447
211.276
215.068
221.082
232.399
262.996
285.758
290.194
291.066
291.187
290.876
287.689
282.491
276.18
269.218
262.129
255.393
249.306
243.994
239.557
235.818
232.768
230.256
227.852
202.407
201.796
191.725
191.65
191.919
195.71
190.685
190.681
190.233
190.273
190.198
224.063
224.657
190.593
196.841
191.991
204.53
224.079
224.086
190.18
199.141
195.862
192.362
190.712
190.519
190.448
192.551
190.181
190.262
191.446
190.247
196.454
190.634
192.014
191.858
203.06
227.862
224.664
226.284
232.78
230.299
239.563
235.837
249.328
244.004
262.219
255.454
276.165
269.234
287.83
282.646
291.702
291.107
290.783
291.616
260.982
286.119
220.616
231.495
211.11
214.819
206.218
208.302
203.39
204.597
201.45
202.382
199.741
200.588
197.886
198.843
196.073
196.932
194.397
195.279
193.044
193.671
192.422
222.472
222.468
222.43
222.681
222.549
222.934
222.835
222.837
222.935
222.553
222.684
222.437
222.478
222.478
224.09
222.483
222.476
208.105
190.919
190.199
192.731
192.145
190.461
190.516
224.083
226.275
224.657
230.291
227.853
235.83
232.773
244
239.557
255.459
249.328
269.249
262.229
282.676
276.19
291.152
287.867
291.667
291.752
286.16
290.839
231.476
260.845
214.798
220.648
208.255
211.115
204.89
206.243
202.575
190.988
200.634
201.594
198.808
199.703
196.987
197.871
195.289
196.005
193.722
194.338
193.054
190.181
190.181
190.182
190.182
190.183
190.182
190.183
190.183
190.184
190.184
190.186
190.185
190.187
190.186
190.189
190.188
190.192
190.19
190.194
190.193
190.197
190.196
190.2
190.198
190.203
190.201
190.206
190.204
190.209
190.208
190.211
190.21
190.213
190.212
190.212
190.213
190.211
190.212
190.209
190.21
190.206
190.208
190.203
190.204
190.2
190.202
190.198
190.199
190.195
190.197
190.192
190.194
190.189
190.191
190.187
190.188
190.185
190.186
190.184
190.185
190.183
190.183
190.182
190.182
190.181
190.181
190.207
190.181
191.147
190.18
190.18
190.179
190.18
190.179
190.179
190.18
190.179
190.182
190.18
190.185
190.183
190.189
190.187
190.192
190.19
190.195
190.194
192.421
190.197
192.63
190.207
190.204
190.216
190.211
190.23
190.222
190.251
190.239
190.284
190.266
190.329
190.305
190.378
190.354
190.416
190.399
190.465
190.435
190.56
190.508
190.689
190.619
190.923
190.786
191.29
191.112
191.53
191.145
191.299
190.852
191.003
190.631
190.728
190.512
190.561
190.442
190.474
190.384
190.411
190.336
190.359
190.293
190.314
190.261
190.275
190.24
190.249
190.225
190.232
190.213
190.218
190.205
190.209
190.202
190.258
190.201
190.195
190.197
190.191
190.193
190.188
190.19
190.184
190.186
190.18
190.182
190.178
190.179
190.178
190.178
190.179
190.178
190.179
190.179
200.213
190.179
191.901
190.181
222.526
222.533
190.277
196.147
190.18
190.18
190.18
190.179
190.179
190.179
190.178
190.178
190.178
190.178
190.178
190.179
190.181
190.184
190.186
190.188
190.189
190.191
190.193
190.195
190.196
190.198
190.272
199.136
190.204
190.207
190.21
190.214
190.22
190.226
190.233
190.241
190.251
190.262
190.277
190.296
190.319
190.345
190.374
190.403
190.431
190.459
190.484
190.514
190.557
190.62
190.716
190.845
191.015
191.192
191.415
191.608
191.782
191.384
191.176
190.945
190.799
190.691
190.619
190.56
190.509
190.469
190.442
190.422
190.403
190.38
190.355
190.33
190.307
190.286
190.268
190.253
190.241
190.231
190.223
190.217
190.212
190.208
190.206
190.203
196.253
190.198
190.196
190.195
190.193
190.191
190.19
190.188
190.187
190.185
190.183
190.181
190.18
190.18
190.179
190.179
190.179
190.179
190.18
190.18
190.181
191.291
190.181
190.182
190.182
190.182
190.182
190.183
190.183
190.184
190.184
190.185
190.186
190.186
190.186
190.187
190.188
190.19
190.191
190.193
190.195
190.196
190.198
190.198
190.199
190.2
190.201
190.202
190.204
190.205
190.206
190.207
190.208
190.209
190.21
190.211
190.211
190.21
190.209
190.208
190.207
190.205
190.204
190.202
190.201
190.199
190.198
190.197
190.196
190.195
190.194
190.193
190.191
190.19
190.188
190.188
190.187
190.186
190.186
190.185
190.185
190.184
190.184
190.183
190.183
190.183
190.182
190.182
190.182
190.181
190.181
190.181
192.152
192.654
193.371
193.978
194.961
195.959
197.105
198.113
199.09
199.968
200.827
201.672
202.615
203.554
204.8
206.028
207.977
210.637
214.225
219.78
230.041
254.108
286.583
292.909
293.387
293.297
291.699
288.554
283.803
277.484
270.214
262.772
255.726
249.408
243.969
239.53
235.843
232.775
230.321
227.856
226.307
224.68
224.129
222.64
190.542
190.48
197.576
192.573
190.201
196.656
206.227
222.964
222.927
222.95
222.954
223.029
223.132
223.272
223.432
223.547
223.546
223.429
223.269
223.129
223.022
222.947
222.943
222.922
222.958
222.947
191.286
192.745
193.566
194.116
195.032
195.981
197.044
198.078
198.987
199.869
200.655
201.482
202.326
203.263
204.39
205.817
207.751
210.508
214.107
219.641
229.91
253.946
286.456
292.821
293.315
293.235
291.666
288.527
283.78
277.467
270.199
262.762
255.721
249.408
243.972
239.535
235.85
232.783
230.328
227.864
226.314
224.687
224.135
222.646
222.952
192.246
191.913
190.481
190.539
205.387
192.88
192.097
198.311
190.2
190.58
190.985
191.984
190.181
190.521
190.18
190.202
191.642
203.456
190.181
190.181
192.571
190.2
190.861
190.769
206.108
190.295
191.213
190.878
204.087
190.566
190.181
190.562
190.556
190.514
206.073
190.199
190.292
190.359
212.519
190.182
191.113
203.69
206.56
190.899
190.202
204.929
190.217
190.452
190.198
192.099
190.198
192.941
190.365
200.041
195.775
204.959
191.859
190.181
195.665
206.81
190.945
204.751
190.719
190.273
190.18
190.264
190.185
190.563
190.209
190.244
190.288
)
;

boundaryField
{
    wall
    {
        type            zeroGradient;
    }
    outlet
    {
        type            inletOutlet;
        inletValue      uniform 1e-05;
        value           nonuniform List<scalar> 
20
(
222.964
222.927
222.95
222.954
223.029
223.132
223.272
223.432
223.547
223.546
223.429
223.269
223.129
223.022
222.947
222.943
222.922
222.958
222.947
222.952
)
;
    }
    frontAndBackPlanes
    {
        type            empty;
    }
}


// ************************************************************************* //
