/*--------------------------------*- C++ -*----------------------------------*\
| =========                 |                                                 |
| \\      /  F ield         | OpenFOAM: The Open Source CFD Toolbox           |
|  \\    /   O peration     | Version:  2212                                  |
|   \\  /    A nd           | Website:  www.openfoam.com                      |
|    \\/     M anipulation  |                                                 |
\*---------------------------------------------------------------------------*/
FoamFile
{
    version     2.0;
    format      ascii;
    arch        "LSB;label=32;scalar=64";
    class       volVectorField;
    location    "0.0415";
    object      U;
}
// * * * * * * * * * * * * * * * * * * * * * * * * * * * * * * * * * * * * * //

dimensions      [0 1 -1 0 0 0 0];

internalField   nonuniform List<vector> 
2308
(
(-0.797583 3.5463 -1.02361e-15)
(0.198066 0.458698 0)
(-0.0112506 5.49435 7.24037e-17)
(0.223191 2.12073 -3.61136e-16)
(0.0507159 3.60929 0)
(0.212261 3.32538 -1.20569e-20)
(-0.180166 3.25385 2.0211e-21)
(-0.233813 3.41994 -4.98795e-16)
(-0.0299222 3.70471 9.07681e-16)
(0.00536283 3.02397 -1.20554e-16)
(0.00398383 3.02624 2.14983e-16)
(0.0178359 3.03276 -3.15674e-16)
(0.0148112 3.0402 1.56324e-16)
(0.013787 3.04884 -7.91568e-17)
(0.0146263 3.05956 1.34803e-17)
(0.0167445 3.07306 1.12012e-16)
(0.0192711 3.09028 1.49806e-17)
(-0.0100912 3.11364 3.46531e-17)
(-0.00641426 3.09194 4.66286e-17)
(-0.00706583 3.07386 3.45086e-18)
(-0.00674867 3.05975 2.63238e-17)
(-0.00592401 3.04924 -7.69281e-17)
(-0.00570801 3.04103 9.88336e-17)
(-0.00630295 3.03491 -4.5526e-17)
(-0.000142475 3.03034 -1.95771e-16)
(-0.00195232 3.02651 -9.31637e-17)
(-0.00501078 3.02498 4.76524e-17)
(0.0026712 3.02209 -5.24326e-17)
(-0.10976 3.30469 0)
(0.0194659 3.11219 -3.19781e-16)
(0.00190933 3.02003 2.79263e-18)
(0.000930358 3.01833 7.15423e-19)
(0.000824048 3.01657 -1.22348e-17)
(0.000845341 3.01483 1.15647e-17)
(0.000991593 3.01321 -1.22963e-17)
(0.00105432 3.01177 1.15811e-17)
(0.00114094 3.01042 -5.78554e-18)
(0.00119054 3.0092 5.7845e-18)
(0.00121055 3.00813 -5.77772e-18)
(0.00123223 3.00729 2.88896e-18)
(0.0011996 3.00668 5.78278e-18)
(0.00112856 3.00634 8.68017e-18)
(0.000980344 3.00635 -1.7399e-17)
(0.000792816 3.00659 1.16379e-17)
(0.000593079 3.00703 5.81867e-18)
(0.0212016 3.0037 -5.83841e-18)
(0.0212103 3.00336 5.81509e-18)
(0.0211682 3.00315 -8.70523e-18)
(0.0210023 3.00334 -9.43242e-18)
(0.0207158 3.00377 1.44853e-17)
(0.0203435 3.00451 -2.8969e-18)
(0.0198653 3.00538 5.80454e-18)
(0.0193345 3.00664 1.45162e-18)
(0.0188021 3.00784 -8.70234e-18)
(0.0182297 3.00922 -2.90732e-18)
(0.0175943 3.01074 5.80894e-18)
(0.0169599 3.01231 0)
(0.0162689 3.01391 -7.22192e-19)
(0.0154711 3.01541 -2.37454e-17)
(0.013751 3.01664 -8.17937e-17)
(0.0117741 3.01754 9.63508e-17)
(0.0184796 3.02243 9.94806e-17)
(0.0200328 3.01964 1.14168e-16)
(0.0228498 3.02333 1.07272e-21)
(0.0253812 3.02724 1.27929e-16)
(0.0251137 3.02889 -2.37187e-16)
(0.0278986 3.03477 -5.44143e-17)
(0.0313229 3.04239 0)
(0.0358431 3.05269 0)
(0.0409489 3.06564 0)
(0.0468325 3.08263 0)
(0.000327995 3.00791 -2.91183e-18)
(0.0210802 3.00441 2.92609e-18)
(-0.0412856 3.08348 -1.60904e-16)
(-0.0343162 3.06646 -3.25248e-18)
(-0.0277591 3.05364 1.27444e-17)
(-0.0234358 3.04363 0)
(-0.0207179 3.03602 -2.44361e-17)
(-0.0187268 3.03056 -2.39158e-17)
(-0.0160727 3.0259 1.19956e-17)
(-0.0160832 3.02268 4.81088e-17)
(-0.0164182 3.02141 0)
(-0.01437 3.01921 3.38814e-22)
(-0.0137067 3.01718 8.91638e-20)
(-0.0139649 3.01541 -1.15507e-17)
(-0.0144882 3.01374 1.73333e-17)
(-0.0150181 3.01214 -1.83514e-22)
(-0.0155814 3.01066 -1.0135e-17)
(-0.0160464 3.00928 0)
(-0.0165153 3.00793 -1.44773e-18)
(-0.0169849 3.00676 8.68042e-18)
(-0.0174082 3.00574 -1.15696e-17)
(-0.0178323 3.00492 5.63307e-23)
(-0.018255 3.00432 1.15841e-17)
(-0.0186957 3.00406 0)
(-0.0191311 3.00412 1.15986e-17)
(-0.0195389 3.00443 -8.3995e-24)
(-0.019947 3.00497 -5.8212e-18)
(-0.0169117 3.13539 -1.37095e-16)
(-0.0203642 3.00584 -5.8246e-18)
(0.0167939 3.137 1.39804e-16)
(0.0520466 3.10542 -6.02489e-22)
(0.0410408 2.9946 -5.86078e-18)
(0.040986 2.99433 7.31603e-18)
(0.0407915 2.99401 0)
(0.0405039 2.99411 -2.18929e-18)
(0.0400074 2.99444 5.09926e-18)
(0.0393827 2.99504 5.8266e-18)
(0.0385809 2.99598 -5.82558e-18)
(0.0376527 2.99708 0)
(0.0366352 2.99845 -1.4549e-18)
(0.0355516 2.9997 2.91714e-18)
(0.0343731 3.00125 -3.67086e-24)
(0.0331332 3.00275 -2.91725e-18)
(0.0318968 3.00419 0)
(0.0306395 3.00563 4.376e-18)
(0.0293926 3.007 -1.74186e-17)
(0.0286112 3.00828 -1.16503e-17)
(0.0291533 3.00972 4.72971e-17)
(0.0313913 3.01224 1.75321e-16)
(0.0323194 3.011 1.32334e-17)
(0.0338992 3.01211 1.25828e-16)
(0.0355805 3.01392 -5.6878e-17)
(0.0372937 3.01644 0)
(0.0415884 3.02152 0)
(0.0475012 3.02808 0)
(0.0552173 3.03726 1.88243e-16)
(0.0643399 3.04944 -2.18621e-16)
(0.0741166 3.06594 2.22722e-16)
(-0.340962 3.413 -4.00833e-16)
(0.28131 3.21757 0)
(0.17555 3.24314 0)
(0.22702 3.24773 0)
(-0.0801758 3.09242 3.20801e-16)
(-0.059464 3.06921 9.07584e-17)
(-0.0522428 3.05164 -4.1774e-22)
(-0.0452538 3.03994 -1.54298e-18)
(-0.0392832 3.03113 1.53431e-18)
(-0.034822 3.02469 1.21667e-17)
(-0.0315536 3.02022 -2.4051e-17)
(-0.0290331 3.01642 6.84401e-23)
(-0.0281066 3.01355 0)
(-0.028052 3.0123 5.31712e-17)
(-0.0277193 3.01076 3.49162e-17)
(-0.0277945 3.00902 -5.78756e-18)
(-0.0283971 3.00734 5.78524e-18)
(-0.0293024 3.00568 0)
(-0.0303182 3.00414 0)
(-0.0313952 3.00263 -7.25534e-19)
(-0.032433 3.00125 0)
(-0.0334269 2.99987 4.35076e-18)
(-0.0343914 2.99869 -4.97522e-23)
(-0.0352969 2.99767 -2.90167e-18)
(-0.0361707 2.99677 0)
(-0.0370248 2.9962 -2.90211e-18)
(-0.0378114 2.99595 4.35762e-18)
(-0.0385253 2.99593 -7.2707e-18)
(-0.0391888 2.99626 0)
(-0.0398257 2.99686 -1.16397e-17)
(-0.0403538 2.99771 2.91504e-18)
(-0.0408314 2.99895 4.42562e-23)
(-0.0207702 3.00711 0)
(3.28534e-05 3.00909 -1.46047e-18)
(0.0208365 3.00549 -4.75564e-18)
(-0.18011 3.51277 4.35614e-16)
(0.0408107 2.99566 3.66724e-19)
(-0.454655 3.34606 -1.2565e-15)
(-0.598283 3.07772 -2.89122e-16)
(0.0537836 3.13537 0)
(-0.336324 3.71537 4.16439e-16)
(-0.0343302 3.5358 -8.71355e-16)
(-0.0131874 3.16633 5.72277e-17)
(0.0848244 3.08856 -3.36795e-16)
(-0.0412881 3.00035 -2.9262e-18)
(-0.0212104 3.00854 -2.9254e-18)
(-0.000398094 3.01055 -3.66008e-19)
(0.0204378 3.00682 5.85668e-18)
(0.0404515 2.99668 3.67229e-19)
(0.0587983 2.97844 0)
(0.059113 2.97763 2.94155e-18)
(0.0591801 2.9771 5.87907e-18)
(0.0589431 2.97702 -1.46873e-18)
(0.0585971 2.97701 -5.87019e-18)
(0.0580483 2.9773 -6.59286e-18)
(0.0572705 2.97786 8.78826e-18)
(0.0563011 2.97869 2.93023e-18)
(0.0551005 2.97997 -5.86619e-18)
(0.0537516 2.98134 4.39762e-18)
(0.0522821 2.98274 -1.28193e-18)
(0.0506906 2.98425 0)
(0.0490048 2.98592 0)
(0.0472498 2.9875 0)
(0.0454755 2.989 5.87674e-18)
(0.0437195 2.99044 -2.9433e-18)
(0.0421665 2.99189 3.17837e-22)
(0.0410933 2.99309 -2.37328e-17)
(0.0408034 2.99409 0)
(0.041209 2.99462 -2.49263e-17)
(0.042183 2.99356 2.57825e-17)
(0.0437913 2.99302 5.30581e-17)
(0.0457876 2.9934 2.70658e-17)
(0.0491663 2.99524 1.07969e-16)
(0.0548084 2.99896 -1.06856e-16)
(0.0626301 3.00402 0)
(0.0729568 3.01114 2.64802e-17)
(0.0859155 3.02165 -5.32216e-17)
(0.100103 3.03702 -1.07858e-16)
(-0.119093 3.15615 5.17097e-17)
(-0.557028 4.53925 0)
(0.120942 3.51428 3.43477e-22)
(-0.338728 3.28585 5.53958e-16)
(-0.297272 3.22638 -1.18295e-16)
(-0.244835 3.18444 1.34585e-16)
(-0.19918 3.14362 -2.56133e-17)
(-0.162104 3.10776 5.00557e-17)
(-0.132256 3.07874 -2.44991e-17)
(-0.108091 3.05684 0)
(-0.0874144 3.03912 -2.37272e-17)
(-0.0727652 3.02462 -2.40744e-17)
(-0.0618439 3.01525 0)
(-0.0536109 3.00894 0)
(-0.0477081 3.00454 1.50959e-18)
(-0.0436914 3.00133 -1.35018e-17)
(-0.0410781 2.99882 0)
(-0.0397188 2.99689 0)
(-0.0392542 2.99584 -1.77502e-17)
(-0.0393741 2.99478 -1.17304e-17)
(-0.0400439 2.9935 2.33586e-17)
(-0.0411595 2.99206 5.833e-18)
(-0.0425847 2.99036 1.45772e-18)
(-0.0441711 2.98893 5.82865e-18)
(-0.045769 2.98726 -6.56165e-18)
(-0.0473323 2.98582 0)
(-0.0488532 2.98444 -2.91416e-18)
(-0.0503115 2.98323 0)
(-0.0516886 2.98203 0)
(-0.0529961 2.98113 0)
(-0.0542334 2.98058 -1.16592e-17)
(-0.05538 2.98019 0)
(-0.0564364 2.98005 -6.55274e-18)
(-0.057332 2.98042 1.09236e-18)
(-0.0581458 2.98093 2.29498e-17)
(-0.0588528 2.98175 0)
(-0.059437 2.98292 -1.16643e-17)
(-0.059938 2.98425 1.82195e-19)
(-0.665122 5.301 0)
(-0.411736 3.53859 6.83217e-16)
(0.842724 3.07128 1.09391e-15)
(0.129594 1.85198 0)
(-0.49223 3.70843 -3.29877e-16)
(-0.543964 3.27962 1.43074e-15)
(0.0954118 3.11955 -6.99442e-21)
(-0.0731023 3.1887 1.08652e-16)
(0.0748367 2.94922 -3.69529e-19)
(0.0750332 2.94887 -2.95089e-18)
(0.0749168 2.94864 2.94911e-18)
(0.0745754 2.94897 0)
(0.0740669 2.94914 0)
(0.0732731 2.94973 3.68055e-19)
(0.0722475 2.95064 -1.47175e-18)
(0.0709306 2.95179 -5.14625e-18)
(0.069372 2.95345 3.67497e-19)
(0.067651 2.955 -7.58066e-19)
(0.0657508 2.95663 -9.02529e-19)
(0.0636945 2.95839 4.04874e-18)
(0.0615193 2.96014 3.68553e-19)
(0.0592931 2.96198 -2.94946e-18)
(0.0570487 2.96347 0)
(0.0548576 2.96495 1.18253e-17)
(0.0528435 2.96623 3.04965e-22)
(0.0512247 2.96708 5.98281e-17)
(0.0502261 2.96747 -4.84267e-17)
(0.0498795 2.96704 0)
(0.0503593 2.96564 5.07011e-17)
(0.0519145 2.9637 -1.55403e-16)
(0.0544916 2.96309 7.8808e-17)
(0.0588442 2.96298 1.04834e-16)
(0.0655683 2.96445 2.88069e-21)
(0.0751082 2.96712 -1.03902e-16)
(0.0878573 2.97132 1.039e-16)
(0.104168 2.97896 1.04389e-16)
(0.123966 2.99129 -1.04328e-16)
(0.115658 3.05881 -2.14025e-16)
(-0.222405 3.86179 -5.38587e-21)
(-0.624092 2.68754 -1.09555e-20)
(-0.403088 3.17626 -9.77454e-17)
(-0.345643 3.12051 -1.29425e-17)
(-0.291265 3.08965 -3.8347e-17)
(-0.24077 3.06351 -1.25265e-17)
(-0.197136 3.0401 0)
(-0.160745 3.02055 2.43209e-17)
(-0.131048 3.00574 -1.20186e-17)
(-0.106914 2.99414 -1.1973e-17)
(-0.0886835 2.98488 6.01471e-18)
(-0.0750827 2.97886 6.03221e-18)
(-0.0650835 2.97528 1.20613e-17)
(-0.0580266 2.97305 0)
(-0.0533298 2.97143 1.19718e-17)
(-0.050445 2.97036 -1.17486e-17)
(-0.049061 2.96957 -1.85983e-19)
(-0.0488353 2.96907 -3.55427e-17)
(-0.0494043 2.96845 2.94704e-18)
(-0.0505829 2.96752 -1.46794e-17)
(-0.0522049 2.96625 0)
(-0.0541127 2.96463 -4.75222e-18)
(-0.0561557 2.96316 3.65507e-19)
(-0.0581927 2.96145 6.58312e-18)
(-0.0602277 2.95996 0)
(-0.0622249 2.95855 0)
(-0.0641093 2.95714 -1.82846e-19)
(-0.0659316 2.95586 -5.66331e-18)
(-0.0676509 2.95502 5.85171e-18)
(-0.0692553 2.95433 7.31197e-18)
(-0.0707435 2.95373 -1.45995e-18)
(-0.0720929 2.95355 4.38026e-18)
(-0.0732346 2.95389 -1.46151e-18)
(-0.0741772 2.95426 -1.16926e-17)
(-0.0750603 2.95511 1.16803e-17)
(-0.0757919 2.95608 2.628e-17)
(-0.0763392 2.95734 1.1669e-17)
(-0.0767961 2.95869 0)
(-0.060373 2.98581 -6.01894e-18)
(-0.0417201 3.00201 -2.45232e-22)
(-0.0216833 3.01023 6.59743e-18)
(-0.000879666 3.01223 2.19796e-18)
(0.0199355 3.00845 -2.9344e-18)
(0.0399075 2.99823 5.8805e-18)
(0.0582763 2.97985 -5.88337e-18)
(0.0743635 2.95024 -2.95151e-18)
(0.803041 3.49277 -4.06888e-16)
(0.130879 5.35295 -9.34842e-17)
(-1.19322 1.25453 -1.62744e-16)
(-0.527332 3.51148 -6.94224e-16)
(-0.740995 3.76083 -3.43577e-16)
(0.929441 2.34038 9.77576e-17)
(0.146684 3.01033 0)
(0.131053 3.09065 4.28359e-16)
(-0.332077 3.92364 1.01117e-15)
(-0.49436 3.71379 4.14514e-16)
(-0.541772 4.29601 -4.16781e-16)
(0.0409497 3.4638 8.91728e-16)
(-0.44727 3.0146 0)
(-0.385097 2.98894 1.2713e-17)
(-0.325226 2.9729 -3.13755e-18)
(-0.270042 2.96139 -5.87264e-17)
(-0.221787 2.95141 1.2212e-17)
(-0.181104 2.94266 0)
(-0.147667 2.93626 4.47171e-23)
(-0.120816 2.93165 -2.99775e-18)
(-0.100124 2.92834 0)
(-0.0845931 2.92655 -6.00587e-18)
(-0.0733326 2.92613 -6.00448e-18)
(-0.0654946 2.92632 0)
(-0.060444 2.92656 1.49311e-18)
(-0.0575319 2.92697 -1.49027e-18)
(-0.0563043 2.92731 1.48824e-18)
(-0.0563262 2.92751 2.2232e-17)
(-0.0572752 2.92736 0)
(-0.0588828 2.92667 2.94719e-18)
(-0.060892 2.92552 -1.47131e-18)
(-0.0631709 2.92408 3.67833e-19)
(-0.0656126 2.92246 1.10365e-18)
(-0.0681039 2.92083 -6.62111e-18)
(-0.0705557 2.91935 0)
(-0.0729465 2.91773 1.46938e-18)
(-0.0752459 2.91612 2.93592e-18)
(-0.0774441 2.91504 2.93943e-18)
(-0.0795514 2.91399 -3.86536e-22)
(-0.0814498 2.91302 -1.46562e-18)
(-0.0832143 2.91236 -4.39468e-18)
(-0.0848112 2.91222 -2.93254e-18)
(-0.0861709 2.91225 -2.92986e-18)
(-0.0873261 2.9127 0)
(-0.0883001 2.91349 -1.17155e-17)
(-0.0891397 2.91423 -1.17048e-17)
(-0.089802 2.91545 -8.76523e-18)
(-0.0902678 2.91665 -1.60613e-17)
(-0.0906242 2.91798 7.30461e-18)
(-0.0771388 2.96023 -5.84321e-18)
(-0.0607238 2.98747 0)
(-0.0421532 3.00384 2.93368e-18)
(-0.0221192 3.01227 2.93811e-18)
(-0.00136923 3.01424 -5.8699e-18)
(0.0193272 3.0103 5.88476e-18)
(0.039252 2.99979 -1.61155e-23)
(0.0576304 2.98107 -2.94637e-18)
(0.0737227 2.95129 8.84889e-18)
(0.0869241 2.90624 -8.89259e-18)
(0.0875465 2.90554 1.48204e-18)
(0.0879127 2.90498 -1.10916e-18)
(0.0879392 2.90516 2.21718e-18)
(0.0877374 2.90511 -7.37688e-18)
(0.0873323 2.90582 2.76986e-18)
(0.0866194 2.90627 0)
(0.0856248 2.90726 3.69509e-19)
(0.0843217 2.90848 5.17418e-18)
(0.0827114 2.91018 -7.38538e-19)
(0.080863 2.91201 1.84481e-18)
(0.0788207 2.9138 2.90928e-23)
(0.0765786 2.91574 7.44326e-19)
(0.0741401 2.9178 -3.69446e-19)
(0.0715606 2.91962 2.58674e-18)
(0.0688892 2.92165 -8.87277e-18)
(0.0661823 2.92315 -1.44267e-22)
(0.0635767 2.9247 5.93686e-18)
(0.0611639 2.92572 -5.96014e-18)
(0.0590896 2.92631 -4.79797e-17)
(0.0574687 2.92618 4.83819e-17)
(0.0565353 2.92507 0)
(0.0565651 2.92314 -9.9875e-17)
(0.0579181 2.92001 7.5569e-17)
(0.0606733 2.9182 -7.67556e-17)
(0.0655439 2.91558 0)
(0.0733015 2.91443 0)
(0.0843914 2.91404 0)
(0.0993883 2.91437 -1.27127e-17)
(0.118915 2.91763 9.24093e-23)
(0.142858 2.9255 2.02526e-16)
(-0.122925 4.01228 -4.54999e-16)
(0.17191 3.03911 2.14476e-16)
(0.145747 3.13587 -2.01952e-16)
(-0.14542 3.20141 2.56344e-17)
(-0.449513 3.93961 4.86356e-16)
(-0.609851 3.6482 4.15196e-16)
(-0.638287 3.41734 1.33799e-20)
(-0.642401 3.19866 -4.32639e-16)
(-0.644154 2.3971 -3.0138e-16)
(-0.511393 3.07406 -2.998e-16)
(-0.54354 2.85119 1.08293e-16)
(-0.476181 2.83574 -2.51352e-17)
(-0.409399 2.83161 -4.96167e-17)
(-0.344864 2.83301 0)
(-0.286208 2.83626 4.89967e-17)
(-0.235102 2.83961 0)
(-0.191891 2.84208 0)
(-0.156368 2.84489 1.20127e-17)
(-0.127984 2.84783 2.99768e-18)
(-0.10601 2.85062 0)
(-0.0895431 2.8535 5.99205e-18)
(-0.0776917 2.85644 -2.02604e-22)
(-0.0696442 2.85922 -1.54891e-22)
(-0.0646135 2.86145 5.96839e-18)
(-0.0618802 2.86333 6.71195e-18)
(-0.0608755 2.86473 -6.69862e-18)
(-0.0611894 2.86562 -1.22507e-17)
(-0.0624882 2.86596 3.70492e-19)
(-0.0644686 2.86542 -2.22131e-18)
(-0.0668979 2.86445 7.39355e-19)
(-0.0695903 2.86311 2.95605e-18)
(-0.0723929 2.86152 -2.21669e-18)
(-0.0752335 2.8598 2.95434e-18)
(-0.0780145 2.85826 4.69932e-23)
(-0.0807172 2.85639 -7.37174e-18)
(-0.083325 2.85496 2.95202e-18)
(-0.0858101 2.8538 2.94944e-18)
(-0.0881749 2.85235 -4.41165e-18)
(-0.0903402 2.85129 5.8798e-18)
(-0.0923051 2.85074 5.88723e-18)
(-0.0940522 2.85033 0)
(-0.0956007 2.8504 1.76409e-17)
(-0.0969845 2.85079 2.93804e-18)
(-0.0980716 2.85134 2.93075e-18)
(-0.0989612 2.85224 0)
(-0.0997026 2.85322 0)
(-0.10024 2.85427 8.77371e-18)
(-0.100619 2.8555 4.17966e-23)
(-0.100966 2.85656 -1.46038e-18)
(-0.0909226 2.91913 1.46122e-18)
(-0.0773993 2.96166 0)
(-0.061044 2.98934 0)
(-0.0425473 3.00586 -1.46606e-18)
(-0.022635 3.01434 4.39911e-18)
(-0.00194196 3.01638 0)
(0.0186866 3.01229 -2.94602e-18)
(0.0385264 3.00163 -2.94546e-18)
(0.0568575 2.98258 5.89687e-18)
(0.0729456 2.95237 -2.95265e-18)
(0.0861417 2.9071 8.88698e-18)
(0.0959896 2.84171 1.48519e-18)
(0.0967227 2.841 1.48635e-18)
(0.0972623 2.84067 2.97186e-18)
(0.097458 2.84067 0)
(0.0973979 2.84095 -1.11363e-18)
(0.0971335 2.84139 -2.78365e-19)
(0.0965653 2.8422 1.66974e-18)
(0.095698 2.84323 -3.70881e-19)
(0.0944851 2.84461 -7.41465e-19)
(0.0929635 2.84616 -5.92405e-18)
(0.0911688 2.84815 1.48134e-18)
(0.0891517 2.85026 -3.70462e-18)
(0.0868966 2.85231 1.85105e-18)
(0.0844115 2.85451 -7.40267e-19)
(0.0817051 2.85686 0)
(0.0788034 2.85888 0)
(0.0757787 2.86099 0)
(0.0727053 2.86271 -2.9685e-18)
(0.0696545 2.86411 0)
(0.0667737 2.86502 -1.74069e-22)
(0.0642009 2.86541 2.39558e-17)
(0.062119 2.86487 -1.20608e-17)
(0.0607179 2.86328 2.43686e-17)
(0.060325 2.86054 7.41072e-17)
(0.0612126 2.85651 6.41548e-22)
(0.0639235 2.85287 -2.50678e-17)
(0.0692158 2.84797 -5.00256e-17)
(0.0773648 2.84399 9.928e-17)
(0.0893792 2.84018 -4.98445e-17)
(0.105735 2.83627 8.19059e-23)
(0.127189 2.83395 2.48125e-17)
(0.154608 2.83518 1.99822e-21)
(0.170958 2.93989 -3.08612e-16)
(-0.23854 4.10342 -4.67945e-16)
(-0.00550904 4.14516 8.82789e-16)
(1.23241 1.87464 0)
(0.202967 2.96415 -2.10355e-16)
(-0.680242 2.84047 7.75528e-16)
(-0.715279 3.03533 -4.13521e-16)
(-0.723591 3.27432 -7.91204e-16)
(0.172867 3.17248 -6.75138e-17)
(-0.225804 3.30597 -6.42831e-17)
(-0.0861335 3.2386 -2.56333e-17)
(0.200091 3.07671 4.67434e-21)
(-0.570265 3.89783 -4.7656e-16)
(-0.704467 3.54423 3.97414e-16)
(-0.101294 2.85745 -1.46217e-18)
(-0.0911644 2.92028 -1.46142e-18)
(-0.0775958 2.96325 0)
(-0.0613894 2.99112 -1.46599e-18)
(-0.0429774 3.00795 1.46823e-18)
(-0.0232245 3.01668 -1.46713e-18)
(-0.00259989 3.01875 1.46918e-18)
(0.0179484 3.0146 2.94437e-18)
(0.0377086 3.00367 -2.94719e-18)
(0.0559744 2.98435 5.89873e-18)
(0.0720515 2.95388 -8.86875e-18)
(0.0853011 2.90837 0)
(0.0952085 2.8426 5.68038e-23)
(0.101442 2.7508 0)
(0.102139 2.75008 -8.92317e-18)
(0.102736 2.74978 2.97706e-18)
(0.103111 2.74969 0)
(0.103232 2.75013 0)
(0.103146 2.75055 7.44137e-19)
(0.10275 2.75128 -9.30172e-20)
(0.102032 2.75249 0)
(0.100993 2.75375 -3.71826e-19)
(0.0996728 2.75548 3.71698e-19)
(0.0980572 2.75731 1.48543e-18)
(0.0961771 2.75944 7.41874e-19)
(0.0940218 2.76185 1.48439e-18)
(0.0916134 2.76422 1.609e-23)
(0.0889443 2.76663 -2.96836e-18)
(0.0860366 2.76915 7.42375e-19)
(0.0829274 2.77154 2.9705e-18)
(0.0796479 2.77369 7.42764e-19)
(0.0762705 2.7756 -1.48622e-18)
(0.072895 2.77694 2.97605e-18)
(0.0696679 2.77783 -8.94284e-18)
(0.0667376 2.77806 -1.19575e-17)
(0.0642416 2.77727 6.00553e-18)
(0.0624384 2.77531 -1.2103e-17)
(0.06163 2.77186 0)
(0.0624225 2.76702 -3.68964e-17)
(0.0646936 2.76175 7.4559e-17)
(0.0692706 2.75426 0)
(0.0770052 2.74778 0)
(0.0890614 2.74015 0)
(0.10634 2.73191 1.83236e-17)
(0.129117 2.72372 9.2908e-23)
(0.158032 2.71735 -2.17781e-21)
(0.187373 2.84304 -1.98618e-16)
(0.211287 3.5542 -4.67262e-16)
(-0.362678 4.15247 1.21425e-20)
(0.251376 1.65011 3.87309e-16)
(-0.183308 3.80116 0)
(-0.495341 2.63116 -2.36509e-17)
(-0.417647 2.64893 0)
(-0.348855 2.66756 0)
(-0.288562 2.68568 1.21233e-17)
(-0.236615 2.70193 -2.4163e-17)
(-0.192784 2.71547 0)
(-0.156887 2.7275 1.20263e-17)
(-0.128265 2.73804 0)
(-0.106167 2.74678 -2.99405e-18)
(-0.0897354 2.75427 2.99245e-18)
(-0.0780621 2.7606 -1.49561e-17)
(-0.0702612 2.76587 5.16957e-23)
(-0.0655168 2.77002 -5.96786e-18)
(-0.0631334 2.77329 1.19327e-17)
(-0.0625745 2.77569 8.93212e-18)
(-0.0633444 2.77716 -8.92807e-18)
(-0.0650613 2.77784 0)
(-0.0673927 2.77753 -4.50636e-23)
(-0.0701274 2.77669 -4.45071e-18)
(-0.0731265 2.7754 0)
(-0.0761947 2.77377 0)
(-0.0792893 2.77202 1.48211e-18)
(-0.0823236 2.77026 4.44358e-18)
(-0.0852884 2.76837 -2.96062e-18)
(-0.0881195 2.76693 2.95465e-18)
(-0.0907782 2.76557 -5.90378e-18)
(-0.0932895 2.76385 -1.47702e-18)
(-0.095619 2.76297 -1.18126e-17)
(-0.097717 2.76219 5.90057e-18)
(-0.0996006 2.76179 0)
(-0.101294 2.76204 -1.17921e-17)
(-0.102761 2.76202 -5.88266e-18)
(-0.104009 2.76266 0)
(-0.104997 2.76363 5.88142e-18)
(-0.105762 2.76445 -1.49232e-23)
(-0.106384 2.76535 8.79523e-18)
(-0.106817 2.76653 8.78172e-18)
(-0.107135 2.76747 0)
(-0.107414 2.76847 -2.92559e-18)
(0.125318 4.2557 -4.3494e-16)
(-0.126248 4.27124 -8.93977e-16)
(-0.0518447 6.05062 1.34391e-16)
(0.226448 3.11285 -1.8695e-16)
(-0.663419 3.84662 8.06247e-16)
(0.236158 2.99856 -2.94281e-21)
(0.10371 2.6267 1.48746e-18)
(0.104247 2.62604 7.44077e-18)
(0.104587 2.62603 -5.95775e-18)
(0.104805 2.62623 0)
(0.1049 2.62674 0)
(0.104744 2.6275 0)
(0.104299 2.62841 0)
(0.103526 2.62989 1.48938e-18)
(0.102446 2.63146 -7.44271e-19)
(0.101078 2.63326 3.72091e-19)
(0.0994277 2.63538 -2.23209e-18)
(0.0974922 2.6376 1.48703e-18)
(0.0952527 2.64019 7.43231e-19)
(0.0927239 2.64289 -1.11506e-18)
(0.0899539 2.64553 0)
(0.0869491 2.64817 -1.14599e-23)
(0.083739 2.65086 -7.43284e-19)
(0.0803148 2.65318 7.43834e-19)
(0.0768098 2.65516 1.48803e-18)
(0.0732185 2.65671 -1.67459e-18)
(0.069726 2.65753 1.67585e-18)
(0.0665184 2.65766 -4.47743e-18)
(0.0636778 2.65678 -8.98225e-18)
(0.0614913 2.65461 6.01681e-18)
(0.0602288 2.6508 0)
(0.0601724 2.64552 3.26395e-22)
(0.0621005 2.63838 -3.68201e-17)
(0.0666766 2.62932 3.05827e-17)
(0.0740737 2.62033 -6.12272e-18)
(0.0851035 2.60923 0)
(0.101006 2.59717 -6.04318e-18)
(0.124171 2.58393 8.34168e-17)
(0.157156 2.56956 -4.63166e-17)
(0.193205 2.71532 1.87879e-16)
(0.253367 3.43586 9.56786e-16)
(-0.487985 4.14911 1.17148e-20)
(-0.107722 2.76934 -7.32203e-19)
(-0.101579 2.8585 4.39336e-18)
(-0.0913675 2.9217 7.31289e-19)
(-0.0778348 2.96481 0)
(-0.0617517 2.99301 -1.46668e-18)
(-0.0434049 3.0103 1.46709e-18)
(-0.0237131 3.01918 -2.20471e-18)
(-0.00323872 3.02126 -5.14637e-18)
(0.017152 3.01698 5.88817e-18)
(0.0368456 3.00586 0)
(0.0550501 2.98628 -2.95093e-18)
(0.0711421 2.95539 8.86345e-18)
(0.0844712 2.90941 -5.91935e-18)
(0.0944274 2.84345 -2.9636e-18)
(0.100749 2.75156 4.44655e-18)
(0.103113 2.62707 -5.9404e-18)
(0.315065 3.57206 9.05955e-16)
(-0.774653 3.38856 -3.68338e-16)
(-0.782163 3.07248 3.75513e-16)
(-0.758092 2.80263 7.52319e-16)
(-0.707006 2.57968 3.57053e-16)
(0.101749 3.39009 -1.28999e-20)
(0.28614 3.30432 2.75199e-16)
(-0.314332 0.910161 0)
(0.21906 1.85923 0)
(-0.467279 2.39433 0)
(-0.398365 2.43546 5.99859e-18)
(-0.334033 2.47336 -1.2078e-17)
(-0.276339 2.5066 5.90879e-22)
(-0.22627 2.53539 3.62207e-17)
(-0.184065 2.55948 -2.41104e-17)
(-0.149438 2.58009 2.55388e-22)
(-0.121959 2.59752 1.19908e-17)
(-0.100877 2.61173 -2.09585e-17)
(-0.0853598 2.6234 2.99229e-18)
(-0.0745057 2.63284 1.19604e-17)
(-0.0674563 2.64034 -2.98836e-18)
(-0.0634126 2.64613 2.98631e-18)
(-0.061648 2.65055 -8.95491e-18)
(-0.0615917 2.65371 2.97996e-18)
(-0.0627661 2.65566 8.93062e-18)
(-0.0648094 2.65647 -5.95165e-18)
(-0.0674321 2.6564 5.9497e-18)
(-0.0704411 2.65566 2.23064e-18)
(-0.0736323 2.65437 5.20381e-18)
(-0.0769019 2.65273 -6.68951e-18)
(-0.080156 2.65089 4.45817e-18)
(-0.0833454 2.64898 -8.17039e-18)
(-0.086421 2.64706 -5.93863e-18)
(-0.0893226 2.64526 5.93454e-18)
(-0.0920798 2.64384 2.96269e-18)
(-0.0946764 2.64214 -2.96091e-18)
(-0.0970327 2.64111 0)
(-0.099204 2.64031 -5.91498e-18)
(-0.101181 2.64009 2.95503e-18)
(-0.10292 2.63993 -5.89786e-18)
(-0.104427 2.64019 -8.84702e-18)
(-0.105751 2.64088 -5.89731e-18)
(-0.106858 2.64169 -1.17635e-17)
(-0.107705 2.64243 2.93532e-18)
(-0.108336 2.64341 -2.93636e-18)
(-0.108856 2.64447 -5.87166e-18)
(-0.109228 2.64526 0)
(-0.109483 2.64638 0)
(-0.109755 2.64735 0)
(-0.046882 6.21003 0)
(0.225068 2.86334 -8.02175e-21)
(0.237178 3.17836 1.01284e-15)
(0.264742 4.32864 4.31621e-16)
(-0.260081 4.3586 4.4384e-16)
(0.00282416 4.42222 8.73311e-16)
(0.176848 3.42086 -4.68597e-16)
(-0.253531 5.99459 -1.15126e-16)
(-0.689247 4.81845 0)
(0.151733 3.31482 -5.33097e-16)
(0.270103 3.043 -2.17578e-16)
(0.200367 2.54862 -8.31471e-17)
(0.0449331 3.33982 -1.39935e-15)
(0.738412 3.94407 4.24852e-16)
(0.302381 1.57081 3.8102e-16)
(-0.236024 5.50036 -6.20049e-17)
(0.101256 2.46416 -2.97144e-18)
(0.101687 2.46409 -7.42956e-19)
(0.102073 2.46358 -2.23317e-18)
(0.102261 2.4637 3.67522e-22)
(0.102373 2.46405 0)
(0.102362 2.46459 0)
(0.102145 2.46553 0)
(0.101672 2.46669 -3.72631e-19)
(0.100934 2.46821 -4.65477e-19)
(0.0998913 2.47009 4.65302e-19)
(0.0985351 2.472 -3.72307e-19)
(0.0968654 2.47438 9.30411e-19)
(0.0949096 2.47677 -1.1169e-18)
(0.0926666 2.47953 0)
(0.0901475 2.48239 0)
(0.0873744 2.48531 0)
(0.0843888 2.48811 0)
(0.0811801 2.49092 0)
(0.0778292 2.49352 0)
(0.0742817 2.49574 -3.72174e-19)
(0.070672 2.49743 1.48911e-18)
(0.0670904 2.4984 0)
(0.0636202 2.49857 -3.72817e-18)
(0.0605331 2.49772 6.72243e-18)
(0.0580365 2.49554 5.99147e-18)
(0.0563968 2.49181 0)
(0.0560218 2.48621 1.81768e-17)
(0.0570909 2.47808 -1.82364e-17)
(0.0603564 2.46796 -6.05098e-18)
(0.0666621 2.45697 1.21441e-17)
(0.0767299 2.4426 -1.81489e-17)
(0.0914623 2.42646 9.00911e-18)
(0.111021 2.4068 -2.36756e-17)
(0.13493 2.38283 5.82662e-18)
(0.159016 2.36053 1.7965e-16)
(0.34995 3.44357 5.08577e-16)
(-0.825711 3.23238 6.83843e-16)
(-0.800535 3.69277 3.32589e-16)
(-0.110146 2.6482 0)
(-0.108065 2.76991 -1.34403e-23)
(-0.101863 2.85937 -1.46476e-18)
(-0.0916912 2.92297 -7.32254e-19)
(-0.0782145 2.96645 -1.8338e-19)
(-0.062129 2.99508 1.83373e-19)
(-0.0438714 3.0126 0)
(-0.0242014 3.02162 0)
(-0.00385149 3.02379 2.2071e-18)
(0.0163857 3.0195 -5.8871e-18)
(0.0360012 3.0082 7.36887e-18)
(0.0541912 2.98831 0)
(0.0702919 2.95717 -5.90247e-18)
(0.0836559 2.91092 5.91274e-18)
(0.0936863 2.8446 1.47967e-18)
(0.100069 2.75232 1.48067e-18)
(0.102509 2.62787 0)
(0.100871 2.46507 0)
(-0.158175 3.37683 0)
(-0.818655 3.14324 3.54181e-16)
(-0.809184 2.80162 0)
(-0.770728 2.52196 -7.39827e-16)
(-0.710643 2.29804 3.7291e-16)
(-0.642379 2.10568 6.76179e-16)
(-0.382602 3.63976 -1.03952e-16)
(-0.432249 4.62356 4.13589e-16)
(-0.477414 2.07466 1.25806e-17)
(-0.419353 2.14231 -9.7757e-17)
(-0.359872 2.20122 4.2539e-17)
(-0.302826 2.2535 -4.85167e-17)
(-0.250792 2.2992 -2.11802e-17)
(-0.205144 2.33847 3.02133e-17)
(-0.166472 2.37166 6.02711e-18)
(-0.134783 2.39948 -3.00567e-17)
(-0.109792 2.42257 1.80012e-17)
(-0.0907977 2.44133 0)
(-0.0769888 2.45639 -1.49614e-17)
(-0.0675248 2.46831 8.97117e-18)
(-0.0615912 2.47759 1.49443e-17)
(-0.0584229 2.48459 2.98739e-18)
(-0.0573387 2.48977 -1.19453e-17)
(-0.057817 2.49336 -5.96823e-18)
(-0.0594309 2.49556 0)
(-0.0618199 2.49653 0)
(-0.064736 2.49651 -1.48989e-18)
(-0.0678931 2.49573 -7.44823e-19)
(-0.071185 2.49438 7.44715e-18)
(-0.0745258 2.49264 1.48902e-18)
(-0.0778055 2.49068 -5.2115e-18)
(-0.0810263 2.48863 4.60442e-23)
(-0.0840715 2.48656 0)
(-0.0869647 2.48459 0)
(-0.0896644 2.48283 -5.94447e-18)
(-0.0921772 2.48117 8.91047e-18)
(-0.0944993 2.47993 -2.96719e-18)
(-0.096672 2.47914 3.51984e-22)
(-0.0986043 2.47867 2.95716e-18)
(-0.100307 2.47852 2.95732e-18)
(-0.101808 2.47903 1.77343e-17)
(-0.10311 2.47957 0)
(-0.104228 2.48007 8.83747e-18)
(-0.105131 2.48094 -8.83365e-18)
(-0.105858 2.48204 5.88639e-18)
(-0.106425 2.48295 -5.87579e-18)
(-0.106849 2.484 5.87479e-18)
(-0.107221 2.485 0)
(-0.107552 2.48619 0)
(-0.10799 2.48728 -2.93377e-18)
(0.431499 3.54372 8.87091e-16)
(0.236594 2.73131 -1.91394e-16)
(-0.736342 3.98632 -3.50753e-16)
(0.571592 3.83184 8.59904e-16)
(0.499834 4.08709 -1.11725e-20)
(0.405138 4.34706 8.61476e-16)
(0.265734 2.89611 2.10437e-16)
(-0.392369 4.38365 -9.36213e-16)
(0.144539 4.53792 0)
(-0.136114 4.55748 0)
(-0.226199 4.84201 -6.8042e-17)
(0.844643 3.04497 -4.24776e-16)
(-0.381554 4.60731 2.89982e-17)
(0.130323 3.21318 -8.44668e-16)
(0.187561 2.09891 -9.63417e-17)
(0.368008 3.32311 -5.64819e-16)
(0.162711 6.02464 0)
(0.102388 6.19649 -5.97536e-17)
(0.148071 2.1383 0)
(0.115957 2.17174 3.00227e-18)
(0.0932546 2.19822 5.99032e-18)
(0.0766804 2.22082 2.25044e-18)
(0.0648247 2.23917 3.763e-19)
(0.056785 2.25481 0)
(0.0519768 2.26735 7.53936e-18)
(0.0497323 2.27783 -7.54926e-18)
(0.0492452 2.28614 3.00167e-18)
(0.0502578 2.29151 -5.98566e-18)
(0.0523034 2.29482 1.49348e-18)
(0.0550576 2.29669 0)
(0.0582522 2.29733 2.98169e-18)
(0.0617241 2.29691 -1.49069e-18)
(0.0652866 2.29562 1.48952e-18)
(0.0687812 2.29359 -2.60728e-18)
(0.0721842 2.29104 3.02618e-18)
(0.0754362 2.28822 -6.54057e-23)
(0.0785159 2.28517 -1.58317e-18)
(0.0813795 2.28205 7.44982e-19)
(0.0840189 2.27895 -8.38171e-19)
(0.0864222 2.27584 0)
(0.088563 2.27288 3.72628e-19)
(0.0904382 2.27016 -1.86349e-19)
(0.0920414 2.26765 -7.4548e-19)
(0.0933463 2.26537 6.46446e-19)
(0.0943735 2.26336 9.31924e-20)
(0.0951488 2.26172 -3.72662e-19)
(0.0957036 2.26016 0)
(0.095994 2.25927 0)
(0.0961 2.25841 -1.49066e-18)
(0.0960051 2.25811 8.19379e-18)
(0.095782 2.25776 -1.4902e-18)
(0.0954963 2.25798 0)
(0.0952908 2.25833 5.95104e-18)
(0.0951594 2.259 -1.78838e-22)
(-0.0381749 6.30883 3.19972e-16)
(-0.108551 2.48782 2.93437e-18)
(-0.110712 2.6485 0)
(-0.108514 2.77035 -7.33596e-19)
(-0.102194 2.8602 7.32716e-19)
(-0.0921859 2.92411 1.83347e-18)
(-0.0788037 2.96799 -1.46693e-18)
(-0.0627188 2.9969 3.67179e-19)
(-0.0444841 3.01476 7.34975e-19)
(-0.0248079 3.0241 5.1497e-18)
(-0.00455379 3.02638 -7.3553e-18)
(0.0156521 3.02203 -5.89067e-18)
(0.0352682 3.01054 5.89534e-18)
(0.0534728 2.99037 -7.37251e-19)
(0.0695889 2.95891 1.47557e-18)
(0.082955 2.91229 -5.90813e-18)
(0.0930208 2.84562 -1.47695e-18)
(0.099522 2.75317 5.91804e-18)
(0.102112 2.62878 0)
(0.100663 2.46612 2.96428e-18)
(0.0950219 2.26036 -1.48326e-18)
(0.454908 3.38425 4.65079e-16)
(0.233866 2.56104 -1.67334e-16)
(0.618746 3.58708 -4.27257e-16)
(-0.51731 5.68298 0)
(-0.317287 5.80934 0)
(-0.0498439 5.83267 -1.10523e-16)
(0.229788 5.79353 -2.76897e-17)
(0.486859 5.69156 -3.45085e-17)
(0.357757 5.90872 -8.48475e-17)
(0.238815 6.0696 1.1823e-16)
(0.133082 6.18147 6.42819e-17)
(0.180993 1.5961 0)
(-0.077043 6.23925 -6.32713e-17)
(0.840648 2.67095 -7.30235e-21)
(0.79334 2.14848 3.79976e-16)
(0.834326 2.66612 -3.62891e-16)
(0.679896 3.71842 -4.30321e-16)
(0.61947 4.00595 0)
(0.534712 4.30288 0)
(0.309866 2.93711 4.39621e-16)
(0.542239 3.47122 8.66894e-16)
(-0.450723 5.43773 -8.48609e-17)
(-0.828237 2.81796 3.54421e-16)
(-0.801004 2.47356 -3.66932e-16)
(-0.751929 2.20074 0)
(-0.689147 1.98607 -7.79137e-16)
(-0.622415 1.81251 3.91848e-16)
(-0.574835 1.89054 -5.28149e-16)
(-0.426278 1.19434 -3.22924e-16)
(-0.440137 1.71522 1.02269e-16)
(-0.401872 1.80111 -1.13874e-16)
(-0.356256 1.87867 4.99979e-17)
(-0.30723 1.94872 -4.92784e-17)
(-0.259095 2.0107 0)
(-0.214547 2.0651 -3.03883e-18)