/*--------------------------------*- C++ -*----------------------------------*\
| =========                 |                                                 |
| \\      /  F ield         | OpenFOAM: The Open Source CFD Toolbox           |
|  \\    /   O peration     | Version:  2212                                  |
|   \\  /    A nd           | Website:  www.openfoam.com                      |
|    \\/     M anipulation  |                                                 |
\*---------------------------------------------------------------------------*/
FoamFile
{
    version     2.0;
    format      ascii;
    arch        "LSB;label=32;scalar=64";
    class       volScalarField;
    location    "0.0197";
    object      p;
}
// * * * * * * * * * * * * * * * * * * * * * * * * * * * * * * * * * * * * * //

dimensions      [1 -1 -2 0 0 0 0];

internalField   nonuniform List<scalar> 
2308
(
603.137
600.412
642.319
615.827
580.338
589.983
595.088
579.479
578.31
622.041
622.218
623.473
624.725
625.541
625.842
625.692
624.6
621.616
623.609
624.618
624.718
624.488
623.786
622.949
622.31
622.068
622.118
622.436
594.157
622.246
623.018
623.559
624.056
624.473
624.926
625.751
626.674
627.665
628.834
629.392
628.884
627.66
626.147
624.708
623.933
627.595
628.409
629.312
630.035
630.203
629.471
628.132
626.927
626.184
625.613
625.221
625.029
624.705
624.175
623.479
622.702
622.36
622.22
622.463
623.255
624.367
625.829
626.872
627.263
627.2
625.721
623.752
626.851
622.699
623.842
623.982
623.773
623.245
622.77
622.408
622.298
622.342
622.586
622.988
623.44
623.953
624.537
625.337
626.531
627.694
628.764
629.294
628.655
627.128
624.969
622.702
621.151
620.605
618.821
620.82
618.554
622.851
629.686
630.635
631.299
631.683
631.472
630.525
628.993
627.544
626.669
626.216
626.056
626.06
626.034
625.755
625.15
624.318
623.474
623.022
622.765
623.068
623.98
625.325
627.022
628.131
628.53
628.343
626.681
574.626
592.035
597.518
594.112
620.579
622.719
623.732
623.818
623.598
623.205
622.95
622.797
622.762
622.864
623.072
623.398
623.846
624.457
625.296
626.425
627.835
629.128
629.824
629.307
627.758
625.263
622.35
619.916
618.65
618.292
618.404
618.299
620.99
623.757
626.506
578.572
628.966
572.421
572.843
618.714
574.68
581.411
614.538
623.326
617.63
620.432
622.881
624.992
626.769
628.043
630.627
631.302
632.296
632.803
632.557
631.494
629.904
628.243
627.141
626.695
626.606
626.863
627.096
627.145
626.882
626.263
625.416
624.605
624.085
623.813
624.152
625.083
626.474
628.164
629.23
629.572
629.249
627.421
611.207
614.587
582.816
578.676
586.564
595.77
605.122
612.638
618.217
621.575
623.433
624.285
624.328
624.061
623.699
623.528
623.496
623.51
623.685
623.898
624.235
624.746
625.536
626.648
628.031
629.548
630.666
630.527
629.242
626.831
623.601
620.419
618.364
617.45
617.117
616.704
615.913
614.802
617.061
572.311
649.171
624.212
631.316
571.733
618.416
609.845
628.856
631.169
631.595
632.36
632.5
631.772
630.317
628.573
627.281
626.733
626.66
626.988
627.519
627.868
627.972
627.78
627.29
626.611
625.979
625.534
625.402
625.783
626.646
627.894
629.299
630.093
630.275
629.7
627.738
623.843
577.431
578.578
578.064
586.874
596.687
606.47
614.383
619.97
623.281
625.077
625.675
625.661
625.335
624.974
624.798
624.757
624.769
624.935
625.174
625.566
626.182
627.129
628.485
630.034
631.475
632.008
631.154
629.24
626.081
622.458
619.614
618.035
617.39
616.736
615.587
613.969
612.407
611.714
614.04
616.519
619.144
621.67
623.816
625.96
627.824
629.809
657.933
664.369
595.99
572.025
597.074
599.6
624.161
618.574
577.842
575.112
599.873
585.388
579.417
588.423
598.504
608.459
616.596
622.162
625.568
627.421
627.955
627.945
627.572
627.157
626.887
626.696
626.632
626.674
626.898
627.389
628.159
629.284
630.766
632.356
633.454
633.261
631.997
629.365
625.711
622.166
619.798
618.632
617.977
616.834
615.037
612.886
611.216
611.008
610.329
611.71
612.981
613.866
614.84
615.918
616.942
618.745
620.462
622.189
623.563
631.695
629.117
630.786
630.619
630.901
630.588
629.638
628.257
626.814
626.031
625.878
626.202
626.809
627.494
627.986
628.201
628.214
628.03
627.73
627.462
627.33
627.493
627.936
628.676
629.628
630.495
630.83
630.657
629.642
627.434
580.351
619.019
612.047
603.844
579.3
578.263
574.746
573.409
584.813
574.297
578.232
583.676
591.993
601.92
611.617
619.461
624.942
628.438
630.36
630.925
630.929
630.488
629.992
629.571
629.194
628.962
628.857
628.996
629.562
630.526
631.842
633.409
634.877
635.452
634.695
633.015
629.777
625.907
622.71
620.767
619.8
618.887
617.204
614.929
612.662
611.165
611.766
608.805
616.138
613.9
613.631
614.366
613.291
613.365
614.654
616.584
619.757
623.385
628.342
632.944
636.165
624.835
632.868
628.866
629.511
628.499
628.14
627.557
626.717
625.693
624.707
624.345
624.468
625.001
625.768
626.559
627.203
627.706
628.06
628.34
628.609
628.921
629.345
629.885
630.468
631.109
631.654
631.84
631.73
630.939
629.41
626.858
623.792
582.274
584.911
590.32
618.687
577.249
577.428
579.812
605.133
586.495
602.56
612.5
583.494
584.09
606.45
608.034
611.317
611.6
608.574
604.807
602.266
601.426
602.535
604.537
607.23
610.401
614.124
617.485
635.942
625.737
632.874
628.037
627.463
625.781
624.865
624.177
623.558
622.922
622.349
622.246
622.449
623.008
623.835
624.727
625.606
626.471
627.306
628.193
629.164
630.191
631.242
632.251
633.123
633.729
633.82
633.582
632.919
631.534
629.464
626.514
623.08
581.506
585.673
610.573
630.736
589.191
597.458
606.898
615.807
623.095
628.449
631.855
633.76
634.354
634.34
633.816
633.181
632.548
631.947
631.481
631.223
631.269
631.884
633.023
634.526
636.171
637.439
637.463
636.404
634.198
630.534
626.711
623.869
622.22
621.195
619.822
617.619
615.072
612.982
611.73
613.334
606.331
617.495
600.707
590.77
588.141
634.888
605.304
590.306
612.231
619.661
634.279
625.868
631.6
626.826
625.125
623.021
621.636
620.867
620.431
620.109
619.818
619.79
619.941
620.464
621.301
622.351
623.536
624.801
626.183
627.725
629.399
631.123
632.787
634.283
635.523
636.132
636.138
635.614
634.534
632.699
630.129
626.74
622.374
583.434
590.13
617.439
617.461
616.106
617.057
620.213
616.91
616.164
615.918
615.208
617.096
622.516
632.553
636.057
638.572
639.879
638.586
581.074
590.845
586.093
583.218
582.764
589.399
587.773
616.624
616.381
596.776
604.152
612.982
620.919
627.556
632.522
635.687
637.399
637.92
637.779
637.081
636.203
635.281
634.421
633.744
633.346
633.394
633.983
635.324
637.01
638.706
639.753
639.373
638.146
635.433
631.542
627.944
625.417
623.877
622.525
620.529
617.846
615.187
613.39
612.133
614.962
603.931
617.603
596.2
618.709
645.917
617.978
599.1
597.675
592.501
595.084
586.141
636.056
614.227
593.531
604.737
622.212
593.755
666.014
603.038
646.039
635.454
619.258
631.128
625.023
629.64
625.513
623.085
620.656
618.872
617.932
617.542
617.397
617.262
617.27
617.402
617.892
618.761
620.014
621.538
623.206
625.088
627.165
629.399
631.694
633.888
635.817
637.379
638.163
638.272
637.692
636.453
634.472
631.661
628.224
623.525
581.514
607.382
613.848
605.325
610.285
607.284
596.611
604.45
604.49
597.012
586.934
582.15
577.844
580.19
582.018
585.598
591.8
603.793
604.543
609.659
608.926
585.717
596.775
592.137
589.66
589.017
590.665
630.655
610.103
600.354
605.346
612.139
619.59
626.636
632.551
636.975
639.631
640.962
641.225
640.762
639.739
638.491
637.218
636.072
635.214
634.743
634.84
635.557
637.075
638.922
640.644
641.483
640.903
639.512
636.444
632.596
629.309
627.039
625.439
623.57
620.899
617.776
615.118
613.781
612.596
616.923
603.413
617.755
597.779
624.567
607.197
581.048
617.008
611.018
594.585
599.992
605.667
611.573
596.855
603.004
600.158
638.512
634.454
637.587
602.357
621.441
582.628
635.175
645.186
626.099
630.456
633.835
636.551
638.444
639.6
640.008
639.722
638.676
636.869
634.62
632.052
629.393
626.833
624.444
622.22
620.191
618.381
616.904
615.891
615.34
615.124
615.069
615.058
615.15
615.634
616.814
618.87
621.53
624.305
627.294
623.511
627.703
617.154
635.693
605.313
654.868
641.349
636.792
650.031
647.008
624.691
632.105
643.336
646.009
648.348
635.14
627.551
630.173
637.271
653.49
645.56
643.276
654.408
647.69
647.761
657.478
580.707
616.474
589.44
620.454
622.017
622.571
623.235
623.775
634.519
642.671
648.522
617.052
662.045
624.16
636.663
637.907
601.429
608.096
614.615
604.151
582.221
632.047
601.746
597.729
595.74
595.236
596.715
596.724
609.494
605.67
609.089
614.085
620.137
626.572
632.643
637.688
641.261
643.235
643.996
643.725
642.767
641.22
639.521
637.86
636.45
635.452
634.986
635.172
636.077
637.835
639.851
641.596
642.273
641.617
640.051
636.922
633.371
630.484
628.43
626.619
624.12
620.777
617.29
614.64
613.521
612.69
617.184
604.481
619.454
603.786
632.878
602.753
669.577
629.191
620.482
611.444
661.867
614.592
610.484
643.565
606.318
664.524
608.925
605.487
611.869
614.986
616.264
608.447
652.684
623.554
647.948
644.451
623.649
615.84
626.24
639.48
632.911
623.788
629.328
633.212
636.399
638.733
640.302
641.178
641.297
640.803
639.522
637.596
635.191
632.469
629.682
627.01
624.513
622.153
619.911
617.862
616.159
614.929
614.193
613.801
613.562
613.448
613.552
614.165
615.516
617.697
620.467
623.227
624.966
622.152
624.493
616.15
634.564
604.651
661.633
602.67
600.91
601.099
602.309
605.128
609.082
625.351
581.134
616.054
594.976
606.633
653.352
662.163
637.334
623.772
607.955
655.636
624.81
574.334
580.495
605.845
649.955
635.463
614.574
493.804
567.954
566.049
526.548
510.954
522.981
561.477
564.032
545.689
521.588
522.388
533.744
542.252
546.209
524.237
555.86
561.632
528.025
509.194
538.323
528.382
561.759
607.356
609.013
610.161
611.191
612.01
612.452
639.596
609.538
584.97
603.085
599.621
607.706
649.372
669.051
615.224
636.58
647.854
621.448
670.555
603.077
603.36
604.526
618.437
612.344
612.649
614.32
617.643
622.268
627.631
633.195
638.308
642.404
644.858
645.962
646.026
645.008
643.27
641.097
639.037
636.996
635.356
634.23
633.793
634.165
635.383
637.408
639.603
641.378
642.008
641.434
639.844
636.92
633.793
631.312
629.381
627.239
624.102
620.201
616.389
613.825
613.044
612.858
616.66
606.357
620.496
609.635
639.276
612.557
682.494
501.421
589.866
667.32
598.912
600.921
658.678
631.759
627.241
597.594
583.888
656.786
580.54
583.491
610.92
607.901
605.884
605.542
606.026
607.869
610.547
614.774
621.595
620.087
604.328
603.52
611.874
606.255
623.345
628.357
632.55
636.145
638.913
640.797
641.835
642.374
642.193
641.443
640.062
638.131
635.76
633.123
630.434
627.838
625.381
623.034
620.755
618.582
616.662
615.148
614.102
613.428
612.955
612.677
612.834
613.544
614.935
617.134
619.895
622.284
623.13
621.551
622.04
617.701
628.766
609.161
651.645
571.56
635.726
630.415
622.662
612.438
635.597
594.7
606.302
614.237
625.091
663.582
647.845
656.881
613.6
614.034
609.756
608.945
589.203
599.034
596.53
595.482
656.719
667.501
621.88
620.21
606.274
669.829
585.19
673.446
674.102
645.488
631.114
674.588
595.377
582.519
598.55
599.367
637.42
638.035
644.58
600.612
605.806
597.269
597.951
598.657
599.452
600.278
601.118
601.877
602.118
602.418
581.531
602.118
628.772
625.27
651.073
653.84
601.985
618.348
619.795
622.081
625.368
629.582
634.315
639.017
643.194
646.005
647.272
647.558
646.654
644.767
642.346
639.684
637.084
634.787
632.94
631.728
631.497
632.146
633.767
636.077
638.501
640.386
641.152
640.74
639.265
636.627
633.972
631.797
629.881
627.351
623.693
619.312
615.301
612.939
612.578
612.858
615.623
608.411
621.15
609.152
646.747
593.849
672.682
507.665
743.248
750.154
749.875
770.859
773.608
761.278
739.501
718.295
694.973
705.954
716.193
704.043
693.806
688.179
696.066
702.277
713.804
636.748
567.657
525.944
658.715
694.528
675.124
701.348
701.889
596.218
673.317
625.229
628.061
656.382
618.532
596.058
612.133
598.988
596.361
615.494
612.338
610.156
608.866
608.813
609.336
610.878
613.418
617.639
622.071
630.238
630.034
626.14
609.086
594.208
595.633
662.89
622.911
612.547
665.097
634.48
671.79
639.65
676.228
587.685
644.109
594.851
653.013
643.679
633.591
622.832
612.963
605.671
601.952
599.429
602.663
596.416
634.108
631.626
627.552
620.853
611.53
602.093
581.042
594.703
609.764
636.206
591.587
591.638
591.933
592.275
592.598
592.923
593.307
593.769
594.306
594.771
595.332
595.695
656.148
652.17
597.709
605.196
597.965
604.275
575.483
621.136
623.551
625.877
628.591
631.817
635.663
639.809
643.742
646.87
648.18
648.596
647.919
646.054
643.429
640.316
637.072
634.072
631.532
629.614
628.636
628.654
629.653
631.642
634.253
636.921
639.02
639.995
639.738
638.435
636.132
633.891
631.934
629.976
627.085
623.028
618.36
614.343
612.244
612.165
612.628
614.423
611.158
620.799
610.827
643.408
595.901
639.366
540.434
713.811
472.115
424.763
419
381.478
317.214
306.414
312.742
319.85
368.222
461.045
489.816
453.211
443.472
438.156
426.698
397.454
361.145
369.45
431.846
447.774
428.035
342.078
336.457
387.138
432.62
453.69
517.621
703.928
598.278
655.676
619.396
632.26
622.331
623.016
622.1
622.224
621.533
619.578
617.13
614.984
613.607
612.895
612.74
613.174
613.938
614.991
616.415
618.222
620.32
622.544
624.78
627.009
629.282
631.629
634.028
636.384
638.542
640.404
641.798
642.707
643.193
643.099
642.514
641.124
638.809
635.556
631.682
626.113
621.416
616.423
611.626
659.535
600.376
605.132
600.669
599.408
583.281
600.639
631.082
627.014
601.795
603.117
592.599
584.58
592.883
593.123
670.522
658.635
629.69
643.021
634.449
664.078
673.985
638.777
653.17
674.785
672.136
653.064
587.882
673.877
647.463
670.395
639.652
634.445
631.759
665.263
592.369
588.536
602.136
622.984
618.863
614.928
611.929
610.717
610.225
610.475
611.527
613.376
615.708
618.513
634.425
596.949
590.085
601.376
602.659
605.22
610.023
618.195
627.798
637.645
646.478
599.147
582.832
647.595
640.42
632.041
622.889
589.183
646.092
582.719
670.619
593.248
651.196
605.175
629.647
627.858
624.996
619.093
610.127
601.324
595.729
582.842
590.699
602.69
604.507
607.243
611.133
615.214
619.947
624.889
629.917
634.463
638.159
641.038
642.962
643.869
644.092
643.77
643.062
642.068
640.693
639.01
637.156
635.169
633.128
631.086
629.055
626.996
624.855
622.632
620.425
618.354
616.529
615.046
613.975
613.404
613.546
614.225
615.523
617.488
619.494
621.109
622.059
623.17
625.593
626.854
639.235
621.75
652.946
607.192
687.634
597.681
660.451
646.558
923.42
912.736
900.906
940.137
966.919
987.569
989.786
972.215
947.835
925.62
881.98
857.176
836.274
826.263
830.014
854.708
865.3
850.448
824.21
753.928
834.255
865.684
751.46
817.283
859.41
833.715
821.613
778.281
648.268
587.045
585.639
584.712
584.079
583.78
583.856
584.078
584.555
585.283
586.25
587.58
589.049
590.331
601.829
594.759
591.416
588.481
622.769
625.395
628.077
630.837
633.759
636.952
640.441
644.026
647.398
649.014
649.416
649.123
647.44
644.765
641.391
637.696
634.063
630.845
628.267
626.431
625.654
625.909
627.25
629.526
632.382
635.29
637.625
638.799
638.665
637.557
635.607
633.675
631.956
629.871
626.686
622.376
617.569
613.609
611.706
611.692
612.356
614.229
614.275
623.069
614.358
647.385
600.655
642.543
572.994
714.867
528.032
897.506
649.606
637.964
670.92
659.481
590.133
589.498
594.498
596.733
644.846
642.191
623.471
645.206
577.924
601.454
602.027
603.172
604.87
608.211
614.075
622.351
631.323
639.769
618.299
619.764
646.436
641.944
634.703
626.958
620.98
620.977
616.884
612.98
610.846
610.245
610.548
611.678
613.467
615.722
618.28
595.229
585.872
588.838
665.66
641.632
644.988
667.169
655.144
602.774
603.591
604.557
606.614
609.408
612.939
617.347
622.346
627.417
632.388
636.652
640.097
642.757
644.312
644.918
644.856
644.254
643.353
642.322
640.956
639.489
637.903
636.24
634.53
632.776
630.985
629.104
627.082
624.923
622.626
620.305
618.137
616.29
614.906
614.193
614.33
614.998
616.199
617.911
619.518
620.892
622.216
624.301
627.702
628.488
640.261
620.323
649.613
608.965
698.532
573.24
779.873
626.201
625.941
624.899
622.788
617.585
608.425
599.886
594.9
591.005
591.078
658.259
652.952
656.101
669.486
587.626
587.604
602.059
594.076
590.151
589.115
577.561
632.056
582.889
580.224
578.013
576.275
575.12
574.494
574.356
574.612
575.277
576.354
577.865
579.848
582.216
585.416
589.17
598.445
14.8091
15.2707
15.6279
16.0008
16.4816
16.4041
16.5157
16.139
14.8465
14.0273
14.0419
13.6175
13.0528
12.7497
12.6154
12.6113
12.751
12.8116
12.9322
13.929
14.8761
19.293
20.6778
16.4451
15.3502
13.8954
12.6658
11.8225
11.1665
13.2102
625.821
628.637
631.458
634.446
637.443
640.551
643.752
646.997
649.693
650.379
650.331
649.179
646.741
643.403
639.477
635.356
631.464
628.077
625.443
623.92
623.403
623.87
625.292
627.869
630.889
633.978
636.489
637.836
637.831
636.91
635.242
633.535
631.869
629.685
626.314
621.865
617
613.045
611.174
611.164
612.17
614.617
616.821
627.024
614.343
651.477
596.417
643.614
573.745
734.747
514.368
846.508
18.1127
661.529
650.105
664.292
585.556
588.415
823.845
510.327
600.147
598.056
14.8198
2755.13
2787.99
2338.2
2683.66
2326.25
2829.38
2605.96
2740.93
2645.97
2687.91
2799.99
2530.83
2557.34
2550.28
2536.47
2542.26
2556.6
2503.04
2525.98
2425.58
2462.1
2426.67
2415.19
2384.78
2394.61
2406.38
2380.22
2454.57
2357.79
892.498
21.5086
2452.44
2329.35
733.345
484.087
651.093
559.342
654.42
586.369
633.575
607.776
615.386
617.449
610.704
612.138
612.671
610.661
621.543
616.662
629.506
626.041
633.458
631.767
636.686
635.14
637.388
637.48
633.371
635.951
627.057
630.197
622.932
624.34
622.864
622.403
626.884
624.358
634.152
630.229
642.609
638.397
649.148
646.315
651.225
650.796
648.258
650.724
642.061
645.197
636.219
639.204
630.068
633.12
624.629
627.173
619.486
622.143
614.32
616.819
610.536
612.166
610.125
609.796
615.264
611.888
621.571
619.067
622.346
622.426
620.289
621.549
606.556
615.773
593.67
598.074
600.341
592.009
594.549
588.535
589.985
586.646
587.468
585.639
586.041
585.46
585.439
586.365
585.769
588.746
587.317
591.678
590.884
592.578
587.368
600.659
607.357
592.404
598.9
589.145
587.761
605.149
594.816
622.045
614.671
637.565
630.139
644.046
642.455
634.534
641.268
618.309
626.386
606.97
611.38
603.154
604.532
602.461
602.477
603.059
602.647
605.635
604.279
610.458
607.755
618.187
613.7
628.779
623.45
637.93
633.778
643.803
641.281
645.583
645.139
644.574
645.327
642.468
643.607
639.873
641.252
636.926
638.426
633.789
635.382
630.385
632.145
626.309
628.466
621.478
623.943
617.051
619.107
614.79
615.537
615.585
614.91
618.234
616.711
620.942
619.634
625.061
622.652
625.748
630.77
615.694
643.071
604.87
650.371
727.467
602.004
607.638
666.968
588.564
2178.98
655.819
2178.02
652.486
609.904
610.836
610.703
611.586
611.619
611.876
611.863
597.155
668.069
661.531
654.632
664.889
616.88
608.688
615.8
579.511
580.109
579.601
582.892
580.898
581.617
587.488
582.556
584.72
593.083
585.263
589.019
662.148
586.091
607.27
589.658
591.552
583.109
640.568
663.175
575.855
573.348
601.993
601.765
621.496
633.201
608.648
602.727
601.783
611.188
602.476
616.011
604.965
573.72
654.105
593.879
594.46
602.418
626.317
596.666
600.289
581.218
575.188
608.028
645.336
617.246
621.304
602.138
675.173
594.244
648.436
608.596
592.898
617.42
620.262
621.145
601.88
614.749
658.657
612.658
594.236
584.792
622.834
622.123
597.858
)
;

boundaryField
{
    wall
    {
        type            zeroGradient;
    }
    outlet
    {
        type            fixedValue;
        value           uniform 1e-05;
    }
    inlet
    {
        type            fixedValue;
        value           uniform 612;
    }
    frontAndBackPlanes
    {
        type            empty;
    }
}


// ************************************************************************* //
