/*--------------------------------*- C++ -*----------------------------------*\
| =========                 |                                                 |
| \\      /  F ield         | OpenFOAM: The Open Source CFD Toolbox           |
|  \\    /   O peration     | Version:  2212                                  |
|   \\  /    A nd           | Website:  www.openfoam.com                      |
|    \\/     M anipulation  |                                                 |
\*---------------------------------------------------------------------------*/
FoamFile
{
    version     2.0;
    format      ascii;
    arch        "LSB;label=32;scalar=64";
    class       volVectorField;
    location    "0.0216";
    object      U;
}
// * * * * * * * * * * * * * * * * * * * * * * * * * * * * * * * * * * * * * //

dimensions      [0 1 -1 0 0 0 0];

internalField   nonuniform List<vector> 
2308
(
(29.0223 28.0225 -7.43064e-16)
(-26.3517 -37.0976 0)
(9.63717 31.9704 6.17871e-17)
(24.1713 -21.3179 -2.30149e-16)
(0.986112 145.553 0)
(9.59911 130.24 2.12424e-18)
(-14.5753 119.015 1.98962e-19)
(-1.52901 129.817 -3.31011e-16)
(0.482407 144.653 6.05751e-16)
(3.14362 30.4196 -6.78673e-17)
(4.01946 33.1306 1.21752e-16)
(4.89987 37.9492 -1.82512e-16)
(5.70117 42.913 9.1518e-17)
(6.26925 49.1726 -4.6733e-17)
(6.78331 56.6865 8.06012e-18)
(7.17713 65.6332 6.78126e-17)
(7.28654 75.6524 9.13421e-18)
(-2.50682 86.7658 2.1514e-17)
(-2.37714 75.8897 2.84419e-17)
(-1.82585 65.6532 2.08335e-18)
(-1.04232 56.5826 1.56892e-17)
(-0.266049 49.065 -4.54945e-17)
(0.200785 42.8397 5.75112e-17)
(0.888151 37.8582 -2.63545e-17)
(0.44295 34.1208 -1.11375e-16)
(-0.020494 31.2319 -5.22173e-17)
(0.597333 29.1282 2.64005e-17)
(0.281621 27.265 -2.85986e-17)
(-6.92583 131.998 0)
(6.62105 86.2277 -1.97894e-16)
(0.0792575 26.1206 1.50403e-18)
(-0.0808754 25.3484 3.79867e-19)
(-0.321226 24.9685 -6.40472e-18)
(-0.530733 24.6634 5.95822e-18)
(-0.680845 24.3037 -6.26032e-18)
(-0.758869 23.8292 5.79507e-18)
(-0.736397 23.1828 -2.8633e-18)
(-0.598264 22.3395 2.80952e-18)
(-0.303265 21.3113 -2.77631e-18)
(0.201527 20.0783 1.3511e-18)
(0.970421 18.6778 2.68188e-18)
(1.97022 17.2535 3.97691e-18)
(3.14893 16.1001 -7.84072e-18)
(4.31112 15.2472 5.1565e-18)
(5.13735 14.5614 2.53974e-18)
(4.94615 15.1037 -2.53984e-18)
(4.35266 16.2526 2.58241e-18)
(3.3911 17.2785 -3.91708e-18)
(2.39508 18.3272 -4.30428e-18)
(1.55734 19.5177 6.74191e-18)
(0.937545 20.6659 -1.3676e-18)
(0.538732 21.6651 2.77741e-18)
(0.344397 22.4783 6.96874e-19)
(0.323534 23.1519 -4.30388e-18)
(0.451015 23.6568 -1.45077e-18)
(0.704345 24.0184 2.9572e-18)
(1.04701 24.298 0)
(1.46744 24.5374 -3.79035e-19)
(1.94953 24.9115 -1.25855e-17)
(2.39755 25.6518 -4.39967e-17)
(3.0613 26.8226 5.25626e-17)
(4.23214 27.8102 5.46627e-17)
(5.92704 29.3547 6.38977e-17)
(7.32233 31.5593 -1.30242e-19)
(9.09581 34.2769 7.35755e-17)
(10.2563 37.9237 -1.37365e-16)
(11.4305 42.758 -3.1855e-17)
(13.0395 48.8821 0)
(14.5957 56.5255 0)
(15.9158 65.6748 0)
(16.7223 76.1407 0)
(5.35204 13.3705 -1.2506e-18)
(4.85029 13.0349 1.25054e-18)
(-11.878 75.4705 -9.80661e-17)
(-10.4786 64.2657 -1.96984e-18)
(-8.53293 55.113 7.62395e-18)
(-6.55733 47.9759 0)
(-4.97289 42.2938 -1.42195e-17)
(-3.82808 37.6223 -1.38068e-17)
(-3.195 33.979 6.80447e-18)
(-2.72688 31.2722 2.69818e-17)
(-2.17602 29.1362 0)
(-1.95128 27.5232 3.20096e-20)
(-1.85414 26.3462 4.79645e-20)
(-1.83586 25.5765 -6.12646e-18)
(-1.85033 25.1644 9.06968e-18)
(-1.84026 24.7979 1.32222e-20)
(-1.79154 24.3741 -5.14536e-18)
(-1.69334 23.8262 0)
(-1.52412 23.0828 -7.14921e-19)
(-1.26321 22.1112 4.23108e-18)
(-0.864386 20.8949 -5.54792e-18)
(-0.255751 19.3947 -1.53045e-20)
(0.607363 17.7183 5.37996e-18)
(1.7014 16.078 0)
(2.9466 14.8251 5.22241e-18)
(4.16075 14.117 5.7754e-22)
(5.12932 13.8237 -2.53791e-18)
(-4.15657 97.6531 -8.55937e-17)
(5.62875 13.3133 -2.49872e-18)
(5.08964 97.2517 8.697e-17)
(16.3538 87.5201 8.52505e-20)
(4.30162 12.3257 -2.49803e-18)
(4.65904 15.3756 3.20451e-18)
(4.33977 17.0082 0)
(3.64723 18.233 -9.81246e-19)
(2.89085 19.2167 2.33697e-18)
(2.24651 20.2171 2.70286e-18)
(1.78486 21.1383 -2.75374e-18)
(1.52311 21.9111 0)
(1.45497 22.5178 -7.07382e-19)
(1.56325 23.0064 1.43902e-18)
(1.83893 23.3467 -1.75953e-22)
(2.26128 23.5874 -1.48471e-18)
(2.78425 23.7893 0)
(3.39958 23.9779 2.28239e-18)
(4.06861 24.3591 -9.24267e-18)
(4.78842 24.9555 -6.26753e-18)
(5.76195 25.6955 2.57853e-17)
(7.03391 26.6878 9.67593e-17)
(8.85029 27.9714 7.41586e-18)
(10.7476 29.9961 7.12799e-17)
(12.9457 32.6174 -3.26106e-17)
(15.0876 36.1925 0)
(17.2984 40.9176 0)
(19.853 46.8238 0)
(22.4377 54.1286 1.13064e-16)
(24.793 62.7424 -1.32759e-16)
(26.3925 72.5792 1.36611e-16)
(4.85816 108.312 -2.66821e-16)
(12.3165 105.869 0)
(16.045 123.773 0)
(15.0144 120.156 0)
(-22.3621 81.0447 1.98873e-16)
(-21.2007 69.8688 5.56774e-17)
(-18.6576 60.1128 -2.59761e-20)
(-15.6611 52.0631 -9.20414e-19)
(-12.5536 45.6811 9.06195e-19)
(-9.88213 40.672 7.11594e-18)
(-7.82843 36.5876 -1.3817e-17)
(-6.41121 33.3227 5.15782e-21)
(-5.39093 30.7826 0)
(-4.51474 28.8386 2.93769e-17)
(-3.97435 27.3673 1.90434e-17)
(-3.53151 26.2434 -3.11255e-18)
(-3.30155 25.5547 3.06972e-18)
(-3.1244 25.1438 0)
(-2.93278 24.7439 0)
(-2.71553 24.2752 -3.69041e-19)
(-2.46851 23.6722 0)
(-2.16101 22.8485 2.14976e-18)
(-1.76301 21.7574 3.38638e-21)
(-1.22617 20.3611 -1.38769e-18)
(-0.492449 18.6427 0)
(0.439947 16.7317 -1.34904e-18)
(1.5499 14.8991 1.99154e-18)
(2.74372 13.5945 -3.27018e-18)
(3.8687 12.9911 0)
(4.85101 12.9643 -5.06928e-18)
(5.54114 12.924 1.24839e-18)
(5.78447 12.8147 2.54711e-21)
(5.34435 12.5219 0)
(4.55351 11.5529 -6.18684e-19)
(3.58948 10.0382 -2.03564e-18)
(-1.6897 139.484 2.84214e-16)
(2.80977 8.19218 1.5371e-19)
(7.48844 84.4606 -8.49124e-16)
(14.2868 50.2637 -1.97325e-16)
(14.4804 99.5531 0)
(8.90716 117.144 2.85012e-16)
(-0.0439369 145.267 -5.5262e-16)
(-5.96369 108.466 3.64838e-17)
(26.4739 83.6522 -2.08927e-16)
(5.49423 11.633 -1.20437e-18)
(4.20233 10.2316 -1.22122e-18)
(2.71469 7.41759 -1.5289e-19)
(1.41965 4.32849 2.39825e-18)
(0.730108 1.32195 1.51069e-19)
(0.916457 -0.780363 0)
(2.58029 6.51113 1.24347e-18)
(3.99627 11.4734 2.50184e-18)
(4.47423 15.402 -6.69249e-19)
(4.32913 17.5293 -2.61107e-18)
(3.87343 18.9527 -2.96458e-18)
(3.34335 19.9058 4.02381e-18)
(2.89757 20.7547 1.35927e-18)
(2.60786 21.4734 -2.76863e-18)
(2.49279 22.0317 2.10832e-18)
(2.57805 22.4375 -6.24384e-19)
(2.84429 22.7333 0)
(3.28384 22.903 0)
(3.87566 23.0175 0)
(4.57897 23.1282 3.02568e-18)
(5.37427 23.2606 -1.54431e-18)
(6.24498 23.5622 -1.20869e-20)
(7.26589 23.9609 -1.27623e-17)
(8.50729 24.4384 0)
(9.99106 25.2411 -1.37741e-17)
(11.9269 26.3369 1.44005e-17)
(14.1233 28.0145 3.00593e-17)
(16.6847 30.3673 1.55158e-17)
(19.4731 33.5715 6.27672e-17)
(22.5324 37.8114 -6.27196e-17)
(25.9672 43.0759 0)
(29.5347 49.4013 1.59337e-17)
(32.8166 56.8028 -3.23146e-17)
(34.9653 65.354 -6.62008e-17)
(-21.3901 101.228 3.32242e-17)
(18.4572 62.0378 0)
(2.27949 144.255 -5.01522e-19)
(-2.40681 101.2 3.68034e-16)
(-12.1561 103.159 -7.80511e-17)
(-19.5454 102.96 8.74823e-17)
(-25.3125 96.8175 -1.66779e-17)
(-28.4426 87.2518 3.15653e-17)
(-30.7303 78.0685 -1.554e-17)
(-30.4448 69.768 0)
(-28.5414 61.0916 -1.45552e-17)
(-25.2662 53.5975 -1.45821e-17)
(-21.4081 47.274 0)
(-17.5456 42.1238 0)
(-14.1008 38.0922 8.77408e-19)
(-11.3722 34.7489 -7.75808e-18)
(-9.32073 31.9839 0)
(-7.79498 29.7749 0)
(-6.63601 28.1247 -9.80251e-18)
(-5.77056 26.8369 -6.39386e-18)
(-5.08874 25.8808 1.25607e-17)
(-4.67233 25.3407 3.09252e-18)
(-4.3187 24.9336 7.62928e-19)
(-3.9629 24.5186 3.0105e-18)
(-3.61187 24.024 -3.33271e-18)
(-3.229 23.38 0)
(-2.788 22.4796 -1.43913e-18)
(-2.2476 21.2644 0)
(-1.56133 19.6923 0)
(-0.70394 17.7829 0)
(0.291688 15.7168 -5.42132e-18)
(1.39092 13.8034 0)
(2.45255 12.5269 -2.95002e-18)
(3.39017 12.0196 4.83757e-19)
(4.27352 12.1245 9.99456e-18)
(5.01339 12.2955 0)
(5.7212 12.5365 -4.90032e-18)
(6.11181 11.7603 7.54732e-20)
(-6.56274 23.6465 0)
(10.4523 102.4 4.65822e-16)
(-29.1663 3.34498 8.23031e-16)
(22.2762 -23.5125 0)
(3.49424 1.05015 -2.71777e-16)
(15.0489 65.868 9.73133e-16)
(24.356 95.8849 6.39757e-19)
(-13.1086 112.541 6.93116e-17)
(1.91561 -2.0746 -1.53045e-19)
(3.02706 5.16196 -1.24091e-18)
(4.07667 10.7013 1.26567e-18)
(4.43885 15.3762 0)
(4.30407 17.912 0)
(3.9748 19.4764 1.65608e-19)
(3.6254 20.4071 -6.73869e-19)
(3.37124 21.1126 -2.39208e-18)
(3.25928 21.6487 1.73768e-19)
(3.31137 21.9997 -3.63336e-19)
(3.58734 22.1987 -4.38733e-19)
(4.03261 22.3124 1.99813e-18)
(4.64616 22.3226 1.82058e-19)
(5.39861 22.3153 -1.50058e-18)
(6.26215 22.3331 0)
(7.22427 22.3843 6.1743e-18)
(8.29623 22.5543 -1.29849e-20)
(9.57449 22.7587 3.2138e-17)
(11.0557 22.9889 -2.63781e-17)
(12.7921 23.4865 0)
(14.8805 24.3263 2.83701e-17)
(17.272 25.638 -8.7977e-17)
(20.0805 27.6634 4.51552e-17)
(23.3453 30.3146 6.09359e-17)
(27.0444 33.8026 7.48679e-20)
(31.131 38.1614 -6.1805e-17)
(35.3308 43.3106 6.25063e-17)
(39.1128 49.3279 6.34767e-17)
(41.6606 56.4086 -6.429e-17)
(35.147 75.1944 -1.32775e-16)
(5.59612 127.555 1.2637e-18)
(19.6593 6.16309 -2.49037e-18)
(-0.813322 74.5842 -6.50073e-17)
(-12.1504 77.0289 -8.46632e-18)
(-22.08 78.6759 -2.49954e-17)
(-29.5049 75.3837 -8.00746e-18)
(-34.6182 68.8842 0)
(-37.1415 62.7832 1.52958e-17)
(-36.7546 56.7807 -7.4215e-18)
(-34.3244 50.7458 -7.3322e-18)
(-30.3792 45.5671 3.6293e-18)
(-25.8643 41.1785 3.6013e-18)
(-21.4882 37.5206 7.10081e-18)
(-17.5259 34.5968 0)
(-14.3138 32.0965 6.88202e-18)
(-11.8271 29.9635 -6.66401e-18)
(-9.92418 28.2552 -1.04166e-19)
(-8.49817 26.9738 -1.96349e-17)
(-7.30425 25.9588 1.60651e-18)
(-6.46832 25.2851 -7.88965e-18)
(-5.88356 24.9151 0)
(-5.38033 24.5483 -2.48726e-18)
(-4.89912 24.1468 1.84753e-19)
(-4.45022 23.6549 3.34713e-18)
(-3.9573 22.9634 0)
(-3.39972 21.9749 0)
(-2.73179 20.6209 -8.92506e-20)
(-1.9224 18.8863 -2.71988e-18)
(-0.98607 16.8531 2.76709e-18)
(0.073394 14.6973 3.39898e-18)
(1.10559 12.8027 -6.66406e-19)
(1.98705 11.6683 1.97318e-18)
(2.72334 11.251 -6.44265e-19)
(3.47193 11.3985 -5.09105e-18)
(4.20171 11.5336 5.00252e-18)
(5.24486 11.8407 1.10666e-17)
(6.13724 11.0284 4.82782e-18)
(7.63721 10.9583 0)
(6.28315 11.3237 -2.45188e-18)
(4.00595 10.4402 -3.3911e-20)
(0.942088 8.21033 2.66562e-18)
(-1.43826 4.94974 9.09754e-19)
(-2.60018 2.04105 -1.18245e-18)
(-2.39372 -0.484217 2.39384e-18)
(-0.940455 -1.84812 -2.38761e-18)
(1.07525 -2.75803 -1.19651e-18)
(-20.4261 3.03064 -3.09463e-16)
(-8.46023 31.3893 -7.78654e-17)
(-8.70647 10.2382 -1.6152e-16)
(16.1237 84.1664 -4.74093e-16)
(26.6584 47.4867 -2.48445e-16)
(3.33632 11.7413 9.72061e-17)
(42.1772 64.5392 0)
(33.1966 85.846 2.69246e-16)
(10.2689 113.417 7.01562e-16)
(14.5003 92.7209 2.87851e-16)
(20.6879 70.5587 -2.99821e-16)
(1.55564 144.457 5.56754e-16)
(-0.99243 47.3602 0)
(-12.1652 48.5855 8.36832e-18)
(-22.7566 50.0953 -2.04196e-18)
(-31.1183 49.4542 -3.762e-17)
(-37.5309 47.0819 7.69722e-18)
(-40.5659 44.426 0)
(-40.2411 41.6748 4.14639e-20)
(-37.7309 38.9363 -1.82415e-18)
(-33.519 36.1637 0)
(-28.7623 33.9077 -3.58259e-18)
(-24.1278 31.9396 -3.54615e-18)
(-19.9707 30.2288 0)
(-16.5191 28.6883 8.57202e-19)
(-13.7817 27.2976 -8.47639e-19)
(-11.643 26.2116 8.32867e-19)
(-9.94081 25.37 1.22844e-17)
(-8.53769 24.766 0)
(-7.60613 24.4962 1.58608e-18)
(-6.88793 24.317 -7.81245e-19)
(-6.27738 24.0375 1.92187e-19)
(-5.72984 23.6814 5.70666e-19)
(-5.22059 23.1954 -3.36697e-18)
(-4.66645 22.4497 0)
(-4.03172 21.3599 7.27196e-19)
(-3.28713 19.8761 1.43311e-18)
(-2.41493 18.0265 1.40938e-18)
(-1.43289 15.8597 7.43576e-21)
(-0.372687 13.6937 -6.82593e-19)
(0.547707 11.9718 -2.01177e-18)
(1.23701 11.009 -1.31844e-18)
(1.80725 10.6629 -1.29255e-18)
(2.43678 10.7731 0)
(3.15552 10.6778 -5.02008e-18)
(4.3736 10.8066 -4.9251e-18)
(5.37821 9.45669 -3.62098e-18)
(7.69221 9.30794 -6.52081e-18)
(7.98494 4.69991 2.9122e-18)
(7.92035 8.14671 -2.32082e-18)
(5.58766 8.34466 0)
(2.19997 5.82705 1.15918e-18)
(-1.40331 0.582155 1.177e-18)
(-3.37137 -4.62763 -2.32129e-18)
(-3.86741 -6.82772 2.3485e-18)
(-3.03444 -7.55694 -5.36071e-21)
(-1.05532 -6.82585 -1.16461e-18)
(1.17872 -6.50897 3.51039e-18)
(3.54334 -6.99145 -3.54333e-18)
(3.37941 -3.30335 6.03637e-19)
(3.45055 -2.66932 -4.61848e-19)
(3.99175 4.43489 9.2734e-19)
(4.41268 10.4014 -3.1576e-18)
(4.45694 15.4836 1.21784e-18)
(4.16512 18.3137 0)
(3.8357 19.8926 1.65997e-19)
(3.5862 20.7326 2.36566e-18)
(3.4903 21.2864 -3.43284e-19)
(3.57076 21.6457 8.69907e-19)
(3.84328 21.7805 -3.04028e-22)
(4.324 21.7755 3.62285e-19)
(4.95484 21.7337 -1.82248e-19)
(5.7432 21.6082 1.29465e-18)
(6.65201 21.4961 -4.50682e-18)
(7.67328 21.4137 8.4558e-21)
(8.80323 21.3582 3.10778e-18)
(10.0591 21.3504 -3.16084e-18)
(11.5606 21.3363 -2.57676e-17)
(13.2728 21.3095 2.63297e-17)
(15.2286 21.4836 0)
(17.4866 21.9988 -5.58286e-17)
(20.0693 22.8471 4.27823e-17)
(23.0896 24.3687 -4.3986e-17)
(26.645 26.2878 0)
(30.6543 28.8947 0)
(35.0594 32.1058 0)
(39.5662 35.7054 -7.6416e-18)
(43.6466 39.7443 1.52514e-19)
(46.4192 44.4851 1.24559e-16)
(4.80389 128.396 -3.15772e-16)
(40.4022 73.7211 1.34408e-16)
(29.2083 97.9663 -1.2845e-16)
(-19.4949 111.606 1.65312e-17)
(15.7471 95.5793 3.4133e-16)
(22.1564 68.6365 2.91593e-16)
(21.9794 59.6277 1.22489e-18)
(21.441 50.1715 -2.95945e-16)
(22.0073 -12.6909 -2.06496e-16)
(9.53111 47.1045 -2.02016e-16)
(8.00739 22.5728 7.23545e-17)
(-0.270659 21.9935 -1.6939e-17)
(-11.0223 22.4084 -3.25486e-17)
(-21.8395 23.6339 0)
(-30.8902 24.5724 3.14574e-17)
(-37.6611 25.2174 0)
(-40.7662 25.8376 0)
(-40.5336 26.0901 7.41797e-18)
(-38.7267 26.1754 1.82781e-18)
(-34.6682 26.0217 0)
(-30.0044 25.897 3.57378e-18)
(-25.4219 25.6222 -5.40126e-22)
(-21.3661 25.1839 -3.28191e-21)
(-17.9255 24.6316 3.4268e-18)
(-15.1126 24.1113 3.80305e-18)
(-12.8441 23.723 -3.74994e-18)
(-10.9503 23.4363 -6.76161e-18)
(-9.50834 23.4137 2.01858e-19)
(-8.49604 23.5675 -1.192e-18)
(-7.68839 23.5973 3.89945e-19)
(-7.0198 23.4583 1.54647e-18)
(-6.46881 23.184 -1.14166e-18)
(-5.94245 22.6966 1.49996e-18)
(-5.37602 21.891 3.17787e-22)
(-4.71796 20.6915 -3.64092e-18)
(-3.95528 19.1038 1.43355e-18)
(-3.08999 17.1196 1.41681e-18)
(-2.11988 14.8717 -2.0783e-18)
(-1.187 12.779 2.73516e-18)
(-0.407334 11.2804 2.69384e-18)
(0.157239 10.5109 0)
(0.623986 10.1959 7.80911e-18)
(1.17433 10.2217 1.27871e-18)
(1.88355 9.82229 1.25636e-18)
(3.00713 9.74177 0)
(3.74871 7.67092 0)
(5.96962 7.82887 3.56022e-18)
(5.05112 1.15143 9.06295e-21)
(9.67596 1.32382 -5.6346e-19)
(12.6206 5.76684 5.72477e-19)
(10.3585 9.60908 0)
(3.79908 9.68273 0)
(-4.15513 7.85456 -5.80229e-19)
(-9.10476 4.67475 1.69653e-18)
(-7.93881 -0.463001 0)
(-4.81218 -0.786507 -1.1534e-18)
(-2.02021 0.194315 -1.1596e-18)
(0.83591 2.15354 2.29768e-18)
(2.85681 2.16562 -1.16453e-18)
(4.99007 1.48254 3.48297e-18)
(6.57935 1.71309 5.51315e-19)
(6.0853 -7.15432 5.89796e-19)
(5.70108 -3.50991 1.20863e-18)
(5.15378 -2.66317 0)
(5.14627 4.35626 -4.71045e-19)
(4.75779 10.6455 -1.21393e-19)
(4.32121 15.908 7.23876e-19)
(3.78799 18.8352 -1.69284e-19)
(3.40177 20.3029 -3.36352e-19)
(3.17536 20.9583 -2.70895e-18)
(3.19372 21.2916 6.87523e-19)
(3.47587 21.4197 -1.74716e-18)
(4.00198 21.3409 8.87325e-19)
(4.68115 21.1771 -3.599e-19)
(5.48731 20.9989 0)
(6.43896 20.7507 0)
(7.50546 20.5334 0)
(8.69139 20.3485 -1.53142e-18)
(9.98008 20.1711 0)
(11.4285 19.9642 6.16124e-21)
(13.1292 19.6935 1.28683e-17)
(15.0559 19.399 -6.56086e-18)
(17.2072 19.2206 1.34382e-17)
(19.6372 19.2994 4.14146e-17)
(22.3723 19.6093 1.58023e-20)
(25.4305 20.5239 -1.43475e-17)
(28.8898 21.7244 -2.90427e-17)
(32.8222 23.3417 5.83623e-17)
(37.1634 25.1787 -2.96864e-17)
(41.5994 26.935 3.74656e-20)
(45.5988 28.8533 1.52126e-17)
(48.297 30.9522 -1.11692e-20)
(47.1167 50.0706 -1.92516e-16)
(7.96672 116.824 -3.25614e-16)
(1.2756 125.873 6.21321e-16)
(7.69844 9.93715 0)
(45.0061 56.8384 -1.32011e-16)
(23.769 19.3013 5.31061e-16)
(27.5625 31.847 -2.86922e-16)
(27.2864 44.2271 -5.54678e-16)
(23.4493 109.58 -4.28074e-17)
(-9.93803 120.212 -4.24455e-17)
(-11.7554 122.727 -1.64736e-17)
(36.3354 85.9662 -1.05874e-18)
(19.4336 77.5074 -3.38141e-16)
(25.6463 52.3801 2.80548e-16)
(10.3656 -10.2169 -5.6022e-19)
(13.2607 -4.45972 -5.6083e-19)
(9.93453 5.1787 0)
(3.30373 5.01897 -5.67159e-19)
(-3.30382 1.00173 5.59176e-19)
(-8.76325 -7.38802 -5.58848e-19)
(-7.62853 -11.0169 5.60933e-19)
(-3.0056 -10.4052 1.12074e-18)
(-0.232962 -9.21197 -1.14117e-18)
(2.27091 -7.6177 2.2575e-18)
(5.08234 -9.45292 -3.43525e-18)
(8.62597 -13.5761 0)
(9.03549 -15.601 1.48317e-20)
(10.0822 -12.57 0)
(7.76158 4.59042 -3.4913e-18)
(8.7938 -5.81377 1.18345e-18)
(7.84552 -2.3394 0)
(6.71766 -1.74394 0)
(6.0615 5.14043 3.13958e-19)
(4.77393 11.5851 -3.99235e-20)
(3.81897 16.7541 0)
(3.09612 19.4867 -1.63733e-19)
(2.65213 20.7343 1.66325e-19)
(2.43819 21.1216 6.776e-19)
(2.56444 21.1364 3.44663e-19)
(3.03633 20.9592 7.00433e-19)
(3.76167 20.6822 1.10975e-22)
(4.58067 20.4036 -1.44392e-18)
(5.5512 20.1128 3.67223e-19)
(6.64309 19.7528 1.48789e-18)
(7.84708 19.4197 3.74709e-19)
(9.1748 19.1291 -7.69731e-19)
(10.6306 18.8079 1.55339e-18)
(12.2736 18.379 -4.73791e-18)
(14.1442 17.8424 -6.41698e-18)
(16.225 17.2615 3.27661e-18)
(18.5112 16.7308 -6.67193e-18)
(21.0081 16.3672 0)
(23.7029 16.2001 -2.08685e-17)
(26.6264 16.5397 4.27373e-17)
(29.852 16.9502 0)
(33.4959 17.5652 0)
(37.5438 18.072 0)
(41.7053 18.239 1.1052e-17)
(45.6209 18.1124 6.98915e-20)
(47.5324 17.9191 2.8377e-19)
(48.8323 33.5964 -1.23501e-16)
(-0.596031 137.928 -3.07864e-16)
(12.2265 102.027 1.82203e-18)
(1.93031 -35.0177 2.52101e-16)
(5.97294 5.61812 0)
(1.44487 -1.6733 -1.57006e-17)
(-9.50545 -1.54852 0)
(-20.1509 0.351679 0)
(-29.0707 2.77405 7.79356e-18)
(-35.4294 5.76969 -1.52415e-17)
(-38.5215 8.76639 0)
(-38.8607 11.436 7.41804e-18)
(-37.1248 13.9337 0)
(-33.7452 16.0772 -1.8033e-18)
(-29.6369 17.7524 1.78841e-18)
(-25.5024 18.9389 -8.80272e-18)
(-21.7547 19.701 -3.3018e-21)
(-18.4981 20.1819 -3.42714e-18)
(-15.7451 20.5878 6.76297e-18)
(-13.4363 20.9702 4.99627e-18)
(-11.5115 21.3922 -4.93097e-18)
(-10.1052 21.9991 0)
(-9.04646 22.5542 1.59438e-21)
(-8.21012 22.8274 -2.35967e-18)
(-7.55216 22.8732 0)
(-7.03443 22.6965 0)
(-6.53733 22.205 7.5502e-19)
(-5.99925 21.3302 2.22605e-18)
(-5.37097 20.0279 -1.46611e-18)
(-4.65046 18.3341 1.43482e-18)
(-3.86013 16.2602 -2.83067e-18)
(-3.02292 13.9963 -6.96489e-19)
(-2.27917 12.032 -5.48922e-18)
(-1.69868 10.7106 2.69951e-18)
(-1.22623 10.068 0)
(-0.812695 9.78005 -5.22706e-18)
(-0.283349 9.70232 -2.56369e-18)
(0.438446 9.07118 0)
(1.30582 8.98606 2.47065e-18)
(1.68861 6.46217 -8.21952e-21)
(3.14026 7.7648 3.56125e-18)
(0.657996 -0.138854 3.49544e-18)
(4.64942 2.534 0)
(2.01679 -11.6031 -1.12924e-18)
(-4.5227 119.384 -3.09461e-16)
(5.18508 116.114 -6.33476e-16)
(0.373653 22.1259 1.20897e-16)
(29.9663 96.9008 -1.1995e-16)
(23.0909 58.7275 5.77162e-16)
(39.9476 66.0126 8.61517e-20)
(12.3029 -8.05861 5.92543e-19)
(8.63664 9.51559 2.92584e-18)
(10.56 -4.09572 -2.37733e-18)
(9.14186 -0.0184925 0)
(7.54696 -0.0947677 0)
(6.15758 6.78705 0)
(4.17043 13.1179 0)
(2.87767 17.8482 6.45716e-19)
(2.07564 20.1907 -3.31052e-19)
(1.61794 21.1458 1.65803e-19)
(1.4659 21.1864 -1.01752e-18)
(1.73478 20.8097 6.90545e-19)
(2.35712 20.3265 3.50809e-19)
(3.16582 19.893 -5.34179e-19)
(4.06346 19.4932 0)
(5.1353 19.0656 -2.50415e-23)
(6.31614 18.6098 -3.72573e-19)
(7.61296 18.1687 3.77857e-19)
(9.04515 17.7323 7.6658e-19)
(10.6382 17.2368 -8.75445e-19)
(12.4191 16.6076 8.87148e-19)
(14.3764 15.8511 -2.40381e-18)
(16.4969 15.0254 -4.88523e-18)
(18.7863 14.1918 3.32156e-18)
(21.2296 13.4493 0)
(23.8248 12.8134 2.19849e-20)
(26.5577 12.4978 -2.11396e-17)
(29.5105 12.1221 1.77529e-17)
(32.7332 11.8112 -3.59029e-18)
(36.234 11.1336 0)
(39.6819 9.93862 -3.65041e-18)
(42.6838 8.028 5.08609e-17)
(43.765 5.50029 -2.86398e-17)
(47.4289 17.7616 1.17365e-16)
(2.50563 130.809 6.3946e-16)
(17.0065 84.9708 1.15122e-18)
(16.7786 -13.6733 -2.82092e-19)
(18.7816 -9.61858 1.63994e-18)
(19.015 4.97732 2.71956e-19)
(11.5608 15.7806 0)
(-3.43003 17.3343 -5.54001e-19)
(-15.2117 16.6047 5.47796e-19)
(-14.8652 10.6957 -8.23373e-19)
(-8.07699 3.49525 -1.91296e-18)
(-4.43183 8.34053 2.22188e-18)
(-1.34826 9.97097 0)
(1.06422 9.24785 -1.09439e-18)
(3.07952 5.64208 3.32514e-18)
(5.5496 8.51738 -2.21573e-18)
(5.58646 12.6648 -1.07484e-18)
(5.78828 9.8352 1.68626e-18)
(5.22062 18.2071 -2.24335e-18)
(-6.53818 124.654 6.14905e-16)
(30.4367 37.3278 -2.62236e-16)
(31.6554 26.3085 2.63071e-16)
(31.0536 13.616 5.23048e-16)
(27.9233 0.267353 2.44704e-16)
(4.2628 141.317 5.17989e-19)
(6.70096 117.656 1.8208e-16)
(22.9174 -47.6801 0)
(15.73 -28.4309 0)
(2.15598 -21.0884 0)
(-8.45661 -19.8536 3.92324e-18)
(-18.0833 -17.7378 -7.83354e-18)
(-26.1259 -14.3704 -5.43656e-20)
(-31.7884 -10.0606 2.29038e-17)
(-34.803 -5.54504 -1.50613e-17)
(-35.4862 -1.14893 -4.20197e-20)
(-34.245 3.10834 7.33411e-18)
(-31.5044 6.87495 -1.26315e-17)
(-28.06 9.86264 1.7693e-18)
(-24.5606 12.2351 7.03742e-18)
(-21.2389 14.1079 -1.73544e-18)
(-18.2312 15.6638 1.717e-18)
(-15.5996 17.0392 -5.0725e-18)
(-13.362 18.2325 1.6671e-18)
(-11.5486 19.4033 4.92946e-18)
(-10.2107 20.6079 -3.24275e-18)
(-9.17499 21.5328 3.19665e-18)
(-8.37816 22.0745 1.18233e-18)
(-7.80057 22.3239 2.72681e-18)
(-7.33136 22.2316 -3.44546e-18)
(-6.92119 21.751 2.27489e-18)
(-6.4467 20.797 -4.08863e-18)
(-5.89954 19.4012 -2.94081e-18)
(-5.28503 17.6301 2.88204e-18)
(-4.64656 15.514 1.4182e-18)
(-4.00179 13.2978 -1.39931e-18)
(-3.48428 11.4844 0)
(-3.08702 10.2977 -2.70558e-18)
(-2.72986 9.70297 1.3275e-18)
(-2.33805 9.35899 -2.61232e-18)
(-1.79274 9.14828 -3.85367e-18)
(-1.06578 8.41267 -2.52617e-18)
(-0.368568 8.54463 -4.94635e-18)
(-0.132768 5.93587 1.21313e-18)
(0.752402 9.00433 -1.18836e-18)
(-2.31625 0.7533 -2.34428e-18)
(0.996267 9.56336 0)
(-8.60377 -8.1418 0)
(6.37307 0.799535 0)
(0.354088 23.9226 0)
(46.352 37.5519 9.70096e-19)
(22.7523 102.548 6.58429e-16)
(-10.3622 107.871 3.06836e-16)
(10.1143 104.111 3.1757e-16)
(-0.318659 113.458 6.23137e-16)
(4.7384 139.852 -3.06951e-16)
(-1.31817 23.086 -1.03393e-16)
(-8.02902 21.9981 0)
(9.31455 132.865 -3.44151e-16)
(33.1549 76.2848 -1.40649e-16)
(42.643 2.44102 -5.20477e-17)
(3.1959 139.987 -8.85726e-16)
(-13.9225 7.17112 3.29537e-16)
(-7.01403 -39.1916 2.51125e-16)
(-7.02037 27.4445 -5.43587e-17)
(8.13805 27.9261 -1.1101e-18)
(10.9608 -5.77965 -2.94421e-19)
(10.3463 12.6808 -8.91723e-19)
(10.7467 -2.78002 2.35182e-21)
(10.0423 2.45764 0)
(7.60803 2.11134 0)
(5.44104 9.01554 0)
(3.0241 14.9772 -1.58387e-19)
(1.59437 18.9965 -1.99805e-19)
(0.813224 20.8339 2.06607e-19)
(0.385348 21.4409 -1.67067e-19)
(0.378132 21.058 4.25659e-19)
(0.81943 20.2816 -5.18945e-19)
(1.50118 19.5466 0)
(2.30682 18.983 0)
(3.27829 18.446 0)
(4.39209 17.8871 0)
(5.59794 17.3201 0)
(6.92188 16.7563 0)
(8.40433 16.1676 -1.91874e-19)
(10.0362 15.5096 7.77947e-19)
(11.8373 14.722 0)
(13.7682 13.8104 -2.00148e-18)
(15.8237 12.8021 3.65973e-18)
(18.0061 11.7284 3.30593e-18)
(20.3076 10.6511 0)
(22.7265 9.58935 1.0294e-17)
(25.2699 8.61471 -1.04705e-17)
(27.9549 7.50694 -3.52046e-18)
(30.7378 6.32368 7.14454e-18)
(33.6182 4.71585 -1.07988e-17)
(36.2291 2.51713 5.43409e-18)
(38.4074 -0.184851 -1.4444e-17)
(39.2339 -3.82771 3.59929e-18)
(39.1071 -6.0688 1.12262e-16)
(-6.06955 117.118 3.41276e-16)
(31.9723 17.5778 5.00993e-16)
(24.5959 21.5131 2.46935e-16)
(-4.46243 -28.4261 0)
(20.1608 -31.5291 2.57677e-22)
(27.5115 -20.937 -5.44049e-19)
(21.1311 -8.78913 -2.74074e-19)
(8.17708 11.5638 -6.78637e-20)
(-0.980975 11.2584 6.69542e-20)
(-7.74364 1.76434 0)
(-13.0177 -25.6876 0)
(-8.93452 -27.7028 8.38748e-19)
(-3.26846 -26.2687 -2.17327e-18)
(-1.60723 -22.7964 2.74028e-18)
(3.96885 -21.1917 0)
(15.4433 -27.9793 -2.14838e-18)
(20.5753 -36.4832 2.2021e-18)
(1.74313 -38.4347 5.92885e-19)
(2.33843 -23.56 5.65082e-19)
(18.6309 -20.2837 0)
(16.4696 -25.3485 0)
(-5.50959 134.773 0)
(33.1066 21.7034 2.55516e-16)
(34.8261 12.0749 0)
(34.1903 0.349737 -5.19077e-16)
(31.6527 -12.115 2.59006e-16)
(27.3185 -23.5636 4.62645e-16)
(4.47284 1.43615 -8.68385e-17)
(15.1025 79.2219 3.02852e-16)
(8.42286 -36.3114 8.1682e-18)
(0.929704 -35.0148 -6.46194e-17)
(-7.48805 -33.9177 2.78298e-17)
(-15.5589 -30.9677 -3.1282e-17)
(-22.342 -27.0715 -1.35798e-17)
(-27.287 -22.0783 1.90238e-17)
(-30.1254 -16.7179 3.7915e-18)
(-31.0173 -11.2746 -1.85415e-17)
(-30.2946 -6.05271 1.09536e-17)
(-28.2454 -1.43834 0)
(-25.6115 2.55341 -8.91563e-18)
(-22.7077 5.98124 5.26829e-18)
(-19.8127 8.88056 8.68473e-18)
(-17.097 11.4437 1.72175e-18)
(-14.6785 13.7288 -6.76378e-18)
(-12.6198 15.7252 -3.33746e-18)
(-11.013 17.5942 0)
(-9.78385 19.2948 0)
(-8.83748 20.5514 -8.00122e-19)
(-8.14776 21.3639 -3.94536e-19)
(-7.67462 21.7964 3.90093e-18)
(-7.283 21.758 7.80031e-19)
(-6.99156 21.307 -2.64173e-18)
(-6.61531 20.2788 -1.07211e-21)
(-6.19656 18.8128 0)
(-5.74039 17.0092 0)
(-5.31604 14.8931 -2.8542e-18)
(-4.90609 12.7493 4.20205e-18)
(-4.61052 11.0628 -1.37928e-18)
(-4.38292 9.95602 5.09817e-21)
(-4.13859 9.35081 1.33783e-18)
(-3.75432 8.90158 1.3116e-18)
(-3.21418 8.55038 7.72313e-18)
(-2.52693 7.79154 0)
(-1.95604 8.13974 3.71088e-18)
(-1.67578 5.63092 -3.64438e-18)
(-1.18198 10.0388 2.38064e-18)
(-2.89109 1.72505 -2.34374e-18)
(-0.131032 14.0371 2.29219e-18)
(-7.29099 -9.10994 0)
(4.85916 24.634 0)
(-21.8733 -27.6438 -1.13781e-18)
(-14.2381 104.852 6.06707e-16)
(43.7792 18.8207 -1.20763e-16)
(23.4305 34.5415 -2.58559e-16)
(-23.4894 79.1147 6.03782e-16)
(-19.7114 86.2402 -1.1462e-18)
(-15.7695 92.2728 6.19086e-16)
(39.9652 43.9798 1.34775e-16)
(15.0682 89.4192 -6.73121e-16)
(-5.97686 105.752 0)
(5.01638 104.823 0)
(-7.93702 22.1028 -5.93506e-17)
(-36.2853 9.31672 -3.14272e-16)
(9.91516 20.555 2.38502e-17)
(18.0951 121.117 -5.37066e-16)
(27.1825 -20.0342 -6.06691e-17)
(-3.77401 104.602 -3.79677e-16)
(2.21336 22.1715 0)
(2.32379 24.3945 -5.3118e-17)
(31.7066 -14.4503 0)
(33.5007 -10.9188 1.85156e-18)
(33.1276 -6.89965 3.65691e-18)
(31.8907 -3.69434 1.35924e-18)
(29.9161 -0.901254 2.23562e-19)
(27.643 1.43912 0)
(25.231 3.43907 4.37107e-18)
(22.8572 5.16743 -4.32022e-18)
(20.6006 6.6819 1.70119e-18)
(18.4351 8.08314 -3.34406e-18)
(16.3708 9.3874 8.21606e-19)
(14.3969 10.6114 0)
(12.5068 11.7298 1.60142e-18)
(10.7027 12.7318 -7.89658e-19)
(8.99231 13.616 7.79459e-19)
(7.41023 14.4058 -1.34369e-18)
(5.96021 15.1374 1.53769e-18)
(4.64535 15.8225 1.25949e-21)
(3.45329 16.4759 -7.8102e-19)
(2.36349 17.1405 3.62405e-19)
(1.39311 17.861 -4.01594e-19)
(0.602359 18.609 0)
(-0.0526691 19.4926 1.73019e-19)
(-0.607681 20.5877 -8.51962e-20)
(-0.813859 21.4663 -3.34651e-19)
(-0.517363 21.3276 2.83888e-19)
(0.202378 20.044 4.05275e-20)
(1.59442 16.9434 -1.59006e-19)
(4.247 11.721 0)
(7.2485 5.17681 0)
(10.8412 4.47672 -6.00663e-19)
(10.6173 -1.24667 3.25669e-18)
(12.8937 13.6717 -5.88262e-19)
(9.33737 -3.46792 0)
(14.2139 28.3719 2.19831e-18)
(7.63355 -23.0478 -5.30704e-20)
(0.747286 26.2147 2.80303e-16)
(14.2525 53.4765 1.00801e-18)
(22.0443 -26.5561 0)
(28.537 -35.8708 -2.67571e-19)
(29.2709 3.17805 2.78099e-19)
(22.7545 28.4685 6.61144e-19)
(0.849587 44.1457 -5.22675e-19)
(-17.7139 46.6995 1.24665e-19)
(-24.3274 47.4898 2.45863e-19)
(-16.1412 27.4374 1.87569e-18)
(-6.70847 11.9566 -2.62411e-18)
(-3.59753 16.6612 -2.11796e-18)
(3.4934 10.2965 2.12552e-18)
(3.97274 0.49017 -2.49439e-19)
(5.78024 0.741816 4.82495e-19)
(2.49728 34.3698 -2.14992e-18)
(1.87819 41.0986 -4.55414e-19)
(5.41861 0.556608 2.18405e-18)
(0.687722 11.7259 0)
(5.46741 40.1378 9.70654e-19)
(17.2952 41.6474 -4.88471e-19)
(-12.6024 94.4356 3.14345e-16)
(40.0342 1.42209 -1.05679e-16)
(-26.5648 71.788 -2.99765e-16)
(-3.30965 21.2828 0)
(-1.0647 20.1684 0)
(0.843482 19.5982 -1.00837e-16)
(2.56188 19.7806 -2.52799e-17)
(4.42886 20.7489 -3.14802e-17)
(4.20026 23.2534 -7.65153e-17)
(4.42288 25.7099 1.04495e-16)
(4.97613 27.8144 5.63479e-17)
(9.01138 -31.5243 0)
(-2.00697 29.2658 -5.45474e-17)
(-42.7621 4.75603 -5.87053e-19)
(-37.0537 -8.18993 2.80613e-16)
(-37.9099 1.71923 -2.68964e-16)
(-29.0041 60.8239 -3.0547e-16)
(-24.8023 66.5553 0)
(-20.4931 73.2607 0)
(30.9253 52.5717 2.82623e-16)
(-21.2031 82.7164 5.94639e-16)
(-6.48469 24.9408 -7.58197e-17)
(35.6872 9.78332 2.54806e-16)
(36.9061 0.186167 -2.63549e-16)
(36.7011 -9.9556 0)
(35.2727 -19.9242 -5.4318e-16)
(31.8457 -28.8739 2.72514e-16)
(21.7136 -33.2349 -3.61729e-16)
(26.8824 -44.7179 -2.21196e-16)
(14.3918 -45.6596 6.86439e-17)
(8.23382 -45.9183 -7.59112e-17)
(1.21958 -45.0089 3.29562e-17)
(-6.13742 -43.3677 -3.21211e-17)
(-12.643 -40.2991 0)
(-18.2988 -36.1011 -1.93864e-18)
(-22.4716 -30.8926 -2.8697e-18)
(-25.0624 -25.209 1.13232e-17)
(-26.0851 -19.3098 3.75711e-18)
(-25.7278 -13.6106 -1.83064e-17)
(-24.3451 -8.3531 7.20883e-18)
(-22.3954 -3.6296 8.92117e-18)
(-20.0484 0.586357 -7.02552e-18)
(-17.5525 4.40222 4.34445e-18)
(-15.1702 7.84706 -4.28105e-18)
(-13.065 10.8956 -1.69539e-18)
(-11.2826 13.5618 5.00531e-18)
(-9.92489 15.9703 8.23609e-19)
(-8.86306 18.0357 3.25418e-18)
(-8.06362 19.5723 -3.2024e-18)
(-7.51879 20.6085 0)
(-7.1506 21.1832 -7.79867e-19)
(-6.86585 21.1766 -3.83408e-19)
(-6.68289 20.7486 -3.78862e-18)
(-6.42749 19.678 3.35367e-18)
(-6.17117 18.172 -3.68425e-19)
(-5.9148 16.3832 2.90598e-18)
(-5.73323 14.3169 -5.35219e-18)
(-5.58309 12.2524 2.80773e-18)
(-5.52818 10.6779 1.38215e-18)
(-5.48375 9.60957 6.79548e-19)
(-5.3314 8.93243 -1.33138e-18)
(-4.98271 8.34458 3.93747e-18)
(-4.50195 7.88296 -3.85957e-18)
(-3.89273 7.19625 -1.26594e-18)
(-3.52809 7.79113 -3.71945e-18)
(-3.22571 5.68471 4.86757e-18)
(-3.60106 10.7494 -3.583e-18)
(-3.79886 2.12852 2.35703e-18)
(-4.03534 14.552 -4.59938e-18)
(-3.12435 -13.1946 0)
(-2.10501 14.2521 2.15846e-18)
(3.6967 -43.9469 -1.07695e-18)
(-7.12416 40.1293 -1.00697e-18)
(-36.1525 21.8447 -7.06225e-16)
(-41.1667 16.346 3.26022e-16)
(-44.6709 9.38442 -3.21755e-16)
(-8.7178 17.534 1.67919e-16)
(-46.4544 -1.77993 -3.37477e-16)
(37.2495 23.1893 0)
(10.5814 32.4587 -8.99273e-17)
(-49.2134 -9.28051 -3.52748e-16)
(-5.46316 32.5382 2.53236e-16)
(-0.617648 100.166 9.19629e-16)
(10.7249 93.3424 -6.20309e-16)
(-11.5129 94.7329 -3.10363e-16)
(-38.1119 29.8375 0)