/*--------------------------------*- C++ -*----------------------------------*\
| =========                 |                                                 |
| \\      /  F ield         | OpenFOAM: The Open Source CFD Toolbox           |
|  \\    /   O peration     | Version:  2212                                  |
|   \\  /    A nd           | Website:  www.openfoam.com                      |
|    \\/     M anipulation  |                                                 |
\*---------------------------------------------------------------------------*/
FoamFile
{
    version     2.0;
    format      ascii;
    arch        "LSB;label=32;scalar=64";
    class       surfaceScalarField;
    location    "1.8e-05";
    object      phi;
}
// * * * * * * * * * * * * * * * * * * * * * * * * * * * * * * * * * * * * * //

dimensions      [1 0 -1 0 0 0 0];

oriented        oriented;

internalField   nonuniform List<scalar> 
45816
(
1.77687e-21
-3.00942e-20
1.39531e-20
-4.28859e-22
1.23466e-20
-2.01543e-20
-2.88156e-21
-6.87413e-21
-2.45806e-20
1.16382e-22
-2.1217e-20
2.61403e-21
6.81795e-21
-7.66862e-21
3.98876e-20
-6.85693e-21
-3.39056e-20
-1.05438e-20
1.34641e-20
-2.0467e-20
-2.03288e-20
1.02082e-20
4.92212e-20
1.70133e-20
-2.37437e-20
-4.4644e-21
-3.44942e-21
-1.5164e-20
8.13216e-20
1.5745e-21
4.57367e-20
-3.07916e-20
2.20273e-20
-7.95038e-21
3.56076e-20
-3.65135e-21
-6.73163e-21
-8.29689e-21
-2.5395e-20
-1.82993e-20
-1.52996e-20
-8.01304e-21
-7.62567e-20
-6.01592e-22
2.19547e-20
-2.98592e-20
-3.38181e-21
-1.13031e-20
5.42698e-20
1.15e-20
2.0378e-20
7.03494e-21
-8.43092e-21
-2.00635e-20
-5.1097e-21
1.1998e-20
6.43592e-20
3.19456e-20
3.21869e-20
-1.66096e-21
-3.55563e-20
1.53566e-20
9.31881e-20
-1.10431e-20
-1.23687e-19
-1.32085e-20
-4.23931e-20
-1.24572e-21
-3.36747e-21
9.04345e-21
-2.53836e-20
1.33941e-20
3.04806e-20
7.78687e-21
1.1867e-20
9.38658e-21
-1.89685e-24
1.14349e-20
-8.4809e-21
9.73981e-21
5.92717e-20
-1.82443e-20
1.70387e-21
-6.18571e-21
1.69483e-20
1.4201e-20
-6.78044e-21
-8.46046e-21
-1.86281e-20
-7.81837e-21
-6.6072e-20
1.5946e-20
3.3778e-21
-8.27158e-21
1.68909e-21
5.28182e-21
-6.94343e-20
-3.95925e-21
5.42101e-20
-1.66893e-22
6.77494e-20
-1.55378e-20
-3.72675e-20
-7.6958e-21
1.35523e-20
2.97217e-21
-5.42211e-20
2.61527e-20
2.54077e-20
1.6788e-20
1.01606e-20
8.40343e-22
-5.76004e-20
5.69444e-22
-2.54034e-20
-9.07932e-21
-6.7734e-21
-7.55721e-21
8.46531e-21
-1.75626e-20
-1.60951e-20
-8.86733e-21
2.03299e-20
-8.46528e-22
1.85686e-20
-1.31903e-20
1.11666e-20
-5.0822e-21
8.53219e-22
-1.13271e-21
-8.76273e-22
2.38357e-21
-3.00675e-21
-1.17452e-21
2.42098e-21
-1.18091e-21
-1.55199e-21
-1.50186e-21
2.55372e-21
-1.9833e-21
-3.50692e-21
-9.13128e-22
-1.05879e-22
1.27434e-21
3.16639e-21
-2.28693e-22
1.33527e-21
-1.728e-22
6.91783e-22
-1.94742e-21
3.32403e-21
-3.43788e-21
2.48141e-21
-2.57659e-21
-1.61511e-23
-4.88629e-21
1.7908e-21
-3.83518e-21
3.35784e-21
-1.78123e-21
3.40581e-21
4.19797e-21
-2.34889e-21
1.26949e-21
6.36671e-22
5.92195e-21
-5.90892e-21
3.44511e-21
-3.63803e-21
6.86398e-22
3.40683e-21
6.20716e-21
-9.80407e-21
4.68288e-21
-4.53523e-21
7.01986e-21
-5.23527e-21
8.55676e-21
1.07702e-21
1.18997e-20
-3.621e-21
1.05085e-20
2.545e-21
1.48345e-20
-1.17539e-20
4.77212e-21
5.12697e-21
7.42091e-22
-7.28581e-21
8.01551e-21
-1.04503e-20
1.20455e-20
-1.80298e-20
1.00688e-20
-3.01745e-21
7.6696e-21
-9.73761e-21
3.64034e-21
-3.81253e-21
-5.31504e-21
-7.06427e-21
-5.20601e-21
-1.74016e-20
-7.47784e-21
1.69482e-21
-4.53492e-21
8.88236e-22
-8.65935e-23
-1.05032e-20
2.78596e-21
4.30471e-21
1.34762e-21
1.3164e-21
6.47186e-21
1.05799e-20
1.89984e-21
3.77841e-21
7.38861e-22
-8.93158e-21
-3.20654e-21
-1.0266e-20
-1.4568e-20
5.79188e-21
-5.73051e-21
4.17038e-21
-7.36373e-21
2.97051e-20
6.54497e-21
-6.65454e-22
-1.45602e-21
-4.41885e-22
6.28686e-22
-1.00801e-22
-6.96741e-21
1.62134e-21
1.03365e-21
-1.23575e-21
2.25901e-21
-2.48869e-21
-1.93453e-21
-9.54574e-23
-1.05657e-21
5.27597e-21
-2.73681e-21
5.46468e-21
6.40953e-22
3.90697e-21
-3.60038e-21
4.23427e-21
6.29719e-21
3.79265e-21
-1.5828e-21
2.55863e-21
-4.67629e-21
-3.82997e-21
-4.02108e-21
-1.14577e-20
-5.92816e-21
-1.00556e-20
8.11349e-21
1.00398e-21
-4.44087e-21
-8.99914e-21
4.63718e-21
-4.47819e-21
9.33089e-21
-3.98753e-21
-5.47438e-21
-1.77597e-21
4.32781e-21
2.03784e-21
5.03983e-21
1.1109e-20
-1.27787e-20
-4.14031e-21
1.90053e-20
-6.72068e-21
-2.55808e-21
-2.50919e-22
3.46624e-21
6.25119e-21
-6.9819e-21
-2.26865e-21
-1.14349e-20
8.79194e-21
-6.55064e-21
7.10467e-21
6.01869e-21
1.11693e-20
1.56628e-20
-1.1779e-20
1.49581e-20
-1.14285e-20
-5.51822e-21
-1.22299e-21
-1.1131e-20
1.74166e-21
-8.37668e-21
9.08118e-21
3.83896e-21
-3.69675e-23
-3.04882e-20
-7.49342e-22
3.39521e-20
-2.79675e-21
7.6233e-21
1.43284e-21
2.7099e-20
-1.73257e-21
1.60643e-20
-1.01837e-20
-1.36874e-20
-1.46734e-20
4.71806e-21
-8.03949e-21
-3.66466e-21
3.85514e-21
-1.93945e-20
-1.0706e-20
-3.70988e-20
-6.31903e-21
2.13839e-20
3.83723e-21
-8.94946e-22
-1.26327e-20
-4.37842e-21
6.23484e-21
2.65264e-20
7.0112e-21
3.78553e-21
2.39267e-22
1.84892e-20
7.77131e-21
-5.15961e-20
1.10918e-20
7.83413e-21
2.61385e-20
1.74213e-20
-3.22301e-21
-1.44994e-20
9.27641e-21
-4.14127e-20
-1.43721e-20
-5.50239e-20
8.81834e-22
1.02966e-21
-5.58154e-21
-7.71045e-21
4.46819e-20
-4.47916e-21
2.15912e-20
4.83031e-20
2.81909e-21
6.77743e-21
9.94385e-21
1.47757e-21
1.5411e-20
-5.4769e-20
-9.22966e-21
-1.75257e-20
8.97338e-21
-4.779e-20
1.68346e-20
-2.40934e-20
1.76714e-20
-5.56089e-20
5.15806e-22
1.05514e-21
6.47886e-21
6.48517e-21
-1.01554e-20
4.32082e-20
2.68514e-20
3.58371e-20
-2.06004e-20
9.26946e-21
1.49204e-21
3.30012e-20
7.06461e-21
-1.17468e-20
6.43431e-21
1.39862e-21
-5.4862e-21
-5.99467e-21
7.19367e-21
-9.06383e-21
-1.32966e-20
7.59566e-21
-2.51497e-20
2.66094e-22
5.15165e-20
-1.03059e-19
-2.94893e-21
9.06229e-21
-2.34312e-20
-1.13557e-20
-1.02261e-20
-1.35821e-20
-1.03899e-20
-2.20131e-20
-3.13718e-20
2.53472e-20
-2.07708e-20
9.52517e-20
1.04892e-20
8.80253e-21
5.43263e-21
2.87991e-20
2.7053e-20
-5.42604e-20
1.48413e-20
6.94548e-20
2.28298e-20
4.7386e-20
-1.1753e-20
-6.44343e-20
1.336e-20
3.72771e-20
5.70325e-21
1.35347e-20
7.23778e-21
4.21713e-20
2.44533e-20
-3.22315e-20
2.16752e-20
2.19952e-20
-1.01333e-21
-1.86765e-20
-2.12666e-21
1.54045e-20
7.70603e-21
1.74261e-21
1.30219e-21
-1.86538e-20
-2.32693e-20
3.36622e-21
-3.781e-20
7.27543e-20
2.92449e-21
5.42515e-20
-1.87527e-20
-1.85932e-20
-1.10272e-20
4.56961e-20
-2.75778e-20
5.75479e-20
-2.6839e-20
-1.30384e-19
-4.71349e-20
6.27469e-20
2.48375e-21
-1.86347e-20
-4.82052e-20
1.38873e-19
-1.04296e-20
4.06654e-20
7.78146e-21
8.47441e-20
1.29976e-20
1.18392e-20
9.89952e-21
-1.71086e-21
1.74162e-20
-5.24807e-20
1.14454e-19
-5.41598e-20
-6.55441e-19
1.26217e-18
-2.01973e-21
2.06751e-21
-4.83575e-21
-7.40196e-22
-1.06433e-21
-9.99426e-22
-5.9117e-21
2.27816e-21
-1.69407e-21
-6.19511e-22
2.25823e-21
-4.86278e-22
-6.59088e-21
5.52436e-21
-3.37895e-21
3.61286e-22
4.89945e-21
-4.00156e-21
1.08151e-20
-2.57473e-21
-4.87044e-21
-4.8506e-22
1.58324e-20
-5.44765e-22
-8.68209e-21
-2.86987e-21
3.80015e-21
-2.84964e-21
-3.39609e-21
-6.40899e-21
-1.31274e-20
-1.05011e-20
-3.59989e-21
-4.23467e-21
1.6931e-20
-1.04976e-20
-6.35641e-21
-7.77316e-21
-7.17868e-21
-6.6105e-21
-8.45011e-21
-2.70026e-21
1.01644e-20
-1.11024e-20
1.18416e-20
-8.10637e-21
-3.73144e-20
3.3463e-21
3.21224e-20
-1.572e-22
-4.67538e-22
1.431e-20
2.84433e-20
2.04968e-20
-6.20008e-22
2.70822e-21
-2.42911e-20
3.44315e-21
2.11758e-21
-3.63788e-21
3.48459e-21
6.54005e-21
7.61884e-21
7.28651e-23
8.58034e-21
-2.64259e-21
-7.63122e-21
1.40485e-21
-7.73303e-21
1.13514e-20
-1.34352e-20
8.69062e-21
2.92627e-20
-1.59545e-20
-1.18637e-20
-9.91293e-21
4.02818e-20
-7.78791e-21
8.86083e-21
3.87504e-21
3.77448e-21
1.34736e-20
3.67999e-20
1.43029e-21
-7.73808e-21
-1.76757e-20
-3.50517e-20
-4.80946e-21
-1.97514e-20
-2.69648e-22
-2.44808e-20
-5.16712e-21
-2.94487e-20
4.00287e-21
3.40948e-20
6.40156e-21
7.59388e-21
-1.04754e-20
2.44148e-20
5.57692e-21
2.48434e-20
8.3709e-22
-3.43629e-20
5.26394e-21
6.96171e-22
6.56388e-21
-6.00427e-20
-6.5864e-21
4.33919e-20
2.7125e-20
2.24785e-20
1.48351e-20
3.26104e-21
3.13935e-21
-2.02393e-20
-1.92506e-20
-4.14351e-20
7.42088e-21
2.22264e-20
-2.06194e-20
2.95656e-20
2.26588e-20
2.26339e-20
2.59196e-20
7.12026e-20
-1.78408e-21
2.54408e-20
1.86278e-20
-2.4564e-20
2.53249e-20
-9.5431e-20
-1.28949e-20
-3.36555e-20
1.44449e-20
-3.4224e-20
3.1111e-20
-3.67421e-20
1.48575e-20
-1.4108e-20
-9.67815e-21
-2.5411e-21
1.72794e-20
1.83853e-20
-9.89556e-21
1.06749e-19
2.71008e-20
7.81248e-20
-1.05157e-20
3.28891e-21
-1.23454e-21
4.40461e-20
1.12205e-20
1.87481e-20
3.25095e-20
-1.72246e-20
7.91881e-21
5.75138e-20
7.60446e-21
2.30866e-20
1.87166e-22
-2.20747e-20
-2.09041e-20
-2.51246e-20
4.13687e-20
-4.36863e-20
2.56689e-21
-7.87513e-21
-2.17594e-20
-5.625e-20
-7.00936e-21
6.34788e-20
-5.61999e-21
-7.28315e-20
-1.10611e-20
4.18743e-21
-1.14257e-20
1.15533e-19
1.33044e-20
-3.01934e-20
1.23793e-20
1.68987e-20
3.77617e-20
-9.15277e-20
1.87242e-20
1.03698e-23
2.40135e-20
5.07908e-20
-1.66748e-20
-1.38996e-19
6.52826e-21
1.27049e-19
5.95856e-21
3.72742e-20
-1.82175e-21
1.50906e-20
1.76224e-20
4.06126e-20
1.31555e-20
3.55373e-20
-1.88663e-21
-7.96358e-20
-1.0096e-20
6.62156e-20
8.28361e-21
-1.18226e-20
4.58047e-21
-3.89763e-20
-3.03093e-20
-6.2697e-20
-3.43152e-20
5.75074e-20
-5.6465e-21
8.47359e-20
-1.78207e-20
1.0202e-20
-1.71586e-20
7.61843e-20
-2.6798e-20
1.85737e-20
-4.19412e-20
-1.67713e-19
-4.6011e-20
8.64707e-20
-1.50354e-20
-3.38878e-20
-4.48693e-20
2.1002e-19
-2.44867e-20
-4.91208e-20
1.34184e-20
1.52466e-19
2.35719e-21
8.638e-20
2.13349e-20
-7.28597e-20
-1.91011e-24
-6.77318e-20
1.26681e-19
-5.41635e-20
-9.68889e-19
9.45504e-19
9.84417e-23
7.10394e-22
-6.59501e-22
-3.08799e-21
2.72148e-21
1.15388e-21
-1.42248e-21
1.83498e-21
-1.27644e-21
6.36073e-22
-2.85843e-21
-6.15392e-21
-2.90414e-21
3.9463e-21
-8.26163e-22
4.09227e-21
1.9306e-22
3.32865e-21
5.42001e-23
-3.43648e-22
3.47028e-21
4.49466e-21
9.41127e-22
4.27373e-21
-3.2989e-21
1.02424e-20
1.98695e-21
-2.9726e-21
3.86414e-21
2.42005e-21
-1.17494e-21
1.11301e-20
1.88524e-21
2.96104e-21
3.7407e-23
1.46426e-21
-5.67866e-21
1.4943e-21
2.53782e-21
-6.99468e-21
2.69671e-21
1.70654e-21
5.99426e-21
-5.81254e-21
8.72557e-21
-1.3129e-20
1.39915e-20
1.10364e-21
9.36307e-21
-1.05941e-21
1.1303e-20
-1.69722e-21
6.58943e-21
3.60866e-21
1.09827e-20
-1.68415e-20
1.07622e-20
1.93763e-21
2.84458e-21
-1.11224e-20
2.28515e-21
-1.67781e-20
6.35508e-21
-2.37169e-20
1.16641e-20
-1.53409e-20
1.21365e-21
-1.33534e-20
-3.20372e-21
-1.37652e-20
-3.18417e-21
-5.13966e-21
-5.69022e-21
-3.43208e-20
-8.90097e-21
1.68283e-21
-1.15842e-20
1.21215e-20
-2.20407e-21
-1.26238e-20
-8.80483e-21
2.16859e-21
-9.51777e-21
6.82195e-21
2.84303e-22
-6.91782e-26
-3.28249e-22
8.84959e-21
-7.7937e-21
-1.95234e-20
-5.43786e-21
-9.40134e-21
-1.17085e-20
2.32934e-20
-1.72512e-20
5.44066e-21
-9.34985e-21
4.44692e-20
7.6926e-21
1.96857e-20
1.39226e-20
1.33536e-22
2.82305e-20
-1.87039e-20
7.48919e-21
-9.32832e-21
2.37302e-21
1.31822e-20
-1.85661e-20
-1.20032e-21
3.57165e-22
-2.11053e-21
-1.84531e-21
-1.02048e-20
5.54116e-21
3.6453e-20
-9.24368e-21
3.05642e-20
-8.51668e-21
-2.20327e-20
-1.33155e-20
2.87227e-20
-2.08386e-20
-7.19932e-20
8.60636e-21
1.8723e-20
1.54962e-20
-8.58597e-22
-5.88796e-21
-4.74977e-20
-1.37396e-20
-3.5574e-20
-8.92142e-22
6.52168e-20
-3.58966e-20
7.53854e-20
-1.01149e-20
3.14895e-23
-2.56996e-21
-4.82378e-20
-1.36511e-20
-8.8072e-20
-1.289e-20
7.94799e-22
-1.14873e-20
-9.99716e-20
1.47333e-23
6.0072e-20
-3.02003e-20
4.23623e-20
-1.65977e-20
7.2057e-20
1.57846e-20
8.64418e-20
6.25652e-21
8.05082e-20
-2.23049e-20
4.90951e-20
1.25027e-20
3.64066e-20
3.3388e-20
1.94878e-20
-2.86998e-21
-1.94625e-20
1.79654e-20
6.52319e-20
-9.12204e-21
-1.52482e-19
-1.12e-20
-7.88071e-20
-3.5046e-21
-7.36782e-20
1.03975e-20
-3.30167e-20
1.29516e-20
-3.64266e-20
1.27943e-20
4.0667e-20
9.78239e-21
3.2184e-20
1.54319e-20
-4.65996e-20
8.48319e-21
6.60487e-20
-1.78254e-20
7.63487e-21
-1.16798e-20
-4.23459e-20
1.74616e-20
2.6252e-20
-8.28783e-21
-2.79466e-20
-9.63589e-21
-5.84464e-20
1.727e-20
4.23405e-20
-1.02855e-20
8.46508e-21
6.52393e-21
-4.82577e-20
-3.1127e-21
2.45742e-20
-1.86026e-22
5.92807e-20
-1.60734e-20
5.08537e-21
-7.0072e-21
6.43745e-20
5.6263e-21
1.10014e-20
2.69074e-20
-1.77914e-20
1.66231e-20
1.94772e-20
-1.6407e-21
-1.39762e-19
2.14436e-21
-1.4392e-20
-8.58986e-21
2.37189e-20
-1.00455e-20
-2.8804e-20
-1.86546e-20
-1.04186e-19
-1.21232e-20
2.54121e-20
2.79526e-20
3.30366e-21
-2.50133e-20
-1.88514e-20
1.64313e-22
6.80308e-21
-1.74552e-20
-4.18387e-21
-2.25895e-21
1.69667e-20
-6.02905e-21
-2.12079e-20
6.00731e-22
1.69687e-20
-1.02527e-20
-2.28102e-20
-7.80195e-21
-1.09276e-19
-1.51834e-20
6.51597e-20
-1.66646e-20
-1.47379e-19
8.22162e-21
5.15841e-21
1.24451e-20
1.94738e-20
-2.53568e-21
-9.40823e-20
-1.38913e-20
-7.2849e-20
-3.61194e-21
-8.55672e-22
-3.97745e-20
9.82561e-20
-5.88888e-21
4.74665e-20
-5.4873e-21
-5.5021e-20
-1.56564e-20
-4.48757e-20
-1.32391e-20
2.96026e-20
-1.0966e-20
-4.83013e-20
2.50744e-21
1.02431e-19
-3.43908e-20
4.15233e-20
-2.02997e-20
9.15349e-20
1.72023e-20
6.61065e-20
4.93218e-21
1.01682e-19
-2.16795e-20
3.21513e-20
1.15058e-20
6.77626e-20
3.63892e-20
1.1018e-20
-1.11848e-21
-6.68976e-20
1.7718e-20
4.99837e-20
-9.19834e-21
-2.31255e-19
-1.19326e-20
-9.32004e-20
-4.63391e-21
-4.4885e-20
1.25664e-20
-3.13222e-20
1.12524e-20
5.5903e-20
1.85124e-20
5.08595e-21
4.68176e-21
5.84416e-20
1.6906e-20
-6.94672e-20
7.83635e-21
5.16523e-20
-1.91312e-20
2.4564e-20
-1.2444e-20
-8.97833e-20
1.84529e-20
3.38751e-20
-7.59761e-21
-4.74262e-20
-1.16651e-20
-6.0985e-20
1.93503e-20
5.75865e-20
-1.008e-20
-8.47833e-21
4.64313e-21
-3.21651e-20
-4.63018e-22
1.0335e-19
-1.40921e-21
9.73976e-20
-1.53259e-20
1.14353e-19
-5.18728e-21
3.30348e-20
4.02475e-21
3.6413e-20
2.72712e-20
1.01603e-20
1.94694e-20
3.47241e-20
-5.24102e-21
-1.94819e-19
2.06463e-21
1.10179e-20
-6.74347e-21
-8.45279e-22
-1.24409e-20
-5.08267e-20
-1.88396e-20
-1.50773e-19
-1.33208e-20
-8.45864e-22
1.69411e-20
2.03242e-20
-1.58726e-20
5.49315e-22
-1.06624e-20
1.45874e-21
-2.34077e-21
1.66335e-21
8.33806e-22
-5.13613e-21
-8.40985e-23
1.32195e-21
-7.17357e-22
-1.29312e-23
-4.08472e-22
1.4326e-21
-4.34815e-21
-5.84805e-21
-1.51454e-21
-1.04158e-21
1.74758e-21
1.63567e-21
3.28796e-21
2.79512e-21
5.24799e-21
1.89592e-21
-2.13437e-21
8.10655e-21
-5.81875e-21
6.40683e-21
-3.78518e-21
1.06493e-20
-3.56103e-21
2.64216e-21
1.02423e-21
1.68454e-21
-3.82378e-21
9.74949e-21
-5.14407e-21
6.97668e-21
-2.73667e-21
-4.89674e-21
2.77698e-21
-7.60294e-21
2.49412e-21
-8.463e-21
-6.62365e-22
1.91557e-21
5.95654e-21
-6.26295e-21
4.61999e-21
-6.63624e-21
1.00089e-20
5.75208e-21
7.72891e-21
6.15063e-21
1.09308e-20
9.76493e-21
1.17614e-20
-8.24071e-21
7.79536e-21
-1.51576e-20
5.53043e-21
-8.44574e-22
6.38461e-21
-1.83242e-20
6.14339e-21
8.27832e-22
1.45399e-20
-2.6682e-20
1.11498e-20
-2.10591e-20
1.0937e-20
-2.79918e-20
5.8203e-21
-2.85737e-20
-5.0661e-21
-1.79995e-20
-1.09517e-20
-3.38813e-20
7.82904e-22
-1.63085e-20
-1.58831e-21
1.96745e-21
6.30511e-22
-8.18446e-21
1.99057e-21
8.60882e-22
9.15133e-22
8.70189e-21
5.05742e-21
-3.38483e-21
3.93065e-21
-3.42748e-21
3.97389e-21
-1.91108e-20
-4.98461e-21
-1.75898e-21
-1.30081e-20
4.96797e-21
-3.43752e-21
7.5507e-21
6.63253e-21
4.62024e-20
4.38001e-20
-2.18973e-21
-2.94075e-21
-1.02943e-21
-3.17434e-21
-6.87108e-23
-4.11235e-21
2.12586e-21
2.96462e-21
-9.44276e-22
2.48467e-22
4.93336e-22
-2.24132e-21
-1.52243e-21
-2.93817e-21
-5.10205e-21
1.6525e-20
3.47085e-21
1.31244e-20
3.97688e-21
1.90582e-21
4.0828e-22
2.68389e-20
-4.0861e-21
-3.08049e-22
-4.3529e-21
-3.19942e-21
-6.59047e-21
-3.19483e-21
-1.27259e-20
-2.70622e-20
-8.75349e-21
-1.60067e-20
1.28101e-21
1.20172e-20
-3.39459e-21
-5.31115e-21
-3.82509e-21
1.27268e-20
-6.5207e-21
-6.73657e-21
-1.94568e-21
1.57496e-20
-1.81853e-21
2.75292e-20
-7.75298e-21
-2.923e-20
-6.06373e-21
4.22927e-20
-5.60915e-21
-1.61538e-20
5.70591e-21
3.26729e-20
1.53592e-21
3.61571e-21
2.3786e-21
-2.08934e-20
1.81951e-21
1.84007e-20
-7.17257e-21
-3.73619e-22
1.02939e-20
-1.43996e-20
1.28231e-21
9.01108e-21
-1.0955e-20
-2.1153e-21
-4.31175e-21
-6.45657e-21
2.67747e-21
-2.61436e-20
1.52174e-20
5.56671e-21
-8.67982e-21
-9.7768e-21
-5.08725e-21
5.38139e-20
6.6047e-22
1.90507e-20
1.08358e-20
-1.02375e-20
5.69166e-21
4.52979e-20
-2.82565e-21
-2.33795e-20
-1.00758e-20
-5.96075e-20
-9.16188e-22
-2.60791e-20
6.8339e-21
-3.98105e-20
-1.46884e-20
-5.92923e-21
-1.47699e-20
1.88301e-20
-4.1516e-21
1.69007e-20
-1.51782e-20
3.71238e-20
8.61101e-21
4.93675e-20
-1.09725e-21
-2.59407e-20
2.25008e-21
1.93587e-20
1.21007e-20
-6.5087e-20
6.68777e-21
4.33865e-20
1.99175e-20
2.58324e-20
3.81368e-21
2.44129e-20
1.44503e-20
-1.43545e-20
-3.7324e-20
-3.97647e-20
-3.69446e-21
2.1411e-22
-6.36726e-21
5.02875e-21
4.06009e-20
5.56891e-20
3.0301e-20
9.66305e-20
-7.19384e-21
8.30086e-20
2.36082e-21
-4.75873e-20
1.1164e-20
-1.19974e-19
-7.3575e-21
-6.84332e-20
8.2563e-21
-3.50254e-20
2.23014e-20
-1.146e-19
2.27055e-20
-1.41113e-20
7.85039e-21
-3.03507e-20
2.15046e-20
7.41134e-21
5.20781e-21
1.27928e-19
2.69206e-20
1.49212e-19
-8.07474e-21
7.51537e-21
7.34863e-22
7.6233e-20
8.84415e-21
7.88811e-20
1.09123e-20
-7.86821e-21
2.01877e-21
1.68201e-20
-5.10744e-21
1.25526e-19
-6.2934e-21
-2.57001e-21
-2.0482e-20
-1.06404e-19
3.65611e-20
-8.9605e-21
9.24799e-21
-6.46092e-20
-2.00867e-20
1.66072e-20
1.40625e-20
3.89321e-20
-6.00294e-21
-1.06689e-19
-2.87012e-20
3.29881e-20
-9.55838e-21
1.28199e-19
2.21384e-20
-3.95289e-20
1.0108e-20
-3.72694e-20
2.20434e-20
-8.22429e-20
1.64159e-20
-1.27031e-19
2.20733e-20
4.65636e-20
-1.6087e-20
-1.66134e-19
1.32331e-20
1.59258e-19
1.1182e-20
5.76174e-20
3.86554e-21
3.71421e-20
3.64619e-20
5.5857e-20
2.51066e-20
3.55229e-20
1.18531e-20
-8.81082e-20
-1.04231e-20
1.06726e-19
1.40938e-20
-3.04626e-20
-5.62317e-21
-7.11697e-20
-2.60191e-20
-5.25173e-20
-3.10431e-20
3.21014e-20
-1.27927e-20
1.33845e-19
-2.64005e-20
-6.09514e-20
-2.08124e-20
6.26371e-20
-3.19758e-20
1.51898e-20
-4.15078e-20
-1.45648e-19
-3.03932e-20
1.01718e-19
-3.23454e-20
-2.37189e-20
-4.13748e-20
2.71004e-19
-3.4626e-20
-8.30038e-20
5.07681e-21
1.03378e-19
7.67619e-21
5.08099e-20
1.6018e-20
-3.89741e-20
-1.32884e-20
-8.80645e-20
1.27446e-19
-1.21934e-19
-1.09597e-18
7.38795e-19
-1.16266e-21
1.3778e-21
-2.93199e-21
-1.63876e-21
6.36453e-22
-1.93183e-21
-5.29396e-21
-1.07138e-21
8.43256e-21
-3.72724e-22
-1.6564e-21
-2.18792e-21
1.69371e-21
1.66159e-21
2.22346e-21
3.89437e-21
1.26925e-20
-3.37232e-21
1.82031e-20
-6.33894e-21
2.20367e-22
2.42717e-21
5.4544e-21
4.75749e-22
-4.52565e-21
-1.81701e-21
-5.9579e-21
-3.66111e-21
-4.6787e-21
-1.25767e-20
-2.55531e-20
-9.62407e-21
-1.96008e-20
-3.25831e-21
3.39337e-22
-1.09205e-20
2.52846e-21
-7.43236e-21
3.4171e-21
-1.16823e-20
5.29949e-21
-1.40488e-20
1.78708e-20
-1.26523e-20
1.99084e-20
-4.11724e-21
-2.6246e-20
1.06526e-20
4.0601e-20
-9.51996e-22
0
1.14878e-20
3.13832e-20
5.36471e-21
-1.04159e-20
-4.84208e-22
-3.69176e-20
7.33414e-21
7.40455e-21
5.77703e-21
2.13266e-21
-3.23366e-22
8.12503e-22
-1.49513e-21
-4.54685e-21
-7.18975e-21
-3.36138e-21
6.97437e-22
-1.9588e-20
7.07841e-21
-3.12505e-20
7.20403e-21
1.31989e-20
-1.21591e-21
-5.76496e-20
-6.93041e-21
6.48356e-20
-1.35394e-20
1.8217e-20
4.92507e-21
-6.01485e-21
9.1001e-21
6.01757e-20
-1.14351e-20
3.29659e-20
-2.22702e-20
-1.10538e-19
-4.72503e-21
-5.27298e-20
-9.86131e-22
-6.93517e-20
-1.25395e-20
4.41287e-21
-8.23343e-21
2.17322e-20
2.19324e-21
-2.99724e-21
-1.07732e-20
1.93657e-20
1.19784e-20
6.20355e-20
8.25667e-21
-4.80098e-20
3.85575e-21
3.04101e-20
1.24042e-20
-6.16877e-20
1.28291e-20
3.32453e-20
3.33234e-20
2.25239e-20
1.47851e-20
3.03069e-20
2.2802e-20
-7.02762e-20
-1.37065e-20
-1.7719e-20
-5.69804e-21
4.84769e-20
-1.71176e-20
3.13076e-20
2.25696e-20
9.21232e-20
3.1769e-20
4.7488e-20
1.59949e-20
7.36553e-20
1.33921e-20
-1.78885e-20
9.07627e-21
-1.1238e-19
1.58956e-21
-6.34003e-20
6.4781e-21
-3.49779e-20
2.11281e-20
-1.17073e-19
1.35178e-20
2.80246e-21
-4.00369e-21
-7.44173e-20
1.09213e-20
-4.59034e-20
-1.13636e-20
1.19493e-19
1.49442e-21
2.54164e-19
-1.5212e-21
-3.23126e-20
-7.08456e-21
9.31877e-20
1.14762e-20
5.76934e-20
1.68281e-20
-1.03783e-20
-6.12775e-21
-2.13265e-20
-6.07087e-23
7.88879e-20
2.15737e-22
1.35594e-20
-2.75411e-20
-5.0522e-20
4.3841e-20
-8.13797e-21
1.71096e-21
-6.71273e-20
-3.23e-20
2.67758e-20
-1.22982e-20
2.36495e-20
-1.26162e-20
-6.77211e-20
-1.87772e-20
3.38813e-21
-2.63361e-20
1.46781e-19
9.16864e-21
-3.97603e-21
1.40706e-20
-7.53567e-20
4.21171e-20
-9.15631e-20
2.60899e-20
-6.85852e-20
2.50037e-20
4.90708e-20
-9.71863e-21
-9.92249e-20
4.71116e-21
2.05038e-19
3.85971e-21
-1.69049e-20
9.32214e-21
-1.62048e-20
2.04087e-20
-1.72658e-21
1.25754e-20
-4.15472e-20
5.34405e-21
-1.16923e-19
-2.50089e-20
7.63291e-20
1.15877e-20
-3.47188e-20
-1.79075e-21
-5.08545e-20
-2.62546e-20
-7.62384e-20
-3.19288e-20
1.69407e-20
-1.14132e-20
1.33838e-19
-2.81686e-20
-1.01644e-19
-1.90947e-20
1.11759e-19
-4.15595e-20
2.53685e-20
-3.26384e-20
-1.62589e-19
-3.4576e-20
8.97855e-20
-5.35772e-20
3.72672e-20
-2.94617e-20
3.03195e-19
-2.26035e-20
-2.87926e-20
-7.89033e-21
1.76215e-19
2.15215e-20
6.77141e-21
1.72472e-21
1.18486e-20
-1.58846e-21
-7.11283e-20
1.24984e-19
-1.86318e-19
-1.06889e-18
5.77469e-19
1.12862e-21
1.17686e-21
-4.61206e-23
-3.85196e-21
5.77392e-22
2.22346e-21
5.93654e-22
-2.39309e-21
-6.00928e-22
-1.79479e-21
-1.96817e-21
-5.17164e-21
-2.44256e-21
-2.15616e-21
-6.77213e-22
1.5982e-22
-1.38858e-21
7.67083e-21
-2.50981e-21
1.01611e-20
1.15307e-21
1.16467e-21
6.03242e-21
4.50972e-21
1.19908e-21
1.12927e-20
3.2931e-22
1.80486e-21
4.58777e-21
3.80949e-21
3.18585e-21
8.80567e-21
4.30322e-21
5.38197e-21
6.06466e-22
3.45626e-21
-1.45582e-21
-5.25185e-21
3.32452e-21
-9.82691e-21
2.96865e-21
-1.70294e-21
3.68037e-21
-2.04225e-21
3.09416e-21
-1.34806e-21
5.84711e-21
1.50633e-20
4.79732e-21
5.08946e-21
8.95473e-21
5.11571e-21
5.71684e-21
-4.00847e-21
1.01129e-20
-2.87991e-20
9.14329e-21
-1.06244e-20
-9.81744e-23
-2.65728e-20
6.13171e-21
-1.7363e-20
5.63717e-21
-1.31063e-20
-6.40372e-22
-2.549e-20
-1.45191e-21
-2.54752e-20
-5.1849e-21
-2.96295e-20
-8.50872e-21
-2.64845e-20
-7.83807e-21
-3.32508e-20
-7.03868e-21
-1.24964e-20
-1.27851e-20
9.084e-22
-4.53219e-21
1.75621e-21
-1.82718e-21
4.44311e-21
-3.06184e-21
2.85817e-20
4.36691e-22
1.37727e-20
1.04478e-21
-2.67146e-20
-2.17052e-21
-8.30393e-21
-8.23973e-21
-1.48231e-20
-1.56499e-20
-1.27945e-20
-1.70125e-20
5.84136e-21
-1.21759e-20
4.23554e-20
9.12555e-21
4.71415e-20
1.86036e-20
1.64186e-20
2.75177e-20
-2.00853e-21
1.39496e-20
-8.48842e-21
-1.1084e-20
1.65457e-20
-1.97953e-20
-2.07292e-21
-6.7407e-21
-3.35692e-21
-6.16043e-21
-3.13607e-20
1.02696e-21
-5.90025e-21
-8.00575e-21
-3.55181e-20
-9.00104e-21
-1.24534e-19
-1.7958e-20
5.32968e-20
-1.74508e-20
-1.53291e-19
7.79344e-21
-2.11009e-20
1.27678e-20
3.89471e-20
-1.35791e-21
-1.16943e-19
-1.77785e-20
-9.14863e-20
-1.897e-21
6.85942e-20
-4.08032e-20
1.872e-19
3.91822e-21
-1.52088e-20
-1.58413e-20
-7.70517e-20
-1.3242e-20
-5.33532e-20
-1.37523e-20
-6.01852e-20
-4.08028e-21
-7.03201e-20
-3.92107e-21
1.2447e-19
-3.55581e-20
3.13612e-20
-2.12626e-20
1.0847e-19
1.79022e-20
9.65963e-20
2.64179e-21
1.3976e-19
-2.17097e-20
5.587e-20
1.25355e-20
-3.40504e-21
3.67054e-20
8.89385e-20
-2.77222e-21
-5.75844e-20
1.54186e-20
4.74439e-20
-6.54252e-21
-2.6683e-19
-1.33104e-20
-1.19457e-19
-2.1225e-21
-2.70937e-20
1.26617e-20
-9.82363e-20
1.00138e-20
9.57113e-20
1.83142e-20
-1.77807e-20
5.44063e-21
7.53801e-20
1.9469e-20
-9.99619e-20
1.14361e-20
6.43596e-20
-1.86626e-20
-3.47221e-20
-1.14877e-20
-1.09263e-19
1.30096e-20
9.99437e-20
-3.82225e-21
-3.98002e-20
-1.1195e-20
-7.96215e-20
1.88393e-20
1.12643e-19
-8.13165e-21
5.50515e-20
1.36202e-21
-1.09926e-20
2.0969e-21
1.29608e-19
-2.23067e-21
1.06715e-19
-1.56187e-20
1.55856e-19
-4.34697e-21
1.69691e-21
3.33106e-21
4.40385e-20
2.76485e-20
1.69354e-20
2.00312e-20
-6.18334e-20
-4.5451e-21
-2.26158e-19
1.14515e-21
-7.28392e-20
-6.67006e-21
-5.33613e-20
-1.21362e-20
-1.18589e-19
-1.55176e-20
-1.56702e-19
-1.88396e-20
1.44009e-20
-5.0819e-21
4.16539e-21
-1.83356e-20
-1.59268e-20
-9.14109e-22
-1.09816e-20
-1.18698e-20
-4.62997e-21
-1.12179e-20
7.64498e-21
-2.0905e-21
-3.30465e-20
7.19846e-22
-6.26634e-20
-7.16862e-21
-5.16074e-20
-8.76564e-21
-1.21982e-19
-1.98429e-20
1.6283e-21
-1.27176e-20
-1.58364e-19
7.81063e-21
1.61631e-20
1.31093e-20
3.47043e-20
-3.91998e-21
-1.13543e-19
-1.53305e-20
-1.11818e-19
-1.51297e-21
7.02756e-20
-3.998e-20
2.00747e-19
2.65584e-21
-5.07788e-20
-2.08467e-20
-8.12895e-20
-1.2859e-20
-2.45624e-20
-1.60643e-20
-7.96758e-20
6.97134e-22
-9.32699e-21
-9.44412e-21
2.33749e-19
-3.51396e-20
8.61103e-22
-2.10862e-20
1.96559e-19
1.56332e-20
2.29095e-20
4.12022e-21
1.61821e-19
-2.03703e-20
4.7401e-20
1.44616e-20
-9.33755e-21
3.69424e-20
9.65596e-20
-1.34746e-21
-1.16032e-19
1.46305e-20
5.59172e-20
-4.43919e-21
-1.95684e-19
-1.23512e-20
-2.07545e-19
-4.46791e-21
-3.89427e-20
1.59771e-20
-1.08405e-19
1.34449e-20
9.91029e-20
1.21373e-20
2.71155e-20
8.46641e-21
8.29991e-20
1.55776e-20
-1.13517e-19
1.75837e-20
1.27041e-19
-2.38628e-20
-1.06722e-19
-1.08052e-20
-1.65171e-19
1.25955e-20
1.17732e-19
-4.72243e-21
-5.07105e-21
-1.04484e-20
-1.02491e-19
1.97258e-20
6.52071e-20
-5.194e-21
7.45339e-20
-9.08227e-22
-8.30462e-22
5.27383e-21
1.10975e-19
-1.8922e-21
6.52117e-20
-2.01721e-20
1.52465e-19
-3.59945e-21
-1.68873e-21
2.55658e-21
-2.88047e-20
2.55968e-20
-6.78285e-21
2.14872e-20
-2.54156e-20
-4.29325e-21
-2.69355e-19
3.09709e-21
-1.49073e-19
-6.26024e-21
-5.08079e-21
-1.25661e-20
-1.27906e-19
-1.72911e-20
-2.11759e-19
-2.03419e-20
7.19991e-20
1.69426e-21
2.26813e-20
-8.8784e-21
2.25195e-20
-5.81929e-21
2.3195e-21
-2.8195e-21
5.89035e-22
-3.38848e-23
-4.07635e-21
9.7664e-22
-1.68536e-21
-2.6007e-21
-2.66657e-21
-2.90935e-21
-5.82335e-22
-2.74933e-21
-8.18701e-21
-2.79535e-21
-4.43181e-21
-1.59918e-21
1.11734e-21
2.82071e-21
4.60788e-21
6.97042e-22
1.06804e-20
-7.12904e-21
7.46163e-21
-7.90093e-21
1.43741e-21
-4.80331e-21
7.71415e-21
-4.50408e-21
9.00675e-21
-2.62458e-21
1.02703e-20
-4.25675e-21
6.4795e-21
1.51427e-21
1.87465e-21
3.6769e-21
3.86028e-21
1.45136e-21
-7.48959e-21
5.18234e-21
-4.19225e-21
7.48926e-21
-4.85988e-21
8.53196e-21
5.04143e-21
6.85611e-21
1.02825e-20
5.82983e-21
2.14095e-20
1.27526e-20
7.41154e-21
1.38257e-20
2.15503e-21
1.08277e-20
-2.31197e-21
1.54066e-20
-2.51735e-20
9.4414e-21
-1.14841e-20
5.53913e-21
-3.26994e-20
5.44049e-21
-2.11787e-20
1.08009e-20
-3.08966e-20
1.53534e-20
-4.66387e-20
1.13126e-20
-4.62309e-20
3.09934e-21
-3.79141e-20
-7.34489e-21
-2.45633e-20
-3.22663e-21
-3.3668e-20
-4.35006e-21
-2.07493e-20
-4.37938e-21
-1.54584e-20
-7.25735e-21
3.86811e-21
-8.39907e-21
2.95843e-21
1.66874e-21
1.62867e-20
1.7676e-21
1.16568e-20
2.48235e-21
-1.67511e-20
2.46755e-21
-1.21021e-20
-8.9831e-21
-1.57036e-20
-1.12178e-20
-1.7649e-20
-3.74494e-21
1.59725e-21
2.27849e-21
3.06874e-20
4.35075e-20
-4.88055e-22
-8.06673e-22
-3.98526e-22
3.2718e-21
-6.60515e-24
3.38941e-21
1.55736e-21
5.14374e-21
1.54999e-21
-1.58819e-21
1.46407e-21
1.38285e-21
4.1211e-21
2.78999e-21
1.1188e-21
8.57394e-21
2.14015e-21
2.6664e-20
-4.21054e-22
2.74423e-21
-3.59542e-21
1.0547e-20
-3.01273e-21
-1.14196e-21
-5.62316e-22
-7.21973e-21
-5.66252e-21
-4.27169e-22
-1.5551e-20
-1.41048e-20
-1.45214e-20
-2.15044e-20
-2.5848e-21
-2.82704e-20
-4.86848e-21
-5.50834e-21
-6.4502e-21
-8.85975e-21
-2.4738e-21
5.04386e-21
3.35227e-21
3.01413e-20
-2.79276e-21
2.58597e-20
-1.12616e-20
-9.73865e-21
5.01858e-21
4.0177e-20
8.51622e-22
-8.07906e-21
1.23484e-20
2.37265e-20
4.86331e-21
-1.63878e-20
-2.8647e-21
-3.30489e-20
1.35471e-21
2.43661e-20
9.09047e-21
1.26963e-20
1.98613e-20
8.42463e-22
1.92246e-21
3.90244e-21
-1.3469e-20
-4.61381e-21
-7.58249e-21
5.82027e-21
6.98078e-21
-2.79521e-20
1.20112e-20
3.04282e-21
-2.87028e-21
-6.10379e-20
-4.24675e-22
1.21151e-19
-2.89848e-22
-1.28194e-21
7.80269e-21
-3.38813e-21
1.1639e-20
1.40266e-20
-7.23988e-21
3.75994e-20
-1.88032e-20
-1.39281e-19
-3.3502e-21
-7.63956e-20
1.0678e-20
-8.0271e-20
4.24409e-21
-1.38227e-20
-4.70452e-21
3.225e-20
8.55653e-22
2.11585e-20
-1.19137e-20
-9.36662e-21
-8.05724e-22
8.48776e-20
-7.24031e-22
-6.6314e-20
-8.10279e-22
2.48297e-21
5.7088e-21
-2.35722e-20
2.55542e-21
1.71531e-20
7.84889e-21
2.0055e-20
-9.38314e-22
2.85842e-20
-1.25933e-20
-8.21281e-20
-2.12854e-20
-1.43458e-20
-7.37716e-22
3.32462e-20
-1.35239e-20
7.70698e-20
3.28533e-20
8.53355e-20
1.75295e-20
1.07573e-19
-8.07172e-21
8.2978e-20
9.53786e-21
-4.32863e-20
2.64145e-21
-1.37817e-19
-1.06275e-21
-2.1046e-20
1.41248e-20
-5.86922e-20
4.07299e-20
-1.33138e-19
2.64763e-20
-3.14377e-21
1.05144e-20
-1.24387e-19
1.76777e-20
-5.34772e-20
3.12613e-21
2.46276e-20
1.59808e-20
2.9987e-19
-2.22299e-21
-8.56843e-20
-9.94736e-21
1.19434e-19
1.871e-20
1.43207e-19
2.64018e-20
3.03235e-20
1.04329e-20
-1.11773e-20
6.49528e-21
4.15752e-20
1.07915e-20
3.13505e-20
-3.38394e-20
-2.00302e-20
3.86237e-20
-7.32102e-21
6.91307e-21
-8.91241e-20
-1.10853e-20
-7.06793e-21
8.31394e-21
-2.80821e-20
-2.41195e-20
-2.79481e-20
-1.47521e-20
5.25536e-20
-1.33314e-20
1.34056e-19
2.27784e-20
3.24394e-20
-2.56565e-22
-1.10072e-19
2.92028e-20
-1.05122e-19
2.97123e-20
-6.09655e-20
2.02855e-20
6.59925e-20
-2.44317e-21
-8.56587e-20
1.35719e-20
1.26274e-19
2.43169e-21
5.11801e-21
5.58272e-21
-3.14391e-20
2.94587e-20
-8.60374e-22
1.68965e-20
-7.54198e-20
1.05145e-20
-2.35503e-19
-2.38183e-21
-2.70386e-20
1.04104e-20
-5.84531e-20
3.66939e-23
-2.88205e-20
-2.53482e-20
-1.20295e-19
-4.44254e-20
-3.38813e-21
-2.31956e-20
1.03347e-19
-3.12343e-20
-5.84029e-20
-2.52583e-20
1.33778e-19
-3.78003e-20
2.87991e-20
-3.26582e-20
-1.93075e-19
-4.73797e-20
6.61303e-20
-5.17563e-20
8.29976e-20
-3.78489e-20
3.40472e-19
-2.48995e-20
-6.60581e-20
-1.51434e-20
2.355e-19
8.83949e-21
1.35476e-20
-9.55601e-21
4.5729e-20
1.96904e-20
-1.38894e-19
9.95209e-20
-1.59218e-19
-1.04688e-18
4.04005e-19
-2.74963e-21
4.34012e-21
-5.04759e-23
-1.18474e-21
-7.49497e-22
-1.77044e-22