/*--------------------------------*- C++ -*----------------------------------*\
| =========                 |                                                 |
| \\      /  F ield         | OpenFOAM: The Open Source CFD Toolbox           |
|  \\    /   O peration     | Version:  2212                                  |
|   \\  /    A nd           | Website:  www.openfoam.com                      |
|    \\/     M anipulation  |                                                 |
\*---------------------------------------------------------------------------*/
FoamFile
{
    version     2.0;
    format      ascii;
    arch        "LSB;label=32;scalar=64";
    class       volScalarField;
    location    "0.049";
    object      nut;
}
// * * * * * * * * * * * * * * * * * * * * * * * * * * * * * * * * * * * * * //

dimensions      [0 2 -1 0 0 0 0];

internalField   nonuniform List<scalar> 
44662
(
0.0581151
0.286809
0.286452
0.287153
0.286876
0.0315529
0.124892
0.0288009
0.269049
0.310153
0.0382723
0.0433444
0.118389
0.15496
0.00847193
0.0554785
0.0068106
0.00674787
0.174266
0.205704
0.31885
0.0066531
0.305279
0.31613
0.0137985
0.172302
0.105236
0.0430938
0.108324
0.0575381
0.0115917
0.168571
0.0140762
0.0264636
0.0350547
0.31881
0.110015
0.0816682
0.173832
0.242994
0.229619
0.138845
0.0146784
0.228088
0.265091
0.0180976
0.0397386
0.310767
0.2699
0.256131
0.285208
0.0270243
0.171282
0.00616042
0.31438
0.0237609
0.164281
0.0164953
0.0723745
0.0699994
0.0364727
0.00553973
0.30004
0.128656
0.333864
0.0415855
0.0118643
0.00972224
0.129015
0.12701
0.00569299
0.014254
0.071436
0.0405681
0.108593
0.177431
0.00531641
0.07543
0.064359
0.0115875
0.0212996
0.0941305
0.278343
0.0731206
0.0251448
0.270047
0.0816188
0.294858
0.211503
0.141183
0.0579497
0.0702801
0.310201
0.00682231
0.245622
0.194877
0.0198724
0.226841
0.319863
0.291909
0.171772
0.293884
0.0681161
0.0108424
0.109358
0.0436511
0.101827
0.023404
0.286738
0.133354
0.094909
0.255809
0.29353
0.307138
0.0176041
0.0881252
0.0582
0.275538
0.00508493
0.0817176
0.240137
0.0845888
0.0536271
0.0764252
0.080384
0.306189
0.0715911
0.0761443
0.28752
0.0668108
0.0720291
0.0482494
0.0371028
0.0628292
0.0613216
0.0682272
0.0507734
0.0499107
0.0554529
0.0648407
0.0557953
0.0496581
0.0322159
0.0240369
0.0440273
0.28714
0.279676
0.27877
0.304844
0.287507
0.248758
0.286712
0.04345
0.0117176
0.2996
0.303381
0.247424
0.173183
0.172847
0.172521
0.172206
0.171903
0.171608
0.171321
0.17104
0.170766
0.170497
0.170234
0.169978
0.169727
0.169482
0.169242
0.169008
0.168779
0.168556
0.168339
0.168127
0.167921
0.16772
0.167524
0.167333
0.167147
0.166967
0.166792
0.166623
0.166461
0.166305
0.166154
0.166009
0.165869
0.165735
0.165607
0.165484
0.165367
0.165256
0.16515
0.16505
0.164956
0.164868
0.164786
0.16471
0.16464
0.164576
0.164519
0.164467
0.164422
0.164122
0.164079
0.16417
0.00596283
0.173527
0.172719
0.173037
0.164383
0.164348
0.163995
0.164038
0.164271
0.164216
0.164406
0.164334
0.164571
0.164485
0.164762
0.164663
0.164978
0.164867
0.165214
0.165094
0.165464
0.165338
0.165732
0.165595
0.166031
0.165876
0.166366
0.166194
0.166728
0.166545
0.167108
0.166917
0.167502
0.167303
0.167917
0.167707
0.168352
0.168132
0.16881
0.168579
0.16929
0.169047
0.16979
0.169538
0.170303
0.170044
0.170837
0.170567
0.171406
0.171116
0.172041
0.171714
0.172384
0.172101
0.172407
0.171504
0.1718
0.170925
0.171212
0.170367
0.170643
0.169834
0.170098
0.169329
0.169578
0.168848
0.169085
0.168391
0.168617
0.167957
0.168171
0.167544
0.167747
0.167153
0.167346
0.166787
0.166967
0.166444
0.166613
0.166121
0.166281
0.165815
0.165966
0.165527
0.165668
0.165262
0.165391
0.165022
0.165139
0.164807
0.164911
0.164614
0.164708
0.164444
0.164527
0.164293
0.164367
0.164166
0.164225
0.164068
0.164114
0.164002
0.16403
0.163093
0.163058
0.163136
0.00543327
0.0058806
0.171366
0.171654
0.163956
0.16297
0.16292
0.162978
0.163981
0.162959
0.173362
0.173877
0.163015
0.16321
0.163168
0.163329
0.163264
0.163484
0.163403
0.163666
0.163572
0.163874
0.163767
0.1641
0.163985
0.164333
0.164216
0.164575
0.164451
0.164859
0.164712
0.16519
0.16502
0.165553
0.16537
0.165928
0.16574
0.16631
0.166117
0.16671
0.166508
0.167131
0.166918
0.167573
0.16735
0.168036
0.167802
0.168516
0.168274
0.169
0.168758
0.169494
0.169244
0.170037
0.169757
0.170676
0.170344
0.17103
0.10918
0.164318
0.170795
0.17108
0.170224
0.170509
0.169665
0.169942
0.169124
0.169391
0.168608
0.168863
0.168118
0.168359
0.167654
0.167883
0.167213
0.167431
0.166794
0.167001
0.166397
0.166593
0.166021
0.166206
0.165669
0.165842
0.165342
0.165502
0.165033
0.165185
0.164739
0.164884
0.16446
0.164597
0.164202
0.164327
0.163969
0.164082
0.16376
0.163861
0.163574
0.163664
0.163408
0.163488
0.163259
0.163332
0.163137
0.163197
0.163038
0.163086
0.163004
0.171947
0.161273
0.16133
0.161438
0.161412
0.16147
0.163965
0.162946
0.173481
0.172246
0.173691
0.174228
0.161222
0.159106
0.159049
0.174024
0.172556
0.161374
0.161524
0.161493
0.161621
0.161569
0.161759
0.161685
0.161927
0.161839
0.162119
0.16202
0.162327
0.162222
0.162534
0.162431
0.162745
0.162637
0.163007
0.162873
0.163327
0.16316
0.163683
0.163504
0.164042
0.163862
0.164402
0.16422
0.164777
0.164587
0.165172
0.164972
0.165586
0.165377
0.166019
0.1658
0.166466
0.166242
0.166908
0.166689
0.167348
0.167126
0.167853
0.167587
0.168479
0.168152
0.329281
0.168827
0.163924
0.164296
0.162877
0.170239
0.169694
0.169962
0.169172
0.169433
0.168649
0.168914
0.168118
0.168383
0.167596
0.167854
0.167091
0.16734
0.166609
0.166847
0.16615
0.166376
0.165715
0.16593
0.165302
0.165506
0.16491
0.165104
0.164538
0.164722
0.164187
0.16436
0.163857
0.16402
0.163551
0.163702
0.163263
0.163405
0.162989
0.163124
0.162728
0.162857
0.162487
0.162605
0.162268
0.162375
0.162072
0.162167
0.161898
0.161983
0.161742
0.161818
0.161608
0.161674
0.161491
0.161547
0.161399
0.161441
0.161344
0.161368
0.161315
0.161327
0.172874
0.170522
0.17214
0.159164
0.173832
0.161182
0.159004
0.156519
0.156462
0.159165
0.161307
0.159159
0.174585
0.174363
0.173195
0.159262
0.159252
0.159234
0.170813
0.166858
0.169905
0.159209
0.159301
0.15928
0.159375
0.159333
0.159488
0.159426
0.159635
0.159559
0.159806
0.159718
0.159989
0.159897
0.160163
0.160077
0.160338
0.160247
0.160568
0.160441
0.160866
0.160709
0.161205
0.161034
0.161536
0.161373
0.161864
0.161699
0.162203
0.162031
0.16256
0.16238
0.162935
0.162745
0.163327
0.163129
0.163727
0.163527
0.164112
0.163922
0.164487
0.164299
0.164949
0.164702
0.165532
0.165227
0.274141
0.16586
0.302326
0.163953
0.162937
0.163901
0.16428
0.162845
0.167656
0.167155
0.167402
0.166679
0.166915
0.166221
0.166449
0.165753
0.165989
0.165279
0.165517
0.164811
0.165045
0.164358
0.164582
0.163925
0.16414
0.163511
0.163715
0.163119
0.163312
0.162746
0.162929
0.162392
0.162566
0.162056
0.162221
0.161739
0.161895
0.161441
0.161587
0.161164
0.1613
0.160902
0.161031
0.160657
0.160778
0.160423
0.160538
0.160206
0.160313
0.160009
0.160106
0.159834
0.159919
0.159677
0.159753
0.15954
0.159607
0.159421
0.159478
0.159317
0.159365
0.159238
0.159274
0.159189
0.15921
0.159174
0.17111
0.167922
0.172497
0.156575
0.156634
0.156625
0.156635
0.156414
0.161304
0.159157
0.163123
0.167173
0.163397
0.1742
0.174946
0.174717
0.173528
0.171413
0.168194
0.170255
0.156612
0.156641
0.156635
0.156688
0.15666
0.156778
0.156728
0.156898
0.156837
0.157041
0.156967
0.157192
0.157116
0.157327
0.157262
0.157455
0.157389
0.157644
0.157542
0.157914
0.157769
0.158227
0.15807
0.158519
0.158375
0.158803
0.15866
0.159096
0.158948
0.159405
0.159248
0.159728
0.159564
0.160066
0.159896
0.160407
0.160237
0.160726
0.160569
0.161033
0.160877
0.161424
0.161225
0.161952
0.161679
0.162541
0.162248
0.162838
0.163947
0.162932
0.163887
0.164272
0.161156
0.162825
0.156381
0.158974
0.164301
0.163851
0.164075
0.163429
0.163637
0.163026
0.163224
0.162634
0.16283
0.162239
0.162437
0.161834
0.162038
0.161432
0.161631
0.161043
0.161235
0.16067
0.160854
0.160312
0.160489
0.159974
0.160142
0.159652
0.159811
0.159347
0.159498
0.159057
0.1592
0.158783
0.158918
0.158526
0.158652
0.158286
0.158404
0.15806
0.158171
0.157849
0.157953
0.157651
0.157748
0.157466
0.157556
0.157298
0.157379
0.157147
0.15722
0.157016
0.15708
0.156901
0.156956
0.1568
0.156849
0.156716
0.156756
0.156653
0.156681
0.156614
0.15663
0.156596
0.156602
0.156594
0.156593
0.168464
0.164532
0.163655
0.167492
0.172863
0.153601
0.153549
0.153653
0.174565
0.156365
0.15347
0.153452
0.153703
0.156599
0.15371
0.15929
0.16388
0.159439
0.175308
0.175072
0.17386
0.17173
0.168742
0.153685
0.153684
0.153677
0.164768
0.170592
0.153502
0.153682
0.153658
0.153666
0.153671
0.153658
0.153729
0.153693
0.153819
0.153771
0.15393
0.153872
0.154046
0.153988
0.154137
0.154094
0.154216
0.154173
0.154353
0.154276
0.154584
0.154461
0.15486
0.15472
0.155106
0.154986
0.155337
0.155222
0.155575
0.155455
0.155825
0.155698
0.156088
0.155955
0.156362
0.156224
0.156635
0.1565
0.156881
0.156763
0.157109
0.156993
0.157424
0.157248
0.157876
0.157637
0.158376
0.158129
0.158868
0.158626
0.159092
0.161305
0.15916
0.163946
0.162933
0.163883
0.164271
0.161143
0.162817
0.158959
0.160255
0.159887
0.160066
0.159535
0.159711
0.1592
0.159369
0.15888
0.15904
0.158565
0.158724
0.158245
0.158406
0.157919
0.158084
0.157591
0.157754
0.157273
0.157431
0.156971
0.157121
0.156681
0.156824
0.156405
0.156541
0.156142
0.156272
0.155894
0.156016
0.155658
0.155774
0.155435
0.155545
0.155227
0.155329
0.155032
0.155128
0.154848
0.154938
0.154678
0.154761
0.154518
0.154597
0.154371
0.154443
0.154237
0.154302
0.154118
0.154176
0.154014
0.154064
0.153923
0.153967
0.153847
0.153883
0.153783
0.153813
0.153737
0.153757
0.153709
0.15372
0.153699
0.153702
0.1537
0.16501
0.160453
0.167784
0.173217
0.150428
0.150377
0.150474
0.150481
0.150493
0.150467
0.1503
0.150281
0.156608
0.153721
0.159499
0.164057
0.174927
0.17568
0.175432
0.174204
0.172052
0.169032
0.165263
0.160659
0.170939
0.150333
0.150496
0.150422
0.150443
0.150404
0.150408
0.150431
0.150411
0.150489
0.150456
0.150566
0.150526
0.150646
0.150608
0.150692
0.150673
0.150721
0.150704
0.150809
0.15075
0.150988
0.150889
0.151213
0.151099
0.151412
0.15132
0.151583
0.151498
0.151758
0.15167
0.151943
0.151849
0.152137
0.152039
0.152339
0.152238
0.152534
0.152439
0.152703
0.152625
0.152839
0.15277
0.153072
0.152939
0.153437
0.153242
0.153847
0.15364
0.154249
0.154053
0.154602
0.154437
0.154773
0.154728
0.159438
0.154665
0.161312
0.159168
0.163952
0.162939
0.163887
0.164277
0.161144
0.162819
0.156363
0.158958
0.150277
0.153449
0.155666
0.155369
0.155515
0.155106
0.155234
0.154857
0.154981
0.154615
0.154739
0.154384
0.1545
0.15415
0.154268
0.153912
0.154031
0.153669
0.15379
0.153421
0.153544
0.153184
0.153301
0.152955
0.153067
0.152738
0.152845
0.152532
0.152633
0.152335
0.152432
0.152149
0.152241
0.151973
0.15206
0.151806
0.151888
0.151651
0.151727
0.151505
0.151577
0.151369
0.151436
0.151242
0.151304
0.151125
0.151182
0.151017
0.15107
0.150919
0.150966
0.150832
0.150874
0.150756
0.150793
0.150691
0.150722
0.150637
0.150663
0.150594
0.150614
0.150562
0.150576
0.150545
0.150551
0.150541
0.150541
0.150549
0.150544
0.150567
0.150556
0.160876
0.155839
0.168054
0.173577
0.147037
0.146986
0.147079
0.147073
0.147089
0.147051
0.16423
0.175303
0.150283
0.146871
0.146872
0.147168
0.15058
0.147176
0.154745
0.159513
0.176057
0.175798
0.174558
0.172374
0.169333
0.165535
0.156061
0.161129
0.171266
0.146904
0.146881
0.14694
0.147093
0.146984
0.147018
0.146941
0.146958
0.146939
0.146933
0.146972
0.146953
0.147018
0.146995
0.147062
0.147042
0.147066
0.147069
0.147045
0.147056
0.147088
0.147054
0.147217
0.14714
0.147388
0.147304
0.147532
0.147468
0.147641
0.147587
0.147751
0.147695
0.147866
0.147807
0.147987
0.147926
0.148113
0.14805
0.148229
0.148172
0.148312
0.148275
0.148358
0.148334
0.148489
0.148405
0.14876
0.14862
0.149065
0.148917
0.149363
0.149215
0.149633
0.149505
0.149752
0.149725
0.149465
0.149667
0.1554
0.15002
0.149597
0.156623
0.153736
0.161325
0.159181
0.163964
0.162952
0.163899
0.164289
0.161153
0.162829
0.156372
0.158967
0.153457
0.151447
0.150771
0.156326
0.15104
0.150471
0.150591
0.150276
0.150371
0.150109
0.15019
0.149955
0.150032
0.149809
0.149887
0.149665
0.149739
0.149517
0.149593
0.149363
0.14944
0.149205
0.149285
0.149045
0.149125
0.148888
0.148964
0.148738
0.148812
0.148597
0.148666
0.148462
0.148528
0.148334
0.148397
0.148212
0.148272
0.148098
0.148154
0.147989
0.148042
0.147887
0.147937
0.147792
0.147839
0.147703
0.147747
0.14762
0.14766
0.147543
0.147581
0.147472
0.147506
0.147407
0.147439
0.14735
0.147378
0.1473
0.147324
0.147257
0.147277
0.147221
0.147238
0.147191
0.147205
0.147169
0.147179
0.147157
0.147162
0.147154
0.147154
0.147158
0.147155
0.147162
0.168324
0.173939
0.143426
0.143372
0.143464
0.143219
0.143207
0.150597
0.147187
0.16446
0.175678
0.160323
0.176434
0.150384
0.155838
0.176169
0.174914
0.17271
0.169636
0.165825
0.161428
0.156665
0.146162
0.151576
0.143485
0.143473
0.143443
0.171586
0.143273
0.14324
0.143319
0.143487
0.143356
0.143401
0.143297
0.143324
0.143284
0.143288
0.143298
0.14329
0.14332
0.143308
0.14333
0.143327
0.143302
0.143321
0.143241
0.143271
0.14324
0.143231
0.143324
0.143274
0.143447
0.143388
0.143535
0.1435
0.143586
0.143562
0.143631
0.143608
0.143678
0.143654
0.143727
0.143703
0.143776
0.143752
0.143811
0.143796
0.143808
0.143816
0.143763
0.143786
0.143786
0.143762
0.143946
0.143853
0.144143
0.144043
0.144323
0.144237
0.144458
0.144402
0.144462
0.144485
0.144221
0.144348
0.144501
0.144287
0.150642
0.144921
0.144735
0.156642
0.153755
0.161344
0.1592
0.163984
0.162971
0.163918
0.164309
0.16117
0.162847
0.156388
0.158983
0.150296
0.153473
0.143202
0.146879
0.145459
0.145764
0.145218
0.145303
0.145102
0.145155
0.145017
0.145058
0.144951
0.144984
0.144896
0.144928
0.144838
0.144868
0.144775
0.144807
0.144705
0.144742
0.144634
0.144669
0.144558
0.144597
0.144482
0.144519
0.144411
0.144446
0.144342
0.144376
0.144278
0.144309
0.144216
0.144246
0.144157
0.144186
0.1441
0.144128
0.144046
0.144073
0.143995
0.14402
0.143946
0.14397
0.143899
0.143922
0.143854
0.143876
0.143812
0.143833
0.143771
0.143791
0.143733
0.143752
0.143698
0.143715
0.143665
0.143681
0.143635
0.14365
0.143608
0.143622
0.143584
0.143596
0.143562
0.143573
0.143545
0.143553
0.143531
0.143537
0.14352
0.143526
0.143512
0.143516
0.143506
0.143508
0.168618
0.174303
0.139559
0.139494
0.139616
0.139649
0.139655
0.139609
0.16497
0.176059
0.1432
0.139214
0.13919
0.139503
0.143504
0.139479
0.160872
0.176816
0.156139
0.176546
0.145059
0.150837
0.175274
0.173045
0.169961
0.166149
0.161775
0.156861
0.14584
0.15146
0.171918
0.139273
0.139242
0.139364
0.139313
0.139426
0.139644
0.139524
0.139566
0.139466
0.139492
0.139451
0.139454
0.139456
0.139453
0.139464
0.139461
0.139456
0.139463
0.139405
0.139438
0.139315
0.13936
0.13928
0.139286
0.139336
0.139302
0.139419
0.139378
0.139456
0.139445
0.139455
0.139457
0.139444
0.13945
0.13943
0.139437
0.139414
0.139422
0.139391
0.139404
0.13935
0.139374
0.139262
0.139314
0.13913
0.139198
0.139047
0.139073
0.13911
0.139067
0.139194
0.139156
0.139252
0.139227
0.13924
0.139257
0.139111
0.139193
0.138921
0.138997
0.138988
0.138928
0.139171
0.139091
0.145181
0.139291
0.139237
0.150617
0.147199
0.156666
0.153778
0.161369
0.159225
0.16401
0.162996
0.163944
0.164335
0.161193
0.162871
0.156411
0.159006
0.150316
0.153496
0.146891
0.145734
0.140053
0.140689
0.140271
0.14024
0.140505
0.139983
0.140076
0.139912
0.139936
0.139904
0.139906
0.139924
0.139914
0.139954
0.139942
0.13998
0.139968
0.140001
0.139992
0.140015
0.140009
0.140023
0.140018
0.140028
0.140026
0.140028
0.140027
0.140028
0.140028
0.140028
0.140028
0.140027
0.140027
0.140024
0.140026
0.14002
0.140022
0.140014
0.140017
0.140006
0.14001
0.139996
0.140001
0.139984
0.13999
0.13997
0.139977
0.139953
0.139961
0.139934
0.139944
0.139913
0.139924
0.13989
0.139902
0.139865
0.139878
0.139838
0.139852
0.139808
0.139823
0.139777
0.139793
0.139744
0.139761
0.139708
0.139726
0.139671
0.13969
0.139633
0.139652
0.139592
0.139613
0.139549
0.139571
0.139526
0.169027
0.174674
0.135377
0.135291
0.135458
0.135533
0.135534
0.135503
0.134843
0.134786
0.143503
0.139454
0.16549
0.176454
0.16128
0.177208
0.156402
0.176928
0.151011
0.175638
0.13934
0.145299
0.173398
0.170311
0.166494
0.162008
0.156966
0.140063
0.151433
0.145812
0.134426
0.140213
0.134637
0.172304
0.134962
0.1349
0.13511
0.135031
0.135198
0.135502
0.135434
0.135467
0.135396
0.135412
0.135393
0.135391
0.135405
0.135398
0.135416
0.135412
0.135406
0.135414
0.135345
0.135383
0.135239
0.135293
0.135185
0.135203
0.13523
0.1352
0.135287
0.135263
0.135287
0.135293
0.135248
0.13527
0.135195
0.135223
0.135133
0.135165
0.135063
0.135099
0.134982
0.135025
0.134875
0.134933
0.134718
0.134802
0.134507
0.134614
0.134344
0.134413
0.134316
0.134316
0.134303
0.134312
0.134249
0.134284
0.134123
0.134195
0.133918
0.13403
0.133699
0.133793
0.133599
0.133635
0.133556
0.133574
0.133503
0.133531
0.139396
0.133451
0.133472
0.15064
0.147213
0.156696
0.153806
0.1614
0.159256
0.164043
0.163029
0.163978
0.164369
0.161224
0.162904
0.156441
0.159037
0.15034
0.153524
0.1432
0.146907
0.134729
0.139167
0.134378
0.134345
0.134678
0.134501
0.134695
0.134696
0.13467
0.134686
0.134712
0.134681
0.134806
0.134759
0.134915
0.13486
0.13503
0.134974
0.135136
0.135084
0.135235
0.135188
0.135326
0.135282
0.135406
0.135368
0.135482
0.135445
0.135549
0.135516
0.135611
0.135581
0.135668
0.13564
0.135718
0.135694
0.135763
0.135742
0.135802
0.135783
0.135833
0.135818
0.135858
0.135847
0.135877
0.135868
0.135888
0.135883
0.135892
0.135891
0.13589
0.135892
0.13588
0.135886
0.135863
0.135872
0.135839
0.135852
0.135808
0.135824
0.13577
0.13579
0.135725
0.135748
0.135673
0.1357
0.135613
0.135644
0.135547
0.135581
0.135473
0.135511
0.135392
0.135433
0.135304
0.135349
0.135208
0.135257
0.135103
0.135156
0.13499
0.135047
0.169498
0.175073
0.130677
0.1308
0.165934
0.176857
0.134672
0.1298
0.129698
0.130024
0.13493
0.12992
0.161622
0.177608
0.156649
0.177317
0.151192
0.176015
0.145418
0.17377
0.133449
0.139464
0.17067
0.166766
0.162204
0.157065
0.276343
0.29456
0.151569
0.146043
0.140495
0.120301
0.0713164
0.131047
0.134819
0.131058
0.172722
0.129999
0.1299
0.1302
0.130098
0.130425
0.130308
0.130551
0.130912
0.130999
0.131013
0.131045
0.131026
0.131012
0.131008
0.131038
0.131021
0.131076
0.131056
0.131109
0.131095
0.131115
0.131117
0.131064
0.131097
0.130961
0.131013
0.130909
0.130923
0.130954
0.130925
0.131004
0.130985
0.130989
0.131004
0.130931
0.130964
0.130853
0.130894
0.130761
0.130808
0.130655
0.130709
0.130533
0.130597
0.130379
0.13046
0.130167
0.130279
0.1299
0.130036
0.129674
0.129772
0.129572
0.12961
0.129484
0.129531
0.129345
0.129424
0.129137
0.129249
0.128871
0.129011
0.128593
0.128728
0.128367
0.128474
0.128162
0.128267
0.12794
0.128053
0.127718
0.127827
0.133469
0.127564
0.12763
0.143503
0.139429
0.150667
0.14723
0.156731
0.153838
0.161438
0.159292
0.164083
0.163068
0.164018
0.16441
0.161263
0.162944
0.156477
0.159074
0.150369
0.153558
0.143203
0.146926
0.139144
0.128833
0.128779
0.129049
0.128938
0.129245
0.129142
0.129396
0.12933
0.129559
0.12947
0.129748
0.129655
0.129943
0.129848
0.130136
0.130042
0.130315
0.130228
0.130484
0.130401
0.130639
0.130562
0.130781
0.130712
0.130913
0.130847
0.131032
0.130973
0.131141
0.131087
0.131239
0.131191
0.131326
0.131284
0.131402
0.131366
0.131467
0.131436
0.13152
0.131495
0.131561
0.131542
0.131591
0.131577
0.131608
0.131601
0.131614
0.131612
0.131607
0.131612
0.131588
0.131599
0.131557
0.131574
0.131514
0.131537
0.131459
0.131488
0.131392
0.131427
0.131312
0.131353
0.13122
0.131268
0.131116
0.13117
0.130999
0.131059
0.13087
0.130936
0.130728
0.1308
0.130573
0.130652
0.130404
0.13049
0.130221
0.130314
0.130124
0.169943
0.17549
0.124297
0.124141
0.0545315
0.134868
0.129812
0.166322
0.177269
0.161929
0.178012
0.156891
0.177713
0.151372
0.176409
0.14554
0.174149
0.139545
0.170984
0.127569
0.133536
0.167036
0.162401
0.157263
0.15186
0.146368
0.140729
0.134743
0.128786
0.106487
0.127455
0.2037
0.173162
0.124601
0.124449
0.124904
0.124752
0.125228
0.12506
0.125574
0.125402
0.125898
0.125749
0.126085
0.126016
0.126144
0.126128
0.126171
0.126155
0.126223
0.126191
0.1263
0.126257
0.126388
0.126344
0.126463
0.126428
0.126505
0.126491
0.126481
0.126504
0.1264
0.126442
0.126375
0.126372
0.126439
0.126397
0.126503
0.126479
0.126495
0.126508
0.126438
0.126471
0.126356
0.1264
0.126254
0.126307
0.126134
0.126196
0.125992
0.126066
0.125811
0.125908
0.125564
0.125697
0.12526
0.125416
0.124997
0.125113
0.124844
0.124906
0.124705
0.124779
0.12451
0.124618
0.124245
0.124385
0.123932
0.124094
0.1236
0.123766
0.123289
0.123441
0.12298
0.123136
0.122655
0.122822
0.122315
0.122486
0.12205
0.122166
0.115363
0.113981
0.1221
0.101045
0.118509
0.0955866
0.143503
0.139403
0.150697
0.147248
0.156771
0.153875
0.161482
0.159334
0.16413
0.163113
0.164067
0.164458
0.161308
0.162991
0.156519
0.159118
0.150401
0.153596
0.143206
0.146947
0.134613
0.139122
0.123981
0.129594
0.123419
0.123372
0.123691
0.12355
0.123953
0.123817
0.124207
0.124087
0.124466
0.124335
0.124736
0.124602
0.124999
0.124871
0.125254
0.12513
0.125492
0.125376
0.125714
0.125605
0.125917
0.125818
0.126105
0.126014
0.126275
0.126192
0.126429
0.126354
0.126566
0.1265
0.126688
0.126629
0.126793
0.126742
0.126882
0.126839
0.126953
0.12692
0.127009
0.126983
0.127046
0.12703
0.127068
0.127059
0.127072
0.127072
0.127059
0.127067
0.127029
0.127046
0.126981
0.127007
0.126917
0.126951
0.126836
0.126878
0.126737
0.126788
0.126621
0.126681
0.126487
0.126556
0.126337
0.126414
0.126168
0.126255
0.125982
0.126077
0.125778
0.125882
0.125556
0.125669
0.125315
0.125438
0.125055
0.125187
0.124775
0.124917
0.124475
0.124628
0.124154
0.124317
0.123564
0.170357
0.175915
0.166674
0.177684
0.123816
0.11771
0.117481
0.117833
0.123986
0.1176
0.162219
0.17842
0.157129
0.178121
0.151557
0.176806
0.145671
0.174505
0.139634
0.17131
0.13363
0.167317
0.162673
0.275408
0.157565
0.100402
0.152217
0.146685
0.134258
0.127868
0.12246
0.126573
0.121235
0.140839
0.120307
0.115897
0.114972
0.173587
0.118152
0.117935
0.11858
0.118366
0.119
0.118788
0.119439
0.119214
0.119902
0.11967
0.120313
0.120124
0.120582
0.120469
0.120721
0.120662
0.120821
0.120769
0.120945
0.120877
0.121099
0.121019
0.121256
0.121179
0.121394
0.121328
0.121493
0.12145
0.121513
0.121515
0.121476
0.121495
0.121492
0.12147
0.121601
0.121537
0.121699
0.12166
0.121721
0.12172
0.121687
0.12171
0.121623
0.121658
0.121534
0.121581
0.121421
0.12148
0.121282
0.121355
0.121098
0.121197
0.120837
0.120977
0.120517
0.120681
0.120233
0.12036
0.120058
0.120133
0.119897
0.119983
0.119671
0.119795
0.119372
0.119528
0.119026
0.119204
0.11866
0.118844
0.118294
0.118476
0.117926
0.11811
0.117551
0.117739
0.117192
0.117366
0.116942
0.117043
0.116585
0.116916
0.0962211
0.134804
0.1297
0.143505
0.139376
0.15073
0.147269
0.156816
0.153916
0.161532
0.159382
0.164185
0.163166
0.164122
0.164514
0.161361
0.163045
0.156566
0.159168
0.150437
0.153639
0.143211
0.146971
0.134554
0.1391
0.129487
0.11817
0.117129
0.118109
0.118201
0.118119
0.118066
0.118415
0.118258
0.11874
0.118588
0.119069
0.118912
0.119395
0.119232
0.119721
0.11956
0.120034
0.11988
0.120334
0.120186
0.12061
0.120474
0.120867
0.120741
0.1211
0.120987
0.121312
0.121209
0.121502
0.12141
0.121669
0.121588
0.121815
0.121745
0.121939
0.121879
0.122042
0.121993
0.122122
0.122085
0.122181
0.122154
0.122218
0.122202
0.122233
0.122228
0.122225
0.122232
0.122196
0.122213
0.122145
0.122173
0.122072
0.122111
0.121976
0.122027
0.121859
0.121921
0.12172
0.121792
0.121559
0.121642
0.121376
0.12147
0.12117
0.121276
0.120942
0.121059
0.120691
0.12082
0.120418
0.120558
0.120122
0.120273
0.119802
0.119965
0.119458
0.119633
0.11909
0.119277
0.118697
0.118897
0.118278
0.118491
0.118059
0.17074
0.176331
0.127683
0.110748
0.110448
0.123812
0.117361
0.16701
0.178096
0.162509
0.178834
0.157369
0.178534
0.151747
0.177196
0.145805
0.174878
0.114279
0.119595
0.139703
0.171658
0.133526
0.167641
0.127441
0.163002
0.12563
0.12325
0.157915
0.131707
0.29291
0.152547
0.0040415
0.146879
0.140846
0.113737
0.108989
0.108445
0.173994
0.111328
0.111042
0.111888
0.11161
0.112442
0.112164
0.113011
0.112721
0.113595
0.113304
0.114109
0.113873
0.11447
0.114308
0.114707
0.114599
0.114901
0.114802
0.11512
0.115003
0.115365
0.115239
0.115607
0.115488
0.115824
0.11572
0.115996
0.115918
0.116083
0.116052
0.116105
0.116097
0.116182
0.116133
0.116357
0.116261
0.116511
0.116443
0.116582
0.116557
0.116591
0.116592
0.116565
0.116582
0.11651
0.116541
0.116427
0.116473
0.116311
0.116374
0.116146
0.116237
0.115892
0.116031
0.115575
0.115739
0.115297
0.115421
0.115126
0.115198
0.114966
0.115052
0.114734
0.114863
0.114423
0.114586
0.114065
0.114249
0.113679
0.113874
0.113283
0.113482
0.112874
0.11308
0.112453
0.112665
0.112037
0.112242
0.111675
0.111842
0.11109
0.111458
0.110223
0.134737
0.129585
0.143507
0.139349
0.150767
0.147292
0.156866
0.153961
0.161589
0.159436
0.164246
0.163225
0.164186
0.164577
0.16142
0.163107
0.156618
0.159224
0.150477
0.153687
0.143217
0.146997
0.134492
0.139077
0.123647
0.129376
0.11014
0.117245
0.110493
0.109655
0.112144
0.111429
0.112546
0.112383
0.112726
0.112591
0.113115
0.112922
0.113518
0.11332
0.113894
0.1137
0.114269
0.114081
0.114633
0.114453
0.114976
0.114806
0.115298
0.115141
0.115594
0.115449
0.115865
0.115733
0.116107
0.115989
0.116321
0.116217
0.116509
0.116418
0.116669
0.116592
0.116802
0.116739
0.116908
0.116858
0.116987
0.116951
0.11704
0.117017
0.117065
0.117056
0.117064
0.117068
0.117036
0.117053
0.116981
0.117012
0.1169
0.116944
0.116792
0.116849
0.116657
0.116728
0.116496
0.11658
0.116309
0.116406
0.116095
0.116205
0.115854
0.115978
0.115587
0.115724
0.115293
0.115444
0.114973
0.115136
0.114625
0.114802
0.114249
0.11444
0.113846
0.114051
0.113415
0.113634
0.112955
0.113189
0.112466
0.112715
0.111947
0.112211
0.111397
0.111676
0.110816
0.111111
0.110203
0.110513
0.171113
0.17674
0.167341
0.178509
0.109824
0.102342
0.101951
0.102351
0.109884
0.101957
0.162795
0.179255
0.157608
0.178948
0.107998
0.113312
0.151932
0.177599
0.119085
0.145908
0.175266
0.139723
0.172023
0.133469
0.168003
0.124986
0.128417
0.163356
0.130977
0.122927
0.158252
0.136716
0.155321
0.327355
0.152791
0.146975
0.140934
0.10762
0.102712
0.102309
0.17439
0.103099
0.102725
0.103822
0.103464
0.104524
0.104174
0.105216
0.104871
0.105919
0.105565
0.106633
0.106278
0.107257
0.106966
0.107729
0.10751
0.108077
0.107914
0.108377
0.108226
0.108701
0.108533
0.109049
0.108873
0.109389
0.109222
0.1097
0.109549
0.109959
0.109838
0.110129
0.110056
0.110232
0.110183
0.110386
0.11029
0.110638
0.110504
0.110863
0.110761
0.111
0.110943
0.111071
0.111042
0.111103
0.111091
0.111101
0.111106
0.111067
0.111088
0.110995
0.111036
0.110867
0.11094
0.110643
0.110769
0.110349
0.110502
0.110091
0.110206
0.109951
0.11001
0.109817
0.10989
0.109601
0.109722
0.109301
0.109459
0.108948
0.10913
0.10856
0.108757
0.108152
0.108358
0.107719
0.107939
0.107264
0.107495
0.106791
0.107027
0.10633
0.106558
0.105669
0.106037
0.104234
0.105012
0.102889
0.103517
0.101702
0.102322
0.123633
0.117114
0.134668
0.129466
0.14351
0.139321
0.150807
0.147317
0.156922
0.15401
0.161652
0.159496
0.164316
0.163292
0.164256
0.164648
0.161486
0.163176
0.156677
0.159286
0.150519
0.153739
0.143225
0.147026
0.134428
0.139054
0.123472
0.129261
0.117002
0.103715
0.103171
0.10503
0.104337
0.106293
0.105738
0.106915
0.106642
0.107267
0.107082
0.107732
0.107493
0.108183
0.107963
0.108601
0.108394
0.109005
0.108804
0.109387
0.109198
0.109742
0.109567
0.110067
0.109908
0.110359
0.110217
0.110621
0.110494
0.110851
0.11074
0.111047
0.110953
0.111211
0.111133
0.111344
0.111282
0.111444
0.111398
0.111513
0.111482
0.11155
0.111535
0.111555
0.111556
0.111529
0.111546
0.111472
0.111504
0.111384
0.111432
0.111264
0.111328
0.111115
0.111193
0.110934
0.111028
0.110723
0.110832
0.110481
0.110606
0.110209
0.110349
0.109907
0.110062
0.109574
0.109744
0.10921
0.109396
0.108816
0.109017
0.108391
0.108608
0.107935
0.108167
0.107447
0.107695
0.106927
0.107191
0.106375
0.106655
0.105791
0.106087
0.105173
0.105486
0.10452
0.104851
0.103833
0.104181
0.10311
0.103476
0.102735
0.171475
0.177147
0.0939093
0.0934437
0.0968631
0.0887807
0.109557
0.101554
0.16767
0.178932
0.101965
0.107316
0.163081
0.179682
0.112987
0.157846
0.179369
0.118716
0.152098
0.178015
0.146005
0.175666
0.139783
0.172413
0.124547
0.133997
0.168381
0.130514
0.128387
0.163715
0.136449
0.122553
0.158549
0.00391438
0.152953
0.147034
0.142027
0.105855
0.0894133
0.17478
0.0948113
0.0943649
0.0956771
0.095249
0.0965209
0.0961008
0.097353
0.0969374
0.0981896
0.0977688
0.0990354
0.0986158
0.0997773
0.0994236
0.100374
0.100093
0.100828
0.100609
0.101239
0.101035
0.101677
0.101456
0.102137
0.101907
0.102582
0.102363
0.102994
0.102793
0.103352
0.103182
0.103619
0.103497
0.10381
0.103721
0.104057
0.103918
0.104398
0.104223
0.104707
0.104562
0.104922
0.104825
0.105069
0.105002
0.105173
0.105125
0.10524
0.105211
0.105271
0.10526
0.105261
0.105272
0.105186
0.105233
0.10501
0.105112
0.104755
0.104889
0.104538
0.10463
0.104447
0.104482
0.104357
0.104409
0.104182
0.104282
0.103911
0.104056
0.103583
0.103753
0.103212
0.103401
0.102811
0.103015
0.102377
0.102598
0.101907
0.102146
0.101402
0.101658
0.100874
0.101146
0.100201
0.100557
0.0991047
0.0996999
0.097967
0.0985131
0.0974592
0.123449
0.116861
0.134597
0.129342
0.143513
0.139292
0.15085
0.147344
0.156983
0.154064
0.161723
0.159562
0.164393
0.163366
0.164335
0.164727
0.161559
0.163252
0.15674
0.159355
0.150566
0.153796
0.143233
0.147057
0.134362
0.139029
0.123292
0.129143
0.1095
0.116753
0.0929679
0.10155
0.0843123
0.083676
0.0962354
0.0962502
0.101692
0.0966457
0.0963822
0.0974123
0.0970055
0.098371
0.0978735
0.0995143
0.098932
0.100509
0.100061
0.101231
0.100886
0.101723
0.101478
0.102203
0.101949
0.102683
0.10245
0.103117
0.102903
0.103527
0.103324
0.103905
0.10372
0.104249
0.104081
0.104555
0.104406
0.104825
0.104695
0.105059
0.104947
0.105256
0.105162
0.105415
0.10534
0.105537
0.10548
0.105623
0.105584
0.105673
0.105653
0.105687
0.105684
0.105665
0.10568
0.105608
0.105641
0.105515
0.105566
0.105387
0.105456