/*--------------------------------*- C++ -*----------------------------------*\
| =========                 |                                                 |
| \\      /  F ield         | OpenFOAM: The Open Source CFD Toolbox           |
|  \\    /   O peration     | Version:  2212                                  |
|   \\  /    A nd           | Website:  www.openfoam.com                      |
|    \\/     M anipulation  |                                                 |
\*---------------------------------------------------------------------------*/
FoamFile
{
    version     2.0;
    format      ascii;
    arch        "LSB;label=32;scalar=64";
    class       surfaceScalarField;
    location    "0.098";
    object      phi;
}
// * * * * * * * * * * * * * * * * * * * * * * * * * * * * * * * * * * * * * //

dimensions      [1 0 -1 0 0 0 0];

oriented        oriented;

internalField   nonuniform List<scalar> 
62761
(
2.79188e-05
-0.000231252
1.66539e-05
0.00018668
1.92506e-05
-0.000107424
0.000107204
-1.90309e-05
-1.91369e-05
-0.000110281
0.000109991
1.94276e-05
-0.000108833
0.000108947
2.01595e-05
-0.00010831
-1.92734e-05
-2.08016e-05
-0.00011086
2.13805e-05
-0.000109475
2.09853e-05
-2.01703e-05
-0.000109125
-2.14185e-05
2.17305e-05
-0.000111172
-0.000109908
-0.00029053
-5.71404e-05
6.65951e-05
0.000281075
-6.90505e-05
-0.000114808
9.35282e-05
9.03302e-05
6.48557e-05
-7.8426e-05
1.35704e-05
0.000252596
-2.50353e-05
-0.000310983
8.34225e-05
0.000174329
-1.49942e-05
-0.000197938
3.86028e-05
0.000224013
-0.00017084
-0.000102847
4.96744e-05
0.000152111
-8.8851e-05
-0.000184972
0.000121712
-0.000208797
0.000209194
-5.2096e-05
5.16985e-05
0.000121873
5.55539e-05
-0.000145251
-3.21766e-05
0.000232674
-6.2257e-06
2.32037e-06
-0.000228769
0.000193314
-0.00014267
1.25325e-05
-6.31763e-05
-8.41921e-06
0.00020897
-7.23659e-06
-1.64949e-06
-0.000301992
0.00030351
1.31726e-07
-0.000221127
0.000293251
8.2738e-05
-0.000154862
0.000102947
-3.43548e-07
-0.000126769
2.41653e-05
-0.000122364
-8.48806e-05
6.45746e-05
-0.000284922
-3.26688e-06
0.000286539
0.000285703
9.9152e-05
-0.000322247
-6.26088e-05
0.00010897
-8.00927e-05
-9.79279e-05
-0.000103269
0.000124653
8.38627e-05
-0.000105247
0.000274472
3.41643e-05
-2.18182e-05
-0.000286818
3.37539e-06
-5.32053e-05
-3.53889e-06
5.33688e-05
-5.37345e-07
-6.28193e-05
6.67321e-05
-6.1596e-05
-0.000174571
0.00018524
5.09263e-05
6.2493e-06
0.000178238
-0.000165396
-1.9092e-05
0.000189347
-0.000181152
0.000160997
-0.000169193
-0.000128216
-4.92433e-05
6.70925e-05
0.000110367
0.000322987
0.000102035
-0.000235674
0.000243614
-0.000222347
0.000120793
-0.000142061
3.38175e-05
-9.38512e-05
8.7117e-05
-2.70832e-05
0.000132676
-0.000129126
-1.37112e-05
1.01611e-05
-0.000104763
-1.69015e-05
0.000104144
1.75208e-05
5.78713e-05
-7.99491e-05
0.00023518
-0.000213102
-0.00015786
0.000150571
0.000138557
-0.000131268
0.000123118
-0.00015101
-0.000125041
0.000152933
-0.000100424
0.000102109
-9.80316e-05
9.63461e-05
0.000128587
-0.000163329
-0.000197603
0.000106554
-5.89855e-05
0.000150035
-0.000145508
5.99005e-05
-4.26079e-05
-0.000296114
7.69935e-05
-4.32967e-05
0.000262417
-5.90734e-05
6.55871e-05
-0.000166333
0.00015982
-0.000370716
-7.27535e-05
0.000141394
0.000302075
0.000100474
9.28223e-05
-0.000124756
-6.85402e-05
-0.000177056
0.000197999
-9.20841e-06
-1.17339e-05
0.000107598
-0.000267609
-0.000140117
0.000300128
-8.33405e-05
-9.97882e-05
9.68967e-05
8.62321e-05
0.000100043
-9.40553e-05
0.000106935
-0.000112922
7.02669e-05
-0.000109151
0.000155968
-0.000117084
-0.000136316
-1.89853e-05
1.89485e-05
0.000136353
0.000135947
-0.000131086
1.19191e-05
-1.67796e-05
-2.74462e-05
-0.000132607
-1.68064e-05
0.00017686
-0.000149143
0.000121363
0.000128981
-0.000101201
0.000154549
-8.91968e-05
-0.000170007
0.000104655
1.6308e-05
0.000116789
-9.05073e-05
-4.25897e-05
-6.67123e-05
0.000157803
-0.000160249
6.91582e-05
-2.10345e-05
0.000306884
1.09951e-05
-0.000296845
-0.000146946
0.000172539
5.01458e-05
-7.57388e-05
-0.000130568
-9.423e-06
3.6755e-06
-0.000123202
-1.8223e-06
-5.54342e-06
7.40859e-06
-1.67403e-05
-0.00011387
-0.000109416
-6.52204e-05
0.000119862
5.47746e-05
-0.000109862
-1.49443e-05
1.74506e-05
0.000107357
-0.000107325
-7.49684e-06
4.96016e-06
-0.000104902
-4.3953e-06
1.9724e-06
-0.000102449
-3.13272e-06
6.79573e-07
-0.000100161
-2.57303e-06
2.85256e-07
-9.81273e-05
-2.21661e-06
1.83206e-07
-9.66723e-05
-1.98095e-06
5.26051e-07
-9.54593e-05
-1.99585e-06
7.82956e-07
-9.46171e-05
-1.9424e-06
1.10035e-06
-9.40666e-05
-2.1215e-06
1.57106e-06
-9.38239e-05
-2.25025e-06
2.00763e-06
-9.34768e-05
-2.4321e-06
2.08514e-06
-2.36111e-06
-9.35658e-05
2.45012e-06
9.44335e-05
-9.44818e-05
-2.31269e-06
9.43497e-05
-2.34828e-06
9.45528e-05
-2.45328e-06
9.50296e-05
-2.59814e-06
9.58822e-05
-2.79499e-06
9.70598e-05
-3.17329e-06
9.86035e-05
-3.52448e-06
0.000100491
-4.10385e-06
0.00010279
-4.87226e-06
0.000105727
-6.06918e-06
0.000108752
-7.42001e-06
0.000111756
-1.05005e-05
0.000111642
-1.48297e-05
0.00011471
-9.58109e-06
6.51313e-06
0.000126262
-4.14362e-06
0.000132913
-8.47257e-06
0.000137744
-1.42533e-05
0.000137141
-1.83824e-05
0.000143181
-1.20888e-05
6.04928e-06
1.15545e-05
0.000155674
-2.48254e-05
-0.000142403
0.000158025
-3.28848e-06
1.97336e-06
0.000164477
-1.07759e-05
0.000165674
-5.67522e-06
-1.71398e-06
0.000171846
-5.6545e-06
0.000172044
-8.08391e-06
-3.25843e-06
0.000178347
-3.24146e-06
0.000177756
-8.96947e-06
-3.38971e-06
0.000183832
-2.09566e-06
0.000182887
-8.52083e-06
-3.14296e-06
0.000188488
-1.51212e-06
0.000187476
-7.7313e-06
-2.77519e-06
0.000192422
-1.15914e-06
0.000191433
-6.73214e-06
-2.53953e-06
0.000195793
-8.31341e-07
0.000194788
-5.89424e-06
-2.13708e-06
0.000198553
-6.22024e-07
0.000197641
-4.99007e-06
-1.72605e-06
0.000200743
-4.6417e-07
0.000200018
-4.10247e-06
-1.50201e-06
0.00020259
-3.45044e-07
0.000202048
-3.53219e-06
-1.25531e-06
0.000204158
-3.12172e-07
0.000203727
-2.93407e-06
-1.03485e-06
0.000205426
-2.33466e-07
0.000205135
-2.44344e-06
-9.58374e-07
0.000206547
-1.62916e-07
0.000206224
-2.04734e-06
-7.61765e-07
0.000207485
-1.76224e-07
0.00020724
-1.77816e-06
-5.86702e-07
0.000208251
-1.79352e-07
0.00020813
-1.47658e-06
-5.13903e-07
0.000208945
-1.81227e-07
0.000208907
-1.29088e-06
-4.77204e-07
0.000209594
-1.7224e-07
0.00020955
-1.12056e-06
-4.35169e-07
0.000210203
-1.73621e-07
0.00021015
-1.03578e-06
-3.83472e-07
0.000210761
-1.75311e-07
0.000210754
-9.88495e-07
-3.66546e-07
0.000211306
-1.79745e-07
0.000211302
-9.15168e-07
-3.3057e-07
0.000211827
-1.90951e-07
0.000211857
-8.86592e-07
-3.32214e-07
0.000212357
-1.99026e-07
0.000212378
-8.54403e-07
-2.98032e-07
0.000212926
-2.71986e-07
0.000212908
-8.29412e-07
-2.50021e-07
0.000213493
-3.18644e-07
0.000213511
-8.55094e-07
-2.32224e-07
0.000214064
-3.40587e-07
0.000214114
-8.36897e-07
-2.39866e-07
0.000214712
-4.10984e-07
0.000214755
-8.83121e-07
-2.13427e-07
0.000215392
-4.69362e-07
0.000215477
-9.38053e-07
-2.23453e-07
0.000216151
-5.38142e-07
0.000216226
-9.75999e-07
-2.14016e-07
0.000217001
-6.40043e-07
0.000217106
-1.09774e-06
-1.96875e-07
0.000217956
-7.63066e-07
0.000218043
-1.13827e-06
-1.66319e-07
0.000219011
-8.93515e-07
0.000219122
-1.25095e-06
-1.31019e-07
0.00022022
-1.08518e-06
0.000220372
-1.38735e-06
9.32072e-08
-1.51941e-06
0.00022179
-1.3058e-06
0.000221611
-0.000220328
0.000221715
-2.70087e-06
-0.000219117
-2.30272e-06
-0.000218051
-1.96499e-06
-0.000217113
-1.70621e-06
-0.000216262
-1.495e-06
-0.000215496
-1.30659e-06
-0.000214791
-1.17787e-06
-0.000214156
-1.04822e-06
-0.000213535
-9.634e-07
-0.000212987
-8.68476e-07
-0.000212472
-7.87945e-07
-0.000211908
-7.64596e-07
-0.000211383
-7.1643e-07
-0.000210832
-7.31744e-07
-0.000210257
-7.51366e-07
-0.000209681
-7.49789e-07
-0.000209044
-8.09806e-07
-0.000208306
-9.19406e-07
-0.000207473
-1.01262e-06
-0.00020648
-1.16917e-06
-0.0002053
-1.34375e-06
-0.000203953
-1.58011e-06
-0.000202396
-1.86925e-06
-0.000200481
-2.25996e-06
-0.000198109
-2.83557e-06
-0.000195289
-3.44255e-06
-0.000191753
-4.36674e-06
-0.000187619
-5.29325e-06
-0.000182717
-6.41396e-06
-0.000176963
-7.84903e-06
-0.000170442
-9.76148e-06
-0.000163333
-1.2763e-05
-0.000158224
-1.58851e-05
-0.000165804
-1.72445e-05
-0.000142529
-4.32575e-06
-0.000132581
-6.2716e-06
-0.000127671
-1.04539e-05
-0.00013348
-1.09303e-05
-0.000115811
-2.18442e-07
-0.00011011
-7.39706e-07
-0.00010632
-1.81764e-06
-0.000103148
-2.49187e-06
-0.000100542
-2.32094e-06
-9.85303e-05
-1.8284e-06
-9.68691e-05
-1.13498e-06
-9.55414e-05
-5.44651e-07
2.56376e-06
-9.46744e-05
-2.3711e-06
-9.41659e-05
3.16397e-06
-9.47414e-05
3.00522e-07
-9.42445e-05
1.07425e-06
-9.36407e-05
1.40388e-06
-9.32487e-05
1.69325e-06
-9.32884e-05
2.48983e-06
-2.76296e-06
2.88646e-06
-9.42894e-05
-2.28362e-06
-9.51537e-05
9.54768e-05
-9.57657e-05
-1.99471e-06
9.52135e-05
-2.1077e-06
9.51407e-05
-2.23987e-06
9.52109e-05
-2.41832e-06
9.55441e-05
-2.78646e-06
9.61391e-05
-3.19302e-06
9.70872e-05
-3.74293e-06
9.83556e-05
-4.44163e-06
0.000100092
-5.2608e-06
0.000102142
-6.15403e-06
0.000104612
-7.34189e-06
0.000107356
-8.8126e-06
0.000110728
-1.07915e-05
0.000113577
-1.33498e-05
0.000114839
-1.60916e-05
0.000120094
-1.4835e-05
0.000127448
-1.14975e-05
0.00013377
-1.47948e-05
0.000138033
-1.85152e-05
0.000140941
-2.12903e-05
0.000146501
-1.7648e-05
0.000156078
-1.28654e-05
0.000163686
-1.32825e-05
0.000169692
-1.40895e-05
0.000174902
-1.41794e-05
0.000179904
-1.35223e-05
0.000184413
-1.22398e-05
0.00018847
-1.07891e-05
0.000192184
-9.60794e-06
0.000195401
-8.20675e-06
0.000198226
-6.92728e-06
0.000200511
-5.81764e-06
0.000202535
-4.95808e-06
0.000204172
-4.08052e-06
0.000205613
-3.48795e-06
0.000206746
-2.91145e-06
0.000207784
-2.5149e-06
0.00020868
-2.18724e-06
0.000209473
-1.91428e-06
0.000210149
-1.71232e-06
0.000210778
-1.61822e-06
0.000211357
-1.49446e-06
0.000211922
-1.45245e-06
0.000212484
-1.41814e-06
0.000213069
-1.41592e-06
0.000213669
-1.4571e-06
0.000214301
-1.47011e-06
0.000214984
-1.56895e-06
0.000215701
-1.6578e-06
0.000216523
-1.80098e-06
0.000217362
-1.94118e-06
0.000218361
-2.14198e-06
0.000219505
-2.40043e-06
0.000220759
-2.64817e-06
0.000222224
-2.9926e-06
1.75794e-06
-3.42507e-06
0.000223881
9.68626e-08
0.000223442
-1.54457e-06
0.000223243
-3.15908e-06
0.00022332
-0.000222158
0.000223742
-4.75313e-06
-0.00022072
-4.14785e-06
-0.000219502
-3.52701e-06
-0.000218405
-3.06783e-06
-0.000217405
-2.7109e-06
-0.000216543
-2.36117e-06
-0.000215734
-2.11891e-06
-0.000215052
-1.86282e-06
-0.000214368
-1.73452e-06
-0.000213758
-1.57567e-06
-0.000213171
-1.45697e-06
-0.000212635
-1.3254e-06
-0.000212078
-1.32277e-06
-0.000211496
-1.3002e-06
-0.000210911
-1.31723e-06
-0.000210339
-1.32356e-06
-0.000209698
-1.39145e-06
-0.000208945
-1.5638e-06
-0.000208111
-1.75315e-06
-0.000207152
-1.97211e-06
-0.000206042
-2.27943e-06
-0.000204726
-2.65977e-06
-0.0002032
-3.10623e-06
-0.00020134
-3.72914e-06
-0.000199071
-4.52954e-06
-0.000196339
-5.56677e-06
-0.000193132
-6.64977e-06
-0.000189398
-8.1003e-06
-0.000185016
-9.67494e-06
-0.000179891
-1.15385e-05
-0.000174293
-1.34467e-05
-0.000168377
-1.56771e-05
-0.000163241
-1.78985e-05
-0.000159201
-1.99251e-05
-0.00015645
-1.99952e-05
-0.000145753
-1.50221e-05
-0.000137126
-1.48978e-05
-0.000132192
-1.53868e-05
-0.000129143
-1.39796e-05
-0.00012025
-9.1105e-06
-0.00011385
-7.13918e-06
-0.000109189
-6.47853e-06
-0.000105563
-6.11813e-06
-0.000102695
-5.18808e-06
-9.98679e-05
-4.65565e-06
-9.80051e-05
-2.99763e-06
-9.67557e-05
-1.79389e-06
-9.58177e-05
-6.37386e-07
-9.47847e-05
4.13458e-08
-9.26966e-05
2.57228e-06
-9.40334e-05
6.52696e-07
-9.35715e-05
1.23137e-06
-9.31234e-05
2.04181e-06
2.20123e-06
-9.60384e-05
-1.92854e-06
2.47579e-06
-9.54282e-05
3.66191e-06
-9.3472e-05
2.64693e-06
-9.44605e-05
-1.67706e-06
2.16704e-06
-9.65283e-05
9.68078e-05
-9.71436e-05
-1.3412e-06
9.64294e-05
-1.55013e-06
9.6184e-05
-1.74922e-06
9.60693e-05
-1.99303e-06
9.61511e-05
-2.32152e-06
9.64845e-05
-2.75163e-06
9.69999e-05
-3.30182e-06
9.78497e-05
-4.04269e-06
9.90361e-05
-4.92919e-06
0.000100532
-5.93707e-06
0.000102434
-7.16336e-06
0.000104783
-8.5028e-06
0.000107498
-1.00563e-05
0.000110577
-1.18914e-05
0.000113808
-1.40226e-05
0.000116868
-1.64089e-05
0.000119795
-1.90192e-05
0.000123557
-1.85958e-05
0.000129773
-1.77138e-05
0.000135075
-2.00959e-05
0.000139122
-2.25626e-05
0.000142188
-2.43559e-05
0.000147156
-2.26156e-05
0.000153936
-1.96446e-05
0.000160189
-1.95356e-05
0.0001656
-1.94993e-05
0.000170511
-1.90902e-05
0.000175139
-1.81501e-05
0.00017966
-1.67608e-05
0.000184036
-1.51641e-05
0.00018795
-1.3522e-05
0.00019164
-1.18962e-05
0.000194864
-1.01511e-05
0.000197787
-8.74114e-06
0.000200263
-7.43385e-06
0.000202488
-6.30552e-06
0.000204304
-5.30387e-06
0.000205864
-4.47207e-06
0.00020711
-3.76056e-06
0.000208222
-3.30008e-06
0.00020918
-2.87207e-06
0.000210004
-2.5376e-06
0.000210725
-2.34003e-06
0.000211412
-2.18194e-06
0.000212039
-2.08026e-06
0.000212674
-2.05474e-06
0.000213278
-2.02148e-06
0.000213897
-2.07795e-06
0.000214585
-2.15987e-06
0.000215293
-2.27934e-06
0.000216066
-2.43385e-06
0.000216898
-2.63654e-06
0.000217845
-2.89242e-06
0.000218878
-3.18071e-06
0.000220029
-3.55713e-06
0.000221362
-3.98819e-06
0.000222892
-4.53153e-06
0.000224596
-5.13898e-06
3.91806e-06
-5.92767e-06
0.000226593
2.00217e-06
0.000225785
1.50632e-07
0.000225281
-1.68546e-06
0.000225068
-3.61111e-06
0.000225233
-5.47523e-06
0.000225594
-0.000224409
0.000226319
-7.3983e-06
-0.000222785
-6.38685e-06
-0.000221369
-5.57269e-06
-0.000220039
-4.86463e-06
-0.000218909
-4.20429e-06
-0.000217905
-3.72002e-06
-0.000216967
-3.30327e-06
-0.000216174
-2.91512e-06
-0.000215388
-2.65191e-06
-0.000214698
-2.42743e-06
-0.000214078
-2.19743e-06
-0.000213452
-2.08525e-06
-0.000212842
-1.93709e-06
-0.000212256
-1.90984e-06
-0.000211624
-1.9334e-06
-0.000211007
-1.93466e-06
-0.000210303
-2.029e-06
-0.000209517
-2.17757e-06
-0.000208632
-2.44951e-06
-0.000207687
-2.6983e-06
-0.000206498
-3.1613e-06
-0.000205118
-3.66016e-06
-0.000203509
-4.26852e-06
-0.000201552
-5.06311e-06
-0.000199185
-6.09686e-06
-0.000196388
-7.32574e-06
-0.000193144
-8.81067e-06
-0.000189493
-1.03015e-05
-0.000185289
-1.23033e-05
-0.000180669
-1.4295e-05
-0.000175783
-1.64241e-05
-0.0001707
-1.85298e-05
-0.000165784
-2.05921e-05
-0.000161195
-2.24873e-05
-0.000157287
-2.38327e-05
-0.000153044
-2.42378e-05
-0.00014641
-2.16562e-05
-0.000140071
-2.1236e-05
-0.000135021
-2.04361e-05
-0.000130266
-1.8735e-05
-0.000123918
-1.54574e-05
-0.000117993
-1.30643e-05
-0.000112989
-1.14824e-05
-0.000108986
-1.01201e-05
-0.000105174
-8.99979e-06
-0.000102752
-7.0782e-06
-0.000100621
-5.12817e-06
-9.89612e-05
-3.45342e-06
-9.72688e-05
-2.32971e-06
-9.5913e-05
-1.31427e-06
-9.49666e-05
-2.93672e-07
-9.31059e-05
2.55485e-06
-9.43101e-05
5.74948e-07
-9.36547e-05
1.38653e-06
2.46605e-06
-9.57272e-05
1.49048e-06
-9.74501e-05
-1.18393e-06
1.8062e-06
-9.6844e-05
3.09922e-06
-9.25432e-05
3.33274e-06
-9.41578e-05
2.94883e-06
-9.49432e-05
-8.66263e-07
1.29988e-06
-9.78837e-05
9.81714e-05
-9.8543e-05
-4.94645e-07
9.77408e-05
-7.53269e-07
9.74123e-05
-1.01271e-06
9.71722e-05
-1.30994e-06
9.70808e-05
-1.65779e-06
9.71768e-05
-2.08891e-06
9.74825e-05
-2.62716e-06
9.8072e-05
-3.34104e-06
9.89523e-05
-4.18204e-06
0.000100132
-5.22186e-06
0.000101631
-6.42831e-06
0.000103504
-7.8099e-06
0.000105747
-9.40667e-06
0.000108419
-1.11742e-05
0.000111322
-1.2959e-05
0.000114554
-1.51232e-05
0.000117903
-1.73715e-05
0.000121185
-1.96904e-05
0.000124117
-2.19508e-05
0.000127387
-2.18656e-05
0.000132533
-2.28599e-05
0.000136809
-2.43718e-05
0.000140212
-2.59648e-05
0.000142788
-2.69322e-05
0.000146813
-2.664e-05
0.000151763
-2.45942e-05
0.000156542
-2.43142e-05
0.000161021
-2.39783e-05
0.000165297
-2.33655e-05
0.000169535
-2.2388e-05
0.000173836
-2.10618e-05
0.000178141
-1.94684e-05
0.000182339
-1.772e-05
0.000186325
-1.58814e-05
0.000190156
-1.39821e-05
0.000193668
-1.22535e-05
0.000196831
-1.05963e-05
0.000199572
-9.04619e-06
0.00020198
-7.71242e-06
0.000204065
-6.55669e-06
0.000205845
-5.54125e-06
0.000207268
-4.72375e-06
0.000208528
-4.13205e-06
0.00020962
-3.63e-06
0.00021054
-3.2611e-06
0.000211354
-2.9971e-06
0.000212122
-2.84918e-06
0.000212821
-2.75552e-06
0.000213537
-2.73915e-06
0.00021423
-2.7724e-06
0.000214952
-2.88464e-06
0.000215716
-3.04613e-06
0.000216542
-3.26335e-06
0.000217453
-3.55111e-06
0.000218447
-3.89039e-06
0.000219556
-4.29515e-06
0.000220773
-4.78093e-06
0.00022218
-5.40311e-06
0.000223768
-6.12858e-06
0.000225601
-6.98291e-06
0.000227655
-7.99465e-06
6.88201e-06
-9.15029e-06
0.000229906
4.61287e-06
0.000228846
2.34774e-06
0.000228034
1.34141e-07
0.000227479
-1.99235e-06
0.000227179
-4.07355e-06
0.000227299
-6.18364e-06
0.000227688
-8.41285e-06
0.000228532
-0.00022734
0.000229536
-1.06259e-05
-0.000225441
-9.3107e-06
-0.000223688
-8.15145e-06
-0.000222185
-7.08488e-06
-0.000220858
-6.19892e-06
-0.000219607
-5.4623e-06
-0.000218546
-4.78666e-06
-0.000217587
-4.26662e-06
-0.000216679
-3.82741e-06
-0.000215875
-3.45897e-06
-0.000215149
-3.15688e-06
-0.000214419
-2.92887e-06
-0.000213768
-2.73873e-06
-0.000213077
-2.62953e-06
-0.000212416
-2.57292e-06
-0.000211728
-2.62258e-06
-0.000210962
-2.70142e-06
-0.000210089
-2.90322e-06
-0.000209121
-3.14598e-06
-0.000208051
-3.51992e-06
-0.000206736
-4.01419e-06
-0.000205252
-4.64499e-06
-0.000203487
-5.4252e-06
-0.000201292
-6.46435e-06
-0.000198695
-7.65971e-06
-0.000195723
-9.06857e-06
-0.000192335
-1.07138e-05
-0.00018858
-1.25655e-05
-0.000184425
-1.44568e-05
-0.000180051
-1.66764e-05
-0.000175565
-1.87812e-05
-0.000171031
-2.09573e-05
-0.000166581
-2.29797e-05
-0.000162347
-2.48252e-05
-0.000158511
-2.63231e-05
-0.000155001
-2.7342e-05
-0.000151451
-2.77877e-05
-0.000146777
-2.63298e-05
-0.000142146
-2.58669e-05
-0.000137724
-2.48576e-05
-0.000133284
-2.31748e-05
-0.000127959
-2.07818e-05
-0.000122567
-1.84564e-05
-0.000117755
-1.62943e-05
-0.000113438
-1.4436e-05
-0.000109737
-1.27006e-05
-0.000106726
-1.00889e-05
-0.000104188
-7.66676e-06
-0.000101567
-6.07402e-06
-9.94222e-05
-4.47422e-06
-9.76434e-05
-3.09298e-06
-9.65606e-05
-1.37639e-06
-9.54641e-05
-5.21365e-07
-9.32994e-05
2.19962e-06
-9.47214e-05
6.43893e-07
2.07192e-06
-9.59929e-05
1.50261e-06
-9.70467e-05
2.59551e-06
-9.27957e-05
6.68913e-07
-9.89149e-05
-2.97e-07
9.14163e-07
-9.81289e-05
3.7436e-06
-9.2954e-05
2.93193e-06
-9.41409e-05
2.32232e-06
-9.51936e-05
8.5032e-08
2.00538e-07
-9.92004e-05
9.95871e-05
-9.99429e-05
4.40798e-07
9.91095e-05
1.80643e-07
9.87169e-05
-1.01991e-07
9.83995e-05
-4.35804e-07
9.8201e-05
-8.14192e-07
9.8154e-05
-1.26284e-06
9.83035e-05
-1.80725e-06
9.86868e-05
-2.47206e-06
9.93032e-05
-3.24344e-06
0.000100282
-4.3201e-06
0.000101524
-5.42404e-06
0.000103098
-6.79578e-06
0.000105019
-8.34907e-06
0.000107297
-1.00873e-05
0.000109894
-1.20036e-05
0.000112743
-1.4023e-05
0.000115967
-1.6183e-05
0.000119254
-1.84097e-05
0.000122569
-2.06861e-05
0.000125977
-2.30986e-05
0.00012867
-2.46427e-05
0.000131822
-2.50175e-05
0.000135345
-2.63828e-05
0.000138587
-2.76134e-05
0.000141322
-2.86997e-05
0.000143631
-2.92409e-05
0.000146252
-2.9261e-05
0.000149811
-2.81531e-05
0.000153354
-2.78573e-05
0.000156845
-2.74685e-05
0.000160349
-2.68695e-05
0.000163967
-2.60059e-05
0.000167757
-2.48516e-05
0.000171734
-2.34448e-05
0.00017585
-2.18355e-05
0.000180035
-2.00663e-05
0.00018421
-1.81569e-05
0.000188184
-1.62276e-05
0.000191876
-1.42878e-05
0.000195327
-1.24972e-05
0.000198433
-1.08184e-05
0.000201169
-9.29312e-06
0.000203557
-7.92948e-06
0.000205597
-6.76348e-06
0.000207275
-5.81132e-06
0.000208736
-5.09128e-06
0.000209988
-4.51423e-06
0.000211075
-4.08483e-06
0.000212025
-3.80068e-06
0.000212904
-3.63637e-06
0.000213735
-3.57196e-06
0.000214564
-3.60342e-06
0.000215371
-3.69405e-06
0.000216221
-3.89896e-06
0.000217135
-4.18116e-06
0.000218102
-4.52194e-06
0.00021918
-4.97334e-06
0.000220372
-5.49335e-06
0.000221704
-6.12014e-06
0.000223202
-6.90944e-06
0.000224882
-7.81867e-06
0.000226772
-8.88462e-06
0.000228877
-1.01136e-05
0.000231175
-1.14649e-05
1.03851e-05
-1.29318e-05
0.000233699
7.87777e-06
0.000232392
5.38192e-06
0.00023132
2.88291e-06
0.000230512
3.62025e-07
0.000229979
-2.17458e-06
0.000229694
-4.55701e-06
0.00022966
-7.09656e-06
0.000230206
-9.50053e-06
0.000230914
-1.19819e-05
0.000231995
-0.000228685
0.000230908
-1.28666e-05
-0.00022672
-1.12901e-05
-0.000224925
-9.95807e-06
-0.000223267
-8.75338e-06
-0.000221826
-7.64811e-06
-0.000220556
-6.73955e-06
-0.000219355
-5.99354e-06
-0.000218318
-5.30954e-06
-0.000217362
-4.78736e-06
-0.000216465
-4.35952e-06
-0.000215658
-3.96734e-06
-0.000214871
-3.7188e-06
-0.000214075
-3.53719e-06
-0.000213293
-3.41261e-06
-0.000212502
-3.36546e-06
-0.000211642
-3.48477e-06
-0.000210664
-3.68029e-06
-0.000209559
-4.00936e-06
-0.000208314
-4.39168e-06
-0.000206816
-5.01796e-06
-0.000205101
-5.72991e-06
-0.000203021
-6.72532e-06
-0.000200607
-7.83922e-06
-0.000197776
-9.29578e-06
-0.000194525
-1.09105e-05
-0.000190905
-1.26883e-05
-0.000187017
-1.46021e-05
-0.000182852
-1.67298e-05
-0.000178509
-1.87994e-05
-0.000174234
-2.09512e-05
-0.000169968
-2.3047e-05
-0.000165888
-2.50372e-05
-0.000162029
-2.68382e-05
-0.000158672
-2.81824e-05
-0.000155766
-2.92286e-05
-0.000153122
-2.99861e-05
-0.000150604
-3.03058e-05
-0.000147226
-2.97073e-05
-0.000143768
-2.93243e-05
-0.000140228
-2.83972e-05
-0.000136209
-2.71942e-05
-0.000131923
-2.50675e-05
-0.000127469
-2.29098e-05
-0.000122913
-2.085e-05
-0.000118552
-1.87972e-05
-0.00011498
-1.62715e-05
-0.000111552
-1.35175e-05
-0.000108126
-1.10916e-05
-0.000105056
-9.14442e-06
-0.000102353
-7.17698e-06
-0.000100679
-4.76648e-06
-9.8844e-05
-3.21154e-06
-9.74046e-05
-1.9607e-06
1.49307e-06
-9.40148e-05
-9.61445e-05
-6.1602e-07
0.000233418
-1.45147e-05
6.23314e-07
-9.52747e-05
1.7383e-06
-9.62285e-05
2.10461e-06
-9.35238e-05
1.16074e-06
-9.72932e-05
3.42068e-06
-9.24727e-05
6.3428e-07
-9.85626e-05
3.3782e-06
-9.34002e-05
-1.08256e-07
-0.00010041
5.75624e-07
2.38412e-07
-9.9547e-05
2.63485e-06
-9.44534e-05
2.00865e-06
-9.54639e-05
8.14791e-07
-4.45876e-07
-0.000100779
0.000101054
-0.000101534
1.29471e-06
0.000100524
1.10575e-06
0.000100086
8.78333e-07
9.9704e-05
5.63187e-07
9.94268e-05
1.75194e-07
9.92784e-05
-2.87282e-07
9.93001e-05
-8.35885e-07
9.95293e-05
-1.49194e-06
0.000100002
-2.28001e-06
0.000100762
-3.23151e-06
0.000101865
-4.34666e-06
0.000103145
-5.60035e-06
0.000104836
-7.11417e-06
0.000106858
-8.81775e-06
0.00010921
-1.07008e-05
0.000111869
-1.27461e-05
0.000114808
-1.49426e-05
0.00011789
-1.71053e-05
0.000121086
-1.93787e-05
0.000124262
-2.15851e-05
0.000127313
-2.37367e-05
0.00013016
-2.59453e-05
0.000132538
-2.70207e-05
0.000135283
-2.77624e-05
0.000137857
-2.89571e-05
0.000140212
-2.99677e-05
0.000142445
-3.09324e-05
0.000144025
-3.08208e-05
0.000146061
-3.12975e-05
0.00014835
-3.04415e-05
0.000150884
-3.03906e-05
0.000153498
-3.00832e-05
0.000156225
-2.95957e-05
0.000159127
-2.89084e-05
0.000162273
-2.79969e-05
0.000165695
-2.68663e-05
0.000169375
-2.55154e-05
0.000173284
-2.39753e-05
0.000177383
-2.22558e-05
0.000181559
-2.04028e-05
0.000185723
-1.84521e-05
0.000189681
-1.64548e-05
0.000193422
-1.45601e-05
0.000196859
-1.27295e-05
0.000199974
-1.10448e-05
0.000202723
-9.5136e-06
0.000205099
-8.18753e-06
0.000207103
-7.09573e-06
0.000208831
-6.24358e-06
0.000210322
-5.57649e-06
0.00021161
-5.09056e-06
0.000212759
-4.78724e-06
0.000213808
-4.62239e-06
0.000214793
-4.59131e-06
0.000215782
-4.68608e-06
0.000216763
-4.88317e-06
0.000217777
-5.1988e-06
0.000218875
-5.62484e-06
0.000220051
-6.15478e-06
0.000221356
-6.80482e-06
0.000222803
-7.5751e-06
0.000224397
-8.5126e-06
0.000226174
-9.60615e-06
0.000228144
-1.08671e-05
0.000230313
-1.22977e-05
0.000232663
-1.38331e-05
0.000235248
-1.5539e-05
1.44012e-05
0.000238007
-1.71917e-05
1.15381e-05
0.000236531
8.77353e-06
0.000235124
6.06401e-06
0.000233997
3.3325e-06
0.00023321
5.76521e-07
0.000232701
-2.23786e-06
0.000232474
-5.15023e-06
0.000232539
-7.73128e-06
0.000232754
-1.05424e-05
0.000233692
-1.3373e-05
0.000234793
-1.61533e-05
0.000236167
-0.000232571
0.000235098
-1.70642e-05
-0.000230256
-1.52004e-05
-0.000228184
-1.33772e-05
-0.000226297
-1.18579e-05
-0.000224589
-1.04727e-05
-0.000223003
-9.24308e-06
-0.000221607
-8.14403e-06
-0.00022035
-7.25648e-06
-0.000219166
-6.49996e-06
-0.000218104
-5.85411e-06
-0.000217129
-5.33833e-06
-0.000216164
-4.9361e-06
-0.000215253
-4.63294e-06
-0.000214338
-4.45483e-06
-0.00021337
-4.38281e-06
-0.000212354
-4.38315e-06
-0.000211217
-4.62363e-06
-0.000209909
-4.98879e-06
-0.000208446
-5.47402e-06
-0.0002067
-6.13847e-06
-0.000204717
-7.00111e-06
-0.000202294
-8.15341e-06
-0.000199568
-9.45172e-06
-0.000196381
-1.10267e-05
-0.000192857
-1.28195e-05
-0.000189018
-1.47502e-05
-0.000184971
-1.67344e-05
-0.000180754
-1.8819e-05
-0.000176617
-2.0867e-05
-0.000172447
-2.29691e-05
-0.000168455
-2.49433e-05
-0.000164697
-2.68041e-05
-0.000161372
-2.83623e-05
-0.000158698
-2.95124e-05
-0.000156277
-3.06027e-05
-0.000153883
-3.16222e-05
-0.00015174
-3.21289e-05
-0.00014983
-3.22155e-05
-0.000147198
-3.23398e-05
-0.000144881
-3.16405e-05
-0.000142228
-3.10506e-05
-0.000139476
-2.99452e-05
-0.000136189
-2.83543e-05
-0.000132353
-2.67462e-05
-0.00012839
-2.48128e-05
-0.000124537
-2.26501e-05
-0.000120653
-2.01553e-05
-0.000116982
-1.71883e-05
-0.000113056
-1.50169e-05
-0.000109497
-1.27036e-05
-0.000107042
-9.63161e-06
-0.000104576
-7.23228e-06
-0.000101908
-5.87973e-06
-0.000100267
-3.60141e-06
-9.86253e-05
-2.25722e-06
-9.70222e-05
-9.7974e-07
0.000237828
-1.89144e-05
-1.23229e-06
4.07516e-07
-9.61973e-05
-9.44023e-05
1.41064e-06
-9.64784e-05
2.80829e-06
-9.29114e-05
8.59305e-07
-9.75182e-05
3.70437e-06
-9.27988e-05
3.21536e-07
-9.86457e-05
3.01402e-06
-9.37793e-05
-1.67215e-07
-9.98257e-05
2.33241e-06
-9.47771e-05
-8.68861e-07
-0.000102005
1.34033e-06
-6.11494e-07
-0.000101036
1.70502e-06
-9.57583e-05
1.55475e-05
-1.85247e-05
0.000240938
1.26036e-05
0.000239425
9.58931e-06
0.000238086
6.57505e-06
0.000236957
3.63823e-06
0.000236091
6.90878e-07
0.000235592
-2.31082e-06
0.000235419
-5.37734e-06
0.000235549
-8.59299e-06
0.000235914
-1.16046e-05
0.00023665
-1.46623e-05
0.0002378
-1.76709e-05
0.000239127
-2.05617e-05
0.000240673
-0.000236919
0.000239599
-2.16246e-05
-0.000234463
-1.95427e-05
-0.000232061
-1.76213e-05
-0.000229895
-1.55603e-05
-0.000227873
-1.38937e-05
-0.000226039
-1.23186e-05
-0.00022438
-1.09129e-05
-0.000222809
-9.7233e-06
-0.000221422
-8.65146e-06
-0.000220127
-7.80144e-06
-0.000218924
-7.06295e-06
-0.000217765
-6.50152e-06
-0.000216657
-6.04791e-06
-0.000215532
-5.7619e-06
-0.000214372
-5.61758e-06
-0.00021316
-5.59745e-06
-0.000211764
-5.78126e-06
-0.000210205
-6.18362e-06
-0.000208454
-6.74177e-06
-0.000206412
-7.51655e-06
-0.000204044
-8.50769e-06
-0.000201256
-9.78975e-06
-0.00019816
-1.12504e-05
-0.000194624
-1.29876e-05
-0.0001908
-1.48512e-05
-0.000186754
-1.68655e-05
-0.000182678
-1.88262e-05
-0.000178411
-2.10013e-05
-0.000174348
-2.28813e-05
-0.000170405
-2.48098e-05
-0.000166753
-2.66214e-05
-0.000163376
-2.83202e-05
-0.000160616
-2.95644e-05
-0.000158183
-3.07944e-05
-0.000155914
-3.17817e-05
-0.000153823
-3.26936e-05
-0.000152188
-3.32571e-05
-0.000150828
-3.34884e-05
-0.000149256
-3.37872e-05
-0.000148058
-3.35385e-05
-0.000146057
-3.36415e-05
-0.000144274
-3.28328e-05
-0.00014223
-3.19895e-05
-0.000139876
-3.07076e-05
-0.000136956
-2.96662e-05
-0.000133826
-2.79427e-05
-0.000130301
-2.61747e-05
-0.000126709
-2.37476e-05
-0.000122646
-2.1251e-05
-0.000118671
-1.89918e-05
-0.000115597
-1.57774e-05
-0.000112352
-1.28763e-05
-0.000108601
-1.09823e-05
-0.00010644
-8.04104e-06
-0.000103618
-6.423e-06
-0.000101423
-4.45241e-06
-9.9699e-05
-2.70352e-06
-9.80761e-05
-1.21527e-06
1.38918e-06
-2.37661e-06
-9.52098e-05
-9.69863e-05
2.99504e-07
-2.3393e-05
0.000242388
1.44174e-06
-9.9948e-07
-0.000102448
0.000102686
-0.000103276
2.03126e-06
0.000102064
1.96225e-06
0.000101538
1.82073e-06
0.000101069
1.57497e-06
0.000100718
1.2298e-06
0.000100495
7.86067e-07
0.000100424
2.46173e-07
0.000100538
-4.01119e-07
0.000100872
-1.16977e-06
0.000101458
-2.07858e-06
0.000102327
-3.14848e-06
0.000103492
-4.39654e-06
0.000104971
-5.82575e-06
0.000106811
-7.44016e-06
0.000108963
-9.26603e-06
0.00011142
-1.12737e-05
0.000114146
-1.34269e-05
0.000117095
-1.56948e-05
0.000120121
-1.79688e-05
0.000123262
-2.02459e-05
0.000126308
-2.2424e-05
0.000129181
-2.44585e-05
0.000131805
-2.63599e-05
0.000133971
-2.8112e-05
0.000135914
-2.89635e-05
0.000138095
-2.99429e-05
0.000139965
-3.08265e-05
0.000141902
-3.19049e-05
0.000142927
-3.19576e-05
0.000144517
-3.24102e-05
0.00014552
-3.23006e-05
0.00014737
-3.22912e-05
0.000149172
-3.21922e-05
0.000151072
-3.19832e-05
0.000153114
-3.16383e-05
0.000155345
-3.11388e-05
0.000157813
-3.04646e-05
0.000160565
-2.96181e-05
0.000163646
-2.85962e-05
0.000167029
-2.73587e-05
0.000170701
-2.5927e-05
0.000174642
-2.4344e-05
0.000178758
-2.25681e-05
0.000182986
-2.06829e-05
0.000187122
-1.86959e-05
0.000191145
-1.67529e-05
0.000194928
-1.48281e-05
0.000198418
-1.30034e-05
0.000201567
-1.13376e-05
0.000204334
-9.86309e-06
0.000206727
-8.63758e-06
0.000208801
-7.65163e-06
0.000210598
-6.88908e-06
0.000212161
-6.35202e-06
0.000213553
-6.01722e-06
0.000214837
-5.87741e-06
0.000216046
-5.8988e-06
0.000217233
-6.07354e-06
0.000218441
-6.41185e-06
0.000219688
-6.8768e-06
0.000221015
-7.48852e-06
0.000222449
-8.24578e-06
0.000224023
-9.15758e-06
0.000225742
-1.02422e-05
0.000227631
-1.15069e-05
0.000229697
-1.29465e-05
0.000231918
-1.45345e-05
0.000234378
-1.63115e-05
0.000236998
-1.81818e-05
0.000239751
-1.99745e-05
-2.15376e-05
0.00024272
-9.39705e-05
1.12865e-06
-9.67477e-05
-2.31229e-06
1.32785e-06
-9.60017e-05
-2.69754e-06
-9.48245e-05
3.49035e-06
-9.26973e-05
5.98016e-07
-9.77947e-05
3.34483e-06
-9.31296e-05
1.10365e-07
-9.89233e-05
2.72342e-06
-9.41703e-05
-4.5198e-07
-9.99852e-05
2.065e-06
-9.51371e-05
-6.58397e-07
-0.000101377
1.45778e-06
-9.60874e-05
-1.37785e-06
1.90302e-06
-0.000103801
-1.12013e-06
-0.000102705
-0.000241543
0.000244307
-2.61968e-05
-0.000238938
-2.42575e-05
-0.000236362