/*--------------------------------*- C++ -*----------------------------------*\
| =========                 |                                                 |
| \\      /  F ield         | OpenFOAM: The Open Source CFD Toolbox           |
|  \\    /   O peration     | Version:  2212                                  |
|   \\  /    A nd           | Website:  www.openfoam.com                      |
|    \\/     M anipulation  |                                                 |
\*---------------------------------------------------------------------------*/
FoamFile
{
    version     2.0;
    format      ascii;
    arch        "LSB;label=32;scalar=64";
    class       volScalarField;
    location    "0.000144";
    object      p;
}
// * * * * * * * * * * * * * * * * * * * * * * * * * * * * * * * * * * * * * //

dimensions      [1 -1 -2 0 0 0 0];

internalField   nonuniform List<scalar> 
10556
(
653.824
663.256
669.304
670.919
675.938
678.083
684.701
691.743
698.617
710.929
728.106
747.233
756.65
784.821
819.854
865.255
912.766
926.322
911.295
873.881
838.942
783.056
737.598
698.159
659.732
570.201
573.027
570.763
570.836
575.342
578.293
584.107
589.791
596.112
606.293
621.816
637.446
652.666
675.762
703.511
746.945
777.851
793.794
794.623
780.094
763.079
731.969
702.668
671.243
641.411
550.004
550.217
544.788
543.537
548.191
551.964
557.352
562.372
568.31
577.552
592.298
606.591
625.588
646.792
671.15
711.761
733.93
752.695
761.121
756.684
746.757
726.394
701.429
671.504
658.291
541.227
540.966
534.253
531.808
537.215
540.974
546.231
550.98
556.541
565.228
579.956
593.608
614.008
634.846
657.152
693.661
712.974
733.776
746.256
746.624
739.83
724.645
701.277
682.077
674.739
537.538
537.978
531.225
527.705
533.455
537.526
542.689
547.46
552.352
560.956
575.66
588.834
609.931
630.645
651.586
684.122
702.808
724.205
739.419
742.468
737.053
724.259
709.47
698.368
689.859
536.223
537.237
530.53
526.454
532.086
536.709
541.886
546.743
551.02
559.741
574.374
587.323
608.468
629.108
649.062
673.887
698.517
719.785
736.121
740.761
735.963
724.187
713.717
708.077
701.875
536.078
538.017
531.603
526.306
531.981
536.526
541.824
546.667
550.845
559.553
574.142
587.131
608.143
628.55
647.89
670.238
697.016
718.212
734.577
740.177
735.625
728.441
722.605
720.49
713.417
544.349
544.274
535.788
531.071
533.418
536.557
542.277
547.554
551.42
560.877
575.351
588.523
608.094
628.351
647.474
668.621
696.427
717.618
733.803
740.037
735.557
732.344
726.916
728.476
724
552.656
546.86
548.097
542.839
539.271
541.897
546.703
552.398
560.117
570.747
580.851
596.382
611.514
629.568
647.425
668.258
696.179
717.446
733.554
740.867
740.782
740.045
735.255
735.916
733.293
557.197
557.582
557.993
555.149
553.722
552.48
556.276
563.684
570.67
577.602
587.324
600.897
616.974
634.257
651.869
668.947
696.205
717.403
733.495
743.457
746.43
746.689
741.142
741.955
741.386
562.469
565.591
562.696
560.807
561.71
562.627
565.936
571.893
577.012
583.014
593.651
608.218
622.948
640.476
655.999
671.607
698.379
718.299
733.431
745.269
751.032
753.25
748.604
747.719
747.869
572.411
572.106
569.438
567.973
570.728
571.602
573.196
578.179
584.843
592.046
603.06
617.282
630.195
646.657
660.373
674.147
700.496
718.947
733.697
746.345
754.324
758.125
754.892
753.842
753.722
579.595
576.592
576.362
576.294
576.53
578.849
580.747
585.139
590.857
598.066
609.276
624.324
637.594
652.984
665.147
680.136
708.37
724.643
737.102
748.295
757.43
762.165
760.784
759.679
759.295
585.198
583.662
582.053
581.758
583.443
586.594
588.477
592.154
598.239
607.452
618.55
631.531
642.782
659.325
672.496
688.796
719.128
730.322
748.675
750.204
759.88
765.422
765.281
764.794
764.692
592.715
591.869
589.507
590.063
590.907
594.172
597.089
601.486
608.207
615.906
625.988
639.748
653.966
667.134
682.958
700.149
724.828
740.901
752.497
753.855
761.953
768.174
769.354
768.984
768.951
599.947
600.139
598.515
598.744
599.655
602.667
606.232
611.434
617.637
624.197
634.381
648.763
662.336
676.483
693.246
713.566
729.507
746.41
754.123
758.337
765.141
771.233
772.664
772.93
772.962
611.003
609.569
607.988
608.091
609.164
611.559
615.071
620.891
627.107
633.466
643.786
656.762
669.924
686.041
703.612
723.242
734.037
751.312
756.202
765.5
769.605
774.543
776.031
776.315
776.427
621.327
620.417
618.733
618.473
618.852
621.319
624.834
629.843
636.324
643.895
653.253
665.556
678.863
695.488
714.038
732.273
745.886
755.892
759.787
772.444
775.98
779.201
780.134
780.123
780.083
631.16
630.894
629.829
630.055
630.618
632.982
636.351
640.921
647.735
655.509
664.763
676.022
688.74
705.751
723.615
737.895
751.143
761.07
762.082
779.266
783.185
785.043
785.57
784.401
783.946
640.961
641.526
641.1
642.339
643.234
645.237
648.008
652.423
659.043
666.268
674.977
686.342
699.354
714.753
732.437
744.242
757.114
766.031
772.03
786.252
790.925
792.096
792.36
790.044
788.861
651.179
650.904
650.263
650.508
651.773
654.188
657.435
661.812
668.473
676.338
686.153
697.101
709.266
725.142
742.649
755.402
770.479
777.295
779.058
792.352
797.698
799.43
799.82
796.817
794.976
659.722
660.015
660.007
660.627
661.155
662.223
665.503
670.709
677.278
686.218
695.497
706.282
719.288
735.59
753.249
768.584
787.208
790.98
789.86
799.543
804.4
806.61
807.293
804.432
802.143
668.525
669.304
669.195
669.58
670.641
672.954
675.997
681.139
687.828
696.364
705.199
715.825
728.641
743.968
762.766
783.438
807.095
810.721
799.038
806.973
810.858
813.391
814.502
812.53
810.009
679.164
679.458
679.088
679.952
681.784
684.397
687.686
692.393
699.39
707.427
715.769
726.038
738.913
754.746
773.09
797.973
818.589
823.3
812.944
817.822
819.551
821.026
821.841
820.819
818.337
691.591
691.965
691.546
692.692
694.644
696.944
700.523
705.168
711.305
719.816
727.973
737.565
750.765
766.157
785.633
809.98
829.162
836.422
829.335
828.786
829.043
830.006
830.107
829.563
827.112
704.62
705.549
705.737
706.063
706.984
709.714
713.352
718.151
724.023
732.144
740.99
751.439
764.537
779.566
798.294
820.668
835.896
844.635
841.313
841.374
840.443
840.383
839.539
838.778
836.163
717.435
718.328
718.348
718.635
719.526
721.535
725.051
730.424
737.072
744.073
752.863
764.244
777.312
792.163
811.319
832.354
846.665
857.128
852.499
851.843
851.414
851.386
849.629
848.336
845.424
728.736
729.438
729.589
729.759
730.954
733.236
737.178
741.926
748.64
756.08
764.656
775.459
788.846
802.706
823.978
844.161
855.727
861.155
863.083
863.296
862.418
862.035
859.809
857.7
854.436
738.744
739.724
740.079
741.099
742.722
745.347
748.963
753.738
759.784
768.214
777.531
787.319
799.785
814.112
837.906
856.159
865.052
861.886
872.327
873.211
873.076
872.433
869.998
867.277
863.378
749.37
750.37
750.901
752.551
754.147
756.595
760.061
764.941
770.828
779.136
788.816
799.327
811.648
827.103
852.13
867.552
880.163
870.427
883.959
886.14
885.604
883.981
880.905
877.217
872.481
762.906
763.826
764.252
765.35
767.266
769.822
773.368
778.053
784.152
791.633
801.124
811.784
824.268
840.847
865.955
880.22
895.309
890.293
895.54
898.693
899.34
896.799
893.219
888.901
882.839
778.014
778.769
778.778
779.218
780.615
783.382
786.7
791.4
798.286
806.089
815.593
825.67
838.442
855.882
877.697
894.07
901.898
911.136
913.288
914.354
914.749
911.675
907.259
902.431
894.989
791.967
792.333
792.536
793.214
794.397
796.453
800.219
804.824
811.013
819.866
829.647
840.238
853.52
870.273
889.084
906.56
912.224
930.205
930.915
929.037
930.258
927.102
922.553
917.656
908.968
805.396
806.541
807.209
807.988
809.551
812.099
815.5
820.366
826.202
833.857
843.428
854.52
868.103
884.629
903.79
919.923
929.181
956.115
948.802
945.881
945.66
942.989
938.228
933.472
924.003
819.659
820.817
821.444
822.829
824.6
827.293
830.55
835.332
842.067
849.723
858.89
870.305
884.318
899.796
917.872
936.032
957.855
995.423
969.47
962.068
961.086
958.335
954.053
949.862
939.953
834.48
835.368
836.064
837.391
839.151
841.565
845.156
850.032
856.4
864.707
874.465
886.795
900.66
915.515
931.705
953.624
982.154
1007.1
988.404
979.93
977.388
974.554
970.333
966.709
956.829
850.056
851.221
851.867
853.115
855.025
857.979
861.673
866.374
871.747
879.167
889.377
901.815
916.015
930.705
946.87
969.507
997.443
1010.12
1009.15
998.352
995.383
991.219
987.391
984.563
975.05
865.196
866.535
867.086
868.201
869.705
872.397
875.762
879.949
886.558
895.159
905.869
918.539
931.828
944.277
962.204
988.316
1008.76
1011.27
1025.23
1018.31
1014.08
1008.84
1004.76
1002.73
994.173
878.827
880.021
880.731
882.032
884.116
886.518
889.917
894.863
901.429
909.911
920.538
933.695
947.045
959.302
978.303
1009.14
1021.19
1016.66
1038.5
1035.69
1032.43
1026.52
1022.2
1020.96
1013.41
892.022
893.786
895.116
897.107
899.219
902.285
905.943
910.867
917.126
925.535
936.735
949.804
962.791
974.177
995.162
1025.62
1032.8
1042.57
1055.21
1055.43
1050.74
1044.72
1039.75
1038.68
1031.97
907.743
909.929
911.367
913.717
915.959
918.873
922.576
927.192
933.655
942.751
954.206
967.034
979.155
989.501
1015.38
1037.8
1047.97
1076.84
1071.12
1070.95
1067.99
1063.08
1057.85
1056.46
1050.19
925.977
927.763
928.797
930.679
933.188
936.199
939.887
944.788
951.529
959.942
971.082
984.347
996.543
1008.54
1034.82
1050.56
1068.43
1084.75
1088.32
1087.98
1086.24
1082.75
1077
1074.84
1068.64
944.151
945.54
946.578
948.475
950.879
954.203
958.108
963.243
969.312
977.976
989.318
1001.87
1015.28
1029.19
1053.24
1066.2
1089.9
1095.53
1105.8
1103.72
1104.61
1102.58
1097.37
1094.71
1088.24
958.313
960.485
962.175
964.743
967.595
970.761
974.54
979.203
986.037
994.878
1005.98
1018.63
1033.54
1050.37
1069.21
1085.48
1108.6
1120.72
1131.6
1122.74
1123
1123.07
1118.23
1115.18
1108.6
972.072
974.911
976.704
979.497
982.055
985.091
989.224
994.81
1002.09
1010.88
1022
1036.14
1053.11
1071.28
1083.28
1106.69
1125.89
1149.49
1161.5
1142.77
1141.68
1143.14
1139.58
1136.32
1129.61
985.781
988.524
990.756
993.842
997.161
1001.56
1006.46
1012.35
1019.22
1028.33
1039.63
1054.41
1073.21
1089.67
1098.96
1128.93
1142.7
1158.05
1173.14
1168.24
1162.82
1163.81
1161.27
1157.97
1151.07
999.46
1003.25
1005.97
1010.04
1014.17
1018.47
1023.21
1028.71
1036.09
1045.73
1057.9
1072.58
1091.68
1105.71
1121.91
1150.37
1159.97
1167.46
1184.86
1193.8
1187.37
1186.15
1183.82
1180.65
1173.16
1017.83
1021.42
1024.32
1028.49
1032.5
1036.94
1041.86
1047.92
1055.54
1065.2
1077.41
1092.24
1110.22
1127.04
1150.04
1165.98
1175.56
1181.48
1196.11
1211.86
1214.1
1211.41
1207.29
1204.07
1195.8
1038.35
1041.84
1044.79
1049.03
1053.31
1058.06
1063.33
1070
1078.14
1087.8
1099.42
1114.1
1131.24
1156.2
1177.29
1180.33
1197.29
1210.96
1209.35
1227.05
1238.01
1237.53
1232.39
1228.83
1219.52
1059.9
1064.07
1067.07
1071.38
1075.7
1080.71
1086.48
1092.82
1100.72
1110.9
1123.41
1137.68
1156.76
1186.07
1194.69
1198.47
1223.5
1248.25
1237.79
1249.88
1257.81
1261.14
1257.35
1253.71
1243.75
1080.91
1085.22
1088.62
1093.43
1097.99
1102.99
1108.36
1115.15
1123.51
1133.91
1146.21
1160.91
1179.71
1205.91
1214.1
1225.27
1255.62
1283.65
1272.82
1277.4
1281.25
1283.46
1281.55
1278.88
1268.75
1100.14
1104.85
1108.32
1113.05
1117.93
1123.32
1129.22
1136.01
1144.26
1154.75
1167.14
1181.32
1198.33
1223.6
1238.06
1253.86
1284.28
1296.84
1310.61
1308.7
1308.2
1308.32
1305.71
1304.09
1294.73
1115.96
1120.28
1124.05
1129.48
1134.96
1140.81
1147.24
1154.75
1163.5
1173.52
1186.01
1200.89
1218.75
1240.81
1259.88
1280.82
1303.3
1305.21
1326.37
1337.37
1338.16
1336.32
1331.94
1330.64
1322.47
1129.26
1134.61
1139.23
1145.2
1151.09
1157.54
1164.24
1172.08
1181.76
1193.02
1205.88
1221.06
1238.68
1259.68
1281.57
1306.64
1317.72
1316.51
1339.9
1358.06
1366.55
1364.6
1358.67
1356.95
1350.33
1146.32
1151.73
1156.01
1162.61
1169.12
1176.21
1183.63
1191.92
1201.64
1213.51
1227.06
1242.44
1259.92
1282.29
1305.88
1332.04
1340.01
1340.11
1361.7
1379.18
1390.24
1392.58
1386.82
1383.42
1377.32
1169
1174.77
1179.47
1186.1
1192.95
1200.35
1208.05
1216.64
1226.31
1238.11
1252.38
1268.46
1286.47
1307.24
1331.39
1354.71
1364.82
1368.34
1393.1
1401.48
1407.69
1415.78
1413.19
1409.34
1402.34
1194.11
1200.32
1205.31
1212.34
1219.03
1226.42
1234.23
1242.81
1252.96
1264.96
1278.91
1294.9
1312.42
1332.64
1356
1380.35
1400.13
1412.94
1431.49
1440.27
1435.5
1440.07
1439.83
1437.29
1428.7
1219.29
1225.27
1230.15
1236.93
1244.1
1252.1
1260.19
1269.5
1280.16
1292.03
1305.62
1321.11
1338.75
1359.89
1381.57
1410.13
1431.07
1448.03
1466.67
1468.58
1470.94
1469.54
1466.81
1465.47
1456.66
1242.66
1248.54
1253.59
1261.17
1268.93
1277.04
1285.68
1295.44
1306.33
1318.96
1333.1
1348.99
1367.3
1387.95
1410.53
1438.55
1457.99
1481.04
1499.58
1510.65
1509.53
1505
1499.27
1497.04
1487.72
1268.06
1274.45
1279.73
1287.47
1295.17
1303.99
1313.25
1323.07
1334.23
1347.43
1362.09
1378.52
1396.92
1417.21
1439.04
1467.76
1488.69
1508.26
1522.1
1535.12
1542.16
1540.09
1533.05
1529.56
1520.95
1296.55
1302.85
1307.84
1315.36
1323.74
1333.23
1342.89
1353.67
1365.57
1378.56
1393.46
1410.13
1428.66
1449.18
1472.24
1502.03
1524.16
1537.58
1562.48
1571.82
1571.04
1575.74
1569.68
1565.51
1556.81
1325.92
1331.97
1337.23
1345.53
1354.44
1364.35
1374.78
1386.15
1398.36
1411.93
1427.11
1444.34
1463.12
1484.38
1508.27
1536.53
1557.37
1582.49
1606.4
1612.39
1605.11
1607.13
1604.11
1601.39
1592.65
1356.19
1363.18
1369.15
1377.79
1386.88
1397.13
1407.75
1419.16
1431.95
1446.75
1462.93
1480.34
1499.76
1521.09
1544.83
1571.54
1593.38
1625.36
1652.13
1659.39
1648.38
1642.56
1639.94
1639.55
1630.5
1390.42
1397.14
1402.68
1411.29
1420.62
1431.28
1442.48
1454.85
1468.49
1483.42
1499.7
1517.51
1537.09
1558.34
1581.38
1607.7
1634.37
1666.84
1687.83
1690.84
1697.48
1685.91
1678.1
1675.81
1667.87
1425.13
1431.39
1436.86
1445.36
1454.95
1466.16
1478.17
1491.47
1505.81
1521.22
1537.66
1555.73
1575.68
1596.78
1620.23
1648.91
1676.17
1708.89
1729.41
1737.9
1732.31
1734.32
1724.03
1717.21
1708.14
1457.22
1464.37
1470.22
1479.16
1489.22
1501.08
1513.62
1527.35
1542.18
1558.24
1575.43
1594.23
1614.23
1635.21
1659.44
1688.55
1715.21
1748.7
1764.58
1770.29
1768.53
1774.71
1766.58
1760.22
1749.64
1491.21
1498.61
1504.53
1514
1524.57
1536.9
1550.01
1564.18
1579.48
1596.4
1614.62
1633.65
1654.14
1676.45
1701.7
1730.08
1755.63
1792.67
1813.24
1823.73
1812.4
1814.2
1810.47
1807.11
1795.13
1529.34
1536.5
1542.29
1551.71
1562.52
1575.54
1589.28
1604.49
1620.98
1638.62
1656.95
1676.59
1697.52
1720.67
1746.46
1772.89
1798.98
1838.58
1858.05
1861.53
1869.85
1856.5
1851.92
1850.79
1840.36
1570.56
1577.82
1583.76
1593.39
1604.37
1617.52
1631.82
1647.87
1665.28
1684.02
1703.31
1723.51
1745.53
1768.85
1793.58
1818.1
1847.12
1886.39
1909.53
1919.09
1919.77
1909
1900.05
1897.32
1887.55
1612.09
1620.02
1626.14
1635.97
1647.09
1660.85
1675.77
1692.31
1710.14
1729.26
1749.16
1770.05
1791.94
1814.43
1838.44
1865.01
1896.46
1929.75
1947.13
1953.4
1952.41
1956.71
1946.86
1941.83
1932.46
1653.38
1661.26
1667.37
1677.21
1688.57
1702.58
1717.85
1735.1
1753.86
1773.83
1794.03
1815.06
1836.79
1859.24
1884.57
1912.54
1941.69
1974.01
1997.6
2010.26
1994.41
2003.86
1995.83
1990.32
1979.98
1696.88
1704.15
1709.91
1719.93
1731.64
1746.06
1761.62
1779.13
1798.09
1818.44
1839.44
1860.85
1882.71
1905.56
1931.57
1959.16
1985.66
2019.23
2043.32
2046.03
2040.66
2045.88
2042.64
2039.35
2027.71
1744.36
1751.68
1757.76
1767.66
1779.12
1793.58
1809.64
1827.6
1847.08
1867.98
1889.29
1910.97
1932.93
1956.89
1983.65
2009.95
2032.78
2071.53
2104.7
2113.94
2103.92
2098.06
2095.27
2094.04
2081.11
1796.11
1803.6
1809.63
1819.38
1830.78
1845.13
1861.01
1879.32
1899.51
1921.34
1943.26
1965.13
1988.1
2012.93
2038.22
2061.04
2086.02
2134.56
2153.21
2158.37
2170.45
2159.59
2152.17
2150.76
2138.89
1848.26
1855.14
1861
1871.07
1882.96
1897.86
1914.38
1933.27
1954.18
1976.65
1999.55
2022.99
2046.57
2070.77
2095.22
2119.69
2152.99
2191.12
2217.85
2233.81
2229.47
2229.54
2219.08
2214.15
2201.95
1900.39
1907.84
1914.41
1924.98
1937
1952.28
1969.43
1989.13
2010.9
2034.56
2058.48
2082.31
2106.05
2129.82
2155.85
2182.81
2218.04
2248.73
2258.22
2274.85
2279.7
2291.56
2283.29
2277.88
2264.82
1957.7
1965.65
1972.38
1983.17
1995.47
2010.92
2028.09
2048.15
2070.34
2094.35
2118.83
2143.22
2167.05
2192.14
2219.99
2247.44
2276.28
2297.77
2323.02
2343.22
2336.5
2350.54
2350.14
2346.18
2330.83
2020.71
2027.77
2034.37
2045.2
2057.56
2073.12
2090.66
2110.66
2133.02
2157.52
2182.3
2206.99
2231.57
2257.46
2284.72
2310.86
2338.23
2364.79
2385.18
2402.21
2418.3
2416.94
2416.52
2415.73
2399.95
2084.58
2092.02
2099.17
2110.42
2123.17
2138.85
2156.16
2176.38
2198.93
2223.73
2249.53
2275.77
2302.07
2328.82
2355.51
2381.67
2411.98
2443.44
2464.82
2499.21
2502.64
2500.33
2495.8
2492.91
2476.64
2150.07
2158.02
2165.61
2177.28
2190.23
2206.12
2223.93
2244.44
2267.68
2293.68
2320.89
2348.45
2375.35
2401.99
2429.26
2458.02
2496.63
2523.31
2538.7
2566.44
2578.33
2586.72
2576.93
2571.87
2556.15
2216.85
2225.08
2233
2245.08
2258.4
2274.59
2292.7
2314.1
2338.48
2365.76
2394.07
2422.63
2450.12
2477.08
2504.53
2533.92
2563.25
2583.9
2621.29
2638.97
2648.17
2666.91
2661.99
2655.55
2638.72
2282.18
2291.4
2300.24
2313.57
2327.9
2345.02
2363.86
2385.52
2409.96
2437.27
2465.99
2494.72
2522.59
2550.54
2579.1
2607.99
2639.8
2672.27
2678.87
2710.81
2743.04
2746.14
2741.51
2735.4
2719.48
2348.35
2358.16
2367.65
2381.78
2396.7
2413.98
2432.8
2454.55
2479.15
2506.79
2535.68
2565.7
2595.9
2626.81
2658.29
2689.85
2727.94
2757.37
2771.42
2807.45
2820.51
2827.33
2825.6
2819.28
2802.45
2414.98
2425.54
2435.39
2450.28
2465.72
2483.49
2502.45
2524.19
2548.92
2577.15
2607.94
2640.27
2673.06
2706.05
2737.18
2767.81
2796.15
2833.36
2863.12
2896.31
2918.5
2911.92
2908.54
2903.29
2886.02
2484.84
2495.96
2506.27
2521.88
2537.94
2556.41
2576.19
2598.78
2624.37
2653.73
2685.28
2718.76
2752.44
2785.49
2815.8
2844.99
2876.99
2918.21
2947.92
2986.26
3001.17
2998.48
2994.74
2992.87
2976.53
2561.13
2573.54
2584.43
2601
2617.8
2636.87
2656.92
2679.93
2706.01
2735.73
2768.06
2802.47
2837.05
2870.98
2903.26
2936.56
2974.91
3012.54
3031.25
3071.41
3092.62
3097.3
3085.72
3081.79
3066.83
2645.09
2658.16
2669.68
2687.39
2705.2
2725.22
2745.91
2768.94
2794.73
2824.63
2857.53
2892.63
2927.9
2963.38
2999.23
3035.48
3069.42
3109.06
3130.91
3169.19
3184.8
3190.01
3182.73
3179.1
3161.57
2735.03
2749.62
2761.94
2780.52
2798.99
2819.35
2839.8
2862.62
2888.18
2917.65
2949.98
2985.28
3021.59
3059.34
3097.28
3133.81
3168.09
3202.94
3225.59
3275.52
3292.4
3290.97
3286.66
3281.22
3261.98
2831.6
2847.03
2859.62
2878.72
2897.3
2917.69
2938.13
2960.74
2986.12
3015.87
3049.28
3085.85
3124.18
3164.35
3204.48
3242.22
3274.41
3313.18
3339.71
3391.13
3397.89
3401.47
3391.66
3386.8
3367.37
2931.76
2948.18
2960.72
2980.23
2999.03
3020.32
3041.44
3065.03
3091.45
3122.15
3155.85
3193.21
3232.69
3274.34
3314.26
3351.48
3386.92
3435.07
3465.66
3506.6
3513.24
3516.53
3501.69
3495.55
3477.91
3035.67
3053.2
3065.65
3085.97
3105.49
3128.04
3150.22
3174.65
3201.05
3231.14
3264.25
3301.54
3341.47
3383.29
3423.95
3465.69
3507.04
3553.88
3579.54
3616.12
3620.08
3627.7
3607.73
3599.95
3581.44
3149.96
3167.82
3179.78
3200.4
3219.85
3242.87
3264.82
3288.42
3313.71
3342.56
3374.67
3411.72
3452.23
3495.79
3538.85
3582.69
3626.2
3674.06
3695.27
3723.24
3723.29
3723.8
3716.33
3710.33
3684.6
3274.84
3292.26
3304.21
3323.78
3342.82
3364.25
3384.89
3407.31
3431.26
3459.19
3491.22
3528.92
3570.03
3613.86
3657.73
3702.44
3745.57
3786.58
3807.67
3841.1
3844.08
3832.81
3821
3820.25
3791.39
3401.84
3417.43
3429.28
3447.62
3465.93
3486.32
3506.51
3528.41
3552.44
3580.51
3612.5
3649.4
3689.66
3733.25
3778.05
3821.23
3860.7
3903.78
3931.4
3978.09
3984.44
3968.57
3951.06
3948.43
3915.26
3531.27
3545.53
3556.73
3574
3591.72
3612.25
3632.54
3654.83
3679.35
3707.69
3739.33
3775.39
3814.86
3858.36
3902.5
3946.16
3985.68
4031.84
4069.52
4112.33
4107.32
4108.98
4086.47
4088.79
4056.51
3670.69
3683.97
3694.71
3711.41
3728.96
3749.18
3770.03
3793.09
3817.82
3845.62
3876
3910.64
3948.91
3992.07
4038.2
4084.26
4126.51
4180.27
4221.24
4260.8
4255.71
4256.6
4234.54
4234.97
4205.93
3819.05
3830.63
3840.25
3855.83
3872.67
3893.02
3913.71
3936.39
3960.98
3988.35
4017.86
4051.65
4090.53
4136.16
4184.39
4234.34
4280.95
4335.4
4372.62
4412.93
4401.09
4421.58
4392.26
4393.53
4360.52
3971.63
3981.49
3990.33
4004.34
4020.1
4039.47
4060.26
4083.54
4108.26
4135.56
4165.54
4200.87
4241.77
4289.23
4340.42
4391.96
4440.2
4492.86
4527.71
4578.48
4577.14
4586.23
4571.48
4570.57
4528.51
4136.94
4145.57
4153.62
4166.72
4181.52
4200.11
4220.33
4243.54
4269.19
4297.87
4329.2
4365.39
4406.53
4453.76
4502.97
4552.58
4599.27
4648.37
4685.72
4722.42
4736.6
4755.62
4743.11
4751.65
4713.9
4317.02
4324.29
4331.6
4342.92
4356.54
4374.44
4394.85
4418.59
4444.85
4474.29
4506
4541.7
4581.07
4624.5
4670.08
4717.76
4766.16
4817.44
4860.35
4884.3
4922.02
4937.77
4935.94
4947.17
4922.28
4493.64
4501.21
4509.03
4520.33
4533.64
4550.96
4571.13
4595.26
4622.32
4652.25
4684.11
4719.02
4756.28
4798.14
4843.72
4894.3
4946.87
5001.7
5050.15
5111.45
5123.31
5158.3
5140.08
5144.86
5118.93
4671.41
4679.83
4687.65
4698.48
4711.3
4728.72
4749.04
4773.63
4801.63
4833.68
4867.39
4903.8
4942.67
4986.54
5035.92
5092.74
5152.05
5214.19
5270.52
5330.58
5349.65
5392.47
5367.77
5363.79
5324.57
4858.1
4868.09
4876.13
4887.21
4899.75
4917.1
4937.71
4963.49
4993.23
5027.59
5064.05
5103.47
5144.38
5190.73
5243.04
5302.21
5360.76
5421.42
5476.74
5540.57
5552.26
5627.2
5588.16
5581.71
5538.9
5068.84
5080.26
5086.59
5097.6
5109.53
5127.17
5147.28
5173.57
5204.41
5241.92
5281
5322.69
5364.96
5412.03
5463.29
5520.02
5574.32
5629.82
5672.17
5721.86
5759.09
5827.8
5805.89
5807.74
5768.47
5311.68
5323.68
5326.96
5336.89
5346.96
5363.93
5383.15
5409.38
5440.04
5478.94
5519.2
5562.54
5604.67
5650.53
5699.34
5753.58
5805.34
5860.05
5912.64
5967.86
5978.18
6033.92
6021.03
6027.74
5993.39
5588.84
5598.16
5600.77
5608.16
5616.69
5630.48
5646.75
5670.71
5699.38
5737.17
5776.24
5818.65
5858.91
5902.61
5947.28
5996.29
6044.73
6102.12
6151.71
6213.36
6230.5
6274.27
6248.88
6260.18
6228.77
5894.76
5904.05
5904.49
5910.04
5916.3
5926.81
5939.83
5960.43
5985.74
6019.28
6055.73
6095.81
6133.52
6172.75
6212.13
6255.67
6298.82
6350.29
6394.35
6466.1
6506.9
6543.26
6504.94
6515.92
6486.06
6218.81
6227.08
6227.97
6232.01
6236.71
6244.68
6255.4
6272.63
6295.7
6326.46
6361.43
6400.98
6438.76
6478.3
6517.37
6559.9
6604.82
6660
6710.68
6771.15
6816.24
6846.08
6820.17
6802.05
6745.95
6551.19
6560.14
6562.47
6566.6
6571.05
6577.97
6587.48
6602.9
6624.36
6653.79
6689.08
6730.79
6771.89
6814.88
6855.99
6899.65
6942.59
6987.15
7027.92
7100.1
7141.26
7168.91
7157.52
7141.92
7069.99
6892.76
6904.25
6906.49
6912.18
6916.81
6924.79
6934.71
6950.55
6971.63
7001.14
7036.33
7079.34
7121.34
7165.8
7206.06
7246.53
7281.98
7321.69
7360.06
7427.1
7456.23
7502.59
7486.07
7494.79
7437.32
7266.78
7273.91
7277.17
7281.53
7286.44
7294.2
7304.34
7318.68
7337.64
7363.88
7395.94
7436.65
7477.62
7522.48
7560.03
7596.57
7625.47
7656.38
7689.29
7753.57
7768.36
7814.13
7787.2
7814.34
7784.28
7680.26
7684.37
7686.09
7689.53
7694.21
7700.92
7709.7
7720.98
7735.47
7756.11
7781.35
7815.36
7849.98
7889.45
7922.27
7953.47
7973.04
8001.08
8030.93
8100.33
8118.98
8135.66
8091.84
8097.56
8072.7
8134.62
8138.04
8135.49
8139.46
8141.08
8146.69
8151.27
8158.91
8167.07
8180.04
8195.74
8220.81
8248.77
8283.53
8313.22
8339.17
8358.55
8383.89
8410.78
8482.12
8498.51
8495.23
8438.91
8423.44
8365.63
8623.61
8628.44
8622.41
8627.56
8626.73
8631.88
8630.96
8634.92
8633.5
8641.9
8646.66
8665.41
8688.6
8718.72
8748.81
8774.5
8789.43
8810.36
8831.32
8891.86
8909.09
8922.8
8882.77
8849.06
8743.76
9145.78
9150.55
9145.06
9151.03
9150.46
9155.94
9151.45
9152.99
9143.38
9147.16
9143.56
9156.79
9173.59
9199.95
9228.08
9250.59
9261.25
9275.05
9283.83
9321.6
9317.67
9366.89
9318.59
9330.6
9234.31
9711.65
9717.19
9709.96
9717.59
9714.85
9720.62
9712.19
9712.82
9696.84
9698.41
9683.72
9691.37
9694.02
9713.33
9736.21
9753.22
9757.4
9762.96
9752.98
9778.05
9769.18
9852.6
9775.88
9822.3
9751.57
10319.6
10323
10313.6
10320.3
10314.6
10318.3
10306.5
10304.4
10283.7
10279.4
10254
10252.2
10233.8
10240.2
10249.7
10261
10256.4
10261.3
10237.8
10259.8
10215.9
10270.4
10242.6
10228.8
10168.9
10974.5
10976.8
10958.5
10963.8
10949.7
10951.4
10934.6
10927.7
10901.4
10886.6
10851.3
10830.9
10794.4
10790.1
10774.9
10776.9
10762.1
10772.8
10740.2
10729.9
10581.5
10670.1
10626.7
10602.1
10557.4
11687.4
11688.4
11656.5
11660.4
11632.4
11629.7
11603.3
11592.2
11557.1
11530.4
11485.1
11443.7
11394.8
11365.1
11328.2
11314.3
11294.1
11298.7
11240.3
11234.5
11181.3
11143
11085.4
11053
10957.3
12456
12456
12408.8
12411.1
12371.3
12361.4
12327.1
12309.8
12266.4
12226.8
12171.6
12115.8
12053.3
11999.1
11942.4
11911.3
11885.9
11878.9
11841.1
11859.7
11794.7
11743
11661.6
11612.8
11465.1
13276.4
13272.4
13221.4
13211.6
13168.6
13155
13114.9
13092.9
13045.2
12994.6
12933
12867.4
12794
12724.1
12656.6
12605.4
12568.1
12550.8
12526
12519.6
12494.8
12466.5
12361
12353.7
12206.3
14161.1
14160.6
14105.3
14086.2
14043.2
14022.1
13980
13950.7
13900.1
13843.7
13776.8
13706.3
13625.4
13547.6
13466.4
13398.1
13342.4
13308.1
13248.6
13252
13193.3
13227.7
13101.4
13132.6
13013.2
15135.1
15136.3
15076.7
15047.2
14999.8
14968.2
14922.9
14882.4
14826.6
14765.5
14692.5
14615.5
14525.4
14436.4
14340.6
14259.9
14186.8
14115.9
14054.8
14066.2
13966.1
13951.9
13900.8
13896.7
13790.6
16225.9
16213.5
16153.3
16108.4
16054.6
16006.9
15952.3
15897.7
15832.2
15762.5
15682.5
15597.4
15498
15397.4
15284.7
15182.5
15081.1
14990.7
14924.4
14915.6
14798.2
14760.9
14711.7
14660.1
14552.9
17403.2
17366.4
17306.9
17249.1
17184.1
17122.9
17056.4
16989.3
16913.8
16834.6
16747.4
16654.6
16546.4
16432.2
16303.1
16181.3
16063.4
15960.7
15877.4
15846.7
15734.7
15727.2
15655.9
15578
15424.9
18632.1
18586.8
18521.8
18456.1
18382
18311.3
18235.4
18159.7
18075.9
17990.1
17898
17800.7
17688.7
17571.2
17440.8
17317.4
17193.2
17088.3
17005.5
16974.9
16870.1
16881.2
16756.5
16715.2
16523.1
19948.3
19902.6
19834
19763.5
19682.9
19605.9
19522
19438.2
19345.9
19252.1
19153.4
19052.8
18941.1
18826.9
18697.8
18569.1
18441.6
18336.6
18248.5
18185.7
18077.5
18120.6
17964.6
17989.3
17800.2
21411.4
21364.7
21293.5
21219.1
21132.1
21047.2
20952.6
20857.1
20750.4
20642.3
20530.5
20420.3
20301.5
20181.2
20046.4
19919.2
19797.2
19686
19576.2
19488.4
19388.8
19456.8
19297.6
19292.4
19174.4
23062.5
23015.1
22940.9
22860.1
22763.4
22665.5
22554.2
22439.5
22310
22177.2
22040.1
21906.6
21766.4
21631
21491.6
21367
21236
21100.9
20978.1
20892.9
20769.4
20797.3
20662.1
20602.2
20473
24933.8
24881.5
24803.1
24713
24602.1
24485.2
24351.4
24211
24051.4
23885
23712.4
23545.8
23378.1
23227.8
23082.3
22951.3
22813.5
22690.6
22580.7
22461.5
22262.9
22180.5
22095.9
22069.2
21887.4
27018.4
26958.9
26871.9
26767.3
26638
26497.4
26338.3
26168.8
25977.6
25775.5
25566.8
25368
25173.3
25001.2
24841.9
24716.6
24602.4
24490.3
24364.5
24196.2
23965.9
23936.2
23779.9
23853.5
23627.4
29253.5
29188.9
29093.7
28976
28830.1
28668.9
28488.8
28297.3
28083.8
27857
27622.6
27397.4
27177.6
26988.7
26832.9
26732.5
26628.7
26500.9
26380.2
26293.8
26273.8
26346.2
26042.2
26020
25762.6
31599.4
31534.4
31433.7
31307.9
31151.2
30978.3
30787.9
30587.7
30367.3
30131.6
29884.6
29645.5
29418
29230.1
29068.8
28950
28849.3
28760
28706.5
28645.9
28564.1
28681.6
28504.9
28475.4
28277.8
34077.2
34013
33910.5
33782.6
33623.2
33450.8
33263.3
33069
32856.4
32629
32391.3
32162.6
31944.5
31752.2
31566.5
31427.9
31321.6
31251.2
31154.5
31075.4
31097.6
31192.1
30937.4
31009.5
30822.6
36732.5
36670.8
36570
36447.7
36296.6
36138
35965.9
35789.8
35599.5
35402.1
35197.7
34993.9
34787.1
34600.2
34421.7
34280
34143.5
34035
33989.3
33975.3
33976.1
34113.2
33895.5
34060.1
33877.1
39612.9
39556.6
39463.9
39356.2
39222.5
39086.9
38940.3
38795.9
38641.7
38486.8
38327.3
38163
37991.1
37837.5
37679.7
37539.2
37408.3
37297.4
37187.5
37128.6
37110.1
37279.7
37096.2
37371.7
37073.9
42720.5
42679.1
42607.6
42524.9
42420.6
42316.9
42205.4
42099.2
41984.3
41876.3
41773.5
41668.1
41541.8
41428.3
41300.4
41197.8
41058.9
40952.5
40878.1
40829.4
40707.7
40836.5
40558.8
40651.5
40366.1
46030.7
46013.9
45979.9
45939.7
45885.1
45833.4
45772.3
45713.5
45644.1
45602.3
45564.3
45544
45475.2
45454.5
45315.6
45282
45151.4
45118.8
45051.2
45025.9
44845.6
44942.6
44582.5
44649.3
44306.9
49542.2
49557.9
49578.8
49609
49634.5
49674.1
49702.9
49739.1
49768.8
49811.2
49855.8
49904.3
49944.7
49978.5
49900.9
49914
49863.6
49873.6
49786.6
49767.1
49622.6
49719.7
49331.9
49515
49048.5
53455.6
53504.7
53587.5
53711.7
53849.1
54013.9
54170.6
54340
54501.5
54659.9
54807.1
54955.6
55100.8
55229.7
55292.9
55346.3
55308.4
55335.1
55256.2
55287.5
55233.4
55380.1
55014.2
55145.7
54588.4
58112.1
58188.5
58318.2
58539.1
58784.6
59086.5
59380.9
59708
60034.4
60368.4
60681.5
60980.6
61238
61455.4
61619.2
61738.7
61758.6
61828.2
61785.3
61825.2
61579.4
61733.3
61036.1
61530
60847.8
64060.7
64149.9
64244.2
64574.9
64842.6
65310.6
65712.4
66200.1
66690.8
67202.2
67686
68135.6
68508.7
68841.6
69122
69367.2
69457.6
69593.2
69471.2
69541.9
69274.5
69427.3
68837.5
69107.2
68347.9
72001.2
72078.1
72194.4
72459.4
72788.2
73233.6
73703.5
74239
74811.2
75417.8
76017.3
76598.8
77087.1
77537.5
77902.6
78244.6
78358.5
78557.6
78366.7
78473.1
78149.5
78323.9
77499.2
77822.3
76945.7
82643.8
82689.4
82696.2
82896.5
83116.1
83457.2
83828.7
84272.9
84785.1
85371.2
85981
86575.3
87105.1
87608.1
87983
88418.8
88572
88855.3
88679.7
88832
88372.8
88574.2
87581.9
87959.3
86904.6
96863.4
96875.9
96392.1
96470.8
96273
96388.3
96502.4
96731.1
97019.7
97429.8
97904.3
98411.5
98921.3
99446.1
99750.6
100246
100418
100798
100752
100968
100626
100830
99779.4
100310
99080.8
115320
115142
114424
114106
113420
113116
112629
112515
112298
112349
112472
112696
113010
113383
113712
114195
114147
114675
114600
114927
114632
114880
113937
114568
113230
138128
137602
136935
136214
135376
134545
133677
132842
132020
131244
130565
130151
129883
129914
130047
130277
130279
130721
130325
130937
130596
130925
130106
130694
129284
165099
164570
163763
162890
161812
160672
159443
158135
156708
155178
153652
152248
150989
149956
149128
148705
148348
148550
147800
148772
147719
148534
147605
148226
146982
197133
196601
195691
194663
193318