/*--------------------------------*- C++ -*----------------------------------*\
| =========                 |                                                 |
| \\      /  F ield         | OpenFOAM: The Open Source CFD Toolbox           |
|  \\    /   O peration     | Version:  2212                                  |
|   \\  /    A nd           | Website:  www.openfoam.com                      |
|    \\/     M anipulation  |                                                 |
\*---------------------------------------------------------------------------*/
FoamFile
{
    version     2.0;
    format      ascii;
    arch        "LSB;label=32;scalar=64";
    class       surfaceScalarField;
    location    "0.000144";
    object      phi;
}
// * * * * * * * * * * * * * * * * * * * * * * * * * * * * * * * * * * * * * //

dimensions      [1 0 -1 0 0 0 0];

oriented        oriented;

internalField   nonuniform List<scalar> 
20680
(
-1.08733e-10
-2.73498e-08
3.35408e-11
-2.60625e-10
-4.66038e-08
-4.75932e-10
-6.57544e-08
-7.65031e-10
-8.32164e-08
-1.15065e-09
-1.0124e-07
-1.57935e-09
-1.16066e-07
-2.06178e-09
-1.32484e-07
-2.62555e-09
-1.55709e-07
-3.43721e-09
-1.83685e-07
-4.44307e-09
-2.1291e-07
-5.6921e-09
-2.40686e-07
-6.87385e-09
-2.67127e-07
-8.43486e-09
-2.89853e-07
-9.75111e-09
-3.05801e-07
-1.01692e-08
-3.00658e-07
-9.50867e-09
-2.54957e-07
-5.5652e-09
-1.7361e-07
-3.30799e-09
-1.14476e-07
-2.00673e-09
-8.34886e-08
-1.15627e-09
-6.19581e-08
-4.06846e-10
-5.09422e-08
2.31015e-10
-4.33726e-08
7.18187e-10
-3.56685e-08
5.18258e-10
-2.74439e-08
-1.57361e-08
-1.09235e-10
-2.7378e-08
3.15158e-11
-2.25976e-10
-4.64073e-08
-4.06479e-10
-6.56259e-08
-6.66705e-10
-8.30581e-08
-9.63511e-10
-1.00689e-07
-1.30657e-09
-1.15726e-07
-1.69442e-09
-1.31818e-07
-2.14114e-09
-1.54862e-07
-2.72061e-09
-1.8308e-07
-3.49253e-09
-2.11985e-07
-4.37651e-09
-2.39508e-07
-5.33241e-09
-2.65776e-07
-6.40539e-09
-2.88813e-07
-7.29078e-09
-3.04923e-07
-7.55931e-09
-3.00612e-07
-6.32647e-09
-2.57447e-07
-4.29596e-09
-1.748e-07
-2.61861e-09
-1.15646e-07
-1.66122e-09
-8.41972e-08
-1.06627e-09
-6.24826e-08
-5.73794e-10
-5.13313e-08
-2.26656e-11
-4.37027e-08
3.64248e-10
-3.55656e-08
5.53014e-10
-2.66867e-08
-1.35517e-08
-1.21805e-10
-2.73249e-08
3.43852e-11
-2.45665e-10
-4.60259e-08
-4.33567e-10
-6.53675e-08
-7.06678e-10
-8.28216e-08
-1.00889e-09
-1.00225e-07
-1.36813e-09
-1.15203e-07
-1.78356e-09
-1.31106e-07
-2.26005e-09
-1.53886e-07
-2.85468e-09
-1.8231e-07
-3.65569e-09
-2.11029e-07
-4.56101e-09
-2.37988e-07
-5.53047e-09
-2.63908e-07
-6.59976e-09
-2.85841e-07
-7.48755e-09
-3.04274e-07
-7.70924e-09
-3.00075e-07
-6.30091e-09
-2.5841e-07
-4.29543e-09
-1.75983e-07
-2.81128e-09
-1.16709e-07
-1.86059e-09
-8.494e-08
-1.32255e-09
-6.29319e-08
-9.91705e-10
-5.15479e-08
-6.81715e-10
-4.37961e-08
-4.60479e-10
-3.52845e-08
-3.7026e-10
-2.57899e-08
-1.22517e-08
-1.51908e-10
-2.71975e-08
4.06672e-11
-3.0744e-10
-4.5785e-08
-5.26326e-10
-6.50283e-08
-8.52115e-10
-8.23043e-08
-1.20037e-09
-9.96848e-08
-1.62367e-09
-1.14484e-07
-2.11746e-09
-1.30238e-07
-2.66829e-09
-1.52749e-07
-3.32139e-09
-1.80935e-07
-4.18734e-09
-2.09495e-07
-5.1855e-09
-2.35912e-07
-6.29178e-09
-2.61917e-07
-7.44295e-09
-2.84654e-07
-8.3369e-09
-3.03095e-07
-8.51876e-09
-2.99267e-07
-6.82042e-09
-2.59213e-07
-4.66113e-09
-1.76765e-07
-3.15281e-09
-1.17469e-07
-2.11251e-09
-8.57785e-08
-1.53101e-09
-6.33933e-08
-1.1907e-09
-5.1758e-08
-9.23171e-10
-4.38461e-08
-8.5846e-10
-3.48286e-08
-7.40884e-10
-2.49278e-08
-1.12771e-08
-1.56341e-10
-2.70435e-08
4.08735e-11
-3.23387e-10
-4.56088e-08
-5.4536e-10
-6.45423e-08
-8.96871e-10
-8.17862e-08
-1.25603e-09
-9.89917e-08
-1.70306e-09
-1.13684e-07
-2.22708e-09
-1.29266e-07
-2.80853e-09
-1.51711e-07
-3.5051e-09
-1.79677e-07
-4.40556e-09
-2.08264e-07
-5.45646e-09
-2.34111e-07
-6.64663e-09
-2.6006e-07
-7.80894e-09
-2.83112e-07
-8.69066e-09
-3.01433e-07
-8.83668e-09
-2.97952e-07
-7.12286e-09
-2.59041e-07
-4.96225e-09
-1.77772e-07
-3.4029e-09
-1.18081e-07
-2.33697e-09
-8.66709e-08
-1.72594e-09
-6.38601e-08
-1.43183e-09
-5.19092e-08
-1.27401e-09
-4.3781e-08
-1.23278e-09
-3.43536e-08
-9.31359e-10
-2.42053e-08
-1.04823e-08
-1.4096e-10
-2.6971e-08
3.82063e-11
-2.89777e-10
-4.56105e-08
-4.95598e-10
-6.42498e-08
-8.41619e-10
-8.13508e-08
-1.18994e-09
-9.80904e-08
-1.62561e-09
-1.12712e-07
-2.12639e-09
-1.28377e-07
-2.66017e-09
-1.50746e-07
-3.33092e-09
-1.7852e-07
-4.23181e-09
-2.0699e-07
-5.26482e-09
-2.32603e-07
-6.43019e-09
-2.582e-07
-7.54872e-09
-2.81603e-07
-8.41844e-09
-2.99851e-07
-8.43429e-09
-2.966e-07
-6.85982e-09
-2.5504e-07
-4.8203e-09
-1.79262e-07
-3.30998e-09
-1.18932e-07
-2.30805e-09
-8.74668e-08
-1.71681e-09
-6.42963e-08
-1.37546e-09
-5.21029e-08
-1.28249e-09
-4.36661e-08
-1.29911e-09
-3.38634e-08
-1.05269e-09
-2.35367e-08
-9.93135e-09
-1.21464e-10
-2.70131e-08
3.45891e-11
-2.50264e-10
-4.59011e-08
-4.49426e-10
-6.3994e-08
-7.81748e-10
-8.09778e-08
-1.11488e-09
-9.74816e-08
-1.52457e-09
-1.12046e-07
-1.98819e-09
-1.27607e-07
-2.48375e-09
-1.49886e-07
-3.12918e-09
-1.7743e-07
-3.99392e-09
-2.05816e-07
-4.9843e-09
-2.31268e-07
-6.08128e-09
-2.56345e-07
-7.12934e-09
-2.80351e-07
-7.98739e-09
-2.98782e-07
-7.93152e-09
-2.95983e-07
-6.54885e-09
-2.54334e-07
-4.63003e-09
-1.80217e-07
-3.18913e-09
-1.19974e-07
-2.26733e-09
-8.80028e-08
-1.71739e-09
-6.46869e-08
-1.43184e-09
-5.22492e-08
-1.33292e-09
-4.35697e-08
-1.28325e-09
-3.3442e-08
-9.75407e-10
-2.29597e-08
-9.46461e-09
-9.46643e-11
-2.69582e-08
2.82169e-11
-2.01554e-10
-4.5545e-08
-4.01741e-10
-6.39371e-08
-6.97092e-10
-8.08187e-08
-1.00873e-09
-9.71676e-08
-1.39047e-09
-1.11487e-07
-1.82125e-09
-1.27052e-07
-2.28458e-09
-1.49345e-07
-2.89393e-09
-1.76772e-07
-3.70291e-09
-2.04893e-07
-4.64388e-09
-2.30094e-07
-5.68956e-09
-2.54941e-07
-6.68377e-09
-2.79031e-07
-7.50707e-09
-2.97265e-07
-7.40026e-09
-2.95092e-07
-6.18359e-09
-2.54966e-07
-4.32782e-09
-1.80569e-07
-2.96813e-09
-1.20979e-07
-2.16668e-09
-8.83972e-08
-1.64909e-09
-6.50406e-08
-1.35897e-09
-5.241e-08
-1.19106e-09
-4.35516e-08
-1.18655e-09
-3.30458e-08
-9.4091e-10
-2.23956e-08
-9.09943e-09
-5.37437e-11
-2.68041e-08
1.98984e-11
-1.46106e-10
-4.51759e-08
-3.0989e-10
-6.41041e-08
-5.26224e-10
-8.11007e-08
-8.0388e-10
-9.74256e-08
-1.13317e-09
-1.11523e-07
-1.4958e-09
-1.2686e-07
-1.92759e-09
-1.49213e-07
-2.47916e-09
-1.7676e-07
-3.15874e-09
-2.04513e-07
-4.02816e-09
-2.29317e-07
-4.95555e-09
-2.54086e-07
-5.91209e-09
-2.78035e-07
-6.66305e-09
-2.95899e-07
-6.64472e-09
-2.94123e-07
-5.62964e-09
-2.5606e-07
-3.94702e-09
-1.80947e-07
-2.71011e-09
-1.21586e-07
-2.0598e-09
-8.85958e-08
-1.59352e-09
-6.52549e-08
-1.30987e-09
-5.25197e-08
-1.13192e-09
-4.35337e-08
-1.05072e-09
-3.27351e-08
-8.23474e-10
-2.1877e-08
-8.74065e-09
-2.53839e-11
-2.66711e-08
8.47053e-12
-9.01055e-11
-4.52311e-08
-2.03754e-10
-6.40439e-08
-3.44714e-10
-8.10342e-08
-5.43253e-10
-9.75522e-08
-8.03751e-10
-1.11596e-07
-1.1087e-09
-1.26764e-07
-1.44586e-09
-1.4891e-07
-1.86079e-09
-1.76143e-07
-2.41757e-09
-2.03896e-07
-3.12315e-09
-2.28615e-07
-3.93826e-09
-2.53161e-07
-4.78411e-09
-2.76951e-07
-5.42902e-09
-2.94977e-07
-5.44829e-09
-2.93321e-07
-4.65436e-09
-2.56669e-07
-3.23823e-09
-1.81722e-07
-2.21633e-09
-1.2204e-07
-1.71144e-09
-8.86331e-08
-1.35865e-09
-6.53541e-08
-1.09035e-09
-5.26122e-08
-9.29971e-10
-4.35184e-08
-8.78872e-10
-3.24686e-08
-6.96215e-10
-2.1436e-08
-8.45386e-09
-2.60261e-11
-2.66056e-08
4.97856e-12
-8.00394e-11
-4.51074e-08
-1.719e-10
-6.3735e-08
-3.01962e-10
-8.075e-08
-4.82057e-10
-9.74261e-08
-7.05099e-10
-1.11518e-07
-9.72022e-10
-1.26564e-07
-1.28221e-09
-1.48583e-07
-1.64045e-09
-1.75641e-07
-2.1475e-09
-2.03496e-07
-2.81169e-09
-2.28429e-07
-3.53968e-09
-2.52574e-07
-4.32206e-09
-2.75953e-07
-4.87794e-09
-2.94121e-07
-4.90375e-09
-2.9257e-07
-4.21987e-09
-2.56594e-07
-2.93713e-09
-1.82925e-07
-2.00353e-09
-1.22258e-07
-1.55328e-09
-8.85982e-08
-1.24999e-09
-6.53885e-08
-1.03015e-09
-5.26633e-08
-8.67126e-10
-4.35044e-08
-7.56079e-10
-3.23002e-08
-5.73737e-10
-2.10892e-08
-8.18864e-09
-3.90421e-11
-2.65511e-08
9.17703e-12
-1.00751e-10
-4.49036e-08
-2.09432e-10
-6.3596e-08
-3.86293e-10
-8.06208e-08
-5.53007e-10
-9.71857e-08
-7.97571e-10
-1.11368e-07
-1.08337e-09
-1.26346e-07
-1.41108e-09
-1.48257e-07
-1.79579e-09
-1.75171e-07
-2.31783e-09
-2.02943e-07
-2.9978e-09
-2.27987e-07
-3.73133e-09
-2.51988e-07
-4.55382e-09
-2.75088e-07
-5.05127e-09
-2.93408e-07
-5.05359e-09
-2.91954e-07
-4.32741e-09
-2.56482e-07
-2.97382e-09
-1.83826e-07
-2.01046e-09
-1.2276e-07
-1.55557e-09
-8.87564e-08
-1.24862e-09
-6.54137e-08
-1.03368e-09
-5.26952e-08
-8.68461e-10
-4.34959e-08
-7.43486e-10
-3.21688e-08
-5.35762e-10
-2.08172e-08
-7.95522e-09
-7.35195e-11
-2.64177e-08
2.07237e-11
-1.84613e-10
-4.46567e-08
-3.52851e-10
-6.33195e-08
-5.79541e-10
-8.02373e-08
-8.49444e-10
-9.67292e-08
-1.17464e-09
-1.11009e-07
-1.55449e-09
-1.26064e-07
-1.98846e-09
-1.47837e-07
-2.49859e-09
-1.74604e-07
-3.16316e-09
-2.02311e-07
-4.00017e-09
-2.27178e-07
-4.87677e-09
-2.51172e-07
-5.79306e-09
-2.73797e-07
-6.33317e-09
-2.92327e-07
-6.30817e-09
-2.9124e-07
-5.35365e-09
-2.56812e-07
-3.65156e-09
-1.85678e-07
-2.45293e-09
-1.23665e-07
-1.87786e-09
-8.97779e-08
-1.4898e-09
-6.55305e-08
-1.23345e-09
-5.27527e-08
-1.01731e-09
-4.35108e-08
-8.25043e-10
-3.20948e-08
-5.61595e-10
-2.06004e-08
-7.73653e-09
-8.96432e-11
-2.62825e-08
2.49547e-11
-2.18386e-10
-4.44382e-08
-4.12764e-10
-6.2914e-08
-6.52348e-10
-7.97363e-08
-9.80898e-10
-9.62276e-08
-1.33124e-09
-1.10469e-07
-1.752e-09
-1.25562e-07
-2.2334e-09
-1.47316e-07
-2.81863e-09
-1.74067e-07
-3.5517e-09
-2.01521e-07
-4.44436e-09
-2.26155e-07
-5.38618e-09
-2.50033e-07
-6.36075e-09
-2.72734e-07
-7.02761e-09
-2.91016e-07
-7.02871e-09
-2.90958e-07
-5.99094e-09
-2.57734e-07
-3.98005e-09
-1.88954e-07
-2.70224e-09
-1.24922e-07
-1.99046e-09
-9.18669e-08
-1.58792e-09
-6.57074e-08
-1.31772e-09
-5.28012e-08
-1.07649e-09
-4.35277e-08
-8.71653e-10
-3.20304e-08
-5.77934e-10
-2.04331e-08
-7.55859e-09
-9.15804e-11
-2.6132e-08
2.61477e-11
-2.22174e-10
-4.42227e-08
-4.26463e-10
-6.26093e-08
-6.74728e-10
-7.937e-08
-1.01033e-09
-9.57205e-08
-1.35006e-09
-1.09897e-07
-1.78551e-09
-1.25019e-07
-2.29526e-09
-1.46785e-07
-2.89817e-09
-1.73382e-07
-3.64629e-09
-2.00396e-07
-4.54093e-09
-2.2473e-07
-5.53372e-09
-2.48847e-07
-6.50678e-09
-2.7174e-07
-7.28663e-09
-2.89928e-07
-7.32612e-09
-2.90799e-07
-6.1323e-09
-2.59124e-07
-4.08291e-09
-1.88341e-07
-2.73911e-09
-1.25764e-07
-1.97057e-09
-9.19679e-08
-1.58443e-09
-6.5957e-08
-1.31182e-09
-5.28648e-08
-1.0788e-09
-4.35379e-08
-8.43354e-10
-3.19932e-08
-5.45985e-10
-2.03145e-08
-7.42753e-09
-1.0643e-10
-2.60195e-08
2.68285e-11
-2.41217e-10
-4.3999e-08
-4.64025e-10
-6.23e-08
-7.03448e-10
-7.89867e-08
-1.04921e-09
-9.52991e-08
-1.41163e-09
-1.09363e-07
-1.86408e-09
-1.2436e-07
-2.39737e-09
-1.46087e-07
-3.0126e-09
-1.72624e-07
-3.78178e-09
-1.9943e-07
-4.71176e-09
-2.23536e-07
-5.72912e-09
-2.4743e-07
-6.70228e-09
-2.70123e-07
-7.59858e-09
-2.88807e-07
-7.67321e-09
-2.90465e-07
-6.27932e-09
-2.59874e-07
-4.18796e-09
-1.8788e-07
-2.71208e-09
-1.26516e-07
-1.9529e-09
-9.19099e-08
-1.5641e-09
-6.6245e-08
-1.28897e-09
-5.29657e-08
-1.05546e-09
-4.35566e-08
-8.17352e-10
-3.19614e-08
-5.13639e-10
-2.02403e-08
-7.34835e-09
-1.07395e-10
-2.59419e-08
2.75907e-11
-2.47604e-10
-4.38296e-08
-4.64965e-10
-6.20504e-08
-7.23161e-10
-7.86975e-08
-1.06264e-09
-9.48686e-08
-1.43478e-09
-1.0888e-07
-1.89256e-09
-1.2375e-07
-2.42957e-09
-1.45327e-07
-3.05434e-09
-1.71774e-07
-3.84017e-09
-1.9857e-07
-4.76252e-09
-2.22398e-07
-5.77845e-09
-2.45953e-07
-6.82033e-09
-2.68499e-07
-7.73251e-09
-2.87567e-07
-7.81291e-09
-2.90131e-07
-6.36187e-09
-2.59769e-07
-4.33328e-09
-1.88713e-07
-2.69618e-09
-1.27252e-07
-1.93974e-09
-9.17577e-08
-1.52097e-09
-6.65571e-08
-1.24121e-09
-5.31181e-08
-1.01465e-09
-4.36014e-08
-7.61611e-10
-3.19677e-08
-4.64322e-10
-2.02046e-08
-7.3093e-09
-1.06254e-10
-2.58365e-08
2.62849e-11
-2.43881e-10
-4.36653e-08
-4.60364e-10
-6.18358e-08
-7.1423e-10
-7.84353e-08
-1.05207e-09
-9.44885e-08
-1.43134e-09
-1.08502e-07
-1.87518e-09
-1.23317e-07
-2.39922e-09
-1.44709e-07
-3.02204e-09
-1.71017e-07
-3.79365e-09
-1.9783e-07
-4.71198e-09
-2.21455e-07
-5.72752e-09
-2.44686e-07
-6.76162e-09
-2.6714e-07
-7.72877e-09
-2.86414e-07
-7.79977e-09
-2.89459e-07
-6.42836e-09
-2.59828e-07
-4.30882e-09
-1.90238e-07
-2.65205e-09
-1.27914e-07
-1.90609e-09
-9.15403e-08
-1.45748e-09
-6.68303e-08
-1.16914e-09
-5.33295e-08
-9.51599e-10
-4.3688e-08
-7.043e-10
-3.20092e-08
-4.15071e-10
-2.02025e-08
-7.30103e-09
-1.14682e-10
-2.57021e-08
2.96215e-11
-2.6552e-10
-4.3471e-08
-4.88216e-10
-6.15931e-08
-7.67175e-10
-7.81954e-08
-1.1278e-09
-9.4213e-08
-1.53338e-09
-1.08157e-07
-1.99214e-09
-1.229e-07
-2.53189e-09
-1.44198e-07
-3.18567e-09
-1.70363e-07
-3.98147e-09
-1.96915e-07
-4.91715e-09
-2.20401e-07
-5.95086e-09
-2.43443e-07
-7.01429e-09
-2.65885e-07
-8.00177e-09
-2.85161e-07
-8.04486e-09
-2.88587e-07
-6.71726e-09
-2.59842e-07
-4.55846e-09
-1.92155e-07
-2.74143e-09
-1.28857e-07
-1.97101e-09
-9.16515e-08
-1.44702e-09
-6.71011e-08
-1.1374e-09
-5.35514e-08
-8.9921e-10
-4.38235e-08
-6.54727e-10
-3.21053e-08
-3.70386e-10
-2.02399e-08
-7.31884e-09
-1.37641e-10
-2.55622e-08
3.47508e-11
-3.13172e-10
-4.32421e-08
-5.74363e-10
-6.12398e-08
-8.86296e-10
-7.77473e-08
-1.28109e-09
-9.36844e-08
-1.73619e-09
-1.07543e-07
-2.24595e-09
-1.22193e-07
-2.84958e-09
-1.43388e-07
-3.55869e-09
-1.69408e-07
-4.3953e-09
-1.95765e-07
-5.38724e-09
-2.19204e-07
-6.4864e-09
-2.42166e-07
-7.5798e-09
-2.64479e-07
-8.56816e-09
-2.83614e-07
-8.57876e-09
-2.87818e-07
-7.22416e-09
-2.60227e-07
-4.85015e-09
-1.94471e-07
-2.97555e-09
-1.30399e-07
-2.07075e-09
-9.21866e-08
-1.51087e-09
-6.73764e-08
-1.15141e-09
-5.37818e-08
-8.80933e-10
-4.4004e-08
-6.26045e-10
-3.22489e-08
-3.37132e-10
-2.03271e-08
-7.36475e-09
-1.57586e-10
-2.54101e-08
3.99759e-11
-3.52937e-10
-4.29741e-08
-6.40727e-10
-6.08591e-08
-9.90559e-10
-7.72516e-08
-1.42136e-09
-9.3038e-08
-1.90751e-09
-1.06747e-07
-2.4594e-09
-1.21325e-07
-3.11193e-09
-1.42442e-07
-3.87817e-09
-1.6831e-07
-4.76872e-09
-1.94612e-07
-5.78681e-09
-2.17924e-07
-6.90181e-09
-2.40745e-07
-8.01197e-09
-2.62985e-07
-9.06356e-09
-2.82458e-07
-9.06614e-09
-2.87294e-07
-7.66668e-09
-2.61269e-07
-5.23375e-09
-1.96888e-07
-3.19517e-09
-1.3234e-07
-2.16274e-09
-9.28327e-08
-1.56627e-09
-6.76789e-08
-1.17352e-09
-5.39948e-08
-8.70599e-10
-4.4201e-08
-5.96393e-10
-3.24245e-08
-3.06197e-10
-2.04568e-08
-7.43525e-09
-1.6715e-10
-2.5254e-08
4.2027e-11
-3.74556e-10
-4.27198e-08
-6.70086e-10
-6.05181e-08
-1.04131e-09
-7.68324e-08
-1.49432e-09
-9.25185e-08
-1.99417e-09
-1.06183e-07
-2.56678e-09
-1.207e-07
-3.24137e-09
-1.41735e-07
-4.03937e-09
-1.67421e-07
-4.95077e-09
-1.93523e-07
-5.97556e-09
-2.16527e-07
-7.10747e-09
-2.39192e-07
-8.25222e-09
-2.61495e-07
-9.28477e-09
-2.81001e-07
-9.34498e-09
-2.86754e-07
-8.17235e-09
-2.62447e-07
-5.48854e-09
-1.99158e-07
-3.32482e-09
-1.34175e-07
-2.19927e-09
-9.35614e-08
-1.59148e-09
-6.80134e-08
-1.18041e-09
-5.42043e-08
-8.58728e-10
-4.43854e-08
-5.70925e-10
-3.26072e-08
-2.82189e-10
-2.0613e-08
-7.52105e-09
-1.64299e-10
-2.51227e-08
4.06087e-11
-3.60043e-10
-4.2491e-08
-6.46242e-10
-6.01805e-08
-9.95853e-10
-7.64144e-08
-1.43356e-09
-9.20681e-08
-1.9298e-09
-1.05777e-07
-2.48546e-09
-1.20253e-07
-3.12493e-09
-1.41172e-07
-3.90595e-09
-1.66744e-07
-4.7904e-09
-1.9254e-07
-5.79132e-09
-2.15307e-07
-6.89894e-09
-2.37778e-07
-8.01857e-09
-2.60048e-07
-9.09415e-09
-2.79565e-07
-9.27943e-09
-2.86234e-07
-8.41548e-09
-2.63684e-07
-5.54487e-09
-2.01032e-07
-3.20672e-09
-1.35886e-07
-2.13627e-09
-9.44587e-08
-1.54971e-09
-6.84227e-08
-1.14796e-09
-5.44337e-08
-8.30635e-10
-4.45617e-08
-5.3919e-10
-3.27692e-08
-2.55908e-10
-2.07763e-08
-7.61176e-09
-1.45253e-10
-2.5014e-08
3.59586e-11
-3.20671e-10
-4.23026e-08
-5.73167e-10
-5.99083e-08
-8.99565e-10
-7.60941e-08
-1.29815e-09
-9.1707e-08
-1.74821e-09
-1.0533e-07
-2.26259e-09
-1.19736e-07
-2.86488e-09
-1.40541e-07
-3.58041e-09
-1.65968e-07
-4.40862e-09
-1.91681e-07
-5.36495e-09
-2.14275e-07
-6.42847e-09
-2.36525e-07
-7.54014e-09
-2.58739e-07
-8.60321e-09
-2.78351e-07
-8.92363e-09
-2.85809e-07
-8.15788e-09
-2.64465e-07
-5.37296e-09
-2.02861e-07
-3.06098e-09
-1.37678e-07
-2.00325e-09
-9.54197e-08
-1.44395e-09
-6.88797e-08
-1.06964e-09
-5.46813e-08
-7.78262e-10
-4.47312e-08
-5.0468e-10
-3.29097e-08
-2.34498e-10
-2.09204e-08
-7.70205e-09
-1.2847e-10
-2.49048e-08
3.23657e-11
-2.8951e-10
-4.21392e-08
-5.29443e-10
-5.96749e-08
-8.22477e-10
-7.57977e-08
-1.17842e-09
-9.12988e-08
-1.60022e-09
-1.0484e-07
-2.0728e-09
-1.19195e-07
-2.63058e-09
-1.39892e-07
-3.30552e-09
-1.65094e-07
-4.08807e-09
-1.90755e-07
-4.99889e-09
-2.13297e-07
-6.0276e-09
-2.35499e-07
-7.14772e-09
-2.57611e-07
-8.1882e-09
-2.77129e-07
-8.58482e-09
-2.85293e-07
-7.75091e-09
-2.64766e-07
-5.22803e-09
-2.04606e-07
-2.91596e-09
-1.39661e-07
-1.85984e-09
-9.65166e-08
-1.3486e-09
-6.93693e-08
-1.0031e-09
-5.49512e-08
-7.27203e-10
-4.49152e-08
-4.7511e-10
-3.30461e-08
-2.20882e-10
-2.10496e-08
-7.78511e-09
-1.29967e-10
-2.47891e-08
3.26728e-11
-2.95241e-10
-4.19605e-08
-5.31234e-10
-5.94157e-08
-8.32986e-10
-7.54319e-08
-1.19614e-09
-9.08253e-08
-1.61418e-09
-1.04297e-07
-2.07772e-09
-1.18579e-07
-2.63164e-09
-1.39217e-07
-3.30908e-09
-1.6433e-07
-4.08723e-09
-1.89715e-07
-4.98295e-09
-2.12156e-07
-6.00634e-09
-2.34468e-07
-7.11647e-09
-2.56466e-07
-8.14803e-09
-2.75948e-07
-8.55718e-09
-2.84716e-07
-7.63672e-09
-2.65087e-07
-5.267e-09
-2.06335e-07
-2.95642e-09
-1.42437e-07
-1.84533e-09
-9.75224e-08
-1.3112e-09
-6.98615e-08
-9.65942e-10
-5.52485e-08
-7.05881e-10
-4.51262e-08
-4.635e-10
-3.31925e-08
-2.14693e-10
-2.11719e-08
-7.85941e-09
-1.33274e-10
-2.46734e-08
3.35256e-11
-3.01565e-10
-4.17549e-08
-5.38517e-10
-5.91177e-08
-8.34593e-10
-7.50616e-08
-1.19387e-09
-9.03906e-08
-1.61072e-09
-1.03774e-07
-2.07844e-09
-1.17987e-07
-2.62073e-09
-1.38521e-07
-3.28193e-09
-1.63563e-07
-4.05475e-09
-1.88805e-07
-4.93243e-09
-2.11066e-07
-5.91315e-09
-2.33239e-07
-6.97938e-09
-2.55208e-07
-7.96621e-09
-2.74639e-07
-8.38031e-09
-2.84262e-07
-7.49475e-09
-2.65448e-07
-5.30701e-09
-2.08223e-07
-2.97588e-09
-1.44571e-07
-1.82956e-09
-9.84785e-08
-1.28061e-09
-7.03215e-08
-9.28718e-10
-5.55395e-08
-6.73459e-10
-4.53422e-08
-4.4623e-10
-3.33485e-08
-2.08054e-10
-2.12877e-08
-7.92531e-09
-1.21127e-10
-2.45581e-08
3.12393e-11
-2.72361e-10
-4.15574e-08
-4.85595e-10
-5.88458e-08
-7.58311e-10
-7.47292e-08
-1.08847e-09
-9.00195e-08
-1.46815e-09
-1.03386e-07
-1.90022e-09
-1.17569e-07
-2.40568e-09
-1.37972e-07
-3.00427e-09
-1.62848e-07
-3.71959e-09
-1.8808e-07
-4.54086e-09
-2.10274e-07
-5.45036e-09
-2.32199e-07
-6.42902e-09
-2.54033e-07
-7.38332e-09
-2.73516e-07
-7.79434e-09
-2.84117e-07
-7.00138e-09
-2.65846e-07
-4.98765e-09
-2.09787e-07
-2.89432e-09
-1.44594e-07
-1.72672e-09
-9.93184e-08
-1.17049e-09
-7.0748e-08
-8.35604e-10
-5.581e-08
-6.00594e-10
-4.55353e-08
-4.03738e-10
-3.34942e-08
-1.94797e-10
-2.13926e-08
-7.98376e-09
-1.02278e-10
-2.44538e-08
2.61516e-11
-2.31013e-10
-4.13798e-08
-4.17777e-10
-5.8599e-08
-6.55088e-10
-7.44573e-08
-9.4208e-10
-8.96918e-08
-1.27759e-09
-1.03004e-07
-1.65307e-09
-1.17123e-07
-2.10154e-09
-1.37469e-07
-2.64897e-09
-1.62203e-07
-3.29952e-09
-1.87336e-07
-4.04841e-09
-2.09495e-07
-4.89453e-09
-2.31368e-07
-5.80908e-09
-2.53025e-07
-6.76669e-09
-2.72757e-07
-7.16886e-09
-2.84106e-07
-6.56743e-09
-2.66028e-07
-4.62359e-09
-2.11314e-07
-2.81894e-09
-1.44743e-07
-1.62566e-09
-1.0013e-07
-1.06418e-09
-7.11623e-08
-7.45349e-10
-5.60769e-08
-5.25484e-10
-4.57092e-08
-3.54704e-10
-3.36247e-08
-1.77004e-10
-2.14832e-08
-8.03297e-09
-9.00663e-11
-2.43772e-08
2.33847e-11
-2.05341e-10
-4.12406e-08
-3.73408e-10
-5.83968e-08
-5.86193e-10
-7.41873e-08
-8.48061e-10
-8.93706e-08
-1.1497e-09
-1.02626e-07
-1.49784e-09
-1.16693e-07
-1.91904e-09
-1.36985e-07
-2.43525e-09
-1.61608e-07
-3.05221e-09
-1.86547e-07
-3.76597e-09
-2.08602e-07
-4.58173e-09
-2.30466e-07
-5.49132e-09
-2.52085e-07
-6.46576e-09
-2.72033e-07
-6.86512e-09
-2.83834e-07
-6.39623e-09
-2.66128e-07
-4.5216e-09
-2.14027e-07
-2.86447e-09
-1.46125e-07
-1.60063e-09
-1.00954e-07
-1.00067e-09
-7.16032e-08
-6.86096e-10
-5.63632e-08
-4.74094e-10
-4.58866e-08
-3.1451e-10
-3.37534e-08
-1.61487e-10
-2.15686e-08
-8.07679e-09
-1.04993e-10
-2.43038e-08
2.73374e-11
-2.39032e-10
-4.11114e-08
-4.33398e-10
-5.81895e-08
-6.74507e-10
-7.38884e-08
-9.66461e-10
-8.89949e-08
-1.31293e-09
-1.02206e-07
-1.69618e-09
-1.16226e-07
-2.15111e-09
-1.36433e-07
-2.72242e-09
-1.60985e-07
-3.41099e-09
-1.85803e-07
-4.19015e-09
-2.07733e-07
-5.06863e-09
-2.29427e-07
-6.04552e-09
-2.51006e-07
-7.09273e-09
-2.71152e-07
-7.47276e-09
-2.82991e-07
-7.16554e-09
-2.66358e-07
-5.0397e-09
-2.14847e-07
-3.15464e-09
-1.48446e-07
-1.79559e-09
-1.02126e-07
-1.11507e-09
-7.21085e-08
-7.43866e-10
-5.66984e-08
-4.95414e-10
-4.61072e-08
-3.10829e-10
-3.39112e-08
-1.53312e-10
-2.16791e-08
-8.12563e-09
-1.22924e-10
-2.42005e-08
3.19302e-11
-2.75345e-10
-4.09289e-08
-4.9522e-10
-5.79183e-08
-7.72722e-10
-7.35417e-08
-1.1053e-09
-8.85475e-08
-1.48353e-09
-1.0167e-07
-1.91792e-09
-1.15622e-07
-2.4295e-09
-1.35704e-07
-3.04762e-09
-1.60165e-07
-3.79372e-09
-1.84925e-07
-4.63404e-09
-2.06734e-07
-5.57277e-09
-2.28316e-07
-6.63233e-09
-2.49886e-07
-7.82452e-09
-2.70042e-07
-8.0988e-09
-2.81633e-07
-7.63774e-09
-2.66559e-07
-5.65507e-09
-2.15782e-07
-3.45928e-09
-1.51241e-07
-1.98818e-09
-1.03663e-07
-1.23195e-09
-7.27506e-08
-8.03058e-10
-5.70871e-08
-5.15408e-10
-4.63833e-08
-3.04812e-10
-3.41099e-08
-1.40145e-10
-2.18192e-08
-8.18547e-09
-1.27796e-10
-2.40711e-08
3.35979e-11
-2.86968e-10
-4.072e-08
-5.1799e-10
-5.76344e-08
-8.05185e-10
-7.3192e-08
-1.14749e-09
-8.81429e-08
-1.54308e-09
-1.01203e-07
-1.98974e-09
-1.15095e-07
-2.52127e-09
-1.35079e-07
-3.1574e-09
-1.59328e-07
-3.91404e-09
-1.83911e-07
-4.7738e-09
-2.05583e-07
-5.73778e-09
-2.27105e-07
-6.8103e-09
-2.48666e-07
-7.97033e-09
-2.68709e-07
-8.44446e-09
-2.80486e-07
-7.76227e-09
-2.66606e-07
-6.1273e-09
-2.16967e-07
-3.63064e-09
-1.54493e-07
-2.06001e-09
-1.05243e-07
-1.29665e-09
-7.34495e-08
-8.27408e-10
-5.74889e-08
-5.12142e-10
-4.66848e-08
-2.8508e-10
-3.43369e-08
-1.17716e-10
-2.19831e-08
-8.25511e-09
-1.16967e-10
-2.39504e-08
3.09649e-11
-2.6391e-10
-4.05221e-08
-4.73218e-10
-5.73551e-08
-7.40045e-10
-7.2857e-08
-1.06329e-09
-8.77627e-08
-1.43174e-09
-1.00793e-07
-1.84483e-09
-1.14623e-07
-2.33312e-09
-1.34546e-07
-2.93833e-09
-1.58694e-07
-3.65572e-09
-1.83061e-07
-4.4714e-09
-2.04559e-07
-5.39768e-09
-2.25973e-07
-6.43578e-09
-2.4753e-07
-7.46416e-09
-2.6748e-07
-8.03576e-09
-2.79516e-07
-7.47051e-09
-2.66872e-07
-6.19971e-09
-2.196e-07
-3.51803e-09
-1.60524e-07
-1.98113e-09
-1.06828e-07
-1.23837e-09
-7.41765e-08
-7.82773e-10
-5.787e-08
-4.65537e-10
-4.69703e-08
-2.40794e-10
-3.45614e-08
-8.84351e-11
-2.21496e-08
-8.33005e-09
-1.13148e-10
-2.38399e-08
3.0577e-11
-2.53585e-10
-4.03226e-08
-4.57226e-10
-5.70663e-08
-7.13587e-10
-7.25032e-08
-1.02102e-09
-8.7332e-08
-1.37689e-09
-1.00283e-07
-1.78097e-09
-1.14055e-07
-2.2539e-09
-1.33882e-07
-2.82897e-09
-1.57945e-07
-3.52245e-09
-1.8225e-07
-4.32637e-09
-2.03668e-07
-5.23785e-09
-2.25043e-07
-6.23604e-09
-2.46556e-07
-7.22051e-09
-2.66298e-07
-7.77533e-09
-2.78387e-07
-7.49852e-09
-2.67423e-07
-6.35208e-09
-2.22938e-07
-3.42029e-09
-1.66186e-07
-1.93113e-09
-1.08465e-07
-1.22684e-09
-7.48935e-08
-7.77333e-10
-5.82534e-08
-4.52624e-10
-4.72437e-08
-2.18358e-10
-3.47833e-08
-6.57547e-11
-2.23205e-08
-8.4087e-09
-1.27764e-10
-2.37323e-08
3.3841e-11
-2.85794e-10
-4.0139e-08
-5.09496e-10
-5.68047e-08
-7.90638e-10
-7.21626e-08
-1.12723e-09
-8.69277e-08
-1.50908e-09
-9.98416e-08
-1.94378e-09
-1.13576e-07
-2.45847e-09
-1.33308e-07
-3.07078e-09
-1.57155e-07
-3.79592e-09
-1.81271e-07
-4.63199e-09
-2.0264e-07
-5.56776e-09
-2.23944e-07
-6.58259e-09
-2.45406e-07
-7.54753e-09
-2.65117e-07
-8.14073e-09
-2.77371e-07
-7.95851e-09
-2.67746e-07
-6.56799e-09
-2.2433e-07
-3.66675e-09
-1.67055e-07
-2.08641e-09
-1.10211e-07
-1.3221e-09
-7.5675e-08
-8.44856e-10
-5.86887e-08
-4.9136e-10
-4.75345e-08
-2.27479e-10
-3.50208e-08
-5.70317e-11
-2.25047e-08
-8.49455e-09
-1.49861e-10
-2.36192e-08
3.96885e-11
-3.34218e-10
-3.99545e-08
-5.96865e-10
-5.6532e-08
-9.2015e-10
-7.1812e-08
-1.30359e-09
-8.64993e-08
-1.73997e-09
-9.93548e-08
-2.2237e-09
-1.13019e-07
-2.77945e-09
-1.3263e-07
-3.44847e-09
-1.56376e-07
-4.24094e-09
-1.80378e-07
-5.15112e-09
-2.01671e-07
-6.15148e-09
-2.2288e-07
-7.19359e-09
-2.44174e-07
-8.15788e-09
-2.63639e-07
-8.80828e-09
-2.76427e-07
-8.61363e-09
-2.68076e-07
-6.95698e-09
-2.25055e-07
-4.08768e-09
-1.66683e-07
-2.3008e-09
-1.11972e-07
-1.47916e-09
-7.65422e-08
-9.5878e-10
-5.92057e-08
-5.68683e-10
-4.78657e-08
-2.67249e-10
-3.52812e-08
-6.0745e-11
-2.27091e-08
-8.59087e-09
-1.68472e-10
-2.34823e-08
4.39024e-11
-3.74119e-10
-3.97212e-08
-6.60821e-10
-5.62035e-08
-1.01753e-09
-7.13968e-08
-1.44094e-09
-8.60013e-08
-1.91292e-09
-9.87699e-08
-2.43739e-09
-1.12336e-07
-3.04526e-09
-1.3185e-07
-3.76472e-09
-1.55528e-07
-4.61203e-09
-1.79466e-07
-5.56367e-09
-2.00638e-07
-6.59902e-09
-2.21795e-07
-7.65315e-09
-2.42892e-07
-8.62222e-09
-2.62142e-07
-9.366e-09
-2.755e-07
-9.4062e-09
-2.68774e-07
-7.17372e-09
-2.26241e-07
-4.53921e-09
-1.66433e-07
-2.50901e-09
-1.13664e-07
-1.58631e-09
-7.7463e-08
-1.03898e-09
-5.97525e-08
-6.30267e-10
-4.82302e-08
-3.05179e-10
-3.55534e-08
-7.35559e-11
-2.29211e-08
-8.69098e-09
-1.61355e-10
-2.33343e-08
4.21729e-11
-3.56775e-10
-3.94763e-08
-6.36561e-10
-5.5869e-08
-9.80522e-10
-7.0998e-08
-1.38715e-09
-8.5545e-08
-1.84466e-09
-9.82596e-08
-2.35234e-09
-1.11779e-07
-2.94434e-09
-1.31221e-07
-3.64782e-09
-1.54729e-07
-4.46916e-09
-1.7848e-07
-5.4083e-09
-1.9955e-07
-6.41407e-09
-2.20582e-07
-7.41533e-09
-2.41569e-07
-8.38325e-09
-2.60739e-07
-9.25821e-09
-2.74653e-07
-9.39813e-09
-2.69174e-07
-7.0181e-09
-2.27112e-07
-4.67534e-09
-1.68089e-07
-2.56067e-09
-1.15328e-07
-1.60823e-09
-7.83431e-08
-1.04501e-09
-6.02842e-08
-6.39824e-10
-4.85955e-08
-3.22383e-10
-3.58179e-08
-8.80364e-11
-2.31207e-08
-8.78295e-09
-1.4952e-10
-2.31995e-08
3.94059e-11
-3.34199e-10
-3.92608e-08
-5.92395e-10
-5.55757e-08
-9.16151e-10
-7.06464e-08
-1.29976e-09
-8.51166e-08
-1.72921e-09
-9.77829e-08
-2.20867e-09
-1.11254e-07
-2.76486e-09
-1.3059e-07
-3.4275e-09
-1.53963e-07
-4.22053e-09
-1.77621e-07
-5.12762e-09
-1.98622e-07
-6.09621e-09
-2.19483e-07
-7.05078e-09
-2.40274e-07
-7.98755e-09
-2.59266e-07
-9.2545e-09
-2.74035e-07
-8.94258e-09
-2.68796e-07
-6.89378e-09
-2.27873e-07
-4.67037e-09
-1.75488e-07
-2.53415e-09
-1.16839e-07
-1.55347e-09
-7.91503e-08
-1.01226e-09
-6.07407e-08
-6.23295e-10
-4.8932e-08
-3.2462e-10
-3.60633e-08
-1.01081e-10
-2.32935e-08
-8.86196e-09
-1.44775e-10
-2.30882e-08
3.82695e-11
-3.22274e-10
-3.90665e-08
-5.75085e-10
-5.5281e-08
-8.85835e-10
-7.02714e-08
-1.25444e-09
-8.46813e-08
-1.67488e-09
-9.72842e-08
-2.14167e-09
-1.10689e-07
-2.68148e-09
-1.29934e-07
-3.33453e-09
-1.53218e-07
-4.10827e-09
-1.76728e-07
-4.99149e-09
-1.97556e-07
-5.93691e-09
-2.18352e-07
-6.85054e-09
-2.39014e-07
-7.83429e-09
-2.5805e-07
-9.16287e-09
-2.73428e-07
-8.54332e-09
-2.67909e-07
-7.23199e-09
-2.29184e-07
-4.56835e-09
-1.77471e-07
-2.62204e-09
-1.1841e-07
-1.61539e-09
-7.98602e-08
-1.04391e-09
-6.11644e-08
-6.42795e-10
-4.92588e-08
-3.40784e-10
-3.63006e-08
-1.15854e-10
-2.34515e-08
-8.9297e-09
-1.65582e-10
-2.29702e-08
4.37728e-11
-3.69015e-10
-3.88556e-08
-6.51849e-10
-5.49794e-08
-1.00318e-09
-6.98765e-08
-1.41865e-09
-8.42061e-08
-1.88036e-09
-9.67609e-08
-2.39342e-09
-1.10107e-07
-2.99098e-09
-1.29266e-07
-3.6944e-09
-1.52394e-07
-4.52393e-09
-1.75738e-07
-5.47481e-09
-1.96434e-07
-6.47296e-09
-2.17091e-07
-7.43897e-09
-2.37767e-07
-8.48565e-09
-2.57121e-07
-9.51245e-09
-2.72447e-07
-9.08527e-09
-2.67152e-07
-7.88834e-09
-2.30686e-07
-5.06413e-09
-1.77526e-07
-2.95105e-09
-1.20287e-07
-1.82483e-09
-8.06355e-08
-1.18411e-09
-6.16131e-08
-7.29146e-10
-4.96066e-08
-3.88443e-10
-3.6562e-08
-1.38293e-10
-2.36233e-08
-8.99726e-09
-1.98353e-10
-2.28082e-08
5.18557e-11
-4.38114e-10
-3.8591e-08
-7.73421e-10
-5.46155e-08
-1.18423e-09
-6.94413e-08
-1.66448e-09
-8.36977e-08
-2.20432e-09
-9.61774e-08
-2.79757e-09
-1.09456e-07
-3.47134e-09
-1.285e-07
-4.26163e-09
-1.51491e-07
-5.17985e-09
-1.74719e-07
-6.20147e-09
-1.95283e-07
-7.27875e-09
-2.15782e-07
-8.33961e-09
-2.36552e-07
-9.44524e-09
-2.56265e-07
-1.02671e-08
-2.71136e-07
-1.01234e-08
-2.66851e-07
-8.45613e-09
-2.32081e-07
-5.72774e-09
-1.79087e-07
-3.38615e-09
-1.22647e-07
-2.14215e-09
-8.15826e-08
-1.39646e-09
-6.2131e-08
-8.65756e-10
-5.00046e-08
-4.63128e-10
-3.68691e-08
-1.65197e-10
-2.38326e-08
-9.0745e-09
-2.13416e-10
-2.26271e-08
5.5315e-11
-4.7498e-10
-3.83031e-08
-8.3632e-10
-5.42181e-08
-1.28107e-09
-6.89556e-08
-1.80071e-09
-8.31189e-08
-2.372e-09
-9.55146e-08
-2.99955e-09
-1.08714e-07
-3.71522e-09
-1.27653e-07
-4.54725e-09
-1.50551e-07
-5.49796e-09
-1.73625e-07
-6.55813e-09
-1.94029e-07
-7.70505e-09
-2.14541e-07
-8.82672e-09
-2.35394e-07
-9.90865e-09
-2.55421e-07
-1.06111e-08
-2.69561e-07
-1.07463e-08
-2.66994e-07
-8.76907e-09
-2.33236e-07
-6.18109e-09
-1.83529e-07
-3.64569e-09
-1.26075e-07
-2.3101e-09
-8.28206e-08
-1.51696e-09
-6.27126e-08
-9.49739e-10
-5.04424e-08
-5.1537e-10
-3.72065e-08
-1.87132e-10
-2.40625e-08
-9.1608e-09
-2.17353e-10
-2.24528e-08
5.61088e-11
-4.80624e-10
-3.80127e-08
-8.46921e-10
-5.38109e-08
-1.29349e-09
-6.8447e-08
-1.81314e-09
-8.25207e-08
-2.39472e-09
-9.48688e-08
-3.0329e-09
-1.08026e-07
-3.7595e-09
-1.26894e-07
-4.59679e-09
-1.49629e-07
-5.55334e-09
-1.72567e-07
-6.61684e-09
-1.92848e-07
-7.78623e-09
-2.1334e-07
-8.97189e-09
-2.34321e-07
-9.98768e-09
-2.54221e-07
-1.07201e-08
-2.67981e-07
-1.09485e-08
-2.67291e-07
-9.00752e-09
-2.34187e-07
-6.45642e-09
-1.84483e-07
-3.76864e-09
-1.28361e-07
-2.41465e-09
-8.42781e-08
-1.60076e-09
-6.33888e-08
-1.00624e-09
-5.08972e-08
-5.54009e-10
-3.75621e-08
-2.05927e-10
-2.4307e-08
-9.25443e-09
-2.16781e-10
-2.22683e-08
5.59634e-11
-4.81947e-10
-3.77088e-08
-8.46854e-10
-5.33933e-08
-1.29681e-09