/*--------------------------------*- C++ -*----------------------------------*\
| =========                 |                                                 |
| \\      /  F ield         | OpenFOAM: The Open Source CFD Toolbox           |
|  \\    /   O peration     | Version:  2212                                  |
|   \\  /    A nd           | Website:  www.openfoam.com                      |
|    \\/     M anipulation  |                                                 |
\*---------------------------------------------------------------------------*/
FoamFile
{
    version     2.0;
    format      ascii;
    arch        "LSB;label=32;scalar=64";
    class       volVectorField;
    location    "0.000162";
    object      U;
}
// * * * * * * * * * * * * * * * * * * * * * * * * * * * * * * * * * * * * * //

dimensions      [0 1 -1 0 0 0 0];

internalField   nonuniform List<vector> 
58408
(
(1.70047e-11 -7.56004 -42.9294)
(1.38649e-11 -5.76463 -24.0143)
(1.05479e-11 -3.55684 -22.4408)
(1.00524e-11 -3.25701 -19.2829)
(9.28857e-12 -2.73779 -17.4089)
(8.907e-12 -2.28684 -15.4254)
(-8.09763e-12 -1.92585 -13.7842)
(4.47521e-12 -1.58192 -12.3275)
(8.89299e-13 -1.32595 -11.1224)
(2.35278e-12 -1.09554 -10.0909)
(9.24249e-13 -0.896989 -9.16669)
(8.23238e-13 -0.713351 -8.31568)
(4.6368e-14 -0.552565 -7.59311)
(-1.84182e-13 -0.430145 -7.00267)
(-4.53631e-13 -0.336792 -6.49774)
(-2.99399e-13 -0.233406 -6.05111)
(-2.71777e-13 -0.143982 -5.66617)
(-6.11893e-12 -0.0836788 -5.36922)
(-1.76572e-12 -0.0426923 -5.14614)
(-8.70195e-13 -0.00890859 -4.95164)
(-4.18446e-13 0.0261688 -4.75682)
(1.21851e-13 0.0616604 -4.55441)
(1.2304e-12 0.0993769 -4.34538)
(-3.87528e-12 0.140614 -4.1419)
(9.61588e-13 0.176972 -3.95265)
(-3.5966e-12 0.205789 -3.77236)
(-4.57637e-12 0.231332 -3.60612)
(-2.0288e-13 0.253297 -3.45553)
(1.13741e-12 0.273615 -3.30939)
(2.87129e-12 0.293115 -3.16323)
(-5.59562e-13 0.311838 -3.01917)
(6.59677e-13 0.328723 -2.88335)
(8.72413e-13 0.34317 -2.76505)
(5.8545e-13 0.355288 -2.66642)
(1.13938e-12 0.365872 -2.58059)
(1.38142e-12 0.375631 -2.50335)
(1.7556e-12 0.384423 -2.43732)
(2.90676e-12 0.392109 -2.37937)
(3.37391e-13 0.399072 -2.32707)
(9.87466e-13 0.405287 -2.28091)
(1.29325e-12 0.410874 -2.23968)
(1.45123e-12 0.415991 -2.20206)
(1.59438e-12 0.420807 -2.16688)
(1.67079e-12 0.425401 -2.13344)
(1.71213e-12 0.429855 -2.09997)
(1.77434e-12 0.434419 -2.0654)
(1.81019e-12 0.439431 -2.02951)
(1.88034e-12 0.444849 -1.99167)
(1.79916e-12 0.450642 -1.95169)
(1.43022e-12 0.456593 -1.91109)
(1.76227e-12 0.462419 -1.87052)
(1.8629e-12 0.468204 -1.82959)
(1.86321e-12 0.474076 -1.78847)
(1.81386e-12 0.48005 -1.74686)
(1.77679e-12 0.486243 -1.70493)
(1.76144e-12 0.492487 -1.66282)
(1.73125e-12 0.498677 -1.62015)
(1.76043e-12 0.505171 -1.57442)
(1.88908e-12 0.512643 -1.52496)
(2.67272e-12 0.520776 -1.47444)
(1.27248e-12 0.528492 -1.42604)
(1.37483e-12 0.535246 -1.37969)
(1.60915e-12 0.541442 -1.33446)
(2.35833e-12 0.54728 -1.29083)
(1.21166e-12 0.552632 -1.25028)
(1.14769e-12 0.557515 -1.21187)
(1.13423e-12 0.562458 -1.17227)
(1.20344e-12 0.567815 -1.13153)
(1.22685e-12 0.573035 -1.09216)
(1.26449e-12 0.577806 -1.0541)
(1.24294e-12 0.582701 -1.0148)
(1.10846e-12 0.58844 -0.972054)
(1.35715e-12 0.595324 -0.924523)
(1.58951e-12 0.603272 -0.871494)
(2.24037e-12 0.612048 -0.813608)
(1.60011e-12 0.621544 -0.752773)
(1.38106e-12 0.632017 -0.688619)
(1.31956e-12 0.643931 -0.620374)
(1.27801e-12 0.656933 -0.550345)
(1.17962e-12 0.670018 -0.480279)
(1.09326e-12 0.683102 -0.409057)
(1.00657e-12 0.696637 -0.335288)
(9.39655e-13 0.710126 -0.261484)
(9.48637e-13 0.722816 -0.189713)
(1.34828e-12 0.73376 -0.119197)
(1.1527e-12 0.738018 -0.0483395)
(7.21471e-13 0.738763 0.0247257)
(6.25612e-13 0.744968 0.0963389)
(4.99057e-13 0.755953 0.165115)
(5.27378e-13 0.774049 0.230524)
(5.30674e-13 0.791804 0.295236)
(5.18634e-13 0.79965 0.361197)
(4.79699e-13 0.804758 0.427226)
(4.02131e-13 0.812242 0.493815)
(3.25897e-13 0.830737 0.562339)
(1.89799e-13 0.858608 0.629125)
(5.34299e-14 0.880562 0.690629)
(-1.13144e-13 0.894411 0.747853)
(-3.84436e-13 0.8982 0.80336)
(-1.80272e-13 0.898563 0.861208)
(-2.72507e-13 0.904793 0.92267)
(-2.71708e-13 0.911512 0.983318)
(-2.80942e-13 0.920929 1.04894)
(-2.21068e-13 0.932774 1.12402)
(-1.46528e-13 0.946036 1.20455)
(-1.36986e-13 0.95972 1.28743)
(-1.88775e-13 0.973772 1.37177)
(-3.24428e-13 0.987642 1.45419)
(-4.64272e-13 1.00056 1.53367)
(-4.95561e-13 1.0139 1.61397)
(-6.98185e-13 1.02718 1.694)
(-7.36189e-13 1.04092 1.77334)
(-7.79513e-13 1.0544 1.84909)
(-8.60199e-13 1.06725 1.91977)
(-8.23809e-13 1.07951 1.98653)
(-8.92747e-13 1.09098 2.05064)
(-8.94703e-13 1.10289 2.11495)
(-1.49789e-12 1.11493 2.17919)
(-1.18974e-12 1.12718 2.24175)
(-9.62944e-13 1.1385 2.29722)
(-2.47987e-13 1.14738 2.33965)
(-7.51614e-13 1.15401 2.36913)
(-1.62123e-12 1.158 2.38501)
(-1.34333e-12 1.15972 2.38969)
(-1.10716e-12 1.15772 2.37964)
(-3.65037e-13 1.15304 2.35575)
(-6.98045e-13 1.14581 2.31783)
(-8.06401e-13 1.13781 2.27696)
(-9.1291e-13 1.13103 2.2366)
(-9.53003e-13 1.12354 2.18643)
(-9.7864e-13 1.11275 2.10734)
(-1.03479e-12 1.09357 1.98183)
(-1.10091e-12 1.06806 1.81265)
(-1.20261e-12 1.03488 1.6469)
(-1.28571e-12 1.01503 1.53322)
(-1.32192e-12 0.993512 1.71476)
(-1.30875e-12 0.920152 1.90173)
(-1.36567e-12 1.0578 3.2415)
(-1.17124e-12 0.448118 4.10821)
(-1.62849e-13 0.676737 7.8864)
(3.31155e-12 -1.42091 9.57937)
(1.39175e-11 0.862387 21.3504)
(5.55824e-11 6.0736 12.9441)
(3.0903e-11 -12.4299 -59.8936)
(2.54818e-11 -10.2616 -39.1746)
(1.98286e-11 -7.25 -37.4726)
(1.82908e-11 -6.95583 -33.3039)
(1.57392e-11 -5.76584 -31.2999)
(1.18268e-11 -5.10144 -28.4876)
(-4.39944e-12 -4.35108 -26.5233)
(1.17789e-11 -3.72614 -24.4782)
(-7.00477e-12 -3.18848 -22.8889)
(8.56301e-12 -2.71764 -21.4369)
(1.30166e-12 -2.28234 -20.1339)
(2.76499e-12 -1.86893 -18.907)
(5.55277e-13 -1.51059 -17.8477)
(7.85643e-13 -1.22865 -16.9674)
(1.64586e-13 -0.939404 -16.1864)
(3.96558e-13 -0.684494 -15.4781)
(-5.05949e-12 -0.487918 -14.8822)
(-4.53679e-12 -0.353485 -14.4044)
(-1.18023e-13 -0.25464 -14.0136)
(-1.35411e-14 -0.160836 -13.6557)
(1.12869e-12 -0.0706947 -13.2942)
(1.78304e-12 0.0186014 -12.9187)
(3.17049e-12 0.109024 -12.5284)
(-1.29104e-12 0.197936 -12.1397)
(4.43088e-12 0.279688 -11.7696)
(-4.31124e-12 0.354216 -11.4183)
(-3.51201e-12 0.421362 -11.0964)
(3.08079e-12 0.481153 -10.8051)
(3.20322e-12 0.53909 -10.5239)
(3.16467e-12 0.597378 -10.2438)
(3.20096e-12 0.656206 -9.96787)
(3.95491e-12 0.71286 -9.70593)
(4.36707e-12 0.764141 -9.47428)
(1.52235e-12 0.808777 -9.27688)
(4.22036e-12 0.849158 -9.10011)
(4.27894e-12 0.887121 -8.93429)
(4.3888e-12 0.921679 -8.77994)
(4.3105e-12 0.952596 -8.63316)
(3.8248e-12 0.980433 -8.49218)
(4.39832e-12 1.00469 -8.35922)
(4.67739e-12 1.02572 -8.23212)
(4.97663e-12 1.04403 -8.10737)
(5.24065e-12 1.06028 -7.98187)
(5.39601e-12 1.07503 -7.85383)
(5.57029e-12 1.08902 -7.72048)
(5.70611e-12 1.10289 -7.57996)
(5.79373e-12 1.11735 -7.43336)
(5.95444e-12 1.13249 -7.28124)
(6.17862e-12 1.14855 -7.12434)
(4.1622e-12 1.16527 -6.96877)
(5.49628e-12 1.18228 -6.81695)
(5.55209e-12 1.19968 -6.66636)
(5.41148e-12 1.21752 -6.51704)
(5.29084e-12 1.23571 -6.36819)
(5.13762e-12 1.2544 -6.21937)
(4.9448e-12 1.27351 -6.07113)
(4.82448e-12 1.29305 -5.92182)
(4.66964e-12 1.31373 -5.763)
(4.5261e-12 1.33604 -5.59088)
(4.29343e-12 1.35884 -5.41453)
(3.84199e-12 1.38055 -5.24491)
(3.95449e-12 1.40081 -5.08181)
(3.89965e-12 1.42044 -4.92026)
(3.69861e-12 1.43961 -4.76143)
(3.32629e-12 1.45792 -4.61027)
(3.30511e-12 1.47557 -4.46307)
(3.2219e-12 1.49387 -4.30668)
(3.39749e-12 1.51313 -4.14144)
(3.53726e-12 1.53203 -3.98164)
(3.59489e-12 1.55014 -3.83165)
(3.98059e-12 1.56869 -3.68434)
(3.23778e-12 1.58876 -3.5338)
(3.60584e-12 1.61078 -3.37749)
(3.78336e-12 1.63489 -3.2144)
(3.62005e-12 1.66071 -3.04667)
(3.5248e-12 1.68764 -2.87859)
(3.50938e-12 1.71572 -2.70742)
(3.37853e-12 1.74515 -2.52808)
(3.17449e-12 1.77488 -2.34431)
(2.93996e-12 1.80416 -2.16193)
(2.73486e-12 1.83337 -1.97765)
(2.52083e-12 1.8632 -1.78765)
(2.32769e-12 1.89281 -1.59827)
(2.15879e-12 1.92143 -1.41406)
(1.98066e-12 1.9496 -1.23208)
(1.75993e-12 1.97863 -1.04997)
(1.76487e-12 2.01177 -0.867287)
(2.40392e-12 2.04514 -0.682369)
(2.0156e-12 2.07698 -0.502483)
(1.49365e-12 2.10685 -0.325947)
(1.58722e-12 2.13592 -0.139745)
(1.59083e-12 2.16691 0.0581302)
(1.4792e-12 2.197 0.253474)
(1.29753e-12 2.22557 0.443295)
(1.01414e-12 2.25451 0.632414)
(6.23488e-13 2.28038 0.81958)
(2.77738e-13 2.30694 1.00227)
(6.49936e-13 2.33428 1.1812)
(1.08388e-12 2.36187 1.3576)
(2.49629e-13 2.38686 1.53294)
(-6.66543e-13 2.42004 1.70988)
(-7.35445e-13 2.45339 1.8892)
(-6.29665e-13 2.48019 2.08052)
(-4.18661e-13 2.51252 2.29232)
(-2.71e-13 2.54811 2.51619)
(-1.83875e-13 2.58506 2.74551)
(-3.92688e-13 2.62291 2.97741)
(-8.18628e-13 2.66125 3.20376)
(-1.25601e-12 2.69882 3.42417)
(-5.18026e-13 2.73743 3.64635)
(-9.32957e-13 2.77657 3.86914)
(-1.99201e-12 2.81606 4.08914)
(-2.07901e-12 2.85512 4.29957)
(-2.50734e-12 2.89299 4.49714)
(-1.50114e-12 2.93034 4.6856)
(-1.50906e-12 2.96715 4.86986)
(-2.10025e-12 3.00537 5.05641)
(-1.81663e-12 3.04497 5.24755)
(-9.87879e-13 3.08595 5.44036)
(-6.80633e-13 3.12647 5.62288)
(-9.62836e-13 3.16271 5.78093)
(-1.86752e-12 3.19447 5.91195)
(-1.88754e-12 3.22019 6.01407)
(-1.34313e-12 3.24278 6.09826)
(-1.14816e-12 3.25822 6.15959)
(-1.35105e-12 3.26928 6.20271)
(-2.17055e-12 3.2687 6.21276)
(-2.32864e-12 3.26515 6.21036)
(-2.51878e-12 3.2604 6.19839)
(-2.57211e-12 3.2553 6.16871)
(-2.6122e-12 3.24771 6.09727)
(-2.76826e-12 3.2368 5.95991)
(-2.96108e-12 3.21732 5.7474)
(-3.22759e-12 3.1753 5.50794)
(-3.5193e-12 3.06031 5.38567)
(-3.72755e-12 2.9264 5.48576)
(-3.85841e-12 2.52243 5.89617)
(-3.92736e-12 2.32518 7.07932)
(-3.69718e-12 0.940539 8.63863)
(-1.95108e-12 0.558345 11.8246)
(3.51666e-12 -2.14121 14.6317)
(1.49078e-11 0.24584 19.6987)
(9.06606e-11 8.64195 24.331)
(4.23963e-11 -13.3931 -65.5806)
(3.42683e-11 -11.4367 -46.1319)
(2.98121e-11 -8.50499 -44.5793)
(2.56647e-11 -8.34953 -40.7268)
(2.39785e-11 -6.95629 -38.9055)
(1.98242e-11 -6.3869 -36.2001)
(1.75514e-11 -5.41646 -34.3662)
(1.57461e-11 -4.76613 -32.3051)
(8.11274e-13 -4.06922 -30.7724)
(1.57317e-11 -3.52137 -29.2901)
(5.79655e-12 -2.97933 -28.017)
(9.56959e-12 -2.48459 -26.793)
(5.35e-12 -2.00853 -25.7235)
(6.49593e-12 -1.57267 -24.7743)
(5.13045e-12 -1.19585 -23.9407)
(5.40097e-12 -0.918136 -23.2339)
(-6.76016e-13 -0.702826 -22.6174)
(5.33633e-12 -0.535923 -22.0823)
(4.74218e-12 -0.385858 -21.6101)
(2.04532e-12 -0.249575 -21.1769)
(6.75793e-12 -0.129428 -20.75)
(5.92645e-12 -0.00998178 -20.3033)
(6.67657e-12 0.110955 -19.8345)
(6.22317e-12 0.229711 -19.3637)
(7.95321e-12 0.339202 -18.9108)
(1.15216e-12 0.441009 -18.4766)
(6.26508e-12 0.533943 -18.0749)
(8.11224e-12 0.617624 -17.708)
(7.98245e-12 0.699586 -17.351)
(6.08933e-12 0.782929 -16.993)
(8.50049e-12 0.868331 -16.6367)
(8.37708e-12 0.951922 -16.2942)
(8.7695e-12 1.02836 -15.9863)
(6.82994e-12 1.09481 -15.718)
(8.56222e-12 1.15489 -15.4721)
(8.22975e-12 1.21112 -15.2359)
(8.41832e-12 1.2625 -15.0118)
(8.4149e-12 1.30929 -14.7939)
(8.60964e-12 1.35221 -14.5775)
(9.01559e-12 1.39007 -14.3659)
(9.32255e-12 1.42305 -14.1566)
(9.58571e-12 1.45191 -13.9452)
(9.85281e-12 1.47773 -13.7277)
(1.0033e-11 1.50135 -13.5026)
(1.01098e-11 1.52392 -13.2672)
(1.01169e-11 1.54658 -13.0201)
(9.9932e-12 1.57034 -12.7643)
(1.00019e-11 1.59519 -12.502)
(1.01728e-11 1.62154 -12.2347)
(8.9113e-12 1.64885 -11.9725)
(9.26616e-12 1.67652 -11.7189)
(9.10768e-12 1.7048 -11.4691)
(8.85961e-12 1.73371 -11.2228)
(8.57267e-12 1.76316 -10.9786)
(8.25885e-12 1.79342 -10.7355)
(7.94053e-12 1.82424 -10.494)
(7.62519e-12 1.85563 -10.2512)
(7.26325e-12 1.88874 -9.99398)
(6.81345e-12 1.92435 -9.71612)
(6.46908e-12 1.96058 -9.43197)
(6.21732e-12 1.99502 -9.15858)
(6.07848e-12 2.02751 -8.89531)
(5.84561e-12 2.05953 -8.63368)
(5.62311e-12 2.09138 -8.37505)
(5.53419e-12 2.12243 -8.12699)
(6.0746e-12 2.15313 -7.88343)
(5.68573e-12 2.18584 -7.6227)
(4.95348e-12 2.2209 -7.34478)
(5.34716e-12 2.25589 -7.07398)
(6.13875e-12 2.29008 -6.81907)
(6.46011e-12 2.32534 -6.56947)
(5.46207e-12 2.3631 -6.31624)
(5.23852e-12 2.4036 -6.0556)
(6.1431e-12 2.44656 -5.78631)
(5.8262e-12 2.49104 -5.51254)
(4.74263e-12 2.53583 -5.24191)
(4.70979e-12 2.58101 -4.97008)
(4.46862e-12 2.62747 -4.68864)
(4.08722e-12 2.67471 -4.40321)
(3.78166e-12 2.7213 -4.12116)
(3.57604e-12 2.76753 -3.83704)
(3.40175e-12 2.81444 -3.54467)
(3.27344e-12 2.86057 -3.25321)
(3.25107e-12 2.90478 -2.96912)
(4.55534e-12 2.94795 -2.68765)
(5.69173e-12 2.99123 -2.40481)
(5.27027e-12 3.03564 -2.11749)
(4.7611e-12 3.07982 -1.82473)
(3.47848e-12 3.12282 -1.53973)
(2.49841e-12 3.16541 -1.26154)
(2.76859e-12 3.21029 -0.969548)
(2.71698e-12 3.25723 -0.659056)
(2.54713e-12 3.30298 -0.349741)
(2.22912e-12 3.3487 -0.046098)
(1.72945e-12 3.39407 0.255895)
(1.14046e-12 3.43929 0.551483)
(2.14327e-12 3.48407 0.837658)
(2.48682e-12 3.52742 1.11541)
(4.28524e-13 3.56971 1.38951)
(-9.84933e-13 3.61078 1.66285)
(-1.08411e-12 3.65238 1.93927)
(-1.06427e-12 3.69733 2.22172)
(-7.85683e-13 3.7445 2.52296)
(-3.61292e-13 3.79661 2.85344)
(-6.4208e-14 3.852 3.20029)
(1.05267e-14 3.90927 3.5545)
(-4.01707e-13 3.96786 3.91176)
(-1.171e-12 4.02663 4.25968)
(-2.13975e-12 4.0857 4.6)
(-9.18776e-13 4.14658 4.9429)
(-1.76497e-12 4.21007 5.28835)
(-3.46918e-12 4.27411 5.62924)
(-1.16607e-12 4.33707 5.9552)
(-2.58927e-12 4.39831 6.26228)
(-2.23562e-12 4.45907 6.55618)
(-2.79677e-12 4.5202 6.84561)
(-3.40271e-12 4.58403 7.13943)
(-3.66566e-12 4.6513 7.44292)
(-3.86668e-12 4.72171 7.75186)
(-3.88224e-12 4.79289 8.04933)
(-3.5402e-12 4.85909 8.31521)
(-3.36038e-12 4.91988 8.54456)
(-3.79066e-12 4.97249 8.73522)
(-4.20778e-12 5.02303 8.90576)
(-4.45697e-12 5.06575 9.0522)
(-4.09909e-12 5.10775 9.18411)
(-4.16377e-12 5.13335 9.27378)
(-3.62645e-12 5.16099 9.35498)
(-4.1262e-12 5.17564 9.40928)
(-3.79337e-12 5.19547 9.45532)
(-3.73449e-12 5.19809 9.43441)
(-3.89383e-12 5.19496 9.3463)
(-4.09007e-12 5.17712 9.16828)
(-4.57614e-12 5.12463 8.92561)
(-5.05505e-12 4.96648 8.77951)
(-5.49881e-12 4.62798 8.85151)
(-5.86782e-12 4.05423 9.16691)
(-6.14832e-12 3.30733 9.98503)
(-6.23975e-12 1.7669 11.23)
(-5.83415e-12 0.507174 13.3131)
(3.21684e-12 -1.77024 15.9012)
(2.39921e-11 0.827025 19.0245)
(7.67661e-11 11.3269 23.2976)
(5.3622e-11 -13.9722 -68.2385)
(2.28656e-11 -12.0254 -50.5311)
(4.52987e-11 -9.2612 -48.669)
(2.6524e-11 -9.12251 -45.5501)
(3.3892e-11 -7.66708 -43.8755)
(2.33535e-11 -7.1072 -41.4878)
(2.60188e-11 -6.00295 -39.8683)
(1.89161e-11 -5.34249 -38.0079)
(1.94963e-11 -4.54663 -36.6541)
(1.57584e-11 -3.96588 -35.3022)
(5.41163e-12 -3.32147 -34.173)
(1.86405e-11 -2.69989 -33.0302)
(9.38534e-12 -2.09062 -32.0126)
(1.28468e-11 -1.62322 -31.1493)
(9.88491e-12 -1.28457 -30.4311)
(1.08328e-11 -1.02165 -29.7888)
(9.47142e-12 -0.783332 -29.1816)
(1.16851e-11 -0.560937 -28.61)
(1.10253e-11 -0.371776 -28.0989)
(8.78286e-12 -0.217271 -27.6417)
(1.2626e-11 -0.07995 -27.1923)
(1.13149e-11 0.0581283 -26.7173)
(1.2339e-11 0.196054 -26.2117)
(1.20109e-11 0.333734 -25.6976)
(1.24234e-11 0.460469 -25.1971)
(8.66117e-12 0.58135 -24.7118)
(1.38891e-11 0.692967 -24.2581)
(1.23564e-11 0.794187 -23.8393)
(1.30505e-11 0.893631 -23.4279)
(1.19329e-11 0.994974 -23.0112)
(1.28427e-11 1.09949 -22.5912)
(1.23321e-11 1.20276 -22.1812)
(1.23647e-11 1.29856 -21.8065)
(1.21953e-11 1.38229 -21.4749)
(1.28774e-11 1.45797 -21.1666)
(1.26544e-11 1.52869 -20.8663)
(1.29864e-11 1.59292 -20.5771)
(1.31278e-11 1.65053 -20.292)
(1.34944e-11 1.70281 -20.0047)
(1.37336e-11 1.74853 -19.7196)
(1.39526e-11 1.78805 -19.4345)
(1.42903e-11 1.82262 -19.144)
(1.44893e-11 1.85371 -18.8437)
(1.45989e-11 1.88254 -18.5322)
(1.45357e-11 1.91039 -18.2071)
(1.44925e-11 1.93895 -17.8673)
(1.46184e-11 1.96937 -17.5174)
(1.47253e-11 2.00137 -17.1607)
(1.31116e-11 2.03548 -16.7996)
(1.3478e-11 2.07079 -16.4473)
(1.38e-11 2.10638 -16.108)
(1.18605e-11 2.14273 -15.7749)
(1.16475e-11 2.17982 -15.4474)
(1.12208e-11 2.21754 -15.1236)
(1.06744e-11 2.25628 -14.802)
(1.02063e-11 2.29552 -14.483)
(9.71684e-12 2.33515 -14.1629)
(9.2926e-12 2.37682 -13.8244)
(9.31044e-12 2.42193 -13.4596)
(9.2593e-12 2.46797 -13.087)
(7.10195e-12 2.51168 -12.7287)
(7.02704e-12 2.55295 -12.3836)
(6.59218e-12 2.59402 -12.0403)
(6.27322e-12 2.63531 -11.7002)
(6.05111e-12 2.67606 -11.373)
(6.41016e-12 2.71692 -11.0507)
(7.1636e-12 2.76119 -10.7044)
(6.46887e-12 2.80935 -10.3333)
(7.19701e-12 2.85764 -9.96995)
(5.62866e-12 2.90476 -9.62687)
(6.56693e-12 2.95316 -9.29071)
(5.33149e-12 3.00476 -8.94994)
(6.66306e-12 3.05959 -8.59996)
(7.66738e-12 3.11675 -8.23939)
(6.09671e-12 3.17496 -7.87414)
(4.6702e-12 3.23298 -7.51456)
(4.79476e-12 3.29152 -7.15504)
(4.70337e-12 3.35217 -6.7849)
(5.75991e-12 3.41363 -6.41093)
(5.84237e-12 3.47312 -6.03987)
(3.42434e-12 3.5323 -5.66703)
(3.82015e-12 3.59272 -5.28414)
(4.05337e-12 3.65228 -4.90251)
(5.49416e-12 3.7097 -4.53078)
(6.61183e-12 3.76626 -4.16286)
(5.85581e-12 3.82297 -3.79286)
(5.92286e-12 3.88043 -3.41542)
(5.15989e-12 3.93801 -3.03133)
(5.79712e-12 3.99418 -2.65726)
(6.04516e-12 4.0498 -2.29286)
(3.96665e-12 4.10847 -1.912)
(3.97143e-12 4.17007 -1.50848)
(3.64582e-12 4.23075 -1.10519)
(3.09255e-12 4.29066 -0.709223)
(2.32904e-12 4.34872 -0.313268)
(1.30179e-12 4.40724 0.0752569)
(1.92606e-12 4.46341 0.44867)
(1.09167e-12 4.5199 0.809496)
(-9.30454e-13 4.57464 1.16482)
(-1.31798e-12 4.62924 1.52013)
(-1.42539e-12 4.68493 1.88018)
(-1.43056e-12 4.74244 2.24603)
(-7.55303e-13 4.80421 2.63616)
(-1.69309e-13 4.87273 3.06406)
(2.55444e-13 4.94527 3.51225)
(3.24734e-13 5.02018 3.96931)
(-3.67974e-13 5.09685 4.42994)
(-1.52868e-12 5.17347 4.87842)
(-2.60718e-12 5.25081 5.31742)
(-3.26736e-12 5.33084 5.75968)
(-3.96318e-12 5.41364 6.20435)
(-5.02103e-12 5.49776 6.64306)
(-2.72051e-12 5.58094 7.063)
(-4.37593e-12 5.66203 7.45947)
(-5.47058e-12 5.7426 7.83972)
(-5.30192e-12 5.82504 8.21596)
(-4.76678e-12 5.91167 8.59868)
(-4.44841e-12 6.00428 8.99623)
(-4.36076e-12 6.10204 9.40322)
(-4.32509e-12 6.20263 9.79921)
(-4.26244e-12 6.29788 10.1589)
(-4.22269e-12 6.38655 10.4738)
(-4.35803e-12 6.46539 10.7436)
(-4.55052e-12 6.5438 10.9921)
(-4.88158e-12 6.61573 11.2192)
(-4.7581e-12 6.69208 11.4376)
(-5.70606e-12 6.75024 11.6109)
(-4.29639e-13 6.81234 11.7766)
(-3.18579e-12 6.85417 11.9069)
(-4.10949e-12 6.90145 12.0289)
(-4.18996e-12 6.92881 12.0822)
(-4.49746e-12 6.94064 12.0468)
(-4.46258e-12 6.92987 11.913)
(-5.36628e-12 6.86964 11.669)
(-5.70448e-12 6.69854 11.4294)
(-6.40574e-12 6.26275 11.3731)
(-7.09219e-12 5.55485 11.5197)
(-7.67971e-12 4.6238 11.9032)
(-7.90745e-12 3.17816 12.5443)
(-8.1053e-12 1.60213 13.6183)
(3.15214e-12 0.0225274 15.3213)
(2.45473e-11 2.44684 16.8223)
(6.78293e-11 11.0055 20.7951)
(4.62617e-11 -13.2254 -70.1508)
(2.08091e-11 -11.7009 -53.701)
(3.92216e-11 -9.43818 -51.7008)
(6.72883e-12 -9.01442 -49.2653)
(4.35394e-11 -7.69958 -47.6485)
(1.6821e-11 -7.113 -45.5789)
(2.86752e-11 -6.03209 -44.1095)
(6.55437e-12 -5.39675 -42.4609)
(3.06256e-11 -4.5534 -41.2627)
(1.4586e-11 -3.88527 -40.0321)
(1.23605e-11 -3.10552 -38.9787)
(1.9123e-11 -2.47786 -37.92)
(9.13936e-12 -1.90259 -37.094)
(1.96835e-11 -1.53339 -36.3814)
(1.41222e-11 -1.21087 -35.7506)
(1.72558e-11 -0.924555 -35.138)
(1.59566e-11 -0.63049 -34.5195)
(1.74884e-11 -0.365253 -33.9381)
(1.70357e-11 -0.162577 -33.4304)
(1.76959e-11 -0.000521731 -32.9733)
(1.8398e-11 0.145517 -32.5191)
(1.81525e-11 0.291159 -32.0321)
(1.8623e-11 0.437277 -31.5055)
(1.8352e-11 0.585623 -30.9625)
(1.84305e-11 0.721393 -30.4274)
(1.75969e-11 0.855025 -29.9027)
(1.89898e-11 0.978151 -29.4078)
(1.7721e-11 1.09098 -28.9467)
(1.83166e-11 1.20222 -28.4905)
(1.71268e-11 1.31647 -28.0242)
(1.84048e-11 1.43533 -27.5493)
(1.68226e-11 1.55394 -27.0804)
(1.73215e-11 1.66466 -26.6476)
(1.7167e-11 1.76149 -26.2614)
(1.74288e-11 1.8487 -25.8997)
(1.73671e-11 1.92978 -25.545)
(1.75671e-11 2.0027 -25.2008)
(1.78281e-11 2.06718 -24.8593)
(1.83407e-11 2.12491 -24.5127)
(1.86443e-11 2.17467 -24.1663)
(1.92718e-11 2.21712 -23.818)
(2.06805e-11 2.25405 -23.4618)
(1.80367e-11 2.28737 -23.0926)
(1.87781e-11 2.31858 -22.7093)
(1.81807e-11 2.34911 -22.3098)
(1.77727e-11 2.38118 -21.8934)
(1.74104e-11 2.41593 -21.4662)
(1.84326e-11 2.45277 -21.0323)
(1.55886e-11 2.49218 -20.5946)
(1.59146e-11 2.53289 -20.169)
(1.6931e-11 2.57378 -19.7604)
(1.37845e-11 2.61554 -19.3602)
(1.43268e-11 2.65813 -18.9674)
(1.4451e-11 2.70145 -18.5799)
(1.06567e-11 2.74597 -18.1955)
(1.07318e-11 2.7908 -17.8147)
(9.69192e-12 2.83581 -17.4331)
(8.74955e-12 2.88324 -17.0303)
(8.49389e-12 2.93508 -16.5968)
(9.56794e-12 2.98813 -16.1541)
(6.38519e-12 3.03828 -15.7284)
(6.51536e-12 3.08561 -15.3185)
(5.94809e-12 3.13305 -14.9106)
(5.61879e-12 3.18107 -14.5061)
(5.337e-12 3.22878 -14.1165)
(5.04966e-12 3.27702 -13.7323)
(5.00992e-12 3.32975 -13.3188)
(5.03503e-12 3.38741 -12.8742)
(6.86643e-12 3.44517 -12.437)
(3.86532e-12 3.50156 -12.0236)
(4.45379e-12 3.55944 -11.6191)
(4.17335e-12 3.62064 -11.2093)
(4.86455e-12 3.68491 -10.7885)
(6.32e-12 3.75131 -10.3549)
(3.72227e-12 3.81879 -9.91628)
(3.84418e-12 3.88623 -9.48536)
(3.85902e-12 3.9544 -9.05536)
(3.64931e-12 4.02458 -8.61233)
(4.40602e-12 4.09455 -8.16349)
(6.13123e-12 4.16248 -7.7205)
(5.58203e-12 4.23025 -7.27649)
(7.08933e-12 4.29944 -6.82128)
(3.96972e-12 4.36754 -6.36795)
(5.41182e-12 4.4332 -5.92667)
(6.85702e-12 4.49797 -5.49001)
(5.01825e-12 4.56308 -5.05076)
(7.26333e-12 4.62934 -4.60248)
(7.91489e-12 4.69632 -4.14641)
(6.11681e-12 4.76193 -3.70221)
(7.34446e-12 4.82686 -3.26989)
(5.27566e-12 4.89539 -2.81882)
(5.09717e-12 4.96768 -2.34153)
(4.40991e-12 5.03956 -1.86413)
(3.61381e-12 5.11004 -1.39498)
(2.77231e-12 5.17979 -0.925697)
(1.54087e-12 5.24866 -0.46541)
(3.88044e-13 5.31463 -0.0215555)
(-4.47796e-13 5.38004 0.406585)
(-1.19245e-12 5.44671 0.825101)
(-1.4693e-12 5.51235 1.24475)
(1.50674e-12 5.57894 1.67054)
(1.10574e-12 5.64727 2.10251)
(-7.31719e-13 5.72115 2.56228)
(2.19214e-14 5.80323 3.06636)
(5.68868e-13 5.89007 3.59399)
(5.11757e-13 5.97979 4.13185)
(-5.19143e-13 6.07173 4.67395)
(-2.09228e-12 6.16345 5.20208)
(-3.45602e-12 6.25632 5.7193)
(-4.146e-12 6.35289 6.24052)
(-4.92141e-12 6.45331 6.76465)
(-5.83992e-12 6.55556 7.28174)
(-6.26266e-12 6.65658 7.77719)
(-6.91591e-12 6.75507 8.24579)
(-6.78577e-12 6.85296 8.69611)
(-6.42228e-12 6.95366 9.14254)
(-5.74394e-12 7.06004 9.59736)
(-5.20769e-12 7.17467 10.071)
(-4.79629e-12 7.29626 10.5573)
(-4.68389e-12 7.42001 11.0307)
(-4.74121e-12 7.53943 11.4654)
(-4.77915e-12 7.65047 11.8481)
(-4.82888e-12 7.7523 12.1838)
(-4.80344e-12 7.85404 12.4963)
(-5.47011e-12 7.95541 12.7968)
(-4.93457e-12 8.06254 13.0892)
(-7.07078e-12 8.15234 13.3404)
(-1.33988e-12 8.24362 13.5805)
(-5.60219e-12 8.31294 13.786)
(-5.50598e-12 8.38498 13.977)
(-4.87023e-12 8.43576 14.0991)
(-4.8375e-12 8.47544 14.1304)
(3.4556e-13 8.47408 14.0219)
(-2.52085e-12 8.41936 13.7847)
(-5.04476e-12 8.26635 13.4573)
(-6.31005e-12 7.87706 13.2259)
(-7.42391e-12 7.19818 13.1636)
(-8.50804e-12 6.30071 13.2407)
(-8.61789e-12 5.09819 13.4176)
(-9.52477e-12 3.75926 13.7872)
(2.88714e-12 2.87087 14.9347)
(1.86225e-11 4.48391 16.0779)
(5.34106e-11 10.7754 19.9733)
(3.72113e-11 -12.489 -71.7708)
(3.39483e-11 -11.1973 -55.6906)
(3.14197e-11 -9.14894 -53.8862)
(1.14143e-11 -8.67166 -51.8247)
(4.12158e-11 -7.46956 -50.2974)
(1.99619e-11 -6.84716 -48.527)
(3.16563e-11 -5.79861 -47.1923)
(9.761e-12 -5.09709 -45.7365)
(3.20899e-11 -4.08528 -44.5992)
(1.07362e-11 -3.38235 -43.437)
(3.12074e-11 -2.63144 -42.6021)
(1.99124e-11 -2.12736 -41.7757)
(2.05423e-11 -1.64141 -41.0802)
(2.52087e-11 -1.2915 -40.4334)
(2.25964e-11 -0.934458 -39.8342)
(2.48506e-11 -0.593899 -39.2311)
(2.40188e-11 -0.264544 -38.6233)
(2.49864e-11 -0.00139717 -38.0631)
(2.40865e-11 0.204499 -37.5732)
(2.54705e-11 0.36549 -37.1242)
(2.48524e-11 0.513654 -36.6708)
(2.48875e-11 0.658755 -36.177)
(2.45045e-11 0.809491 -35.6353)
(2.43678e-11 0.960579 -35.0698)
(2.30543e-11 1.10145 -34.5066)
(2.26699e-11 1.2426 -33.9496)
(2.21949e-11 1.37216 -33.4215)
(2.1372e-11 1.49245 -32.9261)
(2.25168e-11 1.61112 -32.4334)
(1.97183e-11 1.73433 -31.9266)
(2.05339e-11 1.86304 -31.407)
(1.98256e-11 1.99239 -30.8904)
(2.00419e-11 2.11321 -30.4108)
(2.02325e-11 2.21888 -29.9811)
(2.0495e-11 2.31355 -29.5779)
(2.08352e-11 2.40099 -29.1814)
(2.16429e-11 2.47852 -28.7954)
(2.4413e-11 2.54589 -28.4113)
(2.25983e-11 2.60522 -28.0197)
(2.00764e-11 2.65549 -27.6264)
(2.12696e-11 2.69781 -27.2295)
(2.36586e-11 2.73459 -26.8222)
(1.99304e-11 2.76804 -26.3991)
(2.12189e-11 2.79991 -25.9593)
(2.02515e-11 2.83156 -25.5014)
(1.99088e-11 2.86558 -25.025)
(1.92011e-11 2.90298 -24.5372)
(1.93705e-11 2.94298 -24.0429)
(1.99195e-11 2.98597 -23.5452)
(1.50036e-11 3.03031 -23.0621)
(1.54844e-11 3.07475 -22.5994)
(1.34491e-11 3.12014 -22.1473)
(1.32216e-11 3.16634 -21.7041)
(1.47939e-11 3.2133 -21.2676)
(1.09214e-11 3.26148 -20.8352)
(1.31668e-11 3.3097 -20.4069)
(7.82413e-12 3.35804 -19.9782)
(9.07334e-12 3.40913 -19.5271)
(9.98412e-12 3.46524 -19.0421)
(5.5484e-12 3.52251 -18.5458)
(5.68183e-12 3.57663 -18.068)
(5.448e-12 3.62791 -17.6083)
(5.08851e-12 3.67971 -17.1515)
(4.89755e-12 3.73229 -16.698)
(4.7475e-12 3.78474 -16.261)
(4.60426e-12 3.83799 -15.8301)
(4.4877e-12 3.8964 -15.366)
(4.25535e-12 3.96034 -14.8651)
(4.74584e-12 4.02461 -14.3714)
(4.17976e-12 4.08757 -13.905)
(5.73857e-12 4.15181 -13.4487)
(7.12178e-12 4.21912 -12.9867)
(2.68816e-12 4.28928 -12.5122)
(3.81066e-12 4.36153 -12.0237)
(2.95985e-12 4.43492 -11.5299)
(2.99903e-12 4.50817 -11.0454)
(3.33302e-12 4.58202 -10.5627)
(3.55325e-12 4.65799 -10.0658)
(3.90442e-12 4.73396 -9.5628)
(6.5634e-12 4.80786 -9.06744)
(8.59193e-12 4.88142 -8.57157)
(7.10278e-12 4.95634 -8.06362)
(4.90033e-12 5.0299 -7.55799)
(5.74482e-12 5.10079 -7.06594)
(6.33366e-12 5.17075 -6.57909)
(5.9238e-12 5.24117 -6.08936)
(7.15628e-12 5.31308 -5.58955)
(9.10559e-12 5.38627 -5.08101)
(6.52314e-12 5.45823 -4.58563)
(7.18687e-12 5.5295 -4.10366)
(6.70779e-12 5.60486 -3.60113)
(6.29527e-12 5.68464 -3.06951)
(8.09804e-12 5.76424 -2.53743)
(7.46567e-12 5.84226 -2.01397)
(2.55606e-12 5.92008 -1.4902)
(1.04856e-12 5.99694 -0.976871)
(-2.3344e-13 6.07117 -0.483298)
(-1.33362e-12 6.14286 -0.00352987)
(-2.28387e-12 6.21643 0.465041)
(-2.98083e-12 6.2912 0.931314)
(-1.05699e-12 6.36647 1.40602)
(-7.58951e-13 6.44337 1.88745)
(-1.27654e-12 6.52675 2.39919)
(-3.80117e-14 6.61959 2.95988)
(6.3544e-13 6.71792 3.54657)
(4.31001e-13 6.81969 4.14475)
(-1.1648e-12 6.92416 4.74796)
(-3.02859e-12 7.02838 5.33626)
(-4.92643e-12 7.1341 5.91279)
(-5.10844e-12 7.24437 6.49402)
(-6.34106e-12 7.35941 7.07877)
(-6.81684e-12 7.4768 7.65595)
(-7.82753e-12 7.59286 8.20964)
(-7.9228e-12 7.70609 8.7343)
(-7.73598e-12 7.81871 9.23946)
(-7.49074e-12 7.93491 9.74088)
(-6.41801e-12 8.05807 10.2522)
(-6.02263e-12 8.19148 10.7857)
(-4.95344e-12 8.33404 11.3349)
(-4.89528e-12 8.47973 11.8712)
(-5.041e-12 8.62107 12.3664)
(-5.16213e-12 8.75256 12.8046)
(-5.20574e-12 8.87416 13.193)
(-4.97243e-12 8.99387 13.5553)
(-6.6842e-12 9.11715 13.9112)
(2.1174e-12 9.24759 14.2599)
(-2.94955e-12 9.36828 14.5772)
(-4.52144e-12 9.4866 14.8778)
(-6.07802e-12 9.58577 15.1509)
(-5.9076e-12 9.68147 15.4006)
(-5.08119e-12 9.75677 15.5822)
(-5.41922e-12 9.82214 15.6712)
(-3.41543e-13 9.8384 15.5866)
(-4.33445e-12 9.80213 15.3589)
(-6.33715e-12 9.68469 14.9677)
(-1.20462e-13 9.4101 14.5707)
(2.65914e-12 8.89485 14.296)
(-5.21156e-12 8.12034 14.1076)
(-8.16644e-12 7.16705 13.9706)
(-1.07194e-11 6.12853 13.9309)
(4.80793e-12 5.46023 14.63)
(1.75873e-11 6.31353 15.7886)
(4.02532e-11 10.6989 19.3275)
(3.41014e-11 -11.4763 -73.0211)
(3.2906e-11 -10.3459 -57.2668)
(3.08127e-11 -8.40857 -55.6629)
(3.01472e-11 -7.99992 -53.7217)
(3.16151e-11 -6.89712 -52.3555)
(2.80368e-11 -6.24256 -50.7099)
(3.11134e-11 -5.15205 -49.4825)
(2.76854e-11 -4.30917 -48.0334)
(3.22778e-11 -3.3217 -47.0386)
(2.10145e-11 -2.76129 -46.1377)
(3.54606e-11 -2.17008 -45.4658)
(2.51301e-11 -1.73139 -44.7511)
(3.20476e-11 -1.24707 -44.1165)
(2.90407e-11 -0.853848 -43.496)
(3.04317e-11 -0.449937 -42.9065)
(2.97875e-11 -0.0822788 -42.3287)
(2.98241e-11 0.250861 -41.7647)
(2.94415e-11 0.496937 -41.2305)
(2.9137e-11 0.696831 -40.7553)
(2.83346e-11 0.85021 -40.312)
(2.78304e-11 0.995113 -39.8593)
(2.72161e-11 1.136 -39.36)
(2.66782e-11 1.2878 -38.8041)
(2.87098e-11 1.43592 -38.2197)
(2.46443e-11 1.58071 -37.6309)
(2.31738e-11 1.72367 -37.0449)
(2.31824e-11 1.85746 -36.4894)
(2.41421e-11 1.98249 -35.9634)
(2.04794e-11 2.10648 -35.4403)
(2.16187e-11 2.23632 -34.9007)
(2.172e-11 2.3722 -34.3453)
(2.42959e-11 2.50935 -33.7905)
(2.03319e-11 2.63718 -33.2739)
(2.48911e-11 2.74895 -32.8108)
(1.92232e-11 2.84828 -32.3765)
(2.17701e-11 2.93914 -31.9498)
(2.11685e-11 3.01817 -31.5335)
(2.5944e-11 3.08539 -31.119)
(2.43894e-11 3.1433 -30.6949)
(2.1815e-11 3.19127 -30.2662)
(2.34712e-11 3.23122 -29.8318)
(2.38262e-11 3.26607 -29.3841)
(2.57263e-11 3.29829 -28.9178)
(2.01824e-11 3.32977 -28.4322)
(2.13691e-11 3.36169 -27.9268)
(1.97143e-11 3.39678 -27.4022)
(1.86588e-11 3.43566 -26.8655)
(1.75049e-11 3.47759 -26.3231)
(1.99578e-11 3.52292 -25.7785)
(1.34367e-11 3.56964 -25.2508)
(1.40688e-11 3.61638 -24.7463)
(1.22392e-11 3.66404 -24.2541)
(1.13729e-11 3.71242 -23.7721)
(1.04038e-11 3.76145 -23.298)
(9.09212e-12 3.81165 -22.8285)
(1.2481e-11 3.8618 -22.3639)
(6.5694e-12 3.91207 -21.8996)
(9.46129e-12 3.96511 -21.4116)
(1.55915e-11 4.02331 -20.8868)
(7.18093e-12 4.08282 -20.3497)
(4.83023e-12 4.13944 -19.8332)
(5.51781e-12 4.19335 -19.3367)
(5.28176e-12 4.24802 -18.843)
(5.19742e-12 4.3036 -18.3527)
(5.05995e-12 4.35918 -17.8803)
(4.89036e-12 4.41568 -17.4144)
(4.63671e-12 4.4778 -16.9124)
(4.33695e-12 4.54611 -16.3697)
(4.04471e-12 4.61481 -15.8344)
(3.33131e-12 4.68182 -15.3285)
(3.75185e-12 4.74975 -14.8335)
(6.93582e-12 4.82051 -14.3325)
(2.25424e-12 4.89393 -13.8184)
(3.62751e-12 4.96936 -13.2893)
(3.56185e-12 5.04586 -12.7549)
(5.61813e-12 5.12214 -12.2312)
(7.99416e-12 5.19892 -11.7104)