/*--------------------------------*- C++ -*----------------------------------*\
| =========                 |                                                 |
| \\      /  F ield         | OpenFOAM: The Open Source CFD Toolbox           |
|  \\    /   O peration     | Version:  2212                                  |
|   \\  /    A nd           | Website:  www.openfoam.com                      |
|    \\/     M anipulation  |                                                 |
\*---------------------------------------------------------------------------*/
FoamFile
{
    version     2.0;
    format      ascii;
    arch        "LSB;label=32;scalar=64";
    class       surfaceScalarField;
    location    "10";
    object      phi;
}
// * * * * * * * * * * * * * * * * * * * * * * * * * * * * * * * * * * * * * //

dimensions      [0 3 -1 0 0 0 0];

oriented        oriented;

internalField   nonuniform List<scalar> 
24170
(
3.20368e-05
-1.96583e-07
3.16324e-05
1.96755e-07
3.09456e-05
5.69034e-07
3.05872e-05
-1.62678e-07
3.01537e-05
1.17299e-07
3.00031e-05
-1.80621e-07
3.00924e-05
-4.21898e-07
3.04619e-05
-4.2603e-07
3.07888e-05
-4.61914e-07
3.12385e-05
-2.63763e-07
3.14865e-05
-1.38256e-07
3.1794e-05
6.88202e-08
3.1829e-05
2.98343e-07
3.18013e-05
5.58825e-07
3.30489e-05
-7.12729e-07
3.45559e-05
-1.04316e-06
3.75481e-05
-3.03988e-06
-8.76711e-06
4.60949e-05
3.41992e-05
-2.5652e-07
3.43144e-05
-1.55049e-07
3.44839e-05
1.47656e-07
3.42169e-05
-5.42944e-07
3.41007e-05
-2.52764e-07
3.41706e-05
-7.40815e-07
3.4395e-05
-1.0568e-06
3.482e-05
-1.04282e-06
3.52112e-05
-9.50152e-07
3.56667e-05
-5.76602e-07
3.59773e-05
-2.13149e-07
3.62845e-05
2.04682e-07
3.64679e-05
6.35731e-07
3.706e-05
6.11772e-07
3.78033e-05
-7.96993e-07
3.89693e-05
-1.69354e-06
4.07648e-05
-4.60254e-06
-1.16154e-05
4.36381e-05
3.65812e-05
-2.36657e-07
3.6559e-05
-1.87718e-07
3.6688e-05
-9.91569e-11
3.6203e-05
-3.14496e-07
3.62435e-05
-4.43297e-07
3.64795e-05
-1.13763e-06
3.68661e-05
-1.59809e-06
3.74127e-05
-1.62108e-06
3.78636e-05
-1.45678e-06
3.82304e-05
-8.85678e-07
3.83533e-05
-3.03655e-07
3.83966e-05
2.89302e-07
3.84824e-05
6.8887e-07
3.89198e-05
4.02131e-07
3.91547e-05
-7.90696e-07
3.98721e-05
-2.24889e-06
4.06731e-05
-5.51663e-06
-1.12785e-05
4.03169e-05
3.91923e-05
-1.89261e-07
3.92528e-05
-3.45727e-07
3.93336e-05
-2.45882e-07
3.88354e-05
-2.54664e-07
3.89169e-05
-8.73161e-07
3.91723e-05
-1.73046e-06
3.9563e-05
-2.23929e-06
4.0072e-05
-2.24588e-06
4.04603e-05
-1.86334e-06
4.06834e-05
-1.01339e-06
4.06421e-05
-9.266e-08
4.05156e-05
6.72798e-07
4.04276e-05
1.08948e-06
4.04689e-05
7.33719e-07
4.05163e-05
-4.66025e-07
4.08147e-05
-2.284e-06
4.07707e-05
-5.31299e-06
-9.66203e-06
3.9269e-05
4.20389e-05
-1.70627e-07
4.21288e-05
-4.56091e-07
4.20735e-05
-2.09922e-07
4.17084e-05
-7.60662e-09
4.18507e-05
-1.07582e-06
4.21131e-05
-2.05902e-06
4.24805e-05
-2.6617e-06
4.29163e-05
-2.69574e-06
4.32025e-05
-2.16554e-06
4.328e-05
-1.07394e-06
4.31063e-05
9.53385e-08
4.28276e-05
9.93671e-07
4.25693e-05
1.39935e-06
4.23791e-05
1.00217e-06
4.22132e-05
-2.20119e-07
4.20781e-05
-2.11561e-06
4.14749e-05
-4.77544e-06
-7.97743e-06
3.9808e-05
4.5088e-05
-1.74005e-07
4.51516e-05
-5.90042e-07
4.50183e-05
-2.25291e-07
4.48179e-05
-8.16073e-08
4.49819e-05
-1.45168e-06
4.52291e-05
-2.4958e-06
4.55665e-05
-3.12048e-06
4.59258e-05
-3.09998e-06
4.6119e-05
-2.34222e-06
4.60836e-05
-9.72259e-07
4.58271e-05
4.55169e-07
4.54631e-05
1.4917e-06
4.5104e-05
1.9177e-06
4.47675e-05
1.51455e-06
4.44191e-05
2.95554e-07
4.39476e-05
-1.54065e-06
4.30749e-05
-3.80567e-06
-6.328e-06
4.15297e-05
4.83372e-05
-1.96088e-07
4.83652e-05
-6.35018e-07
4.82327e-05
-1.2156e-07
4.81608e-05
-5.33596e-08
4.82985e-05
-1.60957e-06
4.85179e-05
-2.73484e-06
4.88189e-05
-3.43596e-06
4.91124e-05
-3.40065e-06
4.92415e-05
-2.47958e-06
4.91565e-05
-8.89983e-07
4.88812e-05
7.28045e-07
4.85021e-05
1.87651e-06
4.81065e-05
2.32658e-06
4.76977e-05
1.94489e-06
4.72218e-05
7.86634e-07
4.65646e-05
-8.82665e-07
4.55833e-05
-2.84312e-06
-4.93484e-06
4.41936e-05
5.17949e-05
-1.98218e-07
5.18086e-05
-7.12501e-07
5.17366e-05
-1.54037e-07
5.17356e-05
-1.97447e-07
5.18194e-05
-1.80228e-06
5.1994e-05
-3.0029e-06
5.22441e-05
-3.74613e-06
5.2483e-05
-3.66758e-06
5.25898e-05
-2.58939e-06
5.25279e-05
-8.14609e-07
5.23108e-05
9.70576e-07
5.19898e-05
2.22992e-06
5.16211e-05
2.73622e-06
5.12043e-05
2.40788e-06
5.06796e-05
1.35056e-06
4.99564e-05
-1.43095e-07
4.89681e-05
-1.82346e-06
-3.61629e-06
4.77248e-05
5.55115e-05
-2.06892e-07
5.55076e-05
-7.20438e-07
5.55097e-05
-1.69808e-07
5.55439e-05
-2.41733e-07
5.55716e-05
-1.83293e-06
5.56856e-05
-3.12386e-06
5.5867e-05
-3.93903e-06
5.60597e-05
-3.8827e-06
5.61843e-05
-2.74496e-06
5.62114e-05
-8.77408e-07
5.61282e-05
1.01501e-06
5.59427e-05
2.37973e-06
5.56726e-05
2.97467e-06
5.53139e-05
2.73891e-06
5.48147e-05
1.82166e-06
5.41174e-05
5.33334e-07
5.31889e-05
-8.82859e-07
-2.48412e-06
5.20316e-05
5.9512e-05
-2.2262e-07
5.94787e-05
-7.46073e-07
5.95478e-05
-3.09614e-07
5.96071e-05
-3.75345e-07
5.95835e-05
-1.87151e-06
5.96179e-05
-3.20999e-06
5.9705e-05
-4.07488e-06
5.98484e-05
-4.06803e-06
6.00191e-05
-2.95371e-06
6.0186e-05
-1.08178e-06
6.03041e-05
8.67247e-07
6.0326e-05
2.32352e-06
6.02322e-05
3.04203e-06
6.00065e-05
2.94096e-06
5.96117e-05
2.19923e-06
5.90112e-05
1.12554e-06
5.81758e-05
-6.19129e-08
-1.37078e-06
5.71275e-05
6.38007e-05
-2.6685e-07
6.37376e-05
-6.86211e-07
6.38501e-05
-4.2761e-07
6.3944e-05
-4.76904e-07
6.38844e-05
-1.82004e-06
6.38231e-05
-3.16922e-06
6.37905e-05
-4.07151e-06
6.38649e-05
-4.18755e-06
6.4083e-05
-3.22737e-06
6.44123e-05
-1.46465e-06
6.47673e-05
4.51553e-07
6.5055e-05
1.98782e-06
6.52064e-05
2.84528e-06
6.51892e-05
2.92595e-06
6.49746e-05
2.38792e-06
6.45426e-05
1.54459e-06
6.39077e-05
6.14133e-07
-4.62566e-07
6.29775e-05
5.7432e-05
-2.86582e-07
5.73671e-05
-6.49635e-07
5.74727e-05
-5.55648e-07
5.76009e-05
-6.25024e-07
5.75518e-05
-1.79607e-06
5.74194e-05
-3.06743e-06
5.7273e-05
-3.974e-06
5.72547e-05
-4.23024e-06
5.74525e-05
-3.49588e-06
5.78362e-05
-1.9261e-06
5.83165e-05
-8.96199e-08
5.87718e-05
1.43495e-06
5.91202e-05
2.42379e-06
5.93014e-05
2.65696e-06
5.93097e-05
2.32543e-06
5.91426e-05
1.65938e-06
5.88081e-05
8.90669e-07
6.72206e-08
5.82777e-05
7.00082e-05
-3.22474e-07
6.99303e-05
-5.79438e-07
7.00487e-05
-6.86465e-07
7.02201e-05
-8.11803e-07
7.01473e-05
-1.74781e-06
6.9915e-05
-2.87294e-06
6.96219e-05
-3.73098e-06
6.94598e-05
-4.13454e-06
6.96016e-05
-3.71138e-06
7.0076e-05
-2.45446e-06
7.07732e-05
-9.08387e-07
7.15745e-05
5.46281e-07
7.22776e-05
1.57889e-06
7.28198e-05
2.02108e-06
7.31315e-05
1.87874e-06
7.3259e-05
1.44607e-06
7.32115e-05
8.54646e-07
2.68092e-07
7.29665e-05
8.53427e-05
-3.53858e-07
8.52674e-05
-5.18985e-07
8.53692e-05
-7.7707e-07
8.55638e-05
-1.02917e-06
8.55035e-05
-1.70138e-06
8.51875e-05
-2.6105e-06
8.47411e-05
-3.34181e-06
8.43388e-05
-3.81732e-06
8.42483e-05
-3.69075e-06
8.45979e-05
-2.94224e-06
8.54241e-05
-1.83375e-06
8.65022e-05
-7.06632e-07
8.76541e-05
2.78297e-07
8.86588e-05
8.32696e-07
8.94851e-05
9.08088e-07
9.01099e-05
6.69797e-07
9.06237e-05
2.29921e-07
-1.58774e-07
9.09614e-05
0.000104008
-3.77026e-07
0.00010398
-4.68277e-07
0.000104014
-8.3012e-07
0.000104191
-1.19353e-06
0.000104164
-1.72926e-06
0.000103858
-2.3436e-06
0.00010332
-2.90547e-06
0.000102706
-3.2944e-06
0.000102261
-3.40167e-06
0.000102306
-3.11109e-06
0.000102811
-2.52576e-06
0.000103708
-1.80875e-06
0.000104976
-1.16814e-06
0.000106395
-8.25311e-07
0.00010786
-6.94593e-07
0.000109146
-8.13269e-07
0.000110396
-1.08633e-06
-1.3656e-06
0.000111539
0.000126764
-3.63177e-07
0.000126787
-4.93599e-07
0.000126815
-8.32257e-07
0.000126892
-1.29399e-06
0.000126871
-1.73375e-06
0.000126582
-2.13907e-06
0.000126089
-2.51164e-06
0.000125437
-2.79277e-06
0.000124819
-2.94061e-06
0.000124434
-2.91812e-06
0.000124381
-2.70775e-06
0.000124789
-2.36696e-06
0.000125483
-2.15691e-06
0.000126627
-2.05407e-06
0.000127817
-2.17922e-06
0.000129327
-2.31317e-06
0.000130714
-2.6709e-06
-2.8892e-06
0.000132324
0.000154506
-3.33323e-07
0.000154586
-5.3672e-07
0.000154614
-8.38944e-07
0.000154572
-1.26664e-06
0.000154443
-1.64082e-06
0.000154163
-1.9473e-06
0.000153783
-2.23847e-06
0.000153316
-2.48567e-06
0.000152853
-2.65286e-06
0.000152448
-2.7284e-06
0.000152301
-2.75078e-06
0.000152449
-2.7614e-06
0.000152974
-2.84612e-06
0.000153689
-3.01292e-06
0.000154688
-3.27934e-06
0.000155781
-3.58047e-06
0.000157068
-3.96402e-06
-4.25668e-06
0.000158357
0.000188334
-2.682e-07
0.000188415
-5.78157e-07
0.000188417
-8.16833e-07
0.000188272
-1.12683e-06
0.000188029
-1.43574e-06
0.000187734
-1.72837e-06
0.000187402
-2.01195e-06
0.000187036
-2.26514e-06
0.000186693
-2.4667e-06
0.000186385
-2.62955e-06
0.00018626
-2.80016e-06
0.000186264
-3.02331e-06
0.000186592
-3.33191e-06
0.000187076
-3.75895e-06
0.000187968
-4.28116e-06
0.000189031
-4.85409e-06
0.000190455
-5.42997e-06
-5.922e-06
0.000191974
0.000229644
-2.6525e-07
0.000229638
-5.34777e-07
0.000229575
-7.05903e-07
0.000229352
-9.12308e-07
0.000229011
-1.11323e-06
0.000228639
-1.44045e-06
0.000228246
-1.71438e-06
0.000227825
-2.00182e-06
0.000227328
-2.13395e-06
0.000226758
-2.27626e-06
0.000226261
-2.49853e-06
0.000225972
-2.97939e-06
0.000226205
-3.73821e-06
0.000226948
-4.72989e-06
0.000228375
-5.8268e-06
0.00023028
-6.93153e-06
0.000232709
-7.9157e-06
-8.67975e-06
0.000235358
0.00016811
-2.8193e-07
0.000168084
-4.2049e-07
0.000167894
-6.23521e-07
0.000167794
-6.783e-07
0.000167441
-9.35575e-07
0.000167355
-1.23244e-06
0.000167003
-1.60932e-06
0.000166721
-1.69796e-06
0.000166043
-1.73507e-06
0.000165499
-1.81971e-06
0.000165023
-2.26727e-06
0.000164979
-3.0646e-06
0.000165284
-4.22678e-06
0.000166014
-5.59105e-06
0.000167085
-7.02895e-06
0.000168418
-8.38146e-06
0.000169923
-9.50627e-06
-1.02622e-05
0.000171403
0.000146367
-3.06807e-07
0.000146257
-3.51334e-07
0.00014616
-4.50567e-07
0.000145975
-5.66435e-07
0.000145915
-8.00737e-07
0.000145758
-1.2102e-06
0.000145565
-1.37288e-06
0.000144978
-1.33385e-06
0.0001444
-1.23533e-06
0.000143816
-1.45317e-06
0.00014347
-2.04148e-06
0.000143271
-3.04469e-06
0.000143289
-4.36255e-06
0.000143433
-5.87359e-06
0.00014372
-7.41745e-06
0.000144084
-8.84538e-06
0.000144496
-1.00038e-05
-1.0724e-05
0.000144893
0.000127431
-3.32395e-07
0.000127336
-2.54381e-07
0.000127208
-3.65486e-07
0.000127149
-4.79391e-07
0.000127117
-7.85369e-07
0.00012701
-1.07707e-06
0.00012667
-1.12246e-06
0.000126228
-9.60858e-07
0.000125774
-9.04318e-07
0.000125342
-1.13846e-06
0.00012491
-1.73224e-06
0.000124458
-2.71272e-06
0.000123975
-3.99168e-06
0.000123456
-5.44965e-06
0.000122903
-6.95598e-06
0.000122341
-8.35174e-06
0.000121774
-9.50201e-06
-1.02299e-05
0.000121227
0.000110934
-3.7271e-07
0.000110834
-1.53798e-07
0.000110775
-2.67259e-07
0.000110768
-4.72467e-07
0.000110735
-7.41725e-07
0.000110601
-9.43453e-07
0.000110354
-9.09074e-07
0.000110076
-7.38081e-07
0.000109751
-6.56968e-07
0.000109369
-8.29174e-07
0.000108879
-1.33069e-06
0.000108259
-2.17063e-06
0.000107469
-3.27765e-06
0.000106505
-4.56511e-06
0.000105395
-5.90481e-06
0.00010416
-7.18631e-06
0.000102882
-8.26545e-06
-8.99734e-06
0.000101601
9.65469e-05
-3.47158e-07
9.64984e-05
-1.22631e-07
9.64958e-05
-2.7598e-07
9.6517e-05
-4.68301e-07
9.64469e-05
-6.66079e-07
9.63356e-05
-8.46679e-07
9.61986e-05
-8.06911e-07
9.60297e-05
-6.05563e-07
9.58045e-05
-4.6565e-07
9.54941e-05
-5.3771e-07
9.50371e-05
-9.25208e-07
9.43831e-05
-1.56459e-06
9.34885e-05
-2.44613e-06
9.23657e-05
-3.489e-06
9.10059e-05
-4.60173e-06
8.94581e-05
-5.68618e-06
8.77932e-05
-6.6371e-06
-7.33906e-06
8.60892e-05
8.39829e-05
-2.91625e-07
8.40185e-05
-9.7361e-08
8.40522e-05
-2.75089e-07
8.40419e-05
-4.35061e-07
8.39708e-05
-6.26597e-07
8.38896e-05
-8.08757e-07
8.38089e-05
-7.69638e-07
8.3728e-05
-5.64447e-07
8.36188e-05
-3.8649e-07
8.34042e-05
-3.82974e-07
8.30527e-05
-5.94778e-07
8.24714e-05
-1.01991e-06
8.16473e-05
-1.63761e-06
8.05599e-05
-2.44571e-06
7.9222e-05
-3.30484e-06
7.76562e-05
-4.15145e-06
7.58942e-05
-4.93282e-06
-5.53351e-06
7.40652e-05
7.30675e-05
-1.59183e-07
7.32392e-05
-2.33818e-07
7.32163e-05
-2.06964e-07
7.31367e-05
-3.48415e-07
7.30793e-05
-5.64222e-07
7.30329e-05
-7.90884e-07
7.29801e-05
-7.7939e-07
7.29666e-05
-6.13522e-07
7.29543e-05
-4.29026e-07
7.28808e-05
-3.22898e-07
7.26366e-05
-4.00675e-07
7.21941e-05
-6.08847e-07
7.15255e-05
-1.02304e-06
7.06213e-05
-1.57963e-06
6.94639e-05
-2.18253e-06
6.806e-05
-2.78124e-06
6.64383e-05
-3.34922e-06
-3.82577e-06
6.4675e-05
6.34483e-05
9.23765e-08
6.39121e-05
-6.21516e-07
6.38241e-05
-9.00357e-08
6.37291e-05
-1.13932e-07
6.36875e-05
-6.27749e-07
6.36709e-05
-8.16095e-07
6.36234e-05
-7.92273e-07
6.36239e-05
-6.8064e-07
6.36625e-05
-5.31058e-07
6.36776e-05
-4.13167e-07
6.35291e-05
-2.96406e-07
6.32082e-05
-3.47502e-07
6.27672e-05
-6.19777e-07
6.21106e-05
-9.73677e-07
6.12169e-05
-1.33149e-06
6.00899e-05
-1.69323e-06
5.87259e-05
-2.02916e-06
-2.37518e-06
5.71711e-05
5.50649e-05
4.77292e-07
5.56084e-05
-1.08371e-06
5.55359e-05
6.95697e-08
5.56914e-05
-1.55767e-07
5.58613e-05
-8.3588e-07
5.58678e-05
-8.63918e-07
5.57767e-05
-7.63726e-07
5.56812e-05
-6.71529e-07
5.55852e-05
-5.36989e-07
5.5572e-05
-4.69672e-07
5.54582e-05
-2.80952e-07
5.5245e-05
-2.32386e-07
5.50264e-05
-4.87639e-07
5.46255e-05
-6.49105e-07
5.40225e-05
-7.90693e-07
5.3227e-05
-9.38666e-07
5.21596e-05
-1.0758e-06
-1.19273e-06
5.09066e-05
4.82914e-05
4.61641e-07
4.87409e-05
-1.44304e-06
4.9292e-05
-3.77752e-07
4.98957e-05
-6.2639e-07
4.99303e-05
-8.99601e-07
4.96074e-05
-5.88291e-07
4.91624e-05
-3.94715e-07
4.86897e-05
-3.0775e-07
4.82472e-05
-2.12868e-07
4.79745e-05
-3.13608e-07
4.78791e-05
-3.30326e-07
4.78569e-05
-3.53752e-07
4.77456e-05
-4.96816e-07
4.74411e-05
-4.47869e-07
4.70101e-05
-4.37834e-07
4.64441e-05
-4.61753e-07
4.57046e-05
-4.47275e-07
-4.2389e-07
4.47924e-05
4.24921e-05
4.10569e-05
4.0693e-05
4.00639e-05
3.91597e-05
3.85633e-05
3.81556e-05
3.78315e-05
3.76024e-05
3.72665e-05
3.69115e-05
3.65354e-05
3.6018e-05
3.55526e-05
3.50976e-05
3.46088e-05
3.4124e-05
3.36921e-05
-8.39166e-07
2.01413e-06
-3.30198e-06
2.73394e-06
-5.36225e-06
2.97859e-06
-8.28034e-06
3.00611e-06
-1.03533e-05
2.90486e-06
-1.29932e-05
2.65932e-06
-1.44751e-05
2.33923e-06
-1.64598e-05
1.96627e-06
-1.72561e-05
1.63688e-06
-1.86159e-05
1.30545e-06
-1.88524e-05
1.03183e-06
-1.97039e-05
7.71721e-07
-1.95503e-05
5.77114e-07
-2.00353e-05
3.84241e-07
-1.95956e-05
2.22661e-07
-1.9728e-05
1.01357e-08
-1.89496e-05
-1.8257e-07
-1.86738e-05
-4.24605e-07
-1.75532e-05
-6.26626e-07
-1.68909e-05
-8.70564e-07
-1.54764e-05
-1.06119e-06
-1.44896e-05
-1.28706e-06
-1.28948e-05
-1.45241e-06
-1.16904e-05
-1.64154e-06
-1.00085e-05
-1.7784e-06
-8.62642e-06
-1.95046e-06
-6.86226e-06
-2.06685e-06
-5.37409e-06
-2.18194e-06
-3.65586e-06
-2.24927e-06
-2.23417e-06
-2.25245e-06
-5.27508e-07
-2.30427e-06
1.23207e-06
-2.41497e-06
3.22186e-06
-2.47688e-06
5.20098e-06
-2.48752e-06
7.22645e-06
-2.41363e-06
9.15505e-06
-2.28864e-06
1.10841e-05
-2.25101e-06
1.29581e-05
-2.14314e-06
1.47234e-05
-2.04662e-06
1.65599e-05
-2.04226e-06
1.8372e-05
-2.05544e-06
2.01779e-05
-1.9639e-06
2.18722e-05
-1.90221e-06
2.36841e-05
-1.92828e-06
2.54615e-05
-1.95432e-06
2.71558e-05
-1.79163e-06
2.86545e-05
-1.66068e-06
3.02126e-05
-1.65724e-06
3.17462e-05
-1.69763e-06
3.33505e-05
-1.6999e-06
3.48562e-05
-1.66984e-06
3.62424e-05
-1.48473e-06
3.74688e-05
-1.37105e-06
3.86231e-05
-1.2534e-06
3.96171e-05
-1.14416e-06
4.05798e-05
-1.05487e-06
4.14457e-05
-1.00088e-06
4.23457e-05
-9.77751e-07
4.31968e-05
-9.71288e-07
4.4072e-05
-9.37407e-07
4.48773e-05
-9.01593e-07
4.56993e-05
-8.70185e-07
4.64526e-05
-8.34204e-07
4.72077e-05
-7.8822e-07
4.79025e-05
-7.5993e-07
4.85923e-05
-7.05067e-07
4.92378e-05
-6.91207e-07
4.99093e-05
-6.73609e-07
5.05103e-05
-6.34762e-07
5.11068e-05
-5.92275e-07
5.16415e-05
-5.63477e-07
5.2175e-05
-5.26184e-07
5.26459e-05
-4.9952e-07
5.31306e-05
-4.74816e-07
5.35563e-05
-4.47432e-07
5.39848e-05
-4.11657e-07
5.43585e-05
-3.85346e-07
5.47334e-05
-3.55683e-07
5.50543e-05
-3.37462e-07
5.53794e-05
-3.09255e-07
5.56619e-05
-2.9818e-07
5.5953e-05
-2.80069e-07
5.61945e-05
-2.6423e-07
5.64425e-05
-2.39398e-07
5.66481e-05
-2.22677e-07
5.68575e-05
-2.01493e-07
5.70297e-05
-1.91924e-07
5.7185e-05
-1.71034e-07
5.72847e-05
-1.52631e-07
5.73454e-05
-1.36249e-07
5.74121e-05
-1.24168e-07
5.75007e-05
-1.17045e-07
5.75924e-05
-1.04601e-07
5.76788e-05
-9.14694e-08
5.77538e-05
-7.74836e-08
5.78192e-05
-6.557e-08
5.78715e-05
-5.13763e-08
5.7911e-05
-3.63946e-08
5.79495e-05
-3.42194e-08
5.79819e-05
-2.51224e-08
5.79973e-05
-6.71808e-09
5.80089e-05
3.12767e-09
5.80132e-05
1.10828e-08
5.80193e-05
1.44677e-08
5.80246e-05
9.54909e-09
5.80217e-05
1.75401e-08
5.80024e-05
2.39537e-08
5.79752e-05
3.03193e-08
5.79303e-05
3.88251e-08
5.78777e-05
4.64372e-08
5.78161e-05
4.78757e-08
5.77455e-05
5.78183e-08
5.7659e-05
6.73971e-08
5.75763e-05
6.48963e-08
5.74869e-05
6.6305e-08
5.73946e-05
7.09124e-08
5.72952e-05
7.35085e-08
5.71869e-05
8.2961e-08
5.70788e-05
7.8957e-08
5.69713e-05
8.01904e-08
5.68623e-05
8.18585e-08
5.67592e-05
7.92265e-08
5.6651e-05
8.27184e-08
5.65487e-05
7.60899e-08
5.64383e-05
7.94252e-08
5.63167e-05
8.87322e-08
5.61922e-05
8.83432e-08
5.60732e-05
8.1385e-08
5.59499e-05
8.3995e-08
5.58197e-05
8.95893e-08
5.56917e-05
8.71381e-08
5.55568e-05
9.28227e-08
5.54216e-05
9.40934e-08
5.52896e-05
8.90425e-08
5.51692e-05
7.94066e-08
5.50511e-05
7.57481e-08
5.49411e-05
7.13773e-08
5.48381e-05
6.51519e-08
5.475e-05
5.65699e-08
5.46531e-05
6.77135e-08
5.45479e-05
8.05255e-08
5.44451e-05
7.89556e-08
5.43307e-05
9.31855e-08
5.42129e-05
9.90354e-08
5.40896e-05
1.08019e-07
5.39718e-05
1.05865e-07
5.38663e-05
9.60898e-08
5.3761e-05
9.78258e-08
5.36486e-05
1.05834e-07
5.35463e-05
9.63509e-08
5.34536e-05
8.64159e-08
5.33515e-05
9.57492e-08
5.32419e-05
1.02766e-07
5.31278e-05
1.07508e-07
5.30145e-05
1.06687e-07
5.29057e-05
1.02324e-07
5.2794e-05
1.04706e-07
5.26836e-05
1.02864e-07
5.25808e-05
9.39516e-08
5.24782e-05
9.19586e-08
5.2367e-05
9.87831e-08
5.22571e-05
9.55816e-08
5.21348e-05
1.07356e-07
5.2004e-05
1.15155e-07
5.18577e-05
1.32095e-07
5.16978e-05
1.46592e-07
5.15392e-05
1.46296e-07
5.13438e-05
1.8315e-07
5.11574e-05
1.73008e-07
5.09559e-05
1.84667e-07
5.06943e-05
2.40536e-07
5.04061e-05
2.59667e-07
5.00548e-05
3.16521e-07
4.96277e-05
3.82171e-07
4.91103e-05
4.65319e-07
4.84107e-05
6.34612e-07
4.74587e-05
8.80697e-07
4.60951e-05
1.28088e-06
4.38059e-05
2.20878e-06
3.10191e-06
4.06307e-05
-2.72254e-06
5.52192e-06
-5.03814e-06
5.35475e-06
-6.67644e-06
5.18213e-06
-8.34815e-06
4.85375e-06
-9.26593e-06
4.36441e-06
-1.02672e-05
3.77939e-06
-1.05977e-05
3.21515e-06
-1.12607e-05
2.71507e-06
-1.14249e-05
2.31228e-06
-1.20282e-05
1.97866e-06
-1.22272e-05
1.69294e-06
-1.28023e-05
1.40924e-06
-1.29422e-05
1.11939e-06
-1.32838e-05
7.90308e-07
-1.31468e-05
4.33735e-07
-1.31009e-05
3.14915e-08
-1.25931e-05
-3.92654e-07
-1.21107e-05
-8.4584e-07
-1.12132e-05
-1.29035e-06
-1.03107e-05
-1.73418e-06
-9.0691e-06
-2.15331e-06
-7.80348e-06
-2.56131e-06
-6.27447e-06
-2.92724e-06
-4.73503e-06
-3.25268e-06
-3.03362e-06
-3.52759e-06
-1.31831e-06
-3.77439e-06
4.89602e-07
-3.98107e-06
2.30852e-06
-4.14087e-06
4.17801e-06
-4.25593e-06
6.10355e-06
-4.3312e-06
8.03332e-06
-4.38225e-06
9.8688e-06
-4.41603e-06
1.16599e-05
-4.41616e-06
1.34017e-05
-4.38159e-06
1.51385e-05
-4.29977e-06
1.68876e-05
-4.17328e-06
1.85619e-05
-4.05441e-06
2.02356e-05
-3.9349e-06
2.18964e-05
-3.81982e-06
2.34966e-05
-3.7316e-06
2.50281e-05
-3.67305e-06
2.65859e-05
-3.58929e-06
2.81034e-05
-3.4877e-06
2.95249e-05
-3.40199e-06
3.08427e-05
-3.33481e-06
3.22336e-05
-3.23937e-06
3.36579e-05
-3.15994e-06
3.50882e-05
-3.14854e-06
3.64105e-05
-3.09368e-06
3.75874e-05
-2.94357e-06
3.86112e-05
-2.76362e-06
3.96201e-05
-2.56553e-06
4.05804e-05
-2.41721e-06
4.1486e-05
-2.23827e-06
4.23305e-05
-2.08441e-06
4.31808e-05
-1.98316e-06
4.40217e-05
-1.92931e-06
4.48541e-05
-1.879e-06
4.56162e-05
-1.8063e-06
4.63605e-05
-1.73822e-06
4.70898e-05
-1.69036e-06
4.78161e-05
-1.64116e-06
4.85104e-05
-1.57741e-06
4.91936e-05
-1.50242e-06
4.98367e-05
-1.43462e-06
5.04806e-05
-1.36732e-06
5.108e-05
-1.30967e-06
5.16508e-05
-1.25171e-06
5.21954e-05
-1.19151e-06
5.27278e-05
-1.12804e-06
5.32214e-05
-1.06846e-06
5.36996e-05
-1.0075e-06
5.41427e-05
-9.52784e-07
5.45635e-05
-8.98648e-07
5.49547e-05
-8.46038e-07
5.53381e-05
-7.89987e-07
5.56913e-05
-7.40185e-07
5.60301e-05
-6.91029e-07
5.6337e-05
-6.47511e-07
5.66337e-05
-6.03129e-07
5.68965e-05
-5.6602e-07
5.71427e-05
-5.28092e-07
5.73634e-05
-4.9303e-07
5.75794e-05
-4.5651e-07
5.77757e-05
-4.24653e-07
5.79649e-05
-3.91379e-07
5.81283e-05
-3.61926e-07
5.82699e-05
-3.29698e-07
5.83673e-05
-2.99795e-07
5.8435e-05
-2.72497e-07
5.85083e-05
-2.46663e-07
5.85909e-05
-2.23597e-07
5.86785e-05
-1.99368e-07
5.87607e-05
-1.76258e-07
5.8837e-05
-1.52217e-07
5.89032e-05
-1.30723e-07
5.89649e-05
-1.09352e-07
5.90216e-05
-8.97872e-08
5.90667e-05
-7.29787e-08
5.91043e-05
-5.5896e-08
5.91457e-05
-3.67903e-08
5.91836e-05
-2.04383e-08
5.92204e-05
-6.42358e-09
5.92481e-05
5.948e-09
5.92611e-05
1.46456e-08
5.92654e-05
2.52842e-08
5.92613e-05
3.52595e-08
5.92483e-05
4.40444e-08
5.9231e-05
5.26943e-08
5.92079e-05
6.13533e-08
5.91796e-05
6.50237e-08
5.91505e-05
7.23457e-08
5.91217e-05
7.94574e-08
5.90866e-05
8.07186e-08
5.9049e-05
8.2818e-08
5.90108e-05
8.62439e-08
5.89723e-05
8.759e-08
5.89386e-05
8.94677e-08
5.89032e-05
8.5556e-08
5.88716e-05
8.35686e-08
5.88435e-05
8.34781e-08
5.88141e-05
8.42031e-08
5.87874e-05
8.44861e-08
5.87596e-05
7.7069e-08
5.87369e-05
7.18632e-08
5.8716e-05
7.65903e-08
5.86882e-05
8.04485e-08
5.86533e-05
7.86216e-08
5.86193e-05
7.8709e-08
5.85876e-05
8.06999e-08
5.85497e-05
8.36523e-08
5.85101e-05
9.03218e-08
5.84691e-05
9.29157e-08
5.84282e-05
8.75532e-08
5.83829e-05
8.29935e-08
5.8331e-05
8.69702e-08
5.82687e-05
9.57644e-08
5.82006e-05
9.89355e-08
5.81349e-05
9.2948e-08
5.80881e-05
8.85954e-08
5.80595e-05
8.59272e-08
5.8035e-05
7.99842e-08
5.80185e-05
8.70481e-08
5.80035e-05
9.22234e-08
5.79885e-05
1.03691e-07
5.79652e-05
1.12394e-07
5.79362e-05
1.11196e-07
5.7911e-05
1.12105e-07
5.7889e-05
1.18958e-07
5.78589e-05
1.19798e-07
5.78206e-05
1.18958e-07
5.77884e-05
1.23575e-07
5.77647e-05
1.22189e-07
5.77494e-05
1.18937e-07
5.7735e-05
1.16667e-07
5.77182e-05
1.14851e-07
5.76989e-05
1.19098e-07
5.76748e-05
1.21621e-07
5.76435e-05
1.18687e-07
5.76047e-05
1.23016e-07
5.75664e-05
1.27865e-07
5.75251e-05
1.26391e-07
5.74899e-05
1.30895e-07
5.74542e-05
1.38508e-07
5.74168e-05
1.56681e-07
5.73767e-05
1.73602e-07
5.73221e-05
1.8812e-07
5.72657e-05
2.25439e-07
5.71927e-05
2.30791e-07
5.71082e-05
2.49851e-07
5.70176e-05
3.08033e-07
5.69055e-05
3.41381e-07
5.67793e-05
4.05776e-07
5.66192e-05
4.94473e-07
5.64185e-05
6.10541e-07
5.61802e-05
8.05109e-07
5.58849e-05
1.10074e-06
5.55274e-05
1.55226e-06
5.50572e-05
2.59253e-06
4.03609e-06
5.4036e-05
-1.28225e-06
7.70652e-06
-2.49649e-06
6.96071e-06
-3.13624e-06
6.39699e-06
-3.87414e-06
5.80847e-06
-4.20351e-06
5.18398e-06
-4.85934e-06
4.57762e-06
-5.28715e-06
4.06339e-06
-6.14669e-06
3.65647e-06
-6.79483e-06
3.32545e-06
-7.78602e-06
3.02063e-06
-8.47701e-06
2.69318e-06
-9.3198e-06
2.30762e-06
-9.77422e-06
1.84768e-06
-1.02198e-05
1.31453e-06
-1.02534e-05
7.20099e-07
-1.01853e-05
7.01588e-08
-9.72229e-06
-6.20992e-07
-9.10645e-06
-1.33872e-06
-8.14166e-06
-2.05201e-06
-7.02332e-06
-2.74842e-06
-5.62038e-06
-3.4058e-06
-4.08834e-06
-4.0221e-06
-2.37142e-06
-4.56946e-06
-5.73974e-07
-5.02985e-06
1.32135e-06
-5.40458e-06
3.22823e-06
-5.70284e-06
5.15296e-06
-5.93093e-06
7.05522e-06
-6.09364e-06
8.94412e-06
-6.19822e-06
1.07958e-05
-6.25377e-06
1.26124e-05
-6.26922e-06
1.4373e-05
-6.2515e-06
1.60813e-05
-6.20372e-06
1.77415e-05
-6.1231e-06
1.93779e-05
-6.00828e-06
2.09964e-05
-5.86655e-06
2.25799e-05
-5.7097e-06
2.41343e-05
-5.5493e-06
2.56548e-05
-5.39745e-06
2.71371e-05
-5.25914e-06
2.85575e-05
-5.13536e-06
2.99465e-05
-5.00793e-06
3.12907e-05
-4.86105e-06
3.25865e-05
-4.71814e-06
3.38261e-05
-4.59781e-06
3.50422e-05
-4.47764e-06
3.62054e-05
-4.34994e-06
3.72711e-05
-4.24366e-06
3.82619e-05
-4.12118e-06
3.92122e-05
-3.93094e-06
4.01227e-05
-3.73096e-06
4.10522e-05
-3.54434e-06
4.19593e-05
-3.38318e-06
4.28441e-05
-3.1864e-06
4.36824e-05
-2.98318e-06
4.44781e-05
-2.83492e-06
4.52134e-05
-2.71594e-06
4.59221e-05
-2.63799e-06
4.66207e-05
-2.55133e-06
4.73288e-05
-2.48391e-06
4.80256e-05
-2.42192e-06
4.87085e-05
-2.35096e-06
4.93626e-05
-2.2525e-06
4.9998e-05
-2.15237e-06
5.06125e-05
-2.06111e-06
5.12159e-05
-1.97372e-06
5.1791e-05
-1.8874e-06
5.23426e-05
-1.80162e-06
5.28682e-05
-1.71697e-06
5.33698e-05
-1.62875e-06
5.38435e-05
-1.54316e-06
5.42917e-05
-1.45656e-06
5.47071e-05
-1.37254e-06
5.50969e-05
-1.29066e-06
5.54632e-05
-1.21388e-06
5.58137e-05
-1.1405e-06
5.61438e-05
-1.07004e-06
5.64549e-05
-1.00162e-06
5.67419e-05
-9.35784e-07
5.70122e-05
-8.73702e-07
5.72609e-05
-8.17063e-07
5.74917e-05
-7.61723e-07
5.77046e-05
-7.09956e-07
5.79064e-05
-6.60146e-07
5.80932e-05
-6.12642e-07
5.8267e-05
-5.65099e-07
5.84233e-05
-5.19593e-07
5.85546e-05
-4.75051e-07
5.86424e-05
-4.3221e-07
5.87e-05
-3.92644e-07
5.8763e-05
-3.54353e-07
5.88398e-05
-3.17155e-07
5.89181e-05
-2.819e-07
5.89921e-05
-2.47489e-07
5.9058e-05
-2.14896e-07
5.91158e-05
-1.83424e-07
5.91653e-05
-1.54451e-07
5.92091e-05
-1.2746e-07
5.92462e-05
-1.03232e-07
5.92786e-05
-7.93514e-08
5.93108e-05
-5.54985e-08
5.93404e-05
-3.34798e-08
5.93686e-05
-1.24163e-08
5.93893e-05
5.03705e-09
5.94005e-05
2.32832e-08
5.93983e-05
3.8738e-08
5.93894e-05
5.24069e-08
5.93699e-05
6.3365e-08
5.93457e-05
7.47184e-08
5.93144e-05
8.36367e-08
5.92786e-05
9.11285e-08
5.92382e-05
9.73947e-08
5.91991e-05
1.03115e-07
5.91548e-05
1.04969e-07
5.91107e-05
1.06977e-07
5.90639e-05
1.09305e-07
5.90163e-05
1.10777e-07
5.89693e-05
1.0808e-07
5.89238e-05
1.02782e-07
5.88806e-05
9.79672e-08
5.88425e-05
9.60966e-08
5.88059e-05
9.56575e-08
5.87723e-05
9.36182e-08
5.87357e-05
8.56651e-08
5.86983e-05
7.88e-08
5.86636e-05
7.69781e-08
5.86301e-05
7.74719e-08
5.85929e-05
7.69551e-08
5.85532e-05
7.77949e-08
5.85118e-05
8.03065e-08
5.84694e-05
8.30493e-08
5.84284e-05
8.85461e-08
5.83853e-05
9.24628e-08
5.83396e-05
9.12975e-08
5.82903e-05
9.03686e-08
5.82436e-05
9.51115e-08
5.82023e-05
1.00952e-07
5.81708e-05
1.00059e-07
5.81407e-05
9.67629e-08
5.81109e-05
9.6667e-08
5.80845e-05
9.17842e-08
5.80567e-05
8.71656e-08
5.80322e-05
9.0355e-08
5.8006e-05
9.72664e-08
5.79838e-05
1.05758e-07
5.79644e-05
1.13029e-07
5.7945e-05
1.14151e-07
5.79278e-05
1.1488e-07
5.79181e-05
1.16674e-07
5.79091e-05
1.18713e-07
5.79006e-05
1.19561e-07
5.78985e-05
1.18503e-07
5.78965e-05
1.18193e-07
5.78947e-05
1.14545e-07
5.78921e-05
1.13354e-07
5.78834e-05
1.17235e-07
5.78741e-05
1.21792e-07
5.78667e-05
1.217e-07
5.78542e-05
1.23461e-07
5.78395e-05
1.29193e-07
5.78264e-05
1.32144e-07
5.78064e-05
1.36947e-07
5.77854e-05
1.42006e-07
5.77617e-05
1.51298e-07
5.77377e-05
1.69063e-07
5.77049e-05
1.93458e-07
5.76555e-05
2.23683e-07
5.76153e-05
2.49762e-07
5.75524e-05
2.75616e-07
5.7466e-05
3.15418e-07
5.73805e-05
3.69268e-07
5.72676e-05
4.2598e-07
5.71358e-05
5.04986e-07
5.69738e-05
6.19137e-07
5.67603e-05
7.82221e-07
5.65061e-05
1.01257e-06
5.61833e-05
1.37385e-06
5.57639e-05
1.92154e-06
5.5367e-05
2.94341e-06
4.48347e-06
5.48826e-05
1.20787e-07
8.63361e-06
-2.53263e-07
7.7954e-06
-4.02537e-07
7.10691e-06
-8.15187e-07
6.46678e-06
-1.06313e-06
5.87076e-06
-1.75683e-06
5.39186e-06
-2.37974e-06
5.04716e-06
-3.5006e-06
4.80791e-06
-4.49946e-06
4.60028e-06
-5.8502e-06
4.36265e-06
-6.92996e-06
4.01126e-06
-8.13148e-06
3.51921e-06
-8.92003e-06
2.86931e-06
-9.6227e-06
2.08822e-06
-9.84873e-06
1.19817e-06
-9.87786e-06
2.4355e-07
-9.45972e-06
-7.69985e-07
-8.79126e-06
-1.82536e-06
-7.70425e-06
-2.88496e-06
-6.36166e-06
-3.90479e-06
-4.70874e-06
-4.85702e-06
-2.86838e-06
-5.73296e-06
-8.29174e-07
-6.47843e-06
1.2724e-06
-7.06383e-06
3.42585e-06
-7.50125e-06
5.55877e-06
-7.81446e-06
7.66706e-06
-8.02838e-06
9.71645e-06
-8.15698e-06
1.17101e-05
-8.21302e-06
1.3633e-05
-8.20888e-06
1.54856e-05
-8.1586e-06
1.72587e-05
-8.07253e-06
1.89656e-05
-7.95222e-06
2.06062e-05
-7.80718e-06
2.21917e-05
-7.64083e-06
2.37401e-05
-7.454e-06
2.52498e-05
-7.25394e-06
2.67179e-05
-7.04903e-06
2.81416e-05
-6.84746e-06
2.95224e-05
-6.65677e-06
3.08488e-05
-6.47575e-06
3.21326e-05
-6.29543e-06
3.33733e-05
-6.10524e-06
3.45738e-05
-5.91542e-06
3.5713e-05
-5.73798e-06
3.67958e-05
-5.56176e-06
3.78279e-05
-5.38957e-06
3.88034e-05
-5.22651e-06
3.97329e-05
-5.06658e-06
4.06452e-05
-4.86465e-06
4.15151e-05
-4.62082e-06
4.23441e-05
-4.4e-06
4.31314e-05
-4.20391e-06
4.38976e-05
-3.98223e-06
4.45958e-05
-3.72055e-06
4.5295e-05
-3.56318e-06
4.60156e-05
-3.47365e-06
4.67857e-05
-3.43264e-06
4.75554e-05
-3.34688e-06
4.82917e-05
-3.23425e-06
4.89709e-05
-3.11218e-06
4.96172e-05
-2.99865e-06
5.0231e-05
-2.86859e-06
5.08328e-05
-2.74604e-06
5.14172e-05
-2.63648e-06
5.1988e-05
-2.53162e-06
5.25359e-05
-2.42295e-06
5.30645e-05
-2.316e-06
5.35623e-05
-2.20374e-06
5.4029e-05
-2.08484e-06
5.44685e-05
-1.97703e-06
5.48845e-05
-1.86826e-06
5.5276e-05
-1.76128e-06
5.56457e-05
-1.65947e-06
5.59944e-05
-1.56286e-06
5.63255e-05
-1.46956e-06
5.66358e-05
-1.37924e-06
5.69259e-05
-1.2909e-06
5.71959e-05
-1.20523e-06
5.7447e-05
-1.12465e-06
5.76781e-05
-1.04883e-06
5.7892e-05
-9.76699e-07
5.80901e-05
-9.09184e-07
5.82744e-05
-8.44273e-07
5.84448e-05
-7.81459e-07
5.8602e-05
-7.19916e-07
5.87445e-05
-6.60679e-07
5.88623e-05
-6.037e-07
5.89362e-05
-5.49533e-07
5.89823e-05
-4.97127e-07
5.90358e-05
-4.48235e-07
5.91041e-05
-3.99697e-07
5.91753e-05
-3.52538e-07
5.92406e-05
-3.07833e-07
5.92981e-05
-2.65542e-07
5.93467e-05
-2.25345e-07
5.93873e-05
-1.8811e-07
5.94208e-05
-1.53503e-07
5.94478e-05
-1.21674e-07
5.94716e-05
-9.18072e-08
5.94943e-05
-6.245e-08
5.95163e-05
-3.47508e-08
5.95345e-05
-7.03785e-09
5.95455e-05
1.73317e-08
5.95461e-05
4.1575e-08
5.95361e-05
6.15689e-08
5.9516e-05
7.90433e-08
5.94864e-05
9.38295e-08
5.94494e-05
1.07827e-07
5.94072e-05
1.17627e-07
5.93597e-05
1.27308e-07
5.93085e-05
1.33745e-07
5.92555e-05
1.38981e-07
5.9199e-05
1.41534e-07