/*--------------------------------*- C++ -*----------------------------------*\
| =========                 |                                                 |
| \\      /  F ield         | OpenFOAM: The Open Source CFD Toolbox           |
|  \\    /   O peration     | Version:  2212                                  |
|   \\  /    A nd           | Website:  www.openfoam.com                      |
|    \\/     M anipulation  |                                                 |
\*---------------------------------------------------------------------------*/
FoamFile
{
    version     2.0;
    format      ascii;
    arch        "LSB;label=32;scalar=64";
    class       surfaceScalarField;
    location    "0.00106";
    object      phi;
}
// * * * * * * * * * * * * * * * * * * * * * * * * * * * * * * * * * * * * * //

dimensions      [1 0 -1 0 0 0 0];

oriented        oriented;

internalField   nonuniform List<scalar> 
5190
(
-3.59923e-05
-2.48704e-05
3.55118e-05
2.56243e-05
-9.5298e-06
-2.85211e-05
1.49239e-05
1.91883e-05
-4.96923e-06
1.70034e-05
4.45743e-06
-2.08613e-05
-9.71731e-06
8.35325e-06
1.81847e-06
7.05959e-08
-1.4787e-05
-4.51411e-06
7.10845e-06
4.1938e-06
8.13646e-06
-2.05849e-05
-9.7453e-06
1.72738e-05
-1.40155e-06
3.30287e-06
1.54859e-06
-2.80183e-06
-3.5338e-06
3.63493e-06
-7.79807e-06
8.31769e-06
8.87897e-06
-8.54461e-06
-4.31759e-06
4.64141e-06
9.21357e-06
-5.14061e-06
5.39647e-06
-3.06397e-06
2.41771e-06
-8.37176e-06
-1.05855e-05
9.66992e-06
-9.11495e-06
1.0519e-05
8.81586e-06
-1.06075e-05
-8.25413e-06
-1.72647e-05
1.67324e-05
-1.39448e-05
1.47479e-05
-1.08437e-05
-9.74119e-06
1.19945e-05
9.01882e-06
-1.37045e-05
-1.19067e-05
1.36205e-05
1.27338e-05
-1.34165e-05
-1.31214e-05
1.46717e-05
1.21745e-05
8.0246e-06
-3.88307e-06
3.38723e-06
-7.02684e-06
7.99697e-06
-4.22645e-06
4.86874e-06
-5.01175e-06
6.80306e-06
6.87224e-06
1.11083e-05
-4.0771e-06
5.02483e-06
-1.15037e-05
-1.11197e-05
1.10551e-05
-7.84026e-06
8.49628e-06
-1.1129e-05
-6.72397e-06
7.37716e-06
-5.70042e-06
6.28204e-06
-1.0921e-05
1.01966e-05
9.4138e-06
-6.76203e-06
7.65353e-06
-4.27365e-06
8.47095e-06
-7.64921e-06
-3.11079e-06
-4.42595e-06
6.73765e-06
-8.19534e-06
8.39227e-06
-4.71585e-06
-4.25935e-06
-9.15206e-06
1.00526e-05
-4.48231e-06
-4.68553e-06
4.38785e-06
-1.03549e-05
1.05093e-05
-6.26082e-06
-5.35012e-06
-7.37173e-06
1.302e-05
-6.27321e-06
7.70175e-06
-1.38298e-05
1.26814e-05
-8.65044e-06
9.5671e-06
-1.02841e-05
1.28498e-05
1.06284e-05
1.14296e-05
-1.14701e-05
-9.7602e-06
1.13751e-05
-1.23401e-05
1.2999e-05
1.14927e-05
-1.05116e-05
-6.67551e-06
-8.02219e-06
9.57545e-06
-9.42164e-06
-6.78376e-06
7.13343e-06
-6.57282e-06
6.14697e-06
-1.24326e-05
-2.09164e-05
1.93716e-05
8.96727e-06
-5.85953e-06
6.1615e-06
-8.13339e-06
-3.79685e-06
4.03443e-06
-2.25566e-06
-6.79085e-06
7.57711e-06
2.12779e-06
7.61776e-06
-7.03706e-06
-3.11997e-06
3.15652e-06
-3.42007e-06
1.13986e-05
1.33934e-05
-1.32627e-05
-1.36037e-05
1.39802e-05
-8.05059e-06
3.67483e-06
8.62737e-06
-7.50424e-06
-3.23475e-06
3.29602e-06
9.91841e-06
-9.88558e-06
-7.70235e-06
9.86117e-06
-8.48892e-06
-2.44762e-06
-7.05403e-06
2.52926e-06
-2.82872e-06
2.8793e-06
-6.47484e-06
-6.77772e-06
7.30589e-06
-3.02747e-06
-2.73519e-06
-6.25152e-06
-8.87602e-06
9.41417e-06
4.94513e-06
3.38425e-06
-1.12784e-05
1.12694e-05
5.65576e-06
5.68451e-06
-1.16397e-05
1.19061e-05
7.77137e-06
6.53841e-06
-1.18292e-05
1.07078e-05
1.10931e-05
9.14732e-06
-8.97865e-07
-2.05188e-06
2.74315e-06
7.34776e-07
1.35891e-05
7.98164e-06
1.35029e-05
-1.30273e-05
1.09207e-05
1.19165e-05
1.23067e-05
8.41899e-06
-1.2337e-05
9.55088e-06
-9.52671e-06
1.0742e-05
-6.75166e-07
1.71769e-06
-1.06947e-06
6.13016e-07
-1.24594e-05
1.6033e-05
-2.0537e-05
-8.57263e-06
1.1e-05
7.20371e-06
-1.55854e-05
-7.459e-06
7.60148e-06
-3.82054e-06
7.70198e-06
-7.20448e-06
-2.9178e-06
-3.56415e-06
-7.88815e-06
8.16197e-06
-4.49151e-06
-4.00595e-06
-8.41739e-06
9.26951e-06
-4.81079e-06
-4.46454e-06
-9.67524e-06
9.86801e-06
-5.89975e-06
-5.19102e-06
-6.83017e-06
9.18766e-06
-1.00989e-05
-8.34115e-06
-8.89736e-06
6.39737e-06
1.01067e-05
-9.51397e-06
-6.71643e-06
-7.50861e-06
9.22928e-06
-9.2662e-06
-6.20794e-06
-6.33315e-06
9.02598e-06
-8.78629e-06
-4.74555e-06
-5.5186e-06
8.27283e-06
-7.82569e-06
-3.60755e-06
-4.18078e-06
-3.31493e-06
-2.92071e-06
2.96886e-06
-6.94248e-06
7.26541e-06
-6.69599e-06
9.98007e-06
-9.12084e-06
-9.14776e-06
1.14838e-05
1.54949e-05
-1.72412e-05
-9.95014e-06
1.32813e-05
-1.10231e-05
1.30808e-05
-6.65376e-06
-2.34467e-06
-6.51955e-06
7.014e-06
-2.89496e-06
-6.02407e-06
-2.60529e-06
1.55934e-05
-1.59152e-05
1.23914e-05
-1.32874e-05
1.54332e-05
1.39146e-05
-1.19395e-05
1.46941e-05
-1.24702e-05
1.34583e-05
9.92244e-06
-9.01776e-06
-8.15724e-06
7.69851e-06
-7.92567e-06
1.01753e-05
1.2639e-05
-1.43355e-05
1.08715e-05
-8.35038e-06
-7.14188e-06
7.76526e-06
2.95746e-06
2.64016e-06
-2.64814e-06
-6.32698e-06
2.62312e-06
-6.52156e-06
1.086e-05
8.30575e-06
-1.06665e-05
-8.0818e-06
1.6926e-05
-1.56784e-05
-1.54831e-05
1.45517e-05
-1.38315e-05
1.36042e-05
-4.88706e-06
9.71817e-08
-2.77612e-06
-1.43043e-06
1.01442e-05
-9.79118e-06
1.02141e-05
1.14316e-05
1.26548e-05
2.2344e-06
-2.13328e-06
-6.09571e-06
-2.45188e-05
1.73617e-05
-1.90642e-06
-6.42952e-06
2.56681e-05
1.80613e-05
-2.55368e-05
-1.77627e-05
1.87882e-05
-1.48232e-05
1.3333e-05
-9.40031e-06
9.10294e-06
2.77248e-06
2.43872e-06
-8.73525e-06
-9.56857e-06
1.04722e-05
4.56693e-06
3.52947e-06
-1.14647e-05
1.18249e-05
5.93023e-06
5.26843e-06
-1.23558e-05
1.28476e-05
7.9164e-06
6.7507e-06
-1.31922e-05
1.38604e-05
1.10105e-05
9.34548e-06
1.23349e-05
1.39147e-05
-1.35551e-05
1.13856e-05
1.27187e-05
1.31112e-05
8.878e-06
-1.28748e-05
9.94375e-06
-1.27414e-05
1.90483e-05
8.22742e-06
-4.60718e-05
5.06676e-05
-5.31697e-05
4.56693e-05
-8.37566e-06
3.7074e-06
8.96953e-06
3.29785e-06
-6.74019e-06
7.1054e-06
-2.64624e-06
6.2907e-06
-1.86837e-06
-5.88773e-06
-2.13075e-06
-7.27994e-06
7.46663e-06
-3.41658e-06
-3.10753e-06
-7.71364e-06
7.81636e-06
-4.04192e-06
-3.67529e-06
-8.34822e-06
8.58749e-06
-4.48468e-06
-4.46011e-06
-9.10678e-06
9.19599e-06
-5.42578e-06
-5.14134e-06
-9.2957e-06
9.15477e-06
-6.99697e-06
-6.36831e-06
-9.12098e-06
9.09462e-06
-8.47748e-06
-7.86648e-06
-1.54349e-05
1.47733e-05
1.7974e-05
-9.2841e-06
9.23006e-06
9.13009e-06
-9.35486e-06
-7.61468e-06
-8.28743e-06
9.31156e-06
-9.08838e-06
-6.32572e-06
-6.99706e-06
8.80021e-06
-8.85736e-06
-5.554e-06
-6.02905e-06
8.72157e-06
-8.4004e-06
-4.44555e-06
-5.03882e-06
8.0008e-06
-7.48265e-06
-3.49603e-06
-3.95297e-06
-3.15651e-06
-2.54939e-06
2.60231e-06
-5.91302e-06
2.44925e-06
-5.51516e-06
-2.32968e-06
-5.72709e-06
-6.12858e-06
2.84082e-06
1.09123e-06
-2.45779e-06
-9.06307e-07
7.75317e-07
-1.41951e-06
7.41822e-06
-6.14215e-06
-5.76024e-06
8.10117e-06
-8.88959e-07
-1.44381e-05
1.59053e-05
1.48303e-05
-1.44518e-05
1.54707e-05
-1.53551e-05
1.48352e-05
-1.1245e-05
1.32012e-05
1.10025e-05
1.06083e-05
-1.07828e-05
-1.16887e-05
1.29458e-05
5.9262e-06
-5.76971e-06
-1.32167e-06
-9.84091e-06
1.10274e-05
1.20148e-05
-9.30669e-06
1.10428e-05
-7.38504e-06
8.06743e-06
2.89017e-06
-6.71468e-06
2.56415e-06
-1.34394e-05
1.41785e-05
-1.2802e-05
1.35906e-05
-2.11673e-06
2.07185e-06
-5.39375e-06
-2.24838e-06
-5.08078e-06
0.000674256
1.13733e-07
-0.000847639
2.81952e-07
1.54794e-07
0.000542953
2.07041e-07
-0.000674415
0.000543147
5.07331e-07
-0.000847857
5.44714e-07
-2.10587e-06
2.24267e-06
-5.01192e-06
-5.30976e-06
5.79621e-06
-2.17369e-06
-4.81597e-06
-1.93268e-06
-6.40351e-06
4.58164e-06
-1.10551e-05
1.352e-05
-1.5649e-05
1.60801e-05
1.25957e-06
3.17827e-06
-1.05568e-06
-6.10857e-06
-1.7474e-06
7.05958e-06
-3.67702e-05
-3.50781e-05
3.70019e-05
3.55441e-05
-1.91842e-05
-1.19342e-05
1.55496e-05
1.02515e-05
-1.95653e-05
-2.51789e-06
9.75183e-07
1.31327e-05
1.17289e-05
1.2505e-05
-7.17656e-06
-2.99281e-05
-5.67261e-06
1.95879e-06
-9.05685e-06
2.72656e-05
1.60086e-05
-3.41716e-05
-8.22646e-06
8.86111e-06
2.35796e-06
-2.32164e-06
1.70237e-06
-1.86212e-06
-9.31355e-06
9.7752e-06
3.00894e-06
2.67454e-06
-1.03216e-05
1.10881e-05
4.37546e-06
3.62366e-06
-1.18711e-05
1.25972e-05
5.88185e-06
5.07e-06
-1.32591e-05
1.38858e-05
7.9001e-06
6.77854e-06
-1.45628e-05
1.54214e-05
1.07187e-05
9.23497e-06
-1.63436e-05
1.60725e-05
1.32422e-05
1.20677e-05
1.48555e-05
1.48083e-05
-1.4613e-05
1.18737e-05
1.37134e-05
1.41142e-05
-1.33836e-05
8.86295e-06
1.01882e-05
1.26199e-05
-1.17191e-05
6.68636e-06
-6.99609e-06
7.721e-06
-7.90927e-06
1.08556e-05
-1.00938e-05
4.84564e-06
-4.9635e-06
5.67461e-06
-5.88995e-06
9.39795e-06
-8.73865e-06
3.67784e-06
4.17188e-06
-4.23564e-06
3.24732e-06
0.000440834
1.75581e-07
1.36157e-07
0.000359664
2.34156e-07
8.21991e-08
0.000294113
3.01798e-07
-1.98392e-08
0.000240463
3.73878e-07
-1.02466e-07
0.000195939
6.01078e-07
-1.82196e-07
0.000158647
9.85433e-07
-4.48611e-07
0.000127305
1.40292e-06
-8.937e-07
0.000100643
1.97311e-06
-1.22964e-06
7.79486e-05
2.65162e-06
-1.83304e-06
2.97427e-06
5.8709e-05
-2.29791e-06
5.92225e-05
-7.8278e-05
3.20559e-06
4.22303e-05
3.18536e-06
-2.603e-06
2.96417e-06
2.78501e-05
-2.75691e-06
-4.30865e-05
2.89341e-05
2.53311e-06
3.13757e-06
0.000100677
-0.000127365
2.61005e-06
2.95362e-06
0.000158793
-0.000195957
1.42013e-06
1.98217e-06
0.000240526
-0.000294241
7.32286e-07
1.05811e-06
0.000359859
-0.000440987
5.30296e-07
6.2557e-07
5.16159e-07
-6.3944e-06
6.75776e-06
-2.37112e-06
-1.94583e-06
-7.0124e-06
7.24456e-06
-3.05863e-06
-2.73153e-06
-7.48775e-06
7.65465e-06
-3.63538e-06
-3.33865e-06
-7.76662e-06
8.14952e-06
-4.2803e-06
-3.99526e-06
-8.44683e-06
8.71874e-06
-5.11017e-06
-4.84258e-06
-8.64934e-06
8.62276e-06
-6.39291e-06
-5.71507e-06
-8.50834e-06
8.36538e-06
-7.72216e-06
-7.15311e-06
-2.90175e-05
2.86405e-05
-3.5774e-05
-8.31468e-06
7.99253e-06
-1.00088e-05
1.17738e-05
-7.39972e-06
9.65055e-06
-9.18767e-06
-9.12674e-06
-9.77112e-06
1.04749e-05
1.09481e-05
-1.09808e-05
9.37581e-06
8.75724e-06
-6.71202e-06
-1.04996e-05
8.71682e-06
-8.59237e-06
-7.77804e-06
-8.22933e-06
8.82679e-06
-8.86466e-06
-6.9896e-06
-7.52231e-06
8.81173e-06
-8.58265e-06
-5.90326e-06
-6.40775e-06
8.51759e-06
-8.42401e-06
-5.02984e-06
-5.45846e-06
8.26916e-06
-7.9856e-06
-4.11765e-06
-4.59238e-06
7.62225e-06
-7.18206e-06
-3.30068e-06
-3.69074e-06
6.72995e-06
-6.27021e-06
-2.72e-06
-2.97258e-06
-2.44625e-06
-2.33198e-06
2.39247e-06
-5.35462e-06
-5.18718e-06
-2.41231e-06
2.38972e-06
-5.6948e-06
-5.53336e-06
-2.3458e-06
2.27156e-06
-6.03511e-06
-5.87334e-06
-2.23894e-05
-3.26061e-05
3.17781e-05
2.37226e-05
-5.07102e-05
5.37356e-05
-1.83415e-05
1.45376e-05
-1.24334e-05
1.27919e-05
1.16482e-05
1.06554e-05
-1.11376e-05
1.14916e-05
1.15942e-05
-1.22817e-05
1.30228e-05
-4.63715e-06
-2.61932e-06
-1.54983e-05
2.05824e-05
1.14678e-05
9.25917e-08
3.23726e-07
-0.00108536
5.1392e-07
-0.00108564
5.70277e-06
-1.07818e-06
-5.33913e-06
-9.45276e-05
-6.06835e-05
4.23252e-05
0.000108383
5.83202e-05
-7.78222e-05
-1.52764e-06
4.13803e-05
-1.50904e-06
-1.45146e-05
1.37121e-05
-1.4325e-06
-1.06064e-06
-1.60274e-06
-9.27331e-06
1.10072e-05
9.84921e-06
1.32052e-05
-1.3507e-05
1.42998e-05
1.25194e-06
-1.49805e-06
-5.30578e-06
1.35949e-06
-5.32748e-06
-0.00108541
0.000847571
6.85984e-07
3.27588e-07
4.16382e-08
-0.00143285
7.55306e-07
-0.0014332
-1.97741e-06
2.06551e-06
-4.44883e-06
-1.81549e-06
-4.30858e-06
-5.13616e-06
5.58649e-06
-1.95464e-06
-4.63802e-06
-1.73292e-06
-3.26566e-06
1.51511e-05
1.8254e-06
1.53667e-05
-3.50286e-06
1.14265e-05
4.61502e-06
-1.09365e-05
1.1663e-05
5.91936e-06
-5.64856e-06
-1.60672e-05
1.58149e-05
1.56212e-05
1.04824e-05
6.86982e-06
-1.06467e-05
-6.12949e-06
1.11066e-05
8.73865e-06
-2.57348e-05
-3.89689e-06
3.4772e-06
2.34552e-05
1.78943e-05
-2.61916e-05
-2.85773e-05
3.19221e-05
-1.1922e-05
9.3143e-07
3.70623e-07
-2.24065e-07
-5.23936e-07
-6.20825e-06
6.92684e-06
2.163e-06
2.03515e-06
-2.11618e-06
-5.35029e-06
1.91744e-06
-5.4854e-06
1.15364e-05
1.23353e-05
2.05883e-06
-4.06749e-06
-1.986e-06
-2.00553e-06
1.94341e-06
-4.6893e-06
-4.40298e-06
-1.86498e-06
1.69951e-06
-5.14059e-06
5.94656e-06
-4.94032e-06
-5.28819e-06
-8.27195e-06
8.88684e-06
2.38886e-06
2.26214e-06
-9.51678e-06
1.01492e-05
3.05065e-06
2.70803e-06
-1.08534e-05
1.16963e-05
4.17719e-06
3.57264e-06
-1.2492e-05
1.33604e-05
5.66959e-06
4.90977e-06
-1.41816e-05
1.49892e-05
7.68989e-06
6.57818e-06
-1.58683e-05
1.66964e-05
1.04729e-05
8.9686e-06
-1.72686e-05
1.70827e-05
1.40335e-05
1.20434e-05
1.698e-05
-1.39344e-05
1.58612e-05
2.62029e-05
1.96555e-05
-2.62158e-05
1.55022e-05
-1.61869e-05
1.70147e-05
1.9225e-05
1.58789e-05
1.64297e-05
-1.60422e-05
1.21051e-05
1.4484e-05
1.52902e-05
-1.4401e-05
8.64116e-06
1.0085e-05
1.3484e-05
-1.25535e-05
6.4274e-06
7.44367e-06
1.15843e-05
-1.0728e-05
4.64665e-06
5.38165e-06
9.8941e-06
-9.14591e-06
3.56175e-06
3.98428e-06
8.39463e-06
-7.66261e-06
2.77584e-06
3.12502e-06
2.44251e-06
-0.000674143
0.000542864
4.99849e-07
6.09083e-07
-0.000440738
0.000359592
3.38486e-07
4.24292e-07
-0.000294032
0.00024035
1.70953e-07
2.7703e-07
-0.000195937
0.000158686
-4.8109e-09
1.10672e-07
-0.000127144
0.000100612
-7.47272e-07
-2.47636e-07
-1.06904e-06
-0.00108591
0.000847997
8.75005e-07
-4.48759e-07
8.67407e-07
-0.00143369
-0.00143312
1.02281e-06
-3.10895e-06
-1.58639e-05
4.16655e-08
-5.5987e-05
-1.06655e-05
6.9416e-05
-4.15319e-06
2.91492e-05
-4.3297e-05
1.984e-06
8.16138e-07
5.98385e-05
-7.91895e-05
2.63357e-06
2.31603e-06
0.000101479
-0.000127704
2.46827e-06
2.55078e-06
0.000158798
-0.000196329
2.10023e-06
2.08857e-06
0.000240774
-0.00029437
9.53124e-07
1.3154e-06
0.000359964
-0.00044116
7.98989e-07
8.98372e-07
0.000543294
-0.000674583
8.0499e-07
7.63026e-07
8.26369e-07
-6.0738e-06
6.40682e-06
-2.08615e-06
-1.70552e-06
-6.69433e-06
6.93679e-06
-2.70961e-06
-2.40767e-06
-7.16054e-06
7.41991e-06
-3.31339e-06
-2.98061e-06
-7.63832e-06
7.9571e-06
-3.99062e-06
-3.61795e-06
-7.97022e-06
8.09324e-06
-4.63961e-06
-4.2485e-06
-8.09954e-06
8.09191e-06
-5.78573e-06
-5.12934e-06
-7.89993e-06
7.70877e-06
-6.89204e-06
-6.33824e-06
-7.34053e-06
6.82247e-06
-8.07272e-06
9.14208e-06
-7.34465e-06
-6.21162e-06
5.22894e-06
-9.42023e-06
-8.78826e-06
-1.10274e-05
1.17908e-05
4.40265e-06
-4.45372e-06
3.88238e-06
-9.89277e-06
-9.63104e-06
-1.16701e-05
7.88987e-06
1.1214e-05
3.49441e-06
-4.46706e-06
-9.97964e-06
-1.10769e-05
3.17999e-06
1.18299e-05
-3.46535e-06
-2.22978e-06
2.0455e-06
-1.03953e-05
-1.0414e-05
1.23506e-05
4.70243e-06
-6.72127e-06
-9.96902e-06
1.26106e-05
-9.90098e-06
7.52443e-06
-7.88717e-06
-8.14403e-06
-8.93522e-06
7.95307e-06
-8.02003e-06
-7.12861e-06
-7.56866e-06
8.20867e-06
-8.28513e-06
-6.29602e-06
-6.7372e-06
8.27907e-06
-8.21638e-06
-5.33408e-06
-5.78996e-06
8.11908e-06
-8.0052e-06
-4.53016e-06
-4.92474e-06
7.84287e-06
-7.58601e-06
-3.74907e-06
-4.14464e-06
7.26249e-06
-6.87876e-06
-3.04339e-06
-3.38013e-06
6.46502e-06
-6.03938e-06
-2.50442e-06
-2.74461e-06
-2.25466e-06
-2.14522e-06
2.17941e-06
-4.76344e-06
-4.62624e-06
-2.19724e-06
2.17717e-06
-5.06392e-06
-4.93177e-06
-5.20658e-06
-2.2832e-05
-2.04831e-05
4.31176e-05
4.39365e-07
6.10666e-07
-4.37329e-05
2.6757e-05
-1.35554e-06
-1.36199e-05
1.24266e-05
1.24727e-05
9.58927e-06
1.21405e-05
1.10726e-05
-1.29709e-05
1.3064e-05
-5.19442e-06
1.8367e-06
5.17785e-06
2.60946e-05
2.63166e-05
-2.55079e-05
-3.18158e-05
-1.933e-05
1.47579e-05
5.95115e-06
1.14485e-05
-9.09536e-06
-0.0010859
0.000847863
9.65992e-07
-0.00143403
1.06484e-06
-1.6989e-06
1.80683e-06
-3.57709e-06
-4.46762e-05
5.96189e-06
-1.18159e-05
-3.89489e-06
-1.8907e-06
3.82482e-06
-3.66156e-06
-1.59929e-06
-1.44248e-06
-3.32379e-06
-1.50905e-06
-4.25703e-06
-6.36496e-06
7.13647e-06
2.00513e-06
-5.61874e-06
1.77822e-06
2.70212e-06
-3.1227e-06
2.14304e-05
-1.92941e-05
-2.40385e-05
2.25014e-05
-1.99671e-05
2.47899e-05
1.69973e-05
2.53722e-05
-2.70993e-05
2.88688e-06
-2.57794e-06
5.85878e-05
-7.81951e-05
-8.45228e-07
4.18252e-05
-8.19514e-07
2.19554e-05
2.77049e-05
-2.22455e-05
2.28801e-05
-2.48616e-05
2.4588e-05
3.08292e-05
-2.16857e-05
1.89225e-05
1.27586e-05
7.74199e-06
-1.59345e-05
1.3951e-05
-1.41254e-05
1.48884e-05
1.20498e-05
9.49764e-06
2.431e-05
-1.66598e-05
-0.00108647
0.000848369
1.11399e-06
-0.00143464
1.10776e-06
-4.13011e-05
4.18341e-05
-2.50793e-05
2.4312e-05
2.21583e-05
-1.56338e-06
-3.05331e-05
1.5179e-05
-2.44533e-06
2.77615e-05
-1.78011e-05
-1.74112e-05
1.75357e-05
1.6165e-05
1.2909e-05
5.36322e-06
1.14147e-05
3.19427e-06
-1.01445e-05
3.71932e-06
1.26449e-05
1.14917e-05
1.55743e-06
-1.04537e-05
2.25876e-06
1.29858e-05
1.22504e-05
8.24098e-06
-1.51413e-05
1.65645e-05
-2.23597e-05
-1.70326e-05
2.44082e-05
1.54205e-05
1.37869e-05
-1.02412e-06
1.06675e-06
3.97031e-07
-6.17514e-07
-4.01984e-07
2.74154e-05
-9.42967e-06
-2.94101e-05
3.76135e-05
-2.43247e-05
-3.09847e-05
1.77026e-05
1.10495e-05
1.2122e-05
-1.85093e-06
1.85871e-06
-4.04966e-06
-3.82313e-06
-1.82586e-06
1.73866e-06
-4.40859e-06
-4.25287e-06
-1.63989e-06
1.5884e-06
-4.63435e-06
-4.55776e-06
-1.54971e-06
1.54342e-06
-4.68759e-06
-4.73336e-06
5.25563e-06
-4.74982e-06
1.58853e-06
-5.51982e-06
7.75817e-06
2.95667e-06
-4.53381e-06
2.10968e-06
-8.26878e-06
9.01809e-06
2.30376e-06
2.46123e-06
-9.78755e-06
1.05876e-05
2.90535e-06
2.60799e-06
-1.14066e-05
1.22799e-05
3.96206e-06
3.40251e-06
-1.32226e-05
1.41469e-05
5.38051e-06
4.61761e-06
-1.51042e-05
1.61052e-05
7.28945e-06
6.22561e-06
-1.71437e-05
1.81903e-05
1.00457e-05
8.5417e-06
-1.90888e-05
1.97582e-05
1.38726e-05
1.17206e-05
-2.0437e-05
2.22185e-05
1.92894e-05
1.66549e-05
2.1363e-05
1.92726e-05
2.43408e-05
-2.28822e-05
2.05311e-05
-2.11932e-05
2.07595e-05
2.17385e-05
-2.03236e-05
1.61251e-05
1.86467e-05
1.89474e-05
-1.77126e-05
1.16165e-05
1.3784e-05
1.66259e-05
-1.54565e-05
8.19694e-06
9.71987e-06
1.43807e-05
-1.32738e-05
6.0214e-06
7.08575e-06
1.22858e-05
-1.13345e-05
4.373e-06
5.08348e-06
1.04157e-05
-9.53691e-06
3.32629e-06
3.7315e-06
8.72864e-06
-7.92499e-06
2.59639e-06
2.95145e-06
2.27391e-06
-0.000674292
0.000542906
7.88957e-07
9.00261e-07
-0.000440717
0.000359563
5.68424e-07
6.78149e-07
-0.00029406
0.000240405
3.84139e-07
4.60489e-07
-0.000195993
0.000158875
2.39595e-07
3.40685e-07
-0.00012758
0.000100923
-3.32674e-07
4.28079e-08
-5.7475e-07
8.58989e-08
3.27716e-07
-0.00198512
-5.16823e-07
8.19687e-07
-0.00198638
-0.00198541
5.1879e-06
1.31771e-05
-6.70819e-07
-0.00198731
1.07951e-06
-0.00198591
-7.96797e-06
1.82873e-06
2.0435e-06
-1.72504e-06
-4.11227e-07
1.58313e-06
6.74189e-06
-1.73784e-05
-1.56972e-07
8.47579e-07
2.97934e-05
-4.39888e-05
1.11721e-06
2.49862e-07
6.04829e-05
-7.97075e-05
1.69936e-06
1.3692e-06
0.000102191
-0.0001284
1.88226e-06
1.91863e-06
0.000159564
-0.000196439
1.89781e-06
1.94555e-06
0.000240747
-0.0002945
1.27575e-06
1.38113e-06
0.000359972
-0.000441215
1.03768e-06
1.01297e-06
0.000543394
-0.000674802
1.01703e-06
9.75317e-07
1.06234e-06
-3.87553e-06
4.05267e-06
-1.57563e-06
3.50696e-06
-3.08426e-06
-1.2703e-06
-1.40806e-06
-4.62007e-06
5.29778e-06
-1.21807e-06
-1.32114e-06
1.24789e-06
-5.71225e-06
6.05827e-06
-1.8225e-06
-1.49921e-06
-6.35738e-06
6.62553e-06
-2.39139e-06
-2.12146e-06
-6.90707e-06
7.13224e-06
-2.94322e-06
-2.66496e-06
-7.33452e-06
7.48344e-06
-3.53492e-06
-3.21912e-06
-7.6224e-06
7.72774e-06
-4.14289e-06
-3.78437e-06
-7.75583e-06
7.65137e-06
-5.07054e-06
-4.55414e-06
-7.44359e-06
7.2041e-06
-6.00638e-06
-5.50749e-06
-6.94736e-06
6.51494e-06
-7.0449e-06
-6.44139e-06
-5.85746e-06
5.11784e-06
-8.06905e-06
-7.56672e-06
-4.42025e-06
3.7396e-06
-8.6015e-06
-8.3264e-06
-1.04757e-05
2.40155e-06
1.18675e-05
-3.00576e-06
2.22565e-06
-9.08091e-06
-8.79754e-06
1.39276e-06
1.07709e-05
-9.30994e-06
5.34435e-07
1.09048e-05
-9.42792e-06
-1.07803e-05
6.36509e-07
1.22473e-05
4.49288e-07
-1.26077e-06
-9.39914e-06
1.10525e-05
-9.50951e-06
1.90591e-06
-2.69098e-06
-9.05169e-06
-9.21822e-06
3.51382e-06
-4.1157e-06
-8.80288e-06
-8.94336e-06
5.03638e-06
-6.06743e-06
-8.31608e-06
-8.4741e-06
6.60235e-06
-7.00376e-06
-7.16787e-06
-7.77266e-06
7.24685e-06
-7.43095e-06
-6.29093e-06
-6.70427e-06
7.62075e-06
-7.76069e-06
-5.56391e-06
-5.92561e-06
7.81109e-06
-7.79201e-06
-4.74109e-06
-5.1435e-06
7.72507e-06
-7.61419e-06
-4.02166e-06
-4.37319e-06
7.45305e-06
-7.22129e-06
-3.34522e-06
-3.67967e-06
6.93394e-06
-6.59613e-06
-2.73775e-06
-3.02869e-06
6.22676e-06
-5.84033e-06
-2.24084e-06
-2.46863e-06
5.42683e-06
-4.97165e-06
-1.73045e-06
-2.0045e-06
4.51456e-06
-4.25292e-06
-1.05565e-06
-1.51734e-06
-1.74106e-06
1.73099e-06
-3.5853e-06
-1.93812e-06
-1.82401e-06
1.91473e-06
-3.8967e-06
-3.75758e-06
-1.97687e-06
2.01876e-06
-4.17491e-06
-4.04536e-06
-2.01904e-06
1.9972e-06
-4.42796e-06
-4.30876e-06
-1.94258e-06
1.8584e-06
-4.6607e-06
-4.5437e-06
-1.75048e-06
-4.86597e-06
1.60404e-06
-4.77099e-06
-2.02958e-05
2.21028e-05
-1.35521e-06
-9.81074e-06
-8.30981e-06
-1.18916e-05
-3.28173e-05
3.71543e-05
1.86862e-05
2.71581e-05
-2.78343e-07
1.9824e-05
5.71295e-05
-2.48779e-05
2.55643e-05
-2.4753e-05
3.02863e-05
-7.69696e-06
-2.33171e-07
-3.59741e-05
-2.90834e-05
-1.62517e-05
3.83668e-05
-2.60231e-05
-2.06646e-05
1.81012e-05
1.38881e-05
9.07699e-06
-1.51337e-05
1.20837e-05
-4.96786e-07
1.26957e-05
1.48433e-06
1.2291e-05
-1.37455e-05
1.31986e-05
1.30209e-05
1.06393e-05
2.27089e-05
-1.81035e-05
-2.82989e-05
1.99482e-05
-1.9011e-05
8.48989e-06
2.91898e-07
-4.178e-07
1.82929e-06
-2.75726e-05
2.61626e-05
-2.50866e-05
2.70966e-05
-2.36659e-05
2.78391e-05
2.56021e-05
-2.47422e-05
2.08715e-05
1.1813e-06
-0.00198793
2.12854e-05
-3.09871e-05
2.61521e-06
1.63522e-05
-2.98855e-06
-1.13479e-06
1.35235e-06
-2.69064e-06
3.00863e-06
-1.0238e-06
-2.53131e-06
3.38693e-06
-1.07075e-06
-2.03221e-05
2.69457e-05
-2.0736e-05
-1.69517e-05
1.39689e-05
1.42161e-05
6.95789e-06
2.83806e-06
1.33125e-05
1.0909e-06
1.40219e-05
1.33206e-05
9.02014e-06
-1.50341e-05
1.51481e-05
2.41629e-05
-1.34375e-05
-2.67807e-05
1.49237e-06
-1.53648e-06
-4.0478e-06
1.41679e-06
-4.08857e-06
2.49397e-06
-2.1924e-07
-8.33858e-06
4.52544e-05
0.000113422
-0.000109011
-1.18762e-05
6.89489e-06
-3.08862e-05
-1.56277e-05
1.0368e-05
7.14089e-06
1.31042e-05
-2.69356e-05
-2.05453e-05
3.16445e-05
1.78148e-05
-9.53313e-07
-7.57283e-06
-2.18138e-05
2.6526e-05
-1.66882e-05
-1.07382e-05
-2.64379e-06
2.30532e-05
-1.87957e-05
1.36616e-05
1.39269e-05
4.62259e-06
3.83956e-06
1.49874e-05
-1.51246e-05
1.87757e-05
1.324e-05
1.48158e-06
-1.61195e-06
-4.13106e-06
-4.96173e-06
5.73659e-06
1.43524e-06
1.32043e-06
-4.19589e-06
8.0575e-07
-4.93654e-07
-0.00329377
-0.00198917
0.00143521
1.47115e-06
1.27646e-06
-0.00329525
1.43096e-05
4.44463e-07
1.60458e-06
-3.01351e-06
2.23768e-05
-8.5756e-06
-2.23623e-05
1.7026e-05
2.29429e-05
-1.69956e-05
-2.45025e-05
7.13352e-06
-9.36768e-06
8.98332e-06
-1.0465e-05
-9.39735e-06
1.03729e-05
1.2487e-05
1.19373e-05
-1.49358e-05
2.53238e-05
1.23684e-05
-1.51208e-06
1.63044e-06
-3.08852e-06
-2.87514e-06
-1.7093e-06
1.75571e-06
-3.44723e-06
-3.26851e-06
-1.76374e-06
1.73123e-06
-3.74079e-06
-3.61442e-06
-1.68101e-06
1.62513e-06
-3.95764e-06
-3.88152e-06
-4.05958e-06
5.46083e-06
-4.82542e-06
1.53874e-06
-6.29257e-06
7.63415e-06
2.24075e-06
1.84964e-06
-8.49028e-06
9.21986e-06
2.25383e-06
2.22567e-06
-1.01044e-05
1.09385e-05
2.70543e-06
2.38303e-06
-1.18634e-05
1.28438e-05
3.62013e-06
3.11441e-06
-1.38724e-05
1.50012e-05
4.87124e-06
4.2223e-06
-1.60863e-05
1.72451e-05
6.74317e-06
5.75128e-06
-1.84605e-05
1.97249e-05
9.38308e-06
7.93545e-06
-2.09976e-05
2.22994e-05
1.29972e-05
1.10097e-05
-2.37682e-05
2.56599e-05
1.75299e-05
1.53997e-05
1.90315e-05
-2.67441e-05
3.00386e-05
2.00692e-05
-2.28838e-05
2.35068e-05
2.33882e-05
-2.19716e-05
1.56874e-05
1.83002e-05
2.05368e-05
-1.91359e-05
1.11636e-05
1.33318e-05
1.78381e-05
-1.6507e-05
7.70689e-06
9.30258e-06
1.52771e-05
-1.40869e-05
5.58553e-06
6.65817e-06
1.29098e-05
-1.18986e-05
4.06421e-06
4.62887e-06
1.09128e-05
-9.97585e-06
3.05158e-06
3.43064e-06
9.05466e-06
-8.18785e-06
2.36639e-06
2.67947e-06
7.34373e-06
-6.53056e-06
1.81578e-06
2.06113e-06
1.59486e-06
-0.0010865
0.000848118
1.28724e-06
1.36627e-06
-0.000674405
0.000542981
1.02414e-06
1.15659e-06
-0.000440773
0.000359637
7.68362e-07
8.81193e-07
-0.000294088
0.000240459
5.95083e-07
6.62941e-07
-0.000196165
0.000159124
4.12913e-07
4.59385e-07
-0.000127956
0.000101331
4.06822e-08
1.98951e-07
-7.88262e-05
5.93778e-05
-4.60759e-07
-3.97481e-07
-4.26861e-05
2.81344e-05
3.37013e-08
-5.04242e-07
6.9993e-07
-5.24344e-07
-0.00329281
-0.00198968
0.00143571
1.52413e-06
-9.351e-07
1.26967e-06
-0.00329555
-0.00329422
2.01799e-07
2.94352e-07
-0.00329196
-0.00329205
-0.0032924
-9.4054e-06
1.87924e-06
2.95914e-06
1.00494e-06
7.09754e-06
-1.77344e-05
7.97847e-07
1.53052e-06
3.01792e-05
-4.44551e-05
7.56751e-07
3.64508e-07
6.09896e-05
-8.01672e-05
1.1634e-06
9.20217e-07
0.00010241
-0.000128737
1.56251e-06
1.3876e-06
0.00015962
-0.000196533
1.68092e-06
1.47204e-06
0.00024089
-0.000294398
1.25938e-06
1.40735e-06
0.000360056
-0.000441243
1.1704e-06
1.26709e-06
0.000543416
-0.000674852
1.16846e-06
1.10369e-06
0.000848577
-0.00108695
1.33594e-06
1.25373e-06
1.36775e-06
-3.73785e-06
3.95951e-06
-1.24832e-06
-1.19363e-06
-4.36525e-06
4.92315e-06
-1.21835e-06
-1.20071e-06
-5.38369e-06
5.74692e-06
-1.59411e-06
-1.36866e-06
-6.05443e-06
6.34243e-06
-2.08309e-06
-1.83444e-06
-6.59412e-06
6.80315e-06
-2.54911e-06
-2.30887e-06
-6.99429e-06
7.1042e-06
-3.03969e-06
-2.80448e-06
-7.22734e-06
7.35267e-06
-3.65844e-06
-3.30223e-06
-7.37219e-06
7.27891e-06
-4.36109e-06
-3.96166e-06
-7.09509e-06
6.84358e-06
-5.12216e-06
-4.70353e-06
-6.59012e-06
6.1573e-06
-5.98179e-06
-5.54464e-06
-5.59418e-06
4.9331e-06
-6.81328e-06
-6.422e-06
-4.30751e-06
3.63439e-06
-7.29118e-06
-7.04998e-06
-2.92064e-06
2.17107e-06
-7.71195e-06
-7.46245e-06
-1.36305e-06
5.5111e-07
-8.00051e-06
-7.87868e-06
3.02927e-07
-1.09882e-06
-8.00205e-06
-8.05162e-06
1.82658e-06
-2.54593e-06
-7.70976e-06
-7.86845e-06
3.28548e-06
-4.04591e-06
-7.48557e-06
-7.60807e-06
4.73553e-06
-5.46716e-06
-6.96879e-06
-7.17714e-06
6.04733e-06
-6.44132e-06
-6.17089e-06
-6.60428e-06
6.71412e-06
-6.93319e-06
-5.4165e-06
-5.77455e-06
7.13626e-06
-7.30534e-06
-4.79673e-06
-5.10857e-06
7.39072e-06
-7.4e-06
-4.11626e-06
-4.45311e-06
7.35635e-06
-7.25805e-06
-3.49135e-06
-3.79522e-06
7.10808e-06
-6.90019e-06
-2.91434e-06
-3.19574e-06
6.64209e-06
-6.33875e-06
-2.39718e-06
-2.64651e-06
6.00229e-06
-5.64432e-06
-1.9528e-06
-2.15992e-06
5.26121e-06
-4.844e-06
-1.49198e-06
-1.73438e-06
4.47069e-06
-7.43488e-07
-4.16956e-06
-1.25314e-06
-1.67752e-06
1.76395e-06
-3.33288e-06
-3.18947e-06
-1.82664e-06
1.86215e-06
-3.57524e-06
-3.46065e-06
-1.87175e-06
1.84988e-06
-3.78884e-06
-3.691e-06
-1.80356e-06
1.72259e-06
-3.97425e-06
-3.88767e-06
-4.05498e-06
2.87633e-06
7.84784e-05
-3.83586e-05
-8.75414e-05
4.78402e-05
-5.86471e-06
3.83785e-05
1.35644e-05
-4.80589e-05
2.77525e-06
-2.36638e-06
-8.45321e-07
-2.4317e-05
-2.29056e-05
2.50253e-05
-2.27377e-05
-2.10963e-05
-2.83787e-05
-1.62901e-05
1.18435e-05
1.54862e-05
8.29687e-06
1.83716e-06
1.38588e-05
-5.40546e-07
1.48348e-05
1.41467e-05
1.03697e-05
-1.48059e-05
1.34203e-05
2.30387e-05
-1.66648e-05
7.37593e-06
-1.00866e-05
-4.12766e-06
1.31618e-06
-3.12029e-05
1.89236e-05
-4.33003e-05
-2.1654e-05
4.65908e-05
-2.50601e-05
-1.09037e-05
1.84232e-05
-2.69222e-05
3.02622e-05
-8.94789e-06
3.5849e-07
3.18401e-06
-9.02205e-07
4.58005e-05
-1.16774e-05
3.33655e-05
-3.35524e-05
-1.52556e-05
1.55307e-05
-0.00199117
0.00143651
1.85545e-06
-0.00329698
1.90735e-06
-3.32984e-05
-2.22363e-05
1.92563e-05
-1.92721e-05
6.84292e-06
1.42155e-05
-2.89003e-05
-2.23284e-05
-2.43899e-05
-2.26797e-05
2.60947e-05
-2.00982e-05
-1.90895e-05
-3.1232e-06
5.69464e-07
-1.85432e-05
1.42461e-05
1.54011e-05
5.98406e-06
3.72626e-06
1.47683e-05
1.61744e-06
1.69757e-05
1.43804e-05
8.41925e-06
-1.56936e-05
1.59725e-05
2.10217e-05
-1.54192e-05
-1.07117e-06
1.25005e-06
-2.2518e-06
-9.32427e-07
-2.07563e-06
-5.07035e-06
5.87938e-06
1.22959e-06
-4.27474e-06
1.12499e-06
1.39719e-06
-1.52372e-06
-3.40339e-06
1.24869e-06
-3.44922e-06
-0.00199104
0.00143629
1.95143e-06
-0.00329671
1.93026e-06
7.66807e-07
-5.51559e-07
-0.00329275
1.23818e-06
-0.00329241
3.56273e-05
1.74082e-06
2.8897e-06
1.60504e-06
-1.33847e-06
1.44558e-06
-2.49093e-06
-1.18262e-06
-2.34525e-06
1.52284e-05
8.35341e-07
-6.44507e-07
2.09882e-06
-1.6158e-06
2.33603e-05
-1.74177e-05
-1.43808e-08
1.85893e-06
-1.06293e-06
-2.36542e-05
-1.09688e-05
9.99041e-06
1.4364e-05
1.17717e-05
-1.67731e-05
2.50249e-05
-1.39081e-06
1.50378e-06
-2.5754e-06
-2.39371e-06
-1.58582e-06
1.65314e-06
-2.86704e-06
-2.71206e-06
-1.67737e-06
1.68406e-06
-3.11224e-06
-2.99471e-06
-1.6411e-06
1.59628e-06
-3.30253e-06
-3.21886e-06
-1.50765e-06
1.44194e-06
-3.35235e-06
-3.35851e-06
-1.3534e-06
1.25301e-06
-3.42832e-06
-3.39178e-06
4.20877e-06
-3.47313e-06
1.10553e-06
-4.93458e-06
5.71321e-06
1.3507e-06
1.18173e-06
-6.59377e-06
7.61941e-06
1.81119e-06
1.55797e-06
-8.57525e-06
9.52522e-06
1.95985e-06
1.89581e-06
-1.04301e-05
1.13551e-05
2.40586e-06
2.11142e-06
-1.2313e-05
1.33607e-05
3.20603e-06
2.78918e-06
-1.45289e-05
1.57138e-05
4.30912e-06
3.68346e-06
-1.70094e-05
1.83824e-05
5.97461e-06
5.06765e-06
-1.97911e-05
2.12448e-05
8.50253e-06
7.11669e-06
-2.27776e-05
2.44134e-05
1.18343e-05
1.00298e-05
-2.64064e-05
2.86757e-05
1.54311e-05
1.3722e-05
1.67009e-05
2.52977e-05
-2.06285e-05
-4.65942e-05
2.75139e-05
-2.73636e-05
2.14864e-05
2.48396e-05
2.59858e-05
-2.42751e-05
1.48081e-05
1.76789e-05
2.2461e-05
-2.07152e-05
1.0293e-05
1.23929e-05
1.9037e-05
-1.76038e-05
7.09838e-06
8.4731e-06
1.61516e-05
-1.48259e-05
5.02372e-06
6.00137e-06
1.35366e-05
-1.24306e-05
3.66857e-06
4.07901e-06
1.13597e-05
-1.03722e-05
2.74165e-06
3.05734e-06
9.37676e-06
-8.42672e-06
2.06671e-06
2.3488e-06
7.54783e-06
-6.6902e-06
1.58465e-06
1.81363e-06
1.39976e-06
-0.00108703
0.000848394
1.56965e-06
1.76534e-06
-0.000674553
0.00054306
1.21284e-06
1.3883e-06
-0.000440822
0.000359683
9.3442e-07
1.0583e-06
-0.000294176
0.000240616
7.29172e-07
8.26014e-07
-0.000196247
0.000159297
5.24403e-07
6.64909e-07
-0.000128187
0.00010185
1.52985e-07
3.20146e-07
-7.92311e-05
6.01208e-05
-4.30597e-07
-8.14056e-08
-4.34257e-05
2.91333e-05
4.12834e-08
-2.16188e-07
8.08122e-07
-4.76631e-07
-0.00329333
-9.68622e-07
1.20242e-06
-0.00329248