/*--------------------------------*- C++ -*----------------------------------*\
| =========                 |                                                 |
| \\      /  F ield         | OpenFOAM: The Open Source CFD Toolbox           |
|  \\    /   O peration     | Version:  2212                                  |
|   \\  /    A nd           | Website:  www.openfoam.com                      |
|    \\/     M anipulation  |                                                 |
\*---------------------------------------------------------------------------*/
FoamFile
{
    version     2.0;
    format      ascii;
    arch        "LSB;label=32;scalar=64";
    class       volScalarField;
    location    "0.46";
    object      s;
}
// * * * * * * * * * * * * * * * * * * * * * * * * * * * * * * * * * * * * * //

dimensions      [0 0 0 0 0 0 0];

internalField   nonuniform List<scalar> 
24240
(
5.01834e-69
5.00847e-69
5.04143e-69
4.98895e-69
4.97408e-69
5.05546e-69
5.03138e-69
4.93031e-69
4.96651e-69
5.09643e-69
5.00054e-69
5.07926e-69
5.03299e-69
5.09183e-69
4.97355e-69
5.11498e-69
4.96518e-69
5.01773e-69
4.99008e-69
4.86082e-69
1.56109e-66
1.55881e-66
1.56887e-66
1.55273e-66
1.54776e-66
1.5732e-66
1.56567e-66
1.53439e-66
1.54565e-66
1.58592e-66
1.55621e-66
1.58035e-66
1.56653e-66
1.58445e-66
1.54795e-66
1.59156e-66
1.54555e-66
1.56172e-66
1.553e-66
1.51247e-66
2.42328e-64
2.42093e-64
2.43624e-64
2.41148e-64
2.40324e-64
2.44292e-64
2.43118e-64
2.38288e-64
2.40036e-64
2.46263e-64
2.41671e-64
2.45366e-64
2.4331e-64
2.46032e-64
2.4041e-64
2.47119e-64
2.40071e-64
2.4255e-64
2.41183e-64
2.34846e-64
2.21214e-62
2.21106e-62
2.22475e-62
2.20239e-62
2.19439e-62
2.23077e-62
2.22002e-62
2.17615e-62
2.19213e-62
2.24871e-62
2.20698e-62
2.2402e-62
2.22225e-62
2.24652e-62
2.19563e-62
2.25628e-62
2.19283e-62
2.21517e-62
2.20257e-62
2.14435e-62
1.42441e-60
1.42439e-60
1.43301e-60
1.41876e-60
1.41331e-60
1.43683e-60
1.42989e-60
1.40181e-60
1.41213e-60
1.44836e-60
1.42164e-60
1.44268e-60
1.43167e-60
1.44692e-60
1.41443e-60
1.45307e-60
1.41284e-60
1.42701e-60
1.41885e-60
1.38117e-60
6.35768e-59
6.36037e-59
6.39787e-59
6.3349e-59
6.30925e-59
6.41459e-59
6.38356e-59
6.25896e-59
6.30522e-59
6.46586e-59
6.34739e-59
6.4396e-59
6.39289e-59
6.45915e-59
6.31547e-59
6.48588e-59
6.3093e-59
6.37149e-59
6.33501e-59
6.1663e-59
1.97646e-57
1.97815e-57
1.98947e-57
1.97009e-57
1.9617e-57
1.99454e-57
1.9849e-57
1.94643e-57
1.96094e-57
2.01043e-57
1.97392e-57
2.00198e-57
1.98827e-57
2.00825e-57
1.96405e-57
2.01628e-57
1.96246e-57
1.9814e-57
1.97009e-57
1.91763e-57
3.96973e-56
3.97443e-56
3.99645e-56
3.9578e-56
3.94018e-56
4.00615e-56
3.98691e-56
3.91025e-56
3.93994e-56
4.03788e-56
3.96552e-56
4.0204e-56
3.99451e-56
4.03326e-56
3.94555e-56
4.04854e-56
3.94317e-56
3.98011e-56
3.9577e-56
3.85322e-56
2.35276e-55
2.35678e-55
2.36945e-55
2.34667e-55
2.3358e-55
2.37471e-55
2.36355e-55
2.31862e-55
2.33701e-55
2.39341e-55
2.35164e-55
2.38282e-55
2.36861e-55
2.39042e-55
2.33938e-55
2.39863e-55
2.33862e-55
2.35944e-55
2.34654e-55
2.28545e-55
5.72437e-56
5.7336e-56
5.78133e-56
5.69671e-56
5.68519e-56
5.72555e-56
5.73018e-56
5.64214e-56
5.78283e-56
5.75601e-56
5.763e-56
5.75635e-56
5.72561e-56
5.7313e-56
5.65626e-56
5.6878e-56
5.69598e-56
5.67692e-56
5.69013e-56
5.68852e-56
1.07353e-55
1.07815e-55
1.08936e-55
1.06964e-55
1.06601e-55
1.06641e-55
1.07326e-55
1.0609e-55
1.08826e-55
1.08534e-55
1.08778e-55
1.07861e-55
1.07925e-55
1.07054e-55
1.06322e-55
1.06784e-55
1.05757e-55
1.06262e-55
1.06848e-55
1.06445e-55
1.13931e-55
1.14437e-55
1.1522e-55
1.13184e-55
1.13545e-55
1.12559e-55
1.14436e-55
1.13486e-55
1.13961e-55
1.16015e-55
1.14687e-55
1.13063e-55
1.15098e-55
1.14388e-55
1.13893e-55
1.14625e-55
1.11597e-55
1.13349e-55
1.1287e-55
1.12641e-55
1.38135e-55
1.3859e-55
1.39245e-55
1.39466e-55
1.39776e-55
1.4096e-55
1.41637e-55
1.40398e-55
1.39813e-55
1.382e-55
1.38212e-55
1.38565e-55
1.39862e-55
1.40181e-55
1.3872e-55
1.39367e-55
1.39308e-55
1.3912e-55
1.37874e-55
1.38547e-55
1.44849e-55
1.43774e-55
1.44426e-55
1.46517e-55
1.45965e-55
1.47367e-55
1.4486e-55
1.47836e-55
1.43844e-55
1.42903e-55
1.42767e-55
1.4415e-55
1.43913e-55
1.42613e-55
1.42308e-55
1.43558e-55
1.41901e-55
1.44161e-55
1.4347e-55
1.44887e-55
1.52832e-55
1.52232e-55
1.54213e-55
1.5243e-55
1.52627e-55
1.55046e-55
1.53488e-55
1.56177e-55
1.53156e-55
1.55345e-55
1.54003e-55
1.54518e-55
1.54632e-55
1.56056e-55
1.54321e-55
1.56626e-55
1.537e-55
1.52066e-55
1.537e-55
1.52258e-55
1.48894e-55
1.47866e-55
1.46844e-55
1.47387e-55
1.48526e-55
1.49582e-55
1.49099e-55
1.48713e-55
1.46754e-55
1.47087e-55
1.45516e-55
1.4873e-55
1.49345e-55
1.50141e-55
1.50346e-55
1.49201e-55
1.48928e-55
1.49548e-55
1.48383e-55
1.48529e-55
1.4071e-55
1.43053e-55
1.40876e-55
1.43981e-55
1.40172e-55
1.42789e-55
1.40742e-55
1.428e-55
1.41439e-55
1.42725e-55
1.41543e-55
1.44724e-55
1.41799e-55
1.44941e-55
1.42022e-55
1.42498e-55
1.43394e-55
1.40469e-55
1.4373e-55
1.43596e-55
1.26022e-55
1.29052e-55
1.28554e-55
1.27106e-55
1.26376e-55
1.29836e-55
1.27725e-55
1.28575e-55
1.27953e-55
1.26227e-55
1.27227e-55
1.29204e-55
1.27322e-55
1.30541e-55
1.27506e-55
1.29169e-55
1.29171e-55
1.28409e-55
1.2939e-55
1.30078e-55
1.26026e-55
1.26135e-55
1.26666e-55
1.27523e-55
1.27398e-55
1.27443e-55
1.25169e-55
1.28247e-55
1.28622e-55
1.26182e-55
1.28056e-55
1.29008e-55
1.25328e-55
1.29271e-55
1.29008e-55
1.30642e-55
1.28212e-55
1.28485e-55
1.27337e-55
1.29367e-55
7.50038e-56
7.56896e-56
7.57524e-56
7.49245e-56
7.54054e-56
7.52803e-56
7.53286e-56
7.5621e-56
7.47064e-56
7.60791e-56
7.45212e-56
7.60918e-56
7.47183e-56
7.68727e-56
7.49174e-56
7.50485e-56
7.50217e-56
7.63914e-56
7.54362e-56
7.67807e-56
9.74359e-68
9.7293e-68
9.79256e-68
9.69208e-68
9.66139e-68
9.82049e-68
9.77356e-68
9.57829e-68
9.6484e-68
9.9004e-68
9.71456e-68
9.86571e-68
9.77892e-68
9.89096e-68
9.66262e-68
9.93529e-68
9.64676e-68
9.74785e-68
9.69315e-68
9.43939e-68
2.98692e-65
2.9841e-65
3.00312e-65
2.97267e-65
2.9626e-65
3.0116e-65
2.99715e-65
2.93759e-65
2.95908e-65
3.03604e-65
2.9793e-65
3.02498e-65
2.99948e-65
3.03309e-65
2.96365e-65
3.0465e-65
2.95919e-65
2.98982e-65
2.97287e-65
2.89441e-65
4.56438e-63
4.56239e-63
4.59088e-63
4.54486e-63
4.5285e-63
4.60372e-63
4.58155e-63
4.49101e-63
4.52387e-63
4.64101e-63
4.55469e-63
4.62348e-63
4.58622e-63
4.63643e-63
4.53119e-63
4.65663e-63
4.52501e-63
4.57124e-63
4.54508e-63
4.42424e-63
4.11645e-61
4.11673e-61
4.14188e-61
4.1008e-61
4.08517e-61
4.15328e-61
4.13322e-61
4.05199e-61
4.08166e-61
4.18681e-61
4.10933e-61
4.17039e-61
4.13834e-61
4.18254e-61
4.08843e-61
4.20043e-61
4.08341e-61
4.12455e-61
4.10078e-61
3.99101e-61
2.60997e-59
2.61143e-59
2.62701e-59
2.60122e-59
2.59076e-59
2.63412e-59
2.62137e-59
2.57016e-59
2.58903e-59
2.65533e-59
2.60649e-59
2.64455e-59
2.62524e-59
2.65256e-59
2.59342e-59
2.66367e-59
2.59063e-59
2.61632e-59
2.60118e-59
2.53118e-59
1.14997e-57
1.15114e-57
1.15782e-57
1.14657e-57
1.14172e-57
1.16088e-57
1.15526e-57
1.13283e-57
1.14118e-57
1.1702e-57
1.14882e-57
1.16528e-57
1.15722e-57
1.16893e-57
1.14311e-57
1.17369e-57
1.14205e-57
1.15318e-57
1.14651e-57
1.11555e-57
3.52404e-56
3.52918e-56
3.54906e-56
3.51489e-56
3.4993e-56
3.55817e-56
3.54096e-56
3.4727e-56
3.49853e-56
3.58664e-56
3.52168e-56
3.57105e-56
3.54781e-56
3.58257e-56
3.50432e-56
3.59667e-56
3.50166e-56
3.53503e-56
3.51467e-56
3.41973e-56
6.97245e-55
6.98495e-55
7.02296e-55
6.95582e-55
6.92366e-55
7.04012e-55
7.00628e-55
6.87228e-55
6.92435e-55
7.09611e-55
6.96931e-55
7.06438e-55
7.0213e-55
7.08763e-55
6.93471e-55
7.11405e-55
6.93085e-55
6.99499e-55
6.95532e-55
6.76895e-55
4.07456e-54
4.08402e-54
4.10558e-54
4.06653e-54
4.047e-54
4.11472e-54
4.09536e-54
4.01793e-54
4.04972e-54
4.14726e-54
4.07508e-54
4.12831e-54
4.10511e-54
4.14187e-54
4.05414e-54
4.15585e-54
4.05298e-54
4.08862e-54
4.06616e-54
3.9586e-54
9.57968e-55
9.59565e-55
9.67639e-55
9.53406e-55
9.51422e-55
9.58034e-55
9.58859e-55
9.44299e-55
9.67929e-55
9.63348e-55
9.64583e-55
9.63237e-55
9.58337e-55
9.59051e-55
9.46718e-55
9.51677e-55
9.53145e-55
9.49983e-55
9.52288e-55
9.52e-55
1.82283e-54
1.8306e-54
1.84968e-54
1.81607e-54
1.8101e-54
1.81058e-54
1.82221e-54
1.80149e-54
1.84766e-54
1.84297e-54
1.84688e-54
1.83117e-54
1.83257e-54
1.81784e-54
1.80551e-54
1.81318e-54
1.79565e-54
1.80418e-54
1.81419e-54
1.80705e-54
1.9232e-54
1.9316e-54
1.9449e-54
1.9107e-54
1.91688e-54
1.90058e-54
1.93207e-54
1.91625e-54
1.92356e-54
1.95808e-54
1.93565e-54
1.90841e-54
1.94279e-54
1.93112e-54
1.92277e-54
1.93509e-54
1.88451e-54
1.91339e-54
1.90566e-54
1.90164e-54
2.3399e-54
2.34705e-54
2.35841e-54
2.36253e-54
2.36762e-54
2.3878e-54
2.39831e-54
2.37827e-54
2.36801e-54
2.3406e-54
2.34084e-54
2.34701e-54
2.36872e-54
2.37369e-54
2.34962e-54
2.36022e-54
2.35912e-54
2.35643e-54
2.33538e-54
2.34684e-54
2.44289e-54
2.42459e-54
2.43568e-54
2.47044e-54
2.46137e-54
2.48509e-54
2.44277e-54
2.493e-54
2.42555e-54
2.41045e-54
2.40786e-54
2.43115e-54
2.42705e-54
2.40525e-54
2.40044e-54
2.42126e-54
2.39336e-54
2.4311e-54
2.42003e-54
2.44315e-54
2.58712e-54
2.57699e-54
2.61018e-54
2.57985e-54
2.58381e-54
2.62433e-54
2.59799e-54
2.64324e-54
2.59274e-54
2.62967e-54
2.60673e-54
2.61534e-54
2.61754e-54
2.64198e-54
2.6125e-54
2.65093e-54
2.60199e-54
2.57422e-54
2.60188e-54
2.57713e-54
2.50977e-54
2.4931e-54
2.47534e-54
2.48484e-54
2.5036e-54
2.5213e-54
2.51319e-54
2.50678e-54
2.47438e-54
2.47956e-54
2.45318e-54
2.50712e-54
2.5176e-54
2.53058e-54
2.53439e-54
2.51461e-54
2.51062e-54
2.52113e-54
2.50167e-54
2.50409e-54
2.38308e-54
2.42287e-54
2.38608e-54
2.43811e-54
2.37367e-54
2.41763e-54
2.3833e-54
2.41798e-54
2.39533e-54
2.4172e-54
2.39704e-54
2.45094e-54
2.40129e-54
2.45425e-54
2.40531e-54
2.4127e-54
2.42839e-54
2.37895e-54
2.434e-54
2.43175e-54
2.129e-54
2.17952e-54
2.1715e-54
2.14692e-54
2.13497e-54
2.19263e-54
2.15717e-54
2.17151e-54
2.16129e-54
2.13201e-54
2.14899e-54
2.18204e-54
2.15064e-54
2.20441e-54
2.15393e-54
2.1817e-54
2.1815e-54
2.169e-54
2.18501e-54
2.19682e-54
2.14531e-54
2.14701e-54
2.15636e-54
2.17062e-54
2.16839e-54
2.16897e-54
2.13055e-54
2.18314e-54
2.18901e-54
2.1479e-54
2.17967e-54
2.19584e-54
2.13351e-54
2.20014e-54
2.196e-54
2.22326e-54
2.18253e-54
2.1866e-54
2.16724e-54
2.20145e-54
1.26957e-54
1.28124e-54
1.28242e-54
1.26827e-54
1.27627e-54
1.27421e-54
1.27501e-54
1.28003e-54
1.26429e-54
1.28762e-54
1.26131e-54
1.28775e-54
1.26479e-54
1.30102e-54
1.26806e-54
1.27024e-54
1.26976e-54
1.29284e-54
1.27683e-54
1.29938e-54
1.80124e-66
1.79958e-66
1.81114e-66
1.79283e-66
1.78681e-66
1.81642e-66
1.80772e-66
1.77181e-66
1.78474e-66
1.83127e-66
1.79699e-66
1.8246e-66
1.80915e-66
1.82943e-66
1.78748e-66
1.8375e-66
1.78462e-66
1.80312e-66
1.79282e-66
1.74533e-66
5.43302e-64
5.43097e-64
5.46514e-64
5.41054e-64
5.39118e-64
5.48091e-64
5.45454e-64
5.34676e-64
5.38576e-64
5.52558e-64
5.4226e-64
5.50466e-64
5.46012e-64
5.51991e-64
5.39442e-64
5.54395e-64
5.38656e-64
5.44168e-64
5.41031e-64
5.26573e-64
8.16744e-62
8.16869e-62
8.21901e-62
8.1378e-62
8.10696e-62
8.24243e-62
8.20265e-62
8.04146e-62
8.10016e-62
8.30946e-62
8.15536e-62
8.27687e-62
8.21301e-62
8.30082e-62
8.11376e-62
8.33644e-62
8.1031e-62
8.18491e-62
8.13737e-62
7.91815e-62
7.26789e-60
7.27282e-60
7.31661e-60
7.24506e-60
7.21608e-60
7.33708e-60
7.30157e-60
7.15889e-60
7.21119e-60
7.39655e-60
7.26009e-60
7.36647e-60
7.31241e-60
7.38862e-60
7.22361e-60
7.41974e-60
7.21512e-60
7.28692e-60
7.24436e-60
7.04775e-60
4.53244e-58
4.53783e-58
4.56449e-58
4.52029e-58
4.50127e-58
4.577e-58
4.55482e-58
4.46635e-58
4.49907e-58
4.61402e-58
4.5294e-58
4.5946e-58
4.56267e-58
4.60895e-58
4.50699e-58
4.62795e-58
4.50237e-58
4.54646e-58
4.51984e-58
4.39643e-58
1.96853e-56
1.9718e-56
1.98306e-56
1.96404e-56
1.95537e-56
1.98836e-56
1.97872e-56
1.94052e-56
1.9548e-56
2.00438e-56
1.96787e-56
1.99566e-56
1.98256e-56
2.0021e-56
1.95824e-56
2.01013e-56
1.95652e-56
1.97534e-56
1.96379e-56
1.90996e-56
5.93962e-55
5.95222e-55
5.98516e-55
5.92824e-55
5.90088e-55
6.00064e-55
5.97159e-55
5.85712e-55
5.90061e-55
6.04884e-55
5.93965e-55
6.02163e-55
5.98464e-55
6.04167e-55
5.91078e-55
6.06504e-55
5.9066e-55
5.96216e-55
5.92752e-55
5.76486e-55
1.15587e-53
1.15872e-53
1.16491e-53
1.1539e-53
1.14836e-53
1.16776e-53
1.16215e-53
1.14005e-53
1.14867e-53
1.17709e-53
1.15613e-53
1.17165e-53
1.16493e-53
1.17562e-53
1.15047e-53
1.17993e-53
1.14989e-53
1.16039e-53
1.15377e-53
1.12234e-53
6.65296e-53
6.67292e-53
6.70742e-53
6.64431e-53
6.61124e-53
6.72234e-53
6.69071e-53
6.56491e-53
6.61676e-53
6.77576e-53
6.6582e-53
6.74373e-53
6.70834e-53
6.76658e-53
6.6245e-53
6.78901e-53
6.62289e-53
6.68035e-53
6.64351e-53
6.46468e-53
1.5087e-53
1.51129e-53
1.52415e-53
1.50161e-53
1.4984e-53
1.50857e-53
1.50996e-53
1.48732e-53
1.52465e-53
1.51732e-53
1.51935e-53
1.51685e-53
1.50954e-53
1.51028e-53
1.49122e-53
1.49853e-53
1.50096e-53
1.49604e-53
1.49983e-53
1.49931e-53
2.91411e-53
2.9264e-53
2.95695e-53
2.90305e-53
2.89382e-53
2.89424e-53
2.91286e-53
2.88014e-53
2.95347e-53
2.94643e-53
2.95229e-53
2.92693e-53
2.92973e-53
2.90626e-53
2.88672e-53
2.89868e-53
2.87054e-53
2.88404e-53
2.90019e-53
2.88824e-53
3.05678e-53
3.06988e-53
3.09119e-53
3.03713e-53
3.04706e-53
3.02177e-53
3.07145e-53
3.04665e-53
3.05715e-53
3.1117e-53
3.07605e-53
3.03307e-53
3.08772e-53
3.06971e-53
3.05643e-53
3.07592e-53
2.99652e-53
3.04122e-53
3.02955e-53
3.02291e-53
3.73295e-53
3.74346e-53
3.762e-53
3.76912e-53
3.77704e-53
3.80935e-53
3.82459e-53
3.79418e-53
3.77726e-53
3.73347e-53
3.73385e-53
3.74396e-53
3.77822e-53
3.78541e-53
3.74818e-53
3.76447e-53
3.76245e-53
3.75905e-53
3.72555e-53
3.74391e-53
3.88191e-53
3.85259e-53
3.87034e-53
3.92473e-53
3.91072e-53
3.94855e-53
3.8812e-53
3.96111e-53
3.8537e-53
3.83095e-53
3.82636e-53
3.86332e-53
3.85662e-53
3.82224e-53
3.81514e-53
3.84776e-53
3.80354e-53
3.86288e-53
3.84627e-53
3.88171e-53
4.12728e-53
4.11121e-53
4.16354e-53
4.11496e-53
4.12233e-53
4.1862e-53
4.14429e-53
4.21597e-53
4.13652e-53
4.19516e-53
4.15823e-53
4.17174e-53
4.17575e-53
4.21519e-53
4.16805e-53
4.22833e-53
4.15128e-53
4.10685e-53
4.15095e-53
4.11095e-53
3.98932e-53
3.96394e-53
3.93492e-53
3.95053e-53
3.97956e-53
4.00758e-53
3.99475e-53
3.98481e-53
3.93432e-53
3.94183e-53
3.90007e-53
3.98533e-53
4.00223e-53
4.0221e-53
4.02872e-53
3.99658e-53
3.99118e-53
4.00784e-53
3.97737e-53
3.98113e-53
3.80698e-53
3.87061e-53
3.81208e-53
3.89413e-53
3.79146e-53
3.86104e-53
3.80677e-53
3.86187e-53
3.82631e-53
3.86137e-53
3.82893e-53
3.91505e-53
3.83568e-53
3.91977e-53
3.84254e-53
3.85316e-53
3.87907e-53
3.80036e-53
3.88783e-53
3.88429e-53
3.39469e-53
3.47412e-53
3.46194e-53
3.42269e-53
3.40416e-53
3.49476e-53
3.4386e-53
3.46141e-53
3.4456e-53
3.39879e-53
3.42596e-53
3.47812e-53
3.42863e-53
3.51337e-53
3.43418e-53
3.47786e-53
3.47725e-53
3.45787e-53
3.48251e-53
3.50164e-53
3.44827e-53
3.45082e-53
3.46637e-53
3.48868e-53
3.4849e-53
3.48559e-53
3.42432e-53
3.50912e-53
3.51768e-53
3.45237e-53
3.50316e-53
3.52913e-53
3.42955e-53
3.53576e-53
3.52962e-53
3.57248e-53
3.50815e-53
3.51371e-53
3.48293e-53
3.53729e-53
2.02888e-53
2.04757e-53
2.04969e-53
2.02691e-53
2.03946e-53
2.03622e-53
2.03745e-53
2.04563e-53
2.02007e-53
2.05748e-53
2.01558e-53
2.05755e-53
2.02132e-53
2.07881e-53
2.02644e-53
2.02987e-53
2.029e-53
2.06571e-53
2.04038e-53
2.07607e-53
3.33062e-65
3.32946e-65
3.35056e-65
3.3172e-65
3.30543e-65
3.36056e-65
3.34443e-65
3.27836e-65
3.30223e-65
3.38815e-65
3.3249e-65
3.37531e-65
3.34788e-65
3.38456e-65
3.30748e-65
3.39926e-65
3.30236e-65
3.33618e-65
3.31681e-65
3.22783e-65
9.88693e-63
9.88908e-63
9.95046e-63
9.85249e-63
9.81538e-63
9.97974e-63
9.93163e-63
9.73649e-63
9.80735e-63
1.00614e-62
9.87445e-63
1.00219e-62
9.94422e-63
1.00506e-62
9.82371e-63
1.00936e-62
9.80988e-63
9.90904e-63
9.85106e-63
9.58428e-63
1.46182e-60
1.46295e-60
1.47184e-60
1.4575e-60
1.4517e-60
1.4761e-60
1.46897e-60
1.44026e-60
1.45075e-60
1.48815e-60
1.46064e-60
1.4821e-60
1.47118e-60
1.48653e-60
1.45328e-60
1.4928e-60
1.45144e-60
1.46591e-60
1.45728e-60
1.41747e-60
1.2824e-58
1.28409e-58
1.29171e-58
1.27925e-58
1.2739e-58
1.29537e-58
1.2891e-58
1.26405e-58
1.27326e-58
1.30591e-58
1.2819e-58
1.30041e-58
1.29133e-58
1.30445e-58
1.27554e-58
1.30985e-58
1.27411e-58
1.28662e-58
1.27902e-58
1.24379e-58
7.86396e-57
7.87854e-57
7.92408e-57
7.84836e-57
7.81391e-57
7.94606e-57
7.90751e-57
7.75477e-57
7.81148e-57
8.01056e-57
7.86414e-57
7.97566e-57
7.9231e-57
8.00135e-57
7.82575e-57
8.03378e-57
7.81814e-57
7.89371e-57
7.84699e-57
7.62941e-57
3.36395e-55
3.37183e-55
3.39077e-55
3.35865e-55
3.34323e-55
3.39991e-55
3.38341e-55
3.31846e-55
3.34284e-55
3.4274e-55
3.36519e-55
3.41197e-55
3.39083e-55
3.42332e-55
3.34894e-55
3.43682e-55
3.34619e-55
3.37795e-55
3.35802e-55
3.26449e-55
9.99127e-54
1.00194e-53
1.00739e-53
9.97921e-54
9.93136e-54
1.01e-53
1.00512e-53
9.85955e-54
9.93264e-54
1.01815e-53
9.99833e-54
1.01341e-53
1.00756e-53
1.01689e-53
9.95044e-54
1.02075e-53
9.94394e-54
1.00362e-53
9.97748e-54
9.69908e-54
1.91127e-52
1.91732e-52
1.92735e-52
1.90934e-52
1.89983e-52
1.93208e-52
1.92279e-52
1.88643e-52
1.90068e-52
1.94757e-52
1.91301e-52
1.93827e-52
1.92788e-52
1.94504e-52
1.9038e-52
1.95204e-52
1.90293e-52
1.92006e-52
1.90905e-52
1.85615e-52
1.0833e-51
1.08732e-51
1.09282e-51
1.08265e-51
1.07707e-51
1.09524e-51
1.09009e-51
1.06971e-51
1.07815e-51
1.10399e-51
1.0849e-51
1.09859e-51
1.09324e-51
1.10243e-51
1.07949e-51
1.10602e-51
1.07928e-51
1.08851e-51
1.08249e-51
1.05282e-51
2.36729e-52
2.37147e-52
2.39187e-52
2.35629e-52
2.35114e-52
2.36669e-52
2.36902e-52
2.33396e-52
2.39273e-52
2.38103e-52
2.38435e-52
2.37982e-52
2.36901e-52
2.36954e-52
2.34023e-52
2.35089e-52
2.35488e-52
2.34726e-52
2.35347e-52
2.35257e-52
4.64483e-52
4.66424e-52
4.71302e-52
4.62681e-52
4.61261e-52
4.61275e-52
4.64245e-52
4.59095e-52
4.70705e-52
4.69655e-52
4.70528e-52
4.66446e-52
4.66981e-52
4.63252e-52
4.60166e-52
4.62028e-52
4.57522e-52
4.59651e-52
4.62249e-52
4.60258e-52
4.8451e-52
4.86546e-52
4.89952e-52
4.81434e-52
4.83023e-52
4.79116e-52
4.86932e-52
4.83054e-52
4.84541e-52
4.93131e-52
4.87486e-52
4.80721e-52
4.89385e-52
4.86614e-52
4.84513e-52
4.87586e-52
4.75159e-52
4.82053e-52
4.80299e-52
4.79205e-52
5.93978e-52
5.95509e-52
5.98526e-52
5.99744e-52
6.0097e-52
6.06131e-52
6.0831e-52
6.0372e-52
6.00939e-52
5.93966e-52
5.94028e-52
5.95676e-52
6.0107e-52
6.02089e-52
5.96356e-52
5.98848e-52
5.98482e-52
5.98085e-52
5.92773e-52
5.957e-52
6.15652e-52
6.10961e-52
6.13794e-52
6.22289e-52
6.20134e-52
6.26156e-52
6.15453e-52
6.28146e-52
6.11069e-52
6.0766e-52
6.06857e-52
6.12707e-52
6.11618e-52
6.06205e-52
6.05169e-52
6.10264e-52
6.03273e-52
6.12583e-52
6.10107e-52
6.15521e-52
6.57193e-52
6.54656e-52
6.6289e-52
6.55115e-52
6.56457e-52
6.66502e-52
6.59858e-52
6.71176e-52
6.58719e-52
6.68006e-52
6.62073e-52
6.64187e-52
6.6491e-52
6.71257e-52
6.63734e-52
6.73168e-52
6.61063e-52
6.53968e-52
6.60988e-52
6.54531e-52
6.33497e-52
6.29648e-52
6.24913e-52
6.27474e-52
6.31954e-52
6.36386e-52
6.34358e-52
6.32817e-52
6.24964e-52
6.26039e-52
6.19437e-52
6.32902e-52
6.35622e-52
6.38655e-52
6.39798e-52
6.34579e-52
6.33876e-52
6.36505e-52
6.31749e-52
6.32329e-52
6.07618e-52
6.17782e-52
6.08482e-52
6.21404e-52
6.0506e-52
6.16064e-52
6.07489e-52
6.16236e-52
6.10664e-52
6.16275e-52
6.11063e-52
6.2481e-52
6.12136e-52
6.25473e-52
6.13297e-52
6.14803e-52
6.19074e-52
6.0656e-52
6.2044e-52
6.19885e-52
5.41271e-52
5.53758e-52
5.51913e-52
5.45646e-52
5.42778e-52
5.57005e-52
5.48118e-52
5.5174e-52
5.49295e-52
5.41814e-52
5.46162e-52
5.5439e-52
5.46598e-52
5.5995e-52
5.47527e-52
5.54394e-52
5.54256e-52
5.51254e-52
5.5504e-52
5.58131e-52
5.54238e-52
5.54616e-52
5.57198e-52
5.60686e-52
5.60048e-52
5.60118e-52
5.50352e-52
5.64022e-52
5.65255e-52
5.5488e-52
5.63004e-52
5.67172e-52
5.51268e-52
5.68194e-52
5.67292e-52
5.74023e-52
5.63871e-52
5.64605e-52
5.59715e-52
5.68348e-52
3.23932e-52
3.26921e-52
3.27296e-52
3.23635e-52
3.25599e-52
3.25087e-52
3.25276e-52
3.26612e-52
3.2247e-52
3.28456e-52
3.21796e-52
3.28451e-52
3.22736e-52
3.3185e-52
3.23541e-52
3.24081e-52
3.23925e-52
3.29755e-52
3.2575e-52
3.31394e-52
6.15709e-64
6.15865e-64
6.19717e-64
6.13638e-64
6.11345e-64
6.21604e-64
6.18615e-64
6.06464e-64
6.10869e-64
6.2673e-64
6.15065e-64
6.24263e-64
6.19406e-64
6.26031e-64
6.11877e-64
6.28705e-64
6.10957e-64
6.17137e-64
6.13498e-64
5.9682e-64
1.79851e-61
1.80003e-61
1.81105e-61
1.79347e-61
1.78639e-61
1.81647e-61
1.80771e-61
1.77239e-61
1.78526e-61
1.8314e-61
1.79747e-61
1.82393e-61
1.81044e-61
1.82933e-61
1.78834e-61
1.83704e-61
1.78591e-61
1.80374e-61
1.79303e-61
1.74379e-61
2.61475e-59
2.61846e-59
2.63414e-59
2.60883e-59
2.59798e-59
2.64188e-59
2.6291e-59
2.57801e-59
2.59675e-59
2.66354e-59
2.61445e-59
2.65231e-59
2.63371e-59
2.66049e-59
2.60144e-59
2.67153e-59
2.59828e-59
2.62385e-59
2.60821e-59
2.53589e-59
2.26044e-57
2.26494e-57
2.27818e-57
2.25649e-57
2.24664e-57
2.28472e-57
2.27364e-57
2.22971e-57
2.24594e-57
2.30338e-57
2.26116e-57
2.29333e-57
2.27814e-57
2.30067e-57
2.25009e-57
2.31004e-57
2.24769e-57
2.26947e-57
2.2559e-57
2.1928e-57
1.36272e-55
1.36619e-55
1.37396e-55
1.361e-55
1.35478e-55
1.3778e-55
1.37112e-55
1.34478e-55
1.3546e-55
1.38903e-55
1.36373e-55
1.38277e-55
1.37416e-55
1.38736e-55
1.35716e-55
1.39289e-55
1.35591e-55
1.36884e-55
1.36066e-55
1.32232e-55
5.73839e-54
5.75594e-54
5.78771e-54
5.73354e-54
5.7062e-54
5.80339e-54
5.77523e-54
5.66498e-54
5.70655e-54
5.8505e-54
5.74468e-54
5.82326e-54
5.78935e-54
5.84323e-54
5.71735e-54
5.86587e-54
5.71298e-54
5.76643e-54
5.73214e-54
5.56977e-54
1.67707e-52
1.68302e-52
1.69199e-52
1.67628e-52
1.66794e-52
1.6964e-52
1.68819e-52
1.65619e-52
1.66845e-52
1.71013e-52
1.67948e-52
1.70191e-52
1.69272e-52
1.70792e-52
1.67155e-52
1.7143e-52
1.67055e-52
1.68583e-52
1.67591e-52
1.62832e-52
3.15184e-51
3.16416e-51
3.18035e-51
3.15096e-51
3.13472e-51
3.18814e-51
3.17283e-51
3.11316e-51
3.13664e-51
3.21381e-51
3.15698e-51
3.19794e-51
3.18203e-51
3.20947e-51
3.14202e-51
3.22079e-51
3.14076e-51
3.16862e-51
3.15038e-51
3.0615e-51
1.75877e-50
1.76662e-50
1.77534e-50
1.75898e-50
1.74961e-50
1.77926e-50
1.7709e-50
1.73797e-50
1.75165e-50
1.79352e-50
1.76261e-50
1.78447e-50
1.77646e-50
1.7909e-50
1.75398e-50
1.7966e-50
1.75371e-50
1.76849e-50
1.7587e-50
1.70956e-50
3.70248e-51
3.70916e-51
3.74143e-51
3.68544e-51
3.67723e-51
3.70086e-51
3.70477e-51
3.65067e-51
3.74287e-51
3.72429e-51
3.72969e-51
3.72163e-51
3.70578e-51
3.70562e-51
3.66072e-51
3.67615e-51
3.68259e-51
3.67086e-51
3.68099e-51
3.67941e-51
7.37973e-51
7.41031e-51
7.48795e-51
7.35049e-51
7.32877e-51
7.32816e-51
7.37537e-51
7.29457e-51
7.4778e-51
7.46223e-51
7.47513e-51
7.40967e-51
7.41958e-51
7.36053e-51
7.31193e-51
7.3408e-51
7.26899e-51
7.30235e-51
7.34406e-51
7.311e-51
7.65652e-51
7.6881e-51
7.74237e-51
7.60861e-51
7.63392e-51
7.57386e-51
7.69636e-51
7.63591e-51
7.6567e-51
7.79141e-51
7.70235e-51
7.59625e-51
7.73313e-51
7.69063e-51
7.65751e-51
7.70581e-51
7.51205e-51
7.6179e-51
7.59172e-51
7.57379e-51
9.42368e-51
9.44576e-51
9.4947e-51
9.51523e-51
9.5342e-51
9.61628e-51
9.64708e-51
9.57815e-51
9.53261e-51
9.42211e-51
9.42304e-51
9.44971e-51
9.53447e-51
9.54856e-51
9.46074e-51
9.49868e-51
9.49203e-51
9.48806e-51
9.4041e-51
9.45056e-51
9.73927e-51
9.6644e-51
9.70951e-51
9.84186e-51
9.80885e-51
9.90447e-51
9.73479e-51
9.93586e-51
9.66511e-51
9.61427e-51
9.60041e-51
9.69269e-51
9.67514e-51
9.59022e-51
9.57518e-51
9.65452e-51
9.54438e-51
9.68987e-51
9.65325e-51
9.73563e-51
1.04387e-50
1.03989e-50
1.0528e-50
1.04039e-50
1.04279e-50
1.05853e-50
1.04803e-50
1.06585e-50
1.04638e-50
1.06104e-50
1.05153e-50
1.05484e-50
1.05612e-50
1.06629e-50
1.05432e-50
1.06904e-50
1.05008e-50
1.0388e-50
1.04994e-50
1.03955e-50
1.0039e-50
9.98094e-51
9.90403e-51
9.94581e-51
1.00147e-50
1.00847e-50
1.00527e-50
1.0029e-50
9.90715e-51
9.92231e-51
9.81818e-51
1.00303e-50
1.0074e-50
1.01201e-50
1.01396e-50
1.00552e-50
1.00464e-50
1.00877e-50
1.00138e-50
1.00226e-50
9.67798e-51
9.83982e-51
9.69247e-51
9.89537e-51
9.63599e-51
9.80949e-51
9.67439e-51
9.81282e-51
9.72574e-51
9.81529e-51
9.73176e-51
9.95069e-51
9.74886e-51
9.95988e-51
9.76849e-51
9.78937e-51
9.85952e-51
9.66107e-51
9.8807e-51
9.87201e-51
8.61437e-51
8.8104e-51
8.7825e-51
8.68276e-51
8.63832e-51
8.86133e-51
8.72096e-51
8.77833e-51
8.74065e-51
8.62137e-51
8.69086e-51
8.82038e-51
8.69788e-51
8.90786e-51
8.71334e-51
8.82105e-51
8.81825e-51
8.77181e-51
8.82992e-51
8.87968e-51
8.89118e-51
8.89674e-51
8.93949e-51
8.99381e-51
8.98312e-51
8.9836e-51
8.82828e-51
9.04813e-51
9.06563e-51
8.90119e-51
9.03085e-51
9.09764e-51
8.84419e-51
9.11337e-51
9.1002e-51
9.20561e-51
9.04585e-51
9.05501e-51
8.97753e-51
9.11431e-51
5.1633e-51
5.21096e-51
5.21755e-51
5.15883e-51
5.18953e-51
5.18142e-51
5.18432e-51
5.2061e-51
5.1391e-51
5.23474e-51
5.12906e-51
5.23438e-51
5.14441e-51
5.28866e-51
5.15705e-51
5.16552e-51
5.16277e-51
5.2552e-51
5.19197e-51
5.28108e-51
1.13864e-62
1.13965e-62
1.14668e-62
1.1356e-62
1.13114e-62
1.15023e-62
1.1447e-62
1.12234e-62
1.13048e-62
1.15976e-62
1.13824e-62
1.15502e-62
1.14644e-62
1.1584e-62
1.13241e-62
1.16327e-62
1.13076e-62
1.14205e-62
1.13522e-62
1.10391e-62
3.26836e-60
3.27326e-60
3.29301e-60
3.26151e-60
3.24802e-60
3.30303e-60
3.28707e-60
3.22321e-60
3.24658e-60
3.33028e-60
3.2688e-60
3.31621e-60
3.29286e-60
3.32634e-60
3.25239e-60
3.34011e-60
3.24813e-60
3.28012e-60
3.2604e-60
3.16951e-60
4.67101e-58
4.68084e-58
4.70844e-58
4.66383e-58
4.64358e-58
4.72246e-58
4.6996e-58
4.6088e-58
4.64225e-58
4.76133e-58
4.67388e-58
4.74053e-58
4.70901e-58
4.75562e-58
4.6509e-58
4.77501e-58
4.6455e-58
4.69059e-58
4.6623e-58
4.531e-58
3.97716e-56
3.98789e-56
4.01083e-56
3.97316e-56
3.9551e-56
4.02246e-56
4.00296e-56
3.92604e-56
3.95458e-56
4.05545e-56
3.98138e-56
4.03714e-56
4.01189e-56
4.05047e-56
3.96215e-56
4.06668e-56
3.95813e-56
3.99595e-56
3.97183e-56
3.8589e-56
2.35643e-54
2.36415e-54
2.37737e-54
2.35523e-54
2.34404e-54
2.38407e-54
2.3725e-54
2.32719e-54
2.34416e-54
2.40357e-54
2.35994e-54
2.39236e-54
2.37836e-54
2.40055e-54
2.34874e-54
2.40994e-54
2.34672e-54
2.36876e-54
2.35449e-54
2.287e-54
9.76366e-53
9.80085e-53
9.85395e-53
9.76283e-53
9.71455e-53
9.88075e-53
9.83285e-53
9.64617e-53
9.71689e-53
9.96126e-53
9.78176e-53
9.91334e-53
9.85935e-53
9.94837e-53
9.73593e-53
9.98619e-53
9.72902e-53
9.81871e-53
9.75994e-53
9.47856e-53
2.80701e-51
2.81914e-51
2.83385e-51
2.80783e-51
2.79339e-51
2.84124e-51
2.82751e-51
2.7742e-51
2.79472e-51
2.86432e-51
2.81318e-51
2.8501e-51
2.83581e-51
2.86048e-51
2.80011e-51
2.87095e-51
2.7986e-51
2.8238e-51
2.80711e-51
2.72593e-51
5.18072e-50
5.20497e-50
5.231e-50
5.18316e-50
5.15556e-50
5.24377e-50
5.21862e-50
5.121e-50
5.15961e-50
5.28614e-50
5.19303e-50
5.2592e-50
5.23508e-50
5.27873e-50
5.16882e-50
5.29699e-50
5.16703e-50
5.21217e-50
5.18211e-50
5.03313e-50
2.84558e-49
2.8605e-49
2.87427e-49
2.84803e-49
2.8324e-49
2.88056e-49
2.86705e-49
2.81402e-49
2.83616e-49
2.90375e-49
2.85389e-49
2.88862e-49
2.87679e-49
2.89935e-49
2.84014e-49
2.90839e-49
2.83984e-49
2.8634e-49
2.84757e-49
2.76642e-49
5.76664e-50
5.77722e-50
5.82807e-50
5.74027e-50
5.72728e-50
5.76295e-50
5.7695e-50
5.68641e-50
5.83044e-50
5.8011e-50
5.80978e-50
5.79571e-50
5.77267e-50
5.77086e-50
5.70242e-50
5.72453e-50
5.73482e-50
5.71683e-50
5.7333e-50
5.73058e-50
1.16822e-49
1.17302e-49
1.18533e-49
1.16349e-49
1.16019e-49
1.15996e-49
1.16744e-49
1.15481e-49
1.18362e-49
1.18133e-49
1.18322e-49
1.17276e-49
1.17455e-49
1.16524e-49
1.15762e-49
1.16207e-49
1.15068e-49
1.15587e-49
1.16255e-49
1.15709e-49
1.20555e-49
1.21043e-49
1.21905e-49
1.19813e-49
1.20215e-49
1.19296e-49
1.21209e-49
1.20269e-49
1.20555e-49
1.22658e-49
1.21259e-49
1.19601e-49
1.21756e-49
1.21107e-49
1.20587e-49
1.21343e-49
1.18334e-49
1.19952e-49
1.19564e-49
1.19271e-49
1.4899e-49
1.49305e-49
1.50095e-49
1.50439e-49
1.50731e-49
1.52032e-49
1.52459e-49
1.51431e-49
1.50688e-49
1.48944e-49
1.48958e-49
1.49388e-49
1.50715e-49
1.50903e-49
1.49565e-49
1.5014e-49
1.50021e-49
1.49995e-49
1.48674e-49
1.49408e-49
1.53575e-49
1.52384e-49
1.531e-49
1.55155e-49
1.54652e-49
1.56165e-49
1.53483e-49
1.5666e-49
1.5238e-49
1.51627e-49
1.51391e-49
1.5284e-49
1.52559e-49
1.51231e-49
1.51016e-49
1.52246e-49
1.50517e-49
1.52782e-49
1.52246e-49
1.53493e-49
1.65285e-49
1.64665e-49
1.66681e-49
1.64706e-49
1.65129e-49
1.67588e-49
1.65936e-49
1.68728e-49
1.65699e-49
1.68005e-49
1.66487e-49
1.67001e-49
1.67227e-49
1.68848e-49
1.66953e-49
1.69239e-49
1.66282e-49
1.64495e-49
1.66256e-49
1.64588e-49
1.58643e-49
1.57772e-49
1.56527e-49
1.57206e-49
1.5826e-49
1.59362e-49
1.5886e-49
1.58496e-49
1.56613e-49
1.56822e-49
1.55184e-49
1.58516e-49
1.59216e-49
1.59913e-49
1.60245e-49
1.58882e-49
1.58782e-49
1.59428e-49
1.58283e-49
1.58418e-49
1.53729e-49
1.56299e-49
1.53972e-49
1.57148e-49
1.53042e-49
1.5577e-49
1.53648e-49
1.55832e-49
1.54476e-49
1.55901e-49
1.54567e-49
1.58043e-49
1.54838e-49
1.58167e-49
1.55167e-49
1.5545e-49
1.56598e-49
1.53459e-49
1.56925e-49
1.5679e-49
1.36779e-49
1.39849e-49
1.39429e-49
1.37845e-49
1.3716e-49
1.40645e-49
1.38435e-49
1.3934e-49
1.38762e-49
1.36863e-49
1.37972e-49
1.40005e-49
1.38085e-49
1.41379e-49
1.38342e-49
1.40026e-49
1.39972e-49
1.39257e-49
1.40144e-49
1.40943e-49
1.42335e-49
1.42415e-49
1.43121e-49
1.43965e-49
1.43787e-49
1.43783e-49
1.41319e-49
1.44847e-49
1.4509e-49
1.4249e-49
1.44555e-49
1.45623e-49
1.41593e-49
1.45864e-49
1.45675e-49
1.4732e-49
1.44813e-49
1.44918e-49
1.43693e-49
1.45855e-49
8.21828e-50
8.29417e-50
8.30565e-50
8.21156e-50
8.25947e-50
8.24664e-50
8.25112e-50
8.28651e-50
8.17832e-50
8.33094e-50
8.16345e-50
8.32991e-50
8.18853e-50
8.41648e-50
8.20827e-50
8.22151e-50
8.21677e-50
8.36308e-50
8.26344e-50
8.40389e-50
2.10243e-61
2.10568e-61
2.1185e-61
2.09832e-61
2.08971e-61
2.12517e-61
2.11494e-61
2.07386e-61
2.08888e-61
2.14285e-61
2.10322e-61
2.13378e-61
2.11869e-61
2.14022e-61
2.09256e-61
2.14904e-61
2.08961e-61
2.11019e-61
2.0974e-61
2.0387e-61
5.93544e-59
5.94842e-59
5.98381e-59
5.92736e-59
5.90179e-59
6.00226e-59
5.97327e-59
5.85787e-59
5.90029e-59
6.052e-59
5.94065e-59
6.02551e-59
5.98528e-59
6.0445e-59
5.91118e-59
6.06908e-59
5.90374e-59
5.96106e-59
5.92481e-59
5.75703e-59
8.336e-57
8.3595e-57
8.40805e-57
8.32945e-57
8.29181e-57
8.43336e-57
8.39255e-57
8.23129e-57