/*--------------------------------*- C++ -*----------------------------------*\
| =========                 |                                                 |
| \\      /  F ield         | OpenFOAM: The Open Source CFD Toolbox           |
|  \\    /   O peration     | Version:  2212                                  |
|   \\  /    A nd           | Website:  www.openfoam.com                      |
|    \\/     M anipulation  |                                                 |
\*---------------------------------------------------------------------------*/
FoamFile
{
    version     2.0;
    format      ascii;
    arch        "LSB;label=32;scalar=64";
    class       surfaceScalarField;
    location    "0.000195";
    object      phi;
}
// * * * * * * * * * * * * * * * * * * * * * * * * * * * * * * * * * * * * * //

dimensions      [1 0 -1 0 0 0 0];

oriented        oriented;

internalField   nonuniform List<scalar> 
68983
(
-1.02951e-08
8.48012e-09
2.0891e-09
-1.2184e-08
2.13121e-09
-1.29313e-08
9.70487e-10
-1.35722e-08
8.13265e-10
-1.3511e-08
4.86343e-10
-1.25485e-08
2.32101e-10
-1.12579e-08
1.09853e-10
-9.75555e-09
-9.40181e-12
-8.28034e-09
-1.19736e-10
-7.07224e-09
-3.56676e-10
-5.72084e-09
-5.02481e-10
-3.60493e-09
-4.99652e-10
-9.95049e-10
-2.56544e-10
1.47457e-09
-5.01401e-10
3.87869e-09
-6.6199e-10
6.45784e-09
-7.98699e-10
8.83667e-09
-7.37231e-10
1.04465e-08
-8.54128e-10
1.16661e-08
-9.44054e-10
1.27459e-08
-7.56286e-10
1.36683e-08
-7.33596e-10
1.42559e-08
-7.16128e-10
1.46248e-08
-6.51077e-10
1.46745e-08
-6.29449e-10
1.4405e-08
-7.83609e-10
1.40566e-08
-7.78638e-10
1.3463e-08
-6.69571e-10
1.2605e-08
-6.53407e-10
1.17253e-08
-5.92781e-10
1.06605e-08
-5.31252e-10
9.40062e-09
-5.6053e-10
8.13256e-09
-5.49012e-10
6.77603e-09
-5.20628e-10
5.32656e-09
-5.39465e-10
3.83895e-09
-5.24038e-10
2.36251e-09
-4.71144e-10
8.92192e-10
-4.49234e-10
-5.88813e-10
-4.65429e-10
-2.127e-09
-4.42058e-10
-3.71303e-09
-3.91978e-10
-5.27936e-09
-3.27255e-10
-6.77586e-09
-3.00946e-10
-8.25239e-09
-2.85826e-10
-9.7305e-09
-2.50638e-10
-1.12798e-08
-2.4324e-10
-1.2863e-08
-2.69128e-10
-1.44374e-08
-2.52089e-10
-1.60479e-08
-2.42253e-10
-1.76221e-08
-2.29632e-10
-1.91552e-08
-2.2675e-10
-2.06601e-08
-2.35079e-10
-2.21076e-08
-2.24209e-10
-2.35114e-08
-1.97434e-10
-2.483e-08
-1.64257e-10
-2.6028e-08
-1.25209e-10
-2.71454e-08
-1.17984e-10
-2.81585e-08
-9.6856e-11
-2.90524e-08
-6.48307e-11
-2.98114e-08
-6.87017e-11
-3.04199e-08
-9.6151e-11
-3.09409e-08
-8.38791e-11
-3.14098e-08
-5.45836e-11
-3.18211e-08
-3.94696e-11
-3.21635e-08
-2.94859e-11
-3.24727e-08
-1.38048e-11
-3.27448e-08
-1.21634e-11
-3.29834e-08
1.59489e-11
-3.31993e-08
2.1121e-11
-3.33365e-08
-1.15801e-11
-3.3446e-08
-1.5921e-11
-3.35312e-08
-2.9361e-11
-3.35605e-08
-6.7451e-11
-3.35472e-08
-8.26677e-11
-3.3883e-08
2.87186e-10
-3.59959e-08
2.08668e-09
-4.49941e-08
8.97876e-09
-6.09498e-08
1.59408e-08
1.06562e-08
-1.09372e-08
1.77849e-08
-6.6728e-09
-2.21753e-09
-1.39158e-07
1.59949e-07
-2.09671e-08
-2.487e-07
1.09059e-07
-2.30162e-07
-1.91395e-08
-2.20256e-07
-1.03448e-08
-2.08753e-07
-1.15145e-08
-1.92786e-07
-1.61853e-08
-1.75891e-07
-1.7064e-08
-1.63189e-07
-1.32876e-08
-1.50228e-07
-1.3952e-08
-1.40164e-07
-1.10522e-08
-1.29843e-07
-1.12001e-08
-1.2158e-07
-8.96644e-09
-1.13629e-07
-8.6605e-09
-1.06714e-07
-7.46042e-09
-9.97111e-08
-7.41201e-09
-9.30584e-08
-6.90367e-09
-8.67971e-08
-6.53964e-09
-8.12323e-08
-5.93211e-09
-7.64769e-08
-5.25912e-09
-7.19073e-08
-5.0447e-09
-6.76273e-08
-4.71834e-09
-6.35626e-08
-4.48864e-09
-6.05852e-08
-3.42971e-09
-5.743e-08
-3.67508e-09
-5.45561e-08
-3.28341e-09
-5.19612e-08
-3.00448e-09
-4.93994e-08
-2.92161e-09
-4.70176e-08
-2.69264e-09
-4.51277e-08
-2.26777e-09
-4.33019e-08
-2.16638e-09
-4.15873e-08
-2.0763e-09
-3.99131e-08
-1.99238e-09
-3.83955e-08
-1.78891e-09
-3.69219e-08
-1.69839e-09
-3.55588e-08
-1.52612e-09
-3.43089e-08
-1.38448e-09
-3.30867e-08
-1.31567e-09
-3.20496e-08
-1.12912e-09
-3.09141e-08
-1.20414e-09
-2.99357e-08
-1.04439e-09
-2.9033e-08
-1.01541e-09
-2.82085e-08
-1.01593e-09
-2.75558e-08
-9.01311e-10
-2.69846e-08
-8.79591e-10
-2.64298e-08
-8.7206e-10
-2.60679e-08
-6.47188e-10
-2.58387e-08
-4.25793e-10
-2.54615e-08
-4.88369e-10
-2.3667e-08
-1.77736e-09
-5.76524e-09
5.6539e-08
1.033e-07
6.87318e-08
-1.22288e-08
1.52948e-07
-8.41523e-08
1.34586e-07
1.81994e-08
1.12205e-07
2.22562e-08
9.32645e-08
1.88313e-08
7.59055e-08
1.72906e-08
6.10293e-08
1.48205e-08
4.79879e-08
1.2977e-08
3.71487e-08
1.08016e-08
2.92419e-08
7.88579e-09
2.36327e-08
5.59e-09
1.95043e-08
4.1326e-09
1.64692e-08
3.00845e-09
1.41451e-08
2.34492e-09
1.23282e-08
1.7288e-09
1.07617e-08
1.64385e-09
9.54577e-09
1.09135e-09
8.38792e-09
1.29328e-09
7.37676e-09
7.51876e-10
6.65249e-09
1.06558e-09
5.88951e-09
3.93378e-10
5.203e-09
7.93506e-10
4.91267e-09
3.42391e-10
4.32598e-09
6.12066e-10
4.02004e-09
3.36699e-11
3.5314e-09
3.87858e-10
3.34041e-09
1.99433e-10
2.99198e-09
5.06325e-10
2.8715e-09
2.60482e-10
2.56417e-09
2.72626e-10
2.43769e-09
4.77148e-11
2.20273e-09
2.07332e-10
2.09751e-09
-5.61474e-12
1.88578e-09
1.68984e-10
1.83414e-09
3.81036e-10
1.73967e-09
9.62495e-11
1.59859e-09
1.03059e-10
1.45666e-09
1.53856e-11
1.27584e-09
2.10703e-10
1.14609e-09
3.00271e-10
1.12493e-09
6.72505e-10
1.01464e-09
2.60962e-09
1.21858e-09
2.35264e-09
1.31393e-09
1.59141e-09
1.2407e-09
1.91263e-09
1.24645e-09
2.35101e-09
1.52101e-09
2.09464e-09
1.34466e-09
7.25362e-10
1.13382e-09
3.85715e-10
1.05383e-09
4.27097e-10
1.07969e-09
2.42753e-10
1.07457e-09
2.16439e-10
9.85654e-10
6.30256e-10
9.87057e-10
3.91664e-10
8.26047e-10
-1.21491e-10
7.63888e-10
4.37204e-10
7.56615e-10
7.10236e-10
9.00643e-10
1.15312e-09
8.17994e-10
1.09724e-10
7.1047e-10
-4.46269e-10
5.59124e-10
-6.87745e-10
3.63768e-10
2.51797e-10
2.18086e-10
4.27295e-10
9.17392e-11
7.93324e-10
1.00953e-10
1.57669e-09
3.33341e-10
1.66708e-09
6.5929e-10
1.20492e-09
8.80526e-10
9.52336e-10
9.97854e-10
1.05242e-09
1.03672e-09
1.13433e-09
9.5416e-10
1.20137e-09
9.15446e-10
1.23317e-09
9.13567e-10
1.33209e-09
1.01324e-09
1.32878e-09
1.09839e-09
1.1018e-09
1.21538e-09
8.77609e-10
1.37421e-09
3.20731e-11
1.30104e-09
-8.7698e-10
1.28342e-09
-4.83212e-10
1.20167e-09
-2.62643e-10
1.12059e-09
-2.14036e-10
1.06447e-09
-1.4975e-10
1.03707e-09
-8.60083e-11
1.02483e-09
-7.58895e-12
1.03543e-09
5.70935e-11
1.04283e-09
1.28277e-10
1.03782e-09
2.13573e-10
1.01101e-09
2.79461e-10
9.6462e-10
3.87705e-10
9.37122e-10
5.01245e-10
9.33762e-10
5.55726e-10
9.46765e-10
5.58611e-10
9.81767e-10
5.42947e-10
1.04229e-09
4.83051e-10
1.13208e-09
2.81774e-10
1.0609e-09
5.53307e-11
1.05355e-09
1.49534e-10
1.04081e-09
1.45156e-10
1.01362e-09
1.92018e-10
9.89837e-10
2.49587e-10
9.67759e-10
3.04275e-10
9.51319e-10
3.42653e-10
9.372e-10
3.79979e-10
9.3142e-10
4.22551e-10
9.45297e-10
4.81836e-10
9.70641e-10
5.55442e-10
1.0215e-09
6.34884e-10
1.09291e-09
7.03182e-10
1.17457e-09
7.44413e-10
1.25862e-09
7.6721e-10
1.34487e-09
7.76588e-10
1.43451e-09
7.98576e-10
1.54642e-09
7.88524e-10
1.68555e-09
7.93991e-10
1.88448e-09
7.62315e-10
2.19264e-09
6.35352e-10
2.5635e-09
5.69143e-10
4.0076e-09
-5.93283e-10
-5.14003e-09
1.01761e-08
1.12257e-07
-1.96506e-07
1.87413e-07
1.16171e-07
-1.62132e-08
2.14057e-07
-1.82076e-07
2.01397e-07
3.09392e-08
1.91228e-07
3.23785e-08
1.73405e-07
3.65517e-08
1.46873e-07
4.37176e-08
1.21131e-07
4.04648e-08
1.01805e-07
3.21837e-08
8.49207e-08
2.76492e-08
6.9894e-08
2.28658e-08
5.91221e-08
1.63185e-08
5.06653e-08
1.25907e-08
4.40114e-08
9.62059e-09
3.85637e-08
7.82768e-09
3.40632e-08
6.13256e-09
3.00595e-08
5.74304e-09
2.69047e-08
4.10077e-09
2.37641e-08
4.60049e-09
2.11597e-08
3.07408e-09
1.91664e-08
3.4311e-09
1.69998e-08
2.17134e-09
1.53468e-08
2.56793e-09
1.41508e-08
1.55937e-09
1.28717e-08
1.89716e-09
1.18681e-08
9.16476e-10
1.06358e-08
1.38954e-09
9.85834e-09
9.63106e-10
9.06007e-09
1.44842e-09
8.47806e-09
9.62504e-10
7.80556e-09
9.3753e-10
7.32881e-09
4.82719e-10
6.74219e-09
7.39584e-10
6.32895e-09
3.0949e-10
5.82219e-09
5.9497e-10
5.62258e-09
9.11321e-10
5.30876e-09
4.21301e-10
4.93276e-09
4.58913e-10
4.51607e-09
3.07015e-10
4.06729e-09
6.74986e-10
3.68777e-09
8.34787e-10
3.66282e-09
1.25489e-09
3.37835e-09
5.11701e-09
3.63634e-09
4.56564e-09
3.8177e-09
3.384e-09
3.7863e-09
3.82288e-09
3.86842e-09
4.63227e-09
4.31293e-09
3.83523e-09
3.86254e-09
2.05602e-09
3.3634e-09
1.09572e-09
3.16497e-09
1.03854e-09
3.16409e-09
5.61803e-10
3.07324e-09
5.44805e-10
2.83769e-09
1.38658e-09
2.76426e-09
8.57891e-10
2.43274e-09
-1.85314e-11
2.29905e-09
9.33373e-10
2.19419e-09
1.54377e-09
2.36939e-09
2.22664e-09
1.99972e-09
5.81762e-10
1.78594e-09
-7.39754e-10
1.50036e-09
-1.19888e-09
1.16496e-09
6.07625e-10
8.76784e-10
1.02568e-09
6.62283e-10
1.67786e-09
8.08948e-10
2.98607e-09
1.43072e-09
3.01293e-09
2.21686e-09
2.00637e-09
2.76074e-09
1.63516e-09
3.07672e-09
1.94892e-09
3.17686e-09
2.23612e-09
2.99337e-09
2.55375e-09
2.91534e-09
2.55701e-09
2.95524e-09
2.63224e-09
3.22037e-09
2.56395e-09
3.4113e-09
2.09837e-09
3.65295e-09
1.4969e-09
3.94317e-09
7.21593e-11
3.73803e-09
-1.29332e-09
3.62345e-09
-9.95443e-10
3.42694e-09
-4.35769e-10
3.25686e-09
-3.47585e-10
3.14791e-09
-2.53877e-10
3.0998e-09
-1.52716e-10
3.09058e-09
-2.23089e-11
3.12709e-09
8.92951e-11
3.15419e-09
2.40564e-10
3.14478e-09
4.38279e-10
3.08363e-09
6.0139e-10
2.99669e-09
8.28167e-10
2.94979e-09
1.04027e-09
2.94816e-09
1.13191e-09
2.98018e-09
1.12036e-09
3.05994e-09
1.06184e-09
3.19348e-09
9.27255e-10
3.33689e-09
5.38429e-10
3.14489e-09
2.12147e-10
3.11909e-09
3.22988e-10
3.08198e-09
3.22122e-10
3.02209e-09
4.23996e-10
2.96913e-09
5.3767e-10
2.92058e-09
6.4671e-10
2.88428e-09
7.19168e-10
2.85608e-09
7.90214e-10
2.85534e-09
8.58687e-10
2.89929e-09
9.55012e-10
2.984e-09
1.07674e-09
3.1303e-09
1.20097e-09
3.33245e-09
1.30869e-09
3.56655e-09
1.37226e-09
3.80753e-09
1.4151e-09
4.06014e-09
1.4248e-09
4.31986e-09
1.46679e-09
4.64701e-09
1.40239e-09
5.02597e-09
1.38965e-09
5.56809e-09
1.22252e-09
6.33012e-09
8.59577e-10
7.25876e-09
6.25185e-10
1.03328e-08
-2.77435e-09
-9.48376e-09
1.56813e-08
-1.76196e-07
-4.14143e-08
-2.61388e-07
1.93576e-07
-2.31779e-07
-4.92213e-08
-2.29582e-07
-1.27787e-08
-2.20316e-07
-2.06575e-08
-2.08602e-07
-2.8168e-08
-1.95252e-07
-3.06073e-08
-1.85175e-07
-2.40439e-08
-1.75226e-07
-2.48946e-08
-1.6695e-07
-2.02935e-08
-1.58849e-07
-2.01524e-08
-1.5185e-07
-1.66854e-08
-1.45155e-07
-1.60801e-08
-1.38567e-07
-1.46227e-08
-1.32281e-07
-1.40885e-08
-1.26181e-07
-1.32653e-08
-1.21297e-07
-1.17124e-08
-1.16447e-07
-1.11618e-08
-1.12525e-07
-9.70197e-09
-1.07857e-07
-1.01943e-08
-1.04463e-07
-8.56696e-09
-1.00348e-07
-9.03808e-09
-9.70958e-08
-7.13965e-09
-9.38438e-08
-7.45505e-09
-9.08228e-08
-6.72524e-09
-8.78788e-08
-6.37297e-09
-8.51382e-08
-6.03513e-09
-8.24896e-08
-5.66896e-09
-8.05123e-08
-4.63499e-09
-7.81622e-08
-4.87023e-09
-7.59785e-08
-4.63374e-09
-7.36432e-08
-4.65741e-09
-7.1622e-08
-4.09152e-09
-6.9577e-08
-3.97726e-09
-6.78997e-08
-3.37389e-09
-6.61914e-08
-3.23303e-09
-6.45244e-08
-3.08158e-09
-6.29937e-08
-2.75656e-09
-6.12894e-08
-2.9808e-09
-5.98486e-08
-2.55474e-09
-5.84393e-08
-2.54519e-09
-5.70028e-08
-2.64736e-09
-5.57826e-08
-2.37899e-09
-5.46167e-08
-2.36623e-09
-5.33349e-08
-2.48321e-09
-5.21702e-08
-2.1083e-09
-5.08353e-08
-1.96544e-09
-4.87206e-08
-2.71886e-09
-4.46395e-08
-5.84876e-09
-3.70525e-08
-1.32344e-08
-3.02035e-08
-1.3341e-08
-2.8879e-08
-3.29215e-09
-3.23425e-08
5.83564e-09
-3.58187e-08
5.85606e-09
-3.76228e-08
3.00873e-09
-3.91692e-08
2.53677e-09
-3.97318e-08
1.61197e-09
-3.92158e-08
9.59543e-10
-3.82707e-08
6.20244e-10
-3.70708e-08
3.41217e-10
-3.58734e-08
8.20008e-11
-3.50235e-08
-3.2394e-10
-3.41364e-08
-5.23508e-10
-3.24353e-08
-5.1757e-10
-3.00653e-08
-1.7815e-10
-2.80103e-08
-5.14443e-10
-2.60528e-08
-8.13298e-10
-2.39262e-08
-1.07806e-09
-2.19554e-08
-9.99699e-10
-2.08789e-08
-1.14646e-09
-2.02741e-08
-1.26021e-09
-1.97534e-08
-9.33941e-10
-1.94793e-08
-8.22387e-10
-1.9524e-08
-8.01328e-10
-1.9801e-08
-6.71423e-10
-2.03422e-08
-6.90193e-10
-2.1214e-08
-9.84873e-10
-2.22146e-08
-9.42001e-10
-2.34614e-08
-7.39146e-10
-2.49315e-08
-7.51393e-10
-2.64122e-08
-6.42517e-10
-2.80741e-08
-5.26377e-10
-2.99507e-08
-5.7627e-10
-3.18322e-08
-5.5582e-10
-3.37875e-08
-5.20622e-10
-3.58563e-08
-5.3575e-10
-3.79253e-08
-5.42482e-10
-3.99384e-08
-4.79304e-10
-4.18944e-08
-4.86395e-10
-4.3846e-08
-5.32975e-10
-4.58343e-08
-5.09178e-10
-4.78911e-08
-3.87509e-10
-4.98733e-08
-3.12279e-10
-5.17639e-08
-2.76019e-10
-5.36271e-08
-2.51109e-10
-5.54712e-08
-2.04589e-10
-5.73904e-08
-1.821e-10
-5.93453e-08
-2.35677e-10
-6.1285e-08
-2.07812e-10
-6.3235e-08
-2.14171e-10
-6.50905e-08
-2.41e-10
-6.68275e-08
-3.15914e-10
-6.85303e-08
-3.37182e-10
-7.01835e-08
-3.0582e-10
-7.17895e-08
-2.52568e-10
-7.3298e-08
-1.93085e-10
-7.4676e-08
-1.19603e-10
-7.59765e-08
-9.81481e-11
-7.71576e-08
-6.71122e-11
-7.81716e-08
-4.50511e-11
-7.89979e-08
-1.00735e-10
-7.96495e-08
-1.74662e-10
-8.02245e-08
-1.35421e-10
-8.07462e-08
-7.54202e-11
-8.12089e-08
-4.30542e-11
-8.16007e-08
-2.28624e-11
-8.19593e-08
1.06795e-11
-8.22937e-08
3.0261e-11
-8.25877e-08
7.98335e-11
-8.28435e-08
7.63694e-11
-8.2996e-08
-1.22095e-11
-8.31111e-08
-3.06219e-11
-8.32012e-08
-5.66807e-11
-8.3256e-08
-1.10906e-10
-8.33011e-08
-1.07003e-10
-8.37168e-08
6.56137e-10
-8.57318e-08
4.07768e-09
-9.14569e-08
1.46828e-08
-9.74577e-08
2.19259e-08
1.41729e-08
-4.99826e-08
4.66676e-08
9.44286e-09
-5.28697e-08
9.00719e-09
-5.46642e-08
5.05177e-09
-5.62844e-08
4.33688e-09
-5.68717e-08
2.77058e-09
-5.64562e-08
1.83594e-09
-5.55926e-08
1.25428e-09
-5.44817e-08
8.39858e-10
-5.34075e-08
4.60736e-10
-5.27079e-08
-1.06007e-10
-5.19789e-08
-3.65743e-10
-5.04331e-08
-3.14858e-10
-4.81554e-08
8.343e-11
-4.61826e-08
-3.3921e-10
-4.43179e-08
-8.04463e-10
-4.2313e-08
-1.17783e-09
-4.04249e-08
-1.11702e-09
-3.9453e-08
-1.30228e-09
-3.89992e-08
-1.40842e-09
-3.86064e-08
-9.62663e-10
-3.84667e-08
-7.87572e-10
-3.86501e-08
-7.4602e-10
-3.9019e-08
-6.15573e-10
-3.96774e-08
-6.53121e-10
-4.07111e-08
-1.05563e-09
-4.18834e-08
-9.65529e-10
-4.32723e-08
-7.17876e-10
-4.48812e-08
-7.66716e-10
-4.64933e-08
-6.12515e-10
-4.83059e-08
-4.51847e-10
-5.03435e-08
-5.02818e-10
-5.23878e-08
-4.90902e-10
-5.45052e-08
-4.4901e-10
-5.6726e-08
-4.56e-10
-5.89115e-08
-5.21163e-10
-6.10261e-08
-4.60612e-10
-6.30967e-08
-4.81965e-10
-6.51761e-08
-5.57406e-10
-6.73043e-08
-5.13011e-10
-6.94793e-08
-3.39754e-10
-7.15652e-08
-2.68433e-10
-7.35607e-08
-2.16246e-10
-7.55325e-08
-1.75546e-10
-7.74878e-08
-1.08912e-10
-7.95298e-08
-8.51161e-11
-8.16129e-08
-1.39268e-10
-8.36649e-08
-1.21632e-10
-8.56929e-08
-1.71114e-10
-8.76064e-08
-2.62854e-10
-8.94076e-08
-4.0712e-10
-9.11907e-08
-4.3447e-10
-9.29318e-08
-3.62497e-10
-9.4626e-08
-2.76399e-10
-9.62249e-08
-1.89151e-10
-9.76924e-08
-7.61683e-11
-9.90759e-08
-4.18941e-11
-1.00309e-07
-2.94899e-11
-1.01343e-07
-4.44159e-11
-1.0218e-07
-1.53899e-10
-1.02852e-07
-2.56509e-10
-1.03457e-07
-1.79749e-10
-1.04e-07
-9.54784e-11
-1.04478e-07
-4.73611e-11
-1.04891e-07
-8.93116e-12
-1.05281e-07
5.45473e-11
-1.05652e-07
9.92967e-11
-1.05954e-07
1.43192e-10
-1.06204e-07
1.19839e-10
-1.06372e-07
-1.72891e-12
-1.06517e-07
-2.09611e-11
-1.06643e-07
-5.13983e-11
-1.06738e-07
-1.16532e-10
-1.06804e-07
-1.10617e-10
-1.06973e-07
7.8018e-10
-1.07702e-07
4.78369e-09
-1.08981e-07
1.594e-08
-1.09236e-07
2.2164e-08
1.48829e-08
-4.59632e-08
4.96461e-08
-1.68354e-08
-2.32674e-09
-1.99477e-07
2.02795e-07
-4.48578e-08
-2.53793e-07
2.48185e-07
-2.34359e-07
-6.80747e-08
-2.29199e-07
-1.81295e-08
-2.22372e-07
-2.79942e-08
-2.10331e-07
-4.02636e-08
-1.98948e-07
-4.23974e-08
-1.89145e-07
-3.42382e-08
-1.80081e-07
-3.45867e-08
-1.72439e-07
-2.89099e-08
-1.65084e-07
-2.8315e-08
-1.5854e-07
-2.39608e-08
-1.52455e-07
-2.28966e-08
-1.46429e-07
-2.12384e-08
-1.40875e-07
-2.00545e-08
-1.35616e-07
-1.88815e-08
-1.3139e-07
-1.62646e-08
-1.27152e-07
-1.57952e-08
-1.23629e-07
-1.37555e-08
-1.196e-07
-1.47217e-08
-1.16249e-07
-1.23866e-08
-1.12596e-07
-1.31319e-08
-1.09758e-07
-1.0445e-08
-1.06615e-07
-1.11281e-08
-1.03964e-07
-9.81492e-09
-1.01074e-07
-9.70152e-09
-9.87571e-08
-8.73746e-09
-9.62627e-08
-8.49863e-09
-9.45416e-08
-6.75651e-09
-9.21578e-08
-7.62278e-09
-9.01012e-08
-7.07425e-09
-8.77078e-08
-7.39064e-09
-8.57671e-08
-6.32236e-09
-8.37628e-08
-6.22607e-09
-8.22897e-08
-5.02687e-09
-8.05216e-08
-5.14827e-09
-7.88705e-08
-4.83886e-09
-7.72243e-08
-4.50551e-09
-7.54284e-08
-4.85227e-09
-7.39488e-08
-4.10897e-09
-7.2325e-08
-4.29429e-09
-7.06453e-08
-4.52646e-09
-6.9197e-08
-4.09612e-09
-6.77019e-08
-4.19236e-09
-6.60491e-08
-4.47667e-09
-6.44475e-08
-4.0138e-09
-6.23989e-08
-4.22769e-09
-5.94652e-08
-5.76994e-09
-5.52602e-08
-1.0044e-08
-1.87287e-08
1.53481e-07
2.3645e-07
1.46084e-07
-8.93303e-09
2.24388e-07
-2.60574e-07
2.1835e-07
3.70021e-08
2.15931e-07
3.47555e-08
2.08096e-07
4.42926e-08
1.90352e-07
6.13632e-08
1.72463e-07
5.82415e-08
1.52125e-07
5.24284e-08
1.30924e-07
4.87684e-08
1.1233e-07
4.14128e-08
9.60275e-08
3.25381e-08
8.15854e-08
2.70246e-08
7.00198e-08
2.10937e-08
6.09096e-08
1.70002e-08
5.35117e-08
1.33771e-08
4.76136e-08
1.17953e-08
4.26541e-08
8.80799e-09
3.80261e-08
9.46788e-09
3.40625e-08
6.73127e-09
3.1065e-08
6.82577e-09
2.76853e-08
5.16922e-09
2.52672e-08
5.11718e-09
2.31894e-08
3.63061e-09
2.13571e-08
3.77306e-09
1.97563e-08
2.57489e-09
1.78693e-08
3.00906e-09
1.6501e-08
2.28658e-09
1.53055e-08
2.76758e-09
1.42381e-08
2.14555e-09
1.32606e-08
1.94128e-09
1.24689e-08
1.2545e-09
1.15295e-08
1.61372e-09
1.07715e-08
9.53687e-10
1.00142e-08
1.26168e-09
9.64818e-09
1.60739e-09
9.12569e-09
9.6331e-10
8.52848e-09
1.05805e-09
7.87945e-09
8.47416e-10
7.19989e-09
1.35745e-09
6.52827e-09
1.64306e-09
6.40547e-09
1.78666e-09
6.18077e-09
7.09685e-09
6.18983e-09
6.79549e-09
6.26574e-09
5.44986e-09
6.3417e-09
5.61789e-09
6.58257e-09
6.74261e-09
6.95402e-09
5.52565e-09
6.43968e-09
3.79008e-09
5.67153e-09
2.24249e-09
5.36261e-09
1.92091e-09
5.26119e-09
1.08059e-09
5.04031e-09
1.05736e-09
4.65527e-09
2.24388e-09
4.38031e-09
1.53173e-09
4.05658e-09
2.10683e-10
3.82227e-09
1.51228e-09
3.61282e-09
2.47927e-09
3.6703e-09
3.26684e-09
3.04261e-09
1.39757e-09
2.85217e-09
-9.55883e-10
2.53411e-09
-1.54235e-09
2.15473e-09
9.77461e-10
1.82692e-09
1.72624e-09
1.61227e-09
2.56222e-09
1.92975e-09
4.17995e-09
2.84254e-09
4.11006e-09
3.96026e-09
2.52776e-09
4.76499e-09
2.11088e-09
5.24673e-09
2.71846e-09
5.40401e-09
3.29928e-09
5.17532e-09
3.99048e-09
5.06993e-09
3.96256e-09
5.17521e-09
3.90774e-09
5.55543e-09
3.72036e-09
5.80761e-09
2.93766e-09
6.13504e-09
1.89101e-09
6.4108e-09
2.0836e-10
6.28396e-09
-1.19486e-09
5.96436e-09
-1.47567e-09
5.67675e-09
-5.56156e-10
5.45482e-09
-4.34713e-10
5.32479e-09
-3.38306e-10
5.27819e-09
-2.25419e-10
5.28584e-09
-5.11325e-11
5.35201e-09
9.40092e-11
5.40193e-09
3.34394e-10
5.39574e-09
6.62935e-10
5.31764e-09
9.4729e-10
5.21061e-09
1.30132e-09
5.15401e-09
1.60857e-09
5.14959e-09
1.73376e-09
5.18837e-09
1.69965e-09
5.287e-09
1.58243e-09
5.46592e-09
1.35603e-09
5.5887e-09
8.42157e-10
5.33198e-09
4.43062e-10
5.28847e-09
5.19855e-10
5.23452e-09
5.24002e-10
5.15468e-09
6.83375e-10
5.08449e-09
8.52366e-10
5.02174e-09
1.01473e-09
4.97725e-09
1.11766e-09
4.94771e-09
1.21815e-09
4.96118e-09
1.30002e-09
5.03706e-09
1.41803e-09
5.18231e-09
1.56311e-09
5.41524e-09
1.7098e-09
5.73398e-09
1.83124e-09
6.10693e-09
1.89749e-09
6.49442e-09
1.95492e-09
6.90429e-09
1.95477e-09
7.32412e-09
2.01647e-09
7.84752e-09
1.86296e-09
8.42934e-09
1.82842e-09
9.24693e-09
1.45135e-09
1.03191e-08
8.2125e-10
1.16338e-08
3.4806e-10
1.50044e-08
-5.18981e-09
-1.23892e-08
1.89038e-08
1.93378e-07
-2.33711e-07
2.76428e-07
1.77587e-07
6.69742e-09
2.25588e-07
-3.08921e-07
2.25534e-07
3.69105e-08
2.21041e-07
3.91053e-08
2.17595e-07
4.76165e-08
2.06553e-07
7.22794e-08
1.94985e-07
6.96975e-08
1.8167e-07
6.56584e-08
1.67528e-07
6.28136e-08
1.5229e-07
5.66072e-08
1.35124e-07
4.96159e-08
1.18449e-07
4.36788e-08
1.04224e-07
3.51947e-08
9.18679e-08
2.95131e-08
8.02295e-08
2.47203e-08
7.05152e-08
2.17903e-08
6.14562e-08
1.75031e-08
5.40874e-08
1.69607e-08
4.78995e-08
1.27262e-08
4.33622e-08
1.17353e-08
3.86294e-08
9.42213e-09
3.54045e-08
8.537e-09
3.25389e-08
6.52645e-09
2.99373e-08
6.3292e-09
2.75629e-08
4.95976e-09
2.52303e-08
5.21896e-09
2.327e-08
4.1222e-09
2.16974e-08
4.47756e-09
2.01833e-08
3.79056e-09
1.88932e-08
3.2512e-09
1.77876e-08
2.34102e-09
1.65224e-08
2.81987e-09
1.54536e-08
1.91878e-09
1.44198e-08
2.17467e-09
1.38792e-08
2.46887e-09
1.3162e-08
1.73048e-09
1.23512e-08
1.86174e-09
1.1513e-08
1.58854e-09
1.06354e-08
2.228e-09
9.68114e-09
2.73099e-09
9.26743e-09
2.45643e-09
9.37864e-09
8.23534e-09
9.04079e-09
9.04219e-09
8.7519e-09
7.77595e-09
8.85247e-09
7.34762e-09
9.1521e-09
8.53588e-09
9.33343e-09
7.42577e-09
8.8769e-09
5.71559e-09
8.04779e-09
3.79593e-09
7.63682e-09
3.1399e-09
7.38869e-09
1.92575e-09
7.00566e-09
1.82968e-09
6.48109e-09
3.19856e-09
6.08391e-09
2.28999e-09
5.70497e-09
6.67216e-10
5.3462e-09
2.22115e-09
5.01256e-09
3.51072e-09
4.91527e-09
4.23892e-09
4.17979e-09
2.41466e-09
4.01352e-09
-1.04319e-09
3.73692e-09
-1.70674e-09
3.34777e-09
1.32744e-09
3.02745e-09
2.51604e-09
2.84393e-09
3.4445e-09
3.31226e-09
5.06733e-09
4.45483e-09
5.03798e-09
5.83618e-09
2.81619e-09
6.86137e-09
2.41254e-09
7.48601e-09
3.38555e-09
7.68593e-09
4.34422e-09
7.44501e-09
5.45791e-09
7.32363e-09
5.43199e-09
7.50529e-09
5.14882e-09
7.97543e-09
4.79269e-09
8.26896e-09
3.57801e-09
8.65146e-09
2.17366e-09
8.92508e-09
4.43245e-10
8.82011e-09
-9.48076e-10
8.38261e-09
-1.55161e-09
8.01346e-09
-6.3926e-10
7.75563e-09
-4.8441e-10
7.62002e-09
-4.11982e-10
7.58662e-09
-3.08923e-10
7.61969e-09
-1.05504e-10
7.71857e-09
7.00955e-11
7.79368e-09
4.06599e-10
7.7953e-09
8.81228e-10
7.70761e-09
1.30947e-09
7.58826e-09
1.79975e-09
7.52485e-09
2.20486e-09
7.51674e-09
2.36383e-09
7.5566e-09
2.30676e-09
7.66861e-09
2.11133e-09
7.86988e-09
1.77389e-09
7.9535e-09
1.20482e-09
7.6712e-09
7.23364e-10
7.61265e-09
7.34392e-10
7.54826e-09
7.44935e-10
7.45615e-09
9.62178e-10
7.3771e-09
1.18477e-09
7.30935e-09
1.39844e-09
7.26625e-09
1.52797e-09
7.24464e-09
1.65456e-09
7.27846e-09
1.74138e-09
7.38688e-09
1.87101e-09
7.58953e-09
2.01858e-09
7.89843e-09
2.17222e-09
8.31793e-09
2.28569e-09
8.81138e-09
2.33946e-09
9.32993e-09
2.40439e-09
9.88045e-09
2.38448e-09
1.0444e-08
2.4655e-09
1.11371e-08
2.19999e-09
1.18828e-08
2.15249e-09
1.29146e-08
1.51565e-09
1.41721e-08
6.51645e-10
1.57801e-08
-1.59999e-10
1.86646e-08
-7.0398e-09
-1.48618e-08
2.21493e-08
-2.22538e-07
-5.61476e-08
-2.4916e-07
2.74977e-07
-2.33e-07
-8.38258e-08
-2.27483e-07
-2.36004e-08
-2.21621e-07
-3.42846e-08
-2.10185e-07
-5.19347e-08
-1.99593e-07
-5.34146e-08
-1.90386e-07
-4.37946e-08
-1.81802e-07
-4.40159e-08
-1.74561e-07
-3.66176e-08
-1.67581e-07
-3.5834e-08
-1.61383e-07
-3.09109e-08
-1.5566e-07
-2.93681e-08
-1.49888e-07
-2.76318e-08
-1.44588e-07
-2.58182e-08
-1.39493e-07
-2.43408e-08
-1.35472e-07
-2.06333e-08
-1.31439e-07
-2.02717e-08
-1.28087e-07
-1.76496e-08
-1.24225e-07
-1.91152e-08
-1.2102e-07
-1.60747e-08
-1.1754e-07
-1.70579e-08
-1.14792e-07
-1.36562e-08
-1.11789e-07
-1.46642e-08
-1.09229e-07
-1.28344e-08
-1.0648e-07
-1.29067e-08
-1.04381e-07
-1.1233e-08
-1.02086e-07
-1.1138e-08
-1.00431e-07
-8.82296e-09
-9.8118e-08
-1.03169e-08
-9.60449e-08
-9.53938e-09
-9.36622e-08
-1.01211e-08
-9.17941e-08
-8.48909e-09
-8.99482e-08
-8.32814e-09
-8.85926e-08
-6.57264e-09
-8.67954e-08
-7.1031e-09
-8.5246e-08
-6.50353e-09
-8.35277e-08
-6.33377e-09
-8.16553e-08
-6.81178e-09
-8.01588e-08
-5.69065e-09
-7.83799e-08
-6.20576e-09
-7.65506e-08
-6.56047e-09
-7.50168e-08
-5.91102e-09
-7.33244e-08
-6.22796e-09
-7.144e-08
-6.71204e-09
-6.96539e-08
-6.11442e-09
-6.74311e-08
-6.67504e-09
-6.45084e-08
-8.81764e-09
-6.09022e-08
-1.36457e-08
-5.70141e-08
-2.24952e-08
-5.5259e-08
-1.83927e-08
-5.6936e-08
-3.80157e-10
-5.96996e-08
1.25075e-08
-6.16022e-08
1.11921e-08
-6.30987e-08
6.81216e-09
-6.44422e-08
5.86587e-09
-6.4854e-08
3.76049e-09
-6.43668e-08
2.6876e-09
-6.34367e-08
1.88544e-09
-6.22682e-08
1.33836e-09
-6.1139e-08
8.20999e-10
-6.04025e-08
9.23781e-11
-5.96588e-08
-2.13094e-10
-5.80724e-08
-1.0226e-10
-5.57259e-08
3.44382e-10
-5.36803e-08
-1.72206e-10
-5.17233e-08
-8.31825e-10
-4.96641e-08
-1.27761e-09
-4.77236e-08
-1.20763e-09
-4.67218e-08
-1.45594e-09
-4.62728e-08
-1.53573e-09
-4.58729e-08
-9.76914e-10
-4.57225e-08
-7.77113e-10
-4.59193e-08
-6.81504e-10
-4.62875e-08
-5.8507e-10
-4.69348e-08
-6.47831e-10
-4.80035e-08
-1.12648e-09
-4.92336e-08
-9.5499e-10
-5.0687e-08
-6.93124e-10
-5.23494e-08
-7.83072e-10
-5.40065e-08
-5.98548e-10
-5.58722e-08
-3.87307e-10
-5.79778e-08
-4.38372e-10
-6.00979e-08
-4.23542e-10
-6.22991e-08
-3.86556e-10
-6.46025e-08
-3.75001e-10
-6.68544e-08
-5.10015e-10
-6.90269e-08
-4.59905e-10
-7.11403e-08
-5.09865e-10
-7.32788e-08
-6.00348e-10
-7.5482e-08
-5.21397e-10
-7.77431e-08
-2.86336e-10
-7.98983e-08
-2.37445e-10
-8.19595e-08
-1.63844e-10
-8.3998e-08
-1.03554e-10
-8.60199e-08
-2.45234e-11
-8.8134e-08
9.76416e-12
-9.02951e-08
-4.13808e-11
-9.24153e-08
-3.99623e-11
-9.45042e-08
-1.39039e-10
-9.64669e-08
-3.0699e-10
-9.83175e-08
-5.15211e-10
-1.00163e-07
-5.44644e-10
-1.01971e-07
-4.21469e-10
-1.0373e-07
-3.01188e-10
-1.05389e-07
-1.85987e-10
-1.06905e-07
-3.88266e-11
-1.08325e-07
2.70663e-12
-1.09585e-07
-1.24626e-11
-1.10641e-07
-6.24595e-11
-1.11493e-07
-2.26561e-10
-1.12185e-07
-3.47043e-10
-1.12809e-07
-2.31584e-10
-1.13367e-07
-1.20347e-10
-1.13857e-07
-5.7207e-11
-1.14281e-07
-2.93874e-13
-1.14685e-07
9.85355e-11
-1.15066e-07
1.66448e-10
-1.15378e-07
2.07472e-10
-1.15646e-07
1.7189e-10
-1.15815e-07
2.05983e-13
-1.15971e-07
-8.05229e-12
-1.16116e-07
-3.22474e-11
-1.16235e-07
-1.01236e-10
-1.16322e-07
-9.65573e-11
-1.16397e-07
8.09003e-10
-1.1649e-07
4.85431e-09
-1.16404e-07
1.5831e-08
-1.15227e-07
2.09691e-08
1.46468e-08
-6.48262e-08
6.26138e-08
1.50286e-08
-6.61371e-08
1.27969e-08
-6.74701e-08
8.4262e-09
-6.86377e-08
7.23022e-09
-6.89154e-08
4.6347e-09
-6.83182e-08
3.47379e-09
-6.72768e-08
2.44502e-09
-6.60387e-08
1.82016e-09
-6.4866e-08
1.17858e-09
-6.41174e-08
3.2048e-10
-6.33337e-08
-4.09946e-11
-6.16734e-08
1.07358e-10
-5.92224e-08
5.6604e-10
-5.70791e-08
-6.2054e-11
-5.50578e-08
-8.54836e-10
-5.29025e-08
-1.41762e-09
-5.08871e-08
-1.30656e-09
-4.98309e-08
-1.631e-09
-4.93356e-08
-1.69403e-09
-4.89211e-08
-9.869e-10
-4.87636e-08
-7.81235e-10
-4.89405e-08
-6.48685e-10
-4.93111e-08
-5.72481e-10
-5.00011e-08
-6.18686e-10
-5.10964e-08
-1.19313e-09
-5.23623e-08
-9.39969e-10
-5.38344e-08
-7.12043e-10
-5.55227e-08
-8.31604e-10
-5.7235e-08
-5.77918e-10
-5.91849e-08
-3.05657e-10
-6.13734e-08
-3.65824e-10
-6.35602e-08
-3.73025e-10
-6.5827e-08
-3.43688e-10
-6.82037e-08
-2.8891e-10
-7.05113e-08
-5.2255e-10
-7.27354e-08
-4.85901e-10
-7.49371e-08
-5.27279e-10
-7.71505e-08
-6.49794e-10
-7.94399e-08
-5.25741e-10
-8.17566e-08
-2.52198e-10
-8.3963e-08
-2.36308e-10
-8.60777e-08
-1.32175e-10
-8.81793e-08
-3.88657e-11
-9.02708e-08
4.25858e-11
-9.2455e-08
1.00192e-10
-9.46817e-08
4.36624e-11
-9.6888e-08
5.19948e-11
-9.90629e-08
-1.07496e-10
-1.01085e-07
-3.66191e-10
-1.02982e-07
-6.52769e-10
-1.04875e-07
-6.82717e-10
-1.06745e-07
-4.84283e-10
-1.08561e-07
-3.24986e-10
-1.10271e-07
-1.92527e-10
-1.11846e-07
9.45098e-13
-1.13338e-07
7.36107e-11
-1.14661e-07
2.34605e-11
-1.15748e-07
-9.29514e-11
-1.16611e-07
-3.26625e-10
-1.17306e-07
-4.63747e-10
-1.17947e-07
-2.89548e-10
-1.18522e-07
-1.51765e-10
-1.19022e-07
-7.45073e-11
-1.19458e-07
4.46591e-12
-1.19883e-07
1.49808e-10
-1.20279e-07
2.37516e-10
-1.20592e-07
2.60755e-10
-1.20841e-07
1.96137e-10
-1.21018e-07
5.40566e-12
-1.21191e-07
1.37035e-11
-1.21367e-07
1.48862e-11
-1.21529e-07
-4.69018e-11
-1.21664e-07
-3.7728e-11
-1.21733e-07
8.29911e-10
-1.21686e-07
4.78429e-09
-1.2115e-07
1.52707e-08
-1.19766e-07
1.95663e-08
1.42289e-08
-6.08903e-08
6.18004e-08
-1.90963e-08
1.62136e-09
-2.44741e-07
2.60483e-07
-7.18947e-08
-2.41312e-07
2.71454e-07
-2.34075e-07
-9.08071e-08
-2.2289e-07
-3.48092e-08
-2.1912e-07
-3.85585e-08
-2.08047e-07
-6.38142e-08
-1.98741e-07
-6.33394e-08
-1.9011e-07
-5.29166e-08
-1.82268e-07
-5.20127e-08
-1.75396e-07
-4.3985e-08
-1.69019e-07
-4.27104e-08
-1.62991e-07
-3.76749e-08
-1.57664e-07
-3.5443e-08
-1.51993e-07
-3.39379e-08
-1.46878e-07
-3.13927e-08
-1.41891e-07
-2.97955e-08
-1.38049e-07
-2.48891e-08
-1.34277e-07
-2.45336e-08
-1.31027e-07
-2.14575e-08
-1.27187e-07
-2.34939e-08
-1.24124e-07
-1.96327e-08
-1.20785e-07
-2.08506e-08
-1.1803e-07
-1.68805e-08
-1.1515e-07
-1.80555e-08
-1.12627e-07
-1.58307e-08
-1.09886e-07
-1.61218e-08
-1.07809e-07
-1.37253e-08
-1.05642e-07
-1.36633e-08
-1.04036e-07
-1.08563e-08
-1.01712e-07
-1.30315e-08
-9.95999e-08
-1.20448e-08
-9.72367e-08
-1.28375e-08
-9.53681e-08
-1.06629e-08
-9.35201e-08
-1.04434e-08
-9.22278e-08
-8.06844e-09
-9.04549e-08
-9.0474e-09
-8.8885e-08
-8.20015e-09
-8.7138e-08
-8.19896e-09
-8.5217e-08
-8.83216e-09
-8.37191e-08
-7.2865e-09
-8.18851e-08
-8.18054e-09
-7.99539e-08
-8.70207e-09
-7.83665e-08
-7.79317e-09
-7.65903e-08
-8.35391e-09
-7.45942e-08
-9.06728e-09
-7.27646e-08
-8.26548e-09
-7.05731e-08
-9.09748e-09
-6.78042e-08
-1.17092e-08
-6.46812e-08
-1.67684e-08
-2.52543e-08
2.3393e-07
3.02632e-07
2.11383e-07
2.91209e-08
2.27588e-07
-3.25144e-07
2.25815e-07
3.84581e-08
2.21932e-07
4.27754e-08
2.18787e-07
5.06254e-08
2.09329e-07
8.16194e-08
2.00243e-07
7.8674e-08
1.90945e-07
7.48825e-08
1.81067e-07
7.25901e-08
1.70442e-07
6.71941e-08
1.58517e-07
6.14504e-08
1.46797e-07
5.5391e-08
1.34087e-07
4.77721e-08
1.21044e-07
4.26318e-08
1.09546e-07
3.59454e-08
9.87184e-08
3.28854e-08
8.69633e-08
2.88858e-08
7.69017e-08
2.67102e-08
6.75564e-08
2.2182e-08
6.00803e-08
1.98965e-08
5.2677e-08
1.61205e-08
4.76878e-08
1.37713e-08
4.34033e-08
1.09096e-08
3.95058e-08
1.02233e-08
3.59939e-08
8.37574e-09
3.31677e-08
7.9766e-09
3.06106e-08
6.59232e-09
2.84648e-08
6.57129e-09
2.65475e-08
5.7794e-09
2.48371e-08
5.04233e-09
2.33164e-08
3.87687e-09
2.17755e-08
4.27774e-09
2.03894e-08
3.21492e-09
1.90622e-08
3.34729e-09
1.83248e-08
3.52459e-09
1.74199e-08
2.75654e-09
1.63964e-08
2.86988e-09
1.5378e-08
2.51314e-09
1.43349e-08
3.23891e-09
1.31059e-08
4.10086e-09
1.22094e-08