/*--------------------------------*- C++ -*----------------------------------*\
| =========                 |                                                 |
| \\      /  F ield         | OpenFOAM: The Open Source CFD Toolbox           |
|  \\    /   O peration     | Version:  2212                                  |
|   \\  /    A nd           | Website:  www.openfoam.com                      |
|    \\/     M anipulation  |                                                 |
\*---------------------------------------------------------------------------*/
FoamFile
{
    version     2.0;
    format      ascii;
    arch        "LSB;label=32;scalar=64";
    class       surfaceScalarField;
    location    "0.458";
    object      phi;
}
// * * * * * * * * * * * * * * * * * * * * * * * * * * * * * * * * * * * * * //

dimensions      [0 3 -1 0 0 0 0];

oriented        oriented;

internalField   nonuniform List<scalar> 
69808
(
-1.53848e-07
0.000242136
-1.84262
-3.57122e-07
0.000242557
-1.84268
-4.07486e-07
0.000242299
-1.84268
-5.05534e-07
0.00024217
-1.84268
-5.57682e-07
0.000241938
-1.84268
-6.16535e-07
0.000241709
-1.84268
-6.50998e-07
0.000241431
-1.84268
-6.75697e-07
0.000241147
-1.84268
-6.80636e-07
0.000240844
-1.84268
-6.69705e-07
0.000240545
-1.84268
-6.40851e-07
0.000240247
-1.84268
-5.96453e-07
0.000239967
-1.84268
-5.39596e-07
0.000239708
-1.84268
-4.6473e-07
0.000239474
-1.84268
-3.90268e-07
0.000239281
-1.84268
-2.84614e-07
0.000239103
-1.84268
-2.08061e-07
0.000238999
-1.84268
-6.44543e-08
0.000238869
-1.84268
-6.26339e-08
0.000238946
-1.84269
0.000238447
-1.84263
-5.12578e-07
0.00382807
-1.84674
-7.41096e-07
0.00382852
-1.8468
-9.98746e-07
0.00382824
-1.8468
-1.23379e-06
0.003828
-1.8468
-1.42936e-06
0.00382763
-1.8468
-1.58474e-06
0.00382724
-1.8468
-1.69129e-06
0.00382679
-1.8468
-1.7488e-06
0.00382632
-1.8468
-1.7588e-06
0.00382584
-1.8468
-1.72106e-06
0.00382536
-1.8468
-1.64541e-06
0.0038249
-1.8468
-1.53077e-06
0.00382446
-1.8468
-1.38748e-06
0.00382407
-1.8468
-1.21613e-06
0.00382372
-1.8468
-1.0283e-06
0.00382344
-1.8468
-8.18494e-07
0.00382318
-1.8468
-5.96e-07
0.00382302
-1.8468
-3.46561e-07
0.00382286
-1.8468
-4.25225e-08
0.00382286
-1.8468
0.00382227
-1.84674
-3.15367e-08
0.00681353
-1.85099
1.60603e-07
0.00681403
-1.85105
3.0303e-07
0.00681373
-1.85105
4.54954e-07
0.00681334
-1.85105
5.81029e-07
0.00681286
-1.85105
6.64218e-07
0.00681234
-1.85105
7.19377e-07
0.00681172
-1.85105
7.47445e-07
0.00681107
-1.85105
7.51132e-07
0.00681038
-1.85105
7.36206e-07
0.0068097
-1.85105
7.03105e-07
0.00680904
-1.85105
6.59029e-07
0.00680841
-1.85105
6.04579e-07
0.00680783
-1.85105
5.48744e-07
0.0068073
-1.85105
4.88066e-07
0.00680685
-1.85105
4.43453e-07
0.00680645
-1.85105
3.96852e-07
0.00680616
-1.85105
3.20028e-07
0.00680596
-1.85105
2.79393e-07
0.00680584
-1.85105
0.00680513
-1.85099
-4.45889e-07
0.0121274
-1.84891
-6.96638e-07
0.0121279
-1.84897
-9.42408e-07
0.0121275
-1.84897
-1.19476e-06
0.0121271
-1.84897
-1.40898e-06
0.0121264
-1.84897
-1.55999e-06
0.0121257
-1.84897
-1.66264e-06
0.0121249
-1.84897
-1.71012e-06
0.012124
-1.84897
-1.71159e-06
0.0121231
-1.84897
-1.66617e-06
0.0121223
-1.84897
-1.58266e-06
0.0121215
-1.84897
-1.46381e-06
0.0121207
-1.84897
-1.31877e-06
0.01212
-1.84897
-1.15414e-06
0.0121194
-1.84897
-9.74859e-07
0.0121189
-1.84897
-7.95934e-07
0.0121184
-1.84897
-6.035e-07
0.0121181
-1.84897
-3.55243e-07
0.0121179
-1.84897
-8.58214e-08
0.0121177
-1.84897
0.0121169
-1.8489
1.61716e-07
0.0172656
-1.85302
5.07966e-07
0.0172663
-1.85308
8.14517e-07
0.017266
-1.85308
1.05438e-06
0.0172657
-1.85308
1.24513e-06
0.0172653
-1.85308
1.39554e-06
0.0172648
-1.85308
1.49416e-06
0.0172642
-1.85308
1.54599e-06
0.0172636
-1.85308
1.55106e-06
0.017263
-1.85308
1.51742e-06
0.0172624
-1.85308
1.44759e-06
0.0172618
-1.85308
1.35107e-06
0.0172612
-1.85308
1.23094e-06
0.0172607
-1.85308
1.09581e-06
0.0172602
-1.85308
9.48499e-07
0.0172598
-1.85308
7.87352e-07
0.0172595
-1.85308
6.22012e-07
0.0172592
-1.85308
4.8293e-07
0.017259
-1.85308
3.51899e-07
0.0172588
-1.85308
0.0172579
-1.85302
-2.23129e-07
0.0241594
-1.85158
-3.06244e-07
0.0241603
-1.85164
-3.8848e-07
0.02416
-1.85164
-4.59743e-07
0.0241598
-1.85164
-5.17201e-07
0.0241594
-1.85164
-5.62745e-07
0.024159
-1.85164
-5.91014e-07
0.0241585
-1.85164
-6.01735e-07
0.024158
-1.85164
-5.96219e-07
0.0241575
-1.85164
-5.7418e-07
0.024157
-1.85164
-5.39503e-07
0.0241566
-1.85164
-4.91434e-07
0.0241561
-1.85164
-4.35427e-07
0.0241557
-1.85164
-3.69485e-07
0.0241554
-1.85164
-3.0017e-07
0.0241551
-1.85164
-2.1951e-07
0.0241548
-1.85164
-1.36704e-07
0.0241546
-1.85164
-4.53153e-08
0.0241544
-1.85164
4.79469e-08
0.0241543
-1.85164
0.0241533
-1.85158
8.93714e-08
0.0308762
-1.8536
3.45133e-07
0.0308773
-1.85367
5.75622e-07
0.0308773
-1.85366
7.55994e-07
0.0308773
-1.85366
9.0537e-07
0.0308773
-1.85366
1.02439e-06
0.0308773
-1.85366
1.10828e-06
0.0308773
-1.85366
1.15839e-06
0.0308773
-1.85366
1.17403e-06
0.0308773
-1.85366
1.15963e-06
0.0308773
-1.85366
1.11588e-06
0.0308773
-1.85366
1.04965e-06
0.0308774
-1.85366
9.62149e-07
0.0308774
-1.85366
8.61284e-07
0.0308774
-1.85366
7.47909e-07
0.0308774
-1.85366
6.26948e-07
0.0308774
-1.85366
5.00067e-07
0.0308775
-1.85366
3.93736e-07
0.0308774
-1.85366
2.904e-07
0.0308774
-1.85366
0.0308764
-1.8536
2.46626e-08
0.0385924
-1.85389
1.71738e-07
0.0385937
-1.85395
3.07638e-07
0.0385939
-1.85395
4.30266e-07
0.0385943
-1.85395
5.36774e-07
0.0385947
-1.85395
6.18713e-07
0.0385953
-1.85395
6.80253e-07
0.0385959
-1.85395
7.19862e-07
0.0385965
-1.85395
7.37765e-07
0.0385972
-1.85395
7.36321e-07
0.0385979
-1.85395
7.15021e-07
0.0385986
-1.85395
6.79201e-07
0.0385992
-1.85395
6.28306e-07
0.0385998
-1.85395
5.70482e-07
0.0386003
-1.85395
5.03481e-07
0.0386008
-1.85395
4.39635e-07
0.0386012
-1.85395
3.69685e-07
0.0386015
-1.85395
2.93797e-07
0.0386017
-1.85395
2.14532e-07
0.0386018
-1.85395
0.0386007
-1.85388
-9.24241e-08
0.0394324
-1.84738
-3.8477e-08
0.0394337
-1.84744
1.07881e-08
0.0394341
-1.84744
4.57262e-08
0.0394347
-1.84744
7.82023e-08
0.0394355
-1.84744
1.03296e-07
0.0394364
-1.84744
1.24193e-07
0.0394374
-1.84744
1.39174e-07
0.0394385
-1.84744
1.49194e-07
0.0394397
-1.84744
1.53455e-07
0.0394408
-1.84744
1.52262e-07
0.039442
-1.84744
1.47124e-07
0.039443
-1.84744
1.37369e-07
0.039444
-1.84744
1.27774e-07
0.0394449
-1.84744
1.16201e-07
0.0394457
-1.84744
1.10868e-07
0.0394463
-1.84744
1.05721e-07
0.0394468
-1.84744
1.14918e-07
0.0394472
-1.84744
1.32254e-07
0.0394474
-1.84744
0.0394465
-1.84738
1.65952e-07
0.0402014
-1.8496
4.76781e-07
0.0402027
-1.84966
7.58869e-07
0.0402034
-1.84966
9.98892e-07
0.0402045
-1.84966
1.20018e-06
0.0402058
-1.84966
1.35765e-06
0.0402073
-1.84966
1.46859e-06
0.040209
-1.84966
1.53398e-06
0.0402109
-1.84966
1.55255e-06
0.0402128
-1.84966
1.53032e-06
0.0402147
-1.84966
1.46831e-06
0.0402165
-1.84966
1.37595e-06
0.0402182
-1.84966
1.25621e-06
0.0402198
-1.84966
1.11973e-06
0.0402212
-1.84966
9.68859e-07
0.0402224
-1.84966
8.12027e-07
0.0402234
-1.84966
6.47833e-07
0.0402241
-1.84966
4.84505e-07
0.0402247
-1.84966
3.19738e-07
0.0402251
-1.84966
0.0402243
-1.8496
-4.61987e-07
0.0410765
-1.84827
-7.85575e-07
0.0410777
-1.84833
-1.08987e-06
0.0410783
-1.84833
-1.34358e-06
0.0410792
-1.84833
-1.55492e-06
0.0410804
-1.84833
-1.71741e-06
0.0410818
-1.84833
-1.82813e-06
0.0410833
-1.84833
-1.88301e-06
0.041085
-1.84833
-1.88692e-06
0.0410867
-1.84833
-1.83955e-06
0.0410885
-1.84833
-1.7501e-06
0.0410902
-1.84833
-1.62071e-06
0.0410918
-1.84833
-1.46199e-06
0.0410933
-1.84833
-1.27601e-06
0.0410946
-1.84833
-1.07225e-06
0.0410957
-1.84833
-8.48353e-07
0.0410967
-1.84833
-6.12695e-07
0.0410974
-1.84833
-3.75134e-07
0.041098
-1.84833
-1.2602e-07
0.0410983
-1.84833
0.0410977
-1.84827
2.80047e-07
0.040786
-1.85263
7.20618e-07
0.0407872
-1.85269
1.12241e-06
0.0407882
-1.85269
1.45494e-06
0.0407896
-1.85269
1.73187e-06
0.0407913
-1.8527
1.95315e-06
0.0407934
-1.8527
2.10829e-06
0.0407958
-1.8527
2.20036e-06
0.0407983
-1.8527
2.22556e-06
0.0408008
-1.8527
2.19205e-06
0.0408034
-1.8527
2.10163e-06
0.0408059
-1.8527
1.9665e-06
0.0408082
-1.8527
1.79241e-06
0.0408103
-1.8527
1.59195e-06
0.0408122
-1.8527
1.37148e-06
0.0408138
-1.8527
1.13664e-06
0.0408151
-1.8527
8.89969e-07
0.0408161
-1.8527
6.56112e-07
0.0408169
-1.8527
4.15972e-07
0.0408173
-1.8527
0.0408169
-1.85264
-7.32145e-07
0.0406786
-1.84944
-1.32293e-06
0.0406796
-1.8495
-1.87844e-06
0.0406804
-1.8495
-2.3367e-06
0.0406814
-1.8495
-2.72038e-06
0.0406828
-1.8495
-3.02336e-06
0.0406845
-1.8495
-3.23366e-06
0.0406863
-1.8495
-3.34629e-06
0.0406883
-1.8495
-3.36533e-06
0.0406904
-1.8495
-3.29305e-06
0.0406925
-1.8495
-3.14109e-06
0.0406945
-1.8495
-2.91759e-06
0.0406965
-1.8495
-2.63692e-06
0.0406982
-1.8495
-2.30773e-06
0.0406998
-1.8495
-1.94379e-06
0.0407012
-1.8495
-1.54368e-06
0.0407023
-1.8495
-1.12295e-06
0.0407031
-1.84951
-7.1592e-07
0.0407038
-1.84951
-2.95351e-07
0.0407042
-1.84951
0.0407038
-1.84944
3.40621e-07
0.0384566
-1.85543
8.60667e-07
0.0384576
-1.85549
1.33593e-06
0.0384587
-1.85549
1.7099e-06
0.0384603
-1.85549
2.02068e-06
0.0384623
-1.85549
2.27519e-06
0.0384646
-1.85549
2.45384e-06
0.0384673
-1.85549
2.56011e-06
0.0384701
-1.85549
2.5886e-06
0.038473
-1.85549
2.54781e-06
0.0384758
-1.85549
2.44135e-06
0.0384786
-1.85549
2.28182e-06
0.0384812
-1.85549
2.07923e-06
0.0384836
-1.85549
1.84565e-06
0.0384857
-1.85549
1.59071e-06
0.0384874
-1.85549
1.31152e-06
0.0384889
-1.85549
1.01752e-06
0.03849
-1.85549
7.56627e-07
0.0384908
-1.85549
4.81973e-07
0.0384913
-1.85549
0.0384911
-1.85543
-9.20944e-07
0.036443
-1.85019
-1.69382e-06
0.0364437
-1.85025
-2.42336e-06
0.0364446
-1.85025
-3.03387e-06
0.0364456
-1.85025
-3.54729e-06
0.0364471
-1.85025
-3.96068e-06
0.0364488
-1.85025
-4.25084e-06
0.0364507
-1.85025
-4.41145e-06
0.0364528
-1.85025
-4.44545e-06
0.0364549
-1.85026
-4.35717e-06
0.0364571
-1.85026
-4.15975e-06
0.0364592
-1.85026
-3.86598e-06
0.0364612
-1.85026
-3.49401e-06
0.036463
-1.85026
-3.05973e-06
0.0364646
-1.85026
-2.58043e-06
0.036466
-1.85026
-2.05362e-06
0.0364671
-1.85026
-1.50187e-06
0.036468
-1.85026
-9.65966e-07
0.0364687
-1.85026
-4.1338e-07
0.0364691
-1.85026
0.0364689
-1.8502
2.72143e-07
0.0316615
-1.85657
7.47068e-07
0.0316622
-1.85663
1.17105e-06
0.0316633
-1.85663
1.4774e-06
0.0316647
-1.85663
1.72639e-06
0.0316666
-1.85664
1.94403e-06
0.0316687
-1.85664
2.09495e-06
0.0316711
-1.85664
2.18475e-06
0.0316736
-1.85664
2.20651e-06
0.0316762
-1.85664
2.1691e-06
0.0316788
-1.85664
2.07613e-06
0.0316813
-1.85664
1.94046e-06
0.0316837
-1.85664
1.77153e-06
0.0316858
-1.85664
1.578e-06
0.0316877
-1.85664
1.36869e-06
0.0316892
-1.85664
1.12164e-06
0.0316905
-1.85664
8.60434e-07
0.0316915
-1.85664
6.55556e-07
0.0316922
-1.85664
4.46689e-07
0.0316926
-1.85664
0.0316926
-1.85658
-9.51324e-07
0.0271062
-1.84916
-1.70086e-06
0.0271067
-1.84922
-2.41496e-06
0.0271074
-1.84922
-3.14909e-06
0.0271084
-1.84922
-3.77586e-06
0.0271097
-1.84922
-4.24063e-06
0.027111
-1.84922
-4.56856e-06
0.0271126
-1.84922
-4.74773e-06
0.0271143
-1.84922
-4.78774e-06
0.0271161
-1.84922
-4.69265e-06
0.0271179
-1.84922
-4.47802e-06
0.0271196
-1.84922
-4.15876e-06
0.0271213
-1.84922
-3.75635e-06
0.0271228
-1.84922
-3.29552e-06
0.0271242
-1.84922
-2.79383e-06
0.0271253
-1.84923
-2.29906e-06
0.0271263
-1.84923
-1.78342e-06
0.0271269
-1.84923
-1.13961e-06
0.0271273
-1.84923
-4.71506e-07
0.0271276
-1.84923
0.0271276
-1.84917
-1.68327e-08
0.019264
-1.85406
1.22815e-07
0.0192643
-1.85412
1.90517e-07
0.0192651
-1.85412
3.29412e-07
0.019266
-1.85412
4.53986e-07
0.0192671
-1.85412
5.25338e-07
0.0192684
-1.85412
5.78739e-07
0.0192698
-1.85412
6.04397e-07
0.0192713
-1.85412
6.10365e-07
0.0192729
-1.85413
5.98994e-07
0.0192745
-1.85413
5.73247e-07
0.019276
-1.85413
5.41922e-07
0.0192774
-1.85413
5.04316e-07
0.0192787
-1.85413
4.74164e-07
0.0192798
-1.85413
4.39312e-07
0.0192807
-1.85413
4.35968e-07
0.0192815
-1.85413
4.22558e-07
0.019282
-1.85413
3.0965e-07
0.0192824
-1.85413
2.42924e-07
0.0192825
-1.85413
0.0192825
-1.85407
-7.46507e-07
0.0117247
-1.84438
-1.35148e-06
0.0117249
-1.84444
-1.99374e-06
0.0117256
-1.84444
-2.55456e-06
0.0117262
-1.84444
-3.01922e-06
0.0117269
-1.84444
-3.38644e-06
0.0117278
-1.84444
-3.64051e-06
0.0117287
-1.84444
-3.78201e-06
0.0117297
-1.84444
-3.81074e-06
0.0117308
-1.84444
-3.7318e-06
0.0117318
-1.84444
-3.55627e-06
0.0117329
-1.84444
-3.29448e-06
0.0117339
-1.84445
-2.96693e-06
0.0117348
-1.84445
-2.58759e-06
0.0117356
-1.84445
-2.18042e-06
0.0117362
-1.84445
-1.74903e-06
0.0117368
-1.84445
-1.31385e-06
0.0117372
-1.84445
-8.85256e-07
0.0117374
-1.84445
-3.84644e-07
0.0117373
-1.84445
0.0117374
-1.84439
-9.80349e-08
-1.84414
-6.63986e-07
-1.84419
-1.07758e-06
-1.84419
-1.4363e-06
-1.84419
-1.68922e-06
-1.84419
-1.89989e-06
-1.84419
-2.0385e-06
-1.84419
-2.12168e-06
-1.8442
-2.14021e-06
-1.8442
-2.09969e-06
-1.8442
-2.00351e-06
-1.8442
-1.85487e-06
-1.8442
-1.66882e-06
-1.8442
-1.44429e-06
-1.8442
-1.21207e-06
-1.8442
-9.55535e-07
-1.84421
-7.53716e-07
-1.84421
-5.76159e-07
-1.84421
-5.39537e-07
-1.84421
-1.84416
-2.97723e-07
0.00295667
-1.84557
-5.62066e-07
0.00295714
-1.84563
-6.98755e-07
0.00295688
-1.84563
-8.53262e-07
0.0029567
-1.84563
-9.59131e-07
0.0029564
-1.84563
-1.06088e-06
0.00295611
-1.84563
-1.12685e-06
0.00295575
-1.84563
-1.17e-06
0.00295539
-1.84564
-1.18232e-06
0.002955
-1.84564
-1.16621e-06
0.00295463
-1.84564
-1.12338e-06
0.00295426
-1.84564
-1.05113e-06
0.00295391
-1.84564
-9.5955e-07
0.0029536
-1.84564
-8.38493e-07
0.00295332
-1.84564
-7.08827e-07
0.00295309
-1.84564
-5.42392e-07
0.00295288
-1.84564
-3.90363e-07
0.00295276
-1.84564
-1.88027e-07
0.00295263
-1.84564
-8.47743e-08
0.00295267
-1.84564
0.0029521
-1.84558
-5.30387e-07
0.00701525
-1.8508
-8.03284e-07
0.00701571
-1.85086
-1.08456e-06
0.00701542
-1.85086
-1.32688e-06
0.00701511
-1.85086
-1.53183e-06
0.00701468
-1.85086
-1.69284e-06
0.00701422
-1.85086
-1.80497e-06
0.00701369
-1.85086
-1.86393e-06
0.00701315
-1.85086
-1.87469e-06
0.00701259
-1.85086
-1.83548e-06
0.00701205
-1.85086
-1.7563e-06
0.00701153
-1.85086
-1.63577e-06
0.00701105
-1.85086
-1.48705e-06
0.00701063
-1.85086
-1.30641e-06
0.00701025
-1.85086
-1.10739e-06
0.00700995
-1.85086
-8.80446e-07
0.00700968
-1.85086
-6.34436e-07
0.00700951
-1.85086
-3.70272e-07
0.00700935
-1.85086
-6.71714e-08
0.00700933
-1.85086
0.00700871
-1.8508
2.1382e-08
0.0106863
-1.85466
2.44543e-07
0.0106869
-1.85472
4.19294e-07
0.0106866
-1.85472
6.3652e-07
0.0106863
-1.85472
8.11568e-07
0.010686
-1.85472
9.30753e-07
0.0106856
-1.85472
1.00474e-06
0.0106852
-1.85472
1.04482e-06
0.0106848
-1.85472
1.04661e-06
0.0106843
-1.85472
1.02601e-06
0.0106838
-1.85472
9.78127e-07
0.0106834
-1.85472
9.17339e-07
0.010683
-1.85472
8.41933e-07
0.0106826
-1.85472
7.64388e-07
0.0106822
-1.85472
6.82255e-07
0.0106819
-1.85472
6.21169e-07
0.0106816
-1.85472
5.60918e-07
0.0106815
-1.85472
4.32127e-07
0.0106814
-1.85472
3.33028e-07
0.0106813
-1.85472
0.0106807
-1.85466
-4.02156e-07
0.0151564
-1.85338
-6.24192e-07
0.0151569
-1.85344
-8.36959e-07
0.0151566
-1.85344
-1.06411e-06
0.0151562
-1.85344
-1.26131e-06
0.0151557
-1.85344
-1.3894e-06
0.0151552
-1.85344
-1.48041e-06
0.0151546
-1.85344
-1.51556e-06
0.0151539
-1.85344
-1.51553e-06
0.0151533
-1.85344
-1.46893e-06
0.0151526
-1.85344
-1.39408e-06
0.015152
-1.85344
-1.28552e-06
0.0151515
-1.85343
-1.15778e-06
0.015151
-1.85343
-1.01277e-06
0.0151505
-1.85343
-8.55656e-07
0.0151502
-1.85343
-7.04214e-07
0.0151498
-1.85343
-5.39216e-07
0.0151496
-1.85343
-3.10643e-07
0.0151494
-1.85343
-7.019e-08
0.0151493
-1.85343
0.0151486
-1.85337
2.39343e-07
0.0196831
-1.85755
6.43376e-07
0.0196837
-1.85761
1.00927e-06
0.0196836
-1.85761
1.31036e-06
0.0196834
-1.85761
1.55262e-06
0.0196831
-1.85761
1.74911e-06
0.0196828
-1.85761
1.88134e-06
0.0196824
-1.85761
1.95751e-06
0.019682
-1.85761
1.975e-06
0.0196816
-1.85761
1.94537e-06
0.0196813
-1.85761
1.86903e-06
0.0196809
-1.85761
1.75951e-06
0.0196805
-1.85761
1.61714e-06
0.0196802
-1.85761
1.45404e-06
0.01968
-1.85761
1.26958e-06
0.0196797
-1.85761
1.06302e-06
0.0196796
-1.85761
8.42374e-07
0.0196794
-1.85761
6.37286e-07
0.0196793
-1.85761
4.29109e-07
0.0196792
-1.85761
0.0196785
-1.85755
-1.21478e-07
0.0249395
-1.85684
-1.28735e-07
0.0249402
-1.8569
-1.3369e-07
0.0249401
-1.8569
-1.23405e-07
0.0249399
-1.8569
-1.08929e-07
0.0249397
-1.8569
-9.77314e-08
0.0249395
-1.8569
-8.33587e-08
0.0249392
-1.8569
-6.64201e-08
0.0249389
-1.8569
-4.78309e-08
0.0249386
-1.8569
-2.63046e-08
0.0249383
-1.8569
-5.4112e-09
0.0249381
-1.8569
1.75959e-08
0.0249378
-1.8569
3.75304e-08
0.0249376
-1.8569
5.98016e-08
0.0249374
-1.8569
7.71871e-08
0.0249373
-1.8569
1.02074e-07
0.0249372
-1.85689
1.22023e-07
0.0249371
-1.85689
1.29932e-07
0.024937
-1.85689
1.29047e-07
0.024937
-1.85689
0.0249361
-1.85683
1.84306e-07
0.0301985
-1.85886
5.10912e-07
0.0301994
-1.85892
8.12378e-07
0.0301994
-1.85892
1.0695e-06
0.0301994
-1.85892
1.28541e-06
0.0301994
-1.85892
1.46395e-06
0.0301994
-1.85892
1.5931e-06
0.0301994
-1.85892
1.67751e-06
0.0301994
-1.85892
1.71253e-06
0.0301994
-1.85892
1.70635e-06
0.0301995
-1.85892
1.65666e-06
0.0301995
-1.85892
1.57453e-06
0.0301996
-1.85892
1.45859e-06
0.0301996
-1.85892
1.31999e-06
0.0301997
-1.85892
1.15806e-06
0.0301997
-1.85892
9.78175e-07
0.0301998
-1.85892
7.80884e-07
0.0301998
-1.85892
5.86374e-07
0.0301998
-1.85892
3.79571e-07
0.0301998
-1.85892
0.0301989
-1.85886
1.45649e-07
0.0358698
-1.85956
3.91352e-07
0.0358709
-1.85962
6.22565e-07
0.035871
-1.85962
8.52505e-07
0.0358712
-1.85962
1.05316e-06
0.0358715
-1.85962
1.21453e-06
0.0358718
-1.85962
1.33747e-06
0.0358722
-1.85962
1.42177e-06
0.0358726
-1.85962
1.46527e-06
0.035873
-1.85962
1.4733e-06
0.0358735
-1.85962
1.44365e-06
0.0358739
-1.85962
1.38568e-06
0.0358743
-1.85962
1.29744e-06
0.0358747
-1.85962
1.1907e-06
0.035875
-1.85962
1.06175e-06
0.0358753
-1.85962
9.25335e-07
0.0358756
-1.85962
7.67982e-07
0.0358758
-1.85962
5.71632e-07
0.0358759
-1.85962
3.49028e-07
0.0358761
-1.85962
0.0358751
-1.85956
-4.82221e-08
0.0349651
-1.84648
2.40949e-08
0.0349661
-1.84654
9.48994e-08
0.0349663
-1.84654
1.68461e-07
0.0349666
-1.84654
2.37313e-07
0.034967
-1.84654
2.93563e-07
0.0349675
-1.84654
3.4084e-07
0.034968
-1.84654
3.76968e-07
0.0349686
-1.84654
4.01551e-07
0.0349692
-1.84654
4.15185e-07
0.0349698
-1.84654
4.1644e-07
0.0349704
-1.84654
4.08053e-07
0.034971
-1.84654
3.89127e-07
0.0349715
-1.84654
3.66897e-07
0.034972
-1.84654
3.34949e-07
0.0349724
-1.84654
3.04665e-07
0.0349728
-1.84654
2.68794e-07
0.034973
-1.84654
2.22232e-07
0.0349732
-1.84654
1.71323e-07
0.0349734
-1.84654
0.0349725
-1.84648
2.17584e-07
0.033948
-1.84858
5.4993e-07
0.0339489
-1.84865
8.6292e-07
0.0339493
-1.84865
1.15243e-06
0.0339498
-1.84865
1.4007e-06
0.0339504
-1.84865
1.60481e-06
0.0339512
-1.84865
1.75693e-06
0.0339521
-1.84865
1.86064e-06
0.033953
-1.84865
1.91064e-06
0.0339539
-1.84865
1.91623e-06
0.0339549
-1.84865
1.87449e-06
0.0339558
-1.84865
1.79774e-06
0.0339567
-1.84865
1.68475e-06
0.0339575
-1.84865
1.54671e-06
0.0339582
-1.84865
1.38096e-06
0.0339588
-1.84865
1.19398e-06
0.0339593
-1.84865
9.77645e-07
0.0339597
-1.84865
7.25903e-07
0.03396
-1.84865
4.37671e-07
0.0339602
-1.84865
0.0339595
-1.84859
-4.46889e-07
0.0329465
-1.84726
-7.84206e-07
0.0329474
-1.84733
-1.09816e-06
0.0329477
-1.84733
-1.33388e-06
0.0329481
-1.84733
-1.5298e-06
0.0329488
-1.84733
-1.67861e-06
0.0329495
-1.84733
-1.78017e-06
0.0329504
-1.84733
-1.82679e-06
0.0329513
-1.84733
-1.82781e-06
0.0329522
-1.84733
-1.77831e-06
0.0329531
-1.84733
-1.69247e-06
0.0329541
-1.84733
-1.56649e-06
0.0329549
-1.84733
-1.4146e-06
0.0329557
-1.84733
-1.2329e-06
0.0329565
-1.84733
-1.0333e-06
0.0329571
-1.84733
-8.07677e-07
0.0329576
-1.84733
-5.68827e-07
0.032958
-1.84733
-3.52964e-07
0.0329584
-1.84733
-1.35414e-07
0.0329586
-1.84733
0.032958
-1.84727
2.85064e-07
0.0312519
-1.85094
6.95873e-07
0.0312527
-1.851
1.08746e-06
0.0312532
-1.851
1.42665e-06
0.0312539
-1.851
1.71581e-06
0.0312548
-1.851
1.9611e-06
0.0312558
-1.851
2.14275e-06
0.031257
-1.851
2.2697e-06
0.0312583
-1.851
2.33087e-06
0.0312596
-1.851
2.33932e-06
0.0312609
-1.851
2.29035e-06
0.0312622
-1.851
2.19932e-06
0.0312634
-1.85101
2.065e-06
0.0312645
-1.85101
1.89903e-06
0.0312654
-1.85101
1.69892e-06
0.0312662
-1.85101
1.46396e-06
0.0312669
-1.85101
1.18883e-06
0.0312675
-1.85101
8.89298e-07
0.0312679
-1.85101
5.34608e-07
0.0312682
-1.85101
0.0312678
-1.85094
-7.84126e-07
0.0296099
-1.8478
-1.45703e-06
0.0296106
-1.84786
-2.08859e-06
0.029611
-1.84786
-2.58075e-06
0.0296115
-1.84786
-2.997e-06
0.0296123
-1.84786
-3.32649e-06
0.0296132
-1.84786
-3.56067e-06
0.0296142
-1.84786
-3.68697e-06
0.0296152
-1.84786
-3.71661e-06
0.0296163
-1.84786
-3.64481e-06
0.0296174
-1.84786
-3.49059e-06
0.0296185
-1.84786
-3.25509e-06
0.0296195
-1.84786
-2.95795e-06
0.0296205
-1.84786
-2.6009e-06
0.0296213
-1.84786
-2.19979e-06
0.029622
-1.84786
-1.74785e-06
0.0296226
-1.84786
-1.26384e-06
0.0296231
-1.84786
-8.22542e-07
0.0296235
-1.84786
-3.71006e-07
0.0296237
-1.84786
0.0296234
-1.8478
3.10956e-07
0.0267908
-1.85261
7.64091e-07
0.0267914
-1.85267
1.1998e-06
0.026792
-1.85267
1.54696e-06
0.0267928
-1.85267
1.84151e-06
0.0267938
-1.85267
2.10004e-06
0.026795
-1.85267
2.28982e-06
0.0267964
-1.85267
2.42362e-06
0.0267978
-1.85267
2.48679e-06
0.0267993
-1.85267
2.49454e-06
0.0268007
-1.85267
2.44252e-06
0.0268022
-1.85268
2.34732e-06
0.0268035
-1.85268
2.20962e-06
0.0268047
-1.85268
2.03889e-06
0.0268057
-1.85268
1.83452e-06
0.0268066
-1.85268
1.58285e-06
0.0268074
-1.85268
1.28152e-06
0.0268079
-1.85268
9.79919e-07
0.0268084
-1.85268
6.03729e-07
0.0268087
-1.85268
0.0268085
-1.85262
-1.04077e-06
0.0240778
-1.84748
-1.95964e-06
0.0240783
-1.84754
-2.82475e-06
0.0240787
-1.84754
-3.53048e-06
0.0240792
-1.84754
-4.13035e-06
0.02408
-1.84754
-4.61351e-06
0.0240809
-1.84754
-4.96053e-06
0.0240819
-1.84754
-5.15582e-06
0.024083
-1.84754
-5.21085e-06
0.0240841
-1.84754
-5.12256e-06
0.0240852
-1.84754
-4.91284e-06
0.0240863
-1.84754
-4.58872e-06
0.0240874
-1.84754
-4.17404e-06
0.0240883
-1.84754
-3.67916e-06
0.0240891
-1.84754
-3.12265e-06
0.0240898
-1.84754
-2.49975e-06
0.0240904
-1.84754
-1.83271e-06
0.0240908
-1.84754
-1.19941e-06
0.0240913
-1.84754
-5.49839e-07
0.0240914
-1.84754
0.0240913
-1.84748
1.99062e-07
0.0199435
-1.85244
5.74695e-07
0.0199439
-1.8525
9.29719e-07
0.0199444
-1.8525
1.18264e-06
0.0199452
-1.8525
1.39052e-06
0.0199462
-1.8525
1.59488e-06
0.0199473
-1.8525
1.74183e-06
0.0199485
-1.8525
1.85058e-06
0.0199499
-1.8525
1.9011e-06
0.0199512
-1.85251
1.91356e-06
0.0199526
-1.85251
1.87984e-06
0.0199539
-1.85251
1.81935e-06
0.0199551
-1.85251
1.7301e-06
0.0199562
-1.85251
1.61983e-06
0.0199572
-1.85251
1.48612e-06
0.019958
-1.85251
1.29324e-06
0.0199587
-1.85251
1.05607e-06
0.0199591
-1.85251
8.42484e-07
0.0199595
-1.85251
5.60983e-07
0.0199597
-1.85251
0.0199598
-1.85245
-1.11804e-06
0.0159502
-1.84516
-2.02604e-06
0.0159503
-1.84522
-2.8765e-06
0.0159507
-1.84522
-3.76688e-06
0.0159514
-1.84522
-4.5329e-06
0.0159521
-1.84522
-5.0987e-06
0.0159528
-1.84522
-5.50792e-06
0.0159537
-1.84522
-5.73657e-06
0.0159546
-1.84522
-5.80552e-06
0.0159555
-1.84522
-5.7105e-06
0.0159564
-1.84523
-5.4778e-06
0.0159574
-1.84523
-5.11605e-06
0.0159582
-1.84523
-4.65447e-06
0.015959
-1.84523
-4.11415e-06
0.0159597
-1.84523
-3.51497e-06
0.0159603
-1.84523
-2.91267e-06
0.0159608
-1.84523
-2.27566e-06
0.0159611
-1.84523
-1.46501e-06
0.0159612
-1.84523
-6.33901e-07
0.0159613
-1.84523
0.0159614
-1.84517
-1.63561e-07
0.0105952
-1.8487
-1.81633e-07
0.0105952
-1.84876
-2.40044e-07
0.0105957
-1.84876
-1.42844e-07
0.0105962
-1.84877
-4.36983e-08
0.0105969
-1.84877
-4.76769e-09
0.0105977
-1.84877
3.50844e-08
0.0105985
-1.84877
6.0983e-08
0.0105994
-1.84877
8.70671e-08
0.0106004
-1.84877
1.11409e-07
0.0106013
-1.84877
1.38969e-07
0.0106022
-1.84877
1.7671e-07
0.010603
-1.84877
2.18774e-07
0.0106038
-1.84877
2.81546e-07
0.0106044
-1.84878
3.39972e-07
0.010605
-1.84878
4.47815e-07
0.0106054
-1.84878
5.337e-07
0.0106057
-1.84878
4.26653e-07
0.0106059
-1.84878
3.19018e-07
0.0106059
-1.84878
0.0106061
-1.84872
-9.89496e-07
0.00533348
-1.83911
-1.78642e-06
0.00533329
-1.83917
-2.57463e-06
0.00533373
-1.83917
-3.26931e-06
0.00533404
-1.83917
-3.85463e-06
0.00533446
-1.83918
-4.3222e-06
0.00533488
-1.83918
-4.65443e-06
0.00533538
-1.83918
-4.84496e-06
0.0053359
-1.83918
-4.89689e-06
0.00533645
-1.83918
-4.81193e-06
0.00533699
-1.83918
-4.60671e-06
0.00533752
-1.83918
-4.28944e-06
0.00533802
-1.83918
-3.8865e-06
0.00533846
-1.83918
-3.40833e-06
0.00533886
-1.83918
-2.88287e-06
0.00533917
-1.83918
-2.31145e-06
0.00533944
-1.83918
-1.71833e-06
0.00533958
-1.83918
-1.11704e-06
0.00533967
-1.83918
-4.72861e-07
0.0053395
-1.83918
0.00533982
-1.83912
-4.09335e-07
-1.83881
-1.07353e-06
-1.83886
-1.60065e-06
-1.83886
-2.0444e-06
-1.83886
-2.37743e-06
-1.83886
-2.65518e-06
-1.83886
-2.84362e-06
-1.83886
-2.9545e-06
-1.83886
-2.97958e-06
-1.83886
-2.92143e-06
-1.83886
-2.78867e-06
-1.83886
-2.58229e-06
-1.83886
-2.32335e-06
-1.83886
-2.00769e-06
-1.83887
-1.67241e-06
-1.83887
-1.2953e-06
-1.83887
-9.61501e-07
-1.83887
-6.61187e-07
-1.83887
-4.77605e-07
-1.83887
-1.83882
-3.42065e-07
0.00399094
-1.84956
-5.96772e-07
0.00399138
-1.84963
-7.12101e-07
0.00399125
-1.84963
-8.55775e-07
0.00399118
-1.84963
-9.63329e-07
0.00399104
-1.84963
-1.06753e-06
0.00399091
-1.84963
-1.1401e-06
0.00399074
-1.84963
-1.19059e-06
0.00399058
-1.84963
-1.21152e-06
0.0039904
-1.84963
-1.2035e-06
0.00399023
-1.84963
-1.16985e-06
0.00399006
-1.84963
-1.10628e-06
0.0039899
-1.84963
-1.02369e-06
0.00398976
-1.84963
-9.09344e-07
0.00398963
-1.84963
-7.8266e-07
0.00398953
-1.84963
-6.13199e-07
0.00398943
-1.84963
-4.4488e-07
0.00398939
-1.84963
-2.05221e-07
0.00398932
-1.84963
-7.71974e-08
0.00398937
-1.84963
0.00398888
-1.84957
-4.97754e-07
0.00721192
-1.85402
-7.20656e-07
0.00721232
-1.85408
-9.55414e-07
0.00721216
-1.85408
-1.15469e-06
0.00721201
-1.85408
-1.331e-06
0.00721179
-1.85408
-1.46847e-06
0.00721157
-1.85408
-1.56892e-06
0.0072113
-1.85408
-1.6218e-06
0.00721104
-1.85408
-1.6372e-06
0.00721077
-1.85408
-1.60696e-06
0.00721051
-1.85408
-1.54578e-06
0.00721026
-1.85408
-1.44636e-06
0.00721004
-1.85408
-1.32457e-06
0.00720985
-1.85408
-1.17276e-06
0.00720968
-1.85408
-1.00385e-06
0.00720956
-1.85408
-8.04803e-07
0.00720944
-1.85408
-5.79579e-07
0.00720938
-1.85408
-3.32917e-07
0.00720932
-1.85408
-4.49625e-08
0.00720934
-1.85408
0.00720887
-1.85402
-1.94915e-08
0.0103536
-1.8578
2.09601e-07
0.0103541
-1.85786
3.83335e-07
0.010354
-1.85786
6.01811e-07
0.0103538
-1.85786
7.73677e-07
0.0103536
-1.85786
8.91645e-07
0.0103535
-1.85786
9.61545e-07
0.0103533
-1.85786
1.00173e-06
0.0103531
-1.85786
1.00146e-06
0.010353
-1.85786
9.83237e-07
0.0103528
-1.85786
9.35565e-07
0.0103526
-1.85786
8.78554e-07
0.0103525
-1.85786
8.04817e-07
0.0103523
-1.85786
7.30393e-07
0.0103522
-1.85786
6.51867e-07
0.0103521
-1.85786
5.96432e-07
0.010352
-1.85786
5.4756e-07
0.010352
-1.85786
4.30276e-07
0.0103521
-1.85786
3.53021e-07
0.0103521
-1.85786
0.0103516
-1.8578
-3.51632e-07
0.0145465
-1.85757
-4.7699e-07
0.0145471
-1.85763
-6.06622e-07
0.0145469
-1.85763
-7.70382e-07
0.0145468
-1.85763
-9.20545e-07
0.0145466
-1.85763
-1.01163e-06
0.0145464
-1.85763
-1.08246e-06
0.0145461
-1.85763
-1.10673e-06
0.0145459
-1.85763
-1.11139e-06
0.0145457
-1.85763
-1.07657e-06
0.0145454
-1.85763
-1.02678e-06
0.0145452
-1.85763
-9.47626e-07
0.014545
-1.85763
-8.59221e-07
0.0145449
-1.85763
-7.55162e-07
0.0145447
-1.85763
-6.44404e-07
0.0145446
-1.85763
-5.3864e-07
0.0145445
-1.85763
-4.18805e-07
0.0145445
-1.85763
-2.21082e-07
0.0145445
-1.85763
-4.19583e-09
0.0145444
-1.85763
0.0145438
-1.85756
1.89611e-07
0.0187645
-1.86177
5.94337e-07
0.0187651
-1.86183
9.54515e-07
0.0187651
-1.86183
1.25297e-06
0.018765
-1.86183
1.49168e-06
0.0187648
-1.86183
1.68986e-06
0.0187647
-1.86183
1.82432e-06
0.0187645
-1.86183
1.90844e-06
0.0187643
-1.86183
1.93405e-06
0.0187642
-1.86183
1.91654e-06
0.018764
-1.86183
1.85119e-06
0.0187638
-1.86183
1.75407e-06
0.0187637
-1.86183
1.62134e-06
0.0187636
-1.86183
1.4665e-06
0.0187635
-1.86183
1.28711e-06
0.0187635
-1.86183
1.08475e-06
0.0187634
-1.86183
8.67501e-07
0.0187634
-1.86183
6.66339e-07
0.0187634
-1.86183
4.68526e-07
0.0187634
-1.86183
0.0187627
-1.86176
-9.61343e-08
0.0239568
-1.86203
-2.65769e-08
0.0239576
-1.86209
3.53112e-08
0.0239575
-1.86209
9.94059e-08
0.0239575
-1.86209
1.58308e-07
0.0239573
-1.86209
2.03892e-07
0.0239572
-1.86209
2.43502e-07
0.0239571
-1.86209
2.768e-07
0.023957
-1.86209
3.02569e-07
0.0239568
-1.86209
3.2318e-07
0.0239567
-1.86209
3.35303e-07
0.0239566
-1.86209
3.41652e-07
0.0239566
-1.86209
3.38707e-07
0.0239565
-1.86209
3.32019e-07
0.0239565
-1.86209
3.15302e-07
0.0239565
-1.86209
3.04017e-07
0.0239564
-1.86209
2.83496e-07
0.0239564
-1.86209
2.57395e-07
0.0239564
-1.86209
2.23423e-07
0.0239565
-1.86209
0.0239557
-1.86203
1.61643e-07
0.0291772
-1.86408
5.1518e-07
0.0291781
-1.86415
8.3753e-07
0.0291781
-1.86415
1.11351e-06
0.0291781
-1.86415
1.34467e-06
0.0291781
-1.86415
1.53826e-06
0.0291781
-1.86415
1.67961e-06
0.0291781
-1.86415
1.77675e-06
0.0291781
-1.86415
1.82139e-06
0.0291781
-1.86415
1.82464e-06
0.0291781
-1.86415
1.78091e-06
0.0291781
-1.86415
1.70348e-06
0.0291782
-1.86415
1.58837e-06
0.0291782
-1.86415
1.44787e-06
0.0291783
-1.86414
1.2798e-06
0.0291783
-1.86414
1.09056e-06
0.0291784
-1.86414
8.81103e-07
0.0291784
-1.86414
6.71662e-07
0.0291785
-1.86414
4.51466e-07
0.0291785
-1.86414
0.0291777
-1.86408
1.27311e-07
0.0349129
-1.8653
4.08262e-07
0.0349139
-1.86536
6.70418e-07
0.034914
-1.86536
9.27099e-07
0.034914
-1.86536
1.15087e-06
0.0349141
-1.86536
1.33498e-06
0.0349142
-1.86536
1.47743e-06
0.0349144
-1.86536
1.58083e-06
0.0349145
-1.86536
1.63999e-06
0.0349147
-1.86536
1.66223e-06
0.0349148
-1.86536
1.64319e-06
0.034915
-1.86536
1.59395e-06
0.0349152
-1.86536
1.51012e-06
0.0349153
-1.86536
1.40431e-06
0.0349155
-1.86536
1.26938e-06
0.0349156
-1.86536
1.12081e-06
0.0349157
-1.86536
9.43506e-07
0.0349158
-1.86536
7.2115e-07
0.0349159
-1.86536
4.65106e-07