/*--------------------------------*- C++ -*----------------------------------*\
| =========                 |                                                 |
| \\      /  F ield         | OpenFOAM: The Open Source CFD Toolbox           |
|  \\    /   O peration     | Version:  2212                                  |
|   \\  /    A nd           | Website:  www.openfoam.com                      |
|    \\/     M anipulation  |                                                 |
\*---------------------------------------------------------------------------*/
FoamFile
{
    version     2.0;
    format      ascii;
    arch        "LSB;label=32;scalar=64";
    class       volVectorField;
    location    "0.0125";
    object      U;
}
// * * * * * * * * * * * * * * * * * * * * * * * * * * * * * * * * * * * * * //

dimensions      [0 1 -1 0 0 0 0];

internalField   nonuniform List<vector> 
7700
(
(110.264 26.1261 -1.13691e-19)
(35.1706 65.8631 -7.67231e-19)
(27.4689 105.345 9.30458e-19)
(31.8186 143.127 -1.81469e-18)
(32.5633 178.817 3.6451e-18)
(32.0047 212.633 -1.71737e-18)
(31.4041 244.639 0)
(30.7461 274.826 1.83973e-18)
(29.9523 303.254 1.51614e-21)
(29.0253 329.956 -1.72482e-18)
(27.9787 354.966 1.14989e-19)
(26.8236 378.321 -1.84076e-18)
(25.5692 400.06 1.83907e-18)
(24.2241 420.217 1.9543e-18)
(22.7967 438.828 9.53813e-22)
(21.2949 455.927 -1.83684e-18)
(19.726 471.544 0)
(18.097 485.708 3.6718e-18)
(16.4145 498.445 -3.66872e-18)
(14.6847 509.779 0)
(12.9134 519.731 0)
(11.1063 528.319 1.1443e-19)
(9.26845 535.559 0)
(7.40457 541.465 -3.6631e-18)
(5.51899 546.046 3.6619e-18)
(3.61649 549.311 0)
(1.66516 551.264 0)
(-0.158903 551.935 -3.54318e-18)
(-1.98398 551.275 3.77491e-18)
(-3.93554 549.333 3.66196e-18)
(-5.83683 546.079 -7.32662e-18)
(-7.72018 541.508 3.66494e-18)
(-9.58091 535.613 0)
(-11.4147 528.383 3.66772e-18)
(-13.217 519.805 -5.5058e-18)
(-14.9827 509.864 3.67278e-18)
(-16.7064 498.542 -6.79112e-22)
(-18.382 485.816 -1.72462e-18)
(-20.0036 471.665 1.84015e-18)
(-21.5646 456.06 -1.72745e-18)
(-23.058 438.975 1.95821e-18)
(-24.4766 420.377 -8.08047e-19)
(-25.8124 400.234 -1.96173e-18)
(-27.0574 378.51 1.84764e-18)
(-28.2029 355.168 -1.84868e-18)
(-29.2401 330.172 9.25054e-19)
(-30.1582 303.484 -3.4662e-19)
(-30.9429 275.069 4.62513e-19)
(-31.5922 244.888 1.44317e-20)
(-32.1877 212.877 -1.29811e-19)
(-32.7299 179.044 0)
(-31.9461 143.334 1.13914e-19)
(-27.6136 105.55 0)
(-35.4223 66.0837 5.28075e-19)
(-110.263 26.1303 -2.90312e-19)
(110.992 24.4781 9.21441e-20)
(34.2517 64.5121 -9.23438e-20)
(27.2274 103.589 0)
(31.568 141.009 -7.30214e-19)
(32.245 176.692 -5.33062e-21)
(31.7234 210.574 1.38328e-18)
(31.1699 242.613 7.418e-19)
(30.5536 272.839 -7.43139e-19)
(29.7944 301.298 7.4414e-19)
(28.8856 328.026 6.51963e-19)
(27.8504 353.06 -3.06573e-18)
(26.7041 376.436 5.94621e-18)
(25.4574 398.194 1.36717e-21)
(24.1197 418.37 -3.06599e-18)
(22.6997 436.998 0)
(21.2054 454.114 7.45416e-19)
(19.6442 469.747 3.71768e-18)
(18.0232 483.926 -7.43984e-19)
(16.3489 496.677 -2.96932e-18)
(14.6276 508.025 2.96886e-18)
(12.8653 517.989 7.44661e-19)
(11.0675 526.589 -3.8017e-18)
(9.23978 533.84 2.96435e-18)
(7.3874 539.755 -3.70523e-18)
(5.51596 544.345 0)
(3.6318 547.614 0)
(1.73524 549.562 1.48293e-18)
(-0.147759 550.195 -3.0462e-18)
(-2.0305 549.584 2.86147e-18)
(-3.92939 547.657 0)
(-5.81329 544.406 -7.40192e-19)
(-7.68313 539.834 0)
(-9.53288 533.936 -2.94903e-18)
(-11.3571 526.701 2.94831e-18)
(-13.1506 518.117 -7.38908e-19)
(-14.9079 508.167 0)
(-16.6236 496.834 -7.38262e-19)
(-18.2915 484.097 -2.29631e-18)
(-19.9056 469.931 2.94168e-18)
(-21.4592 454.312 -9.19292e-20)
(-22.9454 437.209 2.11327e-18)
(-24.3568 418.592 -3.02722e-18)
(-25.6853 398.428 1.55853e-18)
(-26.9222 376.681 7.34802e-19)
(-28.0583 353.314 -7.33954e-19)
(-29.0823 328.288 -2.48556e-21)
(-29.9777 301.566 -8.20772e-19)
(-30.7245 273.109 5.48168e-19)
(-31.3329 242.88 1.81518e-19)
(-31.8831 210.829 -6.35359e-19)
(-32.3922 176.921 -7.21607e-19)
(-31.6605 141.205 6.18134e-19)
(-27.3304 103.752 7.28218e-19)
(-34.5851 64.6649 -6.92273e-19)
(-111.066 24.5006 -8.11991e-19)
(111.654 22.7421 -1.15509e-18)
(35.412 63.9105 1.50664e-18)
(27.1335 102.607 0)
(31.285 139.621 -6.46073e-19)
(32.1636 175.327 -2.6216e-18)
(31.6511 209.314 -1.28996e-21)
(31.0534 241.461 4.62447e-18)
(30.4015 271.785 6.60676e-19)
(29.6197 300.32 -3.31255e-18)
(28.7012 327.111 -6.61741e-19)
(27.662 352.198 0)
(26.5156 375.622 -1.33514e-18)
(25.2716 397.421 2.66554e-18)
(23.9391 417.635 1.14033e-21)
(22.5263 436.299 1.07021e-21)
(21.0409 453.447 -6.63932e-19)
(19.4903 469.11 -3.33509e-18)
(17.8812 483.317 6.65349e-19)
(16.2203 496.094 0)
(14.5134 507.465 0)
(12.7666 517.45 6.01846e-18)
(10.9855 526.069 -3.33835e-18)
(9.17536 533.337 0)
(7.34154 539.266 -4.67746e-18)
(5.48889 543.868 1.20214e-17)
(3.62219 547.15 -5.33967e-18)
(1.74637 549.116 -2.66763e-18)
(-0.134456 549.779 0)
(-2.01428 549.148 0)
(-3.89016 547.212 0)
(-5.75682 543.958 6.6356e-19)
(-7.60781 539.382 0)
(-9.43904 533.477 0)
(-11.2457 526.231 -6.64937e-18)
(-13.0228 517.634 5.97517e-18)
(-14.7648 507.668 -2.65382e-18)
(-16.4661 496.315 3.31252e-18)
(-18.1208 483.555 -6.59798e-19)
(-19.7229 469.363 1.32662e-18)
(-21.2659 453.714 -1.3251e-18)
(-22.743 436.578 -4.62004e-18)
(-24.1468 417.925 2.64053e-18)
(-25.4697 397.72 2.63609e-18)
(-26.7035 375.927 1.97676e-18)
(-27.8394 352.507 -6.62698e-19)
(-28.8678 327.422 1.30967e-18)
(-29.7754 300.628 -1.96263e-18)
(-30.5462 272.083 -1.95463e-18)
(-31.1893 241.744 -1.30198e-18)
(-31.7831 209.575 -6.52953e-19)
(-32.2857 175.559 6.40763e-19)
(-31.3676 139.811 0)
(-27.2522 102.707 -1.93225e-18)
(-35.7538 63.9278 1.23854e-18)
(-111.785 22.8378 6.32837e-19)
(112.391 22.4315 1.12595e-19)
(37.2954 62.7501 1.3099e-18)
(27.5835 101.308 0)
(31.3249 138.298 0)
(32.2618 173.908 0)
(31.6597 207.83 1.15977e-18)
(30.9364 239.964 2.31815e-18)
(30.2038 270.303 2.32473e-18)
(29.3769 298.872 -3.48687e-18)
(28.4314 325.704 0)
(27.3768 350.834 1.1719e-18)
(26.2237 374.301 2.33795e-18)
(24.9802 396.144 5.85455e-18)
(23.6534 416.399 -4.6823e-18)
(22.2505 435.103 -1.17596e-18)
(20.7785 452.29 4.68966e-18)
(19.2441 467.99 -3.51334e-18)
(17.6535 482.232 1.17766e-18)
(16.0129 495.042 0)
(14.328 506.443 -3.51802e-18)
(12.6045 516.457 3.52579e-18)
(10.8478 525.101 -5.86848e-18)
(9.06281 532.391 3.51858e-18)
(7.25471 538.341 0)
(5.42821 542.96 4.70569e-18)
(3.58774 546.259 -5.87553e-18)
(1.73738 548.243 -1.18639e-18)
(-0.118018 548.918 -9.39217e-18)
(-1.97515 548.287 9.38705e-18)
(-3.82396 546.344 0)
(-5.66333 543.083 1.17714e-18)
(-7.48797 538.499 -4.6889e-18)
(-9.29358 532.582 6.23648e-22)
(-11.0754 525.321 5.85237e-18)
(-12.8284 516.705 -1.17483e-18)
(-14.5473 506.715 0)
(-16.2269 495.336 0)
(-17.8614 482.545 4.67111e-18)
(-19.4451 468.32 -5.83153e-18)
(-20.9718 452.634 1.16205e-18)
(-22.4351 435.458 1.16082e-18)
(-23.8283 416.761 -1.15947e-18)
(-25.1445 396.511 -1.15798e-18)
(-26.3766 374.67 -1.15634e-18)
(-27.5173 351.201 1.15449e-18)
(-28.559 326.065 -2.30867e-18)
(-29.4912 299.223 1.72737e-18)
(-30.3052 270.639 1.43504e-18)
(-31.0271 240.28 2.78248e-19)
(-31.7438 208.12 -8.81183e-21)
(-32.3394 174.164 -1.14192e-18)
(-31.3892 138.501 1.1212e-18)
(-27.6778 101.412 -1.11168e-18)
(-37.4909 62.7989 1.15469e-18)
(-112.575 22.61 1.09837e-18)
(113.298 22.692 -1.94399e-19)
(38.7986 61.7406 -3.25942e-18)
(28.1305 99.9598 2.09845e-18)
(31.497 137.023 -1.01558e-18)
(32.4228 172.578 -4.09781e-18)
(31.7212 206.441 8.2391e-18)
(30.8713 238.539 -8.26169e-18)
(30.046 268.874 3.10136e-18)
(29.1543 297.459 -1.03324e-18)
(28.1634 324.32 0)
(27.0787 349.487 -5.20327e-18)
(25.908 372.997 7.31398e-21)
(24.6568 394.885 7.31339e-18)
(23.3303 415.188 -5.22986e-18)
(21.9341 433.939 1.04176e-18)
(20.4739 451.172 -4.18945e-18)
(18.9554 466.918 3.14808e-18)
(17.3845 481.203 -1.0443e-18)
(15.7664 494.054 -8.39691e-18)
(14.1065 505.494 6.30017e-18)
(12.4099 515.544 -7.35131e-18)
(10.6817 524.221 1.68185e-17)
(8.9266 531.541 -6.30935e-18)
(7.14921 537.518 0)
(5.35403 542.161 -2.10411e-18)
(3.54545 545.48 -8.54268e-21)
(1.72785 547.481 -5.26868e-18)
(-0.094233 548.168 8.4249e-18)
(-1.91732 547.541 9.4792e-18)
(-3.73601 545.596 1.05673e-18)
(-5.5446 542.329 -1.89553e-17)
(-7.33912 537.734 8.31976e-22)
(-9.1153 531.801 8.42401e-18)
(-10.8686 524.521 0)
(-12.5944 515.881 1.04803e-18)
(-14.2877 505.863 0)
(-15.9436 494.451 -3.15107e-18)
(-17.5569 481.624 8.41169e-18)
(-19.1221 467.359 -3.14926e-18)
(-20.6338 451.629 0)
(-22.0862 434.407 0)
(-23.4735 415.663 1.04437e-18)
(-24.7899 395.362 -1.04415e-18)
(-26.0296 373.471 -1.05137e-18)
(-27.1874 349.954 1.05021e-18)
(-28.2578 324.773 0)
(-29.2328 297.893 0)
(-30.107 269.283 0)
(-30.9136 238.916 1.03362e-18)
(-31.7453 206.779 1.0305e-18)
(-32.4268 172.876 1.02519e-18)
(-31.4755 137.277 -2.03759e-18)
(-28.0807 100.148 1.00696e-18)
(-38.7235 61.8581 1.09168e-20)
(-113.591 22.8205 -9.83148e-19)
(114.462 22.8633 9.6967e-19)
(39.2384 61.0478 -1.03103e-18)
(28.2251 99.0161 -1.00142e-18)
(31.4562 135.995 1.0046e-18)
(32.3702 171.432 0)
(31.5985 205.199 2.05316e-18)
(30.6877 237.237 -4.11933e-18)
(29.8099 267.535 2.0645e-18)
(28.8775 296.103 4.13816e-18)
(27.8557 322.962 1.40634e-21)
(26.7493 348.142 -4.14928e-18)
(25.5656 371.674 -1.03436e-18)
(24.3091 393.592 0)
(22.9842 413.928 5.19943e-18)
(21.5955 432.717 -4.16513e-18)
(20.1479 449.99 -8.33795e-18)
(18.6465 465.775 -1.8847e-21)
(17.0962 480.101 9.39299e-18)
(15.502 492.991 0)
(13.8685 504.469 -7.31396e-18)
(12.2006 514.554 7.31505e-18)
(10.5027 523.264 1.04915e-18)
(8.77944 530.614 6.27038e-18)
(7.03505 536.618 -9.41084e-18)
(5.27385 541.285 2.09094e-18)
(3.49999 544.624 1.04134e-18)
(1.71756 546.641 -9.40485e-18)
(-0.0691296 547.339 8.36562e-18)
(-1.85728 546.719 -1.04104e-18)
(-3.64196 544.774 8.397e-21)
(-5.41706 541.502 2.09051e-18)
(-7.17905 536.896 0)
(-8.92392 530.949 0)
(-10.6473 523.65 9.40256e-18)
(-12.3446 514.985 -9.40021e-18)
(-14.0114 504.94 4.17357e-18)
(-15.6428 493.497 -6.25843e-18)
(-17.2343 480.636 4.1692e-18)
(-18.7808 466.334 -5.20509e-18)
(-20.2775 450.566 4.16374e-18)
(-21.7192 433.305 -8.32209e-18)
(-23.101 414.522 6.23693e-18)
(-24.4179 394.185 -1.03409e-18)
(-25.6652 372.26 1.03293e-18)
(-26.8387 348.715 1.03999e-18)
(-27.9339 323.515 -1.03494e-18)
(-28.9435 296.627 -2.06529e-18)
(-29.8632 268.024 1.03063e-18)
(-30.7282 237.683 0)
(-31.6272 205.595 0)
(-32.3878 171.773 0)
(-31.4622 136.285 -8.69378e-21)
(-28.1879 99.2476 0)
(-39.1795 61.1774 -1.02832e-18)
(-114.776 22.8993 0)
(115.557 22.7172 -1.7706e-18)
(39.265 60.5048 1.29233e-18)
(28.1333 98.3318 9.9826e-19)
(31.3981 135.145 -3.05893e-18)
(32.29 170.461 4.08798e-18)
(31.4741 204.133 2.06471e-18)
(30.5244 236.107 0)
(29.6136 266.367 4.16155e-18)
(28.6535 294.916 1.37339e-21)
(27.6096 321.771 -5.21283e-18)
(26.487 346.959 0)
(25.2928 370.507 0)
(24.0316 392.449 0)
(22.7071 412.816 1.05065e-18)
(21.3235 431.639 4.18913e-18)
(19.8854 448.947 -4.1909e-18)
(18.3971 464.77 8.38848e-18)
(16.8632 479.134 -9.43566e-18)
(15.2881 492.062 0)
(13.6762 503.577 8.39936e-18)
(12.0318 513.697 -8.40078e-18)
(10.3591 522.44 7.35795e-18)
(8.66238 529.821 -1.57642e-17)
(6.94569 535.851 1.78595e-17)
(5.21307 540.542 -1.04605e-18)
(3.46842 543.901 -7.3524e-18)
(1.71538 545.935 1.05513e-18)
(-0.0422971 546.645 -8.41037e-18)
(-1.80185 546.031 9.45892e-18)
(-3.55857 544.087 -1.04642e-18)
(-5.3058 540.811 7.35797e-18)
(-7.04106 536.196 -7.34828e-18)
(-8.76048 530.234 -1.05419e-18)
(-10.4597 522.916 8.52175e-21)
(-12.1343 514.228 1.04489e-18)
(-13.78 504.156 -1.05296e-18)
(-15.3925 492.683 1.04387e-18)
(-16.9673 479.789 -4.19007e-18)
(-18.5 465.452 5.23934e-18)
(-19.986 449.648 0)
(-21.4209 432.352 1.04962e-18)
(-22.8002 413.534 -1.04005e-18)
(-24.1194 393.164 -1.04768e-18)
(-25.3745 371.212 -1.04652e-18)
(-26.5615 347.645 -3.12667e-18)
(-27.6764 322.431 3.11813e-18)
(-28.712 295.541 -3.2261e-22)
(-29.6635 266.95 -1.03541e-18)
(-30.5662 236.639 3.22719e-20)
(-31.5091 204.606 1.51572e-18)
(-32.3199 170.868 -5.12289e-19)
(-31.4194 135.481 1.00699e-18)
(-28.1105 98.5879 0)
(-39.2262 60.6695 0)
(-115.94 22.7938 0)
(116.618 22.5604 9.93121e-19)
(39.2279 60.0627 2.09291e-18)
(28.012 97.7134 4.03536e-18)
(31.339 134.4 3.42736e-20)
(32.2203 169.617 -4.10943e-18)
(31.3705 203.21 2.07546e-18)
(30.3904 235.125 -3.11928e-18)
(29.4536 265.343 -1.0393e-18)
(28.4717 293.865 0)
(27.4103 320.707 -8.60688e-21)
(26.2747 345.892 0)
(25.0723 369.448 -1.05443e-18)
(23.8072 391.404 4.20524e-18)
(22.4831 411.792 -9.46458e-18)
(21.1037 430.64 -8.9393e-22)
(19.6733 447.978 4.21395e-18)
(18.1957 463.832 7.37596e-18)
(16.6752 478.228 -8.43729e-18)
(15.1159 491.19 1.05948e-18)
(13.5217 502.737 8.44556e-18)
(11.8966 512.889 -7.38699e-18)
(10.2447 521.662 -1.06049e-18)
(8.56997 529.07 -1.06071e-18)
(6.87625 535.126 0)
(5.1675 539.839 -8.45407e-18)
(3.4476 543.217 6.34044e-18)
(1.72001 545.265 -1.05264e-18)
(-0.0121067 545.988 -1.06144e-18)
(-1.74355 545.384 1.0689e-18)
(-3.48219 543.442 -1.06081e-18)
(-5.20852 540.163 -9.51143e-18)
(-6.9233 535.54 -2.11187e-18)
(-8.62289 529.566 1.05587e-17)
(-10.3031 522.23 -2.11101e-18)
(-11.9597 513.522 0)
(-13.5887 503.426 1.05037e-18)
(-15.1861 491.926 0)
(-16.7477 479.004 0)
(-18.2696 464.638 -1.0485e-18)
(-19.7476 448.805 4.20745e-18)
(-21.1775 431.48 -5.25174e-18)
(-22.5554 412.636 0)
(-23.8771 392.244 1.04485e-18)
(-25.139 370.274 3.13928e-18)
(-26.3374 346.695 1.04176e-18)
(-27.4684 321.478 -2.09029e-18)
(-28.5246 294.595 1.04298e-18)
(-29.501 266.022 -1.04101e-18)
(-30.4325 235.744 0)
(-31.4083 203.76 -1.03053e-18)
(-32.2556 170.09 -1.02424e-18)
(-31.3683 134.79 2.03644e-18)
(-27.9921 98.0098 -1.00547e-18)
(-39.1868 60.2528 1.17254e-18)
(-117.069 22.6544 -1.87704e-18)
(117.661 22.4299 -9.88719e-19)
(39.1927 59.6954 -1.04681e-18)
(27.8996 97.1919 0)
(31.2922 133.763 -1.02081e-18)
(32.1697 168.887 -4.15403e-18)
(31.2954 202.407 5.2086e-18)
(30.2944 234.266 -1.04229e-18)
(29.3404 264.443 0)
(28.3442 292.939 4.20593e-18)
(27.2713 319.766 -3.16299e-18)
(26.1272 344.947 0)
(24.9194 368.507 1.05155e-18)
(23.6521 390.476 0)
(22.3287 410.882 0)
(20.9529 429.753 0)
(19.5283 447.118 0)
(18.0589 463.002 9.53672e-18)
(16.5484 477.43 -8.48406e-18)
(15.0005 490.423 -1.05684e-18)
(13.4192 502.003 0)
(11.8081 512.186 -3.18969e-18)
(10.1709 520.989 -1.07473e-18)
(8.51154 528.425 -5.30813e-18)
(6.83366 534.506 8.50013e-18)
(5.14109 539.242 0)
(3.4377 542.638 -7.44342e-18)
(1.72718 544.702 -2.08992e-22)
(0.0119411 545.436 1.05895e-18)
(-1.70068 544.841 6.3814e-18)
(-3.42326 542.904 -5.30836e-18)
(-5.13637 539.622 -1.07453e-18)
(-6.83707 534.992 9.55454e-18)
(-8.52277 529.005 -1.05752e-18)
(-10.1896 521.653 -1.07396e-18)
(-11.8336 512.925 2.13024e-18)
(-13.451 502.806 0)
(-15.0379 491.281 4.23926e-18)
(-16.5905 478.331 -6.36419e-18)
(-18.1049 463.937 0)
(-19.5775 448.077 2.10675e-18)
(-21.0042 430.726 -4.22796e-18)
(-22.3814 411.858 -2.1203e-18)
(-23.7053 391.446 0)
(-24.9722 369.46 0)
(-26.1789 345.872 0)
(-27.3213 320.654 -1.05924e-18)
(-28.3919 293.778 -4.20332e-18)
(-29.3853 265.223 1.04654e-18)
(-30.3364 234.976 3.2618e-20)
(-31.3351 203.037 -5.52199e-19)
(-32.2097 169.427 5.17672e-19)
(-31.3282 134.204 -1.01998e-18)
(-27.8784 97.5247 1.01035e-18)
(-39.1432 59.9058 -3.2822e-18)
(-118.181 22.5349 -1.15469e-19)
(118.686 22.3183 0)
(39.1599 59.3734 4.13288e-18)
(27.7981 96.7341 -2.13901e-18)
(31.2634 133.202 -4.1403e-18)
(32.143 168.244 1.04207e-17)
(31.2506 201.697 -4.191e-18)
(30.2349 233.504 -4.20804e-18)
(29.2692 263.643 8.43754e-18)
(28.2634 292.112 -8.45483e-18)
(27.1827 318.924 4.23411e-18)
(26.0331 344.099 6.36999e-18)
(24.8221 367.662 -4.24539e-18)
(23.5538 389.64 0)
(22.2316 410.061 -2.13547e-18)
(20.8587 428.954 -2.13716e-18)
(19.4389 446.343 -2.13866e-18)
(17.9757 462.255 -2.13997e-18)
(16.4726 476.713 0)
(14.9332 489.738 0)
(13.361 501.349 2.143e-18)
(11.7596 511.563 -1.66693e-20)
(10.1325 520.395 -1.66526e-20)
(8.48344 527.859 -1.06744e-17)
(6.81585 533.966 8.54711e-18)
(5.13345 538.724 0)
(3.43991 542.139 0)
(1.7389 544.218 -8.54893e-18)
(0.0331421 544.964 1.71067e-17)
(-1.67341 544.376 -1.70873e-17)
(-3.38273 542.442 4.27369e-18)
(-5.08597 539.158 -1.66264e-20)
(-6.77723 534.521 8.54331e-18)
(-8.45382 528.523 -8.54117e-18)
(-10.1119 521.156 2.12615e-18)
(-11.7478 512.408 -2.12525e-18)
(-13.3576 502.267 -4.26489e-18)
(-14.9376 490.717 4.26301e-18)
(-16.4842 477.742 2.12173e-18)
(-17.9938 463.323 -2.13701e-18)
(-19.4627 447.437 2.11864e-18)
(-20.8874 430.063 -2.13362e-18)
(-22.2643 411.174 2.11485e-18)
(-23.5898 390.744 2.12083e-18)
(-24.8605 368.745 8.18101e-21)
(-26.0731 345.151 2.12408e-18)
(-27.2236 319.932 3.16e-18)
(-28.3044 293.065 4.21659e-18)
(-29.3098 264.527 -1.57794e-18)
(-30.2746 234.308 2.59829e-18)
(-31.2898 202.409 -4.89698e-19)
(-32.1847 168.853 1.55505e-18)
(-31.303 133.697 -1.03182e-18)
(-27.7728 97.1046 0)
(-39.0996 59.6051 2.09469e-18)
(-119.277 22.433 -2.10564e-20)
(119.699 22.2214 -2.14509e-19)
(39.1295 59.0864 -4.50526e-18)
(27.7059 96.3263 0)
(31.2501 132.703 -2.07833e-18)
(32.1371 167.671 -6.2838e-18)
(31.2331 201.065 4.21222e-18)
(30.2087 232.825 0)
(29.237 262.929 0)
(28.2266 291.375 -4.24993e-18)
(27.1427 318.173 8.51358e-18)
(25.9912 343.342 -6.38569e-18)
(24.7799 366.908 0)
(23.5126 388.897 0)
(22.1926 409.335 2.13009e-18)
(20.8232 428.249 2.13186e-18)
(19.4075 445.665 2.13342e-18)
(17.9491 461.606 1.0708e-17)
(16.4513 476.095 -8.57691e-18)
(14.9174 489.152 0)
(13.3509 500.796 -2.13802e-18)
(11.7551 511.042 -6.45005e-18)
(10.1336 519.906 -1.72031e-20)
(8.48982 527.4 8.59282e-18)
(6.82733 533.533 0)
(5.14975 538.314 0)
(3.46069 541.75 2.15719e-18)
(1.76366 543.844 -2.15467e-18)
(0.0613954 544.601 0)
(-1.64274 544.02 -2.14379e-18)
(-3.35077 542.088 -6.43675e-18)
(-5.05185 538.803 1.92787e-17)
(-6.74112 534.158 -1.71519e-17)
(-8.41538 528.149 8.58342e-18)
(-10.0707 520.765 0)
(-11.7035 511.997 0)
(-13.3102 501.832 0)
(-14.8871 490.257 0)
(-16.4307 477.256 0)
(-17.9376 462.809 2.13186e-18)
(-19.4044 446.897 0)
(-20.8277 429.498 2.12833e-18)
(-22.204 410.587 0)
(-23.53 390.139 2.13215e-18)
(-24.8025 368.127 -4.25136e-18)
(-26.0182 344.525 -2.11847e-18)
(-27.1732 319.305 0)
(-28.2598 292.443 -1.05148e-18)
(-29.2721 263.921 -5.28783e-19)
(-30.245 233.726 -2.59483e-18)
(-31.2708 201.861 -3.28371e-20)
(-32.1797 168.351 -1.05816e-18)
(-31.2925 133.254 1.03496e-18)
(-27.6753 96.7364 -2.04333e-18)
(-39.0563 59.342 -9.2751e-19)
(-120.36 22.3462 -9.21584e-19)
(120.701 22.1347 -2.03109e-20)
(39.1 58.8252 0)
(27.6202 95.9549 0)
(31.2484 132.25 2.07213e-18)
(32.1476 167.153 4.21654e-18)
(31.2378 200.493 3.13571e-21)
(30.2102 232.212 -4.25115e-18)
(29.2376 262.285 0)
(28.2274 290.71 -4.27167e-18)
(27.1443 317.496 8.5575e-18)
(25.9946 342.663 -2.13388e-18)
(24.7859 366.234 0)
(23.5219 388.235 0)
(22.2056 408.691 0)
(20.84 427.629 0)
(19.4284 445.072 4.30672e-18)
(17.9739 461.045 -1.07653e-17)
(16.4797 475.568 8.62314e-18)
(14.9489 488.66 -8.62851e-18)
(13.3848 500.339 1.07977e-17)
(11.7909 510.621 8.63551e-18)
(10.1706 519.519 -6.48632e-18)
(8.52735 527.043 -2.16818e-18)
(6.86481 533.205 -8.63042e-18)
(5.18647 538.01 8.6072e-18)
(3.49583 541.467 -2.13633e-18)
(1.79653 543.58 -4.26625e-18)
(0.0919719 544.352 8.52081e-18)
(-1.61566 543.782 -4.23916e-18)
(-3.32792 541.852 8.50759e-18)
(-5.03314 538.561 -2.1352e-18)
(-6.72665 533.906 0)
(-8.40442 527.88 1.06935e-17)
(-10.0623 520.477 -8.5859e-18)
(-11.6966 511.686 0)
(-13.3039 501.497 0)
(-14.8807 489.895 2.16283e-18)
(-16.4238 476.864 -2.16144e-18)
(-17.9299 462.388 -2.14323e-18)
(-19.3956 446.448 4.30018e-18)
(-20.8177 429.022 0)
(-22.193 410.087 2.15414e-18)
(-23.5183 389.619 0)
(-24.7905 367.592 2.14071e-18)
(-26.0065 343.979 -2.13809e-18)
(-27.1626 318.756 3.20969e-18)
(-28.251 291.898 1.07322e-18)
(-29.2658 263.387 5.3133e-19)
(-30.2418 233.212 -5.2988e-19)
(-31.273 201.376 -5.27636e-19)
(-32.1906 167.905 1.55413e-18)
(-31.2935 132.858 -2.07292e-18)
(-27.5842 96.4037 1.01246e-18)
(-39.0138 59.1039 -1.65978e-20)
(-121.432 22.2701 2.00845e-18)
(121.694 22.0552 4.07126e-18)
(39.0714 58.5815 0)
(27.5402 95.6097 0)
(31.2569 131.832 -4.20057e-18)
(32.1725 166.676 -2.4101e-20)
(31.262 199.968 -2.14001e-18)
(30.2364 231.65 4.27228e-18)
(29.2682 261.697 6.43341e-18)
(28.2631 290.104 1.0844e-21)
(27.1856 316.883 -4.30005e-18)
(26.0418 342.051 -2.14539e-18)
(24.8391 365.631 0)
(23.5812 387.648 4.31809e-18)
(22.2707 408.127 -4.32168e-18)
(20.9105 427.092 0)
(19.5033 444.569 -2.17274e-18)
(18.0523 460.578 -2.15792e-18)
(16.5602 475.139 0)
(15.0301 488.272 0)
(13.4653 499.992 -1.08402e-17)
(11.869 510.315 8.68152e-18)
(10.2446 519.251 8.68492e-18)
(8.59581 526.813 -1.73901e-17)
(6.92618 533.009 1.95317e-17)
(5.23961 537.847 -8.65419e-18)
(3.54021 541.33 8.62519e-18)
(1.83227 543.464 -4.29449e-18)
(0.120192 544.249 -8.58503e-18)
(-1.59604 543.686 -1.50079e-17)
(-3.31749 541.758 8.577e-18)
(-5.03134 538.463 -1.60009e-20)
(-6.73335 533.795 0)
(-8.41897 527.751 -1.07417e-17)
(-10.0843 520.322 1.07753e-17)
(-11.7251 511.501 -6.48117e-18)
(-13.3374 501.278 4.33193e-18)
(-14.918 489.642 -4.33235e-18)
(-16.4635 476.576 -2.17273e-18)
(-17.9707 462.066 2.74145e-22)
(-19.4364 446.093 0)
(-20.8575 428.635 2.16749e-18)
(-22.2309 409.672 -2.14897e-18)
(-23.5538 389.179 0)
(-24.8231 367.133 4.3119e-18)
(-26.0362 343.506 -2.14906e-18)
(-27.1893 318.275 -2.13709e-18)
(-28.275 291.417 -2.13286e-18)
(-29.2876 262.913 0)
(-30.2617 232.753 -2.17141e-18)
(-31.2928 200.941 5.63392e-19)
(-32.2139 167.502 2.62424e-18)
(-31.3029 132.498 -7.4781e-21)
(-27.4974 96.0991 1.032e-18)
(-38.9714 58.8849 2.12136e-18)
(-122.496 22.2018 0)
(122.677 21.9799 -2.03721e-18)
(39.0438 58.3481 1.10074e-19)
(27.4648 95.2818 2.17906e-18)
(31.2738 131.437 0)
(32.2098 166.227 0)
(31.3037 199.477 2.13103e-18)
(30.2852 231.127 0)
(29.3266 261.151 2.16081e-18)
(28.3319 289.546 1.05512e-21)
(27.2649 316.321 -4.32172e-18)
(26.1314 341.494 0)
(24.9389 365.088 2.1755e-18)
(23.6904 387.126 0)
(22.3884 407.633 -4.34473e-18)
(21.0353 426.633 4.34808e-18)
(19.6337 444.149 2.16784e-18)
(18.1863 460.201 2.18557e-18)
(16.6956 474.809 1.09029e-17)
(15.1648 487.989 7.09991e-22)
(13.5967 499.757 -1.74494e-17)
(11.9947 510.126 8.72804e-18)
(10.3623 519.107 0)
(8.70317 526.711 -4.36709e-18)
(7.02141 532.943 -2.17612e-18)
(5.32125 537.812 1.74736e-17)
(3.60714 541.321 -8.73745e-18)
(1.88389 543.474 1.31066e-17)
(0.156912 544.274 -8.74471e-18)
(-1.57702 543.719 6.53943e-18)
(-3.31751 541.792 0)
(-5.0486 538.489 -1.60704e-20)
(-6.76645 533.806 -8.73163e-18)
(-8.46585 527.74 8.72888e-18)
(-10.1428 520.285 -4.3531e-18)
(-11.7937 511.433 -2.18198e-18)
(-13.4149 501.174 2.16955e-18)
(-15.0024 489.499 4.35539e-18)
(-16.5526 476.393 4.35225e-18)
(-18.0623 461.841 -4.36539e-18)
(-19.5284 445.828 0)
(-20.948 428.332 -2.16251e-18)
(-22.3182 409.334 0)
(-23.6363 388.811 0)
(-24.8998 366.739 7.93632e-21)
(-26.1062 343.093 7.874e-21)
(-27.2521 317.85 1.07792e-18)
(-28.3303 290.987 -2.15173e-18)
(-29.3354 262.485 1.61003e-18)
(-30.3024 232.336 1.6307e-18)
(-31.3283 200.542 -2.70704e-18)
(-32.248 167.131 5.30521e-19)
(-31.3195 132.162 1.04407e-18)
(-27.4146 95.8155 -2.98752e-18)
(-38.929 58.679 -3.24956e-18)
(-123.551 22.1385 -1.13853e-18)
(123.652 21.907 0)
(39.0163 58.1211 -2.1478e-18)
(27.3931 94.9638 4.16706e-18)
(31.2983 131.055 -8.44878e-18)
(32.2586 165.796 4.2528e-18)
(31.3623 199.007 -4.29815e-18)
(30.3563 230.629 2.14931e-18)
(29.413 260.634 -4.32589e-18)
(28.4346 289.021 2.17466e-18)
(27.3837 315.797 4.34324e-18)
(26.266 340.981 0)
(25.0882 364.595 -4.35671e-18)
(23.8534 386.662 -2.189e-18)
(22.5633 407.205 0)
(21.2199 426.248 -2.19338e-18)
(19.8254 443.811 0)
(18.3821 459.916 -2.18085e-18)
(16.8925 474.578 8.77763e-18)
(15.3593 487.815 6.2547e-22)
(13.7854 499.64 -1.75417e-17)
(12.1742 510.065 1.0976e-17)
(10.5291 519.1 0)
(8.85429 526.752 4.39041e-18)
(7.15387 533.029 2.39458e-22)
(5.43241 537.936 -8.78358e-18)
(3.69471 541.476 0)
(1.94608 543.653 -1.09729e-17)
(0.193491 544.468 8.79229e-18)
(-1.57325 543.921 -2.18611e-18)
(-3.3352 541.99 0)
(-5.08941 538.674 4.39041e-18)
(-6.82922 533.971 0)
(-8.54873 527.878 -2.20175e-18)
(-10.2438 520.388 1.09565e-17)
(-11.9103 511.497 -1.09514e-17)
(-13.5441 501.194 6.56389e-18)
(-15.1412 489.471 2.19707e-18)
(-16.698 476.316 -1.0946e-17)
(-18.2111 461.715 2.17821e-18)
(-19.6776 445.652 6.54387e-18)
(-21.0946 428.11 -4.36384e-18)
(-22.4597 409.068 0)
(-23.7703 388.507 8.11663e-21)
(-25.0243 366.402 4.35592e-18)
(-26.2197 342.73 -2.16256e-18)
(-27.3535 317.468 -2.17476e-18)
(-28.419 290.594 0)
(-29.4104 262.091 -2.16497e-18)
(-30.3644 231.947 -3.36105e-20)
(-31.3804 200.169 2.16857e-18)
(-32.2941 166.781 -1.06e-18)
(-31.3444 131.846 -2.10278e-18)
(-27.3358 95.5462 2.01168e-18)
(-38.8863 58.4816 1.02231e-18)
(-124.599 22.0781 2.04399e-18)
(124.619 21.8344 -2.07981e-18)
(38.9892 57.8958 0)
(27.3253 94.6486 0)
(31.3303 130.678 0)
(32.3194 165.371 0)
(31.4386 198.545 0)
(30.4517 230.141 2.15909e-18)
(29.5301 260.132 4.34673e-18)
(28.5742 288.515 -6.52634e-18)
(27.5456 315.298 2.19045e-18)
(26.4496 340.5 4.37267e-18)
(25.2924 364.141 2.18199e-18)
(24.076 386.245 -4.39952e-18)
(22.8018 406.833 2.18678e-18)
(21.4711 425.929 -6.59759e-18)
(20.0857 443.552 4.39671e-18)
(18.6474 459.72 0)
(17.1585 474.45 -2.19376e-18)
(15.6213 487.756 2.21088e-18)
(14.0389 499.65 2.21204e-18)
(12.4145 510.142 -1.32313e-17)
(10.7519 519.24 1.10378e-17)
(9.05529 526.951 1.32403e-17)
(7.32935 533.281 -1.76578e-17)
(5.579 538.233 1.76607e-17)
(3.80956 541.81 2.21568e-18)
(2.02683 544.015 -8.8314e-18)
(0.237847 544.847 -2.21775e-18)
(-1.56824 544.305 -4.39575e-18)
(-3.36017 542.366 1.7659e-17)
(-5.14648 539.034 -1.98542e-17)
(-6.91666 534.306 8.82506e-18)
(-8.66479 528.178 -1.56894e-20)
(-10.3858 520.647 -8.81781e-18)
(-12.0748 511.706 4.40691e-18)
(-13.7271 501.349 2.20989e-18)
(-15.3383 489.567 2.20844e-18)
(-16.9048 476.351 4.39786e-18)
(-18.4232 461.688 6.59916e-18)
(-19.8904 445.564 -4.40625e-18)
(-21.3041 427.964 0)
(-22.6618 408.869 0)
(-23.9617 388.258 1.58206e-20)
(-25.2021 366.112 -2.17679e-18)
(-26.3815 342.406 -2.18115e-18)
(-27.4977 317.118 3.25847e-18)
(-28.5444 290.227 1.08653e-18)
(-29.5166 261.716 2.15946e-18)
(-30.4515 231.574 2.16887e-18)
(-31.4513 199.808 0)
(-32.3529 166.442 -1.0649e-18)
(-31.3775 131.538 5.28606e-18)
(-27.2608 95.2818 3.18238e-18)
(-38.8434 58.2873 -1.02613e-18)
(-125.638 22.0186 -2.07557e-18)
(125.577 21.7603 2.07143e-18)
(38.9627 57.6673 0)
(27.262 94.3288 0)
(31.371 130.294 4.27813e-18)
(32.3938 164.94 -4.29203e-18)
(31.535 198.078 -2.17731e-18)
(30.5742 229.65 0)
(29.6819 259.629 2.19127e-18)
(28.7557 288.012 -2.19654e-18)
(27.7571 314.809 -2.18525e-18)
(26.6901 340.035 -2.20466e-18)
(25.5598 363.713 2.20787e-18)
(24.3677 385.864 6.60107e-18)
(23.1142 406.511 -1.5162e-20)
(21.8 425.673 2.21585e-18)
(20.4262 443.369 -2.20166e-18)
(18.994 459.616 -2.21918e-18)
(17.5054 474.428 -2.22075e-18)
(15.9625 487.818 6.65124e-18)
(14.3684 499.795 -1.32935e-17)
(12.7264 510.368 2.20886e-18)
(11.0405 519.544 1.55245e-20)
(9.31537 527.326 -1.10836e-17)
(7.55629 533.719 -1.32037e-22)
(5.76886 538.725 6.64988e-18)
(3.9592 542.345 -2.21165e-18)
(2.13383 544.581 -4.45442e-18)
(0.299496 545.433 2.21395e-18)
(-1.54718 544.897 3.09004e-20)
(-3.38877 542.951 -8.87596e-18)
(-5.22083 539.599 2.16289e-23)
(-7.03407 534.839 8.87126e-18)
(-8.82219 528.668 4.43386e-18)
(-10.5789 521.083 0)
(-12.2985 512.08 -1.55108e-20)
(-13.9758 501.654 2.22121e-18)
(-15.6062 489.798 -6.62809e-18)
(-17.1857 476.505 1.55612e-20)
(-18.7109 461.765 1.55778e-20)
(-20.1791 445.565 2.19844e-18)
(-21.588 427.892 6.61951e-18)
(-22.9357 408.729 -2.19386e-18)
(-24.2209 388.057 -4.38928e-18)
(-25.4426 365.857 -7.65411e-21)
(-26.6001 342.107 7.95065e-21)
(-27.6919 316.785 4.38387e-18)
(-28.7128 289.87 0)
(-29.6585 261.346 -5.44429e-19)
(-30.5671 231.203 -1.62052e-18)
(-31.5436 199.445 0)
(-32.4266 166.1 -2.15776e-18)
(-31.4202 131.228 -2.1141e-18)
(-27.1907 95.0152 -2.08114e-18)
(-38.8008 58.0913 -1.23182e-18)
(-126.669 21.9583 2.99391e-18)
(126.527 21.6827 0)
(38.9373 57.4304 4.26587e-18)
(27.2041 93.996 -1.05635e-19)
(31.422 129.894 4.29703e-18)
(32.4844 164.489 2.48091e-20)
(31.655 197.59 -4.37092e-18)
(30.7284 229.138 0)
(29.8741 259.108 -8.7752e-18)
(28.9869 287.496 6.58911e-18)
(28.027 314.312 0)
(26.9973 339.572 -2.21556e-18)
(25.9019 363.298 2.21826e-18)
(24.741 385.51 -2.20625e-18)
(23.514 406.228 6.64091e-18)
(22.2206 425.472 1.54373e-20)
(20.8612 443.259 1.5418e-20)
(19.4363 459.603 2.21483e-18)
(17.9475 474.516 4.44836e-18)
(16.3966 488.009 0)
(14.7867 500.088 8.8927e-18)
(13.1212 510.76 1.8118e-22)
(11.4045 520.029 1.5426e-20)
(9.64197 527.897 -8.91902e-18)
(7.83953 534.365 -8.92143e-18)
(6.00368 539.436 1.11461e-17)
(4.14157 543.107 8.9241e-18)
(2.2609 545.38 -8.95488e-18)
(0.369598 546.255 0)
(-1.53266 545.727 -2.20563e-18)
(-3.43719 543.773 0)
(-5.32791 540.396 0)
(-7.19704 535.595 -8.91726e-18)
(-9.03642 529.368 6.69302e-18)
(-10.8384 521.715 0)
(-12.5968 512.634 6.67085e-18)
(-14.3059 502.122 -2.21722e-18)
(-15.9605 490.174 6.6772e-18)
(-17.5564 476.786 -6.65668e-18)
(-19.0901 461.949 3.79201e-25)
(-20.5591 445.654 -4.43475e-18)
(-21.9613 427.89 -2.20719e-18)
(-23.2956 408.642 -4.42452e-18)
(-24.5612 387.893 -2.21707e-18)
(-25.758 365.626 2.1984e-18)
(-26.8864 341.819 -2.19477e-18)
(-27.946 316.453 -2.19063e-18)
(-28.9326 289.507 0)
(-29.8431 260.964 0)
(-30.7167 230.816 0)
(-31.6616 199.066 -2.7142e-19)
(-32.5181 165.741 3.49668e-18)
(-31.4745 130.903 -1.07082e-18)
(-27.1272 94.7365 -1.10453e-18)
(-38.7598 57.8874 1.03363e-18)
(-127.693 21.8945 2.09805e-18)
(127.468 21.5992 0)
(38.9132 57.179 -9.76422e-20)
(27.1527 93.6409 -2.2139e-18)
(31.4852 129.464 -4.29591e-18)
(32.594 164.002 4.35544e-18)
(31.8032 197.062 -4.39045e-18)
(30.9205 228.586 0)
(30.1147 258.549 6.60427e-18)
(29.2772 286.946 -6.62055e-18)
(28.3668 313.789 4.42765e-18)
(27.3847 339.093 0)
(26.3336 362.879 0)
(25.2123 385.167 -6.6658e-18)
(24.0187 405.975 2.21936e-18)
(22.7514 425.321 1.52058e-20)
(21.4097 443.22 -4.46329e-18)
(19.9935 459.684 -4.46736e-18)
(18.5037 474.722 1.34274e-17)
(16.942 488.34 -8.94753e-18)
(15.3112 500.545 2.23065e-18)