/*--------------------------------*- C++ -*----------------------------------*\
| =========                 |                                                 |
| \\      /  F ield         | OpenFOAM: The Open Source CFD Toolbox           |
|  \\    /   O peration     | Version:  2212                                  |
|   \\  /    A nd           | Website:  www.openfoam.com                      |
|    \\/     M anipulation  |                                                 |
\*---------------------------------------------------------------------------*/
FoamFile
{
    version     2.0;
    format      ascii;
    arch        "LSB;label=32;scalar=64";
    class       surfaceScalarField;
    location    "0.00896";
    object      phi;
}
// * * * * * * * * * * * * * * * * * * * * * * * * * * * * * * * * * * * * * //

dimensions      [1 0 -1 0 0 0 0];

oriented        oriented;

internalField   nonuniform List<scalar> 
5190
(
0.000320613
0.000180189
-0.000576436
-0.000286147
1.04811e-05
0.000334817
-4.24154e-05
-0.000240197
0.000192951
-0.000159917
-0.000111091
0.000204855
4.29845e-06
-4.35127e-06
-3.0802e-06
2.32094e-06
7.73693e-05
0.000343301
-3.79809e-05
-0.00032027
6.48487e-05
0.000326846
3.0574e-05
-0.000301281
1.15118e-06
3.71797e-07
-1.28547e-06
-2.98207e-07
4.12003e-06
-4.23772e-06
3.38763e-06
-3.90574e-06
-4.27541e-06
3.86847e-06
5.25265e-06
-5.60384e-06
-4.76595e-06
6.12819e-06
-6.61669e-06
3.33734e-06
-3.03499e-06
3.17045e-06
1.02596e-05
-1.76087e-05
1.56837e-05
-1.13508e-05
-1.51278e-05
9.30163e-06
1.3377e-05
4.59695e-05
-4.81787e-05
4.64133e-05
-5.31484e-05
1.31066e-05
1.94088e-05
-1.66474e-05
-1.92968e-05
2.04904e-05
2.67072e-05
-2.2238e-05
-3.00814e-05
2.58935e-05
3.53957e-05
-3.22401e-05
-3.49667e-05
-3.73573e-06
4.20199e-06
-4.1587e-06
2.99221e-06
-3.76083e-06
4.81376e-06
-5.67106e-06
5.60776e-06
-7.75962e-06
-2.68132e-06
-8.49134e-06
6.14979e-06
-7.84915e-06
8.73771e-06
9.92634e-06
-1.08633e-05
1.2677e-05
-1.44934e-05
9.12237e-06
1.03426e-05
-1.1839e-05
8.39034e-06
-9.61017e-06
1.19001e-05
-1.96454e-05
-1.72176e-05
2.31625e-06
-3.03308e-06
4.23369e-06
-2.70733e-06
2.22557e-06
3.04113e-06
3.86747e-06
-5.00126e-06
3.64764e-06
-4.23576e-06
5.35991e-06
4.64108e-06
5.37405e-06
-6.64151e-06
6.26351e-06
5.81541e-06
-5.58052e-06
7.47874e-06
-8.33579e-06
9.27226e-06
7.68322e-06
1.13097e-05
-1.37711e-05
1.04749e-05
-1.33834e-05
1.38939e-05
-1.43713e-05
1.46957e-05
-1.7483e-05
1.84652e-05
-1.59319e-05
-2.07164e-05
-1.2358e-05
1.11812e-05
1.62576e-05
-2.17716e-05
2.09917e-05
-1.56468e-05
-1.01284e-05
8.07194e-06
1.02622e-05
1.28616e-05
-6.22347e-06
5.36189e-06
8.36111e-06
-9.02182e-06
9.08522e-06
-8.97815e-06
-3.38391e-05
-9.15689e-06
-1.74862e-06
8.28771e-05
7.07775e-06
-7.76471e-06
3.44635e-06
4.58228e-06
-4.80307e-06
2.27942e-06
1.81266e-06
-2.4351e-06
-2.2482e-06
-2.96547e-06
2.42564e-06
3.48835e-06
-3.53332e-06
4.00511e-06
-2.37495e-05
-1.8199e-05
3.3221e-05
2.41748e-05
-3.74431e-05
3.81718e-06
-4.28779e-06
-4.43471e-06
3.25647e-06
3.59124e-06
-3.65394e-06
-8.31409e-06
7.49202e-06
1.18551e-05
-9.15273e-06
1.38212e-05
2.5296e-06
1.75176e-06
-2.72223e-06
3.00404e-06
-3.04156e-06
1.89337e-06
1.96895e-06
-2.4636e-06
3.39624e-06
2.91673e-06
1.4764e-06
4.88066e-06
-5.59258e-06
-6.01355e-06
-4.46081e-06
7.55034e-06
-8.94487e-06
-8.31461e-06
-7.26503e-06
1.04273e-05
-1.19329e-05
-1.30824e-05
-1.03674e-05
1.31513e-05
-1.26018e-05
-2.15598e-05
-1.6559e-05
8.76424e-07
4.79615e-07
-6.83807e-07
-7.71961e-07
-2.7893e-05
-8.53632e-06
-1.84079e-05
1.60267e-05
-2.26082e-05
-2.63476e-05
-1.30945e-05
-1.48114e-05
1.10128e-05
-1.84982e-05
1.77439e-05
-1.30539e-05
6.51685e-07
-7.54656e-07
4.71038e-07
-4.1811e-07
3.90257e-05
-5.39649e-05
5.22743e-05
0.000297429
-7.52514e-05
-0.000248705
7.45493e-05
2.3349e-06
-2.66346e-06
3.85071e-06
-2.10815e-06
1.62934e-06
2.84379e-06
3.38797e-06
3.11822e-06
-3.61384e-06
5.05021e-06
4.34394e-06
4.16588e-06
-5.20152e-06
6.22829e-06
5.47557e-06
5.98996e-06
-6.76679e-06
8.40029e-06
7.13423e-06
1.00435e-05
-7.42233e-06
7.96701e-06
1.29084e-05
1.42078e-05
-3.76031e-06
-7.24961e-06
6.05068e-06
9.47852e-06
1.1153e-05
-5.1902e-06
4.71087e-06
7.55498e-06
8.3633e-06
-4.19726e-06
3.79772e-06
5.72134e-06
6.57107e-06
-3.35516e-06
2.93539e-06
4.4105e-06
5.03315e-06
3.8977e-06
3.07264e-06
-3.12263e-06
2.6872e-06
-2.84123e-06
2.27921e-06
-1.03052e-05
1.57956e-05
2.11946e-05
-2.81702e-05
-2.73955e-05
2.95947e-05
2.1526e-05
-2.09147e-05
2.3417e-05
-1.95939e-05
1.17932e-06
2.36359e-06
1.50345e-06
-1.97108e-06
3.19631e-06
1.04601e-06
2.72289e-06
-2.88817e-05
2.57398e-05
-3.10876e-05
3.37313e-05
-3.14506e-05
-3.74584e-05
2.85518e-05
-2.75973e-05
2.97116e-05
-2.41558e-05
-9.84653e-06
7.44352e-06
1.34977e-05
-1.35165e-05
1.53983e-05
-2.08535e-05
-1.66093e-05
1.85345e-05
-1.22362e-05
1.4916e-05
3.03216e-06
-3.65858e-06
-3.11427e-06
-2.61341e-06
2.61649e-06
2.09108e-06
-2.61667e-06
2.43049e-06
-2.47098e-05
-1.18968e-05
1.34851e-05
1.89434e-05
-4.52759e-05
4.84369e-05
3.72256e-05
-4.83424e-05
2.25522e-05
-3.43126e-05
-4.20634e-05
-0.000219328
0.000238519
-0.000104393
-2.0115e-05
1.81127e-05
-1.18272e-05
-1.54473e-05
-1.74984e-05
-2.19902e-06
2.04015e-06
8.31765e-07
0.000341153
-0.00017981
0.000116779
1.28739e-06
-0.000157012
-0.000121446
0.000133087
9.85672e-05
-7.15073e-05
5.21071e-05
-3.9668e-05
4.58011e-06
-4.8663e-06
-3.66724e-06
-3.02173e-06
3.76617e-06
5.73648e-06
-7.05682e-06
-5.92313e-06
-4.58432e-06
8.68315e-06
-1.02197e-05
-8.84843e-06
-7.21845e-06
1.21941e-05
-1.44478e-05
-1.40533e-05
-1.1027e-05
1.68847e-05
-2.0123e-05
-2.2837e-05
-1.79433e-05
-2.7785e-05
-2.08093e-05
1.83447e-05
-2.48948e-05
-2.99009e-05
-1.56937e-05
-1.62864e-05
1.33712e-05
-2.01188e-05
2.40444e-05
-5.54798e-05
-1.41335e-05
0.00128363
-0.00090593
0.00125397
-0.00106028
4.30242e-06
-4.32942e-06
-4.97004e-06
-3.6425e-06
1.10322e-06
-1.50145e-06
2.60048e-06
-7.05991e-07
1.86811e-06
4.09201e-07
2.18286e-06
1.85916e-06
-2.21961e-06
3.49832e-06
3.05801e-06
2.62072e-06
-2.93808e-06
4.59068e-06
4.00495e-06
3.54335e-06
-4.04275e-06
5.74043e-06
5.22903e-06
4.78877e-06
-5.33773e-06
7.52706e-06
6.70058e-06
5.96267e-06
-6.44841e-06
1.03152e-05
8.95516e-06
7.06974e-06
-7.81399e-06
1.37898e-05
1.20676e-05
5.12889e-05
-5.29889e-05
-5.31154e-05
1.59226e-05
-8.81807e-06
-6.66731e-06
6.17152e-06
1.11054e-05
1.26259e-05
-5.53599e-06
4.81534e-06
8.52393e-06
9.76667e-06
-4.23127e-06
3.89968e-06
6.82258e-06
7.61426e-06
-3.54707e-06
3.18253e-06
5.37289e-06
6.0607e-06
-2.82389e-06
2.40792e-06
4.21417e-06
4.76398e-06
3.68965e-06
2.56866e-06
-2.59407e-06
1.39155e-06
-2.488e-06
6.36192e-07
2.31209e-06
1.01303e-06
1.74242e-06
4.6763e-07
-8.58519e-07
-4.41939e-07
6.06256e-07
-1.48837e-06
1.77003e-06
-2.71708e-06
1.88365e-06
2.06416e-06
-3.2865e-06
-8.43543e-07
2.59812e-05
-4.34429e-05
-3.28813e-05
3.877e-05
-4.41064e-05
4.42297e-05
-3.61691e-05
2.53376e-05
-2.23752e-05
-2.3011e-05
-1.36878e-05
2.09556e-05
2.64407e-05
-2.13362e-05
-3.62456e-07
-1.42777e-08
1.8276e-06
1.95788e-05
-2.34179e-05
-1.66847e-05
1.74074e-05
-1.35473e-05
3.39138e-06
-4.0863e-06
-3.03051e-06
2.75409e-06
-2.58148e-06
3.39281e-05
-2.87103e-05
3.24544e-05
-2.70191e-05
1.79708e-06
-1.89411e-06
5.31476e-07
1.66694e-06
1.86579e-07
0.00014545
-2.41178e-07
-0.000130317
-6.6774e-06
-2.08535e-07
0.000160783
-6.24714e-06
-0.000145502
0.000160853
-6.72028e-06
-0.000130349
-7.19754e-06
1.95831e-06
-2.104e-06
3.17754e-07
2.81894e-07
-6.24049e-07
2.0653e-06
4.64997e-08
1.76454e-06
4.41575e-06
-3.21398e-06
1.87316e-05
-2.34838e-05
3.42731e-05
-4.87843e-05
-8.10193e-07
4.06673e-07
6.65186e-07
1.60299e-06
1.89341e-06
-2.25051e-06
0.00186499
0.00212203
-0.00196016
-0.00201109
-3.75323e-05
2.41652e-05
6.73753e-06
1.6692e-05
5.75163e-05
-0.000209465
0.000159582
-6.83791e-05
-1.73688e-05
-1.90029e-05
-1.47491e-06
0.000452837
8.84945e-07
-1.9347e-06
4.89421e-05
-0.000130402
-9.05363e-05
0.000140621
3.45995e-06
-4.19789e-06
-2.6604e-06
2.6383e-06
-2.07955e-06
2.14852e-06
4.89207e-06
-5.73596e-06
-3.76985e-06
-3.15667e-06
6.76334e-06
-8.19466e-06
-5.89985e-06
-4.67586e-06
9.94894e-06
-1.20198e-05
-9.1265e-06
-7.26828e-06
1.4513e-05
-1.74385e-05
-1.47508e-05
-1.1516e-05
2.07839e-05
-2.47831e-05
-2.37472e-05
-1.88391e-05
2.91487e-05
-3.18379e-05
-3.49707e-05
-2.9107e-05
-4.23412e-05
-2.44612e-05
2.18335e-05
-2.75882e-05
-3.46008e-05
-1.87711e-05
1.56247e-05
-1.71695e-05
-2.16854e-05
-1.26577e-05
1.01166e-05
-1.05791e-05
1.03779e-05
-1.35438e-05
1.30764e-05
-8.1063e-06
6.69969e-06
-6.43201e-06
6.3741e-06
-8.18354e-06
8.11999e-06
-5.65407e-06
4.80647e-06
-4.25674e-06
-5.14045e-06
5.1608e-06
-3.57531e-06
0.000176429
-1.71831e-07
-5.74575e-06
0.000192483
-1.10645e-07
-5.17764e-06
0.000209222
-4.343e-08
-4.66013e-06
0.000226663
9.87261e-09
-4.17385e-06
0.000244654
1.57551e-07
-3.82058e-06
0.000263384
3.75181e-07
-4.03248e-06
0.000283423
7.04879e-07
-5.38471e-06
0.000304129
1.67105e-06
-7.88504e-06
0.000324807
4.19459e-06
-1.42322e-05
7.00573e-06
0.000343737
-2.4741e-05
0.000342471
-0.000323607
-1.0922e-05
0.000356613
1.11196e-05
-4.14975e-05
1.4032e-05
0.000353139
-6.83191e-05
-0.00035541
0.000347691
-4.00307e-05
-1.99849e-05
0.000302594
-0.000282535
-3.96634e-06
-6.26702e-06
0.000263117
-0.000244397
-3.47098e-06
-3.49729e-06
0.000226431
-0.000209157
-4.17071e-06
-3.67598e-06
0.000192529
-0.000176499
-5.4645e-06
-4.76293e-06
-6.14346e-06
7.07981e-07
-1.033e-06
2.30386e-06
2.00341e-06
1.3652e-06
-1.71445e-06
3.12008e-06
2.70625e-06
2.07651e-06
-2.41032e-06
4.1415e-06
3.61473e-06
2.71866e-06
-3.19839e-06
5.31124e-06
4.70832e-06
3.68542e-06
-4.22864e-06
6.83326e-06
6.12638e-06
4.59132e-06
-5.01863e-06
9.01117e-06
7.84662e-06
5.40885e-06
-5.77876e-06
1.17796e-05
1.04123e-05
0.00151213
-0.00167155
0.00152095
1.33276e-05
-5.92411e-06
1.70285e-05
-2.2118e-05
5.68204e-06
-1.00806e-05
8.47749e-06
1.57879e-05
1.94192e-05
-2.21808e-05
-1.47222e-05
1.33703e-05
-2.04024e-05
-1.21706e-05
1.54092e-05
1.88114e-05
-7.05491e-06
6.05346e-06
1.20708e-05
1.35785e-05
-5.56141e-06
4.95141e-06
9.73238e-06
1.09304e-05
-4.38271e-06
3.83967e-06
7.63573e-06
8.61361e-06
-3.45913e-06
3.1575e-06
6.16537e-06
6.83318e-06
-2.88133e-06
2.58302e-06
4.94089e-06
5.52851e-06
-2.25878e-06
1.87687e-06
3.85637e-06
4.37936e-06
-1.45697e-06
1.02916e-06
2.86036e-06
3.33752e-06
2.42541e-06
2.1889e-06
-2.21255e-06
9.60189e-07
6.3429e-07
2.21746e-06
-2.21851e-06
1.55497e-06
1.25637e-06
2.21097e-06
-2.17293e-06
2.13963e-06
1.85112e-06
0.000284978
0.000362383
-0.000602268
-0.000531068
0.00270538
-0.00274241
0.00110088
-0.000883959
2.95294e-05
-2.32913e-05
-2.60695e-05
-1.52379e-05
2.32218e-05
-2.58267e-05
-1.73898e-05
2.9294e-05
-2.35602e-05
-1.33378e-07
1.47889e-06
3.6476e-05
-6.75933e-05
-2.80957e-05
-2.67223e-07
-6.99608e-06
-0.000115471
-7.54589e-06
-0.000115493
-2.3e-07
1.35812e-06
3.7324e-07
0.00401307
0.00241336
-0.00182037
-0.00419425
0.000331002
-0.000317657
-4.03865e-05
0.000334215
-6.63562e-05
3.88341e-05
-2.99906e-05
-0.000223938
-5.78905e-05
-0.000106256
4.88976e-05
-2.47806e-05
-1.46122e-05
-3.81966e-05
3.62439e-05
-3.14692e-05
-1.53703e-06
1.62892e-06
1.34234e-06
-1.47305e-06
1.56802e-06
-0.00011569
0.000130612
-1.402e-05
-7.30079e-06
-2.78802e-07
-0.000100927
-1.47009e-05
-0.000101135
1.68646e-06
-1.80395e-06
1.19711e-07
1.56103e-06
-8.76631e-08
-1.35264e-08
-2.59517e-07
1.80488e-06
-1.73246e-07
1.5752e-06
-2.01728e-05
0.000309033
-8.63052e-05
0.000302539
-0.000122468
-2.21948e-05
-3.73845e-06
1.9498e-05
-2.47866e-05
-6.8672e-06
6.05936e-06
4.91769e-05
-4.24598e-05
-3.81529e-05
-2.12401e-05
-8.44936e-06
1.96862e-05
6.75392e-06
-2.44298e-05
-1.2821e-05
0.000131651
-0.000175559
8.00573e-05
-7.78648e-05
-6.90284e-05
8.09788e-05
0.00010482
-0.000135188
5.63588e-05
3.33291e-07
-3.37435e-07
2.46236e-07
-3.53954e-07
2.41725e-06
-3.06795e-06
-2.09493e-06
-1.84636e-06
1.87748e-06
1.58882e-06
-1.77498e-06
1.81775e-06
-1.86962e-05
-2.04021e-05
-1.4702e-06
-1.50257e-07
1.32135e-06
1.58493e-06
-1.65636e-06
3.15339e-07
6.88329e-08
1.70369e-06
-1.66958e-06
8.72122e-07
-1.28742e-06
5.9481e-07
1.1394e-06
3.75029e-06
-4.52909e-06
-2.68397e-06
-2.37584e-06
5.40581e-06
-6.42169e-06
-3.77754e-06
-3.16722e-06
7.70025e-06
-9.40918e-06
-5.77794e-06
-4.64621e-06
1.14287e-05
-1.40213e-05
-9.16033e-06
-7.29952e-06
1.71118e-05
-2.07282e-05
-1.50938e-05
-1.17221e-05
2.48612e-05
-2.9365e-05
-2.45541e-05
-1.93248e-05
3.37596e-05
-3.68014e-05
-3.94604e-05
-3.10024e-05
-5.16807e-05
4.30394e-05
-4.25426e-05
-9.47371e-05
-8.3208e-05
8.84379e-05
-3.4753e-05
3.28845e-05
-5.11531e-05
-6.34065e-05
-3.90928e-05
-3.01933e-05
2.64839e-05
-3.00466e-05
-3.95715e-05
-2.24364e-05
1.85507e-05
-1.7621e-05
-2.27512e-05
-1.50114e-05
1.19981e-05
-1.06037e-05
-1.37084e-05
-9.5394e-06
7.71326e-06
-6.34527e-06
-8.10575e-06
-6.37752e-06
5.36259e-06
-4.13126e-06
-5.03533e-06
-4.53074e-06
3.7834e-06
-2.90885e-06
-3.45839e-06
-2.45949e-06
-0.000145848
0.000161273
-1.24323e-05
-1.33136e-05
-0.00017696
0.000193055
-1.03862e-05
-1.14429e-05
-0.000209752
0.00022713
-8.57196e-06
-9.38817e-06
-0.000245102
0.000263296
-8.24269e-06
-8.08535e-06
-0.000281554
0.000300524
-1.47793e-05
-9.99893e-06
-2.38183e-05
-0.000115765
0.000130705
-1.45871e-05
7.86049e-06
-1.52621e-05
-0.000101191
-0.000100946
-0.000183481
-5.55828e-05
-0.000224451
-0.000241376
0.00229744
0.000101251
-0.00290647
0.000438198
0.000300374
-0.000340748
-8.44129e-05
-0.00015174
0.000335755
-0.000320336
-2.94762e-05
-4.90573e-05
0.00030056
-0.000280441
-1.18858e-05
-1.86016e-05
0.000261574
-0.000244204
-7.29756e-06
-8.92301e-06
0.000226706
-0.000209657
-8.70909e-06
-7.98378e-06
0.000193117
-0.000177105
-1.07924e-05
-9.65391e-06
0.00016142
-0.000145972
-1.29925e-05
-1.19552e-05
-1.38911e-05
3.58472e-07
-5.80448e-07
1.95142e-06
1.67166e-06
8.55677e-07
-1.16728e-06
2.69312e-06
2.31174e-06
1.49583e-06
-1.8269e-06
3.65606e-06
3.15685e-06
2.16824e-06
-2.56398e-06
4.79204e-06
4.18986e-06
2.82574e-06
-3.1792e-06
6.07371e-06
5.38493e-06
3.49063e-06
-3.8317e-06
7.86139e-06
6.87464e-06
4.02294e-06
-4.213e-06
9.96836e-06
8.87053e-06
4.2395e-06
-4.09753e-06
1.24602e-05
-1.52439e-05
1.10582e-05
3.88096e-06
-3.36513e-06
1.51834e-05
1.38751e-05
2.046e-05
-2.37318e-05
-4.05614e-06
2.92456e-06
-2.66621e-06
1.698e-05
1.60077e-05
2.22286e-05
-1.1264e-05
-2.36296e-05
-2.35766e-06
3.51869e-06
1.73167e-05
2.11585e-05
-4.22531e-06
-2.4563e-05
4.19428e-06
1.55837e-06
-1.87505e-06
1.83196e-05
1.80276e-05
-2.23067e-05
-3.43646e-06
4.90179e-06
1.60122e-05
-2.07617e-05
1.66942e-05
-5.72022e-06
5.61924e-06
1.29806e-05
1.44992e-05
-5.11018e-06
4.54974e-06
1.0383e-05
1.15517e-05
-4.1601e-06
3.77494e-06
8.35858e-06
9.33087e-06
-3.39609e-06
3.03477e-06
6.71298e-06
7.47595e-06
-2.74168e-06
2.49848e-06
5.4625e-06
6.0414e-06
-2.2643e-06
2.0025e-06
4.37463e-06
4.90374e-06
-1.69888e-06
1.34506e-06
3.35247e-06
3.84932e-06
-9.63327e-07
5.92045e-07
2.43518e-06
2.86717e-06
2.06882e-06
1.87263e-06
-1.89327e-06
6.21069e-07
3.55162e-07
1.88979e-06
-1.88786e-06
1.10781e-06
8.59815e-07
1.34585e-06
7.48292e-05
0.000160847
-0.000839692
-0.000130709
8.3595e-05
0.00048628
0.000300728
-0.000110628
3.41262e-05
-2.45078e-05
-2.96044e-05
-1.50644e-05
-2.88184e-05
-1.81316e-05
3.27115e-05
-2.59673e-05
1.52883e-06
-1.65784e-06
-1.75956e-06
-0.000180746
-0.000155276
0.000400557
0.000199031
7.46682e-05
-6.432e-05
-9.61628e-06
-2.54705e-05
1.96287e-05
-0.000116295
0.000131297
-2.05868e-05
-0.000101686
-2.15534e-05
1.2199e-06
-1.33214e-06
-1.17618e-07
0.00220646
-0.000546348
0.00081205
-5.1885e-07
9.54764e-07
8.70088e-07
-3.50011e-07
1.0674e-06
1.05618e-06
-2.18625e-07
1.44944e-06
-2.45626e-07
2.65564e-06
-3.36321e-06
-1.96876e-06
2.02769e-06
-1.68266e-06
0.000161811
-0.00020589
-9.40383e-05
9.13746e-05
9.36789e-05
-0.000123924
0.000105212
-0.000156771
-8.12056e-05
2.08686e-05
0.000101692
5.33891e-07
-4.00462e-07
0.00031358
-0.000307075
-5.32231e-05
0.000299556
-8.72272e-05
-0.000153263
-0.000154928
0.000126123
-0.000213057
0.000132527
-0.000179019
-0.000203791
0.000154511
-0.000207011
-2.94458e-05
-1.13644e-05
4.51683e-05
-3.35665e-05
4.04228e-05
-3.59269e-05
-2.82144e-05
-1.54272e-05
-9.71952e-05
7.33559e-05
-0.000116363
0.000131396
-2.11662e-05
-0.000101739
-2.21261e-05
0.0013433
-0.00191484
0.0012497
-0.0013652
-0.000128747
-0.000158582
0.000165883
-9.22827e-05
-0.000228307
-0.000136142
9.08833e-05
5.66129e-05
-5.1318e-05
-5.7218e-05
-2.81395e-05
-6.49647e-06
-2.168e-05
-2.27575e-06
1.78783e-05
-3.61616e-06
-2.60258e-05
-2.23737e-05
-1.79432e-06
1.87816e-05
-3.30661e-06
-2.74525e-05
-2.77734e-05
-1.31136e-05
4.92649e-05
-4.79769e-05
9.2411e-05
7.66529e-05
-0.000112653
-7.81786e-05
0.000210502
-0.000186063
-1.20463e-07
3.36402e-07
5.77074e-08
-4.2119e-07
-0.000108474
4.11229e-05
0.000106617
-0.000911929
0.000371558
0.000368513
-0.000256658
-1.94561e-05
-2.18704e-05
1.42766e-06
-1.50199e-06
1.9418e-07
2.57207e-08
1.54445e-06
-1.54413e-06
5.78716e-07
3.90365e-07
1.52065e-06
-1.49619e-06
9.5596e-07
7.83063e-07
1.42443e-06
-1.43068e-06
1.14556e-06
1.11831e-06
-1.65742e-06
1.26004e-06
-1.44464e-06
2.00608e-06
-3.13688e-06
-2.31631e-06
2.82773e-06
-1.77412e-06
3.94819e-06
-4.91284e-06
-2.56398e-06
-2.35923e-06
5.96514e-06
-7.22413e-06
-3.62866e-06
-3.06363e-06
8.757e-06
-1.0688e-05
-5.60434e-06
-4.4909e-06
1.31889e-05
-1.61879e-05
-9.05133e-06
-7.07985e-06
1.99136e-05
-2.42979e-05
-1.4959e-05
-1.15571e-05
2.93123e-05
-3.48593e-05
-2.48252e-05
-1.92718e-05
4.10236e-05
-4.77814e-05
-4.17011e-05
-3.20082e-05
5.5822e-05
-6.80676e-05
-7.13485e-05
-5.52688e-05
-9.06988e-05
-6.66179e-05
-8.25641e-05
6.95474e-05
-8.42625e-05
7.65932e-05
-9.78699e-05
-5.87701e-05
4.81011e-05
-5.23299e-05
-6.77943e-05
-3.93074e-05
3.2326e-05
-3.01286e-05
-3.98773e-05
-2.66583e-05
2.16889e-05
-1.73401e-05
-2.27309e-05
-1.74784e-05
1.38788e-05
-1.02604e-05
-1.34573e-05
-1.10109e-05
8.82378e-06
-6.12213e-06
-7.85375e-06
-7.17857e-06
5.95977e-06
-3.94102e-06
-4.81785e-06
-4.97182e-06
4.1208e-06
-2.74052e-06
-3.27512e-06
-2.32253e-06
-0.000146688
0.000162277
-1.81766e-05
-1.94806e-05
-0.000178084
0.000194178
-1.54174e-05
-1.6829e-05
-0.000210808
0.000227879
-1.31773e-05
-1.4183e-05
-0.000245255
0.000262606
-1.32758e-05
-1.27495e-05
-0.000279379
0.000294751
-2.17237e-05
-1.57017e-05
-3.31123e-05
-2.82221e-07
-7.55661e-06
-8.67796e-05
8.11673e-06
-1.58332e-05
-8.70988e-05
-8.6795e-05
-8.67683e-06
-2.97815e-05
1.52839e-05
-8.75964e-05
-2.22255e-05
-8.70508e-05
6.15182e-05
-2.34751e-05
-0.000229018
0.000201408
-0.000241387
0.000228887
4.7075e-05
-0.00016669
-0.00023775
-0.000239342
0.000267962
-0.000316271
-0.000124203
-0.000202307
0.000321164
-0.000310441
-4.79524e-05
-7.68973e-05
0.000295397
-0.000278088
-2.08414e-05
-3.07663e-05
0.000261066
-0.000244005
-1.28983e-05
-1.53787e-05
0.000227301
-0.000210819
-1.35077e-05
-1.29277e-05
0.00019438
-0.000178318
-1.60423e-05
-1.47556e-05
0.000162474
-0.000146826
-1.8819e-05
-1.74858e-05
-2.00759e-05
-4.22131e-07
2.76828e-07
1.01935e-06
3.63515e-07
-2.80408e-07
9.63198e-07
9.68165e-07
-2.05733e-07
1.25542e-07
1.20412e-06
1.09156e-06
-1.15425e-06
-3.23789e-08
-1.40322e-07
1.61992e-06
1.39306e-06
3.68238e-07
-6.22035e-07
2.22283e-06
1.90899e-06
9.20985e-07
-1.22004e-06
3.08823e-06
2.64418e-06
1.54279e-06
-1.83817e-06
4.1287e-06
3.59341e-06
2.1403e-06
-2.43948e-06
5.29697e-06
4.68367e-06
2.71457e-06
-2.91588e-06
6.72526e-06
5.95894e-06
3.04094e-06
-3.1321e-06
8.35611e-06
7.48946e-06
3.21695e-06
-3.19942e-06
1.02545e-05
9.21623e-06
2.99604e-06
-2.6761e-06
1.22742e-05
1.12574e-05
2.38419e-06
-2.06575e-06
1.38119e-05
1.30095e-05
1.86983e-05
-1.66165e-06
-2.29016e-05
1.65445e-06
-1.1868e-06
1.51364e-05
1.44829e-05
-6.0873e-07
-1.9436e-05
1.5655e-05
-2.53745e-08
-1.97453e-05
1.58947e-05
1.94987e-05
-1.04999e-06
-2.40187e-05
-6.96029e-07
1.1733e-06
1.58088e-05
-2.0029e-05
1.60331e-05
-1.46754e-06
1.92086e-06
1.48842e-05
1.54009e-05
-2.36044e-06
2.58167e-06
1.40808e-05
1.45551e-05
-3.18724e-06
3.73656e-06
1.26358e-05
1.3216e-05
-3.84105e-06
3.8001e-06
1.05173e-05
1.16408e-05
-3.58249e-06
3.32459e-06
8.63716e-06
9.53124e-06
-3.07998e-06
2.81719e-06
7.06203e-06
7.80815e-06
-2.55782e-06
2.31817e-06
5.75705e-06
6.36766e-06
-2.10381e-06
1.90328e-06
4.68841e-06
5.19573e-06
-1.69356e-06
1.45222e-06
3.70417e-06
4.18721e-06
-1.1684e-06
8.52135e-07
2.76984e-06
3.22098e-06
-5.28526e-07
2.37245e-07
1.99005e-06
2.34865e-06
1.1123e-09
-1.42844e-07
1.51736e-06
1.71099e-06
2.63159e-07
-4.17278e-07
1.44839e-06
1.425e-06
1.34061e-06
-1.41847e-06
-2.30856e-07
1.2046e-06
1.48974e-06
-1.56523e-06
2.26701e-08
-1.27089e-07
1.62186e-06
-1.63839e-06
3.86781e-07
1.91735e-07
1.6369e-06
-1.62862e-06
7.66747e-07
5.74429e-07
1.61716e-06
-1.59191e-06
1.13537e-06
9.47731e-07
1.54434e-06
1.47757e-06
-1.4621e-06
1.31675e-06
0.000228307
-0.000166596
-0.000266511
5.44605e-05
1.26214e-05
1.0675e-05
0.00023685
-0.000426483
-0.000226177
0.000243415
-0.000141586
-0.00100722
-0.0028476
0.00132839
-0.000212085
0.00019293
-0.000322002
0.000332473
-0.00018344
0.000835543
0.000467111
0.000311596
-0.00126485
0.000273831
0.000264112
-0.000386104
-3.42118e-05
-1.53421e-05
3.98689e-05
-2.59691e-05
-1.6482e-08
-2.49775e-05
-8.83031e-07
-2.39793e-05
3.67117e-05
-2.87793e-05
-3.25519e-05
-1.90648e-05
-0.000100667
8.59319e-05
0.000118888
-0.000128831
9.35275e-05
-2.92487e-05
5.02214e-07
-5.83367e-07
-2.30762e-07
0.000300786
-0.000492369
0.000298602
-0.000574398
0.000104122
-0.000195784
-9.802e-05
8.36012e-05
-9.57108e-05
-2.27663e-05
-8.76427e-05
-0.000172859
0.000313071
-0.000200261
-0.000153175
-0.000178589
9.49326e-07
-1.06447e-06
-1.6688e-07
2.55378e-07
8.52635e-07
-1.91282e-07
3.33881e-07
8.6006e-07
9.44672e-05
-0.000148357
0.000116173
5.08309e-05
-3.64355e-05
-3.34236e-05
-1.07472e-05
-2.76415e-06
-2.79554e-05
-1.99205e-06
-3.00435e-05
-3.23596e-05
-1.59254e-05
4.5566e-05
-4.00242e-05
-9.09855e-05
5.49113e-05
9.48197e-05
-1.3353e-06
1.33846e-06
8.07662e-07
-1.30434e-06
8.79792e-07
9.10388e-05
-0.000295216
-5.17997e-05
-0.00221927
-0.00272709
0.00306231
-9.44844e-05
0.000209391
0.000312144
9.91983e-05
-8.41326e-06
-1.25401e-05
-3.09338e-05
0.000283673
0.000235268
-0.000579425
6.9111e-06
1.15099e-05
0.000285158
0.000122017
-0.000115421
7.55623e-05
0.000114497
-0.00020462
-7.51652e-05
6.51337e-05
-5.27038e-05
-3.11197e-05
-5.92025e-06
-6.88943e-06
-3.4259e-05
5.28424e-05
-5.93173e-05
-5.03012e-05
-1.30274e-06
1.35962e-06
1.04494e-06
1.62327e-06
-2.20505e-06
-1.36262e-06
-1.22301e-06
1.15068e-06
-2.29015e-05
1.58531e-05
-7.32354e-05
-8.80687e-05
0.000102274
-2.80084e-05
-2.89637e-05
-7.36714e-05
0.000142625
-0.000229085
-1.32962e-06
-1.92864e-07
-8.19198e-05
3.56216e-05
9.31201e-05
-8.41883e-05
-0.000105999
7.46808e-05
0.000249756
-9.34277e-06
5.42834e-06
-5.48028e-06
8.07858e-06
1.26336e-05
-1.96885e-05
-2.4508e-05
-2.36514e-05
7.88798e-05
-0.000127831
-7.67511e-05
1.15657e-06
-1.24354e-06
-5.40245e-08
-1.25014e-07
1.31336e-06
-1.3697e-06
1.30473e-07
2.53092e-08
1.40548e-06
-1.41722e-06
3.73336e-07
2.57121e-07
1.41548e-06
-1.38745e-06
6.36033e-07
5.22558e-07
7.52764e-07
-1.85962e-06
1.39091e-06
-1.40876e-06
2.50296e-06
-3.46216e-06
-1.99041e-06
-1.65249e-06
4.37594e-06
-5.3458e-06
-2.47211e-06
-2.21085e-06
6.56829e-06
-7.96107e-06
-3.42344e-06
-2.84447e-06
9.74112e-06
-1.20088e-05
-5.24261e-06
-4.19173e-06
1.48953e-05
-1.85869e-05
-8.47468e-06
-6.66447e-06
2.29041e-05
-2.80554e-05
-1.43495e-05
-1.10325e-05
3.40575e-05
-4.10386e-05
-2.4255e-05
-1.86307e-05
4.9346e-05
-5.94424e-05
-4.20978e-05
-3.18402e-05
7.27659e-05
-9.05486e-05
-7.36368e-05
-5.61611e-05
-9.67329e-05
0.000306754
-0.000621377
-0.000374733
0.000251993
-0.000132026
-6.90691e-05
5.66264e-05
-5.34514e-05
-7.16849e-05
-4.62542e-05
3.77357e-05
-2.94575e-05
-3.97331e-05
-3.07983e-05
2.48675e-05
-1.64385e-05
-2.19467e-05
-1.9924e-05
1.58238e-05
-9.62795e-06
-1.26979e-05
-1.24353e-05
9.91475e-06
-5.73112e-06
-7.25694e-06
-7.99497e-06
6.56286e-06
-3.65478e-06
-4.46869e-06
-5.42503e-06
4.4892e-06
-2.54496e-06
-3.01942e-06
-3.63999e-06
2.88684e-06
-1.82919e-06
-2.14059e-06
-1.55553e-06
-0.000117042
0.000132226
-2.59853e-05
-2.71413e-05
-0.000147792
0.000163516
-2.339e-05
-2.48404e-05
-0.000179357
0.00019537
-2.00643e-05
-2.17231e-05
-0.000211759
0.000228427
-1.77759e-05
-1.87397e-05
-0.000245117
0.000260987
-1.85554e-05
-1.7656e-05
-0.000275341
0.000286403
-2.85744e-05
-2.18546e-05
-0.000293385
0.000289
-6.42653e-05
-4.21892e-05
-0.000254347
0.000182537
-0.000159346
-0.000103228
-1.63986e-05
8.42708e-06
-7.27706e-05
-8.8083e-05
0.000102293
-2.85e-05
2.34224e-05
-2.94247e-05
-7.36921e-05
-7.32643e-05
-2.87789e-07
-7.86888e-06
-7.23954e-05
-7.24174e-05
-7.27247e-05
0.000106233
-6.06919e-05
-0.000234862
-0.000229843
5.64412e-05
-0.000113612
-0.000234522
-0.000240558
0.000201463
-0.00026693
-0.000147829
-0.000209833
0.000295199
-0.000294179
-6.28321e-05
-9.75626e-05
0.000285127
-0.00027291
-2.90129e-05
-4.1805e-05
0.000258589
-0.000243439
-1.88444e-05
-2.23963e-05
0.0002277
-0.000211616
-1.85494e-05
-1.82719e-05
0.000195598
-0.000179607
-2.08784e-05
-1.95191e-05
0.000163699
-0.000147905
-2.40578e-05
-2.24436e-05
0.000132287
-0.000117075
-2.65495e-05
-2.54642e-05
-2.76698e-05
-3.82054e-07
4.16516e-07
9.20126e-07
8.85445e-07
-4.30897e-07
3.97823e-07
1.05622e-06
9.67888e-07
-3.29532e-07
2.15092e-07
1.32053e-06
1.17289e-06
-4.70059e-08
-1.58891e-07
1.76231e-06
1.52816e-06
4.07856e-07
-6.69463e-07
2.47863e-06
2.10885e-06
9.44771e-07
-1.21691e-06
3.38988e-06
2.91818e-06
1.49275e-06
-1.77228e-06
4.4622e-06
3.89901e-06
2.01424e-06
-2.18848e-06
5.62981e-06
5.02284e-06
2.30645e-06
-2.36813e-06
6.89489e-06
6.22467e-06
2.44108e-06
-2.38722e-06
8.32212e-06
7.5983e-06
2.2742e-06
-2.06781e-06
9.81216e-06
9.07687e-06
1.86527e-06
-1.60975e-06
1.10034e-05
1.03982e-05
1.29715e-06
-9.46628e-07
1.20178e-05
1.15026e-05
5.09415e-07
-7.50052e-08
1.26036e-05
1.23943e-05
-4.08636e-07
8.12648e-07
1.25667e-05
1.26962e-05
-1.17023e-06
1.47461e-06
1.18815e-05
1.22741e-05
-1.80957e-06
2.12693e-06
1.11336e-05
1.15388e-05
-2.36907e-06
2.64599e-06
9.91745e-06
1.04394e-05
-2.74945e-06
2.68875e-06
8.4404e-06
9.21791e-06
-2.55323e-06
2.38921e-06
7.04862e-06
7.71999e-06
-2.21748e-06
2.05418e-06
5.83663e-06
6.41831e-06
-1.88286e-06
1.71187e-06
4.81091e-06
5.30152e-06
-1.54331e-06
1.36811e-06
3.89396e-06
4.33722e-06
-1.17284e-06
9.47619e-07
3.02243e-06
3.4505e-06
-6.929e-07
4.258e-07
2.21834e-06
2.60191e-06
-1.68948e-07
-4.72006e-08
1.59326e-06
1.87517e-06
1.99131e-07
-2.56319e-07
1.22641e-06
1.38178e-06
2.02586e-07
9.84715e-07
9.66841e-08
1.13227e-06
1.3653e-06
-1.40432e-06
5.53706e-09
-1.03487e-07
1.43799e-06
-1.45191e-06
2.55068e-07
1.1866e-07
1.4494e-06
-1.43283e-06
5.28736e-07
3.90982e-07
1.418e-06
-1.39926e-06
7.97921e-07
6.60852e-07
9.24067e-07
7.87845e-07
-0.00149348
0.0012968
0.00205249
-0.00142708
3.3993e-05
-0.000589306
-9.9501e-05
0.000710718
2.89393e-07
-2.24341e-07
7.07781e-07
0.000185339
0.00019842
-0.000161393
0.000141236
0.000179176
0.000217548
4.49603e-05
-2.76174e-05
-3.94213e-05
-1.48633e-05
-1.69858e-06
-2.95206e-05
4.31913e-08
-3.19338e-05
-3.69682e-05
-2.03176e-05
4.16409e-05
-3.20646e-05
-9.41534e-05
7.17548e-05
-1.01613e-05
6.82736e-06
9.72546e-07
-1.24464e-06
0.000164074
-0.000151206
0.00239211
0.001281
-0.00255485
5.72486e-05
6.17052e-05
-9.59124e-05
0.000152199
-0.000320976
5.37158e-05
-0.000359774
3.48756e-07
7.40925e-07
-0.00179741
5.46437e-05
-0.000261522
0.000204433
0.000109285
-0.000149919
-8.82679e-05
0.00010248
-3.34868e-05
-7.40389e-05
-3.48318e-05
0.000288862
0.000281009
-0.000254264
0.000250809
-1.30825e-05
-3.45757e-05
7.40085e-05
0.00024052
0.000189758
0.000180752
-0.000125558
9.69744e-05
0.000126838
0.00026055
4.17556e-05
5.79102e-05
-3.9957e-05
-3.73672e-05
-9.73979e-06
-5.01164e-06
-3.37832e-05
-3.23868e-06
-3.99395e-05
-3.63755e-05
-1.61322e-05
5.04521e-05
-4.62688e-05
-7.26731e-05
5.73939e-05
9.51827e-07
-1.05996e-06
-7.46918e-08
8.36572e-07
-1.32632e-07
1.77511e-06
-2.40359e-06
-1.23591e-06
1.26134e-06
-1.11668e-06
-1.18648e-06
1.23475e-06
7.19314e-07
-1.11994e-06
7.90903e-07
-8.82966e-05
0.000102499
-3.30592e-05
-7.40496e-05
-3.4438e-05
-2.34678e-05
1.63651e-05
-5.81325e-05
-2.97837e-05
-5.86165e-05
-0.000720636
-0.000128442
6.66339e-05
-0.000302027
1.2119e-06
-1.26195e-06
-1.4089e-07
1.06818e-06
-2.32264e-07
9.95068e-05
-0.000230056
6.97602e-07
-7.7359e-07
6.92419e-07
-9.32298e-05
7.10733e-05
2.21053e-07
1.26851e-07
-1.75421e-08
0.000172389
8.45971e-06
-2.06354e-05
-3.08875e-05
-2.55622e-05
7.76203e-05
-0.000114078
1.13607e-06
-1.199e-06
8.3017e-09
-4.57114e-08
1.24602e-06
-1.28994e-06
1.07717e-07
4.33784e-08
1.31117e-06
-1.32925e-06
2.41397e-07
1.70655e-07
1.31923e-06
-1.313e-06
4.09209e-07
3.24063e-07
1.27529e-06
-1.25292e-06
5.23521e-07
4.68311e-07
1.21411e-06
-1.14896e-06
6.29904e-07
5.67576e-07
-1.07968e-06
7.11515e-07
-1.05773e-06
1.53284e-06
-2.09085e-06
-1.29727e-06
-1.15311e-06
2.79832e-06
-3.69498e-06
-1.74956e-06
-1.4891e-06
4.7063e-06
-5.86583e-06
-2.21059e-06
-1.97367e-06
7.19019e-06
-8.7756e-06
-3.08903e-06
-2.55895e-06
1.07347e-05
-1.32874e-05
-4.72838e-06
-3.80818e-06
1.6647e-05
-2.07648e-05
-7.6604e-06
-5.93463e-06
2.5855e-05
-3.1976e-05
-1.30438e-05
-9.9408e-06
3.91621e-05
-4.762e-05
-2.28867e-05
-1.72097e-05
5.82261e-05
-7.16768e-05
-4.09842e-05
-3.04848e-05
9.03533e-05
-0.000117767
-7.44173e-05
-5.54002e-05
-0.000101209
-0.00109857
0.000463774
0.000798042
-0.000125631
0.000104809
-0.000117292
-0.000182005
-8.47829e-05
6.8028e-05
-5.31303e-05
-7.64306e-05
-5.44548e-05
4.36612e-05
-2.73404e-05
-3.78443e-05
-3.4963e-05
2.80981e-05
-1.49125e-05
-1.99063e-05
-2.23365e-05
1.76368e-05
-8.55739e-06
-1.13188e-05
-1.38242e-05
1.09599e-05
-5.11397e-06
-6.38018e-06
-8.77958e-06
7.16302e-06
-3.26743e-06
-3.96906e-06
-5.88791e-06
4.83842e-06
-2.27693e-06
-2.68882e-06
-3.93031e-06
3.11185e-06
-1.6503e-06
-1.92233e-06
-1.4285e-06
-0.000117391
0.000132778
-3.02831e-05
-3.17837e-05
-0.000148575
0.00016451
-2.7314e-05
-2.88878e-05
-0.000180433
0.000196347
-2.42521e-05
-2.58524e-05
-0.000212383
0.00022845
-2.19105e-05
-2.2787e-05
-0.000243947
0.000258105
-2.35526e-05
-2.19994e-05
-0.000269473
0.000276587
-3.52622e-05
-2.75964e-05
-0.00027717
0.000259153
-7.47389e-05
-4.9299e-05
-0.000210421
0.000139087
-0.000168078