/*--------------------------------*- C++ -*----------------------------------*\
| =========                 |                                                 |
| \\      /  F ield         | OpenFOAM: The Open Source CFD Toolbox           |
|  \\    /   O peration     | Version:  2212                                  |
|   \\  /    A nd           | Website:  www.openfoam.com                      |
|    \\/     M anipulation  |                                                 |
\*---------------------------------------------------------------------------*/
FoamFile
{
    version     2.0;
    format      ascii;
    arch        "LSB;label=32;scalar=64";
    class       volScalarField;
    location    "0.0395";
    object      k;
}
// * * * * * * * * * * * * * * * * * * * * * * * * * * * * * * * * * * * * * //

dimensions      [0 2 -2 0 0 0 0];

internalField   nonuniform List<scalar> 
7220
(
8106.26
2634.49
2509.88
2015.94
2221.41
2115.47
2481.03
2184.63
1995.76
2088.34
14771.7
102412
7532.49
25172.9
48416.6
70218.9
63321.9
9264.24
40230
9432.12
12515.6
15777.2
782.196
27599.5
7077.62
35558.7
145114
14796.4
13959.2
18099.9
4102.15
15188.6
1785.66
19294.1
11494.4
4665.59
3485.8
17631.1
14513.2
3354.37
3353.13
3353.1
3354.33
3916.49
4011.41
3978.96
3912.64
3852.45
3353.19
3354.62
3354.6
3353.16
3357.54
3362.08
3362.09
3357.53
3368.38
3376.56
3376.63
3368.41
3386.8
3399.25
3399.41
3386.91
3414.11
3431.55
3431.82
3414.32
3451.79
3475.05
3475.47
3452.13
3501.56
3531.55
3532.09
3502.04
3565.29
3603.1
3603.48
3565.83
3645.27
3692.05
3691.22
3645.2
3795.5
3741.31
3744.01
3801.05
3862.9
3863.08
3356.78
3356.73
3436.66
3438.26
4091.38
4050.38
3929.48
3999.54
3819.43
3719.57
3766.73
3640.07
3677.45
3577.69
3606.96
3529.39
3551.92
3493.08
3509.85
3467.02
3478.87
3449.71
3457.35
3439.88
3443.94
3436.42
3437.42
3438.4
3436.77
3437.33
3436.31
3443.95
3439.84
3457.54
3449.8
3479.29
3467.31
3510.6
3493.66
3553.06
3530.33
3608.44
3579.02
3678.39
3641.51
3763.64
3719.11
3811.67
3878.2
3441.18
3441.03
4049.34
4002.87
4176.25
4073.96
3942.57
4011.91
4094.86
4116.62
4085.22
4165.33
3971.1
4029.93
3872.07
3918.68
3794.56
3830.77
3734.84
3762.75
3689.32
3710.47
3655.61
3671.11
3631.92
3642.61
3616.75
3623.36
3608.87
3611.98
3607.12
3607.32
3610.71
3608.32
3445.03
3618.76
3614.23
3360.23
3360.28
3613.92
3618.47
3444.87
3608.06
3610.43
3607.11
3606.92
3611.94
3608.74
3623.58
3616.84
3643.21
3632.32
3672.21
3656.45
3712.15
3690.7
3764.81
3736.78
3831.64
3796.41
3912.31
3870.4
3956.83
4295.85
4206.85
4273
4226.75
3449.88
3624.27
3884.36
3889.93
4131.52
4388.85
4267.68
4163.54
4328.13
4594.14
4502.17
4241.02
4335.45
4398.27
4206.8
4264.23
4110.89
4155.78
4037.43
4071.61
3982.15
4007.88
3940.71
3959.87
3910.81
3924.45
3890.58
3899.59
3878.55
3883.63
3873.48
3875.22
3874.33
3873.22
3880.26
3876.72
3890.42
3884.86
3364.75
3364.81
3623.96
3449.72
3876.26
3879.77
3872.88
3873.93
3875.07
3873.22
3883.8
3878.54
3900.24
3890.98
3925.71
3911.75
3961.82
3942.33
4010.27
3984.4
4072.11
4039.54
4146.07
4107.82
4185.89
4415.07
3896.89
3896.43
4155.25
4488.3
4691.32
4221.01
4474.63
4596.05
4551.86
4654.52
4322.86
4274.23
4281.98
3630.38
3903.77
4250.15
4367.13
4793.57
4595.27
5276.94
5178.99
4901.34
4243.26
4800.12
4656.54
4725
4540.38
4595.01
4450.4
4492.27
4383.39
4414.34
4334.02
4356.79
4298.15
4314.6
4273.21
4284.42
4257.49
4264.3
4249.52
4252.61
4248.08
4248.09
4252.31
4249.56
4261.29
4256.26
4267.32
3904.22
3455.67
3630.68
3370.21
3370.27
3455.49
4281.3
4266.57
4273.51
4255.55
4260.55
4249
4251.68
4247.72
4247.64
4252.63
4249.33
4264.84
4257.74
4285.65
4274.08
4316.62
4299.76
4359.37
4336.44
4414.46
4385.46
4480.12
4446.17
4515.11
4809.74
4727.59
4991.88
4898.31
5087.12
4557.4
4290.54
4289.9
5040.3
4999.08
5093.87
5580.12
4414.48
4319.09
4475.63
5017.75
4332.08
5754.18
5239.04
4710.56
4881.7
5318.26
5406.79
5101.92
5166.84
4993.89
5044.4
4912.72
4950.1
4853.73
4880.79
4811.8
4830.96
4782.73
4795.85
4763.9
4772.15
4753.65
4757.8
4750.6
4751.29
4753.63
4751.42
4761.86
4757.14
4774.51
4767.68
4790.83
4782.26
4810.18
4800.15
4820.89
3912.38
4299.83
3462.32
3637.93
3376.54
3376.6
3637.63
3462.14
4299.24
3911.93
4820.13
4799.23
4809.33
4781.24
4789.83
4766.69
4773.49
4756.3
4760.93
4750.79
4752.88
4751.03
4750.13
4758.07
4753.63
4773.13
4764.5
4797.71
4784.13
4833.3
4814.09
4879.86
4855.36
4935.66
4906.68
4965.76
5237.29
5160.71
5409.06
5320.67
5498.13
4970.44
4647.32
4341.71
5404.81
5633.06
5595.43
5681.68
5491.8
5504.14
4309.3
4831.56
4425.36
4593.71
4834.41
5914.55
6409.64
6573.26
6072.19
5069.12
4504.83
5148.86
4422.53
5501.46
5553.56
5979.97
5821.63
5897.45
5694.52
5753.97
5597.93
5642.58
5527.31
5559.61
5478.22
5500.45
5445.17
5460.04
5424.04
5433.32
5412.3
5417.11
5408.37
5409.45
5410.98
5408.93
5419.11
5414.41
5431.93
5424.97
5448.76
5439.88
5468.94
5458.48
5480.07
4832.26
3921.28
4309.84
3469.75
3645.97
3383.69
3383.75
3645.67
3469.58
3920.85
5503.16
5478.85
5490.72
5457.17
5467.67
5438.61
5447.46
5423.81
5430.7
5413.43
5418.03
5408.28
5410.15
5409.29
5407.95
5417.6
5412.45
5434.66
5424.93
5461.58
5446.88
5497.71
5478.72
5542.57
5519.12
5566.73
5811.98
5742.07
5966.21
5887.76
6107.51
6041.97
6228.07
4744.36
6071.71
5517
5516.16
6383.14
6415.08
5613.51
5185.64
4440.41
4541.64
4719.78
4967.7
6738.19
6236.38
8911.72
5707.1
2252.41
5291.98
6177.75
6918.75
6736.42
6821.15
6589.53
6659.6
6476.05
6528.74
6393.24
6430.97
6335.51
6361.77
6297.91
6314.57
6274.91
6284.88
6262.64
6267.61
6258.77
6259.76
6261.83
6259.51
6270.68
6265.59
6284.37
6276.96
6302.2
6292.8
6323.58
6312.47
6347.89
6335.38
6374.56
6360.97
6403.13
6388.61
6418.08
4844.23
5530.43
3930.9
4320.55
3477.93
3654.72
3391.57
3391.63
3654.44
3477.76
4320.03
3930.48
5529.7
4843.6
6417.23
6387.41
6402.12
6359.46
6373.2
6333.78
6346.33
6310.89
6321.97
6291.29
6300.65
6275.59
6282.91
6264.45
6269.39
6258.77
6260.88
6259.5
6258.28
6267.97
6262.71
6284.78
6275.38
6309.37
6296.16
6342.23
6325.09
6360.27
6572.12
6457.4
6510.53
6704.4
6637.65
6847.05
6770.74
7102.65
6957.55
7419.02
7257.95
7985.25
7780.31
6912.82
7591.5
4865.91
2238.7
6298.69
7031.41
4547.81
2392.22
7543.61
7560.07
5543.73
6432.79
4666.37
7099.03
4853.85
6411.23
5871.14
5111.05
5445.37
2286.24
2584.74
2954.48
3272.6
5740.87
3946.76
5742.27
5323.39
2865.84
5880.72
8911.01
8690.21
4680.43
4810.73
6430.57
2514.24
7155.77
4049.8
6571.75
7290.29
2399.51
8708.48
7433.97
8380.04
8518.38
8110.96
8238.37
7893.75
7996.27
7731.11
7806.22
7599.75
7661.91
7503.28
7547.48
7436.58
7466.41
7393.85
7412.74
7368.78
7379.35
7356.64
7361.32
7353.87
7354.25
7358.37
7355.28
7368.84
7362.93
7384.25
7375.99
7403.76
7393.54
7426.76
7414.86
7452.71
7439.4
7481.21
7466.68
7511.67
7496.25
7527.48
6433.49
4856.8
5544.41
3941.14
4331.86
3486.78
3664.14
3400.14
3400.19
3663.86
3486.61
4331.37
3940.74
4856.22
7559.09
7526.07
7542.4
7494.49
7510.06
7464.83
7479.39
7437.51
7450.84
7412.98
7424.87
7391.69
7401.89
7374.3
7382.47
7361.52
7367.28
7354.14
7357.11
7353.29
7352.67
7358.5
7355.08
7370.14
7363.42
7389.23
7378.77
7418.05
7402.25
7476.77
7441.97
7572.16
7521.16
7681.29
7625.21
7819.92
7742.52
8042.59
7919.96
8334.88
8182.82
8503.17
2356.39
2718.45
3388.78
5017.92
4599.07
2142.01
15293.3
12770.3
8236.69
7576.9
7576.1
2849.17
5468
4951.81
4806.66
4664.88
7291.85
4315.3
6025.96
9910.92
10143.3
9284.36
4799.37
6598.22
6046.84
6721.65
364311
4997.88
21548.9
7593.64
3578.33
5265.18
5610.16
1987.74
1938.03
8498.78
2058.71
1865.56
3007
9646.45
9786.95
9374.23
9496.2
9180.57
9270.07
9042.88
9105.76
8932.18
8984.87
8854.15
8888.85
8806.18
8827.14
8779.08
8790.57
8767.32
8771.5
8766.52
8765.76
8773.5
8769.18
8786.56
8779.33
8804.48
8794.97
8826.39
8814.99
8851.58
8838.61
8879.5
8865.22
8909.75
8894.35
8941.99
8925.65
8975.76
8958.68
9010.63
8993.08
9046.37
9028.38
9064.59
6449.42
7594.09
4869.91
5558.86
3951.96
4343.73
3496.24
3674.16
3409.32
3409.38
3673.89
3496.08
4343.27
3951.59
5558.27
4869.38
7593.4
6448.75
9063.82
9027.25
9045.45
8991.47
9009.25
8956.79
8973.97
8923.57
8939.97
8892.19
8907.62
8862.97
8877.29
8836.32
8849.29
8812.73
8824.1
8792.84
8802.29
8777.22
8784.44
8766.56
8771.3
8760.19
8762.32
8756.26
8756.38
8760.09
8756.96
8776.32
8766.5
8815.64
8790.56
8888.68
8849.28
8978.4
8931.95
9105.44
9034.64
9298.66
9192.85
9566.41
9425.87
9725.9
2228.92
2491.69
10351.5
3258.47
3168.74
5165.34
4713.82
1821.93
7678.39
7479.58
2595.3
1471.97
2700.65
5616.12
11552.9
11780
10466.7
4795.16
5093.17
4940.74
1909.84
6795.78
3146.3
10940.1
10958.8
7611.06
9082.42
6235.51
8709.8
6179.81
9743.44
2057.69
2871.47
3324.87
3888.45
1172.96
4943.01
1661.9
1370.04
2037.13
13181.3
2110.62
2614.75
6886.55
9202.02
3566.06
3411.68
2850.55
3000.02
3554.78
5153.09
5787.27
7793.37
1802.08
5431.17
1198.56
1215.26
1601.78
9029.4
1756.21
1349.25
1699.67
1633.27
7933.79
3640.32
8811.84
5377.85
11270.9
11408
11051.2
11153.5
10888.5
10962.8
10781.3
10829.2
10695
10735.9
10638.1
10662.5
10609
10620.8
10597.8
10601.7
10599.6
10597.5
10609.8
10603.8
10626.3
10617.4
10647.4
10636.3
10672.3
10659.5
10700
10685.8
10730.1
10714.8
10762.1
10745.9
10795.7
10778.7
10830.6
10813
10866.5
10848.4
10903.1
10884.8
10921.6
9083.1
6465.69
7611.72
4883.5
5573.82
3963.29
4356.11
3506.25
3684.7
3419.07
3419.12
3684.46
3506.11
4355.69
3962.96
5573.27
4882.99
6465.11
10957.9
10920.3
10939.1
10883
10901.6
10846.4
10864.6
10810.8
10828.5
10776.3
10793.4
10743.3
10759.6
10712.1
10727.5
10683.1
10697.3
10656.7
10669.5
10633.4
10644.6
10613.4
10623.1
10595.4
10604.4
10575.5
10585.3
10558.6
10566.1
10559.8
10557
10580.9
10566.7
10633.6
10604.2
10704.4
10665.8
10815.8
10752.6
10984.2
10890.2
11222.4
11094.9
11372
2910.9
3412.25
3215.01
3324.56
1024.69
3744.49
4309.47
5312.21
14231.8
12068.7
4843.11
2236.39
1845.1
1743.88
2277.68
1969.02
2118.86
1643.78
2582.25
240916
7004.94
10847.5
2413.37
10977.6
10976.8
6437.97
3930.03
2384.52
3044.55
2764.33
5209.35
5770.37
3790.75
10854.2
4093.69
3686.11
4534.09
3770.6
1944.46
4938.18
5241.63
5085.61
1411.31
1894.71
1553.24
1652.89
1819.02
2198.05
2302.69
1906.87
2135.58
1755.65
3316.44
4270.39
4116.14
3152.97
5196.04
2768.78
6346.04
10083.2
3526.27
3108.5
7718.29
5099.1
1204.19
1750.53
1483.54
1537
5978.26
7078.42
14316.1
9536.22
3877.48
2550.98
2589.04
2854.68
2373.14
2979.02
1649.5
5320.81
1128.83
1096.12
1267.28
1287.26
13566.7
15066.3
5610.2
8042.72
1601.06
1151.85
1075.51
1137.84
1561.65
9374.64
1552.19
2115.93
1448.63
1345.55
1490
1266.37
8231.84
7230.29
17512.8
1190.04
1778.53
9167.83
142887
13454.4
13535.3
13296.3
13373.5
13171.9
13228.2
13097.9
13129.4
13039.8
13067.8
13005
13019
12995
12997.4
12999.2
12995.9
13013.5
13005.5
13033.7
13023
13058.4
13045.6
13086.4
13072.1
13116.6
13101.2
13148.6
13132.4
13181.9
13165.1
13216
13198.8
13250.9
13233.4
13286.3
13268.6
13322.1
13304.2
13358.1
13340.1
13394
13376.1
13429.6
13411.8
13447.5
9101.91
10996.5
6482.41
7629.64
4897.5
5589.15
3975.09
4368.9
3516.76
3695.73
3429.32
3429.37
3695.51
3516.63
4368.52
3974.8
5588.63
4897.05
7629.02
6481.84
10995.9
9101.35
13446.9
13410.8
13428.8
13374.7
13392.8
13338.4
13356.5
13302.2
13320.2
13266.3
13284.2
13230.9
13248.5
13196.1
13213.4
13162.1
13179
13129.3
13145.5
13097.9
13113.4
13068.2
13082.8
13040.1
13054.1
13012.4
13026.2
12978.6
12996.7
12936.2
12957
12915.2
12922.6
12923.2
12916.9
12958.7
12938.6
13015.3
12982.3
13109.2
13057.6
13249.4
13170.3
13455.3
13341.4
13761.5
13593.1
13974.7
6654.82
17951.3
3944.88
4413.33
2430.75
3437.91
2559.28
3869.38
4074.71
3985.29
4262.58
4142.13
4669.6
4482.55
4888.61
5464.71
12399.7
15758.9
1861.21
4986.13
1472.93
1769.89
2013.47
1524.39
7279.66
4859.31
12890.2
4457.19
4613.79
3252.22
3957.88
5492.79
5777.55
21531.4
4671.13
3407.07
3176.66
2708.23
2828.88
4629.97
2942.5
3701.84
3386.78
6166.41
5935.5
11228.2
3415.03
3184.99
3302.79
1676.96
5094.2
5401.47
5243.48
1227.84
1622.43
1332.88
1412.1
1607.41
6183.44
4283.2
16627.2
16641.7
11015.2
13465.1
6271.66
3505.17
6530.7
8544.46
10448.5
2846.92
2648.78
3098.17
3615.4
1535.09
5268.55
1085.53
1324.93
11466.5
5802.94
8475.94
7297.23
9916.34
2259.06
1472.53
5501.63
1028.1
1143.57
1862.56
8313.34
1423.42
2618.43
1701.7
1047.62
1541.58
9670.84
1374.34
1432.73
8565.89
7486.92
1310.43
1288.65
6888.45
2679.35
1259.21
1231.7
8745.82
9574.5
1699.51
1533.13
3474.04
1465.96
13211.5
16068.3
16023.2
15800.3
16419.7
16408.3
16332.6
16385.6
16252.4
16286.9
16213.2
16227.8
16181.1
16196.3
16170.1
16172.8
16176.5
16171.9
16194.3
16184.2
16218.7
16205.9
16246.6
16232.3
16276.9
16261.5
16308.7
16292.6
16341.4
16325
16374.4
16357.9
16407.4
16390.9
16440.3
16423.9
16472.7
16456.5
16504.7
16488.7
16536.2
16520.5
16567.4
16551.9
16597.8
16582.7
16612.6
13465.4
9121.06
11015.7
6499.42
7647.84
4911.85
5604.81
3987.29
4382.08
3527.68
3707.16
3440.01
3440.04
3706.97
3527.57
4381.74
3987.02
5604.33
4911.45
7647.35
6498.91
9120.49
16641.3
16611.6
16626.5
16581.3
16596.6
16550.3
16565.9
16518.7
16534.6
16486.6
16502.8
16454
16470.4
16421.1
16437.6
16387.9
16404.5
16354.5
16371.2
16321.2
16337.9
16288
16304.6
16254.7
16271.5
16218.5
16237.7
16171.7
16197.6
16105.7
16139.4
16062.3
16080.1
16058
16055.7
16079.3
16066.5
16128.3
16101
16197
16161
16307.2
16247.6
16479.1
16383.1
16748.9
16599.7
17158.1
16935.2
17399.8
3317.53
2263.72
2723.36
1624.73
1905.38
1281.69
1231.69
1404.54
1719.13
1640.74
2276.99
1920.69
2733.52
4697.96
4747.72
3804.7
4846.34
4712.77
5151.23
4999.35
5297.63
6385.36
5392.66
12043.6
2983.43
4116.98
3144.01
4437.07
4093.26
4277.05
4713.1
4579.88
4935.16
4828.93
5183.5
5042.05
5586.81
5376.41
5832.87
5627.18
12743.3
3272.39
11161.7
3549.44
1604.42
5142.94
1271.26
1508.51
1785.66
1694.01
1523.7
6403.17
28543.9
7657.47
21907.7
9574.28
16656.2
16656
27198.9
18881.3
5518.22
5327.85
5674.9
18314.2
5499.24
4218.62
3925.67
3407.24
3535.2
5584.28
3706.53
4557.76
4207.52
7397.25
6115.37
15105.4
11617.2
2796.15
2702.91
16330.9
13495.2
3111.78
2777.99
1337.15
1460.05
27651.7
33014.9
5262.99
5575.98
5416.01
1094.02
15812.8
15599.5
17395.4
1413.35
1166.99
1230.11
1379.57
20139.4
5105.67
5183.17
6247.57
6010.04
7338.74
18408.3
3144.38
3878.18
7691.38
4546.07
6734.88
10856.4
2326.89
2286.77
3748.13
1095.9
1135.65
1370.87
5451.6
1003.28
1166.95
23660
2284.69
5696.31
7534.68
13985.5
12959.1
10348.1
15155
13898
1865.12
1802.06
1314.4
3321.72
2055.21
987.012
1040.41
1821.21
8583.72
13072.9
13884.6
1420.13
1483.54
1268.81
1671.15
8933.95
7773.32
14254.8
15406.3
14110.2
14067.7
13173.8
13351.4
12832.3
13297.1
1222.22
1438.71
7144.47
2252.05
1370.07
1161.97
1339.82
6639.11
151186
1116.86
6920
10041.6
29971.2
16609.8
20539
20096
20292.9
20154.5
19991
20481.9
20378.9
20487.4
20503.5
20447.7
20459.7
20438.1
20438.1
20432.4
20435.4
20439.9
20434.2
20459.3
20448.9
20487.2
20472.5
20517.3
20502.1
20548
20532.6
20578.8
20563.4
20609.3
20594.1
20638.8
20624.2
20667.1
20653.1
20693.8
20680.6
20719
20706.6
20742.4
20730.9
20764.1
20753.4
20784.4
20774.4
20803.2
20793.9
20820.6
20812.1
20836.3
20828.6
20851.1
20843.7
20857.5
13483.5
16670.7
9140.32
11035.2
6516.67
7666.34
4926.48
5620.73
3999.8
4395.56
3538.97
3718.94
3451.05
3451.08
3718.77
3538.86
4395.27
3999.57
5620.33
4926.13
7665.88
6516.23
11034.8
9139.93
16670.9
13483.5
20858.4
20843.4
20850.9
20827.8
20835.6
20811.1
20819.6
20792.8
20802.1
20773.1
20783.2
20751.8
20762.6
20728.7
20740.4
20704.1
20716.6
20677.9
20691.2
20650.1
20664.2
20620.5
20635.5
20589.3
20605
20555.5
20573.1
20513.9
20535.8
20456.4
20488.9
20372.9
20416.9
20311.4
20337
20294.9
20294.4
20309
20299.4
20344.5
20325.1
20401.3
20369.8
20479.2
20435.4
20608.8
20535
20820.9
20703.3
21132.1
20968.4
21286.5
2151.34
2583.57
1552.08
1814.87
1186.5
1347.11
988.744
961.82
1060.58
1245.8
1198.87
1565.33
1360.02
2162.06
1826.96
2593.18
4862.05
5109.82
5826.7
5771.25
5992.22
5889.52
6286.53
6132.93
6703.65
6469.17
7059.76
6373.45
4728.3
3707.35
5013.69
3934.47
5509.79
5118.69
5330.38
5805.6
5664.37
6051.23
5931.35
6343.09
6186.01
6760.26
6537.21
7032.54
5804.18
13140.3
2748.74
9956.77
11450.2
2950.15
1397.65
27962.9
32993.1
5313.75
14195.7
1121.35
22616
19679
1311.54
1450.8
17719.7
33144.5
4933.34
6362.99
4541.91
37305.9
36516.9
6231.82
7082.76
30573.9
2061.93
9768.67
6502.22
19641
12454.1
46797.1
4858.73
4580.2
6712.34
2196.05
5231.55
4388.29
4512.58
6838.69
4779.92
5690.21
5316.3
6312.17
15723.8
12064.7
2319.59
2310.22
13789.4
2575.1
2339.29
1181.46
1294.52
39455.5
5446.19
5765.81
5603.18
13075.7
13128.1
15828.1
997.5
17064.8
1256.35
1043.97
1093.78
1207.25
16074
20509.9
2884.53
13421.4
5905.61
12474.6
26425.7
26418.4
16686.2
20866.2
6173.32
5819.47
10663.3
9369.71
6054.45
6957.1
11317.8
45533.3
133907
16776.4
1915.72
2896.15
20845
16937.1
1889.24
1019.95
1226.39
4324.9
2551.43
5648.7
12515.7
949.104
15249.7
1574.76
1051.02
24018.6
2226.85
26832.1
26946.9
13800.5
7785.94
10856.5
15000.8
1551.15
884.603
904.283
1178.3
2010.44
7929.1
967.942
14076.1
9314.35
8086.14
8862.06
44496
13960.3
1295.99
1136.97
1658.72
13661.7
7423.07
1918.97
1538.61
1072.47
1108.38
1094.74
1470.46
6893.94
1429.5
12966.6
1054.88
6469.42
1934.7
8805.79
57336
35346.8
59254
21261.3
26752.3
26044.1
26339
25738.8
25846.2
25815.5
25705.2
26115.2
25975.3
26215.9
26194
26220.5
26214
26236.2
26225.3
26248
26243
26268.4
26255.9
26293.9
26281.2
26323.6
26308.8
26351.3
26337.8
26376.2
26364.2
26398.6
26387.7
26418.3
26408.8
26434.9
26427
26448.1
26441.9
26458
26453.5
26464.5
26461.7
26467.5
26466.4
26467.3
26467.8
26464
26466
26458
26461.4
26449.5
26454.1
26438.8
26444.4
26432.5
20865
13502.1
16685.6
9159.89
11054.8
6534.1
7684.99
4941.32
5636.83
4012.57
4409.27
3550.52
3730.98
3462.36
3462.39
3730.84
3550.43
4409.02
4012.37
5636.5
4941.03
7684.63
6533.74
11054.7
9159.58
13502.2
26419.8
26432.4
26426.1
26444.1
26438.5
26453.9
26449.3
26461.2
26457.9
26465.6
26463.8
26467
26466.6
26465.1
26466.4
26460.1
26463
26451.7
26456.3
26439.9
26446.2
26424.1
26432.6
26404.1
26414.7
26377.3
26392
26339.6
26360.9
26276
26312.2
26185.1
26231.8
26112.3
26143.4
26093.8
26093.1
26107.3
26097.7
26135.1
26118.7
26172
26152.8
26224.5
26195.5
26307.2
26261.1
26449.9
26370.3
26627.8
26543.3
26716.3
4515.67
2956.91
3632.67
2035.8
2437.71
1481.11
1724.09
1144.59
1291.97
939.366
1029.37
825.275
815.849
869.538
973.495
949.917
1155.08
1039.74
1491.79
1302.66
2046.01
1734.01
2973.24
2448.37
3663.03
6465.8
7278.45
7187.48
7478.71
7371.29
7787.08
7615.48
8261.43
7998.8
9251.16
8655.58
10096
5704.2
4697.05
6188.27
5029.85
6495.43
5666.43
6209.11
6927.63
6729.1
7248.85
7096.94
7529.38
7389.85
7849.46
7678.41
8282.99
8049.36
8920.21
8565.1
23255.4
5996.83
13644.4
2313.45
10257.3
11749.7
2475.34
1233.87
39255.1
5498.37
13085.6
39527.7
32669.1
1010.88
19154.8
1160.32
1267.03
18035.1
16108.2
3788.11
6130.21
12246.3
8974.3
15462.2
49948.8
14216.2
2752.66
12744.1
26411.6
26413.7
4267.27
5401.93
8582.25
8787.06
6694.98
5785.35
5885.87
8431.43
6336.51
7206.1
6847.84
11778.8
11428.8
6526.33
16536.9
12571.8
14004.2
27417.9
19378.2
19808.6
1938.29
1985.43
14121.6
1978.54
1057.34
1157.2
5788.42
3258.28
5643.69
5971.79
5805.91
12310
85981.1
39546.9
26504.8
12168.1
12202.2
928.626
9328.09
16800.6
990.552
1342.03
1078.3
35345.1
20906.8
2828.84
34438.4
34223
26352.3
11465.9
8320.19
8057.54
16421.7
7981.41
7196.79
11848.4
37647.9
30899.9
16279.1
16480
29278.2
1613.44
224207
17337.7
1622.37
928.472
1103.92
37315.4
12462
2496.53
7577.78
5861.33
12036.3
880.182
930.027
867.249
918.757
24412.9
24832.5
7812.04
15126.1
107634
60105
3126.77
8416.41
967.128
8055.22
11649.9
12679.7
24806.8
11469.8
14901.7
43976.7
34757.6
27313.3
21817.3
1349.8
838.983
1062.73
736.751
748.226
729.085
14221.3
1980.9
21644.2
16770.1
14222.1
836.144
7721.87
1583.05
11248.4
14715.9
9159.23
61568.9
30067.4
79180.4
14143.7
1796.19
1147.42
775.497
780.358
1027.12
745.951
2362.4
1670.65
7167.58
1572.6
13056.2
1000.07
995.353
1537.49
6723.49
6370.38
12128.4
896.334
973.693
12656
111993
44339.4
46286.9
45296
37837.6
46462.2
46516.5
28084.2
35847.4
34509.2
35069.7
33862.8
34128.3
33644.6
33715.8
33735.1
33626
34041.3
33886.2
34219
34153.3
34263
34245.8
34294.2
34281.1
34313.2
34304.8
34334.8
34323
34353.9
34345.1
34370.7
34362.9
34381.4
34376.8
34385
34384.8
34382.9
34384.5
34375.5
34380
34361.8
34369.4
34342.2
34352.8
34316.9
34330.3
34285.7
34302
34248.9
34268
34206.5
34228.4
34159.2
34183.5
34107.3
34133.8
34051.2
34079.7
33991.5
34021.8
33928.8
33960.6
33864.7
33896.7
33833.8
20873.1
26405.6
13520.9
16701.1
9179.55
11074.7
6551.6
7703.73
4956.28
5653.04
4025.49
4423.11
3562.25
3743.19
3473.86
3473.89
3743.07
3562.18
4422.91
4025.33
5652.78
4956.04
7703.47
6551.34
11074.7
9179.34
16701.8
13521.1
26408
20874.5
33837.2
33898.8
33867.6
33961.8
33930.4
34023
33992.7
34081.2
34052.5
34135.3
34108.8
34184.8
34160.6
34229.2
34207.6
34268.4
34249.5
34302.3
34286
34330.6
34317.2
34352.9
34342.6
34368.8
34361.6
34376.1
34373
34372.1
34377.3
34348
34367.7
34293.7
34329.3
34212.9
34255.2
34145.6
34175.5
34142.2
34137.7
34161.9
34151
34188.6
34176
34210.9
34199.5
34235.1
34221.8
34278.8
34252.7
34342.1
34308.2
34408
34377.7
34432.6
4162.17
5138.26
2762.8
3376.29
1919.72
2287.35
1412.17
1633.98
1106.32
1239.85
921.785
1002.44
811.082
859.316
774.09
1114.88
1010.91
1420.41
1248.44
1928.7
1642.56
2784.51
2299.86
3421.45
6934.11
7965.04
7527.94
8305.85
9206.85
9098.52
9450.92
9324.37
9790.12
9600.87
10312
10025.2
11321.4
10729.4
12106.9
10176
9417.17
6088.82
7729.64
6599.53
8367.88
8114.56
8830.53
8614.56
9177.1
9015.76
9488.25
9330.03
9843.32
9658.81
10290.9
10051.3
10896.5
10569.2
11148
6206.13
14253.2
23742.2
17799.5
1944.99
10589.1
12084.4
2102.56
1102.52
12041.7
11650
5801.37
4283.06
11144.3
8048.15
15867.7
45887.7
56499.9
21821.7
106032
44035.6
5698.56
12201.3
10603.2
32106.6
12302
929.232
17751.5
18863.6
1039.1
1173.32
1124.43
18425.3
23451.8
21261.3
15466.8
3753.07
98149
43201.2
21232.9
9259.83
38629
60352.7
56901.4
34025.4
64986.4
11569.7
15314.7
10755.7
8718.89
10537.2
8657.08
9006.69
7680.46
6758.95
20956.1
17386.4
13148.4
25700.9
18437.9
18456.3
24620
1646.55
15116.9
20975.2
887.225
34643.4
14793.6
14515.6
1694.2
958.751
1044.04
727.577
740.913
737.69
723.654
12312.9
10884.9
8085.28
8120.76
5788.29
3199.15
7382.92
60742.7
26287.1
5856.14
6195.3
6025.68
11724.5
818.938
104447
14992.2
38460.4
11399.7
11358.3
11482.7
2044.78
887.532
14733.1
25435.9
16535.6
2961.29
8750.73
47713.4
910.868
1383.05
14657.8
13689.1
981.397
1045.45
14228.2
14720.7
44023.4
43949.1
26403.5
33808.6
6306.22
8999.05
8041.3
11907.6
11790.7
11205.3
11713.7
7456.72
13853.5
10045.7
21637.2
12478.1
31172
16630.7
16206.7
28462.1
1651.68
17867.3
37945.3
1771.82
1406.81
857.122
1001.09
717.755
14864
11257.3
8121.58
2449.67
10828.8
57319.1
101152
6089.98
11697.5
826.818
9125.87
10789.9
908.046
15055.3
58790.1
8036.45
231365
4961.56
14097.8
16007.7
8345.73
13064.9
26190.8
12170
46396.1
37916
13324.6
14875.6
34249.1
2175.04
22564.9
1190.07
788.972
966.837
724.583
13061.4
10984.8
1969.23
79136.4
63932.2
64467.4
38174.3
14493.4
7460.01
93028.7
9483.65
12360.6
33072.3
1793.32
36923.5
29132.1
13192.3
1029.83
747.205
939.69
14226.5
1712.74
42303.9
6994.04
6625.59
12088.9
915.084
920.742
1651.96
17038
14766.6
24100
59247
1834.06
56975.1
58119.7
57626.9
57761.1
58039.1
46332.5
57333.4
57410.5
38420.4
49575.6
46950.5
48031.3
45643.2
46181.4
45049.5
45282.9
44907.1
44949.9
45024.2
44905
45356
45187.4
45556.2
45479.1
45630.1
45611.5
45669.4
45658.8
45680.6
45675
45678.9
45680.4
45668.5
45675
45647.3
45659.1
45614.4
45632.3
45570
45593.6
45515.3
45543.7
45451.2
45484.5
45377.2
45415.4
45293.9
45336.8
45201.4
45248.8
45099.9
45151.7
44989.6
45045.8
44870.9
44931.2
44744.4
44808.5
44610.6
44678.4
44470.3
44541.2
44324.7
44398.1
44175.2
44250.3
44099.1
33804.8
20882
26401.1
13540
16717
9199.25
11094.8
6569.1
7722.46
4971.24
5669.23
4038.45
4436.98
3574.04
3755.46
3485.42
3485.44
3755.36
3573.98
4436.82
4038.32
5669.04
4971.06
7722.31
6568.92
11094.8
9199.21
16717.9
13540.4
20883.6
43954.2
44102.9
44027.9
44253.7
44178.4
44401.9
44328.3
44545.4
44474.3
44682.6
44614.8
44812.7
44748.6
44935.1
44874.9
45049.5
44993.3
45155.5
45103.6
45252.7
45205.3
45341.1
45298.1
45419.6
45381.9
45487.1
45455.2
45532.4
45512.7
45549
45543.3
45527.4
45543.5
45482.7
45506.5
45459.7
45462.7
45484.9
45468.1
45532.1
45506.7
45570.3
45554.3
45587.1
45579.7
45596.4
45591.4
45605.8
45603.2
45605.9
45605.9
45588.7
45605.9
45425.4
45553.6
45138.2
45130.2
3849.86
4781.08
2568.93
3128.11
1803.12
2136.87
1345.75
1545.5
1072.24
1191.68
909.065
980.216
812.161
854.386
760.38
780.19
748.644
739.314
747.284
732.965
760.082
746.376
816.579
783.334
914.849
859.396
1078.84
986.485
1352.32
1198
1811.53
1552.25
2589.88
2148.61
3937.42
3169.9
4957.46
10456.9
9970.88
10837.4
11842.1
11700.2
12119.7
11976.9
12502.2
12290.5
13071.4
12753.9
14083
13497.2
14799.3
12428.4
623295
7981.65
9800.95
8943.98
10559.1
10017.9
10339.9
10947.1
10740.3
11429
11197.2
11808.6
11634.2
12146.1
11978.1
12527.3
12329.2
12989.9
12747.1
13552.5
13261.7
13865.6
6434.09
14916.5
21613.7
21099.3
1662.56
52747.7
7856.59
10962.4
12469.4
56721.1
996.669
725.3
10750.7
4234.07
7083.02
7250.43
48156
59588.2
60393.9
14545
57749.4
55511.9
55076.1
45232
34116.8
5914.73
11517.8
159966
11387.2
31258.8
11389.1
105016
18357.1
18489
23825.2
943.789
1213.8
20462.1
21662.2
1008.38
15709.9
152985
30429.3
16204.7
46323.4
20365.1
51733.2
38016.2
43877.7
43882.9
45449.7
10339.4
65717.6
13728.7
11903.2
11528.6
13417.2
12133.1
12295.3
7012.45
24470.5
19029.9
21783.4
18175.2
13819.8
26008
18942.3
18010.7
23858.9
1416.97
1473.48
13159.9
689503
15012.2
1634.23
1463.49
881.028
951.4
712.919
11359.4
9868.64
5722.14
3138.77
10718.1
37079.5
35805.4
74108.9
26991.8
6085.7
6438.43
6264.03
11285.5
787.435
722.446
736.854
41986
37087.6
10788.3
10677.4
10673.8
18096
18716.6
1538.54
833.647
868.495
39780
27119.5
16244.2
37057.2
8355.24
1185.39
915.249
102998
850.327
25674.3
99752.2
14927
15535.1
107387
16707.5
13312.2
9473.56
12663.9
7738.53
14385.6
22794.2
13222.1
31351.8
16873.3
58159.1
73693.6
58454.2
15968.3
27423.2
2747.94
3619.93
59531.1
27118.9
18589.9
1236.72
801.938
916.384
711.185
875.145
13389.9
10229.3
7748.06
2413.72
12191.4
66815.4
75845.3
76420.1
89355.5
82416.5
71453.6
65238.7
6334.57
11470.1
836.768
24979.2
10023.7
10052.2
910.599
15068
23405.8
7771.58
74281
54245.5
56637.3
10933.4
9844.05
8662.89
13642.3
28197.8
13090.1
37909.2
46490.1
14994.5
116164
15462.2
2135.16
14560
23557.4
47020
1063.27
751.405
890.491
722.897
11943.3
10274.8
1984.1
14084.8
44265.5
151763
17425.5
35946.4
30518.3
7281.73
6896.03
12108.5
936.879
873.037
1796.66
29569.6
17345.8
17692.6
76232.2
75247.6
74988.6
75845
73086.6
74032.6
71803.5
72208.2
72663.4
76491
65787.1
68008
63150.4
64232.9
61892.3
62405.3
61356.2
61552.4
61258.2
61283.4
61433
61274.7
61758.2
61592.7
61955.5
61880.5
62014
61997.9
62021.5
62024.8
61993.7
62011.6
61934.8
61967.3
61850
61895.4
61745.4
61800
61621.8
61685.9
61480.7
61553.4
61323.5
61404.1
61151.5
61239.3
60964.4
61059.8
60763
60865.5
60547.6
60657
60318.7
60434.8
60076.7
60199.3
59822.2
59951
59556.1
59690.6
59279.1
59418.9
58992.3
59136.8
58697.6
58845.7
58396.8
58547.9
58094.5
58245.6
57800.1
57945.3
57661
33779
43810.6
20892
26398.3
13559.3
16733.5
9218.84
11114.8
6586.45
7741.06
4986.06
5685.28
4051.31
4450.73
3585.76
3767.64
3496.9
3496.92
3767.56
3585.71
4450.61
4051.21
5685.16
4985.94
7741.03
6586.35
11115.1
9218.92
16734.5
13559.8
26400.9
20893.7
43815.9
33782.7
57668.6
57952.7
57807.6
58252.3
58101.3
58554.7
58403.6
58853.7
58704.9
59145.4
59000.6
59427.9
59287.9
59699.8
59565.2
59960.2
59831.5
60208.7
60086
60444.6
60328.3
60667.7
60557.8
60877.5
60774.2
61073.5
60977.1
61251.9
61165.8
61402.8
61332.3
61502.5
61463.6
61560.3
61535.7
61603.1
61582.7
61661.7
61627.8
61755.8
61705.1
61878.3
61814.7
61956.4
61926.7
61997.8
61982.9
62014.2
62012.7
62000.1
62021.2
61966.2
62002.2
61864.6
61938.6
61556.2
61772.4
61146.7
61200.8
61368.2
61199.4
61751.2
5596.98
7213.41
3547.97
4422.56
2375.14
2882.62
1687.96
1985.87
1282.71
1458.93
1042.95
1147.15
901.251
962.754
818.588
854.058
775.107
792.548
757.738
764.213
756.662
755.156
774.657
762.823
820.969
793.709
905.07
857.407
1047.51
967.082
1287.77
1151.97
1695.05
1464.73
2391.63
1996.47
3604.3
2913.1
5743.87
4522.23
9622.48
7380.21
12775.5
13505.4
13416.1
13971
13542.9
44921.4
14375.9
15191
43605.4
15495.5
15353.4
15817.1
15645.5
16244.5
16014.8
16861.9
16533.5
17847.7
17285.4
19310.5
18521.8
15584
69054
10458.8
11325.8
12753.7
12430.6
14039.8
13720.1
14531.2
14300.8
15049.5
14791.9
15471.1
15276.2
15840.2
15651.2
16235.5
16030.6
16710.4
16458.8
17281.6
16976.8
17638.8
6682.22
1051.39
15644.6
22006.6
21282.8
73449.2
76494.3
20477.9
1439.85
953.537
32704.5
11372.9
12913.3
1530.16
912.001
714.442
9844.08
4162.54
10624.2
17959.6
27073.1
31586.7
42085.6
77494
76666.4
75651.5
76543.2
72332.1
74149.5
70039.3
70931.2
71462.1
69618.3
75637.5
78310.8
76107.1
34517
6148.49
10987.2
758.248
14957.8
30133.1
10650.7
19789.6
55177.8
23261.5
15756
1341.51
806.346
41355.5
843.889
19643.9
17943.1
8714.58
7894.32
100530
96412.8
11453.1
14977.6
22850.5
68065
876.703
67686.7
68954.8
19294.6
62611.1
35810.9
103048
77984.5
18343.8
104217
78700.8
106422
18543.2
16578.9
15673.8
16564.2
33940.7
17110.6
17235.6
8755.85
11783.5
7287.33
15889.8
19981.8
22711.8
19085.3
14627.1
26264.2
19252.5
62066.3
58515.8
17540.9
22908.5
16278.1
6841.15
1242.06
15671.4
63593.4
24976.9
15709
2475.86
11856.4
17976.6
1436.36
1288.71
820.214
876.159
705.398
10345.5
8955.28
5535.28
3073.16
75531.5
104040
72742.9
68037
15588.6
15740.4
60890
61229.3
104106
77088.8
106623
54832.1
12348.1
61151.4
46048.7
27898.4
6332.41
6703.44
6523.24
10963.2
791.428
715.669
732.091
45585.6
36405.7
10299.2
10116.4
10012.7
860.432
28903
15991.6
8947.42
41949.5
46326.3
158512
5867.4
77388.6
77124.8
43754.9
57538.7
8825.96
11840
20605.2
10229.2
24094.8
11175.6
8046.29
15115.2
24354.9
14198.9
31453.9
17063.2
46773.2
15820.6
10101.3
25245.1
2470.98
2669.54
798.539
19993.8
19543.9
13447.7
1101.29
759.945
849.527
707.548
12277.9
9280
7363.9
2395.76
14272
54431.9
46130
17297.8
74017.4
22211
128313
151129
40477.5
52298.2
23513.2
24216
6592.95
11327.3
848.872
866.409
1833.39
44856.4
9435.1
924.83
12555.8
9013.96
14461.8
30258
37990.5
5410.75