/*--------------------------------*- C++ -*----------------------------------*\
| =========                 |                                                 |
| \\      /  F ield         | OpenFOAM: The Open Source CFD Toolbox           |
|  \\    /   O peration     | Version:  2212                                  |
|   \\  /    A nd           | Website:  www.openfoam.com                      |
|    \\/     M anipulation  |                                                 |
\*---------------------------------------------------------------------------*/
FoamFile
{
    version     2.0;
    format      ascii;
    arch        "LSB;label=32;scalar=64";
    class       volScalarField;
    location    "0.0534";
    object      k;
}
// * * * * * * * * * * * * * * * * * * * * * * * * * * * * * * * * * * * * * //

dimensions      [0 2 -2 0 0 0 0];

internalField   nonuniform List<scalar> 
31661
(
1734.54
509.343
551.801
526.284
505.647
540.607
519.473
503.144
532.007
514.364
1959.42
571.505
4817.07
1065.92
1437.77
1664.99
1507.75
1761.31
544.728
1646.03
484.45
486.905
969.313
1865.01
522.249
485.386
1089.25
838.173
573.547
575.873
1832.46
872.51
908.663
573.629
694.642
1714.81
454.135
1658.7
1196.8
963.455
737.985
510.305
1253.08
651.977
659.414
594.751
657.811
657.583
457.062
1136.1
610.29
1374.3
611.098
626.936
1104.1
548.375
617.531
637.384
1663.48
576.282
587.334
580.373
697.412
478.874
520.528
1723.62
1584.25
1532.56
1384.52
1242.86
555.719
1049.3
939.884
842.597
759.975
690.187
633.039
586.787
550.223
521.606
499.691
483.149
470.917
461.988
465.772
475.877
489.606
507.941
531.836
562.439
600.837
648.132
705.515
773.816
853.211
944.037
1039.89
1136.63
1248.58
1368.49
1489.56
1602.33
1707.71
1855.26
1820.87
1963.79
1926.3
2055.44
2018.16
2129.66
2095.33
2187.69
2158.15
2231.52
2207.5
2263.49
2244.81
2285.91
2271.96
2300.85
2290.79
2310.01
2302.99
2314.74
2310.03
2316.12
2313.08
2314.93
2313.09
2311.78
2310.76
2307.12
2306.63
2301.28
2301.13
2294.53
2294.57
2287.07
2287.19
2279.04
2279.18
2270.57
2270.69
2261.77
2261.83
2252.72
2252.72
2243.51
2243.41
2234.19
2234
2224.84
2224.54
2215.51
2215.12
2206.27
2205.79
2197.17
2196.61
2188.28
2187.64
2179.66
2178.96
2171.39
2170.62
2163.56
2162.73
2156.25
2155.37
2148.64
2149.56
2148.48
2155.12
2162.39
2170.2
2178.45
2187.05
2195.93
2205.02
2214.27
2223.59
2232.95
2242.26
2251.48
2260.52
2269.31
2277.75
2285.74
2293.15
2299.8
2305.49
2309.93
2312.75
2313.46
2311.4
2305.7
2295.2
2278.46
2253.67
2218.74
2171.35
2109.29
2030.72
1934.23
1818.73
1686.56
1538.49
1381.68
1228.58
1090.01
968.923
866.307
779.257
706.121
645.912
597.105
558.375
458.485
455.637
528.096
504.931
487.429
474.363
464.75
451.316
453.417
459.656
466.705
476.487
489.685
507.109
529.763
558.522
594.22
637.638
689.094
748.984
817.171
892.926
974.95
1061.45
1149.6
1241.88
1337.96
1434.65
1530.54
1627
1728.69
1828.74
1922.54
2007.12
2080.82
2142.72
2192.7
2231.45
2260.16
2280.36
2293.61
2301.3
2304.68
2304.76
2302.28
2297.87
2292.01
2285.05
2277.25
2268.84
2259.97
2250.77
2241.36
2231.82
2222.23
2212.66
2203.19
2193.88
2184.8
2176.01
2167.59
2159.62
2152.21
2145.45
2139.49
2142.68
2143.64
2142.61
2139.53
2145.31
2151.9
2159.15
2166.96
2175.22
2183.86
2192.8
2201.96
2211.27
2220.68
2230.12
2239.51
2248.8
2257.89
2266.69
2275.1
2282.97
2290.13
2296.35
2301.35
2304.73
2305.99
2304.45
2299.23
2289.21
2273
2248.97
2215.3
2170.24
2112.37
2040.9
1955.96
1858.69
1750.6
1633.95
1504.44
1373.48
1246.99
1126.63
1014.72
915.668
828.042
751.803
686.823
632.316
587.931
552.486
524.74
457.843
503.288
486.92
474.622
454.748
450.07
453.054
448.529
451.485
457.972
463.296
470.933
481.373
495.317
513.556
536.899
566.191
602.16
645.104
695.267
752.147
814.868
882.1
952.308
1023.85
1095
1164.47
1233.95
1304.18
1375.48
1448.65
1526.53
1611.29
1699.85
1789.37
1877.02
1959.77
2035.24
2100.98
2155.99
2199.89
2233.41
2257.68
2274.09
2284.14
2289.14
2290.22
2288.33
2284.19
2278.37
2271.32
2263.35
2254.71
2245.6
2236.19
2226.59
2216.91
2207.23
2197.63
2188.21
2179.01
2170.13
2161.64
2153.63
2146.2
2139.46
2133.55
2128.62
2134.46
2137.63
2138.62
2137.66
2134.7
2129.4
2134.04
2139.69
2146.19
2153.41
2161.21
2169.51
2178.2
2187.21
2196.46
2205.88
2215.39
2224.93
2234.41
2243.75
2252.84
2261.55
2269.73
2277.17
2283.62
2288.73
2292.05
2292.98
2290.75
2284.38
2272.64
2254.09
2227.13
2190.23
2142.08
2082.08
2010.51
1928.68
1838.86
1744.01
1646.95
1548.8
1447.47
1348.27
1251.93
1158.8
1067.26
980.101
897.928
821.792
752.428
691.567
639.695
596.513
561.088
532.59
465.539
510.298
493.104
447.942
454.385
449.392
458.998
449.897
446.79
451.971
458.148
462.393
468.53
477.128
488.822
504.264
524.225
549.5
580.803
618.676
663.299
714.303
770.851
831.525
894.193
956.964
1017.79
1075.25
1128.45
1177.67
1224.99
1271.86
1319.95
1371.01
1427.67
1492.11
1563.66
1641.15
1722.95
1806.65
1889.24
1967.51
2038.56
2100.1
2151.05
2191.33
2221.54
2242.87
2256.73
2264.54
2267.63
2267.1
2263.84
2258.56
2251.8
2243.97
2235.38
2226.28
2216.85
2207.25
2197.6
2187.99
2178.53
2169.31
2160.41
2151.92
2143.93
2136.56
2129.92
2124.16
2119.43
2115.94
2124.85
2130.54
2133.67
2134.68
2133.82
2131.02
2125.97
2118.13
2121.18
2125.54
2130.98
2137.34
2144.46
2152.21
2160.49
2169.2
2178.24
2187.54
2197.01
2206.57
2216.11
2225.55
2234.75
2243.57
2251.82
2259.25
2265.55
2270.28
2272.91
2272.7
2268.73
2259.87
2244.76
2221.9
2189.8
2147.17
2093.33
2028.51
1953.95
1872.09
1785.94
1698.84
1613.95
1533.32
1457.11
1384.04
1315.2
1248.74
1183.59
1116.23
1047.24
976.904
906.148
836.884
771.891
712.932
660.589
615.457
577.65
546.981
480.007
522.429
446.682
448.188
470.228
455.264
450.561
454.471
447.884
445.825
453.479
459.132
462.659
467.698
474.879
484.84
498.149
515.552
537.821
565.695
599.766
640.406
687.499
740.382
797.75
857.692
917.81
975.663
1029.18
1077.07
1118.83
1154.64
1186.01
1214.96
1243.31
1272.78
1305.22
1342.64
1387.08
1439.18
1499.18
1566.84
1641.18
1720.34
1801.64
1881.81
1957.4
2025.68
2084.51
2132.69
2170.25
2198
2217.08
2228.98
2235.17
2236.9
2235.27
2231.12
2225.16
2217.88
2209.69
2200.89
2191.73
2182.37
2172.98
2163.67
2154.58
2145.79
2137.43
2129.59
2122.4
2115.99
2110.51
2106.13
2103.06
2101.53
2113.89
2122.45
2127.94
2130.99
2132.03
2131.29
2128.71
2124
2116.62
2106.77
2109.32
2113.26
2118.38
2124.48
2131.4
2139.01
2147.18
2155.8
2164.76
2173.98
2183.34
2192.73
2202.04
2211.1
2219.74
2227.71
2234.73
2240.38
2244.14
2245.32
2243.04
2236.21
2223.52
2203.53
2174.74
2135.87
2086.17
2025.63
1955.36
1877.72
1795.68
1712.77
1632.36
1557.1
1488.72
1427.83
1373.8
1325.31
1281.5
1240.03
1198.36
1153.97
1105.36
1051.44
992.291
929.545
865.61
802.635
742.777
688.069
640.414
599.637
503.241
565.49
2105.89
537.866
446.165
488.429
447.736
463.065
449.957
451.436
456.847
452.587
446.687
445.544
455.55
460.624
463.538
467.831
473.916
482.391
493.885
509.119
528.828
553.774
584.645
621.916
665.657
715.537
770.523
828.884
888.339
946.305
1000.21
1048.18
1089.05
1122.63
1149.52
1170.85
1188.4
1203.88
1218.87
1234.74
1252.97
1275.09
1302.62
1336.62
1378.02
1427.54
1485.48
1551.51
1624.46
1702.23
1781.98
1860.39
1934.11
2000.17
2056.67
2102.57
2137.98
2163.71
2181.06
2191.54
2196.55
2197.37
2195.06
2190.46
2184.21
2176.82
2168.68
2160.09
2151.27
2142.42
2133.7
2125.24
2117.19
2109.68
2102.83
2096.81
2091.77
2087.91
2085.44
2084.6
2085.68
2101.82
2113.56
2121.68
2126.9
2129.84
2130.91
2130.32
2128.03
2123.75
2116.95
2106.96
2091.01
2091.12
2093
2096.37
2101.01
2106.71
2113.29
2120.6
2128.49
2136.85
2145.54
2154.44
2163.4
2172.28
2180.89
2188.99
2196.27
2202.38
2206.8
2208.87
2207.75
2202.37
2191.47
2173.61
2147.28
2111.25
2064.65
2007.33
1940.42
1865.78
1786.38
1705.83
1627.51
1554.37
1488.35
1430.51
1381.14
1339.62
1304.85
1275.5
1250.15
1226.75
1203.22
1177.36
1147.16
1110.88
1067.48
1016.96
960.544
899.787
837.43
777.111
720.795
669.455
624.822
587.02
2092.97
555.744
515.982
446.239
477.178
447.836
458.028
449.923
449.44
452.337
446.203
458.829
454.998
445.791
2088.99
2104.24
2115.26
2122.84
2127.73
2130.51
2131.61
2131.22
2129.3
2125.55
2119.45
2110.32
2097.34
2074.14
2071.17
2070.35
2071.4
2074.04
2078.02
2083.14
2089.2
2096.01
2103.41
2111.25
2119.36
2127.59
2135.7
2143.49
2150.65
2156.79
2161.45
2163.98
2163.57
2159.2
2149.61
2133.4
2109.08
2075.33
2031.23
1976.62
1912.35
1840.25
1763.15
1684.58
1607.83
1535.94
1471.08
1414.46
1366.6
1327.19
1295.42
1270.22
1250.42
1234.87
1222.31
1211.19
1200.12
1187.58
1171.65
1150.78
1123.24
1087.88
1044.17
992.599
935.553
875.44
814.28
755.74
701.266
652.654
610.563
530.615
575.403
2079.58
457.89
462.486
464.882
468.535
473.758
481.048
491.027
504.37
521.789
544.082
571.982
606.077
646.67
693.621
746.199
803.002
861.964
920.555
976.118
1026.25
1069.28
1104.41
1131.78
1152.24
1167.03
1177.59
1185.39
1191.73
1197.69
1204.36
1212.56
1223.38
1238.05
1257.49
1282.7
1314.71
1354.46
1402.63
1459.41
1524.38
1596.26
1672.85
1751.24
1828.05
1899.89
1964.02
2018.42
2062.31
2095.84
2119.9
2135.89
2145.27
2149.48
2149.76
2147.15
2142.45
2136.31
2129.22
2121.55
2113.59
2105.6
2097.77
2090.28
2083.31
2077.01
2071.56
2067.15
2063.99
2062.29
2062.3
2064.33
2068.66
498.86
446.727
547.011
510.854
468.858
448.362
454.573
450.365
448.287
452.598
446.287
454.996
446.4
461.101
457.621
2056.06
2049.57
2045.52
2043.68
2043.74
2045.49
2048.64
2052.97
2058.28
2064.34
2070.96
2077.93
2085.05
2092.05
2098.63
2104.41
2108.92
2111.54
2111.48
2107.74
2099.12
2084.21
2061.54
2029.73
1987.83
1935.56
1873.67
1803.86
1728.99
1652.27
1576.99
1506.32
1442.55
1386.85
1339.92
1301.51
1270.97
1247.39
1229.67
1216.81
1207.83
1201.7
1197.55
1194.45
1191.39
1187.45
1181.57
1172.16
1157.76
1136.76
1107.77
1070.21
1024.46
971.1
912.993
851.935
791.693
734.571
682.108
636.047
597.187
466.616
469.7
474.243
480.546
489.246
501.008
516.422
536.28
561.432
592.515
629.984
673.924
723.892
778.794
836.855
895.718
952.724
1005.29
1051.32
1089.53
1119.55
1141.84
1157.42
1167.58
1173.62
1176.79
1178.12
1178.48
1178.57
1179.13
1180.75
1183.86
1189.36
1198.12
1210.96
1228.78
1252.55
1283.28
1321.88
1369
1424.78
1488.71
1559.46
1634.76
1711.69
1786.79
1856.8
1918.91
1971.33
2013.31
2045.11
2067.75
2082.61
2091.19
2094.89
2094.96
2092.39
2087.97
2082.33
2075.96
2069.22
2062.43
2055.85
2049.7
2044.2
2039.54
2035.95
2033.66
2032.89
2033.9
2036.97
2042.34
2050.27
2075.59
2094.89
2109.17
2119.35
2126.31
2130.78
2133.37
2134.5
2134.35
2132.88
2129.78
2124.52
2116.36
2104.45
2087.76
464.676
2065.21
524.312
565.183
460.472
485.688
447.549
2077.15
2098.94
2114.65
2125.48
2132.56
2136.88
2139.22
2140.15
2140
2138.84
2136.49
2132.51
2126.28
2116.99
2103.71
2085.41
2060.92
495.493
462.854
449.206
463.613
468.716
471.323
475.246
480.744
488.396
498.806
512.509
530.269
552.845
581.081
615.519
656.408
703.559
756.188
812.827
871.37
929.263
983.842
1032.75
1074.29
1107.64
1132.87
1150.73
1162.34
1169
1171.89
1172.07
1170.4
1167.55
1164.06
1160.37
1156.91
1154.16
1152.4
1151.92
1153.34
1157.41
1164.88
1176.49
1193.14
1215.8
1245.49
1283.06
1329.12
1383.8
1446.55
1515.97
1589.8
1665
1738.25
1806.23
1866.27
1916.66
1956.77
1986.98
2008.35
2022.3
2030.31
2033.8
2033.97
2031.8
2028.07
2023.39
2018.25
2013.04
2008.09
2003.68
2000.07
1997.52
1996.26
1996.55
1998.65
2002.78
2009.15
2017.9
2029.09
539.519
506.55
452.209
451.138
447.854
453.233
446.779
455.466
447.313
457.857
460.423
467.143
463.244
473.297
469.81
2048.01
2035.69
2025.81
2018.37
2013.27
2010.32
2009.31
2010
2012.14
2015.46
2019.76
2024.75
2030.19
2035.83
2041.32
2046.27
2050.23
2052.56
2052.51
2049.11
2041.16
2027.29
2006.02
1975.96
1936.07
1886
1826.35
1758.8
1685.96
1611.19
1537.6
1468.4
1405.64
1351
1304.94
1267.39
1237.71
1215.14
1198.5
1186.89
1179.43
1175.36
1173.77
1173.56
1174.9
1176.96
1179.07
1180.66
1180.98
1179.21
1174.17
1164.47
1148.71
1125.49
1093.79
1052.99
1003.78
948.438
889.134
828.021
768.36
713.415
664.025
621.086
585.671
2091.91
519.094
556.429
758.412
2062.65
475.788
448.612
2113.31
2128.24
2138.07
2144.07
2147.37
2148.85
2149.16
2148.68
2147.48
2145.4
2141.96
2136.5
2128.14
2115.82
2098.34
2074.4
2042.68
483.812
458.618
450.293
475.361
473.321
476.715
481.606
488.365
497.557
509.821
525.808
546.19
571.732
603.206
641.112
685.359
735.439
790.197
847.81
905.911
961.865
1013.15
1057.76
1094.49
1122.99
1143.7
1157.58
1165.85
1169.7
1170.24
1168.34
1164.73
1159.94
1154.4
1148.42
1142.29
1136.25
1130.54
1125.49
1121.31
1118.2
1116.53
1116.9
1119.98
1126.5
1137.17
1152.87
1174.57
1203.24
1239.74
1284.65
1338.07
1399.4
1467.24
1539.29
1612.54
1683.66
1749.42
1807.25
1855.53
1893.8
1922.5
1942.73
1955.95
1963.66
1967.25
1967.9
1966.57
1964.04
1960.91
1957.69
1954.78
1952.53
1951.23
1951.18
1952.64
1955.84
1960.97
1968.16
1977.45
1988.77
2001.91
492.854
450.8
452.168
533.107
503.082
447.951
454.165
447.599
456.267
448.445
458.484
460.847
463.403
469.182
2109.39
2079.33
479.977
478.183
2024.2
2010.29
1998.07
1987.81
1979.65
1973.6
1969.58
1967.42
1966.94
1967.86
1969.94
1972.88
1976.38
1980.12
1983.67
1986.56
1988.18
1987.77
1984.38
1976.84
1963.79
1943.75
1915.29
1877.34
1829.43
1772.06
1706.79
1636.13
1563.23
1491.54
1423.85
1362.58
1309.01
1264.12
1227.45
1198.67
1176.85
1161.12
1150.31
1143.73
1140.69
1139.99
1141.76
1144.7
1148.62
1153.5
1158.74
1164.05
1169.09
1173.35
1176.35
1177.35
1175.44
1169.46
1158.04
1139.66
1113.14
1077.75
1033.88
981.942
924.047
864.011
803.985
746.409
693.606
647.313
607.972
575.438
474.229
471.891
514.746
549.02
695.436
468.538
449.866
2130.93
2145.46
2154.51
2159.53
2161.82
2162.4
2162.04
2161.18
2159.95
2158.14
2155.28
2150.58
2143.08
2131.53
2114.56
2090.71
2058.49
2016.59
475.104
455.692
451.56
503.861
478.463
482.883
488.902
497.153
508.251
522.697
541.204
564.471
593.204
628.048
669.405
716.792
769.335
825.504
883.167
939.803
992.836
1040.03
1079.84
1111.56
1135.29
1151.77
1162.11
1167.49
1169.04
1167.71
1164.27
1159.3
1153.24
1146.43
1139.11
1131.49
1123.74
1116.01
1108.45
1101.19
1094.44
1088.49
1083.42
1079.41
1076.97
1076.62
1078.99
1084.74
1094.61
1109.46
1130.22
1157.86
1193.22
1236.83
1288.76
1348.43
1414.38
1484.35
1555.33
1624.05
1687.35
1742.8
1788.92
1825.33
1852.59
1871.86
1884.62
1892.36
1896.46
1898.08
1898.18
1897.5
1896.69
1896.23
1896.5
1897.83
1900.53
1904.8
1910.79
1918.53
1927.97
1938.9
1951.03
1963.94
482.503
450.17
453.396
490.887
448.471
455.321
527.937
500.537
448.658
457.324
449.75
459.416
461.623
463.976
2129.37
2097.72
466.503
469.058
578.014
471.462
2039.44
1988.65
1975.47
1962.89
1951.31
1941.12
1932.56
1925.76
1920.76
1917.46
1915.67
1915.18
1915.67
1916.81
1918.22
1919.4
1919.74
1918.48
1914.69
1907.22
1894.73
1875.74
1848.8
1812.75
1767.05
1712.06
1649.21
1580.91
1510.25
1440.47
1374.59
1314.84
1262.74
1218.95
1183.42
1155.45
1134.41
1119.46
1109.5
1103.61
1101.21
1101.12
1103.69
1107.65
1112.7
1118.62
1125.31
1132.42
1139.69
1147.08
1154.26
1160.94
1166.91
1171.66
1174.68
1175.17
1172.13
1164.29
1150.36
1128.91
1098.86
1059.91
1012.47
958.504
899.84
839.516
780.284
725.222
675.615
632.496
596.372
566.85
1313.39
511.514
543.052
511.611
600.513
463.384
451.258
2151.78
2166.5
2175.2
2179.52
2180.91
2180.64
2179.6
2178.36
2177.05
2175.51
2173.16
2169.13
2162.26
2151.11
2134.15
2109.73
2076.26
2032.4
1977.24
468.769
453.848
452.968
604.777
511.862
483.73
489.572
497.239
507.379
520.623
537.609
558.973
585.393
617.497
655.76
700.407
750.53
804.866
861.54
918.201
972.307
1021.49
1063.94
1098.61
1125.28
1144.45
1157.06
1164.24
1167.14
1166.76
1163.93
1159.28
1153.29
1146.33
1138.66
1130.49
1121.96
1113.21
1104.35
1095.48
1086.68
1078.05
1069.7
1061.77
1054.46
1047.92
1042.25
1037.69
1034.73
1033.85
1035.65
1040.77
1049.93
1063.96
1083.8
1110.36
1144.45
1186.58
1236.82
1294.54
1358.29
1425.83
1494.2
1560.21
1620.84
1673.77
1717.68
1752.3
1778.29
1796.86
1809.52
1817.76
1822.93
1826.16
1828.36
1830.33
1832.62
1835.61
1839.63
1844.92
1851.57
1859.55
1868.7
1878.76
1889.33
1900.02
1910.44
474.885
450.12
454.777
481.833
449.304
456.651
489.786
449.91
458.582
524.126
498.905
451.18
460.583
462.672
2151.54
2117.39
464.871
467.171
469.483
471.836
2055.55
2001.98
1926.44
1915.76
1905.03
1894.62
1884.96
1876.38
1869.1
1863.26
1858.8
1855.59
1853.37
1851.81
1850.5
1848.86
1846.12
1841.4
1833.55
1821.27
1803.06
1777.46
1743.26
1699.8
1647.33
1587.1
1521.42
1453.24
1385.76
1321.91
1263.98
1213.42
1170.91
1136.5
1109.62
1089.42
1075.09
1065.78
1060.48
1058.56
1059.32
1062.18
1066.65
1072.33
1078.94
1086.24
1094.14
1102.55
1111.03
1119.78
1128.53
1137.02
1145.28
1153.06
1160.17
1166.2
1170.73
1173.1
1172.45
1167.76
1157.66
1140.77
1115.95
1082.49
1040.29
990.221
934.278
874.844
815.515
758.42
705.357
659.397
619.955
587.034
560.218
477.632
509.403
538.657
474.498
1936.69
459.714
452.76
2175.73
2191.47
2200.48
2204.59
2205.42
2204.49
2202.87
2201.24
2199.83
2198.45
2196.45
2192.8
2186.12
2174.8
2157.11
2131.25
2095.61
2048.96
1990.55
1920.34
464.275
452.89
454.482
485.033
488.222
491.551
497.391
506.717
519.12
534.999
554.864
579.382
609.171
644.732
686.33
733.925
786.167
841.418
897.533
952.066
1002.61
1047.17
1084.4
1113.79
1135.57
1150.49
1159.6
1164.03
1164.81
1162.81
1158.74
1153.12
1146.34
1138.7
1130.42
1121.65
1112.54
1103.16
1093.61
1083.96
1074.28
1064.64
1055.09
1045.71
1036.61
1027.86
1019.58
1011.94
1005.03
998.997
994.116
990.803
989.526
990.867
995.448
1003.96
1017.21
1036.1
1061.51
1094.2
1134.68
1182.97
1238.44
1299.68
1364.45
1429.91
1492.97
1550.75
1601.1
1642.83
1675.84
1700.84
1719.12
1732.18
1741.48
1748.32
1753.77
1758.72
1763.82
1769.42
1775.72
1782.86
1790.78
1799.28
1808.05
1816.7
1824.91
1832.38
1839.03
469.413
450.53
456.275
475.272
450.382
458.113
482.907
481.854
451.3
459.995
489.437
452.712
461.932
2175.6
2138.02
521.56
498.143
463.938
466.024
468.182
470.388
472.679
2072.14
2015.12
1946.33
1860.09
1852.91
1844.95
1836.38
1827.54
1818.82
1810.6
1803.12
1796.55
1790.9
1785.99
1781.57
1777.27
1772.42
1766.12
1757.33
1744.75
1726.94
1702.41
1669.89
1628.63
1578.74
1521.33
1458.51
1393.11
1328.24
1266.74
1210.89
1162.13
1121.15
1087.95
1062.11
1042.83
1029.21
1020.43
1015.66
1014.17
1015.31
1018.56
1023.37
1029.36
1036.27
1043.97
1052.3
1061.03
1070.33
1079.63
1089.22
1098.89
1108.46
1117.88
1127.14
1136.19
1144.74
1152.7
1159.7
1165.4
1169.29
1170.62
1168.45
1161.64
1148.98
1129.15
1100.93
1064.03
1018.72
966.41
909.647
850.687
792.686
738.015
688.547
645.951
609.957
579.971
555.437
508.265
475.249
535.66
477.677
1866.46
457.317
454.344
2202.6
2220.39
2230.7
2235.41
2236.31
2235.11
2233.12
2231.18
2229.61
2228.2
2226.19
2222.37
2215.19
2202.82
2183.38
2155.01
2116.21
2065.92
2003.65
1929.69
1844.98
461.208
452.593
456.079
495.743
501.459
508.656
518.902
533.064
551.566
574.623
602.601
635.922
674.911
719.589
769.57
823.079
878.175
932.556
983.844
1029.92
1069.25
1101.03
1125.23
1142.39
1153.46
1159.5
1161.56
1160.55
1157.21
1152.11
1145.69
1138.28
1130.1
1121.35
1112.15
1102.62
1092.83
1082.83
1072.71
1062.51
1052.27
1042.03
1031.87
1021.83
1011.97
1002.35
993.019
984.062
975.624
967.84
960.769
954.543
949.484
945.962
944.402
945.372
949.477
957.387
969.882
987.792
1011.97
1043.15
1081.78
1127.9
1180.86
1239.29
1301.03
1363.35
1423.29
1478.16
1525.97
1565.71
1597.38
1621.79
1640.24
1654.17
1664.99
1673.84
1681.68
1689.28
1696.87
1704.52
1712.23
1719.86
1727.13
1733.76
1739.5
1744.26
1748.1
1751.28
465.59
451.284
457.862
491.437
481.749
470.505
451.645
459.679
476.091
452.802
461.53
2201.34
2159.39
482.461
454.318
489.752
463.425
465.375
520.065
498.175
467.39
469.469
471.595
473.822
2088.93
2027.93
1955.33
1872.12
1776.94
1773.38
1768.99
1763.63
1757.31
1750.25
1742.74
1735.09
1727.55
1720.24
1713.1
1706.03
1698.74
1690.44
1680.18
1666.79
1648.89
1625.03
1593.91
1554.69
1507.34
1452.82
1393.05
1330.69
1268.71
1209.85
1156.34
1109.6
1070.34
1038.55
1013.82
995.443
982.559
974.311
969.957
968.817
970.246
973.673
978.706
984.874
991.925
999.796
1008.26
1017.26
1026.61
1036.42
1046.34
1056.38
1066.72
1076.87
1087.01
1097.11
1107.17
1116.99
1126.59
1135.72
1144.24
1152.05
1158.7
1163.78
1166.71
1166.69
1162.82
1153.8
1138.29
1115.28
1083.77
1043.85
996.322
942.918
885.625
827.293
771.581
720.23
675.075
635.782
602.477
574.66
551.848
507.943
478.095
533.528
476.242
1779.92
455.934
455.993
2232.29
2253.4
2266.27
2272.75
2274.7
2273.97
2272.09
2270.04
2268.22
2266.42
2263.74
2258.87
2250.09
2235.44
2212.96
2180.9
2137.93
2083.2
2016.55
1938.56
1850.45
1754.1
459.307
452.817
457.739
504.76
512.273
521.995
534.409
550.573
571.357
597.362
628.76
665.645
707.891
755.195
806.752
860.455
914.174
965.622
1012.64
1053.53
1087.28
1113.62
1132.87
1145.83
1153.5
1156.9
1156.95
1154.44
1149.97
1144.03
1136.96
1129.02
1120.42
1111.3
1101.77
1091.92
1081.82
1071.56
1061.11
1050.55
1039.94
1029.31
1018.7
1008.14
997.671
987.328
977.158
967.198
957.512
948.171
939.22
930.743
922.918
915.858
909.618
904.502
900.887
899.165
899.843
903.535
910.872
922.595
939.511
962.402
991.966
1028.63
1072.4
1122.66
1178.08
1236.61
1295.65
1352.42
1404.41
1449.83
1487.83
1518.49
1542.63
1561.49
1576.39
1588.5
1598.77
1608.04
1616.64
1624.39
1631.26
1637.15
1641.94
1645.56
1648.08
1649.74
1650.92
1651.96
481.238
463.055
452.305
459.521
488.42
499.037
467.248
453.051
461.326
2228.74
2181.45
471.993
454.385
455.983
477.383
463.16
465.03
483.576
466.947
490.708
468.929
519.259
498.846
470.949
473.019
475.195
2105.77
2040.38
1963.79
1877.18
1782.43
1681.03
1679.94
1678.5
1676.35
1673.22
1668.97
1663.6
1657.27
1650.16
1642.34
1633.86
1624.83
1614.91
1603.22
1588.8
1570.48
1546.91
1516.84
1479.4
1434.45
1382.77
1326.12
1266.96
1208.07
1152.1
1101.15
1056.61
1019.2
988.934
965.41
947.954
935.792
928.1
924.121
923.237
924.84
928.371
933.418
939.646
946.719
954.537
963.068
972.084
981.51
991.239
1001.37
1011.63
1021.99
1032.63
1043.23
1053.76
1064.38
1075.02
1085.54
1096.02
1106.23
1116.12
1125.72
1134.81
1143.21
1150.61
1156.67
1160.92
1162.72
1161.21
1155.28
1143.88
1125.6
1099.67
1065.43
1023.16
973.595
919.487
862.882
807.201
754.53
706.903
664.556
627.599
596.265
570.25
549.279
508.365
477.534
478.928
532.347
1681.81
455.313
457.692
2264.89
2290.84
2307.92
2317.79
2322.3
2323.29
2322.36
2320.57
2318.34
2315.49
2311.11
2303.83
2291.85
2273.25
2246.18
2209.05
2160.77
2100.83
2029.35
1947.12
1855.55
1756.63
1652.81
481.345
458.29
453.432
480.056
481.894
459.451
486.458
494.865
508.033
515.338
524.852
537.099
552.525
571.586
595.167
623.989
658.326
698.157
743.165
792.464
844.553
897.218
948.296
995.678
1037.6
1072.86
1100.97
1122.07
1136.79
1146.03
1150.76
1151.92
1150.29
1146.54
1141.14
1134.5
1126.9
1118.54
1109.59
1100.17
1090.38
1080.3
1070.01
1059.49
1048.81
1038.03
1027.18
1016.31
1005.43
994.568
983.759
973.027
962.397
951.901
941.573
931.449
921.573
911.991
902.77
893.946
885.612
877.907
870.953
864.858
859.838
856.248
854.455
854.924
858.242
865.061
876.052
891.98
913.59
941.498
976.117
1017.44
1064.87
1117.17
1172.39
1228.11
1281.76
1331
1374.19
1410.57
1440.25
1463.95
1482.72
1497.67
1509.69
1519.54
1527.84
1534.63
1539.76
1543.31
1545.44
1546.42
1546.68
1546.68
1546.83
1546.78
461.565
453.528
461.235
2258.06
2204.25
465.199
454.564
456.035
469.265
463.037
464.865
473.872
457.694
466.725
479.152
468.628
485.186
470.584
492.136
472.571
519.081
500.049
474.61
476.748
2122.61
2052.4
1971.58
1881.53
1784.12
1681.64
1576.73
1577.98
1578.13
1578.13
1578.01
1577.39
1575.89
1573.15
1569.02
1563.37
1556.18
1547.63
1537.67
1525.72
1510.98
1492.55
1469.3
1440.15
1404.29
1361.54
1312.6
1259.03
1203.11
1147.43
1094.47
1046.24
1004.05
968.569
939.874
917.582
901.063
889.582
882.389
878.777
878.1
879.753
883.262
888.252
894.333
901.297
909.024
917.405
926.324
935.631
945.287
955.248
965.512
975.945
986.508
997.283
1008.08
1018.87
1029.74
1040.73
1051.65
1062.61
1073.41
1083.99
1094.51
1104.87
1114.86
1124.33
1133.15
1141.17
1148.02
1153.36
1156.63
1157.11
1153.98
1146.05
1132.31
1111.54
1082.86
1046.36
1002.17
952.441
898.519
844.002
791.08
741.201
695.639
655.334
620.686
591.174
566.55
546.755
509.073
530.944
519.106
479.012
534.979
455.29
536.072
526.06
481.442
482.832
485.393
492.018
502.565
485.032
490.243
498.667
485.248
489.331
496.033
489.078
485.898
494.383
484.05
493.54
489.357
486.899
459.432
2300.95
2333.61
2357.04
2372.59
2381.86
2386.45
2387.8
2386.85
2384.05
2379.18
2371.52
2359.77
2342.37
2317.59
2283.88
2239.99
2185.14
2119.1
2042.19
1955.34
1860.06
1758.35
1652.57
1545.3
561.274
585.018
613.335
646.977
685.673
728.892
776.636
828.314
881.806
934.118
983.717
1028.05
1066.15
1096.54
1119.51
1135.35
1145.16
1149.95
1150.79
1148.57
1144.07
1137.84
1130.33
1121.86
1112.64
1102.84
1092.7
1082.17
1071.37
1060.39
1049.36
1038.33
1027.18
1015.99
1004.89
993.776
982.804
971.879
961.018
950.216
939.601
929.135
918.847
908.833
899.081
889.646
880.585
871.936
863.789
856.31
849.627
843.787
839.001
835.629
834.033
834.641
837.985
844.737
855.579
871.185
892.276
919.419
952.909
992.691
1038.16
1088.04
1140.49
1193.17
1243.69
1289.92
1330.38
1364.41
1392.12
1414.12
1431.31
1444.58
1454.69
1462.33
1468.02
1471.89
1474.02
1474.79
1474.68
1474.32
1474.1
1473.77
1471.99
457.964
454.353
461.204
2139.34
2063.71
1978.23
1884.36
1783.87
1679.08
1572.46
1466.49
500.404
502.971
506.713
511.91
518.807
527.922
539.771
554.669
573.136
595.614
622.528
654.393
691.544
733.741
780.295
830.325
881.765
932.099
979.352
1021.75
1058.03
1087.51
1110.15
1126.43
1137.12
1143.15
1145.4
1144.7
1141.69
1136.91
1130.76
1123.55
1115.51
1106.79
1097.56
1087.91
1077.91
1067.68
1057.19
1046.5
1035.66
1024.73
1013.73
1002.7
991.657
980.622
969.62
958.67
947.796
937.017
926.356
915.837
905.486
895.333
885.412
875.758
866.428
857.47
848.911
840.828
833.399
826.737
820.914
816.102
812.662
810.946
811.36
814.422
820.771
831.1
846.084
866.423
892.708
925.272
964.106
1008.68
1057.82
1109.73
1162.14
1212.66
1259.09
1299.89
1334.27
1362.26
1384.42
1401.59
1414.67
1424.44
1431.56
1436.68
1439.99
1441.62
1441.99
1441.71
1441.46
1441.48
1441.29
1439.11
460.873
454.906
456.162
464.068
462.994
464.8
467.622
457.734
2289.99
2228.02
466.629
471.618
459.442
468.489
476.137
470.396
481.29
472.329
487.189
474.298
493.975
476.329
501.783
478.443
511.677
480.667
483.009
498.785
493.322
485.503
504.956
497.961
455.724
517.225
514.444
490.049
488.172
461.203
556.412
573.868
600.124
634.529
673.783
717.176
764.095
813.633
864.739
916.575
966.398
1011.25
1049.72
1081.52
1105.9
1123.52
1134.89
1141.18
1143.3
1142.18
1138.58
1133.06
1126.12
1118.08
1109.21
1099.71
1089.72
1079.31
1068.64
1057.84
1046.7
1035.45
1024.12
1012.83
1001.61
990.35
979.092
967.943
956.838
945.862
934.955
924.135
913.409
902.863
892.481
882.289
872.341
862.641
853.237
844.185
835.509
827.218
819.472
812.402
806.073
800.656
796.278
793.204
791.827
792.538
795.823
802.263
812.528
827.315
847.231
872.81
904.346
941.726
984.387
1031.15
1080.27
1129.57
1176.79
1219.88
1257.38
1288.59
1313.49
1332.6
1346.72
1356.72
1363.41
1367.53
1369.81
1370.84
1371.09
1371.19
1371.51
1371.65
1369.8
1363.42
2341.7
2383.58
2416.28
2440.68
2457.83
2468.79
2474.44
2475.35
2471.67
2463.43
2450.07
2430.96
2404.97
2370.96
2327.88
2274.98
2211.8
2138.31
2054.96
1962.73
1863.09
1757.92
1649.48
1540.2
1432.46
458.169
455.502
503.581
549.432
456.403
460.803
462.989
464.789
507.568
511.29
516.392
523.113
531.879
543.166
557.414
575.112
596.727
622.605
652.996
688.015
727.601
771.438
818.66
867.942
917.071
963.765
1006.22
1043.03
1073.44
1097.28
1114.86
1126.84
1134.07
1137.39
1137.6
1135.37
1131.24
1125.62
1118.85
1111.18
1102.77
1093.78
1084.32
1074.48
1064.36
1053.96
1043.32
1032.5
1021.57
1010.54
999.451
988.325
977.184
966.049
954.94
943.876
932.873
921.95
911.124
900.411
889.831
879.402
869.147
859.087
849.252
839.673
830.39
821.464
812.898
804.715
797.049
790.043
783.772
778.392
774.027
770.911
769.438
769.982
773
779.058
788.802
802.927
822.064
846.728
877.27
913.648
955.33
1001.24
1049.7
1098.6
1145.64
1188.73
1226.33
1257.6
1282.47
1301.41
1315.21
1324.78
1330.97
1334.56
1336.37
1337.11
1337.38
1337.76
1338.48
1338.72
1336.25
1328.4
463.666
457.824
2155.78
2073.74
1982.78
1884.27
1780.05
1672.21
1563.13
1455.16
1350.51
2325.87
2253.32
497.777
497.879
493.613
466.603
466.816
459.474
468.443
470.32
461.22
470.308
474.256
472.214
478.702
474.145
483.793
476.116
489.675
478.146
496.687
480.25
505.881
482.445
546.203
484.738
487.137
456.508
511.308
510.653
456.83
458.783
464.802
2389.39
2444.05
2490.08
2527.65
2556.94
2578
2590.75
2594.92
2590.23
2576.65
2554.6
2524.26
2485.34
2437.75
2381.42
2316.21
2242
2158.94
2067.46
1968.49
1863.31
1753.69
1641.68
1529.55
1419.56
1313.74
705.436
515.686
520.959
527.687
536.351
547.399
561.24
578.213
598.85
623.591
652.68
686.185
723.929
765.474
810.04
856.591
903.892
949.459
991.343
1028.15
1059.03
1083.66
1102.23
1115.29
1123.57
1127.87
1128.96
1127.5
1124.04
1118.99
1112.71
1105.44
1097.38
1088.69
1079.47
1069.83
1059.87
1049.62
1039.09
1028.35
1017.47
1006.47
995.388
984.248
973.075
961.888
950.708
939.553
928.44
917.384
906.402
895.506
884.713
874.037
863.491
853.093
842.858
832.805
822.953
813.325
803.95
794.865
786.131
777.722
769.621
761.985
754.931
748.496
742.826
738.06
734.355
731.871
730.881
731.809
735.059
741.098
750.493
763.857
781.821
804.884
833.314
867.077
905.637
947.974
992.515
1037.25
1080
1118.75
1151.96
1178.84
1199.35
1214.06
1223.85
1229.81
1233.08
1234.72
1235.91
1237.6
1239.77
1240.94
1238.49
1229.74
1214.04
461.207
457.992
560.365
578.464
600.555
627.755
661.799
702.865
749.496
799.446
850.783
901.748
950.047
994.012
1033.38
1066.29
1091.91
1110.66
1123.47
1130.96
1134.14
1134.17
1131.4
1126.62
1120.29
1112.77
1104.35
1095.18
1085.46
1075.3
1064.78
1054.05
1043.07
1031.91
1020.63
1009.24
997.845
986.358
975.018
963.762
952.517
941.315
930.238
919.231
908.36
897.578
886.901
876.36
865.984
855.795
845.797
836.036
826.521
817.293
808.412
799.863
791.646
783.888
776.707
770.174
764.421
759.594
755.843
753.349
752.419
753.483
756.957
763.338
773.22
787.239
806.032
830.058
859.573
894.466
934.132
977.485
1022.87
1068.24
1111.41
1150.39
1183.76
1210.81
1231.53
1246.54
1256.7
1263.05
1266.61
1268.37
1269.47
1270.77
1272.46
1273.64
1272.1
1265.1
1251.03
2171.85
2081.86
1984.19
1880.07