/*--------------------------------*- C++ -*----------------------------------*\
| =========                 |                                                 |
| \\      /  F ield         | OpenFOAM: The Open Source CFD Toolbox           |
|  \\    /   O peration     | Version:  2212                                  |
|   \\  /    A nd           | Website:  www.openfoam.com                      |
|    \\/     M anipulation  |                                                 |
\*---------------------------------------------------------------------------*/
FoamFile
{
    version     2.0;
    format      ascii;
    arch        "LSB;label=32;scalar=64";
    class       surfaceScalarField;
    location    "0.0282";
    object      phi;
}
// * * * * * * * * * * * * * * * * * * * * * * * * * * * * * * * * * * * * * //

dimensions      [1 0 -1 0 0 0 0];

oriented        oriented;

internalField   nonuniform List<scalar> 
4475
(
1.75295e-05
-1.50704e-05
-7.99011e-06
5.99544e-06
-2.95028e-05
3.99299e-05
1.42087e-05
-3.13419e-05
1.60926e-05
-2.42331e-05
1.12648e-05
-1.01954e-05
1.26876e-05
-9.79159e-06
-7.85461e-06
1.37801e-05
5.62649e-06
-6.38131e-06
-6.75183e-06
1.9637e-06
-7.46409e-06
9.42933e-06
7.65233e-06
-1.22601e-05
4.10123e-06
-8.23976e-07
-2.37859e-05
2.33706e-05
1.27822e-05
1.16417e-05
-1.46951e-05
-1.20683e-05
-2.93737e-06
3.43554e-06
-1.34721e-06
-3.78218e-05
-2.60749e-05
2.41971e-05
2.88296e-05
-3.25418e-05
2.44287e-05
-3.66494e-05
-5.17699e-05
-1.55062e-05
1.32072e-05
5.52591e-05
-4.54479e-05
-1.58032e-05
1.60625e-05
-3.68562e-05
-1.33811e-05
1.54037e-05
-2.64524e-05
-1.12134e-05
1.40045e-05
-1.56973e-05
-9.38368e-06
1.25898e-05
-8.10398e-06
-5.61382e-06
1.07966e-05
4.3877e-06
6.57189e-06
2.63585e-06
-3.34737e-06
1.37949e-05
-5.48011e-06
2.44638e-05
-6.6027e-06
3.45151e-05
-8.84128e-06
4.27673e-05
-1.18691e-05
4.80998e-05
-1.5568e-05
5.18412e-05
-1.95786e-05
4.09363e-05
-2.86258e-05
3.41178e-05
-3.06781e-05
3.20764e-05
-2.94276e-05
1.3383e-05
1.35412e-05
2.79115e-05
-3.46609e-05
-2.34214e-05
2.15816e-05
7.05362e-06
2.31465e-06
9.77137e-06
-2.13038e-06
2.52562e-05
-3.52478e-05
-1.57516e-05
2.2437e-05
-3.39352e-05
-2.67018e-05
2.03191e-05
-3.13106e-05
-3.31963e-05
1.82573e-05
-2.84646e-05
-3.54547e-05
1.69482e-05
-2.54112e-05
-3.35939e-05
1.55716e-05
-2.25759e-05
-2.87123e-05
1.43245e-05
-1.98941e-05
-2.16193e-05
1.30808e-05
-1.75268e-05
-1.30145e-05
1.19496e-05
-1.56845e-05
-3.30005e-06
1.11022e-05
-1.45436e-05
7.33243e-06
1.07502e-05
-1.41814e-05
1.79627e-05
1.08838e-05
-1.46597e-05
2.87535e-05
1.15175e-05
-1.58901e-05
3.9304e-05
1.22352e-05
-1.76105e-05
1.27673e-05
4.98238e-05
-1.94635e-05
-4.02517e-05
5.03121e-05
7.17526e-06
-2.97879e-05
7.90072e-06
-1.86849e-05
8.26809e-06
-7.57758e-06
8.40437e-06
3.59376e-06
8.33087e-06
1.37775e-05
8.30765e-06
2.27105e-05
8.41074e-06
3.00712e-05
8.31815e-06
3.48834e-05
8.40113e-06
3.66148e-05
8.24688e-06
3.48247e-05
7.88969e-06
2.8593e-05
7.97634e-06
1.83155e-05
8.75643e-06
4.46494e-06
1.05466e-05
-9.79739e-06
1.27575e-05
-2.39086e-05
1.5479e-05
-2.93273e-05
2.13984e-05
-3.53848e-05
-4.02202e-05
2.26359e-05
-4.50428e-05
2.20488e-05
-4.95666e-05
1.96589e-05
-1.74743e-05
-5.13394e-05
1.72738e-05
-4.60048e-05
1.78925e-05
-3.75125e-05
1.82469e-05
-2.72132e-05
1.72646e-05
-1.65341e-05
1.53154e-05
-6.77832e-06
1.3917e-05
1.34343e-05
-2.08882e-05
6.02248e-05
6.46608e-06
6.06901e-05
1.14179e-05
-2.29591e-06
-1.99441e-06
2.15138e-05
-4.08874e-06
3.09209e-05
-6.80201e-06
3.83168e-05
-1.07526e-05
4.31118e-05
-1.59857e-05
4.49866e-05
-2.22425e-05
3.95735e-05
-2.96101e-05
3.28431e-05
-3.53853e-05
2.5845e-05
-3.85415e-05
1.32532e-05
-4.23343e-05
-1.00693e-07
-4.38203e-05
-1.303e-05
-4.30973e-05
-2.32872e-05
-4.06239e-05
-2.9935e-05
-3.70792e-05
-3.22058e-05
-3.30725e-05
-3.05317e-05
-2.90852e-05
-2.60853e-05
-2.53508e-05
-1.96139e-05
-2.24375e-05
-1.17927e-05
-2.03298e-05
-2.96635e-06
-1.92124e-05
6.64054e-06
-1.91034e-05
1.64732e-05
-2.01724e-05
2.67592e-05
-2.20021e-05
3.72538e-05
-2.44125e-05
4.79204e-05
-2.6988e-05
6.50756e-06
9.30183e-06
-4.08225e-06
-2.92238e-05
5.91824e-05
9.85108e-06
7.82309e-06
1.4528e-06
1.30367e-05
-4.98494e-05
6.0559e-05
-1.79144e-08
-3.96725e-05
1.90925e-06
-2.9297e-05
3.70409e-06
-1.86692e-05
5.30969e-06
-7.73601e-06
6.01431e-06
3.39733e-06
5.95402e-06
1.36496e-05
5.36044e-06
2.27523e-05
4.41851e-06
2.97994e-05
3.32863e-06
3.44587e-05
2.16802e-06
3.63426e-05
6.77166e-07
3.47566e-05
-5.75758e-07
2.94723e-05
-1.60039e-06
2.03282e-05
-1.663e-06
7.41161e-06
-2.64768e-07
-7.19929e-06
2.39185e-06
-2.21373e-05
6.50865e-06
-3.22391e-05
1.19559e-05
-3.98289e-05
1.63723e-05
-4.55327e-05
1.97743e-05
-4.87826e-05
2.01507e-05
-4.92176e-05
2.01493e-05
-4.51954e-05
2.08906e-05
-3.75169e-05
2.10144e-05
-2.8085e-05
1.99203e-05
-1.78465e-05
1.79262e-05
-7.34403e-06
1.63651e-05
1.62456e-05
-1.83103e-05
1.06308e-05
-9.53525e-06
9.01584e-06
7.01422e-06
-7.76004e-06
1.19926e-05
4.33509e-06
-1.41736e-05
-2.78825e-06
-6.21925e-06
-3.87503e-07
2.20459e-06
2.16337e-06
8.79055e-06
9.51445e-06
1.06109e-06
1.86206e-05
-1.35044e-06
2.66422e-05
-4.7867e-06
3.29926e-05
-9.94623e-06
3.69319e-05
-1.65495e-05
3.78794e-05
-2.41657e-05
3.48524e-05
-3.21016e-05
2.87337e-05
-3.87749e-05
2.13856e-05
-4.39885e-05
1.14484e-05
-4.80149e-05
3.98355e-07
-4.98612e-05
-1.05255e-05
-4.9556e-05
-1.94662e-05
-4.72918e-05
-2.53281e-05
-4.36625e-05
-2.76084e-05
-3.93512e-05
-2.64829e-05
-3.50375e-05
-2.26927e-05
-3.12563e-05
-1.72512e-05
-2.83052e-05
-1.05766e-05
-2.64214e-05
-3.0001e-06
-2.56251e-05
5.37174e-06
-2.60551e-05
1.43451e-05
-2.75562e-05
2.39639e-05
-2.98548e-05
3.43228e-05
-3.27129e-05
4.55121e-05
-3.56987e-05
5.76577e-05
-3.82078e-05
3.0042e-05
7.10296e-05
-3.93912e-05
2.17149e-05
7.06951e-05
1.38521e-05
7.07811e-05
6.34402e-06
7.11628e-05
1.04152e-05
-1.08134e-05
7.60008e-06
7.16338e-05
-8.07439e-07
5.49173e-06
1.52813e-05
-1.20495e-05
3.63955e-06
-2.24713e-05
-3.23354e-06
1.61737e-05
1.29497e-05
7.29424e-06
-1.33912e-07
-2.78102e-06
-4.67964e-06
-8.76316e-07
-9.34505e-06
-1.03087e-05
8.41255e-06
1.77753e-05
-3.6221e-06
3.48838e-06
1.40979e-06
1.5402e-05
2.98192e-05
-3.84722e-05
8.44593e-05
2.1799e-05
8.2363e-05
1.41535e-05
8.13184e-05
6.69287e-06
8.18128e-05
-2.77016e-07
8.31216e-05
-7.22117e-05
-7.58883e-06
8.59284e-05
-5.91748e-05
-8.69005e-06
-4.80253e-05
-6.94438e-06
-3.75228e-05
-4.11895e-06
-2.77734e-05
-7.84102e-07
-1.78281e-05
1.7197e-06
-7.79785e-06
2.92967e-06
2.70291e-06
2.686e-06
1.25318e-05
1.41898e-06
2.12913e-05
-3.04392e-07
2.82294e-05
-2.23269e-06
3.27488e-05
-4.1537e-06
3.45023e-05
-5.90766e-06
3.35448e-05
-7.58334e-06
2.9396e-05
-9.06731e-06
2.18391e-05
-9.80133e-06
1.0621e-05
-9.0582e-06
-3.09557e-06
-5.8944e-06
-1.70828e-05
-6.63799e-07
-2.89685e-05
5.19302e-06
-3.825e-05
1.17092e-05
-4.37192e-05
1.66967e-05
-4.70976e-05
2.01085e-05
-4.73856e-05
2.20424e-05
-4.37618e-05
2.30939e-05
-3.7161e-05
2.3283e-05
-2.83694e-05
2.21126e-05
-1.83932e-05
2.02201e-05
1.78705e-05
-8.12384e-06
1.26634e-06
1.81548e-06
2.01856e-05
-1.55066e-05
3.22017e-05
-1.77798e-05
1.03184e-05
-2.92609e-05
-9.56829e-06
5.18358e-06
-7.08331e-06
-2.07757e-05
6.77036e-06
-5.83412e-06
-2.41438e-05
3.07259e-06
1.49166e-06
-2.38147e-05
2.53961e-06
-2.06801e-05
3.13545e-06
-3.01306e-07
-1.54678e-05
4.12591e-06
-8.75512e-06
4.83232e-06
-1.83878e-06
-9.57636e-07
4.93753e-06
7.13804e-06
3.79321e-06
1.49426e-05
9.30872e-07
2.15331e-05
-3.35081e-06
2.65596e-05
-9.41566e-06
2.94378e-05
-1.68714e-05
2.99384e-05
-2.53137e-05
2.7612e-05
-3.35905e-05
2.32703e-05
-4.09358e-05
1.73404e-05
-4.67672e-05
9.59463e-06
-5.08456e-05
8.52153e-07
-5.28681e-05
-7.97731e-06
-5.28672e-05
-1.54339e-05
-5.08744e-05
-2.053e-05
-4.78011e-05
-2.27761e-05
-4.38937e-05
-2.21742e-05
-4.0269e-05
-1.94425e-05
-3.71557e-05
-1.51866e-05
-3.49819e-05
-9.9291e-06
-3.38271e-05
-3.57823e-06
-3.39493e-05
3.6111e-06
-3.50444e-05
1.16334e-05
-3.70083e-05
2.05954e-05
-3.96715e-05
3.07764e-05
-4.28824e-05
4.26408e-05
-4.62683e-05
5.64711e-05
-4.91666e-05
7.19838e-05
-5.05357e-05
-4.94015e-05
8.83445e-05
-1.47245e-05
2.84255e-05
-2.23307e-05
8.33616e-06
6.89205e-06
-1.03196e-05
2.07403e-05
-2.91767e-05
1.22398e-05
-3.62488e-06
-1.69923e-06
-5.76447e-06
-5.25574e-07
1.74225e-05
1.1973e-05
1.58999e-05
-2.09665e-05
-1.06357e-05
2.25355e-06
8.79495e-06
1.47181e-05
8.24949e-06
1.96857e-05
5.44942e-06
-1.63989e-05
-7.26228e-05
8.96018e-05
-1.53883e-05
-5.76891e-05
-1.64533e-05
-4.45984e-05
-1.48909e-05
-3.40099e-05
-1.09088e-05
-2.4757e-05
-6.9912e-06
-1.6336e-05
-3.6402e-06
-7.85245e-06
-1.8e-06
1.53857e-06
-1.64126e-06
1.07065e-05
-2.81123e-06
1.91954e-05
-4.79556e-06
2.62015e-05
-7.12947e-06
3.08876e-05
-9.29184e-06
3.27443e-05
-1.10886e-05
3.1982e-05
-1.28142e-05
2.87274e-05
-1.41542e-05
2.29687e-05
-1.50898e-05
1.41564e-05
-1.45702e-05
2.03852e-06
-1.17442e-05
-1.09453e-05
-6.10348e-06
-2.33716e-05
6.37869e-07
-3.35466e-05
8.10862e-06
-4.04301e-05
1.45475e-05
-4.44141e-05
1.98561e-05
-4.52239e-05
2.30291e-05
-4.23944e-05
2.45487e-05
-3.65063e-05
2.48418e-05
-2.8262e-05
2.3545e-05
-1.86519e-05
2.09736e-05
-9.51409e-06
1.81921e-05
1.60607e-05
8.72588e-07
-3.25618e-06
-7.27364e-06
-4.05347e-07
1.84146e-05
1.53947e-05
-2.33299e-05
-1.58864e-05
-2.46301e-05
6.20492e-06
2.36153e-05
-2.588e-05
6.06025e-06
-2.45453e-05
5.54335e-06
-2.08624e-05
5.87396e-06
-1.55245e-05
6.76955e-06
-9.13296e-06
7.27133e-06
-2.33483e-06
7.02431e-06
4.37257e-06
5.56466e-06
1.05829e-05
2.39195e-06
1.56318e-05
-2.46289e-06
1.91897e-05
-8.98039e-06
2.12024e-05
-1.68929e-05
2.15162e-05
-2.54989e-05
2.0195e-05
-3.37976e-05
1.72898e-05
-4.10245e-05
1.29687e-05
-4.67724e-05
7.34371e-06
-5.07585e-05
6.92389e-07
-5.27868e-05
-6.25045e-06
-5.30641e-05
-1.22726e-05
-5.17596e-05
-1.67229e-05
-4.94559e-05
-1.88698e-05
-4.67374e-05
-1.89727e-05
-4.42005e-05
-1.72907e-05
-4.24015e-05
-1.44128e-05
-4.15237e-05
-1.02368e-05
-4.19433e-05
-4.97689e-06
-4.33536e-05
1.12615e-06
-4.54537e-05
8.30105e-06
-4.83846e-05
1.66295e-05
-5.19024e-05
2.66291e-05
-5.59403e-05
3.90455e-05
-6.01514e-05
5.45254e-05
-6.37863e-05
7.29046e-05
-6.57647e-05
9.24507e-05
-6.44086e-05
4.44392e-05
-5.81658e-05
0.000110997
3.4956e-05
0.000103421
2.75021e-05
9.68902e-05
2.06992e-05
9.30559e-05
1.38373e-05
9.13845e-05
7.94816e-06
9.13976e-05
2.379e-06
9.40364e-05
-3.13622e-06
9.94047e-05
0.000107285
-9.55035e-06
1.40945e-05
-1.11e-05
1.74183e-05
-2.29009e-05
2.48772e-05
-1.6678e-05
1.32016e-05
-4.14569e-06
4.58141e-06
-4.16069e-06
4.28921e-06
-2.28117e-06
2.02974e-06
1.95674e-05
-2.93891e-07
-4.68766e-06
-4.99175e-06
8.17578e-06
9.82268e-06
-7.25789e-07
1.51099e-05
1.42558e-05
8.53355e-06
-6.43416e-06
-9.40336e-06
4.64443e-06
-6.50228e-06
-4.13284e-06
-2.99525e-07
-1.98547e-05
2.00857e-05
-2.61728e-05
1.9943e-05
-8.65206e-06
-1.43641e-05
-2.66799e-05
2.37273e-05
8.17821e-06
-2.68305e-05
8.07052e-06
-2.51119e-05
8.27254e-06
-2.12391e-05
8.47774e-06
-1.59391e-05
9.10949e-06
-1.00434e-05
9.20081e-06
-4.2416e-06
8.45655e-06
9.1261e-07
6.57199e-06
5.5453e-06
3.16981e-06
8.967e-06
-1.94378e-06
1.12501e-05
-8.58882e-06
1.24986e-05
-1.63575e-05
1.28914e-05
-2.46023e-05
1.24596e-05
-3.2396e-05
1.10459e-05
-3.90762e-05
8.48412e-06
-4.43796e-05
4.65743e-06
-4.80121e-05
-9.54641e-08
-5.00734e-05
-5.39507e-06
-5.07767e-05
-1.0317e-05
-5.02742e-05
-1.42529e-05
-4.89693e-05
-1.67177e-05
-4.74258e-05
-1.76085e-05
-4.62945e-05
-1.72243e-05
-4.59633e-05
-1.54367e-05
-4.69526e-05
-1.23267e-05
-4.91588e-05
-8.135e-06
-5.20694e-05
-2.80292e-06
-5.58661e-05
3.77878e-06
-6.07324e-05
1.1709e-05
-6.61458e-05
2.16055e-05
-7.20966e-05
3.45339e-05
-7.82855e-05
5.16393e-05
-8.40039e-05
7.3101e-05
-8.77314e-05
9.69881e-05
-8.70554e-05
0.000119823
-7.90368e-05
4.61438e-05
-6.23747e-05
0.000137697
3.57099e-05
0.000125285
2.91022e-05
0.000114583
2.30048e-05
0.000107139
1.79849e-05
0.000101448
1.39495e-05
9.86261e-05
1.02186e-05
9.93451e-05
6.87219e-06
0.000103717
4.61667e-06
0.000111112
1.6726e-06
0.00012328
-0.000117421
0.000139414
-5.58467e-06
-9.47746e-05
-1.85693e-05
-7.38422e-05
-2.47727e-05
-5.54561e-05
-2.57832e-05
-4.0672e-05
-2.35313e-05
-2.91864e-05
-1.92832e-05
-2.06869e-05
-1.4421e-05
-1.3821e-05
-1.02243e-05
-7.1715e-06
-7.4604e-06
7.72513e-07
-6.49939e-06
8.96596e-06
-7.1517e-06
1.709e-05
-8.80321e-06
2.41941e-05
-1.087e-05
2.92392e-05
-1.29274e-05
3.13733e-05
-1.44447e-05
3.07429e-05
-1.5731e-05
2.81107e-05
-1.6632e-05
2.38351e-05
-1.73489e-05
1.73291e-05
-1.69556e-05
7.84624e-06
-1.45862e-05
-3.99932e-06
-9.3166e-06
-1.63731e-05
-1.97051e-06
-2.74919e-05
5.80511e-06
-3.59821e-05
1.29874e-05
-4.09529e-05
1.9257e-05
-4.24993e-05
2.29383e-05
-4.07022e-05
2.48248e-05
-3.56905e-05
2.49956e-05
-2.84081e-05
2.33162e-05
-2.01114e-05
2.0245e-05
1.64949e-05
-1.1026e-05
-7.3809e-06
-1.20591e-05
3.18549e-06
1.28782e-05
6.34687e-06
1.62366e-05
1.22613e-05
-1.53972e-05
1.41575e-06
-1.00023e-05
-1.07301e-05
2.35304e-06
-6.06549e-06
-7.45652e-06
-1.98265e-06
-5.19126e-07
6.20575e-06
-5.31512e-06
1.51109e-05
1.98842e-05
-2.18161e-05
6.80629e-06
-9.52792e-06
-2.6017e-05
8.11458e-06
2.11573e-05
-2.81867e-05
9.03855e-06
-2.81778e-05
9.6222e-06
-2.59359e-05
1.02336e-05
-2.20565e-05
1.07519e-05
-1.69535e-05
1.10065e-05
-1.16964e-05
1.06636e-05
-6.87375e-06
9.32343e-06
-2.96384e-06
7.03552e-06
-8.09883e-08
3.38801e-06
1.83656e-06
-1.65085e-06
3.03648e-06
-8.07119e-06
3.86726e-06
-1.52995e-05
4.54587e-06
-2.26989e-05
5.02582e-06
-2.9511e-05
4.98071e-06
-3.53749e-05
3.88425e-06
-3.99363e-05
1.63682e-06
-4.33234e-05
-1.70683e-06
-4.54977e-05
-5.74529e-06
-4.6627e-05
-9.86608e-06
-4.6817e-05
-1.35649e-05
-4.64186e-05
-1.64958e-05
-4.59656e-05
-1.84774e-05
-4.60658e-05
-1.92589e-05
-4.72118e-05
-1.86728e-05
-4.98565e-05
-1.69442e-05
-5.35358e-05
-1.36561e-05
-5.85301e-05
-8.81283e-06
-6.49364e-05
-2.97577e-06
-7.23946e-05
4.24152e-06
-8.09714e-05
1.39933e-05
-9.05053e-05
2.76321e-05
-0.000100571
4.65595e-05
-0.00011056
7.1217e-05
-0.000118231
0.000100177
-0.000119927
0.000128658
-0.000110493
0.00015125
-8.76896e-05
3.652e-05
0.000161609
-4.98573e-05
2.86948e-05
0.000145928
2.36245e-05
0.000132265
2.0069e-05
0.000120554
1.76052e-05
0.000111707
1.5207e-05
0.000105725
1.40496e-05
0.0001024
1.34167e-05
0.000104433
1.42662e-05
0.000110205
1.62156e-05
0.000120165
1.86155e-05
0.000135068
1.64859e-05
0.000156845
-0.00015952
0.000186546
1.68798e-06
-0.00012959
-2.21416e-05
-0.000100267
-3.40212e-05
-7.41541e-05
-3.8226e-05
-5.23842e-05
-3.74137e-05
-3.53564e-05
-3.36792e-05
-2.3347e-05
-2.83326e-05
-1.53948e-05
-2.25408e-05
-9.96895e-06
-1.7303e-05
-5.28924e-06
-1.34617e-05
9.9917e-07
-1.13999e-05
8.06153e-06
-1.10241e-05
1.56252e-05
-1.18499e-05
2.28036e-05
-1.32489e-05
2.82034e-05
-1.46867e-05
3.07696e-05
-1.56738e-05
3.03697e-05
-1.6232e-05
2.81399e-05
-1.66316e-05
2.47941e-05
-1.67664e-05
2.03667e-05
-1.63829e-05
1.35453e-05
-1.45181e-05
3.20234e-06
-1.02296e-05
-8.52817e-06
-3.21764e-06
-2.01519e-05
4.41525e-06
-3.01149e-05
1.17253e-05
-3.66632e-05
1.78802e-05
-3.95358e-05
2.16235e-05
-3.89294e-05
2.31747e-05
-3.5046e-05
2.3002e-05
-2.87365e-05
2.09701e-05
-2.09607e-05
1.77341e-05
1.40193e-05
-1.2672e-05
-2.73552e-06
1.32097e-05
-1.14017e-05
-1.44714e-05
-1.67146e-05
-1.08325e-05
6.11798e-06
6.65935e-06
1.01282e-05
-1.20347e-05
-3.58808e-06
3.9034e-06
1.11419e-05
7.32181e-06
1.15458e-05
-8.56286e-06
3.18327e-06
5.80545e-06
-2.71791e-07
-1.63254e-06
7.25304e-06
-2.13372e-06
1.22875e-05
7.03332e-06
1.82827e-05
1.91232e-06
1.07117e-05
1.12461e-05
-1.31432e-05
-9.52306e-06
-2.68234e-06
-9.99839e-06
4.57614e-06
-4.90117e-06
0.000159204
6.15616e-06
0.000144075
7.63258e-06
0.000130809
8.25663e-06
0.000119525
8.65585e-06
0.000110499
1.0813e-05
0.000103181
1.47921e-05
9.98239e-05
1.95543e-05
0.000104111
2.52925e-05
0.000112834
3.33607e-05
0.000124576
4.29857e-05
0.000140881
4.8729e-05
0.000167063
4.06743e-05
0.000206272
-0.000219776
9.91772e-06
0.00025305
-0.000180283
-3.25868e-05
-0.000140216
-5.40352e-05
-0.000103519
-6.00261e-05
-7.22991e-05
-5.77217e-05
-4.74027e-05
-5.2008e-05
-2.87206e-05
-4.49734e-05
-1.61807e-05
-3.74878e-05
-8.71723e-06
-3.03767e-05
-4.6014e-06
-2.37901e-05
-1.67677e-06
-1.89537e-05
2.74768e-06
-1.53492e-05
8.55316e-06
-1.3813e-05
1.54519e-05
-1.35666e-05
2.25316e-05
-1.40007e-05
2.82921e-05
-1.45619e-05
3.13348e-05
-1.48731e-05
3.12462e-05
-1.46922e-05
2.90568e-05
-1.43015e-05
2.62807e-05
-1.39527e-05
2.33153e-05
-1.34209e-05
1.88891e-05
-1.2047e-05
1.09732e-05
-8.82076e-06
-3.33449e-07
-3.26628e-06
-1.23483e-05
3.63893e-06
-2.35407e-05
1.01543e-05
-3.18912e-05
1.55937e-05
-3.63861e-05
1.85685e-05
-3.72427e-05
1.97111e-05
-3.46404e-05
1.90053e-05
-2.91291e-05
1.69414e-05
-2.1773e-05
1.40049e-05
1.09501e-05
-1.36122e-05
1.07661e-05
-4.53576e-06
-5.42785e-06
1.25615e-06
4.58595e-06
-1.47663e-05
-1.5911e-05
-2.59462e-05
2.4818e-05
-1.96085e-05
2.69003e-05
-6.58166e-06
1.01809e-05
-6.23216e-07
-8.02189e-06
-2.96332e-05
9.51602e-06
2.72076e-05
-2.95009e-05
1.05361e-05
-2.7314e-05
1.1613e-05
-2.34551e-05
1.22775e-05
-1.87446e-05
1.23183e-05
-1.41765e-05
1.16168e-05
-1.03766e-05
9.79795e-06
-7.68682e-06
7.15381e-06
-6.14541e-06
3.3241e-06
-5.51776e-06
-1.56142e-06
-5.23635e-06
-7.40656e-06
-4.66807e-06
-1.37015e-05
-3.54289e-06
-1.99506e-05
-2.09195e-06
-2.56186e-05
-1.01753e-06
-3.04539e-05
-8.92535e-07
-3.4381e-05
-2.03068e-06
-3.74448e-05
-4.28647e-06
-3.96873e-05
-7.40257e-06
-4.10938e-05
-1.09472e-05
-4.17926e-05
-1.46264e-05
-4.20614e-05
-1.81782e-05
-4.23717e-05
-2.12734e-05
-4.33361e-05
-2.35611e-05
-4.54604e-05
-2.47172e-05
-4.908e-05
-2.41781e-05
-5.42318e-05
-2.2004e-05
-6.09572e-05
-1.84617e-05
-6.96894e-05
-1.37422e-05
-8.03382e-05
-7.24054e-06
-9.33155e-05
2.01406e-06
-0.000108277
1.60362e-05
-0.000124979
3.64889e-05
-0.000142233
6.45646e-05
-0.000157344
9.84551e-05
-0.00016405
0.000132658
-0.000154036
0.000160368
-0.000124126
0.000173741
-7.1501e-05
0.000171924
-1.0258e-05
-2.02497e-05
-1.33769e-05
8.12933e-06
-1.56841e-05
-1.93811e-05
3.82993e-05
-9.85691e-06
7.7093e-06
-3.96682e-05
9.34396e-06
9.63177e-06
-1.59e-06
8.50694e-06
9.7479e-06
-0.000247419
0.000296429
-5.02116e-05
-0.000194272
-9.37373e-05
-0.000143297
-0.000107986
-0.000100468
-9.98207e-05
-6.54933e-05
-8.48568e-05
-3.87838e-05
-6.95063e-05
-1.95298e-05
-5.63305e-05
-7.20698e-06
-4.53594e-05
-7.07406e-07
-3.64476e-05
2.2984e-06
-2.90694e-05
3.70718e-06
-2.26836e-05
6.34236e-06
-1.79644e-05
1.08299e-05
-1.51719e-05
1.69201e-05
-1.37689e-05
2.3796e-05
-1.32059e-05
2.98888e-05
-1.28537e-05
3.33497e-05
-1.23334e-05
3.34728e-05
-1.14674e-05
3.13434e-05
-1.04536e-05
2.86366e-05
-9.56054e-06
2.64681e-05
-8.92486e-06
2.38528e-05
-8.01846e-06
1.81856e-05
-6.02098e-06
7.85459e-06
-2.24673e-06
-4.58759e-06
3.04613e-06
-1.69918e-05
8.12733e-06
-2.70381e-05
1.21903e-05
-3.34379e-05
1.42629e-05
-3.57262e-05
1.4826e-05
-3.42045e-05
1.36652e-05
-2.91395e-05
1.16708e-05
-2.18989e-05
9.49198e-06
-1.3447e-05
7.4654e-06
8.33691e-06
-5.2587e-06
-8.25913e-06
3.78753e-06
-4.80336e-06
-1.49935e-05
-1.59265e-05
-4.23587e-05
5.86594e-05
0.000152834
-2.69478e-05
0.000143448
-1.49513e-05
0.000131763
-6.60035e-06
0.000121382
-1.78605e-06
0.000112061
1.56501e-06
0.000103257
6.11732e-06
9.5364e-05
1.31212e-05
9.23178e-05
2.09374e-05
0.000100298
3.23144e-05
0.000110756
4.87297e-05
0.000121873
7.00246e-05
0.000136229
8.82898e-05
0.000165356
9.06755e-05
0.000215393
6.97404e-05
0.000275177
2.07483e-05
0.000333155
-4.524e-06
-1.08624e-06
2.67584e-06
-3.3739e-06
-8.88341e-06
-6.46785e-06
-5.68793e-07
-1.00727e-05
6.64067e-06
1.27418e-05
1.16051e-05
-7.85793e-06
-1.54774e-05
5.53934e-06
1.05025e-05
3.81017e-05
-3.69577e-05
3.49416e-06
-5.11349e-06
1.71566e-05
1.99501e-05
-1.54994e-05
-3.1784e-05
7.81608e-06
3.13464e-05
-3.10935e-05
1.02306e-05
-2.89276e-05
1.19596e-05
-2.54244e-05
1.2903e-05
-2.13894e-05
1.29504e-05
-1.7588e-05
1.19754e-05
-1.48472e-05
9.9652e-06
-1.32548e-05
7.00861e-06
-1.28294e-05
3.12414e-06
-1.31322e-05
-1.50204e-06
-1.33513e-05
-6.6063e-06
-1.27924e-05
-1.18434e-05
-1.1183e-05
-1.6805e-05
-8.93014e-06
-2.12432e-05
-7.00161e-06
-2.51006e-05
-6.07733e-06
-2.83836e-05
-6.37288e-06
-3.10753e-05
-7.85732e-06
-3.32024e-05
-1.02884e-05
-3.47264e-05
-1.34248e-05
-3.56537e-05
-1.71761e-05
-3.61958e-05
-2.1412e-05
-3.68476e-05
-2.57634e-05
-3.81351e-05
-2.97244e-05
-4.06176e-05
-3.25773e-05
-4.47088e-05
-3.38702e-05
-5.07437e-05
-3.36334e-05
-5.90053e-05
-3.22771e-05
-6.98708e-05
-2.95424e-05
-8.3609e-05
-2.49235e-05
-0.000100486
-1.69995e-05
-0.000121117
-3.73113e-06
-0.000146404
1.73463e-05
-0.00017499
4.76586e-05
-0.00020162
8.49493e-05
-0.000216184
0.000122776
-0.000206974
0.000154857
-0.000170783
0.000172083
-0.000102738
0.000172159
-2.26425e-05
0.000151808
7.22686e-05
8.01879e-06
3.72981e-05
-1.06874e-05
9.0073e-06
2.45167e-06
1.22321e-05
-9.46015e-06
-2.25434e-05
-1.50973e-05
9.43726e-06
-1.92922e-05
-2.17726e-05
-2.34304e-05
-1.91449e-05
-3.8647e-05
-1.97454e-05
4.52066e-05
1.76307e-05
-1.39221e-05
-1.76443e-05
-1.77135e-05
8.17109e-06
1.1236e-05
6.57973e-06
-4.34821e-06
-1.89232e-05
-6.42784e-06
8.43052e-06
-1.65549e-05
7.43729e-06
2.24976e-05
-9.18897e-06
1.63004e-05
4.29036e-05
-4.7151e-05
-1.99555e-05
-2.508e-05
1.97586e-05
2.39135e-05
-0.000323364
0.000372864
-4.99066e-05
-0.00025593
-0.000138484
-0.000188444
-0.00017931
-0.000128973
-0.000180851
-8.29721e-05
-0.000153797
-4.90844e-05
-0.000118934
-2.41072e-05
-8.8682e-05
-6.77049e-06
-6.64115e-05
4.51643e-06
-5.09835e-05
1.00754e-05
-3.98305e-05
1.14515e-05
-3.12408e-05
1.11379e-05
-2.41365e-05
1.18981e-05
-1.86461e-05
1.4982e-05
-1.4936e-05
2.02604e-05
-1.26091e-05
2.68143e-05
-1.11131e-05
3.30622e-05
-9.92612e-06
3.69571e-05
-8.70371e-06
3.72876e-05
-7.21493e-06
3.49657e-05
-5.70782e-06
3.20785e-05
-4.53266e-06
3.00624e-05
-3.84013e-06
2.85005e-05
-3.46927e-06
2.45495e-05
-2.68979e-06
1.55619e-05
-7.75567e-07
2.51131e-06
2.46599e-06
-1.06755e-05
5.81006e-06
-2.23938e-05
8.25816e-06
-3.04964e-05
9.21043e-06
-3.39556e-05
9.20698e-06
-3.3339e-05
7.95943e-06
-2.87624e-05
6.2798e-06
-2.12242e-05
4.72043e-06
-1.18972e-05
3.52695e-06
2.96799e-06
-1.51342e-06
-5.78609e-06
2.01636e-06
1.19282e-05
-1.68617e-05
-7.12836e-06
2.22032e-05
-1.44648e-05
5.79325e-06
-0.000106439
0.000128163
0.000125405
-8.03757e-05
0.000127447
-5.6767e-05
0.00012235
-3.85664e-05
0.000114734
-2.78379e-05
0.000108981
-2.26232e-05
0.000102495
-1.70099e-05
9.19187e-05
-4.36397e-06
7.78757e-05
1.38962e-05
7.30615e-05
2.80284e-05
9.07962e-05
4.36056e-05
0.000105938
7.06208e-05
0.000110274
0.00011325
0.000111708
0.000151425
0.000144062
0.000167138
0.000210957
0.000158015
0.000284551
0.000125491
0.000352678
7.52847e-05
0.000403759
1.27764e-05
-1.00348e-05
-5.69014e-06
-1.22681e-05
2.28923e-06
-1.46354e-05
8.61074e-06
-1.63606e-05
1.24723e-05
1.81996e-05
-1.77757e-05
-9.9426e-06
1.0866e-05
2.90541e-05
-2.34606e-05
-3.36123e-05
3.0498e-06
3.21885e-05
-4.28406e-06
-3.38133e-05
6.06757e-06
-3.28059e-05
8.9501e-06
-3.08402e-05
1.11941e-05
-2.80035e-05
1.25571e-05
-2.48807e-05
1.28049e-05
-2.21196e-05
1.18325e-05
-2.03309e-05
9.7451e-06
-1.96935e-05
6.67685e-06
-2.00906e-05
2.88438e-06
-2.09216e-05
-1.35969e-06
-2.12924e-05
-5.7061e-06
-2.04769e-05
-9.90709e-06
-1.8383e-05
-1.36842e-05
-1.56253e-05
-1.69995e-05
-1.31565e-05
-1.99261e-05
-1.16734e-05
-2.25121e-05
-1.14273e-05
-2.47673e-05
-1.233e-05
-2.66285e-05
-1.41917e-05
-2.79903e-05
-1.69765e-05
-2.88071e-05
-2.08379e-05
-2.92496e-05
-2.5767e-05
-2.9796e-05
-3.14049e-05
-3.08895e-05
-3.7114e-05
-3.31757e-05
-4.19512e-05
-3.71926e-05
-4.55259e-05
-4.35358e-05
-4.79744e-05
-5.25511e-05
-4.94799e-05
-6.48602e-05
-4.99631e-05
-8.09509e-05
-4.88852e-05
-0.000101659
-4.48692e-05
-0.000128408
-3.58039e-05
-0.000161943
-1.80059e-05
-0.000201844
1.09178e-05
-0.000242311
4.78535e-05
-0.000267731
8.63028e-05
-0.000262083
0.000120371
-0.000222255
0.000142127
-0.000141871
0.000146685
-4.36136e-05
0.000130188
7.86687e-05
0.000110613
0.00013769
-3.16512e-06
-1.86059e-06
1.17038e-06
7.41806e-06
2.02602e-06
2.42449e-05
3.13276e-06
-4.31004e-06
8.56015e-07
-1.08685e-05
1.19771e-05
-8.91036e-06
-1.72042e-05
1.73902e-05
-2.30934e-05
-1.4889e-05
7.14414e-06
8.55076e-06
-2.17623e-05
-2.12516e-05
-2.64301e-05
-2.62083e-05
-2.46897e-05
1.24865e-05
-1.55046e-05
-1.6428e-05
-2.13565e-05
4.61742e-06
9.97063e-07
1.71516e-05
2.23054e-06
-5.46446e-06
1.44508e-05
-1.99319e-05
4.26877e-06
-6.8935e-07
-2.81575e-06
4.01005e-06
-7.57082e-06
-4.40579e-06
3.92636e-05
-3.8532e-05
2.88056e-06
3.77865e-06
3.88351e-05
9.46977e-06
7.76522e-07
1.91362e-05
1.3136e-07
2.69601e-05
3.40985e-07
3.15552e-05
1.21779e-06
3.17024e-05
2.43716e-06
2.72729e-05
3.6528e-06
1.77706e-05
4.30579e-06
4.91231e-06
4.21025e-06
-9.24429e-06
3.3093e-06
-2.22594e-05
1.85817e-06
-3.01521e-05
6.08428e-07
-3.29826e-05
2.32895e-07
-3.41668e-05
6.2964e-07
-3.64698e-05
8.98954e-07
-3.98827e-05
4.22162e-07
-4.24798e-05
-8.23598e-07
-4.20941e-05
-2.58727e-06
-3.79518e-05
-4.51163e-06
-3.16404e-05
-6.30701e-06
-2.54148e-05
-8.15516e-06
-2.09725e-05
-1.03334e-05
-1.92681e-05
-1.32389e-05
-2.02194e-05
-1.73727e-05
-2.20088e-05
-2.29799e-05
-2.21299e-05
-3.0036e-05
-1.88482e-05
-3.92019e-05
-1.14982e-05
-5.22906e-05
-1.25281e-07
-7.26226e-05
1.70913e-05
-0.000105065
4.26365e-05
-0.000152139
8.4145e-05
-0.000209056
0.000144399
-0.000260176
0.00021952
-0.000274733
0.000299289
-0.000236892
0.000361976
-0.000129364
0.000398698
2.32537e-05
9.00332e-06
3.73251e-05
-1.32977e-05
-0.000209888
0.000234686
8.20481e-05
-0.000172974
9.25366e-05
-0.000133918
9.93593e-05
-9.70268e-05
9.81493e-05
-6.70871e-05
9.30488e-05
-4.77257e-05
9.11631e-05
-3.70602e-05
8.76369e-05
-2.89622e-05
7.70222e-05
-1.73094e-05
6.01567e-05
-3.19196e-06
5.70035e-05
1.09746e-05
8.09897e-05
3.22714e-05
9.62117e-05
6.78838e-05
9.06198e-05
0.000131375
6.67335e-05
0.000186418
0.000105531
0.000218885
0.000188516
0.00022521
0.000276345
0.000204793
0.000358532
0.000178488
0.000411529
0.00016611
0.00039486
-5.09567e-06
2.13301e-06
7.3121e-06
3.31437e-06
-4.31467e-06
-1.61555e-06
6.40788e-06
2.16393e-05
3.53787e-05
-2.80137e-05
-3.10019e-05
1.45553e-05
-3.42198e-05
8.08972e-06
-3.63584e-05
2.82996e-06
-3.66366e-05
3.62568e-05
-1.78612e-06
-3.48363e-05
3.63119e-05
-1.37512e-06
3.59305e-05
-7.6201e-07
-5.40867e-06
2.3146e-06
3.39215e-05
-2.96431e-05
2.89719e-05
1.34912e-05
3.08515e-05
-3.1029e-05
-1.6883e-05
-6.56903e-06
-2.39466e-05
1.18592e-05
-8.08652e-06
-4.06918e-05
3.77975e-05
1.07569e-05
-3.13742e-05
-2.32432e-06
-7.92924e-06
-1.0872e-06
-6.97617e-06
-1.51971e-05
-2.19128e-05
-1.29134e-05
8.00124e-06
9.32971e-06
-2.89578e-06
-9.5687e-07
8.67442e-07
2.06367e-05
-1.82635e-05
-1.88508e-05
-2.20325e-07
-2.00835e-05
6.08003e-06
-2.10611e-05
1.08744e-05
-2.35902e-05
1.47909e-05
1.79998e-05
-2.46268e-05
2.83567e-05
-3.73903e-05
-1.15026e-05
-2.53682e-05
1.77091e-05
3.25985e-05
-2.57728e-05
-3.66108e-05
-4.07704e-06
1.23965e-06
3.72848e-05
-3.60609e-05
6.09289e-07
-3.55529e-05
3.95642e-06
-3.45052e-05
7.07099e-06
-3.29994e-05
9.65015e-06
-3.10898e-05
1.13794e-05
-2.9112e-05
1.19135e-05
-2.75341e-05
1.1179e-05
-2.6742e-05
9.18091e-06
-2.69504e-05
6.23721e-06
-2.78943e-05
2.65295e-06
-2.89057e-05
-1.13853e-06
-2.91289e-05
-4.76767e-06
-2.79293e-05
-8.05255e-06
-2.54321e-05
-1.08324e-05
-2.23219e-05
-1.32104e-05
-1.95329e-05
-1.53288e-05
-1.77136e-05
-1.72394e-05
-1.7064e-05
-1.89745e-05
-1.74561e-05
-2.04071e-05
-1.87615e-05
-2.13741e-05
-2.11579e-05
-2.17869e-05
-2.50954e-05
-2.18054e-05
-3.06401e-05
-2.18683e-05
-3.75102e-05
-2.23802e-05
-4.49611e-05
-2.40461e-05
-5.21378e-05
-2.74162e-05
-5.84219e-05
-3.32182e-05
-6.40535e-05
-4.21321e-05
-6.90251e-05
-5.46416e-05
-7.35468e-05
-7.14704e-05
-7.73894e-05
-9.42912e-05
-8.01202e-05
-0.000125148
-7.95495e-05
-0.000166111
-7.19612e-05
-0.000216985
-5.31375e-05
-0.000271318
-2.59713e-05
-0.000306461
6.92105e-06
-0.000307848
4.12077e-05
-0.000271585
6.91081e-05
-0.0001869
7.90764e-05
-7.19159e-05
8.46982e-05
6.07081e-05
8.09996e-05
0.000126878
7.14147e-05
0.000235228
-1.33803e-05
6.392e-06
9.21238e-06
-1.57704e-05
-1.43256e-06
1.36625e-05
-8.99957e-06
-1.65424e-05
-2.77316e-06
2.38567e-05
-2.9773e-06
-1.82932e-05
-2.30995e-05
1.62005e-05
8.20852e-06
6.99648e-06
-1.29383e-05
1.15492e-05
1.11452e-05
-2.1339e-05
-2.07708e-05
2.26947e-05
2.01779e-05
2.21904e-05
-2.78602e-05
-1.75184e-05
-2.77705e-05
-2.92479e-05
-2.60663e-05
-2.79537e-05
-2.13152e-05
3.58153e-06
6.76541e-06
-9.62517e-06
-1.41316e-06
-1.13413e-05
-3.41057e-06
-4.6692e-06
3.74171e-05
2.21715e-06
8.17292e-06
2.21925e-05
-1.75508e-05
-3.24956e-05
-2.55564e-06
3.13541e-05
3.70671e-05
-2.06505e-05
-3.95838e-05
3.44494e-05
2.27665e-05
-3.81331e-05
1.70282e-05
-3.32821e-05
-5.05377e-06
-3.3585e-05
-5.03262e-06
-3.25546e-05
-5.58952e-06
5.05615e-06
-1.489e-06
1.57336e-05
-2.79007e-06
2.39623e-05
-3.2069e-06
2.87046e-05
-2.82776e-06
2.85206e-05
-1.95812e-06
2.35242e-05
-9.15131e-07
1.33359e-05
1.13388e-07
-3.21185e-07
7.59929e-07
-1.52523e-05
1.04289e-06
-2.79259e-05
1.0875e-06
-3.5031e-05
1.52399e-06
-3.7201e-05
2.64494e-06
-3.85691e-05
3.9001e-06
-4.16569e-05
4.65433e-06
-4.58902e-05
4.43499e-06
-4.89668e-05
3.35145e-06
-4.87068e-05
1.63004e-06
-4.44521e-05
-4.37391e-07
-3.81318e-05
-2.53664e-06
-3.21608e-05
-4.79804e-06
-2.83976e-05
-7.33381e-06
-2.78227e-05
-1.04151e-05
-3.00687e-05
-1.43853e-05
-3.3008e-05
-1.93494e-05
-3.4666e-05
-2.55816e-05
-3.44422e-05
-3.41352e-05
-3.30324e-05
-4.75574e-05
-3.20674e-05
-7.07752e-05
-3.1426e-05
-0.00011054
-2.49582e-05
-0.000171129
-2.46646e-06
-0.00024996
4.20436e-05
-0.00032639
0.000110599
-0.000357177
0.000193461
-0.000327024
0.000268824
-0.000209825
0.000318476
-3.16819e-05
0.000317635
0.000163065
3.21314e-05
1.90951e-05
-3.37959e-05
3.07499e-05
1.66038e-05
2.99673e-05
1.35523e-05
2.98759e-05
9.47213e-06
2.96058e-05
4.54272e-06
2.8053e-05
-1.18475e-06
2.21202e-05
-9.03379e-06
-3.70855e-05
4.62097e-06
-6.91375e-06
7.26971e-06
5.00564e-07
-7.84971e-07
-3.39747e-06
-3.8904e-06
-1.10379e-05
-3.55543e-06
3.38558e-05
-1.61477e-06
9.0907e-06
3.68843e-05
1.41527e-05
3.44926e-06
-8.55662e-06
-1.87372e-05
-9.4547e-06
-1.50671e-05
1.28443e-05
-1.14705e-05
1.86049e-05
-1.7424e-05
1.62706e-05
-8.87846e-06
4.56224e-06
-5.06977e-06
4.16966e-06