/*--------------------------------*- C++ -*----------------------------------*\
| =========                 |                                                 |
| \\      /  F ield         | OpenFOAM: The Open Source CFD Toolbox           |
|  \\    /   O peration     | Version:  2212                                  |
|   \\  /    A nd           | Website:  www.openfoam.com                      |
|    \\/     M anipulation  |                                                 |
\*---------------------------------------------------------------------------*/
FoamFile
{
    version     2.0;
    format      ascii;
    arch        "LSB;label=32;scalar=64";
    class       volScalarField;
    location    "0.0038";
    object      T;
}
// * * * * * * * * * * * * * * * * * * * * * * * * * * * * * * * * * * * * * //

dimensions      [0 0 0 1 0 0 0];

internalField   nonuniform List<scalar> 
2308
(
272.372
272.259
272.733
272.115
272.215
272.17
272.149
272.193
272.232
271.893
271.913
271.941
271.96
271.98
272
272.02
272.038
272.054
272.037
272.018
271.998
271.978
271.957
271.936
271.915
271.893
271.872
271.851
272.153
272.057
271.829
271.808
271.786
271.765
271.744
271.724
271.703
271.682
271.661
271.64
271.619
271.598
271.577
271.556
271.535
271.536
271.558
271.579
271.599
271.62
271.641
271.662
271.683
271.703
271.724
271.745
271.766
271.787
271.808
271.829
271.851
271.871
271.891
271.91
271.928
271.946
271.964
271.983
272.003
272.022
272.041
271.514
271.515
272.039
272.018
271.997
271.977
271.956
271.935
271.914
271.892
271.871
271.85
271.828
271.807
271.786
271.765
271.744
271.723
271.702
271.681
271.66
271.639
271.618
271.597
271.576
271.555
271.533
272.072
271.512
272.074
272.06
271.517
271.538
271.559
271.58
271.6
271.621
271.642
271.663
271.683
271.704
271.725
271.745
271.766
271.787
271.808
271.829
271.85
271.87
271.89
271.91
271.929
271.948
271.967
271.986
272.006
272.025
272.044
272.208
272.163
272.145
272.156
272.063
272.041
272.019
271.997
271.976
271.955
271.934
271.913
271.891
271.87
271.849
271.828
271.807
271.786
271.765
271.744
271.723
271.702
271.681
271.66
271.639
271.617
271.596
271.575
271.554
271.532
271.51
271.489
271.49
271.492
271.494
272.205
271.496
272.222
272.23
272.078
272.254
272.201
272.091
272.064
271.467
271.469
271.471
271.473
271.475
271.477
271.498
271.519
271.539
271.56
271.581
271.602
271.622
271.643
271.663
271.684
271.704
271.725
271.746
271.766
271.787
271.808
271.829
271.849
271.869
271.89
271.91
271.93
271.95
271.969
271.989
272.009
272.028
272.048
272.107
272.404
272.2
272.189
272.168
272.147
272.126
272.105
272.083
272.061
272.04
272.018
271.997
271.975
271.954
271.933
271.912
271.891
271.869
271.848
271.827
271.806
271.785
271.764
271.743
271.722
271.701
271.68
271.659
271.638
271.617
271.595
271.574
271.552
271.531
271.509
271.487
271.465
272.903
272.24
272.436
272.094
272.641
272.241
272.083
272.108
271.48
271.5
271.521
271.541
271.562
271.582
271.603
271.623
271.644
271.664
271.685
271.705
271.726
271.746
271.767
271.787
271.808
271.829
271.849
271.869
271.889
271.91
271.93
271.951
271.971
271.991
272.011
272.031
272.051
272.067
272.267
272.231
272.19
272.167
272.146
272.125
272.103
272.082
272.06
272.039
272.018
271.996
271.975
271.954
271.933
271.911
271.89
271.869
271.848
271.827
271.806
271.785
271.764
271.743
271.722
271.7
271.679
271.658
271.637
271.616
271.594
271.573
271.551
271.529
271.507
271.485
271.463
271.441
271.443
271.445
271.447
271.449
271.452
271.454
271.457
271.459
272.469
272.705
273.139
272.259
272.354
273.148
272.07
272.087
272.283
272.278
272.365
272.185
272.187
272.166
272.144
272.123
272.102
272.08
272.059
272.038
272.017
271.995
271.974
271.953
271.932
271.911
271.89
271.869
271.848
271.827
271.806
271.784
271.763
271.742
271.721
271.7
271.678
271.657
271.636
271.615
271.593
271.572
271.55
271.528
271.506
271.484
271.462
271.439
271.417
271.419
271.421
271.423
271.425
271.428
271.431
271.433
271.436
271.439
271.442
271.462
271.482
271.502
271.522
271.543
271.563
271.583
271.604
271.624
271.644
271.665
271.685
271.706
271.726
271.747
271.767
271.788
271.808
271.829
271.849
271.869
271.889
271.91
271.931
271.951
271.972
271.993
272.013
272.033
272.053
272.282
272.09
272.106
272.128
272.299
272.295
272.276
272.259
272.24
272.209
272.207
272.186
272.165
272.143
272.122
272.1
272.079
272.058
272.037
272.016
271.995
271.974
271.952
271.931
271.91
271.889
271.868
271.847
271.826
271.805
271.784
271.763
271.742
271.72
271.699
271.678
271.656
271.635
271.614
271.592
271.571
271.549
271.527
271.505
271.483
271.46
271.438
271.415
271.392
271.394
271.396
271.398
271.401
271.403
271.406
271.409
271.413
271.416
271.419
271.422
271.425
271.445
271.464
271.484
271.504
271.524
271.544
271.564
271.585
271.605
271.625
271.645
271.666
271.686
271.706
271.727
271.747
271.768
271.788
271.808
271.829
271.849
271.869
271.89
271.91
271.931
271.952
271.973
271.993
272.014
272.035
272.055
272.073
272.3
272.298
273.082
272.092
272.252
272.273
272.292
272.124
272.169
272.13
272.108
272.314
272.313
271.369
271.371
271.373
271.375
271.378
271.381
271.384
271.388
271.391
271.395
271.399
271.403
271.406
271.409
271.428
271.447
271.467
271.486
271.506
271.526
271.546
271.566
271.586
271.606
271.626
271.646
271.666
271.686
271.707
271.727
271.748
271.768
271.788
271.809
271.829
271.849
271.87
271.89
271.91
271.931
271.952
271.973
271.993
272.014
272.036
272.057
272.075
272.214
272.317
272.149
272.717
272.186
272.163
272.141
272.12
272.099
272.078
272.057
272.036
272.015
271.994
271.973
271.952
271.931
271.91
271.889
271.868
271.847
271.826
271.805
271.783
271.762
271.741
271.72
271.698
271.677
271.656
271.634
271.613
271.591
271.57
271.548
271.526
271.504
271.482
271.459
271.437
271.414
271.391
271.368
272.314
272.317
272.87
272.127
272.334
272.111
271.412
271.431
271.45
271.469
271.488
271.508
271.527
271.547
271.567
271.587
271.607
271.627
271.647
271.667
271.687
271.707
271.728
271.748
271.768
271.789
271.809
271.829
271.85
271.87
271.89
271.911
271.931
271.952
271.973
271.993
272.014
272.036
272.057
272.077
272.199
272.332
271.344
271.346
271.347
271.35
271.352
271.355
271.359
271.362
271.366
271.37
271.375
271.379
271.383
271.387
271.391
271.394
272.229
272.33
272.308
272.285
272.263
272.171
272.178
272.247
272.122
272.183
272.161
272.139
272.118
272.097
272.076
272.056
272.035
272.014
271.993
271.972
271.951
271.93
271.909
271.888
271.867
271.846
271.825
271.804
271.783
271.762
271.74
271.719
271.698
271.676
271.655
271.634
271.612
271.59
271.569
271.547
271.525
271.503
271.481
271.458
271.436
271.413
271.39
271.367
271.343
272.835
272.095
272.142
272.331
272.335
272.334
272.185
272.864
272.899
272.157
272.131
272.079
272.155
272.502
272.177
272.804
271.397
271.415
271.433
271.452
271.471
271.49
271.509
271.529
271.548
271.568
271.588
271.608
271.627
271.647
271.667
271.688
271.708
271.728
271.748
271.769
271.789
271.809
271.83
271.85
271.87
271.89
271.911
271.931
271.952
271.972
271.993
272.014
272.035
272.057
272.078
272.214
272.387
272.415
271.319
271.32
271.322
271.324
271.326
271.329
271.332
271.336
271.34
271.344
271.349
271.354
271.359
271.364
271.368
271.373
271.376
271.379
272.174
272.346
272.322
272.298
272.276
272.255
272.675
272.388
272.199
272.179
272.158
272.137
272.116
272.096
272.075
272.054
272.034
272.013
271.992
271.971
271.95
271.93
271.909
271.888
271.867
271.846
271.825
271.804
271.782
271.761
271.74
271.719
271.697
271.676
271.654
271.633
271.611
271.59
271.568
271.546
271.524
271.502
271.48
271.457
271.435
271.412
271.389
271.366
271.342
271.319
272.242
272.098
272.398
272.305
272.326
272.347
272.114
272.352
272.351
272.353
272.803
272.393
272.652
272.131
272.095
272.199
272.869
272.833
272.075
272.055
272.035
272.014
271.993
271.972
271.952
271.931
271.911
271.891
271.87
271.85
271.83
271.809
271.789
271.769
271.749
271.728
271.708
271.688
271.668
271.648
271.628
271.608
271.589
271.569
271.549
271.53
271.511
271.491
271.472
271.454
271.435
271.417
271.399
271.382
272.8
271.295
271.295
271.296
271.297
271.299
271.302
271.305
271.308
271.312
271.317
271.322
271.327
271.333
271.339
271.345
271.35
271.355
271.359
271.363
271.365
272.225
272.101
272.285
272.908
272.907
272.907
272.907
272.906
272.867
272.829
272.793
272.13
272.77
272.368
272.412
272.405
272.319
272.34
272.362
272.134
272.254
272.856
272.36
272.334
272.311
272.29
272.271
272.24
272.256
272.213
272.194
272.174
272.155
272.134
272.114
272.094
272.074
272.053
272.033
272.012
271.991
271.971
271.95
271.929
271.908
271.887
271.866
271.845
271.824
271.803
271.782
271.761
271.739
271.718
271.697
271.675
271.654
271.632
271.611
271.589
271.567
271.545
271.523
271.501
271.479
271.457
271.434
271.411
271.388
271.365
271.342
271.319
271.295
272.379
272.357
272.335
272.662
272.345
272.118
272.691
272.324
272.744
272.372
272.372
272.369
272.344
272.354
272.332
272.797
272.367
272.754
272.784
272.428
272.351
272.377
272.824
272.864
272.904
272.074
272.054
272.034
272.013
271.993
271.972
271.952
271.931
271.911
271.891
271.87
271.85
271.83
271.81
271.789
271.769
271.749
271.729
271.708
271.688
271.668
271.648
271.629
271.609
271.589
271.57
271.55
271.531
271.512
271.493
271.474
271.455
271.437
271.419
271.401
271.384
271.367
272.284
272.302
272.322
272.345
272.37
272.397
272.614
272.208
272.107
272.298
272.323
272.759
272.764
272.402
272.377
272.113
272.707
272.654
272.222
272.235
272.951
272.81
272.861
272.425
271.271
271.271
271.271
271.271
271.273
271.275
271.277
271.28
271.284
271.288
271.294
271.299
271.306
271.312
271.319
271.326
271.332
271.338
271.343
271.347
271.349
271.351
272.95
272.948
272.947
272.946
272.946
272.945
272.774
272.122
272.266
272.314
272.305
272.172
272.729
272.732
272.392
272.688
272.432
272.385
272.7
272.138
273.153
272.948
272.39
272.237
272.223
272.206
272.189
272.171
272.152
272.132
272.112
272.092
272.072
272.052
272.032
272.011
271.991
271.97
271.949
271.928
271.908
271.887
271.866
271.845
271.824
271.803
271.782
271.76
271.739
271.718
271.696
271.675
271.653
271.632
271.61
271.588
271.567
271.545
271.523
271.501
271.478
271.456
271.433
271.411
271.388
271.365
271.342
271.319
271.295
271.272
273.102
272.543
273.151
272.311
272.761
272.39
272.852
272.253
272.186
272.754
272.216
272.208
272.276
272.292
272.311
272.331
272.354
272.379
272.405
272.434
272.455
272.464
272.19
272.319
272.153
272.245
272.112
272.093
272.073
272.053
272.033
272.013
271.992
271.972
271.952
271.931
271.911
271.891
271.87
271.85
271.83
271.81
271.789
271.769
271.749
271.729
271.709
271.689
271.669
271.649
271.629
271.609
271.59
271.57
271.551
271.532
271.513
271.494
271.475
271.456
271.438
271.42
271.403
271.385
271.368
271.352
272.818
272.86
272.902
272.944
272.727
273.147
272.332
272.356
272.383
272.51
272.444
272.477
272.096
272.261
272.141
272.128
272.278
272.302
272.287
272.249
272.724
272.727
272.445
272.411
272.119
272.659
272.183
272.614
272.575
272.426
272.401
272.656
272.157
272.196
272.202
272.301
272.588
272.619
272.655
272.256
272.269
272.989
272.99
272.989
272.988
272.987
272.986
272.986
272.986
272.985
272.246
272.143
272.409
272.412
272.691
272.63
272.214
272.232
272.218
272.202
272.185
272.167
272.149
272.13
272.111
272.091
272.071
272.051
272.031
272.01
271.99
271.969
271.949
271.928
271.907
271.886
271.865
271.844
271.823
271.802
271.781
271.76
271.739
271.717
271.696
271.674
271.653
271.631
271.61
271.588
271.566
271.544
271.522
271.5
271.478
271.456
271.433
271.411
271.388
271.365
271.342
271.319
271.296
271.273
271.25
271.248
271.247
271.246
271.246
271.246
271.247
271.249
271.252
271.255
271.259
271.264
271.27
271.276
271.283
271.291
271.299
271.307
271.315
271.322
271.327
271.331
271.334
271.336
271.336
272.294
272.693
272.496
272.487
272.462
272.263
272.991
272.896
272.14
272.153
272.28
272.297
272.316
272.337
272.36
272.385
272.412
272.441
272.473
272.506
272.567
272.527
272.538
272.135
272.291
272.269
272.724
272.441
272.102
272.618
272.557
272.537
272.415
272.614
272.176
272.62
272.22
272.485
272.45
272.418
272.388
272.362
272.337
272.314
272.273
272.947
272.22
272.769
272.812
272.856
272.9
272.943
272.985
272.226
272.162
273.158
272.433
273.033
273.031
273.03
273.029
273.028
273.027
273.027
273.026
273.025
273.025
273.025
273.025
272.583
272.655
272.192
272.378
272.143
273.152
272.236
272.247
272.231
272.215
272.199
272.182
272.165
272.147
272.128
272.109
272.09
272.07
272.05
272.03
272.01
271.989
271.969
271.948
271.928
271.907
271.886
271.865
271.844
271.823
271.802
271.781
271.76
271.738
271.717
271.695
271.674
271.652
271.631
271.609
271.587
271.566
271.544
271.522
271.5
271.478
271.455
271.433
271.41
271.388
271.365
271.342
271.319
271.297
271.274
271.251
271.229
271.226
271.224
271.222
271.22
271.22
271.22
271.221
271.223
271.226
271.229
271.233
271.239
271.245
271.252
271.26
271.27
271.279
271.289
271.299
271.307
271.313
271.318
271.321
271.322
271.321
271.32
271.336
271.353
271.369
271.386
271.404
271.421
271.439
271.457
271.476
271.495
271.513
271.532
271.552
271.571
271.59
271.61
271.629
271.649
271.669
271.689
271.709
271.729
271.749
271.769
271.79
271.81
271.83
271.85
271.87
271.891
271.911
271.931
271.951
271.972
271.992
272.012
272.032
272.052
272.072
272.092
272.113
272.132
272.151
272.169
272.523
272.209
272.23
272.237
272.255
272.19
272.277
272.434
272.587
272.148
272.162
272.283
272.258
272.239
272.276
272.688
272.688
272.479
272.585
272.519
272.494
272.561
272.426
272.454
272.653
272.578
272.536
272.182
272.615
272.441
272.527
272.551
272.467
272.474
272.687
272.258
272.271
272.155
272.554
272.518
272.481
272.448
272.417
272.389
272.363
272.341
272.32
272.301
272.284
272.453
272.228
272.167
272.297
272.318
272.341
272.365
272.392
272.421
272.455
272.493
272.234
272.208
272.702
272.752
272.802
272.85
272.169
272.54
272.239
272.545
272.21
272.617
272.196
272.762
272.807
272.853
272.898
272.943
272.986
273.028
272.221
272.206
272.233
272.216
272.199
272.182
272.166
272.148
272.13
272.111
272.091
272.072
272.052
272.032
272.012
271.992
271.971
271.951
271.931
271.911
271.891
271.87
271.85
271.83
271.81
271.79
271.769
271.749
271.729
271.709
271.689
271.669
271.649
271.63
271.61
271.591
271.571
271.552
271.533
271.514
271.495
271.477
271.458
271.44
271.422
271.404
271.387
271.37
271.353
271.336
271.319
272.483
272.453
271.206
271.202
271.199
271.196
271.194
271.193
271.193
271.194
271.196
271.199
271.203
271.207
271.212
271.219
271.227
271.237
271.247
271.259
271.272
271.283
271.293
271.301
271.306
271.309
271.309
271.307
271.304
271.302
272.589
273.072
273.07
273.069
273.068
273.067
273.066
273.065
273.065
273.064
273.064
273.064
273.065
273.069
272.943
272.986
273.031
273.073
272.26
272.245
272.229
272.213
272.197
272.181
272.164
272.146
272.127
272.108
272.089
272.069
272.05
272.029
272.009
271.989
271.968
271.948
271.927
271.906
271.886
271.865
271.844
271.823
271.802
271.781
271.759
271.738
271.717
271.695
271.674
271.652
271.631
271.609
271.587
271.565
271.543
271.522
271.499
271.477
271.455
271.433
271.41
271.388
271.365
271.342
271.32
271.297
271.275
271.253
271.231
271.21
272.58
272.512
272.649
272.65
272.229
272.265
272.169
272.182
272.497
272.458
272.272
272.481
272.218
272.282
272.301
272.321
272.343
272.367
272.394
272.424
272.457
272.496
272.855
272.067
272.642
272.696
272.752
272.804
272.287
272.575
272.53
272.488
272.451
272.419
272.391
272.366
272.343
272.322
272.303
272.175
272.253
272.247
272.648
272.506
272.546
272.514
272.47
272.259
272.244
272.229
272.213
272.198
272.181
272.164
272.147
272.129
272.11
272.091
272.071
272.051
272.032
272.012
271.991
271.971
271.951
271.931
271.911
271.891
271.87
271.85
271.83
271.81
271.79
271.769
271.749
271.729
271.709
271.689
271.669
271.65
271.63
271.61
271.591
271.571
271.552
271.533
271.514
271.496
271.477
271.459
271.44
271.422
271.405
271.387
271.37
271.353
271.336
271.319
271.301
272.704
272.754
272.803
272.849
272.897
272.943
272.99
273.034
273.074
272.201
272.612
272.481
272.574
272.608
272.219
272.189
272.927
272.976
273.024
273.069
272.249
272.611
273.11
273.108
273.106
273.106
273.105
273.105
273.104
273.104
273.103
273.103
273.102
273.102
273.103
273.106
273.111
273.138
271.189
271.184
271.178
271.173
271.169
271.165
271.164
271.164
271.165
271.168
271.171
271.175
271.179
271.185
271.192
271.2
271.211
271.224
271.239
271.255
271.27
271.283
271.292
271.297
271.299
271.298
271.294
271.288
271.284
271.282
272.257
272.242
272.227
272.212
272.196
272.18
272.163
272.145
272.127
272.108
272.089
272.069
272.049
272.029
272.009
271.989
271.968
271.948
271.927
271.906
271.885
271.865
271.844
271.823
271.802
271.78
271.759
271.738
271.716
271.695
271.673
271.652
271.63
271.609
271.587
271.565
271.543
271.521
271.499
271.477
271.455
271.432
271.41
271.388
271.365
271.343
271.32
271.298
271.276
271.254
271.233
271.213
271.195
272.5
272.539
272.607
272.236
272.195
271.301
271.318
272.293
272.282
271.283
271.27
271.262
271.264
271.291
271.283
271.293
271.294
271.276
271.286
271.241
271.26
271.199
271.219
271.171
271.183
271.154
271.162
271.145
271.149
271.137
271.141
271.134
271.133
271.133
271.134
271.143
271.138
271.161
271.151
271.215
271.199
271.179
271.17
271.255
271.235
271.298
271.276
271.343
271.32
271.388
271.365
271.432
271.41
271.477
271.455
271.521
271.499
271.565
271.543
271.608
271.587
271.652
271.63
271.695
271.673
271.738
271.716
271.78
271.759
271.823
271.801
271.864
271.844
271.906
271.885
271.947
271.927
271.988
271.968
272.029
272.009
272.069
272.049
272.108
272.088
272.145
272.126
272.18
272.163
272.211
272.196
272.241
272.226
272.272
272.256
272.305
272.288
272.344
272.323
272.392
272.367
272.453
272.42
272.535
272.49
272.637
272.585
272.748
272.694
272.846
272.8
272.947
272.896
273.045
272.998
273.122
273.142
273.143
273.141
273.141
273.141
273.141
273.141
273.141
273.142
273.142
273.142
273.142
273.143
273.142
273.133
273.144
273.114
273.121
273.149
273.156
273.097
273.122
273.017
273.062
272.912
272.966
272.807
272.858
272.696
272.752
272.591
272.643
272.497
272.542
272.425
272.459
272.368
272.395
272.322
272.344
272.286
272.303
272.256
272.271
272.227
272.241
272.197
272.212
272.164
272.181
272.128
272.146
272.09
272.109
272.051
272.071
272.011
272.031
271.971
271.991
271.931
271.951
271.891
271.911
271.85
271.87
271.81
271.83
271.769
271.79
271.729
271.749
271.689
271.709
271.65
271.669
271.61
271.63
271.572
271.591
271.533
271.552
271.496
271.514
271.459
271.477
271.423
271.441
271.387
271.405
271.353
271.37
271.336
273.149
273.156
272.567
272.171
271.267
272.51
271.186
272.809
273.158
273.159
273.159
273.16
273.16
273.16
273.16
272.149
272.58
272.566
272.53
272.532
272.085
272.111
272.088
272.264
272.23
272.247
272.28
272.245
272.262
272.295
272.259
272.277
272.311
272.272
272.291
272.57
272.211
273.155
272.223
273.099
272.197
272.41
272.548
272.224
272.246
272.189
272.131
272.053
272.588
272.183
272.128
272.245
272.892
272.221
272.915
272.164
272.208
272.665
272.155
273.132
272.129
272.443
272.15
272.137
272.184
272.27
273.155
272.836
272.417
272.272
272.27
272.585
272.999
272.757
272.332
273.121
272.137
272.093
272.109
272.313
272.089
272.775
272.247
272.345
272.191
271.927
271.877
272.269
)
;

boundaryField
{
    wall
    {
        type            zeroGradient;
    }
    outlet
    {
        type            inletOutlet;
        inletValue      uniform 85;
        value           nonuniform List<scalar> 
33
(
271.281
271.273
271.275
271.302
271.294
271.303
271.305
271.286
271.296
271.25
271.27
271.208
271.228
271.181
271.193
271.164
271.171
271.155
271.158
271.147
271.151
271.144
271.142
271.143
271.143
271.154
271.148
271.171
271.161
271.189
271.181
271.277
271.196
)
;
    }
    inlet
    {
        type            fixedValue;
        value           uniform 273.16;
    }
    frontAndBackPlanes
    {
        type            empty;
    }
}


// ************************************************************************* //
