/*--------------------------------*- C++ -*----------------------------------*\
| =========                 |                                                 |
| \\      /  F ield         | OpenFOAM: The Open Source CFD Toolbox           |
|  \\    /   O peration     | Version:  2212                                  |
|   \\  /    A nd           | Website:  www.openfoam.com                      |
|    \\/     M anipulation  |                                                 |
\*---------------------------------------------------------------------------*/
FoamFile
{
    version     2.0;
    format      ascii;
    arch        "LSB;label=32;scalar=64";
    class       volScalarField;
    location    "0.000312";
    object      T;
}
// * * * * * * * * * * * * * * * * * * * * * * * * * * * * * * * * * * * * * //

dimensions      [0 0 0 1 0 0 0];

internalField   nonuniform List<scalar> 
26145
(
4.2486
4.34663
4.38679
4.42218
4.45487
4.4859
4.51441
4.5402
4.56386
4.58595
4.60612
4.62431
4.64094
4.65607
4.66992
4.68336
4.69768
4.71279
4.72763
4.7416
4.75452
4.76666
4.77831
4.78966
4.80079
4.81154
4.82203
4.83218
4.84201
4.85142
4.8599
4.86774
4.87515
4.8823
4.88927
4.89606
4.90236
4.90783
4.91264
4.91726
4.922
4.92703
4.93261
4.93902
4.94627
4.95421
4.96287
4.97238
4.98294
4.99515
5.01003
5.02861
5.05213
5.08211
5.11967
5.1644
5.21611
5.27535
5.34368
5.4261
5.52769
5.66347
5.86892
6.26083
7.12173
8.89302
11.8693
16.2559
22.1303
29.2244
37.2465
45.8096
4.18397
4.34175
4.3825
4.41825
4.45128
4.48261
4.51139
4.53739
4.56123
4.58351
4.60386
4.62214
4.63885
4.65406
4.66798
4.68151
4.69595
4.71118
4.72612
4.74018
4.75319
4.76542
4.77714
4.78855
4.79975
4.8106
4.82118
4.83137
4.84133
4.85075
4.85935
4.86731
4.87484
4.88211
4.88919
4.89608
4.90249
4.9081
4.91307
4.91785
4.92281
4.92812
4.93404
4.9408
4.94837
4.95659
4.96554
4.9754
4.98639
4.99913
5.01465
5.03396
5.05832
5.08893
5.12621
5.16976
5.21967
5.2768
5.34273
5.42179
5.51742
5.64169
5.83168
6.18438
6.97042
8.5727
11.2516
15.1616
20.2626
26.0632
31.9864
37.4986
4.10935
4.32561
4.37027
4.40697
4.44074
4.47284
4.50236
4.52896
4.55328
4.57602
4.59687
4.61573
4.63288
4.64845
4.66272
4.67664
4.69149
4.7071
4.72239
4.73677
4.75007
4.76256
4.77452
4.78613
4.79754
4.80865
4.81947
4.82986
4.84001
4.84953
4.85833
4.86652
4.87428
4.88175
4.88903
4.89611
4.90273
4.90855
4.91373
4.91873
4.9239
4.92942
4.93555
4.94255
4.95038
4.95891
4.96817
4.97836
4.98972
5.00287
5.01874
5.03813
5.06168
5.09068
5.12722
5.16998
5.21921
5.27541
5.33894
5.41327
5.50112
5.61244
5.77926
6.07283
6.73535
8.06808
10.2539
13.3675
17.2812
21.5295
25.6736
29.3909
4.03956
4.30422
4.35195
4.38926
4.42381
4.45687
4.48743
4.51501
4.54019
4.5637
4.58542
4.60527
4.62341
4.63984
4.65479
4.66928
4.68468
4.70083
4.71659
4.73139
4.74507
4.7579
4.77019
4.78211
4.79389
4.80534
4.81626
4.8273
4.83768
4.84746
4.85659
4.86508
4.8731
4.88081
4.88828
4.89555
4.9023
4.90819
4.91339
4.91839
4.92355
4.92904
4.93515
4.94212
4.94989
4.95835
4.96747
4.97748
4.98863
5.0015
5.01698
5.0359
5.05887
5.08704
5.12275
5.16441
5.21245
5.26723
5.32793
5.39842
5.47959
5.57633
5.71749
5.93834
6.44136
7.45312
9.10016
11.414
14.2697
17.3109
20.2519
22.9086
3.98801
4.28132
4.33164
4.36998
4.40498
4.43886
4.47047
4.49913
4.52532
4.54962
4.57218
4.59287
4.6118
4.62895
4.6446
4.6598
4.6759
4.69273
4.7091
4.72444
4.73858
4.75182
4.76446
4.7767
4.78879
4.80047
4.81154
4.82288
4.83343
4.8434
4.85273
4.86144
4.86969
4.87764
4.88532
4.89276
4.89964
4.90563
4.91086
4.91584
4.92091
4.92623
4.93207
4.93876
4.94617
4.95412
4.96265
4.97199
4.98241
4.99445
5.00899
5.02692
5.04857
5.07527
5.10935
5.14965
5.19622
5.24921
5.30718
5.37485
5.45127
5.53407
5.65145
5.81255
6.16454
6.87873
8.05079
9.69554
11.7257
13.8934
16.0146
17.9708
3.944
4.2618
4.31454
4.35333
4.38832
4.42299
4.45565
4.48543
4.51265
4.53787
4.56114
4.58256
4.60227
4.62024
4.63668
4.6526
4.66941
4.68687
4.70376
4.71951
4.73397
4.74745
4.76025
4.77258
4.78469
4.7963
4.8074
4.81857
4.82892
4.83869
4.84785
4.85638
4.86442
4.87211
4.87955
4.88678
4.89352
4.89937
4.9045
4.90938
4.91436
4.91963
4.92547
4.93178
4.93852
4.94556
4.95289
4.96116
4.97054
4.98158
4.99502
5.01142
5.03127
5.05631
5.0882
5.12672
5.17167
5.2229
5.27906
5.34428
5.41814
5.49141
5.58571
5.70121
5.93889
6.4199
7.21413
8.34688
9.76976
11.3121
12.8499
14.3037
3.91473
4.24901
4.30355
4.34265
4.37831
4.41424
4.44818
4.47906
4.50722
4.53342
4.55763
4.57973
4.60015
4.6188
4.6358
4.65221
4.66947
4.68734
4.70458
4.72058
4.73518
4.7487
4.76142
4.77359
4.78543
4.7967
4.80757
4.81819
4.82799
4.83713
4.84556
4.85332
4.86058
4.86754
4.8743
4.88082
4.8869
4.89218
4.89679
4.9012
4.90572
4.91052
4.91564
4.92131
4.92752
4.93407
4.94121
4.94839
4.9563
4.9657
4.97769
4.99276
5.01126
5.0343
5.06378
5.10005
5.14276
5.19202
5.24648
5.30915
5.38065
5.44743
5.52847
5.6105
5.76384
6.07172
6.59101
7.34354
8.321
9.40609
10.5149
11.5903
3.89506
4.24314
4.29926
4.33945
4.37636
4.4136
4.44893
4.4816
4.51184
4.54015
4.56625
4.59005
4.61178
4.63142
4.64919
4.66624
4.68407
4.70239
4.71988
4.73593
4.75043
4.76367
4.77593
4.78751
4.79858
4.80891
4.81912
4.82835
4.83687
4.84465
4.85166
4.858
4.86389
4.86948
4.8748
4.87996
4.88468
4.88875
4.89229
4.8957
4.89924
4.9029
4.90687
4.91154
4.91664
4.92209
4.92786
4.93404
4.94142
4.95045
4.96104
4.97425
4.99137
5.01272
5.03946
5.07321
5.11255
5.15957
5.21159
5.2715
5.34011
5.40229
5.47275
5.53229
5.62892
5.81764
6.143
6.62539
7.27508
8.02164
8.80818
9.59175
3.88461
4.24415
4.30623
4.35064
4.39076
4.43086
4.4688
4.50383
4.53628
4.56684
4.59527
4.62128
4.64499
4.66633
4.68551
4.70378
4.72271
4.74196
4.76006
4.77633
4.79058
4.80317
4.81454
4.82504
4.83481
4.84322
4.85236
4.85892
4.86513
4.87045
4.87499
4.87893
4.88242
4.88551
4.88837
4.89106
4.8935
4.89555
4.89731
4.899
4.90069
4.90246
4.90468
4.90743
4.91047
4.91393
4.91745
4.92206
4.92836
4.93597
4.94575
4.95873
4.97428
4.99373
5.01833
5.04872
5.08486
5.12786
5.17681
5.23409
5.29808
5.35473
5.42022
5.46671
5.52732
5.6383
5.83335
6.13079
6.54704
7.04718
7.59212
8.15095
3.88288
4.26077
4.33225
4.3816
4.42644
4.47143
4.5141
4.55347
4.58993
4.62425
4.65618
4.6853
4.71171
4.73538
4.75659
4.77672
4.79738
4.81809
4.83733
4.85402
4.86807
4.87987
4.88992
4.89891
4.90674
4.91258
4.9192
4.92217
4.92488
4.92654
4.92737
4.92747
4.92698
4.92609
4.9249
4.92352
4.92202
4.92052
4.9191
4.91772
4.91643
4.91546
4.91486
4.91449
4.91426
4.91432
4.91492
4.91689
4.92082
4.92665
4.93443
4.94536
4.95991
4.97866
5.00126
5.02866
5.06139
5.09967
5.14476
5.19869
5.25721
5.30853
5.37152
5.40838
5.44681
5.50995
5.62236
5.79783
6.0517
6.37462
6.74317
7.13293
3.89861
4.30325
4.38307
4.43937
4.49049
4.54142
4.58975
4.63448
4.67609
4.71546
4.75211
4.78547
4.81567
4.84269
4.86692
4.88994
4.91295
4.93546
4.95576
4.97298
4.98689
4.99792
5.00668
5.01412
5.01973
5.02336
5.0253
5.02467
5.02306
5.02022
5.01621
5.01163
5.00606
4.99988
4.99325
4.98634
4.97947
4.97305
4.96713
4.96135
4.95563
4.95002
4.94438
4.93869
4.93316
4.92821
4.92452
4.92276
4.92346
4.92608
4.93067
4.93816
4.95005
4.96649
4.98855
5.01364
5.04246
5.07689
5.11699
5.16645
5.21932
5.2672
5.32463
5.35545
5.38018
5.41492
5.47575
5.57121
5.71726
5.91665
6.15405
6.41683
3.94131
4.37329
4.46178
4.52614
4.58526
4.64415
4.70004
4.75178
4.79994
4.84552
4.88794
4.92644
4.96129
4.99277
5.02125
5.04694
5.07222
5.09718
5.1194
5.13783
5.15217
5.16289
5.17073
5.1768
5.18
5.18059
5.17806
5.17396
5.16781
5.15997
5.15062
5.14006
5.12845
5.11589
5.10258
5.08872
5.07484
5.06183
5.04979
5.0381
5.02634
5.01442
5.002
4.98906
4.9761
4.96398
4.95376
4.94593
4.94072
4.93798
4.93761
4.94079
4.94815
4.96037
4.979
5.0021
5.02893
5.05931
5.09501
5.13789
5.18552
5.23036
5.28037
5.30665
5.32239
5.34051
5.37021
5.4171
5.49169
5.60531
5.74716
5.91427
4.01595
4.48365
4.58341
4.65689
4.72534
4.7934
4.85792
4.91755
4.97298
5.02532
5.07381
5.1176
5.15719
5.19317
5.22478
5.253
5.28071
5.30822
5.33255
5.35253
5.36774
5.37869
5.38627
5.3913
5.39197
5.39037
5.38514
5.37769
5.36772
5.35498
5.34023
5.32379
5.30574
5.28618
5.26531
5.24333
5.22109
5.20004
5.18032
5.16082
5.14082
5.12019
5.09865
5.07614
5.05351
5.03198
5.01247
4.99538
4.9814
4.97013
4.96206
4.95764
4.9586
4.96487
4.97745
4.99607
5.01952
5.04778
5.07979
5.11606
5.15731
5.19829
5.24005
5.26188
5.2717
5.28085
5.29309
5.31066
5.34064
5.39507
5.47
5.56859
4.13301
4.65044
4.7615
4.84292
4.91985
4.99596
5.06776
5.13378
5.19477
5.25085
5.30152
5.3467
5.38735
5.42384
5.4563
5.48507
5.51357
5.54199
5.56722
5.58819
5.60439
5.61635
5.6249
5.63049
5.6316
5.62929
5.62479
5.61841
5.60721
5.59309
5.57601
5.55567
5.53321
5.50861
5.48181
5.45279
5.42256
5.39333
5.36551
5.33755
5.30842
5.27794
5.24556
5.21108
5.17601
5.14222
5.11077
5.0822
5.05664
5.03368
5.01411
4.9988
4.98902
4.98492
4.98936
5.00078
5.01768
5.04131
5.06965
5.1024
5.13669
5.1724
5.20585
5.2222
5.22825
5.23186
5.23415
5.23479
5.23932
5.25384
5.28209
5.33247
4.30013
4.87627
4.9909
5.07128
5.14843
5.22447
5.29715
5.3622
5.42033
5.47423
5.52358
5.56723
5.6057
5.63931
5.66842
5.6951
5.7218
5.74833
5.77245
5.79335
5.8106
5.82448
5.83557
5.84392
5.84813
5.84816
5.84601
5.84085
5.83282
5.82151
5.80719
5.79001
5.76931
5.74615
5.72145
5.69328
5.66134
5.62818
5.59587
5.56267
5.52701
5.48853
5.44662
5.40104
5.35349
5.30626
5.2608
5.21797
5.17814
5.14073
5.10604
5.07554
5.05111
5.03367
5.02407
5.02376
5.0313
5.04541
5.06681
5.09437
5.12489
5.15389
5.17818
5.18878
5.19231
5.19339
5.19036
5.17844
5.16401
5.14633
5.14917
5.16616
4.48103
5.10352
5.19934
5.26509
5.33134
5.39368
5.44721
5.49301
5.53273
5.56786
5.59938
5.62857
5.65602
5.68114
5.70375
5.72531
5.74771
5.7706
5.79229
5.81217
5.83001
5.84624
5.86071
5.87348
5.88454
5.89416
5.90335
5.91183
5.91869
5.92371
5.92805
5.92944
5.92608
5.9194
5.90676
5.88897
5.8673
5.84267
5.81544
5.78714
5.75527
5.71793
5.6754
5.62701
5.57415
5.51915
5.46343
5.40838
5.35515
5.3031
5.2519
5.2034
5.15998
5.12371
5.09681
5.08011
5.07033
5.07083
5.081
5.09664
5.11925
5.14487
5.15926
5.16458
5.16639
5.16471
5.15421
5.13318
5.1035
5.06425
5.04223
5.04502
4.58494
5.20308
5.25516
5.29508
5.34158
5.38605
5.42782
5.46491
5.49825
5.5291
5.55825
5.58589
5.6117
5.63514
5.65627
5.67652
5.69759
5.71923
5.74012
5.75968
5.77777
5.79459
5.80987
5.8237
5.83743
5.85012
5.86258
5.87405
5.88417
5.89333
5.9017
5.90934
5.91615
5.9217
5.92593
5.92984
5.9332
5.93363
5.92587
5.91528
5.89991
5.87977
5.85243
5.8176
5.77586
5.72886
5.67736
5.62268
5.5665
5.50836
5.44759
5.38558
5.32503
5.26911
5.22123
5.18315
5.15458
5.13494
5.12448
5.12299
5.13026
5.14475
5.15132
5.15205
5.15183
5.14632
5.13017
5.09815
5.04134
4.99173
4.96061
4.95004
4.53879
5.15015
5.19377
5.22749
5.26847
5.30751
5.34441
5.37748
5.40764
5.43601
5.46328
5.48949
5.51412
5.53653
5.55683
5.57632
5.59664
5.61747
5.63769
5.65684
5.67487
5.69189
5.70765
5.7224
5.73783
5.75286
5.76775
5.78199
5.7954
5.8082
5.82046
5.83226
5.84367
5.85459
5.86484
5.87411
5.88162
5.88706
5.89115
5.89476
5.89855
5.90236
5.9029
5.8908
5.87155
5.84949
5.82077
5.78502
5.74406
5.69803
5.64549
5.58718
5.52433
5.4596
5.39726
5.34077
5.29139
5.2494
5.21649
5.18772
5.17231
5.16662
5.16151
5.15585
5.14806
5.13498
5.1095
5.06195
4.9887
4.93216
4.8941
4.87451
4.4613
5.03881
5.0776
5.11081
5.1508
5.18821
5.22392
5.25624
5.28607
5.31439
5.3419
5.36848
5.39346
5.41616
5.43666
5.45623
5.47645
5.49702
5.51691
5.5358
5.55372
5.57079
5.58671
5.60153
5.61747
5.63307
5.6487
5.66385
5.67839
5.69245
5.7061
5.71943
5.73264
5.74574
5.75846
5.77048
5.78144
5.79126
5.80048
5.80956
5.81832
5.82602
5.83162
5.83443
5.83741
5.84077
5.84241
5.83683
5.81622
5.79647
5.77041
5.73615
5.69391
5.64381
5.58753
5.52859
5.46946
5.4121
5.36003
5.30663
5.26086
5.22653
5.20184
5.18083
5.16016
5.13685
5.09971
5.02627
4.94622
4.88497
4.84183
4.8145
4.37124
4.92125
4.96257
4.99967
5.04244
5.08211
5.11979
5.15379
5.18487
5.21387
5.2417
5.26859
5.29411
5.31753
5.33881
5.35912
5.38
5.40099
5.42104
5.43995
5.45779
5.47479
5.49071
5.50487
5.52069
5.53583
5.551
5.56562
5.57959
5.59315
5.60631
5.61915
5.63183
5.64441
5.65676
5.66893
5.68068
5.69155
5.70159
5.71137
5.72115
5.73095
5.74106
5.7516
5.76038
5.76668
5.76995
5.77159
5.7737
5.77711
5.78049
5.78018
5.76928
5.75059
5.72366
5.68806
5.64321
5.59011
5.53351
5.47339
5.40982
5.34332
5.29058
5.24226
5.19672
5.15147
5.09702
5.00801
4.92518
4.85483
4.80309
4.76755
4.30787
4.83242
4.87716
4.91845
4.9639
5.00583
5.04514
5.08029
5.11223
5.14199
5.17053
5.19808
5.22413
5.24801
5.26966
5.29027
5.31139
5.33259
5.35281
5.37181
5.38963
5.4065
5.4223
5.43627
5.45184
5.46662
5.48137
5.49554
5.509
5.52192
5.53435
5.54637
5.55817
5.56977
5.58105
5.59219
5.6029
5.61268
5.62163
5.63034
5.63917
5.64814
5.65732
5.66645
5.67499
5.68311
5.69151
5.70106
5.71125
5.71955
5.72693
5.73293
5.73799
5.74445
5.75146
5.75557
5.75254
5.72087
5.68445
5.63973
5.585
5.51831
5.44291
5.36154
5.27732
5.19729
5.11549
5.0173
4.92187
4.84182
4.78283
4.73511
4.26055
4.76445
4.8111
4.85465
4.90159
4.94514
4.98563
5.02173
5.05441
5.08478
5.11384
5.1418
5.16819
5.19231
5.21411
5.23481
5.25598
5.2772
5.29742
5.31639
5.33412
5.35082
5.36644
5.38025
5.39552
5.40993
5.42427
5.43797
5.45091
5.46324
5.47501
5.4863
5.49729
5.50802
5.51838
5.52845
5.53814
5.54695
5.55495
5.56267
5.5704
5.57813
5.58594
5.59382
5.60158
5.60919
5.61681
5.62472
5.63326
5.64314
5.65589
5.6746
5.69356
5.70822
5.71967
5.72659
5.73256
5.73955
5.74834
5.7527
5.74185
5.6816
5.62155
5.54079
5.42409
5.29542
5.17195
5.0491
4.93775
4.84914
4.77574
4.71989
4.22096
4.70857
4.75669
4.80138
4.84897
4.89365
4.93504
4.97181
5.00493
5.0356
5.06487
5.093
5.11951
5.1437
5.16553
5.18623
5.20736
5.22852
5.24868
5.26757
5.28517
5.30168
5.31707
5.33069
5.34558
5.35961
5.3735
5.38669
5.39906
5.41078
5.42189
5.43246
5.44266
5.45255
5.46205
5.47124
5.48007
5.4881
5.49535
5.50226
5.50905
5.51571
5.52234
5.52901
5.53562
5.54219
5.54893
5.55619
5.56445
5.57442
5.58678
5.60156
5.61911
5.64114
5.66579
5.6884
5.70625
5.72146
5.73184
5.74097
5.74849
5.75714
5.76191
5.74156
5.62848
5.47024
5.29094
5.1272
4.98645
4.87489
4.78822
4.72218
4.1865
4.66022
4.70937
4.7544
4.80199
4.84728
4.88913
4.92627
4.95955
4.99027
5.01954
5.04765
5.07412
5.09826
5.12001
5.14062
5.16165
5.1827
5.20276
5.22153
5.23898
5.25533
5.27049
5.28392
5.29845
5.31213
5.32559
5.3383
5.35014
5.36129
5.3718
5.38173
5.39127
5.40047
5.40927
5.41778
5.42597
5.43341
5.44003
5.44627
5.4523
5.45809
5.46375
5.46937
5.4749
5.48044
5.48628
5.49278
5.50033
5.50946
5.52058
5.53467
5.55267
5.57403
5.59821
5.62555
5.65421
5.68197
5.70642
5.72715
5.74252
5.75195
5.75993
5.76413
5.757
5.71086
5.50514
5.28569
5.0934
4.94192
4.82786
4.74204
4.15435
4.61629
4.66617
4.71097
4.75802
4.80334
4.84519
4.88231
4.91546
4.94598
4.97504
5.00297
5.02927
5.05326
5.07487
5.09534
5.11623
5.13715
5.15708
5.17574
5.19307
5.20931
5.22427
5.23755
5.25178
5.26517
5.27828
5.2906
5.30201
5.31271
5.32274
5.3322
5.34125
5.34997
5.3583
5.36637
5.37413
5.38118
5.38738
5.39313
5.3986
5.40377
5.40873
5.41355
5.41824
5.42293
5.42793
5.43357
5.4402
5.44833
5.45841
5.47185
5.48913
5.50981
5.53331
5.55912
5.5874
5.61992
5.65803
5.69233
5.71923
5.73739
5.7474
5.75406
5.75545
5.74564
5.69742
5.54553
5.28629
5.07652
4.91594
4.79663
4.12341
4.57495
4.62522
4.66939
4.7155
4.76036
4.8018
4.83857
4.87134
4.90146
4.93017
4.95781
4.98388
5.00767
5.02912
5.04946
5.07022
5.09101
5.11084
5.12943
5.1467
5.16289
5.17773
5.19092
5.20494
5.21815
5.23102
5.24308
5.2542
5.26458
5.27431
5.28346
5.29223
5.30067
5.30876
5.31658
5.3241
5.33093
5.33693
5.34239
5.34751
5.35229
5.35681
5.36114
5.36529
5.36939
5.37374
5.37865
5.38444
5.39162
5.40063
5.41304
5.42937
5.4494
5.4726
5.49836
5.52699
5.55876
5.59301
5.63237
5.67375
5.70374
5.72361
5.73661
5.74339
5.74115
5.72311
5.66761
5.549
5.29348
5.07533
4.90565
4.09317
4.53498
4.58534
4.62868
4.67363
4.71771
4.75847
4.79468
4.82691
4.85653
4.88482
4.91215
4.93799
4.96161
4.98294
5.00318
5.02385
5.04457
5.06434
5.08291
5.10018
5.1164
5.1312
5.14438
5.15827
5.17141
5.18416
5.19607
5.20703
5.21725
5.22681
5.23583
5.24447
5.25282
5.26083
5.26857
5.276
5.28274
5.28871
5.29402
5.29898
5.30356
5.30786
5.31196
5.31583
5.31959
5.32352
5.32789
5.33302
5.33936
5.34739
5.35875
5.37411
5.39338
5.41602
5.44137
5.46952
5.50077
5.53543
5.57279
5.61005
5.648
5.68226
5.70792
5.72154
5.72611
5.72057
5.69683
5.63715
5.52396
5.2916
5.07734
4.06314
4.49534
4.54557
4.588
4.63173
4.67487
4.7148
4.75036
4.78199
4.81107
4.83893
4.86596
4.89159
4.91509
4.93633
4.95652
4.97715
4.99783
5.0176
5.03618
5.05351
5.06981
5.08461
5.09783
5.11168
5.12482
5.13753
5.14939
5.16028
5.17044
5.17996
5.18895
5.1976
5.20597
5.21401
5.22179
5.22923
5.23598
5.24198
5.24734
5.25226
5.25679
5.26104
5.26508
5.26887
5.27249
5.2762
5.28023
5.28487
5.29056
5.29782
5.30827
5.32271
5.34111
5.36295
5.38752
5.41494
5.44559
5.47969
5.51631
5.55425
5.59193
5.62882
5.66425
5.6911
5.70002
5.70136
5.69148
5.66176
5.59972
5.48743
5.2767
4.03303
4.45535
4.50528
4.54677
4.58929
4.63142
4.67048
4.70533
4.73634
4.76488
4.79233
4.81908
4.84455
4.86795
4.88915
4.90932
4.92994
4.95063
4.97042
4.98904
5.00647
5.02284
5.03769
5.05099
5.06484
5.07801
5.09073
5.1026
5.1135
5.12368
5.13324
5.14229
5.15103
5.15951
5.16766
5.17554
5.18306
5.1899
5.196
5.20154
5.20652
5.21111
5.21545
5.21957
5.22343
5.22709
5.23075
5.23463
5.23898
5.24426
5.251
5.26085
5.27457
5.29217
5.31316
5.33685
5.36338
5.39312
5.42622
5.46194
5.49927
5.53677
5.57505
5.61431
5.64896
5.66591
5.66769
5.66408
5.64882
5.61194
5.54571
5.44753
4.00207
4.41462
4.46421
4.5048
4.54615
4.58727
4.62547
4.65961
4.69002
4.71804
4.74511
4.77161
4.79695
4.82029
4.84148
4.86167
4.88231
4.90303
4.92287
4.94156
4.9591
4.97553
4.99045
5.00388
5.01775
5.03099
5.04377
5.0557
5.06667
5.07694
5.08661
5.0958
5.10469
5.11334
5.12167
5.12971
5.13738
5.14436
5.15063
5.15641
5.16162
5.16638
5.1709
5.17523
5.1793
5.18314
5.18693
5.19087
5.19519
5.20033
5.20693
5.21661
5.22993
5.24697
5.26723
5.29008
5.31563
5.34422
5.37598
5.41027
5.44628
5.48302
5.52094
5.56003
5.59636
5.62099
5.627
5.62281
5.61321
5.59367
5.55294
5.48197
3.97065
4.37326
4.42247
4.46222
4.50247
4.54262
4.57998
4.61345
4.64328
4.67082
4.69753
4.72383
4.74907
4.77239
4.79359
4.81382
4.83452
4.85529
4.87519
4.89396
4.91162
4.92812
4.94311
4.95673
4.97064
4.98397
4.99684
5.00888
5.01998
5.03038
5.04022
5.0496
5.0587
5.06758
5.07613
5.08439
5.09227
5.09946
5.10594
5.112
5.11762
5.12264
5.12743
5.13208
5.13649
5.14067
5.14477
5.14899
5.15354
5.1588
5.16582
5.17571
5.18896
5.20568
5.22538
5.24743
5.27193
5.29913
5.32911
5.3614
5.39533
5.43007
5.46582
5.50251
5.53717
5.56522
5.57797
5.57574
5.56569
5.55094
5.52727
5.48656
3.93882
4.33142
4.38027
4.41923
4.45845
4.49768
4.53425
4.56708
4.59637
4.62346
4.64986
4.67598
4.70115
4.72447
4.74571
4.766
4.78676
4.80761
4.8276
4.84645
4.86424
4.8808
4.89587
4.90971
4.92368
4.93712
4.95011
4.9623
4.97357
4.98416
4.99421
5.00382
5.01318
5.02232
5.03115
5.03967
5.04782
5.05528
5.06205
5.06843
5.07446
5.08
5.08514
5.0902
5.09507
5.09972
5.10433
5.10906
5.11406
5.11989
5.12772
5.13811
5.15155
5.16812
5.18735
5.20859
5.23187
5.25734
5.28504
5.31464
5.34557
5.37711
5.4093
5.44243
5.47454
5.50214
5.51933
5.52114
5.51227
5.49712
5.47756
5.45727
3.90686
4.28952
4.33804
4.37626
4.41453
4.45289
4.48872
4.52096
4.54975
4.57644
4.60256
4.62854
4.65366
4.677
4.69829
4.71865
4.73949
4.76042
4.78051
4.79948
4.81738
4.83401
4.84915
4.86326
4.87731
4.89086
4.90401
4.91638
4.92785
4.93866
4.94895
4.95884
4.96849
4.97795
4.98709
4.99595
5.00443
5.01222
5.01933
5.0261
5.03257
5.03865
5.04441
5.04997
5.0554
5.06069
5.06597
5.07135
5.07717
5.08404
5.09279
5.10384
5.11758
5.13406
5.15276
5.17302
5.19478
5.21808
5.24296
5.26917
5.29621
5.32359
5.35146
5.38037
5.40929
5.43481
5.45253
5.45915
5.45238
5.43785
5.41908
5.40324
3.8756
4.24865
4.29687
4.33441
4.37179
4.40935
4.44451
4.47621
4.50455
4.53088
4.55675
4.58262
4.60772
4.63108
4.65243
4.67286
4.69378
4.71479
4.73497
4.75406
4.77207
4.78875
4.80396
4.81836
4.83249
4.84617
4.85949
4.87206
4.88375
4.8948
4.90536
4.91554
4.92551
4.93532
4.94483
4.95407
4.96294
4.97112
4.97864
4.98584
4.9928
4.99943
5.00582
5.0121
5.01823
5.02427
5.0304
5.03677
5.04363
5.05155
5.06123
5.07294
5.08693
5.10319
5.12114
5.14008
5.1599
5.18058
5.20213
5.22435
5.24693
5.26963
5.29282
5.31719
5.34237
5.36524
5.38197
5.39137
5.38734
5.37437
5.35714
5.34508
3.84532
4.20923
4.25717
4.29406
4.33063
4.36745
4.40199
4.4332
4.46114
4.48715
4.5128
4.53857
4.56365
4.58705
4.60845
4.62894
4.64993
4.67102
4.69129
4.71052
4.72859
4.74536
4.76061
4.77532
4.78953
4.80335
4.81685
4.82964
4.84155
4.85286
4.8637
4.87419
4.88452
4.89472
4.90465
4.91432
4.92365
4.93228
4.94026
4.94794
4.95544
4.96268
4.96977
4.97681
4.9838
4.99076
4.9979
5.00535
5.01326
5.02216
5.03266
5.04486
5.05887
5.07459
5.0914
5.10861
5.12605
5.1437
5.16154
5.17943
5.19729
5.21519
5.23369
5.25361
5.27488
5.29479
5.30991
5.31984
5.31881
5.30762
5.29149
5.28018
3.8155
4.17061
4.21829
4.25456
4.29038
4.3265
4.36047
4.39124
4.41882
4.44454
4.47001
4.4957
4.52078
4.54422
4.56568
4.58624
4.6073
4.62847
4.64883
4.66821
4.68636
4.70322
4.71852
4.73356
4.74788
4.76184
4.77555
4.78858
4.80076
4.81235
4.82351
4.83436
4.84509
4.85573
4.86614
4.87632
4.88617
4.89533
4.90383
4.91208
4.92019
4.92812
4.93598
4.94389
4.95184
4.95983
4.96803
4.97653
4.9854
4.99512
5.00617
5.01853
5.03217
5.04691
5.06211
5.07714
5.09185
5.10619
5.12013
5.13361
5.14677
5.16005
5.17417
5.18998
5.20753
5.22437
5.23752
5.24667
5.24791
5.23823
5.22369
5.21351
3.78584
4.13239
4.17987
4.21554
4.25064
4.28611
4.31956
4.34993
4.37718
4.40265
4.42796
4.4536
4.4787
4.5022
4.52374
4.54437
4.56552
4.58677
4.60724
4.6268
4.64504
4.66202
4.67736
4.69281
4.70723
4.72138
4.73534
4.74865
4.76113
4.77304
4.78457
4.79583
4.80702
4.81818
4.82914
4.8399
4.85036
4.86012
4.86923
4.87812
4.88693
4.89563
4.90434
4.91322
4.92218
4.9312
4.94042
4.94984
4.95946
4.96969
4.98089
4.99295
5.00572
5.01898
5.03214
5.04468
5.05646
5.06744
5.07753
5.08679
5.09559
5.10471
5.11505
5.12733
5.14143
5.15514
5.16603
5.17407
5.17591
5.16679
5.15403
5.14489
3.75601
4.09419
4.14153
4.17661
4.21104
4.2459
4.27888
4.30888
4.33585
4.3611
4.38628
4.4119
4.43705
4.46064
4.48227
4.50301
4.52426
4.54562
4.56623
4.58599
4.60438
4.62152
4.63693
4.65284
4.66739
4.68178
4.69605
4.70969
4.72252
4.73483
4.74678
4.75852
4.77025
4.78199
4.79358
4.80502
4.81616
4.8266
4.8364
4.84601
4.8556
4.86513
4.87477
4.88463
4.89458
4.90457
4.91465
4.92475
4.93478
4.94509
4.95594
4.96718
4.97859
4.98996
5.00082
5.01076
5.01968
5.02747
5.03402
5.03958
5.04469
5.05044
5.0578
5.06717
5.07818
5.08888
5.09765
5.1042
5.10488
5.09559
5.08406
5.07539
3.72522
4.05492
4.10222
4.13674
4.17056
4.20484
4.23738
4.26706
4.29379
4.31885
4.34395
4.36959
4.39483
4.41855
4.44032
4.4612
4.4826
4.50413
4.52492
4.54494
4.56355
4.58095
4.59647
4.61287
4.62761
4.64234
4.657
4.67106
4.68433
4.6971
4.70958
4.72189
4.73424
4.74666
4.75898
4.77116
4.78308
4.7943
4.80486
4.81527
4.8257
4.83612
4.84669
4.85752
4.86839
4.87917
4.88986
4.9003
4.91033
4.92025
4.93028
4.94023
4.94991
4.95917
4.96769
4.97518
4.98149
4.98658
4.99063
4.99309
4.99474
4.99775
5.00295
5.01027
5.01881
5.0271
5.03392
5.03892
5.03734
5.02764
5.01736
5.0097
3.69355
4.01457
4.0621
4.09605
4.12927
4.16301
4.19515
4.22455
4.25106
4.27597
4.30102
4.32672
4.3521
4.37599
4.39795
4.41902
4.44061
4.46236
4.48343
4.50373
4.52265
4.54039
4.55627
4.57285
4.58804
4.60319
4.61833
4.6329
4.64668
4.66002
4.6731
4.68606
4.69912
4.7123
4.72541
4.73842
4.75117
4.76322
4.7746
4.78584
4.79714
4.80842
4.81986
4.83153
4.84313
4.85444
4.86541
4.87579
4.88539
4.8945
4.90331
4.91166
4.91943
4.92659
4.93298
4.93832
4.94274
4.9462
4.94843
4.94822
4.94601
4.9475
4.95135
4.95723
4.96402
4.97042
4.97565
4.97905
4.975
4.96529
4.95626
4.94975
3.66225
3.97492
4.02244
4.056
4.08867
4.12189
4.15363
4.18275
4.20906
4.23383
4.25884
4.28461
4.31014
4.33421
4.35636
4.37764
4.39946
4.42144
4.44283
4.46341
4.48269
4.50081
4.51709
4.53393
4.54958
4.5652
4.58085
4.59597
4.61032
4.62427
4.63799
4.65163
4.66542
4.67937
4.69329
4.70712
4.72071
4.73356
4.74573
4.75775
4.76984
4.78188
4.79403
4.8063
4.81833
4.82982
4.84066
4.85058
4.85937
4.86732
4.87464
4.88124
4.88714
4.89236
4.89698
4.90092
4.90414
4.90643
4.90718
4.90414
4.89896
4.89991
4.90284
4.90759
4.91308
4.91792
4.92181
4.92295
4.91639
4.90738
4.89947
4.89396
3.63225
3.93688
3.98427
4.01754
4.04969
4.08237
4.11371
4.14253
4.16862
4.19324
4.21818
4.244
4.26964
4.29389
4.31623
4.3377
4.35974
4.38195
4.40365
4.42447
4.44413
4.46262
4.47931
4.49645
4.51255
4.52864
4.54481
4.56048
4.57541
4.58995
4.6043
4.61862
4.6331
4.64779
4.66245
4.67704
4.69138
4.70495
4.7178
4.73049
4.7432
4.7558
4.76838
4.78094
4.79303
4.8043
4.81461
4.82368
4.83133
4.83788
4.84354
4.84833
4.85255
4.85635
4.85976
4.86271
4.86509
4.86658
4.86524
4.8596
4.85341
4.85397
4.85615
4.85994
4.86428
4.86775
4.87032
4.86811
4.8607
4.85275
4.84562
4.83994
3.60347
3.90026
3.94741
3.98043
4.0121
4.04423
4.07516
4.10368
4.12953
4.15398
4.17884
4.20468
4.23043
4.25484
4.27736
4.29903
4.32128
4.34372
4.36574
4.3868
4.40683
4.42569
4.4428
4.46027
4.47682
4.49338
4.51007
4.52629
4.54178
4.55691
4.57187
4.58681
4.60195
4.6173
4.63262
4.64785
4.6628
4.67695
4.69031
4.70347
4.71658
4.72947
4.74219
4.75468
4.76644
4.77711
4.78654
4.79449
4.8008
4.8058
4.80986
4.81331
4.81633
4.8191
4.8217
4.82402
4.8258
4.82641
4.82279
4.81564
4.8095
4.80985
4.81152
4.81444
4.81756
4.81984
4.82031
4.8154
4.80851
4.80153
4.79486
4.78859
3.57499
3.86393
3.91077
3.94359
3.97482
4.00642
4.03694
4.06516
4.09078
4.11505
4.13984
4.16572
4.1916
4.21618
4.23891
4.26081
4.28331
4.30602
4.32837
4.3497
4.37012
4.38938
4.40696
4.42479
4.44181
4.45886
4.47609
4.49287
4.50894
4.52465
4.5402
4.55572
4.57144
4.58736
4.60322
4.61895
4.63435
4.64889
4.66257
4.67597
4.68923
4.70212
4.71466
4.72676
4.73788
4.74769
4.75607
4.76279
4.76771
4.77141
4.77443
4.77694
4.77917
4.78135
4.78353
4.78553
4.78701
4.78624
4.78094
4.77323
4.76788
4.76819
4.76957
4.77174
4.7735
4.77476
4.77249
4.76693
4.76083
4.75418
4.74652
4.73693
3.54663
3.82773
3.8742
3.90686
3.9377
3.9688
3.99893
4.02686
4.05227
4.07639
4.10113
4.12707
4.1531
4.1779
4.20086
4.22303
4.24582
4.26884
4.29154
4.31318
4.33401
4.35369
4.3718
4.39002
4.40752
4.42507
4.44285
4.4602
4.47682
4.49307
4.50913
4.52516
4.54135
4.55772
4.57396
4.59
4.60564
4.62034
4.63412
4.64753
4.66067
4.6733
4.68542
4.69689
4.7072
4.71606
4.7234
4.72897
4.73282
4.73578
4.73816
4.74016
4.74204
4.74404
4.74614
4.74803
4.74927
4.74712
4.74077
4.733
4.72896
4.72934
4.73056
4.73206
4.73301
4.73255
4.72882
4.72365
4.71781
4.71018
4.69848
4.67945
3.51912
3.79257
3.83865
3.87119
3.90169
3.93234
3.96211
3.98978
4.01499
4.03898
4.06369
4.08971
4.11592
4.14095
4.16417
4.18661
4.20971
4.2331
4.2561
4.27807
4.29932
4.31939
4.33807
4.35668
4.37463
4.39264
4.41092
4.42878
4.44588
4.46257
4.47905
4.49544
4.51196
4.52859
4.54501
4.56114
4.5768
4.59144
4.6051
4.61829
4.63112
4.64331
4.65485
4.6656
4.6751
4.6831
4.68959
4.69429
4.69763
4.70023
4.70235
4.70425
4.70617
4.70832
4.71056
4.71245
4.71335
4.7102
4.7032
4.69574
4.69314
4.69365
4.69493
4.69611
4.69628
4.69435
4.69034
4.68516
4.67756
4.66534
4.64445
4.61186
3.49336
3.75955
3.80522
3.83766
3.86786
3.89809
3.92754
3.95497
3.98001
4.00389
4.02858
4.0547
4.08109
4.10634
4.12981
4.15252
4.17591
4.19968
4.22293
4.24524
4.26684
4.28726
4.30651
4.32545
4.34378
4.36218
4.38088
4.39914
4.4166
4.43361
4.45035
4.46695
4.48361
4.50031
4.51672
4.53275
4.54822
4.56263
4.57599
4.58883
4.60122
4.61289
4.62383
4.6339
4.6427
4.65006
4.65599
4.66029
4.66346
4.66601
4.66821
4.67032
4.67256
4.67507
4.67758
4.67952
4.67996
4.67612
4.66877
4.66186
4.66047
4.66133
4.6629
4.66391
4.66322
4.65998
4.65491
4.64758
4.63605
4.61697
4.58427
4.5403
3.46942
3.72866
3.77391
3.80627
3.8362
3.86607
3.89523
3.92245
3.94734
3.97113
3.99581
4.02203
4.0486
4.07408
4.09779
4.12076
4.14442
4.16854
4.19201
4.21463
4.23655
4.25725
4.27705
4.29628
4.3149
4.3336
4.35262
4.37118
4.38888
4.40606
4.42293
4.43959
4.45624
4.47286
4.48909
4.50486
4.52002
4.53407
4.54706
4.55949
4.57142
4.58258
4.59298
4.6025
4.61081
4.61776
4.62344
4.62775
4.63101
4.63374
4.63627
4.63881
4.64158
4.64458
4.64741
4.64942
4.64933
4.64488
4.63749
4.63128
4.63066
4.63166
4.63333
4.63403
4.6323
4.62796
4.6213
4.61082
4.59364
4.56555
4.52311
4.4808
3.44651
3.69887
3.74368
3.77597
3.80569
3.83524
3.86414
3.89118
3.91596
3.93967
3.96436
3.99069
4.01746
4.04317
4.06713
4.09035
4.11428
4.13874
4.16243
4.18536
4.20755
4.22846
4.24886
4.26829
4.28713
4.30607
4.32533
4.34409
4.36192
4.37918
4.39605
4.41266
4.42919
4.44561
4.46157
4.477
4.49178
4.50544
4.51804
4.53007
4.54159
4.55233
4.56232
4.57148
4.57951
4.58633
4.59205
4.59664
4.60026
4.60337
4.60638
4.6095
4.61297
4.61665
4.61976
4.62176
4.62117
4.61606
4.6089
4.60333
4.60311
4.60421
4.60573
4.60588
4.60299
4.59737
4.58849
4.5741
4.55007
4.51298
4.47018
4.42685
3.42375
3.66918
3.71351
3.74578
3.77533
3.80461
3.83329
3.86018
3.88485
3.90851
3.93322
3.9597
3.98667
4.01264
4.03685
4.06033
4.08454
4.10932
4.13323
4.15646
4.1789
4.19994
4.221
4.24054
4.25955
4.27867
4.2981
4.31698
4.33487
4.35211
4.36891
4.38539
4.40173
4.41789
4.43353
4.4486
4.463
4.4763
4.48856
4.50027
4.51148
4.52196
4.53173
4.54075
4.54875
4.55568
4.56167
4.5667
4.57087
4.57458
4.57826
4.58215
4.58642
4.59077
4.59416
4.59606
4.59497
4.58925
4.58237
4.57734
4.57731
4.57837
4.57954
4.57842
4.57432
4.56722
4.5557
4.53678
4.50608
4.46602
4.42097
4.37563
3.40102
3.63956
3.68342
3.71569
3.7451
3.77413
3.80262
3.82937
3.85395
3.87755
3.9023
3.92891
3.9561
3.98231
4.00677
4.0305
4.05501
4.08001
4.10417
4.12769
4.15036
4.17147
4.19313
4.21271
4.23183
4.25109
4.27063
4.28957
4.30744
4.32461
4.34129
4.35759
4.37371
4.38961
4.40495
4.4197
4.43377
4.44679
4.45882
4.47034
4.48139
4.49178
4.50152
4.51062
4.51882
4.52609
4.53254
4.53816
4.54298
4.54743
4.55191
4.55665
4.56174
4.56669
4.57028
4.57202
4.57039
4.56423
4.55762
4.55296
4.55294
4.55385
4.55412
4.55159
4.54609
4.53741
4.52307
4.49948
4.4648
4.42138
4.37365
4.32628
3.37917
3.61105
3.65443
3.6867
3.71598
3.74479
3.77307
3.79969
3.82416
3.84769
3.87245
3.89917
3.92655
3.95297
3.97765
4.00159
4.02638