/*--------------------------------*- C++ -*----------------------------------*\
| =========                 |                                                 |
| \\      /  F ield         | OpenFOAM: The Open Source CFD Toolbox           |
|  \\    /   O peration     | Version:  2212                                  |
|   \\  /    A nd           | Website:  www.openfoam.com                      |
|    \\/     M anipulation  |                                                 |
\*---------------------------------------------------------------------------*/
FoamFile
{
    version     2.0;
    format      ascii;
    arch        "LSB;label=32;scalar=64";
    class       volScalarField;
    location    "0.038";
    object      p;
}
// * * * * * * * * * * * * * * * * * * * * * * * * * * * * * * * * * * * * * //

dimensions      [1 -1 -2 0 0 0 0];

internalField   nonuniform List<scalar> 
7220
(
192.578
515.525
515.829
515.858
515.268
515.571
515.791
515.255
515.85
515.563
192.571
515.534
426.806
185.093
181.091
517.032
262.281
187.339
266.444
188.733
314.45
466.372
514.971
461.366
510.381
493.702
510.768
184.171
313.112
365.75
510.681
392.273
511.982
352.667
511.071
191.004
516.703
193.052
192.858
175.225
175.902
175.904
175.227
188.621
189.07
189.412
188.987
188.584
176.575
177.243
177.246
176.578
177.907
178.567
178.57
177.911
179.221
179.869
179.872
179.224
180.511
181.148
181.151
180.515
181.777
182.4
182.404
181.781
183.014
183.621
183.626
183.019
184.219
184.807
184.813
184.224
185.384
185.95
185.958
185.391
186.503
187.041
187.055
186.513
188.099
187.583
187.568
188.069
188.543
188.102
174.543
174.545
175.905
175.227
189.786
189.786
188.988
189.448
187.56
186.497
187.034
185.38
185.945
184.215
184.802
183.01
183.617
181.773
182.396
180.508
181.144
179.217
179.865
177.903
178.562
176.571
177.239
175.22
175.898
177.248
176.579
178.572
177.912
179.875
179.226
181.155
180.518
182.408
181.785
183.631
183.023
184.82
184.23
185.967
185.399
187.064
186.522
187.589
188.063
174.539
174.545
188.676
188.152
190.135
189.857
188.551
189.027
188.563
189.281
189.486
189.043
187.561
188.071
186.495
187.034
185.377
185.945
184.211
184.8
183.007
183.614
181.77
182.392
180.504
181.14
179.212
179.861
177.898
178.558
176.565
177.234
175.214
175.892
173.853
173.847
174.533
173.858
173.856
174.542
173.856
173.858
175.903
175.225
177.247
176.578
178.572
177.912
179.877
179.227
181.157
180.52
182.411
181.788
183.636
183.028
184.828
184.237
185.982
185.41
187.092
186.544
187.628
190.122
189.651
188.71
188.169
173.164
173.158
174.537
173.85
190.201
190.521
190.555
189.936
188.562
190.521
190.108
189.504
189.239
189.041
187.559
188.072
186.496
187.037
185.376
185.944
184.21
184.799
183.005
183.612
181.767
182.39
180.5
181.137
179.207
179.857
177.893
178.553
176.558
177.228
175.206
175.884
173.838
174.524
173.165
173.163
173.165
173.168
175.9
175.221
177.245
176.575
178.572
177.911
179.877
179.227
181.159
180.521
182.414
181.79
183.641
183.031
184.835
184.242
185.991
185.418
187.104
186.556
187.643
189.648
173.149
173.159
190.256
190.9
190.897
190.594
189.498
188.714
188.184
189.21
189.964
173.828
173.138
172.472
172.465
190.368
190.913
191.249
191.249
191.858
191.582
191.559
190.622
189.522
188.581
189.063
187.57
188.085
186.501
187.047
185.38
185.948
184.211
184.801
183.004
183.612
181.764
182.388
180.495
181.133
179.202
179.852
177.886
178.547
176.55
177.221
175.197
175.876
174.514
172.456
172.471
172.465
172.466
172.465
172.475
173.151
174.531
173.843
175.895
175.215
177.241
176.57
178.569
177.908
179.876
179.225
181.159
180.521
182.417
181.791
183.645
183.034
184.84
184.247
185.998
185.425
187.113
186.565
187.657
190.114
189.67
190.931
190.547
191.298
189.947
172.444
172.456
188.719
188.201
189.216
191.685
190.429
190.956
191.262
191.87
190.648
191.711
189.562
191.57
189.975
190.014
192.135
188.609
189.095
187.59
188.108
186.513
187.061
185.385
185.958
184.213
184.805
183.003
183.612
181.761
182.386
180.49
181.129
179.195
179.846
177.878
178.539
176.541
177.212
175.186
175.866
173.815
174.502
172.43
173.124
171.731
171.759
171.746
171.774
171.769
171.763
171.762
171.775
171.778
171.757
171.767
171.745
173.14
172.444
174.522
173.833
175.887
175.207
177.236
176.564
178.565
177.903
179.874
179.222
181.159
180.519
182.418
181.792
183.648
183.037
184.845
184.251
186.004
185.432
187.122
186.576
187.668
190.142
189.692
191.006
190.592
191.411
190.411
190.376
191.043
190.453
188.722
188.212
189.217
172.413
171.714
171.055
171.042
191.279
191.58
191.866
192.31
192.249
192.56
192.538
190.857
190.796
192.151
191.086
190.89
192.286
190.472
189.592
190.039
188.629
189.117
187.603
188.125
186.523
187.071
185.389
185.963
184.214
184.807
183.001
183.612
181.756
182.382
180.484
181.123
179.187
179.838
177.868
178.53
176.53
177.201
175.173
175.853
173.8
174.488
173.108
171.03
171.058
171.045
171.074
171.069
171.057
171.056
171.075
171.077
171.066
171.73
173.127
172.43
174.511
173.821
175.878
175.196
177.228
176.555
178.56
177.896
179.87
179.217
181.157
180.516
182.418
181.791
183.651
183.038
184.85
184.255
186.012
185.438
187.128
186.584
187.678
190.137
189.693
190.962
190.568
191.652
191.322
192.109
190.774
190.901
171.011
171.026
188.22
188.727
191.283
191.31
191.323
191.601
191.869
192.132
192.716
192.687
192.801
192.536
510.843
192.321
191.282
191.297
190.489
190.912
189.616
190.065
188.647
189.132
187.616
188.138
186.53
187.078
185.392
185.966
184.213
184.807
182.997
183.609
181.75
182.377
180.476
181.116
179.177
179.829
177.856
178.519
176.516
177.188
175.158
175.839
173.783
174.472
172.393
173.09
170.99
171.693
170.282
170.324
170.305
170.354
170.34
170.369
170.365
170.348
170.347
170.37
170.371
170.349
170.361
170.318
170.335
170.298
171.712
171.007
173.112
172.414
174.497
173.806
175.866
175.184
177.218
176.545
178.551
177.887
179.864
179.21
181.153
180.511
182.417
181.788
183.651
183.038
184.854
184.257
186.019
185.44
187.137
186.588
187.685
190.14
189.222
189.694
190.97
190.559
191.76
191.327
192.308
192.132
192.751
192.57
192.949
192.937
192.812
192.878
191.299
513.701
191.632
191.653
191.642
516.115
170.966
170.257
169.607
169.586
191.891
192.843
192.139
192.773
192.663
192.348
192.533
514.891
511.125
511.718
510.133
492.543
511.948
191.603
191.57
512.765
191.931
192.81
192.819
191.52
191.613
191.947
513.082
191.96
492.861
192.236
192.266
514.3
192.923
192.48
192.57
192.718
191.997
192.323
191.319
191.68
190.508
190.936
189.633
190.088
188.663
189.152
187.626
188.149
186.535
187.083
185.393
185.968
184.21
184.806
182.991
183.605
181.742
182.37
180.465
181.106
179.164
179.817
177.842
178.505
176.5
177.173
175.14
175.822
173.763
174.454
172.372
173.069
171.67
169.571
169.614
169.594
169.645
169.631
169.66
169.657
169.636
169.635
169.662
169.663
169.639
169.652
169.625
170.275
171.692
170.985
173.094
172.395
174.481
173.789
175.852
175.169
177.206
176.531
178.541
177.876
179.855
179.201
181.147
180.504
182.413
181.783
183.651
183.036
184.857
184.257
186.025
185.443
187.149
186.59
188.227
187.692
189.232
188.738
190.155
189.704
190.994
190.573
191.779
191.371
192.347
192.058
192.708
192.541
192.789
511.451
512.292
511.986
191.566
191.719
511.841
185.221
505.864
192.98
169.545
169.562
509.956
191.917
191.898
191.957
191.923
192.783
510.288
192.215
192.938
193.033
193.191
192.156
192.802
192.741
192.46
220.433
192.36
183.846
192.745
511.027
192.533
192.653
513.193
512.344
192.364
510.663
511.346
516.108
192.845
193.044
192.071
192.448
191.349
191.72
190.527
190.961
189.648
190.11
188.673
189.17
187.633
188.159
186.537
187.088
185.391
185.968
184.205
184.802
182.983
183.598
181.731
182.36
180.452
181.094
179.149
179.803
177.824
178.489
176.481
177.155
175.119
175.802
173.741
174.432
172.347
173.046
170.939
171.645
169.516
170.229
168.799
168.857
168.83
168.901
168.88
168.933
168.918
168.947
168.946
168.921
168.92
168.95
168.95
168.926
168.939
168.892
168.91
168.845
168.87
168.816
170.249
169.534
171.668
170.96
173.072
172.372
174.462
173.769
175.835
175.15
177.19
176.515
178.527
177.861
179.844
179.188
181.138
180.494
182.406
181.775
183.647
183.031
184.856
184.255
186.027
185.445
187.154
186.594
188.235
187.7
189.244
188.75
190.17
189.716
191.016
190.6
191.767
191.405
192.355
192.054
192.732
192.534
192.829
508.811
509.519
192.858
513.735
512.848
191.904
191.942
510.23
192.753
192.676
508.473
511.343
515.071
192.197
193.013
193.056
193.121
192.173
192.19
192.177
508.557
192.784
515.814
169.484
168.766
168.124
168.094
192.768
511.863
192.45
192.506
514.199
516.412
517.015
517.666
510.128
192.371
498.957
498.73
507.882
511.833
499.31
497.836
192.723
192.358
512.858
513.369
513.049
512.555
506.982
192.541
192.72
192.914
513.421
192.659
498.74
496.933
497.094
193.019
512.798
496.9
512.078
510.957
192.42
516.385
192.08
489.192
192.395
192.487
191.985
192.259
191.342
191.697
190.537
190.969
189.657
190.122
188.681
189.182
187.636
188.166
186.536
187.092
185.386
185.966
184.197
184.796
182.972
183.588
181.717
182.348
180.435
181.079
179.13
179.786
177.804
178.47
176.459
177.134
175.095
175.779
173.715
174.407
172.319
173.019
170.909
171.616
170.198
168.079
168.138
168.11
168.184
168.163
168.217
168.201
168.232
168.23
168.204
168.203
168.234
168.234
168.209
168.222
168.173
168.193
168.15
168.784
170.22
169.504
171.641
170.932
173.048
172.346
174.439
173.745
175.814
175.129
177.171
176.495
178.51
177.843
179.829
179.172
181.125
180.48
182.397
181.764
183.641
183.023
184.852
184.252
186.024
185.445
187.155
186.597
188.241
187.706
189.258
188.757
190.186
189.727
191.037
190.615
191.765
191.418
192.374
192.074
192.793
192.568
192.906
508.61
514.661
515.288
514.896
510.664
512.548
495.028
192.19
193.046
193.01
192.183
501.14
502.301
500.707
505.822
503.641
504.824
510.011
504.959
212.958
192.705
192.758
512.911
168.044
168.061
192.759
509.272
502.879
507.212
506.43
511.839
192.444
516.053
192.662
517.346
512.247
511.471
511.609
514.818
192.388
192.416
192.412
500.437
507.21
503.49
504.738
500.185
499.053
501.019
501.939
505.026
508.424
496.351
513.153
513.713
517.306
510.163
499.937
192.678
192.479
508.502
512.041
505.762
192.552
500.406
498.278
499.637
501.339
192.742
192.854
184.983
192.076
511.06
512.219
515.457
516.361
516.096
516.034
513.821
192.662
498.761
500.372
499.189
500.903
185.416
512.006
192.722
192.985
513.122
498.941
500.448
500.657
495.07
192.977
512.493
496.914
497.765
494.906
511.919
497.322
192.104
192.613
185.223
497.071
515.35
191.536
180.364
192.605
192.928
192.046
192.369
191.364
191.738
190.549
190.993
189.666
190.137
188.686
189.192
187.636
188.169
186.531
187.091
185.378
185.961
184.185
184.787
182.957
183.575
181.699
182.332
180.415
181.061
179.108
179.765
177.78
178.447
176.433
177.109
175.068
175.753
173.686
174.379
172.289
172.989
170.876
171.584
169.448
170.164
168.006
168.729
167.279
167.355
167.318
167.416
167.387
167.463
167.441
167.498
167.482
167.513
167.511
167.487
167.486
167.515
167.515
167.488
167.503
167.451
167.471
167.4
167.427
167.334
167.368
167.295
168.749
168.024
170.187
169.47
171.611
170.901
173.02
172.317
174.413
173.718
175.789
175.103
177.149
176.471
178.49
177.822
179.811
179.153
181.109
180.463
182.384
181.75
183.63
183.011
184.844
184.243
186.02
185.441
187.157
186.598
188.245
187.707
189.269
188.762
190.199
189.737
191.042
190.637
191.771
191.445
192.378
192.12
192.827
192.624
193.055
192.971
193.089
192.658
509.993
515.673
512.405
502.928
508.566
504.703
515.547
514.659
515.103
513.388
514.336
512.665
513.192
512.394
192.429
192.737
184.171
515.08
192.402
502.006
506.021
503.522
509.613
510.52
511.846
192.483
516.656
516.252
513.955
514.311
512.638
511.682
185.55
507.187
504.851
503.579
497.87
499.967
508.77
501.871
506.439
505.325
512.29
192.643
192.531
509.18
511.389
515.501
514.389
192.565
192.612
192.595
501.869
507.747
504.506
505.662
502.831
192.708
517.011
167.964
167.236
166.603
166.563
509.496
498.639
192.809
511.47
192.092
508.224
511.784
515.678
516.308
514.109
192.664
501.902
502.537
511.667
192.744
510.075
192.929
191.525
506.328
513.485
192.719
501.919
502.196
493.018
192.991
512.881
495.533
496.208
501.989
492.839
193.037
512.183
495.645
191.668
192.363
511.131
495.267
192.493
513.492
495.05
510.502
510.191
190.901
515.63
515.137
516.654
515.416
192.98
193.098
192.588
193.318
192.741
192.859
192.165
192.469
191.411
191.79
190.573
191.022
189.679
190.151
188.69
189.197
187.635
188.169
186.524
187.086
185.367
185.951
184.17
184.773
182.939
183.558
181.678
182.312
180.392
181.038
179.082
179.74
177.752
178.42
176.403
177.08
175.037
175.722
173.654
174.347
172.254
172.956
170.84
171.549
169.41
170.126
168.689
166.548
166.626
166.589
166.69
166.66
166.739
166.717
166.775
166.759
166.792
166.789
166.769
166.768
166.793
166.794
166.765
166.78
166.726
166.747
166.672
166.701
166.639
167.254
168.71
167.984
170.152
169.433
171.578
170.866
172.988
172.285
174.383
173.687
175.761
175.074
177.122
176.444
178.465
177.796
179.788
179.129
181.089
180.442
182.366
181.731
183.616
182.995
184.835
184.231
186.012
185.433
187.156
186.592
188.247
187.707
189.278
188.763
190.208
189.744
191.05
190.66
191.799
191.457
192.405
192.132
192.863
192.663
193.122
193.023
193.17
193.164
193.124
516.972
516.377
516.659
515.882
516.109
515.219
515.46
515.659
515.617
515.878
516.383
516.124
516.698
515.693
515.741
514.825
514.476
514.922
513.518
514.032
513.042
510.762
509.771
193.466
501.902
507.724
503.724
516.597
517.316
516.966
515.802
516.21
514.948
515.376
513.926
514.569
513.102
513.55
512.66
192.624
192.58
510.489
193.01
514.81
514.81
192.58
503.206
506.751
505.712
504.219
506.113
192.575
180.254
511.802
192.702
510.795
166.503
166.519
183.718
186.256
516.932
517.324
516.517
259.8
506.79
505.164
503.45
496.601
498.872
508.347
500.681
505.744
504.298
512.186
192.775
192.42
192.209
508.976
511.091
193.05
193.019
514.483
515.154
514.962
514.445
181.987
180.332
192.677
192.725
192.711
503.277
184.832
185.48
185.502
508.121
505.581
506.688
503.945
183.794
481.522
486.022
509.554
192.713
509.005
191.653
517.269
517.635
509.035
497.179
192.881
191.609
507.901
511.475
515.933
515.268
515.047
513.905
192.716
503.406
503.712
182.218
491.084
192.738
192.958
185.93
185.905
190.859
186.293
185.965
506.991
515.334
513.286
494.083
494.637
503.267
503.372
490.536
192.992
187.036
187.583
515.658
515.402
512.621
493.9
191.168
192.042
185.39
186.319
186.214
187.343
186.898
187.755
186.895
187.637
511.811
493.372
192.221
513.394
492.801
511.296
493.012
192.375
218.047
510.427
517.223
190.276
179.728
192.92
192.994
193.185
193.111
192.825
193.232
192.683
192.786
192.193
192.435
191.431
191.797
190.589
191.034
189.688
190.155
188.688
189.197
187.63
188.166
186.513
187.076
185.351
185.937
184.15
184.755
182.916
183.537
181.653
182.288
180.364
181.011
179.052
179.711
177.72
178.389
176.37
177.047
175.002
175.688
173.617
174.311
172.216
172.919
170.8
171.51
169.368
170.086
167.92
168.646
166.455
167.19
165.717
165.813
165.767
165.895
165.856
165.961
165.93
166.013
165.989
166.05
166.033
166.069
166.064
166.05
166.049
166.067
166.071
166.039
166.054
165.997
166.02
165.941
165.971
165.868
165.906
165.781
165.827
165.732
167.209
166.473
168.668
167.94
170.112
169.392
171.54
170.828
172.952
172.248
174.348
173.652
175.728
175.04
177.091
176.412
178.436
177.766
179.762
179.101
181.065
180.416
182.345
181.708
183.599
182.975
184.821
184.213
186.004
185.418
187.147
186.582
188.243
187.704
189.281
188.764
190.221
189.75
191.07
190.666
191.835
191.46
192.443
192.14
192.895
192.684
193.114
193.042
193.036
193.135
192.755
516.635
516.933
516.096
516.344
515.654
515.864
515.104
515.291
515.459
515.455
515.658
516.1
515.871
516.633
516.358
516.961
518.055
517.7
515.815
516.109
514.766
515.248
513.881
514.35
513.039
513.448
512.33
519.577
505.39
501.108
507.092
502.584
516.889
517.689
517.288
516.052
516.479
515.198
515.646
514.324
514.792
513.457
513.891
512.939
192.745
192.426
510.1
193.038
193.022
514.625
514.689
181.046
179.607
192.695
185.486
504.413
184.729
185.538
507.588
504.944
184.458
179.291
502.154
500.581
191.403
181.322
184.73
192.586
516.795
182.725
512.387
511.044
505.583
192.335
185.566
187.701
518.048
518.388
517.641
511.691
503.906
495.357
497.744
507.836
499.462
505.075
503.473
192.838
192.258
191.84
508.992
510.787
192.857
514.279
514.895
514.796
514.275
179.109
192.731
192.778
192.766
186.113
185.151
424.325
504.788
186.409
508.587
506.581
507.688
505.275
184.374
182.71
489.276
185.147
192.693
186.498
166.404
165.664
165.039
164.988
518.46
518.837
510.753
509.587
495.544
192.907
190.995
192.145
185.818
185.765
508.071
514.164
192.781
192.685
515.046
514.889
513.678
492.629
492.989
192.731
186.35
504.58
187.704
507.348
504.662
181.574
488.254
192.864
192.817
186.646
192.958
190.171
187.829
515.115
515.136
514.956
513.065
492.099
490.691
504.399
188.552
190.63
191.641
192.93
177.163
188.481
515.214
512.394
491.359
188.774
191.884
512.952
490.457
515.467
515.266
511.747
490.933
192.054
490.576
185.553
511.062
192.399
511.856
517.497
190.449
186.868
186.548
192.549
192.621
193.044
192.876
193.215
193.179
193.002
193.168
192.672
192.822
192.164
192.412
191.432
191.807
190.598
191.039
189.688
190.158
188.681
189.195
187.618
188.159
186.497
187.063
185.331
185.919
184.127
184.733
182.889
183.512
181.623
182.259
180.331
180.98
179.018
179.677
177.684
178.353
176.331
177.01
174.962
175.649
173.576
174.271
172.174
172.877
170.756
171.467
169.322
170.041
167.872
168.599
167.14
164.974
165.074
165.026
165.16
165.119
165.23
165.197
165.284
165.259
165.322
165.305
165.342
165.337
165.333
165.332
165.34
165.344
165.31
165.327
165.267
165.29
165.207
165.239
165.131
165.17
165.087
165.68
167.16
166.423
168.623
167.894
170.069
169.348
171.498
170.786
172.912
172.207
174.31
173.613
175.691
175.002
177.056
176.376
178.403
177.732
179.73
179.069
181.036
180.386
182.319
181.681
183.575
182.95
184.801
184.192
185.99
185.4
187.135
186.568
188.235
187.696
189.277
188.766
190.228
189.755
191.089
190.67
191.849
191.475
192.469
192.17
192.929
192.717
193.151
193.078
193.115
193.173
192.964
518.286
517.538
517.914
516.861
517.181
516.285
516.552
515.817
516.039
515.438
515.615
515.001
515.137
515.277
515.295
515.445
515.824
515.627
516.297
516.049
516.866
516.559
517.572
517.205
517.97
518.055
515.98
516.381
515.082
515.52
514.237
514.657
513.412
513.823
512.586
512.951
512.34
504.562
499.985
506.52
501.584
518.079
518.657
518.526
517.181
517.616
516.314
516.749
515.463
515.896
514.632
515.051
513.809
514.216
513.019
513.414
183.301
192.802
192.129
509.907
192.927
192.862
514.324
514.531
178.435
192.75
185.541
180.894
182.104
505.472
186.97
508.543
506.441
183.486
336.343
486.275
192.558
185.874
517.05
186.201
514.694
328.02
506.405
509.845
164.919
164.934
518.695
519.174
517.952
508.222
502.241
494.159
496.592
507.719
498.206
504.495
502.794
512.936
512.288
192.856
191.866
191.298
434.09
408.956
402.014
436.631
509.127
510.545
192.548
514.766
514.617
514.043
491.168
491.292
192.746
192.794
192.782
185.916
490.666
182.856
185.66
185.39
185.406
505.935
503.517
187.809
508.116
506.979
505.757
487.799
182.237
485.934
192.985
192.479
191.37
508.927
494.021
519.578
183.69
519.961
192.886
190.395
179.352
181.102
183.912
187.844
186.95
508.267
214.817
192.409
514.767
514.74
513.472
300.535
342.339
490.215
487.127
192.671
186.107
515.296
515.564
515.403
505.173
320.018
306.98
495.386
189.611
517.206
516.246
493.495
191.146
505.635
192.863
186.342
185.917
181.117
189.358
189.25
186.491
189.325
192.271
192.161
514.937
514.818
512.887
514.957
515.219
514.912
355.149
489.351
325.994
379.327
189.787
509.526
191.452
511.068
188.014
518.507
192.745
274.652
184.915
517.873
190.013
487.87
515.032
515.023
514.89
512.242
515.039
493.42
488.6
191.647
487.927
185.46
515.105
511.61
488.242
192.115
192.356
185.575
515.156
510.626
510.745
184.085
192.748
179.15
182.098
178.092
176.411
177.419
191.832
191.923
192.692
192.375
193.132
192.947
193.241
193.231
193.074
193.19
192.692
192.882
192.148
192.44
191.437
191.829
190.609
191.046
189.685
190.159
188.674
189.19
187.604
188.148
186.477
187.046
185.307
185.897
184.098
184.707
182.857
183.482
181.588
182.226
180.294
180.944
178.978
179.639
177.643
178.313
176.289
176.968
174.918
175.606
173.531
174.227
172.128
172.832
170.709
171.42
169.273
169.993
167.821
168.549
166.35
167.088
164.861
165.608
164.108
164.227
164.169
164.332
164.281
164.421
164.378
164.495
164.46
164.551
164.525
164.592
164.573
164.612
164.606
164.614
164.614
164.608
164.614
164.578
164.596
164.532
164.558
164.469
164.503
164.389
164.431
164.293
164.343
164.182
164.239
164.122
165.625
164.876
167.109
166.37
168.574
167.844
170.021
169.3
171.452
170.739
172.867
172.162
174.266
173.569
175.649
174.96
177.016
176.335
178.364
177.692
179.694
179.032
181.003
180.351
182.288
181.649
183.549
182.921
184.777
184.166
185.972
185.377
187.12
186.55
188.226
187.682
189.27
188.761
190.232
189.758
191.101
190.679
191.87
191.497
192.503
192.202
192.973
192.757
193.224
193.138
193.249
193.256
193.156
518.647
519.166
517.783
518.193
517.057
517.401
516.443
516.728
515.949
516.178
515.547
515.734
515.232
515.384
515.084
515.956
515.749
516.453
516.192
517.067
516.736
517.815
517.422
518.244
519.643
518.886
519.331
518.416
516.185
516.615
515.352
515.758
514.554
514.932
513.795
514.174
513.071
513.428
512.641
509.366
188.557
498.644
506.038
500.627
518.379
518.84
517.459
517.92
516.561
517.004
515.71
516.131
514.902
515.303
514.129
514.515
513.249
513.734
513.163
192.819
191.533
423.821
412.761
510.017
192.738
192.53
514.134
514.35
327.777
327.469
487.828
489.589
518.246
497.518
499.186
175.65
173.871
187.517
517.209
177.356
192.766
185.611
189.998
184.422
185.47
506.458
310.305
187.649
508.615
508.124
506.608
182.928
332.376
465.676
467.392
483.024
517.181
196.672
191.249
503.651
177.483
182.661
185.36
192.02
246.884
517.282
513.551
508.229
502.613
507.293
497.062
502.352
520.495
192.823
191.182
190.996
190.78
182.257
184.337
187.832
187.386
509.208
184.739
338.836
508.713
440.338
184.724
192.122
514.321
514.464
513.836
514.99
515.02
515.004
514.971
339.065
342.077
486.393
482.206
484.256
488.24
483.661
182.333
192.513
192.686
192.726
192.723
185.829
515.207
517.988
517.977
186.235
185.717
185.793
186.2
513.371
505.799
299.554
295.077
190.679
491.336
190.574
177.296
508.862
508.38
509.974
186.001
506.759
509.2
513.149
513.27
164.8
164.045
163.426
163.363
520.08
520.125
520.72
475.078
480.429
488.982
492.638
192.759
185.741
188.095
182.024
189.62
179.833
183.683
189.96
190.143
512.621
192.065
316.006
513.17
514.633
514.605
513.314
514.894
349.374
355.454
478.21
487.213
485.211
294.729
218.893
192.524
185.827
515.155
190.265
187.237
506.599
190.922
174.428
190.987
205.536
476.86
290.204
486.719
192.663
186.544
180.699
188.581
176.212
177.86
185.071
191.053
194.955
485.252
191.758
514.76
514.703
512.723
514.862
368.015
470.939
486.357
179.354
251.799
241.702
279.516
191.553
191.106
290.558
192.48
187.466
179.4
485.074
191.431
191.347
185.214
514.868
514.811
512.07
463.68
485.671
255.477
191.78
192.066
185.591
514.961
511.327
485.325
323.372
510.66
454.287
516.275
514.546
190.162
178.712
181.707
174.825
176.337
176.358
174.593
174.389
190.832
190.894
192.044
191.515
192.812
192.467
193.223
193.025
193.292
193.297
193.128
193.24
192.727
192.944
192.165
192.479
191.453
191.843
190.617
191.053
189.682
190.159
188.663
189.183
187.585
188.133
186.453
187.025
185.278
185.871
184.065
184.676
182.821
183.447
181.549
182.188
180.252
180.903
178.934
179.596
177.596
178.268
176.241
176.921
174.869
175.557
173.481
174.177
172.077
172.781
170.657
171.369
169.22
169.941
167.766
168.495
166.293
167.032
165.549
163.35
163.475
163.414
163.586
163.532
163.681
163.635
163.759
163.722
163.819
163.791
163.861
163.842
163.883
163.875
163.897
163.896
163.877
163.885
163.847
163.864
163.798
163.824
163.73
163.766
163.645
163.69
163.543
163.596
163.486
164.06
165.567
164.816
167.054
166.313
168.521
167.789
169.97
169.247
171.402
170.688
172.818
172.112
174.218
173.52
175.602
174.912
176.97
176.288
178.321
177.648
179.653
178.989
180.964
180.311
182.253
181.611
183.517
182.887
184.747
184.135
185.948
185.351
187.102
186.528
188.215
187.664
189.261
188.752
190.237
189.759
191.116
190.686
191.894
191.522
192.541
192.237
193.024
192.804
193.293
193.199
193.331
193.33
193.016
193.225
192.29
192.583
518.941
519.481
518.003
518.447
517.219
517.59
516.562
516.872
516.032
516.287
515.612
515.809
515.303
515.445
515.154
515.21
515.054
515.012
514.917
514.948
515.076
515.033
515.307
515.215
515.625
515.456
516.045
515.821
516.573
516.295
517.232
516.882
518.031
517.606
518.975
518.488
519.508
519.308
519.886
518.762
516.399
516.831
515.574
515.972
514.833
515.177
514.16
514.48
513.48
513.835
513.102
509.516
198.765
490.102
505.374
499.906
519.915
521.074
520.463
518.711
519.261
517.712
518.204
516.781
517.236
515.921
516.342
515.14
515.523
514.42
514.775
513.738
514.073
513.559
192.768
190.972
183.077
187.856
510.098
515.785
493.366
192.426
191.976
176.768
514.181
514.97
341.075
486.278
474.268
479.192
184.489
176.328
178.472
507.801
173.642
175.06
175.695
192.091
192.383
192.712
185.703
507.242
517.752
187.492
185.952
406.147
297.798
191.239
194.56
509.221
508.735
456.561
450.117
507.933
512.047
509.589
337.844
282.163
398.687
194.338
189.968
421.886
163.284
163.297
191.293
521.22
257.38
506.865
501.062
484.983
506.614
496.01
501.87
192.67
494.54
182.954
190.848
190.615
190.121
181.254
183.458
190.354
190.661
509.478
511.132
326.019
225.429
191.816
513.673
514.359
514.325
513.687
514.887
352.205
355.419
480.519
485.007
481.039
327.343
431.746
188.85
191.005
192.54
192.559
192.572
185.834
515.066
514.894
514.938
511.249
189.867
186.002
186.199
186.796
513.7
513.547
513.005
508.611
507.588
283.161
283.57
192.236
180.392
190.42
511.523
510.604
179.278
509.848
469.225
243.678
279.602
482.606
515.57
491.274
521.651
521.673
522.369
192.528
185.63
181.731
189.24
179.456
183.755
174.714
174.333
176.523
192.192
194.697
482.574
479.251
512.804
361.755
191.698
514.469
514.486
513.151
514.789
508.413
361.589
368.646
473.872
483.941
189.201
234.079
305.487
516.952
183.749
185.376
184.23
185.484
192.305
185.676
515.034
282.499
189.242
187.99
507.579
193.115
486.923
190.48
195.374
200.231
184.651
496.786
191.961
192.412
186.859
180.733
189.244
177.982
176.635
193.021
515.483
460.244
482.14
184.388
191.19
175.995
514.59
514.605
512.567
514.719
381.116
466.661
483.076
458.266
245.237
226.583
511.708
179.082
190.755
191.358
191.705
185.631
514.72
511.903
482.474
257.356
511.492
512.088
182.796
188.348
175.404
178.496
172.109
173.347
172.207
172.027
172.898
180.298
191.039
190.217
192.205
191.658
192.936
192.602
193.316
193.151
193.368
193.38
193.18
193.313
192.775
193.012
192.2
192.511
191.473
191.855
190.622
191.061
189.676
190.16
188.65
189.173
187.562
188.113
186.424
186.999
185.243
185.838
184.026
184.639
182.778
183.406
181.503
182.144
180.203
180.856
178.883
179.546
177.543
178.216
176.186
176.867
174.813
175.502
173.424
174.121
172.02
172.724
170.599
171.311
169.162
169.882
167.706
168.436
166.232
166.971
164.736
165.487
163.215
163.979
162.444
162.587
162.517
162.718
162.654
162.835
162.779
162.936
162.888
163.018
162.979
163.081
163.052
163.125
163.105
163.15
163.139
163.17
163.169
163.141
163.151
163.11
163.128
163.058
163.086
162.987
163.025
162.896
162.944
162.788
162.844
162.664
162.728
162.528
162.598
162.456
163.994
163.228
165.505
164.753
166.994
166.252
168.462
167.73
169.912
169.189
171.345
170.631
172.762
172.055
174.163
173.464
175.548
174.857
176.918
176.235
178.271
177.596
179.605
178.94
180.919
180.264
182.21
181.567
183.477
182.846
184.711
184.099
185.918
185.318
187.077
186.501
188.198
187.643
189.252
188.737
190.24
189.757
191.132
190.694
191.923
191.544
192.588
192.273
193.085
192.853
193.369
193.263
193.425
193.414
193.115
193.3
192.473
192.798
191.414
192.108
190.813
520.372
520.995
519.196
519.78
518.187
518.663
517.34
517.735
516.632
516.97
516.067
516.341
515.634
515.837
515.317
515.46
515.116
515.202
514.998
515.046
514.997
514.985
515.093
515.034
515.323
515.214
515.64
515.464
516.082
515.848
516.643
516.345
517.35
516.979
518.205
517.753
519.228
518.697
520.445
519.81
521.786
521.134
522.432
521.194
521.679
519.637
520.236
249.327
519.066
517.484
259.367
516.571
517.008
515.758
516.155
515.066
515.381
514.453
514.736
513.945
514.187
513.977
513.818
508.464
516.739
471.024
488.949
505.724
499.299
520.284
520.951
519.016
519.627
517.932
518.457
516.964
517.433
516.1
516.521
515.331
515.702
514.663
514.987
514.112
514.368
513.904
192.594
512.181
190.4
182.387
347.581
175.421
177.512
190.6
510.427
507.472
322.508
191.977
191.433
514.018
514.032
514.883
354.279
482.667
476.119
369.72
363.612
345.701
270.435
178.785
183.952
173.084
175.223
171.704
171.76
172.671
171.99
175
173.83
176.747
186.694
187.95
191.141
192.565
185.875
515.051
288.928
190.929
186.447
513.18
195.064
379.009
381.962
512.898
509.523
411.141
508.045
284.658
193.595
190.189
510.875
218.943
228.155
190.966
184.283
434.119
516.614
510.484
516.726
459.047
198.402
190.053
461.359
257.645
199.303
284.599
194.028
517.676
185.498
505.987
501.712
492.319
483.671
198.388
495.139
501.815
522.231
523.07
192.419
184.178
182.679
190.192
189.938
189.523
180.886
183.175
180.454
177.751
193.012
194.443
511.745
468.619
509.722
268.976
515.009
375.724
191.685
495.527
416.726
216.711
513.373
514.182
514.199
513.556
514.768
365.21
368.787
476.441
481.528
205.12
209.446
210.618
224.974
341.329
478.738
324.918
281.307
210.181
205.307
202.758
188.991
190.164
186.689
190.696
190.455
192.32
192.298
192.339
185.886
514.938
514.769
514.793
178.43
194.045
186.312
186.638
187.364
508.349
271.99
194.776
189.296
202.167
183.872
285.219
510.568
163.15
162.376
161.753
161.676
522.309
523.129
513.6
191.301
424.355
188.892
192.259
185.432
181.774
189.279
179.549
184.02
177.811
194.811
466.11
199.174
512.245
479.26
510.276
512.731
190.955
185.146
514.284
514.373
513.007
514.646
374.409
381.622
469.273
480.392
452.272
206.655
236.121
270.648
213.084
442.036
300.701
208.291
190.095