/*--------------------------------*- C++ -*----------------------------------*\
| =========                 |                                                 |
| \\      /  F ield         | OpenFOAM: The Open Source CFD Toolbox           |
|  \\    /   O peration     | Version:  2212                                  |
|   \\  /    A nd           | Website:  www.openfoam.com                      |
|    \\/     M anipulation  |                                                 |
\*---------------------------------------------------------------------------*/
FoamFile
{
    version     2.0;
    format      ascii;
    arch        "LSB;label=32;scalar=64";
    class       surfaceScalarField;
    location    "0.0535";
    object      phi;
}
// * * * * * * * * * * * * * * * * * * * * * * * * * * * * * * * * * * * * * //

dimensions      [1 0 -1 0 0 0 0];

oriented        oriented;

internalField   nonuniform List<scalar> 
88550
(
-1.15196e-05
-0.000161372
1.60522e-05
0.000156839
-7.62271e-05
-8.80508e-05
8.89828e-05
7.52951e-05
-8.61567e-05
7.30535e-05
-7.53626e-05
8.84658e-05
7.42172e-05
7.64827e-05
-0.000122957
-2.7743e-05
-8.81667e-05
2.96278e-05
0.00010668
-9.26321e-05
-4.36762e-05
-0.000297108
0.000256696
-5.68551e-05
9.72683e-05
-0.00010076
-6.39581e-05
8.18201e-05
8.28979e-05
-8.54556e-05
-4.85279e-05
5.43977e-05
7.95858e-05
-0.000220848
0.000222188
-3.11629e-05
2.98226e-05
-7.14121e-05
-0.000112511
0.00011952
6.44031e-05
-5.32119e-05
-9.19968e-06
-7.82183e-06
7.02334e-05
5.30235e-06
7.33637e-05
-0.000294596
0.00021593
6.88718e-05
6.19116e-05
-6.35748e-05
-6.72086e-05
-3.95022e-05
1.84208e-06
3.66795e-06
3.39923e-05
-6.10188e-05
1.06567e-05
-2.8498e-06
2.11818e-05
2.94845e-05
-3.83664e-05
-1.22999e-05
3.34913e-05
2.75153e-05
-3.50362e-05
-2.59704e-05
-2.35e-05
0.000196445
2.86558e-05
-0.000201601
-1.93823e-05
3.48961e-05
0.000285031
-0.000300543
-8.4723e-06
-0.000240669
0.000227844
2.12975e-05
2.5448e-05
-3.6701e-05
3.24348e-05
0.000267619
-4.05205e-05
-0.000265496
3.83979e-05
0.000198351
-0.000166774
-7.70275e-05
4.54502e-05
3.30353e-05
0.000138449
-2.92168e-05
-0.000142268
-0.000143178
-3.22537e-05
0.000160689
1.47428e-05
-1.10798e-05
0.000268291
3.63057e-05
-0.000293516
-0.000191938
0.000132939
0.000151457
-9.24577e-05
0.000224202
7.1245e-06
-9.40736e-06
-0.00022192
0.000156151
-0.000168696
-0.000153023
0.000165568
2.76084e-05
-2.57231e-05
-2.50066e-06
6.15332e-07
3.01109e-05
-0.000247355
0.000247295
-3.00512e-05
-2.46802e-06
4.26738e-06
2.32581e-05
-2.50574e-05
0.000124487
-0.000106615
-0.000122596
0.000104724
3.55078e-05
-5.1903e-05
-2.47034e-05
4.10986e-05
8.33975e-06
0.000191664
1.6394e-07
-0.000200168
1.83032e-05
-6.32842e-05
7.25297e-05
-2.75487e-05
6.237e-05
-6.41636e-05
2.00967e-05
-2.53127e-05
0.000191671
-0.000199254
3.28963e-05
4.1304e-05
-8.30434e-05
9.0255e-05
-4.85156e-05
-7.10324e-05
-7.44616e-05
8.59157e-05
5.95783e-05
-7.28961e-05
4.02711e-05
6.99912e-05
-3.73662e-05
-0.000217453
0.000247541
0.000133596
-0.000163684
-2.65433e-05
-0.000137503
0.000141546
2.25002e-05
-2.9227e-05
-0.000234248
0.000232525
3.09496e-05
-1.62554e-05
0.00010529
9.8323e-06
-9.88664e-05
-4.77361e-05
4.54671e-05
0.000232676
-0.000230407
0.000174863
7.42781e-06
-2.15453e-05
-0.000160746
5.85621e-05
0.000211356
-4.69013e-05
-0.000223016
-3.3165e-05
-0.000136232
0.000142853
-8.0954e-05
5.95801e-05
9.40483e-05
-7.26744e-05
-0.000235242
-3.32814e-05
0.000220787
9.31224e-05
-5.96517e-05
-9.1297e-05
5.78263e-05
2.62401e-05
-1.8247e-05
-2.68273e-05
1.88342e-05
-0.000234981
-2.51595e-05
3.92931e-05
-0.000112252
4.45203e-06
0.00011836
-1.0559e-05
-7.15895e-05
-6.81504e-05
7.72347e-05
6.25052e-05
9.89839e-05
-0.000180004
0.000162792
-8.17725e-05
-0.00015952
0.000146873
0.000131605
-0.000118958
0.000124876
-0.000103254
-0.000176269
0.000154647
-1.92181e-05
3.71193e-05
-0.000144163
0.000126263
-1.92273e-05
3.19952e-05
-3.7375e-05
2.46072e-05
-0.000195909
-5.76269e-05
2.3014e-05
0.000230522
-6.41388e-05
-8.16668e-05
6.87025e-05
7.71031e-05
0.000223689
9.69489e-06
-0.000228043
-5.3413e-06
-0.0001048
0.000137175
-0.000103787
-8.58399e-05
0.000100806
0.0001007
-0.000115666
7.74031e-05
7.93514e-05
-7.8026e-05
-7.87284e-05
-5.02476e-05
-0.00011264
5.23337e-05
0.000110554
0.000111025
-6.05042e-05
-0.000226419
0.000175898
-2.67899e-06
-2.98261e-05
1.51922e-06
3.09859e-05
-0.000109002
9.28566e-05
0.000109072
-9.29268e-05
1.36045e-05
-3.3473e-05
-0.000192041
0.000211909
-8.59477e-05
9.14379e-05
-7.93159e-05
7.38257e-05
0.000151838
-0.000214172
0.000173359
-1.17781e-05
8.15634e-05
1.51366e-05
-8.49219e-05
-2.98551e-05
3.54807e-05
3.40614e-05
-3.9687e-05
0.000133225
-0.000167869
-7.73667e-05
0.000169035
-0.000194922
-0.00010879
8.2826e-05
9.4938e-05
-6.89737e-05
1.68197e-06
0.000106187
-4.13248e-06
-0.000103737
0.000157005
-0.000178395
0.000173228
-8.56595e-05
4.64676e-05
-3.7727e-05
7.69189e-05
0.000288299
-0.000102983
6.98246e-05
-0.000255141
0.000112696
1.20917e-06
-0.000112223
-7.43473e-05
5.50311e-05
9.38672e-05
-7.4551e-05
0.000146395
-0.000163325
0.000173934
4.92015e-05
-5.45173e-05
0.000121098
-0.000115782
0.000239131
-0.000235637
-2.62791e-05
2.27845e-05
0.000224422
-0.000212429
-0.00015874
0.000146747
0.000194178
-8.99597e-05
0.000117883
-0.000222101
-0.000151517
0.000190136
0.000107776
-4.69928e-05
-0.000170107
6.07459e-05
0.000156354
3.39873e-05
-4.05987e-05
-2.47563e-05
3.13678e-05
-0.000242899
-1.75328e-05
0.000231205
0.000231366
-0.000240992
6.11352e-06
3.51177e-06
0.000130882
0.000137351
-0.000120593
-0.000147639
3.98064e-05
0.000243887
-0.000238363
-4.533e-05
5.6886e-05
-0.000264508
-3.07943e-05
0.000238417
-7.911e-05
-8.81381e-05
0.000108121
5.91266e-05
-0.000306337
-7.21692e-06
0.000305734
7.82012e-06
-5.27899e-05
5.81132e-05
-9.36675e-05
8.83433e-05
-8.46346e-05
0.000159205
9.92418e-05
-0.000173813
5.30593e-05
-8.76361e-05
7.8962e-05
-4.43851e-05
2.4482e-05
-0.000247299
0.000228119
8.9803e-05
-0.000103345
-0.000184588
0.000198129
2.5963e-05
-0.000230177
0.000228696
1.17326e-05
-1.74793e-05
-0.000106504
9.35531e-05
-9.64103e-05
-8.75448e-05
9.0402e-05
0.000286084
6.71554e-05
-0.000229516
-0.000123723
1.70083e-05
0.000227529
-0.000218574
-3.84591e-05
7.84155e-05
-8.1351e-05
4.13945e-05
0.000125889
-3.84358e-05
-9.63969e-05
8.94241e-06
-0.000141679
-0.000120618
9.22048e-05
0.000170093
5.46385e-05
-0.000117934
0.000102462
-3.91664e-05
2.1493e-05
0.000221707
-0.000226192
-5.29032e-05
-0.000198836
0.000174372
-2.42268e-05
2.92932e-05
-9.39509e-05
8.88845e-05
3.28688e-05
-1.77642e-05
1.5507e-05
-3.06116e-05
3.2918e-05
-0.0002217
0.000210275
5.01433e-05
-6.88622e-05
-5.39951e-05
7.27139e-05
-0.000165823
0.000120307
-0.000139934
0.00018545
-0.000107044
0.000155622
-0.000162293
0.000113715
2.56277e-05
-0.000194454
0.000201744
-0.000161295
0.000125774
-0.000130303
0.000105983
2.39416e-05
-1.57697e-05
-0.000114155
1.40746e-05
-0.000181377
0.00019293
-0.000162316
0.000132825
-0.000131803
-3.08804e-05
3.12552e-05
-0.000100186
9.98111e-05
4.80929e-06
-0.000172865
0.000182131
-0.000160228
0.000126913
-0.000129001
0.000143506
-0.000152073
0.000152814
-0.000144247
-8.13133e-05
-0.000103238
9.86038e-05
-0.000185147
-0.00014664
0.000166325
0.000165462
-3.04189e-06
-0.00016602
0.000173871
-0.000149039
-0.000117782
0.000106593
-0.000181664
0.000154531
-1.08737e-05
3.80061e-05
9.65369e-05
-7.63375e-05
-0.000201863
-1.07662e-05
-0.000157408
0.000165132
-0.000108121
8.37701e-05
-0.000124688
0.00010714
-0.000136162
-0.000183103
0.000212125
-1.32187e-05
-0.000151614
0.000154066
-6.06831e-05
5.84052e-05
0.000200489
-0.000198211
0.000197434
-0.000190395
-6.77225e-05
-0.000145882
0.000144391
-1.17279e-05
-9.63795e-05
0.000100079
-3.45798e-05
-4.21059e-05
4.61193e-05
7.1939e-05
-7.59523e-05
-1.90253e-05
-0.0001006
7.75192e-05
0.000111823
1.36872e-05
-1.1149e-05
-0.000114361
-8.67486e-05
9.58573e-05
-8.63508e-05
7.72421e-05
-8.25341e-05
4.17018e-05
8.21362e-05
-0.000107499
-3.31335e-05
2.11272e-05
0.000119505
1.25767e-05
0.000140356
-0.000151861
-1.07174e-06
0.000195753
-8.4145e-05
-0.000205502
9.3894e-05
0.000103336
-6.77134e-06
6.26572e-06
-0.000102831
4.49756e-06
-0.000113105
0.000107356
1.25173e-06
7.759e-05
-1.94202e-05
3.33351e-05
-9.1505e-05
0.000305793
-0.000304319
5.7759e-06
-7.24972e-06
0.000307643
-6.91587e-06
5.06681e-06
0.000308844
-5.02049e-06
3.81959e-06
0.000310894
-4.21787e-06
2.16832e-06
0.00031141
-1.53857e-06
1.02328e-06
0.000312799
-6.36043e-07
-7.5268e-07
0.000312954
9.17462e-07
-1.07214e-06
0.000313059
1.78711e-06
-1.89244e-06
0.000313306
1.71571e-06
-1.96175e-06
0.000313659
1.41678e-06
-1.76992e-06
0.000314406
9.35947e-07
-1.68233e-06
0.000315099
3.73971e-07
-1.06623e-06
0.000316029
-4.79644e-08
-8.82313e-07
0.000316831
-1.37724e-07
-6.63576e-07
0.00031772
-2.38112e-07
-6.50125e-07
0.000318568
-2.8288e-07
-5.65311e-07
0.00031943
-3.08216e-07
-5.53719e-07
0.0003203
-3.15633e-07
-5.53072e-07
0.000321178
-3.21595e-07
-5.5623e-07
0.000322052
-3.43195e-07
-5.3086e-07
0.000322974
-3.79899e-07
-5.41628e-07
0.000323893
-4.16896e-07
-5.01269e-07
0.000324864
-6.04979e-07
-3.66216e-07
0.000325954
-1.03217e-06
-5.75284e-08
0.000327187
-1.66015e-06
4.27654e-07
0.000328593
-2.23911e-06
8.34226e-07
0.000330071
-2.45902e-06
9.81335e-07
0.000331511
-1.9312e-06
4.91554e-07
0.000332945
-1.63287e-06
1.98616e-07
0.000333638
-3.72919e-07
-3.19763e-07
0.000334584
4.01039e-07
-1.34631e-06
0.000335044
1.62521e-06
-2.08456e-06
0.000335421
1.85539e-06
-2.23224e-06
0.000335981
1.36886e-06
-1.92865e-06
0.000337107
6.75534e-07
-1.80119e-06
0.000338257
8.70201e-08
-1.23597e-06
0.00033954
-2.45654e-07
-1.03697e-06
0.000340753
-4.03622e-07
-8.0922e-07
0.000341988
-4.47878e-07
-7.8728e-07
0.000343184
-3.84802e-07
-8.10928e-07
0.00034438
-3.61825e-07
-8.33041e-07
0.000345477
-9.06366e-08
-1.00613e-06
0.000346652
3.70704e-08
-1.21228e-06
0.00034778
4.16257e-07
-1.54378e-06
0.000348783
1.11374e-06
-2.11653e-06
0.000349595
1.90888e-06
-2.71966e-06
0.000350267
2.44832e-06
-3.12031e-06
0.000350936
1.99105e-06
-2.65999e-06
1.04364e-06
0.000351387
-1.4944e-06
0.000350322
-0.000349959
1.62805e-06
0.000351671
-3.05355e-07
-0.000349171
1.66072e-06
3.25139e-05
-3.43467e-05
-2.17723e-05
2.36052e-05
5.59809e-06
-0.000302485
-7.43203e-06
-0.000303865
0.000305803
3.83848e-06
4.42666e-06
-0.000302694
0.000352688
-1.28122e-06
-1.85272e-08
-3.51004e-06
1.33361e-06
0.000354864
-0.000352823
0.000354515
-5.20197e-06
-2.43217e-06
0.000348227
-0.000347296
1.83383e-07
9.65669e-07
0.000346282
-0.000345037
-1.20826e-06
-5.97333e-07
0.000343932
-0.00034295
-1.34329e-06
-1.19514e-06
0.000341768
-0.000340593
-1.62319e-06
-1.56592e-06
0.00033941
-0.000338248
-1.40742e-06
-1.58606e-06
0.00033714
-0.000336173
-2.90417e-07
-1.0207e-06
0.000335305
-0.00033456
1.11108e-06
5.00878e-07
0.00033317
-0.000332867
9.84929e-08
2.35636e-07
0.00033161
-0.000330866
-2.37699e-06
-1.62964e-06
0.000329604
-0.000328405
-3.65749e-06
-3.1923e-06
0.000327291
-0.000325972
-2.97841e-06
-3.35319e-06
0.000324808
-0.00032376
-1.6525e-06
-2.1958e-06
0.000322769
-0.000321882
-1.26567e-06
-1.40812e-06
0.000320979
-0.000320092
-1.20853e-06
-1.24592e-06
0.000319244
-0.000318385
-1.16605e-06
-1.16352e-06
0.000317548
-0.000316704
-1.08163e-06
-1.1203e-06
0.000315849
-0.000315077
-8.19754e-07
-9.92497e-07
0.000314246
-0.000313514
2.03572e-07
-4.55921e-07
0.000312998
-0.000312769
1.4867e-06
9.01454e-07
0.00031243
-0.000311951
4.39673e-07
1.44846e-06
0.000311637
-0.000310104
-3.07117e-06
-9.49838e-07
0.000308782
-0.000307133
-6.66881e-06
-5.53964e-06
-8.1816e-06
-0.000305867
-0.000307471
0.00030904
2.25126e-06
3.399e-06
-0.000310386
0.00031152
-1.10172e-07
8.22505e-07
-0.000311943
0.000312631
-1.75962e-06
-1.17521e-06
-0.000313004
0.000313288
-2.24493e-06
-2.26521e-06
-0.00031365
0.000314182
-2.21399e-06
-2.13168e-06
-0.000315087
0.000315837
-1.63254e-06
-1.97085e-06
-0.000316697
0.000317492
-1.44453e-06
-1.52286e-06
-0.00031841
0.000319242
-1.38565e-06
-1.4832e-06
-0.000320116
0.000321
-1.44001e-06
-1.4263e-06
-0.000321918
0.000322778
-1.40199e-06
-1.44811e-06
-0.000323688
0.000324656
-1.3337e-06
-1.41092e-06
-0.000325785
0.000326982
-7.68997e-07
-1.18594e-06
-0.0003284
0.000329806
-4.24147e-07
-5.83218e-07
-0.000330985
0.000332202
-1.01759e-06
-6.87665e-07
-0.000333396
0.000334208
-2.15846e-06
-1.5131e-06
-0.00033479
0.000335373
-2.81447e-06
-2.6662e-06
-0.000336334
0.000337021
-2.48715e-06
-2.88977e-06
-0.000338225
0.000339312
-2.12366e-06
-2.43962e-06
-0.000340601
0.000341781
-1.9664e-06
-2.09828e-06
-0.000342976
0.000344229
-2.08555e-06
-2.00534e-06
-0.000345379
0.000346572
-2.40503e-06
-2.15627e-06
-0.000347625
0.000348673
-3.1643e-06
-2.59637e-06
-0.000349422
0.000350159
-3.85647e-06
-3.46802e-06
-0.000350806
0.000351828
-2.51625e-06
-3.30718e-06
-0.000353247
-7.17148e-07
0.000355298
-1.43666e-06
0.000350555
-0.000349749
8.22642e-07
0.000351392
-1.14196e-06
-0.000348654
5.6522e-07
-2.71132e-05
-1.7138e-05
4.41985e-05
5.2671e-08
3.14459e-05
-2.39756e-05
2.50437e-05
-0.000303453
0.000305319
1.97355e-06
-0.000301609
2.58244e-06
-6.06795e-06
4.16723e-06
0.000356416
0.000353432
-0.000352833
-5.80048e-06
-8.58614e-06
0.000355951
0.000355187
-0.000353464
-2.43924e-06
-8.03879e-08
-1.81974e-06
0.000357199
0.000357401
-2.294e-06
-4.90138e-06
3.63808e-06
-0.00030143
-4.32808e-06
-0.000303058
-3.87285e-06
0.000347589
-0.000346657
-7.47637e-07
-9.88071e-08
0.000345472
-0.000344625
-2.05499e-06
-1.78224e-06
0.000343459
-0.000342261
-2.54065e-06
-2.36102e-06
0.000341101
-0.000339943
-2.78057e-06
-2.72594e-06
0.000338791
-0.000337688
-2.50999e-06
-2.73741e-06
0.000336545
-0.000335655
-1.18019e-06
-2.16346e-06
0.000334617
-0.000333656
1.49894e-07
-5.36004e-07
0.000333373
-0.00033186
-1.41371e-06
-4.68377e-08
0.000331298
-0.000329878
-3.79574e-06
-2.19221e-06
0.000328858
-0.000327563
-4.95242e-06
-4.21179e-06
0.000326405
-0.000325293
-4.09016e-06
-4.51087e-06
0.000324152
-0.000323143
-2.66081e-06
-3.33656e-06
0.000322255
-0.000321309
-2.21109e-06
-2.29571e-06
0.000320395
-0.000319521
-2.08229e-06
-2.16013e-06
0.000318647
-0.000317807
-2.00562e-06
-2.03657e-06
0.000316963
-0.000316166
-1.87791e-06
-1.96443e-06
0.000315314
-0.000314586
-1.54717e-06
-1.84397e-06
0.000313748
-0.00031316
-3.84169e-07
-1.29372e-06
0.000312459
-0.000312014
1.04178e-06
2.00992e-07
0.000311625
-0.000310828
-3.57188e-07
1.06022e-06
0.000310351
-0.000309173
-4.24873e-06
-1.42676e-06
0.000308116
-0.000306572
-8.21152e-06
-6.59665e-06
-8.92408e-06
-0.00030583
-2.0116e-05
0.000232738
1.15801e-05
0.000357212
-0.000306987
0.000308544
6.948e-07
1.73064e-06
-0.000309633
0.000310641
-1.1184e-06
-2.65621e-07
-0.000311338
0.000311841
-2.26163e-06
-1.87162e-06
-0.000312321
0.000312741
-2.66455e-06
-2.74543e-06
-0.0003133
0.000313786
-2.69914e-06
-2.69028e-06
-0.000314467
0.000315339
-2.5039e-06
-2.65216e-06
-0.000316184
0.000317
-2.2603e-06
-2.36738e-06
-0.000317817
0.000318715
-2.28321e-06
-2.29981e-06
-0.000319561
0.000320431
-2.30963e-06
-2.27175e-06
-0.000321343
0.000322245
-2.30383e-06
-2.35999e-06
-0.000323157
0.000324076
-2.25198e-06
-2.32281e-06
-0.000325204
0.000326478
-2.04321e-06
-2.31314e-06
-0.000327698
0.000329018
-1.74423e-06
-1.80245e-06
-0.000330319
0.0003315
-2.19763e-06
-1.98807e-06
-0.000332563
0.00033338
-2.97461e-06
-2.57639e-06
-0.000334152
0.0003349
-3.56262e-06
-3.43781e-06
-0.000335702
0.000336583
-3.36821e-06
-3.69065e-06
-0.000337715
0.000338793
-3.20182e-06
-3.57085e-06
-0.000339957
0.000341185
-3.19405e-06
-3.26112e-06
-0.000342395
0.000343573
-3.2636e-06
-3.21532e-06
-0.000344824
0.000345974
-3.55515e-06
-3.40636e-06
-0.00034706
0.000348126
-4.2299e-06
-3.68148e-06
-0.000348994
0.000349852
-4.71413e-06
-4.33594e-06
-0.000350734
0.000352041
-3.82324e-06
-4.18834e-06
-2.85946e-06
-0.000300223
2.25258e-06
-0.000353212
0.000354685
-1.00582e-05
-0.000352242
-6.77047e-06
0.000350081
-0.000348833
-4.25047e-07
0.000350982
-2.04275e-06
-0.00034769
-5.77268e-07
-4.43401e-07
-1.93409e-06
0.000359576
-2.4362e-06
0.000359394
-1.66261e-06
-0.000307222
0.000304556
-2.21485e-06
-0.000299604
1.59595e-06
-1.29793e-06
-0.000302347
-1.64444e-06
-0.000302711
-1.03001e-05
8.157e-06
0.000356828
0.000353756
-0.000352236
-1.15778e-05
0.000355373
-1.19167e-05
1.84316e-06
-3.20314e-06
-0.000300986
1.53324e-06
-0.000299294
-5.13229e-06
0.000346708
-0.000345326
-2.1292e-06
-1.08028e-06
0.000344761
-0.000343674
-3.14195e-06
-2.34691e-06
0.000342454
-0.000341296
-3.69872e-06
-3.58055e-06
0.000340111
-0.000338905
-3.98639e-06
-3.91019e-06
0.000337739
-0.000336637
-3.61164e-06
-3.90305e-06
0.000335506
-0.000334364
-2.32108e-06
-3.29403e-06
0.000333605
-0.000332685
-7.69576e-07
-1.29528e-06
0.000332089
-0.000330342
-3.16113e-06
-6.41809e-07
0.00033022
-0.000329231
-4.78424e-06
-2.3131e-06
0.000327587
-0.000326244
-6.29504e-06
-5.85617e-06
0.00032511
-0.000324087
-5.11227e-06
-5.64431e-06
0.000323064
-0.000322158
-3.5665e-06
-4.35953e-06
0.000321223
-0.000320304
-3.12947e-06
-3.2306e-06
0.000319417
-0.00031855
-2.9485e-06
-3.04666e-06
0.000317677
-0.000316832
-2.85023e-06
-2.90904e-06
0.000316002
-0.000315194
-2.68559e-06
-2.79453e-06
0.000314366
-0.000313561
-2.35232e-06
-2.67147e-06
0.000312826
-0.000311991
-1.21871e-06
-2.02773e-06
0.000311536
-0.000310987
4.93169e-07
-2.54103e-07
0.00031052
-0.000310288
-5.88779e-07
5.94131e-07
0.000308914
-0.000307614
-5.54858e-06
-2.80107e-06
0.000306801
-0.000306333
-8.67913e-06
-7.40899e-06
3.622e-05
0.00021988
-0.000238668
-1.74321e-05
-9.22115e-06
-0.000306035
3.98744e-06
-6.2463e-06
0.000358675
0.000359266
0.000357862
0.000299184
-0.000297998
3.47973e-07
-0.000300097
0.000301636
7.13836e-07
6.83554e-07
-0.000303204
0.000304344
8.33138e-07
1.01476e-06
-0.000305938
0.000307431
-7.98075e-07
1.37682e-07
-0.000308439
0.000309427
-2.10648e-06
-1.27277e-06
-0.000310218
0.000310848
-2.89109e-06
-2.6619e-06
-0.000311396
0.000311908
-3.17673e-06
-3.2934e-06
-0.000312468
0.00031311
-3.34121e-06
-3.24945e-06
-0.000313744
0.000314413
-3.17223e-06
-3.28554e-06
-0.000315217
0.000316095
-3.13739e-06
-3.17138e-06
-0.000316903
0.000317733
-3.11233e-06
-3.10807e-06
-0.000318624
0.000319491
-3.17622e-06
-3.16261e-06
-0.000320362
0.000321304
-3.24539e-06
-3.23111e-06
-0.000322247
0.000323216
-3.2208e-06
-3.26497e-06
-0.000324151
0.000325314
-3.20671e-06
-3.24704e-06
-0.000326558
0.000327877
-3.06282e-06
-3.04563e-06
-0.000329089
0.000330217
-3.32486e-06
-3.19965e-06
-0.000331289
0.000332243
-3.92845e-06
-3.64849e-06
-0.000332953
0.000333801
-4.41085e-06
-4.14689e-06
-0.000334656
0.000335749
-4.46045e-06
-4.54492e-06
-0.000336638
0.000337853
-4.41635e-06
-4.45992e-06
-0.000338957
0.000340128
-4.3651e-06
-4.36453e-06
-0.000341339
0.000342574
-4.49844e-06
-4.42568e-06
-0.00034373
0.00034491
-4.7342e-06
-4.56199e-06
-0.000346089
0.00034708
-5.2209e-06
-4.86028e-06
-0.000348259
0.000348997
-5.45136e-06
-5.51462e-06
-0.00035021
0.00035156
-5.17328e-06
-5.40095e-06
-0.000353071
0.000354855
-4.22229e-06
-4.37008e-06
-0.000356787
-4.2794e-06
0.000358631
-4.22591e-06
8.504e-07
1.29092e-07
-0.000300273
-0.000297325
1.77683e-07
-3.49401e-06
-0.000304506
-0.000350341
-8.66506e-06
-5.14665e-06
-0.000303719
-9.38939e-06
7.5868e-06
0.000358631
-1.14526e-05
0.000357436
0.000352095
-0.000351117
-1.25551e-05
0.000353732
-1.35538e-05
0.000357356
-0.000355514
-6.1207e-06
-4.7393e-06
2.94737e-06
0.000360423
0.000359006
-6.3885e-06
-3.34503e-06
-0.000302569
-5.83716e-07
-0.000300273
1.98742e-07
-1.08285e-06
-0.000299388
0.000347989
-0.000346734
-1.83207e-06
0.000349218
-1.65378e-06
0.000350382
-3.20656e-06
-1.8195e-07
-0.000296944
5.39403e-06
-5.54884e-06
-0.000304575
0.00030473
-0.000304575
0.000306475
-5.09039e-06
0.00034566
-0.000344696
-3.09282e-06
-2.15327e-06
0.000343297
-0.000342188
-4.24993e-06
-3.74597e-06
0.00034094
-0.000339701
-4.93755e-06
-4.82832e-06
0.000338615
-0.00033745
-5.1505e-06
-4.99628e-06
0.000336274
-0.000335067
-4.81892e-06
-5.07819e-06
0.000334097
-0.000333216
-3.20224e-06
-4.263e-06
0.000332083
-0.000331262
-1.59061e-06
-2.42776e-06
0.000330017
-0.000330617
-2.56089e-06
-1.88611e-06
0.00032755
-0.00032694
-5.39427e-06
-5.37935e-06
0.000325954
-0.000324854
-7.39473e-06
-6.84171e-06
0.000323322
-0.000322391
-6.04367e-06
-7.1751e-06
0.000321673
-0.00032077
-4.46932e-06
-5.07674e-06
0.000319815
-0.000318947
-3.99715e-06
-4.18538e-06
0.000318067
-0.000317182
-3.83347e-06
-3.92551e-06
0.000316317
-0.000315482
-3.68478e-06
-3.774e-06
0.000314653
-0.000313812
-3.52615e-06
-3.62271e-06
0.000313037
-0.000312214
-3.17465e-06
-3.44658e-06
0.000311562
-0.000311006
-1.77462e-06
-2.67906e-06
0.000310535
-0.000309623
-4.18654e-07
-7.2494e-07
0.000308915
-0.000307809
-1.69528e-06
-1.12664e-07
0.000306298
-0.000305947
-5.89866e-06
-4.31155e-06
0.000305472
-0.000305192
-8.95958e-06
-7.88349e-06
-1.90071e-05
9.1724e-05
-9.69437e-05
-8.75534e-06
-0.000305657
0.000121775
2.9546e-05
-9.62847e-05
-5.50364e-05
-1.02469e-06
-1.02259e-06
0.000361624
0.000361317
3.15137e-06
-5.19628e-06
0.00036072
0.000361395
0.000360253
0.000296739
-0.000295752
-1.16956e-06
-0.00029755
0.000298312
-4.13683e-07
-6.32123e-07
-0.000299597
0.000300737
-4.26232e-07
-6.01702e-07
-0.000302207
0.000303776
-7.35909e-07
-4.54202e-07
-0.000304957
0.000305914
-1.75493e-06
-1.0429e-06
-0.000307095
0.00030797
-2.98058e-06
-2.4532e-06
-0.000308604
0.000309353
-3.63954e-06
-3.2961e-06
-0.0003099
0.000310591
-3.86783e-06
-3.83982e-06
-0.000311149
0.00031179
-3.98161e-06
-3.80715e-06
-0.000312523
0.000313174
-3.82348e-06
-4.01779e-06
-0.000313941
0.000314708
-3.90419e-06
-3.93715e-06
-0.000315585
0.000316412
-3.93899e-06
-3.98525e-06
-0.000317258
0.000318142
-4.05995e-06
-4.0079e-06
-0.000319029
0.000319928
-4.14403e-06
-4.11729e-06
-0.000320876
0.000321855
-4.1994e-06
-4.21299e-06
-0.000322846
0.000323873
-4.23344e-06
-4.23748e-06
-0.000325016
0.000326178
-4.22391e-06
-4.18836e-06
-0.000327411
0.000328606
-4.51964e-06
-4.43274e-06
-0.00032961
0.000330465
-4.78291e-06
-4.65186e-06
-0.000331521
0.000332337
-5.22605e-06
-5.20281e-06
-0.000333162
0.00033421
-5.50829e-06
-5.36961e-06
-0.00033522
0.00033637
-5.56591e-06
-5.46945e-06
-0.000337531
0.000338687
-5.52086e-06
-5.52495e-06
-0.000339876
0.000341071
-5.69264e-06
-5.61472e-06
-0.000342297
0.000343515
-5.95204e-06
-5.78763e-06
-0.000344677
0.000345848
-6.39123e-06
-6.02173e-06
-0.00034686
0.000347954
-6.54481e-06
-6.52654e-06
-0.000349128
0.000350441
-6.4866e-06
-6.57423e-06
-0.000351978
0.000353736
-5.97987e-06
-5.906e-06
-6.00408e-06
-2.3495e-07
-5.92807e-07
-0.000296116
-0.00029483
-1.15612e-06
-4.6811e-06
-0.000304971
-0.000350124
-9.65798e-06
0.000347942
-0.000346393
-3.20226e-06
0.000349304
-4.56824e-06
-0.000345214
-3.01122e-06
0.000355269
-1.29889e-05
-5.05939e-06
3.42168e-06
0.000362061
-6.66443e-06
0.000360611
-0.000303757
0.00030429
-6.08184e-06
-4.89511e-06
3.04215e-06
-0.000302722
-0.000303626
-5.02581e-06
-2.79369e-06
-0.00030427
-1.32865e-07
-0.00030302
-1.72924e-06
-0.000299627
-2.2627e-06
-0.000297718
-2.05499e-07
-2.22006e-07
-0.000295688
-9.19221e-07
-0.000294116
-0.000306213
-5.90958e-06
0.000343962
-0.000342676
-4.3779e-06
-3.40517e-06
0.000341781
-0.000339985
-6.04549e-06
-4.64114e-06
0.000338967
-0.000337745
-6.15877e-06
-5.84599e-06
0.000336633
-0.000335524
-6.25871e-06
-6.10774e-06
0.000334389
-0.00033334
-5.86699e-06
-6.21361e-06
0.000332145
-0.00033102
-4.32687e-06
-5.45722e-06
0.000330137
-0.000329245
-2.48187e-06
-3.31085e-06
0.000328638
-0.000326894
-4.30459e-06
-2.49293e-06
0.000327277
-0.00032545
-7.22094e-06
-4.99618e-06
0.000323903
-0.000322709
-8.58767e-06
-8.38838e-06
0.000321658
-0.000320781
-6.91991e-06
-8.22605e-06
0.000319847
-0.000319
-5.31586e-06
-6.01066e-06
0.00031801
-0.000317105
-4.90207e-06
-5.17499e-06
0.000316259
-0.000315398
-4.69399e-06
-4.7712e-06
0.000314555
-0.000313714
-4.52522e-06
-4.61628e-06
0.000312895
-0.000312086
-4.33478e-06
-4.441e-06
0.000311315
-0.000310642
-3.8473e-06
-4.21802e-06
0.000309801
-0.000309199
-2.37651e-06
-3.51887e-06
0.000308136
-0.000307783
-7.7059e-07
-1.7879e-06
0.00030716
-0.000305136
-3.71926e-06
-7.35908e-07
0.000306765
-0.000304895
-7.7679e-06
-2.68174e-06
0.000304751
-0.000304104
-9.60623e-06
-8.02755e-06
0.000304402
-0.000304594
-8.65377e-06
8.84623e-06
-8.45651e-06
-7.42666e-06
7.12288e-06
-1.57386e-06
-2.9694e-07
0.000363495
0.000363165
2.31455e-06
-4.42996e-06
0.000362836
0.000363413
6.39922e-06
-8.32172e-06
0.000360554
0.000362222
1.01876e-05
0.000357311
-1.22295e-05
0.000359302
0.000294147
-0.000293247
-1.81912e-06
-0.000294636
0.000295679
-2.21257e-06
-1.64447e-06
-0.000296387
0.000297674
-1.70045e-06
-1.33975e-06
-0.000298592
0.000299912
-1.74679e-06
-1.51876e-06
-0.000300814
0.000302079
-2.00064e-06
-1.35546e-06
-0.000303417
0.000304332
-2.6699e-06
-2.38059e-06
-0.00030514
0.000306002
-3.84173e-06
-3.2605e-06
-0.000306828
0.000307473
-4.28448e-06
-4.12163e-06
-0.000308145
0.000308709
-4.43137e-06
-4.51171e-06
-0.000309451
0.000309953
-4.4827e-06
-4.54884e-06
-0.000310613
0.000311542
-4.75171e-06
-4.67788e-06
-0.000312215
0.00031302
-4.70882e-06
-4.61042e-06
-0.000313815
0.000314672
-4.79558e-06
-4.77989e-06
-0.000315502
0.000316356
-4.91354e-06
-4.83687e-06
-0.000317226
0.000318143
-5.06118e-06
-4.98689e-06
-0.000319049
0.000320004
-5.15451e-06
-5.11789e-06
-0.000320955
0.000322013
-5.29132e-06
-5.18772e-06
-0.00032308
0.000324182
-5.32488e-06
-5.2553e-06
-0.00032531
0.000326405
-5.61441e-06
-5.56019e-06
-0.000327478
0.000328492
-5.79609e-06
-5.72506e-06
-0.000329419
0.000330322
-6.12921e-06
-6.12911e-06
-0.000331363
0.000332282
-6.42658e-06
-6.4104e-06
-0.000333441
0.000334466
-6.59083e-06
-6.62739e-06
-0.000335597
0.0003368
-6.72384e-06
-6.65539e-06
-0.000337978
0.000339197
-6.91099e-06
-6.79198e-06
-0.000340415
0.000341588
-7.1248e-06
-7.00563e-06
-0.000342814
0.000343928
-7.50473e-06
-7.24717e-06
-0.000345095
0.000346286
-7.73633e-06
-7.69283e-06
-0.0003475
0.000348607
-7.59307e-06
-7.78742e-06
-0.000350471
0.000352045
-7.55399e-06
-7.76958e-06
-0.000353711
0.000355383
-7.79229e-06
-7.66908e-06
-0.000356995
-8.26051e-06
0.000358591
-8.00003e-06
-8.27944e-07
3.59321e-07
-0.000293647
-0.000292453
-1.62202e-06
2.04496e-06
-2.48755e-06
-0.000303183
3.93178e-06
-0.000304608
-1.9735e-06
-0.000305791
0.000350845
-0.00034938
-1.40197e-05
0.000351802
-1.45106e-05
-0.000348151
-1.08868e-05
-7.7538e-07
-0.000303627
-1.08188e-05
9.18113e-06
0.00035895
0.000354701
-0.000353317
-1.36133e-05
-1.26891e-05
0.000356571
0.000356081
-0.000354545
-9.79664e-06
-8.4579e-06
6.85545e-06
0.000360194
0.000357669
-1.00452e-05
-0.000301895
0.000301883
-2.47555e-06
2.4316e-06
-1.74515e-06
-0.000303869
-0.000301533
2.07022e-06
-3.52445e-06
-0.000301224
-2.53749e-06
-0.000299352
8.25046e-08
-0.000298022
1.16408e-06
-0.000296493
-8.7034e-07
1.89711e-07
-0.000292966
-0.000345177
0.000346852
-6.24318e-06
-0.000343913
-4.46552e-06
-0.000342496
-4.42758e-06
-2.07625e-06
-0.000291246
-0.000304255
-1.45028e-05
-7.20786e-06
0.000341285
-0.000340373
-5.29007e-06
-4.61591e-06
0.000338802
-0.000337974
-6.8731e-06
-6.21087e-06
0.000336695
-0.000335571
-7.28214e-06
-7.12475e-06
0.000334376
-0.000333199
-7.43528e-06
-7.3031e-06
0.00033203
-0.000330867
-7.0294e-06
-7.38227e-06
0.00032979
-0.000328846
-5.27125e-06
-6.53324e-06
0.000327734
-0.00032692
-3.29579e-06
-4.42164e-06
0.000325929
-0.000325202
-5.03027e-06
-3.48404e-06
0.000324307
-0.000323003
-8.52482e-06
-5.89122e-06
0.000321444
-0.000320303
-9.72774e-06
-9.94678e-06
0.000319356
-0.000318568
-7.70741e-06
-9.17338e-06
0.000317537
-0.00031657
-6.28262e-06
-7.04069e-06
0.000315781
-0.000314915
-5.76777e-06
-5.96408e-06
0.000314038
-0.000313189
-5.54222e-06
-5.64739e-06
0.000312349
-0.000311525
-5.34952e-06
-5.45572e-06
0.000310707
-0.00030991
-5.13081e-06
-5.25876e-06
0.000309137
-0.000308371
-4.61282e-06
-4.99084e-06
0.000307685
-0.000306796
-3.26535e-06
-4.20467e-06
0.000306407
-0.000305557
-1.61936e-06
-2.17665e-06
0.000305015
-0.000305608
-3.12637e-06
-1.2776e-06
0.000302868
-0.000303305
-7.33119e-06
-5.42078e-06
0.000302465
-0.000302656
-9.4143e-06
-8.86743e-06
0.000302643
-0.000302765
-8.53117e-06
-8.46935e-06
0.000302335
-0.000301938
-6.47884e-06
-7.85638e-06
-5.07994e-06
-5.27355e-06
3.5473e-06
0.000363788
0.000362193
-1.97253e-06
3.20601e-07
0.000365148
0.00036474
1.55532e-06
-3.53066e-06
0.000364812
0.000365289
5.13848e-06
-7.46294e-06
0.000362879
0.000363831
0.000361021
0.00029054
-0.000289549
-3.06656e-06
-0.000291879
0.000292557
-2.4966e-06
-2.96109e-06
-0.0002934
0.000293955
-2.76657e-06
-2.48752e-06
-0.000294941
0.000296008
-2.76774e-06
-2.32526e-06
-0.000296987
0.000297739
-2.49761e-06
-2.49769e-06
-0.000299066
0.000300175
-3.10936e-06
-2.68261e-06
-0.000301273
0.000302208
-3.60484e-06
-3.47836e-06
-0.000303015
0.000303721
-4.5478e-06
-4.06664e-06
-0.000304471
0.000305206
-5.0198e-06
-4.87051e-06
-0.000305752
0.000306564
-5.24257e-06
-5.05699e-06
-0.000307149
0.000307933
-5.26667e-06
-5.13383e-06
-0.000308582
0.0003092
-5.36881e-06
-5.32636e-06
-0.000310077
0.000310845
-5.47689e-06
-5.48687e-06
-0.000311612
0.000312463
-5.64588e-06
-5.54676e-06
-0.000313319
0.000314159
-5.75309e-06
-5.69237e-06
-0.000315023
0.000315898
-5.93531e-06
-5.8507e-06
-0.000316834
0.000317771
-6.09068e-06
-6.05436e-06
-0.000318774
0.000319705
-6.22245e-06
-6.18993e-06
-0.000320711
0.000321811
-6.42446e-06
-6.26024e-06
-0.000322831
0.000323897
-6.67998e-06
-6.58065e-06
-0.000324952
0.000326039
-6.88308e-06
-6.77904e-06
-0.000326907
0.000328047
-7.26924e-06
-6.99656e-06
-0.000328991
0.000330068
-7.50315e-06
-7.35379e-06
-0.000331009
0.000332163
-7.74457e-06
-7.56767e-06
-0.000333278
0.000334435
-7.88082e-06
-7.76958e-06
-0.00033563
0.000336817
-8.0973e-06
-7.98627e-06
-0.000338041
0.000339253
-8.33696e-06
-8.22956e-06
-0.000340525
0.000341655
-8.63377e-06
-8.51844e-06
-0.000342849
0.000344016
-8.90311e-06
-8.8868e-06
-0.000345399
0.000346811
-9.0044e-06
-9.16974e-06
-0.000348242
0.000349799
-9.11119e-06
-9.20023e-06
-0.000351384
0.000352947
-9.35474e-06
-9.25382e-06
-9.59718e-06
-2.05872e-06
1.82766e-06
-0.000291015
-0.000288521
-3.08642e-06
6.74993e-07
-0.000307028
-2.06694e-06
-0.000304499
0.000348032
-0.000346934
-1.51179e-05
0.000349315
-1.57931e-05
-0.000345858