/*--------------------------------*- C++ -*----------------------------------*\
| =========                 |                                                 |
| \\      /  F ield         | OpenFOAM: The Open Source CFD Toolbox           |
|  \\    /   O peration     | Version:  2212                                  |
|   \\  /    A nd           | Website:  www.openfoam.com                      |
|    \\/     M anipulation  |                                                 |
\*---------------------------------------------------------------------------*/
FoamFile
{
    version     2.0;
    format      ascii;
    arch        "LSB;label=32;scalar=64";
    class       volScalarField;
    location    "6.2e-05";
    object      nut;
}
// * * * * * * * * * * * * * * * * * * * * * * * * * * * * * * * * * * * * * //

dimensions      [0 2 -1 0 0 0 0];

internalField   nonuniform List<scalar> 
17100
(
0.000295562
0.00517395
0.0244247
0.0508598
0.0806019
0.111079
0.139302
0.163855
0.184569
0.20178
0.216062
0.22813
0.23831
0.246899
0.254153
0.260286
0.265477
0.269872
0.273591
0.276732
0.279376
0.281589
0.283424
0.284927
0.286133
0.287073
0.287773
0.288257
0.288548
0.288665
0.28824
0.287708
0.287005
0.286095
0.28495
0.283544
0.281833
0.279757
0.277276
0.274334
0.270865
0.266788
0.262002
0.256389
0.249801
0.241977
0.232667
0.221548
0.208214
0.192162
0.172808
0.149487
0.121251
0.087149
0.0471612
0.0107875
0.000466088
0.000327023
0.000528099
0.00159131
0.00484042
0.0116218
0.0220604
0.0351794
0.0498279
0.0650868
0.0802672
0.0949078
0.108723
0.12154
0.133275
0.143904
0.153443
0.161938
0.169446
0.176035
0.181773
0.186729
0.190964
0.194537
0.197498
0.199892
0.201755
0.203115
0.203989
0.204502
0.204678
0.204153
0.203197
0.2018
0.199939
0.197583
0.194697
0.191238
0.187157
0.1824
0.176908
0.170614
0.163454
0.155359
0.146266
0.136121
0.124889
0.11257
0.099217
0.0849631
0.0700522
0.0548811
0.0400052
0.0260772
0.0141131
0.00561306
0.00148587
0.000439691
0.000258456
0.000401019
0.000905703
0.00224324
0.00491015
0.00917499
0.0151059
0.022558
0.0311854
0.0405964
0.0504195
0.0603356
0.0700869
0.079477
0.0883637
0.0966507
0.104279
0.111223
0.117476
0.123042
0.12794
0.132194
0.135829
0.138875
0.141358
0.143303
0.144732
0.145662
0.146108
0.146228
0.145688
0.144671
0.143171
0.141177
0.138672
0.135636
0.132043
0.12787
0.12309
0.117679
0.111618
0.104896
0.0975131
0.0894911
0.0808757
0.0717473
0.0622296
0.0524995
0.0427941
0.0334136
0.0247122
0.0170535
0.0107076
0.00588027
0.00260836
0.000880455
0.00036766
0.000222237
0.000361111
0.000786847
0.00172622
0.00343897
0.00612677
0.00977874
0.0143009
0.0196264
0.0256067
0.0320547
0.0387802
0.0456041
0.0523692
0.0589445
0.0652263
0.0711366
0.0766207
0.0816422
0.0861802
0.0902256
0.0937778
0.0968424
0.0994284
0.101547
0.103209
0.104426
0.105211
0.105574
0.10564
0.105145
0.104231
0.102896
0.101134
0.0989395
0.0963048
0.0932216
0.0896828
0.0856839
0.0812252
0.076314
0.0709675
0.0652165
0.0591087
0.0527124
0.0461205
0.039452
0.0328528
0.0264917
0.0205516
0.0152144
0.0106322
0.00683838
0.00386159
0.00179939
0.000703553
0.000322861
0.000201623
0.000332292
0.000708842
0.00148723
0.0027988
0.00474522
0.00738579
0.0106326
0.0143667
0.0185089
0.0229859
0.0276852
0.0324965
0.0373165
0.0420535
0.0466299
0.0509826
0.055063
0.0588348
0.0622732
0.065362
0.0680923
0.0704607
0.0724673
0.0741149
0.0754076
0.0763501
0.0769468
0.0772078
0.0772357
0.0768152
0.0760615
0.0749749
0.0735548
0.0718003
0.0697107
0.0672862
0.0645289
0.0614437
0.05804
0.0543331
0.0503457
0.04611
0.0416695
0.03708
0.0324107
0.0277442
0.0231743
0.0188026
0.0147335
0.0110638
0.00783228
0.00510126
0.00297477
0.00146424
0.000599061
0.000289588
0.000187425
0.000307392
0.000641293
0.00130849
0.00239118
0.00392587
0.00592671
0.00840204
0.0112459
0.0143442
0.0176194
0.0210324
0.0245114
0.0279904
0.0314101
0.034719
0.0378742
0.0408411
0.0435932
0.0461106
0.0483797
0.0503913
0.0521403
0.0536243
0.0548429
0.0557973
0.0564889
0.0569196
0.0570936
0.057086
0.0567464
0.0561561
0.0553158
0.0542268
0.0528908
0.0513098
0.0494872
0.0474278
0.0451387
0.04263
0.0399157
0.0370145
0.0339508
0.0307553
0.0274657
0.0241265
0.0207894
0.0175118
0.0143559
0.0113788
0.00861055
0.00616162
0.00411404
0.00246768
0.00124226
0.000523479
0.000261996
0.000175616
0.000284927
0.000581993
0.00116391
0.00208991
0.00336839
0.00497532
0.00688271
0.00907
0.0114647
0.0139591
0.0165017
0.0190669
0.0216117
0.0240987
0.0264954
0.0287749
0.0309154
0.0328998
0.0347151
0.0363518
0.0378033
0.0390657
0.0401365
0.0410149
0.041701
0.0421957
0.0425005
0.0426175
0.0425653
0.0423055
0.0418589
0.041228
0.0404153
0.0394234
0.0382552
0.0369146
0.0354062
0.0337364
0.0319131
0.0299466
0.0278499
0.0256388
0.0233329
0.0209555
0.0185336
0.0160982
0.0136838
0.0113307
0.00905616
0.00694507
0.00507398
0.0034464
0.0020927
0.00106679
0.000461032
0.000238181
0.000164391
0.000263764
0.000527504
0.00103565
0.00183198
0.00291381
0.00424466
0.0057717
0.00745698
0.0092789
0.0111903
0.0131106
0.0150233
0.0169015
0.018722
0.0204655
0.0221156
0.0236597
0.0250878
0.0263921
0.0275668
0.0286079
0.0295126
0.0302791
0.0309066
0.0313948
0.0317439
0.0319544
0.0320338
0.031985
0.0317838
0.0314478
0.0309785
0.0303779
0.0296482
0.028792
0.0278125
0.0267136
0.0254997
0.0241765
0.0227508
0.0212308
0.0196264
0.0179494
0.016214
0.0144362
0.0126351
0.0108324
0.00904627
0.0073112
0.00569361
0.0042144
0.0028909
0.00177199
0.000915483
0.000406891
0.000216815
0.000153182
0.000243126
0.00047488
0.00091156
0.00158347
0.0024835
0.0035751
0.00480884
0.00613876
0.0075327
0.00897898
0.0104351
0.0118635
0.0132544
0.0145931
0.015868
0.0170696
0.0181906
0.019225
0.0201683
0.0210172
0.0217692
0.0224223
0.0229754
0.0234276
0.0237786
0.0240283
0.0241767
0.024235
0.0241955
0.024043
0.0237923
0.0234445
0.0230013
0.0224643
0.0218356
0.0211177
0.0203132
0.0194256
0.0184585
0.0174166
0.0163049
0.0151295
0.0138975
0.012617
0.0112977
0.00995074
0.00858959
0.00722614
0.00590584
0.00464546
0.00346632
0.00239821
0.00148651
0.000782717
0.000359541
0.00019715
0.000142011
0.000223162
0.000424412
0.0007925
0.00134754
0.00208081
0.00295985
0.00394162
0.00498713
0.00606532
0.00715661
0.008258
0.00933184
0.01037
0.0113638
0.0123063
0.0131922
0.0140172
0.0147779
0.0154715
0.0160959
0.0166495
0.0171308
0.017539
0.0178732
0.018133
0.0183182
0.0184291
0.0184761
0.018447
0.0183342
0.0181487
0.0178914
0.0175633
0.0171659
0.0167006
0.0161694
0.0155742
0.0149175
0.0142017
0.01343
0.0126056
0.0117324
0.0108147
0.00985737
0.00886639
0.00784882
0.00681361
0.00577214
0.00475125
0.00376133
0.00282711
0.00197379
0.00124014
0.000668467
0.000318408
0.000179055
0.000131299
0.000204651
0.00037811
0.000684103
0.00113459
0.00172108
0.00241741
0.00318889
0.00400434
0.00483968
0.00567718
0.00650862
0.00732138
0.00810462
0.00885274
0.00956143
0.0102273
0.0108477
0.0114203
0.0119435
0.0124155
0.012835
0.013201
0.0135125
0.0137687
0.0139692
0.0141132
0.0142055
0.0142463
0.0142265
0.0141453
0.0140092
0.0138187
0.0135745
0.0132778
0.0129295
0.0125312
0.0120843
0.0115905
0.0110518
0.0104702
0.00984804
0.00918773
0.00849209
0.00776431
0.00700809
0.00622806
0.00542834
0.00462629
0.00382842
0.00304846
0.00230777
0.00162725
0.00103837
0.000574383
0.000283715
0.000162734
0.000121592
0.000188634
0.000338751
0.000592881
0.000956721
0.00142267
0.00197083
0.00257464
0.00321011
0.00385867
0.00450668
0.00514414
0.00576964
0.0063714
0.00694627
0.00749139
0.00800457
0.00848391
0.00892776
0.0093347
0.00970338
0.0100326
0.0103211
0.0105679
0.0107724
0.0109357
0.0110574
0.0111379
0.0111688
0.0111584
0.0111027
0.0110041
0.010863
0.0106799
0.0104557
0.0101912
0.00988749
0.00954584
0.00916751
0.00875388
0.00830645
0.00782684
0.0073168
0.00677826
0.00621339
0.00562471
0.00501531
0.00439013
0.00375746
0.0031236
0.00250126
0.00190753
0.00135929
0.000881651
0.000500453
0.000255515
0.000148361
0.000113246
0.000175683
0.000307752
0.000522198
0.000820092
0.00119458
0.0016307
0.00210845
0.00260975
0.0031206
0.00363075
0.00413304
0.0046223
0.00509465
0.00554626
0.00597607
0.0063826
0.00676488
0.0071198
0.00744687
0.00774465
0.0080121
0.00824836
0.00845276
0.00862426
0.00876137
0.00886138
0.00892762
0.00895952
0.0089571
0.00892014
0.0088488
0.00874337
0.00860424
0.00843187
0.00822695
0.00799042
0.00772348
0.00742694
0.0071018
0.00674917
0.00637023
0.00596625
0.00553862
0.00508889
0.00461893
0.00413108
0.00362941
0.00311792
0.00260343
0.00209627
0.0016104
0.00115957
0.000764069
0.000444091
0.000233789
0.000135775
0.000106314
0.000166077
0.000285726
0.000472461
0.000723309
0.00103248
0.00138852
0.00177615
0.00218155
0.00259384
0.0030053
0.00341069
0.00380627
0.0041886
0.00455536
0.00490586
0.00523768
0.00554973
0.00584082
0.00610979
0.00635559
0.00657721
0.00677377
0.00694444
0.00708844
0.00720506
0.00729373
0.00735432
0.00738672
0.0073909
0.00736685
0.00731463
0.00723448
0.00712679
0.00699105
0.00682758
0.00663687
0.00642346
0.00618502
0.00592249
0.00563681
0.00532894
0.00499981
0.00465043
0.00428199
0.0038959
0.00349404
0.00307878
0.00265382
0.00222483
0.0018004
0.00139216
0.00101155
0.000675251
0.000399849
0.000214667
0.000125172
0.000100488
0.000159946
0.000271282
0.00043904
0.000657585
0.000921384
0.00122203
0.00154725
0.00188609
0.00222852
0.00257166
0.00290977
0.00323962
0.00355892
0.00386596
0.00415828
0.00443552
0.00469768
0.00494264
0.00516941
0.00537718
0.00556511
0.00573237
0.00587823
0.00600206
0.00610329
0.00618149
0.00623634
0.00626763
0.00627528
0.0062592
0.00621936
0.00615588
0.00606891
0.00595867
0.00582554
0.00567005
0.00549298
0.00529478
0.00507598
0.00483714
0.00457958
0.00430336
0.0040093
0.00369829
0.00337141
0.00303007
0.00267668
0.00231374
0.00194625
0.0015816
0.00122974
0.000900396
0.000607629
0.000365289
0.000198835
0.000115955
9.59763e-05
0.00015386
0.000259737
0.000413896
0.000610861
0.000844636
0.00110692
0.00138879
0.00168108
0.00197702
0.00227195
0.00256226
0.00284538
0.00311943
0.00338296
0.00363478
0.00387399
0.00409859
0.00430865
0.00450345
0.00468267
0.00484529
0.00499021
0.00511689
0.00522481
0.00531351
0.0053826
0.00543176
0.00546078
0.00546952
0.00545788
0.0054258
0.00537333
0.0053006
0.00520782
0.00509526
0.00496327
0.00481243
0.00464307
0.00445571
0.00425088
0.00402851
0.00378973
0.00353508
0.00326519
0.00298088
0.00268328
0.00237402
0.00205759
0.00173497
0.00141444
0.0011046
0.000813869
0.000554285
0.000337561
0.000185994
0.000107812
9.206e-05
0.000149672
0.00025113
0.000395027
0.000575711
0.000787909
0.00102437
0.00127562
0.00153494
0.00179717
0.00205791
0.00231408
0.00256353
0.0028047
0.00303639
0.00325761
0.00346749
0.00366526
0.00385032
0.00402193
0.00417899
0.00432107
0.00444799
0.00455915
0.00465402
0.00473216
0.00479319
0.00483684
0.00486288
0.00487117
0.00486159
0.00483409
0.00478869
0.00472548
0.00464461
0.00454632
0.00443089
0.00429851
0.00414964
0.00398464
0.00380386
0.00360769
0.00339657
0.00317099
0.0029315
0.00267883
0.00241402
0.00213865
0.00185528
0.00156755
0.00128107
0.00100383
0.000743345
0.000510175
0.000314146
0.000174797
0.0001006
8.87387e-05
0.000146494
0.000244437
0.000380173
0.000547908
0.000743214
0.000959989
0.00118979
0.00142432
0.00166197
0.00189745
0.00212824
0.00235253
0.002569
0.00277663
0.00297458
0.00316215
0.00333869
0.00350359
0.00365626
0.00379613
0.00392273
0.0040356
0.00413431
0.00421844
0.00428763
0.00434158
0.00438001
0.00440277
0.00440971
0.00440073
0.00437577
0.00433485
0.00427803
0.00420542
0.00411719
0.00401354
0.00389472
0.003761
0.00361266
0.00345003
0.00327341
0.00308317
0.0028797
0.00266347
0.00243511
0.00219554
0.00194615
0.00168918
0.00142998
0.00117026
0.000919113
0.000683232
0.00047188
0.000293248
0.000164639
9.41578e-05
8.58798e-05
0.000143739
0.00023878
0.000367745
0.000524815
0.000706256
0.000906812
0.00111894
0.00133591
0.00155399
0.00176972
0.00198075
0.00218543
0.00238259
0.00257133
0.00275095
0.00292084
0.00308045
0.00322927
0.00336684
0.0034927
0.00360642
0.00370761
0.0037959
0.00387094
0.00393244
0.00398013
0.00401381
0.00403331
0.00403852
0.00402936
0.00400576
0.00396775
0.00391536
0.00384868
0.00376787
0.00367307
0.0035645
0.00344236
0.0033069
0.00315838
0.00299706
0.00282325
0.00263729
0.00243963
0.00223084
0.00201178
0.00178378
0.00154884
0.00131151
0.00107444
0.000845394
0.000630385
0.000437625
0.000274216
0.000155286
8.83732e-05
8.33818e-05
0.00014114
0.000233604
0.000356649
0.000504534
0.000674152
0.000860997
0.00105835
0.00126017
0.00146243
0.00166208
0.001857
0.00204568
0.00222707
0.00240038
0.00256497
0.00272032
0.00286599
0.00300153
0.00312656
0.0032407
0.00334359
0.0034349
0.00351432
0.00358157
0.0036364
0.0036786
0.00370798
0.00372441
0.0037278
0.00371808
0.0036952
0.00365917
0.00361003
0.00354787
0.0034728
0.00338495
0.0032845
0.00317163
0.00304655
0.00290946
0.00276062
0.00260028
0.00242876
0.00224648
0.00205399
0.00185214
0.0016422
0.00142618
0.0012072
0.000989739
0.000779839
0.000583033
0.000406617
0.000256743
0.000146608
8.31603e-05
8.11823e-05
0.000138666
0.000228626
0.000346223
0.000485858
0.000644992
0.000819773
0.00100416
0.0011927
0.00138131
0.00156719
0.00174836
0.00192343
0.00209141
0.00225159
0.00240342
0.00254642
0.00268022
0.00280445
0.00291878
0.0030229
0.00311651
0.00319932
0.00327109
0.00333159
0.00338059
0.00341794
0.00344349
0.00345712
0.0034588
0.00344841
0.00342592
0.00339137
0.00334479
0.00328626
0.00321588
0.00313377
0.00304007
0.00293495
0.00281857
0.00269114
0.00255286
0.00240398
0.0022448
0.0020757
0.00189724
0.00171022
0.0015159
0.00131618
0.00111399
0.000913605
0.000720595
0.000539988
0.000378209
0.000240558
0.00013852
7.84472e-05
7.92287e-05
0.000136247
0.000223654
0.000336062
0.000468058
0.000617619
0.000781467
0.000954133
0.00113063
0.00130709
0.00148078
0.0016498
0.00181287
0.00196908
0.00211775
0.0022584
0.00239062
0.00251407
0.00262844
0.00273344
0.00282881
0.00291432
0.00298972
0.0030548
0.00310937
0.00315327
0.00318633
0.00320843
0.00321947
0.00322
0.00320884
0.00318659
0.00315324
0.00310881
0.00305338
0.00298702
0.00290985
0.00282199
0.00272359
0.00261479
0.00249578
0.00236674
0.00222791
0.00207957
0.00192209
0.00175601
0.00158214
0.00140168
0.00121649
0.00102934
0.000844273
0.000666451
0.000500455
0.000351964
0.000225479
0.000131003
7.4191e-05
7.74881e-05
0.000133827
0.000218585
0.000325947
0.000450728
0.000591377
0.000745134
0.000907035
0.0010725
0.00123782
0.00140037
0.00155838
0.00171062
0.00185623
0.0019946
0.00212527
0.00224787
0.00236211
0.00246771
0.00256444
0.00265208
0.00273042
0.00279928
0.00285846
0.00290783
0.00294725
0.00297659
0.00299577
0.00300474
0.00300346
0.00299184
0.00296993
0.00293771
0.00289524
0.00284259
0.00277983
0.00270707
0.00262443
0.00253202
0.00242999
0.00231851
0.00219774
0.00206791
0.0019293
0.00178226
0.00162734
0.00146532
0.00129738
0.00112532
0.000951803
0.000780649
0.000616636
0.000463937
0.000327599
0.000211353
0.000123901
7.03553e-05
7.59278e-05
0.000131375
0.000213376
0.000315778
0.000433661
0.000565906
0.000710223
0.000862107
0.00101733
0.00117227
0.00132452
0.00147239
0.00161469
0.00175064
0.00187963
0.00200125
0.00211516
0.0022211
0.00231882
0.00240814
0.00248885
0.0025608
0.00262382
0.00267776
0.00272251
0.00275796
0.00278401
0.0028006
0.00280767
0.00280518
0.00279313
0.00277153
0.00274039
0.00269975
0.00264966
0.00259021
0.00252148
0.00244359
0.00235665
0.00226078
0.00215614
0.0020429
0.00192126
0.0017915
0.00165398
0.00150921
0.00135799
0.00120148
0.00104142
0.000880378
0.000721954
0.000570588
0.00043007
0.000304879
0.000198079
0.000117259
6.71124e-05
7.45172e-05
0.000128878
0.00020801
0.000305512
0.000416751
0.000541003
0.000676402
0.000818854
0.000964438
0.00110969
0.00125235
0.00139081
0.00152395
0.00165099
0.00177138
0.00188472
0.00199071
0.0020891
0.00217968
0.00226229
0.00233676
0.00240295
0.00246073
0.00251
0.00255064
0.00258256
0.00260571
0.00262003
0.00262547
0.00262201
0.00260966
0.00258843
0.00255835
0.00251945
0.00247178
0.00241541
0.00235044
0.00227694
0.00219504
0.00210485
0.00200651
0.00190019
0.00178607
0.00166444
0.00153565
0.00140022
0.00125892
0.00111291
0.000963891
0.000814314
0.000667592
0.000527839
0.000398487
0.0002835
0.000185405
0.000110886
6.43934e-05
7.32498e-05
0.00012632
0.00020247
0.000295135
0.000399965
0.000516588
0.000643525
0.000777052
0.000913532
0.0010497
0.0011834
0.0013131
0.00143772
0.00155653
0.00166899
0.00177472
0.00187344
0.00196492
0.002049
0.0021255
0.00219431
0.0022553
0.00230837
0.00235343
0.00239039
0.0024192
0.00243979
0.00245212
0.00245616
0.00245193
0.00243941
0.00241862
0.00238959
0.00235237
0.002307
0.00225355
0.00219209
0.0021227
0.00204549
0.00196057
0.00186807
0.00176815
0.00166099
0.00154687
0.00142614
0.00129932
0.00116719
0.00103088
0.000892051
0.00075306
0.000617126
0.000488058
0.000368958
0.000263335
0.000173296
0.000104782
6.19218e-05
7.20974e-05
0.00012363
0.000196702
0.000284623
0.000383297
0.000492666
0.00061158
0.000736664
0.000864541
0.000992149
0.00111745
0.00123896
0.00135567
0.00146683
0.00157195
0.00167065
0.00176268
0.00184783
0.00192594
0.00199687
0.00206052
0.0021168
0.0021656
0.00220687
0.00224055
0.00226658
0.00228494
0.00229561
0.00229829
0.00229349
0.00228093
0.00226066
0.0022327
0.00219711
0.00215393
0.00210322
0.00204507
0.00197954
0.00190672
0.00182672
0.00173966
0.00164569
0.00154499
0.00143784
0.00132458
0.00120576
0.00108212
0.000954803
0.000825414
0.000696225
0.000570266
0.000451059
0.000341407
0.000244394
0.000161833
9.89925e-05
5.96083e-05
7.10162e-05
0.000120844
0.000190772
0.000274059
0.000366847
0.000469339
0.000580677
0.0006978
0.000817534
0.000937067
0.00105446
0.00116831
0.00127761
0.00138165
0.00147995
0.00157215
0.00165799
0.00173731
0.00180994
0.00187577
0.00193472
0.00198669
0.00203163
0.00206947
0.00210018
0.00212371
0.00214004
0.00214916
0.00215113
0.0021458
0.00213325
0.0021135
0.0020866
0.00205259
0.0020115
0.00196341
0.00190836
0.00184645
0.00177774
0.00170233
0.00162035
0.00153193
0.00143726
0.00133659
0.0012303
0.00111891
0.00100317
0.000884214
0.000763601
0.000643513
0.000526799
0.000416715
0.00031579
0.000226704
0.000151073
9.35342e-05
5.74032e-05
7.00259e-05
0.000118049
0.000184814
0.000263591
0.000350764
0.000446753
0.00055096
0.000660641
0.000772629
0.000884517
0.000994461
0.0011011
0.00120346
0.00130085
0.00139279
0.00147895
0.00155907
0.001633
0.00170059
0.00176174
0.00181638
0.00186443
0.00190585
0.00194059
0.00196862
0.00198989
0.0020044
0.0020121
0.00201374
0.00200794
0.00199544
0.00197625
0.0019504
0.00191791
0.00187884
0.00183322
0.00178113
0.00172262
0.00165777
0.00158668
0.00150944
0.00142621
0.00133716
0.00124255
0.00114276
0.0010383
0.000929942
0.000818778
0.000706344
0.000594728
0.000486582
0.000384919
0.000292029
0.000210268
0.000141042
8.84169e-05
5.52992e-05
6.91114e-05
0.00011528
0.000178909
0.000253327
0.00033515
0.000424983
0.000522434
0.000625009
0.000729755
0.000834467
0.000937408
0.00103728
0.00113313
0.0012243
0.00131031
0.00139085
0.00146567
0.0015346
0.00159754
0.00165439
0.00170508
0.00174956
0.00178779
0.00181973
0.00184536
0.00186467
0.00187765
0.00188428
0.00188494
0.00187893
0.00186664
0.00184809
0.0018233
0.00179232
0.00175518
0.00171194
0.00166264
0.00160735
0.00154614
0.00147909
0.00140631
0.00132794
0.00124415
0.00115522
0.0010615
0.000963524
0.000862045
0.000758134
0.000653271
0.000549754
0.00044948
0.000355576
0.000270081
0.000195073
0.000131742
8.36384e-05
5.32979e-05
6.8255e-05
0.000112546
0.000173103
0.000243334
0.000320081
0.000404105
0.0004952
0.000591119
0.000688861
0.000786867
0.000883249
0.000976771
0.00106653
0.00115188
0.00123236
0.00130766
0.00137754
0.00144186
0.00150051
0.00155339
0.00160046
0.00164166
0.00167698
0.00170639
0.00172987
0.00174741
0.00175903
0.00176472
0.00176451
0.00175837
0.00174634
0.00172844
0.00170471
0.00167518
0.0016399
0.00159891
0.00155226
0.00150001
0.00144222
0.00137898
0.00131038
0.00123657
0.00115772
0.0010741
0.000986072
0.00089416
0.000799113
0.000701977
0.00060418
0.000508279
0.0004153
0.000328549
0.000249856
0.000181051
0.00012313
7.91774e-05
5.13868e-05
6.74493e-05
0.00010986
0.000167432
0.000233666
0.000305618
0.000384179
0.000469302
0.000558953
0.000650035
0.000741724
0.00083194
0.000919507
0.00100356
0.00108346
0.00115877
0.00122919
0.00129449
0.00135452
0.00140919
0.00145841
0.00150215
0.00154036
0.00157301
0.00160011
0.00162163
0.00163758
0.00164796
0.00165277
0.00165204
0.00164578
0.00163401
0.00161676
0.00159405
0.00156593
0.00153242
0.00149357
0.00144942
0.00140003
0.00134547
0.00128581
0.00122114
0.00115161
0.0010774
0.000998768
0.00091608
0.000829862
0.000740855
0.000650084
0.000558936
0.000469933
0.0003838
0.000303685
0.000231263
0.000168155
0.000115188
7.50438e-05
4.95649e-05
6.66839e-05
0.000107247
0.000161942
0.000224376
0.000291805
0.000365237
0.000444769
0.000528487
0.000613313
0.000699055
0.000783464
0.000865427
0.000944109
0.0010189
0.00108938
0.00115524
0.00121627
0.00127233
0.00132331
0.00136916
0.00140982
0.00144528
0.00147551
0.0015005
0.00152026
0.00153478
0.00154409
0.001548
0.00154689
0.00154059
0.00152912
0.00151252
0.00149081
0.00146403
0.0014322
0.00139538
0.0013536
0.00130692
0.00125539
0.00119909
0.00113813
0.00107262
0.00100277
0.000928826
0.000851165
0.000770314
0.000687013
0.000602278
0.000517466
0.000434327
0.000354694
0.000280781
0.000214158
0.000156279
0.000107836
7.11545e-05
4.78293e-05
6.59301e-05
0.000104693
0.000156628
0.000215456
0.000278626
0.00034723
0.000421479
0.000499484
0.000578873
0.000658916
0.000737806
0.000814467
0.00088809
0.000958086
0.00102403
0.00108563
0.00114268
0.00119503
0.0012426
0.00128532
0.00132316
0.00135608
0.00138408
0.00140716
0.00142531
0.00143856
0.00144692
0.00145004
0.00144862
0.00144233
0.00143119
0.00141523
0.00139449
0.00136899
0.00133877
0.00130386
0.00126432
0.00122019
0.00117152
0.00111839
0.0010609
0.000999181
0.000933425
0.000863894
0.000790961
0.000715151
0.000637187
0.000558048
0.000479012
0.00040168
0.000327923
0.000259707
0.00019842
0.000145341
0.000101031
6.75136e-05
4.61896e-05
6.51896e-05
0.0001022
0.000151495
0.000206907
0.000266054
0.000330095
0.000399318
0.000472014
0.000546446
0.000621154
0.000694845
0.000766505
0.000835363
0.000900846
0.00096254
0.00102015
0.00107349
0.0011224
0.00116679
0.00120662
0.00124184
0.00127243
0.00129838
0.00131969
0.00133637
0.00134842
0.00135584
0.00135865
0.00135691
0.00135061
0.00133978
0.00132445
0.00130463
0.00128035
0.00125165
0.00121856
0.00118113
0.0011394
0.00109342
0.00104327
0.000989048
0.000930892
0.000868988
0.000803602
0.000735107
0.00066402
0.000591047
0.000517132
0.000443494
0.000371633
0.000303317
0.000240348
0.00018397
0.000135305
9.47588e-05
6.41216e-05
4.46563e-05
6.44839e-05
9.97773e-05
0.000146553
0.000198743
0.00025413
0.000313895
0.00037844
0.000446249
0.000515738
0.000585498
0.000654348
0.000721339
0.000785738
0.000846996
0.000904713
0.000958603
0.00100847
0.00105417
0.00109563
0.00113277
0.00116557
0.00119401
0.00121808
0.00123778
0.00125312
0.00126411
0.00127078
0.00127313
0.00127118
0.00126494
0.00125445
0.00123972
0.00122079
0.00119768
0.00117042
0.00113905
0.0011036
0.00106413
0.00102068
0.000973337
0.000922191
0.000867381
0.000809096
0.000747603
0.00068327
0.000616607
0.000548303
0.000479267
0.000410737
0.000343962
0.000280688
0.00022256
0.00017069
0.000126057
8.89713e-05
6.0968e-05
4.32273e-05
6.38474e-05
9.74299e-05
0.000141795
0.00019095
0.000242809
0.00029859
0.000358767
0.000421995
0.000486832
0.000551893
0.000616207
0.000678825
0.00073905
0.000796356
0.000850356
0.00090077
0.000947406
0.000990127
0.00102885
0.00106351
0.00109407
0.00112053
0.00114286
0.00116109
0.0011752
0.00118523
0.00119118
0.00119326
0.00119112
0.00118495
0.00117478
0.00116064
0.00114256
0.00112055
0.00109466
0.00106491
0.00103134
0.000993994
0.000952929
0.000908218
0.000859961
0.000808295
0.000753409
0.000695567
0.000635135
0.00057261
0.000508655
0.000444136
0.000380586
0.000318492
0.000259866
0.000206192
0.000158456
0.000117508
8.35837e-05
5.80177e-05
4.1875e-05
6.33272e-05
9.51734e-05
0.000137219
0.000183508
0.000232068
0.000284172
0.000340246
0.000399193
0.000459697
0.00052018
0.000580269
0.000638807
0.000695135
0.000748751
0.00079928
0.000846454
0.00089008
0.000930028
0.000966209
0.000998567
0.00102707
0.00105169
0.00107244
0.0010893
0.0011023
0.00111143
0.00111671
0.00111864
0.00111632
0.00111023
0.00110038
0.00108681
0.00106954
0.00104859
0.00102398
0.000995762
0.000963958
0.000928615
0.00088979
0.000847557
0.000802015
0.000753302
0.00070161
0.0006472
0.000590433
0.000531795
0.000471931
0.000411667
0.000352682
0.000294983
0.000240677
0.000191116
0.000147183
0.000109612
7.858e-05
5.52477e-05
4.05506e-05
6.29493e-05
9.30173e-05
0.000132814
0.000176378
0.000221827
0.000270454
0.000322728
0.000377686
0.000434129
0.00049033
0.000546455
0.000601173
0.000653854
0.000704018
0.000751306
0.000795455
0.000836278
0.000873646
0.000907471
0.000937698
0.000964291
0.000987234
0.00100652
0.00102215
0.00103412
0.00104246
0.00104704
0.00104885
0.00104639
0.00104039
0.00103087
0.00101785
0.00100135
0.000981401
0.00095802
0.000931242
0.000901101
0.000867643
0.000830924
0.000791019
0.000748029
0.000702095
0.000653408
0.000602232
0.000548926
0.000493973
0.000438012
0.000381873
0.000326622
0.000273177
0.000222938
0.000177201
0.000136776
0.000102309
7.39345e-05
5.26716e-05
3.91772e-05
6.2683e-05
9.09531e-05
0.000128562
0.000169533
0.000212048
0.000257409
0.000306131
0.000357356
0.000410001
0.000462235
0.00051467
0.000565808
0.000615071
0.000662001
0.000706255
0.000747577
0.000785785
0.000820751
0.000852387
0.000880638
0.00090547
0.000926863
0.000944812
0.000959316
0.000970378
0.000977999
0.00098189
0.000983572
0.000980974
0.000975082
0.00096589
0.00095341
0.000937658
0.000918657
0.000896432
0.000871014
0.000842438
0.000810751
0.000776009
0.000738291
0.0006977
0.000654377
0.000608518
0.000560387
0.000510338
0.000458845
0.000406518
0.000354127
0.000302606
0.000253011
0.000206541
0.000164356
0.00012716
9.55407e-05
6.95838e-05
5.01504e-05
3.79013e-05
6.24393e-05
8.89721e-05
0.000124462
0.00016296
0.000202705
0.000244989
0.000290364
0.000338041
0.000386992
0.000436067
0.000484905
0.000532623
0.000578649
0.000622534
0.000663939
0.000702615
0.00073838
0.000771106
0.000800707
0.000827125
0.000850326
0.000870292
0.000887018
0.000900509
0.000910778
0.000917852
0.000921359
0.000922119
0.000919626
0.000913946
0.000905119
0.000893176
0.000878142
0.000860043
0.000838907
0.000814767
0.00078766
0.000757632
0.000724743
0.000689074
0.000650731
0.000609858
0.000566651
0.000521373
0.000474374
0.000426112
0.000377177
0.000328337
0.000280373
0.000234352
0.000191372
0.000152476
0.000118263
8.92641e-05
6.55265e-05
4.7793e-05
3.66418e-05
6.20918e-05
8.70259e-05
0.000120474
0.000156628
0.000193798
0.000233176
0.000275411
0.000319795
0.000365398
0.000411367
0.000456789
0.000501351
0.000544363
0.000585402
0.000624146
0.00066035
0.000693835
0.000724475
0.000752182
0.000776898
0.000798587
0.000817228
0.000832813
0.000845341
0.000854818
0.000861248
0.000864582
0.000864992
0.000862412
0.000856855
0.00084834
0.000836889
0.000822523
0.000805268
0.000785152
0.000762207
0.000736471
0.000707994
0.000676837
0.000643082
0.00060684
0.000568256
0.000527527
0.000484915
0.000440761
0.000395505
0.000349703
0.000304395
0.000259726
0.000217031
0.000177293
0.000141442
0.00010999
8.34075e-05
6.17231e-05
4.5598e-05
3.5608e-05
6.15437e-05
8.51036e-05
0.000116614
0.000150539
0.000185266
0.000221924
0.000261232
0.000302558
0.000345067
0.000387984
0.000430142
0.000471781
0.000511998
0.000550394
0.000586662
0.000620565
0.000651931
0.000680634
0.000706585
0.000729725
0.000750017
0.000767437
0.000781975
0.000793628
0.000802397
0.00080827
0.000811304
0.000811505
0.000808885
0.000803458
0.00079524
0.00078425
0.00077051
0.000754044
0.000734878
0.000713046
0.000688588
0.000661553
0.000632008
0.000600036
0.000565751
0.000529303
0.00049089
0.000450773
0.00040929
0.000366872
0.000324058
0.000281921
0.000240417
0.000200868
0.000164179
0.000131185
0.000102315
7.79901e-05
5.82354e-05
4.36656e-05
3.49271e-05
6.08202e-05
8.31376e-05
0.000112805
0.000144602
0.000177002
0.000211116
0.000247684
0.000286147
0.000325747
0.000365782
0.000404903
0.000443821
0.000481425
0.000517352
0.000551311
0.000583074
0.000612472
0.00063938
0.000663709
0.000685397
0.000704405
0.000720708
0.000734295
0.000745162
0.000753311
0.000758601
0.000761334
0.000761378
0.000758748
0.000753458
0.000745527
0.000734973
0.000721818
0.000706085
0.000687802
0.000667004
0.00064373
0.000618034
0.000589984
0.000559668
0.000527204
0.000492746
0.000456497
0.000418722
0.000379763
0.000340052
0.000300126
0.00026062
0.000222188
0.000185653
0.000151864
0.000121558
9.51229e-05
7.2938e-05
5.50335e-05
4.20004e-05
3.45938e-05
6.00416e-05
8.11298e-05
0.000109014
0.000138771
0.000168967
0.000200692
0.000234671
0.00027041
0.000307209
0.000344391
0.000381344
0.000417405
0.000452525
0.000486131
0.000517935
0.00054771
0.000575285
0.000600535
0.000623368
0.00064372
0.00066155
0.00067683
0.000689546
0.000699694
0.000707273
0.000712033
0.000714488
0.000714393
0.000711759
0.000706602
0.000698939
0.000688789
0.000676175
0.000661119
0.000643652
0.000623807
0.000601628
0.000577169
0.000550502
0.000521718
0.00049094
0.000458328
0.000424087
0.000388484
0.000351856
0.000314622
0.000277412
0.000240583
0.000204952
0.000171249
0.000140231
0.000112428
8.82853e-05
6.81305e-05
5.20186e-05
4.05323e-05
3.44922e-05
5.95593e-05
7.91365e-05
0.000105312
0.000133125
0.000161218
0.000190694
0.000222174
0.000255334
0.00028954
0.000324187
0.000358748
0.000392187
0.000425067
0.000456547
0.000486368
0.000514311
0.000540209
0.000563934
0.000585392
0.000604518
0.000621265
0.000635603
0.000647516
0.000656998
0.000664049
0.000668343
0.000670555
0.000670334
0.000667694
0.000662653
0.000655231
0.000645447
0.000633325
0.000618888
0.000602168
0.000583198
0.000562025
0.000538705
0.000513312
0.000485943
0.000456724
0.000425818
0.000393436
0.000359843
0.000325376
0.000290444
0.000255794
0.000221503
0.000188486
0.00015742
0.000128895
0.00010346
8.15122e-05
6.34074e-05
4.91284e-05
3.91671e-05
3.43619e-05
5.97095e-05
7.7295e-05
0.000101455
0.000127356
0.000153458
0.000180807
0.000209998
0.000240746
0.000272517