/*--------------------------------*- C++ -*----------------------------------*\
| =========                 |                                                 |
| \\      /  F ield         | OpenFOAM: The Open Source CFD Toolbox           |
|  \\    /   O peration     | Version:  2212                                  |
|   \\  /    A nd           | Website:  www.openfoam.com                      |
|    \\/     M anipulation  |                                                 |
\*---------------------------------------------------------------------------*/
FoamFile
{
    version     2.0;
    format      ascii;
    arch        "LSB;label=32;scalar=64";
    class       volScalarField;
    location    "0.0674";
    object      s;
}
// * * * * * * * * * * * * * * * * * * * * * * * * * * * * * * * * * * * * * //

dimensions      [0 0 0 0 0 0 0];

internalField   nonuniform List<scalar> 
24240
(
5.56725e-133
5.67018e-133
5.79978e-133
5.51761e-133
5.72125e-133
5.72309e-133
5.70988e-133
5.58488e-133
5.49093e-133
5.84706e-133
5.47294e-133
5.83133e-133
5.49139e-133
5.74703e-133
5.42182e-133
5.75674e-133
5.34236e-133
5.59597e-133
5.71353e-133
5.29464e-133
9.66962e-130
9.83901e-130
1.00683e-129
9.57325e-130
9.93121e-130
9.92847e-130
9.90523e-130
9.68628e-130
9.53104e-130
1.01423e-129
9.49939e-130
1.01189e-129
9.52938e-130
9.97105e-130
9.41185e-130
9.9918e-130
9.27361e-130
9.70929e-130
9.91313e-130
9.18826e-130
1.01068e-126
1.02735e-126
1.05172e-126
9.9945e-127
1.03733e-126
1.03634e-126
1.0339e-126
1.01084e-126
9.95491e-127
1.05849e-126
9.92134e-127
1.0565e-126
9.95011e-127
1.04087e-126
9.83052e-127
1.04348e-126
9.68708e-127
1.01361e-126
1.03486e-126
9.59529e-127
6.06714e-124
6.16086e-124
6.3093e-124
5.99243e-124
6.22271e-124
6.21225e-124
6.19762e-124
6.05823e-124
5.97163e-124
6.34388e-124
5.95123e-124
6.33494e-124
5.96679e-124
6.23997e-124
5.89686e-124
6.25852e-124
5.81217e-124
6.07717e-124
6.20431e-124
5.75553e-124
2.7686e-121
2.80829e-121
2.87679e-121
2.73079e-121
2.83727e-121
2.83008e-121
2.82352e-121
2.75959e-121
2.72282e-121
2.88942e-121
2.71338e-121
2.88689e-121
2.71951e-121
2.84294e-121
2.68834e-121
2.8529e-121
2.65102e-121
2.76923e-121
2.82694e-121
2.6245e-121
8.8228e-119
8.93901e-119
9.15869e-119
8.6893e-119
9.03327e-119
9.00149e-119
8.98152e-119
8.77725e-119
8.66984e-119
9.18799e-119
8.63928e-119
9.18574e-119
8.65506e-119
9.04344e-119
8.55767e-119
9.08064e-119
8.44592e-119
8.81111e-119
8.99353e-119
8.35932e-119
2.01831e-116
2.04238e-116
2.09244e-116
1.98426e-116
2.06409e-116
2.05426e-116
2.05012e-116
2.00351e-116
1.98161e-116
2.09617e-116
1.97444e-116
2.0973e-116
1.97686e-116
2.06412e-116
1.9548e-116
2.07416e-116
1.93231e-116
2.0119e-116
2.05306e-116
1.91219e-116
3.01066e-114
3.04241e-114
3.11792e-114
2.95426e-114
3.07559e-114
3.05777e-114
3.05141e-114
2.98159e-114
2.95273e-114
3.11906e-114
2.94196e-114
3.12244e-114
2.94377e-114
3.07299e-114
2.91159e-114
3.08959e-114
2.88312e-114
2.99544e-114
3.05662e-114
2.85309e-114
2.00718e-112
2.02852e-112
2.05429e-112
1.96094e-112
2.03677e-112
2.0089e-112
2.01833e-112
1.98085e-112
1.97607e-112
2.04589e-112
1.96534e-112
2.06153e-112
1.9569e-112
2.022e-112
1.92608e-112
2.04276e-112
1.94647e-112
1.98646e-112
2.01587e-112
1.9312e-112
2.29086e-112
2.31588e-112
2.29198e-112
2.21765e-112
2.29437e-112
2.22652e-112
2.26364e-112
2.24304e-112
2.27247e-112
2.26484e-112
2.25118e-112
2.31123e-112
2.22061e-112
2.24556e-112
2.1652e-112
2.29379e-112
2.28248e-112
2.24253e-112
2.25228e-112
2.27525e-112
3.16977e-112
3.25371e-112
3.21345e-112
3.24375e-112
3.17924e-112
3.23183e-112
3.28082e-112
3.23477e-112
3.28603e-112
3.3666e-112
3.25694e-112
3.34814e-112
3.25395e-112
3.20092e-112
3.19557e-112
3.25537e-112
3.22172e-112
3.20714e-112
3.20065e-112
3.24396e-112
3.94647e-112
3.99496e-112
3.98183e-112
3.99533e-112
3.91038e-112
3.83797e-112
3.87389e-112
3.81121e-112
3.90618e-112
4.09901e-112
4.04766e-112
3.92406e-112
3.97615e-112
3.96298e-112
3.92848e-112
3.99063e-112
3.8149e-112
4.00273e-112
3.95062e-112
3.92518e-112
4.39456e-112
4.59887e-112
4.48571e-112
4.52379e-112
4.45171e-112
4.54389e-112
4.67593e-112
4.50149e-112
4.52486e-112
4.50243e-112
4.50365e-112
4.4842e-112
4.44033e-112
4.41463e-112
4.31557e-112
4.4602e-112
4.50122e-112
4.39955e-112
4.37277e-112
4.40828e-112
4.95422e-112
5.03913e-112
5.15881e-112
5.15567e-112
5.07582e-112
5.21466e-112
5.08723e-112
5.16101e-112
5.15445e-112
4.91875e-112
4.98508e-112
4.94539e-112
4.99135e-112
4.85932e-112
4.91435e-112
4.90287e-112
4.95862e-112
4.99571e-112
4.96698e-112
5.03328e-112
5.07938e-112
5.16753e-112
5.20997e-112
5.25054e-112
5.16429e-112
5.13611e-112
5.15898e-112
5.2748e-112
5.10289e-112
5.18834e-112
5.08456e-112
5.13111e-112
5.29401e-112
5.14459e-112
5.0489e-112
5.35843e-112
5.09716e-112
5.09661e-112
5.15293e-112
5.334e-112
5.35522e-112
5.32905e-112
5.44243e-112
5.29175e-112
5.36218e-112
5.35856e-112
5.46471e-112
5.37625e-112
5.21014e-112
5.28555e-112
5.32646e-112
5.48905e-112
5.3564e-112
5.44376e-112
5.48287e-112
5.42908e-112
5.44254e-112
5.32619e-112
5.31842e-112
5.34671e-112
4.80719e-112
4.93133e-112
4.84093e-112
5.06231e-112
4.93402e-112
5.0878e-112
5.01199e-112
4.95857e-112
4.94806e-112
4.96443e-112
4.89596e-112
5.04468e-112
5.03774e-112
5.11165e-112
4.9402e-112
5.07202e-112
5.06099e-112
4.83415e-112
5.09333e-112
4.99959e-112
4.64714e-112
4.87925e-112
4.78508e-112
4.79827e-112
4.71698e-112
4.9267e-112
4.8781e-112
4.82657e-112
4.84292e-112
4.69507e-112
4.81914e-112
4.93433e-112
4.76478e-112
5.08295e-112
4.89176e-112
4.99279e-112
5.05719e-112
4.85411e-112
4.96091e-112
4.98957e-112
4.01528e-112
4.00315e-112
3.93168e-112
4.03113e-112
4.12681e-112
4.10213e-112
4.04532e-112
3.91677e-112
4.09037e-112
3.97432e-112
4.07892e-112
4.09412e-112
4.04265e-112
4.09996e-112
4.16369e-112
4.1648e-112
4.06568e-112
4.18619e-112
4.13289e-112
4.26129e-112
3.22627e-112
3.27229e-112
3.23782e-112
3.21631e-112
3.33729e-112
3.26425e-112
3.42013e-112
3.26475e-112
3.42003e-112
3.38359e-112
3.32575e-112
3.43897e-112
3.27092e-112
3.43982e-112
3.32933e-112
3.30038e-112
3.40368e-112
3.44207e-112
3.35511e-112
3.51765e-112
5.20604e-131
5.2985e-131
5.42309e-131
5.15697e-131
5.34853e-131
5.34989e-131
5.33683e-131
5.21813e-131
5.13238e-131
5.46519e-131
5.11554e-131
5.45089e-131
5.13274e-131
5.37228e-131
5.06979e-131
5.38179e-131
4.99139e-131
5.22974e-131
5.34007e-131
4.94558e-131
1.0812e-127
1.09931e-127
1.12564e-127
1.06981e-127
1.11009e-127
1.10966e-127
1.10692e-127
1.08207e-127
1.06519e-127
1.13343e-127
1.06166e-127
1.13093e-127
1.06499e-127
1.11443e-127
1.05228e-127
1.11688e-127
1.03605e-127
1.08493e-127
1.1078e-127
1.02625e-127
1.23716e-124
1.2566e-124
1.28721e-124
1.22268e-124
1.26935e-124
1.26797e-124
1.26482e-124
1.23618e-124
1.21796e-124
1.29491e-124
1.21387e-124
1.29264e-124
1.21735e-124
1.27354e-124
1.20321e-124
1.27689e-124
1.1848e-124
1.23992e-124
1.26602e-124
1.17327e-124
7.95135e-122
8.06775e-122
8.26749e-122
7.84855e-122
8.15234e-122
8.13759e-122
8.11731e-122
7.93188e-122
7.82197e-122
8.30895e-122
7.79545e-122
8.29821e-122
7.81561e-122
8.17405e-122
7.72724e-122
8.19938e-122
7.61069e-122
7.95903e-122
8.12629e-122
7.53449e-122
3.73345e-119
3.78388e-119
3.87884e-119
3.68015e-119
3.8247e-119
3.81459e-119
3.80515e-119
3.71758e-119
3.66961e-119
3.89404e-119
3.65704e-119
3.89104e-119
3.66524e-119
3.83198e-119
3.62481e-119
3.84585e-119
3.5717e-119
3.73171e-119
3.80991e-119
3.53498e-119
1.22274e-116
1.23781e-116
1.26918e-116
1.20349e-116
1.25149e-116
1.247e-116
1.24399e-116
1.2152e-116
1.20079e-116
1.27266e-116
1.19663e-116
1.27244e-116
1.19883e-116
1.25282e-116
1.18589e-116
1.25809e-116
1.16938e-116
1.22028e-116
1.24573e-116
1.15705e-116
2.78246e-114
2.81321e-114
2.88475e-114
2.73391e-114
2.84478e-114
2.83131e-114
2.82483e-114
2.75931e-114
2.72996e-114
2.88868e-114
2.72035e-114
2.89024e-114
2.72385e-114
2.84487e-114
2.69487e-114
2.85882e-114
2.66095e-114
2.77184e-114
2.82915e-114
2.63238e-114
4.10055e-112
4.14004e-112
4.24813e-112
4.02173e-112
4.18852e-112
4.16529e-112
4.15468e-112
4.05714e-112
4.01816e-112
4.2483e-112
4.00418e-112
4.25213e-112
4.00749e-112
4.18583e-112
3.96638e-112
4.20805e-112
3.9209e-112
4.0777e-112
4.16253e-112
3.87852e-112
2.66408e-110
2.69058e-110
2.72556e-110
2.60137e-110
2.70207e-110
2.66487e-110
2.67745e-110
2.62699e-110
2.62195e-110
2.71337e-110
2.60774e-110
2.73453e-110
2.59624e-110
2.68237e-110
2.55603e-110
2.71014e-110
2.58256e-110
2.63492e-110
2.67383e-110
2.56206e-110
3.0283e-110
3.06065e-110
3.02946e-110
2.93183e-110
3.03234e-110
2.94397e-110
2.99342e-110
2.96519e-110
3.00459e-110
2.99374e-110
2.97635e-110
3.05477e-110
2.93573e-110
2.96921e-110
2.86289e-110
3.03203e-110
3.01712e-110
2.96424e-110
2.97695e-110
3.00806e-110
4.18535e-110
4.29565e-110
4.24387e-110
4.28119e-110
4.1974e-110
4.26615e-110
4.33176e-110
4.26966e-110
4.33926e-110
4.44207e-110
4.30083e-110
4.41913e-110
4.295e-110
4.22594e-110
4.21725e-110
4.29682e-110
4.25252e-110
4.23347e-110
4.22606e-110
4.28283e-110
5.18366e-110
5.24727e-110
5.23135e-110
5.24709e-110
5.13664e-110
5.04064e-110
5.08965e-110
5.00622e-110
5.13279e-110
5.38381e-110
5.31703e-110
5.15314e-110
5.22509e-110
5.20601e-110
5.16145e-110
5.24225e-110
5.01092e-110
5.25745e-110
5.18805e-110
5.15678e-110
5.76002e-110
6.02511e-110
5.87882e-110
5.92561e-110
5.83438e-110
5.95446e-110
6.12873e-110
5.8974e-110
5.92857e-110
5.89849e-110
5.90083e-110
5.87536e-110
5.82053e-110
5.78518e-110
5.65639e-110
5.84442e-110
5.89834e-110
5.76484e-110
5.72979e-110
5.77706e-110
6.4237e-110
6.53208e-110
6.68644e-110
6.68375e-110
6.58094e-110
6.76009e-110
6.59463e-110
6.69073e-110
6.68289e-110
6.37442e-110
6.46224e-110
6.41124e-110
6.47175e-110
6.30064e-110
6.37061e-110
6.35684e-110
6.42802e-110
6.47767e-110
6.43975e-110
6.52653e-110
6.5719e-110
6.68427e-110
6.74049e-110
6.79114e-110
6.67927e-110
6.64531e-110
6.67563e-110
6.82418e-110
6.60144e-110
6.71172e-110
6.57969e-110
6.63855e-110
6.84746e-110
6.65613e-110
6.53331e-110
6.93221e-110
6.59565e-110
6.59329e-110
6.66684e-110
6.8981e-110
6.80605e-110
6.76895e-110
6.91419e-110
6.72432e-110
6.81453e-110
6.81125e-110
6.94434e-110
6.8322e-110
6.62153e-110
6.7164e-110
6.76636e-110
6.97554e-110
6.80693e-110
6.91962e-110
6.96572e-110
6.90073e-110
6.91449e-110
6.77043e-110
6.75851e-110
6.79465e-110
6.1125e-110
6.26735e-110
6.15394e-110
6.43595e-110
6.27182e-110
6.46726e-110
6.36957e-110
6.30426e-110
6.2892e-110
6.30949e-110
6.22372e-110
6.41191e-110
6.40027e-110
6.4981e-110
6.27832e-110
6.44708e-110
6.4311e-110
6.14396e-110
6.47192e-110
6.35572e-110
5.75917e-110
6.04793e-110
5.93073e-110
5.94681e-110
5.8451e-110
6.10828e-110
6.04663e-110
5.9844e-110
6.00256e-110
5.8204e-110
5.97515e-110
6.11737e-110
5.90581e-110
6.30151e-110
6.0622e-110
6.18745e-110
6.26765e-110
6.01647e-110
6.14888e-110
6.18464e-110
5.00266e-110
4.98684e-110
4.89871e-110
5.02182e-110
5.14141e-110
5.10999e-110
5.03871e-110
4.88016e-110
5.09665e-110
4.95058e-110
5.08197e-110
5.0993e-110
5.03566e-110
5.10834e-110
5.18539e-110
5.18915e-110
5.06327e-110
5.21428e-110
5.14732e-110
5.30819e-110
3.92922e-110
3.98509e-110
3.94302e-110
3.91718e-110
4.06368e-110
3.97583e-110
4.16315e-110
3.97664e-110
4.16321e-110
4.1206e-110
4.05007e-110
4.18749e-110
3.98395e-110
4.18953e-110
4.05356e-110
4.01955e-110
4.1438e-110
4.19076e-110
4.08596e-110
4.28202e-110
6.14961e-129
6.25398e-129
6.40464e-129
6.08773e-129
6.31555e-129
6.31591e-129
6.29994e-129
6.15786e-129
6.05978e-129
6.45132e-129
6.03988e-129
6.43553e-129
6.05982e-129
6.34267e-129
5.9878e-129
6.35496e-129
5.89176e-129
6.17339e-129
6.30394e-129
5.83624e-129
1.38862e-125
1.41076e-125
1.44536e-125
1.37307e-125
1.42516e-125
1.4243e-125
1.42066e-125
1.38832e-125
1.36737e-125
1.45461e-125
1.36283e-125
1.45167e-125
1.367e-125
1.43046e-125
1.35121e-125
1.43385e-125
1.32961e-125
1.39237e-125
1.4218e-125
1.3167e-125
1.64127e-122
1.66569e-122
1.70726e-122
1.62094e-122
1.68328e-122
1.6811e-122
1.67676e-122
1.63824e-122
1.61493e-122
1.71658e-122
1.60952e-122
1.71386e-122
1.61402e-122
1.68852e-122
1.5959e-122
1.69326e-122
1.57058e-122
1.64368e-122
1.67838e-122
1.55489e-122
1.08876e-119
1.10378e-119
1.13179e-119
1.07395e-119
1.11582e-119
1.11359e-119
1.11069e-119
1.08495e-119
1.07045e-119
1.13688e-119
1.06684e-119
1.13559e-119
1.06954e-119
1.11861e-119
1.05787e-119
1.12226e-119
1.04128e-119
1.08899e-119
1.11195e-119
1.03058e-119
5.13005e-117
5.19496e-117
5.32879e-117
5.0534e-117
5.25333e-117
5.23865e-117
5.22497e-117
5.10286e-117
5.03933e-117
5.34696e-117
5.02229e-117
5.34358e-117
5.03336e-117
5.26262e-117
4.97995e-117
5.28244e-117
4.9036e-117
5.12385e-117
5.23172e-117
4.85183e-117
1.68912e-114
1.70847e-114
1.75305e-114
1.66144e-114
1.7282e-114
1.72184e-114
1.71738e-114
1.67696e-114
1.65774e-114
1.757e-114
1.65212e-114
1.75687e-114
1.65514e-114
1.72989e-114
1.63802e-114
1.73736e-114
1.61389e-114
1.68452e-114
1.71988e-114
1.5964e-114
3.77256e-112
3.81089e-112
3.91131e-112
3.70449e-112
3.8559e-112
3.83774e-112
3.82791e-112
3.73737e-112
3.69869e-112
3.91494e-112
3.68608e-112
3.91708e-112
3.69106e-112
3.85609e-112
3.65373e-112
3.87516e-112
3.60375e-112
3.75568e-112
3.83414e-112
3.56388e-112
5.4832e-110
5.53082e-110
5.68255e-110
5.37507e-110
5.60016e-110
5.57051e-110
5.55365e-110
5.41989e-110
5.36813e-110
5.68083e-110
5.35046e-110
5.68494e-110
5.35606e-110
5.59771e-110
5.30482e-110
5.62692e-110
5.23473e-110
5.44972e-110
5.56524e-110
5.17595e-110
3.46764e-108
3.49973e-108
3.54624e-108
3.38428e-108
3.51538e-108
3.46672e-108
3.48318e-108
3.41656e-108
3.41169e-108
3.52904e-108
3.39327e-108
3.5571e-108
3.3779e-108
3.48963e-108
3.32649e-108
3.52604e-108
3.36033e-108
3.42751e-108
3.478e-108
3.33335e-108
3.92313e-108
3.96407e-108
3.92418e-108
3.79858e-108
3.92755e-108
3.81485e-108
3.87939e-108
3.84152e-108
3.89321e-108
3.87816e-108
3.85652e-108
3.95683e-108
3.80363e-108
3.84764e-108
3.7098e-108
3.92774e-108
3.90852e-108
3.83993e-108
3.85617e-108
3.89743e-108
5.41787e-108
5.5599e-108
5.49473e-108
5.53949e-108
5.43288e-108
5.52095e-108
5.60707e-108
5.52497e-108
5.61759e-108
5.74591e-108
5.56779e-108
5.71813e-108
5.55779e-108
5.46964e-108
5.45629e-108
5.56009e-108
5.50296e-108
5.47852e-108
5.47047e-108
5.54343e-108
6.67656e-108
6.75836e-108
6.73957e-108
6.75724e-108
6.61647e-108
6.49167e-108
6.55721e-108
6.44831e-108
6.61375e-108
6.93407e-108
6.84892e-108
6.63588e-108
6.7331e-108
6.70619e-108
6.64982e-108
6.75279e-108
6.45417e-108
6.77146e-108
6.68083e-108
6.64332e-108
7.40919e-108
7.74666e-108
7.56112e-108
7.6172e-108
7.50418e-108
7.65755e-108
7.88329e-108
7.58226e-108
7.62305e-108
7.58353e-108
7.5875e-108
7.5548e-108
7.48775e-108
7.4402e-108
7.27582e-108
7.51571e-108
7.58518e-108
7.41322e-108
7.36819e-108
7.42987e-108
8.18495e-108
8.32086e-108
8.51639e-108
8.51486e-108
8.38477e-108
8.61169e-108
8.40084e-108
8.52376e-108
8.51444e-108
8.11797e-108
8.23216e-108
8.16781e-108
8.24603e-108
8.02818e-108
8.11551e-108
8.09942e-108
8.18869e-108
8.25396e-108
8.20478e-108
8.31636e-108
8.36495e-108
8.50584e-108
8.57895e-108
8.64159e-108
8.49843e-108
8.45843e-108
8.49791e-108
8.68536e-108
8.40143e-108
8.54146e-108
8.37634e-108
8.44942e-108
8.71332e-108
8.47191e-108
8.31689e-108
8.82291e-108
8.3961e-108
8.39101e-108
8.48555e-108
8.77635e-108
8.53288e-108
8.48153e-108
8.66486e-108
8.42893e-108
8.54303e-108
8.5405e-108
8.70497e-108
8.56494e-108
8.30127e-108
8.41913e-108
8.47905e-108
8.74449e-108
8.53319e-108
8.67654e-108
8.72966e-108
8.65262e-108
8.66553e-108
8.48985e-108
8.47229e-108
8.51765e-108
7.6779e-108
7.86846e-108
7.72811e-108
8.0828e-108
7.87546e-108
8.12062e-108
7.9964e-108
7.91771e-108
7.89651e-108
7.92146e-108
7.81542e-108
8.05062e-108
8.03236e-108
8.16001e-108
7.88187e-108
8.09513e-108
8.07246e-108
7.71322e-108
8.12345e-108
7.98136e-108
7.09764e-108
7.4547e-108
7.30967e-108
7.32943e-108
7.2029e-108
7.53114e-108
7.45335e-108
7.37869e-108
7.39841e-108
7.17556e-108
7.36713e-108
7.5418e-108
7.27967e-108
7.76849e-108
7.47069e-108
7.62514e-108
7.72438e-108
7.41551e-108
7.57892e-108
7.62305e-108
6.20706e-108
6.18679e-108
6.07859e-108
6.23016e-108
6.37879e-108
6.33927e-108
6.25016e-108
6.05564e-108
6.32433e-108
6.14106e-108
6.3056e-108
6.32514e-108
6.24654e-108
6.33873e-108
6.4312e-108
6.43893e-108
6.27987e-108
6.46801e-108
6.38435e-108
6.585e-108
4.84602e-108
4.91465e-108
4.86266e-108
4.83127e-108
5.01084e-108
4.90392e-108
5.13166e-108
4.9051e-108
5.13197e-108
5.08163e-108
4.99457e-108
5.16343e-108
4.9139e-108
5.16718e-108
4.99784e-108
4.95744e-108
5.10866e-108
5.16686e-108
5.039e-108
5.27841e-108
8.87524e-127
9.01841e-127
9.24031e-127
8.7793e-127
9.11053e-127
9.10828e-127
9.08469e-127
8.87723e-127
8.74101e-127
9.30226e-127
8.71218e-127
9.2816e-127
8.73994e-127
9.14719e-127
8.63915e-127
9.16696e-127
8.49708e-127
8.90215e-127
9.09062e-127
8.41492e-127
1.96516e-123
1.99484e-123
2.04482e-123
1.94172e-123
2.01594e-123
2.01417e-123
2.00889e-123
1.96257e-123
1.93406e-123
2.05674e-123
1.92765e-123
2.05302e-123
1.93334e-123
2.02297e-123
1.9117e-123
2.02818e-123
1.88032e-123
1.96888e-123
2.01054e-123
1.86159e-123
2.27539e-120
2.30732e-120
2.36617e-120
2.24557e-120
2.33257e-120
2.32897e-120
2.32278e-120
2.26871e-120
2.23765e-120
2.37777e-120
2.23019e-120
2.37448e-120
2.23623e-120
2.33934e-120
2.21194e-120
2.34637e-120
2.1758e-120
2.27692e-120
2.32508e-120
2.15351e-120
1.5222e-117
1.5419e-117
1.58192e-117
1.50041e-117
1.55933e-117
1.55588e-117
1.55168e-117
1.51521e-117
1.49574e-117
1.58816e-117
1.49075e-117
1.58666e-117
1.4944e-117
1.56293e-117
1.47867e-117
1.56832e-117
1.4547e-117
1.52131e-117
1.55348e-117
1.43937e-117
7.10557e-115
7.18929e-115
7.37906e-115
6.99449e-115
7.27316e-115
7.25158e-115
7.23175e-115
7.06022e-115
6.97568e-115
7.40032e-115
6.95244e-115
7.39679e-115
6.96741e-115
7.28491e-115
6.8963e-115
7.31353e-115
6.78631e-115
7.0915e-115
7.24139e-115
6.71282e-115
2.31553e-112
2.34002e-112
2.40278e-112
2.27607e-112
2.36816e-112
2.35921e-112
2.35268e-112
2.29641e-112
2.27103e-112
2.407e-112
2.2635e-112
2.40707e-112
2.26762e-112
2.37026e-112
2.24518e-112
2.38079e-112
2.21035e-112
2.30753e-112
2.35625e-112
2.18575e-112
5.07559e-110
5.12256e-110
5.26223e-110
4.98094e-110
5.18607e-110
5.16176e-110
5.14714e-110
5.02302e-110
4.97251e-110
5.26478e-110
4.95615e-110
5.26773e-110
4.96317e-110
5.18637e-110
4.91557e-110
5.21232e-110
4.84302e-110
5.04947e-110
5.15604e-110
4.78782e-110
7.26423e-108
7.32028e-108
7.53085e-108
7.11722e-108
7.41815e-108
7.38069e-108
7.35479e-108
7.17314e-108
7.105e-108
7.52589e-108
7.08308e-108
7.53006e-108
7.09211e-108
7.41637e-108
7.02921e-108
7.4545e-108
6.92384e-108
7.21587e-108
7.37167e-108
6.84306e-108
4.46759e-106
4.50584e-106
4.56699e-106
4.35799e-106
4.52685e-106
4.46392e-106
4.48522e-106
4.39819e-106
4.39407e-106
4.54314e-106
4.37046e-106
4.57994e-106
4.35018e-106
4.49359e-106
4.28511e-106
4.54083e-106
4.32783e-106
4.4131e-106
4.47793e-106
4.2927e-106
5.02778e-106
5.07903e-106
5.02854e-106
4.86878e-106
5.03242e-106
4.89031e-106
4.97361e-106
4.92338e-106
4.9905e-106
4.96994e-106
4.94335e-106
5.07024e-106
4.87525e-106
4.93245e-106
4.75571e-106
5.03341e-106
5.00888e-106
4.92093e-106
4.94146e-106
4.99554e-106
6.9411e-106
7.122e-106
7.04093e-106
7.09371e-106
6.95957e-106
7.07114e-106
7.18298e-106
7.07559e-106
7.19749e-106
7.35572e-106
7.13361e-106
7.32257e-106
7.11768e-106
7.00634e-106
6.98658e-106
7.12055e-106
7.04766e-106
7.01665e-106
7.00829e-106
7.10109e-106
8.51331e-106
8.61741e-106
8.59566e-106
8.61482e-106
8.43728e-106
8.2767e-106
8.36339e-106
8.22268e-106
8.43671e-106
8.84125e-106
8.7338e-106
8.45973e-106
8.58948e-106
8.55214e-106
8.48163e-106
8.61149e-106
8.22987e-106
8.63414e-106
8.51696e-106
8.47267e-106
9.44324e-106
9.86882e-106
9.63574e-106
9.70192e-106
9.56351e-106
9.75748e-106
1.00472e-105
9.65914e-106
9.71199e-106
9.66062e-106
9.66689e-106
9.62536e-106
9.54431e-106
9.48117e-106
9.27326e-106
9.57644e-106
9.66507e-106
9.44568e-106
9.38836e-106
9.46802e-106
1.03495e-105
1.05185e-105
1.07642e-105
1.07648e-105
1.06015e-105
1.08865e-105
1.06201e-105
1.07761e-105
1.07649e-105
1.02595e-105
1.04068e-105
1.03263e-105
1.04265e-105
1.01514e-105
1.02594e-105
1.02409e-105
1.0352e-105
1.0437e-105
1.03738e-105
1.05161e-105
1.05775e-105
1.07533e-105
1.08473e-105
1.09241e-105
1.07422e-105
1.06957e-105
1.07467e-105
1.09821e-105
1.06218e-105
1.07992e-105
1.05938e-105
1.06838e-105
1.10148e-105
1.07124e-105
1.05181e-105
1.11555e-105
1.0618e-105
1.06089e-105
1.073e-105
1.10926e-105
1.06715e-105
1.06012e-105
1.08319e-105
1.05393e-105
1.06835e-105
1.06823e-105
1.0885e-105
1.07104e-105
1.03813e-105
1.05273e-105
1.0599e-105
1.09349e-105
1.06706e-105
1.08527e-105
1.09132e-105
1.08222e-105
1.08332e-105
1.06197e-105
1.05944e-105
1.0651e-105
9.62851e-106
9.86243e-106
9.68916e-106
1.01346e-105
9.87297e-106
1.01799e-105
1.00223e-105
9.9279e-106
9.89832e-106
9.92906e-106
9.79823e-106
1.00916e-105
1.00642e-105
1.023e-105
9.87876e-106
1.01478e-105
1.01161e-105
9.66747e-106
1.01796e-105
1.00064e-105
8.79646e-106
9.24018e-106
9.0597e-106
9.08438e-106
8.92613e-106
9.33754e-106
9.23885e-106
9.14888e-106
9.16999e-106
8.89616e-106
9.13425e-106
9.35e-106
9.02383e-106
9.63045e-106
9.25794e-106
9.44945e-106
9.57284e-106
9.19096e-106
9.39396e-106
9.4485e-106
7.74426e-106
7.71843e-106
7.58491e-106
7.77233e-106
7.95791e-106
7.90818e-106
7.79614e-106
7.5564e-106
7.89157e-106
7.6602e-106
7.86753e-106
7.88952e-106
7.79164e-106
7.90955e-106
8.02089e-106
8.03444e-106
7.83251e-106
8.06799e-106
7.96291e-106
8.21449e-106
5.99093e-106
6.07538e-106
6.01097e-106
5.97282e-106
6.19334e-106
6.06298e-106
6.34031e-106
6.06458e-106
6.34099e-106
6.28153e-106
6.17383e-106
6.38176e-106
6.07527e-106
6.3879e-106
6.17663e-106
6.1286e-106
6.31297e-106
6.38529e-106
6.22895e-106
6.52193e-106
1.24169e-124
1.26067e-124
1.29231e-124
1.22734e-124
1.27399e-124
1.27329e-124
1.26993e-124
1.24058e-124
1.22227e-124
1.30021e-124
1.21823e-124
1.29763e-124
1.22196e-124
1.27878e-124
1.20829e-124
1.28183e-124
1.18798e-124
1.24441e-124
1.27078e-124
1.17621e-124
2.79137e-121
2.83115e-121
2.90348e-121
2.75598e-121
2.8621e-121
2.85874e-121
2.85109e-121
2.78454e-121
2.74572e-121
2.91871e-121
2.73661e-121
2.91411e-121
2.74438e-121
2.87133e-121
2.71461e-121
2.87938e-121
2.66902e-121
2.7943e-121
2.85348e-121
2.6418e-121
3.20491e-118
3.24712e-118
3.33161e-118
3.16053e-118
3.28383e-118
3.27789e-118
3.26897e-118
3.19189e-118
3.14999e-118
3.34602e-118
3.13955e-118
3.34214e-118
3.14772e-118
3.29259e-118
3.11466e-118
3.3032e-118
3.06248e-118
3.20439e-118
3.27227e-118
3.03034e-118
2.14117e-115
2.16702e-115
2.22445e-115
2.10897e-115
2.19235e-115
2.18697e-115
2.18089e-115
2.12895e-115
2.10273e-115
2.23197e-115
2.09579e-115
2.23031e-115
2.10074e-115
2.19694e-115
2.0794e-115
2.20496e-115
2.04472e-115
2.13818e-115
2.18349e-115
2.02265e-115
9.80559e-113
9.91251e-113
1.01802e-112
9.64541e-113
1.00322e-112
1.00006e-112
9.97217e-113
9.73225e-113
9.62044e-113
1.0204e-112
9.58895e-113
1.02009e-112
9.60899e-113
1.00468e-112
9.51474e-113
1.0088e-112
9.35757e-113
9.77842e-113
9.98584e-113
9.25371e-113
3.15235e-110
3.18286e-110
3.27048e-110
3.09651e-110
3.22263e-110
3.2101e-110
3.2007e-110
3.12291e-110
3.0897e-110
3.27457e-110
3.07972e-110
3.27505e-110
3.08527e-110
3.22516e-110
3.0561e-110
3.23993e-110
3.00644e-110
3.13907e-110
3.20573e-110
2.97209e-110
6.78083e-108
6.83735e-108
7.02992e-108
6.65022e-108
6.92606e-108
6.8937e-108
6.87235e-108
6.70349e-108
6.63806e-108
7.03014e-108
6.61709e-108
7.03425e-108
6.62688e-108
6.92647e-108
6.56677e-108
6.96159e-108
6.46286e-108
6.74127e-108
6.88494e-108
6.38701e-108
9.54469e-106
9.60889e-106
9.89802e-106
9.34644e-106
9.74533e-106
9.69837e-106
9.65973e-106
9.41526e-106
9.32625e-106
9.88781e-106
9.29954e-106
9.89178e-106
9.31356e-106
9.74479e-106
9.23745e-106
9.79433e-106
9.08249e-106
9.47568e-106
9.68398e-106
8.97239e-106
5.70317e-104
5.74804e-104
5.8276e-104
5.56051e-104
5.77589e-104
5.69533e-104
5.72265e-104
5.61001e-104
5.60748e-104
5.79506e-104
5.57754e-104
5.84284e-104
5.55104e-104
5.73339e-104
5.46946e-104
5.79409e-104
5.52288e-104
5.63007e-104
5.71255e-104
5.47759e-104
6.38132e-104
6.44478e-104
6.3815e-104
6.18035e-104
6.38585e-104
6.20855e-104
6.31496e-104
6.24903e-104
6.33539e-104
6.30769e-104
6.27538e-104
6.43427e-104
6.18857e-104
6.26213e-104
6.03776e-104
6.38807e-104
6.35709e-104
6.24541e-104
6.27113e-104
6.34125e-104
8.81071e-104
9.0389e-104
8.93914e-104
9.00028e-104
8.83318e-104
8.97314e-104
9.11699e-104
8.97784e-104
9.13672e-104
9.32961e-104
9.05552e-104
9.29068e-104
9.03136e-104
8.89206e-104
8.86363e-104
9.03491e-104
8.94281e-104
8.9038e-104
8.89571e-104
9.01264e-104
1.07585e-103
1.08898e-103
1.08651e-103
1.0885e-103
1.06631e-103
1.04584e-103
1.0572e-103
1.03918e-103
1.06662e-103
1.11724e-103
1.1038e-103
1.06887e-103
1.08599e-103
1.08089e-103
1.07216e-103
1.08838e-103
1.04005e-103
1.0911e-103
1.07609e-103
1.07093e-103
1.19373e-103
1.24695e-103
1.21792e-103
1.22561e-103
1.20884e-103
1.23315e-103
1.27003e-103
1.22043e-103
1.22722e-103
1.2206e-103
1.22155e-103
1.21632e-103
1.20663e-103
1.19834e-103
1.17225e-103
1.21025e-103
1.22146e-103
1.19371e-103
1.18647e-103
1.19667e-103
1.29952e-103
1.32039e-103
1.35103e-103
1.35144e-103
1.33107e-103
1.36661e-103
1.33319e-103
1.35284e-103
1.35151e-103
1.28756e-103
1.3064e-103
1.29642e-103
1.30916e-103
1.27466e-103
1.28792e-103
1.28584e-103
1.29955e-103
1.31055e-103
1.30246e-103
1.3205e-103
1.32945e-103
1.35124e-103
1.36331e-103
1.37259e-103
1.34967e-103
1.34429e-103
1.35086e-103
1.38023e-103
1.3348e-103
1.35713e-103
1.33176e-103
1.34277e-103
1.384e-103
1.34635e-103
1.32216e-103
1.40195e-103
1.33469e-103
1.3332e-103
1.34861e-103
1.39354e-103
1.32941e-103
1.31988e-103
1.34879e-103
1.31268e-103
1.33081e-103
1.33092e-103
1.35577e-103
1.3341e-103
1.29317e-103
1.3112e-103
1.31971e-103
1.36204e-103
1.32913e-103
1.35217e-103
1.35898e-103
1.34829e-103
1.34901e-103
1.32322e-103
1.31962e-103
1.32668e-103
1.20391e-103
1.23254e-103
1.21121e-103
1.26697e-103
1.23406e-103
1.27236e-103
1.25242e-103
1.24118e-103
1.2371e-103
1.24088e-103
1.22479e-103
1.26127e-103
1.25728e-103
1.27873e-103
1.2345e-103
1.26833e-103
1.26396e-103
1.20811e-103
1.27185e-103
1.25081e-103
1.08974e-103
1.14484e-103
1.12239e-103
1.12548e-103
1.1057e-103
1.15723e-103
1.14472e-103
1.13389e-103
1.13609e-103
1.10247e-103
1.13203e-103
1.15867e-103
1.11813e-103
1.19334e-103
1.14678e-103
1.17051e-103
1.18584e-103
1.13866e-103
1.16387e-103
1.17059e-103
9.66131e-104
9.62849e-104
9.46379e-104
9.69547e-104
9.92707e-104
9.86455e-104
9.72371e-104
9.42849e-104
9.84645e-104
9.55438e-104
9.81556e-104
9.84007e-104
9.71806e-104
9.86887e-104
1.00027e-103
1.00245e-103
9.76831e-104
1.00629e-103
9.93099e-104
1.02463e-103
7.45031e-104
7.55479e-104
7.47453e-104
7.4279e-104
7.70025e-104
7.54043e-104
7.87997e-104
7.54258e-104
7.88119e-104
7.81076e-104
7.67668e-104
7.93424e-104
7.55566e-104
7.94372e-104
7.67865e-104
7.62125e-104
7.84736e-104
7.93774e-104
7.74547e-104
8.10607e-104
1.82928e-122
1.85568e-122
1.90308e-122
1.80671e-122
1.8759e-122
1.87423e-122
1.86923e-122
1.82552e-122
1.79972e-122
1.91356e-122
1.79376e-122
1.91026e-122
1.79901e-122
1.88239e-122
1.77948e-122
1.88737e-122
1.74906e-122
1.8317e-122
1.8705e-122
1.7313e-122
4.04821e-119
4.10238e-119
4.2091e-119
3.99375e-119
4.14861e-119
4.14244e-119
4.13121e-119
4.03364e-119
3.97982e-119
4.22863e-119
3.96667e-119
4.22304e-119
3.97741e-119
4.16086e-119
3.93561e-119
4.17353e-119
3.86829e-119
4.04896e-119
4.13474e-119
3.8279e-119
4.55292e-116
4.60893e-116
4.73109e-116
4.48643e-116
4.66263e-116
4.65287e-116
4.63998e-116
4.52924e-116
4.47239e-116
4.74875e-116
4.45768e-116
4.74437e-116
4.46875e-116
4.6739e-116
4.42337e-116
4.69003e-116
4.34771e-116
4.54832e-116
4.64475e-116
4.30102e-116
2.9981e-113
3.03166e-113
3.11358e-113
2.95079e-113
3.06819e-113
3.05991e-113
3.05121e-113
2.9776e-113
2.94255e-113
3.12231e-113
2.93297e-113
3.12067e-113
2.93959e-113
3.07396e-113
2.9108e-113
3.08582e-113
2.86105e-113
2.99141e-113
3.05491e-113
2.82945e-113
1.34678e-110
1.36027e-110
1.39779e-110
1.32382e-110
1.37724e-110
1.37263e-110
1.36859e-110
1.33521e-110
1.32054e-110
1.40029e-110
1.3163e-110
1.40012e-110
1.31896e-110
1.379e-110
1.30653e-110
1.38491e-110
1.28427e-110
1.34196e-110
1.37051e-110
1.26967e-110
4.26375e-108
4.30118e-108
4.42248e-108
4.18533e-108
4.35684e-108
4.33939e-108
4.32603e-108
4.21928e-108
4.1762e-108
4.42572e-108
4.16311e-108
4.42697e-108
4.1705e-108
4.35978e-108
4.13285e-108
4.38039e-108
4.06282e-108
4.24251e-108
4.33307e-108
4.01523e-108
8.99878e-106
9.0654e-106
9.32866e-106
8.8198e-106
9.18811e-106
9.14524e-106
9.1146e-106
8.88654e-106
8.80247e-106
9.32462e-106
8.77589e-106
9.33045e-106
8.78939e-106
9.18861e-106
8.71416e-106
9.23593e-106
8.56727e-106
8.93993e-106
9.13223e-106
8.46382e-106
1.24462e-103
1.25174e-103
1.29103e-103
1.21808e-103
1.27053e-103
1.26468e-103
1.25906e-103
1.22643e-103
1.21491e-103
1.28919e-103
1.21171e-103
1.28954e-103
1.21381e-103
1.27067e-103
1.20473e-103
1.27709e-103
1.1824e-103
1.23488e-103
1.26249e-103
1.16751e-103
7.21835e-102
7.27011e-102
7.37263e-102
7.03436e-102
7.3066e-102
7.20447e-102
7.2392e-102
7.09466e-102
7.09489e-102
7.32888e-102
7.05731e-102
7.39034e-102
7.02301e-102
7.25285e-102
6.92163e-102
7.33012e-102
6.98784e-102
7.12136e-102
7.22539e-102
6.92998e-102
8.02685e-102
8.1047e-102
8.02605e-102
7.77519e-102
8.03083e-102
7.81175e-102
7.94642e-102
7.86072e-102
7.97088e-102
7.93403e-102
7.8952e-102
8.09229e-102
7.78556e-102
7.87926e-102
7.59705e-102
8.0348e-102
7.99606e-102
7.85558e-102
7.88751e-102
7.97752e-102
1.10885e-101
1.13737e-101
1.12522e-101
1.13217e-101
1.11155e-101
1.12895e-101
1.14729e-101
1.12941e-101
1.14993e-101
1.17319e-101
1.1397e-101
1.16869e-101
1.13616e-101
1.11889e-101
1.11489e-101
1.1366e-101
1.12507e-101
1.1202e-101
1.1195e-101
1.13411e-101
1.34837e-101
1.36478e-101
1.36203e-101
1.36398e-101
1.33649e-101
1.31062e-101
1.32536e-101
1.30249e-101
1.33736e-101
1.40015e-101
1.3835e-101
1.33936e-101
1.36173e-101
1.35484e-101
1.34413e-101
1.36422e-101
1.30351e-101
1.36744e-101
1.34836e-101
1.34246e-101
1.49749e-101
1.56352e-101
1.52765e-101
1.53645e-101
1.51635e-101
1.54656e-101
1.59313e-101
1.53024e-101
1.53889e-101
1.53043e-101
1.53181e-101
1.52529e-101
1.51384e-101
1.50307e-101
1.47058e-101