/*--------------------------------*- C++ -*----------------------------------*\
| =========                 |                                                 |
| \\      /  F ield         | OpenFOAM: The Open Source CFD Toolbox           |
|  \\    /   O peration     | Version:  2212                                  |
|   \\  /    A nd           | Website:  www.openfoam.com                      |
|    \\/     M anipulation  |                                                 |
\*---------------------------------------------------------------------------*/
FoamFile
{
    version     2.0;
    format      ascii;
    arch        "LSB;label=32;scalar=64";
    class       volScalarField;
    location    "0.0855";
    object      k;
}
// * * * * * * * * * * * * * * * * * * * * * * * * * * * * * * * * * * * * * //

dimensions      [0 2 -2 0 0 0 0];

internalField   nonuniform List<scalar> 
44662
(
78.571
253.441
252.642
257.393
255.364
55.2441
124.721
52.1724
218.95
237.038
64.7207
108.364
122.79
182.116
238.843
114.396
160.596
143.508
216.583
145.783
233.4
149.058
211.385
221.739
318.801
211.739
118.232
97.1132
116.647
108.422
183.937
195.169
280.659
67.7376
1698.1
223.648
144.685
133.781
216.965
200.026
194.998
156.173
95.4369
214.072
212.969
24.4787
126.064
231.561
232.434
217.567
262.044
114.627
195.666
37.0159
237.746
33.703
187.803
90.2874
104.851
103.591
59.3163
27.2051
236.801
187.487
237.6
70.4321
67.1828
90.0087
193.009
158.742
31.0035
71.396
186.617
69.8825
150.054
178.138
15.0775
106.819
99.7505
66.1286
29.5831
142.347
229.131
136.635
35.6069
228.276
134.896
330.06
214.92
130.349
117.714
127.403
225.907
18.8034
208.481
207.4
69.8399
204.693
230.713
218.249
111.757
320.217
99.8275
42.7486
119.803
105.623
117.206
33.5472
218.066
118.464
114.635
200.457
316.607
216.659
50.9081
111.827
94.8558
234.276
21.3037
108.739
193.491
110.326
94.2791
105.66
108.266
458.387
102.302
105.964
276.14
98.3934
103.487
92.6961
64.8018
99.9046
93.1421
100.977
89.8206
89.3112
86.5217
98.5088
95.9459
79.0485
106.47
98.3472
71.0006
276.777
245.219
245.483
441.752
227.409
202.426
263.746
71.5074
97.9405
382.989
424.645
196.488
111.305
110.949
110.604
110.267
109.941
109.624
109.315
109.014
108.72
108.433
108.153
107.879
107.613
107.354
107.101
106.855
106.616
106.384
106.159
105.94
105.728
105.522
105.324
105.132
104.947
104.769
104.597
104.433
104.275
104.123
103.979
103.841
103.71
103.586
103.468
103.358
103.254
103.158
103.069
102.987
102.912
102.845
102.785
102.732
102.687
102.649
102.618
102.595
102.58
102.748
102.733
102.773
34.0923
111.67
111.315
111.675
102.572
102.573
102.735
102.729
102.843
102.804
102.94
102.888
103.065
102.999
103.217
103.137
103.397
103.303
103.606
103.498
103.845
103.722
104.113
103.976
104.404
104.256
104.719
104.558
105.059
104.885
105.428
105.24
105.825
105.623
106.249
106.034
106.701
106.472
107.179
106.936
107.684
107.428
108.217
107.947
108.779
108.494
109.368
109.07
109.988
109.674
110.643
110.311
110.985
110.622
110.964
109.968
110.29
109.35
109.655
108.764
109.053
108.205
108.481
107.673
107.936
107.169
107.418
106.691
106.927
106.241
106.463
105.816
106.025
105.419
105.614
105.047
105.23
104.701
104.871
104.384
104.539
104.094
104.235
103.833
103.96
103.599
103.713
103.392
103.493
103.213
103.299
103.061
103.133
102.939
102.996
102.848
102.889
102.787
102.814
102.755
102.768
102.75
102.749
103.224
103.213
103.247
25.8829
32.9671
111.371
111.717
102.751
103.23
103.258
103.263
102.758
103.277
112.042
112.041
103.216
103.313
103.277
103.402
103.355
103.514
103.455
103.652
103.58
103.817
103.731
104.011
103.91
104.237
104.12
104.494
104.363
104.77
104.629
105.064
104.914
105.382
105.22
105.731
105.553
106.109
105.916
106.514
106.308
106.945
106.726
107.403
107.171
107.888
107.642
108.401
108.141
108.943
108.668
109.514
109.225
110.113
109.81
110.743
110.423
111.072
116.754
102.583
110.703
111.033
110.073
110.384
109.478
109.771
108.914
109.192
108.378
108.643
107.868
108.12
107.385
107.623
106.928
107.153
106.497
106.709
106.092
106.291
105.714
105.9
105.36
105.534
105.032
105.193
104.731
104.878
104.459
104.591
104.215
104.333
103.998
104.104
103.808
103.9
103.644
103.722
103.507
103.572
103.4
103.45
103.323
103.357
103.276
103.296
103.258
103.264
103.257
112.07
104.083
104.043
104.011
104.009
104.03
102.775
103.298
112.065
112.429
112.414
112.417
104.132
105.197
105.259
112.788
112.794
104.019
104.085
104.055
104.157
104.118
104.25
104.201
104.366
104.305
104.508
104.434
104.679
104.59
104.884
104.777
105.119
104.999
105.369
105.241
105.632
105.499
105.918
105.771
106.235
106.072
106.582
106.405
106.956
106.766
107.356
107.153
107.782
107.566
108.233
108.004
108.713
108.47
109.223
108.964
109.762
109.489
110.325
110.041
110.915
110.616
237.417
111.223
102.776
102.6
103.293
112.829
112.145
112.484
111.488
111.812
110.861
111.17
110.269
110.56
109.711
109.986
109.182
109.443
108.681
108.928
108.205
108.44
107.756
107.977
107.331
107.54
106.933
107.129
106.559
106.743
106.211
106.382
105.887
106.046
105.587
105.734
105.314
105.447
105.068
105.188
104.851
104.956
104.659
104.752
104.494
104.573
104.353
104.42
104.24
104.293
104.154
104.193
104.098
104.122
104.071
104.081
104.071
104.068
104.094
104.079
104.146
104.116
113.164
113.18
112.111
105.145
112.435
104.185
105.326
106.549
106.622
105.282
104.185
105.33
112.799
113.171
113.537
105.095
105.086
105.092
113.537
112.345
112.197
105.109
105.133
105.112
105.185
105.157
105.253
105.217
105.342
105.295
105.455
105.396
105.597
105.522
105.773
105.68
105.979
105.874
106.196
106.087
106.42
106.307
106.664
106.539
106.941
106.798
107.248
107.091
107.582
107.412
107.94
107.758
108.323
108.129
108.731
108.524
109.166
108.945
109.632
109.395
110.128
109.877
110.642
110.383
111.178
110.907
233.849
111.457
412.14
102.801
103.329
102.807
102.626
103.334
113.575
112.921
113.245
112.291
112.603
111.688
111.986
111.116
111.398
110.574
110.84
110.064
110.315
109.583
109.82
109.128
109.352
108.697
108.91
108.292
108.492
107.91
108.098
107.553
107.729
107.22
107.384
106.911
107.063
106.625
106.765
106.363
106.491
106.126
106.242
105.914
106.017
105.729
105.819
105.57
105.646
105.435
105.499
105.324
105.376
105.238
105.278
105.179
105.205
105.147
105.159
105.143
105.143
105.166
105.152
105.21
105.185
105.243
113.898
113.911
112.471
106.486
106.404
106.417
106.401
106.7
104.232
105.385
112.584
112.659
112.864
112.815
113.188
113.56
113.921
114.267
114.253
112.538
106.442
106.419
106.407
106.449
106.432
106.49
106.467
106.55
106.517
106.632
106.588
106.741
106.683
106.884
106.808
107.059
106.969
107.238
107.147
107.417
107.327
107.614
107.512
107.845
107.725
108.107
107.973
108.393
108.247
108.702
108.545
109.035
108.866
109.391
109.21
109.773
109.579
110.186
109.976
110.627
110.404
111.083
110.852
111.553
111.315
112.051
111.797
112.313
102.836
103.369
102.845
102.659
104.243
103.38
106.78
105.396
114.302
113.69
113.992
113.101
113.392
112.537
112.816
111.999
112.264
111.489
111.741
111.008
111.245
110.556
110.779
110.131
110.341
109.731
109.928
109.354
109.539
109
109.174
108.669
108.831
108.36
108.512
108.074
108.214
107.811
107.94
107.569
107.687
107.35
107.457
107.154
107.249
106.981
107.064
106.832
106.903
106.707
106.766
106.605
106.653
106.526
106.562
106.47
106.495
106.438
106.451
106.432
106.432
106.451
106.439
106.494
106.47
106.56
106.525
106.651
106.602
106.77
106.707
114.602
114.618
113.153
112.981
112.839
108.069
108.147
108
113.2
106.862
108.316
108.402
108.303
106.84
108.377
113.43
113.451
113.693
113.58
113.956
114.311
114.642
114.957
107.918
107.897
107.886
114.94
112.885
108.23
107.949
107.883
107.882
107.893
107.887
107.911
107.9
107.944
107.925
107.996
107.967
108.072
108.031
108.184
108.124
108.324
108.252
108.467
108.396
108.599
108.533
108.748
108.67
108.933
108.837
109.146
109.036
109.381
109.261
109.638
109.507
109.915
109.774
110.215
110.062
110.538
110.373
110.892
110.711
111.272
111.079
111.661
111.466
112.059
111.858
112.481
112.266
112.937
112.704
113.178
104.287
105.448
102.88
103.417
102.89
102.701
104.306
103.432
105.469
115.007
114.445
114.723
113.909
114.173
113.395
113.648
112.906
113.147
112.439
112.668
112
112.216
111.586
111.79
111.199
111.39
110.837
111.015
110.496
110.664
110.177
110.334
109.879
110.026
109.602
109.738
109.346
109.472
109.11
109.225
108.894
109
108.699
108.794
108.524
108.609
108.369
108.444
108.235
108.3
108.123
108.176
108.032
108.075
107.962
107.994
107.912
107.934
107.884
107.895
107.877
107.877
107.892
107.881
107.93
107.908
107.99
107.958
108.071
108.028
108.175
108.12
108.236
115.268
115.297
113.311
113.213
109.657
109.733
109.588
109.477
109.501
109.461
109.897
109.981
106.918
108.457
113.968
113.759
113.59
113.983
114.358
114.704
115.022
115.318
115.601
115.594
113.242
109.814
109.537
109.446
109.452
109.441
109.443
109.442
109.44
109.455
109.447
109.483
109.466
109.533
109.504
109.615
109.57
109.725
109.669
109.833
109.782
109.924
109.879
110.031
109.974
110.171
110.097
110.337
110.251
110.523
110.428
110.727
110.623
110.95
110.836
111.192
111.068
111.456
111.321
111.747
111.598
112.065
111.904
112.384
112.225
112.706
112.543
113.047
112.873
113.419
113.229
113.825
113.617
114.272
114.042
114.259
114.516
104.35
105.52
102.932
103.473
102.942
102.752
104.372
103.491
106.946
105.545
110.065
108.49
115.688
115.188
115.434
114.71
114.946
114.256
114.48
113.823
114.036
113.411
113.614
113.021
113.213
112.656
112.836
112.313
112.482
111.994
112.151
111.695
111.842
111.416
111.554
111.156
111.284
110.915
111.033
110.692
110.801
110.486
110.587
110.299
110.39
110.13
110.212
109.977
110.051
109.843
109.908
109.726
109.782
109.628
109.675
109.547
109.585
109.484
109.513
109.44
109.46
109.414
109.425
109.405
109.407
109.416
109.408
109.445
109.428
109.493
109.466
109.561
109.525
109.647
109.601
109.752
109.697
109.878
109.812
110.026
109.949
115.894
115.946
113.648
113.594
111.186
111.252
111.128
111.029
111.051
111.013
114.074
113.988
110.152
111.534
111.607
111.484
110.108
111.552
114.847
114.549
114.39
114.763
115.104
115.41
115.685
115.943
116.209
116.199
113.605
111.392
111.463
111.321
111.084
110.997
111.003
110.989
110.993
110.985
110.987
110.987
110.984
111.002
110.992
111.036
111.016
111.098
111.063
111.185
111.14
111.265
111.227
111.326
111.296
111.4
111.36
111.503
111.449
111.63
111.564
111.772
111.699
111.93
111.849
112.102
112.014
112.291
112.194
112.498
112.392
112.73
112.611
112.986
112.856
113.24
113.114
113.488
113.362
113.751
113.616
114.04
113.892
114.357
114.194
114.71
114.528
115.105
114.903
115.051
115.397
115.255
107.002
108.544
104.422
105.599
102.992
103.538
103.003
102.811
104.445
103.557
107.033
105.626
108.581
116.758
116.335
116.471
116.55
115.907
116.119
115.499
115.7
115.109
115.301
114.739
114.922
114.388
114.56
114.056
114.219
113.742
113.896
113.449
113.593
113.176
113.31
112.921
113.046
112.684
112.801
112.464
112.572
112.259
112.36
112.069
112.162
111.895
111.98
111.735
111.813
111.59
111.661
111.46
111.523
111.344
111.4
111.242
111.291
111.154
111.196
111.082
111.116
111.023
111.051
110.98
111
110.95
110.963
110.936
110.941
110.935
110.934
110.95
110.941
110.98
110.963
111.025
111
111.085
111.053
111.161
111.121
111.252
111.204
111.359
111.303
111.419
113.991
113.981
112.509
112.551
112.473
112.733
112.781
110.195
111.625
114.394
114.391
114.827
114.799
115.569
115.279
115.177
115.512
115.804
116.058
116.288
116.509
116.731
117.041
116.964
112.423
112.409
112.402
113.972
112.641
112.687
112.595
112.443
112.399
112.399
112.405
112.401
112.409
112.406
112.417
112.412
112.436
112.425
112.468
112.45
112.523
112.493
112.597
112.559
112.664
112.632
112.712
112.688
112.767
112.737
112.848
112.805
112.946
112.895
113.056
112.999
113.177
113.115
113.309
113.242
113.454
113.38
113.613
113.531
113.793
113.7
113.993
113.892
114.19
114.092
114.372
114.282
114.568
114.468
114.785
114.673
115.027
114.902
115.299
115.159
115.599
115.451
115.843
115.724
115.756
116.113
115.972
107.094
108.636
104.502
105.685
103.062
103.612
103.072
102.878
104.526
103.631
107.127
105.714
110.242
108.676
112.83
111.683
116.588
116.758
116.256
116.421
115.937
116.094
115.634
115.783
115.346
115.488
115.072
115.206
114.814
114.941
114.572
114.691
114.346
114.457
114.134
114.238
113.938
114.034
113.755
113.845
113.584
113.668
113.425
113.503
113.278
113.35
113.142
113.209
113.017
113.078
112.904
112.959
112.8
112.851
112.708
112.753
112.626
112.666
112.555
112.589
112.494
112.523
112.443
112.467
112.403
112.422
112.374
112.387
112.355
112.363
112.346
112.349
112.348
112.346
112.361
112.353
112.384
112.371
112.419
112.4
112.464
112.44
112.521
112.491
112.589
112.553
112.669
112.628
112.762
112.714
114.34
114.373
113.45
113.455
113.446
113.455
113.448
113.466
114.716
114.799
112.882
113.504
113.517
113.422
112.812
113.433
115.11
115.218
115.518
115.597
116.263
115.954
115.927
116.205
116.437
116.637
116.818
116.997
117.229
117.18
114.345
113.484
113.493
113.468
113.476
113.461
113.446
113.495
113.479
113.528
113.511
113.561
113.544
113.598
113.579
113.639
113.618
113.689
113.663
113.754
113.72
113.831
113.792
113.901
113.867
113.956
113.929
114.014
113.983
114.089
114.05
114.175
114.131
114.269
114.222
114.37
114.319
114.477
114.422
114.591
114.533
114.716
114.652
114.857
114.784
115.012
114.933
115.162
115.089
115.295
115.23
115.437
115.364
115.596
115.514
115.775
115.683
115.975
115.872
116.182
116.081
116.368
116.276
116.563
116.462
116.42
116.784
116.671
110.287
111.703
107.193
108.736
104.591
105.78
103.14
103.695
103.15
102.955
104.615
103.713
107.227
105.809
110.337
108.777
111.762
117.423
117.539
117.192
117.382
116.937
117.058
116.7
116.819
116.467
116.582
116.243
116.353
116.029
116.135
115.825
115.925
115.632
115.727
115.45
115.54
115.279
115.363
115.118
115.198
114.967
115.042
114.825
114.895
114.691
114.757
114.564
114.627
114.445
114.504
114.333
114.388
114.228
114.28
114.13
114.178
114.038
114.083
113.952
113.994
113.873
113.912
113.799
113.835
113.732
113.765
113.671
113.701
113.616
113.643
113.566
113.59
113.523
113.544
113.485
113.503
113.454
113.469
113.428
113.44
113.408
113.417
113.395
113.401
113.387
113.39
113.386
113.386
113.391
113.388
113.403
113.396
113.412
114.696
114.769
113.826
113.781
113.869
113.988
113.95
114.026
113.517
113.476
112.866
113.447
115.046
115.216
115.399
115.644
115.766
116.026
116.16
116.349
116.902
116.584
116.612
116.82
116.989
117.134
117.265
117.687
117.406
117.607
117.944
117.834
118.051
114.725
113.601
113.559
113.69
113.645
113.735
113.911
114.105
114.065
114.187
114.145
114.273
114.23
114.359
114.316
114.447
114.403
114.537
114.492
114.631
114.584
114.729
114.68
114.823
114.777
114.909
114.866
114.994
114.951
115.085
115.039
115.181
115.133
115.278
115.229
115.377
115.327
115.478
115.427
115.581
115.529
115.689
115.634
115.806
115.747
115.931
115.868
116.049
115.992
116.153
116.102
116.26
116.206
116.378
116.318
116.506
116.441
116.644
116.574
116.783
116.715
116.915
116.85
117.049
116.981
117.196
117.121
117.024
117.354
117.274
110.386
111.784
107.299
108.841
104.687
105.882
103.227
103.786
103.236
103.04
104.712
103.804
107.334
105.912
110.436
108.883
112.937
111.844
113.436
113.531
117.737
117.84
117.521
117.63
117.338
117.423
117.177
117.256
117.019
117.098
116.861
116.939
116.708
116.784
116.56
116.633
116.417
116.487
116.28
116.347
116.148
116.213
116.021
116.084
115.898
115.959
115.78
115.839
115.665
115.722
115.553
115.609
115.444
115.498
115.337
115.39
115.232
115.284
115.129
115.18
115.028
115.079
114.929
114.979
114.832
114.88
114.735
114.783
114.64
114.688
114.547
114.593
114.454
114.5
114.362
114.408
114.272
114.317
114.182
114.227
114.094
114.138
114.006
114.05
113.919
113.962
113.833
113.876
113.748
113.791
113.665
113.706
113.582
113.623
113.5
113.541
113.419
113.459
113.339
113.379
115.061
115.176
113.348
113.456
115.381
115.64
113.396
112.477
112.37
112.367
113.3
112.26
115.696
116.078
116.021
116.461
116.371
116.777
116.752
117.023
117.439
117.15
117.209
117.349
117.451
117.539
225.987
329.218
117.648
117.797
117.983
117.945
183.884
113.746
118.158
113.825
115.114
112.691
112.584
112.905
112.797
113.125
113.014
113.237
113.56
113.658
114.048
113.9
113.973
114.203
114.125
114.363
114.283
114.524
114.444
114.682
114.603
114.835
114.759
114.98
114.908
115.119
115.05
115.258
115.188
115.4
115.329
115.539
115.47
115.671
115.606
115.798
115.735
115.921
115.86
116.041
115.981
116.158
116.1
116.271
116.215
116.384
116.328
116.496
116.44
116.607
116.552
116.712
116.661
116.809
116.762
116.905
116.858
117.002
116.954
117.1
117.051
117.197
117.149
117.294
117.246
117.385
117.34
117.474
117.429
117.565
117.519
117.658
117.611
117.527
117.761
117.708
112.923
113.462
110.49
111.87
107.413
108.953
104.793
105.993
103.323
103.886
103.332
103.134
104.816
103.903
107.447
106.021
110.54
108.995
112.994
111.931
113.546
117.943
118.005
117.819
117.878
117.701
117.759
117.59
117.644
117.483
117.537
117.374
117.428
117.263
117.318
117.151
117.207
117.039
117.095
116.928
116.984
116.816
116.872
116.703
116.759
116.589
116.646
116.474
116.532
116.357
116.416
116.239
116.298
116.118
116.178
115.994
116.056
115.868
115.931
115.739
115.804
115.607
115.673
115.472
115.54
115.333
115.403
115.191
115.262
115.045
115.118
114.895
114.97
114.742
114.819
114.584
114.664
114.423
114.504
114.258
114.341
114.088
114.173
113.914
114.002
113.736
113.826
113.554
113.645
113.367
113.461
113.176
113.272
112.981
113.079
112.781
112.881
112.576
112.679
112.472
115.432
115.59
110.504
110.318
86.9473
113.26
112.153
115.721
116.073
115.999
116.519
116.283
116.902
116.59
117.209
116.926
117.442
117.28
117.605
117.809
117.616
117.71
117.774
117.827
117.898
117.996
118.133
118.265
118.349
116.378
117.924
145.391
115.513
110.871
110.688
111.238
111.054
111.612
111.423
111.991
111.803
112.355
112.179
112.658
112.516
112.909
112.788
113.149
113.028
113.398
113.272
113.655
113.526
113.914
113.785
114.165
114.04
114.403
114.286
114.621
114.515
114.82
114.721
115.029
114.922
115.252
115.139
115.47
115.364
115.667
115.571
115.85
115.76
116.022
115.937
116.186
116.105
116.342
116.265
116.489
116.416
116.627
116.56
116.755
116.693
116.872
116.814
116.985
116.928
117.1
117.042
117.21
117.156
117.312
117.263
117.404
117.359
117.486
117.446
117.564
117.526
117.636
117.6
117.701
117.669
117.762
117.732
117.816
117.79
117.864
117.841
117.649
117.538
117.896
114.764
117.932
112.39
112.983
113.479
110.599
111.961
107.533
109.072
104.906
106.111
103.428
103.995
103.436
103.237
104.929
104.011
107.568
106.139
110.649
109.113
113.055
112.021
113.357
113.563
110.131
112.262
118.024
118.061
117.948
117.984
117.874
117.912
117.794
117.834
117.714
117.755
117.629
117.673
117.539
117.585
117.443
117.492
117.341
117.392
117.233
117.287
117.118
117.176
116.997
117.059
116.87
116.935
116.736
116.804
116.595
116.667
116.448
116.522
116.292
116.371
116.13
116.212
115.959
116.045
115.781
115.871
115.595
115.689
115.4
115.498
115.198
115.3
114.986
115.093
114.767
114.878
114.538
114.653
114.301
114.421
114.055
114.179
113.8
113.929
113.536
113.669
113.263
113.4
112.98
113.123
112.688
112.835
112.387
112.539
112.077
112.233
111.757
111.918
111.427
111.593
111.088
111.259
110.739
110.915
110.38
110.56
110.01
110.196
118.252
115.808
116.014
116.068
116.512
109.942
106.864
106.587
106.731
109.822
106.456
116.309
116.965
116.552
117.348
116.815
117.649
117.105
117.867
117.413
118.004
117.704
118.075
118.104
228.329
118.124
114.621
118.157
118.21
118.373
118.396
118.266
118.463
118.258
118.292
118.244
117.824
117.773
115.917
107.407
107.137
107.945
107.676
108.479
108.211
109.023
108.748
109.578
109.301
110.099
109.849
110.538
110.33
110.906
110.727
111.255
111.08
111.616
111.433
111.993
111.803
112.369
112.182
112.733
112.553
113.077
112.908
113.385
113.236
113.666
113.526
113.963
113.81
114.292
114.125
114.611
114.456
114.896
114.758
115.156
115.029
115.4
115.28
115.63
115.517
115.848
115.741
116.051
115.951
116.238
116.147
116.399
116.321
116.541
116.472
116.683
116.61
116.84
116.76
116.994
116.919
117.126
117.063
117.237
117.184
117.331
117.286
117.414
117.374
117.489
117.453
117.554
117.523
117.609
117.583
117.654
117.633
117.688
117.672
117.698
117.718
112.554
113.221
112.044
113.046
113.497
110.714
112.055
107.662
109.197
105.029
106.238
103.542
104.113
103.55
103.35
105.05
104.127
107.695
106.265
110.764
109.238
113.118
112.116
113.318
113.582
112.153
117.909
117.897
117.857
117.897
117.791
117.821
117.738
117.764
117.68
117.712
117.612
117.648
117.536
117.575
117.453
117.496
117.359
117.407
117.255
117.309
117.139
117.199
117.012
117.077
116.873
116.944
116.722
116.799
116.559
116.642
116.384
116.473
116.197
116.292
115.997
116.099
115.786
115.893
115.562
115.675
115.325
115.445
115.076
115.202
114.814
114.947
114.539
114.678
114.251
114.397
113.95
114.102
113.636
113.795
113.308
113.473
112.967
113.139
112.612
112.791
112.243
112.429
111.861
112.054
111.465
111.665
111.056
111.262
110.632
110.846
110.194
110.415
109.742
109.97
109.276
109.511
108.796
109.038
108.302
108.551
107.793
108.049
107.269
107.533
107.002
116.189
116.442
117.864
102.414
102.049
109.631
106.177
116.419
116.956
116.625
117.418
116.827
117.802
117.046
118.097
117.288
118.296
117.726
118.239
117.55
118.407
117.794
118.447
117.986
118.445
118.487
118.076
118.43
118.577
310.858
118.421
8.80507
118.425
118.458
117.691
116.812
116.744
116.326
103.134
102.776
103.846
103.491
104.558
104.201
105.282
104.916
106.016
105.65
106.701
106.373
107.28
107.002
107.779
107.536
108.252
108.014
108.744
108.493
109.254
108.997
109.763
109.51
110.255
110.011
110.72
110.492
111.134
110.934
111.51
111.324
111.914
111.706
112.367
112.136
112.806
112.592
113.197
113.007
113.553
113.378
113.887
113.722
114.203
114.047
114.501
114.354
114.78
114.644
115.034
114.911
115.248
115.147
115.43
115.342
115.621
115.521
115.846
115.729
116.067
115.96
116.255
116.167
116.408
116.335
116.536
116.475
116.648
116.594
116.748
116.7
116.833
116.792
116.903
116.87
116.959
116.932
117.012
116.983
117.013
117.031
116.897
113.183
111.934
113.112
113.518
110.834
112.155
107.798
109.329
105.161
106.373
103.666
104.24
103.672
103.472
105.18
104.253
107.831
106.399
110.884
109.37
113.185
112.215
113.279
113.603
109.751
112.043
101.679
106.308
116.988
116.892
117.181
117.099
117.141
117.165
117.049
117.085
116.994
117.023
116.931
116.965
116.851
116.892
116.759
116.806
116.654
116.708
116.535
116.596
116.4
116.469
116.248
116.326
116.08
116.166
115.894
115.989
115.692
115.795
115.472
115.584
115.236
115.356
114.983
115.111
114.712
114.849
114.425
114.571
114.12
114.275
113.799
113.962
113.46
113.632
113.104
113.284
112.731
112.92
112.34
112.538
111.932
112.138
111.506
111.722
111.063
111.287
110.602
110.835
110.124
110.365
109.627
109.878
109.113
109.372
108.581
108.849
108.031
108.308
107.463
107.749
106.877
107.172
106.273
106.577
105.651
105.965
105.012
105.334
104.354
104.685
103.677
104.018
102.983
103.332
102.27
102.628
101.539
101.907
116.577
116.877
116.778
117.407
101.306
95.8993
95.4389
95.7497
101.166
95.2911
116.948
117.878
117.11
118.265
116.69
117.668
117.283
118.551
118.242
117.478
118.733
117.691
118.819
117.893
118.828
118.529
118.048
118.795
118.636
118.061
118.74
118.685
169.897
231.632
118.686
118.641
118.636
116.654
115.142
115.089
116.741
96.807
96.3555
97.6986
97.2543
98.582
98.1396
99.4666
99.0242
100.366
99.9128
101.276
100.822
102.119
101.714
102.846
102.495
103.484
103.173
104.089
103.785
104.718
104.399
105.369
105.042
106.017
105.695
106.645
106.334
107.238
106.947
107.77
107.512
108.257
108.015
108.777
108.504
109.365
109.066
109.932
109.655
110.441
110.194
110.906
110.677
111.344
111.127
111.76
111.554
112.154
111.96
112.524
112.342
112.86
112.697
113.139
113.007
113.377
113.262
113.63
113.497
113.943
113.781
114.254
114.103
114.518
114.393
114.733
114.63
114.915
114.827
115.075
114.997
115.217
115.148
115.341
115.282
115.444
115.395
115.531
115.489
115.617
115.573
115.621
115.636
115.365
115.504
115.133
115.242
114.907
115.033
109.437
105.895
113.144
111.823
113.182
113.54
110.961
112.259
107.942
109.469
105.301
106.517
103.799
104.376
103.805
103.603
105.319
104.388
107.973
106.541
111.011
109.508
113.254
112.319
113.241
113.625
109.557
111.932
106.025
115.306
115.213
115.528
115.411
115.731
115.646
115.721
115.743
115.601
115.657
115.523
115.56
115.433
115.481
115.32
115.378
115.192
115.257
115.047
115.121
114.882
114.967
114.696
114.792
114.489
114.595
114.261
114.378
114.012
114.139
113.74
113.878
113.447
113.596
113.133
113.292
112.797
112.967
112.44
112.621
112.062
112.253
111.662
111.865
111.242
111.455
110.8
111.024
110.337
110.571
109.853
110.098
109.348
109.603
108.822
109.088
108.274
108.551
107.706
107.993
107.116
107.413
106.505
106.813
105.873
106.192
105.22
105.549
104.545
104.885
103.85
104.2
103.133
103.494
102.396
102.767
101.638
102.019
100.858
101.251
100.059
100.461
99.238
99.651
98.3967
98.82
97.5349
97.9684
96.6524
97.0961
96.2035
116.971
117.318
89.0788
88.5408
112.716
108.745
100.79
94.8274
117.143
117.866
115.061
116.639
117.278
118.347
117.66
117.399
118.735
118.257
117.526
119.012
117.672
119.177
117.833
119.237
118.57
117.983
119.219
118.719
118.099
119.148
118.79
118.081
119.051
9.388
118.949
118.863
118.837
116.273
108.947
117.163
90.1414
89.6121
91.1875
90.6668
92.2286
91.7079
93.2724
92.7493
94.3308
93.7983
95.4051
94.8699
96.3972
95.9152
97.2731
96.8489
98.037
97.6607
98.7725
98.405
99.5378
99.1524
100.329
99.9323
101.114
100.724
101.876
101.498
102.6
102.244
103.254
102.936
103.853
103.559
104.498
104.163
105.221
104.856
105.92
105.577
106.55
106.243
107.129
106.844
107.678
107.407
108.202
107.943
108.7
108.454
109.171
108.94
109.596
109.391
109.953
109.784
110.254
110.108
110.58
110.406
110.994
110.78
111.408
111.206
111.764
111.595
112.055
111.916
112.305
112.184
112.528
112.419
112.727
112.63
112.903
112.818
113.054
112.982
113.181
113.12
113.296
113.243
113.326
113.322
113.145
113.252
112.939
113.034
112.854
109.242
105.61
113.106
111.711
113.255
113.564
111.093
112.367
108.094
109.615
105.451
106.669
103.941
104.522
103.946
103.745
105.467
104.533
108.124
106.692
111.142
109.653
113.327
112.428
113.203
113.649
109.361
111.82
100.928
105.739
87.9981
94.9736
104.886
104.656
113.049
112.891
115.061
112.768
112.795
112.852
112.797
113.018
112.929
113.241
113.129
113.385
113.333
113.396
113.398
113.271
113.334
113.14
113.197
113.009
113.079
112.848
112.931
112.669
112.76
112.468
112.571
112.242
112.358
111.991
112.119
111.714
111.856
111.413
111.567
111.086
111.253
110.733
110.913
110.355
110.547
109.951
110.156
109.523
109.74
109.07
109.299
108.592
108.834
108.089
108.344
107.562
107.829
107.01
107.289
106.434
106.725
105.834
106.137
105.21
105.525
104.562
104.889
103.889
104.229
103.193
103.544
102.473
102.836
101.73
102.104
100.962
101.349
100.172
100.57
99.3576
99.7676
98.5204
98.9419
97.6602
98.0932
96.7771
97.2215
95.8715
96.3271
94.9436
95.4103
93.9935
94.4713
93.0216
93.5103
92.028
92.5274
91.0131
91.5232
89.977
90.4976
88.9206
89.4513
87.8444
88.3849
109.931
115.113
117.372
117.765
116.634
117.516
118.332
87.4514
80.1977
79.5895
80.0367
87.2991
79.431
117.66
117.616
118.823
118.279
117.695
119.209
117.775
119.478
117.871
119.627
118.624
117.982
119.665
118.807
118.104
119.614
118.918
118.161
119.505
118.103
119.365
8.77121
119.221
119.021
119.105
117.244
116.17
112.221
114.486
110.075
112.989
115.173
112.058
47.7002
117.591
81.4019
80.8018
82.5894
81.9977
83.7644
83.1782
84.935
84.3511
86.1118
85.5218
87.3074
86.7061
88.5138
87.9161
89.6531
89.0962
90.6492
90.1664
91.5303
91.0947
92.3865
91.9542
93.2767
92.8286
94.1927
93.7338
95.1042
94.6506
95.9919
95.5517
96.8382
96.4216
97.6125
97.2346
98.329
97.9731
99.0933
98.6964
99.9397
99.5142
100.761
100.359
101.506
101.143
102.199
101.858
102.858
102.532
103.489
103.177
104.093
103.795
104.665
104.384
105.187
104.933
105.621
105.416
105.989
105.809
106.392
106.175
106.911
106.642
107.436
107.178
107.892
107.676
108.266
108.086
108.593
108.434
108.886
108.743
109.152
109.023
109.389
109.274
109.596
109.496
109.772
109.688
109.918
109.85
109.969
109.956
109.886
109.949
109.779
109.833
109.622
109.717
109.321
109.474
109.132
100.409
94.3591
109.043
105.32
113.068
111.597
113.331
113.589
111.232
112.48
108.254
109.768
105.609
106.83
104.094
104.678
104.098
103.896
105.624
104.687
108.282
106.851
111.28
109.806
113.403
112.541
113.166
113.675
109.163
111.707
100.546
105.449
94.5042
109.659
109.734
109.683
109.657
109.812
109.746
109.962
109.894
110.037
110.014
110.036
110.036
109.884
109.965
109.707
109.793
109.525
109.621
109.308
109.419
109.064
109.187
108.798
108.935
108.502
108.654
108.177
108.343
107.824
108.004
107.441
107.636
107.03
107.239
106.59
106.813
106.121
106.359
105.625
105.876
105.1
105.366
104.548
104.828
103.969
104.262
103.362
103.668
102.728
103.048
102.067
102.401
101.379
101.726
100.666
101.026
99.9257
100.299
99.1596
99.5459
98.3678
98.7669
97.5504
97.9622
96.7076
97.1321
95.8396
96.2767
94.9467
95.3962
94.0293
94.491
93.0874
93.5614
92.1216
92.6075
91.1321
91.6298
90.1192
90.6286
89.0836
89.6042
88.0256
88.5574
86.9456
87.4883
85.8442
86.3975
84.7219
85.2856
83.5792
84.1531
82.4167
83.0003
81.2355
81.8284
80.6384
116.656
117.78
118.22
48.4728
71.832
71.1843
86.7496
78.8217
117.673
117.896
118.805
118.311
117.961
119.304
117.998
119.692
118.032
119.953
118.685
118.081
120.084
118.905
118.153
120.098
119.058
118.214
120.016
118.225
119.868
118.131
119.689
119.206
119.512
117.825
117.184
119.361
116.075
114.359
109.78
105.743
105.502
204.647
289.071
111.901
109.604
112.849
115.147
116.683
118.027
73.1179
72.4766
74.3912
73.756
75.6574
75.0246
76.9221
76.2899
78.1932
77.5546
79.4935
78.8387
80.8051
80.1539
82.0489
81.4484
83.1475
82.6233
84.1203
83.6398
85.0796
84.5949
86.0701
85.5678
87.094
86.5803
88.1124
87.6052
89.107
88.6133
90.0602
89.59
90.9441
90.5131
91.7739
91.3615
92.6459
92.1957
93.5934
93.1151
94.5179
94.0652
95.3664
94.9518
96.1608
95.7688
96.9211
96.5446
97.6526
97.2903
98.3547
98.0074
99.0239
98.6941
99.6359
99.339
100.144
99.905
100.577
100.365