/*--------------------------------*- C++ -*----------------------------------*\
| =========                 |                                                 |
| \\      /  F ield         | OpenFOAM: The Open Source CFD Toolbox           |
|  \\    /   O peration     | Version:  2212                                  |
|   \\  /    A nd           | Website:  www.openfoam.com                      |
|    \\/     M anipulation  |                                                 |
\*---------------------------------------------------------------------------*/
FoamFile
{
    version     2.0;
    format      ascii;
    arch        "LSB;label=32;scalar=64";
    class       volScalarField;
    location    "0.057";
    object      k_0;
}
// * * * * * * * * * * * * * * * * * * * * * * * * * * * * * * * * * * * * * //

dimensions      [0 2 -2 0 0 0 0];

internalField   nonuniform List<scalar> 
24240
(
7.19649e-06
1.35623e-05
1.73354e-05
1.73769e-05
1.73767e-05
1.73765e-05
1.73763e-05
1.7376e-05
1.73757e-05
1.73753e-05
1.73749e-05
1.73744e-05
1.73738e-05
1.73733e-05
1.73727e-05
1.73721e-05
1.73717e-05
1.73296e-05
1.35572e-05
7.18634e-06
1.94166e-11
5.57639e-09
3.2284e-08
3.84422e-08
3.46583e-08
3.46527e-08
3.46462e-08
3.46388e-08
3.46308e-08
3.46223e-08
3.46133e-08
3.46042e-08
3.4595e-08
3.45859e-08
3.45771e-08
3.45689e-08
3.83274e-08
3.21743e-08
5.54434e-09
1.9358e-11
5.49887e-15
2.46747e-14
3.75033e-13
5.16011e-09
4.26253e-09
4.26174e-09
4.26083e-09
4.2598e-09
4.25867e-09
4.25747e-09
4.25621e-09
4.25492e-09
4.25363e-09
4.25236e-09
4.25113e-09
4.24998e-09
5.14277e-09
3.74149e-13
2.45712e-14
5.49368e-15
1.00001e-15
1.00355e-15
1.03893e-15
5.29772e-12
5.23065e-12
5.23076e-12
5.2309e-12
5.23105e-12
5.23122e-12
5.2314e-12
5.23158e-12
5.23177e-12
5.23197e-12
5.23216e-12
5.23236e-12
5.23254e-12
5.2995e-12
1.03954e-15
1.00353e-15
1.00001e-15
1e-15
1e-15
1.01086e-15
7.99128e-12
8.06847e-12
8.06923e-12
8.07009e-12
8.07104e-12
8.07203e-12
8.07307e-12
8.07413e-12
8.07518e-12
8.07622e-12
8.07724e-12
8.07822e-12
8.07916e-12
8.00332e-12
1.01086e-15
1e-15
1e-15
1e-15
1e-15
1.00055e-15
4.19097e-13
4.23783e-13
4.23806e-13
4.23831e-13
4.2386e-13
4.2389e-13
4.23921e-13
4.23953e-13
4.23985e-13
4.24017e-13
4.24047e-13
4.24075e-13
4.24099e-13
4.19446e-13
1.00056e-15
1e-15
1e-15
1e-15
1e-15
1.00352e-15
2.92801e-12
2.97704e-12
2.97714e-12
2.97725e-12
2.97737e-12
2.97749e-12
2.97764e-12
2.9778e-12
2.97796e-12
2.97812e-12
2.97828e-12
2.97843e-12
2.97857e-12
2.9297e-12
1.00346e-15
1e-15
1e-15
1e-15
1e-15
1.00003e-15
2.75741e-14
2.80193e-14
2.80178e-14
2.80161e-14
2.80144e-14
2.80126e-14
2.80111e-14
2.80098e-14
2.80087e-14
2.80079e-14
2.80073e-14
2.8007e-14
2.80068e-14
2.75604e-14
1.00003e-15
1e-15
1e-15
1e-15
1e-15
1.00017e-15
1.80906e-13
1.85196e-13
1.85185e-13
1.85173e-13
1.85163e-13
1.85153e-13
1.85146e-13
1.85142e-13
1.85142e-13
1.85144e-13
1.8515e-13
1.85157e-13
1.85165e-13
1.80876e-13
1.00016e-15
1e-15
1e-15
1e-15
1e-15
1e-15
3.35184e-15
3.40845e-15
3.40954e-15
3.41083e-15
3.41228e-15
3.41389e-15
3.41562e-15
3.41744e-15
3.41933e-15
3.42124e-15
3.42315e-15
3.42496e-15
3.42665e-15
3.37196e-15
1e-15
1e-15
1e-15
1e-15
1e-15
1e-15
1.06584e-15
1.06738e-15
1.06806e-15
1.06886e-15
1.06977e-15
1.07075e-15
1.07182e-15
1.07293e-15
1.07409e-15
1.07525e-15
1.07641e-15
1.07752e-15
1.07855e-15
1.0783e-15
1e-15
1e-15
1e-15
1e-15
1e-15
1.00001e-15
1.90851e-14
1.9339e-14
1.93278e-14
1.93154e-14
1.93022e-14
1.92886e-14
1.92751e-14
1.92619e-14
1.92496e-14
1.92383e-14
1.92285e-14
1.92202e-14
1.92137e-14
1.89476e-14
1.00001e-15
1e-15
1e-15
1e-15
1e-15
1e-15
1.70435e-15
1.7134e-15
1.71387e-15
1.71445e-15
1.71517e-15
1.71602e-15
1.71697e-15
1.71803e-15
1.71918e-15
1.72041e-15
1.72168e-15
1.72298e-15
1.72427e-15
1.71672e-15
1e-15
1e-15
1e-15
1e-15
1e-15
1.00357e-15
3.0795e-12
3.10672e-12
3.10651e-12
3.10629e-12
3.10607e-12
3.10585e-12
3.10565e-12
3.10548e-12
3.10534e-12
3.10526e-12
3.10523e-12
3.10526e-12
3.10536e-12
3.07812e-12
1.00333e-15
1e-15
1e-15
1e-15
1e-15
1.00021e-15
1.50162e-13
1.51275e-13
1.51265e-13
1.51255e-13
1.51245e-13
1.51235e-13
1.51227e-13
1.51221e-13
1.51217e-13
1.51217e-13
1.51219e-13
1.51225e-13
1.51234e-13
1.50125e-13
1.00019e-15
1e-15
1e-15
1e-15
1e-15
1.16334e-15
1.05181e-10
1.0569e-10
1.05686e-10
1.05683e-10
1.05679e-10
1.05675e-10
1.05672e-10
1.05669e-10
1.05666e-10
1.05664e-10
1.05663e-10
1.05663e-10
1.05664e-10
1.05154e-10
1.15029e-15
1e-15
1e-15
1.00006e-15
1.00445e-15
4.09021e-14
5.91933e-11
5.89262e-11
5.85111e-11
5.85082e-11
5.85052e-11
5.85023e-11
5.84996e-11
5.88811e-11
5.85322e-11
5.8531e-11
5.85305e-11
5.85306e-11
5.89411e-11
5.92113e-11
4.07069e-14
1.00442e-15
1.00006e-15
2.61069e-14
7.65737e-14
1.36073e-08
1.85607e-08
1.42088e-08
1.4343e-08
1.43394e-08
1.43352e-08
1.43305e-08
1.43255e-08
1.57777e-08
1.43241e-08
1.43183e-08
1.43125e-08
1.43068e-08
1.41634e-08
1.84894e-08
1.35412e-08
7.46325e-14
2.6068e-14
8.6842e-11
4.91569e-09
1.17861e-07
1.4257e-07
1.29027e-07
1.29004e-07
1.28976e-07
1.28944e-07
1.28907e-07
1.28868e-07
1.29039e-07
1.28788e-07
1.28743e-07
1.28698e-07
1.28654e-07
1.28611e-07
1.42039e-07
1.17364e-07
4.87894e-09
8.66642e-11
3.94698e-05
5.99267e-05
7.49062e-05
7.50965e-05
7.50935e-05
7.50913e-05
7.50887e-05
7.50855e-05
7.5082e-05
7.5078e-05
7.50736e-05
7.5069e-05
7.50642e-05
7.50593e-05
7.50545e-05
7.50498e-05
7.50469e-05
7.48516e-05
5.98769e-05
3.9419e-05
5.16849e-06
1.04155e-05
1.3103e-05
1.31154e-05
1.3115e-05
1.31148e-05
1.31146e-05
1.31143e-05
1.3114e-05
1.31136e-05
1.31131e-05
1.31126e-05
1.31121e-05
1.31115e-05
1.31108e-05
1.31102e-05
1.31099e-05
1.30969e-05
1.041e-05
5.15973e-06
6.20046e-12
9.80685e-09
6.0607e-08
7.29815e-08
6.53886e-08
6.53795e-08
6.53688e-08
6.53569e-08
6.53438e-08
6.53298e-08
6.53153e-08
6.53004e-08
6.52854e-08
6.52707e-08
6.52565e-08
6.5243e-08
7.27936e-08
6.04282e-08
9.75732e-09
6.19684e-12
2.59719e-15
4.1376e-14
1.12868e-13
1.25949e-08
1.02813e-08
1.02799e-08
1.02783e-08
1.02765e-08
1.02746e-08
1.02725e-08
1.02703e-08
1.02681e-08
1.02659e-08
1.02637e-08
1.02616e-08
1.02596e-08
1.25644e-08
1.12226e-13
4.12157e-14
2.5895e-15
1e-15
1.00704e-15
1.16795e-15
6.40923e-11
6.42395e-11
6.42407e-11
6.42421e-11
6.42437e-11
6.42455e-11
6.42474e-11
6.42495e-11
6.42517e-11
6.42541e-11
6.42565e-11
6.42589e-11
6.42613e-11
6.41165e-11
1.17084e-15
1.00701e-15
1e-15
1e-15
1e-15
1.10571e-15
8.98328e-11
9.07002e-11
9.07058e-11
9.07122e-11
9.07193e-11
9.07268e-11
9.07345e-11
9.07425e-11
9.07505e-11
9.07585e-11
9.07663e-11
9.0774e-11
9.07814e-11
8.99245e-11
1.10597e-15
1e-15
1e-15
1e-15
1e-15
1.00661e-15
5.72455e-12
5.78806e-12
5.78826e-12
5.78848e-12
5.78873e-12
5.78899e-12
5.78926e-12
5.78954e-12
5.78982e-12
5.7901e-12
5.79036e-12
5.7906e-12
5.79082e-12
5.72759e-12
1.00671e-15
1e-15
1e-15
1e-15
1e-15
1.03538e-15
3.42736e-11
3.48382e-11
3.48387e-11
3.48394e-11
3.48402e-11
3.48409e-11
3.48419e-11
3.4843e-11
3.48441e-11
3.48453e-11
3.48464e-11
3.48475e-11
3.48486e-11
3.42853e-11
1.03462e-15
1e-15
1e-15
1e-15
1e-15
1.00039e-15
4.56044e-13
4.63578e-13
4.63539e-13
4.63494e-13
4.63447e-13
4.63398e-13
4.63351e-13
4.63306e-13
4.63266e-13
4.63229e-13
4.63198e-13
4.6317e-13
4.63148e-13
4.55569e-13
1.00039e-15
1e-15
1e-15
1e-15
1e-15
1.00196e-15
2.66333e-12
2.72541e-12
2.72508e-12
2.72471e-12
2.72433e-12
2.72395e-12
2.72361e-12
2.7233e-12
2.72305e-12
2.72284e-12
2.7227e-12
2.7226e-12
2.72255e-12
2.66023e-12
1.00187e-15
1e-15
1e-15
1e-15
1e-15
1.00003e-15
2.80174e-14
2.86887e-14
2.86926e-14
2.86973e-14
2.87028e-14
2.87089e-14
2.87155e-14
2.87228e-14
2.87304e-14
2.87382e-14
2.87462e-14
2.87539e-14
2.87611e-14
2.80978e-14
1.00002e-15
1e-15
1e-15
1e-15
1e-15
1e-15
1.23248e-15
1.23798e-15
1.24001e-15
1.24237e-15
1.24504e-15
1.24795e-15
1.25109e-15
1.25439e-15
1.25779e-15
1.26123e-15
1.26464e-15
1.26792e-15
1.27099e-15
1.26929e-15
1e-15
1e-15
1e-15
1e-15
1e-15
1.0002e-15
3.83772e-13
3.89197e-13
3.89048e-13
3.88882e-13
3.88706e-13
3.88525e-13
3.88346e-13
3.88171e-13
3.88009e-13
3.87861e-13
3.87733e-13
3.87626e-13
3.87546e-13
3.81967e-13
1.0002e-15
1e-15
1e-15
1e-15
1e-15
1.00001e-15
7.67517e-15
7.76117e-15
7.76019e-15
7.7592e-15
7.75839e-15
7.75776e-15
7.75741e-15
7.75735e-15
7.75766e-15
7.75833e-15
7.7594e-15
7.76082e-15
7.7626e-15
7.67787e-15
1.00001e-15
1e-15
1e-15
1e-15
1e-15
1.03578e-15
3.60858e-11
3.64057e-11
3.64038e-11
3.64017e-11
3.63997e-11
3.63977e-11
3.6396e-11
3.63945e-11
3.63934e-11
3.63928e-11
3.63928e-11
3.63933e-11
3.63946e-11
3.60749e-11
1.03342e-15
1e-15
1e-15
1e-15
1e-15
1.00184e-15
1.6571e-12
1.6697e-12
1.66964e-12
1.66957e-12
1.6695e-12
1.66945e-12
1.66941e-12
1.66938e-12
1.66938e-12
1.66942e-12
1.66948e-12
1.66957e-12
1.6697e-12
1.65719e-12
1.00172e-15
1e-15
1e-15
1e-15
1e-15
2.25698e-15
9.63725e-10
9.68471e-10
9.6845e-10
9.68427e-10
9.68403e-10
9.68379e-10
9.68359e-10
9.68341e-10
9.68329e-10
9.68323e-10
9.68324e-10
9.68331e-10
9.68344e-10
9.63594e-10
2.1554e-15
1e-15
1e-15
1.00002e-15
1.00792e-15
8.81937e-14
6.15022e-10
6.14817e-10
6.11751e-10
6.11732e-10
6.11713e-10
6.11695e-10
6.1168e-10
6.14222e-10
6.11897e-10
6.11895e-10
6.11899e-10
6.11908e-10
6.14952e-10
6.15136e-10
8.77908e-14
1.00786e-15
1.00002e-15
1.77431e-14
1.16168e-13
3.15269e-08
4.61564e-08
3.84031e-08
3.73013e-08
3.72943e-08
3.72862e-08
3.72772e-08
3.72675e-08
4.13337e-08
3.72479e-08
3.72368e-08
3.72257e-08
3.72149e-08
3.83048e-08
4.60063e-08
3.14107e-08
1.12162e-13
1.77046e-14
5.60211e-11
8.76371e-09
2.15075e-07
2.63769e-07
2.37323e-07
2.37224e-07
2.37177e-07
2.37123e-07
2.37064e-07
2.36998e-07
2.37291e-07
2.36863e-07
2.36789e-07
2.36715e-07
2.36642e-07
2.36634e-07
2.62885e-07
2.14258e-07
8.70388e-09
5.59156e-11
4.07598e-05
5.52776e-05
6.72151e-05
6.72845e-05
6.72802e-05
6.72777e-05
6.72747e-05
6.72711e-05
6.7267e-05
6.72625e-05
6.72575e-05
6.72524e-05
6.7247e-05
6.72415e-05
6.72361e-05
6.72309e-05
6.72285e-05
6.71537e-05
5.52213e-05
4.07003e-05
1.35093e-05
1.74617e-05
2.0601e-05
2.05699e-05
2.05696e-05
2.05694e-05
2.05691e-05
2.05687e-05
2.05683e-05
2.05678e-05
2.05673e-05
2.05667e-05
2.0566e-05
2.05653e-05
2.05646e-05
2.05639e-05
2.05634e-05
2.05937e-05
1.74547e-05
1.35005e-05
1.83797e-11
1.11854e-08
6.78507e-08
8.13005e-08
7.28055e-08
7.27973e-08
7.27878e-08
7.27771e-08
7.27654e-08
7.2753e-08
7.27401e-08
7.27269e-08
7.27136e-08
7.27006e-08
7.26879e-08
7.2676e-08
8.11325e-08
6.76904e-08
1.11417e-08
1.83547e-11
5.29698e-15
8.45221e-14
3.68046e-13
1.36025e-08
1.10961e-08
1.10948e-08
1.10933e-08
1.10916e-08
1.10898e-08
1.10878e-08
1.10858e-08
1.10837e-08
1.10816e-08
1.10796e-08
1.10776e-08
1.10758e-08
1.35739e-08
3.67511e-13
8.43575e-14
5.29114e-15
1.00002e-15
1.01583e-15
1.77094e-15
6.56234e-10
6.57866e-10
6.5787e-10
6.57876e-10
6.57883e-10
6.57891e-10
6.579e-10
6.57911e-10
6.57923e-10
6.57937e-10
6.57951e-10
6.57966e-10
6.57982e-10
6.56365e-10
1.7799e-15
1.0158e-15
1.00002e-15
1e-15
1.00001e-15
1.71461e-15
7.97705e-10
8.05382e-10
8.05408e-10
8.05438e-10
8.05471e-10
8.05507e-10
8.05544e-10
8.05583e-10
8.05623e-10
8.05663e-10
8.05704e-10
8.05744e-10
8.05783e-10
7.9816e-10
1.72143e-15
1.00001e-15
1e-15
1e-15
1e-15
1.05975e-15
6.52288e-11
6.59473e-11
6.59487e-11
6.59501e-11
6.59518e-11
6.59536e-11
6.59555e-11
6.59574e-11
6.59595e-11
6.59615e-11
6.59634e-11
6.59652e-11
6.59668e-11
6.52502e-11
1.06058e-15
1e-15
1e-15
1e-15
1e-15
1.23343e-15
3.07737e-10
3.12675e-10
3.12675e-10
3.12676e-10
3.12676e-10
3.12677e-10
3.12679e-10
3.12682e-10
3.12686e-10
3.12689e-10
3.12693e-10
3.12697e-10
3.12702e-10
3.07767e-10
1.22881e-15
1e-15
1e-15
1e-15
1e-15
1.00366e-15
6.27606e-12
6.37915e-12
6.3788e-12
6.3784e-12
6.37798e-12
6.37754e-12
6.37713e-12
6.37673e-12
6.37638e-12
6.37605e-12
6.37578e-12
6.37554e-12
6.37535e-12
6.27183e-12
1.00363e-15
1e-15
1e-15
1e-15
1e-15
1.01418e-15
2.71049e-11
2.76986e-11
2.76966e-11
2.76944e-11
2.76921e-11
2.76898e-11
2.76876e-11
2.76856e-11
2.76839e-11
2.76825e-11
2.76814e-11
2.76805e-11
2.76799e-11
2.70843e-11
1.01353e-15
1e-15
1e-15
1e-15
1e-15
1.00012e-15
1.40042e-13
1.43019e-13
1.43019e-13
1.43018e-13
1.43019e-13
1.4302e-13
1.43023e-13
1.43028e-13
1.43034e-13
1.43041e-13
1.4305e-13
1.43059e-13
1.43068e-13
1.40097e-13
1.00012e-15
1e-15
1e-15
1e-15
1e-15
1e-15
1.51882e-15
1.53036e-15
1.533e-15
1.5361e-15
1.53958e-15
1.54339e-15
1.54748e-15
1.55178e-15
1.55621e-15
1.56069e-15
1.56512e-15
1.56938e-15
1.57335e-15
1.56683e-15
1e-15
1e-15
1e-15
1e-15
1e-15
1.00236e-15
6.50046e-12
6.59267e-12
6.59144e-12
6.59007e-12
6.58864e-12
6.58718e-12
6.58575e-12
6.58437e-12
6.58312e-12
6.58201e-12
6.58111e-12
6.58041e-12
6.57996e-12
6.48668e-12
1.0023e-15
1e-15
1e-15
1e-15
1e-15
1.00004e-15
5.64605e-14
5.71431e-14
5.71315e-14
5.71188e-14
5.71056e-14
5.70923e-14
5.70794e-14
5.70673e-14
5.70566e-14
5.70475e-14
5.70406e-14
5.70358e-14
5.70336e-14
5.63433e-14
1.00004e-15
1e-15
1e-15
1e-15
1e-15
1.22628e-15
3.14909e-10
3.1771e-10
3.17701e-10
3.17692e-10
3.17684e-10
3.17676e-10
3.17671e-10
3.17667e-10
3.17666e-10
3.17669e-10
3.17675e-10
3.17686e-10
3.177e-10
3.14909e-10
1.21338e-15
1e-15
1e-15
1e-15
1e-15
1.01555e-15
1.74472e-11
1.75741e-11
1.75739e-11
1.75736e-11
1.75735e-11
1.75734e-11
1.75735e-11
1.75737e-11
1.75742e-11
1.75749e-11
1.75759e-11
1.75771e-11
1.75787e-11
1.74531e-11
1.01476e-15
1e-15
1e-15
1e-15
1e-15
7.06279e-15
6.37251e-09
6.40473e-09
6.40466e-09
6.40459e-09
6.40452e-09
6.40446e-09
6.40442e-09
6.40441e-09
6.40442e-09
6.40447e-09
6.40456e-09
6.40468e-09
6.40482e-09
6.37268e-09
6.61584e-15
1e-15
1e-15
1.00005e-15
1.0101e-15
1.0353e-13
4.9118e-09
4.91967e-09
4.90651e-09
4.90644e-09
4.90638e-09
4.90633e-09
4.9063e-09
4.91726e-09
4.90711e-09
4.90717e-09
4.90726e-09
4.90738e-09
4.92055e-09
4.91257e-09
1.02934e-13
1.01004e-15
1.00005e-15
2.98641e-14
1.38944e-13
3.44005e-08
5.12281e-08
4.39912e-08
4.19176e-08
4.19107e-08
4.19027e-08
4.18938e-08
4.18842e-08
4.64275e-08
4.18645e-08
4.18535e-08
4.18425e-08
4.18318e-08
4.38936e-08
5.10806e-08
3.42871e-08
1.34283e-13
2.98202e-14
1.06555e-10
1.14947e-08
2.49187e-07
3.0454e-07
2.7407e-07
2.73933e-07
2.73888e-07
2.73837e-07
2.7378e-07
2.73718e-07
2.73903e-07
2.73589e-07
2.73519e-07
2.73449e-07
2.7338e-07
2.73414e-07
3.03695e-07
2.48407e-07
1.14325e-08
1.06386e-10
7.16592e-05
7.57736e-05
8.86794e-05
8.86276e-05
8.86242e-05
8.86217e-05
8.86186e-05
8.86151e-05
8.86111e-05
8.86067e-05
8.86018e-05
8.85969e-05
8.85918e-05
8.85866e-05
8.85815e-05
8.85766e-05
8.85738e-05
8.86203e-05
7.57181e-05
7.15876e-05
8.09527e-07
3.37177e-06
4.52456e-06
4.53479e-06
4.53478e-06
4.53476e-06
4.53473e-06
4.5347e-06
4.53464e-06
4.53458e-06
4.5345e-06
4.5344e-06
4.5343e-06
4.53418e-06
4.53405e-06
4.5339e-06
4.53375e-06
4.52335e-06
3.37069e-06
8.07966e-07
3.34178e-12
1.01519e-08
4.51536e-08
5.34205e-08
4.70803e-08
4.70782e-08
4.70758e-08
4.70731e-08
4.70701e-08
4.70671e-08
4.70639e-08
4.70606e-08
4.70574e-08
4.70542e-08
4.70511e-08
4.70481e-08
5.33763e-08
4.5111e-08
1.01372e-08
3.33862e-12
1.62643e-15
2.84272e-13
1.04548e-12
9.35068e-09
7.45107e-09
7.45065e-09
7.45018e-09
7.44966e-09
7.4491e-09
7.4485e-09
7.44788e-09
7.44725e-09
7.44662e-09
7.446e-09
7.4454e-09
7.44483e-09
9.34143e-09
1.04533e-12
2.8404e-13
1.62601e-15
1.00017e-15
1.07545e-15
3.69394e-15
2.86481e-09
2.87609e-09
2.87611e-09
2.87613e-09
2.87616e-09
2.87619e-09
2.87623e-09
2.87626e-09
2.8763e-09
2.87634e-09
2.87638e-09
2.87642e-09
2.87646e-09
2.8652e-09
3.7255e-15
1.07539e-15
1.00017e-15
1e-15
1.00005e-15
3.82033e-15
3.298e-09
3.33024e-09
3.33028e-09
3.33032e-09
3.33037e-09
3.33043e-09
3.33048e-09
3.33054e-09
3.3306e-09
3.33066e-09
3.33072e-09
3.33077e-09
3.33082e-09
3.29865e-09
3.85746e-15
1.00005e-15
1e-15
1e-15
1e-15
1.36592e-15
4.96302e-10
5.01715e-10
5.01718e-10
5.01722e-10
5.01727e-10
5.01731e-10
5.01736e-10
5.0174e-10
5.01745e-10
5.0175e-10
5.01754e-10
5.01757e-10
5.01759e-10
4.96347e-10
1.37048e-15
1e-15
1e-15
1e-15
1e-15
1.71534e-15
9.53618e-10
9.67796e-10
9.67792e-10
9.67786e-10
9.67779e-10
9.67773e-10
9.67769e-10
9.67767e-10
9.67765e-10
9.67764e-10
9.67764e-10
9.67763e-10
9.67763e-10
9.53582e-10
1.70229e-15
1e-15
1e-15
1e-15
1e-15
1.01869e-15
3.51363e-11
3.56696e-11
3.56683e-11
3.56668e-11
3.56653e-11
3.56636e-11
3.56621e-11
3.56605e-11
3.56592e-11
3.56579e-11
3.56569e-11
3.5656e-11
3.56552e-11
3.51202e-11
1.01866e-15
1e-15
1e-15
1e-15
1e-15
1.03127e-15
5.92059e-11
6.02175e-11
6.02131e-11
6.0208e-11
6.02027e-11
6.01971e-11
6.01918e-11
6.01865e-11
6.01819e-11
6.01776e-11
6.0174e-11
6.01708e-11
6.01682e-11
5.91514e-11
1.0299e-15
1e-15
1e-15
1e-15
1e-15
1.00025e-15
3.9827e-13
4.0491e-13
4.04859e-13
4.04801e-13
4.04742e-13
4.04682e-13
4.04627e-13
4.04575e-13
4.04532e-13
4.04495e-13
4.04468e-13
4.04447e-13
4.04434e-13
3.97746e-13
1.00024e-15
1e-15
1e-15
1e-15
1e-15
1e-15
2.12836e-15
2.14606e-15
2.14736e-15
2.14888e-15
2.15066e-15
2.15265e-15
2.15478e-15
2.15701e-15
2.15931e-15
2.16162e-15
2.16392e-15
2.16609e-15
2.16809e-15
2.15313e-15
1e-15
1e-15
1e-15
1e-15
1e-15
1.01016e-15
2.65742e-11
2.69187e-11
2.69155e-11
2.69119e-11
2.69081e-11
2.69042e-11
2.69004e-11
2.68967e-11
2.68933e-11
2.68903e-11
2.68878e-11
2.68859e-11
2.68847e-11
2.65375e-11
1.00999e-15
1e-15
1e-15
1e-15
1e-15
1.00021e-15
3.87811e-13
3.92041e-13
3.9203e-13
3.92018e-13
3.92007e-13
3.91996e-13
3.91989e-13
3.91984e-13
3.91984e-13
3.91988e-13
3.91999e-13
3.92017e-13
3.92042e-13
3.87838e-13
1.0002e-15
1e-15
1e-15
1e-15
1e-15
1.58848e-15
8.81238e-10
8.89276e-10
8.89265e-10
8.89254e-10
8.89245e-10
8.89237e-10
8.89232e-10
8.89231e-10
8.89234e-10
8.89244e-10
8.89262e-10
8.89286e-10
8.89318e-10
8.81308e-10
1.56445e-15
1e-15
1e-15
1e-15
1e-15
1.11313e-15
1.75406e-10
1.76625e-10
1.76626e-10
1.76627e-10
1.76629e-10
1.76633e-10
1.76637e-10
1.76643e-10
1.76651e-10
1.7666e-10
1.76672e-10
1.76685e-10
1.767e-10
1.75496e-10
1.10881e-15
1e-15
1e-15
1e-15
1.00001e-15
1.29154e-14
1.30316e-08
1.3105e-08
1.3105e-08
1.31049e-08
1.31048e-08
1.31048e-08
1.31048e-08
1.31048e-08
1.31048e-08
1.3105e-08
1.31051e-08
1.31053e-08
1.31055e-08
1.30323e-08
1.23301e-14
1.00001e-15
1e-15
1.00001e-15
1.01115e-15
9.91679e-14
1.15344e-08
1.15831e-08
1.15784e-08
1.15785e-08
1.15785e-08
1.15786e-08
1.15787e-08
1.15809e-08
1.1578e-08
1.15782e-08
1.15784e-08
1.15787e-08
1.15837e-08
1.15353e-08
9.84775e-14
1.01109e-15
1.00001e-15
7.57885e-15
1.16889e-13
3.1076e-08
4.19526e-08
4.00988e-08
3.37785e-08
3.37751e-08
3.37713e-08
3.37671e-08
3.37626e-08
3.79017e-08
3.37495e-08
3.37444e-08
3.37394e-08
3.37346e-08
4.00301e-08
4.18781e-08
3.1018e-08
1.13979e-13
7.57005e-15
2.45357e-11
1.29227e-08
2.01024e-07
2.44182e-07
2.17331e-07
2.17047e-07
2.17028e-07
2.17006e-07
2.16982e-07
2.16956e-07
2.17089e-07
2.16903e-07
2.16874e-07
2.16846e-07
2.16819e-07
2.17058e-07
2.43822e-07
2.00689e-07
1.28723e-08
2.45038e-11
1.7946e-05
2.82774e-05
3.52407e-05
3.53026e-05
3.53014e-05
3.53006e-05
3.52997e-05
3.52985e-05
3.52972e-05
3.52958e-05
3.52942e-05
3.52927e-05
3.5291e-05
3.52894e-05
3.52878e-05
3.52862e-05
3.52853e-05
3.52215e-05
2.82596e-05
1.79262e-05
4.97283e-07
2.99814e-06
3.93455e-06
3.93403e-06
3.93405e-06
3.93407e-06
3.93408e-06
3.93409e-06
3.9341e-06
3.93411e-06
3.93411e-06
3.9341e-06
3.93408e-06
3.93406e-06
3.93403e-06
3.93399e-06
3.93392e-06
3.93439e-06
2.99804e-06
4.9714e-07
1.7287e-11
7.94448e-09
3.33566e-08
3.91245e-08
3.4569e-08
3.45676e-08
3.4566e-08
3.45643e-08
3.45624e-08
3.45604e-08
3.45584e-08
3.45564e-08
3.45544e-08
3.45524e-08
3.45504e-08
3.45485e-08
3.90972e-08
3.333e-08
7.93591e-09
1.72681e-11
5.7116e-15
1.23941e-12
4.61088e-12
6.80925e-09
5.42793e-09
5.42768e-09
5.42741e-09
5.42711e-09
5.4268e-09
5.42646e-09
5.42612e-09
5.42577e-09
5.42542e-09
5.42508e-09
5.42475e-09
5.42445e-09
6.80426e-09
4.61091e-12
1.23897e-12
5.70989e-15
1.00157e-15
1.4712e-15
7.02364e-15
5.43806e-09
5.48994e-09
5.48991e-09
5.48988e-09
5.48985e-09
5.48982e-09
5.48979e-09
5.48976e-09
5.48974e-09
5.48972e-09
5.4897e-09
5.4897e-09
5.48971e-09
5.43784e-09
7.13202e-15
1.47088e-15
1.00157e-15
1e-15
1.00036e-15
5.94195e-15
5.83733e-09
5.89652e-09
5.89649e-09
5.89647e-09
5.89645e-09
5.89643e-09
5.8964e-09
5.89638e-09
5.89636e-09
5.89634e-09
5.89633e-09
5.89634e-09
5.89636e-09
5.8372e-09
6.11508e-15
1.00036e-15
1e-15
1e-15
1e-15
1.76073e-15
1.08669e-09
1.09838e-09
1.09837e-09
1.09836e-09
1.09836e-09
1.09835e-09
1.09834e-09
1.09833e-09
1.09832e-09
1.09831e-09
1.09831e-09
1.0983e-09
1.09831e-09
1.08662e-09
1.78608e-15
1e-15
1e-15
1e-15
1e-15
2.05523e-15
1.44401e-09
1.46291e-09
1.4629e-09
1.46288e-09
1.46287e-09
1.46285e-09
1.46283e-09
1.46281e-09
1.46279e-09
1.46278e-09
1.46276e-09
1.46275e-09
1.46275e-09
1.44383e-09
2.04801e-15
1e-15
1e-15
1e-15
1e-15
1.03241e-15
6.70105e-11
6.78993e-11
6.78968e-11
6.78938e-11
6.78906e-11
6.7887e-11
6.78834e-11
6.78798e-11
6.78763e-11
6.78729e-11
6.78698e-11
6.78668e-11
6.7864e-11
6.69708e-11
1.0328e-15
1e-15
1e-15
1e-15
1e-15
1.04989e-15
9.64245e-11
9.781e-11
9.7805e-11
9.7799e-11
9.77926e-11
9.77857e-11
9.7779e-11
9.77722e-11
9.7766e-11
9.77599e-11
9.77546e-11
9.77493e-11
9.77442e-11
9.63502e-11
1.04792e-15
1e-15
1e-15
1e-15
1e-15
1.00054e-15
1.64099e-12
1.66375e-12
1.66352e-12
1.66324e-12
1.66296e-12
1.66265e-12
1.66235e-12
1.66205e-12
1.66177e-12
1.6615e-12
1.66127e-12
1.66104e-12
1.66083e-12
1.63771e-12
1.00054e-15
1e-15
1e-15
1e-15
1e-15
1e-15
1.47191e-14
1.48795e-14
1.48755e-14
1.48708e-14
1.48658e-14
1.48605e-14
1.48553e-14
1.48501e-14
1.48453e-14
1.48406e-14
1.48364e-14
1.48322e-14
1.48284e-14
1.46626e-14
1e-15
1e-15
1e-15
1e-15
1e-15
1.03069e-15
7.61659e-11
7.708e-11
7.70753e-11
7.70699e-11
7.70642e-11
7.70582e-11
7.70522e-11
7.70463e-11
7.70409e-11
7.70358e-11
7.70316e-11
7.70282e-11
7.70257e-11
7.6107e-11
1.03041e-15
1e-15
1e-15
1e-15
1e-15
1.00194e-15
6.84306e-12
6.91188e-12
6.91203e-12
6.91221e-12
6.91244e-12
6.91268e-12
6.91299e-12
6.91332e-12
6.91372e-12
6.91414e-12
6.91464e-12
6.9152e-12
6.91581e-12
6.84779e-12
1.00191e-15
1e-15
1e-15
1e-15
1e-15
2.0995e-15
1.69098e-09
1.70653e-09
1.70652e-09
1.70652e-09
1.70652e-09
1.70652e-09
1.70652e-09
1.70653e-09
1.70654e-09
1.70656e-09
1.70658e-09
1.70661e-09
1.70665e-09
1.69115e-09
2.06723e-15
1e-15
1e-15
1e-15
1e-15
1.51183e-15
8.57621e-10
8.63739e-10
8.63751e-10
8.63765e-10
8.63782e-10
8.63801e-10
8.63824e-10
8.63849e-10
8.63877e-10
8.63909e-10
8.63944e-10
8.63982e-10
8.64023e-10
8.57955e-10
1.49399e-15
1e-15
1e-15
1e-15
1.00001e-15
1.65126e-14
1.77385e-08
1.78577e-08
1.78577e-08
1.78578e-08
1.78578e-08
1.78579e-08
1.78579e-08
1.7858e-08
1.78581e-08
1.78582e-08
1.78583e-08
1.78585e-08
1.78587e-08
1.77397e-08
1.59925e-14
1.00001e-15
1e-15
1.00001e-15
1.01129e-15
8.65816e-14
1.73719e-08
1.74746e-08
1.74899e-08
1.74899e-08
1.749e-08
1.74901e-08
1.74903e-08
1.74789e-08
1.74902e-08
1.74904e-08
1.74905e-08
1.74907e-08
1.74758e-08
1.73732e-08
8.58123e-14
1.01125e-15
1.00001e-15
9.44726e-15
1.05262e-13
2.56804e-08
3.61883e-08
3.38428e-08
2.92077e-08
2.92055e-08
2.92031e-08
2.92004e-08
2.91976e-08
3.26877e-08
2.91893e-08
2.91861e-08
2.91829e-08
2.91799e-08
3.38052e-08
3.61413e-08
2.5645e-08
1.0344e-13
9.43908e-15
2.88379e-11
1.34023e-08
1.71478e-07
2.07218e-07
1.84669e-07
1.84545e-07
1.84532e-07
1.84518e-07
1.84502e-07
1.84485e-07
1.84555e-07
1.8445e-07
1.84431e-07
1.84413e-07
1.84394e-07
1.8449e-07
2.06982e-07
1.71256e-07
1.33654e-08
2.88099e-11
2.05192e-05
2.8787e-05
3.51588e-05
3.51655e-05
3.51648e-05
3.51644e-05
3.51639e-05
3.51633e-05
3.51626e-05
3.51618e-05
3.51609e-05
3.51601e-05
3.51592e-05
3.51584e-05
3.51575e-05
3.51565e-05
3.51559e-05
3.51481e-05
2.87765e-05
2.05058e-05
3.6046e-07
2.23401e-06
3.01833e-06
3.02108e-06
3.02113e-06
3.02115e-06
3.02118e-06
3.02121e-06
3.02124e-06
3.02127e-06
3.0213e-06
3.02133e-06
3.02136e-06
3.02138e-06
3.0214e-06
3.02142e-06
3.02139e-06
3.01867e-06
2.23439e-06
3.60281e-07
8.58184e-11
7.79684e-09
3.09231e-08
3.61649e-08
3.19049e-08
3.19041e-08
3.19031e-08
3.19021e-08
3.1901e-08
3.18999e-08
3.18988e-08
3.18977e-08
3.18966e-08
3.18955e-08
3.18945e-08
3.18934e-08
3.61495e-08
3.09083e-08
7.79174e-09
8.57406e-11
2.94716e-14
4.41747e-12
1.67651e-11
6.09401e-09
4.83004e-09
4.82987e-09
4.82971e-09
4.82954e-09
4.82936e-09
4.82917e-09
4.82897e-09
4.82878e-09
4.82859e-09
4.82841e-09
4.82822e-09
4.82808e-09
6.09105e-09
1.67571e-11
4.41441e-12
2.94553e-14
1.0116e-15
3.43296e-15
1.46661e-14
6.09285e-09
6.1503e-09
6.15026e-09
6.15021e-09
6.15016e-09
6.15011e-09
6.15007e-09
6.15002e-09
6.14997e-09
6.14993e-09
6.1499e-09
6.1499e-09
6.14992e-09
6.09248e-09
1.49052e-14
3.43122e-15
1.01159e-15
1e-15
1.00179e-15
6.58648e-15
6.59514e-09
6.66351e-09
6.66346e-09
6.66342e-09
6.66336e-09
6.66331e-09
6.66325e-09
6.66319e-09
6.66314e-09
6.6631e-09
6.66306e-09
6.66306e-09
6.6631e-09
6.59478e-09
6.88725e-15
1.00179e-15
1e-15
1e-15
1e-15
1.90834e-15
1.33614e-09
1.35054e-09
1.35053e-09
1.35052e-09
1.35051e-09
1.35049e-09
1.35048e-09
1.35046e-09
1.35044e-09
1.35043e-09
1.35042e-09
1.35042e-09
1.35043e-09
1.33605e-09
1.95314e-15
1e-15
1e-15
1e-15
1e-15
2.17877e-15
1.64736e-09
1.66779e-09
1.66778e-09
1.66776e-09
1.66774e-09
1.66772e-09
1.6677e-09
1.66768e-09
1.66765e-09
1.66763e-09
1.66762e-09
1.66761e-09
1.66761e-09
1.64718e-09
2.18434e-15
1e-15
1e-15
1e-15
1e-15
1.0421e-15
8.9917e-11
9.10363e-11
9.10331e-11
9.10291e-11
9.10247e-11
9.10198e-11
9.10148e-11
9.10095e-11
9.10043e-11
9.09991e-11
9.09941e-11
9.0989e-11
9.0984e-11
8.98576e-11
1.04295e-15
1e-15
1e-15
1e-15
1e-15
1.0652e-15
1.27968e-10
1.29613e-10
1.29609e-10
1.29603e-10
1.29596e-10
1.29589e-10
1.29581e-10
1.29574e-10
1.29566e-10
1.29558e-10
1.29549e-10
1.2954e-10
1.2953e-10
1.27869e-10
1.063e-15
1e-15
1e-15
1e-15
1e-15
1.00128e-15
4.84946e-12
4.91004e-12
4.90973e-12
4.90934e-12
4.90891e-12
4.90842e-12
4.90792e-12
4.90739e-12
4.90684e-12
4.90627e-12
4.90566e-12
4.90499e-12
4.90421e-12
4.8426e-12
1.0013e-15
1e-15
1e-15
1e-15
1e-15
1.00005e-15
3.36821e-13
3.40637e-13
3.4059e-13
3.4053e-13
3.40465e-13
3.40392e-13
3.40317e-13
3.40236e-13
3.40154e-13
3.40067e-13
3.39976e-13
3.39879e-13
3.39772e-13
3.3582e-13
1.00005e-15
1e-15
1e-15
1e-15
1e-15
1.06476e-15
1.51315e-10
1.5304e-10
1.53035e-10
1.53028e-10
1.53021e-10
1.53013e-10
1.53005e-10
1.52997e-10
1.52988e-10
1.52979e-10
1.52971e-10
1.52962e-10
1.52953e-10
1.51218e-10
1.0646e-15
1e-15
1e-15
1e-15
1e-15
1.01172e-15
3.72061e-11
3.75715e-11
3.75724e-11
3.75732e-11
3.75741e-11
3.7575e-11
3.75759e-11
3.75768e-11
3.75777e-11
3.75785e-11
3.75794e-11
3.75802e-11
3.7581e-11
3.72171e-11
1.01155e-15
1e-15
1e-15
1e-15
1e-15
2.57082e-15
2.39736e-09
2.41976e-09
2.41975e-09
2.41975e-09
2.41975e-09
2.41974e-09
2.41974e-09
2.41973e-09
2.41973e-09
2.41972e-09
2.41972e-09
2.41972e-09
2.41972e-09
2.39734e-09
2.54444e-15
1e-15
1e-15
1e-15
1e-15
2.01716e-15
1.63668e-09
1.64914e-09
1.64916e-09
1.64917e-09
1.64919e-09
1.64921e-09
1.64923e-09
1.64925e-09
1.64927e-09
1.64929e-09
1.64931e-09
1.64934e-09
1.64936e-09
1.63693e-09
1.98803e-15
1e-15
1e-15
1e-15
1.00001e-15
1.76377e-14
1.89363e-08
1.90763e-08
1.90763e-08
1.90764e-08
1.90764e-08
1.90764e-08
1.90764e-08
1.90764e-08
1.90764e-08
1.90764e-08
1.90764e-08
1.90764e-08
1.90764e-08
1.89365e-08
1.72648e-14
1.00001e-15
1e-15
1.00001e-15
1.01099e-15
7.83562e-14
1.84115e-08
1.85313e-08
1.85418e-08
1.85419e-08
1.85419e-08
1.85419e-08
1.8542e-08
1.85342e-08
1.8542e-08
1.8542e-08
1.85421e-08
1.85421e-08
1.85317e-08
1.84119e-08
7.77696e-14
1.01097e-15
1.00001e-15
7.64463e-15
9.54562e-14
2.29879e-08
3.17172e-08
2.9578e-08
2.5442e-08
2.54407e-08
2.54393e-08
2.54378e-08
2.54362e-08
2.84959e-08
2.54303e-08
2.54283e-08
2.54266e-08
2.54249e-08
2.95539e-08
3.16892e-08
2.2967e-08
9.46631e-14
7.64047e-15
2.29343e-11
1.34508e-08
1.53564e-07
1.85121e-07
1.64842e-07
1.64755e-07
1.64748e-07
1.6474e-07
1.6473e-07
1.64721e-07
1.64769e-07
1.64701e-07
1.64691e-07
1.6468e-07
1.6467e-07
1.6474e-07
1.84987e-07
1.53436e-07
1.34247e-08
2.29199e-11
1.54458e-05
2.20021e-05
2.73016e-05
2.73323e-05
2.7332e-05
2.73319e-05
2.73318e-05
2.73316e-05
2.73313e-05
2.73311e-05
2.73308e-05
2.73306e-05
2.73303e-05
2.733e-05
2.73297e-05
2.73294e-05
2.73292e-05
2.7298e-05
2.19983e-05
1.54405e-05
3.42407e-07
2.00657e-06
2.72786e-06
2.73009e-06
2.73015e-06
2.73018e-06
2.73021e-06
2.73025e-06
2.73029e-06
2.73033e-06
2.73038e-06
2.73042e-06
2.73046e-06
2.73051e-06
2.73055e-06
2.73058e-06
2.73057e-06
2.72839e-06
2.00713e-06
3.42316e-07
2.26161e-10
8.51932e-09
3.26853e-08
3.86134e-08
3.35616e-08
3.35609e-08
3.35602e-08
3.35595e-08
3.35587e-08
3.35579e-08
3.35571e-08
3.35563e-08
3.35555e-08
3.35548e-08
3.35541e-08
3.35534e-08
3.86021e-08
3.26747e-08
8.5156e-09
2.26115e-10
9.65343e-14
7.58495e-12
2.83e-11
6.10683e-09
4.81691e-09
4.81677e-09
4.81664e-09
4.81651e-09
4.81637e-09
4.81623e-09
4.81609e-09
4.81595e-09
4.81581e-09
4.81568e-09
4.81555e-09
4.81546e-09
6.10447e-09
2.8291e-11
7.58132e-12
9.65188e-14
1.04453e-15
6.7377e-15
2.62716e-14
6.198e-09
6.25239e-09
6.25235e-09
6.25231e-09
6.25227e-09
6.25222e-09
6.25218e-09
6.25213e-09
6.25209e-09
6.25206e-09
6.25204e-09
6.25204e-09
6.25208e-09
6.19773e-09
2.66021e-14
6.73458e-15
1.04453e-15
1.00002e-15
1.00469e-15
6.67514e-15
6.68703e-09
6.75731e-09
6.75726e-09
6.75722e-09
6.75717e-09
6.75712e-09
6.75706e-09
6.757e-09
6.75695e-09
6.75691e-09
6.75689e-09
6.75691e-09
6.75696e-09
6.68679e-09
7.06082e-15
1.00468e-15
1.00002e-15
1e-15
1e-15
1.96438e-15
1.43908e-09
1.45467e-09
1.45466e-09
1.45465e-09
1.45463e-09
1.45462e-09
1.4546e-09
1.45459e-09
1.45457e-09
1.45456e-09
1.45455e-09
1.45456e-09
1.45458e-09
1.43902e-09
2.0227e-15
1e-15
1e-15
1e-15
1e-15
2.21826e-15
1.73489e-09
1.75579e-09
1.75578e-09
1.75576e-09
1.75575e-09
1.75573e-09
1.75571e-09
1.75568e-09
1.75567e-09
1.75565e-09
1.75563e-09
1.75563e-09
1.75563e-09
1.73475e-09
2.23879e-15
1e-15
1e-15
1e-15
1e-15
1.04983e-15
1.10506e-10
1.11831e-10
1.11828e-10
1.11823e-10
1.11819e-10
1.11813e-10
1.11807e-10
1.11801e-10
1.11794e-10
1.11788e-10
1.11781e-10
1.11773e-10
1.11765e-10
1.10431e-10
1.05111e-15
1e-15
1e-15
1e-15
1e-15
1.08137e-15
1.61234e-10
1.63175e-10
1.63169e-10
1.63162e-10
1.63153e-10
1.63143e-10
1.63132e-10
1.63121e-10
1.63108e-10
1.63094e-10
1.63078e-10
1.6306e-10
1.63039e-10
1.6107e-10
1.07915e-15
1e-15
1e-15
1e-15
1e-15
1.00316e-15
1.20611e-11
1.22032e-11
1.22027e-11
1.22021e-11
1.22013e-11
1.22005e-11
1.21994e-11
1.21983e-11
1.2197e-11
1.21956e-11
1.21938e-11
1.21918e-11
1.21892e-11
1.2044e-11