/*--------------------------------*- C++ -*----------------------------------*\
| =========                 |                                                 |
| \\      /  F ield         | OpenFOAM: The Open Source CFD Toolbox           |
|  \\    /   O peration     | Version:  2212                                  |
|   \\  /    A nd           | Website:  www.openfoam.com                      |
|    \\/     M anipulation  |                                                 |
\*---------------------------------------------------------------------------*/
FoamFile
{
    version     2.0;
    format      ascii;
    arch        "LSB;label=32;scalar=64";
    class       surfaceScalarField;
    location    "0.000123";
    object      phi;
}
// * * * * * * * * * * * * * * * * * * * * * * * * * * * * * * * * * * * * * //

dimensions      [1 0 -1 0 0 0 0];

oriented        oriented;

internalField   nonuniform List<scalar> 
74907
(
-9.03282e-11
-8.24306e-09
2.17959e-11
-2.42095e-10
-1.72266e-08
-5.18543e-10
-2.80031e-08
-9.25938e-10
-4.12465e-08
-1.59005e-09
-5.85268e-08
-3.43199e-09
-6.85432e-08
-7.93486e-09
-9.24615e-08
-1.47325e-08
-1.43094e-07
-1.95656e-08
-1.94336e-07
-1.83781e-08
-2.38301e-07
-1.81356e-08
-2.57755e-07
-1.49898e-08
-2.52359e-07
-1.06812e-08
-2.27238e-07
-5.98659e-09
-1.78372e-07
-3.19017e-09
-1.36521e-07
-1.71733e-09
-1.27422e-07
-5.9064e-10
-1.19746e-07
9.05199e-11
-1.08205e-07
1.01224e-10
-1.25319e-07
-1.0837e-09
-1.38005e-07
-2.41227e-09
-1.26078e-07
-3.08308e-09
-1.03324e-07
-3.864e-09
-8.38127e-08
-5.31444e-09
-6.96126e-08
-8.58475e-09
-5.74228e-08
-1.30462e-08
-4.58801e-08
-1.60535e-08
-4.35611e-08
-1.8339e-08
-4.35692e-08
-1.99588e-08
-4.54528e-08
-2.12596e-08
-4.66775e-08
-2.19731e-08
-4.97208e-08
-2.24573e-08
-5.59397e-08
-2.30361e-08
-6.83561e-08
-2.30148e-08
-8.56589e-08
-2.23517e-08
-9.97553e-08
-2.11225e-08
-1.13225e-07
-1.91144e-08
-1.25928e-07
-1.65965e-08
-1.36175e-07
-1.4048e-08
-1.40128e-07
-1.11654e-08
-1.40146e-07
-7.92905e-09
-1.32339e-07
-4.89407e-09
-1.17563e-07
-2.22173e-09
-9.97655e-08
-3.23577e-10
-7.96945e-08
4.2529e-10
-5.51174e-08
-8.26945e-11
-3.49543e-08
-2.05958e-08
-7.04425e-11
-8.20511e-09
1.81506e-11
-1.85202e-10
-1.71818e-08
-3.93992e-10
-2.78517e-08
-7.03745e-10
-4.08283e-08
-1.12494e-09
-5.79453e-08
-2.00818e-09
-6.8095e-08
-4.14203e-09
-8.95688e-08
-8.2938e-09
-1.35236e-07
-1.56443e-08
-1.82622e-07
-1.82494e-08
-2.33873e-07
-1.62294e-08
-2.59477e-07
-1.36196e-08
-2.59136e-07
-9.83752e-09
-2.36117e-07
-5.62679e-09
-1.84998e-07
-3.08686e-09
-1.38032e-07
-1.70616e-09
-1.2865e-07
-6.38963e-10
-1.20712e-07
1.14606e-10
-1.09001e-07
2.20858e-10
-1.24802e-07
-9.03514e-10
-1.39849e-07
-2.15047e-09
-1.27556e-07
-2.86991e-09
-1.05032e-07
-3.73736e-09
-8.53573e-08
-5.0436e-09
-7.1001e-08
-7.65921e-09
-5.79287e-08
-1.17867e-08
-4.71773e-08
-1.47134e-08
-4.37616e-08
-1.69505e-08
-4.33319e-08
-1.86567e-08
-4.49186e-08
-1.94871e-08
-4.63995e-08
-1.99957e-08
-4.95201e-08
-2.00468e-08
-5.60051e-08
-2.0148e-08
-6.83856e-08
-1.98986e-08
-8.55963e-08
-1.89501e-08
-9.9082e-08
-1.77755e-08
-1.11856e-07
-1.62957e-08
-1.23961e-07
-1.45014e-08
-1.33929e-07
-1.22237e-08
-1.37078e-07
-9.5443e-09
-1.36757e-07
-6.88873e-09
-1.28547e-07
-4.55657e-09
-1.13676e-07
-2.59605e-09
-9.61726e-08
-1.08245e-09
-7.63465e-08
-1.94236e-10
-5.18659e-08
-6.82399e-11
-3.15701e-08
-1.70159e-08
-6.95886e-11
-8.14742e-09
1.9105e-11
-1.88009e-10
-1.70926e-08
-4.27351e-10
-2.74861e-08
-7.86294e-10
-4.03369e-08
-1.24929e-09
-5.74255e-08
-2.02822e-09
-6.61418e-08
-5.15458e-09
-8.26781e-08
-1.16286e-08
-1.1908e-07
-1.71192e-08
-1.75556e-07
-2.27732e-08
-2.28959e-07
-1.95184e-08
-2.60534e-07
-1.65916e-08
-2.69445e-07
-1.25453e-08
-2.47394e-07
-7.71335e-09
-1.9186e-07
-4.55697e-09
-1.40917e-07
-2.75838e-09
-1.30975e-07
-1.52325e-09
-1.22031e-07
-3.59572e-10
-1.09739e-07
1.41555e-10
-1.24672e-07
-1.33246e-09
-1.4177e-07
-2.89582e-09
-1.29012e-07
-3.86605e-09
-1.06796e-07
-4.9706e-09
-8.68343e-08
-6.47466e-09
-7.28301e-08
-9.15457e-09
-5.94145e-08
-1.34575e-08
-5.07964e-08
-1.71282e-08
-4.47257e-08
-1.94013e-08
-4.32521e-08
-2.0707e-08
-4.40424e-08
-2.15285e-08
-4.59781e-08
-2.22343e-08
-4.84993e-08
-2.24291e-08
-5.49573e-08
-2.25741e-08
-6.79803e-08
-2.26588e-08
-8.48014e-08
-2.17419e-08
-9.79917e-08
-2.05259e-08
-1.10097e-07
-1.90885e-08
-1.21481e-07
-1.73433e-08
-1.30772e-07
-1.47532e-08
-1.33553e-07
-1.17804e-08
-1.32793e-07
-8.88803e-09
-1.24147e-07
-6.45164e-09
-1.0918e-07
-4.51164e-09
-9.19031e-08
-2.95635e-09
-7.23757e-08
-1.94815e-09
-4.81416e-08
-1.19647e-09
-2.83244e-08
-1.40596e-08
-6.16618e-11
-8.11687e-09
1.74873e-11
-1.73249e-10
-1.68472e-08
-3.89503e-10
-2.70212e-08
-7.41839e-10
-3.9867e-08
-1.16002e-09
-5.66818e-08
-1.69575e-09
-6.48934e-08
-3.6939e-09
-7.87276e-08
-7.33203e-09
-1.13497e-07
-1.59426e-08
-1.64693e-07
-2.36197e-08
-2.21236e-07
-2.14296e-08
-2.61769e-07
-1.89342e-08
-2.79611e-07
-1.44939e-08
-2.6072e-07
-9.11655e-09
-2.01916e-07
-5.54461e-09
-1.4711e-07
-3.48596e-09
-1.34623e-07
-2.16366e-09
-1.24329e-07
-1.0748e-09
-1.10438e-07
-3.71833e-11
-1.25343e-07
-1.40392e-09
-1.43431e-07
-3.26536e-09
-1.30534e-07
-4.49425e-09
-1.08496e-07
-5.69334e-09
-8.90496e-08
-7.58162e-09
-7.48644e-08
-1.00019e-08
-6.1498e-08
-1.55417e-08
-5.53777e-08
-1.96064e-08
-4.61659e-08
-2.1242e-08
-4.3516e-08
-2.19187e-08
-4.36113e-08
-2.29564e-08
-4.5204e-08
-2.3728e-08
-4.75945e-08
-2.4192e-08
-5.4353e-08
-2.42837e-08
-6.57882e-08
-2.46922e-08
-8.34648e-08
-2.37996e-08
-9.65687e-08
-2.26904e-08
-1.0792e-07
-2.13394e-08
-1.18632e-07
-1.93394e-08
-1.27238e-07
-1.63398e-08
-1.30111e-07
-1.31906e-08
-1.28596e-07
-1.0077e-08
-1.19547e-07
-7.40259e-09
-1.0461e-07
-5.25441e-09
-8.7552e-08
-3.45688e-09
-6.83122e-08
-2.22713e-09
-4.42848e-08
-1.4649e-09
-2.47099e-08
-1.09729e-08
-5.00673e-11
-8.08003e-09
1.33982e-11
-1.45941e-10
-1.67437e-08
-3.53662e-10
-2.68502e-08
-6.842e-10
-3.97496e-08
-1.10281e-09
-5.58409e-08
-1.51382e-09
-6.34079e-08
-2.89258e-09
-7.42166e-08
-9.48356e-09
-1.07213e-07
-1.60076e-08
-1.62282e-07
-2.14686e-08
-2.11398e-07
-2.20635e-08
-2.57896e-07
-1.97491e-08
-2.83578e-07
-1.60587e-08
-2.66206e-07
-1.0722e-08
-2.07915e-07
-6.72518e-09
-1.55121e-07
-4.20847e-09
-1.40195e-07
-2.51617e-09
-1.27778e-07
-1.61934e-09
-1.12078e-07
-4.75518e-10
-1.24043e-07
-1.56659e-09
-1.43981e-07
-3.54344e-09
-1.32293e-07
-4.79591e-09
-1.10158e-07
-5.8544e-09
-9.12225e-08
-7.73224e-09
-7.68233e-08
-9.61906e-09
-6.39402e-08
-1.58722e-08
-6.22357e-08
-1.92434e-08
-4.80707e-08
-2.02823e-08
-4.39247e-08
-2.0887e-08
-4.35374e-08
-2.1918e-08
-4.49016e-08
-2.24e-08
-4.76974e-08
-2.2911e-08
-5.4475e-08
-2.27999e-08
-6.62398e-08
-2.39453e-08
-8.07258e-08
-2.32498e-08
-9.4779e-08
-2.18785e-08
-1.06255e-07
-2.06446e-08
-1.16295e-07
-1.87888e-08
-1.2373e-07
-1.6393e-08
-1.26311e-07
-1.33842e-08
-1.24544e-07
-1.0418e-08
-1.15108e-07
-7.93732e-09
-1.00198e-07
-6.04086e-09
-8.33458e-08
-4.49061e-09
-6.43613e-08
-3.15629e-09
-4.07702e-08
-2.0731e-09
-2.1581e-08
-8.68817e-09
-3.75003e-11
-7.9113e-09
9.92015e-12
-1.18152e-10
-1.66551e-08
-2.90096e-10
-2.66469e-08
-5.83809e-10
-3.91014e-08
-9.62766e-10
-5.52174e-08
-1.25242e-09
-6.26141e-08
-2.18152e-09
-7.24198e-08
-6.00102e-09
-1.03804e-07
-1.35591e-08
-1.54909e-07
-1.91293e-08
-2.00425e-07
-2.19497e-08
-2.57394e-07
-2.00891e-08
-2.85372e-07
-1.65796e-08
-2.68658e-07
-1.15367e-08
-2.13176e-07
-7.45037e-09
-1.60182e-07
-4.67625e-09
-1.46407e-07
-3.24954e-09
-1.31545e-07
-2.05562e-09
-1.13276e-07
-8.83534e-10
-1.23706e-07
-1.65533e-09
-1.43984e-07
-3.57854e-09
-1.33263e-07
-4.92592e-09
-1.11462e-07
-6.05775e-09
-9.32306e-08
-7.57026e-09
-7.89538e-08
-9.38425e-09
-6.6362e-08
-1.50448e-08
-7.01538e-08
-1.79932e-08
-5.054e-08
-1.94505e-08
-4.4795e-08
-2.04996e-08
-4.3867e-08
-2.10619e-08
-4.50767e-08
-2.15031e-08
-4.74096e-08
-2.20636e-08
-5.40118e-08
-2.17039e-08
-6.68074e-08
-2.18141e-08
-8.05597e-08
-2.33174e-08
-9.13779e-08
-2.19942e-08
-1.04639e-07
-2.06669e-08
-1.13946e-07
-1.8802e-08
-1.20206e-07
-1.65578e-08
-1.22447e-07
-1.36147e-08
-1.2062e-07
-1.08517e-08
-1.10479e-07
-8.29997e-09
-9.6029e-08
-6.30328e-09
-7.94457e-08
-4.6464e-09
-6.06802e-08
-3.34018e-09
-3.73038e-08
-2.27071e-09
-1.85057e-08
-6.70998e-09
-3.69396e-11
-7.81165e-09
8.61889e-12
-1.09968e-10
-1.65882e-08
-2.75892e-10
-2.64104e-08
-5.63205e-10
-3.8481e-08
-9.78758e-10
-5.44111e-08
-1.26818e-09
-6.22102e-08
-1.89286e-09
-7.14209e-08
-5.3526e-09
-9.98234e-08
-1.29475e-08
-1.26493e-07
-1.88487e-08
-1.96954e-07
-2.23968e-08
-2.54111e-07
-2.19401e-08
-2.85605e-07
-1.80989e-08
-2.68539e-07
-1.32767e-08
-2.22271e-07
-8.90042e-09
-1.68705e-07
-5.64386e-09
-1.50565e-07
-4.00489e-09
-1.34194e-07
-2.75083e-09
-1.14659e-07
-1.55362e-09
-1.24334e-07
-2.05838e-09
-1.44816e-07
-4.1755e-09
-1.34566e-07
-5.61597e-09
-1.12715e-07
-6.40781e-09
-9.55102e-08
-7.90958e-09
-8.11587e-08
-1.00515e-08
-6.8509e-08
-1.54606e-08
-7.1541e-08
-1.69301e-08
-5.4746e-08
-1.98754e-08
-4.62088e-08
-2.11912e-08
-4.44115e-08
-2.15427e-08
-4.54104e-08
-2.17204e-08
-4.73418e-08
-2.1863e-08
-5.37174e-08
-2.18231e-08
-6.63596e-08
-2.15265e-08
-7.99435e-08
-2.18215e-08
-9.01186e-08
-2.32041e-08
-1.0072e-07
-2.1907e-08
-1.11083e-07
-1.98752e-08
-1.16697e-07
-1.75505e-08
-1.18313e-07
-1.47666e-08
-1.16317e-07
-1.20175e-08
-1.0581e-07
-9.38644e-09
-9.18224e-08
-7.3876e-09
-7.55403e-08
-5.65519e-09
-5.69879e-08
-4.22733e-09
-3.38752e-08
-2.84036e-09
-1.5611e-08
-5.07359e-09
-2.99411e-11
-7.72989e-09
5.8996e-12
-8.75589e-11
-1.63999e-08
-2.23842e-10
-2.61615e-08
-4.84191e-10
-3.79222e-08
-8.81738e-10
-5.35434e-08
-1.17259e-09
-6.19091e-08
-1.57286e-09
-7.16117e-08
-2.97524e-09
-9.56088e-08
-1.17149e-08
-1.14409e-07
-1.83069e-08
-1.93683e-07
-2.31964e-08
-2.48567e-07
-2.32358e-08
-2.85356e-07
-1.98836e-08
-2.67451e-07
-1.49493e-08
-2.30205e-07
-9.74996e-09
-1.83745e-07
-6.3021e-09
-1.55889e-07
-4.40779e-09
-1.36912e-07
-3.17747e-09
-1.16395e-07
-1.97187e-09
-1.2451e-07
-1.84201e-09
-1.46399e-07
-4.19915e-09
-1.36309e-07
-6.04948e-09
-1.14235e-07
-6.856e-09
-9.85261e-08
-8.111e-09
-8.3559e-08
-9.67124e-09
-6.97964e-08
-1.37181e-08
-7.10434e-08
-1.60106e-08
-6.8356e-08
-1.9871e-08
-4.91599e-08
-2.17713e-08
-4.52413e-08
-2.23775e-08
-4.58808e-08
-2.25978e-08
-4.67857e-08
-2.17516e-08
-5.29185e-08
-2.13709e-08
-6.38716e-08
-2.11342e-08
-7.84327e-08
-2.12471e-08
-8.83676e-08
-2.13691e-08
-9.8446e-08
-2.14424e-08
-1.06876e-07
-2.02964e-08
-1.12548e-07
-1.79191e-08
-1.14275e-07
-1.57334e-08
-1.11478e-07
-1.273e-08
-1.01759e-07
-1.00169e-08
-8.79167e-08
-7.85571e-09
-7.18991e-08
-6.05958e-09
-5.33675e-08
-4.58602e-09
-3.05288e-08
-3.11985e-09
-1.28936e-08
-3.73326e-09
-2.21722e-11
-7.64937e-09
3.42791e-12
-7.06879e-11
-1.61747e-08
-1.9158e-10
-2.59986e-08
-4.22278e-10
-3.75846e-08
-8.26596e-10
-5.19634e-08
-1.18034e-09
-5.92852e-08
-1.57042e-09
-7.16453e-08
-2.35122e-09
-9.51811e-08
-6.99012e-09
-1.1257e-07
-1.87761e-08
-1.52695e-07
-2.33519e-08
-2.41535e-07
-2.35699e-08
-2.84675e-07
-2.22237e-08
-2.63575e-07
-1.69521e-08
-2.39631e-07
-1.10722e-08
-1.96383e-07
-7.08136e-09
-1.65926e-07
-5.03714e-09
-1.40594e-07
-3.72412e-09
-1.1858e-07
-2.2984e-09
-1.2445e-07
-1.68735e-09
-1.49666e-07
-4.20969e-09
-1.40248e-07
-6.34215e-09
-1.16076e-07
-7.20239e-09
-9.93771e-08
-7.70439e-09
-8.79291e-08
-9.09641e-09
-7.07748e-08
-1.14253e-08
-7.04398e-08
-1.37614e-08
-8.40021e-08
-1.84107e-08
-5.43414e-08
-2.11352e-08
-4.70012e-08
-2.23722e-08
-4.63187e-08
-2.23017e-08
-4.66503e-08
-2.15559e-08
-5.13949e-08
-2.10303e-08
-6.30272e-08
-1.97157e-08
-7.6991e-08
-2.03762e-08
-8.57725e-08
-2.08561e-08
-9.58229e-08
-2.18728e-08
-1.025e-07
-2.02561e-08
-1.09055e-07
-1.78187e-08
-1.10617e-07
-1.5436e-08
-1.07147e-07
-1.28185e-08
-9.77447e-08
-1.03228e-08
-8.42216e-08
-8.35505e-09
-6.83237e-08
-6.56209e-09
-4.99283e-08
-4.92094e-09
-2.74947e-08
-3.30073e-09
-1.0471e-08
-2.6996e-09
-9.14999e-12
-7.71452e-09
1.10305e-12
-4.70619e-11
-1.59873e-08
-1.29508e-10
-2.57462e-08
-3.12759e-10
-3.74284e-08
-6.72419e-10
-5.16008e-08
-1.02634e-09
-5.8515e-08
-1.35562e-09
-7.24257e-08
-1.67489e-09
-9.4087e-08
-3.37419e-09
-1.11994e-07
-1.59577e-08
-1.45114e-07
-2.26463e-08
-2.31233e-07
-2.31349e-08
-2.85477e-07
-2.39136e-08
-2.69068e-07
-1.81742e-08
-2.49689e-07
-1.21572e-08
-2.08206e-07
-7.75077e-09
-1.70507e-07
-5.31202e-09
-1.44616e-07
-3.88647e-09
-1.20315e-07
-2.81553e-09
-1.24008e-07
-1.22454e-09
-1.55352e-07
-3.3679e-09
-1.49236e-07
-5.77855e-09
-1.18344e-07
-6.98176e-09
-1.00238e-07
-7.1243e-09
-8.97304e-08
-8.25662e-09
-7.20119e-08
-9.2127e-09
-7.06967e-08
-1.46861e-08
-8.64614e-08
-1.67902e-08
-6.32006e-08
-1.99523e-08
-5.01333e-08
-2.17891e-08
-4.66807e-08
-2.13684e-08
-4.70458e-08
-2.09593e-08
-5.16346e-08
-2.03734e-08
-6.32891e-08
-1.90911e-08
-7.61664e-08
-1.95325e-08
-8.38608e-08
-2.00914e-08
-9.36637e-08
-2.10387e-08
-9.87886e-08
-2.01646e-08
-1.0553e-07
-1.7952e-08
-1.0716e-07
-1.53101e-08
-1.03413e-07
-1.2701e-08
-9.40897e-08
-1.02936e-08
-8.08015e-08
-8.29097e-09
-6.51624e-08
-6.54366e-09
-4.67706e-08
-4.90102e-09
-2.47382e-08
-3.17841e-09
-8.39456e-09
-1.81662e-09
-7.84676e-13
-7.69161e-09
-2.64647e-13
-3.25619e-11
-1.57604e-08
-9.98632e-11
-2.53008e-08
-2.68369e-10
-3.70773e-08
-6.11313e-10
-5.22145e-08
-1.00832e-09
-5.9132e-08
-1.35171e-09
-7.333e-08
-1.52817e-09
-9.44411e-08
-2.34474e-09
-1.10549e-07
-8.20819e-09
-1.29434e-07
-2.00639e-08
-1.95116e-07
-2.32778e-08
-2.81912e-07
-2.58958e-08
-2.78575e-07
-1.95655e-08
-2.6031e-07
-1.33135e-08
-2.21035e-07
-9.02413e-09
-1.7595e-07
-6.12247e-09
-1.4895e-07
-4.50794e-09
-1.22653e-07
-3.39915e-09
-1.24377e-07
-1.01726e-09
-1.52901e-07
-2.94925e-09
-1.50208e-07
-5.39278e-09
-1.22669e-07
-6.82015e-09
-1.01663e-07
-7.0983e-09
-9.13325e-08
-7.36963e-09
-7.53467e-08
-7.85487e-09
-7.17197e-08
-1.2489e-08
-8.30659e-08
-1.46935e-08
-8.70107e-08
-1.87051e-08
-5.56662e-08
-2.03213e-08
-4.79514e-08
-2.09607e-08
-4.72572e-08
-2.06624e-08
-5.18502e-08
-2.03597e-08
-6.26468e-08
-1.96343e-08
-7.56891e-08
-1.9262e-08
-8.29798e-08
-2.00831e-08
-9.14416e-08
-1.9594e-08
-9.72059e-08
-2.03151e-08
-1.01296e-07
-1.81434e-08
-1.04013e-07
-1.53713e-08
-9.9984e-08
-1.27748e-08
-9.05464e-08
-1.04948e-08
-7.74074e-08
-8.58615e-09
-6.2093e-08
-6.78232e-09
-4.38433e-08
-5.01293e-09
-2.22555e-08
-3.08826e-09
-6.6373e-09
-9.84836e-10
9.38465e-12
-7.61116e-09
-2.71122e-12
-6.11236e-12
-1.5575e-08
-5.30043e-11
-2.47662e-08
-1.87806e-10
-3.62372e-08
-4.62303e-10
-5.20589e-08
-8.62559e-10
-5.96819e-08
-1.18452e-09
-7.29661e-08
-1.32269e-09
-9.45005e-08
-1.65555e-09
-1.08847e-07
-3.9409e-09
-1.24037e-07
-1.60764e-08
-1.90404e-07
-2.39421e-08
-2.59365e-07
-2.58458e-08
-2.72746e-07
-2.08264e-08
-2.69184e-07
-1.45076e-08
-2.32212e-07
-1.02939e-08
-1.82581e-07
-6.95773e-09
-1.54037e-07
-5.01944e-09
-1.25275e-07
-3.71876e-09
-1.25149e-07
-8.55238e-10
-1.5099e-07
-2.24069e-09
-1.50394e-07
-4.38372e-09
-1.30558e-07
-6.34171e-09
-1.03694e-07
-6.80574e-09
-9.35305e-08
-5.98289e-09
-8.04471e-08
-6.60324e-09
-7.31612e-08
-8.62698e-09
-8.03715e-08
-1.2996e-08
-9.30505e-08
-1.66079e-08
-6.49793e-08
-1.86483e-08
-5.03975e-08
-1.98101e-08
-4.77572e-08
-2.00775e-08
-5.20471e-08
-2.00115e-08
-6.2529e-08
-2.01944e-08
-7.41592e-08
-1.92888e-08
-8.29453e-08
-1.9437e-08
-9.01933e-08
-1.88137e-08
-9.55869e-08
-1.90428e-08
-9.78765e-08
-1.80053e-08
-1.00361e-07
-1.55887e-08
-9.67369e-08
-1.27838e-08
-8.74328e-08
-1.05955e-08
-7.4179e-08
-8.65891e-09
-5.92548e-08
-6.83301e-09
-4.116e-08
-5.01298e-09
-2.00189e-08
-2.92727e-09
-5.22575e-09
-1.882e-10
1.77532e-11
-7.45159e-09
-5.27475e-12
1.91631e-11
-1.51367e-08
-6.27663e-12
-2.40924e-08
-1.13499e-10
-3.50748e-08
-3.28605e-10
-4.95476e-08
-7.11498e-10
-5.90299e-08
-9.79227e-10
-7.18025e-08
-1.10636e-09
-9.37682e-08
-1.21061e-09
-1.08949e-07
-2.39142e-09
-1.22936e-07
-1.18406e-08
-1.59216e-07
-2.24321e-08
-2.27211e-07
-2.47068e-08
-2.7065e-07
-2.10887e-08
-2.77956e-07
-1.51961e-08
-2.4019e-07
-1.09899e-08
-1.88861e-07
-8.04859e-09
-1.5714e-07
-5.41895e-09
-1.28405e-07
-3.5474e-09
-1.24661e-07
-4.10428e-10
-1.49255e-07
-1.31148e-09
-1.48649e-07
-3.35488e-09
-1.30147e-07
-5.54222e-09
-1.07983e-07
-5.96659e-09
-9.57211e-08
-5.13207e-09
-8.25387e-08
-5.14379e-09
-7.52151e-08
-5.24873e-09
-7.97491e-08
-1.07284e-08
-9.10073e-08
-1.36642e-08
-9.03794e-08
-1.60726e-08
-5.57783e-08
-1.77324e-08
-4.91654e-08
-1.86617e-08
-5.23456e-08
-1.87436e-08
-6.24527e-08
-1.90822e-08
-7.3349e-08
-1.85369e-08
-8.26081e-08
-1.78608e-08
-8.95028e-08
-1.75857e-08
-9.3477e-08
-1.6666e-08
-9.55665e-08
-1.66171e-08
-9.64655e-08
-1.48101e-08
-9.34882e-08
-1.2336e-08
-8.46309e-08
-1.01672e-08
-7.15285e-08
-8.38621e-09
-5.67096e-08
-6.58335e-09
-3.88683e-08
-4.78027e-09
-1.81142e-08
-2.71123e-09
-4.11721e-09
4.73947e-10
2.38322e-11
-7.2247e-09
-7.36141e-12
4.3057e-11
-1.49294e-08
4.22915e-11
-2.32995e-08
-2.73421e-11
-3.37838e-08
-2.12131e-10
-4.72794e-08
-5.27147e-10
-5.8092e-08
-7.99252e-10
-7.05282e-08
-9.15532e-10
-9.31189e-08
-8.87417e-10
-1.1015e-07
-1.54252e-09
-1.20261e-07
-6.56691e-09
-1.42787e-07
-2.23286e-08
-2.08093e-07
-2.30389e-08
-2.60515e-07
-2.11318e-08
-2.87195e-07
-1.57483e-08
-2.47115e-07
-1.13552e-08
-1.96111e-07
-8.73271e-09
-1.59446e-07
-5.4314e-09
-1.31588e-07
-3.71628e-09
-1.2459e-07
-3.16671e-10
-1.46102e-07
-4.96866e-10
-1.46412e-07
-2.6918e-09
-1.2783e-07
-4.57359e-09
-1.10842e-07
-5.06284e-09
-9.77713e-08
-4.25322e-09
-8.54551e-08
-3.76645e-09
-8.18068e-08
-3.01053e-09
-8.00103e-08
-5.93452e-09
-8.85107e-08
-1.06235e-08
-9.85703e-08
-1.36467e-08
-6.66462e-08
-1.55637e-08
-5.26605e-08
-1.67042e-08
-5.32193e-08
-1.7404e-08
-6.24458e-08
-1.80988e-08
-7.28463e-08
-1.81539e-08
-8.18724e-08
-1.73925e-08
-8.87549e-08
-1.64455e-08
-9.21596e-08
-1.56082e-08
-9.33613e-08
-1.47612e-08
-9.35669e-08
-1.39918e-08
-8.99417e-08
-1.20794e-08
-8.18968e-08
-9.93226e-09
-6.93363e-08
-8.26451e-09
-5.44591e-08
-6.50154e-09
-3.68467e-08
-4.67087e-09
-1.65179e-08
-2.607e-09
-3.23628e-09
9.89062e-10
2.44787e-11
-7.13488e-09
-7.14365e-12
5.6005e-11
-1.47674e-08
7.33598e-11
-2.28508e-08
2.03072e-11
-3.30274e-08
-1.64604e-10
-4.62504e-08
-4.58801e-10
-5.75352e-08
-7.13566e-10
-6.99346e-08
-8.78452e-10
-9.29165e-08
-7.24019e-10
-1.11141e-07
-1.04629e-09
-1.18754e-07
-3.86245e-09
-1.41732e-07
-1.7311e-08
-1.97181e-07
-2.23159e-08
-2.54624e-07
-2.12621e-08
-2.8872e-07
-1.6237e-08
-2.54278e-07
-1.16628e-08
-2.0445e-07
-9.22294e-09
-1.61792e-07
-6.81389e-09
-1.33418e-07
-4.3882e-09
-1.26998e-07
-8.04724e-10
-1.42801e-07
6.36157e-11
-1.44402e-07
-2.06485e-09
-1.25521e-07
-3.63092e-09
-1.11649e-07
-4.23961e-09
-1.01704e-07
-3.40421e-09
-8.84524e-08
-2.13822e-09
-8.39062e-08
-1.56146e-09
-8.15772e-08
-2.50155e-09
-8.73175e-08
-8.30963e-09
-9.81903e-08
-1.11794e-08
-9.11567e-08
-1.35016e-08
-6.01209e-08
-1.49188e-08
-5.59063e-08
-1.61911e-08
-6.30663e-08
-1.71748e-08
-7.21246e-08
-1.76354e-08
-8.07172e-08
-1.72755e-08
-8.76586e-08
-1.60199e-08
-9.11961e-08
-1.47009e-08
-9.17352e-08
-1.37291e-08
-9.10007e-08
-1.25807e-08
-8.70299e-08
-1.15867e-08
-7.84332e-08
-9.98703e-09
-6.6838e-08
-8.28333e-09
-5.26079e-08
-6.4963e-09
-3.50844e-08
-4.63243e-09
-1.51522e-08
-2.55785e-09
-2.53631e-09
1.37671e-09
2.47187e-11
-7.09152e-09
-6.53672e-12
6.31813e-11
-1.46354e-08
9.04074e-11
-2.27054e-08
5.08037e-11
-3.28361e-08
-1.43549e-10
-4.64661e-08
-4.28824e-10
-5.72954e-08
-7.11047e-10
-6.96649e-08
-8.82045e-10
-9.25713e-08
-7.08612e-10
-1.08371e-07
-7.85931e-10
-1.182e-07
-2.17326e-09
-1.39296e-07
-1.45869e-08
-1.76037e-07
-2.08425e-08
-2.47586e-07
-2.24938e-08
-2.81783e-07
-1.76715e-08
-2.61746e-07
-1.23893e-08
-2.1365e-07
-9.93972e-09
-1.64719e-07
-8.11609e-09
-1.34449e-07
-5.50104e-09
-1.27632e-07
-1.74245e-09
-1.40599e-07
4.24872e-10
-1.44417e-07
-1.41403e-09
-1.23679e-07
-2.9637e-09
-1.11012e-07
-3.62048e-09
-1.0447e-07
-2.69174e-09
-9.13546e-08
-1.23388e-09
-8.61382e-08
-4.44106e-10
-8.53583e-08
-4.38379e-10
-8.71099e-08
-4.02693e-09
-9.56838e-08
-1.02811e-08
-9.68548e-08
-1.18882e-08
-7.44134e-08
-1.39506e-08
-6.19658e-08
-1.51499e-08
-6.51411e-08
-1.54279e-08
-7.25247e-08
-1.75555e-08
-7.7925e-08
-1.7464e-08
-8.58861e-08
-1.66975e-08
-8.94676e-08
-1.53054e-08
-9.01103e-08
-1.38294e-08
-8.87534e-08
-1.26668e-08
-8.40784e-08
-1.13801e-08
-7.55649e-08
-1.01933e-08
-6.40065e-08
-8.7998e-09
-5.03422e-08
-6.90958e-09
-3.34419e-08
-4.85346e-09
-1.39886e-08
-2.65467e-09
-1.95058e-09
1.68123e-09
2.417e-11
-7.04702e-09
-6.10333e-12
6.32668e-11
-1.45205e-08
9.97781e-11
-2.2764e-08
6.58287e-11
-3.26971e-08
-1.3881e-10
-4.67625e-08
-4.17019e-10
-5.73843e-08
-7.28244e-10
-6.97386e-08
-8.58826e-10
-9.2288e-08
-7.79447e-10
-1.05264e-07
-7.11877e-10
-1.19342e-07
-1.41743e-09
-1.36802e-07
-6.9171e-09
-1.63708e-07
-2.03411e-08
-2.04568e-07
-2.44084e-08
-2.71826e-07
-2.0101e-08
-2.66892e-07
-1.37143e-08
-2.23244e-07
-1.08402e-08
-1.68044e-07
-9.09951e-09
-1.35526e-07
-6.24496e-09
-1.27975e-07
-2.64034e-09
-1.40129e-07
1.11943e-09
-1.48622e-07
-6.07887e-10
-1.22824e-07
-2.21395e-09
-1.10031e-07
-2.79782e-09
-1.05653e-07
-1.8283e-09
-9.60046e-08
-3.73542e-10
-8.76575e-08
6.73973e-10
-8.99808e-08
9.24363e-10
-8.74911e-08
-6.1138e-10
-9.39811e-08
-6.17141e-09
-9.56396e-08
-9.66272e-09
-9.49855e-08
-1.25471e-08
-7.32475e-08
-1.4543e-08
-7.0139e-08
-1.58623e-08
-7.45937e-08
-1.57764e-08
-7.83274e-08
-1.78385e-08
-8.17099e-08
-1.75074e-08
-8.6676e-08
-1.6107e-08
-8.78621e-08
-1.45171e-08
-8.64437e-08
-1.29494e-08
-8.12855e-08
-1.15964e-08
-7.26397e-08
-1.03173e-08
-6.14388e-08
-8.94168e-09
-4.81261e-08
-7.1892e-09
-3.16359e-08
-5.06716e-09
-1.28316e-08
-2.75616e-09
-1.42119e-09
1.9402e-09
2.6497e-11
-7.01168e-09
-6.58339e-12
7.14422e-11
-1.45104e-08
1.12549e-10
-2.29947e-08
8.06485e-11
-3.29903e-08
-1.09749e-10
-4.83596e-08
-3.59387e-10
-5.7368e-08
-6.93836e-10
-6.92801e-08
-7.9796e-10
-9.24696e-08
-8.2824e-10
-1.05748e-07
-6.82829e-10
-1.18333e-07
-1.05953e-09
-1.38e-07
-3.45513e-09
-1.61582e-07
-1.91387e-08
-1.95825e-07
-2.46628e-08
-2.63842e-07
-2.20094e-08
-2.68254e-07
-1.5317e-08
-2.33671e-07
-1.15809e-08
-1.72282e-07
-9.80326e-09
-1.36713e-07
-7.28483e-09
-1.29105e-07
-3.27916e-09
-1.40654e-07
1.82402e-09
-1.50362e-07
5.53699e-10
-1.20028e-07
-1.097e-09
-1.08839e-07
-1.70736e-09
-1.05496e-07
-7.02971e-10
-9.95124e-08
6.001e-10
-8.92729e-08
1.72678e-09
-9.01028e-08
2.05235e-09
-8.85623e-08
1.68994e-09
-9.3159e-08
-1.19316e-09
-9.39742e-08
-7.94616e-09
-9.68569e-08
-1.05622e-08
-9.49756e-08
-1.35528e-08
-8.05732e-08
-1.53198e-08
-7.85679e-08
-1.57287e-08
-8.05114e-08
-1.65997e-08
-8.09178e-08
-1.78462e-08
-8.2019e-08
-1.7087e-08
-8.49977e-08
-1.52085e-08
-8.39155e-08
-1.34145e-08
-7.86746e-08
-1.18583e-08
-6.98676e-08
-1.05086e-08
-5.88793e-08
-9.13558e-09
-4.59338e-08
-7.36243e-09
-2.98621e-08
-5.1819e-09
-1.17433e-08
-2.79823e-09
-9.67197e-10
2.14351e-09
2.84112e-11
-6.98813e-09
-6.96041e-12
7.46137e-11
-1.45082e-08
1.19736e-10
-2.3101e-08
9.19481e-11
-3.31482e-08
-6.68155e-11
-5.01183e-08
-2.85374e-10
-5.65554e-08
-5.95952e-10
-6.69024e-08
-6.81855e-10
-9.15126e-08
-7.44194e-10
-1.05525e-07
-5.93519e-10
-1.18085e-07
-7.11808e-10
-1.35954e-07
-2.11908e-09
-1.58108e-07
-1.23291e-08
-1.70867e-07
-2.21165e-08
-2.55533e-07
-2.27785e-08
-2.6655e-07
-1.63863e-08
-2.4292e-07
-1.204e-08
-1.77389e-07
-1.03099e-08
-1.37941e-07
-8.04293e-09
-1.30314e-07
-3.8184e-09
-1.409e-07
1.91203e-09
-1.49884e-07
1.77636e-09
-1.18233e-07
1.79173e-10
-1.07647e-07
-3.96229e-10
-1.05264e-07
3.07316e-10
-1.00829e-07
1.48795e-09
-9.34248e-08
2.68082e-09
-9.05088e-08
3.21558e-09
-9.22174e-08
3.35612e-09
-9.28976e-08
2.30967e-09
-9.31914e-08
-1.86425e-09
-9.53462e-08
-8.50414e-09
-1.03349e-07
-1.08556e-08
-9.95127e-08
-1.37961e-08
-8.57658e-08
-1.58346e-08
-8.30316e-08
-1.49776e-08
-8.25879e-08
-1.60639e-08
-7.97942e-08
-1.68923e-08
-8.0849e-08
-1.57699e-08
-8.10194e-08
-1.35558e-08
-7.66425e-08
-1.18338e-08
-6.74591e-08
-1.04222e-08
-5.65405e-08
-9.04402e-09
-4.39184e-08
-7.27312e-09
-2.82424e-08
-5.10874e-09
-1.07734e-08
-2.74152e-09
-6.09294e-10
2.27561e-09
2.6846e-11
-7.06758e-09
-6.51596e-12
6.98203e-11
-1.46366e-08
1.08741e-10
-2.31492e-08
7.57791e-11
-3.32251e-08
-3.78976e-11
-4.98057e-08
-2.07498e-10
-5.51314e-08
-4.66778e-10
-6.53602e-08
-6.21969e-10
-8.99016e-08
-7.25834e-10
-1.0567e-07
-5.83892e-10
-1.18198e-07
-6.05757e-10
-1.34198e-07
-1.30864e-09
-1.52184e-07
-5.10268e-09
-1.58886e-07
-2.09509e-08
-2.24254e-07
-2.19635e-08
-2.62641e-07
-1.6787e-08
-2.45968e-07
-1.27107e-08
-1.80841e-07
-1.06867e-08
-1.38865e-07
-8.4417e-09
-1.31242e-07
-4.86033e-09
-1.40597e-07
1.31313e-09
-1.48133e-07
2.8537e-09
-1.18716e-07
1.34685e-09
-1.0601e-07
6.91123e-10
-1.04765e-07
1.24485e-09
-1.01735e-07
2.28791e-09
-9.39726e-08
3.37151e-09
-9.05144e-08
4.28189e-09
-9.28577e-08
4.36802e-09
-9.3443e-08
4.27776e-09
-9.47996e-08
2.43369e-09
-9.57333e-08
-2.82939e-09
-1.0479e-07
-7.53203e-09
-1.219e-07
-1.15934e-08
-9.94782e-08
-1.44389e-08
-8.68596e-08
-1.51675e-08
-8.3429e-08
-1.42099e-08
-8.02115e-08
-1.48632e-08
-7.70067e-08
-1.43057e-08
-7.67569e-08
-1.35288e-08
-7.40123e-08
-1.18462e-08
-6.54446e-08
-1.03248e-08
-5.44979e-08
-8.92402e-09
-4.20483e-08
-7.14881e-09
-2.67802e-08
-5.00322e-09
-9.9412e-09
-2.67825e-09
-3.44398e-10
2.33588e-09
2.479e-11
-7.16121e-09
-6.23722e-12
6.29993e-11
-1.47771e-08
9.46203e-11
-2.32539e-08
5.91352e-11
-3.32716e-08
-1.6601e-11
-4.92108e-08
-1.54223e-10
-5.4361e-08
-3.65703e-10
-6.49894e-08
-5.7429e-10
-8.82266e-08
-7.30985e-10
-1.05458e-07
-6.00111e-10
-1.18452e-07
-6.02632e-10
-1.35324e-07
-1.04777e-09
-1.48912e-07
-3.13429e-09
-1.61373e-07
-1.72765e-08
-1.96289e-07
-2.02804e-08
-2.54889e-07
-1.71519e-08
-2.35105e-07
-1.39197e-08
-1.84821e-07
-1.13207e-08
-1.4016e-07
-9.00254e-09
-1.32113e-07
-6.29279e-09
-1.41073e-07
4.08832e-10
-1.46336e-07
3.58726e-09
-1.21585e-07
2.26453e-09
-1.03499e-07
1.65535e-09
-1.04156e-07
2.1372e-09
-1.0226e-07
3.10811e-09
-9.47613e-08
4.093e-09
-9.1482e-08
5.07182e-09
-9.31082e-08
5.20573e-09
-9.53075e-08
5.57831e-09
-9.50799e-08
4.90799e-09
-9.74355e-08
2.16378e-09
-1.0529e-07
-4.60916e-09
-1.25906e-07
-8.74465e-09
-1.20536e-07
-1.22384e-08
-9.4847e-08
-1.46104e-08
-8.4983e-08
-1.39798e-08
-8.04644e-08
-1.32322e-08
-7.62753e-08
-1.34323e-08
-7.44896e-08
-1.24677e-08
-7.15659e-08
-1.1379e-08
-6.32025e-08
-1.00459e-08
-5.26014e-08
-8.70139e-09
-4.03158e-08
-6.97239e-09
-2.5428e-08
-4.87674e-09
-9.20437e-09
-2.60245e-09
-1.53014e-10
2.34583e-09
2.51697e-11
-7.28477e-09
-6.54313e-12
6.15491e-11
-1.49979e-08
8.97124e-11
-2.35329e-08
6.13793e-11
-3.36516e-08
2.80901e-11
-4.88714e-08
-6.70058e-11
-5.45203e-08
-2.38291e-10
-6.449e-08
-4.63009e-10
-8.55459e-08
-6.42619e-10
-1.04342e-07
-5.22214e-10
-1.18366e-07
-5.09976e-10
-1.35642e-07
-7.41022e-10
-1.48787e-07
-2.06915e-09
-1.59786e-07
-8.91541e-09
-1.77821e-07
-1.67149e-08
-2.26282e-07
-1.71153e-08
-2.27178e-07
-1.42378e-08
-1.91825e-07
-1.16747e-08
-1.41664e-07
-9.45194e-09
-1.32858e-07
-7.05878e-09
-1.4164e-07
-8.18161e-10
-1.4641e-07
4.21716e-09
-1.28635e-07
3.15634e-09
-1.02566e-07
2.7296e-09
-1.03258e-07
3.15491e-09
-1.02716e-07
3.98552e-09
-9.67797e-08
4.80303e-09
-9.60622e-08
5.73923e-09
-9.39092e-08
6.22321e-09
-9.60682e-08
6.58777e-09
-9.42907e-08
6.45044e-09
-9.56942e-08
5.12494e-09
-1.0539e-07
1.31212e-09
-1.27127e-07
-5.81144e-09
-1.40844e-07
-1.0006e-08
-1.08875e-07
-1.26009e-08
-8.80598e-08
-1.35532e-08
-8.05517e-08
-1.25465e-08
-7.62339e-08
-1.21874e-08
-7.23148e-08
-1.16106e-08
-6.91176e-08
-1.06165e-08
-6.10825e-08
-9.50483e-09
-5.07838e-08
-8.26917e-09
-3.87462e-08
-6.62361e-09
-2.42174e-08
-4.62603e-09
-8.5678e-09
-2.46247e-09
-1.70725e-11
2.32118e-09
2.73157e-11
-7.46089e-09
-7.17128e-12
6.29896e-11
-1.53393e-08
8.9526e-11
-2.39688e-08
7.95864e-11
-3.43048e-08
8.39492e-11
-4.90538e-08
4.41172e-11
-5.48385e-08
-9.1083e-11
-6.42949e-08
-3.49349e-10
-8.35806e-08
-5.64662e-10
-1.03929e-07
-4.13182e-10
-1.20477e-07
-3.61024e-10
-1.35705e-07
-4.65425e-10
-1.48998e-07
-1.3704e-09
-1.55237e-07
-6.09354e-09
-1.66187e-07
-1.86445e-08
-2.18829e-07
-1.82976e-08
-2.51872e-07
-1.39007e-08
-2.02128e-07
-1.17487e-08
-1.43138e-07
-9.79767e-09
-1.33282e-07
-7.45814e-09
-1.41529e-07
-2.03116e-09
-1.48731e-07
5.18466e-09
-1.34706e-07
4.18823e-09
-1.01848e-07
3.83401e-09
-1.00378e-07
4.3275e-09
-1.02764e-07
4.89087e-09
-9.76169e-08
5.61565e-09
-9.52554e-08
6.60764e-09
-9.51157e-08
7.47343e-09
-9.68732e-08
7.69096e-09
-9.33348e-08
7.71229e-09
-9.45816e-08
7.28515e-09
-1.05573e-07
5.16991e-09
-1.27228e-07
-1.0559e-09
-1.46892e-07
-7.09153e-09
-1.29988e-07
-1.0682e-08
-9.43493e-08
-1.22775e-08
-8.1411e-08
-1.21955e-08
-7.5606e-08
-1.13781e-08
-7.11225e-08
-1.07259e-08
-6.6936e-08
-9.87881e-09
-5.90014e-08
-8.9199e-09
-4.89807e-08
-7.80497e-09
-3.72361e-08
-6.28545e-09
-2.30586e-08
-4.3981e-09
-7.97569e-09
-2.33689e-09
9.6599e-11
2.285e-09
2.5465e-11
-7.68967e-09
-6.2525e-12
5.58673e-11
-1.57929e-08
7.16666e-11
-2.44539e-08
8.40322e-11
-3.4897e-08
1.07217e-10
-4.85348e-08
8.89049e-11
-5.43352e-08
-2.27681e-11
-6.34802e-08
-3.29813e-10
-8.29058e-08
-6.46796e-10
-1.03024e-07
-4.36059e-10
-1.22042e-07
-4.03152e-10
-1.37179e-07
-4.4487e-10
-1.49047e-07
-1.14779e-09
-1.53239e-07
-4.07362e-09
-1.62676e-07
-1.85129e-08
-1.96725e-07
-1.82595e-08
-2.58367e-07
-1.26522e-08
-2.04689e-07
-1.161e-08
-1.443e-07
-9.94973e-09
-1.33563e-07
-7.82115e-09
-1.41094e-07
-3.12444e-09
-1.50429e-07
5.05547e-09
-1.39028e-07
5.04838e-09
-1.00223e-07
4.64057e-09
-9.98354e-08
5.37632e-09
-1.02601e-07
5.61385e-09
-9.81823e-08
6.2545e-09
-9.61857e-08
7.34177e-09
-9.61801e-08
8.39676e-09
-9.77113e-08
8.62e-09
-9.35821e-08
8.76273e-09
-9.34779e-08
8.99399e-09
-1.05692e-07
7.76631e-09
-1.28805e-07
3.32936e-09
-1.46891e-07
-4.31892e-09
-1.47239e-07
-8.59984e-09
-1.04875e-07
-1.09243e-08
-8.33524e-08
-1.165e-08
-7.51517e-08
-1.09221e-08
-7.00441e-08
-1.02546e-08
-6.48745e-08
-9.40159e-09
-5.6969e-08
-8.50104e-09
-4.72289e-08
-7.46412e-09
-3.5733e-08
-6.03775e-09
-2.19164e-08
-4.23719e-09
-7.39937e-09
-2.25183e-09
2.12278e-10
2.25276e-09
1.7007e-11
-7.92922e-09
-3.5556e-12
3.42064e-11
-1.62487e-08
3.30214e-11
-2.487e-08
4.77661e-11
-3.52542e-08
5.82652e-11
-4.80535e-08
3.02116e-11
-5.31159e-08
-9.62847e-11