/*--------------------------------*- C++ -*----------------------------------*\
| =========                 |                                                 |
| \\      /  F ield         | OpenFOAM: The Open Source CFD Toolbox           |
|  \\    /   O peration     | Version:  2212                                  |
|   \\  /    A nd           | Website:  www.openfoam.com                      |
|    \\/     M anipulation  |                                                 |
\*---------------------------------------------------------------------------*/
FoamFile
{
    version     2.0;
    format      ascii;
    arch        "LSB;label=32;scalar=64";
    class       volVectorField;
    location    "0.0966";
    object      U;
}
// * * * * * * * * * * * * * * * * * * * * * * * * * * * * * * * * * * * * * //

dimensions      [0 1 -1 0 0 0 0];

internalField   nonuniform List<vector> 
31661
(
(-79.4478 111.719 4.57133e-16)
(102.567 726.128 -1.34211e-17)
(97.427 717.262 1.81701e-17)
(101.055 722.114 0)
(106.5 725.796 2.68075e-17)
(103.055 717.727 -3.64914e-17)
(105.782 722.137 -2.25171e-17)
(110.113 725.269 0)
(108.221 717.859 2.69628e-17)
(110.119 721.954 -3.80946e-20)
(-157.924 150.088 0)
(-181.237 670.756 -1.44485e-16)
(29.4214 24.7036 -1.17484e-16)
(0.318721 286.074 0)
(30.3524 141.264 1.99458e-16)
(70.4589 151.859 1.31015e-18)
(31.6475 131.403 0)
(-74.2162 135.285 -1.17573e-16)
(236.699 644.554 0)
(71.3619 159.602 0)
(209.827 565.054 5.83822e-17)
(205.091 565.835 -1.49178e-16)
(4.29509 399.345 -1.0778e-18)
(-103.218 201.725 3.59255e-17)
(-130.204 710.672 -1.21438e-16)
(211.746 561.527 0)
(1.52282 383.941 -3.1884e-18)
(31.6606 442.488 -6.2596e-17)
(-175.495 670.911 1.57967e-16)
(111.958 674.334 -7.94633e-17)
(-98.0491 207.525 -4.00059e-16)
(-69.6559 175.353 1.42736e-16)
(-84.0476 214.403 -7.43571e-17)
(245.607 627.186 8.14694e-17)
(-67.251 619.177 -2.74408e-17)
(-84.6389 223.181 7.50772e-17)
(274.178 597.356 -2.39629e-16)
(-80.2128 223.322 -1.53678e-17)
(-16.07 430.082 -1.51724e-16)
(-114.821 290.734 -3.83011e-19)
(119.395 375.978 -2.23001e-16)
(90.6402 730.068 9.4236e-20)
(45.7715 237.717 1.54174e-16)
(18.9613 596.508 -2.03616e-16)
(17.4497 590.59 -2.13279e-16)
(173.233 660.212 -9.7089e-17)
(23.3567 593.622 -1.024e-16)
(215.49 599.881 -1.04288e-16)
(277.845 599.022 0)
(1.4152 371.761 0)
(139.364 461.706 0)
(-3.68091 399.313 -2.88848e-17)
(-169.896 653.009 -4.78489e-17)
(230.496 601.37 9.45886e-17)
(48.8812 468.472 -1.18323e-16)
(-213.901 658.981 7.94715e-17)
(-183.029 646.663 -9.53848e-17)
(-155.916 641.673 -5.04983e-17)
(12.9916 628.666 -1.46427e-16)
(-212.975 652.612 -2.08712e-16)
(-186.132 661.206 1.70753e-16)
(-197.653 660.224 0)
(-94.3393 603.165 -2.25518e-16)
(-60.6753 747.406 0)
(-264.767 594.552 0)
(129.847 239.41 0)
(-83.3942 51.503 2.69314e-16)
(12.3932 640.55 4.64381e-17)
(11.9496 653.704 9.55225e-18)
(13.6283 666.155 6.97851e-17)
(-185.335 675.967 -6.85913e-17)
(12.2453 681.993 -1.81169e-17)
(10.2631 693.754 0)
(8.7013 704.662 4.42545e-18)
(7.6473 714.325 3.46916e-17)
(6.79273 723.279 -3.33087e-17)
(6.01475 731.203 0)
(5.30109 738.275 0)
(4.6369 744.394 0)
(4.03919 749.686 0)
(3.52285 754.141 -1.94926e-18)
(3.08127 757.858 -1.92569e-17)
(2.72945 760.888 1.54927e-17)
(2.46435 763.334 -3.85006e-18)
(4.18069 762.731 1.9271e-17)
(5.70244 760.2 1.66768e-19)
(7.47989 757.071 -1.54061e-17)
(9.55228 753.252 3.90572e-18)
(11.8854 748.703 0)
(14.5213 743.355 1.01001e-18)
(17.3702 737.2 0)
(20.4768 730.189 -3.39741e-17)
(23.6866 722.361 3.26756e-17)
(27.1339 713.647 -1.08115e-18)
(30.3612 704.271 3.90076e-17)
(33.9976 694.22 -3.58551e-17)
(37.7991 683.917 -5.02835e-19)
(42.4846 673.884 1.99451e-17)
(42.6903 663.622 0)
(41.8889 653.109 -5.20133e-18)
(42.0488 642.187 5.00517e-18)
(41.9013 632.304 3.97615e-17)
(42.2034 623.425 -5.67999e-18)
(11.5212 614.709 7.70848e-17)
(37.8842 614.683 -4.75062e-17)
(8.5971 605.096 2.17545e-17)
(33.1483 606.339 3.22241e-17)
(6.93584 596.847 3.39619e-17)
(28.9589 598.634 -5.64761e-18)
(5.79535 589.781 -2.48496e-17)
(25.0532 591.824 2.61182e-17)
(4.88045 583.825 0)
(21.3515 585.922 -4.72661e-17)
(4.09805 578.874 0)
(17.9194 580.879 2.34689e-17)
(3.42304 574.802 0)
(14.8509 576.634 0)
(2.85639 571.477 -9.14142e-20)
(12.2015 573.095 9.24433e-20)
(2.38483 568.768 -1.84598e-19)
(9.97002 570.161 -5.9801e-18)
(1.99479 566.557 1.85315e-19)
(8.13275 567.738 1.17188e-17)
(1.67849 564.743 5.92328e-18)
(6.654 565.734 -1.19616e-17)
(1.42297 563.236 -5.96854e-18)
(5.4782 564.065 5.96568e-18)
(1.21575 561.967 -6.18959e-18)
(4.55401 562.663 -2.95667e-18)
(1.04903 560.879 -4.4387e-20)
(3.83353 561.468 -2.73446e-20)
(0.911936 559.926 6.03411e-18)
(3.27307 560.429 3.0641e-18)
(0.797046 559.073 1.89752e-19)
(2.83799 559.508 3.04363e-18)
(0.699448 558.291 0)
(2.5001 558.672 -2.98739e-18)
(0.614619 557.555 3.05498e-18)
(2.23837 557.893 3.15126e-18)
(0.538459 556.843 1.08679e-19)
(2.036 557.148 1.39217e-20)
(0.468985 556.138 1.28999e-20)
(1.88026 556.415 -3.02556e-18)
(0.404012 555.424 -6.21726e-18)
(1.76279 555.677 9.57028e-20)
(0.342087 554.684 6.03625e-18)
(1.67758 554.916 0)
(0.282045 553.901 -3.06351e-18)
(1.6201 554.115 4.79742e-20)
(0.222473 553.059 -6.06401e-18)
(1.58831 553.255 0)
(0.162505 552.139 5.85262e-18)
(1.58067 552.318 9.61829e-20)
(0.101323 551.12 3.0912e-18)
(1.59669 551.283 9.63526e-20)
(0.0384854 549.98 -9.37096e-18)
(1.63741 550.128 -3.09761e-18)
(-0.0278619 548.693 3.06285e-18)
(1.70213 548.825 -3.12466e-18)
(-0.0970754 547.228 -2.23781e-20)
(1.79442 547.343 3.06535e-18)
(-0.170221 545.551 -2.53285e-20)
(1.91559 545.648 -2.55536e-20)
(-0.248827 543.617 9.53572e-18)
(2.06731 543.697 3.09591e-18)
(-0.334054 541.377 -6.20099e-18)
(2.2521 541.439 -1.17749e-18)
(-0.428086 538.767 -3.90476e-19)
(2.4726 538.81 1.553e-18)
(2.72966 535.72 -3.91479e-19)
(-0.531819 535.694 1.96849e-18)
(-3.78953 535.503 -1.20837e-18)
(-3.32609 538.604 -1.18166e-18)
(-2.91944 541.241 0)
(-2.56333 543.504 1.35366e-18)
(-2.25378 545.46 -3.2975e-18)
(-1.98589 547.158 -1.53262e-18)
(-1.75563 548.641 2.90942e-18)
(-1.5591 549.945 -3.07936e-18)
(-1.39228 551.1 3.09236e-18)
(-1.25314 552.132 6.33519e-18)
(-1.13943 553.065 -9.23108e-18)
(-1.0503 553.919 -2.95379e-18)
(-0.984824 554.713 1.23595e-17)
(-0.94311 555.465 -2.59099e-20)
(-0.926484 556.192 -3.07582e-18)
(-0.937325 556.91 -1.36174e-20)
(-0.979948 557.636 -1.43964e-20)
(-1.06127 558.391 -3.04848e-18)
(-1.18956 559.194 -6.24054e-18)
(-1.37759 560.073 3.05558e-18)
(-1.6416 561.059 6.03304e-18)
(-2.00285 562.188 6.68865e-20)
(-2.48651 563.51 -5.99303e-18)
(-3.12338 565.082 -2.82995e-18)
(-3.94789 566.979 5.61016e-18)
(-4.99106 569.287 5.5054e-19)
(-6.28293 572.112 0)
(-7.82729 575.568 0)
(-9.60967 579.78 1.41971e-18)
(-11.5664 584.874 -1.10943e-17)
(-13.5479 590.969 1.14429e-17)
(-15.2724 598.173 -2.67706e-17)
(-16.2281 606.63 -1.99063e-17)
(-15.6072 616.567 2.98976e-17)
(-15.2176 627.138 8.62257e-18)
(-18.6827 640.099 -3.49703e-18)
(-17.7648 653.487 -9.15997e-18)
(-15.4199 666.843 0)
(-13.7004 678.994 -6.48198e-17)
(-15.5933 691.38 3.84932e-17)
(-14.1843 702.417 -2.30887e-18)
(-12.6781 712.489 6.84253e-17)
(-10.7672 721.652 -1.79304e-17)
(-8.95494 729.825 -3.29664e-17)
(-7.14884 737.07 -1.53991e-17)
(-5.54008 743.361 6.18035e-17)
(2.90076 764.737 1.14415e-17)
(2.2765 765.259 7.63828e-18)
(-4.02687 748.777 -4.94278e-17)
(-2.69552 753.335 3.1237e-17)
(-1.47945 757.134 -1.1754e-17)
(-0.374898 760.251 -1.53628e-17)
(0.64504 762.777 1.54201e-17)
(2.17265 766.708 0)
(1.83098 766.264 -2.6744e-17)
(1.7351 764.917 1.53506e-17)
(3.80488 763.176 3.82524e-18)
(6.22354 760.938 0)
(9.03258 758.154 -7.80696e-18)
(12.2505 754.763 9.7435e-18)
(15.9291 750.685 -1.95138e-18)
(20.05 745.869 -1.7178e-17)
(24.6176 740.288 -1.46781e-18)
(29.5494 733.929 1.62104e-17)
(34.8327 726.803 1.74486e-17)
(40.2558 718.956 -1.67797e-17)
(45.8766 710.391 -1.11674e-18)
(51.3301 701.273 -4.54002e-18)
(56.7345 691.732 0)
(62.1017 681.813 -9.92583e-18)
(66.5395 672.042 9.71773e-18)
(68.6086 662.547 0)
(69.326 653.029 3.89737e-18)
(69.4498 643.712 -6.5208e-18)
(68.8241 634.892 -1.91326e-17)
(66.6592 626.645 2.02083e-18)
(62.075 618.637 0)
(56.5039 610.861 1.1317e-17)
(50.5706 603.64 -2.30234e-17)
(44.5311 597.021 2.21774e-17)
(38.5464 591.041 2.15665e-18)
(32.8441 585.713 -2.69148e-20)
(27.5738 581.03 1.18479e-17)
(22.8916 576.978 -1.15536e-17)
(18.8433 573.514 0)
(15.435 570.588 -2.28825e-20)
(12.6289 568.129 2.30336e-20)
(10.3617 566.067 0)
(8.55849 564.337 -2.36299e-20)
(7.13968 562.872 -3.02566e-18)
(6.03532 561.617 -7.27782e-20)
(5.18264 560.523 3.03382e-18)
(4.52981 559.549 3.003e-18)
(4.03307 558.66 -3.13684e-18)
(3.6605 557.825 1.52966e-18)
(3.38683 557.018 -1.54854e-18)
(3.19385 556.217 4.7799e-20)
(3.06881 555.4 4.78615e-20)
(3.00382 554.548 -2.79978e-23)
(2.99272 553.642 -4.80371e-20)
(3.03341 552.659 1.54366e-18)
(3.125 551.578 -1.72976e-18)
(3.26779 550.375 1.64627e-18)
(3.46559 549.024 -1.54281e-18)
(3.71984 547.492 1.75056e-18)
(4.03658 545.744 -1.54691e-18)
(4.42027 543.737 1.56447e-18)
(4.87719 541.42 -3.72671e-19)
(5.41206 538.729 -1.94575e-18)
(6.02925 535.576 0)
(6.73043 531.825 -1.58215e-18)
(3.02403 532.027 -3.92366e-19)
(-0.646603 532.016 -1.5723e-18)
(-4.313 531.797 -8.3812e-19)
(-8.01052 531.366 0)
(-7.08335 535.142 -3.91171e-19)
(-6.26059 538.316 1.55413e-18)
(-5.54014 541.023 -1.76374e-18)
(-4.91388 543.354 0)
(-4.37211 545.371 1.93936e-19)
(-3.9086 547.126 -1.54431e-18)
(-3.51495 548.662 1.64922e-18)
(-3.18569 550.015 1.93153e-19)
(-2.91448 551.216 0)
(-2.69767 552.291 0)
(-2.53218 553.266 -1.44239e-19)
(-2.41685 554.162 1.43608e-18)
(-2.35132 555 -1.02704e-19)
(-2.3382 555.797 -1.3432e-18)
(-2.3821 556.574 -1.52479e-18)
(-2.49141 557.348 1.43435e-18)
(-2.67838 558.142 1.51902e-18)
(-2.95943 558.977 -1.14482e-18)
(-3.35859 559.881 0)
(-3.9074 560.885 0)
(-4.64614 562.026 0)
(-5.62525 563.352 0)
(-6.90455 564.917 -1.48472e-18)
(-8.55116 566.787 1.49781e-18)
(-10.6351 569.037 3.71707e-19)
(-13.2176 571.751 -3.26992e-18)
(-16.3475 575.017 2.22965e-18)
(-20.0281 578.927 1.41388e-18)
(-24.2163 583.562 -4.42321e-20)
(-28.7789 588.99 5.4879e-18)
(-33.4933 595.268 -5.64906e-18)
(-38.0015 602.432 -5.1801e-18)
(-41.8127 610.511 -4.59067e-18)
(-44.5559 619.462 -1.50677e-17)
(-46.1538 629.632 3.02929e-19)
(-48.5841 640.68 4.76223e-18)
(-48.3357 652.477 -1.79439e-17)
(-46.3715 664.295 3.63099e-17)
(-43.3958 676.224 -1.3913e-17)
(-41.2027 687.466 0)
(-37.6467 698.291 3.83022e-17)
(-33.5374 708.362 -3.52097e-17)
(-29.057 717.675 -1.6452e-17)
(-24.6565 726.097 1.63527e-17)
(-20.3825 733.638 -1.60147e-17)
(-16.4739 740.24 3.61077e-17)
(-12.8759 745.943 -2.9748e-17)
(-9.65037 750.787 3.11306e-19)
(1.56943 764.773 -7.64755e-18)
(-6.71924 754.871 1.96361e-17)
(-4.08915 758.263 0)
(-1.72773 761.035 0)
(-0.00213197 766.216 -1.53284e-17)
(0.969878 767.366 -3.79308e-18)
(2.43086 766.283 0)
(2.13316 767.748 3.82159e-18)
(-1.44837 767.149 -1.52944e-17)
(-2.7574 765.434 7.68582e-18)
(-0.469126 764.24 -7.68249e-18)
(2.2241 762.611 -1.15698e-17)
(5.36796 760.525 -6.52404e-20)
(8.98752 757.916 -8.85129e-20)
(13.1323 754.732 7.77869e-18)
(17.8263 750.914 -1.95712e-18)
(23.0928 746.417 -1.01453e-18)
(28.9397 741.191 9.97525e-19)
(35.3167 735.241 0)
(42.1501 728.578 -5.34093e-19)
(49.3364 721.237 -8.97199e-18)
(56.6799 713.313 7.99322e-18)
(64.0189 704.905 1.09426e-18)
(71.1031 696.16 1.07577e-18)
(77.7624 687.205 0)
(83.8626 678.18 4.94243e-18)
(88.6554 669.473 -4.98527e-18)
(91.4285 661.175 -7.72148e-18)
(92.7225 653.119 -1.34126e-18)
(92.7861 645.371 0)
(91.6663 638.013 5.44945e-18)
(88.8634 631.004 -1.97081e-18)
(84.0076 624.113 0)
(78.0059 617.307 -5.87726e-18)
(71.2725 610.737 1.95362e-17)
(64.0674 604.442 -9.62223e-18)
(56.6702 598.477 -3.46838e-20)
(49.3066 592.875 -7.32579e-19)
(42.2613 587.709 -1.14253e-17)
(35.7378 583.025 1.73693e-17)
(29.8856 578.862 -5.7889e-18)
(24.7722 575.221 2.04581e-19)
(20.4195 572.08 5.98344e-18)
(16.8027 569.404 -2.90563e-18)
(13.8509 567.138 -2.97574e-18)
(11.4827 565.217 0)
(9.61545 563.588 -3.04001e-18)
(8.16194 562.191 2.95789e-18)
(7.04288 560.971 0)
(6.19443 559.884 3.05742e-18)
(5.5611 558.888 -3.04422e-18)
(5.10251 557.948 0)
(4.78515 557.035 -9.56519e-20)
(4.58599 556.122 -4.79415e-20)
(4.48861 555.183 -1.58853e-18)
(4.48222 554.196 4.00158e-20)
(4.56024 553.137 1.53713e-18)
(4.72048 551.979 1.92768e-19)
(4.96374 550.699 1.5513e-18)
(5.29186 549.267 -1.54398e-18)
(5.71023 547.652 1.36474e-18)
(6.22438 545.814 -1.54899e-18)
(6.84251 543.714 1.37213e-18)
(7.57261 541.298 -1.55436e-18)
(8.42279 538.503 -1.44987e-21)
(9.39972 535.245 -7.92227e-19)
(10.5037 531.395 7.75268e-19)
(11.7265 526.707 1.18046e-18)
(7.51012 527.213 -7.66438e-21)
(3.35361 527.46 3.95081e-19)
(-0.771948 527.459 1.56282e-18)
(-4.89302 527.215 3.93043e-18)
(-9.04044 526.729 7.88034e-19)
(-13.241 525.995 -2.37382e-18)
(-11.7761 530.716 1.59202e-18)
(-10.45 534.6 -3.85893e-19)
(-9.27191 537.889 7.88408e-19)
(-8.23685 540.709 -7.54475e-22)
(-7.33591 543.147 0)
(-6.55945 545.265 1.35333e-18)
(-5.89617 547.114 -1.65556e-18)
(-5.33772 548.736 1.93631e-19)
(-4.87416 550.17 -1.93027e-19)
(-4.49879 551.448 -9.65633e-20)
(-4.2074 552.598 0)
(-3.9962 553.645 1.53556e-18)
(-3.86516 554.615 -7.65221e-21)
(-3.81571 555.529 -1.44195e-18)
(-3.85488 556.41 -1.91545e-19)
(-3.99381 557.281 -1.52473e-18)
(-4.24907 558.164 3.05203e-18)
(-4.64411 559.087 -2.66578e-18)
(-5.21049 560.081 -5.59032e-19)
(-5.99201 561.18 1.52057e-18)
(-7.04186 562.426 -3.75117e-19)
(-8.42701 563.869 0)
(-10.2256 565.565 3.70579e-19)
(-12.524 567.578 7.38252e-19)
(-15.41 569.975 -1.84355e-18)
(-18.9641 572.828 1.70338e-20)
(-23.2402 576.199 1.97431e-20)
(-28.2648 580.143 2.17361e-18)
(-33.9823 584.694 -7.77223e-19)
(-40.2752 589.858 -4.2413e-18)
(-46.9319 595.627 -1.35506e-18)
(-53.6579 601.973 1.39089e-18)
(-60.05 608.86 -5.74413e-18)
(-65.6559 616.255 1.34326e-17)
(-70.0506 624.166 -2.61226e-18)
(-73.1272 632.8 -3.10567e-19)
(-75.4771 642.023 0)
(-75.4478 651.791 1.95463e-17)
(-73.4907 661.872 -1.80216e-17)
(-70.0409 672.256 -5.64401e-18)
(-65.889 682.487 0)
(-60.5239 692.598 1.28358e-17)
(-54.4092 702.33 -3.4721e-17)
(-47.8102 711.589 1.74803e-17)
(-41.0993 720.208 -5.56717e-19)
(-34.6014 728.057 1.61539e-17)
(-28.5282 735.032 -1.84842e-17)
(-22.8989 741.155 0)
(-17.7294 746.47 1.16494e-17)
(-13.0216 751.021 -3.53612e-17)
(0.376713 763.255 -7.65667e-18)
(-8.79614 754.852 2.73048e-17)
(-5.01144 758.03 -1.95424e-17)
(0.266633 768.16 -1.50177e-21)
(-4.71285 766.269 0)
(-2.70983 767.81 7.63057e-18)
(2.26453 764.973 7.68161e-18)
(3.21769 767.369 -7.65679e-18)
(2.14065 768.509 -7.46914e-18)
(-6.43105 766.868 -3.858e-18)
(-8.49685 764.904 -1.15884e-17)
(-6.11951 764.076 3.83718e-18)
(-3.34312 762.908 2.36513e-20)
(-0.0912749 761.324 -9.69376e-18)
(3.66058 759.268 -1.96963e-18)
(7.97235 756.711 1.98382e-18)
(12.8782 753.597 -7.94423e-18)
(18.4242 749.875 6.87342e-18)
(24.6292 745.502 -5.11853e-19)
(31.5002 740.449 9.98747e-19)
(38.9952 734.71 0)
(47.0361 728.312 -8.54366e-18)
(55.4801 721.324 8.61866e-18)
(64.1886 713.819 2.79301e-19)
(72.8772 705.955 -1.42757e-19)
(81.3331 697.866 0)
(89.2551 689.721 1.13317e-18)
(96.4061 681.676 1.21168e-18)
(102.582 673.877 0)
(107.255 666.544 1.53238e-19)
(110.191 659.719 7.586e-18)
(111.608 653.247 -1.23175e-18)
(111.628 647.123 0)
(110.294 641.296 5.34441e-18)
(107.486 635.668 -5.3531e-18)
(102.986 630.047 2.64612e-18)
(97.2699 624.364 -5.54208e-18)
(90.6205 618.658 2.80496e-18)
(83.2413 612.938 -1.41972e-18)
(75.3506 607.234 -1.39952e-18)
(67.1863 601.613 -3.43706e-19)
(59.0115 596.157 5.45261e-18)
(51.0834 590.961 -1.15278e-17)
(43.6387 586.12 1.16439e-17)
(36.8465 581.709 -8.94223e-18)
(30.811 577.763 2.9103e-18)
(25.5878 574.294 0)
(21.1763 571.292 3.02726e-18)
(17.5315 568.719 -2.96992e-18)
(14.584 566.527 4.65388e-20)
(12.2449 564.657 1.54691e-18)
(10.421 563.047 -1.48581e-18)
(9.02211 561.64 1.52804e-18)
(7.97295 560.383 -1.51969e-18)
(7.20778 559.23 0)
(6.6754 558.14 1.58425e-18)
(6.33493 557.074 -2.29846e-18)
(6.15759 556.003 7.66406e-19)
(6.1219 554.895 -4.80991e-20)
(6.21556 553.723 0)
(6.43044 552.456 -8.71551e-19)
(6.76524 551.066 7.71222e-19)
(7.22106 549.521 6.81718e-19)
(7.80182 547.787 -7.7435e-19)
(8.51554 545.827 0)
(9.36964 543.595 3.90648e-19)
(10.3747 541.041 0)
(11.5401 538.103 7.87373e-19)
(12.8725 534.703 6.15732e-21)
(14.371 530.719 -4.39773e-19)
(16.0222 525.931 -1.5036e-19)
(17.7802 519.847 -2.99686e-19)
(13.036 520.635 5.97524e-19)
(8.34751 521.153 -7.94998e-19)
(3.70643 521.407 3.96925e-19)
(-0.9091 521.407 0)
(-5.51881 521.156 -7.50778e-19)
(-10.1461 520.657 2.4043e-18)
(-14.809 519.905 1.57155e-18)
(-19.5205 518.897 0)
(-17.5133 525.007 -1.18936e-18)
(-15.6319 529.835 1.17081e-18)
(-13.9194 533.861 -2.37726e-18)
(-12.3888 537.301 -7.79719e-19)
(-11.0407 540.274 1.76138e-18)
(-9.86508 542.856 -7.8537e-19)
(-8.85047 545.111 1.94316e-19)
(-7.98633 547.088 -2.98932e-22)
(-7.26002 548.831 2.3968e-22)
(-6.66244 550.38 0)
(-6.18713 551.766 9.65498e-20)
(-5.82843 553.023 9.64564e-20)
(-5.58592 554.178 8.16142e-19)
(-5.4615 555.258 -7.71502e-19)
(-5.46237 556.29 1.91686e-19)
(-5.60239 557.302 -7.63902e-19)
(-5.90316 558.322 1.95488e-19)
(-6.39449 559.383 1.33545e-18)
(-7.1173 560.521 -1.90318e-18)
(-8.12386 561.776 9.52477e-19)
(-9.48067 563.197 -8.29637e-22)
(-11.2653 564.837 7.57713e-19)
(-13.5669 566.756 1.85902e-19)
(-16.48 569.018 -5.64629e-19)
(-20.0958 571.686 -1.14427e-20)
(-24.4874 574.815 3.84994e-19)
(-29.7022 578.45 -7.11675e-19)
(-35.7398 582.614 0)
(-42.5392 587.294 1.38805e-18)
(-49.9475 592.455 -1.38034e-18)
(-57.7661 598.025 4.19072e-18)
(-65.7 603.923 0)
(-73.4394 610.069 -5.25749e-18)
(-80.6177 616.396 5.39535e-18)
(-86.8595 622.864 5.10308e-18)
(-91.858 629.51 0)
(-95.4696 636.476 1.23752e-18)
(-97.7699 643.8 0)
(-97.9771 651.495 1.56103e-20)
(-96.288 659.587 1.72344e-17)
(-92.8448 668.125 -1.7639e-17)
(-88.0068 676.93 1.77656e-17)
(-81.7962 685.924 -1.73166e-17)
(-74.5362 694.947 0)
(-66.5017 703.871 0)
(-58.1265 712.458 2.13105e-18)
(-49.8497 720.487 0)
(-41.8814 727.83 1.62041e-17)
(-34.2904 734.476 -5.08054e-19)
(-27.2055 740.389 -8.23956e-18)
(-20.7128 745.543 -1.58063e-17)
(-14.8503 749.948 3.95964e-17)
(-1.63678 760.625 0)
(-9.54535 753.688 3.64906e-18)
(-0.338386 768.708 1.52506e-17)
(-3.82089 768.216 1.52983e-17)
(1.36424 762.679 0)
(-10.6047 765.477 2.70248e-17)
(-7.91355 767.201 7.68278e-18)
(3.94461 766.229 7.65987e-18)
(3.94157 768.151 0)
(2.18125 769.003 1.675e-17)
(-12.4278 765.783 -1.54077e-17)
(-15.0534 763.724 0)
(-12.6004 763.137 5.80869e-18)
(-9.81006 762.298 -7.76415e-18)
(-6.58273 761.093 3.86041e-18)
(-2.84119 759.459 -7.8317e-18)
(1.47455 757.377 9.74674e-18)
(6.40024 754.784 1.9465e-18)
(11.9869 751.641 -1.957e-18)
(18.2719 747.901 -5.10597e-19)
(25.2735 743.534 1.51228e-18)
(32.9854 738.52 -3.91106e-18)
(41.3675 732.864 1.42259e-19)
(50.3272 726.61 4.28568e-18)
(59.7274 719.828 -6.90425e-20)
(69.3768 712.629 -4.12175e-18)
(79.0272 705.158 4.08706e-18)
(88.3898 697.594 -8.15161e-21)
(97.1864 690.113 -5.02665e-18)
(105.155 682.86 4.61369e-18)
(112.097 675.973 -3.62431e-18)
(117.791 669.564 1.15144e-18)
(121.986 663.714 1.26244e-18)
(124.696 658.372 6.36335e-19)
(126.018 653.406 -3.24018e-19)
(126.041 648.76 6.45158e-19)
(124.806 644.331 1.00291e-18)
(122.37 639.988 -1.46528e-18)
(118.593 635.583 0)
(113.693 631.029 0)
(107.813 626.303 0)
(101.064 621.379 2.77491e-18)
(93.5725 616.259 -2.33776e-18)
(85.4985 610.977 1.91814e-20)
(77.0409 605.598 -2.86447e-18)
(68.4325 600.221 2.87624e-18)
(59.9418 594.964 2.92485e-18)
(51.7872 589.931 -2.76042e-18)
(44.1823 585.219 2.96765e-18)
(37.2962 580.911 -2.90234e-18)
(31.2315 577.056 -2.99289e-18)
(26.0139 573.656 2.94489e-18)
(21.6461 570.706 -9.35091e-20)
(18.0736 568.165 2.38139e-20)
(15.2138 565.979 -1.54882e-18)
(12.9768 564.088 -1.87898e-20)
(11.2662 562.428 1.51523e-18)
(9.99792 560.943 1.18716e-20)
(9.09431 559.577 0)
(8.49444 558.282 0)
(8.14859 557.013 8.19634e-19)
(8.02068 555.73 -7.19951e-19)
(8.08469 554.398 -7.26874e-19)
(8.32374 552.98 6.74365e-19)
(8.73061 551.442 2.92256e-19)
(9.30241 549.748 -2.8992e-19)
(10.0401 547.862 -9.75611e-20)
(10.9494 545.742 0)
(12.0391 543.343 -3.93132e-19)
(13.3178 540.615 -2.01921e-19)
(14.7946 537.499 3.91328e-19)
(16.474 533.922 4.9867e-20)
(18.3518 529.778 -4.45098e-19)
(20.4063 524.875 1.00712e-18)
(22.5804 518.778 -6.93707e-19)
(24.7392 510.482 -6.28999e-21)
(19.5328 511.323 6.3127e-21)
(14.3462 511.923 0)
(9.18877 512.299 1.99715e-19)
(4.06066 512.467 -1.99785e-19)
(-1.04965 512.438 4.08207e-19)
(-6.15348 512.225 -2.36853e-18)
(-11.2632 511.82 -7.74697e-19)
(-16.3885 511.216 -8.02259e-19)
(-21.53 510.406 7.99725e-19)
(-24.2781 517.635 1.58306e-18)
(-21.8727 523.755 -4.2763e-19)
(-19.5992 528.707 -8.04774e-19)
(-17.5166 532.902 3.93744e-19)
(-15.6445 536.526 0)
(-13.9858 539.684 0)
(-12.5359 542.447 0)
(-11.2833 544.873 0)
(-10.2167 547.014 9.71724e-20)
(-9.32546 548.912 2.84805e-22)
(-8.60035 550.608 2.89367e-19)
(-8.03581 552.139 -3.88304e-19)
(-7.63021 553.541 2.88456e-19)
(-7.3871 554.844 -2.90484e-19)
(-7.31413 556.08 -4.79864e-19)
(-7.42952 557.286 1.93108e-19)
(-7.75871 558.495 1.91012e-19)
(-8.33962 559.746 -1.91613e-19)
(-9.22143 561.083 5.70695e-19)
(-10.4683 562.554 -4.815e-21)
(-12.1548 564.213 0)
(-14.3696 566.121 -3.74418e-19)
(-17.2069 568.34 -5.90748e-21)
(-20.7604 570.932 0)
(-25.1054 573.95 0)
(-30.3058 577.44 0)
(-36.3669 581.416 -1.43535e-18)
(-43.2522 585.871 2.20312e-18)
(-50.8589 590.765 0)
(-59.0156 596.015 -2.81505e-18)
(-67.4696 601.517 -1.37497e-18)
(-75.9773 607.159 1.3837e-18)
(-84.2364 612.835 0)
(-91.9707 618.453 -2.60423e-18)
(-98.9216 623.967 0)
(-104.869 629.374 -5.25004e-18)
(-109.631 634.726 -9.9788e-18)
(-113.088 640.141 2.9793e-17)
(-115.183 645.71 -1.97919e-18)
(-115.538 651.521 -4.00809e-17)
(-114.211 657.701 8.14553e-19)
(-111.183 664.368 1.90324e-17)
(-106.583 671.491 -1.8205e-17)
(-100.439 679.064 -2.31243e-19)
(-92.9778 687.013 1.17123e-18)
(-84.4319 695.203 1.81267e-17)
(-75.24 703.402 -2.17739e-18)
(-65.8049 711.371 0)
(-56.3541 718.973 0)
(-47.0949 726.098 0)
(-38.2795 732.611 -8.21856e-18)
(-30.1225 738.39 -1.6049e-17)
(-22.586 743.48 2.81552e-17)
(-4.80733 756.794 -1.56881e-17)
(-15.7073 747.914 -1.61003e-17)
(-26.6764 509.383 8.09522e-19)
(-9.49817 751.678 0)
(-0.858301 768.986 3.83506e-18)
(-0.585529 759.335 7.76011e-18)
(-4.72195 768.364 -1.91625e-17)
(4.02242 764.269 -7.76465e-18)
(-9.17248 767.277 0)
(5.42646 767.133 0)
(-17.1875 764.045 0)
(-13.9929 765.836 -7.76006e-18)
(4.63327 768.692 -3.82002e-18)
(2.22493 769.198 2.48709e-20)
(-19.0305 764.116 -3.91067e-18)
(-22.0687 762.039 -1.17362e-17)
(-19.6342 761.677 1.56427e-17)
(-16.8404 761.059 -9.79337e-18)
(-13.6695 760.147 1.95748e-17)
(-10.0062 758.863 -5.84579e-18)
(-5.76883 757.157 7.89741e-18)
(-0.934541 754.981 -7.87119e-18)
(4.56664 752.297 1.01157e-18)
(10.7743 749.06 0)
(17.7255 745.231 -4.0833e-18)
(25.4317 740.789 4.53985e-18)
(33.8702 735.726 -5.05767e-19)
(42.9806 730.072 2.38486e-18)
(52.6703 723.87 -2.35317e-18)
(62.77 717.218 -1.31435e-19)
(73.0697 710.241 3.12241e-20)
(83.3182 703.096 -6.79076e-20)
(93.2215 695.972 -2.40424e-18)
(102.511 689.038 4.5364e-20)
(110.939 682.451 2.60226e-18)
(118.299 676.327 1.22217e-18)
(124.497 670.734 -2.43713e-18)
(129.393 665.711 2.31351e-18)
(132.954 661.248 -2.47076e-18)
(135.265 657.234 1.04073e-20)
(136.435 653.555 0)
(136.525 650.134 8.11931e-20)
(135.619 646.856 5.74778e-19)
(133.739 643.587 -4.82035e-19)
(130.83 640.234 -6.65264e-19)
(126.973 636.706 6.55234e-19)
(122.212 632.954 0)
(116.578 628.931 0)
(110.108 624.608 6.80545e-19)
(102.865 619.98 1.84458e-19)
(94.9561 615.073 0)
(86.5344 609.944 -9.00792e-20)
(77.8026 604.679 0)
(68.9844 599.387 1.36133e-18)
(60.3272 594.187 -1.4159e-18)
(52.0778 589.204 0)
(44.4325 584.535 -2.35122e-20)
(37.5527 580.259 -2.24964e-20)
(31.5279 576.42 5.02559e-20)
(26.3955 573.027 0)
(22.1404 570.064 0)
(18.7006 567.486 0)
(15.9963 565.239 -7.65677e-19)
(13.931 563.255 7.34122e-19)
(12.4138 561.473 2.37554e-20)
(11.3581 559.828 0)
(10.6922 558.264 3.38323e-19)
(10.3567 556.727 -7.71347e-19)
(10.3073 555.169 1.11348e-18)
(10.5116 553.544 -2.85959e-19)
(10.9467 551.808 -6.80197e-19)
(11.6065 549.923 -3.60728e-21)
(12.4837 547.843 4.86132e-19)
(13.5788 545.525 -1.96922e-19)
(14.896 542.923 -3.9608e-19)
(16.4402 539.987 3.89595e-19)
(18.2181 536.662 1.96376e-19)
(20.229 532.883 1.99562e-19)
(22.4614 528.558 4.03363e-19)
(24.8856 523.527 -4.98015e-19)
(27.4316 517.423 0)
(29.9472 509.388 8.28892e-19)
(32.1037 497.363 4.18544e-20)
(26.5765 497.626 7.91212e-19)
(21.0134 497.724 5.08512e-20)
(15.4445 497.705 8.39056e-19)
(9.88835 497.617 -8.37921e-19)
(4.34951 497.499 -4.18507e-19)
(-1.17615 497.384 9.44075e-21)
(-6.69662 497.287 1.62487e-20)
(-12.2181 497.21 8.06421e-19)
(-17.7392 497.12 8.68417e-19)
(-23.254 496.978 0)
(-28.7472 496.737 1.67697e-18)
(-31.8077 508.14 7.89735e-19)
(-29.077 516.119 -4.35693e-20)
(-26.3202 522.241 -1.62205e-18)
(-23.6934 527.321 3.96813e-19)
(-21.2634 531.702 0)
(-19.0647 535.535 1.98558e-19)
(-17.107 538.907 -9.89133e-20)
(-15.3876 541.883 -1.95207e-19)
(-13.9016 544.515 1.96963e-19)
(-12.6394 546.853 0)
(-11.5927 548.943 -9.72211e-20)
(-10.757 550.827 4.84161e-19)
(-10.1311 552.546 -1.96272e-19)
(-9.72153 554.14 -1.9419e-19)
(-9.53666 555.647 -1.84304e-22)
(-9.60044 557.107 3.57449e-22)
(-9.94473 558.565 1.91271e-19)
(-10.6144 560.068 -7.65898e-19)
(-11.669 561.668 1.94081e-19)
(-13.1812 563.421 2.39677e-21)
(-15.2368 565.389 -5.09777e-20)
(-17.9287 567.637 -3.24303e-19)
(-21.3498 570.228 2.63138e-21)
(-25.5835 573.22 -7.42083e-19)
(-30.6922 576.656 -7.30369e-19)
(-36.6819 580.551 1.46072e-18)
(-43.5313 584.904 0)
(-51.1485 589.669 0)
(-59.361 594.766 2.10396e-18)
(-67.9812 600.102 -2.86101e-18)
(-76.7565 605.549 8.03752e-20)
(-85.4065 610.979 -1.409e-18)
(-93.6955 616.284 6.63317e-18)
(-101.387 621.378 -1.59389e-17)
(-108.329 626.22 1.59818e-17)
(-114.386 630.798 -7.69503e-18)
(-119.453 635.136 2.0567e-17)
(-123.472 639.307 -1.02864e-17)
(-126.377 643.403 -1.26005e-18)
(-128.104 647.516 5.65406e-22)
(-128.478 651.773 -2.05582e-17)
(-127.492 656.321 3.88031e-17)
(-125.039 661.289 -9.6475e-19)
(-121.122 666.75 -1.92824e-17)
(-115.685 672.771 1.83134e-17)
(-108.814 679.357 -3.6996e-17)
(-100.66 686.435 1.90953e-17)
(-91.5203 693.853 1.85251e-17)
(-81.7024 701.42 -1.79318e-17)
(-71.433 708.987 0)
(-61.0574 716.355 0)
(-50.9794 723.266 4.07973e-18)
(-41.3327 729.644 0)
(-32.1737 735.479 1.61268e-17)
(-23.7291 740.644 -1.63987e-17)
(-16.0017 745.145 7.96863e-18)
(-34.1794 496.357 0)
(-8.9755 749.032 -1.19665e-17)
(-3.93606 754.821 -3.83133e-18)
(-1.2666 769.035 -7.6358e-18)
(3.16415 761.372 -8.45244e-20)
(-5.51547 768.298 9.57451e-18)
(6.36685 765.43 -1.5469e-17)
(-10.2676 767.154 0)
(6.78935 767.788 0)
(-15.3446 765.699 -4.05387e-20)
(5.26326 768.963 -3.8432e-18)
(-24.1937 762.154 -3.90122e-18)
(-20.6295 763.986 3.92031e-18)
(2.30241 769.242 -1.53089e-17)
(33.197 477.408 -6.98734e-19)
(27.4444 475.876 7.10445e-20)
(21.6638 474.366 0)
(15.8933 473.007 7.86224e-20)
(10.15 471.92 7.86794e-19)
(4.44084 471.194 1.05632e-18)
(-1.25036 470.897 -4.59909e-19)
(-6.9388 471.058 -1.88306e-19)
(-12.6435 471.683 -4.07166e-19)
(-18.3625 472.718 -6.60839e-19)
(-24.0861 474.028 2.54488e-18)
(-29.8043 475.502 -1.58911e-18)
(-35.4694 477.019 0)
(-39.517 495.808 0)
(-36.8969 506.68 3.93319e-19)
(-33.8952 514.362 -8.21288e-19)
(-30.8449 520.473 0)
(-27.9139 525.676 0)
(-25.1761 530.248 2.00588e-19)
(-22.6763 534.306 -9.78978e-20)
(-20.4368 537.918 9.85259e-20)
(-18.4649 541.135 0)
(-16.7601 544.008 9.85438e-20)
(-15.3211 546.583 -4.87351e-20)
(-14.1465 548.907 4.91002e-20)
(-13.2392 551.028 0)
(-12.6142 552.994 0)
(-12.2783 554.848 9.67423e-20)
(-12.2626 556.638 -9.65675e-20)
(-12.6094 558.42 2.4142e-19)
(-13.3721 560.25 -1.43795e-19)
(-14.6189 562.19 1.20085e-19)
(-16.4327 564.304 -2.4008e-20)
(-18.9039 566.661 1.87178e-19)
(-22.1261 569.328 -1.91185e-19)
(-26.1812 572.365 3.7809e-19)
(-31.1324 575.821 7.60596e-19)
(-37.0002 579.718 3.62999e-19)
(-43.7576 584.051 0)
(-51.3092 588.779 -2.52527e-18)
(-59.5085 593.826 2.15789e-18)
(-68.162 599.099 2.78585e-18)
(-77.0179 604.464 1.30406e-18)
(-85.8181 609.796 -3.49423e-18)
(-94.3342 614.986 7.33417e-20)
(-102.341 619.932 0)
(-109.685 624.571 -2.67779e-18)
(-116.257 628.873 -1.04375e-17)
(-121.98 632.827 7.93019e-18)
(-126.831 636.465 -1.28602e-17)
(-130.791 639.834 1.03561e-17)
(-133.867 643.004 0)
(-136.04 646.053 1.98987e-17)
(-137.27 649.046 -3.85214e-17)
(-137.535 652.106 2.11744e-17)
(-136.752 655.38 0)
(-134.842 658.961 -1.8859e-17)
(-131.714 662.96 1.94581e-17)
(-127.263 667.494 -1.88469e-17)
(-121.462 672.625 3.745e-17)
(-114.314 678.376 -1.57186e-18)
(-105.967 684.685 -1.86529e-17)
(-96.5635 691.46 0)
(-86.3172 698.563 -1.73484e-17)
(-75.6508 705.732 -1.55259e-18)
(-64.8444 712.779 3.44365e-17)
(-54.0724 719.605 -1.72881e-17)
(-43.6606 726 1.43006e-17)
(-33.7621 731.885 -3.31899e-17)
(-24.4911 737.197 1.23624e-17)
(-15.9435 741.887 -8.03007e-18)
(-2.64948 752.314 0)
(-8.18347 745.929 8.14389e-18)
(-41.0358 478.448 0)
(-26.0196 762.059 0)
(-29.3857 759.98 3.91961e-18)
(-26.9841 759.8 -1.57881e-17)
(-24.2374 759.37 -1.98739e-18)
(-21.1212 758.688 -1.98967e-18)
(-17.5466 757.693 1.95539e-18)
(-13.441 756.302 4.61769e-20)
(-8.73497 754.466 -9.53961e-19)
(-3.37775 752.166 4.01279e-18)
(2.67787 749.348 -8.0367e-18)
(9.47635 745.973 3.0227e-18)
(17.0453 742.01 -2.06539e-18)
(25.3841 737.447 4.1354e-18)
(34.4586 732.293 -1.93057e-18)
(44.1883 726.587 1.07785e-18)
(54.4475 720.4 -1.05897e-18)
(65.0548 713.839 0)
(75.7808 707.047 0)
(86.3659 700.192 1.18841e-18)
(96.5292 693.455 -1.12807e-18)
(106.006 687.008 7.09153e-20)
(114.571 680.999 0)
(122.07 675.523 -3.8559e-20)
(128.42 670.625 0)
(133.609 666.305 3.08843e-18)
(137.629 662.532 -7.63547e-19)
(140.556 659.238 0)
(142.495 656.302 -6.29163e-19)
(143.556 653.639 0)
(143.782 651.138 -3.01224e-19)
(143.259 648.736 -2.50757e-20)
(142.007 646.349 0)
(139.967 643.85 0)
(137.156 641.189 -6.52218e-19)
(133.582 638.31 0)
(129.225 635.161 0)