/*--------------------------------*- C++ -*----------------------------------*\
| =========                 |                                                 |
| \\      /  F ield         | OpenFOAM: The Open Source CFD Toolbox           |
|  \\    /   O peration     | Version:  2212                                  |
|   \\  /    A nd           | Website:  www.openfoam.com                      |
|    \\/     M anipulation  |                                                 |
\*---------------------------------------------------------------------------*/
FoamFile
{
    version     2.0;
    format      ascii;
    arch        "LSB;label=32;scalar=64";
    class       volScalarField;
    location    "0.00768";
    object      p;
}
// * * * * * * * * * * * * * * * * * * * * * * * * * * * * * * * * * * * * * //

dimensions      [1 -1 -2 0 0 0 0];

internalField   nonuniform List<scalar> 
2681
(
193.565
286.436
285.097
190.109
249.724
276.631
189.935
190.109
190.165
190.209
190.081
190.474
190.424
191.378
190.578
190.701
190.999
190.129
190.16
190.2
190.259
190.415
190.362
190.312
190.523
190.468
190.107
190.066
190.086
190.166
190.135
190.24
190.2
190.329
190.284
190.377
190.394
190.443
190.496
190.453
190.502
190.369
190.411
190.292
190.327
256.463
190.253
190.124
190.041
190.063
190.09
190.556
190.905
190.129
190.094
190.383
190.428
190.047
190.043
190.052
190.036
190.186
190.147
190.278
190.233
190.397
190.34
190.52
190.458
190.024
190.592
190.543
190.619
190.415
190.478
190.524
190.027
191.252
261.662
190.088
190.052
190.069
190.141
190.113
190.21
190.173
190.294
190.251
190.339
190.406
190.447
190.331
190.371
190.256
190.293
190.176
190.217
190.102
190.137
190.074
190.066
190.054
190.472
190.704
190.645
190.622
190.037
190.045
190.031
190.759
190.884
190.798
190.793
190.425
190.507
190.463
190.079
190.046
190.056
190.606
191.26
190.799
239.62
190.521
190.58
190.55
190.024
286.287
190.032
192.911
191.543
190.126
190.095
190.209
190.165
190.313
190.258
190.435
190.372
190.581
190.504
190.668
190.601
190.697
190.456
190.522
191.063
190.078
309.097
190.147
190.109
190.041
190.017
190.029
190.073
190.056
190.118
190.093
190.18
190.146
190.257
190.217
190.341
190.299
190.424
190.383
191.406
190.466
190.364
190.396
190.294
190.33
190.222
190.258
190.148
190.184
190.086
190.114
190.063
190.028
190.018
190.023
190.036
189.923
190.041
190.048
190.92
191.003
191.125
190.718
190.572
190.699
190.009
190.56
190.506
190.09
190.066
190.895
190.884
190.013
190.007
203.332
204.233
204.234
203.334
190.005
190.01
189.995
190.512
191.125
189.929
190.034
196.382
256.408
250.258
190.64
190.622
294.018
190.02
192.121
190.081
190.059
190.142
190.108
190.231
190.184
190.342
190.285
190.475
190.406
190.639
190.553
190.857
190.739
190.99
190.672
190.792
190.493
190.574
190.372
190.43
190.261
190.316
190.161
190.209
190.122
205.307
206.511
207.895
209.424
211.126
212.983
215.009
217.223
219.661
222.403
222.398
225.421
228.718
228.742
225.411
217.204
219.654
212.965
214.986
209.418
211.116
206.511
207.893
205.308
190.033
190.022
190.061
190.047
190.099
190.078
190.152
190.123
190.22
190.184
190.297
190.258
190.374
190.336
195.459
190.413
190.49
190.454
190.551
190.537
190.491
190.385
190.418
190.325
190.356
190.26
190.294
190.192
190.226
190.126
190.158
190.074
190.098
190.038
190.054
190.024
190.017
190.012
190.03
190.023
190.047
190.039
194.231
197.039
190.796
190.625
190.617
190.781
189.999
191.292
202.519
202.521
190.003
214.636
222.365
225.368
190.998
240.477
190.606
190.986
190.027
190.032
202.536
201.86
201.879
189.991
189.98
189.998
189.982
232.253
232.23
190.528
190.599
191.252
191.117
190.535
190.599
255.977
191.556
191.982
189.894
190.054
190.032
190.039
190.704
190.692
189.988
190.003
189.996
190.015
190.01
190.021
190.092
190.067
190.158
190.122
190.254
190.203
190.373
190.311
190.516
190.441
190.703
190.603
190.963
190.822
191.124
191.234
191.745
191.083
191.259
190.758
190.911
190.539
190.635
190.4
190.464
190.282
190.341
190.176
190.227
190.1
190.134
190.074
204.24
203.343
206.52
205.314
209.437
207.906
212.996
211.142
217.224
215.018
219.651
202.541
201.885
201.862
236.372
236.015
197.655
228.629
231.943
222.376
225.347
217.181
219.625
212.954
214.967
209.422
211.112
206.52
207.901
204.245
205.317
203.349
190.027
190.015
190.052
190.039
190.085
190.067
190.128
190.105
190.186
190.156
190.254
190.219
190.324
190.289
190.392
190.36
190.446
190.423
190.556
190.485
190.464
190.569
190.499
190.593
190.514
190.509
190.456
190.467
190.401
190.435
190.344
190.373
190.289
190.317
190.229
190.26
190.167
190.198
190.108
190.137
190.062
190.083
190.028
190.044
190.013
190.006
190
190.018
190.012
190.025
260.909
193.703
228.693
190.882
190.687
190.681
190.871
190.036
273.397
191.761
190.614
202.573
201.921
189.976
195.88
189.987
189.975
189.964
189.967
190.06
190.044
236.026
192.235
192.526
265.002
189.929
222.298
225.303
192.496
192.76
192.917
190.672
191.108
191.093
190.667
191.953
202.581
201.929
195.219
261.172
254.742
192.33
191.387
190.634
190.505
190.583
190.532
190.618
190.646
191.354
192.269
232.317
189.896
191.861
194.176
190.776
190.769
189.993
189.985
190.006
190
190.016
190.011
190.026
190.021
190.031
190.058
190.043
190.103
190.076
190.175
190.136
190.276
190.222
190.403
190.337
190.558
190.475
190.771
190.655
191.082
190.912
191.489
191.278
191.696
191.689
191.91
191.237
191.457
190.848
191.031
190.585
190.7
190.428
190.498
190.304
190.365
190.193
190.246
190.11
190.147
190.082
204.265
203.374
206.533
205.333
209.433
207.911
212.974
211.128
217.187
214.989
219.602
201.236
201.266
201.238
190.675
201.309
201.26
243.79
249.099
235.317
239.263
228.421
231.786
222.227
225.206
217.095
219.516
212.917
214.91
209.417
211.093
206.534
207.907
204.272
205.338
203.382
189.973
189.952
189.963
189.996
189.983
190.02
190.008
190.045
190.032
190.074
190.058
190.111
190.092
190.159
190.134
190.217
190.187
190.278
190.247
190.339
190.31
190.388
190.366
190.423
190.406
190.523
190.45
190.438
190.46
190.465
190.545
190.464
190.468
190.445
190.456
190.427
190.438
190.394
190.408
190.352
190.375
190.304
190.328
190.255
190.28
190.201
190.229
190.143
190.172
190.09
190.116
190.047
190.067
190.013
190.029
189.984
189.999
189.954
189.969
189.954
189.944
189.978
189.966
189.996
189.988
190.008
190.002
190.021
190.014
190.032
190.027
269.581
240.703
190.398
193.134
228.661
198.504
193.313
195.003
194.699
194.135
190.754
190.976
190.552
190.539
190.966
190.753
192.24
192.266
192.944
189.901
194.282
192.556
191.882
201.317
269.246
261.163
189.942
189.932
189.941
260.674
192.62
191.227
190.72
190.607
190.641
190.731
191.207
191.81
190.017
190.022
236.562
194.774
320.112
278.591
190.703
194.244
251.727
261.703
192.129
242.375
191.532
190.67
190.711
191.482
190.021
190.036
190.026
200.831
201.381
200.902
232.381
189.943
191.701
192.235
193.687
190.288
190.371
190.856
190.547
190.853
192.489
189.964
189.953
189.983
189.974
189.996
189.99
190.007
190.002
190.012
190.036
190.066
190.049
190.115
190.087
190.191
190.149
190.297
190.24
190.43
190.36
190.598
190.508
190.842
190.709
191.202
191.006
191.672
191.425
191.972
194.315
192.211
191.357
191.611
190.93
191.13
190.631
190.762
190.452
190.53
190.324
190.385
190.21
190.265
190.121
190.161
190.067
190.09
190.049
202.637
201.988
204.311
203.43
206.552
205.369
209.409
207.91
212.914
211.083
217.123
214.925
222.238
219.541
228.706
225.262
200.783
201.391
200.913
200.839
200.75
200.752
200.778
246.197
253.293
235.961
240.511
228.576
232.061
222.174
225.226
217.011
219.429
212.865
214.839
209.403
211.062
206.557
207.911
204.319
205.375
202.646
203.439
201.998
189.962
189.951
189.986
189.974
190.012
189.999
190.037
190.024
190.066
190.051
190.1
190.082
190.141
190.119
190.189
190.164
190.241
190.215
190.295
190.268
190.341
190.319
190.374
190.358
190.395
190.386
190.404
190.402
190.402
190.405
190.389
190.397
190.371
190.381
190.343
190.356
190.308
190.327
190.268
190.289
190.224
190.246
190.173
190.199
190.119
190.146
190.07
190.094
190.03
190.049
189.999
190.014
189.972
189.985
189.947
189.959
189.964
189.953
189.984
189.975
189.998
189.992
190.011
190.005
190.016
189.936
319.324
305.495
189.923
193.732
192.965
193.75
191.074
190.82
190.631
190.652
190.828
191.067
192.031
190.32
190.026
192.608
196.389
261.064
193.022
241.665
189.931
194.635
193.264
201.477
200.996
282.957
270.103
190.762
265.974
193.777
192.378
248.67
246.888
191.355
190.769
190.702
190.754
190.796
191.326
191.639
189.933
189.924
190.041
190.03
190.012
190.017
201.464
200.983
200.326
200.392
193.617
236.689
189.935
189.928
232.615
190.024
191.952
189.9
193.316
190.346
190.937
190.643
190.941
192.268
189.953
189.943
189.972
189.963
189.987
189.98
190
189.994
190.01
190.005
190.02
190.015
190.024
190.041
190.031
190.073
190.055
190.125
190.096
190.205
190.161
190.315
190.256
190.454
190.381
190.638
190.538
190.913
190.761
191.318
191.098
191.853
191.568
192.189
194.477
192.129
192.542
191.49
191.786
191.008
191.232
190.673
190.821
190.474
190.56
190.338
190.401
190.224
190.279
190.132
190.175
190.074
190.099
190.055
202.719
202.073
204.374
203.504
206.578
205.416
209.374
207.908
212.835
211.021
217.047
214.842
222.197
219.479
228.798
225.269
200.277
200.403
200.334
200.242
200.243
200.272
249.497
259.239
236.926
242.289
228.685
232.555
222.097
225.202
216.951
219.364
212.816
214.786
209.384
211.023
206.586
207.918
204.384
205.424
202.731
203.515
202.085
245.133
189.95
189.94
189.975
189.962
190.003
189.989
190.029
190.016
190.058
190.043
190.091
190.074
190.128
190.109
190.17
190.149
190.215
190.192
190.262
190.239
190.305
190.285
190.338
190.323
190.358
190.35
190.365
190.363
190.362
190.365
190.35
190.357
190.331
190.341
190.306
190.319
190.275
190.291
190.239
190.258
190.196
190.218
190.147
190.172
190.097
190.122
190.052
190.074
190.016
190.033
189.988
190.002
189.963
189.975
189.943
189.952
189.935
189.953
189.943
189.972
189.963
189.988
189.981
190.001
189.995
190.007
195.905
195.988
200.481
285.984
296.543
290.623
195.601
193.705
190.817
270.275
193.337
192.658
193.313
245.657
199.476
249.948
191.172
190.881
190.733
190.771
190.908
191.174
191.824
190.294
189.916
190.014
190.019
192.836
284.058
194.198
193.486
190.021
200.467
194.599
193.317
242.488
189.923
196.677
237.322
232.91
190.865
273.25
193.325
192.135
197.417
191.459
190.812
191.461
200.079
200.154
300.197
191.753
199.712
190.02
190.868
289.058
277.515
192.963
190.242
198.255
320.761
191.017
190.75
191.035
192.026
189.91
189.925
189.917
189.943
189.934
189.962
189.953
189.978
189.97
189.992
189.986
190.004
189.998
190.009
190.028
190.023
190.045
190.035
190.079
190.059
190.134
190.103
190.216
190.171
190.33
190.269
190.476
190.399
190.673
190.566
190.977
190.809
191.424
191.183
192.02
191.701
192.403
194.894
192.349
192.872
191.595
191.933
191.07
191.312
190.709
190.869
190.491
190.586
190.348
190.414
190.233
190.288
190.14
190.183
190.08
190.106
190.045
190.06
190.025
190.034
201.556
200.559
201.073
202.816
202.17
204.455
203.593
206.625
205.483
209.365
207.929
212.775
210.984
216.988
214.776
222.187
219.437
228.982
225.323
195.618
199.969
200.019
199.936
199.937
200.01
199.963
200.139
200.067
254.299
266.044
238.618
245.119
229.025
233.384
222.13
225.306
216.947
219.373
212.794
214.77
209.387
211.009
206.636
207.944
204.467
205.493
202.83
203.606
201.57
202.184
200.574
201.088
189.922
189.909
189.915
197.696
189.918
189.918
189.913
190.334
189.94
189.931
189.965
189.952
189.993
189.979
190.021
190.007
190.051
190.036
190.084
190.067
190.12
190.102
190.158
190.139
190.199
190.178
190.241
190.22
190.281
190.261
190.313
190.298
190.335
190.326
190.343
190.34
190.341
190.343
190.329
190.336
190.311
190.321
190.286
190.299
190.255
190.271
190.218
190.238
190.175
190.197
190.127
190.151
190.081
190.104
190.041
190.06
190.01
190.025
189.983
189.996
189.959
189.971
189.939
189.949
189.924
189.931
189.913
189.918
189.929
189.923
189.943
189.935
189.962
189.952
189.978
189.97
189.992
189.985
190.003
189.998
190.012
190.008
268.622
295.656
311.582
303.719
288.627
278.186
194.373
237.774
233.34
190.933
277.401
192.948
192.367
192.917
198.595
189.889
201.628
198.805
242.992
191.262
190.936
190.849
190.9
190.992
191.292
191.618
191.992
189.906
197.203
190.016
200.235
200.252
322.887
317.101
303.335
256.767
191.896
191.537
190.021
189.907
191.065
194.926
193.303
297.695
310.752
309.922
300.556
293.075
238.632
192.565
190.997
283.69
192.624
192.555
199.914
200.498
292.866
300.009
189.893
305.888
245.088
243.736
286.1
191.087
190.879
191.136
191.792
189.918
189.912
189.935
189.926
189.953
189.944
189.97
189.961
189.985
189.978
189.998
189.992
190.01
190.004
190.015
190.032
190.027
190.049
190.038
190.084
190.063
190.14
190.109
190.224
190.179
190.342
190.279
190.494
190.413
190.705
190.589
191.033
190.851
191.52
191.256
192.202
191.832
193.206
192.664
193.842
193.864
194.775
196.029
192.516
193.115
191.678
192.051
191.117
191.372
190.738
190.906
190.507
190.607
190.358
190.426
190.24
190.296
190.146
190.189
190.084
190.111
190.048
190.063
190.028
190.037
190.02
200.351
200.665
201.162
201.642
202.263
202.912
203.687
204.546
205.567
206.7
207.987
209.401
210.994
212.761
214.748
216.96
219.426
222.207
225.422
229.23
233.856
239.508
246.621
256.163
265.115
275.801
286.987
195.408
304.639
199.879
199.785
199.699
199.645
199.608
199.585
199.583
199.603
199.636
199.686
199.769
199.859
199.941
204.9
266.016
256.971
246.932
239.837
234.085
229.37
225.486
222.231
219.446
216.995
214.796
212.809
211.032
209.426
208.003
206.711
205.579
204.559
203.702
202.927
202.278
201.657
201.177
200.682
200.371
199.963
309.745
320.608
291.517
191.574
191.941
228.667
227.104
192.577
192.077
191.658
212.835
190.194
314.583
190.511
320.613
204.457
200.532
279.172
201.773
315.46
297.278
250.127
275.843
253.995
291.486
305.671
282.44
321.358
317.594
310.126
194.886
191.341
191.067
190.986
191.081
191.729
191.424
290.793
299.287
307.221
316.243
322.159
324.348
190.554
193.089
251.36
190.027
200.41
205.759
190.013
190.009
190.005
190
189.995
189.989
189.983
189.977
189.969
189.961
189.953
189.945
189.937
189.93
189.924
189.919
189.914
189.908
189.903
189.897
189.901
189.907
189.913
189.92
189.927
189.936
189.947
189.958
189.97
189.983
189.997
190.01
190.024
190.04
190.056
190.075
190.095
190.116
190.139
190.162
190.185
190.207
190.228
190.246
190.263
190.278
190.292
190.304
190.314
190.322
190.328
190.332
190.333
190.332
190.327
190.32
190.31
190.297
190.281
190.264
190.246
190.226
190.207
190.188
190.169
190.15
190.131
190.113
190.095
190.078
190.061
190.044
190.029
190.014
189.999
189.984
189.969
189.955
189.943
189.932
189.923
189.915
199.783
199.818
200.414
200.053
189.897
311.495
198.741
189.909
189.904
195.477
192.818
189.899
189.904
189.91
189.916
189.921
189.927
189.933
189.94
189.947
189.954
189.962
189.969
189.976
189.982
189.988
190.003
189.998
189.993
190.017
190.023
190.03
190.039
190.05
190.066
190.086
190.113
190.149
190.193
190.245
190.302
190.364
190.433
190.515
190.617
190.749
190.92
191.133
191.394
191.713
192.113
192.626
193.306
194.168
196.719
195.302
193.777
199.721
194.599
193.652
192.923
192.364
191.936
191.592
191.308
191.071
190.878
190.725
190.604
190.507
190.424
190.351
190.286
190.23
190.184
190.145
190.113
190.087
190.066
190.051
190.041
190.031
190.035
311.434
190.017
190.012
190.006
190
189.994
189.987
189.979
189.971
189.963
189.954
189.945
189.936
189.928
189.92
189.913
189.907
189.898
189.902
190.059
189.896
189.901
189.908
189.915
189.924
189.934
189.946
189.958
189.972
189.986
190.001
190.015
190.03
190.045
190.061
190.077
190.096
190.115
190.137
190.159
190.181
190.203
190.225
190.245
190.263
190.279
190.293
190.305
190.315
190.322
190.327
190.33
190.329
190.326
190.32
190.311
190.299
190.285
190.269
190.253
190.235
190.217
190.199
190.18
190.162
190.143
190.125
190.106
190.089
190.071
190.055
190.038
190.022
190.006
189.991
189.975
189.961
189.947
189.936
189.926
189.917
189.91
189.905
189.9
192.913
202.895
189.895
189.894
324.243
318.593
318.056
315.373
309.644
303.769
298.619
293.45
286.6
275.935
266.467
257.68
248.422
240.826
234.791
229.797
225.738
222.396
219.551
217.055
214.838
212.859
211.104
209.521
208.11
206.824
205.689
204.667
203.804
203.024
202.367
201.733
200.433
200.74
201.246
191.571
191.249
191.024
191.153
210.502
196.444
295.167
316.598
314.331
309.077
297.488
264.684
321.051
197.3
264.179
251.299
199.762
199.69
199.61
199.564
199.537
199.523
199.525
199.542
199.573
199.623
199.708
195.623
245.963
309.394
315.58
206.115
193.558
191.425
190.07
323.591
323.166
321.764
229.082
301.252
296.678
282.712
274.05
264.411
257.19
248.654
240.499
234.464
229.536
225.548
222.238
219.42
216.944
214.749
212.795
211.064
209.497
208.095
206.812
205.676
204.651
203.786
203.007
202.35
201.717
201.231
200.724
300.392
296.332
203.284
202.285
211.799
316.498
192.252
192.284
190.149
190.45
190.007
199.795
200.076
191.792
314.546
209.265
275.42
199.929
199.905
189.89
294.83
322.684
225.928
192.558
191.436
191.173
267.514
189.893
190.22
200.391
190.172
316.079
191.97
222.879
206.019
291.275
200.736
200.094
200.431
201.77
201.265
203.068
202.409
204.734
203.862
206.903
205.764
209.58
208.186
212.832
211.129
216.917
214.752
222.245
219.396
229.814
225.634
241.602
234.945
257.455
249.787
272.78
263.639
286.923
281.426
300.846
293.238
306.449
304.316
313.449
310.855
312.136
313.399
308.872
309.055
294.323
306.79
256.633
199.6
199.493
199.634
199.415
199.528
199.287
199.314
199.308
199.284
199.515
199.402
199.611
199.58
199.696
199.954
199.669
199.472
262.916
194.106
190.011
257.024
217.82
191.213
191.376
199.98
200.45
200.118
201.28
200.753
202.427
201.786
203.881
203.087
205.779
204.751
208.198
206.915
211.166
209.6
214.863
212.899
219.625
217.084
225.988
222.545
235.266
230.169
248.895
241.377
266.827
257.386
284.366
276.401
294.434
194.837
303.962
300.389
310.653
306.962
309.747
310.629
307.034
308.189
303.88
306.946
294.456
189.893
189.893
189.897
189.895
189.906
189.901
189.921
189.913
189.942
189.931
189.969
189.955
190.001
189.985
190.034
190.017
190.067
190.05
190.102
190.084
190.138
190.12
190.175
190.156
190.211
190.193
190.245
190.228
190.277
190.261
190.304
190.291
190.322
190.314
190.33
190.327
190.325
190.329
190.309
190.318
190.282
190.297
190.246
190.265
190.204
190.226
190.161
190.182
190.12
190.14
190.085
190.102
190.053
190.068
190.021
190.037
189.989
190.005
189.958
189.973
189.932
189.945
189.911
189.921
189.897
189.903
190.05
189.892
196.099
189.899
189.896
189.909
189.904
189.923
189.916
189.939
189.931
189.957
189.948
189.974
189.966
189.99
189.982
190.003
189.997
190.014
190.009
242.804
190.019
255.212
190.037
190.033
190.053
190.043
190.089
190.068
190.148
190.116
190.234
190.187
190.357
190.291
190.514
190.431
190.737
190.614
191.095
190.895
191.648
191.344
192.514
192.024
194.18
193.184
197.609
195.611
200.496
195.736
197.634
193.431
194.387
192.153
192.693
191.412
191.737
190.93
191.147
190.623
190.757
190.438
190.519
190.306
190.368
190.196
190.248
190.115
190.151
190.067
190.087
190.04
190.052
190.025
190.032
190.019
190.191
190.031
189.998
190.003
189.988
189.994
189.977
189.983
189.964
189.971
189.95
189.957
189.937
189.943
189.925
189.931
189.913
189.919
189.901
189.907
313.14
189.897
219.076
189.887
199.786
199.757
190.27
318.332
189.889
189.891
189.894
189.899
189.905
189.911
189.918
189.924
189.93
189.936
189.942
189.948
189.955
189.961
189.968
189.975
189.981
189.987
189.992
189.997
190.001
190.006
190.241
320.952
190.022
190.027
190.032
190.04
190.051
190.066
190.087
190.115
190.15
190.194
190.244
190.299
190.358
190.425
190.502
190.599
190.722
190.881
191.08
191.324
191.625
192.006
192.522
193.271
194.317
195.942
198.694
203.639
208.307
199.236
196.051
194.308
193.241
192.52
192.011
191.634
191.327
191.081
190.883
190.728
190.606
190.509
190.426
190.354
190.289
190.233
190.186
190.147
190.115
190.089
190.068
190.052
190.043
190.037
190.034
190.032
318.341
190.021
190.018
190.014
190.009
190.003
189.996
189.988
189.98
189.972
189.963
189.954
189.945
189.936
189.928
189.92
189.913
189.907
189.901
189.897
189.894
197.529
189.887
189.89
189.894
189.9
189.909
189.919
189.931
189.944
189.959
189.974
189.991
190.008
190.025
190.042
190.058
190.074
190.091
190.108
190.125
190.144
190.163
190.184
190.206
190.227
190.248
190.267
190.284
190.299
190.311
190.32
190.326
190.329
190.329
190.326
190.32
190.311
190.299
190.286
190.272
190.256
190.24
190.224
190.207
190.19
190.171
190.153
190.134
190.116
190.099
190.081
190.064
190.047
190.031
190.014
189.997
189.98
189.965
189.951
189.938
189.927
189.918
189.91
189.903
189.898
189.895
189.893
189.892
189.892
189.892
189.892
235.74
273.136
277.023
274.925
278.032
292.065
302.444
306.206
306.773
305.478
303.721
299.493
293.919
287.437
282.708
275.826
267.924
257.143
248.758
241.597
235.484
230.38
226.163
222.656
219.69
217.139
214.934
212.985
211.257
209.692
208.284
206.995
205.849
204.822
203.927
203.115
202.448
201.806
201.279
200.755
200.435
200.123
199.989
199.833
191.502
191.29
312.389
240.96
190.028
323.8
274.826
199.707
199.672
199.535
199.721
199.694
199.639
199.526
199.446
199.43
199.433
199.452
199.54
199.652
199.714
199.743
199.555
199.7
199.738
199.793
197.488
270.409
276.708
274.679
278.004
291.157
303.133
306.947
307.179
305.788
305.309
302.356
296.027
289.052
281.382
272.982
263.856
257.195
249.649
242.275
235.571
230.109
225.771
222.307
219.421
216.948
214.81
212.912
211.217
209.671
208.271
206.982
205.833
204.803
203.906
203.095
202.429
201.789
201.264
200.739
200.416
200.1
199.963
199.804
199.762
219.923
209.256
191.272
191.526
275.376
267.351
213.71
300.28
190.011
191.641
194.739
221.587
189.895
191.55
189.888
190.017
204.552
289.817
189.887
189.901
266.007
190.014
193.684
193.17
253.866
190.566
196.648
193.74
267.926
191.889
189.896
191.681
191.615
191.399
256.072
190.026
190.357
190.633
242.9
189.94
195.721
288.263
272.942
193.826
190.028
283.606
190.102
191.122
190.007
213.821
190.022
296.893
190.92
306.153
318.909
283.806
207.165
189.906
316.281
273.148
194.426
276.1
192.708
190.569
189.893
190.504
189.992
191.635
190.049
190.225
190.464
)
;

boundaryField
{
    wall
    {
        type            zeroGradient;
    }
    outlet
    {
        type            inletOutlet;
        inletValue      uniform 1e-05;
        value           nonuniform List<scalar> 
20
(
199.707
199.672
199.535
199.721
199.694
199.639
199.526
199.446
199.43
199.433
199.452
199.54
199.652
199.714
199.743
199.555
199.7
199.738
199.793
199.762
)
;
    }
    frontAndBackPlanes
    {
        type            empty;
    }
}


// ************************************************************************* //
