/*--------------------------------*- C++ -*----------------------------------*\
| =========                 |                                                 |
| \\      /  F ield         | OpenFOAM: The Open Source CFD Toolbox           |
|  \\    /   O peration     | Version:  2212                                  |
|   \\  /    A nd           | Website:  www.openfoam.com                      |
|    \\/     M anipulation  |                                                 |
\*---------------------------------------------------------------------------*/
FoamFile
{
    version     2.0;
    format      ascii;
    arch        "LSB;label=32;scalar=64";
    class       volVectorField;
    location    "0.00379";
    object      U;
}
// * * * * * * * * * * * * * * * * * * * * * * * * * * * * * * * * * * * * * //

dimensions      [0 1 -1 0 0 0 0];

internalField   nonuniform List<vector> 
2681
(
(-0.644584 0.809004 -1.94229e-18)
(0.386177 -7.76913 0)
(-0.0416706 -7.69958 -2.89485e-18)
(0.312741 0.12197 -8.59146e-18)
(-0.174689 -12.6956 2.01253e-18)
(-0.132866 -8.41749 4.98652e-18)
(-0.129476 0.0578596 -2.1369e-18)
(-0.313749 0.124009 2.77843e-19)
(-0.337867 0.154694 5.50888e-19)
(-0.351552 0.168158 -1.38684e-19)
(0.29016 0.110741 0)
(0.383367 0.292842 -1.47314e-19)
(0.384988 0.269017 -1.43036e-19)
(-0.487764 0.502519 0)
(0.405083 0.323726 -6.53788e-19)
(-0.437106 0.325845 1.07117e-18)
(-0.466784 0.410791 0)
(0.324247 0.136627 -6.84669e-19)
(0.337987 0.148252 3.03434e-18)
(0.355115 0.162337 -3.50533e-18)
(0.370023 0.184825 -1.12868e-17)
(0.402746 0.247496 8.31098e-19)
(0.394949 0.225776 -3.32016e-18)
(0.384379 0.205553 2.23672e-18)
(0.405916 0.290863 -1.24101e-18)
(0.406902 0.269898 0)
(0.310393 0.137142 -2.60138e-18)
(0.280118 0.113897 2.43746e-19)
(0.294082 0.123936 1.10737e-18)
(0.33752 0.159881 1.32787e-18)
(0.325383 0.148336 -6.27788e-19)
(0.358039 0.191173 1.3017e-18)
(0.348539 0.175681 -1.13601e-18)
(0.376002 0.225662 5.75537e-19)
(0.367791 0.207129 0)
(0.382201 0.246666 -8.52145e-19)
(-0.399647 0.216619 2.15249e-18)
(-0.409516 0.242324 2.57933e-19)
(-0.411079 0.268318 -5.14323e-19)
(-0.387923 0.281155 -5.21352e-19)
(-0.374767 0.306339 9.59971e-19)
(-0.385748 0.239253 0)
(-0.389064 0.258451 -2.72195e-19)
(-0.372497 0.198033 0)
(-0.380902 0.220476 0)
(0.166325 -8.76455 0)
(-0.363922 0.182831 1.40503e-19)
(-0.321768 0.14221 -1.09492e-18)
(0.248855 0.0929535 0)
(-0.284825 0.119067 -2.78248e-19)
(-0.303937 0.13034 6.7558e-24)
(-0.407 0.295962 2.04786e-18)
(-0.470496 0.368158 1.53097e-19)
(-0.322374 0.114596 -2.77214e-19)
(-0.301589 0.105657 5.64098e-19)
(0.36417 0.262274 1.42905e-19)
(0.361128 0.284124 -4.29455e-19)
(0.259214 0.103849 -2.89476e-19)
(-0.264724 0.108583 0)
(-0.274922 0.120204 5.52185e-19)
(-0.255786 0.109355 1.38472e-19)
(0.353341 0.146531 0)
(0.334942 0.132228 2.43369e-18)
(0.38427 0.180097 2.89075e-18)
(0.366753 0.161999 -4.95482e-19)
(0.415318 0.221806 -4.58437e-23)
(0.402547 0.199948 0)
(0.427498 0.269173 0)
(0.424249 0.244321 5.32059e-19)
(0.0914567 0.0216783 0)
(0.435297 0.296647 1.09789e-18)
(-0.43564 0.258916 2.50305e-19)
(-0.437381 0.290501 -9.01595e-19)
(-0.418357 0.20608 -1.61116e-18)
(-0.43016 0.230129 -4.82786e-19)
(0.378904 0.317575 5.92975e-19)
(0.0276062 0.00250858 0)
(-0.502927 0.44686 7.57378e-18)
(0.146233 -10.7876 4.89187e-18)
(0.298147 0.134911 1.19373e-18)
(0.267248 0.1132 -6.64857e-19)
(0.283747 0.124537 1.68977e-18)
(0.324116 0.159718 0)
(0.312401 0.146647 1.23865e-18)
(0.34251 0.18556 1.24664e-18)
(0.3339 0.172392 -1.19983e-19)
(0.357682 0.220784 0)
(0.350769 0.202337 -5.97421e-19)
(0.362656 0.241118 8.59806e-19)
(-0.363187 0.282439 0)
(-0.358993 0.304409 0)
(-0.365239 0.24018 1.15012e-18)
(-0.366456 0.261116 -1.13105e-18)
(-0.356182 0.205579 2.90528e-19)
(-0.361537 0.223383 0)
(-0.338108 0.172636 0)
(-0.348612 0.188278 -2.81962e-19)
(-0.310243 0.144761 0)
(-0.325526 0.158237 0)
(-0.293151 0.13207 5.48653e-19)
(-0.279966 0.0972769 -7.07724e-20)
(-0.272863 0.104263 7.06648e-20)
(0.354295 0.306705 5.66053e-19)
(0.428849 0.337157 4.58996e-18)
(0.400333 0.353525 0)
(-0.402575 0.3285 -2.079e-18)
(0.248933 0.103746 0)
(-0.264637 0.117365 -1.37064e-19)
(-0.246578 0.106762 -6.8509e-19)
(0.46143 0.330658 -6.75527e-18)
(0.462781 0.368204 4.41208e-18)
(0.426908 0.377534 0)
(-0.43328 0.364031 0)
(-0.327712 0.315097 -1.97552e-18)
(-0.340467 0.338049 4.41072e-18)
(-0.315383 0.336737 4.87272e-18)
(-0.28614 0.0889349 -5.62147e-19)
(-0.257349 0.089553 1.14256e-18)
(-0.262895 0.0821483 5.72884e-19)
(0.275789 0.390427 -2.2018e-18)
(0.484581 0.452284 1.36929e-18)
(-0.472902 0.334906 -3.02002e-19)
(-0.189774 -17.2703 -1.01508e-17)
(0.345512 0.330323 1.11648e-18)
(0.371834 0.342612 -1.17247e-18)
(-0.369804 0.33426 0)
(0.229924 0.095872 0)
(0.263831 -7.87268 7.32665e-18)
(0.239516 0.0956143 4.91618e-20)
(-0.148929 0.841418 0)
(-0.474225 0.564278 2.30767e-18)
(0.323844 0.11352 3.17687e-18)
(0.300899 0.104062 -1.03256e-18)
(0.366608 0.139645 -2.65351e-19)
(0.346214 0.125233 2.71402e-19)
(0.402778 0.173207 -1.52011e-18)
(0.384963 0.154902 5.17893e-19)
(0.434808 0.213709 0)
(0.420345 0.192212 1.01961e-18)
(0.454491 0.262651 5.03983e-19)
(0.446052 0.236436 5.80031e-19)
(0.451752 0.293796 9.47976e-19)
(-0.461914 0.262068 2.47589e-19)
(-0.468421 0.297423 -6.05114e-19)
(-0.440602 0.202139 1.20577e-19)
(-0.452999 0.229711 3.51645e-24)
(-0.516052 0.395476 1.08106e-18)
(-0.293743 0.113789 2.82093e-19)
(0.0302643 -2.11788 2.385e-17)
(-0.329783 0.104396 -2.73848e-19)
(-0.308333 0.0963154 0)
(0.256309 0.11024 1.36157e-19)
(0.220786 0.0933133 1.03637e-18)
(0.23919 0.100964 0)
(0.28617 0.130472 -5.94858e-19)
(0.272032 0.120221 -1.11781e-18)
(0.31096 0.154101 3.05756e-19)
(0.299695 0.141884 -3.00923e-19)
(0.327974 0.178831 -6.0262e-19)
(0.319959 0.166083 5.73536e-19)
(0.340127 0.211064 0)
(0.334727 0.194138 -2.95484e-19)
(0.344362 0.249653 0)
(0.343673 0.229884 -2.84832e-19)
(0.332805 0.290587 -5.52718e-19)
(0.340665 0.270054 0)
(0.468632 0.50104 0)
(0.322305 0.31233 1.07287e-18)
(-0.343884 0.273751 -5.71737e-19)
(-0.336398 0.29268 1.24041e-18)
(-0.345547 0.234414 -5.67567e-19)
(-0.34631 0.254138 1.14543e-18)
(-0.33886 0.201211 -2.84705e-19)
(-0.342598 0.217424 0)
(-0.323858 0.170094 6.81515e-20)
(-0.332828 0.185277 0)
(-0.298042 0.141985 -1.08593e-18)
(-0.312277 0.155651 6.11457e-19)
(-0.281842 0.129129 5.46779e-19)
(-0.243548 0.0991173 4.20536e-19)
(-0.227338 0.097332 1.35869e-18)
(-0.235537 0.0996503 1.37601e-19)
(-0.250901 0.0954859 -5.6514e-19)
(-0.116208 0.0444789 2.37609e-18)
(0.239004 0.0745496 -3.33788e-18)
(0.242533 0.0682314 -6.75444e-18)
(-0.50707 0.351384 -8.92329e-19)
(0.456676 0.410086 -2.37355e-18)
(0.445901 0.45181 1.23937e-18)
(0.393344 0.381596 2.38969e-18)
(0.332803 0.357105 -3.34563e-18)
(-0.395125 0.362955 0)
(0.210722 0.0875278 1.94243e-18)
(-0.327974 0.367421 -2.1964e-18)
(-0.300814 0.357646 2.20642e-18)
(-0.291623 0.0805805 5.59798e-19)
(-0.267819 0.0744788 -7.08493e-19)
(0.417266 0.414019 1.18121e-18)
(-0.428364 0.403965 2.45416e-18)
(0.210682 0.0887389 0)
(0.202525 0.0861303 -5.15504e-19)
(0.0949243 -43.0509 3.19894e-21)
(0.0311895 -48.7197 -4.15292e-21)
(-0.00751059 -48.7149 -3.37623e-20)
(-0.0704358 -43.0464 3.42641e-20)
(-0.207104 0.0890132 -5.4038e-19)
(-0.219434 0.0926777 -5.37815e-19)
(-0.200081 0.084785 0)
(0.241327 0.347325 5.39238e-18)
(0.494267 0.397627 0)
(-0.133082 0.0472203 -2.54025e-18)
(0.233421 0.0799981 1.09108e-18)
(-0.220409 1.22975 -1.01708e-17)
(-0.125418 -9.35777 6.85928e-18)
(-0.472899 -11.337 -2.82523e-18)
(0.3608 0.372649 0)
(-0.36035 0.366021 0)
(0.103071 -6.90493 1.1406e-17)
(0.219187 0.0880698 -1.11582e-18)
(0.594033 0.602264 4.46522e-18)
(0.286657 0.0886836 -1.03343e-18)
(0.262705 0.0809568 1.05279e-18)
(0.33434 0.106634 0)
(0.310569 0.0971534 1.04199e-18)
(0.379306 0.131434 2.60903e-19)
(0.357423 0.11774 -5.25788e-19)
(0.419482 0.162645 5.1214e-19)
(0.399963 0.146189 -3.93772e-23)
(0.453122 0.200574 0)
(0.437754 0.180466 -2.54347e-19)
(0.478533 0.250571 0)
(0.466355 0.22307 -6.37693e-20)
(0.496363 0.32028 -1.0142e-18)
(0.487054 0.282194 0)
(0.499992 0.35973 -5.39871e-19)
(-0.493893 0.273985 4.95769e-19)
(-0.50315 0.311721 7.33025e-19)
(-0.465437 0.208138 -6.13383e-19)
(-0.481286 0.238933 -4.87572e-19)
(-0.426356 0.155556 1.27233e-19)
(-0.447072 0.180253 3.10294e-19)
(-0.381106 0.117588 -6.57862e-20)
(-0.403999 0.134252 0)
(-0.336693 0.0953338 -5.2621e-19)
(-0.358765 0.104909 6.7275e-19)
(-0.31447 0.087456 0)
(-0.0348608 -54.7291 1.04954e-21)
(-0.0989135 -60.8513 -1.04866e-21)
(-0.153041 -66.761 -1.64462e-20)
(-0.184328 -72.0439 5.03667e-20)
(-0.196134 -76.331 -2.4677e-20)
(-0.201484 -79.1912 -4.0945e-21)
(-0.191402 -80.2092 -7.0534e-20)
(-0.1586 -79.9838 -1.281e-19)
(-0.12976 -78.8761 -4.10406e-21)
(-0.122673 -75.0304 -6.25677e-20)
(0.178002 -75.0698 0)
(-0.159002 -59.2472 1.27315e-19)
(-0.078291 -38.1703 4.38758e-19)
(0.26421 -38.249 7.73585e-19)
(0.0729314 -59.4078 -2.41214e-19)
(0.202993 -79.9834 1.36575e-19)
(0.163685 -78.8782 2.58987e-19)
(0.229388 -79.1907 2.50924e-20)
(0.225711 -80.208 0)
(0.213382 -72.0393 1.64614e-20)
(0.222646 -76.3318 -1.7393e-23)
(0.121881 -60.8414 1.80604e-20)
(0.176229 -66.7503 -3.76947e-20)
(0.0582854 -54.7218 -1.0496e-21)
(0.246991 0.104686 0)
(0.230724 0.0959052 0)
(0.275209 0.123286 5.80226e-19)
(0.261762 0.113729 0)
(0.298511 0.145497 -2.97595e-19)
(0.287707 0.134005 -2.94262e-19)
(0.314547 0.169305 2.99804e-19)
(0.307136 0.157025 -2.62427e-19)
(0.323762 0.198027 -5.75939e-19)
(0.319958 0.183008 -2.91718e-19)
(0.325618 0.232702 0)
(0.32582 0.214694 5.65237e-19)
(0.313667 0.27025 -5.41987e-19)
(0.321632 0.251483 2.75031e-19)
(-0.320314 1.13795 1.04654e-17)
(0.301881 0.289293 7.33166e-19)
(0.269661 0.330021 1.18732e-19)
(-0.276698 0.334339 0)
(-0.282412 0.38011 -8.56315e-18)
(-0.239106 0.381375 -8.58481e-18)
(-0.25259 0.354162 -1.92042e-18)
(-0.306416 0.294823 5.88446e-19)
(-0.292587 0.313126 0)
(-0.324429 0.257562 -5.73036e-19)
(-0.317204 0.276705 -2.94765e-19)
(-0.327823 0.220986 -2.82169e-19)
(-0.327567 0.23901 5.65116e-19)
(-0.322819 0.190115 8.32872e-19)
(-0.325899 0.204923 0)
(-0.309713 0.161362 4.76021e-19)
(-0.317603 0.175517 -2.74977e-19)
(-0.285808 0.134604 -5.41089e-19)
(-0.299103 0.147707 -5.94166e-19)
(-0.254584 0.111295 1.36002e-19)
(-0.270668 0.122343 2.71482e-19)
(-0.23767 0.101466 1.35719e-19)
(-0.221543 0.0906754 -5.5952e-19)
(-0.214425 0.0910841 -5.48651e-19)
(-0.234024 0.0824696 -1.78522e-18)
(-0.228152 0.0875511 6.35417e-19)
(-0.243189 0.0691318 5.74378e-19)
(-0.238969 0.0760454 0)
(-0.268849 1.02035 0)
(0.400984 1.23926 -5.02064e-18)
(0.3811 0.413634 -1.16657e-18)
(0.316748 0.384567 4.36185e-18)
(-0.313164 0.395083 -4.40811e-18)
(-0.386077 0.400531 -2.32321e-18)
(0.192851 0.0816933 -4.87859e-19)
(0.546045 0.41551 4.35939e-18)
(0.148664 -37.796 4.16831e-21)
(-0.125788 -37.7925 0)
(0.205968 0.0831875 -2.25061e-18)
(0.489904 1.68505 0)
(-0.408431 -75.0076 2.70796e-19)
(-0.308797 -59.4081 2.69725e-19)
(0.403357 0.451203 -4.7904e-18)
(0.661539 -15.7999 2.83786e-18)
(-0.265146 0.409056 8.77746e-18)
(-0.419074 0.443245 2.51813e-18)
(0.213717 0.069622 1.15328e-18)
(0.215873 0.0637831 3.82297e-18)
(0.415081 -37.8994 -1.63683e-20)
(0.195092 -33.0181 -5.28632e-21)
(0.539117 -33.0962 3.38917e-20)
(-0.18646 0.0819458 -3.37624e-20)
(-0.180145 0.0782372 2.164e-19)
(-0.21211 0.0865759 -7.4375e-25)
(-0.19352 0.0792246 0)
(-0.210069 -26.2946 7.20281e-19)
(-0.216531 -26.0758 -4.90691e-19)
(0.219714 0.361265 1.52584e-18)
(0.233845 0.39467 1.67323e-18)
(0.428943 0.488216 0)
(-0.460179 0.456329 2.75332e-18)
(-0.197203 0.381967 1.25103e-18)
(-0.218427 0.412713 -7.19592e-18)
(-0.23754 -9.08625 5.15649e-18)
(0.531038 0.479336 4.81881e-18)
(0.493545 0.640079 4.30867e-18)
(-0.036231 0.0183197 -4.85252e-18)
(-0.246787 0.0621793 -4.27525e-19)
(-0.218221 0.0645162 -5.76302e-19)
(-0.221185 0.0581205 5.77167e-19)
(0.347635 0.403286 -2.11405e-22)
(-0.348319 0.399817 2.24617e-18)
(0.175124 0.0762437 1.07759e-18)
(0.190531 0.0820948 -5.35569e-19)
(0.183148 0.0799077 1.06516e-18)
(0.204411 0.0784879 1.09665e-18)
(0.197857 0.0812488 -5.10359e-19)
(0.209593 0.0740606 -1.11723e-18)
(0.294222 0.0806479 -5.12e-19)
(0.266417 0.0725533 4.82012e-19)
(0.344751 0.098224 0)
(0.319776 0.0889267 5.18748e-19)
(0.39192 0.121356 -2.59666e-19)
(0.36877 0.10886 0)
(0.4349 0.150261 2.57505e-19)
(0.414127 0.13515 3.87386e-19)
(0.471663 0.185323 -1.27112e-19)
(0.454199 0.166307 -7.63882e-19)
(0.505291 0.237781 -1.03875e-18)
(0.488849 0.208658 8.89724e-19)
(0.533216 0.312781 1.00957e-18)
(0.52047 0.272267 -1.01128e-18)
(0.536452 0.358384 7.74002e-19)
(-0.450305 0.494303 -2.7012e-18)
(-0.512588 0.564036 -1.0263e-17)
(-0.556253 0.37582 -9.40721e-19)
(-0.543966 0.430592 6.72564e-19)
(-0.52769 0.285355 -9.8287e-19)
(-0.541273 0.327605 1.2111e-18)
(-0.492743 0.217445 0)
(-0.511134 0.248975 4.83269e-19)
(-0.44797 0.160699 1.27103e-19)
(-0.47185 0.187945 -6.24429e-20)
(-0.394922 0.116149 2.58137e-19)
(-0.421807 0.136298 0)
(-0.344539 0.088973 -1.68462e-20)
(-0.369174 0.100619 -2.62467e-19)
(-0.296823 0.0727609 5.58013e-19)
(-0.32088 0.0800206 -6.80889e-19)
(-0.272182 0.0669761 4.22339e-19)
(0.0924289 -48.8514 0)
(0.261363 -43.1743 -1.76946e-20)
(-0.242381 -60.9674 0)
(-0.0793444 -54.8572 0)
(-0.500975 -72.111 5.28371e-22)
(-0.385196 -66.8565 -5.23821e-22)
(-0.600846 -79.1895 -1.67305e-20)
(-0.573738 -76.3663 3.66411e-21)
(-0.554766 -79.9425 0)
(-0.589733 -80.1801 1.49653e-19)
(-0.514469 -78.8218 -2.63322e-19)
(-0.393932 -37.8942 -3.39501e-20)
(-0.520176 -33.0947 -3.33947e-20)
(-0.173017 -33.0158 9.39934e-21)
(-0.206602 -19.3718 2.58889e-18)
(0.55978 -19.8485 1.67219e-18)
(0.757709 1.16317 4.32151e-18)
(0.327795 -38.8027 -1.12591e-18)
(0.60816 -26.9287 -9.37839e-19)
(0.448063 -75.142 -2.61879e-19)
(0.356173 -59.9593 0)
(0.555165 -79.9657 -1.32441e-19)
(0.527639 -78.8682 -1.32064e-19)
(0.627251 -79.193 -4.97632e-20)
(0.596269 -80.1946 -1.66064e-20)
(0.517465 -72.0924 -2.49287e-20)
(0.59713 -76.3584 5.03832e-20)
(0.266576 -60.9423 -2.09851e-21)
(0.407839 -66.8333 2.11534e-20)
(-0.0701107 -48.8354 1.75416e-20)
(0.103176 -54.8344 -1.55368e-20)
(-0.240434 -43.1639 3.30332e-20)
(0.238315 0.0978665 -2.83268e-19)
(0.223277 0.090613 5.60973e-19)
(0.264705 0.114209 -1.44529e-19)
(0.252117 0.105629 -2.84513e-19)
(0.286613 0.134649 1.46358e-19)
(0.276307 0.123932 -7.2855e-20)
(0.301984 0.1572 -2.88186e-19)
(0.295179 0.145703 2.64175e-19)
(0.309197 0.182462 -2.86056e-19)
(0.306688 0.169439 0)
(0.308483 0.212441 0)
(0.309981 0.196843 0)
(0.296162 0.245884 -3.37289e-19)
(0.30412 0.22912 6.83635e-20)
(0.26947 0.279388 -5.1905e-19)
(0.284554 0.262748 -3.35617e-23)
(0.230903 0.310613 -1.60144e-18)
(0.251506 0.295205 9.02901e-19)
(0.191821 0.377074 -5.83584e-19)
(0.179528 0.337796 5.57259e-19)
(0.205723 0.323938 0)
(-0.164727 0.397805 4.13198e-18)
(-0.155669 0.354976 -7.5765e-19)
(-0.0964576 0.410172 2.6428e-18)
(-0.0919734 0.366633 3.07152e-19)
(-0.121402 0.362711 1.11028e-18)
(-0.209243 0.332729 3.80438e-18)
(-0.183115 0.3432 1.14982e-18)
(-0.255211 0.301085 -1.5619e-18)
(-0.236605 0.319853 1.18029e-19)
(-0.286895 0.266444 1.40238e-18)
(-0.27268 0.283192 1.09638e-18)
(-0.306144 0.23422 -2.8087e-19)
(-0.298231 0.250574 -8.49949e-19)
(-0.311907 0.202434 2.78486e-19)
(-0.310453 0.21809 5.60331e-19)
(-0.308427 0.174671 -4.12013e-19)
(-0.311113 0.188114 6.92453e-19)
(-0.296467 0.14867 0)
(-0.303716 0.161546 -4.10056e-19)
(-0.274184 0.124117 0)
(-0.286574 0.136137 -1.69519e-20)
(-0.245358 0.103238 -3.38355e-19)
(-0.260181 0.113028 2.7046e-19)
(-0.229584 0.0945659 1.34948e-19)
(-0.199176 0.0832262 -1.74181e-20)
(-0.192894 0.083651 7.68071e-20)
(-0.210237 0.0761132 4.99373e-19)
(-0.20502 0.0804858 -4.83096e-19)
(-0.214586 0.0705964 0)
(0.204216 -7.79219 -1.04975e-17)
(0.637413 0.845355 -1.11331e-17)
(-0.257819 -38.3859 1.35318e-21)
(0.365273 0.447355 2.34601e-18)
(0.301308 0.416919 4.50219e-18)
(-0.297264 0.426375 0)
(-0.375065 0.440496 -7.14563e-18)
(0.217664 0.0591409 -3.43692e-19)
(0.0143309 -5.98619 -2.49707e-17)
(0.502785 0.554436 -2.36266e-18)
(-0.142372 0.423327 -4.48156e-18)
(0.710823 -38.0563 3.39339e-20)
(0.87629 -33.2217 1.05061e-21)
(0.155851 0.0707719 -1.37845e-18)
(0.426438 1.14529 5.72806e-18)
(0.182557 0.0730824 9.21167e-18)
(0.16501 0.0688041 -3.13391e-24)
(0.147451 0.0648864 0)
(-0.1739 0.0732189 7.70731e-19)
(-0.250114 0.0549655 -7.06635e-19)
(-0.223827 0.0512906 1.83913e-23)
(0.220661 -20.0808 -3.69913e-18)
(-0.553948 0.651196 4.36041e-18)
(-0.515361 0.70633 4.33575e-18)
(-0.0149987 -7.14222 5.3156e-18)
(-0.122404 0.0507331 0)
(-0.765757 -75.0273 -5.26509e-19)
(-0.590769 -59.7511 3.33901e-20)
(0.564115 0.677896 4.68603e-18)
(0.659924 0.733799 2.00427e-18)
(0.525269 0.810545 4.45653e-18)
(0.254485 0.423221 -5.00935e-18)
(0.383411 0.487908 0)
(-0.401391 0.485315 0)
(-0.243953 0.438909 0)
(-0.486618 0.634021 1.32124e-17)
(-0.69053 -38.0535 1.05095e-21)
(-0.85811 -33.2221 2.10151e-21)
(-0.511028 1.0455 5.3491e-18)
(0.265831 -8.98334 -1.93587e-18)
(0.0112816 -10.7794 -6.68269e-21)
(0.47758 0.711904 -4.46038e-18)
(0.405982 0.52651 0)
(0.207744 0.415542 -5.99805e-19)
(0.150238 0.351607 0)
(0.161357 0.393921 0)
(-0.057682 0.374438 1.14275e-18)
(-0.0631308 0.422448 1.83919e-22)
(-0.190003 0.437697 4.51674e-18)
(-0.423324 0.521755 0)
(-0.231255 0.725611 -1.01429e-17)
(-0.28737 -26.3307 -1.50744e-18)
(0.0458726 0.0203247 1.81655e-17)
(0.430897 0.612705 9.56538e-18)
(0.492901 0.94581 6.41745e-18)
(0.331669 0.4357 -2.29126e-18)
(-0.334526 0.436191 0)
(0.169431 0.0760566 3.97954e-24)
(0.162815 0.0742624 -8.12593e-19)
(0.181198 0.0728241 -5.47906e-19)
(0.175689 0.0753052 4.22179e-21)
(0.188866 0.0652872 0)
(0.185528 0.0691496 5.6259e-19)
(0.193209 0.0553865 0)
(0.191332 0.0605624 -1.21934e-18)
(0.196589 0.0492922 0)
(0.248068 0.0595138 7.29595e-24)
(0.223992 0.0535931 -3.23643e-19)
(0.302378 0.0717635 0)
(0.273644 0.0650461 -2.39767e-18)
(0.354659 0.0887397 1.39201e-19)
(0.328793 0.0798221 -1.38432e-19)
(0.403544 0.109518 -2.59965e-19)
(0.37948 0.0984635 1.30074e-19)
(0.448566 0.134606 0)
(0.426606 0.121475 8.19224e-24)
(0.490506 0.167226 7.65823e-19)
(0.469558 0.149207 1.2818e-19)
(0.535199 0.221879 -1.6059e-20)
(0.512742 0.190868 -3.83655e-19)
(0.57591 0.306063 -9.96812e-19)
(0.557555 0.260282 0)
(0.578752 0.423604 1.3843e-18)
(0.591487 0.359628 7.35179e-19)
(0.604622 0.505514 -3.73773e-18)
(-0.596526 0.504347 1.75052e-18)
(-0.582014 0.573874 -3.59764e-18)
(-0.601552 0.369105 0)
(-0.612547 0.429732 -1.59977e-18)
(-0.561357 0.271855 4.74924e-19)
(-0.582672 0.31441 0)
(-0.518605 0.209998 -2.45232e-19)
(-0.539876 0.237924 0)
(-0.470436 0.159621 0)
(-0.495866 0.184312 0)
(-0.411525 0.11487 5.13665e-19)
(-0.441683 0.136121 -5.08949e-19)
(-0.354526 0.0835607 2.67037e-19)
(-0.382262 0.0972559 1.29469e-19)
(-0.302591 0.0654237 -2.75893e-19)
(-0.32841 0.0731675 -6.75846e-19)
(-0.276546 0.0595144 5.57164e-19)
(0.252104 -49.0488 -1.49027e-20)
(0.501492 -43.3553 -3.11726e-20)
(-0.301686 -61.1626 1.69929e-20)
(-0.023596 -55.0617 2.07733e-20)
(-0.763157 -72.2318 0)
(-0.555547 -67.0232 -1.6543e-20)
(-0.994636 -79.1956 -3.3493e-20)
(-0.908652 -76.4336 -2.09111e-21)
(-0.937891 -79.8898 -1.32505e-19)
(-0.989176 -80.1408 -6.67194e-20)
(-0.879232 -78.7631 3.97231e-19)
(0.23551 -28.5548 0)
(-0.612093 -28.6091 3.17179e-20)
(-0.215507 -28.5529 -2.30546e-20)
(-0.109387 0.451522 -2.45188e-18)
(0.999303 -28.6973 -2.09863e-21)
(0.630831 -28.6077 2.09922e-21)
(0.134632 -14.8147 0)
(0.233456 -12.8243 3.10209e-18)
(-0.312295 -21.3966 -1.08114e-18)
(-0.0153316 -17.7691 2.73592e-18)
(0.411721 -39.676 -8.91824e-19)
(0.559089 -27.2091 1.34649e-18)
(0.754175 -75.1596 1.32091e-19)
(0.593719 -60.4849 1.31778e-19)
(0.969874 -79.8962 -1.32541e-19)
(0.917554 -78.7757 5.63428e-23)
(1.00553 -79.1989 -6.68424e-20)
(1.00958 -80.147 2.66089e-19)
(0.783283 -72.2129 -8.09834e-21)
(0.923682 -76.4259 -8.2838e-21)
(0.323391 -61.14 -1.45759e-20)
(0.575344 -67.0013 1.69694e-20)
(-0.229005 -49.034 1.66099e-20)
(0.0478848 -55.0411 7.4599e-21)
(-0.479143 -43.3472 -1.69983e-20)
(0.172236 0.0662779 4.20558e-18)
(0.14025 0.0591247 2.41639e-18)
(0.157089 0.0628544 -7.36722e-18)
(0.202474 0.0766915 -3.22234e-19)
(0.187659 0.0706446 -1.0408e-18)
(0.230708 0.0896208 -1.26765e-19)
(0.216927 0.0830792 4.42616e-19)
(0.255341 0.103998 7.21663e-20)
(0.243604 0.0965447 -1.79556e-20)
(0.275531 0.12165 7.63753e-20)
(0.265995 0.112293 -5.41875e-26)
(0.290268 0.142466 -7.13304e-20)
(0.283755 0.131761 -8.94148e-21)
(0.296602 0.165235 4.22562e-19)
(0.294657 0.153616 1.42185e-19)
(0.293791 0.190788 1.37346e-19)
(0.29636 0.177646 -1.4112e-24)
(0.281098 0.218998 3.37464e-19)
(0.288839 0.204724 -4.09674e-19)
(0.255244 0.247818 6.57878e-20)
(0.269947 0.233544 -4.69634e-19)
(0.21718 0.274297 -1.86047e-18)
(0.237228 0.261798 3.96005e-19)
(0.169082 0.297614 -5.43527e-19)
(0.193934 0.285599 1.08143e-18)
(0.118717 0.364017 0)
(0.111411 0.319153 -5.38093e-19)
(0.141353 0.309039 5.41431e-19)
(0.079434 0.327379 0)
(0.0468468 0.332645 -1.32272e-19)
(-0.0227725 0.382421 0)
(-0.0209727 0.333326 2.70995e-19)
(0.013183 0.335598 0)
(-0.0864331 0.320559 -3.51969e-20)
(-0.0540981 0.327056 2.77924e-19)
(-0.146481 0.307261 0)
(-0.118405 0.314351 3.4334e-20)
(-0.198822 0.289303 7.93662e-19)
(-0.172719 0.298435 -1.34718e-19)
(-0.239694 0.262999 3.59827e-24)
(-0.220569 0.276687 5.16403e-19)
(-0.270849 0.234564 -2.74146e-19)
(-0.256508 0.248627 0)
(-0.29063 0.207761 2.78101e-19)
(-0.282287 0.221181 -5.56375e-19)
(-0.298041 0.181239 1.37623e-19)
(-0.295739 0.19442 1.38575e-19)
(-0.295657 0.156735 -6.82401e-19)
(-0.297925 0.168708 4.11893e-19)
(-0.284472 0.13357 -2.71e-19)
(-0.291263 0.145023 4.08458e-19)
(-0.263732 0.111891 0)
(-0.275177 0.122441 0)
(-0.237376 0.0939873 6.07774e-19)
(-0.250979 0.102361 -2.02472e-19)
(-0.205965 0.0793366 1.38211e-24)
(-0.222598 0.0864498 -2.69412e-19)
(-0.167275 0.0661586 -9.53572e-19)
(-0.188157 0.0726033 1.04617e-18)
(-0.154793 0.0677097 7.74789e-19)
(-0.148501 0.0618424 1.44536e-18)
(-0.165705 0.0757655 6.78785e-20)
(-0.160211 0.0725405 -3.8272e-19)
(-0.176723 0.0767474 -3.47586e-20)
(-0.171296 0.0771843 3.75726e-19)
(-0.186266 0.0706044 -7.10022e-20)
(-0.181787 0.0743541 5.60444e-19)
(-0.193055 0.0604796 0)
(-0.18997 0.0658307 7.1522e-20)
(-0.197627 0.048264 5.23586e-19)
(-0.19554 0.054661 -5.40791e-19)
(-0.0712451 -6.67131 -5.14167e-18)
(0.0643996 -15.9774 -4.19304e-18)
(-0.425174 0.176566 -9.78648e-19)
(0.73661 0.678002 9.07899e-18)
(-0.435253 -38.8258 -4.83686e-19)
(0.34384 1.33865 9.52341e-18)
(0.471465 0.848359 -5.19829e-18)
(0.420912 1.05839 -8.0283e-22)
(0.289273 1.08508 6.90698e-18)
(0.334914 1.00576 -7.2438e-18)
(0.280769 0.448585 2.3255e-18)
(0.344745 0.481585 -2.31141e-18)
(0.0137481 0.385393 -5.29989e-19)
(0.084763 0.374485 2.46228e-23)
(-0.356878 0.481056 9.74652e-18)
(-0.276498 0.460131 0)
(-0.443792 0.679566 -1.43804e-17)
(0.658043 0.622532 -3.7578e-18)
(-0.593951 0.749328 -8.47734e-19)
(0.0624361 0.0275326 -4.42887e-18)
(-0.108044 1.03942 -1.58879e-17)
(-0.623547 0.66897 2.55205e-19)
(-0.681448 0.498475 1.83399e-18)
(-0.984975 -28.7002 -3.33989e-20)
(-0.457855 -8.43477 2.70591e-18)
(-0.120838 -10.4556 9.50329e-21)
(0.123283 0.0557492 5.9545e-19)
(0.117717 0.0499238 -1.02929e-23)
(0.134134 0.0530638 3.04937e-18)
(-0.0611702 -8.14341 1.20989e-17)
(0.440735 0.769915 -9.78045e-18)
(0.354754 0.527663 0)
(0.228541 0.450572 2.38156e-18)
(0.128375 0.409285 -6.86089e-20)
(-0.0260426 0.432177 0)
(-0.2167 0.470441 3.63348e-22)
(-0.375601 0.525434 -7.84908e-18)
(-0.420409 0.612315 -5.17218e-18)
(0.167737 0.0520345 -4.50741e-19)
(0.170198 0.0463946 1.50396e-19)
(-0.109077 -20.0944 4.97972e-19)
(0.583405 1.01018 2.64322e-18)
(0.0140094 -0.188718 -6.30029e-18)
(-0.0290661 -7.40059 1.53743e-17)
(-0.161357 0.465856 0)
(0.203613 1.03341 5.99555e-18)
(-0.104248 -10.1039 -1.29473e-17)
(-0.302967 -9.57151 -3.93851e-18)
(0.395965 0.681192 -9.91165e-18)
(-0.421578 -13.8782 1.12528e-19)
(0.362755 0.570782 -1.50417e-17)
(0.176562 0.435864 5.69339e-19)
(-0.0717121 0.471162 -2.21133e-18)
(-0.391347 0.565458 -3.03247e-18)
(-0.17125 0.0458874 7.24172e-20)
(-0.199542 0.0411261 -2.70534e-19)
(-0.172601 0.0392159 2.17139e-19)
(1.07942 -24.4419 0)
(1.22288 -28.794 3.38331e-20)
(1.31531 -24.5206 0)
(-0.34032 -26.5006 2.06872e-18)
(-0.134945 0.0630637 2.66372e-19)
(0.351494 0.640942 -1.92923e-21)
(-0.120174 0.734831 -4.64664e-18)
(0.391659 0.934761 -3.38075e-18)
(-0.376548 0.173059 -1.08914e-18)
(-0.401801 0.183781 7.04683e-19)
(0.311056 0.468801 2.28992e-18)
(0.050099 0.381377 6.61699e-19)
(-0.314799 0.473829 -4.67093e-18)
(-0.406083 0.742338 9.96281e-22)
(0.136179 0.066097 1.11943e-18)
(0.129492 0.0612304 -5.75463e-19)
(0.147668 0.0708314 4.75913e-19)
(0.142055 0.069347 0)
(0.15745 0.0679543 -2.77483e-24)
(0.152866 0.0701888 -2.04046e-19)
(0.163997 0.0612504 0)
(0.161148 0.0648073 -2.79227e-19)
(0.166213 0.0569874 -2.95179e-19)
(0.199785 0.0419801 3.01648e-19)
(0.255534 0.0501087 2.25415e-18)
(0.227858 0.0455665 0)
(0.310106 0.0619768 -8.59263e-24)
(0.282713 0.0560153 -2.64457e-19)
(0.363372 0.077034 -8.23556e-21)
(0.336988 0.0691887 1.35798e-19)
(0.413558 0.0947787 6.51798e-20)
(0.388849 0.0855302 1.35082e-19)
(0.460562 0.116227 6.45785e-20)
(0.437361 0.105016 -4.52678e-19)
(0.509347 0.147077 -7.67649e-19)
(0.483977 0.129365 3.87347e-19)
(0.566796 0.203637 2.09735e-18)
(0.537586 0.17139 -1.02581e-18)
(0.622816 0.294897 0)
(0.595925 0.244466 -1.01187e-18)
(0.662544 0.429718 1.43818e-18)
(0.64585 0.357693 0)
(0.659146 0.523837 3.56444e-18)
(0.0526325 1.04769 -5.59157e-18)
(-0.666578 0.584712 5.27771e-22)
(-0.652171 0.345886 0)
(-0.676121 0.419985 0)
(-0.590065 0.238875 -9.62144e-19)
(-0.620694 0.284914 0)
(-0.538 0.181851 -3.7425e-23)
(-0.562469 0.20577 1.218e-18)
(-0.488704 0.144232 0)
(-0.514079 0.162336 3.11996e-20)
(-0.428092 0.107693 0)
(-0.459601 0.125996 1.27348e-19)
(-0.365683 0.0765406 -1.31639e-19)
(-0.396322 0.090747 1.2917e-19)
(-0.308637 0.0574469 0)
(-0.336731 0.0654874 5.37136e-19)
(-0.25341 0.0472473 3.50313e-19)
(-0.280881 0.0516487 -1.38372e-19)
(-0.226362 0.0437779 -3.03785e-19)
(0.91235 -38.2472 0)
(1.08728 -33.3597 -3.44025e-20)
(0.401928 -49.3563 -3.60986e-20)
(0.682637 -43.6078 1.05016e-21)
(-0.235605 -61.486 -2.07525e-20)
(0.0886114 -55.3945 4.17465e-20)
(-0.846091 -72.4621 2.80682e-21)
(-0.553987 -67.3114 3.39092e-20)
(-1.24491 -79.2442 5.86666e-20)
(-1.08201 -76.587 -3.52526e-20)
(-1.25869 -79.8289 -2.66209e-19)
(-1.27657 -80.105 1.33618e-19)
(-1.09981 -74.9924 5.12096e-19)
(-1.22369 -78.6773 -1.32737e-19)
(-0.569129 -39.2677 5.67258e-19)
(-0.804977 -60.0991 -1.57618e-18)
(-0.675456 -24.3829 2.09731e-21)
(-1.20864 -28.7967 0)
(-1.30144 -24.5245 4.19624e-21)
(-1.07003 -24.4462 -5.9186e-21)
(0.260917 -24.3417 2.09686e-21)
(-0.244281 -24.3413 1.68667e-20)
(0.696467 -24.3807 -2.09662e-21)
(0.00464085 -14.3708 0)
(0.280301 -12.1874 -2.6537e-18)
(0.168722 -21.5607 -1.13893e-18)
(0.0877481 -17.2916 0)
(0.581848 -40.3508 -7.08191e-19)
(0.45513 -27.7204 -2.71939e-19)
(1.1219 -75.1734 3.90233e-19)
(0.862191 -60.9795 1.06596e-19)
(1.26819 -79.8376 6.65029e-20)
(1.24378 -78.7134 -1.33285e-19)
(1.26297 -79.2419 -8.35873e-20)
(1.29085 -80.1066 6.65354e-20)
(0.866459 -72.4471 0)
(1.10249 -76.5812 5.03532e-20)
(0.257234 -61.4662 8.26449e-21)
(0.577684 -67.2893 -1.67832e-20)
(-0.38155 -49.347 -2.10061e-21)
(-0.0683079 -55.379 -8.50511e-21)
(-0.896754 -38.2472 -3.38375e-20)
(-0.6646 -43.6043 1.05059e-21)
(-1.07299 -33.3624 3.17903e-20)
(0.16564 0.060162 0)
(0.150237 0.0564575 1.86796e-18)
(0.19597 0.0686294 -6.24099e-19)
(0.180835 0.0638966 -3.22319e-19)
(0.223884 0.0802812 0)
(0.210416 0.0742952 5.98005e-19)
(0.247494 0.0929342 2.90196e-19)
(0.236341 0.0864947 -2.49071e-24)
(0.265998 0.107566 6.71617e-20)
(0.257351 0.0998472 1.42792e-19)
(0.279591 0.125567 1.41912e-19)
(0.273454 0.116135 -1.42145e-19)
(0.285497 0.146064 -1.39723e-19)
(0.283793 0.135592 0)
(0.281548 0.168074 -2.51256e-24)
(0.284704 0.15692 -2.76547e-19)
(0.268278 0.191225 1.51917e-19)
(0.27611 0.179476 4.08941e-19)
(0.242897 0.215473 6.63979e-20)
(0.257259 0.203461 -2.85215e-19)
(0.205297 0.236898 2.6558e-19)
(0.225251 0.226917 -1.33063e-19)
(0.159807 0.25619 0)
(0.183455 0.2462 -1.33891e-19)
(0.1053 0.274028 -5.34046e-19)
(0.133544 0.265701 0)
(0.0442843 0.284549 -1.33489e-19)
(0.0750548 0.280546 5.99888e-19)
(-0.0191898 0.284693 -5.39586e-19)
(0.0126526 0.286522 2.68409e-19)
(-0.0816556 0.274288 -6.86751e-19)
(-0.0506838 0.280037 2.73338e-19)
(-0.138767 0.262411 -2.02673e-19)
(-0.111499 0.26883 3.06975e-19)
(-0.187087 0.245944 -1.15401e-23)
(-0.163663 0.253757 -1.3447e-19)
(-0.227446 0.225181 1.14471e-23)
(-0.208309 0.236321 -1.06083e-18)
(-0.258315 0.202821 -1.08749e-18)
(-0.244164 0.214041 1.08008e-18)
(-0.27795 0.180885 -6.8842e-20)
(-0.269591 0.191882 5.45506e-19)
(-0.286022 0.158646 1.36672e-19)
(-0.283304 0.169767 -1.3744e-19)
(-0.284404 0.137387 -2.71888e-19)
(-0.28633 0.147843 -2.73032e-19)
(-0.273969 0.117297 -3.38325e-20)
(-0.280336 0.127196 2.71593e-19)
(-0.254759 0.0989173 -2.0073e-24)
(-0.265271 0.107767 2.70603e-19)
(-0.23029 0.0839433 0)
(-0.243058 0.0909942 -3.71176e-19)
(-0.20039 0.0716559 1.16189e-24)
(-0.216166 0.0775362 -4.05691e-19)
(-0.165224 0.0612443 4.3714e-18)
(-0.18377 0.0664657 -5.42424e-19)
(-0.144682 0.0704141 -6.79592e-20)
(-0.139852 0.0674925 6.71343e-19)
(-0.154114 0.0712541 -2.7669e-19)
(-0.149488 0.0716573 -3.417e-19)
(-0.162063 0.0659551 5.6574e-19)
(-0.15835 0.0691913 6.97379e-20)
(-0.167667 0.0570523 -1.43852e-19)
(-0.165134 0.0617918 7.14125e-19)
(-0.169655 0.051779 0)
(-0.140961 0.0539913 0)
(-0.0284075 -1.68941 -1.1197e-17)
(0.422028 -4.95415 -4.4332e-18)
(0.111656 0.0440335 1.21675e-18)
(0.25658 0.967427 -1.20567e-17)
(0.381521 0.845186 1.60688e-17)
(-0.174088 0.966152 1.06293e-17)
(0.317305 0.517564 2.34257e-18)
(0.253705 0.480135 -4.65491e-18)
(0.0916084 0.422448 -3.35453e-19)
(0.0141854 0.436816 -2.50298e-23)
(-0.249438 0.496142 -4.58028e-18)
(-0.330677 0.520517 -2.46262e-18)
(-0.376814 0.661938 4.84591e-22)
(-0.393681 0.163745 1.80985e-18)
(0.17245 0.0396265 0)
(0.770324 0.607956 -4.07365e-18)
(0.22565 1.22625 -1.61381e-17)