/*--------------------------------*- C++ -*----------------------------------*\
| =========                 |                                                 |
| \\      /  F ield         | OpenFOAM: The Open Source CFD Toolbox           |
|  \\    /   O peration     | Version:  2212                                  |
|   \\  /    A nd           | Website:  www.openfoam.com                      |
|    \\/     M anipulation  |                                                 |
\*---------------------------------------------------------------------------*/
FoamFile
{
    version     2.0;
    format      ascii;
    arch        "LSB;label=32;scalar=64";
    class       volScalarField;
    location    "0.0902";
    object      T;
}
// * * * * * * * * * * * * * * * * * * * * * * * * * * * * * * * * * * * * * //

dimensions      [0 0 0 1 0 0 0];

internalField   nonuniform List<scalar> 
31661
(
271.639
211.347
213.078
212.121
211.281
212.834
211.964
211.269
212.657
211.864
268.422
217.639
274.034
266.064
272.445
271.256
272.409
271.474
219.026
271.06
232.704
232.856
256.207
268.386
213.161
233.15
257.837
251.766
217.837
219.59
268.327
262.102
262.339
221.079
229.078
268.037
224.122
268.218
252.897
261.359
257.239
210.972
268.459
233.008
233.863
219.621
233.388
226.701
223.677
258.976
249.02
256.016
220.876
225.721
248.583
217.989
221.27
223.18
229.255
218.939
218.906
218.505
230.828
208.441
224.836
265.5
272.567
227.604
225.596
223.627
216.61
220.982
219.101
217.156
215.479
213.872
212.416
211.098
209.933
208.919
208.049
207.32
206.715
206.223
206.335
206.841
207.46
208.203
209.082
210.096
211.252
212.541
213.968
215.523
217.181
218.871
220.574
222.186
223.792
225.441
227.1
228.547
229.832
231.25
231.079
232.538
232.252
233.612
233.298
234.507
234.2
235.245
234.964
235.849
235.604
236.341
236.135
236.74
236.573
237.067
236.934
237.336
237.232
237.561
237.481
237.751
237.69
237.916
237.869
238.061
238.026
238.193
238.167
238.315
238.295
238.431
238.416
238.544
238.533
238.656
238.648
238.77
238.765
238.889
238.885
239.014
239.012
239.148
239.148
239.294
239.295
239.454
239.456
239.632
239.635
239.83
239.835
240.054
240.061
240.308
240.316
240.599
240.609
240.937
240.948
241.339
241.351
241.846
241.859
242.554
242.539
242.562
241.87
241.362
240.959
240.619
240.326
240.07
239.844
239.643
239.464
239.303
239.155
239.02
238.893
238.773
238.658
238.544
238.429
238.31
238.186
238.05
237.9
237.729
237.531
237.296
237.014
236.67
236.249
235.733
235.101
234.332
233.406
232.294
230.956
229.459
227.623
225.573
223.512
221.483
219.485
217.548
215.808
214.155
212.664
211.315
210.126
205.928
205.831
209.09
208.204
207.46
206.839
206.332
205.527
205.613
205.871
206.227
206.675
207.224
207.884
208.665
209.573
210.607
211.765
213.036
214.407
215.873
217.394
218.959
220.529
222.04
223.525
224.991
226.41
227.732
228.976
230.205
231.378
232.448
233.406
234.25
234.982
235.61
236.14
236.585
236.955
237.263
237.521
237.739
237.926
238.09
238.237
238.372
238.5
238.624
238.748
238.874
239.007
239.147
239.299
239.465
239.649
239.854
240.084
240.345
240.642
240.987
241.395
241.906
242.6
243.7
243.665
243.653
243.667
243.708
242.62
241.931
241.42
241.012
240.666
240.367
240.105
239.874
239.669
239.485
239.319
239.167
239.027
238.896
238.771
238.65
238.529
238.407
238.278
238.14
237.988
237.816
237.618
237.383
237.103
236.765
236.355
235.858
235.259
234.543
233.697
232.712
231.583
230.312
228.861
227.2
225.421
223.597
221.752
219.886
218.1
216.377
214.762
213.261
211.894
210.672
209.601
208.675
205.925
207.885
207.219
206.668
205.636
205.393
205.61
205.32
205.387
205.72
206.009
206.318
206.737
207.25
207.865
208.59
209.427
210.382
211.444
212.606
213.854
215.166
216.522
217.896
219.27
220.621
221.912
223.164
224.389
225.578
226.719
227.838
228.97
230.091
231.163
232.173
233.107
233.958
234.716
235.381
235.952
236.437
236.846
237.189
237.477
237.72
237.929
238.111
238.273
238.423
238.565
238.703
238.842
238.984
239.134
239.295
239.47
239.662
239.876
240.116
240.386
240.693
241.047
241.462
241.979
242.67
243.75
245.625
245.629
245.624
245.616
245.611
245.607
245.604
243.771
242.709
242.023
241.507
241.091
240.735
240.427
240.155
239.915
239.701
239.509
239.335
239.175
239.027
238.887
238.752
238.619
238.485
238.345
238.196
238.031
237.844
237.629
237.374
237.071
236.707
236.27
235.747
235.127
234.403
233.569
232.628
231.586
230.454
229.243
227.926
226.504
225.023
223.496
221.929
220.308
218.725
217.146
215.623
214.16
212.8
211.558
210.446
209.46
208.602
206.22
207.866
207.246
205.204
205.573
205.269
205.867
205.392
205.142
205.411
205.791
205.991
206.221
206.551
206.963
207.464
208.062
208.762
209.567
210.474
211.477
212.564
213.716
214.914
216.13
217.342
218.53
219.677
220.775
221.809
222.801
223.769
224.717
225.654
226.601
227.586
228.598
229.616
230.626
231.613
232.557
233.441
234.25
234.975
235.609
236.157
236.624
237.019
237.352
237.634
237.876
238.086
238.274
238.447
238.61
238.77
238.931
239.097
239.272
239.461
239.667
239.894
240.147
240.431
240.751
241.118
241.545
242.069
242.757
243.807
245.605
248.854
249.032
249.15
249.209
249.213
249.168
249.074
248.935
248.751
245.595
243.848
242.819
242.137
241.614
241.186
240.817
240.495
240.21
239.957
239.73
239.525
239.338
239.165
239.003
238.848
238.696
238.543
238.384
238.214
238.027
237.814
237.568
237.279
236.935
236.525
236.037
235.46
234.79
234.023
233.163
232.221
231.211
230.153
229.066
227.96
226.823
225.652
224.466
223.256
222.001
220.699
219.37
218.012
216.64
215.281
213.971
212.735
211.587
210.537
209.6
208.78
206.731
208.07
205.086
205.157
206.313
205.664
205.331
205.615
205.21
205.02
205.576
205.959
206.126
206.284
206.572
206.888
207.307
207.814
208.415
209.113
209.907
210.793
211.762
212.799
213.883
214.991
216.097
217.176
218.208
219.182
220.091
220.937
221.722
222.472
223.204
223.932
224.665
225.426
226.238
227.1
228.005
228.945
229.91
230.881
231.84
232.762
233.628
234.421
235.132
235.757
236.297
236.759
237.151
237.485
237.772
238.022
238.245
238.449
238.643
238.832
239.023
239.22
239.429
239.654
239.9
240.171
240.473
240.811
241.195
241.637
242.169
242.853
243.867
245.568
248.62
253.428
253.853
254.178
254.397
254.515
254.534
254.455
254.285
254.021
253.663
248.524
245.581
243.932
242.941
242.263
241.733
241.29
240.904
240.565
240.262
239.991
239.746
239.523
239.318
239.126
238.942
238.763
238.583
238.396
238.197
237.976
237.727
237.438
237.1
236.7
236.227
235.673
235.029
234.293
233.47
232.57
231.611
230.614
229.602
228.596
227.61
226.652
225.713
224.786
223.872
222.951
221.998
221.015
219.964
218.864
217.702
216.508
215.303
214.113
212.957
211.864
210.862
209.954
207.468
209.142
253.212
208.433
205.01
206.965
205.113
206.012
205.301
205.406
205.877
205.55
205.086
204.969
205.842
206.221
206.336
206.458
206.714
206.95
207.308
207.745
208.27
208.887
209.596
210.394
211.276
212.226
213.229
214.262
215.3
216.315
217.284
218.19
219.022
219.778
220.463
221.086
221.658
222.206
222.74
223.278
223.828
224.417
225.055
225.751
226.506
227.32
228.19
229.107
230.057
231.019
231.97
232.888
233.751
234.541
235.25
235.874
236.415
236.881
237.28
237.625
237.926
238.195
238.441
238.675
238.903
239.132
239.37
239.621
239.892
240.186
240.511
240.871
241.276
241.735
242.277
242.956
243.927
245.52
248.345
252.912
258.027
258.557
258.976
259.285
259.491
259.6
259.62
259.552
259.392
259.138
258.783
258.319
252.68
248.264
245.557
244.019
243.07
242.397
241.857
241.397
240.991
240.63
240.305
240.012
239.744
239.496
239.265
239.045
238.83
238.614
238.39
238.15
237.886
237.588
237.244
236.843
236.373
235.826
235.193
234.472
233.668
232.787
231.849
230.877
229.893
228.923
227.985
227.093
226.254
225.466
224.722
224.016
223.335
222.656
221.962
221.243
220.461
219.618
218.698
217.71
216.664
215.575
214.469
213.386
212.346
211.359
210.454
209.641
257.745
208.917
207.827
204.991
206.554
205.109
205.725
205.3
205.265
205.548
205.013
206.171
205.839
204.951
261.758
262.13
262.415
262.619
262.749
262.817
262.827
262.782
262.679
262.511
262.271
261.946
261.529
257.061
252.082
247.984
245.526
244.108
243.203
242.535
241.984
241.505
241.077
240.691
240.339
240.017
239.718
239.439
239.172
238.911
238.649
238.377
238.086
237.766
237.406
236.993
236.516
235.965
235.332
234.614
233.814
232.94
232.011
231.048
230.074
229.115
228.193
227.322
226.514
225.772
225.095
224.477
223.91
223.391
222.892
222.406
221.913
221.403
220.849
220.236
219.551
218.783
217.932
217.001
216.015
214.998
213.965
212.952
211.979
211.066
210.229
208.289
209.484
261.014
206.164
206.534
206.609
206.719
206.905
207.111
207.42
207.8
208.262
208.812
209.452
210.18
210.991
211.875
212.816
213.794
214.785
215.762
216.7
217.576
218.377
219.094
219.728
220.286
220.781
221.22
221.631
222.012
222.395
222.783
223.189
223.62
224.101
224.638
225.234
225.895
226.625
227.422
228.283
229.196
230.145
231.109
232.064
232.986
233.853
234.649
235.365
235.997
236.549
237.027
237.444
237.809
238.137
238.437
238.721
238.998
239.276
239.563
239.866
240.192
240.545
240.931
241.359
241.838
242.391
243.065
243.991
245.465
248.045
252.322
257.391
261.295
207.314
204.994
208.832
207.759
206.223
205.138
205.577
205.343
205.16
205.592
204.994
205.876
204.96
206.517
206.187
260.4
256.281
251.441
247.699
245.497
244.198
243.339
242.677
242.116
241.616
241.162
240.747
240.363
240.004
239.666
239.343
239.025
238.705
238.373
238.017
237.628
237.191
236.695
236.128
235.483
234.757
233.951
233.073
232.142
231.177
230.203
229.245
228.326
227.46
226.661
225.935
225.28
224.695
224.174
223.711
223.3
222.916
222.561
222.219
221.881
221.524
221.146
220.72
220.235
219.673
219.025
218.289
217.468
216.571
215.619
214.63
213.641
212.672
211.747
210.892
210.121
206.929
207.012
207.18
207.335
207.625
207.934
208.346
208.841
209.422
210.09
210.842
211.669
212.56
213.494
214.45
215.401
216.323
217.19
217.985
218.695
219.317
219.853
220.313
220.707
221.049
221.353
221.633
221.897
222.16
222.438
222.733
223.045
223.39
223.781
224.23
224.74
225.316
225.963
226.685
227.48
228.342
229.259
230.216
231.189
232.156
233.089
233.97
234.78
235.511
236.161
236.734
237.237
237.683
238.083
238.451
238.798
239.136
239.474
239.821
240.185
240.575
240.993
241.448
241.948
242.513
243.181
244.061
245.412
247.735
251.679
256.657
260.742
263.07
263.419
263.708
263.936
264.107
264.225
264.298
264.332
264.333
264.305
264.245
264.147
264.003
263.805
263.546
263.22
206.89
262.824
208.271
209.437
206.521
206.891
205.046
263.869
264.125
264.338
264.506
264.634
264.727
264.79
264.829
264.848
264.85
264.832
264.789
264.714
264.603
264.453
264.262
264.032
207.317
205.997
205.202
206.885
207.288
207.352
207.483
207.612
207.884
208.131
208.502
208.949
209.479
210.094
210.793
211.57
212.414
213.309
214.235
215.166
216.078
216.944
217.744
218.464
219.094
219.634
220.089
220.47
220.788
221.056
221.286
221.491
221.675
221.861
222.033
222.217
222.421
222.654
222.899
223.175
223.493
223.863
224.295
224.792
225.36
226.004
226.727
227.527
228.397
229.327
230.298
231.289
232.274
233.229
234.131
234.966
235.724
236.404
237.011
237.553
238.043
238.494
238.92
239.332
239.741
240.158
240.593
241.052
241.539
242.065
242.642
243.306
244.139
245.369
247.435
251.013
255.843
260.104
262.663
263.769
208.847
207.8
205.416
205.412
205.118
205.662
204.997
205.942
205.017
206.246
206.573
207.272
206.916
208.016
207.655
263.571
262.361
259.694
255.429
250.787
247.425
245.474
244.293
243.48
242.824
242.251
241.729
241.246
240.796
240.369
239.965
239.574
239.189
238.798
238.391
237.956
237.48
236.95
236.356
235.687
234.939
234.115
233.222
232.277
231.302
230.318
229.354
228.426
227.558
226.758
226.034
225.387
224.816
224.312
223.871
223.493
223.161
222.865
222.587
222.334
222.1
221.872
221.635
221.38
221.095
220.766
220.378
219.916
219.369
218.73
217.997
217.175
216.286
215.349
214.381
213.415
212.492
211.621
210.822
210.109
264.08
208.341
209.473
231.098
263.852
206.582
205.121
264.28
264.448
264.583
264.687
264.762
264.814
264.847
264.864
264.866
264.852
264.816
264.755
264.663
264.54
264.384
264.2
263.992
206.952
205.795
205.293
208.068
207.713
207.808
207.95
208.15
208.384
208.719
209.123
209.607
210.175
210.825
211.555
212.355
213.212
214.108
215.02
215.922
216.789
217.599
218.333
218.981
219.538
220.006
220.394
220.711
220.969
221.18
221.356
221.506
221.636
221.758
221.871
221.995
222.114
222.244
222.391
222.569
222.771
222.99
223.248
223.551
223.91
224.335
224.829
225.397
226.046
226.777
227.589
228.475
229.424
230.418
231.435
232.449
233.435
234.372
235.244
236.044
236.769
237.426
238.024
238.577
239.096
239.596
240.088
240.584
241.093
241.626
242.183
242.777
243.437
244.229
245.344
247.161
250.353
254.973
259.387
262.202
263.476
263.766
207.416
205.336
205.51
208.932
207.918
205.113
205.76
205.049
206.037
205.095
206.333
206.647
206.979
207.664
263.992
263.785
208.686
208.669
263.603
263.236
261.835
258.91
254.535
250.152
247.18
245.466
244.397
243.625
242.974
242.389
241.841
241.323
240.823
240.346
239.879
239.414
238.938
238.441
237.909
237.33
236.691
235.983
235.2
234.344
233.423
232.452
231.453
230.45
229.468
228.528
227.647
226.841
226.112
225.464
224.894
224.398
223.968
223.604
223.293
223.025
222.788
222.567
222.378
222.212
222.063
221.901
221.749
221.581
221.398
221.182
220.926
220.613
220.23
219.764
219.205
218.553
217.811
216.981
216.082
215.152
214.211
213.28
212.395
211.569
210.818
210.15
208.344
207.983
208.48
209.57
230.258
206.28
205.225
264.176
264.331
264.457
264.554
264.625
264.674
264.706
264.723
264.724
264.709
264.675
264.616
264.528
264.411
264.265
264.091
263.897
263.688
206.69
205.667
205.409
211.595
208.157
208.308
208.443
208.717
208.974
209.342
209.787
210.314
210.921
211.607
212.366
213.186
214.052
214.942
215.833
216.7
217.518
218.268
218.936
219.515
220.004
220.409
220.738
221.002
221.212
221.38
221.515
221.625
221.717
221.797
221.869
221.94
222.009
222.087
222.175
222.266
222.375
222.5
222.658
222.842
223.049
223.299
223.596
223.953
224.378
224.876
225.453
226.113
226.86
227.691
228.602
229.579
230.606
231.66
232.715
233.746
234.733
235.658
236.516
237.304
238.028
238.7
239.33
239.932
240.517
241.096
241.681
242.283
242.906
243.57
244.329
245.338
246.927
249.73
254.077
258.605
261.692
263.16
263.531
263.473
207.105
205.306
205.631
207.611
205.141
205.882
209.076
208.103
205.123
206.155
205.204
206.446
206.752
207.07
263.727
263.535
207.394
207.716
224.514
208.02
263.56
263.322
263.349
262.868
261.255
258.066
253.632
249.565
246.974
245.478
244.511
243.772
243.124
242.519
241.936
241.367
240.814
240.263
239.707
239.132
238.529
237.882
237.182
236.417
235.583
234.68
233.716
232.705
231.67
230.634
229.624
228.66
227.76
226.937
226.196
225.538
224.962
224.465
224.038
223.68
223.377
223.121
222.907
222.708
222.539
222.4
222.28
222.174
222.065
221.973
221.873
221.771
221.655
221.52
221.357
221.154
220.9
220.582
220.186
219.702
219.125
218.448
217.682
216.845
215.952
215.024
214.098
213.205
212.36
211.574
210.867
210.252
268.757
208.672
209.724
236.888
219.993
206.126
205.35
263.898
264.044
264.164
264.258
264.33
264.381
264.413
264.429
264.429
264.412
264.375
264.314
264.226
264.112
263.971
263.806
263.622
263.425
263.223
206.466
205.578
205.545
220.368
212.095
208.635
208.795
209.017
209.263
209.609
210.022
210.509
211.076
211.722
212.441
213.224
214.058
214.924
215.8
216.662
217.485
218.249
218.937
219.539
220.052
220.478
220.826
221.104
221.323
221.495
221.628
221.731
221.811
221.875
221.926
221.969
222.007
222.043
222.079
222.118
222.164
222.225
222.291
222.368
222.465
222.578
222.726
222.902
223.107
223.356
223.656
224.017
224.45
224.959
225.552
226.232
227.003
227.864
228.809
229.826
230.898
232.002
233.113
234.205
235.257
236.254
237.186
238.052
238.859
239.614
240.329
241.014
241.678
242.335
242.997
243.685
244.43
245.35
246.742
249.172
253.19
257.778
261.143
262.825
263.3
263.262
263.021
206.889
205.305
205.773
207.309
205.205
206.025
207.826
205.227
206.296
209.279
208.342
205.332
206.582
206.879
263.277
263.076
207.186
207.497
207.803
208.12
263.325
263.105
263.084
263.093
262.474
260.633
257.187
252.762
249.053
246.818
245.512
244.63
243.913
243.254
242.613
241.983
241.355
240.719
240.063
239.377
238.651
237.874
237.037
236.135
235.167
234.143
233.078
231.992
230.911
229.859
228.859
227.928
227.078
226.316
225.642
225.053
224.545
224.112
223.751
223.449
223.198
222.989
222.803
222.648
222.525
222.419
222.335
222.254
222.186
222.128
222.071
222.016
221.956
221.889
221.809
221.711
221.586
221.425
221.219
220.954
220.618
220.201
219.691
219.085
218.388
217.606
216.751
215.853
214.945
214.045
213.177
212.374
211.638
210.981
210.415
208.731
208.915
209.93
208.443
262.882
205.958
205.496
263.457
263.613
263.744
263.848
263.926
263.981
264.015
264.031
264.03
264.009
263.966
263.898
263.802
263.675
263.521
263.342
263.145
262.935
262.721
262.519
206.32
205.551
205.701
209.134
209.196
209.221
209.34
209.56
209.889
210.28
210.741
211.276
211.886
212.569
213.318
214.12
214.961
215.819
216.672
217.495
218.268
218.972
219.595
220.131
220.581
220.95
221.247
221.48
221.662
221.801
221.906
221.985
222.042
222.084
222.115
222.136
222.151
222.163
222.173
222.182
222.195
222.211
222.234
222.269
222.319
222.375
222.447
222.539
222.652
222.798
222.976
223.189
223.446
223.757
224.13
224.577
225.107
225.723
226.435
227.242
228.143
229.135
230.205
231.336
232.505
233.687
234.856
235.989
237.069
238.087
239.039
239.93
240.765
241.552
242.302
243.027
243.745
244.494
245.364
246.594
248.693
252.35
256.933
260.57
262.481
263.087
263.066
262.841
262.341
206.703
205.346
205.933
207.158
205.296
206.187
209.127
207.598
205.352
206.456
208.104
205.481
206.738
262.701
262.487
209.524
208.627
207.029
207.326
207.625
207.929
208.237
262.863
262.645
262.429
262.675
262.862
262.835
262.065
259.989
256.31
251.962
248.632
246.71
245.558
244.735
244.015
243.328
242.645
241.947
241.224
240.464
239.658
238.799
237.88
236.896
235.85
234.751
233.614
232.463
231.321
230.215
229.166
228.191
227.304
226.509
225.806
225.195
224.67
224.225
223.853
223.543
223.285
223.071
222.888
222.738
222.62
222.522
222.445
222.38
222.323
222.283
222.25
222.222
222.197
222.172
222.145
222.111
222.07
222.016
221.944
221.849
221.722
221.554
221.333
221.05
220.692
220.246
219.708
219.076
218.348
217.546
216.691
215.802
214.907
214.037
213.209
212.448
211.765
211.158
210.631
209.217
208.571
210.181
208.813
262.227
205.874
205.659
262.895
263.065
263.208
263.323
263.411
263.474
263.514
263.531
263.528
263.501
263.449
263.369
263.258
263.117
262.946
262.75
262.533
262.303
262.07
261.849
261.65
206.212
205.551
205.873
209.726
209.855
210.011
210.238
210.568
210.999
211.511
212.095
212.747
213.464
214.236
215.049
215.886
216.726
217.546
218.322
219.038
219.678
220.235
220.708
221.099
221.415
221.665
221.86
222.01
222.121
222.204
222.262
222.303
222.327
222.342
222.347
222.346
222.342
222.332
222.322
222.311
222.303
222.296
222.298
222.306
222.321
222.351
222.398
222.455
222.529
222.623
222.744
222.898
223.089
223.317
223.595
223.927
224.324
224.795
225.355
226.009
226.76
227.616
228.572
229.622
230.758
231.961
233.208
234.472
235.727
236.948
238.115
239.216
240.245
241.204
242.096
242.932
243.726
244.513
245.358
246.475
248.296
251.588
256.108
259.997
262.143
262.902
262.904
262.699
262.201
261.49
206.594
205.416
206.11
209.635
209.143
206.992
205.411
206.365
207.443
205.498
206.633
262.073
261.832
207.91
205.646
208.415
206.912
207.197
209.803
208.928
207.488
207.782
208.081
208.389
262.259
262.024
261.793
261.581
262.053
262.499
262.674
262.587
261.66
259.348
255.479
251.269
248.306
246.636
245.594
244.794
244.058
243.322
242.556
241.745
240.879
239.95
238.952
237.886
236.755
235.572
234.353
233.123
231.908
230.733
229.622
228.592
227.654
226.812
226.072
225.427
224.874
224.407
224.015
223.685
223.411
223.183
222.991
222.836
222.714
222.617
222.54
222.477
222.427
222.393
222.37
222.356
222.348
222.344
222.343
222.341
222.337
222.329
222.314
222.292
222.258
222.207
222.134
222.034
221.898
221.716
221.477
221.17
220.784
220.309
219.738
219.077
218.336
217.526
216.664
215.786
214.922
214.09
213.317
212.598
211.952
211.379
210.88
209.541
208.91
210.46
208.701
261.4
205.84
205.838
262.29
262.48
262.639
262.768
262.868
262.939
262.984
263.003
262.997
262.964
262.904
262.812
262.687
262.529
262.338
262.119
261.876
261.619
261.358
261.106
260.877
260.687
206.165
205.593
206.059
210.325
210.467
210.729
210.985
211.345
211.793
212.336
212.96
213.653
214.399
215.187
216.002
216.826
217.636
218.412
219.134
219.787
220.361
220.853
221.264
221.6
221.868
222.078
222.24
222.361
222.451
222.513
222.556
222.581
222.594
222.594
222.59
222.575
222.557
222.535
222.51
222.484
222.459
222.435
222.413
222.396
222.387
222.382
222.388
222.405
222.438
222.488
222.557
222.641
222.746
222.88
223.058
223.276
223.532
223.838
224.205
224.642
225.155
225.753
226.451
227.255
228.167
229.188
230.31
231.52
232.802
234.13
235.478
236.816
238.117
239.357
240.522
241.604
242.606
243.532
244.412
245.292
246.35
247.96
250.916
255.33
259.448
261.836
262.749
262.804
262.616
262.119
261.387
260.552
209.197
206.521
205.513
206.301
209.593
210.171
206.908
205.547
206.558
261.433
261.17
207.324
205.661
205.827
207.773
206.826
207.102
208.247
207.384
208.771
207.67
210.109
209.265
207.96
208.255
208.551
261.575
261.311
261.052
260.812
260.604
261.27
261.929
262.362
262.521
262.369
261.286
258.748
254.734
250.7
248.06
246.582
245.602
244.787
243.983
243.145
242.244
241.27
240.216
239.082
237.876
236.613
235.311
233.999
232.703
231.452
230.269
229.171
228.169
227.273
226.482
225.794
225.205
224.703
224.274
223.913
223.613
223.361
223.145
222.97
222.837
222.731
222.647
222.576
222.524
222.489
222.469
222.459
222.457
222.463
222.473
222.487
222.502
222.517
222.532
222.544
222.549
222.551
222.542
222.522
222.488
222.434
222.356
222.246
222.096
221.896
221.635
221.302
220.885
220.382
219.79
219.109
218.344
217.531
216.686
215.842
215.013
214.223
213.475
212.783
212.161
211.615
211.152
209.862
208.859
209.034
210.755
260.447
205.838
206.031
261.671
261.878
262.053
262.194
262.304
262.383
262.431
262.452
262.443
262.406
262.338
262.236
262.098
261.925
261.717
261.479
261.215
260.935
260.65
260.373
260.118
259.902
259.743
209.274
206.158
205.664
209.177
209.381
206.259
209.585
210.088
210.774
210.909
211.178
211.424
211.779
212.188
212.672
213.241
213.887
214.601
215.367
216.163
216.969
217.767
218.537
219.26
219.921
220.508
221.016
221.445
221.798
222.084
222.309
222.484
222.616
222.715
222.784
222.832
222.859
222.874
222.873
222.868
222.85
222.827
222.798
222.767
222.732
222.695
222.657
222.62
222.584
222.551
222.522
222.498
222.481
222.474
222.474
222.486
222.512
222.554
222.618
222.703
222.811
222.942
223.103
223.309
223.562
223.866
224.217
224.629
225.12
225.686
226.346
227.103
227.964
228.938
230.025
231.218
232.502
233.855
235.256
236.673
238.076
239.435
240.725
241.933
243.048
244.088
245.075
246.151
247.638
250.319
254.615
258.953
261.589
262.662
262.764
262.591
262.092
261.343
260.487
259.66
206.506
205.634
206.505
260.789
260.508
206.875
205.703
205.839
207.265
206.764
207.032
207.686
206.021
207.307
208.138
207.586
208.606
207.869
209.131
208.156
210.454
209.641
208.442
208.735
260.889
260.599
260.314
260.048
259.815
259.634
259.527
260.361
261.21
261.875
262.288
262.418
262.197
260.97
258.222
254.095
250.242
247.857
246.496
245.514
244.619
243.687
242.687
241.599
240.423
239.163
237.837
236.467
235.082
233.712
232.387
231.131
229.959
228.893
227.935
227.089
226.347
225.703
225.147
224.67
224.265
223.925
223.628
223.38
223.18
223.022
222.897
222.79
222.707
222.643
222.601
222.574
222.56
222.557
222.563
222.575
222.595
222.619
222.646
222.674
222.702
222.729
222.756
222.778
222.798
222.806
222.809
222.802
222.781
222.743
222.682
222.595
222.472
222.306
222.086
221.801
221.444
221.005
220.476
219.858
219.161
218.405
217.601
216.787
215.972
215.161
214.381
213.655
212.996
212.394
211.862
211.408
210.176
211.026
210.768
209.032
212.29
205.874
211.541
211.337
209.339
209.508
209.603
210.051
210.627
209.664
210.048
210.556
209.747
210.077
210.529
210.139
209.857
210.526
209.656
210.557
210.223
209.985
206.235
261.043
261.264
261.451
261.603
261.72
261.805
261.857
261.878
261.868
261.827
261.752
261.642
261.494
261.309
261.088
260.835
260.555
260.257
259.953
259.658
259.384
259.15
258.973
258.875
212
212.585
213.188
213.852
214.571
215.326
216.114
216.93
217.744
218.531
219.278
219.969
220.595
221.138
221.603
221.982
222.287
222.525
222.708
222.844
222.944
223.012
223.058
223.083
223.093
223.09
223.08
223.058
223.033
223.001
222.968
222.931
222.892
222.854
222.816
222.78
222.746
222.718
222.695
222.679
222.673
222.675
222.686
222.713
222.755
222.816
222.897
223.003
223.138
223.301
223.506
223.743
224.034
224.381
224.787
225.25
225.788
226.408
227.118
227.922
228.831
229.847
230.975
232.205
233.523
234.906
236.33
237.766
239.183
240.55
241.847
243.055
244.178
245.227
246.295
247.631
249.851
253.564
257.796
260.738
262.115
262.38
262.277
261.874
261.197
260.334
259.487
206.182
205.763
206.471
260.208
259.899
259.593
259.307
259.055
258.857
258.733
258.682
211.015
211.042
211.111
211.245
211.37
211.628
211.859
212.206
212.607
213.075
213.607
214.206
214.875
215.601
216.366
217.152
217.938
218.7
219.419
220.082
220.676
221.196
221.639
222.009
222.309
222.549
222.737
222.881
222.989
223.066
223.12
223.152
223.171
223.171
223.167
223.149
223.125
223.093
223.058
223.019
222.976
222.93
222.884
222.837
222.791
222.747
222.706
222.668
222.636
222.61
222.593
222.586
222.588
222.599
222.626
222.67
222.734
222.818
222.928
223.068
223.24
223.45
223.702
224
224.359
224.777
225.256
225.811
226.444
227.173
227.991
228.914
229.947
231.091
232.337
233.677
235.081
236.531
237.995
239.441
240.841
242.168
243.418
244.588
245.773
247.238
249.733
253.946
258.519
261.431
262.641
262.791
262.643
262.151
261.382
260.502
259.655
258.854
206.514
205.776
205.874
206.872
206.721
206.982
207.256
206.031
260.142
259.848
207.251
207.655
206.227
207.525
208.072
207.802
208.519
208.083
208.989
208.364
209.495
208.647
210.035
208.931
210.6
209.221
209.517
211.009
210.615
209.819
211.485
211.037
205.942
212.75
211.442
210.33
210.132
206.451
212.382
212.725
213.22
213.938
214.704
215.495
216.298
217.102
217.894
218.677
219.433
220.13
220.754
221.308
221.78
222.177
222.499
222.756
222.954
223.103
223.215
223.292
223.346
223.376
223.392
223.39
223.382
223.361
223.333
223.299
223.264
223.224
223.18
223.134
223.087
223.041
222.997
222.954
222.915
222.88
222.851
222.829
222.816
222.815
222.818
222.838
222.866
222.915
222.984
223.075
223.19
223.334
223.507
223.721
223.977
224.278
224.634
225.045
225.52
226.064
226.673
227.362
228.138
229.004
229.962
231.024
232.196
233.463
234.816
236.233
237.689
239.159
240.612
242.018
243.36
244.624
245.861
247.272
249.434
253.089
257.463
260.629
262.118
262.434
262.366
261.989
261.29
260.417
259.559
258.743
260.407
260.639
260.836
260.995
261.119
261.207
261.262
261.284
261.273
261.228
261.149
261.031
260.876
260.682
260.451
260.187
259.895
259.586
259.269
258.961
258.675
258.428
258.238
258.127
258.093
206.245
205.886
211.493
215.994
205.936
206.568
206.693
206.947
211.524
211.603
211.729
211.872
212.086
212.325
212.655
213.036
213.488
214.005
214.584
215.219
215.905
216.634
217.39
218.15
218.897
219.609
220.271
220.869
221.396
221.849
222.231
222.545
222.798
222.998
223.153
223.271
223.356
223.417
223.456
223.478
223.483
223.48
223.466
223.44
223.408
223.372
223.331
223.284
223.234
223.183
223.129
223.076
223.023
222.971
222.922
222.875
222.833
222.796
222.765
222.742
222.729
222.729
222.735
222.754
222.786
222.839
222.913
223.01
223.132
223.284
223.468
223.691
223.959
224.276
224.643
225.077
225.563
226.125
226.754
227.458
228.25
229.127
230.098
231.167
232.349
233.625
234.994
236.425
237.905
239.4
240.886
242.333
243.723
245.087
246.631
249.041
253.233
258.115
261.358
262.742
262.935
262.811
262.317
261.526
260.629
259.767
258.952
258.176
206.91
206.061
259.534
259.21
258.89
258.589
258.324
258.114
257.977
257.917
257.966
259.491
259.188
211.094
211.133
210.696
207.211
207.27
206.235
207.48
207.653
206.444
207.753
208.061
208.03
208.478
208.308
208.921
208.585
209.395
208.862
209.897
209.142
210.487
209.424
212.556
209.708
209.998
206.038
212.183
212.24
206.029
206.334
206.925
259.764
260.004
260.207
260.373
260.501
260.593
260.649
260.671
260.659
260.612
260.528
260.406
260.244
260.044
259.807
259.535
259.237
258.919
258.596
258.279
257.985
257.729
257.53
257.407
257.363
257.433
230.837
212.081
212.224
212.38
212.58
212.826
213.141
213.504
213.933
214.428
214.985
215.599
216.262
216.961
217.684
218.415
219.139
219.837
220.49
221.086
221.615
222.075
222.465
222.789
223.054
223.265
223.431
223.557
223.652
223.72
223.766
223.792
223.803
223.801
223.792
223.768
223.737
223.701
223.659
223.612
223.56
223.505
223.448
223.39
223.331
223.273
223.215
223.16
223.107
223.058
223.013
222.974
222.942
222.917
222.903
222.902
222.908
222.925
222.955
223.005
223.076
223.169
223.287
223.432
223.607
223.817
224.066
224.355
224.694
225.08
225.528
226.035
226.606
227.252
227.955
228.724
229.56
230.479
231.474
232.558
233.751
235.038
236.42
237.868
239.383
240.922
242.481
244.023
245.706
248.097
252.314
257.628
261.33
262.951
263.196
263.091
262.595
261.781
260.869
259.993
259.163
258.374
257.617
206.648
206.113
212.844
213.245
213.694
214.22
214.846
215.592
216.416
217.26
218.085
218.878
219.619
220.304
220.938
221.506
221.991
222.394
222.728
222.995
223.208
223.37
223.493
223.579
223.642
223.677
223.702
223.702
223.697
223.678
223.651
223.617
223.58
223.538
223.491
223.442
223.391
223.339
223.287
223.236
223.187
223.141
223.098
223.06
223.028
223.003
222.988
222.986
222.99
223.002
223.029
223.074
223.138
223.223
223.332
223.467
223.631
223.828
224.062
224.337
224.658
225.03
225.46
225.948
226.505
227.128
227.817
228.569
229.396
230.308
231.297
232.381
233.569
234.855
236.223
237.662
239.147
240.658
242.162
243.638
245.085
246.651
248.852
252.546
257.168
260.607
262.256
262.615
262.572
262.208
261.492
260.613
259.747
258.922
258.136
258.865
258.533
258.203