/*--------------------------------*- C++ -*----------------------------------*\
| =========                 |                                                 |
| \\      /  F ield         | OpenFOAM: The Open Source CFD Toolbox           |
|  \\    /   O peration     | Version:  2212                                  |
|   \\  /    A nd           | Website:  www.openfoam.com                      |
|    \\/     M anipulation  |                                                 |
\*---------------------------------------------------------------------------*/
FoamFile
{
    version     2.0;
    format      ascii;
    arch        "LSB;label=32;scalar=64";
    class       volVectorField;
    location    "0.00436";
    object      U;
}
// * * * * * * * * * * * * * * * * * * * * * * * * * * * * * * * * * * * * * //

dimensions      [0 1 -1 0 0 0 0];

internalField   nonuniform List<vector> 
7220
(
(40.1218 81.6524 -3.65217e-17)
(60.3791 25.1255 2.25439e-17)
(55.6315 19.4924 1.12422e-17)
(47.5972 19.3028 1.40044e-17)
(55.4956 29.7485 -2.20275e-17)
(51.5307 24.1128 -7.10917e-20)
(-50.9301 32.6909 0)
(-47.6307 39.302 2.29884e-17)
(-44.3085 29.9121 0)
(-46.1049 34.424 0)
(57.6327 74.9489 -6.63211e-19)
(-42.6512 -29.7989 -2.02062e-16)
(23.0021 222.175 1.02534e-17)
(-79.0176 144.996 1.49263e-16)
(120.729 142.783 1.52312e-16)
(-65.8341 -85.6275 9.45783e-17)
(-68.3119 341.104 0)
(-0.282408 104.375 -4.08833e-16)
(-45.4849 336.63 3.71938e-17)
(31.4946 99.3972 -2.07666e-16)
(1.49273 328.053 4.23477e-17)
(-46.4458 185.721 2.9173e-16)
(13.6879 21.7363 1.67235e-16)
(44.4589 169.659 2.18787e-16)
(-20.5943 13.6402 1.55302e-16)
(49.2002 -138.413 -3.18206e-16)
(-18.26 -37.1174 1.09662e-16)
(-55.4186 115.665 1.45227e-16)
(5.79407 328.341 -4.12516e-17)
(9.27797 299.311 7.04594e-17)
(45.4409 99.8417 9.26717e-17)
(23.7287 267.886 -2.11084e-17)
(46.0549 73.1613 3.98407e-16)
(2.73794 311.928 -3.88135e-17)
(-69.2556 -147.716 -1.67067e-16)
(-15.6166 84.067 -2.93181e-16)
(56.2751 3.20049 5.57805e-18)
(60.6024 72.7684 0)
(56.1518 75.111 7.3363e-21)
(-1.38643 97.5374 -1.08216e-21)
(-1.42475 98.9521 -4.33831e-21)
(2.22986 98.9418 -2.75178e-19)
(2.16632 97.5282 2.46078e-19)
(5.89076 85.5096 -7.12362e-17)
(5.46224 85.1518 -2.87625e-16)
(0.460879 85.0639 -5.33452e-17)
(0.429171 85.2411 1.09108e-17)
(1.01388 85.5935 -1.01801e-16)
(-1.46888 101.134 5.53546e-19)
(-1.52311 103.934 -5.47374e-19)
(2.37785 103.935 -5.16814e-19)
(2.30227 101.126 5.62023e-19)
(-1.59651 107.249 5.59032e-19)
(-1.69349 109.869 -1.63775e-18)
(2.49837 109.894 5.56554e-19)
(2.45011 107.268 -5.924e-19)
(-1.75098 110 -8.51925e-21)
(-1.79787 108.393 2.24223e-18)
(2.5187 108.411 1.12534e-18)
(2.51338 110.019 -5.5393e-19)
(-1.85075 106.537 -1.11749e-18)
(-1.90875 104.643 1.12254e-18)
(2.50673 104.67 -5.6347e-19)
(2.51561 106.561 -1.12119e-18)
(-1.97174 102.558 -1.12081e-18)
(-2.03282 100.311 0)
(2.4966 100.334 1.12112e-18)
(2.49875 102.585 -1.76981e-21)
(-2.08849 98.1026 0)
(-2.14467 96.0869 -1.05298e-19)
(2.49045 96.1147 3.50679e-20)
(2.49707 98.1264 1.75351e-20)
(-2.20519 94.2556 2.38907e-18)
(-2.27559 92.5351 2.82418e-19)
(2.46474 92.5697 -2.10796e-18)
(2.47869 94.2852 2.10615e-18)
(-2.3634 90.9739 1.22438e-21)
(-2.47248 89.6033 -1.1321e-17)
(2.37941 89.6376 3.38374e-18)
(2.43133 91.0124 5.62862e-19)
(-2.61574 88.423 9.06711e-18)
(-2.80173 87.4291 -2.73885e-17)
(2.1426 87.4561 9.08576e-18)
(2.2883 88.4528 1.08694e-21)
(1.51623 85.9997 1.26766e-20)
(1.8921 86.6252 -9.12814e-18)
(-3.06378 86.5947 9.27116e-18)
(-3.43066 85.9537 2.13839e-17)
(-3.82798 85.4922 3.68502e-17)
(6.44465 85.9197 3.57811e-17)
(-1.35153 96.9234 0)
(2.11309 96.9167 3.44199e-20)
(5.87602 98.8212 -8.67248e-21)
(5.70812 97.4279 8.6565e-21)
(5.78914 85.0209 -1.82719e-17)
(0.707556 84.999 -1.4246e-19)
(-4.25058 85.2079 2.03156e-17)
(-4.40899 85.0654 4.00531e-17)
(-7.99316 86.461 -9.29508e-18)
(-7.51203 88.3154 5.69441e-18)
(-7.73341 87.3074 -1.146e-18)
(-7.16799 90.8862 0)
(-7.32489 89.5077 0)
(-6.9065 94.1826 0)
(-7.03004 92.4543 -5.63257e-19)
(-6.69039 98.0319 0)
(-6.79695 96.0179 7.02117e-20)
(-6.46081 102.478 -1.12292e-18)
(-6.57871 100.234 1.12184e-18)
(-6.22819 106.463 -5.64372e-19)
(-6.34216 104.564 0)
(-6.02275 109.915 -1.12095e-18)
(-6.12066 108.325 1.12142e-18)
(-5.65182 107.085 -5.55384e-19)
(-5.89475 109.738 5.49305e-19)
(-5.23691 101.015 8.693e-21)
(-5.42954 103.797 5.7667e-19)
(-4.92397 97.4544 0)
(-5.06789 98.8511 4.33725e-21)
(6.28012 103.798 9.48906e-24)
(6.06975 100.992 0)
(6.69333 109.814 -1.70522e-20)
(6.49905 107.141 3.44593e-20)
(6.82754 108.385 -4.3779e-21)
(6.77617 109.975 0)
(6.91016 104.651 1.09495e-21)
(6.8712 106.54 0)
(7.00896 100.309 -5.60519e-19)
(6.95462 102.561 5.65577e-19)
(7.09764 96.1098 -1.1214e-18)
(7.06075 98.1105 1.10439e-18)
(7.16013 92.5683 1.40306e-19)
(7.12862 94.2829 -4.38568e-21)
(7.1658 89.6203 1.12392e-18)
(7.17278 91.0084 -5.61588e-19)
(6.99948 87.4035 1.79884e-17)
(7.1165 88.4183 -4.50179e-18)
(6.78637 86.5528 1.79185e-17)
(-8.32709 85.8159 1.41748e-20)
(-4.80029 96.8547 0)
(5.56672 96.8352 0)
(10.7684 85.5519 -7.75756e-17)
(11.2532 85.8854 8.55465e-18)
(5.98251 84.9478 0)
(-4.39663 84.9543 1.45923e-19)
(-8.69251 85.365 -9.66599e-18)
(-9.06746 85.0925 9.7772e-18)
(-13.5364 85.1665 -4.72765e-21)
(10.594 85.244 0)
(-9.34892 84.9335 9.74737e-18)
(-13.9039 84.8743 9.57455e-18)
(-12.866 86.2617 6.94899e-18)
(-13.1836 85.6126 -1.41049e-17)
(-12.3562 88.151 0)
(-12.5955 87.1242 -2.30181e-18)
(-11.9477 90.7493 -1.13138e-18)
(-12.1373 89.3583 2.27639e-18)
(-11.6049 94.0647 2.81515e-19)
(-11.7708 92.3268 0)
(-11.2984 97.9134 5.61807e-19)
(-11.4512 95.9052 -2.80782e-19)
(-10.9704 102.346 0)
(-11.1378 100.107 -3.51209e-20)
(-10.6247 106.333 3.28696e-21)
(-10.7984 104.432 0)
(-10.2948 109.766 -2.74871e-19)
(-10.4523 108.204 -8.77124e-21)
(-9.6917 106.774 5.37157e-19)
(-10.0862 109.502 2.74793e-19)
(-8.98142 100.762 5.33759e-19)
(-9.3158 103.516 -5.81025e-19)
(-8.42893 97.2711 2.21409e-18)
(-8.68416 98.6314 -1.66202e-18)
(-4.70976 96.9158 0)
(-8.05631 96.7902 0)
(-8.21514 96.7029 -1.10201e-18)
(2.07743 96.9691 1.64559e-20)
(-1.32632 96.9739 2.84954e-19)
(8.98953 96.67 0)
(8.82248 96.7672 -6.73803e-20)
(5.46612 96.9021 1.01134e-19)
(9.49203 98.5823 2.83727e-19)
(9.21749 97.2271 -2.87855e-19)
(10.16 103.517 3.55974e-20)
(9.81051 100.724 0)
(10.8824 109.63 -3.41245e-20)
(10.5315 106.862 -6.81913e-20)
(11.1338 108.318 0)
(11.0379 109.876 0)
(11.3165 104.588 -4.38525e-21)
(11.2273 106.478 0)
(11.5105 100.235 -2.19269e-21)
(11.4086 102.49 -4.38001e-21)
(11.6771 96.0683 0)
(11.6036 98.0519 0)
(11.7992 92.5372 -9.80961e-19)
(11.7405 94.2469 1.12613e-18)
(11.8554 89.5818 4.48378e-18)
(11.8372 90.9787 0)
(11.7464 87.3467 -1.78269e-17)
(11.831 88.3717 -1.34567e-21)
(11.5731 86.4977 -1.47781e-20)
(11.194 84.9281 -3.56233e-17)
(11.0179 85.021 5.19847e-17)
(15.9581 85.4897 1.67755e-17)
(16.1661 85.8732 1.50992e-17)
(-4.62702 97.6239 -3.40565e-20)
(-7.91135 97.5375 3.40314e-20)
(12.358 96.4243 5.50408e-19)
(12.1251 96.5688 -5.04027e-19)
(0.790122 84.9349 3.7461e-17)
(11.3398 84.8187 2.73118e-17)
(6.12297 84.8463 -9.18131e-18)
(-9.52407 84.8314 2.84362e-17)
(-18.3195 84.9165 -2.83386e-17)
(16.4486 84.7621 1.35385e-17)
(16.2966 84.8711 0)
(-14.2627 84.684 9.54025e-18)
(15.8799 85.1468 1.88759e-17)
(-18.6759 84.6096 9.453e-18)
(-17.6645 86.0253 0)
(-17.9765 85.3688 -9.3791e-18)
(-17.1262 87.9462 6.86969e-18)
(-17.3778 86.9012 6.45295e-21)
(-16.6754 90.5683 2.25939e-18)
(-16.8908 89.1657 -3.41109e-18)
(-16.2774 93.9036 2.81659e-19)
(-16.4721 92.156 -1.69198e-18)
(-15.8903 97.7522 5.61879e-19)
(-16.0847 95.7486 -5.62067e-19)
(-15.4803 102.167 0)
(-15.6893 99.9378 -2.45871e-19)
(-15.0208 106.14 2.79378e-19)
(-15.2575 104.243 -2.80331e-19)
(-14.5513 109.53 2.85924e-19)
(-14.7785 108.016 -2.66893e-19)
(-13.6795 106.311 2.96304e-19)
(-14.2369 109.15 -2.52891e-19)
(-12.6665 100.374 -2.98461e-19)
(-13.1467 103.089 2.75964e-19)
(-11.875 96.9873 2.16628e-20)
(-12.2399 98.2926 0)
(-11.3459 96.5986 -1.15782e-18)
(-11.5722 96.4677 1.0869e-18)
(2.04667 97.6631 -6.84269e-20)
(-1.3018 97.6654 -2.73749e-19)
(8.67199 97.5278 -6.81274e-20)
(5.37766 97.6179 -2.70852e-19)
(13.0494 98.2277 0)
(12.6705 96.9291 -5.49709e-19)
(13.9811 103.089 -1.3789e-19)
(13.4909 100.323 1.40424e-19)
(15.026 109.328 3.46374e-20)
(14.5079 106.42 3.39337e-20)
(15.4277 108.205 8.77494e-20)
(15.2739 109.707 0)
(15.7297 104.476 4.37963e-21)
(15.5841 106.365 -7.00035e-20)
(16.0007 100.124 -6.58476e-21)
(15.8654 102.376 -8.77567e-21)
(16.223 95.9884 0)
(16.1215 97.9572 -8.77275e-21)
(16.381 92.4702 -7.00168e-19)
(16.3103 94.1738 5.6077e-19)
(16.4683 89.5226 1.11969e-18)
(16.4322 90.915 1.12032e-18)
(16.4344 87.3049 0)
(16.4688 88.3212 -6.69901e-18)
(16.3377 86.4654 1.0992e-17)
(16.101 84.9973 -1.71711e-17)
(-11.1387 97.4128 0)
(11.9137 97.4009 1.70475e-18)
(-4.40524 84.8893 1.56481e-19)
(11.4992 84.688 -1.38592e-17)
(16.5855 84.632 -1.37863e-17)
(0.856527 84.8547 9.27501e-18)
(-19.0288 84.4074 2.83789e-17)
(20.8686 85.3889 8.60372e-18)
(20.9583 85.8173 -1.84597e-17)
(20.8734 85.0706 -3.22636e-18)
(-14.6603 84.5304 -1.88297e-17)
(-14.5127 96.3472 1.14726e-19)
(-14.2458 97.2458 1.10309e-18)
(8.55879 98.9636 3.44638e-20)
(11.7605 98.8649 -1.1744e-18)
(-9.62055 84.7939 1.55149e-19)
(6.3045 84.7254 0)
(16.6845 84.4552 -1.43207e-17)
(11.6695 84.5177 4.75408e-18)
(21.6724 83.8329 -4.46826e-17)
(21.544 84.1723 -2.05574e-17)
(16.8059 84.225 5.45169e-19)
(-4.50967 84.7676 -4.63655e-17)
(-23.7321 84.1241 9.4214e-18)
(-23.0062 84.6347 -9.36193e-18)
(-23.3649 84.3222 9.37153e-18)
(-22.3549 85.7566 1.38571e-17)
(-22.6671 85.0932 -2.00152e-21)
(-21.8002 87.7079 0)
(-22.0626 86.6455 -9.17486e-18)
(-21.3132 90.353 -5.6293e-19)
(-21.5491 88.9386 -1.13302e-18)
(-20.8669 93.7042 -1.40818e-19)
(-21.087 91.9522 5.63646e-19)
(-20.406 97.5496 -1.40475e-19)
(-20.6382 95.5486 0)
(-19.9219 101.944 -1.40536e-19)
(-20.1691 99.7287 2.10606e-19)
(-19.3546 105.881 -1.39479e-19)
(-19.6515 103.998 1.40224e-19)
(-18.7424 109.195 -1.30074e-19)
(-19.0433 107.752 1.31298e-19)
(-17.5594 105.689 0)
(-18.3031 108.659 -1.71068e-20)
(-16.2325 99.8471 2.80988e-19)
(-16.8633 102.511 -2.75993e-19)
(-15.2015 96.6016 1.05719e-18)
(-15.6751 97.8338 -5.15964e-19)
(-14.8092 96.1495 -1.63641e-18)
(-10.9862 98.866 1.033e-19)
(-4.56135 99.0317 -2.74902e-19)
(-7.79934 98.9652 5.13572e-19)
(2.02324 99.0631 1.02476e-19)
(-1.28082 99.0635 -2.72638e-19)
(5.30984 99.0311 3.44962e-19)
(15.0453 97.2322 -5.84877e-19)
(15.616 96.0981 -4.28027e-21)
(15.314 96.3146 5.06321e-19)
(16.4968 97.7579 0)
(16.0144 96.5337 0)
(17.697 102.511 -1.40827e-19)
(17.0631 99.788 0)
(19.0834 108.896 3.31406e-20)
(18.3823 105.818 1.49777e-20)
(19.6738 108.019 -2.19037e-20)
(19.4482 109.445 3.43406e-20)
(20.1041 104.318 4.37878e-21)
(19.9 106.191 -1.30384e-23)
(20.4395 99.9856 8.75959e-21)
(20.2804 102.228 2.63215e-20)
(20.7037 95.8754 7.01908e-20)
(20.5802 97.8323 8.75799e-21)
(20.8876 92.3802 -1.12112e-18)
(20.8106 94.0723 0)
(20.9992 89.4472 -2.23658e-18)
(20.9459 90.8298 5.59517e-19)
(21.0462 87.258 4.44669e-18)
(21.0286 88.2615 4.45442e-18)
(21.0246 86.4226 -1.65322e-17)
(21.2622 84.7547 8.81332e-18)
(21.0635 84.8897 -1.3092e-17)
(21.5691 84.5137 -6.8258e-18)
(21.4275 84.6375 -2.22987e-18)
(21.6139 84.3501 1.40844e-17)
(-19.3687 84.2571 9.43907e-18)
(-14.055 98.7333 -6.87921e-20)
(14.8558 98.7331 0)
(25.5905 85.2859 -8.73855e-18)
(25.5837 85.7329 -4.4104e-18)
(25.6615 84.9644 9.81638e-18)
(26.5969 83.6737 1.45142e-16)
(-15.0256 84.4253 3.84567e-17)
(1.06145 84.7787 0)
(6.53134 84.5532 -1.90945e-17)
(16.9901 83.9647 4.35651e-17)
(-9.73145 84.784 -1.14886e-16)
(26.3661 83.1085 0)
(-28.3133 83.8433 -1.86808e-17)
(11.9075 84.3215 -2.02437e-17)
(-24.0986 84.0033 -1.86138e-17)
(-28.7268 83.7384 -5.51597e-21)
(22.2284 83.4341 -2.83348e-19)
(-27.5593 84.339 0)
(-27.9234 84.0299 2.52168e-21)
(-26.9138 85.4667 -9.15781e-18)
(-27.225 84.7994 9.2103e-18)
(-26.3452 87.4399 2.26884e-18)
(-26.6207 86.3659 9.11476e-18)
(-25.8173 90.1084 -5.646e-19)
(-26.0751 88.681 -2.26536e-18)
(-25.3167 93.4681 1.40473e-19)
(-25.5683 91.7182 5.64144e-19)
(-24.7784 97.3059 0)
(-25.0499 95.3062 0)
(-24.2176 101.675 -7.0183e-20)
(-24.5036 99.4796 1.05372e-19)
(-23.5585 105.559 -5.48033e-22)
(-23.9057 103.699 7.91071e-20)
(-22.8147 108.747 0)
(-23.1867 107.419 4.38261e-21)
(-21.259 104.885 6.88818e-20)
(-22.2184 108.005 0)
(-19.6077 99.1792 3.47556e-20)
(-20.3927 101.774 -5.30176e-20)
(-18.3377 96.1161 2.79303e-19)
(-18.9193 97.2548 -2.75333e-19)
(-17.4824 96.0453 -5.85869e-19)
(-17.8559 95.7498 5.59534e-19)
(-16.9385 98.566 1.09834e-18)
(-17.1652 97.0316 -3.44793e-20)
(-16.7627 100.538 -1.03703e-18)
(-10.8747 100.773 0)
(-13.9113 100.669 1.02782e-18)
(-4.51378 100.902 5.49277e-19)
(-7.71933 100.85 -5.51747e-19)
(2.00905 100.929 -1.39916e-19)
(-1.26536 100.927 2.41417e-19)
(8.48012 100.856 0)
(5.26368 100.906 0)
(14.7145 100.681 -5.82326e-19)
(11.651 100.782 -5.13182e-19)
(17.5975 100.551 1.10072e-18)
(17.9996 97.0163 6.04738e-19)
(17.7729 98.5657 -5.48741e-19)
(18.6939 95.6952 5.50444e-19)
(18.317 96.0111 -1.096e-18)
(19.7643 97.1738 0)
(19.1791 96.0431 3.46402e-20)
(21.2377 101.779 0)
(20.4551 99.1173 0)
(23.0031 108.305 0)
(22.0888 105.035 1.73754e-20)
(23.8128 107.765 3.50105e-20)
(23.5194 109.076 -3.46808e-20)
(24.3629 104.108 1.75578e-20)
(24.1026 105.953 -1.75673e-20)
(24.7535 99.8261 -3.50363e-20)
(24.5733 102.05 3.52201e-20)
(25.0557 95.7358 -7.00315e-20)
(24.9113 97.684 1.65184e-23)
(25.2736 92.2756 6.29448e-19)
(25.1831 93.9499 -3.505e-20)
(25.4198 89.3529 -1.45866e-19)
(25.3446 90.7286 7.00644e-20)
(25.5423 87.1866 -4.44767e-18)
(25.4793 88.1798 0)
(25.578 86.3547 8.85991e-18)
(26.0603 84.5877 -4.42268e-18)
(25.846 84.7498 4.39929e-18)
(26.4962 84.2349 2.01886e-17)
(26.2701 84.4288 -3.342e-18)
(26.679 83.951 -1.7911e-17)
(-24.4917 83.9427 -4.41018e-20)
(-19.6738 84.1526 8.56877e-20)
(-4.366 84.7167 -4.36725e-18)
(-29.1778 83.6767 0)
(30.0679 85.1708 -4.42065e-18)
(29.9952 85.6283 -2.22467e-18)
(30.1822 84.8343 4.40613e-18)
(-19.5505 98.3614 0)
(-19.3394 100.377 1.09846e-18)
(14.5993 102.985 3.80018e-20)
(17.4527 102.879 -5.85848e-19)
(1.35928 84.5813 -5.8044e-17)
(6.88234 84.3989 3.93836e-17)
(12.1236 84.0917 1.74133e-17)
(27.2153 82.8851 0)
(32.0446 82.5584 -2.86223e-19)
(32.582 82.173 3.79987e-17)
(27.8339 82.5914 3.93195e-17)
(-24.9886 83.9159 1.81178e-17)
(-15.2212 84.4529 -1.08627e-16)
(17.2909 83.6908 -1.0074e-17)
(-9.57717 84.6324 -1.42806e-17)
(-29.6733 83.5983 3.06616e-20)
(22.6101 83.1731 7.74118e-17)
(-33.6329 83.3546 4.66998e-18)
(-32.7038 83.5435 1.86458e-17)
(-33.153 83.4344 -9.29879e-18)
(-31.934 84.0376 4.61468e-18)
(-32.2994 83.7297 -1.53819e-20)
(-31.2951 85.1654 6.84402e-18)
(-31.6031 84.498 -4.57954e-18)
(-30.6998 87.1434 2.26603e-18)
(-30.9952 86.066 -4.54644e-18)
(-30.1238 89.8318 1.6911e-18)
(-30.4081 88.3927 -1.13074e-18)
(-29.5591 93.1892 0)
(-29.8492 91.4469 -5.62509e-19)
(-28.9419 97.02 -3.51988e-20)
(-29.2535 95.0208 0)
(-28.2883 101.367 -1.05384e-19)
(-28.6233 99.1878 2.28214e-23)
(-27.5533 105.194 6.92605e-20)
(-27.9378 103.365 -8.59725e-21)
(-26.7134 108.172 -4.33632e-21)
(-27.1411 107.018 0)
(-24.7153 103.898 0)
(-25.899 107.116 -8.64059e-21)
(-22.7154 98.3666 0)
(-23.6622 100.868 -1.74235e-20)
(-21.2026 95.5335 1.39593e-19)
(-21.8934 96.5564 -1.72403e-19)
(-20.1812 95.6895 5.56757e-19)
(-20.6317 95.2748 3.81906e-23)
(-19.8174 96.765 -5.20443e-19)
(-16.6164 102.854 6.88877e-20)
(-10.7823 103.048 5.42918e-19)
(-13.7931 102.963 -1.65078e-18)
(-4.47384 103.155 -2.92269e-19)
(-7.65376 103.112 2.14181e-20)
(2.00006 103.18 2.14895e-21)
(-1.25198 103.177 6.85218e-20)
(8.41817 103.125 -4.28133e-21)
(5.22785 103.163 -1.32318e-19)
(11.5631 103.066 5.50775e-19)
(20.2173 100.389 -5.52558e-19)
(20.6986 96.7473 5.31378e-19)
(20.4303 98.3593 -4.38227e-21)
(21.5141 95.2191 -5.34055e-19)
(21.0625 95.6547 2.7678e-19)
(22.775 96.4765 1.73497e-20)
(22.0851 95.4601 2.40475e-19)
(24.5304 100.885 -1.74244e-20)
(23.5929 98.3085 0)
(26.7052 107.501 -1.72618e-20)
(25.5638 104.077 0)
(27.7798 107.442 7.03032e-20)
(27.4208 108.579 0)
(28.417 103.86 2.10674e-19)
(28.1188 105.664 -1.22886e-19)
(28.8657 99.646 0)
(28.6588 101.844 -1.57854e-19)
(29.2158 95.5726 0)
(29.0463 97.5145 -3.51623e-20)
(29.4827 92.1522 -5.6117e-19)
(29.3681 93.8057 -2.81026e-19)
(29.6766 89.2333 2.79176e-18)
(29.5761 90.6073 0)
(29.8683 87.0845 0)
(29.7676 88.0688 -5.58131e-19)
(29.9415 86.2579 -2.22489e-18)
(30.5567 84.3906 4.42326e-18)
(30.3591 84.5881 -4.41867e-18)
(30.8664 83.9447 6.61666e-18)
(30.7309 84.1887 -1.11557e-18)
(30.8571 83.4893 -1.96901e-17)
(30.9164 83.6761 4.33705e-18)
(31.4073 83.0431 -4.73821e-17)
(-20.0583 84.2102 -1.69954e-17)
(-34.1236 83.2463 -2.34272e-17)
(-19.1626 102.721 -2.27109e-18)
(20.0395 102.745 5.82959e-19)
(34.1361 85.4986 2.21327e-18)
(34.2442 85.0298 -6.76641e-21)
(-30.2065 83.4432 1.87281e-17)
(-25.5838 83.7522 1.82854e-17)
(-3.93902 84.6943 -3.91308e-17)
(1.86928 84.4206 4.01459e-17)
(7.1182 84.1777 1.31826e-19)
(12.3276 83.8656 -3.00065e-17)
(33.1393 81.8574 2.25402e-18)
(28.3514 82.395 3.62131e-19)
(44.2942 80.9763 -1.02356e-16)
(22.9682 82.9617 3.34596e-19)
(-35.8009 74.0851 0)
(17.6418 83.4492 3.46358e-17)
(-34.6501 83.0836 0)
(-38.8365 82.6596 -4.72732e-18)
(-37.8009 82.9748 4.67163e-18)
(-38.2987 82.8411 1.87479e-17)
(-36.8462 83.2149 -4.62527e-18)
(-37.309 83.0832 -9.33545e-18)
(-36.0646 83.7275 -2.28898e-18)
(-36.4353 83.4144 -1.727e-20)
(-35.4151 84.8519 0)
(-35.73 84.1885 2.28513e-18)
(-34.7849 86.8191 0)
(-35.1035 85.7458 0)
(-34.152 89.5216 -5.62699e-19)
(-34.4689 88.0719 1.12819e-18)
(-33.5222 92.8645 3.07849e-20)
(-33.8496 91.1358 1.05783e-19)
(-32.8305 96.688 3.51203e-20)
(-33.1804 94.6917 4.39653e-21)
(-32.0741 101.01 5.93987e-23)
(-32.4646 98.8426 -1.75364e-20)
(-31.2485 104.797 1.09687e-21)
(-31.6771 102.993 3.95983e-20)
(-30.319 107.458 4.33175e-21)
(-30.8015 106.575 0)
(-27.8249 102.708 -7.06939e-20)
(-29.2196 105.979 7.71146e-20)
(-25.4749 97.4039 -7.02458e-20)
(-26.5858 99.7774 6.90613e-20)
(-23.7166 94.8542 -1.05019e-19)
(-24.5175 95.7378 1.37779e-19)
(-22.5302 95.2752 2.8633e-19)
(-23.0572 94.7239 -2.92099e-19)
(-21.8061 98.1157 -1.30171e-20)
(-22.1194 96.4442 -5.54271e-19)
(-21.3455 102.557 -6.90238e-20)
(-21.5559 100.181 5.53294e-19)
(-21.1584 105.196 -1.02935e-18)
(-16.488 105.458 0)
(-19.0066 105.34 1.58236e-18)
(-10.7017 105.627 -5.5004e-19)
(-13.6901 105.552 5.50406e-19)
(-4.43822 105.722 1.53619e-19)
(-7.59605 105.684 -1.71067e-20)
(1.99344 105.746 -6.82269e-20)
(-1.23842 105.743 -3.43287e-20)
(8.36608 105.701 -4.28418e-21)
(5.19845 105.733 8.47058e-22)
(14.4999 105.581 1.09737e-18)
(11.488 105.651 4.27724e-21)
(19.8824 105.371 -3.74298e-20)
(17.3266 105.489 0)
(22.0819 105.221 3.42986e-20)
(22.4908 100.188 5.52788e-19)
(22.2746 102.576 -5.1568e-20)
(23.0637 96.4233 2.75284e-19)
(22.7465 98.1085 -8.21638e-19)
(24.0024 94.6697 1.04478e-19)
(23.4761 95.2393 0)
(25.4531 95.665 4.2838e-20)
(24.6585 94.7843 -2.07347e-19)
(27.493 99.8144 1.74173e-20)
(26.3995 97.3581 0)
(30.072 106.431 -6.83943e-20)
(28.7094 102.918 7.06854e-20)
(31.4865 107.065 8.76426e-20)
(31.0716 107.951 -6.95049e-20)
(32.188 103.587 1.57873e-19)
(31.8599 105.344 -1.40716e-19)
(32.7152 99.4382 -1.40442e-19)
(32.4675 101.61 1.40636e-19)
(33.1262 95.3846 2.80898e-19)
(32.9294 97.3199 3.5071e-20)
(33.4477 92.0037 5.59901e-19)
(33.3044 93.6366 -4.1052e-22)
(33.7001 89.0852 1.11914e-18)
(33.5707 90.4609 0)
(33.9489 86.9488 -1.11524e-18)
(33.8229 87.9273 1.30299e-21)
(34.0504 86.1296 4.46262e-18)
(34.7403 84.1627 -1.11416e-18)
(34.3788 84.6726 -7.94394e-21)
(34.5517 84.3954 2.21894e-18)
(35.0724 83.6847 -1.36177e-18)
(34.9197 83.9368 1.38359e-18)
(35.4813 83.1431 2.53148e-17)
(35.2222 83.4297 1.07249e-18)
(36.4996 82.1956 -1.30702e-17)
(35.9907 82.664 1.68318e-17)
(37.6347 81.2764 1.51068e-17)
(37.0411 81.7135 1.32382e-17)
(40.0409 80.9725 3.18265e-17)
(39.1953 80.8325 -4.44469e-18)
(33.7284 81.7057 2.25197e-17)
(38.3204 80.973 -1.7574e-17)
(-20.6806 84.0767 3.42812e-17)
(-42.9834 59.7394 3.91487e-16)
(-35.2632 82.8816 1.92087e-17)
(-39.444 82.4318 0)
(-3.02081 84.3008 -2.20871e-17)
(51.0352 14.831 -1.12627e-17)
(-23.0919 102.359 6.8743e-20)
(-22.8734 105.02 -1.09911e-18)
(19.7365 108.238 -5.50456e-19)
(21.9025 108.098 5.13967e-19)
(2.11657 84.2007 1.3393e-19)
(34.3025 81.7482 -2.66758e-17)
(7.26834 83.9712 -1.99086e-17)
(28.8446 82.3601 4.00026e-19)
(23.3398 82.8677 -7.56153e-17)
(12.5486 83.6641 2.4548e-17)
(17.9337 83.2997 -3.85281e-17)
(-48.7498 44.5495 0)
(-37.5397 72.8418 8.78551e-17)
(-38.7824 72.1921 0)
(-38.4317 72.2585 -8.46809e-17)
(-54.9812 130.175 -2.9706e-16)
(-41.3384 73.0892 -6.07045e-17)
(-30.8562 83.2715 -2.45994e-18)
(-26.296 83.6081 -2.84638e-17)
(-45.7559 66.6876 1.46476e-16)
(-31.4983 83.056 2.42198e-18)
(43.9586 79.9206 0)
(42.9994 79.8228 -4.33722e-18)
(-12.2949 84.1167 6.70082e-17)
(-16.7507 84.0614 7.94032e-17)
(-35.8952 82.6442 9.75965e-18)
(-44.4921 63.6496 -1.85299e-16)
(-40.0819 82.1794 -2.1948e-17)
(-44.5311 130.951 3.07401e-16)
(-36.5172 82.3932 1.48568e-17)
(-40.7081 81.9146 -7.4488e-18)
(-49.563 49.5009 0)
(-46.8426 80.8326 5.6778e-18)
(-41.3411 81.6883 2.52672e-17)
(-45.1795 81.2052 -2.00177e-17)
(-45.7843 81.0792 -5.42404e-18)
(-43.9327 81.6569 -4.79899e-20)
(-44.5552 81.4043 0)
(-42.696 82.1724 4.73177e-18)
(-43.3022 81.9197 -4.76253e-18)
(-41.6327 82.5456 -9.27094e-18)
(-42.1453 82.3813 -4.66644e-18)
(-40.6587 82.8532 -9.92276e-21)
(-41.1263 82.6894 1.61714e-17)
(-39.8595 83.3971 -2.28979e-18)
(-40.2405 83.0731 -2.29724e-18)
(-39.1796 84.5201 0)
(-39.5098 83.8614 0)
(-38.509 86.4691 0)
(-38.8497 85.403 1.13286e-18)
(-37.8208 89.1778 0)
(-38.1693 87.72 -5.62961e-19)
(-37.1312 92.5022 6.15792e-20)
(-37.4878 90.7905 -2.02296e-19)
(-36.3732 96.309 -7.03502e-20)
(-36.7591 94.3218 -3.51373e-20)
(-35.5293 100.597 0)
(-35.9634 98.4443 4.40215e-20)
(-34.5782 104.351 -7.03331e-20)
(-35.0688 102.566 3.07373e-20)
(-33.4787 106.565 -3.70651e-20)
(-34.08 106.06 7.02414e-20)
(-30.4622 101.334 -4.36973e-21)
(-32.035 104.591 0)
(-27.7931 96.2948 2.57974e-20)
(-29.0564 98.5185 4.35932e-21)
(-25.7972 94.0807 -6.88615e-20)
(-26.7058 94.8 -1.76406e-20)
(-24.4557 94.7893 2.57937e-19)
(-25.0525 94.0992 6.96327e-20)
(-23.6288 97.8233 1.28921e-20)
(-23.9913 96.0674 -2.73103e-19)
(-23.3376 99.9463 0)
(-20.9846 108.073 1.0335e-18)
(-16.3694 108.317 5.51564e-19)
(-18.8618 108.208 -1.06406e-18)
(-10.6267 108.476 -3.42249e-20)
(-13.5946 108.406 1.28092e-20)
(-4.40407 108.567 -2.05293e-19)
(-7.54223 108.529 1.71187e-20)
(1.98782 108.59 1.02637e-19)
(-1.2249 108.587 -1.27708e-20)
(8.31862 108.549 1.71186e-20)
(5.17206 108.578 2.0103e-19)
(14.4083 108.435 -5.40912e-19)
(11.419 108.501 -2.56563e-20)
(17.2099 108.349 0)
(23.8545 105.035 -3.44945e-20)
(24.3403 99.9427 2.80788e-19)
(24.0836 102.367 1.71693e-20)
(25.0121 96.0413 1.7283e-20)
(24.6418 97.8075 -2.79076e-19)
(26.0774 94.0477 -1.2031e-19)
(25.4808 94.7518 1.3885e-19)
(27.7148 94.7403 1.62523e-20)
(26.817 94.0179 -6.97645e-20)
(30.0298 98.5784 8.648e-20)
(28.7863 96.2683 -1.25382e-21)
(32.9768 105.086 1.73183e-20)
(31.4169 101.567 0)
(34.8511 106.63 -1.58324e-19)
(34.3421 107.14 0)
(35.6283 103.275 -1.22812e-19)
(35.2574 104.993 2.81189e-19)
(36.2501 99.1896 0)
(35.9582 101.33 -3.52244e-20)
(36.7239 95.1726 2.81132e-19)
(36.5006 97.0948 -3.52174e-20)
(37.0995 91.8256 -2.81874e-19)
(36.9259 93.4414 -5.61517e-19)
(37.4112 88.9084 0)
(37.2546 90.2856 0)
(37.7009 86.7851 -1.67966e-18)
(37.5597 87.7585 5.60132e-19)
(37.9307 85.3451 -2.23685e-18)
(37.8243 85.975 1.13415e-18)
(38.1975 84.4892 2.23043e-18)
(38.0542 84.8651 5.52226e-19)
(38.5492 83.93 0)
(38.3663 84.1884 0)
(38.9461 83.4344 -4.41061e-18)
(38.7367 83.691 -2.22867e-18)
(39.5492 82.7861 0)
(39.2085 83.1555 -6.52862e-18)
(40.4636 81.7479 -2.17187e-18)
(39.9871 82.305 0)
(41.5524 80.6124 5.54757e-19)
(40.994 81.1716 0)
(42.2152 80.1354 -4.40611e-18)
(-37.8055 70.5939 -1.52862e-19)
(-39.9604 70.2408 -8.37802e-17)
(-40.5735 72.5317 -1.40427e-16)
(-21.5911 83.8622 0)
(-7.70945 84.1937 -2.38828e-17)
(-37.8845 67.8555 -1.73777e-16)
(-68.2526 102.538 -1.42437e-16)
(7.00957 -41.114 -2.96706e-16)
(40.7079 82.0668 7.73562e-17)
(-22.6711 107.908 1.10318e-18)
(23.6418 107.924 6.87601e-20)
(-38.3218 73.6174 -1.82965e-16)
(-26.949 83.4098 9.69899e-18)
(-17.4813 83.9056 0)
(-12.7072 84.0684 0)
(-2.88929 84.2309 1.03905e-17)
(34.8367 81.972 0)
(-36.6479 67.1527 0)
(-32.1023 82.8279 9.862e-18)
(46.7254 78.8783 0)
(47.9754 78.6741 3.56308e-17)
(46.0297 79.86 0)
(2.23188 84.0185 -4.04558e-17)
(29.3237 82.4949 -3.65978e-17)
(23.6969 82.9157 3.75559e-17)
(-37.1712 82.1851 -1.49464e-17)
(37.6576 254.706 -8.65531e-17)
(7.39166 83.7973 0)
(-72.4879 134.339 8.63615e-19)
(-42.0356 81.4905 1.56187e-17)
(-38.7986 70.9611 7.10784e-17)
(12.7396 83.5438 -3.03905e-19)
(18.2107 83.2508 0)
(-39.6294 60.5193 1.93184e-16)
(-37.1839 64.7218 -1.79796e-16)
(41.6596 82.8659 -8.65881e-20)
(-35.9432 71.5046 -9.10051e-17)
(-35.2063 68.8431 -1.35399e-19)
(59.242 13.8511 5.70408e-18)
(-49.2451 80.4017 -3.38126e-17)
(-49.896 80.2088 1.88418e-16)
(-47.4594 81.0834 -5.94185e-20)
(-48.26 80.7625 9.57103e-18)
(-46.132 81.6602 4.69306e-18)
(-46.7603 81.3846 -4.73431e-18)
(-45.0392 82.0865 -2.32588e-18)
(-45.5627 81.8941 2.31342e-18)
(-44.0541 82.4538 1.14275e-18)
(-44.5302 82.2609 -2.30783e-18)
(-43.2202 83.0365 2.26913e-18)
(-43.6184 82.6964 -1.14308e-18)
(-42.5038 84.166 -5.666e-19)
(-42.852 83.5087 5.66281e-19)
(-41.7917 86.0973 0)
(-42.153 85.038 -1.69399e-18)
(-41.0539 88.8053 0)
(-41.4291 87.3433 -2.82414e-19)
(-40.3033 92.1128 -7.04127e-20)
(-40.6873 90.4175 1.0558e-19)
(-39.487 95.8889 0)
(-39.9039 93.9189 1.76383e-20)
(-38.568 100.131 0)
(-39.04 98.0048 4.38011e-21)
(-37.4713 103.833 -2.75368e-22)
(-38.0385 102.065 2.2035e-21)
(-36.0812 105.424 3.69205e-20)
(-36.8976 105.413 -3.46444e-20)
(-32.5421 99.7893 6.55634e-21)
(-34.2759 102.95 -2.17564e-21)
(-29.5752 95.0576 8.69581e-21)
(-30.975 97.1115 -4.35949e-21)
(-27.3656 93.2146 -8.64622e-20)
(-28.3711 93.752 1.7132e-20)
(-25.8893 94.2353 0)
(-26.5449 93.3985 6.96314e-20)
(-24.9695 97.4845 -2.72776e-19)
(-25.3748 95.6358 2.75222e-19)
(-24.3642 102.127 5.70376e-19)
(-24.6416 99.672 -5.52384e-19)
(-23.8906 107.718 -5.17773e-19)
(-24.118 104.814 5.15489e-19)
(-23.6721 110.832 5.49645e-19)
(-20.8163 111.177 0)
(-22.476 111.016 0)
(-16.2542 111.419 -7.96987e-19)
(-18.7213 111.311 5.41317e-19)
(-10.5537 111.578 -1.70712e-20)
(-13.5016 111.508 -1.53707e-19)
(-4.37048 111.669 3.4405e-20)
(-7.48881 111.631 1.71048e-20)
(1.98171 111.693 -4.91303e-20)
(-1.21108 111.689 -1.69514e-20)
(8.27133 111.649 0)
(5.14581 111.68 -1.38747e-19)
(14.3183 111.532 1.27989e-19)
(11.3507 111.6 0)
(19.5941 111.334 -1.82503e-20)
(17.0956 111.445 2.83004e-19)
(23.4362 111.024 -5.82916e-19)
(21.7281 111.195 4.93402e-20)
(24.6917 110.825 5.85698e-19)
(25.1676 104.814 5.83952e-19)
(24.925 107.718 -1.16988e-18)
(25.7228 99.6539 -4.29722e-21)
(25.4297 102.12 0)
(26.4827 95.6013 6.81971e-23)
(26.0652 97.4565 0)
(27.6646 93.3494 0)
(27.0057 94.1944 0)
(29.4762 93.7067 -1.73518e-20)
(28.4818 93.1603 0)
(32.0455 97.1904 -1.74278e-20)
(30.6636 95.0499 0)
(35.3294 103.468 -1.73861e-20)
(33.5972 100.034 8.73605e-21)
(37.7908 106.089 1.39078e-19)
(37.0925 106.087 -1.72143e-20)
(38.6889 102.909 1.76915e-20)
(38.2564 104.59 -1.40466e-19)
(39.4063 98.9017 2.46032e-19)
(39.0749 101.003 -2.46505e-19)
(39.9385 94.9357 5.62501e-19)
(39.69 96.839 -2.46373e-19)
(40.3656 91.6195 5.59563e-19)
(40.1627 93.2195 -8.43037e-19)
(40.7284 88.7102 5.60773e-19)
(40.5486 90.0849 -1.68603e-18)
(41.0509 86.6045 -5.60733e-18)
(40.8965 87.5689 1.12131e-18)
(41.3056 85.1768 -1.11804e-18)
(41.1863 85.8042 -3.34702e-18)
(41.5767 84.3008 5.62018e-19)
(41.4342 84.6891 2.66843e-21)
(41.92 83.7093 4.47561e-18)
(41.7379 83.984 -2.24555e-18)
(42.3913 83.1681 4.42628e-18)
(42.1359 83.4476 -5.59075e-18)
(43.0662 82.418 -8.89424e-18)
(42.7089 82.841 -1.09701e-18)
(43.9117 81.2473 -2.20909e-18)
(43.4686 81.888 8.80409e-18)
(45.0567 79.9121 1.8004e-17)
(44.4473 80.5773 0)
(45.7967 79.3253 -1.76861e-17)
(-36.1241 77.8711 0)
(-37.3857 75.6058 0)
(-50.7636 79.2202 2.12578e-16)
(-49.1529 66.1031 2.63138e-16)
(-42.6176 70.9325 -7.43986e-17)
(-22.2684 83.692 0)
(-7.84686 84.1983 0)
(-33.7944 72.9328 2.82204e-16)
(35.9188 83.173 -4.00417e-17)
(35.4187 82.4238 3.77606e-17)
(-38.5654 78.6697 -2.22452e-16)
(-29.1737 71.5275 1.58464e-16)
(-53.8481 44.1721 0)
(-27.5295 83.208 -9.90594e-18)
(49.8235 77.8959 0)
(51.0523 77.4268 -1.84124e-17)
(49.6241 78.4901 4.70746e-19)
(-2.82984 84.0639 2.46695e-18)
(-17.9285 83.7558 0)
(-12.9853 83.9232 0)
(-34.0078 76.9859 -1.63706e-16)
(29.783 82.7939 -1.8616e-17)
(64.731 19.28 -5.03246e-20)
(-24.6305 107.505 -5.52471e-19)
(-24.3915 110.625 0)
(23.2306 114.324 5.67234e-19)
(24.4595 114.123 3.44693e-20)
(24.0565 83.1197 0)
(5.52776 -14.0927 -1.80765e-16)
(-32.7231 82.6476 8.27955e-20)
(47.7227 79.5754 -2.10435e-17)
(-44.7515 49.7803 -2.56748e-17)
(53.9311 9.4441 -5.65402e-18)
(50.5762 0.0738345 3.32411e-17)
(45.7844 -8.09446 -7.70332e-20)
(-23.0928 74.8997 -4.77353e-17)
(2.30808 83.88 -1.63086e-19)
(-27.1343 112.223 0)
(-19.6907 113.063 -1.55029e-16)
(-35.3609 81.2656 1.78975e-16)
(-108.042 -223.785 4.25766e-17)
(-34.7875 110.479 0)
(-39.6865 114.205 2.88721e-21)
(-37.8755 82.0372 -2.02864e-17)
(45.7232 81.6079 6.21087e-17)
(72.6444 81.1597 2.06042e-17)
(75.2472 70.0276 0)
(67.1986 70.0829 -2.06095e-17)
(65.343 79.2953 -2.15041e-17)
(38.8756 97.887 -2.55712e-19)
(7.50303 83.7188 1.94648e-17)
(18.4707 83.3519 -3.85618e-17)
(-42.9837 81.3566 5.97804e-20)
(-38.7477 56.7748 -1.02895e-16)
(12.9292 83.5396 3.88792e-17)
(-12.4524 113.259 -1.13157e-18)
(-8.81747 117.645 3.13716e-16)
(-23.7777 117.445 1.56498e-16)
(-48.435 80.4711 -1.2309e-16)
(-36.2826 61.155 9.504e-17)
(-16.2561 117.835 -3.15208e-16)
(-34.2305 65.5282 8.77856e-17)
(-32.4995 70.1226 0)
(36.8851 84.0018 -9.55433e-18)
(62.3551 7.23825 -5.68102e-18)
(42.9926 83.8131 1.00167e-17)
(-49.1047 138.885 -1.4033e-16)
(-51.7944 79.6321 4.69314e-18)
(-52.7609 79.5592 0)
(-50.3002 80.4896 -2.35566e-18)
(-51.0142 80.0571 0)