/*--------------------------------*- C++ -*----------------------------------*\
| =========                 |                                                 |
| \\      /  F ield         | OpenFOAM: The Open Source CFD Toolbox           |
|  \\    /   O peration     | Version:  2212                                  |
|   \\  /    A nd           | Website:  www.openfoam.com                      |
|    \\/     M anipulation  |                                                 |
\*---------------------------------------------------------------------------*/
FoamFile
{
    version     2.0;
    format      ascii;
    arch        "LSB;label=32;scalar=64";
    class       volVectorField;
    location    "0.0335";
    object      U;
}
// * * * * * * * * * * * * * * * * * * * * * * * * * * * * * * * * * * * * * //

dimensions      [0 1 -1 0 0 0 0];

internalField   nonuniform List<vector> 
2308
(
(-0.965401 3.19559 -1.02362e-15)
(0.104512 0.145985 0)
(0.0779134 4.65273 7.24031e-17)
(0.364027 2.04102 -3.6114e-16)
(0.056541 3.18796 0)
(0.24912 2.98125 3.73509e-21)
(-0.231714 2.93521 -4.83032e-21)
(-0.277557 3.04183 -4.98779e-16)
(-0.0381465 3.26609 9.07685e-16)
(0.0241972 2.99904 -1.20556e-16)
(0.0294837 2.98646 2.15019e-16)
(0.0284174 2.96656 -3.15912e-16)
(0.0276901 2.95126 1.56324e-16)
(0.0275975 2.93733 -7.9162e-17)
(0.0281926 2.92474 1.34806e-17)
(0.0292725 2.91458 1.1201e-16)
(0.030207 2.90778 1.49637e-17)
(-0.018699 2.90372 3.46376e-17)
(-0.0204314 2.90946 4.6611e-17)
(-0.0185323 2.91648 3.45096e-18)
(-0.016947 2.92685 2.63262e-17)
(-0.0153325 2.93966 -7.69278e-17)
(-0.0131197 2.95393 9.88388e-17)
(-0.00852079 2.96951 -4.55484e-17)
(-0.0105586 2.98455 -1.95875e-16)
(-0.0111822 2.99972 -9.31958e-17)
(-0.00573973 3.0138 4.76909e-17)
(0.00070238 3.02571 -5.24774e-17)
(-0.145479 2.97394 0)
(0.030016 2.90443 -3.19616e-16)
(0.000880527 3.03795 2.79377e-18)
(7.51877e-05 3.04844 7.15444e-19)
(-0.000204103 3.05735 -1.22352e-17)
(-0.00033068 3.0648 1.1565e-17)
(-0.000198301 3.07095 -1.22967e-17)
(-3.8244e-05 3.07605 1.15814e-17)
(0.00020632 3.08021 -5.78571e-18)
(0.000475252 3.08364 5.78466e-18)
(0.000772086 3.08639 -5.77788e-18)
(0.00106599 3.08866 2.88907e-18)
(0.00135191 3.09054 5.78296e-18)
(0.00163174 3.09224 8.68472e-18)
(0.00191014 3.09382 -1.74094e-17)
(0.00219728 3.09544 1.16392e-17)
(0.00249847 3.09723 5.8188e-18)
(0.0461646 3.09663 -5.83861e-18)
(0.0447389 3.09483 5.81811e-18)
(0.0434772 3.09309 -8.70984e-18)
(0.0424026 3.09151 -9.43274e-18)
(0.0414927 3.08976 1.44857e-17)
(0.0407266 3.08784 -2.89697e-18)
(0.0401001 3.08549 5.80471e-18)
(0.0396502 3.08283 1.45167e-18)
(0.0393969 3.07929 -8.70262e-18)
(0.0392931 3.07506 -2.90736e-18)
(0.0392911 3.06993 5.80912e-18)
(0.0394778 3.06366 0)
(0.0397071 3.05606 -7.22228e-19)
(0.04004 3.04694 -2.37458e-17)
(0.04005 3.03606 -8.18356e-17)
(0.0411034 3.02343 9.64453e-17)
(0.0486323 3.01422 9.956e-17)
(0.0590291 2.99848 1.14205e-16)
(0.0638064 2.98631 -1.63468e-21)
(0.069512 2.97296 1.27973e-16)
(0.0704827 2.95824 -2.37196e-16)
(0.0692188 2.94463 -5.44155e-17)
(0.0706826 2.93066 0)
(0.0735404 2.91794 0)
(0.0770319 2.90745 0)
(0.0807582 2.90043 0)
(0.0027545 3.09928 -2.91195e-18)
(0.047743 3.0986 2.92616e-18)
(-0.0605749 2.90562 -1.60859e-16)
(-0.0642561 2.91283 -3.25252e-18)
(-0.0622101 2.92372 1.27446e-17)
(-0.0587179 2.93755 0)
(-0.0553365 2.95265 -2.44369e-17)
(-0.0526525 2.96825 -2.39156e-17)
(-0.0504013 2.98338 1.1996e-17)
(-0.0488695 2.99821 4.81098e-17)
(-0.0464672 3.01283 0)
(-0.0423815 3.0254 -4.73348e-22)
(-0.0406358 3.03665 8.91669e-20)
(-0.0401838 3.04693 -1.15511e-17)
(-0.0400537 3.0558 1.73338e-17)
(-0.0398438 3.06325 -7.76245e-23)
(-0.0395806 3.06948 -1.01352e-17)
(-0.0392194 3.07465 0)
(-0.0389301 3.07886 -1.44778e-18)
(-0.0387455 3.08237 8.68069e-18)
(-0.0385979 3.08524 -1.15699e-17)
(-0.0386027 3.08759 7.35117e-23)
(-0.0387972 3.08956 1.15845e-17)
(-0.0391916 3.09139 0)
(-0.0397238 3.09307 1.1599e-17)
(-0.0404225 3.09487 -2.7743e-23)
(-0.0412798 3.09682 -5.82176e-18)
(-0.0221816 2.90317 -1.37092e-16)
(-0.0423464 3.09891 -5.82547e-18)
(0.0268231 2.90734 1.39743e-16)
(0.0820755 2.89878 -7.00557e-22)
(0.0909763 3.09641 -5.86145e-18)
(0.0881253 3.0945 7.31798e-18)
(0.0856375 3.09239 0)
(0.083418 3.09059 -2.18938e-18)
(0.081559 3.08874 5.09936e-18)
(0.0800067 3.08678 5.82685e-18)
(0.0787575 3.08472 -5.82574e-18)
(0.0778219 3.08224 0)
(0.0772409 3.07937 -1.45493e-18)
(0.076945 3.07566 2.9172e-18)
(0.0768419 3.07136 1.7511e-23)
(0.0770164 3.06605 -2.91734e-18)
(0.077376 3.05956 0)
(0.0778548 3.05175 4.37601e-18)
(0.0784769 3.04249 -1.74193e-17)
(0.0797578 3.03193 -1.16505e-17)
(0.0825438 3.02086 4.73221e-17)
(0.0878768 3.0103 1.75433e-16)
(0.0934856 2.99515 1.32343e-17)
(0.0988915 2.98044 1.25829e-16)
(0.103187 2.9649 -5.68807e-17)
(0.106138 2.94891 0)
(0.109143 2.93433 0)
(0.112926 2.91998 0)
(0.118126 2.90644 1.88238e-16)
(0.124323 2.89485 -2.18634e-16)
(0.13123 2.88677 2.22717e-16)
(-0.407882 3.02397 -4.00851e-16)
(0.35567 2.89731 0)
(0.221535 2.93479 0)
(0.283712 2.92526 0)
(-0.12699 2.88664 3.20799e-16)
(-0.123877 2.8911 9.07613e-17)
(-0.113343 2.90198 1.19003e-21)
(-0.106166 2.9157 -1.54307e-18)
(-0.100364 2.93095 1.53429e-18)
(-0.0957417 2.94702 1.21663e-17)
(-0.0920427 2.96324 -2.40519e-17)
(-0.089016 2.97866 -7.68536e-23)
(-0.0866532 2.99368 0)
(-0.0842436 3.00845 5.31736e-17)
(-0.0816787 3.0212 3.49166e-17)
(-0.080009 3.03252 -5.788e-18)
(-0.0790825 3.04271 5.78533e-18)
(-0.0784744 3.0515 0)
(-0.0778974 3.059 0)
(-0.0773622 3.06523 -7.25548e-19)
(-0.0768873 3.07055 0)
(-0.0765435 3.07491 4.35092e-18)
(-0.0763669 3.0786 -2.76804e-23)
(-0.0764229 3.08167 -2.90175e-18)
(-0.0767833 3.08422 0)
(-0.0775144 3.08651 -2.90208e-18)
(-0.0785312 3.08861 4.35775e-18)
(-0.0798847 3.09049 -7.27088e-18)
(-0.0815979 3.09256 0)
(-0.0835854 3.09484 -1.16401e-17)
(-0.0858848 3.09718 2.9151e-18)
(-0.0885492 3.09983 3.91818e-25)
(-0.0435706 3.10137 0)
(0.00295553 3.1016 -1.46052e-18)
(0.0493915 3.10097 -4.75573e-18)
(-0.220267 3.11699 4.3563e-16)
(0.0940394 3.09903 3.6676e-19)
(-0.539204 2.99668 -1.25651e-15)
(-0.700657 2.7723 -2.89111e-16)
(0.08002 2.90378 0)
(-0.383728 3.2766 4.16441e-16)
(-0.0405461 3.13288 -8.71361e-16)
(-0.0334796 2.91093 5.72359e-17)
(0.137851 2.88419 -3.36801e-16)
(-0.0914919 3.10274 -2.92631e-18)
(-0.0450293 3.10414 -2.92548e-18)
(0.00301849 3.10435 -3.66019e-19)
(0.0510145 3.1037 5.85689e-18)
(0.0972087 3.10165 3.67236e-19)
(0.13995 3.09687 0)
(0.135318 3.09412 2.94219e-18)
(0.130913 3.09153 5.88028e-18)
(0.126907 3.08925 -1.46869e-18)
(0.123316 3.08695 -5.87034e-18)
(0.12022 3.08479 -6.59307e-18)
(0.1176 3.08257 8.78851e-18)
(0.115422 3.08024 2.93042e-18)
(0.113715 3.07794 -5.86636e-18)
(0.112534 3.07524 4.39775e-18)
(0.1118 3.07199 -1.28196e-18)
(0.111438 3.06811 0)
(0.111426 3.06359 0)
(0.111709 3.05808 0)
(0.112217 3.05142 5.87688e-18)
(0.112891 3.04346 -2.94347e-18)
(0.113852 3.03419 -1.53679e-22)
(0.115414 3.02373 -2.3734e-17)
(0.117944 3.01257 0)
(0.121681 3.00058 -2.49348e-17)
(0.126199 2.98586 2.57837e-17)
(0.130786 2.96957 5.30609e-17)
(0.135237 2.95249 2.70661e-17)
(0.139415 2.93538 1.07968e-16)
(0.144352 2.91929 -1.06862e-16)
(0.150636 2.90349 0)
(0.158648 2.88819 2.64805e-17)
(0.168358 2.87463 -5.32237e-17)
(0.179226 2.86479 -1.07862e-16)
(-0.1734 2.89296 5.17144e-17)
(-0.678292 4.1463 0)
(0.137138 3.11203 4.74303e-21)
(-0.400683 2.95663 5.53941e-16)
(-0.353714 2.91006 -1.18295e-16)
(-0.308367 2.88632 1.34585e-16)
(-0.267962 2.8702 -2.56174e-17)
(-0.233958 2.86121 5.00503e-17)
(-0.205916 2.85966 -2.45015e-17)
(-0.183927 2.86493 0)
(-0.167701 2.87365 -2.37271e-17)
(-0.155588 2.88626 -2.40743e-17)
(-0.145984 2.90187 0)
(-0.138416 2.91881 0)
(-0.132558 2.93619 1.50967e-18)
(-0.128102 2.95322 -1.35024e-17)
(-0.124613 2.9695 0)
(-0.121844 2.98495 0)
(-0.119388 2.99964 -1.77491e-17)
(-0.117185 3.0127 -1.17307e-17)
(-0.115526 3.02426 2.33592e-17)
(-0.114354 3.03448 5.83311e-18)
(-0.113465 3.04315 1.45779e-18)
(-0.112686 3.05078 5.82884e-18)
(-0.111995 3.05701 -6.56184e-18)
(-0.111471 3.06248 0)
(-0.111121 3.06707 -2.91421e-18)
(-0.111045 3.07102 0)
(-0.111339 3.07432 0)
(-0.112087 3.0773 0)
(-0.113247 3.08005 -1.16595e-17)
(-0.114889 3.08247 0)
(-0.117095 3.08476 -6.55302e-18)
(-0.119785 3.0873 1.09239e-18)
(-0.122857 3.08992 2.29505e-17)
(-0.126338 3.09272 0)
(-0.130322 3.09564 -1.16648e-17)
(-0.134742 3.09874 1.82198e-19)
(-0.766695 4.34451 0)
(-0.492193 3.15353 6.83205e-16)
(0.847515 2.55574 1.0939e-15)
(0.262569 1.78183 0)
(-0.238845 2.45176 -3.29875e-16)
(-0.667425 2.95908 1.43077e-15)
(0.140467 2.88884 1.38487e-20)
(-0.105494 2.91308 1.08652e-16)
(0.177724 3.08678 -3.69548e-19)
(0.171774 3.08401 -2.95237e-18)
(0.166213 3.08106 2.9507e-18)
(0.161086 3.07862 0)
(0.156548 3.07586 0)
(0.1526 3.07319 3.68074e-19)
(0.149259 3.07055 -1.47179e-18)
(0.146518 3.06778 -5.14636e-18)
(0.144422 3.06511 3.67498e-19)
(0.142986 3.06193 -7.58107e-19)
(0.142112 3.05832 -9.02555e-19)
(0.141714 3.05422 4.04888e-18)
(0.141699 3.04936 3.68568e-19)
(0.142017 3.04379 -2.94956e-18)
(0.142604 3.03688 0)
(0.143386 3.02881 1.18256e-17)
(0.144419 3.01938 -4.84361e-23)
(0.145897 3.00878 5.98386e-17)
(0.14808 2.99719 -4.84366e-17)
(0.15097 2.98427 0)
(0.154851 2.96946 5.07016e-17)
(0.159192 2.95192 -1.55406e-16)
(0.163671 2.93411 7.88123e-17)
(0.168797 2.91531 1.04834e-16)
(0.175188 2.89703 -4.08935e-21)
(0.183445 2.87912 -1.03909e-16)
(0.194049 2.86125 1.03898e-16)
(0.207279 2.84501 1.04375e-16)
(0.22248 2.83235 -1.04341e-16)
(0.191024 2.86041 -2.14018e-16)
(-0.268022 3.41471 -7.43913e-21)
(-0.785023 2.44181 2.78956e-20)
(-0.510843 2.86963 -9.77457e-17)
(-0.437994 2.83185 -1.29429e-17)
(-0.377496 2.81961 -3.83456e-17)
(-0.327595 2.81519 -1.25261e-17)
(-0.286782 2.81588 0)
(-0.253954 2.82184 2.43206e-17)
(-0.227921 2.83266 -1.20192e-17)
(-0.207427 2.8463 -1.19738e-17)
(-0.19192 2.86237 6.01403e-18)
(-0.180156 2.88048 6.03209e-18)
(-0.171175 2.89952 1.20619e-17)
(-0.164386 2.91844 0)
(-0.159377 2.93649 1.19717e-17)
(-0.155557 2.95374 -1.17493e-17)
(-0.152564 2.96975 -1.85984e-19)
(-0.150141 2.9846 -3.5549e-17)
(-0.148098 2.99787 2.94762e-18)
(-0.14647 3.00958 -1.46795e-17)
(-0.145209 3.01979 0)
(-0.144138 3.02845 -4.75234e-18)
(-0.143194 3.03609 3.65512e-19)
(-0.1424 3.04246 6.58338e-18)
(-0.141793 3.04812 0)
(-0.141471 3.05298 0)
(-0.141543 3.05715 -1.82852e-19)
(-0.142098 3.06089 -5.66361e-18)
(-0.143145 3.06444 5.85202e-18)
(-0.144752 3.0676 7.31209e-18)
(-0.147026 3.07048 -1.46e-18)
(-0.149968 3.07348 4.38031e-18)
(-0.153481 3.07663 -1.46154e-18)
(-0.157594 3.0796 -1.16927e-17)
(-0.162233 3.08298 1.16809e-17)
(-0.167402 3.08629 2.62808e-17)
(-0.173181 3.08976 1.16696e-17)
(-0.179344 3.09329 0)
(-0.139464 3.10224 -6.01904e-18)
(-0.0947014 3.10613 -1.27609e-22)
(-0.0467092 3.10746 6.59769e-18)
(0.00299029 3.10759 2.19803e-18)
(0.0526448 3.10694 -2.93447e-18)
(0.100415 3.10499 5.88075e-18)
(0.144682 3.10028 -5.88346e-18)
(0.183866 3.09009 -2.95166e-18)
(0.773341 2.91834 -4.06896e-16)
(0.0261296 4.50233 -9.34862e-17)
(-0.952028 0.981748 -1.62757e-16)
(-0.628845 3.13117 -6.94265e-16)
(-0.910134 3.39446 -3.43568e-16)
(0.771484 1.8646 9.77409e-17)
(0.239354 2.82527 0)
(0.203396 2.86246 4.28365e-16)
(-0.400038 3.47551 1.01116e-15)
(-0.593391 3.32327 4.14516e-16)
(-0.675873 3.87893 -4.16762e-16)
(0.0433523 3.07346 8.91738e-16)
(-0.556368 2.74323 0)
(-0.488797 2.73517 1.27128e-17)
(-0.426992 2.7364 -3.13775e-18)
(-0.372888 2.74426 -5.87298e-17)
(-0.327597 2.75564 1.22115e-17)
(-0.290767 2.77008 0)
(-0.261378 2.78758 -7.61991e-22)
(-0.238302 2.80681 -2.99792e-18)
(-0.220608 2.82721 0)
(-0.207291 2.8484 -6.00623e-18)
(-0.197308 2.86983 -6.00448e-18)
(-0.189969 2.89047 0)
(-0.184609 2.90977 1.49319e-18)
(-0.180629 2.9279 -1.49105e-18)
(-0.177615 2.94446 1.4883e-18)
(-0.175256 2.95953 2.22434e-17)
(-0.173326 2.97299 0)
(-0.1718 2.98471 2.94738e-18)
(-0.170462 2.99487 -1.4714e-18)
(-0.169268 3.00359 3.67835e-19)
(-0.168236 3.01116 1.10372e-18)
(-0.167412 3.01775 -6.62134e-18)
(-0.16682 3.02365 0)
(-0.166601 3.02869 1.46947e-18)
(-0.166834 3.0332 2.93601e-18)
(-0.167563 3.03765 2.93939e-18)
(-0.16889 3.04159 -1.26279e-22)
(-0.170946 3.04525 -1.46566e-18)
(-0.173737 3.0489 -4.39494e-18)
(-0.177252 3.05269 -2.93262e-18)
(-0.181518 3.05638 -2.93006e-18)
(-0.186564 3.06018 0)
(-0.192258 3.06404 -1.17156e-17)
(-0.198568 3.06782 -1.1705e-17)
(-0.205446 3.07184 -8.7653e-18)
(-0.212798 3.07555 -1.6062e-17)
(-0.220549 3.07936 7.30471e-18)
(-0.18578 3.0971 -5.84349e-18)
(-0.144453 3.106 0)
(-0.0981285 3.10994 2.93378e-18)
(-0.0483992 3.11144 2.93821e-18)
(0.00296519 3.11153 -5.87006e-18)
(0.0542497 3.11071 5.88491e-18)
(0.103664 3.10847 -2.07445e-23)
(0.149497 3.10353 -2.94642e-18)
(0.190141 3.0933 8.84924e-18)
(0.224085 3.07386 -8.8927e-18)
(0.216523 3.07075 1.48232e-18)
(0.209138 3.06748 -1.10999e-18)
(0.20209 3.06465 2.2194e-18)
(0.195483 3.06127 -7.38059e-18)
(0.189476 3.0585 2.76992e-18)
(0.184145 3.05517 0)
(0.17949 3.05203 3.69545e-19)
(0.175568 3.04875 5.17439e-18)
(0.172371 3.04559 -7.3856e-19)
(0.169947 3.04227 1.84488e-18)
(0.168272 3.03856 1.44215e-23)
(0.167229 3.03455 7.4437e-19)
(0.166734 3.0302 -3.69449e-19)
(0.166686 3.025 2.58683e-18)
(0.166987 3.01929 -8.87305e-18)
(0.16756 3.01219 -1.05581e-22)
(0.168376 3.00405 5.93707e-18)
(0.169405 2.99437 -5.96051e-18)
(0.170766 2.9836 -4.7981e-17)
(0.172682 2.97166 4.83829e-17)
(0.175124 2.9582 0)
(0.178322 2.94283 -9.98786e-17)
(0.182356 2.92428 7.55702e-17)
(0.186994 2.90585 -7.67583e-17)
(0.192738 2.88506 0)
(0.200038 2.86437 0)
(0.20973 2.8438 0)
(0.222314 2.82275 -1.27134e-17)
(0.238166 2.80291 -2.61706e-21)
(0.257713 2.78632 2.0252e-16)
(-0.147811 3.54673 -4.55011e-16)
(0.257348 2.82544 2.14469e-16)
(0.215963 2.87442 -2.01966e-16)
(-0.200121 2.90996 2.56343e-17)
(-0.537956 3.50518 4.86346e-16)
(-0.742457 3.27522 4.15192e-16)
(-0.770989 3.06838 1.63643e-21)
(-0.78351 2.87857 -4.3266e-16)
(-0.808076 2.20297 -3.01364e-16)
(-0.638575 2.7809 -2.99793e-16)
(-0.677862 2.6094 1.08301e-16)
(-0.599093 2.60613 -2.51271e-17)
(-0.525954 2.61663 -4.96147e-17)
(-0.460012 2.63343 0)
(-0.402366 2.65428 4.89958e-17)
(-0.354123 2.67701 0)
(-0.314761 2.70067 0)
(-0.283345 2.72571 1.20125e-17)
(-0.258825 2.75095 2.99764e-18)
(-0.240094 2.77601 0)
(-0.226058 2.80067 5.99243e-18)
(-0.215715 2.82454 2.27504e-22)
(-0.208202 2.84701 2.7312e-22)
(-0.202812 2.86759 5.96878e-18)
(-0.198906 2.88652 6.71153e-18)
(-0.196017 2.90358 -6.69903e-18)
(-0.193789 2.91886 -1.22526e-17)
(-0.192039 2.93245 3.70554e-19)
(-0.190597 2.94406 -2.22124e-18)
(-0.189292 2.95421 7.39322e-19)
(-0.188124 2.96294 2.95614e-18)
(-0.187115 2.97053 -2.21674e-18)
(-0.186313 2.97724 2.95436e-18)
(-0.185801 2.9834 -4.7618e-23)
(-0.185692 2.98861 -7.37195e-18)
(-0.186043 2.99378 2.95213e-18)
(-0.186953 2.99873 2.94962e-18)
(-0.188607 3.00308 -4.41162e-18)
(-0.190975 3.00754 5.88014e-18)
(-0.194129 3.0121 5.8873e-18)
(-0.198148 3.01657 0)
(-0.203048 3.02126 1.76416e-17)
(-0.208786 3.02586 2.93829e-18)
(-0.215337 3.03033 2.93086e-18)
(-0.222611 3.03489 0)
(-0.230414 3.0392 0)
(-0.238788 3.04328 8.77356e-18)
(-0.247547 3.04719 -8.68874e-25)
(-0.256604 3.0505 -1.46046e-18)
(-0.228563 3.08277 1.46125e-18)
(-0.192477 3.10079 0)
(-0.149643 3.11014 0)
(-0.101675 3.11429 -1.46609e-18)
(-0.0502576 3.11573 4.39926e-18)
(0.00285519 3.1159 0)
(0.0558607 3.11495 -2.94613e-18)
(0.106983 3.11255 -2.94557e-18)
(0.154405 3.10724 5.89702e-18)
(0.196517 3.09659 -2.95276e-18)
(0.231748 3.07691 8.88743e-18)
(0.258785 3.04266 1.48551e-18)
(0.250065 3.03976 1.48638e-18)
(0.241466 3.03674 2.97252e-18)
(0.233132 3.03356 0)
(0.225208 3.03027 -1.11366e-18)
(0.217837 3.02671 -2.7837e-19)
(0.211121 3.02314 1.6698e-18)
(0.205149 3.0194 -3.70887e-19)
(0.199979 3.01563 -7.41458e-19)
(0.195612 3.01169 -5.92421e-18)
(0.192103 3.00788 1.48139e-18)
(0.189443 3.00393 -3.70473e-18)
(0.187555 2.99963 1.85112e-18)
(0.186359 2.99516 -7.40273e-19)
(0.185738 2.99047 0)
(0.185611 2.98499 0)
(0.18586 2.979 0)
(0.186431 2.97191 -2.9687e-18)
(0.18718 2.9636 0)
(0.188064 2.95382 -6.21268e-23)
(0.189189 2.94279 2.39563e-17)
(0.190838 2.93051 -1.20605e-17)
(0.193087 2.91679 2.43696e-17)
(0.195819 2.90085 7.41074e-17)
(0.199333 2.88149 -6.60023e-22)
(0.203796 2.86193 -2.50694e-17)
(0.209779 2.83936 -5.00255e-17)
(0.217587 2.8164 9.92825e-17)
(0.22812 2.79283 -4.98476e-17)
(0.242124 2.76815 -7.20166e-22)
(0.260275 2.74391 2.48108e-17)
(0.283006 2.72234 -6.20278e-21)
(0.280496 2.77506 -3.08631e-16)
(-0.285973 3.63949 -4.67958e-16)
(-0.00841933 3.67103 8.82773e-16)
(0.9482 1.37198 0)
(0.304842 2.77192 -2.10348e-16)
(-0.844128 2.58884 7.75545e-16)
(-0.880234 2.73795 -4.1352e-16)
(-0.886691 2.95089 -7.91199e-16)
(0.218711 2.88656 -6.75177e-17)
(-0.274861 2.96362 -6.42857e-17)
(-0.127932 2.93421 -2.56338e-17)
(0.274095 2.83663 -2.08237e-21)
(-0.688707 3.48866 -4.76554e-16)
(-0.864692 3.19756 3.9742e-16)
(-0.265822 3.05332 -1.46222e-18)
(-0.236726 3.08602 -1.46148e-18)
(-0.199321 3.10472 0)
(-0.154996 3.11443 -1.46601e-18)
(-0.105409 3.11901 1.46828e-18)
(-0.0522865 3.1208 -1.46718e-18)
(0.00260791 3.12097 1.46924e-18)
(0.0574081 3.11994 2.94447e-18)
(0.110222 3.1172 -2.94723e-18)
(0.159268 3.11145 5.89894e-18)
(0.202866 3.10038 -8.86885e-18)
(0.239412 3.08012 0)
(0.267532 3.04524 6.26311e-24)
(0.28632 2.98876 0)
(0.276719 2.98651 -8.92339e-18)
(0.267173 2.98399 2.97777e-18)
(0.257815 2.98079 0)
(0.248805 2.97753 0)
(0.240286 2.97373 7.44144e-19)
(0.232408 2.96962 -9.30182e-20)
(0.225234 2.96549 0)
(0.218869 2.96095 -3.71866e-19)
(0.213373 2.95648 3.71721e-19)
(0.208761 2.95179 1.48545e-18)
(0.205053 2.94708 7.41919e-19)
(0.202197 2.94246 1.48445e-18)
(0.200144 2.93759 4.81621e-23)
(0.198817 2.93255 -2.96847e-18)
(0.198098 2.92735 7.42416e-19)
(0.197901 2.92167 2.97061e-18)
(0.198106 2.91534 7.42767e-19)
(0.198568 2.90818 -1.48642e-18)
(0.19922 2.89976 2.97614e-18)
(0.200002 2.89002 -8.94296e-18)
(0.200888 2.87883 -1.19578e-17)
(0.202131 2.86623 6.00648e-18)
(0.204034 2.85218 -1.21038e-17)
(0.206478 2.83585 0)
(0.209552 2.81618 -3.68975e-17)
(0.21346 2.79536 7.45621e-17)
(0.219117 2.77073 0)
(0.226881 2.74599 0)
(0.237554 2.71928 0)
(0.251909 2.69106 1.83238e-17)
(0.270929 2.66223 -1.5946e-21)
(0.295574 2.63485 -2.89059e-22)
(0.310216 2.70595 -1.98619e-16)
(0.239824 3.14942 -4.67287e-16)
(-0.436663 3.70245 -5.05258e-21)
(0.357412 1.55011 3.8733e-16)
(-0.0407548 2.40852 0)
(-0.620703 2.44278 -2.36523e-17)
(-0.544072 2.47214 0)
(-0.474591 2.50577 0)
(-0.414884 2.54058 1.21241e-17)
(-0.365147 2.57497 -2.41633e-17)
(-0.324856 2.60818 0)
(-0.292892 2.64096 1.2027e-17)
(-0.268225 2.67232 0)
(-0.249505 2.70199 -2.99424e-18)
(-0.235617 2.73009 2.99264e-18)
(-0.225532 2.75635 -1.49566e-17)
(-0.218334 2.78053 7.78688e-23)
(-0.213267 2.80232 -5.96782e-18)
(-0.209676 2.82196 1.19331e-17)
(-0.207097 2.83943 8.93224e-18)
(-0.205178 2.85486 -8.92854e-18)
(-0.203717 2.86845 0)
(-0.202433 2.87997 -2.99587e-23)
(-0.201234 2.89002 -4.4509e-18)
(-0.200159 2.89874 0)
(-0.199244 2.9064 0)
(-0.198541 2.91326 1.48221e-18)
(-0.198118 2.91956 4.4437e-18)
(-0.1981 2.92523 -2.96071e-18)
(-0.198578 2.93097 2.95477e-18)
(-0.199652 2.93645 -5.90398e-18)
(-0.201458 2.94132 -1.47703e-18)
(-0.204049 2.94685 -1.18128e-17)
(-0.207538 2.95226 5.90081e-18)
(-0.211937 2.95775 0)
(-0.217245 2.96355 -1.17923e-17)
(-0.223457 2.96882 -5.88272e-18)
(-0.230568 2.97443 0)
(-0.23846 2.97985 5.88193e-18)
(-0.247005 2.98461 5.51881e-23)
(-0.25613 2.98906 8.79543e-18)
(-0.265635 2.99322 8.78218e-18)
(-0.27543 2.9964 0)
(-0.285402 2.99911 -2.92567e-18)
(0.147926 3.7838 -4.34929e-16)
(-0.152713 3.79875 -8.93979e-16)
(-0.0564972 5.39154 1.3439e-16)
(0.288223 2.85422 -1.86928e-16)
(-0.812803 3.47582 8.06242e-16)
(0.331163 2.77877 1.16991e-20)
(0.294852 2.90186 1.48752e-18)
(0.284738 2.89969 7.44112e-18)
(0.274698 2.89717 -5.95796e-18)
(0.264935 2.89387 0)
(0.255587 2.89007 0)
(0.246809 2.88576 0)
(0.238689 2.88082 0)
(0.23131 2.87587 1.48944e-18)
(0.224783 2.87053 -7.44308e-19)
(0.219139 2.865 3.72132e-19)
(0.21444 2.85945 -2.2322e-18)
(0.210662 2.85374 1.48711e-18)
(0.207726 2.84822 7.43262e-19)
(0.205581 2.8427 -1.11509e-18)
(0.20416 2.837 0)
(0.203389 2.83115 1.29703e-23)
(0.203115 2.82515 -7.4331e-19)
(0.203219 2.8185 7.43838e-19)
(0.203608 2.81114 1.48803e-18)
(0.204142 2.80275 -1.6747e-18)
(0.204748 2.79297 1.67591e-18)
(0.20541 2.78174 -4.47757e-18)
(0.206245 2.76895 -8.98255e-18)
(0.20759 2.75456 6.01638e-18)
(0.209571 2.73796 0)
(0.212193 2.7184 -5.62689e-22)
(0.215508 2.6962 -3.68193e-17)
(0.220474 2.67029 3.05846e-17)
(0.227455 2.64396 -6.12314e-18)
(0.237571 2.61442 0)
(0.251716 2.583 -6.04313e-18)
(0.270917 2.54956 8.34162e-17)
(0.296341 2.51574 -4.632e-17)
(0.326664 2.61102 1.87891e-16)
(0.295776 3.06757 9.56785e-16)
(-0.590494 3.72479 -3.46114e-21)
(-0.295396 3.00101 -7.32119e-19)
(-0.275049 3.05584 4.39357e-18)
(-0.244896 3.08938 7.31303e-19)
(-0.206199 3.10868 0)
(-0.16044 3.11909 -1.46669e-18)
(-0.109213 3.12432 1.46715e-18)
(-0.0543316 3.12646 -2.20478e-18)
(0.00229445 3.12669 -5.14648e-18)
(0.0588141 3.12542 5.88829e-18)
(0.113356 3.1223 0)
(0.164016 3.11597 -2.95103e-18)
(0.209112 3.10399 8.86386e-18)
(0.247023 3.08271 -5.91938e-18)
(0.276298 3.04718 -2.96371e-18)
(0.295904 2.99021 4.44689e-18)
(0.30493 2.90264 -5.94043e-18)
(0.365542 3.16253 9.05951e-16)
(-0.95752 3.05549 -3.68343e-16)
(-0.967027 2.77017 3.75531e-16)
(-0.940316 2.53285 7.52336e-16)
(-0.885788 2.35077 3.57076e-16)
(0.118272 3.02458 1.69702e-20)
(0.35223 2.94988 2.75224e-16)
(-0.337738 0.623144 0)
(0.328801 1.78494 0)
(-0.620987 2.24019 0)
(-0.537671 2.29497 5.99891e-18)
(-0.467329 2.34762 -1.20789e-17)
(-0.408395 2.39671 -7.5195e-22)
(-0.359786 2.44263 3.6221e-17)
(-0.320595 2.48514 -2.41109e-17)
(-0.289779 2.52517 1.15931e-22)
(-0.266228 2.56215 1.19917e-17)
(-0.248552 2.59608 -2.09592e-17)
(-0.23565 2.62727 2.99132e-18)
(-0.226474 2.6557 1.19601e-17)
(-0.220082 2.6813 -2.98857e-18)
(-0.215686 2.70404 2.98644e-18)
(-0.212673 2.72421 -8.95474e-18)
(-0.210588 2.74195 2.98017e-18)
(-0.209121 2.75749 8.93075e-18)
(-0.207944 2.7709 -5.95185e-18)
(-0.206881 2.7824 5.94989e-18)
(-0.2059 2.7924 2.2307e-18)
(-0.205004 2.80115 5.20397e-18)
(-0.204231 2.80892 -6.68978e-18)
(-0.203642 2.81598 4.45836e-18)
(-0.203326 2.82253 -8.17069e-18)
(-0.203391 2.82871 -5.93882e-18)
(-0.203946 2.8348 5.9348e-18)
(-0.205136 2.84106 2.96272e-18)
(-0.207062 2.84691 -2.96109e-18)
(-0.209782 2.8534 0)
(-0.213423 2.85987 -5.91533e-18)
(-0.21798 2.86665 2.95512e-18)
(-0.223501 2.87325 -5.89807e-18)
(-0.229974 2.87996 -8.84758e-18)
(-0.237334 2.88668 -5.89748e-18)
(-0.245533 2.89295 -1.17637e-17)
(-0.254451 2.89849 2.93541e-18)
(-0.263952 2.90365 -2.93647e-18)
(-0.273918 2.90812 -5.87171e-18)
(-0.284161 2.91143 0)
(-0.294553 2.91422 0)
(-0.304989 2.91585 0)
(-0.0551164 5.59095 0)
(0.341691 2.69816 1.37743e-20)
(0.307015 2.87669 1.01291e-15)
(0.319329 3.86833 4.31632e-16)
(-0.315819 3.89994 4.43836e-16)
(0.00256487 3.95023 8.73326e-16)
(0.207341 3.0402 -4.68584e-16)
(-0.29079 5.31634 -1.15122e-16)
(-0.754175 3.66663 0)
(0.175741 2.97705 -5.33092e-16)
(0.362808 2.79537 -2.17579e-16)
(0.32632 2.47866 -8.3146e-17)
(0.0515493 3.00117 -1.39938e-15)
(0.682953 3.32964 4.24852e-16)
(0.427435 1.43349 3.81045e-16)
(-0.321802 4.60822 -6.20053e-17)
(0.302809 2.77456 -2.97164e-18)
(0.29259 2.7741 -7.42988e-19)
(0.282345 2.77176 -2.23301e-18)
(0.272238 2.76892 2.12535e-22)
(0.262451 2.76518 0)
(0.253104 2.76057 0)
(0.244357 2.7554 0)
(0.236271 2.74961 -3.72647e-19)
(0.228977 2.74346 -4.65503e-19)
(0.222517 2.7371 4.65315e-19)
(0.21696 2.73032 -3.72304e-19)
(0.2123 2.72368 9.30432e-19)
(0.20853 2.71681 -1.11693e-18)
(0.205626 2.71022 0)
(0.2035 2.70372 0)
(0.202066 2.69726 0)
(0.201244 2.69065 0)
(0.200923 2.68401 0)
(0.200984 2.67699 0)
(0.201273 2.66935 -3.722e-19)
(0.201701 2.66082 1.48912e-18)
(0.202167 2.65106 0)
(0.202583 2.63981 -3.7284e-18)
(0.203043 2.62696 6.72247e-18)
(0.203799 2.61236 5.99148e-18)
(0.205142 2.59573 0)
(0.207147 2.57626 1.81769e-17)
(0.20981 2.55333 -1.82368e-17)
(0.21376 2.5268 -6.05096e-18)
(0.219651 2.49911 1.2144e-17)
(0.228243 2.46709 -1.81492e-17)
(0.240396 2.43277 9.00977e-18)
(0.25768 2.39465 -2.36757e-17)
(0.282215 2.35199 5.82707e-18)
(0.312442 2.31364 1.79648e-16)
(0.412624 3.05796 5.08598e-16)
(-0.973657 2.84614 6.83845e-16)
(-0.935673 3.28498 3.32585e-16)
(-0.315337 2.91633 0)
(-0.305332 3.0019 -4.40091e-24)
(-0.284175 3.05756 -1.46481e-18)
(-0.253009 3.09223 -7.32281e-19)
(-0.213074 3.11267 -1.83381e-19)
(-0.165837 3.12412 1.83381e-19)
(-0.113005 3.12996 0)
(-0.0564739 3.13244 0)
(0.00187588 3.13284 2.20716e-18)
(0.0601454 3.13144 -5.8873e-18)
(0.116363 3.12784 7.36897e-18)
(0.168633 3.12071 0)
(0.215225 3.10783 -5.90277e-18)
(0.254464 3.08564 5.91276e-18)
(0.284871 3.04898 1.47971e-18)
(0.30533 2.99093 1.48073e-18)
(0.314867 2.90295 0)
(0.312821 2.77465 0)
(-0.187068 3.01252 0)
(-1.00021 2.8155 3.54171e-16)
(-0.994705 2.50551 0)
(-0.953162 2.26072 -7.39838e-16)
(-0.88774 2.07715 3.72909e-16)
(-0.819902 1.9303 6.76221e-16)
(-0.17173 2.33078 -1.03952e-16)
(-0.532416 4.19965 4.13591e-16)
(-0.626437 1.93131 1.2592e-17)
(-0.561879 2.01511 -9.77534e-17)
(-0.496993 2.08851 4.25429e-17)
(-0.43608 2.15534 -4.8515e-17)
(-0.382727 2.21628 -2.1182e-17)
(-0.338255 2.27186 3.02129e-17)
(-0.302433 2.32243 6.02766e-18)
(-0.274464 2.36849 -3.00577e-17)
(-0.253234 2.41008 1.80014e-17)
(-0.237594 2.44752 0)
(-0.226432 2.48116 -1.49624e-17)
(-0.218702 2.51125 8.97071e-18)
(-0.213495 2.53791 1.49447e-17)
(-0.21006 2.56127 2.98769e-18)
(-0.20781 2.58171 -1.19456e-17)
(-0.206379 2.59954 -5.96845e-18)
(-0.205414 2.61502 0)
(-0.204612 2.62833 0)
(-0.203873 2.63979 -1.48989e-18)
(-0.20316 2.6498 -7.44826e-19)
(-0.202472 2.65865 7.44743e-18)
(-0.201845 2.66663 1.48905e-18)
(-0.201357 2.674 -5.2117e-18)
(-0.20112 2.68098 2.912e-24)
(-0.201238 2.68779 0)
(-0.201844 2.69457 0)
(-0.203045 2.70153 -5.94465e-18)
(-0.204965 2.70856 8.91077e-18)
(-0.207691 2.71603 -2.96737e-18)
(-0.21133 2.72383 2.50606e-22)
(-0.215896 2.73177 2.95733e-18)
(-0.221418 2.73979 2.95745e-18)
(-0.227891 2.74809 1.77348e-17)
(-0.235258 2.75591 0)
(-0.243449 2.7631 8.83763e-18)
(-0.252355 2.76998 -8.83412e-18)
(-0.261934 2.77611 5.88658e-18)
(-0.271973 2.78102 -5.87603e-18)
(-0.282304 2.78507 5.87515e-18)
(-0.292832 2.78792 0)
(-0.303333 2.78973 0)
(-0.313717 2.79009 -2.93386e-18)
(0.505362 3.14657 8.87075e-16)
(0.364203 2.59701 -1.91403e-16)
(-0.891266 3.62373 -3.50748e-16)
(0.687282 3.42744 8.59918e-16)
(0.604418 3.6619 2.95892e-21)
(0.493646 3.90877 8.6148e-16)
(0.37586 2.70352 2.10452e-16)
(-0.480504 3.94911 -9.36227e-16)
(0.176023 4.07625 0)
(-0.165726 4.09501 0)
(-0.303809 3.68636 -6.80424e-17)
(0.95859 2.65177 -4.24769e-16)
(-0.212089 3.58219 2.89929e-17)
(0.179802 2.93776 -8.44689e-16)
(0.305938 2.04453 -9.63412e-17)
(0.436773 2.96844 -5.64799e-16)
(0.202345 5.35874 0)
(0.133325 5.57786 -5.97538e-17)
(0.273084 2.09673 0)
(0.251631 2.14738 3.00247e-18)
(0.233779 2.19171 5.99028e-18)
(0.220128 2.23188 2.25037e-18)
(0.210283 2.26756 3.76326e-19)
(0.203571 2.30023 0)
(0.199161 2.32911 7.53989e-18)
(0.196358 2.35554 -7.5497e-18)
(0.194527 2.37853 3.00184e-18)
(0.193343 2.39775 -5.98588e-18)
(0.192723 2.41426 1.49345e-18)
(0.192493 2.42887 0)
(0.192334 2.4417 2.98171e-18)
(0.192111 2.4529 -1.49079e-18)
(0.191819 2.46278 1.48958e-18)
(0.191513 2.47156 -2.60739e-18)
(0.191299 2.47962 3.0263e-18)
(0.191298 2.48729 -7.91651e-23)
(0.191645 2.49475 -1.58324e-18)
(0.19244 2.50222 7.45007e-19)
(0.193791 2.50977 -8.38212e-19)
(0.195811 2.51745 0)
(0.198561 2.52534 3.72633e-19)
(0.202115 2.53344 -1.86352e-19)
(0.206539 2.54155 -7.45504e-19)
(0.211816 2.54962 6.46478e-19)
(0.217969 2.55747 9.31939e-20)
(0.224932 2.56505 -3.72684e-19)
(0.232673 2.57188 0)
(0.24109 2.57841 0)
(0.2501 2.5838 -1.49073e-18)
(0.259541 2.58855 8.1941e-18)
(0.269335 2.59197 -1.49011e-18)
(0.279292 2.59464 0)
(0.289267 2.59573 5.95118e-18)
(0.299036 2.59557 -1.11239e-22)
(-0.0538045 5.73309 3.19975e-16)
(-0.323801 2.78868 2.93449e-18)
(-0.325423 2.91523 0)
(-0.315064 3.00189 -7.3357e-19)
(-0.293177 3.05884 7.32788e-19)
(-0.261057 3.09471 1.83348e-18)
(-0.219923 3.11641 -1.467e-18)
(-0.171231 3.12894 3.67184e-19)
(-0.116875 3.13568 7.34985e-19)
(-0.0587371 3.13888 5.14981e-18)
(0.00136452 3.13948 -7.35548e-18)
(0.0613666 3.13785 -5.89087e-18)
(0.119289 3.13358 5.89539e-18)
(0.173162 3.12555 -7.37262e-19)
(0.221219 3.11153 1.47559e-18)
(0.261708 3.08807 -5.90847e-18)
(0.293212 3.05011 -1.47736e-18)
(0.314514 2.99099 5.91804e-18)
(0.324454 2.90213 0)
(0.322474 2.77339 2.96438e-18)
(0.308421 2.59454 -1.48332e-18)
(0.537395 3.01825 4.65079e-16)
(0.374203 2.457 -1.67347e-16)
(0.741766 3.21013 -4.27245e-16)
(-0.595943 4.90904 0)
(-0.358231 5.08697 0)
(-0.0495813 5.12553 -1.10523e-16)
(0.278328 5.07601 -2.76897e-17)
(0.573594 4.93531 -3.45086e-17)
(0.433398 5.20124 -8.48477e-17)
(0.301503 5.40925 1.18231e-16)
(0.184788 5.56629 6.42829e-17)
(0.297477 1.46127 0)
(-0.12308 5.65298 -6.32712e-17)
(0.970364 2.30392 4.05725e-21)
(0.686281 1.57001 3.79974e-16)
(0.868 2.18513 -3.62884e-16)
(0.828284 3.34259 -4.30326e-16)
(0.757499 3.60776 0)
(0.656822 3.89024 0)
(0.41266 2.71762 4.39621e-16)
(0.642365 3.09786 8.66894e-16)
(-0.541871 4.51771 -8.48618e-17)
(-0.984825 2.46758 3.54435e-16)
(-0.959693 2.15934 -3.66921e-16)
(-0.910329 1.9219 0)
(-0.845596 1.7405 -7.79167e-16)
(-0.777137 1.59531 3.91836e-16)
(-0.712003 1.70365 -5.28115e-16)
(-0.496394 0.932276 -3.22942e-16)
(-0.57919 1.5594 1.02277e-16)
(-0.539255 1.66571 -1.13871e-16)
(-0.489355 1.76033 5.00018e-17)
(-0.436695 1.84576 -4.92767e-17)
(-0.385882 1.92252 0)
(-0.340612 1.99196 -3.0388e-18)
(-0.302524 2.05459 -4.54543e-18)
(-0.271845 2.11081 1.811e-17)
(-0.248093 2.16115 6.01748e-18)
(-0.230344 2.20593 -3.00285e-17)
(-0.217567 2.24572 1.19911e-17)
(-0.208703 2.28088 1.49667e-17)
(-0.202808 2.31191 -1.19637e-17)
(-0.199051 2.3391 7.47358e-18)
(-0.196756 2.36269 -7.47204e-18)
(-0.19542 2.38319 -2.9878e-18)
(-0.194723 2.40096 8.95854e-18)
(-0.194271 2.41629 1.49245e-18)
(-0.193887 2.4295 5.96759e-18)
(-0.193493 2.44096 -5.96636e-18)
(-0.193047 2.45107 0)