/*--------------------------------*- C++ -*----------------------------------*\
| =========                 |                                                 |
| \\      /  F ield         | OpenFOAM: The Open Source CFD Toolbox           |
|  \\    /   O peration     | Version:  2212                                  |
|   \\  /    A nd           | Website:  www.openfoam.com                      |
|    \\/     M anipulation  |                                                 |
\*---------------------------------------------------------------------------*/
FoamFile
{
    version     2.0;
    format      ascii;
    arch        "LSB;label=32;scalar=64";
    class       volVectorField;
    location    "0.047";
    object      U;
}
// * * * * * * * * * * * * * * * * * * * * * * * * * * * * * * * * * * * * * //

dimensions      [0 1 -1 0 0 0 0];

internalField   nonuniform List<vector> 
24240
(
(9.66081 0.536752 1.04983e-06)
(9.66084 0.536754 5.62185e-07)
(9.66084 0.536753 1.35735e-06)
(9.66083 0.536751 1.69559e-06)
(9.66083 0.53675 2.0904e-06)
(9.66083 0.536748 2.34192e-06)
(9.66082 0.536745 2.51254e-06)
(9.66081 0.536743 2.58308e-06)
(9.66081 0.536741 2.5637e-06)
(9.6608 0.536738 2.46109e-06)
(9.6608 0.536736 2.2882e-06)
(9.66079 0.536734 2.0597e-06)
(9.66079 0.536732 1.79153e-06)
(9.66078 0.53673 1.50074e-06)
(9.66078 0.536729 1.20509e-06)
(9.66078 0.536727 9.12328e-07)
(9.66077 0.536726 6.80246e-07)
(9.66077 0.536726 3.29043e-07)
(9.66077 0.536725 4.16635e-07)
(9.66073 0.536722 -7.44945e-07)
(9.13215 0.539953 -1.97903e-07)
(9.13218 0.539955 -4.31237e-07)
(9.13218 0.539954 -5.80646e-07)
(9.13218 0.539953 -7.9641e-07)
(9.13218 0.539952 -9.58801e-07)
(9.13219 0.53995 -1.11457e-06)
(9.13219 0.539949 -1.23346e-06)
(9.13219 0.539947 -1.32421e-06)
(9.13219 0.539945 -1.38212e-06)
(9.1322 0.539943 -1.40835e-06)
(9.1322 0.539942 -1.40369e-06)
(9.1322 0.53994 -1.36724e-06)
(9.1322 0.539938 -1.30254e-06)
(9.1322 0.539937 -1.21108e-06)
(9.1322 0.539936 -1.0969e-06)
(9.13221 0.539935 -9.64039e-07)
(9.13221 0.539934 -8.03066e-07)
(9.13221 0.539933 -6.40819e-07)
(9.13221 0.539933 -3.78001e-07)
(9.13217 0.53993 -1.10932e-07)
(9.16263 0.222444 -1.11562e-07)
(9.16266 0.222445 -3.0773e-08)
(9.16266 0.222445 1.2717e-08)
(9.16266 0.222445 -9.67785e-09)
(9.16266 0.222445 -2.82164e-08)
(9.16266 0.222445 -7.97079e-08)
(9.16266 0.222445 -1.44517e-07)
(9.16266 0.222445 -2.24341e-07)
(9.16266 0.222445 -3.12903e-07)
(9.16266 0.222445 -4.04151e-07)
(9.16265 0.222445 -4.91135e-07)
(9.16265 0.222445 -5.66983e-07)
(9.16265 0.222445 -6.25344e-07)
(9.16265 0.222445 -6.59194e-07)
(9.16265 0.222445 -6.67524e-07)
(9.16265 0.222445 -6.38247e-07)
(9.16265 0.222445 -5.78373e-07)
(9.16265 0.222445 -4.86697e-07)
(9.16265 0.222445 -3.10336e-07)
(9.16261 0.222444 -3.91231e-08)
(8.88252 0.22464 -1.22072e-07)
(8.88256 0.224641 -3.92481e-07)
(8.88256 0.224641 -6.12653e-07)
(8.88256 0.224641 -8.3173e-07)
(8.88256 0.22464 -1.01237e-06)
(8.88256 0.22464 -1.17275e-06)
(8.88256 0.224639 -1.30013e-06)
(8.88256 0.224638 -1.39518e-06)
(8.88256 0.224638 -1.45418e-06)
(8.88257 0.224637 -1.47566e-06)
(8.88257 0.224636 -1.45877e-06)
(8.88257 0.224636 -1.40386e-06)
(8.88257 0.224635 -1.31364e-06)
(8.88257 0.224635 -1.19031e-06)
(8.88257 0.224634 -1.04059e-06)
(8.88257 0.224634 -8.67177e-07)
(8.88257 0.224634 -6.75644e-07)
(8.88257 0.224634 -4.7437e-07)
(8.88257 0.224633 -2.88089e-07)
(8.88254 0.224632 -1.3204e-07)
(8.89028 0.102087 -1.35315e-07)
(8.89031 0.102088 -3.01896e-07)
(8.89031 0.102088 -4.72885e-07)
(8.89031 0.102088 -6.46677e-07)
(8.89031 0.102088 -8.09712e-07)
(8.89031 0.102088 -9.66756e-07)
(8.89031 0.102088 -1.11062e-06)
(8.89032 0.102088 -1.23623e-06)
(8.89032 0.102088 -1.33884e-06)
(8.89032 0.102088 -1.41231e-06)
(8.89032 0.102088 -1.45186e-06)
(8.89032 0.102088 -1.45358e-06)
(8.89032 0.102088 -1.41573e-06)
(8.89032 0.102088 -1.33617e-06)
(8.89032 0.102088 -1.21734e-06)
(8.89032 0.102088 -1.05382e-06)
(8.89032 0.102088 -8.58454e-07)
(8.89032 0.102088 -6.26587e-07)
(8.89032 0.102088 -3.85282e-07)
(8.89029 0.102088 -1.1669e-07)
(8.7467 0.0981289 -1.09008e-07)
(8.74674 0.0981293 -3.44016e-07)
(8.74674 0.0981292 -5.52024e-07)
(8.74674 0.0981291 -7.52332e-07)
(8.74674 0.0981289 -9.23064e-07)
(8.74674 0.0981287 -1.07131e-06)
(8.74674 0.0981285 -1.19073e-06)
(8.74674 0.0981283 -1.2792e-06)
(8.74674 0.0981281 -1.33399e-06)
(8.74675 0.0981279 -1.35347e-06)
(8.74675 0.0981277 -1.33652e-06)
(8.74675 0.0981275 -1.28334e-06)
(8.74675 0.0981273 -1.19646e-06)
(8.74675 0.0981271 -1.07777e-06)
(8.74675 0.098127 -9.32417e-07)
(8.74675 0.0981269 -7.63624e-07)
(8.74675 0.0981268 -5.78421e-07)
(8.74675 0.0981267 -3.87421e-07)
(8.74675 0.0981266 -2.18641e-07)
(8.74672 0.0981261 -8.93047e-08)
(8.74767 0.0432938 -1.35626e-07)
(8.7477 0.043294 -3.86336e-07)
(8.7477 0.043294 -6.32281e-07)
(8.74771 0.0432939 -8.67416e-07)
(8.74771 0.0432938 -1.08143e-06)
(8.74771 0.0432937 -1.27186e-06)
(8.74771 0.0432936 -1.43423e-06)
(8.74771 0.0432934 -1.56461e-06)
(8.74771 0.0432933 -1.66024e-06)
(8.74771 0.0432931 -1.71765e-06)
(8.74771 0.043293 -1.73496e-06)
(8.74771 0.0432928 -1.71069e-06)
(8.74771 0.0432927 -1.64455e-06)
(8.74772 0.0432926 -1.53701e-06)
(8.74772 0.0432924 -1.3909e-06)
(8.74772 0.0432923 -1.20692e-06)
(8.74772 0.0432921 -9.92905e-07)
(8.74772 0.043292 -7.4661e-07)
(8.74772 0.0432919 -4.79585e-07)
(8.74769 0.0432916 -1.7153e-07)
(8.68686 0.0376547 -1.30033e-07)
(8.68689 0.0376548 -3.98599e-07)
(8.68689 0.0376545 -6.51537e-07)
(8.68689 0.0376541 -8.90494e-07)
(8.68689 0.0376536 -1.09543e-06)
(8.68689 0.037653 -1.26703e-06)
(8.68689 0.0376523 -1.4009e-06)
(8.6869 0.0376516 -1.49636e-06)
(8.6869 0.0376509 -1.55293e-06)
(8.6869 0.0376502 -1.57088e-06)
(8.6869 0.0376494 -1.5515e-06)
(8.6869 0.0376487 -1.49575e-06)
(8.6869 0.0376481 -1.4061e-06)
(8.6869 0.0376475 -1.2856e-06)
(8.6869 0.037647 -1.13909e-06)
(8.68691 0.0376465 -9.7395e-07)
(8.68691 0.0376461 -7.94788e-07)
(8.68691 0.0376457 -6.07755e-07)
(8.68691 0.0376455 -3.95811e-07)
(8.68687 0.0376452 -1.48082e-07)
(8.6912 0.00433495 -2.43148e-07)
(8.69123 0.0043348 -7.16075e-07)
(8.69123 0.00433444 -1.17778e-06)
(8.69123 0.00433392 -1.60595e-06)
(8.69123 0.00433327 -1.98374e-06)
(8.69123 0.0043325 -2.30236e-06)
(8.69124 0.00433165 -2.55608e-06)
(8.69124 0.00433074 -2.74189e-06)
(8.69124 0.0043298 -2.8589e-06)
(8.69124 0.00432885 -2.90734e-06)
(8.69125 0.00432793 -2.88899e-06)
(8.69125 0.00432705 -2.80591e-06)
(8.69125 0.00432622 -2.66142e-06)
(8.69125 0.00432548 -2.46171e-06)
(8.69125 0.00432481 -2.21383e-06)
(8.69125 0.00432424 -1.92932e-06)
(8.69125 0.00432376 -1.606e-06)
(8.69126 0.00432338 -1.24365e-06)
(8.69126 0.0043231 -8.05743e-07)
(8.69122 0.00432295 -2.76607e-07)
(8.68536 -0.00851375 -2.80247e-07)
(8.68539 -0.00851375 -8.45835e-07)
(8.68539 -0.00851365 -1.3802e-06)
(8.68539 -0.0085135 -1.86554e-06)
(8.6854 -0.0085133 -2.28033e-06)
(8.6854 -0.00851307 -2.61721e-06)
(8.6854 -0.0085128 -2.87057e-06)
(8.6854 -0.00851251 -3.0392e-06)
(8.68541 -0.0085122 -3.12489e-06)
(8.68541 -0.00851189 -3.13095e-06)
(8.68541 -0.00851158 -3.06217e-06)
(8.68541 -0.00851128 -2.92443e-06)
(8.68542 -0.00851101 -2.72461e-06)
(8.68542 -0.00851077 -2.4725e-06)
(8.68542 -0.00851056 -2.17887e-06)
(8.68542 -0.00851038 -1.86104e-06)
(8.68542 -0.00851024 -1.52036e-06)
(8.68542 -0.00851013 -1.16699e-06)
(8.68542 -0.00851007 -7.40423e-07)
(8.68539 -0.00850995 -2.5107e-07)
(8.70315 -0.0317486 -1.97693e-07)
(8.70318 -0.0317485 -5.94273e-07)
(8.70318 -0.0317481 -9.71351e-07)
(8.70318 -0.0317474 -1.3214e-06)
(8.70318 -0.0317465 -1.62917e-06)
(8.70318 -0.0317455 -1.88855e-06)
(8.70318 -0.0317445 -2.09594e-06)
(8.70319 -0.0317434 -2.25051e-06)
(8.70319 -0.0317422 -2.35152e-06)
(8.70319 -0.0317411 -2.40107e-06)
(8.70319 -0.0317401 -2.39975e-06)
(8.70319 -0.0317392 -2.34726e-06)
(8.70319 -0.0317384 -2.24396e-06)
(8.70319 -0.0317377 -2.09312e-06)
(8.70319 -0.0317372 -1.8975e-06)
(8.70319 -0.0317368 -1.67183e-06)
(8.70319 -0.0317365 -1.40448e-06)
(8.70319 -0.0317363 -1.10902e-06)
(8.70319 -0.0317362 -6.99148e-07)
(8.70316 -0.0317359 -2.22481e-07)
(8.73809 -0.0488618 -8.99627e-08)
(8.73812 -0.0488621 -2.68741e-07)
(8.73812 -0.048862 -4.45378e-07)
(8.73812 -0.0488618 -6.21807e-07)
(8.73812 -0.0488617 -7.90427e-07)
(8.73812 -0.0488614 -9.48123e-07)
(8.73812 -0.0488612 -1.09348e-06)
(8.73812 -0.0488609 -1.22427e-06)
(8.73812 -0.0488606 -1.33978e-06)
(8.73812 -0.0488604 -1.43597e-06)
(8.73812 -0.0488601 -1.50816e-06)
(8.73812 -0.0488598 -1.54988e-06)
(8.73812 -0.0488595 -1.55326e-06)
(8.73812 -0.0488592 -1.51399e-06)
(8.73812 -0.048859 -1.42793e-06)
(8.73812 -0.0488587 -1.30673e-06)
(8.73812 -0.0488585 -1.1364e-06)
(8.73812 -0.0488584 -9.34789e-07)
(8.73812 -0.0488582 -5.87023e-07)
(8.73808 -0.0488579 -1.71997e-07)
(8.77535 -0.0813897 -1.58751e-07)
(8.77539 -0.0813901 -4.94695e-07)
(8.77539 -0.0813902 -7.92877e-07)
(8.77539 -0.0813903 -1.07262e-06)
(8.77539 -0.0813904 -1.31792e-06)
(8.77539 -0.0813906 -1.5247e-06)
(8.77539 -0.0813908 -1.69162e-06)
(8.77539 -0.0813911 -1.81708e-06)
(8.77539 -0.0813913 -1.90154e-06)
(8.77539 -0.0813916 -1.9452e-06)
(8.77539 -0.0813919 -1.94724e-06)
(8.77539 -0.0813922 -1.90617e-06)
(8.77539 -0.0813925 -1.82005e-06)
(8.77538 -0.0813928 -1.69116e-06)
(8.77538 -0.081393 -1.5198e-06)
(8.77538 -0.0813932 -1.32672e-06)
(8.77538 -0.0813934 -1.0989e-06)
(8.77538 -0.0813935 -8.68051e-07)
(8.77538 -0.0813936 -4.99697e-07)
(8.77535 -0.0813933 -1.32667e-07)
(8.86768 -0.0935921 -1.28913e-07)
(8.86771 -0.0935926 -3.60832e-07)
(8.86771 -0.0935926 -6.02547e-07)
(8.86771 -0.0935926 -8.4041e-07)
(8.86771 -0.0935927 -1.07301e-06)
(8.86771 -0.0935928 -1.29063e-06)
(8.86771 -0.0935929 -1.49163e-06)
(8.86771 -0.093593 -1.67093e-06)
(8.86771 -0.0935931 -1.82528e-06)
(8.86771 -0.0935932 -1.949e-06)
(8.86771 -0.0935933 -2.03423e-06)
(8.86771 -0.0935934 -2.0737e-06)
(8.86771 -0.0935934 -2.05843e-06)
(8.86771 -0.0935934 -1.98511e-06)
(8.86771 -0.0935934 -1.84842e-06)
(8.86771 -0.0935934 -1.66449e-06)
(8.86771 -0.0935933 -1.42137e-06)
(8.86771 -0.0935933 -1.1358e-06)
(8.86771 -0.0935933 -7.05606e-07)
(8.86767 -0.0935929 -2.03209e-07)
(8.90765 -0.165207 -1.44697e-07)
(8.90768 -0.165208 -5.22903e-07)
(8.90768 -0.165208 -8.54937e-07)
(8.90768 -0.165208 -1.17189e-06)
(8.90768 -0.165208 -1.45004e-06)
(8.90768 -0.165208 -1.68461e-06)
(8.90768 -0.165208 -1.87317e-06)
(8.90768 -0.165208 -2.01092e-06)
(8.90768 -0.165208 -2.09818e-06)
(8.90768 -0.165208 -2.13224e-06)
(8.90768 -0.165208 -2.11216e-06)
(8.90768 -0.165209 -2.03788e-06)
(8.90768 -0.165209 -1.90935e-06)
(8.90768 -0.165209 -1.73385e-06)
(8.90768 -0.165209 -1.51811e-06)
(8.90768 -0.16521 -1.29409e-06)
(8.90768 -0.16521 -1.05358e-06)
(8.90768 -0.16521 -8.51367e-07)
(8.90768 -0.16521 -5.51133e-07)
(8.90764 -0.16521 -2.00175e-07)
(9.10744 -0.167037 -1.59423e-07)
(9.10747 -0.167037 -3.56198e-07)
(9.10747 -0.167037 -6.08371e-07)
(9.10747 -0.167037 -8.81821e-07)
(9.10747 -0.167037 -1.15945e-06)
(9.10747 -0.167037 -1.42744e-06)
(9.10747 -0.167037 -1.68279e-06)
(9.10747 -0.167037 -1.91638e-06)
(9.10747 -0.167037 -2.12327e-06)
(9.10746 -0.167037 -2.29342e-06)
(9.10746 -0.167037 -2.41786e-06)
(9.10746 -0.167037 -2.48692e-06)
(9.10746 -0.167037 -2.49084e-06)
(9.10746 -0.167037 -2.42528e-06)
(9.10746 -0.167037 -2.28672e-06)
(9.10746 -0.167037 -2.08648e-06)
(9.10746 -0.167037 -1.8233e-06)
(9.10746 -0.167037 -1.54042e-06)
(9.10746 -0.167037 -1.0803e-06)
(9.10742 -0.167036 -3.4169e-07)
(9.12385 -0.35102 -8.46635e-08)
(9.12389 -0.351021 -4.19654e-07)
(9.12389 -0.351021 -7.33086e-07)
(9.12389 -0.35102 -1.06112e-06)
(9.12389 -0.35102 -1.34698e-06)
(9.12389 -0.351019 -1.59385e-06)
(9.12389 -0.351019 -1.79823e-06)
(9.12389 -0.351018 -1.95335e-06)
(9.12388 -0.351018 -2.06027e-06)
(9.12388 -0.351017 -2.11254e-06)
(9.12388 -0.351016 -2.10966e-06)
(9.12388 -0.351016 -2.04975e-06)
(9.12388 -0.351015 -1.93493e-06)
(9.12388 -0.351014 -1.77333e-06)
(9.12388 -0.351014 -1.57027e-06)
(9.12388 -0.351014 -1.35881e-06)
(9.12388 -0.351013 -1.15239e-06)
(9.12388 -0.351013 -1.0472e-06)
(9.12388 -0.351013 -7.42407e-07)
(9.12385 -0.351011 -2.82522e-07)
(9.51938 -0.338125 -2.07481e-07)
(9.51941 -0.338126 -1.46739e-07)
(9.51941 -0.338126 -1.40596e-07)
(9.51941 -0.338126 -2.53016e-07)
(9.51941 -0.338126 -3.64966e-07)
(9.5194 -0.338125 -5.19356e-07)
(9.5194 -0.338125 -6.87486e-07)
(9.5194 -0.338124 -8.72513e-07)
(9.5194 -0.338124 -1.06255e-06)
(9.51939 -0.338123 -1.24845e-06)
(9.51939 -0.338123 -1.42635e-06)
(9.51939 -0.338123 -1.5803e-06)
(9.51938 -0.338122 -1.69706e-06)
(9.51938 -0.338122 -1.76498e-06)
(9.51938 -0.338122 -1.76719e-06)
(9.51938 -0.338122 -1.69473e-06)
(9.51937 -0.338122 -1.5159e-06)
(9.51937 -0.338122 -1.27777e-06)
(9.51937 -0.338121 -7.9417e-07)
(9.51934 -0.33812 -1.23998e-07)
(9.48087 -0.814816 -2.07908e-07)
(9.4809 -0.814819 -4.4199e-07)
(9.4809 -0.814819 -4.5493e-07)
(9.4809 -0.814818 -6.22342e-07)
(9.4809 -0.814817 -7.61146e-07)
(9.4809 -0.814815 -9.21073e-07)
(9.4809 -0.814814 -1.06411e-06)
(9.4809 -0.814812 -1.19093e-06)
(9.4809 -0.814811 -1.29871e-06)
(9.4809 -0.814809 -1.38443e-06)
(9.4809 -0.814807 -1.4436e-06)
(9.4809 -0.814806 -1.4734e-06)
(9.4809 -0.814804 -1.47334e-06)
(9.4809 -0.814803 -1.43939e-06)
(9.4809 -0.814802 -1.35958e-06)
(9.4809 -0.814801 -1.25229e-06)
(9.48091 -0.8148 -1.05458e-06)
(9.48091 -0.8148 -8.59189e-07)
(9.48091 -0.8148 -3.88601e-07)
(9.48087 -0.814796 -5.45225e-08)
(10.2289 -0.80195 1.52988e-06)
(10.2289 -0.801953 2.11437e-07)
(10.2289 -0.801952 1.04511e-06)
(10.2289 -0.801951 1.17308e-06)
(10.2289 -0.80195 1.45534e-06)
(10.2289 -0.801949 1.57057e-06)
(10.2289 -0.801947 1.6271e-06)
(10.2289 -0.801946 1.58746e-06)
(10.2288 -0.801944 1.46534e-06)
(10.2288 -0.801942 1.25946e-06)
(10.2288 -0.801941 9.88561e-07)
(10.2288 -0.80194 6.67895e-07)
(10.2288 -0.801939 3.19932e-07)
(10.2288 -0.801938 -2.02248e-08)
(10.2288 -0.801937 -3.07267e-07)
(10.2288 -0.801937 -5.49528e-07)
(10.2288 -0.801936 -6.00141e-07)
(10.2288 -0.801936 -8.08794e-07)
(10.2288 -0.801936 -2.0417e-07)
(10.2288 -0.801933 -1.55402e-06)
(8.8068 0.60313 9.60001e-07)
(8.80684 0.603131 1.60822e-06)
(8.80684 0.603129 2.89994e-06)
(8.80684 0.603126 3.81696e-06)
(8.80684 0.603122 4.67172e-06)
(8.80684 0.603118 5.29337e-06)
(8.80684 0.603112 5.72381e-06)
(8.80684 0.603107 5.94499e-06)
(8.80684 0.603102 5.97663e-06)
(8.80684 0.603096 5.82785e-06)
(8.80684 0.603091 5.52591e-06)
(8.80684 0.603086 5.09943e-06)
(8.80684 0.603081 4.57525e-06)
(8.80684 0.603077 3.99194e-06)
(8.80684 0.603074 3.36286e-06)
(8.80684 0.603071 2.73735e-06)
(8.80684 0.603069 2.11812e-06)
(8.80684 0.603067 1.42235e-06)
(8.80684 0.603066 9.73868e-07)
(8.80681 0.603063 -1.53378e-07)
(8.84159 0.615547 -2.95544e-07)
(8.84163 0.615549 -9.92813e-07)
(8.84163 0.615548 -1.54036e-06)
(8.84163 0.615546 -2.09214e-06)
(8.84163 0.615543 -2.50566e-06)
(8.84163 0.61554 -2.84578e-06)
(8.84163 0.615536 -3.07097e-06)
(8.84163 0.615532 -3.19831e-06)
(8.84163 0.615528 -3.22479e-06)
(8.84163 0.615524 -3.16076e-06)
(8.84163 0.61552 -3.01331e-06)
(8.84163 0.615517 -2.79571e-06)
(8.84163 0.615513 -2.52436e-06)
(8.84163 0.61551 -2.20932e-06)
(8.84163 0.615507 -1.87959e-06)
(8.84163 0.615505 -1.53329e-06)
(8.84163 0.615503 -1.19336e-06)
(8.84163 0.615502 -9.02008e-07)
(8.84163 0.615501 -5.51552e-07)
(8.8416 0.615498 -2.70437e-07)
(8.87294 0.358708 -3.49825e-08)
(8.87297 0.35871 -1.25395e-07)
(8.87297 0.35871 -1.33283e-07)
(8.87297 0.358711 -2.1072e-07)
(8.87297 0.358712 -2.67249e-07)
(8.87297 0.358712 -3.59324e-07)
(8.87297 0.358713 -4.59019e-07)
(8.87297 0.358714 -5.70209e-07)
(8.87297 0.358715 -6.8085e-07)
(8.87297 0.358715 -7.83992e-07)
(8.87297 0.358716 -8.69062e-07)
(8.87296 0.358717 -9.2824e-07)
(8.87296 0.358718 -9.56848e-07)
(8.87296 0.358718 -9.45481e-07)
(8.87296 0.358719 -9.05127e-07)
(8.87296 0.358719 -8.0926e-07)
(8.87296 0.358719 -7.03923e-07)
(8.87296 0.35872 -5.59863e-07)
(8.87296 0.35872 -3.72713e-07)
(8.87293 0.358718 -2.10257e-07)
(8.75469 0.358338 -1.50128e-07)
(8.75472 0.358339 -5.23563e-07)
(8.75472 0.358339 -8.31213e-07)
(8.75472 0.358339 -1.13166e-06)
(8.75472 0.358338 -1.36558e-06)
(8.75472 0.358338 -1.55988e-06)
(8.75472 0.358337 -1.69756e-06)
(8.75472 0.358337 -1.78399e-06)
(8.75472 0.358336 -1.8168e-06)
(8.75472 0.358335 -1.79898e-06)
(8.75472 0.358335 -1.73233e-06)
(8.75472 0.358334 -1.6217e-06)
(8.75472 0.358334 -1.47396e-06)
(8.75472 0.358333 -1.29362e-06)
(8.75472 0.358333 -1.09442e-06)
(8.75472 0.358333 -8.75308e-07)
(8.75472 0.358333 -6.55283e-07)
(8.75472 0.358332 -4.54196e-07)
(8.75472 0.358332 -2.73585e-07)
(8.75469 0.358331 -1.46866e-07)
(8.77083 0.200471 -1.51889e-07)
(8.77087 0.200472 -3.93034e-07)
(8.77087 0.200472 -6.10954e-07)
(8.77087 0.200472 -8.32976e-07)
(8.77087 0.200472 -1.03255e-06)
(8.77087 0.200472 -1.2231e-06)
(8.77087 0.200472 -1.39263e-06)
(8.77087 0.200472 -1.53778e-06)
(8.77087 0.200473 -1.65105e-06)
(8.77087 0.200473 -1.72574e-06)
(8.77087 0.200473 -1.75616e-06)
(8.77087 0.200473 -1.73851e-06)
(8.77086 0.200473 -1.67264e-06)
(8.77086 0.200473 -1.55414e-06)
(8.77086 0.200473 -1.39369e-06)
(8.77086 0.200473 -1.17412e-06)
(8.77086 0.200473 -9.3497e-07)
(8.77086 0.200473 -6.58066e-07)
(8.77086 0.200473 -3.96927e-07)
(8.77083 0.200473 -1.5465e-07)
(8.67286 0.194196 -1.31613e-07)
(8.67289 0.194196 -4.11073e-07)
(8.67289 0.194196 -6.60815e-07)
(8.67289 0.194196 -8.97996e-07)
(8.67289 0.194196 -1.09235e-06)
(8.67289 0.194195 -1.25583e-06)
(8.67289 0.194195 -1.37895e-06)
(8.67289 0.194194 -1.4618e-06)
(8.67289 0.194194 -1.50262e-06)
(8.67289 0.194194 -1.50186e-06)
(8.67289 0.194193 -1.45964e-06)
(8.67289 0.194193 -1.37733e-06)
(8.67289 0.194192 -1.26053e-06)
(8.67289 0.194192 -1.11138e-06)
(8.67289 0.194192 -9.38941e-07)
(8.67289 0.194191 -7.45464e-07)
(8.67289 0.194191 -5.43967e-07)
(8.67289 0.194191 -3.53884e-07)
(8.67289 0.194191 -1.97946e-07)
(8.67286 0.19419 -8.71089e-08)
(8.67904 0.0885297 -2.06332e-07)
(8.67908 0.08853 -5.7201e-07)
(8.67908 0.0885299 -9.20033e-07)
(8.67908 0.0885298 -1.2515e-06)
(8.67908 0.0885296 -1.54992e-06)
(8.67908 0.0885293 -1.81262e-06)
(8.67908 0.0885291 -2.03215e-06)
(8.67908 0.0885288 -2.20431e-06)
(8.67908 0.0885285 -2.32495e-06)
(8.67908 0.0885282 -2.38981e-06)
(8.67908 0.0885279 -2.39762e-06)
(8.67908 0.0885276 -2.34738e-06)
(8.67908 0.0885273 -2.24103e-06)
(8.67908 0.088527 -2.07803e-06)
(8.67908 0.0885268 -1.86609e-06)
(8.67908 0.0885265 -1.59984e-06)
(8.67908 0.0885263 -1.29726e-06)
(8.67908 0.0885261 -9.51022e-07)
(8.67908 0.0885259 -5.84005e-07)
(8.67905 0.0885255 -2.02279e-07)
(8.63345 0.0775868 -1.77644e-07)
(8.63348 0.0775869 -5.4082e-07)
(8.63348 0.0775866 -8.73192e-07)
(8.63348 0.0775861 -1.18401e-06)
(8.63348 0.0775855 -1.44577e-06)
(8.63348 0.0775848 -1.66103e-06)
(8.63348 0.077584 -1.8227e-06)
(8.63348 0.0775832 -1.93105e-06)
(8.63348 0.0775823 -1.98576e-06)
(8.63348 0.0775814 -1.98814e-06)
(8.63348 0.0775805 -1.94174e-06)
(8.63348 0.0775796 -1.84844e-06)
(8.63348 0.0775788 -1.71405e-06)
(8.63348 0.0775781 -1.54285e-06)
(8.63348 0.0775774 -1.34304e-06)
(8.63348 0.0775768 -1.12154e-06)
(8.63349 0.0775763 -8.84083e-07)
(8.63349 0.0775758 -6.44215e-07)
(8.63349 0.0775755 -3.81088e-07)
(8.63345 0.077575 -1.32888e-07)
(8.63914 0.00470352 -3.38842e-07)
(8.63917 0.00470334 -9.7321e-07)
(8.63917 0.00470291 -1.58753e-06)
(8.63917 0.00470229 -2.15566e-06)
(8.63917 0.0047015 -2.65703e-06)
(8.63917 0.00470056 -3.07917e-06)
(8.63917 0.00469952 -3.414e-06)
(8.63917 0.0046984 -3.65735e-06)
(8.63917 0.00469723 -3.80886e-06)
(8.63917 0.00469604 -3.86836e-06)
(8.63917 0.00469488 -3.83953e-06)
(8.63917 0.00469375 -3.72586e-06)
(8.63917 0.00469269 -3.53265e-06)
(8.63917 0.00469171 -3.26715e-06)
(8.63917 0.00469084 -2.93784e-06)
(8.63917 0.00469008 -2.55363e-06)
(8.63917 0.00468944 -2.10792e-06)
(8.63917 0.00468894 -1.60623e-06)
(8.63918 0.00468857 -9.96401e-07)
(8.63914 0.00468839 -3.17028e-07)
(8.63589 -0.0211496 -3.62943e-07)
(8.63592 -0.0211495 -1.0863e-06)
(8.63592 -0.0211492 -1.76399e-06)
(8.63592 -0.0211488 -2.38115e-06)
(8.63592 -0.0211482 -2.91055e-06)
(8.63592 -0.0211475 -3.34139e-06)
(8.63592 -0.0211467 -3.66515e-06)
(8.63592 -0.0211459 -3.88024e-06)
(8.63592 -0.021145 -3.98818e-06)
(8.63592 -0.0211441 -3.99282e-06)
(8.63592 -0.0211433 -3.90103e-06)
(8.63593 -0.0211424 -3.71976e-06)
(8.63593 -0.0211417 -3.4594e-06)
(8.63593 -0.021141 -3.13125e-06)
(8.63593 -0.0211404 -2.74796e-06)
(8.63593 -0.0211398 -2.32935e-06)
(8.63593 -0.0211394 -1.87183e-06)
(8.63593 -0.0211391 -1.3998e-06)
(8.63593 -0.0211389 -8.34389e-07)
(8.6359 -0.0211386 -2.58615e-07)
(8.65246 -0.0757648 -1.98057e-07)
(8.65249 -0.0757649 -5.87488e-07)
(8.65249 -0.0757643 -9.58763e-07)
(8.65249 -0.0757635 -1.30325e-06)
(8.65249 -0.0757625 -1.60768e-06)
(8.65249 -0.0757613 -1.86662e-06)
(8.65249 -0.07576 -2.07653e-06)
(8.65249 -0.0757586 -2.23864e-06)
(8.65249 -0.0757572 -2.35187e-06)
(8.65249 -0.0757559 -2.41751e-06)
(8.65249 -0.0757546 -2.4355e-06)
(8.65249 -0.0757534 -2.40504e-06)
(8.65248 -0.0757524 -2.32533e-06)
(8.65248 -0.0757515 -2.19538e-06)
(8.65248 -0.0757507 -2.01416e-06)
(8.65248 -0.0757501 -1.79002e-06)
(8.65248 -0.0757497 -1.50131e-06)
(8.65248 -0.0757493 -1.17426e-06)
(8.65248 -0.0757491 -7.03808e-07)
(8.65245 -0.0757487 -2.00634e-07)
(8.68585 -0.108984 -1.4392e-07)
(8.68588 -0.108984 -4.01397e-07)
(8.68588 -0.108984 -6.49425e-07)
(8.68588 -0.108984 -8.87527e-07)
(8.68588 -0.108984 -1.10724e-06)
(8.68588 -0.108984 -1.3054e-06)
(8.68588 -0.108983 -1.47951e-06)
(8.68588 -0.108983 -1.62796e-06)
(8.68588 -0.108983 -1.75038e-06)
(8.68588 -0.108983 -1.84223e-06)
(8.68588 -0.108982 -1.90048e-06)
(8.68588 -0.108982 -1.91854e-06)
(8.68588 -0.108982 -1.89068e-06)
(8.68588 -0.108981 -1.81229e-06)
(8.68588 -0.108981 -1.67909e-06)
(8.68588 -0.108981 -1.50103e-06)
(8.68587 -0.10898 -1.25427e-06)
(8.68587 -0.10898 -9.85504e-07)
(8.68587 -0.10898 -5.71823e-07)
(8.68584 -0.108979 -1.35603e-07)
(8.71198 -0.182698 -1.49085e-07)
(8.71201 -0.182699 -4.8646e-07)
(8.71201 -0.182699 -7.88121e-07)
(8.71201 -0.182699 -1.06773e-06)
(8.71201 -0.182699 -1.31071e-06)
(8.71201 -0.182699 -1.51797e-06)
(8.71201 -0.182699 -1.68358e-06)
(8.71201 -0.182699 -1.81049e-06)
(8.71201 -0.182699 -1.89696e-06)
(8.71201 -0.182699 -1.94351e-06)
(8.71201 -0.182699 -1.94953e-06)
(8.71201 -0.1827 -1.91405e-06)
(8.71201 -0.1827 -1.83632e-06)
(8.71201 -0.1827 -1.71533e-06)
(8.71201 -0.1827 -1.55344e-06)
(8.712 -0.1827 -1.35819e-06)
(8.712 -0.182701 -1.11468e-06)
(8.712 -0.182701 -8.666e-07)
(8.712 -0.182701 -4.88365e-07)
(8.71197 -0.1827 -1.31899e-07)
(8.7936 -0.203437 -1.6911e-07)
(8.79363 -0.203438 -4.3104e-07)
(8.79363 -0.203438 -6.96971e-07)
(8.79363 -0.203438 -9.60041e-07)
(8.79363 -0.203438 -1.21368e-06)
(8.79363 -0.203437 -1.45248e-06)
(8.79363 -0.203437 -1.67219e-06)
(8.79363 -0.203437 -1.86704e-06)
(8.79363 -0.203437 -2.03298e-06)
(8.79363 -0.203436 -2.16268e-06)
(8.79363 -0.203436 -2.24993e-06)
(8.79362 -0.203436 -2.28688e-06)
(8.79362 -0.203435 -2.26659e-06)
(8.79362 -0.203435 -2.18318e-06)
(8.79362 -0.203435 -2.03148e-06)
(8.79362 -0.203435 -1.8202e-06)
(8.79362 -0.203434 -1.52399e-06)
(8.79362 -0.203434 -1.19483e-06)
(8.79362 -0.203434 -7.33592e-07)
(8.79359 -0.203433 -1.93316e-07)
(8.81467 -0.334554 -9.11808e-08)
(8.8147 -0.334555 -3.79994e-07)
(8.8147 -0.334555 -6.02811e-07)
(8.8147 -0.334555 -8.18302e-07)
(8.8147 -0.334555 -9.99423e-07)
(8.8147 -0.334555 -1.15711e-06)
(8.8147 -0.334555 -1.28333e-06)
(8.8147 -0.334555 -1.37719e-06)
(8.8147 -0.334555 -1.43727e-06)
(8.8147 -0.334555 -1.46215e-06)
(8.8147 -0.334555 -1.45299e-06)
(8.8147 -0.334555 -1.41049e-06)
(8.81469 -0.334555 -1.33754e-06)
(8.81469 -0.334555 -1.2359e-06)
(8.81469 -0.334555 -1.11256e-06)
(8.81469 -0.334555 -9.71047e-07)
(8.81469 -0.334556 -7.95634e-07)
(8.81469 -0.334556 -6.34579e-07)
(8.81469 -0.334556 -3.86967e-07)
(8.81466 -0.334555 -1.49992e-07)
(8.9566 -0.336231 -1.67883e-07)
(8.95663 -0.336232 -4.04642e-07)
(8.95663 -0.336232 -6.3675e-07)
(8.95663 -0.336232 -8.91148e-07)
(8.95663 -0.336232 -1.14826e-06)
(8.95663 -0.336231 -1.40555e-06)
(8.95663 -0.336231 -1.65367e-06)
(8.95663 -0.336231 -1.88532e-06)
(8.95663 -0.33623 -2.09214e-06)
(8.95663 -0.33623 -2.26448e-06)
(8.95663 -0.336229 -2.39463e-06)
(8.95663 -0.336229 -2.47376e-06)
(8.95663 -0.336228 -2.49407e-06)
(8.95662 -0.336228 -2.44816e-06)
(8.95662 -0.336227 -2.32949e-06)
(8.95662 -0.336227 -2.13244e-06)
(8.95662 -0.336227 -1.83612e-06)
(8.95662 -0.336227 -1.46477e-06)
(8.95662 -0.336226 -9.23042e-07)
(8.95659 -0.336225 -2.69359e-07)
(8.95601 -0.557248 -5.44561e-08)
(8.95604 -0.55725 -3.00089e-07)
(8.95604 -0.55725 -3.88809e-07)
(8.95604 -0.55725 -4.95598e-07)
(8.95604 -0.557249 -5.69615e-07)
(8.95604 -0.557249 -6.4315e-07)
(8.95604 -0.557249 -6.95111e-07)
(8.95604 -0.557248 -7.28547e-07)
(8.95603 -0.557248 -7.40778e-07)
(8.95603 -0.557248 -7.32458e-07)
(8.95603 -0.557247 -7.07456e-07)
(8.95603 -0.557247 -6.70521e-07)
(8.95603 -0.557247 -6.28697e-07)
(8.95603 -0.557247 -5.81888e-07)
(8.95603 -0.557247 -5.3801e-07)
(8.95603 -0.557247 -4.96729e-07)
(8.95603 -0.557247 -4.00033e-07)
(8.95603 -0.557247 -2.67025e-07)
(8.95603 -0.557247 -1.05838e-07)
(8.956 -0.557245 -8.91779e-08)
(9.11409 -0.541458 -8.90393e-08)
(9.11413 -0.541461 -2.52712e-07)
(9.11413 -0.541461 -3.07164e-07)
(9.11413 -0.541461 -4.8879e-07)
(9.11413 -0.541461 -6.52443e-07)
(9.11412 -0.541461 -8.62109e-07)
(9.11412 -0.541462 -1.08606e-06)
(9.11412 -0.541462 -1.32456e-06)
(9.11412 -0.541462 -1.5646e-06)
(9.11412 -0.541462 -1.79309e-06)
(9.11412 -0.541463 -2.00237e-06)
(9.11412 -0.541463 -2.18264e-06)
(9.11412 -0.541463 -2.31124e-06)
(9.11412 -0.541463 -2.37225e-06)
(9.11412 -0.541463 -2.35394e-06)
(9.11411 -0.541463 -2.23981e-06)
(9.11411 -0.541463 -1.98993e-06)
(9.11411 -0.541463 -1.6552e-06)
(9.11411 -0.541463 -1.05753e-06)
(9.11408 -0.541461 -3.88659e-07)
(9.07487 -0.914113 -1.21318e-07)
(9.0749 -0.914116 -4.88732e-07)
(9.0749 -0.914115 -5.83315e-07)
(9.0749 -0.914114 -7.85212e-07)
(9.0749 -0.914111 -8.91839e-07)
(9.0749 -0.914109 -1.00404e-06)
(9.0749 -0.914106 -1.07088e-06)
(9.0749 -0.914103 -1.10634e-06)
(9.0749 -0.9141 -1.10775e-06)
(9.0749 -0.914097 -1.07568e-06)
(9.0749 -0.914093 -1.0202e-06)
(9.0749 -0.91409 -9.45263e-07)
(9.0749 -0.914088 -8.56552e-07)
(9.0749 -0.914085 -7.60314e-07)
(9.0749 -0.914083 -6.60146e-07)
(9.0749 -0.914081 -5.75132e-07)
(9.0749 -0.91408 -4.25681e-07)
(9.0749 -0.914078 -3.6134e-07)
(9.0749 -0.914078 -7.96952e-08)
(9.07487 -0.914073 -3.49584e-08)
(8.9844 -0.863055 3.28e-07)
(8.98443 -0.863058 8.80838e-07)
(8.98443 -0.863057 2.00145e-06)
(8.98443 -0.863055 2.60926e-06)
(8.98443 -0.863053 3.2087e-06)
(8.98443 -0.86305 3.595e-06)
(8.98443 -0.863047 3.83824e-06)
(8.98443 -0.863044 3.89979e-06)
(8.98443 -0.863041 3.79695e-06)
(8.98443 -0.863038 3.53897e-06)
(8.98443 -0.863036 3.14058e-06)
(8.98443 -0.863034 2.6308e-06)
(8.98443 -0.863032 2.05175e-06)
(8.98442 -0.86303 1.462e-06)
(8.98442 -0.863029 9.12931e-07)
(8.98442 -0.863029 4.26216e-07)
(8.98442 -0.863028 1.28956e-07)
(8.98442 -0.863028 -1.90611e-07)
(8.98442 -0.863028 3.36291e-08)
(8.98439 -0.863025 -8.83429e-08)
(8.88542 0.71619 3.42773e-07)
(8.88545 0.716192 6.91483e-07)
(8.88545 0.716191 1.48501e-06)
(8.88545 0.716189 1.96342e-06)
(8.88545 0.716187 2.45936e-06)
(8.88545 0.716185 2.79568e-06)
(8.88546 0.716182 3.04051e-06)
(8.88546 0.716179 3.16637e-06)
(8.88546 0.716176 3.19926e-06)
(8.88546 0.716173 3.13548e-06)
(8.88546 0.71617 2.99406e-06)
(8.88546 0.716167 2.79347e-06)
(8.88547 0.716164 2.54631e-06)
(8.88547 0.716162 2.27052e-06)
(8.88547 0.71616 1.96159e-06)
(8.88547 0.716158 1.65085e-06)
(8.88547 0.716157 1.32731e-06)
(8.88547 0.716155 9.14402e-07)
(8.88547 0.716155 6.94213e-07)
(8.88544 0.716151 2.96802e-08)
(8.74317 0.729226 -3.07849e-07)
(8.74321 0.729229 -6.24744e-07)
(8.7432 0.729228 -8.73134e-07)
(8.7432 0.729227 -1.16493e-06)
(8.7432 0.729226 -1.38667e-06)
(8.7432 0.729224 -1.5958e-06)
(8.7432 0.729223 -1.75044e-06)
(8.7432 0.729221 -1.86275e-06)
(8.7432 0.729219 -1.92335e-06)
(8.7432 0.729217 -1.93526e-06)
(8.7432 0.729215 -1.89685e-06)
(8.7432 0.729214 -1.81052e-06)
(8.74319 0.729212 -1.68257e-06)
(8.74319 0.72921 -1.51366e-06)
(8.74319 0.729209 -1.32505e-06)
(8.74319 0.729208 -1.11067e-06)
(8.74319 0.729207 -8.91373e-07)
(8.74319 0.729206 -6.9112e-07)
(8.74319 0.729206 -4.60069e-07)
(8.74316 0.729202 -1.49137e-07)
(8.78016 0.434591 -1.49982e-07)
(8.78019 0.434593 -3.80258e-08)
(8.78019 0.434593 8.42275e-08)
(8.78019 0.434593 1.34146e-07)
(8.78019 0.434593 1.86778e-07)
(8.78019 0.434593 1.76402e-07)
(8.78019 0.434593 1.41576e-07)
(8.78019 0.434593 7.6005e-08)
(8.78019 0.434593 -3.29978e-09)
(8.78019 0.434593 -8.63762e-08)
(8.78019 0.434593 -1.60213e-07)
(8.78019 0.434594 -2.15206e-07)
(8.78019 0.434594 -2.46736e-07)
(8.78019 0.434594 -2.42544e-07)
(8.78019 0.434594 -2.21967e-07)
(8.78019 0.434594 -1.50037e-07)
(8.78019 0.434594 -8.34623e-08)
(8.78019 0.434595 -1.12404e-08)
(8.78019 0.434595 3.52672e-09)
(8.78015 0.434593 3.32121e-08)
(8.66284 0.435842 -1.90628e-07)
(8.66287 0.435843 -5.01046e-07)
(8.66287 0.435843 -7.62064e-07)
(8.66287 0.435843 -1.01643e-06)
(8.66287 0.435842 -1.22307e-06)
(8.66287 0.435842 -1.40323e-06)
(8.66287 0.435841 -1.53934e-06)
(8.66287 0.43584 -1.63334e-06)
(8.66287 0.43584 -1.68025e-06)
(8.66287 0.435839 -1.6798e-06)
(8.66287 0.435838 -1.6312e-06)
(8.66287 0.435837 -1.53667e-06)
(8.66287 0.435837 -1.40189e-06)
(8.66286 0.435836 -1.22915e-06)
(8.66286 0.435836 -1.02978e-06)
(8.66286 0.435835 -7.97663e-07)
(8.66286 0.435835 -5.48482e-07)
(8.66286 0.435835 -3.02447e-07)
(8.66286 0.435834 -1.2869e-07)
(8.66283 0.435833 -5.03005e-08)
(8.67957 0.245128 -1.53192e-07)
(8.6796 0.245129 -3.11194e-07)
(8.6796 0.245129 -4.51472e-07)
(8.6796 0.245129 -5.98003e-07)
(8.6796 0.245129 -7.34369e-07)
(8.6796 0.245129 -8.76295e-07)
(8.6796 0.245129 -1.00964e-06)
(8.6796 0.245129 -1.13213e-06)
(8.6796 0.24513 -1.23191e-06)
(8.6796 0.24513 -1.30009e-06)
(8.6796 0.24513 -1.32991e-06)
(8.6796 0.24513 -1.31576e-06)
(8.6796 0.24513 -1.25752e-06)
(8.6796 0.24513 -1.14799e-06)
(8.6796 0.24513 -1.00053e-06)
(8.6796 0.24513 -7.86124e-07)
(8.6796 0.24513 -5.56414e-07)
(8.6796 0.24513 -3.06087e-07)