/*--------------------------------*- C++ -*----------------------------------*\
| =========                 |                                                 |
| \\      /  F ield         | OpenFOAM: The Open Source CFD Toolbox           |
|  \\    /   O peration     | Version:  2212                                  |
|   \\  /    A nd           | Website:  www.openfoam.com                      |
|    \\/     M anipulation  |                                                 |
\*---------------------------------------------------------------------------*/
FoamFile
{
    version     2.0;
    format      ascii;
    arch        "LSB;label=32;scalar=64";
    class       volVectorField;
    location    "0.0017";
    object      U;
}
// * * * * * * * * * * * * * * * * * * * * * * * * * * * * * * * * * * * * * //

dimensions      [0 1 -1 0 0 0 0];

internalField   nonuniform List<vector> 
7220
(
(83.6352 -24.9581 -3.88688e-17)
(1.13549 2.05323 2.25909e-17)
(1.13157 1.94758 1.1311e-17)
(1.09789 1.81139 1.40021e-17)
(1.08585 2.06992 -2.21463e-17)
(1.08444 1.94523 -2.2411e-21)
(-1.11978 1.66835 0)
(-1.07895 1.56421 2.30871e-17)
(-1.09607 1.6584 0)
(-1.08084 1.66229 0)
(101.005 -32.3297 -7.06672e-19)
(175.033 -64.2933 -2.07668e-16)
(1.37189 81.6993 1.06673e-17)
(-48.1466 -2.20241 1.54946e-16)
(68.8047 0.742385 1.58202e-16)
(108.57 -134.386 1.0189e-16)
(-45.97 74.7148 0)
(0.0230476 -61.2862 -4.17737e-16)
(-32.9937 70.9681 3.89794e-17)
(48.6674 -57.3312 -2.0908e-16)
(4.80081 78.7642 4.45028e-17)
(-5.13662 77.7152 2.90563e-16)
(0.642428 1.44603 1.67332e-16)
(11.1375 77.0648 2.23135e-16)
(-12.7788 -35.8326 1.5781e-16)
(-36.9976 51.8444 -3.33468e-16)
(351.118 -278.231 1.67814e-17)
(-48.6659 -40.4447 1.47024e-16)
(12.8458 79.0558 -4.36177e-17)
(-14.9057 94.526 7.37984e-17)
(5.32755 -14.0314 9.44229e-17)
(-8.14249 93.9294 -2.14773e-17)
(1.64932 2.1721 4.02611e-16)
(-16.8282 92.6105 -4.00684e-17)
(1.56571 -42.9489 -1.73372e-16)
(-35.4992 3.0355 -3.13792e-16)
(1.21963 1.85798 5.6032e-18)
(100.795 -33.4927 0)
(100.43 -29.6635 -6.09114e-21)
(-6.22666 65.9036 -1.15706e-21)
(-6.23177 59.5725 -4.64019e-21)
(6.22328 59.5674 -2.93891e-19)
(6.22154 65.8994 2.63503e-19)
(15.7741 5.25375 -7.66017e-17)
(15.1904 4.93276 -3.08933e-16)
(2.39606 4.98997 -5.78182e-17)
(1.99779 5.12965 1.1845e-17)
(3.41986 5.30309 -1.09633e-16)
(-6.23567 53.1162 5.91447e-19)
(-6.24042 46.6485 -5.85231e-19)
(6.22148 46.6401 -5.52568e-19)
(6.22334 53.1095 6.00526e-19)
(-6.24792 40.2901 6.0368e-19)
(-6.25665 34.1685 -1.7989e-18)
(6.21752 34.1606 6.1105e-19)
(6.21989 40.2816 -6.39804e-19)
(-6.26587 28.4138 -2.01688e-20)
(-6.27524 23.1571 2.39963e-18)
(6.20998 23.1527 1.20436e-18)
(6.21431 28.4075 -6.0388e-19)
(-6.28507 18.5224 -1.19146e-18)
(-6.29555 14.6161 1.20938e-18)
(6.19795 14.616 -6.12054e-19)
(6.20447 18.5201 -1.20149e-18)
(-6.30632 11.5037 -1.19969e-18)
(-6.31706 9.17765 0)
(6.18258 9.18211 1.20201e-18)
(6.19057 11.506 -9.91693e-21)
(-6.32747 7.55237 0)
(-6.33766 6.49453 -1.13366e-19)
(6.16776 6.49943 3.77437e-20)
(6.17446 7.558 1.88746e-20)
(-6.34843 5.85754 2.57338e-18)
(-6.36412 5.50572 3.05888e-19)
(6.1535 5.50739 -2.26832e-18)
(6.16143 5.8606 2.26868e-18)
(-6.38917 5.32806 1.39376e-21)
(-6.4477 5.24762 -1.21874e-17)
(6.0905 5.25214 3.64127e-18)
(6.13288 5.3297 6.0613e-19)
(-6.56908 5.22118 9.75726e-18)
(-6.79999 5.20999 -2.94776e-17)
(5.79798 5.21575 9.77123e-18)
(6.00302 5.2226 6.74054e-22)
(4.65098 5.23027 -1.2512e-20)
(5.35223 5.21967 -9.82999e-18)
(-7.23023 5.21566 9.98527e-18)
(-7.87976 5.24913 2.30264e-17)
(-8.77384 5.22645 3.96434e-17)
(17.1843 5.20614 3.8409e-17)
(-6.22202 72.0024 0)
(6.2198 71.9995 3.72868e-20)
(18.6485 59.5673 -9.28546e-21)
(18.6425 65.9023 9.26717e-21)
(16.1057 4.92344 -1.96434e-17)
(3.146 4.90445 2.48915e-20)
(-9.72376 5.17803 2.18348e-17)
(-9.68646 5.15611 4.29456e-17)
(-19.6717 5.24845 -1.0018e-17)
(-19.0928 5.22563 6.12872e-18)
(-19.3187 5.22523 -1.23418e-18)
(-18.8775 5.32515 0)
(-18.9511 5.24863 0)
(-18.8251 5.85349 0)
(-18.8426 5.50274 -6.06289e-19)
(-18.7989 7.54631 0)
(-18.811 6.48946 7.55555e-20)
(-18.7736 11.4989 -1.21013e-18)
(-18.7866 9.17167 1.20288e-18)
(-18.7459 18.5215 -6.01818e-19)
(-18.7599 14.6131 0)
(-18.718 28.4171 -1.21665e-18)
(-18.7319 23.1581 1.20027e-18)
(-18.6918 40.2983 -6.01737e-19)
(-18.7043 34.1743 6.03424e-19)
(-18.6669 53.1282 9.29019e-21)
(-18.6796 46.659 6.15754e-19)
(-18.647 65.9153 0)
(-18.6553 59.5847 4.63604e-21)
(18.6578 46.6359 8.19065e-23)
(18.6536 53.1067 0)
(18.6628 34.1554 -1.86742e-20)
(18.6607 40.2767 3.72783e-20)
(18.665 23.1491 -4.68562e-21)
(18.6643 28.403 0)
(18.6623 14.6157 1.1749e-21)
(18.6642 18.5179 0)
(18.6536 9.18606 -6.01048e-19)
(18.6587 11.5078 6.09506e-19)
(18.6412 6.50463 -1.20542e-18)
(18.6476 7.56339 1.19016e-18)
(18.6332 5.50736 1.5101e-19)
(18.6371 5.86379 -4.72691e-21)
(18.5908 5.24903 1.20961e-18)
(18.6226 5.32727 -6.044e-19)
(18.3388 5.20848 1.93646e-17)
(18.519 5.21912 -4.85011e-18)
(17.9397 5.19996 1.92587e-17)
(-20.2083 5.27775 5.17379e-20)
(-18.6388 72.0132 0)
(18.6357 72.0047 0)
(27.7767 4.94567 -8.35867e-17)
(29.1575 5.13502 9.23874e-18)
(16.6361 4.70064 0)
(-9.50023 4.95051 -2.5924e-20)
(-20.8967 5.25641 -1.03878e-17)
(-21.6098 5.18874 1.05329e-17)
(-32.5429 5.28233 2.98373e-20)
(27.5137 5.13137 0)
(-21.819 5.11078 1.04249e-17)
(-33.102 5.16764 1.03168e-17)
(-31.6314 5.29333 7.47718e-18)
(-32.0319 5.31474 -1.51599e-17)
(-31.1411 5.23636 0)
(-31.3397 5.25433 -2.47782e-18)
(-30.9403 5.31938 -1.22079e-18)
(-31.0106 5.2518 2.45653e-18)
(-30.8793 5.84735 3.03777e-19)
(-30.9015 5.49619 0)
(-30.8522 7.53947 6.05605e-19)
(-30.8649 6.48363 -3.00886e-19)
(-30.8252 11.4906 0)
(-30.8394 9.16368 -3.78491e-20)
(-30.7929 18.5147 3.5253e-21)
(-30.8097 14.6053 0)
(-30.7577 28.4134 -2.97238e-19)
(-30.7751 23.1529 -9.41146e-21)
(-30.7223 40.3004 5.82125e-19)
(-30.7405 34.1731 3.0185e-19)
(-30.6889 53.1374 5.70615e-19)
(-30.7054 46.6641 -6.20607e-19)
(-30.6571 65.9302 2.36748e-18)
(-30.6725 59.5979 -1.77663e-18)
(-18.631 77.7846 0)
(-30.6279 77.7989 0)
(-30.6431 72.0285 -1.19436e-18)
(6.21928 77.7744 1.78098e-20)
(-6.21945 77.7759 3.10917e-19)
(30.6384 72.0152 0)
(30.6271 77.7908 -7.36415e-20)
(18.6277 77.7797 1.10662e-19)
(30.6603 59.5725 3.0315e-19)
(30.6493 65.9108 -3.08295e-19)
(30.6802 46.6346 3.80334e-20)
(30.6706 53.1082 0)
(30.6969 34.151 -3.7492e-20)
(30.6891 40.2733 -7.39187e-20)
(30.7102 23.1449 0)
(30.7039 28.3983 0)
(30.7172 14.6143 -4.71778e-21)
(30.7149 18.5147 0)
(30.7143 9.18989 -2.36325e-21)
(30.717 11.5089 -4.70339e-21)
(30.7036 6.51054 0)
(30.7091 7.56899 0)
(30.6957 5.50794 -1.05574e-18)
(30.6996 5.86779 1.21338e-18)
(30.6584 5.24768 4.82514e-18)
(30.6854 5.32607 0)
(30.4105 5.2174 -1.9173e-17)
(30.5905 5.22505 -6.66682e-21)
(30.0036 5.21061 2.27513e-21)
(29.0365 4.64498 -3.83376e-17)
(28.4504 4.93804 5.57425e-17)
(40.0416 5.01986 1.80082e-17)
(40.6624 5.13028 1.62863e-17)
(-18.6248 83.1559 -3.68398e-20)
(-30.6135 83.167 3.67634e-20)
(41.7888 72.0254 5.96985e-19)
(41.7705 77.8016 -5.48561e-19)
(3.69431 4.70648 4.03036e-17)
(29.4844 4.24769 2.92363e-17)
(17.0469 4.32415 -9.85756e-18)
(-21.8998 4.94734 3.07543e-17)
(-43.3097 5.27301 -3.05119e-17)
(41.179 4.14111 1.45135e-17)
(40.7758 4.54237 0)
(-33.4253 5.03085 1.02482e-17)
(39.9735 4.97819 2.02597e-17)
(-43.7526 5.12672 1.01908e-17)
(-42.6355 5.32437 0)
(-42.9331 5.33001 -1.0134e-17)
(-42.261 5.25727 7.40242e-18)
(-42.4044 5.28218 2.08768e-20)
(-42.1147 5.32133 2.43489e-18)
(-42.1844 5.264 -3.67047e-18)
(-42.0712 5.84172 3.04423e-19)
(-42.0897 5.49234 -1.82286e-18)
(-42.0452 7.53122 6.04886e-19)
(-42.058 6.47673 -6.04521e-19)
(-42.0177 11.4791 0)
(-42.0323 9.15364 -2.65325e-19)
(-41.9825 18.5021 3.01166e-19)
(-42.0011 14.593 -2.99778e-19)
(-41.9403 28.4031 3.11795e-19)
(-41.9621 23.1411 -2.84117e-19)
(-41.8967 40.2946 3.2032e-19)
(-41.9183 34.1644 -2.77851e-19)
(-41.855 53.1399 -3.19465e-19)
(-41.8754 46.6622 2.95338e-19)
(-41.815 65.9414 2.32337e-20)
(-41.835 59.6051 0)
(-41.7734 77.8126 -1.26646e-18)
(-41.7946 72.0422 1.17359e-18)
(6.21639 83.1494 -7.41271e-20)
(-6.21607 83.1498 -2.96547e-19)
(30.6142 83.1625 -7.37897e-20)
(18.6229 83.1533 -2.92021e-19)
(41.8202 59.5771 0)
(41.8049 65.9187 -5.87172e-19)
(41.8502 46.6325 -1.47595e-19)
(41.835 53.1094 1.50243e-19)
(41.8801 34.1442 3.78982e-20)
(41.8656 40.2683 3.69036e-20)
(41.9053 23.1374 9.45068e-20)
(41.8935 28.3906 0)
(41.9222 14.6104 4.69649e-21)
(41.9151 18.5084 -7.47111e-20)
(41.9247 9.1923 -7.11948e-21)
(41.9257 11.5081 -9.46556e-21)
(41.916 6.51583 0)
(41.9206 7.57382 -9.47576e-21)
(41.9081 5.50851 -7.53975e-19)
(41.9124 5.87125 6.04484e-19)
(41.8703 5.24131 1.20467e-18)
(41.8982 5.32379 1.20613e-18)
(41.6416 5.20938 0)
(41.8045 5.21971 -7.22984e-18)
(41.2923 5.19219 1.18543e-17)
(40.3124 4.84298 -1.8488e-17)
(-41.7521 83.1769 0)
(41.7504 83.1711 1.8373e-18)
(-9.18124 4.78019 -3.86267e-20)
(29.8748 3.72242 -1.49167e-17)
(41.4976 3.58259 -1.48143e-17)
(4.14553 4.31329 9.94775e-18)
(-44.0877 4.94912 3.05109e-17)
(50.9131 4.98773 9.29563e-18)
(51.1645 5.09868 -1.98274e-17)
(50.914 4.91513 -3.46932e-18)
(-33.6913 4.8507 -2.03772e-17)
(-51.8239 77.8216 1.30743e-19)
(-51.7892 83.1815 1.19048e-18)
(30.6012 88.0841 3.6967e-20)
(41.7259 88.0872 -1.25821e-18)
(-21.9337 4.77703 -3.86332e-20)
(17.4688 3.83991 0)
(41.7239 2.86245 -1.53019e-17)
(30.2588 3.01615 5.10165e-18)
(52.0392 0.526934 -4.78665e-17)
(52.2288 1.7221 -2.20778e-17)
(41.8712 1.95765 7.55733e-19)
(-8.8456 4.2604 -4.98233e-17)
(-53.616 4.87572 1.0124e-17)
(-52.9989 5.25389 -1.01144e-17)
(-53.3386 5.08028 1.01107e-17)
(-52.5255 5.34688 1.49547e-17)
(-52.7351 5.33827 -9.44586e-20)
(-52.2793 5.27992 0)
(-52.3862 5.30762 -9.90045e-18)
(-52.2013 5.33447 -6.02912e-19)
(-52.2336 5.28319 -1.22148e-18)
(-52.1725 5.83976 -1.52498e-19)
(-52.1835 5.49573 6.07767e-19)
(-52.1558 7.5233 -1.51069e-19)
(-52.165 6.47162 0)
(-52.1293 11.4658 -1.51682e-19)
(-52.1438 9.14284 2.26391e-19)
(-52.0912 18.4858 -1.50472e-19)
(-52.1118 14.5778 1.50071e-19)
(-52.043 28.3873 -1.42079e-19)
(-52.068 23.1245 1.39865e-19)
(-51.9903 40.283 0)
(-52.0168 34.1503 -1.86627e-20)
(-51.9362 53.1368 3.00586e-19)
(-51.9632 46.6544 -2.95614e-19)
(-51.8829 65.9474 1.1319e-18)
(-51.9097 59.6068 -5.51686e-19)
(-51.8547 72.0511 -1.76777e-18)
(-41.7296 88.0892 1.10533e-19)
(-18.6196 88.0803 -2.92848e-19)
(-30.5983 88.0864 5.47075e-19)
(6.21226 88.0769 1.09055e-19)
(-6.21184 88.0769 -2.90405e-19)
(18.6178 88.0795 3.69155e-19)
(51.7852 83.1741 -6.31667e-19)
(51.8461 72.0322 -4.64923e-21)
(51.8181 77.8081 5.49341e-19)
(51.8932 59.58 0)
(51.8705 65.9241 0)
(51.9379 46.6284 -1.50668e-19)
(51.9159 53.1089 0)
(51.9803 34.1349 3.64294e-20)
(51.9593 40.2613 1.65852e-20)
(52.0186 23.1269 -2.34612e-20)
(52.0004 28.3801 3.72072e-20)
(52.0452 14.6042 4.68662e-21)
(52.034 18.4994 -6.12347e-23)
(52.0518 9.19399 9.40751e-21)
(52.0511 11.5058 2.83805e-20)
(52.0463 6.51937 7.59934e-20)
(52.0491 7.57769 9.41148e-21)
(52.0412 5.50656 -1.21142e-18)
(52.0444 5.87257 0)
(52.0076 5.22657 -2.41971e-18)
(52.0336 5.3159 6.02994e-19)
(51.8111 5.18633 4.81085e-18)
(51.9419 5.203 4.78845e-18)
(51.5517 5.14944 -1.78206e-17)
(51.4101 4.42572 9.49489e-18)
(51.0869 4.74166 -1.40726e-17)
(52.0383 3.39677 -7.31522e-18)
(51.7479 3.99359 -2.39146e-18)
(52.2302 2.61463 1.50832e-17)
(-44.3348 4.69733 1.00298e-17)
(-51.7479 88.0843 -7.33715e-20)
(51.7463 88.0812 0)
(60.2513 4.95036 -9.36438e-18)
(60.2989 5.05512 -4.74588e-18)
(60.2756 4.83944 1.05656e-17)
(61.0428 1.23175 1.55448e-16)
(-33.9417 4.68829 4.18909e-17)
(4.69457 3.92117 0)
(18.0643 3.08402 -2.0446e-17)
(42.0979 0.826033 4.65998e-17)
(-21.7196 4.28221 -1.24619e-16)
(62.2643 -0.936146 0)
(-61.8743 4.809 -2.01273e-17)
(30.6276 2.13571 -2.15706e-17)
(-53.8408 4.56433 -2.00035e-17)
(-62.1032 4.45891 5.70448e-20)
(52.7961 -0.971364 2.29546e-19)
(-61.4421 5.23315 0)
(-61.6839 5.03835 -6.87164e-20)
(-61.1399 5.36862 -9.86625e-18)
(-61.2673 5.34412 9.89728e-18)
(-61.0011 5.31251 2.44957e-18)
(-61.0565 5.33777 9.81594e-18)
(-60.9724 5.3544 -6.12103e-19)
(-60.9892 5.3113 -2.44425e-18)
(-60.9649 5.84306 1.51001e-19)
(-60.9686 5.50555 6.11947e-19)
(-60.9562 7.51673 0)
(-60.9617 6.46937 0)
(-60.9331 11.452 -7.5334e-20)
(-60.9468 9.1325 1.13497e-19)
(-60.8935 18.4668 -5.86614e-22)
(-60.9154 14.561 8.54719e-20)
(-60.839 28.3676 0)
(-60.8678 23.1045 4.68471e-21)
(-60.7756 40.2669 7.41879e-20)
(-60.8079 34.132 0)
(-60.7086 53.1273 3.70929e-20)
(-60.7425 46.6413 -5.66633e-20)
(-60.6372 65.945 2.99625e-19)
(-60.6737 59.601 -2.94433e-19)
(-60.5551 77.8185 -6.34295e-19)
(-60.5983 72.0501 6.01983e-19)
(-60.4416 88.0602 1.17275e-18)
(-60.5043 83.1715 -3.72024e-20)
(-60.3609 92.469 -1.11313e-18)
(-41.7014 92.5376 0)
(-51.6955 92.5168 1.09566e-18)
(-18.6122 92.5457 5.86365e-19)
(-30.5813 92.5449 -5.90557e-19)
(6.21013 92.5458 -1.49686e-19)
(-6.21 92.5456 2.58458e-19)
(30.5847 92.5444 0)
(18.6109 92.5459 0)
(51.6964 92.5164 -6.21017e-19)
(41.6969 92.5381 -5.46724e-19)
(60.3608 92.4672 1.1781e-18)
(60.5032 83.161 6.5066e-19)
(60.4414 88.0548 -5.8592e-19)
(60.5919 72.0293 5.92086e-19)
(60.5516 77.8021 -1.18373e-18)
(60.6603 59.5763 0)
(60.6277 65.9216 3.73695e-20)
(60.7213 46.6196 0)
(60.6914 53.1029 0)
(60.7785 34.1213 0)
(60.7503 40.2499 1.8618e-20)
(60.8292 23.1124 3.73602e-20)
(60.8053 28.3653 -3.78968e-20)
(60.8637 14.5955 1.89383e-20)
(60.8492 18.487 -1.89876e-20)
(60.8741 9.19429 -3.7479e-20)
(60.8716 11.502 3.84836e-20)
(60.8741 6.52035 -7.51901e-20)
(60.8741 7.57949 1.52517e-22)
(60.8743 5.49961 6.77021e-19)
(60.8748 5.87065 -3.78055e-20)
(60.8435 5.2117 -1.79414e-19)
(60.8693 5.30113 7.5576e-20)
(60.6863 5.14685 -4.77942e-18)
(60.7779 5.17882 0)
(60.4999 5.10132 9.51564e-18)
(60.6534 4.30131 -4.77938e-18)
(60.3965 4.64263 4.7305e-18)
(61.2313 3.20183 2.16058e-17)
(60.9536 3.8386 -3.58883e-18)
(61.3451 2.41104 -1.93612e-17)
(-53.8335 4.20894 1.25662e-20)
(-44.284 4.39403 -2.61124e-20)
(-8.39621 3.89957 -4.72912e-18)
(-62.1833 4.03817 0)
(68.0456 4.90852 -4.76043e-18)
(68.0072 5.01645 -2.42412e-18)
(68.0917 4.75479 4.75997e-18)
(-67.7655 88.0088 0)
(-67.6487 92.3862 1.17411e-18)
(51.6277 96.5018 4.33841e-20)
(60.2511 96.4179 -6.27925e-19)
(5.62138 3.04067 -6.19839e-17)
(18.694 2.25233 4.20382e-17)
(30.953 0.98519 1.87254e-17)
(63.4314 -3.16394 0)
(71.2392 -3.53188 2.78397e-19)
(72.3921 -6.08375 4.08788e-17)
(64.2861 -5.56431 4.15236e-17)
(-54.2245 3.6904 1.95289e-17)
(-33.6499 4.2171 -1.17691e-16)
(42.5982 -0.638017 -1.09037e-17)
(-21.0332 3.70537 -1.56315e-17)
(-62.6347 3.44481 1.15749e-19)
(53.8304 -2.80166 8.25038e-17)
(-69.2704 3.85235 5.01377e-18)
(-68.8925 4.7498 2.01468e-17)
(-69.1183 4.35535 -1.00513e-17)
(-68.6208 5.21432 4.97517e-18)
(-68.7747 5.00779 -1.02919e-19)
(-68.4415 5.39671 7.39349e-18)
(-68.5099 5.3482 -4.9523e-18)
(-68.3822 5.35302 2.44901e-18)
(-68.4042 5.37512 -4.91346e-18)
(-68.3902 5.37946 1.82637e-18)
(-68.3867 5.34572 -1.22531e-18)
(-68.4043 5.85131 0)
(-68.3999 5.52256 -6.04441e-19)
(-68.404 7.51262 -3.82539e-20)
(-68.4061 6.47077 0)
(-68.385 11.4384 -1.13519e-19)
(-68.3971 9.12335 1.1756e-22)
(-68.3442 18.4462 7.48927e-20)
(-68.3673 14.5434 -8.59832e-21)
(-68.2842 28.3447 -4.74513e-21)
(-68.3162 23.0821 0)
(-68.2118 40.2463 0)
(-68.2493 34.1098 -9.47023e-21)
(-68.131 53.1108 0)
(-68.1723 46.6228 -1.85938e-20)
(-68.0406 65.9311 1.49736e-19)
(-68.0872 59.5864 -1.847e-19)
(-67.928 77.7984 5.97712e-19)
(-67.9886 72.0348 2.60996e-22)
(-67.8555 83.1403 -5.6022e-19)
(-60.2516 96.4173 7.40491e-20)
(-41.6608 96.5459 5.78469e-19)
(-51.6262 96.5004 -1.76535e-18)
(-18.6008 96.5778 -3.12506e-19)
(-30.5603 96.5679 2.28521e-20)
(6.21015 96.5819 2.29772e-21)
(-6.21039 96.582 7.31093e-20)
(30.5628 96.5684 -4.56596e-21)
(18.5997 96.5781 -1.40875e-19)
(41.6574 96.5474 5.89464e-19)
(67.6469 92.3828 -5.93722e-19)
(67.8523 83.1273 5.68277e-19)
(67.7634 88.0012 -8.16128e-21)
(67.9812 72.0138 -5.75105e-19)
(67.9229 77.7804 2.98902e-19)
(68.0759 59.5636 1.87646e-20)
(68.0314 65.9086 2.57765e-19)
(68.1561 46.6041 -1.88484e-20)
(68.1171 53.0892 0)
(68.2284 34.1023 -1.89309e-20)
(68.1935 40.2322 0)
(68.2898 23.0943 7.5996e-20)
(68.2606 28.346 0)
(68.3311 14.5852 2.27057e-19)
(68.314 18.4718 -1.32316e-19)
(68.3461 9.1923 0)
(68.3411 11.4967 -1.69641e-19)
(68.3524 6.5181 0)
(68.3492 7.57833 -3.82055e-20)
(68.3589 5.48776 -6.09999e-19)
(68.3559 5.8642 -3.055e-19)
(68.3249 5.19335 3.00451e-18)
(68.3542 5.28461 0)
(68.2194 5.10232 0)
(68.2768 5.14592 -6.03263e-19)
(68.0832 5.05646 -2.39862e-18)
(68.4509 4.1444 4.74181e-18)
(68.2136 4.52661 -4.73966e-18)
(69.0274 2.86376 7.14221e-18)
(68.7409 3.61536 -1.19608e-18)
(69.2442 0.597425 -2.13311e-17)
(69.1991 1.85105 4.62724e-18)
(69.7887 -1.43436 -5.0857e-17)
(-44.4525 3.86882 -1.8393e-17)
(-69.7244 3.15872 -2.52423e-17)
(-67.4922 96.2884 -2.43229e-18)
(67.4916 96.2875 6.23319e-19)
(74.4051 4.97068 2.37014e-18)
(74.4729 4.84758 1.26896e-21)
(-63.3755 2.60107 2.00481e-17)
(-55.0906 2.89782 1.94426e-17)
(-7.35043 3.20094 -4.24042e-17)
(6.56171 2.3096 4.30394e-17)
(19.1462 1.07688 -9.37506e-20)
(31.3857 -0.48874 -3.19066e-17)
(73.3512 -8.98138 2.40874e-18)
(65.034 -8.41249 -4.24439e-19)
(87.5427 -29.2128 -1.07071e-16)
(54.6448 -5.1806 -3.61001e-19)
(-8.58107 -14.9179 0)
(43.2872 -2.58472 3.65924e-17)
(-70.3624 2.19141 0)
(-76.2 1.70941 -5.11242e-18)
(-75.1739 3.63394 5.06492e-18)
(-75.6224 2.82844 2.01603e-17)
(-74.7667 4.69842 -4.93206e-18)
(-74.9702 4.23432 -1.01319e-17)
(-74.6099 5.20064 -2.47906e-18)
(-74.6937 4.99313 -3.45487e-20)
(-74.5186 5.42306 0)
(-74.5501 5.35351 2.46846e-18)
(-74.5209 5.39621 0)
(-74.5184 5.41892 0)
(-74.5602 5.41007 -6.04944e-19)
(-74.5402 5.38372 1.22107e-18)
(-74.5928 5.86464 3.33484e-20)
(-74.5794 5.54647 1.15414e-19)
(-74.603 7.51116 3.7768e-20)
(-74.6004 6.47638 4.76296e-21)
(-74.5887 11.4253 3.11858e-22)
(-74.5992 9.11597 -1.87306e-20)
(-74.547 18.4241 1.17537e-21)
(-74.5713 14.5252 4.29037e-20)
(-74.4806 28.319 4.68472e-21)
(-74.5166 23.0574 0)
(-74.3962 40.2214 -7.58999e-20)
(-74.4402 34.0842 8.40021e-20)
(-74.2978 53.0868 -7.55986e-20)
(-74.3489 46.5986 7.42808e-20)
(-74.1786 65.904 -1.13516e-19)
(-74.2419 59.5615 1.47939e-19)
(-74.0216 77.7559 3.09132e-19)
(-74.1061 72.0026 -3.13389e-19)
(-73.7881 87.9243 -1.05563e-20)
(-73.9177 83.0816 -5.93524e-19)
(-73.4079 96.1075 -7.44643e-20)
(-73.6233 92.2622 5.95322e-19)
(-73.123 99.5 -1.10187e-18)
(-60.0996 99.9504 0)
(-67.2816 99.7572 1.69497e-18)
(-41.6021 100.164 -5.88269e-19)
(-51.5287 100.084 5.89087e-19)
(-18.5846 100.231 1.63574e-19)
(-30.529 100.208 -1.82372e-20)
(6.20778 100.24 -7.26208e-20)
(-6.20718 100.24 -3.66839e-20)
(30.5308 100.209 -4.57755e-21)
(18.5831 100.231 1.4848e-21)
(51.5289 100.085 1.17223e-18)
(41.5996 100.166 4.55811e-21)
(67.2812 99.7576 -4.256e-20)
(60.0993 99.9517 0)
(73.1259 99.4974 3.6568e-20)
(73.626 92.2547 5.94842e-19)
(73.4112 96.103 -5.5213e-20)
(73.9165 83.0659 2.9476e-19)
(73.7893 87.9129 -8.81283e-19)
(74.1014 71.9813 1.1289e-19)
(74.0185 77.7367 0)
(74.2333 59.5402 4.60002e-20)
(74.1718 65.8824 -2.22823e-19)
(74.3382 46.5816 1.8609e-20)
(74.2884 53.0667 0)
(74.4279 34.0784 -7.48986e-20)
(74.3844 40.2091 7.58634e-20)
(74.5018 23.0725 9.40554e-20)
(74.4675 28.3222 -7.60841e-20)
(74.5501 14.5726 1.696e-19)
(74.5298 18.454 -1.52369e-19)
(74.57 9.1876 -1.51398e-19)
(74.5626 11.4889 1.52364e-19)
(74.5817 6.51284 3.04216e-19)
(74.5764 7.57465 3.77225e-20)
(74.5916 5.47234 6.02592e-19)
(74.5874 5.85537 -1.91905e-21)
(74.5656 5.17294 1.21054e-18)
(74.589 5.27012 0)
(74.4913 5.06115 -1.20665e-18)
(74.5388 5.11466 -3.17681e-23)
(74.4092 5.01678 4.85062e-18)
(74.9177 3.94028 -1.19713e-18)
(74.5456 4.65404 1.71536e-21)
(74.6837 4.3858 2.39988e-18)
(75.5069 2.42901 -1.4178e-18)
(75.2028 3.32176 1.49329e-18)
(76.1001 -0.17404 2.71359e-17)
(75.7812 1.31641 1.2525e-18)
(77.9695 -4.20084 -1.38035e-17)
(76.8276 -1.93649 1.79537e-17)
(80.2651 -9.70863 1.58887e-17)
(79.1698 -6.78481 1.43125e-17)
(82.7559 -20.74 3.37914e-17)
(82.1099 -16.6255 -4.48657e-18)
(74.1972 -12.2806 2.36782e-17)
(81.2776 -12.9776 -1.88238e-17)
(-45.4893 3.084 3.66723e-17)
(-1.70365 -1.39327 3.96399e-16)
(-71.1798 0.839879 2.05544e-17)
(-76.9562 0.235965 0)
(-5.1717 2.14938 -2.35436e-17)
(1.14167 1.82974 -1.13188e-17)
(-77.9365 95.8481 7.33949e-20)
(-77.5477 99.1476 -1.17808e-18)
(66.9971 102.847 -5.90169e-19)
(72.7514 102.49 5.49765e-19)
(7.1346 1.1078 -9.59418e-20)
(74.9552 -15.9843 -2.84917e-17)
(19.4992 -0.414896 -2.13783e-17)
(65.7056 -11.6911 -4.87744e-19)
(55.3148 -8.02409 -8.02463e-17)
(31.8592 -2.42448 2.63178e-17)
(43.9364 -4.96088 -4.13276e-17)
(-1.09352 1.29936 0)
(-6.96156 -16.1233 8.95913e-17)
(-5.88499 -17.0528 0)
(-7.27873 -22.5282 -8.77395e-17)
(-28.2614 36.1658 -2.98644e-16)
(-2.89886 -18.6652 -6.20098e-17)
(-64.3312 1.34299 -2.78165e-18)
(-56.3008 1.72607 -3.05378e-17)
(-2.07583 -6.75456 1.49123e-16)
(-65.375 -0.241951 2.61077e-18)
(89.3974 -20.8213 0)
(88.2978 -17.4292 -4.57225e-18)
(-27.0682 2.05071 7.1944e-17)
(-37.4585 2.06732 8.5431e-17)
(-72.1677 -0.860013 1.05148e-17)
(-1.92944 -3.65521 -1.85892e-16)
(-77.9082 -1.58796 -2.35529e-17)
(-20.5693 34.3587 3.09398e-16)
(-73.2585 -2.93932 1.59171e-17)
(-78.9933 -3.80266 -7.92801e-18)
(-1.13334 0.800461 0)
(-87.583 -12.973 6.1203e-18)
(-80.1733 -6.27462 2.69982e-17)
(-85.1084 -7.46126 -2.14426e-17)
(-86.5197 -10.0345 -5.75256e-18)
(-82.6568 -2.44529 -1.25436e-19)
(-83.7778 -4.80508 0)
(-80.9406 1.15255 5.07174e-18)
(-81.6957 -0.466075 -5.15438e-18)
(-79.9131 3.385 -1.00042e-17)
(-80.3617 2.43177 -5.01095e-18)
(-79.4856 4.63373 2.41507e-21)
(-79.6743 4.09025 1.74163e-17)
(-79.3887 5.21222 -2.49403e-18)
(-79.4216 4.9781 -2.48028e-18)
(-79.3827 5.45652 0)
(-79.3806 5.37408 0)
(-79.439 5.44315 0)
(-79.4081 5.46867 1.23529e-18)
(-79.5077 5.44735 0)
(-79.4736 5.42666 -6.06618e-19)
(-79.5583 5.8848 6.66704e-20)
(-79.5362 5.57606 -2.18766e-19)
(-79.5813 7.51384 -7.60555e-20)
(-79.5733 6.48736 -3.79177e-20)
(-79.573 11.413 0)
(-79.5814 9.11128 4.78832e-20)
(-79.529 18.3995 -7.58939e-20)
(-79.5555 14.5063 3.30812e-20)
(-79.4511 28.2876 -4.05194e-20)
(-79.4939 23.0287 7.57747e-20)
(-79.3466 40.187 -4.74643e-21)
(-79.4017 34.0511 0)
(-79.2167 53.0484 2.76823e-20)
(-79.2853 46.5627 4.73565e-21)
(-79.0511 65.8543 -7.39785e-20)
(-79.1394 59.519 -1.89297e-20)
(-78.8231 77.6764 2.76743e-19)
(-78.9478 71.941 7.52133e-20)
(-78.4756 87.7862 1.37199e-20)
(-78.6679 82.9775 -2.94821e-19)
(-78.2387 92.0738 0)
(-72.7494 102.492 1.10962e-18)
(-59.8887 103.124 5.88565e-19)
(-66.9974 102.847 -1.1387e-18)
(-41.5131 103.454 -3.65353e-20)
(-51.386 103.325 1.361e-20)
(-18.5581 103.57 -2.19021e-19)
(-30.4814 103.529 1.82841e-20)
(6.2018 103.587 1.09491e-19)
(-6.20109 103.587 -1.35808e-20)
(30.4816 103.531 1.82845e-20)
(18.5574 103.57 2.1448e-19)
(51.3857 103.326 -5.78679e-19)
(41.5124 103.455 -2.73697e-20)
(59.8878 103.125 0)
(77.5494 99.1422 -3.72687e-20)
(78.2403 92.0629 3.02623e-19)
(77.9382 95.8406 1.83318e-20)
(78.6668 82.9603 1.87107e-20)
(78.4766 87.7715 -2.99136e-19)
(78.9445 71.9201 -1.29208e-19)
(78.8205 77.657 1.49973e-19)
(79.135 59.4985 1.72392e-20)
(79.0474 65.8331 -7.53576e-20)
(79.2805 46.5463 9.33372e-20)
(79.2117 53.0292 -1.48409e-21)
(79.3979 34.0459 1.87227e-20)
(79.3425 40.1751 0)
(79.4905 23.0456 -1.71402e-19)
(79.4475 28.2919 0)
(79.5493 14.5572 -1.31946e-19)
(79.5247 18.4324 3.03403e-19)
(79.5779 9.18009 0)
(79.5661 11.4787 -3.83333e-20)
(79.5956 6.50517 3.04879e-19)
(79.5872 7.56848 -3.83783e-20)
(79.6091 5.45708 -3.09203e-19)
(79.6034 5.84546 -6.08428e-19)
(79.5984 5.15099 0)
(79.6106 5.25483 0)
(79.5396 5.02438 -1.81837e-18)
(79.5775 5.09081 6.06333e-19)
(79.5332 4.91473 -2.41668e-18)
(79.5092 4.97941 1.28395e-18)
(79.7146 4.53897 2.41632e-18)
(79.619 4.76808 6.09839e-19)
(80.1089 3.69303 0)
(79.8704 4.21699 0)
(80.7577 1.96037 -4.72962e-18)
(80.4069 2.96841 -2.41433e-18)
(81.7285 -0.897738 0)
(81.1664 0.724207 -6.97304e-18)
(83.5885 -5.01962 -2.29806e-18)
(82.5378 -2.66846 0)
(85.9977 -10.5805 5.88801e-19)
(84.7739 -7.63877 0)
(87.1867 -13.8223 -4.66224e-18)
(-4.90494 -11.2964 1.32837e-19)
(-4.0645 -11.6548 -8.45397e-17)
(-4.59563 -17.1365 -1.41839e-16)
(-47.2151 1.98049 0)
(-16.4035 2.02745 -2.55651e-17)
(-3.5582 -7.20213 -1.75428e-16)
(-67.616 -44.1194 -1.44764e-16)
(37.3467 -31.7472 -3.0306e-16)
(81.2731 -29.0557 8.14247e-17)
(-77.0545 102.026 1.1855e-18)
(77.0554 102.022 7.38193e-20)
(-9.58508 -20.021 -1.85974e-16)
(-57.4596 0.231464 1.04447e-17)
(-38.7082 0.796263 0)
(-28.043 0.956616 0)
(-4.79211 1.10825 1.12865e-17)
(75.5989 -19.9358 0)
(-7.53623 -28.4168 0)
(-66.4231 -2.21877 1.0472e-17)
(92.6796 -18.2712 0)
(93.4951 -21.7531 3.72916e-17)
(90.3813 -26.1766 0)
(7.39842 -0.393401 -4.31698e-17)
(66.2187 -15.3798 -3.91546e-17)
(55.8505 -11.3074 4.02169e-17)
(-74.3934 -5.33792 -1.60673e-17)
(44.5407 57.2355 -9.05006e-17)
(19.801 -2.34878 0)
(-46.4636 -13.4992 -2.06311e-19)
(-81.4353 -8.97712 1.64366e-17)
(-12.2976 -25.5473 7.21099e-17)
(32.3084 -4.81458 -3.22853e-19)
(44.4456 -7.81889 0)
(-1.73288 -1.75924 1.95094e-16)
(-2.63339 -4.01763 -1.8065e-16)
(81.3893 -32.8342 1.34562e-20)
(-5.71575 -10.5037 -9.11286e-17)
(-4.2052 -6.59995 4.10918e-19)
(1.17154 1.94843 5.70173e-18)
(-88.6998 -8.67858 -3.6274e-17)
(-89.7088 -12.0891 2.04594e-16)
(-86.4404 -3.41066 -2.09032e-20)
(-87.5528 -5.89712 1.03508e-17)
(-84.5997 0.505485 5.07899e-18)
(-85.4255 -1.27423 -5.11373e-18)
(-83.4629 3.08152 -2.50487e-18)
(-83.9578 1.96361 2.50939e-18)
(-82.9857 4.54697 1.24073e-18)
(-83.1756 3.91204 -2.48787e-18)
(-82.9075 5.23964 2.44603e-18)
(-82.9166 4.95731 -1.23545e-18)
(-82.9767 5.50658 -6.14069e-19)
(-82.9385 5.41454 6.1505e-19)
(-83.0854 5.5007 0)
(-83.0298 5.52545 -1.83487e-18)
(-83.1873 5.49372 0)
(-83.1383 5.47849 -3.08486e-19)
(-83.2597 5.91197 -7.6359e-20)
(-83.2276 5.61307 1.14336e-19)
(-83.2979 7.52193 0)
(-83.2832 6.50468 1.93426e-20)
(-83.2958 11.4016 0)
(-83.3025 9.10963 4.6614e-21)
(-83.2458 18.3702 -2.99516e-22)
(-83.2769 14.4856 2.39953e-21)
(-83.1497 28.246 4.05648e-20)
(-83.2028 22.9924 -3.76789e-20)
(-83.0159 40.1381 7.05878e-21)
(-83.0876 34.0057 -2.38276e-21)
(-82.8398 52.9888 9.31934e-21)
(-82.934 46.5094 -4.67049e-21)
(-82.6008 65.7722 -9.30481e-20)
(-82.7301 59.4501 1.85361e-20)
(-82.2582 77.549 0)
(-82.4459 71.8402 7.53529e-20)
(-81.7506 87.5786 -2.94712e-19)
(-82.0287 82.8144 2.95503e-19)
(-81.0082 95.4866 6.15053e-19)
(-81.4173 91.8014 -5.92969e-19)
(-79.8779 101.433 -5.57708e-19)
(-80.5 98.678 5.53132e-19)
(-79.1296 103.813 5.90253e-19)
(-72.2674 105.138 0)
(-76.4402 104.54 0)
(-59.5981 105.99 -8.5217e-19)
(-66.6195 105.609 5.80128e-19)
(-41.3812 106.473 -1.81789e-20)
(-51.1807 106.278 -1.63906e-19)
(-18.5186 106.66 3.68704e-20)
(-30.4059 106.593 1.82639e-20)
(6.18995 106.688 -5.23914e-20)
(-6.18894 106.688 -1.79642e-20)
(30.4052 106.594 0)
(18.5181 106.66 -1.47879e-19)
(51.1801 106.279 1.36348e-19)
(41.3811 106.474 0)
(66.6195 105.609 -1.96265e-20)
(59.5964 105.991 3.01959e-19)
(76.4396 104.537 -6.24732e-19)
(72.2679 105.136 5.14612e-20)
(79.1283 103.809 6.30448e-19)
(80.5007 98.6706 6.26758e-19)
(79.8779 101.428 -1.25782e-18)
(81.4187 91.7877 -4.59581e-21)
(81.0095 95.4764 0)
(82.0298 82.7957 3.0653e-22)
(81.7516 87.5618 0)
(82.4456 71.8196 0)
(82.2586 77.529 0)
(82.7304 59.4296 -1.87363e-20)
(82.6006 65.7513 0)
(82.9366 46.4925 -1.86748e-20)
(82.841 52.9694 0)
(83.0933 34.0001 -1.90529e-20)
(83.0199 40.1257 9.50602e-21)
(83.2118 23.0102 1.52922e-19)
(83.1575 28.2502 -1.90918e-20)
(83.2877 14.5366 1.94783e-20)
(83.2553 18.4045 -1.51034e-19)
(83.3284 9.16882 2.65623e-19)
(83.311 11.4639 -2.68134e-19)
(83.356 6.49368 6.10197e-19)
(83.3433 7.55837 -2.67879e-19)
(83.3756 5.4442 6.00161e-19)
(83.3669 5.83175 -9.14853e-19)
(83.3743 5.13338 6.08696e-19)
(83.378 5.23847 -1.83651e-18)
(83.3384 4.9978 -6.10886e-18)
(83.3597 5.06495 1.21531e-18)
(83.3796 4.85214 -1.21342e-18)
(83.3391 4.94039 -3.60335e-18)
(83.5893 4.40401 6.11238e-19)
(83.4739 4.6762 9.1673e-21)
(84.0254 3.4083 4.8349e-18)
(83.7672 4.01121 -2.42077e-18)
(84.7734 1.45644 4.79483e-18)
(84.3602 2.5664 -6.03804e-18)
(86.048 -1.62858 -9.49894e-18)
(85.3005 0.0812447 -1.16757e-18)
(87.9651 -5.95667 -2.35885e-18)
(86.9276 -3.56747 9.5146e-18)
(90.4018 -11.5765 1.90209e-17)
(89.1639 -8.60122 0)
(91.606 -14.7848 -1.90168e-17)
(-12.6672 -14.8563 0)
(-10.4232 -18.0196 0)
(-93.5639 -16.0067 2.25907e-16)
(-1.77332 -4.30165 2.63441e-16)
(-3.38537 -10.9632 -7.29873e-17)
(-48.5019 0.565899 0)
(-16.6272 1.08386 0)
(-6.46081 -9.05244 2.8523e-16)
(74.5532 -28.288 -4.21508e-17)
(75.1241 -24.0183 3.95286e-17)
(-15.9314 -15.9297 -2.25283e-16)
(-5.86793 -4.81473 1.61572e-16)
(-1.11812 1.2361 0)
(-58.4594 -1.65612 -1.05102e-17)
(95.7552 -19.1367 0)
(96.5554 -22.5906 -1.9301e-17)
(94.4413 -25.7871 -4.34728e-19)
(-4.71341 -0.424444 2.79437e-18)
(-39.424 -0.927569 0)
(-28.516 -0.698087 0)
(-9.52912 -12.6708 -1.66375e-16)
(66.4517 -19.34 -1.95391e-17)
(1.17211 2.03825 1.1568e-21)
(-81.3054 100.607 -5.95586e-19)
(-80.4571 102.856 0)
(75.6909 106.742 6.09111e-19)
(78.2496 105.875 3.72957e-20)
(56.2069 -15.01 0)
(-4.32393 -40.9334 -1.82241e-16)
(-67.4957 -4.55574 -8.8728e-20)
(92.3087 -28.9452 -2.22929e-17)
(-1.10524 0.911482 -2.59178e-17)
(1.18146 1.8436 -5.64385e-18)
(1.24133 1.7492 3.3226e-17)
(1.3111 1.65999 -7.52739e-22)
(-5.87733 -2.1234 -4.89228e-17)
(7.52488 -2.32472 1.54002e-19)
(-15.9257 11.1354 0)
(-12.7628 10.4851 -1.56684e-16)
(-13.837 -12.4226 1.79476e-16)
(-4.25184 -41.6235 4.4852e-17)
(-19.2117 11.626 0)
(-21.0066 16.633 5.634e-19)
(-75.605 -8.07164 -2.14403e-17)
(87.8748 -32.7855 6.52836e-17)
(1.59222 -0.185447 2.06393e-17)
(1.43827 1.10115 0)
(1.50996 1.32018 -2.07005e-17)
(1.76585 0.199694 -2.17684e-17)
(13.3089 -14.7598 6.77003e-19)
(20.0687 -4.74909 2.04917e-17)
(44.8138 -11.1251 -4.03131e-17)
(-82.9428 -11.9547 -2.38212e-19)
(-1.39198 -0.275406 -1.04268e-16)
(32.6731 -7.69216 4.07899e-17)
(-9.29454 9.88365 -6.1223e-19)
(-7.01594 12.0842 3.19287e-16)
(-13.957 14.4557 1.58849e-16)
(-89.2641 -16.2511 -1.31209e-16)
(-1.95309 -1.75429 9.64512e-17)
(-10.7208 13.2089 -3.19545e-16)
(-3.00772 -3.60553 8.81909e-17)
(-4.45251 -5.59948 0)
(74.0626 -32.6906 -1.00387e-17)
(1.20604 1.95323 -5.71118e-18)