/*--------------------------------*- C++ -*----------------------------------*\
| =========                 |                                                 |
| \\      /  F ield         | OpenFOAM: The Open Source CFD Toolbox           |
|  \\    /   O peration     | Version:  2212                                  |
|   \\  /    A nd           | Website:  www.openfoam.com                      |
|    \\/     M anipulation  |                                                 |
\*---------------------------------------------------------------------------*/
FoamFile
{
    version     2.0;
    format      ascii;
    arch        "LSB;label=32;scalar=64";
    class       volScalarField;
    location    "0.000324";
    object      p;
}
// * * * * * * * * * * * * * * * * * * * * * * * * * * * * * * * * * * * * * //

dimensions      [1 -1 -2 0 0 0 0];

internalField   nonuniform List<scalar> 
26145
(
10.3715
8.33554
8.83621
9.15817
9.47585
9.75805
10.0264
10.2691
10.4934
10.7016
10.8929
11.0655
11.2218
11.3644
11.496
11.6241
11.7573
11.8956
12.0302
12.155
12.269
12.3744
12.4742
12.5699
12.6623
12.7502
12.8347
12.9154
12.993
13.0654
13.1283
13.1833
13.236
13.2859
13.3327
13.3756
13.4131
13.4446
13.4725
13.4993
13.5262
13.5543
13.5846
13.6188
13.6574
13.7017
13.7531
13.8123
13.8808
13.9636
14.0702
14.2098
14.3938
14.6374
14.9561
15.3378
15.7839
16.3181
16.9125
17.6145
18.3308
19.0152
19.687
20.0486
20.1322
19.925
19.2209
18.0601
16.0431
13.937
10.3281
8.56257
11.4137
8.79977
8.95558
9.24246
9.53158
9.79868
10.0561
10.2926
10.5117
10.7157
10.9047
11.0759
11.2313
11.3732
11.5046
11.6323
11.7646
11.902
12.0359
12.1602
12.274
12.3793
12.4788
12.5742
12.6664
12.7542
12.8383
12.9186
12.9962
13.0678
13.1302
13.186
13.2387
13.2884
13.3349
13.3774
13.4143
13.4452
13.4725
13.4987
13.5249
13.552
13.5814
13.6146
13.6527
13.697
13.7487
13.8086
13.8782
13.9622
14.0695
14.2098
14.3974
14.6457
14.9668
15.3526
15.8056
16.3544
16.9539
17.6582
18.3883
19.005
19.6291
19.9439
19.9808
19.8011
19.3002
18.5668
17.5196
16.6199
15.4008
13.1983
11.6842
8.94662
9.01866
9.31472
9.59204
9.85332
10.1031
10.3327
10.5456
10.7449
10.9309
11.1004
11.2549
11.3963
11.5275
11.6551
11.7867
11.9229
12.0558
12.1795
12.2927
12.3975
12.4964
12.5911
12.6826
12.7696
12.8527
12.9322
13.0097
13.0785
13.1398
13.1962
13.2486
13.2974
13.3427
13.3839
13.4196
13.4499
13.4771
13.5032
13.5291
13.5559
13.5849
13.6175
13.6547
13.698
13.7484
13.8076
13.8771
13.9618
14.0697
14.2095
14.3977
14.6497
14.9794
15.3695
15.816
16.3575
16.9512
17.6478
18.3734
18.9506
19.4951
19.6843
19.662
19.5043
19.1496
18.4895
18.0312
17.5477
16.9817
15.9939
12.0472
9.14222
9.15698
9.43148
9.68974
9.93934
10.1795
10.4036
10.6126
10.8078
10.9901
11.1577
11.3112
11.4524
11.5837
11.7115
11.8428
11.9785
12.1109
12.2341
12.3469
12.451
12.549
12.6426
12.7326
12.8177
12.8982
12.9775
13.0516
13.1164
13.1754
13.2303
13.2803
13.3264
13.3688
13.4075
13.4413
13.4703
13.4963
13.5208
13.5451
13.5701
13.597
13.6268
13.6619
13.704
13.7537
13.8122
13.8811
13.9656
14.0736
14.2137
14.3976
14.6497
14.9798
15.3671
15.8084
16.3447
16.9259
17.6024
18.3332
18.8255
19.3226
19.4096
19.3935
19.2675
18.9793
18.4355
18.0243
17.5046
17.0932
16.3966
12.3748
9.33091
9.33046
9.57864
9.82533
10.0713
10.3089
10.5318
10.7396
10.9339
11.1139
11.2799
11.433
11.5747
11.7071
11.8359
11.968
12.1045
12.2376
12.361
12.4736
12.5769
12.6737
12.7654
12.8529
12.9338
13.0103
13.0878
13.1545
13.2137
13.2677
13.3171
13.3616
13.4019
13.4388
13.4723
13.5014
13.5261
13.5481
13.5685
13.5885
13.609
13.6311
13.6568
13.6887
13.7278
13.7744
13.8299
13.8963
13.979
14.0856
14.2234
14.4006
14.6469
14.9743
15.3535
15.7806
16.2978
16.857
17.4945
18.2493
18.6261
19.1156
19.1313
19.1082
18.9837
18.7161
18.2126
17.8727
17.3764
17.0261
16.4135
12.7106
9.54043
9.54181
9.79358
10.0327
10.2793
10.5176
10.744
10.9563
11.1563
11.3434
11.5159
11.6747
11.8214
11.9587
12.0919
12.2274
12.3663
12.5013
12.6254
12.7376
12.8396
12.9339
13.0219
13.1047
13.1776
13.2488
13.3182
13.3728
13.4222
13.4658
13.5042
13.5374
13.5667
13.5928
13.6156
13.6345
13.6501
13.6636
13.6758
13.6873
13.6993
13.7132
13.7315
13.756
13.7876
13.8268
13.8748
13.9347
14.0116
14.1124
14.2398
14.4088
14.6416
14.9579
15.3202
15.72
16.1922
16.761
17.3254
18.1386
18.4159
18.8895
18.8875
18.8544
18.7174
18.4327
17.8984
17.5491
17.1219
16.8376
16.3306
13.0578
9.80065
9.81247
10.0837
10.3364
10.601
10.8588
11.1066
11.3403
11.5623
11.7709
11.9636
12.1405
12.3032
12.454
12.5996
12.746
12.8945
13.0356
13.1629
13.2757
13.3751
13.4639
13.544
13.6175
13.675
13.7379
13.7879
13.8203
13.8499
13.8724
13.8877
13.8978
13.904
13.9068
13.9066
13.9046
13.9017
13.8985
13.895
13.8908
13.8874
13.8864
13.8883
13.8972
13.9138
13.9388
13.9711
14.0167
14.0803
14.165
14.2771
14.4328
14.6498
14.9546
15.2945
15.6802
16.1011
16.6804
17.1585
18.0032
18.2216
18.6719
18.6654
18.6212
18.4742
18.1742
17.621
17.2812
16.8302
16.5636
16.0994
13.474
10.1761
10.2365
10.5579
10.8493
11.1542
11.4501
11.7347
12.0045
12.2621
12.505
12.7291
12.9343
13.1225
13.2971
13.4657
13.6326
13.7987
13.9542
14.0916
14.209
14.308
14.3925
14.4651
14.5277
14.5627
14.6204
14.63
14.6396
14.6361
14.6281
14.6106
14.5857
14.5547
14.5195
14.4811
14.4417
14.4046
14.3698
14.3355
14.3008
14.2661
14.2316
14.2008
14.1781
14.1664
14.1648
14.1664
14.1762
14.2048
14.2687
14.3603
14.4929
14.6844
14.9664
15.2999
15.664
16.0438
16.6034
17.0183
17.8415
18.0433
18.4602
18.4514
18.4053
18.2627
17.9603
17.3994
17.0169
16.5161
16.2682
15.8331
14.1656
10.7889
10.8917
11.2894
11.6345
11.9988
12.3525
12.6936
13.0178
13.3282
13.6212
13.8909
14.1377
14.3638
14.5737
14.7727
14.9676
15.1624
15.3422
15.4965
15.623
15.7247
15.8073
15.8751
15.9217
15.9408
15.9643
15.9471
15.9183
15.8801
15.8283
15.7652
15.6926
15.6117
15.5241
15.4318
15.3387
15.2495
15.1653
15.0828
14.9998
14.9157
14.8301
14.7444
14.6633
14.5908
14.5307
14.4887
14.4701
14.4685
14.4792
14.5224
14.6176
14.7724
15.011
15.3216
15.6725
16.0371
16.5461
16.9253
17.6791
17.8761
18.2824
18.2739
18.2306
18.0967
17.8023
17.2519
16.8012
16.2432
15.9899
15.5561
15.1562
11.634
11.8074
12.2932
12.7052
13.1456
13.5732
13.9876
14.3773
14.7464
15.0893
15.4013
15.685
15.943
16.1813
16.4056
16.6266
16.8465
17.0478
17.2201
17.3616
17.4758
17.5683
17.6419
17.6892
17.7203
17.7096
17.6847
17.6366
17.5637
17.4733
17.3642
17.2355
17.0976
16.9515
16.7985
16.643
16.4916
16.3461
16.2019
16.0554
15.9056
15.751
15.5929
15.4375
15.291
15.1586
15.0456
14.9551
14.8882
14.8597
14.8582
14.8763
14.9529
15.1157
15.3799
15.7057
16.0508
16.5437
16.8844
17.5592
17.749
18.1393
18.1321
18.0944
17.9734
17.7035
17.1979
16.6555
16.0478
15.7666
15.2833
16.3616
12.6552
12.9205
13.4855
13.9551
14.4559
14.9323
15.3845
15.8108
16.214
16.5889
16.9354
17.2593
17.5598
17.833
18.0945
18.3534
18.6099
18.8435
19.0411
19.2003
19.3254
19.4247
19.4996
19.5553
19.5699
19.5405
19.4872
19.4153
19.3267
19.2273
19.1187
18.996
18.8486
18.6789
18.4905
18.2882
18.0774
17.8716
17.6664
17.4553
17.2358
17.0049
16.7638
16.5207
16.2848
16.0632
15.8626
15.6876
15.5404
15.4248
15.3455
15.332
15.3337
15.3744
15.5124
15.7868
16.103
16.5585
16.8948
17.5077
17.686
18.0444
18.0384
18.0066
17.9027
17.6662
17.2115
16.6028
15.9948
15.6276
15.1194
17.7565
13.7967
14.1109
14.6999
15.2016
15.7659
16.3138
16.8348
17.3174
17.7712
18.1903
18.5595
18.8763
19.1501
19.3968
19.6323
19.867
20.1009
20.3178
20.5089
20.6741
20.8171
20.9443
21.048
21.1655
21.2234
21.2496
21.2596
21.2501
21.1858
21.0874
20.9649
20.8146
20.6339
20.4296
20.2069
19.9772
19.775
19.5734
19.355
19.1146
18.848
18.5528
18.2404
17.9168
17.5924
17.2768
16.9801
16.7085
16.4632
16.2493
16.0777
15.9504
15.8903
15.8805
15.8901
15.9927
16.2237
16.6178
16.941
17.5161
17.6953
18.0521
18.0462
18.0155
17.9134
17.6825
17.2503
16.6153
16.0036
15.5658
15.0978
19.2977
15.0033
15.429
16.0513
16.5727
17.0947
17.5595
17.9798
18.3543
18.6929
18.9973
19.2712
19.5195
19.7444
19.9516
20.1509
20.353
20.5568
20.7509
20.9289
21.0906
21.2385
21.3771
21.4946
21.6422
21.7378
21.8239
21.8921
21.9445
21.9794
21.9988
22.0031
21.9962
21.9591
21.873
21.7726
21.6363
21.4473
21.2278
20.9913
20.7387
20.4683
20.1873
19.8779
19.5317
19.152
18.7705
18.3983
18.0421
17.7018
17.3821
17.0964
16.861
16.6848
16.5695
16.5334
16.5254
16.5688
16.7452
17.0711
17.5559
17.7353
18.0682
18.0625
18.0341
17.9405
17.7275
17.3376
16.6682
16.043
15.577
15.1129
20.7296
16.0209
16.3585
16.8044
17.1956
17.5867
17.9452
18.281
18.5871
18.8676
19.1256
19.3656
19.589
19.7953
19.9878
20.1747
20.3656
20.5596
20.7465
20.92
21.0794
21.2267
21.3658
21.4845
21.6366
21.7398
21.8401
21.9263
22.0026
22.069
22.124
22.1691
22.2049
22.2271
22.236
22.237
22.2336
22.2129
22.1634
22.0621
21.9529
21.8051
21.5927
21.3151
20.9937
20.6519
20.2977
19.9177
19.5333
19.1458
18.759
18.3854
18.0449
17.7573
17.5378
17.3764
17.2864
17.2408
17.2413
17.3535
17.641
17.8375
18.1221
18.1158
18.0881
18.0026
17.8084
17.4388
16.7898
16.142
15.6275
15.1682
21.335
16.2295
16.5333
16.8913
17.23
17.5696
17.8881
18.1831
18.4515
18.6992
18.9304
19.148
19.3518
19.5409
19.718
19.8903
20.0668
20.2469
20.4223
20.5878
20.7424
20.8874
21.0254
21.1452
21.3013
21.4159
21.5327
21.6377
21.7347
21.8232
21.9028
21.9739
22.0371
22.0925
22.1399
22.1775
22.2022
22.2132
22.2149
22.2144
22.2105
22.1965
22.1556
22.0401
21.9169
21.7402
21.4898
21.2054
20.8958
20.5601
20.1973
19.816
19.4333
19.0724
18.7595
18.5091
18.3129
18.1601
18.0498
17.9852
17.992
18.0674
18.2515
18.2466
18.2172
18.1342
17.951
17.5892
16.9938
16.3489
15.7518
15.2964
21.0682
15.9853
16.2579
16.569
16.8745
17.168
17.448
17.7083
17.9485
18.1723
18.3838
18.5855
18.7759
18.953
19.1193
19.2814
19.4477
19.6172
19.7837
19.9424
20.0924
20.2343
20.3704
20.491
20.6458
20.7684
20.895
21.0125
21.1234
21.2276
21.3255
21.4174
21.504
21.5851
21.6594
21.7255
21.7828
21.8333
21.8772
21.9148
21.9462
21.9695
21.984
21.9894
21.9902
21.9833
21.949
21.8598
21.6916
21.5209
21.3069
21.0517
20.76
20.4473
20.1362
19.8417
19.5825
19.3643
19.1562
18.9686
18.6987
18.61
18.5794
18.5372
18.4873
18.3847
18.1698
17.7873
17.1694
16.582
16.0131
15.5355
20.2968
15.3528
15.615
15.9139
16.1997
16.4668
16.7244
16.9624
17.1838
17.3942
17.5984
17.7948
17.9797
18.1517
18.3123
18.4687
18.6278
18.7905
18.9514
19.1058
19.2525
19.3918
19.524
19.6431
19.7907
19.9174
20.0462
20.1689
20.2856
20.3967
20.5027
20.6044
20.703
20.7985
20.8896
20.974
21.0496
21.1177
21.1816
21.2453
21.31
21.3753
21.4406
21.504
21.5606
21.6068
21.6409
21.6624
21.677
21.686
21.687
21.6774
21.6216
21.444
21.261
21.0733
20.87
20.6604
20.4635
20.2524
19.9633
19.6746
19.2764
19.1293
18.9822
18.7847
18.4582
17.9966
17.4124
16.8577
16.3076
15.824
19.3213
14.5785
14.8046
15.1113
15.3971
15.6643
15.921
16.1583
16.3791
16.586
16.7844
16.9767
17.1607
17.3333
17.4956
17.6535
17.8147
17.9783
18.1387
18.2918
18.4369
18.5748
18.7057
18.8227
18.9622
19.0883
19.2143
19.3346
19.4488
19.5579
19.6629
19.7642
19.8626
19.9582
20.0502
20.1378
20.2207
20.2989
20.3736
20.4477
20.5231
20.6008
20.6814
20.7646
20.8493
20.9352
21.0226
21.1131
21.2029
21.2909
21.3811
21.4549
21.4945
21.5325
21.6046
21.6692
21.6868
21.6877
21.6526
21.5245
21.2481
21.0152
20.5613
20.1757
19.8633
19.4662
18.9509
18.3933
17.7868
17.2214
16.6806
16.1948
18.4935
13.9533
14.1453
14.4692
14.7609
15.0361
15.2986
15.5396
15.7627
15.9714
16.1718
16.3661
16.5521
16.727
16.8915
17.0513
17.214
17.3787
17.5397
17.6925
17.8365
17.9728
18.1018
18.217
18.3507
18.4746
18.5967
18.7133
18.8237
18.9288
19.0293
19.1259
19.2194
19.3098
19.3971
19.4807
19.5602
19.6353
19.7075
19.7794
19.8528
19.9285
20.0077
20.0903
20.1755
20.263
20.3543
20.4512
20.5564
20.6736
20.8134
20.9761
21.1476
21.2911
21.4252
21.5347
21.6317
21.805
21.9523
22.0435
22.0542
22.0469
21.9861
21.7351
21.0682
20.4368
19.8189
19.1277
18.4289
17.8105
17.1981
16.6469
17.8633
13.4829
13.6398
13.9735
14.266
14.546
14.8116
15.055
15.2803
15.4912
15.6939
15.8902
16.0776
16.2534
16.4184
16.5783
16.7406
16.9047
17.0647
17.2161
17.3584
17.4923
17.6187
17.7314
17.8605
17.9811
18.099
18.2115
18.3178
18.4187
18.5147
18.6064
18.695
18.7806
18.8627
18.9409
19.015
19.0847
19.1513
19.2174
19.2845
19.3536
19.4256
19.5008
19.5785
19.659
19.7436
19.8342
19.9334
20.0466
20.1829
20.3453
20.5418
20.7646
20.9827
21.1998
21.4083
21.6204
21.8013
21.9601
22.1511
22.3202
22.4026
22.4012
22.328
22.0178
21.2818
20.171
19.4207
18.7149
17.9877
17.3298
17.3766
13.1166
13.2421
13.5774
13.8658
14.1469
14.413
14.6572
14.8829
15.0941
15.2968
15.4928
15.6798
15.855
16.0191
16.1779
16.3387
16.501
16.6589
16.808
16.9477
17.0788
17.2024
17.312
17.4372
17.5536
17.6673
17.7756
17.8776
17.9742
18.0659
18.1533
18.2374
18.3186
18.3963
18.4699
18.5393
18.6043
18.6662
18.7269
18.788
18.8503
18.9148
18.9817
19.051
19.123
19.1993
19.2816
19.3719
19.4751
19.6
19.7513
19.9308
20.1354
20.3647
20.6217
20.9143
21.1837
21.454
21.7385
21.9999
22.2055
22.3465
22.4987
22.5241
22.5082
22.3898
21.9975
21.1239
19.8846
19.0621
18.2993
16.9814
12.8134
12.9136
13.2459
13.528
13.8076
14.0718
14.315
14.5394
14.7493
14.9506
15.1453
15.3308
15.5045
15.6671
15.8241
15.9829
16.1427
16.2979
16.4443
16.5812
16.7094
16.83
16.9364
17.0583
17.1703
17.28
17.3841
17.482
17.5746
17.6623
17.7458
17.826
17.9032
17.977
18.0468
18.1123
18.1733
18.2312
18.2874
18.3435
18.4001
18.458
18.5175
18.5788
18.6427
18.7105
18.784
18.8652
18.958
19.0711
19.2091
19.3736
19.5627
19.7759
20.0126
20.2729
20.5632
20.903
21.2684
21.6003
21.898
22.1715
22.3995
22.494
22.4956
22.4849
22.4368
22.2654
21.8329
20.9537
19.5688
16.64
12.5448
12.6243
12.9507
13.2254
13.5015
13.7622
14.0029
14.2249
14.4324
14.6314
14.8239
15.0074
15.1792
15.3397
15.4946
15.6509
15.808
15.9603
16.1038
16.238
16.3633
16.4809
16.5842
16.7036
16.8111
16.9171
17.0175
17.1118
17.2007
17.285
17.3652
17.4421
17.5162
17.5869
17.6536
17.716
17.7739
17.8284
17.881
17.9328
17.9845
18.0368
18.0898
18.144
18.2003
18.2601
18.3252
18.3975
18.4802
18.5814
18.7058
18.8554
19.0295
19.2264
19.4442
19.6853
19.9552
20.2575
20.5924
20.9565
21.3532
21.7737
22.1141
22.35
22.4438
22.4483
22.4324
22.3828
22.2659
22.0005
21.4481
16.3241
12.2921
12.3534
12.6717
12.9379
13.2088
13.4644
13.7012
13.9196
14.1237
14.3195
14.5092
14.6902
14.8595
15.0178
15.1703
15.324
15.4782
15.6277
15.7685
15.9
16.0227
16.1375
16.2379
16.3557
16.459
16.562
16.6592
16.7505
16.8366
16.9182
16.9958
17.0705
17.1423
17.2109
17.2755
17.3357
17.3913
17.4433
17.4931
17.5415
17.5892
17.6368
17.6844
17.7325
17.7821
17.8347
17.8919
17.9558
18.0294
18.1189
18.2301
18.365
18.5232
18.7035
18.9046
19.128
19.3775
19.6555
19.9645
20.301
20.6607
21.0587
21.5319
22.0063
22.2632
22.3446
22.3489
22.3299
22.259
22.1077
21.8207
16.0181
12.0439
12.089
12.3972
12.6542
12.9181
13.1672
13.3988
13.6125
13.8123
14.0042
14.1904
14.3685
14.5352
14.6911
14.8411
14.9922
15.1437
15.2904
15.4287
15.5578
15.6782
15.7906
15.8885
16.0056
16.1053
16.2059
16.3007
16.3898
16.4738
16.5536
16.6297
16.7029
16.7736
16.841
16.9046
16.9635
17.0178
17.0681
17.116
17.1618
17.2065
17.2505
17.2938
17.3369
17.381
17.4274
17.4779
17.5343
17.5996
17.6785
17.7772
17.8977
18.0403
18.2041
18.3884
18.5943
18.8248
19.0825
19.3685
19.6798
20.015
20.3836
20.8208
21.3515
21.8445
22.0824
22.1478
22.1461
22.1218
22.034
21.834
15.7146
11.796
11.827
12.1235
12.3707
12.6265
12.8681
13.0936
13.3017
13.4965
13.684
13.8665
14.0414
14.2054
14.3588
14.5066
14.6552
14.8042
14.9485
15.0847
15.2118
15.3303
15.4406
15.5367
15.6537
15.7505
15.8493
15.9425
16.0302
16.113
16.1917
16.2671
16.3398
16.4101
16.4773
16.5406
16.5991
16.6528
16.7024
16.7492
16.7934
16.836
16.8774
16.9176
16.9569
16.9966
17.0382
17.083
17.133
17.1911
17.2607
17.348
17.4552
17.5829
17.7308
17.8985
18.0872
18.2994
18.5376
18.8024
19.0919
19.4059
19.7539
20.1519
20.6164
21.1166
21.539
21.7312
21.7679
21.7657
21.7404
21.632
15.4112
11.5476
11.5666
11.8504
12.0879
12.3349
12.5685
12.7873
12.9894
13.179
13.3619
13.5406
13.7124
13.8737
14.0249
14.1704
14.3168
14.4636
14.606
14.7403
14.8659
14.9831
15.0916
15.1862
15.3037
15.3982
15.4958
15.5881
15.6749
15.7571
15.8354
15.9107
15.9835
16.0541
16.1216
16.1852
16.2439
16.2977
16.3471
16.3935
16.4369
16.4783
16.518
16.556
16.5927
16.6292
16.6669
16.7071
16.7519
16.8037
16.8657
16.9427
17.0378
17.1517
17.2846
17.4363
17.6081
17.8024
18.0215
18.2662
18.535
18.8281
19.1538
19.5279
19.9524
20.4042
20.8099
21.0884
21.1711
21.1695
21.1598
21.1265
15.1046
11.2979
11.3077
11.5777
11.8057
12.0438
12.2694
12.4813
12.6774
12.8616
13.0399
13.2148
13.3834
13.5423
13.6912
13.8348
13.9792
14.124
14.2645
14.3974
14.5217
14.6378
14.7447
14.8384
14.9563
15.0493
15.1459
15.2376
15.324
15.406
15.4844
15.5599
15.6332
15.7043
15.7725
15.8367
15.8961
15.9503
16.0001
16.0463
16.0896
16.1303
16.1691
16.2057
16.2406
16.2747
16.3094
16.3461
16.3864
16.4328
16.4882
16.556
16.6402
16.7414
16.8601
16.9963
17.1516
17.3283
17.5286
17.7534
18.0021
18.2749
18.5802
18.9305
19.3289
19.7486
20.1203
20.4162
20.5407
20.5455
20.5422
20.532
14.7946
11.046
11.0494
11.3047
11.5238
11.7531
11.9707
12.1757
12.3658
12.5448
12.7185
12.8896
13.0552
13.2115
13.3584
13.5
13.6425
13.7855
13.9244
14.0559
14.1792
14.2943
14.3999
14.4929
14.611
14.7028
14.7987
14.8901
14.9764
15.0583
15.1369
15.2129
15.2868
15.3587
15.4277
15.4928
15.5529
15.6078
15.6582
15.7048
15.7482
15.7887
15.8271
15.863
15.8967
15.9292
15.9617
15.9955
16.0321
16.0739
16.1234
16.1832
16.2574
16.347
16.4523
16.5739
16.7131
16.8725
17.0542
17.2595
17.4883
17.7414
18.026
18.3535
18.7265
19.1162
19.4631
19.7486
19.9216
19.9595
19.9591
19.9545
14.4826
10.7925
10.7922
11.0319
11.2426
11.4632
11.673
11.8714
12.0556
12.2294
12.3986
12.566
12.7287
12.8826
13.0274
13.1672
13.3078
13.449
13.5864
13.7167
13.8389
13.9533
14.0575
14.1501
14.2682
14.3591
14.4545
14.5457
14.632
14.7141
14.7931
14.8695
14.9442
15.0169
15.0868
15.1528
15.2138
15.2696
15.3207
15.368
15.4119
15.4525
15.4908
15.5265
15.5597
15.5911
15.6221
15.6537
15.6874
15.7252
15.7696
15.8228
15.8882
15.9671
16.0602
16.168
16.2921
16.4349
16.5986
16.785
16.9943
17.2276
17.4912
17.7957
18.1417
18.5034
18.8329
19.1045
19.3053
19.3854
19.3966
19.3954
14.1691
10.5381
10.5376
10.7606
10.9635
11.1756
11.3781
11.57
11.7485
11.9173
12.0822
12.246
12.4057
12.5572
12.7
12.8379
12.9768
13.1162
13.252
13.3811
13.5023
13.616
13.719
13.8115
13.9292
14.0195
14.1144
14.2056
14.292
14.3744
14.4537
14.5308
14.6062
14.6797
14.7505
14.8174
14.8793
14.936
14.988
15.0362
15.0806
15.1218
15.1604
15.1962
15.2293
15.2603
15.2903
15.3203
15.3517
15.3864
15.4265
15.4741
15.5318
15.6014
15.6835
15.7787
15.8888
16.016
16.1629
16.3312
16.5216
16.7352
16.9778
17.2589
17.5781
17.9143
18.2277
18.4903
18.6959
18.8206
18.8538
18.8543
13.8566
10.2863
10.2855
10.4924
10.6881
10.8922
11.0876
11.2733
11.4464
11.6103
11.7709
11.9312
12.088
12.2372
12.378
12.5141
12.6511
12.7888
12.923
13.0508
13.1711
13.2841
13.3859
13.4786
13.5953
13.6852
13.7798
13.871
13.9575
14.0402
14.12
14.1977
14.2738
14.3481
14.4197
14.4874
14.5502
14.6077
14.6607
14.7098
14.7551
14.797
14.836
14.8723
14.9056
14.9366
14.9661
14.9951
15.0249
15.0571
15.0935
15.1366
15.1881
15.2495
15.3218
15.4057
15.503
15.616
15.7471
15.8984
16.0707
16.2653
16.4874
16.7452
17.0389
17.3509
17.6471
17.9021
18.1067
18.2551
18.327
18.3347
13.5503
10.0409
10.0396
10.2313
10.4205
10.617
10.8057
10.9854
11.1532
11.3125
11.469
11.6258
11.7798
11.9266
12.0654
12.1996
12.3348
12.4706
12.6033
12.7297
12.8491
12.9613
13.0619
13.1551
13.2701
13.3599
13.4542
13.5455
13.6321
13.715
13.7952
13.8734
13.9501
14.0251
14.0974
14.1658
14.2293
14.2876
14.3414
14.3914
14.4378
14.4806
14.5201
14.5569
14.5907
14.622
14.6514
14.6798
14.7083
14.7385
14.7723
14.8118
14.8581
14.9125
14.9763
15.0503
15.1361
15.2363
15.3531
15.4886
15.6439
15.8203
16.0227
16.2581
16.5273
16.8157
17.0935
17.3392
17.5423
17.6995
17.7974
17.8367
13.2557
9.80648
9.80467
9.9822
10.1655
10.3548
10.5372
10.7112
10.8741
11.029
11.1816
11.335
11.4861
11.6306
11.7673
11.8996
12.0329
12.1669
12.2978
12.4228
12.5411
12.6524
12.7519
12.846
12.9582
13.0483
13.1423
13.2334
13.3201
13.4031
13.4836
13.5621
13.6393
13.7148
13.7876
13.8565
13.9205
13.9795
14.0339
14.0847
14.1319
14.1757
14.2159
14.2533
14.2877
14.3193
14.3488
14.3769
14.4044
14.4332
14.4651
14.5015
14.5437
14.5924
14.649
14.7142
14.7901
14.8787
14.9826
15.1038
15.2433
15.4029
15.5867
15.801
16.0466
16.3114
16.5701
16.804
17.0032
17.1632
17.2762
17.3442
12.9753
9.5835
9.58109
9.74552
9.92336
10.1059
10.2824
10.4511
10.6093
10.76
10.9088
11.0589
11.2072
11.3493
11.484
11.6144
11.7457
11.8778
12.007
12.1304
12.2476
12.3579
12.4563
12.5516
12.6602
12.7508
12.8445
12.9354
13.0219
13.105
13.1856
13.2643
13.3418
13.4176
13.4907
13.5599
13.6243
13.6836
13.7386
13.7901
13.838
13.8826
13.9237
13.9617
13.9966
14.0285
14.0582
14.086
14.113
14.1408
14.1712
14.2053
14.244
14.2882
14.3387
14.3966
14.4637
14.5423
14.6347
14.7429
14.8681
15.0121
15.1787
15.3731
15.5959
15.8374
16.0764
16.2969
16.4893
16.6485
16.7693
16.8537
12.7068
9.36957
9.36655
9.51875
9.69144
9.86761
10.0386
10.2023
10.356
10.5026
10.6478
10.7947
10.9403
11.0801
11.2127
11.3412
11.4706
11.6008
11.7281
11.85
11.966
12.0752
12.1725
12.269
12.3743
12.4652
12.5584
12.649
12.7354
12.8183
12.8989
12.9778
13.0554
13.1314
13.2047
13.274
13.3387
13.3984
13.4538
13.5057
13.5543
13.5996
13.6417
13.6803
13.7158
13.7482
13.7781
13.806
13.8327
13.8598
13.889
13.9213
13.9574
13.998
14.0434
14.095
14.1547
14.2246
14.3069
14.4036
14.5159
14.6457
14.7964
14.9721
15.1731
15.3917
15.6108
15.8167
16
16.1555
16.2798
16.3748
12.4475
9.1626
9.15895
9.29973
9.46753
9.63771
9.80347
9.96235
10.1118
10.2546
10.3962
10.54
10.683
10.8205
10.9511
11.0777
11.2053
11.3336
11.4592
11.5796
11.6944
11.8025
11.8986
11.9963
12.0985
12.1895
12.2822
12.3726
12.4587
12.5416
12.6221
12.7011
12.7788
12.8549
12.9283
12.9978
13.0626
13.1226
13.1784
13.2308
13.28
13.3261
13.369
13.4084
13.4446
13.4776
13.508
13.5361
13.5627
13.5895
13.618
13.649
13.6831
13.7208
13.7621
13.8085
13.862
13.9246
13.9983
14.0849
14.1858
14.3029
14.4389
14.597
14.7774
14.9739
15.1733
15.364
15.537
15.6869
15.8111
15.912
12.1935
8.95887
8.9546
9.08469
9.24777
9.41228
9.57307
9.72739
9.87279
10.0119
10.1502
10.291
10.4315
10.5668
10.6955
10.8203
10.946
11.0726
11.1966
11.3155
11.4291
11.5362
11.6312
11.7303
11.8296
11.9207
12.013
12.1031
12.1891
12.2718
12.3524
12.4314
12.5093
12.5856
12.6591
12.7288
12.7939
12.8542
12.9104
12.9634
13.0133
13.0602
13.1041
13.1445
13.1815
13.2154
13.2464
13.275
13.3019
13.3287
13.357
13.3872
13.4198
13.4552
13.4933
13.5357
13.5844
13.6412
13.7077
13.7857
13.8767
13.9824
14.105
14.2467
14.4077
14.5833
14.7635
14.9389
15.101
15.244
15.3659
15.4692
11.9406
8.75518
8.75031
8.87026
9.02876
9.18786
9.34387
9.49382
9.63535
9.77091
9.90602
10.0441
10.1821
10.3154
10.4423
10.5654
10.6895
10.8144
10.9369
11.0546
11.1671
11.2733
11.3672
11.4682
11.5645
11.6558
11.7479
11.8378
11.9237
12.0065
12.0872
12.1664
12.2444
12.321
12.3948
12.4649
12.5305
12.5913
12.6481
12.7017
12.7525
12.8004
12.8453
12.8871
12.9253
12.9601
12.9922
13.0217
13.0492
13.0765
13.1049
13.1348
13.1664
13.2001
13.2361
13.2757
13.3209
13.3731
13.4338
13.5047
13.5872
13.6828
13.7931
13.9197
14.0625
14.2186
14.3808
14.5412
14.6922
14.8278
14.9457
15.0488
11.6879
8.55329
8.54777
8.6583
8.81232
8.96626
9.1177
9.26345
9.40126
9.53344
9.66546
9.8008
9.93655
10.0679
10.193
10.3146
10.4371
10.5605
10.6816
10.7981
10.9096
11.0149
11.108
11.2107
11.3045
11.3959
11.4878
11.5776
11.6635
11.7464
11.8272
11.9067
11.9851
12.062
12.1362
12.2068
12.2729
12.3344
12.3919
12.4464
12.4982
12.5471
12.5934
12.6366
12.6762
12.7124
12.7456
12.7762
12.8047
12.8328
12.8616
12.8915
12.9227
12.9554
12.99
13.0279
13.0706
13.1193
13.1755
13.2405
13.3156
13.4021
13.5011
13.6134
13.7395
13.8777
14.023
14.1691
14.309
14.4367
14.5495
14.6499
11.438
8.35726
8.35098
8.45261
8.60222
8.75121
8.89825
9.03993
9.17411
9.30298
9.43198
9.56464
9.69811
9.82747
9.95094
10.0709
10.1918
10.3137
10.4333
10.5487
10.6592
10.7634
10.8557
10.9595
11.0515
11.1427
11.2343
11.3239
11.4097
11.4925
11.5734
11.653
11.7316
11.8087
11.8833
11.9543
12.021
12.0831
12.1413
12.1967
12.2494
12.2995
12.347
12.3916
12.4327
12.4703
12.5049
12.5365
12.5661
12.5951
12.6245
12.6547
12.6857
12.7179
12.7518
12.7886
12.8295
12.8756
12.928
12.9878
13.0562
13.1342
13.2222
13.321
13.4312
13.5526
13.6818
13.8138
13.9422
14.0613
14.1677
14.2634
11.1945
8.16875
8.16162
8.25474
8.39993
8.54416
8.68689
8.82459
8.95521
9.08082
9.2068
9.33677
9.46791
9.59525
9.71692
9.83519
9.95448
10.0747
10.1928
10.3069
10.4161
10.5192
10.6107
10.7148
10.8053
10.8961
10.9871
11.0763
11.1618
11.2443
11.3251
11.4045
11.4831
11.5604
11.6351
11.7064
11.7735
11.8361
11.8949
11.951
12.0047
12.0558
12.1044
12.1503
12.1927
12.2316
12.2675
12.3004
12.331
12.361
12.3911
12.4216
12.4527
12.4848
12.5184
12.5545
12.5939
12.6378
12.6868
12.7419
12.8039
12.8735
12.9509
13.0365
13.1316
13.2369
13.3503
13.4683
13.5848
13.6945
13.7934
13.8828
10.9581
7.98499
7.97702
8.06204
8.20273
8.34232
8.48084
8.61463
8.74175
8.86412
8.9871
9.11437
9.24314
9.36843
9.48826
9.60479
9.72233
9.84087
9.95732
10.07
10.178
10.2797
10.3703
10.4747
10.5636
10.6536
10.7441
10.8327
10.9176
10.9998
11.0802
11.1594
11.2378
11.315
11.3897
11.4612
11.5286
11.5916
11.651
11.7078
11.7624
11.8145
11.8643
11.9114
11.955
11.9953
12.0324
12.0665
12.0983
12.1293
12.1603
12.1914
12.2228
12.255
12.2883
12.324
12.3625
12.4045
12.4506
12.5015
12.5575
12.6191
12.6862
12.7593
12.84
12.9301
13.0288
13.1331
13.2378
13.3375
13.4281
13.5099
10.726
7.8032
7.79443
7.87182
8.00789
8.14296
8.27733
8.40728
8.53093
8.6501
8.7701
8.89466
9.02108
9.1443
9.26228
9.37705
9.49283
9.60961
9.72447
9.83574
9.94234
10.0427
10.1324
10.2373
10.3243
10.4135
10.5032
10.5912
10.6755
10.7572
10.8371
10.9159
10.9941
11.0712
11.1459
11.2174
11.2851
11.3486
11.4086
11.4663
11.5218
11.5749
11.6259
11.6743
11.7193
11.7609
11.7993
11.8348
11.8679
11.9002
11.9321
11.9639
11.9958
12.0283
12.062
12.0976
12.1354
12.1759
12.2194
12.2664
12.3169
12.3713
12.4287
12.4899
12.5575
12.6338
12.7189
12.8104
12.9036
12.9932
13.0748
13.148
10.4973
7.62438
7.61479
7.68524
7.81664
7.94731
8.07762
8.20378
8.32401
8.44002
8.55707
8.67894
8.803
8.92416
9.04027
9.15328
9.2673
9.38231
9.4956
9.60537
9.71067
9.80949
9.89848
10.0037
10.0888
10.1771
10.266
10.3533
10.437
10.5181
10.5975
10.676
10.7538
10.8307
10.9054
10.977
11.045
11.109
11.1696
11.2281
11.2846
11.3389
11.3911
11.4408
11.4872
11.5302
11.5701
11.607
11.6416
11.6752
11.7082
11.7407
11.7735
11.8068
11.8409
11.8766
11.914
11.9534
11.9945
12.0379
12.0832
12.1307
12.1794
12.2297
12.2855
12.3496
12.4226
12.5021
12.5843
12.6637
12.7355
12.7992
10.2755
7.45191
7.44144
7.50571
7.63245
7.75891
7.88527
8.00775
8.12464
8.23754
8.35167
8.47089
8.5926
8.71169
8.82594
8.93717
9.0494
9.16263
9.27433
9.38255
9.48654
9.58379
9.67218
9.77719
9.86063
9.948
10.0361
10.1226
10.2056
10.286
10.3649
10.4429
10.5204
10.597
10.6715
10.7432
10.8115
10.8759
10.9372
10.9965
11.0539
11.1094
11.1629
11.2139
11.2617
11.3062
11.3475
11.3858
11.4219
11.4568
11.4908
11.5245
11.5583
11.5923
11.627
11.6629
11.7001
11.7386
11.7778
11.8177
11.8579
11.8986
11.9388
11.9798
12.0255
12.0792
12.1413
12.2096
12.2812
12.3497
12.4109
12.4647
10.0632
7.28757
7.27618
7.33498
7.4571
7.57958
7.70215
7.82109
7.93474
8.04463
8.15591
8.27251
8.39189
8.50892
8.6213
8.73074
8.84118
8.95261
9.06269
9.16935
9.27198
9.36764
9.45563
9.5598
9.64187
9.7282
9.81539
9.90109
9.98337
10.0631
10.1413
10.2188
10.2958
10.3721
10.4465
10.5182
10.5866
10.6514
10.7133
10.7734
10.8318
10.8883
10.943
10.9953
11.0445
11.0903
11.1331
11.1728
11.2103
11.2463
11.2816
11.3164
11.3511
11.3859
11.4211
11.4573
11.4945
11.5323
11.5697
11.6062
11.6415
11.6751
11.7075
11.7407
11.7778
11.8226
11.875
11.9327
11.9938
12.0511
12.1014
12.1448
9.85937
7.12896
7.11668
7.17058
7.28803
7.40671
7.52565
7.64119
7.75173
7.8587
7.96722
8.08125
8.19834
8.31334
8.42387
8.53154
8.64019
8.74984
8.85831
8.96343
9.06471
9.15878
9.24656
9.34963
9.43038
9.51566
9.60199
9.68688
9.76841
9.84744
9.92505
10.0019
10.0786
10.1545
10.2287
10.3003
10.3689
10.4341
10.4966
10.5574
10.6167
10.6743
10.7302
10.7838
10.8343
10.8816
10.9257
10.9668
11.0056
11.043
11.0795
11.1154
11.151
11.1865
11.2223
11.2588
11.296
11.3331
11.369
11.4025
11.4318
11.4592
11.4847
11.5113
11.5413
11.5783
11.6217
11.6695
11.7202
11.7664
11.806
11.8387
9.65893
6.97207
6.95896
7.0085
7.12109
7.23611
7.35153
7.46379
7.57133
7.67547
7.78128
7.8928
8.00765
8.12067
8.2294
8.33535
8.44226
8.5502
8.65709
8.76071
8.8607
8.95324
9.04128
9.14271
9.22236
9.30667
9.39221
9.47636
9.5572
9.6356
9.71264
9.78905
9.86529
9.94097
10.015
10.0867
10.1555
10.2211
10.2842
10.3458
10.4061
10.4648
10.5219
10.5768
10.6287
10.6775
10.7231
10.7656
10.8058
10.8446
10.8824
10.9194
10.9559
10.9922
11.0286
11.0655
11.1027
11.1392
11.1735
11.2042
11.2279
11.2493
11.269
11.2896
11.3138
11.344
11.379
11.4178
11.458
11.4939
11.5237
11.5437
9.45886
6.81516
6.80122
6.84707
6.95454
7.066
7.17799
7.28705
7.39166
7.49304
7.59622
7.70528
7.81794
7.92902
8.036
8.14029
8.24551
8.35185
8.45714
8.55938
8.65812
8.74924
8.83888
8.93643
9.01601
9.09953
9.18439
9.26788
9.34814
9.42601
9.50258
9.57861
9.65457
9.73007
9.80404
9.87582
9.94491
10.011
10.0748
10.1374
10.1987
10.2586
10.317
10.3733
10.4267
10.477
10.5242
10.5681
10.6098
10.6501
10.6892
10.7274
10.7649
10.802
10.8391
10.8764
10.9136
10.9495
10.9822
11.01
11.0291
11.0447
11.0597
11.0751
11.0941
11.1181
11.1459
11.1765
11.2062
11.2328
11.2518
11.2588
9.26107
6.66106
6.64628
6.68904
6.79134
6.8994
7.00805
7.11401
7.21577
7.31447
7.41509
7.52176
7.63227
7.74144
7.84671
7.94938
8.05297
8.15777
8.26148
8.36237
8.45986
8.54967
8.6415
8.73418
8.81422
8.89706
8.98129
9.06419
9.14392
9.22133
9.29751
9.37324
9.44898
9.52436
9.59833
9.67027
9.73968
9.8063
9.87087
9.93431
9.99663
10.0577
10.1175
10.1752
10.2301
10.2819
10.3305
10.376
10.4192
10.461
10.5014
10.5407
10.5793
10.6173
10.655
10.6928
10.7299
10.7651
10.7962
10.821
10.8362
10.847
10.8581
10.8689
10.8831
10.9018
10.9235
10.9461
10.966
10.9829
10.99
10.9905
9.06846
6.51218
6.49658
6.5363
6.63382
6.73865
6.84413
6.94712
7.04613
7.14226
7.24041
7.34474
7.45315
7.56046
7.66404
7.76513
7.86713