/*--------------------------------*- C++ -*----------------------------------*\
| =========                 |                                                 |
| \\      /  F ield         | OpenFOAM: The Open Source CFD Toolbox           |
|  \\    /   O peration     | Version:  2212                                  |
|   \\  /    A nd           | Website:  www.openfoam.com                      |
|    \\/     M anipulation  |                                                 |
\*---------------------------------------------------------------------------*/
FoamFile
{
    version     2.0;
    format      ascii;
    arch        "LSB;label=32;scalar=64";
    class       surfaceScalarField;
    location    "0.0235";
    object      phi;
}
// * * * * * * * * * * * * * * * * * * * * * * * * * * * * * * * * * * * * * //

dimensions      [1 0 -1 0 0 0 0];

oriented        oriented;

internalField   nonuniform List<scalar> 
15205
(
-6.66167e-06
-6.76652e-06
-6.91686e-06
-1.37168e-05
-7.02494e-06
-2.0337e-05
-7.03178e-06
-2.79214e-05
-7.01364e-06
-3.51839e-05
-6.96157e-06
-4.1919e-05
-6.8706e-06
-4.82631e-05
-6.74455e-06
-5.42643e-05
-6.5882e-06
-5.99186e-05
-6.40235e-06
-6.52326e-05
-6.18938e-06
-7.02113e-05
-5.95151e-06
-7.48621e-05
-5.69083e-06
-7.91922e-05
-5.40933e-06
-8.32083e-05
-5.10887e-06
-8.6917e-05
-4.79122e-06
-9.03245e-05
-4.45803e-06
-9.3437e-05
-4.11086e-06
-9.62599e-05
-3.7512e-06
-9.87983e-05
-3.38045e-06
-0.000101057
-2.99992e-06
-0.00010304
-2.61087e-06
-0.000104751
-2.21447e-06
-0.000106194
-1.81172e-06
-0.00010737
-1.40321e-06
-0.000108283
-9.89388e-07
-0.000108934
-5.79862e-07
-0.000109326
-1.78001e-07
-0.000109457
2.63776e-07
-0.000109357
7.11019e-07
-0.000108966
1.15409e-06
-0.000108316
1.59237e-06
-0.000107404
2.02503e-06
-0.000106228
2.45087e-06
-0.000104786
2.86851e-06
-0.000103076
3.2765e-06
-0.000101093
3.67332e-06
-9.8835e-05
4.05736e-06
-9.62969e-05
4.42696e-06
-9.34743e-05
4.78036e-06
-9.03622e-05
5.11569e-06
-8.6955e-05
5.431e-06
-8.32467e-05
5.72424e-06
-7.9231e-05
5.99321e-06
-7.49014e-05
6.23562e-06
-7.02511e-05
6.44908e-06
-6.52729e-05
6.63096e-06
-5.99592e-05
6.78071e-06
-5.43057e-05
6.89197e-06
-4.83025e-05
6.96218e-06
-4.19576e-05
6.99437e-06
-3.52166e-05
6.99461e-06
-2.7945e-05
6.8987e-06
-2.0376e-05
6.66927e-06
-1.37713e-05
-6.72556e-06
-7.93998e-06
-6.00209e-06
-7.82658e-06
-1.38172e-05
-7.79211e-06
-2.03598e-05
-7.84956e-06
-2.78516e-05
-7.85287e-06
-3.51681e-05
-7.7991e-06
-4.19602e-05
-7.70576e-06
-4.83438e-05
-7.57711e-06
-5.43803e-05
-7.40922e-06
-6.00737e-05
-7.20667e-06
-6.54223e-05
-6.97262e-06
-7.04324e-05
-6.70991e-06
-7.51118e-05
-6.42103e-06
-7.9468e-05
-6.10823e-06
-8.3508e-05
-5.77358e-06
-8.72384e-05
-5.41902e-06
-9.06659e-05
-5.04638e-06
-9.37964e-05
-4.65737e-06
-9.66356e-05
-4.25362e-06
-9.91887e-05
-3.83668e-06
-0.000101461
-3.40803e-06
-0.000103455
-2.96909e-06
-0.000105177
-2.52124e-06
-0.000106628
-2.06582e-06
-0.000107812
-1.60418e-06
-0.000108731
-1.13817e-06
-0.000109387
-6.6951e-07
-0.000109781
-1.99882e-07
-0.000109913
3.07418e-07
-0.000109851
8.15367e-07
-0.00010946
1.32181e-06
-0.000108808
1.82473e-06
-0.000107893
2.32253e-06
-0.000106712
2.81357e-06
-0.000105264
3.29619e-06
-0.000103545
3.76866e-06
-0.000101552
4.22921e-06
-9.9282e-05
4.67595e-06
-9.67301e-05
5.1069e-06
-9.38918e-05
5.52001e-06
-9.07618e-05
5.91307e-06
-8.73346e-05
6.28377e-06
-8.3604e-05
6.6296e-06
-7.95635e-05
6.94789e-06
-7.52064e-05
7.23564e-06
-7.05255e-05
7.48949e-06
-6.55135e-05
7.70564e-06
-6.01622e-05
7.87845e-06
-5.44654e-05
8.01421e-06
-4.84252e-05
8.10552e-06
-4.2036e-05
8.13536e-06
-3.52335e-05
8.10601e-06
-2.79029e-05
8.15221e-06
-2.04101e-05
8.25871e-06
-1.38642e-05
-6.0523e-06
-9.67163e-06
-5.80535e-06
-9.71256e-06
-1.37599e-05
-9.71107e-06
-2.0347e-05
-9.75317e-06
-2.77944e-05
-9.7443e-06
-3.51616e-05
-9.67247e-06
-4.20166e-05
-9.54877e-06
-4.8452e-05
-9.37846e-06
-5.4535e-05
-9.16425e-06
-6.02722e-05
-8.90886e-06
-6.56619e-05
-8.61567e-06
-7.07097e-05
-8.28792e-06
-7.54237e-05
-7.92851e-06
-7.98115e-05
-7.54013e-06
-8.38803e-05
-7.12528e-06
-8.76372e-05
-6.68632e-06
-9.10887e-05
-6.22545e-06
-9.4241e-05
-5.74479e-06
-9.71e-05
-5.24632e-06
-9.96709e-05
-4.73193e-06
-0.000101959
-4.20347e-06
-0.000103967
-3.66267e-06
-0.000105701
-3.11125e-06
-0.000107163
-2.55087e-06
-0.000108356
-1.98306e-06
-0.000109282
-1.40923e-06
-0.000109944
-8.31661e-07
-0.000110342
-2.50592e-07
-0.000110478
3.74545e-07
-0.000110459
9.99844e-07
-0.000110069
1.62238e-06
-0.000109414
2.24047e-06
-0.000108495
2.8523e-06
-0.000107308
3.45587e-06
-0.000105851
4.04915e-06
-0.000104122
4.63002e-06
-0.000102116
5.19628e-06
-9.98317e-05
5.74563e-06
-9.72629e-05
6.2757e-06
-9.44054e-05
6.78395e-06
-9.12536e-05
7.26776e-06
-8.7802e-05
7.7243e-06
-8.40442e-05
8.15062e-06
-7.99735e-05
8.54353e-06
-7.5583e-05
8.89962e-06
-7.08654e-05
9.21515e-06
-6.58129e-05
9.48626e-06
-6.04172e-05
9.70958e-06
-5.46727e-05
9.8814e-06
-4.8581e-05
9.99661e-06
-4.21353e-05
1.00451e-05
-3.52662e-05
1.00376e-05
-2.78798e-05
1.00565e-05
-2.0414e-05
1.00281e-05
-1.38189e-05
-5.93038e-06
-1.21231e-05
-5.85922e-06
-1.21392e-05
-1.37236e-05
-1.21384e-05
-2.033e-05
-1.21237e-05
-2.77908e-05
-1.2046e-05
-3.52205e-05
-1.1908e-05
-4.21358e-05
-1.17206e-05
-4.86203e-05
-1.14855e-05
-5.4751e-05
-1.1203e-05
-6.05355e-05
-1.08751e-05
-6.59705e-05
-1.05048e-05
-7.10606e-05
-1.00952e-05
-7.58138e-05
-9.64927e-06
-8.02378e-05
-9.16988e-06
-8.43401e-05
-8.65981e-06
-8.81275e-05
-8.12174e-06
-9.1607e-05
-7.5582e-06
-9.47847e-05
-6.97165e-06
-9.76667e-05
-6.3644e-06
-0.000100258
-5.73871e-06
-0.000102564
-5.09671e-06
-0.000104589
-4.44048e-06
-0.000106337
-3.77201e-06
-0.000107811
-3.09325e-06
-0.000109015
-2.40608e-06
-0.00010995
-1.71224e-06
-0.000110618
-1.01327e-06
-0.000111021
-3.11637e-07
-0.000111159
4.43945e-07
-0.000111195
1.1982e-06
-0.000110803
1.94896e-06
-0.000110145
2.69411e-06
-0.00010922
3.43133e-06
-0.000108025
4.15831e-06
-0.000106558
4.87264e-06
-0.000104816
5.57185e-06
-0.000102796
6.25338e-06
-0.000100493
6.91455e-06
-9.79041e-05
7.55261e-06
-9.50234e-05
8.16467e-06
-9.18458e-05
8.74773e-06
-8.83652e-05
9.29868e-06
-8.45753e-05
9.81425e-06
-8.04693e-05
1.02911e-05
-7.60402e-05
1.07257e-05
-7.12804e-05
1.11145e-05
-6.61822e-05
1.14542e-05
-6.07375e-05
1.17424e-05
-5.49416e-05
1.19783e-05
-4.87977e-05
1.21604e-05
-4.22981e-05
1.22784e-05
-3.53652e-05
1.23286e-05
-2.79113e-05
1.23544e-05
-2.04218e-05
1.23651e-05
-1.38091e-05
-5.99183e-06
-1.46159e-05
-5.95926e-06
-1.4586e-05
-1.37297e-05
-1.45468e-05
-2.03484e-05
-1.44559e-05
-2.78602e-05
-1.42999e-05
-3.53545e-05
-1.40877e-05
-4.2326e-05
-1.38249e-05
-4.88609e-05
-1.35125e-05
-5.50412e-05
-1.31514e-05
-6.08743e-05
-1.27433e-05
-6.63561e-05
-1.22907e-05
-7.14907e-05
-1.17963e-05
-7.62856e-05
-1.12627e-05
-8.07487e-05
-1.06929e-05
-8.48871e-05
-1.00897e-05
-8.8708e-05
-9.45584e-06
-9.2218e-05
-8.79407e-06
-9.54236e-05
-8.10707e-06
-9.83307e-05
-7.39741e-06
-0.000100945
-6.66756e-06
-0.000103271
-5.91992e-06
-0.000105314
-5.1568e-06
-0.000107077
-4.38044e-06
-0.000108565
-3.59299e-06
-0.000109779
-2.79653e-06
-0.000110723
-1.99316e-06
-0.000111398
-1.18497e-06
-0.000111806
-3.74217e-07
-0.000111947
4.98793e-07
-0.000112044
1.36987e-06
-0.000111651
2.2364e-06
-0.000110988
3.09583e-06
-0.000110056
3.9456e-06
-0.000108851
4.78311e-06
-0.000107372
5.60569e-06
-0.000105615
6.41061e-06
-0.000103577
7.19502e-06
-0.000101255
7.95602e-06
-9.86421e-05
8.69061e-06
-9.57351e-05
9.39571e-06
-9.2528e-05
1.00682e-05
-8.90149e-05
1.07047e-05
-8.51892e-05
1.13022e-05
-8.10441e-05
1.18572e-05
-7.65726e-05
1.23665e-05
-7.17673e-05
1.28271e-05
-6.66204e-05
1.3236e-05
-6.11242e-05
1.3591e-05
-5.52744e-05
1.38907e-05
-4.90753e-05
1.4134e-05
-4.25194e-05
1.43153e-05
-3.55246e-05
1.4427e-05
-2.80016e-05
1.44846e-05
-2.04587e-05
1.4523e-05
-1.38239e-05
-6.09301e-06
-1.50904e-05
-6.00227e-06
-1.50393e-05
-1.37568e-05
-1.4954e-05
-2.04126e-05
-1.48212e-05
-2.79712e-05
-1.46345e-05
-3.5519e-05
-1.43963e-05
-4.25418e-05
-1.41077e-05
-4.91271e-05
-1.37707e-05
-5.53555e-05
-1.33873e-05
-6.12351e-05
-1.29593e-05
-6.67613e-05
-1.2489e-05
-7.1938e-05
-1.19789e-05
-7.67728e-05
-1.14313e-05
-8.12732e-05
-1.08489e-05
-8.54464e-05
-1.02342e-05
-8.92995e-05
-9.58966e-06
-9.28392e-05
-8.91794e-06
-9.6072e-05
-8.22147e-06
-9.90038e-05
-7.50268e-06
-0.00010164
-6.76389e-06
-0.000103986
-6.00738e-06
-0.000106047
-5.23536e-06
-0.000107826
-4.45e-06
-0.000109326
-3.65342e-06
-0.000110552
-2.84767e-06
-0.000111505
-2.0348e-06
-0.000112187
-1.21685e-06
-0.0001126
-3.96128e-07
-0.000112744
4.89121e-07
-0.000112906
1.37307e-06
-0.000112511
2.25308e-06
-0.000111845
3.12656e-06
-0.000110906
3.99094e-06
-0.000109692
4.84363e-06
-0.000108201
5.682e-06
-0.00010643
6.50334e-06
-0.000104375
7.30488e-06
-0.000102033
8.08378e-06
-9.93976e-05
8.83715e-06
-9.64651e-05
9.56206e-06
-9.32296e-05
1.02555e-05
-8.9685e-05
1.09145e-05
-8.58249e-05
1.15359e-05
-8.16424e-05
1.21167e-05
-7.71303e-05
1.26539e-05
-7.22815e-05
1.31446e-05
-6.70882e-05
1.35861e-05
-6.15428e-05
1.39758e-05
-5.56414e-05
1.43115e-05
-4.93884e-05
1.45908e-05
-4.27762e-05
1.48118e-05
-3.57233e-05
1.4972e-05
-2.81399e-05
1.50779e-05
-2.05435e-05
1.51453e-05
-1.3867e-05
-6.1548e-06
-1.52757e-05
-6.02875e-06
-1.52139e-05
-1.37946e-05
-1.51107e-05
-2.04948e-05
-1.49585e-05
-2.81017e-05
-1.47538e-05
-3.57014e-05
-1.44996e-05
-4.27736e-05
-1.41968e-05
-4.94073e-05
-1.3847e-05
-5.56828e-05
-1.34518e-05
-6.16076e-05
-1.30134e-05
-6.7177e-05
-1.2534e-05
-7.23945e-05
-1.2016e-05
-7.72678e-05
-1.14619e-05
-8.18043e-05
-1.08742e-05
-8.60111e-05
-1.02552e-05
-8.98953e-05
-9.60744e-06
-9.34638e-05
-8.93331e-06
-9.67228e-05
-8.23517e-06
-9.96786e-05
-7.51532e-06
-0.000102337
-6.776e-06
-0.000104702
-6.01936e-06
-0.00010678
-5.2475e-06
-0.000108574
-4.46246e-06
-0.000110088
-3.66631e-06
-0.000111325
-2.86112e-06
-0.000112287
-2.0489e-06
-0.000112976
-1.23166e-06
-0.000113394
-4.11642e-07
-0.00011354
4.73694e-07
-0.000113768
1.35807e-06
-0.000113372
2.23888e-06
-0.000112702
3.11353e-06
-0.000111757
3.9795e-06
-0.000110535
4.83426e-06
-0.000109032
5.6752e-06
-0.000107248
6.49961e-06
-0.000105176
7.30479e-06
-0.000102814
8.088e-06
-0.000100157
8.8465e-06
-9.72002e-05
9.57747e-06
-9.39372e-05
1.0278e-05
-9.03623e-05
1.09453e-05
-8.64689e-05
1.15762e-05
-8.22502e-05
1.2168e-05
-7.7699e-05
1.27175e-05
-7.28081e-05
1.3222e-05
-6.75698e-05
1.36785e-05
-6.19765e-05
1.40846e-05
-5.60247e-05
1.44379e-05
-4.9719e-05
1.47363e-05
-4.30521e-05
1.49782e-05
-3.59428e-05
1.51603e-05
-2.83e-05
1.5285e-05
-2.0647e-05
1.5364e-05
-1.39218e-05
-6.2034e-06
-1.54325e-05
-6.05834e-06
-1.53613e-05
-1.38418e-05
-1.5251e-05
-2.0584e-05
-1.50861e-05
-2.82449e-05
-1.4867e-05
-3.58984e-05
-1.45982e-05
-4.302e-05
-1.42819e-05
-4.97012e-05
-1.39194e-05
-5.60226e-05
-1.35128e-05
-6.19916e-05
-1.30641e-05
-6.76029e-05
-1.25757e-05
-7.28601e-05
-1.205e-05
-7.77706e-05
-1.14894e-05
-8.23419e-05
-1.08964e-05
-8.65811e-05
-1.02731e-05
-9.04955e-05
-9.62201e-06
-9.40917e-05
-8.94536e-06
-9.73763e-05
-8.24541e-06
-0.000100355
-7.52439e-06
-0.000103034
-6.7844e-06
-0.000105419
-6.02751e-06
-0.000107514
-5.25572e-06
-0.000109323
-4.47107e-06
-0.000110849
-3.67559e-06
-0.000112097
-2.87128e-06
-0.000113068
-2.06007e-06
-0.000113764
-1.24384e-06
-0.000114187
-4.24752e-07
-0.000114336
4.60421e-07
-0.000114629
1.3446e-06
-0.000114232
2.2252e-06
-0.000113559
3.09969e-06
-0.000112608
3.96571e-06
-0.000111377
4.82093e-06
-0.000109864
5.66293e-06
-0.000108066
6.48911e-06
-0.000105979
7.29682e-06
-0.000103599
8.08334e-06
-0.000100921
8.84594e-06
-9.79395e-05
9.5819e-06
-9.46499e-05
1.02884e-05
-9.10456e-05
1.09626e-05
-8.712e-05
1.16018e-05
-8.28662e-05
1.22029e-05
-7.82771e-05
1.27631e-05
-7.33453e-05
1.32795e-05
-6.80632e-05
1.37491e-05
-6.24234e-05
1.41693e-05
-5.64221e-05
1.45377e-05
-5.00647e-05
1.48519e-05
-4.33438e-05
1.51096e-05
-3.61781e-05
1.53054e-05
-2.84739e-05
1.54382e-05
-2.07586e-05
1.55263e-05
-1.39858e-05
-6.25425e-06
-1.55857e-05
-6.09126e-06
-1.55077e-05
-1.38959e-05
-1.539e-05
-2.06807e-05
-1.5216e-05
-2.83972e-05
-1.49876e-05
-3.61046e-05
-1.47085e-05
-4.32768e-05
-1.43819e-05
-5.00055e-05
-1.40096e-05
-5.63724e-05
-1.35939e-05
-6.23847e-05
-1.31371e-05
-6.8037e-05
-1.26415e-05
-7.33329e-05
-1.21094e-05
-7.82798e-05
-1.15432e-05
-8.28851e-05
-1.09453e-05
-8.71561e-05
-1.03178e-05
-9.10999e-05
-9.66297e-06
-9.47234e-05
-8.98305e-06
-9.8033e-05
-8.28014e-06
-0.000101035
-7.55629e-06
-0.000103735
-6.81361e-06
-0.000106138
-6.05423e-06
-0.00010825
-5.28028e-06
-0.000110073
-4.49376e-06
-0.000111612
-3.69653e-06
-0.000112871
-2.89053e-06
-0.00011385
-2.07764e-06
-0.000114553
-1.25979e-06
-0.000114981
-4.39137e-07
-0.000115133
4.48242e-07
-0.000115493
1.33507e-06
-0.000115096
2.21868e-06
-0.000114419
3.09636e-06
-0.000113462
3.96562e-06
-0.000112223
4.82399e-06
-0.000110699
5.66902e-06
-0.000108888
6.49856e-06
-0.000106785
7.31032e-06
-0.000104387
8.1017e-06
-0.000101689
8.86985e-06
-9.86844e-05
9.61184e-06
-9.53686e-05
1.03247e-05
-9.17352e-05
1.10058e-05
-8.77779e-05
1.16523e-05
-8.34897e-05
1.22617e-05
-7.88634e-05
1.28308e-05
-7.38915e-05
1.33569e-05
-6.85665e-05
1.38371e-05
-6.28808e-05
1.42684e-05
-5.68308e-05
1.46483e-05
-5.04219e-05
1.49741e-05
-4.3647e-05
1.5242e-05
-3.64237e-05
1.54474e-05
-2.86574e-05
1.55876e-05
-2.08775e-05
1.56831e-05
-1.40572e-05
-6.30905e-06
-1.57375e-05
-6.12636e-06
-1.56545e-05
-1.3955e-05
-1.55304e-05
-2.07838e-05
-1.53488e-05
-2.85571e-05
-1.51121e-05
-3.63191e-05
-1.48245e-05
-4.35421e-05
-1.44893e-05
-5.03182e-05
-1.41089e-05
-5.67303e-05
-1.36855e-05
-6.27855e-05
-1.32215e-05
-6.84784e-05
-1.27193e-05
-7.38124e-05
-1.21813e-05
-7.8795e-05
-1.16097e-05
-8.34338e-05
-1.10069e-05
-8.7736e-05
-1.0375e-05
-9.17088e-05
-9.71617e-06
-9.53591e-05
-9.03257e-06
-9.86935e-05
-8.3262e-06
-0.000101718
-7.59904e-06
-0.000104439
-6.85317e-06
-0.000106861
-6.09071e-06
-0.000108989
-5.31375e-06
-0.000110827
-4.52424e-06
-0.000112379
-3.7241e-06
-0.000113647
-2.91514e-06
-0.000114636
-2.09926e-06
-0.000115346
-1.27837e-06
-0.000115779
-4.54608e-07
-0.000115934
4.37039e-07
-0.000116361
1.32848e-06
-0.000115964
2.21671e-06
-0.000115284
3.09894e-06
-0.000114321
3.97275e-06
-0.000113073
4.83581e-06
-0.000111539
5.68576e-06
-0.000109714
6.52013e-06
-0.000107596
7.33653e-06
-0.00010518
8.13255e-06
-0.000102461
8.90573e-06
-9.94343e-05
9.65328e-06
-9.6093e-05
1.03725e-05
-9.24313e-05
1.10605e-05
-8.84428e-05
1.17144e-05
-8.41206e-05
1.23315e-05
-7.94575e-05
1.29089e-05
-7.4446e-05
1.34437e-05
-6.90784e-05
1.3933e-05
-6.33473e-05
1.43739e-05
-5.7249e-05
1.47635e-05
-5.07889e-05
1.50988e-05
-4.39598e-05
1.53757e-05
-3.66783e-05
1.55894e-05
-2.88492e-05
1.57365e-05
-2.10035e-05
1.58378e-05
-1.41343e-05
-6.36734e-06
-1.58879e-05
-6.16291e-06
-1.58017e-05
-1.40173e-05
-1.56737e-05
-2.0891e-05
-1.54865e-05
-2.87226e-05
-1.52435e-05
-3.65401e-05
-1.49497e-05
-4.38136e-05
-1.46084e-05
-5.06372e-05
-1.42221e-05
-5.70942e-05
-1.37931e-05
-6.3192e-05
-1.33238e-05
-6.8925e-05
-1.28167e-05
-7.42968e-05
-1.2274e-05
-7.9315e-05
-1.16979e-05
-8.3987e-05
-1.10908e-05
-8.83203e-05
-1.04546e-05
-9.23221e-05
-9.79149e-06
-9.59992e-05
-9.10356e-06
-9.93584e-05
-8.39283e-06
-0.000102406
-7.66138e-06
-0.000105147
-6.91124e-06
-0.000107588
-6.14433e-06
-0.000109733
-5.36248e-06
-0.000111586
-4.56763e-06
-0.00011315
-3.7618e-06
-0.00011443
-2.94698e-06
-0.000115427
-2.12518e-06
-0.000116144
-1.29839e-06
-0.000116582
-4.68715e-07
-0.00011674
4.29979e-07
-0.000117237
1.32874e-06
-0.000116839
2.22386e-06
-0.000116156
3.11257e-06
-0.000115186
3.9926e-06
-0.00011393
4.86165e-06
-0.000112385
5.71739e-06
-0.000110547
6.55737e-06
-0.000108413
7.37913e-06
-0.000105979
8.18039e-06
-0.000103239
8.95898e-06
-0.00010019
9.71267e-06
-9.68235e-05
1.04389e-05
-9.31344e-05
1.11342e-05
-8.9115e-05
1.17952e-05
-8.47586e-05
1.24191e-05
-8.00584e-05
1.30032e-05
-7.50072e-05
1.35449e-05
-6.95973e-05
1.40412e-05
-6.38208e-05
1.44891e-05
-5.76742e-05
1.48858e-05
-5.1163e-05
1.52282e-05
-4.42798e-05
1.5513e-05
-3.69407e-05
1.57341e-05
-2.90484e-05
1.58866e-05
-2.1135e-05
1.5992e-05
-1.42157e-05
-6.42774e-06
-1.60372e-05
-6.20001e-06
-1.5949e-05
-1.40816e-05
-1.58186e-05
-2.10007e-05
-1.56275e-05
-2.88921e-05
-1.53801e-05
-3.67653e-05
-1.5082e-05
-4.40894e-05
-1.47365e-05
-5.09604e-05
-1.43461e-05
-5.74622e-05
-1.39132e-05
-6.36024e-05
-1.34401e-05
-6.93755e-05
-1.29292e-05
-7.4785e-05
-1.23829e-05
-7.98386e-05
-1.18032e-05
-8.45439e-05
-1.11924e-05
-8.89084e-05
-1.05524e-05
-9.29392e-05
-9.8852e-06
-9.66435e-05
-9.19291e-06
-0.000100028
-8.47747e-06
-0.000103098
-7.74085e-06
-0.000105861
-6.98493e-06
-0.000108321
-6.21161e-06
-0.000110483
-5.42289e-06
-0.000112351
-4.62078e-06
-0.000113929
-3.80728e-06
-0.00011522
-2.98444e-06
-0.000116227
-2.15436e-06
-0.000116951
-1.31922e-06
-0.000117394
-4.81238e-07
-0.000117555
4.26952e-07
-0.000118122
1.33506e-06
-0.000117724
2.23867e-06
-0.000117036
3.13548e-06
-0.00011606
4.02332e-06
-0.000114795
4.89983e-06
-0.000113238
5.76259e-06
-0.000111386
6.60921e-06
-0.000109236
7.43728e-06
-0.000106784
8.24437e-06
-0.000104023
9.02803e-06
-0.00010095
9.78617e-06
-9.75586e-05
1.05166e-05
-9.38418e-05
1.12171e-05
-8.97925e-05
1.18846e-05
-8.54033e-05
1.25158e-05
-8.06667e-05
1.31072e-05
-7.55758e-05
1.36557e-05
-7.01231e-05
1.41584e-05
-6.43009e-05
1.46125e-05
-5.81058e-05
1.50153e-05
-5.15433e-05
1.5364e-05
-4.46061e-05
1.5655e-05
-3.72095e-05
1.58817e-05
-2.92533e-05
1.60383e-05
-2.12706e-05
1.61462e-05
-1.42995e-05
-6.48857e-06
-1.6186e-05
-6.23683e-06
-1.60967e-05
-1.41471e-05
-1.59645e-05
-2.11121e-05
-1.57713e-05
-2.90636e-05
-1.5522e-05
-3.69926e-05
-1.52219e-05
-4.43672e-05
-1.48745e-05
-5.12855e-05
-1.44823e-05
-5.78321e-05
-1.40475e-05
-6.40147e-05
-1.35727e-05
-6.98279e-05
-1.306e-05
-7.52752e-05
-1.25116e-05
-8.03643e-05
-1.19296e-05
-8.51032e-05
-1.13161e-05
-8.94992e-05
-1.06728e-05
-9.35596e-05
-1.00019e-05
-9.72916e-05
-9.3051e-06
-0.000100702
-8.58435e-06
-0.000103796
-7.84155e-06
-0.000106581
-7.0786e-06
-0.000109061
-6.29745e-06
-0.000111241
-5.50007e-06
-0.000113126
-4.68846e-06
-0.000114718
-3.86469e-06
-0.000116021
-3.03086e-06
-0.000117038
-2.1891e-06
-0.00011777
-1.34152e-06
-0.000118219
-4.90334e-07
-0.000118383
4.30337e-07
-0.000119019
1.34861e-06
-0.000118619
2.26212e-06
-0.000117926
3.16913e-06
-0.000116944
4.06712e-06
-0.000115669
4.95346e-06
-0.000114101
5.82557e-06
-0.000112235
6.68091e-06
-0.000110068
7.51697e-06
-0.000107596
8.33124e-06
-0.000104814
9.12124e-06
-0.000101717
9.88435e-06
-9.82987e-05
1.06182e-05
-9.45527e-05
1.13212e-05
-9.04725e-05
1.19913e-05
-8.60505e-05
1.26262e-05
-8.12788e-05
1.32224e-05
-7.61492e-05
1.37764e-05
-7.06543e-05
1.42847e-05
-6.47866e-05
1.47444e-05
-5.85429e-05
1.51524e-05
-5.19289e-05
1.55059e-05
-4.49371e-05
1.58007e-05
-3.7482e-05
1.60303e-05
-2.9461e-05
1.61888e-05
-2.14081e-05
1.62983e-05
-1.4385e-05
-6.55018e-06
-1.6333e-05
-6.27343e-06
-1.62436e-05
-1.42129e-05
-1.61112e-05
-2.12238e-05
-1.59179e-05
-2.92353e-05
-1.56686e-05
-3.72199e-05
-1.53688e-05
-4.46449e-05
-1.50217e-05
-5.16103e-05
-1.46299e-05
-5.82016e-05
-1.41956e-05
-6.44266e-05
-1.3721e-05
-7.028e-05
-1.32083e-05
-7.57653e-05
-1.26596e-05
-8.08905e-05
-1.20767e-05
-8.56634e-05
-1.14615e-05
-9.00917e-05
-1.08157e-05
-9.41826e-05
-1.01413e-05
-9.79432e-05
-9.43995e-06
-0.00010138
-8.71352e-06
-0.0001045
-7.96385e-06
-0.000107308
-7.19286e-06
-0.000109809
-6.4025e-06
-0.000112009
-5.59482e-06
-0.00011391
-4.7719e-06
-0.000115518
-3.9359e-06
-0.000116834
-3.08902e-06
-0.000117862
-2.23346e-06
-0.000118603
-1.37136e-06
-0.000119058
-5.0519e-07
-0.000119226
4.29706e-07
-0.000119931
1.36168e-06
-0.000119528
2.2895e-06
-0.000118831
3.21066e-06
-0.000117842
4.12217e-06
-0.000116558
5.02118e-06
-0.000114977
5.90498e-06
-0.000113096
6.77093e-06
-0.000110911
7.61647e-06
-0.000108419
8.43907e-06
-0.000105614
9.23629e-06
-0.000102491
1.00057e-05
-9.90451e-05
1.0745e-05
-9.5269e-05
1.14514e-05
-9.1156e-05
1.2123e-05
-8.66993e-05
1.27582e-05
-8.1891e-05
1.33549e-05
-7.67231e-05
1.39102e-05
-7.11869e-05
1.44208e-05
-6.52746e-05
1.48832e-05
-5.89828e-05
1.52941e-05
-5.23173e-05
1.565e-05
-4.52706e-05
1.5947e-05
-3.77567e-05
1.61785e-05
-2.96707e-05
1.63383e-05
-2.1547e-05
1.64486e-05
-1.44714e-05
-6.61241e-06
-1.64788e-05
-6.30941e-06
-1.63903e-05
-1.42777e-05
-1.62594e-05
-2.13341e-05
-1.60679e-05
-2.94053e-05
-1.58208e-05
-3.74449e-05
-1.55237e-05
-4.49199e-05
-1.51796e-05
-5.19322e-05
-1.47909e-05
-5.8568e-05
-1.43596e-05
-6.48356e-05
-1.38879e-05
-7.07293e-05
-1.33776e-05
-7.62531e-05
-1.28306e-05
-8.1415e-05
-1.22485e-05
-8.62229e-05
-1.1633e-05
-9.06846e-05
-1.09858e-05
-9.48072e-05
-1.03084e-05
-9.85979e-05
-9.60258e-06
-0.000102063
-8.87003e-06
-0.00010521
-8.11259e-06
-0.000108042
-7.33217e-06
-0.000110567
-6.53082e-06
-0.000112787
-5.71066e-06
-0.000114708
-4.87395e-06
-0.000116332
-4.02302e-06
-0.000117662
-3.16031e-06
-0.000118702
-2.28831e-06
-0.000119452
-1.40957e-06
-0.000119914
-5.26799e-07
-0.000120086
4.26851e-07
-0.000120862
1.3787e-06
-0.000120457
2.3259e-06
-0.000119755
3.26529e-06
-0.000118758
4.19377e-06
-0.000117463
5.10843e-06
-0.000115869
6.0064e-06
-0.000113971
6.88495e-06
-0.000111767
7.74142e-06
-0.000109252
8.57328e-06
-0.000106423
9.37806e-06
-0.000103273
1.01534e-05
-9.97976e-05
1.0897e-05
-9.59897e-05
1.16068e-05
-9.18429e-05
1.22803e-05
-8.735e-05
1.29154e-05
-8.25035e-05
1.35106e-05
-7.72956e-05
1.40638e-05
-7.17175e-05
1.45723e-05
-6.57606e-05
1.50332e-05
-5.94211e-05
1.54431e-05
-5.27048e-05
1.57985e-05
-4.56037e-05
1.60955e-05
-3.80314e-05
1.63272e-05
-2.98807e-05
1.64872e-05
-2.16861e-05
1.65975e-05
-1.45578e-05
-6.67487e-06
-1.66236e-05
-6.34424e-06
-1.65372e-05
-1.43405e-05
-1.64092e-05
-2.14415e-05
-1.62215e-05
-2.95715e-05
-1.59792e-05
-3.76653e-05
-1.56874e-05
-4.51896e-05
-1.53492e-05
-5.22483e-05
-1.49666e-05
-5.89284e-05
-1.45415e-05
-6.52384e-05
-1.40755e-05
-7.11729e-05
-1.35704e-05
-7.67358e-05
-1.30275e-05
-8.19354e-05
-1.24484e-05
-8.67796e-05
-1.18343e-05
-9.12761e-05
-1.11868e-05
-9.54322e-05
-1.05071e-05
-9.9255e-05
-9.7968e-06
-0.000102751
-9.05761e-06
-0.000105926
-8.29128e-06
-0.000108786
-7.49976e-06
-0.000111336
-6.68515e-06
-0.000113579
-5.84972e-06
-0.00011552
-4.9959e-06
-0.000117163
-4.12626e-06
-0.000118509
-3.2435e-06
-0.000119562
-2.35044e-06
-0.000120322
-1.44998e-06
-0.000120791
-5.45213e-07
-0.000120968
4.31792e-07
-0.000121816
1.40698e-06
-0.000121409
2.37666e-06
-0.000120702
3.33739e-06
-0.000119696
4.28589e-06
-0.000118389
5.21894e-06
-0.000116779
6.13348e-06
-0.000114863
7.02657e-06
-0.000112637
7.89545e-06
-0.000110098
8.73751e-06
-0.000107242
9.55029e-06
-0.000104063
1.03315e-05
-0.000100556
1.10788e-05
-9.67143e-05
1.17903e-05
-9.25316e-05
1.24639e-05
-8.80009e-05
1.30977e-05
-8.31145e-05
1.36896e-05
-7.78648e-05
1.42382e-05
-7.22435e-05
1.47417e-05
-6.62415e-05
1.51974e-05
-5.98544e-05
1.56027e-05
-5.30876e-05
1.59541e-05
-4.59329e-05
1.6248e-05
-3.8303e-05
1.64775e-05
-3.00884e-05
1.66358e-05
-2.18236e-05
1.67449e-05
-1.4643e-05
-6.73712e-06
-1.67675e-05
-6.3773e-06
-1.66844e-05
-1.44e-05
-1.6561e-05
-2.15443e-05
-1.63794e-05
-2.97316e-05
-1.61447e-05
-3.78781e-05
-1.58617e-05
-4.54506e-05
-1.5533e-05
-5.2555e-05
-1.51602e-05
-5.9279e-05
-1.47449e-05
-6.56315e-05
-1.42884e-05
-7.16072e-05
-1.37918e-05
-7.72101e-05
-1.32562e-05
-8.24486e-05
-1.26826e-05
-8.73307e-05
-1.2072e-05
-9.18642e-05
-1.14256e-05
-9.60562e-05
-1.07444e-05
-9.99137e-05
-1.00298e-05
-0.000103443
-9.28336e-06
-0.00010665
-8.50682e-06
-0.00010954
-7.70216e-06
-0.000112118
-6.87158e-06
-0.000114387
-6.01752e-06
-0.000116352
-5.14267e-06
-0.000118015
-4.24988e-06
-0.000119379
-3.3422e-06
-0.000120447
-2.42282e-06
-0.000121219
-1.49508e-06
-0.000121697
-5.62579e-07
-0.000121878
4.43129e-07
-0.000122799
1.44643e-06
-0.00012239
2.44334e-06
-0.000121676
3.42999e-06
-0.00012066
4.40267e-06
-0.000119339
5.3578e-06
-0.000117711
6.292e-06
-0.000115774
7.20211e-06
-0.000113524
8.08518e-06
-0.000110959
8.93852e-06
-0.000108073
9.75964e-06
-0.000104861
1.05463e-05
-0.00010132
1.12964e-05
-9.74417e-05
1.20081e-05
-9.32206e-05
1.26796e-05
-8.86497e-05
1.33092e-05
-8.37215e-05
1.38953e-05
-7.84283e-05
1.44363e-05
-7.27619e-05
1.4931e-05
-6.67137e-05
1.53778e-05
-6.02788e-05
1.57745e-05
-5.34619e-05
1.61183e-05
-4.62544e-05
1.64056e-05
-3.85681e-05
1.66302e-05
-3.02912e-05
1.67849e-05
-2.19575e-05
1.68914e-05
-1.47256e-05
-6.79851e-06
-1.69104e-05
-6.40791e-06
-1.68322e-05
-1.44548e-05
-1.67155e-05
-2.16405e-05
-1.65427e-05
-2.98829e-05
-1.63191e-05
-3.80799e-05
-1.60487e-05
-4.56989e-05
-1.57337e-05
-5.28479e-05
-1.53754e-05
-5.96153e-05
-1.49744e-05
-6.60103e-05
-1.45317e-05
-7.20277e-05
-1.40477e-05
-7.76718e-05
-1.35231e-05
-8.29509e-05
-1.29582e-05
-8.78732e-05
-1.23536e-05
-9.24463e-05
-1.171e-05
-9.66774e-05
-1.10283e-05
-0.000100573
-1.03095e-05
-0.000104139
-9.55509e-06
-0.000107382
-8.76673e-06
-0.000110306
-7.94646e-06
-0.000112915
-7.09664e-06
-0.000115214
-6.21993e-06
-0.000117206
-5.31936e-06
-0.000118893
-4.39817e-06
-0.000120278
-3.45984e-06
-0.000121363
-2.50809e-06
-0.000122148
-1.54681e-06
-0.000122635
-5.80277e-07
-0.000122822
4.60555e-07
-0.000123817
1.49848e-06
-0.000123405
2.52873e-06
-0.000122684
3.54694e-06
-0.000121655
4.54889e-06
-0.000120318
5.53056e-06
-0.00011867
6.4882e-06
-0.000116709
7.41831e-06
-0.000114432
8.31775e-06
-0.000111835
9.18368e-06
-0.000108916
1.00136e-05
-0.000105669
1.08053e-05
-0.000102089
1.1557e-05
-9.81706e-05
1.22669e-05
-9.39079e-05
1.29336e-05
-8.92938e-05
1.35559e-05
-8.43212e-05
1.41325e-05
-7.89824e-05
1.46623e-05
-7.32692e-05
1.51441e-05
-6.7173e-05
1.55772e-05
-6.06895e-05
1.59606e-05
-5.38231e-05
1.62923e-05
-4.65638e-05
1.65694e-05
-3.8823e-05
1.67859e-05
-3.0486e-05
1.69346e-05
-2.20854e-05
1.70369e-05
-1.48041e-05
-6.85825e-06
-1.70527e-05
-6.43523e-06
-1.69809e-05
-1.45031e-05
-1.68732e-05
-2.17277e-05
-1.67127e-05
-3.0022e-05
-1.65044e-05
-3.82664e-05
-1.62516e-05
-4.59298e-05
-1.59557e-05
-5.31218e-05
-1.56172e-05
-5.99317e-05
-1.52363e-05
-6.63692e-05
-1.48127e-05
-7.24291e-05
-1.43464e-05
-7.81159e-05
-1.38371e-05
-8.34379e-05
-1.32848e-05
-8.84034e-05
-1.26892e-05
-9.30196e-05
-1.20506e-05
-9.72936e-05
-1.13695e-05
-0.000101232
-1.06466e-05
-0.00010484
-9.88328e-06
-0.000108123
-9.0811e-06
-0.000111086
-8.24222e-06
-0.000113732
-7.36916e-06
-0.000116065
-6.46489e-06
-0.000118088
-5.53289e-06
-0.000119803
-4.57688e-06
-0.000121212
-3.6009e-06
-0.000122316
-2.60932e-06
-0.000123117
-1.6068e-06
-0.000123615
-5.98369e-07
-0.000123808
4.85292e-07
-0.000124878
1.56558e-06
-0.000124462
2.63677e-06
-0.000123732
3.69355e-06
-0.000122689
4.73108e-06
-0.000121333
5.74482e-06
-0.000119661
6.73057e-06
-0.000117672
7.68439e-06
-0.000115363
8.60286e-06
-0.000112731
9.48299e-06
-0.000109773
1.03222e-05
-0.000106485
1.11185e-05
-0.000102862
1.18701e-05
-9.88996e-05
1.25757e-05
-9.45909e-05
1.32343e-05
-8.99299e-05
1.38453e-05
-8.49096e-05
1.44079e-05
-7.95226e-05
1.49217e-05
-7.37605e-05
1.5386e-05
-6.7615e-05
1.58004e-05
-6.10815e-05
1.61647e-05
-5.41651e-05
1.64787e-05
-4.68556e-05
1.67409e-05
-3.9063e-05
1.69457e-05
-3.06692e-05
1.70858e-05
-2.22047e-05
1.71818e-05
-1.48764e-05
-6.91526e-06
-1.71945e-05
-6.458e-06
-1.71314e-05
-1.45428e-05
-1.70354e-05
-2.18032e-05
-1.68912e-05
-3.01449e-05
-1.67034e-05
-3.84324e-05
-1.64743e-05
-4.6137e-05
-1.6204e-05
-5.33702e-05
-1.58923e-05
-6.02214e-05
-1.5538e-05
-6.67014e-05
-1.51401e-05
-7.28049e-05
-1.46975e-05
-7.85363e-05
-1.42091e-05
-8.39042e-05
-1.36738e-05
-8.89165e-05
-1.30908e-05
-9.35804e-05
-1.24597e-05
-9.79025e-05
-1.17805e-05
-0.000101889
-1.10536e-05
-0.000105544
-1.02801e-05
-0.000108874
-9.46159e-06
-0.000111882
-8.60039e-06
-0.000114571
-7.69919e-06
-0.000116944
-6.76132e-06
-0.000119004
-5.79094e-06
-0.000120751
-4.79233e-06
-0.000122188
-3.7703e-06
-0.000123316
-2.73003e-06
-0.000124135
-1.67692e-06
-0.000124646
-6.16828e-07
-0.000124846
5.19677e-07
-0.000125992
1.65149e-06
-0.000125572
2.77219e-06
-0.00012483
3.87587e-06
-0.00012377
4.95679e-06
-0.000122391
6.00969e-06
-0.000120691
7.0293e-06
-0.000118669
8.01132e-06
-0.000116322
8.95212e-06
-0.00011365
9.84846e-06
-0.000110647
1.06977e-05
-0.000107312
1.14979e-05
-0.00010364
1.22475e-05
-9.96268e-05
1.29458e-05
-9.52667e-05
1.35922e-05
-9.05539e-05
1.41868e-05
-8.54817e-05
1.47297e-05
-8.0043e-05
1.52213e-05
-7.42298e-05
1.5662e-05
-6.80334e-05
1.60521e-05
-6.14493e-05
1.63919e-05
-5.44826e-05
1.66822e-05
-4.71237e-05
1.69232e-05
-3.9282e-05
1.71114e-05
-3.08356e-05
1.72395e-05
-2.23121e-05
1.73266e-05
-1.49397e-05
-6.9679e-06
-1.73357e-05
-6.47489e-06
-1.7284e-05
-1.45713e-05
-1.72036e-05
-2.18631e-05
-1.7081e-05
-3.02461e-05
-1.69203e-05
-3.85714e-05
-1.67222e-05
-4.63133e-05
-1.64858e-05
-5.35847e-05
-1.62087e-05
-6.04766e-05
-1.58891e-05
-6.6999e-05
-1.55248e-05
-7.31472e-05
-1.51132e-05
-7.89259e-05
-1.4652e-05
-8.43433e-05
-1.41392e-05
-8.94072e-05
-1.3573e-05
-9.41244e-05
-1.29523e-05
-9.85011e-05
-1.22764e-05
-0.000102542
-1.15455e-05
-0.000106253
-1.07603e-05
-0.000109637
-9.92227e-06
-0.000112698
-9.0342e-06
-0.000115437
-8.09902e-06
-0.000117857
-7.12057e-06
-0.00011996
-6.10329e-06
-0.000121746
-5.05249e-06
-0.000123217
-3.97399e-06
-0.000124372
-2.87389e-06
-0.000125213
-1.75868e-06
-0.000125739
-6.35349e-07
-0.000125947
5.65761e-07
-0.00012717
1.76084e-06
-0.000126744
2.94234e-06
-0.000125989
4.10318e-06
-0.000124909
5.23655e-06
-0.000123502
6.33609e-06
-0.000121769
7.39636e-06
-0.000119707
8.4124e-06
-0.000117316
9.37992e-06
-0.000114595
1.02949e-05
-0.00011154
1.11551e-05
-0.00010815
1.19585e-05
-0.000104421
1.27041e-05
-0.00010035
1.33914e-05
-9.59316e-05
1.40207e-05
-9.11608e-05
1.45929e-05
-8.60315e-05
1.51091e-05
-8.05369e-05
1.55709e-05
-7.46693e-05
1.598e-05
-6.84202e-05
1.63381e-05
-6.17852e-05
1.66466e-05
-5.47688e-05
1.69071e-05
-4.73621e-05
1.71204e-05
-3.94732e-05
1.72855e-05
-3.09791e-05
1.73971e-05
-2.24031e-05
1.74719e-05
-1.49909e-05
-7.01345e-06
-1.74758e-05
-6.48487e-06
-1.74387e-05
-1.4585e-05
-1.73793e-05
-2.19022e-05
-1.72849e-05
-3.03192e-05
-1.71594e-05
-3.86752e-05
-1.70013e-05