/*--------------------------------*- C++ -*----------------------------------*\
| =========                 |                                                 |
| \\      /  F ield         | OpenFOAM: The Open Source CFD Toolbox           |
|  \\    /   O peration     | Version:  2212                                  |
|   \\  /    A nd           | Website:  www.openfoam.com                      |
|    \\/     M anipulation  |                                                 |
\*---------------------------------------------------------------------------*/
FoamFile
{
    version     2.0;
    format      ascii;
    arch        "LSB;label=32;scalar=64";
    class       surfaceScalarField;
    location    "0.0008";
    object      phi;
}
// * * * * * * * * * * * * * * * * * * * * * * * * * * * * * * * * * * * * * //

dimensions      [1 0 -1 0 0 0 0];

oriented        oriented;

internalField   nonuniform List<scalar> 
14149
(
3.65551e-05
-2.75675e-05
-2.56495e-05
4.10611e-05
-2.0062e-05
1.60941e-06
-1.66064e-06
2.2858e-05
1.14696e-06
-1.73436e-05
-1.19658e-06
1.7426e-05
-8.85196e-07
7.50166e-07
-1.50956e-05
-2.02842e-05
2.34241e-05
1.34782e-06
1.08592e-06
8.22672e-07
1.9939e-05
-1.73575e-05
-6.98062e-07
-1.98704e-05
2.23287e-05
-9.81003e-07
1.26074e-06
1.7339e-05
-7.14017e-07
6.41663e-07
-1.51066e-05
1.00021e-06
0.000238383
2.52437e-05
-0.000201896
-1.02403e-05
1.98454e-05
-7.3768e-06
-2.03194e-05
7.46408e-06
0.000147297
1.93526e-05
-1.72712e-05
-0.000132912
-0.000276254
0.000320049
-3.61636e-05
4.40249e-05
-0.000426677
7.13029e-06
0.000449872
-6.76333e-06
1.89289e-05
-9.27421e-06
1.2347e-05
-2.1688e-05
-0.000210295
-9.7479e-05
6.69727e-05
0.000240005
-2.1182e-05
-2.08567e-05
2.54487e-05
1.76446e-05
-8.73805e-05
6.28458e-05
-0.000179383
2.01834e-05
-1.46055e-05
1.92233e-05
-2.05615e-05
2.12006e-05
-0.000104412
1.66239e-05
8.14621e-05
6.95475e-05
-1.76881e-05
-5.1081e-05
-1.05063e-05
-2.1617e-06
-1.52499e-05
1.16337e-05
5.32448e-06
-4.97055e-05
2.25355e-05
-3.6648e-05
6.01222e-05
1.82472e-05
1.84127e-05
-1.81097e-05
-1.72777e-05
-3.86665e-06
-7.05963e-06
-2.21036e-07
-1.35701e-05
-1.85755e-05
-1.46489e-05
1.49158e-05
1.83583e-05
0.000101601
-5.47332e-05
-4.47684e-05
4.71362e-05
6.48543e-05
7.80254e-05
-0.000105177
0.000155853
-0.000168196
-7.33626e-05
9.85172e-05
-2.48509e-05
-3.06109e-06
7.76736e-07
2.48033e-05
0.000171572
-5.1341e-05
6.28651e-05
-0.000167928
-8.15811e-06
2.76564e-05
1.17566e-05
-3.12777e-05
-7.63171e-05
0.000153046
8.94876e-05
-9.06538e-06
-1.93581e-05
1.22403e-05
1.80539e-05
8.6601e-06
-2.77808e-05
-8.70805e-06
2.93555e-05
1.05699e-06
-1.5023e-05
1.70745e-05
-1.10183e-06
5.10402e-05
0.000355571
-0.000110999
2.64496e-05
-0.000208605
0.000262882
-3.10414e-05
-8.15365e-11
3.11373e-05
2.72991e-07
-6.42485e-10
-3.10094e-05
2.73052e-07
3.10401e-05
-3.10077e-05
2.71515e-07
3.11354e-05
2.73517e-07
4.37352e-06
3.07264e-05
-5.53034e-06
-2.91196e-05
-3.86849e-06
-3.1391e-05
4.71276e-06
3.09677e-05
2.82684e-05
-3.11715e-05
-7.70902e-07
2.90009e-05
1.4426e-06
-1.98849e-06
3.07268e-05
2.85876e-06
-3.09983e-05
-2.12991e-09
2.73562e-07
-9.79368e-10
-3.09948e-05
2.73143e-07
3.0998e-05
-3.09938e-05
2.70524e-07
2.70832e-07
-3.09919e-05
-2.04098e-09
2.72808e-07
-4.68433e-10
-3.0991e-05
2.72788e-07
3.09922e-05
-3.0991e-05
2.71589e-07
2.70034e-07
-3.09902e-05
-9.48594e-11
2.72369e-07
4.01579e-10
-3.09898e-05
2.72372e-07
3.09904e-05
-3.09898e-05
2.72824e-07
2.72412e-07
-3.09896e-05
1.86217e-10
2.72807e-07
3.2138e-10
-3.09897e-05
2.72855e-07
3.09896e-05
-3.09895e-05
2.73372e-07
2.73123e-07
-3.09901e-05
7.88958e-10
2.72817e-07
1.46494e-09
-3.09915e-05
2.73163e-07
3.09895e-05
-3.099e-05
2.75239e-07
2.73969e-07
-3.09951e-05
1.84309e-09
2.74985e-07
-1.15981e-09
-3.10012e-05
2.8037e-07
3.09911e-05
-3.09944e-05
2.75671e-07
2.76244e-07
-3.10145e-05
-8.22071e-09
2.94742e-07
-2.95276e-08
-3.1023e-05
3.113e-07
3.10021e-05
-3.10232e-05
2.64983e-07
2.72963e-07
-3.10698e-05
-5.46847e-08
3.74989e-07
-2.23357e-07
-3.11037e-05
5.31964e-07
3.10371e-05
-3.11359e-05
1.47144e-07
2.32132e-07
-3.12773e-05
-3.34799e-07
7.81447e-07
-8.52164e-07
-3.11466e-05
9.91016e-07
3.11168e-05
-3.11959e-05
-4.98319e-07
-7.22161e-08
3.12063e-05
1.75789e-06
-1.99443e-06
1.59642e-06
-1.32479e-06
-3.08311e-05
1.5456e-06
-3.07224e-05
1.91043e-06
-2.97289e-05
2.12462e-06
3.12124e-05
-1.97643e-06
4.20168e-10
2.7449e-07
3.14078e-05
2.74707e-07
3.14064e-05
3.10346e-05
-3.10032e-05
7.95707e-07
3.11305e-05
7.97363e-07
-1.43923e-06
-3.17122e-05
2.20149e-06
-7.23693e-07
-3.1665e-05
-2.95373e-05
1.50789e-06
-3.06994e-05
6.57686e-07
3.10244e-05
-3.07553e-05
1.81544e-06
-3.10877e-05
3.10907e-05
1.30946e-06
1.46227e-06
-3.10677e-05
3.10329e-05
9.35673e-07
1.08379e-06
-3.10041e-05
3.10003e-05
8.22791e-07
8.64613e-07
-3.09933e-05
3.09898e-05
8.02655e-07
8.11537e-07
-3.0988e-05
3.09873e-05
7.97901e-07
7.99227e-07
-3.09871e-05
3.09871e-05
7.97231e-07
7.97425e-07
-3.0987e-05
3.09875e-05
7.9638e-07
7.96785e-07
-3.09884e-05
3.09897e-05
7.96072e-07
7.9629e-07
-3.09941e-05
3.10055e-05
7.95653e-07
7.95432e-07
-3.10379e-05
3.1134e-05
7.96467e-07
7.95842e-07
3.09934e-05
-3.09901e-05
7.94113e-07
7.94767e-07
3.09894e-05
-3.09874e-05
7.94031e-07
7.94289e-07
3.09868e-05
-3.09863e-05
7.96638e-07
7.96206e-07
3.09861e-05
-3.09857e-05
7.97426e-07
7.97121e-07
3.09858e-05
-3.09854e-05
7.99403e-07
7.98485e-07
3.09849e-05
-3.09861e-05
8.01917e-07
8.00701e-07
3.09893e-05
-3.09931e-05
7.94316e-07
8.01506e-07
3.09987e-05
-3.10044e-05
6.75106e-07
7.63331e-07
3.10399e-05
-3.10817e-05
1.1555e-07
4.75755e-07
-6.56645e-07
-3.047e-05
2.17083e-06
3.14062e-05
7.9838e-07
7.98748e-07
3.14027e-05
3.15473e-05
-3.54828e-05
-4.12749e-07
3.11143e-05
-3.5129e-07
1.55299e-06
-9.41191e-07
-3.18722e-05
5.02446e-07
-3.16522e-05
-3.00076e-05
2.21843e-06
-2.99599e-05
2.02768e-06
-3.00781e-05
3.03565e-05
3.20828e-06
-3.21486e-05
2.52012e-06
-3.04251e-05
1.70304e-06
-3.00391e-05
3.2862e-06
-3.06608e-05
3.08265e-05
2.87653e-06
3.11228e-06
-3.08883e-05
3.09704e-05
2.42487e-06
2.61012e-06
-3.09617e-05
3.09997e-05
2.08421e-06
2.2809e-06
-3.09966e-05
3.09899e-05
2.01458e-06
2.05285e-06
-3.09839e-05
3.09809e-05
1.99056e-06
2.00233e-06
-3.09793e-05
3.09786e-05
1.98385e-06
1.98587e-06
-3.09782e-05
3.09781e-05
1.98298e-06
1.98318e-06
-3.0978e-05
3.09782e-05
1.98137e-06
1.98233e-06
-3.09784e-05
3.09793e-05
1.98041e-06
1.9814e-06
-3.09825e-05
3.09932e-05
1.97866e-06
1.97943e-06
-3.10263e-05
3.11233e-05
1.97867e-06
1.97785e-06
7.99359e-07
-2.73909e-07
3.2125e-05
-3.13965e-05
3.21181e-05
1.98192e-06
1.98113e-06
-1.32582e-09
2.76049e-07
3.2125e-05
3.21258e-05
3.13924e-05
-3.11189e-05
1.98178e-06
-8.00483e-07
1.98349e-06
3.21137e-05
3.21224e-05
3.10222e-05
-3.09905e-05
1.98011e-06
1.9807e-06
3.09811e-05
-3.09786e-05
1.9793e-06
1.97981e-06
3.09786e-05
-3.0978e-05
1.97868e-06
1.97983e-06
3.09776e-05
-3.0977e-05
1.98131e-06
1.98093e-06
3.09766e-05
-3.09767e-05
1.98275e-06
1.98197e-06
3.09762e-05
-3.09753e-05
1.98436e-06
1.98354e-06
3.09741e-05
-3.09731e-05
1.9874e-06
1.98575e-06
3.09719e-05
-3.09677e-05
1.97733e-06
1.98732e-06
3.09596e-05
-3.09452e-05
1.84201e-06
1.94021e-06
3.09483e-05
-3.09947e-05
1.2707e-06
1.65424e-06
6.51158e-07
3.18142e-05
-3.17651e-05
2.57214e-06
2.94093e-06
3.18514e-05
-3.30532e-05
3.18953e-06
3.12424e-05
2.69352e-06
7.97609e-07
-2.72928e-07
3.38822e-05
1.98044e-06
3.38773e-05
3.13665e-05
-3.10939e-05
4.58687e-06
3.20895e-05
4.58558e-06
-5.25892e-07
-3.18507e-05
-1.48292e-06
2.41788e-06
-3.16336e-05
-1.11472e-06
-3.17824e-05
1.84976e-06
-3.11832e-05
-3.01389e-05
3.02738e-05
5.80733e-06
3.17241e-05
-3.1615e-05
4.71013e-06
3.19415e-05
4.77891e-06
3.21218e-06
-3.02163e-05
-3.24528e-05
4.40363e-06
-3.00493e-05
5.98701e-06
-3.04784e-05
3.06804e-05
5.33515e-06
5.59835e-06
-3.07192e-05
3.08303e-05
4.92784e-06
5.20044e-06
-3.09302e-05
3.09323e-05
4.6889e-06
4.78978e-06
-3.09493e-05
3.09584e-05
4.6124e-06
4.64233e-06
-3.09607e-05
3.09583e-05
4.59998e-06
4.60646e-06
-3.09574e-05
3.09569e-05
4.59211e-06
4.59433e-06
-3.09566e-05
3.09566e-05
4.59079e-06
4.59151e-06
-3.09563e-05
3.09561e-05
4.58877e-06
4.59008e-06
-3.09563e-05
3.09566e-05
4.58704e-06
4.58862e-06
-3.09584e-05
3.09679e-05
4.58425e-06
4.5862e-06
-3.09993e-05
3.10963e-05
4.5809e-06
4.58231e-06
-3.13705e-05
3.20939e-05
4.58204e-06
4.58327e-06
-1.32743e-09
2.75549e-07
3.38813e-05
3.38821e-05
-8.00077e-07
1.98262e-06
3.38726e-05
3.38793e-05
3.0997e-05
-3.09665e-05
4.58761e-06
4.58519e-06
3.09564e-05
-3.09553e-05
4.58818e-06
4.58615e-06
3.09548e-05
-3.09565e-05
4.58782e-06
4.58713e-06
3.09559e-05
-3.09557e-05
4.58878e-06
4.58779e-06
3.09551e-05
-3.09547e-05
4.59027e-06
4.58912e-06
3.09538e-05
-3.09528e-05
4.59219e-06
4.59088e-06
3.09512e-05
-3.09485e-05
4.59458e-06
4.59331e-06
3.09445e-05
-3.09338e-05
4.57476e-06
4.5933e-06
3.09248e-05
-3.08829e-05
4.40185e-06
4.53709e-06
3.09187e-05
-3.09813e-05
3.89401e-06
4.27348e-06
3.36859e-06
4.87555e-06
4.5788e-06
3.38566e-05
3.38505e-05
4.58361e-06
3.99846e-07
-3.23052e-05
2.29811e-06
-1.62525e-06
-3.12517e-05
-3.1186e-05
4.22558e-06
-9.4206e-07
-3.17929e-05
6.0612e-06
-3.0038e-05
3.18429e-05
-3.2205e-05
8.73581e-06
3.11995e-05
8.50979e-06
-3.19872e-05
9.3444e-06
3.26692e-06
-3.02619e-05
3.20371e-05
-3.13136e-05
9.93849e-06
3.37999e-05
9.93097e-06
1.97917e-06
-7.98545e-07
3.77908e-05
4.57654e-06
3.77708e-05
3.80059e-06
-3.39791e-05
-1.64332e-06
-3.13063e-05
-2.07316e-06
-3.04732e-05
3.64006e-06
-1.80832e-06
-3.04773e-05
2.89819e-05
-3.38993e-06
-2.8138e-05
6.23002e-06
-3.02493e-06
3.0946e-05
5.18561e-06
-2.95864e-05
-1.79521e-06
-1.61547e-06
-3.13694e-05
3.01055e-05
1.1698e-05
-3.00214e-05
-3.01987e-05
3.03526e-05
1.11823e-05
1.1503e-05
-3.05103e-05
3.06027e-05
1.06632e-05
1.09086e-05
-3.07774e-05
3.08564e-05
1.02327e-05
1.0418e-05
-3.08743e-05
3.08942e-05
1.00394e-05
1.01422e-05
-3.08992e-05
3.09023e-05
9.97922e-06
1.00049e-05
-3.0907e-05
3.09105e-05
9.96589e-06
9.97108e-06
-3.09093e-05
3.09095e-05
9.96189e-06
9.96525e-06
-3.09095e-05
3.0909e-05
9.95991e-06
9.96106e-06
-3.09089e-05
3.09089e-05
9.95775e-06
9.95951e-06
-3.09091e-05
3.0909e-05
9.95617e-06
9.95771e-06
-3.09091e-05
3.09173e-05
9.95234e-06
9.95647e-06
-3.09465e-05
3.1041e-05
9.94475e-06
9.94903e-06
9.94601e-06
-1.97636e-06
4.57211e-06
3.77777e-05
7.94969e-07
-2.7167e-07
3.77987e-05
3.77954e-05
-1.70306e-09
2.7504e-07
3.77969e-05
3.77978e-05
3.77953e-05
-3.20339e-05
3.37951e-05
9.94153e-06
3.13132e-05
-3.10411e-05
9.95321e-06
9.94918e-06
3.09464e-05
-3.09155e-05
9.95696e-06
9.95262e-06
3.09088e-05
-3.09069e-05
9.95896e-06
9.95836e-06
3.09072e-05
-3.09077e-05
9.9587e-06
9.95755e-06
3.09079e-05
-3.09077e-05
9.95909e-06
9.95826e-06
3.09075e-05
-3.09066e-05
9.96045e-06
9.95956e-06
3.09059e-05
-3.0905e-05
9.96385e-06
9.96181e-06
3.09032e-05
-3.09005e-05
9.96626e-06
9.96429e-06
3.08972e-05
-3.08878e-05
9.94028e-06
9.96354e-06
3.0876e-05
-3.08727e-05
9.76404e-06
9.89774e-06
3.08697e-05
-3.09454e-05
9.27863e-06
9.60878e-06
8.85298e-06
3.17426e-05
-3.15525e-05
9.69576e-06
9.75201e-06
3.14778e-05
-3.14012e-05
9.16596e-06
9.71344e-06
7.99469e-06
6.13782e-06
-2.99835e-05
9.9182e-06
3.77198e-05
3.77155e-05
9.92462e-06
3.13784e-05
-3.16697e-05
1.89864e-05
3.09657e-05
1.88976e-05
-3.16103e-05
1.92689e-05
3.18494e-05
1.53284e-05
-3.28525e-05
3.15528e-06
-2.82524e-05
-1.53744e-06
-3.167e-05
-2.49058e-06
-3.01694e-05
-1.90819e-06
-2.90415e-05
-5.05984e-06
-2.99889e-05
-1.06364e-05
-2.8049e-05
2.39948e-05
2.36844e-05
-3.00707e-05
3.00967e-05
2.2294e-05
-1.58561e-06
-2.9677e-05
1.19398e-05
-2.99812e-05
-3.00197e-05
2.26972e-05
-5.15629e-06
-2.94976e-05
-3.02557e-05
3.03885e-05
2.14525e-05
2.18306e-05
-3.05179e-05
3.06392e-05
2.08341e-05
2.11154e-05
-3.07084e-05
3.07436e-05
2.04437e-05
2.06136e-05
-3.07829e-05
3.08014e-05
2.0261e-05
2.03343e-05
-3.0806e-05
3.08107e-05
2.02139e-05
2.02346e-05
-3.0812e-05
3.08126e-05
2.02025e-05
2.02068e-05
-3.08141e-05
3.08144e-05
2.01992e-05
2.02005e-05
-3.08145e-05
3.08143e-05
2.01966e-05
2.01978e-05
-3.08144e-05
3.08143e-05
2.01947e-05
2.01969e-05
-3.08142e-05
3.08137e-05
2.01923e-05
2.01943e-05
-3.08138e-05
3.08203e-05
2.01872e-05
2.01928e-05
-3.08467e-05
3.09363e-05
2.01761e-05
2.01828e-05
-3.12061e-05
3.1925e-05
2.01565e-05
2.01736e-05
-3.36826e-05
3.75975e-05
2.01089e-05
2.0139e-05
-9.88771e-06
2.00477e-05
4.54892e-05
4.55819e-06
-1.96838e-06
4.56881e-05
4.56282e-05
7.90399e-07
-2.69548e-07
4.57093e-05
4.57061e-05
-1.67048e-09
2.73254e-07
4.57093e-05
4.57102e-05
-7.93988e-07
1.97171e-06
4.57028e-05
4.57064e-05
-4.56165e-06
9.89532e-06
4.56236e-05
4.56841e-05
-3.75935e-05
4.54812e-05
2.0068e-05
3.3684e-05
-3.19306e-05
2.01632e-05
2.01251e-05
3.1211e-05
-3.0943e-05
2.01881e-05
2.01744e-05
3.08504e-05
-3.08215e-05
2.01952e-05
2.01872e-05
3.08137e-05
-3.08133e-05
2.01985e-05
2.01977e-05
3.08132e-05
-3.08133e-05
2.01979e-05
2.01952e-05
3.08133e-05
-3.08133e-05
2.01982e-05
2.01968e-05
3.08128e-05
-3.08124e-05
2.02004e-05
2.01984e-05
3.08109e-05
-3.08097e-05
2.02056e-05
2.02009e-05
3.08089e-05
-3.08056e-05
2.02097e-05
2.02068e-05
3.08021e-05
-3.07904e-05
2.0181e-05
2.02063e-05
3.07766e-05
-3.07277e-05
1.99422e-05
2.01277e-05
3.07547e-05
-3.08211e-05
1.94794e-05
1.98146e-05
1.90401e-05
3.14349e-05
-3.14203e-05
1.96273e-05
1.95256e-05
3.13176e-05
-3.14265e-05
1.91219e-05
1.9544e-05
1.80431e-05
-6.08508e-06
1.21713e-05
-3.01003e-05
-2.99478e-05
7.51982e-07
-3.33996e-05
-2.99315e-05
2.30636e-05
3.09977e-05
-3.11307e-05
3.67048e-05
3.07892e-05
3.67138e-05
-3.10772e-05
3.68223e-05
3.73553e-05
-3.34659e-05
3.79437e-05
4.51968e-05
3.7836e-05
9.84015e-06
-4.53507e-06
6.00965e-05
1.99553e-05
5.99156e-05
-4.34803e-06
-2.95912e-05
-1.83329e-06
-2.94714e-05
-1.19575e-06
-2.9402e-05
2.05069e-05
-2.93064e-05
-9.85944e-06
-2.84974e-05
2.84163e-05
3.80222e-05
-1.9418e-05
-2.90057e-05
3.71701e-05
-2.97582e-05
-9.40494e-06
1.27208e-05
-6.34396e-06
-3.03674e-05
1.23999e-06
-3.31955e-05
-2.3685e-06
-2.97168e-05
-3.20737e-05
3.34847e-06
2.37322e-05
-2.98145e-05
-2.99201e-05
-4.79191e-06
2.99614e-05
-2.98099e-05
4.15483e-05
-3.00515e-05
3.01391e-05
4.04217e-05
4.10272e-05
-3.02538e-05
3.03482e-05
3.93878e-05
3.98253e-05
-3.04379e-05
3.05253e-05
3.86982e-05
3.89996e-05
-3.05644e-05
3.05895e-05
3.83235e-05
3.84907e-05
-3.06184e-05
3.06218e-05
3.81651e-05
3.82108e-05
-3.06301e-05
3.0634e-05
3.81219e-05
3.81327e-05
-3.0636e-05
3.06369e-05
3.811e-05
3.8113e-05
-3.06361e-05
3.06376e-05
3.81038e-05
3.8108e-05
-3.06387e-05
3.06385e-05
3.81033e-05
3.81032e-05
-3.06385e-05
3.06385e-05
3.80986e-05
3.8102e-05
-3.06386e-05
3.06376e-05
3.80943e-05
3.8098e-05
-3.06382e-05
3.0644e-05
3.80889e-05
3.80933e-05
-3.06682e-05
3.07547e-05
3.80753e-05
3.80859e-05
-3.1017e-05
3.17248e-05
3.80414e-05
3.80721e-05
3.80072e-05
-9.8322e-06
1.99426e-05
5.99174e-05
4.53148e-06
-1.95578e-06
6.0175e-05
6.00984e-05
7.84046e-07
-2.67196e-07
6.02048e-05
6.01976e-05
-1.69922e-09
2.70272e-07
6.02056e-05
6.0208e-05
-7.87249e-07
1.95834e-06
6.0195e-05
6.02001e-05
6.01716e-05
-3.73573e-05
4.52012e-05
3.78673e-05
3.34781e-05
-3.17328e-05
3.80422e-05
3.79826e-05
3.1026e-05
-3.07601e-05
3.80906e-05
3.80719e-05
3.06737e-05
-3.0647e-05
3.8106e-05
3.80948e-05
3.06387e-05
-3.06375e-05
3.81073e-05
3.81074e-05
3.06391e-05
-3.06375e-05
3.81083e-05
3.81076e-05
3.06373e-05
-3.06368e-05
3.81103e-05
3.81075e-05
3.06365e-05
-3.06353e-05
3.81132e-05
3.81112e-05
3.06346e-05
-3.06333e-05
3.81234e-05
3.81148e-05
3.06308e-05
-3.06297e-05
3.81367e-05
3.81216e-05
3.06262e-05
-3.06192e-05
3.81175e-05
3.81313e-05
3.05981e-05
-3.061e-05
3.7859e-05
3.80322e-05
3.06375e-05
-3.06491e-05
3.72952e-05
3.76951e-05
3.68706e-05
3.10398e-05
-3.10211e-05
3.72308e-05
3.70689e-05
3.10825e-05
-3.1192e-05
3.69007e-05
3.7253e-05
3.13997e-05
-3.32192e-05
3.56544e-05
3.59513e-05
3.78525e-05
-3.18712e-05
-2.95582e-05
4.22073e-05
3.76264e-05
5.95515e-05
5.95519e-05
3.76565e-05
-3.05009e-05
3.04134e-05
6.49364e-05
-3.05847e-05
6.48986e-05
-1.39441e-05
2.46817e-05
-2.92446e-05
-8.80763e-06
-2.92004e-05
-2.70234e-05
-1.05143e-05
-2.15557e-06
-2.90506e-05
-8.73494e-07
-2.93464e-05
-1.08593e-06
-2.968e-05
-1.89518e-05
3.67594e-05
-2.94923e-05
-3.00138e-05
-9.05266e-06
-4.31106e-05
7.12123e-05
-2.35256e-05
2.15075e-05
-3.00351e-05
-4.44517e-06
-6.95137e-06
-2.67496e-05
3.01872e-05
2.21326e-06
-2.25819e-06
-3.00169e-05
4.30555e-05
-2.91172e-05
2.94583e-05
-2.91745e-05
7.16333e-05
-2.96987e-05
2.98365e-05
7.02637e-05
7.08804e-05
-2.99151e-05
3.00199e-05
6.88306e-05
6.95727e-05
-3.01181e-05
3.01712e-05
6.77854e-05
6.82468e-05
-3.02276e-05
3.02499e-05
6.70929e-05
6.7374e-05
-3.02986e-05
3.032e-05
6.67303e-05
6.68623e-05
-3.03277e-05
3.03341e-05
6.65988e-05
6.66528e-05
-3.03329e-05
3.0336e-05
6.65647e-05
6.65819e-05
-3.03363e-05
3.03362e-05
6.65513e-05
6.65581e-05
-3.03366e-05
3.03398e-05
6.65365e-05
6.6545e-05
-3.03398e-05
3.03387e-05
6.65324e-05
6.65335e-05
-3.03407e-05
3.03376e-05
6.65272e-05
6.65279e-05
-3.03388e-05
3.03394e-05
6.65215e-05
6.65224e-05
-3.03408e-05
3.03448e-05
6.6517e-05
6.65209e-05
-3.03698e-05
3.04439e-05
6.65125e-05
6.65114e-05
-3.07096e-05
3.13994e-05
6.64558e-05
6.64855e-05
-3.31076e-05
3.69379e-05
6.62939e-05
6.6402e-05
-4.47018e-05
5.89053e-05
6.57287e-05
6.60908e-05
-3.72819e-05
6.51209e-05
8.22543e-05
1.97584e-05
-9.74132e-06
8.36392e-05
8.31382e-05
4.48572e-06
-1.93327e-06
8.39972e-05
8.38898e-05
7.75262e-07
-2.64106e-07
8.40533e-05
8.40382e-05
-9.32505e-10
2.6623e-07
8.40579e-05
8.40607e-05
-7.77095e-07
1.93668e-06
8.40384e-05
8.4049e-05
-4.48943e-06
9.74613e-06
8.38911e-05
8.39995e-05
-1.97674e-05
3.73038e-05
8.31377e-05
8.364e-05
-5.89199e-05
8.22637e-05
6.51653e-05
4.47297e-05
-3.69731e-05
6.61441e-05
6.57933e-05
3.31415e-05
-3.14172e-05
6.64362e-05
6.63525e-05
3.07239e-05
-3.04571e-05
6.65129e-05
6.65001e-05
3.03755e-05
-3.03475e-05
6.65401e-05
6.65337e-05
3.03436e-05
-3.03393e-05
6.65439e-05
6.65471e-05
3.03385e-05
-3.03389e-05
6.65515e-05
6.65488e-05
3.03379e-05
-3.03371e-05
6.65562e-05
6.65498e-05
3.03363e-05
-3.0335e-05
6.65621e-05
6.65592e-05
3.0335e-05
-3.03306e-05
6.65747e-05
6.65668e-05
3.03334e-05
-3.03284e-05
6.66013e-05
6.65838e-05
3.03315e-05
-3.03172e-05
6.65946e-05
6.66171e-05
3.03068e-05
-3.03175e-05
6.63433e-05
6.65169e-05
3.02835e-05
-3.03404e-05
6.5705e-05
6.60783e-05
6.52018e-05
3.05483e-05
-3.05687e-05
6.54591e-05
-3.05847e-05
6.49701e-05
6.51881e-05
3.05255e-05
-3.05138e-05
6.51396e-05
6.54862e-05
3.05889e-05
-3.06205e-05
6.45216e-05
6.45379e-05
2.90076e-05
-2.8254e-05
6.57649e-05
6.52967e-05
2.83347e-05
-2.86601e-05
6.52465e-05
6.53813e-05
3.03012e-05
7.08121e-05
-3.35462e-05
2.89239e-05
-3.57919e-05
6.58296e-05
3.6505e-05
-3.00208e-05
-1.85591e-05
6.51332e-05
-2.8677e-05
2.3694e-05
1.29666e-05
-2.43735e-05
-1.18491e-05
4.39573e-05
-2.53888e-05
-2.87348e-05
-2.88675e-05
7.25056e-05
-5.94509e-07
-2.84019e-05
-1.00869e-06
-1.51204e-05
5.79163e-05
-4.39559e-05
0.000105535
8.08848e-05
0.000104551
3.67453e-05
-1.94713e-05
0.000117701
6.42099e-05
0.00011646
-7.52068e-07
-2.89533e-05
-3.05901e-05
-1.78631e-05
-5.62893e-07
-2.94165e-05
-3.01998e-05
-8.69961e-06
-3.01404e-05
-4.01305e-06
-9.48797e-07
-2.9955e-05
-2.00636e-06
-3.01323e-05
2.40832e-05
-1.28944e-06
1.78528e-06
-7.41944e-06
-2.72795e-05
2.63128e-05
2.30276e-05
-2.64159e-05
-5.54034e-06
9.0092e-06
2.61379e-05
-1.41794e-05
2.51619e-05
-2.12759e-05
-2.33815e-05
2.09646e-05
2.13398e-06
-2.63326e-05
-9.9075e-07
2.32618e-05
-1.45803e-05
-2.85564e-05
-8.96857e-06
-2.83532e-05
-2.6942e-05
-1.89162e-05
3.17026e-05
1.35013e-05
2.58027e-05
-1.45038e-05
-2.82148e-05
2.39405e-05
0.000107562
-1.5857e-05
2.60194e-05
0.000105352
5.21544e-06
-2.54988e-06
-2.76614e-05
2.56676e-05
6.42919e-06
-2.73962e-05
4.45449e-05
-2.83946e-05
-1.82094e-05
1.49626e-05
-2.85108e-05
7.29229e-05
2.60849e-05
-2.02522e-05
-1.91365e-05
1.53624e-05
4.49388e-05
-2.61401e-05
-2.81039e-05
-2.83811e-05
7.31286e-05
3.30789e-06
-1.89903e-06
2.41595e-05
2.59482e-05
-7.18141e-05
-1.41802e-05
9.38826e-05
7.21732e-05
-4.47226e-05
-2.78197e-05
-3.10675e-05
2.99773e-05
0.000111373
-7.04736e-05
0.000100662
-2.92748e-05
2.90916e-05
0.000112404
0.000112496
-2.92089e-05
2.93432e-05
0.000111339
0.000111973
-2.94592e-05
2.95957e-05
0.00011024
0.000110755
-2.96778e-05
2.97222e-05
0.000108862
0.000109585
-2.97482e-05
2.97949e-05
0.00010781
0.000108282
-2.9825e-05
2.98505e-05
0.000107263
0.000107508
-2.98629e-05
2.98677e-05
0.000106939
0.000107084
-2.9874e-05
2.98711e-05
0.00010685
0.000106905
-2.9871e-05
2.98696e-05
0.000106824
0.000106843
-2.98724e-05
2.98706e-05
0.000106807
0.000106815
-2.98781e-05
2.98781e-05
0.000106781
0.000106786
-2.98808e-05
2.98842e-05
0.000106761
0.00010677
-2.98824e-05
2.98841e-05
0.000106758
0.000106757
-2.98851e-05
2.98852e-05
0.00010675
0.000106753
-2.98839e-05
2.98872e-05
0.000106739
0.000106747
-2.99085e-05
3.00015e-05
0.00010673
0.000106736
-3.02492e-05
3.09271e-05
0.000106667
0.00010671
-3.25846e-05
3.63429e-05
0.000106431
0.000106615
0.000106115
-3.67389e-05
6.41676e-05
0.000116474
1.94642e-05
-9.5939e-06
0.000118406
0.000117697
4.41639e-06
-1.90226e-06
0.000118935
0.000118771
7.62861e-07
-2.59677e-07
0.000119037
0.000119008
-1.81834e-09
2.61724e-07
0.000119043
0.000119046
-7.63073e-07
1.90425e-06
0.000119006
0.000119031
-4.41818e-06
9.5967e-06
0.000118773
0.000118938
0.000118409
-5.79362e-05
8.08843e-05
0.000104638
4.39817e-05
-3.63843e-05
0.000106206
0.000105633
3.2623e-05
-3.09444e-05
0.000106639
0.000106512
3.02583e-05
-3.00069e-05
0.000106749
0.000106727
2.99187e-05
-2.98903e-05
0.000106777
0.000106773
2.98826e-05
-2.98833e-05
0.000106785
0.000106781
2.98822e-05
-2.98791e-05
0.0001068
0.000106799
2.9879e-05
-2.98775e-05
0.00010681
0.000106796
2.98741e-05
-2.98721e-05
0.000106823
0.000106817
2.98742e-05
-2.98775e-05
0.000106853
0.00010684
2.98681e-05
-2.98664e-05
0.000106891
0.000106851
2.98631e-05
-2.98428e-05
0.000106896
0.000106949
2.98413e-05
-2.98343e-05
0.000106689
0.000106892
2.97839e-05
-2.97875e-05
0.000105916
0.000106339
2.98412e-05
-2.98918e-05
0.000105031
0.000105421
2.99527e-05
-2.99714e-05
0.000105
0.000104975
3.00268e-05
-3.00181e-05
0.000105537
0.0001053
2.9802e-05
-2.96753e-05
0.000105417
0.000105535
2.95451e-05
-2.91037e-05
0.00010493
0.000105124
2.81816e-05
-2.7508e-05
0.000105916
0.000105416
2.69912e-05
-2.62858e-05
0.00010499
0.000105322
0.000105684
-8.25645e-06
-2.96661e-05
9.69252e-06
-5.36934e-06
-3.04145e-05
-2.66448e-05
2.16126e-05
-2.78529e-05
-2.77671e-05
2.49219e-05
-2.9014e-05
1.02597e-05
-1.13868e-05
6.92661e-05
-8.60995e-05
0.000141985
-5.89876e-05
-1.44177e-05
2.41337e-05
-1.57952e-05
7.43202e-06
-2.69728e-05
-2.51683e-05
0.000103034
0.00011454
0.000114529
0.000103123
1.08725e-05
2.26581e-05
-8.36913e-06
-2.7921e-05
-2.74061e-06
4.83045e-06
-2.78225e-05
-1.29199e-06
-2.83538e-05
-7.63793e-08
-2.88846e-05
-3.08951e-05
-1.61844e-05
2.99298e-06
-4.88306e-06
-2.79939e-05
2.71352e-05
-1.45367e-05
-2.80483e-05
-2.15858e-05
2.32589e-05
0.000154392
0.000154875
-1.79253e-05
0.000111711
-1.09245e-05
-7.56601e-05
-2.43788e-08
-2.92676e-05
-3.03644e-05
-8.10845e-06
-3.01527e-05
-3.72282e-06
-2.60882e-05
-2.76322e-05
-0.000343333
-2.30461e-05
0.000463638
-8.56708e-05
-2.79184e-07
-2.96223e-05
-2.30692e-05
3.53976e-05
0.000279893
-0.000228568
-4.49546e-05
-2.57263e-05
2.74924e-05
-9.88492e-07
-7.67428e-07
-3.01288e-05
-3.01655e-05
-1.61135e-06
-2.54792e-05
1.21299e-05
2.66718e-05
-2.76933e-05
1.12746e-05
-1.26607e-05
4.54319e-05
-2.56983e-05
-2.69875e-05
-2.87106e-05
1.0906e-05
-3.01495e-05
1.13226e-05
1.97796e-05
-1.72172e-05
-1.14516e-06
-4.07851e-05
3.25698e-05
0.000167023
0.000179249
-7.14255e-05
-2.98948e-05
2.9196e-05
0.000161259
0.000162752
-2.90721e-05
2.90375e-05
0.000160236
0.000160655
-2.90566e-05
2.91574e-05
0.000159521
0.000159938
-2.91881e-05
2.91914e-05
0.000158341
0.000158929
-2.9209e-05
2.92133e-05
0.000157477
0.000157846
-2.92261e-05
2.92394e-05
0.000157022
0.00015722
-2.92454e-05
2.92341e-05
0.00015676
0.000156889
-2.92413e-05
2.92241e-05
0.00015671
0.000156741
-2.92277e-05
2.92343e-05
0.000156664
0.000156694
-2.92366e-05
2.92413e-05
0.000156649
0.000156659
-2.92498e-05
2.92485e-05
0.000156625
0.000156619
-2.92563e-05
2.926e-05
0.000156597
0.000156599
-2.92651e-05
2.92695e-05
0.000156586
0.000156589
-2.92679e-05
2.9265e-05
0.000156574
0.00015658
-2.92701e-05
2.92753e-05
0.000156564
0.000156565
-2.93009e-05
2.93841e-05
0.000156552
0.000156561
-2.96211e-05
3.02621e-05
0.000156496
0.000156536
-3.19091e-05
3.55613e-05
0.000156169
0.000156392
-4.29802e-05
5.66002e-05
0.000154879
0.000155719
-7.90203e-05
0.000111902
0.000151236
0.000153446
-0.000100925
0.000148152
0.000153998
6.28475e-05
-3.5952e-05
0.000160208
0.00015761
1.90481e-05
-9.38425e-06
0.000162889
0.000161908
4.31712e-06
-1.85755e-06
0.000163643
0.000163403
7.42644e-07
-2.52672e-07
0.000163799
0.000163753
-1.21647e-09
2.55659e-07
0.000163813
0.000163815
-7.46667e-07
1.86001e-06
0.000163757
0.000163798
-4.31988e-06
9.38561e-06
0.000163408
0.000163647
-1.90555e-05
3.59764e-05
0.000161916
0.000162892
-6.28785e-05
0.000101
0.000157588
0.000160214
-0.000111899
0.000153995
0.00014828
7.90289e-05
-5.66259e-05
0.000153578
0.000151383
4.30168e-05
-3.5594e-05
0.000155829
0.000155015
3.19246e-05
-3.02961e-05
0.000156445
0.000156256
2.96299e-05
-2.93839e-05
0.000156588
0.000156556
2.93034e-05
-2.92721e-05
0.000156621
0.000156625
2.92617e-05
-2.92587e-05
0.000156621
0.000156617
2.92582e-05
-2.92591e-05
0.000156645
0.000156638
2.92562e-05
-2.92511e-05
0.000156659
0.000156643
2.92495e-05
-2.92471e-05
0.000156677
0.000156668
2.92389e-05
-2.92246e-05
0.000156726
0.000156708
2.92338e-05
-2.92492e-05
0.000156817
0.000156746
2.92095e-05
-2.92559e-05
0.00015691
0.000156858
2.9196e-05
-2.91617e-05
0.000156652
0.000156828
2.91347e-05
-2.90906e-05
0.000155871
0.000156337
2.90906e-05
-2.91635e-05
0.000154929
0.000155358
2.92434e-05
-2.93136e-05
0.000154805
0.00015482
2.92429e-05
-2.90782e-05
0.000155313
0.000155073
2.89682e-05
-2.85327e-05
0.000155371
0.000155596
2.8314e-05
-2.77393e-05
0.000154819
0.000155405
2.70826e-05
-2.53799e-05
0.000154849
0.000155453
2.50238e-05
-2.43243e-05
0.000154568
0.000155541
0.000155398
-1.69712e-05
2.21226e-05
-2.49374e-05
1.80217e-05
2.21926e-05
-0.000114354
1.93738e-05
0.000190802
-4.08888e-05
-2.25169e-05
2.3647e-05
-2.05109e-05
-1.65605e-06
-2.79446e-05
-2.88015e-05
-2.81532e-05
1.50329e-05
2.34178e-05
2.82711e-05
-2.77571e-05
-1.25466e-05
-1.32739e-05
-1.63342e-05
2.59886e-05
1.02474e-05
-1.51652e-05
2.91593e-05
9.27907e-06
-2.35838e-05
-5.08315e-07
-2.23238e-05
2.3763e-05
-7.77874e-06
-2.80137e-05
-2.2023e-05
2.2005e-05
0.000210644
-2.09504e-05
0.000209354
0.000158812
-1.52244e-05
3.44954e-07
-2.90581e-05
-1.98951e-06
4.14031e-06
-2.82559e-05
-8.79779e-07
-2.86717e-05
-2.18925e-05
2.10505e-05
-2.52006e-05
-2.99799e-05
-7.28865e-06
-1.40092e-06
2.21925e-05
0.000108732
-7.6789e-05
0.00020522
0.00014963
0.000201076
9.83934e-05
-6.12268e-05
0.000206315
0.000144479
0.000201668
-2.99959e-05
-3.3854e-06
1.3495e-05
1.57531e-05
-1.20015e-05
-1.63847e-05
-1.4415e-05
-2.78649e-05
0.000114659
-1.68081e-05
-2.61533e-05
9.52848e-06
2.1488e-05
-1.51382e-05
-1.14953e-06
-1.38323e-05
1.03316e-06
1.38222e-05
1.24821e-06
-1.46114e-06
-1.3608e-05
-2.72993e-05
3.22497e-05
-3.44522e-06
-1.66175e-06
4.07685e-08
-2.93576e-05
2.13285e-05
-2.10439e-05
-2.03666e-05
1.8869e-05
1.97754e-05
2.13134e-05
-2.13407e-05
-2.09058e-05
2.03792e-05
-2.27898e-05
1.90292e-05
2.09986e-05
-2.55149e-05
-2.76528e-06
1.82992e-05
-2.10748e-05
-1.93909e-05
2.12654e-05
1.7944e-05
-2.08567e-05
2.11883e-05
-2.64968e-05
-2.69853e-05
7.47961e-05
-2.39977e-05
-2.90414e-05
-6.09129e-07
2.74572e-05
1.0123e-06
2.0708e-06
-4.25479e-07
-3.12515e-05
2.96566e-05
2.81352e-06
-3.0748e-05
2.77369e-05
4.33841e-07
-2.59802e-05
2.49946e-05
-9.73401e-06
9.1095e-06
-2.25776e-07
-2.96924e-05
-3.0074e-05
-1.42795e-06
-4.63953e-05
-2.28256e-05
-2.36515e-05
1.12561e-05
-1.23142e-05
-6.01473e-07
-3.00571e-05
2.09097e-05
2.04684e-05
-2.08638e-05
-2.14234e-05
-2.1299e-05
2.06854e-05
2.05849e-05
2.13507e-05
1.86947e-05
-7.96897e-05
-9.37731e-06
-2.64355e-05
1.11957e-05
1.96934e-05
2.10273e-05
-2.82602e-05
9.34943e-06
-3.23259e-05
-2.78718e-05
-1.30389e-05
1.9552e-05
-1.01461e-06
4.64797e-05
-2.59801e-05
-2.69685e-05
3.11436e-05
2.25148e-05
-2.49618e-05
2.84917e-05
0.000217531
0.000220989
-1.10633e-05
-2.88351e-05
2.86283e-05
0.000215476
0.000216005
-2.86663e-05
2.85471e-05
0.00021499
0.000214929
-2.85179e-05
2.84636e-05
0.000214681
0.000214851
-2.84797e-05
2.84622e-05
0.000213748
0.000214151
-2.84781e-05
2.84676e-05
0.000213071
0.000213307
-2.8471e-05
2.84772e-05
0.000212709
0.000212865
-2.84742e-05
2.84229e-05
0.000212529
0.000212599
-2.84375e-05
2.84443e-05
0.000212462
0.000212479
-2.84578e-05
2.84649e-05
0.000212407
0.000212431
-2.84771e-05
2.84841e-05
0.000212398
0.000212402
-2.84734e-05
2.85007e-05
0.000212346
0.000212379
-2.85124e-05
2.85172e-05
0.000212352
0.000212345
-2.85226e-05
2.8525e-05
0.000212335
0.000212344
-2.85215e-05
2.85264e-05
0.000212307
0.000212324
-2.85203e-05
2.85323e-05
0.000212299
0.00021231
-2.85517e-05
2.86335e-05
0.000212299
0.000212306
-2.88769e-05
2.95191e-05
0.000212233
0.000212282
-3.10967e-05
3.46385e-05
0.000211828
0.00021211
-4.18286e-05
5.50343e-05
0.000210127
0.000211242
0.000208207
-9.83368e-05
0.000144396
0.000201655
6.11828e-05
-3.50043e-05
0.000209727
0.000206309
1.85312e-05
-9.12239e-06
0.000213219
0.000211935
4.1926e-06
-1.80827e-06
0.000214232
0.000213898
7.23074e-07
-2.45823e-07
0.000214449
0.000214383
-1.75086e-09
2.47707e-07
0.000214471
0.000214471
-7.22387e-07
1.80751e-06
0.000214383
0.000214448
-4.19276e-06
9.12814e-06
0.000213899
0.000214235
-1.85331e-05
3.50196e-05
0.000211928
0.000213223
0.000209728
-0.000108737
0.000149639
0.000201264
7.6812e-05
-5.5069e-05
0.000208378
0.000205441
4.18412e-05
-3.46481e-05
0.000211366
0.00021026
3.10916e-05
-2.95198e-05
0.000212183
0.000211918
2.88663e-05
-2.86254e-05
0.000212344
0.000212301
2.8542e-05
-2.85145e-05
0.000212393
0.000212384
2.84999e-05
-2.85001e-05
0.000212373
0.000212377
2.85033e-05
-2.85008e-05
0.00021241
0.000212396
2.84894e-05
-2.84879e-05
0.000212441
0.000212412
2.84834e-05
-2.84811e-05
0.000212455
0.000212439
2.84663e-05
-2.84749e-05
0.000212533
0.000212477