/*--------------------------------*- C++ -*----------------------------------*\
| =========                 |                                                 |
| \\      /  F ield         | OpenFOAM: The Open Source CFD Toolbox           |
|  \\    /   O peration     | Version:  2212                                  |
|   \\  /    A nd           | Website:  www.openfoam.com                      |
|    \\/     M anipulation  |                                                 |
\*---------------------------------------------------------------------------*/
FoamFile
{
    version     2.0;
    format      ascii;
    arch        "LSB;label=32;scalar=64";
    class       volVectorField;
    location    "0.00378";
    object      U;
}
// * * * * * * * * * * * * * * * * * * * * * * * * * * * * * * * * * * * * * //

dimensions      [0 1 -1 0 0 0 0];

internalField   nonuniform List<vector> 
2681
(
(-0.646592 0.812754 -1.94229e-18)
(0.381856 -7.70489 0)
(-0.0434674 -7.63719 -2.89489e-18)
(0.312994 0.122248 -8.59146e-18)
(-0.172078 -12.5908 2.01251e-18)
(-0.131222 -8.34887 4.98625e-18)
(-0.129514 0.0578587 -2.1369e-18)
(-0.314087 0.124502 2.77843e-19)
(-0.33823 0.155302 5.50889e-19)
(-0.35196 0.168878 -1.38684e-19)
(0.290379 0.110979 0)
(0.383872 0.293757 -1.47314e-19)
(0.385472 0.269827 -1.43036e-19)
(-0.488976 0.503772 0)
(0.405669 0.324883 -6.53788e-19)
(-0.437622 0.326912 1.07117e-18)
(-0.467442 0.411798 0)
(0.324532 0.13695 -6.84669e-19)
(0.338328 0.148617 3.03434e-18)
(0.355474 0.162748 -3.50533e-18)
(0.370428 0.185363 -1.12868e-17)
(0.403274 0.24833 8.31098e-19)
(0.395402 0.226467 -3.32016e-18)
(0.384792 0.206146 2.23672e-18)
(0.406512 0.291964 -1.24101e-18)
(0.407484 0.270872 0)
(0.310608 0.137399 -2.60138e-18)
(0.280271 0.114067 2.43746e-19)
(0.294286 0.12415 1.10737e-18)
(0.337857 0.160259 1.32787e-18)
(0.325662 0.148644 -6.27788e-19)
(0.358397 0.191605 1.3017e-18)
(0.348916 0.176086 -1.13601e-18)
(0.376354 0.226232 5.75537e-19)
(0.368132 0.207619 0)
(0.382618 0.247352 -8.52145e-19)
(-0.400242 0.217864 2.15249e-18)
(-0.410129 0.243643 2.57933e-19)
(-0.411687 0.269698 -5.14323e-19)
(-0.388427 0.282597 -5.21352e-19)
(-0.375288 0.307859 9.59971e-19)
(-0.386218 0.240404 0)
(-0.389571 0.259753 -2.72195e-19)
(-0.372951 0.19899 0)
(-0.381367 0.221543 0)
(0.164967 -8.69117 0)
(-0.364348 0.183655 1.40503e-19)
(-0.322066 0.142695 -1.09492e-18)
(0.249014 0.0931188 0)
(-0.285008 0.119337 -2.78248e-19)
(-0.304168 0.130705 6.57786e-24)
(-0.407563 0.297406 2.04786e-18)
(-0.471109 0.368926 1.53097e-19)
(-0.322813 0.115127 -2.77214e-19)
(-0.301948 0.106089 5.64098e-19)
(0.364552 0.26293 1.42904e-19)
(0.361552 0.284885 -4.29455e-19)
(0.259365 0.103994 -2.89476e-19)
(-0.264865 0.108785 0)
(-0.275043 0.120357 5.52185e-19)
(-0.255885 0.109466 1.38472e-19)
(0.353751 0.146971 0)
(0.335298 0.1326 2.43369e-18)
(0.384707 0.180621 2.89075e-18)
(0.367198 0.162493 -4.95482e-19)
(0.415904 0.222608 -4.5432e-23)
(0.403059 0.200592 0)
(0.428205 0.270265 0)
(0.424919 0.245292 5.32059e-19)
(0.091541 0.0217412 0)
(0.435921 0.297808 1.09789e-18)
(-0.436312 0.259869 2.50305e-19)
(-0.437989 0.291501 -9.01595e-19)
(-0.418967 0.206914 -1.61116e-18)
(-0.430854 0.231036 -4.82786e-19)
(0.379384 0.318551 5.92975e-19)
(0.0276731 0.00258523 0)
(-0.503876 0.447908 7.57378e-18)
(0.147191 -10.6962 4.89163e-18)
(0.298316 0.135099 1.19372e-18)
(0.267382 0.113332 -6.64857e-19)
(0.283897 0.124693 1.68977e-18)
(0.324392 0.160013 0)
(0.312626 0.146884 1.23865e-18)
(0.342819 0.18594 1.24664e-18)
(0.334206 0.17273 -1.19983e-19)
(0.357966 0.221252 0)
(0.351064 0.202758 -5.9742e-19)
(0.362978 0.241664 8.59806e-19)
(-0.363585 0.283575 0)
(-0.359344 0.305639 0)
(-0.365564 0.241051 1.15012e-18)
(-0.366818 0.262123 -1.13105e-18)
(-0.356511 0.206267 2.90528e-19)
(-0.361846 0.224139 0)
(-0.338416 0.173143 0)
(-0.348939 0.188878 -2.81962e-19)
(-0.310438 0.145066 0)
(-0.325785 0.158644 0)
(-0.293296 0.132285 5.48653e-19)
(-0.280238 0.0976275 -7.07724e-20)
(-0.273066 0.104559 7.06647e-20)
(0.354722 0.30753 5.66053e-19)
(0.429488 0.338541 4.58996e-18)
(0.400879 0.354737 0)
(-0.403 0.329983 -2.079e-18)
(0.249063 0.103856 0)
(-0.264723 0.117436 -1.37064e-19)
(-0.246653 0.10681 -6.8509e-19)
(0.462112 0.331926 -6.75527e-18)
(0.463561 0.369662 4.41208e-18)
(0.427529 0.379029 0)
(-0.433704 0.3652 0)
(-0.32806 0.315948 -1.97552e-18)
(-0.340876 0.339451 4.41072e-18)
(-0.31572 0.337686 4.87272e-18)
(-0.286472 0.0892781 -5.62147e-19)
(-0.257543 0.0898401 1.14256e-18)
(-0.263142 0.0824393 5.72884e-19)
(0.275934 0.391272 -2.2018e-18)
(0.485441 0.453877 1.36929e-18)
(-0.473527 0.335505 -3.02002e-19)
(-0.187395 -17.118 -1.01515e-17)
(0.345911 0.331201 1.11648e-18)
(0.37228 0.343662 -1.17247e-18)
(-0.370157 0.335764 0)
(0.230043 0.0959721 0)
(0.260517 -7.80847 7.32671e-18)
(0.23965 0.0957442 4.91618e-20)
(-0.149228 0.843739 0)
(-0.475564 0.565595 2.30767e-18)
(0.324164 0.113829 3.17687e-18)
(0.301175 0.104318 -1.03256e-18)
(0.367071 0.140088 -2.65351e-19)
(0.346609 0.125601 2.71402e-19)
(0.403314 0.173795 -1.52011e-18)
(0.385472 0.155406 5.17893e-19)
(0.435542 0.214598 0)
(0.420966 0.192921 1.01961e-18)
(0.455286 0.263818 5.03983e-19)
(0.446859 0.237488 5.80031e-19)
(0.452493 0.295018 9.47976e-19)
(-0.462592 0.262475 2.47589e-19)
(-0.469071 0.2979 -6.05113e-19)
(-0.441259 0.202523 1.20578e-19)
(-0.453682 0.230085 2.86827e-24)
(-0.516891 0.396065 1.08106e-18)
(-0.294012 0.11417 2.82093e-19)
(0.0309077 -2.085 2.38501e-17)
(-0.330294 0.104856 -2.73848e-19)
(-0.308764 0.0967172 0)
(0.256425 0.110345 1.36157e-19)
(0.220893 0.0933951 1.03637e-18)
(0.239307 0.101054 0)
(0.286296 0.130611 -5.94858e-19)
(0.272144 0.120338 -1.11781e-18)
(0.31118 0.154336 3.05757e-19)
(0.299864 0.142065 -3.00923e-19)
(0.328249 0.179159 -6.0262e-19)
(0.320218 0.166367 5.73535e-19)
(0.340368 0.211448 0)
(0.334991 0.194499 -2.95484e-19)
(0.34465 0.250158 0)
(0.343923 0.230308 -2.84832e-19)
(0.333179 0.29128 -5.52718e-19)
(0.341006 0.270663 0)
(0.469444 0.50256 0)
(0.322672 0.313082 1.07287e-18)
(-0.344152 0.274465 -5.71737e-19)
(-0.336708 0.293494 1.24041e-18)
(-0.345782 0.234947 -5.67567e-19)
(-0.346554 0.254758 1.14543e-18)
(-0.339104 0.201643 -2.84705e-19)
(-0.342832 0.217898 0)
(-0.324079 0.170397 6.81516e-20)
(-0.333072 0.18565 0)
(-0.298166 0.142143 -1.08593e-18)
(-0.312455 0.155879 6.11457e-19)
(-0.281935 0.129233 5.46779e-19)
(-0.243646 0.0992739 4.20536e-19)
(-0.227392 0.0973632 1.35869e-18)
(-0.235607 0.0997315 1.37601e-19)
(-0.251042 0.0957212 -5.6514e-19)
(-0.116229 0.0444662 2.37609e-18)
(0.239193 0.0746936 -3.33788e-18)
(0.242746 0.0683573 -6.75444e-18)
(-0.507829 0.35187 -8.92329e-19)
(0.457432 0.411709 -2.37355e-18)
(0.446604 0.453573 1.23937e-18)
(0.393841 0.382931 2.38968e-18)
(0.33315 0.358034 -3.34563e-18)
(-0.395436 0.364455 0)
(0.210808 0.087587 1.94243e-18)
(-0.328248 0.36881 -2.1964e-18)
(-0.301089 0.358659 2.20642e-18)
(-0.291993 0.0808683 5.59798e-19)
(-0.26811 0.0747339 -7.08493e-19)
(0.417855 0.415655 1.18121e-18)
(-0.428717 0.40529 2.45416e-18)
(0.210785 0.0888283 0)
(0.202619 0.0861973 -5.15504e-19)
(0.0911024 -43.2624 3.19926e-21)
(0.0272328 -48.9635 -4.15261e-21)
(-0.00359462 -48.9586 -3.37598e-20)
(-0.0666549 -43.2578 3.42667e-20)
(-0.20715 0.0890361 -5.4038e-19)
(-0.219482 0.0926856 -5.37815e-19)
(-0.200128 0.0847918 0)
(0.241521 0.348032 5.39238e-18)
(0.495158 0.399101 0)
(-0.13311 0.0472144 -2.54025e-18)
(0.233579 0.0801484 1.09108e-18)
(-0.220759 1.23539 -1.01708e-17)
(-0.124274 -9.27976 6.85943e-18)
(-0.470843 -11.2454 -2.82494e-18)
(0.361205 0.37378 0)
(-0.360653 0.367587 0)
(0.099944 -6.8498 1.14063e-17)
(0.219303 0.0881847 -1.11582e-18)
(0.595255 0.603587 4.46522e-18)
(0.286917 0.0888901 -1.03343e-18)
(0.262928 0.0811293 1.05279e-18)
(0.334724 0.106928 0)
(0.310886 0.0973963 1.04199e-18)
(0.37983 0.131865 2.60903e-19)
(0.357881 0.118097 -5.25788e-19)
(0.420127 0.163258 5.1214e-19)
(0.400538 0.146697 -3.91366e-23)
(0.453994 0.201489 0)
(0.438519 0.181222 -2.54347e-19)
(0.479372 0.251635 0)
(0.467248 0.224091 -6.37693e-20)
(0.497187 0.321509 -1.0142e-18)
(0.487872 0.283309 0)
(0.500871 0.36107 -5.39871e-19)
(-0.494659 0.274174 4.95769e-19)
(-0.503916 0.312062 7.33025e-19)
(-0.466093 0.208109 -6.13383e-19)
(-0.482023 0.238989 -4.87572e-19)
(-0.42686 0.15555 1.27233e-19)
(-0.447632 0.180205 3.10294e-19)
(-0.38164 0.117792 -6.57862e-20)
(-0.404504 0.134345 0)
(-0.337219 0.0956474 -5.2621e-19)
(-0.359312 0.105191 6.7275e-19)
(-0.314932 0.0877649 0)
(-0.0384678 -54.9984 1.04954e-21)
(-0.101875 -61.1329 -1.04866e-21)
(-0.155045 -67.0352 -1.64451e-20)
(-0.18499 -72.2874 5.0364e-20)
(-0.195646 -76.5249 -2.46823e-20)
(-0.200196 -79.302 -4.09705e-21)
(-0.189344 -80.2377 -7.0535e-20)
(-0.155943 -79.9749 -1.281e-19)
(-0.126843 -78.8006 -4.1043e-21)
(-0.119133 -74.6383 -6.2364e-20)
(0.173609 -74.6809 0)
(-0.156273 -58.1197 1.27691e-19)
(-0.0765101 -37.3144 4.38912e-19)
(0.257896 -37.3886 7.72903e-19)
(0.0757528 -58.2802 -2.41745e-19)
(0.200509 -79.9743 1.36575e-19)
(0.160576 -78.8024 2.58976e-19)
(0.228003 -79.3015 2.50908e-20)
(0.223664 -80.2365 0)
(0.213984 -72.283 1.64634e-20)
(0.222026 -76.5258 -1.77326e-23)
(0.124822 -61.1229 1.80602e-20)
(0.178191 -67.0246 -3.76937e-20)
(0.0618744 -54.9909 -1.0496e-21)
(0.247101 0.104778 0)
(0.230834 0.0959828 0)
(0.27531 0.123388 5.80226e-19)
(0.261864 0.113823 0)
(0.298675 0.14567 -2.97595e-19)
(0.287832 0.134131 -2.94261e-19)
(0.314782 0.169585 2.99804e-19)
(0.307344 0.157252 -2.62427e-19)
(0.323987 0.198361 -5.75939e-19)
(0.320204 0.183325 -2.91718e-19)
(0.325826 0.233091 0)
(0.326029 0.215042 5.65237e-19)
(0.313972 0.27081 -5.41987e-19)
(0.321882 0.251955 2.75031e-19)
(-0.320791 1.14295 1.04654e-17)
(0.302199 0.289924 7.33166e-19)
(0.269844 0.330714 1.18732e-19)
(-0.276938 0.334995 0)
(-0.282615 0.381149 -8.56315e-18)
(-0.239237 0.382117 -8.58481e-18)
(-0.252802 0.354864 -1.92042e-18)
(-0.306664 0.295303 5.88446e-19)
(-0.292851 0.313702 0)
(-0.324628 0.25795 -5.73036e-19)
(-0.317428 0.277145 -2.94766e-19)
(-0.328015 0.221292 -2.82169e-19)
(-0.327756 0.239353 5.65115e-19)
(-0.323014 0.190364 8.32872e-19)
(-0.326095 0.2052 0)
(-0.309876 0.161521 4.76021e-19)
(-0.317791 0.175726 -2.74977e-19)
(-0.28589 0.134669 -5.41089e-19)
(-0.299227 0.147816 -5.94166e-19)
(-0.254652 0.111323 1.36002e-19)
(-0.270732 0.122381 2.71482e-19)
(-0.237732 0.101483 1.35719e-19)
(-0.221616 0.0908012 -5.5952e-19)
(-0.214478 0.091147 -5.48651e-19)
(-0.234174 0.0827031 -1.78522e-18)
(-0.228257 0.087742 6.35417e-19)
(-0.243436 0.0693453 5.74378e-19)
(-0.239169 0.0762844 0)
(-0.269429 1.02413 0)
(0.401737 1.24584 -5.02065e-18)
(0.38154 0.415109 -1.16658e-18)
(0.317023 0.385558 4.36185e-18)
(-0.313334 0.396447 -4.4081e-18)
(-0.386282 0.402083 -2.32322e-18)
(0.192928 0.0817485 -4.87859e-19)
(0.54697 0.416565 4.35939e-18)
(0.14534 -37.9744 4.16805e-21)
(-0.122508 -37.9709 0)
(0.206047 0.0832412 -2.25061e-18)
(0.493641 1.69748 0)
(-0.397568 -74.6219 2.71622e-19)
(-0.304746 -58.2851 2.70698e-19)
(0.403921 0.452991 -4.7904e-18)
(0.655348 -15.6638 2.83799e-18)
(-0.265262 0.410109 8.77746e-18)
(-0.419462 0.444773 2.51813e-18)
(0.213875 0.0697434 1.15328e-18)
(0.21605 0.0639013 3.82297e-18)
(0.406491 -38.079 -1.6365e-20)
(0.192462 -33.1664 -5.2866e-21)
(0.532491 -33.246 3.38938e-20)
(-0.186514 0.0819694 -3.37624e-20)
(-0.180204 0.0782512 2.164e-19)
(-0.212154 0.0865797 -7.38603e-25)
(-0.193571 0.079233 0)
(-0.208066 -25.9287 7.20362e-19)
(-0.21503 -25.7125 -4.90689e-19)
(0.219824 0.362011 1.52584e-18)
(0.233985 0.395518 1.67323e-18)
(0.429624 0.490058 0)
(-0.460899 0.457558 2.75331e-18)
(-0.197361 0.382622 1.25103e-18)
(-0.2186 0.413552 -7.19592e-18)
(-0.237886 -9.01067 5.15661e-18)
(0.531891 0.480466 4.81881e-18)
(0.494784 0.641393 4.30867e-18)
(-0.0362381 0.0183021 -4.85252e-18)
(-0.247066 0.0623546 -4.27525e-19)
(-0.218443 0.0646893 -5.76302e-19)
(-0.221435 0.0582692 5.77167e-19)
(0.347972 0.404519 -2.09561e-22)
(-0.348481 0.401379 2.24617e-18)
(0.175182 0.0762883 1.07759e-18)
(0.19061 0.0821721 -5.35569e-19)
(0.183217 0.0799656 1.06516e-18)
(0.204523 0.0786071 1.09665e-18)
(0.197951 0.0813483 -5.10359e-19)
(0.209728 0.0741864 -1.11723e-18)
(0.294518 0.0808415 -5.12e-19)
(0.266664 0.0727188 4.82012e-19)
(0.345192 0.098493 0)
(0.320138 0.0891504 5.18748e-19)
(0.392521 0.121762 -2.59666e-19)
(0.369294 0.109189 0)
(0.435668 0.150899 2.57505e-19)
(0.414799 0.135657 3.87386e-19)
(0.472627 0.18619 -1.27112e-19)
(0.455088 0.16708 -7.63882e-19)
(0.506171 0.238699 -1.03875e-18)
(0.48979 0.209561 8.89725e-19)
(0.534148 0.313833 1.00957e-18)
(0.521354 0.27324 -1.01128e-18)
(0.537414 0.359468 7.74002e-19)
(-0.451141 0.49584 -2.7012e-18)
(-0.513924 0.565487 -1.0263e-17)
(-0.557191 0.37662 -9.40721e-19)
(-0.544943 0.431464 6.72563e-19)
(-0.528621 0.285907 -9.82869e-19)
(-0.542202 0.328304 1.2111e-18)
(-0.493496 0.21759 0)
(-0.51201 0.249328 4.83269e-19)
(-0.448432 0.160571 1.27103e-19)
(-0.472445 0.187907 -6.24429e-20)
(-0.39535 0.116126 2.58137e-19)
(-0.422215 0.136187 0)
(-0.345023 0.0891225 -1.68462e-20)
(-0.369644 0.100694 -2.62467e-19)
(-0.297199 0.0729741 5.58013e-19)
(-0.321327 0.0802155 -6.80889e-19)
(-0.272497 0.0671791 4.22339e-19)
(0.0822324 -49.0949 0)
(0.251508 -43.3864 -1.76934e-20)
(-0.25074 -61.2475 0)
(-0.0890278 -55.1254 0)
(-0.504503 -72.3521 5.28312e-22)
(-0.391473 -67.1286 -5.23827e-22)
(-0.598357 -79.2983 -1.67261e-20)
(-0.574097 -76.5581 3.66399e-21)
(-0.549342 -79.9331 0)
(-0.585058 -80.2076 1.49657e-19)
(-0.507776 -78.7445 -2.63311e-19)
(-0.385363 -38.0738 -3.39525e-20)
(-0.513579 -33.2445 -3.33933e-20)
(-0.170445 -33.1641 9.39896e-21)
(-0.205446 -19.1739 2.58905e-18)
(0.555011 -19.6401 1.67139e-18)
(0.760242 1.16936 4.32151e-18)
(0.316273 -37.92 -1.1267e-18)
(0.600418 -26.5462 -9.39473e-19)
(0.436675 -74.7663 -2.61885e-19)
(0.357387 -58.8351 0)
(0.549644 -79.9565 -1.3244e-19)
(0.52146 -78.7923 -1.3206e-19)
(0.624624 -79.3021 -4.97737e-20)
(0.591363 -80.2222 -1.66108e-20)
(0.520949 -72.3338 -2.493e-20)
(0.597649 -76.5504 5.03776e-20)
(0.274953 -61.2223 -2.09848e-21)
(0.414032 -67.1055 2.11522e-20)
(-0.059883 -49.0789 1.75426e-20)
(0.112915 -55.1026 -1.55358e-20)
(-0.230585 -43.3759 3.30308e-20)
(0.238417 0.0979453 -2.83268e-19)
(0.22337 0.0906804 5.60973e-19)
(0.264797 0.114289 -1.44529e-19)
(0.252217 0.10571 -2.84513e-19)
(0.286727 0.134762 1.46358e-19)
(0.276402 0.124018 -7.2855e-20)
(0.302172 0.15742 -2.88186e-19)
(0.295328 0.145864 2.64175e-19)
(0.30941 0.182763 -2.86056e-19)
(0.306902 0.16971 0)
(0.308653 0.212771 0)
(0.310175 0.19716 0)
(0.296391 0.246312 -3.37289e-19)
(0.304301 0.229488 6.83635e-20)
(0.269707 0.279945 -5.1905e-19)
(0.284809 0.263249 -3.3288e-23)
(0.23106 0.311223 -1.60144e-18)
(0.251681 0.295807 9.02901e-19)
(0.191923 0.377826 -5.83584e-19)
(0.179625 0.33845 5.57259e-19)
(0.205831 0.324565 0)
(-0.164894 0.398454 4.13198e-18)
(-0.155812 0.355457 -7.5765e-19)
(-0.0965745 0.410819 2.6428e-18)
(-0.0920554 0.367185 3.07152e-19)
(-0.121574 0.363222 1.11028e-18)
(-0.209412 0.333167 3.80438e-18)
(-0.183255 0.343675 1.14982e-18)
(-0.255408 0.301458 -1.5619e-18)
(-0.236745 0.320263 1.18029e-19)
(-0.287097 0.266721 1.40238e-18)
(-0.272894 0.283514 1.09638e-18)
(-0.30631 0.234454 -2.8087e-19)
(-0.298412 0.250829 -8.49949e-19)
(-0.312081 0.202633 2.78486e-19)
(-0.310619 0.218306 5.60331e-19)
(-0.30859 0.174824 -4.12013e-19)
(-0.311287 0.188293 6.92453e-19)
(-0.296588 0.148748 0)
(-0.303863 0.161662 -4.10056e-19)
(-0.274242 0.12414 0)
(-0.286661 0.136182 -1.69519e-20)
(-0.245424 0.103257 -3.38355e-19)
(-0.260238 0.113047 2.7046e-19)
(-0.22964 0.0945764 1.34948e-19)
(-0.199245 0.0833291 -1.74181e-20)
(-0.192951 0.0837038 7.68071e-20)
(-0.210373 0.0762997 4.99373e-19)
(-0.205116 0.0806399 -4.83096e-19)
(-0.214766 0.0707865 0)
(0.201955 -7.72571 -1.04975e-17)
(0.639084 0.849415 -1.11331e-17)
(-0.250362 -37.5237 1.30738e-21)
(0.365697 0.44899 2.34601e-18)
(0.30152 0.417997 4.50219e-18)
(-0.297361 0.427738 0)
(-0.375253 0.442149 -7.14563e-18)
(0.217846 0.0592698 -3.43692e-19)
(0.0137463 -5.93158 -2.49706e-17)
(0.503759 0.555689 -2.36267e-18)
(-0.142506 0.42399 -4.48156e-18)
(0.70021 -38.2379 3.39362e-20)
(0.868679 -33.374 1.05062e-21)
(0.155897 0.0708068 -1.37845e-18)
(0.427189 1.15128 5.72805e-18)
(0.182605 0.073097 9.21167e-18)
(0.165051 0.068814 -3.12268e-24)
(0.147488 0.0648973 0)
(-0.173963 0.0732369 7.70731e-19)
(-0.250411 0.0551133 -7.06635e-19)
(-0.224091 0.0514238 1.83417e-23)
(0.217661 -19.8756 -3.69913e-18)
(-0.555777 0.653125 4.36042e-18)
(-0.517169 0.708711 4.33575e-18)
(-0.0151417 -7.07962 5.31584e-18)
(-0.12243 0.0507214 0)
(-0.749744 -74.6528 -5.26503e-19)
(-0.58074 -58.6349 3.23674e-20)
(0.56565 0.679954 4.68604e-18)
(0.661967 0.736245 2.00427e-18)
(0.526698 0.81315 4.45654e-18)
(0.254677 0.424191 -5.00935e-18)
(0.383985 0.489833 0)
(-0.401911 0.487135 0)
(-0.24407 0.439995 0)
(-0.488262 0.635683 1.32124e-17)
(-0.679902 -38.235 1.05097e-21)
(-0.850497 -33.3744 2.10154e-21)
(-0.511982 1.05074 5.3491e-18)
(0.261425 -8.90861 -1.93587e-18)
(0.00920503 -10.6907 -6.60719e-21)
(0.478858 0.713527 -4.46038e-18)
(0.406707 0.528488 0)
(0.207859 0.416401 -5.99805e-19)
(0.150307 0.352279 0)
(0.161428 0.394689 0)
(-0.0577316 0.375025 1.14275e-18)
(-0.0632138 0.423126 1.83189e-22)
(-0.190155 0.438557 4.51674e-18)
(-0.424299 0.523615 0)
(-0.23184 0.727784 -1.01429e-17)
(-0.284298 -25.9625 -1.50759e-18)
(0.0458779 0.0203106 1.81655e-17)
(0.431771 0.614393 9.56538e-18)
(0.494271 0.950452 6.41745e-18)
(0.331976 0.437062 -2.29125e-18)
(-0.334626 0.437788 0)
(0.169491 0.0761216 3.93379e-24)
(0.162867 0.0743121 -8.12593e-19)
(0.181291 0.0729237 -5.47906e-19)
(0.175764 0.0753896 4.22179e-21)
(0.188997 0.0653913 0)
(0.185641 0.0692559 5.6259e-19)
(0.193357 0.0555025 0)
(0.191477 0.0606687 -1.21934e-18)
(0.196746 0.0494207 0)
(0.24831 0.0596611 7.1367e-24)
(0.224181 0.0537318 -3.23643e-19)
(0.302706 0.0719438 0)
(0.273912 0.0651899 -2.39767e-18)
(0.355153 0.089003 1.39201e-19)
(0.329193 0.0800422 -1.38432e-19)
(0.404236 0.109923 -2.59965e-19)
(0.380073 0.0987882 1.30074e-19)
(0.449457 0.135253 0)
(0.427395 0.121995 8.14353e-24)
(0.491499 0.168004 7.65824e-19)
(0.470531 0.149954 1.2818e-19)
(0.536109 0.222614 -1.6059e-20)
(0.513686 0.19162 -3.83655e-19)
(0.576903 0.306902 -9.96812e-19)
(0.558501 0.261065 0)
(0.579565 0.424359 1.3843e-18)
(0.592451 0.360457 7.35179e-19)
(0.605547 0.506253 -3.73773e-18)
(-0.597778 0.505692 1.75052e-18)
(-0.583604 0.575325 -3.59764e-18)
(-0.602503 0.370275 0)
(-0.613608 0.430906 -1.59977e-18)
(-0.56242 0.273015 4.74924e-19)
(-0.583667 0.315605 0)
(-0.519588 0.210762 -2.45232e-19)
(-0.540954 0.238934 0)
(-0.470996 0.159814 0)
(-0.496653 0.184774 0)
(-0.411896 0.114835 5.13665e-19)
(-0.442092 0.136141 -5.08949e-19)
(-0.354943 0.0836206 2.67037e-19)
(-0.382659 0.0972524 1.29469e-19)
(-0.302949 0.065581 -2.75893e-19)
(-0.32881 0.073289 -6.75846e-19)
(-0.276869 0.0596756 5.57164e-19)
(0.237007 -49.2925 -1.49037e-20)
(0.488248 -43.5683 -3.11704e-20)
(-0.315925 -61.4408 1.69926e-20)
(-0.0391742 -55.3291 2.07724e-20)
(-0.770802 -72.4694 0)
(-0.56702 -67.2925 -1.65433e-20)
(-0.99282 -79.3011 -3.34845e-20)
(-0.911908 -76.6217 -2.09123e-21)
(-0.930397 -79.8798 -1.32492e-19)
(-0.982999 -80.1665 -6.6711e-20)
(-0.869703 -78.6835 3.97233e-19)
(0.233677 -28.6774 0)
(-0.607648 -28.7333 3.17194e-20)
(-0.213734 -28.6755 -2.30543e-20)
(-0.109548 0.452291 -2.45188e-18)
(0.994459 -28.8241 -2.09861e-21)
(0.626353 -28.7319 2.09925e-21)
(0.133985 -14.689 0)
(0.231069 -12.718 3.10213e-18)
(-0.308399 -21.1658 -1.0815e-18)
(-0.0145481 -17.6071 2.73553e-18)
(0.397311 -38.7622 -8.92663e-19)
(0.550774 -26.8103 1.34553e-18)
(0.738032 -74.8041 1.32083e-19)
(0.587659 -59.37 1.31786e-19)
(0.963008 -79.8864 -1.3253e-19)
(0.908517 -78.6966 6.80578e-23)
(1.00389 -79.3045 -6.68253e-20)
(1.00384 -80.1728 2.66103e-19)
(0.790999 -72.4507 -8.10046e-21)
(0.92689 -76.6141 -8.28472e-21)
(0.337659 -61.418 -1.45755e-20)
(0.586934 -67.2706 1.69682e-20)
(-0.213828 -49.2776 1.66088e-20)
(0.0635394 -55.3085 7.46013e-21)
(-0.465857 -43.5602 -1.69994e-20)
(0.172278 0.0662788 4.20558e-18)
(0.140287 0.0591178 2.41639e-18)
(0.157126 0.0628487 -7.36722e-18)
(0.202541 0.0767089 -3.22234e-19)
(0.187713 0.07065 -1.0408e-18)
(0.230795 0.0896776 -1.26765e-19)
(0.217004 0.0831174 4.42616e-19)
(0.255435 0.104072 7.21663e-20)
(0.243699 0.0966171 -1.79556e-20)
(0.275617 0.121726 7.63753e-20)
(0.266085 0.112364 -5.53163e-26)
(0.290396 0.142612 -7.13304e-20)
(0.283853 0.13186 -8.94149e-21)
(0.296782 0.16549 4.22562e-19)
(0.294817 0.153819 1.42185e-19)
(0.293951 0.191097 1.37346e-19)
(0.296538 0.177938 -1.39244e-24)
(0.281278 0.219339 3.37463e-19)
(0.288994 0.205041 -4.09674e-19)
(0.25544 0.248268 6.57878e-20)
(0.270146 0.233942 -4.69634e-19)
(0.217295 0.274782 -1.86047e-18)
(0.237386 0.262279 3.96005e-19)
(0.169153 0.298143 -5.43527e-19)
(0.194016 0.286096 1.08143e-18)
(0.118756 0.364696 0)
(0.111452 0.319729 -5.38093e-19)
(0.141409 0.3096 5.4143e-19)
(0.0794421 0.327959 0)
(0.0468351 0.333215 -1.32272e-19)
(-0.0228105 0.383058 0)
(-0.0209886 0.333861 2.70995e-19)
(0.0131596 0.336161 0)
(-0.08649 0.321027 -3.51969e-20)
(-0.0541188 0.327562 2.77924e-19)
(-0.146596 0.307645 0)
(-0.118523 0.314782 3.4334e-20)
(-0.198931 0.289602 7.93662e-19)
(-0.172824 0.29876 -1.34718e-19)
(-0.239857 0.263263 3.47237e-24)
(-0.220686 0.276977 5.16403e-19)
(-0.271033 0.23479 -2.74146e-19)
(-0.256695 0.248873 0)
(-0.290787 0.20796 2.78101e-19)
(-0.282458 0.221394 -5.56375e-19)
(-0.298197 0.181401 1.37623e-19)
(-0.295892 0.194603 1.38575e-19)
(-0.295786 0.15684 -6.82401e-19)
(-0.298073 0.168844 4.11893e-19)
(-0.284565 0.133615 -2.71e-19)
(-0.291375 0.145096 4.08458e-19)
(-0.263789 0.111912 0)
(-0.275247 0.122467 0)
(-0.237436 0.0940084 6.07774e-19)
(-0.25104 0.102387 -2.02472e-19)
(-0.206012 0.0793456 1.37207e-24)
(-0.222646 0.0864588 -2.69412e-19)
(-0.167333 0.0661722 -9.53571e-19)
(-0.188218 0.072619 1.04617e-18)
(-0.154857 0.0677229 7.74789e-19)
(-0.148553 0.0618528 1.44536e-18)
(-0.165768 0.0757918 6.78785e-20)
(-0.160276 0.0725578 -3.8272e-19)
(-0.176798 0.0768331 -3.47586e-20)
(-0.171361 0.0772323 3.75726e-19)
(-0.186395 0.0707511 -7.10022e-20)
(-0.181884 0.0744774 5.60444e-19)
(-0.193247 0.0606224 0)
(-0.190133 0.0659815 7.1522e-20)
(-0.197847 0.0483864 5.23586e-19)
(-0.19575 0.0547908 -5.40791e-19)
(-0.0722578 -6.613 -5.14136e-18)
(0.0636401 -15.8404 -4.19299e-18)
(-0.42581 0.176945 -9.78647e-19)
(0.739024 0.681672 9.079e-18)
(-0.421639 -37.9502 -4.8507e-19)
(0.344592 1.34581 9.52341e-18)
(0.472907 0.851598 -5.19829e-18)
(0.42176 1.0637 -7.99218e-22)
(0.290064 1.0896 6.90698e-18)
(0.335825 1.00981 -7.24377e-18)
(0.281004 0.449791 2.3255e-18)
(0.345184 0.483393 -2.31141e-18)
(0.0137097 0.386063 -5.29989e-19)
(0.0847618 0.375161 2.45089e-23)
(-0.357128 0.482916 9.74652e-18)
(-0.276584 0.461538 0)
(-0.445381 0.681491 -1.43804e-17)
(0.659682 0.624039 -3.75781e-18)
(-0.595703 0.752468 -8.47733e-19)
(0.0624443 0.0275227 -4.42887e-18)
(-0.108215 1.04297 -1.58879e-17)
(-0.625613 0.671593 2.55204e-19)
(-0.682929 0.500025 1.83399e-18)
(-0.980143 -28.827 -3.33978e-20)
(-0.456362 -8.36499 2.7059e-18)
(-0.121532 -10.3688 9.45337e-21)
(0.123322 0.0557434 5.9545e-19)
(0.117755 0.0499112 -1.02306e-23)
(0.134173 0.053055 3.04937e-18)
(-0.0599976 -8.0743 1.20993e-17)
(0.441927 0.771986 -9.78043e-18)
(0.355382 0.52973 0)
(0.228705 0.451628 2.38155e-18)
(0.128407 0.410072 -6.86089e-20)
(-0.026101 0.432936 0)
(-0.216813 0.471587 3.59532e-22)
(-0.376253 0.527576 -7.84908e-18)
(-0.421746 0.614084 -5.17217e-18)
(0.167863 0.0521427 -4.50741e-19)
(0.170334 0.0465135 1.50396e-19)
(-0.109608 -19.8884 4.97806e-19)
(0.584551 1.01535 2.64322e-18)
(0.012432 -0.160759 -6.30024e-18)
(-0.0289203 -7.33944 1.53745e-17)
(-0.161491 0.466756 0)
(0.20438 1.03701 5.99555e-18)
(-0.104037 -10.0218 -1.29468e-17)
(-0.298599 -9.48968 -3.93848e-18)
(0.396933 0.683041 -9.91165e-18)
(-0.418155 -13.7626 1.11354e-19)
(0.363483 0.572832 -1.50417e-17)
(0.176649 0.436772 5.69339e-19)
(-0.0718526 0.472009 -2.21133e-18)
(-0.39245 0.567623 -3.03246e-18)
(-0.171421 0.0460013 7.24172e-20)
(-0.199769 0.0412453 -2.70534e-19)
(-0.172779 0.0393285 2.17139e-19)
(1.07699 -24.5497 0)
(1.21889 -28.9233 3.38346e-20)
(1.31303 -24.63 0)
(-0.335776 -26.1271 2.0687e-18)
(-0.134992 0.0630688 2.66372e-19)
(0.352237 0.642884 -1.93191e-21)
(-0.120203 0.737317 -4.64665e-18)
(0.392827 0.938537 -3.38073e-18)
(-0.377091 0.173968 -1.08914e-18)
(-0.402428 0.184621 7.04684e-19)
(0.311384 0.470327 2.28992e-18)
(0.0500776 0.382046 6.61699e-19)
(-0.314909 0.475528 -4.67093e-18)
(-0.407509 0.744309 9.94843e-22)
(0.136221 0.0661284 1.11943e-18)
(0.129532 0.0612417 -5.75463e-19)
(0.147722 0.0708867 4.75913e-19)
(0.142102 0.0693919 0)
(0.157533 0.068035 -2.78255e-24)
(0.152932 0.0702578 -2.04046e-19)
(0.164111 0.061339 0)
(0.161248 0.0648953 -2.79227e-19)
(0.166337 0.0570813 -2.95179e-19)
(0.199953 0.0421054 3.01648e-19)
(0.255786 0.0502537 2.25415e-18)
(0.228054 0.0457036 0)
(0.310469 0.062163 -8.52823e-24)
(0.283017 0.0561757 -2.64457e-19)
(0.363914 0.0773119 -8.23556e-21)
(0.337427 0.0694199 1.35798e-19)
(0.414344 0.0951969 6.51797e-20)
(0.38951 0.0858692 1.35082e-19)
(0.461545 0.116852 6.45785e-20)
(0.438261 0.105538 -4.52678e-19)
(0.510318 0.147728 -7.67649e-19)
(0.484988 0.130044 3.87347e-19)
(0.567705 0.204167 2.09735e-18)
(0.538493 0.171966 -1.02581e-18)
(0.623795 0.295474 0)
(0.596894 0.245024 -1.01187e-18)
(0.663525 0.430349 1.43818e-18)
(0.646774 0.358249 0)
(0.6603 0.524832 3.56443e-18)
(0.0530291 1.05118 -5.59157e-18)
(-0.668426 0.586795 5.21545e-22)
(-0.653038 0.347045 0)
(-0.677187 0.421221 0)
(-0.591114 0.240268 -9.62143e-19)
(-0.62159 0.286179 0)
(-0.539202 0.183181 -3.70687e-23)
(-0.563654 0.207205 1.218e-18)
(-0.489547 0.144976 0)
(-0.515162 0.163414 3.11995e-20)
(-0.42854 0.107879 0)
(-0.460201 0.126412 1.27348e-19)
(-0.366052 0.0766232 -1.31639e-19)
(-0.396709 0.0908332 1.2917e-19)
(-0.308971 0.0575934 0)
(-0.337081 0.0656061 5.37136e-19)
(-0.253716 0.0473846 3.50313e-19)
(-0.281204 0.0517961 -1.38372e-19)
(-0.226635 0.0439053 -3.03785e-19)
(0.902892 -38.4323 0)
(1.08103 -33.5151 -3.4401e-20)
(0.386391 -49.6021 -3.61002e-20)
(0.669792 -43.8243 1.05017e-21)
(-0.252339 -61.762 -2.07522e-20)
(0.0718413 -55.6618 4.17453e-20)
(-0.857897 -72.6952 2.80058e-21)
(-0.569168 -67.5772 3.39066e-20)
(-1.24568 -79.3435 5.86512e-20)
(-1.08929 -76.7694 -3.52563e-20)
(-1.25207 -79.8177 -2.66208e-19)
(-1.27116 -80.1275 1.336e-19)
(-1.0825 -74.6288 5.10447e-19)
(-1.21446 -78.594 -1.32723e-19)
(-0.551783 -38.3792 5.65916e-19)
(-0.788376 -58.9929 -1.57918e-18)
(-0.673066 -24.4885 2.09733e-21)
(-1.20473 -28.926 0)
(-1.29924 -24.6339 4.1962e-21)
(-1.06764 -24.5539 -5.91669e-21)
(0.259895 -24.4459 2.09688e-21)
(-0.243322 -24.4455 1.68673e-20)
(0.694053 -24.4863 -2.0966e-21)
(0.00560056 -14.2474 0)
(0.277355 -12.0849 -2.65369e-18)
(0.1677 -21.3251 -1.13894e-18)
(0.0882611 -17.1323 0)
(0.565053 -39.4185 -7.06893e-19)
(0.448502 -27.31 -2.71948e-19)
(1.10578 -74.8289 3.89393e-19)
(0.843786 -59.8727 1.06629e-19)
(1.26177 -79.8267 6.64932e-20)
(1.23504 -78.6316 -1.33298e-19)
(1.26401 -79.3415 -8.35745e-20)
(1.28564 -80.1293 6.655e-20)
(0.878465 -72.6804 0)
(1.11006 -76.7639 5.03498e-20)
(0.274181 -61.7421 8.26445e-21)
(0.593049 -67.555 -1.67831e-20)
(-0.365977 -49.5927 -2.10062e-21)
(-0.051453 -55.6463 -8.50529e-21)
(-0.887333 -38.4324 -3.38356e-20)
(-0.651753 -43.8208 1.0506e-21)
(-1.06681 -33.5178 3.17923e-20)
(0.165676 0.0601581 0)
(0.150275 0.0564508 1.86796e-18)
(0.196015 0.0686337 -6.24099e-19)
(0.180872 0.0638932 -3.22319e-19)
(0.22395 0.0803195 0)
(0.210471 0.0743162 5.98005e-19)
(0.247587 0.0930096 2.90196e-19)
(0.236421 0.0865551 -2.45208e-24)
(0.266084 0.107644 6.71617e-20)
(0.257445 0.0999289 1.42792e-19)
(0.279673 0.125662 1.41912e-19)
(0.273531 0.116213 -1.42145e-19)
(0.285624 0.14625 -1.39723e-19)
(0.283896 0.135727 0)
(0.281692 0.168339 -2.50323e-24)
(0.284844 0.157152 -2.76547e-19)
(0.26843 0.191521 1.51917e-19)
(0.276258 0.179755 4.08941e-19)
(0.243061 0.215848 6.63979e-20)
(0.257414 0.203796 -2.85215e-19)
(0.205402 0.237295 2.65579e-19)
(0.225399 0.227314 -1.33063e-19)
(0.159851 0.256597 0)
(0.18352 0.246593 -1.33891e-19)
(0.105328 0.274477 -5.34046e-19)
(0.133576 0.266131 0)
(0.0442832 0.284996 -1.33489e-19)
(0.0750667 0.281004 5.99888e-19)
(-0.0191902 0.285112 -5.39586e-19)
(0.0126462 0.286957 2.68409e-19)
(-0.0816806 0.274675 -6.86751e-19)
(-0.0506873 0.280446 2.73338e-19)
(-0.13883 0.262719 -2.02673e-19)
(-0.111552 0.269183 3.06975e-19)
(-0.187174 0.246196 -1.15862e-23)
(-0.163732 0.254015 -1.3447e-19)
(-0.22761 0.225454 1.1512e-23)
(-0.208433 0.236589 -1.06083e-18)
(-0.258485 0.203068 -1.08749e-18)
(-0.244343 0.214307 1.08008e-18)
(-0.278085 0.18108 -6.8842e-20)
(-0.269744 0.192106 5.45506e-19)
(-0.286149 0.158784 1.36672e-19)
(-0.283432 0.169935 -1.3744e-19)
(-0.284504 0.137468 -2.71888e-19)
(-0.286447 0.147951 -2.73032e-19)
(-0.274045 0.117335 -3.38325e-20)
(-0.280423 0.127253 2.71593e-19)
(-0.254818 0.0989477 -2.03544e-24)
(-0.265335 0.107796 2.70603e-19)
(-0.230339 0.0839625 0)
(-0.243116 0.0910239 -3.71176e-19)
(-0.200443 0.071678 1.13257e-24)
(-0.216211 0.0775511 -4.05691e-19)
(-0.165278 0.0612686 4.3714e-18)
(-0.183832 0.066496 -5.42424e-19)
(-0.144741 0.0704377 -6.79592e-20)
(-0.139906 0.0675055 6.71343e-19)
(-0.154186 0.0713251 -2.7669e-19)
(-0.149552 0.071699 -3.417e-19)
(-0.162176 0.0660734 5.6574e-19)
(-0.158439 0.0692912 6.97379e-20)
(-0.16782 0.0571756 -1.43852e-19)
(-0.165269 0.0619166 7.14125e-19)
(-0.169819 0.051896 0)
(-0.140993 0.0539842 0)
(-0.0301048 -1.65617 -1.1197e-17)
(0.415001 -4.91061 -4.43326e-18)
(0.111682 0.0440256 1.21675e-18)
(0.257482 0.970521 -1.20567e-17)
(0.382667 0.847578 1.60688e-17)
(-0.174534 0.969172 1.06293e-17)
(0.317773 0.519545 2.34257e-18)
(0.253949 0.481504 -4.65491e-18)
(0.0915974 0.42324 -3.35453e-19)
(0.0141223 0.437629 -2.496e-23)
(-0.249536 0.497659 -4.58028e-18)
(-0.331023 0.52267 -2.46262e-18)
(-0.378163 0.663836 4.91257e-22)
(-0.394294 0.164547 1.80985e-18)
(0.172599 0.0397369 0)
(0.772559 0.610497 -4.07364e-18)
(0.226071 1.23233 -1.61381e-17)