/*--------------------------------*- C++ -*----------------------------------*\
| =========                 |                                                 |
| \\      /  F ield         | OpenFOAM: The Open Source CFD Toolbox           |
|  \\    /   O peration     | Version:  2212                                  |
|   \\  /    A nd           | Website:  www.openfoam.com                      |
|    \\/     M anipulation  |                                                 |
\*---------------------------------------------------------------------------*/
FoamFile
{
    version     2.0;
    format      ascii;
    arch        "LSB;label=32;scalar=64";
    class       volScalarField;
    location    "0.00781";
    object      p;
}
// * * * * * * * * * * * * * * * * * * * * * * * * * * * * * * * * * * * * * //

dimensions      [1 -1 -2 0 0 0 0];

internalField   nonuniform List<scalar> 
2681
(
193.848
285.065
280.631
190.113
249.617
276.172
189.931
190.118
190.178
190.223
190.084
190.495
190.443
191.475
190.609
190.746
191.068
190.136
190.169
190.212
190.273
190.433
190.378
190.327
190.548
190.489
190.112
190.067
190.089
190.177
190.144
190.253
190.212
190.345
190.299
190.393
190.406
190.459
190.517
190.471
190.524
190.381
190.425
190.305
190.34
256.181
190.266
190.135
190.039
190.066
190.097
190.584
190.968
190.138
190.1
190.4
190.446
190.045
190.042
190.051
190.032
190.196
190.155
190.292
190.246
190.414
190.356
190.546
190.479
190.022
190.623
190.569
190.655
190.427
190.495
190.549
190.025
191.34
263.832
190.092
190.05
190.07
190.151
190.119
190.223
190.185
190.31
190.266
190.355
190.42
190.465
190.344
190.384
190.27
190.306
190.189
190.231
190.109
190.148
190.077
190.069
190.055
190.493
190.747
190.681
190.658
190.033
190.041
190.026
190.806
190.943
190.849
190.846
190.442
190.531
190.483
190.082
190.045
190.056
190.637
191.349
190.855
238.328
190.545
190.609
190.579
190.019
283.037
190.029
193.135
191.653
190.132
190.098
190.22
190.173
190.327
190.271
190.455
190.389
190.612
190.529
190.707
190.636
190.742
190.472
190.546
191.138
190.083
316.396
190.155
190.115
190.038
190.012
190.024
190.074
190.054
190.125
190.097
190.192
190.157
190.273
190.232
190.358
190.316
190.442
190.4
191.505
190.487
190.377
190.41
190.307
190.343
190.234
190.271
190.158
190.196
190.089
190.121
190.062
190.025
190.013
190.018
190.034
189.917
190.039
190.046
190.988
191.072
191.204
190.761
190.599
190.743
190.004
190.589
190.529
190.093
190.066
190.955
190.944
190.008
190.001
202.835
203.687
203.688
202.837
190.001
190.006
189.992
190.537
191.204
189.923
190.031
197.004
256.034
249.729
190.675
190.658
288.596
190.015
192.271
190.083
190.059
190.149
190.112
190.244
190.193
190.358
190.299
190.497
190.425
190.675
190.58
190.914
190.785
191.058
190.716
190.85
190.515
190.605
190.385
190.445
190.273
190.328
190.17
190.219
190.128
204.708
205.859
207.188
208.661
210.304
212.097
214.06
216.218
218.602
221.279
221.277
224.2
227.376
227.414
224.202
216.201
218.595
212.079
214.039
208.653
210.292
205.857
207.184
204.708
190.029
190.016
190.06
190.043
190.103
190.08
190.162
190.131
190.235
190.197
190.314
190.275
190.393
190.354
195.951
190.433
190.513
190.473
190.579
190.564
190.515
190.4
190.435
190.337
190.369
190.272
190.305
190.202
190.237
190.133
190.167
190.074
190.101
190.034
190.052
190.019
190.012
190.006
190.028
190.019
190.045
190.037
194.573
197.77
190.847
190.657
190.652
190.832
189.994
191.383
202.068
202.069
189.999
226.904
221.245
224.161
191.066
239.152
190.639
191.053
190.023
190.029
202.09
201.442
201.467
189.988
189.978
189.995
189.981
230.829
230.783
190.554
190.63
191.339
191.194
190.562
190.63
256.015
191.665
192.121
189.89
190.053
190.029
190.036
190.745
190.735
189.984
189.998
189.991
190.01
190.004
190.017
190.094
190.068
190.166
190.127
190.267
190.214
190.39
190.326
190.541
190.461
190.745
190.635
191.03
190.876
191.204
191.319
191.87
191.163
191.347
190.813
190.979
190.566
190.674
190.415
190.483
190.295
190.354
190.187
190.239
190.104
190.141
190.075
203.699
202.852
205.868
204.717
208.676
207.199
212.114
210.323
216.22
214.073
218.592
202.095
201.472
201.444
234.911
234.571
198.658
227.28
230.52
221.268
224.133
216.193
218.589
212.071
214.029
208.654
210.288
205.864
207.189
203.703
204.718
202.857
190.022
190.01
190.05
190.035
190.086
190.066
190.136
190.109
190.199
190.166
190.271
190.235
190.343
190.308
190.413
190.379
190.468
190.445
190.586
190.511
190.488
190.6
190.527
190.627
190.544
190.539
190.479
190.491
190.419
190.456
190.358
190.389
190.301
190.33
190.24
190.271
190.175
190.208
190.113
190.143
190.062
190.085
190.025
190.042
190.01
190.001
189.996
190.014
190.007
190.022
261.418
194.009
227.386
190.941
190.725
190.722
190.929
190.033
275.905
191.886
190.648
202.136
201.517
189.972
196.431
189.984
189.973
189.962
189.966
190.06
190.042
234.566
192.402
192.716
265.882
189.923
221.192
224.128
192.679
192.967
193.139
190.709
191.185
191.166
190.705
192.097
202.144
201.525
195.693
262.729
255.689
192.499
191.484
190.669
190.533
190.615
190.565
190.654
190.681
191.449
192.443
230.934
189.891
191.993
194.531
190.825
190.819
189.988
189.981
190
189.994
190.012
190.006
190.022
190.017
190.027
190.057
190.041
190.107
190.077
190.184
190.142
190.29
190.234
190.421
190.353
190.586
190.497
190.821
190.693
191.16
190.976
191.594
191.37
191.813
191.807
192.045
191.325
191.557
190.911
191.107
190.618
190.747
190.444
190.52
190.317
190.378
190.205
190.259
190.116
190.157
190.084
203.731
202.892
205.885
204.743
208.676
207.208
212.103
210.317
216.191
214.055
218.551
200.849
200.883
200.851
190.712
200.931
200.878
243.225
249.239
233.995
238.285
227.151
230.427
221.159
224.046
216.122
218.504
212.04
213.981
208.652
210.273
205.882
207.197
203.737
204.745
202.898
189.97
189.95
189.961
189.993
189.981
190.016
190.004
190.042
190.028
190.074
190.057
190.115
190.093
190.169
190.141
190.231
190.199
190.296
190.264
190.359
190.329
190.409
190.387
190.446
190.427
190.553
190.476
190.462
190.488
190.494
190.579
190.494
190.498
190.472
190.485
190.452
190.464
190.415
190.43
190.369
190.394
190.318
190.344
190.267
190.293
190.211
190.24
190.152
190.181
190.095
190.122
190.048
190.07
190.013
190.029
189.982
189.997
189.952
189.967
189.952
189.94
189.975
189.964
189.991
189.984
190.004
189.997
190.017
190.01
190.028
190.023
272.009
239.35
190.41
193.381
227.397
199.555
193.575
195.444
195.098
194.478
190.799
191.042
190.587
190.572
191.03
190.799
192.409
192.425
193.168
189.897
194.63
192.747
192.011
200.939
271.269
262.603
189.939
189.929
189.939
260.489
192.815
191.312
190.762
190.642
190.679
190.773
191.289
191.944
190.013
190.018
235.198
195.198
315.314
281.881
190.742
194.594
250.961
264.45
192.283
241.141
191.64
190.708
190.751
191.588
190.018
190.034
190.022
200.474
201.006
200.545
231.093
189.94
191.821
192.404
193.987
190.299
190.381
190.912
190.581
190.908
192.677
189.961
189.951
189.979
189.971
189.991
189.985
190.002
189.997
190.008
190.033
190.066
190.047
190.119
190.089
190.201
190.156
190.311
190.252
190.449
190.376
190.631
190.532
190.9
190.752
191.288
191.078
191.787
191.526
192.109
194.668
192.371
191.45
191.719
190.998
191.212
190.669
190.815
190.469
190.556
190.336
190.398
190.222
190.277
190.129
190.172
190.067
190.094
190.048
202.209
201.591
203.789
202.958
205.917
204.79
208.666
207.22
212.06
210.287
216.143
214.008
221.155
218.505
227.543
224.139
200.424
201.015
200.555
200.482
200.389
200.391
200.419
246.183
254.064
234.866
239.796
227.383
230.82
221.156
224.138
216.05
218.441
211.998
213.919
208.651
210.252
205.918
207.216
203.795
204.794
202.218
202.966
201.601
189.96
189.949
189.984
189.972
190.009
189.997
190.035
190.022
190.065
190.049
190.102
190.082
190.147
190.123
190.199
190.172
190.256
190.227
190.312
190.285
190.359
190.338
190.392
190.377
190.415
190.405
190.426
190.422
190.425
190.428
190.411
190.419
190.392
190.403
190.362
190.376
190.324
190.344
190.282
190.304
190.236
190.259
190.184
190.211
190.129
190.157
190.076
190.102
190.032
190.053
189.999
190.015
189.97
189.984
189.944
189.956
189.963
189.951
189.981
189.973
189.994
189.988
190.007
190.001
190.013
189.931
319.825
299.397
189.92
194.033
193.194
194.045
191.149
190.871
190.667
190.691
190.88
191.138
192.184
190.331
190.023
192.799
196.998
261.556
193.257
240.514
189.928
195.054
193.513
201.103
200.638
286.575
271.364
190.805
266.93
194.08
192.554
248.085
245.816
191.45
190.814
190.742
190.796
190.843
191.418
191.758
189.93
189.921
190.039
190.027
190.009
190.013
201.091
200.626
199.987
200.051
193.915
235.505
189.931
189.923
231.466
190.023
192.092
189.895
193.579
190.357
191
190.681
191.003
192.441
189.95
189.94
189.969
189.96
189.983
189.976
189.995
189.989
190.006
190.001
190.016
190.011
190.02
190.038
190.028
190.074
190.054
190.13
190.099
190.215
190.169
190.33
190.268
190.475
190.398
190.674
190.565
190.977
190.81
191.411
191.177
191.98
191.676
192.342
194.861
192.279
192.732
191.59
191.905
191.08
191.318
190.715
190.879
190.493
190.589
190.35
190.416
190.235
190.29
190.14
190.184
190.075
190.103
190.054
202.3
201.682
203.866
203.043
205.959
204.853
208.648
207.234
211.996
210.24
216.09
213.944
221.155
218.471
227.749
224.211
199.942
200.062
199.995
199.908
199.91
199.937
250.135
260.894
236.105
241.882
227.654
231.538
221.108
224.199
215.995
218.385
211.961
213.874
208.652
210.23
205.966
207.242
203.874
204.86
202.311
203.052
201.693
243.934
189.949
189.938
189.975
189.961
190.001
189.988
190.028
190.015
190.058
190.043
190.093
190.075
190.132
190.112
190.178
190.154
190.227
190.202
190.277
190.252
190.321
190.3
190.353
190.339
190.373
190.364
190.38
190.378
190.378
190.381
190.367
190.374
190.349
190.359
190.322
190.336
190.29
190.307
190.252
190.272
190.209
190.231
190.159
190.185
190.107
190.133
190.058
190.082
190.018
190.037
189.987
190.002
189.961
189.974
189.938
189.949
189.93
189.951
189.94
189.97
189.961
189.985
189.978
189.998
189.992
190.003
196.509
196.576
200.143
290.023
299.163
291.975
196.105
193.993
190.865
272.044
193.601
192.86
193.571
244.82
201.023
249.009
191.253
190.937
190.775
190.815
190.965
191.253
191.96
190.304
189.913
190.011
190.016
193.051
284.907
194.555
193.77
190.018
200.13
195.019
193.583
241.612
189.917
197.386
236.308
231.932
190.917
275.711
193.586
192.29
198.207
191.561
190.86
191.565
199.76
199.843
304.128
191.876
201.216
190.018
190.919
293.693
280.593
193.194
190.255
199.311
318.632
191.085
190.793
191.103
192.179
189.906
189.922
189.914
189.941
189.931
189.959
189.95
189.975
189.967
189.989
189.982
190.001
189.995
190.006
190.025
190.02
190.043
190.032
190.08
190.059
190.139
190.107
190.226
190.179
190.346
190.282
190.499
190.417
190.713
190.595
191.046
190.862
191.522
191.266
192.159
191.817
192.576
195.332
192.521
193.097
191.702
192.066
191.146
191.402
190.755
190.93
190.514
190.619
190.361
190.431
190.244
190.3
190.147
190.192
190.081
190.11
190.043
190.059
190.022
190.031
201.185
200.228
200.718
202.403
201.781
203.959
203.142
206.023
204.934
208.656
207.273
211.953
210.219
216.063
213.899
221.207
218.476
228.078
224.359
196.202
199.659
199.702
199.631
199.633
199.693
199.654
199.829
199.748
255.247
265.282
238.065
244.877
228.188
232.645
221.189
224.404
216.01
218.42
211.957
213.875
208.676
210.237
206.034
207.288
203.969
204.944
202.415
203.153
201.198
201.794
200.243
200.732
189.919
189.905
189.912
198.758
189.912
189.912
189.907
190.344
189.939
189.928
189.965
189.951
189.993
189.979
190.022
190.007
190.052
190.037
190.086
190.069
190.124
190.105
190.164
190.144
190.208
190.186
190.253
190.231
190.295
190.275
190.327
190.312
190.347
190.339
190.355
190.353
190.354
190.356
190.343
190.349
190.325
190.335
190.3
190.313
190.269
190.285
190.232
190.251
190.188
190.211
190.14
190.165
190.09
190.115
190.046
190.067
190.01
190.027
189.982
189.995
189.956
189.969
189.935
189.945
189.919
189.926
189.907
189.913
189.924
189.918
189.941
189.932
189.96
189.95
189.976
189.968
189.989
189.983
190
189.995
190.01
190.005
270.703
292.876
308.876
300.734
286.408
276.497
194.768
236.97
232.561
190.991
280.559
193.177
192.543
193.142
199.678
189.885
204.08
199.9
242.297
191.349
190.996
190.9
190.954
191.055
191.381
191.736
192.142
189.901
198.036
190.014
199.926
199.942
318.592
315.573
308.32
257.621
192.031
191.645
190.02
189.903
191.134
195.345
193.557
310.799
318.712
322.057
313.049
298.992
238.012
192.762
191.059
287.864
192.824
192.75
201.462
202.143
286.772
292.551
189.889
306.622
244.924
243.196
289.694
191.161
190.931
191.212
191.925
189.915
189.908
189.932
189.923
189.95
189.941
189.968
189.959
189.983
189.975
189.996
189.99
190.008
190.002
190.013
190.029
190.024
190.047
190.036
190.085
190.064
190.146
190.113
190.235
190.187
190.359
190.293
190.518
190.433
190.747
190.621
191.105
190.907
191.624
191.344
192.357
191.957
193.46
192.862
194.174
194.193
195.208
196.655
192.707
193.365
191.792
192.198
191.195
191.466
190.786
190.97
190.531
190.642
190.372
190.444
190.251
190.309
190.153
190.199
190.085
190.115
190.047
190.063
190.025
190.034
190.018
200.016
200.327
200.806
201.268
201.87
202.496
203.238
204.055
205.025
206.107
207.342
208.706
210.245
211.959
213.898
216.076
218.531
221.325
224.586
228.488
233.26
239.058
246.967
255.843
264.216
274.354
281.534
195.958
297.824
199.611
199.529
199.439
199.38
199.347
199.331
199.329
199.341
199.371
199.426
199.513
199.592
199.627
209.723
264.585
256.704
247.152
239.377
233.555
228.698
224.696
221.365
218.544
216.094
213.932
212
210.283
208.734
207.361
206.119
205.036
204.067
203.251
202.511
201.885
201.283
200.821
200.343
200.034
199.648
313.012
320.955
286.06
191.684
192.084
258.787
257.209
192.773
192.229
191.775
223.238
190.206
326.384
190.534
325.119
208.249
202.235
281.363
204.671
321.429
301.499
250.59
275.009
254.716
296.264
311.579
298.089
324.108
321.457
315.303
195.301
191.434
191.137
191.049
191.152
191.855
191.524
286.517
293.934
300.562
308.747
315.507
319.43
190.581
193.322
250.649
190.023
202.463
211.192
190.011
190.007
190.002
189.998
189.993
189.987
189.981
189.974
189.967
189.959
189.951
189.942
189.933
189.926
189.919
189.914
189.909
189.903
189.898
189.893
189.897
189.902
189.909
189.916
189.924
189.933
189.944
189.956
189.969
189.982
189.996
190.01
190.026
190.043
190.061
190.082
190.104
190.128
190.152
190.176
190.199
190.221
190.242
190.26
190.277
190.292
190.306
190.318
190.328
190.336
190.342
190.346
190.347
190.346
190.341
190.335
190.325
190.312
190.296
190.279
190.259
190.239
190.218
190.197
190.177
190.157
190.137
190.118
190.1
190.081
190.064
190.047
190.031
190.015
190
189.985
189.97
189.956
189.942
189.931
189.921
189.912
199.53
199.527
200.067
199.723
189.893
316.726
200.115
189.906
189.9
195.966
193.03
189.895
189.9
189.905
189.911
189.916
189.922
189.929
189.936
189.944
189.952
189.959
189.967
189.974
189.98
189.986
190.001
189.997
189.992
190.015
190.021
190.028
190.037
190.049
190.065
190.088
190.118
190.157
190.204
190.257
190.315
190.379
190.451
190.54
190.652
190.798
190.983
191.212
191.49
191.831
192.266
192.829
193.579
194.539
197.542
195.82
194.077
201.772
195.033
193.961
193.149
192.535
192.069
191.701
191.399
191.146
190.936
190.769
190.637
190.531
190.444
190.368
190.301
190.242
190.192
190.151
190.117
190.089
190.067
190.05
190.039
190.027
190.032
304.501
190.016
190.011
190.005
189.999
189.992
189.985
189.978
189.97
189.961
189.952
189.943
189.934
189.925
189.917
189.909
189.903
189.893
189.898
190.059
189.893
189.898
189.905
189.913
189.922
189.933
189.945
189.958
189.972
189.987
190.001
190.016
190.031
190.047
190.065
190.083
190.103
190.125
190.148
190.172
190.195
190.218
190.24
190.261
190.279
190.295
190.309
190.322
190.332
190.34
190.345
190.348
190.348
190.345
190.339
190.33
190.318
190.303
190.287
190.269
190.251
190.231
190.212
190.192
190.172
190.153
190.133
190.114
190.095
190.077
190.06
190.042
190.026
190.009
189.993
189.978
189.962
189.948
189.935
189.924
189.915
189.907
189.901
189.896
193.135
205.723
189.891
189.888
320.67
310.423
309.093
305.505
300.28
296.544
292.769
288.219
281.729
273.921
264.973
256.993
248.276
240.455
234.3
229.222
225.046
221.621
218.728
216.224
214.035
212.099
210.388
208.845
207.473
206.23
205.142
204.168
203.344
202.594
201.958
201.343
200.085
200.382
200.871
191.683
191.334
191.09
191.231
220.629
197.058
305.605
306.944
306.31
304.904
300.991
290.892
323.751
198.102
264.451
252.46
199.509
199.452
199.368
199.305
199.275
199.267
199.27
199.281
199.315
199.381
199.469
196.123
244.905
307.351
311.971
212.677
193.835
191.523
190.071
317.248
314.73
311.833
248.208
295.397
291.109
278.486
272.175
262.841
255.929
248.56
240.459
233.941
228.941
224.844
221.462
218.603
216.117
213.945
212.029
210.339
208.816
207.456
206.218
205.13
204.154
203.328
202.577
201.941
201.327
200.855
200.366
294.778
296.538
206.317
204.765
222.432
321.887
192.421
192.454
190.16
190.471
190.006
199.505
199.745
191.92
323.196
216.052
276.972
199.603
199.579
189.886
300.694
324.559
246.438
192.752
191.537
191.25
282.148
189.888
190.231
202.744
190.182
321.312
192.115
240.748
210.524
291.183
200.373
199.773
200.084
201.359
200.868
202.624
201.987
204.23
203.393
206.312
205.215
208.916
207.555
212.107
210.432
216.154
214.002
221.551
218.646
229.327
225.039
241.533
234.64
255.645
249.067
271.054
261.868
283.035
277.95
296.001
289.435
299.218
298.077
304.329
301.877
303.508
304.298
301.013
300.815
296.159
301.542
278.103
199.375
199.311
199.429
199.019
199.201
198.916
198.939
198.932
198.913
199.183
199.007
199.407
199.355
199.394
199.623
199.368
199.291
264.382
194.437
190.01
287.49
231.639
191.296
191.471
199.648
200.102
199.795
200.885
200.389
202.005
201.376
203.412
202.643
205.227
204.246
207.57
206.322
210.482
208.942
214.132
212.191
218.886
216.338
225.359
221.846
234.676
229.602
248.444
240.934
265.65
256.677
280.838
274.412
288.442
195.246
296.658
293.848
300.973
298.252
300.353
300.943
299.154
299.601
298.066
298.626
293.925
189.888
189.888
189.893
189.89
189.903
189.897
189.92
189.911
189.943
189.93
189.972
189.957
190.005
189.988
190.039
190.022
190.074
190.056
190.111
190.092
190.149
190.13
190.189
190.169
190.227
190.208
190.264
190.246
190.299
190.282
190.328
190.314
190.347
190.339
190.354
190.352
190.348
190.352
190.33
190.34
190.302
190.317
190.265
190.284
190.22
190.243
190.173
190.196
190.129
190.15
190.09
190.109
190.056
190.072
190.024
190.04
189.992
190.008
189.96
189.976
189.933
189.946
189.91
189.921
189.894
189.901
190.049
189.889
196.692
189.894
189.891
189.905
189.899
189.92
189.912
189.937
189.928
189.956
189.947
189.974
189.965
189.99
189.982
190.003
189.997
190.014
190.009
276.829
190.018
285.538
190.033
190.029
190.052
190.04
190.091
190.069
190.153
190.119
190.246
190.195
190.374
190.306
190.539
190.451
190.782
190.646
191.172
190.955
191.762
191.438
192.7
192.165
194.569
193.443
198.82
196.276
202.851
196.368
198.854
193.716
194.793
192.309
192.902
191.508
191.857
190.994
191.225
190.659
190.806
190.456
190.545
190.319
190.383
190.207
190.261
190.12
190.159
190.066
190.089
190.038
190.05
190.023
190.029
190.017
190.201
190.028
189.998
190.002
189.987
189.992
189.975
189.981
189.961
189.969
189.947
189.954
189.933
189.939
189.92
189.926
189.909
189.914
189.897
189.903
306.713
189.892
235.202
189.883
199.448
199.42
190.281
326.788
189.884
189.887
189.89
189.895
189.901
189.907
189.913
189.919
189.925
189.931
189.937
189.944
189.951
189.959
189.966
189.973
189.98
189.986
189.992
189.996
190.001
190.006
190.252
317.015
190.02
190.025
190.03
190.038
190.05
190.066
190.089
190.119
190.158
190.203
190.254
190.31
190.372
190.442
190.526
190.632
190.768
190.941
191.154
191.414
191.735
192.147
192.714
193.548
194.761
196.732
200.742
208.129
216.182
201.583
197.058
194.782
193.524
192.709
192.152
191.747
191.42
191.157
190.943
190.772
190.639
190.533
190.446
190.37
190.303
190.244
190.194
190.152
190.118
190.09
190.068
190.051
190.04
190.034
190.03
190.029
311.217
190.02
190.018
190.014
190.009
190.003
189.996
189.989
189.98
189.972
189.963
189.953
189.944
189.934
189.925
189.917
189.909
189.902
189.896
189.892
189.889
198.395
189.884
189.887
189.892
189.899
189.909
189.92
189.932
189.946
189.961
189.978
189.995
190.012
190.029
190.046
190.062
190.079
190.096
190.114
190.133
190.153
190.175
190.198
190.222
190.245
190.268
190.288
190.307
190.323
190.336
190.346
190.353
190.357
190.357
190.355
190.348
190.339
190.327
190.313
190.297
190.28
190.262
190.244
190.225
190.206
190.187
190.167
190.147
190.128
190.109
190.09
190.072
190.054
190.037
190.019
190.002
189.984
189.967
189.952
189.938
189.926
189.916
189.907
189.9
189.894
189.89
189.888
189.887
189.886
189.886
189.887
253.408
272.386
274.337
272
274.644
290.238
298.545
301.832
302.228
299.823
297.333
293.454
289.307
283.087
277.906
273.281
266.563
256.779
248.301
240.932
234.855
229.775
225.529
222.001
219.01
216.453
214.251
212.309
210.592
209.044
207.659
206.404
205.299
204.314
203.447
202.667
202.019
201.387
200.877
200.382
200.09
199.806
199.67
199.494
191.609
191.38
319.459
268.658
190.025
322.565
274.781
199.359
199.363
199.359
199.515
199.466
199.298
199.134
199.071
199.06
199.062
199.077
199.146
199.316
199.486
199.538
199.379
199.39
199.389
199.45
198.29
269.573
273.001
270.298
273.75
288.728
298.057
301.108
301.188
298.975
298.227
295.781
291.056
285.124
278.639
271.503
262.306
255.648
248.671
241.701
235.181
229.69
225.228
221.669
218.727
216.235
214.101
212.215
210.538
209.016
207.644
206.392
205.286
204.297
203.428
202.647
202
201.37
200.861
200.366
200.072
199.783
199.645
199.464
199.419
233.5
216.283
191.36
191.635
276.408
293.212
222.931
307.707
190.01
191.759
195.142
244.34
189.89
191.659
189.884
190.016
209.227
284.528
189.883
189.897
269.411
190.013
193.983
193.419
253.162
190.595
197.494
194.054
270.281
192.021
189.892
191.8
191.729
191.497
256.384
190.025
190.368
190.669
241.972
189.935
196.274
282.824
272.126
194.133
190.025
281.442
190.107
191.201
190.007
225.477
190.021
297.429
190.975
299.155
312.283
279.346
212.996
189.902
327.3
271.725
194.802
277.652
192.912
190.601
189.889
190.529
189.989
191.754
190.048
190.237
190.484
)
;

boundaryField
{
    wall
    {
        type            zeroGradient;
    }
    outlet
    {
        type            inletOutlet;
        inletValue      uniform 1e-05;
        value           nonuniform List<scalar> 
20
(
199.359
199.363
199.359
199.515
199.466
199.298
199.134
199.071
199.06
199.062
199.077
199.146
199.316
199.486
199.538
199.379
199.39
199.389
199.45
199.419
)
;
    }
    frontAndBackPlanes
    {
        type            empty;
    }
}


// ************************************************************************* //
