/*--------------------------------*- C++ -*----------------------------------*\
| =========                 |                                                 |
| \\      /  F ield         | OpenFOAM: The Open Source CFD Toolbox           |
|  \\    /   O peration     | Version:  2212                                  |
|   \\  /    A nd           | Website:  www.openfoam.com                      |
|    \\/     M anipulation  |                                                 |
\*---------------------------------------------------------------------------*/
FoamFile
{
    version     2.0;
    format      ascii;
    arch        "LSB;label=32;scalar=64";
    class       volScalarField;
    location    "0.0476";
    object      p;
}
// * * * * * * * * * * * * * * * * * * * * * * * * * * * * * * * * * * * * * //

dimensions      [1 -1 -2 0 0 0 0];

internalField   nonuniform List<scalar> 
31661
(
504.063
39.2381
41.3781
40.1896
39.3392
41.2368
40.1646
39.4801
41.1873
40.177
475.182
54.3465
684.19
320.573
459.884
446.832
473.334
469.367
57.1068
436.593
79.6052
80.4238
244.404
410.378
42.8288
79.6302
240.631
209.662
54.8778
58.412
402.843
95.9675
95.9851
63.5761
82.1986
386.37
65.7033
383.844
226.639
93.7766
96.8042
38.3472
361.45
98.8405
102.166
59.354
100.36
81.0561
65.269
258.676
94.5963
245.128
62.3344
77.6696
191.445
54.2278
63.7556
68.8788
64.5454
57.6877
57.6018
56.5821
92.429
34.6537
73.103
389.713
615.586
58.8769
54.6907
50.4675
51.8111
46.2339
42.5549
40.3728
38.0772
36.3989
34.8287
33.6356
32.5818
31.7766
31.0989
30.5918
30.1877
29.8998
29.9984
30.3036
30.7227
31.2546
31.9463
32.781
33.8337
35.0577
36.582
38.3058
40.4255
42.7576
45.457
48.4124
51.2834
54.8185
58.6691
62.6777
66.5782
70.4023
70.3763
75.0647
74.5055
79.4482
78.6031
83.4718
82.4588
87.0698
85.9858
90.2109
89.136
92.8942
91.8867
95.1481
94.245
97.0183
96.2382
98.5575
97.9033
99.8199
99.2835
100.857
100.425
101.712
101.368
102.423
102.151
103.019
102.805
103.526
103.356
103.961
103.826
104.34
104.232
104.676
104.588
104.979
104.906
105.255
105.194
105.513
105.461
105.757
105.713
105.995
105.956
106.229
106.196
106.466
106.438
106.711
106.687
106.968
106.947
107.242
107.226
107.541
107.528
107.869
107.86
108.235
108.229
108.645
108.643
109.109
109.108
109.155
108.686
108.272
107.902
107.57
107.268
106.99
106.73
106.482
106.242
106.005
105.764
105.516
105.255
104.973
104.664
104.321
103.931
103.483
102.96
102.342
101.603
100.712
99.6313
98.3156
96.7149
94.7761
92.4491
89.6933
86.4834
82.8198
78.7255
74.2278
69.3294
64.4565
59.2837
54.5706
50.1535
46.5345
43.3975
40.8
38.5368
36.7024
35.1125
33.8423
32.7678
29.7759
29.6894
31.923
31.2312
30.7028
30.2861
29.9823
29.5724
29.6438
29.8654
30.0412
30.304
30.6589
31.1269
31.7209
32.4694
33.3796
34.4857
35.7923
37.335
39.1269
41.1863
43.5136
46.129
48.9608
51.9173
55.1056
58.5095
61.9726
65.4669
69.1088
72.804
76.4765
80.0429
83.4387
86.6028
89.4955
92.0805
94.3475
96.2996
97.9571
99.3488
100.508
101.471
102.271
102.938
103.498
103.973
104.382
104.741
105.062
105.354
105.626
105.887
106.141
106.396
106.656
106.928
107.218
107.531
107.874
108.254
108.68
109.159
109.703
109.64
109.635
109.688
109.8
109.252
108.769
108.341
107.959
107.616
107.303
107.014
106.744
106.486
106.235
105.986
105.732
105.469
105.188
104.884
104.546
104.165
103.726
103.215
102.61
101.887
101.018
99.9663
98.6945
97.1603
95.3238
93.1476
90.6053
87.6859
84.398
80.7683
76.8399
72.6729
68.346
63.9391
59.3614
55.1274
51.1465
47.6328
44.5218
41.8677
39.5339
37.5709
35.8965
34.5084
33.3572
32.4252
31.6725
29.7616
31.078
30.6108
30.2584
29.7532
29.5734
29.6325
29.5123
29.727
30.0161
30.0886
30.2509
30.4924
30.8245
31.2599
31.8167
32.5082
33.3589
34.3795
35.5941
37.0121
38.6507
40.5053
42.5893
44.8775
47.3868
49.9967
52.6705
55.4473
58.3044
61.1985
64.0998
67.1427
70.2749
73.4524
76.6498
79.8246
82.9434
85.9422
88.7635
91.3552
93.6837
95.7321
97.4984
98.9994
100.261
101.31
102.179
102.902
103.506
104.015
104.452
104.833
105.174
105.485
105.776
106.057
106.335
106.617
106.908
107.217
107.548
107.91
108.31
108.757
109.258
109.826
110.47
110.323
110.245
110.237
110.297
110.426
110.627
109.973
109.399
108.892
108.443
108.041
107.678
107.347
107.04
106.752
106.475
106.204
105.932
105.653
105.359
105.041
104.689
104.291
103.833
103.295
102.656
101.89
100.967
99.8523
98.5117
96.9105
95.0195
92.8213
90.3094
87.5
84.4245
81.1306
77.6684
74.0947
70.4587
66.793
63.069
59.3054
55.7448
52.2713
49.048
46.0838
43.4464
41.0673
38.9975
37.1887
35.6652
34.3872
33.3346
32.4671
31.7667
30.0023
31.2084
30.7742
29.5512
29.9761
29.7115
29.8341
29.5663
29.4933
29.9693
30.3159
30.3339
30.4334
30.5859
30.8267
31.157
31.5893
32.1386
32.8202
33.6511
34.6479
35.8223
37.183
38.7379
40.4796
42.3946
44.4704
46.6608
48.9571
51.249
53.5267
55.8106
58.0892
60.3649
62.6526
65.0465
67.5541
70.173
72.9064
75.7447
78.6622
81.6148
84.5436
87.3763
90.0481
92.5082
94.7186
96.6594
98.3307
99.7454
100.929
101.911
102.727
103.406
103.976
104.463
104.886
105.262
105.607
105.932
106.247
106.562
106.883
107.22
107.58
107.969
108.398
108.874
109.407
110.008
110.689
111.464
111.206
111.031
110.938
110.926
110.994
111.143
111.375
111.691
110.9
110.207
109.598
109.058
108.578
108.147
107.757
107.399
107.065
106.749
106.443
106.14
105.831
105.508
105.161
104.778
104.343
103.839
103.246
102.537
101.685
100.658
99.4219
97.9446
96.1995
94.171
91.8565
89.2731
86.4581
83.4696
80.3687
77.2262
74.0908
71.0055
67.9915
65.0359
62.0963
59.1571
56.2908
53.4302
50.6432
47.9603
45.4402
43.0828
40.9315
38.9972
37.3243
35.8828
34.6578
33.627
32.7769
32.0898
30.4458
31.5361
29.5477
29.743
30.21
30.3066
30.0214
29.7283
29.5441
29.4927
30.3654
30.7092
30.7179
30.7621
30.8436
31.0178
31.2728
31.6187
32.069
32.6359
33.3352
34.1808
35.1858
36.3601
37.7083
39.2298
40.9122
42.7299
44.6502
46.6363
48.6449
50.6368
52.543
54.379
56.163
57.8885
59.6065
61.3356
63.1504
65.079
67.1442
69.3672
71.7602
74.322
77.0327
79.8544
82.7241
85.5805
88.3501
90.9603
93.3541
95.5001
97.3762
98.9842
100.343
101.478
102.423
103.208
103.867
104.427
104.913
105.345
105.74
106.114
106.479
106.845
107.222
107.621
108.049
108.516
109.032
109.607
110.253
110.982
111.808
112.747
112.347
112.046
111.843
111.734
111.718
111.795
111.966
112.232
112.595
112.094
111.249
110.506
109.85
109.268
108.747
108.278
107.85
107.455
107.083
106.727
106.377
106.024
105.657
105.263
104.829
104.335
103.762
103.084
102.274
101.299
100.126
98.7236
97.0641
95.1325
92.9232
90.4562
87.7672
84.9109
81.9582
78.9902
76.0673
73.2494
70.5688
68.0384
65.6465
63.3622
61.1394
58.9361
56.7458
54.5124
52.2454
49.9573
47.6805
45.4446
43.2954
41.2913
39.478
37.855
36.4265
35.1971
34.1679
33.3058
31.1069
32.5934
113.057
32.0201
29.6236
30.7793
29.8327
30.0547
30.1182
29.7063
30.7559
30.4599
29.5415
29.5841
30.852
31.1922
31.1676
31.1861
31.2182
31.3405
31.5353
31.8154
32.1906
32.6729
33.2765
34.0135
34.8978
35.937
37.1402
38.5064
40.026
41.681
43.4367
45.2532
47.088
48.888
50.6265
52.2598
53.7646
55.1743
56.4944
57.7871
59.0197
60.2867
61.6242
63.064
64.6347
66.3647
68.2775
70.3898
72.7057
75.2151
77.8885
80.6811
83.5309
86.3624
89.1025
91.6792
94.0387
96.1441
97.9795
99.5513
100.878
101.988
102.916
103.694
104.355
104.928
105.437
105.903
106.344
106.776
107.212
107.665
108.145
108.663
109.231
109.86
110.562
111.351
112.241
113.249
114.393
113.817
113.357
113.011
112.775
112.649
112.63
112.718
112.913
113.217
113.63
114.157
113.622
112.587
111.676
110.872
110.158
109.521
108.948
108.429
107.952
107.507
107.082
106.668
106.253
105.823
105.363
104.856
104.279
103.609
102.816
101.869
100.734
99.3775
97.7723
95.899
93.7524
91.3522
88.7297
85.9409
83.0607
80.1578
77.3093
74.5835
72.0212
69.6521
67.4768
65.485
63.6525
61.9395
60.3029
58.6982
57.104
55.4372
53.6963
51.8622
49.9382
47.9471
45.9298
43.9484
42.057
40.2789
38.6575
37.2305
35.9875
34.9055
34.0053
33.2533
114.799
32.6411
31.5699
29.7166
30.5419
29.9499
29.9919
30.2463
29.6928
30.5936
29.6205
31.2841
30.98
29.6787
115.695
115.041
114.517
114.121
113.851
113.706
113.684
113.784
114.007
114.351
114.821
115.416
116.138
115.556
114.291
113.173
112.183
111.305
110.521
109.817
109.179
108.596
108.053
107.538
107.04
106.541
106.026
105.477
104.871
104.183
103.383
102.441
101.32
99.9862
98.4104
96.5718
94.4632
92.0982
89.5104
86.7561
83.9041
81.0288
78.2098
75.5146
72.9888
70.6676
68.5625
66.6711
64.9814
63.4677
62.1012
60.8469
59.6696
58.5418
57.3832
56.1966
54.9196
53.5392
52.0228
50.376
48.611
46.7769
44.9151
43.0715
41.3301
39.7195
38.2435
36.9431
35.8076
34.8332
34.0168
32.1431
33.3527
116.987
31.4027
31.7558
31.6698
31.6723
31.6951
31.7654
31.8995
32.1272
32.4426
32.8581
33.3859
34.039
34.8293
35.7678
36.8608
38.1113
39.5135
41.0515
42.6985
44.4159
46.1567
47.8697
49.5112
51.043
52.4521
53.7172
54.8526
55.8844
56.8405
57.7601
58.6536
59.5439
60.5099
61.5593
62.721
64.0205
65.4842
67.1357
68.994
71.0707
73.3664
75.8657
78.537
81.3308
84.1792
87.0097
89.7417
92.3062
94.6484
96.7329
98.5492
100.104
101.42
102.527
103.46
104.254
104.942
105.554
106.114
106.646
107.168
107.696
108.247
108.832
109.467
110.163
110.935
111.797
112.765
113.855
115.086
116.479
31.2218
29.8569
32.811
31.7713
30.3938
30.1027
29.9562
30.4072
29.7329
30.7553
29.7128
31.1415
29.8281
31.8568
31.5589
117.962
116.43
115.067
113.853
112.772
111.805
110.936
110.15
109.43
108.763
108.131
107.521
106.913
106.286
105.619
104.884
104.052
103.087
101.956
100.621
99.0517
97.2242
95.1298
92.7782
90.2021
87.4551
84.6083
81.7364
78.923
76.2299
73.7086
71.3991
69.3174
67.4582
65.8191
64.3768
63.1077
61.9876
60.9893
60.0874
59.2746
58.4863
57.6548
56.8314
55.9324
54.9396
53.8191
52.5494
51.1203
49.5491
47.8512
46.0904
44.3288
42.5906
40.9549
39.4224
38.0569
36.8397
35.789
34.8988
34.1685
32.2527
32.2057
32.2154
32.2614
32.3468
32.5285
32.7944
33.1534
33.619
34.203
34.9173
35.773
36.7783
37.9372
39.2465
40.6946
42.2591
43.906
45.5911
47.2643
48.8745
50.3806
51.7511
52.9733
54.0483
54.9821
55.8034
56.5318
57.2115
57.8373
58.5003
59.1347
59.792
60.5314
61.3697
62.3162
63.397
64.6345
66.0529
67.6742
69.5151
71.5851
73.8833
76.392
79.0789
81.8888
84.7548
87.598
90.3396
92.9083
95.2498
97.3333
99.1497
100.709
102.036
103.164
104.128
104.966
105.712
106.397
107.047
107.686
108.334
109.01
109.731
110.512
111.37
112.32
113.38
114.566
115.896
117.391
119.069
118.054
117.177
116.443
115.851
115.403
115.097
114.931
114.905
115.019
115.271
115.661
116.189
116.858
117.664
118.607
32.3511
119.681
32.3888
33.5654
32.0082
30.9702
30.0173
121.61
120.438
119.402
118.51
117.768
117.178
116.74
116.457
116.33
116.359
116.546
116.89
117.393
118.054
118.87
119.84
120.956
31.4857
30.316
30.2816
32.4822
32.8801
32.7865
32.7875
32.813
32.8578
32.9999
33.2242
33.535
33.9505
34.4751
35.1244
35.9095
36.8397
37.9206
39.1519
40.5255
42.0228
43.6146
45.2603
46.912
48.5182
50.0312
51.4143
52.6452
53.7151
54.6331
55.4131
56.0748
56.6469
57.1522
57.6116
58.0494
58.478
58.9643
59.4351
59.9429
60.5021
61.1653
61.9392
62.8335
63.8732
65.0811
66.4803
68.0916
69.9321
72.0112
74.3261
76.86
79.5744
82.4164
85.3144
88.1874
90.9548
93.5453
95.9069
98.0104
99.8505
101.439
102.805
103.983
105.012
105.932
106.776
107.579
108.367
109.171
110.006
110.896
111.86
112.916
114.083
115.379
116.821
118.427
120.216
122.206
33.0982
32.0682
29.9497
30.595
29.8215
30.9478
29.856
31.3308
29.989
31.7431
32.1808
32.9848
32.6475
34.169
33.649
122.911
120.884
119.058
117.417
115.945
114.625
113.437
112.367
111.396
110.508
109.682
108.902
108.148
107.399
106.628
105.808
104.907
103.89
102.719
101.357
99.7681
97.9278
95.8237
93.4634
90.8765
88.1155
85.2504
82.3622
79.528
76.8222
74.2905
71.9771
69.8896
68.0417
66.4198
65.0065
63.7811
62.7197
61.7989
60.9934
60.2953
59.6821
59.1001
58.5014
57.9685
57.3919
56.7827
56.0935
55.304
54.3841
53.3075
52.0639
50.6464
49.0917
47.4347
45.6971
43.9778
42.3026
40.7452
39.2852
37.9862
36.8628
35.898
35.0815
34.4209
123.773
32.7242
33.8673
96.1472
125.162
30.7987
30.212
122.511
121.389
120.416
119.599
118.946
118.462
118.147
118.006
118.039
118.246
118.629
119.186
119.914
120.811
121.869
123.077
124.422
31.2916
30.2859
30.488
34.09
33.4309
33.3866
33.3986
33.439
33.5349
33.7181
33.99
34.3562
34.8327
35.4241
36.1486
37.0138
38.0268
39.1895
40.4971
41.9353
43.4792
45.0923
46.7296
48.3399
49.8741
51.289
52.5556
53.6586
54.5988
55.3856
56.0406
56.5828
57.0365
57.4223
57.7636
58.0743
58.364
58.6564
58.9456
59.3075
59.6704
60.0597
60.497
61.0079
61.6236
62.3592
63.2239
64.2421
65.4365
66.8305
68.4458
70.2996
72.4009
74.7468
77.318
80.0774
82.9669
85.914
88.8353
91.6483
94.283
96.6889
98.8397
100.732
102.383
103.824
105.093
106.231
107.28
108.278
109.255
110.254
111.288
112.386
113.572
114.865
116.286
117.851
119.578
121.481
123.578
125.884
31.8388
30.0077
30.8091
33.4547
32.4568
29.9435
31.1637
30.0153
31.5482
30.1904
31.957
32.3901
32.8431
33.8021
126.209
127.669
35.0667
35.1735
126.663
124.329
122.203
120.269
118.514
116.923
115.481
114.173
112.979
111.883
110.864
109.897
108.96
108.031
107.076
106.061
104.949
103.702
102.277
100.639
98.7576
96.6178
94.2236
91.6025
88.8053
85.902
82.9732
80.1009
77.3564
74.7989
72.4619
70.3639
68.5063
66.8889
65.4856
64.2808
63.2462
62.3651
61.6054
60.963
60.4322
59.9543
59.5172
59.0676
58.6867
58.3176
57.9379
57.5274
57.0638
56.529
55.8946
55.1307
54.2139
53.1238
51.8563
50.4259
48.8325
47.1702
45.4781
43.7776
42.1385
40.6408
39.2667
38.0472
36.9834
36.1051
35.3392
34.7401
34.839
34.266
33.1334
34.2481
90.6454
30.722
30.4256
124.875
123.677
122.63
121.746
121.038
120.51
120.166
120.011
120.047
120.275
120.692
121.298
122.088
123.056
124.19
125.476
126.897
128.428
31.1697
30.2797
30.7164
40.275
34.0277
34.0356
34.0669
34.1168
34.2697
34.5062
34.834
35.2645
35.8097
36.481
37.288
38.2399
39.3405
40.5875
41.9705
43.4686
45.0502
46.6731
48.2884
49.8455
51.2984
52.6117
53.764
54.7489
55.5721
56.2493
56.8001
57.2473
57.611
57.9111
58.1644
58.3845
58.5841
58.7769
58.9649
59.1575
59.3529
59.5924
59.8855
60.1788
60.5179
60.9105
61.3915
61.9799
62.6933
63.5427
64.5529
65.747
67.1491
68.7819
70.6619
72.7994
75.1907
77.8169
80.6382
83.5955
86.6126
89.6047
92.4899
95.1977
97.6798
99.9131
101.898
103.656
105.22
106.633
107.939
109.181
110.394
111.635
112.912
114.261
115.706
117.269
118.971
120.826
122.847
125.047
127.438
130.042
31.7054
30.1049
31.0453
32.2727
30.0962
31.4051
33.8802
32.9135
30.2119
31.7891
30.4053
32.1958
32.6221
33.0683
128.992
130.491
33.5282
33.9878
73.4039
34.4411
129.233
130.876
128.256
125.846
123.625
121.58
119.704
117.984
116.407
114.957
113.616
112.36
111.164
109.999
108.847
107.658
106.398
105.024
103.492
101.763
99.8031
97.5938
95.1354
92.4521
89.5929
86.627
83.6364
80.7042
77.905
75.2969
72.9193
70.7917
68.9166
67.285
65.8803
64.6773
63.6552
62.7946
62.0667
61.4619
60.9679
60.5444
60.1744
59.8325
59.4999
59.2421
58.9892
58.7446
58.4918
58.2206
57.9191
57.5698
57.1468
56.6324
55.9939
55.2104
54.2556
53.1207
51.7937
50.3175
48.7269
47.0362
45.3286
43.6931
42.1031
40.6532
39.3275
38.2058
37.2055
36.3745
35.6749
35.131
370.543
33.6075
34.6979
85.4093
60.2047
30.6813
30.665
127.611
126.362
125.264
124.335
123.582
123.018
122.651
122.485
122.523
122.764
123.208
123.851
124.687
125.705
126.892
128.23
129.695
131.264
132.905
31.1363
30.3427
30.967
61.1242
40.7633
34.6736
34.7021
34.7557
34.8689
35.0738
35.3687
35.762
36.265
36.8897
37.6475
38.5449
39.5896
40.781
42.1121
43.5658
45.1147
46.7206
48.3372
49.9141
51.4035
52.7653
53.9724
55.0123
55.8857
56.604
57.1849
57.6496
58.0188
58.3119
58.5458
58.7349
58.8905
59.0226
59.1392
59.2486
59.3578
59.4713
59.5897
59.7233
59.8675
60.0737
60.3104
60.5685
60.8781
61.2438
61.7049
62.279
62.9837
63.8307
64.8462
66.0534
67.4772
69.1406
71.0626
73.2529
75.7081
78.4084
81.3132
84.3621
87.4772
90.5726
93.5656
96.3868
98.9897
101.354
103.485
105.406
107.157
108.781
110.326
111.828
113.361
114.927
116.564
118.298
120.153
122.145
124.287
126.586
129.054
131.707
134.586
31.635
30.2365
31.3039
32.1905
30.278
31.6673
32.7692
30.4251
32.0537
34.3729
33.4315
30.6491
32.4593
32.8829
132.268
133.755
33.3202
33.7669
34.219
34.6782
132.086
133.751
132.574
129.913
127.434
125.121
122.967
120.964
119.104
117.372
115.753
114.222
112.749
111.309
109.881
108.403
106.839
105.141
103.267
101.179
98.8556
96.2917
93.5092
90.5545
87.4962
84.4163
81.3999
78.5233
75.8467
73.4099
71.2332
69.3198
67.6606
66.2377
65.0281
64.0068
63.1512
62.4359
61.8489
61.3789
60.9932
60.6652
60.3844
60.1016
59.8827
59.7105
59.5432
59.3841
59.2281
59.0685
58.8991
58.7116
58.4896
58.2205
57.8834
57.4609
56.9266
56.2536
55.4224
54.4072
53.2106
51.8449
50.3126
48.6746
47.0098
45.3091
43.69
42.1305
40.7676
39.5026
38.4176
37.5055
36.7208
36.0965
35.5959
35.4269
34.1428
35.2127
35.1587
135.461
30.6714
30.9221
130.891
129.641
128.537
127.596
126.829
126.252
125.878
125.706
125.742
125.984
126.434
127.085
127.93
128.957
130.151
131.492
132.954
134.51
136.132
137.791
31.1191
30.441
31.2369
35.632
35.6062
35.4065
35.4059
35.4965
35.6713
35.9476
36.315
36.7853
37.3711
38.0844
38.9362
39.9299
41.0703
42.3525
43.7628
45.2778
46.863
48.4755
50.0664
51.5866
52.9932
54.2544
55.3519
56.2813
57.05
57.6729
58.1697
58.5605
58.8655
59.1013
59.2832
59.4232
59.5307
59.6135
59.679
59.7314
59.7762
59.8198
59.8638
59.9144
59.9744
60.0531
60.1465
60.2673
60.4526
60.6541
60.8893
61.1822
61.537
61.9873
62.5599
63.2689
64.1276
65.1604
66.3949
67.8558
69.5672
71.5486
73.8107
76.3517
79.1517
82.1701
85.345
88.5976
91.8405
94.9901
97.978
100.76
103.318
105.662
107.818
109.828
111.74
113.586
115.454
117.358
119.311
121.35
123.495
125.762
128.159
130.695
133.387
136.275
139.459
31.6149
30.399
31.5817
32.146
30.4849
31.9507
35.8261
32.7285
30.6655
32.3392
33.3403
30.9077
32.7451
136.341
137.729
34.9251
34.0109
33.1657
33.5991
34.0414
34.49
34.9412
135.335
136.981
138.67
137.184
134.289
131.594
129.057
126.659
124.395
122.257
120.237
118.318
116.48
114.681
112.921
111.161
109.333
107.399
105.312
103.034
100.537
97.8133
94.8817
91.7861
88.5944
85.389
82.2562
79.274
76.5037
73.9864
71.7417
69.7726
68.0688
66.6116
65.3778
64.3427
63.4793
62.7641
62.183
61.7251
61.3561
61.0499
60.7977
60.5646
60.37
60.2356
60.1156
60.0147
59.9204
59.8376
59.7555
59.6716
59.5803
59.475
59.3445
59.18
58.9725
58.7021
58.3537
57.9052
57.329
56.6021
55.7055
54.6293
53.3615
51.9301
50.3741
48.7009
47.021
45.3226
43.7682
42.2614
40.9301
39.7607
38.7272
37.8775
37.1668
36.5913
36.1329
34.7297
35.4012
35.7813
35.6434
140.377
30.7242
31.1996
135.063
133.904
132.88
132.008
131.294
130.753
130.398
130.231
130.257
130.477
130.888
131.488
132.269
133.225
134.339
135.592
136.961
138.424
139.956
141.536
143.142
31.153
30.5784
31.5253
36.2724
36.2748
36.2684
36.3609
36.5773
36.9167
37.3636
37.9215
38.5998
39.41
40.3611
41.4539
42.6897
44.0574
45.5372
47.0982
48.7011
50.2981
51.842
53.2867
54.597
55.7499
56.7361
57.5586
58.2293
58.766
59.1882
59.516
59.7661
59.9555
60.0947
60.1961
60.2659
60.3105
60.3381
60.3521
60.3515
60.3484
60.3416
60.3305
60.3302
60.3332
60.3442
60.3641
60.4151
60.491
60.5984
60.7679
60.9542
61.1803
61.4694
61.8283
62.2774
62.8615
63.5834
64.4694
65.5374
66.8158
68.3315
70.1098
72.1726
74.5331
77.1907
80.1262
83.2994
86.6474
90.0898
93.5379
96.9071
100.129
103.162
105.988
108.619
111.085
113.426
115.675
117.904
120.186
122.468
124.805
127.217
129.716
132.319
135.044
137.94
141.11
144.759
31.616
30.5893
31.8784
36.3489
35.9766
32.1392
30.7154
32.2526
32.7056
30.9224
32.6449
141.807
142.94
33.3048
31.188
33.9457
33.0521
33.4726
35.5265
34.6333
33.9038
34.3428
34.7892
35.2434
139.216
140.779
142.397
144.051
142.078
138.891
135.987
133.265
130.675
128.193
125.81
123.515
121.295
119.126
116.961
114.848
112.699
110.455
108.083
105.541
102.799
99.8492
96.7054
93.4104
90.0313
86.6517
83.3591
80.2327
77.3358
74.7087
72.371
70.325
68.5582
67.0495
65.7745
64.7077
63.8205
63.0949
62.5059
62.0518
61.6836
61.3856
61.1475
60.9397
60.7616
60.6466
60.5568
60.4872
60.438
60.4024
60.3737
60.3518
60.3266
60.3025
60.2693
60.2261
60.1611
60.073
59.9535
59.7916
59.5782
59.2874
58.9097
58.4173
57.792
57.0055
56.0387
54.89
53.5679
52.0636
50.4686
48.7671
47.1194
45.4581
43.9049
42.4743
41.2094
40.0963
39.1633
38.3506
37.6911
37.1466
36.7179
35.3563
35.9227
36.389
35.7197
145.727
30.8253
31.4931
140.796
139.903
139.129
138.475
137.935
137.522
137.246
137.111
137.129
137.276
137.564
138.001
138.587
139.319
140.188
141.184
142.303
143.529
144.845
146.245
147.713
149.244
31.2472
30.743
31.8306
37.0854
37.1217
37.2085
37.3567
37.6164
37.9937
38.5167
39.1624
39.9501
40.8699
41.9261
43.1198
44.4475
45.8917
47.4262
49.0141
50.6111
52.17
53.6443
54.9972
56.2001
57.2402
58.1159
58.8362
59.4165
59.8753
60.2323
60.5045
60.7095
60.8575
60.964
61.0306
61.0708
61.0839
61.0803
61.0678
61.041
60.9996
60.9521
60.9016
60.8505
60.8022
60.7587
60.7241
60.6968
60.6975
60.7065
60.7342
60.7916
60.8958
61.0591
61.2488
61.4799
61.7785
62.1556
62.6222
63.2248
63.9792
64.9055
66.0252
67.3645
68.9571
70.8302
73.0063
75.5011
78.3165
81.435
84.8161
88.3966
92.0943
95.8184
99.4822
103.015
106.374
109.541
112.525
115.353
118.054
120.654
123.294
125.936
128.549
131.184
133.871
136.639
139.549
142.723
146.374
150.83
36.2102
31.7112
30.8055
32.1922
36.4447
37.0771
32.1966
30.9663
32.5727
149.676
150.284
32.7201
31.2003
31.483
33.2969
32.9691
33.3788
33.9254
33.8
34.5864
34.2323
36.1651
35.2961
34.6708
35.1158
35.5671
144.192
145.547
146.995
148.522
150.116
147.412
143.752
140.553
137.634
134.882
132.232
129.649
127.115
124.606
122.076
119.554
117.063
114.471
111.753
108.879
105.821
102.569
99.1394
95.5739
91.941
88.3257
84.8172
81.4973
78.4289
75.6533
73.1898
71.0367
69.1807
67.5999
66.2682
65.1531
64.2276
63.4732
62.8685
62.3996
62.0176
61.7137
61.4752
61.2718
61.1021
60.9925
60.9161
60.875
60.8562
60.8505
60.8494
60.8647
60.8873
60.9108
60.9349
60.9579
60.9679
60.9705
60.9628
60.9256
60.8756
60.7913
60.6684
60.4943
60.2574
59.9401
59.5239
58.9821
58.2935
57.4385
56.4096
55.1766
53.7939
52.2433
50.6402
48.9517
47.2624
45.6629
44.1672
42.8172
41.6171
40.5693
39.6621
38.8884
38.2522
37.7376
37.3464
36.0218
36.0281
36.1987
37.0384
151.77
30.9577
31.804
149.205
148.851
148.588
148.382
148.21
148.076
147.987
147.93
147.921
147.946
148.003
148.108
148.289
148.558
148.926
149.405
150.01
150.744
151.617
152.634
153.789
155.083
156.505
36.4409
31.3737
30.9386
36.5209
36.7247
32.1522
36.6052
37.1454
37.902
37.9439
38.0094
38.1847
38.4478
38.7876
39.242
39.8258
40.564
41.4282
42.4799
43.6429
44.9339
46.3439
47.8499
49.4178
51.0084
52.5748
54.0706
55.4564
56.7022
57.791
58.7168
59.4855
60.1101
60.6078
60.9973
61.296
61.5215
61.6845
61.8018
61.8737
61.9172
61.9234
61.9172
61.8983
61.8584
61.8006
61.7324
61.6566
61.5755
61.4915
61.4068
61.3238
61.2444
61.1716
61.1063
61.0555
61.0137
61.003
61.0098
61.0344
61.0891
61.197
61.3647
61.577
61.8274
62.1525
62.5642
63.0706
63.6991
64.4989
65.479
66.676
68.1098
69.8098
71.8116
74.1418
76.817
79.8411
83.1997
86.8529
90.7359
94.7637
98.8401
102.873
106.785
110.527
114.077
117.435
120.621
123.64
126.57
129.508
132.409
135.246
138.105
141.062
144.274
147.975
152.465
158.037
31.8172
31.0437
32.5223
161.146
160.877
32.3021
31.2373
31.4939
32.8181
32.9095
33.3108
33.3619
31.7958
33.7241
33.9365
34.1482
34.5761
34.5809
35.2633
35.0194
36.8314
35.9763
35.4622
35.9138
151.045
151.966
153.04
154.257
155.61
157.076
158.629
153.471
149.097
145.383
142.14
139.184
136.374
133.624
130.877
128.072
125.228
122.398
119.483
116.41
113.172
109.747
106.131
102.344
98.4341
94.4728
90.5501
86.7595
83.1845
79.8905
76.9186
74.285
71.9864
70.0082
68.327
66.9072
65.7191
64.7447
63.946
63.3189
62.8143
62.4023
62.076
61.8226
61.6028
61.4316
61.3202
61.2549
61.222
61.211
61.2098
61.2373
61.2752
61.3239
61.3806
61.4405
61.5032
61.5663
61.626
61.6774
61.7218
61.7456
61.7571
61.761
61.7344
61.6796
61.5848
61.4483
61.2556
60.9908
60.637
60.1724
59.5759
58.8285
57.8993
56.7986
55.513
54.0876
52.5076
50.8566
49.1829
47.5577
45.9985
44.5819
43.2993
42.1166
41.0973
40.2099
39.4824
38.8588
38.3528
37.9678
36.7223
37.6746
37.4955
36.3798
40.2414
31.1238
38.5509
38.4551
36.8499
37.0179
36.7839
37.2552
37.8961
37.0138
37.4195
37.979
37.2637
37.6126
38.0981
37.8432
37.548
38.2644
37.3447
38.4592
38.0989
37.8505
32.1297
161.568
162.077
162.612
163.105
163.523
163.841
164.05
164.133
164.108
163.936
163.653
163.275
162.843
162.396
161.971
161.603
161.35
161.269
161.346
161.628
162.128
162.845
163.757
164.829
38.8214
39.4066
40.0341
40.7821
41.6647
42.6551
43.7956
45.0806
46.5024
48.0007
49.5899
51.2234
52.8624
54.4412
55.924
57.255
58.4166
59.3943
60.2032
60.8571
61.3683
61.7642
62.0599
62.2789
62.4318
62.5407
62.5992
62.6318
62.6289
62.6169
62.5859
62.5304
62.4638
62.3876
62.3027
62.2136
62.1199
62.0263
61.9343
61.8463
61.7633
61.6891
61.6254
61.5771
61.5423
61.5434
61.5559
61.5926
61.6666
61.7909
61.9754
62.234
62.5221
62.8829
63.3408
63.9049
64.5902
65.4394
66.4961
67.7705
69.3123
71.1362
73.2737
75.7612
78.6165
81.842
85.4232
89.3195
93.4624
97.7619
102.116
106.427
110.61
114.609
118.395
121.962
125.32
128.481
131.542
134.58
137.575
140.534
143.593
146.942
150.766
155.203
160.233
31.5345
31.1584
32.4891
160.81
160.922
161.262
161.823
162.587
163.513
164.556
165.651
38.9691
38.8561
38.7623
38.7642
38.7903
38.8666
39.0245
39.275
39.6199
40.0689
40.625
41.3043
42.1304
43.1033
44.2383
45.4838
46.874
48.3579
49.9089
51.4893
53.056
54.5665
55.9785
57.2596
58.3895
59.3604
60.1746
60.842
61.3786
61.8019
62.1296
62.3782
62.5604
62.6914
62.7745
62.8245
62.8338
62.8273
62.8069
62.7632
62.6972
62.6179
62.5277
62.4292
62.3245
62.2154
62.1039
61.9915
61.8804
61.7721
61.6693
61.5736
61.4873
61.4122
61.3557
61.3108
61.3068
61.3169
61.3483
61.4173
61.5409
61.7252
61.9831
62.2729
62.6365
63.0987
63.6698
64.3648
65.2211
66.2865
67.5773
69.1355
70.9867
73.1591
75.6872
78.5955
81.8876
85.5502
89.5437
93.799
98.2239
102.713
107.163
111.485
115.617
119.527
123.204
126.659
129.908
133.04
136.158
139.254
142.371
145.706
149.537
154.132
159.651
166.001
31.978
31.3037
31.5257
32.4434
32.868
33.2622
32.9394
31.8048
176.718
175.296
33.6692
33.47
32.1225
34.0868
34.0389
34.5146
34.6267
34.9483
35.2574
35.3869
35.9526
35.8307
36.6647
36.2812
37.4628
36.7382
37.2094
39.1353
38.6889
37.6844
39.8297
39.3265
31.3181
42.1184
39.2197
38.3826
38.1789
32.4706
39.7256
39.9179
40.4416
41.2224
42.1494
43.2033
44.3597
45.656
47.0281
48.5118
50.1154
51.737
53.3472
54.9308
56.4137
57.777
58.9828
60.0188
60.8818
61.5811
62.1361
62.5717
62.9016
63.1506
63.3243
63.4502
63.52
63.5651
63.5633
63.5478
63.5185
63.4616
63.3898
63.3034
63.2055
63.1003
62.9892
62.8732
62.7548
62.6354
62.5177
62.4034
62.2945
62.1924
62.1004
62.0195
61.9542
61.9045
61.8856
61.8916
61.9156
61.9709
62.0816
62.227
62.441
62.7362
63.0978
63.5207
64.048
64.6971
65.4798
66.4219
67.5704
68.9765
70.6547
72.6617
75.0126
77.735
80.8634
84.3997
88.3269
92.6016
97.1489
101.868
106.643
111.359
115.919
120.251
124.32
128.115
131.65
134.963
138.161
141.409
144.769
148.35
152.373
156.923
161.829
166.726
178.215
179.715
181.13
182.376
183.412
184.209
184.735
184.981
184.947
184.622
184.016
183.18
182.139
180.931
179.608
178.242
176.914
175.698
174.629
173.76
173.122
172.758
172.639
172.665
172.807
31.7263
31.4021
39.9914
48.7078
31.5823
32.1582
32.8406
33.2285
39.7307
39.6586
39.6651
39.6981
39.751
39.9121
40.1541
40.4873
40.9265
41.4775
42.1484
42.9441
43.8783
44.9438
46.186
47.5261
48.9729
50.5024
52.0678
53.6294
55.1428
56.5696
57.8771
59.0413
60.0505
60.9043
61.6115
62.1853
62.6421
62.9993
63.2725
63.4762
63.6228
63.721
63.7795
63.7982
63.7929
63.774
63.7324
63.6635
63.5788
63.4806
63.3718
63.2544
63.1302
63.0008
62.8677
62.7326
62.597
62.4627
62.3311
62.2043
62.0838
61.972
61.8714
61.7831
61.7112
61.6572
61.6331
61.6386
61.6617
61.717
61.8274
61.9753
62.193
62.4917
62.8626
63.2964
63.8345
64.4968
65.2965
66.2581
67.4234
68.8465
70.5535
72.5877
74.9841
77.7613
80.9546
84.5704
88.5921
92.9774
97.6507
102.507
107.426
112.285
116.981
121.435
125.611
129.498
133.116
136.509
139.793
143.211
146.88
150.98
155.775
161.291
167.205
172.985
32.6203
31.8314
174.028
172.955
172.122
171.537
171.203
171.088
171.092
171.158
171.202
194.5
192.07
39.559
39.7837
38.944
33.6302
33.1076
32.1301
34.0434
33.6205
32.4646
34.466
34.1581
34.8967
34.7329
35.3331
35.3425
35.7732
35.9788
36.2166
36.6848
36.6667
37.479
37.1239
40.3757
37.5807
38.049
31.54
41.1183
41.3162
31.6665
31.9456
33.2064
196.835
199.006
200.942
202.587
203.925
204.944
205.63
205.966
205.955
205.578
204.875
203.878
202.567
200.951
199.072
197
194.801
192.54
190.279
188.092
186.034
184.154
182.467
180.935
179.531
178.207
92.8296
40.5822
40.6065
40.6392
40.721
40.8649
41.1055
41.4257
41.8493
42.3863
43.0431
43.8297
44.7442
45.7987
46.9699
48.2919
49.6934
51.1926
52.7377
54.2894
55.8011
57.2364
58.5597
59.7481
60.7885
61.6774
62.4197
63.0276
63.5166
63.9026
64.201
64.4271
64.5906
64.7061
64.7745
64.8065
64.8033
64.7882
64.7526
64.6843
64.5979
64.4959
64.3811
64.2558
64.1217
63.9805
63.8336
63.6824
63.5285
63.3732
63.2179
63.0643
62.9136
62.7677
62.6281
62.4967
62.3754
62.2663
62.1721
62.095
62.0375
62.01
62.0159
62.0381
62.0908
62.1946
62.3498
62.5529
62.8253
63.1874
63.6589
64.2084
64.8533
65.6347
66.5762
67.6946
69.0189
70.5952
72.4927
74.738
77.3924
80.4622
83.9724
87.9405
92.3451
97.1355
102.224
107.49
112.792
117.991
122.967
127.643
131.986
136.012
139.811
143.528
147.498
152.097
157.266
162.854
168.347
173.07
176.881
32.3765
31.8793
40.5927
40.9334
41.3975
41.9336
42.6938
43.6733
44.8622
46.1897
47.6366
49.1225
50.6937
52.2666
53.9035
55.5211
57.0231
58.4045
59.6306
60.6971
61.6042
62.3488
62.9492
63.4205
63.7832
64.0587
64.2548
64.4007
64.4844
64.5448
64.5443
64.5335
64.5058
64.4512
64.3764
64.2865
64.1823
64.0697
63.9462
63.8156
63.6806
63.5425
63.4021
63.262
63.123
62.9876
62.8577
62.7344
62.62
62.5167
62.4268
62.3529
62.2974
62.2699
62.2752
62.2959
62.3463
62.4454
62.5951
62.7909
63.0543
63.4044
63.865
64.3924
65.0165
65.7782
66.6952
67.7839
69.0763
70.623
72.492
74.6956
77.3031
80.3115
83.7521
87.6357
91.9407
96.6167
101.578
106.708
111.872
116.937
121.79
126.357
130.605
134.538
138.217
141.744
145.364
149.381
153.792
158.543
163.336
167.683