/*--------------------------------*- C++ -*----------------------------------*\
| =========                 |                                                 |
| \\      /  F ield         | OpenFOAM: The Open Source CFD Toolbox           |
|  \\    /   O peration     | Version:  2212                                  |
|   \\  /    A nd           | Website:  www.openfoam.com                      |
|    \\/     M anipulation  |                                                 |
\*---------------------------------------------------------------------------*/
FoamFile
{
    version     2.0;
    format      ascii;
    arch        "LSB;label=32;scalar=64";
    class       surfaceScalarField;
    location    "0.0028";
    object      phi;
}
// * * * * * * * * * * * * * * * * * * * * * * * * * * * * * * * * * * * * * //

dimensions      [1 0 -1 0 0 0 0];

oriented        oriented;

internalField   nonuniform List<scalar> 
42859
(
0.000729
0.00884
-3.32e-06
0.011
-0.000715
0.011
-9.71e-06
0.00887
0.000724
0.00883
-3.13e-06
0.011
-0.000728
0.011
0.00884
0.000725
0.00812
-1.05e-05
0.0118
-0.000696
0.0117
-9.23e-06
0.00818
0.000715
0.00811
-5.81e-06
0.0117
-0.000717
0.0117
0.00812
-0.00342
0.0115
-3.43e-05
0.00838
0.00337
0.00827
4.13e-05
0.0115
-0.0034
0.0115
-1.96e-05
0.00836
0.00343
0.00828
0.0115
-0.00155
0.0131
-5.12e-05
0.00688
0.00156
0.00667
1.67e-05
0.0131
-0.00157
0.0131
-1.45e-05
0.0068
0.00158
0.00669
0.0131
0.00312
0.00997
0.000176
0.00982
-0.00307
0.00991
-4.04e-05
0.01
0.0031
0.01
5.82e-05
0.00984
-0.00311
0.00985
0.01
-1.73e-05
0.00999
6.6e-05
0.00973
4.73e-05
0.00993
-4.3e-07
0.0101
-3.43e-05
0.01
3.18e-06
0.0098
4.1e-05
0.00982
0.0101
0.00027
0.00972
4.08e-05
0.00996
-0.000211
0.0102
1.61e-05
0.00984
0.000235
0.00981
9.1e-06
0.01
-0.000231
0.0101
0.00983
0.000116
0.0096
4.58e-05
0.01
-0.000112
0.0103
1.73e-05
0.00971
0.00013
0.0097
9.56e-06
0.0101
-0.000122
0.0102
0.0097
-2.51e-05
0.00963
3.58e-07
0.01
-8.92e-06
0.0103
7.47e-07
0.0097
7.33e-06
0.0097
2.58e-06
0.0102
-7.21e-06
0.0102
0.0097
-4.27e-05
0.00967
-1.59e-05
0.00998
-1.03e-06
0.0103
-1.08e-06
0.0097
-1.01e-05
0.00971
9.04e-07
0.0101
7.38e-06
0.0102
0.00971
3.86e-06
0.00967
7.46e-06
0.00997
-9.43e-07
0.0103
1.72e-06
0.0097
-1.76e-07
0.00971
-1.5e-07
0.0101
-1.13e-06
0.0102
0.0097
1.63e-06
0.00966
1.24e-05
0.00996
1.93e-05
0.0103
5.15e-06
0.00972
-1.15e-05
0.00972
2.41e-07
0.0101
1.42e-05
0.0102
0.00972
-5.14e-06
0.00967
1.42e-05
0.00994
2.44e-05
0.0103
5.83e-06
0.00973
-1.45e-05
0.00975
1.11e-06
0.0101
1.92e-05
0.0102
0.00974
-9.84e-06
0.00968
1.43e-05
0.00992
2.42e-05
0.0103
5.56e-06
0.00975
-1.42e-05
0.00977
1.8e-06
0.0101
1.95e-05
0.0101
0.00976
-1.25e-05
0.00969
1.19e-05
0.0099
2.39e-05
0.0103
4.46e-06
0.00977
-1.48e-05
0.00979
3.27e-06
0.0101
1.97e-05
0.0101
0.00978
-2.41e-05
0.00972
-4.05e-06
0.00988
2.15e-05
0.0103
1.78e-06
0.00979
-1.49e-05
0.0098
7.23e-06
0.0101
2.11e-05
0.0101
0.0098
-2.77e-05
0.00974
-1.04e-05
0.00986
2.47e-05
0.0102
1.29e-06
0.00982
-2.16e-05
0.00983
2.89e-06
0.01
2.33e-05
0.0101
0.00982
-2.34e-05
0.00977
-5.54e-06
0.00984
2.72e-05
0.0102
3.82e-06
0.00984
-3.1e-05
0.00986
-1e-05
0.01
2.37e-05
0.0101
0.00985
-1.87e-05
0.00979
4.46e-07
0.00983
2.61e-05
0.0102
4.27e-06
0.00986
-3.04e-05
0.0099
-8.56e-06
0.00999
2.52e-05
0.01
0.00987
-2.25e-05
0.00981
-5.11e-06
0.00981
2.03e-05
0.0102
-1.9e-06
0.00988
-2.66e-05
0.00992
3.78e-06
0.00996
2.64e-05
0.01
0.0099
-2.52e-05
0.00983
-1.2e-05
0.0098
1.6e-05
0.0101
-7.78e-06
0.00991
-2.31e-05
0.00994
8.38e-06
0.00994
2.41e-05
0.00999
0.00992
-1.98e-05
0.00985
-8.82e-06
0.00979
1.87e-05
0.0101
7.95e-07
0.00993
-1.8e-05
0.00995
4e-06
0.00991
1.99e-05
0.00998
0.00994
-1.74e-05
0.00987
-9.95e-06
0.00978
2.16e-05
0.0101
1.53e-05
0.00993
-1.27e-05
0.00998
-3.92e-06
0.00991
1.63e-05
0.00996
0.00996
-1.82e-05
0.00989
-1.98e-05
0.00979
1.68e-05
0.01
1.8e-05
0.00993
-7.84e-06
0.01
-4.37e-06
0.00991
1.22e-05
0.00994
0.00997
-1.17e-05
0.0099
-2.47e-05
0.0098
3.24e-06
0.01
1.23e-06
0.00993
-4.53e-06
0.01
3.51e-07
0.0099
7.06e-06
0.00994
0.00998
5.15e-06
0.0099
-2.15e-05
0.00983
-1.11e-05
0.01
-2.87e-05
0.00995
-7.18e-06
0.00999
-2.11e-07
0.0099
-6.36e-07
0.00994
0.00998
1.54e-05
0.00988
-1.56e-05
0.00986
-2.04e-05
0.01
-4.18e-05
0.00997
-8.72e-06
0.00996
-7.51e-06
0.0099
-8.47e-06
0.00994
0.00997
1.93e-05
0.00986
-9.26e-06
0.00989
-2.17e-05
0.01
-2.54e-05
0.00998
3.98e-06
0.00993
-1.32e-05
0.00991
-1.48e-05
0.00994
0.00996
1.71e-05
0.00985
-8.64e-06
0.00991
-2.21e-05
0.01
5.21e-06
0.00995
2.06e-05
0.00992
-7.64e-06
0.00994
-2.01e-05
0.00996
0.00994
1.48e-05
0.00983
-1.44e-05
0.00994
-2.92e-05
0.0101
2.52e-05
0.0099
3.59e-05
0.00991
6.06e-06
0.00997
-2.46e-05
0.00999
0.00991
1.72e-05
0.00982
-1.31e-05
0.00997
-3.44e-05
0.0101
2.84e-05
0.00984
4.31e-05
0.00989
1.56e-05
0.01
-3.09e-05
0.01
0.00988
2.07e-05
0.0098
5.94e-07
0.00999
-3.38e-05
0.0101
1.76e-05
0.00978
4.7e-05
0.00986
1.53e-05
0.01
-3.88e-05
0.0101
0.00984
2.3e-05
0.00977
1.9e-05
0.01
-2.86e-05
0.0102
-6.4e-06
0.00976
3.89e-05
0.00982
3.67e-06
0.0101
-4.38e-05
0.0101
0.0098
2.42e-05
0.00975
2.32e-05
0.01
-3.11e-05
0.0102
-2.42e-05
0.00976
2.49e-05
0.00977
-1.19e-05
0.0101
-4.06e-05
0.0102
0.00976
2.35e-05
0.00973
1.13e-05
0.01
-3.7e-05
0.0103
-2.05e-05
0.00974
1.82e-05
0.00973
-1.52e-05
0.0101
-3.3e-05
0.0102
0.00973
2.33e-05
0.00971
-1.22e-05
0.01
-4.26e-05
0.0103
-3.47e-06
0.0097
1.68e-05
0.00971
-9.75e-06
0.0102
-2.57e-05
0.0102
0.0097
3.44e-05
0.00967
-2e-05
0.0101
-3.4e-05
0.0103
9.52e-06
0.00966
1.69e-05
0.00971
8.51e-06
0.0102
-1.18e-05
0.0102
0.00969
3.66e-05
0.00964
3.06e-06
0.0101
-1.37e-05
0.0103
-4.64e-07
0.00965
1.08e-05
0.0097
8.18e-06
0.0102
-9.07e-06
0.0102
0.00969
2.36e-05
0.00961
2.33e-05
0.0101
1.8e-06
0.0103
-1.13e-05
0.00966
1.43e-06
0.00968
6.59e-08
0.0102
-8.02e-06
0.0102
0.00968
1.44e-05
0.0096
3.43e-05
0.0101
1.73e-05
0.0104
-7.95e-06
0.00969
-2.48e-06
0.00968
1.2e-07
0.0102
-7.04e-07
0.0102
0.00968
7.49e-06
0.0096
3.56e-05
0.0101
2.41e-05
0.0104
4.11e-06
0.00971
1.16e-06
0.00968
3.42e-06
0.0102
4.19e-06
0.0102
0.00969
-7.87e-07
0.0096
3.47e-05
0.01
2.79e-05
0.0104
1.2e-05
0.00973
5.15e-06
0.00969
5.76e-06
0.0102
6.93e-06
0.0102
0.00969
-5.57e-06
0.0096
3.84e-05
0.01
3.21e-05
0.0104
1.71e-05
0.00974
6.16e-06
0.0097
6.83e-06
0.0102
8.61e-06
0.0102
0.0097
-4.55e-06
0.00961
5.02e-05
0.00995
3.82e-05
0.0104
2.1e-05
0.00976
9.06e-06
0.00971
8.84e-06
0.0102
1.1e-05
0.0102
0.00971
1.23e-06
0.00961
6.58e-05
0.00988
4.18e-05
0.0104
2.16e-05
0.00978
8.91e-06
0.00973
8.6e-06
0.0102
1.2e-05
0.0102
0.00973
4.44e-06
0.0096
7.34e-05
0.00981
4.2e-05
0.0104
1.92e-05
0.0098
8.48e-06
0.00974
8.95e-06
0.0102
1.3e-05
0.0102
0.00974
2.05e-07
0.00961
6.07e-05
0.00975
3.77e-05
0.0105
1.53e-05
0.00983
1.82e-06
0.00976
1.14e-05
0.0102
1.56e-05
0.0102
0.00976
-1.49e-05
0.00962
1.46e-05
0.00972
1.83e-05
0.0105
-1.76e-07
0.00984
-1.46e-05
0.00977
1.73e-05
0.0101
2.64e-05
0.0102
0.00978
-7.01e-05
0.0097
-9.69e-05
0.00976
-2.67e-05
0.0104
-4.52e-05
0.00986
-5.81e-05
0.00979
-7.62e-06
0.0101
3.75e-05
0.0102
0.00982
-7.39e-05
0.00977
-0.000122
0.00981
-1.96e-05
0.0103
-4.32e-05
0.00989
-8.91e-05
0.00984
-3.78e-05
0.01
3.86e-05
0.0101
0.00986
-5.66e-05
0.00983
-7.92e-05
0.00983
2.83e-05
0.0102
-1.21e-05
0.00993
-7.09e-05
0.0099
-2.47e-05
0.00999
4.41e-05
0.01
0.00991
-4e-05
0.00987
-4.82e-05
0.00985
5.6e-05
0.0101
2.3e-05
0.00996
-3.47e-05
0.00995
9.26e-06
0.00995
5.16e-05
0.00999
0.00996
-2.74e-05
0.0099
-2.92e-05
0.00985
6.66e-05
0.01
4.68e-05
0.00999
-1.13e-05
0.01
2.44e-05
0.00991
5.08e-05
0.00997
0.01
-1.68e-05
0.00991
-5.85e-06
0.00984
7.39e-05
0.00993
5.89e-05
0.01
-5.72e-07
0.0101
2.71e-05
0.00989
4.63e-05
0.00995
0.0101
-5.51e-06
0.00992
2.67e-05
0.00981
7.69e-05
0.00988
5.83e-05
0.01
-4.97e-06
0.0101
7.76e-06
0.00988
3.34e-05
0.00993
0.0101
6.09e-06
0.00991
4.82e-05
0.00976
4.88e-05
0.00988
2.79e-05
0.01
1.49e-06
0.0102
-7.68e-07
0.00988
3e-05
0.0099
0.0101
1.86e-05
0.00989
3.43e-05
0.00975
2.26e-05
0.00989
-1.13e-05
0.0101
1.21e-05
0.0101
3.04e-06
0.00989
3.15e-05
0.00987
0.0101
2.99e-05
0.00986
-2.22e-05
0.0098
2.61e-07
0.00987
-3.27e-05
0.0101
1.92e-05
0.0101
1.44e-05
0.0099
2.61e-05
0.00986
0.0102
6.76e-05
0.00979
-1.37e-05
0.00988
1.51e-05
0.00984
-2.17e-06
0.0101
3.91e-05
0.01
4.9e-05
0.00988
2.99e-05
0.00987
0.0102
9.58e-05
0.00969
7.48e-05
0.0099
8.52e-05
0.00983
0.000104
0.0101
0.000131
0.01
8.88e-05
0.00992
4.5e-06
0.00996
0.0102
0.000137
0.00956
0.000176
0.00986
0.000175
0.00983
0.00023
0.01
0.000215
0.01
0.000123
0.01
-1.35e-06
0.0101
0.0102
0.0002
0.00936
0.000269
0.00979
0.000253
0.00984
0.000327
0.00997
0.0003
0.0101
0.000169
0.0101
1.48e-05
0.0102
0.0102
0.000297
0.00906
0.000413
0.00968
0.000403
0.00985
0.000454
0.00992
0.0004
0.0101
0.000248
0.0103
5.97e-05
0.0104
0.0103
0.000474
0.00859
0.000588
0.00956
0.000572
0.00987
0.000572
0.00992
0.000506
0.0102
0.000326
0.0105
0.000103
0.0106
0.0104
0.000801
0.00779
0.000967
0.0094
0.000973
0.00986
0.000869
0.01
0.000742
0.0103
0.000534
0.0107
0.000234
0.0109
0.0106
-0.000357
0.00815
-0.000371
0.00941
-0.000306
0.0098
-0.000205
0.00993
-8.86e-05
0.0102
-7.57e-05
0.0107
-5.01e-05
0.0109
0.0106
-0.000432
0.00858
-0.000419
0.0094
-0.000447
0.00983
-0.000409
0.00989
-0.00031
0.0101
-0.000178
0.0105
-8.36e-05
0.0108
0.0105
-0.000327
0.00891
-0.00042
0.00949
-0.000367
0.00977
-0.000343
0.00987
-0.000258
0.01
-0.000145
0.0104
-6.18e-05
0.0107
0.0104
-0.000109
0.00902
-3.53e-05
0.00941
-9.65e-05
0.00984
-7.19e-05
0.00985
-5.8e-05
0.01
-3.31e-05
0.0104
1.27e-05
0.0107
0.0104
-0.000102
0.00912
-0.000183
0.00949
-0.000125
0.00978
-8.73e-05
0.00982
-8.82e-05
0.00999
-1.7e-05
0.0103
-1.26e-05
0.0107
0.0104
2.57e-06
0.00912
0.000125
0.00937
9.7e-05
0.00981
7.85e-05
0.00983
7.66e-05
0.01
5.51e-05
0.0104
6.36e-05
0.0107
0.0105
-2.12e-05
0.00914
-3.42e-05
0.00937
-5.56e-06
0.00978
3.64e-05
0.00979
1.32e-05
0.01
6.02e-05
0.0103
2.71e-05
0.0107
0.0105
4.68e-05
0.00909
0.000187
0.00923
0.000214
0.00975
0.000182
0.00983
0.000161
0.01
8.76e-05
0.0104
7.61e-05
0.0107
0.0106
1.4e-06
0.00909
2.15e-05
0.00922
5.91e-05
0.00972
9.56e-05
0.00979
5.63e-05
0.0101
6.63e-05
0.0104
5.02e-05
0.0107
0.0107
9.43e-05
0.00901
0.000238
0.00908
0.000277
0.00966
0.000253
0.0098
0.000239
0.0101
0.00017
0.0104
0.00013
0.0108
0.0108
1.45e-05
0.00898
4.49e-05
0.00904
8.76e-05
0.00962
0.000141
0.00976
0.000119
0.0101
0.000131
0.0104
8.91e-05
0.0108
0.0109
0.000128
0.00886
0.000265
0.00889
0.000374
0.00952
0.000387
0.00977
0.000368
0.0101
0.000259
0.0105
0.000184
0.0109
0.0111
4.66e-05
0.00881
0.000121
0.00882
0.000214
0.00943
0.000267
0.00971
0.00024
0.0102
0.000207
0.0105
0.000147
0.011
0.0112
0.000212
0.00861
0.000367
0.0087
0.000504
0.00926
0.000469
0.00972
0.000487
0.0101
0.000353
0.0107
0.000266
0.011
0.0115
8.33e-05
0.00853
0.000151
0.00862
0.000229
0.00918
0.000288
0.00967
0.000281
0.0102
0.000257
0.0107
0.000163
0.0111
0.0116
6.31e-05
0.00847
0.000157
0.00852
0.000152
0.00918
0.000161
0.00967
0.000134
0.0102
8.43e-05
0.0107
6.74e-05
0.0111
0.0117
-0.000705
0.00918
-0.000945
0.00877
-0.00106
0.00929
-0.000981
0.0096
-0.000914
0.0101
-0.000721
0.0105
-0.000349
0.0108
0.0113
-0.000309
0.00949
-0.00057
0.00903
-0.00112
0.00984
-0.00128
0.00976
-0.00137
0.0102
-0.00113
0.0103
-0.000632
0.0104
0.0106
-0.000299
0.00979
-0.00113
0.00986
-0.00161
0.0103
-0.00177
0.00993
-0.00176
0.0102
-0.00141
0.00995
-0.000772
0.00992
0.00971
-6.77e-05
0.00985
-0.000612
0.0104
-0.000777
0.0105
-0.000951
0.0101
-0.000939
0.0102
-0.000753
0.00976
-0.000547
0.00968
0.00919
-0.000221
0.0101
-0.000434
0.0106
-0.000398
0.0104
-0.000491
0.0102
-0.000392
0.0101
-0.000308
0.00968
-0.000176
0.00955
0.00902
-0.000343
0.0104
-0.000416
0.0107
-0.000427
0.0105
-0.000421
0.0102
-0.000251
0.00989
-0.000194
0.00962
-4.94e-05
0.00941
0.00897
-3.72e-05
0.0105
3.6e-06
0.0106
-2.12e-05
0.0105
3.58e-05
0.0101
3.29e-05
0.00989
6.35e-05
0.00959
6.15e-05
0.00941
0.00903
0.000136
0.0103
0.000213
0.0106
0.000241
0.0104
0.000256
0.0101
0.000266
0.00988
0.000198
0.00966
0.000129
0.00948
0.00916
0.000169
0.0101
0.000263
0.0105
0.000299
0.0104
0.000315
0.0101
0.000264
0.00993
0.000201
0.00972
0.000104
0.00957
0.00926
0.000125
0.01
0.000213
0.0104
0.000243
0.0104
0.000281
0.0101
0.000233
0.00998
0.000192
0.00976
8.47e-05
0.00968
0.00934
9.47e-05
0.00993
0.000135
0.0103
0.000157
0.0104
0.000148
0.0101
0.000108
0.01
8.33e-05
0.00979
2.89e-05
0.00973
0.00937
5.07e-05
0.00988
7.66e-05
0.0103
8.11e-05
0.0104
8.65e-05
0.0101
7.52e-05
0.01
6.57e-05
0.0098
3.13e-05
0.00977
0.0094
3.82e-05
0.00984
4.93e-05
0.0103
3.82e-05
0.0104
4.36e-05
0.0101
1.08e-05
0.0101
2.01e-05
0.00979
-1.58e-06
0.00979
0.0094
9e-06
0.00983
1.94e-05
0.0103
1.36e-05
0.0104
2.2e-05
0.01
1.67e-05
0.0101
2.6e-05
0.00978
1.07e-05
0.0098
0.00941
1.85e-05
0.00981
1.4e-05
0.0103
1.19e-05
0.0104
1.3e-05
0.01
-5.61e-07
0.0101
2.88e-06
0.00978
-6.5e-06
0.00981
0.00941
1.66e-06
0.00981
-3.46e-06
0.0103
6.69e-06
0.0104
5.05e-06
0.01
1.28e-05
0.0101
1.54e-05
0.00978
1.17e-05
0.00981
0.00942
1.75e-05
0.00979
1.03e-05
0.0103
1.4e-05
0.0104
4.1e-06
0.0101
5.64e-06
0.0101
5.46e-06
0.00977
-4.72e-06
0.00983
0.00942
6.07e-06
0.00978
-3.64e-07
0.0103
1.72e-05
0.0103
1.49e-05
0.0101
2.8e-05
0.0101
2.04e-05
0.00979
2.15e-05
0.00982
0.00944
2.72e-05
0.00976
2.04e-05
0.0103
3.5e-05
0.0103
1.28e-05
0.0101
1.6e-05
0.0101
7.11e-06
0.00979
-7.05e-06
0.00984
0.00943
1.47e-05
0.00974
1.7e-05
0.0103
4.06e-05
0.0103
2.83e-05
0.0101
5.19e-05
0.01
2.36e-05
0.00982
2.55e-05
0.00984
0.00946
1.77e-05
0.00973
3.69e-05
0.0103
5.25e-05
0.0103
3.9e-05
0.0101
4.89e-05
0.01
3.03e-05
0.00985
2.51e-05
0.00986
0.00948
3.31e-05
0.00972
5.15e-05
0.0103
6.69e-05
0.0103
5.12e-05
0.0102
6e-05
0.0101
3.93e-05
0.00988
3.14e-05
0.00987
0.00952
6.89e-05
0.00967
8.38e-05
0.0103
9.01e-05
0.0103
5.98e-05
0.0102
5.15e-05
0.0101
4.36e-05
0.00991
3.26e-05
0.0099
0.00957
0.00019
0.00951
0.000137
0.0104
0.000109
0.0104
0.000122
0.0102
0.000138
0.0101
0.000129
0.00995
0.000124
0.00993
0.00971
0.000605
0.00894
0.000421
0.0107
0.000195
0.0107
3.63e-05
0.0105
5.11e-06
0.0102
-2.29e-05
0.00999
-6.91e-05
0.01
0.0097
0.00115
0.00805
0.000624
0.0118
0.000517
0.0113
0.000853
0.0105
0.0013
0.0101
0.00141
0.0101
0.00168
0.00982
0.0115
0.00515
0.00419
0.0045
0.0137
0.00147
0.0159
-0.000775
0.0142
-0.000609
0.011
0.00053
0.00976
0.000893
0.0102
0.0132
0.00223
0.00156
0.00385
0.0111
0.0038
0.0143
0.00337
0.0135
0.00215
0.0116
0.00058
0.0111
-0.00076
0.0115
0.0124
-0.000414
0.00197
0.00134
0.00915
0.00244
0.0127
0.00257
0.013
0.00186
0.0121
0.000936
0.0119
0.00028
0.012
0.0125
0.000214
0.00171
0.000632
0.00876
0.000956
0.0122
0.00102
0.0128
0.000906
0.0122
0.000758
0.012
0.000509
0.0121
0.0129
0.00025
0.00145
0.000859
0.00825
0.00114
0.012
0.00103
0.0128
0.000847
0.0124
0.000622
0.0122
0.000417
0.0124
0.0132
0.000157
0.00132
0.00136
0.00716
0.00139
0.012
0.00119
0.013
0.000888
0.0126
0.000651
0.0124
0.00042
0.0126
0.0137
0.000324
0.00103
0.00182
0.0056
0.00198
0.0118
0.00162
0.0134
0.00116
0.0131
0.000748
0.0129
0.000364
0.013
0.0141
0.000854
0.000149
0.00181
0.00459
0.00198
0.0116
0.00155
0.0138
0.00112
0.0135
0.000707
0.0133
0.000283
0.0134
0.0144
0.00097
-0.000859
0.00132
0.00417
0.00162
0.0112
0.00133
0.0141
0.000892
0.0139
0.00043
0.0137
7.86e-05
0.0138
0.0145
0.000771
-0.0016
0.000883
0.00405
0.000934
0.0112
0.000806
0.0143
0.000443
0.0143
-1.08e-05
0.0142
-0.000158
0.0141
0.0143
0.000232
-0.00176
0.000255
0.00408
-5.49e-05
0.0117
-0.000167
0.0144
-0.000328
0.0146
-0.000448
0.0145
-0.000281
0.014
0.0141
-0.000186
-0.00149
-0.000212
0.00422
-0.000743
0.0124
-0.000862
0.0147
-0.000759
0.0146
-0.000555
0.0144
-0.000236
0.0137
0.0138
-0.000619
-0.000759
-0.000586
0.00433
-0.000769
0.0129
-0.000983
0.0151
-0.00086
0.0147
-0.000561
0.0142
-0.000168
0.0134
0.0137
-0.0007
3.46e-05
-0.000477
0.00422
-0.000551
0.0132
-0.000526
0.0153
-0.00046
0.0148
-0.000229
0.0141
4.38e-05
0.0131
0.0138
-0.000571
0.000653
-0.000359
0.00409
-0.000137
0.0131
0.000108
0.0153
0.00018
0.0148
0.000431
0.0137
0.000368
0.0131
0.0142
-0.000446
0.00114
-0.00034
0.00403
6.67e-05
0.0125
0.000426
0.0151
0.000773
0.0145
0.000856
0.0135
0.00055
0.0134
0.0147
-0.000503
0.00164
-0.000373
0.0039
0.000493
0.0117
0.000957
0.0144
0.00122
0.014
0.00109
0.0135
0.000642
0.0138
0.0154
-0.000515
0.00219
-0.000715
0.00413
0.00112
0.00984
0.00203
0.0132
0.00204
0.0139
0.00151
0.014
0.000851
0.0144
0.0162
-0.000304
0.00262
-0.000495
0.00443
0.00156
0.00768
0.00308
0.0116
0.003
0.0138
0.00218
0.0147
0.00116
0.0154
0.0173
0.000404
0.00228
0.000902
0.004
0.00248
0.00602
0.00362
0.0103
0.00349
0.0137
0.00241
0.0157
0.00124
0.0165
0.0185
0.00103
0.00118
0.00227
0.0026
0.00371
0.00436
0.00431
0.00953
0.00385
0.0141
0.00262
0.0168
0.00134
0.0176
0.0197
0.0015
-0.000623
0.00323
0.000448
0.00457
0.00266
0.00522
0.00854
0.00459
0.0144
0.00324
0.0179
0.00146
0.0192
0.0209
0.00188
-0.0028
0.00363
-0.00171
0.00491
0.000999
0.00546
0.00762
0.0048
0.0147
0.00322
0.0193
0.00148
0.0208
0.0223
0.00183
-0.00469
0.00364
-0.00372
0.00495
-0.000557
0.00517
0.00705
0.00432
0.0152
0.00286
0.0205
0.00137
0.0221
0.0235
0.0017
-0.0066
0.00309
-0.00559
0.0044
-0.00231
0.00449
0.00647
0.00364
0.0157
0.00256
0.0214
0.00103
0.0236
0.0244
0.00128
-0.0083
0.00259
-0.0073
0.0032
-0.00329
0.00288
0.0064
0.00243
0.0159
0.00163
0.022
0.000645
0.0244
0.0249
0.000696
-0.00918
0.0019
-0.00875
0.00194
-0.0036
0.00163
0.00645
0.00133
0.0159
0.000815
0.0223
0.000275
0.0248
0.0251
0.00079
-0.0102
0.000837
-0.00912
0.000868
-0.00387
0.000713
0.00659
0.000417
0.0162
0.00013
0.0227
-0.00022
0.0252
0.0249
0.00143
-0.0122
0.000519
-0.00837
0.000142
-0.00379
-0.000443
0.00722
-0.0013
0.0171
-0.00118
0.0225
-0.000793
0.0248
0.024
-0.00777
0.00188
-0.00764
0.00202
-0.00756
0.00207
-0.00747
0.00213
-0.00735
0.0022
-0.00724
0.00227
-0.00717
0.00234
-0.00715
0.00237
-0.00705
0.00244
-0.00697
0.00249
-0.00691
0.00255
-0.00685
0.00259
-0.00682
0.00262
-0.00692
0.00265
-0.0069
0.00264
-0.00682
0.00265
-0.00679
0.00265
-0.0068
0.00267
-0.00689
0.00267
-0.00681
0.00269
-0.00677
0.00271
-0.00674
0.00273
-0.00673
0.00276
-0.00673
0.00275
-0.00673
0.00277
-0.00672
0.0028
-0.00671
0.00282
-0.00669
0.00284
-0.00672
0.00283
-0.0067
0.00282
-0.0067
0.00278
-0.00669
0.00272
-0.00667
0.00264
-0.00668
0.00254
-0.00669
0.0024
-0.00671
0.00223
-0.00677
0.00202
-0.00681
0.00179
-0.0068
0.00155
-0.00682
0.00132
-0.0069
0.00113
-0.00695
0.000948
-0.00701
0.0008
-0.00707
0.000673
-0.00713
0.000538
-0.00707
0.000367
-0.00718
0.000171
-0.00746
-4.9e-05
-0.00787
-0.000311
-0.00815
-0.000504
-0.00829
-0.000681
-0.00827
-0.000954
-0.00798
-0.00123
-0.00754
-0.00146
-0.00702
-0.00154
-0.00676
-0.00168
-0.00676
-0.00193
-0.00689
-0.00201
-0.00708
-0.00213
-0.00728
-0.00233
-0.00748
-0.0025
-0.00752
-0.00253
-0.00749
-0.00248
-0.00742
-0.00243
-0.00736
-0.00238
-0.00727
-0.00234
-0.00713
-0.00228
-0.00692
-0.00226
-0.00671
-0.0022
-0.00646
-0.00212
-0.00605
-0.00203
-0.00561
-0.00194
-0.0051
-0.00182
-0.00457
-0.00166
-0.00409
-0.00148
-0.00375
-0.00129
-0.00349
-0.0011
-0.00314
-0.000811
-0.00278
-0.000493
-0.00247
-0.000282
-0.00216
-0.000168
-0.00184
-0.00013
-0.00153
-0.000102
-0.00122
-8.88e-05
-0.000976
-7.86e-05
-0.000789
-0.000125
-0.000617
-0.00011
-0.000452
-8.65e-05
-0.000297
-7.91e-05
-0.000156
-9.75e-05
-1.52e-05
-0.000134
0.000107
-0.000161
0.000177
-0.000243
0.00017
-0.000314
0.000107
-0.000416
-4.79e-05
-0.000542
-0.00034
-0.000747
-0.00086
-0.00105
-0.00156
-0.00173
-0.00194
-0.00213
-0.00216
-0.00227
-0.00241
-0.00226
-0.00257
-0.00224
-0.00258
-0.00212
-0.00249
-0.00196
-0.00231
-0.00183
-0.00213
-0.00168
-0.00201
-0.00158
-0.00196
-0.00154
-0.00197
-0.00159
-0.00199
-0.0017
-0.00201
-0.00187
-0.00197
-0.00201
-0.00193
-0.00209
-0.00193
-0.00213
-0.00191
-0.00212
-0.00188
-0.00206
-0.00179
-0.00194
-0.00172
-0.00176
-0.00165
-0.00163
-0.00159
-0.00156
-0.00154
-0.00151
-0.0015
-0.0015
-0.00147
-0.00151
-0.00145
-0.00154
-0.00145
-0.00159
-0.00146
-0.00164
-0.00151
-0.00172
-0.00156
-0.0018
-0.00161
-0.00192
-0.00167
-0.00206
-0.00172
-0.00214
-0.00174
-0.00219
-0.00175
-0.00225
-0.00177
-0.0023
-0.00177
-0.00233
-0.00175
-0.00232
-0.00173
-0.00229
-0.00171
-0.00226
-0.00171
-0.00225
-0.0017
-0.00226
-0.00168
-0.00226
-0.00166
-0.00227
-0.00165
-0.00228
-0.00164
-0.00228
-0.00162
-0.00229
-0.00159
-0.00231
-0.00156
-0.00235
-0.00156
-0.00241
-0.00158
-0.00245
-0.00162
-0.00247
-0.00164
-0.00247
-0.00165
-0.00245
-0.00165
-0.00242
-0.00163
-0.0024
-0.0016
-0.00236
-0.00156
-0.00233
-0.00152
-0.0023
-0.00145
-0.00227
-0.00139
-0.00225
-0.00134
-0.00222
-0.0013
-0.00221
-0.00125
-0.00221
-0.0012
-0.00222
-0.00117
-0.00224
-0.00114
-0.00226
-0.00111
-0.00228
-0.00109
-0.00231
-0.00107
-0.00233
-0.00106
-0.00237
-0.00103
-0.00241
-0.000999
-0.00245
-0.000975
-0.00249
-0.000948
-0.00252
-0.000912
-0.00255
-0.00089
-0.00258
-0.000858
-0.00262
-0.000816
-0.00265
-0.000791
-0.00269
-0.000762
-0.00271
-0.000726
-0.00273
-0.000704
-0.00276
-0.000677
-0.00277
-0.000645
-0.0028
-0.000618
-0.00283
-0.000584
-0.00285
-0.000559
-0.00288
-0.000535
-0.0029
-0.000513
-0.00291
-0.000492
-0.00293
-0.000468
-0.00293
-0.000443
-0.00295
-0.000413
-0.00296
-0.000388
-0.00297
-0.000368
-0.00298
-0.000353
-0.00298
-0.000337
-0.00297
-0.000323
-0.00295
-0.000309
-0.00293
-0.000291
-0.0029
-0.000268
-0.00287
-0.000249
-0.00285
-0.000224
-0.00283
-0.000192
-0.0028
-0.000153
-0.00276
-0.000112
-0.00274
-7.59e-05
-0.00271
-4.46e-05
-0.00268
-1.34e-05
-0.00266
1.93e-05
-0.00268
2.62e-05
-0.00268
-0.00266
-0.00775
0.00182
-0.00766
0.00196
-0.00759
0.00201
-0.0075
0.00207
-0.00735
0.00215
-0.00726
0.00222
-0.00728
0.00229
-0.0072
0.00232
-0.00707
0.0024
-0.00702
0.00246
-0.00696
0.00251
-0.00692
0.00255
-0.0069
0.00257
-0.00706
0.00262
-0.00699
0.00261
-0.00688
0.00263
-0.00686
0.00262
-0.00696
0.00263
-0.00694
0.00265
-0.00685
0.00267
-0.0068
0.0027
-0.00678
0.00272
-0.00688
0.00273
-0.00681
0.00275
-0.00677
0.00277
-0.00677
0.00279
-0.00673
0.00283
-0.00673
0.00285
-0.00672
0.00286
-0.0067
0.00285
-0.00669
0.00282
-0.00667
0.00276
-0.0066
0.00268
-0.00662
0.00258
-0.00663
0.00247
-0.00666
0.0023
-0.00676
0.00209
-0.00678
0.00187
-0.00676
0.00165
-0.0067
0.00141
-0.00679
0.00121
-0.00683
0.00106
-0.0069
0.000919
-0.00702
0.00081
-0.00717
0.000698
-0.00735
0.000558
-0.00759
0.000366
-0.00813
0.000175
-0.00845
5.42e-05
-0.00865
-0.000137
-0.0086
-0.000288
-0.00807
-0.000502
-0.00703
-0.000682
-0.00589
-0.000654
-0.00477
-0.000688
-0.00443
-0.000899
-0.00445
-0.00104
-0.00452
-0.0011
-0.00462
-0.0012
-0.00482
-0.00131
-0.00502
-0.00138
-0.0051
-0.00141
-0.00512
-0.00141
-0.00503
-0.00135
-0.00486
-0.00133
-0.00462
-0.0013
-0.00437
-0.0013
-0.00415
-0.00135
-0.00392
-0.00145
-0.00366
-0.00151
-0.0034
-0.00156
-0.00317
-0.00156
-0.00297
-0.00154
-0.00278
-0.00149
-0.00261
-0.0014
-0.00239
-0.00125
-0.00212
-0.0011
-0.00185
-0.00088
-0.00158
-0.000654
-0.00131
-0.00048
-0.00106
-0.000382
-0.000825
-0.00033
-0.0006
-0.000298
-0.000396
-0.000273
-0.000216
-0.000247
-7.46e-05
-0.000258
7.3e-05
-0.000252
0.000229
-0.000239
0.000382
-0.00023
0.000523
-0.000238
0.000651
-0.00026
0.000766
-0.000276
0.000852
-0.000327
0.000922
-0.000375
0.000963
-0.000428
0.000965
-0.000487
0.000911
-0.000564
0.000857
-0.000667
0.000665
-0.000691
0.000236
-0.000917
-0.000123
-0.0013
-0.000255
-0.00159
-0.000291
-0.00175
-0.000292
-0.00177
-0.000196
-0.00181
-8.35e-05
-0.00174
2.94e-05
-0.0016
0.000126
-0.00149
0.000191
-0.00141
0.000241
-0.00138
0.000291
-0.00137
0.000341
-0.0014
0.000343
-0.00151
0.000294
-0.00165
0.000219
-0.00175
0.000166
-0.00179
0.000158
-0.00176
0.00018
-0.00168
0.000236
-0.00157
0.000295
-0.00144
0.000333
-0.00135
0.00037
-0.00128
0.000396
-0.00124
0.000411
-0.00122
0.000413
-0.00122
0.000391
-0.00123
0.000336
-0.00126
0.000268
-0.00129
0.000186
-0.00133
9.14e-05
-0.00137
-1.21e-05
-0.00145
-0.000109
-0.00152
-0.000219
-0.00158
-0.000315
-0.00159
-0.000358
-0.00157
-0.00038
-0.00156
-0.000409
-0.00156
-0.000446
-0.00157
-0.00048
-0.00159
-0.000509
-0.00162
-0.000518
-0.00163
-0.000513
-0.00164
-0.000511
-0.00164
-0.000527
-0.00164
-0.000561
-0.00164
-0.000596
-0.00165
-0.000637
-0.00168
-0.000693
-0.00172
-0.000753
-0.00177
-0.000807
-0.00182
-0.000846
-0.00186
-0.000889
-0.00189
-0.000934
-0.0019
-0.000968
-0.00191
-0.000988
-0.00191
-0.000997
-0.00191
-0.001
-0.00191
-0.000999
-0.00191
-0.000997
-0.00192
-0.000993
-0.00193
-0.000989
-0.00195
-0.000985
-0.00197
-0.000982
-0.00198
-0.000974
-0.00199
-0.000963
-0.002
-0.000947
-0.00204
-0.000925
-0.00208
-0.00091
-0.00211
-0.000895
-0.00213
-0.000875
-0.00213
-0.000853
-0.00214
-0.000832
-0.00215
-0.000813
-0.00218
-0.000793
-0.00221
-0.000772
-0.00224
-0.00075
-0.00227
-0.000731
-0.00231
-0.000706
-0.00235
-0.000683
-0.00239
-0.000661
-0.00242
-0.000639
-0.00244
-0.00062
-0.00246
-0.000596
-0.00248
-0.000572
-0.00251
-0.000549
-0.00254
-0.000523
-0.00256
-0.000501
-0.00259
-0.000481
-0.00262
-0.000461
-0.00264
-0.000443
-0.00267
-0.000423
-0.00269
-0.000404
-0.00271
-0.000383
-0.00274
-0.000366
-0.00277
-0.00035
-0.00279
-0.00034
-0.00281
-0.00033
-0.00282
-0.000319
-0.00282
-0.000305
-0.00282
-0.000288
-0.00282
-0.000266
-0.00281
-0.00024
-0.00281
-0.000203
-0.0028
-0.000159
-0.00278
-0.000112
-0.00275
-7.07e-05
-0.00274
-3.61e-05
-0.00273
4.14e-06
-0.00273
4.68e-05
-0.00272
8.49e-05
-0.00274
7.93e-05
-0.00274
-0.00274
-0.00778
0.00179
-0.00768
0.00192
-0.00767
0.00197
-0.00753
0.00203
-0.00736
0.0021
-0.00729
0.00217
-0.00737
0.00224
-0.00724
0.00228
-0.00706
0.00236
-0.00702
0.0024
-0.00698
0.00245
-0.00694
0.0025
-0.00692
0.00253
-0.00712
0.00258
-0.00704
0.00258
-0.00695
0.00259
-0.00691
0.00258
-0.00698
0.00259
-0.00696
0.00262
-0.00686
0.00264
-0.00682
0.00267
-0.00681
0.0027
-0.00691
0.00272
-0.00682
0.00274
-0.00676
0.00276
-0.00672
0.0028
-0.00669
0.00286
-0.00671
0.00288
-0.00669
0.00289
-0.00666
0.00288
-0.00668
0.00284
-0.00664
0.00279
-0.00651
0.00272
-0.00648
0.00262
-0.00653
0.00251
-0.0066
0.00237
-0.00671
0.00218
-0.00675
0.00198
-0.00678
0.00178
-0.0067
0.00155
-0.00676
0.00133
-0.0069
0.00118
-0.007
0.00107
-0.0072
0.000969
-0.00746
0.000891
-0.00783
0.0008
-0.00821
0.000717
-0.00833
0.00062
-0.00836
0.000451
-0.0082
0.000201
-0.00755
-1.92e-05
-0.0065
-0.000104
-0.00516
-0.000152
-0.00383
-0.000225
-0.00349
-0.00046
-0.00351
-0.000683
-0.00355
-0.000783
-0.00355
-0.00085
-0.00351
-0.000934
-0.00349
-0.000994
-0.00345
-0.00102
-0.00341
-0.00103
-0.00341
-0.00102
-0.00328
-0.000979
-0.00311
-0.00102
-0.00291
-0.00105
-0.00279
-0.00113
-0.00267
-0.00122
-0.00256
-0.00129
-0.00246
-0.00131
-0.00235
-0.00132
-0.00223
-0.00131
-0.00212
-0.00126
-0.00201
-0.00119
-0.00191
-0.00112
-0.00177
-0.00104
-0.00165
-0.000943
-0.0015
-0.000831
-0.00133
-0.000692
-0.00115
-0.00058
-0.000968
-0.000521
-0.000776
-0.000483
-0.000581
-0.000457
-0.000409
-0.000413
-0.000248
-0.000378
-0.000103
-0.000373
3.76e-05
-0.000365
0.000179
-0.000355
0.000317
-0.000346
0.000447
-0.000351
0.000571
-0.000369
0.000704
-0.000396
0.000824
-0.000437
0.000938
-0.000479
0.00104
-0.000525
0.00113
-0.000579
0.00117
-0.000612
0.00112
-0.000612
0.00107
-0.000558
0.00117
-0.000567
0.00117
-0.000655
0.00108
-0.000838
0.000995
-0.00113
0.000968
-0.00139
0.000931
-0.00155
0.000889
-0.00159
0.000861
-0.00155
0.00085
-0.00148
0.000867
-0.00144
0.000874
-0.00142
0.000874
-0.0014
0.000893
-0.00142
0.00091
-0.00147
0.000908
-0.00152
0.000902
-0.00156
0.000907
-0.00157
0.000928
-0.00157
0.000956
-0.00153
0.000974
-0.00148
0.000989
-0.0014
0.000998
-0.00132
0.001
-0.00126
0.001
-0.00124
0.001
-0.00123
0.000999
-0.00123
0.000985
-0.00123
0.000959
-0.00124
0.000926
-0.00125
0.000885
-0.00126
0.000841
-0.00125
0.00081
-0.00122
0.0008
-0.00117
0.000817
-0.00111
0.000846
-0.00105
0.000876
-0.000994
0.00089
-0.000964
0.000871
-0.000973
0.000814
-0.00101
0.000723
-0.00108
0.000641
-0.00114
0.000582
-0.00118
0.000541
-0.00119
0.000506
-0.00119
0.000469
-0.00118
0.000418
-0.00117
0.000362
-0.00115
0.00031
-0.00113
0.000261
-0.00113
0.000211
-0.00114
0.000156
-0.00116
9.06e-05
-0.0012
-3.91e-06
-0.00125
-8.1e-05
-0.00128
-0.000143
-0.0013
-0.000192
-0.00131
-0.000232
-0.00133
-0.000269
-0.00136
-0.000301
-0.0014
-0.000336
-0.00143
-0.000368
-0.00147
-0.000401
-0.00151
-0.000433
-0.00156
-0.00046
-0.00161
-0.000481
-0.00167
-0.000496
-0.00171
-0.000503
-0.00173
-0.000505
-0.00173
-0.000504
-0.00173
-0.000503
-0.00173
-0.000496
-0.00172
-0.000482
-0.00171
-0.000464
-0.00171
-0.000446
-0.00172
-0.000429
-0.00173
-0.000411
-0.00176
-0.000395
-0.00178
-0.000383
-0.0018
-0.000368
-0.00183
-0.000354
-0.00186
-0.00034
-0.0019
-0.00033
-0.00194
-0.000324
-0.00197
-0.000319
-0.00199
-0.000311
-0.00202
-0.000302
-0.00205
-0.000289
-0.00207
-0.000276
-0.0021
-0.000264
-0.00213
-0.000255
-0.00217
-0.000249
-0.0022
-0.000243
-0.00223
-0.000238
-0.00226
-0.000229
-0.00228
-0.00022
-0.00231
-0.000207
-0.00233
-0.000198
-0.00234
-0.000188
-0.00238
-0.000179
-0.00243
-0.000175
-0.00248
-0.000175
-0.00254
-0.000171
-0.00257
-0.000156
-0.0026
-0.000131
-0.00261
-0.000104
-0.00262
-7.44e-05
-0.00261
-5.3e-05
-0.00262
-3.41e-05
-0.00264
-6.8e-06
-0.00266
2.98e-05
-0.00268
6.47e-05
-0.0027
7.38e-05
-0.00273
-0.00277
-0.00786
0.00176
-0.00779
0.00188
-0.00773
0.00193
-0.00757
0.002
-0.00741
0.00207
-0.00735
0.00215
-0.00747
0.00222
-0.0073
0.00227
-0.00712
0.00233
-0.00707
0.00235
-0.00703
0.0024
-0.00699
0.00246
-0.00698
0.00249
-0.00721
0.00254
-0.00714
0.00254
-0.00704
0.00255
-0.00699
0.00254
-0.00697
0.00254
-0.00696
0.00257
-0.00687
0.00262
-0.00682
0.00267
-0.00686
0.00268
-0.00691
0.0027
-0.00683
0.00274
-0.00673
0.00277
-0.0066
0.00279
-0.00659
0.00285
-0.0066
0.00291
-0.00662
0.00292
-0.00663
0.00291
-0.00662
0.00288
-0.00659
0.00283
-0.00644
0.00276
-0.00638
0.00266
-0.00645
0.00256
-0.00662
0.00243
-0.00671
0.00229
-0.00675
0.0021
-0.00678
0.00192
-0.00679
0.00171
-0.00666
0.00148
-0.0068
0.00129
-0.00702
0.0012
-0.00729
0.00115
-0.00772
0.00114
-0.00813
0.00114
-0.00838
0.00113
-0.00833
0.00108
-0.00803
0.000879
-0.00716
0.000501
-0.00595
0.000333
-0.00452
0.000147
-0.00354
3.74e-05
-0.00344
-0.000211
-0.00351
-0.000419
-0.00358
-0.000648