/*--------------------------------*- C++ -*----------------------------------*\
| =========                 |                                                 |
| \\      /  F ield         | OpenFOAM: The Open Source CFD Toolbox           |
|  \\    /   O peration     | Version:  2212                                  |
|   \\  /    A nd           | Website:  www.openfoam.com                      |
|    \\/     M anipulation  |                                                 |
\*---------------------------------------------------------------------------*/
FoamFile
{
    version     2.0;
    format      ascii;
    arch        "LSB;label=32;scalar=64";
    class       volVectorField;
    location    "0.0013";
    object      U;
}
// * * * * * * * * * * * * * * * * * * * * * * * * * * * * * * * * * * * * * //

dimensions      [0 1 -1 0 0 0 0];

internalField   nonuniform List<vector> 
2308
(
(-0.0242038 0.102203 -1.02209e-15)
(0.0287339 0.0627181 0)
(-0.00604121 0.1538 7.23386e-17)
(0.00262664 0.0903791 -3.60428e-16)
(0.000256097 0.0968613 0)
(0.00424128 0.0938625 -9.12984e-21)
(-0.00249531 0.0948578 1.95384e-21)
(-0.00490071 0.0965427 -4.97809e-16)
(-0.000746371 0.0976155 9.06122e-16)
(-0.00142016 0.0977149 -1.20255e-16)
(-0.00397366 0.0958897 2.14536e-16)
(0.00421418 0.0949544 -3.15126e-16)
(0.00176537 0.096066 1.55977e-16)
(0.000733195 0.0961629 -7.89834e-17)
(0.000507056 0.0959575 1.34515e-17)
(0.000622923 0.0957206 1.11778e-16)
(0.000817851 0.0952918 1.49505e-17)
(-0.000245363 0.0972202 3.45826e-17)
(0.0017407 0.0960183 4.65338e-17)
(0.000445264 0.0954978 3.44368e-18)
(0.000145106 0.0957107 2.62676e-17)
(9.96241e-05 0.0961605 -7.67619e-17)
(-0.000352675 0.0965701 9.86144e-17)
(-0.00223418 0.096691 -4.54477e-17)
(0.00253041 0.0971323 -1.95408e-16)
(0.0011766 0.0984206 -9.29704e-17)
(-0.00252262 0.100048 4.75806e-17)
(0.00227494 0.0993823 -5.23475e-17)
(-0.000555046 0.0930812 0)
(0.000556062 0.0951299 -3.19141e-16)
(0.000740285 0.100357 2.78672e-18)
(0.000244966 0.101031 7.13628e-19)
(0.000280049 0.101756 -1.22035e-17)
(0.000309895 0.102976 1.15349e-17)
(0.00036462 0.105948 -1.22637e-17)
(0.000375172 0.114243 1.15503e-17)
(0.000406966 0.136943 -5.7693e-18)
(0.000360937 0.194665 5.76896e-18)
(0.000235521 0.330749 -5.75892e-18)
(-0.000161984 0.629763 2.88775e-18)
(-0.000967688 1.2403 5.76995e-18)
(-0.00182706 2.38616 8.64035e-18)
(-0.00272277 4.3375 -1.7339e-17)
(-0.00441242 7.27929 1.16183e-17)
(-0.00432599 11.0573 5.76104e-18)
(-0.00297913 11.0841 -5.8462e-18)
(-0.000459609 7.30219 5.76367e-18)
(-0.00129455 4.35741 -8.69456e-18)
(-0.000324496 2.39868 -9.43605e-18)
(-0.00021851 1.24713 1.44225e-17)
(0.000158465 0.633414 -2.88841e-18)
(0.000294893 0.332529 5.78918e-18)
(0.000464373 0.195386 1.44924e-18)
(0.000477269 0.137274 -8.67818e-18)
(0.000520194 0.114368 -2.89963e-18)
(0.00052118 0.105973 5.79353e-18)
(0.000527293 0.102955 0)
(0.000500001 0.101693 -7.20365e-19)
(0.000497615 0.10092 -2.3686e-17)
(-8.19693e-05 0.100122 -8.16319e-17)
(-0.00184455 0.0988196 9.62053e-17)
(0.00225905 0.100643 9.93308e-17)
(0.000193927 0.0981249 1.13931e-16)
(0.00239477 0.0983252 3.77335e-22)
(0.000855918 0.0987422 1.27682e-16)
(-0.000750626 0.0973023 -2.36642e-16)
(0.000555094 0.0961924 -5.42928e-17)
(0.000928728 0.095767 0)
(0.00110299 0.0955511 0)
(0.00128201 0.0953381 0)
(0.00148855 0.0949887 0)
(-0.00278987 15.0111 -2.93284e-18)
(0.00415913 15.0412 2.91356e-18)
(-0.00441747 0.0939918 -1.60594e-16)
(-0.00158931 0.0954439 -3.2456e-18)
(-0.000530745 0.0959882 1.27172e-17)
(-0.000269881 0.0962058 0)
(-0.000293924 0.0964945 -2.43819e-17)
(-0.000228151 0.0972098 -2.38614e-17)
(-0.000220493 0.0976404 1.1968e-17)
(-0.000461229 0.0979259 4.79954e-17)
(-0.000666281 0.0990544 0)
(-0.00043239 0.099647 2.97956e-23)
(0.000122131 0.100117 8.89421e-20)
(0.000262835 0.100777 -1.15217e-17)
(0.000276119 0.101558 1.72891e-17)
(0.000300522 0.102846 -4.69276e-22)
(0.000313831 0.10584 -1.01084e-17)
(0.000358843 0.114092 0)
(0.000334556 0.136659 -1.44381e-18)
(0.000259419 0.194051 8.65529e-18)
(0.000126868 0.329465 -1.15354e-17)
(-0.000140598 0.627243 7.29352e-21)
(-0.000567448 1.23536 1.15536e-17)
(-0.00200242 2.3773 0)
(-0.00418557 4.3234 1.15575e-17)
(-0.00428236 7.25892 -3.14422e-20)
(-0.00436848 11.0355 -5.82931e-18)
(-0.00232018 0.0964346 -1.36812e-16)
(-0.00693529 14.9997 -5.80009e-18)
(0.000174281 0.0950664 1.39542e-16)
(0.00153249 0.0946154 -7.05992e-22)
(-0.00730028 15.0615 -5.86989e-18)
(0.00380203 11.1126 7.25371e-18)
(0.000343233 7.33352 0)
(0.000317275 4.37631 -2.19755e-18)
(-0.0001631 2.41129 5.06661e-18)
(0.00026227 1.25405 5.81375e-18)
(0.000378577 0.636576 -5.80353e-18)
(0.000413887 0.33362 0)
(0.000530612 0.195956 -1.45085e-18)
(0.000568181 0.137457 2.90918e-18)
(0.000558258 0.114417 8.13558e-23)
(0.000552379 0.105978 -2.90951e-18)
(0.000548084 0.10291 0)
(0.000547799 0.10159 4.36487e-18)
(0.000469283 0.100808 -1.7375e-17)
(0.000596376 0.100202 -1.16218e-17)
(0.00143358 0.099835 4.72054e-17)
(0.00198649 0.0996327 1.75011e-16)
(0.00173048 0.0985873 1.32034e-17)
(0.00156114 0.0978308 1.25539e-16)
(0.00115584 0.0971651 -5.67483e-17)
(0.000821144 0.0968367 0)
(0.00109375 0.0964675 0)
(0.00132545 0.0959488 0)
(0.00150301 0.0955265 1.87844e-16)
(0.00168215 0.0952018 -2.18165e-16)
(0.0017783 0.0948678 2.22266e-16)
(-0.00435056 0.100064 -4.00095e-16)
(0.00323506 0.0953642 0)
(0.00220065 0.0931245 0)
(0.00336075 0.095245 0)
(-0.00341512 0.0944053 3.20148e-16)
(0.00119483 0.0945139 9.05667e-17)
(-0.000495593 0.0956026 -4.55253e-22)
(-0.000717164 0.0960359 -1.53966e-18)
(-0.000659162 0.0962942 1.53097e-18)
(-0.000567056 0.0966357 1.21397e-17)
(-0.000413657 0.0971725 -2.39963e-17)
(-0.000115625 0.0976716 2.16375e-22)
(-0.000225217 0.0981787 0)
(-0.000468536 0.0988707 5.30447e-17)
(-0.000398207 0.0994947 3.48313e-17)
(-0.000173711 0.10011 -5.77335e-18)
(-2.93188e-05 0.100726 5.77071e-18)
(8.39435e-05 0.101492 0)
(0.000186472 0.102762 0)
(0.000249543 0.105742 -7.2362e-19)
(0.00027709 0.113957 0)
(0.000301924 0.136397 4.33896e-18)
(0.00026719 0.193607 -5.70637e-22)
(0.000100852 0.328729 -2.89399e-18)
(-0.000357684 0.625905 0)
(-0.00105305 1.2324 -2.88845e-18)
(-0.0021413 2.37314 4.34406e-18)
(-0.00344409 4.31699 -7.24876e-18)
(-0.00739346 7.24779 0)
(-0.0121045 11.0189 -1.15911e-17)
(-0.0183045 14.9882 2.88927e-18)
(-0.0289504 18.0894 -1.78889e-20)
(-0.013706 18.0843 0)
(-0.0080918 18.0871 -1.4543e-18)
(0.00174003 18.0934 -4.72689e-18)
(-0.00189497 0.0956265 4.34827e-16)
(-0.00498343 18.0966 3.65203e-19)
(-0.0080247 0.0944648 -1.25414e-15)
(-0.0161857 0.0972562 -2.88631e-16)
(0.00143043 0.0942574 0)
(-0.00894126 0.101692 4.15818e-16)
(-0.00150989 0.0957871 -8.69802e-16)
(0.00190057 0.0950399 5.71082e-17)
(0.00181643 0.0945088 -3.36115e-16)
(-0.0394656 19.2094 -2.91016e-18)
(-0.0246642 19.1898 -2.91043e-18)
(-0.021676 19.1716 -3.63456e-19)
(-0.0128867 19.1498 5.82432e-18)
(-0.0211228 19.128 3.64641e-19)
(-0.0313344 19.1023 0)
(-0.0140067 18.1046 2.92981e-18)
(-0.00307933 15.0775 5.88864e-18)
(-0.00298663 11.1398 -1.39667e-18)
(-0.000708866 7.35061 -5.8153e-18)
(-0.000222552 4.39193 -6.58562e-18)
(0.000202774 2.42 8.74343e-18)
(0.000433266 1.25859 2.92386e-18)
(0.000622025 0.63861 -5.84771e-18)
(0.000709367 0.334615 4.38418e-18)
(0.000616476 0.19624 -1.27809e-18)
(0.000617468 0.137526 0)
(0.000650026 0.114443 0)
(0.000673335 0.105978 0)
(0.000720325 0.102904 5.86159e-18)
(0.00078279 0.101604 -2.93579e-18)
(0.000924014 0.100846 3.05307e-24)
(0.00113941 0.100237 -2.36746e-17)
(0.00150902 0.0995919 0)
(0.00176253 0.0989571 -2.48753e-17)
(0.0019498 0.0983013 2.57219e-17)
(0.00196906 0.0977773 5.29364e-17)
(0.00149498 0.0972573 2.70043e-17)
(0.00124671 0.0968033 1.07728e-16)
(0.00140515 0.0963219 -1.06621e-16)
(0.0016365 0.0958052 0)
(0.00187139 0.0953419 2.6424e-17)
(0.00209437 0.0949636 -5.3111e-17)
(0.00217123 0.0946716 -1.07637e-16)
(-0.00157716 0.0943291 5.16091e-17)
(-0.0151093 0.110272 0)
(0.0016652 0.0967179 -2.13432e-22)
(-0.0078749 0.0922989 5.52924e-16)
(-0.00781677 0.0947264 -1.18076e-16)
(-0.00482107 0.0946739 1.34335e-16)
(-0.0030869 0.0941707 -2.55651e-17)
(-0.00255487 0.0938953 4.99587e-17)
(-0.00228402 0.0939902 -2.44507e-17)
(-0.00192455 0.0944895 0)
(-0.00156616 0.0947259 -2.3678e-17)
(-0.00120961 0.0949339 -2.40234e-17)
(-0.00107617 0.0954843 0)
(-0.000942247 0.0960105 0)
(-0.000844628 0.0965138 1.50622e-18)
(-0.000753769 0.097065 -1.34713e-17)
(-0.000678813 0.0976243 0)
(-0.000569564 0.0981955 0)
(-0.00038794 0.0987692 -1.77073e-17)
(-0.00030575 0.0993537 -1.17019e-17)
(-0.000182904 0.0999735 2.33011e-17)
(-4.16492e-05 0.100627 5.81844e-18)
(7.6291e-05 0.101412 1.45403e-18)
(0.000142457 0.102689 5.81352e-18)
(0.000208068 0.105669 -6.54448e-18)
(0.000248286 0.113866 0)
(0.00026062 0.136316 -2.9062e-18)
(0.000210453 0.193548 0)
(5.75687e-05 0.328713 0)
(-0.000169381 0.625653 0)
(-0.000764717 1.23296 -1.16235e-17)
(-0.00198833 2.37494 0)
(-0.00375485 4.31836 -6.52665e-18)
(-0.00659099 7.24896 1.08918e-18)
(-0.0124355 11.025 2.28517e-17)
(-0.0182182 14.9939 0)
(-0.0235875 18.0971 -1.16149e-17)
(-0.0354174 19.2293 1.81243e-19)
(0.00108374 0.153761 0)
(-0.00560293 0.0945614 6.82044e-16)
(0.0358523 0.110006 1.09244e-15)
(0.000979799 0.0875899 0)
(-0.0239754 0.160627 -3.29528e-16)
(-0.00668323 0.0912772 1.4283e-15)
(0.00226598 0.0940063 -7.07568e-21)
(-0.00154349 0.0954037 1.08437e-16)
(-0.044164 19.0757 -3.66995e-19)
(-0.023801 18.0923 -2.93974e-18)
(-0.0087243 15.0877 2.93797e-18)
(-0.00321551 11.1478 0)
(-0.00260016 7.36481 0)
(-0.000687004 4.40052 3.66759e-19)
(-1.65521e-06 2.42485 -1.46458e-18)
(5.84885e-05 1.26028 -5.12865e-18)
(0.000516254 0.639218 3.65781e-19)
(0.000608268 0.33492 -7.55938e-19)
(0.000633898 0.196297 -9.00088e-19)
(0.000648231 0.137513 4.03778e-18)
(0.000675617 0.114401 3.67737e-19)
(0.000738991 0.105925 -2.94165e-18)
(0.000822019 0.10284 0)
(0.000924595 0.101513 1.17953e-17)
(0.00107372 0.100717 2.19168e-22)
(0.00125524 0.100077 5.96899e-17)
(0.00145972 0.0994676 -4.8317e-17)
(0.00155101 0.0988746 0)
(0.00161765 0.0982653 5.05825e-17)
(0.00165811 0.0976887 -1.55043e-16)
(0.00169985 0.097098 7.86292e-17)
(0.0017567 0.0965971 1.04601e-16)
(0.0018433 0.0960933 3.63844e-21)
(0.002006 0.0955409 -1.03678e-16)
(0.00217281 0.095049 1.0368e-16)
(0.00230862 0.0946595 1.04172e-16)
(0.00262855 0.0942926 -1.04115e-16)
(0.00201673 0.0944278 -2.13593e-16)
(-0.00257279 0.0978518 -2.73929e-21)
(-0.0103744 0.09407 -1.20235e-20)
(-0.00224329 0.0927886 -9.75781e-17)
(-0.00461967 0.093531 -1.29184e-17)
(-0.00483982 0.0935961 -3.8275e-17)
(-0.00406795 0.0934501 -1.25025e-17)
(-0.00340295 0.0934248 0)
(-0.00285505 0.0936194 2.42727e-17)
(-0.00235535 0.0940402 -1.19943e-17)
(-0.00174452 0.0944504 -1.19482e-17)
(-0.00141246 0.0948472 6.00206e-18)
(-0.00122045 0.0953323 6.01927e-18)
(-0.00105306 0.0958532 1.20349e-17)
(-0.000917376 0.0963765 0)
(-0.000776528 0.0969184 1.19445e-17)
(-0.000651537 0.0975095 -1.17216e-17)
(-0.000498881 0.0981273 -1.85548e-19)
(-0.000368922 0.0987169 -3.54633e-17)
(-0.000279412 0.0992938 2.94033e-18)
(-0.000194406 0.0998827 -1.46431e-17)
(-0.000123267 0.100511 0)
(-4.82191e-05 0.101301 -4.74009e-18)
(1.50199e-05 0.102602 3.64625e-19)
(9.06547e-05 0.105589 6.5659e-18)
(0.000158139 0.113807 0)
(0.000187555 0.136302 0)
(0.000195266 0.193599 -1.82305e-19)
(0.000257218 0.328714 -5.64738e-18)
(7.8164e-05 0.626276 5.83475e-18)
(-0.00021468 1.23468 7.28717e-18)
(-0.000437197 2.37671 -1.4575e-18)
(-0.000788196 4.32062 4.37067e-18)
(-0.00200553 7.257 -1.43381e-18)
(-0.00213728 11.0364 -1.16108e-17)
(-0.0079334 15.0066 1.16604e-17)
(-0.015515 18.1123 2.61824e-17)
(-0.0322729 19.2517 1.15866e-17)
(-0.0608614 18.2641 0)
(-0.060237 18.2266 -5.97259e-18)
(-0.064327 18.1913 -8.6453e-21)
(-0.050341 18.1501 6.54153e-18)
(-0.0493159 18.1094 2.18153e-18)
(-0.0449372 18.0702 -2.91199e-18)
(-0.0491959 18.0256 5.83683e-18)
(-0.0633905 17.9747 -5.83869e-18)
(-0.0891417 17.9195 -2.92999e-18)
(0.0325834 0.120006 -4.06376e-16)
(0.0106997 0.154239 -9.34061e-17)
(-0.0350252 0.0503283 -1.628e-16)
(-0.0092899 0.0983678 -6.93079e-16)
(-0.0160067 0.106211 -3.43047e-16)
(0.0126224 0.072259 9.77785e-17)
(0.0029443 0.0940124 0)
(0.00120562 0.0944496 4.27499e-16)
(-0.00446346 0.100654 1.00943e-15)
(-0.00836368 0.0952099 4.1383e-16)
(-0.00712723 0.111123 -4.16071e-16)
(0.000886337 0.0968294 8.901e-16)
(-0.00814619 0.0929449 0)
(-0.00662267 0.0921354 1.26897e-17)
(-0.00561786 0.0922834 -3.13171e-18)
(-0.00472842 0.0925279 -5.86144e-17)
(-0.00396569 0.0927723 1.21882e-17)
(-0.00332141 0.0931165 0)
(-0.00275574 0.0935729 1.70232e-23)
(-0.00223889 0.0940613 -2.99155e-18)
(-0.00183106 0.0945525 0)
(-0.00150223 0.0950775 -5.99295e-18)
(-0.00125466 0.0956334 -5.99126e-18)
(-0.00102022 0.0962062 0)
(-0.000853951 0.0967964 1.48972e-18)
(-0.000731755 0.0973936 -1.4871e-18)
(-0.000600123 0.0979815 1.48473e-18)
(-0.000451933 0.0985692 2.21896e-17)
(-0.000338802 0.0991715 0)
(-0.000248532 0.0997945 2.93998e-18)
(-0.000153093 0.100456 -1.46766e-18)
(-8.42341e-05 0.101252 3.66891e-19)
(-1.11816e-05 0.102549 1.10082e-18)
(3.73094e-05 0.105542 -6.60373e-18)
(8.97369e-05 0.11378 0)
(0.000139625 0.136311 1.46544e-18)
(0.000255037 0.193625 2.92724e-18)
(0.000320566 0.329103 2.93038e-18)
(0.00052107 0.627554 -1.4481e-23)
(0.000816972 1.23636 -1.45883e-18)
(0.00134074 2.37909 -4.37825e-18)
(0.0015013 4.32793 -2.90996e-18)
(0.00214328 7.26891 -2.9064e-18)
(0.00096652 11.0483 0)
(0.000200225 15.0236 -1.16647e-17)
(-0.00160328 18.128 -1.16551e-17)
(-0.0176225 19.2722 -8.69731e-18)
(-0.0456687 18.3003 -1.59368e-17)
(-0.0971617 15.8816 7.2478e-18)
(-0.10546 15.795 -5.80083e-18)
(-0.103373 15.7195 0)
(-0.102206 15.6396 2.90447e-18)
(-0.094916 15.5667 2.90595e-18)
(-0.0865499 15.4917 -5.8278e-18)
(-0.0839006 15.4198 5.85575e-18)
(-0.0933815 15.3383 1.26501e-20)
(-0.111544 15.2541 -2.93852e-18)
(-0.146019 15.153 8.80195e-18)
(-0.189095 15.0418 -8.84362e-18)
(-0.123668 17.859 1.4673e-18)
(-0.0754302 19.0373 -1.10544e-18)
(-0.0385354 18.0806 2.21654e-18)
(-0.0265354 15.0811 -7.35894e-18)
(-0.0108175 11.1528 2.74146e-18)
(-0.00296481 7.36768 0)
(-0.000942532 4.4021 3.68243e-19)
(6.79941e-05 2.42515 5.15853e-18)
(0.00070759 1.25985 -7.35087e-19)
(0.000511832 0.639155 1.83972e-18)
(0.00057656 0.334798 3.15063e-22)
(0.000615953 0.196223 7.42284e-19)
(0.000654912 0.137428 -3.68431e-19)
(0.000687271 0.114317 2.57987e-18)
(0.000755736 0.105848 -8.84943e-18)
(0.000812057 0.102762 -2.4127e-22)
(0.000930328 0.101436 5.9217e-18)
(0.00106509 0.100618 -5.94533e-18)
(0.00123218 0.0999294 -4.78616e-17)
(0.00136262 0.0992798 4.82639e-17)
(0.00146884 0.0986728 0)
(0.00160627 0.0981029 -9.96413e-17)
(0.0017306 0.0975724 7.53941e-17)
(0.00184363 0.0969872 -7.65808e-17)
(0.00187889 0.0964376 0)
(0.00204362 0.095903 0)
(0.00226956 0.0953257 0)
(0.00255318 0.0947476 -1.26859e-17)
(0.0029604 0.0942415 -1.70238e-22)
(0.0032182 0.0938678 2.02113e-16)
(-0.00219969 0.100136 -4.54263e-16)
(0.00323518 0.0940756 2.14055e-16)
(-0.000634764 0.0949595 -2.01564e-16)
(-0.00170004 0.0943041 2.5586e-17)
(-0.00802002 0.10319 4.85583e-16)
(-0.00997956 0.098242 4.14541e-16)
(-0.012178 0.0969458 1.06502e-20)
(-0.0113518 0.0956792 -4.31876e-16)
(-0.015708 0.088311 -3.00839e-16)
(-0.00572727 0.093322 -2.9926e-16)
(-0.00985855 0.0918934 1.08119e-16)
(-0.00833842 0.0908068 -2.50901e-17)
(-0.00720245 0.0908624 -4.95257e-17)
(-0.00615156 0.0912847 0)
(-0.00523391 0.0916908 4.89031e-17)
(-0.0043889 0.0920791 0)
(-0.00366463 0.0925242 0)
(-0.00305541 0.0930495 1.19883e-17)
(-0.00253362 0.0936073 2.99147e-18)
(-0.00208798 0.094185 0)
(-0.001713 0.0947758 5.97917e-18)
(-0.001398 0.0953777 -2.15415e-22)
(-0.00115304 0.0959904 -1.09236e-22)
(-0.000955567 0.0966205 5.95492e-18)
(-0.000786957 0.0972497 6.69624e-18)
(-0.00061974 0.0978575 -6.68299e-18)
(-0.0004795 0.0984573 -1.22231e-17)
(-0.000370691 0.0990691 3.6965e-19)
(-0.000263214 0.0996994 -2.21575e-18)
(-0.000193717 0.100371 7.37484e-19)
(-0.000123947 0.101183 2.94853e-18)
(-5.89518e-05 0.102489 -2.21095e-18)
(1.11922e-06 0.105497 2.94651e-18)
(5.00742e-05 0.113748 -1.37504e-22)
(0.000158734 0.136292 -7.35154e-18)
(0.000293948 0.193772 2.94409e-18)
(0.000451023 0.329713 2.94119e-18)
(0.000732651 0.628325 -4.39849e-18)
(0.00156147 1.2377 5.86206e-18)
(0.00260491 2.3836 5.86786e-18)
(0.0043913 4.33635 0)
(0.00707989 7.27756 1.75727e-17)
(0.0097779 11.0652 2.94291e-18)
(0.0153573 15.0368 2.93516e-18)
(0.0137141 18.1427 0)
(0.00382574 19.2929 0)
(-0.023029 18.3353 8.71367e-18)
(-0.0810049 15.9714 1.77513e-20)
(-0.220043 19.5019 -1.45638e-18)
(-0.220442 19.4585 1.42809e-18)
(-0.216606 19.4235 0)
(-0.214887 19.3997 0)
(-0.204979 19.3615 -1.45299e-18)
(-0.196636 19.3358 4.34773e-18)
(-0.190921 19.3015 0)
(-0.189892 19.2725 -2.90764e-18)
(-0.210844 19.229 -2.907e-18)
(-0.24077 19.1964 5.78961e-18)
(-0.292618 19.1537 -2.91386e-18)
(-0.351032 19.1257 8.79756e-18)
(-0.39566 19.1079 1.43779e-18)
(-0.236443 14.9238 1.48296e-18)
(-0.166637 17.7894 2.95001e-18)
(-0.104664 18.9868 0)
(-0.0588202 18.0494 -1.10734e-18)
(-0.0266835 15.0681 -2.7555e-19)
(-0.0154573 11.1442 1.67092e-18)
(-0.00714733 7.36152 -3.5511e-19)
(-0.00284185 4.39761 -7.28476e-19)
(-0.00098539 2.42205 -5.90055e-18)
(0.000113487 1.25923 1.47805e-18)
(0.000522307 0.638617 -3.69308e-18)
(0.000561607 0.334495 1.84519e-18)
(0.000600958 0.196034 -7.3819e-19)
(0.000649179 0.137332 0)
(0.000674928 0.114234 0)
(0.000719436 0.105769 0)
(0.000811202 0.102677 -2.9609e-18)
(0.000903989 0.101328 0)
(0.000995814 0.100491 -2.18983e-22)
(0.00110926 0.0997898 2.38964e-17)
(0.00123441 0.0991316 -1.20314e-17)
(0.00134864 0.0985168 2.43103e-17)
(0.00149925 0.0979529 7.39324e-17)
(0.00156277 0.0974104 4.35158e-22)
(0.00173007 0.0968464 -2.50111e-17)
(0.00199617 0.0962906 -4.99138e-17)
(0.00217939 0.0956843 9.90619e-17)
(0.00245305 0.0950357 -4.9737e-17)
(0.00271464 0.0943959 -2.27604e-23)
(0.00305622 0.093797 2.47608e-17)
(0.00353735 0.0933011 1.57452e-21)
(0.00339097 0.0936485 -3.07997e-16)
(-0.00408203 0.10192 -4.67202e-16)
(-0.000571467 0.101594 8.8138e-16)
(0.0528608 0.09881 0)
(0.00392544 0.0935382 -2.09939e-16)
(-0.013385 0.0913208 7.74204e-16)
(-0.0144771 0.0967665 -4.12836e-16)
(-0.0148503 0.0974055 -7.89941e-16)
(0.00501149 0.0960581 -6.74036e-17)
(-0.0042546 0.0956956 -6.41776e-17)
(0.00126802 0.0945169 -2.55831e-17)
(0.00448607 0.0940153 3.96133e-21)
(-0.0098211 0.103986 -4.75814e-16)
(-0.014513 0.0981979 3.96783e-16)
(-0.179794 6.99766 -1.46542e-18)
(-0.179004 6.65195 -1.46504e-18)
(-0.167791 6.36174 0)
(-0.141589 6.10543 -1.44952e-18)
(-0.155297 5.88188 1.4518e-18)
(-0.151397 5.73213 -1.45075e-18)
(-0.135287 5.51007 1.45232e-18)
(-0.128646 5.3788 2.91197e-18)
(-0.156525 5.18823 -2.91437e-18)
(-0.167276 5.01624 5.79313e-18)
(-0.180072 4.78487 -8.77389e-18)
(-0.211095 4.54397 0)
(-0.233474 4.2608 -4.09798e-20)
(-0.234735 4.00698 0)
(-0.394937 19.1132 -8.84448e-18)
(-0.269535 14.8193 2.9575e-18)
(-0.209959 17.7234 0)
(-0.14739 18.9301 0)
(-0.0951115 18.005 7.40913e-19)
(-0.0567961 15.0359 -9.26068e-20)
(-0.0300119 11.1206 0)
(-0.0153001 7.34635 -3.70467e-19)
(-0.00640188 4.38829 3.70401e-19)
(-0.002371 2.41737 1.48051e-18)
(-0.000735857 1.2566 7.39633e-19)
(4.31427e-05 0.637716 1.48065e-18)
(0.000411512 0.334026 9.32416e-22)
(0.000532316 0.195821 -2.95997e-18)
(0.000573586 0.137226 7.40215e-19)
(0.000618925 0.11416 2.96252e-18)
(0.000668436 0.105687 7.40823e-19)
(0.00072159 0.102582 -1.48248e-18)
(0.000785474 0.101224 2.96848e-18)
(0.000892283 0.100375 -8.92027e-18)
(0.000997706 0.099664 -1.19281e-17)
(0.00109891 0.0990004 5.99125e-18)
(0.00121568 0.098372 -1.20743e-17)
(0.00134673 0.0977813 0)
(0.00162173 0.0972161 -3.68113e-17)
(0.00179789 0.0966098 7.43895e-17)
(0.00189414 0.0960205 0)
(0.00207657 0.0954328 0)
(0.00239573 0.0947903 0)
(0.00288664 0.0940786 1.82847e-17)
(0.00326823 0.0932886 -2.90765e-23)
(0.00365971 0.0925826 -1.79035e-21)
(0.00403509 0.0929888 -1.98222e-16)
(0.00385841 0.0957955 -4.66428e-16)
(-0.00642001 0.103415 1.28442e-20)
(0.0102939 0.0813349 3.86644e-16)
(-0.014099 0.164578 0)
(-0.0115528 0.090453 -2.36097e-17)
(-0.00832208 0.0906661 0)
(-0.00669658 0.0907214 0)
(-0.00557952 0.0909738 1.21001e-17)
(-0.00469305 0.0913828 -2.41157e-17)
(-0.00392396 0.0918887 0)
(-0.00330092 0.0924908 1.20019e-17)
(-0.00273792 0.0931212 0)
(-0.002264 0.0937779 -2.98774e-18)
(-0.00186533 0.0944362 2.98601e-18)
(-0.00153213 0.0950904 -1.49234e-17)
(-0.00125208 0.0957444 1.05736e-22)
(-0.00100294 0.0964036 -5.95426e-18)
(-0.000779531 0.0970668 1.19052e-17)
(-0.000610171 0.097716 8.91106e-18)
(-0.00048189 0.0983451 -8.90688e-18)
(-0.000388969 0.0989668 0)
(-0.000300804 0.0996092 -5.41155e-23)
(-0.000218851 0.100297 -4.43962e-18)
(-0.000145894 0.101115 0)
(-7.69244e-05 0.102428 0)
(-8.22105e-06 0.105444 1.47826e-18)
(7.33677e-05 0.113714 4.43167e-18)
(0.000165051 0.136328 -2.95235e-18)
(0.00026293 0.193984 2.94671e-18)
(0.000604894 0.329968 -5.88705e-18)
(0.00130109 0.629134 -1.47264e-18)
(0.00240651 1.23999 -1.1767e-17)
(0.00452653 2.388 5.89069e-18)
(0.00872285 4.34125 0)
(0.0135837 7.28869 -1.1746e-17)
(0.0249244 11.0733 -5.85791e-18)
(0.0292011 15.0457 0)
(0.0332903 18.156 5.86679e-18)
(0.0324004 19.3108 -1.16702e-21)
(0.00294105 18.374 8.70932e-18)
(-0.0718812 16.0775 8.70977e-18)
(-0.237265 19.5654 0)
(-0.230036 7.37325 -2.88731e-18)
(0.00170082 0.102954 -4.34262e-16)
(-0.00241844 0.103372 -8.92582e-16)
(-0.000165259 0.149453 1.34309e-16)
(0.00641337 0.0924171 -1.86601e-16)
(-0.0136095 0.0984374 8.05045e-16)
(0.00421617 0.0934741 -2.84174e-21)
(-0.197884 3.73294 1.49495e-18)
(-0.341897 19.1189 7.3993e-18)
(-0.273041 14.741 -5.91664e-18)
(-0.241394 17.6685 0)
(-0.193336 18.8716 0)
(-0.136184 17.9517 0)
(-0.0883258 14.9926 0)
(-0.0520601 11.0906 1.49131e-18)
(-0.027831 7.3252 -7.33385e-19)
(-0.0134274 4.37707 3.70846e-19)
(-0.00583179 2.41101 -2.22721e-18)
(-0.0021066 1.25358 1.48018e-18)
(-0.000596388 0.636153 7.41355e-19)
(9.57127e-05 0.333449 -1.11157e-18)
(0.000379976 0.195564 0)
(0.00050817 0.137101 3.51524e-23)
(0.000571059 0.114096 -7.41273e-19)
(0.000597949 0.105635 7.41855e-19)
(0.000642371 0.102518 1.48414e-18)
(0.000691409 0.101137 -1.67036e-18)
(0.000747193 0.100268 1.67165e-18)
(0.00082916 0.0995507 -4.46638e-18)
(0.000922777 0.0988871 -8.96043e-18)
(0.0010347 0.0982514 6.00211e-18)
(0.00117613 0.0976368 0)
(0.00126662 0.096998 1.38996e-24)
(0.00154853 0.096358 -3.67359e-17)
(0.00191615 0.0957225 3.05143e-17)
(0.00226491 0.0950551 -6.10931e-18)
(0.00244914 0.0944137 0)
(0.00260385 0.0938551 -6.03034e-18)
(0.00313791 0.0932961 8.32425e-17)
(0.00441582 0.09248 -4.62209e-17)
(0.00403835 0.0922315 1.87503e-16)
(0.00382321 0.0924497 9.54944e-16)
(-0.00961986 0.104403 1.38737e-20)
(-0.976761 45.479 -7.01002e-19)
(-0.83422 45.5336 4.2848e-18)
(-0.766602 45.5323 7.03192e-19)
(-0.746947 45.5215 0)
(-0.643006 45.5898 -1.44144e-18)
(-0.528508 45.6069 1.44115e-18)
(-0.5529 45.5667 -2.16629e-18)
(-0.557941 45.5122 -5.02699e-18)
(-0.513264 45.5816 5.78515e-18)
(-0.591526 45.5313 0)
(-0.702204 45.5301 -2.8977e-18)
(-0.725076 45.562 8.71069e-18)
(-0.841475 45.5348 -5.81553e-18)
(-0.954301 45.5209 -2.90786e-18)
(-0.940678 45.5649 4.40658e-18)
(-0.811944 45.6198 -5.83763e-18)
(0.0041418 0.0976116 9.0437e-16)
(-0.0170718 0.100313 -3.67764e-16)
(-0.0180866 0.0973857 3.74919e-16)
(-0.0179605 0.0945813 7.51102e-16)
(-0.0164749 0.0911936 3.56469e-16)
(0.00118417 0.0956362 -1.15184e-20)
(0.00188271 0.0978399 2.74745e-16)
(-0.0208019 0.0745494 0)
(0.00872659 0.0845786 0)
(-0.00815377 0.0886021 0)
(-0.00796158 0.0892509 5.98744e-18)
(-0.00691421 0.0895752 -1.20553e-17)
(-0.00580659 0.0900022 4.23843e-22)
(-0.00486452 0.090557 3.61497e-17)
(-0.00408671 0.0911898 -2.40622e-17)
(-0.00341967 0.091892 2.0088e-22)
(-0.00283786 0.0926132 1.1966e-17)
(-0.0023522 0.0933472 -2.09142e-17)
(-0.00193976 0.094072 2.98576e-18)
(-0.00159157 0.0947832 1.19341e-17)
(-0.00130308 0.0954847 -2.98173e-18)
(-0.00106864 0.0961809 2.9795e-18)
(-0.000866438 0.0968717 -8.93412e-18)
(-0.000691582 0.0975508 2.97301e-18)
(-0.000541655 0.0982158 8.90921e-18)
(-0.000410523 0.0988712 -5.93721e-18)
(-0.000319332 0.0995314 5.93504e-18)
(-0.000239012 0.100223 2.22505e-18)
(-0.000164723 0.101045 5.19056e-18)
(-9.20251e-05 0.102363 -6.67226e-18)
(-1.6793e-05 0.105389 4.44645e-18)
(7.17603e-05 0.113683 -8.14861e-18)
(0.000186256 0.136354 -5.92206e-18)
(0.000406117 0.194095 5.91858e-18)
(0.000801305 0.330416 2.95418e-18)
(0.0017114 0.629868 -2.95237e-18)
(0.00352209 1.24176 0)
(0.00737191 2.39022 -5.89599e-18)
(0.0134158 4.34657 2.93228e-18)
(0.0251829 7.2921 -5.87136e-18)
(0.0389242 11.0758 -8.7948e-18)
(0.0583124 15.0537 -5.84544e-18)
(0.0759304 18.1604 -1.16869e-17)
(0.0739381 19.3273 2.91975e-18)
(0.0288759 18.4284 -2.90853e-18)
(-0.0712415 16.2157 -5.82896e-18)
(-0.289414 19.6559 0)
(-0.29736 7.80154 0)
(-1.087 45.4716 0)
(-0.00285157 0.153264 0)
(0.00429258 0.0929008 -6.65419e-21)
(0.00282639 0.0971319 1.01106e-15)
(0.00384121 0.104748 4.30961e-16)
(-0.00477571 0.104745 4.4316e-16)
(-0.000405441 0.104983 8.71973e-16)
(0.00187539 0.0967407 -4.6773e-16)
(-0.00810269 0.146974 -1.15022e-16)
(-0.00488174 0.155157 0)
(0.00364793 0.0945799 -5.3208e-16)
(0.00349863 0.0934847 -2.17165e-16)
(0.00713933 0.0906912 -8.29775e-17)
(0.000326441 0.0932363 -1.39673e-15)
(0.0291078 0.127702 4.24346e-16)
(0.00805847 0.0839209 3.80317e-16)
(0.00549013 0.154159 -6.19631e-17)
(-0.576485 45.533 -2.92407e-18)
(-0.148364 3.50288 -7.46791e-19)
(-0.192722 19.1381 -2.22528e-18)
(-0.231028 14.7243 2.95587e-22)
(-0.250853 17.6421 0)
(-0.23337 18.8265 0)
(-0.186234 17.8972 0)
(-0.130008 14.9419 -3.73143e-19)
(-0.0802248 11.0504 -4.69688e-19)
(-0.0440073 7.29978 4.57943e-19)
(-0.0227041 4.36073 -3.72475e-19)
(-0.0103882 2.4031 9.27342e-19)
(-0.00451227 1.24957 -1.11346e-18)
(-0.00163038 0.634354 0)
(-0.000372184 0.332625 0)
(0.000180044 0.195247 0)
(0.000400441 0.136963 0)
(0.000501766 0.114024 0)
(0.000564152 0.105586 0)
(0.000597821 0.102472 -3.71221e-19)
(0.000640754 0.10109 1.48528e-18)
(0.000684301 0.100213 0)
(0.000715464 0.0994709 -3.71902e-18)
(0.000772599 0.0987696 6.70597e-18)
(0.000858911 0.0980952 5.97704e-18)
(0.000991244 0.0974472 0)
(0.00123036 0.0968007 1.81346e-17)
(0.00139213 0.0961385 -1.81948e-17)
(0.0015424 0.0954593 -6.03738e-18)
(0.00182801 0.0947722 1.21173e-17)
(0.00219106 0.0940619 -1.81097e-17)
(0.00268409 0.0933099 8.99005e-18)
(0.00300871 0.0924986 -2.36262e-17)
(0.00253781 0.0914239 5.81465e-18)
(0.00048233 0.0896668 1.79304e-16)
(0.00433416 0.0977521 5.07657e-16)
(-0.0244308 0.107327 6.82849e-16)
(-0.0215881 0.114684 3.3212e-16)
(-0.209975 23.9313 0)
(-0.143728 23.8476 2.42887e-20)
(-0.18424 23.5973 -1.46824e-18)
(-0.149555 23.4368 -7.34249e-19)
(-0.157096 23.1161 -1.79894e-19)
(-0.246754 22.8618 1.7988e-19)
(-0.173765 22.7219 0)
(-0.0978697 22.591 0)
(-0.21515 22.1772 2.19013e-18)
(-0.262937 22.1483 -5.7774e-18)
(-0.210629 21.9408 7.21239e-18)
(-0.321356 21.6851 0)
(-0.33794 21.4553 -5.79377e-18)
(-0.29705 21.2483 5.80167e-18)
(-0.345887 20.8085 1.43613e-18)
(-0.371248 20.3076 1.48844e-18)
(-0.261969 19.5464 0)
(-0.260903 18.1969 0)
(-0.00421976 0.0957939 0)
(-0.0231242 0.0995538 3.53644e-16)
(-0.0225498 0.0962703 0)
(-0.0218345 0.0925137 -7.3865e-16)
(-0.0209619 0.0880784 3.72304e-16)
(-0.017317 0.082347 6.75047e-16)
(-0.0218806 0.158218 -1.03855e-16)
(-0.00805129 0.112385 4.12996e-16)
(-0.0129081 0.086137 1.25586e-17)
(-0.0105055 0.0864138 -9.75789e-17)
(-0.00852348 0.0871156 4.24609e-17)
(-0.0070256 0.0879621 -4.84249e-17)
(-0.00585756 0.0888021 -2.11397e-17)
(-0.00488291 0.0896206 3.01539e-17)
(-0.00406617 0.0904405 6.01515e-18)
(-0.00337245 0.0912688 -2.99955e-17)
(-0.00281242 0.0920941 1.79638e-17)
(-0.00233878 0.0929074 0)
(-0.00193167 0.0936997 -1.49292e-17)
(-0.00158657 0.0944695 8.95141e-18)
(-0.00129718 0.0952211 1.49109e-17)
(-0.00105402 0.0959588 2.98061e-18)
(-0.000844383 0.0966841 -1.19177e-17)
(-0.000666583 0.0973941 -5.95422e-18)
(-0.000528033 0.0980888 0)
(-0.000419671 0.0987691 0)
(-0.000329417 0.0994444 -1.48618e-18)
(-0.000246339 0.100144 -7.42942e-19)
(-0.000169606 0.100972 7.42823e-18)
(-9.50308e-05 0.102296 1.48517e-18)
(-1.54969e-05 0.105329 -5.1978e-18)
(8.1708e-05 0.11364 -3.98499e-26)
(0.000233139 0.136348 0)
(0.00054248 0.194141 0)
(0.00122721 0.33051 -5.92525e-18)
(0.00268632 0.630204 8.8867e-18)
(0.0057686 1.2421 -2.95826e-18)
(0.0116045 2.39098 1.61221e-20)
(0.0231538 4.34513 2.97508e-18)
(0.042991 7.2879 2.95824e-18)
(0.0693723 11.0715 1.76603e-17)
(0.104604 15.0407 0)
(0.131133 18.1584 8.79477e-18)
(0.124916 19.3578 -8.77621e-18)
(0.0518281 18.5094 5.85476e-18)
(-0.0938041 16.4075 -5.81821e-18)
(-0.392152 19.7756 5.81523e-18)
(-0.373074 8.28471 0)
(-1.30397 45.4117 0)
(-0.283678 23.7777 -2.84605e-18)
(0.0062504 0.0978091 8.85585e-16)
(0.00469649 0.0922562 -1.91018e-16)
(-0.0208035 0.102733 -3.50281e-16)
(0.00974895 0.101203 8.58552e-16)
(0.00853851 0.103362 -1.23195e-20)
(0.00693498 0.105804 8.6019e-16)
(0.00471176 0.0927799 2.10034e-16)
(-0.00840588 0.104899 -9.34772e-16)
(0.00191907 0.106779 0)
(-0.00308784 0.107377 0)
(0.00189633 0.159848 -6.79979e-17)
(0.0305591 0.10015 -4.24207e-16)
(-0.0274613 0.154191 2.89687e-17)
(-0.000994684 0.0883434 -8.43091e-16)
(0.0072045 0.0893816 -9.61484e-17)
(0.00590626 0.0959793 -5.63752e-16)
(-0.00170301 0.14835 0)
(-0.00248869 0.149303 -5.97174e-17)
(0.00637745 0.090547 0)
(0.00382093 0.0910883 2.99614e-18)
(0.00280615 0.0918875 5.97785e-18)
(0.00231417 0.0927816 2.24565e-18)
(0.00195558 0.093645 3.7549e-19)
(0.00160924 0.0944515 0)
(0.00135401 0.0952217 7.52256e-18)
(0.00115318 0.0959352 -7.53213e-18)
(0.000937926 0.0966149 2.99473e-18)
(0.00080615 0.0973171 -5.97158e-18)
(0.000730369 0.0980153 1.48988e-18)
(0.000680392 0.0987109 0)
(0.000638302 0.0994172 2.97427e-18)
(0.000601278 0.100162 -1.48698e-18)
(0.000573433 0.101044 1.48573e-18)
(0.000531955 0.102429 -2.60054e-18)
(0.000478881 0.105535 3.01821e-18)
(0.000403979 0.113941 -1.12018e-22)
(0.000242259 0.13678 -1.5789e-18)
(-0.000139018 0.194804 7.42783e-19)
(-0.00106859 0.33156 -8.35927e-19)
(-0.00324132 0.631858 0)
(-0.00810366 1.24404 3.71469e-19)