/*--------------------------------*- C++ -*----------------------------------*\
| =========                 |                                                 |
| \\      /  F ield         | OpenFOAM: The Open Source CFD Toolbox           |
|  \\    /   O peration     | Version:  2212                                  |
|   \\  /    A nd           | Website:  www.openfoam.com                      |
|    \\/     M anipulation  |                                                 |
\*---------------------------------------------------------------------------*/
FoamFile
{
    version     2.0;
    format      ascii;
    arch        "LSB;label=32;scalar=64";
    class       volVectorField;
    location    "0.0355";
    object      U;
}
// * * * * * * * * * * * * * * * * * * * * * * * * * * * * * * * * * * * * * //

dimensions      [0 1 -1 0 0 0 0];

internalField   nonuniform List<vector> 
7700
(
(93.5384 26.5413 -1.01982e-19)
(36.2665 68.7883 -7.15111e-19)
(29.1727 110.286 8.59237e-19)
(32.4281 150.075 -1.67435e-18)
(33.2636 187.819 3.36157e-18)
(32.9545 223.732 -1.58266e-18)
(32.4951 257.829 0)
(31.9469 290.1 1.6956e-18)
(31.2442 320.585 1.47336e-21)
(30.3872 349.304 -1.59003e-18)
(29.3892 376.281 1.0602e-19)
(28.262 401.54 -1.69751e-18)
(27.0159 425.109 1.69613e-18)
(25.6607 447.016 1.80271e-18)
(24.2057 467.286 9.36712e-22)
(22.6601 485.947 -1.69467e-18)
(21.0323 503.022 0)
(19.3304 518.534 3.38818e-18)
(17.5624 532.504 -3.3854e-18)
(15.7356 544.952 0)
(13.8571 555.895 0)
(11.9337 565.348 1.05598e-19)
(9.97197 573.325 0)
(7.97786 579.836 -3.38024e-18)
(5.95702 584.89 3.37902e-18)
(3.91537 588.494 0)
(1.83174 590.652 0)
(-0.155008 591.387 -3.26962e-18)
(-2.14225 590.659 3.48275e-18)
(-4.22565 588.509 3.37818e-18)
(-6.26577 584.913 -6.75843e-18)
(-8.2846 579.866 3.38055e-18)
(-10.2762 573.361 0)
(-12.2348 565.391 3.38275e-18)
(-14.1542 555.945 -5.07789e-18)
(-16.0281 545.008 3.38723e-18)
(-17.8495 532.566 -6.617e-22)
(-19.6114 518.602 -1.59046e-18)
(-21.3063 503.097 1.69689e-18)
(-22.9265 486.029 -1.59294e-18)
(-24.4639 467.376 1.80557e-18)
(-25.91 447.114 -7.45068e-19)
(-27.2559 425.216 -1.80859e-18)
(-28.4922 401.656 1.70325e-18)
(-29.6094 376.406 -1.70405e-18)
(-30.5974 349.44 8.5262e-19)
(-31.4443 320.732 -3.19443e-19)
(-32.138 290.259 4.2623e-19)
(-32.6779 258 1.32986e-20)
(-33.1309 223.908 -1.19642e-19)
(-33.4241 187.99 0)
(-32.5551 150.237 1.05125e-19)
(-29.3175 110.453 0)
(-36.5003 68.9629 4.78155e-19)
(-93.5401 26.525 -2.67813e-19)
(94.2594 25.0685 8.24438e-20)
(35.4845 67.5726 -8.54512e-20)
(28.9472 108.792 0)
(32.2223 148.299 -6.70343e-19)
(33.014 186.051 -4.90549e-21)
(32.7349 222.031 1.26879e-18)
(32.3271 256.169 6.80734e-19)
(31.8172 288.482 -6.81993e-19)
(31.1426 319.001 6.82983e-19)
(30.2993 347.749 5.98517e-19)
(29.309 374.751 -2.81286e-18)
(28.1875 400.033 5.45637e-18)
(26.9462 423.623 1.37928e-21)
(25.5956 445.549 -2.81411e-18)
(24.1453 465.837 0)
(22.6044 484.515 6.84841e-19)
(20.9816 501.606 3.41395e-18)
(19.2851 517.133 -6.83574e-19)
(17.5225 531.118 -2.72663e-18)
(15.7014 543.58 2.72639e-18)
(13.8289 554.536 6.84432e-19)
(11.9119 564.001 -3.49185e-18)
(9.95716 571.989 2.7224e-18)
(7.97111 578.51 -3.4033e-18)
(5.96045 583.573 0)
(3.93246 587.183 0)
(1.89037 589.339 1.36299e-18)
(-0.142714 590.046 -2.7978e-18)
(-2.17523 589.359 2.62777e-18)
(-4.21972 587.222 0)
(-6.24756 583.629 -6.80188e-19)
(-8.25732 578.582 0)
(-10.2418 572.075 -2.70765e-18)
(-12.1944 564.101 2.70695e-18)
(-14.1083 554.648 -6.78922e-19)
(-15.9769 543.704 0)
(-17.7934 531.252 -6.78295e-19)
(-19.5505 517.276 -2.10759e-18)
(-21.2408 501.757 2.70058e-18)
(-22.8566 484.673 -8.43909e-20)
(-24.3897 466.003 1.94034e-18)
(-25.8315 445.721 -2.77869e-18)
(-27.1731 423.801 1.43052e-18)
(-28.4047 400.217 6.74844e-19)
(-29.516 374.94 -6.74004e-19)
(-30.4954 347.943 -2.72772e-21)
(-31.3266 319.199 -7.53168e-19)
(-31.9869 288.682 5.03386e-19)
(-32.4861 256.369 1.66571e-19)
(-32.8894 222.225 -5.83491e-19)
(-33.1552 186.232 -6.6292e-19)
(-32.318 148.458 5.69799e-19)
(-29.0593 108.926 6.72387e-19)
(-35.793 67.6948 -6.42944e-19)
(-94.3141 25.0789 -7.26875e-19)
(94.8717 23.5204 -1.05779e-18)
(36.6402 67.0288 1.36404e-18)
(29.0138 108.041 0)
(32.0987 147.259 -5.95824e-19)
(33.0506 185.042 -2.4181e-18)
(32.7767 221.105 -2.11812e-21)
(32.3222 255.336 4.26603e-18)
(31.7718 287.733 6.09441e-19)
(31.0707 318.318 -3.05648e-18)
(30.2132 347.12 -6.1042e-19)
(29.2143 374.168 0)
(28.0878 399.491 -1.23347e-18)
(26.8445 423.117 2.46298e-18)
(25.4942 445.077 1.23393e-21)
(24.0461 465.396 1.15162e-21)
(22.5092 484.102 -6.13241e-19)
(20.8919 501.22 -3.08397e-18)
(19.202 516.772 6.14942e-19)
(17.4473 530.78 0)
(15.6351 543.263 0)
(13.7724 554.238 5.57104e-18)
(11.8661 563.721 -3.09052e-18)
(9.92296 571.724 0)
(7.94936 578.259 -4.33116e-18)
(5.95152 583.334 1.1127e-17)
(3.93559 586.955 -4.94025e-18)
(1.90793 589.127 -2.46635e-18)
(-0.125843 589.859 0)
(-2.15784 589.159 0)
(-4.18923 587.017 0)
(-6.20646 583.423 6.13016e-19)
(-8.20458 578.374 0)
(-10.1778 571.863 0)
(-12.1197 563.881 -6.15521e-18)
(-14.0239 554.417 5.5308e-18)
(-15.8835 543.458 -2.45634e-18)
(-17.6918 530.99 3.06513e-18)
(-19.4418 516.994 -6.0997e-19)
(-21.126 501.452 1.22748e-18)
(-22.7369 484.344 -1.22584e-18)
(-24.2664 465.645 -4.27205e-18)
(-25.7063 445.331 2.44162e-18)
(-27.0478 423.375 2.43683e-18)
(-28.2816 399.751 1.82732e-18)
(-29.398 374.429 -6.13019e-19)
(-30.3865 347.379 1.20922e-18)
(-31.2336 318.572 -1.81238e-18)
(-31.9243 287.979 -1.80409e-18)
(-32.4655 255.568 -1.20185e-18)
(-32.9139 221.32 -6.03142e-19)
(-33.1739 185.235 5.90903e-19)
(-32.1872 147.419 0)
(-29.1364 108.125 -1.78767e-18)
(-36.9481 67.0509 1.15503e-18)
(-94.9852 23.6161 5.67878e-19)
(95.5922 23.3456 8.25584e-20)
(38.4033 66.122 1.18985e-18)
(29.5639 106.98 0)
(32.2772 146.224 0)
(33.2518 183.947 0)
(32.8896 219.952 1.07384e-18)
(32.3237 254.166 2.14583e-18)
(31.6992 286.575 2.15258e-18)
(30.9541 317.189 -3.22825e-18)
(30.0682 346.028 0)
(29.0511 373.115 1.08656e-18)
(27.9144 398.476 2.16748e-18)
(26.6669 422.142 5.42883e-18)
(25.3172 444.139 -4.34218e-18)
(23.8735 464.496 -1.0916e-18)
(22.3438 483.238 4.35131e-18)
(20.736 500.39 -3.25959e-18)
(19.0576 515.975 1.09392e-18)
(17.3159 530.015 0)
(15.518 542.527 -3.26576e-18)
(13.6707 553.529 3.27427e-18)
(11.7806 563.037 -5.45029e-18)
(9.85415 571.063 3.26732e-18)
(7.89773 577.618 0)
(5.91746 582.712 4.37124e-18)
(3.91923 586.351 -5.45553e-18)
(1.90853 588.541 -1.10301e-18)
(-0.108961 589.287 -8.71592e-18)
(-2.12568 588.59 8.70266e-18)
(-4.13892 586.444 0)
(-6.13895 582.846 1.09318e-18)
(-8.1201 577.789 -4.35191e-18)
(-10.0768 571.266 6.36806e-22)
(-12.0029 563.269 5.43526e-18)
(-13.8918 553.787 -1.09198e-18)
(-15.7371 542.807 0)
(-17.5321 530.314 0)
(-19.2699 516.29 4.33637e-18)
(-20.9433 500.718 -5.41265e-18)
(-22.5452 483.575 1.07821e-18)
(-24.0679 464.839 1.07682e-18)
(-25.5036 444.485 -1.0753e-18)
(-26.8442 422.488 -1.07364e-18)
(-28.0816 398.819 -1.07181e-18)
(-29.2074 373.451 1.06978e-18)
(-30.2128 346.355 -2.13881e-18)
(-31.0865 317.504 1.59986e-18)
(-31.8195 286.873 1.32869e-18)
(-32.4329 254.444 2.5682e-19)
(-32.99 220.205 -8.96433e-21)
(-33.3439 184.167 -1.05747e-18)
(-32.3529 146.4 1.04076e-18)
(-29.6605 107.07 -1.03092e-18)
(-38.5824 66.1596 1.07705e-18)
(-95.7623 23.4864 9.87212e-19)
(96.5282 23.644 -1.41151e-19)
(39.7831 65.3605 -2.99509e-18)
(30.1464 105.911 1.9477e-18)
(32.5537 145.242 -9.43254e-19)
(33.5216 182.975 -3.80228e-18)
(33.0799 218.961 7.6455e-18)
(32.4076 253.157 -7.6671e-18)
(31.7043 285.574 2.87822e-18)
(30.9 316.213 -9.58841e-19)
(29.9701 345.085 0)
(28.9215 372.212 -4.83459e-18)
(27.7635 397.618 7.49141e-21)
(26.5031 421.329 6.80094e-18)
(25.147 443.374 -4.86455e-18)
(23.7021 463.777 9.68438e-19)
(22.1757 482.565 -3.89886e-18)
(20.5747 499.762 2.93096e-18)
(18.906 515.39 -9.71427e-19)
(17.1764 529.469 -7.81934e-18)
(15.3926 542.02 5.86797e-18)
(13.561 553.058 -6.84744e-18)
(11.688 562.598 1.56682e-17)
(9.77963 570.653 -5.87886e-18)
(7.84196 577.235 0)
(5.88085 582.352 -1.95993e-18)
(3.9021 586.01 -9.1928e-21)
(1.91149 588.217 -4.9053e-18)
(-0.0854274 588.974 7.83879e-18)
(-2.082 588.283 8.80804e-18)
(-4.07644 586.138 9.83348e-19)
(-6.05818 582.536 -1.76385e-17)
(-8.02174 577.471 9.43099e-22)
(-9.9615 570.937 7.84589e-18)
(-11.8714 562.923 0)
(-13.7451 553.419 9.75453e-19)
(-15.5765 542.412 0)
(-17.3593 529.888 -2.93405e-18)
(-19.0867 515.829 7.83213e-18)
(-20.7522 500.218 -2.93141e-18)
(-22.3488 483.032 0)
(-23.8696 464.251 0)
(-25.3076 443.85 9.70975e-19)
(-26.6556 421.803 -9.70666e-19)
(-27.9065 398.084 -9.77791e-19)
(-29.0538 372.666 9.76401e-19)
(-30.0903 345.522 0)
(-31.0068 316.628 0)
(-31.7962 285.962 0)
(-32.4834 253.512 9.58781e-19)
(-33.1395 219.277 9.55704e-19)
(-33.5653 183.25 9.50627e-19)
(-32.5769 145.467 -1.89405e-18)
(-30.151 106.075 9.3596e-19)
(-39.7745 65.4584 1.10704e-20)
(-96.7749 23.7423 -8.84294e-19)
(97.6966 23.8242 8.73178e-19)
(40.2523 64.8317 -9.63652e-19)
(30.3039 105.178 -9.34683e-19)
(32.5867 144.446 9.33164e-19)
(33.5561 182.108 0)
(33.0655 218.046 1.90757e-18)
(32.3418 252.222 -3.82689e-18)
(31.5953 284.628 1.91878e-18)
(30.7555 315.266 3.84729e-18)
(29.7976 344.149 1.74836e-21)
(28.7285 371.296 -3.8597e-18)
(27.5569 396.728 -9.62115e-19)
(26.2892 420.472 0)
(24.9311 442.553 4.84091e-18)
(23.4891 462.995 -3.87902e-18)
(21.9695 481.823 -7.76757e-18)
(20.3786 499.061 -2.16997e-21)
(18.723 514.729 8.75435e-18)
(17.0089 528.849 0)
(15.2423 541.437 -6.81912e-18)
(13.4296 552.511 6.82082e-18)
(11.5765 562.085 9.7905e-19)
(9.68918 570.171 5.84755e-18)
(7.77333 576.78 -8.77801e-18)
(5.83477 581.922 1.95047e-18)
(3.87923 585.603 9.70318e-19)
(1.91233 587.828 -8.76181e-18)
(-0.0604771 588.599 7.79132e-18)
(-2.03342 587.917 -9.67966e-19)
(-4.00548 585.774 8.87462e-21)
(-5.96544 582.167 1.94772e-18)
(-7.90797 577.093 0)
(-9.82754 570.543 0)
(-11.7182 562.509 8.76982e-18)
(-13.5742 552.982 -8.76681e-18)
(-15.3892 541.948 3.89137e-18)
(-17.1571 529.393 -5.83485e-18)
(-18.8717 515.301 3.88597e-18)
(-20.5265 499.652 -4.85037e-18)
(-22.1153 482.428 3.87922e-18)
(-23.6315 463.607 -7.75179e-18)
(-25.0688 443.166 5.80837e-18)
(-26.4209 421.08 -9.62303e-19)
(-27.6814 397.324 9.60928e-19)
(-28.8445 371.873 9.67918e-19)
(-29.9039 344.702 -9.62752e-19)
(-30.851 315.787 -1.92028e-18)
(-31.6789 285.111 9.58038e-19)
(-32.4127 252.661 0)
(-33.1242 218.433 0)
(-33.6019 182.439 0)
(-32.6178 144.718 -9.09795e-21)
(-30.3049 105.391 0)
(-40.2434 64.9566 -9.61287e-19)
(-97.9741 23.8683 0)
(98.8249 23.7335 -1.63093e-18)
(40.3587 64.4208 1.15497e-18)
(30.2802 104.675 9.31551e-19)
(32.5812 143.81 -2.84389e-18)
(33.5431 181.39 3.8018e-18)
(33.0187 217.285 1.91976e-18)
(32.2692 251.444 0)
(31.5011 283.847 3.87266e-18)
(30.6433 314.493 1.82815e-21)
(29.6706 343.393 -4.85269e-18)
(28.5901 370.564 0)
(27.4106 396.028 0)
(26.1384 419.808 0)
(24.7793 441.928 9.79733e-19)
(23.3392 462.412 3.90572e-18)
(21.8244 481.284 -3.90803e-18)
(20.2408 498.565 7.8247e-18)
(18.5945 514.277 -8.80211e-18)
(16.8916 528.438 0)
(15.1379 541.067 7.83921e-18)
(13.3391 552.179 -7.83931e-18)
(11.5009 561.787 6.85496e-18)
(9.62903 569.904 -1.4654e-17)
(7.72936 576.542 1.65605e-17)
(5.80763 581.708 -9.66393e-19)
(3.86952 585.409 -6.77948e-18)
(1.92066 587.651 9.73378e-19)
(-0.0335211 588.435 -7.75548e-18)
(-1.98852 587.761 8.72358e-18)
(-3.94322 585.621 -9.64361e-19)
(-5.88657 582.012 6.7867e-18)
(-7.81376 576.929 -6.78941e-18)
(-9.71904 570.366 -9.76936e-19)
(-11.5965 562.314 9.03454e-21)
(-13.4402 552.763 9.70877e-19)
(-15.2443 541.701 -9.80896e-19)
(-17.0027 529.114 9.72536e-19)
(-18.7092 514.985 -3.90971e-18)
(-20.3577 499.298 4.88852e-18)
(-21.9421 482.033 0)
(-23.4565 463.169 9.79212e-19)
(-24.8947 442.685 -9.68946e-19)
(-26.2508 420.557 -9.76861e-19)
(-27.5188 396.761 -9.75483e-19)
(-28.693 371.273 -2.91241e-18)
(-29.7672 344.07 2.90319e-18)
(-30.7327 315.129 -4.37549e-22)
(-31.5825 284.436 -9.63457e-19)
(-32.342 251.977 3.00154e-20)
(-33.0839 217.755 1.41005e-18)
(-33.5983 181.789 -4.76443e-19)
(-32.6231 144.135 9.36427e-19)
(-30.2914 104.921 0)
(-40.3646 64.5744 0)
(-99.1577 23.8019 0)
(99.9143 23.6176 8.97934e-19)
(40.3867 64.0821 1.96117e-18)
(30.2142 104.23 3.7635e-18)
(32.5687 143.274 2.41586e-20)
(33.5241 180.795 -3.82502e-18)
(32.9723 216.647 1.93186e-18)
(32.2001 250.781 -2.9025e-18)
(31.4128 283.173 -9.67142e-19)
(30.5394 313.821 0)
(29.5543 342.731 -9.03171e-21)
(28.4647 369.92 0)
(27.2793 395.408 -9.83515e-19)
(26.0042 419.217 3.92162e-18)
(24.6452 441.37 -8.82787e-18)
(23.2078 461.89 -1.14381e-21)
(21.6978 480.799 3.93252e-18)
(20.1212 498.12 6.88479e-18)
(18.4836 513.871 -7.87716e-18)
(16.7909 528.072 9.89934e-19)
(15.0485 540.739 7.88796e-18)
(13.262 551.889 -6.88178e-18)
(11.437 561.534 -9.82915e-19)
(9.5792 569.686 -9.752e-19)
(7.69431 576.356 0)
(5.78775 581.55 -7.7259e-18)
(3.86467 585.275 5.8507e-18)
(1.93059 587.533 -9.70938e-19)
(-0.00890422 588.329 -9.80071e-19)
(-1.95032 587.663 9.88066e-19)
(-3.89245 585.525 -9.79648e-19)
(-5.82296 581.912 -8.77927e-18)
(-7.73713 576.82 -1.95281e-18)
(-9.62911 570.241 9.78815e-18)
(-11.4933 562.169 -1.96114e-18)
(-13.3241 552.593 0)
(-15.1162 541.502 9.75008e-19)
(-16.8645 528.882 0)
(-18.5629 514.719 0)
(-20.2055 498.996 -9.7848e-19)
(-21.7861 481.695 3.92727e-18)
(-23.2989 462.794 -4.90073e-18)
(-24.7379 442.273 0)
(-26.0973 420.11 9.74079e-19)
(-27.3715 396.281 2.9266e-18)
(-28.5549 370.763 9.70375e-19)
(-29.6415 343.535 -1.94793e-18)
(-30.6226 314.576 9.71514e-19)
(-31.4911 283.871 -9.6951e-19)
(-32.2728 251.411 0)
(-33.0399 217.2 -9.58748e-19)
(-33.5849 181.262 -9.53561e-19)
(-32.6191 143.653 1.89803e-18)
(-30.23 104.513 -9.37927e-19)
(-40.3961 64.2547 1.07177e-18)
(-100.306 23.7002 -1.71352e-18)
(100.985 23.5241 -8.93734e-19)
(40.4103 63.7993 -9.81177e-19)
(30.1486 103.845 0)
(32.5597 142.821 -9.50715e-19)
(33.5196 180.293 -3.86925e-18)
(32.9523 216.115 4.85029e-18)
(32.1637 250.23 -9.70483e-19)
(31.3639 282.616 0)
(30.4805 313.267 3.92076e-18)
(29.4877 342.19 -2.94956e-18)
(28.3927 369.4 0)
(27.2043 394.914 9.80606e-19)
(25.9284 418.755 0)
(24.5704 440.943 0)
(23.1357 461.501 0)
(21.6299 480.451 0)
(20.0584 497.813 8.90771e-18)
(18.4268 513.605 -7.90302e-18)
(16.7405 527.847 -9.79613e-19)
(15.0051 540.556 0)
(13.2267 551.746 -2.94018e-18)
(11.4106 561.43 -9.87995e-19)
(9.56222 569.617 -4.90281e-18)
(7.68683 576.315 7.8509e-18)
(5.78983 581.533 0)
(3.87668 585.278 -6.96245e-18)
(1.95261 587.553 -2.14214e-22)
(0.0233026 588.363 9.89914e-19)
(-1.90918 587.706 5.97093e-18)
(-3.84381 585.571 -4.96561e-18)
(-5.76683 581.954 -1.0066e-18)
(-7.67404 576.852 8.93692e-18)
(-9.55925 570.258 -9.8855e-19)
(-11.4169 562.166 -1.00594e-18)
(-13.2417 552.566 1.98931e-18)
(-15.0281 541.447 0)
(-16.7703 528.795 3.92349e-18)
(-18.4638 514.597 -5.87613e-18)
(-20.1035 498.836 0)
(-21.6834 481.495 1.951e-18)
(-23.1972 462.556 -3.93475e-18)
(-24.6384 441.998 -1.98026e-18)
(-26.0011 419.797 0)
(-27.2799 395.933 0)
(-28.4698 370.384 0)
(-29.565 343.128 -9.88977e-19)
(-30.5567 314.148 -3.92001e-18)
(-31.4379 283.428 9.75524e-19)
(-32.2347 250.963 3.0391e-20)
(-33.0201 216.757 -5.14382e-19)
(-33.5833 180.836 4.82298e-19)
(-32.615 143.257 -9.52607e-19)
(-30.1635 104.169 9.4327e-19)
(-40.4145 63.9981 -3.05278e-18)
(-101.436 23.6185 -8.99459e-20)
(102.041 23.4463 0)
(40.4334 63.5537 3.88576e-18)
(30.0874 103.511 -1.99569e-18)
(32.5601 142.429 -3.86e-18)
(33.5256 179.861 9.71547e-18)
(32.9446 215.66 -3.9062e-18)
(32.1461 249.761 -3.92376e-18)
(31.3378 282.143 7.86891e-18)
(30.448 312.799 -7.88745e-18)
(29.4505 341.734 3.95098e-18)
(28.3524 368.963 5.94754e-18)
(27.1626 394.503 -3.96401e-18)
(25.8868 418.373 0)
(24.5303 440.596 -1.99621e-18)
(23.0983 461.192 -1.99831e-18)
(21.5963 480.182 -2.00018e-18)
(20.0294 497.586 -1.99578e-18)
(18.4031 513.423 0)
(16.7225 527.71 0)
(14.9928 540.46 1.98232e-18)
(13.2203 551.687 -1.73772e-20)
(11.41 561.404 -1.73634e-20)
(9.56732 569.622 -9.98805e-18)
(7.69753 576.349 7.99872e-18)
(5.80593 581.594 0)
(3.89797 585.361 0)
(1.97924 587.655 -8.00162e-18)
(0.0558441 588.478 1.60121e-17)
(-1.8723 587.83 -1.59966e-17)
(-3.80409 585.698 4.00079e-18)
(-5.72399 582.077 -1.75746e-20)
(-7.62811 576.965 7.99727e-18)
(-9.50994 570.357 -7.99487e-18)
(-11.3642 562.244 1.98901e-18)
(-13.1856 552.619 -1.98793e-18)
(-14.9688 541.472 -3.99058e-18)
(-16.7089 528.789 3.95925e-18)
(-18.3999 514.557 1.96157e-18)
(-20.0371 498.76 -1.97797e-18)
(-21.615 481.379 1.94325e-18)
(-23.1284 462.4 -1.96813e-18)
(-24.5707 441.802 1.95564e-18)
(-25.9363 419.566 1.97053e-18)
(-27.2194 395.669 8.58306e-21)
(-28.4145 370.09 1.98438e-18)
(-29.516 342.808 2.94863e-18)
(-30.5152 313.806 3.9346e-18)
(-31.4053 283.071 -1.47202e-18)
(-32.2129 250.598 2.42427e-18)
(-33.0101 216.392 -4.56531e-19)
(-33.5884 180.477 1.45013e-18)
(-32.6156 142.92 -9.62204e-19)
(-30.0992 103.87 0)
(-40.432 63.7762 1.9655e-18)
(-102.553 23.5527 -2.17089e-20)
(103.086 23.3802 -1.63027e-19)
(40.4562 63.3368 -4.17638e-18)
(30.0321 103.218 0)
(32.5712 142.091 -1.94067e-18)
(33.547 179.494 -5.86133e-18)
(32.9578 215.274 3.92915e-18)
(32.1544 249.366 0)
(31.3431 281.747 0)
(30.4516 312.412 -3.96817e-18)
(29.4536 341.363 7.95115e-18)
(28.3561 368.615 -5.96446e-18)
(27.1677 394.183 0)
(25.8942 418.088 0)
(24.5405 440.349 1.99071e-18)
(23.1117 460.986 1.99286e-18)
(21.613 480.021 1.99479e-18)
(20.0496 497.471 9.99054e-18)
(18.4266 513.353 -7.95247e-18)
(16.7495 527.684 0)
(15.0237 540.477 -2.00053e-18)
(13.2536 551.747 -6.04044e-18)
(11.4447 561.505 -1.84323e-20)
(9.60252 569.76 8.04705e-18)
(7.73243 576.521 0)
(5.84004 581.794 0)
(3.93097 585.585 2.0216e-18)
(2.01114 587.898 -2.02166e-18)
(0.0872614 588.735 0)
(-1.84363 588.096 -2.02078e-18)
(-3.77884 585.965 -6.04819e-18)
(-5.70112 582.339 1.81053e-17)
(-7.60681 577.215 -1.60965e-17)
(-9.48931 570.588 8.04548e-18)
(-11.3436 562.452 0)
(-13.1646 552.8 0)
(-14.947 541.62 0)
(-16.6855 528.902 0)
(-18.3748 514.633 0)
(-20.0097 498.797 1.99435e-18)
(-21.5855 481.379 0)
(-23.098 462.353 1.97005e-18)
(-24.5422 441.706 0)
(-25.9115 419.425 1.96447e-18)
(-27.1991 395.49 -3.9357e-18)
(-28.3986 369.88 -1.96989e-18)
(-29.504 342.571 0)
(-30.5069 313.546 -9.81062e-19)
(-31.4008 282.793 -4.93802e-19)
(-32.2135 250.307 -2.42106e-18)
(-33.017 216.095 -3.06477e-20)
(-33.6065 180.182 -9.8811e-19)
(-32.6267 142.641 9.67451e-19)
(-30.0413 103.624 -1.91595e-18)
(-40.4503 63.5874 -8.99884e-19)
(-103.661 23.4997 -8.55008e-19)
(104.119 23.3213 -2.10294e-20)
(40.4786 63.1374 0)
(29.9804 102.954 0)
(32.5898 141.791 1.9345e-18)
(33.5804 179.172 3.93702e-18)
(32.9879 214.939 4.00684e-21)
(32.1839 249.026 -3.96954e-18)
(31.3735 281.412 0)
(30.4843 312.088 -3.99155e-18)
(29.4892 341.058 7.99829e-18)
(28.3952 368.336 -1.99384e-18)
(27.2109 393.935 0)
(25.9418 417.876 0)
(24.5926 440.178 0)
(23.1682 460.86 0)
(21.6736 479.941 4.03198e-18)
(20.1137 497.438 -1.00794e-17)
(18.4935 513.37 8.07564e-18)
(16.818 527.75 -8.0825e-18)
(15.0921 540.592 1.01164e-17)
(13.321 551.908 8.09122e-18)
(11.5101 561.71 -6.07883e-18)
(9.66455 570.006 -2.0329e-18)
(7.78992 576.803 -8.09932e-18)
(5.89173 582.108 8.10032e-18)
(3.97567 585.925 -2.01675e-18)
(2.04787 588.259 -4.05086e-18)
(0.115634 589.11 8.10745e-18)
(-1.83049 588.479 -4.04893e-18)
(-3.76736 586.346 8.10251e-18)
(-5.69419 582.712 -2.03381e-18)
(-7.60437 577.574 0)
(-9.49131 570.928 1.01269e-17)
(-11.3498 562.767 -8.09142e-18)
(-13.1744 553.083 0)
(-14.9595 541.868 0)
(-16.6996 529.111 2.02757e-18)
(-18.3895 514.801 -2.02594e-18)
(-20.0238 498.922 -2.0064e-18)
(-21.5974 481.462 4.02722e-18)
(-23.1056 462.403 0)
(-24.5449 441.722 2.01738e-18)
(-25.9111 419.395 0)
(-27.1987 395.407 1.98519e-18)
(-28.4011 369.744 -1.99093e-18)
(-29.511 342.392 2.99785e-18)
(-30.5189 313.334 1.00409e-18)
(-31.4176 282.558 4.96452e-19)
(-32.2348 250.057 -4.95048e-19)
(-33.0442 215.842 -4.92732e-19)
(-33.6421 179.936 1.44971e-18)
(-32.6514 142.404 -1.93347e-18)
(-29.9898 103.407 9.50704e-19)
(-40.4673 63.4166 -1.77791e-20)
(-104.76 23.4531 1.82277e-18)
(105.144 23.2677 3.70019e-18)
(40.4996 62.9517 0)
(29.9315 102.712 0)
(32.6156 141.52 -3.92541e-18)
(33.625 178.885 -2.21403e-20)
(33.0343 214.644 -2.00168e-18)
(32.2343 248.731 3.99234e-18)
(31.4301 281.126 6.01522e-18)
(30.5478 311.818 1.51059e-21)
(29.5601 340.812 -4.02184e-18)
(28.4738 368.119 -2.00633e-18)
(27.2972 393.756 0)
(26.0356 417.738 4.04266e-18)
(24.6933 440.086 -4.04668e-18)
(23.2749 460.818 0)
(21.7851 479.952 -2.03648e-18)
(20.2286 497.505 -2.02107e-18)
(18.6101 513.492 0)
(16.9345 527.928 0)
(15.2067 540.825 -1.01618e-17)
(13.4319 552.194 8.1397e-18)
(11.6153 562.046 8.14411e-18)
(9.76226 570.387 -1.63103e-17)
(7.87846 577.226 1.83433e-17)
(5.96956 582.566 -8.15016e-18)
(4.04137 586.413 8.15145e-18)
(2.0999 588.769 -4.07557e-18)
(0.151546 589.636 -8.158e-18)
(-1.80976 589.011 -1.42663e-17)
(-3.75655 586.875 8.15257e-18)
(-5.69597 583.232 -1.71285e-20)
(-7.61811 578.078 0)
(-9.51683 571.408 -1.0172e-17)
(-11.3862 563.217 1.01848e-17)
(-13.2203 553.498 -6.11047e-18)
(-15.0133 542.242 4.06568e-18)
(-16.7596 529.44 -4.06235e-18)
(-18.4539 515.081 -2.03786e-18)
(-20.0908 499.152 4.18901e-22)
(-21.6653 481.639 0)
(-23.172 462.528 2.03185e-18)
(-24.606 441.8 -2.01211e-18)
(-25.9636 419.438 0)
(-27.2424 395.415 4.03796e-18)
(-28.4384 369.713 -2.01163e-18)
(-29.5453 342.319 -1.99876e-18)
(-30.5529 313.221 -1.9942e-18)
(-31.4529 282.41 0)
(-32.2724 249.885 -2.03112e-18)
(-33.0856 215.652 5.26558e-19)
(-33.6872 179.735 2.45187e-18)
(-32.6825 142.201 -4.61304e-21)
(-29.9377 103.212 9.71787e-19)
(-40.478 63.2598 1.99538e-18)
(-105.85 23.4111 0)
(106.16 23.2166 -1.85232e-18)
(40.5163 62.7751 9.90697e-20)
(29.8836 102.484 2.03961e-18)
(32.6487 141.268 0)
(33.6799 178.621 0)
(33.0959 214.376 1.99178e-18)
(32.3043 248.468 0)
(31.5107 280.875 2.02263e-18)
(30.6402 311.588 1.4722e-21)
(29.6646 340.61 -4.04504e-18)
(28.5902 367.953 0)
(27.4251 393.63 2.03847e-18)
(26.1742 417.661 0)
(24.8413 440.062 -4.07146e-18)
(23.4308 460.851 4.0752e-18)
(21.9469 480.045 2.03137e-18)
(20.394 497.66 2.05028e-18)
(18.7767 513.711 1.02263e-17)
(17.0997 528.211 1.1325e-21)
(15.3678 541.17 -1.63694e-17)
(13.5862 552.6 8.18864e-18)
(11.7603 562.507 0)
(9.89574 570.901 -4.09818e-18)
(7.99829 577.785 -2.0415e-18)
(6.07402 583.165 1.63993e-17)
(4.12915 587.045 -8.20052e-18)
(2.16994 589.425 1.23016e-17)
(0.20286 590.308 -8.20802e-18)
(-1.77258 589.692 6.13868e-18)
(-3.74552 587.556 0)
(-5.70713 583.902 -1.69373e-20)
(-7.65023 578.728 -8.19712e-18)
(-9.56825 572.03 8.19421e-18)
(-11.4547 563.803 -4.09495e-18)
(-13.3035 554.041 -2.05463e-18)
(-15.1086 542.737 2.03669e-18)
(-16.8644 529.882 4.08679e-18)
(-18.5654 515.467 4.08309e-18)
(-20.2064 499.48 -4.09684e-18)
(-21.7824 481.908 0)
(-23.2888 462.737 -2.02673e-18)
(-24.7206 441.952 0)
(-26.0733 419.534 0)
(-27.343 395.467 8.26557e-21)
(-28.5273 369.725 8.21629e-21)
(-29.6222 342.293 1.00933e-18)
(-30.6192 313.159 -2.01435e-18)
(-31.5107 282.314 1.50684e-18)
(-32.3242 249.758 1.52481e-18)
(-33.1339 215.5 -2.53328e-18)
(-33.7349 179.566 4.96314e-19)
(-32.7142 142.023 9.79203e-19)
(-29.8839 103.037 -2.81087e-18)
(-40.4841 63.1154 -3.03884e-18)
(-106.93 23.3715 -1.02143e-18)
(107.167 23.1658 0)
(40.5291 62.6038 -2.02249e-18)
(29.837 102.262 3.90731e-18)
(32.6881 141.026 -7.91663e-18)
(33.745 178.37 3.9802e-18)
(33.1725 214.124 -4.02257e-18)
(32.3949 248.224 2.01028e-18)
(31.6177 280.647 -4.05002e-18)
(30.7648 311.386 2.03687e-18)
(29.8068 340.441 4.06806e-18)
(28.7496 367.826 0)
(27.6008 393.552 -4.0832e-18)
(26.3647 417.638 -2.05304e-18)
(25.0447 440.101 0)
(23.6446 460.956 -2.05811e-18)
(22.1682 480.221 0)
(20.6195 497.91 -2.04532e-18)
(19.0029 514.035 8.2394e-18)
(17.3228 528.609 1.05471e-21)
(15.5841 541.641 -1.64665e-17)
(13.792 553.14 1.03052e-17)
(11.9521 563.114 0)
(10.0701 571.567 4.12271e-18)
(8.15229 578.505 4.4371e-22)
(6.20515 583.93 -8.24863e-18)
(4.23542 587.847 0)
(2.24999 590.255 -1.03045e-17)
(0.255862 591.157 8.25788e-18)
(-1.74688 590.55 -2.05284e-18)
(-3.75089 588.412 0)
(-5.74201 584.745 4.12453e-18)
(-7.71284 579.547 0)
(-9.65628 572.814 -2.06911e-18)
(-11.5655 564.544 1.029e-17)
(-13.434 554.73 -1.02844e-17)
(-15.2555 543.368 6.16314e-18)
(-17.0241 530.451 2.06376e-18)
(-18.7342 515.969 -1.02772e-17)
(-20.3805 499.912 2.04393e-18)
(-21.9583 482.271 6.14039e-18)
(-23.4628 463.03 -4.09471e-18)
(-24.8898 442.177 0)
(-26.2352 419.695 8.62669e-21)
(-27.4949 395.567 4.08519e-18)
(-28.6658 369.778 -2.02616e-18)
(-29.745 342.302 -2.03887e-18)
(-30.7255 313.129 0)
(-31.6011 282.249 -2.02859e-18)
(-32.4004 249.662 -3.14683e-20)
(-33.1989 215.379 2.02928e-18)
(-33.7931 179.424 -9.92472e-19)
(-32.7518 141.868 -1.97259e-18)
(-29.8317 102.879 1.89136e-18)
(-40.4869 62.9828 9.66367e-19)
(-108.001 23.3349 1.8616e-18)
(108.167 23.1149 -1.89766e-18)
(40.5403 62.4338 0)
(29.7928 102.041 0)
(32.7337 140.784 0)
(33.8208 178.118 0)
(33.2655 213.874 0)
(32.5078 247.984 2.02131e-18)
(31.7535 280.429 4.07236e-18)
(30.9246 311.197 -6.11449e-18)
(29.9906 340.292 2.05409e-18)
(28.9568 367.725 4.1e-18)
(27.8299 393.509 2.04586e-18)
(26.6135 417.66 -4.12874e-18)
(25.3104 440.194 2.05113e-18)
(23.9237 461.128 -6.1928e-18)
(22.4567 480.476 4.12703e-18)
(20.913 498.25 0)
(19.2965 514.463 -2.05908e-18)
(17.6117 529.124 2.07728e-18)
(15.8632 542.242 2.07863e-18)
(14.0564 553.823 -1.24294e-17)
(12.1969 563.874 1.03705e-17)
(10.2911 572.397 1.244e-17)
(8.3455 579.398 -1.65914e-17)
(6.36715 584.876 1.6595e-17)
(4.36342 588.836 2.0831e-18)
(2.34194 591.276 -8.29897e-18)
(0.310417 592.199 -2.08507e-18)
(-1.73079 591.601 -4.1302e-18)
(-3.7736 589.459 1.66003e-17)
(-5.80227 585.774 -1.86623e-17)
(-7.80866 580.545 8.29539e-18)
(-9.78498 573.771 -1.65576e-20)
(-11.7237 565.448 -8.28727e-18)
(-13.6178 555.572 4.14161e-18)
(-15.4605 544.141 2.07746e-18)
(-17.2456 531.148 2.07583e-18)
(-18.9673 516.587 4.13141e-18)
(-20.6204 500.448 6.19912e-18)
(-22.2 482.724 -4.13984e-18)
(-23.7018 463.401 0)
(-25.1218 442.468 0)
(-26.4563 419.91 1.66582e-20)
(-27.7021 395.712 -2.04148e-18)
(-28.856 369.857 -2.04583e-18)
(-29.9149 342.331 3.05488e-18)
(-30.8733 313.113 1.01866e-18)
(-31.7263 282.194 2.02305e-18)
(-32.5045 249.574 2.03322e-18)
(-33.2848 215.264 0)
(-33.8652 179.289 -9.97783e-19)
(-32.7974 141.72 4.95379e-18)
(-29.7827 102.726 2.99162e-18)
(-40.4882 62.854 -9.70688e-19)
(-109.063 23.3 -1.89483e-18)
(109.158 23.0626 1.88961e-18)
(40.551 62.2594 0)
(29.7521 101.813 0)
(32.7871 140.531 4.00949e-18)
(33.9095 177.856 -4.02259e-18)
(33.3778 213.613 -2.04124e-18)
(32.6472 247.736 0)
(31.9233 280.204 2.05512e-18)
(31.1263 311.007 -2.06059e-18)
(30.2242 340.148 -2.04875e-18)
(29.2211 367.637 -2.06931e-18)
(28.1229 393.488 2.07286e-18)
(26.9323 417.716 6.19555e-18)
(25.6511 440.336 -1.56726e-20)
(24.2816 461.362 2.08209e-18)
(22.8264 480.808 -2.06691e-18)
(21.2887 498.684 -2.08565e-18)
(19.672 515.001 -2.08746e-18)
(17.9804 529.766 6.25136e-18)
(16.2186 542.986 -1.24933e-17)
(14.392 554.665 2.07527e-18)
(12.5066 564.807 1.6362e-20)
(10.5691 573.414 -1.04188e-17)
(8.58682 580.488 -3.27876e-22)
(6.56738 586.03 6.25117e-18)
(4.51904 590.04 -2.07855e-18)
(2.4504 592.517 -4.18995e-18)
(0.370223 593.463 2.08089e-18)
(-1.72103 592.874 3.2587e-20)
(-3.81414 590.724 -8.34867e-18)
(-5.89137 587.016 1.43735e-22)
(-7.94367 581.75 8.34378e-18)
(-9.96233 574.923 4.16992e-18)
(-11.939 566.536 0)
(-13.8659 556.586 -1.63556e-20)
(-15.7357 545.07 2.08925e-18)
(-17.5417 531.986 -6.23041e-18)
(-19.278 517.329 1.63972e-20)
(-20.9392 501.092 1.64108e-20)
(-22.5207 483.268 2.06495e-18)
(-24.0182 463.848 6.2198e-18)
(-25.4282 442.821 -2.06001e-18)
(-26.7477 420.173 -4.12099e-18)
(-27.974 395.892 -7.97156e-21)
(-29.105 369.962 8.44587e-21)
(-30.1378 342.37 4.11471e-18)
(-31.0672 313.099 0)
(-31.8902 282.137 -5.10586e-19)
(-32.6395 249.481 -1.51863e-18)
(-33.3942 215.143 0)
(-33.9534 179.148 -2.02356e-18)
(-32.8531 141.567 -1.98184e-18)
(-29.7382 102.572 -1.95842e-18)
(-40.4889 62.7243 -1.13546e-18)
(-110.117 23.2649 2.74937e-18)
(110.14 23.0062 0)
(40.5619 62.075 4.03411e-18)
(29.716 101.568 -9.21467e-20)
(32.85 140.257 4.02995e-18)
(34.0137 177.569 2.28816e-20)
(33.5133 213.325 -4.09981e-18)
(32.8182 247.461 0)
(32.1339 279.954 -8.23197e-18)
(31.3783 310.797 6.18145e-18)
(30.5172 339.991 0)
(29.5537 367.547 -2.08102e-18)
(28.4924 393.477 2.08368e-18)
(27.3348 417.795 -2.07152e-18)
(26.0814 440.516 6.23775e-18)
(24.7337 461.652 1.62461e-20)
(23.2934 481.215 1.62276e-20)
(21.763 499.213 2.081e-18)
(20.1454 515.654 4.18194e-18)
(18.4446 530.543 0)
(16.6652 543.885 8.36065e-18)
(14.8129 555.681 5.05434e-22)
(12.894 565.932 1.65182e-20)
(10.9157 574.64 -8.38897e-18)
(8.88616 581.801 -8.39194e-18)
(6.81399 587.417 1.0484e-17)
(4.70846 591.486 8.39505e-18)
(2.57942 594.007 -8.42752e-18)
(0.437021 594.978 0)
(-1.71805 594.397 -2.0731e-18)
(-3.87512 592.237 0)
(-6.01401 588.499 0)
(-8.12459 583.185 -8.3915e-18)
(-10.197 576.295 6.2991e-18)
(-12.2217 567.828 0)
(-14.1901 557.787 6.27538e-18)
(-16.0941 546.17 -2.08512e-18)
(-17.9264 532.976 6.28173e-18)
(-19.6809 518.203 -6.26012e-18)
(-21.352 501.847 -1.226e-22)
(-22.9352 483.905 -4.1699e-18)
(-24.4266 464.367 -2.07406e-18)
(-25.8233 443.227 -4.15855e-18)
(-27.1229 420.473 -2.0842e-18)
(-28.3236 396.093 2.06445e-18)
(-29.4243 370.075 -2.06052e-18)
(-30.4231 342.405 -2.0561e-18)
(-31.3153 313.071 0)
(-32.0989 282.059 0)
(-32.8096 249.365 0)
(-33.5294 214.998 -2.54591e-19)
(-34.059 178.984 3.27946e-18)
(-32.9192 141.396 -1.00471e-18)
(-29.6985 102.403 -1.03738e-18)
(-40.4893 62.5859 9.7915e-19)
(-111.162 23.2267 1.91935e-18)
(111.113 22.9435 0)
(40.5734 61.8742 -8.58736e-20)
(29.6855 101.298 -2.08311e-18)
(32.9248 139.952 -4.03787e-18)
(34.1374 177.242 4.08707e-18)
(33.6776 212.993 -4.12077e-18)
(33.0286 247.14 0)
(32.3949 279.661 6.19851e-18)
(31.6919 310.547 -6.21506e-18)
(30.8831 339.803 4.15787e-18)
(29.97 367.436 0)
(28.9555 393.459 0)
(27.8394 417.885 -6.26375e-18)
(26.6212 440.726 2.08515e-18)
(25.3007 461.994 1.59883e-20)
(23.8788 481.696 -4.19695e-18)
(22.357 499.84 -4.20159e-18)
(20.7379 516.431 1.26318e-17)
(19.025 531.469 -8.417e-18)
(17.2229 544.957 2.09783e-18)
(15.3376 556.894 0)