/*--------------------------------*- C++ -*----------------------------------*\
| =========                 |                                                 |
| \\      /  F ield         | OpenFOAM: The Open Source CFD Toolbox           |
|  \\    /   O peration     | Version:  2212                                  |
|   \\  /    A nd           | Website:  www.openfoam.com                      |
|    \\/     M anipulation  |                                                 |
\*---------------------------------------------------------------------------*/
FoamFile
{
    version     2.0;
    format      ascii;
    arch        "LSB;label=32;scalar=64";
    class       volScalarField;
    location    "0.0868";
    object      p;
}
// * * * * * * * * * * * * * * * * * * * * * * * * * * * * * * * * * * * * * //

dimensions      [1 -1 -2 0 0 0 0];

internalField   nonuniform List<scalar> 
31661
(
504.063
39.0541
41.0967
39.9623
39.1691
40.9844
39.9449
39.3256
40.9509
39.986
475.182
54.31
684.19
320.573
459.884
446.832
473.334
469.367
56.963
436.593
79.2159
80.0378
244.404
410.378
42.6467
79.2406
240.631
209.662
54.8467
58.4041
402.843
95.8378
95.8529
63.5189
82.0016
386.369
65.4674
383.844
226.639
93.6139
96.6616
38.1403
361.45
98.8395
102.165
59.3347
100.359
81.0435
65.0812
258.676
94.4188
245.128
62.3196
77.6509
191.445
54.0759
63.7386
68.8703
63.9037
57.6346
57.573
56.5416
92.4271
34.5219
73.0644
389.712
615.586
58.114
53.9184
49.6822
51.7543
45.4859
41.8764
39.7418
37.5042
35.8816
34.3651
33.2229
32.2146
31.4515
30.8105
30.3367
29.9613
29.699
29.7958
30.0754
30.4658
30.9647
31.6201
32.4134
33.4224
34.5969
36.0717
37.7399
39.8099
42.0885
44.7618
47.6992
50.5498
54.0863
57.9768
62.0534
66.0414
69.9295
69.9379
74.7686
74.2117
79.3558
78.4891
83.6001
82.545
87.4245
86.2836
90.7887
89.6493
93.686
92.6132
96.143
95.1793
98.2063
97.3739
99.9315
99.235
101.377
100.808
102.598
102.144
103.645
103.286
104.557
104.278
105.371
105.154
106.112
105.945
106.806
106.677
107.469
107.37
108.121
108.044
108.776
108.716
109.445
109.4
110.144
110.11
110.883
110.859
111.679
111.664
112.547
112.541
113.507
113.505
114.577
114.585
115.793
115.81
117.211
117.236
118.938
118.972
121.241
121.283
124.738
124.787
130.987
131.043
143.114
143.054
142.964
131.027
124.825
121.342
119.037
117.302
115.874
114.649
113.569
112.603
111.727
110.924
110.176
109.471
108.794
108.131
107.469
106.791
106.083
105.322
104.484
103.54
102.455
101.185
99.6828
97.8922
95.7569
93.2244
90.2538
86.8217
82.9337
78.6201
73.9155
68.8299
63.8181
58.5557
53.8005
49.3795
45.7908
42.7037
40.157
37.9525
36.1739
34.6393
33.4201
32.3926
29.5956
29.511
31.5903
30.936
30.4409
30.0535
29.7757
29.4173
29.4886
29.704
29.8525
30.0919
30.4207
30.8594
31.4205
32.1326
33.0032
34.0671
35.3296
36.8276
38.5758
40.5958
42.8894
45.4861
48.3121
51.2697
54.4748
57.9171
61.4401
65.0058
68.7318
72.5346
76.3398
80.0622
83.6344
86.9915
90.0894
92.8865
95.3686
97.536
99.4086
101.016
102.394
103.584
104.621
105.54
106.372
107.144
107.88
108.6
109.324
110.067
110.846
111.678
112.58
113.571
114.676
115.926
117.377
119.136
121.464
124.964
131.175
143.103
164.877
165.084
165.054
164.75
164.26
142.873
131.161
125.056
121.589
119.271
117.512
116.057
114.804
113.698
112.707
111.808
110.98
110.208
109.474
108.765
108.065
107.357
106.623
105.842
104.989
104.035
102.948
101.687
100.21
98.4722
96.4302
94.0455
91.2922
88.1617
84.6665
80.8379
76.7239
72.3886
67.9153
63.3892
58.7284
54.4306
50.4358
46.9218
43.8463
41.2305
38.9445
37.0315
35.4079
34.0689
32.9638
32.0741
31.3598
29.5779
30.7985
30.3626
30.0369
29.6071
29.433
29.474
29.3697
29.5902
29.8758
29.9275
30.0689
30.2883
30.5959
31.0038
31.5303
32.1888
33.0038
33.9871
35.1636
36.544
38.148
39.9725
42.0348
44.3113
46.8227
49.4482
52.1424
54.9514
57.8468
60.7897
63.7425
66.8405
70.0404
73.3029
76.6068
79.9129
83.1893
86.3711
89.3973
92.2108
94.7725
97.0615
99.0729
100.823
102.339
103.651
104.795
105.81
106.728
107.58
108.393
109.192
109.998
110.831
111.712
112.659
113.694
114.843
116.136
117.631
119.429
121.78
125.269
131.377
143.067
164.42
196.439
197.199
197.543
197.537
197.095
196.289
195.125
163.591
142.791
131.402
125.43
121.982
119.64
117.84
116.341
115.043
113.893
112.859
111.917
111.045
110.224
109.438
108.667
107.892
107.092
106.244
105.318
104.285
103.11
101.754
100.178
98.3457
96.2261
93.8027
91.0711
88.0517
84.7803
81.3089
77.6897
73.9796
70.2262
66.4592
62.6481
58.8158
55.176
51.6703
48.4247
45.4621
42.8382
40.4879
38.4525
36.6856
35.2045
33.9695
32.9575
32.1285
31.4646
29.805
30.9378
30.5331
29.4176
29.8465
29.5813
29.6616
29.4217
29.357
29.8442
30.1834
30.2052
30.274
30.4039
30.6231
30.9296
31.3357
31.8563
32.5071
33.3054
34.2687
35.41
36.7399
38.268
39.99
41.8944
43.9713
46.1744
48.4973
50.8226
53.1375
55.4607
57.7713
60.0871
62.4098
64.835
67.3783
70.0436
72.8402
75.7646
78.7966
81.8951
85.0027
88.0446
90.9517
93.6681
96.1499
98.3729
100.335
102.049
103.541
104.847
106.006
107.054
108.025
108.952
109.864
110.788
111.746
112.765
113.867
115.081
116.439
117.995
119.848
122.233
125.703
131.66
142.985
163.711
195.237
227.477
228.461
229.071
229.343
229.307
228.938
228.259
227.274
225.952
193.625
162.751
142.713
131.748
125.943
122.518
120.142
118.286
116.724
115.361
114.147
113.049
112.04
111.097
110.2
109.325
108.448
107.545
106.587
105.543
104.377
103.053
101.533
99.7808
97.7681
95.4795
92.9146
90.0947
87.0623
83.8806
80.6139
77.3341
74.0875
70.9124
67.8239
64.8021
61.7997
58.8017
55.8896
52.9716
50.1453
47.4286
44.8941
42.5362
40.3975
38.4872
36.8451
35.439
34.2509
33.257
32.4425
31.7884
30.2305
31.2654
29.4294
29.64
30.0182
30.1814
29.9208
29.5881
29.4066
29.3817
30.2647
30.5818
30.5856
30.6199
30.6807
30.8336
31.0668
31.389
31.8133
32.3522
33.0218
33.8368
34.8114
35.9569
37.2799
38.7823
40.4543
42.2725
44.2055
46.2169
48.2613
50.298
52.2476
54.1316
55.9439
57.7279
59.4658
61.2109
63.0395
64.984
67.0714
69.3281
71.7721
74.4082
77.2227
80.1827
83.2281
86.298
89.3168
92.2071
94.9057
97.3763
99.5923
101.553
103.279
104.8
106.153
107.377
108.513
109.596
110.664
111.745
112.872
114.073
115.379
116.824
118.464
120.389
122.818
126.265
132.03
142.88
162.778
193.616
226.111
249.05
249.69
250.13
250.393
250.502
250.456
250.243
249.885
249.372
248.675
224.263
191.807
161.787
142.651
132.201
126.595
123.192
120.772
118.842
117.197
115.75
114.448
113.258
112.152
111.102
110.083
109.065
108.017
106.906
105.696
104.348
102.822
101.083
99.0991
96.856
94.3492
91.6029
88.6578
85.5738
82.4262
79.2984
76.2494
73.3357
70.5837
67.9997
65.5649
63.2417
60.9785
58.7302
56.5021
54.2106
51.889
49.5498
47.2305
44.9633
42.7988
40.7933
38.9921
37.3904
35.9902
34.7926
33.7967
32.9677
30.8642
32.2874
247.759
31.7441
29.5217
30.5618
29.732
29.8849
30.0215
29.5628
30.653
30.3637
29.4231
29.4798
30.7535
31.0859
31.0343
31.0461
31.0673
31.1766
31.3444
31.6022
31.9534
32.4096
32.9855
33.6937
34.549
35.5605
36.7389
38.0855
39.5934
41.2469
43.0133
44.8535
46.7242
48.5696
50.3597
52.0448
53.5995
55.0488
56.4067
57.7218
58.9691
60.2529
61.6029
63.0553
64.6406
66.3914
68.3354
70.4947
72.8798
75.487
78.2933
81.2592
84.3262
87.4189
90.4618
93.3781
96.1082
98.6099
100.864
102.875
104.664
106.267
107.723
109.076
110.367
111.639
112.927
114.275
115.711
117.275
119.023
121.042
123.528
126.951
132.493
142.773
161.672
191.628
224.362
248.185
260.488
260.66
260.746
260.764
260.755
260.741
260.696
260.599
260.482
260.349
260.173
259.914
246.593
222.194
189.671
160.723
142.636
132.761
127.378
123.998
121.52
119.499
117.749
116.189
114.768
113.449
112.197
110.989
109.781
108.54
107.225
105.797
104.212
102.433
100.425
98.1694
95.6603
92.9215
89.9888
86.9236
83.8054
80.7049
77.6987
74.8521
72.2002
69.7667
67.5457
65.521
63.6629
61.9274
60.2692
58.6383
56.9947
55.2857
53.487
51.5952
49.6113
47.5655
45.5045
43.4935
41.5883
39.8101
38.201
36.7946
35.5781
34.5258
33.6563
32.9347
259.545
32.3516
31.3221
29.6217
30.3474
29.864
29.842
30.1623
29.5575
30.5096
29.5145
31.1811
30.8943
29.5877
264.846
264.699
264.529
264.35
264.201
264.114
264.066
264.036
264.063
264.146
264.242
264.325
264.37
259.024
245.134
219.742
187.248
159.577
142.664
133.43
128.279
124.918
122.369
120.234
118.351
116.641
115.055
113.545
112.092
110.638
109.145
107.567
105.861
103.982
101.894
99.5744
97.0141
94.2295
91.2584
88.1625
85.0144
81.8907
78.8705
76.0176
73.3718
70.9616
68.7918
66.8535
65.1295
63.5891
62.1995
60.9224
59.726
58.5929
57.3939
56.1688
54.8467
53.4085
51.8301
50.1177
48.29
46.4019
44.4986
42.6287
40.8768
39.2693
37.8075
36.5291
35.4208
34.4764
33.6909
31.8866
33.0518
264.363
31.3142
31.6489
31.554
31.5353
31.5511
31.6087
31.7191
31.926
32.2187
32.6097
33.1112
33.7366
34.4989
35.41
36.4779
37.7077
39.096
40.6296
42.2838
44.0217
45.7961
47.554
49.2485
50.8367
52.302
53.6183
54.7996
55.8638
56.8573
57.7822
58.7163
59.6161
60.5872
61.649
62.8226
64.1394
65.6267
67.3118
69.2185
71.364
73.7556
76.3854
79.229
82.2431
85.3634
88.5184
91.6251
94.6097
97.412
99.9915
102.335
104.45
106.365
108.115
109.747
111.307
112.843
114.393
116.023
117.752
119.645
121.785
124.345
127.75
133.047
142.683
160.441
189.307
222.221
247.058
260.201
264.944
30.9997
29.7736
32.5423
31.5375
30.2276
30.0222
29.8179
30.3295
29.6247
30.6778
29.6178
31.0624
29.7424
31.7628
31.4765
264.264
258.3
243.332
216.89
184.583
158.373
142.737
134.189
129.277
125.926
123.284
121.006
118.946
117.028
115.201
113.442
111.677
109.864
107.955
105.903
103.668
101.22
98.5494
95.6661
92.6066
89.4291
86.2086
83.021
79.9485
77.0484
74.3658
71.9331
69.7581
67.8292
66.1372
64.6541
63.3523
62.2073
61.1899
60.2747
59.437
58.5865
57.7751
56.9006
55.9713
54.9281
53.7525
52.4189
50.9217
49.2824
47.5216
45.709
43.9101
42.1499
40.5078
38.9813
37.6322
36.4382
35.4152
34.5544
33.8535
32.1441
32.0718
32.0765
32.1124
32.1754
32.3367
32.5798
32.9171
33.3572
33.9143
34.6009
35.4292
36.4088
37.5456
38.8386
40.2789
41.8465
43.5094
45.224
46.9394
48.602
50.1663
51.5968
52.8761
54.0038
54.9824
55.8408
56.6019
57.3058
57.9573
58.6336
59.2994
59.9845
60.7191
61.5688
62.5376
63.6427
64.9122
66.3722
68.0484
69.9633
72.1326
74.5634
77.2469
80.159
83.2519
86.4635
89.7168
92.931
96.0305
98.9557
101.672
104.169
106.46
108.576
110.558
112.457
114.326
116.203
118.179
120.273
122.575
125.237
128.634
133.683
142.624
159.127
186.687
219.661
245.624
259.756
264.97
264.791
264.749
264.638
264.48
264.302
264.119
263.966
263.874
263.826
263.806
263.843
263.939
264.053
264.158
264.232
264.259
32.2472
264.205
32.1447
33.2783
31.9214
30.7711
29.9406
263.103
263.124
263.081
262.993
262.883
262.769
262.675
262.634
262.643
262.687
262.773
262.908
263.069
263.226
263.36
263.446
263.465
31.2778
30.166
30.2111
32.3919
32.7668
32.6718
32.6427
32.6613
32.6912
32.8199
33.0188
33.3075
33.6965
34.1945
34.817
35.5751
36.4793
37.5369
38.7498
40.1124
41.6086
43.2116
44.8821
46.572
48.2279
49.7988
51.2434
52.5355
53.6627
54.632
55.4565
56.1558
56.7599
57.2948
57.7776
58.2429
58.6867
59.191
59.7017
60.2392
60.8315
61.5009
62.2979
63.2297
64.3122
65.5731
67.0391
68.7349
70.6841
72.9042
75.4018
78.1701
81.1814
84.3919
87.7365
91.1374
94.5129
97.7878
100.906
103.834
106.568
109.123
111.536
113.852
116.128
118.402
120.784
123.326
126.138
129.561
134.378
142.598
157.761
183.8
216.674
243.843
259.112
264.898
264.74
263.39
32.8394
31.8504
29.8172
30.5262
29.7175
30.879
29.7695
31.2606
29.9148
31.6703
32.1038
32.8893
32.5639
34.0626
33.5564
262.994
264.057
264.059
257.364
241.166
213.637
181.719
157.152
142.858
135.013
130.332
126.971
124.203
121.731
119.414
117.212
115.08
112.93
110.723
108.408
105.94
103.286
100.431
97.3825
94.173
90.8587
87.5127
84.2169
81.0457
78.0673
75.3191
72.8359
70.6163
68.6653
66.9626
65.4849
64.2082
63.1047
62.1459
61.3141
60.6129
59.9625
59.3431
58.7222
58.1538
57.5515
56.9062
56.1794
55.3441
54.3691
53.2305
51.9181
50.4295
48.8064
47.0892
45.303
43.5513
41.8589
40.2992
38.8484
37.568
36.4684
35.5307
34.7438
34.1168
260.272
32.4901
33.5897
96.1435
260.151
30.6218
30.144
260.303
260.288
260.227
260.148
260.069
260.003
259.971
259.968
259.999
260.06
260.143
260.236
260.318
260.363
260.355
260.273
260.086
31.108
30.1452
30.4226
33.9779
33.317
33.2455
33.2519
33.2821
33.3626
33.5168
33.7666
34.11
34.5593
35.1266
35.8236
36.6621
37.6503
38.7924
40.0859
41.519
43.0691
44.7018
46.3722
48.0285
49.6184
51.0949
52.4245
53.5883
54.5842
55.4202
56.1181
56.6969
57.1828
57.598
57.9644
58.3018
58.6186
58.9348
59.2557
59.6208
60.0507
60.4787
60.9615
61.5119
62.1503
62.9298
63.8526
64.9407
66.2173
67.7128
69.4538
71.4646
73.7637
76.3606
79.2486
82.4038
85.7801
89.3141
92.9264
96.5347
100.065
103.463
106.699
109.768
112.691
115.506
118.264
121.006
123.841
126.919
130.437
135.072
142.579
156.357
180.685
213.265
241.696
258.262
264.71
264.574
263.194
259.764
31.6427
29.9011
30.7458
33.2048
32.2468
29.8536
31.1006
29.938
31.4838
30.1215
31.89
32.3198
32.7692
33.7147
255.292
254.879
34.9464
35.0664
259.882
262.78
263.848
263.696
256.219
238.641
210.024
178.708
155.951
143.024
135.861
131.375
127.961
124.999
122.22
119.6
117.025
114.418
111.737
108.938
105.983
102.855
99.5576
96.1214
92.6006
89.0682
85.6043
82.287
79.1796
76.3302
73.761
71.4785
69.4737
67.7368
66.2362
64.9518
63.8491
62.9127
62.1126
61.4577
60.8706
60.3478
59.8554
59.3805
58.9809
58.5747
58.1677
57.7238
57.2264
56.6536
55.9749
55.1591
54.1825
53.0253
51.6862
50.184
48.5229
46.8044
45.07
43.3426
41.6926
40.198
38.8378
37.6407
36.6041
35.7489
35.014
34.4433
34.743
34.1783
32.9078
33.9793
90.6433
30.5674
30.3629
255.577
255.778
255.913
256.001
256.057
256.094
256.121
256.143
256.149
256.143
256.124
256.076
255.98
255.818
255.571
255.215
254.719
254.051
31.0184
30.1466
30.6581
40.1474
33.8898
33.884
33.9074
33.9415
34.079
34.2909
34.5945
34.9997
35.5175
36.1626
36.9423
37.8686
38.9468
40.177
41.5512
43.0512
44.6471
46.2981
47.9549
49.5646
51.0777
52.4546
53.6698
54.7136
55.5899
56.3137
56.9049
57.3873
57.7825
58.1116
58.3923
58.64
58.8674
59.0855
59.305
59.5293
59.7714
60.0316
60.3616
60.7393
61.1357
61.5984
62.1385
62.7685
63.551
64.4841
65.6013
66.9206
68.4708
70.285
72.3885
74.8031
77.5403
80.5979
83.9523
87.5597
91.3554
95.2601
99.1919
103.075
106.854
110.5
114.006
117.393
120.699
123.976
127.317
131.013
135.565
142.46
154.881
177.364
209.438
239.175
257.203
264.38
264.265
262.848
259.267
253.172
31.5333
30.0026
30.9884
32.0847
30.0129
31.3483
33.637
32.7113
30.1418
31.7312
30.3438
32.1358
32.5589
33.0007
249.965
249.234
33.4557
33.9136
73.3742
34.3602
254.288
253.471
259.413
262.414
263.505
263.141
254.828
235.741
206.058
175.591
154.739
143.138
136.639
132.257
128.666
125.414
122.34
119.26
116.127
112.899
109.544
106.042
102.399
98.6431
94.83
91.0324
87.3316
83.8054
80.5177
77.513
74.8158
72.4312
70.3479
68.546
67.0009
65.68
64.5568
63.6157
62.823
62.1797
61.617
61.132
60.7083
60.276
59.9307
59.6283
59.3422
59.0632
58.7796
58.4783
58.1446
57.7615
57.3018
56.7453
56.0581
55.2181
54.199
52.9936
51.5928
50.0452
48.391
46.6479
44.9035
43.2477
41.6519
40.2094
38.9002
37.8015
36.83
36.0267
35.3585
34.843
370.543
33.3887
34.4372
85.1011
60.1853
30.5389
30.6089
250.532
250.976
251.322
251.583
251.78
251.921
252.01
252.051
252.036
251.972
251.851
251.66
251.386
251.016
250.524
249.887
249.079
248.067
246.818
30.9822
30.2347
30.9134
61.1081
40.6033
34.5296
34.5508
34.5923
34.688
34.8604
35.1327
35.5007
35.9781
36.5743
37.3068
38.1772
39.1981
40.3706
41.6898
43.1413
44.6999
46.329
47.9822
49.608
51.1553
52.5802
53.8512
54.9523
55.8817
56.6497
57.2741
57.7766
58.1794
58.503
58.7658
58.9831
59.1671
59.329
59.4764
59.6184
59.7625
59.9144
60.0783
60.2595
60.4619
60.7003
61.0102
61.3734
61.7634
62.23
62.7848
63.4348
64.2321
65.206
66.3682
67.7577
69.3972
71.3181
73.556
76.1347
79.0671
82.3544
85.9779
89.8946
94.0394
98.3321
102.687
107.023
111.279
115.417
119.428
123.334
127.199
131.179
135.738
142.135
153.265
173.823
205.172
236.251
255.893
263.859
263.761
262.296
258.546
252.037
245.295
31.4758
30.1476
31.2518
32.0269
30.2044
31.6154
32.6038
30.3616
32.0008
34.1385
33.2429
30.5927
32.4044
32.8254
244.655
243.646
33.2597
33.7031
34.1497
34.6058
248.296
247.112
252.384
258.685
261.826
262.953
262.379
253.14
232.452
201.758
172.388
153.469
143.098
137.037
132.686
128.934
125.334
121.705
117.994
114.164
110.201
106.115
101.942
97.7392
93.5852
89.5631
85.7521
82.2163
78.9998
76.1231
73.5872
71.3801
69.4801
67.8559
66.4752
65.3137
64.3391
63.5362
62.8776
62.313
61.8344
61.4261
61.0268
60.7014
60.4448
60.2105
59.9994
59.7975
59.6079
59.4139
59.2112
58.9913
58.7372
58.4349
58.0622
57.6002
57.0203
56.2947
55.4029
54.3198
53.0506
51.6115
50.0095
48.3115
46.6009
44.8694
43.2363
41.6767
40.3262
39.0815
38.0235
37.13
36.3839
35.7838
35.3138
35.3295
33.9296
34.9548
35.0822
245.637
30.5343
30.8703
245.472
246.135
246.667
247.085
247.409
247.639
247.779
247.836
247.807
247.69
247.48
247.168
246.742
246.187
245.48
244.6
243.525
242.225
240.673
238.84
30.9742
30.3379
31.1884
35.5026
35.4601
35.2522
35.242
35.3155
35.4593
35.7136
36.0562
36.5
37.0595
37.7438
38.5718
39.5396
40.6593
41.9272
43.332
44.8526
46.4562
48.1008
49.7364
51.3116
52.7798
54.105
55.2651
56.2529
57.0739
57.7428
58.2796
58.7058
59.0425
59.3081
59.5185
59.6869
59.8237
59.9376
60.0357
60.1237
60.2075
60.2917
60.3819
60.4836
60.6031
60.7425
60.9071
61.0979
61.3335
61.6406
62.0229
62.433
62.9274
63.5219
64.2242
65.0627
66.0902
67.3368
68.8213
70.5931
72.6729
75.0913
77.8882
81.081
84.6705
88.6415
92.9529
97.5369
102.307
107.166
112.022
116.8
121.458
125.996
130.504
135.305
141.375
151.347
169.983
200.407
232.868
254.277
263.085
263.001
261.483
257.549
250.604
243.463
236.7
31.4625
30.3168
31.5344
31.9944
30.4172
31.9036
35.7067
32.56
30.6079
32.2912
33.1684
30.8566
32.6955
239.415
238.179
34.6925
33.8208
33.1137
33.5441
33.9829
34.429
34.8734
242.407
240.904
239.101
243.833
250.987
257.644
260.949
262.126
261.401
251.133
228.753
197.144
169.062
152.039
142.786
137.081
132.589
128.403
124.207
119.891
115.433
110.848
106.181
101.504
96.9024
92.4696
88.2897
84.4293
80.9306
77.8113
75.0714
72.6956
70.6509
68.905
67.4323
66.1974
65.1736
64.3389
63.6363
63.0393
62.5404
62.1217
61.722
61.4052
61.1581
60.9463
60.7635
60.6024
60.4544
60.3243
60.1992
60.0744
59.946
59.8055
59.6422
59.445
59.2045
58.9001
58.5139
58.0234
57.3984
56.6152
55.6545
54.5081
53.1664
51.6623
50.0403
48.3113
46.5913
44.8677
43.3049
41.8014
40.4852
39.3452
38.3311
37.5147
36.8311
36.2858
35.8546
34.5205
35.3246
35.5299
35.5535
236.966
30.6126
31.1529
240.44
241.286
241.976
242.524
242.948
243.252
243.438
243.509
243.466
243.305
243.023
242.612
242.059
241.35
240.466
239.391
238.102
236.573
234.786
232.717
230.351
31.0362
30.4884
31.4807
36.1091
36.0991
36.0812
36.1517
36.3476
36.6614
37.0816
37.6118
38.2632
39.0443
39.973
41.0423
42.2616
43.621
45.1027
46.6781
48.3085
49.9461
51.5417
53.046
54.4197
55.6359
56.682
57.559
58.2779
58.8567
59.3159
59.6763
59.957
60.1745
60.3425
60.4723
60.5721
60.6495
60.7107
60.7601
60.8021
60.8411
60.8805
60.9245
60.9778
61.0449
61.1306
61.2404
61.3781
61.5456
61.7483
61.9983
62.3248
62.7527
63.2184
63.7638
64.4263
65.2186
66.1554
67.2723
68.6241
70.2556
72.1795
74.4696
77.1363
80.2083
83.7247
87.6866
92.076
96.8489
101.93
107.22
112.606
117.98
123.265
128.453
133.722
139.756
148.817
165.632
194.983
228.911
252.302
262.024
261.958
260.376
256.227
248.83
241.294
234.233
227.673
31.4929
30.5165
31.8351
36.2058
35.8686
31.9931
30.6547
32.2095
32.5473
30.8698
32.601
234.246
232.827
33.1444
31.1413
33.7723
33.0067
33.4252
35.299
34.4506
33.8541
34.2903
34.7321
35.182
236.694
234.935
232.877
230.498
234.467
241.654
249.227
256.26
259.735
260.961
260.139
248.783
224.588
192.132
165.452
150.188
141.821
136.212
131.339
126.544
121.624
116.557
111.386
106.197
101.094
96.1836
91.5624
87.3031
83.4512
80.0246
77.0236
74.4166
72.1742
70.2781
68.6748
67.3381
66.2361
65.3139
64.533
63.8772
63.3341
62.8676
62.4373
62.1063
61.852
61.638
61.46
61.3079
61.1819
61.0763
60.9873
60.911
60.8345
60.765
60.6902
60.6073
60.506
60.3851
60.2312
60.038
59.7909
59.4647
59.0477
58.5104
57.8336
56.9878
55.9543
54.7336
53.3381
51.7626
50.1058
48.3539
46.6731
44.9928
43.4368
42.0152
40.7674
39.6778
38.7717
37.9884
37.3577
36.8419
36.4402
35.151
35.8421
36.1372
35.6538
227.779
30.7191
31.4501
235.437
236.429
237.243
237.896
238.404
238.769
238.991
239.073
239.015
238.819
238.48
237.989
237.334
236.502
235.48
234.251
232.793
231.09
229.127
226.885
224.357
221.535
31.136
30.66
31.79
36.9086
36.937
36.9873
37.123
37.3602
37.7136
38.2089
38.8273
39.5869
40.478
41.5138
42.6882
44.0053
45.4486
46.9938
48.6054
50.2391
51.8464
53.3779
54.7929
56.0592
57.1601
58.0921
58.8624
59.4867
59.9839
60.3747
60.6779
60.911
61.0878
61.2206
61.3181
61.389
61.4365
61.468
61.4885
61.5001
61.5057
61.5089
61.5136
61.5226
61.541
61.5718
61.6173
61.6816
61.7715
61.8922
62.0487
62.2406
62.4794
62.7633
63.1416
63.6166
64.1971
64.8437
65.606
66.5229
67.6089
68.8838
70.3864
72.1804
74.3313
76.8462
79.8111
83.2177
87.1
91.469
96.3015
101.545
107.114
112.892
118.758
124.614
130.49
136.766
145.216
160.376
188.531
224.126
249.873
260.71
260.647
258.959
254.534
246.687
238.768
231.429
224.679
218.418
36.1116
31.5924
30.7386
32.1526
36.3117
36.9069
32.0779
30.9107
32.5333
229.143
227.585
32.5918
31.1526
31.4403
33.1428
32.929
33.3375
33.7587
33.7568
34.4157
34.1869
35.938
35.1093
34.6225
35.0642
35.5105
231.152
229.199
226.953
224.401
221.534
224.714
231.588
239.066
247.056
254.553
258.253
259.523
258.309
246.023
219.837
186.505
161.264
147.533
139.739
133.925
128.471
122.968
117.353
111.694
106.105
100.711
95.6237
90.9292
86.678
82.8931
79.5717
76.6782
74.2137
72.1088
70.3438
68.8717
67.6273
66.5688
65.6738
64.9266
64.2948
63.7277
63.2572
62.8826
62.599
62.3589
62.1632
62.0009
61.8716
61.7708
61.691
61.6301
61.5843
61.5451
61.511
61.4825
61.4477
61.4058
61.3541
61.2856
61.1967
61.0816
60.9255
60.7193
60.4487
60.0945
59.6373
59.0484
58.3053
57.3882
56.2909
54.9848
53.53
51.9114
50.2518
48.5191
46.8016
45.1894
43.6948
42.3566
41.1749
40.1523
39.2716
38.5286
37.921
37.4359
37.0711
35.8358
35.9655
36.124
36.789
218.352
30.865
31.7648
230.464
231.57
232.481
233.218
233.79
234.2
234.448
234.537
234.47
234.246
233.862
233.307
232.573
231.647
230.517
229.17
227.587
225.756
223.664
221.3
218.661
215.745
212.553
36.3512
31.2767
30.8649
36.4535
36.6429
32.1148
36.4862
37.0027
37.7215
37.7497
37.7931
37.9488
38.1873
38.504
38.9319
39.4912
40.1978
41.0438
42.0548
43.2031
44.4828
45.8905
47.4051
48.9938
50.618
52.2296
53.7802
55.2267
56.5354
57.6856
58.6688
59.4891
60.1592
60.6966
61.121
61.4512
61.705
61.8966
62.0389
62.1414
62.2127
62.2554
62.2818
62.2865
62.2832
62.2737
62.2541
62.2294
62.2036
62.1816
62.1619
62.1595
62.1639
62.1785
62.2103
62.2682
62.3529
62.469
62.6229
62.8199
63.0626
63.3628
63.7321
64.1805
64.7459
65.4332
66.2574
67.1799
68.2547
69.5326
71.0276
72.7594
74.7712
77.1425
79.9369
83.192
86.9353
91.1733
95.9194
101.147
106.795
112.775
118.975
125.33
131.954
140.039
153.689
180.373
217.913
246.725
259.134
259.049
257.22
252.476
244.169
235.875
228.283
221.37
215.01
209.094
31.7154
30.9836
32.4859
224.105
222.444
32.1877
31.1869
31.45
32.6949
32.8733
33.2741
33.2371
31.7567
33.6862
33.8001
34.1087
34.4113
34.5394
35.0861
34.9753
36.6042
35.785
35.4143
35.8621
225.768
223.676
221.297
218.627
215.663
212.413
208.89
214.872
221.321
228.35
236.081
244.452
252.439
256.385
257.738
256.228
242.657
214.142
179.805
156.012
143.562
136.022
129.789
123.722
117.664
111.667
105.857
100.354
95.2525
90.6153
86.471
82.8126
79.619
76.8843
74.5554
72.5906
70.9063
69.4564
68.2168
67.1722
66.2814
65.4928
64.8205
64.2702
63.8324
63.4744
63.1808
62.9427
62.7471
62.5923
62.4738
62.3843
62.3187
62.2724
62.242
62.2239
62.2186
62.2168
62.2165
62.2138
62.21
62.1912
62.1673
62.1294
62.0674
61.9775
61.8518
61.6831
61.4586
61.1589
60.7676
60.2597
59.6139
58.8095
57.8161
56.6458
55.2879
53.7928
52.1488
50.4458
48.7344
47.0877
45.5217
44.1115
42.843
41.6695
40.6829
39.8213
39.1253
38.5314
38.056
37.6988
36.5277
37.4317
37.273
36.3239
40.0015
31.0383
38.2922
38.2248
36.7875
36.943
36.674
37.1193
37.7234
36.9145
37.2992
37.8344
37.1725
37.5002
37.9593
37.7423
37.4649
38.1417
37.2761
38.3445
38.0055
37.7741
32.0934
225.525
226.717
227.705
228.504
229.123
229.565
229.832
229.928
229.852
229.607
229.186
228.583
227.789
226.793
225.583
224.149
222.476
220.553
218.372
215.928
213.22
210.249
207.02
203.545
38.5346
39.0853
39.6817
40.397
41.2496
42.2131
43.3257
44.6025
46.0056
47.5106
49.1205
50.7887
52.4767
54.1158
55.6674
57.07
58.302
59.345
60.2128
60.918
61.4745
61.9087
62.2407
62.4904
62.6767
62.813
62.9077
62.9713
63.0091
63.035
63.0343
63.0264
63.0115
62.9907
62.9655
62.9424
62.9198
62.9055
62.9063
62.914
62.9337
62.9728
63.0382
63.13
63.2539
63.416
63.6232
63.8797
64.1936
64.5737
65.0351
65.5861
66.2461
67.0506
68.0106
69.1398
70.3961
71.8429
73.5327
75.4745
77.692
80.246
83.2349
86.6969
90.6478
95.0931
100.034
105.446
111.269
117.413
123.79
130.383
137.831
149.146
171.326
206.754
238.32
253.74
255.577
254.124
249.892
241.375
232.683
224.763
217.62
211.11
205.109
31.445
31.0909
32.4549
220.527
218.338
215.872
213.128
210.109
206.826
203.293
199.527
38.8303
38.7017
38.5961
38.5743
38.5959
38.6333
38.7849
39.0132
39.3338
39.7569
40.2863
40.9397
41.7376
42.6909
43.7942
45.0425
46.4248
47.9115
49.4782
51.0871
52.6948
54.2565
55.7268
57.0694
58.2605
59.2892
60.156
60.8703
61.4476
61.9069
62.2663
62.5437
62.7539
62.9098
63.0219
63.0984
63.1433
63.1671
63.1658
63.1581
63.1395
63.1037
63.0611
63.0143
62.9662
62.9189
62.8756
62.8383
62.8098
62.7978
62.8018
62.816
62.8474
62.9092
63.001
63.1272
63.2938
63.5084
63.7754
64.1028
64.5001
64.9804
65.5574
66.2396
67.0736
68.0629
69.249
70.5556
72.0475
73.7876
75.7828
78.0531
80.6548
83.6892
87.1984
91.2119
95.7258
100.751
106.269
112.235
118.592
125.325
133.066
145.241
169.653
209.123
242.22
257.025
257.033
255.16
250.145
241.288
232.603
224.786
217.75
211.324
205.382
199.841
31.8823
31.2487
31.4795
32.3447
32.8346
33.229
32.833
31.7647
219.136
217.404
33.6354
33.3495
32.0865
34.0521
33.9072
34.4785
34.4916
34.9102
35.0985
35.3462
35.7723
35.7872
36.4848
36.2337
37.2569
36.686
37.1525
39.0074
38.586
37.6214
39.6837
39.2102
31.2421
41.9523
39.0079
38.2979
38.109
32.4374
39.4341
39.6057
40.0984
40.844
41.7389
42.7582
43.8997
45.1571
46.5262
48.0146
49.6346
51.2872
52.9417
54.5824
56.1304
57.5638
58.8394
59.9418
60.8649
61.6168
62.2182
62.6932
63.0602
63.3391
63.5482
63.6973
63.8054
63.8743
63.9194
63.9331
63.9308
63.9201
63.8982
63.8628
63.8203
63.7755
63.7305
63.6872
63.648
63.6167
63.5962
63.5976
63.6079
63.6266
63.676
63.753
63.8609
64.0052
64.192
64.4269
64.7168
65.0704
65.4954
66.0028
66.6049
67.3148
68.147
69.1151
70.2677
71.6132
73.1758
74.8736
76.7967
78.9772
81.4257
84.1855
87.3623
91.0205
95.1528
99.7858
104.921
110.555
116.659
123.187
130.397
140.491
160.47
196.445
232.158
250.382
252.946
251.392
246.854
237.86
228.91
220.848
213.629
207.089
201.093
195.544
220.626
221.884
222.928
223.773
224.425
224.89
225.17
225.27
225.188
224.926
224.48
223.839
222.998
221.95
220.685
219.191
217.456
215.473
213.236
210.746
208.002
205.007
201.771
198.308
194.632
31.6466
31.3413
39.8604
48.499
31.5324
32.0743
32.809
33.1977
39.5762
39.4808
39.4686
39.4894
39.5416
39.6676
39.8834
40.1933
40.6076
41.1331
41.7772
42.5486
43.4567
44.5071
45.7236
47.0615
48.5134
50.0584
51.651
53.2515
54.8139
56.2971
57.6649
58.89
59.9573
60.8646
61.6195
62.235
62.7286
63.1178
63.4205
63.6511
63.8235
63.9477
64.0336
64.0839
64.1093
64.1075
64.0979
64.0748
64.0306
63.9769
63.916
63.8506
63.7833
63.7167
63.6523
63.5937
63.541
63.5015
63.469
63.4691
63.4762
63.4955
63.5399
63.6192
63.7328
63.8855
64.0833
64.3323
64.6395
65.0134
65.4628
65.9981
66.6317
67.3769
68.2507
69.2536
70.4493
71.8366
73.4637
75.2201
77.189
79.4146
81.9027
84.6917
87.8903
91.5685
95.7325
100.405
105.612
111.366
117.671
124.797
135.261
156.306
196.115
235.074
253.443
254.643
252.738
247.473
238.052
228.993
220.977
213.844
207.378
201.433
195.912
190.76
32.5279
31.7892
215.417
213.168
210.65
207.868
204.829
201.542
198.026
194.298
190.375
214.239
212.463
39.4539
39.6874
38.8492
33.5996
33.0082
32.0932
34.0123
33.5158
32.4315
34.434
34.0443
34.8634
34.6031
35.2981
35.2063
35.7359
35.8317
36.1763
36.5121
36.6231
37.2859
37.0764
40.1044
37.5282
37.9912
31.4703
40.9627
41.1724
31.6109
31.8729
33.1772
215.775
217.078
218.164
219.042
219.718
220.197
220.485
220.585
220.498
220.226
219.759
219.088
218.215
217.133
215.832
214.299
212.526
210.509
208.246
205.735
202.982
199.992
196.775
193.346
189.723
185.925
92.8276
40.3964
40.4086
40.4331
40.4938
40.612
40.8335
41.1293
41.527
42.0374
42.6679
43.4284
44.32
45.353
46.5116
47.8228
49.2367
50.7466
52.3145
53.9013
55.4589
56.9481
58.3298
59.5779
60.6759
61.6185
62.409
63.0593
63.5854
64.0039
64.3319
64.5839
64.7745
64.9124
65.0104
65.068
65.0997
65.0984
65.0891
65.0653
65.0179
64.9572
64.8868
64.8096
64.7281
64.6445
64.5608
64.4795
64.402
64.3318
64.269
64.221
64.1813
64.1742
64.1797
64.1949
64.2349
64.3098
64.4211
64.5723
64.7687
65.016
65.3209
65.6905
66.1328
66.6563
67.2712
67.9867
68.8144
69.7642
70.8519
72.0924
73.4813
75.0882
76.923
78.9486
81.1054
83.48
86.0792
88.9527
92.2078
95.9535
100.175
104.953
110.328
116.453
124.98
142.262
177.496
223.359
247.958
251.704
249.77
244.259
234.442
225.097
216.902
209.677
203.186
197.262
191.796
186.719
181.978
32.299
31.8336
40.2988
40.6142
41.0485
41.5569
42.2846
43.2372
44.39
45.7108
47.137
48.6421
50.2202
51.8148
53.4895
55.159
56.7217
58.1698
59.4635
60.5954
61.5628
62.3611
63.0087
63.5202
63.9201
64.2258
64.4571
64.6249
64.7478
64.8244
64.8767
64.8909
64.8868
64.8734
64.8459
64.8034
64.7511
64.695
64.6326
64.5686
64.5066
64.4494
64.3966
64.3559
64.3213
64.3166
64.3221
64.3373
64.3744
64.4449
64.5478
64.6873
64.8689
65.0985
65.3823
65.7271
66.141
66.6326
67.2114
67.8877
68.672
69.5771
70.6185
71.8083
73.1556
74.7201
76.5148
78.4853
80.61
82.963
85.5514
88.4243
91.6877
95.4407
99.6489
104.384
109.677
115.552
122.118
130.721
147.737
181.887
222.719
245.504
249.732
248.107
243.303
233.991
224.834
216.646
209.367
202.82
196.858
191.371
186.287
210.436
208.154
205.614
202.822