/*--------------------------------*- C++ -*----------------------------------*\
| =========                 |                                                 |
| \\      /  F ield         | OpenFOAM: The Open Source CFD Toolbox           |
|  \\    /   O peration     | Version:  2212                                  |
|   \\  /    A nd           | Website:  www.openfoam.com                      |
|    \\/     M anipulation  |                                                 |
\*---------------------------------------------------------------------------*/
FoamFile
{
    version     2.0;
    format      ascii;
    arch        "LSB;label=32;scalar=64";
    class       volScalarField;
    location    "0.371";
    object      k;
}
// * * * * * * * * * * * * * * * * * * * * * * * * * * * * * * * * * * * * * //

dimensions      [0 2 -2 0 0 0 0];

internalField   nonuniform List<scalar> 
24240
(
2.09976e-06
1.9787e-05
2.71528e-05
2.71349e-05
2.71387e-05
2.7143e-05
2.71479e-05
2.71532e-05
2.71587e-05
2.71642e-05
2.71696e-05
2.71748e-05
2.71797e-05
2.71842e-05
2.71882e-05
2.71916e-05
2.71944e-05
2.72171e-05
1.9837e-05
2.10304e-06
5.52034e-08
8.86728e-07
1.45101e-07
1.52316e-07
1.46435e-07
1.46447e-07
1.4646e-07
1.46474e-07
1.46488e-07
1.46503e-07
1.46517e-07
1.4653e-07
1.46542e-07
1.46553e-07
1.46563e-07
1.46571e-07
1.52466e-07
1.45264e-07
8.8877e-07
5.52955e-08
3.03463e-10
7.88346e-08
5.19101e-10
7.66206e-09
6.06014e-09
6.0599e-09
6.05971e-09
6.0595e-09
6.05928e-09
6.05904e-09
6.0588e-09
6.05855e-09
6.0583e-09
6.05806e-09
6.05782e-09
6.05766e-09
7.65812e-09
5.19449e-10
7.90147e-08
3.04483e-10
1.36243e-12
4.1641e-10
2.88028e-12
7.75223e-08
7.81303e-08
7.81288e-08
7.81272e-08
7.81254e-08
7.81236e-08
7.81217e-08
7.812e-08
7.81183e-08
7.81168e-08
7.81155e-08
7.81145e-08
7.81137e-08
7.75043e-08
2.79899e-12
4.17373e-10
1.36947e-12
7.5267e-15
1.19373e-12
7.60852e-13
8.38449e-08
8.46317e-08
8.46298e-08
8.46276e-08
8.46253e-08
8.46228e-08
8.46204e-08
8.4618e-08
8.46157e-08
8.46136e-08
8.46119e-08
8.46105e-08
8.46095e-08
8.38211e-08
8.10554e-13
1.1963e-12
7.57136e-15
1.03032e-15
3.93049e-15
3.23356e-13
3.63146e-08
3.66676e-08
3.66658e-08
3.66637e-08
3.66614e-08
3.66591e-08
3.66567e-08
3.66543e-08
3.6652e-08
3.66499e-08
3.6648e-08
3.66464e-08
3.66451e-08
3.62898e-08
2.92576e-13
3.93707e-15
1.03058e-15
1.00014e-15
1.01028e-15
3.20725e-13
3.88034e-08
3.92269e-08
3.92246e-08
3.92221e-08
3.92193e-08
3.92165e-08
3.92136e-08
3.92107e-08
3.92079e-08
3.92053e-08
3.9203e-08
3.92009e-08
3.91992e-08
3.87728e-08
3.23002e-13
1.01033e-15
1.00014e-15
1e-15
1.0005e-15
1.13577e-13
1.49745e-08
1.51372e-08
1.5136e-08
1.51346e-08
1.51331e-08
1.51315e-08
1.51299e-08
1.51282e-08
1.51267e-08
1.51252e-08
1.51239e-08
1.51226e-08
1.51216e-08
1.49571e-08
1.05686e-13
1.00046e-15
1e-15
1e-15
1.00039e-15
9.63406e-14
1.33117e-08
1.34587e-08
1.34575e-08
1.34562e-08
1.34548e-08
1.34533e-08
1.34518e-08
1.34504e-08
1.34489e-08
1.34475e-08
1.34462e-08
1.3445e-08
1.3444e-08
1.32952e-08
9.16205e-14
1.00037e-15
1e-15
1e-15
1.00025e-15
7.11952e-14
1.10713e-08
1.11899e-08
1.11885e-08
1.11869e-08
1.11851e-08
1.11833e-08
1.11814e-08
1.11796e-08
1.11778e-08
1.1176e-08
1.11744e-08
1.11729e-08
1.11716e-08
1.10509e-08
7.15854e-14
1.00025e-15
1e-15
1e-15
1.00019e-15
5.42224e-14
7.91778e-09
7.99755e-09
7.99619e-09
7.99467e-09
7.99302e-09
7.99129e-09
7.98954e-09
7.98779e-09
7.9861e-09
7.9845e-09
7.98302e-09
7.98167e-09
7.98049e-09
7.89878e-09
4.75889e-14
1.00016e-15
1e-15
1e-15
1.00057e-15
1.49023e-13
2.19714e-08
2.21894e-08
2.21873e-08
2.2185e-08
2.21825e-08
2.21798e-08
2.21771e-08
2.21745e-08
2.21719e-08
2.21695e-08
2.21672e-08
2.21652e-08
2.21635e-08
2.19425e-08
1.56625e-13
1.00059e-15
1e-15
1e-15
1.0005e-15
1.32218e-13
1.71468e-08
1.72998e-08
1.72979e-08
1.72959e-08
1.72937e-08
1.72914e-08
1.72891e-08
1.72868e-08
1.72846e-08
1.72826e-08
1.72808e-08
1.72792e-08
1.72779e-08
1.71225e-08
1.10707e-13
1.0004e-15
1e-15
1e-15
1.00229e-15
5.2408e-13
6.61581e-08
6.67e-08
6.66963e-08
6.66922e-08
6.66878e-08
6.66833e-08
6.66787e-08
6.66743e-08
6.66701e-08
6.66663e-08
6.66629e-08
6.66601e-08
6.66577e-08
6.61114e-08
5.57848e-13
1.00243e-15
1e-15
1e-15
1.00274e-15
6.01676e-13
6.18534e-08
6.22819e-08
6.22784e-08
6.22743e-08
6.227e-08
6.22656e-08
6.22611e-08
6.22568e-08
6.22528e-08
6.22492e-08
6.2246e-08
6.22434e-08
6.22413e-08
6.18085e-08
4.74968e-13
1.00202e-15
1e-15
1e-15
1.00959e-15
2.02261e-12
2.20209e-07
2.21734e-07
2.2173e-07
2.21726e-07
2.21722e-07
2.21719e-07
2.21715e-07
2.21713e-07
2.21709e-07
2.21707e-07
2.21706e-07
2.21705e-07
2.21706e-07
2.2018e-07
2.18512e-12
1.01042e-15
1e-15
1.00473e-15
1.09606e-15
3.08459e-12
2.38679e-07
2.40084e-07
2.40099e-07
2.40095e-07
2.40092e-07
2.40089e-07
2.40085e-07
2.40069e-07
2.40079e-07
2.40078e-07
2.40077e-07
2.40076e-07
2.40059e-07
2.38652e-07
2.66624e-12
1.093e-15
1.00473e-15
3.16108e-13
1.22516e-12
1.98932e-08
4.26695e-08
4.07287e-08
3.68932e-08
3.68915e-08
3.68897e-08
3.68878e-08
3.68858e-08
3.97845e-08
3.68792e-08
3.68769e-08
3.68748e-08
3.68727e-08
4.06992e-08
4.26365e-08
1.98772e-08
1.22664e-12
3.16336e-13
1.05308e-09
1.41199e-08
1.55251e-07
1.85902e-07
1.66317e-07
1.65807e-07
1.658e-07
1.65791e-07
1.65781e-07
1.6577e-07
1.66095e-07
1.65749e-07
1.65738e-07
1.65726e-07
1.65715e-07
1.66207e-07
1.85756e-07
1.55111e-07
1.40958e-08
1.05375e-09
7.09789e-05
0.000177975
0.000225572
0.000225703
0.000225716
0.000225734
0.000225754
0.000225776
0.000225799
0.000225822
0.000225844
0.000225866
0.000225886
0.000225905
0.000225922
0.000225937
0.000225951
0.000225841
0.000178203
7.10674e-05
4.46816e-07
1.72866e-05
2.65421e-05
2.654e-05
2.65469e-05
2.65549e-05
2.65639e-05
2.65736e-05
2.65838e-05
2.65941e-05
2.66042e-05
2.66141e-05
2.66234e-05
2.6632e-05
2.66397e-05
2.66465e-05
2.6652e-05
2.66639e-05
1.7383e-05
4.47333e-07
3.82827e-08
6.99165e-07
1.28634e-07
1.35017e-07
1.28975e-07
1.28995e-07
1.29016e-07
1.2904e-07
1.29065e-07
1.2909e-07
1.29115e-07
1.2914e-07
1.29163e-07
1.29185e-07
1.29204e-07
1.29221e-07
1.35296e-07
1.28932e-07
7.01048e-07
3.82496e-08
3.915e-10
7.61615e-08
6.18078e-10
6.59518e-09
4.90443e-09
4.90444e-09
4.90459e-09
4.90477e-09
4.90497e-09
4.90518e-09
4.9054e-09
4.90563e-09
4.90586e-09
4.90608e-09
4.9063e-09
4.90661e-09
6.59776e-09
6.18673e-10
7.63351e-08
3.92333e-10
2.23677e-12
1.78043e-09
4.03006e-12
1.38732e-07
1.39888e-07
1.39886e-07
1.39883e-07
1.39879e-07
1.39876e-07
1.39872e-07
1.39868e-07
1.39864e-07
1.39861e-07
1.39858e-07
1.39855e-07
1.39852e-07
1.38693e-07
3.91962e-12
1.78449e-09
2.24634e-12
1.2127e-14
3.07064e-12
1.07033e-12
1.49367e-07
1.50815e-07
1.50812e-07
1.50808e-07
1.50803e-07
1.50799e-07
1.50794e-07
1.50789e-07
1.50784e-07
1.5078e-07
1.50776e-07
1.50772e-07
1.50769e-07
1.49317e-07
1.14162e-12
3.07697e-12
1.21982e-14
1.05167e-15
6.13219e-15
5.34734e-13
7.78647e-08
7.86162e-08
7.86116e-08
7.86063e-08
7.86006e-08
7.85946e-08
7.85885e-08
7.85824e-08
7.85766e-08
7.8571e-08
7.8566e-08
7.85616e-08
7.8558e-08
7.78006e-08
4.86525e-13
6.14314e-15
1.0521e-15
1.00023e-15
1.01332e-15
5.20992e-13
7.98685e-08
8.07025e-08
8.06971e-08
8.06909e-08
8.06843e-08
8.06773e-08
8.06702e-08
8.06631e-08
8.06563e-08
8.06498e-08
8.06439e-08
8.06386e-08
8.06342e-08
7.97929e-08
5.27257e-13
1.01338e-15
1.00024e-15
1e-15
1.00077e-15
2.25084e-13
3.59174e-08
3.62907e-08
3.62867e-08
3.62822e-08
3.62773e-08
3.62722e-08
3.62669e-08
3.62617e-08
3.62567e-08
3.62519e-08
3.62475e-08
3.62435e-08
3.624e-08
3.5861e-08
2.12437e-13
1.00072e-15
1e-15
1e-15
1.0007e-15
2.0155e-13
3.25058e-08
3.28422e-08
3.28386e-08
3.28346e-08
3.28302e-08
3.28256e-08
3.28209e-08
3.28162e-08
3.28117e-08
3.28073e-08
3.28033e-08
3.27996e-08
3.27962e-08
3.24544e-08
1.92704e-13
1.00066e-15
1e-15
1e-15
1.00054e-15
1.64975e-13
2.98671e-08
3.01721e-08
3.01687e-08
3.01648e-08
3.01607e-08
3.01563e-08
3.01518e-08
3.01474e-08
3.0143e-08
3.01388e-08
3.01348e-08
3.01311e-08
3.01278e-08
2.98176e-08
1.70278e-13
1.00055e-15
1e-15
1e-15
1.00044e-15
1.36403e-13
2.3402e-08
2.36315e-08
2.36277e-08
2.36235e-08
2.36189e-08
2.3614e-08
2.36091e-08
2.36042e-08
2.35995e-08
2.3595e-08
2.35908e-08
2.35871e-08
2.35838e-08
2.33489e-08
1.21144e-13
1.00038e-15
1e-15
1e-15
1.00119e-15
3.40242e-13
5.75222e-08
5.80786e-08
5.80738e-08
5.80684e-08
5.80626e-08
5.80565e-08
5.80503e-08
5.80441e-08
5.80381e-08
5.80324e-08
5.80271e-08
5.80224e-08
5.80182e-08
5.7455e-08
3.69107e-13
1.0013e-15
1e-15
1e-15
1.00116e-15
3.2486e-13
4.86026e-08
4.90284e-08
4.90234e-08
4.90177e-08
4.90117e-08
4.90054e-08
4.8999e-08
4.89927e-08
4.89868e-08
4.89812e-08
4.89763e-08
4.89719e-08
4.89683e-08
4.8536e-08
2.754e-13
1.00094e-15
1e-15
1e-15
1.00388e-15
1.02238e-12
1.52265e-07
1.53525e-07
1.53518e-07
1.5351e-07
1.53501e-07
1.53492e-07
1.53483e-07
1.53474e-07
1.53465e-07
1.53458e-07
1.5345e-07
1.53444e-07
1.53439e-07
1.52169e-07
1.15601e-12
1.00446e-15
1e-15
1e-15
1.00464e-15
1.17254e-12
1.48351e-07
1.49427e-07
1.4942e-07
1.49411e-07
1.49402e-07
1.49393e-07
1.49383e-07
1.49374e-07
1.49366e-07
1.49358e-07
1.49351e-07
1.49345e-07
1.4934e-07
1.48255e-07
9.83623e-13
1.00369e-15
1e-15
1e-15
1.01186e-15
2.92124e-12
3.70755e-07
3.73651e-07
3.73651e-07
3.73651e-07
3.73651e-07
3.73651e-07
3.73651e-07
3.73652e-07
3.73653e-07
3.73655e-07
3.73657e-07
3.73658e-07
3.73659e-07
3.70765e-07
3.33304e-12
1.01383e-15
1e-15
1.002e-15
1.09769e-15
3.73307e-12
3.88944e-07
3.91653e-07
3.91679e-07
3.91679e-07
3.91679e-07
3.9168e-07
3.91681e-07
3.91663e-07
3.91683e-07
3.91684e-07
3.91686e-07
3.91688e-07
3.91664e-07
3.88957e-07
3.26526e-12
1.09459e-15
1.00201e-15
1.81242e-13
1.09665e-12
1.64606e-08
3.74576e-08
3.63301e-08
3.2828e-08
3.28283e-08
3.28287e-08
3.28292e-08
3.28298e-08
3.51584e-08
3.28283e-08
3.28289e-08
3.28297e-08
3.28305e-08
3.63284e-08
3.74658e-08
1.64544e-08
1.10677e-12
1.81796e-13
6.29497e-10
1.43949e-08
1.15241e-07
1.3618e-07
1.21145e-07
1.20943e-07
1.2095e-07
1.20958e-07
1.20967e-07
1.20977e-07
1.20937e-07
1.20998e-07
1.21009e-07
1.21021e-07
1.21033e-07
1.2125e-07
1.36312e-07
1.15359e-07
1.43769e-08
6.31171e-10
5.67682e-05
0.000195779
0.000251853
0.000251986
0.000252012
0.000252043
0.000252079
0.000252118
0.00025216
0.000252202
0.000252245
0.000252286
0.000252326
0.000252363
0.000252397
0.000252428
0.000252455
0.000252363
0.000196216
5.69782e-05
3.44678e-07
1.50975e-05
2.46791e-05
2.4669e-05
2.46771e-05
2.46864e-05
2.46971e-05
2.47086e-05
2.47207e-05
2.4733e-05
2.47452e-05
2.47571e-05
2.47683e-05
2.47787e-05
2.47882e-05
2.47965e-05
2.48034e-05
2.48256e-05
1.52101e-05
3.44905e-07
1.51044e-08
7.29978e-08
6.53691e-08
7.30411e-08
6.56394e-08
6.56523e-08
6.56672e-08
6.56837e-08
6.57013e-08
6.57195e-08
6.5738e-08
6.57563e-08
6.57743e-08
6.57913e-08
6.58074e-08
6.5822e-08
7.32473e-08
6.55966e-08
7.297e-08
1.50156e-08
4.31911e-10
1.40507e-08
5.38021e-10
7.53678e-09
5.62044e-09
5.62027e-09
5.62024e-09
5.62021e-09
5.62017e-09
5.62014e-09
5.6201e-09
5.62007e-09
5.62004e-09
5.62e-09
5.61997e-09
5.62006e-09
7.53608e-09
5.38546e-10
1.40827e-08
4.31805e-10
2.80116e-12
3.03771e-09
4.31863e-12
1.65351e-07
1.66749e-07
1.66746e-07
1.66742e-07
1.66737e-07
1.66733e-07
1.66728e-07
1.66723e-07
1.66719e-07
1.66714e-07
1.6671e-07
1.66706e-07
1.66702e-07
1.65299e-07
4.20376e-12
3.04463e-09
2.80815e-12
1.52468e-14
4.24189e-12
1.15927e-12
1.77549e-07
1.79294e-07
1.79291e-07
1.79286e-07
1.79281e-07
1.79276e-07
1.79271e-07
1.79266e-07
1.7926e-07
1.79255e-07
1.79251e-07
1.79246e-07
1.79242e-07
1.77492e-07
1.23553e-12
4.25094e-12
1.53207e-14
1.06524e-15
4.89139e-15
6.05512e-13
1.00224e-07
1.01199e-07
1.01194e-07
1.01188e-07
1.01182e-07
1.01175e-07
1.01168e-07
1.01161e-07
1.01154e-07
1.01147e-07
1.01141e-07
1.01135e-07
1.0113e-07
1.00148e-07
5.57166e-13
4.89921e-15
1.06573e-15
1.00029e-15
1.00462e-15
5.90831e-13
1.03215e-07
1.04276e-07
1.0427e-07
1.04262e-07
1.04254e-07
1.04246e-07
1.04237e-07
1.04229e-07
1.0422e-07
1.04212e-07
1.04204e-07
1.04198e-07
1.04192e-07
1.03122e-07
6.00535e-13
1.00467e-15
1.00029e-15
1e-15
1.00088e-15
2.74609e-13
5.40265e-08
5.45758e-08
5.457e-08
5.45634e-08
5.45562e-08
5.45486e-08
5.45408e-08
5.4533e-08
5.45253e-08
5.45179e-08
5.4511e-08
5.45046e-08
5.4499e-08
5.39407e-08
2.62285e-13
1.00083e-15
1e-15
1e-15
1.00081e-15
2.51542e-13
5.09159e-08
5.14221e-08
5.14168e-08
5.14108e-08
5.14043e-08
5.13975e-08
5.13905e-08
5.13834e-08
5.13765e-08
5.13699e-08
5.13635e-08
5.13576e-08
5.13522e-08
5.08375e-08
2.44373e-13
1.00077e-15
1e-15
1e-15
1.00068e-15
2.29432e-13
5.07787e-08
5.12773e-08
5.12725e-08
5.1267e-08
5.12611e-08
5.12548e-08
5.12482e-08
5.12416e-08
5.1235e-08
5.12287e-08
5.12225e-08
5.12167e-08
5.12114e-08
5.07046e-08
2.41818e-13
1.00071e-15
1e-15
1e-15
1.00061e-15
2.07316e-13
4.43099e-08
4.47317e-08
4.47268e-08
4.47212e-08
4.47152e-08
4.47087e-08
4.47021e-08
4.46954e-08
4.46888e-08
4.46824e-08
4.46763e-08
4.46707e-08
4.46656e-08
4.42358e-08
1.88607e-13
1.00054e-15
1e-15
1e-15
1.00147e-15
4.60456e-13
9.23401e-08
9.32262e-08
9.32198e-08
9.32126e-08
9.32048e-08
9.31964e-08
9.31879e-08
9.31792e-08
9.31707e-08
9.31625e-08
9.31547e-08
9.31474e-08
9.31408e-08
9.22445e-08
5.12224e-13
1.00164e-15
1e-15
1e-15
1.00154e-15
4.74623e-13
8.5792e-08
8.65516e-08
8.65454e-08
8.65384e-08
8.65307e-08
8.65226e-08
8.65143e-08
8.6506e-08
8.64979e-08
8.64902e-08
8.64829e-08
8.64762e-08
8.64703e-08
8.57011e-08
4.15213e-13
1.00129e-15
1e-15
1e-15
1.00434e-15
1.2151e-12
2.03489e-07
2.05318e-07
2.05312e-07
2.05305e-07
2.05297e-07
2.05288e-07
2.0528e-07
2.05271e-07
2.05263e-07
2.05255e-07
2.05247e-07
2.0524e-07
2.05234e-07
2.03394e-07
1.3999e-12
1.00511e-15
1e-15
1e-15
1.00509e-15
1.37297e-12
1.99733e-07
2.01411e-07
2.01404e-07
2.01396e-07
2.01388e-07
2.0138e-07
2.01371e-07
2.01363e-07
2.01354e-07
2.01347e-07
2.01339e-07
2.01333e-07
2.01326e-07
1.99638e-07
1.19321e-12
1.00424e-15
1e-15
1e-15
1.01239e-15
3.15844e-12
4.26614e-07
4.30057e-07
4.30059e-07
4.30061e-07
4.30063e-07
4.30065e-07
4.30068e-07
4.30071e-07
4.30075e-07
4.30079e-07
4.30082e-07
4.30085e-07
4.30087e-07
4.26648e-07
3.65324e-12
1.01464e-15
1e-15
1.0017e-15
1.09384e-15
4.08073e-12
4.4303e-07
4.46332e-07
4.46353e-07
4.46356e-07
4.46358e-07
4.46361e-07
4.46364e-07
4.46352e-07
4.46371e-07
4.46374e-07
4.46378e-07
4.46381e-07
4.46363e-07
4.43064e-07
3.64195e-12
1.09121e-15
1.0017e-15
1.41049e-13
8.93854e-13
1.57712e-08
3.25584e-08
3.07682e-08
2.82994e-08
2.82989e-08
2.82984e-08
2.82977e-08
2.82971e-08
3.0406e-08
2.82941e-08
2.82933e-08
2.82926e-08
2.8292e-08
3.07644e-08
3.2554e-08
1.57611e-08
9.06052e-13
1.41378e-13
4.90642e-10
1.42082e-08
1.1119e-07
1.32911e-07
1.18648e-07
1.18494e-07
1.18492e-07
1.1849e-07
1.18487e-07
1.18484e-07
1.18713e-07
1.18478e-07
1.18475e-07
1.18472e-07
1.18469e-07
1.18618e-07
1.32872e-07
1.11154e-07
1.42037e-08
4.90878e-10
4.66147e-05
0.000196043
0.000253573
0.000253699
0.000253728
0.000253763
0.000253804
0.000253848
0.000253895
0.000253943
0.000253992
0.000254039
0.000254085
0.000254128
0.000254168
0.000254205
0.000254237
0.000254158
0.000196544
4.68359e-05
3.17522e-07
8.19444e-06
1.40888e-05
1.40907e-05
1.40949e-05
1.40998e-05
1.41054e-05
1.41115e-05
1.4118e-05
1.41245e-05
1.41312e-05
1.41376e-05
1.41438e-05
1.41497e-05
1.4155e-05
1.41599e-05
1.41638e-05
1.41684e-05
8.24363e-06
3.17733e-07
8.04129e-09
2.86126e-08
1.41124e-07
1.50114e-07
1.4176e-07
1.41783e-07
1.41809e-07
1.41838e-07
1.41869e-07
1.419e-07
1.41931e-07
1.41962e-07
1.41991e-07
1.42018e-07
1.42044e-07
1.42066e-07
1.50458e-07
1.41501e-07
2.86584e-08
7.96839e-09
4.83269e-10
1.95422e-10
7.61582e-10
8.10806e-09
6.00177e-09
6.00162e-09
6.00163e-09
6.00165e-09
6.00167e-09
6.00169e-09
6.00172e-09
6.00174e-09
6.00177e-09
6.00178e-09
6.0018e-09
6.00197e-09
8.10812e-09
7.62519e-10
1.95705e-10
4.81795e-10
3.57032e-12
9.25146e-13
5.4427e-12
1.75315e-07
1.76816e-07
1.76813e-07
1.76809e-07
1.76805e-07
1.76801e-07
1.76796e-07
1.76791e-07
1.76787e-07
1.76782e-07
1.76778e-07
1.76774e-07
1.7677e-07
1.75264e-07
5.33219e-12
9.26119e-13
3.57067e-12
1.94764e-14
6.70452e-15
1.19303e-12
1.88298e-07
1.90183e-07
1.9018e-07
1.90176e-07
1.90172e-07
1.90167e-07
1.90162e-07
1.90158e-07
1.90153e-07
1.90148e-07
1.90144e-07
1.9014e-07
1.90136e-07
1.88247e-07
1.27093e-12
6.70755e-15
1.95305e-14
1.0825e-15
1.03242e-15
6.41815e-13
1.10377e-07
1.11462e-07
1.11458e-07
1.11452e-07
1.11447e-07
1.1144e-07
1.11434e-07
1.11427e-07
1.11421e-07
1.11414e-07
1.11408e-07
1.11403e-07
1.11398e-07
1.10306e-07
5.955e-13
1.03224e-15
1.08297e-15
1.00034e-15
1.00242e-15
6.23862e-13
1.12926e-07
1.1409e-07
1.14084e-07
1.14076e-07
1.14069e-07
1.1406e-07
1.14052e-07
1.14043e-07
1.14035e-07
1.14026e-07
1.14019e-07
1.14012e-07
1.14006e-07
1.12833e-07
6.36478e-13
1.00248e-15
1.00034e-15
1e-15
1.00098e-15
3.06374e-13
6.23287e-08
6.29634e-08
6.29575e-08
6.29507e-08
6.29433e-08
6.29355e-08
6.29274e-08
6.29192e-08
6.29112e-08
6.29034e-08
6.2896e-08
6.28891e-08
6.28828e-08
6.22385e-08
2.96312e-13
1.00093e-15
1e-15
1e-15
1.00091e-15
2.84922e-13
5.92605e-08
5.98473e-08
5.98416e-08
5.98354e-08
5.98285e-08
5.98212e-08
5.98138e-08
5.98063e-08
5.97988e-08
5.97916e-08
5.97847e-08
5.97782e-08
5.97721e-08
5.9176e-08
2.78854e-13
1.00088e-15
1e-15
1e-15
1.0008e-15
2.64448e-13
6.0146e-08
6.07341e-08
6.07288e-08
6.07229e-08
6.07164e-08
6.07095e-08
6.07023e-08
6.0695e-08
6.06877e-08
6.06805e-08
6.06735e-08
6.06669e-08
6.06607e-08
6.00635e-08
2.80723e-13
1.00084e-15
1e-15
1e-15
1.00073e-15
2.46238e-13
5.40555e-08
5.45684e-08
5.45634e-08
5.45578e-08
5.45516e-08
5.4545e-08
5.45381e-08
5.45312e-08
5.45242e-08
5.45174e-08
5.45108e-08
5.45045e-08
5.44987e-08
5.39772e-08
2.27939e-13
1.00066e-15
1e-15
1e-15
1.00167e-15
5.18931e-13
1.06755e-07
1.07785e-07
1.07778e-07
1.07771e-07
1.07762e-07
1.07753e-07
1.07744e-07
1.07735e-07
1.07726e-07
1.07716e-07
1.07708e-07
1.07699e-07
1.07692e-07
1.0665e-07
5.81852e-13
1.0019e-15
1e-15
1e-15
1.00179e-15
5.50018e-13
1.02479e-07
1.034e-07
1.03394e-07
1.03387e-07
1.0338e-07
1.03372e-07
1.03363e-07
1.03355e-07
1.03347e-07
1.03338e-07
1.0333e-07
1.03323e-07
1.03316e-07
1.02384e-07
4.90528e-13
1.00155e-15
1e-15
1e-15
1.00458e-15
1.30368e-12
2.22419e-07
2.24507e-07
2.24502e-07
2.24495e-07
2.24488e-07
2.2448e-07
2.24472e-07
2.24464e-07
2.24457e-07
2.24449e-07
2.24441e-07
2.24434e-07
2.24426e-07
2.22327e-07
1.51605e-12
1.00553e-15
1e-15
1e-15
1.00523e-15
1.45088e-12
2.19498e-07
2.21454e-07
2.21449e-07
2.21443e-07
2.21436e-07
2.21429e-07
2.21421e-07
2.21414e-07
2.21406e-07
2.21399e-07
2.21391e-07
2.21384e-07
2.21377e-07
2.1941e-07
1.29422e-12
1.00453e-15
1e-15
1e-15
1.01243e-15
3.1976e-12
4.38594e-07
4.42216e-07
4.42218e-07
4.4222e-07
4.42222e-07
4.42224e-07
4.42226e-07
4.42229e-07
4.42232e-07
4.42236e-07
4.42239e-07
4.42242e-07
4.42243e-07
4.38623e-07
3.72433e-12
1.01501e-15
1e-15
1.00208e-15
1.09056e-15
4.07711e-12
4.5164e-07
4.55248e-07
4.55266e-07
4.55269e-07
4.55272e-07
4.55275e-07
4.55278e-07
4.55272e-07
4.55285e-07
4.55289e-07
4.55292e-07
4.55294e-07
4.5528e-07
4.51674e-07
3.68675e-12
1.08848e-15
1.00208e-15
1.50037e-13
8.45663e-13
1.52302e-08
2.63546e-08
2.50166e-08
2.20969e-08
2.20967e-08
2.20965e-08
2.20962e-08
2.2096e-08
2.4099e-08
2.20935e-08
2.20933e-08
2.20932e-08
2.20931e-08
2.50077e-08
2.6335e-08
1.52285e-08
8.58983e-13
1.5029e-13
5.37926e-10
1.36953e-08
1.13558e-07
1.35474e-07
1.20816e-07
1.20685e-07
1.20683e-07
1.20681e-07
1.20679e-07
1.20677e-07
1.20786e-07
1.20673e-07
1.20671e-07
1.20669e-07
1.20668e-07
1.20797e-07
1.35449e-07
1.13532e-07
1.36938e-08
5.37348e-10
3.49475e-05
0.00014034
0.000185022
0.000185169
0.000185189
0.000185212
0.00018524
0.000185271
0.000185305
0.00018534
0.000185375
0.000185412
0.000185448
0.000185483
0.000185517
0.000185549
0.000185577
0.000185468
0.000140723
3.50739e-05
2.96706e-07
7.27709e-06
1.26284e-05
1.26287e-05
1.26321e-05
1.26362e-05
1.26408e-05
1.26458e-05
1.26511e-05
1.26566e-05
1.26621e-05
1.26676e-05
1.26728e-05
1.26778e-05
1.26824e-05
1.26865e-05
1.269e-05
1.26952e-05
7.31674e-06
2.96933e-07
6.12187e-10
4.26023e-08
6.91532e-08
8.09497e-08
6.96649e-08
6.96675e-08
6.96708e-08
6.96747e-08
6.96789e-08
6.96833e-08
6.9688e-08
6.96927e-08
6.96975e-08
6.9702e-08
6.97065e-08
6.9711e-08
8.10032e-08
6.92107e-08
4.2704e-08
6.08866e-10
2.60325e-10
1.99472e-10
4.30857e-10
8.23838e-09
5.94358e-09
5.94337e-09
5.94336e-09
5.94335e-09
5.94335e-09
5.94335e-09
5.94335e-09
5.94335e-09
5.94335e-09
5.94335e-09
5.94335e-09
5.94357e-09
8.23842e-09
4.30915e-10
1.99725e-10
2.5734e-10
1.59978e-12
1.08489e-12
4.00502e-12
1.83152e-07
1.84773e-07
1.84771e-07
1.84768e-07
1.84764e-07
1.84761e-07
1.84757e-07
1.84753e-07
1.84749e-07
1.84745e-07
1.84742e-07
1.84738e-07
1.84734e-07
1.83108e-07
3.91194e-12
1.0856e-12
1.5833e-12
7.94888e-15
7.37054e-15
1.20946e-12
1.92923e-07
1.94876e-07
1.94874e-07
1.94871e-07
1.94867e-07
1.94863e-07
1.94859e-07
1.94855e-07
1.94851e-07
1.94847e-07
1.94843e-07
1.9484e-07
1.94836e-07
1.92878e-07
1.28521e-12
7.37285e-15
7.88584e-15
1.0269e-15
1.04108e-15
6.67017e-13
1.18262e-07
1.19472e-07
1.19469e-07
1.19466e-07
1.19463e-07
1.19459e-07
1.19455e-07
1.19451e-07
1.19447e-07
1.19442e-07
1.19438e-07
1.19434e-07
1.19431e-07
1.18215e-07
6.25632e-13
1.04091e-15
1.02671e-15
1.00009e-15
1.00252e-15
6.59923e-13
1.21293e-07
1.22575e-07
1.2257e-07
1.22565e-07
1.22559e-07
1.22553e-07
1.22546e-07
1.2254e-07
1.22533e-07
1.22526e-07
1.2252e-07
1.22514e-07
1.22509e-07
1.2122e-07
6.74395e-13
1.00258e-15
1.00009e-15
1e-15
1.00109e-15
3.48746e-13
7.26433e-08
7.34041e-08
7.33988e-08
7.33927e-08
7.3386e-08
7.33789e-08
7.33715e-08
7.33639e-08
7.33563e-08
7.33488e-08
7.33415e-08
7.33345e-08
7.33281e-08
7.25578e-08
3.41589e-13
1.00106e-15
1e-15
1e-15
1.00106e-15
3.3373e-13
7.0318e-08
7.10237e-08
7.10182e-08
7.10121e-08
7.10055e-08
7.09986e-08
7.09913e-08
7.09841e-08
7.09767e-08
7.09695e-08
7.09623e-08
7.09555e-08
7.09491e-08
7.02338e-08
3.28736e-13
1.00103e-15
1e-15
1e-15
1.00096e-15
3.23224e-13
7.30438e-08
7.37762e-08
7.37712e-08
7.37657e-08
7.37595e-08
7.3753e-08
7.37462e-08
7.37392e-08
7.3732e-08
7.37249e-08
7.37179e-08
7.3711e-08
7.37046e-08
7.2963e-08
3.43532e-13
1.00102e-15
1e-15
1e-15
1.0009e-15
3.03907e-13
6.73302e-08
6.79912e-08
6.79866e-08
6.79812e-08
6.79754e-08
6.79691e-08
6.79626e-08
6.79558e-08
6.7949e-08
6.79421e-08
6.79354e-08
6.79288e-08
6.79227e-08
6.7253e-08
2.85796e-13
1.00083e-15
1e-15
1e-15
1.0019e-15
6.00349e-13
1.21544e-07
1.22732e-07
1.22726e-07
1.2272e-07
1.22713e-07
1.22706e-07
1.22698e-07
1.2269e-07
1.22681e-07
1.22673e-07
1.22665e-07
1.22656e-07
1.22649e-07
1.21449e-07
6.73161e-13
1.00218e-15
1e-15
1e-15
1.00202e-15
6.28834e-13
1.18207e-07
1.19335e-07
1.19329e-07
1.19323e-07
1.19317e-07
1.1931e-07
1.19302e-07
1.19294e-07
1.19286e-07
1.19278e-07
1.19271e-07
1.19263e-07
1.19255e-07
1.18117e-07
5.7597e-13
1.00181e-15
1e-15
1e-15
1.00469e-15
1.35442e-12
2.29812e-07
2.32048e-07
2.32043e-07
2.32038e-07
2.32032e-07
2.32025e-07
2.32019e-07
2.32011e-07
2.32004e-07
2.31997e-07
2.3199e-07
2.31983e-07
2.31975e-07
2.29728e-07
1.5725e-12
1.0057e-15
1e-15
1e-15
1.00527e-15
1.48536e-12
2.2852e-07
2.30632e-07
2.30627e-07
2.30622e-07
2.30616e-07
2.30609e-07
2.30603e-07
2.30596e-07
2.30589e-07
2.30582e-07
2.30575e-07
2.30567e-07
2.3056e-07
2.28437e-07
1.35163e-12
1.00469e-15
1e-15
1e-15
1.01167e-15
3.1534e-12
4.33242e-07
4.37142e-07
4.37144e-07
4.37146e-07
4.37148e-07
4.3715e-07
4.37152e-07
4.37154e-07
4.37157e-07
4.3716e-07
4.37161e-07
4.37162e-07
4.37161e-07
4.33262e-07
3.70372e-12
1.01459e-15
1e-15
1.00176e-15
1.08445e-15
3.8802e-12
4.50769e-07
4.54588e-07
4.54591e-07
4.54594e-07
4.54597e-07
4.54599e-07
4.54602e-07
4.54606e-07
4.54608e-07
4.54611e-07
4.54613e-07
4.54614e-07
4.54613e-07
4.50794e-07
3.64148e-12
1.08343e-15
1.00176e-15
1.13775e-13
7.38157e-13
1.25145e-08
2.57756e-08
2.51382e-08
2.23926e-08
2.23927e-08
2.23929e-08
2.23931e-08
2.23933e-08
2.41414e-08
2.23916e-08
2.23919e-08
2.23922e-08
2.23926e-08
2.51315e-08
2.5783e-08
1.25216e-08
7.53274e-13
1.14063e-13
3.57788e-10
1.25469e-08
9.21008e-08
1.09027e-07
9.70106e-08
9.68426e-08
9.68443e-08
9.68461e-08
9.68479e-08
9.68499e-08
9.69182e-08
9.68546e-08
9.68574e-08
9.68607e-08
9.68643e-08
9.70371e-08
1.09063e-07
9.21372e-08
1.25554e-08
3.59303e-10
3.12614e-05
0.000129086
0.000170401
0.000170533
0.000170549
0.000170569
0.000170593
0.000170619
0.000170648
0.000170678
0.00017071
0.000170742
0.000170774
0.000170807
0.000170838
0.000170868
0.000170895
0.000170798
0.000129427
3.14045e-05
2.62739e-07
4.09177e-06
7.80918e-06
7.80686e-06
7.80909e-06
7.81159e-06
7.81448e-06
7.81765e-06
7.82102e-06
7.82454e-06
7.82809e-06
7.83164e-06
7.83507e-06
7.83837e-06
7.8414e-06
7.84417e-06
7.84643e-06
7.8524e-06
4.11647e-06
2.63038e-07
1.57668e-09
2.69472e-08
7.71568e-08
8.90298e-08
7.73741e-08
7.73806e-08
7.73888e-08
7.73979e-08
7.74076e-08
7.74177e-08
7.74281e-08
7.74384e-08
7.74486e-08
7.74582e-08
7.74673e-08
7.74761e-08
8.91454e-08
7.72834e-08
2.70174e-08
1.58489e-09
3.27544e-11
1.54599e-10
4.98377e-10
8.45549e-09
6.04e-09
6.0398e-09
6.03981e-09
6.03983e-09
6.03985e-09
6.03987e-09
6.0399e-09
6.03992e-09
6.03995e-09
6.03997e-09
6.03998e-09
6.04027e-09
8.45588e-09
4.98654e-10
1.54735e-10
3.21865e-11
7.80989e-14
9.52546e-13
4.37376e-12
1.79134e-07
1.80778e-07
1.80776e-07
1.80774e-07
1.80772e-07
1.8077e-07
1.80767e-07
1.80764e-07
1.80761e-07
1.80758e-07
1.80755e-07
1.80752e-07
1.80748e-07
1.79101e-07
4.28966e-12
9.52903e-13
7.52477e-14
1.39942e-15
6.92419e-15
1.16613e-12
1.89321e-07
1.91301e-07
1.913e-07
1.91299e-07
1.91296e-07
1.91294e-07
1.91291e-07
1.91288e-07
1.91286e-07
1.91283e-07
1.9128e-07
1.91276e-07
1.91273e-07
1.89288e-07
1.23192e-12
6.9252e-15
1.38955e-15
1.0014e-15
1.03896e-15
6.78436e-13
1.20923e-07
1.2219e-07
1.22188e-07
1.22186e-07
1.22183e-07
1.2218e-07
1.22177e-07
1.22173e-07
1.2217e-07
1.22167e-07
1.22163e-07
1.2216e-07
1.22156e-07
1.20885e-07
6.41237e-13
1.03881e-15
1.00136e-15
1e-15
1.00254e-15
6.71773e-13
1.24078e-07
1.2541e-07
1.25406e-07
1.25402e-07
1.25397e-07
1.25391e-07
1.25386e-07
1.2538e-07
1.25374e-07
1.25368e-07
1.25363e-07
1.25357e-07
1.25352e-07
1.24013e-07
6.86588e-13
1.00261e-15
1e-15
1e-15
1.00116e-15
3.70182e-13
7.71755e-08
7.79983e-08
7.79932e-08
7.79874e-08
7.7981e-08
7.79742e-08
7.79671e-08
7.79597e-08
7.79523e-08
7.79449e-08
7.79376e-08
7.79306e-08
7.7924e-08
7.70918e-08
3.64993e-13
1.00114e-15
1e-15
1e-15
1.00113e-15
3.56315e-13
7.50729e-08
7.58342e-08
7.58287e-08
7.58226e-08
7.5816e-08
7.58091e-08
7.58019e-08
7.57946e-08
7.57872e-08
7.57799e-08
7.57726e-08
7.57656e-08
7.5759e-08
7.4988e-08
3.51408e-13
1.00111e-15
1e-15
1e-15
1.00106e-15
3.50935e-13
7.85778e-08
7.93803e-08
7.93755e-08
7.93701e-08
7.93641e-08
7.93578e-08
7.93511e-08
7.93442e-08
7.93372e-08
7.93302e-08
7.93231e-08
7.93163e-08
7.93099e-08
7.84984e-08
3.72145e-13
1.00113e-15
1e-15
1e-15
1.00101e-15
3.36559e-13
7.36967e-08
7.44375e-08
7.44334e-08
7.44286e-08
7.44234e-08
7.44177e-08
7.44118e-08
7.44056e-08
7.43993e-08
7.43928e-08
7.43865e-08
7.43801e-08
7.43743e-08
7.36252e-08
3.20204e-13
1.00095e-15
1e-15
1e-15
1.00205e-15
6.40173e-13
1.28986e-07
1.30305e-07
1.303e-07
1.30294e-07
1.30287e-07
1.30279e-07
1.30272e-07
1.30263e-07
1.30255e-07
1.30247e-07
1.30239e-07
1.30231e-07
1.30223e-07
1.28893e-07
7.14726e-13
1.00234e-15
1e-15
1e-15
1.00216e-15
6.68304e-13
1.25496e-07
1.26718e-07
1.26713e-07
1.26707e-07
1.26701e-07
1.26695e-07
1.26688e-07
1.2668e-07
1.26673e-07
1.26665e-07
1.26658e-07
1.2665e-07
1.26643e-07
1.25411e-07
6.20786e-13
1.00198e-15
1e-15
1e-15
1.00472e-15
1.36424e-12
2.31052e-07
2.33354e-07
2.33349e-07
2.33344e-07
2.33339e-07
2.33332e-07
2.33326e-07
2.33319e-07
2.33313e-07
2.33306e-07
2.33299e-07
2.33291e-07
2.33284e-07
2.30972e-07
1.57423e-12
1.00571e-15
1e-15
1e-15
1.00526e-15
1.48334e-12
2.29549e-07
2.3175e-07
2.31746e-07
2.31741e-07
2.31737e-07
2.31731e-07
2.31725e-07
2.31719e-07
2.31712e-07
2.31706e-07
2.31699e-07
2.31691e-07
2.31684e-07
2.29473e-07
1.37011e-12
1.00477e-15
1e-15
1e-15
1.01042e-15
2.82489e-12
3.95341e-07
3.99228e-07
3.99232e-07
3.99235e-07
3.99239e-07
3.99242e-07
3.99247e-07
3.99251e-07
3.99256e-07
3.9926e-07
3.99264e-07
3.99267e-07
3.99268e-07
3.95384e-07
3.31373e-12
1.01311e-15
1e-15
1.00235e-15
1.09083e-15
3.24434e-12
4.06989e-07
4.1085e-07
4.10857e-07
4.10861e-07
4.10865e-07
4.1087e-07
4.10875e-07
4.10877e-07
4.10885e-07
4.10889e-07
4.10893e-07
4.10896e-07
4.10894e-07
4.07037e-07
3.08547e-12
1.09023e-15
1.00236e-15
7.91836e-14
6.26048e-13
1.11488e-08
1.9114e-08
1.79986e-08
1.59826e-08
1.59826e-08
1.59826e-08
1.59826e-08
1.59826e-08
1.75418e-08
1.59808e-08
1.59808e-08
1.59809e-08
1.59811e-08
1.78941e-08
1.91133e-08
1.11473e-08
6.41947e-13
7.93805e-14
2.56356e-10
1.22003e-08
7.92964e-08
9.4048e-08
8.35443e-08
8.35228e-08
8.35235e-08
8.35241e-08
8.35246e-08
8.35251e-08
8.35655e-08
8.35264e-08
8.35273e-08
8.35288e-08
8.35308e-08
8.35537e-08
9.40647e-08
7.93144e-08
1.22022e-08
2.56909e-10
2.33521e-05
0.000103154
0.000137809
0.000137929
0.000137941
0.000137954
0.000137971
0.000137989
0.00013801
0.000138032
0.000138055
0.000138079
0.000138104
0.000138128
0.000138153
0.000138177
0.000138198
0.000138105
0.000103409
2.34539e-05
2.10736e-07
3.35555e-06
6.48334e-06
6.47711e-06
6.47876e-06
6.48066e-06
6.48286e-06
6.48529e-06
6.48788e-06
6.4906e-06
6.49336e-06
6.49614e-06
6.49885e-06
6.50146e-06
6.50386e-06
6.50606e-06
6.5079e-06
6.51697e-06
3.3762e-06
2.1103e-07
1.9207e-09
3.28261e-08
7.99626e-08
9.1611e-08
8.0091e-08
8.00976e-08
8.01058e-08
8.0115e-08
8.01247e-08
8.01349e-08
8.01453e-08
8.01557e-08
8.01658e-08
8.01754e-08
8.01844e-08
8.01931e-08
9.17273e-08
8.00891e-08
3.29125e-08
1.92672e-09
1.59498e-12
1.75704e-10
4.93181e-10
8.51475e-09
6.04807e-09
6.04788e-09
6.04791e-09
6.04794e-09
6.04798e-09
6.04802e-09
6.04806e-09
6.0481e-09
6.04814e-09
6.04818e-09
6.0482e-09
6.04859e-09
8.51537e-09
4.93491e-10
1.75911e-10
1.57656e-12
2.18932e-14
9.49414e-13
4.04302e-12
1.81202e-07
1.82927e-07
1.82926e-07
1.82925e-07
1.82924e-07
1.82922e-07
1.82921e-07
1.82919e-07
1.82917e-07
1.82914e-07
1.82912e-07
1.82909e-07
1.82906e-07
1.81177e-07
3.97248e-12
9.50013e-13
2.19535e-14
1.07633e-15
6.16663e-15
1.16691e-12
1.89679e-07
1.91715e-07
1.91716e-07
1.91715e-07
1.91714e-07
1.91713e-07
1.91712e-07
1.91711e-07
1.91709e-07
1.91708e-07
1.91706e-07
1.91703e-07
1.917e-07
1.8966e-07
1.22503e-12
6.16912e-15
1.07629e-15
1.00033e-15