/*--------------------------------*- C++ -*----------------------------------*\
| =========                 |                                                 |
| \\      /  F ield         | OpenFOAM: The Open Source CFD Toolbox           |
|  \\    /   O peration     | Version:  2212                                  |
|   \\  /    A nd           | Website:  www.openfoam.com                      |
|    \\/     M anipulation  |                                                 |
\*---------------------------------------------------------------------------*/
FoamFile
{
    version     2.0;
    format      ascii;
    arch        "LSB;label=32;scalar=64";
    class       surfaceScalarField;
    location    "0.00261";
    object      phi;
}
// * * * * * * * * * * * * * * * * * * * * * * * * * * * * * * * * * * * * * //

dimensions      [1 0 -1 0 0 0 0];

oriented        oriented;

internalField   nonuniform List<scalar> 
5190
(
-2.743e-05
-2.27519e-05
2.67725e-05
2.32337e-05
2.94077e-05
3.56041e-05
-4.62863e-05
-3.41865e-05
-9.90377e-06
-6.04341e-05
5.47641e-06
4.83612e-05
-9.29854e-06
7.96755e-06
1.75315e-06
1.52633e-07
9.26631e-05
1.35713e-05
-0.00012076
-1.16402e-05
-5.12512e-05
3.64573e-05
4.15047e-05
-4.71983e-05
-1.44047e-06
3.26751e-06
1.54463e-06
-2.77291e-06
-3.36469e-06
3.48892e-06
-7.47827e-06
7.97953e-06
8.49129e-06
-8.20204e-06
-4.08808e-06
4.40851e-06
8.81521e-06
-4.85772e-06
5.13946e-06
-2.89927e-06
2.27537e-06
-8.01122e-06
-9.88509e-06
8.61521e-06
-8.23152e-06
9.86831e-06
8.01233e-06
-9.97268e-06
-7.53361e-06
-1.51833e-05
1.47294e-05
-1.22467e-05
1.24793e-05
-9.98108e-06
-8.76457e-06
1.103e-05
8.09256e-06
-1.26777e-05
-1.11612e-05
1.24637e-05
1.17146e-05
-1.20118e-05
-1.18875e-05
1.29942e-05
1.08427e-05
7.68218e-06
-3.62152e-06
3.12749e-06
-6.74366e-06
7.68261e-06
-4.03653e-06
4.5239e-06
-4.70158e-06
6.43403e-06
6.46673e-06
1.05193e-05
-3.76198e-06
4.57747e-06
-1.07829e-05
-1.0432e-05
1.03469e-05
-7.18652e-06
7.69237e-06
-1.05163e-05
-6.20656e-06
6.75132e-06
-5.2442e-06
5.76108e-06
-1.0187e-05
9.17305e-06
8.55054e-06
-6.48969e-06
7.3677e-06
-4.02249e-06
8.12353e-06
-7.38872e-06
-2.95984e-06
-4.15649e-06
6.36583e-06
-7.826e-06
7.91656e-06
-4.33964e-06
-4.01994e-06
-8.62534e-06
9.59279e-06
-4.23624e-06
-4.36609e-06
4.10543e-06
-9.84899e-06
9.92645e-06
-5.80759e-06
-4.98755e-06
-6.78975e-06
1.22668e-05
-5.95833e-06
7.31631e-06
-1.30738e-05
1.18727e-05
-8.15379e-06
9.10985e-06
-9.66348e-06
1.19708e-05
1.01426e-05
1.07461e-05
-1.07932e-05
-9.06473e-06
1.06361e-05
-1.14811e-05
1.2209e-05
1.0851e-05
-9.90007e-06
-6.40457e-06
-7.57013e-06
9.059e-06
-9.01675e-06
-6.32597e-06
6.8317e-06
-6.22334e-06
5.87798e-06
3.08205e-05
4.19698e-05
-5.31377e-05
-3.08776e-05
-5.54081e-06
5.94597e-06
-7.80979e-06
-3.59769e-06
3.83608e-06
-2.15005e-06
-6.52881e-06
7.2796e-06
2.02426e-06
7.30971e-06
-6.76778e-06
-2.96542e-06
3.00916e-06
-3.24226e-06
1.07873e-05
1.24374e-05
-1.18872e-05
-1.24283e-05
1.22485e-05
-7.72413e-06
3.55017e-06
8.27322e-06
-7.21255e-06
-3.10423e-06
3.17756e-06
9.36262e-06
-9.37027e-06
-7.09868e-06
9.27493e-06
-7.75705e-06
-2.34024e-06
-6.79289e-06
2.38901e-06
-2.70232e-06
2.75315e-06
-6.25378e-06
-6.53399e-06
7.02169e-06
-2.87741e-06
-2.61425e-06
-6.05096e-06
-8.41174e-06
8.93745e-06
4.53016e-06
3.18288e-06
-1.07241e-05
1.06701e-05
5.24729e-06
5.24808e-06
-1.09121e-05
1.10607e-05
7.04139e-06
6.03104e-06
-1.09661e-05
1.00226e-05
9.8975e-06
8.21186e-06
-6.52064e-07
-1.89912e-06
2.56229e-06
4.78862e-07
1.22197e-05
7.36641e-06
1.25281e-05
-1.21574e-05
1.02416e-05
1.10617e-05
1.16497e-05
8.04535e-06
-1.18245e-05
9.08761e-06
-8.58469e-06
1.0103e-05
-2.93662e-07
1.26383e-06
-5.87757e-07
1.89966e-07
-1.05278e-05
1.30436e-05
-1.80057e-05
1.30736e-05
-9.78359e-05
-1.20096e-05
7.54675e-05
-7.1687e-06
7.29468e-06
-3.61289e-06
7.37995e-06
-6.95979e-06
-2.75504e-06
-3.36748e-06
-7.52636e-06
7.84061e-06
-4.17759e-06
-3.75822e-06
-8.09971e-06
8.8325e-06
-4.46257e-06
-4.1461e-06
-9.17861e-06
9.35385e-06
-5.46455e-06
-4.80716e-06
-6.32144e-06
8.7477e-06
-9.5191e-06
-7.78844e-06
-8.23723e-06
5.99052e-06
9.58476e-06
-9.16009e-06
-6.29753e-06
-6.99334e-06
8.88391e-06
-8.82929e-06
-5.80253e-06
-5.94692e-06
8.60105e-06
-8.40233e-06
-4.46673e-06
-5.17267e-06
7.94728e-06
-7.52124e-06
-3.41184e-06
-3.95045e-06
-3.13737e-06
-2.80256e-06
2.85672e-06
-6.69414e-06
6.981e-06
-6.45854e-06
9.38248e-06
-8.28531e-06
-8.09357e-06
9.95576e-06
1.41034e-05
-1.56169e-05
-9.00337e-06
1.23251e-05
-1.02949e-05
1.21782e-05
-6.42342e-06
-2.23259e-06
-6.30312e-06
6.75552e-06
-2.75302e-06
-5.84135e-06
-2.49127e-06
1.41386e-05
-1.46098e-05
1.07523e-05
-1.14936e-05
1.38571e-05
1.19665e-05
-1.04866e-05
1.33573e-05
-1.15108e-05
1.23455e-05
9.29947e-06
-8.4735e-06
-7.54219e-06
7.10968e-06
-7.20465e-06
9.25204e-06
1.17278e-05
-1.32832e-05
1.02386e-05
-7.72227e-06
-6.88969e-06
7.46875e-06
2.83252e-06
2.53716e-06
-2.54381e-06
-6.11489e-06
2.50742e-06
-6.3036e-06
9.80647e-06
7.78292e-06
-1.00744e-05
-7.12243e-06
1.49278e-05
-1.32622e-05
-1.36417e-05
1.20688e-05
-1.27544e-05
1.20445e-05
-0.00018282
-4.45985e-05
9.90726e-05
9.98991e-05
9.12123e-06
-8.85055e-06
9.5812e-06
1.06687e-05
1.18336e-05
2.12035e-06
-2.01029e-06
-5.89601e-06
4.33261e-05
-5.5416e-05
-1.36228e-05
-6.18931e-06
2.13422e-05
1.47418e-05
-2.19431e-05
-1.49928e-05
1.58479e-05
-1.29924e-05
1.1728e-05
-8.93798e-06
8.66044e-06
2.59165e-06
2.29203e-06
-8.3526e-06
-9.08707e-06
9.9171e-06
4.24708e-06
3.30952e-06
-1.08205e-05
1.11776e-05
5.42453e-06
4.89083e-06
-1.15305e-05
1.1858e-05
7.11321e-06
6.13925e-06
-1.21388e-05
1.27518e-05
9.68251e-06
8.32675e-06
1.07672e-05
1.28959e-05
-1.26912e-05
1.02282e-05
1.12947e-05
1.24082e-05
8.14873e-06
-1.21938e-05
9.04114e-06
-1.17369e-05
1.6223e-05
7.29918e-06
-1.73371e-05
1.2832e-05
-2.13245e-05
1.1928e-05
-8.03935e-06
3.55571e-06
8.60632e-06
3.16124e-06
-6.51144e-06
6.8726e-06
-2.50289e-06
6.08619e-06
-1.78731e-06
-5.68241e-06
-2.0269e-06
-7.02089e-06
7.19183e-06
-3.23898e-06
-2.94263e-06
-7.40984e-06
7.49987e-06
-3.77993e-06
-3.46528e-06
-7.9954e-06
8.18988e-06
-4.15867e-06
-4.15836e-06
-8.66242e-06
8.74913e-06
-5.00124e-06
-4.75169e-06
-8.85698e-06
8.71295e-06
-6.4587e-06
-5.88102e-06
-8.65366e-06
8.58978e-06
-7.78544e-06
-7.24977e-06
-1.31246e-05
1.18074e-05
1.6325e-05
-8.49497e-06
8.69762e-06
8.67845e-06
-8.90331e-06
-7.06429e-06
-7.59371e-06
8.8695e-06
-8.70829e-06
-5.90387e-06
-6.50094e-06
8.4466e-06
-8.47916e-06
-5.18628e-06
-5.63767e-06
8.34547e-06
-8.0596e-06
-4.18253e-06
-4.72267e-06
7.69663e-06
-7.19876e-06
-3.29943e-06
-3.72843e-06
-2.98481e-06
-2.44623e-06
2.4972e-06
-5.72684e-06
2.3497e-06
-5.35473e-06
-2.23262e-06
-5.55449e-06
-5.92825e-06
2.81947e-06
1.17948e-06
-2.4424e-06
-1.00331e-06
7.36557e-07
-1.34928e-06
7.08533e-06
-5.92006e-06
-5.52942e-06
7.76406e-06
-9.88861e-07
-1.32503e-05
1.31521e-05
1.34031e-05
-1.24006e-05
1.30071e-05
-1.3198e-05
1.35116e-05
-1.00569e-05
1.22201e-05
9.90444e-06
9.89903e-06
-9.74146e-06
-1.08323e-05
1.2009e-05
5.74093e-06
-5.63116e-06
-1.25575e-06
-8.92729e-06
1.00178e-05
1.11752e-05
-8.50787e-06
1.02989e-05
-7.12602e-06
7.76782e-06
2.70878e-06
-6.4859e-06
2.39955e-06
-1.16983e-05
1.28647e-05
-1.17574e-05
1.24072e-05
-2.02205e-06
1.97475e-06
-5.22817e-06
-2.14364e-06
-4.94467e-06
0.00290074
1.49874e-07
-0.00264116
3.13532e-06
2.35015e-07
0.00308871
3.28091e-06
-0.00290064
0.00308884
3.65839e-06
-0.00264108
3.47965e-06
-2.02262e-06
2.15562e-06
-4.87439e-06
-5.16237e-06
5.63106e-06
-2.09517e-06
-4.69521e-06
-1.87529e-06
-6.09157e-06
4.33875e-06
-1.01406e-05
1.23552e-05
-1.40381e-05
1.34739e-05
1.32803e-06
3.11909e-06
-1.11819e-06
-5.87361e-06
-1.67334e-06
6.78672e-06
-2.87066e-05
-2.68448e-05
2.80564e-05
2.67987e-05
4.31692e-05
3.37298e-05
-5.67105e-05
-3.14199e-05
7.12124e-05
2.26808e-05
-1.81356e-05
-9.25705e-05
1.09252e-05
1.16268e-05
2.6586e-05
3.09892e-05
-5.47191e-06
1.87274e-06
-6.32596e-06
2.28346e-05
1.15151e-05
-2.84382e-05
-7.86752e-06
8.47691e-06
2.17791e-06
-2.19575e-06
1.57705e-06
-1.7777e-06
-8.87918e-06
9.25083e-06
2.77012e-06
2.46727e-06
-9.75157e-06
1.04807e-05
4.04633e-06
3.34819e-06
-1.1214e-05
1.17825e-05
5.30679e-06
4.65366e-06
-1.22762e-05
1.27556e-05
6.97316e-06
6.03054e-06
-1.33389e-05
1.40633e-05
9.302e-06
8.08815e-06
-1.47854e-05
1.45431e-05
1.11797e-05
1.03472e-05
1.25505e-05
1.36432e-05
-1.35198e-05
9.90584e-06
1.13857e-05
1.3173e-05
-1.26554e-05
7.65533e-06
8.597e-06
1.19665e-05
-1.11586e-05
6.06313e-06
-6.63843e-06
6.8621e-06
-7.43477e-06
1.03913e-05
-9.68533e-06
4.47206e-06
-4.74817e-06
5.19468e-06
-5.62662e-06
9.01676e-06
-8.39128e-06
3.43861e-06
3.87684e-06
-4.05618e-06
3.04522e-06
0.00317768
2.27597e-07
3.068e-06
0.00324611
4.88938e-07
2.75042e-06
0.00319674
7.72325e-07
1.70354e-06
0.00255969
9.05616e-07
5.05842e-07
0.00130755
1.96037e-06
-3.62605e-07
0.00092229
3.10406e-06
-1.66346e-06
0.00071088
4.25794e-06
-3.69336e-06
0.000567258
6.32327e-06
-5.04972e-06
0.000458646
8.77777e-06
-7.85493e-06
1.05573e-05
0.00037406
-1.08593e-05
0.000376114
-0.000459129
9.35915e-06
0.000305955
1.09857e-05
-1.21589e-05
1.18943e-05
0.00025003
-1.40025e-05
-0.00030907
0.000254443
7.88787e-06
8.97251e-06
0.000565946
-0.000709801
8.21969e-06
8.63837e-06
0.00092213
-0.0013071
4.46557e-06
5.98525e-06
0.00256085
-0.00319666
3.11944e-06
4.0733e-06
0.00324602
-0.00317752
3.64058e-06
3.69373e-06
3.77644e-06
-6.1697e-06
6.52296e-06
-2.26337e-06
-1.8564e-06
-6.76836e-06
6.99476e-06
-2.91346e-06
-2.60882e-06
-7.22312e-06
7.38165e-06
-3.43172e-06
-3.16782e-06
-7.47088e-06
7.79701e-06
-4.00754e-06
-3.75902e-06
-8.05241e-06
8.31355e-06
-4.71793e-06
-4.50165e-06
-8.26473e-06
8.23803e-06
-5.89291e-06
-5.26359e-06
-8.11101e-06
7.95039e-06
-7.10372e-06
-6.59298e-06
-2.19437e-05
2.14832e-05
-2.91025e-05
-7.62725e-06
7.58081e-06
-9.17105e-06
1.07327e-05
-7.0993e-06
9.0551e-06
-8.69833e-06
-8.35363e-06
-8.85865e-06
9.5042e-06
1.0163e-05
-1.03308e-05
8.49131e-06
8.18601e-06
-5.93197e-06
-9.61777e-06
8.33372e-06
-8.20052e-06
-7.18712e-06
-7.58388e-06
8.36248e-06
-8.42195e-06
-6.47224e-06
-6.93124e-06
8.41255e-06
-8.23866e-06
-5.51781e-06
-5.96739e-06
8.19273e-06
-8.08831e-06
-4.70025e-06
-5.10458e-06
7.93828e-06
-7.68301e-06
-3.86581e-06
-4.29779e-06
7.34385e-06
-6.92366e-06
-3.11528e-06
-3.47509e-06
6.5021e-06
-6.07973e-06
-2.59773e-06
-2.82036e-06
-2.34822e-06
-2.24304e-06
2.30222e-06
-5.19202e-06
-5.03608e-06
-2.32271e-06
2.29864e-06
-5.50887e-06
-5.359e-06
-2.23861e-06
2.12342e-06
-5.82966e-06
-5.67761e-06
-1.7443e-05
-2.69387e-05
2.54353e-05
1.77238e-05
-3.97219e-05
4.23773e-05
-1.2556e-05
9.40404e-06
-1.09971e-05
1.1762e-05
1.04533e-05
9.93091e-06
-1.00498e-05
1.04912e-05
1.07496e-05
-1.12792e-05
1.1942e-05
-4.54184e-06
-2.59596e-06
-1.39356e-05
1.70031e-05
1.03244e-05
1.02155e-07
2.61131e-06
-0.00232318
2.82092e-06
-0.00232305
5.53479e-06
-1.06872e-06
-5.17525e-06
-7.52626e-05
-4.62177e-05
3.20725e-05
8.42308e-05
0.000373773
-0.000458718
-1.07711e-05
0.000304596
-1.17203e-05
-1.25709e-05
1.24424e-05
-0.000180075
-3.80949e-05
6.10842e-05
0.000121703
9.94396e-06
9.19152e-06
1.1777e-05
-1.21768e-05
1.29418e-05
1.17474e-06
-1.43744e-06
-5.12133e-06
1.21432e-06
-5.10615e-06
-0.0023232
0.00264061
5.90243e-06
1.77067e-06
9.82451e-08
-0.00197795
3.65228e-06
-0.00197859
-1.91038e-06
1.99259e-06
-4.34029e-06
-1.76318e-06
-4.22501e-06
-5.01327e-06
5.43716e-06
-1.90792e-06
-4.54916e-06
-1.72044e-06
-9.44268e-06
0.000206819
5.50874e-06
0.00020758
-1.65389e-05
1.03041e-05
4.42061e-06
-1.00071e-05
1.04628e-05
5.53951e-06
-5.39191e-06
-1.3771e-05
1.43071e-05
1.4168e-05
9.37667e-06
6.33106e-06
-9.58818e-06
-5.80329e-06
1.00117e-05
7.9293e-06
5.36125e-05
2.1801e-05
-1.96373e-05
2.01264e-05
1.40107e-05
-2.2385e-05
-2.44164e-05
2.70965e-05
-9.24132e-06
9.31962e-07
4.7045e-07
-3.57334e-07
-4.93027e-07
-5.98832e-06
6.68521e-06
1.94253e-06
1.90179e-06
-2.02037e-06
-5.16541e-06
1.72179e-06
-5.289e-06
1.07181e-05
1.13872e-05
1.97485e-06
-3.98613e-06
-1.94331e-06
-1.93344e-06
1.87063e-06
-4.56106e-06
-4.30852e-06
-1.79238e-06
1.63295e-06
-4.97235e-06
5.72479e-06
-4.78924e-06
-5.10176e-06
-7.88819e-06
8.4771e-06
2.15484e-06
2.04224e-06
-9.05174e-06
9.60853e-06
2.73556e-06
2.4449e-06
-1.02379e-05
1.10048e-05
3.75661e-06
3.20881e-06
-1.1709e-05
1.24103e-05
4.98747e-06
4.38178e-06
-1.30518e-05
1.36788e-05
6.62852e-06
5.71408e-06
-1.43747e-05
1.50449e-05
8.87331e-06
7.66971e-06
-1.54995e-05
1.52089e-05
1.1488e-05
1.00463e-05
1.37316e-05
-1.24653e-05
1.43403e-05
2.27724e-05
1.51354e-05
-2.2435e-05
1.40109e-05
-1.46348e-05
1.30633e-05
1.49337e-05
1.46099e-05
1.48738e-05
-1.46019e-05
9.20517e-06
1.10412e-05
1.40405e-05
-1.33791e-05
6.75382e-06
7.7088e-06
1.26457e-05
-1.18748e-05
5.29833e-06
5.98069e-06
1.10356e-05
-1.02503e-05
3.98994e-06
4.51163e-06
9.46694e-06
-8.77095e-06
3.17041e-06
3.49113e-06
8.07385e-06
-7.38873e-06
2.4935e-06
2.79637e-06
2.19471e-06
-0.00289975
0.0030875
7.86622e-06
7.40838e-06
-0.00317622
0.00324477
6.90072e-06
7.64445e-06
-0.00319492
0.00255735
3.09714e-06
5.65775e-06
-0.00130739
0.000922577
1.25828e-07
1.26921e-06
-0.000710215
0.000567421
-4.66955e-06
-1.5963e-06
-6.86266e-06
-0.00232309
0.00264041
6.24709e-06
-1.89308e-06
3.85599e-06
-0.00197864
-0.00197786
-4.2203e-07
-2.02751e-05
-0.000212411
-1.43771e-05
-4.43334e-05
-9.56152e-06
5.45171e-05
-1.47155e-06
0.000258764
-0.00031184
4.29341e-06
2.85533e-06
0.000379263
-0.000462326
7.65048e-06
7.25168e-06
0.000568532
-0.000709898
7.6513e-06
7.62769e-06
0.000920766
-0.00130848
8.72989e-06
6.94386e-06
0.00256247
-0.00319572
5.77639e-06
6.01083e-06
0.00324456
-0.00317619
7.96165e-06
7.54042e-06
0.00308753
-0.00289961
8.41949e-06
8.29043e-06
7.71158e-06
-5.88804e-06
6.19743e-06
-2.01842e-06
-1.65374e-06
-6.47495e-06
6.71186e-06
-2.59722e-06
-2.32195e-06
-6.92844e-06
7.17757e-06
-3.14592e-06
-2.83906e-06
-7.37419e-06
7.6535e-06
-3.76645e-06
-3.42854e-06
-7.64072e-06
7.74993e-06
-4.30702e-06
-3.97805e-06
-7.75739e-06
7.75028e-06
-5.33325e-06
-4.73421e-06
-7.56373e-06
7.36252e-06
-6.32962e-06
-5.83436e-06
-7.01924e-06
6.56925e-06
-7.41169e-06
8.41322e-06
-6.72814e-06
-5.96288e-06
4.97669e-06
-8.64787e-06
-8.02559e-06
-1.00258e-05
1.07446e-05
4.09831e-06
-4.26831e-06
3.67292e-06
-9.00148e-06
-8.83529e-06
-1.06716e-05
7.28964e-06
1.01534e-05
3.20246e-06
-4.32514e-06
-9.10883e-06
-9.90731e-06
2.93857e-06
1.06394e-05
-3.2111e-06
-2.01372e-06
1.93788e-06
-9.36565e-06
-9.46325e-06
1.11191e-05
4.42727e-06
-6.39347e-06
-9.16162e-06
1.15784e-05
-9.10626e-06
7.21549e-06
-7.50539e-06
-7.49521e-06
-8.22752e-06
7.57784e-06
-7.66364e-06
-6.54172e-06
-6.93903e-06
7.84325e-06
-7.92028e-06
-5.8256e-06
-6.19481e-06
7.93362e-06
-7.90021e-06
-4.97266e-06
-5.38473e-06
7.81812e-06
-7.7031e-06
-4.22655e-06
-4.5943e-06
7.55265e-06
-7.31959e-06
-3.52553e-06
-3.8779e-06
7.01555e-06
-6.65224e-06
-2.89484e-06
-3.19571e-06
6.26831e-06
-5.87084e-06
-2.41712e-06
-2.63034e-06
-2.18584e-06
-2.06851e-06
2.10302e-06
-4.62228e-06
-4.4979e-06
-2.12129e-06
2.09722e-06
-4.89871e-06
-4.77813e-06
-5.03136e-06
3.24953e-05
3.6984e-05
3.38406e-05
-2.83384e-06
3.0203e-06
-3.43087e-05
0.000249144
-1.46366e-05
-1.19553e-05
1.13588e-05
1.11236e-05
8.96392e-06
1.10213e-05
1.02082e-05
-1.17935e-05
1.19118e-05
-5.00965e-06
1.62897e-06
5.01584e-06
-3.00332e-05
-2.42785e-05
2.09834e-05
1.92276e-05
-1.60897e-05
1.16834e-05
5.48286e-06
1.0406e-05
-8.10258e-06
-0.00232348
0.00263989
9.63713e-06
-0.00197998
5.24204e-06
-1.66513e-06
1.76307e-06
-3.49333e-06
-3.46068e-05
1.86243e-06
-7.53523e-06
-3.83805e-06
-1.891e-06
3.67564e-06
-3.59981e-06
-1.62824e-06
-1.44856e-06
-3.2637e-06
-1.51058e-06
-4.17104e-06
-6.12433e-06
6.87059e-06
1.69619e-06
-5.40515e-06
1.50538e-06
0.00016637
-2.14451e-05
1.87791e-05
-1.52909e-05
-2.09941e-05
1.71482e-05
-1.54655e-05
1.89634e-05
1.48505e-05
-3.94461e-05
2.78112e-05
2.86889e-06
-2.55919e-06
0.000373738
-0.000460052
-9.00962e-06
0.000304633
-1.12346e-05
1.59733e-05
2.31585e-05
-1.67731e-05
1.55792e-05
-2.13843e-05
2.11736e-05
2.59903e-05
-1.6664e-05
1.33632e-05
1.14753e-05
7.06976e-06
-1.37713e-05
1.26181e-05
-1.2689e-05
1.32811e-05
1.08966e-05
8.77499e-06
2.0844e-05
-1.3643e-05
-0.00232361
0.00263995
1.00508e-05
-0.00198013
5.48656e-06
-3.36201e-05
3.34324e-05
-1.81964e-05
1.78358e-05
-7.15317e-05
1.49391e-05
6.21304e-05
-9.01452e-05
2.42782e-05
2.39421e-05
-1.39791e-05
-1.47741e-05
1.54108e-05
1.37691e-05
1.16827e-05
4.97218e-06
1.03463e-05
2.98398e-06
-9.20121e-06
3.44135e-06
1.14522e-05
1.04679e-05
1.39882e-06
-9.41725e-06
2.08313e-06
1.1836e-05
1.10107e-05
7.51287e-06
-1.32413e-05
1.45742e-05
-1.99537e-05
-1.46552e-05
2.15259e-05
1.28648e-05
0.000200686
-1.49141e-05
1.14296e-06
2.9267e-07
-6.66743e-07
-3.29586e-07
2.35123e-05
-7.61374e-06
-2.5281e-05
2.82448e-05
-1.78098e-05
-2.61846e-05
1.53786e-05
1.01555e-05
1.11204e-05
-1.7989e-06
1.79914e-06
-3.94747e-06
-3.736e-06
-1.76369e-06
1.67987e-06
-4.28127e-06
-4.13887e-06
-1.57682e-06
1.47898e-06
-4.48153e-06
-4.41391e-06
-1.40511e-06
1.37949e-06
-4.51189e-06
-4.53712e-06
5.05726e-06
-4.54582e-06
1.34561e-06
-5.31674e-06
7.44097e-06
2.59533e-06
-4.22185e-06
1.8177e-06
-7.89452e-06
8.57334e-06
2.00425e-06
2.15099e-06
-9.27695e-06
1.00026e-05
2.50534e-06
2.25938e-06
-1.07352e-05
1.14981e-05
3.41683e-06
2.93348e-06
-1.22941e-05
1.30452e-05
4.57801e-06
3.96325e-06
-1.38098e-05
1.45912e-05
6.07779e-06
5.24496e-06
-1.53776e-05
1.61729e-05
8.17413e-06
7.04277e-06
-1.68294e-05
1.72991e-05
1.08618e-05
9.36299e-06
-1.79104e-05
1.98712e-05
1.48042e-05
1.28691e-05
1.67923e-05
1.6873e-05
2.1588e-05
-2.01224e-05
1.5194e-05
-1.70179e-05
1.53579e-05
1.905e-05
-1.78752e-05
1.15514e-05
1.35499e-05
1.6818e-05
-1.58414e-05
8.04922e-06
9.70366e-06
1.49831e-05
-1.40745e-05
5.65637e-06
6.68161e-06
1.32521e-05
-1.23805e-05
4.38598e-06
5.00925e-06
1.15656e-05
-1.07237e-05
3.4005e-06
3.80632e-06
9.89498e-06
-9.10312e-06
2.73436e-06
2.98919e-06
8.37177e-06
-7.62498e-06
2.18479e-06
2.46051e-06
1.91816e-06
-0.00289826
0.00308534
1.43415e-05
1.27834e-05
-0.00317355
0.00324136
1.34719e-05
1.43569e-05
-0.00319197
0.00255635
7.85412e-06
1.14525e-05
-0.00130712
0.000923236
2.01969e-06
4.1568e-06
-0.000712163
0.000568474
-3.15546e-06
-1.06484e-07
-5.69622e-06
1.609e-07
5.73849e-07
-0.00163748
-8.6209e-07
1.10192e-06
-0.00163866
-0.00163738
4.61827e-06
1.1986e-05
-8.03516e-07
-0.0016409
-3.07761e-08
-0.00163855
0.000101122
-0.000127954
2.0363e-06
5.94113e-06
2.2061e-05
-2.83545e-05
0.000181626
-0.000219106
-1.45623e-05
-1.70434e-05
0.000261097
-0.000315037
1.92363e-06
-1.80489e-06
0.000381651
-0.000464677
6.05674e-06
5.36402e-06
0.000571321
-0.000712478
7.08033e-06
7.31991e-06
0.000923441
-0.00130746
9.48223e-06
8.21193e-06
0.00255992
-0.00319278
1.25964e-05
8.92163e-06
0.00324097
-0.0031736
1.49291e-05
1.32251e-05
0.00308562
-0.0028982
1.48865e-05
1.4984e-05
1.31707e-05
-3.80266e-06
3.93623e-06
-1.57086e-06
3.45596e-06
-3.04566e-06
-1.33177e-06
-1.45538e-06
-4.47326e-06
5.16394e-06
-1.27399e-06
-1.35434e-06
1.27142e-06
-5.55939e-06
5.88335e-06
-1.80335e-06
-1.51591e-06
-6.17726e-06
6.43506e-06
-2.30692e-06
-2.0656e-06
-6.70022e-06
6.91149e-06
-2.80351e-06
-2.55208e-06
-7.10183e-06
7.23751e-06
-3.33942e-06
-3.05485e-06
-7.35745e-06
7.43989e-06
-3.85912e-06
-3.55153e-06
-7.45261e-06
7.35589e-06
-4.68402e-06
-4.21842e-06
-7.1613e-06
6.91229e-06
-5.52214e-06
-5.07712e-06
-6.64797e-06
6.24829e-06
-6.4373e-06
-5.89959e-06
-5.67135e-06
4.9471e-06
-7.37129e-06
-6.89622e-06
-4.24999e-06
3.57849e-06
-7.82009e-06
-7.60767e-06
-9.46358e-06
2.22844e-06
1.07291e-05
-2.85235e-06
2.09569e-06
-8.21823e-06
-7.98014e-06
1.30272e-06
9.69966e-06
-8.40085e-06
4.83798e-07
9.83544e-06
-8.49436e-06
-9.70526e-06
5.50889e-07
1.10744e-05
3.87389e-07
-1.13533e-06
-8.4395e-06
9.9066e-06
-8.521e-06
1.77199e-06
-2.48375e-06
-8.1882e-06
-8.2886e-06
3.33171e-06
-3.97354e-06
-8.00142e-06
-8.14691e-06
4.80143e-06
-5.80316e-06
-7.62341e-06
-7.79924e-06
6.34859e-06
-6.69295e-06
-6.56616e-06
-7.0977e-06
6.92472e-06
-7.13753e-06
-5.75888e-06
-6.12542e-06
7.33006e-06
-7.46115e-06
-5.12679e-06
-5.44148e-06
7.51346e-06
-7.50768e-06
-4.39623e-06
-4.75486e-06
7.4515e-06
-7.35039e-06
-3.75739e-06
-4.06776e-06
7.20779e-06
-6.99586e-06
-3.17226e-06
-3.46226e-06
6.72452e-06
-6.40337e-06
-2.63772e-06
-2.89495e-06
6.05552e-06
-5.68506e-06
-2.19667e-06
-2.39845e-06
5.28494e-06
-4.85445e-06
-1.73148e-06
-1.98404e-06
4.43105e-06
-4.19608e-06
-1.07285e-06
-1.52713e-06
-1.72733e-06
1.71065e-06
-3.52889e-06
-1.994e-06
-1.78539e-06
1.86079e-06
-3.80644e-06
-3.68409e-06
-1.9143e-06
1.95513e-06
-4.05677e-06
-3.93962e-06
-1.95565e-06
1.92823e-06
-4.28477e-06
-4.17768e-06
-1.85679e-06
1.73716e-06
-4.50161e-06
-4.3919e-06
-1.57099e-06
-4.68863e-06
1.35583e-06
-4.60411e-06
2.77905e-05
-3.01801e-05
-2.47551e-05
0.000120528
-7.91651e-06
-1.13227e-05
-2.69753e-05
3.02348e-05
1.22561e-05
0.000246969
-1.27037e-05
1.47566e-05
4.53053e-05
-1.81488e-05
2.12324e-05
-1.89154e-05
2.33535e-05
-4.5685e-06
-2.7835e-06
-2.77707e-05
-2.38551e-05
-1.1861e-05
3.0548e-05
-2.16088e-05
-1.52572e-05
1.25693e-05
1.23806e-05
8.34664e-06
-1.32651e-05
1.10176e-05
-4.35288e-07
1.14087e-05
1.37014e-06
1.11056e-05
-1.24256e-05
1.19077e-05
1.17947e-05
9.78313e-06
1.9694e-05
-1.46596e-05
-2.45082e-05
1.40124e-05
-1.79934e-05
9.10407e-06
1.7582e-07
-3.39305e-07
1.90762e-06
-2.20111e-05
2.01569e-05
-2.02661e-05
2.11244e-05
-2.12004e-05
2.0167e-05
2.25408e-05
-2.17658e-05
1.46273e-05
3.1284e-07
-0.00164115
-6.57733e-05
5.51494e-05
9.34571e-06
-9.04076e-05
3.15321e-05
-1.20784e-06
1.36868e-06
-2.671e-06
2.95743e-06
-1.11772e-06
-2.50529e-06
3.31659e-06
-1.15437e-06
3.33413e-05
2.30824e-05
-1.61575e-05
-1.47069e-05
1.27144e-05
1.27097e-05
6.38919e-06
2.61736e-06
1.20759e-05
9.31465e-07
1.27474e-05
1.19481e-05
8.28449e-06
-1.33802e-05
1.35274e-05
2.09967e-05
-1.14763e-05
-2.32406e-05
1.30647e-06
-1.41989e-06
-3.9038e-06
1.17938e-06
-3.91967e-06
0.000159925
-2.05169e-05
-9.88454e-06
3.50311e-05
6.17761e-05
-6.64811e-05
-6.91786e-06
4.88933e-06
3.19845e-05
3.28815e-05
-2.55401e-05
6.57063e-06
1.18227e-05
-2.25819e-05
-1.55571e-05
2.57543e-05
-8.03062e-05
-5.19408e-06
1.0248e-05
7.18337e-05
2.27922e-05
-1.35055e-05
9.30323e-05
4.06848e-05
2.03329e-05
-1.61469e-05
1.12853e-05
1.25812e-05
4.27484e-06
3.49969e-06
1.34321e-05
-1.3341e-05
1.64076e-05
1.15435e-05
1.25094e-06
-1.44485e-06
-3.98815e-06
-4.76603e-06
5.50153e-06
1.12029e-06
1.03189e-06
-4.03473e-06
-5.41064e-06
2.1254e-06
-0.00132696
-0.00164752
0.00198525
-3.76833e-06
-1.21815e-05
-0.00133379
0.00020022
-1.37596e-05
1.59778e-06
-2.97449e-06
1.97339e-05
-7.01268e-06
-1.99074e-05
1.44024e-05
1.9883e-05
-1.4647e-05
-1.84738e-05
6.86351e-06
-8.96663e-06
8.65902e-06
-1.00367e-05
-9.1104e-06
9.48818e-06
1.13243e-05
1.08709e-05
-1.21354e-05
2.19927e-05
9.35909e-06
-1.48845e-06
1.60016e-06
-3.02305e-06
-2.83207e-06
-1.66985e-06
1.70446e-06
-3.36456e-06
-3.19356e-06
-1.71014e-06
1.68504e-06
-3.63661e-06
-3.52255e-06
-1.63145e-06
1.53862e-06
-3.83375e-06
-3.76612e-06
-3.90239e-06
5.2418e-06
-4.62461e-06
1.22831e-06
-6.03701e-06
7.27561e-06
1.86912e-06
1.51801e-06
-8.11369e-06
8.7614e-06
1.85335e-06
1.82471e-06
-9.55368e-06
1.03098e-05
2.22277e-06
1.95001e-06
-1.11282e-05
1.19663e-05
2.98524e-06
2.56448e-06
-1.28134e-05
1.37244e-05
3.98177e-06
3.47065e-06
-1.45769e-05
1.54681e-05
5.3821e-06
4.66101e-06
-1.63672e-05
1.72762e-05
7.24172e-06
6.22373e-06
-1.81818e-05
1.91738e-05
9.66602e-06
8.30899e-06
-2.04273e-05
2.20947e-05
1.28803e-05
1.14077e-05
1.39322e-05
-2.2025e-05
2.41386e-05
1.49912e-05
-1.76807e-05
1.66641e-05
2.05219e-05
-1.92577e-05
1.08069e-05
1.27393e-05
1.80527e-05
-1.68517e-05
7.42321e-06
9.04971e-06
1.57418e-05
-1.46804e-05
4.88683e-06
6.04495e-06
1.37659e-05
-1.28549e-05
3.62665e-06
4.26679e-06
1.19149e-05
-1.10829e-05
2.83328e-06
3.07262e-06
1.02576e-05
-9.45377e-06
2.26767e-06
2.46218e-06
8.63625e-06
-7.83095e-06
1.82011e-06
2.03331e-06
7.03306e-06
-6.25692e-06
1.42052e-06
1.60042e-06
1.24939e-06
-0.00232671
0.00264061
1.31337e-05
5.02857e-06
-0.00289685
0.00308205
2.30403e-05
1.92196e-05
-0.00316934
0.00323599
2.31459e-05
2.38492e-05
-0.00318584
0.0025535
1.6176e-05
2.10109e-05
-0.00130701
0.000923569
4.98476e-06
8.35592e-06
-0.000713065
0.000569342
-3.54438e-07
1.96333e-06
-0.000461931
0.000375939
-7.01939e-06
-4.52784e-06
-0.000306084
0.000248251
-1.09349e-05
-9.90881e-06
-1.78164e-06
3.24485e-07
-0.00132423
-0.00164756
0.0019853
-3.47052e-06
5.12979e-06
-1.18874e-05
-0.00133386
-0.00132715
1.43804e-07
-7.04315e-07
-0.00132259
-0.00132254
-0.00132415
0.000108564
-0.000133939
5.14211e-06
2.0497e-05
0.000174564
-0.000217772
-7.14334e-06
-4.22819e-06
0.000263224
-0.000318136
7.0225e-07
-2.00222e-06
0.00038475
-0.000467439
4.98303e-06
3.83419e-06
0.000572674
-0.000714148
8.20023e-06
6.86813e-06
0.000923288
-0.00130677
1.18433e-05
8.79071e-06
0.00255644
-0.0031846
2.03009e-05
1.38699e-05
0.0032356
-0.0031693
2.49264e-05
2.45286e-05
0.00308229
-0.00289683
2.35923e-05
2.45414e-05
0.00264068
-0.00232673
1.35132e-05
1.96905e-05
5.28856e-06
-3.65271e-06
3.89943e-06
-1.3088e-06
-1.26664e-06
-4.31597e-06
4.8224e-06
-1.26324e-06
-1.26423e-06
-5.25071e-06
5.60099e-06
-1.6005e-06
-1.39962e-06
-5.90316e-06
6.18214e-06
-2.03186e-06
-1.81325e-06
-6.41577e-06
6.60957e-06
-2.44338e-06
-2.22983e-06
-6.79544e-06
6.90295e-06
-2.87182e-06
-2.66871e-06
-7.01415e-06
7.11476e-06
-3.41355e-06
-3.09925e-06
-7.11379e-06
7.02578e-06
-4.02717e-06
-3.67331e-06
-6.85862e-06
6.60399e-06
-4.71194e-06
-4.33412e-06
-6.33685e-06
5.92564e-06
-5.45639e-06
-5.08141e-06
-5.42373e-06
4.80387e-06
-6.18774e-06
-5.83783e-06
-4.16208e-06
3.49902e-06
-6.60642e-06
-6.41064e-06
-2.79998e-06
2.0729e-06
-6.95506e-06
-6.7453e-06
-1.29842e-06
5.22043e-07
-7.18387e-06
-7.08996e-06
2.59265e-07
-9.99868e-07
-7.16966e-06
-7.207e-06
1.71556e-06
-2.4417e-06
-6.97475e-06
-7.07351e-06
3.18107e-06
-3.8726e-06
-6.76386e-06
-6.89012e-06
4.56517e-06
-5.28601e-06
-6.32883e-06
-6.53998e-06
5.80295e-06
-6.16024e-06
-5.6173e-06
-5.99405e-06
6.44544e-06
-6.69478e-06
-4.96106e-06
-5.27145e-06
6.89837e-06
-7.05466e-06
-4.41107e-06
-4.69109e-06
7.13816e-06
-7.15843e-06
-3.81324e-06
-4.10497e-06
7.1268e-06
-7.04319e-06
-3.28738e-06
-3.54175e-06
6.90932e-06
-6.71507e-06
-2.79345e-06
-3.03679e-06
6.46665e-06
-6.17487e-06
-2.33437e-06
-2.55756e-06
5.85646e-06
-5.51091e-06
-1.9459e-06
-2.12376e-06
5.14093e-06
-4.74903e-06
-1.52559e-06
-1.75417e-06
4.39929e-06
-7.9009e-07
-4.09583e-06
-1.27916e-06
-1.65691e-06
1.72421e-06
-3.26251e-06
-3.13059e-06
-1.77756e-06
1.81283e-06
-3.48173e-06
-3.37962e-06
-1.82075e-06
1.7902e-06
-3.67111e-06
-3.5842e-06
-1.7249e-06
1.6091e-06
-3.84596e-06
-3.76367e-06
-3.9222e-06
2.77098e-06
2.56716e-05
-1.35514e-05
-3.91736e-05
1.64194e-05
1.40291e-05
-2.3128e-05
-1.71398e-05
1.33055e-05
2.75149e-06
-2.34919e-06
-9.59095e-07
-2.08377e-05
-1.74793e-05
2.14883e-05
-1.76175e-05
-1.71601e-05
-2.34523e-05
-1.43222e-05
1.08069e-05
1.37393e-05
7.59492e-06
1.68082e-06
1.2594e-05
-4.85103e-07
1.3357e-05
1.2689e-05
9.46364e-06
-1.32663e-05
1.20355e-05
2.03389e-05
-1.41254e-05
7.03918e-06
-9.63948e-06
-3.95941e-06
1.02781e-06
-2.62189e-05
1.28119e-05
-3.39242e-05
-1.5653e-05
3.64207e-05
3.9457e-05
2.95339e-05
-4.88749e-05
-2.37378e-05
2.13395e-05
0.00011926
-1.75216e-05
3.1509e-06
-1.00405e-06
3.58131e-05
-1.17841e-05
2.80672e-05
-2.84162e-05
-1.18463e-05
1.1099e-05
-0.00165528
0.0019927
-1.05508e-05
-0.00134146
-2.19074e-05
2.09174e-05
2.52377e-05
-9.22597e-05
5.22895e-05
6.16109e-06
1.28588e-05
2.83068e-05
2.97609e-05
-2.04395e-05
-1.77096e-05
2.25208e-05
-1.62184e-05
9.11423e-05
1.54217e-05
-2.39157e-05
-1.61782e-05
1.29426e-05
1.38123e-05
5.53364e-06
3.44757e-06
1.33758e-05
1.38822e-06
1.53571e-05
1.28667e-05
7.68146e-06
-1.39499e-05
1.42842e-05
1.86332e-05
-1.3602e-05
-1.15141e-06
1.28121e-06
-2.25185e-06
-1.03036e-06
-2.07623e-06
-4.84632e-06
5.60884e-06
8.69015e-07
-4.08521e-06
7.97061e-07
1.18565e-06
-1.36637e-06
-3.28648e-06
9.88373e-07
-3.31436e-06
-0.00165512
0.00199247
-1.07522e-05
-0.00134127
-2.21687e-05
-1.05346e-05
5.11929e-06
-0.00104907
-1.94806e-05
-0.001055
2.85895e-05
-8.62173e-07
0.000155731
-1.5177e-05
-1.36745e-06
1.45563e-06
-2.46482e-06
-1.23173e-06
-2.32437e-06
0.000199099
-1.00182e-05
-3.86274e-07
1.81618e-06
-1.24293e-06
2.05587e-05
-1.44669e-05
-1.24035e-07
1.86996e-06
-1.09764e-06
-1.81667e-05
-1.04793e-05
9.10647e-06
1.3083e-05
1.06451e-05
-1.42234e-05
2.21464e-05
-1.38467e-06
1.48339e-06
-2.54037e-06
-2.37817e-06
-1.55479e-06
1.60922e-06
-2.80522e-06
-2.66271e-06
-1.63409e-06
1.64765e-06
-3.01754e-06
-2.91647e-06
-1.60051e-06
1.52534e-06
-3.20105e-06
-3.11816e-06
-1.39956e-06
1.26002e-06
-3.25148e-06
-3.24913e-06
-1.12453e-06
9.83519e-07
-3.29031e-06
-3.26932e-06
4.02181e-06
-3.31307e-06
8.16658e-07
-4.71371e-06
5.45618e-06
1.01176e-06
8.67567e-07
-6.29753e-06
7.28195e-06
1.41936e-06
1.19759e-06
-8.16126e-06
9.02102e-06
1.50102e-06
1.4711e-06
-9.82914e-06
1.06575e-05
1.86369e-06
1.61872e-06
-1.14968e-05
1.23792e-05
2.51093e-06
2.18075e-06
-1.33371e-05
1.42732e-05
3.34041e-06
2.8718e-06
-1.5256e-05
1.62711e-05
4.52055e-06
3.90063e-06
-1.72723e-05
1.83013e-05
6.15075e-06
5.27387e-06
-1.93992e-05
2.06823e-05
8.25584e-06
7.07061e-06
-2.24312e-05
2.43099e-05
1.07835e-05
9.58023e-06
1.15198e-05
1.75338e-05
-1.37856e-05
-3.789e-05
2.39429e-05
-2.36031e-05
1.46108e-05
1.71344e-05
2.23565e-05
-2.09233e-05
1.01018e-05
1.20064e-05
1.94611e-05
-1.80082e-05
7.01947e-06
8.4814e-06
1.65788e-05
-1.54177e-05
4.63473e-06
5.67514e-06
1.42737e-05
-1.32556e-05
3.1416e-06
3.82289e-06
1.22503e-05
-1.13971e-05
2.3578e-06
2.50342e-06
1.05468e-05
-9.73209e-06
1.84956e-06
1.9793e-06
8.85478e-06
-7.98843e-06
1.43578e-06
1.59958e-06
7.17481e-06
-6.37128e-06
1.12908e-06
1.28706e-06
9.9595e-07
-0.00233287
0.0026448
1.3697e-05
1.87317e-06
-0.0028986
0.0030803
3.18094e-05
2.42416e-05
-0.00316653
0.00323092
3.53829e-05
3.47269e-05
-0.00317769
0.0025469
2.86355e-05
3.45073e-05
-0.00130504
0.000922869
9.04765e-06
1.56309e-05
-0.000712737
0.000570425
2.33807e-06
5.20033e-06
-0.00046213
0.00037771
-5.26248e-06
-1.02889e-06
-0.000307342
0.000250248
-8.75787e-06
-6.76123e-06
-4.80021e-06
1.66988e-06
-0.00104618
1.02486e-05
-1.91825e-05
-0.00105509
-0.00104912
1.52833e-07
-1.99467e-06
-0.00104438