/*--------------------------------*- C++ -*----------------------------------*\
| =========                 |                                                 |
| \\      /  F ield         | OpenFOAM: The Open Source CFD Toolbox           |
|  \\    /   O peration     | Version:  2212                                  |
|   \\  /    A nd           | Website:  www.openfoam.com                      |
|    \\/     M anipulation  |                                                 |
\*---------------------------------------------------------------------------*/
FoamFile
{
    version     2.0;
    format      ascii;
    arch        "LSB;label=32;scalar=64";
    class       volScalarField;
    location    "0.01018";
    object      p;
}
// * * * * * * * * * * * * * * * * * * * * * * * * * * * * * * * * * * * * * //

dimensions      [1 -1 -2 0 0 0 0];

internalField   nonuniform List<scalar> 
2681
(
242.92
244.922
242.993
190.488
247.626
245.744
190.009
190.469
190.644
190.777
190.399
191.864
191.638
212.228
192.399
193.205
195.962
190.556
190.659
190.787
190.995
191.606
191.381
191.182
192.116
191.85
190.493
190.355
190.423
190.686
190.585
190.923
190.793
191.245
191.077
191.434
191.49
191.751
192.039
191.812
192.062
191.377
191.586
191.058
191.202
234.468
190.916
190.526
190.263
190.344
190.425
192.353
195.019
190.517
190.413
191.452
191.64
190.289
190.278
190.314
190.256
190.741
190.612
191.06
190.899
191.53
191.293
192.116
191.807
190.09
192.484
192.307
192.731
191.596
191.94
192.103
190.077
204.328
245.736
190.441
190.312
190.373
190.615
190.522
190.832
190.716
191.115
190.967
191.278
191.582
191.779
191.234
191.406
190.949
191.082
190.694
190.819
190.473
190.577
190.385
190.331
190.303
191.844
193.178
192.761
192.712
190.256
190.288
190.236
193.61
194.829
193.851
193.833
191.681
192.089
191.862
190.363
190.267
190.292
192.475
204.415
193.995
244.468
192.076
192.386
192.3
190.207
246.227
190.235
254.934
230.464
190.539
190.436
190.817
190.666
191.19
190.989
191.708
191.428
192.461
192.046
193.003
192.68
193.264
191.837
192.216
197.79
190.377
231.55
190.568
190.453
190.277
190.181
190.227
190.396
190.333
190.55
190.467
190.746
190.641
190.993
190.864
191.285
191.135
191.618
191.447
212.559
191.807
191.391
191.537
191.1
191.244
190.845
190.967
190.617
190.728
190.426
190.516
190.35
190.225
190.191
190.208
190.244
189.982
190.255
190.276
195.397
196.455
198.861
193.216
192.332
193.135
190.154
192.344
192.068
190.396
190.319
194.723
194.486
190.164
190.14
199.336
199.994
200.001
199.34
190.151
190.176
190.137
192.025
199.735
190.001
190.235
239.655
235.457
240.083
192.716
192.678
247.055
190.188
247.335
190.389
190.317
190.59
190.478
190.896
190.73
191.31
191.088
191.905
191.579
192.851
192.316
194.743
193.582
196.593
193.178
194.094
192.064
192.543
191.412
191.703
190.954
191.165
190.62
190.773
190.496
200.81
201.807
203.053
204.635
206.739
209.698
214.003
220.387
229.539
242.527
242.276
250.469
250.792
251.637
251.053
220.408
229.482
209.734
214.03
204.663
206.771
201.824
203.076
200.823
190.248
190.201
190.357
190.3
190.494
190.421
190.666
190.575
190.882
190.769
191.135
191.005
191.417
191.273
241.976
191.572
191.909
191.811
192.284
192.189
191.991
191.492
191.643
191.229
191.36
190.977
191.101
190.75
190.86
190.547
190.645
190.383
190.459
190.264
190.318
190.218
190.18
190.165
190.215
190.197
190.258
190.236
246.16
237.129
193.735
192.605
192.625
193.603
190.118
207.057
198.774
198.775
190.14
223.941
238.357
247.821
195.87
244.645
192.551
195.598
190.204
190.219
198.732
198.316
198.275
190.113
190.1
190.162
190.124
249.881
249.21
192.105
192.455
202.685
198.317
192.185
192.493
237.225
234.59
250.177
189.94
190.279
190.209
190.226
193.077
193.033
190.083
190.125
190.104
190.167
190.146
190.187
190.422
190.34
190.644
190.521
190.976
190.795
191.439
191.189
192.135
191.746
193.4
192.659
196.501
194.548
200.11
202.013
246.49
198.495
203.984
193.948
195.525
192.349
192.985
191.55
191.896
191.036
191.27
190.673
190.838
190.43
190.538
190.345
199.954
199.294
201.784
200.776
204.698
203.061
209.938
206.885
220.384
214.263
228.541
198.737
198.276
198.316
247.411
248.772
232.034
250.991
250.461
238.148
248.039
220.487
228.545
210.005
214.314
204.772
206.954
201.842
203.131
199.979
200.816
199.307
190.226
190.182
190.324
190.273
190.445
190.381
190.596
190.517
190.782
190.685
191.001
190.889
191.242
191.119
191.499
191.37
191.732
191.625
192.248
191.929
191.825
192.336
192.015
192.435
192.092
192.066
191.821
191.88
191.574
191.722
191.314
191.442
191.085
191.198
190.865
190.974
190.663
190.761
190.485
190.57
190.345
190.41
190.242
190.289
190.201
190.141
190.127
190.173
190.156
190.19
234.921
247.215
250.116
194.405
192.952
192.946
194.248
190.23
232.626
246.743
192.523
198.665
198.201
190.052
238.94
190.091
190.06
190.034
190.088
190.299
190.243
247.038
247.889
248.094
232.997
189.994
234.225
240.925
248.23
246.865
248.668
192.846
197.587
197.159
192.847
248.717
198.676
198.204
241.888
239.62
241.652
250.633
210.383
192.629
192.029
192.375
192.172
192.543
192.709
209.01
256.751
249.628
189.958
251.705
245.658
193.521
193.472
190.09
190.071
190.127
190.109
190.16
190.145
190.186
190.174
190.2
190.304
190.248
190.456
190.363
190.698
190.564
191.057
190.861
191.574
191.291
192.411
191.931
194.207
193.109
199.86
196.133
223.06
207.347
237.483
242.519
246.603
204.908
220.841
195.191
198.272
192.69
193.599
191.693
192.106
191.116
191.374
190.725
190.902
190.463
190.579
190.371
199.903
199.234
201.774
200.738
204.839
203.106
210.356
207.169
220.412
214.68
227.183
197.921
197.878
197.92
192.817
197.795
197.879
244.284
243.461
248.466
245.416
247.554
249.235
234.71
241.511
220.494
227.391
210.408
214.712
204.95
207.254
201.866
203.218
199.946
200.807
199.258
190.065
190.017
190.04
190.128
190.093
190.205
190.165
190.296
190.249
190.403
190.347
190.535
190.466
190.696
190.611
190.884
190.787
191.09
190.985
191.304
191.197
191.5
191.408
191.666
191.583
192.118
191.814
191.745
191.869
191.901
192.228
191.899
191.915
191.812
191.862
191.714
191.77
191.562
191.633
191.369
191.473
191.158
191.263
190.958
191.057
190.766
190.861
190.586
190.674
190.432
190.505
190.313
190.368
190.223
190.265
190.147
190.184
190.071
190.111
190.053
190.039
190.077
190.065
190.105
190.091
190.136
190.12
190.168
190.152
190.197
190.183
234.945
244.711
191.529
244.425
247.154
234.525
248.568
242.101
242.229
244.824
193.34
195.29
192.259
192.192
195.089
193.327
249.378
246.233
247.533
189.958
246.124
247.099
243.537
197.794
242.119
244.426
189.996
189.986
190.003
233.163
250.892
200.569
193.1
192.495
192.646
193.161
200.197
249.126
190.145
190.157
248.367
243.583
234.964
239.153
192.989
243.519
237.124
243.738
253.087
242.612
228.171
192.805
192.988
224.084
190.157
190.209
190.168
197.509
197.683
197.38
249.637
190.021
247.732
257.835
246.64
191.03
191.376
194.073
192.235
193.993
250.677
190.025
190.01
190.058
190.041
190.092
190.075
190.122
190.107
190.134
190.213
190.325
190.265
190.49
190.398
190.75
190.606
191.136
190.925
191.713
191.392
192.746
192.137
195.375
193.717
204.863
198.576
235.721
217.62
243.019
244.706
246.208
213.107
236.258
196.886
202.061
193.109
194.416
191.839
192.34
191.192
191.475
190.773
190.962
190.494
190.618
190.318
190.396
190.258
198.586
198.107
199.855
199.169
201.792
200.714
205.073
203.207
210.896
207.59
220.233
215.165
230.835
225.63
240.858
235.918
197.602
197.681
197.376
197.506
197.648
197.648
197.603
245.668
245.447
246.514
245.941
241.03
244.873
231.893
236.731
220.376
226.175
210.875
215.108
205.19
207.646
201.914
203.344
199.916
200.807
198.602
199.203
198.111
190.05
190.025
190.111
190.078
190.185
190.147
190.27
190.226
190.367
190.316
190.483
190.422
190.622
190.549
190.783
190.7
190.96
190.87
191.141
191.051
191.306
191.227
191.446
191.378
191.561
191.508
191.627
191.603
191.627
191.638
191.565
191.603
191.48
191.527
191.353
191.415
191.196
191.28
191.022
191.11
190.849
190.935
190.68
190.764
190.523
190.6
190.39
190.453
190.286
190.334
190.204
190.243
190.132
190.167
190.061
190.097
190.045
190.033
190.072
190.058
190.102
190.087
190.132
190.117
190.145
190.02
234.097
241.114
189.978
246.654
250.637
248.921
196.553
193.742
192.596
192.703
193.763
196.39
252.443
191.157
190.168
243.613
238.362
235.441
242.92
246.334
189.993
243.842
249.448
197.557
197.238
235.077
245.871
193.29
232.514
246.719
253.216
243.636
239.811
205.568
193.364
192.967
193.207
193.515
205.685
245.679
189.98
189.972
190.22
190.177
190.122
190.132
197.558
197.244
197.282
197.142
244.242
249.838
189.995
189.985
245.479
190.073
255.227
189.961
248.343
191.281
194.725
192.658
194.691
254.011
190.003
189.991
190.031
190.016
190.06
190.045
190.087
190.074
190.109
190.099
190.128
190.119
190.137
190.225
190.178
190.344
190.279
190.52
190.422
190.796
190.643
191.21
190.983
191.856
191.492
193.156
192.366
197.043
194.528
211.444
202.033
236.419
228.378
240.313
242.436
242.014
242.838
225.885
238.417
199.447
207.465
193.639
195.564
191.993
192.611
191.262
191.572
190.818
191.017
190.522
190.655
190.335
190.417
190.271
198.5
198.001
199.815
199.103
201.847
200.711
205.372
203.363
211.387
208.043
219.828
215.427
228.514
224.341
235.526
232.301
197.38
197.137
197.279
197.429
197.428
197.382
245.605
246.415
240.642
243.913
235.648
237.828
229.778
233.16
220.164
225.175
211.306
215.395
205.467
208.044
201.98
203.501
199.884
200.811
198.519
199.143
198.007
241.58
190.034
190.011
190.093
190.061
190.165
190.127
190.246
190.204
190.336
190.29
190.44
190.386
190.561
190.498
190.699
190.628
190.852
190.774
191.006
190.93
191.147
191.079
191.263
191.208
191.354
191.312
191.405
191.385
191.405
191.412
191.36
191.388
191.286
191.327
191.181
191.235
191.052
191.12
190.906
190.98
190.758
190.832
190.611
190.684
190.475
190.541
190.358
190.413
190.263
190.308
190.185
190.223
190.114
190.149
190.049
190.08
190.022
190.016
190.005
190.042
190.028
190.072
190.057
190.099
190.086
190.111
236.197
237.81
196.994
232.618
236.015
240.335
241.334
248.429
193.611
232.469
250.009
252.508
252.048
242.148
232.56
238.181
198.281
194.144
193.115
193.332
194.301
198.461
253.327
191.065
189.967
190.095
190.103
240.366
244.054
239.439
239.139
190.14
197.001
242.341
241.517
249.503
189.975
236.684
248.84
238.453
193.947
232.581
251.206
255.888
237.554
212.819
193.608
216.792
196.993
196.859
233.036
255.231
230.582
190.082
193.977
231.997
232.113
251.547
190.868
234.899
235.767
195.471
193.204
195.658
256.081
189.959
189.968
189.962
189.985
189.976
190.008
189.996
190.033
190.02
190.057
190.046
190.077
190.068
190.086
190.145
190.111
190.234
190.186
190.358
190.29
190.544
190.441
190.835
190.674
191.277
191.033
191.998
191.583
193.625
192.613
198.974
195.475
217.954
205.789
236.457
231.16
238.992
239.355
237.923
238.582
230.493
236.175
202.125
212.586
194.223
196.802
192.141
192.893
191.322
191.66
190.855
191.063
190.544
190.684
190.348
190.434
190.228
190.281
190.147
190.184
197.439
196.861
197.112
198.417
197.899
199.787
199.043
201.94
200.727
205.706
203.566
211.713
208.428
219.559
215.497
227.336
223.622
231.482
229.962
235.207
197.222
197.132
197.268
197.268
197.135
197.223
196.866
196.998
240.583
243.631
235.391
238.017
231.75
233.27
228.301
230.48
220.022
224.491
211.639
215.574
205.761
208.39
202.058
203.678
199.852
200.819
198.439
199.084
197.44
197.908
196.853
197.107
189.985
189.964
189.973
228.047
189.967
189.961
189.956
191.205
190.021
190.001
190.074
190.045
190.143
190.107
190.222
190.182
190.309
190.265
190.405
190.356
190.512
190.457
190.633
190.571
190.765
190.698
190.897
190.831
191.017
190.959
191.116
191.069
191.189
191.156
191.229
191.214
191.23
191.235
191.196
191.218
191.134
191.168
191.046
191.092
190.937
190.994
190.813
190.876
190.685
190.749
190.558
190.621
190.439
190.497
190.335
190.385
190.245
190.288
190.166
190.204
190.094
190.129
190.032
190.061
189.989
190.008
189.962
189.974
189.974
189.967
189.992
189.982
190.015
190.003
190.043
190.029
190.069
190.057
190.091
190.08
190.108
190.1
237.457
245.23
238.555
241.896
245.129
241.426
239.867
242.074
233.288
194.485
232.415
254.205
255.967
255.241
235.874
189.939
231.872
235.567
249.374
200.525
194.561
193.842
194.31
195.033
202.524
243.297
257.619
189.955
233.664
190.115
196.728
196.72
235.472
234.639
232.351
239.753
256.676
224.745
190.069
189.953
196.348
243.005
251.359
231.64
232.528
231.682
231.378
231.374
235.683
256.414
195.163
231.933
255.234
257.729
234.113
232.561
247.429
248.444
189.942
234.037
238.579
245.705
232.566
196.352
194.056
197.257
255.503
189.959
189.956
189.971
189.964
189.989
189.979
190.01
189.999
190.031
190.021
190.05
190.041
190.066
190.058
190.075
190.151
190.117
190.241
190.192
190.368
190.298
190.562
190.454
190.867
190.698
191.33
191.074
192.133
191.663
194.133
192.868
200.905
196.486
222.477
208.914
235.689
231.835
238.693
237.462
239.014
234.85
234.564
234.241
235.526
235.207
231.034
234.957
203.997
216.117
194.765
197.858
192.277
193.158
191.373
191.738
190.883
191.1
190.562
190.706
190.358
190.447
190.234
190.288
190.152
190.189
190.121
196.568
196.72
196.997
197.344
197.816
198.346
198.993
199.77
200.768
202.061
203.774
205.948
208.663
211.896
215.562
219.458
223.456
226.59
227.852
228.523
229.361
230.713
232.831
234.466
236.462
238.504
239.421
232.302
246.554
196.628
196.748
196.855
196.939
196.975
197.014
197.014
196.976
196.943
196.86
196.754
196.635
196.486
225.595
236.366
234.224
232.857
231.246
229.946
228.919
228.117
226.83
224.118
219.969
215.755
211.906
208.645
205.975
203.846
202.144
200.839
199.82
199.027
198.367
197.827
197.347
196.994
196.713
196.559
196.478
233.309
233.492
244.259
233.912
257.542
222.174
218.896
257.878
257.727
245.065
227.493
190.717
231.759
192.012
232.143
230.141
234.289
237.073
225.774
232.794
230.085
248.283
244.054
240.648
232.487
231.751
230.7
232.398
232.334
231.941
241.518
204.442
196.491
195.036
196.186
253.266
211.159
242.902
246.434
245.248
242.645
238.985
236.649
192.229
248.456
238.885
190.212
226.87
225.217
190.094
190.087
190.079
190.071
190.063
190.053
190.043
190.031
190.019
190.006
189.993
189.982
189.973
189.966
189.96
189.955
189.951
189.949
189.947
189.944
189.95
189.958
189.968
189.982
189.998
190.02
190.046
190.077
190.112
190.15
190.189
190.231
190.274
190.319
190.366
190.415
190.466
190.519
190.574
190.63
190.686
190.742
190.797
190.85
190.9
190.945
190.986
191.022
191.051
191.075
191.093
191.103
191.105
191.1
191.087
191.066
191.038
191.003
190.963
190.918
190.868
190.813
190.757
190.699
190.642
190.585
190.53
190.476
190.425
190.376
190.33
190.284
190.241
190.199
190.159
190.122
190.088
190.057
190.031
190.01
189.994
189.981
196.567
196.423
196.417
196.286
189.965
232.778
226.079
189.972
189.965
240.065
250.73
189.943
189.945
189.946
189.948
189.95
189.954
189.96
189.968
189.977
189.988
189.999
190.01
190.021
190.031
190.04
190.064
190.056
190.048
190.1
190.125
190.155
190.191
190.236
190.291
190.362
190.454
190.571
190.716
190.895
191.116
191.397
191.777
192.35
193.305
195.059
198.389
204.811
217.637
229.097
231.613
232.31
232.403
229.215
226.24
227.249
248.513
220.683
231.852
232.487
233.531
233.26
231.379
225.43
210.916
202.3
197.265
194.557
193.083
192.24
191.722
191.366
191.098
190.885
190.713
190.573
190.461
190.373
190.301
190.243
190.194
190.121
190.154
245.786
190.06
190.052
190.044
190.036
190.028
190.02
190.011
190.002
189.992
189.983
189.975
189.967
189.961
189.956
189.953
189.952
189.954
189.953
190.324
189.947
189.955
189.965
189.977
189.993
190.012
190.037
190.067
190.101
190.139
190.179
190.221
190.265
190.308
190.353
190.398
190.445
190.493
190.542
190.592
190.643
190.693
190.743
190.791
190.836
190.877
190.915
190.947
190.974
190.995
191.01
191.018
191.02
191.014
191.001
190.982
190.956
190.924
190.888
190.847
190.802
190.755
190.705
190.655
190.603
190.552
190.501
190.451
190.402
190.354
190.307
190.261
190.218
190.176
190.137
190.102
190.07
190.043
190.02
190.002
189.988
189.979
189.972
189.967
253.131
229.445
189.961
189.957
234.987
239.902
243.522
245.857
248.464
249.868
246.825
240.177
234.294
233.611
232.167
230.728
229.918
228.987
228.023
227.151
226.485
225.482
223.646
219.946
215.989
212.198
208.893
206.14
203.937
202.192
200.849
199.795
198.978
198.309
197.767
197.298
196.41
196.615
196.929
231.514
200.439
195.578
197.541
216.716
238.819
231.034
235.667
234.181
231.143
228.462
224.634
232.682
237.367
242.785
246.747
196.573
196.684
196.786
196.839
196.87
196.919
196.919
196.87
196.836
196.78
196.679
240.119
241.568
231.762
233.361
217.276
247.21
216.468
190.356
239.767
242.911
245.43
228.934
250.102
249.078
236.117
233.488
231.91
230.497
229.286
228
227.184
226.696
226.301
225.561
223.496
219.417
215.646
212.05
208.836
206.102
203.902
202.16
200.818
199.767
198.954
198.289
197.753
197.29
196.928
196.619
246.063
237.636
231.451
232.02
220.982
232.736
259.005
257.977
190.583
191.731
190.072
196.43
196.278
256.028
231.696
229.111
241.888
196.194
196.202
189.938
232.002
232.445
227.854
254.193
210.904
197.995
218.913
189.959
190.795
217.313
190.645
232.557
257.933
203.496
230.033
242.784
196.561
196.124
196.319
197.268
196.9
198.25
197.724
199.753
198.921
202.203
200.832
206.181
203.968
212.14
208.921
219.636
215.737
224.769
223.325
225.736
225.412
226.276
225.95
227.592
226.885
229.849
228.677
234.902
232.073
245.794
239.105
254.817
251.957
251.36
253.734
241.577
247.63
229.873
236.791
221.991
226.816
218.003
196.558
196.37
196.486
196.341
196.57
196.568
196.468
196.467
196.569
196.576
196.343
196.49
196.563
196.148
195.994
196.154
196.374
246.115
245.507
190.078
229.7
227.734
199.3
206.746
195.987
196.314
196.117
196.904
196.56
197.74
197.279
198.936
198.269
200.835
199.761
203.984
202.206
209.034
206.231
216.151
212.377
223.157
219.976
225.452
224.635
226.647
226.002
227.635
227.174
228.929
228.18
236.806
230.722
238.001
243.937
251.805
244.373
255.24
256.484
248.927
252.907
238.34
242.214
226.418
232.831
223.942
189.964
189.961
189.97
189.967
189.979
189.974
189.999
189.988
190.034
190.014
190.086
190.058
190.157
190.12
190.243
190.199
190.338
190.289
190.436
190.387
190.533
190.485
190.628
190.581
190.718
190.673
190.802
190.761
190.875
190.84
190.931
190.905
190.963
190.95
190.97
190.97
190.948
190.962
190.903
190.928
190.837
190.872
190.755
190.797
190.663
190.71
190.569
190.616
190.477
190.523
190.388
190.432
190.303
190.345
190.218
190.26
190.135
190.176
190.063
190.098
190.01
190.034
189.975
189.991
189.953
189.963
190.29
189.945
239.442
189.952
189.954
189.95
189.951
189.954
189.951
189.965
189.959
189.98
189.972
189.997
189.988
190.013
190.005
190.029
190.021
190.046
190.037
223.721
190.055
228.084
190.156
190.124
190.245
190.196
190.376
190.304
190.579
190.466
190.897
190.721
191.39
191.115
192.302
191.759
194.757
193.192
202.975
197.632
226.377
213.048
230.592
229.961
229.748
230.579
220.729
227.716
215.457
222.8
219.594
230.699
228.439
230.544
230.815
217.805
228.458
198.582
205.009
193.372
195.181
191.801
192.389
191.127
191.412
190.723
190.903
190.458
190.575
190.294
190.365
190.193
190.238
190.126
190.156
190.101
190.709
190.1
190.048
190.057
190.032
190.04
190.015
190.023
189.996
190.006
189.976
189.986
189.958
189.966
189.948
189.952
189.944
189.945
189.943
189.944
238.299
189.942
206.391
189.934
195.919
195.925
190.966
231.798
189.935
189.937
189.94
189.942
189.943
189.942
189.943
189.944
189.948
189.953
189.961
189.97
189.98
189.989
189.999
190.007
190.016
190.024
190.032
190.04
190.049
190.06
190.874
236.892
190.107
190.127
190.152
190.186
190.23
190.285
190.356
190.446
190.561
190.703
190.879
191.094
191.366
191.733
192.277
193.162
194.743
197.541
202.693
210.492
221.981
227.019
228.569
228.907
228.724
218.065
209.277
206.32
204.152
208.26
217.791
228.625
228.534
227.971
226.187
221.616
210.557
202.478
197.493
194.722
193.184
192.299
191.749
191.376
191.101
190.884
190.71
190.569
190.456
190.366
190.294
190.235
190.187
190.149
190.122
190.104
238.082
190.056
190.048
190.038
190.031
190.022
190.014
190.006
189.998
189.99
189.982
189.974
189.966
189.96
189.954
189.951
189.949
189.949
189.95
189.952
189.954
233.549
189.939
189.944
189.951
189.96
189.973
189.989
190.008
190.033
190.062
190.096
190.134
190.174
190.215
190.257
190.299
190.341
190.383
190.426
190.469
190.514
190.559
190.605
190.651
190.697
190.74
190.782
190.821
190.856
190.886
190.911
190.93
190.943
190.95
190.95
190.943
190.929
190.91
190.884
190.854
190.82
190.782
190.743
190.702
190.66
190.616
190.571
190.525
190.477
190.427
190.377
190.326
190.276
190.229
190.184
190.143
190.107
190.075
190.048
190.025
190.007
189.994
189.983
189.976
189.972
189.969
189.966
189.964
189.961
189.959
189.957
202.513
217.646
223.327
225.513
237.045
245.185
250.65
255.656
259.058
255.704
247.991
240.793
235.646
232.513
230.456
229.22
228.472
227.738
227.238
226.832
226.341
225.718
225.088
224.146
222.594
219.483
215.892
212.256
208.971
206.186
203.938
202.152
200.771
199.692
198.861
198.196
197.676
197.231
196.862
196.506
196.234
195.999
195.838
195.742
220.66
202.836
231.808
229.459
190.095
233.933
244.858
195.833
196.121
196.367
196.491
196.564
196.593
196.366
196.503
196.62
196.619
196.504
196.362
196.586
196.557
196.487
196.362
196.116
195.827
195.618
236.816
212.827
222.65
225.212
236.7
244.948
250.769
255.908
260.046
258.024
250.914
242.367
236.437
232.564
230.024
228.452
227.579
226.734
226.168
225.816
225.653
225.485
225.154
224.464
222.926
219.151
215.451
211.971
208.833
206.138
203.937
202.169
200.787
199.696
198.852
198.179
197.659
197.219
196.856
196.505
196.237
196.004
195.844
195.747
195.624
228.908
229.053
201.598
225.33
244.261
229.78
229.111
231.443
190.074
241.395
243.779
215.564
189.963
234.472
189.937
190.09
220.004
234.687
189.936
189.956
207.058
190.084
247.037
247.353
236.294
192.297
224.987
242.09
237.479
246.607
189.956
247.031
243.413
215.974
238.696
190.072
191.318
192.725
243.294
190.036
239.497
244.523
244.29
244.284
190.083
245.263
190.473
198.859
190.066
222.195
190.063
226.016
194.436
250.991
235.757
231.674
227.423
189.96
231.781
237.531
244.282
244.032
249.353
192.333
189.939
192.047
190.109
242.471
190.275
190.87
191.872
)
;

boundaryField
{
    wall
    {
        type            zeroGradient;
    }
    outlet
    {
        type            inletOutlet;
        inletValue      uniform 1e-05;
        value           nonuniform List<scalar> 
20
(
195.833
196.121
196.367
196.491
196.564
196.593
196.366
196.503
196.62
196.619
196.504
196.362
196.586
196.557
196.487
196.362
196.116
195.827
195.618
195.624
)
;
    }
    frontAndBackPlanes
    {
        type            empty;
    }
}


// ************************************************************************* //
