/*--------------------------------*- C++ -*----------------------------------*\
| =========                 |                                                 |
| \\      /  F ield         | OpenFOAM: The Open Source CFD Toolbox           |
|  \\    /   O peration     | Version:  2212                                  |
|   \\  /    A nd           | Website:  www.openfoam.com                      |
|    \\/     M anipulation  |                                                 |
\*---------------------------------------------------------------------------*/
FoamFile
{
    version     2.0;
    format      ascii;
    arch        "LSB;label=32;scalar=64";
    class       volVectorField;
    location    "0.000279";
    object      U;
}
// * * * * * * * * * * * * * * * * * * * * * * * * * * * * * * * * * * * * * //

dimensions      [0 1 -1 0 0 0 0];

internalField   nonuniform List<vector> 
22212
(
(3.65e-15 1.36 -13.2)
(3.97e-14 1.64 -12.9)
(-3.33e-13 2.02 -12.5)
(-1.29e-12 2.33 -12)
(4.67e-12 2.93 -11.5)
(1.16e-12 3.84 -10.8)
(-8.47e-12 5.12 -10)
(1.12e-11 6.51 -9.27)
(-5.54e-12 7.4 -8.86)
(-1.06e-12 7.77 -8.78)
(-3.88e-12 7.86 -8.87)
(-1.54e-11 7.75 -9)
(-6.49e-13 7.54 -9.19)
(-1.9e-11 7.52 -9.24)
(1.19e-11 7.64 -9.19)
(-1.17e-12 7.79 -9.08)
(-3.23e-13 7.93 -8.99)
(-5.9e-12 8.06 -8.9)
(2.41e-12 8.18 -8.82)
(7.11e-12 8.28 -8.72)
(5.29e-13 8.37 -8.64)
(4.94e-12 8.48 -8.57)
(-3.31e-12 8.58 -8.51)
(1.47e-11 8.69 -8.43)
(-3.31e-13 8.81 -8.35)
(5e-12 8.93 -8.26)
(1.04e-12 9.06 -8.15)
(6.55e-12 9.19 -8.05)
(-8.16e-12 9.28 -7.97)
(1.49e-11 9.38 -7.91)
(-1.46e-11 9.48 -7.81)
(9.02e-12 9.59 -7.74)
(3.92e-12 9.71 -7.65)
(-7.01e-12 9.81 -7.54)
(1.48e-11 9.95 -7.45)
(1.46e-12 10.1 -7.33)
(7.45e-13 10.2 -7.22)
(-2.04e-11 10.3 -7.12)
(-9.98e-12 10.5 -7.01)
(1.01e-11 10.6 -6.87)
(3.78e-12 10.8 -6.73)
(1.16e-11 10.9 -6.57)
(-2.92e-12 11.1 -6.41)
(-1.3e-12 11.3 -6.24)
(6.64e-12 11.5 -6.04)
(-6.49e-12 11.7 -5.89)
(1.74e-11 11.8 -5.77)
(-1.29e-11 12 -5.6)
(1.27e-11 12.1 -5.45)
(-4.61e-12 12.3 -5.3)
(-3.57e-12 12.5 -5.14)
(-1.25e-11 12.6 -4.92)
(1.98e-11 12.8 -4.69)
(2.06e-11 13.1 -4.46)
(1.25e-12 13.2 -4.26)
(8.27e-12 13.3 -4.11)
(-5.98e-12 13.4 -3.96)
(1.07e-11 13.6 -3.76)
(-3.06e-11 13.8 -3.49)
(4.73e-11 14 -3.24)
(-3.12e-12 14.1 -3.03)
(-2.2e-11 14.2 -2.86)
(3.61e-11 14.2 -2.76)
(-2.7e-11 14.2 -2.58)
(2.12e-11 14.4 -2.34)
(-8.52e-12 14.5 -2.09)
(2.08e-11 14.6 -1.86)
(-1.54e-11 14.7 -1.62)
(-2.1e-11 14.8 -1.38)
(4.33e-11 14.8 -1.18)
(-5.53e-11 14.8 -0.961)
(3.43e-11 14.9 -0.687)
(-2.51e-11 15 -0.404)
(2.6e-11 15.1 -0.129)
(-1.63e-12 15.1 0.0864)
(-8.81e-12 15.2 0.302)
(2.76e-12 15.2 0.585)
(-6.39e-12 15.3 0.892)
(-1.06e-11 15.3 1.19)
(-1.46e-11 15.4 1.49)
(-3.89e-12 15.4 1.8)
(-1.92e-11 15.4 2.07)
(1.95e-11 15.4 2.35)
(-2.79e-11 15.4 2.66)
(-3.57e-12 15.4 2.95)
(-1.39e-11 15.4 3.18)
(-5.85e-12 15.4 3.4)
(-4.02e-12 15.4 3.67)
(1.58e-11 15.5 3.98)
(7.02e-12 15.5 4.32)
(5.04e-13 15.4 4.63)
(7.91e-12 15.3 4.91)
(8.38e-12 15.3 5.18)
(-3.22e-12 15.3 5.46)
(4.56e-12 15.3 5.8)
(-5.65e-13 15.3 6.11)
(-5.22e-12 15.2 6.37)
(1.25e-11 15.1 6.64)
(-4.17e-12 15.1 6.96)
(-5.44e-13 15 7.27)
(5.21e-12 14.9 7.52)
(1.43e-11 14.7 7.75)
(2.67e-12 14.7 8.01)
(1.62e-11 14.6 8.27)
(8.48e-12 14.5 8.5)
(3.3e-12 14.3 8.77)
(-2.01e-11 14.3 9.03)
(2e-11 14.2 9.24)
(-2.97e-11 14.1 9.49)
(1.03e-11 14 9.77)
(1.48e-12 13.9 9.96)
(6.69e-12 13.9 10.2)
(-1.13e-12 13.7 10.4)
(-6.81e-12 13.6 10.6)
(-4.5e-12 13.5 10.8)
(6.5e-12 13.4 10.9)
(1.07e-11 13.3 11.1)
(1.8e-12 13.2 11.3)
(4.24e-12 13.1 11.4)
(4.74e-12 13 11.6)
(-1.08e-11 12.9 11.8)
(3.74e-12 12.8 11.9)
(4.62e-12 12.7 12.1)
(6.88e-12 12.5 12.2)
(2.53e-12 12.4 12.2)
(9.33e-14 12.3 12.4)
(-2.05e-12 12.2 12.5)
(-1.41e-12 12.1 12.6)
(5.62e-14 12 12.7)
(-4.18e-13 12 12.8)
(1.3e-12 11.8 13)
(3.25e-12 11.7 13.1)
(2.43e-12 11.6 13.1)
(-2.03e-12 11.4 13.2)
(2.52e-12 11.4 13.4)
(1.64e-12 11.2 13.5)
(3.72e-12 11.1 13.6)
(8.05e-12 10.9 13.7)
(8.02e-12 10.9 13.7)
(4.4e-12 10.8 13.9)
(-2.63e-12 10.7 13.9)
(-7.19e-12 10.6 14)
(-6.24e-12 10.5 14.1)
(-4.4e-12 10.4 14.2)
(1.77e-12 10.3 14.3)
(4.49e-12 10.2 14.4)
(8.51e-14 10.1 14.5)
(-2.76e-12 9.93 14.6)
(-4.79e-12 9.83 14.7)
(1.04e-12 9.69 14.8)
(9.45e-12 9.6 14.9)
(8.1e-12 9.48 15.1)
(5.66e-12 9.33 15.2)
(9.1e-12 9.18 15.3)
(6.69e-12 9.07 15.4)
(-9e-12 8.92 15.5)
(-6.08e-12 8.77 15.6)
(-1.76e-11 8.64 15.7)
(-1.15e-11 8.49 15.8)
(-8.23e-12 8.28 15.8)
(-4.5e-12 7.94 15.9)
(1.43e-11 7.42 16.1)
(-4.46e-11 6.65 16.3)
(1.08e-11 5.71 16.6)
(-2.93e-11 4.86 16.8)
(-1.65e-11 4.34 17)
(-1.28e-11 4.18 17.2)
(-1.63e-11 4.09 17.4)
(-7.75e-12 4.04 17.7)
(-1.65e-11 3.99 17.9)
(-2.04e-11 3.84 18.2)
(-1.12e-11 3.6 18.5)
(-1.52e-11 3.26 18.8)
(-9.63e-12 2.96 19.2)
(-1.16e-11 2.71 19.7)
(-1.39e-11 2.52 20)
(-1.88e-12 1.2 -12.9)
(-1.5e-12 1.55 -12.5)
(-2.37e-12 2.02 -12)
(-3.58e-12 2.45 -11.4)
(2.19e-12 3.18 -10.7)
(1.1e-11 4.2 -9.85)
(5.03e-12 5.53 -9.07)
(7.33e-12 6.79 -8.58)
(9.47e-12 7.46 -8.56)
(1.99e-11 7.74 -8.67)
(1.4e-12 7.76 -8.89)
(-2.78e-11 7.58 -9.13)
(-1.21e-11 7.45 -9.21)
(-3.07e-11 7.51 -9.15)
(8.24e-12 7.63 -9.08)
(-4.75e-12 7.77 -8.95)
(2.01e-12 7.92 -8.86)
(-1.08e-11 8.07 -8.76)
(3.48e-12 8.19 -8.68)
(1.36e-11 8.29 -8.61)
(5.19e-13 8.38 -8.54)
(-2.93e-12 8.47 -8.45)
(-8.23e-12 8.57 -8.38)
(1.65e-11 8.68 -8.28)
(1.76e-11 8.8 -8.19)
(1.35e-11 8.95 -8.08)
(4.12e-12 9.07 -7.98)
(1.5e-11 9.17 -7.89)
(-1.19e-11 9.26 -7.81)
(3.28e-11 9.36 -7.72)
(-2.23e-11 9.45 -7.62)
(3.1e-11 9.54 -7.52)
(5.44e-12 9.67 -7.44)
(-1.51e-11 9.79 -7.34)
(2.15e-11 9.92 -7.23)
(-8.23e-12 10 -7.11)
(1.07e-11 10.1 -7)
(-1.05e-11 10.3 -6.88)
(-5.9e-13 10.4 -6.76)
(2.92e-11 10.5 -6.62)
(5.64e-12 10.7 -6.46)
(8.26e-12 10.9 -6.3)
(-8.36e-12 11.1 -6.12)
(5.28e-13 11.3 -5.93)
(5.58e-13 11.4 -5.78)
(2.1e-12 11.5 -5.64)
(7.41e-12 11.7 -5.48)
(7.77e-12 11.8 -5.32)
(2.03e-11 12 -5.18)
(-1.52e-11 12.1 -5.04)
(5.46e-12 12.3 -4.86)
(-4.89e-12 12.5 -4.63)
(2.72e-11 12.7 -4.41)
(1.36e-11 12.8 -4.24)
(3.35e-12 13 -4.08)
(2.24e-11 13 -3.91)
(-6.51e-12 13.2 -3.69)
(1.59e-11 13.4 -3.45)
(-4.64e-11 13.6 -3.23)
(4.14e-11 13.8 -3.07)
(1.64e-11 13.8 -2.93)
(-3.74e-11 13.8 -2.79)
(4.43e-11 13.9 -2.58)
(-2.58e-11 14 -2.34)
(2.48e-11 14.2 -2.13)
(-8.1e-12 14.3 -1.88)
(1.68e-11 14.4 -1.67)
(-6.98e-12 14.5 -1.48)
(-3.04e-11 14.5 -1.3)
(5.3e-11 14.6 -1.08)
(-6.55e-11 14.7 -0.787)
(3.81e-11 14.8 -0.51)
(-2.67e-11 14.9 -0.292)
(2.83e-11 14.9 -0.0917)
(2.48e-12 14.9 0.14)
(-1.73e-11 14.9 0.425)
(-4.91e-12 15 0.715)
(-1.87e-11 15.1 0.99)
(-2.33e-11 15.1 1.27)
(-1.84e-11 15.2 1.55)
(-1.78e-11 15.2 1.81)
(-2.26e-11 15.2 2.1)
(2.38e-11 15.2 2.43)
(-3.72e-11 15.3 2.7)
(3.56e-13 15.2 2.91)
(-1.61e-11 15.2 3.18)
(-1.5e-14 15.2 3.49)
(-6.3e-13 15.2 3.76)
(2.36e-11 15.2 4)
(1.28e-11 15.2 4.27)
(-9.17e-13 15.1 4.55)
(5.15e-12 15.1 4.85)
(8.63e-12 15.1 5.18)
(1.28e-12 15.1 5.52)
(8.97e-12 15.1 5.79)
(2.85e-12 15 6.01)
(-6.07e-12 14.9 6.26)
(9.75e-12 14.9 6.58)
(-5.64e-12 14.9 6.9)
(1.42e-12 14.8 7.14)
(3.67e-12 14.6 7.35)
(1.25e-11 14.6 7.61)
(3.92e-12 14.5 7.9)
(1.58e-11 14.4 8.13)
(6.26e-12 14.3 8.38)
(1.83e-11 14.3 8.66)
(1.47e-11 14.2 8.88)
(2.45e-11 14.1 9.11)
(-1.98e-11 14 9.36)
(-2.68e-12 13.9 9.59)
(8.51e-12 13.8 9.81)
(1.11e-11 13.8 10)
(3.67e-12 13.6 10.2)
(-1.39e-11 13.5 10.4)
(-1.69e-11 13.4 10.6)
(3.63e-12 13.3 10.7)
(1.6e-11 13.2 10.9)
(-1.38e-12 13.1 11.1)
(2.54e-12 13 11.3)
(1.48e-11 13 11.5)
(-9.94e-12 12.8 11.5)
(7.02e-12 12.7 11.7)
(3.82e-12 12.6 11.8)
(7.78e-12 12.5 11.9)
(2.37e-12 12.4 12)
(-1.35e-12 12.3 12.1)
(-9.97e-13 12.2 12.2)
(-4.72e-12 12.1 12.4)
(7.13e-13 12 12.5)
(-6.11e-13 11.9 12.6)
(4.05e-13 11.8 12.7)
(9.29e-13 11.7 12.8)
(-9.16e-14 11.5 13)
(-3.74e-12 11.4 13.1)
(3.87e-12 11.3 13.2)
(2.91e-12 11.1 13.3)
(4.65e-12 11 13.4)
(1.08e-11 10.9 13.5)
(1.07e-11 10.8 13.6)
(3.01e-12 10.7 13.7)
(-5.66e-12 10.6 13.8)
(-9.64e-12 10.5 13.9)
(-6.43e-12 10.4 13.9)
(-1.97e-12 10.3 14)
(4.42e-12 10.2 14.2)
(5.89e-12 10.1 14.3)
(-1.55e-12 9.94 14.4)
(-4.8e-12 9.84 14.5)
(-5.38e-12 9.72 14.6)
(2.72e-12 9.6 14.7)
(7.53e-12 9.53 14.8)
(4.67e-12 9.4 14.9)
(4.67e-12 9.25 15)
(8.93e-12 9.12 15.1)
(7.22e-12 9 15.2)
(-3.12e-12 8.82 15.3)
(5.83e-12 8.68 15.4)
(-1.05e-11 8.54 15.5)
(-9.38e-12 8.36 15.5)
(2.33e-12 8.11 15.6)
(-4.22e-11 7.73 15.7)
(3.3e-11 7.13 15.9)
(-4.16e-11 6.29 16.1)
(-9.06e-12 5.31 16.4)
(-9.67e-12 4.44 16.7)
(-1.96e-11 3.94 16.9)
(-1.32e-11 3.77 17.1)
(-1.61e-11 3.69 17.3)
(-1.46e-11 3.64 17.6)
(-1.05e-11 3.58 17.8)
(-2.42e-11 3.43 18.1)
(-7.31e-12 3.22 18.3)
(-1.66e-11 2.92 18.6)
(-1.51e-11 2.64 18.9)
(-7.6e-12 2.38 19.5)
(-1.46e-11 2.17 19.8)
(-5.86e-12 1.22 -12.6)
(-3.92e-12 1.64 -12.1)
(-7.37e-12 2.19 -11.4)
(-5.14e-12 2.68 -10.7)
(-1.96e-12 3.48 -9.85)
(-3.66e-11 4.49 -8.93)
(-8.77e-12 5.7 -8.31)
(-1.3e-11 6.67 -8.15)
(-2.47e-11 7.27 -8.4)
(-5.63e-12 7.51 -8.69)
(1.29e-11 7.52 -9.04)
(-9.83e-12 7.42 -9.22)
(-7.15e-12 7.44 -9.19)
(-3.25e-11 7.5 -9.07)
(4.02e-12 7.63 -8.97)
(-8.51e-12 7.77 -8.84)
(8.23e-12 7.92 -8.75)
(-1.14e-11 8.04 -8.66)
(-2.88e-12 8.16 -8.59)
(1.2e-11 8.26 -8.51)
(3.43e-12 8.35 -8.43)
(-1.45e-11 8.44 -8.35)
(-1.7e-13 8.53 -8.27)
(2.54e-12 8.65 -8.18)
(-8.56e-12 8.77 -8.08)
(-6.21e-12 8.89 -7.96)
(-4.8e-12 9.02 -7.87)
(1.15e-11 9.12 -7.77)
(-1.07e-11 9.23 -7.68)
(3.36e-11 9.33 -7.6)
(-2.51e-11 9.43 -7.5)
(3.83e-11 9.52 -7.38)
(3.17e-13 9.65 -7.29)
(-6.71e-12 9.77 -7.21)
(2.14e-11 9.89 -7.09)
(-1.4e-11 9.99 -6.99)
(1.33e-11 10.1 -6.88)
(-9.81e-12 10.2 -6.76)
(3.27e-12 10.4 -6.64)
(2.58e-11 10.5 -6.49)
(-3.13e-12 10.7 -6.32)
(-2.32e-12 10.8 -6.15)
(-5.12e-12 11.1 -5.96)
(5.12e-12 11.2 -5.81)
(8.33e-12 11.4 -5.69)
(1.84e-11 11.5 -5.53)
(3.28e-11 11.7 -5.38)
(1.91e-11 11.8 -5.23)
(2.33e-11 12 -5.09)
(-1.17e-11 12.1 -4.94)
(2.52e-11 12.3 -4.75)
(5.17e-11 12.5 -4.53)
(4e-12 12.6 -4.32)
(-3.98e-13 12.8 -4.15)
(1.78e-11 12.9 -4)
(3.12e-11 13.1 -3.8)
(-2.86e-12 13.3 -3.53)
(3.03e-11 13.4 -3.29)
(-4.61e-11 13.5 -3.12)
(1.4e-11 13.6 -3.03)
(3.76e-11 13.7 -2.93)
(-3.78e-11 13.7 -2.73)
(3.58e-11 13.9 -2.46)
(-1.04e-11 14 -2.22)
(1.62e-11 14.1 -2)
(1.71e-12 14.2 -1.78)
(1.32e-11 14.3 -1.59)
(9.45e-12 14.3 -1.42)
(-3.92e-11 14.4 -1.23)
(6.55e-11 14.5 -0.966)
(-6.69e-11 14.6 -0.675)
(2.48e-11 14.7 -0.438)
(-2.88e-11 14.7 -0.262)
(2.09e-11 14.7 -0.0705)
(1.85e-11 14.8 0.194)
(-1.56e-11 14.9 0.493)
(-1.65e-11 15 0.765)
(-2.74e-11 15 1.03)
(-3.58e-11 15 1.33)
(-2.48e-11 15 1.61)
(2.21e-11 15.1 1.89)
(1.26e-11 15.1 2.17)
(1.91e-11 15.1 2.45)
(-4.18e-11 15.1 2.68)
(5.32e-12 15.1 2.92)
(-1.66e-11 15.1 3.22)
(8.47e-12 15.1 3.49)
(-8.7e-13 15.1 3.69)
(2.39e-11 15.1 3.93)
(9.5e-12 15.1 4.25)
(-1.03e-11 15.1 4.53)
(-4.18e-12 15.1 4.84)
(5.33e-12 15.1 5.19)
(2.75e-12 15 5.47)
(8.21e-12 14.9 5.68)
(2.64e-12 14.9 5.93)
(-7.12e-12 14.9 6.27)
(9.44e-12 14.9 6.59)
(-8.01e-12 14.8 6.81)
(-1.74e-12 14.7 6.98)
(-5.64e-13 14.6 7.26)
(6.05e-12 14.5 7.58)
(-2.11e-12 14.4 7.81)
(9.41e-12 14.3 8.05)
(-8.55e-12 14.3 8.35)
(5.3e-12 14.2 8.61)
(-4.65e-11 14.1 8.82)
(-1.61e-11 14 9.06)
(2.49e-13 13.9 9.29)
(-7.46e-12 13.8 9.53)
(7.03e-12 13.7 9.76)
(9.24e-12 13.6 9.92)
(9.5e-13 13.5 10.1)
(-1.28e-11 13.4 10.3)
(-1.3e-11 13.3 10.5)
(3.51e-12 13.2 10.7)
(9.17e-12 13.1 10.9)
(-2.19e-12 13 11)
(8.56e-13 13 11.2)
(1.62e-11 12.8 11.4)
(-3.57e-12 12.7 11.4)
(1.89e-11 12.6 11.6)
(-6.28e-12 12.5 11.8)
(1.24e-11 12.4 11.9)
(1.41e-12 12.3 11.9)
(-8.62e-13 12.2 12)
(1.53e-12 12.2 12.2)
(-6.99e-12 12.1 12.3)
(4.34e-12 12 12.4)
(2.67e-12 11.9 12.5)
(7.67e-13 11.8 12.6)
(-2.94e-12 11.6 12.7)
(-1.59e-12 11.5 12.9)
(-4.46e-12 11.4 13)
(3.57e-12 11.3 13.2)
(3.74e-12 11.2 13.2)
(6.32e-12 11.1 13.3)
(1.2e-11 11 13.4)
(8.59e-12 10.9 13.5)
(5.79e-13 10.7 13.6)
(-7.04e-12 10.7 13.7)
(-9.88e-12 10.5 13.8)
(-7.47e-12 10.4 13.9)
(-1.07e-12 10.3 14)
(3.67e-12 10.2 14.1)
(4.7e-12 10 14.2)
(-2.44e-12 9.92 14.3)
(-3.8e-12 9.77 14.4)
(-4.14e-12 9.64 14.5)
(3.94e-12 9.57 14.6)
(1.97e-12 9.46 14.7)
(-1.02e-12 9.33 14.8)
(5.45e-12 9.21 14.9)
(5.44e-12 9.08 15)
(2.66e-12 8.95 15.1)
(3.62e-12 8.83 15.2)
(2.02e-11 8.71 15.2)
(1.32e-11 8.56 15.3)
(1.61e-11 8.37 15.4)
(6.66e-12 8.13 15.5)
(-4.48e-11 7.72 15.6)
(1.22e-11 7.07 15.7)
(-8.43e-13 6.18 16)
(-3.22e-11 5.2 16.2)
(1.71e-11 4.33 16.5)
(-4.35e-12 3.84 16.8)
(1.01e-11 3.64 17)
(1.26e-11 3.57 17.2)
(-1.74e-11 3.52 17.4)
(-7.82e-12 3.46 17.7)
(-1.27e-11 3.32 18)
(7.99e-12 3.12 18.2)
(-1.82e-11 2.85 18.4)
(-1.48e-11 2.59 18.7)
(4.26e-12 2.35 19.2)
(-8.63e-12 2.13 19.6)
(-5.19e-12 1.12 -12.2)
(-2.18e-12 1.63 -11.5)
(-9.7e-12 2.31 -10.7)
(-9.29e-12 2.89 -9.82)
(-1.42e-12 3.76 -8.88)
(1.72e-11 4.74 -8.01)
(1.76e-11 5.7 -7.71)
(5.35e-12 6.48 -7.84)
(2.33e-11 7.02 -8.26)
(2.65e-11 7.22 -8.7)
(1.23e-11 7.3 -9.09)
(-9.75e-12 7.34 -9.2)
(-3.31e-12 7.42 -9.11)
(-3.1e-11 7.5 -8.97)
(5.89e-12 7.62 -8.85)
(-1.54e-11 7.75 -8.72)
(8.6e-12 7.89 -8.64)
(-8.46e-12 8.01 -8.57)
(-9.45e-12 8.13 -8.5)
(7.53e-12 8.24 -8.42)
(4.63e-13 8.34 -8.34)
(-4.69e-12 8.43 -8.26)
(-1.24e-11 8.52 -8.17)
(-2.91e-12 8.64 -8.08)
(1.51e-11 8.77 -7.97)
(1.94e-11 8.88 -7.86)
(5.25e-12 9 -7.76)
(9.56e-12 9.12 -7.66)
(-8.65e-12 9.22 -7.56)
(2.14e-11 9.35 -7.47)
(-1.56e-11 9.47 -7.37)
(2.45e-11 9.57 -7.25)
(2.83e-11 9.68 -7.15)
(1.33e-11 9.81 -7.06)
(3.45e-11 9.92 -6.95)
(-1.6e-11 10 -6.84)
(1.1e-11 10.1 -6.72)
(-1.96e-11 10.2 -6.6)
(1.01e-12 10.4 -6.47)
(1.88e-11 10.5 -6.32)
(-4.11e-12 10.7 -6.13)
(-1.84e-12 10.9 -5.92)
(3.15e-12 11.1 -5.75)
(-2.45e-12 11.2 -5.63)
(2.59e-11 11.4 -5.5)
(-9.74e-12 11.5 -5.34)
(-2.52e-11 11.7 -5.18)
(-2.08e-11 11.8 -5.03)
(-4.69e-12 11.9 -4.9)
(7.23e-12 12.1 -4.74)
(-9.91e-13 12.2 -4.55)
(-1.74e-11 12.4 -4.34)
(-2.89e-11 12.5 -4.16)
(-3.9e-12 12.6 -4.01)
(1.55e-11 12.8 -3.81)
(2.34e-11 13 -3.56)
(-1.11e-11 13.1 -3.36)
(3.31e-11 13.2 -3.2)
(-3.99e-11 13.3 -3.07)
(-6.06e-12 13.3 -2.95)
(4.94e-11 13.5 -2.77)
(-3.35e-11 13.6 -2.55)
(2.3e-11 13.8 -2.34)
(-4.62e-12 13.8 -2.13)
(6.1e-12 13.9 -1.91)
(7.85e-12 14 -1.73)
(1.47e-11 14 -1.56)
(1.69e-11 14.1 -1.35)
(-5.31e-11 14.2 -1.11)
(7.17e-11 14.3 -0.878)
(-6.97e-11 14.4 -0.668)
(5.41e-12 14.4 -0.475)
(-3.22e-11 14.4 -0.243)
(1.22e-11 14.5 0.0345)
(2.42e-11 14.6 0.316)
(-1.86e-12 14.7 0.564)
(-9.61e-12 14.7 0.8)
(3.49e-11 14.7 1.04)
(1.21e-11 14.8 1.31)
(-2.88e-11 14.8 1.59)
(-3.42e-11 14.9 1.88)
(-5.91e-11 14.9 2.16)
(2.16e-11 14.9 2.39)
(-4.12e-11 14.9 2.65)
(9.75e-12 14.9 2.97)
(-1.61e-11 14.9 3.24)
(1.18e-11 14.9 3.46)
(-6.33e-12 14.9 3.72)
(1.51e-11 14.9 4.01)
(9.83e-13 14.9 4.28)
(-1.47e-11 14.9 4.57)
(-5.54e-12 14.9 4.87)
(4.72e-14 14.9 5.13)
(-4e-12 14.8 5.36)
(5.22e-12 14.7 5.66)
(2.25e-12 14.8 6)
(-1.06e-11 14.8 6.32)
(1.25e-11 14.7 6.53)
(-7.41e-12 14.5 6.68)
(-6.79e-12 14.5 6.9)
(-3.63e-12 14.5 7.22)
(2.77e-12 14.4 7.52)
(-8.28e-12 14.3 7.78)
(3.16e-12 14.3 8.06)
(-1.37e-11 14.2 8.33)
(2.6e-11 14 8.52)
(-3.98e-12 13.9 8.72)
(7.53e-12 13.9 8.97)
(-1.1e-11 13.8 9.2)
(1.03e-11 13.7 9.43)
(1.41e-11 13.6 9.61)
(1.28e-11 13.5 9.79)
(4.56e-12 13.4 10)
(-7.81e-12 13.3 10.2)
(-5.77e-12 13.2 10.4)
(5.2e-12 13.2 10.6)
(7.27e-12 13.1 10.7)
(1.47e-12 13 10.9)
(-6.3e-12 12.9 11)
(1.62e-11 12.7 11.1)
(-3.25e-13 12.6 11.3)
(3.04e-11 12.6 11.5)
(-1.12e-11 12.5 11.6)
(1.44e-11 12.4 11.7)
(2.73e-13 12.3 11.8)
(-3.37e-12 12.2 12)
(3.22e-13 12.1 12.1)
(-9.53e-12 12.1 12.2)
(5.91e-12 12 12.3)
(3.44e-12 11.9 12.4)
(2.55e-12 11.7 12.5)
(-3.36e-12 11.6 12.6)
(1.77e-12 11.6 12.8)
(-3.51e-12 11.4 12.9)
(3.81e-12 11.3 13)
(6.29e-12 11.2 13.1)
(7.79e-12 11.1 13.2)
(1.09e-11 11 13.3)
(5.25e-12 10.9 13.4)
(-1.64e-12 10.8 13.5)
(-6.82e-12 10.7 13.6)
(-9.88e-12 10.6 13.7)
(-9.88e-12 10.4 13.8)
(-1.61e-12 10.3 13.9)
(1.04e-12 10.1 14)
(7.02e-13 10 14.1)
(-3.52e-12 9.89 14.2)
(-3.31e-12 9.72 14.3)
(-3.11e-12 9.59 14.4)
(4.78e-12 9.52 14.5)
(-4.43e-13 9.38 14.6)
(-6.09e-12 9.24 14.7)
(1.09e-11 9.09 14.8)
(1.01e-12 8.96 14.9)
(-1.08e-11 8.84 15)
(-2.61e-11 8.74 15)
(-1.91e-11 8.61 15.1)
(-1.04e-11 8.47 15.1)
(7.91e-12 8.29 15.2)
(2.9e-11 8.02 15.3)
(-2.13e-11 7.58 15.4)
(2.81e-11 6.87 15.6)
(1.64e-12 5.91 15.8)
(-1.38e-12 4.84 16.1)
(6.46e-12 3.97 16.4)
(-2.35e-11 3.48 16.7)
(-3.41e-11 3.27 16.9)
(7.2e-12 3.19 17.1)
(-6.21e-13 3.12 17.3)
(8.75e-12 3.05 17.6)
(-1.87e-11 2.92 17.8)
(1.35e-11 2.73 18)
(-8.91e-12 2.48 18.2)
(3.2e-12 2.27 18.4)
(1.11e-11 2.05 18.9)
(8.41e-13 1.83 19.4)
(-4.78e-12 1.16 -11.7)
(-4.57e-13 1.79 -10.8)
(-1.05e-11 2.58 -9.92)
(-5.47e-12 3.24 -8.9)
(-6.56e-12 4.11 -7.97)
(-2.91e-11 4.93 -7.36)
(-5.92e-11 5.6 -7.38)
(-1.75e-11 6.3 -7.69)
(-3.09e-11 6.73 -8.21)
(-1.31e-11 6.94 -8.7)
(7.58e-12 7.09 -9.06)
(2.74e-11 7.24 -9.12)
(7.91e-12 7.39 -9.01)
(-3.57e-11 7.5 -8.85)
(1.52e-11 7.62 -8.72)
(-2.62e-11 7.73 -8.6)
(1.61e-12 7.86 -8.54)
(-1.94e-12 7.97 -8.48)
(-1.18e-11 8.09 -8.42)
(5.04e-12 8.2 -8.33)
(5.64e-12 8.32 -8.24)
(-6.85e-12 8.42 -8.14)
(-8.16e-12 8.53 -8.06)
(4.83e-13 8.64 -7.96)
(-3.03e-16 8.76 -7.87)
(3.31e-12 8.87 -7.76)
(4.77e-13 8.97 -7.64)
(4.72e-12 9.09 -7.53)
(-6.65e-12 9.2 -7.43)
(1.65e-12 9.32 -7.31)
(-1.69e-13 9.45 -7.22)
(3.86e-12 9.58 -7.12)
(-1.48e-11 9.69 -7)
(-1.78e-11 9.82 -6.9)
(2.13e-11 9.93 -6.79)
(-2.02e-11 10 -6.68)
(1.39e-11 10.1 -6.55)
(-1.96e-11 10.2 -6.43)
(6.1e-12 10.4 -6.28)
(1.7e-11 10.5 -6.12)
(9.38e-12 10.7 -5.92)
(5.78e-12 10.9 -5.73)
(9.09e-12 11 -5.59)
(-1.72e-13 11.2 -5.47)
(6.86e-12 11.3 -5.32)
(-7.3e-12 11.5 -5.17)
(2.77e-11 11.6 -5.04)
(1.32e-11 11.7 -4.91)
(-1.04e-13 11.9 -4.78)
(-8.68e-12 12 -4.61)
(3.05e-11 12.2 -4.44)
(2.7e-11 12.3 -4.27)
(1.03e-11 12.4 -4.08)
(2.39e-12 12.6 -3.87)
(-3.46e-11 12.8 -3.65)
(2.13e-12 12.9 -3.45)
(-1.54e-11 13.1 -3.3)
(2.6e-11 13.1 -3.17)
(-2.39e-11 13.2 -3.06)
(-3.05e-11 13.3 -2.87)
(6.57e-11 13.5 -2.64)
(-2.24e-11 13.6 -2.44)
(8.67e-12 13.7 -2.27)
(4.19e-12 13.7 -2.08)
(3.42e-15 13.8 -1.88)
(6.34e-12 13.8 -1.69)
(-6.42e-13 13.9 -1.47)
(4.24e-11 14 -1.23)
(-7.42e-11 14.1 -1.01)
(5.58e-11 14.1 -0.829)
(-6.69e-11 14.2 -0.668)
(-1.95e-13 14.2 -0.442)
(-3.05e-11 14.3 -0.156)
(4.84e-12 14.4 0.118)
(2.53e-11 14.5 0.345)
(-1.19e-12 14.5 0.545)
(2.99e-12 14.5 0.789)
(-2e-11 14.6 1.08)
(-3.41e-11 14.7 1.36)
(2.66e-11 14.7 1.65)
(5.19e-11 14.7 1.92)
(-3.03e-11 14.7 2.14)
(2.09e-11 14.7 2.38)
(-4.45e-11 14.8 2.69)
(1.89e-11 14.8 2.97)
(-1.41e-11 14.8 3.2)
(1.89e-11 14.8 3.45)
(-1.43e-11 14.8 3.72)
(5.36e-12 14.8 3.97)
(-2.86e-12 14.8 4.25)
(-9.04e-12 14.8 4.58)
(2.77e-12 14.8 4.85)
(-1.44e-12 14.7 5.07)
(-1.25e-11 14.7 5.35)
(-2.49e-14 14.8 5.69)
(3.86e-12 14.7 5.99)
(-1.4e-11 14.6 6.2)
(1.71e-11 14.5 6.38)
(-2.71e-12 14.4 6.63)
(-8.52e-12 14.5 6.95)
(-5.06e-12 14.5 7.25)
(6.6e-12 14.4 7.48)
(-9.94e-12 14.3 7.72)
(4.92e-12 14.2 7.97)
(-1.65e-11 14.1 8.15)
(1.26e-11 13.9 8.37)
(-1.68e-11 13.9 8.64)
(3.55e-12 13.8 8.9)
(1.11e-11 13.8 9.12)
(9.96e-12 13.7 9.31)
(1.49e-11 13.6 9.49)
(1.23e-11 13.6 9.71)
(5.81e-12 13.5 9.92)
(3.22e-13 13.4 10.1)
(5.79e-13 13.3 10.3)
(1.78e-12 13.2 10.5)
(5.23e-12 13.1 10.6)
(1.19e-11 13 10.8)
(-1.38e-11 12.8 10.9)
(1.95e-11 12.7 11)
(-3.48e-12 12.7 11.2)
(3.94e-11 12.7 11.4)
(-6.15e-12 12.5 11.5)
(1.17e-11 12.3 11.6)
(1.8e-12 12.3 11.7)
(-8.14e-12 12.2 11.9)
(-1.17e-12 12.1 12)
(-1.31e-11 12 12.1)
(5.02e-12 11.9 12.2)
(2.89e-12 11.8 12.3)
(6.29e-12 11.7 12.4)
(-1.49e-12 11.6 12.6)
(8.91e-12 11.6 12.7)
(9e-14 11.5 12.8)
(5.55e-12 11.3 12.9)
(8.67e-12 11.2 13.1)
(7.8e-12 11.2 13.1)
(7.49e-12 11 13.2)
(2.09e-13 10.9 13.3)
(-3.01e-12 10.8 13.4)
(-3.92e-12 10.7 13.5)
(-9.8e-12 10.6 13.6)
(-1.19e-11 10.5 13.7)
(-3.05e-12 10.3 13.8)
(-2.64e-12 10.2 13.9)
(-3.98e-12 10.1 14)
(-4.46e-12 9.9 14.1)
(-4.52e-12 9.75 14.2)
(-5.9e-12 9.67 14.3)
(1.7e-12 9.54 14.4)
(1.83e-12 9.38 14.5)
(-1.63e-11 9.24 14.6)
(1.65e-11 9.07 14.7)
(7.23e-12 8.95 14.8)
(1.11e-11 8.83 14.8)
(7.14e-12 8.71 14.9)
(6.23e-12 8.57 14.9)
(-4.6e-12 8.42 15)
(-1.05e-11 8.23 15.1)
(3.59e-14 7.95 15.2)
(-2.47e-11 7.46 15.3)
(6.01e-12 6.71 15.5)
(2.06e-11 5.72 15.7)
(3.4e-11 4.66 16)
(6.97e-11 3.8 16.3)
(4.95e-11 3.31 16.6)
(-3.79e-12 3.1 16.8)
(-2.2e-11 3 17)
(-2.18e-11 2.93 17.2)
(3.29e-11 2.85 17.5)
(-1.63e-11 2.73 17.7)
(2.75e-12 2.55 17.9)
(-5.85e-12 2.3 18.1)
(5.33e-13 2.11 18.2)
(1.27e-11 1.93 18.7)
(6.38e-13 1.72 19.1)
(-5.1e-12 1.17 -11.2)
(-3.64e-12 1.92 -10.1)
(-2.17e-12 2.82 -9.02)
(-1.28e-11 3.52 -8.01)
(-1.04e-11 4.33 -7.22)
(2.56e-11 4.88 -6.94)
(2.78e-11 5.42 -7.19)
(1.86e-11 6.04 -7.6)
(-8.74e-12 6.41 -8.2)
(1.51e-11 6.66 -8.65)
(-2.41e-11 6.89 -8.94)
(1.28e-11 7.14 -8.96)
(-4.66e-12 7.34 -8.85)
(-5.75e-11 7.49 -8.71)
(2.99e-11 7.62 -8.6)
(-2.94e-11 7.72 -8.48)
(-6.92e-12 7.83 -8.43)
(5.11e-12 7.94 -8.38)
(-4.57e-12 8.06 -8.32)
(4.95e-12 8.18 -8.22)
(6.3e-12 8.31 -8.12)
(6.03e-13 8.43 -8.01)
(-1.06e-11 8.54 -7.92)
(-8.21e-12 8.66 -7.83)
(7.32e-12 8.77 -7.75)
(1.41e-11 8.87 -7.65)
(9.25e-12 8.98 -7.53)
(1.95e-12 9.07 -7.41)
(-2.4e-12 9.2 -7.31)
(-5.07e-13 9.31 -7.19)
(-8.05e-12 9.43 -7.08)
(-3.36e-12 9.56 -6.98)
(-2.91e-13 9.69 -6.86)
(1.15e-11 9.83 -6.76)
(1.46e-11 9.94 -6.64)
(-6.08e-12 10.1 -6.51)
(1.09e-11 10.2 -6.39)
(-6.55e-13 10.3 -6.26)
(2.3e-11 10.4 -6.11)
(3.95e-11 10.5 -5.92)
(1.02e-11 10.7 -5.74)
(3.17e-13 10.9 -5.58)
(1.79e-11 11 -5.44)
(-4.66e-12 11.2 -5.28)
(2.98e-11 11.3 -5.15)
(-1.62e-11 11.4 -5.02)
(-1.3e-11 11.5 -4.88)
(-1.39e-11 11.7 -4.75)
(-1.53e-11 11.8 -4.61)
(-1.37e-13 11.9 -4.46)
(1.57e-12 12 -4.29)
(-2.57e-11 12.1 -4.11)
(-1.92e-12 12.3 -3.9)
(4.22e-11 12.4 -3.66)
(-1.84e-11 12.6 -3.48)
(-1.44e-11 12.7 -3.31)
(-1.24e-11 12.8 -3.19)
(1.54e-11 12.9 -3.09)
(-2.48e-12 13.1 -2.92)
(-3.67e-11 13.2 -2.7)
(5.67e-11 13.3 -2.52)
(-2.82e-12 13.3 -2.35)
(2.16e-12 13.4 -2.18)
(1.01e-11 13.5 -2)
(-2.91e-12 13.6 -1.81)
(3.28e-12 13.7 -1.57)
(-2.17e-11 13.8 -1.34)
(5.88e-11 13.8 -1.14)
(-7.86e-11 13.9 -0.971)
(3.98e-11 13.9 -0.785)
(-5.93e-11 14 -0.54)
(7.41e-12 14.1 -0.267)
(-1.62e-11 14.2 -0.0294)
(4.36e-12 14.2 0.167)
(1.73e-11 14.2 0.363)
(-7.23e-12 14.3 0.626)
(6.87e-12 14.4 0.909)
(3.05e-11 14.4 1.17)
(-1.8e-12 14.5 1.42)
(-7.46e-11 14.5 1.67)
(-6.72e-11 14.5 1.91)
(-5.12e-11 14.5 2.18)
(1.78e-11 14.6 2.5)
(-3.38e-11 14.6 2.75)
(2.05e-11 14.6 2.96)
(-7.25e-12 14.6 3.24)
(2.01e-11 14.7 3.54)
(-1.82e-11 14.6 3.75)
(-5.33e-12 14.6 3.97)
(-9.04e-12 14.6 4.29)
(-4.24e-12 14.6 4.59)
(1.47e-11 14.6 4.79)
(7.03e-12 14.6 5.07)
(-9.66e-12 14.7 5.41)
(-2.57e-12 14.6 5.69)
(7.82e-12 14.5 5.88)
(-1.45e-11 14.4 6.09)
(1.73e-11 14.4 6.35)
(3.77e-12 14.4 6.66)
(-5.14e-12 14.4 6.97)
(-7.18e-12 14.3 7.19)
(1.44e-11 14.2 7.36)
(-7.81e-12 14.1 7.61)
(1.63e-11 14 7.88)
(3.4e-11 13.9 8.09)
(2.29e-11 13.9 8.36)
(-4.71e-12 13.9 8.62)
(-1.5e-12 13.8 8.82)
(8.68e-12 13.7 9)
(1.08e-11 13.6 9.2)
(2e-12 13.6 9.43)
(9.8e-13 13.5 9.63)
(-2.09e-13 13.4 9.79)
(8.2e-12 13.3 9.99)
(1.05e-11 13.2 10.2)
(1.04e-12 13.2 10.4)
(-3.18e-12 13 10.5)
(2.23e-11 12.9 10.6)
(-1.64e-11 12.8 10.7)
(3.01e-11 12.8 11)
(3.92e-11 12.8 11.1)
(3.55e-11 12.6 11.2)
(1.23e-11 12.4 11.3)
(6.37e-12 12.4 11.5)
(6.9e-12 12.3 11.6)
(-1.1e-11 12.2 11.8)
(-3.79e-12 12.1 11.9)
(-1.52e-11 12 12)
(1.76e-12 11.9 12.1)
(-1.1e-13 11.8 12.2)
(8.46e-12 11.8 12.4)
(-3.65e-13 11.7 12.5)
(1.47e-11 11.5 12.6)
(4.65e-12 11.4 12.7)
(8.16e-12 11.3 12.8)
(8.95e-12 11.3 12.9)
(4.23e-12 11.1 13)
(2.61e-12 11 13.1)
(-2.58e-12 10.9 13.2)
(-3.75e-12 10.8 13.3)
(-2.07e-12 10.7 13.4)
(-8.43e-12 10.5 13.5)
(-1.03e-11 10.4 13.6)
(-2.39e-12 10.3 13.7)
(-4.27e-12 10.1 13.8)
(-4.45e-12 10 13.9)
(-2.83e-12 9.85 14)
(-3.74e-12 9.74 14.1)
(-7.83e-12 9.64 14.2)
(-1.15e-11 9.49 14.3)
(1.38e-11 9.37 14.4)
(-2.9e-11 9.23 14.5)
(4.15e-12 9.07 14.6)
(-1.64e-11 8.95 14.6)
(-2.3e-11 8.82 14.7)
(-1.94e-11 8.69 14.7)
(8.4e-12 8.55 14.8)
(2.46e-11 8.39 14.8)
(1.91e-11 8.17 14.9)
(1.59e-11 7.84 15)
(7.96e-12 7.31 15.1)
(-1.86e-11 6.52 15.3)
(-1.94e-11 5.46 15.5)
(-3.28e-11 4.36 15.8)
(-3.9e-11 3.49 16.2)
(-3.78e-11 3.01 16.4)
(1.5e-11 2.79 16.7)
(2.4e-11 2.69 16.9)
(3.12e-13 2.62 17.1)
(-9.03e-12 2.53 17.4)
(-2.23e-11 2.41 17.6)
(1.5e-11 2.24 17.8)
(1.27e-12 1.99 17.9)
(-2.64e-11 1.84 18.1)
(2.37e-11 1.68 18.5)
(-1.98e-12 1.48 18.9)
(-1.58e-12 1.25 -10.5)
(-5.23e-13 2.13 -9.26)
(-5.27e-13 3.1 -8.2)
(-5.53e-12 3.77 -7.25)
(-2.64e-12 4.43 -6.73)
(-7.09e-12 4.74 -6.73)
(-4.1e-11 5.24 -7.13)
(-1.99e-11 5.77 -7.62)
(-5.85e-11 6.16 -8.2)
(4.55e-12 6.47 -8.55)
(-3.51e-11 6.78 -8.75)
(3.13e-11 7.09 -8.76)
(2.44e-11 7.31 -8.7)
(-5.01e-11 7.48 -8.59)
(3.15e-11 7.63 -8.49)
(6.48e-12 7.74 -8.38)
(6.8e-12 7.84 -8.32)
(8.94e-12 7.94 -8.27)
(5.22e-12 8.06 -8.21)
(8.14e-12 8.18 -8.12)
(6.77e-12 8.31 -8.02)
(3.84e-13 8.43 -7.91)
(-1.13e-11 8.55 -7.79)
(-9.75e-12 8.67 -7.71)
(-4.32e-12 8.78 -7.63)
(1.19e-12 8.89 -7.53)
(3.22e-12 8.99 -7.42)
(-3.66e-12 9.08 -7.31)
(7.36e-12 9.19 -7.19)
(-5.7e-12 9.31 -7.07)
(2.12e-12 9.42 -6.96)
(6.71e-12 9.55 -6.86)
(-2.07e-11 9.67 -6.75)
(-1.46e-11 9.81 -6.63)
(1.84e-12 9.94 -6.51)
(8.83e-12 10.1 -6.37)
(2.65e-11 10.1 -6.24)
(1.58e-11 10.3 -6.11)
(9.29e-12 10.4 -5.96)
(-1.36e-11 10.6 -5.77)
(-2.6e-11 10.7 -5.6)
(-1.7e-11 10.8 -5.46)
(1.46e-11 11 -5.28)
(-4.99e-12 11.1 -5.12)
(2.51e-11 11.3 -5)
(-1.75e-11 11.4 -4.87)
(2.54e-11 11.5 -4.74)
(2.09e-11 11.6 -4.61)
(1.01e-11 11.7 -4.48)
(-1.09e-11 11.8 -4.34)
(-2.19e-11 12 -4.19)
(2.02e-11 12.1 -4.01)
(1.21e-11 12.2 -3.8)
(-3.46e-11 12.4 -3.58)
(-3.72e-11 12.5 -3.4)
(-1.69e-11 12.6 -3.25)
(-2.18e-11 12.7 -3.14)
(-9.39e-12 12.8 -3.02)
(9.35e-12 12.9 -2.84)
(-4.07e-11 13 -2.66)
(4.93e-11 13.1 -2.51)
(8.59e-12 13.2 -2.36)
(-3.65e-12 13.2 -2.15)
(5.96e-12 13.4 -1.93)
(-1.09e-11 13.5 -1.73)
(-4.42e-12 13.6 -1.5)
(-2.85e-11 13.7 -1.3)
(6.24e-11 13.7 -1.14)
(-7.24e-11 13.8 -0.971)
(3.28e-11 13.8 -0.735)
(-3.4e-11 13.9 -0.474)
(-3.44e-12 14 -0.235)
(6.25e-12 14 -0.0558)
(6.58e-12 14 0.115)
(4.42e-12 14.1 0.361)
(-1.54e-11 14.2 0.671)
(6.24e-12 14.3 0.933)
(-2.24e-11 14.3 1.16)
(-3.7e-11 14.3 1.41)
(1.6e-11 14.4 1.65)
(5.5e-11 14.4 1.91)
(-3.2e-11 14.5 2.21)
(-1.92e-12 14.5 2.47)
(-2.21e-11 14.5 2.68)
(2.52e-11 14.5 2.96)
(-9.74e-15 14.6 3.29)
(2.38e-11 14.5 3.51)
(-1.72e-11 14.5 3.71)
(-9.82e-12 14.5 4.01)
(-1.39e-11 14.6 4.31)
(-5.96e-12 14.5 4.53)
(1.86e-11 14.5 4.79)
(1.79e-11 14.6 5.13)
(-1.08e-12 14.5 5.41)
(-7.01e-13 14.4 5.59)
(1.41e-11 14.3 5.81)
(-1.23e-11 14.4 6.11)
(1.06e-11 14.4 6.42)
(4.26e-12 14.4 6.69)
(-2.33e-12 14.3 6.89)
(-1.36e-11 14.2 7.06)
(1.39e-11 14 7.29)
(-1.57e-11 14 7.59)
(-1.61e-11 14 7.86)
(-3.85e-11 13.9 8.11)
(-1.92e-11 13.9 8.37)
(5.68e-12 13.8 8.55)
(3.45e-12 13.7 8.7)
(2.24e-12 13.6 8.91)
(2.81e-12 13.6 9.14)
(1.5e-12 13.5 9.35)
(-1.22e-11 13.4 9.5)
(-2.81e-12 13.3 9.68)
(1.2e-11 13.2 9.92)
(1.82e-11 13.2 10.1)
(9.67e-12 13 10.2)
(-1.22e-11 12.9 10.3)
(2.14e-11 12.8 10.5)
(-2e-11 12.8 10.7)
(-4.48e-12 12.8 10.9)
(-4.1e-12 12.6 11)
(8.07e-12 12.5 11.1)
(2.6e-11 12.4 11.3)
(7.77e-12 12.4 11.5)
(7.13e-12 12.3 11.6)
(-8.49e-12 12.2 11.7)
(-4.62e-12 12.1 11.8)
(-1.51e-11 12 11.9)
(-6.03e-13 11.9 12)
(-6.89e-12 11.8 12.2)
(9.54e-12 11.7 12.3)
(-5.16e-12 11.7 12.4)
(1.61e-11 11.5 12.5)
(7.34e-12 11.4 12.6)
(1e-11 11.3 12.7)
(7.05e-12 11.2 12.8)
(-7.39e-13 11.1 12.9)
(-4.19e-13 11 13)
(-2.57e-12 10.9 13.1)
(-2.73e-12 10.7 13.2)
(-6.71e-13 10.6 13.3)
(-5.83e-12 10.5 13.4)
(-7.93e-12 10.4 13.5)
(-1.74e-12 10.2 13.6)
(-5.9e-12 10.1 13.7)
(-3.56e-12 9.94 13.8)
(3.49e-13 9.8 13.9)
(4.16e-12 9.7 14)
(1.11e-11 9.55 14.1)
(1.65e-11 9.43 14.2)
(9.41e-12 9.33 14.3)
(-5.35e-12 9.19 14.4)
(1.18e-11 9.07 14.4)
(1.74e-11 8.96 14.5)
(2.31e-12 8.82 14.6)
(-1.27e-11 8.68 14.6)
(-1.97e-11 8.55 14.6)
(-1.59e-11 8.38 14.7)
(-1.26e-11 8.13 14.8)
(6.36e-12 7.76 14.9)
(7.65e-12 7.19 15)
(2.42e-11 6.33 15.2)
(9.51e-12 5.23 15.5)
(2.28e-11 4.09 15.8)
(9.82e-12 3.22 16.1)
(3.04e-12 2.76 16.4)
(-7.28e-12 2.52 16.6)
(7e-12 2.42 16.8)
(1.46e-11 2.34 17)
(2.6e-11 2.26 17.2)
(-1.78e-11 2.17 17.5)
(6.07e-12 1.99 17.7)
(2.28e-12 1.74 17.8)
(-2.53e-12 1.59 17.9)
(1.51e-12 1.46 18.3)
(-4.37e-13 1.29 18.7)
(1.78e-12 1.36 -9.83)
(2.97e-12 2.33 -8.39)
(3.04e-12 3.32 -7.37)
(-1.37e-12 3.93 -6.61)
(-6.47e-12 4.36 -6.41)
(5.5e-12 4.57 -6.63)
(2.65e-11 4.99 -7.11)
(4.41e-11 5.49 -7.66)
(-2.02e-11 5.94 -8.16)
(3.2e-11 6.34 -8.39)
(-2.64e-11 6.7 -8.51)
(1.28e-11 7.01 -8.54)
(2.84e-11 7.26 -8.54)
(-2.99e-11 7.44 -8.45)
(8.5e-12 7.6 -8.36)
(-5.15e-12 7.72 -8.28)
(-8.46e-12 7.82 -8.23)
(-7.93e-12 7.92 -8.17)
(5.03e-12 8.05 -8.11)
(9.95e-12 8.17 -8.02)
(3.94e-12 8.29 -7.92)
(3.49e-12 8.41 -7.8)
(-8.23e-12 8.53 -7.69)
(-1.47e-11 8.65 -7.6)
(-7.28e-12 8.78 -7.51)
(-2.22e-13 8.89 -7.4)
(3.08e-12 8.99 -7.3)
(-4.83e-12 9.09 -7.18)
(1.55e-12 9.2 -7.05)
(-2.34e-12 9.31 -6.95)
(-3.92e-12 9.42 -6.84)
(-4.97e-12 9.53 -6.74)
(7.61e-12 9.65 -6.64)
(2.27e-12 9.79 -6.51)
(1.19e-11 9.92 -6.38)
(1.23e-11 10 -6.24)
(-4.8e-12 10.1 -6.1)
(-3.76e-11 10.3 -5.96)
(-7.43e-12 10.4 -5.81)
(1.22e-11 10.5 -5.64)
(6.37e-12 10.6 -5.48)
(-8.55e-13 10.8 -5.32)
(1.57e-11 11 -5.13)
(-1.46e-11 11.1 -4.98)
(2.53e-11 11.2 -4.86)
(-8.25e-12 11.3 -4.72)
(-3.25e-11 11.4 -4.58)
(-2.36e-11 11.5 -4.46)
(-5.1e-12 11.7 -4.34)
(-1e-11 11.7 -4.2)
(-3.21e-11 11.9 -4.05)
(-6.04e-11 12 -3.87)
(-1.49e-11 12.1 -3.66)
(2.62e-11 12.2 -3.46)
(6.14e-11 12.3 -3.29)
(-5.15e-13 12.4 -3.16)
(2.3e-12 12.5 -3.05)
(-1.44e-11 12.6 -2.89)
(2.07e-11 12.7 -2.72)
(-3.98e-11 12.8 -2.57)
(3.29e-11 12.9 -2.43)
(2.24e-11 13 -2.25)
(-6.38e-12 13.2 -2.01)
(5.37e-12 13.3 -1.79)
(-5.57e-12 13.4 -1.6)
(2.12e-11 13.4 -1.42)
(4.43e-12 13.5 -1.26)
(5.43e-11 13.5 -1.07)
(-5.29e-11 13.6 -0.836)
(6.51e-11 13.7 -0.608)
(1.87e-11 13.7 -0.404)
(-1.44e-11 13.8 -0.219)
(7.46e-12 13.8 -0.0251)
(3.8e-12 13.8 0.221)
(4.11e-12 14 0.515)
(-6.26e-12 14.1 0.764)
(2.19e-11 14.1 0.969)
(5.27e-11 14.1 1.18)
(1.13e-11 14.1 1.44)
(-7.58e-11 14.2 1.72)
(-8.03e-11 14.3 2.01)
(-4.22e-11 14.3 2.26)
(2.3e-11 14.3 2.47)
(-2.83e-11 14.3 2.74)
(3.17e-11 14.4 3.05)
(4.82e-12 14.4 3.28)
(2.33e-11 14.4 3.48)
(-9.29e-12 14.4 3.76)
(-1.01e-11 14.5 4.04)
(-1.68e-11 14.4 4.28)
(-1.28e-11 14.4 4.55)
(1.23e-11 14.4 4.86)
(2.15e-11 14.5 5.11)
(6.59e-12 14.3 5.29)
(-3.61e-12 14.3 5.53)
(1.84e-11 14.3 5.86)
(-8.85e-12 14.4 6.17)
(3.3e-12 14.4 6.41)
(9.68e-13 14.2 6.59)
(6.53e-13 14.1 6.76)
(-1.81e-11 14 6.97)
(1.24e-11 14 7.28)
(-5.3e-12 14 7.58)
(1.81e-11 13.9 7.83)
(1.82e-11 13.8 8.08)
(9.17e-13 13.8 8.29)
(-1.45e-11 13.6 8.41)
(-1.65e-12 13.5 8.58)
(9.71e-12 13.5 8.85)
(7.46e-12 13.5 9.06)
(-2.64e-13 13.4 9.23)
(1.69e-13 13.3 9.41)
(8.66e-13 13.2 9.63)
(1.12e-11 13.2 9.88)
(1.05e-11 13.1 10)
(1.85e-11 12.9 10.1)