/*--------------------------------*- C++ -*----------------------------------*\
| =========                 |                                                 |
| \\      /  F ield         | OpenFOAM: The Open Source CFD Toolbox           |
|  \\    /   O peration     | Version:  2212                                  |
|   \\  /    A nd           | Website:  www.openfoam.com                      |
|    \\/     M anipulation  |                                                 |
\*---------------------------------------------------------------------------*/
FoamFile
{
    version     2.0;
    format      ascii;
    arch        "LSB;label=32;scalar=64";
    class       volScalarField;
    location    "0.047";
    object      T;
}
// * * * * * * * * * * * * * * * * * * * * * * * * * * * * * * * * * * * * * //

dimensions      [0 0 0 1 0 0 0];

internalField   nonuniform List<scalar> 
7220
(
207.377
272.778
272.731
272.67
272.728
272.694
272.725
272.714
272.649
272.676
210.965
273.381
269.057
225.475
226.342
272.285
249.051
214.731
250.469
213.329
258.552
271.076
272.652
271.055
272.662
272.542
272.044
219.041
258.416
264.635
272.679
266.781
272.762
263.238
272.432
201.513
272.791
212.715
210.746
232.821
232.609
232.57
232.8
199.263
199.588
199.551
199.323
199.093
232.493
232.384
232.329
232.442
232.355
232.09
232.223
232.276
230.912
228.685
229.51
231.451
225.55
221.811
222.084
226.364
217.406
212.409
212.15
217.239
208.292
205.192
204.886
207.996
202.811
201.176
200.996
202.58
200.205
199.607
199.544
200.104
199.314
199.088
199.057
199.27
198.941
198.949
198.969
198.97
199.127
199.228
233.141
233.119
233.109
233.16
199.89
199.857
199.338
199.597
199.361
199.847
199.564
201.334
200.441
205.001
202.915
211.222
207.802
216.784
214.591
220.504
218.657
225.207
222.751
230.778
228.081
233.296
232.736
233.285
233.254
232.815
233.129
228.913
231.301
223.451
226.009
219.138
221.089
214.205
217.039
207.046
210.484
202.332
204.328
200.205
200.968
199.489
199.73
199.32
199.281
233.298
233.207
199.714
199.829
200.244
199.911
199.327
199.507
199.86
199.797
199.747
199.896
200.182
199.971
201.203
200.543
203.951
202.278
208.888
206.168
214.078
211.852
216
215.217
217.753
216.809
220.487
218.986
224.872
222.429
230.82
227.764
234.201
233.281
233.407
234.086
234.083
233.607
233.611
233.915
233.975
233.35
233.71
234.07
228.568
231.501
223.018
225.586
219.281
220.915
217.013
218.006
215.143
216.108
211.044
213.696
205.294
207.925
201.733
203.173
200.316
200.83
200.007
200.402
200.088
200.515
200.746
233.636
234.094
234.09
235.096
200.192
200.737
200.603
200.037
200.802
201.02
200.741
200.065
200.418
200.656
201.573
201.083
203.714
202.408
207.904
205.572
213.021
210.624
214.994
214.358
215.638
215.362
216.563
216.055
218.139
217.275
220.594
219.216
224.654
222.344
230.661
227.42
235.167
233.443
234.137
234.101
234.022
233.603
228.227
231.457
222.856
225.332
219.443
220.952
217.359
218.28
216.115
216.618
215.333
215.65
214.057
214.876
209.656
212.324
204.665
206.92
201.831
202.927
201.134
200.499
235.177
234.978
200.241
201.117
201.353
200.57
200.634
201.677
202.185
201.415
200.297
230.654
233.871
234.145
234.985
200.367
201.001
201.724
201.516
202.744
202.372
202.12
200.624
201.611
202.208
201.831
203.969
202.912
207.568
205.518
212.456
209.996
214.892
214.087
215.341
215.197
215.562
215.452
216.195
215.792
217.234
216.688
218.656
217.895
220.888
219.638
224.686
222.532
227.422
235.097
233.974
234.236
234.607
234.555
234.007
234.489
228.142
231.562
222.936
225.329
219.836
221.216
217.954
218.775
216.677
217.233
215.769
216.174
215.424
215.531
215.108
215.304
213.645
214.712
208.918
211.609
204.498
206.478
203.09
201.34
201.292
201.74
201.497
202.038
200.729
236.193
236.333
203.528
204.628
202.884
202.803
200.605
200.961
201.415
202.54
200.723
203.315
203.033
201.952
201.489
202.696
203.142
204.541
203.583
207.7
205.915
212.195
209.828
215.053
214.033
215.578
215.425
215.72
215.659
215.899
215.776
216.263
216.04
217.014
216.56
217.998
217.486
219.367
218.614
221.521
220.308
225.182
223.148
230.891
227.854
234.531
235.116
236.56
234.476
234.422
235.031
234.972
234.39
234.598
236.382
234.991
235.208
228.462
231.809
223.468
225.713
220.47
221.764
218.671
219.439
217.478
217.985
216.505
216.961
215.957
216.157
215.762
215.827
215.684
215.722
215.382
215.577
213.453
214.824
208.549
211.126
206.354
202.394
202.555
202.388
202.322
202.563
201.529
200.961
201.012
202.536
206.633
208.507
205.251
226.225
228.827
236.311
237.644
201.397
201.855
202.399
203.76
204.136
204.57
204.253
201.722
200.956
202.987
201.102
202.486
203.584
204.011
205.288
204.477
208.182
206.539
212.245
210.093
215.342
214.167
216.037
215.852
216.174
216.142
216.265
216.203
216.479
216.335
216.776
216.594
217.169
216.931
217.903
217.448
218.959
218.387
220.412
219.597
222.633
221.379
224.214
237.386
235.267
236.451
235.081
234.776
235.437
235.397
234.784
235.159
235.17
229.391
224.473
226.663
221.471
222.76
219.621
220.413
218.375
218.932
217.387
217.84
216.834
217.052
216.476
216.639
216.289
216.372
216.22
216.25
216.186
216.212
215.795
216.055
213.294
214.983
210.86
203.9
204.412
203.478
203.623
203.454
203.396
203.707
201.267
203.737
231.917
232.616
213.256
211
202.603
202.023
201.413
201.815
202.321
202.874
205.028
204.74
208.159
204.067
272.718
203.465
203.604
205.12
206.21
205.538
208.944
207.38
212.592
210.667
215.744
214.457
216.61
216.373
216.775
216.749
216.83
216.801
216.959
216.885
217.191
217.058
217.455
217.299
217.757
217.558
218.233
217.915
219.065
218.543
220.326
219.607
221.993
221.059
224.401
223.071
228.08
226.009
230.699
238.339
235.649
235.41
236.54
235.674
235.312
235.851
235.84
235.352
235.702
236.366
235.353
236.364
238.054
231.169
226.207
228.368
223.127
224.467
221.04
221.94
219.555
220.221
218.458
218.938
217.804
218.086
217.433
217.618
217.166
217.323
216.954
217.069
216.845
216.899
216.793
216.818
216.723
216.78
216.194
216.579
215.148
206.241
209.061
207.43
204.97
205.433
204.542
204.682
204.712
204.537
205.425
205.061
206.871
206.34
205.511
205.862
201.648
272.795
203.635
204.928
201.856
272.692
227.128
228.936
239.431
234.617
202.295
206.035
202.799
205.262
204.576
203.364
203.957
272.755
272.718
272.716
272.694
272.044
272.727
202.876
202.407
272.786
203.215
207.316
206.836
201.929
201.958
203.812
272.803
204.812
272.096
204.088
204.868
272.8
206.454
205.067
206.105
206.186
206.394
206.219
207.33
206.749
209.88
208.362
213.224
211.529
216.26
214.95
217.268
216.977
217.47
217.431
217.521
217.497
217.615
217.572
217.777
217.71
217.987
217.911
218.228
218.128
218.535
218.381
218.976
218.718
219.678
219.237
220.772
220.089
222.37
221.441
224.383
223.243
225.601
234.089
238.295
239.07
235.737
236.677
236.266
236.001
236.304
236.314
236.046
236.256
236.535
235.729
237.962
229.102
225.608
227.135
223.164
224.264
221.338
222.216
219.945
220.615
219.061
219.509
218.535
218.817
218.205
218.393
217.967
218.1
217.762
217.865
217.605
217.666
217.514
217.545
217.455
217.474
217.355
217.438
216.666
217.166
213.678
215.497
210.021
211.736
207.224
208.423
206.103
206.516
205.81
205.91
206.121
205.901
206.444
272.75
272.752
272.72
202.124
201.907
272.764
216.461
272.082
207.927
231.281
231.525
272.682
202.84
202.469
202.391
202.306
206.577
272.705
203.605
207.592
207.922
207.856
202.764
205.805
205.122
204.445
242.644
203.303
223.596
205.362
272.68
203.881
204.488
272.763
272.756
208.525
272.737
272.734
272.785
207.856
207.643
208.716
208.173
211.001
209.599
214.21
212.631
216.936
215.716
217.997
217.659
218.238
218.175
218.297
218.272
218.389
218.35
218.525
218.465
218.697
218.631
218.891
218.816
219.14
219.041
219.483
219.345
219.987
219.765
220.726
220.357
221.788
221.205
223.307
222.422
225.438
224.209
228.057
226.553
231.461
229.471
233.479
237.987
234.17
238.411
240.61
236.253
236.857
236.844
236.649
236.815
236.831
236.691
236.813
236.716
236.323
240.256
238.093
234.422
238.513
233.647
229.534
231.374
226.517
227.889
224.102
225.275
222.242
223.142
220.993
221.619
220.139
220.56
219.555
219.825
219.153
219.314
218.869
218.963
218.649
218.72
218.464
218.525
218.332
218.374
218.242
218.274
218.193
218.209
218.07
218.179
217.301
217.858
214.472
216.145
211.024
212.708
208.428
209.496
207.509
207.858
207.287
207.354
207.365
272.671
272.678
207.927
272.789
272.745
202.6
202.344
272.708
207.728
207.153
272.63
272.651
272.818
203.289
208.905
208.966
208.357
202.791
202.949
202.875
272.688
206.379
272.833
233.701
235.621
238.141
236.196
205.681
272.721
204.042
208.464
272.741
272.734
272.733
272.727
272.594
203.272
272.359
272.3
272.651
272.49
272.392
272.33
204.846
208.735
272.772
272.813
272.823
272.802
272.605
203.826
205.036
205.742
272.72
204.415
272.24
272.166
272.281
206.819
272.72
272.213
272.711
272.689
208.378
272.844
209.151
271.942
210.464
210.004
212.465
211.253
215.38
213.918
217.819
216.695
218.849
218.489
219.107
219.021
219.17
219.127
219.26
219.2
219.375
219.304
219.524
219.444
219.69
219.607
219.912
219.807
220.221
220.083
220.668
220.471
221.312
221.031
222.205
221.812
223.403
222.854
225.001
224.221
227.179
226.029
230.116
228.527
231.692
236.238
241.495
237.529
238.545
240.615
237.014
237.126
237.431
237.34
237.394
237.405
237.363
237.396
237.031
237.065
240.18
238.28
241.813
235.564
231.571
233.685
228.341
230.073
225.779
227.101
223.964
224.88
222.616
223.256
221.602
222.042
220.842
221.137
220.292
220.481
219.9
220.029
219.624
219.716
219.416
219.49
219.257
219.319
219.135
219.188
219.046
219.083
219.001
219.019
218.87
218.986
218.073
218.64
215.484
216.981
212.304
213.93
209.955
210.866
209.114
209.435
208.976
272.654
272.832
272.853
272.848
272.587
272.742
272.179
203.084
210.677
209.196
202.827
272.446
272.481
272.424
272.604
272.53
272.573
272.669
272.587
239.123
206.972
208.44
272.816
238.057
238.077
206.275
272.662
272.492
272.602
272.569
272.732
203.774
272.874
208.836
272.795
272.745
272.722
272.725
272.7
203.298
203.473
203.389
272.375
272.62
272.492
272.539
272.499
272.464
272.515
272.554
272.641
272.658
272.269
272.756
272.781
272.683
272.689
272.391
204.509
208.994
272.65
272.768
272.232
203.802
272.315
272.432
272.442
272.511
205.613
205.302
220.724
209.353
272.702
272.808
272.774
272.734
272.682
272.789
272.68
204.369
272.221
272.273
272.359
272.444
216.59
272.407
204.977
206.183
272.682
272.268
272.285
272.355
272.187
207.261
272.679
272.4
272.357
272.121
272.665
272.262
209.02
207.587
222.852
272.181
272.646
209.828
262.148
214.006
212.798
216.773
215.389
218.816
217.922
219.744
219.412
220.016
219.928
220.095
220.051
220.19
220.13
220.306
220.231
220.441
220.351
220.61
220.498
220.826
220.683
221.145
220.949
221.579
221.323
222.196
221.846
223.063
222.6
224.213
223.629
225.692
224.967
227.577
226.673
229.998
228.835
233.126
231.59
237.186
235.187
241.807
239.59
244.685
239.397
240.707
243.428
242.187
238.754
240.707
237.761
237.648
238.044
238.028
238.028
238.032
238.02
238.004
237.596
237.778
240.381
238.5
243.183
243.347
241.009
240.471
244.725
239.442
241.915
235.048
237.243
231.412
233.085
228.653
229.858
226.499
227.381
224.803
225.469
223.471
223.985
222.441
222.841
221.68
221.983
221.143
221.369
220.763
220.941
220.489
220.63
220.305
220.413
220.155
220.251
220.026
220.106
219.931
219.987
219.868
219.904
219.72
219.851
218.926
219.476
216.762
217.988
213.861
215.355
211.664
212.557
210.851
211.151
210.731
206.886
272.277
272.878
272.739
272.555
272.635
272.532
272.866
272.818
272.851
272.758
272.78
272.739
272.744
272.737
203.594
209.535
221.822
272.671
203.333
272.439
272.583
272.601
272.641
272.609
272.697
210.207
272.888
272.892
272.839
272.821
272.728
272.715
225.086
272.601
272.568
272.53
272.388
272.441
272.654
272.445
272.584
272.543
272.755
204.278
209.343
272.677
272.737
272.862
272.664
203.841
204.009
203.933
272.386
272.621
272.497
272.541
272.566
206.211
272.854
247.261
250.126
246.318
248.81
272.64
272.339
205.011
272.609
209.593
272.667
272.791
272.835
272.851
272.652
204.369
272.333
272.514
272.545
205.558
272.506
205.791
210.007
272.671
272.652
204.945
272.315
272.435
272.157
206.665
272.65
272.326
272.348
272.354
272.081
207.68
272.645
272.256
209.708
208.232
272.634
272.156
207.528
272.832
272.1
272.615
272.63
210.525
272.634
272.633
272.801
272.629
210.412
212.968
215.176
213.481
218.285
216.963
220.03
219.319
220.815
220.523
221.065
220.992
221.147
221.112
221.245
221.202
221.345
221.297
221.47
221.407
221.632
221.546
221.855
221.731
222.169
221.989
222.644
222.377
223.272
222.921
224.131
223.647
225.309
224.662
226.823
226.006
228.729
227.715
231.094
229.852
233.99
232.484
237.536
235.687
242.029
239.661
244.615
248.085
245.361
245.192
243.921
246.702
238.997
240.934
238.517
238.383
238.685
238.704
238.694
238.696
238.679
238.647
238.368
238.522
240.648
238.79
247.023
243.505
246.485
250.213
244.616
247.267
239.634
241.987
235.598
237.408
232.365
233.825
229.707
230.917
227.549
228.55
225.823
226.648
224.465
225.136
223.435
223.958
222.703
223.089
222.164
222.461
221.776
221.985
221.53
221.671
221.348
221.452
221.197
221.28
221.071
221.134
220.986
221.028
220.912
220.943
220.763
220.867
220.116
220.537
218.383
219.401
215.778
217.101
213.827
214.628
213.033
213.34
212.858
272.737
272.65
272.683
272.629
272.634
272.629
272.63
272.628
272.662
272.657
272.665
272.657
272.689
272.866
272.884
272.854
272.79
272.831
272.752
272.767
272.739
272.682
272.671
210.111
272.487
272.621
272.496
272.886
272.806
272.862
272.868
272.883
272.794
272.833
272.758
272.773
272.761
272.758
272.762
204.121
209.927
272.707
208.634
272.866
272.643
203.878
272.446
272.582
272.653
272.612
272.646
206.836
220.853
272.685
214.831
272.657
253.519
253.943
224.204
224.582
272.907
272.901
272.897
249.107
272.51
272.51
272.467
272.297
272.359
272.616
272.402
272.551
272.509
272.772
204.813
211.248
209.857
272.696
272.764
212.891
210.413
272.849
272.823
272.629
272.641
222.907
223.263
204.413
204.576
204.504
272.394
221.446
222.462
223.205
272.601
272.498
272.537
272.568
222.869
271.682
271.824
272.609
206.175
272.502
213.122
272.679
272.731
272.599
272.256
205.541
210.181
272.696
272.792
272.87
272.634
272.631
272.637
204.966
272.357
272.507
222.406
272.102
205.55
206.314
221.625
221.921
210.696
223.372
222.714
272.687
272.674
272.635
272.227
272.321
272.365
272.426
272.044
207.151
222.874
223.748
272.661
272.663
272.631
272.246
210.414
208.901
220.817
223.608
222.786
223.828
222.92
223.919
222.94
223.859
272.625
272.14
208.185
272.812
272.029
272.616
272.05
207.493
238.48
272.602
272.912
211.25
220.254
212.703
215.815
217.176
216.427
219.439
218.17
221.12
220.412
221.887
221.594
222.201
222.09
222.309
222.274
222.41
222.366
222.505
222.465
222.622
222.564
222.795
222.705
223.042
222.91
223.388
223.2
223.872
223.603
224.577
224.189
225.486
224.991
226.679
226.024
228.244
227.402
230.2
229.166
232.603
231.357
235.508
234.037
238.963
237.252
243.028
241.036
247.929
245.511
253.814
250.936
259.285
256.854
261.418
253.844
258.567
251.246
251.645
244.172
248.224
239.494
241.163
239.263
239.192
239.337
239.36
239.364
239.362
239.345
239.306
239.185
239.282
240.901
239.368
247.793
243.695
252.733
251.38
259.215
254.834
262.053
257.045
259.716
250.938
253.88
245.429
247.939
240.91
242.96
237.117
238.862
233.895
235.393
231.211
232.48
229.016
230.069
227.248
228.104
225.857
226.523
224.814
225.31
224.007
224.388
223.407
223.67
222.997
223.173
222.698
222.819
222.475
222.561
222.305
222.364
222.185
222.222
222.098
222.13
222.001
222.033
221.836
221.935
221.262
221.607
219.873
220.686
217.863
218.855
216.129
216.933
215.477
272.634
272.648
272.628
272.628
272.634
272.63
272.637
272.64
272.637
272.667
272.667
272.655
272.661
272.652
272.652
272.66
272.793
272.862
272.829
272.871
272.777
272.795
272.756
272.764
272.747
272.753
272.729
272.729
272.532
272.413
272.586
272.46
272.9
272.87
272.901
272.85
272.886
272.785
272.807
272.772
272.771
272.782
272.776
272.781
204.677
210.339
272.739
208.121
208.932
272.85
272.632
221.811
222.164
204.45
221.728
272.45
224.863
223.981
272.571
272.612
222.161
221.199
272.346
272.159
201.492
224.898
226.26
206.819
272.884
224.494
272.793
272.524
272.399
213.529
216.908
229.408
272.8
272.715
272.922
272.799
272.388
272.17
272.236
272.563
272.326
272.485
272.441
205.371
211.686
210.408
272.735
272.777
210.571
272.831
272.769
272.63
272.631
223.499
205.011
205.166
205.1
221.941
220.015
269.005
272.406
224.362
272.592
272.5
272.537
272.564
220.436
221.739
272.025
218.345
206.187
221.985
260.914
261.782
263.196
264.176
272.864
272.784
272.643
272.6
272.142
206.097
210.848
231.081
257.667
223.982
272.716
272.831
215.422
212.692
272.695
272.635
272.629
272.091
272.253
205.587
222.011
272.388
224.733
272.676
272.494
221.301
271.991
218.501
217.785
215.042
206.853
211.428
224.513
272.667
272.641
272.638
272.627
272.222
272.017
272.422
224.889
211.162
209.592
207.69
221.504
224.777
272.667
272.622
272.125
224.895
208.876
272.772
271.967
272.671
272.672
272.615
272.012
208.178
271.948
220.866
272.605
207.493
272.779
272.9
230.849
227.681
229.281
215.244
218.847
219.891
219.319
221.19
220.526
222.376
221.839
222.949
222.723
223.273
223.131
223.517
223.415
223.682
223.607
223.836
223.775
223.978
223.915
224.186
224.088
224.485
224.34
224.894
224.691
225.444
225.165
226.18
225.796
227.197
226.657
228.477
227.795
230.096
229.212
232.134
231.019
234.618
233.251
237.594
235.955
241.086
239.181
245.112
242.969
249.735
247.344
255.184
252.402
259.147
257.594
260.206
263.547
259.486
262.735
252.603
256.323
244.404
248.215
240.182
241.56
240.036
240.006
240.016
240.048
240.054
240.047
240.061
240.008
240.034
240.073
241.322
240.149
247.753
244.046
256.011
251.982
259.714
262.402
260.616
261.406
257.806
259.474
252.408
255.256
247.299
249.651
242.88
244.98
239.065
240.945
235.83
237.455
233.128
234.486
230.901
232.01
229.092
229.975
227.67
228.351
226.527
227.068
225.646
226.041
224.998
225.288
224.502
224.719
224.127
224.289
223.851
223.966
223.666
223.738
223.545
223.594
223.416
223.478
223.276
223.338
223.064
223.177
222.67
222.908
221.692
222.262
220.145
220.961
219.293
272.714
272.644
272.668
272.628
272.632
272.629
272.627
272.637
272.633
272.642
272.64
272.639
272.641
272.642
272.672
272.67
272.667
272.67
272.655
272.662
272.647
272.65
272.654
272.647
272.673
272.914
272.802
272.834
272.774
272.785
272.769
272.769
272.758
272.767
272.68
272.733
272.611
272.417
272.294
272.525
272.387
272.914
272.775
272.869
272.903
272.916
272.82
272.867
272.783
272.795
272.787
272.782
272.802
272.798
272.777
272.798
223.591
205.254
210.838
272.757
208.655
209.318
272.814
272.629
222.47
205.044
220.962
224.773
224.574
272.455
225.089
272.568
272.609
221.058
261.489
271.943
206.848
221.077
272.847
215.654
273.134
260.423
272.616
272.699
262.743
263.359
272.661
272.694
272.928
272.371
272.21
271.951
272.032
272.548
272.232
272.446
272.391
272.663
272.69
205.955
212.082
211.028
269.496
268
267.428
269.485
272.74
272.772
210.796
272.722
272.632
272.628
271.864
272.147
205.64
205.779
205.722
221.084
272.589
226.145
225.627
219.278
218.44
272.424
272.118
225.615
272.538
272.651
272.555
272.189
220.754
271.914
222.344
221.512
217.095
272.646
272.152
272.874
219.467
272.807
206.676
211.527
223.674
223.25
220.792
225.138
227.355
272.701
238.027
212.805
272.677
272.636
272.626
256.264
262.111
272.165
271.889
206.239
221.101
272.667
272.668
272.665
272.426
259.366
257.472
271.842
225.842
273.274
272.403
272.197
210.309
272.48
207.429
215.557
216.196
220.344
212.171
225.652
229.319
229.194
218.553
215.227
272.669
272.637
272.622
272.634
272.635
272.631
263.47
272.101
259.958
265.725
225.946
272.517
209.591
272.726
212.919
272.893
208.258
251.416
225.919
272.748
225.859
271.913
272.673
272.637
272.635
272.616
272.633
272.193
271.985
208.886
271.855
220.007
272.674
272.607
271.881
208.185
207.537
220.1
272.67
272.595
272.677
252.187
230.915
225.345
226.72
222.534
223.081
224.158
218.511
222.471
222.733
222.532
223.362
223.037
223.991
223.692
224.46
224.245
224.783
224.638
225.011
224.904
225.231
225.116
225.447
225.343
225.667
225.553
225.95
225.804
226.324
226.133
226.814
226.567
227.447
227.131
228.263
227.857
229.311
228.788
230.696
230.001
232.399
231.556
234.486
233.438
237.026
235.746
240.045
238.509
243.585
241.758
247.678
245.504
252.321
249.777
257.115
254.772
259.707
258.731
260.523
260.258
260.77
260.739
260.305
260.654
259.773
264.812
262.984
261.481
264.526
252.747
256.857
244.526
248.088
241.165
242.021
240.843
240.915
240.78
240.803
240.831
240.813
240.856
240.802
240.942
240.898
241.813
241.079
247.55
244.029
256.379
252.134
264.635
261.153
263.549
265.179
260.453
261.222
260.872
261.192
261.315
260.666
260.968
259.015
260.065
254.798
257.281
249.68
252.312
245.359
247.63
241.6
243.486
238.354
239.916
235.601
236.888
233.302
234.351
231.426
232.266
229.876
230.568
228.65
229.18
227.701
228.117
226.948
227.279
226.358
226.619
225.909
226.105
225.596
225.729
225.38
225.475
225.215
225.291
225.042
225.133
224.862
224.948
224.706
224.784
224.401
224.599
223.632
224.083
223.05
272.653
272.682
272.63
272.637
272.627
272.627
272.633
272.629
272.641
272.637
272.644
272.643
272.642
272.644
272.639
272.666
272.668
272.657
272.662
272.646
272.651
272.642
272.643
272.647
272.758
272.925
272.86
272.937
272.792
272.81
272.78
272.783
272.782
272.782
272.762
272.777
272.672
272.728
272.609
272.402
212.766
272.098
272.495
272.317
272.933
272.922
272.885
272.921
272.806
272.834
272.792
272.792
272.808
272.796
272.818
272.818
272.78
272.808
272.727
205.856
211.382
269.029
268.311
272.758
209.202
209.793
272.76
272.629
260.346
260.235
271.766
272.006
272.916
271.93
272.387
222.351
223.619
227.019
272.163
221.633
205.672
220.181
212.048
225.999
217.649
272.461
258.065
226.429
272.566
272.638
272.603
220.112
261.121
271.218
271.075
271.822
273.007
232.538
228.308
272.488
221.561
229.149
228.998
220.614
245.725
272.822
272.534
272.225
272.068
272.595
272.268
272.424
272.701
206.556
213.846
212.691
211.673
222.81
221.654
225.797
226.96
272.722
218.118
261.797
272.508
270.076
218.938
211.129
272.696
272.633
272.628
272.633
272.635
272.635
272.632
261.719
261.967
271.543
271.407
271.669
272.056
271.734
227.859
216.22
206.29
206.41
206.366
220.215
272.659
272.846
272.844
227.676
218.544
217.729
216.199
272.776
272.442
256.409
255.582
226.752
272.121
211.046
223.894
272.538
272.678
272.307
215.809
272.539
272.626
272.697
272.698
255.348
253.825
263.336
259.616
272.668
272.833
272.711
271.17
271.412
271.874
272.011
207.276
216.8
213.861
219.732
212.23
222.099
219.821
226.436
228.888
272.733
213.121
258.361
272.74
272.673
272.635
272.624
272.629
262.909
263.555
271.267
272.052
271.754
254.882
239.514
206.911
220.242
272.662
211.82
214.985
272.474
226.989
224.569
210.326
236.681
271.524
254.875
271.926
208.029
215.376
219.741
212.974
222.373
221.62
218.279
226.813
230.736
271.856
215.33
272.674
272.634
272.619
272.628
264.798
270.959
271.957
236.682
246.847
244.806
252.835
226.963
209.609
253.575
208.872
214.161
219.865
271.774
222.528
218.569
219.166
272.676
272.63
272.61
270.792
271.83
248.023
208.898
208.241
219.194
272.673
272.597
271.753
259.897
272.737
270.504
272.343
272.711
230.596
225.902
227.322
223.981
224.785
221.837
223.681
223.58
222.837
227.088
226.444
226.66
226.35
226.358
226.493
226.406
226.707
226.588
226.963
226.819
227.217
227.09
227.431
227.324
227.614
227.505
227.89
227.733
228.255
228.052
228.726
228.467
229.316
228.995
230.048
229.652
230.963
230.471
232.109
231.497
233.541
232.782
235.361
234.403
237.548
236.424
240.133
238.811
243.174
241.629
246.679
244.905
250.649
248.693
255.246
253.05
259.031
257.477
260.488
259.969
260.634
260.652
260.177
260.511
258.367
259.476
256.939
259.012
264.785
262.807
261.663
264.519
252.217
256.737
244.338
247.616
241.835
242.486
241.664
241.728
241.702
241.669
241.786
241.765
241.723
241.734
241.68
241.691
242.184
241.658
246.99
243.841
256.152
251.484
264.623
261.234
265.137
254.514
257.519
255.933
260.002
258.893
260.967
260.655
261.081
261.074
260.321
260.892
257.651
259.316
253.064
255.29
248.66
250.575
244.814
246.55
241.508
243.024
238.677
239.98
236.288
237.4
234.27
235.223
232.639
233.404
231.337
231.962
230.279
230.792
229.431
229.847
228.762
229.089
228.269
228.509
227.905
228.085
227.637
227.773
227.428
227.535
227.261
227.353
227.085
227.179
226.942
227.022
226.649
226.833
226.039
226.399
225.086
225.6
272.63
272.639
272.626
272.627
272.629
272.627
272.637
272.633
272.643
272.64
272.645
272.645
272.643
272.645
272.638
272.64
272.637
272.637
272.642
272.637
272.644
272.639
272.656
272.65
272.664
272.661
272.665
272.666
272.658
272.662
272.647
272.653
272.639
272.642
272.639
272.638
272.647
272.952
272.932
272.943
272.789
272.8
272.789
272.787
272.789
272.791
272.759
272.781
272.658
272.712
272.599
272.281
244.447
271.646
272.545
272.352
272.943
272.778
272.888
272.94
272.952
272.852
272.904
272.801
272.818
272.801
272.797
272.826
272.812
272.828
272.831
272.772
272.811
272.727
206.473
212.003
222.342
226.443
272.735
272.523
271.75
209.83
210.32
225.168
272.631
272.634
261.828
271.912
271.364
271.565
227.806
225.418
226.53
272.639
223.96
223.656
223.973
224.645
219.821
206.319
219.376
269.982
272.862
227.519
216.988
267.959
256.042
227.612
230.489
272.562
272.658
270.802
270.501
272.589
272.729
270.806
261.63
253.16
267.568
229.727
227.788
269.054
252.651
253.338
224.525
272.776
247.741
272.202
272.06
271.423
272.596
272.172
272.423
207.172
271.792
219.176
214.521
213.258
212.366
221.68
220.545
227.151
228.411
272.694
272.715
260.098
246.791
211.619
272.709
272.682
272.633
272.627
272.628
263.129
263.42
271.557
271.951
271.62
260.289
269.677
236.026
216.262
206.971
207.076
207.044
219.379
272.655
272.634
272.64
273.301
229.36
217.774
216.978
215.574
272.715
272.722
272.711
272.497
272.474
252.854
253.433
227.981
220.304
211.116
272.686
272.58
247.996
272.54
271.594
244.714
252.866
271.772
273.287
272.074
272.87
272.668
272.74
207.894
216.115
219.115
212.958
221.088
218.837
224.501
229.738
225.161
227.713
230.448
271.778
271.673
273.404
264.307
213.497
272.675
272.632
272.622
272.625
272.478
264.189
264.805
271.107
271.912
213.072
242.675
256.574
272.046
243.259
240.474
234.997
232.832
207.609
219.344
272.665
253.549
212.218
214.408
272.523
228.084
271.419
210.354
233.393
234.056
227.974
271.819
209.496
208.655
214.985
219.166
213.852
220.878
222.096
227.989
271.858
270.756
271.698
219.942
215.693
222.969
272.677
272.628
272.613
272.625
265.891
270.743
271.788
270.588
245.716
240.775
272.336
220.194
218.915
209.624
208.967
218.412
272.675
272.6
271.668
248.488
272.7
272.797
229.265
230.725
226.787
227.924
225.538
225.86
226.411
225.601
227.311
237.466
232.15
233.155
230.971
231.457
230.435
230.658
230.208
230.299
230.198
230.183
230.338
230.238
230.548
230.443
230.704
230.628
230.929
230.799
231.308
231.096
231.84
231.555
232.521
232.159
233.361
232.917
234.389
233.846
235.649
234.983
237.19
236.377
239.068
238.079
241.348
240.152
244.013
242.641
247.029
245.486
250.449
248.742
254.52
252.391
258.463
256.526
260.607
259.792
261.168
261.082
260.931
261.117
259.724
260.529
256.796
258.508
252.294
254.704
247.425
249.795
244.169
245.514
243.49
258.672
251.947
264.739
262.748
260.983
264.274
250.853
255.625
243.933
246.515
242.284
242.646
242.327
242.257
242.677
242.507
242.812
242.801
242.522
242.685
242.126
242.294
242.335
242.042
245.869
243.429
254.901
250.012
264.221
260.354
263.314
265.008
252.794
259.456
244.252
246.126
244.793
250.323
247.956
255.227
252.805
259.028
257.323
261.014
260.235
261.574
261.399
261.511
261.617
260.105
260.983
256.615
258.675
252.353
254.582
248.632
250.425
245.332
246.936
242.467
243.88
239.971
241.195
237.89
238.901
236.18
237.012
234.768
235.452
233.625
234.177
232.714
233.148
232.024
232.348
231.507
231.749
231.124
231.303
230.863
230.98
230.706
230.777
230.57
230.646
230.439
230.499
230.34
230.405
230.127
230.262
229.81
229.984
229.758
229.699
229.923
272.627
272.639
272.625
272.625
272.629
272.626
272.636
272.632
272.642
272.639
272.646
272.645
272.648
272.648
272.646
272.647
272.642
272.644
272.64
272.64
272.641
272.64
272.647
272.643
272.656
272.651
272.663
272.66
272.664
272.664
272.66
272.663
272.652
272.656
272.642
272.647
272.634
272.637
272.634
272.633
272.67
272.644
272.737
272.945
272.867
272.963
272.968
246.496
272.942
272.812
248.639
272.798
272.8
272.803
272.8
272.8
272.804
272.758
272.787
272.65
272.705
272.539
272.589
272.255
273.06
271.209
271.645
272.465
272.311
272.971
272.954
272.931
272.961
272.837
272.879
272.807
272.813
272.821
272.811
272.845
272.833
272.838
272.846
272.769
272.814
272.729
207.107
272.679
212.674
221.16
262.679
231.517
232.971
227.819
272.706
272.503
259.711
210.478
210.935
272.69
272.63
272.63
263.261
271.808
271.433
264.903
264.293
262.61
250.761
228.232
229.488
226.195
226.954
225.666
225.656
226.691
226.06
229.573
227.579
231.432
238.454
237.343
219.91
207.001
218.547
272.647
254.763
229.209
216.326
272.761
232.274
265.75
266.058
272.694
272.515
268.456
272.483
253.669
228.905
211.861
272.678
238.731
240.831
211.454
218.162
269.62
272.79
272.562
273.634
270.387
231.174
230.342
271.192
246.785
233.645
254.157
232.939
271.805
249.959
272.423
272.382
272.136
271.963
232.529
272.17
272.348
272.614
272.634
207.805
216.932
218.417
214.923
213.935
213.1
220.59
219.476
229.02
226.086
228.528
229.907
272.492
271.167
272.676
250.832
273.647
265.632
212.217
272.266
268.381
237.936
272.693
272.679
272.63
272.625
272.623
264.422
264.68
271.457
271.823
234.978
236.435
236.85
240.714
262.112
271.57
259.313
252.26
236.933
235.451
235.005
228.941
211.476
231.509
224.526
216.82
207.676
207.778
207.749
218.574
272.656
272.63
272.637
222.195
231.147
217.024
216.218
214.954
272.513
251.261
229.18
212.747
234.319
223.942
251.963
272.714
236.123
235.827
252.834
244.362
272.618
272.635
272.493
210.133
269.053
212.984
208.531
215.745
218.584
213.668
220.246
217.901
222.343
228.973
270.938
232.215
272.78
271.607
272.528
272.376
214.006
217.476
272.679
272.625
272.616
272.62
265.347
265.932
271.009
271.743
270.274
235.635
243.469
251.196
237.382