/*--------------------------------*- C++ -*----------------------------------*\
| =========                 |                                                 |
| \\      /  F ield         | OpenFOAM: The Open Source CFD Toolbox           |
|  \\    /   O peration     | Version:  2212                                  |
|   \\  /    A nd           | Website:  www.openfoam.com                      |
|    \\/     M anipulation  |                                                 |
\*---------------------------------------------------------------------------*/
FoamFile
{
    version     2.0;
    format      ascii;
    arch        "LSB;label=32;scalar=64";
    class       volScalarField;
    location    "0.0908";
    object      T;
}
// * * * * * * * * * * * * * * * * * * * * * * * * * * * * * * * * * * * * * //

dimensions      [0 0 0 1 0 0 0];

internalField   nonuniform List<scalar> 
31661
(
271.639
211.345
213.074
212.119
211.279
212.831
211.961
211.267
212.654
211.862
268.422
217.639
274.034
266.064
272.445
271.256
272.409
271.474
219.024
271.06
232.701
232.852
256.207
268.386
213.158
233.146
257.837
251.766
217.836
219.59
268.327
262.102
262.339
221.079
229.076
268.037
224.12
268.218
252.897
261.358
257.236
210.969
268.459
233.008
233.863
219.621
233.388
226.701
223.676
258.976
249.016
256.016
220.876
225.721
248.583
217.987
221.27
223.18
229.23
218.938
218.906
218.505
230.828
208.439
224.835
265.5
272.567
227.578
225.571
223.603
216.609
220.961
219.081
217.138
215.463
213.858
212.403
211.087
209.923
208.911
208.042
207.314
206.709
206.219
206.331
206.835
207.454
208.196
209.073
210.086
211.241
212.528
213.953
215.507
217.163
218.852
220.554
222.165
223.769
225.417
227.076
228.523
229.807
231.224
231.054
232.512
232.226
233.587
233.273
234.482
234.174
235.22
234.938
235.823
235.578
236.314
236.109
236.714
236.546
237.039
236.906
237.307
237.203
237.53
237.45
237.719
237.658
237.881
237.835
238.025
237.99
238.154
238.128
238.273
238.254
238.386
238.372
238.496
238.485
238.604
238.596
238.715
238.709
238.829
238.825
238.949
238.946
239.077
239.076
239.216
239.217
239.369
239.371
239.539
239.542
239.729
239.733
239.942
239.948
240.184
240.192
240.461
240.47
240.78
240.791
241.155
241.167
241.612
241.625
242.222
242.208
242.233
241.637
241.178
240.802
240.48
240.201
239.957
239.741
239.55
239.379
239.225
239.084
238.954
238.833
238.717
238.606
238.495
238.384
238.269
238.147
238.014
237.866
237.697
237.5
237.267
236.986
236.643
236.223
235.707
235.075
234.307
233.38
232.269
230.93
229.433
227.598
225.548
223.489
221.461
219.465
217.529
215.791
214.14
212.651
211.304
210.116
205.924
205.827
209.081
208.197
207.453
206.834
206.328
205.524
205.609
205.868
206.223
206.67
207.218
207.877
208.657
209.565
210.597
211.754
213.023
214.393
215.858
217.377
218.941
220.51
222.02
223.505
224.969
226.388
227.709
228.952
230.18
231.353
232.422
233.379
234.223
234.955
235.582
236.112
236.555
236.924
237.231
237.488
237.704
237.889
238.051
238.195
238.327
238.451
238.571
238.691
238.813
238.94
239.075
239.22
239.379
239.555
239.751
239.97
240.219
240.503
240.829
241.211
241.673
242.271
243.14
243.096
243.083
243.103
243.157
242.296
241.699
241.237
240.854
240.526
240.242
239.992
239.771
239.575
239.399
239.24
239.095
238.961
238.835
238.715
238.598
238.481
238.361
238.236
238.101
237.951
237.782
237.585
237.352
237.073
236.737
236.328
235.831
235.233
234.517
233.671
232.687
231.558
230.287
228.837
227.177
225.398
223.575
221.731
219.866
218.082
216.361
214.746
213.247
211.882
210.661
209.592
208.667
205.921
207.878
207.213
206.663
205.633
205.39
205.607
205.317
205.385
205.717
206.006
206.314
206.733
207.245
207.859
208.583
209.419
210.372
211.433
212.594
213.841
215.152
216.507
217.88
219.254
220.604
221.894
223.145
224.37
225.558
226.698
227.816
228.947
230.066
231.137
232.147
233.08
233.93
234.687
235.35
235.921
236.405
236.813
237.154
237.44
237.682
237.888
238.067
238.227
238.373
238.511
238.645
238.779
238.917
239.061
239.215
239.383
239.567
239.772
240.001
240.259
240.552
240.887
241.278
241.747
242.348
243.206
244.626
244.595
244.571
244.561
244.569
244.594
244.633
243.24
242.392
241.793
241.323
240.931
240.594
240.299
240.04
239.81
239.605
239.421
239.254
239.101
238.959
238.824
238.694
238.566
238.435
238.299
238.152
237.99
237.806
237.593
237.34
237.039
236.676
236.24
235.718
235.099
234.375
233.543
232.602
231.561
230.43
229.219
227.903
226.482
225.002
223.475
221.909
220.29
218.708
217.129
215.607
214.146
212.787
211.546
210.436
209.452
208.594
206.216
207.86
207.24
205.201
205.571
205.266
205.863
205.389
205.14
205.408
205.788
205.988
206.217
206.547
206.958
207.459
208.056
208.755
209.559
210.465
211.467
212.553
213.704
214.902
216.117
217.328
218.515
219.662
220.759
221.794
222.785
223.752
224.699
225.635
226.581
227.564
228.575
229.591
230.6
231.585
232.528
233.411
234.219
234.942
235.575
236.122
236.587
236.981
237.312
237.592
237.831
238.039
238.223
238.392
238.551
238.706
238.862
239.022
239.191
239.372
239.569
239.787
240.03
240.301
240.608
240.957
241.36
241.839
242.443
243.287
244.655
247.068
247.158
247.214
247.238
247.239
247.216
247.173
247.11
247.026
244.68
243.342
242.511
241.909
241.43
241.025
240.674
240.366
240.093
239.85
239.632
239.435
239.256
239.09
238.934
238.784
238.637
238.488
238.333
238.167
237.982
237.772
237.529
237.242
236.899
236.491
236.004
235.429
234.76
233.994
233.135
232.194
231.186
230.129
229.043
227.938
226.803
225.633
224.448
223.238
221.984
220.681
219.354
217.996
216.625
215.267
213.958
212.723
211.576
210.527
209.592
208.773
206.726
208.063
205.084
205.155
206.309
205.662
205.329
205.611
205.207
205.018
205.575
205.957
206.124
206.281
206.568
206.884
207.302
207.809
208.409
209.106
209.899
210.785
211.753
212.788
213.872
214.979
216.085
217.163
218.195
219.169
220.078
220.923
221.708
222.458
223.189
223.916
224.648
225.408
226.218
227.079
227.982
228.92
229.883
230.852
231.809
232.73
233.594
234.385
235.095
235.718
236.256
236.716
237.107
237.438
237.722
237.969
238.188
238.388
238.577
238.761
238.946
239.136
239.338
239.554
239.791
240.051
240.341
240.666
241.033
241.452
241.943
242.55
243.376
244.681
246.947
250.887
251.235
251.504
251.688
251.787
251.805
251.74
251.6
251.385
251.096
246.92
244.729
243.457
242.644
242.039
241.548
241.127
240.759
240.432
240.142
239.881
239.646
239.431
239.233
239.048
238.871
238.697
238.522
238.34
238.144
237.927
237.681
237.395
237.058
236.661
236.19
235.637
234.995
234.26
233.438
232.54
231.583
230.587
229.577
228.573
227.589
226.632
225.695
224.769
223.856
222.935
221.982
221
219.95
218.849
217.688
216.494
215.29
214.1
212.946
211.853
210.853
209.945
207.462
209.134
250.739
208.426
205.009
206.96
205.112
206.008
205.3
205.403
205.875
205.548
205.084
204.967
205.84
206.219
206.333
206.455
206.711
206.946
207.304
207.741
208.265
208.881
209.589
210.387
211.267
212.217
213.219
214.252
215.288
216.303
217.272
218.178
219.01
219.766
220.451
221.074
221.646
222.193
222.727
223.264
223.813
224.4
225.037
225.732
226.485
227.297
228.165
229.079
230.027
230.986
231.936
232.851
233.712
234.5
235.207
235.829
236.368
236.831
237.228
237.569
237.866
238.131
238.373
238.601
238.823
239.045
239.275
239.518
239.779
240.063
240.376
240.724
241.112
241.55
242.055
242.666
243.47
244.703
246.804
250.475
255.531
256.096
256.552
256.896
257.128
257.254
257.281
257.207
257.031
256.752
256.365
255.87
250.326
246.797
244.776
243.578
242.786
242.177
241.672
241.232
240.843
240.495
240.182
239.899
239.64
239.401
239.178
238.965
238.756
238.545
238.326
238.091
237.831
237.536
237.195
236.797
236.33
235.785
235.154
234.435
233.632
232.754
231.818
230.847
229.866
228.898
227.962
227.072
226.234
225.448
224.706
224
223.32
222.642
221.949
221.229
220.447
219.604
218.685
217.697
216.651
215.563
214.457
213.374
212.335
211.349
210.446
209.633
255.269
208.911
207.821
204.989
206.549
205.107
205.722
205.299
205.263
205.547
205.012
206.17
205.838
204.95
260.101
260.571
260.937
261.202
261.377
261.469
261.487
261.432
261.301
261.084
260.776
260.366
259.844
254.574
249.876
246.664
244.822
243.703
242.933
242.321
241.8
241.34
240.926
240.552
240.212
239.901
239.611
239.341
239.081
238.828
238.572
238.305
238.02
237.704
237.348
236.938
236.465
235.916
235.286
234.57
233.773
232.901
231.975
231.014
230.043
229.087
228.167
227.298
226.492
225.752
225.077
224.46
223.894
223.377
222.878
222.393
221.901
221.39
220.836
220.224
219.539
218.771
217.919
216.989
216.003
214.986
213.954
212.941
211.969
211.057
210.221
208.283
209.477
259.21
206.163
206.532
206.607
206.717
206.902
207.108
207.416
207.796
208.258
208.807
209.446
210.173
210.983
211.866
212.807
213.784
214.774
215.751
216.689
217.565
218.366
219.083
219.717
220.275
220.77
221.209
221.62
222
222.383
222.769
223.175
223.605
224.085
224.62
225.214
225.873
226.601
227.396
228.254
229.164
230.111
231.072
232.024
232.944
233.808
234.602
235.315
235.944
236.493
236.969
237.381
237.743
238.065
238.36
238.638
238.908
239.178
239.457
239.75
240.066
240.407
240.781
241.194
241.654
242.174
242.789
243.571
244.726
246.648
250.016
254.869
259.524
207.309
204.993
208.826
207.754
206.219
205.136
205.574
205.342
205.158
205.591
204.992
205.875
204.958
206.516
206.185
258.468
253.805
249.407
246.532
244.87
243.83
243.083
242.469
241.933
241.449
241.009
240.605
240.232
239.883
239.555
239.24
238.931
238.618
238.292
237.942
237.558
237.125
236.633
236.071
235.429
234.706
233.903
233.028
232.101
231.139
230.167
229.212
228.295
227.432
226.636
225.912
225.259
224.676
224.157
223.695
223.285
222.902
222.548
222.206
221.869
221.512
221.135
220.708
220.224
219.662
219.014
218.277
217.457
216.559
215.608
214.619
213.631
212.663
211.738
210.884
210.114
206.927
207.01
207.178
207.332
207.622
207.93
208.341
208.836
209.416
210.084
210.835
211.662
212.551
213.485
214.44
215.391
216.312
217.18
217.974
218.685
219.307
219.843
220.303
220.697
221.039
221.343
221.622
221.886
222.148
222.425
222.719
223.03
223.374
223.764
224.211
224.719
225.293
225.938
226.657
227.45
228.309
229.223
230.177
231.147
232.11
233.041
233.918
234.725
235.453
236.099
236.667
237.166
237.607
238.002
238.363
238.704
239.034
239.363
239.701
240.055
240.434
240.84
241.281
241.765
242.302
242.92
243.679
244.753
246.493
249.534
254.128
258.845
262.056
262.517
262.899
263.203
263.431
263.591
263.692
263.742
263.749
263.714
263.635
263.504
263.312
263.049
262.706
262.276
206.888
261.756
208.266
209.431
206.52
206.886
205.045
263.435
263.766
264.038
264.253
264.416
264.533
264.611
264.659
264.682
264.683
264.657
264.601
264.506
264.365
264.175
263.934
263.64
207.312
205.993
205.201
206.884
207.286
207.35
207.48
207.61
207.881
208.128
208.498
208.944
209.474
210.088
210.787
211.563
212.406
213.301
214.226
215.157
216.068
216.934
217.735
218.454
219.084
219.624
220.08
220.461
220.779
221.047
221.276
221.481
221.664
221.85
222.022
222.205
222.408
222.639
222.884
223.159
223.475
223.843
224.273
224.768
225.334
225.976
226.695
227.492
228.359
229.285
230.253
231.24
232.221
233.171
234.07
234.9
235.654
236.329
236.931
237.467
237.951
238.395
238.813
239.217
239.617
240.025
240.448
240.897
241.372
241.883
242.438
243.059
243.796
244.789
246.349
249.053
253.335
258.074
261.517
263.296
208.841
207.796
205.414
205.411
205.116
205.661
204.995
205.941
205.016
206.245
206.572
207.27
206.915
208.015
207.654
263.047
261.151
257.636
252.999
248.949
246.41
244.924
243.963
243.238
242.622
242.07
241.562
241.091
240.651
240.234
239.841
239.459
239.082
238.699
238.299
237.871
237.401
236.876
236.287
235.622
234.879
234.058
233.17
232.228
231.257
230.276
229.315
228.391
227.526
226.729
226.008
225.363
224.793
224.292
223.853
223.475
223.145
222.85
222.574
222.322
222.088
221.861
221.624
221.369
221.085
220.756
220.367
219.905
219.359
218.719
217.986
217.164
216.275
215.339
214.371
213.405
212.483
211.613
210.814
210.102
264.019
208.336
209.467
231.098
263.755
206.579
205.12
264.243
264.429
264.577
264.69
264.773
264.831
264.87
264.889
264.891
264.872
264.829
264.762
264.662
264.527
264.357
264.152
263.917
206.948
205.792
205.292
208.066
207.711
207.805
207.948
208.148
208.381
208.715
209.119
209.603
210.17
210.819
211.548
212.347
213.204
214.099
215.011
215.913
216.78
217.59
218.324
218.972
219.529
219.997
220.385
220.702
220.96
221.172
221.347
221.496
221.627
221.748
221.86
221.984
222.101
222.231
222.377
222.553
222.754
222.972
223.228
223.529
223.887
224.309
224.801
225.367
226.012
226.74
227.548
228.43
229.375
230.365
231.376
232.385
233.366
234.299
235.166
235.959
236.679
237.329
237.92
238.465
238.976
239.468
239.951
240.437
240.936
241.458
242.003
242.579
243.206
243.923
244.84
246.227
248.599
252.521
257.226
260.905
262.909
263.655
207.412
205.334
205.509
208.927
207.913
205.111
205.76
205.047
206.036
205.094
206.332
206.646
206.978
207.663
264.029
263.809
208.685
208.667
263.462
262.606
260.469
256.738
252.189
248.523
246.307
244.991
244.102
243.399
242.78
242.21
241.674
241.166
240.676
240.209
239.751
239.294
238.827
238.337
237.813
237.24
236.607
235.905
235.127
234.276
233.36
232.394
231.399
230.401
229.423
228.487
227.609
226.806
226.08
225.436
224.868
224.374
223.946
223.584
223.274
223.007
222.773
222.552
222.364
222.199
222.051
221.89
221.738
221.571
221.388
221.173
220.916
220.603
220.221
219.754
219.195
218.542
217.8
216.97
216.072
215.142
214.201
213.271
212.386
211.562
210.812
210.144
208.343
207.982
208.475
209.565
230.258
206.277
205.224
264.231
264.404
264.543
264.65
264.728
264.784
264.821
264.839
264.841
264.822
264.782
264.717
264.622
264.495
264.334
264.142
263.929
263.709
206.686
205.665
205.408
211.593
208.155
208.306
208.441
208.714
208.971
209.338
209.783
210.308
210.916
211.601
212.359
213.179
214.044
214.934
215.824
216.691
217.509
218.259
218.927
219.507
219.996
220.401
220.73
220.994
221.204
221.372
221.506
221.616
221.707
221.787
221.859
221.929
221.997
222.075
222.162
222.251
222.36
222.483
222.64
222.822
223.027
223.275
223.57
223.925
224.348
224.843
225.416
226.073
226.816
227.643
228.549
229.521
230.542
231.59
232.639
233.664
234.644
235.563
236.414
237.194
237.911
238.575
239.197
239.79
240.366
240.938
241.514
242.106
242.716
243.354
244.056
244.907
246.134
248.192
251.721
256.329
260.231
262.484
263.379
263.485
207.102
205.305
205.63
207.607
205.139
205.881
209.071
208.099
205.122
206.154
205.203
206.445
206.752
207.069
263.861
263.65
207.393
207.714
224.514
208.019
263.572
263.325
263.15
262.125
259.726
255.808
251.414
248.152
246.236
245.071
244.247
243.561
242.937
242.344
241.769
241.209
240.664
240.122
239.574
239.008
238.412
237.774
237.081
236.323
235.495
234.598
233.64
232.636
231.606
230.576
229.57
228.61
227.715
226.896
226.158
225.504
224.931
224.436
224.012
223.655
223.355
223.101
222.888
222.69
222.523
222.385
222.266
222.161
222.052
221.961
221.862
221.76
221.645
221.511
221.347
221.145
220.891
220.572
220.176
219.692
219.115
218.439
217.672
216.835
215.943
215.014
214.089
213.196
212.352
211.567
210.86
210.247
268.757
208.667
209.719
236.884
219.993
206.123
205.35
264.051
264.212
264.341
264.44
264.515
264.569
264.603
264.62
264.62
264.603
264.565
264.501
264.411
264.291
264.14
263.959
263.755
263.541
263.326
206.463
205.576
205.544
220.368
212.093
208.633
208.792
209.014
209.26
209.605
210.017
210.504
211.071
211.716
212.434
213.217
214.05
214.916
215.792
216.654
217.477
218.24
218.928
219.53
220.044
220.47
220.818
221.096
221.316
221.487
221.62
221.723
221.803
221.866
221.916
221.959
221.996
222.031
222.066
222.105
222.15
222.21
222.275
222.351
222.446
222.558
222.704
222.878
223.081
223.327
223.625
223.983
224.413
224.919
225.509
226.184
226.95
227.806
228.745
229.756
230.822
231.919
233.022
234.107
235.152
236.14
237.064
237.923
238.722
239.469
240.176
240.854
241.512
242.161
242.815
243.483
244.186
244.986
246.076
247.852
250.976
255.416
259.513
262.035
263.098
263.265
263.115
206.886
205.303
205.772
207.306
205.204
206.024
207.823
205.226
206.295
209.275
208.338
205.331
206.581
206.879
263.504
263.303
207.185
207.496
207.802
208.119
263.426
263.195
263.071
262.825
261.615
258.947
254.881
250.712
247.852
246.202
245.167
244.394
243.717
243.075
242.442
241.818
241.197
240.567
239.919
239.241
238.523
237.754
236.924
236.029
235.069
234.053
232.994
231.915
230.84
229.794
228.8
227.874
227.029
226.271
225.601
225.015
224.511
224.081
223.722
223.422
223.173
222.966
222.782
222.628
222.507
222.403
222.319
222.24
222.172
222.115
222.059
222.005
221.946
221.879
221.799
221.702
221.577
221.416
221.21
220.945
220.609
220.192
219.682
219.076
218.378
217.597
216.742
215.844
214.936
214.037
213.169
212.367
211.631
210.975
210.41
208.729
208.911
209.926
208.442
262.96
205.955
205.496
263.685
263.842
263.972
264.075
264.153
264.208
264.244
264.263
264.261
264.239
264.197
264.129
264.034
263.91
263.756
263.578
263.38
263.17
262.963
262.768
206.317
205.55
205.7
209.133
209.194
209.219
209.338
209.557
209.885
210.276
210.737
211.271
211.881
212.563
213.311
214.113
214.953
215.811
216.664
217.487
218.26
218.964
219.587
220.123
220.574
220.943
221.239
221.473
221.654
221.793
221.898
221.977
222.034
222.076
222.105
222.126
222.141
222.152
222.161
222.17
222.181
222.197
222.219
222.252
222.302
222.355
222.426
222.516
222.627
222.77
222.946
223.156
223.411
223.718
224.088
224.532
225.058
225.67
226.377
227.178
228.073
229.059
230.121
231.245
232.406
233.579
234.74
235.865
236.937
237.947
238.892
239.776
240.605
241.388
242.132
242.851
243.556
244.276
245.057
246.047
247.583
250.316
254.526
258.777
261.577
262.821
263.054
262.919
262.59
206.701
205.344
205.933
207.155
205.295
206.186
209.125
207.595
205.351
206.455
208.101
205.481
206.737
263.006
262.798
209.52
208.624
207.028
207.326
207.624
207.928
208.236
263.098
262.886
262.671
262.732
262.818
262.49
261.087
258.159
254.003
250.112
247.627
246.2
245.267
244.523
243.832
243.156
242.478
241.785
241.066
240.312
239.513
238.66
237.748
236.772
235.734
234.643
233.514
232.37
231.236
230.137
229.094
228.126
227.244
226.454
225.756
225.149
224.628
224.186
223.817
223.509
223.255
223.043
222.862
222.714
222.599
222.502
222.426
222.363
222.307
222.268
222.236
222.209
222.185
222.161
222.134
222.101
222.06
222.007
221.935
221.841
221.714
221.546
221.325
221.042
220.683
220.237
219.699
219.067
218.339
217.537
216.682
215.793
214.898
214.029
213.202
212.442
211.759
211.153
210.626
209.214
208.57
210.177
208.812
262.455
205.872
205.659
263.193
263.357
263.495
263.605
263.69
263.75
263.789
263.808
263.804
263.778
263.729
263.654
263.549
263.414
263.249
263.06
262.852
262.631
262.407
262.191
261.995
206.21
205.549
205.872
209.725
209.853
210.007
210.234
210.564
210.995
211.507
212.09
212.741
213.458
214.229
215.042
215.879
216.719
217.538
218.315
219.03
219.67
220.228
220.7
221.091
221.408
221.658
221.853
222.003
222.114
222.196
222.254
222.294
222.319
222.333
222.337
222.336
222.331
222.32
222.309
222.298
222.289
222.281
222.281
222.288
222.302
222.331
222.376
222.431
222.503
222.595
222.714
222.865
223.052
223.277
223.551
223.88
224.272
224.739
225.294
225.943
226.689
227.538
228.487
229.53
230.658
231.853
233.092
234.348
235.595
236.808
237.968
239.063
240.087
241.042
241.93
242.762
243.549
244.312
245.096
246.019
247.377
249.76
253.701
258.057
261.127
262.562
262.868
262.748
262.437
261.835
206.592
205.414
206.11
209.633
209.141
206.989
205.41
206.365
207.44
205.497
206.633
262.383
262.15
207.908
205.646
208.412
206.911
207.197
209.799
208.925
207.487
207.781
208.08
208.389
262.572
262.342
262.113
261.9
262.264
262.527
262.578
262.156
260.561
257.4
253.22
249.632
247.474
246.216
245.344
244.601
243.885
243.157
242.394
241.586
240.723
239.798
238.807
237.747
236.623
235.447
234.237
233.014
231.807
230.64
229.536
228.513
227.581
226.745
226.01
225.37
224.822
224.358
223.97
223.644
223.373
223.148
222.96
222.807
222.687
222.592
222.517
222.456
222.407
222.374
222.353
222.34
222.333
222.331
222.33
222.329
222.325
222.319
222.304
222.283
222.249
222.198
222.126
222.026
221.89
221.708
221.47
221.163
220.776
220.301
219.729
219.068
218.327
217.517
216.655
215.777
214.914
214.082
213.31
212.592
211.946
211.374
210.875
209.537
208.909
210.455
208.7
261.714
205.839
205.838
262.592
262.776
262.931
263.057
263.154
263.224
263.268
263.288
263.282
263.251
263.192
263.103
262.982
262.829
262.643
262.431
262.197
261.949
261.697
261.453
261.23
261.045
206.163
205.592
206.059
210.315
210.478
210.713
210.983
211.341
211.789
212.332
212.955
213.647
214.393
215.18
215.995
216.818
217.628
218.404
219.126
219.779
220.354
220.846
221.257
221.593
221.862
222.072
222.233
222.354
222.444
222.506
222.549
222.573
222.586
222.585
222.58
222.565
222.546
222.524
222.497
222.471
222.445
222.42
222.397
222.379
222.367
222.362
222.366
222.381
222.412
222.46
222.527
222.608
222.711
222.842
223.016
223.23
223.482
223.783
224.146
224.578
225.085
225.678
226.37
227.168
228.074
229.088
230.203
231.405
232.679
234
235.341
236.673
237.967
239.203
240.365
241.445
242.442
243.365
244.228
245.069
245.977
247.21
249.306
252.969
257.385
260.708
262.331
262.718
262.623
262.343
261.737
260.915
209.196
206.519
205.512
206.301
209.591
210.171
206.906
205.547
206.558
261.742
261.486
207.322
205.66
205.827
207.77
206.826
207.102
208.244
207.383
208.769
207.67
210.106
209.262
207.96
208.255
208.55
261.9
261.644
261.396
261.166
260.967
261.578
262.114
262.344
262.374
261.841
260.068
256.711
252.565
249.274
247.375
246.232
245.386
244.609
243.821
242.986
242.088
241.115
240.064
238.934
237.734
236.476
235.181
233.876
232.587
231.343
230.167
229.077
228.081
227.192
226.406
225.724
225.14
224.642
224.218
223.861
223.565
223.317
223.105
222.934
222.803
222.7
222.619
222.55
222.5
222.467
222.448
222.439
222.439
222.446
222.457
222.473
222.489
222.505
222.52
222.533
222.538
222.541
222.533
222.513
222.479
222.425
222.348
222.238
222.088
221.889
221.628
221.295
220.877
220.374
219.782
219.101
218.336
217.523
216.678
215.834
215.005
214.216
213.468
212.777
212.155
211.61
211.147
209.858
208.859
209.033
210.751
260.817
205.836
206.03
261.973
262.176
262.347
262.486
262.594
262.672
262.721
262.742
262.735
262.698
262.63
262.53
262.395
262.225
262.021
261.787
261.529
261.256
260.978
260.707
260.458
260.246
260.088
209.273
206.157
205.663
209.176
209.38
206.259
209.583
210.086
210.771
210.907
211.172
211.424
211.774
212.183
212.667
213.235
213.881
214.594
215.36
216.157
216.962
217.76
218.53
219.253
219.914
220.501
221.009
221.438
221.792
222.077
222.303
222.478
222.61
222.708
222.777
222.824
222.851
222.866
222.864
222.859
222.84
222.817
222.787
222.755
222.72
222.682
222.643
222.605
222.568
222.534
222.503
222.478
222.459
222.45
222.449
222.459
222.482
222.522
222.584
222.666
222.771
222.898
223.055
223.256
223.505
223.804
224.149
224.557
225.041
225.602
226.255
227.006
227.862
228.83
229.911
231.098
232.375
233.723
235.118
236.531
237.93
239.285
240.573
241.777
242.89
243.916
244.882
245.846
247.03
248.921
252.334
256.784
260.343
262.146
262.633
262.573
262.314
261.701
260.853
260.004
206.504
205.634
206.505
261.096
260.82
206.873
205.702
205.839
207.263
206.764
207.032
207.683
206.021
207.306
208.135
207.586
208.603
207.869
209.128
208.155
210.45
209.638
208.442
208.734
261.211
260.93
260.654
260.396
260.169
259.992
259.887
260.739
261.513
262.026
262.211
262.22
261.567
259.641
256.125
252.045
249.011
247.297
246.206
245.325
244.453
243.534
242.535
241.45
240.275
239.018
237.695
236.33
234.95
233.586
232.266
231.016
229.851
228.79
227.838
226.998
226.262
225.623
225.072
224.602
224.202
223.867
223.574
223.331
223.134
222.98
222.858
222.754
222.674
222.612
222.572
222.549
222.535
222.535
222.542
222.556
222.577
222.602
222.63
222.659
222.688
222.717
222.744
222.767
222.787
222.796
222.799
222.794
222.772
222.735
222.675
222.587
222.465
222.299
222.079
221.794
221.437
220.998
220.468
219.85
219.153
218.397
217.593
216.779
215.964
215.154
214.375
213.649
212.99
212.389
211.858
211.404
210.172
211.022
210.764
209.031
212.286
205.873
211.538
211.333
209.338
209.507
209.602
210.049
210.625
209.663
210.046
210.554
209.746
210.076
210.527
210.138
209.856
210.524
209.655
210.555
210.222
209.984
206.235
261.345
261.563
261.748
261.898
262.015
262.099
262.152
262.173
262.164
262.123
262.049
261.939
261.793
261.609
261.39
261.139
260.863
260.569
260.27
259.977
259.706
259.473
259.294
259.192
211.996
212.58
213.182
213.846
214.565
215.319
216.107
216.923
217.737
218.523
219.27
219.962
220.588
221.131
221.596
221.975
222.28
222.518
222.701
222.838
222.937
223.005
223.05
223.075
223.084
223.081
223.07
223.048
223.022
222.99
222.956
222.918
222.878
222.839
222.799
222.762
222.727
222.697
222.672
222.655
222.647
222.646
222.656
222.68
222.719
222.778
222.855
222.959
223.09
223.249
223.448
223.681
223.967
224.309
224.708
225.166
225.698
226.313
227.016
227.816
228.72
229.732
230.856
232.081
233.396
234.776
236.197
237.631
239.044
240.411
241.703
242.91
244.022
245.058
246.051
247.173
248.794
251.647
255.669
259.313
261.379
262.148
262.158
262.005
261.5
260.717
259.848
206.181
205.762
206.47
260.525
260.221
259.921
259.639
259.39
259.191
259.065
259.012
211.013
211.04
211.109
211.242
211.367
211.625
211.856
212.201
212.603
213.07
213.602
214.201
214.869
215.595
216.359
217.145
217.931
218.692
219.412
220.075
220.67
221.19
221.633
222.002
222.303
222.543
222.731
222.875
222.983
223.06
223.113
223.145
223.163
223.163
223.159
223.141
223.116
223.083
223.048
223.008
222.964
222.917
222.87
222.822
222.775
222.73
222.687
222.649
222.615
222.587
222.567
222.558
222.559
222.568
222.594
222.632
222.693
222.774
222.881
223.017
223.184
223.391
223.636
223.93
224.283
224.695
225.167
225.716
226.344
227.066
227.879
228.798
229.827
230.967
232.209
233.545
234.947
236.394
237.855
239.298
240.694
242.02
243.257
244.416
245.52
246.75
248.536
251.766
256.263
260.057
262.056
262.619
262.577
262.346
261.74
260.867
259.993
259.163
206.513
205.776
205.874
206.87
206.721
206.982
207.254
206.031
260.446
260.155
207.25
207.653
206.227
207.524
208.07
207.802
208.517
208.082
208.987
208.364
209.493
208.646
210.033
208.93
210.597
209.221
209.516
211.008
210.614
209.818
211.484
211.036
205.941
212.748
211.439
210.329
210.131
206.451
212.377
212.721
213.215
213.933
214.698
215.488
216.291
217.095
217.887
218.67
219.426
220.122
220.747
221.301
221.773
222.17
222.493
222.749
222.948
223.097
223.208
223.285
223.339
223.369
223.384
223.382
223.373
223.351
223.323
223.289
223.253
223.212
223.167
223.12
223.072
223.025
222.979
222.935
222.895
222.858
222.827
222.803
222.787
222.784
222.787
222.801
222.828
222.875
222.94
223.027
223.138
223.278
223.446
223.656
223.906
224.202
224.552
224.956
225.425
225.964
226.567
227.252
228.023
228.887
229.843
230.902
232.073
233.338
234.691
236.106
237.56
239.029
240.477
241.882
243.212
244.47
245.65
246.897
248.527
251.306
255.324
259.119
261.306
262.147
262.183
262.065
261.578
260.785
259.907
259.063
260.709
260.94
261.135
261.294
261.418
261.506
261.561
261.583
261.573
261.529
261.449
261.332
261.176
260.982
260.752
260.488
260.198
259.89
259.575
259.266
258.979
258.73
258.537
258.42
258.379
206.243
205.885
211.491
215.992
205.936
206.567
206.693
206.947
211.522
211.601
211.726
211.869
212.083
212.322
212.651
213.032
213.483
214
214.579
215.214
215.899
216.628
217.383
218.144
218.89
219.603
220.265
220.862
221.389
221.843
222.225
222.539
222.792
222.992
223.147
223.265
223.35
223.411
223.449
223.471
223.476
223.472
223.458
223.432
223.399
223.362
223.321
223.273
223.223
223.17
223.116
223.061
223.007
222.954
222.903
222.856
222.812
222.773
222.74
222.715
222.699
222.697
222.702
222.717
222.747
222.797
222.867
222.959
223.077
223.225
223.404
223.622
223.884
224.195
224.556
224.984
225.465
226.02
226.643
227.343
228.131
229.006
229.974
231.043
232.222
233.498
234.865
236.296
237.772
239.265
240.746
242.183
243.566
244.875
246.245
248.03
251.173
255.775
259.869
262.055
262.721
262.689
262.485
261.884
260.993
260.101
259.257
258.46
206.909
206.06
259.844
259.523
259.205
258.905
258.639
258.425
258.284
258.221
258.264
259.793
259.492
211.093
211.132
210.695
207.21
207.268
206.235
207.48
207.651
206.444
207.753
208.06
208.03
208.476
208.307
208.919
208.585
209.392
208.862
209.895
209.142
210.484
209.423
212.552
209.708
209.998
206.037
212.182
212.239
206.028
206.333
206.924
260.066
260.306
260.509
260.675
260.804
260.895
260.951
260.974
260.962
260.915
260.832
260.709
260.547
260.345
260.107
259.834
259.535
259.216
258.891
258.572
258.274
258.014
257.811
257.682
257.632
257.7
230.837
212.079
212.222
212.377
212.577
212.823
213.137
213.5
213.928
214.423
214.98
215.594
216.256
216.955
217.678
218.409
219.133
219.83
220.484
221.08
221.609
222.069
222.459
222.784
223.048
223.26
223.425
223.552
223.647
223.714
223.76
223.786
223.797
223.794
223.784
223.76
223.729
223.692
223.65
223.602
223.549
223.493
223.435
223.376
223.317
223.257
223.199
223.142
223.088
223.037
222.991
222.949
222.915
222.888
222.871
222.867
222.873
222.887
222.913
222.959
223.026
223.114
223.228
223.368
223.538
223.743
223.986
224.269
224.602
224.983
225.424
225.927
226.492
227.134
227.833
228.6
229.434
230.355
231.349
232.436
233.626
234.917
236.294
237.746
239.25
240.787
242.331
243.844
245.401
247.265
250.399
255.203
259.711
262.174
262.951
262.924
262.739
262.136
261.227
260.32
259.465
258.657
257.887
206.647
206.112
212.84
213.24
213.689
214.214
214.841
215.585
216.409
217.253
218.078
218.871
219.612
220.297
220.931
221.499
221.984
222.388
222.722
222.989
223.202
223.364
223.487
223.573
223.635
223.671
223.695
223.694
223.689
223.669
223.641
223.607
223.569
223.527
223.479
223.429
223.377
223.324
223.271
223.218
223.168
223.12
223.076
223.037
223.003
222.976
222.958
222.952
222.955
222.966
222.989
223.03
223.09
223.172
223.276
223.406
223.566
223.758
223.986
224.256
224.57
224.938
225.362
225.844
226.396
227.013
227.699
228.448
229.274
230.186
231.176
232.259
233.448
234.734
236.103
237.54
239.022
240.529
242.023
243.493
244.9
246.344
248.081
250.894
255.017
259.03
261.376
262.295
262.342
262.253
261.771
260.963
260.084
259.238
258.433
259.169
258.835