/*--------------------------------*- C++ -*----------------------------------*\
| =========                 |                                                 |
| \\      /  F ield         | OpenFOAM: The Open Source CFD Toolbox           |
|  \\    /   O peration     | Version:  2212                                  |
|   \\  /    A nd           | Website:  www.openfoam.com                      |
|    \\/     M anipulation  |                                                 |
\*---------------------------------------------------------------------------*/
FoamFile
{
    version     2.0;
    format      ascii;
    arch        "LSB;label=32;scalar=64";
    class       volVectorField;
    location    "0.064";
    object      U;
}
// * * * * * * * * * * * * * * * * * * * * * * * * * * * * * * * * * * * * * //

dimensions      [0 1 -1 0 0 0 0];

internalField   nonuniform List<vector> 
44662
(
(-2.92879 71.0865 -9.46424e-17)
(4.59195 44.5705 -9.81588e-21)
(4.63188 44.1314 -2.26832e-16)
(4.25807 44.5088 2.82083e-16)
(4.41168 44.3185 1.1744e-20)
(-1.63274 54.4641 -1.37037e-16)
(-0.71371 108.487 -7.5934e-18)
(-1.54651 52.8095 -3.93078e-16)
(5.97665 38.2896 1.13553e-16)
(-9.85629 90.0643 0)
(-1.49888 59.5856 2.68314e-16)
(0.825883 24.5815 -7.78281e-17)
(0.911909 106.8 1.28647e-16)
(16.4281 31.9543 1.08489e-16)
(-4.40743 14.9736 0)
(0.818261 25.5913 1.78733e-17)
(3.57294 16.9986 4.42639e-16)
(-1.67116 17.9939 2.55229e-16)
(-22.2666 78.1046 -9.58376e-20)
(0.0450741 116.156 -9.86814e-17)
(5.29146 98.2698 7.74879e-17)
(3.10615 17.6039 -1.47203e-16)
(0.847395 109.985 6.04574e-17)
(-4.61122 73.3605 -1.13716e-16)
(-17.4927 58.5643 -5.78368e-17)
(27.3606 57.222 -2.51018e-16)
(-0.767766 103.962 -4.10122e-19)
(-0.292985 93.1869 -1.29363e-16)
(-2.47991 102.525 1.56616e-17)
(-0.383645 98.2823 -1.43501e-16)
(8.7996 8.80752 1.36922e-16)
(-8.27763 100.611 -1.43531e-17)
(9.00943 8.31914 1.54267e-16)
(-0.0307295 68.6572 -3.74762e-16)
(-2.13169 19.018 -5.4939e-17)
(-5.56094 74.3789 5.14354e-17)
(6.05645 26.4555 1.32655e-16)
(5.19552 25.4087 -2.26266e-16)
(25.1589 70.2627 0)
(-5.33999 35.054 -1.09077e-16)
(-4.07273 34.4893 1.11863e-16)
(7.31602 27.5808 -5.83343e-17)
(4.05051 81.069 -2.61691e-16)
(-24.2856 49.4325 -1.14433e-16)
(-3.49556 105.77 6.87057e-17)
(4.48556 43.4195 1.52738e-17)
(-8.1726 97.3226 3.14036e-17)
(-17.1483 69.1671 6.69413e-17)
(13.9599 86.4592 -1.17655e-16)
(-23.0113 50.023 -3.30444e-16)
(-3.39372 42.8176 -1.19805e-16)
(-8.20997 93.9385 -3.09576e-17)
(21.6556 38.1446 1.60802e-20)
(9.10066 11.84 4.36596e-17)
(-10.0373 88.8898 5.52908e-17)
(-3.58661 45.9463 0)
(18.2975 33.9186 -1.15414e-16)
(-2.51857 83.5276 1.44067e-16)
(0.657824 91.6084 -2.88067e-16)
(0.672492 90.7868 0)
(-1.81302 56.7878 1.18452e-20)
(9.48839 13.1198 -1.07402e-16)
(14.0635 82.7999 0)
(-22.9738 37.6753 -1.0833e-16)
(-5.58207 93.0211 5.62208e-17)
(-1.22134 63.2859 -3.91299e-16)
(0.790429 59.1658 1.23445e-16)
(1.64797 46.2717 -2.11189e-16)
(25.4046 42.2952 0)
(-2.07762 107.486 1.27977e-16)
(8.24599 12.0733 0)
(0.864507 69.114 1.40698e-16)
(28.9482 68.9101 3.12733e-16)
(-1.26772 63.191 1.59691e-16)
(-1.99242 106.813 1.24162e-16)
(-0.90194 33.8583 -3.12219e-17)
(-4.91991 17.752 -3.03704e-16)
(0.659723 93.7059 -4.19211e-16)
(0.635833 87.342 2.71097e-16)
(-0.700219 56.3374 -1.40458e-16)
(4.02901 45.6715 3.38934e-17)
(-1.85643 105.913 -1.27153e-16)
(-6.18639 40.5348 1.30427e-16)
(-3.13759 103.906 5.35417e-17)
(3.66608 48.5655 -8.29127e-17)
(-4.41469 39.1327 0)
(-1.73794 104.832 3.87741e-16)
(-0.859945 46.1989 5.10655e-17)
(-10.9275 95.3149 -6.77604e-18)
(0.812357 110.748 2.40143e-16)
(-1.35937 101.384 -5.45814e-21)
(-1.55253 103.412 -1.30774e-16)
(16.6802 63.8085 1.87156e-16)
(-3.55821 21.7492 1.44973e-16)
(-3.91832 105.582 -7.06698e-17)
(-9.7515 97.8583 2.9939e-17)
(-0.104717 71.872 -1.16248e-16)
(-4.53694 105.012 3.19257e-17)
(-3.77721 101.643 -2.46427e-17)
(-10.961 51.5336 -2.09044e-16)
(-0.464715 127.75 1.38467e-17)
(1.43302 45.5377 7.24175e-17)
(1.02353 83.7856 6.34345e-21)
(-1.10047 40.3796 4.99038e-21)
(0.915342 104.775 -6.84452e-17)
(-1.10113 97.3953 7.85449e-21)
(0.92713 102.443 3.52392e-17)
(-3.55832 45.5423 0)
(11.6921 44.0494 -2.04921e-16)
(1.95084 112.825 6.18225e-17)
(0.914567 99.7531 -3.52396e-17)
(-10.2372 35.1653 0)
(1.53349 45.4248 -1.61935e-17)
(1.58712 69.1683 0)
(-0.510766 53.3743 2.39016e-16)
(0.919226 96.72 2.99436e-17)
(0.678545 83.3135 -2.43108e-16)
(4.58121 40.0793 5.70499e-17)
(-7.63232 13.5225 -2.0895e-21)
(0.961642 93.3117 -1.16518e-16)
(-10.3222 33.4839 2.00148e-20)
(0.870881 95.3006 -3.5327e-16)
(-0.120376 87.2552 2.70125e-16)
(0.983136 89.71 3.0189e-16)
(0.896385 93.1639 -1.35885e-16)
(-0.221425 45.6041 -5.75326e-17)
(1.06662 85.9455 -7.29278e-17)
(0.848969 90.8177 -4.7335e-21)
(-2.69598 43.3953 -1.23599e-16)
(1.10918 82.1007 1.88928e-17)
(0.817255 88.2746 0)
(0.144096 88.0996 -8.59483e-21)
(-1.31012 60.0926 2.32174e-21)
(0.34171 89.5311 -2.20381e-16)
(1.1597 78.0104 -4.09242e-17)
(0.819619 85.7321 1.48008e-16)
(0.374453 82.7091 -1.9519e-21)
(0.277936 82.8295 -1.68917e-16)
(1.26486 73.7265 -8.20091e-18)
(0.804555 83.4213 -1.6317e-16)
(0.238382 89.0689 -1.26862e-16)
(1.45507 69.4065 3.32011e-18)
(3.76294 96.2406 6.65704e-17)
(3.67826 92.366 -1.30432e-16)
(1.66305 65.1404 2.74127e-19)
(-2.56337 43.2256 -1.94705e-16)
(-4.01562 41.2473 -2.55119e-16)
(-3.78085 41.037 2.93382e-17)
(0.344634 45.3568 3.7025e-17)
(6.91022 49.6863 0)
(-5.89411 35.4138 0)
(3.55602 43.4044 -8.13718e-17)
(1.52346 65.3287 0)
(3.66939 72.8612 2.14563e-16)
(-0.31197 44.5755 -1.48419e-17)
(0.407703 45.3229 1.55038e-17)
(9.32293 34.0061 0)
(0.0760088 128.365 6.9685e-18)
(0.0693244 128.708 -1.44028e-21)
(0.0639703 129.055 -3.50711e-18)
(0.0590083 129.406 3.51822e-18)
(0.0563743 129.759 -3.54214e-18)
(0.0548004 130.116 4.4523e-19)
(0.0545801 130.477 -8.91933e-19)
(0.05546 130.843 -3.59039e-18)
(0.0566365 131.214 3.59394e-18)
(0.0575809 131.591 -8.19486e-22)
(0.0583509 131.974 -8.34632e-22)
(0.0584275 132.363 -1.80552e-18)
(0.0581469 132.759 2.25708e-19)
(0.0576235 133.16 -1.12918e-19)
(0.0570793 133.569 3.61259e-18)
(0.0564493 133.984 -3.61613e-18)
(0.0558374 134.406 -3.61454e-18)
(0.0551915 134.834 3.61686e-18)
(0.0545326 135.27 0)
(0.0538224 135.713 2.82491e-20)
(0.0531105 136.164 1.86378e-18)
(0.0524157 136.622 -1.01768e-21)
(0.0516191 137.088 -3.84116e-18)
(0.0504668 137.562 2.25948e-18)
(0.0486098 138.043 0)
(0.0459752 138.533 1.80484e-18)
(0.0427556 139.03 -3.60834e-18)
(0.0400606 139.536 0)
(0.0376535 140.05 -8.99728e-19)
(0.0362856 140.573 -2.23879e-19)
(0.0361554 141.104 1.80231e-18)
(0.037576 141.645 0)
(0.0396348 142.195 -1.80502e-18)
(0.0412465 142.754 0)
(0.0423956 143.323 -9.03317e-19)
(0.0426539 143.902 -4.50393e-19)
(0.0425057 144.491 9.05611e-19)
(0.0419926 145.09 9.0526e-19)
(0.0414662 145.698 2.65547e-18)
(0.0410421 146.317 -1.92282e-18)
(0.040645 146.946 1.8083e-18)
(0.0406232 147.586 -4.54034e-19)
(0.040835 148.236 1.3561e-18)
(0.0414939 148.897 -1.81403e-18)
(0.0431834 149.57 1.81403e-18)
(0.0460908 150.254 9.25253e-24)
(0.0500575 150.949 -3.63096e-18)
(0.0538824 151.658 8.37065e-22)
(0.0567038 152.38 3.63106e-18)
(-0.532127 151.566 3.63932e-18)
(-0.537399 152.289 -7.26723e-18)
(-0.528587 150.857 -1.81748e-18)
(10.5144 12.8407 3.36636e-17)
(0.082614 128.027 0)
(0.353658 128.298 0)
(0.354358 127.96 7.03172e-18)
(0.0560046 153.116 -2.72373e-18)
(0.0515893 153.868 -1.80965e-18)
(-0.558534 153.775 0)
(-0.545483 153.025 2.72157e-18)
(-0.518512 149.477 -5.44731e-18)
(-0.52434 150.161 3.63704e-18)
(-0.503672 148.143 -1.81195e-18)
(-0.511557 148.804 7.67056e-22)
(-0.487092 146.854 -3.62069e-18)
(-0.495341 147.493 2.71849e-18)
(-0.470082 145.607 1.40693e-21)
(-0.478613 146.225 3.84487e-18)
(-0.453443 144.401 -1.80832e-18)
(-0.461633 144.999 -1.69441e-18)
(-0.438764 143.233 -9.03363e-19)
(-0.445723 143.812 1.80656e-18)
(-0.428004 142.103 3.61076e-18)
(-0.432912 142.664 -1.80674e-18)
(-0.417551 141.012 9.02566e-19)
(-0.42341 141.553 -2.70997e-18)
(-0.401831 139.958 -2.70712e-18)
(-0.410451 140.48 -1.12795e-19)
(-0.382238 138.941 -1.80473e-18)
(-0.392198 139.445 3.60765e-18)
(-0.362751 137.957 -1.80675e-18)
(-0.372091 138.445 -1.09335e-21)
(-0.346668 137.003 0)
(-0.354214 137.476 1.80565e-18)
(-0.332725 136.08 3.56003e-18)
(-0.339588 136.538 -1.92157e-18)
(-0.319401 135.187 -1.80851e-18)
(-0.326027 135.63 -1.83572e-18)
(-0.306476 134.324 3.62915e-18)
(-0.31289 134.752 -9.45866e-22)
(-0.293814 133.488 -2.82333e-20)
(-0.300036 133.902 -1.793e-18)
(-0.281854 132.678 3.38458e-18)
(-0.287732 133.08 -3.61349e-18)
(-0.27126 131.894 -1.80347e-18)
(-0.276251 132.283 0)
(-0.26323 131.133 3.59489e-18)
(-0.266979 131.51 -1.21582e-21)
(-0.255842 130.395 0)
(-0.259728 130.761 -3.58987e-18)
(-0.244085 129.678 1.77151e-18)
(-0.250811 130.034 2.20869e-18)
(-0.225274 128.977 1.05072e-17)
(-0.235538 129.325 7.019e-18)
(-0.214235 128.632 -6.95837e-18)
(0.352715 128.989 -3.51323e-18)
(0.352848 128.642 -7.00238e-18)
(0.356132 129.692 -8.8497e-19)
(0.353895 129.339 -3.53774e-18)
(0.364903 130.409 -5.35957e-18)
(0.360441 130.048 3.62911e-18)
(0.375937 131.144 3.59661e-18)
(0.370382 130.774 -8.96234e-19)
(0.386987 131.902 9.01301e-19)
(0.381411 131.52 0)
(0.397519 132.685 -1.3538e-18)
(0.392411 132.29 -9.02514e-19)
(0.407429 133.494 1.80774e-18)
(0.402513 133.087 1.13808e-19)
(0.417579 134.33 -1.77938e-18)
(0.412545 133.909 0)
(0.427846 135.194 -1.80773e-18)
(0.422657 134.759 1.80893e-18)
(0.438408 136.087 -3.61647e-18)
(0.433138 135.637 3.61598e-18)
(0.449139 137.011 4.06723e-18)
(0.443765 136.545 -1.11971e-19)
(0.459185 137.966 -3.6146e-18)
(0.45443 137.484 2.25716e-18)
(0.467632 138.953 1.80389e-18)
(0.46358 138.456 0)
(0.47716 139.973 -9.0273e-19)
(0.472204 139.459 9.00795e-19)
(0.489407 141.026 1.19855e-21)
(0.4827 140.495 -3.37962e-18)
(0.505652 142.115 1.80566e-18)
(0.497307 141.566 2.70618e-18)
(0.522207 143.242 9.03247e-19)
(0.514107 142.674 0)
(0.537498 144.408 -2.71318e-18)
(0.530066 143.82 1.3543e-18)
(0.552481 145.614 -1.75249e-18)
(0.545059 145.006 1.80716e-18)
(0.567711 146.861 9.04165e-19)
(0.560056 146.232 2.2611e-19)
(0.584211 148.15 6.33577e-18)
(0.575708 147.5 -2.93977e-18)
(0.603287 149.483 1.81388e-18)
(0.593206 148.811 -6.34005e-18)
(0.62681 150.861 1.81541e-18)
(0.61445 150.166 1.81411e-18)
(0.648471 152.292 5.44323e-18)
(0.638503 151.569 8.54823e-22)
(0.661561 153.779 1.80992e-18)
(0.655848 153.028 -2.72093e-18)
(-1.1155 151.296 9.09837e-18)
(-1.12871 152.019 -1.81643e-18)
(-1.1042 150.586 -5.45856e-18)
(-8.70341 13.0753 1.40507e-16)
(10.5927 13.0992 4.15123e-17)
(0.632372 128.089 3.53621e-18)
(0.628839 127.752 -7.06775e-18)
(-0.574305 154.539 1.90947e-21)
(-1.16731 153.502 -3.62295e-18)
(-1.19366 154.261 -7.2254e-18)
(1.27176 153.505 -2.71406e-18)
(0.666427 154.543 -1.80792e-18)
(1.28731 154.268 0)
(0.3548 127.628 -7.05454e-18)
(0.0883324 127.697 -7.03716e-18)
(-1.14588 152.754 3.62342e-18)
(-1.07745 149.205 -1.81725e-18)
(-1.09137 149.89 1.81836e-18)
(-1.04626 147.873 0)
(-1.06243 148.533 -9.07795e-19)
(-1.01359 146.585 9.05065e-19)
(-1.0299 147.224 -1.35919e-18)
(-0.980627 145.34 -9.61632e-19)
(-0.99715 145.957 -2.26284e-19)
(-0.948252 144.136 6.75976e-22)
(-0.964255 144.733 1.69567e-18)
(-0.918414 142.97 -9.03392e-19)
(-0.932876 143.549 -4.51599e-19)
(-0.893396 141.84 -4.51759e-18)
(-0.905439 142.401 -1.80606e-18)
(-0.869073 140.748 6.00321e-22)
(-0.881842 141.289 4.51488e-18)
(-0.839793 139.697 1.80419e-18)
(-0.855257 140.217 -1.69211e-18)
(-0.806278 138.684 -2.70979e-18)
(-0.823233 139.186 -5.67301e-22)
(-0.773123 137.705 0)
(-0.789162 138.191 -1.80685e-18)
(-0.743692 136.755 -1.80813e-18)
(-0.757846 137.226 1.80808e-18)
(-0.717441 135.835 0)
(-0.730351 136.291 1.13078e-19)
(-0.692016 134.945 7.06475e-21)
(-0.704662 135.386 0)
(-0.667335 134.083 1.7933e-18)
(-0.679589 134.51 -1.811e-18)
(-0.643496 133.25 9.88275e-19)
(-0.655347 133.663 -9.18384e-19)
(-0.62049 132.443 0)
(-0.631879 132.843 5.64553e-20)
(-0.599298 131.66 0)
(-0.609597 132.049 0)
(-0.581326 130.9 -1.79869e-18)
(-0.589977 131.277 -1.801e-18)
(-0.564505 130.161 -4.06004e-22)
(-0.573171 130.527 3.58984e-18)
(-0.543097 129.446 1.7702e-18)
(-0.554396 129.801 1.79752e-18)
(-0.513474 128.753 -8.74379e-18)
(-0.529224 129.097 -1.22955e-17)
(-0.496938 128.413 -6.96476e-18)
(-2.53303 102.906 3.0655e-17)
(0.0454157 154.632 5.42142e-18)
(0.641404 128.777 7.05294e-18)
(0.636356 128.43 -3.51997e-18)
(0.655561 129.477 8.88569e-19)
(0.648148 129.125 -1.77111e-18)
(0.672999 130.19 -1.7931e-18)
(0.66398 129.832 1.73025e-18)
(0.693386 130.922 -9.00868e-19)
(0.683099 130.553 1.79323e-18)
(0.714362 131.676 0)
(0.70376 131.296 0)
(0.73553 132.457 9.03525e-19)
(0.724975 132.063 -9.02166e-19)
(0.756568 133.263 -2.76967e-18)
(0.746095 132.857 1.80631e-18)
(0.777926 134.097 -2.82574e-20)
(0.76713 133.676 8.47359e-19)
(0.799847 134.958 0)
(0.788828 134.524 0)
(0.822463 135.848 -9.04981e-19)
(0.811127 135.399 9.03836e-19)
(0.845554 136.77 6.77907e-19)
(0.833984 136.305 1.13012e-19)
(0.868997 137.722 5.37565e-22)
(0.857363 137.242 -1.80723e-18)
(0.891542 138.708 0)
(0.880391 138.211 1.80631e-18)
(0.915005 139.726 9.02118e-19)
(0.903072 139.213 -9.02264e-19)
(0.940843 140.777 -9.01986e-19)
(0.927532 140.248 0)
(0.970043 141.863 -1.8065e-18)
(0.955137 141.316 1.80502e-18)
(1.00069 142.987 0)
(0.985505 142.42 1.80694e-18)
(1.03146 144.15 6.78752e-19)
(1.01626 143.563 -1.35495e-18)
(1.06209 145.354 9.61291e-19)
(1.04671 144.747 -9.03469e-19)
(1.09343 146.599 0)
(1.07761 145.971 -1.13067e-19)
(1.126 147.886 -4.52517e-19)
(1.10945 147.237 -3.00819e-24)
(1.16075 149.217 2.71806e-18)
(1.14284 148.546 -4.52579e-19)
(1.19906 150.593 -9.08001e-19)
(1.1793 149.899 -1.62119e-21)
(1.23731 152.021 0)
(1.21843 151.3 0)
(1.25508 152.756 -9.05497e-19)
(0.625073 127.422 0)
(-1.81184 153.799 -3.61486e-18)
(-1.77551 153.045 7.24569e-18)
(-1.69761 150.844 -1.81988e-18)
(-1.71922 151.567 3.63135e-18)
(-1.67782 150.134 -6.37436e-18)
(0.670712 155.321 -3.60993e-18)
(1.30305 155.044 1.80455e-18)
(-0.181521 127.631 -3.6272e-18)
(0.620242 127.098 1.06887e-17)
(0.354104 127.304 1.77657e-17)
(0.0909485 127.375 -1.776e-18)
(-1.85002 154.567 -3.60702e-18)
(-2.42898 153.151 -3.61384e-18)
(-2.47782 153.912 0)
(0.351417 126.989 0)
(0.61423 126.782 -1.42789e-17)
(-1.74584 152.3 -7.24955e-18)
(-1.63485 148.753 9.09809e-19)
(-1.65694 149.437 1.82006e-18)
(-1.58772 147.422 0)
(-1.6116 148.082 1.81685e-18)
(-1.53874 146.137 0)
(-1.56334 146.774 0)
(-1.48968 144.896 -7.9234e-19)
(-1.51421 145.511 0)
(-1.44167 143.695 -9.04374e-19)
(-1.46545 144.291 1.80962e-18)
(-1.39659 142.533 2.71426e-18)
(-1.41866 143.109 1.162e-23)
(-1.35729 141.404 3.61669e-18)
(-1.37634 141.964 9.04555e-19)
(-1.31962 140.312 0)
(-1.33883 140.852 -7.22467e-18)
(-1.27654 139.263 -3.60894e-18)
(-1.29801 139.783 0)
(-1.22843 138.257 3.61683e-18)
(-1.25253 138.756 0)
(-1.18151 137.285 9.0419e-19)
(-1.20427 137.768 1.80919e-18)
(-1.1391 136.34 0)
(-1.15967 136.809 1.80872e-18)
(-1.10034 135.425 0)
(-1.11952 135.879 0)
(-1.06292 134.538 -7.07078e-21)
(-1.08142 134.978 0)
(-1.02672 133.681 -9.04399e-19)
(-1.04472 134.106 8.92473e-19)
(-0.991472 132.852 -9.60711e-19)
(-1.00895 133.263 9.04614e-19)
(-0.957481 132.049 0)
(-0.974335 132.447 -5.64814e-20)
(-0.925653 131.27 0)
(-0.941239 131.657 -9.0299e-19)
(-0.897584 130.511 3.59706e-18)
(-0.911199 130.888 -9.01462e-19)
(-0.87149 129.773 -8.94241e-19)
(-0.884686 130.139 1.79675e-18)
(-0.839645 129.063 -8.86491e-18)
(-0.856554 129.414 0)
(-0.800102 128.381 7.01072e-18)
(-0.820427 128.719 8.81354e-18)
(6.93492 91.3491 -3.05327e-18)
(-0.779333 128.048 3.48868e-18)
(-0.591244 155.315 7.21997e-18)
(0.0388469 155.41 0)
(-1.22137 155.034 3.60986e-18)
(0.872373 126.436 -1.43054e-17)
(0.892118 127.074 -1.06942e-17)
(0.882548 126.752 2.8516e-17)
(0.909227 127.735 -1.06642e-17)
(0.900361 127.402 0)
(0.929051 128.415 1.77469e-18)
(0.918701 128.073 7.0864e-18)
(0.95304 129.11 1.78707e-18)
(0.940732 128.761 -1.77286e-18)
(0.981 129.818 3.37073e-18)
(0.966745 129.462 -5.37009e-18)
(1.0105 130.545 2.70581e-18)
(0.995602 130.179 -2.69231e-18)
(1.04127 131.295 4.51166e-19)
(1.02571 130.917 0)
(1.07279 132.07 -1.35579e-18)
(1.05702 131.679 9.02577e-19)
(1.10482 132.872 9.6135e-19)
(1.08867 132.468 -9.03875e-19)
(1.13746 133.701 -9.04976e-19)
(1.12112 133.283 9.60671e-19)
(1.17108 134.558 -8.77184e-19)
(1.15417 134.126 9.18957e-19)
(1.2057 135.445 9.04919e-19)
(1.18824 134.998 -1.41337e-20)
(1.24121 136.362 6.78833e-19)
(1.2234 135.899 -1.92226e-18)
(1.27758 137.311 2.26071e-19)
(1.25933 136.832 0)
(1.31412 138.293 0)
(1.29582 137.798 -9.04041e-19)
(1.35163 139.307 0)
(1.33269 138.796 4.51564e-19)
(1.3916 140.355 -1.01565e-18)
(1.37125 139.827 0)
(1.43436 141.437 4.51642e-19)
(1.41263 140.891 3.10177e-22)
(1.47928 142.556 4.5229e-19)
(1.45682 141.991 -1.80837e-18)
(1.52499 143.715 -4.76415e-24)
(1.50207 143.131 9.04123e-19)
(1.57123 144.915 4.52563e-19)
(1.54805 144.31 -4.52086e-19)
(1.61871 146.156 -4.52319e-19)
(1.59483 145.531 0)
(1.6679 147.44 -6.78586e-19)
(1.64305 146.793 7.92211e-19)
(1.71909 148.768 -1.81289e-18)
(1.69298 148.099 2.26301e-18)
(1.7733 150.141 -4.10836e-22)
(1.74575 149.449 9.06291e-19)
(1.82922 151.565 -6.80104e-19)
(1.80109 150.847 -8.46584e-22)
(1.88266 153.045 -2.43304e-23)
(1.85626 152.298 0)
(1.93518 154.579 -2.25743e-19)
(1.90888 153.805 2.25725e-19)
(0.607749 126.472 0)
(0.861869 126.127 -1.07725e-17)
(-0.450445 127.428 0)
(-2.38307 152.402 -1.81474e-18)
(-0.176061 127.311 1.85855e-18)
(-1.88796 155.349 7.21267e-18)
(-2.52657 154.689 -3.6047e-18)
(-3.04543 152.313 7.23696e-18)
(-3.10355 153.068 7.2156e-18)
(2.56653 153.925 4.51308e-19)
(1.96243 155.365 0)
(2.60412 154.708 -1.35394e-18)
(0.092023 127.06 -7.07145e-18)
(0.350259 126.679 0)
(0.599511 126.17 0)
(-2.25146 149.497 2.73244e-18)
(-2.27999 150.207 9.10575e-19)
(-2.31023 150.929 0)
(0.850981 125.824 1.43763e-17)
(-0.988734 126.58 3.49715e-18)
(-0.721551 127.08 -6.99191e-18)
(-2.34436 151.66 0)
(-2.19153 148.117 0)
(-2.22178 148.801 0)
(-2.12785 146.789 4.54016e-19)
(-2.1598 147.447 0)
(-2.06235 145.508 -4.53475e-19)
(-2.09523 146.143 -4.53292e-19)
(-1.99724 144.27 -5.65953e-19)
(-2.02976 144.884 9.06248e-19)
(-1.9334 143.075 0)
(-1.96501 143.668 0)
(-1.87323 141.916 -4.52292e-19)
(-1.9027 142.491 1.70844e-22)
(-1.81936 140.789 4.52261e-19)
(-1.84564 141.348 -4.52503e-19)
(-1.7678 139.698 -1.35457e-18)
(-1.79395 140.238 3.6178e-18)
(-1.71042 138.655 1.81071e-18)
(-1.73946 139.171 -4.51495e-19)
(-1.64842 137.657 9.04994e-19)
(-1.67984 138.15 -4.52518e-19)
(-1.58756 136.693 -1.81204e-18)
(-1.61731 137.172 3.16867e-18)
(-1.53261 135.755 9.05737e-19)
(-1.55939 136.221 -4.53016e-19)
(-1.48142 134.845 -4.52581e-19)
(-1.50674 135.296 9.06357e-19)
(-1.43195 133.964 0)
(-1.45654 134.401 -4.52692e-19)
(-1.38389 133.112 -2.32335e-22)
(-1.40774 133.535 -4.38629e-19)
(-1.33734 132.288 0)
(-1.36044 132.697 4.52443e-19)
(-1.29224 131.491 -1.13043e-18)
(-1.31457 131.886 3.95841e-19)
(-1.24972 130.717 2.25628e-18)
(-1.27058 131.101 1.35543e-18)
(-1.21158 129.96 -4.04864e-18)
(-1.23008 130.336 -4.0542e-18)
(-1.17517 129.224 8.96344e-19)
(-1.19352 129.589 4.49607e-19)
(-1.13267 128.522 2.22593e-19)
(-1.15496 128.869 8.94311e-19)
(-1.08402 127.854 7.0453e-18)
(-1.10902 128.184 6.86277e-18)
(4.26544 39.8046 0)
(-1.05887 127.529 0)
(0.435096 45.1886 5.88527e-17)
(0.676272 156.11 2.48e-18)
(1.31977 155.832 -9.01765e-19)
(-0.607094 156.104 -3.61247e-18)
(0.0336571 156.201 -3.60667e-18)
(-1.24869 155.82 1.89353e-21)
(1.09543 125.335 -1.44041e-17)
(1.12446 125.943 -5.29267e-21)
(1.10989 125.636 1.07648e-17)
(1.15243 126.574 -3.57037e-18)
(1.1384 126.256 -1.43287e-17)
(1.18127 127.228 3.56846e-18)
(1.16688 126.899 -7.13733e-18)
(1.21295 127.898 5.35261e-18)
(1.19642 127.561 0)
(1.24819 128.585 0)
(1.22991 128.24 -3.55704e-18)
(1.28525 129.286 -3.9297e-24)
(1.26637 128.934 -4.19786e-20)
(1.32507 130.007 1.80518e-18)
(1.30492 129.644 -2.25e-18)
(1.36581 130.751 -9.03197e-19)
(1.34524 130.376 0)
(1.40785 131.52 7.91593e-19)
(1.38685 131.132 9.03613e-19)
(1.45069 132.316 0)
(1.42919 131.914 -9.0501e-19)
(1.49483 133.139 0)
(1.47264 132.724 1.1311e-19)
(1.54012 133.991 -9.33948e-19)
(1.51726 133.561 -1.41497e-20)
(1.58683 134.872 -4.52746e-19)
(1.56335 134.427 9.1974e-19)
(1.63491 135.783 2.26391e-19)
(1.61072 135.324 5.6594e-19)
(1.68422 136.726 5.55596e-24)
(1.65942 136.251 -1.13136e-19)
(1.73434 137.703 2.26119e-19)
(1.70917 137.21 4.5249e-19)
(1.78623 138.712 0)
(1.76006 138.203 -9.04459e-19)
(1.84011 139.755 -2.82772e-19)
(1.81293 139.229 3.38872e-19)
(1.89706 140.832 2.26145e-19)
(1.86832 140.289 -2.26139e-19)
(1.95611 141.946 -4.52619e-19)
(1.92632 141.384 0)
(2.0168 143.1 -4.52739e-19)
(1.98623 142.518 -1.61743e-22)
(2.07887 144.295 8.48999e-19)
(2.04771 143.693 -3.39324e-19)
(2.14254 145.532 2.26471e-19)
(2.11042 144.908 -6.7911e-19)
(2.20821 146.811 -2.26411e-19)
(2.17505 146.166 -1.13191e-19)
(2.27626 148.135 9.0637e-19)
(2.24176 147.467 -4.52555e-19)
(2.34748 149.504 0)
(2.31159 148.813 -9.06338e-19)
(2.42099 150.922 -2.26584e-19)
(2.38391 150.207 0)
(2.49339 152.397 4.52427e-19)
(2.45721 151.653 0)
(2.52983 153.154 -4.51987e-19)
(0.840168 125.527 -8.9955e-18)
(1.08076 125.041 1.44123e-17)
(-0.440039 127.109 -2.61863e-18)
(-2.99088 151.57 -1.81021e-18)
(-2.86154 149.382 4.55218e-18)
(-2.90117 150.102 -9.09073e-19)
(-2.82384 148.673 0)
(-3.1628 153.838 0)
(1.99073 156.165 -4.50954e-19)
(2.64266 155.505 1.35342e-18)
(-1.25509 125.918 7.01028e-18)
(-0.968134 126.27 -1.40322e-17)
(-1.23068 125.614 0)
(-0.168202 126.997 -3.52245e-18)
(0.0940414 126.752 7.18807e-18)
(0.346993 126.377 3.57774e-18)
(0.592863 125.872 -1.43011e-17)
(0.828772 125.235 1.25979e-17)
(1.06601 124.751 0)
(-0.705716 126.765 1.04978e-17)
(-2.94305 150.832 -1.81564e-18)
(-2.74681 147.294 -3.18363e-18)
(-2.78562 147.977 0)
(-2.66636 145.968 -2.26877e-19)
(-2.70671 146.625 -2.26933e-19)
(-2.58368 144.692 3.66052e-22)
(-2.6247 145.325 4.54232e-19)
(-2.50257 143.46 -2.26688e-19)
(-2.54289 144.071 -4.53512e-19)
(-2.42304 142.27 2.26607e-19)
(-2.46246 142.86 -1.13295e-19)
(-2.34756 141.116 2.26639e-19)
(-2.38462 141.689 -2.26423e-19)
(-2.27918 139.991 3.6229e-18)
(-2.31265 140.55 -2.2641e-19)
(-2.21373 138.902 3.84743e-18)
(-2.24676 139.441 -2.26293e-19)
(-2.14198 137.865 2.25967e-19)
(-2.17872 138.377 9.04486e-19)
(-2.06573 136.877 -3.62533e-18)
(-2.10428 137.365 -2.26201e-19)
(-1.99124 135.924 0)
(-2.0278 136.397 -3.62423e-18)
(-1.92358 134.992 -4.53204e-19)
(-1.9567 135.455 -6.79884e-19)
(-1.85973 134.089 5.66816e-20)
(-1.89142 134.537 6.81565e-23)
(-1.79813 133.215 0)
(-1.82867 133.648 0)
(-1.7384 132.37 0)
(-1.76803 132.789 2.8324e-20)
(-1.68038 131.552 -4.52773e-19)
(-1.70916 131.958 4.53156e-19)
(-1.62423 130.762 5.15749e-23)
(-1.65207 131.154 2.83006e-19)
(-1.57105 129.994 -2.03263e-18)
(-1.59717 130.375 0)
(-1.52262 129.241 1.12752e-19)
(-1.54637 129.615 3.83772e-18)
(-1.47596 128.509 -1.12217e-19)
(-1.49941 128.871 4.94733e-23)
(-1.42421 127.815 -3.4515e-23)
(-1.45044 128.158 1.79213e-18)
(-1.36532 127.162 -7.06786e-18)
(-1.39473 127.486 -1.77513e-18)
(-1.30777 126.533 -1.33015e-21)
(-1.33581 126.846 0)
(-1.28064 126.225 7.01314e-18)
(0.683531 156.913 1.97211e-18)
(1.33743 156.634 -4.5068e-19)
(-0.622005 156.907 -3.60776e-18)
(0.0300205 157.004 2.70471e-18)
(-1.92455 156.146 1.80296e-18)
(-1.2747 156.621 1.80285e-18)
(-3.2213 154.626 3.60226e-18)
(-2.57393 155.482 0)
(1.29901 124.115 -1.44045e-17)
(1.33662 124.692 -1.26368e-17)
(1.3177 124.402 2.70229e-17)
(1.37347 125.293 7.19236e-18)
(1.35525 124.989 -1.07666e-17)
(1.41177 125.914 -1.79213e-18)
(1.39258 125.601 7.17974e-18)
(1.45253 126.558 -5.38078e-18)
(1.43171 126.234 1.07017e-17)
(1.49422 127.217 -3.5804e-18)
(1.47311 126.885 3.58428e-18)
(1.53886 127.894 1.79175e-18)
(1.51604 127.554 -2.6826e-18)
(1.58685 128.588 2.25222e-19)
(1.56266 128.239 -1.25434e-24)
(1.63643 129.301 9.03847e-19)
(1.61153 128.941 -4.50654e-19)
(1.68738 130.037 -4.52701e-19)
(1.66181 129.666 2.26177e-19)
(1.74008 130.799 -1.13232e-19)
(1.71345 130.415 0)
(1.79394 131.588 1.416e-18)
(1.76684 131.19 -3.96254e-19)
(1.8494 132.404 4.5321e-19)
(1.82146 131.992 -9.62393e-19)
(1.9064 133.249 1.41653e-20)
(1.8777 132.823 -4.53469e-19)
(1.96522 134.123 -4.67319e-19)
(1.93555 133.682 0)
(2.02578 135.028 0)
(1.9953 134.572 4.53253e-19)
(2.08811 135.964 -2.26532e-19)
(2.05669 135.492 -3.44736e-24)
(2.15192 136.934 7.44066e-23)
(2.11985 136.445 -2.26508e-19)
(2.21787 137.937 2.26311e-19)
(2.18465 137.431 4.52834e-19)
(2.286 138.973 8.49037e-19)
(2.25169 138.45 -5.65863e-19)
(2.35692 140.045 6.79377e-19)
(2.32122 139.505 -2.265e-19)
(2.43054 141.154 -2.26444e-19)
(2.39349 140.594 -4.53116e-19)
(2.50647 142.301 -2.26661e-19)
(2.4683 141.722 6.79408e-19)
(2.58426 143.49 1.13291e-19)
(2.54506 142.891 4.22762e-24)
(2.66413 144.721 0)
(2.6239 144.1 0)
(2.74663 145.995 0)
(2.705 145.352 0)
(2.83179 147.313 -6.79996e-19)
(2.78873 146.648 1.13268e-19)
(2.9202 148.677 2.26712e-19)
(2.87567 147.989 0)
(3.01112 150.091 0)
(2.9654 149.377 -2.26692e-19)
(3.10293 151.558 3.39412e-19)
(3.05694 150.818 5.65802e-20)
(3.19647 153.079 -4.51794e-19)
(3.14944 152.312 4.52315e-19)
(3.29306 154.654 -4.51482e-19)
(3.24428 153.86 9.03919e-19)
(1.05118 124.466 1.26299e-17)
(1.28072 123.833 0)
(-1.20662 125.313 1.39544e-17)
(-0.948689 125.965 6.96679e-18)
(-0.429177 126.798 -1.75409e-18)
(-3.66219 151.283 0)
(-3.72999 152.032 -3.61064e-18)
(-3.59763 150.546 1.81478e-18)
(-0.162563 126.69 1.072e-17)
(-3.27809 155.431 0)
(-3.86699 153.577 -3.60086e-18)
(-3.93446 154.378 0)
(3.94174 153.61 3.38952e-19)
(3.34272 155.461 1.01609e-18)
(4.00174 154.414 -4.52417e-19)
(-1.46128 124.486 0)
(-1.18477 125.008 -6.9352e-18)
(-1.43483 124.183 -1.3883e-17)
(0.0940795 126.45 -1.41762e-17)
(0.344683 126.079 7.13869e-18)
(0.586841 125.579 1.62002e-17)
(0.816789 124.95 1.80467e-18)
(1.03634 124.186 -2.88762e-17)
(-3.48989 149.083 -1.82166e-18)
(-3.44044 148.366 -2.73697e-18)
(-3.39393 147.657 1.82504e-18)
(1.26251 123.556 0)
(-0.690555 126.456 8.71174e-19)
(-3.79848 152.796 -7.21249e-18)
(-3.54072 149.812 0)
(-3.29964 146.28 3.64413e-18)
(-3.34697 146.962 9.1195e-19)
(-3.20206 144.958 -9.09086e-19)
(-3.25107 145.613 0)
(-3.10312 143.687 -3.40499e-19)
(-3.15224 144.317 2.27218e-19)
(-3.0057 142.461 2.26879e-19)
(-3.0541 143.069 1.13469e-19)
(-2.91025 141.277 1.13358e-19)
(-2.95758 141.864 1.13366e-19)
(-2.81942 140.129 1.81397e-18)
(-2.86412 140.699 0)
(-2.73633 139.007 -3.56952e-18)
(-2.7771 139.564 0)
(-2.65691 137.919 1.13346e-19)
(-2.69697 138.456 -5.66165e-20)
(-2.5717 136.887 1.6977e-18)
(-2.6146 137.396 -1.01835e-18)
(-2.48007 135.913 3.62949e-18)
(-2.52605 136.395 3.73871e-18)
(-2.39203 134.97 1.13463e-19)
(-2.43526 135.438 0)
(-2.31151 134.047 4.53955e-19)
(-2.35116 134.505 7.94063e-19)
(-2.23525 133.15 1.70119e-19)
(-2.27306 133.595 -4.53896e-19)
(-2.16146 132.283 -2.26944e-19)
(-2.19808 132.713 0)
(-2.0898 131.446 0)
(-2.12537 131.861 1.98458e-19)
(-2.02025 130.636 0)
(-2.05477 131.038 -3.54306e-21)
(-1.953 129.853 3.3984e-19)
(-1.98631 130.242 1.13351e-19)
(-1.88896 129.092 1.8059e-18)
(-1.92052 129.47 9.09333e-19)
(-1.82991 128.344 0)
(-1.8589 128.716 0)
(-1.77341 127.615 1.79234e-18)
(-1.80187 127.975 0)
(-1.71124 126.932 3.57594e-18)
(-1.7427 127.269 8.97348e-19)
(-1.64349 126.295 0)
(-1.67744 126.61 -3.56498e-18)
(-1.5775 125.681 -7.06701e-18)
(-1.60961 125.987 0)
(-1.51653 125.08 1.05844e-17)
(-1.54583 125.38 -2.11626e-17)
(-1.48873 124.783 0)
(2.01965 156.977 0)
(2.68203 156.316 -1.01566e-18)
(0.692173 157.729 5.07172e-19)
(1.35602 157.448 -1.35119e-18)
(-0.63561 157.723 0)
(0.0277402 157.821 -9.03019e-19)
(-1.95994 156.958 -3.60257e-18)
(-1.29834 157.436 0)
(-2.62015 156.29 0)
(1.48441 122.767 -2.90493e-17)
(1.5282 123.315 -1.80496e-18)
(1.50614 123.038 1.44763e-17)
(1.57412 123.883 -1.80919e-18)
(1.55078 123.598 1.80164e-18)
(1.62078 124.472 7.21877e-18)
(1.59705 124.176 -3.59926e-18)
(1.67006 125.083 1.79876e-18)
(1.6449 124.775 -7.19192e-18)
(1.72016 125.716 1.7983e-18)
(1.69489 125.398 -5.36916e-18)
(1.77218 126.363 -3.59091e-18)
(1.74584 126.037 0)
(1.82699 127.029 -1.79883e-18)
(1.79923 126.694 8.5426e-18)
(1.88445 127.713 -2.25701e-19)
(1.8554 127.369 -1.74527e-18)
(1.94414 128.417 1.35753e-18)
(1.91397 128.063 -4.51896e-19)
(2.00548 129.146 4.53505e-19)
(1.97455 128.779 -1.58512e-18)
(2.06863 129.9 5.13766e-23)
(2.03689 129.519 0)
(2.13375 130.68 -5.10366e-19)
(2.10093 130.286 6.23702e-19)
(2.20061 131.489 0)
(2.16691 131.081 -5.67081e-20)
(2.26956 132.326 -4.68139e-19)
(2.23486 131.904 4.55488e-19)
(2.34054 133.192 2.41116e-19)
(2.30479 132.755 -2.12645e-19)
(2.41378 134.089 0)
(2.37691 133.637 0)
(2.48913 135.018 -2.26857e-19)
(2.45118 134.55 2.83443e-19)
(2.56647 135.98 -1.13414e-19)
(2.52753 135.495 -2.26817e-19)
(2.64644 136.976 -5.66946e-20)
(2.60615 136.474 -5.19954e-23)
(2.72885 138.005 1.50488e-22)
(2.68737 137.486 -2.2662e-19)
(2.8142 139.071 -2.26812e-19)
(2.77113 138.534 5.10099e-19)
(2.90254 140.173 3.39993e-19)
(2.85802 139.617 1.13343e-19)
(2.99355 141.314 1.1339e-19)
(2.94768 140.739 -3.40242e-19)
(3.0872 142.496 -2.83448e-19)
(3.04007 141.9 -4.12011e-23)
(3.18369 143.721 2.26811e-19)
(3.1351 143.103 -1.69972e-19)
(3.28285 144.988 -2.8343e-20)
(3.2329 144.349 0)
(3.38511 146.301 2.83512e-19)
(3.33353 145.639 -2.26665e-19)
(3.49099 147.659 -4.53565e-19)
(3.43772 146.974 0)
(3.59978 149.067 1.13297e-19)
(3.54521 148.357 4.53723e-19)
(3.71102 150.528 -1.13193e-19)
(3.65527 149.791 -5.67075e-20)
(3.82461 152.042 4.52689e-19)
(3.76749 151.278 -1.13012e-19)
(3.88266 152.819 0)
(1.2438 123.285 0)
(1.46255 122.502 2.90468e-17)
(-0.932473 125.659 6.94862e-18)
(-0.420578 126.491 1.64808e-18)
(-4.27708 150.061 1.80987e-18)
(-4.35422 150.804 -1.80891e-18)
(-4.2033 149.329 0)
(-4.01863 147.157 9.12222e-19)
(-4.0772 147.872 -2.73458e-18)
(-3.96272 146.449 2.28577e-22)
(-4.51156 152.337 1.79105e-21)
(-4.58965 153.133 0)
(3.39322 156.283 4.78968e-19)
(4.06274 155.233 -2.82543e-20)
(-1.41055 123.864 1.36045e-17)
(-1.16723 124.692 -6.80875e-18)
(-0.158388 126.388 -3.51901e-18)
(0.0968032 126.152 1.0685e-17)
(0.342433 125.786 -1.44199e-17)