/*--------------------------------*- C++ -*----------------------------------*\
| =========                 |                                                 |
| \\      /  F ield         | OpenFOAM: The Open Source CFD Toolbox           |
|  \\    /   O peration     | Version:  2212                                  |
|   \\  /    A nd           | Website:  www.openfoam.com                      |
|    \\/     M anipulation  |                                                 |
\*---------------------------------------------------------------------------*/
FoamFile
{
    version     2.0;
    format      ascii;
    arch        "LSB;label=32;scalar=64";
    class       surfaceScalarField;
    location    "0.000441";
    object      phi;
}
// * * * * * * * * * * * * * * * * * * * * * * * * * * * * * * * * * * * * * //

dimensions      [1 0 -1 0 0 0 0];

oriented        oriented;

internalField   nonuniform List<scalar> 
45816
(
-1.49568e-08
1.27608e-08
2.03747e-09
-1.65018e-08
1.36705e-09
-1.79192e-08
1.24409e-09
-1.93336e-08
1.24743e-09
-2.05461e-08
1.09803e-09
-2.1611e-08
1.02785e-09
-2.24351e-08
9.12295e-10
-2.29167e-08
7.12893e-10
-2.31652e-08
7.05979e-10
-2.31746e-08
5.98549e-10
-2.3056e-08
6.89894e-10
-2.26075e-08
6.04727e-10
-2.20284e-08
6.21708e-10
-2.12912e-08
5.75499e-10
-2.03998e-08
5.51852e-10
-1.93593e-08
5.45741e-10
-1.82145e-08
5.58194e-10
-1.69628e-08
5.51513e-10
-1.55969e-08
5.2145e-10
-1.41343e-08
4.82533e-10
-1.26096e-08
4.98343e-10
-1.10583e-08
4.69933e-10
-9.45638e-09
4.22261e-10
-7.80813e-09
4.45334e-10
-6.1529e-09
4.43915e-10
-4.53398e-09
3.96156e-10
-2.95626e-09
3.71499e-10
-1.44215e-09
3.731e-10
-4.26989e-11
3.79752e-10
1.22027e-09
3.38428e-10
2.35586e-09
3.24897e-10
3.35354e-09
3.207e-10
4.19332e-09
3.03793e-10
4.89237e-09
2.82959e-10
5.46722e-09
2.61977e-10
5.91403e-09
2.45547e-10
6.26155e-09
2.24658e-10
6.51319e-09
2.21778e-10
6.69676e-09
2.04022e-10
6.84364e-09
1.83119e-10
6.96546e-09
1.77638e-10
7.07349e-09
1.70211e-10
7.20539e-09
1.61285e-10
7.37617e-09
1.41336e-10
7.59381e-09
1.36045e-10
7.85583e-09
1.15197e-10
8.17431e-09
7.91965e-11
8.54108e-09
6.10567e-11
8.94531e-09
4.77534e-11
9.35643e-09
3.90962e-11
9.82304e-09
-1.12248e-11
1.03091e-08
-2.38483e-11
1.08492e-08
-7.5082e-11
1.13098e-08
-2.71036e-11
1.18263e-08
-1.13303e-10
1.22061e-08
-2.58494e-11
1.23266e-08
1.72431e-10
1.20944e-08
4.49979e-10
1.15063e-08
7.41119e-10
9.81738e-09
1.78753e-09
6.30151e-09
3.57281e-09
2.68322e-09
-1.20248e-08
1.53519e-08
-3.50028e-09
5.67218e-10
-1.34023e-07
1.52722e-07
-1.87746e-08
-2.38677e-07
1.04563e-07
-2.18106e-07
-2.06161e-08
-2.10313e-07
-7.84886e-09
-1.97764e-07
-1.28875e-08
-1.82593e-07
-1.55298e-08
-1.67528e-07
-1.55894e-08
-1.53897e-07
-1.40095e-08
-1.42802e-07
-1.12196e-08
-1.3115e-07
-1.16759e-08
-1.2245e-07
-8.78998e-09
-1.13289e-07
-9.24612e-09
-1.06427e-07
-6.98976e-09
-9.92528e-08
-7.50737e-09
-9.33568e-08
-6.18284e-09
-8.68178e-08
-6.67945e-09
-8.07381e-08
-6.21092e-09
-7.52031e-08
-5.76077e-09
-7.0259e-08
-5.22249e-09
-6.61589e-08
-4.40649e-09
-6.18906e-08
-4.5533e-09
-5.85648e-08
-3.598e-09
-5.49333e-08
-3.94137e-09
-5.23446e-08
-2.91631e-09
-4.93226e-08
-3.34465e-09
-4.72348e-08
-2.43139e-09
-4.48335e-08
-2.72693e-09
-4.30729e-08
-2.08654e-09
-4.10918e-08
-2.30776e-09
-3.96217e-08
-1.83235e-09
-3.80806e-08
-1.9149e-09
-3.68644e-08
-1.56178e-09
-3.55389e-08
-1.64959e-09
-3.45438e-08
-1.32609e-09
-3.34898e-08
-1.39854e-09
-3.27101e-08
-1.11626e-09
-3.18376e-08
-1.2045e-09
-3.11926e-08
-9.80657e-10
-3.05441e-08
-9.85107e-10
-3.00135e-08
-8.54866e-10
-2.9356e-08
-9.7731e-10
-2.88619e-08
-8.09256e-10
-2.82619e-08
-8.83594e-10
-2.7731e-08
-7.81006e-10
-2.70251e-08
-9.38156e-10
-2.62569e-08
-1.0028e-09
-2.51349e-08
-1.37508e-09
-2.33972e-08
-1.9873e-09
-2.02548e-08
-3.37827e-09
-5.11438e-09
5.33848e-08
9.92284e-08
6.45889e-08
-1.1191e-08
1.43163e-07
-7.84905e-08
1.25867e-07
1.73696e-08
1.04262e-07
2.16696e-08
8.69643e-08
1.72013e-08
7.04892e-08
1.64099e-08
5.65206e-08
1.3937e-08
4.39893e-08
1.2511e-08
3.40213e-08
9.9059e-09
2.69959e-08
7.04796e-09
2.1902e-08
5.06432e-09
1.81203e-08
3.79514e-09
1.53622e-08
2.73968e-09
1.34226e-08
1.95217e-09
1.16501e-08
1.80957e-09
1.0104e-08
1.42934e-09
9.13123e-09
1.05265e-09
8.0832e-09
9.83019e-10
7.06099e-09
9.24419e-10
6.45726e-09
6.71584e-10
5.7412e-09
6.64352e-10
5.17783e-09
7.20316e-10
4.73421e-09
4.6101e-10
4.23817e-09
4.94046e-10
3.9639e-09
2.60397e-10
3.51254e-09
4.82801e-10
3.31991e-09
1.90099e-10
2.93355e-09
2.92284e-10
2.7666e-09
1.44763e-10
2.49667e-09
3.01203e-10
2.35008e-09
1.35168e-10
2.11957e-09
2.35779e-10
2.0206e-09
1.21492e-10
1.83293e-09
2.27746e-10
1.72992e-09
1.45822e-10
1.61104e-09
2.44264e-10
1.59156e-09
9.16712e-11
1.50544e-09
5.48899e-11
1.41652e-09
-1.67114e-10
1.26819e-09
-6.95119e-11
1.19006e-09
7.09777e-12
1.09488e-09
1.83178e-10
1.0566e-09
2.42884e-10
9.8867e-10
2.33872e-10
9.33054e-10
3.57186e-11
8.40136e-10
-2.19423e-11
7.81803e-10
-2.56983e-11
7.22187e-10
7.7952e-12
6.81009e-10
3.87852e-11
6.47376e-10
8.51078e-11
6.18165e-10
5.29945e-11
5.89127e-10
3.43376e-11
5.67674e-10
2.53585e-12
5.42795e-10
1.45384e-11
5.23894e-10
4.94271e-11
5.14089e-10
2.75628e-11
5.03991e-10
3.1774e-11
4.92563e-10
5.21643e-11
4.90291e-10
1.74844e-11
4.68186e-10
-1.5041e-11
4.50062e-10
-4.17834e-11
4.27934e-10
-1.58695e-11
4.18955e-10
1.54025e-11
4.06102e-10
5.06177e-11
3.99273e-10
7.06794e-11
3.86661e-10
7.63112e-11
3.78847e-10
4.52381e-11
3.65674e-10
1.21775e-11
3.53773e-10
-2.93705e-11
3.4005e-10
-3.05348e-11
3.23629e-10
-6.22302e-12
3.10112e-10
1.85806e-11
3.00055e-10
5.12046e-11
2.92432e-10
4.65768e-11
2.84629e-10
1.1521e-11
2.74947e-10
-8.38324e-12
2.65843e-10
-1.86261e-11
2.56271e-10
-1.43531e-11
2.47977e-10
-2.90274e-12
2.40147e-10
4.07718e-12
2.31478e-10
1.53854e-11
2.24261e-10
3.23787e-11
2.16332e-10
5.34129e-11
2.12049e-10
5.49873e-11
2.06413e-10
3.39965e-11
2.00603e-10
5.81125e-12
1.94007e-10
-2.00657e-11
1.85947e-10
-2.39928e-11
1.79389e-10
-1.45694e-11
1.74582e-10
3.53278e-12
1.69984e-10
1.39603e-11
1.66976e-10
1.33902e-11
1.62267e-10
1.36952e-11
1.57994e-10
1.77079e-11
1.53933e-10
2.62343e-11
1.50479e-10
3.01603e-11
1.47471e-10
3.05194e-11
1.44323e-10
2.68495e-11
1.41412e-10
2.21666e-11
1.38206e-10
1.70508e-11
1.35188e-10
1.12576e-11
1.31701e-10
6.12531e-12
1.28773e-10
7.28726e-13
1.25366e-10
-5.63864e-12
1.22304e-10
-1.073e-11
1.19508e-10
-1.68966e-11
1.16337e-10
-2.13132e-11
1.13416e-10
-2.7251e-11
1.10144e-10
-3.12398e-11
1.07047e-10
-3.38485e-11
1.04198e-10
-3.52028e-11
1.01527e-10
-3.20809e-11
9.97883e-11
-2.30107e-11
9.96864e-11
-1.49055e-11
1.01574e-10
-9.13926e-12
1.06177e-10
-3.08886e-12
1.15292e-10
-2.75708e-12
1.35507e-10
-1.27333e-11
-3.55639e-10
4.97736e-10
1.06519e-07
-1.88533e-07
1.81069e-07
1.10049e-07
-1.46934e-08
2.02606e-07
-1.70989e-07
1.91142e-07
2.89383e-08
1.81203e-07
3.16879e-08
1.62919e-07
3.54133e-08
1.36933e-07
4.2327e-08
1.13205e-07
3.75636e-08
9.50091e-08
3.06733e-08
7.86797e-08
2.61654e-08
6.50437e-08
2.07114e-08
5.52904e-08
1.47755e-08
4.74823e-08
1.16338e-08
4.14042e-08
8.79047e-09
3.66803e-08
6.68245e-09
3.22666e-08
6.27145e-09
2.84525e-08
5.11429e-09
2.58142e-08
3.76505e-09
2.2914e-08
3.83402e-09
2.03732e-08
3.34976e-09
1.86438e-08
2.47396e-09
1.6653e-08
2.60076e-09
1.52018e-08
2.30271e-09
1.37598e-08
1.94885e-09
1.26033e-08
1.6583e-09
1.15704e-08
1.2933e-09
1.05352e-08
1.53279e-09
9.76551e-09
9.61144e-10
8.86834e-09
1.10583e-09
8.22522e-09
7.63406e-10
7.57737e-09
9.74583e-10
7.02489e-09
6.63048e-10
6.48532e-09
7.91175e-10
6.08915e-09
5.42225e-10
5.62555e-09
7.16259e-10
5.26702e-09
5.41521e-10
4.98524e-09
6.57312e-10
4.84868e-09
3.14141e-10
4.59679e-09
3.04636e-10
4.27334e-09
-8.99981e-11
3.90028e-09
9.75549e-11
3.6397e-09
1.67968e-10
3.39383e-09
5.0524e-10
3.24091e-09
5.94761e-10
3.0494e-09
5.8836e-10
2.84885e-09
2.30366e-10
2.59778e-09
1.20129e-10
2.41544e-09
7.61477e-11
2.24437e-09
1.18872e-10
2.12083e-09
1.52649e-10
2.01972e-09
2.35288e-10
1.92705e-09
1.70152e-10
1.84246e-09
1.27102e-10
1.77535e-09
5.30578e-11
1.70454e-09
7.10402e-11
1.64878e-09
1.33387e-10
1.61608e-09
7.82771e-11
1.58256e-09
8.52206e-11
1.55178e-09
1.23883e-10
1.53357e-09
5.60417e-11
1.47071e-09
1.22987e-11
1.41e-09
-4.02744e-11
1.34946e-09
5.68505e-12
1.31743e-09
4.97513e-11
1.28211e-09
1.21431e-10
1.25763e-09
1.57517e-10
1.22166e-09
1.78269e-10
1.19374e-09
1.15401e-10
1.15285e-09
5.7076e-11
1.11376e-09
-2.88067e-11
1.07088e-09
-3.11611e-11
1.02228e-09
1.70518e-11
9.81475e-10
6.06798e-11
9.50607e-10
1.2095e-10
9.25474e-10
1.1222e-10
8.98846e-10
4.49825e-11
8.68258e-10
4.76042e-12
8.39344e-10
-1.74671e-11
8.0972e-10
-8.75812e-12
7.84159e-10
1.05235e-11
7.58756e-10
2.44636e-11
7.32803e-10
4.686e-11
7.09557e-10
7.92065e-11
6.86629e-10
1.21094e-10
6.71856e-10
1.21813e-10
6.53882e-10
8.38355e-11
6.34896e-10
2.76463e-11
6.13432e-10
-2.38022e-11
5.88536e-10
-3.15896e-11
5.68489e-10
-1.70749e-11
5.53052e-10
1.58175e-11
5.39271e-10
3.6626e-11
5.28704e-10
3.46095e-11
5.14223e-10
3.73114e-11
5.00777e-10
4.43897e-11
4.88201e-10
6.10663e-11
4.77525e-10
6.82417e-11
4.67855e-10
6.88377e-11
4.58092e-10
6.16411e-11
4.48623e-10
5.21284e-11
4.38642e-10
4.19841e-11
4.28741e-10
3.03402e-11
4.17955e-10
2.03198e-11
4.08312e-10
8.02181e-12
3.97553e-10
-4.01846e-12
3.87813e-10
-1.50591e-11
3.78599e-10
-2.78319e-11
3.68651e-10
-3.64465e-11
3.59114e-10
-4.86376e-11
3.48728e-10
-5.63252e-11
3.38824e-10
-6.19897e-11
3.29558e-10
-6.5287e-11
3.21041e-10
-5.9989e-11
3.15413e-10
-4.37255e-11
3.14496e-10
-3.02319e-11
3.19133e-10
-2.20596e-11
3.32115e-10
-1.51868e-11
3.57722e-10
-2.21997e-11
4.08785e-10
-5.66995e-11
-6.45367e-10
7.05419e-10
-1.70091e-07
-3.72427e-08
-2.5208e-07
1.86429e-07
-2.1829e-07
-5.44597e-08
-2.20156e-07
-6.11102e-09
-2.09294e-07
-2.40918e-08
-1.98669e-07
-2.64361e-08
-1.86957e-07
-2.77733e-08
-1.75475e-07
-2.58227e-08
-1.67438e-07
-1.94751e-08
-1.56286e-07
-2.28006e-08
-1.5044e-07
-1.46305e-08
-1.4167e-07
-1.8174e-08
-1.3654e-07
-1.22386e-08
-1.29188e-07
-1.51923e-08
-1.24216e-07
-1.14397e-08
-1.17874e-07
-1.31682e-08
-1.13134e-07
-1.10981e-08
-1.08102e-07
-1.10255e-08
-1.0396e-07
-9.65695e-09
-9.99852e-08
-8.69729e-09
-9.62777e-08
-8.54737e-09
-9.26164e-08
-7.53798e-09
-8.87028e-08
-8.17203e-09
-8.5871e-08
-6.08616e-09
-8.22757e-08
-7.27639e-09
-7.976e-08
-5.29535e-09
-7.66991e-08
-6.12686e-09
-7.42908e-08
-4.83239e-09
-7.16314e-08
-5.30676e-09
-6.95115e-08
-4.32833e-09
-6.7232e-08
-4.58196e-09
-6.53555e-08
-3.79702e-09
-6.32679e-08
-4.07402e-09
-6.15754e-08
-3.36075e-09
-5.97496e-08
-3.57713e-09
-5.82775e-08
-2.93761e-09
-5.66967e-08
-3.13118e-09
-5.53609e-08
-2.66286e-09
-5.39622e-08
-2.73359e-09
-5.26357e-08
-2.51961e-09
-5.11577e-08
-2.78744e-09
-4.98144e-08
-2.47805e-09
-4.82902e-08
-2.7048e-09
-4.67311e-08
-2.60252e-09
-4.49308e-08
-2.98348e-09
-4.2768e-08
-3.41632e-09
-4.00518e-08
-4.35209e-09
-3.63952e-08
-5.89803e-09
-3.09246e-08
-9.08984e-09
-2.31102e-08
-1.31435e-08
-1.7571e-08
-9.22126e-09
-1.76418e-08
4.64826e-10
-2.04756e-08
4.70928e-09
-2.29071e-08
3.62057e-09
-2.5037e-08
3.20226e-09
-2.71391e-08
3.18104e-09
-2.86941e-08
2.53768e-09
-2.98785e-08
2.16706e-09
-3.05549e-08
1.67401e-09
-3.07208e-08
1.12275e-09
-3.05517e-08
1.01086e-09
-3.00551e-08
7.13474e-10
-2.93821e-08
8.59211e-10
-2.8369e-08
6.83967e-10
-2.72015e-08
6.97411e-10
-2.58933e-08
6.30966e-10
-2.44255e-08
5.81603e-10
-2.28297e-08
5.9676e-10
-2.11352e-08
6.33399e-10
-1.93317e-08
6.19636e-10
-1.74122e-08
5.58622e-10
-1.5407e-08
4.95157e-10
-1.33468e-08
5.38893e-10
-1.12702e-08
4.92099e-10
-9.15794e-09
4.17277e-10
-7.01692e-09
4.78141e-10
-4.87352e-09
4.80621e-10
-2.76957e-09
3.85837e-10
-7.23683e-10
3.50706e-10
1.23571e-09
3.74059e-10
3.0842e-09
3.79749e-10
4.77412e-09
3.11937e-10
6.31702e-09
2.99152e-10
7.69318e-09
3.14858e-10
8.89441e-09
2.89349e-10
9.93992e-09
2.56802e-10
1.08422e-08
2.30688e-10
1.15785e-08
2.30237e-10
1.21872e-08
2.09939e-10
1.26801e-08
2.2022e-10
1.30901e-08
1.96901e-10
1.34418e-08
1.74937e-10
1.37391e-08
1.92839e-10
1.40066e-08
1.93391e-10
1.42852e-08
1.88805e-10
1.45753e-08
1.76253e-10
1.48929e-08
1.86893e-10
1.52478e-08
1.52729e-10
1.56464e-08
9.46837e-11
1.60715e-08
8.12295e-11
1.652e-08
6.91876e-11
1.69634e-08
6.44327e-11
1.74909e-08
-6.47232e-11
1.8051e-08
-1.02961e-10
1.86771e-08
-2.17053e-10
1.92277e-08
-1.26695e-10
1.98576e-08
-3.23429e-10
2.0251e-08
-5.08745e-11
2.01603e-08
5.68019e-10
1.9275e-08
1.56234e-09
1.75914e-08
2.58483e-09
1.39912e-08
5.49163e-09
7.06892e-09
1.05546e-08
7.72099e-09
-3.1078e-08
2.77499e-08
7.87786e-09
-3.43269e-08
6.69486e-09
-3.68941e-08
5.60922e-09
-3.92913e-08
5.41331e-09
-4.10392e-08
4.16935e-09
-4.23133e-08
3.38863e-09
-4.29833e-08
2.42974e-09
-4.31042e-08
1.49982e-09
-4.28559e-08
1.25423e-09
-4.22322e-08
7.22945e-10
-4.1418e-08
9.14156e-10
-4.02561e-08
6.65593e-10
-3.89428e-08
6.78927e-10
-3.74906e-08
5.92896e-10
-3.58811e-08
5.25832e-10
-3.41392e-08
5.64405e-10
-3.22895e-08
6.22921e-10
-3.0333e-08
6.04978e-10
-2.82685e-08
5.23765e-10
-2.61196e-08
4.41861e-10
-2.39113e-08
5.10625e-10
-2.1689e-08
4.47905e-10
-1.94393e-08
3.53219e-10
-1.71605e-08
4.54318e-10
-1.48722e-08
4.54783e-10
-1.26284e-08
3.15854e-10
-1.04512e-08
2.75405e-10
-8.35958e-09
3.17056e-10
-6.38195e-09
3.20464e-10
-4.57747e-09
2.32031e-10
-2.94759e-09
2.42239e-10
-1.49065e-09
2.77276e-10
-1.99728e-10
2.339e-10
9.23507e-10
1.91197e-10
1.89694e-09
1.62086e-10
2.69222e-09
1.853e-10
3.35013e-09
1.7493e-10
3.90182e-09
1.83592e-10
4.36513e-09
1.50816e-10
4.74868e-09
1.44709e-10
5.07255e-09
1.9436e-10
5.38218e-09
1.87997e-10
5.70118e-09
1.85476e-10
6.01679e-09
1.97841e-10
6.36255e-09
2.23269e-10
6.75837e-09
1.64402e-10
7.18211e-09
1.01e-10
7.62096e-09
1.04961e-10
8.06852e-09
1.09231e-10
8.53561e-09
8.43788e-11
9.11309e-09
-1.49674e-10
9.76027e-09
-2.505e-10
1.04569e-08
-4.1071e-10
1.10759e-08
-2.77244e-10
1.16691e-08
-4.80597e-10
1.2085e-08
-8.4387e-11
1.19402e-08
1.02929e-09
1.06991e-08
3.03981e-09
8.68194e-09
4.76953e-09
5.62897e-09
8.65336e-09
1.09422e-10
1.61363e-08
1.18005e-08
-2.78729e-08
3.33294e-08
-1.486e-08
1.63502e-10
-1.92034e-07
1.94788e-07
-4.00239e-08
-2.43729e-07
2.3812e-07
-2.23124e-07
-7.50822e-08
-2.19179e-07
-1.02457e-08
-2.12712e-07
-3.06014e-08
-2.00678e-07
-3.86438e-08
-1.89963e-07
-3.89253e-08
-1.79019e-07
-3.7023e-08
-1.72027e-07
-2.67186e-08
-1.6183e-07
-3.29898e-08
-1.56363e-07
-2.01166e-08
-1.48354e-07
-2.62481e-08
-1.4369e-07
-1.71708e-08
-1.37151e-07
-2.20348e-08
-1.32628e-07
-1.62405e-08
-1.27116e-07
-1.89128e-08
-1.22906e-07
-1.54634e-08
-1.18585e-07
-1.55779e-08
-1.14877e-07
-1.3669e-08
-1.11395e-07
-1.24981e-08
-1.07701e-07
-1.25394e-08
-1.04615e-07
-1.09263e-08
-1.01196e-07
-1.19293e-08
-9.83615e-08
-9.26959e-09
-9.51769e-08
-1.08058e-08
-9.28532e-08
-7.97599e-09
-9.00633e-08
-9.28079e-09
-8.77886e-08
-7.45862e-09
-8.55193e-08
-7.93457e-09
-8.36347e-08
-6.59628e-09
-8.13745e-08
-7.24557e-09
-7.96715e-08
-5.87075e-09
-7.75575e-08
-6.53661e-09
-7.59576e-08
-5.31393e-09
-7.40201e-08
-5.88041e-09
-7.25769e-08
-4.7573e-09
-7.08577e-08
-5.2142e-09
-6.93839e-08
-4.4985e-09
-6.77319e-08
-4.74635e-09
-6.60952e-08
-4.50683e-09
-6.42947e-08
-4.93207e-09
-6.26384e-08
-4.46944e-09
-6.07576e-08
-4.89107e-09
-5.87922e-08
-4.84084e-09
-5.64758e-08
-5.55662e-09
-5.37381e-08
-6.40882e-09
-5.05312e-08
-7.82632e-09
-4.65356e-08
-1.01592e-08
-4.09269e-08
-1.49472e-08
-2.09588e-08
1.46505e-07
2.29262e-07
1.38964e-07
-7.10302e-09
2.13587e-07
-2.45556e-07
2.08114e-07
3.45127e-08
2.06167e-07
3.37223e-08
1.97939e-07
4.36297e-08
1.8084e-07
5.93512e-08
1.62718e-07
5.55953e-08
1.4253e-07
5.08083e-08
1.22635e-07
4.59296e-08
1.0482e-07
3.86153e-08
8.95517e-08
2.9903e-08
7.62261e-08
2.51051e-08
6.59942e-08
1.89364e-08
5.77733e-08
1.48988e-08
5.07423e-08
1.33626e-08
4.52608e-08
1.04411e-08
4.10612e-08
8.11291e-09
3.67004e-08
8.17564e-09
3.29323e-08
6.98602e-09
3.0259e-08
5.22657e-09
2.72092e-08
5.59462e-09
2.49901e-08
4.62623e-09
2.26817e-08
4.31864e-09
2.09428e-08
3.4124e-09
1.92231e-08
3.01834e-09
1.76532e-08
3.10663e-09
1.6325e-08
2.29133e-09
1.49706e-08
2.39263e-09
1.38612e-08
1.85499e-09
1.28584e-08
1.99986e-09
1.19067e-08
1.56352e-09
1.10758e-08
1.65299e-09
1.03691e-08
1.28992e-09
9.65133e-09
1.42992e-09
9.03124e-09
1.18334e-09
8.58989e-09
1.2331e-09
8.31181e-09
6.98437e-10
7.88238e-09
7.39391e-10
7.31451e-09
2.43518e-10
6.72576e-09
4.7849e-10
6.26884e-09
5.20961e-10
5.87161e-09
9.70291e-10
5.58004e-09
1.07473e-09
5.25896e-09
1.06654e-09
4.90659e-09
5.91275e-10
4.504e-09
4.27605e-10
4.1932e-09
3.10843e-10
3.90931e-09
3.43294e-10
3.69898e-09
3.48303e-10
3.5257e-09
4.53705e-10
3.36611e-09
3.53078e-10
3.22522e-09
2.77312e-10
3.1111e-09
1.54437e-10
2.9953e-09
1.70925e-10
2.90132e-09
2.51488e-10
2.8423e-09
1.54165e-10
2.78124e-09
1.62975e-10
2.72874e-09
2.1831e-10
2.68375e-09
1.3256e-10
2.58519e-09
8.41757e-11
2.47889e-09
9.51698e-12
2.37985e-09
6.4119e-11
2.32082e-09
1.06908e-10
2.26175e-09
2.11319e-10
2.21588e-09
2.60971e-10
2.15481e-09
2.99048e-10
2.1033e-09
2.10754e-10
2.03257e-09
1.37666e-10
1.96361e-09
7.95385e-12
1.88922e-09
2.52973e-12
1.80705e-09
7.32125e-11
1.73696e-09
1.27975e-10
1.68235e-09
2.09842e-10
1.63641e-09
1.99091e-10
1.58781e-09
1.02237e-10
1.53413e-09
4.30181e-11
1.48337e-09
6.92047e-12
1.43182e-09
1.88643e-11
1.38717e-09
4.28965e-11
1.34209e-09
6.47183e-11
1.2975e-09
9.58759e-11
1.25624e-09
1.41115e-10
1.21706e-09
2.02175e-10
1.18955e-09
2.01282e-10
1.15747e-09
1.51177e-10
1.12366e-09
6.84841e-11
1.08572e-09
-7.60586e-12
1.04271e-09
-2.06911e-11
1.00791e-09
-6.77217e-12
9.80329e-10
3.82388e-11
9.56354e-10
6.85026e-11
9.36713e-10
6.49018e-11
9.11456e-10
7.16285e-11
8.8783e-10
8.05812e-11
8.65779e-10
1.04912e-10
8.47057e-10
1.14638e-10
8.29803e-10
1.15731e-10
8.12667e-10
1.05242e-10
7.95731e-10
9.09558e-11
7.78163e-10
7.57394e-11
7.60381e-10
5.82306e-11
7.41454e-10
4.31895e-11
7.24062e-10
2.37018e-11
7.05036e-10
6.06178e-12
6.87702e-10
-1.18854e-11
6.71032e-10
-3.15695e-11
6.53452e-10
-4.42823e-11
6.36323e-10
-6.28552e-11
6.17899e-10
-7.39653e-11
6.0026e-10
-8.30796e-11
5.83587e-10
-8.88552e-11
5.68341e-10
-8.26877e-11
5.58008e-10
-6.14283e-11
5.55293e-10
-4.51848e-11
5.61353e-10
-3.77644e-11
5.81153e-10
-3.52361e-11
6.20675e-10
-5.61079e-11
6.9449e-10
-1.23286e-10
-8.32951e-10
8.88682e-10
1.85321e-07
-2.24951e-07
2.68892e-07
1.69476e-07
8.77657e-09
2.14865e-07
-2.90963e-07
2.15481e-07
3.39888e-08
2.11251e-07
3.80437e-08
2.07999e-07
4.69091e-08
1.97313e-07
7.00071e-08
1.85497e-07
6.73114e-08
1.72476e-07
6.37931e-08
1.58327e-07
5.99777e-08
1.4333e-07
5.36686e-08
1.25908e-07
4.72709e-08
1.11534e-07
3.95266e-08
9.79844e-08
3.24342e-08
8.69345e-08
2.60345e-08
7.57365e-08
2.46663e-08
6.66881e-08
1.91962e-08
5.90228e-08
1.60435e-08
5.19491e-08
1.51366e-08
4.6318e-08
1.24876e-08
4.22269e-08
9.38763e-09
3.80056e-08
9.71738e-09
3.48802e-08
7.86698e-09
3.17119e-08
7.58325e-09
2.93821e-08
5.76615e-09
2.69109e-08
5.48206e-09
2.48679e-08
5.14447e-09
2.30484e-08
4.09812e-09
2.12156e-08
4.17422e-09
1.96585e-08
3.40681e-09
1.83094e-08
3.36622e-09
1.6964e-08
2.82519e-09
1.58496e-08
2.81241e-09
1.48425e-08
2.35951e-09
1.38763e-08
2.35309e-09
1.29969e-08
2.06281e-09
1.23922e-08
1.96948e-09
1.19621e-08
1.30658e-09
1.13592e-08
1.35958e-09
1.05422e-08
8.27264e-10
9.73449e-09
1.08029e-09
9.07356e-09
1.07217e-09
8.51362e-09
1.59274e-09
8.06604e-09
1.69459e-09
7.60604e-09
1.67666e-09
7.10101e-09
1.11535e-09
6.55257e-09
8.96966e-10
6.1141e-09
6.81664e-10
5.71645e-09
6.83822e-10
5.41617e-09
6.28757e-10
5.16702e-09
7.41975e-10
4.93988e-09
6.00804e-10
4.74328e-09
4.83056e-10
4.58344e-09
3.07037e-10
4.42263e-09
3.14536e-10
4.2893e-09
4.03511e-10
4.20156e-09
2.56248e-10
4.10802e-09
2.68445e-10
4.02893e-09
3.39971e-10
3.95118e-09
2.46352e-10
3.81846e-09
1.98318e-10
3.66579e-09
1.10207e-10
3.52642e-09
1.64072e-10
3.4374e-09
1.90246e-10
3.35117e-09
3.22775e-10
3.27997e-09
3.80777e-10
3.19056e-09
4.46146e-10
3.11261e-09
3.34522e-10
3.0099e-09
2.59055e-10
2.90975e-09
8.52978e-11
2.80164e-09
7.50108e-11
2.6841e-09
1.66055e-10
2.58215e-09
2.22823e-10
2.49994e-09
3.19686e-10
2.4297e-09
3.07598e-10
2.35659e-09
1.85377e-10
2.27784e-09
1.08686e-10
2.20343e-09
5.69317e-11
2.12804e-09
7.13814e-11
2.06231e-09
9.72109e-11
1.99553e-09
1.27114e-10
1.9305e-09
1.64102e-10
1.86909e-09
2.19128e-10
1.81135e-09
2.9691e-10
1.76869e-09
2.94479e-10
1.72063e-09
2.36914e-10
1.6708e-09
1.32474e-10
1.61531e-09
3.13886e-11
1.55318e-09
1.08955e-11
1.50227e-09
1.80489e-11
1.46084e-09
7.19748e-11
1.42521e-09
1.10525e-10
1.39506e-09
1.05326e-10
1.35783e-09
1.17494e-10
1.32295e-09
1.26827e-10
1.29024e-09
1.58407e-10
1.26244e-09
1.69999e-10
1.23659e-09
1.72106e-10
1.21119e-09
1.58673e-10
1.18589e-09
1.39755e-10
1.15982e-09
1.19462e-10
1.1332e-09
9.60606e-11
1.10518e-09
7.59272e-11
1.07903e-09
4.87762e-11
1.05074e-09
2.57276e-11
1.02484e-09
-1.17275e-13
9.99656e-10
-2.68979e-11
9.73487e-10
-4.36385e-11
9.47815e-10
-6.86521e-11
9.20395e-10
-8.28453e-11
8.94083e-10
-9.57567e-11
8.6903e-10
-1.04465e-10
8.46079e-10
-9.88965e-11
8.30061e-10
-7.50899e-11
8.24368e-10
-5.86338e-11
8.30264e-10
-5.48129e-11
8.54675e-10
-6.12537e-11
9.05125e-10
-1.01808e-10
9.92469e-10
-2.03592e-10
-9.0129e-10
1.06778e-09
-2.13102e-07
-5.19105e-08
-2.37789e-07
2.62916e-07
-2.22028e-07
-9.08308e-08
-2.17266e-07
-1.54484e-08
-2.11946e-07
-3.59784e-08
-2.00345e-07
-5.03092e-08
-1.90712e-07
-4.89041e-08
-1.80121e-07
-4.78151e-08
-1.7356e-07
-3.35032e-08
-1.64213e-07
-4.23379e-08
-1.58808e-07
-2.55692e-08
-1.51592e-07
-3.35741e-08
-1.46758e-07
-2.22837e-08
-1.40883e-07
-2.82455e-08
-1.36319e-07
-2.10638e-08
-1.31159e-07
-2.42705e-08
-1.26975e-07
-1.9836e-08
-1.22947e-07
-1.98385e-08
-1.19258e-07
-1.76631e-08
-1.16073e-07
-1.60416e-08
-1.12718e-07
-1.62165e-08
-1.09902e-07
-1.40604e-08
-1.06651e-07
-1.55285e-08
-1.03894e-07
-1.23892e-08
-1.00943e-07
-1.41113e-08
-9.88945e-08
-1.03969e-08
-9.63589e-08
-1.2197e-08
-9.44339e-08
-9.7539e-09
-9.22216e-08
-1.05102e-08
-9.05911e-08
-8.61981e-09
-8.84784e-08
-9.77312e-09
-8.70034e-08
-7.72922e-09
-8.49402e-08
-8.96149e-09
-8.34958e-08
-7.12053e-09
-8.16125e-08
-8.1414e-09
-8.02833e-08
-6.47537e-09
-7.85372e-08
-7.34085e-09
-7.70788e-08
-6.33005e-09
-7.53746e-08
-6.8236e-09
-7.36583e-08
-6.58659e-09
-7.18394e-08
-7.10847e-09
-7.02135e-08
-6.43787e-09
-6.83711e-08
-7.05359e-09
-6.64315e-08
-7.06636e-09
-6.40875e-08
-8.17291e-09
-6.14045e-08
-9.36478e-09
-5.84607e-08
-1.10496e-08
-5.49529e-08
-1.39543e-08
-5.02882e-08
-1.98738e-08
-4.43727e-08
-2.70985e-08
-4.01778e-08
-1.92461e-08
-4.04162e-08
2.17006e-10
-4.35509e-08
1.08646e-08
-4.67509e-08
9.73416e-09
-4.92899e-08
7.98599e-09
-5.15575e-08
7.55453e-09
-5.32584e-08
5.75452e-09
-5.44847e-08
4.55378e-09
-5.51285e-08
3.16038e-09
-5.52411e-08
1.90033e-09
-5.49872e-08
1.51145e-09
-5.43345e-08
7.25203e-10
-5.35003e-08
9.80677e-10
-5.23092e-08
6.62626e-10
-5.09753e-08
6.84529e-10
-4.94957e-08
5.81489e-10
-4.78608e-08
5.01437e-10
-4.60813e-08
5.59973e-10
-4.41729e-08
6.24461e-10
-4.21594e-08
6.0282e-10
-4.00465e-08
5.11559e-10
-3.78405e-08
4.1066e-10
-3.55692e-08
4.99421e-10
-3.32915e-08
4.27923e-10
-3.09873e-08
3.21406e-10
-2.86414e-08
4.42439e-10
-2.62794e-08
4.41978e-10
-2.39698e-08
2.63162e-10
-2.17342e-08
2.20241e-10
-1.95793e-08
2.72586e-10
-1.75402e-08
2.69331e-10
-1.56829e-08
1.63068e-10
-1.40093e-08
1.99604e-10
-1.2516e-08
2.55966e-10
-1.12001e-08
1.99293e-10
-1.00537e-08
1.37071e-10
-9.07053e-09
1.17161e-10
-8.27338e-09
1.66856e-10
-7.61203e-09
1.58884e-10
-7.0484e-09
1.53321e-10
-6.58093e-09
1.15498e-10
-6.20564e-09
1.34875e-10
-5.88241e-09
2.09584e-10
-5.56558e-09
1.89189e-10
-5.25227e-09
2.00337e-10
-4.94298e-09
2.38126e-10
-4.59031e-09
2.61955e-10
-4.19027e-09
1.85475e-10
-3.78032e-09
1.37065e-10
-3.35371e-09
1.57837e-10
-2.90992e-09
1.70778e-10
-2.41019e-09
8.92406e-11
-1.78664e-09
-2.6133e-10
-1.06633e-09
-4.5259e-10
-3.55079e-10
-6.00133e-10
2.85722e-10
-4.32497e-10
7.58973e-10
-5.01754e-10
1.11978e-09
-4.87437e-11
7.55624e-10
1.7218e-09
-7.26174e-10
4.76774e-09
-2.58193e-09
6.7996e-09
-4.40781e-09
1.05925e-08
-6.6695e-09
1.84626e-08
1.34988e-08
-5.4597e-08
5.19272e-08
1.33853e-08
-5.72346e-08
1.22206e-08
-5.94511e-08
1.00603e-08
-6.14017e-08
9.38922e-09
-6.28629e-08
7.10206e-09
-6.39315e-08
5.55716e-09
-6.44711e-08
3.79328e-09
-6.45282e-08
2.2661e-09
-6.42304e-08
1.74456e-09
-6.35229e-08
6.97357e-10
-6.26472e-08
1.03068e-09
-6.14246e-08
6.51257e-10
-6.00665e-08
7.1329e-10
-5.85539e-08
5.79323e-10
-5.68875e-08
5.00145e-10
-5.50526e-08
5.64164e-10
-5.30752e-08
6.22712e-10
-5.10012e-08
6.11357e-10
-4.88364e-08
5.21612e-10
-4.65661e-08
3.9805e-10
-4.42242e-08
4.98679e-10
-4.18882e-08
4.30719e-10
-3.95246e-08
3.12424e-10
-3.70972e-08
4.3177e-10
-3.46478e-08
4.25948e-10
-3.22716e-08
2.27273e-10
-2.99779e-08
1.84774e-10
-2.77481e-08
2.29742e-10
-2.56358e-08
2.17606e-10
-2.37323e-08
1.12823e-10
-2.20187e-08
1.78013e-10
-2.04808e-08
2.41813e-10
-1.91219e-08
1.68696e-10
-1.79428e-08
8.81782e-11
-1.69448e-08
9.02626e-11
-1.61327e-08
1.60463e-10
-1.54536e-08
1.48694e-10
-1.4876e-08
1.28601e-10
-1.44113e-08
9.98888e-11
-1.40479e-08
1.5018e-10
-1.37212e-08
2.31268e-10
-1.3397e-08
1.97155e-10
-1.30909e-08
2.32056e-10
-1.27862e-08
2.9259e-10
-1.24224e-08
3.02319e-10
-1.20211e-08
2.2002e-10
-1.16267e-08
2.04624e-10
-1.12106e-08
2.38565e-10
-1.07429e-08
2.26546e-10
-1.01855e-08
5.46639e-11
-9.48852e-09
-4.28118e-10
-8.72554e-09
-6.7809e-10
-8.00414e-09
-7.80719e-10
-7.4544e-09
-4.79143e-10
-7.05744e-09
-4.30298e-10
-6.73215e-09
3.67615e-11
-7.03149e-09
2.36169e-09
-8.13821e-09
6.1306e-09
-9.15045e-09
7.99323e-09
-9.86177e-09
1.14215e-08
-1.01421e-08
1.88111e-08
1.38484e-08
-5.11504e-08
5.38879e-08
-2.21808e-08
8.05267e-10
-2.34333e-07
2.51137e-07
-6.88011e-08
-2.30805e-07
2.59456e-07
-2.23784e-07
-9.75573e-08
-2.13175e-07
-2.63408e-08
-2.09298e-07
-3.99235e-08
-1.9786e-07
-6.20246e-08
-1.90409e-07
-5.63366e-08
-1.80189e-07
-5.81339e-08
-1.74061e-07
-3.98028e-08
-1.65511e-07
-5.09236e-08
-1.59907e-07
-3.1263e-08
-1.53533e-07
-4.0243e-08
-1.48637e-07
-2.75131e-08
-1.43301e-07
-3.3926e-08
-1.38699e-07
-2.5913e-08
-1.33801e-07
-2.93342e-08
-1.29752e-07
-2.4066e-08
-1.25718e-07
-2.41016e-08
-1.22081e-07
-2.16418e-08
-1.19168e-07
-1.92806e-08
-1.15713e-07
-1.99989e-08
-1.13231e-07
-1.68823e-08
-1.09974e-07
-1.91472e-08
-1.07452e-07
-1.52861e-08
-1.04466e-07
-1.74597e-08
-1.02579e-07
-1.26664e-08
-1.0012e-07
-1.50433e-08
-9.84632e-08
-1.17996e-08
-9.6243e-08
-1.31156e-08
-9.47536e-08
-1.05152e-08
-9.27259e-08
-1.22137e-08
-9.12754e-08
-9.5737e-09
-8.93175e-08
-1.1293e-08
-8.78835e-08
-8.92771e-09
-8.61282e-08
-1.02856e-08
-8.47562e-08
-8.24233e-09
-8.31044e-08
-9.39522e-09
-8.1661e-08
-8.1639e-09
-7.99436e-08
-8.92068e-09
-7.82348e-08
-8.67469e-09
-7.65107e-08
-9.20324e-09
-7.49941e-08
-8.30171e-09
-7.32944e-08
-9.08299e-09
-7.14918e-08
-9.16734e-09
-6.92992e-08
-1.0647e-08
-6.69264e-08
-1.20244e-08
-6.45137e-08
-1.37512e-08
-6.1683e-08
-1.70702e-08
-5.80923e-08
-2.37217e-08
-3.15421e-08
2.2444e-07
2.95567e-07
2.01927e-07
3.13653e-08
2.17206e-07
-3.06126e-07
2.16091e-07
3.51716e-08
2.12135e-07
4.20497e-08
2.09194e-07
4.98808e-08
2.00228e-07
7.89359e-08
1.91049e-07
7.64452e-08
1.82087e-07
7.26941e-08
1.72124e-07
6.9815e-08
1.61773e-07
6.40391e-08
1.50368e-07
5.8618e-08
1.39279e-07
5.06653e-08
1.27338e-07
4.43426e-08
1.14851e-07
3.85391e-08
1.04854e-07
3.47357e-08
9.38221e-08
3.00953e-08
8.36722e-08
2.63899e-08
7.35743e-08
2.49943e-08
6.51285e-08
2.09548e-08
5.81682e-08
1.63764e-08
5.16285e-08
1.60779e-08
4.66958e-08
1.28683e-08
4.21846e-08
1.22779e-08
3.8806e-08
9.18947e-09
3.52554e-08
8.97003e-09
3.26358e-08
7.79366e-09
3.01713e-08
6.57584e-09
2.7826e-08
6.48485e-09
2.57857e-08
5.45272e-09
2.40489e-08
5.10952e-09
2.22654e-08
4.4947e-09
2.08567e-08
4.27203e-09
1.95467e-08
3.7555e-09
1.83235e-08
3.49631e-09
1.71784e-08
3.18502e-09
1.63964e-08
2.87119e-09
1.58067e-08
2.12294e-09
1.50319e-08
2.16314e-09
1.39586e-08
1.65793e-09
1.29258e-08
1.91348e-09
1.20508e-08
1.83221e-09
1.13158e-08
2.3863e-09
1.06958e-08
2.47105e-09
1.00879e-08
2.42568e-09
9.42899e-09
1.79997e-09
8.73962e-09
1.52163e-09
8.17641e-09
1.19002e-09
7.66666e-09
1.14166e-09
7.27555e-09
9.96697e-10
6.94919e-09
1.10016e-09
6.65632e-09
9.09487e-10
6.4065e-09
7.40556e-10
6.20334e-09
5.09511e-10
5.99719e-09
5.02902e-10
5.82352e-09
5.89595e-10
5.70486e-09
3.85305e-10
5.57274e-09
4.05886e-10
5.46124e-09
4.94288e-10
5.35097e-09
3.99538e-10
5.17908e-09
3.60296e-10
4.97914e-09
2.63761e-10
4.79761e-09
3.0909e-10
4.67534e-09
3.04344e-10
4.55799e-09
4.58981e-10
4.45659e-09
5.20505e-10
4.33474e-09
6.19738e-10
4.22694e-09
4.87645e-10
4.09034e-09
4.20577e-10
3.95795e-09
2.05823e-10
3.81379e-09
1.91561e-10
3.65886e-09
2.99128e-10
3.52215e-09
3.48976e-10
3.40801e-09
4.53409e-10
3.31001e-09
4.39231e-10
3.2102e-09
2.95942e-10
3.10463e-09
2.03319e-10
3.00487e-09
1.34931e-10
2.90371e-09
1.51718e-10
2.81483e-09
1.76021e-10
2.7242e-09
2.14204e-10
2.63678e-09
2.53684e-10
2.55266e-09
3.15116e-10
2.47359e-09
4.06281e-10
2.41299e-09
4.0244e-10
2.34704e-09
3.43037e-10
2.28032e-09
2.19567e-10
2.20668e-09
9.55723e-11
2.12479e-09
6.52517e-11
2.0564e-09
5.92836e-11
1.99908e-09
1.18738e-10
1.95015e-09
1.63919e-10
1.90791e-09
1.57085e-10
1.85743e-09
1.75801e-10
1.81008e-09
1.8378e-10
1.76528e-09
2.2236e-10
1.72718e-09
2.3506e-10
1.69157e-09
2.38856e-10
1.65694e-09
2.2292e-10
1.62235e-09
1.99702e-10
1.58683e-09
1.74405e-10
1.55041e-09
1.45082e-10
1.51232e-09
1.19739e-10
1.47637e-09
8.44403e-11
1.43778e-09
5.61991e-11
1.40231e-09
2.14138e-11
1.36749e-09
-1.2514e-11
1.33175e-09
-3.32792e-11
1.29657e-09
-6.4751e-11
1.25919e-09
-8.16508e-11
1.22327e-09
-9.86746e-11
1.18887e-09
-1.10658e-10
1.15716e-09
-1.07176e-10
1.13433e-09
-8.34984e-11
1.12429e-09
-6.92307e-11
1.1281e-09
-7.14224e-11
1.15438e-09
-9.08883e-11
1.21277e-09
-1.56713e-10
1.29893e-09
-2.83287e-10
-9.5138e-10
1.35684e-09
2.63738e-07
-2.71791e-07
3.03431e-07
2.36407e-07
5.86289e-08
2.15114e-07
-2.84779e-07
2.12634e-07
3.77323e-08
2.09958e-07
4.48155e-08
2.08814e-07
5.10727e-08
2.02003e-07
8.56973e-08
1.93613e-07
8.48236e-08
1.85797e-07
8.04704e-08
1.77896e-07
7.76064e-08
1.69873e-07
7.20603e-08
1.6213e-07
6.63296e-08
1.54131e-07
5.8671e-08
1.46539e-07
5.19615e-08