/*--------------------------------*- C++ -*----------------------------------*\
| =========                 |                                                 |
| \\      /  F ield         | OpenFOAM: The Open Source CFD Toolbox           |
|  \\    /   O peration     | Version:  2212                                  |
|   \\  /    A nd           | Website:  www.openfoam.com                      |
|    \\/     M anipulation  |                                                 |
\*---------------------------------------------------------------------------*/
FoamFile
{
    version     2.0;
    format      ascii;
    arch        "LSB;label=32;scalar=64";
    class       surfaceScalarField;
    location    "0.0362";
    object      phi;
}
// * * * * * * * * * * * * * * * * * * * * * * * * * * * * * * * * * * * * * //

dimensions      [1 0 -1 0 0 0 0];

oriented        oriented;

internalField   nonuniform List<scalar> 
4475
(
-2.39498e-05
4.06506e-05
-0.000206179
0.000186942
-4.35627e-06
6.79591e-05
-6.25099e-06
-4.82482e-05
-0.000237633
0.000268459
-8.68095e-06
-2.55562e-05
-2.63924e-05
-0.000441259
6.72369e-05
0.000393933
-0.000188787
0.000232437
0.000184418
-0.000222109
0.000113184
-0.000268981
-0.000144425
0.000303877
4.45663e-05
-0.000116504
0.000361235
-0.000286004
-0.00017111
-0.000101145
0.00023503
4.04444e-05
0.000166729
-0.000175478
-0.000174411
-0.000882543
-2.76385e-05
0.000138706
0.000766388
-0.00017463
0.000148611
-0.00086109
-0.00093316
0.000119913
-8.14458e-05
0.000890276
-0.000921372
3.35212e-05
-4.9471e-05
-0.000893246
1.65279e-05
-4.83342e-05
-0.000849054
1.06564e-05
-5.80116e-05
-0.000791237
1.17481e-05
-7.23981e-05
1.69566e-05
-0.000708587
-0.000101555
0.000714346
-6.30148e-05
-0.000648128
-3.9208e-06
0.000812888
-8.29269e-05
0.000873559
-5.07558e-05
0.000918008
-3.58545e-05
0.000950822
-1.85649e-05
0.000977415
4.11938e-06
0.00107144
2.25028e-05
0.000931979
-3.88811e-05
0.000867392
3.25198e-05
0.00104834
0.000130272
-0.000319812
0.00092496
5.78148e-05
5.35369e-05
0.000466985
-0.000394937
-2.32164e-05
-0.000641677
-0.000131649
0.000825225
5.26834e-05
3.41895e-05
0.000722318
4.74075e-05
4.28242e-05
0.000617406
4.03588e-05
5.37261e-05
0.000512991
3.2951e-05
6.36482e-05
0.000416462
2.39454e-05
6.76898e-05
0.00033103
1.7278e-05
6.53431e-05
0.000260104
1.0249e-05
5.89934e-05
0.000203205
4.11033e-06
5.17364e-05
0.000158083
3.36092e-07
4.46447e-05
0.000122087
-5.07779e-07
3.7576e-05
9.29939e-05
-1.70515e-07
3.08284e-05
6.73376e-05
3.34283e-06
2.28788e-05
4.29591e-05
6.3449e-06
1.55906e-05
1.5251e-05
1.58485e-05
4.77299e-06
1.97434e-05
-1.19819e-05
-2.54205e-06
-2.50507e-05
-3.56999e-07
3.8272e-05
-4.95331e-05
3.64103e-05
-7.12306e-05
2.84866e-05
-9.46558e-05
2.93053e-05
-0.000121052
2.8683e-05
-0.000153224
3.34143e-05
-0.000193289
4.12131e-05
-0.000245118
5.61236e-05
-0.000308903
7.34624e-05
-0.000386737
9.29052e-05
-0.000478995
0.000111205
-0.000577645
0.000123094
-0.00067874
0.000129659
-0.000775439
0.000130566
-0.000866681
0.000130406
-0.000967306
0.00014608
-0.000771201
0.000238809
-0.000443464
-0.000819391
0.000180908
-0.000783076
0.000107401
-0.000792633
3.24946e-05
-2.74005e-05
-0.000836792
-4.20281e-05
-0.000826404
-6.48687e-05
-0.000798075
-8.1321e-05
-0.000756542
-0.000103791
-0.000701371
-0.000131158
-0.000648985
-0.00015706
4.50507e-05
-2.2976e-05
-5.04923e-05
5.94419e-05
-3.13913e-05
0.000747523
-0.000185648
-0.000644899
0.00081057
-0.000113959
0.000858646
-8.41476e-05
0.000895544
-5.5764e-05
0.000930632
-3.16278e-05
0.000957902
-5.76843e-06
0.000915418
2.06188e-06
0.000901723
4.28716e-05
0.000928504
9.735e-05
0.000869413
0.000103383
0.000781798
0.00011116
0.000686503
0.000127673
0.000587332
0.000144284
0.000490099
0.000154702
0.000398785
0.000154851
0.000317862
0.000143235
0.000250602
0.000123582
0.000195428
0.00010433
0.000151033
8.68414e-05
0.0001151
7.19863e-05
8.56225e-05
5.89325e-05
5.92472e-05
4.66915e-05
3.37803e-05
3.52875e-05
4.42986e-06
2.39847e-05
-2.4575e-05
1.43203e-05
-7.69822e-05
-0.00059877
2.72965e-05
8.56428e-07
-6.36716e-05
-0.000175857
-0.000543691
-0.00059117
-0.000191995
-1.217e-05
-1.3196e-05
7.06782e-05
-3.31306e-05
5.4673e-05
-5.3031e-05
5.53824e-05
-7.16654e-05
5.03714e-05
-9.15862e-05
5.35626e-05
-0.000113789
5.55141e-05
-0.000139671
6.37274e-05
-0.00017206
7.73852e-05
-0.000210944
9.82125e-05
-0.000260672
0.000125445
-0.000323869
0.000156167
-0.000398618
0.000182544
-0.000482187
0.000199255
-0.000567691
0.000204416
-0.000649254
0.000199675
-0.000719276
0.000188335
-0.00076432
0.000179985
-0.000715655
0.000181196
-0.000688069
0.000146822
-0.000674766
8.85963e-05
-0.000669152
2.14343e-05
-0.000676731
-3.9969e-05
-0.000667276
-7.9999e-05
-0.000641274
-0.00011279
-0.000607857
-0.000142231
-0.000567956
-0.000175155
-0.000526367
-0.000202318
-0.000167222
3.25301e-05
-3.33028e-05
0.000240773
-0.0001077
-0.000199342
6.83911e-05
-0.000273895
-8.26744e-05
0.000315429
4.25686e-05
8.19232e-05
0.000655065
-0.000140808
1.93023e-05
-0.000531982
0.000642995
-0.00017226
0.000687726
-0.000157096
0.000729356
-0.000123832
0.000766433
-9.08506e-05
0.000793817
-5.75011e-05
0.000811371
-2.19965e-05
0.000803779
1.01904e-05
0.000790088
5.52724e-05
0.000776252
0.000107612
0.000730889
0.000142783
0.000662182
0.000172541
0.000582064
0.000200559
0.000498124
0.000222429
0.00041521
0.000233537
0.00033983
0.000227255
0.000274493
0.000205808
0.000218418
0.000176483
0.000172043
0.000146969
0.000133198
0.000121641
0.000100865
0.000100287
7.26192e-05
8.29004e-05
4.67586e-05
6.70885e-05
2.21501e-05
5.19819e-05
-6.26049e-06
4.13626e-05
-3.53653e-05
3.093e-05
-7.12949e-05
2.35802e-05
2.94511e-06
-0.000103931
1.99395e-05
2.39652e-05
-9.7596e-05
4.1076e-05
-8.16055e-05
5.29091e-05
-5.76e-05
-0.000189373
0.000236602
-0.000144078
-3.71875e-05
6.44922e-05
7.86244e-05
-8.98851e-05
-0.000153625
0.000211949
-0.000102128
-0.000224311
0.000114236
-0.000243893
-0.000524619
-3.86656e-05
-1.74239e-05
0.000158918
-9.94105e-05
0.000246469
0.000216486
-0.000225089
-0.000678255
-5.86498e-05
0.000138463
-0.000492606
-0.000228986
1.02131e-05
2.52721e-05
-0.000144643
4.72018e-05
-0.000143816
7.9793e-05
-0.00012658
9.58108e-05
-8.90308e-05
9.76466e-05
-5.53778e-05
2.61553e-05
9.68486e-05
-4.0142e-05
1.63079e-06
7.9462e-05
-1.96339e-05
8.02081e-05
-3.7623e-05
7.10083e-05
-5.41496e-05
7.29521e-05
-6.97835e-05
7.05943e-05
-8.57919e-05
7.48768e-05
-0.000102715
7.84106e-05
-0.000120647
8.83807e-05
-0.000141331
0.000105046
-0.000165891
0.000129586
-0.000196782
0.000162161
-0.000236515
0.000199148
-0.000287372
0.000232795
-0.000347495
0.00025479
-0.000410896
0.000259677
-0.000471663
0.000250683
-0.000520936
0.00022863
-0.000547648
0.000199986
-0.0005386
0.000166198
-0.000522691
0.000125287
-0.000501089
6.17313e-05
-0.000489295
4.06192e-06
-0.000482899
-5.19608e-05
-0.000468289
-0.000100526
-0.000446817
-0.000140169
-0.000419644
-0.000174719
-0.000395067
-0.0002048
-0.000228893
-0.000373658
-0.000146363
8.44253e-05
-0.000401456
0.000465728
-1.80437e-05
0.000122814
-0.000127209
2.18954e-05
0.000288197
-0.000258459
0.000160604
8.64801e-05
-0.000190965
0.000139741
0.0001608
-0.000177395
0.000105771
0.000226102
-0.000178685
0.000281548
-0.000187692
0.000135597
0.000335105
-0.000196599
0.000390949
-0.000202451
0.000149793
0.000454383
-0.000200817
0.000485239
-0.000199126
0.000517241
-0.000184715
0.000550718
-0.000152737
0.000581223
-0.000116784
0.000602452
-7.44995e-05
0.000615264
-3.09008e-05
0.000612452
1.60281e-05
0.00059918
6.98004e-05
0.000578606
0.000127113
0.000541211
0.000177507
0.000488053
0.000222126
0.00042651
0.000258464
0.00036426
0.000281902
0.000304827
0.000291013
0.000253678
0.000276552
0.000209593
0.000247378
0.00017173
0.000210659
0.000138066
0.000175647
0.000108217
0.00014538
8.03789e-05
0.000121304
5.51518e-05
0.000100936
3.15667e-05
8.33045e-05
9.67411e-06
6.58217e-05
-1.59136e-05
5.64435e-05
-4.26905e-05
4.6668e-05
-7.32607e-05
4.39352e-05
-0.000102209
4.08631e-05
5.3065e-05
-0.000135027
-3.87157e-05
-0.000253697
0.000203038
8.4522e-05
-0.000113888
0.000156904
0.000214886
-0.000239664
1.95663e-05
7.91935e-06
0.000200385
-0.000400186
-0.000162089
0.000354804
0.000226482
5.79217e-05
-9.90073e-05
-0.000188688
0.000147147
-2.44781e-05
-0.000262968
-0.000475682
-0.000478141
-1.01206e-05
0.000574302
2.41454e-05
-4.22007e-05
0.000103142
7.46177e-07
9.59455e-05
-2.13339e-05
9.23299e-05
-3.82088e-05
8.81871e-05
-5.29471e-05
8.92643e-05
-6.67066e-05
8.87775e-05
-7.87636e-05
9.25509e-05
-9.02905e-05
9.71493e-05
-0.000100078
0.000107329
-0.000108934
0.000124267
-0.000117751
0.000149165
-0.00012804
0.000182219
-0.000142387
0.000220452
-0.000164797
0.000258382
-0.000196262
0.000285067
-0.000233149
0.000292018
-0.000268757
0.000280264
-0.000299367
0.00025301
-0.000317864
0.00021277
-0.000318834
0.000162301
-0.00030604
0.000107824
-0.000293101
4.41389e-05
-0.000279975
-1.39944e-05
-0.000267833
-6.93984e-05
-0.000252894
-0.000121433
-0.000234982
-0.000164213
-0.000217385
-0.000198807
-0.000203732
-0.000224794
-0.000194398
-0.000244134
-0.000247094
-0.000359756
-0.000106476
-5.74777e-05
0.000150259
-2.13633e-05
0.000296841
-0.000307782
3.06996e-05
1.72111e-05
-0.000187213
-1.88597e-05
4.77224e-05
-0.000205357
8.93931e-05
-0.000217147
0.000132086
-0.000226713
0.000173983
-0.00023441
0.000214933
-0.000238516
0.000254633
-0.000235219
0.000285775
-0.000224492
0.000311228
-0.000203953
0.000337778
-0.000172764
0.000359184
-0.000131585
0.000375625
-8.449e-05
0.000382897
-3.19431e-05
0.000380915
2.34241e-05
0.000369265
8.52434e-05
0.000350746
0.000148329
0.000323042
0.000206624
0.000288406
0.000256879
0.000251114
0.000295653
0.000214241
0.000318664
0.000183971
0.000320963
0.000159509
0.000299891
0.000139763
0.000264473
0.000120439
0.000225507
0.000100687
0.000188996
7.88926e-05
0.000159008
5.6887e-05
0.000134021
3.59869e-05
0.000112403
1.56307e-05
9.58248e-05
-3.07706e-06
7.82612e-05
-2.31369e-05
6.79775e-05
-4.64332e-05
6.05545e-05
-7.11751e-05
5.99567e-05
-9.49325e-05
5.71366e-05
-0.000114423
6.55515e-05
-4.6786e-05
5.48381e-05
-0.000124039
-2.32866e-05
-0.000159031
3.66043e-06
-0.000172571
3.07956e-05
-0.000175292
5.49226e-05
-0.000158477
7.01565e-05
-0.000115617
8.52495e-05
-8.35893e-05
0.000101125
-6.82837e-05
-6.73672e-05
0.000117132
0.000210432
1.38795e-05
-8.92014e-06
-1.17948e-05
1.49207e-06
0.000245425
-0.000240898
-2.09114e-05
9.74452e-07
-1.84378e-05
3.82234e-05
9.35862e-05
-5.89444e-05
-9.14499e-06
-0.00018483
0.000168484
1.5707e-05
-4.40802e-05
-4.55419e-06
-0.000194842
-0.000252029
-0.000256691
-0.000369219
-7.81974e-05
-1.16592e-05
-1.4047e-05
5.35635e-05
-7.09536e-05
0.00011244
9.05229e-05
2.06295e-05
-1.59201e-05
-9.51273e-05
0.000221858
0.000318205
-8.94926e-05
0.000101093
-0.000197597
-7.01235e-05
-0.000222608
-4.54304e-05
-0.000238681
-1.81091e-05
-0.000249806
8.72389e-06
-0.000256022
3.35053e-05
-0.000257343
5.70158e-05
-0.000251689
7.80414e-05
-0.000237479
9.63761e-05
-0.000213514
0.000112378
-0.000179617
0.000126736
-0.000136843
0.000136866
-8.57027e-05
0.000141047
-2.75986e-05
0.000139163
3.2959e-05
0.000131463
9.88535e-05
0.000120271
0.000164148
0.000106231
0.000224596
9.10371e-05
0.000275543
7.78537e-05
0.000311206
7.05745e-05
0.00032766
7.04768e-05
0.00032166
7.43267e-05
0.000295431
7.59925e-05
0.0002599
7.29081e-05
0.000223087
6.34055e-05
0.000190457
4.93847e-05
0.000162942
3.33354e-05
0.000138993
1.68024e-05
0.000118639
5.43689e-07
0.000103795
-1.38903e-05
8.80115e-05
-2.82584e-05
7.90771e-05
-4.82458e-05
7.31843e-05
-6.99781e-05
7.27249e-05
-9.15174e-05
6.99534e-05
-0.000108102
7.206e-05
-0.000115962
5.88285e-05
-6.62245e-05
4.49429e-05
-9.12675e-05
-7.61505e-05
-0.000110012
-4.0508e-05
-0.000191402
4.0399e-06
-0.000215828
5.41578e-05
-0.000227539
0.000108936
-0.000219256
0.000132213
-0.000149326
0.000122623
-8.6498e-05
0.000107356
-6.51234e-05
0.000108901
-7.86864e-05
6.93456e-05
-8.70191e-05
0.000120415
4.51716e-05
0.000135785
2.34331e-05
0.000115947
3.11083e-07
0.000114525
-2.21188e-05
0.00010462
-3.82974e-05
0.000105021
-5.15313e-05
0.000103497
-6.3223e-05
0.000104253
-7.16557e-05
0.000106511
-7.76513e-05
0.000111588
-7.97158e-05
0.000121044
-7.82459e-05
0.000136481
-7.3219e-05
0.000158641
-6.56532e-05
0.000188174
-5.71513e-05
0.000222824
-5.08055e-05
0.000259168
-5.09869e-05
0.000287682
-5.76729e-05
0.000298787
-6.83386e-05
0.000289054
-7.93036e-05
0.000260857
-8.54379e-05
0.000215921
-8.61319e-05
0.000160825
-7.95071e-05
9.90795e-05
-7.31814e-05
3.51547e-05
-6.25527e-05
-2.79955e-05
-5.04954e-05
-8.56427e-05
-3.8149e-05
-0.000139077
-2.56851e-05
-0.000182569
-1.48022e-05
-0.000216115
-7.44755e-06
-0.000239125
-0.000248846
-9.84716e-06
-9.1335e-05
-8.11408e-05
0.000119389
-0.000251753
-0.000204104
-0.000425834
-0.000241448
0.00029644
9.83098e-05
-5.68687e-05
3.39667e-05
-0.00014959
0.000111691
-3.26779e-05
-0.000182359
-2.63895e-05
-1.06217e-05
-0.000196864
0.000308447
4.7115e-05
-0.000379839
-0.000172128
0.000171688
-0.000199672
-0.000166382
0.000193875
-0.000187625
-0.000208821
-0.000175839
-0.000232392
-0.000165103
-0.000246012
-0.000154094
-0.000255871
-0.000143476
-0.000260467
-0.000133484
-0.000259657
-0.000123535
-0.000252646
-0.00011451
-0.000236342
-0.000106409
-0.000210575
-9.90931e-05
-0.000175563
-9.27172e-05
-0.000132007
-8.77466e-05
-7.97511e-05
-8.5364e-05
-1.9483e-05
-8.5461e-05
4.27706e-05
-8.58845e-05
0.000108094
-8.53036e-05
0.00017121
-8.26229e-05
0.000227881
-7.54271e-05
0.000272966
-6.07798e-05
0.000300621
-3.96105e-05
0.000309157
-1.44213e-05
0.000297809
8.25858e-06
0.000272322
2.42495e-05
0.000240729
3.17866e-05
0.000209301
3.0454e-05
0.000182286
2.28311e-05
0.000158813
1.12338e-05
0.00013862
-2.22111e-06
0.00012124
-1.43779e-05
0.000107309
-2.3204e-05
9.59068e-05
-3.20314e-05
8.80204e-05
-4.84053e-05
8.41024e-05
-6.81044e-05
8.26483e-05
-8.77422e-05
7.91498e-05
-0.000102375
7.3981e-05
-0.000107016
5.76931e-05
-7.63079e-05
1.72723e-05
-3.96166e-06
-4.90322e-05
-1.68883e-05
-3.4765e-05
-5.05618e-05
-4.87076e-05
-8.50138e-05
-3.37245e-05
-0.000198035
-2.10337e-05
-0.00022399
4.90875e-06
-0.000252671
3.49101e-05
-0.000253189
6.47517e-05
-0.000187592
0.000101689
-0.000134559
0.000128143
-0.000103191
0.000137693
-9.66238e-05
0.000150732
-0.000104169
8.53015e-05
-0.000106182
0.000170456
6.47575e-05
0.000137339
4.12574e-05
0.000156663
1.98534e-05
0.00013017
-2.33188e-06
0.000134282
-2.34981e-05
0.000114412
-3.91223e-05
0.000120298
-5.04818e-05
0.000114533
-5.97101e-05
0.000116256
-6.53222e-05
0.000117531
-6.63448e-05
0.000122021
-6.19547e-05
0.000130311
-5.19573e-05
0.000142889
-3.65057e-05
0.00016059
-1.56936e-05
0.000183971
8.57578e-06
0.000213037
3.65916e-05
0.000241869
6.27702e-05
0.000267565
8.53172e-05
0.00028098
0.000101994
0.000276215
0.000113396
0.00025266
0.000121161
0.000210819
0.000128611
0.000155334
0.000136261
9.25813e-05
0.000142758
2.88386e-05
0.000149579
-3.59107e-05
0.000155065
-9.3716e-05
0.000158525
-0.000146326
0.000162109
-0.000191169
0.000163424
-0.000223607
0.000161243
-0.000244221
-0.000250262
0.000154707
-1.8242e-05
-0.000250058
-6.6489e-05
-3.32854e-05
-9.08697e-05
-6.39291e-05
7.84031e-05
6.16172e-07
2.13177e-05
-7.3436e-06
-1.51425e-05
-2.96582e-05
-0.000245468
0.000227046
-1.51913e-05
8.30188e-05
0.000213579
1.09609e-06
0.000184455
1.52092e-06
-0.000169124
7.24797e-06
-0.000263692
3.92632e-06
-0.000181254
8.99309e-05
-0.000199532
-0.00024892
-2.01471e-05
7.54859e-05
0.000153195
-2.16472e-06
4.11596e-05
-0.000104897
3.12734e-05
-2.70629e-05
3.91014e-05
-9.47126e-05
3.49646e-06
-5.64434e-05
-0.00022208
5.34986e-06
-0.000279576
6.58963e-05
-0.000313345
0.000154703
-0.000347797
0.000163933
-0.000208623
7.79103e-05
-6.24981e-05
1.20928e-05
-5.02446e-05
1.65767e-05
-0.000110024
3.36493e-05
-0.000127021
7.35247e-05
-0.000150226
9.58822e-05
0.000153098
-0.000178331
7.16523e-05
0.000194803
5.181e-05
0.000154835
2.94637e-05
0.000177303
1.22308e-05
0.000139696
-8.78312e-06
0.000150577
-2.64211e-05
0.000122662
-4.11798e-05
0.0001321
-5.04974e-05
0.000121745
-5.77346e-05
0.00012465
-5.99265e-05
0.000124686
-5.71003e-05
0.000128978
-4.75254e-05
0.00013523
-3.14646e-05
0.000144468
-8.87371e-06
0.00015701
2.00663e-05
0.000174452
5.52964e-05
0.000193589
9.64693e-05
0.000214989
0.000140356
0.00023416
0.000183836
0.000246249
0.000223159
0.000244709
0.000256093
0.00022666
0.000281639
0.000191294
0.000300295
0.000141836
0.000313367
8.35983e-05
0.000320121
2.49273e-05
0.000327016
-4.15557e-05
0.000325309
-9.26794e-05
0.000321191
-0.000144285
0.00031387
-0.000187482
0.000304818
-0.000220124
0.00029402
-0.000240845
-0.000249798
0.000285034
-0.000244029
0.000141014
8.24186e-05
-0.000213176
-0.000121172
-4.62379e-05
1.58564e-05
-0.000334912
-4.40887e-05
3.21009e-05
0.000346496
-0.000220216
2.074e-05
0.000214257
-1.79934e-05
-0.000254718
-0.000222867
0.000269351
-0.00025457
-0.000230627
-0.000256436
-0.000240483
-0.000260078
-0.000246602
-0.000263322
-0.000249882
-0.00026708
-0.00024677
-0.00026966
-0.000239541
-0.000271889
-0.000222206
-0.000272979
-0.00019665
-0.00027326
-0.00016221
-0.00027307
-0.00011927
-0.000272151
-6.80302e-05
-0.000269345
-1.04452e-05
-0.000263832
4.8538e-05
-0.000254087
0.000108815
-0.000239177
0.00016567
-0.000217723
0.000214608
-0.000188555
0.000250397
-0.000152829
0.000269708
-0.000112131
0.000272113
-7.22021e-05
0.00025953
-3.79863e-05
0.000237862
-1.3628e-05
0.000213052
-1.20035e-07
0.00018943
3.69873e-06
0.000167963
4.23224e-08
0.00014959
-7.64841e-06
0.000134152
-1.64995e-05
0.000120726
-2.59329e-05
0.000108551
-3.06235e-05
0.000100552
-3.47403e-05
9.40419e-05
-4.74785e-05
9.21929e-05
-6.57068e-05
8.99789e-05
-8.52782e-05
8.66003e-05
-0.000105031
7.93207e-05
-0.000114068
5.99722e-05
-0.00011375
1.95325e-05
-0.000106885
-1.92718e-05
-0.000126711
-7.39938e-05
-8.71487e-05
-2.70261e-05
2.84843e-05
-4.69705e-05
-4.66822e-05
-0.00019666
4.62978e-06
-1.95412e-05
0.000208401
-0.000121093
-0.000248168
0.000123396
-4.40362e-05
-0.000237934
6.88576e-05
-0.000116612
0.000198756
4.11143e-05
0.000222917
2.97774e-05
0.000163442
7.05015e-06
0.000197991
4.2736e-07
0.000137548
-1.91551e-05
0.00016424
-3.24883e-05
0.000125736
-4.42723e-05
0.000138611
-5.15528e-05
0.000125106
-5.68037e-05
0.000128899
-5.59587e-05
0.000127891
-4.95665e-05
0.000131723
-3.64159e-05
0.000135909
-1.67515e-05
0.000141893
9.94851e-06
0.000149778
4.40454e-05
0.000159544
8.45396e-05
0.000171486
0.000131623
0.000184543
0.000183534
0.000196589
0.000238286
0.000203962
0.00029183
0.000202615
0.000340405
0.00018856
0.000380546
0.000160663
0.000410935
0.000119808
0.000431378
7.01497e-05
0.000446497
1.52614e-05
0.000448791
-4.03304e-05
0.000445387
-8.78605e-05
0.000436864
-0.000136304
0.00042104
-0.000173536
0.000400048
-0.000203437
0.000379195
-0.000227086
0.000367011
-0.000246357
-0.00024101
0.000273188
0.00029037
-0.000203627
1.60065e-06
5.85158e-05
-2.82519e-05
0.000131409
-0.000108845
-0.000141778
0.000162668
8.25751e-06
2.48369e-05
0.000193138
-0.000108278
0.000157617
-7.67326e-05
-0.000235995
-6.7717e-05
-0.000277789
-3.32841e-05
-0.000341749
-1.49009e-05
-0.000363197
3.29301e-05
-0.000264129
6.81761e-05
-0.000109026
8.57958e-05
-8.03206e-05
6.97917e-05
-0.000102032
7.88695e-05
-0.000138503
0.000117822
-0.000187274
0.00018573
-0.000242441
0.000234949
-0.00016231
4.36383e-05
-0.000186363
-6.33435e-05
-0.000211118
2.20894e-05
-0.000236402
2.42318e-05
-0.000263722
2.5697e-05
2.6672e-05
-0.000311846
0.000183302
0.000354739
-0.000186478
-0.000186386
0.00017027
-0.000169834
-6.98846e-06
4.42602e-06
1.42432e-05
0.000378788
-0.00042383
-0.000286069
-0.000195872
0.000259578
-0.000304516
-0.000210128
-0.0003203
-0.000220728
-0.000333563
-0.000227159
-0.000347254
-0.000227955
-0.000359119
-0.000224816
-0.000371444
-0.000215564
-0.000381501
-0.000199052
-0.00038932
-0.000174857
-0.000394788
-0.000142707
-0.000397484
-0.000102604
-0.00039575
-5.59589e-05
-0.000389154
-4.10695e-06
-0.000376768
4.83792e-05
-0.000357361
0.000100581
-0.000329736
0.000148051
-0.00029361
0.000187033
-0.000250188
0.000213965
-0.000201937
0.000227061
-0.000152807
0.000226909
-0.00010732
0.000216433
-6.93517e-05
0.000200179
-4.14279e-05
0.000182243
-2.39845e-05
0.000165264
-1.72696e-05
0.000149996
-1.78772e-05
0.000137108
-2.33948e-05
0.000126207
-2.92033e-05
0.000116938
-3.5116e-05
0.000107509
-3.64944e-05
0.000102371
-3.66393e-05
9.67148e-05
-4.58035e-05
9.6372e-05
-6.21322e-05
9.48226e-05
-7.98749e-05
9.22498e-05
-0.000105079
9.00625e-05
-0.000120593
6.78491e-05
-0.000146761
4.6664e-05
-0.00015721
-6.25171e-06
-0.000184903
-3.52376e-05
-0.000180193
-0.000111185
-1.55812e-05
-0.000194338
1.02052e-05
-0.000225149
0.0001144
-0.000259127
0.000220797
-7.59003e-05
1.48572e-05
-2.07298e-05
-3.06552e-05
1.94669e-06
-4.96632e-05
-2.01757e-05
0.000211197
1.41186e-05
-0.00022488
-0.000230905
-2.52755e-05
0.000212632
0.000407477
-0.000230298
-6.31178e-05
-0.000283545
0.000399317
0.000395267
0.000204885
-0.000241794
2.26801e-05
0.000209857
-2.31302e-05
-0.000227789
0.000302383
0.000150153
-0.000222002
-1.78754e-05
0.000246897
3.33161e-05
-0.000268795
-2.43511e-05
-3.60351e-05
0.000298012
1.95103e-05
0.000152462
-1.96399e-05
0.000261324
-4.79549e-06
0.000145005
-1.95167e-05
0.000207928
-2.30471e-05
0.00013175
-3.11429e-05
0.000164135
-4.07804e-05
0.000124459
-4.75103e-05
0.000137873
-5.24537e-05
0.000123988
-5.56979e-05
0.000128708
-5.25336e-05
0.000126835
-4.437e-05
0.000130102
-2.90799e-05
0.000131613
-6.98224e-06
0.00013447
2.2309e-05
0.000138647
5.83383e-05
0.000142842
0.000100976
0.00014831
0.000149607
0.00015443
0.000203844
0.000159996
0.000261592
0.000162294
0.000320282
0.000158767
0.000376008
0.000146636
0.000424918
0.000124502
0.000463813
9.231e-05
0.000490995
5.27782e-05
0.000507752
6.3424e-06
0.000515247
-4.22189e-05
0.000511775
-8.11459e-05
0.000500024
-0.000123727
0.000482819
-0.000156217
0.000460137
-0.000183315
0.000430963
-0.000204426
0.000391084
-0.000214426
-0.000225451
0.000323828
2.55394e-05
-0.00017937
0.000221153
-0.000229017
4.5227e-05
-4.73843e-05
3.55725e-05
0.000230084
4.57476e-05
1.54986e-05
-0.000249971
0.000253421
-0.00036059
0.000152282
0.000106649
7.39022e-05
0.000272984
-2.96009e-05
0.000262315
-5.05402e-05
-0.00021713
0.000148019
-0.000476329
0.00017395
-0.000366209
0.000136479
-0.000323188
-0.000141273
1.5152e-05
-0.000382861
0.000119833
-0.000445195
-3.08657e-05
-0.000301244
-0.000259541
-0.000207727
-0.000245243
-5.78942e-05
-0.000346905
0.000168593
-0.000473431
0.000228314
-0.00022492
7.88758e-05
0.000110442
-0.000151806
-0.000227646
4.05332e-05
-0.000248451
4.17125e-05
-0.000270722
4.44309e-05
-0.000291415
4.39008e-05
7.51456e-05
-0.000322855
-2.11285e-05
2.39954e-05
-5.39625e-06
7.83925e-05
-0.000300579
-0.000164161
0.000280024
0.000184238
-0.000320414
-0.000175268
-0.000341793
-0.00018636
-0.000362252
-0.00019576
-0.000381315
-0.000201594
-0.0003982
-0.000202265
-0.000414392
-0.000197994
-0.000429161
-0.000188547
-0.00044184
-0.000172729
-0.000451692
-0.00015051
-0.000458299
-0.000121825
-0.000460759
-8.58748e-05
-0.000457695
-4.50921e-05
-0.000446902
-1.54628e-06
-0.000429031
4.26166e-05
-0.000402086
8.48758e-05
-0.000366424
0.000122473
-0.00032313
0.000152339
-0.000274441
0.000172314
-0.000223395
0.000181676
-0.000173558
0.000181583
-0.000128221
0.000174366
-8.99922e-05
0.000163235
-6.08529e-05
0.00015112
-4.18351e-05
0.000139762
-3.28276e-05
0.000130078
-3.20359e-05
0.000121948
-3.58091e-05
0.000115321
-3.99953e-05
0.000109664
-4.30454e-05
0.000103095
-4.17358e-05
0.000100526
-3.80751e-05
9.52181e-05
-4.42391e-05
9.6705e-05
-5.70507e-05
9.64579e-05
-7.20912e-05
9.6756e-05
-0.000102486
0.000106831
-0.000128436
8.52727e-05
-0.000186734
0.000103934
-0.000218204
2.62337e-05
-0.000289798
4.61694e-05
-0.000303993
-9.51745e-05
-0.000190185
-0.000108491
-2.86791e-05
-0.000155561
5.40573e-06
-0.000199674
0.000240151
-2.41771e-05
0.000161671
8.52572e-05
-0.000104379
-8.6931e-05
0.000113659
6.98863e-05
-7.70162e-05
9.89196e-05
-5.98689e-05
5.91248e-05
9.21279e-05
-0.000219927
4.98692e-05
1.43351e-05
-4.50856e-05
-7.08816e-06
-8.27594e-06
-0.000255527
0.00024479
-1.32782e-05
-0.000213339
3.83527e-05
-1.59104e-05
0.000195612
0.000248113
-0.000226379
3.29893e-05
0.000456322
-0.000132773
-0.000396266
0.00014782
-0.000180548
2.81548e-05
0.000182716
-0.000204582
0.000206273
-2.41005e-05
-2.27878e-05
-0.000200399
-0.000431189
-0.000198016
-0.000459035
-0.000193375
-0.000486818
-0.00018102
-0.000509852
-0.000161856
-0.000527119
-0.000137209
-0.000539187
-0.000109515
-0.000537445
-7.75463e-05
-0.000530852
-4.09408e-05
-0.000509612
-4.46333e-06
-0.000476719
3.2399e-05
-0.000433807
6.37792e-05
-0.000382466
8.90978e-05
-0.000325983
0.000107322
-0.000267876
0.000118908
-0.000211092
0.000124837
-0.000157676
0.000126728
-0.000109148
0.000126357
-6.61715e-05
0.000125133
-2.93218e-05
0.000124263
1.14914e-06
0.000123868
2.39753e-05
0.000122863
4.02869e-05
0.00012226
4.91206e-05
0.000122549
5.33799e-05
0.000120526
5.21739e-05
0.000122535
4.90462e-05
0.000117737
4.74324e-05
0.000129377
4.19208e-05
0.00011816
4.36416e-05
0.000152045
4.18263e-05
0.000123812
4.98602e-05
0.000193033
5.90452e-05
0.00013063
7.01615e-05
0.000247878
9.83367e-05
0.000122182
0.000124443
0.000274001
0.000207175
-5.42096e-06
-1.59628e-05
-0.000196779
1.50646e-05
0.000307285
-0.000260149
-0.000226135
0.000294094
-0.000231356
0.000283187
-0.000349492
0.000394531
-3.29404e-06
5.3094e-05
0.000616735
-0.000380828
0.000704229
-0.000278078
-0.000308851
-0.000271075
-0.000467837
-0.000178252
-0.000449492
-0.00013046
-0.000360094
-5.04078e-05
-5.61063e-05
-3.28447e-05
8.78064e-05
-7.44501e-05
-7.67449e-06
-0.000119957
-0.00022456
-0.000102271
-0.000262299
-5.74214e-05
-0.000381392
-1.05712e-05
-0.000500281
7.95303e-05
-0.000307724
0.000100031
9.69311e-05
6.881e-05
0.000248399
-4.48576e-05
-0.000156124
-0.000140836
0.000331479
-8.93039e-05
-0.000127482
0.000120918
-4.40284e-05
-0.000242956
0.000186174
9.64068e-05
-3.31848e-05
0.000196715
-2.86414e-05
0.000200806
-3.07876e-05
0.000205845
-0.000209855
-3.33493e-05
0.000210264
-0.000205992
-3.04313e-05
-0.000203264
-2.81847e-05
2.69267e-05
-3.90981e-05
-0.00019379
-0.00039434
7.19837e-05
-5.62675e-06
-0.00019471
0.000193325
3.26507e-06
-5.87942e-06
-0.000219275
1.71759e-05
-2.30358e-05
-0.000215512
0.000222599
1.93559e-05
-0.000220079
0.000127886
-5.90257e-05
-0.000148242
0.000111702
-5.44567e-05
-4.27869e-05
9.96645e-05
-0.00021413
7.40944e-05
-9.35595e-05
-0.00012515
7.16716e-05
8.91211e-06
-2.1761e-05
-0.000239372
4.74473e-05
-0.000252572
5.11291e-05
-0.00026556
5.33473e-05
-0.000286534
6.0829e-05
7.8377e-05
-0.00029356
0.000188578
-0.000302257
-0.000211843
-0.000123483
6.21533e-05
0.000223763
-0.000164736
-0.000302653
-0.000144709
0.000166997
0.00027926
-0.000322933
-0.000143938
-0.000344727
-0.000152306
-0.000366737
-0.000161516
-0.000387815
-0.000169884
-0.00040768
-0.000174777
-0.000425893
-0.000175172
-0.00044236
-0.000170826
-0.000456679
-0.000161997
-0.000468333
-0.000147585
-0.000476741
-0.000127821
-0.000481956
-0.000102401
-0.000482139
-7.15554e-05
-0.000476016
-3.78279e-05
-0.000461467
-3.33031e-06
-0.000439265
3.20171e-05
-0.000408781
6.51758e-05
-0.00037081
9.41219e-05
-0.000326984
0.000116738
-0.00027961
0.000131808
-0.000231219
0.000139061
-0.000184281
0.000139714
-0.000141219
0.000135589
-0.000104059
0.000128692
-7.49257e-05
0.000121276
-5.52179e-05
0.000114427
-4.52216e-05
0.00010901
-4.339e-05
0.000104933
-4.63799e-05
0.000101737
-5.01085e-05
9.88651e-05
-5.12758e-05
9.4654e-05
-4.75493e-05
9.38673e-05
-4.02418e-05
8.8548e-05
-4.20532e-05
9.21632e-05
-4.79804e-05
9.24805e-05
-5.74246e-05
9.66084e-05
-8.05081e-05
0.000116466
-9.99631e-05
9.48884e-05
-0.000144835
0.000147229
-0.000172475
5.04678e-05
-0.000247168
0.000130996
-0.000257956
-8.37929e-05
-0.000249358
-0.000108938
-0.000308007
-0.000188502
-0.000205686
9.26468e-06
0.000185089
-0.000215718
1.08042e-05
3.93107e-06
8.23888e-06
-0.000220338
0.000238479
1.01557e-05
-0.000247859
-6.22946e-06
-0.000213805
4.91229e-06
-0.000190958
0.000205983
-7.55829e-06
-0.000239945
6.59113e-06
-2.45407e-05
-0.000212362
3.02751e-05
-1.62402e-05
-0.000221659
2.43338e-05
0.000208208
1.96696e-05
-9.47556e-06
3.77467e-05
-3.5698e-05
5.3651e-05
3.34957e-05
0.000187082
-0.000202929
-0.00016232
-3.15288e-05
0.000145423
-0.000180556
-0.000192531
0.000170269
-0.000251522
5.65519e-06
-1.60179e-05
0.000218787
-5.74567e-05
-0.000203255
-4.66206e-05
8.68387e-05
8.22713e-05
0.00021842
6.40667e-06
-0.000213234
2.12358e-05
0.000221384
-3.32778e-05
0.000222777
-3.3997e-05
0.000220708
-3.30944e-05
-0.000438362
-0.000166811
-0.00047183
-0.000165553
-0.000498381
-0.000156967
-0.000519516
-0.000140729
-0.000534557
-0.000120212
-0.000543275
-9.6969e-05
-0.000540349
-7.31259e-05
-0.00052845
-4.25313e-05
-0.000504019
-1.56698e-05
-0.000469302
1.30828e-05
-0.000425565
3.75343e-05
-0.000375882
5.8642e-05
-0.000321914
7.39202e-05
-0.000266805
8.53195e-05
-0.000212581
9.26724e-05
-0.00016106
9.7288e-05
-0.000113581
0.000100266
-7.09931e-05
0.000102498
-3.45221e-05
0.000104381
-4.14626e-06
0.000105568
1.90158e-05
0.00010723
3.55198e-05
0.000108025
4.44365e-05
0.000108866
4.89584e-05
0.000107879
4.93628e-05
0.000109681
4.83148e-05
0.000105402
5.01878e-05
0.000114
4.84852e-05
0.000106015
5.74258e-05
0.00013081
5.87112e-05
0.000111538
7.78286e-05
0.000164892
8.57679e-05
0.000116423
0.000120187
0.000210384
0.000140297
0.000100089
0.000183842
0.000232172
0.000211488
-3.26932e-05
0.000184145
0.000106471
0.000261714
7.12503e-05
-0.000258597
0.000255525
6.24879e-05
0.000247474
5.69886e-05
0.000242355
5.21616e-05
0.000238195
4.79298e-05
0.000236904
4.29227e-05
0.000153918
-0.000109586
-0.000146939
-0.000160587
-5.8842e-05
0.000386708
-0.000468169
-5.8492e-05
-0.000170455
3.04006e-05
-0.000217175
1.54231e-05
-0.000196899
-1.49928e-05
-1.22223e-05
-0.000193718
1.2305e-05
0.000178466
-2.52411e-06
-2.61904e-05
0.000133456
0.000622009
-0.00025568
0.000159085
-0.000524588
-3.06608e-05
0.000149403
-2.04016e-05
-6.19358e-05
-0.000114495
-0.00012697
-2.80011e-05
4.95746e-06
0.000198705
-0.000179088
0.000225417
1.19211e-05
-0.000209433
3.3169e-05
0.000235937
0.000192374
-0.00067215
0.000149477
-0.000225798
0.000161322