/*--------------------------------*- C++ -*----------------------------------*\
| =========                 |                                                 |
| \\      /  F ield         | OpenFOAM: The Open Source CFD Toolbox           |
|  \\    /   O peration     | Version:  2212                                  |
|   \\  /    A nd           | Website:  www.openfoam.com                      |
|    \\/     M anipulation  |                                                 |
\*---------------------------------------------------------------------------*/
FoamFile
{
    version     2.0;
    format      ascii;
    arch        "LSB;label=32;scalar=64";
    class       volScalarField;
    location    "0.48";
    object      nut;
}
// * * * * * * * * * * * * * * * * * * * * * * * * * * * * * * * * * * * * * //

dimensions      [0 2 -1 0 0 0 0];

internalField   nonuniform List<scalar> 
24240
(
0
0
0
0
0
0
0
0
0
0
0
0
0
0
0
0
0
0
0
0
0
0
0
0
0
0
0
0
0
0
0
0
0
0
0
0
0
0
0
0
0
0
0
0
0
0
0
0
0
0
0
0
0
0
0
0
0
0
0
0
0
0
0
0
0
0
0
0
0
0
0
0
0
0
0
0
0
0
0
0
0
0
0
0
0
0
0
0
0
0
0
0
0
0
0
0
0
0
0
0
0
0
0
0
0
0
0
0
0
0
0
0
0
0
0
0
0
0
0
0
0
0
0
0
0
0
0
0
0
0
0
0
0
0
0
0
0
0
0
0
0
0
0
0
0
0
0
0
0
0
0
0
0
0
0
0
0
0
0
0
0
0
0
0
0
0
0
0
0
0
0
0
0
0
0
0
0
0
0
0
0
0
0
0
0
0
0
0
0
0
0
0
0
0
0
0
0
0
0
0
0
0
0
0
0
0
0
0
0
0
0
0
0
0
0
0
0
0
0
0
0
0
0
0
0
0
0
0
0
0
0
0
0
0
0
0
0
0
0
0
0
0
0
0
0
0
0
0
0
0
0
0
0
0
0
0
0
0
0
0
0
0
0
0
0
0
0
0
0
0
0
0
0
0
0
0
0
0
0
0
0
0
0
0
0
0
0
0
0
0
0
0
0
0
0
0
0
0
0
0
0
0
0
0
0
0
0
0
0
0
0
0
0
0
0
0
0
0
0
0
0
0
0
3.56487e-07
3.59055e-07
3.5933e-07
3.59606e-07
3.59906e-07
3.60214e-07
3.60537e-07
3.60853e-07
3.61185e-07
3.61499e-07
3.61804e-07
3.62081e-07
3.62314e-07
3.60164e-07
0
0
0
0
0
0
0
0
0
0
0
0
0
0
0
0
0
0
0
0
0
0
0
0
0
0
0
0
0
0
0
0
0
0
0
0
0
0
0
0
0
0
0
0
0
0
0
0
0
0
0
0
0
0
0
0
0
0
0
0
0
0
0
0
0
0
0
0
0
0
0
0
0
0
0
0
0
0
0
0
0
0
0
0
0
0
0
0
0
0
0
0
0
0
0
0
0
0
0
0
0
0
0
0
0
0
0
0
0
0
0
0
0
0
0
0
0
0
0
0
0
0
0
0
0
0
0
0
0
0
0
0
0
0
0
0
0
0
0
0
0
0
0
0
0
0
0
0
0
0
0
0
0
0
0
0
0
0
0
0
0
0
0
0
0
0
0
0
0
0
0
0
0
0
0
0
0
0
0
0
0
0
0
0
0
0
0
0
0
0
0
0
0
0
0
0
0
0
0
0
0
0
0
0
0
0
0
0
0
0
0
0
0
0
0
0
0
0
0
0
0
0
0
0
0
0
0
0
0
0
0
0
0
0
0
0
0
0
0
0
0
0
0
0
0
0
0
0
0
0
0
0
0
0
0
0
0
0
0
0
0
0
0
0
0
0
0
0
0
0
0
0
0
0
0
0
0
0
0
0
0
0
0
0
0
0
0
0
0
0
0
0
0
0
0
0
0
0
0
0
0
0
0
0
0
0
0
0
0
0
0
0
0
0
0
0
0
0
0
0
0
0
0
0
0
0
0
0
0
0
0
0
0
0
0
0
0
0
0
0
0
0
0
0
0
0
0
0
0
0
0
0
0
0
0
0
0
0
0
0
0
0
0
0
0
0
0
0
0
0
0
0
0
0
0
0
0
0
0
0
0
0
0
0
0
0
0
0
0
0
0
0
0
0
0
0
0
0
0
0
0
0
0
0
0
0
0
0
0
0
0
0
0
0
0
0
0
0
0
0
0
0
0
0
0
0
0
0
0
0
0
0
0
0
0
0
0
0
0
0
0
0
0
0
0
0
0
0
0
0
0
0
0
0
0
0
0
0
0
0
0
0
0
0
1.24465e-07
2.10246e-07
2.09442e-07
2.09636e-07
2.09862e-07
2.10118e-07
2.10395e-07
2.10684e-07
2.10977e-07
2.11266e-07
2.11546e-07
2.1181e-07
2.12054e-07
2.12273e-07
2.12466e-07
2.12626e-07
2.13716e-07
1.27005e-07
0
0
0
1.56357e-08
2.0429e-08
1.98645e-08
1.98832e-08
1.99045e-08
1.99274e-08
1.99513e-08
1.99756e-08
1.99995e-08
2.00226e-08
2.00444e-08
2.00645e-08
2.00824e-08
2.00984e-08
2.06975e-08
1.59126e-08
0
0
0
0
0
0
0
0
0
0
0
0
0
0
0
0
0
0
0
0
0
0
0
0
0
3.5153e-06
3.54343e-06
3.54319e-06
3.5429e-06
3.5426e-06
3.54227e-06
3.54194e-06
3.54161e-06
3.54129e-06
3.54099e-06
3.54072e-06
3.54046e-06
3.54024e-06
3.51174e-06
0
0
0
0
0
0
3.6398e-06
3.6716e-06
3.67125e-06
3.67082e-06
3.67037e-06
3.66989e-06
3.66941e-06
3.66892e-06
3.66846e-06
3.66802e-06
3.66762e-06
3.66725e-06
3.66691e-06
3.63458e-06
0
0
0
0
0
0
2.74241e-06
2.76621e-06
2.76568e-06
2.76507e-06
2.76442e-06
2.76373e-06
2.76303e-06
2.76233e-06
2.76166e-06
2.76101e-06
2.76042e-06
2.75988e-06
2.75941e-06
2.73482e-06
0
0
0
0
0
0
2.71772e-06
2.74205e-06
2.7415e-06
2.74088e-06
2.74022e-06
2.73952e-06
2.73881e-06
2.73809e-06
2.73741e-06
2.73675e-06
2.73614e-06
2.73559e-06
2.73511e-06
2.70998e-06
0
0
0
0
0
0
1.98764e-06
2.00537e-06
2.00493e-06
2.00443e-06
2.0039e-06
2.00333e-06
2.00276e-06
2.00218e-06
2.00162e-06
2.00108e-06
2.00058e-06
2.00012e-06
1.99971e-06
1.98132e-06
0
0
0
0
0
0
1.8957e-06
1.91215e-06
1.91163e-06
1.91105e-06
1.91042e-06
1.90977e-06
1.9091e-06
1.90843e-06
1.90778e-06
1.90715e-06
1.90658e-06
1.90604e-06
1.90558e-06
1.88837e-06
0
0
0
0
0
0
2.06561e-06
2.08328e-06
2.0826e-06
2.08185e-06
2.08104e-06
2.08019e-06
2.07931e-06
2.07844e-06
2.07759e-06
2.07678e-06
2.07602e-06
2.07533e-06
2.07473e-06
2.05608e-06
0
0
0
0
0
0
2.00401e-06
2.02092e-06
2.02023e-06
2.01946e-06
2.01863e-06
2.01775e-06
2.01686e-06
2.01596e-06
2.0151e-06
2.01427e-06
2.01351e-06
2.01281e-06
2.01221e-06
1.99429e-06
0
0
0
0
0
0
2.9731e-06
2.99809e-06
2.99737e-06
2.99656e-06
2.99569e-06
2.99477e-06
2.99384e-06
2.9929e-06
2.99199e-06
2.99112e-06
2.99032e-06
2.98959e-06
2.98896e-06
2.96292e-06
0
0
0
0
0
0
3.0166e-06
3.04107e-06
3.04033e-06
3.03949e-06
3.03859e-06
3.03764e-06
3.03668e-06
3.03572e-06
3.0348e-06
3.03392e-06
3.03312e-06
3.03239e-06
3.03176e-06
3.00622e-06
0
0
0
0
0
0
4.52132e-06
4.5585e-06
4.55796e-06
4.55732e-06
4.55665e-06
4.55593e-06
4.55521e-06
4.55448e-06
4.5538e-06
4.55315e-06
4.55255e-06
4.55201e-06
4.55155e-06
4.51358e-06
0
0
0
0
0
0
4.66444e-06
4.70157e-06
4.70105e-06
4.70045e-06
4.69981e-06
4.69913e-06
4.69845e-06
4.69777e-06
4.69714e-06
4.69654e-06
4.696e-06
4.69552e-06
4.6951e-06
4.65725e-06
0
0
0
0
0
0
6.58648e-06
6.63779e-06
6.63797e-06
6.63811e-06
6.63827e-06
6.63841e-06
6.6386e-06
6.63877e-06
6.63899e-06
6.63919e-06
6.6394e-06
6.63959e-06
6.63974e-06
6.58869e-06
0
0
0
0
0
0
7.10203e-06
7.1556e-06
7.15601e-06
7.15636e-06
7.15675e-06
7.15714e-06
7.15757e-06
7.15795e-06
7.15844e-06
7.15886e-06
7.15929e-06
7.15967e-06
7.15995e-06
7.1069e-06
0
0
0
0
0
0
0
0
0
0
0
0
0
0
0
0
0
0
0
0
0
0
0
0
0
3.91404e-08
4.66105e-08
4.40688e-08
4.40546e-08
4.40761e-08
4.40993e-08
4.41236e-08
4.41483e-08
4.42008e-08
4.41964e-08
4.42185e-08
4.4239e-08
4.42573e-08
4.43065e-08
4.68928e-08
3.94206e-08
0
0
2.04647e-08
1.53471e-06
2.0228e-06
2.02115e-06
2.02208e-06
2.02319e-06
2.02446e-06
2.02585e-06
2.02731e-06
2.0288e-06
2.03028e-06
2.03171e-06
2.03308e-06
2.03435e-06
2.03549e-06
2.03652e-06
2.03738e-06
2.04045e-06
1.5502e-06
2.4353e-08
0
0
2.47184e-08
2.5015e-08
2.51232e-08
2.525e-08
2.53945e-08
2.55508e-08
2.57143e-08
2.5881e-08
2.6046e-08
2.62064e-08
2.63581e-08
2.64995e-08
2.6627e-08
2.6741e-08
2.68358e-08
2.67029e-08
0
0
0
0
0
0
0
0
0
0
0
0
0
0
0
0
0
0
0
0
0
0
0
0
0
0
0
0
0
0
0
0
0
0
0
0
0
0
0
0
0
0
0
0
0
3.13309e-06
3.15909e-06
3.15889e-06
3.15864e-06
3.15837e-06
3.15807e-06
3.15778e-06
3.15747e-06
3.15718e-06
3.15689e-06
3.15662e-06
3.15637e-06
3.15614e-06
3.1298e-06
0
0
0
0
0
0
3.31942e-06
3.34952e-06
3.34924e-06
3.34889e-06
3.34852e-06
3.34812e-06
3.34771e-06
3.3473e-06
3.3469e-06
3.34652e-06
3.34616e-06
3.34583e-06
3.34552e-06
3.31496e-06
0
0
0
0
0
0
2.56986e-06
2.59306e-06
2.59261e-06
2.59209e-06
2.59152e-06
2.59092e-06
2.5903e-06
2.58968e-06
2.58907e-06
2.58849e-06
2.58794e-06
2.58743e-06
2.58698e-06
2.56307e-06
0
0
0
0
0
0
2.64196e-06
2.66638e-06
2.6659e-06
2.66536e-06
2.66478e-06
2.66415e-06
2.66352e-06
2.66287e-06
2.66225e-06
2.66164e-06
2.66108e-06
2.66055e-06
2.66009e-06
2.63494e-06
0
0
0
0
0
0
1.97745e-06
1.99573e-06
1.99532e-06
1.99486e-06
1.99437e-06
1.99384e-06
1.9933e-06
1.99276e-06
1.99222e-06
1.9917e-06
1.99121e-06
1.99076e-06
1.99037e-06
1.97146e-06
0
0
0
0
0
0
1.93771e-06
1.95492e-06
1.95443e-06
1.95388e-06
1.95329e-06
1.95266e-06
1.95202e-06
1.95137e-06
1.95073e-06
1.95012e-06
1.94954e-06
1.949e-06
1.94853e-06
1.93057e-06
0
0
0
0
0
0
2.14491e-06
2.16398e-06
2.16338e-06
2.16271e-06
2.16197e-06
2.1612e-06
2.1604e-06
2.1596e-06
2.15882e-06
2.15806e-06
2.15735e-06
2.15669e-06
2.15612e-06
2.13613e-06
0
0
0
0
0
0
2.11312e-06
2.13143e-06
2.13081e-06
2.1301e-06
2.12934e-06
2.12852e-06
2.12769e-06
2.12685e-06
2.12603e-06
2.12524e-06
2.1245e-06
2.12381e-06
2.12321e-06
2.10394e-06
0
0
0
0
0
0
3.08885e-06
3.11606e-06
3.11536e-06
3.11458e-06
3.11374e-06
3.11284e-06
3.11193e-06
3.11101e-06
3.11012e-06
3.10925e-06
3.10845e-06
3.10771e-06
3.10708e-06
3.07884e-06
0
0
0
0
0
0
3.10614e-06
3.13175e-06
3.13103e-06
3.13021e-06
3.12933e-06
3.12838e-06
3.12743e-06
3.12646e-06
3.12552e-06
3.12461e-06
3.12378e-06
3.123e-06
3.12234e-06
3.09561e-06
0
0
0
0
0
0
4.48844e-06
4.52737e-06
4.5268e-06
4.52613e-06
4.52543e-06
4.52466e-06
4.5239e-06
4.52312e-06
4.5224e-06
4.52169e-06
4.52105e-06
4.52046e-06
4.51995e-06
4.48017e-06
0
0
0
0
0
0
4.46557e-06
4.50234e-06
4.50181e-06
4.50117e-06
4.5005e-06
4.49977e-06
4.49904e-06
4.4983e-06
4.4976e-06
4.49692e-06
4.4963e-06
4.49573e-06
4.49523e-06
4.45764e-06
0
0
0
0
0
0
5.93219e-06
5.98215e-06
5.98224e-06
5.98226e-06
5.9823e-06
5.98232e-06
5.98238e-06
5.98243e-06
5.98253e-06
5.98262e-06
5.98274e-06
5.98285e-06
5.98292e-06
5.93308e-06
0
0
0
0
0
0
6.11099e-06
6.15937e-06
6.15959e-06
6.1598e-06
6.16003e-06
6.16026e-06
6.16052e-06
6.16077e-06
6.16104e-06
6.16131e-06
6.16158e-06
6.16182e-06
6.16203e-06
6.11396e-06
0
0
0
0
0
0
0
0
0
0
0
0
0
0
0
0
0
0
0
0
0
0
0
0
0
1.02801e-08
1.5197e-08
1.43487e-08
1.43535e-08
1.43706e-08
1.43892e-08
1.44088e-08
1.4429e-08
1.44503e-08
1.4469e-08
1.44879e-08
1.45058e-08
1.45223e-08
1.45473e-08
1.54346e-08
1.05168e-08
0
0
0
7.97745e-07
1.17438e-06
1.17717e-06
1.17784e-06
1.17864e-06
1.17958e-06
1.18059e-06
1.18168e-06
1.18279e-06
1.18391e-06
1.18502e-06
1.18608e-06
1.18708e-06
1.18802e-06
1.18888e-06
1.18962e-06
1.18796e-06
8.09356e-07
0
0
6.10112e-08
1.23468e-07
1.23258e-07
1.23362e-07
1.23484e-07
1.23624e-07
1.23776e-07
1.23936e-07
1.24102e-07
1.24266e-07
1.24429e-07
1.24584e-07
1.2473e-07
1.24865e-07
1.24987e-07
1.2509e-07
1.25472e-07
6.23869e-08
0
0
0
4.00146e-09
7.53747e-09
6.88318e-09
6.8908e-09
6.89962e-09
6.90922e-09
6.91932e-09
6.92971e-09
6.94006e-09
6.95025e-09
6.95996e-09
6.96918e-09
6.97756e-09
6.98531e-09
7.66276e-09
4.12492e-09
0
0
0
0
0
0
0
0
0
0
0
0
0
0
0
0
0
0
0
0
0
0
0
0
0
5.99422e-06
6.04693e-06
6.04678e-06
6.04656e-06
6.04634e-06
6.04608e-06
6.04582e-06
6.04554e-06
6.04527e-06
6.04499e-06
6.04472e-06
6.04446e-06
6.0442e-06
5.99114e-06
0
0
0
0
0
0
6.08681e-06
6.14307e-06
6.14283e-06
6.14251e-06
6.14217e-06
6.14179e-06
6.14141e-06
6.141e-06
6.14062e-06
6.14023e-06
6.13986e-06
6.13951e-06
6.13916e-06
6.08242e-06
0
0
0
0
0
0
4.80805e-06
4.85373e-06
4.85332e-06
4.85282e-06
4.85229e-06
4.8517e-06
4.8511e-06
4.85048e-06
4.84988e-06
4.84928e-06
4.84871e-06
4.84817e-06
4.84769e-06
4.80128e-06
0
0
0
0
0
0
4.78597e-06
4.8318e-06
4.83134e-06
4.83081e-06
4.83024e-06
4.82962e-06
4.82898e-06
4.82833e-06
4.82769e-06
4.82706e-06
4.82647e-06
4.8259e-06
4.82541e-06
4.77884e-06
0
0
0
0
0
0
3.75806e-06
3.79392e-06
3.79348e-06
3.79298e-06
3.79243e-06
3.79185e-06
3.79125e-06
3.79063e-06
3.79002e-06
3.78942e-06
3.78886e-06
3.78832e-06
3.78785e-06
3.75127e-06
0
0
0
0
0
0
3.65541e-06
3.6889e-06
3.68837e-06
3.68777e-06
3.68713e-06
3.68644e-06
3.68573e-06
3.68501e-06
3.6843e-06
3.6836e-06
3.68294e-06
3.68231e-06
3.68175e-06
3.64739e-06
0
0
0
0
0
0
3.9322e-06
3.96813e-06
3.96751e-06
3.96681e-06
3.96606e-06
3.96525e-06
3.96442e-06
3.96357e-06
3.96274e-06
3.96192e-06
3.96116e-06
3.96044e-06
3.95982e-06
3.92292e-06
0
0
0
0
0
0
3.90435e-06
3.9398e-06
3.93918e-06
3.93847e-06
3.9377e-06
3.93688e-06
3.93603e-06
3.93516e-06
3.93431e-06
3.93347e-06
3.93269e-06
3.93195e-06
3.93131e-06
3.89485e-06
0
0
0
0
0
0
5.34112e-06
5.38986e-06
5.38916e-06
5.38835e-06
5.38749e-06
5.38656e-06
5.38562e-06
5.38465e-06
5.38372e-06
5.3828e-06
5.38196e-06
5.38117e-06
5.3805e-06
5.33069e-06
0
0
0
0
0
0
5.50926e-06
5.55834e-06
5.55763e-06
5.55681e-06
5.55593e-06
5.55498e-06
5.55402e-06
5.55303e-06
5.55207e-06
5.55111e-06
5.55024e-06
5.54941e-06
5.5487e-06
5.4985e-06
0
0
0
0
0
0
7.5881e-06
7.65598e-06
7.6554e-06
7.6547e-06
7.65398e-06
7.65317e-06
7.65239e-06
7.65157e-06
7.65081e-06
7.65005e-06
7.64938e-06
7.64874e-06
7.64819e-06
7.57942e-06
0
0
0
0
0
0
7.89611e-06
7.96453e-06
7.96402e-06
7.96338e-06
7.96272e-06
7.96198e-06
7.96125e-06
7.96048e-06
7.95976e-06
7.95904e-06
7.95839e-06
7.95777e-06
7.95722e-06
7.88791e-06
0
0
0
0
0
0
1.05143e-05
1.06058e-05
1.06059e-05
1.06059e-05
1.06059e-05
1.06059e-05
1.0606e-05
1.0606e-05
1.06062e-05
1.06063e-05
1.06065e-05
1.06066e-05
1.06067e-05
1.05154e-05
0
0
0
0
0
0
1.12361e-05
1.13315e-05
1.13318e-05
1.1332e-05
1.13324e-05
1.13327e-05
1.1333e-05
1.13334e-05
1.13337e-05
1.13341e-05
1.13345e-05
1.13348e-05
1.1335e-05
1.124e-05
0
0
0
0
0
0
0
0
0
0
0
0
0
0
0
0
0
0
0
0
0
0
0
0
0
2.77889e-08
3.3574e-08
3.16703e-08
3.16693e-08
3.16833e-08
3.16987e-08
3.1715e-08
3.17319e-08
3.17628e-08
3.17661e-08
3.17827e-08
3.17989e-08
3.18141e-08
3.18406e-08
3.37803e-08
2.79961e-08
0
0
1.58695e-08
1.26345e-06
1.70709e-06
1.70743e-06
1.70804e-06
1.70876e-06
1.70961e-06
1.71055e-06
1.71155e-06
1.7126e-06
1.71366e-06
1.71473e-06
1.71577e-06
1.71679e-06
1.71775e-06
1.71866e-06
1.71946e-06
1.72028e-06
1.27491e-06
1.86792e-08
0
0
1.66792e-08
1.67071e-08
1.67586e-08
1.68194e-08
1.68895e-08
1.69663e-08
1.70478e-08
1.7132e-08
1.72167e-08
1.73007e-08
1.73817e-08
1.74595e-08
1.75315e-08
1.75985e-08
1.76563e-08
1.77202e-08
0
0
0
0
0
0
0
0
0
0
0
0
0
0
0
0
0
0
0
0
0
0
0
0
0
0
0
0
0
0
0
0
0
0
0
0
0
0
0
0
0
0
0
0
0
5.46799e-06
5.51765e-06
5.51755e-06
5.51739e-06
5.51722e-06
5.51701e-06
5.51681e-06
5.51657e-06
5.51634e-06
5.51609e-06
5.51585e-06
5.5156e-06
5.51535e-06
5.46537e-06
0
0
0
0
0
0
5.68651e-06
5.74247e-06
5.7423e-06
5.74205e-06
5.74179e-06
5.74149e-06
5.74118e-06
5.74085e-06
5.74053e-06
5.74019e-06
5.73986e-06
5.73953e-06
5.7392e-06
5.68282e-06
0
0
0
0
0
0
4.5131e-06
4.55735e-06
4.55701e-06
4.5566e-06
4.55616e-06
4.55567e-06
4.55516e-06
4.55463e-06
4.5541e-06
4.55357e-06
4.55306e-06
4.55257e-06
4.55212e-06
4.50724e-06
0
0
0
0
0
0
4.58664e-06
4.6323e-06
4.63192e-06
4.63148e-06
4.631e-06
4.63047e-06
4.62992e-06
4.62935e-06
4.62879e-06
4.62823e-06
4.6277e-06
4.62719e-06
4.62674e-06
4.58043e-06
0
0
0
0
0
0
3.64481e-06
3.68069e-06
3.6803e-06
3.67986e-06
3.67938e-06
3.67885e-06
3.67832e-06
3.67776e-06
3.67721e-06
3.67666e-06
3.67614e-06
3.67565e-06
3.67521e-06
3.63867e-06
0
0
0
0
0
0
3.57901e-06
3.61276e-06
3.61232e-06
3.61181e-06
3.61127e-06
3.61068e-06
3.61008e-06
3.60945e-06
3.60883e-06
3.60821e-06
3.60763e-06
3.60707e-06
3.60657e-06
3.57204e-06
0
0
0
0
0
0
3.87151e-06
3.90817e-06
3.90765e-06
3.90707e-06
3.90644e-06
3.90575e-06
3.90506e-06
3.90433e-06
3.90362e-06
3.90292e-06
3.90226e-06
3.90163e-06
3.90109e-06
3.8636e-06
0
0
0
0
0
0
3.87304e-06
3.90926e-06
3.90875e-06
3.90816e-06
3.90753e-06
3.90684e-06
3.90613e-06
3.90539e-06
3.90467e-06
3.90395e-06
3.90327e-06
3.90263e-06
3.90208e-06
3.86502e-06
0
0
0
0
0
0
5.26031e-06
5.31079e-06
5.3102e-06
5.30952e-06
5.30879e-06
5.308e-06
5.30719e-06
5.30635e-06
5.30554e-06
5.30474e-06
5.304e-06
5.30331e-06
5.30272e-06
5.25131e-06
0
0
0
0
0
0
5.39842e-06
5.44968e-06
5.44912e-06
5.44845e-06
5.44774e-06
5.44695e-06
5.44616e-06
5.44532e-06
5.44451e-06
5.44369e-06
5.44293e-06
5.44222e-06
5.4416e-06
5.3894e-06
0
0
0
0
0
0
7.34532e-06
7.41479e-06
7.41431e-06
7.4137e-06
7.41308e-06
7.41238e-06
7.41169e-06
7.41097e-06
7.4103e-06
7.40962e-06
7.40902e-06
7.40844e-06
7.40795e-06
7.33769e-06
0
0
0
0
0
0
7.49718e-06
7.56529e-06
7.56489e-06
7.56437e-06
7.56383e-06
7.56321e-06
7.56261e-06
7.56196e-06
7.56135e-06
7.56072e-06
7.56015e-06
7.5596e-06
7.5591e-06
7.49024e-06
0
0
0
0
0
0
9.59044e-06
9.68203e-06
9.68213e-06
9.68214e-06
9.68219e-06
9.68219e-06
9.68226e-06
9.6823e-06
9.68243e-06
9.68252e-06
9.68267e-06
9.68278e-06
9.68286e-06
9.59137e-06
0
0
0
0
0
0
9.93403e-06
1.00257e-05
1.0026e-05
1.00263e-05
1.00267e-05
1.0027e-05
1.00273e-05
1.00276e-05
1.0028e-05
1.00284e-05
1.00287e-05
1.0029e-05
1.00292e-05
9.93791e-06
0
0
0
0
0
0
0
0
0
0
0
0
0
0
0
0
0
0
0
0
0
0
0
0
0
1.37654e-08
1.87869e-08
1.77199e-08
1.7726e-08
1.77375e-08
1.77503e-08
1.7764e-08
1.77784e-08
1.77976e-08
1.78082e-08
1.7823e-08
1.78377e-08
1.78518e-08
1.78683e-08
1.89668e-08
1.39463e-08
0
0
0
7.85105e-07
1.12972e-06
1.13118e-06
1.13161e-06
1.13213e-06
1.13274e-06
1.13343e-06
1.13417e-06
1.13495e-06
1.13575e-06
1.13657e-06
1.13738e-06
1.13819e-06
1.13896e-06
1.13971e-06
1.14039e-06
1.13984e-06
7.93828e-07
0
0
1.22439e-08
4.13453e-08
4.12432e-08
4.12833e-08
4.13305e-08
4.13855e-08
4.14461e-08
4.15108e-08
4.15785e-08
4.16471e-08
4.17161e-08
4.17834e-08
4.1849e-08
4.19103e-08
4.19683e-08
4.20184e-08
4.21971e-08
1.27497e-08
0
0
0
0
1.16652e-09
1.06303e-09
1.06761e-09
1.07297e-09
1.07887e-09
1.08515e-09
1.09173e-09
1.09836e-09
1.10506e-09
1.11155e-09
1.11793e-09
1.12389e-09
1.12964e-09
1.24951e-09
0
0
0
0
0
0
0
0
0
0
0
0
0
0
0
0
0
0
0
0
0
0
0
0
0
0
6.84012e-06
6.90517e-06
6.90509e-06
6.90496e-06
6.90482e-06
6.90464e-06
6.90446e-06
6.90423e-06
6.90402e-06
6.90377e-06
6.90353e-06
6.90325e-06
6.90298e-06
6.83761e-06
0
0
0
0
0
0
6.88861e-06
6.95789e-06
6.95775e-06
6.95754e-06
6.95732e-06
6.95704e-06
6.95677e-06
6.95645e-06
6.95615e-06
6.95581e-06
6.95548e-06
6.95513e-06
6.95479e-06
6.88508e-06
0
0
0
0
0
0
5.51025e-06
5.56585e-06
5.56556e-06
5.56521e-06
5.56483e-06
5.56439e-06
5.56394e-06
5.56345e-06
5.56297e-06
5.56246e-06
5.56198e-06
5.5615e-06
5.56106e-06
5.50487e-06
0
0
0
0
0
0
5.49347e-06
5.55013e-06
5.54982e-06
5.54944e-06
5.54903e-06
5.54857e-06
5.5481e-06
5.54759e-06
5.54709e-06
5.54657e-06
5.54608e-06
5.54561e-06
5.54519e-06
5.48797e-06
0
0
0
0
0
0
4.48389e-06
4.53008e-06
4.52973e-06
4.52933e-06
4.52889e-06
4.52841e-06
4.52792e-06
4.5274e-06
4.52689e-06
4.52637e-06
4.52589e-06
4.52542e-06
4.52501e-06
4.47821e-06
0
0
0
0
0
0
4.38426e-06
4.42724e-06
4.42687e-06
4.42645e-06
4.42601e-06
4.42551e-06
4.42501e-06
4.42448e-06
4.42396e-06
4.42342e-06
4.42293e-06
4.42244e-06
4.42202e-06
4.37838e-06
0
0
0
0
0
0
4.70138e-06
4.74778e-06
4.74737e-06
4.74688e-06
4.74637e-06
4.7458e-06
4.74522e-06
4.7446e-06
4.74401e-06
4.7434e-06
4.74285e-06
4.74232e-06
4.74188e-06
4.69479e-06
0
0
0
0
0
0
4.74199e-06
4.78866e-06
4.78826e-06
4.78779e-06
4.78729e-06
4.78672e-06
4.78615e-06
4.78554e-06
4.78495e-06
4.78434e-06
4.78379e-06
4.78326e-06
4.78282e-06
4.73549e-06
0
0
0
0
0
0
6.18634e-06
6.24872e-06
6.24826e-06
6.2477e-06
6.24711e-06
6.24645e-06
6.24578e-06
6.24507e-06
6.24438e-06
6.24369e-06
6.24305e-06
6.24245e-06
6.24194e-06
6.17879e-06
0
0
0
0
0
0
6.44532e-06
6.51053e-06
6.51008e-06
6.50955e-06
6.50898e-06
6.50832e-06
6.50767e-06
6.50695e-06
6.50627e-06
6.50556e-06
6.5049e-06
6.50427e-06
6.50373e-06
6.43773e-06
0
0
0
0
0
0
8.53494e-06
8.62033e-06
8.61995e-06
8.61947e-06
8.61897e-06
8.61839e-06
8.61784e-06
8.61723e-06
8.61667e-06
8.61609e-06
8.61557e-06
8.61507e-06
8.61464e-06
8.5286e-06
0
0
0
0
0
0
9.02554e-06
9.11498e-06
9.11469e-06
9.1143e-06
9.11391e-06
9.11342e-06
9.11295e-06
9.11243e-06
9.11194e-06
9.11142e-06
9.11095e-06
9.11047e-06
9.11004e-06
9.01999e-06
0
0
0
0
0
0
1.14527e-05
1.1566e-05
1.15661e-05
1.15662e-05
1.15663e-05
1.15663e-05
1.15665e-05
1.15665e-05
1.15667e-05
1.15668e-05
1.1567e-05
1.15671e-05
1.15672e-05
1.1454e-05
0
0
0
0
0
0
1.21723e-05
1.22923e-05
1.22926e-05
1.22929e-05
1.22933e-05
1.22936e-05
1.2294e-05
1.22945e-05
1.22948e-05
1.22952e-05
1.22956e-05
1.22959e-05
1.22961e-05
1.21765e-05
0
0
0
0
0
0
0
0
0
0
0
0
0
0
0
0
0
0
0
0
0
0
0
0
0
2.27956e-08
2.8165e-08
2.6529e-08
2.65169e-08
2.65269e-08
2.65381e-08
2.65502e-08
2.65632e-08
2.6584e-08
2.65907e-08
2.66049e-08
2.66194e-08
2.66337e-08
2.66655e-08
2.83328e-08
2.29674e-08
0
0
0
9.88675e-07
1.37777e-06
1.37887e-06
1.37925e-06
1.37971e-06
1.38026e-06
1.38088e-06
1.38156e-06
1.38229e-06
1.38305e-06
1.38384e-06
1.38464e-06
1.38545e-06
1.38624e-06
1.38702e-06
1.38773e-06
1.38755e-06
9.97175e-07
0
0
0
2.64968e-09
2.66193e-09
2.67915e-09
2.69963e-09
2.72325e-09
2.74977e-09
2.77791e-09
2.80798e-09
2.83834e-09
2.86967e-09
2.90021e-09
2.93082e-09
2.95957e-09
2.98731e-09
3.01098e-09
3.0336e-09
0
0
0
0
0
0
0
0
0
0
0
0
0
0
0
0
0
0
0
0
0
0
0
0
0
0
0
0
0
0
0
0
0
0
0
0
0
0
0
0
0
0
0
0
0
6.38651e-06
6.45092e-06
6.45086e-06
6.45075e-06
6.45063e-06
6.45046e-06
6.4503e-06
6.45009e-06
6.44989e-06
6.44965e-06
6.44941e-06
6.44913e-06
6.44886e-06
6.38414e-06
0
0
0
0
0
0
6.54776e-06
6.61673e-06
6.61659e-06
6.61639e-06
6.61618e-06
6.61591e-06
6.61564e-06
6.61533e-06
6.61502e-06
6.61467e-06
6.61433e-06
6.61397e-06
6.61361e-06
6.54422e-06
0
0
0
0
0
0
5.3989e-06
5.45566e-06
5.45543e-06
5.45515e-06
5.45483e-06
5.45447e-06
5.45409e-06
5.45367e-06
5.45326e-06
5.45281e-06
5.45238e-06
5.45195e-06
5.45155e-06
5.39429e-06
0
0
0
0
0
0
5.47625e-06
5.53479e-06
5.53454e-06
5.53422e-06
5.53388e-06
5.53349e-06
5.53308e-06
5.53264e-06
5.5322e-06
5.53175e-06
5.53131e-06
5.53088e-06
5.53051e-06
5.47147e-06
0
0
0
0
0
0
4.55069e-06
4.59948e-06
4.59919e-06
4.59885e-06
4.59849e-06
4.59809e-06
4.59767e-06
4.59723e-06
4.5968e-06
4.59635e-06
4.59594e-06
4.59553e-06
4.59519e-06
4.5459e-06
0
0
0
0
0
0
4.4812e-06
4.52684e-06
4.52657e-06
4.52624e-06
4.52591e-06
4.52552e-06
4.52513e-06
4.52471e-06
4.5243e-06
4.52388e-06
4.52349e-06
4.52311e-06
4.5228e-06
4.47666e-06
0
0
0
0
0
0
4.80708e-06
4.85657e-06
4.85626e-06
4.85589e-06
4.85549e-06
4.85504e-06
4.85459e-06
4.85409e-06
4.85362e-06
4.85312e-06
4.85267e-06
4.85224e-06
4.85189e-06
4.80186e-06
0
0
0
0
0
0
4.87866e-06
4.9288e-06
4.92851e-06
4.92816e-06
4.9278e-06
4.92737e-06
4.92694e-06
4.92647e-06
4.92602e-06
4.92554e-06
4.92511e-06
4.9247e-06
4.92437e-06
4.87376e-06
0
0
0
0
0
0
6.26763e-06
6.33353e-06
6.33319e-06
6.33277e-06
6.33233e-06
6.33181e-06
6.3313e-06
6.33073e-06
6.33019e-06
6.32962e-06
6.32909e-06
6.32858e-06
6.32815e-06
6.26164e-06
0
0
0
0
0
0
6.49909e-06
6.56714e-06
6.56684e-06
6.56647e-06
6.56606e-06
6.56559e-06
6.56511e-06
6.56457e-06
6.56405e-06
6.5635e-06
6.56299e-06
6.56249e-06
6.56205e-06
6.49338e-06
0
0
0
0
0
0
8.39171e-06
8.48109e-06
8.48086e-06
8.48053e-06
8.48021e-06
8.4798e-06
8.47942e-06
8.47897e-06
8.47857e-06
8.47812e-06
8.47773e-06
8.47731e-06
8.47695e-06
8.38707e-06
0
0
0
0
0
0
8.68247e-06
8.77417e-06
8.77405e-06
8.77384e-06
8.77364e-06
8.77336e-06
8.7731e-06
8.77278e-06
8.77248e-06
8.77214e-06
8.77183e-06
8.77149e-06
8.77116e-06
8.67904e-06
0
0
0
0
0
0
1.06373e-05
1.0752e-05
1.07522e-05
1.07523e-05
1.07524e-05
1.07525e-05
1.07526e-05
1.07527e-05
1.07529e-05
1.0753e-05
1.07532e-05
1.07532e-05
1.07532e-05
1.06385e-05
0
0
0
0
0
0
1.11009e-05
1.12188e-05
1.12192e-05
1.12195e-05
1.12198e-05
1.12202e-05
1.12206e-05
1.12209e-05
1.12213e-05
1.12217e-05
1.1222e-05
1.12223e-05
1.12224e-05
1.11047e-05
0
0
0
0
0
0
0
0
0
0
0
0
0
0
0
0
0
0
0
0
0
0
0
0
0
1.47299e-08
1.93647e-08
1.81731e-08
1.81758e-08
1.81839e-08
1.8193e-08
1.8203e-08
1.82139e-08
1.82272e-08
1.82374e-08
1.82498e-08
1.82626e-08
1.82753e-08
1.82887e-08
1.95046e-08
1.48765e-08
0
0
0
7.75585e-07
1.11238e-06
1.11374e-06
1.11404e-06
1.1144e-06
1.11484e-06
1.11535e-06
1.1159e-06
1.1165e-06
1.11714e-06
1.1178e-06
1.11849e-06
1.11919e-06
1.11988e-06
1.12056e-06
1.12117e-06
1.12059e-06
7.82694e-07
0
0
0
9.79541e-09
9.71554e-09
9.72644e-09
9.73951e-09
9.75447e-09
9.77159e-09
9.78964e-09
9.80944e-09
9.82932e-09
9.85042e-09
9.87082e-09
9.89176e-09
9.91092e-09
9.92937e-09
9.94389e-09
1.00449e-08
0
0
0
0
0
0
0
0
0
0
0
0
0
0
0
0
0
0
0
0
0
0
0
0
0
0
0
0
0
0
0
0
0
0
0
0
0
0
0
0
0
0
0
0
0
7.04987e-06
7.12329e-06
7.12323e-06
7.12312e-06
7.12301e-06
7.12284e-06
7.12268e-06
7.12247e-06
7.12227e-06
7.12201e-06
7.12176e-06
7.12147e-06
7.12121e-06
7.04746e-06
0
0
0
0
0
0
7.13379e-06
7.21077e-06
7.21065e-06
7.21045e-06
7.21024e-06
7.20998e-06
7.20972e-06
7.20941e-06
7.2091e-06
7.20875e-06
7.2084e-06
7.20802e-06
7.20765e-06
7.13023e-06
0
0
0
0
0
0
5.88079e-06
5.94392e-06
5.94373e-06
5.94348e-06
5.9432e-06
5.94288e-06
5.94254e-06
5.94217e-06
5.94178e-06
5.94137e-06
5.94097e-06
5.94056e-06
5.94018e-06
5.87658e-06
0
0
0
0
0
0
5.91271e-06
5.97736e-06
5.97714e-06
5.97686e-06
5.97657e-06
5.97622e-06
5.97586e-06
5.97547e-06
5.97508e-06
5.97467e-06
5.97427e-06
5.97387e-06
5.97352e-06
5.90843e-06
0
0
0
0
0
0
4.95364e-06
5.00949e-06
5.00927e-06
5.009e-06
5.00873e-06
5.0084e-06
5.00808e-06
5.00772e-06
5.00737e-06
5.00701e-06
5.00669e-06
5.00638e-06
5.00612e-06
4.9499e-06
0
0
0
0
0
0
4.88271e-06
4.93485e-06
4.93467e-06
4.93444e-06
4.93422e-06
4.93394e-06
4.93367e-06
4.93336e-06
4.93308e-06
4.93277e-06
4.93251e-06
4.93225e-06
4.93207e-06
4.87964e-06
0
0
0
0
0
0
5.20832e-06
5.26458e-06
5.26436e-06
5.26407e-06
5.26378e-06
5.26343e-06
5.26308e-06
5.26268e-06
5.26232e-06
5.26191e-06
5.26156e-06
5.26121e-06
5.26094e-06
5.20429e-06
0
0
0
0
0
0
5.32056e-06
5.37881e-06
5.37861e-06
5.37835e-06
5.37808e-06
5.37775e-06
5.37743e-06
5.37706e-06
5.37671e-06
5.37633e-06
5.376e-06
5.37567e-06
5.37542e-06
5.31681e-06
0
0
0
0
0
0
6.71986e-06
6.79306e-06
6.79282e-06
6.79251e-06
6.79218e-06
6.79179e-06
6.79139e-06
6.79094e-06
6.79051e-06
6.79005e-06
6.78962e-06
6.78919e-06
6.78882e-06
6.71513e-06
0
0
0
0
0
0
7.04102e-06
7.11755e-06
7.11735e-06
7.11708e-06
7.1168e-06
7.11646e-06
7.11611e-06
7.11571e-06
7.11533e-06
7.11491e-06
7.11452e-06
7.11412e-06
7.11378e-06
7.03677e-06
0
0
0
0
0
0
8.95949e-06
9.05903e-06
9.0589e-06
9.05868e-06
9.05847e-06
9.05819e-06
9.05792e-06
9.05759e-06
9.05729e-06
9.05693e-06
9.0566e-06
9.05624e-06
9.0559e-06
8.95593e-06
0
0
0
0
0
0
9.43516e-06
9.53998e-06
9.53994e-06
9.53984e-06
9.53975e-06
9.5396e-06
9.53947e-06
9.53928e-06
9.53911e-06
9.53888e-06
9.53867e-06
9.53842e-06
9.53818e-06
9.43307e-06
0
0
0
0
0
0
1.15677e-05
1.16982e-05
1.16984e-05
1.16985e-05
1.16987e-05
1.16988e-05
1.16989e-05
1.16991e-05
1.16992e-05
1.16993e-05
1.16994e-05
1.16994e-05
1.16994e-05
1.15689e-05
0
0
0
0
0
0
1.22068e-05
1.23439e-05
1.23442e-05
1.23445e-05
1.23449e-05
1.23452e-05
1.23456e-05
1.23461e-05
1.23464e-05
1.23468e-05
1.23471e-05
1.23474e-05
1.23476e-05
1.22107e-05
0
0
0
0
0
0
0
0
0
0
0
0
0
0
0
0
0
0
0
0
0
0
0
0
0
2.14492e-08
2.6817e-08
2.51094e-08
2.5107e-08
2.51141e-08
2.51223e-08
2.51314e-08
2.51413e-08
2.51553e-08
2.51633e-08
2.5175e-08
2.51871e-08
2.51992e-08
2.52156e-08
2.69386e-08
2.15836e-08
0
0
0
9.08411e-07
1.27334e-06
1.27427e-06
1.27453e-06
1.27483e-06
1.27521e-06
1.27564e-06
1.27612e-06
1.27665e-06
1.27721e-06
1.27781e-06
1.27842e-06
1.27905e-06
1.27967e-06
1.28027e-06
1.2808e-06
1.28053e-06
9.14623e-07
0
0
0
0
0
0
0
0
0
0
0
0
0
0
0
0
0
0
0
0
0
0
0
0
0
0
0
0
0
0
0
0
0
0
0
0
0
0
0
0
0
0
0
0
0
0
0
0
0
0
0
0
0
0
0
0
0
0
0
0
0
0
0
0
6.83745e-06
6.91198e-06
6.91189e-06
6.91177e-06
6.91164e-06
6.91146e-06
6.91129e-06
6.91107e-06
6.91086e-06
6.9106e-06
6.91035e-06
6.91007e-06
6.90985e-06
6.835e-06
0
0
0
0
0
0
6.97171e-06
7.04964e-06
7.0495e-06
7.04929e-06
7.04907e-06
7.0488e-06
7.04852e-06
7.0482e-06
7.04788e-06
7.04752e-06
7.04717e-06
7.0468e-06
7.04644e-06
6.96809e-06
0
0
0
0
0
0
5.91894e-06
5.9852e-06
5.98503e-06
5.98481e-06
5.98456e-06
5.98428e-06
5.98398e-06
5.98365e-06
5.9833e-06
5.98294e-06
5.98258e-06
5.98222e-06
5.98188e-06
5.9152e-06
0
0
0
0
0
0
6.01293e-06
6.08163e-06
6.08144e-06
6.0812e-06
6.08094e-06
6.08064e-06
6.08032e-06
6.07998e-06
6.07963e-06
6.07926e-06
6.07891e-06
6.07856e-06
6.07825e-06
6.00915e-06
0
0
0
0
0
0
5.10696e-06
5.1662e-06
5.16602e-06
5.1658e-06
5.16558e-06
5.1653e-06
5.16504e-06
5.16474e-06
5.16446e-06
5.16416e-06
5.16389e-06
5.16363e-06
5.16343e-06
5.10388e-06
0
0
0
0
0
0
5.05931e-06
5.11494e-06
5.11482e-06
5.11466e-06
5.1145e-06
5.1143e-06
5.11411e-06
5.11388e-06
5.11368e-06
5.11345e-06
5.11327e-06
5.11309e-06
5.11299e-06
5.05717e-06
0
0
0
0
0
0
5.38514e-06
5.44501e-06
5.44485e-06
5.44465e-06
5.44444e-06
5.44417e-06
5.44392e-06
5.44361e-06
5.44333e-06
5.44301e-06
5.44275e-06
5.44247e-06
5.44227e-06
5.38211e-06
0
0
0
0
0
0
5.53056e-06
5.59313e-06
5.59299e-06
5.59281e-06
5.59262e-06
5.59239e-06
5.59215e-06
5.59188e-06
5.59162e-06
5.59134e-06
5.5911e-06
5.59085e-06
5.59066e-06
5.52782e-06
0
0
0
0
0
0
6.89762e-06
6.97673e-06
6.97657e-06
6.97636e-06
6.97614e-06
6.97585e-06
6.97557e-06
6.97522e-06
6.9749e-06
6.97454e-06
6.97421e-06
6.97385e-06
6.97355e-06
6.89404e-06
0
0
0
0
0
0
7.24605e-06
7.32935e-06
7.32924e-06
7.32908e-06
7.32892e-06
7.3287e-06
7.32849e-06
7.32823e-06
7.32798e-06
7.32769e-06
7.32742e-06
7.32713e-06
7.32689e-06
7.24325e-06
0
0
0
0
0
0
8.96092e-06
9.06734e-06
9.06729e-06
9.06718e-06
9.06708e-06
9.06691e-06
9.06676e-06
9.06653e-06
9.06632e-06
9.06604e-06
9.06577e-06
9.06546e-06
9.06515e-06
8.95837e-06
0
0
0
0
0
0
9.36947e-06
9.48117e-06
9.48122e-06
9.48123e-06
9.48126e-06
9.48124e-06
9.48123e-06
9.48116e-06
9.4811e-06
9.48099e-06
9.48088e-06
9.48072e-06
9.48057e-06
9.36872e-06
0
0
0
0
0
0
1.10871e-05
1.12218e-05
1.12221e-05
1.12223e-05
1.12225e-05
1.12227e-05
1.1223e-05
1.12232e-05
1.12234e-05
1.12235e-05
1.12236e-05
1.12236e-05
1.12236e-05
1.1089e-05
0
0
0
0
0
0
1.15833e-05
1.17242e-05
1.17246e-05
1.1725e-05
1.17255e-05
1.17259e-05
1.17264e-05
1.17269e-05
1.17274e-05
1.17278e-05
1.17281e-05
1.17285e-05
1.17287e-05
1.15882e-05
0
0
0
0
0
0
0
0
0
0
0
0
0
0
0
0
0
0
0
0
0
0
0
0
0
1.66235e-08
2.18096e-08
2.01941e-08
2.01931e-08
2.01989e-08
2.02055e-08
2.02132e-08
2.02215e-08
2.02319e-08
2.02402e-08
2.02503e-08
2.02604e-08
2.02703e-08
2.02829e-08
2.18901e-08
1.67337e-08
0
0
0
7.8338e-07
1.12974e-06
1.13151e-06
1.13172e-06
1.13196e-06
1.13226e-06
1.1326e-06
1.133e-06
1.13344e-06
1.13391e-06
1.1344e-06
1.13492e-06
1.13544e-06
1.13595e-06
1.13644e-06
1.13685e-06
1.13558e-06
7.88388e-07
0
0
0
0
0
0
0
0
0
0
0
0
0
0
0
0
0
0
0
0
0
0
0
0
0
0
0
0
0
0
0
0
0
0
0
0
0
0
0
0
0
0
0
0
0
0
0
0
0
0
0
0
0
0
0
0
0
0
0
0
0
0
0
0
7.16167e-06
7.24192e-06
7.24181e-06
7.24169e-06
7.24156e-06
7.24138e-06
7.24121e-06
7.24099e-06
7.24078e-06
7.24054e-06
7.24031e-06
7.24007e-06
7.23992e-06
7.15937e-06
0
0
0
0
0
0
7.26071e-06
7.34395e-06
7.3438e-06
7.3436e-06
7.34337e-06
7.34311e-06
7.34283e-06
7.34252e-06
7.3422e-06
7.34186e-06
7.34153e-06
7.34119e-06
7.34087e-06
7.25726e-06
0
0
0
0
0
0
6.18229e-06
6.25341e-06
6.25324e-06
6.25301e-06
6.25277e-06
6.25249e-06
6.25219e-06
6.25187e-06
6.25153e-06
6.25119e-06
6.25084e-06
6.2505e-06
6.25019e-06
6.17867e-06
0
0
0
0
0
0
6.25895e-06
6.33279e-06
6.33261e-06
6.33238e-06
6.33215e-06
6.33186e-06
6.33157e-06
6.33124e-06
6.33093e-06
6.33058e-06
6.33026e-06
6.32994e-06
6.32966e-06
6.25543e-06
0
0
0
0
0
0
5.35449e-06
5.41819e-06
5.41805e-06
5.41786e-06
5.41768e-06
5.41744e-06
5.41723e-06
5.41696e-06
5.41673e-06
5.41647e-06
5.41625e-06
5.41602e-06
5.41584e-06
5.35184e-06
0
0
0
0
0
0
5.31811e-06
5.37801e-06
5.37793e-06
5.37781e-06
5.37771e-06
5.37756e-06