/*--------------------------------*- C++ -*----------------------------------*\
| =========                 |                                                 |
| \\      /  F ield         | OpenFOAM: The Open Source CFD Toolbox           |
|  \\    /   O peration     | Version:  2212                                  |
|   \\  /    A nd           | Website:  www.openfoam.com                      |
|    \\/     M anipulation  |                                                 |
\*---------------------------------------------------------------------------*/
FoamFile
{
    version     2.0;
    format      ascii;
    arch        "LSB;label=32;scalar=64";
    class       volVectorField;
    location    "0.48";
    object      U_0;
}
// * * * * * * * * * * * * * * * * * * * * * * * * * * * * * * * * * * * * * //

dimensions      [0 1 -1 0 0 0 0];

internalField   nonuniform List<vector> 
24240
(
(8.98958 0.768288 7.34237e-07)
(8.98988 0.768316 -7.79872e-07)
(8.98988 0.768314 5.68346e-07)
(8.98988 0.768312 3.78473e-07)
(8.98988 0.76831 1.02692e-06)
(8.98987 0.768307 1.09275e-06)
(8.98987 0.768304 1.40068e-06)
(8.98987 0.768301 1.44918e-06)
(8.98986 0.768297 1.56987e-06)
(8.98986 0.768294 1.54719e-06)
(8.98985 0.76829 1.55869e-06)
(8.98985 0.768287 1.45515e-06)
(8.98985 0.768284 1.42251e-06)
(8.98984 0.768281 1.24032e-06)
(8.98984 0.768279 1.26298e-06)
(8.98984 0.768276 9.66231e-07)
(8.98984 0.768275 1.23321e-06)
(8.98984 0.768273 5.9654e-07)
(8.98984 0.768273 1.49416e-06)
(8.98953 0.768245 -5.3294e-07)
(8.99849 0.771101 -1.43454e-06)
(8.9988 0.77113 -2.09142e-06)
(8.99879 0.77113 -2.35604e-06)
(8.99879 0.771131 -3.17068e-06)
(8.99879 0.771132 -3.5148e-06)
(8.99879 0.771133 -4.06582e-06)
(8.99878 0.771134 -4.31238e-06)
(8.99878 0.771136 -4.57797e-06)
(8.99878 0.771137 -4.62469e-06)
(8.99878 0.771139 -4.63001e-06)
(8.99877 0.771141 -4.45865e-06)
(8.99877 0.771142 -4.24717e-06)
(8.99877 0.771143 -3.86799e-06)
(8.99876 0.771144 -3.51002e-06)
(8.99876 0.771146 -2.942e-06)
(8.99876 0.771146 -2.52631e-06)
(8.99876 0.771147 -1.71805e-06)
(8.99876 0.771148 -1.2788e-06)
(8.99876 0.771149 -1.08826e-07)
(8.99845 0.77112 6.94564e-07)
(9.02077 0.552884 -5.94072e-07)
(9.02108 0.552904 4.74755e-07)
(9.02108 0.552903 1.5389e-06)
(9.02108 0.552903 2.18534e-06)
(9.02108 0.552901 3.26591e-06)
(9.02108 0.5529 3.71225e-06)
(9.02108 0.552898 4.2258e-06)
(9.02108 0.552897 4.41562e-06)
(9.02108 0.552895 4.55686e-06)
(9.02108 0.552893 4.49295e-06)
(9.02109 0.552892 4.37442e-06)
(9.02109 0.55289 4.10202e-06)
(9.02109 0.552889 3.83123e-06)
(9.02109 0.552887 3.40846e-06)
(9.02109 0.552886 3.13138e-06)
(9.02109 0.552885 2.59604e-06)
(9.02109 0.552885 2.57062e-06)
(9.02109 0.552884 1.9457e-06)
(9.02109 0.552883 1.67969e-06)
(9.02078 0.552863 1.29926e-06)
(9.00143 0.547222 -1.33258e-06)
(9.00174 0.547242 -2.66897e-06)
(9.00174 0.547242 -3.41843e-06)
(9.00174 0.547242 -4.61445e-06)
(9.00174 0.547241 -5.63699e-06)
(9.00174 0.547242 -6.45822e-06)
(9.00174 0.547241 -6.98493e-06)
(9.00174 0.547241 -7.35716e-06)
(9.00174 0.547241 -7.45885e-06)
(9.00174 0.547241 -7.41047e-06)
(9.00173 0.547241 -7.13621e-06)
(9.00173 0.547241 -6.74562e-06)
(9.00173 0.547241 -6.16854e-06)
(9.00173 0.547241 -5.54604e-06)
(9.00173 0.547241 -4.76827e-06)
(9.00173 0.547241 -4.02798e-06)
(9.00173 0.547241 -3.20727e-06)
(9.00173 0.547241 -2.36574e-06)
(9.00173 0.547241 -8.33574e-07)
(9.00142 0.547221 1.64566e-07)
(9.02217 0.348251 -3.41383e-07)
(9.02248 0.348264 5.5651e-07)
(9.02248 0.348264 1.79493e-06)
(9.02248 0.348265 2.49375e-06)
(9.02248 0.348266 3.13364e-06)
(9.02249 0.348267 3.59475e-06)
(9.02249 0.348268 4.00866e-06)
(9.02249 0.348269 4.20782e-06)
(9.02249 0.34827 4.33529e-06)
(9.0225 0.348271 4.28767e-06)
(9.0225 0.348273 4.18135e-06)
(9.0225 0.348274 3.934e-06)
(9.0225 0.348275 3.67114e-06)
(9.0225 0.348276 3.28084e-06)
(9.02251 0.348276 2.94095e-06)
(9.02251 0.348277 2.45509e-06)
(9.02251 0.348278 2.04453e-06)
(9.02251 0.348278 1.50243e-06)
(9.02251 0.348278 1.49266e-06)
(9.0222 0.348265 1.03877e-06)
(9.0086 0.339021 -1.05635e-06)
(9.00891 0.339034 -2.03696e-06)
(9.00891 0.339033 -2.69405e-06)
(9.00891 0.339032 -3.52769e-06)
(9.00891 0.339031 -4.05614e-06)
(9.00891 0.33903 -4.61712e-06)
(9.00891 0.339028 -4.94154e-06)
(9.00891 0.339027 -5.19004e-06)
(9.00891 0.339025 -5.23539e-06)
(9.00891 0.339024 -5.18865e-06)
(9.00891 0.339022 -4.96971e-06)
(9.00892 0.339021 -4.68336e-06)
(9.00892 0.339019 -4.24702e-06)
(9.00892 0.339018 -3.79807e-06)
(9.00892 0.339017 -3.19656e-06)
(9.00892 0.339016 -2.66532e-06)
(9.00892 0.339016 -1.88927e-06)
(9.00892 0.339015 -1.31552e-06)
(9.00892 0.339015 -3.77538e-07)
(9.00861 0.339002 2.56594e-07)
(9.01909 0.155535 -5.51798e-07)
(9.0194 0.155541 -2.12539e-07)
(9.0194 0.155542 4.55147e-07)
(9.0194 0.155544 7.12448e-07)
(9.0194 0.155546 9.88773e-07)
(9.01941 0.155549 1.16177e-06)
(9.01941 0.155551 1.34792e-06)
(9.01941 0.155554 1.42747e-06)
(9.01941 0.155557 1.50821e-06)
(9.01941 0.15556 1.49898e-06)
(9.01942 0.155563 1.49543e-06)
(9.01942 0.155566 1.41312e-06)
(9.01942 0.155569 1.35844e-06)
(9.01942 0.155571 1.22229e-06)
(9.01942 0.155573 1.14879e-06)
(9.01943 0.155575 9.75578e-07)
(9.01943 0.155577 8.9416e-07)
(9.01943 0.155578 6.96265e-07)
(9.01943 0.155578 9.4185e-07)
(9.01912 0.155573 7.91262e-07)
(9.01686 0.142094 -5.69165e-07)
(9.01717 0.142098 -5.97725e-07)
(9.01717 0.142097 -3.80766e-07)
(9.01717 0.142095 -3.85439e-07)
(9.01717 0.142093 -2.00719e-07)
(9.01717 0.142091 -1.7974e-07)
(9.01717 0.142089 -7.23878e-08)
(9.01717 0.142086 -3.94568e-08)
(9.01717 0.142083 4.37884e-08)
(9.01718 0.14208 7.73522e-08)
(9.01718 0.142078 1.51823e-07)
(9.01718 0.142075 1.79098e-07)
(9.01718 0.142073 2.60863e-07)
(9.01718 0.142071 2.77611e-07)
(9.01718 0.142069 3.88019e-07)
(9.01718 0.142067 3.88513e-07)
(9.01718 0.142066 5.80154e-07)
(9.01718 0.142065 5.32863e-07)
(9.01718 0.142064 7.35897e-07)
(9.01687 0.142059 6.12414e-07)
(9.01846 -0.0314689 -9.34524e-07)
(9.01877 -0.0314705 -1.5289e-06)
(9.01877 -0.03147 -1.81359e-06)
(9.01877 -0.0314688 -2.31473e-06)
(9.01878 -0.0314678 -2.61606e-06)
(9.01878 -0.0314665 -2.95899e-06)
(9.01878 -0.0314651 -3.1411e-06)
(9.01878 -0.0314636 -3.29924e-06)
(9.01879 -0.031462 -3.31816e-06)
(9.01879 -0.0314605 -3.29442e-06)
(9.01879 -0.0314589 -3.14978e-06)
(9.0188 -0.0314575 -2.97742e-06)
(9.0188 -0.0314561 -2.69002e-06)
(9.0188 -0.0314549 -2.41199e-06)
(9.0188 -0.0314538 -2.00595e-06)
(9.01881 -0.0314529 -1.6643e-06)
(9.01881 -0.0314521 -1.13183e-06)
(9.01881 -0.0314518 -7.55552e-07)
(9.01881 -0.0314513 -1.6898e-08)
(9.0185 -0.0314493 4.11974e-07)
(9.02972 -0.0469187 -3.73815e-07)
(9.03004 -0.0469225 1.47191e-07)
(9.03004 -0.0469241 9.3921e-07)
(9.03004 -0.0469267 1.3914e-06)
(9.03004 -0.0469296 1.89529e-06)
(9.03004 -0.046933 2.21786e-06)
(9.03005 -0.0469369 2.52063e-06)
(9.03005 -0.046941 2.68235e-06)
(9.03005 -0.0469453 2.80574e-06)
(9.03006 -0.0469496 2.81382e-06)
(9.03006 -0.0469538 2.79508e-06)
(9.03006 -0.0469577 2.68064e-06)
(9.03006 -0.0469615 2.56763e-06)
(9.03007 -0.0469648 2.36773e-06)
(9.03007 -0.0469677 2.20696e-06)
(9.03007 -0.0469702 1.93805e-06)
(9.03007 -0.0469722 1.76089e-06)
(9.03007 -0.0469734 1.39594e-06)
(9.03007 -0.0469744 1.28428e-06)
(9.02976 -0.0469719 8.22779e-07)
(9.02244 -0.222251 -1.53793e-06)
(9.02275 -0.22226 -3.56218e-06)
(9.02275 -0.222259 -5.22778e-06)
(9.02275 -0.222258 -6.89634e-06)
(9.02276 -0.222256 -8.11916e-06)
(9.02276 -0.222254 -9.25898e-06)
(9.02276 -0.222252 -1.00137e-05)
(9.02276 -0.222249 -1.05376e-05)
(9.02277 -0.222247 -1.0708e-05)
(9.02277 -0.222244 -1.06258e-05)
(9.02277 -0.222241 -1.02367e-05)
(9.02278 -0.222239 -9.64595e-06)
(9.02278 -0.222237 -8.8056e-06)
(9.02278 -0.222235 -7.85396e-06)
(9.02278 -0.222233 -6.68742e-06)
(9.02278 -0.222231 -5.53274e-06)
(9.02279 -0.22223 -4.08977e-06)
(9.02279 -0.222229 -2.84453e-06)
(9.02279 -0.222228 -1.30741e-06)
(9.02248 -0.222218 -8.11713e-08)
(9.04798 -0.234665 -1.70613e-08)
(9.04829 -0.234676 1.2726e-06)
(9.04829 -0.234677 2.88344e-06)
(9.04829 -0.23468 4.01101e-06)
(9.04829 -0.234682 5.01425e-06)
(9.0483 -0.234684 5.81314e-06)
(9.0483 -0.234687 6.46e-06)
(9.0483 -0.23469 6.86893e-06)
(9.0483 -0.234693 7.11298e-06)
(9.04831 -0.234696 7.12979e-06)
(9.04831 -0.234699 7.00446e-06)
(9.04831 -0.234701 6.68727e-06)
(9.04831 -0.234704 6.27607e-06)
(9.04831 -0.234707 5.71629e-06)
(9.04832 -0.234709 5.11336e-06)
(9.04832 -0.23471 4.38692e-06)
(9.04832 -0.234712 3.632e-06)
(9.04832 -0.234712 2.74446e-06)
(9.04832 -0.234713 2.15271e-06)
(9.04801 -0.234703 1.13179e-06)
(9.03129 -0.422515 -2.01432e-06)
(9.0316 -0.422532 -4.99677e-06)
(9.03161 -0.422532 -7.63934e-06)
(9.03161 -0.422531 -1.01299e-05)
(9.03161 -0.422529 -1.19634e-05)
(9.03161 -0.422528 -1.36914e-05)
(9.03161 -0.422527 -1.48749e-05)
(9.03162 -0.422525 -1.56928e-05)
(9.03162 -0.422524 -1.60024e-05)
(9.03162 -0.422522 -1.59083e-05)
(9.03162 -0.42252 -1.53679e-05)
(9.03163 -0.422519 -1.44946e-05)
(9.03163 -0.422517 -1.32676e-05)
(9.03163 -0.422516 -1.18357e-05)
(9.03163 -0.422515 -1.0117e-05)
(9.03163 -0.422514 -8.36955e-06)
(9.03164 -0.422513 -6.20798e-06)
(9.03164 -0.422513 -4.32496e-06)
(9.03164 -0.422513 -2.19342e-06)
(9.03133 -0.422495 -3.58135e-07)
(9.06804 -0.430174 1.91538e-07)
(9.06835 -0.430193 1.9646e-06)
(9.06835 -0.430193 4.14802e-06)
(9.06835 -0.430195 5.68234e-06)
(9.06835 -0.430196 6.92812e-06)
(9.06836 -0.430197 8.00977e-06)
(9.06836 -0.430199 8.87002e-06)
(9.06836 -0.4302 9.42965e-06)
(9.06836 -0.430202 9.75557e-06)
(9.06837 -0.430203 9.7757e-06)
(9.06837 -0.430205 9.58663e-06)
(9.06837 -0.430207 9.1377e-06)
(9.06837 -0.430208 8.54118e-06)
(9.06837 -0.430209 7.74997e-06)
(9.06838 -0.43021 6.86941e-06)
(9.06838 -0.430211 5.84797e-06)
(9.06838 -0.430212 4.67718e-06)
(9.06838 -0.430212 3.46215e-06)
(9.06838 -0.430212 2.6696e-06)
(9.06807 -0.430194 1.33394e-06)
(9.04142 -0.638119 -2.28024e-06)
(9.04173 -0.638145 -5.74482e-06)
(9.04173 -0.638145 -8.8754e-06)
(9.04173 -0.638144 -1.18217e-05)
(9.04173 -0.638144 -1.4023e-05)
(9.04173 -0.638144 -1.61066e-05)
(9.04173 -0.638144 -1.7568e-05)
(9.04173 -0.638144 -1.85739e-05)
(9.04174 -0.638144 -1.89755e-05)
(9.04174 -0.638144 -1.88842e-05)
(9.04174 -0.638144 -1.8257e-05)
(9.04174 -0.638144 -1.72237e-05)
(9.04174 -0.638144 -1.57738e-05)
(9.04174 -0.638144 -1.40714e-05)
(9.04174 -0.638144 -1.2061e-05)
(9.04175 -0.638144 -9.99083e-06)
(9.04175 -0.638144 -7.44754e-06)
(9.04175 -0.638145 -5.20205e-06)
(9.04175 -0.638145 -2.63938e-06)
(9.04143 -0.63812 -4.52249e-07)
(9.08263 -0.639987 1.30773e-07)
(9.08294 -0.640012 1.961e-06)
(9.08294 -0.640012 4.23577e-06)
(9.08294 -0.640013 5.72558e-06)
(9.08295 -0.640012 6.84626e-06)
(9.08295 -0.640011 7.89209e-06)
(9.08295 -0.640011 8.77481e-06)
(9.08295 -0.64001 9.31991e-06)
(9.08296 -0.640009 9.66282e-06)
(9.08296 -0.640008 9.67061e-06)
(9.08296 -0.640008 9.48536e-06)
(9.08296 -0.640007 9.01808e-06)
(9.08296 -0.640006 8.42571e-06)
(9.08296 -0.640006 7.61124e-06)
(9.08297 -0.640005 6.74454e-06)
(9.08297 -0.640005 5.69311e-06)
(9.08297 -0.640004 4.42052e-06)
(9.08297 -0.640003 3.20272e-06)
(9.08297 -0.640002 2.57349e-06)
(9.08266 -0.639977 1.35567e-06)
(9.04551 -0.872807 -2.10315e-06)
(9.04582 -0.872841 -5.24599e-06)
(9.04582 -0.872842 -7.45198e-06)
(9.04582 -0.872841 -1.02647e-05)
(9.04582 -0.872843 -1.30587e-05)
(9.04582 -0.872844 -1.50904e-05)
(9.04582 -0.872846 -1.65858e-05)
(9.04582 -0.872848 -1.757e-05)
(9.04582 -0.87285 -1.7958e-05)
(9.04581 -0.872852 -1.78793e-05)
(9.04581 -0.872855 -1.72663e-05)
(9.04581 -0.872857 -1.62802e-05)
(9.04581 -0.872858 -1.48886e-05)
(9.04581 -0.87286 -1.32787e-05)
(9.04581 -0.872862 -1.1463e-05)
(9.04581 -0.872863 -9.55276e-06)
(9.04581 -0.872864 -7.86008e-06)
(9.04581 -0.872867 -5.72867e-06)
(9.04581 -0.872868 -2.56247e-06)
(9.0455 -0.872834 -4.62385e-07)
(9.0822 -0.867434 -3.94447e-07)
(9.08251 -0.867466 1.06438e-06)
(9.08251 -0.867464 1.86615e-06)
(9.08251 -0.867463 2.63485e-06)
(9.08251 -0.86746 4.12181e-06)
(9.08251 -0.867457 4.70639e-06)
(9.08251 -0.867453 5.45007e-06)
(9.08251 -0.86745 5.7613e-06)
(9.08251 -0.867446 6.0395e-06)
(9.08251 -0.867442 6.01933e-06)
(9.08251 -0.867438 5.93441e-06)
(9.08252 -0.867434 5.60633e-06)
(9.08252 -0.86743 5.28119e-06)
(9.08252 -0.867427 4.71946e-06)
(9.08252 -0.867424 4.34341e-06)
(9.08252 -0.867422 3.59842e-06)
(9.08252 -0.86742 3.58779e-06)
(9.08252 -0.867418 2.66284e-06)
(9.08252 -0.867418 1.66553e-06)
(9.08221 -0.867385 1.23162e-06)
(9.03397 -1.12905 -1.60567e-06)
(9.03428 -1.12909 -3.21305e-06)
(9.03428 -1.12909 -5.02194e-06)
(9.03428 -1.12909 -7.05717e-06)
(9.03428 -1.12909 -8.42585e-06)
(9.03427 -1.12909 -9.80541e-06)
(9.03427 -1.1291 -1.06417e-05)
(9.03427 -1.1291 -1.12896e-05)
(9.03426 -1.1291 -1.14699e-05)
(9.03426 -1.12911 -1.14157e-05)
(9.03426 -1.12911 -1.09617e-05)
(9.03425 -1.12911 -1.03238e-05)
(9.03425 -1.12911 -9.35994e-06)
(9.03425 -1.12912 -8.34956e-06)
(9.03424 -1.12912 -7.07617e-06)
(9.03424 -1.12912 -5.95307e-06)
(9.03424 -1.12912 -4.47068e-06)
(9.03424 -1.12912 -3.34894e-06)
(9.03424 -1.12913 -1.78681e-06)
(9.03393 -1.12909 -1.19883e-07)
(9.04913 -1.1137 2.40099e-06)
(9.0494 -1.11374 3.59289e-07)
(9.04939 -1.11373 7.73359e-07)
(9.04939 -1.11373 4.64991e-08)
(9.04939 -1.11372 5.02756e-07)
(9.04938 -1.11372 3.69231e-07)
(9.04938 -1.11371 6.27221e-07)
(9.04937 -1.1137 6.13339e-07)
(9.04937 -1.1137 7.50207e-07)
(9.04937 -1.11369 7.21822e-07)
(9.04936 -1.11368 7.9044e-07)
(9.04936 -1.11368 7.22993e-07)
(9.04935 -1.11367 7.8219e-07)
(9.04935 -1.11366 6.52702e-07)
(9.04935 -1.11366 7.87464e-07)
(9.04934 -1.11365 5.14612e-07)
(9.04934 -1.11365 8.30037e-07)
(9.04934 -1.11365 -6.33524e-08)
(9.04935 -1.11365 9.22337e-08)
(9.04907 -1.11361 -2.36186e-06)
(8.72662 0.758922 6.55718e-07)
(8.72691 0.758949 -8.33823e-08)
(8.72691 0.758947 1.59873e-06)
(8.72691 0.758945 1.92926e-06)
(8.72691 0.758941 3.00415e-06)
(8.72691 0.758938 3.38233e-06)
(8.7269 0.758934 3.94805e-06)
(8.7269 0.75893 4.12909e-06)
(8.7269 0.758925 4.32685e-06)
(8.7269 0.758921 4.27164e-06)
(8.7269 0.758917 4.21276e-06)
(8.72689 0.758912 3.95289e-06)
(8.72689 0.758908 3.7532e-06)
(8.72689 0.758905 3.33283e-06)
(8.72689 0.758902 3.14138e-06)
(8.72689 0.758899 2.56768e-06)
(8.72689 0.758897 2.60538e-06)
(8.72689 0.758895 1.71131e-06)
(8.72689 0.758894 2.15988e-06)
(8.72659 0.758866 1.51506e-08)
(8.75914 0.760736 -1.28655e-06)
(8.75944 0.760764 -1.83496e-06)
(8.75944 0.760764 -2.06145e-06)
(8.75944 0.760764 -2.67811e-06)
(8.75944 0.760764 -2.84921e-06)
(8.75944 0.760764 -3.26809e-06)
(8.75944 0.760765 -3.39363e-06)
(8.75943 0.760765 -3.59223e-06)
(8.75943 0.760765 -3.57876e-06)
(8.75943 0.760765 -3.57686e-06)
(8.75943 0.760766 -3.40255e-06)
(8.75943 0.760766 -3.2439e-06)
(8.75943 0.760766 -2.90984e-06)
(8.75942 0.760766 -2.64776e-06)
(8.75942 0.760767 -2.15531e-06)
(8.75942 0.760767 -1.85409e-06)
(8.75942 0.760767 -1.12695e-06)
(8.75942 0.760767 -7.80952e-07)
(8.75942 0.760768 1.33329e-07)
(8.75912 0.76074 7.03303e-07)
(8.77568 0.554064 -5.4417e-07)
(8.77598 0.554084 6.1211e-07)
(8.77598 0.554083 1.5698e-06)
(8.77598 0.554082 2.34848e-06)
(8.77598 0.554081 3.6601e-06)
(8.77598 0.55408 4.19229e-06)
(8.77598 0.554078 4.81802e-06)
(8.77598 0.554076 5.0469e-06)
(8.77598 0.554074 5.23376e-06)
(8.77598 0.554072 5.16915e-06)
(8.77598 0.554071 5.05664e-06)
(8.77598 0.554069 4.75605e-06)
(8.77598 0.554067 4.47368e-06)
(8.77598 0.554066 4.00066e-06)
(8.77598 0.554064 3.72031e-06)
(8.77598 0.554063 3.11926e-06)
(8.77598 0.554062 3.16739e-06)
(8.77598 0.554061 2.45939e-06)
(8.77598 0.554061 1.90552e-06)
(8.77567 0.55404 1.37292e-06)
(8.77458 0.547821 -1.2025e-06)
(8.77488 0.547841 -2.43005e-06)
(8.77488 0.54784 -3.06973e-06)
(8.77488 0.547839 -4.14228e-06)
(8.77488 0.547839 -5.12364e-06)
(8.77488 0.547838 -5.86759e-06)
(8.77488 0.547838 -6.33421e-06)
(8.77488 0.547837 -6.6791e-06)
(8.77488 0.547836 -6.75891e-06)
(8.77488 0.547836 -6.72831e-06)
(8.77488 0.547835 -6.47215e-06)
(8.77488 0.547834 -6.13736e-06)
(8.77488 0.547834 -5.61082e-06)
(8.77487 0.547833 -5.06778e-06)
(8.77487 0.547833 -4.36034e-06)
(8.77487 0.547832 -3.70386e-06)
(8.77487 0.547832 -3.00415e-06)
(8.77487 0.547833 -2.21992e-06)
(8.77487 0.547833 -7.48898e-07)
(8.77457 0.547813 1.38551e-07)
(8.79369 0.349844 -3.28804e-07)
(8.79399 0.349857 4.84502e-07)
(8.79399 0.349857 1.55811e-06)
(8.794 0.349858 2.21984e-06)
(8.794 0.349859 2.81813e-06)
(8.794 0.349859 3.25489e-06)
(8.794 0.34986 3.67358e-06)
(8.794 0.349861 3.86587e-06)
(8.794 0.349862 4.01625e-06)
(8.794 0.349863 3.97915e-06)
(8.794 0.349863 3.91353e-06)
(8.794 0.349864 3.69126e-06)
(8.79401 0.349865 3.48646e-06)
(8.79401 0.349866 3.12845e-06)
(8.79401 0.349867 2.85765e-06)
(8.79401 0.349867 2.40174e-06)
(8.79401 0.349868 2.04186e-06)
(8.79401 0.349867 1.51298e-06)
(8.79401 0.349868 1.47944e-06)
(8.79371 0.349856 1.02146e-06)
(8.79407 0.34019 -9.91695e-07)
(8.79438 0.340202 -1.93092e-06)
(8.79438 0.340201 -2.6689e-06)
(8.79438 0.340199 -3.45507e-06)
(8.79438 0.340198 -3.9118e-06)
(8.79438 0.340197 -4.43858e-06)
(8.79438 0.340195 -4.72097e-06)
(8.79438 0.340193 -4.95635e-06)
(8.79438 0.340191 -4.98042e-06)
(8.79438 0.340189 -4.94076e-06)
(8.79438 0.340188 -4.71626e-06)
(8.79438 0.340186 -4.45486e-06)
(8.79438 0.340184 -4.02413e-06)
(8.79438 0.340183 -3.61197e-06)
(8.79438 0.340182 -3.01342e-06)
(8.79438 0.34018 -2.52019e-06)
(8.79438 0.34018 -1.72187e-06)
(8.79438 0.340179 -1.18072e-06)
(8.79438 0.340179 -3.61752e-07)
(8.79408 0.340167 2.27902e-07)
(8.80308 0.15089 -5.72354e-07)
(8.80338 0.150896 -4.15934e-07)
(8.80338 0.150896 -3.45932e-08)
(8.80338 0.150899 9.45468e-08)
(8.80339 0.150901 2.60395e-07)
(8.80339 0.150903 3.47968e-07)
(8.80339 0.150905 4.89798e-07)
(8.80339 0.150908 5.32339e-07)
(8.80339 0.150911 6.19951e-07)
(8.80339 0.150914 6.19947e-07)
(8.8034 0.150917 6.68108e-07)
(8.8034 0.150919 6.31097e-07)
(8.8034 0.150922 6.62242e-07)
(8.8034 0.150924 5.92897e-07)
(8.8034 0.150927 6.29114e-07)
(8.8034 0.150929 5.34725e-07)
(8.8034 0.15093 5.68052e-07)
(8.80341 0.150931 4.53879e-07)
(8.80341 0.150932 7.20795e-07)
(8.8031 0.150927 6.6606e-07)
(8.80859 0.137412 -5.31857e-07)
(8.80889 0.137415 -5.83923e-07)
(8.80889 0.137414 -5.28856e-07)
(8.80889 0.137412 -5.19395e-07)
(8.8089 0.137409 -2.77086e-07)
(8.8089 0.137407 -2.27943e-07)
(8.8089 0.137403 -6.64676e-08)
(8.8089 0.1374 9.68885e-10)
(8.8089 0.137397 1.37011e-07)
(8.8089 0.137393 2.05036e-07)
(8.80891 0.13739 3.33889e-07)
(8.80891 0.137386 3.91052e-07)
(8.80891 0.137383 5.23332e-07)
(8.80891 0.13738 5.58859e-07)
(8.80891 0.137378 7.16078e-07)
(8.80891 0.137375 7.1275e-07)
(8.80891 0.137374 9.48243e-07)
(8.80891 0.137373 8.50111e-07)
(8.80891 0.137372 8.72395e-07)
(8.80861 0.137367 6.27542e-07)
(8.80924 -0.0457829 -1.08212e-06)
(8.80955 -0.0457851 -2.08738e-06)
(8.80955 -0.0457849 -2.91527e-06)
(8.80955 -0.0457839 -3.75809e-06)
(8.80955 -0.0457834 -4.31828e-06)
(8.80955 -0.0457828 -4.90047e-06)
(8.80956 -0.0457821 -5.2389e-06)
(8.80956 -0.0457813 -5.51784e-06)
(8.80956 -0.0457805 -5.57854e-06)
(8.80956 -0.0457796 -5.56056e-06)
(8.80956 -0.0457788 -5.34752e-06)
(8.80957 -0.0457779 -5.08339e-06)
(8.80957 -0.0457771 -4.63821e-06)
(8.80957 -0.0457763 -4.19732e-06)
(8.80957 -0.0457756 -3.56098e-06)
(8.80957 -0.0457749 -3.00256e-06)
(8.80957 -0.0457743 -2.17689e-06)
(8.80957 -0.0457743 -1.52819e-06)
(8.80957 -0.0457739 -6.4016e-07)
(8.80927 -0.0457714 1.0641e-07)
(8.81935 -0.0601181 -4.24396e-07)
(8.81966 -0.0601224 -1.89101e-07)
(8.81966 -0.0601239 2.06939e-07)
(8.81966 -0.0601265 4.81286e-07)
(8.81966 -0.0601293 8.58221e-07)
(8.81966 -0.0601326 1.08893e-06)
(8.81967 -0.0601363 1.36456e-06)
(8.81967 -0.0601402 1.53111e-06)
(8.81967 -0.0601443 1.71871e-06)
(8.81967 -0.0601485 1.81642e-06)
(8.81967 -0.0601526 1.93928e-06)
(8.81968 -0.0601565 1.97498e-06)
(8.81968 -0.0601602 2.04936e-06)
(8.81968 -0.0601635 2.02375e-06)
(8.81968 -0.0601665 2.05672e-06)
(8.81968 -0.060169 1.9314e-06)
(8.81968 -0.0601711 1.90016e-06)
(8.81968 -0.0601722 1.58469e-06)
(8.81968 -0.0601732 1.3493e-06)
(8.81938 -0.0601702 7.90168e-07)
(8.8131 -0.245776 -1.66383e-06)
(8.81341 -0.245785 -4.02826e-06)
(8.81341 -0.245785 -6.21012e-06)
(8.81341 -0.245783 -8.17873e-06)
(8.81341 -0.245782 -9.58861e-06)
(8.81341 -0.24578 -1.09502e-05)
(8.81341 -0.245778 -1.18529e-05)
(8.81341 -0.245775 -1.25142e-05)
(8.81341 -0.245773 -1.27585e-05)
(8.81341 -0.245771 -1.27267e-05)
(8.81341 -0.245768 -1.2329e-05)
(8.81341 -0.245766 -1.1712e-05)
(8.81341 -0.245764 -1.07812e-05)
(8.81341 -0.245762 -9.72472e-06)
(8.81341 -0.24576 -8.37173e-06)
(8.81342 -0.245758 -7.02108e-06)
(8.81342 -0.245756 -5.25153e-06)
(8.81342 -0.245756 -3.70217e-06)
(8.81342 -0.245755 -2.01569e-06)
(8.81311 -0.245744 -4.17575e-07)
(8.82847 -0.256333 -6.85434e-08)
(8.82878 -0.256345 8.50982e-07)
(8.82878 -0.256346 2.02946e-06)
(8.82878 -0.256348 2.93552e-06)
(8.82878 -0.256351 3.75129e-06)
(8.82878 -0.256353 4.44379e-06)
(8.82879 -0.256356 5.05998e-06)
(8.82879 -0.256359 5.49728e-06)
(8.82879 -0.256363 5.84329e-06)
(8.8288 -0.256366 6.00676e-06)
(8.8288 -0.25637 6.08956e-06)
(8.8288 -0.256373 6.00377e-06)
(8.8288 -0.256376 5.86025e-06)
(8.8288 -0.256379 5.561e-06)
(8.8288 -0.256381 5.21137e-06)
(8.82881 -0.256383 4.67961e-06)
(8.82881 -0.256385 4.05434e-06)
(8.82881 -0.256385 3.19105e-06)
(8.82881 -0.256386 2.43942e-06)
(8.8285 -0.256375 1.17484e-06)
(8.81371 -0.451773 -2.19023e-06)
(8.81402 -0.45179 -5.60816e-06)
(8.81402 -0.451789 -8.88523e-06)
(8.81402 -0.451788 -1.17675e-05)
(8.81402 -0.451787 -1.38381e-05)
(8.81402 -0.451786 -1.58552e-05)
(8.81402 -0.451784 -1.72405e-05)
(8.81402 -0.451783 -1.82385e-05)
(8.81401 -0.451781 -1.86517e-05)
(8.81401 -0.451779 -1.86252e-05)
(8.81401 -0.451778 -1.80813e-05)
(8.81401 -0.451776 -1.71712e-05)
(8.81401 -0.451774 -1.58367e-05)
(8.81402 -0.451773 -1.42609e-05)
(8.81402 -0.451772 -1.23134e-05)
(8.81402 -0.45177 -1.02974e-05)
(8.81402 -0.451769 -7.70621e-06)
(8.81402 -0.451769 -5.42073e-06)
(8.81402 -0.451769 -3.0532e-06)
(8.81371 -0.451751 -7.42844e-07)
(8.83251 -0.457002 1.68526e-07)
(8.83281 -0.457021 1.57951e-06)
(8.83281 -0.457021 3.3694e-06)
(8.83282 -0.457024 4.71277e-06)
(8.83282 -0.457025 5.77533e-06)
(8.83282 -0.457026 6.77618e-06)
(8.83282 -0.457028 7.63386e-06)
(8.83283 -0.457029 8.25287e-06)
(8.83283 -0.457031 8.7148e-06)
(8.83283 -0.457033 8.91767e-06)
(8.83283 -0.457034 8.97408e-06)
(8.83283 -0.457036 8.79704e-06)
(8.83284 -0.457038 8.50606e-06)
(8.83284 -0.457039 8.01045e-06)
(8.83284 -0.45704 7.40277e-06)
(8.83284 -0.457041 6.58075e-06)
(8.83284 -0.457042 5.49661e-06)
(8.83284 -0.457041 4.24791e-06)
(8.83284 -0.457041 3.23409e-06)
(8.83253 -0.457023 1.48802e-06)
(8.80833 -0.666125 -2.46633e-06)
(8.80863 -0.666151 -6.39833e-06)
(8.80863 -0.66615 -1.01524e-05)
(8.80863 -0.666149 -1.35158e-05)
(8.80863 -0.666149 -1.60143e-05)
(8.80863 -0.666149 -1.8408e-05)
(8.80863 -0.666148 -2.00995e-05)
(8.80863 -0.666148 -2.12932e-05)
(8.80863 -0.666148 -2.18014e-05)
(8.80863 -0.666147 -2.17723e-05)
(8.80863 -0.666147 -2.11303e-05)
(8.80862 -0.666147 -2.00445e-05)
(8.80862 -0.666147 -1.84709e-05)
(8.80862 -0.666146 -1.66023e-05)
(8.80862 -0.666146 -1.43555e-05)
(8.80862 -0.666146 -1.19894e-05)
(8.80862 -0.666146 -9.02804e-06)
(8.80862 -0.666147 -6.34535e-06)
(8.80862 -0.666147 -3.48062e-06)
(8.80832 -0.666121 -8.33259e-07)
(8.8264 -0.665085 1.10323e-07)
(8.8267 -0.66511 1.67356e-06)
(8.8267 -0.665109 3.65805e-06)
(8.8267 -0.665111 5.05772e-06)
(8.8267 -0.66511 6.09094e-06)
(8.82671 -0.665109 7.12682e-06)
(8.82671 -0.665108 8.08079e-06)
(8.82671 -0.665106 8.72357e-06)
(8.82671 -0.665105 9.23503e-06)
(8.82671 -0.665104 9.43472e-06)
(8.82671 -0.665102 9.4995e-06)
(8.82672 -0.665101 9.29085e-06)
(8.82672 -0.6651 8.99109e-06)
(8.82672 -0.665099 8.44271e-06)
(8.82672 -0.665098 7.8309e-06)
(8.82672 -0.665097 6.93209e-06)
(8.82672 -0.665096 5.71044e-06)
(8.82672 -0.665093 4.38364e-06)
(8.82672 -0.665093 3.44309e-06)
(8.82641 -0.665067 1.65456e-06)
(8.79213 -0.889259 -2.25091e-06)
(8.79243 -0.889292 -5.70816e-06)
(8.79243 -0.889292 -8.09925e-06)
(8.79243 -0.889291 -1.11635e-05)
(8.79243 -0.889292 -1.43398e-05)
(8.79243 -0.889293 -1.65732e-05)
(8.79243 -0.889294 -1.82358e-05)
(8.79242 -0.889296 -1.93354e-05)
(8.79242 -0.889297 -1.97792e-05)
(8.79242 -0.889299 -1.97294e-05)
(8.79242 -0.8893 -1.90839e-05)
(8.79241 -0.889301 -1.80502e-05)
(8.79241 -0.889303 -1.65573e-05)
(8.79241 -0.889304 -1.48287e-05)
(8.79241 -0.889305 -1.28666e-05)
(8.79241 -0.889306 -1.07555e-05)
(8.79241 -0.889307 -8.97126e-06)
(8.79241 -0.88931 -6.54162e-06)
(8.79241 -0.889311 -2.99179e-06)
(8.7921 -0.889277 -6.80681e-07)
(8.80205 -0.881164 -5.08711e-07)
(8.80236 -0.881196 8.8613e-07)
(8.80236 -0.881194 1.35212e-06)
(8.80236 -0.881192 2.2393e-06)
(8.80236 -0.881188 4.14192e-06)
(8.80236 -0.881185 4.86165e-06)
(8.80236 -0.88118 5.83771e-06)
(8.80236 -0.881175 6.29996e-06)
(8.80236 -0.88117 6.7776e-06)
(8.80236 -0.881165 6.92313e-06)
(8.80236 -0.88116 7.04819e-06)
(8.80236 -0.881155 6.88723e-06)
(8.80235 -0.88115 6.77277e-06)
(8.80235 -0.881146 6.34965e-06)
(8.80235 -0.881142 6.1789e-06)
(8.80235 -0.881139 5.47608e-06)
(8.80235 -0.881136 5.74779e-06)
(8.80235 -0.881133 4.61394e-06)
(8.80235 -0.881132 2.92736e-06)
(8.80204 -0.881098 1.76153e-06)
(8.75716 -1.11805 -1.89406e-06)
(8.75746 -1.11809 -3.60678e-06)
(8.75746 -1.11809 -5.27476e-06)
(8.75746 -1.1181 -7.21227e-06)
(8.75745 -1.1181 -8.45966e-06)
(8.75745 -1.1181 -9.77629e-06)
(8.75745 -1.1181 -1.05364e-05)
(8.75745 -1.1181 -1.11379e-05)
(8.75744 -1.11811 -1.12511e-05)
(8.75744 -1.11811 -1.11562e-05)
(8.75744 -1.11811 -1.06348e-05)
(8.75743 -1.11811 -9.9618e-06)
(8.75743 -1.11811 -8.93069e-06)
(8.75743 -1.11812 -7.8865e-06)
(8.75742 -1.11812 -6.53352e-06)
(8.75742 -1.11812 -5.36938e-06)
(8.75742 -1.11812 -3.76472e-06)
(8.75742 -1.11812 -2.61369e-06)
(8.75742 -1.11812 -1.03684e-06)
(8.75711 -1.11808 2.5252e-07)
(8.744 -1.10235 1.49668e-06)
(8.74427 -1.10239 1.38743e-07)
(8.74425 -1.10238 8.20529e-07)
(8.74425 -1.10238 4.65713e-07)
(8.74425 -1.10237 1.32638e-06)
(8.74425 -1.10237 1.46121e-06)
(8.74425 -1.10236 1.99976e-06)
(8.74425 -1.10235 2.17738e-06)
(8.74425 -1.10235 2.50522e-06)
(8.74424 -1.10234 2.60585e-06)
(8.74424 -1.10233 2.8119e-06)
(8.74424 -1.10232 2.81298e-06)
(8.74424 -1.10231 2.96256e-06)
(8.74423 -1.10231 2.84488e-06)
(8.74423 -1.1023 3.03536e-06)
(8.74423 -1.1023 2.69043e-06)
(8.74423 -1.10229 3.04523e-06)
(8.74423 -1.10229 1.95574e-06)
(8.74424 -1.10229 1.76511e-06)
(8.74397 -1.10225 -9.24443e-07)
(8.69614 0.758386 6.74782e-07)
(8.69643 0.758413 2.87694e-08)
(8.69643 0.758411 2.05943e-06)
(8.69643 0.758409 2.67265e-06)
(8.69643 0.758406 3.9352e-06)
(8.69643 0.758403 4.47468e-06)
(8.69643 0.758399 5.15293e-06)
(8.69643 0.758395 5.41085e-06)
(8.69643 0.758391 5.65309e-06)
(8.69643 0.758386 5.6058e-06)
(8.69643 0.758382 5.53095e-06)
(8.69643 0.758378 5.21578e-06)
(8.69643 0.758375 4.94875e-06)
(8.69643 0.758371 4.42671e-06)
(8.69643 0.758368 4.12499e-06)
(8.69643 0.758365 3.41433e-06)
(8.69643 0.758363 3.3189e-06)
(8.69643 0.758361 2.31825e-06)
(8.69643 0.75836 2.73291e-06)
(8.69613 0.758333 2.21829e-07)
(8.71646 0.759229 -1.22694e-06)
(8.71676 0.759256 -1.43194e-06)
(8.71676 0.759256 -1.37008e-06)
(8.71676 0.759255 -1.67498e-06)
(8.71675 0.759255 -1.63074e-06)
(8.71675 0.759254 -1.85725e-06)
(8.71675 0.759254 -1.85451e-06)
(8.71675 0.759253 -1.96722e-06)
(8.71675 0.759253 -1.91849e-06)
(8.71675 0.759252 -1.93321e-06)
(8.71675 0.759251 -1.8075e-06)
(8.71675 0.759251 -1.7414e-06)
(8.71675 0.75925 -1.52354e-06)
(8.71675 0.75925 -1.41186e-06)
(8.71675 0.759249 -1.08435e-06)
(8.71675 0.759249 -9.61849e-07)
(8.71675 0.759248 -4.21869e-07)
(8.71675 0.759248 -2.31569e-07)
(8.71675 0.759248 4.77086e-07)
(8.71644 0.759221 8.66091e-07)
(8.73401 0.54792 -7.51753e-07)
(8.73431 0.547939 4.1066e-07)
(8.73431 0.547938 1.35304e-06)
(8.73431 0.547937 2.10313e-06)
(8.73431 0.547936 3.39101e-06)
(8.73431 0.547934 3.90096e-06)
(8.73431 0.547932 4.50822e-06)
(8.73431 0.54793 4.72825e-06)
(8.73431 0.547928 4.91951e-06)
(8.73431 0.547926 4.86145e-06)
(8.73431 0.547924 4.7718e-06)
(8.73431 0.547922 4.48923e-06)
(8.73431 0.54792 4.23818e-06)
(8.73432 0.547918 3.79244e-06)
(8.73432 0.547917 3.54363e-06)
(8.73432 0.547915 2.97424e-06)
(8.73432 0.547914 3.07582e-06)
(8.73432 0.547913 2.41737e-06)
(8.73432 0.547912 1.95024e-06)
(8.73401 0.547893 1.49802e-06)
(8.72683 0.543417 -1.24673e-06)
(8.72713 0.543436 -2.1647e-06)
(8.72713 0.543436 -2.48518e-06)
(8.72713 0.543434 -3.32849e-06)
(8.72713 0.543434 -4.15883e-06)
(8.72713 0.543433 -4.76932e-06)
(8.72713 0.543432 -5.15942e-06)
(8.72713 0.543431 -5.46239e-06)
(8.72713 0.54343 -5.53957e-06)
(8.72712 0.543429 -5.54501e-06)
(8.72712 0.543428 -5.34854e-06)
(8.72712 0.543427 -5.10768e-06)
(8.72712 0.543426 -4.68678e-06)
(8.72712 0.543425 -4.27208e-06)
(8.72712 0.543424 -3.70019e-06)
(8.72712 0.543424 -3.17811e-06)
(8.72712 0.543423 -2.61795e-06)
(8.72712 0.543424 -1.95025e-06)
(8.72712 0.543423 -4.85896e-07)
(8.72682 0.543404 3.50536e-07)
(8.74709 0.343822 -5.96268e-07)
(8.74739 0.343834 1.05674e-07)
(8.74739 0.343834 1.08136e-06)
(8.74739 0.343835 1.60745e-06)
(8.74739 0.343835 2.09405e-06)
(8.74739 0.343836 2.43493e-06)
(8.74739 0.343836 2.77334e-06)
(8.7474 0.343836 2.91623e-06)
(8.7474 0.343836 3.04286e-06)
(8.7474 0.343837 3.00379e-06)
(8.7474 0.343837 2.96307e-06)
(8.7474 0.343838 2.77772e-06)
(8.7474 0.343838 2.63274e-06)
(8.7474 0.343838 2.34143e-06)
(8.7474 0.343839 2.15651e-06)
(8.7474 0.343839 1.79644e-06)
(8.7474 0.343839 1.57138e-06)
(8.7474 0.343838 1.17885e-06)
(8.7474 0.343839 1.35904e-06)
(8.7471 0.343827 1.08857e-06)
(8.74339 0.334672 -1.14481e-06)
(8.74369 0.334683 -1.9511e-06)
(8.74369 0.334683 -2.53614e-06)
(8.74369 0.334681 -3.24706e-06)
(8.74369 0.334679 -3.65693e-06)
(8.74369 0.334678 -4.15111e-06)
(8.74369 0.334676 -4.42538e-06)
(8.74369 0.334674 -4.66173e-06)
(8.74369 0.334672 -4.70077e-06)
(8.74369 0.33467 -4.6877e-06)
(8.74369 0.334669 -4.49402e-06)
(8.74369 0.334667 -4.27573e-06)
(8.74369 0.334665 -3.88486e-06)
(8.74369 0.334663 -3.52022e-06)
(8.74369 0.334662 -2.95973e-06)
(8.74369 0.334661 -2.50249e-06)
(8.74369 0.33466 -1.70569e-06)