/*--------------------------------*- C++ -*----------------------------------*\
| =========                 |                                                 |
| \\      /  F ield         | OpenFOAM: The Open Source CFD Toolbox           |
|  \\    /   O peration     | Version:  2212                                  |
|   \\  /    A nd           | Website:  www.openfoam.com                      |
|    \\/     M anipulation  |                                                 |
\*---------------------------------------------------------------------------*/
FoamFile
{
    version     2.0;
    format      ascii;
    arch        "LSB;label=32;scalar=64";
    class       surfaceScalarField;
    location    "7.2e-05";
    object      phi;
}
// * * * * * * * * * * * * * * * * * * * * * * * * * * * * * * * * * * * * * //

dimensions      [1 0 -1 0 0 0 0];

oriented        oriented;

internalField   nonuniform List<scalar> 
115921
(
-7.26255e-07
3.54879e-08
-7.21295e-07
8.25001e-09
-7.20376e-07
1.23302e-08
-7.21894e-07
1.36636e-08
-7.25093e-07
1.59189e-08
-7.28719e-07
1.81818e-08
-7.32961e-07
1.97261e-08
-7.37277e-07
2.00196e-08
-7.41698e-07
1.96208e-08
-7.4611e-07
1.95601e-08
-7.51042e-07
2.1291e-08
-7.56327e-07
2.3355e-08
-7.61317e-07
2.26497e-08
-7.65953e-07
2.17599e-08
-7.70374e-07
2.19497e-08
-7.74879e-07
2.33455e-08
-7.79238e-07
2.35914e-08
-7.83029e-07
2.16381e-08
-7.86323e-07
1.91567e-08
-7.89319e-07
1.81994e-08
-7.92452e-07
1.96452e-08
-7.95873e-07
2.20926e-08
-7.99492e-07
2.43357e-08
-8.03043e-07
2.48544e-08
-8.06308e-07
2.42662e-08
-8.09418e-07
2.44265e-08
-8.12035e-07
2.24019e-08
-8.14239e-07
2.16409e-08
-8.1641e-07
2.29206e-08
-8.18707e-07
2.47608e-08
-8.2106e-07
2.65907e-08
-8.23149e-07
2.68008e-08
-8.24622e-07
2.44773e-08
-8.25489e-07
2.25292e-08
-8.25967e-07
2.24217e-08
-8.26072e-07
2.29895e-08
-8.25774e-07
2.22237e-08
-8.25226e-07
2.35557e-08
-8.24385e-07
2.42273e-08
-8.23236e-07
2.42386e-08
-8.21749e-07
2.45651e-08
-8.19937e-07
2.49954e-08
-8.17707e-07
2.54882e-08
-8.1515e-07
2.55183e-08
-8.12282e-07
2.58063e-08
-8.09122e-07
2.64364e-08
-8.05595e-07
2.61014e-08
-8.01714e-07
2.60236e-08
-7.97526e-07
2.53159e-08
-7.93392e-07
2.35049e-08
-7.89194e-07
2.2557e-08
-7.84833e-07
2.20778e-08
-7.80207e-07
2.13621e-08
-7.75413e-07
2.13348e-08
-7.70418e-07
2.10237e-08
-7.65395e-07
2.07401e-08
-7.60213e-07
2.10154e-08
-7.54666e-07
2.33303e-08
-7.48674e-07
2.47009e-08
-7.42618e-07
2.36657e-08
-7.36619e-07
2.16593e-08
-7.30682e-07
2.12089e-08
-7.2461e-07
2.13914e-08
-7.18675e-07
2.11272e-08
-7.12934e-07
2.05123e-08
-7.0695e-07
2.12804e-08
-6.99705e-07
2.39742e-08
-6.91515e-07
2.40831e-08
-6.83432e-07
2.2188e-08
-6.75483e-07
2.11066e-08
-6.67312e-07
2.14081e-08
-6.58745e-07
2.17155e-08
-6.49658e-07
2.20289e-08
-6.40017e-07
2.19905e-08
-6.30256e-07
2.16369e-08
-6.20685e-07
2.07526e-08
-6.10747e-07
2.11222e-08
-6.0029e-07
2.12676e-08
-5.89822e-07
2.06214e-08
-5.7948e-07
1.97642e-08
-5.6864e-07
2.00031e-08
-5.57224e-07
1.988e-08
-5.45948e-07
1.87708e-08
-5.34769e-07
1.81636e-08
-5.23455e-07
1.79811e-08
-5.1178e-07
1.7985e-08
-4.9939e-07
1.82215e-08
-4.86537e-07
1.7963e-08
-4.74269e-07
1.69485e-08
-4.61852e-07
1.73298e-08
-4.47939e-07
1.84293e-08
-4.32931e-07
1.84329e-08
-4.18028e-07
1.71945e-08
-4.02789e-07
1.65729e-08
-3.87194e-07
1.60013e-08
-3.71887e-07
1.50555e-08
-3.5682e-07
1.42183e-08
-3.41692e-07
1.36486e-08
-3.26464e-07
1.31601e-08
-3.10838e-07
1.31021e-08
-2.94749e-07
1.30245e-08
-2.78227e-07
1.32215e-08
-2.59309e-07
1.44927e-08
-2.38206e-07
1.49829e-08
-2.16073e-07
1.44693e-08
-1.92666e-07
1.41207e-08
-1.68878e-07
1.32002e-08
-1.45892e-07
1.22136e-08
-1.22311e-07
1.18992e-08
-9.81203e-08
1.16486e-08
-7.27813e-08
1.08552e-08
-4.70759e-08
9.3618e-09
-2.22024e-08
8.11343e-09
1.53885e-09
7.65559e-09
2.56822e-08
6.6999e-09
4.96825e-08
6.65067e-09
7.557e-08
6.44374e-09
1.05514e-07
4.7305e-09
1.35803e-07
4.11642e-09
1.66859e-07
2.28648e-09
1.94541e-07
3.61732e-09
2.19706e-07
3.03722e-09
2.43943e-07
2.63535e-09
2.68196e-07
3.16302e-09
2.92814e-07
4.74771e-09
3.18379e-07
4.68759e-09
3.41057e-07
5.18558e-09
3.60126e-07
8.11011e-09
3.77847e-07
8.99508e-09
3.92471e-07
1.06008e-08
4.04956e-07
1.05982e-08
4.15517e-07
1.14604e-08
4.23311e-07
1.46215e-08
4.28733e-07
1.82705e-08
4.31288e-07
2.16161e-08
4.30338e-07
2.4766e-08
4.23416e-07
2.97876e-08
4.09043e-07
3.50916e-08
3.90036e-07
3.69342e-08
3.53823e-07
5.30651e-08
3.45277e-07
3.32586e-08
2.26221e-07
1.34155e-07
-4.61616e-08
2.93596e-07
-8.16412e-07
6.52615e-08
-8.24419e-07
2.8651e-08
-8.32013e-07
3.21229e-08
-8.3746e-07
3.15709e-08
-8.43272e-07
3.48701e-08
-8.47878e-07
3.75093e-08
-8.51967e-07
3.94617e-08
-8.56303e-07
4.0212e-08
-8.61231e-07
3.97548e-08
-8.66108e-07
3.97216e-08
-8.71778e-07
4.34147e-08
-8.78006e-07
4.76563e-08
-8.83784e-07
4.61343e-08
-8.89114e-07
4.43137e-08
-8.94357e-07
4.47147e-08
-8.99948e-07
4.76269e-08
-9.05447e-07
4.82055e-08
-9.09947e-07
4.39484e-08
-9.13461e-07
3.85039e-08
-9.16505e-07
3.64202e-08
-9.19734e-07
3.93493e-08
-9.23583e-07
4.45814e-08
-9.28025e-07
4.94132e-08
-9.32666e-07
5.07141e-08
-9.36852e-07
4.9519e-08
-9.40783e-07
4.9853e-08
-9.43936e-07
4.55446e-08
-9.46576e-07
4.38935e-08
-9.49047e-07
4.62636e-08
-9.51459e-07
4.97243e-08
-9.53838e-07
5.32637e-08
-9.56116e-07
5.38846e-08
-9.57791e-07
4.92987e-08
-9.58848e-07
4.53779e-08
-9.59424e-07
4.50714e-08
-9.59548e-07
4.61722e-08
-9.59138e-07
4.45261e-08
-9.58332e-07
4.70806e-08
-9.57122e-07
4.83056e-08
-9.55579e-07
4.82849e-08
-9.53552e-07
4.8871e-08
-9.51137e-07
4.97035e-08
-9.48326e-07
5.06974e-08
-9.45161e-07
5.07367e-08
-9.41656e-07
5.12558e-08
-9.37827e-07
5.25199e-08
-9.33626e-07
5.1859e-08
-9.29114e-07
5.17158e-08
-9.24492e-07
5.04955e-08
-9.19901e-07
4.69015e-08
-9.15211e-07
4.50222e-08
-9.10304e-07
4.40049e-08
-9.05249e-07
4.26292e-08
-8.99976e-07
4.24981e-08
-8.94493e-07
4.18917e-08
-8.88735e-07
4.10941e-08
-8.82652e-07
4.1444e-08
-8.76002e-07
4.58261e-08
-8.691e-07
4.87509e-08
-8.62204e-07
4.67832e-08
-8.55536e-07
4.29336e-08
-8.48911e-07
4.20245e-08
-8.42193e-07
4.25202e-08
-8.35351e-07
4.1795e-08
-8.28391e-07
4.02022e-08
-8.2095e-07
4.1491e-08
-8.12212e-07
4.68907e-08
-8.02927e-07
4.76005e-08
-7.93812e-07
4.38848e-08
-7.8482e-07
4.16936e-08
-7.75373e-07
4.19874e-08
-7.65593e-07
4.26586e-08
-7.55155e-07
4.31851e-08
-7.44298e-07
4.33042e-08
-7.33253e-07
4.25231e-08
-7.22518e-07
4.07893e-08
-7.11319e-07
4.14113e-08
-6.99707e-07
4.18059e-08
-6.88048e-07
4.04923e-08
-6.76428e-07
3.87121e-08
-6.64218e-07
3.91623e-08
-6.51444e-07
3.89644e-08
-6.38878e-07
3.67694e-08
-6.26295e-07
3.54214e-08
-6.13414e-07
3.49382e-08
-6.00047e-07
3.48717e-08
-5.86125e-07
3.54794e-08
-5.72033e-07
3.5184e-08
-5.58153e-07
3.27881e-08
-5.43421e-07
3.28878e-08
-5.27357e-07
3.51986e-08
-5.10253e-07
3.52717e-08
-4.9332e-07
3.2871e-08
-4.76124e-07
3.17398e-08
-4.58541e-07
3.06019e-08
-4.4131e-07
2.87964e-08
-4.24189e-07
2.69786e-08
-4.07009e-07
2.57946e-08
-3.89516e-07
2.46532e-08
-3.71343e-07
2.4332e-08
-3.52427e-07
2.38615e-08
-3.32748e-07
2.38884e-08
-3.10118e-07
2.59224e-08
-2.85235e-07
2.69569e-08
-2.59295e-07
2.59895e-08
-2.32017e-07
2.52389e-08
-2.04526e-07
2.35066e-08
-1.77755e-07
2.13742e-08
-1.50107e-07
2.03028e-08
-1.21289e-07
1.92365e-08
-9.16467e-08
1.7812e-08
-6.25843e-08
1.58173e-08
-3.45066e-08
1.34737e-08
-7.31273e-09
1.21129e-08
2.02846e-08
1.06581e-08
4.81571e-08
9.65489e-09
7.80689e-08
9.18852e-09
1.10518e-07
7.34066e-09
1.43626e-07
6.36444e-09
1.75849e-07
4.21381e-09
2.07172e-07
4.01853e-09
2.33723e-07
5.02255e-09
2.61493e-07
2.01352e-09
2.88318e-07
4.25268e-09
3.14733e-07
7.80195e-09
3.45578e-07
4.31253e-09
3.74931e-07
4.70656e-09
3.97501e-07
1.29837e-08
4.17587e-07
1.52016e-08
4.35873e-07
1.74522e-08
4.54505e-07
1.56576e-08
4.72411e-07
1.69425e-08
4.86015e-07
2.45507e-08
4.93879e-07
3.44436e-08
4.976e-07
4.18931e-08
5.00127e-07
4.60697e-08
5.00019e-07
5.28587e-08
4.98403e-07
5.86234e-08
4.94501e-07
6.13149e-08
4.93776e-07
7.32915e-08
4.90226e-07
5.98452e-08
5.65502e-07
8.08588e-08
-9.29947e-10
5.45379e-07
-8.83235e-07
1.00225e-07
-8.93988e-07
5.16141e-08
-9.03005e-07
5.32532e-08
-9.07829e-07
4.89068e-08
-9.12177e-07
5.27418e-08
-9.17253e-07
5.76867e-08
-9.22586e-07
6.10141e-08
-9.27717e-07
6.16126e-08
-9.32836e-07
6.05815e-08
-9.37607e-07
6.02611e-08
-9.43075e-07
6.58679e-08
-9.48917e-07
7.20047e-08
-9.54451e-07
6.97666e-08
-9.59663e-07
6.70907e-08
-9.64784e-07
6.76941e-08
-9.70039e-07
7.19369e-08
-9.74904e-07
7.25877e-08
-9.7875e-07
6.5808e-08
-9.81844e-07
5.74965e-08
-9.84671e-07
5.45221e-08
-9.87577e-07
5.88059e-08
-9.91035e-07
6.67461e-08
-9.94792e-07
7.38899e-08
-9.98529e-07
7.58976e-08
-1.00193e-06
7.43517e-08
-1.00519e-06
7.50077e-08
-1.00778e-06
6.85476e-08
-1.01009e-06
6.62001e-08
-1.01253e-06
6.99284e-08
-1.01526e-06
7.53533e-08
-1.01775e-06
8.03255e-08
-1.01994e-06
8.111e-08
-1.02128e-06
7.40208e-08
-1.02198e-06
6.81267e-08
-1.02224e-06
6.76671e-08
-1.02198e-06
6.92752e-08
-1.02119e-06
6.67378e-08
-1.02004e-06
7.05186e-08
-1.01847e-06
7.22588e-08
-1.01651e-06
7.21248e-08
-1.0141e-06
7.29422e-08
-1.01127e-06
7.40901e-08
-1.00809e-06
7.56197e-08
-1.00447e-06
7.56563e-08
-1.00044e-06
7.64324e-08
-9.96016e-07
7.82843e-08
-9.91263e-07
7.73504e-08
-9.86309e-07
7.72519e-08
-9.81286e-07
7.56379e-08
-9.76173e-07
7.0219e-08
-9.70984e-07
6.74548e-08
-9.65592e-07
6.58745e-08
-9.60083e-07
6.38322e-08
-9.54293e-07
6.35027e-08
-9.48204e-07
6.24878e-08
-9.41883e-07
6.11797e-08
-9.35272e-07
6.16151e-08
-9.28105e-07
6.80671e-08
-9.20549e-07
7.24737e-08
-9.1309e-07
6.97002e-08
-9.05913e-07
6.40685e-08
-8.98689e-07
6.26796e-08
-8.91207e-07
6.3372e-08
-8.83519e-07
6.20641e-08
-8.75847e-07
5.95855e-08
-8.67767e-07
6.15435e-08
-8.58341e-07
6.97593e-08
-8.48239e-07
7.09836e-08
-8.38312e-07
6.5401e-08
-8.28548e-07
6.20547e-08
-8.18401e-07
6.23553e-08
-8.07891e-07
6.33534e-08
-7.96735e-07
6.41099e-08
-7.85103e-07
6.43254e-08
-7.73287e-07
6.30555e-08
-7.61768e-07
6.04001e-08
-7.49794e-07
6.12849e-08
-7.37354e-07
6.1903e-08
-7.24843e-07
5.98865e-08
-7.12366e-07
5.71764e-08
-6.99366e-07
5.791e-08
-6.85771e-07
5.76635e-08
-6.72333e-07
5.4373e-08
-6.58856e-07
5.22498e-08
-6.45138e-07
5.15413e-08
-6.30994e-07
5.14636e-08
-6.16082e-07
5.2229e-08
-6.00614e-07
5.15197e-08
-5.8563e-07
4.79175e-08
-5.70323e-07
4.82141e-08
-5.53261e-07
5.13964e-08
-5.35218e-07
5.16446e-08
-5.17313e-07
4.81266e-08
-4.98995e-07
4.6543e-08
-4.80308e-07
4.49929e-08
-4.61895e-07
4.22673e-08
-4.43668e-07
3.94921e-08
-4.25461e-07
3.77666e-08
-4.06971e-07
3.59612e-08
-3.8778e-07
3.53496e-08
-3.67813e-07
3.44808e-08
-3.47074e-07
3.42547e-08
-3.23363e-07
3.69872e-08
-2.97262e-07
3.82874e-08
-2.70138e-07
3.674e-08
-2.41748e-07
3.55779e-08
-2.13025e-07
3.29699e-08
-1.84992e-07
2.97405e-08
-1.55937e-07
2.79814e-08
-1.25903e-07
2.63657e-08
-9.50894e-08
2.42796e-08
-6.47726e-08
2.16575e-08
-3.56332e-08
1.84095e-08
-7.28061e-09
1.59423e-08
2.12982e-08
1.40532e-08
5.01902e-08
1.22082e-08
8.08495e-08
1.15324e-08
1.1423e-07
9.32104e-09
1.47989e-07
8.55578e-09
1.81382e-07
5.72073e-09
2.13599e-07
4.18489e-09
2.40265e-07
7.51e-09
2.69925e-07
2.93965e-10
2.96721e-07
6.05757e-09
3.24374e-07
1.0824e-08
3.57466e-07
3.47304e-09
3.86704e-07
5.89294e-09
4.09921e-07
1.81316e-08
4.29858e-07
2.23546e-08
4.50207e-07
2.34363e-08
4.69371e-07
2.12852e-08
4.85685e-07
2.4784e-08
5.00232e-07
3.43361e-08
5.09034e-07
4.96957e-08
5.1348e-07
6.17442e-08
5.17241e-07
6.64219e-08
5.20965e-07
7.3067e-08
5.22577e-07
7.98404e-08
5.18077e-07
8.53126e-08
5.04694e-07
1.07425e-07
4.81637e-07
1.05725e-07
4.81263e-07
1.04748e-07
1.02399e-07
3.9574e-07
-9.61916e-07
1.31473e-07
-9.72572e-07
7.47729e-08
-9.81913e-07
7.49628e-08
-9.87647e-07
6.82527e-08
-9.92934e-07
7.27261e-08
-9.98396e-07
7.95242e-08
-1.00309e-06
8.32127e-08
-1.00808e-06
8.37929e-08
-1.01268e-06
8.20964e-08
-1.01716e-06
8.15381e-08
-1.0222e-06
8.89026e-08
-1.0276e-06
9.70415e-08
-1.0327e-06
9.40282e-08
-1.03736e-06
9.03912e-08
-1.04174e-06
9.10954e-08
-1.04627e-06
9.67982e-08
-1.05046e-06
9.76143e-08
-1.05368e-06
8.83432e-08
-1.05629e-06
7.70735e-08
-1.05861e-06
7.3082e-08
-1.06104e-06
7.88636e-08
-1.06394e-06
8.95466e-08
-1.06719e-06
9.9157e-08
-1.07045e-06
1.01937e-07
-1.07359e-06
1.00092e-07
-1.07662e-06
1.01113e-07
-1.07918e-06
9.26769e-08
-1.0815e-06
8.96443e-08
-1.08336e-06
9.42108e-08
-1.08493e-06
1.0095e-07
-1.08632e-06
1.07503e-07
-1.08755e-06
1.08554e-07
-1.08815e-06
9.90988e-08
-1.0882e-06
9.12759e-08
-1.08773e-06
9.06256e-08
-1.08666e-06
9.26732e-08
-1.08515e-06
8.92757e-08
-1.08319e-06
9.42378e-08
-1.08072e-06
9.64435e-08
-1.0779e-06
9.62081e-08
-1.07465e-06
9.72831e-08
-1.07108e-06
9.8845e-08
-1.06711e-06
1.00887e-07
-1.06278e-06
1.01015e-07
-1.05807e-06
1.02118e-07
-1.05295e-06
1.04585e-07
-1.04741e-06
1.03317e-07
-1.04159e-06
1.03205e-07
-1.03558e-06
1.01058e-07
-1.02961e-06
9.38813e-08
-1.02356e-06
9.0195e-08
-1.0174e-06
8.80911e-08
-1.01111e-06
8.52979e-08
-1.0046e-06
8.47593e-08
-9.97796e-07
8.33527e-08
-9.90809e-07
8.15798e-08
-9.83575e-07
8.21725e-08
-9.7575e-07
9.07214e-08
-9.67331e-07
9.64615e-08
-9.59126e-07
9.29548e-08
-9.51195e-07
8.54967e-08
-9.43203e-07
8.36449e-08
-9.34804e-07
8.43995e-08
-9.26325e-07
8.2613e-08
-9.18006e-07
7.94022e-08
-9.0915e-07
8.19654e-08
-8.98787e-07
9.30039e-08
-8.87485e-07
9.44839e-08
-8.76625e-07
8.71586e-08
-8.65929e-07
8.2545e-08
-8.55065e-07
8.30347e-08
-8.43696e-07
8.41634e-08
-8.31842e-07
8.53045e-08
-8.1944e-07
8.55524e-08
-8.07019e-07
8.38798e-08
-7.94822e-07
8.02086e-08
-7.82162e-07
8.13725e-08
-7.68869e-07
8.20755e-08
-7.55475e-07
7.93302e-08
-7.42132e-07
7.5716e-08
-7.28203e-07
7.66455e-08
-7.13758e-07
7.63644e-08
-6.99524e-07
7.19704e-08
-6.8522e-07
6.91589e-08
-6.70585e-07
6.81226e-08
-6.55459e-07
6.79302e-08
-6.3955e-07
6.88538e-08
-6.23357e-07
6.8009e-08
-6.07771e-07
6.31997e-08
-5.91584e-07
6.33594e-08
-5.73631e-07
6.74705e-08
-5.5472e-07
6.80639e-08
-5.35858e-07
6.3499e-08
-5.1638e-07
6.14478e-08
-4.96422e-07
5.94568e-08
-4.76794e-07
5.58136e-08
-4.57528e-07
5.21766e-08
-4.38188e-07
4.97968e-08
-4.18687e-07
4.73753e-08
-3.98505e-07
4.64532e-08
-3.77551e-07
4.51702e-08
-3.5591e-07
4.46721e-08
-3.31242e-07
4.80139e-08
-3.04157e-07
4.94368e-08
-2.76183e-07
4.72203e-08
-2.46944e-07
4.56252e-08
-2.17235e-07
4.21026e-08
-1.88103e-07
3.78277e-08
-1.5792e-07
3.54776e-08
-1.26842e-07
3.35143e-08
-9.50345e-08
3.0841e-08
-6.36889e-08
2.74333e-08
-3.3671e-08
2.29453e-08
-4.76489e-09
1.9345e-08
2.45208e-08
1.68922e-08
5.43569e-08
1.44539e-08
8.60513e-08
1.33557e-08
1.20158e-07
1.1026e-08
1.55371e-07
1.01427e-08
1.89533e-07
7.27255e-09
2.2193e-07
4.7753e-09
2.50052e-07
9.11037e-09
2.78509e-07
3.41608e-10
3.06138e-07
7.94285e-09
3.35408e-07
1.34986e-08
3.67521e-07
4.03749e-09
3.94901e-07
9.39845e-09
4.18849e-07
2.35814e-08
4.40846e-07
2.8635e-08
4.63061e-07
2.84497e-08
4.80658e-07
2.92522e-08
4.94543e-07
3.56621e-08
5.06828e-07
4.73975e-08
5.16994e-07
6.5091e-08
5.22155e-07
8.11556e-08
5.25783e-07
8.7043e-08
5.28952e-07
9.44868e-08
5.29958e-07
1.02509e-07
5.26276e-07
1.08796e-07
5.12303e-07
1.43284e-07
4.90055e-07
1.50934e-07
4.59805e-07
1.57411e-07
1.71036e-07
4.0716e-07
-1.01113e-06
1.65107e-07
-1.02235e-06
9.90396e-08
-1.03238e-06
9.76708e-08
-1.03838e-06
8.79538e-08
-1.04421e-06
9.34834e-08
-1.04911e-06
1.01271e-07
-1.05359e-06
1.05823e-07
-1.05855e-06
1.06281e-07
-1.06279e-06
1.03787e-07
-1.06699e-06
1.03027e-07
-1.07167e-06
1.12189e-07
-1.0766e-06
1.22699e-07
-1.08121e-06
1.18794e-07
-1.08536e-06
1.1411e-07
-1.08935e-06
1.14842e-07
-1.09346e-06
1.22053e-07
-1.09715e-06
1.23087e-07
-1.09985e-06
1.11452e-07
-1.10212e-06
9.72553e-08
-1.10426e-06
9.23203e-08
-1.10649e-06
9.96725e-08
-1.10886e-06
1.12962e-07
-1.11159e-06
1.25134e-07
-1.11439e-06
1.28501e-07
-1.11714e-06
1.26195e-07
-1.11959e-06
1.27489e-07
-1.12126e-06
1.16804e-07
-1.1226e-06
1.12902e-07
-1.12418e-06
1.19074e-07
-1.12588e-06
1.27413e-07
-1.12725e-06
1.35412e-07
-1.12799e-06
1.36223e-07
-1.12809e-06
1.24339e-07
-1.12765e-06
1.14583e-07
-1.12669e-06
1.13813e-07
-1.1253e-06
1.16427e-07
-1.12352e-06
1.12119e-07
-1.12119e-06
1.18205e-07
-1.11834e-06
1.20928e-07
-1.11512e-06
1.20595e-07
-1.11144e-06
1.21837e-07
-1.10731e-06
1.23748e-07
-1.10265e-06
1.26235e-07
-1.09762e-06
1.26453e-07
-1.0922e-06
1.2789e-07
-1.08627e-06
1.30885e-07
-1.08002e-06
1.29363e-07
-1.07362e-06
1.29234e-07
-1.06705e-06
1.2649e-07
-1.06064e-06
1.1762e-07
-1.0542e-06
1.13082e-07
-1.0477e-06
1.1054e-07
-1.04105e-06
1.07006e-07
-1.03419e-06
1.06262e-07
-1.02707e-06
1.04449e-07
-1.01977e-06
1.02199e-07
-1.01222e-06
1.0295e-07
-1.00398e-06
1.13491e-07
-9.95176e-07
1.20583e-07
-9.86484e-07
1.16308e-07
-9.78106e-07
1.07132e-07
-9.69622e-07
1.04784e-07
-9.60782e-07
1.05686e-07
-9.51843e-07
1.03406e-07
-9.42978e-07
9.94029e-08
-9.33487e-07
1.02466e-07
-9.22392e-07
1.16309e-07
-9.10525e-07
1.18219e-07
-8.99238e-07
1.09194e-07
-8.88159e-07
1.03327e-07
-8.76855e-07
1.03875e-07
-8.6506e-07
1.05125e-07
-8.52697e-07
1.06545e-07
-8.39782e-07
1.06798e-07
-8.26841e-07
1.04673e-07
-8.14144e-07
9.9969e-08
-8.0095e-07
1.01382e-07
-7.87138e-07
1.02204e-07
-7.73242e-07
9.87591e-08
-7.59432e-07
9.42926e-08
-7.44988e-07
9.5382e-08
-7.30037e-07
9.51016e-08
-7.15293e-07
8.96005e-08
-7.00506e-07
8.60804e-08
-6.85345e-07
8.4694e-08
-6.69705e-07
8.4416e-08
-6.53293e-07
8.54658e-08
-6.3655e-07
8.43639e-08
-6.20446e-07
7.83782e-08
-6.03792e-07
7.84802e-08
-5.85299e-07
8.34774e-08
-5.65742e-07
8.43022e-08
-5.46295e-07
7.87492e-08
-5.2623e-07
7.63497e-08
-5.05644e-07
7.39684e-08
-4.85359e-07
6.93617e-08
-4.65445e-07
6.47857e-08
-4.45558e-07
6.17175e-08
-4.2552e-07
5.86882e-08
-4.04783e-07
5.74593e-08
-3.83327e-07
5.58042e-08
-3.61193e-07
5.49901e-08
-3.35956e-07
5.88748e-08
-3.08384e-07
6.05466e-08
-2.79906e-07
5.76639e-08
-2.50177e-07
5.55188e-08
-2.19998e-07
5.09908e-08
-1.90439e-07
4.55965e-08
-1.59865e-07
4.24434e-08
-1.28278e-07
3.97853e-08
-9.58518e-08
3.64215e-08
-6.3793e-08
3.2233e-08
-3.30052e-08
2.70532e-08
-3.45041e-09
2.26641e-08
2.66561e-08
1.97544e-08
5.71898e-08
1.67643e-08
8.96036e-08
1.54572e-08
1.24619e-07
1.27457e-08
1.60698e-07
1.15153e-08
1.962e-07
8.46911e-09
2.29477e-07
5.50848e-09
2.59025e-07
1.04979e-08
2.88182e-07
8.44542e-10
3.16383e-07
9.90116e-09
3.48039e-07
1.41524e-08
3.77899e-07
7.33138e-09
4.05578e-07
1.29631e-08
4.31678e-07
2.7532e-08
4.56507e-07
3.31484e-08
4.78169e-07
3.43055e-08
4.9442e-07
3.86218e-08
5.06879e-07
4.83943e-08
5.17942e-07
6.16177e-08
5.29435e-07
7.9828e-08
5.37913e-07
9.80127e-08
5.42274e-07
1.0719e-07
5.43594e-07
1.17521e-07
5.39894e-07
1.30938e-07
5.31777e-07
1.39697e-07
5.17877e-07
1.80011e-07
4.93816e-07
2.00063e-07
4.57077e-07
2.15749e-07
2.24083e-07
4.20862e-07
-1.02563e-06
1.97547e-07
-1.03722e-06
1.2246e-07
-1.04782e-06
1.20398e-07
-1.05325e-06
1.07643e-07
-1.05809e-06
1.14079e-07
-1.0622e-06
1.23211e-07
-1.06631e-06
1.28978e-07
-1.07108e-06
1.29535e-07
-1.07561e-06
1.26411e-07
-1.07985e-06
1.25277e-07
-1.08432e-06
1.36014e-07
-1.08894e-06
1.48675e-07
-1.09332e-06
1.43724e-07
-1.09715e-06
1.37908e-07
-1.10088e-06
1.38573e-07
-1.10463e-06
1.47121e-07
-1.10811e-06
1.48554e-07
-1.11077e-06
1.34638e-07
-1.11298e-06
1.17644e-07
-1.11508e-06
1.11616e-07
-1.11729e-06
1.20592e-07
-1.11958e-06
1.36693e-07
-1.12229e-06
1.51608e-07
-1.12503e-06
1.55401e-07
-1.12759e-06
1.52691e-07
-1.13028e-06
1.5443e-07
-1.13265e-06
1.41763e-07
-1.13433e-06
1.36625e-07
-1.1354e-06
1.4327e-07
-1.13628e-06
1.53139e-07
-1.13714e-06
1.62801e-07
-1.13763e-06
1.63579e-07
-1.13752e-06
1.49476e-07
-1.13688e-06
1.37905e-07
-1.13573e-06
1.36969e-07
-1.13413e-06
1.40082e-07
-1.13211e-06
1.34889e-07
-1.12946e-06
1.42073e-07
-1.12627e-06
1.4527e-07
-1.12278e-06
1.44743e-07
-1.11894e-06
1.4623e-07
-1.11472e-06
1.48516e-07
-1.11005e-06
1.51497e-07
-1.10505e-06
1.51834e-07
-1.09972e-06
1.5367e-07
-1.09394e-06
1.57302e-07
-1.08779e-06
1.55479e-07
-1.08141e-06
1.55363e-07
-1.07487e-06
1.52092e-07
-1.06838e-06
1.41407e-07
-1.0619e-06
1.35929e-07
-1.0552e-06
1.32829e-07
-1.04836e-06
1.28575e-07
-1.04131e-06
1.27604e-07
-1.03407e-06
1.25435e-07
-1.02672e-06
1.228e-07
-1.01915e-06
1.23778e-07
-1.01094e-06
1.36354e-07
-1.00225e-06
1.44858e-07
-9.93634e-07
1.39809e-07
-9.85272e-07
1.28956e-07
-9.76707e-07
1.26096e-07
-9.67736e-07
1.27135e-07
-9.58648e-07
1.24363e-07
-9.49574e-07
1.19555e-07
-9.3993e-07
1.23151e-07
-9.28639e-07
1.39739e-07
-9.16676e-07
1.42078e-07
-9.05241e-07
1.31232e-07
-8.9404e-07
1.24152e-07
-8.82698e-07
1.24723e-07
-8.70891e-07
1.26092e-07
-8.58534e-07
1.27802e-07
-8.45631e-07
1.28103e-07
-8.32699e-07
1.25543e-07
-8.19948e-07
1.19746e-07
-8.067e-07
1.2142e-07
-7.9279e-07
1.22324e-07
-7.78825e-07
1.18207e-07
-7.64939e-07
1.12878e-07
-7.50439e-07
1.1413e-07
-7.35398e-07
1.13857e-07
-7.20536e-07
1.0729e-07
-7.05634e-07
1.03081e-07
-6.90426e-07
1.01386e-07
-6.74727e-07
1.00991e-07
-6.5826e-07
1.02198e-07
-6.41443e-07
1.00853e-07
-6.25214e-07
9.35976e-08
-6.08421e-07
9.35591e-08
-5.89839e-07
9.94505e-08
-5.70161e-07
1.00468e-07
-5.50551e-07
9.39448e-08
-5.30267e-07
9.12065e-08
-5.0943e-07
8.84404e-08
-4.88905e-07
8.2929e-08
-4.68712e-07
7.74083e-08
-4.48564e-07
7.36388e-08
-4.28301e-07
6.99869e-08
-4.0731e-07
6.84115e-08
-3.85566e-07
6.63331e-08
-3.63169e-07
6.51453e-08
-3.37651e-07
6.94749e-08
-3.09674e-07
7.1226e-08
-2.80786e-07
6.76857e-08
-2.50519e-07
6.48418e-08
-2.19931e-07
5.93851e-08
-1.9e-07
5.28997e-08
-1.59092e-07
4.90154e-08
-1.27232e-07
4.57501e-08
-9.46021e-08
4.13723e-08
-6.22122e-08
3.62784e-08
-3.09261e-08
3.0503e-08
-1.08592e-09
2.56434e-08
2.96573e-08
2.22472e-08
6.08474e-08
1.91136e-08
9.4056e-08
1.74153e-08
1.29507e-07
1.47389e-08
1.66355e-07
1.29035e-08
2.02317e-07
9.86304e-09
2.35797e-07
6.51883e-09
2.66504e-07
1.10514e-08
2.94854e-07
2.23364e-09
3.23433e-07
1.1946e-08
3.57856e-07
1.24397e-08
3.86071e-07
1.28667e-08
4.12913e-07
1.8113e-08
4.40874e-07
3.02633e-08
4.69114e-07
3.47572e-08
4.88868e-07
4.25225e-08
5.02593e-07
5.07088e-08
5.15947e-07
6.02047e-08
5.29107e-07
7.44355e-08
5.40925e-07
9.35999e-08
5.5055e-07
1.1314e-07
5.52756e-07
1.29395e-07
5.52721e-07
1.4291e-07
5.47477e-07
1.59934e-07
5.35971e-07
1.73935e-07
5.26385e-07
2.12875e-07
5.07663e-07
2.46603e-07
4.75249e-07
2.70025e-07
2.61381e-07
4.572e-07
-1.07181e-06
2.30335e-07
-1.08348e-06
1.45859e-07
-1.09403e-06
1.42897e-07
-1.09937e-06
1.27789e-07
-1.10396e-06
1.3441e-07
-1.10839e-06
1.44872e-07
-1.11221e-06
1.51552e-07
-1.11714e-06
1.51792e-07
-1.1217e-06
1.48084e-07
-1.12619e-06
1.4674e-07
-1.13128e-06
1.59854e-07
-1.13602e-06
1.74791e-07
-1.14027e-06
1.6934e-07
-1.14391e-06
1.62332e-07
-1.1473e-06
1.63445e-07
-1.15036e-06
1.73392e-07
-1.15335e-06
1.75052e-07
-1.15582e-06
1.5852e-07
-1.15778e-06
1.38708e-07
-1.15951e-06
1.31596e-07
-1.16125e-06
1.42166e-07
-1.1631e-06
1.61135e-07
-1.16541e-06
1.78422e-07
-1.1679e-06
1.82648e-07
-1.16995e-06
1.79427e-07
-1.17168e-06
1.81266e-07
-1.1731e-06
1.66286e-07
-1.17443e-06
1.60428e-07
-1.1757e-06
1.6827e-07
-1.17671e-06
1.79715e-07
-1.17735e-06
1.90845e-07
-1.17756e-06
1.915e-07
-1.1771e-06
1.75124e-07
-1.17608e-06
1.61657e-07
-1.17466e-06
1.60582e-07
-1.17276e-06
1.64203e-07
-1.17038e-06
1.58154e-07
-1.16737e-06
1.66438e-07
-1.16385e-06
1.70087e-07
-1.15997e-06
1.69311e-07
-1.15583e-06
1.71127e-07
-1.1512e-06
1.73582e-07
-1.14622e-06
1.7715e-07
-1.14079e-06
1.77531e-07
-1.13504e-06
1.79774e-07
-1.12873e-06
1.83973e-07
-1.12202e-06
1.81831e-07
-1.11507e-06
1.81672e-07
-1.10798e-06
1.77877e-07
-1.10105e-06
1.65474e-07
-1.09417e-06
1.59076e-07
-1.08708e-06
1.55523e-07
-1.07996e-06
1.50632e-07
-1.07256e-06
1.49386e-07
-1.06504e-06
1.46889e-07
-1.05734e-06
1.43759e-07
-1.04949e-06
1.44994e-07
-1.04089e-06
1.59539e-07
-1.03166e-06
1.69394e-07
-1.02252e-06
1.63655e-07
-1.01364e-06
1.51165e-07
-1.00462e-06
1.47895e-07
-9.9517e-07
1.49116e-07
-9.85572e-07
1.45808e-07
-9.75997e-07
1.40093e-07
-9.65885e-07
1.4426e-07
-9.54043e-07
1.63592e-07
-9.41587e-07
1.66401e-07
-9.29749e-07
1.53771e-07
-9.18208e-07
1.45421e-07
-9.06547e-07
1.45913e-07
-8.9437e-07
1.47342e-07
-8.81642e-07
1.49375e-07
-8.68323e-07
1.49727e-07
-8.54908e-07
1.46651e-07
-8.41735e-07
1.39825e-07
-8.27987e-07
1.41695e-07
-8.13609e-07
1.4272e-07
-7.99192e-07
1.37935e-07
-7.84857e-07
1.31726e-07
-7.69897e-07
1.33135e-07
-7.5433e-07
1.32853e-07
-7.38917e-07
1.25169e-07
-7.23529e-07
1.20307e-07
-7.07843e-07
1.18307e-07
-6.91645e-07
1.17793e-07
-6.74616e-07
1.1913e-07
-6.57139e-07
1.17448e-07
-6.40277e-07
1.08919e-07
-6.22861e-07
1.08736e-07
-6.03655e-07
1.15548e-07
-5.83309e-07
1.16711e-07
-5.63128e-07
1.0927e-07
-5.42304e-07
1.06196e-07
-5.20965e-07
1.02991e-07
-4.99933e-07
9.65081e-08
-4.79247e-07
9.00571e-08
-4.58591e-07
8.55994e-08
-4.37822e-07
8.13528e-08
-4.16303e-07
7.94694e-08
-3.93994e-07
7.70303e-08
-3.70983e-07
7.54789e-08
-3.4481e-07
8.02942e-08
-3.1612e-07
8.20453e-08
-2.86489e-07
7.76652e-08
-2.55463e-07
7.40341e-08
-2.24045e-07
6.75438e-08
-1.93277e-07
5.98464e-08
-1.61605e-07
5.51865e-08
-1.2895e-07
5.11992e-08
-9.55631e-08
4.59087e-08
-6.24405e-08
3.97542e-08
-3.04453e-08
3.29934e-08
-2.43843e-11
2.72543e-08
3.16891e-08
2.35087e-08
6.39494e-08
2.0239e-08
9.81832e-08
1.82405e-08
1.34865e-07
1.56024e-08
1.73048e-07
1.34591e-08
2.10185e-07
1.07982e-08
2.45144e-07
6.79173e-09
2.76392e-07
1.19299e-08
3.06469e-07
2.99194e-09
3.35906e-07
1.41136e-08
3.71865e-07
1.03938e-08
4.00571e-07
1.87383e-08
4.28842e-07
2.22581e-08
4.56116e-07
3.43453e-08
4.84664e-07
3.68926e-08
5.07392e-07
4.78999e-08
5.22476e-07
6.11689e-08
5.3627e-07
7.20952e-08
5.46143e-07
8.96421e-08
5.56994e-07
1.07912e-07
5.69298e-07
1.25802e-07
5.72401e-07
1.50726e-07
5.69619e-07
1.70674e-07
5.65882e-07
1.85739e-07
5.57518e-07
2.05471e-07
5.47074e-07
2.43585e-07
5.3264e-07
2.84826e-07
5.16548e-07
3.07035e-07
3.01234e-07
4.94608e-07
-1.09593e-06
2.63583e-07
-1.1069e-06
1.69395e-07
-1.1179e-06
1.66416e-07
-1.12284e-06
1.48162e-07
-1.12718e-06
1.55999e-07
-1.1312e-06
1.67539e-07
-1.13453e-06
1.75023e-07
-1.13849e-06
1.74313e-07
-1.14294e-06
1.6997e-07
-1.14717e-06
1.68487e-07
-1.15186e-06
1.83341e-07
-1.15665e-06
2.00204e-07
-1.16066e-06
1.94059e-07
-1.16394e-06
1.86214e-07
-1.16718e-06
1.87835e-07
-1.16996e-06
1.99324e-07
-1.17261e-06
2.01416e-07
-1.1752e-06
1.82639e-07
-1.17705e-06
1.59998e-07
-1.17861e-06
1.52037e-07
-1.1802e-06
1.64074e-07
-1.18199e-06
1.8558e-07
-1.18402e-06
2.05105e-07
-1.18587e-06
2.09928e-07
-1.18752e-06
2.06058e-07
-1.18874e-06
2.07706e-07
-1.18955e-06
1.90457e-07
-1.19027e-06
1.8413e-07
-1.19127e-06
1.93593e-07
-1.19227e-06
2.06644e-07
-1.19283e-06
2.18996e-07
-1.19282e-06
2.19569e-07
-1.19205e-06
2.00762e-07
-1.19079e-06
1.85363e-07
-1.18916e-06
1.8417e-07
-1.18699e-06
1.88261e-07
-1.18423e-06
1.81374e-07
-1.18095e-06
1.90862e-07
-1.17706e-06
1.94837e-07
-1.17282e-06
1.93787e-07
-1.16825e-06
1.95779e-07
-1.16334e-06
1.98535e-07
-1.15792e-06
2.02528e-07
-1.15209e-06
2.02982e-07
-1.14596e-06
2.05678e-07
-1.1393e-06
2.10467e-07
-1.13234e-06
2.08107e-07
-1.12523e-06
2.07931e-07
-1.11793e-06
2.03579e-07
-1.11078e-06
1.89454e-07
-1.10367e-06
1.82167e-07
-1.09632e-06
1.78122e-07
-1.08876e-06
1.72388e-07
-1.08109e-06
1.71011e-07
-1.07324e-06
1.68111e-07
-1.06551e-06
1.64804e-07
-1.05759e-06
1.66233e-07
-1.04906e-06
1.82876e-07
-1.03971e-06
1.94025e-07
-1.03042e-06
1.87588e-07
-1.02123e-06
1.734e-07
-1.01181e-06
1.69688e-07
-1.00192e-06
1.71038e-07
-9.91928e-07
1.6723e-07
-9.82046e-07
1.60603e-07
-9.71655e-07
1.65282e-07
-9.59586e-07
1.87357e-07
-9.46947e-07
1.90622e-07
-9.34926e-07
1.76198e-07
-9.23236e-07
1.66551e-07
-9.11454e-07
1.6694e-07
-8.9912e-07
1.68433e-07
-8.86222e-07
1.70819e-07
-8.72703e-07
1.7123e-07
-8.59133e-07
1.67663e-07
-8.45759e-07
1.59731e-07
-8.31828e-07
1.61768e-07
-8.17253e-07
1.62915e-07
-8.0268e-07
1.57528e-07
-7.8819e-07
1.50454e-07
-7.73075e-07
1.52031e-07
-7.57284e-07
1.51702e-07
-7.41745e-07
1.42986e-07
-7.26204e-07
1.37413e-07
-7.10393e-07
1.35116e-07
-6.94011e-07
1.34446e-07
-6.76847e-07
1.35995e-07
-6.5923e-07
1.33999e-07
-6.4225e-07
1.2424e-07
-6.24667e-07
1.23875e-07
-6.05248e-07
1.31533e-07
-5.84684e-07
1.3275e-07
-5.64307e-07
1.24319e-07
-5.43307e-07
1.20866e-07
-5.21858e-07
1.17174e-07
-5.00775e-07
1.0968e-07
-4.80066e-07
1.02303e-07
-4.59371e-07
9.7157e-08
-4.38528e-07
9.2331e-08
-4.1689e-07
9.01648e-08
-3.94463e-07
8.74286e-08
-3.71311e-07
8.54733e-08
-3.44947e-07
9.07178e-08
-3.1598e-07
9.24517e-08
-2.85997e-07
8.72702e-08
-2.54685e-07
8.29076e-08
-2.23101e-07
7.53619e-08
-1.92126e-07
6.63456e-08
-1.60321e-07
6.08593e-08
-1.27494e-07
5.60072e-08
-9.40021e-08
4.97825e-08
-6.0822e-08
4.26135e-08
-2.86481e-08
3.49234e-08
2.38714e-09
2.84862e-08
3.39931e-08
2.4413e-08
6.65082e-08
2.10085e-08
1.01069e-07
1.86532e-08
1.37805e-07
1.62478e-08
1.76519e-07
1.33106e-08
2.13163e-07
1.21065e-08
2.49501e-07
5.62677e-09
2.8024e-07
1.3143e-08
3.09952e-07
3.54231e-09
3.41141e-07
1.41215e-08
3.74516e-07
1.08501e-08
4.02888e-07
2.43559e-08
4.34804e-07
2.20509e-08
4.64585e-07
3.51742e-08
4.88414e-07
4.30321e-08
5.09778e-07
5.38719e-08
5.26382e-07
6.91326e-08
5.42239e-07
8.06654e-08
5.53367e-07
1.02588e-07
5.65453e-07
1.20356e-07
5.76331e-07
1.39358e-07
5.80199e-07
1.704e-07
5.77693e-07
1.96583e-07
5.75614e-07
2.0946e-07
5.67932e-07
2.33956e-07
5.59512e-07
2.67757e-07
5.49139e-07
3.17342e-07
5.37223e-07
3.36458e-07
3.37015e-07
5.17795e-07
-1.1885e-06
2.95806e-07
-1.19892e-06
1.90226e-07
-1.20887e-06
1.85411e-07
-1.21526e-06
1.69645e-07
-1.21956e-06
1.80023e-07
-1.22299e-06
1.92052e-07
-1.22654e-06
2.00568e-07
-1.2307e-06
1.99477e-07
-1.23515e-06
1.93871e-07
-1.23915e-06
1.91924e-07
-1.24343e-06
2.0839e-07
-1.24819e-06
2.27098e-07
-1.25209e-06
2.20303e-07
-1.25519e-06
2.11386e-07
-1.25818e-06
2.13349e-07
-1.26082e-06
2.26329e-07
-1.26312e-06
2.28896e-07
-1.26521e-06
2.07329e-07
-1.26686e-06
1.81711e-07
-1.26789e-06
1.72641e-07
-1.26906e-06
1.86357e-07
-1.27034e-06
2.10515e-07
-1.27199e-06
2.32698e-07
-1.27389e-06
2.38516e-07
-1.27612e-06
2.34825e-07
-1.27822e-06
2.36942e-07
-1.28001e-06
2.17308e-07
-1.28046e-06
2.09458e-07
-1.28021e-06
2.19495e-07
-1.2794e-06
2.33582e-07
-1.27866e-06
2.47497e-07
-1.27753e-06
2.48394e-07
-1.276e-06
2.27347e-07
-1.27414e-06
2.10134e-07
-1.27188e-06
2.0886e-07
-1.26903e-06
2.13528e-07
-1.26554e-06
2.0577e-07
-1.26145e-06