/*--------------------------------*- C++ -*----------------------------------*\
| =========                 |                                                 |
| \\      /  F ield         | OpenFOAM: The Open Source CFD Toolbox           |
|  \\    /   O peration     | Version:  2212                                  |
|   \\  /    A nd           | Website:  www.openfoam.com                      |
|    \\/     M anipulation  |                                                 |
\*---------------------------------------------------------------------------*/
FoamFile
{
    version     2.0;
    format      ascii;
    arch        "LSB;label=32;scalar=64";
    class       volScalarField;
    location    "6.4e-05";
    object      epsilon;
}
// * * * * * * * * * * * * * * * * * * * * * * * * * * * * * * * * * * * * * //

dimensions      [0 2 -3 0 0 0 0];

internalField   nonuniform List<scalar> 
17100
(
3.03126e+08
1.73496e+07
3.67275e+06
1.76306e+06
1.11212e+06
806605
642828
546200
484669
443136
413733
391745
374919
361796
351397
343052
336285
330756
326214
322470
319383
316843
314765
313083
311745
310709
309940
309411
309093
308966
309403
309974
310740
311740
313012
314593
316525
318891
321767
325245
329443
334517
340670
348172
357451
369105
383977
403364
429334
465372
517721
598781
738578
1.02798e+06
1.90013e+06
8.31047e+06
1.91128e+08
4.02643e+08
1.36852e+08
4.66338e+07
1.6652e+07
7.21013e+06
3.8629e+06
2.44226e+06
1.73195e+06
1.32977e+06
1.0804e+06
914987
799480
715633
652906
604853
567347
537638
513836
494606
478984
466259
455901
447509
440779
435481
431441
428535
426680
425615
425247
426284
428247
431186
435182
440354
446864
454924
464816
476905
491671
509753
532012
559634
594283
638368
695468
771087
874067
1.01938e+06
1.23404e+06
1.57083e+06
2.14538e+06
3.264e+06
5.92369e+06
1.41928e+07
4.69132e+07
1.77802e+08
1.95474e+08
8.83239e+07
4.62861e+07
2.42274e+07
1.32238e+07
7.83255e+06
5.03594e+06
3.48617e+06
2.57391e+06
2.00375e+06
1.62805e+06
1.36921e+06
1.18419e+06
1.04787e+06
944939
865633
803536
754290
714856
683067
657348
636535
619761
606370
595872
587895
582169
578497
576747
576286
578291
582199
588108
596186
606679
619928
636389
656666
681565
712159
749895
796757
855509
930083
1.02622e+06
1.15255e+06
1.32243e+06
1.55736e+06
1.89337e+06
2.39362e+06
3.17402e+06
4.46035e+06
6.74464e+06
1.11761e+07
2.10166e+07
4.66205e+07
1.15166e+08
1.22622e+08
6.00974e+07
3.50962e+07
2.20294e+07
1.41622e+07
9.36016e+06
6.50802e+06
4.76086e+06
3.62909e+06
2.86941e+06
2.3434e+06
1.96848e+06
1.69423e+06
1.48902e+06
1.33243e+06
1.21095e+06
1.1154e+06
1.0394e+06
978423
929217
889386
857151
831181
810468
794253
781966
773189
767625
765084
764643
767942
774226
783658
796507
813159
834146
860181
892207
931473
979642
1.03894e+06
1.1124e+06
1.20419e+06
1.32016e+06
1.46864e+06
1.66181e+06
1.91781e+06
2.26436e+06
2.74479e+06
3.42854e+06
4.42917e+06
5.93862e+06
8.36194e+06
1.26378e+07
2.08867e+07
3.81724e+07
8.63183e+07
9.05657e+07
4.61943e+07
2.82513e+07
1.89399e+07
1.32916e+07
9.57145e+06
7.05975e+06
5.39449e+06
4.27066e+06
3.48104e+06
2.90675e+06
2.4808e+06
2.15904e+06
1.91197e+06
1.71948e+06
1.56763e+06
1.44657e+06
1.34922e+06
1.27044e+06
1.20641e+06
1.15428e+06
1.11192e+06
1.07768e+06
1.05032e+06
1.02889e+06
1.01268e+06
1.00116e+06
993954
990831
990515
995277
1.00406e+06
1.01708e+06
1.03468e+06
1.05736e+06
1.08579e+06
1.12085e+06
1.16373e+06
1.21595e+06
1.27951e+06
1.35705e+06
1.4521e+06
1.56938e+06
1.71533e+06
1.89881e+06
2.13225e+06
2.43337e+06
2.82778e+06
3.3533e+06
4.0668e+06
5.05726e+06
6.50065e+06
8.71825e+06
1.22446e+07
1.84404e+07
3.17545e+07
6.88205e+07
7.21287e+07
3.7701e+07
2.36351e+07
1.63889e+07
1.20229e+07
9.13293e+06
7.10708e+06
5.63871e+06
4.59468e+06
3.84439e+06
3.29043e+06
2.86677e+06
2.53794e+06
2.27929e+06
2.07348e+06
1.90812e+06
1.77419e+06
1.66502e+06
1.57563e+06
1.50226e+06
1.44205e+06
1.39279e+06
1.35278e+06
1.32069e+06
1.29553e+06
1.27651e+06
1.26308e+06
1.25483e+06
1.25152e+06
1.25158e+06
1.2578e+06
1.26882e+06
1.28492e+06
1.30646e+06
1.33399e+06
1.36823e+06
1.4101e+06
1.46084e+06
1.52199e+06
1.59559e+06
1.68421e+06
1.79126e+06
1.92114e+06
2.07973e+06
2.27488e+06
2.51725e+06
2.82157e+06
3.20851e+06
3.70783e+06
4.36752e+06
5.27874e+06
6.55409e+06
8.35699e+06
1.1125e+07
1.60691e+07
2.68336e+07
5.63854e+07
5.89623e+07
3.13854e+07
1.9988e+07
1.41356e+07
1.0644e+07
8.35243e+06
6.75417e+06
5.58516e+06
4.69606e+06
4.02359e+06
3.51934e+06
3.13235e+06
2.82572e+06
2.5798e+06
2.38056e+06
2.2178e+06
2.08398e+06
1.97343e+06
1.88185e+06
1.8059e+06
1.74303e+06
1.69122e+06
1.6489e+06
1.61485e+06
1.58809e+06
1.56789e+06
1.55369e+06
1.54508e+06
1.54177e+06
1.54362e+06
1.55079e+06
1.56334e+06
1.58146e+06
1.60548e+06
1.6359e+06
1.67336e+06
1.71872e+06
1.77308e+06
1.83782e+06
1.9147e+06
2.00596e+06
2.11444e+06
2.24379e+06
2.39878e+06
2.58567e+06
2.8129e+06
3.09203e+06
3.43946e+06
3.87873e+06
4.45817e+06
5.22208e+06
6.23127e+06
7.6624e+06
9.90234e+06
1.39671e+07
2.28698e+07
4.68585e+07
4.81678e+07
2.60604e+07
1.68113e+07
1.20635e+07
9.25205e+06
7.43338e+06
6.18215e+06
5.28039e+06
4.59867e+06
4.06055e+06
3.63239e+06
3.29956e+06
3.03355e+06
2.81704e+06
2.63908e+06
2.49169e+06
2.36896e+06
2.26636e+06
2.18045e+06
2.10853e+06
2.04851e+06
1.99872e+06
1.95785e+06
1.92488e+06
1.89897e+06
1.8795e+06
1.86598e+06
1.85807e+06
1.85535e+06
1.8581e+06
1.86615e+06
1.87957e+06
1.89852e+06
1.9233e+06
1.9543e+06
1.99204e+06
2.03723e+06
2.09073e+06
2.15364e+06
2.22733e+06
2.31352e+06
2.41439e+06
2.53273e+06
2.67209e+06
2.83715e+06
3.03422e+06
3.27194e+06
3.56252e+06
3.92972e+06
4.39676e+06
4.98996e+06
5.78312e+06
6.93245e+06
8.76319e+06
1.21289e+07
1.95183e+07
3.90812e+07
3.88998e+07
2.14045e+07
1.40001e+07
1.02054e+07
7.99163e+06
6.57222e+06
5.60215e+06
4.9067e+06
4.38817e+06
3.98585e+06
3.65786e+06
3.3902e+06
3.17577e+06
2.99923e+06
2.85244e+06
2.72947e+06
2.62594e+06
2.5385e+06
2.46459e+06
2.40222e+06
2.3498e+06
2.30609e+06
2.27009e+06
2.24102e+06
2.21825e+06
2.20129e+06
2.18979e+06
2.18346e+06
2.18134e+06
2.18493e+06
2.19341e+06
2.20683e+06
2.22531e+06
2.24905e+06
2.27834e+06
2.31354e+06
2.35516e+06
2.4038e+06
2.46024e+06
2.52544e+06
2.60062e+06
2.68732e+06
2.78751e+06
2.90378e+06
3.03959e+06
3.19968e+06
3.39078e+06
3.62275e+06
3.91283e+06
4.26895e+06
4.72765e+06
5.35655e+06
6.28016e+06
7.76994e+06
1.05391e+07
1.6631e+07
3.24839e+07
3.10127e+07
1.73965e+07
1.15711e+07
8.59936e+06
6.88244e+06
5.79431e+06
5.05973e+06
4.53914e+06
4.1543e+06
3.8594e+06
3.62548e+06
3.42865e+06
3.26859e+06
3.13604e+06
3.02507e+06
2.93144e+06
2.852e+06
2.7844e+06
2.72686e+06
2.67798e+06
2.6367e+06
2.60214e+06
2.57366e+06
2.55071e+06
2.53286e+06
2.5198e+06
2.51126e+06
2.50705e+06
2.5057e+06
2.50995e+06
2.51833e+06
2.53085e+06
2.54758e+06
2.56863e+06
2.59415e+06
2.62439e+06
2.65963e+06
2.70025e+06
2.74672e+06
2.79966e+06
2.85985e+06
2.92832e+06
3.00642e+06
3.09599e+06
3.19955e+06
3.3207e+06
3.46466e+06
3.63945e+06
3.85453e+06
4.12251e+06
4.47847e+06
4.97432e+06
5.71494e+06
6.92607e+06
9.19379e+06
1.41793e+07
2.69062e+07
2.45871e+07
1.41051e+07
9.57096e+06
7.26813e+06
5.94943e+06
5.12535e+06
4.57923e+06
4.20035e+06
3.92624e+06
3.72029e+06
3.56046e+06
3.43183e+06
3.32288e+06
3.23363e+06
3.15913e+06
3.09628e+06
3.04284e+06
2.99722e+06
2.95823e+06
2.92499e+06
2.89683e+06
2.87326e+06
2.85389e+06
2.83843e+06
2.82664e+06
2.81833e+06
2.81341e+06
2.81095e+06
2.81062e+06
2.81541e+06
2.8232e+06
2.83402e+06
2.84791e+06
2.86491e+06
2.88509e+06
2.90856e+06
2.93544e+06
2.96592e+06
3.00025e+06
3.03876e+06
3.08193e+06
3.13041e+06
3.18514e+06
3.24746e+06
3.31927e+06
3.40342e+06
3.50408e+06
3.6301e+06
3.78207e+06
3.98084e+06
4.25292e+06
4.64273e+06
5.23835e+06
6.22717e+06
8.0887e+06
1.21633e+07
2.23435e+07
1.96283e+07
1.155e+07
8.01414e+06
6.22289e+06
5.2056e+06
4.58025e+06
4.17642e+06
3.90591e+06
3.71821e+06
3.58343e+06
3.48343e+06
3.40692e+06
3.34438e+06
3.29512e+06
3.25479e+06
3.22132e+06
3.19321e+06
3.16938e+06
3.14906e+06
3.13176e+06
3.11716e+06
3.10503e+06
3.09523e+06
3.08767e+06
3.08236e+06
3.07874e+06
3.07664e+06
3.07588e+06
3.07871e+06
3.08341e+06
3.08995e+06
3.09833e+06
3.10853e+06
3.12055e+06
3.1344e+06
3.15007e+06
3.16757e+06
3.18694e+06
3.20827e+06
3.23173e+06
3.25758e+06
3.28626e+06
3.31845e+06
3.35521e+06
3.39814e+06
3.44972e+06
3.5139e+06
3.59375e+06
3.69883e+06
3.84366e+06
4.05094e+06
4.35926e+06
4.84327e+06
5.65947e+06
7.20184e+06
1.05515e+07
1.87312e+07
1.59641e+07
9.65647e+06
6.85962e+06
5.44052e+06
4.64011e+06
4.1566e+06
3.85422e+06
3.66162e+06
3.5371e+06
3.45559e+06
3.4017e+06
3.36593e+06
3.34209e+06
3.32475e+06
3.31313e+06
3.30526e+06
3.29992e+06
3.29587e+06
3.29251e+06
3.28978e+06
3.28766e+06
3.28609e+06
3.285e+06
3.28435e+06
3.28407e+06
3.28497e+06
3.28791e+06
3.29107e+06
3.29483e+06
3.29918e+06
3.30413e+06
3.30968e+06
3.31582e+06
3.32251e+06
3.32975e+06
3.33749e+06
3.34563e+06
3.35402e+06
3.36273e+06
3.37184e+06
3.38154e+06
3.39212e+06
3.40412e+06
3.41845e+06
3.4365e+06
3.46039e+06
3.49336e+06
3.54031e+06
3.60921e+06
3.7127e+06
3.87106e+06
4.11808e+06
4.51753e+06
5.20069e+06
6.49578e+06
9.27256e+06
1.587e+07
1.3319e+07
8.28415e+06
6.02101e+06
4.86657e+06
4.2205e+06
3.8363e+06
3.60402e+06
3.46503e+06
3.38426e+06
3.34009e+06
3.31896e+06
3.31441e+06
3.31674e+06
3.32448e+06
3.33534e+06
3.34744e+06
3.35994e+06
3.37208e+06
3.38347e+06
3.39397e+06
3.40351e+06
3.4121e+06
3.41977e+06
3.42663e+06
3.4328e+06
3.43845e+06
3.4437e+06
3.44846e+06
3.45273e+06
3.45649e+06
3.45972e+06
3.46241e+06
3.46448e+06
3.46586e+06
3.46682e+06
3.46746e+06
3.46778e+06
3.46584e+06
3.46309e+06
3.45949e+06
3.45515e+06
3.45032e+06
3.44552e+06
3.44159e+06
3.43983e+06
3.44218e+06
3.45197e+06
3.47382e+06
3.51543e+06
3.58829e+06
3.71076e+06
3.91288e+06
4.25021e+06
4.83534e+06
5.94505e+06
8.2986e+06
1.37785e+07
1.13903e+07
7.27856e+06
5.40867e+06
4.44767e+06
3.91211e+06
3.59706e+06
3.41248e+06
3.30948e+06
3.25802e+06
3.23916e+06
3.24161e+06
3.2556e+06
3.27697e+06
3.30232e+06
3.32936e+06
3.35688e+06
3.38365e+06
3.40848e+06
3.43133e+06
3.45225e+06
3.47109e+06
3.48783e+06
3.50258e+06
3.51543e+06
3.52649e+06
3.53587e+06
3.54367e+06
3.54992e+06
3.55467e+06
3.55793e+06
3.55969e+06
3.55994e+06
3.55865e+06
3.55579e+06
3.55132e+06
3.54516e+06
3.53719e+06
3.52721e+06
3.51527e+06
3.50144e+06
3.4859e+06
3.4687e+06
3.45062e+06
3.43252e+06
3.41575e+06
3.4024e+06
3.39571e+06
3.39717e+06
3.41928e+06
3.47007e+06
3.56635e+06
3.73516e+06
4.02533e+06
4.53446e+06
5.49766e+06
7.51471e+06
1.21062e+07
1.00166e+07
6.5509e+06
4.96085e+06
4.13995e+06
3.68226e+06
3.41603e+06
3.26452e+06
3.18563e+06
3.15281e+06
3.15303e+06
3.16853e+06
3.19581e+06
3.22972e+06
3.26691e+06
3.30509e+06
3.34275e+06
3.37877e+06
3.41314e+06
3.44513e+06
3.47432e+06
3.50044e+06
3.52321e+06
3.54331e+06
3.56074e+06
3.57557e+06
3.58787e+06
3.59772e+06
3.60519e+06
3.61032e+06
3.61313e+06
3.61362e+06
3.61181e+06
3.60764e+06
3.60109e+06
3.59208e+06
3.58056e+06
3.56647e+06
3.54955e+06
3.52998e+06
3.50779e+06
3.48315e+06
3.45667e+06
3.42862e+06
3.39993e+06
3.37196e+06
3.34677e+06
3.32738e+06
3.31808e+06
3.32339e+06
3.35799e+06
3.43493e+06
3.57847e+06
3.83181e+06
4.28003e+06
5.12447e+06
6.87017e+06
1.07647e+07
8.95897e+06
5.98388e+06
4.61133e+06
3.90004e+06
3.50269e+06
3.27418e+06
3.14726e+06
3.08583e+06
3.06701e+06
3.0756e+06
3.10121e+06
3.13733e+06
3.17941e+06
3.22434e+06
3.26992e+06
3.31468e+06
3.35759e+06
3.39801e+06
3.43542e+06
3.46949e+06
3.50035e+06
3.52828e+06
3.55266e+06
3.57363e+06
3.59131e+06
3.6058e+06
3.61717e+06
3.6255e+06
3.63083e+06
3.63319e+06
3.63259e+06
3.62902e+06
3.62245e+06
3.61285e+06
3.60014e+06
3.58427e+06
3.56517e+06
3.54303e+06
3.51766e+06
3.4892e+06
3.45787e+06
3.42407e+06
3.3884e+06
3.35174e+06
3.31548e+06
3.28161e+06
3.25304e+06
3.23402e+06
3.2306e+06
3.25275e+06
3.31468e+06
3.43837e+06
3.66216e+06
4.06065e+06
4.80771e+06
6.33314e+06
9.67683e+06
8.1437e+06
5.53981e+06
4.33527e+06
3.70994e+06
3.36046e+06
3.16028e+06
3.05135e+06
3.00218e+06
2.99294e+06
3.0084e+06
3.03989e+06
3.08135e+06
3.12848e+06
3.17826e+06
3.22855e+06
3.27786e+06
3.32517e+06
3.36977e+06
3.41119e+06
3.44916e+06
3.48353e+06
3.51423e+06
3.54119e+06
3.56441e+06
3.58396e+06
3.59987e+06
3.61221e+06
3.62102e+06
3.62635e+06
3.62821e+06
3.6266e+06
3.62153e+06
3.61296e+06
3.60086e+06
3.5852e+06
3.56595e+06
3.54308e+06
3.51662e+06
3.48662e+06
3.45323e+06
3.41668e+06
3.37741e+06
3.33603e+06
3.2935e+06
3.2512e+06
3.21112e+06
3.17611e+06
3.15025e+06
3.13938e+06
3.15231e+06
3.20291e+06
3.31099e+06
3.51072e+06
3.86784e+06
4.53363e+06
5.87762e+06
8.77954e+06
7.4999e+06
5.18191e+06
4.11018e+06
3.55381e+06
3.24296e+06
3.06537e+06
2.97027e+06
2.92941e+06
2.9284e+06
2.94767e+06
2.98275e+06
3.02751e+06
3.07773e+06
3.13046e+06
3.18362e+06
3.23574e+06
3.2858e+06
3.33306e+06
3.37704e+06
3.41743e+06
3.45401e+06
3.48667e+06
3.51536e+06
3.54006e+06
3.56078e+06
3.57755e+06
3.59041e+06
3.59938e+06
3.6045e+06
3.60577e+06
3.60319e+06
3.59675e+06
3.58645e+06
3.57225e+06
3.55413e+06
3.53208e+06
3.50611e+06
3.47626e+06
3.44262e+06
3.40536e+06
3.36478e+06
3.32132e+06
3.27565e+06
3.22875e+06
3.18201e+06
3.13743e+06
3.09786e+06
3.06738e+06
3.05175e+06
3.05546e+06
3.09802e+06
3.19381e+06
3.3736e+06
3.69575e+06
4.29296e+06
5.48613e+06
8.02944e+06
6.98043e+06
4.88731e+06
3.92238e+06
3.42216e+06
3.14287e+06
2.98375e+06
2.89994e+06
2.86642e+06
2.86805e+06
2.89085e+06
2.92846e+06
2.97524e+06
3.02723e+06
3.08162e+06
3.1364e+06
3.19013e+06
3.24179e+06
3.29063e+06
3.33616e+06
3.378e+06
3.41594e+06
3.44983e+06
3.47958e+06
3.50515e+06
3.52653e+06
3.54373e+06
3.55676e+06
3.56563e+06
3.57036e+06
3.57095e+06
3.5674e+06
3.55971e+06
3.54785e+06
3.53182e+06
3.51161e+06
3.48722e+06
3.45869e+06
3.42608e+06
3.38952e+06
3.34922e+06
3.30549e+06
3.25882e+06
3.20991e+06
3.15974e+06
3.10972e+06
3.06181e+06
3.01881e+06
2.98466e+06
2.96506e+06
2.96429e+06
2.99995e+06
3.08531e+06
3.24812e+06
3.54039e+06
4.0794e+06
5.14656e+06
7.3966e+06
6.5563e+06
4.64137e+06
3.76288e+06
3.30866e+06
3.05535e+06
2.9113e+06
2.83643e+06
2.80838e+06
2.81213e+06
2.83715e+06
2.87614e+06
2.92389e+06
2.97667e+06
3.0318e+06
3.08733e+06
3.14184e+06
3.19429e+06
3.24396e+06
3.2903e+06
3.33294e+06
3.37162e+06
3.40617e+06
3.43647e+06
3.46247e+06
3.48412e+06
3.50142e+06
3.51435e+06
3.52292e+06
3.52712e+06
3.52697e+06
3.52245e+06
3.51357e+06
3.5003e+06
3.48265e+06
3.46062e+06
3.43425e+06
3.40358e+06
3.36871e+06
3.32979e+06
3.28706e+06
3.24088e+06
3.19176e+06
3.14042e+06
3.08786e+06
3.03549e+06
2.98525e+06
2.93983e+06
2.90301e+06
2.88014e+06
2.87722e+06
2.90712e+06
2.98379e+06
3.13223e+06
3.39897e+06
3.88856e+06
4.85031e+06
6.85934e+06
6.20634e+06
4.43326e+06
3.62516e+06
3.2089e+06
2.97711e+06
2.84545e+06
2.77766e+06
2.75351e+06
2.7593e+06
2.78535e+06
2.82482e+06
2.87277e+06
2.92565e+06
2.98085e+06
3.03649e+06
3.09116e+06
3.14384e+06
3.19377e+06
3.2404e+06
3.28334e+06
3.3223e+06
3.35709e+06
3.38757e+06
3.41365e+06
3.43528e+06
3.45241e+06
3.46505e+06
3.47316e+06
3.47675e+06
3.4758e+06
3.47032e+06
3.46031e+06
3.44575e+06
3.42666e+06
3.40305e+06
3.37498e+06
3.34252e+06
3.30579e+06
3.26497e+06
3.22033e+06
3.17226e+06
3.12129e+06
3.06818e+06
3.01395e+06
2.96e+06
2.90825e+06
2.86132e+06
2.82284e+06
2.79778e+06
2.79308e+06
2.81859e+06
2.88826e+06
3.02471e+06
3.26985e+06
3.7179e+06
4.59217e+06
6.40329e+06
5.91581e+06
4.25565e+06
3.50479e+06
3.11985e+06
2.9059e+06
2.78445e+06
2.72232e+06
2.70106e+06
2.7081e+06
2.73449e+06
2.77381e+06
2.82139e+06
2.87383e+06
2.9286e+06
2.98386e+06
3.03822e+06
3.09067e+06
3.14043e+06
3.18695e+06
3.2298e+06
3.26869e+06
3.30339e+06
3.33374e+06
3.35965e+06
3.38102e+06
3.39781e+06
3.40999e+06
3.41754e+06
3.42044e+06
3.41868e+06
3.41226e+06
3.40117e+06
3.38544e+06
3.36507e+06
3.3401e+06
3.31059e+06
3.27664e+06
3.2384e+06
3.19607e+06
3.14996e+06
3.10048e+06
3.04819e+06
2.99388e+06
2.93857e+06
2.88368e+06
2.83111e+06
2.78343e+06
2.74414e+06
2.71801e+06
2.71163e+06
2.73414e+06
2.79843e+06
2.92516e+06
3.1524e+06
3.56631e+06
4.36929e+06
6.01962e+06
5.67346e+06
4.10291e+06
3.39848e+06
3.03932e+06
2.84014e+06
2.72711e+06
2.66944e+06
2.65023e+06
2.65786e+06
2.68404e+06
2.72271e+06
2.76945e+06
2.821e+06
2.87491e+06
2.92939e+06
2.98307e+06
3.03491e+06
3.08416e+06
3.13024e+06
3.17269e+06
3.21122e+06
3.24556e+06
3.27556e+06
3.30107e+06
3.32201e+06
3.33831e+06
3.34993e+06
3.35683e+06
3.359e+06
3.35642e+06
3.34909e+06
3.33701e+06
3.32021e+06
3.29871e+06
3.27257e+06
3.24186e+06
3.20671e+06
3.16728e+06
3.1238e+06
3.07662e+06
3.02615e+06
2.97302e+06
2.918e+06
2.86215e+06
2.80689e+06
2.7541e+06
2.7063e+06
2.6669e+06
2.64048e+06
2.63333e+06
2.65406e+06
2.71477e+06
2.83476e+06
3.04954e+06
3.44029e+06
4.19536e+06
5.73158e+06
5.47089e+06
3.97103e+06
3.30405e+06
2.96595e+06
2.7789e+06
2.67268e+06
2.61845e+06
2.60054e+06
2.60821e+06
2.63368e+06
2.67127e+06
2.71677e+06
2.76705e+06
2.81976e+06
2.87311e+06
2.92576e+06
2.9767e+06
3.02514e+06
3.07048e+06
3.11229e+06
3.15021e+06
3.18398e+06
3.21342e+06
3.23837e+06
3.25873e+06
3.27442e+06
3.28539e+06
3.2916e+06
3.29302e+06
3.28963e+06
3.28144e+06
3.26845e+06
3.2507e+06
3.22823e+06
3.2011e+06
3.16941e+06
3.13331e+06
3.09299e+06
3.04871e+06
3.00081e+06
2.94977e+06
2.89621e+06
2.84094e+06
2.78503e+06
2.72991e+06
2.67744e+06
2.63012e+06
2.59124e+06
2.56528e+06
2.55829e+06
2.57855e+06
2.63775e+06
2.7546e+06
2.96373e+06
3.34458e+06
4.0804e+06
5.57068e+06
5.30406e+06
3.85839e+06
3.2207e+06
2.89925e+06
2.72177e+06
2.62082e+06
2.56901e+06
2.55171e+06
2.55888e+06
2.58322e+06
2.61935e+06
2.66327e+06
2.71196e+06
2.76313e+06
2.81506e+06
2.86641e+06
2.91617e+06
2.96354e+06
3.00791e+06
3.04884e+06
3.08594e+06
3.11896e+06
3.14767e+06
3.17192e+06
3.19158e+06
3.20658e+06
3.21683e+06
3.22231e+06
3.22299e+06
3.21883e+06
3.20983e+06
3.19603e+06
3.17744e+06
3.15415e+06
3.12622e+06
3.09377e+06
3.05697e+06
3.01603e+06
2.97124e+06
2.92297e+06
2.87171e+06
2.81812e+06
2.76302e+06
2.7075e+06
2.65298e+06
2.60133e+06
2.55499e+06
2.51723e+06
2.49239e+06
2.48638e+06
2.5073e+06
2.5666e+06
2.68278e+06
2.89027e+06
3.26736e+06
3.99376e+06
5.45598e+06
5.16823e+06
3.76386e+06
3.14816e+06
2.8391e+06
2.66862e+06
2.57129e+06
2.52088e+06
2.50351e+06
2.5097e+06
2.53252e+06
2.56686e+06
2.60889e+06
2.65571e+06
2.7051e+06
2.75535e+06
2.80515e+06
2.85348e+06
2.89956e+06
2.94277e+06
2.98261e+06
3.01873e+06
3.05083e+06
3.07868e+06
3.1021e+06
3.12097e+06
3.13517e+06
3.14463e+06
3.1493e+06
3.14949e+06
3.14452e+06
3.13476e+06
3.12021e+06
3.10092e+06
3.07696e+06
3.04841e+06
3.01541e+06
2.97815e+06
2.93686e+06
2.89184e+06
2.84351e+06
2.79237e+06
2.73909e+06
2.68453e+06
2.62978e+06
2.57628e+06
2.52587e+06
2.48098e+06
2.44482e+06
2.42167e+06
2.4173e+06
2.43973e+06
2.50024e+06
2.61714e+06
2.82545e+06
3.2018e+06
3.92265e+06
5.36266e+06
5.05324e+06
3.68151e+06
3.08312e+06
2.78364e+06
2.61834e+06
2.52343e+06
2.47361e+06
2.45563e+06
2.46044e+06
2.48143e+06
2.51373e+06
2.55364e+06
2.59835e+06
2.64573e+06
2.69408e+06
2.74213e+06
2.78885e+06
2.83345e+06
2.8753e+06
2.9139e+06
2.94888e+06
2.97993e+06
3.0068e+06
3.02931e+06
3.04732e+06
3.06071e+06
3.06942e+06
3.07339e+06
3.0726e+06
3.06699e+06
3.0566e+06
3.04145e+06
3.02159e+06
2.99712e+06
2.96813e+06
2.9348e+06
2.8973e+06
2.85591e+06
2.81094e+06
2.76283e+06
2.71212e+06
2.65948e+06
2.60579e+06
2.55216e+06
2.50002e+06
2.45123e+06
2.4082e+06
2.37412e+06
2.35325e+06
2.35059e+06
2.37538e+06
2.43806e+06
2.55699e+06
2.76694e+06
3.14364e+06
3.86001e+06
5.27903e+06
4.95512e+06
3.6077e+06
3.02286e+06
2.73098e+06
2.5697e+06
2.47642e+06
2.42667e+06
2.40771e+06
2.41091e+06
2.42987e+06
2.45991e+06
2.49751e+06
2.53995e+06
2.58514e+06
2.63143e+06
2.67755e+06
2.72249e+06
2.76545e+06
2.8058e+06
2.84302e+06
2.87674e+06
2.90662e+06
2.93241e+06
2.95393e+06
2.97101e+06
2.98355e+06
2.99145e+06
2.99466e+06
2.99315e+06
2.9869e+06
2.97591e+06
2.96024e+06
2.93994e+06
2.9151e+06
2.88585e+06
2.85237e+06
2.81485e+06
2.77358e+06
2.72892e+06
2.6813e+06
2.63128e+06
2.57956e+06
2.52703e+06
2.47482e+06
2.42437e+06
2.37753e+06
2.33671e+06
2.30511e+06
2.28698e+06
2.28586e+06
2.31359e+06
2.37908e+06
2.50069e+06
2.71289e+06
3.09056e+06
3.80336e+06
5.20419e+06
4.86997e+06
3.53986e+06
2.96565e+06
2.67993e+06
2.52183e+06
2.42966e+06
2.37954e+06
2.35915e+06
2.36128e+06
2.37789e+06
2.40548e+06
2.4406e+06
2.48062e+06
2.52348e+06
2.56757e+06
2.61164e+06
2.65466e+06
2.69586e+06
2.73458e+06
2.77031e+06
2.80266e+06
2.83128e+06
2.85592e+06
2.87638e+06
2.89249e+06
2.90413e+06
2.91122e+06
2.91369e+06
2.91151e+06
2.90466e+06
2.89317e+06
2.87707e+06
2.85644e+06
2.83138e+06
2.80203e+06
2.76857e+06
2.73122e+06
2.6903e+06
2.64615e+06
2.59925e+06
2.55017e+06
2.49962e+06
2.44851e+06
2.39797e+06
2.34945e+06
2.30481e+06
2.26645e+06
2.23756e+06
2.22242e+06
2.22304e+06
2.25395e+06
2.32256e+06
2.4472e+06
2.66205e+06
3.04124e+06
3.75149e+06
5.13691e+06
4.79523e+06
3.47661e+06
2.91056e+06
2.62981e+06
2.47424e+06
2.38277e+06
2.33204e+06
2.31012e+06
2.31123e+06
2.32542e+06
2.35046e+06
2.38302e+06
2.42051e+06
2.46094e+06
2.50274e+06
2.54464e+06
2.58565e+06
2.62497e+06
2.66197e+06
2.69612e+06
2.72701e+06
2.7543e+06
2.77773e+06
2.79708e+06
2.81218e+06
2.82292e+06
2.82919e+06
2.83095e+06
2.82814e+06
2.82076e+06
2.80883e+06
2.79241e+06
2.77156e+06
2.74641e+06
2.7171e+06
2.68383e+06
2.64684e+06
2.60644e+06
2.56301e+06
2.51704e+06
2.46909e+06
2.41992e+06
2.37043e+06
2.32175e+06
2.27534e+06
2.23304e+06
2.19721e+06
2.17094e+06
2.15826e+06
2.16316e+06
2.19665e+06
2.26832e+06
2.39613e+06
2.61396e+06
2.9952e+06
3.70407e+06
5.07722e+06
4.72984e+06
3.41717e+06
2.85704e+06
2.58021e+06
2.42663e+06
2.3356e+06
2.28415e+06
2.26067e+06
2.26068e+06
2.27242e+06
2.29489e+06
2.32484e+06
2.35977e+06
2.39772e+06
2.43714e+06
2.47681e+06
2.51573e+06
2.55312e+06
2.58832e+06
2.62081e+06
2.65018e+06
2.67609e+06
2.69825e+06
2.71645e+06
2.73053e+06
2.74035e+06
2.74583e+06
2.74691e+06
2.74352e+06
2.73567e+06
2.72338e+06
2.70672e+06
2.68576e+06
2.66064e+06
2.63151e+06
2.59858e+06
2.5621e+06
2.52239e+06
2.47985e+06
2.43497e+06
2.38835e+06
2.34072e+06
2.293e+06
2.24633e+06
2.20215e+06
2.16227e+06
2.12903e+06
2.10546e+06
2.09558e+06
2.10484e+06
2.14132e+06
2.2161e+06
2.34717e+06
2.56821e+06
2.95211e+06
3.66112e+06
5.02581e+06
4.67372e+06
3.36091e+06
2.80452e+06
2.53076e+06
2.37883e+06
2.2882e+06
2.23615e+06
2.21149e+06
2.20909e+06
2.21868e+06
2.23872e+06
2.26614e+06
2.29853e+06
2.33399e+06
2.37102e+06
2.40842e+06
2.44521e+06
2.4806e+06
2.51395e+06
2.54474e+06
2.57254e+06
2.59702e+06
2.61788e+06
2.63491e+06
2.64794e+06
2.65682e+06
2.66148e+06
2.66211e+06
2.65814e+06
2.64985e+06
2.63727e+06
2.62045e+06
2.59949e+06
2.57451e+06
2.54568e+06
2.51321e+06
2.47738e+06
2.43851e+06
2.39701e+06
2.35337e+06
2.30821e+06
2.26225e+06
2.21643e+06
2.17189e+06
2.13004e+06
2.0927e+06
2.06219e+06
2.04154e+06
2.0348e+06
2.04752e+06
2.08743e+06
2.16561e+06
2.30015e+06
2.52468e+06
2.91181e+06
3.62234e+06
4.98181e+06
4.62555e+06
3.30764e+06
2.75316e+06
2.48169e+06
2.33113e+06
2.24083e+06
2.1883e+06
2.16263e+06
2.15647e+06
2.16417e+06
2.182e+06
2.20701e+06
2.23694e+06
2.26995e+06
2.3046e+06
2.33972e+06
2.37435e+06
2.40772e+06
2.43919e+06
2.46825e+06
2.49446e+06
2.51748e+06
2.53703e+06
2.55289e+06
2.56486e+06
2.57282e+06
2.57665e+06
2.57691e+06
2.57239e+06
2.56372e+06
2.5509e+06
2.53401e+06
2.51314e+06
2.4884e+06
2.45999e+06
2.42811e+06
2.39305e+06
2.35515e+06
2.31481e+06
2.27253e+06
2.22894e+06
2.18478e+06
2.14097e+06
2.09864e+06
2.05921e+06
2.0245e+06
1.9968e+06
1.97915e+06
1.97555e+06
1.99164e+06
2.03504e+06
2.11678e+06
2.25502e+06
2.48342e+06
2.87452e+06
3.58813e+06
4.94561e+06
4.58531e+06
3.2578e+06
2.70323e+06
2.43313e+06
2.28345e+06
2.19318e+06
2.13986e+06
2.11263e+06
2.10434e+06
2.10981e+06
2.12526e+06
2.14783e+06
2.17528e+06
2.20585e+06
2.23812e+06
2.27096e+06
2.30343e+06
2.33477e+06
2.36436e+06
2.39166e+06
2.41628e+06
2.43785e+06
2.4561e+06
2.4708e+06
2.48178e+06
2.48891e+06
2.4921e+06
2.49137e+06
2.4865e+06
2.47758e+06
2.46465e+06
2.44779e+06
2.4271e+06
2.40271e+06
2.37481e+06
2.34363e+06
2.30945e+06
2.27262e+06
2.23354e+06
2.19274e+06
2.15082e+06
2.10854e+06
2.06682e+06
2.02678e+06
1.98987e+06
1.95787e+06
1.93314e+06
1.91875e+06
1.91741e+06
1.93714e+06
1.98415e+06
2.0696e+06
2.21177e+06
2.44452e+06
2.84051e+06
3.55906e+06
4.91847e+06
4.5531e+06
3.21184e+06
2.65503e+06
2.3852e+06
2.23586e+06
2.14538e+06
2.09114e+06
2.06241e+06
2.05219e+06
2.05555e+06
2.06868e+06
2.08882e+06
2.11381e+06
2.14194e+06
2.17186e+06
2.20243e+06
2.23274e+06
2.26205e+06
2.28975e+06
2.31531e+06
2.33832e+06
2.35845e+06
2.3754e+06
2.38896e+06
2.39894e+06
2.40523e+06
2.40772e+06
2.40636e+06
2.4011e+06
2.39195e+06
2.37896e+06
2.36219e+06
2.34175e+06
2.31779e+06
2.2905e+06
2.2601e+06
2.2269e+06
2.19122e+06
2.1535e+06
2.11426e+06
2.07409e+06
2.03377e+06
1.9942e+06
1.95653e+06
1.92218e+06
1.89296e+06
1.87125e+06
1.86017e+06
1.86076e+06
1.88413e+06
1.93482e+06
2.02409e+06
2.17052e+06
2.40817e+06
2.81012e+06
3.53585e+06
4.90223e+06
4.52765e+06
3.17001e+06
2.60904e+06
2.33843e+06
2.18885e+06
2.09783e+06
2.04248e+06
2.01213e+06
1.99982e+06
2.00195e+06
2.01261e+06
2.03027e+06
2.05279e+06
2.07851e+06
2.10607e+06
2.13438e+06
2.16256e+06
2.18986e+06
2.21567e+06
2.2395e+06
2.26092e+06
2.27961e+06
2.29528e+06
2.3077e+06
2.31671e+06
2.32218e+06
2.324e+06
2.32212e+06
2.31651e+06
2.30718e+06
2.29416e+06
2.27754e+06
2.25743e+06
2.23397e+06
2.20735e+06
2.17782e+06
2.14566e+06
2.11122e+06
2.07494e+06
2.03731e+06
1.99897e+06
1.96065e+06
1.92328e+06
1.88799e+06
1.8562e+06
1.82969e+06
1.81076e+06
1.80234e+06
1.80698e+06
1.83325e+06
1.88739e+06
1.98048e+06
2.13156e+06
2.37476e+06
2.78393e+06
3.51948e+06
4.89912e+06
4.50833e+06
3.1326e+06
2.56576e+06
2.29334e+06
2.14291e+06
2.05098e+06
1.99432e+06
1.96227e+06
1.94792e+06
1.94888e+06
1.95715e+06
1.97237e+06
1.99247e+06
2.01579e+06
2.04103e+06
2.06712e+06
2.09318e+06
2.11848e+06
2.14244e+06
2.16455e+06
2.1844e+06
2.20166e+06
2.21606e+06
2.22737e+06
2.23542e+06
2.2401e+06
2.24131e+06
2.23897e+06
2.23305e+06
2.22357e+06
2.21058e+06
2.19416e+06
2.17442e+06
2.15152e+06
2.12564e+06
2.09703e+06
2.06599e+06
2.03285e+06
1.99806e+06
1.96211e+06
1.92563e+06
1.88936e+06
1.8542e+06
1.82129e+06
1.79202e+06
1.76814e+06
1.75191e+06
1.74629e+06
1.75521e+06
1.78458e+06
1.84219e+06
1.93925e+06
2.09522e+06
2.34472e+06
2.76266e+06
3.51182e+06
4.91554e+06
4.49606e+06
3.10012e+06
2.52577e+06
2.2505e+06
2.09858e+06
2.00536e+06
1.94717e+06
1.91332e+06
1.89692e+06
1.89662e+06
1.9025e+06
1.91534e+06
1.93306e+06
1.95405e+06
1.97702e+06
2.00091e+06
2.02489e+06
2.04822e+06
2.07034e+06
2.09075e+06
2.10905e+06
2.1249e+06
2.13803e+06
2.14824e+06
2.15533e+06
2.1592e+06
2.16003e+06
2.15722e+06
2.151e+06
2.14141e+06
2.12848e+06
2.1123e+06
2.09299e+06
2.07069e+06
2.04561e+06
2.01798e+06
1.9881e+06
1.95631e+06
1.92305e+06
1.88882e+06
1.85424e+06
1.82004e+06
1.78712e+06
1.75661e+06
1.72987e+06
1.70868e+06
1.69528e+06
1.69265e+06
1.70499e+06
1.73789e+06
1.79926e+06
1.90065e+06
2.06203e+06
2.3188e+06
2.74756e+06
3.5147e+06
4.95161e+06
4.49355e+06
3.07357e+06
2.48988e+06
2.21065e+06
2.05655e+06
1.96163e+06
1.90172e+06
1.86614e+06
1.84812e+06
1.84466e+06
1.84864e+06
1.85932e+06
1.87479e+06
1.89352e+06
1.91427e+06
1.93603e+06
1.95795e+06
1.97935e+06
1.99965e+06
2.01838e+06
2.03513e+06
2.04959e+06
2.06148e+06
2.07059e+06
2.07675e+06
2.07984e+06
2.08034e+06
2.07708e+06
2.0706e+06
2.06092e+06
2.0481e+06
2.0322e+06
2.01336e+06
1.99172e+06
1.96747e+06
1.94087e+06
1.91219e+06
1.8818e+06
1.85012e+06
1.81764e+06
1.78499e+06
1.75289e+06
1.72224e+06
1.69415e+06
1.67002e+06
1.65165e+06
1.64139e+06
1.64081e+06
1.65676e+06
1.69338e+06
1.75881e+06
1.86493e+06
2.03243e+06
2.29779e+06
2.73992e+06
3.53022e+06
5.00544e+06
4.50959e+06
3.05476e+06
2.45893e+06
2.17452e+06
2.01753e+06
1.92045e+06
1.85854e+06
1.82101e+06
1.80104e+06
1.79378e+06
1.79623e+06
1.80472e+06
1.81798e+06
1.83449e+06
1.85306e+06
1.8727e+06
1.89259e+06
1.91206e+06
1.93056e+06
1.94763e+06
1.96286e+06
1.97595e+06
1.98663e+06
1.99468e+06
1.99994e+06
2.00226e+06
2.00242e+06
1.99873e+06
1.99203e+06
1.98232e+06
1.96965e+06
1.9541e+06
1.93577e+06
1.91483e+06
1.89147e+06
1.86594e+06
1.83851e+06
1.80955e+06
1.77948e+06
1.74879e+06
1.71809e+06
1.68811e+06
1.65975e+06
1.63412e+06
1.61262e+06
1.59707e+06
1.58986e+06
1.59156e+06
1.61101e+06
1.65144e+06
1.72117e+06
1.83245e+06
2.0068e+06
2.28196e+06
2.73936e+06
3.55464e+06
5.06511e+06
4.54458e+06
3.04522e+06
2.4341e+06
2.14298e+06
1.98216e+06
1.88222e+06
1.81774e+06
1.77773e+06
1.75518e+06
1.74519e+06
1.74622e+06
1.75223e+06
1.7631e+06
1.77731e+06
1.79364e+06
1.81113e+06
1.82898e+06
1.84653e+06
1.86324e+06
1.87866e+06
1.8924e+06
1.90415e+06
1.91366e+06
1.92073e+06
1.9252e+06
1.92696e+06
1.92615e+06
1.92223e+06
1.91544e+06
1.9058e+06
1.89336e+06
1.8782e+06
1.86046e+06
1.84027e+06
1.81785e+06
1.79343e+06
1.7673e+06
1.73981e+06
1.71138e+06
1.6825e+06
1.65378e+06
1.62594e+06
1.59987e+06
1.57668e+06
1.55773e+06
1.54477e+06
1.54003e+06
1.54624e+06
1.5686e+06
1.61272e+06
1.68692e+06
1.80409e+06
1.98642e+06
2.27319e+06
2.74862e+06
3.58809e+06
5.12844e+06
4.60909e+06
3.04742e+06
2.41617e+06
2.11645e+06
1.95078e+06
1.84726e+06
1.77982e+06
1.737e+06
1.71171e+06
1.699e+06
1.69839e+06
1.70181e+06
1.71023e+06
1.72207e+06
1.73613e+06
1.75146e+06
1.76726e+06
1.78289e+06
1.79782e+06
1.8116e+06
1.82386e+06
1.8343e+06
1.84267e+06
1.84877e+06
1.85245e+06
1.85368e+06
1.85221e+06
1.84805e+06
1.84118e+06
1.83164e+06
1.81947e+06
1.80477e+06
1.78766e+06
1.76828e+06
1.74684e+06
1.72358e+06
1.69879e+06
1.67281e+06
1.64606e+06
1.61904e+06
1.59233e+06
1.56667e+06
1.54293e+06
1.5222e+06
1.50586e+06
1.49565e+06
1.49384e+06
1.50368e+06
1.52958e+06
1.57762e+06
1.65644e+06
1.7802e+06
1.97146e+06
2.27105e+06
2.76483e+06
3.62764e+06
5.18893e+06
4.69271e+06
3.06477e+06
2.40714e+06
2.09628e+06
1.92434e+06
1.81621e+06
1.74538e+06
1.69952e+06
1.67153e+06
1.65659e+06
1.65142e+06
1.65335e+06
1.6594e+06
1.66889e+06
1.68067e+06
1.69382e+06
1.70757e+06
1.72128e+06
1.73444e+06
1.7466e+06
1.7574e+06
1.76655e+06
1.77379e+06
1.77894e+06
1.78182e+06
1.78272e+06
1.7808e+06
1.77638e+06
1.76946e+06
1.76004e+06
1.7482e+06
1.73399e+06
1.71755e+06
1.69904e+06
1.67864e+06
1.65659e+06
1.63319e+06
1.60878e+06
1.58377e+06
1.55865e+06
1.53403e+06
1.51062e+06
1.48931e+06
1.47121e+06
1.45773e+06
1.45076e+06
1.45108e+06
1.46479e+06
1.4947e+06
1.54719e+06
1.63138e+06
1.76258e+06
1.96419e+06