/*--------------------------------*- C++ -*----------------------------------*\
| =========                 |                                                 |
| \\      /  F ield         | OpenFOAM: The Open Source CFD Toolbox           |
|  \\    /   O peration     | Version:  2212                                  |
|   \\  /    A nd           | Website:  www.openfoam.com                      |
|    \\/     M anipulation  |                                                 |
\*---------------------------------------------------------------------------*/
FoamFile
{
    version     2.0;
    format      ascii;
    arch        "LSB;label=32;scalar=64";
    class       surfaceScalarField;
    location    "0.000183";
    object      phi;
}
// * * * * * * * * * * * * * * * * * * * * * * * * * * * * * * * * * * * * * //

dimensions      [1 0 -1 0 0 0 0];

oriented        oriented;

internalField   nonuniform List<scalar> 
20680
(
-9.66197e-11
-2.6535e-08
1.32302e-11
-2.44934e-10
-4.52489e-08
-4.69064e-10
-6.4039e-08
-7.41616e-10
-8.13402e-08
-1.0955e-09
-9.79446e-08
-1.5211e-09
-1.12638e-07
-2.08955e-09
-1.27792e-07
-2.60591e-09
-1.50323e-07
-3.37063e-09
-1.78095e-07
-4.576e-09
-2.07791e-07
-5.54391e-09
-2.33528e-07
-6.56854e-09
-2.56808e-07
-7.37678e-09
-2.8795e-07
-7.6087e-09
-2.99272e-07
-7.25193e-09
-2.72362e-07
-4.99773e-09
-2.24773e-07
-2.86743e-09
-1.49952e-07
-1.60225e-09
-1.00575e-07
-8.40619e-10
-7.59234e-08
-2.79669e-10
-5.75645e-08
3.09873e-10
-4.68356e-08
8.37688e-10
-3.8663e-08
1.1354e-09
-2.84909e-08
6.51679e-10
-1.88146e-08
-8.54098e-09
-9.07465e-11
-2.64052e-08
1.71665e-11
-2.20984e-10
-4.4998e-08
-4.00847e-10
-6.37377e-08
-6.37533e-10
-8.09464e-08
-9.29594e-10
-9.75631e-08
-1.27281e-09
-1.1241e-07
-1.66999e-09
-1.27626e-07
-2.12775e-09
-1.4983e-07
-2.72226e-09
-1.77686e-07
-3.47222e-09
-2.07104e-07
-4.30976e-09
-2.32128e-07
-5.52788e-09
-2.5561e-07
-5.96747e-09
-2.88908e-07
-5.8157e-09
-3.00726e-07
-5.53186e-09
-2.73727e-07
-4.06009e-09
-2.26619e-07
-2.34222e-09
-1.51739e-07
-1.32854e-09
-1.01487e-07
-7.29905e-10
-7.64809e-08
-3.10322e-10
-5.79803e-08
8.272e-11
-4.72198e-08
5.12437e-10
-3.9092e-08
8.23354e-10
-2.88031e-08
7.06998e-10
-1.87021e-08
-7.85033e-09
-9.79889e-11
-2.63487e-08
2.20319e-11
-2.35341e-10
-4.47637e-08
-4.25922e-10
-6.33978e-08
-6.76388e-10
-8.06388e-08
-9.85285e-10
-9.72892e-08
-1.34563e-09
-1.12111e-07
-1.75674e-09
-1.27389e-07
-2.23877e-09
-1.49476e-07
-2.85383e-09
-1.77135e-07
-3.62802e-09
-2.06199e-07
-4.49945e-09
-2.30908e-07
-5.85685e-09
-2.55062e-07
-6.19926e-09
-2.87985e-07
-5.96678e-09
-2.95315e-07
-5.76704e-09
-2.74456e-07
-4.2694e-09
-2.28507e-07
-2.51034e-09
-1.53512e-07
-1.44852e-09
-1.02502e-07
-8.5388e-10
-7.70422e-08
-4.75512e-10
-5.83609e-08
-1.64426e-10
-4.75221e-08
1.42835e-10
-3.93965e-08
3.74014e-10
-2.90364e-08
3.88016e-10
-1.87247e-08
-7.47224e-09
-1.23152e-10
-2.62958e-08
3.10314e-11
-2.88935e-10
-4.45771e-08
-5.19836e-10
-6.31087e-08
-8.19318e-10
-8.03346e-08
-1.18556e-09
-9.697e-08
-1.61019e-09
-1.11711e-07
-2.0879e-09
-1.26991e-07
-2.64364e-09
-1.4893e-07
-3.35425e-09
-1.76496e-07
-4.2297e-09
-2.05225e-07
-5.2177e-09
-2.29903e-07
-6.83854e-09
-2.54924e-07
-6.81167e-09
-2.82739e-07
-6.81323e-09
-2.89445e-07
-6.53371e-09
-2.75149e-07
-4.89695e-09
-2.30237e-07
-2.92243e-09
-1.55446e-07
-1.69592e-09
-1.03687e-07
-1.03098e-09
-7.76698e-08
-6.18882e-10
-5.87676e-08
-2.9297e-10
-4.78387e-08
-2.09598e-11
-3.96621e-08
1.77686e-10
-2.92371e-08
1.83971e-10
-1.87288e-08
-7.29372e-09
-1.29905e-10
-2.61988e-08
3.50381e-11
-3.033e-10
-4.43905e-08
-5.43179e-10
-6.29055e-08
-8.59976e-10
-8.00779e-08
-1.24578e-09
-9.66445e-08
-1.69366e-09
-1.11224e-07
-2.19525e-09
-1.26471e-07
-2.78404e-09
-1.48316e-07
-3.52973e-09
-1.75754e-07
-4.45308e-09
-2.04042e-07
-5.50445e-09
-2.29386e-07
-7.15126e-09
-2.54438e-07
-7.02853e-09
-2.7726e-07
-7.46447e-09
-2.8673e-07
-7.0192e-09
-2.76506e-07
-5.28838e-09
-2.31581e-07
-3.18695e-09
-1.57267e-07
-1.85152e-09
-1.04994e-07
-1.13791e-09
-7.83504e-08
-7.08981e-10
-5.91706e-08
-4.00237e-10
-4.81385e-08
-1.59259e-10
-3.98966e-08
-1.32578e-11
-2.93861e-08
6.66089e-11
-1.8808e-08
-7.22681e-09
-1.21075e-10
-2.60841e-08
3.52377e-11
-2.83253e-10
-4.42002e-08
-5.07325e-10
-6.26985e-08
-8.02683e-10
-7.98229e-08
-1.16413e-09
-9.63304e-08
-1.58862e-09
-1.10747e-07
-2.06585e-09
-1.25899e-07
-2.63319e-09
-1.47709e-07
-3.35802e-09
-1.7495e-07
-4.28012e-09
-2.0307e-07
-5.44168e-09
-2.28751e-07
-6.42082e-09
-2.54246e-07
-6.82604e-09
-2.74518e-07
-7.5205e-09
-2.86125e-07
-6.96441e-09
-2.77493e-07
-5.24645e-09
-2.33165e-07
-3.15618e-09
-1.59043e-07
-1.82002e-09
-1.06283e-07
-1.11743e-09
-7.90251e-08
-7.06607e-10
-5.95366e-08
-4.34688e-10
-4.83986e-08
-2.37285e-10
-4.00871e-08
-9.50043e-11
-2.9525e-08
3.75765e-12
-1.89041e-08
-7.21762e-09
-1.12659e-10
-2.60309e-08
3.49398e-11
-2.6335e-10
-4.40376e-08
-4.72669e-10
-6.25154e-08
-7.46637e-10
-7.95506e-08
-1.08406e-09
-9.60087e-08
-1.482e-09
-1.10305e-07
-1.92602e-09
-1.25356e-07
-2.46275e-09
-1.47118e-07
-3.15841e-09
-1.74219e-07
-4.04247e-09
-2.0223e-07
-5.36003e-09
-2.27916e-07
-5.93183e-09
-2.52963e-07
-6.49589e-09
-2.71695e-07
-7.25562e-09
-2.86141e-07
-6.73074e-09
-2.78133e-07
-5.07714e-09
-2.34229e-07
-3.07952e-09
-1.60752e-07
-1.78099e-09
-1.07478e-07
-1.10086e-09
-7.96734e-08
-7.09903e-10
-5.99008e-08
-4.61782e-10
-4.86329e-08
-2.72766e-10
-4.02619e-08
-1.15126e-10
-2.96748e-08
-1.73627e-11
-1.89972e-08
-7.22763e-09
-1.03855e-10
-2.5967e-08
3.63462e-11
-2.43426e-10
-4.39967e-08
-4.29566e-10
-6.23755e-08
-6.81437e-10
-7.93642e-08
-9.93954e-10
-9.569e-08
-1.35404e-09
-1.09863e-07
-1.76638e-09
-1.24828e-07
-2.28093e-09
-1.4672e-07
-2.93604e-09
-1.73596e-07
-3.78799e-09
-2.01637e-07
-5.0112e-09
-2.27128e-07
-5.41332e-09
-2.50689e-07
-6.06972e-09
-2.68706e-07
-7.11784e-09
-2.85584e-07
-6.39046e-09
-2.78421e-07
-4.93816e-09
-2.36004e-07
-2.90561e-09
-1.6316e-07
-1.69131e-09
-1.08647e-07
-1.04817e-09
-8.03015e-08
-6.74156e-10
-6.02442e-08
-4.29717e-10
-4.88611e-08
-2.4985e-10
-4.04289e-08
-1.14524e-10
-2.98009e-08
-2.63612e-11
-1.90792e-08
-7.24525e-09
-8.70981e-11
-2.58369e-08
2.83012e-11
-1.79254e-10
-4.39148e-08
-3.31811e-10
-6.22375e-08
-5.29392e-10
-7.908e-08
-7.8321e-10
-9.5341e-08
-1.10005e-09
-1.0959e-07
-1.47039e-09
-1.24595e-07
-1.90258e-09
-1.46262e-07
-2.49902e-09
-1.73132e-07
-3.39661e-09
-2.01197e-07
-4.14265e-09
-2.26155e-07
-4.51617e-09
-2.47882e-07
-5.30705e-09
-2.65596e-07
-6.52886e-09
-2.84639e-07
-5.77475e-09
-2.78361e-07
-4.55614e-09
-2.37387e-07
-2.68139e-09
-1.65139e-07
-1.5272e-09
-1.09894e-07
-9.14482e-10
-8.0931e-08
-5.70401e-10
-6.05753e-08
-3.57104e-10
-4.90643e-08
-2.06829e-10
-4.05685e-08
-9.7525e-11
-2.99018e-08
-2.59128e-11
-1.91453e-08
-7.26213e-09
-5.72666e-11
-2.58595e-08
1.60623e-11
-1.16023e-10
-4.37612e-08
-2.15278e-10
-6.20451e-08
-3.5811e-10
-7.89078e-08
-5.52338e-10
-9.52371e-08
-7.84185e-10
-1.09501e-07
-1.0598e-09
-1.2443e-07
-1.41688e-09
-1.46029e-07
-1.91362e-09
-1.7293e-07
-2.66661e-09
-2.00801e-07
-3.10529e-09
-2.25249e-07
-3.3627e-09
-2.45517e-07
-4.29096e-09
-2.63948e-07
-5.19775e-09
-2.83233e-07
-4.81423e-09
-2.78098e-07
-3.77091e-09
-2.38478e-07
-2.23094e-09
-1.66706e-07
-1.2466e-09
-1.10841e-07
-7.36228e-10
-8.14484e-08
-4.46593e-10
-6.08633e-08
-2.67812e-10
-4.92341e-08
-1.48495e-10
-4.06782e-08
-6.88455e-11
-2.99738e-08
-1.92678e-11
-1.91895e-08
-7.27491e-09
-4.25439e-11
-2.58193e-08
1.17425e-11
-1.02233e-10
-4.37375e-08
-1.86865e-10
-6.19896e-08
-3.19482e-10
-7.89062e-08
-4.92097e-10
-9.51519e-08
-6.99459e-10
-1.09285e-07
-9.44321e-10
-1.24152e-07
-1.27516e-09
-1.45775e-07
-1.70599e-09
-1.7249e-07
-2.35721e-09
-2.00391e-07
-2.66922e-09
-2.23741e-07
-2.99226e-09
-2.43235e-07
-3.94239e-09
-2.66478e-07
-4.73222e-09
-2.8444e-07
-4.42505e-09
-2.78209e-07
-3.49655e-09
-2.39523e-07
-2.05456e-09
-1.68188e-07
-1.15326e-09
-1.1177e-07
-6.6643e-10
-8.19208e-08
-4.0109e-10
-6.11392e-08
-2.41402e-10
-4.9394e-08
-1.33785e-10
-4.07799e-08
-6.00462e-11
-3.00409e-08
-1.57895e-11
-1.92287e-08
-7.28625e-09
-5.38386e-11
-2.58105e-08
1.28638e-11
-1.23894e-10
-4.37215e-08
-2.30267e-10
-6.19494e-08
-3.72312e-10
-7.87315e-08
-5.57665e-10
-9.48613e-08
-7.84719e-10
-1.08873e-07
-1.04934e-09
-1.23722e-07
-1.39844e-09
-1.45389e-07
-1.90937e-09
-1.72224e-07
-2.45855e-09
-1.99872e-07
-2.7389e-09
-2.21978e-07
-3.32383e-09
-2.42185e-07
-4.36334e-09
-2.79785e-07
-4.93473e-09
-2.99177e-07
-4.61074e-09
-2.79375e-07
-3.66102e-09
-2.40485e-07
-2.17874e-09
-1.69561e-07
-1.23746e-09
-1.12704e-07
-7.31524e-10
-8.2399e-08
-4.48516e-10
-6.14348e-08
-2.72669e-10
-4.95713e-08
-1.53002e-10
-4.08962e-08
-6.88486e-11
-3.01189e-08
-1.75459e-11
-1.92749e-08
-7.30095e-09
-8.93348e-11
-2.57797e-08
2.41902e-11
-2.00163e-10
-4.36112e-08
-3.59225e-10
-6.17722e-08
-5.74136e-10
-7.84709e-08
-8.43987e-10
-9.4597e-08
-1.16236e-09
-1.08649e-07
-1.53747e-09
-1.2351e-07
-2.00238e-09
-1.45017e-07
-2.72552e-09
-1.7186e-07
-3.21308e-09
-1.98811e-07
-3.63229e-09
-2.20508e-07
-4.85392e-09
-2.41868e-07
-5.91758e-09
-2.81365e-07
-6.07322e-09
-2.99216e-07
-5.80452e-09
-2.83989e-07
-4.64225e-09
-2.41494e-07
-2.82273e-09
-1.71174e-07
-1.63753e-09
-1.13892e-07
-9.88889e-10
-8.30111e-08
-6.25018e-10
-6.17905e-08
-3.94227e-10
-4.98058e-08
-2.28807e-10
-4.10617e-08
-1.06476e-10
-3.02353e-08
-2.70195e-11
-1.93484e-08
-7.3266e-09
-1.03763e-10
-2.56729e-08
3.35409e-11
-2.26841e-10
-4.34493e-08
-4.13863e-10
-6.15527e-08
-6.58827e-10
-7.82529e-08
-9.66507e-10
-9.43116e-08
-1.32162e-09
-1.08316e-07
-1.73315e-09
-1.23145e-07
-2.24903e-09
-1.44582e-07
-3.01536e-09
-1.7141e-07
-3.50783e-09
-1.97636e-07
-4.0777e-09
-2.18978e-07
-5.79155e-09
-2.42143e-07
-6.69325e-09
-2.79002e-07
-6.76761e-09
-2.96137e-07
-6.45426e-09
-2.83787e-07
-5.19648e-09
-2.42766e-07
-3.20844e-09
-1.7306e-07
-1.86954e-09
-1.15187e-07
-1.14255e-09
-8.37166e-08
-7.24064e-10
-6.21767e-08
-4.54855e-10
-5.00724e-08
-2.65329e-10
-4.12532e-08
-1.25729e-10
-3.03703e-08
-3.26778e-11
-1.94338e-08
-7.35804e-09
-1.05079e-10
-2.55802e-08
4.06047e-11
-2.33514e-10
-4.33448e-08
-4.22506e-10
-6.13847e-08
-6.71662e-10
-7.79986e-08
-9.82478e-10
-9.39783e-08
-1.35725e-09
-1.07945e-07
-1.78691e-09
-1.22673e-07
-2.34545e-09
-1.44197e-07
-3.04183e-09
-1.70799e-07
-3.46966e-09
-1.96296e-07
-4.18205e-09
-2.17425e-07
-5.83648e-09
-2.44717e-07
-6.82493e-09
-2.74676e-07
-6.89761e-09
-2.92225e-07
-6.72198e-09
-2.82627e-07
-5.46957e-09
-2.44037e-07
-3.4111e-09
-1.74854e-07
-1.96767e-09
-1.16574e-07
-1.19862e-09
-8.44913e-08
-7.63424e-10
-6.25804e-08
-4.7824e-10
-5.03427e-08
-2.77791e-10
-4.14522e-08
-1.33241e-10
-3.05119e-08
-3.57023e-11
-1.95226e-08
-7.39108e-09
-1.17562e-10
-2.55142e-08
4.67209e-11
-2.49408e-10
-4.31993e-08
-4.44432e-10
-6.11645e-08
-7.01945e-10
-7.77263e-08
-1.03135e-09
-9.36816e-08
-1.40862e-09
-1.07545e-07
-1.85818e-09
-1.2227e-07
-2.52074e-09
-1.4383e-07
-3.01983e-09
-1.69843e-07
-3.56717e-09
-1.95053e-07
-4.50735e-09
-2.16734e-07
-5.74907e-09
-2.45885e-07
-6.9773e-09
-2.69608e-07
-7.09931e-09
-2.86533e-07
-7.04104e-09
-2.81217e-07
-5.85294e-09
-2.45362e-07
-3.62841e-09
-1.76791e-07
-2.08961e-09
-1.1799e-07
-1.28165e-09
-8.53094e-08
-8.21405e-10
-6.30367e-08
-5.14545e-10
-5.06301e-08
-2.97413e-10
-4.16609e-08
-1.44886e-10
-3.06617e-08
-4.13202e-11
-1.96175e-08
-7.42622e-09
-1.15572e-10
-2.54155e-08
4.37171e-11
-2.5135e-10
-4.30578e-08
-4.48465e-10
-6.09741e-08
-7.15745e-10
-7.74581e-08
-1.0422e-09
-9.33156e-08
-1.43942e-09
-1.07146e-07
-1.90479e-09
-1.2186e-07
-2.51472e-09
-1.43357e-07
-2.99405e-09
-1.68959e-07
-3.61645e-09
-1.94152e-07
-4.97295e-09
-2.16666e-07
-5.69269e-09
-2.43868e-07
-6.86064e-09
-2.64346e-07
-7.26895e-09
-2.79442e-07
-7.26582e-09
-2.80418e-07
-5.93544e-09
-2.46857e-07
-3.79194e-09
-1.78919e-07
-2.16948e-09
-1.19528e-07
-1.31728e-09
-8.61491e-08
-8.52077e-10
-6.35429e-08
-5.38056e-10
-5.09442e-08
-3.08846e-10
-4.18792e-08
-1.49943e-10
-3.08161e-08
-4.51672e-11
-1.9715e-08
-7.4608e-09
-1.17529e-10
-2.53514e-08
3.42143e-11
-2.49725e-10
-4.2924e-08
-4.48531e-10
-6.078e-08
-7.07267e-10
-7.72001e-08
-1.03682e-09
-9.29946e-08
-1.42411e-09
-1.06802e-07
-1.8809e-09
-1.21497e-07
-2.45006e-09
-1.42914e-07
-2.94316e-09
-1.68136e-07
-3.58235e-09
-1.9325e-07
-5.00545e-09
-2.16541e-07
-5.44376e-09
-2.41173e-07
-6.61621e-09
-2.59232e-07
-7.30763e-09
-2.75303e-07
-7.34516e-09
-2.79667e-07
-6.0199e-09
-2.47852e-07
-3.83187e-09
-1.81225e-07
-2.23531e-09
-1.21115e-07
-1.35022e-09
-8.69344e-08
-8.66313e-10
-6.40557e-08
-5.47787e-10
-5.12845e-08
-3.15485e-10
-4.211e-08
-1.52023e-10
-3.09736e-08
-4.74872e-11
-1.98129e-08
-7.49398e-09
-1.23674e-10
-2.5284e-08
3.29626e-11
-2.65744e-10
-4.27738e-08
-4.72359e-10
-6.05649e-08
-7.55764e-10
-7.69194e-08
-1.10263e-09
-9.26574e-08
-1.52041e-09
-1.06382e-07
-2.07897e-09
-1.21091e-07
-2.55563e-09
-1.42245e-07
-3.07234e-09
-1.67267e-07
-3.86145e-09
-1.92846e-07
-5.02539e-09
-2.16182e-07
-5.38021e-09
-2.38157e-07
-6.73361e-09
-2.55544e-07
-7.77593e-09
-2.73464e-07
-7.67947e-09
-2.79347e-07
-6.38491e-09
-2.49083e-07
-4.09532e-09
-1.83437e-07
-2.35325e-09
-1.22796e-07
-1.43629e-09
-8.77816e-08
-9.23957e-10
-6.45041e-08
-5.8645e-10
-5.16324e-08
-3.39914e-10
-4.23687e-08
-1.62736e-10
-3.11506e-08
-5.03755e-11
-1.99191e-08
-7.52798e-09
-1.40509e-10
-2.51832e-08
3.67703e-11
-3.13626e-10
-4.26026e-08
-5.61413e-10
-6.03166e-08
-8.72711e-10
-7.65931e-08
-1.26081e-09
-9.2251e-08
-1.71898e-09
-1.05942e-07
-2.30988e-09
-1.20598e-07
-2.81822e-09
-1.41513e-07
-3.44774e-09
-1.66627e-07
-4.48058e-09
-1.92619e-07
-5.28767e-09
-2.15368e-07
-5.67247e-09
-2.35131e-07
-7.24655e-09
-2.54002e-07
-8.40958e-09
-2.72762e-07
-8.34866e-09
-2.78638e-07
-6.96923e-09
-2.50241e-07
-4.45202e-09
-1.85872e-07
-2.62079e-09
-1.24664e-07
-1.62076e-09
-8.88617e-08
-1.05096e-09
-6.49997e-08
-6.68856e-10
-5.19877e-08
-3.90689e-10
-4.26535e-08
-1.87652e-10
-3.13601e-08
-5.65233e-11
-2.00484e-08
-7.56966e-09
-1.59589e-10
-2.50784e-08
4.53102e-11
-3.5094e-10
-4.24143e-08
-6.17211e-10
-6.00304e-08
-9.74447e-10
-7.62326e-08
-1.40355e-09
-9.18284e-08
-1.90418e-09
-1.05454e-07
-2.50461e-09
-1.20017e-07
-3.08645e-09
-1.40861e-07
-3.79011e-09
-1.6597e-07
-4.96247e-09
-1.92141e-07
-5.28475e-09
-2.14684e-07
-6.13358e-09
-2.32504e-07
-7.71949e-09
-2.53806e-07
-8.93814e-09
-2.7294e-07
-8.90857e-09
-2.77875e-07
-7.42708e-09
-2.51318e-07
-4.86853e-09
-1.88434e-07
-2.82336e-09
-1.26729e-07
-1.73826e-09
-9.0067e-08
-1.15332e-09
-6.56081e-08
-7.47178e-10
-5.23647e-08
-4.37924e-10
-4.29513e-08
-2.09325e-10
-3.15924e-08
-6.065e-11
-2.02007e-08
-7.62099e-09
-1.67086e-10
-2.49426e-08
5.41202e-11
-3.72596e-10
-4.22131e-08
-6.64285e-10
-5.9737e-08
-1.0263e-09
-7.58654e-08
-1.46955e-09
-9.13875e-08
-1.98557e-09
-1.04937e-07
-2.59022e-09
-1.19376e-07
-3.21244e-09
-1.40126e-07
-3.97723e-09
-1.65318e-07
-5.03821e-09
-1.91296e-07
-5.2155e-09
-2.12441e-07
-6.42392e-09
-2.31286e-07
-7.99037e-09
-2.53859e-07
-9.16875e-09
-2.73304e-07
-9.24186e-09
-2.77644e-07
-7.72748e-09
-2.52516e-07
-5.08703e-09
-1.91123e-07
-3.0069e-09
-1.28827e-07
-1.83432e-09
-9.12388e-08
-1.2185e-09
-6.6324e-08
-7.99753e-10
-5.28012e-08
-4.73667e-10
-4.3263e-08
-2.269e-10
-3.18368e-08
-6.4077e-11
-2.03697e-08
-7.68281e-09
-1.62517e-10
-2.48224e-08
5.58716e-11
-3.53505e-10
-4.20329e-08
-6.27714e-10
-5.9479e-08
-9.8572e-10
-7.5523e-08
-1.41647e-09
-9.09652e-08
-1.91074e-09
-1.04452e-07
-2.48338e-09
-1.18789e-07
-3.10553e-09
-1.39474e-07
-4.00183e-09
-1.64799e-07
-4.67609e-09
-1.90034e-07
-5.01537e-09
-2.09621e-07
-6.34877e-09
-2.30991e-07
-7.85523e-09
-2.54095e-07
-8.90618e-09
-2.73178e-07
-9.10275e-09
-2.77838e-07
-7.71166e-09
-2.53662e-07
-5.18231e-09
-1.93834e-07
-2.98895e-09
-1.31013e-07
-1.80302e-09
-9.22723e-08
-1.18924e-09
-6.69613e-08
-7.83922e-10
-5.32402e-08
-4.69965e-10
-4.35817e-08
-2.25853e-10
-3.20776e-08
-6.2055e-11
-2.05398e-08
-7.74965e-09
-1.44419e-10
-2.47165e-08
5.02947e-11
-3.14262e-10
-4.18487e-08
-5.67934e-10
-5.9227e-08
-8.82671e-10
-7.52114e-08
-1.26881e-09
-9.05739e-08
-1.72119e-09
-1.04002e-07
-2.24305e-09
-1.18281e-07
-2.84843e-09
-1.38982e-07
-3.64885e-09
-1.64276e-07
-4.07031e-09
-1.88443e-07
-4.75587e-09
-2.08348e-07
-6.02881e-09
-2.31383e-07
-7.38593e-09
-2.54701e-07
-8.37519e-09
-2.72788e-07
-8.68241e-09
-2.78491e-07
-7.43785e-09
-2.54983e-07
-5.0041e-09
-1.96296e-07
-2.89937e-09
-1.33027e-07
-1.73905e-09
-9.33976e-08
-1.12339e-09
-6.74973e-08
-7.32682e-10
-5.36382e-08
-4.41918e-10
-4.38867e-08
-2.14273e-10
-3.23046e-08
-5.81162e-11
-2.07001e-08
-7.81702e-09
-1.29903e-10
-2.4629e-08
3.91848e-11
-2.81146e-10
-4.16894e-08
-5.02761e-10
-5.89958e-08
-7.94507e-10
-7.4899e-08
-1.15338e-09
-9.02081e-08
-1.57146e-09
-1.0358e-07
-2.0601e-09
-1.17803e-07
-2.70675e-09
-1.38534e-07
-3.2608e-09
-1.63383e-07
-3.61083e-09
-1.86801e-07
-4.57075e-09
-2.08089e-07
-5.8976e-09
-2.31721e-07
-6.97373e-09
-2.54768e-07
-7.93639e-09
-2.72064e-07
-8.32923e-09
-2.7943e-07
-7.23333e-09
-2.56502e-07
-4.91837e-09
-1.98571e-07
-2.80919e-09
-1.35304e-07
-1.66487e-09
-9.47237e-08
-1.07281e-09
-6.8053e-08
-6.91985e-10
-5.3999e-08
-4.15153e-10
-4.41671e-08
-2.0177e-10
-3.2521e-08
-5.36136e-11
-2.08507e-08
-7.88117e-09
-1.28452e-10
-2.455e-08
3.17839e-11
-2.85851e-10
-4.15289e-08
-5.15485e-10
-5.87668e-08
-8.05613e-10
-7.46224e-08
-1.15918e-09
-8.98611e-08
-1.57415e-09
-1.03173e-07
-2.06298e-09
-1.17362e-07
-2.70503e-09
-1.38058e-07
-3.15836e-09
-1.62487e-07
-3.75482e-09
-1.85963e-07
-4.72879e-09
-2.08291e-07
-5.98493e-09
-2.31317e-07
-6.9441e-09
-2.5374e-07
-7.88729e-09
-2.71195e-07
-8.28655e-09
-2.79889e-07
-7.25614e-09
-2.58193e-07
-4.98877e-09
-2.01014e-07
-2.89046e-09
-1.37459e-07
-1.68446e-09
-9.59389e-08
-1.09007e-09
-6.87132e-08
-7.06925e-10
-5.43715e-08
-4.24905e-10
-4.44394e-08
-2.09042e-10
-3.2737e-08
-5.66482e-11
-2.10037e-08
-7.94675e-09
-1.27616e-10
-2.44655e-08
2.9895e-11
-2.90071e-10
-4.13744e-08
-5.17045e-10
-5.85374e-08
-8.10087e-10
-7.43237e-08
-1.1693e-09
-8.95018e-08
-1.58869e-09
-1.02765e-07
-2.11126e-09
-1.16901e-07
-2.67102e-09
-1.37439e-07
-3.11147e-09
-1.61649e-07
-3.77475e-09
-1.85701e-07
-4.75482e-09
-2.08297e-07
-5.87913e-09
-2.30749e-07
-6.86917e-09
-2.52504e-07
-7.73528e-09
-2.7083e-07
-8.09143e-09
-2.79469e-07
-7.22489e-09
-2.5956e-07
-5.00491e-09
-2.03399e-07
-2.89298e-09
-1.39543e-07
-1.67665e-09
-9.69515e-08
-1.08485e-09
-6.93767e-08
-7.067e-10
-5.47759e-08
-4.28495e-10
-4.47158e-08
-2.13867e-10
-3.2949e-08
-5.99534e-11
-2.11558e-08
-8.0115e-09
-1.14427e-10
-2.43808e-08
2.91202e-11
-2.63298e-10
-4.12314e-08
-4.74621e-10
-5.8323e-08
-7.40469e-10
-7.40536e-08
-1.06075e-09
-8.91763e-08
-1.4358e-09
-1.0238e-07
-1.91867e-09
-1.16464e-07
-2.39237e-09
-1.36829e-07
-2.86803e-09
-1.61039e-07
-3.56722e-09
-1.85691e-07
-4.44845e-09
-2.0816e-07
-5.39512e-09
-2.30002e-07
-6.3208e-09
-2.51328e-07
-7.09529e-09
-2.69732e-07
-7.51953e-09
-2.78722e-07
-6.7561e-09
-2.60551e-07
-4.72464e-09
-2.05591e-07
-2.74248e-09
-1.41435e-07
-1.58733e-09
-9.80402e-08
-1.00295e-09
-6.99199e-08
-6.46958e-10
-5.51487e-08
-3.95141e-10
-4.49815e-08
-2.02022e-10
-3.3143e-08
-6.03954e-11
-2.12939e-08
-8.07225e-09
-9.56766e-11
-2.43035e-08
2.79583e-11
-2.22228e-10
-4.11103e-08
-4.01088e-10
-5.81537e-08
-6.30792e-10
-7.38348e-08
-9.17697e-10
-8.88941e-08
-1.25523e-09
-1.0205e-07
-1.65566e-09
-1.16064e-07
-2.08494e-09
-1.36286e-07
-2.57675e-09
-1.60573e-07
-3.23371e-09
-1.85647e-07
-3.98721e-09
-2.07814e-07
-4.81955e-09
-2.28821e-07
-5.66581e-09
-2.49771e-07
-6.42069e-09
-2.68167e-07
-6.96521e-09
-2.77725e-07
-6.30491e-09
-2.61173e-07
-4.41991e-09
-2.07446e-07
-2.53466e-09
-1.43216e-07
-1.46838e-09
-9.92828e-08
-9.1421e-10
-7.04056e-08
-5.74889e-10
-5.54792e-08
-3.46168e-10
-4.5222e-08
-1.77749e-10
-3.33171e-08
-5.56457e-11
-2.14135e-08
-8.1247e-09
-8.37066e-11
-2.42317e-08
2.5357e-11
-1.95326e-10
-4.09899e-08
-3.59252e-10
-5.79823e-08
-5.65628e-10
-7.36143e-08
-8.1554e-10
-8.86346e-08
-1.11526e-09
-1.01746e-07
-1.47802e-09
-1.15676e-07
-1.87897e-09
-1.35773e-07
-2.39407e-09
-1.60202e-07
-3.02805e-09
-1.8527e-07
-3.71914e-09
-2.06962e-07
-4.45116e-09
-2.27424e-07
-5.27374e-09
-2.48189e-07
-6.11014e-09
-2.6722e-07
-6.99945e-09
-2.77698e-07
-6.14237e-09
-2.61752e-07
-4.31328e-09
-2.09126e-07
-2.52076e-09
-1.45024e-07
-1.42713e-09
-1.00553e-07
-8.68648e-10
-7.09352e-08
-5.37189e-10
-5.57902e-08
-3.15916e-10
-4.54418e-08
-1.60215e-10
-3.34795e-08
-5.18106e-11
-2.15226e-08
-8.17185e-09
-1.00655e-10
-2.41569e-08
2.43387e-11
-2.27784e-10
-4.08466e-08
-4.0895e-10
-5.77911e-08
-6.44832e-10
-7.33718e-08
-9.40461e-10
-8.83343e-08
-1.28048e-09
-1.01391e-07
-1.66951e-09
-1.15277e-07
-2.13592e-09
-1.35315e-07
-2.72224e-09
-1.59747e-07
-3.41581e-09
-1.8445e-07
-4.06078e-09
-2.05442e-07
-4.86872e-09
-2.26064e-07
-5.79371e-09
-2.4722e-07
-6.75223e-09
-2.6709e-07
-7.4086e-09
-2.78057e-07
-6.80066e-09
-2.62641e-07
-4.87685e-09
-2.10965e-07
-2.83122e-09
-1.47279e-07
-1.58633e-09
-1.01756e-07
-9.8061e-10
-7.1588e-08
-6.07706e-10
-5.6159e-08
-3.52781e-10
-4.56874e-08
-1.73927e-10
-3.36624e-08
-5.41938e-11
-2.16459e-08
-8.22163e-09
-1.16098e-10
-2.40823e-08
2.65058e-11
-2.66216e-10
-4.07053e-08
-4.81241e-10
-5.75848e-08
-7.50303e-10
-7.31137e-08
-1.06925e-09
-8.80185e-08
-1.44286e-09
-1.01018e-07
-1.87822e-09
-1.14838e-07
-2.40467e-09
-1.34804e-07
-3.03234e-09
-1.59075e-07
-3.73861e-09
-1.83384e-07
-4.49563e-09
-2.0415e-07
-5.39296e-09
-2.25487e-07
-6.40308e-09
-2.4704e-07
-7.38734e-09
-2.66839e-07
-8.00385e-09
-2.78201e-07
-7.33442e-09
-2.64106e-07
-5.42051e-09
-2.13102e-07
-3.1887e-09
-1.49563e-07
-1.76465e-09
-1.02952e-07
-1.09179e-09
-7.23235e-08
-6.8334e-10
-5.65844e-08
-3.97633e-10
-4.59703e-08
-1.93294e-10
-3.38687e-08
-5.78152e-11
-2.17875e-08
-8.27781e-09
-1.22742e-10
-2.39852e-08
2.98676e-11
-2.79693e-10
-4.05516e-08
-4.98968e-10
-5.73584e-08
-7.79766e-10
-7.28221e-08
-1.12395e-09
-8.76675e-08
-1.51649e-09
-1.00632e-07
-1.96352e-09
-1.14413e-07
-2.49343e-09
-1.34267e-07
-3.12121e-09
-1.58321e-07
-3.84686e-09
-1.82399e-07
-4.66823e-09
-2.03783e-07
-5.61644e-09
-2.2531e-07
-6.65977e-09
-2.46824e-07
-7.61432e-09
-2.65872e-07
-8.29227e-09
-2.78258e-07
-7.62989e-09
-2.69492e-07
-5.77425e-09
-2.15165e-07
-3.33772e-09
-1.51718e-07
-1.86184e-09
-1.04313e-07
-1.14819e-09
-7.30376e-08
-7.15889e-10
-5.70307e-08
-4.16146e-10
-4.62744e-08
-1.99149e-10
-3.40861e-08
-5.61036e-11
-2.19372e-08
-8.33683e-09
-1.11592e-10
-2.38934e-08
3.00076e-11
-2.57677e-10
-4.04024e-08
-4.63871e-10
-5.71469e-08
-7.22449e-10
-7.2559e-08
-1.03212e-09
-8.73554e-08
-1.39264e-09
-1.00264e-07
-1.80625e-09
-1.13983e-07
-2.29726e-09
-1.33721e-07
-2.87935e-09
-1.5765e-07
-3.60599e-09
-1.81879e-07
-4.43774e-09
-2.03651e-07
-5.33852e-09
-2.24977e-07
-6.25708e-09
-2.45887e-07
-7.2488e-09
-2.65006e-07
-8.73017e-09
-2.78256e-07
-7.19226e-09
-2.73232e-07
-5.58505e-09
-2.17168e-07
-3.29558e-09
-1.54206e-07
-1.84185e-09
-1.05866e-07
-1.1113e-09
-7.37351e-08
-6.81533e-10
-5.74561e-08
-3.9349e-10
-4.65697e-08
-1.86107e-10
-3.42943e-08
-5.00937e-11
-2.2079e-08
-8.39423e-09
-1.09372e-10
-2.38092e-08
3.02435e-11
-2.45262e-10
-4.02594e-08
-4.41725e-10
-5.69542e-08
-6.92693e-10
-7.23104e-08
-9.98528e-10
-8.70486e-08
-1.34951e-09
-9.99088e-08
-1.74585e-09
-1.1357e-07
-2.21126e-09
-1.33235e-07
-2.79445e-09
-1.57149e-07
-3.53948e-09
-1.81545e-07
-4.32549e-09
-2.02996e-07
-5.14264e-09
-2.23736e-07
-6.07251e-09
-2.44334e-07
-7.06493e-09
-2.63972e-07
-8.75436e-09
-2.77851e-07
-7.13161e-09
-2.70661e-07
-5.63078e-09
-2.18982e-07
-3.30274e-09
-1.56514e-07
-1.83144e-09
-1.07385e-07
-1.10458e-09
-7.44413e-08
-6.75777e-10
-5.78759e-08
-3.86285e-10
-4.68602e-08
-1.79387e-10
-3.45015e-08
-4.52076e-11
-2.22174e-08
-8.45008e-09
-1.24636e-10
-2.37218e-08
3.15097e-11
-2.80215e-10
-4.00983e-08
-4.99063e-10
-5.67293e-08
-7.74514e-10
-7.20322e-08
-1.1031e-09
-8.67176e-08
-1.47781e-09
-9.95326e-08
-1.90311e-09
-1.13152e-07
-2.41497e-09
-1.32769e-07
-3.04421e-09
-1.56612e-07
-3.784e-09
-1.80743e-07
-4.57823e-09
-2.01786e-07
-5.44573e-09
-2.22358e-07
-6.38846e-09
-2.43008e-07
-7.6017e-09
-2.62782e-07
-8.74314e-09
-2.76442e-07
-7.49032e-09
-2.65363e-07
-5.85724e-09
-2.20437e-07
-3.62473e-09
-1.58796e-07
-2.00096e-09
-1.09035e-07
-1.20285e-09
-7.52309e-08
-7.41113e-10
-5.83332e-08
-4.27261e-10
-4.71724e-08
-2.00176e-10
-3.47278e-08
-4.97307e-11
-2.23688e-08
-8.5108e-09
-1.45708e-10
-2.36161e-08
3.63131e-11
-3.26687e-10
-3.99247e-08
-5.79743e-10
-5.64741e-08
-8.98292e-10
-7.17117e-08
-1.2787e-09
-8.63348e-08
-1.70796e-09
-9.91017e-08
-2.18867e-09
-1.12683e-07
-2.75362e-09
-1.32229e-07
-3.4328e-09
-1.5591e-07
-4.22737e-09
-1.79718e-07
-5.0652e-09
-2.00686e-07
-5.99048e-09
-2.21412e-07
-7.01184e-09
-2.4208e-07
-8.70851e-09
-2.6221e-07
-8.99441e-09
-2.7485e-07
-8.41535e-09
-2.63558e-07
-6.46936e-09
-2.21791e-07
-3.96168e-09
-1.6158e-07
-2.21518e-09
-1.10837e-07
-1.35734e-09
-7.60959e-08
-8.47216e-10
-5.88374e-08
-4.93421e-10
-4.75225e-08
-2.35063e-10
-3.49848e-08
-5.99498e-11
-2.2542e-08
-8.57834e-09
-1.64644e-10
-2.34866e-08
4.19926e-11
-3.68208e-10
-3.97225e-08
-6.51851e-10
-5.61946e-08
-1.0025e-09
-7.13637e-08
-1.41572e-09
-8.59277e-08
-1.88129e-09
-9.86475e-08
-2.40269e-09
-1.12163e-07
-3.00893e-09
-1.31577e-07
-3.72154e-09
-1.55062e-07
-4.53936e-09
-1.78763e-07
-5.47242e-09
-1.99742e-07
-6.44515e-09
-2.20521e-07
-7.52026e-09
-2.41395e-07
-9.41815e-09
-2.61703e-07
-9.22687e-09
-2.73186e-07
-9.49824e-09
-2.63626e-07
-6.89591e-09
-2.2342e-07
-4.31794e-09
-1.64014e-07
-2.43625e-09
-1.12657e-07
-1.49971e-09
-7.70597e-08
-9.42365e-10
-5.93993e-08
-5.53785e-10
-4.79055e-08
-2.70074e-10
-3.52663e-08
-7.35852e-11
-2.27345e-08
-8.65355e-09
-1.59976e-10
-2.33662e-08
4.23923e-11
-3.52515e-10
-3.95241e-08
-6.273e-10
-5.59191e-08
-9.6748e-10
-7.10207e-08
-1.3703e-09
-8.55163e-08
-1.8223e-09
-9.81787e-08
-2.32223e-09
-1.11637e-07
-2.89999e-09
-1.30969e-07
-3.58997e-09
-1.54377e-07
-4.41479e-09
-1.78097e-07
-5.32672e-09
-1.9909e-07
-6.29557e-09
-2.19864e-07
-7.4414e-09
-2.40766e-07
-8.79579e-09
-2.60925e-07
-8.91578e-09
-2.71886e-07
-8.87697e-09
-2.64523e-07
-7.20076e-09
-2.25245e-07
-4.33428e-09
-1.66483e-07
-2.44517e-09
-1.14429e-07
-1.5015e-09
-7.79858e-08
-9.41511e-10
-5.99506e-08
-5.52487e-10
-4.8292e-08
-2.72324e-10
-3.55444e-08
-7.84328e-11
-2.29227e-08
-8.72663e-09
-1.49321e-10
-2.32587e-08
3.88842e-11
-3.31722e-10
-3.93385e-08
-5.87192e-10
-5.56565e-08
-9.02835e-10
-7.06996e-08
-1.27649e-09
-8.51381e-08
-1.69836e-09
-9.77506e-08
-2.17047e-09
-1.11159e-07
-2.72206e-09
-1.30433e-07
-3.39e-09
-1.53781e-07
-4.16371e-09
-1.77355e-07
-5.0541e-09
-1.98191e-07
-5.99628e-09
-2.18938e-07
-7.29543e-09
-2.39816e-07
-8.21983e-09
-2.59415e-07
-8.50804e-09
-2.71083e-07
-8.60833e-09
-2.66476e-07
-6.88452e-09
-2.2704e-07
-4.31391e-09
-1.68911e-07
-2.46152e-09
-1.16281e-07
-1.49405e-09
-7.89479e-08
-9.26053e-10
-6.05079e-08
-5.38355e-10
-4.86774e-08
-2.65534e-10
-3.5816e-08
-8.02834e-11
-2.31037e-08
-8.79687e-09
-1.41813e-10
-2.31537e-08
3.70452e-11
-3.16909e-10
-3.91671e-08
-5.65508e-10
-5.54109e-08
-8.74431e-10
-7.03927e-08
-1.23914e-09
-8.47738e-08
-1.64958e-09
-9.73456e-08
-2.10655e-09
-1.10716e-07
-2.64118e-09
-1.29916e-07
-3.2826e-09
-1.53136e-07
-4.05968e-09
-1.76582e-07
-4.92853e-09
-1.97293e-07
-5.84304e-09
-2.17707e-07
-6.955e-09
-2.38218e-07
-7.90815e-09
-2.57647e-07
-8.42176e-09
-2.71041e-07
-8.47784e-09
-2.71177e-07
-6.96682e-09
-2.28266e-07
-4.37042e-09
-1.71672e-07
-2.45603e-09
-1.1815e-07
-1.49075e-09
-7.99112e-08
-9.29807e-10
-6.10741e-08
-5.3743e-10
-4.90679e-08
-2.59803e-10
-3.60917e-08
-7.77424e-11
-2.3284e-08
-8.86418e-09
-1.64593e-10
-2.30296e-08
4.38429e-11
-3.65104e-10
-3.89616e-08
-6.44768e-10
-5.51289e-08
-9.89041e-10
-7.0049e-08
-1.39653e-09
-8.43707e-08
-1.85424e-09
-9.68907e-08
-2.36399e-09
-1.1021e-07
-2.95427e-09
-1.29327e-07
-3.65601e-09
-1.52424e-07
-4.46643e-09
-1.75723e-07
-5.37597e-09
-1.96248e-07
-6.33686e-09
-2.16649e-07
-7.37583e-09
-2.37032e-07
-8.59178e-09
-2.56448e-07
-9.68642e-09
-2.71184e-07
-8.99084e-09
-2.701e-07
-7.51673e-09
-2.29506e-07
-4.87738e-09
-1.74499e-07
-2.78904e-09
-1.20216e-07
-1.68755e-09
-8.09714e-08
-1.05226e-09
-6.17171e-08
-6.11312e-10
-4.9513e-08
-2.9245e-10
-3.64102e-08
-8.44844e-11
-2.34928e-08
-8.94201e-09
-1.96008e-10
-2.28877e-08
5.11822e-11
-4.35074e-10
-3.87255e-08
-7.67898e-10
-5.47961e-08
-1.17708e-09
-6.96386e-08
-1.65397e-09
-8.38913e-08
-2.18477e-09
-9.63579e-08
-2.76784e-09
-1.09617e-07
-3.43576e-09
-1.28637e-07
-4.2172e-09
-1.51609e-07
-5.12489e-09
-1.7475e-07
-6.1214e-09
-1.95187e-07
-7.16153e-09
-2.15589e-07
-8.26125e-09
-2.3615e-07
-9.53748e-09
-2.55663e-07
-1.05899e-08
-2.70827e-07
-9.90529e-09
-2.67191e-07
-8.40117e-09
-2.31266e-07
-5.47585e-09
-1.7733e-07
-3.13419e-09
-1.22586e-07
-1.91867e-09
-8.21616e-08
-1.21338e-09
-6.2419e-08
-7.13326e-10
-5.00163e-08
-3.4143e-10
-3.67833e-08
-9.32963e-11
-2.37436e-08
-9.03517e-09
-2.14366e-10
-2.27279e-08
5.55903e-11
-4.74288e-10
-3.84686e-08
-8.32366e-10
-5.44425e-08
-1.27025e-09
-6.92027e-08
-1.78254e-09
-8.33768e-08
-2.34997e-09
-9.57836e-08
-2.97406e-09
-1.08988e-07
-3.68511e-09
-1.27922e-07
-4.50857e-09
-1.50784e-07
-5.4432e-09
-1.73864e-07
-6.48453e-09
-1.94267e-07
-7.60622e-09
-2.14655e-07
-8.72259e-09
-2.35045e-07
-1.01982e-08
-2.54798e-07
-1.09429e-08
-2.69328e-07
-1.04624e-08
-2.65073e-07
-8.91794e-09
-2.33291e-07
-5.82183e-09
-1.80175e-07
-3.41355e-09
-1.2494e-07
-2.09933e-09
-8.35065e-08
-1.32678e-09
-6.31815e-08
-7.86839e-10
-5.05577e-08
-3.81849e-10
-3.71907e-08
-1.04511e-10
-2.40227e-08
-9.14388e-09
-2.16077e-10
-2.25643e-08
5.61038e-11
-4.78803e-10
-3.82003e-08
-8.43495e-10
-5.40733e-08
-1.28969e-09
-6.87507e-08
-1.80823e-09
-8.28527e-08
-2.38322e-09
-9.52046e-08
-3.0123e-09
-1.08354e-07
-3.72878e-09
-1.27203e-07
-4.56345e-09
-1.49952e-07
-5.52143e-09
-1.72885e-07
-6.56731e-09
-1.93192e-07
-7.67893e-09
-2.13565e-07
-8.83416e-09
-2.34134e-07
-1.04785e-08
-2.53875e-07
-1.0682e-08
-2.67692e-07
-1.07812e-08
-2.64939e-07
-9.1601e-09
-2.34571e-07
-6.08735e-09
-1.83133e-07
-3.51252e-09
-1.27501e-07
-2.15521e-09
-8.49071e-08
-1.3699e-09
-6.39481e-08
-8.18267e-10
-5.11041e-08
-4.02663e-10
-3.76087e-08
-1.11245e-10
-2.43161e-08
-9.26046e-09
-2.17776e-10
-2.24058e-08
5.60585e-11
-4.81351e-10
-3.79369e-08
-8.45137e-10
-5.37086e-08
-1.29129e-09