/*--------------------------------*- C++ -*----------------------------------*\
| =========                 |                                                 |
| \\      /  F ield         | OpenFOAM: The Open Source CFD Toolbox           |
|  \\    /   O peration     | Version:  2212                                  |
|   \\  /    A nd           | Website:  www.openfoam.com                      |
|    \\/     M anipulation  |                                                 |
\*---------------------------------------------------------------------------*/
FoamFile
{
    version     2.0;
    format      ascii;
    arch        "LSB;label=32;scalar=64";
    class       volScalarField;
    location    "0.0495";
    object      k;
}
// * * * * * * * * * * * * * * * * * * * * * * * * * * * * * * * * * * * * * //

dimensions      [0 2 -2 0 0 0 0];

internalField   nonuniform List<scalar> 
7700
(
4.18431e+06
2.25601e+06
1.30434e+06
789755
498135
325814
219918
152553
108387
78653.8
58161.3
43741.3
33405.2
25873.9
20306.2
16137.2
12981.1
10569.8
8714.25
7279.45
6167.98
5308.93
4650.43
4154.59
3794.01
3549.38
3407.91
3362.33
3410.32
3554.32
3801.6
4164.99
4663.83
5325.58
6188.18
7303.59
8742.81
10603.4
13020.5
16183.4
20360.4
25937.7
33480.5
43830.6
58267.4
78779.9
108536
152726
220110
326009
498284
789745
1.30402e+06
2.25478e+06
4.18114e+06
4.21074e+06
2.26348e+06
1.30587e+06
789631
497876
325611
219773
152449
108312
78596.7
58117.5
43707.2
33378.3
25852.5
20289
16123.2
12969.6
10560.2
8706.09
7272.42
6161.81
5303.39
4645.34
4149.79
3789.36
3544.74
3403.16
3357.32
3404.9
3548.37
3794.99
4157.54
4655.32
5315.75
6176.71
7290.06
8726.71
10584.1
12997.1
16154.8
20325.1
25893.8
33425.5
43761
58178.7
78665.9
108389
152535
219862
325699
497950
789644
1.30553e+06
2.26256e+06
4.20872e+06
4.21833e+06
2.2633e+06
1.30464e+06
788565
496899
324805
219149
151978
107957
78329.3
57913.9
43550.5
33256.4
25756.6
20212.6
16061.7
12919.6
10519
8671.73
7243.37
6136.88
5281.64
4625.99
4132.21
3772.99
3529.1
3387.8
3341.79
3388.77
3531.23
3776.38
4136.92
4632.06
5289.09
6145.7
7253.51
8683.12
10531.5
12933.1
16075.9
20227.1
25770.7
33269.3
43560.9
57919.7
78327.7
107944
151947
219093
324714
496761
788361
1.30427e+06
2.26253e+06
4.21862e+06
4.23518e+06
2.26546e+06
1.30363e+06
787076
495486
323610
218197
151238
107387
77889.8
57573.7
43285.4
33048.1
25591.5
20080.5
15955
12832.5
10447.1
8611.74
7192.65
6093.39
5243.75
4592.38
4101.78
3744.81
3502.35
3361.71
3315.65
3361.85
3502.85
3745.77
4103.21
4594.23
5245.9
6095.65
7194.73
8613.24
10447.5
12831
15950.8
20072.2
25577.2
33025.5
43251.1
57523.3
77817.5
107286
151099
218013
323384
495253
786925
1.30323e+06
2.26574e+06
4.23927e+06
4.27934e+06
2.27902e+06
1.30722e+06
787364
494548
322435
217101
150312
106635
77289.1
57097
42907.2
32747
25350.4
19886.2
15797.1
12703
10340
8522.12
7116.79
6028.3
5187.04
4542.12
4056.36
3702.85
3462.64
3323.15
3277.18
3322.43
3461.48
3701.34
4054.47
4539.73
5183.9
6024.03
7110.89
8513.9
10328.5
12687.1
15775.2
19856
25309.3
32691.1
42831.5
56995.1
77152.3
106452
150072
216792
322055
494128
786740
1.30726e+06
2.28111e+06
4.2874e+06
4.35117e+06
2.30508e+06
1.3163e+06
789835
494646
321681
216151
149406
105850
76636.1
56564
42475.3
32397.6
25067.2
19655.5
15608.1
12547.1
10210.2
8413.02
7024.07
5948.51
5117.37
4480.27
4000.4
3651.14
3413.73
3275.72
3229.97
3274.19
3411.01
3647.32
3995.43
4473.96
5109.37
5938.31
7010.98
8396.09
10188.2
12518.4
15570.7
19606.5
25002.9
32313.3
42364.5
56418.3
76444.5
105598
149078
215728
321150
493991
789260
1.31629e+06
2.30701e+06
4.35895e+06
4.42616e+06
2.33366e+06
1.32696e+06
793236
495176
321183
215343
148575
105099
75994.8
56030
42036
32037.9
24772.7
19413.7
15408.7
12381.5
10071.7
8296.15
6924.41
5862.49
5042.08
4413.3
3939.73
3595.04
3360.67
3224.28
3178.81
3221.99
3356.49
3589.08
3931.91
4403.35
5029.57
5846.77
6904.61
8271.09
10039.8
12340.9
15356.6
19346.8
24686.4
31926.4
41891.4
55842
75750.2
104781
148164
214820
320539
494408
792503
1.32678e+06
2.33559e+06
4.43477e+06
4.50024e+06
2.36212e+06
1.33775e+06
796814
495875
320798
214616
147799
104386
75377.4
55511
41605.6
31683
24480.4
19172.4
15208.7
12214.8
9931.78
8177.69
6823.1
5774.82
4965.19
4344.79
3877.59
3537.53
3306.23
3171.5
3126.36
3168.51
3300.7
3529.58
3867.12
4331.49
4948.52
5754.02
6797.12
8145.13
9890.82
12163.1
15143.1
19088.9
24373.5
31546
41429.1
55282.9
75082.2
104004
147307
213991
320030
494965
795897
1.33741e+06
2.36417e+06
4.50999e+06
4.5738e+06
2.39026e+06
1.34837e+06
800341
496579
320444
213920
147050
103693
74775.8
55003.5
41183.4
31333.8
24191.8
18933.6
15010.2
12049
9792.21
8059.27
6721.63
5686.88
4887.94
4275.88
3815.03
3479.58
3251.37
3118.32
3073.51
3114.68
3244.59
3469.79
3802.11
4259.47
4867.41
5661.35
6689.89
8019.71
9742.72
11986.8
14931.8
18834.2
24065.4
31172.2
40976
54736.3
74430.8
103247
146475
213189
319540
495507
799233
1.34789e+06
2.39244e+06
4.58473e+06
4.64702e+06
2.41811e+06
1.35883e+06
803785
497260
320093
213236
146316
103015
74187.6
54507.2
40770.3
30991.8
23908.9
18699.2
14815.2
11885.8
9654.72
7942.46
6621.42
5599.93
4811.49
4207.63
3753.02
3422.12
3196.96
3065.58
3021.12
3061.33
3189.01
3410.61
3737.81
4188.3
4787.35
5569.97
6584.27
7896.3
9597.16
11813.7
14724.6
18584.6
23763.6
30806.4
40532.7
54201.5
73793.1
102505
145658
212398
319053
496033
802511
1.3582e+06
2.42045e+06
4.6592e+06
4.72e+06
2.44572e+06
1.36911e+06
807133
497896
319725
212551
145587
102346
73608.2
54019.1
40364.4
30655.9
23631.2
18468.9
14623.6
11725.4
9519.49
7827.52
6522.76
5514.28
4736.15
4140.34
3691.87
3365.46
3143.3
3013.57
2969.45
3008.73
3134.24
3352.32
3674.5
4118.28
4708.61
5480.15
6480.51
7775.12
9454.3
11643.9
14521.3
18339.9
23467.5
30447.3
40097.1
53675.1
73164
101771
144845
211602
318542
496494
805664
1.36833e+06
2.44823e+06
4.73355e+06
4.79279e+06
2.4731e+06
1.37923e+06
810387
498487
319338
211861
144862
101684
73036.3
53538.5
39965.3
30326.1
23358.6
18243.1
14435.6
11568.1
9386.89
7714.79
6426
5430.26
4662.23
4074.32
3631.87
3309.85
3090.64
2962.53
2918.77
2957.15
3080.54
3295.19
3612.47
4049.67
4631.48
5392.18
6378.91
7656.48
9314.43
11477.6
14322.2
18100.1
23177.3
30095
39669.1
53156.8
72542.5
101043
144033
210796
318003
496890
808696
1.37828e+06
2.47577e+06
4.80772e+06
4.86541e+06
2.50025e+06
1.38919e+06
813547
499028
318929
211165
144138
101026
72470.5
53064.1
39572.1
30001.5
23090.6
18021.3
14251.1
11413.7
9256.79
7604.22
6331.09
5347.87
4589.76
4009.59
3573.05
3255.35
3039.04
2912.53
2869.12
2906.64
3027.96
3239.25
3551.73
3982.49
4555.96
5306.03
6279.4
7540.26
9177.39
11314.7
14127
17864.9
22892.5
29748.9
39248.1
52646.2
71928.8
100321
143223
209985
317441
497236
811628
1.38806e+06
2.50306e+06
4.88166e+06
4.93784e+06
2.52719e+06
1.399e+06
816611
499520
318498
210462
143415
100372
71910.3
52595.6
39184.5
29682
22827.1
17803.3
14070
11262.2
9129.17
7495.79
6238.05
5267.12
4518.75
3946.19
3515.46
3202
2988.54
2863.61
2820.56
2857.23
2976.53
3184.53
3492.31
3916.77
4482.05
5221.71
6181.97
7426.44
9043.12
11155
13935.7
17634.1
22612.8
29408.7
38833.9
52143
71322.9
99606.6
142418
209171
316860
497530
814456
1.39766e+06
2.53008e+06
4.95534e+06
5.01007e+06
2.55389e+06
1.40863e+06
819563
499958
318043
209751
142692
99721.9
71355.3
52132.6
38802.2
29367.2
22567.8
17589
13891.9
11113.4
9003.85
7389.35
6146.76
5187.92
4449.13
3884.07
3459.04
3149.76
2939.12
2815.74
2773.05
2808.9
2926.22
3130.99
3434.15
3852.42
4409.66
5139.1
6086.48
7314.84
8911.44
10998.2
13747.8
17407.4
22337.8
29074
38425.9
51646.8
70724.3
98898.9
141617
208356
316268
497789
817202
1.40711e+06
2.55686e+06
5.02877e+06
5.0821e+06
2.58037e+06
1.41812e+06
822427
500349
317567
209033
141969
99075.8
70805.5
51674.9
38424.8
29056.9
22312.4
17378
13716.8
10967
8880.7
7284.81
6057.13
5110.2
4380.85
3823.17
3403.78
3098.62
2890.75
2768.91
2726.59
2761.62
2877
3078.6
3377.23
3789.41
4338.74
5058.11
5992.83
7205.34
8782.16
10844.3
13563.1
17184.5
22067.3
28744.5
38023.8
51157.1
70132.7
98198.1
140823
207545
315668
498029
819901
1.41646e+06
2.58341e+06
5.10193e+06
5.1539e+06
2.60662e+06
1.42745e+06
825217
500702
317076
208312
141248
98434
70260.7
51222.3
38052.1
28750.8
22060.6
17170.1
13544.3
10823
8759.51
7181.98
5969.02
5033.85
4313.82
3763.42
3349.6
3048.51
2843.39
2723.08
2681.12
2715.37
2828.84
3027.31
3321.47
3727.64
4269.19
4978.64
5900.87
7097.75
8655.08
10692.9
13381.4
16965.1
21800.8
28419.5
37626.7
50672.6
69546.1
97500.9
140028
206724
315042
498205
822473
1.42558e+06
2.60969e+06
5.17481e+06
5.22544e+06
2.63262e+06
1.43662e+06
827920
501013
316567
207585
140528
97796
69720.5
50774.3
37683.6
28448.4
21812
16965
13374.2
10681
8640.13
7080.73
5882.32
4958.77
4247.95
3704.77
3296.46
2999.41
2797.01
2678.22
2636.62
2670.11
2781.69
2977.08
3266.83
3667.07
4200.92
4900.57
5810.47
6991.92
8529.99
10543.8
13202.4
16748.7
21537.8
28098.4
37234
50192.7
68963.6
96805.9
139231
205892
314387
498317
824923
1.4345e+06
2.63568e+06
5.24738e+06
5.29663e+06
2.65836e+06
1.44562e+06
830529
501277
316038
206852
139808
97160.6
69184.1
50330.2
37318.9
28149.4
21566.4
16762.5
13206.3
10540.9
8522.36
6980.91
5796.9
4884.86
4183.18
3647.15
3244.31
2951.27
2751.59
2634.31
2593.08
2625.81
2735.54
2927.88
3213.25
3607.62
4133.85
4823.81
5721.51
6887.7
8406.73
10396.8
13025.8
16535.1
21278
27781.1
36845.4
49717.1
68385.1
96113.6
138433
205051
313710
498376
827268
1.44323e+06
2.66139e+06
5.3196e+06
5.36739e+06
2.68379e+06
1.45443e+06
833033
501491
315487
206110
139087
96527.1
68650.9
49889.7
36957.6
27853.3
21323.4
16562.2
13040.3
10402.5
8406.05
6882.39
5712.66
4812.05
4119.44
3590.52
3193.13
2904.09
2707.11
2591.34
2550.5
2582.49
2690.38
2879.69
3160.73
3549.27
4067.94
4748.28
5633.88
6784.95
8285.13
10251.7
12851.4
16324
21021.2
27467.2
36460.7
49245.8
67810.8
95424.8
137636
204207
313018
498405
829552
1.45184e+06
2.68686e+06
5.39139e+06
5.43753e+06
2.70884e+06
1.46297e+06
835411
501646
314906
205354
138362
95894.9
68120.7
49452.6
36599.4
27560.2
21082.8
16363.9
12876
10265.6
8291.08
6785.08
5629.54
4740.29
4056.71
3534.88
3142.91
2857.86
2663.58
2549.34
2508.88
2540.15
2646.21
2832.51
3109.24
3491.99
4003.14
4673.92
5547.51
6683.57
8165.05
10108.4
12678.9
16115.3
20767.1
27156.5
36079.7
48778.5
67240.6
94739
136840
203355
312304
498383
831744
1.46026e+06
2.71202e+06
5.46253e+06
5.50687e+06
2.73348e+06
1.47135e+06
837696
501758
314313
204599
137641
95267.3
67595.1
49019.5
36244.7
27269.8
20844.6
16167.7
12713.5
10130
8177.38
6688.92
5547.49
4669.56
3994.99
3480.23
3093.69
2812.63
2621.06
2508.34
2468.29
2498.83
2603.08
2786.39
3058.82
3435.79
3939.45
4600.72
5462.36
6583.5
8046.4
9966.58
12508.3
15908.7
20515.6
26848.9
35702.2
48315.1
66674.2
94056.2
136043
202495
311562
498286
833739
1.4683e+06
2.73646e+06
5.5326e+06
5.57525e+06
2.75762e+06
1.47948e+06
839867
501823
313703
203843
136924
94644.6
67074.2
48590.6
35893.5
26982.4
20608.7
15973.3
12552.4
9995.91
8064.89
6593.89
5466.53
4599.88
3934.32
3426.64
3045.53
2768.47
2579.62
2468.43
2428.78
2458.63
2561.07
2741.39
3009.53
3380.73
3876.92
4528.7
5378.42
6484.71
7929.14
9826.35
12339.5
15704.2
20266.5
26544.1
35328.2
47855.7
66112.1
93377.1
135247
201630
310801
498142
835636
1.47612e+06
2.76045e+06
5.60164e+06
5.64241e+06
2.78102e+06
1.48727e+06
841897
501838
313078
203085
136209
94026.7
66558.1
48165.8
35545.7
26697.6
20375
15780.7
12393
9863.13
7953.65
6500.05
5386.72
4531.36
3874.8
3374.2
2998.55
2725.5
2539.38
2429.73
2390.5
2419.65
2520.29
2697.62
2961.47
3326.92
3815.63
4457.94
5295.78
6387.27
7813.31
9687.68
12172.4
15501.8
20019.9
26242.4
34957.7
47400.5
65554.6
92702.4
134454
200761
310021
497946
837410
1.48367e+06
2.78386e+06
5.66946e+06
5.70731e+06
2.80368e+06
1.49474e+06
843784
501795
312433
202323
135497
93412.9
66046.3
47744.9
35201.2
26415.6
20143.5
15590
12235.2
9731.85
7843.82
6407.56
5308.25
4464.17
3816.61
3323.12
2952.92
2683.89
2500.51
2392.42
2353.61
2382.06
2480.91
2655.26
2914.83
3274.51
3755.77
4388.61
5214.6
6291.34
7699.08
9550.75
12007.3
15301.6
19775.9
25943.8
34591.1
46949.8
65002.3
92032.8
133665
199890
309223
497691
839034
1.49087e+06
2.80649e+06
5.73544e+06
5.76994e+06
2.8254e+06
1.5018e+06
845493
501674
311758
201551
134786
92803
65539.1
47328.3
34860.3
26136.6
19914.6
15401.5
12079.3
9602.4
7735.71
6316.74
5231.41
4398.6
3760.05
3273.65
2908.91
2643.91
2463.27
2356.73
2318.35
2346.12
2443.18
2614.56
2869.85
3223.79
3697.6
4321
5135.18
6197.23
7586.76
9415.9
11844.5
15104
19535.1
25649
34229.1
46504.7
64456.4
91369.8
132880
199017
308404
497373
840493
1.49766e+06
2.82815e+06
5.79903e+06
5.82952e+06
2.84589e+06
1.50834e+06
846991
501473
311056
200776
134078
92199
65037.9
46917.1
34524.1
25861.6
19689.1
15216.1
11926.2
9475.38
7629.89
6228.11
5156.69
4335.1
3705.53
3226.2
2866.9
2605.92
2428
2323.02
2285.06
2312.15
2407.44
2575.87
2826.9
3175.11
3641.51
4255.51
5057.94
6105.4
7476.89
9283.7
11684.7
14909.9
19298.4
25359.3
33873.3
46067.2
63919.3
90716.5
132103
198144
307564
496979
841744
1.50393e+06
2.84856e+06
5.85941e+06
5.88503e+06
2.86481e+06
1.51424e+06
848238
501182
310328
199998
133376
91603.6
64545.2
46513.4
34194.4
25592.1
19468.5
15034.8
11776.7
9351.76
7527.21
6142.44
5084.8
4274.33
3653.65
3181.33
2827.42
2570.4
2395.19
2291.73
2254.19
2280.62
2374.15
2539.65
2786.47
3129.01
3588.07
4192.77
4983.56
6016.58
7370.23
9155.04
11528.8
14720.4
19067.2
25076.1
33525.6
45639.7
63394.6
90077.5
131342
197276
306703
496498
842745
1.50955e+06
2.86731e+06
5.91541e+06
5.93499e+06
2.88165e+06
1.51933e+06
849181
500786
309573
199221
132685
91020.7
64064.7
46120.8
33874.3
25330.9
19254.9
14859.6
11632.7
9233.01
7428.98
6060.87
5016.76
4217.2
3605.25
3139.81
2791.18
2538.05
2365.47
2263.5
2226.37
2252.15
2343.95
2506.59
2749.27
3086.24
3538.07
4133.61
4912.96
5931.8
7267.95
9031.2
11378.4
14537.3
18843.4
24802
33189
45225.7
62885.8
89456.1
130596
196417
305823
495918
843441
1.51434e+06
2.88391e+06
5.96559e+06
5.97768e+06
2.89581e+06
1.52341e+06
849769
500274
308790
198448
132005
90455.7
63602.9
45745.3
33569
25082.3
19052
14693.7
11496.7
9121.27
7337.03
5985.04
4954
4165
3561.49
3102.7
2759.17
2509.79
2339.74
2239.21
2202.47
2227.6
2317.74
2477.6
2716.27
3047.84
3492.65
4079.29
4847.5
5852.56
7171.72
8914.1
11235.7
14363
18630.4
24540.9
32868.4
44831.5
62401.3
88863.4
129881
195581
304931
495226
843749
1.5181e+06
2.89776e+06
6.00819e+06
6.01056e+06
2.90655e+06
1.52631e+06
849988
499654
307997
197700
131364
89929
63174.9
45398.5
33287.5
24853.4
18865.3
14541.2
11372.1
9019.45
7253.84
5917.05
4898.38
4119.36
3523.83
3071.31
2732.6
2486.74
2319.08
2219.88
2183.49
2208.01
2296.57
2453.81
2688.68
3015.09
3453.21
4031.35
4788.94
5780.84
7083.82
8806.37
11103.8
14201.5
18432.6
24298.8
32571.8
44468.1
61956.5
88321.7
129219
194794
304058
494447
843668
1.52072e+06
2.9085e+06
6.04209e+06
6.03073e+06
2.91343e+06
1.52816e+06
850067
499154
307359
197090
130828
89471.1
62801.9
45096.4
33041.6
24652.5
18701.1
14407
11262.8
8930.76
7182.17
5859.37
4852.07
4082.2
3493.99
3047.27
2713
2470.38
2304.86
2206.84
2170.71
2194.64
2281.74
2436.56
2667.95
2989.62
3421.51
3991.73
4739.41
5719.01
7006.87
8710.95
10985.9
14056.5
18255
24081.9
32307.6
44147.2
61567.9
87849.1
128645
194111
303287
493702
843362
1.52218e+06
2.91543e+06
6.06409e+06
6.04053e+06
2.91778e+06
1.52981e+06
850551
499264
307314
196943
130616
89224.6
62548.6
44864.3
32843.9
24488.8
18566.2
14297
11173.9
8859.84
7126.32
5815.98
4818.82
4056.94
3474.98
3033.37
2703.03
2463.1
2299.31
2202.18
2166.19
2189.53
2275.32
2428.06
2656.57
2974.01
3400.35
3963.6
4702.53
5671.12
6945.2
8632.43
10887.1
13933.3
18102.8
23895.5
32081.5
43875.2
61240.9
87452.5
128173
193563
302675
493092
842976
1.52271e+06
2.91881e+06
6.07386e+06
6.04694e+06
2.92374e+06
1.53328e+06
852266
500107
307719
197128
130685
89229.5
62504.1
44784.5
32745.3
24388.7
18477.7
14224.2
11117
8817.2
7095.88
5795.56
4806.27
4050.86
3473.9
3035.28
2706.76
2468.23
2305.35
2208.62
2172.56
2195.34
2280.05
2431.02
2656.79
2971.25
3393.78
3951.84
4684.29
5644.47
6907.39
8580.7
10818.4
13844.7
17990.9
23756.1
31909.8
43664.2
60982.9
87147.8
127830
193203
302305
492793
843135
1.52462e+06
2.92439e+06
6.08475e+06
6.07183e+06
2.93994e+06
1.54165e+06
856183
502040
308692
197612
130920
89337.7
62554.8
44810.2
32760.9
24400.2
18487.1
14232.6
11125.7
8826.89
7106.86
5808
4820.67
4066.87
3491.08
3053.54
2725.78
2487.53
2324.64
2227.74
2191.41
2213.86
2298.18
2448.65
2673.75
2986.78
3407.02
3961.64
4688.61
5642.1
6898.13
8563
10790.1
13803.6
17934.6
23679.6
31809.2
43538.4
60832.3
86974.2
127663
193161
302744
494375
847210
1.5343e+06
2.944e+06
6.11695e+06
6.11147e+06
2.96312e+06
1.55266e+06
860794
504089
309666
198086
131154
89457.9
62622
44854.1
32795.5
24431.7
18518.4
14266.7
11162.6
8865.73
7146.64
5847.74
4859.33
4103.93
3526.34
3087.03
2757.62
2517.89
2353.78
2255.97
2219.08
2241.37
2325.93
2477
2702.95
3016.96
3438.22
3993.9
4722.07
5676.15
6931.23
8593.61
10815.9
13820.1
17937
23670.7
31792.6
43524.5
60858.2
87129.4
128088
194061
304483
497733
854035
1.54935e+06
2.97487e+06
6.16542e+06
6.15408e+06
2.99108e+06
1.56541e+06
866064
506472
310807
198659
131465
89651.1
62763.3
44973.1
32904.5
24534.9
18616.2
14357.9
11246.8
8943.11
7217.34
5912.1
4917.71
4156.83
3574.32
3130.7
2797.62
2554.92
2388.53
2289.17
2251.49
2273.74
2359.08
2511.66
2739.82
3056.69
3481.41
4041.13
4773.88
5732.98
6993.38
8661.49
10890.3
13902.9
18031.1
23777.5
31917.7
43680.5
61064.2
87414.3
128519
194792
305813
500304
859445
1.56218e+06
3.0039e+06
6.20966e+06
6.18306e+06
3.01493e+06
1.57525e+06
870019
508363
311850
199307
131913
89991.4
63041.1
45209.6
33110.6
24715.9
18775.3
14497.3
11368.6
9049.45
7310.24
5993.36
4988.91
4219.37
3629.48
3179.64
2841.45
2594.7
2425.3
2323.97
2285.33
2307.66
2394.15
2548.91
2780.28
3101.36
3531.31
4097.32
4837.51
5805.3
7075.85
8755.89
10998.8
14028.4
18177
23947.1
32116.1
43914.9
61346.2
87763.3
128977
195445
306830
502079
863007
1.57079e+06
3.0253e+06
6.23518e+06
6.17923e+06
3.02595e+06
1.58042e+06
872437
509768
312836
200059
132499
90464.7
63434.3
45539.3
33389.4
24952.2
18975.5
14666.7
11512.1
9171.33
7414.09
6082.17
5065.16
4285.1
3686.43
3229.35
2885.3
2633.97
2461.22
2357.72
2318.08
2340.59
2428.46
2585.8
2820.95
3147.04
3583.29
4157.01
4906.5
5885.44
7169.4
8865.66
11128.3
14182.1
18360
24165.3
32376.1
44224.8
61717.4
88209.3
129528
196150
307742
503371
865180
1.57517e+06
3.03397e+06
6.22818e+06
6.1564e+06
3.02685e+06
1.58155e+06
873169
510383
313417
200614
133045
90969.8
63885.4
45927.1
33720.9
25232.8
19211.1
14864
11677.4
9310.21
7531.2
6181.33
5149.46
4357.07
3748.2
3282.75
2931.97
2675.41
2498.85
2392.91
2352.19
2374.96
2464.48
2624.87
2864.48
3196.49
3640.24
4223.16
4983.82
5976.27
7276.6
8992.82
11280
14363.8
18578.2
24427.1
32687.7
44590.9
62143.9
88684
130039
196670
308316
503997
865929
1.57622e+06
3.03431e+06
6.20382e+06
6.10601e+06
3.01457e+06
1.5804e+06
873586
511099
314282
201405
133695
91490.2
64307.2
46306.1
34069.2
25538.2
19472.3
15085
11863.9
9467.46
7664.14
6294.01
5245.23
4438.72
3818.11
3342.98
2984.4
2721.78
2540.82
2432.1
2390.18
2413.31
2504.83
2668.86
2913.77
3252.82
3705.42
4299.19
5072.94
6081.1
7400.28
9139.24
11453.9
14570.8
18824.4
24717.7
33023.4
44960.4
62547.1
89177.4
130651
197412
309119
504678
866362
1.57535e+06
3.02311e+06
6.15765e+06
6.03329e+06
2.98791e+06
1.57036e+06
871047
511854
315496
202527
134620
92228.9
64893.6
46769.4
34443.5
25871.7
19760.8
15331
12072.6
9644.39
7814.26
6421.54
5353.73
4531.21
3897.19
3410.97
3043.42
2773.83
2587.82
2475.92
2432.66
2456.28
2550.21
2718.56
2969.75
3317.07
3780.07
4386.5
5175.43
6201.65
7542.31
9306.84
11652
14805.1
19101.1
25041.6
33391.4
45399.1
63098.4
89867.2
131509
198442
310215
505370
864606
1.56747e+06
3.00081e+06
6.09405e+06
5.95551e+06
2.96202e+06
1.56295e+06
871166
513364
317211
204034
135844
93199
65658.4
47372.8
34926
26262.5
20095.2
15614.1
12311.8
9846.77
7985.66
6566.89
5477.11
4636.06
3986.5
3487.43
3109.49
2831.84
2640.01
2524.46
2479.7
2503.96
2600.74
2774.2
3032.78
3389.87
3865.1
4486.43
5293.19
6340.6
7706.39
9500.78
11881.5
15077.3
19424
25424.8
33847.3
45967.2
63814.2
90770.3
132640
199818
311738
506544
863517
1.55873e+06
2.97387e+06
6.01524e+06
5.87981e+06
2.93883e+06
1.5579e+06
872326
515732
319524
205976
137392
94415.9
66612.9
48123.7
35522.9
26741.3
20491.9
15944.9
12589
10079.9
8182.21
6732.84
5617.33
4754.65
4086.99
3572.97
3182.98
2896
2697.46
2577.73
2531.28
2556.31
2656.46
2835.89
3103.13
3471.65
3961.25
4600.11
5427.89
6500.31
7895.82
9725.67
12149
15396.2
19805.5
25882.5
34412.4
46675.1
64709.5
91906.8
134077
201601
313817
508552
864222
1.55263e+06
2.94921e+06
5.93821e+06
5.80367e+06
2.91743e+06
1.55545e+06
874919
519056
322500
208394
139294
95899
67771.2
49032.8
36243
27318
20961.8
16332.5
12911.3
10349.2
8407.96
6922.39
5776.6
4888.54
4199.73
3668.32
3264.36
2966.63
2760.36
2635.84
2587.45
2613.4
2717.44
2903.79
3181.07
3562.9
4069.29
4728.7
5581.22
6683.18
8113.93
9986.02
12460.4
15770.1
20256.7
26429.8
35096.6
47536.5
65803.5
93302.5
135858
203849
316545
511501
866205
1.54858e+06
2.92628e+06
5.86111e+06
5.72609e+06
2.89725e+06
1.55584e+06
878995
523359
326174
211326
141582
97676
69156.1
50118.3
37100.8
28002.9
21515.8
16786.5
13286.4
10660.9
8667.73
7139.2
5957.62
5039.74
4326.2
3774.54
3354.4
3044.25
2829.07
2699.02
2648.4
2675.41
2783.95
2978.31
3267.19
3664.45
4190.38
4873.85
5755.48
6892.37
8365
10287.5
12823.3
16208.6
20790.1
27084.9
35915.6
48571.1
67121.6
94989.9
138024
206612
319981
515459
869770
1.54829e+06
2.90507e+06
5.78274e+06
5.65561e+06
2.88266e+06
1.55769e+06
884289
528600
330566
214807
144293
99780.1
70795.6
51402.8
38114.6
28809.5
22163.5
17315.8
13721.9
11020.7
8965.86
7386.47
6162.76
5209.93
4467.57
3892.46
3453.66
3129.17
2903.75
2767.38
2714.24
2742.46
2856.17
3059.73
3362.05
3777.19
4325.8
5037.33
5953.14
7131.27
8653.6
10636.2
13245.4
16721.6
21417.6
27859.4
36886.2
49800.1
68689.9
97000.9
140611
209927
324150
520398
874648
1.54942e+06
2.88676e+06
5.70526e+06
5.58887e+06
2.87204e+06
1.5603e+06
890436
534662
335653
218848
147444
102230
72706.2
52899.8
39294.4
29745.8
22911.6
17925.8
14221.5
11431.4
9304.11
7665.28
6392.54
5399.29
4623.81
4021.84
3561.71
3220.96
2984.01
2840.54
2784.58
2814.21
2933.77
3147.76
3465.33
3900.93
4475.65
5219.54
6174.95
7401.21
8981.84
11035.3
13731.3
17315.1
22146.7
28760.6
38018.7
51237
70525.4
99355.8
143641
213814
329048
526243
880596
1.55197e+06
2.87582e+06
5.63674e+06
5.50371e+06
2.85216e+06
1.56171e+06
896998
541416
341403
223448
151049
105040
74900.3
54619.2
40647.6
30817.1
23766.6
18619.8
14787.2
11894
9682.95
7975.66
6646.74
5607.45
4794.36
4162.03
3677.98
3319.1
3069.3
2917.94
2858.84
2890.01
3016.07
3241.67
3576.26
4034.74
4638.88
5419.53
6420.05
7701.43
9349.24
11484.7
14281.3
17990
22978.9
29794.8
39323.3
52896.1
72647.1
102078
147140
218293
334673
532906
887222
1.55411e+06
2.8604e+06
5.56025e+06
5.39871e+06
2.82474e+06
1.56201e+06
903876
548842
347844
228654
155152
108250
77410.1
56586.4
42193.3
32037.6
24737.8
19405
15424.3
12412.3
10105.2
8319.58
6926.76
5835.27
4979.77
4313.46
3802.76
3423.71
3159.65
2999.55
2936.96
2969.8
3103
3341.39
3694.83
4178.75
4815.68
5637.61
6689.27
8033.28
9757.86
11987.5
14899.9
18752
23920.7
30975.3
40819.2
54803.2
75087.6
105208
151155
223412
341052
540352
894307
1.5549e+06
2.83467e+06
5.45965e+06
5.27833e+06
2.79378e+06
1.56148e+06
910897
556842
354948
234469
159767
111872
80246
58808.6
43937.2
33411.1
25826.1
20278.8
16130.6
12984.5
10568.9
8695.31
7230.89
6081.21
5178.79
4475.05
3935.07
3533.96
3254.35
3084.7
3018.3
3052.91
3193.83
3446.12
3820.08
4331.83
5004.83
5872.28
6980.72
8394.94
10205.8
12541.8
15585.5
19600
24966.5
32304.9
42512
56966.8
77857.8
108759
155699
229173
348161
548500
901760
1.55509e+06
2.80468e+06
5.34244e+06
5.14453e+06
2.75793e+06
1.55939e+06
917670
565281
362672
240881
164893
115910
83410.7
61287.5
45880.7
34937.8
27029.3
21229.7
16900.2
13605.5
11069.9
9099.19
7556.08
6342.9
5389.46
4645.18
4073.63
3648.79
3352.47
3172.59
3102.06
3138.54
3287.67
3554.79
3950.74
4492.39
5204.29
6121.16
7291.37
8782.5
10688.6
13142.3
16332
20528.9
26128.3
33783.9
44401.4
59386.1
80956.8
112729
160764
235553
355934
557186
909228
1.55454e+06
2.7707e+06
5.21024e+06
4.99055e+06
2.71251e+06
1.55303e+06
923579
573981
370942
247857
170515
120355
86898.4
64018.9
48020.9
36615.6
28346.3
22261.7
17726.6
14269.2
11603.1
9527.15
7899.26
6617.87
5609.87
4822.4
4217.31
3767.32
3453.33
3262.61
3187.7
3226.1
3383.86
3666.63
4085.79
4659.1
5412.35
6381.88
7618.37
9192.15
11201.3
13783.2
17131.7
21523.4
27400.6
35410.9
46485.1
62056.1
84379.2
117110
166335
242519
364292
566202
916006
1.55089e+06
2.72909e+06
5.05991e+06
4.81452e+06
2.65492e+06
1.54104e+06
928436
582808
379659
255332
176591
125180
90692.5
66990.7
50348
38438.5
29773.9
23378.1
18596.8
14968.6
12163.2
9975.28
8257.35
6903.82
5838.3
5005.43
4365.17
3888.83
3556.3
3354.21
3274.66
3315
3481.69
3780.68
4223.99
4830.32
5626.78
6651.58
7957.8
9619.12
11737.6
14456.1
17975
22592
28779.1
37179.9
48753.6
64964.5
88107.6
121874
172369
249999
373115
575336
921507
1.5396e+06
2.67247e+06
4.88481e+06
4.62661e+06
2.59351e+06
1.52815e+06
932714
591639
388656
263174
183027
130320
94744.3
70167.3
52834.8
40385.3
31297.2
24567.5
19520.9
15693.8
12742.8
10437.6
8625.67
7197.12
6071.97
5192.11
4515.51
4011.97
3660.32
3446.44
3362.06
3404.39
3580.24
3895.91
4364.04
5004.36
5845.41
6927.35
8305.9
10058.3
12291
15152.7
18851.7
23731.8
30249.7
39069.5
51177.7
68073.5
92090.4
126953
178767
257853
382222
584457
926374
1.52779e+06
2.61231e+06
4.6972e+06
4.43795e+06
2.53114e+06
1.51457e+06
936283
600241
397715
271211
189693
135677
98981.4
73494.5
55440.2
42423.9
32891.8
25812.1
20488.3
16440.6
13331.6
10906.3
8998.47
7493.31
6307.29
5379.58
4666.04
4134.89
3763.82
3537.97
3448.62
3492.89
3677.96
4010.42
4503.62
5178.32
6064.6
7204.66
8656.93
10502
12851.2
15857.4
19772
24925.2
31789.6
41048.4
53717.8
71331.7
96259
132252
185405
265919
391408
593343
930424
1.51461e+06
2.54976e+06
4.50629e+06
4.24929e+06
2.46647e+06
1.49883e+06
938743
608395
406683
279335
196514
141198
103367
76946
58145.1
44539.7
34546.1
27103.8
21493.8
17219
13929.7
11377.8
9372.67
7789.88
6542.38
5566.43
4815.7
4256.8
3866.22
3628.31
3533.91
3580.02
3774.23
4123.43
4641.66
5350.77
6282.41
7480.94
9007.59
10946.7
13413.1
16593
20729.7
26164.5
33386.1
43100.8
56352.8
74710.5
100573
137716
192202
274083
400519
601784
933349
1.49952e+06
2.48516e+06
4.31507e+06
4.05851e+06
2.39735e+06
1.47965e+06
939862
615859
415365
287403
203385
146805
107844
80480.4
60920.6
46712.7
36243.6
28428.2
22525.1
18018.4
14545.6
11848.9
9742.88
8082.86
6774.19
5750.31
4962.7
4376.31
3966.41
3716.56
3617.12
3665.03
3868.22
4233.91
4776.85
5519.99
6496.58
7753.15
9353.86
11385.7
13990.5
17348.6
21711.8
27434.3
35022.4
45206.4
59056.3
78169.5
104978
143267
199057
282209
409376
609561
934887
1.4811e+06
2.41651e+06
4.12205e+06
3.86772e+06
2.32526e+06
1.45822e+06
939993
622387
423578
295290
210216
152434
112370
84068.5
63740.3
48918.8
37966.2
29771.5
23570.3
18829.2
15171.6
12329.1
10108.3
8369.59
7000.83
5929.74
5105.9
4492.52
4063.67
3802.07
3697.65
3747.22
3959.11
4340.86
4907.91
5684.31
6704.9
8018.42
9691.1
11832.2
14577.5
18115
22706.6
28721
36681.7
47342.4
61800.8
81680.7
109435
148844
205881
290178
417817
616495
935277
1.45972e+06
2.34379e+06
3.92844e+06
3.68254e+06
2.25304e+06
1.43491e+06
937387
627601
431192
302917
216943
158049
116912
87675.5
66575.4
51137.7
39697.8
31120.4
24619.1
19642.8
15800.6
12812.6
10477.4
8648.8
7220.41
6103.23
5244.15
4604.53
4157.23
3884.18
3774.87
3825.96
4046.19
4443.44
5033.81
5842.43
6905.66
8273.93
10031
12281.5
15166.8
18883.2
23703.4
30010.6
38346.5
49487.7
64556.8
85207
113904
154413
212611
297902
425710
622312
934057
1.4377e+06
2.27212e+06
3.74136e+06
3.50086e+06
2.17885e+06
1.40808e+06
931781
631521
438192
310224
223529
163592
121408
91248.5
69387.2
53336.8
41412.5
32455.2
25656.6
20447.6
16422.9
13291.6
10843.8
8926.87
7429.24
6268.59
5375.74
4710.92
4245.92
3961.88
3847.85
3900.33
4128.49
4540.53
5153.21
5992.73
7096.48
8527.22
10368
12726
15749.1
19641.7
24687.7
31284.5
39992.4
51609.6
67285.7
88695.8
118324
159907
219205
305315
432992
626818
929443
1.41213e+06
2.19876e+06
3.55839e+06
3.31837e+06
2.10153e+06
1.37819e+06
924406
634719
444749
317284
229955
169014
125805
94746.1
72136.6
55485.8
43087.4
33758.4
26669.3
21233
17030.2
13759.2
11201.8
9199.04
7634.54
6423.84
5499.24
4810.43
4328.63
4034.16
3915.6
3969.35
4204.94
4630.9
5264.66
6133.38
7280.74
8774.58
10696.6
13159.1
16316.4
20380.9
25647.3
32527.1
41598.5
53681.7
69951.6
92108.1
122644
165276
225638
312486
439814
630556
923277
1.3841e+06
2.12339e+06
3.37641e+06
3.14594e+06
2.03008e+06
1.35214e+06
919076
638032
451173
324202
236230
174285
130076
98134.4
74797.6
57563.6
44705.9
35017.2
27646.9
21990.7
17615.7
14209.9
11546.9
9461.49
7832.6
6571.58
5613.54
4902.04
4404.46
4100.17
3977.31
4032.18
4274.66
4713.59
5367.07
6263.91
7457.98
9012.24
11012.3
13575.4
16861.7
21091.9
26571.2
33724.4
43147.2
55681.1
72526.5
95407.5
126832
170491
231909
319504
446478
634207
918203
1.35863e+06
2.05266e+06
3.2032e+06
3.01076e+06
1.97486e+06
1.33214e+06
914967
641642
457732
331071
242347
179378
134170
101369
77329.4
59537.5
46241.8
36210.7
28573.1
22708
18169.6
14635.9
11872.7
9709.08
8019.29
6710.91
5715.96
4983.98
4471.92
4158.58
4031.7
4087.53
4336.31
4787.13
5458.22
6386.81
7624.48
9235.64
11309.4
13967.6
17376.2
21763.5
27444.6
34857.3
44614
57577.7
74973.1
98552.2
130840
175518
238013
326457
453285
638188
913803
1.33768e+06
1.99569e+06
3.06364e+06
2.884e+06
1.91257e+06
1.30374e+06
909091
646204
464863
338053
248363
184280
138060
104417
79704
61383.8
47675.9
37324
29436.3
23375.8
18684.6
15031.3
12174.6
9938.01
8191.51
6839.21
5810.56
5054.98
4529.86
4208.21
4077.59
4134.2
4388.58
4850.31
5539.63
6499.12
7777.17
9441.09
11583.4
14330.2
17852.9
22386.9
28256.4
35911.4
45980.5
59347.3
77263
101509
134640
180343
243994
333500
460672
643443
909758
1.30989e+06
1.93261e+06
2.93448e+06
2.72177e+06
1.83774e+06
1.28406e+06
912492
654181
473168
345314
254279
188951
141694
107230
81879.8