/*--------------------------------*- C++ -*----------------------------------*\
| =========                 |                                                 |
| \\      /  F ield         | OpenFOAM: The Open Source CFD Toolbox           |
|  \\    /   O peration     | Version:  2212                                  |
|   \\  /    A nd           | Website:  www.openfoam.com                      |
|    \\/     M anipulation  |                                                 |
\*---------------------------------------------------------------------------*/
FoamFile
{
    version     2.0;
    format      ascii;
    arch        "LSB;label=32;scalar=64";
    class       volScalarField;
    location    "0.2978";
    object      s;
}
// * * * * * * * * * * * * * * * * * * * * * * * * * * * * * * * * * * * * * //

dimensions      [0 0 0 0 0 0 0];

internalField   nonuniform List<scalar> 
24240
(
2.87857e-83
2.84211e-83
2.8708e-83
2.81824e-83
2.83549e-83
2.86397e-83
2.85608e-83
2.78562e-83
2.81122e-83
2.88354e-83
2.82762e-83
2.88683e-83
2.8326e-83
2.8844e-83
2.80658e-83
2.90346e-83
2.79883e-83
2.83381e-83
2.83498e-83
2.76883e-83
1.33637e-80
1.31967e-80
1.33275e-80
1.30881e-80
1.31633e-80
1.32989e-80
1.32611e-80
1.29359e-80
1.30543e-80
1.33896e-80
1.3131e-80
1.3403e-80
1.31559e-80
1.33939e-80
1.30342e-80
1.34812e-80
1.29994e-80
1.31608e-80
1.31629e-80
1.28585e-80
3.28461e-78
3.24409e-78
3.27564e-78
3.21794e-78
3.23523e-78
3.26937e-78
3.25981e-78
3.18035e-78
3.2094e-78
3.29164e-78
3.22835e-78
3.29448e-78
3.23492e-78
3.29276e-78
3.20477e-78
3.31392e-78
3.19652e-78
3.23594e-78
3.2356e-78
3.16152e-78
4.67296e-76
4.6161e-76
4.66014e-76
4.57965e-76
4.60256e-76
4.65228e-76
4.63829e-76
4.52596e-76
4.56719e-76
4.6839e-76
4.59428e-76
4.68729e-76
4.60422e-76
4.68558e-76
4.56098e-76
4.7152e-76
4.54973e-76
4.6054e-76
4.60372e-76
4.49942e-76
4.72517e-74
4.66852e-74
4.71215e-74
4.6324e-74
4.65384e-74
4.70525e-74
4.69074e-74
4.57789e-74
4.61953e-74
4.73713e-74
4.64698e-74
4.73988e-74
4.65761e-74
4.73887e-74
4.61351e-74
4.76826e-74
4.60271e-74
4.65848e-74
4.65557e-74
4.55137e-74
3.30808e-72
3.26905e-72
3.29894e-72
3.24425e-72
3.25807e-72
3.29485e-72
3.28445e-72
3.20599e-72
3.23515e-72
3.31707e-72
3.25436e-72
3.31853e-72
3.26217e-72
3.31832e-72
3.23101e-72
3.33844e-72
3.22392e-72
3.26251e-72
3.25962e-72
3.18766e-72
1.60484e-70
1.58625e-70
1.60041e-70
1.57445e-70
1.58056e-70
1.59877e-70
1.59363e-70
1.55585e-70
1.57006e-70
1.60948e-70
1.57933e-70
1.60997e-70
1.58327e-70
1.61009e-70
1.56799e-70
1.61957e-70
1.56485e-70
1.58327e-70
1.58144e-70
1.54715e-70
5.15649e-69
5.09808e-69
5.14235e-69
5.06082e-69
5.07859e-69
5.13809e-69
5.12148e-69
5.00111e-69
5.04738e-69
5.17212e-69
5.0767e-69
5.17306e-69
5.08948e-69
5.17404e-69
5.03981e-69
5.20323e-69
5.03116e-69
5.08877e-69
5.08165e-69
4.97432e-69
4.52873e-68
4.47963e-68
4.51716e-68
4.44741e-68
4.46119e-68
4.51403e-68
4.49981e-68
4.39532e-68
4.43767e-68
4.54322e-68
4.46227e-68
4.54378e-68
4.47284e-68
4.54477e-68
4.42849e-68
4.56847e-68
4.42334e-68
4.47123e-68
4.46401e-68
4.3741e-68
2.08129e-68
2.08194e-68
2.09281e-68
2.06196e-68
2.06749e-68
2.07995e-68
2.08736e-68
2.04538e-68
2.09979e-68
2.07975e-68
2.08862e-68
2.09134e-68
2.0675e-68
2.07806e-68
2.04171e-68
2.066e-68
2.0739e-68
2.05717e-68
2.06144e-68
2.07523e-68
3.44182e-68
3.46236e-68
3.49591e-68
3.43688e-68
3.41774e-68
3.42791e-68
3.45732e-68
3.40018e-68
3.50081e-68
3.47843e-68
3.49663e-68
3.47315e-68
3.46162e-68
3.42719e-68
3.40246e-68
3.42814e-68
3.40122e-68
3.41436e-68
3.43472e-68
3.4382e-68
3.86892e-68
3.89309e-68
3.9138e-68
3.84013e-68
3.84671e-68
3.78975e-68
3.86755e-68
3.81819e-68
3.87907e-68
3.96078e-68
3.91624e-68
3.84134e-68
3.9211e-68
3.87378e-68
3.86399e-68
3.88944e-68
3.75026e-68
3.85825e-68
3.81194e-68
3.81812e-68
4.5106e-68
4.55923e-68
4.56309e-68
4.552e-68
4.57088e-68
4.60819e-68
4.68413e-68
4.58113e-68
4.58181e-68
4.5217e-68
4.53281e-68
4.54089e-68
4.58663e-68
4.60685e-68
4.52824e-68
4.57039e-68
4.58688e-68
4.54249e-68
4.51084e-68
4.52828e-68
4.86775e-68
4.84456e-68
4.86713e-68
4.95818e-68
4.92599e-68
4.9731e-68
4.88738e-68
4.98574e-68
4.87072e-68
4.77915e-68
4.80288e-68
4.84125e-68
4.8475e-68
4.78381e-68
4.7626e-68
4.81561e-68
4.76185e-68
4.85486e-68
4.80929e-68
4.89548e-68
5.0086e-68
4.99083e-68
5.07449e-68
5.02037e-68
4.99276e-68
5.08449e-68
5.04904e-68
5.1363e-68
5.01108e-68
5.09131e-68
5.05925e-68
5.07417e-68
5.08007e-68
5.09955e-68
5.05051e-68
5.15982e-68
5.03702e-68
4.98007e-68
5.0357e-68
5.01581e-68
4.98675e-68
4.91436e-68
4.91213e-68
4.91037e-68
4.97001e-68
5.00713e-68
4.99665e-68
4.97106e-68
4.87732e-68
4.90405e-68
4.85008e-68
4.98131e-68
4.98783e-68
5.04101e-68
5.03046e-68
5.01244e-68
4.97833e-68
4.99455e-68
4.94125e-68
4.95521e-68
4.60463e-68
4.67489e-68
4.60432e-68
4.74553e-68
4.60911e-68
4.71191e-68
4.62791e-68
4.69979e-68
4.63788e-68
4.67237e-68
4.64934e-68
4.74583e-68
4.65092e-68
4.77494e-68
4.64032e-68
4.69951e-68
4.70321e-68
4.5894e-68
4.71952e-68
4.71664e-68
4.13675e-68
4.27131e-68
4.23456e-68
4.1885e-68
4.15304e-68
4.30969e-68
4.23383e-68
4.25609e-68
4.22358e-68
4.16077e-68
4.20449e-68
4.28189e-68
4.20188e-68
4.34432e-68
4.20422e-68
4.27459e-68
4.28781e-68
4.23729e-68
4.29757e-68
4.31129e-68
3.89037e-68
3.8911e-68
3.89078e-68
3.93774e-68
3.94744e-68
3.94799e-68
3.868e-68
3.94143e-68
3.98922e-68
3.88714e-68
3.95834e-68
3.98341e-68
3.86087e-68
4.00424e-68
3.98332e-68
4.05815e-68
3.949e-68
3.99261e-68
3.94656e-68
4.03254e-68
2.62146e-68
2.64231e-68
2.63599e-68
2.61159e-68
2.64123e-68
2.63236e-68
2.64223e-68
2.6388e-68
2.62837e-68
2.66979e-68
2.6116e-68
2.67581e-68
2.61319e-68
2.70118e-68
2.62038e-68
2.62437e-68
2.63269e-68
2.6837e-68
2.64278e-68
2.70356e-68
8.42388e-82
8.31831e-82
8.40113e-82
8.25e-82
8.29759e-82
8.38314e-82
8.35922e-82
8.15425e-82
8.22861e-82
8.44069e-82
8.27711e-82
8.44921e-82
8.29287e-82
8.44315e-82
8.21615e-82
8.49843e-82
8.19359e-82
8.29581e-82
8.29733e-82
8.10471e-82
3.89851e-79
3.85033e-79
3.88797e-79
3.81936e-79
3.83996e-79
3.88053e-79
3.86912e-79
3.77482e-79
3.80912e-79
3.90713e-79
3.83171e-79
3.91051e-79
3.83954e-79
3.90833e-79
3.80375e-79
3.93357e-79
3.79365e-79
3.84068e-79
3.84039e-79
3.75201e-79
9.43666e-77
9.32166e-77
9.41108e-77
9.24824e-77
9.29468e-77
9.39521e-77
9.3668e-77
9.13993e-77
9.22272e-77
9.45949e-77
9.2777e-77
9.46635e-77
9.29791e-77
9.46257e-77
9.21061e-77
9.52277e-77
9.18706e-77
9.30016e-77
9.29703e-77
9.08514e-77
1.33127e-74
1.31528e-74
1.32766e-74
1.30514e-74
1.31121e-74
1.32571e-74
1.3216e-74
1.28979e-74
1.30144e-74
1.33476e-74
1.30923e-74
1.33554e-74
1.31226e-74
1.33522e-74
1.29984e-74
1.34357e-74
1.29666e-74
1.3125e-74
1.31171e-74
1.28213e-74
1.32475e-72
1.3091e-72
1.32116e-72
1.29921e-72
1.30476e-72
1.31952e-72
1.31532e-72
1.28388e-72
1.29546e-72
1.3285e-72
1.30322e-72
1.32908e-72
1.3064e-72
1.32896e-72
1.29393e-72
1.33711e-72
1.29093e-72
1.30654e-72
1.30543e-72
1.27633e-72
9.17517e-71
9.06858e-71
9.15033e-71
9.00142e-71
9.03661e-71
9.14094e-71
9.11121e-71
8.89499e-71
8.97521e-71
9.20292e-71
9.02896e-71
9.20564e-71
9.052e-71
9.20614e-71
8.96486e-71
9.26135e-71
8.94539e-71
9.05224e-71
9.04215e-71
8.84328e-71
4.3856e-69
4.33563e-69
4.37377e-69
4.30415e-69
4.31935e-69
4.37021e-69
4.35574e-69
4.25319e-69
4.29169e-69
4.39966e-69
4.31724e-69
4.40034e-69
4.32866e-69
4.40119e-69
4.28657e-69
4.42681e-69
4.27809e-69
4.32832e-69
4.32237e-69
4.22893e-69
1.39096e-67
1.37549e-67
1.38726e-67
1.36567e-67
1.36999e-67
1.38639e-67
1.38177e-67
1.34952e-67
1.3619e-67
1.39563e-67
1.36987e-67
1.39567e-67
1.37354e-67
1.3961e-67
1.36003e-67
1.40388e-67
1.35772e-67
1.37324e-67
1.37101e-67
1.34214e-67
1.20479e-66
1.19197e-66
1.20182e-66
1.18361e-66
1.18686e-66
1.20122e-66
1.19732e-66
1.16971e-66
1.18088e-66
1.20904e-66
1.18749e-66
1.20901e-66
1.19049e-66
1.20941e-66
1.1786e-66
1.21563e-66
1.17724e-66
1.18996e-66
1.18779e-66
1.16391e-66
5.41339e-67
5.41527e-67
5.44432e-67
5.36423e-67
5.3774e-67
5.4104e-67
5.42885e-67
5.32065e-67
5.4623e-67
5.41024e-67
5.43338e-67
5.43962e-67
5.3787e-67
5.4053e-67
5.31183e-67
5.373e-67
5.39446e-67
5.3513e-67
5.3625e-67
5.39814e-67
9.01405e-67
9.06689e-67
9.15508e-67
9.00012e-67
8.9504e-67
8.97612e-67
9.05202e-67
8.9044e-67
9.16676e-67
9.10961e-67
9.15646e-67
9.09409e-67
9.06543e-67
8.97579e-67
8.91116e-67
8.97719e-67
8.9055e-67
8.94127e-67
8.99385e-67
9.00186e-67
1.00754e-66
1.01375e-66
1.01917e-66
1e-66
1.00182e-66
9.87177e-67
1.00736e-66
9.94683e-67
1.01004e-66
1.03123e-66
1.01957e-66
1.00034e-66
1.02095e-66
1.00887e-66
1.00622e-66
1.01286e-66
9.76879e-67
1.00459e-66
9.92796e-67
9.94305e-67
1.17715e-66
1.18944e-66
1.19063e-66
1.18799e-66
1.19279e-66
1.20262e-66
1.22183e-66
1.19565e-66
1.19558e-66
1.17988e-66
1.18269e-66
1.18486e-66
1.19677e-66
1.20212e-66
1.18177e-66
1.19258e-66
1.1968e-66
1.18551e-66
1.17712e-66
1.18178e-66
1.262e-66
1.25576e-66
1.26158e-66
1.28507e-66
1.27683e-66
1.28902e-66
1.26676e-66
1.2924e-66
1.26223e-66
1.23921e-66
1.24501e-66
1.25514e-66
1.25652e-66
1.24024e-66
1.23478e-66
1.24852e-66
1.23443e-66
1.25847e-66
1.2468e-66
1.26891e-66
1.3023e-66
1.29756e-66
1.31919e-66
1.30505e-66
1.29813e-66
1.32202e-66
1.31256e-66
1.33536e-66
1.30296e-66
1.32385e-66
1.31538e-66
1.31931e-66
1.32069e-66
1.32618e-66
1.3133e-66
1.34143e-66
1.30968e-66
1.29482e-66
1.30931e-66
1.30384e-66
1.28735e-66
1.26885e-66
1.26781e-66
1.26768e-66
1.28303e-66
1.29254e-66
1.28974e-66
1.28314e-66
1.25916e-66
1.26594e-66
1.25197e-66
1.28571e-66
1.28758e-66
1.30113e-66
1.29859e-66
1.2936e-66
1.2851e-66
1.28946e-66
1.27566e-66
1.27926e-66
1.19363e-66
1.21205e-66
1.19367e-66
1.23002e-66
1.19452e-66
1.22116e-66
1.19943e-66
1.21821e-66
1.20228e-66
1.21134e-66
1.20521e-66
1.23029e-66
1.20557e-66
1.23759e-66
1.20293e-66
1.21802e-66
1.21916e-66
1.18976e-66
1.22341e-66
1.22266e-66
1.06674e-66
1.10107e-66
1.09181e-66
1.07979e-66
1.07084e-66
1.11087e-66
1.09131e-66
1.09716e-66
1.08884e-66
1.07271e-66
1.0838e-66
1.10371e-66
1.08325e-66
1.11962e-66
1.08385e-66
1.1019e-66
1.10513e-66
1.09244e-66
1.10769e-66
1.11137e-66
1.01038e-66
1.01055e-66
1.01063e-66
1.02269e-66
1.02503e-66
1.02519e-66
1.00444e-66
1.02386e-66
1.0359e-66
1.00964e-66
1.02797e-66
1.03456e-66
1.00267e-66
1.03982e-66
1.03449e-66
1.05379e-66
1.02565e-66
1.03668e-66
1.02477e-66
1.04695e-66
6.76754e-67
6.8218e-67
6.80611e-67
6.74248e-67
6.81751e-67
6.79557e-67
6.81994e-67
6.81262e-67
6.78287e-67
6.89113e-67
6.74056e-67
6.9059e-67
6.74553e-67
6.97171e-67
6.76383e-67
6.77422e-67
6.79486e-67
6.92653e-67
6.82158e-67
6.9773e-67
2.41211e-80
2.38224e-80
2.40562e-80
2.36313e-80
2.3759e-80
2.40105e-80
2.39395e-80
2.33562e-80
2.35674e-80
2.4176e-80
2.37077e-80
2.41969e-80
2.37563e-80
2.41827e-80
2.35348e-80
2.43394e-80
2.34706e-80
2.37629e-80
2.37615e-80
2.32127e-80
1.10399e-77
1.09051e-77
1.10102e-77
1.08195e-77
1.08739e-77
1.09918e-77
1.09583e-77
1.0693e-77
1.07893e-77
1.10674e-77
1.08539e-77
1.10755e-77
1.08777e-77
1.10707e-77
1.07756e-77
1.11414e-77
1.07471e-77
1.08801e-77
1.08766e-77
1.06276e-77
2.62668e-75
2.59511e-75
2.61965e-75
2.57516e-75
2.58716e-75
2.61584e-75
2.60767e-75
2.54492e-75
2.56777e-75
2.63382e-75
2.58323e-75
2.63535e-75
2.58924e-75
2.63463e-75
2.56474e-75
2.65122e-75
2.55824e-75
2.58967e-75
2.58817e-75
2.52945e-75
3.66232e-73
3.619e-73
3.65255e-73
3.59176e-73
3.60716e-73
3.64804e-73
3.63635e-73
3.54943e-73
3.58121e-73
3.67308e-73
3.60284e-73
3.67468e-73
3.61172e-73
3.67424e-73
3.57727e-73
3.69699e-73
3.5686e-73
3.61209e-73
3.60907e-73
3.528e-73
3.58412e-71
3.54245e-71
3.57461e-71
3.51634e-71
3.5301e-71
3.57097e-71
3.55924e-71
3.47476e-71
3.50581e-71
3.5954e-71
3.527e-71
3.59644e-71
3.53615e-71
3.59655e-71
3.50214e-71
3.61838e-71
3.4941e-71
3.53626e-71
3.53239e-71
3.45395e-71
2.4513e-69
2.42332e-69
2.44484e-69
2.40582e-69
2.41435e-69
2.44287e-69
2.43468e-69
2.37731e-69
2.39855e-69
2.45953e-69
2.41304e-69
2.45988e-69
2.41958e-69
2.46032e-69
2.3961e-69
2.4749e-69
2.39095e-69
2.41945e-69
2.41618e-69
2.36322e-69
1.15345e-67
1.14055e-67
1.15044e-67
1.13248e-67
1.13607e-67
1.14975e-67
1.14582e-67
1.11904e-67
1.12908e-67
1.15754e-67
1.13585e-67
1.15754e-67
1.13904e-67
1.1579e-67
1.12788e-67
1.16457e-67
1.12567e-67
1.13886e-67
1.13703e-67
1.11252e-67
3.60508e-66
3.56576e-66
3.59582e-66
3.54096e-66
3.55088e-66
3.59431e-66
3.58198e-66
3.499e-66
3.53078e-66
3.61842e-66
3.55163e-66
3.61797e-66
3.56171e-66
3.6195e-66
3.52641e-66
3.63943e-66
3.52051e-66
3.56063e-66
3.55406e-66
3.47939e-66
3.07694e-65
3.04492e-65
3.06972e-65
3.02409e-65
3.03133e-65
3.06877e-65
3.05848e-65
2.98851e-65
3.01678e-65
3.0889e-65
3.03379e-65
3.08831e-65
3.04198e-65
3.08969e-65
3.01135e-65
3.10538e-65
3.00794e-65
3.04036e-65
3.03416e-65
2.97325e-65
1.34979e-65
1.35031e-65
1.35776e-65
1.33782e-65
1.34079e-65
1.34917e-65
1.35356e-65
1.32683e-65
1.36219e-65
1.34923e-65
1.35501e-65
1.35636e-65
1.34145e-65
1.34786e-65
1.32482e-65
1.33957e-65
1.34513e-65
1.33447e-65
1.3373e-65
1.34611e-65
2.26377e-65
2.27679e-65
2.29902e-65
2.26001e-65
2.24763e-65
2.25387e-65
2.27263e-65
2.23609e-65
2.30166e-65
2.28767e-65
2.29923e-65
2.28336e-65
2.27654e-65
2.25417e-65
2.23797e-65
2.25424e-65
2.23595e-65
2.24525e-65
2.25828e-65
2.26e-65
2.51722e-65
2.53252e-65
2.54615e-65
2.49829e-65
2.5031e-65
2.46698e-65
2.51717e-65
2.486e-65
2.52311e-65
2.57583e-65
2.54652e-65
2.49919e-65
2.55028e-65
2.52071e-65
2.51382e-65
2.53045e-65
2.44123e-65
2.50941e-65
2.48065e-65
2.48416e-65
2.94781e-65
2.97756e-65
2.981e-65
2.97503e-65
2.98673e-65
3.01156e-65
3.05811e-65
2.99433e-65
2.99355e-65
2.95424e-65
2.96104e-65
2.96662e-65
2.99641e-65
3.00996e-65
2.95945e-65
2.98603e-65
2.99634e-65
2.96884e-65
2.9475e-65
2.95944e-65
3.14289e-65
3.12678e-65
3.14117e-65
3.19938e-65
3.17913e-65
3.20945e-65
3.15393e-65
3.2181e-65
3.1421e-65
3.08659e-65
3.10014e-65
3.12582e-65
3.12868e-65
3.08872e-65
3.07522e-65
3.1094e-65
3.07395e-65
3.13366e-65
3.10495e-65
3.15939e-65
3.25333e-65
3.24121e-65
3.2949e-65
3.25941e-65
3.24282e-65
3.30257e-65
3.27831e-65
3.33552e-65
3.25505e-65
3.30725e-65
3.28575e-65
3.29572e-65
3.29875e-65
3.31356e-65
3.28105e-65
3.35052e-65
3.27173e-65
3.23457e-65
3.27072e-65
3.25631e-65
3.19723e-65
3.15188e-65
3.14827e-65
3.14867e-65
3.18647e-65
3.20999e-65
3.20281e-65
3.18662e-65
3.12762e-65
3.14418e-65
3.10936e-65
3.19269e-65
3.19776e-65
3.23089e-65
3.22504e-65
3.21197e-65
3.19148e-65
3.20272e-65
3.16849e-65
3.17735e-65
2.97748e-65
3.02379e-65
2.97768e-65
3.06761e-65
2.97895e-65
3.04527e-65
2.99125e-65
3.03834e-65
2.9989e-65
3.02181e-65
3.00609e-65
3.0689e-65
3.00698e-65
3.0865e-65
3.00077e-65
3.03756e-65
3.04095e-65
2.968e-65
3.05157e-65
3.04972e-65
2.64928e-65
2.7336e-65
2.71115e-65
2.681e-65
2.6592e-65
2.75768e-65
2.70912e-65
2.72388e-65
2.70339e-65
2.66356e-65
2.6906e-65
2.73987e-65
2.68954e-65
2.77895e-65
2.69102e-65
2.73559e-65
2.74315e-65
2.7125e-65
2.74963e-65
2.75911e-65
2.52685e-65
2.5273e-65
2.52792e-65
2.55766e-65
2.56306e-65
2.56355e-65
2.51173e-65
2.56118e-65
2.59031e-65
2.52527e-65
2.57071e-65
2.58739e-65
2.50754e-65
2.60017e-65
2.58707e-65
2.63496e-65
2.56522e-65
2.59199e-65
2.56236e-65
2.6174e-65
1.68233e-65
1.69589e-65
1.69216e-65
1.67623e-65
1.69449e-65
1.68925e-65
1.695e-65
1.69361e-65
1.68552e-65
1.71272e-65
1.67525e-65
1.71621e-65
1.67667e-65
1.73263e-65
1.6812e-65
1.68382e-65
1.68868e-65
1.72142e-65
1.69548e-65
1.73391e-65
6.76523e-79
6.68251e-79
6.74718e-79
6.6302e-79
6.66363e-79
6.73598e-79
6.71537e-79
6.55281e-79
6.61156e-79
6.78263e-79
6.65131e-79
6.78754e-79
6.66593e-79
6.78441e-79
6.6033e-79
6.82791e-79
6.5854e-79
6.66726e-79
6.66524e-79
6.51203e-79
3.12478e-76
3.08718e-76
3.1165e-76
3.06353e-76
3.07782e-76
3.11201e-76
3.10222e-76
3.0276e-76
3.05464e-76
3.13353e-76
3.07311e-76
3.13535e-76
3.0803e-76
3.1344e-76
3.05114e-76
3.15421e-76
3.04316e-76
3.08074e-76
3.07901e-76
3.00882e-76
7.30664e-74
7.22013e-74
7.2874e-74
7.16599e-74
7.19677e-74
7.2785e-74
7.25501e-74
7.08162e-74
7.14465e-74
7.32877e-74
7.18803e-74
7.33195e-74
7.20588e-74
7.33087e-74
7.13715e-74
7.37651e-74
7.11921e-74
7.20648e-74
7.20057e-74
7.0379e-74
1.00533e-71
9.9363e-72
1.00271e-71
9.86338e-72
9.90209e-72
1.0017e-71
9.98384e-72
9.74686e-72
9.83334e-72
1.00861e-71
9.89324e-72
1.0089e-71
9.91918e-72
1.0089e-71
9.82381e-72
1.01508e-71
9.80022e-72
9.91937e-72
9.9087e-72
9.68698e-72
9.67513e-70
9.5646e-70
9.65014e-70
9.49588e-70
9.5296e-70
9.64246e-70
9.60982e-70
9.38334e-70
9.46641e-70
9.7088e-70
9.52413e-70
9.71014e-70
9.55036e-70
9.71165e-70
9.45775e-70
9.76991e-70
9.43628e-70
9.54986e-70
9.53713e-70
9.32606e-70
6.52706e-68
6.45394e-68
6.5104e-68
6.40852e-68
6.42893e-68
6.50656e-68
6.48409e-68
6.33241e-68
6.38846e-68
6.55119e-68
6.42736e-68
6.55113e-68
6.44584e-68
6.55309e-68
6.38277e-68
6.59149e-68
6.36923e-68
6.44494e-68
6.43472e-68
6.29409e-68
3.02317e-66
2.99004e-66
3.01556e-66
2.96942e-66
2.97776e-66
3.01439e-66
3.00381e-66
2.93411e-66
2.96017e-66
3.03495e-66
2.97808e-66
3.03448e-66
2.98694e-66
3.0358e-66
2.95742e-66
3.05305e-66
2.95172e-66
2.9862e-66
2.98071e-66
2.91662e-66
9.30431e-65
9.20503e-65
9.28146e-65
9.14266e-65
9.16498e-65
9.27945e-65
9.24667e-65
9.03409e-65
9.11536e-65
9.3421e-65
9.16961e-65
9.33945e-65
9.1972e-65
9.34451e-65
9.10527e-65
9.39532e-65
9.09026e-65
9.19359e-65
9.17457e-65
8.98214e-65
7.82498e-64
7.74545e-64
7.80761e-64
7.69383e-64
7.70951e-64
7.8067e-64
7.77973e-64
7.60312e-64
7.67437e-64
7.85829e-64
7.718e-64
7.85553e-64
7.74017e-64
7.85995e-64
7.66161e-64
7.89932e-64
7.65304e-64
7.73533e-64
7.71788e-64
7.56309e-64
3.34888e-64
3.3503e-64
3.36928e-64
3.31987e-64
3.32649e-64
3.34761e-64
3.35798e-64
3.29232e-64
3.38013e-64
3.34806e-64
3.36241e-64
3.36521e-64
3.32894e-64
3.34429e-64
3.28782e-64
3.32311e-64
3.33744e-64
3.31127e-64
3.31836e-64
3.34001e-64
5.65913e-64
5.69107e-64
5.74684e-64
5.64908e-64
5.61844e-64
5.63345e-64
5.67964e-64
5.58961e-64
5.75273e-64
5.7187e-64
5.74702e-64
5.70684e-64
5.69073e-64
5.63521e-64
5.59478e-64
5.63467e-64
5.58822e-64
5.61225e-64
5.64439e-64
5.64794e-64
6.2626e-64
6.30011e-64
6.33423e-64
6.21526e-64
6.22788e-64
6.13911e-64
6.26342e-64
6.18719e-64
6.27628e-64
6.40692e-64
6.33359e-64
6.21752e-64
6.3437e-64
6.27171e-64
6.25391e-64
6.29536e-64
6.07507e-64
6.24206e-64
6.17228e-64
6.18033e-64
7.35241e-64
7.42404e-64
7.4338e-64
7.42047e-64
7.44886e-64
7.51143e-64
7.6236e-64
7.46893e-64
7.46549e-64
7.36748e-64
7.38378e-64
7.39815e-64
7.4722e-64
7.50633e-64
7.38155e-64
7.4466e-64
7.47173e-64
7.40509e-64
7.35104e-64
7.38153e-64
7.80315e-64
7.76172e-64
7.79724e-64
7.94094e-64
7.89138e-64
7.96653e-64
7.82853e-64
7.98858e-64
7.79779e-64
7.66452e-64
7.69593e-64
7.7608e-64
7.76641e-64
7.66859e-64
7.63548e-64
7.72022e-64
7.63129e-64
7.77906e-64
7.70877e-64
7.84229e-64
8.10412e-64
8.07323e-64
8.20607e-64
8.11727e-64
8.07772e-64
8.22667e-64
8.16472e-64
8.30786e-64
8.10855e-64
8.23862e-64
8.1842e-64
8.20938e-64
8.21598e-64
8.2557e-64
8.17375e-64
8.34484e-64
8.14994e-64
8.0572e-64
8.14718e-64
8.10941e-64
7.92837e-64
7.81749e-64
7.80594e-64
7.80884e-64
7.90168e-64
7.9597e-64
7.94129e-64
7.90172e-64
7.75685e-64
7.79719e-64
7.71058e-64
7.91605e-64
7.9296e-64
8.01044e-64
7.99709e-64
7.96302e-64
7.91375e-64
7.94269e-64
7.85794e-64
7.87966e-64
7.41719e-64
7.53356e-64
7.41801e-64
7.64028e-64
7.41903e-64
7.58394e-64
7.44986e-64
7.56767e-64
7.47028e-64
7.52818e-64
7.48792e-64
7.64502e-64
7.49011e-64
7.68731e-64
7.47552e-64
7.56499e-64
7.57491e-64
7.39401e-64
7.60139e-64
7.59682e-64
6.58188e-64
6.7889e-64
6.73459e-64
6.65879e-64
6.60589e-64
6.84814e-64
6.72755e-64
6.76482e-64
6.71434e-64
6.61582e-64
6.68185e-64
6.80381e-64
6.68003e-64
6.89983e-64
6.68374e-64
6.79382e-64
6.81144e-64
6.73746e-64
6.82768e-64
6.85216e-64
6.32334e-64
6.32438e-64
6.32701e-64
6.40045e-64
6.41285e-64
6.4142e-64
6.28473e-64
6.41067e-64
6.48114e-64
6.32002e-64
6.43272e-64
6.47495e-64
6.27483e-64
6.50593e-64
6.47385e-64
6.59269e-64
6.41972e-64
6.4847e-64
6.41087e-64
6.54758e-64
4.20031e-64
4.23445e-64
4.22557e-64
4.18537e-64
4.23002e-64
4.21753e-64
4.2312e-64
4.22868e-64
4.20667e-64
4.27543e-64
4.18167e-64
4.28362e-64
4.18578e-64
4.32485e-64
4.19691e-64
4.20353e-64
4.2151e-64
4.29682e-64
4.23253e-64
4.32768e-64
1.94333e-77
1.9199e-77
1.93821e-77
1.90523e-77
1.91415e-77
1.93545e-77
1.92933e-77
1.88294e-77
1.89967e-77
1.94892e-77
1.9112e-77
1.95004e-77
1.91569e-77
1.94939e-77
1.89755e-77
1.96176e-77
1.89244e-77
1.91591e-77
1.91487e-77
1.87105e-77
8.84418e-75
8.73932e-75
8.82111e-75
8.67403e-75
8.71136e-75
8.81048e-75
8.78188e-75
8.57207e-75
8.64794e-75
8.87172e-75
8.70069e-75
8.87555e-75
8.7224e-75
8.87398e-75
8.63917e-75
8.92948e-75
8.61676e-75
8.72293e-75
8.71591e-75
8.51806e-75
2.03229e-72
2.00862e-72
2.02706e-72
1.99394e-72
2.00178e-72
2.02505e-72
2.01831e-72
1.97041e-72
1.98779e-72
2.03911e-72
1.99996e-72
2.03969e-72
2.00524e-72
2.03965e-72
1.98596e-72
2.05221e-72
1.98101e-72
2.00524e-72
2.00311e-72
1.95803e-72
2.75793e-70
2.7264e-70
2.75093e-70
2.7069e-70
2.71655e-70
2.74879e-70
2.73942e-70
2.67486e-70
2.69837e-70
2.76786e-70
2.71494e-70
2.76823e-70
2.7225e-70
2.76859e-70
2.6961e-70
2.78535e-70
2.6897e-70
2.72232e-70
2.71874e-70
2.65811e-70
2.60905e-68
2.57981e-68
2.60253e-68
2.56175e-68
2.56992e-68
2.60103e-68
2.59197e-68
2.53133e-68
2.55352e-68
2.61904e-68
2.56922e-68
2.61899e-68
2.57671e-68
2.61972e-68
2.55152e-68
2.63526e-68
2.5458e-68
2.57636e-68
2.57231e-68
2.51555e-68
1.73465e-66
1.71561e-66
1.73039e-66
1.70385e-66
1.70866e-66
1.72975e-66
1.7236e-66
1.68358e-66
1.69834e-66
1.74168e-66
1.70876e-66
1.7414e-66
1.71396e-66
1.74213e-66
1.69704e-66
1.75222e-66
1.69349e-66
1.71357e-66
1.71045e-66
1.67316e-66
7.90537e-65
7.82067e-65
7.88639e-65
7.76812e-65
7.78714e-65
7.88495e-65
7.8565e-65
7.67559e-65
7.74309e-65
7.93909e-65
7.79031e-65
7.9366e-65
7.81479e-65
7.941e-65
7.7369e-65
7.98558e-65
7.72221e-65
7.81216e-65
7.79601e-65
7.62868e-65
2.39377e-63
2.36883e-63
2.3882e-63
2.3532e-63
2.3581e-63
2.38816e-63
2.37949e-63
2.32521e-63
2.34592e-63
2.4044e-63
2.35999e-63
2.40333e-63
2.36749e-63
2.40491e-63
2.34363e-63
2.41782e-63
2.33983e-63
2.36635e-63
2.36092e-63
2.31147e-63
1.9832e-62
1.96355e-62
1.97908e-62
1.95081e-62
1.95409e-62
1.97922e-62
1.97218e-62
1.92777e-62
1.94566e-62
1.9924e-62
1.95681e-62
1.99137e-62
1.96277e-62
1.99272e-62
1.94269e-62
2.00256e-62
1.94055e-62
1.96136e-62
1.95651e-62
1.91728e-62
8.27461e-63
8.27844e-63
8.32662e-63
8.20464e-63
8.21913e-63
8.2721e-63
8.29648e-63
8.13588e-63
8.35304e-63
8.27402e-63
8.30948e-63
8.3151e-63
8.22726e-63
8.26376e-63
8.12593e-63
8.20998e-63
8.24658e-63
8.18268e-63
8.20039e-63
8.25331e-63
1.40917e-62
1.41697e-62
1.4309e-62
1.4065e-62
1.39895e-62
1.40255e-62
1.41387e-62
1.39178e-62
1.4322e-62
1.42395e-62
1.43086e-62
1.42074e-62
1.41695e-62
1.40323e-62
1.39318e-62
1.40292e-62
1.39118e-62
1.39735e-62
1.40525e-62
1.40594e-62
1.55266e-62
1.56182e-62
1.57034e-62
1.54087e-62
1.54415e-62
1.52243e-62
1.55309e-62
1.53452e-62
1.5558e-62
1.58807e-62
1.5698e-62
1.54142e-62
1.57249e-62
1.55503e-62
1.55045e-62
1.56075e-62
1.50656e-62
1.5473e-62
1.53044e-62
1.53226e-62
1.82771e-62
1.84487e-62
1.84759e-62
1.84467e-62
1.85152e-62
1.86723e-62
1.89414e-62
1.85679e-62
1.85558e-62
1.83123e-62
1.83511e-62
1.8388e-62
1.85714e-62
1.86568e-62
1.83498e-62
1.85084e-62
1.85692e-62
1.84085e-62
1.82722e-62
1.83498e-62
1.93251e-62
1.92191e-62
1.93065e-62
1.96603e-62
1.95394e-62
1.97252e-62
1.93831e-62
1.97811e-62
1.93035e-62
1.89846e-62
1.90569e-62
1.92202e-62
1.92306e-62
1.89917e-62
1.89108e-62
1.91201e-62
1.88979e-62
1.92627e-62
1.9091e-62
1.94175e-62
2.01389e-62
2.00604e-62
2.03882e-62
2.01667e-62
2.00729e-62
2.04431e-62
2.02854e-62
2.06426e-62
2.01503e-62
2.04733e-62
2.0336e-62
2.03994e-62
2.04136e-62
2.05192e-62
2.03131e-62
2.07334e-62
2.02526e-62
2.00219e-62
2.02452e-62
2.01468e-62
1.96319e-62
1.93618e-62
1.93271e-62
1.93386e-62
1.95658e-62
1.97092e-62
1.96619e-62
1.95658e-62
1.92106e-62
1.93088e-62
1.90938e-62
1.95994e-62
1.96354e-62
1.9832e-62
1.98015e-62
1.97137e-62
1.95953e-62
1.96689e-62
1.94602e-62
1.95132e-62
1.84518e-62
1.8743e-62
1.8454e-62
1.90019e-62
1.84517e-62
1.88605e-62
1.85287e-62
1.88226e-62
1.85824e-62
1.87284e-62
1.86253e-62
1.90179e-62
1.86312e-62
1.91193e-62
1.85976e-62
1.88141e-62
1.88425e-62
1.83952e-62
1.89081e-62
1.8897e-62
1.63394e-62
1.68471e-62
1.67159e-62
1.65262e-62
1.63973e-62
1.69927e-62
1.66935e-62
1.67875e-62
1.66632e-62
1.64201e-62
1.6581e-62
1.68826e-62
1.65784e-62
1.71181e-62
1.65876e-62
1.68591e-62
1.69001e-62
1.67216e-62
1.69409e-62
1.70038e-62
1.58106e-62
1.58135e-62
1.58227e-62
1.60034e-62
1.60315e-62
1.60357e-62
1.57127e-62
1.60327e-62
1.62025e-62
1.58039e-62
1.60831e-62
1.619e-62
1.56894e-62
1.62652e-62
1.61864e-62
1.64808e-62
1.60528e-62
1.62098e-62
1.60265e-62
1.63654e-62
1.04544e-62
1.05396e-62
1.05187e-62
1.04181e-62
1.05269e-62
1.04969e-62
1.0529e-62
1.05254e-62
1.04665e-62
1.06392e-62
1.04058e-62
1.06585e-62
1.0417e-62
1.07615e-62
1.04448e-62
1.04616e-62
1.04885e-62
1.06919e-62
1.05328e-62
1.07679e-62
5.57816e-76
5.5119e-76
5.5637e-76
5.47085e-76
5.49446e-76
5.5571e-76
5.53896e-76
5.40668e-76
5.4543e-76
5.59595e-76
5.48769e-76
5.59837e-76
5.50142e-76
5.59721e-76
5.4489e-76
5.63233e-76
5.43436e-76
5.50162e-76
5.49727e-76
5.37201e-76
2.50037e-73
2.4712e-73
2.49399e-73
2.45321e-73
2.46287e-73
2.49156e-73
2.48322e-73
2.42431e-73
2.44557e-73
2.50897e-73
2.46062e-73
2.50968e-73
2.46714e-73
2.50955e-73
2.44341e-73
2.52508e-73
2.43713e-73
2.46709e-73
2.4645e-73
2.40877e-73
5.64526e-71
5.58067e-71
5.63113e-71
5.54092e-71
5.56069e-71
5.62682e-71
5.60753e-71
5.4754e-71
5.52323e-71
5.66611e-71
5.55734e-71
5.66686e-71
5.5729e-71
5.66744e-71
5.51886e-71
5.70195e-71
5.50527e-71
5.57242e-71
5.56516e-71
5.44033e-71
7.54926e-69
7.4646e-69
7.53075e-69
7.4126e-69
7.43631e-69
7.52655e-69
7.50015e-69
7.32467e-69
7.38844e-69
7.57907e-69
7.4342e-69
7.57893e-69
7.45609e-69
7.58085e-69
7.38319e-69
7.62621e-69
7.36587e-69
7.45496e-69
7.44336e-69
7.27784e-69
7.01918e-67
6.94214e-67
7.00235e-67
6.89481e-67
6.9143e-67
6.99984e-67
6.97475e-67
6.81277e-67
6.87194e-67
7.04858e-67
6.91451e-67
7.04736e-67
6.93582e-67
7.05018e-67
6.86742e-67
7.09151e-67
6.85223e-67
6.93425e-67
6.92172e-67
6.76933e-67
4.59552e-65
4.54622e-65
4.58478e-65
4.51587e-65
4.52699e-65
4.58403e-65
4.56729e-65
4.46205e-65
4.50077e-65
4.61587e-65
4.52861e-65
4.61438e-65
4.54314e-65
4.61687e-65
4.49793e-65
4.64329e-65
4.48866e-65
4.5417e-65
4.53238e-65
4.43374e-65
2.06028e-63
2.03874e-63
2.0556e-63
2.0254e-63
2.02963e-63
2.05565e-63
2.04803e-63
2.00124e-63
2.01866e-63
2.06986e-63
2.03106e-63
2.06888e-63
2.03779e-63
2.07027e-63
2.01731e-63
2.08175e-63
2.01354e-63
2.03692e-63
2.03224e-63
1.98868e-63
6.13475e-62
6.07248e-62
6.12136e-62
6.03346e-62
6.04386e-62
6.12244e-62
6.09962e-62
5.96157e-62
6.01415e-62
6.16437e-62
6.05047e-62
6.16062e-62
6.07078e-62
6.16541e-62
6.00906e-62
6.19807e-62
5.9995e-62
6.06727e-62
6.05201e-62
5.92531e-62
5.00625e-61
4.95805e-61
4.99666e-61
4.92671e-61
4.93325e-61
4.99793e-61
4.97967e-61
4.86842e-61
4.91316e-61
5.03148e-61
4.94153e-61
5.02804e-61
4.95748e-61
5.03204e-61
4.90632e-61
5.05653e-61
4.90103e-61
4.95342e-61
4.94014e-61
4.84101e-61
2.03504e-61
2.03606e-61
2.04822e-61
2.01824e-61
2.02135e-61
2.03456e-61
2.04025e-61
2.00117e-61
2.05462e-61
2.03525e-61
2.04396e-61
2.04502e-61
2.02386e-61
2.03249e-61
1.99901e-61
2.0189e-61
2.02818e-61
2.01266e-61
2.01708e-61
2.02993e-61
3.49363e-61
3.51259e-61
3.54725e-61
3.4866e-61
3.46809e-61
3.47666e-61
3.5043e-61
3.45036e-61
3.55003e-61
3.53018e-61
3.54692e-61
3.52155e-61
3.51272e-61
3.47897e-61
3.45406e-61
3.47775e-61
3.44822e-61
3.46394e-61
3.48328e-61
3.48453e-61
3.83363e-61
3.85588e-61
3.87707e-61
3.80433e-61
3.81284e-61
3.75989e-61
3.83521e-61
3.79016e-61
3.84069e-61
3.92012e-61
3.87479e-61
3.80564e-61
3.88187e-61
3.83976e-61
3.82806e-61
3.85353e-61
3.72079e-61
3.81974e-61
3.77917e-61
3.78324e-61
4.52539e-61
4.56628e-61
4.57374e-61
4.56751e-61
4.58396e-61
4.62323e-61
4.68745e-61
4.59768e-61
4.59381e-61
4.53355e-61
4.5427e-61
4.55217e-61
4.59735e-61
4.61861e-61
4.54344e-61
4.58191e-61
4.59658e-61
4.55803e-61
4.52383e-61
4.54347e-61
4.76978e-61
4.74278e-61
4.76424e-61
4.85099e-61
4.82162e-61
4.86742e-61
4.78292e-61
4.88151e-61
4.76244e-61
4.68646e-61
4.70297e-61
4.74392e-61
4.7456e-61
4.68747e-61
4.66778e-61
4.71928e-61
4.66396e-61
4.75371e-61
4.71198e-61
4.79148e-61
4.98807e-61
4.96825e-61
5.04882e-61
4.99375e-61
4.9717e-61
5.06335e-61
5.02335e-61
5.11218e-61
4.99104e-61
5.07099e-61
5.03642e-61
5.05233e-61
5.05535e-61
5.08323e-61
5.03158e-61
5.13445e-61
5.01627e-61
4.95901e-61
5.01424e-61
4.98875e-61
4.84967e-61
4.78413e-61
4.77404e-61
4.77795e-61
4.83333e-61
4.86872e-61
4.8566e-61
4.83337e-61
4.74653e-61
4.77033e-61
4.71709e-61
4.84119e-61
4.85068e-61
4.89837e-61
4.89143e-61
4.86893e-61
4.84057e-61
4.85923e-61
4.80797e-61
4.82091e-61
4.57938e-61
4.65209e-61
4.57995e-61
4.7147e-61
4.57822e-61
4.67929e-61
4.59739e-61
4.67051e-61
4.61144e-61
4.64815e-61
4.62186e-61
4.71971e-61
4.62338e-61
4.74393e-61
4.61575e-61
4.66793e-61
4.67596e-61
4.56556e-61
4.69217e-61
4.68946e-61
4.04995e-61
4.17424e-61
4.14262e-61
4.09521e-61
4.06392e-61
4.20993e-61
4.13587e-61
4.15947e-61
4.12898e-61
4.06902e-61
4.10821e-61
4.18266e-61
4.10806e-61
4.24033e-61
4.11037e-61
4.1772e-61
4.18666e-61
4.14372e-61
4.19682e-61
4.21297e-61
3.94635e-61
3.94712e-61
3.95008e-61
3.99447e-61
4.00076e-61
4.00198e-61
3.92153e-61
4.00269e-61
4.04349e-61
3.94509e-61
4.01412e-61
4.04112e-61
3.9161e-61
4.05928e-61
4.04002e-61
4.11281e-61
4.00709e-61
4.04491e-61
3.99949e-61
4.08333e-61
2.59761e-61
2.61889e-61
2.61399e-61
2.58879e-61
2.61524e-61
2.60808e-61
2.61561e-61
2.61536e-61
2.59968e-61
2.64301e-61
2.58501e-61
2.64752e-61
2.58805e-61
2.67321e-61
2.59494e-61
2.59918e-61
2.60542e-61
2.65596e-61
2.61669e-61
2.67464e-61
1.60042e-74
1.58172e-74
1.59637e-74
1.57024e-74
1.57645e-74
1.59485e-74
1.58948e-74
1.55179e-74
1.56533e-74
1.60606e-74
1.575e-74
1.60651e-74
1.57918e-74
1.60638e-74
1.56398e-74
1.61635e-74
1.55985e-74
1.5791e-74
1.57747e-74
1.54166e-74
7.05584e-72
6.97501e-72
7.03835e-72
6.92553e-72
6.9503e-72
7.03312e-72
7.00888e-72
6.84378e-72
6.90323e-72
7.08254e-72
6.94607e-72
7.08347e-72
6.9656e-72
7.08399e-72
6.89802e-72
7.12732e-72
6.88048e-72
6.96484e-72
6.95584e-72
6.79907e-72
1.565e-69
1.54744e-69
1.56122e-69
1.53671e-69
1.54163e-69
1.56038e-69