/*--------------------------------*- C++ -*----------------------------------*\
| =========                 |                                                 |
| \\      /  F ield         | OpenFOAM: The Open Source CFD Toolbox           |
|  \\    /   O peration     | Version:  2212                                  |
|   \\  /    A nd           | Website:  www.openfoam.com                      |
|    \\/     M anipulation  |                                                 |
\*---------------------------------------------------------------------------*/
FoamFile
{
    version     2.0;
    format      ascii;
    arch        "LSB;label=32;scalar=64";
    class       volScalarField;
    location    "0.004";
    object      T;
}
// * * * * * * * * * * * * * * * * * * * * * * * * * * * * * * * * * * * * * //

dimensions      [0 0 0 1 0 0 0];

internalField   nonuniform List<scalar> 
2308
(
274.991
274.674
274.932
272.039
273.697
272.93
272.546
273.343
273.949
267.226
267.604
268.176
268.659
269.047
269.462
269.862
270.255
270.591
270.229
269.84
269.428
269.007
268.577
268.126
267.673
267.219
266.788
266.377
272.597
270.639
265.974
265.593
265.223
264.88
264.576
264.298
264
263.638
263.191
262.678
262.134
261.593
261.077
260.597
260.151
260.146
260.59
261.07
261.584
262.125
262.669
263.184
263.632
263.998
264.297
264.577
264.88
265.224
265.594
265.979
266.383
266.777
267.189
267.572
267.937
268.334
268.726
269.125
269.527
269.928
270.327
259.736
259.731
270.277
269.853
269.426
268.996
268.56
268.113
267.672
267.231
266.786
266.374
265.986
265.608
265.234
264.886
264.581
264.302
264.003
263.638
263.189
262.675
262.131
261.59
261.075
260.596
260.151
270.96
259.736
271.011
270.722
259.725
260.138
260.58
261.057
261.569
262.109
262.655
263.172
263.625
263.997
264.302
264.586
264.895
265.244
265.617
265.996
266.38
266.768
267.177
267.582
267.998
268.407
268.805
269.207
269.611
270.014
270.414
273.6
272.819
272.465
272.678
270.805
270.341
269.885
269.445
269.011
268.572
268.127
267.682
267.246
266.811
266.396
266.005
265.623
265.249
264.901
264.595
264.313
264.008
263.636
263.183
262.666
262.121
261.581
261.068
260.591
260.148
259.734
259.341
259.343
259.341
259.338
273.535
259.333
273.828
273.963
271.109
274.25
273.464
271.358
270.816
258.963
258.964
258.962
258.959
258.955
258.949
259.325
259.715
260.126
260.565
261.038
261.548
262.087
262.634
263.156
263.617
263.999
264.313
264.604
264.916
265.266
265.638
266.017
266.402
266.801
267.216
267.634
268.056
268.471
268.881
269.29
269.698
270.106
270.51
271.7
275.033
273.442
273.297
272.917
272.53
272.119
271.69
271.251
270.805
270.36
269.915
269.475
269.037
268.597
268.153
267.71
267.277
266.852
266.438
266.042
265.655
265.276
264.927
264.618
264.329
264.014
263.631
263.168
262.647
262.1
261.562
261.053
260.579
260.14
259.729
259.337
258.96
276.348
274.084
275.006
271.633
274.816
274.097
271.211
271.727
258.942
259.316
259.704
260.111
260.546
261.016
261.522
262.059
262.608
263.135
263.607
264.002
264.329
264.629
264.947
265.302
265.682
266.067
266.459
266.865
267.28
267.698
268.119
268.539
268.956
269.371
269.783
270.195
270.602
270.913
274.395
274.017
273.329
272.924
272.521
272.109
271.685
271.253
270.816
270.377
269.94
269.506
269.071
268.633
268.191
267.753
267.322
266.9
266.489
266.092
265.7
265.317
264.964
264.649
264.349
264.019
263.621
263.147
262.619
262.071
261.536
261.031
260.562
260.126
259.719
259.33
258.954
258.587
258.591
258.593
258.594
258.592
258.59
258.587
258.583
258.577
274.991
274.856
288.46
274.321
274.966
264.817
271.003
271.314
274.569
274.526
274.998
273.19
273.294
272.915
272.512
272.099
271.681
271.257
270.829
270.4
269.97
269.542
269.11
268.674
268.236
267.802
267.376
266.958
266.551
266.154
265.758
265.372
265.014
264.689
264.374
264.024
263.606
263.118
262.582
262.035
261.503
261.003
260.539
260.109
259.706
259.32
258.947
258.582
258.218
258.222
258.225
258.226
258.227
258.226
258.224
258.222
258.218
258.213
258.208
258.57
258.934
259.306
259.691
260.094
260.525
260.99
261.491
262.026
262.575
263.11
263.596
264.008
264.352
264.664
264.99
265.352
265.741
266.135
266.531
266.937
267.349
267.765
268.185
268.606
269.028
269.446
269.862
270.277
270.687
274.55
271.393
271.71
272.132
274.699
274.674
274.507
274.327
274.167
273.652
273.64
273.293
272.91
272.507
272.094
271.678
271.259
270.84
270.42
269.998
269.577
269.15
268.718
268.285
267.857
267.437
267.025
266.622
266.226
265.828
265.438
265.072
264.736
264.402
264.028
263.588
263.082
262.54
261.992
261.465
260.971
260.514
260.089
259.69
259.308
258.937
258.575
258.213
257.853
257.857
257.86
257.862
257.863
257.864
257.863
257.862
257.86
257.857
257.853
257.849
257.845
258.203
258.563
258.925
259.295
259.677
260.076
260.502
260.96
261.456
261.987
262.537
263.08
263.582
264.016
264.382
264.711
265.046
265.414
265.811
266.212
266.61
267.013
267.423
267.835
268.25
268.671
269.092
269.512
269.928
270.345
270.758
271.089
274.703
274.686
285.128
271.477
274.27
274.489
274.656
272.069
272.923
272.16
271.768
274.803
274.795
257.495
257.498
257.5
257.501
257.502
257.503
257.502
257.502
257.5
257.498
257.494
257.491
257.488
257.486
257.841
258.198
258.557
258.917
259.284
259.662
260.057
260.476
260.928
261.417
261.943
262.493
263.045
263.565
264.025
264.418
264.767
265.114
265.488
265.889
266.295
266.693
267.092
267.497
267.905
268.315
268.729
269.144
269.559
269.973
270.391
270.812
271.163
273.684
274.817
272.762
274.809
273.32
272.915
272.504
272.088
271.673
271.257
270.844
270.433
270.021
269.607
269.187
268.762
268.336
267.915
267.501
267.094
266.697
266.303
265.905
265.512
265.14
264.79
264.433
264.032
263.565
263.043
262.492
261.944
261.422
260.935
260.485
260.067
259.673
259.294
258.927
258.567
258.207
257.85
257.494
274.8
274.816
275.729
272.126
274.899
271.855
257.485
257.839
258.194
258.551
258.908
259.272
259.646
260.035
260.449
260.893
261.375
261.896
262.446
263.006
263.546
264.035
264.459
264.834
265.196
265.574
265.974
266.381
266.777
267.169
267.566
267.968
268.37
268.775
269.181
269.587
269.996
270.413
270.84
271.231
273.44
274.898
257.13
257.13
257.131
257.133
257.134
257.135
257.135
257.135
257.135
257.133
257.131
257.129
257.126
257.124
257.123
257.123
273.905
274.883
274.769
274.616
274.421
272.936
273.085
274.459
272.188
273.305
272.9
272.492
272.079
271.664
271.25
270.841
270.436
270.033
269.627
269.216
268.801
268.384
267.971
267.564
267.165
266.774
266.384
265.987
265.593
265.216
264.851
264.468
264.036
263.542
263
262.441
261.893
261.376
260.897
260.455
260.043
259.654
259.28
258.916
258.559
258.201
257.846
257.492
257.129
275.364
271.556
272.429
274.888
274.91
274.905
273.19
275.641
276.528
272.688
272.229
271.279
272.646
274.958
273.301
275.141
257.124
257.485
257.838
258.191
258.545
258.899
259.259
259.628
260.013
260.419
260.857
261.331
261.846
262.396
262.965
263.525
264.044
264.503
264.908
265.287
265.67
266.066
266.466
266.857
267.24
267.627
268.019
268.411
268.806
269.2
269.595
269.996
270.41
270.837
271.266
273.684
275.002
275.015
256.773
256.772
256.772
256.773
256.774
256.775
256.775
256.776
256.775
256.775
256.774
256.772
256.77
256.769
256.767
256.766
256.767
256.769
273.005
274.939
274.851
274.727
274.569
274.372
274.811
275.029
273.612
273.253
272.867
272.466
272.059
271.65
271.241
270.834
270.432
270.033
269.635
269.235
268.832
268.427
268.024
267.624
267.232
266.849
266.464
266.072
265.681
265.299
264.918
264.506
264.04
263.517
262.956
262.389
261.841
261.329
260.857
260.423
260.017
259.633
259.264
258.904
258.55
258.196
257.844
257.491
257.13
256.775
274.091
271.632
275.02
274.74
274.861
274.953
271.937
274.968
274.97
274.976
275.184
275
274.824
272.148
271.632
273.453
275.792
275.367
271.223
270.812
270.396
269.988
269.591
269.205
268.823
268.44
268.058
267.676
267.302
266.93
266.55
266.161
265.77
265.384
264.986
264.55
264.054
263.503
262.923
262.346
261.796
261.286
260.819
260.389
259.989
259.61
259.246
258.89
258.54
258.189
257.838
257.488
257.128
256.774
275.105
256.4
256.398
256.397
256.397
256.397
256.398
256.399
256.399
256.399
256.399
256.399
256.398
256.396
256.395
256.393
256.392
256.392
256.392
256.394
256.399
273.858
271.718
274.585
276.345
276.312
276.296
276.38
276.59
275.924
275.419
275.11
272.403
274.977
274.971
274.995
274.997
274.825
274.925
274.991
272.308
274.252
275.591
274.967
274.907
274.814
274.696
274.558
274.218
274.499
273.87
273.556
273.207
272.835
272.443
272.041
271.635
271.228
270.822
270.422
270.025
269.633
269.244
268.855
268.463
268.07
267.679
267.296
266.921
266.543
266.158
265.771
265.387
264.987
264.546
264.045
263.492
262.912
262.337
261.79
261.283
260.818
260.39
259.99
259.613
259.249
258.893
258.543
258.193
257.842
257.492
257.133
256.779
256.404
274.995
274.958
274.894
274.837
274.922
272.022
274.845
274.857
274.903
275.014
275.013
275.007
274.932
274.965
274.889
275.092
274.986
274.918
275.114
275.04
274.935
274.977
275.501
276.114
276.934
271.213
270.793
270.379
269.974
269.581
269.201
268.828
268.456
268.084
267.714
267.353
266.994
266.629
266.252
265.871
265.481
265.065
264.595
264.063
263.482
262.883
262.297
261.748
261.243
260.783
260.36
259.966
259.594
259.235
258.884
258.538
258.191
257.842
257.495
257.136
256.784
256.408
274.686
274.786
274.872
274.938
274.98
275.002
274.865
273.607
271.842
274.693
274.847
274.945
274.951
275.013
275.009
271.812
274.859
274.868
273.816
274.017
277.129
275.181
275.628
275.014
256.054
256.049
256.047
256.046
256.046
256.046
256.047
256.047
256.047
256.047
256.047
256.047
256.046
256.045
256.044
256.043
256.042
256.042
256.042
256.044
256.048
256.06
277.031
276.985
276.964
277.109
277.423
277.899
275.139
272.124
274.398
274.806
274.778
273.262
274.883
274.883
275.034
274.835
275.013
275.025
274.849
272.402
264.181
277.222
275.033
274.288
274.082
273.823
273.518
273.178
272.813
272.428
272.029
271.622
271.214
270.808
270.407
270.012
269.624
269.243
268.867
268.489
268.107
267.726
267.353
266.987
266.617
266.241
265.863
265.476
265.058
264.585
264.05
263.469
262.871
262.288
261.741
261.239
260.78
260.358
259.966
259.594
259.236
258.885
258.54
258.193
257.845
257.499
257.139
256.788
256.413
256.065
280.332
274.908
264.3
274.78
274.939
275.016
275.691
274.502
273.197
274.918
273.75
273.698
274.684
274.769
274.846
274.91
274.954
274.984
275.006
275.014
275.005
274.998
273.612
274.847
272.904
274.35
272.02
271.611
271.196
270.778
270.366
269.963
269.572
269.197
268.829
268.465
268.101
267.742
267.392
267.047
266.697
266.337
265.968
265.576
265.139
264.638
264.072
263.463
262.848
262.255
261.706
261.206
260.753
260.338
259.951
259.587
259.233
258.889
258.547
258.205
257.859
257.518
257.157
256.812
256.432
256.091
275.594
276.335
277.295
278.275
274.908
264.368
274.893
274.942
274.973
274.952
274.999
274.982
271.484
274.589
272.578
272.262
274.531
274.736
274.685
274.403
274.864
274.87
275.014
275.04
271.929
274.841
273.191
274.848
274.871
275.02
275.032
274.841
272.765
273.444
273.759
274.784
274.856
274.832
274.83
274.438
274.591
277.745
277.472
277.312
277.28
277.364
277.668
278.121
278.622
278.748
274.176
272.512
275.04
275.042
274.837
274.869
274.056
274.283
274.068
273.809
273.51
273.173
272.81
272.425
272.025
271.617
271.206
270.797
270.394
269.998
269.611
269.237
268.87
268.505
268.135
267.766
267.403
267.046
266.686
266.322
265.954
265.564
265.126
264.624
264.056
263.449
262.836
262.245
261.699
261.201
260.749
260.335
259.949
259.585
259.231
258.888
258.547
258.206
257.86
257.52
257.16
256.815
256.435
256.095
255.672
255.65
255.644
255.641
255.64
255.639
255.639
255.64
255.641
255.64
255.64
255.641
255.641
255.641
255.64
255.639
255.638
255.637
255.636
255.635
255.635
255.635
255.638
255.645
255.667
274.698
274.842
274.963
274.976
275
274.649
277.897
277.474
272.348
272.664
274.75
274.824
274.886
274.932
274.965
274.992
275.015
275.021
275.001
274.962
274.873
274.923
274.914
272.413
274.644
274.57
274.861
275.025
271.598
274.844
274.887
274.914
275.028
274.849
273.108
274.841
274.007
274.981
274.999
274.999
274.98
274.949
274.916
274.863
274.705
277.452
273.94
275.1
275.51
276.206
277.153
278.142
278.689
273.907
272.88
273.16
275.044
279.292
279.282
279.671
279.422
279.298
279.245
279.126
279.058
279.069
279.075
278.894
278.831
274.893
274.833
273.526
275.01
272.423
266.557
274.007
274.501
274.314
274.087
273.822
273.519
273.182
272.817
272.432
272.032
271.621
271.207
270.794
270.389
269.991
269.603
269.231
268.872
268.516
268.157
267.799
267.446
267.098
266.75
266.401
266.043
265.653
265.2
264.669
264.07
263.44
262.817
262.222
261.676
261.184
260.738
260.333
259.956
259.602
259.255
258.923
258.587
258.258
257.913
257.589
257.224
256.897
256.511
256.188
255.758
255.446
255.346
255.316
255.308
255.306
255.305
255.305
255.306
255.307
255.308
255.308
255.308
255.308
255.309
255.309
255.308
255.307
255.305
255.304
255.303
255.302
255.301
255.301
255.302
255.31
255.341
255.443
255.755
256.187
256.51
256.897
257.224
257.59
257.914
258.259
258.589
258.926
259.258
259.606
259.959
260.337
260.743
261.189
261.684
262.232
262.829
263.455
264.087
264.688
265.219
265.67
266.059
266.415
266.755
267.09
267.423
267.763
268.115
268.474
268.834
269.198
269.573
269.962
270.362
270.773
271.196
271.624
272.065
272.488
272.894
273.251
274.947
273.914
274.135
274.407
274.585
273.322
274.78
275.042
274.866
272.646
272.96
274.601
274.337
274.238
274.574
274.84
274.836
274.99
274.867
274.937
274.97
274.893
275.042
275.014
274.844
274.89
274.963
273.222
274.857
275.032
274.933
274.901
275.018
275.002
274.838
274.425
274.481
272.801
274.926
274.987
275.03
275.043
275.032
275.009
274.982
274.953
274.917
274.87
274.807
275.031
274.173
272.911
274.851
274.899
274.937
274.969
274.999
275.023
275.033
275.016
274.305
273.66
274.916
275.077
275.489
276.308
272.919
275.056
274.112
274.923
273.815
274.85
273.776
274.91
275.106
275.548
276.324
277.542
278.878
279.365
273.877
273.685
274.421
274.184
273.91
273.601
273.254
272.881
272.479
272.061
271.627
271.198
270.778
270.37
269.973
269.588
269.215
268.855
268.498
268.144
267.797
267.459
267.134
266.817
266.501
266.166
265.781
265.312
264.746
264.12
263.476
262.85
262.262
261.724
261.243
260.812
260.423
260.06
259.73
259.393
259.089
258.762
258.462
258.126
257.836
257.476
257.182
256.807
256.51
256.102
255.798
274.99
275.034
254.955
254.861
254.84
254.837
254.839
254.841
254.843
254.845
254.846
254.848
254.849
254.849
254.85
254.851
254.85
254.849
254.848
254.846
254.844
254.842
254.84
254.837
254.834
254.832
254.834
254.856
254.952
255.335
274.986
275.855
275.144
274.859
274.924
274.899
275.022
275.092
275.374
275.733
276.456
277.623
278.226
278.448
278.389
278.842
278.928
277.538
274.677
274.535
274.347
274.119
273.852
273.546
273.206
272.838
272.451
272.049
271.636
271.22
270.805
270.397
269.999
269.611
269.24
268.886
268.536
268.187
267.84
267.493
267.154
266.824
266.496
266.151
265.759
265.288
264.723
264.099
263.46
262.837
262.251
261.716
261.236
260.805
260.418
260.054
259.725
259.389
259.085
258.759
258.458
258.123
257.832
257.472
257.177
256.803
256.506
256.099
255.792
255.334
274.882
274.954
274.845
274.84
274.063
274.446
273.018
273.316
274.989
275.03
274.792
275.007
273.747
274.84
274.894
274.93
274.961
274.987
275.017
275.054
275.084
275.095
277.068
270.843
274.965
275.009
275.269
275.814
274.856
274.994
275.064
275.094
275.082
275.056
275.028
275.003
274.975
274.943
274.906
273.164
274.294
274.27
274.844
274.969
274.917
274.957
275.015
274.732
274.607
274.434
274.211
273.941
273.63
273.282
272.9
272.496
272.078
271.653
271.231
270.816
270.416
270.029
269.653
269.29
268.94
268.591
268.245
267.911
267.575
267.261
266.983
266.701
266.383
266.008
265.538
264.968
264.346
263.71
263.092
262.524
262.014
261.558
261.156
260.802
260.474
260.182
259.882
259.622
259.329
259.072
258.78
258.522
258.213
257.953
257.631
257.365
257.01
256.752
256.349
274.805
274.782
274.803
274.983
275.565
276.972
279.469
281.684
279.802
273.624
274.862
275.008
274.899
274.868
273.888
273.37
279.614
280.745
281.306
281.609
274.185
274.837
282.341
281.936
281.932
281.405
281.919
281.901
281.898
281.775
281.757
281.686
281.822
282.023
280.955
279.903
280.4
289.608
255.072
254.675
254.573
254.549
254.546
254.549
254.552
254.555
254.558
254.56
254.562
254.564
254.564
254.564
254.565
254.565
254.564
254.562
254.56
254.558
254.555
254.552
254.549
254.544
254.541
254.544
254.568
254.672
255.072
256.11
274.702
274.567
274.384
274.159
273.894
273.589
273.247
272.876
272.487
272.085
271.675
271.261
270.848
270.444
270.052
269.67
269.308
268.965
268.627
268.287
267.957
267.616
267.294
267.002
266.701
266.367
265.982
265.509
264.941
264.324
263.693
263.079
262.513
262.005
261.55
261.149
260.796
260.468
260.176
259.877
259.617
259.324
259.067
258.774
258.515
258.206
257.946
257.624
257.358
257.003
256.746
256.344
256.106
274.985
274.935
274.87
274.101
273.494
257.097
257.447
274.792
274.703
256.855
253.89
255.456
254.328
253.775
253.79
253.785
253.778
253.798
253.792
253.807
253.803
253.813
253.81
253.817
253.815
253.816
253.817
253.815
253.816
253.809
253.812
253.8
253.805
253.788
253.795
253.779
253.781
253.895
253.794
257.097
256.855
255.458
254.332
257.706
257.447
258.28
258.02
258.83
258.569
259.359
259.104
259.875
259.626
260.394
260.139
260.948
260.665
261.593
261.255
262.408
261.973
263.47
262.906
264.724
264.085
265.947
265.357
266.817
266.441
267.404
267.122
267.982
267.682
268.61
268.297
269.226
268.92
269.872
269.539
270.594
270.226
271.372
270.975
272.169
271.772
272.951
272.564
273.657
273.321
274.202
273.948
274.593
274.418
274.812
274.721
274.922
274.875
274.991
274.96
275.041
275.017
275.112
275.069
275.143
275.149
274.999
275.081
274.802
274.911
274.75
274.76
275.777
274.859
284.065
278.942
286.598
265.869
269.094
265.524
265.021
266.918
266.46
267.087
267.091
266.98
267.04
266.809
266.93
266.359
266.286
283.172
265.055
283.354
276.332
267.297
258.785
285.361
285.982
282.823
284.469
280.613
282.196
276.212
278.172
275.121
275.428
275.08
275.069
275.118
275.121
275.044
275.083
274.996
275.017
274.95
274.975
274.878
274.918
274.743
274.823
274.454
274.622
273.989
274.242
273.348
273.694
272.558
272.962
271.734
272.145
270.936
271.329
270.202
270.561
269.524
269.856
268.886
269.203
268.25
268.568
267.642
267.934
267.118
267.379
266.471
266.834
265.387
265.98
264.104
264.749
262.917
263.484
261.982
262.417
261.262
261.601
260.671
260.954
260.143
260.399
259.628
259.878
259.105
259.361
258.571
258.832
258.021
258.281
257.707
270.929
262.856
274.91
273.004
256.319
274.975
256.32
275.154
272.78
254.615
254.888
259.764
259.062
271.627
271.591
272.576
274.862
274.913
274.954
274.949
271.259
271.771
271.317
274.36
273.92
274.149
274.524
274.127
274.336
274.663
274.305
274.498
274.775
274.456
274.631
274.89
273.74
287.597
273.95
285.692
273.472
275.01
274.914
273.893
274.177
273.55
272.184
270.583
274.854
273.546
272.123
274.569
278.437
274.195
276.449
273.048
273.623
274.866
272.626
273.491
272.136
275.032
272.563
272.321
273.192
274.436
291.891
275.398
275.027
274.761
274.805
274.872
278.556
274.981
274.885
282.683
272.547
271.59
271.948
274.845
271.312
275.025
274.421
274.941
273.302
267.914
266.862
274.636
)
;

boundaryField
{
    wall
    {
        type            zeroGradient;
    }
    outlet
    {
        type            inletOutlet;
        inletValue      uniform 85;
        value           nonuniform List<scalar> 
33
(
253.901
255.464
254.337
253.785
253.8
253.796
253.789
253.81
253.803
253.818
253.815
253.824
253.822
253.828
253.827
253.827
253.829
253.826
253.827
253.82
253.823
253.811
253.816
253.799
253.806
253.789
253.792
253.905
253.805
255.466
254.341
256.327
256.328
)
;
    }
    inlet
    {
        type            fixedValue;
        value           uniform 273.16;
    }
    frontAndBackPlanes
    {
        type            empty;
    }
}


// ************************************************************************* //
