/*--------------------------------*- C++ -*----------------------------------*\
| =========                 |                                                 |
| \\      /  F ield         | OpenFOAM: The Open Source CFD Toolbox           |
|  \\    /   O peration     | Version:  2212                                  |
|   \\  /    A nd           | Website:  www.openfoam.com                      |
|    \\/     M anipulation  |                                                 |
\*---------------------------------------------------------------------------*/
FoamFile
{
    version     2.0;
    format      ascii;
    arch        "LSB;label=32;scalar=64";
    class       surfaceScalarField;
    location    "0.00072";
    object      phi;
}
// * * * * * * * * * * * * * * * * * * * * * * * * * * * * * * * * * * * * * //

dimensions      [1 0 -1 0 0 0 0];

oriented        oriented;

internalField   nonuniform List<scalar> 
13427
(
-5.83445e-09
-2.48472e-07
1.96753e-09
-7.7483e-10
-3.53967e-07
-2.41791e-09
-3.20487e-07
-4.89609e-09
-2.99118e-07
-2.40278e-09
-2.06424e-07
9.84679e-09
-1.57474e-07
1.61965e-08
-9.62948e-08
1.45944e-08
-4.77102e-08
1.39551e-08
-1.72276e-08
1.3428e-08
-1.58342e-08
1.32589e-08
-1.58181e-08
1.45499e-08
-3.1223e-08
1.56268e-08
-4.30091e-08
1.74863e-08
-6.53362e-08
1.91016e-08
-8.43781e-08
2.14937e-08
-1.09431e-07
2.26288e-08
-1.39197e-07
2.37584e-08
-1.84981e-07
1.79279e-08
-2.82081e-07
-5.22511e-07
-4.98472e-09
-2.46953e-07
1.94718e-09
8.559e-10
-3.62143e-07
1.44877e-09
-3.20683e-07
-2.95926e-09
-2.95572e-07
1.6455e-09
-2.12022e-07
1.68109e-08
-1.69845e-07
2.66713e-08
-1.01721e-07
2.55995e-08
-4.22198e-08
2.47278e-08
-1.23155e-08
2.48498e-08
-1.13628e-08
2.48657e-08
-1.06248e-08
2.55463e-08
-2.62547e-08
2.6806e-08
-3.75887e-08
2.83413e-08
-5.94476e-08
2.97465e-08
-7.71931e-08
3.1601e-08
-1.0128e-07
3.21415e-08
-1.28261e-07
3.19052e-08
-1.72481e-07
2.33914e-08
-2.58468e-07
-4.82395e-07
-4.82908e-09
-2.4567e-07
1.83817e-09
4.21662e-10
-3.71145e-07
4.42436e-09
-3.23738e-07
2.50405e-09
-2.94363e-07
5.98398e-09
-2.15788e-07
1.76505e-08
-1.80711e-07
3.5482e-08
-1.16038e-07
4.25885e-08
-4.49033e-08
4.36839e-08
-9.27432e-09
4.40147e-08
-7.0283e-09
4.39946e-08
-5.72683e-09
4.28648e-08
-1.93263e-08
4.27806e-08
-2.96119e-08
4.29928e-08
-4.96987e-08
4.30104e-08
-6.64843e-08
4.23644e-08
-8.96002e-08
4.06487e-08
-1.13891e-07
3.55507e-08
-1.53833e-07
2.37706e-08
-2.30813e-07
-4.40754e-07
-4.169e-09
-2.44558e-07
1.62869e-09
1.34927e-09
-3.80368e-07
9.94536e-09
-3.31239e-07
7.61641e-09
-2.92395e-07
1.28966e-08
-2.21126e-07
2.03145e-08
-1.88703e-07
3.84178e-08
-1.32654e-07
5.19927e-08
-5.44405e-08
5.53329e-08
-7.69083e-09
5.49949e-08
-1.70722e-09
5.3293e-08
4.6209e-10
5.05846e-08
-1.12515e-08
4.96197e-08
-2.13969e-08
5.02036e-08
-4.05216e-08
4.98239e-08
-5.57519e-08
4.84485e-08
-7.72115e-08
4.5631e-08
-9.83126e-08
3.9523e-08
-1.34815e-07
2.66036e-08
-2.05485e-07
-4.01527e-07
-3.53021e-09
-2.42777e-07
1.11203e-09
1.28116e-09
-3.8728e-07
1.56971e-08
-3.44222e-07
1.57649e-08
-2.93487e-07
2.38088e-08
-2.3009e-07
2.63506e-08
-1.90951e-07
3.62245e-08
-1.41557e-07
5.14832e-08
-6.63498e-08
6.05598e-08
-1.2147e-08
6.47713e-08
-8.80929e-10
6.4164e-08
6.44541e-09
6.18377e-08
-2.63413e-09
5.97987e-08
-1.1775e-08
5.78756e-08
-2.95278e-08
5.46145e-08
-4.24402e-08
5.07977e-08
-6.21336e-08
4.51211e-08
-8.01707e-08
3.64608e-08
-1.14326e-07
2.34815e-08
-1.80733e-07
-3.67778e-07
-2.37973e-09
-2.41178e-07
4.4922e-10
1.75687e-09
-3.91955e-07
2.16423e-08
-3.6496e-07
2.36285e-08
-2.93813e-07
3.33101e-08
-2.41073e-07
3.11071e-08
-1.88772e-07
3.35653e-08
-1.43244e-07
4.49453e-08
-7.57071e-08
5.7414e-08
-2.14807e-08
6.60273e-08
-5.33917e-09
6.82337e-08
9.45478e-09
6.73892e-08
4.71315e-09
6.46613e-08
-1.02467e-09
6.08659e-08
-1.61678e-08
5.59686e-08
-2.68822e-08
5.08288e-08
-4.51212e-08
4.45432e-08
-6.12025e-08
3.55632e-08
-9.28548e-08
2.2502e-08
-1.55315e-07
-3.34488e-07
-2.04048e-09
-2.39847e-07
2.93813e-10
2.02884e-09
-3.97114e-07
2.7266e-08
-3.91448e-07
3.43924e-08
-2.97639e-07
4.45737e-08
-2.51695e-07
4.104e-08
-1.85126e-07
3.96231e-08
-1.41516e-07
4.4206e-08
-7.9312e-08
5.39038e-08
-2.88628e-08
6.42034e-08
-1.16903e-08
6.76652e-08
1.12655e-08
6.73147e-08
1.17083e-08
6.431e-08
1.05506e-08
5.94012e-08
-1.28851e-09
5.36394e-08
-1.01491e-08
4.70095e-08
-2.66661e-08
3.94563e-08
-4.0898e-08
3.07789e-08
-7.14854e-08
1.90431e-08
-1.31464e-07
-3.03232e-07
-2.16982e-09
-2.38145e-07
6.57147e-10
1.56423e-09
-4.02402e-07
2.90432e-08
-4.20674e-07
4.32633e-08
-3.08882e-07
5.14247e-08
-2.59083e-07
5.03039e-08
-1.83886e-07
4.76702e-08
-1.39223e-07
4.69013e-08
-7.81941e-08
5.31784e-08
-3.30829e-08
6.17539e-08
-1.62607e-08
6.56314e-08
1.28787e-08
6.60289e-08
1.80236e-08
6.39311e-08
2.093e-08
5.96151e-08
1.33026e-08
5.44769e-08
6.40797e-09
4.75454e-08
-7.61644e-09
3.97551e-08
-1.96402e-08
3.10635e-08
-4.95143e-08
1.91819e-08
-1.06952e-07
-2.70546e-07
3.9269e-10
-2.3834e-07
5.74759e-10
4.17186e-09
-4.08278e-07
2.90916e-08
-4.48388e-07
5.14087e-08
-3.27078e-07
6.0021e-08
-2.65795e-07
6.08159e-08
-1.84206e-07
5.87726e-08
-1.37344e-07
5.60665e-08
-7.50274e-08
6.01635e-08
-3.49704e-08
6.53735e-08
-1.73337e-08
6.78266e-08
1.57429e-08
6.83676e-08
2.38892e-08
6.626e-08
3.11395e-08
6.2048e-08
2.75215e-08
5.62275e-08
2.33624e-08
4.90451e-08
1.23003e-08
4.06011e-08
2.32515e-09
3.17449e-08
-2.57896e-08
1.97749e-08
-8.11308e-08
-2.35967e-07
6.45409e-09
-2.43031e-07
-3.23223e-10
9.99498e-09
-4.11692e-07
3.02123e-08
-4.71097e-07
6.08003e-08
-3.53316e-07
7.17479e-08
-2.72097e-07
7.50035e-08
-1.85613e-07
7.34124e-08
-1.34965e-07
7.00005e-08
-7.01363e-08
7.28444e-08
-3.49705e-08
7.50417e-08
-1.52676e-08
7.55227e-08
2.05003e-08
7.49082e-08
3.05916e-08
7.15543e-08
4.23642e-08
6.71815e-08
4.20875e-08
6.1192e-08
4.08774e-08
5.31725e-08
3.25774e-08
4.39896e-08
2.52498e-08
3.45865e-08
-9.71177e-10
2.16896e-08
-5.30498e-08
-1.97842e-07
1.49492e-08
-2.54724e-07
-1.91835e-09
2.44648e-08
-4.18892e-07
3.84267e-08
-4.87041e-07
7.37253e-08
-3.86559e-07
8.92117e-08
-2.78545e-07
9.22544e-08
-1.83947e-07
8.7911e-08
-1.27431e-07
8.27443e-08
-6.16591e-08
8.21575e-08
-3.05248e-08
8.03395e-08
-8.79224e-09
7.85077e-08
2.722e-08
7.57211e-08
3.882e-08
7.01266e-08
5.48964e-08
6.44368e-08
5.61384e-08
5.75868e-08
5.72429e-08
4.96716e-08
5.07461e-08
4.07158e-08
4.54572e-08
3.08727e-08
2.12457e-08
1.93217e-08
-2.76832e-08
-1.64031e-07
2.29799e-08
-2.72405e-07
-3.83595e-09
4.45176e-08
-4.35256e-07
5.11203e-08
-4.89579e-07
9.43838e-08
-4.26454e-07
1.1261e-07
-2.83026e-07
1.1284e-07
-1.75239e-07
1.04395e-07
-1.1242e-07
9.51526e-08
-4.66004e-08
9.01733e-08
-2.00434e-08
8.46018e-08
2.18244e-09
8.09105e-08
3.5913e-08
7.70667e-08
4.79552e-08
7.02623e-08
6.77787e-08
6.36992e-08
6.95697e-08
5.61146e-08
7.19949e-08
4.79028e-08
6.65536e-08
3.88171e-08
6.33194e-08
2.87442e-08
4.18668e-08
1.75418e-08
-4.87779e-09
-1.34022e-07
2.619e-08
-2.90916e-07
-5.86436e-09
5.89132e-08
-4.61098e-07
6.92197e-08
-4.89848e-07
1.15698e-07
-4.68542e-07
1.35404e-07
-2.87266e-07
1.32703e-07
-1.58606e-07
1.20673e-07
-9.02243e-08
1.07273e-07
-2.47258e-08
9.78707e-08
-3.28775e-09
8.90829e-08
1.74385e-08
8.39017e-08
4.6511e-08
7.95242e-08
5.75375e-08
7.24391e-08
8.00368e-08
6.52909e-08
8.20226e-08
5.68385e-08
8.58853e-08
4.81964e-08
8.07875e-08
3.85892e-08
8.01396e-08
2.7787e-08
6.13183e-08
1.69354e-08
1.65349e-08
-1.05673e-07
2.23028e-08
-3.04818e-07
-7.14536e-09
5.28866e-08
-4.85456e-07
8.46103e-08
-5.10817e-07
1.35334e-07
-5.11291e-07
1.56752e-07
-2.94057e-07
1.50475e-07
-1.32899e-07
1.35137e-07
-6.19105e-08
1.18487e-07
2.12349e-09
1.05501e-07
1.87985e-08
9.35741e-08
3.70608e-08
8.67621e-08
5.90918e-08
8.15602e-08
6.78955e-08
7.46569e-08
9.13515e-08
6.73653e-08
9.32921e-08
5.87912e-08
9.85004e-08
4.98909e-08
9.34961e-08
3.88897e-08
9.60807e-08
2.73103e-08
8.04605e-08
1.65379e-08
3.72522e-08
-7.80034e-08
1.31637e-08
-3.08589e-07
-4.99804e-09
3.34008e-08
-4.97929e-07
9.05422e-08
-5.60141e-07
1.48431e-07
-5.58961e-07
1.71957e-07
-3.0145e-07
1.65781e-07
-1.02399e-07
1.48271e-07
-2.68445e-08
1.2711e-07
3.65669e-08
1.11275e-07
4.41447e-08
9.75635e-08
5.9527e-08
8.88363e-08
7.43629e-08
8.0813e-08
8.0581e-08
7.33534e-08
1.02648e-07
6.63789e-08
1.0369e-07
5.79192e-08
1.09495e-07
4.86715e-08
1.05455e-07
3.73781e-08
1.11433e-07
2.56896e-08
9.79488e-08
1.53029e-08
5.63869e-08
-5.15055e-08
4.49831e-09
-3.08131e-07
-2.00268e-09
1.30894e-08
-5.02907e-07
6.85749e-08
-6.0633e-07
1.17478e-07
-5.82975e-07
1.70301e-07
-3.27725e-07
1.67597e-07
-7.99307e-08
1.49643e-07
1.03107e-08
1.25733e-07
7.30416e-08
1.09983e-07
6.96248e-08
9.53043e-08
8.28668e-08
8.53019e-08
9.12626e-08
7.55105e-08
9.49827e-08
6.80046e-08
1.1369e-07
6.11783e-08
1.13033e-07
5.36332e-08
1.19477e-07
4.4278e-08
1.16706e-07
3.36391e-08
1.24954e-07
2.29722e-08
1.12975e-07
1.37088e-08
7.29985e-08
-2.80256e-08
7.82584e-09
-3.15841e-07
-2.17373e-09
1.37822e-08
-5.08004e-07
2.58181e-08
-6.15784e-07
6.03786e-08
-6.03454e-07
1.33886e-07
-3.85532e-07
1.40921e-07
-7.30761e-08
1.27123e-07
3.63394e-08
1.09564e-07
1.01602e-07
9.64256e-08
9.06284e-08
8.26e-08
1.03938e-07
7.38859e-08
1.05727e-07
6.43265e-08
1.09035e-07
5.7912e-08
1.24251e-07
5.19648e-08
1.22143e-07
4.54664e-08
1.28265e-07
3.74496e-08
1.26694e-07
2.88782e-08
1.35829e-07
1.98856e-08
1.24959e-07
1.2054e-08
8.60946e-08
-8.23562e-09
1.98808e-09
-3.18499e-07
-1.05429e-09
5.20427e-09
-5.16533e-07
8.27697e-09
-6.22264e-07
2.21738e-08
-6.23207e-07
6.76232e-08
-4.26418e-07
8.041e-08
-7.77543e-08
8.08895e-08
4.27694e-08
7.40053e-08
1.14381e-07
6.77011e-08
1.01011e-07
5.84522e-08
1.1788e-07
5.46985e-08
1.14139e-07
4.87864e-08
1.19713e-07
4.51652e-08
1.31902e-07
4.13863e-08
1.29095e-07
3.69988e-08
1.35152e-07
3.1005e-08
1.34615e-07
2.47568e-08
1.43994e-07
1.78703e-08
1.34132e-07
1.12476e-08
9.64495e-08
8.70786e-09
-8.55019e-09
-3.10895e-07
1.10774e-09
-1.6351e-08
-5.09704e-07
-1.39941e-08
-6.24959e-07
-1.09932e-08
-6.30497e-07
6.14767e-09
-4.48642e-07
2.66759e-08
-9.87362e-08
3.33136e-08
3.42891e-08
3.57013e-08
1.12082e-07
3.60561e-08
1.01669e-07
3.33809e-08
1.23698e-07
3.57544e-08
1.15346e-07
3.37021e-08
1.26121e-07
3.3355e-08
1.36334e-07
3.15619e-08
1.34588e-07
2.89469e-08
1.40724e-07
2.49601e-08
1.40832e-07
2.0985e-08
1.50062e-07
1.62584e-08
1.40707e-07
1.06871e-08
1.0452e-07
2.34441e-08
-1.32912e-08
-3.04456e-07
3.22233e-09
-2.5694e-08
-5.03543e-07
-3.50087e-08
-6.25392e-07
-5.01154e-08
-6.24898e-07
-5.25473e-08
-4.5298e-07
-2.57119e-08
-1.35431e-07
-1.33079e-08
1.60765e-08
9.96646e-10
9.43765e-08
3.99939e-09
9.83709e-08
9.7857e-09
1.19725e-07
1.68815e-08
1.11183e-07
1.9074e-08
1.27574e-07
2.24064e-08
1.36793e-07
2.26758e-08
1.38455e-07
2.23718e-08
1.44437e-07
2.09678e-08
1.44976e-07
1.87543e-08
1.54431e-07
1.49264e-08
1.4644e-07
1.00536e-08
1.12057e-07
3.73452e-08
-1.46701e-08
-2.96456e-07
4.48249e-09
-3.04025e-08
-4.93524e-07
-5.22261e-08
-6.11669e-07
-7.81969e-08
-6.10605e-07
-9.23811e-08
-4.54853e-07
-7.2757e-08
-1.71445e-07
-5.59969e-08
-1.40683e-08
-3.47283e-08
6.57384e-08
-2.35029e-08
8.45486e-08
-1.15921e-08
1.07124e-07
-1.62671e-09
1.03523e-07
6.14663e-09
1.22122e-07
1.28507e-08
1.344e-07
1.58038e-08
1.39887e-07
1.81474e-08
1.45835e-07
1.86808e-08
1.4779e-07
1.75351e-08
1.58218e-07
1.41428e-08
1.52415e-07
9.66949e-09
1.19739e-07
5.10032e-08
-1.51291e-08
-2.87709e-07
4.70811e-09
-3.58621e-08
-4.79123e-07
-6.9876e-08
-5.8822e-07
-1.01006e-07
-5.94621e-07
-1.17212e-07
-4.58693e-07
-1.07496e-07
-2.02098e-07
-8.67317e-08
-5.22832e-08
-5.98577e-08
2.8303e-08
-4.43051e-08
6.3928e-08
-2.76724e-08
8.81289e-08
-1.53068e-08
9.09478e-08
-4.69931e-09
1.13767e-07
4.92056e-09
1.29837e-07
1.06637e-08
1.38786e-07
1.47683e-08
1.46212e-07
1.62217e-08
1.5083e-07
1.61244e-08
1.62384e-07
1.3746e-08
1.5886e-07
9.61838e-09
1.28145e-07
6.50955e-08
-1.41205e-08
-2.79657e-07
4.81605e-09
-3.48783e-08
-4.63483e-07
-7.40939e-08
-5.57283e-07
-1.06391e-07
-5.75755e-07
-1.26538e-07
-4.56205e-07
-1.1972e-07
-2.27627e-07
-9.60123e-08
-9.23262e-08
-6.69694e-08
-1.08806e-08
-5.1264e-08
4.23628e-08
-3.54146e-08
6.87108e-08
-2.24627e-08
7.83398e-08
-1.10695e-08
1.04707e-07
-1.08933e-09
1.24093e-07
5.70745e-09
1.37299e-07
1.05795e-08
1.47426e-07
1.30513e-08
1.54933e-07
1.45849e-08
1.67456e-07
1.35923e-08
1.65793e-07
9.61145e-09
1.37419e-07
7.99027e-08
-1.42004e-08
-2.71393e-07
4.66293e-09
-2.94388e-08
-4.50861e-07
-5.97384e-08
-5.33037e-07
-8.99601e-08
-5.54221e-07
-1.10455e-07
-4.51471e-07
-1.02885e-07
-2.50637e-07
-7.8992e-08
-1.2927e-07
-5.76322e-08
-4.17354e-08
-4.37055e-08
2.33669e-08
-2.89122e-08
5.25884e-08
-1.82354e-08
6.84511e-08
-8.66374e-09
9.715e-08
-9.65917e-10
1.2054e-07
4.41843e-09
1.37748e-07
8.84118e-09
1.5048e-07
1.19081e-08
1.60239e-07
1.40537e-08
1.73942e-07
1.34514e-08
1.74053e-07
9.63968e-09
1.47558e-07
9.56284e-08
-1.3676e-08
-2.61675e-07
4.06995e-09
-2.20867e-08
-4.40392e-07
-3.66699e-08
-5.1586e-07
-5.71089e-08
-5.32093e-07
-6.84024e-08
-4.48437e-07
-6.27915e-08
-2.65707e-07
-4.52183e-08
-1.53721e-07
-3.26019e-08
-5.8635e-08
-2.26056e-08
1.17226e-08
-1.25256e-08
4.20669e-08
-6.95242e-09
6.37039e-08
-6.0476e-10
9.34476e-08
4.21745e-09
1.20176e-07
7.45892e-09
1.41095e-07
1.07955e-08
1.55301e-07
1.31215e-08
1.67242e-07
1.45492e-08
1.82425e-07
1.361e-08
1.8416e-07
1.00271e-08
1.59057e-07
1.1308e-07
-8.18471e-09
-2.54617e-07
2.72877e-09
-1.0186e-08
-4.32417e-07
-1.15047e-08
-5.11506e-07
-1.62251e-08
-5.23429e-07
-7.47022e-09
-4.60091e-07
-1.88189e-09
-2.742e-07
3.79979e-09
-1.62197e-07
5.69681e-09
-6.23991e-08
8.24189e-09
9.40186e-09
1.13443e-08
3.93888e-08
1.12069e-08
6.61638e-08
1.24231e-08
9.65352e-08
1.36704e-08
1.24797e-07
1.35996e-08
1.47451e-07
1.4807e-08
1.61827e-07
1.53963e-08
1.75896e-07
1.51904e-08
1.92797e-07
1.37092e-08
1.95791e-07
1.03651e-08
1.72661e-07
1.33077e-07
3.00913e-09
-2.55894e-07
1.63775e-10
8.43475e-09
-4.30962e-07
2.13306e-08
-5.1607e-07
3.628e-08
-5.30701e-07
6.16028e-08
-4.80599e-07
6.76411e-08
-2.76233e-07
6.08434e-08
-1.49772e-07
5.23255e-08
-5.13618e-08
4.48186e-08
2.01092e-08
3.81517e-08
4.92895e-08
3.18793e-08
7.67561e-08
2.74088e-08
1.05719e-07
2.33703e-08
1.34674e-07
2.08023e-08
1.56767e-07
1.96093e-08
1.70813e-07
1.78507e-08
1.86364e-07
1.57129e-08
2.04607e-07
1.3466e-08
2.08773e-07
1.00523e-08
1.88104e-07
1.55286e-07
1.22068e-08
-2.62667e-07
-3.08549e-09
2.52281e-08
-4.35447e-07
6.36622e-08
-5.31905e-07
9.50606e-08
-5.34855e-07
1.26533e-07
-4.82469e-07
1.35255e-07
-2.62067e-07
1.17689e-07
-1.13896e-07
9.73782e-08
-2.08924e-08
8.0041e-08
4.49497e-08
6.51776e-08
7.02217e-08
5.23633e-08
9.46169e-08
4.22874e-08
1.20698e-07
3.43903e-08
1.48199e-07
2.90841e-08
1.6906e-07
2.51273e-08
1.82316e-07
2.10741e-08
1.98562e-07
1.73154e-08
2.17925e-07
1.40398e-08
2.23114e-07
9.97389e-09
2.04764e-07
1.78743e-07
1.60012e-08
-2.71924e-07
-4.93967e-09
3.31416e-08
-4.46198e-07
7.77415e-08
-5.60804e-07
1.30734e-07
-5.63961e-07
1.57016e-07
-4.67533e-07
1.74381e-07
-2.44965e-07
1.59826e-07
-6.96897e-08
1.35955e-07
2.38656e-08
1.10049e-07
8.14547e-08
8.79135e-08
9.95693e-08
6.98458e-08
1.17961e-07
5.60671e-08
1.39374e-07
4.55637e-08
1.64737e-07
3.71018e-08
1.84042e-07
3.01491e-08
1.9592e-07
2.43201e-08
2.12013e-07
1.92304e-08
2.31998e-07
1.47629e-08
2.37531e-07
9.80783e-09
2.21524e-07
2.02199e-07
4.65937e-09
-2.62767e-07
-3.2795e-09
1.40683e-08
-4.3786e-07
4.91857e-08
-5.77759e-07
1.19905e-07
-6.01497e-07
1.56471e-07
-4.70133e-07
1.80233e-07
-2.2631e-07
1.80607e-07
-3.26412e-08
1.54839e-07
7.17201e-08
1.28842e-07
1.22881e-07
1.03861e-07
1.3443e-07
8.26173e-08
1.44503e-07
6.5992e-08
1.60472e-07
5.25961e-08
1.82894e-07
4.1463e-08
2.00005e-07
3.25941e-08
2.10059e-07
2.53396e-08
2.25445e-07
1.94556e-08
2.45058e-07
1.40611e-08
2.50554e-07
8.65386e-09
2.36523e-07
2.23033e-07
1.1549e-09
-2.58969e-07
-3.05701e-10
1.41827e-09
-4.33339e-07
1.79895e-09
-5.72675e-07
4.23614e-08
-6.22711e-07
1.04339e-07
-5.07305e-07
1.50356e-07
-2.41352e-07
1.68943e-07
-1.77344e-08
1.53788e-07
1.0986e-07
1.31242e-07
1.59286e-07
1.06702e-07
1.67489e-07
8.50678e-08
1.71018e-07
6.74798e-08
1.8101e-07
5.23253e-08
2.00583e-07
4.00817e-08
2.14883e-07
3.06407e-08
2.22359e-07
2.31257e-08
2.36468e-07
1.75465e-08
2.54676e-07
1.22252e-08
2.60233e-07
7.00965e-09
2.48001e-07
2.38726e-07
4.17419e-09
-2.65996e-07
7.53289e-11
7.83929e-09
-4.41893e-07
3.94869e-10
-5.6888e-07
-9.20295e-09
-6.21968e-07
2.66938e-08
-5.25213e-07
1.13327e-07
-3.08934e-07
1.34501e-07
-1.8233e-08
1.25887e-07
1.31721e-07
1.0984e-07
1.82838e-07
8.98372e-08
1.93048e-07
7.18198e-08
1.92132e-07
5.63337e-08
1.96767e-07
4.22719e-08
2.13579e-07
3.15066e-08
2.24436e-07
2.33399e-08
2.29692e-07
1.72388e-08
2.42204e-07
1.30509e-08
2.59062e-07
9.21814e-09
2.6456e-07
5.14017e-09
2.54245e-07
2.47913e-07
1.13903e-09
-2.69478e-07
5.5592e-10
1.47153e-09
-4.45562e-07
-3.60553e-09
-5.66011e-07
-1.77622e-08
-6.10044e-07
-3.89089e-09
-5.39903e-07
5.83971e-08
-3.57302e-07
8.29999e-08
-3.0545e-08
8.3167e-08
1.34932e-07
7.46622e-08
1.95152e-07
6.10386e-08
2.08454e-07
4.87125e-08
2.03806e-07
3.74829e-08
2.0521e-07
2.70845e-08
2.19902e-07
1.94975e-08
2.27507e-07
1.36398e-08
2.31393e-07
9.5166e-09
2.4224e-07
7.21948e-09
2.57807e-07
5.38908e-09
2.62665e-07
3.09013e-09
2.54261e-07
2.5029e-07
-5.58804e-09
-2.64747e-07
1.034e-09
-1.38095e-08
-4.3792e-07
-1.98574e-08
-5.61566e-07
-2.23229e-08
-6.06336e-07
-1.88022e-08
-5.50484e-07
1.59424e-08
-3.91339e-07
4.2911e-08
-5.55045e-08
4.16381e-08
1.33194e-07
3.66789e-08
1.98791e-07
2.87308e-08
2.13471e-07
2.22239e-08
2.07171e-07
1.57563e-08
2.0706e-07
9.84279e-09
2.19477e-07
5.62586e-09
2.24341e-07
2.67829e-09
2.26978e-07
9.82418e-10
2.36482e-07
1.3045e-09
2.50673e-07
1.27716e-09
2.57118e-07
1.18448e-09
2.48545e-07
2.45928e-07
-9.00067e-09
-2.59368e-07
1.48171e-09
-1.90148e-08
-4.31893e-07
-3.0274e-08
-5.55765e-07
-3.26382e-08
-6.03312e-07
-3.02346e-08
-5.55246e-07
-2.20958e-08
-4.06684e-07
-6.19807e-09
-7.35511e-08
-3.63216e-09
1.1999e-07
-3.85817e-09
1.90592e-07
-5.99257e-09
2.07782e-07
-6.26406e-09
2.00337e-07
-7.37367e-09
2.01975e-07
-8.05761e-09
2.13381e-07
-8.58365e-09
2.17374e-07
-8.17331e-09
2.18856e-07
-7.04767e-09
2.27231e-07
-4.86186e-09
2.40331e-07
-2.36522e-09
2.4787e-07
-8.01702e-10
2.39932e-07
2.40145e-07
-1.03777e-08
-2.55806e-07
2.80268e-09
-2.20032e-08
-4.27903e-07
-3.80797e-08
-5.48252e-07
-5.35078e-08
-5.9636e-07
-6.56275e-08
-5.50264e-07
-8.0688e-08
-4.02452e-07
-7.30336e-08
-9.50816e-08
-6.44959e-08
9.29041e-08
-5.50119e-08
1.68211e-07
-4.88679e-08
1.91474e-07
-4.27253e-08
1.85802e-07
-3.67516e-08
1.86789e-07
-3.20139e-08
1.97607e-07
-2.77632e-08
2.01892e-07
-2.33403e-08
2.03509e-07
-1.81836e-08
2.11829e-07
-1.31568e-08
2.23934e-07
-7.04595e-09
2.31281e-07
-3.02126e-09
2.24347e-07
2.25396e-07
-1.53071e-08
-2.48144e-07
3.8837e-09
-3.55112e-08
-4.14703e-07
-5.89391e-08
-5.33849e-07
-8.7769e-08
-5.76812e-07
-1.12887e-07
-5.33813e-07
-1.40624e-07
-3.90084e-07
-1.46528e-07
-1.17142e-07
-1.41732e-07
5.68057e-08
-1.23251e-07
1.29181e-07
-1.07723e-07
1.60343e-07
-9.18518e-08
1.56934e-07
-7.89315e-08
1.60228e-07
-6.68423e-08
1.69475e-07
-5.64414e-08
1.73404e-07
-4.58786e-08
1.74681e-07
-3.5445e-08
1.82747e-07
-2.54806e-08
1.94421e-07
-1.5132e-08
2.01008e-07
-7.12311e-09
1.96347e-07
2.01787e-07
-2.30067e-08
-2.34166e-07
5.38883e-09
-5.37478e-08
-3.90665e-07
-8.8301e-08
-5.10118e-07
-1.25377e-07
-5.54067e-07
-1.57995e-07
-5.20858e-07
-1.87969e-07
-3.86392e-07
-2.06832e-07
-1.39729e-07
-2.02188e-07
5.55902e-09
-1.8748e-07
8.20051e-08
-1.68308e-07
1.15863e-07
-1.46071e-07
1.13546e-07
-1.26496e-07
1.20353e-07
-1.06206e-07
1.27848e-07
-8.84802e-08
1.33687e-07
-7.13081e-08
1.35254e-07
-5.53432e-08
1.44065e-07
-3.83148e-08
1.54273e-07
-2.39234e-08
1.62173e-07
-1.15668e-08
1.5893e-07
1.62544e-07
-2.80133e-08
-2.17449e-07
6.74392e-09
-6.41216e-08
-3.63912e-07
-1.12644e-07
-4.7781e-07
-1.58079e-07
-5.27774e-07
-2.07205e-07
-4.94625e-07
-2.46025e-07
-3.7786e-07
-2.62315e-07
-1.67693e-07
-2.52668e-07
-4.27498e-08
-2.32208e-07
3.05664e-08
-2.10877e-07
6.55292e-08
-1.87546e-07
6.44741e-08
-1.64215e-07
7.48325e-08
-1.38536e-07
8.12124e-08
-1.15191e-07
9.15564e-08
-9.27248e-08
9.48179e-08
-7.10778e-08
1.03315e-07
-4.97292e-08
1.11871e-07
-3.09392e-08
1.20959e-07
-1.51114e-08
1.17802e-07
1.18424e-07
-2.79465e-08
-1.99862e-07
7.1855e-09
-6.48295e-08
-3.3415e-07
-1.21104e-07
-4.34234e-07
-1.7866e-07
-4.87223e-07
-2.37202e-07
-4.59905e-07
-2.80225e-07
-3.6531e-07
-3.05329e-07
-1.88735e-07
-3.04585e-07
-8.06566e-08
-2.77422e-07
-7.83414e-09
-2.42365e-07
2.65525e-08
-2.09745e-07
3.04569e-08
-1.81646e-07
4.33936e-08
-1.52888e-07
4.8148e-08
-1.27889e-07
6.05726e-08
-1.04034e-07
6.34348e-08
-8.12921e-08
7.17484e-08
-5.81601e-08
7.83637e-08
-3.66366e-08
8.43119e-08
-1.84929e-08
8.18229e-08
7.87773e-08
-2.4208e-08
-1.83113e-07
6.3268e-09
-5.858e-08
-3.03689e-07
-1.14052e-07
-3.87154e-07
-1.85549e-07
-4.31409e-07
-2.43522e-07
-4.25098e-07
-2.86417e-07
-3.49413e-07
-3.07419e-07
-2.08432e-07
-3.01162e-07
-1.18152e-07
-2.81713e-07
-4.53597e-08
-2.50046e-07
-1.54695e-08
-2.19864e-07
-5.28725e-09
-1.89737e-07
7.61776e-09
-1.6132e-07
1.4117e-08
-1.35208e-07
2.79062e-08
-1.11842e-07
3.22494e-08
-8.77483e-08
3.99701e-08
-6.41123e-08
4.51657e-08
-4.16879e-08
5.00841e-08
-2.09733e-08
4.85652e-08
4.06823e-08
-2.15689e-08
-1.67943e-07
5.32778e-09
-5.10638e-08
-2.77203e-07
-9.3902e-08
-3.49505e-07
-1.58356e-07
-3.7924e-07
-2.20769e-07
-3.82513e-07
-2.70209e-07
-3.25779e-07
-2.88653e-07
-2.26953e-07
-2.85514e-07
-1.47855e-07
-2.63021e-07
-8.97358e-08
-2.36532e-07
-6.40258e-08
-2.13391e-07
-4.80701e-08
-1.86719e-07
-3.68018e-08
-1.61982e-07
-2.68007e-08
-1.3644e-07
-1.22178e-08
-1.14094e-07
-3.86417e-09
-9.1176e-08
4.10518e-09
-6.81946e-08
1.00482e-08
-4.55102e-08
1.70132e-08
-2.32113e-08
1.69321e-08
5.35781e-09
-2.12696e-08
-1.53503e-07
5.55835e-09
-4.80203e-08
-2.52963e-07
-8.29651e-08
-3.18328e-07
-1.32573e-07
-3.36282e-07
-1.94338e-07
-3.34274e-07
-2.37971e-07
-3.00081e-07
-2.54727e-07
-2.34437e-07
-2.51599e-07
-1.6332e-07
-2.33574e-07
-1.15077e-07
-2.11485e-07
-9.0727e-08
-1.9137e-07
-7.2246e-08
-1.68378e-07
-6.53954e-08
-1.49095e-07
-5.57478e-08
-1.28737e-07
-4.51467e-08
-1.09058e-07
-3.63297e-08
-8.88384e-08
-2.85165e-08
-6.70759e-08
-2.22865e-08
-4.55423e-08
-1.52691e-08
-2.39456e-08
-1.37e-08
-2.89319e-08
-2.11998e-08
-1.38447e-07
5.60936e-09
-4.41198e-08
-2.31263e-07
-7.37197e-08
-2.90882e-07
-1.09203e-07
-3.04028e-07
-1.58347e-07
-2.92504e-07
-1.92763e-07
-2.77501e-07
-2.11334e-07
-2.28823e-07
-2.08447e-07
-1.71316e-07
-1.95904e-07
-1.30255e-07
-1.81033e-07
-1.07166e-07
-1.65376e-07
-8.99874e-08
-1.47385e-07
-8.67369e-08
-1.31057e-07
-7.54639e-08
-1.13195e-07
-6.56077e-08
-9.52142e-08
-5.6403e-08
-7.74949e-08
-4.97123e-08
-6.00048e-08
-4.59984e-08
-4.20604e-08
-4.08266e-08
-2.31267e-08
-4.20257e-08
-6.13799e-08
-1.80429e-08
-1.25272e-07
4.844e-09
-3.58104e-08
-2.13735e-07
-5.83008e-08
-2.68316e-07
-8.09473e-08
-2.81345e-07
-1.13783e-07
-2.62845e-07
-1.4547e-07
-2.51064e-07
-1.63459e-07
-2.16286e-07
-1.61901e-07
-1.75364e-07
-1.56361e-07
-1.38077e-07
-1.48399e-07
-1.18911e-07
-1.36616e-07
-1.04806e-07
-1.22871e-07
-1.02829e-07
-1.10198e-07
-8.96244e-08
-9.58034e-08
-8.0863e-08
-8.16159e-08
-7.21136e-08
-6.74533e-08
-6.65179e-08
-5.21868e-08
-6.5135e-08
-3.6998e-08
-6.07274e-08
-2.01481e-08
-6.4157e-08
-8.80692e-08
-1.40746e-08
-1.15134e-07
4.10782e-09
-2.65106e-08
-2.01931e-07
-3.95001e-08
-2.54723e-07
-5.10373e-08
-2.67301e-07
-6.94018e-08
-2.43812e-07
-9.59137e-08
-2.26056e-07
-1.08316e-07
-2.047e-07
-1.13519e-07
-1.70558e-07
-1.15192e-07
-1.36448e-07
-1.11652e-07
-1.22561e-07
-1.02922e-07
-1.13951e-07
-9.43008e-08
-1.11384e-07
-8.61305e-08
-9.87647e-08
-7.67052e-08
-9.34459e-08
-6.67131e-08
-8.5403e-08
-5.56789e-08
-8.06816e-08
-4.29718e-08
-8.07259e-08
-3.02753e-08
-7.71098e-08
-1.66037e-08
-8.34689e-08
-1.11333e-07
-1.1126e-08
-1.06965e-07
3.60588e-09
-1.91414e-08
-1.93139e-07
-2.27132e-08
-2.5128e-07
-2.33567e-08
-2.65545e-07
-2.9676e-08
-2.34047e-07
-4.55e-08
-2.08343e-07
-5.49673e-08
-1.93397e-07
-6.60835e-08
-1.57983e-07
-7.13791e-08
-1.29719e-07
-7.15871e-08
-1.21037e-07
-6.73427e-08
-1.1648e-07
-6.42537e-08
-1.13386e-07
-6.08508e-08
-1.01642e-07
-5.58284e-08
-9.7623e-08
-4.96548e-08
-8.98819e-08
-4.19271e-08
-8.65996e-08
-3.31358e-08
-8.93156e-08
-2.37951e-08
-8.83715e-08
-1.32289e-08
-9.74211e-08
-1.30662e-07
-8.92198e-09
-1.00209e-07
2.73261e-09
-1.44632e-08
-1.87221e-07
-1.4518e-08
-2.52062e-07
-6.1593e-09
-2.72926e-07
1.98937e-09
-2.35864e-07
1.97398e-10
-2.02282e-07
-8.61957e-09
-1.80363e-07
-1.89955e-08
-1.44838e-07
-2.62908e-08
-1.20096e-07
-3.20386e-08
-1.1327e-07
-3.42693e-08
-1.12419e-07
-3.57153e-08
-1.10341e-07
-3.62331e-08
-9.96904e-08
-3.52875e-08
-9.67308e-08
-3.29107e-08
-8.98034e-08
-2.91522e-08
-8.72198e-08
-2.41753e-08
-9.04858e-08
-1.74587e-08
-9.04473e-08
-9.79226e-09
-1.0013e-07
-1.35713e-07
-5.65118e-09
-9.52887e-08
1.85156e-09
-6.81654e-09
-1.85923e-07
-3.66021e-09
-2.56424e-07
1.05846e-08
-2.87934e-07
3.14038e-08
-2.51201e-07
4.16559e-08
-2.0327e-07
3.4163e-08
-1.65626e-07
2.44166e-08
-1.30818e-07
1.2928e-08
-1.05084e-07
2.64981e-09
-1.00432e-07
-4.85225e-09
-1.02337e-07
-1.06826e-08
-1.02024e-07
-1.4544e-08
-9.30626e-08
-1.70123e-08
-9.11765e-08
-1.76478e-08
-8.63094e-08
-1.70319e-08
-8.49061e-08
-1.52428e-08
-8.86534e-08
-1.12639e-08
-9.03615e-08
-6.4792e-09
-1.01136e-07
-1.38824e-07
1.19151e-09
-9.6306e-08
5.0111e-10
7.35629e-09
-1.92809e-07
1.79275e-08
-2.67174e-07
3.68017e-08
-3.07675e-07
6.74583e-08
-2.78845e-07
8.50165e-08
-2.07491e-07
8.0338e-08
-1.48457e-07
6.70748e-08
-1.10224e-07
5.00267e-08
-8.27951e-08
3.52688e-08
-8.0446e-08
2.28137e-08
-8.51063e-08
1.29612e-08
-8.77646e-08
5.41774e-09
-8.09042e-08
-2.08646e-11
-8.14226e-08
-4.39743e-09
-7.8655e-08
-6.24105e-09
-7.94859e-08
-7.11854e-09
-8.29527e-08
-5.29128e-09
-8.69284e-08
-3.39351e-09
-9.8019e-08
-1.36853e-07
1.06934e-08
-1.05247e-07
-1.46513e-09
2.58902e-08
-2.06381e-07
4.87802e-08
-2.84404e-07
7.02848e-08
-3.21922e-07
1.01836e-07
-3.02842e-07
1.27207e-07
-2.20899e-07
1.2667e-07
-1.28327e-07
1.08854e-07
-7.98503e-08
8.69478e-08
-5.30719e-08
6.60639e-08
-5.25149e-08
4.84715e-08
-6.10943e-08
3.45215e-08
-6.76834e-08
2.31805e-08
-6.33527e-08
1.46878e-08
-6.68057e-08
7.46754e-09
-6.54399e-08
3.7617e-09
-6.95686e-08
-1.10667e-10
-7.2145e-08
-5.61405e-11
-7.9826e-08
-6.99763e-10
-9.00281e-08
-1.29574e-07
2.17089e-08
-1.22451e-07
-4.62022e-09
4.16805e-08
-2.24445e-07
6.60992e-08
-3.02583e-07
8.97196e-08
-3.32723e-07
1.13999e-07
-3.12357e-07
1.49394e-07
-2.40963e-07
1.51545e-07
-1.08235e-07
1.35386e-07
-4.575e-08
1.12709e-07
-1.88317e-08
8.90981e-08
-1.96878e-08
6.84051e-08
-3.25144e-08
5.12732e-08
-4.2905e-08
3.78559e-08
-4.18429e-08
2.72315e-08
-4.81476e-08
1.82948e-08
-4.82697e-08
1.21202e-08
-5.4824e-08
6.88603e-09
-5.78995e-08
3.87991e-09
-6.74496e-08
1.77183e-09
-7.71714e-08
-1.16226e-07
2.03877e-08
-1.31703e-07
-7.60084e-09
3.36427e-08
-2.28633e-07
5.30933e-08
-3.07194e-07
7.85676e-08
-3.38541e-07
1.05383e-07
-3.14944e-07
1.50797e-07
-2.62961e-07
1.56429e-07
-8.88534e-08
1.42384e-07
-1.10613e-08
1.19489e-07
1.88205e-08
9.66685e-08
1.54147e-08
7.67723e-08
-2.92065e-09
5.87444e-08
-1.58191e-08
4.47393e-08
-1.7681e-08
3.43182e-08
-2.84758e-08
2.40535e-08
-2.86054e-08
1.75044e-08
-3.8321e-08
1.1156e-08
-4.06284e-08
7.15721e-09
-5.17298e-08
3.96064e-09
-6.16166e-08
-9.92733e-08
9.14479e-09
-1.35412e-07
-3.15193e-09
1.60614e-08
-2.30537e-07
2.36456e-08
-3.07835e-07
3.5612e-08
-3.40336e-07
6.38513e-08
-3.31666e-07
1.02625e-07
-2.8098e-07
1.22047e-07
-8.80582e-08
1.22506e-07
1.18622e-08
1.0778e-07
4.96917e-08
8.79115e-08
4.65674e-08
6.96336e-08
2.54181e-08
5.43242e-08
9.47641e-09
4.32419e-08
4.89246e-09
3.3245e-08
-7.52015e-09
2.45728e-08
-9.17035e-09
1.80855e-08
-2.03692e-08
1.30032e-08
-2.26576e-08
8.40137e-09
-3.46737e-08
4.92471e-09
-4.56839e-08
-8.15247e-08
5.14231e-09
-1.40426e-07
-1.09933e-09
1.27452e-08
-2.38685e-07
1.74215e-08
-3.12088e-07
2.0751e-08
-3.42946e-07
2.63041e-08
-3.3707e-07
3.8754e-08
-2.88335e-07
6.1581e-08
-1.00017e-07
6.63849e-08
1.77391e-08
6.24984e-08
6.28158e-08
5.34574e-08
6.23373e-08
4.18215e-08
4.36857e-08
3.15908e-08
2.68797e-08
2.56571e-08
1.96528e-08
1.98728e-08
8.98328e-09
1.62251e-08
6.0564e-09
1.26041e-08
-4.72394e-09
9.86826e-09
-7.20497e-09
6.29399e-09
-1.82244e-08
4.00056e-09
-3.02366e-08
-6.334e-08
1.36468e-09
-1.41238e-07
-5.45009e-10
1.51834e-09
-2.38103e-07
5.90704e-10
-3.0868e-07
1.40086e-09
-3.41943e-07
-9.88232e-09
-3.25498e-07
-1.92002e-08
-2.79837e-07
-7.32257e-09
-1.08197e-07
-6.3683e-10
1.46451e-08
5.07808e-09
5.92384e-08
5.80443e-09
6.51374e-08
3.55029e-09
5.14686e-08
6.94659e-10
3.62954e-08
2.23715e-09
2.64424e-08
1.4984e-09
1.85864e-08
1.83177e-09
1.48709e-08
1.38209e-09
5.98631e-09
1.86986e-09
3.82379e-09
1.10135e-09
-5.18109e-09
1.65262e-09
-1.77523e-08
-4.76574e-08
-6.01353e-09
-1.36618e-07
6.08107e-10
-1.46605e-08
-2.29493e-07
-2.4799e-08
-2.97345e-07
-3.47654e-08
-3.32754e-07
-4.92234e-08
-3.12864e-07
-7.29213e-08
-2.62819e-07
-7.4485e-08
-1.11444e-07
-6.56923e-08
-2.86072e-10
-5.05522e-08
4.16251e-08
-4.04952e-08
5.58656e-08
-3.35982e-08
4.74734e-08
-2.95314e-08
3.68361e-08
-2.27248e-08
2.5685e-08
-1.82991e-08
2.08183e-08
-1.36421e-08
1.75184e-08
-1.05826e-08
1.15545e-08
-6.80813e-09
9.78481e-09
-4.43263e-09
3.59055e-09
-1.38277e-09
-9.0398e-09
-3.60486e-08
-1.19378e-08
-1.28191e-07
2.08068e-09
-2.62816e-08
-2.17423e-07
-4.43143e-08
-2.82846e-07
-6.77466e-08
-3.14858e-07
-9.03269e-08
-2.9771e-07
-1.21859e-07
-2.41752e-07
-1.28779e-07
-1.16605e-07
-1.18423e-07
-2.45555e-08
-1.01782e-07
1.77447e-08
-8.40367e-08
3.64965e-08
-6.8251e-08
3.29876e-08
-5.58237e-08
2.73274e-08
-4.44783e-08
1.72604e-08
-3.55896e-08
1.62888e-08
-2.7184e-08
1.48109e-08
-2.11379e-08
1.27889e-08
-1.4091e-08
1.171e-08
-9.24827e-09
8.41166e-09
-4.0067e-09
-3.81786e-09
-2.84908e-08
-1.51722e-08
-1.18525e-07
3.48995e-09
-3.38686e-08
-2.03027e-07
-6.06256e-08
-2.62333e-07
-9.45633e-08
-2.89521e-07
-1.25267e-07
-2.78342e-07
-1.54916e-07
-2.27014e-07
-1.63513e-07
-1.25775e-07
-1.54279e-07
-5.32804e-08
-1.36462e-07
-9.97704e-09
-1.15973e-07
1.06573e-08
-9.68828e-08
1.10404e-08
-8.05248e-08
9.58709e-09