/*--------------------------------*- C++ -*----------------------------------*\
| =========                 |                                                 |
| \\      /  F ield         | OpenFOAM: The Open Source CFD Toolbox           |
|  \\    /   O peration     | Version:  2212                                  |
|   \\  /    A nd           | Website:  www.openfoam.com                      |
|    \\/     M anipulation  |                                                 |
\*---------------------------------------------------------------------------*/
FoamFile
{
    version     2.0;
    format      ascii;
    arch        "LSB;label=32;scalar=64";
    class       volScalarField;
    location    "0.00136";
    object      k;
}
// * * * * * * * * * * * * * * * * * * * * * * * * * * * * * * * * * * * * * //

dimensions      [0 2 -2 0 0 0 0];

internalField   nonuniform List<scalar> 
7220
(
658.239
731.001
730.979
730.758
730.925
730.875
730.969
730.924
730.741
730.863
632.302
671.331
723.402
664.342
682.894
1117.11
741.011
645.587
766.033
643.182
729.83
774.65
729.265
749.074
744.04
1269.38
8004.28
622.117
733.222
719.579
730.567
731.921
729.786
723.825
736.54
687.806
731.07
633.59
635.507
655.659
663.194
663.201
655.663
692.766
693.082
692.336
691.177
692.079
670.295
676.55
676.558
670.303
681.61
685.357
685.362
681.617
687.902
689.49
689.492
687.905
690.404
690.893
690.892
690.405
691.136
691.248
691.252
691.137
691.289
691.301
691.315
691.297
691.304
691.3
691.334
691.327
691.303
691.329
691.371
691.346
691.36
691.443
691.542
691.433
692.11
691.747
691.603
691.771
691.537
691.265
648.051
648.052
662.265
654.656
691.328
692.182
691.055
691.884
690.523
690.467
690.449
690.469
690.497
690.473
690.464
690.475
690.477
690.337
690.443
689.608
690.096
687.097
688.691
680.778
684.542
669.396
675.691
654.637
662.241
675.716
669.422
684.557
680.798
688.698
687.107
690.101
689.613
690.461
690.346
690.525
690.507
690.551
690.539
690.592
690.568
690.683
690.625
690.79
690.502
646.946
646.96
687.942
687.608
690.919
691.777
690.208
689.923
686.733
687.819
690.382
686.468
687.103
687.013
687.135
687.106
687.191
687.2
687.21
687.185
687.236
687.228
687.113
687.214
686.404
686.882
683.927
685.502
677.668
681.399
666.342
672.613
651.554
659.188
639.458
636.215
643.799
640.654
640.656
643.825
636.235
639.466
659.227
651.587
672.652
666.383
681.425
677.7
685.519
683.948
686.907
686.424
687.262
687.149
687.331
687.309
687.364
687.347
687.427
687.388
687.541
687.476
687.587
687.895
687.795
684.042
683.04
632.394
629.031
639.447
631.753
691.921
687.854
690.733
690.659
682.17
683.38
683.406
686.612
684.108
682.008
682.376
682.357
682.413
682.412
682.471
682.444
682.503
682.456
682.546
682.531
682.436
682.529
681.75
682.213
679.33
680.87
673.182
676.851
661.984
668.196
647.223
654.863
631.729
639.413
633.686
633.688
629.043
632.399
654.911
647.264
668.242
662.033
676.885
673.222
680.9
679.36
682.258
681.785
682.606
682.495
682.682
682.656
682.718
682.698
682.791
682.743
682.905
682.852
682.939
683.497
624.404
624.419
691.512
687.744
683.263
691.7
681.915
678.829
678.134
678.976
686.945
626.913
619.423
622.423
617.63
690.556
690.516
683.167
687.601
677.712
678.7
683.062
691.328
677.076
677.389
677.297
677.485
677.469
677.429
677.483
677.471
677.455
677.524
677.482
677.576
677.556
677.471
677.558
676.806
677.256
674.444
675.949
668.41
672.015
657.339
663.492
642.593
650.248
634.716
617.622
625.917
622.418
627.303
627.305
625.922
619.446
634.758
626.945
650.301
642.641
663.543
657.393
672.055
668.454
675.989
674.482
677.317
676.854
677.657
677.548
677.738
677.709
677.771
677.753
677.837
677.793
677.939
677.897
677.976
678.31
678.485
678.292
678.301
678.327
682.109
612.439
612.455
673.415
673.061
673.629
674.217
686.983
691.264
690.382
682.797
689.915
674.542
672.203
687.47
677.11
672.217
678.877
672.442
672.403
672.444
672.446
672.391
672.429
672.39
672.395
672.442
672.403
672.491
672.472
672.394
672.475
671.75
672.186
669.449
670.916
663.539
667.074
652.617
658.7
637.913
645.569
622.062
629.979
607.214
614.406
600.656
611.525
606.121
620.147
616.51
621.623
621.624
616.51
620.15
606.13
611.53
600.664
614.433
607.231
630.026
622.1
645.626
637.965
658.753
652.674
667.119
663.588
670.964
669.493
672.258
671.807
672.588
672.483
672.667
672.639
672.691
672.679
672.771
672.723
672.841
672.835
672.945
673.096
673.306
673.124
673.05
673.573
676.807
681.417
691.622
672.138
668.196
668.047
668.403
602.3
595.499
600.6
594.877
691.267
690.48
687.346
673.049
666.816
666.28
671.888
677.323
687.523
682.853
690.208
672.374
677.816
667.429
667.44
667.424
667.537
667.554
667.49
667.52
667.454
667.479
667.43
667.424
667.466
667.431
667.508
667.492
667.416
667.492
666.795
667.217
664.563
665.988
658.799
662.251
648.066
654.056
633.461
641.089
617.497
625.501
609.693
594.873
606.229
600.595
615.174
611.402
616.73
616.731
611.402
615.177
606.231
595.515
609.726
602.324
625.552
617.54
641.148
633.517
654.111
648.125
662.3
658.849
666.041
664.612
667.296
666.86
667.611
667.511
667.683
667.658
667.703
667.69
667.812
667.747
667.816
667.86
667.967
668.027
668.22
667.788
667.947
667.949
667.487
667.593
681.904
667.428
589.447
589.458
663.363
663.435
671.888
676.764
691.982
691.647
690.506
687.287
665.344
670.784
650.026
677.111
730.657
682.35
667.048
662.572
662.963
662.811
663.025
662.971
662.972
663.017
662.895
662.934
662.861
662.861
662.826
662.828
662.852
662.828
662.884
662.873
662.794
662.868
662.199
662.603
660.048
661.422
654.461
657.812
643.979
649.84
629.56
637.114
613.575
621.622
598.096
605.662
584.743
591.066
579.276
589.984
584.278
601.818
595.962
611.066
607.172
612.681
612.683
607.172
611.068
595.965
601.819
584.285
589.986
579.286
591.089
584.758
605.702
598.127
621.677
613.623
637.175
629.619
649.896
644.039
657.863
654.513
661.482
660.101
662.688
662.271
662.986
662.891
663.057
663.033
663.089
663.058
663.189
663.122
663.162
663.199
663.306
663.328
663.646
663.505
662.966
663.205
663.513
662.706
661.834
663.066
660.2
661.167
655.723
657.672
664.049
658.879
680.934
730.291
666.517
662.233
692.422
730.885
581.249
575.477
580.095
574.79
691.525
662.58
690.476
669.529
676.181
686.981
681.904
730.894
730.558
730.475
731.52
768.304
730.481
671.043
675.61
729.966
670.628
650.653
652.126
689.086
685.156
666.084
730.082
661.824
756.872
665.43
661.1
730.761
654.327
660.251
656.405
655.132
658.136
657.509
658.771
658.519
659.114
658.962
659.221
659.162
659.103
659.163
658.975
659.038
658.934
658.922
658.905
658.919
658.923
658.907
658.944
658.937
658.855
658.927
658.289
658.674
656.236
657.548
650.867
654.091
640.719
646.405
626.604
634.022
610.723
618.751
595.06
602.755
587.831
574.785
586.07
580.091
598.338
592.286
607.847
603.849
609.499
609.5
603.85
607.847
592.287
598.338
586.071
575.488
587.857
581.266
602.799
595.095
618.807
610.773
634.083
626.664
646.462
640.779
654.144
650.921
657.614
656.292
658.76
658.366
659.041
658.951
659.104
659.083
659.143
659.106
659.222
659.162
659.209
659.21
659.348
659.292
659.589
659.413
659.309
659.475
658.969
659.152
659.235
658.885
657.749
658.819
655.465
656.715
653.847
730.042
730.014
730.398
680.201
691.171
729.893
617.487
772.792
655.278
570.656
570.662
731.586
675.317
684.73
688.767
691.596
660.621
733.544
670.122
647.858
646.122
646.936
691.447
668.222
675.159
664.693
1330.19
690.285
651.658
659.126
733.426
686.582
681.258
730.23
729.977
649.623
730.082
729.914
731.064
654.129
652.652
655.573
655.165
656.147
655.916
656.435
656.315
656.54
656.491
656.383
656.466
656.219
656.298
656.148
656.161
656.117
656.136
656.13
656.12
656.146
656.142
656.06
656.129
655.526
655.889
653.587
654.827
648.489
651.555
638.774
644.228
625.107
632.312
609.49
617.419
593.782
601.542
579.593
586.403
568.375
573.53
564.25
571.33
566.875
583.145
576.923
595.769
589.562
605.473
601.402
607.138
607.139
601.403
605.472
589.561
595.77
576.926
583.147
566.878
571.331
564.255
573.545
568.384
586.432
579.614
601.587
593.819
617.475
609.541
632.371
625.165
644.284
638.832
651.609
648.543
654.892
653.644
655.964
655.597
656.22
656.139
656.267
656.256
656.312
656.281
656.362
656.336
656.366
656.362
656.449
656.392
656.652
656.531
656.359
656.537
656.09
656.214
655.954
656.066
654.552
655.484
651.773
653.287
649.927
732.106
731.822
649.567
730.078
730.006
680.064
690.767
730.124
658.484
659.843
734.675
730.036
730.923
674.957
645.591
643.418
642.706
691.413
684.288
688.179
730.894
667.149
731.066
568.709
564.262
564.151
561.213
674.108
736.077
669.44
643.621
730.752
730.989
730.95
730.873
730.215
691.298
734.51
730.104
732.482
734.75
740.608
747.53
663.506
644.231
729.671
729.885
729.822
729.591
732.368
689.967
680.519
657.851
730.472
686.069
727.245
726.112
732.997
652.48
730.201
728.757
730.005
729.962
655.085
731.131
645.484
758.404
653.184
652.091
654.514
654.076
655.253
654.956
655.535
655.439
655.583
655.574
655.38
655.492
655.167
655.264
655.054
655.097
655.006
655.029
655.009
655.003
655.02
655.017
654.938
655.003
654.442
654.779
652.632
653.79
647.851
650.73
638.674
643.836
625.623
632.525
610.468
618.198
594.901
602.638
580.472
587.449
574.164
561.21
568.893
564.15
581.14
574.728
594.006
587.697
603.815
599.71
605.471
605.472
599.712
603.815
587.696
594.006
574.729
581.141
568.893
564.271
574.183
568.722
587.48
580.497
602.681
594.939
618.25
610.517
632.579
625.676
643.89
638.728
650.781
647.903
653.844
652.684
654.832
654.496
655.065
654.992
655.112
655.099
655.146
655.131
655.167
655.167
655.154
655.169
655.202
655.154
655.366
655.294
655.083
655.251
654.849
654.964
654.335
654.721
652.821
653.783
649.788
651.484
647.837
734.112
730.467
730.949
730.753
730.319
730.074
762.224
679.752
639.185
640.193
690.599
741.564
736.509
735.744
735.742
736.769
736.428
730.249
731.797
774.974
665.274
646.797
729.797
560.925
560.933
673.11
736.667
741.729
738.682
739.813
733.728
674.374
731.121
638.916
731.027
729.598
729.871
729.686
730.841
691.368
683.862
687.918
731.446
733.08
733.303
733.624
729.306
731.39
731.882
729.959
730.386
731.183
755.624
729.784
729.984
730.788
739.331
749.085
668.424
639.097
731.149
729.488
749.046
691.028
728.513
728.427
727.266
728.184
679.634
662.097
622.588
639.903
729.992
729.551
730.994
730.976
730.871
731.05
730.642
689.527
725.653
726.706
725.84
726.809
619.639
737.285
685.474
655.752
730.461
725.241
725.912
725.989
731.463
649.504
730.239
730.586
726.309
727.548
730.065
725.049
651.417
663.581
633.633
724.919
730.736
641.779
646.996
653.822
652.929
655.16
654.56
656.185
655.769
656.527
656.43
656.524
656.553
656.28
656.415
656.018
656.136
655.856
655.927
655.777
655.81
655.762
655.763
655.765
655.766
655.687
655.747
655.233
655.541
653.562
654.633
649.132
651.801
640.576
645.396
628.286
634.806
613.773
621.212
598.523
606.151
583.989
591.071
571.737
577.478
563.183
566.935
560.52
559.243
558.732
567.376
562.42
579.9
573.376
592.861
586.521
602.671
598.577
604.297
604.297
598.579
602.671
586.521
592.861
573.376
579.9
562.422
567.376
558.74
559.246
560.527
566.946
563.191
577.499
571.753
591.103
584.016
606.192
598.56
621.258
613.817
634.854
628.333
645.444
640.624
651.844
649.177
654.672
653.603
655.576
655.268
655.789
655.722
655.842
655.823
655.857
655.857
655.844
655.862
655.813
655.834
655.847
655.809
655.976
655.937
655.74
655.879
655.457
655.623
654.648
655.185
652.906
653.964
649.706
651.484
645.136
647.578
642.463
671.226
751.893
731.039
729.734
732.015
737.544
741.099
730.986
730.551
730.797
730.132
730.278
730.56
730.179
731.619
679.242
636.286
630.709
730.83
690.58
732.563
733.456
730.315
730.462
732.722
730.552
646.366
731.181
731.161
730.181
730.27
730.043
730.506
654.204
733.602
733.568
734.329
734.676
734.974
742.319
749.514
745.891
747.661
732.995
673.505
635.143
730.286
729.537
730.986
730.78
691.117
683.348
687.604
729.736
731.504
731.415
731.733
728.91
678.669
731.134
566.567
563.552
557.654
558.94
747.625
758.525
667.178
732.305
635.106
730.424
729.412
731.047
731.111
730.712
690.594
727.893
727.737
733.21
684.651
735.043
660.554
636.077
730.167
730.631
688.935
726.881
726.921
735.447
653.15
730.485
733.941
727.484
726.587
730.076
645.768
730.319
725.496
647.656
660.921
730.176
724.673
669.082
730.147
725.297
730.165
753.975
638.56
730.593
730.594
731.056
730.435
642.306
643.441
651.448
647.138
655.153
654.065
656.688
655.954
657.815
657.359
658.175
658.08
658.151
658.196
657.9
658.04
657.634
657.754
657.466
657.541
657.382
657.415
657.361
657.366
657.357
657.361
657.281
657.338
656.851
657.143
655.273
656.284
651.093
653.611
643.034
647.574
631.435
637.595
617.617
624.723
602.832
610.268
588.374
595.473
575.769
581.738
570.663
558.933
558.289
557.648
566.637
561.582
579.232
572.696
592.12
585.828
601.819
597.782
603.395
603.395
597.783
601.819
585.828
592.12
572.695
579.232
561.584
566.638
558.291
563.563
570.677
566.58
581.759
575.786
595.504
588.401
610.307
602.868
624.766
617.658
637.639
631.479
647.617
643.079
653.649
651.133
656.32
655.31
657.174
656.884
657.378
657.313
657.426
657.409
657.436
657.436
657.414
657.435
657.39
657.41
657.424
657.388
657.53
657.51
657.327
657.446
657.01
657.205
656.112
656.679
654.235
655.349
650.894
652.763
645.976
648.612
639.664
642.999
636.246
730.938
730.724
730.843
730.428
730.583
730.272
730.106
730.267
730.613
730.446
730.739
730.601
730.856
730.901
731.076
730.581
730.376
730.664
729.911
730.105
729.868
731.343
731.5
648.998
734.859
744.132
748.981
731.159
731.014
731.117
731.032
731.131
730.637
730.861
730.239
730.403
730.561
730.248
731.378
678.554
632.94
729.776
643.033
730.82
730.72
690.365
730.742
731.682
729.573
729.377
729.223
676.906
645.027
731.2
632.482
744.364
561.613
561.623
659.171
644.581
731.223
731.188
731.195
779.078
736.7
736.826
738.154
739.461
739.506
751.315
759.887
757.036
759.034
732.672
672.475
629.075
631.451
729.853
729.404
639.838
638.675
730.494
730.933
730.444
730.694
653.939
661.58
690.71
682.594
687
729.023
625.953
628.268
634.683
730.701
730.494
730.767
728.482
639.543
747.444
751.894
733.136
683.619
735.972
628.635
730.777
730.863
760.225
767.993
665.84
631.299
729.819
729.386
731.09
729.949
730.11
730.678
690.001
727.954
727.817
645.776
740.288
688.075
658.409
623.364
620.534
632.917
628.873
624.845
729.551
730.752
730.631
738.676
729.625
727.44
727.427
733.72
650.011
621.253
625.534
730.284
730.454
730.532
726.647
644.075
657.434
622.486
629.861
623.704
625.568
620.821
623.179
619.97
623.363
730.392
725.043
666.529
730.117
726.623
730.286
724.955
674.629
847.463
730.251
731.262
635.331
643.625
636.245
638.621
645.573
642.079
652.271
648.726
656.57
655.013
658.825
657.74
660.258
659.69
660.66
660.56
660.58
660.661
660.266
660.437
659.946
660.092
659.729
659.827
659.612
659.658
659.572
659.585
659.56
659.567
659.484
659.539
659.075
659.353
657.574
658.536
653.611
655.995
646.018
650.289
635.143
640.915
622.163
628.849
608.112
615.208
594.098
601.019
581.544
587.539
571.927
576.291
566.199
568.549
564.849
558.377
560.698
558.254
557.574
566.53
561.518
578.954
572.519
591.591
585.428
601.071
597.134
602.58
602.58
597.134
601.072
585.428
591.591
572.518
578.954
561.52
566.531
557.58
558.258
560.706
558.383
564.862
568.564
566.213
576.308
571.942
587.561
581.562
601.05
594.124
615.244
608.146
628.887
622.2
640.952
635.181
650.323
646.054
656.022
653.641
658.557
657.597
659.369
659.093
659.565
659.502
659.609
659.596
659.602
659.61
659.556
659.586
659.524
659.546
659.554
659.52
659.636
659.624
659.471
659.569
659.078
659.328
658.026
658.666
655.979
657.16
652.573
654.455
647.602
650.255
641.558
644.656
638.541
730.549
730.672
730.259
730.409
729.959
730.107
729.802
729.682
729.816
730.122
729.972
730.275
730.122
730.564
730.424
730.686
730.946
731.092
730.953
731.107
730.489
730.741
730.049
730.239
730.133
729.994
730.523
730.706
736.409
739.113
754.589
760.038
731.202
731.077
731.17
731.086
731.173
730.737
730.936
730.351
730.52
730.583
730.331
731.272
677.672
629.369
729.537
642.335
639.519
730.763
730.597
649.133
656.765
689.931
623.569
729.92
654.587
641.796
730.789
728.983
632.102
652.085
744.733
754.905
688.863
674.702
682.206
681.915
731.231
667.493
729.798
733.984
741.551
626.306
625.308
700.971
730.933
730.777
731.235
729.551
742.997
746.55
746.342
765.625
771.603
772.107
773.811
671.286
625.985
627.616
729.512
729.333
635.087
730.46
730.881
730.291
730.613
666.581
690.117
681.737
686.297
620.263
621.273
741.008
728.955
637.76
730.335
730.179
730.387
728.53
624.733
637.639
744.223
622.334
686.925
618.876
573.65
571.703
560.707
564.414
731.007
730.843
767.699
778.937
776.916
663.956
627.972
713.825
644.556
638.469
729.43
730.472
635.143
632.698
730.835
729.954
730.639
745.337
732.875
689.12
618.82
728.375
632.455
729.301
728.229
641.454
738.009
639.034
636.568
617.695
655.569
630.425
631.883
730.612
729.558
729.663
730.631
728.661
777.195
728.132
628.694
640.364
653.568
646.811
654.954
628.392
730.289
730.563
726.102
627.328
663.196
730.088
728.931
729.829
729.965
730.46
725.191
671.933
726.124
620.301
730.363
679.635
729.537
731.292
720.657
693.287
705.793
631.856
635.052
641.376
638.149
647.54
644.474
653.248
650.393
658.365
656.135
661.836
660.246
663.73
662.998
664.176
664.083
663.98
664.127
663.54
663.77
663.12
663.315
662.823
662.956
662.658
662.724
662.594
662.617
662.572
662.583
662.496
662.55
662.105
662.37
660.67
661.591
656.895
659.163
649.729
653.751
639.583
644.952
627.593
633.761
614.603
621.173
601.538
608.008
589.644
595.362
580.098
584.522
576.451
564.401
558.759
560.698
559.022
558.359
566.928
562.113
578.925
572.708
591.134
585.179
600.302
596.5
601.733
601.733
596.5
600.302
585.179
591.134
572.707
578.925
562.115
566.928
558.365
559.026
558.766
571.72
576.472
573.668
584.545
580.12
595.387
589.668
608.037
601.565
621.203
614.633
633.79
627.623
644.978
639.611
653.773
649.754
659.177
656.914
661.592
660.677
662.371
662.106
662.559
662.499
662.594
662.586
662.568
662.587
662.492
662.532
662.443
662.467
662.467
662.437
662.533
662.521
662.401
662.485
661.944
662.24
660.742
661.462
658.41
659.745
654.686
656.732
649.642
652.276
643.885
646.811
641.162
730.764
730.599
730.689
730.372
730.492
730.105
730.241
729.838
729.969
729.593
729.712
729.447
729.381
729.481
729.696
729.604
729.849
729.723
730.117
729.981
730.384
730.253
730.608
730.503
730.698
731.147
731.017
731.15
730.614
730.833
730.197
730.386
730.233
730.124
731.142
730.564
731.988
741.469
745.829
769.828
773.596
731.13
730.82
730.986
731.244
731.218
731.14
731.215
730.84
731.014
730.474
730.643
730.621
730.424
732.473
731.24
650.305
676.645
625.566
729.358
639.028
636.09
730.731
730.471
661.463
689.329
620.848
672.642
667.196
729.717
647.387
730.402
728.987
630.813
719.753
748.394
685.172
618.937
731.261
615.641
748.294
723.791
731.361
797.091
570.541
570.558
730.613
730.684
731.271
740.493
752.847
756.894
755.668
785.56
781.815
789.1
790.891
747.268
738.685
669.685
623.175
624.131
757.924
770.333
756.002
854.103
729.313
729.334
631.492
730.825
730.141
730.528
754.715
737.326
689.225
680.516
685.22
618.996
7206.3
679.355
665.589
621.57
622.677
729.243
760.747
641.422
730.32
729.305
728.856
1120.21
634.574
741.86
642.164
640.102
633.398
809.627
789.255
730.889
624.056
730.753
661.46
625.101
668.966
660.717
629.553
640.317
684.171
729.31
710.719
629.347
730.73
729.806
730.59
762.338
709.479
731.663
763.302
687.853
618.404
729.494
729.539
729.438
728.877
738.083
746.724
767.984
636.203
671.065
723.081
752.498
649.358
728.78
652.38
628.135
624.503
637.414
627.244
635.415
702.935
701.943
631.996
628.526
730.462
729.538
730.612
729.138
729.195
729.15
711.294
727.915
743.481
726.183
633.328
730.435
659.47
729.763
629.237
731.097
643.643
746.497
674.636
709.369
632.981
732.262
730.127
729.295
729.35
730.577
729.227
742.621
726.073
668.689
728.206
620.748
729.817
730.504
726.157
676.823
682.908
619.652
729.573
730.44
763.748
654.599
713.365
682.331
690.282
663.225
669.824
675.785
629.311
633.995
638.791
636.187
644.263
641.539
649.375
646.743
654.734
652.082
660.225
657.627
665.183
662.938
667.768
666.781
668.377
668.244
668.15
668.327
667.632
667.903
667.146
667.372
666.8
666.956
666.6
666.683
666.511
666.545
666.477
666.492
666.401
666.454
666.026
666.281
664.64
665.529
661.012
663.187
654.196
658.011
644.689
649.7
633.629
639.299
621.768
627.76
609.814
615.751
598.499
604.045
588.41
593.244
580.701
584.171
576.157
578.05
574.974
564.695
570.062
559.931
561.47
560.446
559.826
567.728
563.253
579.051
573.165
590.674
584.995
599.45
595.811
600.794
600.794
595.811
599.45
584.995
590.674
573.165
579.051
563.255
567.728
559.832
560.45
561.479
559.938
570.08
564.708
574.993
578.07
576.176
584.196
580.723
593.272
588.437
604.073
598.527
615.78
609.843
627.789
621.797
639.324
633.657
649.722
644.712
658.024
654.214
663.192
661.021
665.517
664.636
666.267
666.01
666.449
666.392
666.467
666.47
666.422
666.45
666.339
666.381
666.294
666.313
666.336
666.301
666.395
666.384
666.257
666.352
665.701
666.058
664.325
665.142
661.672
663.188
657.463
659.761
652.259
654.91
646.765
649.53
644.217
730.599
730.657
730.433
730.523
730.219
730.33
729.981
730.101
729.749
729.863
729.531
729.638
729.335
729.429
729.252
729.758
729.646
729.99
729.872
730.227
730.109
730.44
730.338
730.531
730.74
731.051
730.891
731.187
731.079
731.19
730.746
730.929
730.35
730.539
730.304
730.261
731.049
730.562
731.771
738.672
647.065
755.348
788.935
787.452
731.173
731.036
731.277
731.255
731.187
731.25
730.938
731.083
730.599
730.765
730.659
730.525
732.301
731.16
734.562
675.269
622.133
787.076
733.793
729.279
635.504
632.577
730.706
730.345
717.684
716.523
751.426
743.299
731.266
768.306
818.782
660.264
664.646
662.605
1522.47
652.13
688.359
620.156
630.589
673.485
624.086
729.849
739.621
652.814
730.327
729.447
729.258
629.153
731.876
736.578
741.863
745.785
2273.23
727.722
670.135
805.986
656.027
656.54
705.352
637.02
793.442
731.255
732.855
749.705
766.535
809.624
793.669
808.252
730.65
667.469
624.325
620.801
620.948
651.189
635.051
649.532
672.785
729.305
620.463
735.936
730.307
761.802
621.039
628.054
730.774
729.994
730.434
729.111
729.121
729.111
729.1
708.688
705.238
764.022
754.677
746.496
735.558
753.254
694.35
628.741
687.928
678.749
683.671
619.433
729.345
698.798
731.119
687.343
623.274
624.976
627.759
730.419
729.546
745.878
757.962
646.187
748.14
646.512
669.984
730.384
729.382
742.552
618.825
729.288
729.765
737.623
744.757
580.214
577.779
570.151
574.423
730.619
730.765
730.655
750.476
768.208
789.979
807.093
658.435
621.506
633.93
630.907
622.293
654.963
627.183
644.677
693.479
730.093
625.888
761.376
730.386
730.611
729.668
730.522
729.121
712.86
700.671
744.763
730.569
767.984
777.993
818.57
686.042
619.271
729.395
644.282
630.621
729.347
641.731
672.953
655.151
705.804
744.351
753.505
818.831
649.26
622.094
635.903
624.415
664.901
658.046
621.271
640.82
709.226
736.076
625.714
730.309
729.427
730.569
729.175
708.15
741.844
727.608
661.874
754.106
774.722
769.186
639.724
665.212
768.052
640.273
622.951
643.598
731.198
632.579
627.461
621.125
729.97
729.27
730.568
738.807
726.749
769.458
673.407
680.028
620.92
729.678
730.537
727.966
728.15
791.62
893.56
716.556
730.697
718.536
686.583
694.31
674.782
680.374
661.398
667.483
670.419
632.356
638.071
639.591
638.382
643.347
641.325
647.362
645.413
651.755
649.339
657.141
654.469
662.531
659.952
667.55
665.101
671.279
669.754
672.369
672.084
672.171
672.361
671.57
671.886
670.998
671.266
670.581
670.769
670.328
670.434
670.213
670.257
670.171
670.188
670.091
670.146
669.719
669.97
668.369
669.233
664.864
666.962
658.36
661.988
649.467
654.128
639.373
644.518
628.738
634.096
617.869
623.333
606.525
612.273
595.433
600.799
586.659
590.692
583.195
574.404
565.53
570.13
561.694
562.839
562.358
561.783
568.856
564.826
579.3
573.841
590.201
584.857
598.52
595.069
599.775
599.775
595.069
598.52
584.857
590.201
573.842
579.3
564.828
568.857
561.79
562.362
562.849
561.701
565.545
577.8
583.214
580.234
590.717
586.679
600.835
595.464
612.31
606.562
623.368
617.906
634.126
628.771
644.539
639.399
654.146
649.486
662.001
658.377
666.962
664.872
669.216
668.36
669.945
669.696
670.116
670.066
670.119
670.127
670.057
670.094
669.958
670.005
669.923
669.931
669.983
669.949
670.04
670.032
669.862
669.985
669.205
669.618
667.677
668.581
664.799
666.428
660.6
662.83
655.687
658.178
650.447
653.086
645.542
647.941
640.555
643.564
730.471
730.538
730.307
730.394
730.11
730.212
729.901
730.006
729.699
729.799
729.503
729.6
729.32
729.409
729.183
729.24
729.145
729.117
729.176
729.132
729.181
729.14
729.325
729.245
729.509
729.414
729.706
729.607
729.907
729.806
730.115
730.011
730.312
730.216
730.482
730.401
730.556
731.054
730.897
731.186
731.103
731.195
730.836
730.982
730.525
730.668
730.564
730.464
731.261
730.827
731.897
745.477
8484.73
769.411
810.019
800.716
730.898
730.649
730.755
731.174
731.047
731.27
731.251
731.192
731.244
730.987
731.107
730.687
730.838
730.744
730.621
732.263
731.258
734.182
673.287
619.11
641.567
661.073
729.352
719.326
772.305
631.882
629.155
656.352
730.216
729.107
704.864
740.496
749.803
749.905
691.011
678.194
685.012
838.038
668.856
660.304
657.684
637.368
633.064
687.005
621.174
3195.98
731.285
681.845
626.41
2339.82
753.033
657.911
691.701
730.378
729.571
745.199
779.452
729.605
758.64
4672.52
775.794
765.582
772.887
678.773
638.832
731.297
576.028
576.049
636.479
730.628
789.476
766.729
790.782
784.567
831.362
806.059
817.597
664.641
876.468
626.61
621.706
618.694
618.428
646.44
632.599
655.43
681.389
729.432
729.666
719.726
13163.7
624.445
730.6
730.698
729.851
730.326
729.109
700.549
696.734
741.249
733.785
747.256
769.745
744.12
645.935
626.456
686.093
676.458
681.54
621
729.313
729.142
729.185
785.523
696.014
625.971
628.215
630.088
736.198
741.79
730.396
730.341
729.809
780.865
773.048
652.667
643.984
653.361
730.306
730.456
661.777
730.469
747.827
741.451
766.124
801.215
687.283
833.923
730.446
730.592
730.385
655.413
618.972
629.002
618.478
649.848
624.599
665.646
667.508
663.859
651.166
703.885
739.386
743.022
805.603
760.332
623.118
730.489
729.543
730.432
729.141
730.11
707.733
697.532
739.972
729.88
622.905
799.143
768.886
697.137
656.195
653.113
655.452
651.195
683.737
620.91
729.462
760.898
639.812
635.349
729.72
649.045
793.951
662.482
745.588
747.08
652.025
785.668
636.88
645.963
617.405
636.29
617.195
653.916
659.098
648.572
1185.82
882.623
734.771
622.99
623.895
665.144
730.158
729.333
730.505
729.208
709.563
740.424
727.985
739.134
778.795
813.246
740.695
644.469
626.932
669.755
676.422
622.051
729.819
730.54
728.206
769.459
831.426
785.405
708.242
724.777
687.875
695.382
677.856
682.367
671.895
674.414
670.346
659.488
642.862
643.107
644.508
643.379
647.073
645.819
650.054
648.388
654.582
652.062
660.079
657.436
664.946
662.604
669.888
667.389
674.054
672.12
675.885
675.305
675.87
676.016
675.231
675.573
674.598
674.897
674.131
674.342
673.836
673.963
673.685
673.745
673.623
673.649
673.535
673.592
673.163
673.413
671.845
672.686
668.453
670.481
662.201
665.681
653.779
658.171
644.421
649.166
634.671
639.589
624.23
629.6
612.486
618.467
601.566
606.732
593.15
597.119
585.571
589.336
578.927
581.982
576.591
574.313
575
566.703
570.585
563.827
564.596
564.586
564.032
570.251
566.716
579.682
574.717
589.757
584.793
597.565
594.32
598.727
598.727
594.32
597.565
584.793
589.757
574.718
579.682
566.718
570.252
564.038
564.59
564.607
563.836
570.608
566.721
575.019
574.334
576.623
582.01
578.957
589.36
585.597
597.144
593.174
606.765
601.593
618.511
612.526
629.64
624.274
639.617
634.706
649.187
644.445
658.192
653.799
665.694
662.219
670.477
668.458
672.668
671.832
673.392
673.143
673.566
673.514
673.567
673.578
673.497
673.539
673.405
673.447
673.39
673.384
673.461
673.418
673.497
673.502
673.248
673.418
672.452
672.937
670.797
671.762
667.874
669.504
663.925
665.984
659.471
661.775
653.953
656.901
648.448
651.085
643.647
646.501
639.85
641.019
639.274
730.537
730.591
730.399
730.47
730.24
730.322
730.061
730.152
729.874
729.967
729.694
729.783
729.514
729.604
729.343
729.426
729.218
729.271
729.159
729.183
729.156
729.15
729.214
729.177
729.345
729.271
729.518
729.429
729.699
729.609
729.878
729.788
730.062
729.969
730.242
730.154
730.405
730.326
730.546
730.479
730.586
730.595
730.356
730.588
730.402
730.906
730.771
796.492
731.022
731.097
795.566
730.99
731.059
730.764
730.892
730.408
730.589
730.184
730.235
730.744
730.334
732.223
731.362
758.633
732.847
742.036
791.865
832.012
810.733
730.72
730.563
731.003
730.878
731.099
731.078
731.048
731.08
730.886
730.984
730.603
730.758
730.468
730.479
731.578
730.737
733.236
670.749
730.483
616.859
638.214
728.738
665.801
664.353
668.109
729.518
730.177
779.176
628.51
625.764
730.697
730.083
729.116
696.666
737.522
737.458
722.561
788.612
785.367
789.788
700.396
714.753
680.685
688.937
671.443
675.096
664.311
667.918
659.64
661.517
658.024
650.054
647.419
631.797
685.055
623.411
729.244
754.969
690.855
629.622
752.855
733.115
767.749
724.594
730.43
730.456
744.829
730.142
765.236
665.53
647.38
739.668
771.005
781.258
627.161
620.789
759.018
713.428
730.459
748.747
1719.87
688.195
639.784
758.302
732.267
753.4
759.181
744.361
983.31
652.372
791.93
814.157
820.314
811.729
723.626
817.119
832.371
730.634
730.434
661.756
620.623
624.064
619.659
616.639
614.935
642.033
629.762
659.178
662.026
663.581
691.441
734.303
753.922
729.651
776.61
779.91
766.39
621.331
745.296
731.996
745.742
730.603
730.625
729.717
730.205
729.126
696.454
693.65
737.951
732.538
767.517
798.39
789.577
807.976
720.691
769.207
771.87
783.192
765.519
765.215
766.293
640.367
625.701
647.278
636.124
624.646
683.685
673.615
678.832
623.313
729.364
729.161
729.211
651.24
706.823
629.678
632.457
634.071
730.066
783.649
661.087
648.405
744.052
648.003
798.199
737.462
581.586
578.016
574.63
575.047
730.636
730.422
733.532
634.174
739.135
626.652
652.107
615.884
628.783
614.225
645.493
622.031
657.199
660.056
771.028
711.649
729.909
737.624
730.515
737.566
621.492
620.73
730.363
729.434
730.328
729.169
708.074
699.484
738.27
729.815
740.388
764.712
789.988
774.106
772.436
781.252