/*--------------------------------*- C++ -*----------------------------------*\
| =========                 |                                                 |
| \\      /  F ield         | OpenFOAM: The Open Source CFD Toolbox           |
|  \\    /   O peration     | Version:  2212                                  |
|   \\  /    A nd           | Website:  www.openfoam.com                      |
|    \\/     M anipulation  |                                                 |
\*---------------------------------------------------------------------------*/
FoamFile
{
    version     2.0;
    format      ascii;
    arch        "LSB;label=32;scalar=64";
    class       volScalarField;
    location    "3.6e-05";
    object      p;
}
// * * * * * * * * * * * * * * * * * * * * * * * * * * * * * * * * * * * * * //

dimensions      [1 -1 -2 0 0 0 0];

internalField   nonuniform List<scalar> 
6888
(
530343
530567
530541
530749
530767
530864
530822
530736
530580
530374
530164
529950
529697
529571
529367
529410
529281
529525
529451
529947
528944
529148
529115
529325
529366
529483
529442
529369
529231
529050
528853
528658
528403
528284
528016
528046
527845
528074
527954
528411
527441
527662
527616
527875
527924
528058
528029
527967
527841
527682
527501
527294
527077
526925
526659
526640
526403
526606
526467
526884
525730
526028
525954
526259
526362
526537
526538
526495
526388
526237
526057
525877
525655
525486
525258
525143
524978
525086
524992
525363
523877
524195
524199
524540
524701
524921
524998
524974
524904
524777
524612
524435
524238
524039
523798
523679
523490
523615
523518
523884
521927
522285
522372
522771
522988
523266
523438
523444
523423
523349
523220
523058
522855
522655
522407
522280
522109
522196
522121
522498
520017
520429
520583
521040
521312
521639
521894
521975
521985
521977
521895
521768
521571
521371
521134
520994
520836
520890
520832
521242
518250
518707
518907
519401
519719
520090
520397
520578
520614
520653
520621
520515
520337
520152
519918
519781
519615
519631
519587
520027
516562
517067
517305
517849
518206
518620
518960
519210
519272
519333
519328
519243
519088
518900
518672
518532
518350
518336
518294
518743
514861
515418
515690
516292
516686
517146
517520
517816
517895
517950
517948
517875
517725
517538
517330
517155
516978
516923
516859
517318
513140
513720
514037
514679
515124
515636
516044
516385
516474
516530
516530
516441
516283
516117
515893
515743
515529
515465
515376
515832
511422
512012
512360
513036
513530
514097
514548
514933
515042
515101
515104
515017
514855
514679
514475
514305
514102
514058
513960
514400
509755
510338
510689
511380
511914
512519
513005
513431
513561
513642
513655
513578
513415
513228
513030
512853
512670
512637
512537
512972
508178
508727
509047
509726
510274
510901
511404
511852
512012
512112
512138
512072
511911
511728
511528
511362
511171
511146
511037
511466
506623
507120
507404
508059
508610
509246
509758
510219
510383
510492
510526
510470
510329
510155
509957
509797
509601
509577
509461
509878
504985
505432
505692
506316
506869
507518
508033
508496
508667
508779
508821
508784
508655
508497
508309
508166
507964
507944
507823
508244
503253
503658
503904
504509
505073
505729
506258
506731
506906
507021
507075
507052
506931
506786
506625
506485
506299
506299
506186
506615
501536
501915
502149
502736
503307
503966
504496
504987
505178
505279
505334
505319
505207
505075
504930
504787
504620
504653
504560
505007
499893
500259
500483
501051
501612
502260
502783
503280
503481
503569
503629
503614
503510
503389
503253
503114
502947
503010
502914
503386
498224
498590
498818
499372
499914
500544
501052
501542
501749
501833
501893
501885
501790
501681
501551
501412
501248
501322
501228
501728
496451
496825
497067
497615
498138
498748
499250
499728
499944
500038
500097
500091
500007
499917
499797
499671
499504
499578
499481
500008
494515
494907
495173
495720
496224
496813
497320
497784
498004
498123
498190
498191
498129
498052
497945
497834
497662
497736
497637
498188
492438
492847
493138
493685
494175
494738
495247
495702
495926
496069
496161
496180
496142
496080
495971
495889
495713
495803
495700
496260
490214
490642
490967
491527
492015
492565
493072
493524
493746
493904
494022
494061
494048
494004
493893
493841
493671
493788
493691
494253
487922
488359
488716
489296
489791
490345
490838
491293
491496
491669
491793
491857
491860
491843
491740
491729
491560
491697
491590
492146
485595
486031
486406
486992
487510
488073
488551
489002
489189
489355
489486
489564
489579
489581
489496
489519
489352
489488
489378
489918
483255
483699
484080
484674
485211
485794
486262
486700
486868
487013
487128
487202
487219
487244
487169
487217
487057
487206
487084
487601
480916
481370
481742
482345
482889
483490
483952
484389
484538
484660
484746
484800
484800
484822
484751
484807
484656
484841
484721
485239
478659
479116
479472
480069
480598
481205
481657
482073
482224
482325
482397
482418
482388
482381
482291
482320
482177
482423
482316
482850
476460
476915
477260
477839
478344
478935
479367
479743
479882
479974
480027
480013
479961
479914
479797
479789
479632
479930
479830
480391
474251
474709
475050
475618
476102
476662
477066
477383
477494
477560
477580
477539
477473
477413
477289
477246
477073
477400
477292
477878
471982
472445
472797
473367
473850
474387
474767
475034
475122
475162
475131
475057
474981
474914
474791
474739
474570
474900
474786
475392
469709
470176
470536
471114
471604
472130
472487
472726
472809
472820
472751
472657
472563
472482
472340
472307
472156
472508
472397
473007
467491
467961
468324
468907
469403
469930
470264
470485
470562
470556
470471
470370
470265
470160
469994
469981
469842
470223
470118
470744
465293
465762
466120
466693
467183
467705
468012
468218
468285
468269
468189
468085
467977
467854
467673
467674
467535
467951
467849
468498
463017
463479
463816
464365
464834
465341
465614
465803
465856
465822
465736
465636
465518
465385
465187
465194
465056
465498
465399
466091
460664
461103
461395
461886
462305
462761
462986
463142
463167
463108
463008
462897
462773
462647
462452
462478
462335
462782
462687
463431
458319
458719
458950
459360
459703
460068
460237
460337
460311
460215
460087
459960
459819
459717
459531
459597
459455
459890
459799
460599
456020
456357
456519
456834
457090
457335
457445
457471
457375
457230
457062
456908
456735
456659
456474
456615
456482
456903
456819
457653
453778
454022
454102
454314
454474
454596
454622
454545
454368
454164
453950
453762
453551
453461
453271
453480
453345
453751
453663
454535
451573
451709
451697
451791
451817
451816
451718
451506
451239
450961
450706
450503
450258
450132
449932
450164
450013
450444
450352
451256
449404
449463
449334
449297
449146
449005
448744
448392
448025
447656
447358
447135
446874
446722
446505
446723
446565
447034
446947
447895
447434
447399
447141
446894
446514
446180
445736
445249
444780
444323
443966
443703
443424
443258
443029
443216
443057
443573
443493
444474
445719
445525
445118
444609
443967
443398
442744
442109
441510
440963
440544
440227
439941
439770
439528
439703
439536
440073
439992
441004
443988
443597
442993
442217
441337
440544
439718
438942
438208
437560
437056
436684
436394
436239
435995
436184
436008
436546
436464
437483
441999
441397
440529
439509
438426
437420
436461
435594
434805
434118
433543
433115
432800
432668
432426
432651
432474
433016
432930
433931
439716
439031
437868
436670
435370
434120
432969
431936
431128
430497
429957
429542
429218
429089
428834
429085
428922
429511
429425
430407
436835
436442
435029
433844
432355
430933
429558
428291
427373
426706
426233
425922
425634
425524
425270
425505
425371
426050
425977
426960
433279
433203
431720
430761
429175
427778
426222
424856
423803
422998
422497
422206
421967
421922
421729
421936
421842
422619
422565
423576
429463
429457
428065
427277
425686
424372
422749
421435
420282
419425
418782
418430
418158
418165
418030
418327
418233
419075
419040
420125
425658
425348
424265
423345
421990
420631
419108
417789
416635
415825
415039
414667
414190
414303
414043
414567
414355
415280
415230
416410
421189
420862
420007
419105
417945
416662
415309
413976
412858
412008
411315
410801
410212
410400
409777
410662
410208
411168
411066
412295
416053
415866
415114
414411
413422
412396
411192
409946
408923
408077
407447
406892
406381
406161
405760
406449
405931
406865
406560
407812
410203
410086
409535
409051
408371
407671
406708
405621
404666
403908
403330
402823
402388
402041
401687
401941
401631
402280
402005
403059
403479
403598
403269
402956
402493
402046
401522
400958
400165
399447
398869
398446
398064
397679
397373
397358
397082
397673
397401
398319
395554
395906
395936
396026
395875
395826
395548
395322
395057
394741
394287
393869
393465
393164
392828
392721
392512
393073
392862
393771
387507
387849
387736
388115
388200
388466
388738
389004
389127
389215
389159
389137
388893
388688
388453
388373
388151
388680
388564
389502
375104
375896
376631
378408
379611
380586
381183
381657
382207
382945
383469
383800
383947
384228
384265
384402
384246
384684
384596
385531
363252
364350
365092
366443
367708
369375
371275
373675
375143
376109
377001
377931
378702
379393
379904
380453
380435
380951
380856
381707
354916
356220
356463
358017
359007
361240
362985
364798
366517
368513
370360
371958
373195
374346
375168
376015
376475
377116
377130
377893
349819
350778
350799
351585
352101
353207
354739
357258
360257
362091
363795
365778
367517
369032
370156
371300
372056
372934
373195
374080
346747
347499
347602
348234
348736
349606
350598
352086
353410
355475
357951
360088
361638
363568
364652
366505
367113
368657
368845
370114
346243
346942
347056
347678
348164
348768
349202
349912
350629
351564
352256
354022
356121
357833
359318
361125
361978
364039
363984
365755
346853
347396
347476
347953
348300
348635
348963
349326
349379
349746
350024
350465
351031
352587
353957
355612
356870
358664
358979
360761
350998
350982
350553
350334
350032
349801
349392
349127
348815
348780
348674
348497
348500
348870
349678
350785
351904
353366
354109
355682
353392
353130
352483
351950
351336
350737
349944
349243
348600
348229
347906
347443
347192
347094
347052
347519
347795
348760
349608
351166
351573
352426
351607
351841
350755
350526
349030
348679
347555
347121
346490
345940
345332
344715
344203
344179
343956
344851
344858
347016
308661
311213
312873
315464
317228
319811
321566
324297
325008
327574
327831
330487
330500
333070
332416
334908
334224
336947
336576
339626
275419
277343
279285
281560
283568
285971
288325
291152
293572
296374
298073
300990
302440
306281
307321
311770
311428
316648
316383
321823
259357
260679
261280
262637
263842
265402
267033
269014
270844
272759
274496
276431
278243
280744
282493
286009
287305
292252
292277
298185
251607
252647
252627
253333
253821
254675
255599
256865
258027
259270
260411
261646
262955
264525
266120
268274
269725
273131
274035
278760
247155
247992
247640
247942
247834
248254
248728
249508
250240
251078
251868
252733
253652
254708
255809
257167
258366
260487
261466
264893
243348
243858
243709
243814
243635
243766
243772
244313
244831
245419
245990
246608
247283
248029
248795
249664
250471
251851
252624
254977
238246
238603
238702
239101
239036
239227
239348
239772
240192
240623
241029
241439
241910
242349
242929
243577
244209
245205
245867
247472
231936
232534
232633
233363
233726
234282
234679
235147
235460
235836
236279
236535
237028
237236
237712
238185
238677
239500
239897
241101
226718
227571
227564
228440
228745
229330
229592
230055
230486
230976
231415
231780
232211
232510
232866
233248
233471
234185
234581
235602
223466
224364
223655
224713
224596
225055
225071
225609
225931
226496
227012
227451
227993
228418
228786
229080
229320
229933
230040
231072
221561
221723
220858
221740
221699
222446
222454
222751
222802
223107
223603
224049
224618
224943
225392
225684
226052
226518
226679
227562
219809
219874
219046
219565
219358
219827
219942
220351
220644
220875
221108
221453
221944
222240
222756
222994
223343
223755
223990
224715
217901
217818
217616
218053
217942
218321
218571
218812
218804
218895
219069
219176
219530
219861
220444
220823
221134
221519
221763
222341
216067
216448
216098
216423
216274
216497
216623
216969
217131
217288
217391
217572
217785
218131
218393
218608
218996
219452
219791
220360
214886
215484
215352
215754
215586
215763
215845
216104
216217
216316
216383
216457
216608
216803
217010
217235
217564
217846
218006
218457
214272
214910
214623
214999
214807
215008
214970
215121
215137
215094
215060
215010
215107
215089
215293
215365
215626
216020
216453
216937
213694
214244
213662
214115
213791
214067
213893
213992
213977
214036
214123
214136
214240
214256
214463
214458
214633
214815
214918
215270
212980
213478
213101
213569
213365
213540
213420
213527
213514
213586
213622
213599
213651
213619
213751
213719
213839
213854
213906
214201
212622
213197
212924
213358
213125
213271
213136
213191
213152
213143
213130
213106
213139
213120
213201
213154
213238
213142
213167
213299
212562
213056
212789
213183
212944
213052
212910
212956
212946
212943
212927
212896
212903
212855
212886
212761
212804
212704
212760
212777
212527
212990
212723
213109
212868
212963
212826
212861
212859
212854
212837
212796
212782
212693
212716
212631
212687
212585
212647
212593
212523
212972
212695
213092
212842
212938
212793
212817
212823
212819
212798
212739
212720
212658
212686
212601
212651
212546
212583
212489
212816
213354
212898
213302
212966
212982
212778
212790
212806
212803
212780
212717
212716
212669
212687
212613
212641
212543
212569
212464
214436
214843
214301
214564
214197
214203
213997
213907
213794
213779
213756
213643
213531
213366
213323
213135
213148
212920
212920
212691
216574
216881
216357
216560
216180
216191
215941
215924
215736
215679
215673
215511
215371
215156
215086
214830
214850
214573
214624
214318
218776
219026
218528
218692
218345
218339
218083
218098
217936
217937
217873
217695
217516
217297
217255
216971
216988
216681
216730
216378
220883
221162
220691
220843
220547
220549
220291
220300
220150
220171
220107
219943
219749
219528
219523
219246
219258
218946
219009
218626
223168
223536
223061
223293
222988
223019
222769
222725
222566
222541
222477
222310
222148
221905
221908
221639
221655
221357
221405
221005
226047
226526
225984
226271
225941
226024
225763
225717
225501
225366
225275
225084
224971
224693
224682
224373
224359
223988
223996
223559
229527
230005
229448
229677
229411
229500
229256
229172
228933
228808
228662
228449
228344
228032
227995
227640
227556
227116
227060
226541
233276
233792
233218
233372
233134
233218
233010
232941
232719
232568
232444
232237
232122
231840
231744
231447
231252
230844
230709
230200
237190
237805
237174
237331
237068
237138
236911
236938
236764
236609
236467
236262
236125
235850
235857
235534
235430
235012
234918
234372
241297
241950
241261
241560
241216
241293
241035
241074
240941
240809
240686
240481
240341
240089
240138
239795
239814
239351
239325
238765
245752
246436
245768
246114
245712
245825
245563
245534
245464
245340
245183
244961
244942
244663
244656
244284
244285
243806
243823
243284
251003
251369
250969
251182
250691
250936
250557
250587
250517
250342
250254
249979
249848
249552
249597
249154
249122
248570
248579
247995
256714
256927
256630
256752
256318
256302
256032
256055
255930
255735
255545
255264
255031
254722
254778
254330
254134
253597
253613
252950
262506
262898
262531
262555
262201
261965
261685
261699
261486
261250
261006
260683
260344
260010
260011
259616
259255
258645
258710
257928
268549
269159
268598
268581
268164
267941
267634
267611
267263
266926
266601
266220
266024
265630
265431
264948
264698
263913
263976
263072
274960
275651
274880
274929
274420
274239
273887
273790
273204
272882
272645
272225
272087
271499
271270
270615
270609
269684
269692
268679
281730
282063
281611
281683
280932
280882
280405
280359
279815
279438
279115
278628
278645
277922
277879
277101
277071
276110
276101
275028
288868
289249
288447
288549
288022
287874
287451
287335
286846
286515
286304
285916
285687
285128
284980
284289
284188
283271
283265
282275
296366
296723
295899
295869
295368
295436
295095
295095
294547
294112
293812
293477
293485
293025
292612
291986
292049
291239
291081
290083
304337
304568
303911
303941
303444
303385
302980
303059
302822
302381
301940
301497
301568
301023
300920
300227
300149
299384
299357
298333
312387
312708
312109
312115
311585
311507
311170
311019
311031
310702
310280
309920
309703
309210
309134
308515
308450
307683
307678
306734
319917
320297
319978
320061
319633
319461
319139
318907
318763
318541
318463
318081
317715
317252
317317
316729
316629
315880
315892
315017
327125
327671
327278
327600
327330
327337
326975
326694
326448
326199
326163
325803
325724
325248
325214
324598
324623
323879
323927
323109
334823
335231
334620
335017
334648
334707
334482
334235
334051
333765
333727
333293
333411
332792
333010
332185
332436
331524
331656
330818
342704
342799
342180
342307
341942
341932
341690
341557
341451
341197
341077
340730
340608
340214
340238
339606
339659
338874
338929
338131
350387
350396
349686
349643
349337
349222
349021
348802
348578
348306
348275
347881
347565
347173
347217
346689
346551
345788
345821
344967
357899
358014
357057
357128
356742
356726
356429
356079
355859
355492
355538
355107
355096
354566
354588
354038
353753
353091
352858
351885
363483
364454
363416
363728
363265
363359
363104
362740
362628
362324
362383
361963
362146
361549
361759
361111
361249
360527
360592
359881
365956
367429
366354
366843
366348
366536
366165
365921
365714
365456
365553
365108
365466
364669
365206
364328
364982
364016
364592
363766
371557
372669
370780
370904
369739
369541
368574
368148
367809
367143
367222
366425
366876
365867
366664
365567
366645
365179
366541
365361
390759
391043
388962
388076
386355
385101
383467
381755
379927
377755
376493
374065
373372
370313
370940
367382
369245
365468
367577
365713
421573
421902
419003
417548
415066
412680
410081
407209
404195
401184
398180
395010
391775
387730
385592
379875
379492
372153
372531
365823
463454
462451
459506
456749
453431
449962
446185
442275
438210
434174
430242
426078
421671
417039
412186
406604
402425
393335
392102
380026
517260
514898
511046
507465
503437
499155
494620
489773
484739
479780
474875
469818
464575
458742
453115
446240
440842
430997
427753
412354
573195
571287
567170
563371
558974
554267
549194
543836
538333
532938
527682
522288
516544
510368
504077
496505
490512
479643
475930
460046
628153
626032
621848
617822
613350
608483
603279
597860
592317
586895
581663
576285
570647
564424
558221
550673
544370
533836
529286
513650
680273
678140
674000
669917
665426
660619
655505
650219
644815
639478
634359
629117
623571
617527
611594
604084
598151
587782
583541
568452
728196
725402
721414
717332
713074
708586
703803
698837
693754
688698
683883
678962
673841
668284
662749
655899
650319
640721
636906
622679
772645
770027
765999
762599
758728
754603
750191
745590
740861
736125
731624
727019
722277
717162
712209
705918
700842
692243
688451
675994
812708
809576
805969
802723
799447
795703
791700
787502
783152
778806
774716
770596
766374
761828
757215
751726
746862
739390
735615
724560
842773
839529
836847
833714
831382
827858
824417
820683
816987
813325
809998
806598
803168
799325
795508
790748
786488
780328
777155
768001
864034
861390
859195
856354
854460
851658
848861
845932
843168
840424
837952
835414
832855
830081
827380
824006
821148
816940
814745
808938
880299
878103
876674
874614
872597
870375
868199
866044
864012
862093
860357
858643
856852
854977
853079
851062
849158
847129
845708
843341
894627
892759
890790
888914
888076
886477
885025
883430
881848
880321
878962
877681
876437
875243
874117
872930
871783
870554
869601
868306
905361
903541
903543
902144
901078
899847
898524
897192
896007
894922
893986
893128
892303
891485
890668
889835
889055
888323
887995
887212
915513
914030
913518
912500
911337
910233
909544
908708
907925
907196
906543
905909
905296
904723
904198
903711
903263
902948
902740
902496
923986
922716
922027
920859
920771
919918
919341
918737
918157
917586
917082
916622
916208
915856
915559
915307
915056
914910
914759
914722
931790
930366
930291
929301
929214
928648
928027
927435
926941
926496
926143
925840
925580
925347
925117
924925
924729
924663
924581
924690
939202
937972
937960
937185
936740
936140
935684
935151
934846
934482
934200
933920
933645
933404
933206
933089
932939
932951
932892
933054
945767
944732
944842
944186
943539
942810
942716
942238
941882
941499
941160
940902
940684
940587
940422
940332
940190
940207
940125
940279
952104
951085
950807
950123
949987
949316
948994
948586
948116
947718
947543
947332
947141
947015
946856
946751
946610
946650
946582
946742
957764
956989
956715
955978
955748
955295
954821
954300
954058
953722
953488
953275
953064
952881
952707
952685
952539
952571
952503
952654
963344
962578
962377
961821
961355
960808
960514
960097
959756
959436
959172
958942
958723
958653
958474
958362
958231
958264
958181
958338
968874
968249
967782
967281
966916
966477
966079
965716
965366
965058
964803
964589
964401
964295
964149
964043
963917
963971
963905
964070
973976
973414
973026
972600
972196
971806
971426
971085
970770
970499
970279
970095
969937
969826
969709
969673
969570
969646
969597
969793
978640
978174
977781
977408
977041
976689
976351
976051
975785
975563
975388
975246
975127
975056
974978
974982
974919
975048
975021
975286
982862
982466
982103
981772
981449
981146
980860
980612
980396
980221
980090
979993
979915
979893
979851
979911
979882
980079
980071
980418
986769
986436
986110
985826
985550
985297
985063
984866
984702
984577
984490
984443
984401
984437
984423
984556
984545
984826
984823
985259
990550
990263
989974
989731
989496
989288
989104
988958
988842
988764
988714
988716
988702
988805
988808
989015
989014
989374
989377
989895
994311
994053
993789
993586
993386
993217
993069
992961
992878
992839
992817
992865
992870
993022
993041
993301
993313
993731
993744
994323
997957
997768
997520
997341
997162
997016
996890
996811
996750
996746
996739
996820
996837
997023
997050
997347
997371
997827
997847
998466
1.00151e+06
1.00132e+06
1.0011e+06
1.00092e+06
1.00075e+06
1.00063e+06
1.00051e+06
1.00046e+06
1.00041e+06
1.00042e+06
1.00042e+06
1.00052e+06
1.00055e+06
1.00075e+06
1.00079e+06
1.0011e+06
1.00113e+06
1.00161e+06
1.00163e+06
1.00227e+06
1.00498e+06
1.00478e+06
1.00455e+06
1.0044e+06
1.00423e+06
1.00412e+06
1.004e+06
1.00396e+06
1.00391e+06
1.00393e+06
1.00393e+06
1.00404e+06
1.00406e+06
1.00427e+06
1.00431e+06
1.00463e+06
1.00466e+06
1.00514e+06
1.00516e+06
1.00581e+06
1.00839e+06
1.00821e+06
1.00797e+06
1.00783e+06
1.00766e+06
1.00755e+06
1.00744e+06
1.0074e+06
1.00735e+06
1.00737e+06
1.00737e+06
1.00748e+06
1.0075e+06
1.00771e+06
1.00775e+06
1.00807e+06
1.0081e+06
1.00858e+06
1.0086e+06
1.00924e+06
1.01175e+06
1.01159e+06
1.01137e+06
1.01123e+06
1.01107e+06
1.01096e+06
1.01087e+06
1.01083e+06
1.01079e+06
1.01082e+06
1.01083e+06
1.01093e+06
1.01096e+06
1.01117e+06
1.01121e+06
1.01153e+06
1.01157e+06
1.01204e+06
1.01206e+06
1.01269e+06
1.01506e+06
1.01491e+06
1.01471e+06
1.01458e+06
1.01444e+06
1.01434e+06
1.01426e+06
1.01423e+06
1.01421e+06
1.01425e+06
1.01427e+06
1.01438e+06
1.01442e+06
1.01463e+06
1.01468e+06
1.015e+06
1.01504e+06
1.01551e+06
1.01554e+06
1.01616e+06
1.01825e+06
1.01811e+06
1.01793e+06
1.01781e+06
1.01769e+06
1.01761e+06
1.01755e+06
1.01753e+06
1.01752e+06
1.01757e+06
1.0176e+06
1.01771e+06
1.01777e+06
1.01797e+06
1.01804e+06
1.01835e+06
1.01841e+06
1.01886e+06
1.0189e+06
1.0195e+06
1.02123e+06
1.02111e+06
1.02095e+06
1.02085e+06
1.02075e+06
1.02068e+06
1.02063e+06
1.02063e+06
1.02063e+06
1.02069e+06
1.02073e+06
1.02084e+06
1.02091e+06
1.02111e+06
1.02119e+06
1.02148e+06
1.02156e+06
1.02198e+06
1.02203e+06
1.02261e+06
1.02389e+06
1.02379e+06
1.02365e+06
1.02357e+06
1.02349e+06
1.02344e+06
1.02341e+06
1.02343e+06
1.02344e+06
1.02351e+06
1.02356e+06
1.02368e+06
1.02376e+06
1.02395e+06
1.02404e+06
1.02432e+06
1.02441e+06
1.02481e+06
1.02487e+06
1.0254e+06
1.02609e+06
1.02601e+06
1.02592e+06
1.02586e+06
1.02581e+06
1.02579e+06
1.02578e+06
1.02582e+06
1.02585e+06
1.02593e+06
1.026e+06
1.02613e+06
1.02622e+06
1.0264e+06
1.02651e+06
1.02676e+06
1.02686e+06
1.02722e+06
1.02729e+06
1.02776e+06
1.02789e+06
1.02783e+06
1.02777e+06
1.02773e+06
1.02771e+06
1.02771e+06
1.02773e+06
1.02778e+06
1.02783e+06
1.02792e+06
1.028e+06
1.02812e+06
1.02822e+06
1.02838e+06
1.0285e+06
1.02872e+06
1.02883e+06
1.02913e+06
1.0292e+06
1.0296e+06
1.0294e+06
1.02936e+06
1.02932e+06
1.0293e+06
1.02929e+06
1.0293e+06
1.02933e+06
1.02938e+06
1.02943e+06
1.02951e+06
1.02959e+06
1.02969e+06
1.02978e+06
1.02992e+06
1.03002e+06
1.03021e+06
1.0303e+06
1.03055e+06
1.03062e+06
1.03094e+06
1.03068e+06
1.03065e+06
1.03061e+06
1.0306e+06
1.0306e+06
1.03061e+06
1.03063e+06
1.03067e+06
1.03071e+06
1.03078e+06
1.03084e+06
1.03092e+06
1.03099e+06
1.0311e+06
1.03118e+06
1.03132e+06
1.0314e+06
1.03159e+06
1.03164e+06
1.03189e+06
1.03167e+06
1.03164e+06
1.03162e+06
1.03161e+06
1.03161e+06
1.03162e+06
1.03163e+06
1.03167e+06
1.0317e+06
1.03175e+06
1.0318e+06
1.03186e+06
1.03192e+06
1.032e+06
1.03207e+06
1.03217e+06
1.03223e+06
1.03237e+06
1.03241e+06
1.03259e+06
1.03237e+06
1.03236e+06
1.03234e+06
1.03234e+06
1.03234e+06
1.03235e+06
1.03236e+06
1.03239e+06
1.03242e+06
1.03246e+06
1.0325e+06
1.03255e+06
1.03259e+06
1.03265e+06
1.0327e+06
1.03278e+06
1.03283e+06
1.03292e+06
1.03296e+06
1.03308e+06
1.03288e+06
1.03287e+06
1.03286e+06
1.03286e+06
1.03286e+06
1.03287e+06
1.03288e+06
1.0329e+06
1.03293e+06
1.03296e+06
1.03299e+06
1.03302e+06
1.03306e+06
1.0331e+06
1.03314e+06
1.03319e+06
1.03323e+06
1.0333e+06
1.03332e+06
1.03341e+06
1.03326e+06
1.03325e+06
1.03324e+06
1.03324e+06
1.03324e+06
1.03325e+06
1.03326e+06
1.03327e+06
1.03329e+06
1.03331e+06
1.03333e+06
1.03335e+06
1.03338e+06
1.03341e+06
1.03343e+06
1.03347e+06
1.0335e+06
1.03354e+06
1.03356e+06
1.03362e+06
1.03353e+06
1.03353e+06
1.03352e+06
1.03352e+06
1.03352e+06
1.03352e+06
1.03353e+06
1.03353e+06
1.03355e+06
1.03356e+06
1.03357e+06
1.03359e+06
1.0336e+06
1.03362e+06
1.03364e+06
1.03367e+06
1.03368e+06
1.03371e+06
1.03372e+06
1.03376e+06
1.03372e+06
1.03371e+06
1.03371e+06
1.03371e+06
1.03371e+06
1.03371e+06
1.03371e+06
1.03372e+06
1.03372e+06
1.03373e+06
1.03374e+06
1.03375e+06
1.03376e+06
1.03377e+06
1.03378e+06
1.0338e+06
1.03381e+06
1.03383e+06
1.03383e+06
1.03386e+06
1.03384e+06
1.03383e+06
1.03383e+06
1.03383e+06
1.03383e+06
1.03383e+06
1.03383e+06
1.03383e+06
1.03383e+06
1.03384e+06
1.03384e+06
1.03385e+06
1.03385e+06
1.03386e+06
1.03387e+06
1.03388e+06
1.03388e+06
1.0339e+06
1.0339e+06
1.03392e+06
1.0339e+06
1.0339e+06
1.0339e+06
1.0339e+06
1.0339e+06
1.0339e+06
1.0339e+06
1.0339e+06
1.0339e+06
1.0339e+06
1.03391e+06
1.03391e+06
1.03391e+06
1.03392e+06
1.03392e+06
1.03393e+06
1.03393e+06
1.03394e+06
1.03394e+06
1.03395e+06
1.03394e+06
1.03394e+06
1.03394e+06
1.03394e+06
1.03394e+06
1.03394e+06
1.03394e+06
1.03394e+06
1.03394e+06
1.03394e+06
1.03394e+06
1.03395e+06
1.03395e+06
1.03395e+06
1.03395e+06
1.03396e+06
1.03396e+06
1.03396e+06
1.03396e+06
1.03397e+06
1.03397e+06
1.03397e+06
1.03397e+06
1.03397e+06
1.03396e+06
1.03396e+06
1.03396e+06
1.03396e+06
1.03396e+06
1.03397e+06
1.03397e+06
1.03397e+06
1.03397e+06
1.03397e+06
1.03397e+06
1.03397e+06
1.03397e+06
1.03398e+06
1.03398e+06
1.03398e+06
1.03398e+06
1.03398e+06
1.03398e+06
1.03398e+06
1.03398e+06
1.03398e+06
1.03398e+06
1.03398e+06
1.03398e+06
1.03398e+06
1.03398e+06
1.03398e+06
1.03398e+06
1.03398e+06
1.03398e+06
1.03398e+06
1.03398e+06
1.03399e+06
1.03399e+06
1.03399e+06
1.03399e+06
1.03399e+06
1.03399e+06
1.03399e+06
1.03399e+06
1.03399e+06
1.03399e+06
1.03399e+06
1.03399e+06
1.03399e+06
1.03399e+06
1.03399e+06
1.03399e+06
1.03399e+06
1.03399e+06
1.03399e+06
1.03399e+06
1.03399e+06
1.03399e+06
1.03399e+06
1.034e+06
1.03399e+06
1.03399e+06
1.03399e+06
1.03399e+06
1.03399e+06
1.03399e+06
1.03399e+06
1.03399e+06
1.03399e+06
1.03399e+06
1.03399e+06
1.03399e+06
1.034e+06
1.034e+06
1.034e+06
1.034e+06
1.034e+06
1.034e+06
1.034e+06
1.034e+06
1.034e+06
1.034e+06
1.034e+06
1.034e+06
1.034e+06
1.034e+06
1.034e+06
1.034e+06
1.034e+06
1.034e+06
1.034e+06
1.034e+06
1.034e+06
1.034e+06
1.034e+06
1.034e+06
1.034e+06
1.034e+06
1.034e+06
1.034e+06
1.034e+06
1.034e+06
1.034e+06
1.034e+06
1.034e+06
1.034e+06
1.034e+06
1.034e+06
1.034e+06
1.034e+06
1.034e+06
1.034e+06
1.034e+06
1.034e+06
1.034e+06
1.034e+06
1.034e+06
1.034e+06
1.034e+06
1.034e+06
1.034e+06
1.034e+06
1.034e+06
1.034e+06
1.034e+06
1.034e+06
1.034e+06
1.034e+06
1.034e+06
1.034e+06
1.034e+06
1.034e+06
1.034e+06
1.034e+06
1.034e+06
1.034e+06
1.034e+06
1.034e+06
1.034e+06
1.034e+06
1.034e+06
1.034e+06
1.034e+06
1.034e+06
1.034e+06
1.034e+06
1.034e+06
1.034e+06
1.034e+06
1.034e+06
1.034e+06
1.034e+06
1.034e+06
1.034e+06
1.034e+06
1.034e+06
1.034e+06
1.034e+06
1.034e+06
1.034e+06
1.034e+06
1.034e+06
1.034e+06
1.034e+06
1.034e+06
1.034e+06
1.034e+06
1.034e+06
1.034e+06
1.034e+06
1.034e+06
1.034e+06
1.034e+06
1.034e+06
1.034e+06
1.034e+06
1.034e+06
1.034e+06
1.034e+06
1.034e+06
1.034e+06
1.034e+06
1.034e+06
1.034e+06
1.034e+06
1.034e+06
1.034e+06
1.034e+06
1.034e+06
1.034e+06
1.034e+06
1.034e+06
1.034e+06
1.034e+06
1.034e+06
1.034e+06
1.034e+06
1.034e+06
1.034e+06
1.034e+06
1.034e+06
1.034e+06
1.034e+06
1.034e+06
1.034e+06
1.034e+06
1.034e+06
1.034e+06
1.034e+06
1.034e+06
1.034e+06
1.034e+06
1.034e+06
1.034e+06
1.034e+06
1.034e+06
1.034e+06
1.034e+06
1.034e+06
1.034e+06
1.034e+06
1.034e+06
1.034e+06
1.034e+06
1.034e+06
1.034e+06
1.034e+06
1.034e+06
1.034e+06
1.034e+06
1.034e+06
1.034e+06
1.034e+06
1.034e+06
1.034e+06
1.034e+06
1.034e+06
1.034e+06
1.034e+06
1.034e+06
1.034e+06
1.034e+06
1.034e+06
1.034e+06
1.034e+06
1.034e+06
1.034e+06
1.034e+06
1.034e+06
1.034e+06
1.034e+06
1.034e+06
1.034e+06
1.034e+06
1.034e+06
1.034e+06
1.034e+06
1.034e+06
1.034e+06
1.034e+06
1.034e+06
1.034e+06
1.034e+06
1.034e+06
1.034e+06
1.034e+06
1.034e+06
1.034e+06
1.034e+06
1.034e+06
1.034e+06
1.034e+06
1.034e+06
1.034e+06
1.034e+06
1.034e+06
1.034e+06
1.034e+06
1.034e+06
1.034e+06
1.034e+06