/*--------------------------------*- C++ -*----------------------------------*\
| =========                 |                                                 |
| \\      /  F ield         | OpenFOAM: The Open Source CFD Toolbox           |
|  \\    /   O peration     | Version:  2212                                  |
|   \\  /    A nd           | Website:  www.openfoam.com                      |
|    \\/     M anipulation  |                                                 |
\*---------------------------------------------------------------------------*/
FoamFile
{
    version     2.0;
    format      ascii;
    arch        "LSB;label=32;scalar=64";
    class       surfaceScalarField;
    location    "0.00059";
    object      phi;
}
// * * * * * * * * * * * * * * * * * * * * * * * * * * * * * * * * * * * * * //

dimensions      [1 0 -1 0 0 0 0];

oriented        oriented;

internalField   nonuniform List<scalar> 
13427
(
2.90491e-08
-3.91714e-07
-1.00671e-08
5.03847e-08
-6.23312e-07
7.71369e-08
-7.5774e-07
1.19463e-07
-7.02629e-07
2.03631e-07
-5.43614e-07
2.294e-07
-1.86094e-07
2.33145e-07
2.05745e-08
2.24147e-07
1.39922e-07
2.11773e-07
2.04074e-07
1.98595e-07
2.35262e-07
1.84618e-07
2.4142e-07
1.70481e-07
2.60496e-07
1.56217e-07
2.8807e-07
1.41834e-07
2.99785e-07
1.27423e-07
2.98978e-07
1.12558e-07
3.07438e-07
9.65314e-08
3.11359e-07
7.61393e-08
2.50729e-07
3.84917e-08
9.46964e-10
-2.69907e-07
5.81709e-09
-3.80952e-07
-5.1007e-09
9.02296e-09
-6.1038e-07
2.58369e-08
-7.57588e-07
8.86085e-08
-7.66733e-07
1.90824e-07
-6.3838e-07
2.27929e-07
-1.89469e-07
2.26956e-07
4.179e-08
2.12895e-07
1.69353e-07
1.97656e-07
2.33866e-07
1.79883e-07
2.6606e-07
1.63725e-07
2.69697e-07
1.50033e-07
2.84723e-07
1.37111e-07
3.10011e-07
1.2511e-07
3.19326e-07
1.14313e-07
3.16367e-07
1.04417e-07
3.23689e-07
9.51825e-08
3.27016e-07
8.00042e-08
2.72472e-07
3.84159e-08
4.99778e-08
-2.23639e-07
3.9903e-09
-3.81992e-07
-4.557e-10
6.5278e-09
-6.11548e-07
8.77645e-09
-7.4696e-07
5.24004e-08
-7.88367e-07
1.53446e-07
-7.13728e-07
2.01474e-07
-2.09239e-07
2.05234e-07
5.90406e-08
1.93887e-07
1.98172e-07
1.83981e-07
2.57166e-07
1.70841e-07
2.9129e-07
1.57463e-07
2.93671e-07
1.43928e-07
3.06885e-07
1.31187e-07
3.30106e-07
1.19397e-07
3.37385e-07
1.09056e-07
3.32365e-07
9.90037e-08
3.39248e-07
8.74035e-08
3.44101e-07
7.07111e-08
2.94998e-07
3.88755e-08
8.82395e-08
-1.77353e-07
9.00567e-09
-3.87222e-07
-1.5918e-09
1.68861e-08
-6.15523e-07
2.51421e-08
-7.43803e-07
4.41034e-08
-7.90155e-07
8.78396e-08
-7.33432e-07
1.52047e-07
-2.5291e-07
1.57555e-07
7.06215e-08
1.50881e-07
2.2048e-07
1.46276e-07
2.73695e-07
1.40531e-07
3.07624e-07
1.34385e-07
3.08332e-07
1.26505e-07
3.21174e-07
1.1823e-07
3.44052e-07
1.0982e-07
3.50846e-07
1.02187e-07
3.45056e-07
9.48166e-08
3.51624e-07
8.54675e-08
3.58535e-07
7.10595e-08
3.14617e-07
3.89813e-08
1.25921e-07
-1.32104e-07
5.58316e-09
-3.90525e-07
-7.34421e-10
1.35072e-08
-6.21518e-07
2.76834e-08
-7.52123e-07
3.94854e-08
-8.01746e-07
4.10735e-08
-7.31774e-07
8.41405e-08
-2.85756e-07
9.08167e-08
7.81048e-08
8.95748e-08
2.32538e-07
8.92578e-08
2.82685e-07
9.0242e-08
3.14061e-07
9.08821e-08
3.13035e-07
8.99231e-08
3.26176e-07
8.7735e-08
3.50136e-07
8.42271e-08
3.58313e-07
8.03297e-08
3.53183e-07
7.59802e-08
3.60421e-07
6.9739e-08
3.69334e-07
5.90774e-08
3.29508e-07
3.41459e-08
1.54993e-07
-9.32627e-08
1.72024e-09
-3.90513e-07
-4.59716e-10
2.6747e-09
-6.15586e-07
6.4334e-09
-7.47843e-07
6.99727e-09
-7.98052e-07
-2.36401e-09
-7.24267e-07
1.0179e-08
-2.94743e-07
1.66562e-08
7.56181e-08
2.40814e-08
2.29001e-07
2.96047e-08
2.80618e-07
3.76072e-08
3.09665e-07
4.38147e-08
3.09237e-07
4.83581e-08
3.237e-07
5.17209e-08
3.49474e-07
5.38448e-08
3.59324e-07
5.47956e-08
3.55679e-07
5.49874e-08
3.63929e-07
5.3812e-08
3.74161e-07
4.94732e-08
3.37105e-07
3.04762e-08
1.76917e-07
-5.96625e-08
-5.41386e-10
-3.88965e-07
-2.89967e-10
-3.1185e-09
-6.11917e-07
-1.51918e-08
-7.31525e-07
-3.75894e-08
-7.71951e-07
-6.51129e-08
-7.02507e-07
-6.96796e-08
-2.90883e-07
-5.2952e-08
5.49277e-08
-3.47664e-08
2.12735e-07
-2.02903e-08
2.6875e-07
-5.5432e-09
2.95419e-07
5.21541e-09
2.98473e-07
1.41819e-08
3.14998e-07
2.12807e-08
3.43094e-07
2.77356e-08
3.5424e-07
3.26157e-08
3.53244e-07
3.66546e-08
3.62374e-07
3.91482e-08
3.74236e-07
3.84219e-08
3.4031e-07
2.48884e-08
1.92489e-07
-3.28119e-08
-2.95739e-09
-3.86126e-07
5.75984e-10
-7.274e-09
-6.06403e-07
-2.41454e-08
-7.14804e-07
-6.43862e-08
-7.31529e-07
-1.15476e-07
-6.59763e-07
-1.28727e-07
-2.895e-07
-1.06641e-07
1.9559e-08
-7.95721e-08
1.82705e-07
-5.70593e-08
2.44728e-07
-3.67456e-08
2.74234e-07
-2.19293e-08
2.83121e-07
-9.05381e-09
3.01548e-07
1.8458e-09
3.3248e-07
1.16199e-08
3.45711e-07
1.92301e-08
3.46765e-07
2.66238e-08
3.56365e-07
3.23618e-08
3.70218e-07
3.44569e-08
3.39909e-07
2.34152e-08
2.0486e-07
-7.89718e-09
-5.50404e-09
-3.81307e-07
7.25254e-10
-1.17062e-08
-5.993e-07
-3.14462e-08
-6.94959e-07
-8.62576e-08
-6.80476e-07
-1.45235e-07
-6.13562e-07
-1.61153e-07
-2.9198e-07
-1.40623e-07
-1.95704e-08
-1.12413e-07
1.4374e-07
-8.67117e-08
2.14274e-07
-6.23597e-08
2.46948e-07
-4.47933e-08
2.63166e-07
-2.94892e-08
2.84937e-07
-1.60145e-08
3.19154e-07
-3.60032e-09
3.33313e-07
7.03211e-09
3.36891e-07
1.76356e-08
3.46958e-07
2.65645e-08
3.62647e-07
3.13978e-08
3.36634e-07
2.27568e-08
2.14849e-07
1.5837e-08
-7.43414e-09
-3.74546e-07
1.56421e-09
-1.43081e-08
-5.92095e-07
-3.39297e-08
-6.74755e-07
-9.29869e-08
-6.22007e-07
-1.56449e-07
-5.61885e-07
-1.77153e-07
-2.89156e-07
-1.62945e-07
-4.84675e-08
-1.37481e-07
1.08992e-07
-1.12217e-07
1.82044e-07
-8.62808e-08
2.15617e-07
-6.65097e-08
2.39662e-07
-4.89252e-08
2.64438e-07
-3.32905e-08
3.0081e-07
-1.83029e-08
3.16771e-07
-4.50982e-09
3.22278e-07
9.02146e-09
3.33491e-07
2.16547e-08
3.51059e-07
2.93638e-08
3.29792e-07
2.24115e-08
2.22036e-07
3.79423e-08
-8.40586e-09
-3.68713e-07
2.13939e-09
-1.62983e-08
-5.82368e-07
-2.97452e-08
-6.60758e-07
-7.37071e-08
-5.7528e-07
-1.46985e-07
-4.96711e-07
-1.75234e-07
-2.75332e-07
-1.70481e-07
-6.62653e-08
-1.48987e-07
7.9159e-08
-1.25258e-07
1.51769e-07
-9.97987e-08
1.84959e-07
-7.97296e-08
2.14561e-07
-6.23561e-08
2.41501e-07
-4.67075e-08
2.79595e-07
-3.11087e-08
2.97722e-07
-1.68516e-08
3.06293e-07
-2.28513e-09
3.17933e-07
1.11089e-08
3.36624e-07
2.02381e-08
3.19254e-07
1.709e-08
2.23338e-07
5.35231e-08
-9.44929e-09
-3.626e-07
2.60418e-09
-1.89866e-08
-5.71727e-07
-3.19793e-08
-6.46112e-07
-6.64588e-08
-5.40968e-07
-1.41244e-07
-4.28516e-07
-1.73867e-07
-2.5595e-07
-1.7375e-07
-7.79048e-08
-1.55718e-07
5.30129e-08
-1.32939e-07
1.22763e-07
-1.09136e-07
1.55425e-07
-9.02127e-08
1.90147e-07
-7.29733e-08
2.19434e-07
-5.67186e-08
2.59266e-07
-4.07149e-08
2.7797e-07
-2.60664e-08
2.8817e-07
-1.16771e-08
2.99693e-07
1.95617e-09
3.19447e-07
1.21534e-08
3.05646e-07
1.23995e-08
2.20529e-07
6.32454e-08
-1.05862e-08
-3.55826e-07
3.15318e-09
-2.14668e-08
-5.61052e-07
-3.8936e-08
-6.31401e-07
-7.36006e-08
-5.10248e-07
-1.39255e-07
-3.70175e-07
-1.71544e-07
-2.36962e-07
-1.7448e-07
-8.52284e-08
-1.597e-07
3.05363e-08
-1.38856e-07
9.57974e-08
-1.16662e-07
1.27541e-07
-9.86778e-08
1.66962e-07
-8.179e-08
1.97741e-07
-6.53251e-08
2.37081e-07
-4.95819e-08
2.55959e-07
-3.50686e-08
2.67213e-07
-2.05191e-08
2.79195e-07
-6.211e-09
2.99776e-07
5.85931e-09
2.90503e-07
9.34105e-09
2.13339e-07
6.87433e-08
-1.21567e-08
-3.47713e-07
3.34561e-09
-2.50082e-08
-5.4867e-07
-4.48655e-08
-6.15077e-07
-7.69448e-08
-4.85219e-07
-1.3234e-07
-3.22817e-07
-1.63612e-07
-2.18265e-07
-1.71955e-07
-8.60974e-08
-1.6102e-07
1.25572e-08
-1.43466e-07
7.22239e-08
-1.242e-07
1.026e-07
-1.06831e-07
1.44246e-07
-9.08283e-08
1.76041e-07
-7.45098e-08
2.1439e-07
-5.86668e-08
2.34057e-07
-4.3347e-08
2.46489e-07
-2.8264e-08
2.59106e-07
-1.30391e-08
2.79777e-07
1.76845e-10
2.71818e-07
5.95781e-09
2.01784e-07
7.03311e-08
-1.3935e-08
-3.37951e-07
3.49707e-09
-2.82629e-08
-5.35326e-07
-5.07011e-08
-5.97355e-07
-8.16211e-08
-4.63588e-07
-1.26891e-07
-2.85044e-07
-1.60598e-07
-1.96226e-07
-1.72512e-07
-8.28655e-08
-1.65079e-07
-1.49803e-09
-1.50547e-07
5.1898e-08
-1.34197e-07
8.08582e-08
-1.17853e-07
1.22614e-07
-1.02161e-07
1.54723e-07
-8.52252e-08
1.91579e-07
-6.87255e-08
2.1188e-07
-5.24585e-08
2.24523e-07
-3.66848e-08
2.37171e-07
-2.04976e-08
2.57197e-07
-5.63726e-09
2.51433e-07
2.96643e-09
1.87876e-07
6.76379e-08
-1.60813e-08
-3.27164e-07
3.80293e-09
-3.49967e-08
-5.18477e-07
-6.02856e-08
-5.78728e-07
-8.98307e-08
-4.4577e-07
-1.2937e-07
-2.54531e-07
-1.65803e-07
-1.7225e-07
-1.7535e-07
-8.20666e-08
-1.70259e-07
-1.29317e-08
-1.57381e-07
3.38707e-08
-1.42436e-07
6.1365e-08
-1.2772e-07
1.03294e-07
-1.11513e-07
1.33523e-07
-9.45267e-08
1.68867e-07
-7.80106e-08
1.89395e-07
-6.16032e-08
2.02497e-07
-4.49506e-08
2.15391e-07
-2.71981e-08
2.3443e-07
-1.0628e-08
2.2985e-07
-2.84226e-10
1.72276e-07
6.16451e-08
-1.83633e-08
-3.15581e-07
4.40398e-09
-4.19391e-08
-4.99893e-07
-7.01092e-08
-5.59091e-07
-1.01621e-07
-4.27314e-07
-1.33114e-07
-2.34791e-07
-1.68578e-07
-1.50649e-07
-1.76947e-07
-8.33383e-08
-1.72682e-07
-2.34142e-08
-1.59739e-07
1.637e-08
-1.46157e-07
4.3852e-08
-1.32514e-07
8.55874e-08
-1.15726e-07
1.12025e-07
-9.94175e-08
1.46925e-07
-8.38893e-08
1.68342e-07
-6.75829e-08
1.81681e-07
-5.02089e-08
1.94126e-07
-3.15425e-08
2.11677e-07
-1.43102e-08
2.08342e-07
-2.54169e-09
1.56246e-07
5.48742e-08
-1.97306e-08
-3.02519e-07
4.87671e-09
-4.51297e-08
-4.79647e-07
-7.55229e-08
-5.37363e-07
-1.06949e-07
-4.09167e-07
-1.34163e-07
-2.21119e-07
-1.60635e-07
-1.379e-07
-1.67501e-07
-8.65221e-08
-1.64607e-07
-3.25466e-08
-1.52717e-07
-9.33241e-11
-1.41255e-07
2.86684e-08
-1.28497e-07
6.89773e-08
-1.12866e-07
9.20271e-08
-9.79061e-08
1.27004e-07
-8.32684e-08
1.49051e-07
-6.76416e-08
1.62259e-07
-5.09472e-08
1.74057e-07
-3.33763e-08
1.91065e-07
-1.69415e-08
1.89497e-07
-4.1828e-09
1.41603e-07
4.83293e-08
-2.07799e-08
-2.88444e-07
5.21031e-09
-4.65911e-08
-4.58935e-07
-7.99583e-08
-5.12984e-07
-1.13102e-07
-3.89044e-07
-1.3916e-07
-2.11244e-07
-1.5464e-07
-1.36015e-07
-1.60433e-07
-9.12433e-08
-1.58741e-07
-4.09393e-08
-1.49103e-07
-1.42921e-08
-1.39482e-07
1.49428e-08
-1.2743e-07
5.28587e-08
-1.13148e-07
7.34255e-08
-9.8704e-08
1.0792e-07
-8.3443e-08
1.29448e-07
-6.78752e-08
1.43108e-07
-5.22827e-08
1.55737e-07
-3.59043e-08
1.73056e-07
-1.94869e-08
1.72384e-07
-5.44738e-09
1.27413e-07
4.26133e-08
-2.26278e-08
-2.73827e-07
5.6489e-09
-5.02292e-08
-4.35883e-07
-8.69286e-08
-4.85175e-07
-1.22007e-07
-3.67444e-07
-1.44838e-07
-2.08431e-07
-1.53127e-07
-1.41025e-07
-1.57843e-07
-9.69593e-08
-1.5661e-07
-4.98868e-08
-1.48927e-07
-2.79842e-08
-1.40587e-07
1.42179e-09
-1.29397e-07
3.7122e-08
-1.16648e-07
5.61682e-08
-1.02489e-07
8.92837e-08
-8.66822e-08
1.09486e-07
-7.1446e-08
1.24567e-07
-5.65899e-08
1.38937e-07
-3.97705e-08
1.55661e-07
-2.16902e-08
1.54767e-07
-6.80815e-09
1.13279e-07
3.65482e-08
-2.51813e-08
-2.57122e-07
6.20777e-09
-5.75221e-08
-4.08756e-07
-9.63073e-08
-4.54717e-07
-1.27046e-07
-3.49923e-07
-1.46682e-07
-2.09195e-07
-1.52843e-07
-1.4795e-07
-1.56748e-07
-1.0313e-07
-1.55541e-07
-5.92717e-08
-1.50562e-07
-3.97986e-08
-1.43552e-07
-1.11795e-08
-1.32079e-07
2.0877e-08
-1.1996e-07
3.95927e-08
-1.06492e-07
7.15742e-08
-9.13054e-08
9.08842e-08
-7.63999e-08
1.06838e-07
-6.04916e-08
1.21277e-07
-4.21296e-08
1.36389e-07
-2.27061e-08
1.36059e-07
-7.59631e-09
9.93642e-08
2.91401e-08
-2.77302e-08
-2.37746e-07
6.65554e-09
-6.38172e-08
-3.77067e-07
-1.02885e-07
-4.23463e-07
-1.28663e-07
-3.37173e-07
-1.4736e-07
-2.09759e-07
-1.54193e-07
-1.53823e-07
-1.58159e-07
-1.10258e-07
-1.54453e-07
-7.14326e-08
-1.51124e-07
-4.97329e-08
-1.46327e-07
-2.1558e-08
-1.3508e-07
4.79474e-09
-1.22866e-07
2.37088e-08
-1.08925e-07
5.41148e-08
-9.335e-08
7.22372e-08
-7.84732e-08
8.92614e-08
-6.16309e-08
1.02255e-07
-4.24256e-08
1.16168e-07
-2.36253e-08
1.17161e-07
-8.14281e-09
8.41052e-08
2.03114e-08
-2.72605e-08
-2.18171e-07
6.3726e-09
-6.24793e-08
-3.45196e-07
-1.01229e-07
-3.90926e-07
-1.27785e-07
-3.22303e-07
-1.44275e-07
-2.11022e-07
-1.51886e-07
-1.56684e-07
-1.54142e-07
-1.16679e-07
-1.46978e-07
-8.73184e-08
-1.44909e-07
-5.89979e-08
-1.41488e-07
-3.00871e-08
-1.32849e-07
-7.07756e-09
-1.2337e-07
1.15473e-08
-1.09303e-07
3.79436e-08
-9.32162e-08
5.45925e-08
-7.79157e-08
7.23167e-08
-6.04893e-08
8.30712e-08
-4.23956e-08
9.69484e-08
-2.40867e-08
9.77126e-08
-8.87412e-09
6.6832e-08
9.004e-09
-2.20119e-08
-2.02278e-07
4.87573e-09
-5.39259e-08
-3.16796e-07
-9.08385e-08
-3.59455e-07
-1.18722e-07
-3.02671e-07
-1.3716e-07
-2.06243e-07
-1.44272e-07
-1.57081e-07
-1.43042e-07
-1.23581e-07
-1.35304e-07
-1.00978e-07
-1.32864e-07
-6.72196e-08
-1.28492e-07
-3.96452e-08
-1.23567e-07
-1.58711e-08
-1.17283e-07
3.05895e-09
-1.05205e-07
2.47531e-08
-9.01397e-08
3.92699e-08
-7.54989e-08
5.74084e-08
-5.90402e-08
6.56739e-08
-4.18406e-08
7.80002e-08
-2.30976e-08
7.65317e-08
-8.91216e-09
4.90425e-08
-3.94924e-09
-1.68754e-08
-1.89921e-07
3.64122e-09
-4.33265e-08
-2.93531e-07
-7.73027e-08
-3.29602e-07
-1.04083e-07
-2.81474e-07
-1.2398e-07
-1.95966e-07
-1.29974e-07
-1.55863e-07
-1.28572e-07
-1.27586e-07
-1.25621e-07
-1.06608e-07
-1.2273e-07
-7.31867e-08
-1.17168e-07
-4.91902e-08
-1.12833e-07
-2.42605e-08
-1.09149e-07
-4.1424e-09
-1.00301e-07
1.30851e-08
-8.81295e-08
2.57256e-08
-7.45214e-08
4.3972e-08
-5.8282e-08
4.92717e-08
-4.11211e-08
5.95339e-08
-2.24408e-08
5.56982e-08
-8.93296e-09
3.16188e-08
-1.74388e-08
-1.55619e-08
-1.7864e-07
3.76471e-09
-3.66474e-08
-2.74312e-07
-6.61355e-08
-3.04047e-07
-8.73748e-08
-2.6489e-07
-1.05316e-07
-1.85795e-07
-1.12755e-07
-1.52299e-07
-1.13838e-07
-1.2817e-07
-1.14906e-07
-1.06997e-07
-1.13868e-07
-7.58505e-08
-1.08559e-07
-5.68822e-08
-1.03712e-07
-3.27047e-08
-1.00999e-07
-1.18786e-08
-9.40539e-08
1.14726e-09
-8.36237e-08
1.21967e-08
-7.12055e-08
3.00063e-08
-5.58343e-08
3.30943e-08
-3.92306e-08
4.20393e-08
-2.22192e-08
3.72058e-08
-8.95399e-09
1.58158e-08
-2.98496e-08
-1.30913e-08
-1.69418e-07
3.63002e-09
-3.26397e-08
-2.55627e-07
-5.55441e-08
-2.84419e-07
-6.92049e-08
-2.55578e-07
-8.45954e-08
-1.76034e-07
-9.33533e-08
-1.4691e-07
-9.72396e-08
-1.26241e-07
-1.0161e-07
-1.04289e-07
-1.02724e-07
-7.66432e-08
-9.98849e-08
-6.20629e-08
-9.55384e-08
-3.98585e-08
-9.1272e-08
-2.007e-08
-8.45913e-08
-1.10341e-08
-7.62558e-08
-1.00639e-09
-6.52238e-08
1.54576e-08
-5.17957e-08
1.73909e-08
-3.68556e-08
2.56709e-08
-2.17093e-08
2.05142e-08
-8.65094e-09
9.10116e-10
-4.09109e-08
-8.31854e-09
-1.64194e-07
2.71675e-09
-2.24815e-08
-2.42073e-07
-4.2284e-08
-2.66867e-07
-5.31081e-08
-2.4908e-07
-6.49325e-08
-1.69555e-07
-7.47264e-08
-1.40836e-07
-7.9753e-08
-1.23603e-07
-8.63537e-08
-9.98391e-08
-8.82267e-08
-7.68578e-08
-8.73897e-08
-6.56971e-08
-8.41029e-08
-4.63191e-08
-7.88268e-08
-2.89029e-08
-7.1993e-08
-2.20061e-08
-6.5571e-08
-1.25428e-08
-5.68712e-08
1.87415e-09
-4.61008e-08
2.71417e-09
-3.36292e-08
1.0114e-08
-2.01814e-08
4.54979e-09
-7.89801e-09
-1.35156e-08
-5.1646e-08
-6.78684e-09
-1.59886e-07
1.88687e-09
-1.52649e-08
-2.37557e-07
-3.31746e-08
-2.50874e-07
-4.46719e-08
-2.41008e-07
-5.21838e-08
-1.67366e-07
-5.95493e-08
-1.37389e-07
-6.61214e-08
-1.20122e-07
-7.34648e-08
-9.51293e-08
-7.53518e-08
-7.73967e-08
-7.53447e-08
-6.84103e-08
-7.28919e-08
-5.19073e-08
-6.74326e-08
-3.78652e-08
-6.15876e-08
-3.18482e-08
-5.64953e-08
-2.20333e-08
-4.88839e-08
-1.06632e-08
-3.98507e-08
-1.1362e-08
-2.95089e-08
-4.95364e-09
-1.77566e-08
-1.14039e-08
-6.83025e-09
-2.85744e-08
-6.28818e-08
-5.93231e-09
-1.56285e-07
1.54089e-09
-1.23736e-08
-2.33909e-07
-2.99783e-08
-2.36311e-07
-3.90472e-08
-2.34549e-07
-4.34051e-08
-1.67852e-07
-4.81158e-08
-1.36599e-07
-5.54919e-08
-1.16055e-07
-6.18763e-08
-9.20514e-08
-6.4193e-08
-7.78755e-08
-6.45811e-08
-7.08595e-08
-6.28858e-08
-5.65961e-08
-5.82726e-08
-4.57421e-08
-5.3764e-08
-4.03719e-08
-4.90049e-08
-3.14395e-08
-4.16418e-08
-2.32382e-08
-3.39866e-08
-2.51339e-08
-2.56849e-08
-2.03744e-08
-1.56419e-08
-2.80344e-08
-6.06157e-09
-4.40239e-08
-7.51156e-08
-3.99578e-09
-1.54683e-07
9.92355e-10
-7.26899e-09
-2.2512e-07
-2.12682e-08
-2.23871e-07
-2.93999e-08
-2.29655e-07
-3.32484e-08
-1.67374e-07
-3.87423e-08
-1.35568e-07
-4.58282e-08
-1.12354e-07
-5.10961e-08
-9.03124e-08
-5.33706e-08
-7.86951e-08
-5.38772e-08
-7.33358e-08
-5.28402e-08
-6.06588e-08
-4.97964e-08
-5.22863e-08
-4.61882e-08
-4.82883e-08
-4.14706e-08
-4.13704e-08
-3.47386e-08
-3.60798e-08
-2.84969e-08
-3.8457e-08
-2.06605e-08
-3.65263e-08
-1.2152e-08
-4.4852e-08
-4.93902e-09
-5.8357e-08
-8.72357e-08
-1.43295e-09
-1.54528e-07
1.12785e-10
-8.36642e-10
-2.22334e-07
-8.62597e-09
-2.17585e-07
-1.75487e-08
-2.25868e-07
-2.3885e-08
-1.63978e-07
-2.86417e-08
-1.35658e-07
-3.43608e-08
-1.10043e-07
-3.71961e-08
-9.11163e-08
-3.94663e-08
-7.96793e-08
-4.12779e-08
-7.48584e-08
-4.09589e-08
-6.45171e-08
-3.94436e-08
-5.78624e-08
-3.63044e-08
-5.65353e-08
-3.23175e-08
-5.13141e-08
-2.70339e-08
-4.80115e-08
-2.24518e-08
-5.03046e-08
-1.51018e-08
-5.17622e-08
-8.48473e-09
-5.94519e-08
-3.81049e-09
-7.09276e-08
-9.89223e-08
-5.55464e-10
-1.54468e-07
-5.53263e-10
1.50563e-09
-2.26002e-07
-3.52818e-09
-2.14985e-07
-9.70922e-09
-2.29612e-07
-1.43896e-08
-1.63411e-07
-1.85943e-08
-1.36338e-07
-2.19844e-08
-1.10387e-07
-2.34011e-08
-9.36977e-08
-2.57852e-08
-8.09524e-08
-2.86776e-08
-7.57848e-08
-2.85741e-08
-6.8733e-08
-2.802e-08
-6.30794e-08
-2.53432e-08
-6.48403e-08
-2.25455e-08
-6.03291e-08
-1.88458e-08
-5.83159e-08
-1.53867e-08
-6.05449e-08
-9.51575e-09
-6.45714e-08
-5.29217e-09
-7.09068e-08
-2.74248e-09
-8.16761e-08
-1.10029e-07
8.81335e-11
-1.54566e-07
-1.44823e-09
2.45264e-09
-2.28216e-07
9.19393e-10
-2.16717e-07
-4.23349e-09
-2.22104e-07
-4.20475e-09
-1.7014e-07
-8.51453e-09
-1.40971e-07
-1.05265e-08
-1.13076e-07
-1.18951e-08
-9.68976e-08
-1.50609e-08
-8.22248e-08
-1.82335e-08
-7.73848e-08
-1.81218e-08
-7.37548e-08
-1.79653e-08
-6.83904e-08
-1.58454e-08
-7.27664e-08
-1.39525e-08
-6.82846e-08
-1.12244e-08
-6.72283e-08
-8.99909e-09
-6.91781e-08
-5.21152e-09
-7.52764e-08
-2.98366e-09
-8.03735e-08
-1.85357e-09
-9.08507e-08
-1.20232e-07
6.54484e-10
-1.54852e-07
-1.74872e-09
2.62732e-09
-2.31088e-07
4.85565e-09
-2.1665e-07
-4.69981e-10
-2.16727e-07
3.62523e-09
-1.7116e-07
1.57356e-09
-1.40618e-07
4.54891e-10
-1.21316e-07
-2.35319e-09
-1.01572e-07
-6.54326e-09
-8.40273e-08
-9.61606e-09
-8.04276e-08
-9.62181e-09
-7.97567e-08
-9.9504e-09
-7.40097e-08
-8.61473e-09
-8.03604e-08
-7.35964e-09
-7.56795e-08
-5.41945e-09
-7.54099e-08
-4.1855e-09
-7.70266e-08
-2.39757e-09
-8.47068e-08
-1.68801e-09
-8.8921e-08
-1.40917e-09
-9.91768e-08
-1.29976e-07
9.3523e-10
-1.56992e-07
-7.95391e-10
3.36642e-09
-2.35861e-07
1.10636e-08
-2.21223e-07
5.4179e-09
-2.10401e-07
9.56471e-09
-1.74088e-07
1.07225e-08
-1.38743e-07
1.16042e-08
-1.22784e-07
8.46547e-09
-1.07251e-07
3.30685e-09
-8.77808e-08
5.58517e-10
-8.57679e-08
-4.27987e-10
-8.6268e-08
-7.75815e-10
-8.05576e-08
-7.79265e-10
-8.7488e-08
-5.46819e-10
-8.26516e-08
-1.86728e-10
-8.25609e-08
3.04416e-10
-8.43569e-08
9.29628e-11
-9.24153e-08
1.8656e-10
-9.71769e-08
-5.75447e-10
-1.06706e-07
-1.39328e-07
9.89281e-10
-1.59271e-07
-5.24449e-11
2.98974e-09
-2.3886e-07
1.52594e-08
-2.29637e-07
1.14683e-08
-2.05595e-07
1.61305e-08
-1.7805e-07
1.94859e-08
-1.40393e-07
2.20354e-08
-1.24569e-07
2.05749e-08
-1.06386e-07
1.6886e-08
-8.83239e-08
1.42837e-08
-9.0193e-08
1.21058e-08
-9.20306e-08
1.0723e-08
-8.70435e-08
8.69586e-09
-9.37562e-08
7.34819e-09
-8.91438e-08
6.3459e-09
-8.85085e-08
5.31511e-09
-8.93774e-08
4.04736e-09
-9.69982e-08
2.8782e-09
-1.02434e-07
9.80414e-10
-1.12591e-07
-1.48024e-07
2.17519e-10
-1.60586e-07
6.17066e-10
1.48655e-09
-2.42442e-07
1.76077e-08
-2.43004e-07
1.71931e-08
-2.04208e-07
2.29158e-08
-1.83853e-07
2.7899e-08
-1.45163e-07
3.28526e-08
-1.29498e-07
3.24908e-08
-1.07525e-07
3.09656e-08
-8.95021e-08
2.95535e-08
-9.25386e-08
2.66461e-08
-9.38658e-08
2.41467e-08
-9.02912e-08
2.02245e-08
-9.61418e-08
1.7274e-08
-9.25454e-08
1.50627e-08
-9.26991e-08
1.18642e-08
-9.25654e-08
8.58622e-09
-9.96368e-08
5.43199e-09
-1.05158e-07
2.1377e-09
-1.15564e-07
-1.53036e-07
-9.30313e-10
-1.61119e-07
9.81496e-10
-2.09196e-10
-2.46756e-07
1.82531e-08
-2.62096e-07
2.37248e-08
-2.08536e-07
3.14219e-08
-1.91011e-07
3.8974e-08
-1.52509e-07
4.53464e-08
-1.35889e-07
4.71563e-08
-1.10948e-07
4.72103e-08
-9.12074e-08
4.53901e-08
-9.25903e-08
4.15214e-08
-9.18231e-08
3.83048e-08
-8.90272e-08
3.31974e-08
-9.34527e-08
2.85765e-08
-9.04181e-08
2.45651e-08
-9.14402e-08
1.96066e-08
-9.08981e-08
1.42335e-08
-9.8027e-08
9.09355e-09
-1.03315e-07
4.13399e-09
-1.12841e-07
-1.51085e-07
-1.50478e-09
-1.60955e-07
1.38296e-09
-5.29811e-10
-2.53366e-07
1.65504e-08
-2.8187e-07
3.2999e-08
-2.24458e-07
4.31376e-08
-2.01178e-07
5.50592e-08
-1.62744e-07
6.30933e-08
-1.43648e-07
6.68111e-08
-1.14676e-07
6.68065e-08
-9.12902e-08
6.36822e-08
-8.96293e-08
5.80878e-08
-8.631e-08
5.36668e-08
-8.48044e-08
4.7861e-08
-8.82281e-08
4.18728e-08
-8.53147e-08
3.58421e-08
-8.66051e-08
2.90979e-08
-8.54651e-08
2.16978e-08
-9.1921e-08
1.42348e-08
-9.7086e-08
7.1282e-09
-1.0665e-07
-1.44611e-07
-1.31388e-09
-1.59968e-07
1.48767e-09
-3.03327e-10
-2.56922e-07
1.66931e-08
-3.03412e-07
4.88228e-08
-2.5469e-07
6.00448e-08
-2.11736e-07
7.52605e-08
-1.74308e-07
8.35825e-08
-1.50123e-07
8.70886e-08
-1.17443e-07
8.71052e-08
-9.02027e-08
8.33101e-08
-8.41831e-08
7.65202e-08
-7.77115e-08
7.0482e-08
-7.6951e-08
6.33956e-08
-7.94775e-08
5.56553e-08
-7.59633e-08
4.75577e-08
-7.70876e-08
3.8742e-08
-7.53426e-08
2.93938e-08
-8.13673e-08
1.9545e-08
-8.61049e-08
1.01222e-08
-9.58209e-08
-1.33217e-07
-6.858e-10
-1.58301e-07
1.77229e-09
2.90236e-09
-2.60845e-07
1.74881e-08
-3.24174e-07
5.9097e-08
-2.93018e-07
7.75134e-08
-2.28913e-07
9.58821e-08
-1.87295e-07
1.03592e-07
-1.52697e-07
1.05669e-07
-1.16533e-07
1.05701e-07
-8.67386e-08
1.01327e-07
-7.53233e-08
9.42012e-08
-6.58708e-08
8.66592e-08
-6.45457e-08
7.81488e-08
-6.59604e-08
6.89282e-08
-6.17257e-08
5.92387e-08
-6.25229e-08
4.86159e-08
-6.00113e-08
3.71819e-08
-6.52524e-08
2.53581e-08
-6.9657e-08
1.32768e-08
-7.85719e-08
-1.14473e-07
3.00412e-10
-1.58484e-07
2.15706e-09
9.35635e-09
-2.67608e-07
2.54041e-08
-3.42233e-07
6.85014e-08
-3.36322e-07
9.7454e-08
-2.53493e-07
1.17854e-07
-2.02153e-07
1.278e-07
-1.51966e-07
1.28373e-07
-1.10498e-07
1.2618e-07
-7.89872e-08
1.19898e-07
-6.2855e-08
1.1236e-07
-5.23663e-08
1.03933e-07
-4.9877e-08
9.34582e-08
-4.85724e-08
8.2754e-08
-4.38567e-08
7.09034e-08
-4.35782e-08
5.86869e-08
-4.06128e-08
4.49132e-08
-4.40734e-08
3.08563e-08
-4.80376e-08
1.64174e-08
-5.6463e-08
-9.05143e-08
4.89382e-09
-1.64634e-07
1.19965e-09
2.32254e-08
-2.82295e-07
4.58562e-08
-3.6194e-07
8.99938e-08
-3.77922e-07
1.29767e-07
-2.82586e-07
1.52509e-07
-2.16005e-07
1.63726e-07
-1.48608e-07
1.62434e-07
-9.76513e-08
1.54798e-07
-6.35818e-08
1.44163e-07
-4.52276e-08
1.33456e-07
-3.51494e-08
1.22707e-07
-3.22228e-08
1.10149e-07
-2.82854e-08
9.75693e-08
-2.32058e-08
8.2721e-08
-2.0214e-08
6.82455e-08
-1.66184e-08
5.21164e-08
-1.78386e-08
3.63943e-08
-2.24972e-08
2.00096e-08
-3.02489e-08
-6.24239e-08
1.38317e-08
-1.72629e-07
-2.2424e-09
4.22142e-08
-3.05439e-07
7.22274e-08
-3.82522e-07
1.07209e-07
-4.00079e-07
1.69731e-07
-3.26929e-07
1.97469e-07
-2.28916e-07
2.0745e-07
-1.38082e-07
2.04045e-07
-7.58639e-08
1.91813e-07
-4.005e-08
1.75859e-07
-2.0273e-08
1.60412e-07
-1.14661e-08
1.45561e-07
-8.79764e-09
1.28718e-07
-2.3223e-09
1.12635e-07
2.57714e-09
9.49886e-08
8.05771e-09
7.80994e-08
1.17052e-08
6.04138e-08
1.23203e-08
4.189e-08
8.18575e-09
2.25175e-08
1.36424e-10
-2.95852e-08
1.59485e-08
-1.79836e-07
-5.94171e-09
3.38085e-08
-3.1406e-07
6.15635e-08
-3.91962e-07
9.75524e-08
-4.12792e-07
1.80321e-07
-3.91006e-07
2.31703e-07
-2.5461e-07
2.42356e-07
-1.26054e-07
2.41226e-07
-5.0131e-08
2.2865e-07
-1.01026e-08
2.08869e-07
1.27843e-08
1.8752e-07
2.1111e-08
1.67781e-07
2.25068e-08
1.4697e-07
3.02814e-08
1.27104e-07
3.43583e-08
1.06631e-07
3.99586e-08
8.72824e-08
4.2816e-08
6.68413e-08
4.63642e-08
4.65105e-08
4.37151e-08
2.41099e-08
3.63229e-08
7.91336e-09
1.12578e-08
-1.8465e-07
-3.21957e-09
1.63082e-08
-3.12791e-07
2.21884e-08
-3.93819e-07
4.92224e-08
-4.30997e-07
1.20842e-07
-4.42963e-07
2.12384e-07
-3.1733e-07
2.48196e-07
-1.35596e-07
2.52585e-07
-2.96817e-08
2.45849e-07
1.83424e-08
2.27749e-07
4.64033e-08
2.06114e-07
5.44457e-08
1.83864e-07
5.51177e-08
1.60753e-07
6.25337e-08
1.38041e-07
6.51958e-08
1.15531e-07
7.07894e-08
9.38792e-08
7.53103e-08
7.21591e-08
8.18554e-08
4.98622e-08
7.99771e-08
2.52431e-08
7.27945e-08
4.87059e-08
5.05336e-09
-1.87398e-07
-1.2926e-09
5.80756e-09
-3.14431e-07
7.39342e-09
-3.92936e-07
1.65433e-08
-4.39532e-07
5.21963e-08
-4.67062e-07
1.53859e-07
-4.03017e-07
2.2028e-07
-1.75129e-07
2.41098e-07
-3.04754e-08
2.40809e-07
3.44028e-08
2.30039e-07
7.04792e-08
2.12564e-07
8.22774e-08
1.89675e-07
8.4637e-08
1.66313e-07
9.29138e-08
1.4291e-07
9.71832e-08
1.19601e-07
1.03104e-07
9.76808e-08
1.07778e-07
7.48857e-08
1.16734e-07
5.11991e-08
1.15905e-07
2.65239e-08
1.09147e-07
8.85254e-08
2.10642e-09
-1.86478e-07
-7.07073e-10
1.81783e-09
-3.10656e-07
2.04573e-09
-3.92519e-07
5.4337e-09
-4.46432e-07
2.0394e-08
-4.85872e-07
1.00221e-07
-4.71563e-07
1.97523e-07
-2.46771e-07
2.30993e-07
-4.42687e-08
2.3362e-07
4.87609e-08
2.27095e-07
9.13192e-08
2.1037e-07
1.08935e-07
1.88718e-07
1.15455e-07
1.66585e-07
1.25412e-07
1.44178e-07
1.28817e-07
1.21631e-07
1.34977e-07
9.99234e-08
1.38797e-07
7.57094e-08
1.50493e-07
5.08469e-08
1.50575e-07
2.66489e-08
1.45991e-07
1.2941e-07
-2.936e-10
-1.83469e-07
5.62124e-11
1.13591e-09
-3.0903e-07
6.50701e-09
-3.99037e-07
1.93664e-08
-4.63646e-07
2.91999e-08
-5.00041e-07
7.15004e-08
-4.99254e-07
1.86377e-07
-3.42403e-07
2.31463e-07
-5.97261e-08
2.33573e-07
6.53215e-08
2.25487e-07
1.14382e-07
2.09552e-07
1.38079e-07
1.9061e-07
1.46968e-07
1.69934e-07
1.58304e-07
1.48195e-07
1.60449e-07
1.26589e-07
1.66889e-07
1.03091e-07
1.70435e-07
7.73977e-08
1.83852e-07
5.19867e-08
1.85048e-07
2.74204e-08
1.82775e-07
1.70602e-07
-3.09416e-09
-1.76614e-07
8.28625e-10
-3.93425e-09
-3.01285e-07
3.24605e-09
-3.99996e-07
2.54574e-08
-4.78665e-07
4.40505e-08
-5.05408e-07
6.09505e-08
-5.06648e-07
1.71752e-07
-4.36504e-07
2.24473e-07
-7.45205e-08
2.34037e-07
7.96796e-08
2.2403e-07
1.41248e-07
2.08863e-07
1.6915e-07
1.90917e-07
1.79549e-07
1.70177e-07
1.91849e-07
1.49927e-07
1.91849e-07
1.2863e-07
1.98256e-07
1.05083e-07
2.01971e-07
7.91183e-08
2.17066e-07
5.35789e-08
2.19346e-07
2.83474e-08
2.18896e-07
2.11089e-07
-4.09343e-09
-1.71785e-07
7.44679e-10
-1.04304e-08
-2.913e-07
-1.49012e-08
-3.88316e-07
-6.53413e-09
-4.69832e-07
1.61464e-08
-5.02598e-07
4.83397e-08
-5.2096e-07
1.11003e-07
-4.74368e-07
1.8365e-07
-1.17394e-07
2.0775e-07
8.20289e-08
2.05413e-07
1.65129e-07
1.95468e-07
1.96027e-07
1.80121e-07
2.09533e-07
1.61367e-07
2.23421e-07
1.42416e-07
2.21871e-07
1.22692e-07
2.26951e-07
1.00692e-07
2.31416e-07
7.72874e-08
2.48292e-07
5.28512e-08
2.51991e-07
2.80364e-08
2.52983e-07
2.49495e-07
-1.39756e-09
-1.70024e-07
4.44287e-10
-3.05346e-09
-2.88213e-07
-6.01597e-09
-3.82072e-07
-1.69769e-08
-4.52536e-07
-1.15552e-08
-5.01439e-07
1.14897e-08
-5.29076e-07
4.48501e-08
-4.87177e-07
1.35747e-07
-1.86628e-07
1.591e-07
8.30672e-08
1.64583e-07
1.76035e-07
1.60504e-07
2.1307e-07
1.5053e-07
2.3121e-07
1.37518e-07
2.46918e-07
1.22058e-07
2.46353e-07
1.0596e-07
2.50794e-07
8.7885e-08
2.56975e-07
6.89483e-08
2.74781e-07
4.77091e-08
2.802e-07
2.56215e-08
2.82448e-07
2.83254e-07
-2.5344e-09
-1.68208e-07
8.90493e-10
-3.88565e-09
-2.87022e-07
-3.15398e-09
-3.83405e-07
-1.38275e-09
-4.50902e-07
-6.9893e-10
-4.94955e-07
-8.4447e-09
-5.11758e-07
2.48813e-09
-4.93301e-07
7.04331e-08
-2.45877e-07
9.23091e-08
7.79201e-08
1.06348e-07
1.65528e-07
1.05552e-07
2.19875e-07
1.03822e-07
2.41312e-07
9.81435e-08
2.62017e-07
8.87148e-08
2.62696e-07
7.88244e-08
2.66193e-07
6.68969e-08
2.7431e-07
5.31331e-08
2.93769e-07
3.76477e-08
3.00236e-07
2.04447e-08
3.0433e-07
3.0875e-07
-3.02631e-09
-1.66303e-07
1.01251e-09
-6.63763e-09
-2.83638e-07
-8.00134e-09
-3.80876e-07
-1.70631e-09
-4.54163e-07
3.40532e-10
-4.91308e-07
-5.18252e-09
-5.03188e-07
-1.96588e-08
-4.78153e-07
1.21201e-08
-2.71324e-07
3.43922e-08
5.56794e-08
3.95473e-08
1.64383e-07
4.54258e-08
2.20562e-07
5.08045e-08
2.40582e-07
5.04016e-08
2.68785e-07
4.68748e-08
2.68043e-07
4.26576e-08
2.70771e-07
3.79789e-08
2.79609e-07
3.19103e-08
3.01158e-07
2.35187e-08
3.09591e-07
1.32575e-08
3.15467e-07
3.22947e-07
-3.82855e-09
-1.63526e-07
1.1267e-09
-7.85911e-09
-2.79792e-07
-1.04998e-08
-3.77773e-07
-9.7028e-09
-4.50917e-07
-9.44655e-09
-4.8648e-07
-8.89519e-09
-5.01691e-07
-2.47266e-08
-4.60354e-07
-3.47512e-08
-2.58969e-07
-2.51007e-08
4.27938e-08
-2.22806e-08
1.65691e-07
-9.91341e-09
2.05694e-07
-5.63993e-09
2.4017e-07
1.59596e-09
2.60142e-07
4.81604e-10
2.61938e-07
3.74032e-09
2.63983e-07
4.22782e-09
2.74773e-07
7.1991e-09
2.94486e-07
5.86871e-09
3.07134e-07
4.49951e-09
3.12561e-07
3.23833e-07
-4.28909e-09
-1.61078e-07
1.08283e-09
-9.4322e-09
-2.75587e-07
-1.47867e-08
-3.74121e-07
-2.06212e-08
-4.423e-07
-2.38533e-08
-4.75395e-07
-3.02086e-08
-4.90616e-07
-5.15745e-08
-4.39398e-07
-8.72908e-08
-2.25887e-07
-9.64142e-08
3.94515e-08
-8.67668e-08
1.54024e-07
-7.60287e-08
1.91042e-07
-6.20968e-08
2.19687e-07
-4.95693e-08
2.446e-07
-4.11623e-08
2.46736e-07
-3.28659e-08
2.50338e-07
-2.52261e-08
2.62779e-07
-1.69021e-08
2.83499e-07
-9.95737e-09
2.97447e-07
-4.13279e-09
3.03283e-07
3.15272e-07
-5.54974e-09
-1.58381e-07
1.40357e-09
-1.27143e-08
-2.70596e-07
-2.19217e-08
-3.6563e-07
-3.02367e-08
-4.30237e-07
-4.13092e-08
-4.65301e-07
-6.34743e-08
-4.72584e-07
-9.75148e-08
-4.15638e-07
-1.44258e-07
-1.90025e-07
-1.64478e-07
3.39653e-08
-1.49491e-07
1.27229e-07
-1.34818e-07
1.69973e-07
-1.19307e-07
1.94406e-07
-1.01505e-07
2.16178e-07
-8.58214e-08
2.21621e-07
-6.93844e-08
2.28655e-07
-5.40429e-08
2.43634e-07
-3.96825e-08
2.64636e-07
-2.51739e-08
2.76961e-07
-1.27044e-08
2.84103e-07
2.95406e-07
-8.78402e-09
-1.54045e-07
2.11489e-09
-1.94734e-08
-2.63743e-07
-3.33209e-08
-3.54846e-07
-4.91677e-08
-4.15281e-07
-6.9507e-08
-4.4943e-07
-1.00935e-07
-4.53366e-07
-1.46117e-07
-3.86797e-07