/*--------------------------------*- C++ -*----------------------------------*\
| =========                 |                                                 |
| \\      /  F ield         | OpenFOAM: The Open Source CFD Toolbox           |
|  \\    /   O peration     | Version:  2212                                  |
|   \\  /    A nd           | Website:  www.openfoam.com                      |
|    \\/     M anipulation  |                                                 |
\*---------------------------------------------------------------------------*/
FoamFile
{
    version     2.0;
    format      ascii;
    arch        "LSB;label=32;scalar=64";
    class       volVectorField;
    location    "0.0312";
    object      U;
}
// * * * * * * * * * * * * * * * * * * * * * * * * * * * * * * * * * * * * * //

dimensions      [0 1 -1 0 0 0 0];

internalField   nonuniform List<vector> 
2308
(
(20.5138 -12.4468 -7.4475e-16)
(-9.68794 -18.5674 0)
(2.51071 -20.3749 6.17687e-17)
(-17.3611 -50.8411 -2.29699e-16)
(-6.21153 49.2456 0)
(-19.9667 46.7798 1.06409e-18)
(11.16 52.4929 5.09781e-20)
(12.5973 41.3346 -3.32966e-16)
(-0.832269 44.3891 6.17522e-16)
(4.13426 63.0522 -6.7737e-17)
(4.68758 71.2118 1.22096e-16)
(1.91379 81.7203 -1.84101e-16)
(1.81099 89.1229 9.06964e-17)
(0.408855 93.2739 -4.64188e-17)
(-0.535156 95.1394 8.0109e-18)
(-1.87064 95.9304 6.76034e-17)
(-3.10844 95.0988 9.29797e-18)
(-2.30599 94.7055 2.13175e-17)
(-2.07898 96.9286 2.85518e-17)
(-2.18975 97.3166 2.05026e-18)
(-2.42023 96.655 1.53401e-17)
(-2.46585 94.9329 -4.47416e-17)
(-3.02583 90.4756 5.75871e-17)
(-2.30838 82.5074 -2.59965e-17)
(-3.43287 74.438 -1.11315e-16)
(-5.27729 65.401 -5.23737e-17)
(-2.45024 55.848 2.63251e-17)
(-1.94527 46.8224 -2.8628e-17)
(4.97627 63.4952 0)
(-4.15996 92.7845 -1.97629e-16)
(-1.53411 37.5144 1.50122e-18)
(-1.11979 30.0191 3.79154e-19)
(-0.769892 24.078 -6.38763e-18)
(-0.517634 19.3167 5.9785e-18)
(-0.290539 15.8239 -6.23545e-18)
(-0.100752 13.2536 5.82169e-18)
(0.0517606 11.3249 -2.84926e-18)
(0.160172 9.81847 2.82277e-18)
(0.226368 8.57788 -2.76318e-18)
(0.257049 7.50158 1.37579e-18)
(0.269282 6.53505 2.69202e-18)
(0.263122 5.61475 3.96914e-18)
(0.261825 5.38179 -7.82551e-18)
(0.0527826 2.82875 5.15201e-18)
(0.136349 4.79063 2.52479e-18)
(1.69856 4.75702 -2.53948e-18)
(1.61368 2.84225 2.5736e-18)
(1.70907 5.29964 -3.92288e-18)
(1.75348 5.58236 -4.32661e-18)
(1.8065 6.47744 6.72312e-18)
(1.91375 7.4156 -1.36583e-18)
(2.0874 8.46127 2.78832e-18)
(2.33005 9.67772 7.20679e-19)
(2.64775 11.1382 -4.29098e-18)
(3.07566 12.9862 -1.46452e-18)
(3.65977 15.3898 2.94585e-18)
(4.47529 18.5641 0)
(5.52872 22.8319 -3.76598e-19)
(6.72559 28.1277 -1.2604e-17)
(7.6969 34.8134 -4.40188e-17)
(8.52766 43.226 5.2586e-17)
(9.17782 51.1065 5.54696e-17)
(12.2962 56.3069 6.40956e-17)
(10.9993 64.0278 1.98641e-19)
(10.5467 69.4931 7.32703e-17)
(7.96445 75.5142 -1.37977e-16)
(5.32347 81.9795 -3.19542e-17)
(3.10338 86.3295 0)
(0.37486 88.2495 0)
(-2.30802 88.337 0)
(-4.55382 87.5626 0)
(-0.124223 -0.67851 -1.25501e-18)
(1.42995 -0.682932 1.251e-18)
(-1.37307 91.5173 -9.8054e-17)
(-2.81361 92.6151 -1.96361e-18)
(-4.28888 92.1324 7.58618e-18)
(-5.41275 90.2257 0)
(-7.12303 85.6412 -1.41917e-17)
(-8.84242 78.9027 -1.37605e-17)
(-10.5209 70.5436 6.8086e-18)
(-12.3527 62.0246 2.69543e-17)
(-12.0759 53.468 0)
(-11.4847 44.6857 -1.53114e-20)
(-10.5745 36.1827 4.79343e-20)
(-9.01698 28.9582 -6.12459e-18)
(-7.2436 23.2183 9.0602e-18)
(-5.66843 18.6228 -3.10753e-20)
(-4.3885 15.2621 -5.17106e-18)
(-3.39919 12.8137 0)
(-2.66677 10.9955 -7.15183e-19)
(-2.13527 9.59088 4.21636e-18)
(-1.75777 8.4412 -5.54621e-18)
(-1.51645 7.43932 1.13304e-20)
(-1.38948 6.54547 5.38747e-18)
(-1.3706 5.65333 0)
(-1.34657 5.57059 5.2171e-18)
(-1.65635 2.97028 -2.23239e-21)
(-1.6776 4.94828 -2.53339e-18)
(-2.08965 91.2306 -8.56705e-17)
(-2.08512 -0.362332 -2.49376e-18)
(-4.55602 89.2977 8.73661e-17)
(-6.35712 85.9447 3.19016e-19)
(2.63275 -0.708175 -2.51469e-18)
(3.00419 4.60219 3.17807e-18)
(2.93765 2.87572 0)
(2.98477 5.26383 -9.89942e-19)
(3.06096 5.53474 2.3263e-18)
(3.16002 6.36354 2.71565e-18)
(3.36507 7.19907 -2.74425e-18)
(3.70571 8.13078 0)
(4.20373 9.21471 -7.07217e-19)
(4.87983 10.5135 1.43983e-18)
(5.79282 12.1257 3.23318e-21)
(7.03738 14.1542 -1.47994e-18)
(8.71592 16.7533 0)
(10.8693 20.1541 2.2948e-18)
(13.3708 24.3265 -9.2249e-18)
(15.6358 29.5272 -6.25331e-18)
(17.2901 35.9499 2.57728e-17)
(18.4379 42.3329 9.7087e-17)
(19.474 47.1703 7.38753e-18)
(18.047 52.923 7.13717e-17)
(15.736 57.8011 -3.26367e-17)
(12.0535 62.9206 0)
(8.13426 68.1325 0)
(4.66515 72.231 0)
(0.884283 74.0813 1.12975e-16)
(-3.16972 73.9464 -1.32757e-16)
(-6.78086 73.425 1.36876e-16)
(17.8719 27.949 -2.6837e-16)
(-26.7338 30.885 0)
(-19.0211 53.7584 0)
(-22.4984 43.3804 0)
(2.53905 76.7998 1.9881e-16)
(0.190666 79.1985 5.54553e-17)
(-2.84677 80.017 -1.91049e-20)
(-5.97117 79.6129 -9.21634e-19)
(-8.76124 77.7586 9.04178e-19)
(-11.8616 73.6856 7.06371e-18)
(-14.858 67.9863 -1.38793e-17)
(-17.6298 60.5494 -2.65651e-20)
(-20.183 53.1384 0)
(-20.9041 45.7946 2.93816e-17)
(-20.438 38.2655 1.90441e-17)
(-18.8155 31.0918 -3.11467e-18)
(-16.1565 25.0249 3.06862e-18)
(-13.077 20.3318 0)
(-10.3158 16.5536 0)
(-8.09929 13.7556 -3.68835e-19)
(-6.42085 11.7109 0)
(-5.17897 10.1981 2.14955e-18)
(-4.27398 9.03194 -3.7072e-21)
(-3.63594 8.07977 -1.39452e-18)
(-3.2253 7.25395 0)
(-3.0147 6.53021 -1.34506e-18)
(-2.98413 5.69861 1.99249e-18)
(-2.92549 5.80395 -3.26766e-18)
(-3.25807 3.27437 0)
(-3.3674 5.26389 -5.06612e-18)
(-3.8093 0.207739 1.2481e-18)
(-4.23455 3.98839 -1.33364e-21)
(-2.47305 2.80612 0)
(-0.187158 2.50685 -6.15395e-19)
(1.67552 3.07251 -1.9933e-18)
(8.54046 45.4554 2.92133e-16)
(3.10712 3.18606 1.54082e-19)
(21.2662 15.2729 -8.48203e-16)
(24.7515 -3.8919 -1.9622e-16)
(-7.70049 83.9241 0)
(13.7004 26.6134 2.85801e-16)
(-0.701487 53.5579 -5.83072e-16)
(-1.44882 87.45 3.5901e-17)
(-10.0113 72.4639 -2.09021e-16)
(-5.81232 -3.28486 -1.21224e-18)
(-3.4831 -3.35922 -1.21434e-18)
(-0.25858 -3.01603 -1.51481e-19)
(1.91055 -2.53987 2.4298e-18)
(2.93194 -2.72034 1.51611e-19)
(4.04629 -3.3411 0)
(4.41833 2.9089 1.23998e-18)
(3.76833 -0.711802 2.52167e-18)
(4.13541 4.47017 -6.32156e-19)
(4.03911 2.97681 -2.59511e-18)
(4.09509 5.27904 -2.9683e-18)
(4.17729 5.50249 4.01453e-18)
(4.30669 6.22724 1.36747e-18)
(4.57282 6.90174 -2.76824e-18)
(5.02899 7.64709 2.10614e-18)
(5.70521 8.50959 -6.22337e-19)
(6.65197 9.53706 0)
(7.94496 10.7826 0)
(9.69218 12.2913 0)
(12.0234 14.1247 3.03456e-18)
(15.0102 16.3894 -1.53346e-18)
(18.5555 19.0441 1.67466e-20)
(21.973 22.2985 -1.27396e-17)
(24.5323 26.4229 0)
(26.0159 30.8731 -1.37379e-17)
(26.257 34.6161 1.44448e-17)
(24.3048 38.4633 3.00073e-17)
(20.9579 42.0845 1.5555e-17)
(16.2671 45.8277 6.25243e-17)
(10.8592 49.609 -6.29349e-17)
(5.65716 52.9189 0)
(0.747474 54.6674 1.59444e-17)
(-4.37104 54.6662 -3.23256e-17)
(-9.26968 54.5551 -6.62444e-17)
(7.80044 65.0229 3.2782e-17)
(13.7273 -6.63187 0)
(-11.2566 51.0254 -9.28425e-19)
(18.269 26.7399 3.67574e-16)
(17.0795 32.1061 -7.77898e-17)
(15.6381 38.2227 8.74786e-17)
(13.8754 43.7166 -1.6405e-17)
(11.3484 49.1244 3.18819e-17)
(8.23602 53.4105 -1.53213e-17)
(4.60127 58.4627 0)
(0.855044 61.0081 -1.45213e-17)
(-3.15802 61.6375 -1.45548e-17)
(-7.48269 61.3838 0)
(-11.6854 59.7983 0)
(-16.0054 56.5402 8.81356e-19)
(-20.1308 51.7867 -7.75623e-18)
(-23.8876 45.8058 0)
(-27.0128 39.8992 0)
(-28.2528 34.105 -9.8176e-18)
(-27.6878 28.4632 -6.39272e-18)
(-25.2596 23.3193 1.25661e-17)
(-21.6129 19.1579 3.09647e-18)
(-17.5195 16.0189 7.63087e-19)
(-13.9182 13.4657 2.9986e-18)
(-11.0561 11.5193 -3.34588e-18)
(-8.8908 10.0824 0)
(-7.27423 9.02007 -1.43852e-18)
(-6.09059 8.20901 0)
(-5.26106 7.54952 0)
(-4.7358 6.98546 0)
(-4.47018 6.50224 -5.41877e-18)
(-4.45038 5.76319 0)
(-4.38522 6.06727 -2.94586e-18)
(-4.70826 3.64407 4.83251e-19)
(-4.80378 5.62107 9.98466e-18)
(-5.21138 0.683111 0)
(-5.41787 4.91072 -4.91755e-18)
(-6.68382 -3.32386 7.57623e-20)
(-2.38652 -17.4753 0)
(17.8193 21.4253 4.65814e-16)
(-15.9109 -22.2341 8.22536e-16)
(-11.6634 -53.5053 0)
(4.11079 -29.4332 -2.70916e-16)
(23.3302 3.79515 9.75275e-16)
(-12.3372 71.5458 -5.38525e-19)
(2.94673 76.067 6.90652e-17)
(5.69442 -3.91706 -1.52945e-19)
(5.68267 2.63236 -1.24001e-18)
(4.83531 -0.716401 1.26512e-18)
(5.1427 4.35458 0)
(4.91285 3.08368 0)
(4.99996 5.30315 1.65757e-19)
(5.04267 5.48773 -6.71846e-19)
(5.17617 6.08362 -2.38839e-18)
(5.46438 6.56617 1.7266e-19)
(5.97386 7.07183 -3.63591e-19)
(6.76009 7.64833 -4.39539e-19)
(7.87836 8.32777 2.0008e-18)
(9.40114 9.11936 1.88655e-19)
(11.4481 10.0237 -1.49748e-18)
(14.1509 11.0164 0)
(17.5958 12.0837 6.18781e-18)
(21.7256 13.1214 1.20018e-20)
(25.9471 14.278 3.21644e-17)
(29.3802 15.878 -2.63703e-17)
(31.2735 17.8913 0)
(31.3276 19.7556 2.82754e-17)
(29.0623 21.6693 -8.80274e-17)
(25.046 23.8333 4.52605e-17)
(19.6393 25.8993 6.07304e-17)
(13.3847 28.2438 -2.68688e-19)
(6.78601 30.4456 -6.19325e-17)
(0.620356 31.7658 6.24852e-17)
(-5.40231 32.0318 6.35109e-17)
(-11.2897 32.1543 -6.41748e-17)
(-13.6232 54.6871 -1.33258e-16)
(8.4477 29.4488 -7.19943e-19)
(26.3135 -22.1487 -6.23203e-19)
(22.0271 12.5257 -6.50266e-17)
(20.9653 16.2516 -8.4923e-18)
(19.4067 20.7282 -2.49411e-17)
(17.2563 25.246 -8.04723e-18)
(14.2392 29.3608 0)
(10.5433 32.9271 1.52587e-17)
(6.20525 36.1865 -7.43475e-18)
(1.4471 38.3499 -7.31705e-18)
(-3.57394 38.9954 3.64207e-18)
(-8.95407 38.8934 3.60066e-18)
(-14.3453 37.6737 7.11157e-18)
(-19.7281 35.314 0)
(-24.7425 31.8883 6.88237e-18)
(-29.0528 27.7804 -6.66607e-18)
(-32.2718 23.7829 -1.03829e-19)
(-33.5242 20.2144 -1.96472e-17)
(-32.505 16.9922 1.60804e-18)
(-29.2388 14.4208 -7.89416e-18)
(-24.8132 12.5359 0)
(-20.171 11.1232 -2.4833e-18)
(-16.182 9.89044 1.95983e-19)
(-13.0304 8.8855 3.35335e-18)
(-10.6207 8.13637 0)
(-8.80459 7.59758 0)
(-7.46817 7.20946 -8.87265e-20)
(-6.53882 6.91769 -2.7177e-18)
(-5.96 6.68258 2.76532e-18)
(-5.67518 6.48258 3.39197e-18)
(-5.66694 5.88555 -6.67905e-19)
(-5.60682 6.35402 1.96569e-18)
(-5.88993 4.0211 -6.43985e-19)
(-5.94936 5.96366 -5.07455e-18)
(-6.24774 1.05895 5.00942e-18)
(-6.13548 5.39628 1.10579e-17)
(-6.96873 -3.30704 4.83618e-18)
(-5.51971 5.28085 0)
(-5.32542 3.81779 -2.43937e-18)
(-4.23771 1.16542 1.07268e-20)
(-2.63179 -2.14568 2.67243e-18)
(-0.475445 -2.00365 8.93004e-19)
(1.2242 0.716174 -1.19035e-18)
(2.85455 2.14307 2.39134e-18)
(4.45219 1.73209 -2.3851e-18)
(6.1212 1.37714 -1.20031e-18)
(-10.8351 -22.3958 -3.09175e-16)
(-2.24488 -18.0252 -7.90275e-17)
(3.15068 -5.03363 -1.61184e-16)
(20.4195 11.1142 -4.77721e-16)
(20.5857 -6.45295 -2.47939e-16)
(-0.322392 -5.48973 9.80271e-17)
(-16.7272 32.9399 0)
(-16.8382 54.5465 2.68738e-16)
(12.0242 21.2022 7.05892e-16)
(18.1311 13.7313 2.88695e-16)
(14.9262 -0.224653 -3.03443e-16)
(-6.66092 58.7469 5.90512e-16)
(23.8445 -1.84359 0)
(22.8641 -0.045805 8.3571e-18)
(21.3458 2.33418 -2.03419e-18)
(19.0937 5.11025 -3.76048e-17)
(15.9574 7.68792 7.74993e-18)
(11.9778 9.89252 0)
(7.17134 11.8308 1.29138e-20)
(1.79672 13.2059 -1.83269e-18)
(-4.02043 13.7629 0)
(-10.311 13.8236 -3.5863e-18)
(-16.6611 13.2944 -3.53872e-18)
(-22.8378 12.1836 0)
(-28.385 10.4422 8.60327e-19)
(-32.9308 8.57585 -8.50656e-19)
(-35.8361 7.0875 8.35302e-19)
(-36.3069 6.12647 1.22817e-17)
(-34.4826 5.86002 0)
(-30.4193 5.99 1.5859e-18)
(-25.6328 6.23254 -7.8116e-19)
(-20.9816 6.36219 1.92379e-19)
(-17.0559 6.29491 5.6892e-19)
(-13.9362 6.17369 -3.36881e-18)
(-11.5119 6.09884 0)
(-9.66512 6.09289 7.26718e-19)
(-8.3054 6.1543 1.42475e-18)
(-7.36757 6.26491 1.40131e-18)
(-6.80088 6.37374 7.35164e-21)
(-6.52076 6.48178 -6.79126e-19)
(-6.52672 6.01942 -2.00912e-18)
(-6.49794 6.64354 -1.3159e-18)
(-6.72509 4.38145 -1.29964e-18)
(-6.79609 6.23788 0)
(-6.93121 1.223 -4.99658e-18)
(-6.57254 5.64484 -4.90522e-18)
(-7.2028 -3.67442 -3.59981e-18)
(-4.94994 6.09356 -6.52665e-18)
(-8.09143 -6.08065 2.9158e-18)
(-9.21712 -5.95133 -2.33167e-18)
(-10.2191 -6.85058 0)
(-9.92212 -7.85077 1.1734e-18)
(-5.99413 -8.98302 1.15984e-18)
(-1.141 -8.24491 -2.33889e-18)
(2.76566 -6.68906 2.35409e-18)
(4.38268 -6.7565 1.01071e-20)
(5.61449 -8.3466 -1.18528e-18)
(8.26661 -9.5883 3.53793e-18)
(9.56084 -9.69171 -3.55286e-18)
(7.54825 2.8533 5.94477e-19)
(6.92049 -3.86501 -4.6175e-19)
(6.71015 3.1669 9.33765e-19)
(5.60828 -0.380383 -3.1579e-18)
(5.95787 4.45804 1.20277e-18)
(5.52627 3.34134 0)
(5.65056 5.3743 1.66914e-19)
(5.62924 5.52824 2.36733e-18)
(5.74123 5.96995 -3.42591e-19)
(6.01369 6.23612 8.71109e-19)
(6.52798 6.46646 1.81145e-22)
(7.35105 6.71314 3.62297e-19)
(8.54251 7.001 -1.82357e-19)
(10.1674 7.31066 1.29762e-18)
(12.3193 7.60159 -4.5117e-18)
(15.1083 7.78567 -5.28202e-21)
(18.6346 7.7792 3.10178e-18)
(22.8556 7.39697 -3.15762e-18)
(27.3686 6.66968 -2.5778e-17)
(31.4695 5.80733 2.63358e-17)
(33.984 5.10019 0)
(34.4304 4.68473 -5.57036e-17)
(32.2985 4.48619 4.27664e-17)
(28.0939 4.78953 -4.40748e-17)
(22.445 5.07407 0)
(15.6212 5.80757 0)
(8.13062 6.68864 0)
(0.805175 7.28065 -7.67127e-18)
(-6.13542 7.50925 -6.44088e-20)
(-12.5683 8.0497 1.24844e-16)
(4.53196 28.4142 -3.17505e-16)
(-20.8941 34.323 1.35041e-16)
(-18.5987 54.683 -1.2767e-16)
(9.84738 57.938 1.64841e-17)
(15.4117 13.6688 3.42083e-16)
(20.5784 4.48127 2.91522e-16)
(22.4378 1.51447 7.99141e-20)
(24.0974 -3.71856 -2.97268e-16)
(25.0821 -28.0075 -2.05594e-16)
(24.9354 -2.35479 -2.01756e-16)
(25.2782 -15.115 7.27659e-17)
(24.7234 -15.6683 -1.67496e-17)
(23.5831 -15.6263 -3.25593e-17)
(21.9884 -15.0564 0)
(19.6298 -14.2926 3.14512e-17)
(16.4388 -13.5315 0)
(12.3408 -12.8692 0)
(7.29824 -12.177 7.43658e-18)
(1.57504 -11.5359 1.83256e-18)
(-4.76493 -11.1046 0)
(-11.6017 -10.6624 3.57801e-18)
(-18.4419 -10.249 9.92576e-21)
(-24.8442 -9.85455 1.37312e-20)
(-30.3285 -9.53065 3.43655e-18)
(-34.4164 -8.91122 3.7884e-18)
(-36.4071 -7.66996 -3.7491e-18)
(-36.0202 -5.6319 -6.76589e-18)
(-33.2774 -3.22434 2.01698e-19)
(-29.0506 -0.948593 -1.19347e-18)
(-24.5094 0.875441 3.92782e-19)
(-20.2953 2.15817 1.54636e-18)
(-16.7467 2.99878 -1.14488e-18)
(-13.8778 3.60305 1.50132e-18)
(-11.6116 4.12226 -5.74729e-21)
(-9.86617 4.62201 -3.64053e-18)
(-8.58044 5.13515 1.44069e-18)
(-7.70177 5.65486 1.41558e-18)
(-7.1998 6.08752 -2.07718e-18)
(-6.94417 6.51685 2.73032e-18)
(-6.99288 6.20995 2.68249e-18)
(-7.00353 6.93627 0)
(-7.17422 4.77913 7.80416e-18)
(-7.30932 6.52871 1.28399e-18)
(-7.2604 1.41207 1.25272e-18)
(-6.88441 6.05623 0)
(-7.18401 -3.91391 0)
(-4.83659 7.33267 3.5309e-18)
(-6.83584 -7.03004 -5.26986e-22)
(0.114789 10.5456 -5.68706e-19)
(-0.898643 8.41121 5.64258e-19)
(-4.92485 6.98908 0)
(-6.29594 5.47086 0)
(-5.26782 0.707485 -5.71679e-19)
(-4.38514 -6.07013 1.70982e-18)
(-3.55066 -4.90839 0)
(-1.6405 -0.186592 -1.14321e-18)
(0.902406 4.04909 -1.14279e-18)
(3.86495 3.51252 2.27763e-18)
(6.59815 3.77413 -1.14147e-18)
(8.31495 7.67431 3.46321e-18)
(10.6088 9.02726 5.66676e-19)
(9.32292 -8.75303 5.99165e-19)
(8.97895 4.19498 1.20505e-18)
(7.23946 -3.56547 0)
(7.6501 3.76374 -4.68553e-19)
(6.04906 0.098815 -1.19126e-19)
(6.51718 4.61111 7.2631e-19)
(5.8838 3.70182 -1.63353e-19)
(6.00676 5.47988 -3.31117e-19)
(5.93087 5.6256 -2.70587e-18)
(5.99599 5.8929 6.88042e-19)
(6.22796 5.93416 -1.74775e-18)
(6.70273 5.87813 8.86183e-19)
(7.50061 5.77776 -3.59914e-19)
(8.68143 5.65957 0)
(10.2932 5.49329 0)
(12.4017 5.21512 0)
(15.0877 4.70576 -1.53021e-18)
(18.4124 3.8454 0)
(22.3418 2.41665 -1.3498e-22)
(26.6268 0.314509 1.28724e-17)
(30.7401 -2.40068 -6.55499e-18)
(33.8107 -5.36062 1.34528e-17)
(34.9616 -8.36275 4.1377e-17)
(33.4219 -11.1574 -3.16976e-20)
(29.8669 -12.9348 -1.43952e-17)
(24.2999 -14.389 -2.89869e-17)
(17.1888 -14.9961 5.83599e-17)
(9.2829 -15.3121 -2.97076e-17)
(1.34429 -15.4197 -3.87575e-20)
(-6.19636 -15.5709 1.50282e-17)
(-12.9126 -14.821 -1.89603e-19)
(-18.5676 8.98681 -1.9245e-16)
(8.49137 21.1495 -3.29399e-16)
(0.126635 25.3153 6.20419e-16)
(-4.76257 -8.11497 0)
(-23.1635 11.0644 -1.3271e-16)
(25.767 -17.1846 5.32898e-16)
(25.488 -11.5853 -2.86739e-16)
(24.0998 -6.52349 -5.54324e-16)
(-19.1744 54.0334 -4.31354e-17)
(12.9812 44.3262 -4.22597e-17)
(5.08987 68.6087 -1.65269e-17)
(-23.3596 35.8761 2.63506e-20)
(18.2311 6.85763 -3.38163e-16)
(22.1485 -3.00432 2.81347e-16)
(-5.35917 -9.41147 -5.69444e-19)
(-7.44397 -4.18459 -5.68243e-19)
(-9.26137 -3.65316 0)
(-12.4214 -8.66722 -5.62045e-19)
(-14.2254 -13.9866 5.63047e-19)
(-9.54121 -15.8204 -5.52974e-19)
(-4.7089 -15.3056 5.56091e-19)
(0.906155 -14.8297 1.12599e-18)
(7.36223 -14.3164 -1.13255e-18)
(10.3655 -18.6284 2.26992e-18)
(11.8843 -19.176 -3.42825e-18)
(9.39201 -19.0004 0)
(6.2907 -15.5891 5.82165e-21)
(3.30501 -13.1661 0)
(12.7192 10.7101 -3.48426e-18)
(8.1231 -7.13232 1.18905e-18)
(10.2993 5.70209 0)
(7.10272 -2.57085 0)
(8.36395 4.33508 3.12469e-19)
(6.2673 0.958873 -3.9711e-20)
(6.80517 4.87095 0)
(5.99767 4.1918 -1.65184e-19)
(6.04592 5.63347 1.66952e-19)
(5.92686 5.78158 6.77243e-19)
(5.95231 5.87772 3.44005e-19)
(6.14189 5.70526 7.01093e-19)
(6.56299 5.35265 1.66712e-21)
(7.28821 4.89785 -1.44382e-18)
(8.37553 4.38224 3.65522e-19)
(9.87878 3.77563 1.48818e-18)
(11.8355 2.99315 3.78771e-19)
(14.2999 1.91788 -7.65036e-19)
(17.2428 0.415894 1.55633e-18)
(20.6603 -1.70409 -4.73997e-18)
(24.382 -4.60112 -6.42272e-18)
(28.0479 -8.37292 3.27046e-18)
(31.0476 -12.7779 -6.6794e-18)
(32.5304 -17.6394 0)
(31.7244 -22.2825 -2.08754e-17)
(28.8967 -26.0783 4.27656e-17)
(23.9927 -29.2554 0)
(17.4529 -31.388 0)
(9.93562 -32.909 0)
(2.06474 -33.7148 1.10294e-17)
(-5.49436 -34.4228 -1.02832e-19)
(-12.2068 -33.4368 -1.27814e-19)
(-19.148 -13.6207 -1.2405e-16)
(-15.8527 41.1283 -3.13583e-16)
(11.9675 13.9552 3.4772e-19)
(-17.5637 -49.3048 2.52751e-16)
(2.38024 -29.4491 0)
(24.3458 -27.106 -1.57157e-17)
(23.0953 -28.5141 0)
(21.4563 -29.5345 0)
(19.0829 -30.5145 7.75784e-18)
(15.9162 -31.4139 -1.52908e-17)
(11.757 -32.0829 0)
(6.73117 -32.4296 7.43501e-18)
(1.04571 -32.3168 0)
(-5.30515 -31.8397 -1.80964e-18)
(-12.0598 -30.8356 1.78636e-18)
(-18.6443 -29.3828 -8.81345e-18)
(-24.5721 -27.3925 1.09575e-21)
(-29.3127 -24.8386 -3.41937e-18)
(-32.4046 -21.6905 6.7668e-18)
(-33.5332 -17.9089 4.99735e-18)
(-32.5209 -13.7555 -4.93454e-18)
(-29.7059 -9.64908 0)
(-25.9521 -6.1258 -6.56682e-22)
(-22.1007 -3.38201 -2.36259e-18)
(-18.5663 -1.36276 0)
(-15.5426 0.130042 0)
(-13.0555 1.30726 7.54265e-19)
(-11.0643 2.33109 2.22663e-18)
(-9.49525 3.28234 -1.45838e-18)
(-8.35265 4.20603 1.44178e-18)
(-7.57232 5.10843 -2.82926e-18)
(-7.14336 5.84888 -6.95886e-19)
(-6.90946 6.55065 -5.46406e-18)
(-7.00418 6.40979 2.69344e-18)
(-7.02419 7.19308 0)
(-7.15521 5.16209 -5.19693e-18)
(-7.29318 6.78108 -2.54343e-18)
(-7.12247 1.75699 0)
(-6.84151 6.65566 2.49748e-18)
(-6.8038 -3.37947 -4.29819e-21)
(-4.91932 9.036 3.56368e-18)
(-5.84694 -5.50203 3.51343e-18)
(-0.487225 13.2125 0)
(-3.30386 -9.23011 -1.14888e-18)
(-3.847 19.9483 -3.09024e-16)
(4.7267 19.5002 -6.33568e-16)
(-1.00071 -15.3425 1.20925e-16)
(-24.75 36.0604 -1.20132e-16)
(19.7173 -0.503375 5.76977e-16)
(-26.4416 13.626 -2.81982e-19)
(5.10037 -9.64618 5.81423e-19)
(14.038 8.13309 2.91453e-18)
(7.03816 -4.71633 -2.37531e-18)
(11.225 6.16119 0)
(6.95131 -0.983097 0)
(8.65325 4.87764 0)
(6.27495 2.07236 0)
(6.72498 5.20829 6.46256e-19)
(5.80424 4.78599 -3.2947e-19)
(5.72267 5.8405 1.67594e-19)
(5.56842 5.95055 -1.02005e-18)
(5.57756 5.87254 6.90347e-19)
(5.75004 5.48558 3.50986e-19)
(6.13908 4.8749 -5.33829e-19)
(6.7951 4.11294 0)
(7.76362 3.23316 2.95473e-22)
(9.09579 2.22297 -3.7215e-19)
(10.8206 0.99727 3.78026e-19)
(12.9164 -0.505112 7.67121e-19)
(15.3978 -2.41284 -8.75257e-19)
(18.2172 -4.96194 8.883e-19)
(21.2466 -8.26186 -2.40498e-18)
(24.2321 -12.4468 -4.8895e-18)
(26.7193 -17.3422 3.31176e-18)
(28.1589 -22.9057 0)
(27.8668 -28.504 -2.55743e-20)
(25.7643 -33.7046 -2.10397e-17)
(21.8325 -38.1575 1.77712e-17)
(16.3413 -41.6053 -3.61005e-18)
(9.85341 -44.1108 0)
(2.8394 -45.5799 -3.62591e-18)
(-4.16666 -46.717 5.07848e-17)
(-10.6451 -45.9848 -2.86008e-17)
(-18.4979 -32.5502 1.17542e-16)
(-19.8264 38.6418 6.39784e-16)
(15.0654 6.93802 4.58927e-19)
(7.93405 20.912 -2.8919e-19)
(10.9189 19.1774 1.63665e-18)
(9.80893 17.5316 2.68371e-19)
(0.0346314 16.4244 0)
(-10.5434 13.1228 -5.51325e-19)
(-8.79065 6.72766 5.51908e-19)
(-7.90478 -6.59826 -8.18181e-19)
(-8.81335 -3.71245 -1.93038e-18)
(-5.74859 -3.09784 2.20741e-18)
(-3.78444 3.86542 0)
(3.42147 10.1517 -1.08321e-18)
(4.78224 13.3119 3.30625e-18)
(8.37703 21.0244 -2.2261e-18)
(10.6844 18.3417 -1.08626e-18)
(13.3397 16.5039 1.68553e-18)
(16.43 4.11257 -2.22647e-18)
(-19.8305 30.4086 6.15646e-16)
(23.0023 -9.24417 -2.62484e-16)
(24.6156 -12.9246 2.64386e-16)
(25.5099 -17.6211 5.24453e-16)
(25.6926 -22.7854 2.45883e-16)
(-11.7566 59.8066 -1.78106e-19)
(-24.8659 34.7748 1.82491e-16)
(14.3614 -30.7679 0)
(-15.9461 -51.7183 0)
(23.3069 -35.6787 0)
(21.811 -37.6875 3.91821e-18)
(20.05 -39.9058 -7.81314e-18)
(17.6422 -42.0137 4.37832e-21)
(14.5184 -43.9162 2.29145e-17)
(10.5316 -45.4999 -1.50716e-17)
(5.83537 -46.5051 -2.37818e-21)
(0.514989 -46.5477 7.33125e-18)
(-5.41454 -45.7808 -1.26496e-17)
(-11.4957 -44.1589 1.75372e-18)
(-17.2227 -41.6162 7.0198e-18)
(-22.2121 -38.1846 -1.74147e-18)
(-25.9541 -33.971 1.71895e-18)
(-28.0865 -29.0839 -5.05787e-18)
(-28.5255 -23.7277 1.6707e-18)
(-27.3744 -18.4453 4.92925e-18)
(-24.9791 -13.7494 -3.24338e-18)
(-22.0259 -9.79373 3.19959e-18)
(-19.0005 -6.64123 1.18314e-18)
(-16.1873 -4.19903 2.71741e-18)
(-13.7286 -2.25807 -3.45673e-18)
(-11.6775 -0.642749 2.26065e-18)
(-10.0235 0.75602 -4.10226e-18)
(-8.71397 2.07467 -2.92553e-18)
(-7.73542 3.36425 2.89546e-18)
(-7.07069 4.6121 1.41838e-18)
(-6.73949 5.6206 -1.39821e-18)
(-6.53149 6.56452 0)
(-6.64144 6.54007 -2.70047e-18)
(-6.60184 7.36037 1.32654e-18)
(-6.69207 5.4676 -2.60699e-18)
(-6.77058 6.91321 -3.85989e-18)
(-6.56057 2.05787 -2.52922e-18)
(-6.41649 7.22677 -4.93556e-18)
(-6.26588 -2.43889 1.21714e-18)
(-4.69189 10.5801 -1.18651e-18)
(-5.04991 -4.06611 -2.33498e-18)
(0.598712 15.1723 0)
(-1.5273 -8.91631 0)
(11.1639 24.1414 0)
(-0.570855 -14.7877 0)
(-23.9949 -10.6595 -4.37371e-20)
(-25.2327 36.9327 6.55843e-16)
(-7.26686 13.0008 3.07751e-16)
(8.80421 12.8516 3.18074e-16)
(1.09033 16.3613 6.24281e-16)
(-16.2925 49.7642 -3.11447e-16)
(-1.08651 -15.1023 -1.03207e-16)
(-1.38072 -19.97 0)
(-16.3245 57.2913 -3.48581e-16)
(-28.6806 15.9168 -1.40242e-16)
(-16.4984 -45.517 -5.17523e-17)
(-7.0387 67.8955 -9.13787e-16)
(-6.47785 -22.3303 3.29281e-16)
(-19.6353 -46.5756 2.51594e-16)
(-1.9717 -17.0061 -5.44286e-17)
(21.7461 6.34024 -1.10929e-18)
(11.0404 -6.98873 -2.89541e-19)
(16.4022 8.20027 -8.79553e-19)
(7.47979 -2.17027 -5.73722e-21)
(11.6901 6.73666 0)
(7.05096 1.1046 0)
(8.56952 5.61466 0)
(6.14406 3.46252 -1.59442e-19)
(6.2773 5.68677 -2.02373e-19)
(5.32314 5.4477 2.0574e-19)
(5.08009 6.08304 -1.66902e-19)
(4.90168 6.07984 4.24896e-19)
(4.89844 5.81602 -5.18767e-19)
(5.07521 5.21741 0)
(5.43907 4.37324 0)
(6.02289 3.3496 0)
(6.86515 2.17772 0)
(8.02795 0.840685 0)
(9.45646 -0.675613 0)
(11.1458 -2.48335 -1.9179e-19)
(13.1491 -4.72151 7.78412e-19)
(15.4012 -7.51135 0)
(17.7724 -10.9538 -2.00235e-18)
(20.0724 -15.1429 3.65787e-18)
(21.9512 -20.0032 3.30194e-18)
(23.1374 -25.4999 0)
(23.0564 -31.2181 1.02736e-17)
(21.554 -36.8331 -1.0436e-17)
(18.6003 -41.8709 -3.5019e-18)
(14.2975 -46.0951 7.12357e-18)
(8.97091 -49.1983 -1.07944e-17)
(3.20198 -51.3538 5.42672e-18)
(-2.79018 -52.565 -1.44063e-17)
(-8.10932 -52.7925 3.59401e-18)
(-14.0642 -50.9904 1.12389e-16)
(-23.7162 27.4381 3.42123e-16)
(20.4071 -16.5333 5.00628e-16)
(16.8175 -16.2137 2.47097e-16)
(0.329745 -16.866 0)
(0.803336 -20.2462 -5.11758e-21)
(-3.33552 -22.1105 -5.57716e-19)
(-5.48423 -2.21301 -2.75565e-19)
(-5.85784 4.35849 -6.732e-20)
(-7.21939 -4.49433 6.75755e-20)
(-14.6725 -25.6942 0)
(-11.9997 -23.6301 0)
(-4.18738 -25.9055 8.3198e-19)
(-0.415875 -31.4234 -2.15417e-18)
(7.67694 -31.5248 2.74701e-18)
(15.6997 -38.4826 0)
(-2.88526 -32.1631 -2.17174e-18)
(-8.77826 -29.581 2.18097e-18)
(-2.37556 -22.016 5.71571e-19)
(-0.289236 -25.7442 5.66468e-19)
(6.29785 -26.3568 0)
(15.8812 -22.252 0)
(7.99953 52.8847 0)
(22.9372 -14.3753 2.54881e-16)
(24.4753 -17.641 0)
(25.0846 -21.7013 -5.19693e-16)
(24.9111 -26.3142 2.58927e-16)
(24.0258 -30.8925 4.63371e-16)
(3.41623 -29.6358 -8.66589e-17)
(11.5359 -0.65339 3.03046e-16)
(21.836 -39.4079 8.39748e-18)
(21.2563 -41.2356 -6.45992e-17)
(19.9629 -43.8425 2.77955e-17)
(18.1481 -46.1797 -3.13575e-17)
(15.7604 -48.5864 -1.35422e-17)
(12.7974 -50.7293 1.90777e-17)
(9.14095 -52.5251 3.76985e-18)
(4.82657 -53.6969 -1.85455e-17)
(0.0135024 -53.7558 1.09769e-17)
(-5.04637 -52.7516 0)
(-10.1885 -50.6672 -8.93261e-18)
(-14.8903 -47.4161 5.25218e-18)
(-18.7378 -43.0717 8.68325e-18)
(-21.4895 -37.9608 1.72637e-18)
(-22.9303 -32.3112 -6.76282e-18)
(-23.0841 -26.4945 -3.33877e-18)
(-22.011 -21.0887 0)
(-20.1212 -16.3844 0)
(-17.8961 -12.3844 -8.0076e-19)
(-15.5902 -9.11838 -3.94972e-19)
(-13.4151 -6.44627 3.89048e-18)
(-11.4932 -4.20344 7.5586e-19)
(-9.87301 -2.2633 -2.65691e-18)
(-8.56621 -0.548317 1.87342e-23)
(-7.5719 1.03762 0)
(-6.80056 2.57706 0)
(-6.26064 4.11151 -2.84303e-18)
(-6.00654 5.32532 4.20998e-18)
(-5.79799 6.49252 -1.37837e-18)
(-5.90697 6.55414 -4.46624e-21)
(-5.80013 7.411 1.32603e-18)
(-5.88783 5.6214 1.30546e-18)
(-5.86274 6.96031 7.70064e-18)
(-5.70687 2.38206 0)
(-5.80663 7.80699 3.69957e-18)
(-5.7274 -1.42316 -3.65826e-18)
(-5.07673 11.965 2.36623e-18)
(-4.30805 -3.64773 -2.35946e-18)
(0.224522 16.408 2.30254e-18)
(1.91808 -13.1892 0)
(12.6603 24.7878 0)
(10.2292 -27.6863 -1.13573e-18)
(-23.6449 18.6978 6.0569e-16)
(-23.4778 -28.9825 -1.21226e-16)
(17.141 -11.8107 -2.58665e-16)
(-20.4674 4.39993 6.05386e-16)
(-15.3645 5.46844 -1.44773e-19)
(-10.0761 5.58243 6.19887e-16)
(-27.4106 -6.95771 1.34237e-16)
(12.0346 5.8938 -6.75049e-16)
(-2.27294 11.4467 0)
(5.41157 11.3098 0)
(-1.45139 -20.9258 -5.97443e-17)
(-21.0784 -21.3073 -3.13864e-16)
(3.9005 -26.1102 2.37592e-17)
(-15.2298 61.4345 -5.4481e-16)
(-13.657 -53.1739 -6.06203e-17)
(-26.8309 22.6271 -3.79218e-16)
(-0.510663 -15.6312 0)
(-0.0594715 -15.0971 -5.31908e-17)
(-10.075 -54.2346 0)
(-6.3355 -54.9205 1.85502e-18)
(-1.72036 -54.3855 3.63832e-18)
(3.04311 -52.6605 1.34808e-18)
(7.64616 -50.18 2.24238e-19)
(11.7268 -46.7833 0)
(14.9641 -42.4134 4.38028e-18)
(17.1691 -37.4304 -4.33011e-18)
(18.2715 -32.0645 1.69795e-18)
(18.2882 -26.7109 -3.34374e-18)
(17.4122 -21.6116 8.24458e-19)
(16.0207 -17.0282 0)
(14.3021 -12.9869 1.60146e-18)
(12.5016 -9.52678 -7.8948e-19)
(10.7629 -6.60316 7.78145e-19)
(9.18703 -4.17262 -1.34372e-18)
(7.81976 -2.14239 1.53769e-18)
(6.69991 -0.430089 -4.69616e-22)
(5.76997 1.13273 -7.81718e-19)
(5.05172 2.56316 3.62096e-19)
(4.53663 3.79329 -4.01792e-19)
(4.18892 4.83494 0)
(3.99828 5.63101 1.72985e-19)
(3.98659 6.09785 -8.514e-20)
(4.17659 6.2986 -3.35249e-19)
(4.54936 6.04293 2.859e-19)
(5.4345 6.29379 4.04693e-20)
(5.74984 5.04117 -1.59533e-19)
(7.97264 6.67266 0)
(7.08783 3.72557 0)
(11.5074 8.08143 -6.02732e-19)
(8.10665 1.50285 3.26586e-18)
(16.5456 10.3148 -5.79223e-19)
(10.5962 -1.84164 0)
(23.5001 16.9254 2.21385e-18)
(8.13773 -6.35051 -1.68001e-20)
(-0.242417 -14.0297 2.80721e-16)
(20.0993 56.6672 1.00787e-18)
(16.3602 46.4113 0)
(16.0304 30.3437 -2.76335e-19)
(20.6554 30.3862 2.83656e-19)
(17.9185 32.5391 6.5037e-19)
(3.93161 34.3578 -5.27761e-19)
(-16.7339 30.8139 1.26713e-19)
(-15.9986 24.1784 2.49507e-19)
(-9.36627 -4.32003 1.8627e-18)
(-13.3736 5.3305 -2.61638e-18)
(-6.90707 6.71368 -2.11717e-18)
(-14.7956 8.5893 2.10277e-18)
(-4.15139 36.2094 -2.46966e-19)
(-1.27234 43.9434 5.0109e-19)
(1.71837 29.4904 -2.13409e-18)
(2.43157 15.4638 -5.08181e-19)
(10.3147 18.9558 2.12859e-18)
(13.5008 3.73673 0)
(16.6597 18.0193 9.85174e-19)
(19.7233 41.8756 -5.06279e-19)
(-26.9854 14.3082 3.14526e-16)
(-21.4012 -41.8058 -1.06625e-16)
(-24.8787 1.73794 -2.98612e-16)
(-1.78289 -15.7357 0)
(-1.4999 -15.5291 0)
(-1.2268 -15.8356 -1.01116e-16)
(-0.7827 -16.0554 -2.52426e-17)
(-0.273022 -16.3048 -3.1551e-17)
(0.00219338 -16.1089 -7.64998e-17)
(0.515674 -15.8261 1.04753e-16)
(1.16397 -15.5427 5.63711e-17)
(-13.9454 -51.0985 0)
(-0.965702 -13.5134 -5.49235e-17)
(-25.4839 -23.1422 2.91462e-19)
(-20.1903 -23.6413 2.8137e-16)
(-21.1167 -23.2988 -2.68968e-16)
(-22.5305 -3.53739 -3.05823e-16)
(-17.6489 -2.03743 0)
(-12.3543 -1.53558 0)
(-29.7798 -3.42144 2.83739e-16)
(-26.4136 7.61753 5.94734e-16)
(-1.82509 -17.0587 -7.58555e-17)
(22.5777 -18.0265 2.55712e-16)
(23.6957 -20.7443 -2.62835e-16)
(24.0577 -24.0337 0)
(23.9174 -27.5403 -5.44283e-16)
(23.2014 -30.9619 2.72047e-16)
(23.1439 -34.8684 -3.59966e-16)
(18.0473 -32.8888 -2.22073e-16)
(20.8555 -40.2779 6.88233e-17)
(20.2582 -42.4234 -7.58776e-17)
(19.2825 -44.7595 3.29824e-17)
(17.9414 -47.1208 -3.21468e-17)
(16.1561 -49.457 0)
(13.9163 -51.7409 -1.94236e-18)
(11.1918 -53.7781 -2.87144e-18)
(7.87827 -55.3568 1.13004e-17)
(4.06748 -56.3125 3.73101e-18)
(-0.0900924 -56.2124 -1.83155e-17)
(-4.31057 -54.8637 7.20769e-18)
(-8.45156 -52.4995 8.92856e-18)
(-12.0914 -48.8817 -7.02135e-18)
(-14.9868 -44.2614 4.35178e-18)
(-16.9696 -38.9976 -4.2815e-18)
(-17.9323 -33.3342 -1.70048e-18)
(-17.9766 -27.755 5.00496e-18)
(-17.1039 -22.7259 8.24494e-19)
(-15.6801 -18.2655 3.25051e-18)
(-14.0027 -14.3663 -3.2093e-18)
(-12.2656 -11.0826 0)
(-10.6258 -8.27867 -7.80017e-19)
(-9.16816 -5.84088 -3.84687e-19)
(-7.9341 -3.67741 -3.78364e-18)
(-6.93935 -1.71659 3.36886e-18)
(-6.19237 0.0862681 -3.67811e-19)
(-5.6573 1.80057 2.8927e-18)
(-5.2268 3.55273 -5.35316e-18)
(-5.05089 4.90983 2.81432e-18)
(-4.83703 6.25088 1.38078e-18)
(-4.92807 6.32546 6.79347e-19)
(-4.732 7.26374 -1.33522e-18)
(-4.88735 5.579 3.9233e-18)
(-4.82746 6.87449 -3.85017e-18)
(-4.82641 2.72595 -1.26164e-18)
(-5.26832 8.36128 -3.71818e-18)
(-5.22025 -0.124203 4.87139e-18)
(-6.00245 13.0269 -3.58263e-18)
(-3.7385 -2.75226 2.35674e-18)
(-2.70018 16.449 -4.59343e-18)
(4.53093 -15.8946 0)
(7.7228 16.7321 2.13725e-18)
(19.4693 -38.141 -1.10203e-18)
(11.2682 40.0915 -1.00994e-18)
(-21.8697 -18.1412 -7.07251e-16)
(-25.7461 -20.158 3.25206e-16)