/*--------------------------------*- C++ -*----------------------------------*\
| =========                 |                                                 |
| \\      /  F ield         | OpenFOAM: The Open Source CFD Toolbox           |
|  \\    /   O peration     | Version:  2212                                  |
|   \\  /    A nd           | Website:  www.openfoam.com                      |
|    \\/     M anipulation  |                                                 |
\*---------------------------------------------------------------------------*/
FoamFile
{
    version     2.0;
    format      ascii;
    arch        "LSB;label=32;scalar=64";
    class       surfaceScalarField;
    location    "0.0363";
    object      phi;
}
// * * * * * * * * * * * * * * * * * * * * * * * * * * * * * * * * * * * * * //

dimensions      [1 0 -1 0 0 0 0];

oriented        oriented;

internalField   nonuniform List<scalar> 
4475
(
1.41722e-05
-1.31212e-05
1.82744e-05
-1.92532e-05
2.64386e-07
-1.98072e-06
7.80334e-08
1.62682e-06
3.27791e-05
-3.71992e-05
3.54201e-06
9.69721e-07
-4.41591e-06
1.42465e-05
3.69994e-06
-1.35153e-05
-1.56449e-05
1.41829e-05
1.50675e-05
-1.35351e-05
1.32415e-05
-1.03177e-05
-1.49101e-05
1.20496e-05
-3.90301e-06
3.45501e-06
1.98225e-05
-1.92908e-05
-1.19729e-05
-1.60959e-05
1.43363e-05
1.3796e-05
1.47658e-05
-1.63093e-05
-1.40334e-05
-1.69095e-05
-2.35995e-07
2.09441e-06
1.51896e-05
-2.76142e-06
2.4893e-06
-1.64905e-05
-1.7861e-05
2.63811e-06
-1.48018e-06
1.68398e-05
-1.80714e-05
8.81055e-07
-5.38583e-07
-1.81728e-05
4.61636e-07
-2.33127e-07
-1.81335e-05
2.9134e-07
-2.10793e-07
-1.79303e-05
2.14042e-07
-3.07005e-07
2.66207e-07
-1.71856e-05
-9.12475e-07
1.68133e-05
-1.37356e-06
-1.63246e-05
9.66248e-07
1.79791e-05
-8.04689e-07
1.82207e-05
8.40192e-08
1.82387e-05
3.95705e-07
1.82005e-05
6.30911e-07
1.82887e-05
9.35734e-07
2.0011e-05
1.08178e-06
1.76003e-05
-1.77961e-07
1.66772e-05
8.44894e-07
2.10829e-05
2.73208e-06
-6.95008e-06
2.00342e-05
2.68423e-07
1.0093e-06
2.05667e-05
-2.04826e-05
-3.88501e-06
-1.67224e-05
-1.74848e-06
1.98012e-05
1.57014e-07
3.09528e-07
1.97382e-05
1.30468e-07
1.79596e-07
1.97685e-05
1.05425e-07
1.27619e-07
1.97932e-05
1.40171e-07
1.17829e-07
1.98693e-05
8.38671e-08
1.45401e-07
1.99163e-05
1.17271e-07
1.6495e-07
1.99834e-05
1.13742e-07
1.73732e-07
2.00663e-05
9.05518e-08
2.0735e-07
2.01659e-05
7.5189e-08
2.32951e-07
2.02515e-05
1.09212e-07
2.39236e-07
2.03658e-05
9.47126e-08
2.49823e-07
2.04679e-05
1.05501e-07
2.74611e-07
2.05549e-05
1.20299e-07
2.95985e-07
2.06755e-05
9.01944e-08
3.10912e-07
3.38984e-08
2.08822e-05
2.98201e-07
-2.06654e-05
2.07419e-05
4.86455e-07
-2.0572e-05
5.10725e-07
-2.04055e-05
4.49185e-07
-2.0312e-05
4.85566e-07
-2.02009e-05
4.34492e-07
-2.00764e-05
4.10748e-07
-1.99392e-05
3.37455e-07
-1.99428e-05
4.67602e-07
-1.98488e-05
3.68139e-07
-1.9755e-05
3.46424e-07
-1.9771e-05
3.99659e-07
-1.97176e-05
3.64905e-07
-1.97223e-05
3.68498e-07
-1.97401e-05
3.87592e-07
-1.99945e-05
6.39137e-07
-2.09465e-05
1.44433e-06
-1.63845e-05
3.92305e-06
-8.30832e-06
-1.70983e-05
2.95069e-06
-1.64552e-05
1.97375e-06
-1.67823e-05
8.45522e-07
-4.04453e-07
-1.79129e-05
-2.28235e-07
-1.8117e-05
-2.07709e-07
-1.81764e-05
-5.05522e-08
-1.812e-05
-1.52201e-07
-1.78169e-05
-5.03267e-07
-1.76381e-05
-9.92169e-07
1.21877e-07
3.16444e-07
2.09961e-05
4.72435e-07
2.09323e-05
1.80594e-05
-1.55469e-06
-1.72016e-05
1.82438e-05
1.60977e-08
1.83098e-05
4.54771e-07
1.83273e-05
7.47653e-07
1.8566e-05
8.42702e-07
1.89505e-05
8.54119e-07
1.83285e-05
6.07791e-07
1.83642e-05
9.8214e-07
1.97323e-05
1.55292e-06
1.98605e-05
1.08919e-06
1.97498e-05
6.44443e-07
1.97234e-05
4.46498e-07
1.97329e-05
3.75748e-07
1.97842e-05
3.4494e-07
1.98384e-05
3.91189e-07
1.98752e-05
4.51901e-07
1.99611e-05
4.36626e-07
2.00348e-05
5.08644e-07
2.01221e-05
5.47152e-07
2.02107e-05
5.78e-07
2.03375e-05
5.74889e-07
2.04523e-05
6.35427e-07
2.05822e-05
6.63174e-07
2.07071e-05
7.02148e-07
2.0824e-05
7.13096e-07
-1.92581e-06
-1.64143e-05
2.0947e-06
6.97658e-07
2.09879e-05
-3.33297e-06
-1.5238e-05
-1.72082e-05
-2.08635e-06
-2.06724e-05
2.08621e-05
8.00186e-07
-2.05793e-05
8.98319e-07
-2.03902e-05
8.11098e-07
-2.03204e-05
8.50608e-07
-2.01708e-05
7.86834e-07
-2.00422e-05
7.34175e-07
-1.99426e-05
7.15573e-07
-1.9932e-05
7.07307e-07
-1.9786e-05
6.76747e-07
-1.97092e-05
6.2141e-07
-1.9709e-05
6.52881e-07
-1.96527e-05
6.27515e-07
-1.96287e-05
6.04094e-07
-1.96236e-05
6.07448e-07
-1.96971e-05
6.8804e-07
-1.97808e-05
9.3176e-07
-1.96767e-05
1.52962e-06
-1.80075e-05
2.41965e-06
-1.72648e-05
2.35489e-06
-1.71179e-05
1.95816e-06
-1.72499e-05
1.09939e-06
-1.77515e-05
3.90928e-07
-1.80453e-05
2.03967e-07
-1.81373e-05
1.55557e-07
-1.81992e-05
2.02104e-08
-1.81164e-05
-4.81446e-07
-1.7878e-05
-1.13217e-06
-1.41869e-05
2.11831e-05
-1.8896e-05
8.52746e-06
-1.61126e-05
-5.42151e-06
1.30531e-05
-1.05322e-05
-9.49636e-06
1.16415e-05
8.43559e-06
1.12837e-05
2.01832e-05
1.68606e-06
-3.3972e-06
-1.83561e-05
1.84889e-05
2.62835e-07
1.83772e-05
2.47699e-07
1.83419e-05
6.14533e-07
1.84283e-05
7.9275e-07
1.85595e-05
8.50969e-07
1.87238e-05
8.38351e-07
1.86671e-05
8.2096e-07
1.87932e-05
1.02358e-06
1.93113e-05
1.21339e-06
1.95494e-05
1.0455e-06
1.96056e-05
7.98994e-07
1.96333e-05
6.45202e-07
1.96847e-05
5.68336e-07
1.96978e-05
5.95275e-07
1.97525e-05
6.20843e-07
1.98331e-05
6.79056e-07
1.98624e-05
7.39495e-07
1.99338e-05
7.94715e-07
2.00142e-05
8.49305e-07
2.01589e-05
8.40809e-07
2.02477e-05
9.17573e-07
2.03529e-05
9.84241e-07
2.05102e-05
9.80817e-07
2.06838e-05
1.02295e-06
2.08062e-05
1.10116e-06
2.09051e-05
1.12203e-06
-7.4329e-07
2.10701e-05
1.11064e-06
-2.98081e-07
2.10969e-05
1.51508e-07
2.11074e-05
5.52355e-07
2.10828e-05
-1.3717e-05
1.34975e-05
-1.58031e-05
2.10034e-05
9.37631e-07
-1.78446e-05
-1.61393e-05
1.98802e-05
-1.37794e-05
2.10249e-05
1.1055e-05
-1.82446e-05
-4.06714e-06
-1.63901e-05
1.71451e-05
-1.34554e-05
1.76486e-05
-2.12705e-05
1.47423e-05
1.42951e-05
-1.47776e-05
-2.06438e-05
1.29477e-08
4.30731e-06
-1.78889e-05
-1.98138e-06
-6.58125e-07
1.09296e-06
2.11742e-05
-2.35299e-07
2.12348e-05
2.06575e-07
2.12321e-05
5.76993e-07
2.127e-05
9.35744e-07
2.11774e-05
-2.09256e-05
1.27099e-06
2.10854e-05
-2.06701e-05
1.17074e-06
-2.05974e-05
1.20684e-06
-2.03745e-05
1.14291e-06
-2.03009e-05
1.19006e-06
-2.01372e-05
1.12254e-06
-1.99962e-05
1.06131e-06
-1.98442e-05
9.76098e-07
-1.9742e-05
9.8465e-07
-1.96788e-05
9.92519e-07
-1.96141e-05
9.37455e-07
-1.95797e-05
8.89765e-07
-1.95123e-05
8.65801e-07
-1.94757e-05
8.49976e-07
-1.94506e-05
8.18417e-07
-1.94216e-05
7.99801e-07
-1.94412e-05
9.12689e-07
-1.93799e-05
1.06053e-06
-1.90887e-05
1.41222e-06
-1.83287e-05
1.8139e-06
-1.78522e-05
2.0187e-06
-1.73947e-05
1.62968e-06
-1.7432e-05
1.25691e-06
-1.77047e-05
7.78588e-07
-1.78883e-05
4.98832e-07
-1.80676e-05
4.42489e-07
-1.81764e-05
2.33266e-07
-1.83202e-05
-2.37803e-07
-1.02494e-06
-1.83328e-05
1.84766e-06
-1.54087e-06
-1.86635e-05
1.84503e-05
1.94107e-05
-2.45458e-05
2.12998e-05
-1.60914e-05
1.41765e-05
-1.35145e-05
1.44773e-05
1.7746e-05
1.35499e-06
2.14777e-06
1.87554e-05
3.20949e-06
-4.15366e-06
1.906e-05
3.22696e-06
1.89189e-05
2.74529e-06
-2.51933e-06
1.87087e-05
2.14881e-06
1.87826e-05
1.76569e-06
-1.7424e-06
1.91614e-05
1.41194e-06
1.86952e-05
8.3916e-07
1.84684e-05
5.87997e-07
1.84159e-05
7.85017e-07
1.84804e-05
8.51645e-07
1.85519e-05
9.08922e-07
1.86808e-05
8.45964e-07
1.87096e-05
9.36506e-07
1.88623e-05
1.02423e-06
1.91452e-05
1.09516e-06
1.93365e-05
1.03238e-06
1.94064e-05
9.2003e-07
1.94411e-05
8.15665e-07
1.95214e-05
7.09631e-07
1.95341e-05
8.22276e-07
1.96056e-05
8.08729e-07
1.96465e-05
9.19654e-07
1.97054e-05
9.85196e-07
1.97668e-05
1.06138e-06
1.99231e-05
1.04493e-06
1.99974e-05
1.14191e-06
2.00838e-05
1.22879e-06
2.02627e-05
1.22493e-06
2.04435e-05
1.2402e-06
2.05644e-05
1.36034e-06
2.07259e-05
1.41391e-06
2.08891e-05
1.44626e-06
2.10415e-05
1.45577e-06
1.42241e-06
2.12171e-05
4.44753e-07
3.49473e-05
-2.74394e-05
-7.88196e-06
-1.61636e-05
1.55446e-05
-1.85869e-05
1.80152e-05
6.82742e-06
-6.19253e-06
-1.0632e-06
1.11637e-05
9.90239e-07
-1.1092e-05
-2.21867e-05
-4.31338e-06
7.27712e-06
1.93025e-05
-1.74001e-05
-1.24522e-05
-3.60569e-06
-1.82595e-05
-1.8195e-05
-2.09622e-06
1.88421e-05
-2.06424e-05
2.0857e-05
1.49856e-06
-2.05517e-05
1.51762e-06
-2.03169e-05
1.40145e-06
-2.02567e-05
1.5008e-06
-2.00715e-05
1.40986e-06
-1.99206e-05
1.35983e-06
-1.97852e-05
1.29601e-06
-1.96834e-05
1.22472e-06
-1.96021e-05
1.23306e-06
-1.94836e-05
1.18293e-06
-1.9404e-05
1.14533e-06
-1.93496e-05
1.10163e-06
-1.92725e-05
1.03466e-06
-1.92538e-05
1.05835e-06
-1.92206e-05
9.94429e-07
-1.92253e-05
9.97325e-07
-1.91418e-05
1.00683e-06
-1.90396e-05
1.12235e-06
-1.87793e-05
1.30546e-06
-1.83479e-05
1.52521e-06
-1.79122e-05
1.71314e-06
-1.75493e-05
1.3861e-06
-1.75212e-05
1.34029e-06
-1.76717e-05
1.03528e-06
-1.78113e-05
7.40706e-07
-1.7959e-05
6.88887e-07
-1.81147e-05
4.84264e-07
-1.82499e-05
-1.02582e-08
-1.86201e-05
-5.66372e-07
-1.71379e-06
-1.85082e-05
-1.53797e-05
-1.49374e-05
1.6922e-05
-5.72824e-06
-1.94389e-05
1.85583e-05
6.65642e-06
1.85219e-05
2.82952e-06
-1.99293e-05
1.87662e-05
3.03289e-06
1.88638e-05
3.2021e-06
1.87532e-05
2.93439e-06
1.86786e-05
2.30759e-06
1.8694e-05
1.83948e-06
1.87443e-05
1.45626e-06
1.85827e-05
1.09969e-06
1.83762e-05
8.97159e-07
1.84e-05
8.67996e-07
1.84022e-05
9.60671e-07
1.85075e-05
9.19667e-07
1.85784e-05
8.96656e-07
1.86616e-05
9.81234e-07
1.87924e-05
1.02871e-06
1.89634e-05
1.06887e-06
1.91089e-05
1.04177e-06
1.923e-05
9.65073e-07
1.93272e-05
8.97705e-07
1.93201e-05
9.10482e-07
1.93936e-05
9.58727e-07
1.93871e-05
1.04319e-06
1.94342e-05
1.11972e-06
1.94863e-05
1.20092e-06
1.9644e-05
1.19319e-06
1.97082e-05
1.29221e-06
1.97807e-05
1.40215e-06
1.99538e-05
1.4096e-06
2.01372e-05
1.41624e-06
2.02357e-05
1.53494e-06
2.0371e-05
1.63497e-06
2.05664e-05
1.64375e-06
2.07304e-05
1.72046e-06
2.09225e-05
1.71154e-06
2.10701e-05
1.72986e-06
-1.41458e-06
1.71238e-06
2.12308e-05
-1.05628e-06
2.13672e-05
-6.41155e-07
2.13002e-05
-2.08044e-07
2.13651e-05
1.45071e-07
2.14492e-05
6.17534e-07
2.13579e-05
1.02984e-06
2.13008e-05
1.36354e-06
2.12497e-05
2.10772e-05
1.5889e-06
-2.045e-05
-7.15255e-06
9.07809e-06
-1.70443e-06
2.85235e-06
-3.2358e-05
3.1303e-05
-8.16246e-06
6.96454e-06
-6.70235e-06
7.90537e-06
-2.14685e-05
-1.20222e-05
1.72237e-05
1.87371e-05
-2.17159e-05
-5.17334e-06
8.26777e-06
1.11313e-05
-1.8777e-05
-1.47136e-06
-2.79877e-06
-1.92269e-05
-1.35493e-05
-1.63936e-05
1.46174e-05
-1.74286e-05
-1.06048e-05
6.62723e-06
-2.3268e-05
1.30632e-05
-1.51117e-05
2.53821e-05
1.37017e-05
1.52957e-05
1.84041e-05
-1.84296e-05
2.91033e-06
1.81996e-05
3.29783e-06
1.82974e-05
3.16929e-06
1.83527e-05
2.94867e-06
1.83723e-05
2.36227e-06
1.83953e-05
1.89531e-06
1.83873e-05
1.5473e-06
1.83223e-05
1.25104e-06
1.82478e-05
1.06108e-06
1.82257e-05
9.82755e-07
1.82979e-05
9.8485e-07
1.83543e-05
9.63404e-07
1.84126e-05
9.42337e-07
1.85065e-05
9.95762e-07
1.86129e-05
1.0361e-06
1.87398e-05
1.06255e-06
1.88642e-05
1.04578e-06
1.89674e-05
9.99381e-07
1.90006e-05
1.01251e-06
1.90254e-05
1.04574e-06
1.90552e-05
1.1027e-06
1.91063e-05
1.18138e-06
1.91481e-05
1.28417e-06
1.92895e-05
1.2842e-06
1.93541e-05
1.37225e-06
1.93901e-05
1.5191e-06
1.95635e-05
1.51085e-06
1.97422e-05
1.53274e-06
1.98327e-05
1.64553e-06
1.99541e-05
1.75014e-06
2.01631e-05
1.77845e-06
2.02865e-05
1.8867e-06
2.04882e-05
1.89658e-06
2.06868e-05
1.89961e-06
2.08614e-05
1.94898e-06
2.10191e-05
1.95227e-06
-1.69967e-06
1.94345e-06
2.11732e-05
-1.40274e-06
2.13929e-05
-9.729e-07
2.14453e-05
-6.87789e-07
2.15578e-05
-3.02312e-07
2.15427e-05
1.9418e-07
2.15228e-05
6.26001e-07
2.14858e-05
9.68978e-07
2.1494e-05
1.35098e-06
2.1365e-05
1.64038e-06
2.1234e-05
-2.07375e-05
2.09151e-05
1.84554e-06
-2.05646e-05
1.79871e-06
-2.0431e-05
1.74596e-06
-2.02552e-05
1.71826e-06
-2.01648e-05
1.68101e-06
-1.99434e-05
1.63909e-06
-1.9788e-05
1.60099e-06
-1.96448e-05
1.54852e-06
-1.94974e-05
1.46434e-06
-1.94336e-05
1.45912e-06
-1.93265e-05
1.40564e-06
-1.92342e-05
1.35148e-06
-1.91348e-05
1.2879e-06
-1.90848e-05
1.27516e-06
-1.90319e-05
1.18781e-06
-1.89634e-05
1.17934e-06
-1.8914e-05
1.11845e-06
-1.88772e-05
1.11975e-06
-1.88185e-05
1.09452e-06
-1.87074e-05
1.1461e-06
-1.85126e-05
1.23654e-06
-1.82257e-05
1.35722e-06
-1.79502e-05
1.54844e-06
-1.7683e-05
1.22265e-06
-1.76239e-05
1.37837e-06
-1.75917e-05
1.09642e-06
-1.76654e-05
9.0497e-07
-1.77713e-05
8.81684e-07
-1.7932e-05
7.29281e-07
-1.82486e-05
3.87438e-07
-2.85936e-07
-1.84498e-05
-1.63422e-05
-1.562e-05
1.70871e-05
-2.31896e-06
-1.91772e-05
-2.16046e-05
-2.72867e-06
5.19599e-06
-1.27005e-06
-1.31469e-05
-1.77766e-05
1.90132e-05
-1.81079e-05
-1.14511e-05
1.76225e-05
-1.05718e-05
-9.80574e-06
1.50267e-05
-1.61188e-05
-6.23798e-06
1.66686e-05
2.63585e-06
2.01938e-08
1.80929e-05
2.3188e-06
-1.77305e-05
1.76483e-05
3.40416e-06
1.75104e-05
3.48776e-06
1.75223e-05
3.2133e-06
1.77227e-05
2.80753e-06
1.78222e-05
2.32574e-06
1.79145e-05
1.86977e-06
1.79094e-05
1.62235e-06
1.79147e-05
1.31778e-06
1.79085e-05
1.14147e-06
1.79261e-05
1.04158e-06
1.79978e-05
9.91933e-07
1.80553e-05
9.87143e-07
1.81157e-05
9.65469e-07
1.81932e-05
1.00436e-06
1.82893e-05
1.02939e-06
1.84014e-05
1.04436e-06
1.84775e-05
1.0687e-06
1.85533e-05
1.02914e-06
1.8596e-05
1.08346e-06
1.86318e-05
1.13274e-06
1.86735e-05
1.19472e-06
1.87318e-05
1.26957e-06
1.88315e-05
1.34527e-06
1.88916e-05
1.40008e-06
1.89187e-05
1.53715e-06
1.90937e-05
1.55295e-06
1.92506e-05
1.58006e-06
1.93239e-05
1.70198e-06
1.94276e-05
1.79994e-06
1.96211e-05
1.83003e-06
1.97306e-05
1.95615e-06
1.99512e-05
1.96538e-06
2.01593e-05
1.99862e-06
2.03001e-05
2.07667e-06
2.04925e-05
2.07979e-06
2.06773e-05
2.09374e-06
2.08493e-05
2.09854e-06
-1.90083e-06
2.09859e-05
2.08926e-06
-1.6391e-06
2.13073e-05
-1.3371e-06
2.15481e-05
-1.00382e-06
2.16173e-05
-5.48597e-07
2.16437e-05
-1.87202e-07
2.17435e-05
2.05634e-07
2.16968e-05
5.7325e-07
2.16753e-05
9.99628e-07
2.16014e-05
1.32234e-06
2.15374e-05
1.66181e-06
2.13382e-05
1.89926e-06
2.10583e-05
-2.04826e-05
2.06376e-05
2.05435e-06
-2.03228e-05
1.99824e-06
-2.01586e-05
1.94695e-06
-2.00087e-05
1.90702e-06
-1.98503e-05
1.86715e-06
-1.96915e-05
1.82334e-06
-1.95459e-05
1.78579e-06
-1.94025e-05
1.73896e-06
-1.92748e-05
1.68951e-06
-1.91815e-05
1.62589e-06
-1.90403e-05
1.55742e-06
-1.89587e-05
1.54747e-06
-1.88752e-05
1.47518e-06
-1.88041e-05
1.40775e-06
-1.87165e-05
1.36304e-06
-1.86667e-05
1.2987e-06
-1.85852e-05
1.24477e-06
-1.8566e-05
1.23342e-06
-1.84926e-05
1.1691e-06
-1.84287e-05
1.14333e-06
-1.83282e-05
1.14937e-06
-1.81778e-05
1.18304e-06
-1.79836e-05
1.25477e-06
-1.77025e-05
1.35425e-06
-1.76213e-05
1.22462e-06
-1.7457e-05
1.29362e-06
-1.74274e-05
1.14403e-06
-1.74026e-05
9.56046e-07
-1.74457e-05
9.97721e-07
-1.75545e-05
9.09189e-07
-1.77616e-05
6.63952e-07
1.51912e-07
-1.81318e-05
-1.86948e-05
-1.15045e-06
-1.53499e-05
-1.73268e-05
-1.59797e-05
-1.76009e-05
1.80238e-05
6.25298e-06
1.10978e-05
-1.31866e-05
-4.14149e-06
-1.88417e-05
-2.10115e-06
-1.65141e-05
-6.07614e-06
3.19767e-06
-1.78689e-05
-8.402e-06
-1.81474e-05
-1.02376e-05
-2.4667e-07
-6.51159e-06
-1.47822e-05
-7.41291e-06
-1.59669e-05
1.19512e-06
-1.93706e-05
-2.46021e-06
-1.34051e-05
-1.7796e-05
-1.7275e-05
-1.22643e-05
-1.85254e-06
2.08099e-06
2.10774e-05
-1.61784e-06
2.14635e-05
-1.29085e-06
2.16737e-05
-9.18641e-07
2.1746e-05
-5.65936e-07
2.18269e-05
-1.27526e-07
2.1863e-05
2.40884e-07
2.18919e-05
6.56818e-07
2.18127e-05
1.00991e-06
2.17776e-05
1.38776e-06
2.16502e-05
1.71086e-06
2.14542e-05
1.94046e-06
2.12058e-05
2.0711e-06
2.08135e-05
-2.01029e-05
2.1513e-06
2.02534e-05
-1.99064e-05
2.09232e-06
-1.97556e-05
2.08426e-06
-1.9585e-05
2.01384e-06
-1.94444e-05
2.00284e-06
-1.9296e-05
1.95211e-06
-1.91354e-05
1.89095e-06
-1.90018e-05
1.87274e-06
-1.88578e-05
1.80663e-06
-1.87455e-05
1.77839e-06
-1.8643e-05
1.71277e-06
-1.85558e-05
1.64676e-06
-1.84286e-05
1.58321e-06
-1.83539e-05
1.54945e-06
-1.82845e-05
1.47424e-06
-1.81966e-05
1.39853e-06
-1.81455e-05
1.35948e-06
-1.80965e-05
1.29705e-06
-1.80121e-05
1.24074e-06
-1.79672e-05
1.20773e-06
-1.79045e-05
1.15705e-06
-1.78175e-05
1.13316e-06
-1.76995e-05
1.13152e-06
-1.754e-05
1.15906e-06
-1.73289e-05
1.20479e-06
-1.71282e-05
1.08422e-06
-1.71108e-05
1.33489e-06
-1.69572e-05
1.04876e-06
-1.69974e-05
1.05414e-06
-1.69288e-05
9.86252e-07
-1.69545e-05
9.91367e-07
-1.71375e-05
9.02889e-07
6.56291e-07
-1.75865e-05
-7.44998e-07
-1.84713e-05
1.50951e-05
-1.22769e-05
-1.62652e-05
-1.40174e-05
-1.90516e-05
8.66953e-06
-1.83707e-06
2.84207e-06
-9.67285e-06
2.14586e-05
-1.28632e-07
-2.12019e-05
-3.92685e-08
1.63361e-05
3.8506e-06
-1.67422e-05
1.64149e-05
3.45164e-06
1.66316e-05
3.04227e-06
1.68723e-05
2.61471e-06
1.70361e-05
2.21246e-06
1.71722e-05
1.78696e-06
1.72512e-05
1.59882e-06
1.73133e-05
1.31248e-06
1.73622e-05
1.15019e-06
1.74158e-05
1.04658e-06
1.74783e-05
9.88815e-07
1.75657e-05
9.59862e-07
1.76319e-05
9.59998e-07
1.77093e-05
9.88552e-07
1.77903e-05
1.01144e-06
1.78718e-05
1.02779e-06
1.79727e-05
1.03574e-06
1.80031e-05
1.07037e-06
1.80455e-05
1.11765e-06
1.80876e-05
1.17374e-06
1.81351e-05
1.23832e-06
1.81959e-05
1.30929e-06
1.82714e-05
1.3812e-06
1.83434e-05
1.45169e-06
1.84843e-05
1.53315e-06
1.85586e-05
1.62927e-06
1.86598e-05
1.64314e-06
1.87627e-05
1.77707e-06
1.89307e-05
1.82366e-06
1.90342e-05
1.93112e-06
1.92291e-05
1.9778e-06
1.94303e-05
1.99117e-06
1.95514e-05
2.113e-06
1.97304e-05
2.13974e-06
1.99272e-05
2.12946e-06
2.01356e-05
2.13405e-06
2.02915e-05
2.19114e-06
2.04503e-05
2.17638e-06
2.05745e-05
2.19865e-06
-1.60096e-05
-1.89135e-05
1.9006e-05
-1.70617e-05
-1.7804e-05
3.63181e-05
-1.56725e-06
2.66677e-06
-3.73542e-05
-1.65745e-05
-2.97877e-06
-1.3394e-05
-1.85834e-05
-2.6507e-06
-1.92833e-05
1.94282e-05
2.15736e-06
-1.91508e-05
2.11515e-06
-1.89659e-05
2.05764e-06
-1.88369e-05
2.04427e-06
-1.86607e-05
1.98562e-06
-1.85307e-05
1.97887e-06
-1.83986e-05
1.91182e-06
-1.82384e-05
1.85948e-06
-1.81316e-05
1.83952e-06
-1.79866e-05
1.76444e-06
-1.78917e-05
1.73927e-06
-1.77946e-05
1.66063e-06
-1.77104e-05
1.59895e-06
-1.76065e-05
1.53443e-06
-1.75413e-05
1.48784e-06
-1.74836e-05
1.41036e-06
-1.74074e-05
1.34455e-06
-1.73465e-05
1.28986e-06
-1.72929e-05
1.23482e-06
-1.72243e-05
1.18173e-06
-1.7166e-05
1.13746e-06
-1.70896e-05
1.09279e-06
-1.69904e-05
1.06695e-06
-1.68564e-05
1.05938e-06
-1.66888e-05
1.07217e-06
-1.66387e-05
1.07008e-06
-1.63908e-05
1.12353e-06
-1.62664e-05
9.62151e-07
-1.6213e-05
1.03966e-06
-1.61694e-05
9.82382e-07
-1.60972e-05
9.59762e-07
-1.61567e-05
1.00283e-06
-1.65982e-05
1.13819e-06
-1.44564e-07
-1.81367e-05
1.39128e-05
-1.13403e-05
1.25891e-05
-1.97473e-05
-1.20136e-05
-2.06692e-06
2.20389e-06
2.0673e-05
-1.87661e-06
2.11999e-05
-1.61397e-06
2.15851e-05
-1.25334e-06
2.17585e-05
-9.26138e-07
2.19131e-05
-5.85022e-07
2.2016e-05
-1.74273e-07
2.20033e-05
2.99952e-07
2.19747e-05
6.73124e-07
2.1987e-05
1.07191e-06
2.19021e-05
1.43372e-06
2.1773e-05
1.6922e-06
2.16291e-05
1.92125e-06
2.13484e-05
2.09337e-06
2.09427e-05
2.17475e-06
2.03975e-05
2.13252e-06
1.96161e-05
1.81298e-05
-1.21135e-05
-1.82288e-05
1.79887e-05
-1.14543e-05
1.70297e-05
-9.22365e-06
1.60631e-05
-7.38658e-06
-6.08748e-06
-1.3553e-05
1.29589e-05
1.43704e-05
-5.69606e-06
-2.0677e-05
-4.06966e-06
3.92067e-06
3.51528e-07
-2.01771e-07
-3.49246e-06
-1.11272e-05
1.02092e-05
1.46542e-05
3.39019e-06
-1.41631e-05
1.50881e-05
3.04962e-06
1.54692e-05
2.69525e-06
1.57741e-05
2.34513e-06
1.60328e-05
1.99075e-06
1.61702e-05
1.68822e-06
1.63606e-05
1.44837e-06
1.64696e-05
1.24396e-06
1.6562e-05
1.0981e-06
1.6647e-05
1.0014e-06
1.673e-05
9.44856e-07
1.68084e-05
9.1922e-07
1.68895e-05
9.15473e-07
1.69736e-05
9.40063e-07
1.70608e-05
9.59075e-07
1.71345e-05
9.8866e-07
1.7187e-05
1.01826e-06
1.72336e-05
1.05997e-06
1.72784e-05
1.11122e-06
1.7324e-05
1.17e-06
1.73748e-05
1.2343e-06
1.74337e-05
1.30329e-06
1.75024e-05
1.37317e-06
1.75799e-05
1.44383e-06
1.7674e-05
1.51826e-06
1.77989e-05
1.59413e-06
1.78834e-05
1.65953e-06
1.80245e-05
1.74772e-06
1.81334e-05
1.83775e-06
1.83036e-05
1.89463e-06
1.84951e-05
1.92967e-06
1.85901e-05
2.04755e-06
1.88001e-05
2.0615e-06
1.90109e-05
2.09256e-06
1.91934e-05
2.11386e-06
1.93129e-05
2.18193e-06
1.94942e-05
2.17619e-06
1.96583e-05
2.17605e-06
1.97931e-05
2.22327e-06
1.99264e-05
2.22409e-06
2.41857e-06
3.64817e-05
-2.52191e-06
-2.25365e-06
-1.82561e-05
-1.15715e-05
6.32809e-06
-1.5627e-05
-2.05091e-05
2.01878e-05
-1.5572e-05
-2.04791e-05
-1.7659e-05
-1.89958e-05
-3.69989e-05
-4.92441e-06
4.04312e-05
2.76102e-05
-1.26392e-06
-2.58334e-05
1.55787e-05
-2.45801e-06
-1.90375e-05
1.89474e-06
-1.85892e-05
1.5064e-05
1.0973e-05
-1.15872e-05
-7.87276e-06
-2.2662e-05
1.01498e-05
4.91048e-06
-8.49052e-06
-6.14932e-06
9.73028e-06
-1.13876e-06
-3.37307e-05
-1.45315e-06
3.64214e-05
-1.83914e-05
1.85152e-05
2.07466e-06
-1.8238e-05
2.07591e-06
-1.80681e-05
2.02151e-06
-1.79324e-05
2.00139e-06
-1.77687e-05
1.96195e-06
-1.76412e-05
1.9398e-06
-1.74677e-05
1.88527e-06
-1.73415e-05
1.86316e-06
-1.72216e-05
1.81312e-06
-1.70809e-05
1.76658e-06
-1.69743e-05
1.71892e-06
-1.6847e-05
1.66538e-06
-1.67492e-05
1.60788e-06
-1.66609e-05
1.54736e-06
-1.6585e-05
1.48733e-06
-1.65028e-05
1.42765e-06
-1.64391e-05
1.3622e-06
-1.63823e-05
1.29799e-06
-1.63223e-05
1.23615e-06
-1.62575e-05
1.17352e-06
-1.62022e-05
1.1279e-06
-1.61347e-05
1.07052e-06
-1.60648e-05
1.02346e-06
-1.5981e-05
9.85019e-07
-1.58665e-05
9.48924e-07
-1.57135e-05
9.2606e-07
-1.55789e-05
9.45714e-07
-1.54661e-05
1.02417e-06
-1.534e-05
8.5288e-07
-1.52215e-05
9.41123e-07
-1.51182e-05
9.0104e-07
-1.50486e-05
9.13996e-07
-1.50466e-05
1.02523e-06
-1.50309e-05
1.14777e-06
1.73521e-06
-1.48449e-05
1.71383e-05
-1.02914e-05
-2.2085e-05
1.85417e-05
-9.50795e-06
1.58077e-05
-1.03848e-05
-2.7429e-05
-2.17732e-06
2.22511e-06
2.00254e-05
-2.04114e-06
2.07646e-05
-1.86835e-06
2.13327e-05
-1.5862e-06
2.16792e-05
-1.2889e-06
2.18983e-05
-9.39347e-07
2.20501e-05
-5.04432e-07
2.21034e-05
-7.06111e-08
2.21125e-05
3.02619e-07
2.21506e-05
7.24583e-07
2.21052e-05
1.11719e-06
2.20254e-05
1.43833e-06
2.1929e-05
1.72793e-06
2.17657e-05
1.9667e-06
2.14744e-05
2.10621e-06
2.10978e-05
2.17992e-06
2.05427e-05
2.20696e-06
1.97282e-05
2.11594e-06
1.86657e-05
-1.34782e-05
1.71037e-05
-1.02214e-05
1.57235e-05
-7.79012e-06
1.44765e-05
-6.09268e-06
1.31123e-05
-4.67979e-06
-5.07476e-06
1.1974e-05
2.40826e-07
-8.84258e-07
1.93632e-05
-2.31523e-05
1.27478e-05
3.30764e-06
-1.20423e-05
-3.99487e-06
1.32191e-05
2.93769e-06
1.36866e-05
2.60217e-06
1.41097e-05
2.29348e-06
1.4476e-05
2.00091e-06
1.47635e-05
1.72639e-06
1.49908e-05
1.48457e-06
1.51843e-05
1.27876e-06
1.53317e-05
1.12003e-06
1.54569e-05
9.95251e-07
1.55671e-05
9.11862e-07
1.56661e-05
8.64322e-07
1.5756e-05
8.447e-07
1.58399e-05
8.43817e-07
1.59228e-05
8.66237e-07
1.59967e-05
8.91308e-07
1.60653e-05
9.23737e-07
1.61222e-05
9.62892e-07
1.61733e-05
1.00904e-06
1.6221e-05
1.06306e-06
1.62693e-05
1.12186e-06
1.63218e-05
1.18394e-06
1.63804e-05
1.2498e-06
1.6447e-05
1.31613e-06
1.65214e-05
1.38481e-06
1.66086e-05
1.45287e-06
1.67097e-05
1.52213e-06
1.68158e-05
1.5908e-06
1.69437e-05
1.66558e-06
1.71e-05
1.73554e-06
1.72565e-05
1.80016e-06
1.7365e-05
1.89066e-06
1.75621e-05
1.9265e-06
1.77385e-05
1.9661e-06
1.79267e-05
1.98876e-06
1.8056e-05
2.07074e-06
1.82544e-05
2.06934e-06
1.84333e-05
2.08148e-06
1.85483e-05
2.1421e-06
1.87165e-05
2.13208e-06
1.8841e-05
2.17102e-06
1.89619e-05
2.16867e-06
1.85782e-05
-1.17326e-05
-1.88993e-05
-2.51068e-06
-1.78262e-05
1.54539e-05
-1.8823e-05
-2.01686e-05
1.95015e-05
-1.2264e-05
1.29866e-05
-2.07389e-05
-1.34099e-05
1.40381e-05
-1.48549e-05
-2.14512e-05
-1.81229e-05
-2.72339e-06
-2.21971e-05
-2.07977e-05
-1.7308e-05
-2.02746e-05
-1.9135e-05
2.87873e-05
-2.83265e-05
-1.51254e-06
1.52147e-05
-1.02799e-05
9.03868e-06
-1.3924e-05
-2.85644e-05
2.64187e-05
-2.0915e-06
1.45954e-05
-9.40137e-06
1.2872e-05
3.21153e-07
-8.17031e-06
1.72981e-05
8.06202e-06
3.72205e-05
-3.62898e-05
1.80252e-06
2.32713e-06
3.73791e-05
1.34362e-05
1.18015e-06
1.3515e-05
1.07851e-06
1.36267e-05
9.22067e-07
1.37307e-05
8.16824e-07
1.3876e-05
7.59637e-07
1.40371e-05
7.80336e-07
1.40827e-05
8.02921e-07
1.42962e-05
8.01082e-07
1.44177e-05
8.09165e-07
1.45162e-05
8.0701e-07
1.4607e-05
8.32516e-07
1.46817e-05
8.80066e-07
1.47448e-05
9.26345e-07
1.48049e-05
9.73641e-07
1.48687e-05
1.02527e-06
1.49224e-05
1.07988e-06
1.49823e-05
1.13603e-06
1.50404e-05
1.20057e-06
1.5108e-05
1.25759e-06
1.51839e-05
1.31783e-06
1.52632e-05
1.37843e-06
1.5355e-05
1.43094e-06
1.54533e-05
1.49068e-06
1.55611e-05
1.54456e-06
1.56821e-05
1.59057e-06
1.58075e-05
1.63853e-06
1.59386e-05
1.68266e-06
1.6085e-05
1.72037e-06
1.62228e-05
1.75313e-06
1.63641e-05
1.80487e-06
1.65198e-05
1.81159e-06
1.66613e-05
1.86279e-06
1.67981e-05
1.88397e-06
1.69568e-05
1.91188e-06
1.70769e-05
1.94354e-06
1.72249e-05
1.95025e-06
2.75424e-06
3.72576e-05
-3.46504e-06
-2.18627e-06
2.15578e-06
1.90494e-05
-2.1424e-06
2.01207e-05
-2.04241e-06
2.0884e-05
-1.84199e-06
2.14295e-05
-1.56345e-06
2.17681e-05
-1.26071e-06
2.20241e-05
-8.60175e-07
2.2127e-05
-4.56101e-07
2.22121e-05
-7.47775e-08
2.2265e-05
3.4507e-07
2.22714e-05
7.54546e-07
2.22272e-05
1.11525e-06
2.21719e-05
1.43968e-06
2.20731e-05
1.7425e-06
2.18806e-05
1.96104e-06
2.16125e-05
2.10636e-06
2.12392e-05
2.21281e-06
2.06473e-05
2.20257e-06
1.987e-05
2.15326e-06
1.8767e-05
1.99445e-06
1.73588e-05
1.83367e-05
-9.99297e-06
-4.2477e-06
-1.6808e-05
-1.1206e-05
1.87053e-05
1.20549e-05
9.94732e-06
3.83232e-05
-2.97115e-05
-1.84903e-05
6.515e-06
-3.35024e-05
3.79496e-06
-3.45708e-05
2.21454e-06
-3.46464e-05
3.47375e-05
8.70456e-07
-3.33306e-05
3.52793e-05
1.32815e-06
3.5812e-05
1.86276e-06
-3.63373e-06
4.6844e-06
3.48264e-05
9.47759e-06
-4.3061e-06
2.0649e-06
3.49417e-05
-3.45069e-05
-2.43148e-06
7.48643e-06
1.41707e-05
-6.39943e-06
6.14338e-06
1.1121e-05
-1.32772e-05
-3.93383e-06
1.3935e-05
-2.01791e-05
-1.13136e-05
1.92815e-05
-2.09991e-05
-1.25342e-05
-1.38495e-05
-2.19463e-05
-2.83315e-06
-1.76905e-05
1.81615e-05
-1.10097e-05
-1.88292e-05
2.56218e-06
-1.2562e-06
1.59511e-05
-7.56999e-06
1.41864e-05
-5.97372e-06
1.27223e-05
-4.58617e-06
1.19412e-05
-3.86478e-06
-3.67151e-06
1.05606e-05
-7.7746e-06
1.33476e-05
6.41962e-06
3.78398e-06
-1.54803e-06
-6.65293e-06
4.42068e-06
1.04642e-05
3.27317e-06
-4.05765e-06
-9.67133e-06
1.10673e-05
2.71262e-06
1.16122e-05
2.40035e-06
1.20967e-05
2.12552e-06
1.25213e-05
1.87753e-06
1.28898e-05
1.64161e-06
1.32041e-05
1.42141e-06
1.34663e-05
1.23146e-06
1.36795e-05
1.07381e-06
1.38603e-05
9.45802e-07
1.40064e-05
8.53574e-07
1.41341e-05
7.8577e-07
1.42447e-05
7.51766e-07
1.43417e-05
7.41305e-07
1.44282e-05
7.45816e-07
1.45121e-05
7.65643e-07
1.45849e-05
7.96683e-07
1.46508e-05
8.31156e-07
1.47087e-05
8.73771e-07
1.47636e-05
9.1903e-07
1.48126e-05
9.75622e-07
1.48618e-05
1.03203e-06
1.49173e-05
1.08687e-06
1.49753e-05
1.15055e-06
1.50436e-05
1.20804e-06
1.51142e-05
1.27661e-06
1.5199e-05
1.3341e-06
1.52933e-05
1.39829e-06
1.54021e-05
1.45779e-06
1.5517e-05
1.53214e-06
1.56612e-05
1.57867e-06
1.58052e-05
1.64897e-06
1.5984e-05
1.70964e-06
1.61549e-05
1.75774e-06
1.63226e-05
1.80382e-06
1.64587e-05
1.86047e-06
1.6629e-05
1.9087e-06
1.68137e-05
1.89195e-06
1.6943e-05
1.95698e-06
1.712e-05
1.96603e-06
1.72688e-05
1.97981e-06
1.73935e-05
2.03733e-06
1.75279e-05
2.01857e-06
1.76395e-05
2.02162e-06
1.7124e-05
1.01317e-05
-1.81728e-05
1.58394e-05
8.81402e-06
-6.08813e-06
7.7066e-06
1.42587e-05
-2.5466e-05
2.18089e-06
2.55883e-05
-2.22197e-06
1.21152e-05
-3.99831e-06
-3.08842e-06
-1.74085e-05
-1.04356e-06
3.29243e-05
9.80448e-07
6.07742e-06
1.04654e-05
-4.40005e-06
4.68237e-06
3.44721e-05
-6.7379e-06
-3.23279e-05
-2.15628e-05
-1.94442e-05
-2.19028e-05
-1.66143e-05
-2.2083e-05
1.01473e-05
-1.86873e-05
1.73994e-05
1.96511e-05
-1.1288e-05
-2.08447e-05
1.85342e-05
3.65661e-05
-1.97951e-05
2.75254e-05
2.57348e-06
-1.22148e-06
-3.4851e-05
5.66493e-06
3.39489e-05
2.34991e-05
-2.0963e-05
-2.70098e-05
-1.23539e-05
-3.16211e-06
1.15528e-05
-4.77453e-06
-3.43e-05
1.38726e-06
-3.35576e-05
6.56973e-07
-3.21395e-05
-4.82979e-07
1.14672e-05
8.74492e-07
1.17181e-05
8.23696e-07
1.18829e-05
7.51086e-07
1.20238e-05
6.66247e-07
1.21477e-05
6.21962e-07
1.23049e-05
6.04487e-07
1.24255e-05
6.57541e-07
1.25737e-05
6.21416e-07
1.26675e-05
6.76424e-07
1.27505e-05
6.77771e-07
1.28156e-05
7.14261e-07
1.28954e-05
7.40459e-07
1.29617e-05
7.9394e-07
1.3026e-05
8.37524e-07
1.30857e-05
8.88899e-07
1.31424e-05
9.42412e-07
1.3202e-05
9.92731e-07
1.32657e-05
1.05124e-06
1.33333e-05
1.10365e-06
1.34083e-05
1.15719e-06
1.34897e-05
1.21327e-06
1.35776e-05
1.26171e-06
1.36776e-05
1.31254e-06
1.37887e-05
1.35901e-06
1.39035e-05
1.4047e-06
1.4029e-05
1.44513e-06
1.41634e-05
1.48263e-06
1.43006e-05
1.51904e-06
1.44379e-05
1.55252e-06
1.45969e-05
1.58203e-06
1.4723e-05
1.6202e-06
1.48694e-05
1.64826e-06
1.50259e-05
1.65523e-06
1.51589e-05
1.70158e-06
1.53074e-05
1.7121e-06
1.54276e-05
1.74033e-06
1.558e-05
1.74482e-06
-9.78484e-06
-2.44217e-06
8.5756e-06
-1.08984e-05
-2.72146e-06
-1.21429e-05
-3.30205e-06
-1.39137e-05
-4.15339e-06
-1.6166e-05
-5.26029e-06
-1.91214e-05
-6.48789e-06
-1.29523e-05
1.04722e-05
9.84471e-06
-7.52016e-06
1.77418e-05
-1.50326e-05
1.45144e-05
-1.01666e-05
1.8291e-05
9.01932e-06
1.61279e-05
-1.82852e-06
3.56792e-05
1.03845e-06
2.26017e-06
3.7133e-05
1.06154e-05
-2.05089e-05
-8.23284e-06
-1.24422e-05
-2.21963e-05
2.01536e-05
-6.79204e-06
4.62852e-06
-1.79024e-05
4.40563e-07
-1.3223e-05
6.06924e-07
-1.69952e-05
1.849e-05
-1.02657e-05
8.2157e-06
-5.51232e-06
-2.89979e-05
2.63445e-05
-3.60495e-05
-4.05282e-08
3.4725e-05
-7.1977e-06
-2.2237e-05
-2.15015e-06
2.01425e-06
1.77451e-05
-2.19952e-06
1.91481e-05
-2.14667e-06
2.0199e-05
-2.01552e-06
2.09641e-05
-1.79904e-06
2.15012e-05
-1.53137e-06
2.1859e-05
-1.18125e-06
2.20931e-05
-8.2663e-07
2.22398e-05
-4.5694e-07
2.23452e-05
-3.90142e-08
2.23713e-05
3.72903e-07
2.23902e-05
7.56893e-07
2.23653e-05
1.12194e-06
2.2305e-05
1.45615e-06
2.21984e-05
1.73808e-06
2.20074e-05
1.95719e-06
2.17414e-05
2.14502e-06
2.13297e-05
2.22056e-06
2.07745e-05
2.22195e-06
1.99919e-05
2.13603e-06
1.88966e-05