/*--------------------------------*- C++ -*----------------------------------*\
| =========                 |                                                 |
| \\      /  F ield         | OpenFOAM: The Open Source CFD Toolbox           |
|  \\    /   O peration     | Version:  2212                                  |
|   \\  /    A nd           | Website:  www.openfoam.com                      |
|    \\/     M anipulation  |                                                 |
\*---------------------------------------------------------------------------*/
FoamFile
{
    version     2.0;
    format      ascii;
    arch        "LSB;label=32;scalar=64";
    class       volVectorField;
    location    "7.2e-05";
    object      U;
}
// * * * * * * * * * * * * * * * * * * * * * * * * * * * * * * * * * * * * * //

dimensions      [0 1 -1 0 0 0 0];

internalField   nonuniform List<vector> 
6888
(
(-1.18469 -0.0829578 3.11637)
(-0.403858 -0.339012 3.0244)
(-0.434073 -0.285895 2.87977)
(-0.254321 -0.518752 2.67624)
(-0.251596 -0.49504 2.49046)
(-0.180819 -0.648076 2.24286)
(-0.174234 -0.681061 2.0387)
(-0.134526 -0.696056 1.70043)
(-0.12788 -0.781447 1.49117)
(-0.108029 -0.634024 1.15658)
(-0.100853 -0.809266 1.02833)
(-0.0905967 -0.564333 0.740367)
(-0.0824489 -0.812031 0.684176)
(-0.0765086 -0.461062 0.410311)
(-0.0684805 -0.741231 0.393816)
(-0.0650161 -0.380289 0.140629)
(-0.0581027 -0.57908 0.137897)
(-0.0551789 -0.321217 -0.131715)
(-0.049233 -0.411791 -0.336943)
(-0.0399933 -0.551464 -2.66347)
(-1.18402 -0.0186627 3.96014)
(-0.405463 -0.229234 3.84225)
(-0.436563 -0.135673 3.67937)
(-0.256665 -0.354953 3.44584)
(-0.254223 -0.314135 3.23782)
(-0.182802 -0.469071 2.95686)
(-0.176621 -0.480973 2.72681)
(-0.136702 -0.492726 2.34477)
(-0.130065 -0.576376 2.12256)
(-0.11001 -0.460932 1.76669)
(-0.10241 -0.671412 1.64389)
(-0.0918459 -0.465631 1.33665)
(-0.0832937 -0.74359 1.28386)
(-0.0772158 -0.413538 1.00553)
(-0.0689624 -0.710542 0.996638)
(-0.0654925 -0.354789 0.772769)
(-0.0586024 -0.549774 0.775364)
(-0.056112 -0.24401 0.571497)
(-0.0507433 -0.260026 0.412888)
(-0.0414884 -0.397748 -1.75111)
(-1.19798 0.0651438 3.45362)
(-0.408444 -0.0960885 3.32441)
(-0.440526 0.0485324 3.15842)
(-0.259932 -0.157252 2.9367)
(-0.258582 -0.0813812 2.71952)
(-0.186365 -0.236874 2.43751)
(-0.180696 -0.215941 2.18633)
(-0.140015 -0.239427 1.81577)
(-0.133589 -0.309788 1.59778)
(-0.112585 -0.235443 1.27871)
(-0.105324 -0.442823 1.16563)
(-0.0940819 -0.276469 0.879216)
(-0.0858349 -0.567251 0.831424)
(-0.0792285 -0.276295 0.57605)
(-0.0709273 -0.596575 0.587308)
(-0.0670638 -0.270201 0.396031)
(-0.0598171 -0.495282 0.430995)
(-0.0568244 -0.2398 0.285237)
(-0.0508562 -0.355595 0.19379)
(-0.0413457 -0.455682 -1.78634)
(-1.23829 0.151491 3.22733)
(-0.422503 0.044526 3.10223)
(-0.452977 0.225851 2.94524)
(-0.26881 0.0447143 2.74605)
(-0.266407 0.149131 2.53621)
(-0.19307 0.00233604 2.2753)
(-0.187179 0.0428581 2.02154)
(-0.145398 -0.000123182 1.68658)
(-0.138589 -0.0869268 1.49129)
(-0.117044 -0.046735 1.22089)
(-0.109157 -0.27456 1.13117)
(-0.0975127 -0.128008 0.883658)
(-0.088595 -0.450875 0.858224)
(-0.0818622 -0.180924 0.637528)
(-0.0727741 -0.530331 0.667197)
(-0.0690539 -0.218209 0.501215)
(-0.0612527 -0.453582 0.538154)
(-0.0583126 -0.202806 0.439457)
(-0.0528323 -0.237547 0.347296)
(-0.0427825 -0.354827 -1.67022)
(-1.26 0.224493 2.55213)
(-0.431211 0.161668 2.4413)
(-0.461761 0.379576 2.30989)
(-0.275584 0.229242 2.12499)
(-0.272104 0.35879 1.93103)
(-0.197894 0.232222 1.68263)
(-0.191402 0.281418 1.43136)
(-0.149727 0.224348 1.11181)
(-0.14246 0.119358 0.927608)
(-0.120705 0.133669 0.675972)
(-0.112509 -0.103225 0.583325)
(-0.100578 0.0222594 0.35285)
(-0.0911911 -0.324992 0.329481)
(-0.0843078 -0.0850853 0.111133)
(-0.0744831 -0.472691 0.145777)
(-0.0707666 -0.183389 -0.0197097)
(-0.0622799 -0.452993 0.0225859)
(-0.0601043 -0.185479 -0.0258399)
(-0.0531638 -0.296193 -0.0985707)
(-0.0432573 -0.385979 -1.90885)
(-1.29839 0.298304 1.81928)
(-0.442745 0.259506 1.73246)
(-0.475581 0.532129 1.63236)
(-0.285048 0.397966 1.46181)
(-0.279961 0.564527 1.30161)
(-0.204531 0.449711 1.06354)
(-0.196643 0.502019 0.853386)
(-0.15442 0.427796 0.561594)
(-0.146464 0.298142 0.410464)
(-0.124268 0.29191 0.177727)
(-0.115676 0.04498 0.093852)
(-0.103587 0.143347 -0.107509)
(-0.093596 -0.218087 -0.136774)
(-0.0864751 -0.012791 -0.325088)
(-0.0761285 -0.420939 -0.291683)
(-0.0721076 -0.160674 -0.431223)
(-0.0634029 -0.446602 -0.387703)
(-0.0610652 -0.185679 -0.411745)
(-0.0532674 -0.361137 -0.491889)
(-0.0439199 -0.403517 -2.24838)
(-1.31771 0.357557 0.997088)
(-0.447042 0.325013 0.938805)
(-0.484049 0.648797 0.877973)
(-0.289643 0.528454 0.723628)
(-0.285843 0.740823 0.604844)
(-0.209848 0.637308 0.383543)
(-0.2016 0.704989 0.219383)
(-0.158643 0.605473 -0.0592919)
(-0.150311 0.473344 -0.171744)
(-0.12749 0.436705 -0.401629)
(-0.118748 0.187201 -0.463958)
(-0.10611 0.247862 -0.65543)
(-0.0960447 -0.108601 -0.678331)
(-0.0883256 0.0490598 -0.848161)
(-0.0779993 -0.353214 -0.816115)
(-0.0736517 -0.137072 -0.94265)
(-0.0645875 -0.427761 -0.878965)
(-0.0623189 -0.187822 -0.89219)
(-0.0532734 -0.427858 -0.984842)
(-0.0445482 -0.429078 -2.65825)
(-1.3527 0.408628 0.116645)
(-0.462399 0.384441 0.0663001)
(-0.494023 0.74342 0.0469896)
(-0.296275 0.645636 -0.0855537)
(-0.291713 0.888889 -0.158307)
(-0.215009 0.801283 -0.346061)
(-0.205723 0.871432 -0.450994)
(-0.162844 0.765674 -0.690131)
(-0.15358 0.614561 -0.768544)
(-0.130469 0.568523 -0.984868)
(-0.121278 0.29906 -1.02192)
(-0.108334 0.353943 -1.20952)
(-0.0979727 -0.0251256 -1.2184)
(-0.0900533 0.118468 -1.37725)
(-0.0792395 -0.313143 -1.34279)
(-0.0748349 -0.113164 -1.4564)
(-0.0651654 -0.440053 -1.37526)
(-0.0630617 -0.197484 -1.38723)
(-0.0532683 -0.495286 -1.49457)
(-0.04542 -0.439157 -3.11702)
(-1.38304 0.437599 -0.709269)
(-0.477955 0.425226 -0.764058)
(-0.502225 0.802777 -0.744997)
(-0.304824 0.732748 -0.854496)
(-0.297131 0.990894 -0.881906)
(-0.220721 0.920586 -1.03034)
(-0.209815 0.99126 -1.08377)
(-0.167207 0.898525 -1.29001)
(-0.156873 0.745483 -1.34681)
(-0.134113 0.706996 -1.5577)
(-0.124001 0.411028 -1.58602)
(-0.111244 0.4714 -1.77868)
(-0.0999049 0.0516505 -1.77512)
(-0.0923616 0.198482 -1.94001)
(-0.0806577 -0.274076 -1.90991)
(-0.076922 -0.0696172 -2.02051)
(-0.0656822 -0.469043 -1.95048)
(-0.0645427 -0.173916 -1.93889)
(-0.053086 -0.57366 -2.04185)
(-0.0466392 -0.418023 -3.64846)
(-1.39325 0.44098 -1.45815)
(-0.490594 0.450158 -1.54291)
(-0.508484 0.828002 -1.48602)
(-0.311821 0.79515 -1.57833)
(-0.302015 1.0562 -1.57064)
(-0.226027 1.02059 -1.68736)
(-0.213793 1.08575 -1.7075)
(-0.171514 1.02421 -1.89115)
(-0.160046 0.855539 -1.93088)
(-0.137714 0.847372 -2.13433)
(-0.126701 0.522042 -2.15299)
(-0.114243 0.603228 -2.34662)
(-0.10191 0.132737 -2.34013)
(-0.0948746 0.297594 -2.5176)
(-0.0819135 -0.234827 -2.48593)
(-0.0783264 -0.0155399 -2.59725)
(-0.0656849 -0.513811 -2.55179)
(-0.0658861 -0.143355 -2.52924)
(-0.0527509 -0.67549 -2.60929)
(-0.0477632 -0.403071 -4.27666)
(-1.39877 0.427166 -2.14642)
(-0.495399 0.458206 -2.25475)
(-0.512071 0.838987 -2.17411)
(-0.317397 0.829304 -2.25738)
(-0.30621 1.10221 -2.22459)
(-0.230691 1.08077 -2.31594)
(-0.21721 1.15922 -2.30617)
(-0.175251 1.11733 -2.47002)
(-0.163233 0.961087 -2.49618)
(-0.141252 0.970876 -2.69519)
(-0.129717 0.642022 -2.70793)
(-0.117498 0.727948 -2.89903)
(-0.104385 0.232864 -2.89327)
(-0.0977189 0.402506 -3.08532)
(-0.0836875 -0.179162 -3.0626)
(-0.0806515 0.0592325 -3.17438)
(-0.0666372 -0.532574 -3.14834)
(-0.067483 -0.110496 -3.13269)
(-0.0525638 -0.769175 -3.15958)
(-0.048113 -0.438074 -4.93686)
(-1.40357 0.407746 -2.78634)
(-0.499316 0.451948 -2.90681)
(-0.517526 0.834939 -2.80359)
(-0.321275 0.837959 -2.8696)
(-0.309501 1.11891 -2.81362)
(-0.233609 1.10743 -2.88417)
(-0.219662 1.20406 -2.84752)
(-0.177743 1.1812 -2.98142)
(-0.165665 1.04834 -2.98115)
(-0.143635 1.07018 -3.16543)
(-0.132004 0.753259 -3.16091)
(-0.119738 0.830951 -3.34233)
(-0.106382 0.338142 -3.33088)
(-0.0993648 0.482732 -3.5299)
(-0.0850552 -0.106174 -3.49459)
(-0.0819015 0.108856 -3.62812)
(-0.0673874 -0.512633 -3.59901)
(-0.0682633 -0.106874 -3.62993)
(-0.0527755 -0.827906 -3.63207)
(-0.0478353 -0.516427 -5.512)
(-1.40723 0.3867 -3.34816)
(-0.50299 0.439393 -3.47086)
(-0.523756 0.820734 -3.36233)
(-0.325151 0.826737 -3.42125)
(-0.312583 1.11568 -3.34561)
(-0.236367 1.11525 -3.39799)
(-0.222021 1.22647 -3.33482)
(-0.18035 1.22318 -3.4392)
(-0.168058 1.11294 -3.41026)
(-0.146188 1.15012 -3.5667)
(-0.134463 0.844274 -3.54071)
(-0.122065 0.922173 -3.70128)
(-0.10865 0.433835 -3.68698)
(-0.101385 0.568411 -3.87696)
(-0.0872802 -0.0289242 -3.85131)
(-0.0835215 0.164686 -3.99343)
(-0.0691189 -0.477112 -3.9604)
(-0.0690624 -0.104219 -4.03009)
(-0.0533507 -0.851739 -4.0163)
(-0.047372 -0.605907 -5.9889)
(-1.42413 0.367254 -3.8252)
(-0.511292 0.430311 -3.9486)
(-0.528021 0.797879 -3.83061)
(-0.328778 0.808376 -3.88427)
(-0.314653 1.09237 -3.79536)
(-0.238701 1.10473 -3.82916)
(-0.223696 1.22413 -3.74195)
(-0.182066 1.24493 -3.81122)
(-0.169378 1.14786 -3.74627)
(-0.147839 1.20113 -3.86875)
(-0.135769 0.901602 -3.81394)
(-0.123669 0.993874 -3.95413)
(-0.110117 0.512262 -3.92336)
(-0.103063 0.652811 -4.1029)
(-0.088531 0.0466598 -4.06627)
(-0.0848015 0.237839 -4.21874)
(-0.0699698 -0.43136 -4.16956)
(-0.0697993 -0.086103 -4.28414)
(-0.0540863 -0.855837 -4.29053)
(-0.0469837 -0.686153 -6.35107)
(-1.42749 0.342649 -4.2225)
(-0.5184 0.419956 -4.34757)
(-0.533171 0.76846 -4.22853)
(-0.333455 0.784055 -4.2745)
(-0.318305 1.06099 -4.1801)
(-0.242502 1.08155 -4.19988)
(-0.227199 1.20586 -4.09738)
(-0.185353 1.24416 -4.13825)
(-0.172246 1.15546 -4.04795)
(-0.150494 1.22777 -4.13869)
(-0.137937 0.940527 -4.0627)
(-0.125983 1.05876 -4.17465)
(-0.112281 0.581833 -4.1279)
(-0.105649 0.742783 -4.28616)
(-0.0909027 0.124036 -4.24209)
(-0.0872895 0.327874 -4.38633)
(-0.0718534 -0.378295 -4.32695)
(-0.0711045 -0.0442374 -4.43995)
(-0.0549682 -0.839691 -4.45526)
(-0.0468103 -0.742003 -6.58938)
(-1.43534 0.318817 -4.56161)
(-0.522789 0.399556 -4.68766)
(-0.536308 0.73221 -4.56705)
(-0.336294 0.748407 -4.60134)
(-0.320641 1.01879 -4.50186)
(-0.24456 1.04052 -4.51104)
(-0.228969 1.16633 -4.40366)
(-0.186562 1.21266 -4.42615)
(-0.173343 1.13829 -4.31508)
(-0.151675 1.22527 -4.37778)
(-0.139157 0.95778 -4.27655)
(-0.127454 1.0949 -4.35755)
(-0.113636 0.632869 -4.27708)
(-0.107013 0.801304 -4.40996)
(-0.0919516 0.188596 -4.34476)
(-0.0885411 0.39171 -4.48182)
(-0.0728188 -0.325309 -4.40596)
(-0.0722903 -0.00463669 -4.51971)
(-0.0558979 -0.815943 -4.5631)
(-0.0467233 -0.787447 -6.74762)
(-1.44068 0.293831 -4.85227)
(-0.528887 0.379262 -4.9813)
(-0.54412 0.697195 -4.86384)
(-0.341657 0.708795 -4.8966)
(-0.325847 0.977504 -4.80089)
(-0.248679 0.996475 -4.80416)
(-0.232885 1.12346 -4.6979)
(-0.189553 1.16924 -4.7024)
(-0.176462 1.10205 -4.57388)
(-0.15423 1.1942 -4.60025)
(-0.141815 0.951303 -4.48586)
(-0.130014 1.10174 -4.52806)
(-0.116045 0.663163 -4.42649)
(-0.109176 0.838727 -4.51679)
(-0.0942163 0.243854 -4.43517)
(-0.0904246 0.445691 -4.54551)
(-0.0750735 -0.266947 -4.45905)
(-0.0737448 0.0244902 -4.56317)
(-0.0569455 -0.779312 -4.63178)
(-0.0467628 -0.822262 -6.84085)
(-1.46069 0.275459 -5.0981)
(-0.537717 0.368915 -5.22718)
(-0.551626 0.670376 -5.11259)
(-0.346893 0.682982 -5.14805)
(-0.329463 0.940099 -5.05474)
(-0.25096 0.956228 -5.05425)
(-0.234484 1.06775 -4.94376)
(-0.190427 1.10858 -4.93062)
(-0.176748 1.03558 -4.78833)
(-0.154808 1.13837 -4.79378)
(-0.142303 0.909561 -4.6646)
(-0.130711 1.06793 -4.66992)
(-0.116879 0.654234 -4.54465)
(-0.110113 0.846437 -4.59374)
(-0.0951393 0.271374 -4.48704)
(-0.0915932 0.482047 -4.56936)
(-0.0757579 -0.226089 -4.47119)
(-0.0744808 0.052536 -4.56188)
(-0.0579422 -0.743212 -4.64843)
(-0.0470037 -0.844895 -6.85616)
(-1.47952 0.262942 -5.31872)
(-0.549043 0.366387 -5.45017)
(-0.561369 0.64872 -5.33369)
(-0.354719 0.664021 -5.37217)
(-0.335694 0.899554 -5.28167)
(-0.255815 0.91275 -5.27419)
(-0.239591 1.01146 -5.16284)
(-0.194495 1.05702 -5.14128)
(-0.18033 0.977683 -5.00338)
(-0.15798 1.08894 -4.9928)
(-0.144852 0.854909 -4.85772)
(-0.132856 1.02021 -4.83435)
(-0.118527 0.619737 -4.69092)
(-0.112097 0.838685 -4.69847)
(-0.0970451 0.276668 -4.56608)
(-0.0936682 0.512144 -4.60997)
(-0.0773558 -0.20771 -4.49447)
(-0.0761784 0.0801559 -4.55797)
(-0.0587565 -0.727059 -4.64214)
(-0.047566 -0.846357 -6.83944)
(-1.503 0.251227 -5.53263)
(-0.562652 0.366947 -5.66207)
(-0.570495 0.624327 -5.5413)
(-0.360609 0.645253 -5.58198)
(-0.33968 0.858986 -5.49472)
(-0.258381 0.874196 -5.48538)
(-0.241439 0.956983 -5.37851)
(-0.195625 0.999674 -5.35359)
(-0.181238 0.909519 -5.22288)
(-0.15901 1.02409 -5.20356)
(-0.145343 0.78267 -5.05625)
(-0.133407 0.950104 -5.02154)
(-0.118968 0.545776 -4.86823)
(-0.11253 0.786788 -4.84428)
(-0.0971295 0.22774 -4.67638)
(-0.0941443 0.501037 -4.68218)
(-0.0775172 -0.223109 -4.53989)
(-0.0768268 0.0899046 -4.57056)
(-0.0593722 -0.729622 -4.65116)
(-0.0483413 -0.835941 -6.83936)
(-1.52507 0.235576 -5.79258)
(-0.574047 0.364832 -5.92045)
(-0.577938 0.597371 -5.80222)
(-0.365516 0.623666 -5.84364)
(-0.345313 0.821629 -5.76276)
(-0.263269 0.837677 -5.7503)
(-0.246289 0.905646 -5.64752)
(-0.199303 0.946604 -5.61694)
(-0.184631 0.848966 -5.49336)
(-0.162038 0.952572 -5.46636)
(-0.147708 0.705026 -5.31678)
(-0.135829 0.882049 -5.26301)
(-0.120882 0.463897 -5.10675)
(-0.114736 0.71299 -5.06788)
(-0.0986195 0.148806 -4.88461)
(-0.0960672 0.460896 -4.84451)
(-0.079003 -0.263465 -4.67555)
(-0.0782134 0.0819029 -4.66832)
(-0.0599537 -0.745133 -4.72286)
(-0.04914 -0.829734 -6.89667)
(-1.54902 0.221261 -6.15115)
(-0.586432 0.368427 -6.27304)
(-0.587013 0.575777 -6.15853)
(-0.371028 0.606726 -6.19038)
(-0.349841 0.784452 -6.10424)
(-0.266551 0.797248 -6.08213)
(-0.248663 0.848376 -5.97767)
(-0.200733 0.883949 -5.93721)
(-0.185304 0.775362 -5.81864)
(-0.162508 0.866677 -5.77935)
(-0.147867 0.607961 -5.6379)
(-0.13602 0.78826 -5.56002)
(-0.120556 0.373596 -5.38549)
(-0.114368 0.619258 -5.33099)
(-0.0981504 0.0441965 -5.14394)
(-0.0957897 0.362099 -5.09443)
(-0.0783872 -0.354695 -4.91782)
(-0.0785571 0.0241943 -4.87491)
(-0.0603175 -0.789356 -4.9071)
(-0.0497922 -0.844916 -7.06321)
(-1.57401 0.209255 -6.68651)
(-0.598809 0.371746 -6.79039)
(-0.600098 0.552654 -6.67246)
(-0.37963 0.583458 -6.68506)
(-0.35801 0.740316 -6.59429)
(-0.272411 0.747418 -6.55718)
(-0.254308 0.780732 -6.44592)
(-0.205167 0.816113 -6.38903)
(-0.189376 0.696579 -6.2733)
(-0.165949 0.77683 -6.20585)
(-0.150202 0.505848 -6.06641)
(-0.138886 0.677674 -5.97197)
(-0.122931 0.265767 -5.78721)
(-0.116482 0.526881 -5.6997)
(-0.0994868 -0.0390686 -5.50047)
(-0.0970572 0.283105 -5.43468)
(-0.0788665 -0.447524 -5.25221)
(-0.079304 -0.0565536 -5.18833)
(-0.0604642 -0.86959 -5.20682)
(-0.0503508 -0.878587 -7.36004)
(-1.60612 0.1937 -7.3846)
(-0.610991 0.364854 -7.46035)
(-0.609893 0.518126 -7.33473)
(-0.384969 0.547695 -7.32794)
(-0.361091 0.678323 -7.22466)
(-0.273667 0.681429 -7.16406)
(-0.254459 0.689957 -7.03763)
(-0.205524 0.732994 -6.95524)
(-0.189735 0.591991 -6.83605)
(-0.166379 0.665282 -6.72851)
(-0.150673 0.387039 -6.57576)
(-0.139159 0.53871 -6.45574)
(-0.122985 0.117992 -6.25794)
(-0.116706 0.381406 -6.1508)
(-0.0998601 -0.174145 -5.9399)
(-0.0974767 0.169422 -5.85099)
(-0.079319 -0.540044 -5.65225)
(-0.0799611 -0.129307 -5.56751)
(-0.0606482 -0.953773 -5.57135)
(-0.0509731 -0.914841 -7.73066)
(-1.64577 0.166715 -8.22714)
(-0.630343 0.343152 -8.28423)
(-0.625785 0.468838 -8.14268)
(-0.395584 0.499956 -8.11764)
(-0.370914 0.602466 -7.9966)
(-0.281448 0.604365 -7.90672)
(-0.261298 0.587405 -7.76288)
(-0.210758 0.644045 -7.64923)
(-0.192903 0.480334 -7.5)
(-0.169129 0.538235 -7.35746)
(-0.152285 0.254906 -7.17887)
(-0.140196 0.392899 -7.02911)
(-0.123266 -0.041796 -6.83095)
(-0.116789 0.215652 -6.69788)
(-0.0994159 -0.351758 -6.47378)
(-0.0972573 0.00705666 -6.36345)
(-0.079126 -0.694286 -6.14071)
(-0.0805321 -0.247404 -6.026)
(-0.0607192 -1.06695 -5.99276)
(-0.0516277 -0.956667 -8.15705)
(-1.66462 0.131705 -9.06719)
(-0.635161 0.296769 -9.11503)
(-0.631709 0.391399 -8.95805)
(-0.400093 0.424338 -8.91336)
(-0.374902 0.489223 -8.77399)
(-0.284108 0.490495 -8.66763)
(-0.263587 0.44544 -8.50197)
(-0.212693 0.497342 -8.36732)
(-0.195061 0.309505 -8.17031)
(-0.171305 0.362433 -8.00524)
(-0.154117 0.0694896 -7.80631)
(-0.142367 0.216118 -7.63939)
(-0.124953 -0.214521 -7.43708)
(-0.118127 0.0607112 -7.28861)
(-0.0999512 -0.511669 -7.05209)
(-0.0979588 -0.135435 -6.92278)
(-0.0789705 -0.851665 -6.68766)
(-0.0808915 -0.379738 -6.57296)
(-0.0605913 -1.21466 -6.51187)
(-0.0521115 -1.02153 -8.69474)
(-1.67437 0.0840325 -9.79807)
(-0.637964 0.230974 -9.84591)
(-0.637691 0.284225 -9.68361)
(-0.403841 0.319847 -9.62727)
(-0.377989 0.346154 -9.47736)
(-0.285788 0.35195 -9.3667)
(-0.264917 0.274936 -9.17255)
(-0.212628 0.309693 -9.01241)
(-0.19402 0.0922542 -8.77947)
(-0.17047 0.155259 -8.59068)
(-0.152623 -0.156045 -8.37341)
(-0.141258 -0.00109773 -8.19372)
(-0.123771 -0.438038 -7.97566)
(-0.11748 -0.14969 -7.82224)
(-0.09961 -0.722129 -7.59127)
(-0.0984134 -0.315083 -7.45382)
(-0.0790902 -1.02734 -7.21755)
(-0.0814354 -0.506516 -7.11405)
(-0.0605221 -1.371 -7.0401)
(-0.0523072 -1.11328 -9.29894)
(-1.70517 0.0378407 -10.2347)
(-0.653885 0.170839 -10.2901)
(-0.651634 0.183816 -10.1329)
(-0.412 0.210086 -10.0716)
(-0.385093 0.207656 -9.91234)
(-0.291239 0.19915 -9.78773)
(-0.269945 0.093903 -9.59067)
(-0.216469 0.112819 -9.41185)
(-0.197631 -0.123701 -9.19247)
(-0.174075 -0.0477313 -8.99893)
(-0.155294 -0.372729 -8.78405)
(-0.143125 -0.213665 -8.60771)
(-0.124287 -0.662204 -8.38407)
(-0.117748 -0.366094 -8.22224)
(-0.0993494 -0.938402 -7.99253)
(-0.0984701 -0.500546 -7.85812)
(-0.0789946 -1.20157 -7.62758)
(-0.0821616 -0.629131 -7.5358)
(-0.060871 -1.49042 -7.48153)
(-0.0524692 -1.19779 -9.84098)
(-1.70424 -0.0172515 -10.3728)
(-0.649749 0.102113 -10.4451)
(-0.65198 0.0656627 -10.2889)
(-0.411068 0.081434 -10.2369)
(-0.385091 0.0394164 -10.0753)
(-0.29 0.0248293 -9.95042)
(-0.268504 -0.117722 -9.75821)
(-0.214175 -0.104798 -9.57816)
(-0.195563 -0.362273 -9.36946)
(-0.172937 -0.282639 -9.18662)
(-0.153966 -0.622263 -8.98555)
(-0.142221 -0.44573 -8.82594)
(-0.123933 -0.895334 -8.63349)
(-0.118522 -0.565729 -8.47951)
(-0.0996732 -1.13158 -8.26698)
(-0.0993333 -0.666283 -8.14058)
(-0.0792925 -1.3565 -7.93996)
(-0.083209 -0.741156 -7.86175)
(-0.061414 -1.59162 -7.83978)
(-0.0524288 -1.29543 -10.2677)
(-1.7284 -0.0691555 -10.4042)
(-0.663383 0.033631 -10.479)
(-0.665968 -0.0434123 -10.3118)
(-0.420641 -0.0321834 -10.2604)
(-0.393791 -0.106271 -10.0995)
(-0.296599 -0.124428 -9.98671)
(-0.274582 -0.292794 -9.80629)
(-0.218613 -0.283533 -9.64037)
(-0.198366 -0.559416 -9.45903)
(-0.174373 -0.477635 -9.29225)
(-0.154105 -0.834837 -9.12333)
(-0.142312 -0.645434 -8.96996)
(-0.123362 -1.09937 -8.80198)
(-0.118495 -0.747958 -8.65897)
(-0.0996303 -1.31146 -8.48014)
(-0.0995432 -0.808058 -8.36636)
(-0.0793556 -1.49333 -8.19362)
(-0.0831438 -0.860263 -8.12717)
(-0.0618987 -1.68905 -8.16724)
(-0.0522127 -1.40638 -10.6568)
(-1.75051 -0.116808 -10.3346)
(-0.670511 -0.0318824 -10.4203)
(-0.676245 -0.153282 -10.2456)
(-0.424829 -0.149716 -10.2003)
(-0.398297 -0.256909 -10.0422)
(-0.298669 -0.28535 -9.92971)
(-0.276983 -0.471887 -9.76444)
(-0.220667 -0.457002 -9.60713)
(-0.200741 -0.742987 -9.47041)
(-0.177187 -0.644193 -9.32069)
(-0.1571 -1.00675 -9.19851)
(-0.145541 -0.796497 -9.07195)
(-0.126085 -1.25987 -8.93246)
(-0.120324 -0.892957 -8.8206)
(-0.100597 -1.45918 -8.66533)
(-0.100798 -0.945035 -8.58158)
(-0.0804561 -1.62086 -8.41529)
(-0.0845175 -0.957553 -8.37681)
(-0.062679 -1.74997 -8.47155)
(-0.0520137 -1.51233 -11.0226)
(-1.75541 -0.175565 -10.127)
(-0.670496 -0.116528 -10.2196)
(-0.679716 -0.287529 -10.027)
(-0.424092 -0.289696 -9.99459)
(-0.40014 -0.428542 -9.83888)
(-0.299019 -0.448477 -9.73681)
(-0.277803 -0.652247 -9.60113)
(-0.220287 -0.61569 -9.46313)
(-0.199863 -0.920434 -9.35898)
(-0.176262 -0.801572 -9.24739)
(-0.155858 -1.16421 -9.14595)
(-0.144965 -0.949389 -9.07224)
(-0.125577 -1.39693 -8.96186)
(-0.120257 -1.0231 -8.90809)
(-0.100603 -1.57417 -8.77653)
(-0.101078 -1.05513 -8.73196)
(-0.0803775 -1.71342 -8.59918)
(-0.0851383 -1.05838 -8.58009)
(-0.0632562 -1.81653 -8.72132)
(-0.0520736 -1.59386 -11.3191)
(-1.79669 -0.221979 -9.81399)
(-0.689297 -0.190359 -9.90315)
(-0.698764 -0.388716 -9.70999)
(-0.435956 -0.384326 -9.68353)
(-0.410171 -0.550855 -9.5337)
(-0.306053 -0.553571 -9.45176)
(-0.283946 -0.768563 -9.33485)
(-0.22511 -0.714865 -9.24235)
(-0.204388 -1.00304 -9.15111)
(-0.180293 -0.878553 -9.09982)
(-0.159662 -1.22279 -9.0147)
(-0.148592 -0.994198 -8.99384)
(-0.128367 -1.44389 -8.92466)
(-0.123162 -1.06699 -8.91004)
(-0.102798 -1.62712 -8.82647)
(-0.103279 -1.11272 -8.81149)
(-0.0822265 -1.76719 -8.72831)
(-0.0863168 -1.11661 -8.71142)
(-0.0638402 -1.87029 -8.91359)
(-0.0524221 -1.65416 -11.5474)
(-1.81348 -0.275404 -9.46908)
(-0.693212 -0.263977 -9.5472)
(-0.704561 -0.499687 -9.38289)
(-0.438507 -0.491256 -9.36619)
(-0.412438 -0.677112 -9.23637)
(-0.306647 -0.664959 -9.17705)
(-0.285128 -0.875069 -9.0665)
(-0.226234 -0.802398 -9.0122)
(-0.20596 -1.07433 -8.92925)
(-0.181907 -0.93146 -8.90885)
(-0.161316 -1.26843 -8.85085)
(-0.150004 -1.02376 -8.85047)
(-0.129688 -1.47118 -8.81711)
(-0.124501 -1.08983 -8.83048)
(-0.104166 -1.6421 -8.79652)
(-0.104879 -1.12664 -8.82471)
(-0.0829775 -1.795 -8.80037)
(-0.0877246 -1.14284 -8.78293)
(-0.0644664 -1.91066 -9.04865)
(-0.0531441 -1.68555 -11.7149)
(-1.84823 -0.320578 -9.19231)
(-0.707121 -0.309892 -9.26265)
(-0.716734 -0.57223 -9.12694)
(-0.444643 -0.563413 -9.12108)
(-0.418749 -0.760659 -9.00685)
(-0.312979 -0.737335 -8.96117)
(-0.290899 -0.94297 -8.86208)
(-0.230958 -0.85236 -8.82333)
(-0.209788 -1.11291 -8.75193)
(-0.185508 -0.945355 -8.7354)
(-0.164449 -1.27932 -8.69307)
(-0.153457 -1.00448 -8.69614)
(-0.132775 -1.44682 -8.684)
(-0.127763 -1.0529 -8.72349)
(-0.106955 -1.59678 -8.72752)
(-0.10732 -1.08742 -8.78559)
(-0.085027 -1.781 -8.79626)
(-0.089701 -1.12855 -8.79599)
(-0.0651801 -1.94013 -9.12539)
(-0.0543326 -1.68988 -11.8269)
(-1.8708 -0.361063 -9.08708)
(-0.718686 -0.347155 -9.15035)
(-0.731264 -0.63389 -9.03526)
(-0.454104 -0.632104 -9.04817)
(-0.424692 -0.847858 -8.95272)
(-0.314761 -0.823815 -8.92279)
(-0.29134 -1.03419 -8.83314)
(-0.231812 -0.932208 -8.78655)
(-0.211837 -1.18331 -8.69355)
(-0.187747 -0.982472 -8.66958)
(-0.166914 -1.30696 -8.60433)
(-0.155789 -1.01609 -8.61542)
(-0.134978 -1.42789 -8.58515)
(-0.130041 -1.01075 -8.63434)
(-0.108855 -1.55995 -8.63707)
(-0.10972 -1.04021 -8.68802)
(-0.0864058 -1.757 -8.72462)
(-0.0921845 -1.08002 -8.74944)
(-0.0662069 -1.94819 -9.13067)
(-0.0561924 -1.65821 -11.8943)
(-1.89918 -0.38702 -9.27365)
(-0.720783 -0.370003 -9.32429)
(-0.729897 -0.687277 -9.20925)
(-0.450913 -0.687819 -9.22646)
(-0.42547 -0.921668 -9.13836)
(-0.318448 -0.892189 -9.10673)
(-0.297784 -1.10846 -9.00136)
(-0.239193 -0.988012 -8.94193)
(-0.217808 -1.23102 -8.83319)
(-0.193411 -1.00682 -8.79397)
(-0.171412 -1.32587 -8.70149)
(-0.160643 -1.00102 -8.69601)
(-0.139438 -1.3996 -8.62208)
(-0.134595 -0.953345 -8.62223)
(-0.11235 -1.51721 -8.59001)
(-0.113152 -0.967201 -8.6158)
(-0.0889327 -1.69712 -8.63901)
(-0.0952323 -0.993986 -8.65965)
(-0.067647 -1.9262 -9.03051)
(-0.0585856 -1.59241 -11.8774)
(-1.93802 -0.407245 -9.60487)
(-0.743082 -0.389011 -9.6557)
(-0.749442 -0.730042 -9.54614)
(-0.465024 -0.735483 -9.55852)
(-0.438552 -0.988784 -9.45654)
(-0.327849 -0.966296 -9.40879)
(-0.304084 -1.19675 -9.28874)
(-0.242143 -1.08622 -9.22687)
(-0.220515 -1.33484 -9.11052)
(-0.195058 -1.10922 -9.05692)
(-0.173282 -1.4192 -8.93475)
(-0.162362 -1.08235 -8.90877)
(-0.140883 -1.4875 -8.79054)
(-0.136321 -1.00389 -8.7445)
(-0.114013 -1.55489 -8.64256)
(-0.115829 -0.953564 -8.61346)
(-0.0908701 -1.68727 -8.57551)
(-0.0981913 -0.937648 -8.56664)
(-0.0692797 -1.90276 -8.8607)
(-0.061124 -1.51821 -11.7918)
(-1.96864 -0.433829 -9.97204)
(-0.746777 -0.420164 -10.0256)
(-0.756299 -0.78512 -9.90765)
(-0.468609 -0.79597 -9.9144)
(-0.44545 -1.06248 -9.80726)
(-0.333072 -1.04964 -9.76135)
(-0.310582 -1.29089 -9.64051)
(-0.24888 -1.17664 -9.56614)
(-0.22688 -1.42277 -9.43176)
(-0.201248 -1.18549 -9.36243)
(-0.178435 -1.49504 -9.22337)
(-0.167305 -1.15619 -9.17034)
(-0.145108 -1.57991 -9.0157)
(-0.139824 -1.09824 -8.95548)
(-0.116872 -1.65431 -8.80929)
(-0.118448 -1.01109 -8.76223)
(-0.092735 -1.74417 -8.63751)
(-0.10108 -0.939057 -8.60359)
(-0.0710243 -1.90372 -8.7744)
(-0.0633552 -1.46967 -11.7723)
(-2.01983 -0.455355 -10.2807)
(-0.777725 -0.439083 -10.3561)
(-0.780467 -0.828042 -10.243)
(-0.486304 -0.844331 -10.2552)
(-0.459935 -1.13205 -10.1488)
(-0.343291 -1.13311 -10.112)
(-0.318257 -1.39501 -9.98999)
(-0.253305 -1.30111 -9.92136)
(-0.230516 -1.56371 -9.7796)
(-0.203447 -1.33625 -9.70665)
(-0.180523 -1.64711 -9.54569)
(-0.168844 -1.29714 -9.47669)
(-0.146239 -1.72791 -9.29829)
(-0.141378 -1.21686 -9.23477)
(-0.118009 -1.79232 -9.05853)
(-0.120286 -1.12536 -9.01528)
(-0.0941861 -1.87523 -8.83534)
(-0.102815 -1.03129 -8.84185)
(-0.0725056 -1.98203 -8.89181)
(-0.064942 -1.48421 -11.9795)
(-2.0523 -0.48238 -10.4825)
(-0.798815 -0.453556 -10.5726)
(-0.796422 -0.866294 -10.4534)
(-0.498289 -0.878204 -10.4676)
(-0.468703 -1.19163 -10.3653)
(-0.348618 -1.20202 -10.3488)
(-0.323487 -1.48565 -10.2447)
(-0.258682 -1.40522 -10.2019)
(-0.235547 -1.68913 -10.0743)
(-0.208378 -1.47574 -10.0236)
(-0.184903 -1.80131 -9.87907)
(-0.173253 -1.4508 -9.82666)
(-0.150175 -1.88464 -9.64021)
(-0.144882 -1.35795 -9.58612)
(-0.120812 -1.93888 -9.37553)
(-0.122736 -1.24561 -9.36724)
(-0.0959383 -1.98119 -9.12673)
(-0.104832 -1.1151 -9.19658)
(-0.0744164 -2.06128 -9.15507)
(-0.0659081 -1.54047 -12.3717)
(-2.11214 -0.502453 -10.4671)
(-0.836234 -0.470933 -10.5713)
(-0.82524 -0.903722 -10.476)
(-0.516034 -0.918768 -10.5151)
(-0.480681 -1.25588 -10.4377)
(-0.357116 -1.27428 -10.4465)
(-0.330864 -1.56596 -10.3568)
(-0.264761 -1.48397 -10.3378)
(-0.240259 -1.77266 -10.2339)
(-0.211618 -1.56453 -10.2219)
(-0.187895 -1.90497 -10.1147)
(-0.175377 -1.57885 -10.1129)
(-0.151968 -2.03014 -9.96829)
(-0.146278 -1.5041 -9.97515)
(-0.122275 -2.08314 -9.7694)
(-0.123837 -1.3983 -9.80587)
(-0.0979506 -2.12262 -9.51556)
(-0.105748 -1.25166 -9.64742)
(-0.0766255 -2.14839 -9.50696)
(-0.0662956 -1.63458 -12.8666)
(-2.13562 -0.499809 -10.094)
(-0.849526 -0.462857 -10.2271)
(-0.838204 -0.902154 -10.1746)
(-0.523588 -0.923349 -10.2668)
(-0.48954 -1.26818 -10.2424)
(-0.363945 -1.2918 -10.3138)
(-0.338548 -1.59377 -10.2872)
(-0.270036 -1.52694 -10.3449)
(-0.245879 -1.82815 -10.2994)
(-0.216437 -1.62667 -10.3431)
(-0.192357 -1.95574 -10.273)
(-0.179662 -1.61992 -10.3209)
(-0.156293 -2.07314 -10.2187)
(-0.149856 -1.58249 -10.299)
(-0.125788 -2.1744 -10.1359)
(-0.126441 -1.51506 -10.2528)
(-0.100428 -2.22681 -9.97138)
(-0.107092 -1.3917 -10.1807)
(-0.0790014 -2.25037 -9.9886)
(-0.0661039 -1.7674 -13.4878)
(-2.15323 -0.472291 -9.23049)
(-0.869139 -0.414042 -9.41827)
(-0.85485 -0.844244 -9.4307)
(-0.535386 -0.856065 -9.60833)
(-0.501406 -1.19261 -9.67382)
(-0.373412 -1.21168 -9.84377)
(-0.348279 -1.51258 -9.9217)
(-0.276936 -1.4579 -10.095)
(-0.252059 -1.76637 -10.1525)
(-0.22167 -1.58565 -10.3002)
(-0.197422 -1.92852 -10.3029)
(-0.183555 -1.61516 -10.4181)
(-0.160258 -2.05741 -10.3622)
(-0.153218 -1.56109 -10.5082)
(-0.129339 -2.14776 -10.3884)
(-0.129023 -1.54511 -10.5865)
(-0.10402 -2.25959 -10.3461)
(-0.108705 -1.49384 -10.6639)
(-0.0815355 -2.34412 -10.486)
(-0.0654373 -1.93113 -14.164)
(-2.17507 -0.398123 -7.62895)
(-0.881571 -0.288021 -7.90384)
(-0.87009 -0.685749 -8.02609)
(-0.548611 -0.657044 -8.34219)
(-0.516517 -0.966969 -8.55408)
(-0.384972 -0.973 -8.88447)
(-0.359618 -1.26478 -9.13259)
(-0.285808 -1.22441 -9.48459)
(-0.261276 -1.54689 -9.69215)
(-0.229004 -1.4081 -9.98184)
(-0.204602 -1.782 -10.1014)
(-0.189528 -1.50379 -10.3245)
(-0.166034 -1.95785 -10.35)
(-0.157968 -1.50796 -10.5642)
(-0.134174 -2.08011 -10.4836)
(-0.133055 -1.48679 -10.7376)
(-0.108491 -2.17338 -10.5275)
(-0.111682 -1.47695 -10.9097)
(-0.0852095 -2.32888 -10.7893)
(-0.0649876 -2.05629 -14.6641)
(-2.21549 -0.201425 -5.2889)
(-0.908901 -0.00625456 -5.6674)
(-0.899345 -0.313345 -5.92289)
(-0.571422 -0.213874 -6.42212)
(-0.536086 -0.487006 -6.81856)
(-0.400018 -0.479126 -7.36094)
(-0.374893 -0.768768 -7.81408)
(-0.297227 -0.755711 -8.37488)
(-0.273134 -1.09572 -8.76536)
(-0.238882 -1.01265 -9.22559)
(-0.214245 -1.42346 -9.48949)
(-0.197126 -1.22218 -9.86306)
(-0.173569 -1.73193 -10.0031)
(-0.163722 -1.34418 -10.3524)
(-0.140166 -1.92724 -10.3576)
(-0.137352 -1.40838 -10.6825)
(-0.113342 -2.0896 -10.5036)
(-0.114546 -1.4399 -10.9357)
(-0.0894537 -2.25905 -10.8652)
(-0.0648264 -2.14485 -14.8981)
(-2.2536 0.0906341 -2.54165)
(-0.933248 0.410009 -2.97068)
(-0.926817 0.255508 -3.33189)
(-0.590408 0.453329 -3.95745)
(-0.55707 0.244306 -4.50684)
(-0.417578 0.274221 -5.22542)
(-0.393781 -0.0161382 -5.87208)
(-0.311623 -0.0447587 -6.64212)
(-0.288145 -0.414026 -7.2256)
(-0.250257 -0.402937 -7.86835)
(-0.226284 -0.847218 -8.30104)
(-0.206377 -0.735729 -8.84635)
(-0.183284 -1.28125 -9.15728)
(-0.171112 -1.01173 -9.67408)
(-0.147648 -1.65237 -9.80635)
(-0.142472 -1.23817 -10.2643)
(-0.119229 -1.92184 -10.1989)
(-0.118162 -1.35488 -10.6974)
(-0.0938721 -2.16337 -10.7254)
(-0.0649527 -2.20758 -14.9317)
(-2.30718 0.371713 0.00538781)
(-0.969027 0.87622 -0.375453)
(-0.959914 0.890586 -0.721878)
(-0.614372 1.20686 -1.32068)
(-0.581916 1.10477 -1.89087)
(-0.436932 1.18359 -2.64726)
(-0.413763 0.927747 -3.38436)
(-0.327521 0.867191 -4.29134)
(-0.305117 0.475932 -5.02258)
(-0.263717 0.422526 -5.8408)
(-0.240577 -0.0540965 -6.43206)
(-0.217513 -0.021021 -7.15735)
(-0.194647 -0.625761 -7.63261)
(-0.18006 -0.482283 -8.32974)
(-0.156878 -1.15858 -8.63851)
(-0.14925 -0.864692 -9.26315)
(-0.126171 -1.62703 -9.36103)
(-0.122358 -1.20021 -9.99397)
(-0.0991828 -1.97436 -10.1964)
(-0.065845 -2.19819 -14.6545)
(-2.36058 0.554244 1.84488)