/*--------------------------------*- C++ -*----------------------------------*\
| =========                 |                                                 |
| \\      /  F ield         | OpenFOAM: The Open Source CFD Toolbox           |
|  \\    /   O peration     | Version:  2212                                  |
|   \\  /    A nd           | Website:  www.openfoam.com                      |
|    \\/     M anipulation  |                                                 |
\*---------------------------------------------------------------------------*/
FoamFile
{
    version     2.0;
    format      ascii;
    arch        "LSB;label=32;scalar=64";
    class       volScalarField;
    location    "0.2202";
    object      s;
}
// * * * * * * * * * * * * * * * * * * * * * * * * * * * * * * * * * * * * * //

dimensions      [0 0 0 0 0 0 0];

internalField   nonuniform List<scalar> 
24240
(
3.69395e-93
3.6417e-93
3.69119e-93
3.59344e-93
3.6475e-93
3.65964e-93
3.65865e-93
3.55815e-93
3.59491e-93
3.68492e-93
3.60919e-93
3.70042e-93
3.60488e-93
3.68418e-93
3.57607e-93
3.71412e-93
3.56657e-93
3.61283e-93
3.63464e-93
3.53463e-93
2.28961e-90
2.25719e-90
2.28735e-90
2.2278e-90
2.26031e-90
2.26854e-90
2.2677e-90
2.20562e-90
2.22844e-90
2.28406e-90
2.23751e-90
2.29337e-90
2.23508e-90
2.28383e-90
2.21713e-90
2.30218e-90
2.21133e-90
2.23982e-90
2.2527e-90
2.19154e-90
7.57927e-88
7.47187e-88
7.56997e-88
7.37625e-88
7.48057e-88
7.51012e-88
7.50657e-88
7.30182e-88
7.37745e-88
7.56089e-88
7.40805e-88
7.59067e-88
7.40079e-88
7.56078e-88
7.34097e-88
7.62076e-88
7.32219e-88
7.41583e-88
7.45623e-88
7.25669e-88
1.43464e-85
1.4143e-85
1.43253e-85
1.39652e-85
1.41564e-85
1.42168e-85
1.42087e-85
1.38227e-85
1.39661e-85
1.43119e-85
1.40252e-85
1.43664e-85
1.40129e-85
1.43131e-85
1.3899e-85
1.44252e-85
1.38644e-85
1.40403e-85
1.41125e-85
1.37405e-85
1.95792e-83
1.93018e-83
1.95456e-83
1.90634e-83
1.93156e-83
1.9404e-83
1.93911e-83
1.88665e-83
1.90627e-83
1.95323e-83
1.91446e-83
1.96039e-83
1.91298e-83
1.95357e-83
1.89731e-83
1.96862e-83
1.89276e-83
1.91654e-83
1.92578e-83
1.87589e-83
1.86249e-81
1.83615e-81
1.85884e-81
1.81388e-81
1.83704e-81
1.84602e-81
1.84463e-81
1.79496e-81
1.8137e-81
1.85807e-81
1.8216e-81
1.86464e-81
1.82036e-81
1.85858e-81
1.80533e-81
1.87264e-81
1.80122e-81
1.82357e-81
1.83175e-81
1.78518e-81
1.23163e-79
1.21428e-79
1.22891e-79
1.19981e-79
1.21456e-79
1.22087e-79
1.21987e-79
1.18719e-79
1.19967e-79
1.22872e-79
1.20493e-79
1.2329e-79
1.20419e-79
1.22918e-79
1.19415e-79
1.23827e-79
1.19165e-79
1.20618e-79
1.21116e-79
1.18107e-79
5.41619e-78
5.34051e-78
5.40286e-78
5.27795e-78
5.34029e-78
5.36957e-78
5.36502e-78
5.22222e-78
5.27793e-78
5.4034e-78
5.30088e-78
5.42119e-78
5.29773e-78
5.40599e-78
5.25294e-78
5.44471e-78
5.24355e-78
5.3057e-78
5.32561e-78
5.19756e-78
6.30976e-77
6.22404e-77
6.29311e-77
6.15218e-77
6.22121e-77
6.25684e-77
6.25234e-77
6.08753e-77
6.15517e-77
6.29488e-77
6.18055e-77
6.31539e-77
6.17585e-77
6.29861e-77
6.12233e-77
6.34124e-77
6.11588e-77
6.18381e-77
6.20429e-77
6.06392e-77
3.97289e-77
3.97473e-77
3.97984e-77
3.91822e-77
3.94849e-77
3.9567e-77
3.98765e-77
3.89734e-77
4.00233e-77
3.95541e-77
3.97516e-77
3.98981e-77
3.92813e-77
3.95767e-77
3.87307e-77
3.94783e-77
3.95697e-77
3.9149e-77
3.92259e-77
3.96116e-77
6.18561e-77
6.23762e-77
6.28961e-77
6.19034e-77
6.15095e-77
6.17972e-77
6.25469e-77
6.12495e-77
6.31737e-77
6.26561e-77
6.29903e-77
6.27288e-77
6.2298e-77
6.16032e-77
6.11396e-77
6.18087e-77
6.14134e-77
6.1484e-77
6.19357e-77
6.217e-77
7.14191e-77
7.1964e-77
7.22921e-77
7.10187e-77
7.0922e-77
6.96304e-77
7.12025e-77
7.00062e-77
7.17624e-77
7.33896e-77
7.26881e-77
7.08821e-77
7.2635e-77
7.15076e-77
7.14284e-77
7.18917e-77
6.89918e-77
7.15264e-77
7.03317e-77
7.06036e-77
8.19511e-77
8.33732e-77
8.31514e-77
8.26617e-77
8.31541e-77
8.37988e-77
8.58745e-77
8.30938e-77
8.3371e-77
8.23016e-77
8.26259e-77
8.27226e-77
8.34939e-77
8.36043e-77
8.205e-77
8.31153e-77
8.35912e-77
8.23712e-77
8.19414e-77
8.22192e-77
8.9845e-77
8.97299e-77
9.03054e-77
9.20094e-77
9.1241e-77
9.22159e-77
9.06385e-77
9.22834e-77
9.07158e-77
8.79864e-77
8.89293e-77
8.93227e-77
8.97931e-77
8.82822e-77
8.79256e-77
8.88588e-77
8.81311e-77
8.98573e-77
8.89277e-77
9.07618e-77
9.16782e-77
9.15566e-77
9.32364e-77
9.2307e-77
9.14745e-77
9.29868e-77
9.27834e-77
9.41936e-77
9.16839e-77
9.31561e-77
9.2702e-77
9.28723e-77
9.33474e-77
9.3027e-77
9.2285e-77
9.47985e-77
9.22405e-77
9.11881e-77
9.22841e-77
9.23994e-77
9.25779e-77
9.08612e-77
9.13912e-77
9.0934e-77
9.22441e-77
9.29108e-77
9.2955e-77
9.22501e-77
9.0247e-77
9.08746e-77
8.9972e-77
9.27572e-77
9.25174e-77
9.38254e-77
9.34518e-77
9.33531e-77
9.24781e-77
9.26152e-77
9.15088e-77
9.18955e-77
8.47625e-77
8.58955e-77
8.47874e-77
8.78219e-77
8.52806e-77
8.72764e-77
8.56352e-77
8.67669e-77
8.55422e-77
8.59823e-77
8.57859e-77
8.74411e-77
8.58144e-77
8.82809e-77
8.53556e-77
8.69673e-77
8.67545e-77
8.43172e-77
8.70668e-77
8.69949e-77
7.65921e-77
7.95924e-77
7.85922e-77
7.7899e-77
7.70433e-77
8.04474e-77
7.90703e-77
7.92957e-77
7.86738e-77
7.72991e-77
7.84908e-77
7.99828e-77
7.82024e-77
8.14234e-77
7.8362e-77
7.97882e-77
8.03023e-77
7.88292e-77
8.03119e-77
8.04376e-77
7.01413e-77
7.00678e-77
6.984e-77
7.09134e-77
7.14173e-77
7.12924e-77
6.98668e-77
7.05862e-77
7.20632e-77
6.98595e-77
7.14163e-77
7.169e-77
6.96732e-77
7.22595e-77
7.18701e-77
7.33155e-77
7.10513e-77
7.22926e-77
7.13664e-77
7.31849e-77
4.98829e-77
5.02544e-77
5.00297e-77
4.96157e-77
5.04312e-77
5.01213e-77
5.0561e-77
5.01792e-77
5.04281e-77
5.10346e-77
4.99695e-77
5.1267e-77
4.99011e-77
5.17095e-77
5.00181e-77
5.00496e-77
5.04346e-77
5.13556e-77
5.05091e-77
5.18428e-77
1.37145e-91
1.35201e-91
1.37016e-91
1.33441e-91
1.35392e-91
1.35884e-91
1.35832e-91
1.32112e-91
1.33474e-91
1.36816e-91
1.34017e-91
1.37373e-91
1.33872e-91
1.36794e-91
1.32796e-91
1.37896e-91
1.32439e-91
1.34153e-91
1.3493e-91
1.31252e-91
8.62066e-89
8.49839e-89
8.61054e-89
8.3897e-89
8.50856e-89
8.54218e-89
8.53803e-89
8.30504e-89
8.39073e-89
8.60017e-89
8.42564e-89
8.63399e-89
8.41744e-89
8.59958e-89
8.34944e-89
8.66805e-89
8.32738e-89
8.43442e-89
8.48078e-89
8.25271e-89
2.84912e-86
2.8087e-86
2.84511e-86
2.77342e-86
2.81146e-86
2.82346e-86
2.8218e-86
2.7451e-86
2.77346e-86
2.84245e-86
2.78525e-86
2.85325e-86
2.78286e-86
2.84253e-86
2.76025e-86
2.86489e-86
2.75312e-86
2.78825e-86
2.80273e-86
2.72845e-86
5.46904e-84
5.39147e-84
5.46004e-84
5.32498e-84
5.39557e-84
5.42031e-84
5.41659e-84
5.26998e-84
5.32451e-84
5.45641e-84
5.34756e-84
5.47641e-84
5.34356e-84
5.45709e-84
5.29987e-84
5.49942e-84
5.28657e-84
5.35349e-84
5.37964e-84
5.23925e-84
7.43183e-82
7.32653e-82
7.41782e-82
7.23781e-82
7.33042e-82
7.36635e-82
7.36059e-82
7.16225e-82
7.23653e-82
7.41485e-82
7.26834e-82
7.441e-82
7.26366e-82
7.41648e-82
7.20384e-82
7.47308e-82
7.18646e-82
7.27654e-82
7.30973e-82
7.12224e-82
7.01556e-80
6.91637e-80
7.00067e-80
6.83416e-80
6.91844e-80
6.95453e-80
6.94848e-80
6.76216e-80
6.83254e-80
6.99978e-80
6.86295e-80
7.02352e-80
6.85919e-80
7.00198e-80
6.80223e-80
7.05444e-80
6.78666e-80
6.87068e-80
6.89971e-80
6.72607e-80
4.56821e-78
4.50391e-78
4.55741e-78
4.45133e-78
4.50412e-78
4.529e-78
4.52474e-78
4.40407e-78
4.45022e-78
4.55803e-78
4.47014e-78
4.57288e-78
4.46801e-78
4.55989e-78
4.43053e-78
4.59327e-78
4.42119e-78
4.47498e-78
4.49229e-78
4.38183e-78
1.98576e-76
1.95806e-76
1.9806e-76
1.9356e-76
1.95761e-76
1.96899e-76
1.96709e-76
1.91497e-76
1.93533e-76
1.98137e-76
1.94392e-76
1.9876e-76
1.94303e-76
1.98238e-76
1.92651e-76
1.99642e-76
1.92304e-76
1.94579e-76
1.95257e-76
1.90611e-76
2.28043e-75
2.24952e-75
2.27415e-75
2.2241e-75
2.24808e-75
2.26171e-75
2.2598e-75
2.20051e-75
2.22486e-75
2.27543e-75
2.23424e-75
2.2825e-75
2.23286e-75
2.27683e-75
2.21341e-75
2.29205e-75
2.21102e-75
2.23554e-75
2.24237e-75
2.19214e-75
1.41368e-75
1.41431e-75
1.41642e-75
1.39459e-75
1.40497e-75
1.40824e-75
1.41896e-75
1.38694e-75
1.42438e-75
1.40767e-75
1.41478e-75
1.41972e-75
1.39811e-75
1.40841e-75
1.37864e-75
1.40461e-75
1.40814e-75
1.39326e-75
1.396e-75
1.40966e-75
2.20951e-75
2.22772e-75
2.24653e-75
2.21089e-75
2.19689e-75
2.2069e-75
2.23328e-75
2.18739e-75
2.25599e-75
2.23768e-75
2.24975e-75
2.2399e-75
2.22514e-75
2.20035e-75
2.18392e-75
2.20734e-75
2.19302e-75
2.19597e-75
2.21193e-75
2.22001e-75
2.53596e-75
2.55512e-75
2.56683e-75
2.52136e-75
2.51848e-75
2.47298e-75
2.52867e-75
2.48663e-75
2.54791e-75
2.60537e-75
2.58024e-75
2.51695e-75
2.57868e-75
2.539e-75
2.53603e-75
2.55247e-75
2.45004e-75
2.53914e-75
2.49716e-75
2.50664e-75
2.91386e-75
2.96334e-75
2.95605e-75
2.93921e-75
2.95649e-75
2.9795e-75
3.05207e-75
2.95485e-75
2.96414e-75
2.9258e-75
2.93725e-75
2.94088e-75
2.96846e-75
2.97303e-75
2.91785e-75
2.95515e-75
2.9719e-75
2.92912e-75
2.91369e-75
2.92363e-75
3.16761e-75
3.16282e-75
3.18277e-75
3.24298e-75
3.21617e-75
3.25027e-75
3.1946e-75
3.2531e-75
3.19664e-75
3.10238e-75
3.13472e-75
3.1492e-75
3.16515e-75
3.11244e-75
3.09971e-75
3.13288e-75
3.10648e-75
3.16745e-75
3.13477e-75
3.19926e-75
3.23947e-75
3.23472e-75
3.29399e-75
3.26086e-75
3.23189e-75
3.28588e-75
3.27781e-75
3.32805e-75
3.2397e-75
3.29192e-75
3.27569e-75
3.28185e-75
3.29781e-75
3.28774e-75
3.26135e-75
3.34925e-75
3.25929e-75
3.22201e-75
3.2607e-75
3.2638e-75
3.2376e-75
3.17785e-75
3.19511e-75
3.18e-75
3.22588e-75
3.24919e-75
3.25026e-75
3.22565e-75
3.15614e-75
3.17766e-75
3.14582e-75
3.24304e-75
3.23535e-75
3.28072e-75
3.26795e-75
3.2638e-75
3.23384e-75
3.23901e-75
3.20026e-75
3.21366e-75
2.97552e-75
3.01586e-75
2.97654e-75
3.08268e-75
2.99292e-75
3.06299e-75
3.00533e-75
3.04583e-75
3.0029e-75
3.01869e-75
3.01161e-75
3.06958e-75
3.01215e-75
3.09858e-75
2.99635e-75
3.05232e-75
3.04527e-75
2.9602e-75
3.05638e-75
3.05396e-75
2.66584e-75
2.76937e-75
2.73514e-75
2.71039e-75
2.68124e-75
2.79886e-75
2.75086e-75
2.75905e-75
2.73743e-75
2.6899e-75
2.73069e-75
2.78251e-75
2.72112e-75
2.83216e-75
2.72638e-75
2.77584e-75
2.79321e-75
2.74306e-75
2.79399e-75
2.79864e-75
2.45903e-75
2.4564e-75
2.44886e-75
2.48624e-75
2.50332e-75
2.49902e-75
2.44893e-75
2.47543e-75
2.52621e-75
2.44949e-75
2.50358e-75
2.51347e-75
2.44221e-75
2.53308e-75
2.51946e-75
2.57015e-75
2.49099e-75
2.53391e-75
2.50143e-75
2.56489e-75
1.74368e-75
1.75675e-75
1.74906e-75
1.73439e-75
1.76239e-75
1.75195e-75
1.76684e-75
1.75408e-75
1.76182e-75
1.7835e-75
1.74605e-75
1.79137e-75
1.74396e-75
1.80695e-75
1.74794e-75
1.74909e-75
1.76227e-75
1.79451e-75
1.76509e-75
1.81137e-75
5.37238e-90
5.29608e-90
5.36627e-90
5.22841e-90
5.30259e-90
5.32358e-90
5.32094e-90
5.17572e-90
5.22896e-90
5.35991e-90
5.2508e-90
5.38099e-90
5.24575e-90
5.35935e-90
5.20341e-90
5.40216e-90
5.18931e-90
5.25629e-90
5.28539e-90
5.14275e-90
3.34052e-87
3.29307e-87
3.33596e-87
3.25176e-87
3.2964e-87
3.3105e-87
3.30851e-87
3.21856e-87
3.25169e-87
3.33287e-87
3.26556e-87
3.34552e-87
3.2628e-87
3.33282e-87
3.2363e-87
3.35913e-87
3.22769e-87
3.26908e-87
3.28619e-87
3.19871e-87
1.08389e-84
1.0685e-84
1.08216e-84
1.05534e-84
1.06935e-84
1.07426e-84
1.07351e-84
1.04444e-84
1.0552e-84
1.08146e-84
1.0598e-84
1.08542e-84
1.05902e-84
1.08155e-84
1.05037e-84
1.08997e-84
1.04764e-84
1.06098e-84
1.06621e-84
1.03824e-84
2.05922e-82
2.03001e-82
2.05547e-82
2.00547e-82
2.03117e-82
2.04116e-82
2.03952e-82
1.98454e-82
2.00501e-82
2.0547e-82
2.01389e-82
2.06194e-82
2.01265e-82
2.05505e-82
1.99611e-82
2.07084e-82
1.99107e-82
2.01621e-82
2.02552e-82
1.9732e-82
2.75049e-80
2.71154e-80
2.74485e-80
2.67937e-80
2.71245e-80
2.72666e-80
2.7242e-80
2.65111e-80
2.67851e-80
2.74455e-80
2.69055e-80
2.75383e-80
2.68918e-80
2.74527e-80
2.66691e-80
2.76602e-80
2.66044e-80
2.69371e-80
2.70526e-80
2.63659e-80
2.56746e-78
2.5312e-78
2.56161e-78
2.50174e-78
2.53147e-78
2.54553e-78
2.543e-78
2.47512e-78
2.50079e-78
2.56204e-78
2.51217e-78
2.57035e-78
2.51114e-78
2.56294e-78
2.49016e-78
2.58195e-78
2.48443e-78
2.51512e-78
2.52506e-78
2.46217e-78
1.64503e-76
1.62191e-76
1.6409e-76
1.60338e-76
1.62167e-76
1.63118e-76
1.62945e-76
1.58619e-76
1.60275e-76
1.64161e-76
1.61008e-76
1.64671e-76
1.60954e-76
1.64234e-76
1.59596e-76
1.65423e-76
1.59257e-76
1.61191e-76
1.6177e-76
1.57834e-76
7.05356e-75
6.95541e-75
7.03429e-75
6.87736e-75
6.95242e-75
6.99524e-75
6.98759e-75
6.80336e-75
6.87538e-75
7.03911e-75
6.90656e-75
7.06016e-75
6.90439e-75
7.04289e-75
6.84534e-75
7.09221e-75
6.83292e-75
6.91358e-75
6.93577e-75
6.77248e-75
7.97934e-74
7.8715e-74
7.95644e-74
7.78453e-74
7.86495e-74
7.91534e-74
7.9076e-74
7.70119e-74
7.78604e-74
7.96327e-74
7.81959e-74
7.98675e-74
7.81589e-74
7.96832e-74
7.74743e-74
8.02091e-74
7.73887e-74
7.82459e-74
7.84638e-74
7.6724e-74
4.8642e-74
4.8663e-74
4.87459e-74
4.79981e-74
4.83415e-74
4.8466e-74
4.88241e-74
4.77267e-74
4.90176e-74
4.84425e-74
4.86901e-74
4.88504e-74
4.81189e-74
4.84657e-74
4.74531e-74
4.83242e-74
4.84554e-74
4.79471e-74
4.80414e-74
4.85086e-74
7.6337e-74
7.69535e-74
7.76115e-74
7.63741e-74
7.58928e-74
7.62298e-74
7.71266e-74
7.55574e-74
7.79226e-74
7.72962e-74
7.77173e-74
7.73603e-74
7.68712e-74
7.60164e-74
7.54527e-74
7.62455e-74
7.5744e-74
7.58606e-74
7.64057e-74
7.66749e-74
8.71559e-74
8.7807e-74
8.82124e-74
8.66404e-74
8.65605e-74
8.50098e-74
8.69179e-74
8.54898e-74
8.75577e-74
8.95213e-74
8.86502e-74
8.65039e-74
8.8607e-74
8.72566e-74
8.71486e-74
8.77134e-74
8.42119e-74
8.72422e-74
8.58163e-74
8.61354e-74
1.00299e-73
1.01964e-73
1.01733e-73
1.01173e-73
1.0176e-73
1.02555e-73
1.0501e-73
1.01721e-73
1.02022e-73
1.00693e-73
1.01083e-73
1.01214e-73
1.02169e-73
1.02349e-73
1.00453e-73
1.01717e-73
1.02286e-73
1.00836e-73
1.00299e-73
1.00643e-73
1.083e-73
1.08111e-73
1.08781e-73
1.10844e-73
1.09938e-73
1.11094e-73
1.0919e-73
1.11206e-73
1.09235e-73
1.0608e-73
1.07154e-73
1.07671e-73
1.08193e-73
1.06411e-73
1.0597e-73
1.07113e-73
1.06186e-73
1.08274e-73
1.07159e-73
1.09358e-73
1.11032e-73
1.10851e-73
1.12878e-73
1.11734e-73
1.10759e-73
1.12627e-73
1.12321e-73
1.14054e-73
1.11039e-73
1.12833e-73
1.1227e-73
1.12488e-73
1.13004e-73
1.12707e-73
1.11793e-73
1.14772e-73
1.11709e-73
1.10426e-73
1.1175e-73
1.11823e-73
1.10092e-73
1.08072e-73
1.08617e-73
1.08135e-73
1.09692e-73
1.10483e-73
1.10503e-73
1.09674e-73
1.07328e-73
1.08049e-73
1.06958e-73
1.10247e-73
1.10012e-73
1.1154e-73
1.11117e-73
1.10953e-73
1.09954e-73
1.10144e-73
1.08825e-73
1.09276e-73
1.01596e-73
1.02988e-73
1.01632e-73
1.05234e-73
1.0216e-73
1.04551e-73
1.02583e-73
1.03988e-73
1.02524e-73
1.03075e-73
1.02824e-73
1.04805e-73
1.02834e-73
1.05776e-73
1.02307e-73
1.04193e-73
1.03967e-73
1.01082e-73
1.04349e-73
1.04271e-73
9.04137e-74
9.3893e-74
9.27522e-74
9.18952e-74
9.09246e-74
9.4884e-74
9.32534e-74
9.35432e-74
9.28093e-74
9.12105e-74
9.25685e-74
9.43232e-74
9.22612e-74
9.59891e-74
9.24283e-74
9.40993e-74
9.46713e-74
9.30072e-74
9.4713e-74
9.48789e-74
8.3978e-74
8.38919e-74
8.36487e-74
8.4913e-74
8.54735e-74
8.53354e-74
8.3621e-74
8.45705e-74
8.62648e-74
8.36662e-74
8.5495e-74
8.58458e-74
8.33933e-74
8.65038e-74
8.60356e-74
8.77666e-74
8.50768e-74
8.6516e-74
8.54112e-74
8.75642e-74
5.90968e-74
5.95396e-74
5.92854e-74
5.87845e-74
5.9717e-74
5.93733e-74
5.98598e-74
5.94489e-74
5.96812e-74
6.04288e-74
5.91553e-74
6.06873e-74
5.90915e-74
6.12181e-74
5.92271e-74
5.92689e-74
5.97004e-74
6.07977e-74
5.98043e-74
6.13626e-74
2.04328e-88
2.01422e-88
2.04057e-88
1.98898e-88
2.01632e-88
2.02496e-88
2.02373e-88
1.9687e-88
1.9889e-88
2.03872e-88
1.99741e-88
2.04646e-88
1.99575e-88
2.03862e-88
1.97956e-88
2.05476e-88
1.97415e-88
1.99957e-88
2.01012e-88
1.9564e-88
1.28516e-85
1.2669e-85
1.28318e-85
1.25131e-85
1.26794e-85
1.27378e-85
1.27287e-85
1.2384e-85
1.25111e-85
1.28236e-85
1.25658e-85
1.28705e-85
1.25568e-85
1.28241e-85
1.24544e-85
1.29245e-85
1.2421e-85
1.25799e-85
1.26425e-85
1.23093e-85
4.12184e-83
4.06331e-83
4.11455e-83
4.01427e-83
4.06576e-83
4.08581e-83
4.08245e-83
3.97236e-83
4.01316e-83
4.11308e-83
4.03105e-83
4.12754e-83
4.02865e-83
4.11361e-83
3.99556e-83
4.14536e-83
3.9851e-83
4.03573e-83
4.05454e-83
3.94925e-83
7.73293e-81
7.62327e-81
7.71755e-81
7.53301e-81
7.62615e-81
7.66622e-81
7.65913e-81
7.45355e-81
7.53016e-81
7.71692e-81
7.56431e-81
7.74298e-81
7.56069e-81
7.71859e-81
7.49817e-81
7.77732e-81
7.47912e-81
7.57339e-81
7.60627e-81
7.41181e-81
1.01536e-78
1.001e-78
1.01312e-78
9.89373e-79
1.00114e-78
1.00673e-78
1.00569e-78
9.78832e-79
9.88909e-79
1.01331e-78
9.93457e-79
1.01659e-78
9.9309e-79
1.01362e-78
9.84815e-79
1.0212e-78
9.82412e-79
9.94673e-79
9.98666e-79
9.73573e-79
9.35559e-77
9.22369e-77
9.33288e-77
9.11863e-77
9.22283e-77
9.27722e-77
9.26687e-77
9.02067e-77
9.11382e-77
9.33727e-77
9.15619e-77
9.36614e-77
9.15375e-77
9.34089e-77
9.07682e-77
9.40944e-77
9.05581e-77
9.16746e-77
9.20114e-77
8.97433e-77
5.89807e-75
5.81538e-75
5.88245e-75
5.7504e-75
5.81336e-75
5.84946e-75
5.8425e-75
5.68819e-75
5.74729e-75
5.88679e-75
5.77412e-75
5.90417e-75
5.77303e-75
5.88957e-75
5.72401e-75
5.93174e-75
5.71181e-75
5.78102e-75
5.80017e-75
5.6605e-75
2.49202e-73
2.45745e-73
2.4849e-73
2.43049e-73
2.4559e-73
2.47188e-73
2.46885e-73
2.4041e-73
2.42943e-73
2.48735e-73
2.44067e-73
2.4944e-73
2.44027e-73
2.48875e-73
2.41927e-73
2.50597e-73
2.41485e-73
2.4433e-73
2.45046e-73
2.39337e-73
2.77694e-72
2.73955e-72
2.76869e-72
2.70998e-72
2.73674e-72
2.75523e-72
2.75216e-72
2.68071e-72
2.71009e-72
2.77189e-72
2.72202e-72
2.77961e-72
2.72115e-72
2.77369e-72
2.69717e-72
2.79175e-72
2.69413e-72
2.72393e-72
2.73078e-72
2.67084e-72
1.66359e-72
1.66429e-72
1.66748e-72
1.64201e-72
1.65328e-72
1.65795e-72
1.66983e-72
1.63246e-72
1.67669e-72
1.65703e-72
1.66558e-72
1.67074e-72
1.64614e-72
1.65774e-72
1.62351e-72
1.65253e-72
1.65735e-72
1.64009e-72
1.64332e-72
1.6592e-72
2.62238e-72
2.64312e-72
2.666e-72
2.62328e-72
2.60684e-72
2.61811e-72
2.64841e-72
2.59508e-72
2.67614e-72
2.65486e-72
2.66944e-72
2.65662e-72
2.64052e-72
2.61123e-72
2.592e-72
2.61867e-72
2.6012e-72
2.6057e-72
2.62421e-72
2.63311e-72
2.97966e-72
3.00167e-72
3.01563e-72
2.96159e-72
2.9595e-72
2.90695e-72
2.97198e-72
2.92373e-72
2.99308e-72
3.05984e-72
3.02979e-72
2.95743e-72
3.02869e-72
2.98299e-72
2.97909e-72
2.9984e-72
2.87933e-72
2.98183e-72
2.93368e-72
2.94435e-72
3.43536e-72
3.49107e-72
3.48389e-72
3.46541e-72
3.48521e-72
3.51251e-72
3.59508e-72
3.48448e-72
3.49412e-72
3.44831e-72
3.46152e-72
3.46619e-72
3.49911e-72
3.50605e-72
3.44122e-72
3.48381e-72
3.50308e-72
3.45414e-72
3.43553e-72
3.44741e-72
3.68904e-72
3.68175e-72
3.70411e-72
3.77454e-72
3.74402e-72
3.78309e-72
3.71817e-72
3.7874e-72
3.71886e-72
3.61379e-72
3.64927e-72
3.6676e-72
3.68459e-72
3.62459e-72
3.6094e-72
3.64859e-72
3.61619e-72
3.68743e-72
3.64958e-72
3.72421e-72
3.79265e-72
3.7858e-72
3.85488e-72
3.81552e-72
3.78288e-72
3.84728e-72
3.8358e-72
3.89539e-72
3.79283e-72
3.85426e-72
3.83479e-72
3.84246e-72
3.85909e-72
3.85057e-72
3.81908e-72
3.91961e-72
3.81568e-72
3.77175e-72
3.81681e-72
3.81815e-72
3.73871e-72
3.67047e-72
3.68758e-72
3.67233e-72
3.72506e-72
3.75183e-72
3.75199e-72
3.7241e-72
3.64502e-72
3.66917e-72
3.63184e-72
3.74288e-72
3.73581e-72
3.78724e-72
3.77329e-72
3.76688e-72
3.73361e-72
3.74065e-72
3.69576e-72
3.71086e-72
3.4649e-72
3.51295e-72
3.46619e-72
3.5884e-72
3.48315e-72
3.56467e-72
3.49757e-72
3.54622e-72
3.4964e-72
3.51563e-72
3.5067e-72
3.57436e-72
3.50675e-72
3.6068e-72
3.48918e-72
3.55267e-72
3.54548e-72
3.44771e-72
3.55864e-72
3.55609e-72
3.07049e-72
3.18754e-72
3.1495e-72
3.11972e-72
3.08746e-72
3.22088e-72
3.16541e-72
3.17568e-72
3.15076e-72
3.09685e-72
3.14211e-72
3.20163e-72
3.13229e-72
3.25759e-72
3.13762e-72
3.19414e-72
3.21295e-72
3.15773e-72
3.21486e-72
3.22083e-72
2.8713e-72
2.86839e-72
2.86059e-72
2.90345e-72
2.92187e-72
2.91734e-72
2.8586e-72
2.8926e-72
2.94922e-72
2.86109e-72
2.923e-72
2.9354e-72
2.8509e-72
2.95746e-72
2.94145e-72
3.00061e-72
2.90904e-72
2.95741e-72
2.91971e-72
2.99289e-72
2.01409e-72
2.02925e-72
2.0208e-72
2.00353e-72
2.03472e-72
2.02343e-72
2.03943e-72
2.02613e-72
2.03294e-72
2.05894e-72
2.01533e-72
2.06746e-72
2.01347e-72
2.08567e-72
2.01802e-72
2.01952e-72
2.03382e-72
2.07131e-72
2.03763e-72
2.09035e-72
8.02986e-87
7.91559e-87
8.01774e-87
7.81831e-87
7.92235e-87
7.95892e-87
7.95311e-87
7.73769e-87
7.81685e-87
8.01278e-87
7.85116e-87
8.04207e-87
7.84563e-87
8.01278e-87
7.78163e-87
8.07567e-87
7.76022e-87
7.85996e-87
7.89932e-87
7.69034e-87
4.97192e-84
4.90124e-84
4.96335e-84
4.84216e-84
4.90434e-84
4.92858e-84
4.92446e-84
4.79164e-84
4.84066e-84
4.96165e-84
4.86234e-84
4.97909e-84
4.85951e-84
4.96209e-84
4.81963e-84
5.00055e-84
4.80663e-84
4.86801e-84
4.89089e-84
4.76329e-84
1.566e-81
1.54377e-81
1.56296e-81
1.52552e-81
1.5444e-81
1.55253e-81
1.55107e-81
1.50943e-81
1.52487e-81
1.56286e-81
1.53183e-81
1.56813e-81
1.53112e-81
1.56314e-81
1.51848e-81
1.57509e-81
1.51448e-81
1.53368e-81
1.54041e-81
1.50081e-81
2.89908e-79
2.85801e-79
2.89286e-79
2.82489e-79
2.85854e-79
2.87453e-79
2.87152e-79
2.79479e-79
2.82341e-79
2.89349e-79
2.83649e-79
2.90283e-79
2.83553e-79
2.89423e-79
2.81195e-79
2.91604e-79
2.80477e-79
2.84004e-79
2.85159e-79
2.77943e-79
3.74087e-77
3.68803e-77
3.73203e-77
3.64611e-77
3.68783e-77
3.70965e-77
3.70539e-77
3.60689e-77
3.64387e-77
3.73388e-77
3.66099e-77
3.74538e-77
3.66016e-77
3.73513e-77
3.62947e-77
3.7628e-77
3.62057e-77
3.66567e-77
3.67936e-77
3.58785e-77
3.39916e-75
3.35135e-75
3.39043e-75
3.31401e-75
3.35037e-75
3.37128e-75
3.3671e-75
3.27808e-75
3.31178e-75
3.39307e-75
3.3275e-75
3.40303e-75
3.3271e-75
3.39449e-75
3.29896e-75
3.41913e-75
3.29129e-75
3.33179e-75
3.34309e-75
3.26153e-75
2.10783e-73
2.07837e-73
2.10198e-73
2.05567e-73
2.07723e-73
2.09085e-73
2.08809e-73
2.03323e-73
2.05425e-73
2.10417e-73
2.06404e-73
2.11006e-73
2.06396e-73
2.10522e-73
2.04631e-73
2.12013e-73
2.04193e-73
2.06663e-73
2.07289e-73
2.02349e-73
8.76724e-72
8.64606e-72
8.74118e-72
8.55339e-72
8.63887e-72
8.6981e-72
8.68633e-72
8.45974e-72
8.54841e-72
8.75251e-72
8.58877e-72
8.77591e-72
8.58866e-72
8.75758e-72
8.51424e-72
8.81747e-72
8.49861e-72
8.59856e-72
8.62134e-72
8.42253e-72
9.6216e-71
9.4926e-71
9.59208e-71
9.39254e-71
9.48098e-71
9.54835e-71
9.53642e-71
9.29023e-71
9.39152e-71
9.60606e-71
9.4337e-71
9.63126e-71
9.43215e-71
9.6124e-71
9.34853e-71
9.67417e-71
9.3378e-71
9.44097e-71
9.46208e-71
9.25645e-71
5.66087e-71
5.66317e-71
5.67528e-71
5.58894e-71
5.62565e-71
5.64293e-71
5.68206e-71
5.55553e-71
5.70629e-71
5.63944e-71
5.66881e-71
5.68528e-71
5.60294e-71
5.64153e-71
5.52643e-71
5.62256e-71
5.64006e-71
5.58179e-71
5.59284e-71
5.64646e-71
8.96516e-71
9.03458e-71
9.11366e-71
8.96694e-71
8.91105e-71
8.94855e-71
9.05038e-71
8.87013e-71
9.14654e-71
9.07461e-71
9.1248e-71
9.0791e-71
9.02644e-71
8.92658e-71
8.86124e-71
8.95051e-71
8.88996e-71
8.90706e-71
8.96957e-71
8.99879e-71
1.01426e-70
1.02166e-70
1.02645e-70
1.00796e-70
1.00746e-70
9.89729e-71
1.01179e-70
9.95576e-71
1.01871e-70
1.04132e-70
1.03099e-70
1.00671e-70
1.03074e-70
1.01535e-70
1.01396e-70
1.02053e-70
9.80216e-71
1.01473e-70
9.98554e-71
1.0021e-70
1.17182e-70
1.19037e-70
1.18816e-70
1.18209e-70
1.18874e-70
1.19809e-70
1.22572e-70
1.1887e-70
1.19176e-70
1.17605e-70
1.1805e-70
1.18215e-70
1.19345e-70
1.19607e-70
1.17401e-70
1.1883e-70
1.19479e-70
1.17836e-70
1.17193e-70
1.17601e-70
1.25263e-70
1.24987e-70
1.25732e-70
1.28127e-70
1.27103e-70
1.28419e-70
1.26214e-70
1.28582e-70
1.26207e-70
1.22721e-70
1.23888e-70
1.24535e-70
1.25085e-70
1.23072e-70
1.2255e-70
1.23889e-70
1.22762e-70
1.25185e-70
1.23903e-70
1.26428e-70
1.29171e-70
1.28916e-70
1.31262e-70
1.29913e-70
1.28824e-70
1.31037e-70
1.3061e-70
1.32653e-70
1.29176e-70
1.31272e-70
1.30601e-70
1.3087e-70
1.31401e-70
1.31168e-70
1.30085e-70
1.33467e-70
1.29951e-70
1.28453e-70
1.29982e-70
1.29989e-70
1.2671e-70
1.24415e-70
1.24948e-70
1.24468e-70
1.26246e-70
1.27151e-70
1.27138e-70
1.26207e-70
1.23547e-70
1.24353e-70
1.23079e-70
1.26817e-70
1.26609e-70
1.28333e-70
1.27874e-70
1.27633e-70
1.26525e-70
1.26782e-70
1.25262e-70
1.25766e-70
1.17964e-70
1.19615e-70
1.18007e-70
1.22141e-70
1.1855e-70
1.21323e-70
1.1904e-70
1.20719e-70
1.19026e-70
1.19696e-70
1.19379e-70
1.21688e-70
1.19374e-70
1.22769e-70
1.18792e-70
1.2092e-70
1.20695e-70
1.1739e-70
1.21145e-70
1.21063e-70
1.04183e-70
1.08115e-70
1.06849e-70
1.05818e-70
1.04745e-70
1.09236e-70
1.07351e-70
1.07713e-70
1.06867e-70
1.05053e-70
1.06559e-70
1.08576e-70
1.06247e-70
1.10454e-70
1.06416e-70
1.08326e-70
1.08943e-70
1.07113e-70
1.09024e-70
1.09238e-70
9.81118e-71
9.80154e-71
9.77665e-71
9.92164e-71
9.98192e-71
9.96737e-71
9.76628e-71
9.88766e-71
1.00765e-70
9.7779e-71
9.9873e-71
1.00311e-70
9.74027e-71
1.0105e-70
1.00502e-70
1.02522e-70
9.94091e-71
1.0103e-70
9.97468e-71
1.02231e-70
6.86833e-71
6.92015e-71
6.89205e-71
6.83265e-71
6.93701e-71
6.8998e-71
6.95231e-71
6.90946e-71
6.92901e-71
7.01931e-71
6.86999e-71
7.04737e-71
6.8646e-71
7.10983e-71
6.88008e-71
6.88549e-71
6.93262e-71
7.06092e-71
6.94659e-71
7.12511e-71
3.14885e-85
3.10402e-85
3.14353e-85
3.06664e-85
3.10608e-85
3.12146e-85
3.11881e-85
3.03468e-85
3.06562e-85
3.14251e-85
3.0794e-85
3.15355e-85
3.07764e-85
3.14266e-85
3.05239e-85
3.1671e-85
3.04394e-85
3.08298e-85
3.09759e-85
3.01646e-85
1.92205e-82
1.89473e-82
1.91841e-82
1.87236e-82
1.89557e-82
1.90557e-82
1.90375e-82
1.85262e-82
1.87151e-82
1.91832e-82
1.88008e-82
1.92478e-82
1.87925e-82
1.91857e-82
1.86373e-82
1.9333e-82
1.85868e-82
1.88236e-82
1.8907e-82
1.84186e-82
5.94449e-80
5.86018e-80
5.93201e-80
5.79236e-80
5.86144e-80
5.89431e-80
5.88802e-80
5.73066e-80
5.78906e-80
5.93342e-80
5.81605e-80
5.95255e-80
5.8142e-80
5.93469e-80
5.76588e-80
5.97963e-80
5.75062e-80
5.82339e-80
5.84732e-80
5.69852e-80
1.08461e-77
1.06927e-77
1.08212e-77
1.05715e-77
1.06926e-77
1.07561e-77
1.07434e-77
1.04578e-77
1.05644e-77
1.08269e-77
1.06144e-77
1.08602e-77
1.06123e-77
1.083e-77
1.05235e-77
1.09108e-77
1.04965e-77
1.06283e-77
1.06685e-77
1.04012e-77
1.37506e-75
1.35568e-75
1.37162e-75
1.34061e-75
1.35534e-75
1.36383e-75
1.36209e-75
1.32606e-75
1.33959e-75
1.37272e-75
1.34601e-75
1.37674e-75
1.34591e-75
1.37322e-75
1.33455e-75
1.38329e-75
1.33126e-75
1.34782e-75
1.35247e-75
1.31917e-75
1.23069e-73
1.21343e-73
1.22737e-73
1.20022e-73
1.21283e-73
1.22083e-73
1.21916e-73
1.18709e-73
1.19923e-73
1.22871e-73
1.20504e-73
1.23212e-73
1.20508e-73
1.22926e-73
1.19482e-73
1.23808e-73
1.19203e-73
1.20667e-73
1.21042e-73
1.18119e-73
7.50473e-72
7.40023e-72
7.483e-72
7.32126e-72
7.39466e-72
7.44575e-72
7.43496e-72
7.24068e-72
7.31513e-72
7.49316e-72
7.35067e-72
7.51291e-72
7.35151e-72
7.49706e-72
7.28824e-72
7.54953e-72
7.27259e-72
7.36039e-72
7.38058e-72
7.20647e-72
3.0706e-70
3.02835e-70
3.06115e-70
2.99665e-70
3.02521e-70
3.04702e-70
3.04249e-70
2.96358e-70
2.99446e-70
3.06607e-70
3.00887e-70
3.07377e-70
3.0093e-70
3.0679e-70
2.98305e-70
3.08862e-70
2.97755e-70
3.01251e-70
3.01963e-70
2.9507e-70
3.31826e-69
3.274e-69
3.3078e-69
3.24033e-69
3.26934e-69
3.29373e-69
3.28916e-69
3.20475e-69
3.23948e-69
3.31364e-69
3.25432e-69
3.32178e-69
3.25431e-69
3.31585e-69
3.22527e-69
3.33686e-69
3.22151e-69
3.25706e-69
3.26343e-69
3.19321e-69
1.91627e-69
1.91703e-69
1.92155e-69
1.89244e-69
1.90431e-69
1.91062e-69
1.92343e-69
1.88082e-69
1.93193e-69
1.90933e-69
1.91935e-69
1.92456e-69
1.89716e-69
1.90992e-69
1.87143e-69
1.90308e-69
1.90937e-69
1.88981e-69
1.89357e-69
1.91158e-69
3.04975e-69
3.07286e-69
3.10005e-69
3.04991e-69
3.03101e-69
3.04342e-69
3.07746e-69
3.01686e-69
3.11062e-69
3.08646e-69
3.10362e-69
3.08747e-69
3.07033e-69
3.03648e-69
3.01438e-69
3.0441e-69
3.02322e-69
3.02961e-69
3.05061e-69
3.06013e-69
3.43663e-69
3.4614e-69
3.47774e-69
3.41477e-69
3.41379e-69
3.35425e-69
3.42875e-69
3.37453e-69
3.45128e-69
3.52749e-69
3.49217e-69
3.41107e-69
3.49175e-69
3.4402e-69
3.43522e-69
3.45748e-69
3.32164e-69
3.43729e-69
3.38325e-69
3.39496e-69
3.97955e-69
4.04099e-69
4.03432e-69
4.01453e-69
4.03674e-69
4.06863e-69
4.16062e-69
4.03731e-69
4.04695e-69
3.99334e-69
4.0082e-69
4.01401e-69
4.05258e-69
4.06238e-69
3.98765e-69
4.03533e-69
4.05711e-69
4.00219e-69
3.98006e-69
3.99405e-69
4.23833e-69
4.228e-69
4.25272e-69
4.33386e-69
4.29966e-69
4.34384e-69
4.26917e-69
4.34989e-69
4.26794e-69
4.15276e-69
4.19091e-69
4.2137e-69
4.23134e-69
4.16407e-69
4.14626e-69
4.19182e-69
4.1528e-69
4.23486e-69
4.19165e-69
4.27668e-69
4.38439e-69
4.37499e-69
4.45436e-69
4.4083e-69
4.37214e-69
4.44787e-69
4.43217e-69
4.50201e-69
4.38451e-69
4.45577e-69
4.43268e-69
4.44208e-69
4.45898e-69
4.45299e-69
4.41587e-69
4.52924e-69
4.41073e-69
4.35977e-69
4.41148e-69
4.41042e-69
4.28623e-69
4.20926e-69
4.22569e-69
4.21071e-69
4.27046e-69
4.30108e-69
4.29998e-69
4.269e-69
4.17969e-69
4.2066e-69
4.16319e-69
4.28877e-69
4.28279e-69
4.34033e-69
4.32533e-69
4.31643e-69
4.2796e-69
4.28885e-69
4.23754e-69
4.25439e-69
4.00833e-69
4.06492e-69
4.00967e-69
4.14923e-69
4.02701e-69
4.12107e-69
4.04364e-69
4.10139e-69
4.04403e-69
4.06731e-69
4.05605e-69
4.13472e-69
4.05565e-69
4.17067e-69
4.03648e-69
4.10759e-69
4.10065e-69
3.98918e-69
4.116e-69
4.11335e-69
3.53274e-69
3.66473e-69
3.62263e-69
3.58705e-69
3.55135e-69
3.70238e-69
3.63837e-69
3.65114e-69
3.62244e-69
3.56145e-69
3.61147e-69
3.67976e-69
3.60164e-69
3.74274e-69
3.60696e-69
3.67144e-69
3.69167e-69
3.63107e-69
3.69492e-69
3.70256e-69
3.34926e-69
3.34613e-69
3.33822e-69
3.38717e-69
3.40682e-69
3.40223e-69
3.33346e-69
3.37666e-69
3.43947e-69
3.33846e-69
3.4092e-69
3.42467e-69
3.32469e-69
3.44941e-69
3.43062e-69
3.49947e-69
3.39386e-69
3.44806e-69
3.40445e-69
3.48865e-69
2.33421e-69
2.35183e-69
2.34255e-69
2.32221e-69
2.357e-69
2.34477e-69
2.3619e-69
2.3482e-69
2.35362e-69
2.38483e-69
2.33392e-69
2.39404e-69
2.33237e-69
2.41538e-69
2.33767e-69
2.33962e-69
2.35503e-69
2.3988e-69
2.36011e-69
2.42036e-69
1.23439e-83
1.21682e-83
1.23209e-83
1.20247e-83
1.21739e-83
1.22383e-83
1.22264e-83
1.18981e-83
1.20189e-83
1.23206e-83
1.20742e-83
1.23621e-83
1.20689e-83
1.23218e-83
1.19694e-83
1.24167e-83
1.1936e-83
1.20888e-83
1.21427e-83
1.18279e-83
7.41248e-81
7.30723e-81
7.39723e-81
7.22278e-81
7.30902e-81
7.3501e-81
7.34215e-81
7.14589e-81
7.21842e-81
7.39915e-81
7.25223e-81
7.42297e-81
7.25003e-81
7.40044e-81
7.18982e-81
7.4567e-81
7.17021e-81
7.26141e-81
7.29153e-81
7.10511e-81
2.25093e-78
2.21906e-78
2.24586e-78
2.19393e-78
2.21909e-78