/*--------------------------------*- C++ -*----------------------------------*\
| =========                 |                                                 |
| \\      /  F ield         | OpenFOAM: The Open Source CFD Toolbox           |
|  \\    /   O peration     | Version:  2212                                  |
|   \\  /    A nd           | Website:  www.openfoam.com                      |
|    \\/     M anipulation  |                                                 |
\*---------------------------------------------------------------------------*/
FoamFile
{
    version     2.0;
    format      ascii;
    arch        "LSB;label=32;scalar=64";
    class       volScalarField;
    location    "0.0145";
    object      p;
}
// * * * * * * * * * * * * * * * * * * * * * * * * * * * * * * * * * * * * * //

dimensions      [1 -1 -2 0 0 0 0];

internalField   nonuniform List<scalar> 
7220
(
103.181
591.755
591.164
591.092
591.929
591.462
584.175
582.932
585.19
584.152
120.714
563.551
519.513
106
111.011
588.716
244.518
73.089
259.885
70.9591
357.839
536.55
590.988
555.749
571.724
550.33
649.862
90.532
355.111
443.308
595.668
480.139
593.323
422.506
594.937
125.876
589.77
126.191
122.137
110.47
113.274
114.288
111.325
220.244
219.679
221.042
221.435
221.354
116.367
119.747
121.17
117.57
123.421
127.393
129.338
125.09
131.679
136.302
138.852
133.922
141.29
146.683
149.815
144.143
152.52
158.848
162.398
155.889
165.701
173.083
176.838
169.379
180.932
189.065
192.987
184.793
197.126
204.695
208.867
201.162
211.308
216.617
218.855
215.351
221.126
220.461
220.412
222.336
223.276
220.109
107.939
108.675
115.645
112.608
215.953
218.065
223.765
223.907
220.412
206.981
214.084
191.75
199.532
175.918
183.779
161.302
168.379
148.762
154.759
138.275
143.284
129.451
133.681
121.92
125.54
115.489
118.57
110.081
112.666
122.756
119.027
131.256
126.831
141.164
136.035
152.503
146.648
165.35
158.73
179.958
172.477
195.847
187.731
211.829
204.097
218.787
216.553
219.743
223.719
107.704
109.917
218.776
218.641
208.836
221.6
225.232
225.8
227.017
218.513
225.788
227.193
221.306
225.421
202.772
212.768
185.075
193.529
169.818
177.226
156.313
162.832
144.812
150.301
135.299
139.825
127.405
131.177
120.715
123.928
115.023
117.75
110.104
112.504
105.516
105.646
107.794
106.333
105.662
111.643
109.363
107.566
117.3
114.287
124.441
120.685
133.053
128.565
143.144
137.916
154.752
148.74
167.95
161.153
182.297
174.954
197.553
189.863
212.016
205.18
217.505
215.737
218.302
209.767
215.655
216.462
216.268
103.521
103.683
113.86
111.729
210.092
200.848
199.106
208.167
223.334
202.469
210.563
204.949
216.473
206.404
219.896
222.751
200.078
212.973
178.536
188.318
163.183
170.321
150.982
156.793
140.87
145.684
132.569
136.511
125.717
128.988
119.932
122.706
114.979
117.374
110.3
112.601
106.084
108.119
104.284
103.626
107.436
105.548
119.251
116.363
126.198
122.527
134.723
130.269
144.884
139.611
156.576
150.571
169.677
162.975
183.782
176.652
198.002
190.955
210.177
204.674
215.068
213.44
215.874
214.865
104.22
109.948
206.161
188.83
190.161
196.217
165.493
213.513
213.268
213.546
164.888
107.05
105.384
105.844
108.492
168.656
187.197
175.364
174.799
145.731
159.378
161.671
172.446
148.284
204.877
170.059
211.074
212.349
197.18
206.786
173.074
184.262
156.888
164.112
145.721
150.879
137.149
141.187
130.238
133.521
124.489
127.242
119.606
121.949
115.117
117.386
110.811
112.914
108.862
102.543
101.735
101.921
102.525
101.836
103.852
113.048
116.573
114.65
121.522
118.856
128.085
124.592
136.435
132.066
146.357
141.181
157.847
151.905
170.617
164.095
184.137
177.342
197.333
190.872
207.104
202.904
211.817
209.971
212.774
209.034
212.554
190.087
201.829
174.794
145.295
103.88
111.737
209.868
209.612
209.914
150.835
145.377
177.789
172.702
150.087
145.675
129.171
141.254
161.634
137.832
135.33
131.993
179.031
153.62
195.7
195.636
189.881
194.323
168.583
180.24
151.597
159.044
141.085
145.755
133.962
137.241
128.445
131.069
123.757
126.019
119.621
121.641
115.505
117.545
111.812
113.596
108.54
110.122
105.759
107.081
104.59
101.066
102.552
100.17
100.372
101.05
100.296
104.567
102.465
110.673
107.33
114.454
116.663
115.468
119.786
118.088
124.204
121.806
130.317
127.052
138.072
133.965
147.539
142.602
158.544
152.865
170.712
164.5
183.606
177.141
195.35
189.825
203.351
199.868
207.871
205.939
209.026
205.944
209.149
187.233
199.079
169.855
132.677
135.495
150.092
132.174
205.682
205.365
205.763
107.838
106.83
109.81
113.619
160.069
157.234
150.526
117.019
118.308
113.954
110.78
129.419
135.156
138.042
135.735
129.675
118.525
132.762
138.582
134.887
161.248
146.037
181.001
176.942
178.654
180.566
163.989
173.794
147.256
154.705
137.379
141.608
131.522
134.139
127.212
129.266
123.419
125.274
119.767
121.624
116.247
117.945
113.07
114.617
110.241
111.608
108.98
103.581
99.784
101.394
98.8225
99.0352
99.8347
98.9943
103.559
101.353
106.414
118.542
120.664
119.532
123.468
121.96
127.383
125.245
132.76
129.866
139.78
136.044
148.528
143.943
158.792
153.494
170.268
164.386
182.039
176.236
191.987
187.378
198.855
195.807
203.17
201.258
204.624
202.059
205.248
180.025
194.395
137.767
158.322
126.059
130.184
131.118
105.982
117.662
200.331
200.765
127.468
125.92
139.171
144.273
143.547
139.044
110.745
107.433
104.499
109.519
564.526
123.465
129.661
132.124
134.262
133.169
138.06
135.621
151.916
142.677
167.663
162.67
167.013
167.649
159.306
164.729
143.645
150.749
134.704
138.425
129.89
131.996
126.452
128.099
123.29
124.865
120.102
121.692
117.129
118.582
114.407
115.736
111.997
113.157
109.981
110.935
108.486
109.153
108.052
102.787
105.364
98.7027
100.437
97.677
97.9005
98.844
97.905
102.787
100.475
109.124
105.712
116.894
112.902
120.927
122.74
121.79
124.886
123.767
127.52
126.117
130.961
129.12
135.537
133.092
141.657
138.384
149.455
145.35
158.764
153.938
169.182
163.925
179.331
174.383
187.681
183.802
193.61
190.925
197.744
195.849
199.353
196.166
200.891
200.438
166.334
185.281
134.418
145.858
122.092
126.909
114.944
118.657
105.878
108.333
107.657
111.334
125.281
575.493
128.184
130.967
131.476
590.664
111.019
110.764
116.222
120.146
130.212
104.676
130.053
104.203
104.005
124.442
109.286
581.485
564.282
565.324
564.328
561.085
568.924
125.472
123.079
571.788
123.499
110.102
112.648
121.048
120.446
126.602
573.547
129.682
564.981
124.883
128.265
580.009
127.833
126.744
130.256
128.945
132.605
131.474
134.595
133.629
136.104
135.389
138.372
136.894
146.73
141.347
157.137
153.215
157.456
157.723
153.196
156.292
140.665
146.797
133.049
136.182
128.999
130.775
126.034
127.465
123.254
124.64
120.504
121.85
117.978
119.214
115.694
116.801
113.719
114.664
112.117
112.867
111.489
107.916
102.338
105.078
97.9133
99.8135
96.8024
97.0398
98.1297
97.088
102.25
99.8685
108.591
105.182
112.327
124.863
126.876
125.831
129.149
127.971
131.762
130.403
134.843
133.237
138.66
136.619
143.792
141.046
150.486
146.941
158.645
154.402
167.565
163.071
175.983
171.92
182.789
179.626
187.788
185.476
191.697
189.837
194.315
193.298
194.897
194.77
186.5
193.437
153.204
172.019
133.843
140.879
126.429
129.469
119.804
123.45
116.002
566.549
567.45
567.211
121.313
124.092
569.139
92.6656
594.243
98.3508
110.739
123.954
563.168
120.549
116.293
115.962
120.813
101.458
565.162
121.442
117.955
115.219
108.818
118.218
100.045
98.4106
123.076
161.192
116.027
100.786
125.206
563.78
106.362
97.6747
574.668
571.871
93.1265
566.829
569.406
590.812
133.439
132.461
135.279
134.359
136.8
136.127
137.775
137.331
139.12
138.274
143.755
140.803
149.778
147.37
150.157
150.317
147.273
149.39
138.158
142.814
132.052
134.633
128.476
130.083
125.777
127.074
123.267
124.518
120.926
122.075
118.783
119.827
116.894
117.8
115.339
116.072
114.156
114.697
113.47
113.739
113.377
113.37
113.409
107.927
110.754
102.339
105.085
97.6396
99.7218
96.4271
96.6779
97.88
96.7583
102.056
99.6795
108.221
104.92
115.64
111.841
123.112
119.464
126.51
128.497
127.479
130.773
129.616
133.222
131.966
135.914
134.534
138.777
137.317
142.034
140.319
146.194
143.979
151.673
148.76
158.424
154.916
165.696
162.064
172.368
169.17
177.666
175.208
181.713
179.799
185.297
183.53
187.184
186.562
187.459
187.435
174.96
184.151
147.4
160.656
134.89
139.703
130.174
132.162
124.642
127.732
121.215
564.184
563.088
131.445
574.355
569.655
118.011
116.839
567.689
89.9842
96.9624
563.462
571.974
581.599
118.079
123.275
120.611
113.179
112.756
112.35
110.852
566.398
94.4231
591.522
115.717
115.788
122.341
125.606
91.7498
576.645
119.333
108.452
579.848
590.191
589.19
588.515
577.243
108.963
578.315
581.3
566.316
595.123
574.45
571.469
121.248
101.796
595.371
594.906
594.555
594.97
593.897
101.91
88.8923
123.828
576.926
90.5829
583.398
583.177
578.769
127.213
574.435
581.311
572.088
570.587
83.1057
590.487
87.1135
560.397
136.104
135.604
137.564
136.873
138.613
138.18
139.249
138.985
139.853
139.48
141.907
140.544
144.873
143.681
144.849
145.027
142.406
144.136
136.054
139.182
131.304
133.436
128.035
129.541
125.49
126.705
123.247
124.34
121.253
122.222
119.497
120.342
118.022
118.724
116.857
117.396
116.051
116.404
115.696
115.812
115.697
113.5
107.973
110.811
102.372
105.125
97.6627
99.7522
96.4443
96.6959
97.8979
96.7748
102.071
99.6972
108.087
104.925
115.185
111.535
118.852
129.603
131.837
130.698
134.29
133.036
136.916
135.58
139.725
138.268
142.531
141.142
145.404
143.942
148.749
146.989
153.002
150.739
158.25
155.527
163.841
161.062
168.839
166.465
172.73
170.927
175.749
174.303
178.445
177.158
179.588
179.233
178.725
179.684
164.806
174.009
145.355
153.767
136.766
139.804
133.344
134.918
128.88
131.355
126.088
562.504
578.351
581.806
580.281
579.923
571.104
564.91
114.948
123.854
118.205
110.99
572.939
575.261
577.195
566.894
572.604
569.711
569.256
592.044
152.53
87.2465
131.496
594.183
115.966
128.548
84.0333
563.78
570.781
563.357
565.163
568.949
115.6
591.276
111.824
588.88
595.692
596.002
595.853
581.374
106.163
108.771
106.409
580.745
568.953
577.484
574.773
588.725
588.373
589.72
589.895
591.898
568.492
568.341
595.651
595.158
588.906
566.957
570.437
117.179
107.338
594.595
595.246
592.671
100.273
583.318
587.368
587.78
588.96
81.4722
119.489
88.2199
97.3574
595.747
594.509
582.993
585.102
585.164
584.197
578.833
89.2174
584.857
584.988
586.878
588.057
88.2842
594.878
81.0059
122.638
576.799
585.939
586.179
587.157
578.71
126.671
574.82
586.838
586.406
581.017
573.118
585.45
78.3495
79.6467
97.2371
584.439
584.127
81.7701
137.956
138.272
137.851
139.452
138.913
140.084
139.883
140.279
140.251
140.321
140.291
140.72
140.431
141.637
141.31
141.201
141.56
138.541
140.283
134.359
136.488
130.539
132.345
127.553
128.952
125.175
126.306
123.187
124.139
121.492
122.302
120.085
120.751
118.977
119.494
118.178
118.537
117.725
117.9
117.631
117.631
117.726
117.652
118.248
117.897
118.673
113.714
116.338
108.088
110.951
102.474
105.231
97.7494
99.8552
96.5151
96.7692
97.9647
96.8421
102.123
99.7594
108.093
104.952
114.852
111.389
121.65
118.34
127.521
124.765
129.878
132.273
131.074
134.766
133.503
137.419
136.075
140.217
138.796
143.093
141.694
145.866
144.504
148.506
147.198
151.203
149.828
154.339
152.69
158.14
156.169
162.155
160.164
165.665
164.014
168.29
167.082
170.277
169.348
171.773
171.155
172.164
172.065
170.246
172.089
158.028
165.414
145.025
150.512
138.927
141.181
136.152
137.493
132.534
134.511
128.036
130.318
125.849
77.0393
594.838
592.04
595.925
590.916
562.893
568.117
582.197
579.306
580.902
575.235
577.241
571.379
573.315
569.803
111.997
116.401
93.4314
582.884
105.577
579.524
571.841
590.949
571.089
595.862
596.383
135.272
590.292
591.139
594.369
594.546
596.56
596.456
103.859
594.53
592.89
591.91
587.884
589.389
565
568.948
563.936
564.913
571.957
113.109
110.926
594.947
595.315
592.275
581.693
100.073
105.641
102.752
582.693
571.153
579.519
576.998
589.952
75.4428
589.509
120.122
120.512
126.512
128.672
569.149
567.758
115.03
595.956
105.525
594.03
594.751
583.112
584.222
580.414
90.9502
584.832
589.065
595.472
75.18
595.335
117.813
91.4241
592.737
578.797
79.2906
586.228
588.177
575.554
121.522
577.234
586.177
585.811
587.257
578.282
125.631
575.792
584.782
75.132
74.4463
574.953
583.722
72.5515
594.039
582.575
575.7
574.727
78.4213
585.19
584.182
584.982
585.19
134.804
137.655
139.247
138.808
139.888
139.485
140.843
140.463
141.038
141.013
140.943
141.024
140.477
140.741
140.112
140.278
139.749
139.994
138.437
139.249
136.106
137.418
132.925
134.578
129.725
131.278
127.031
128.308
124.844
125.881
123.069
123.909
121.631
122.297
120.535
121.045
119.749
120.105
119.268
119.471
119.099
119.139
119.145
119.106
119.474
119.252
119.774
119.16
114.159
116.886
108.341
111.257
102.709
105.467
97.9609
100.099
96.6881
96.95
98.124
97.007
102.243
99.9052
108.119
105.025
114.65
111.361
121.047
117.909
123.962
131.773
134.523
133.156
137.251
135.877
140.082
138.654
143.008
141.531
145.933
144.483
148.665
147.332
151.149
149.941
153.385
152.289
155.598
154.471
158.13
156.817
160.773
159.459
163.037
161.994
164.482
163.843
165.497
165.043
165.886
165.76
165.932
165.93
163.301
165.34
154.064
159.324
145.279
149.078
140.994
142.706
138.649
139.803
135.781
137.323
132.275
134.059
129.002
130.556
127.613
585.667
586.017
585.902
586.062
586.071
585.219
586.026
586.041
591.435
591.341
590.349
590.898
589.747
593.171
591.917
593.845
594.568
593.711
595.805
595.255
596.276
596.216
595.873
135.416
590.737
563.897
566.998
584.216
585.312
584.782
582.743
583.56
580.536
581.766
577.368
578.98
574.038
575.672
572.707
109.186
115.427
595.221
130.654
592.945
583.007
100.844
581.442
574.143
591.674
590.862
591.393
71.4463
97.1355
596.308
130.101
577.038
120.944
130.364
102.098
101.531
590.314
589.522
591.168
253.951
594.113
592.916
591.73
587.242
588.893
566.873
566.888
564.782
564.968
575.103
110.642
119.757
110.21
594.44
594.794
136.679
133.276
593.779
592.39
584.245
581.796
99.0939
101.699
93.9597
102.941
99.7873
584.204
90.7497
93.8423
96.6174
573.454
581.284
579.03
589.961
96.202
557.046
559.108
595.577
71.5291
595.033
125.343
586.329
585.879
571.745
564.845
112.947
102.758
593.412
594.239
583.312
586.049
585.271
580.48
82.102
585.998
589.085
96.3196
571.951
73.4705
116.195
91.8115
91.4541
85.3874
96.9666
94.2603
592.367
591.671
579.21
585.37
585.093
587.208
588.189
574.942
120.157
94.5576
97.5822
591.616
591.66
578.035
583.989
73.349
72.1093
90.3992
97.4152
94.4013
98.019
94.7219
98.2347
94.7553
98.1009
577.243
582.851
70.3524
593.755
580.239
577.337
581.641
69.4103
159.61
578.018
590.54
76.6005
97.9148
135.511
138.349
139.845
139.076
140.885
140.522
141.397
141.159
141.727
141.586
141.699
141.731
141.262
141.567
140.511
140.898
139.618
140.079
138.522
139.12
136.785
137.752
134.484
135.713
131.691
133.125
128.883
130.254
126.447
127.608
124.465
125.401
122.892
123.63
121.696
122.253
120.852
121.232
120.33
120.556
120.105
120.187
120.122
120.102
120.367
120.197
120.878
120.603
121.524
121.186
122.292
121.894
122.716
119.702
121.417
114.863
117.522
108.86
111.881
103.201
105.952
98.4134
100.613
97.0498
97.342
98.4562
97.3546
102.486
100.206
108.187
105.18
114.509
111.365
120.482
117.556
125.499
123.174
128.93
127.447
129.707
133.178
131.524
136.287
134.753
139.288
137.791
142.315
140.796
145.34
143.825
148.236
146.811
150.914
149.62
153.231
152.117
155.159
154.255
156.679
155.953
158.18
157.402
159.766
158.991
160.989
160.431
161.418
161.279
161.503
161.481
161.266
161.413
160.805
161.111
158.219
159.995
151.776
155.323
145.82
148.439
142.641
143.947
140.77
141.663
138.64
139.789
136.034
137.364
133.433
134.719
132.123
586.756
586.631
586.784
586.813
586.705
586.747
586.112
586.709
586.686
591.737
591.802
591.328
591.653
590.233
590.84
589.547
588.444
588.86
593.089
592.021
594.527
593.738
595.706
595.182
596.445
596.132
596.486
585.881
593.504
590.382
565.301
565.699
584.251
584.895
584.558
583.375
583.877
581.862
582.708
579.519
580.781
576.92
578.192
575.817
106.545
114.928
594.69
123.95
128.984
593.007
583.105
97.5199
100.601
96.8727
91.1094
583.028
102.728
99.5163
576.406
590.716
93.3827
100.238
591.201
590.554
127.967
108.985
110.429
69.3456
591.346
105.954
593.728
595.471
593.472
125.448
78.7851
121.946
585.315
588.322
589.79
594
592.34
586.453
588.226
568.987
564.721
565.566
564.827
108.296
119.748
109.877
593.835
594.253
131.718
593.63
592.445
584.344
581.969
104.415
87.4317
100.47
96.8836
91.4289
85.7613
504.912
585.381
100.409
575.819
582.73
580.748
589.891
88.2802
93.5035
567.863
82.0879
70.4738
91.5407
123.268
123.648
127.263
127.72
588.781
588.645
576.391
573.3
561.767
110.999
98.8688
129.082
141.392
99.0242
592.909
578.017
137.745
134.528
592.021
585.381
580.856
584.426
584.231
75.2002
91.5698
586.926
101.363
591.927
588.995
94.6673
571.089
135.422
134.418
92.0593
114.552
82.2888
100.445
591.794
586.795
586.238
579.874
583.06
557.183
588.031
101.901
72.3243
71.0642
118.467
107.355
101.481
591.746
579.182
581.844
101.941
69.3525
593.392
577.334
591.793
591.718
578.923
580.566
68.422
579.115
89.0744
579.171
68.2448
593.671
591.073
128.697
113.906
122.184
137.298
139.672
140.325
139.981
141.218
140.734
141.903
141.585
142.172
142.077
142.203
142.208
142.006
142.151
141.339
141.71
140.384
140.897
139.179
139.796
137.69
138.477
135.895
136.826
133.404
134.663
130.693
132.062
128.09
129.356
125.866
126.919
124.071
124.917
122.678
123.325
121.671
122.133
121.043
121.312
120.731
120.851
120.699
120.69
120.852
120.743
121.307
121.066
121.868
121.574
122.533
122.189
122.894
123.163
120.309
121.939
115.711
118.236
109.803
112.822
104.188
106.888
99.3273
101.644
97.7788
98.134
99.122
98.0541
102.961
100.803
108.331
105.489
114.391
111.381
119.944
117.237
124.474
122.373
126.187
129.965
134.013
132.053
137.567
135.844
140.845
139.231
144.068
142.465
147.124
145.61
150.045
148.598
152.674
151.415
154.855
153.821
156.518
155.759
157.58
157.12
158.352
157.963
159.159
158.813
159.363
159.316
159.19
159.36
158.577
158.91
157.82
158.195
156.956
157.453
154.635
156.09
150.26
152.59
146.338
148.103
143.948
144.971
142.426
143.143
140.946
141.718
139.263
140.127
137.431
138.365
136.44
585.88
586.991
586.527
587.406
587.281
587.391
587.432
587.252
587.321
587.205
587.207
586.952
587.405
587.269
591.666
591.78
591.928
591.911
591.44
591.776
590.286
590.937
588.85
589.534
588.42
589.183
593
592.173
594.381
593.721
595.382
594.935
596.089
595.773
596.129
596.214
595.894
592.944
589.805
566.838
564.621
584.506
585.319
584.806
584.381
584.43
584.078
584.281
583.237
583.736
581.662
582.544
579.716
580.662
578.463
578.963
99.1606
104.13
114.855
594.103
122.053
127.114
592.942
583.249
103.852
92.6615
88.4177
106.221
104.304
584.286
103.412
578.497
590.659
90.8094
394.659
563.2
68.8714
88.6769
591.752
95.527
590.566
381.687
593.054
576.977
124.031
127.801
588.516
588.792
590.426
594.321
591.602
585.539
587.439
570.41
562.432
565.892
564.404
580.268
580.838
106.211
119.846
109.743
513.991
487.98
479.894
512.24
593.276
593.688
130.199
592.448
584.516
582.28
583.37
583.23
80.4433
97.9281
93.2323
88.566
528.455
109.772
106.585
83.3531
81.3182
586.382
591.168
104.679
582.23
591.313
589.701
545.62
91.9005
566.616
139.22
138.586
133.873
573.91
558.559
585.019
86.7005
585.624
109.26
94.4472
109.025
105.907
93.5342
103.04
112.175
592.382
158.347
133.711
592.039
585.566
581.417
326.734
405.68
581.988
555.802
71.4712
88.6331
591.537
591.899
591.647
587.681
365.175
341.167
586.17
105.655
562.437
594.452
568.513
70.6222
588.769
112.953
76.6448
78.7023
94.5883
81.0749
104.735
119.571
118.849
139.396
136.876
591.807
586.437
580.752
588.681
588.182
588.408
425.83
580.7
374.394
462.493
106.01
585.645
68.9569
592.887
75.948
593.492
116.729
266.979
108.157
604.483
105.74
573.766
591.695
587.597
587.169
580.441
587.822
572.233
579.315
67.9735
576.042
87.6556
591.579
580.476
577.823
67.7115
68.0475
86.4216
591.425
580.818
579.705
139.024
125.823
112.223
112.921
109.38
112.79
112.344
139.11
140.636
141.075
140.868
141.598
141.319
142.1
141.896
142.415
142.252
142.535
142.518
142.447
142.518
142.01
142.28
141.222
141.66
140.106
140.705
138.666
139.43
136.66
137.775
134.251
135.515
132.023
133.102
129.613
130.834
127.302
128.428
125.304
126.253
123.684
124.447
122.443
123.014
121.6
121.971
121.119
121.307
120.976
121.006
121.041
120.987
121.394
121.174
121.914
121.641
122.532
122.212
123.221
122.87
123.932
123.577
124.617
124.28
124.937
123.626
124.411
120.982
122.5
116.682
119.046
111.042
113.958
105.529
108.173
100.641
103.031
98.9605
99.3478
100.056
99.113
103.61
101.6
108.617
105.977
114.237
111.424
119.37
116.898
123.379
121.535
125.424
124.761
125.586
125.637
125.382
129.937
127.645
134.374
132.205
138.267
136.382
141.7
140.037
144.856
143.292
148.37
146.676
151.426
149.96
153.956
152.77
156.001
155.043
157.474
156.814
158.249
157.956
158.605
158.449
158.689
158.677
158.382
158.598
157.627
158.051
156.546
157.115
155.394
155.962
154.204
154.84
152.113
153.334
149.308
150.766
146.714
147.912
144.98
145.742
143.828
144.368
142.803
143.316
141.743
142.275
140.587
141.192
139.925
586.715
586.265
587.631
587.228
587.96
587.873
587.882
587.949
587.71
587.795
587.646
587.653
587.808
587.692
588.002
592.095
592.054
591.681
591.982
590.565
591.207
589.09
589.812
588.634
589.49
589.579
589.44
589.924
593.057
592.423
594.087
593.637
594.835
594.461
595.471
595.148
595.702
595.676
595.591
594.682
70.4845
589.124
567.9
563.285
584.565
584.659
584.75
584.626
584.865
584.855
584.594
584.789
583.753
584.243
582.385
583.16
581.206
581.649
581.078
101.964
115.061
502.12
493.742
593.503
120.168
125.146
592.867
583.484
381.106
380.218
580.873
582.099
591.256
587.823
581.266
107.209
111.406
110.517
566.597
110.792
87.1897
85.8031
75.7229
108.469
79.7708
585.297
350.238
107.818
580.372
591.001
590.33
89.2465
387.432
561.353
565.316
561.778
567.937
132.997
115.959
565.813
103.523
137.911
119.647
138.106
221.26
592.409
595.294
592.971
590.638
570.996
560.059
563.793
586.604
104.427
125.763
120.236
108.093
102.846
96.6884
105.692
110.317
592.741
83.6673
399.434
584.898
536.435
84.4027
128.898
592.336
584.775
582.733
588.977
589.205
589.534
589.312
399.493
404.591
579.352
576.434
578.073
580.782
554.005
116.492
132.234
74.54
94.803
88.2614
85.884
591.336
570.416
593.427
114.961
81.0589
79.0969
76.6829
593.252
587.126
331.76
318.578
109.395
568.528
70.4528
107.372
583.552
591.826
593.863
89.5204
589.415
590.646
583.707
583.296
124.929
125.211
123.37
123.185
590.01
590.509
591.003
571.021
575.223
553.393
555.513
107.793
80.9147
72.5382
91.7743
90.6683
106.121
93.6771
107.798
117.624
593
133.01
350.246
593.017
591.946
585.83
582.13
588.718
415.013
426.51
572.891
579.41
551.37
309.165
168.323
69.6316
85.9975
591.226
70.393
74.5808
588.439
110.194
110.654
68.8326
148.932
554.799
314.831
549.692
111.505
78.9343
95.3562
80.8417
114.062
110.276
87.5191
109.488
125.774
569.656
136.477
591.72
586.698
581.797
588.098
445.841
567.17
577.955
138.222
224.221
207.291
284.052
110.292
67.8014
292.163
115.101
77.663
100.855
572.381
140.348
138.786
87.4433
591.531
587.438
581.734
560.975
576.344
237.506
67.4645
67.6405
85.0179
591.333
581.884
574.581
373.254
579.999
525.645
591.753
579.156
125.054
115.319
115.943
116.139
115.496
117.1
122.25
117.985
139.977
140.711
141.372
141.09
141.771
141.576
142.154
141.955
142.464
142.316
142.656
142.584
142.613
142.653
142.345
142.509
141.804
142.123
140.914
141.396
139.756
140.363
138.416
139.107
137.132
137.752
135.766
136.572
133.272
134.654
130.152
131.788
127.395
128.716
125.15
126.196
123.448
124.24
122.233
122.779
121.475
121.801
121.106
121.247
121.07
121.06
121.242
121.12
121.685
121.444
122.259
121.959
122.914
122.578
123.611
123.26
124.297
123.959
124.622
125.232
124.108
124.786
121.744
123.112
117.813
119.98
112.535
115.289
107.205
109.776
102.326
104.763
100.536
100.974
101.264
100.521
104.399
102.592
108.975
106.566
114.07
111.517
118.722
116.508
122.169
120.62
123.449
123.075
123.531
125.535
130.181
127.792
135.048
132.629
139.535
137.366
143.546
141.573
147.141
145.46
149.7
148.402
152.374
151.039
154.776
153.623
156.704
155.802
158.129
157.495
158.716
158.536
158.789
158.778
158.536
158.73
157.793
158.226
156.659
157.261
155.268
155.985
153.836
154.539
152.458
153.158
150.946
151.714
149.026
150.061
147.137
148.043
145.645
146.324
144.66
145.105
143.939
144.278
143.352
143.635
142.593
143.033
141.502
142.047
140.959
141.178
587.522
587.094
588.248
587.935
588.426
588.407
588.278
588.373
588.083
588.176
588.011
588.024
588.162
588.053
588.605
588.345
588.923
589.882
590.365
590.028
590.652
590.256
591.397
591.007
592.007
591.732
592.291
592.204
592.036
592.253
591.05
591.634
589.647
590.357
589.078
589.2
589.335
590.24
590.454
590.604
593.24
592.852
593.664
593.572
593.755
593.601
594.706
594.277
595.243
595.016
595.316
593.402
154.312
582.041
568.238
561.852
585.146
586.592
585.725
584.513
584.729
584.605
584.344
585.236
584.984
585.355
585.343
584.551
585.127
583.883
583.875
583.878
583.946
583.698
99.8272
115.317
99.7515
108.157
592.929
590.116
584.317
118.529
123.334
126.398
583.831
589.668
402.455
579.462
548.978
551.626
115.807
110.627
112.35
574.402
110.888
112.743
116.944
140.702
137.374
80.6462
83.3353
652.546
591.875
113.799
77.5926
494.891
325.904
112.937
125.62
582.155
591.379
553.866
547.196
589.994
583.21
651.241
394.662
294.872
487.247
122.206
140.142
516.286
125.453
123.405
140.2
592.043
238.785
595.137
593.056
578.762
571.165
557.866
563.469
102.789
552.768
88.9499
126.073
120.675
105.409
102.971
96.777
110.767
115.842
592.197
592.59
377.842
159.353
127.87
592.676
592.127
585.122
583.296
589.067
419.947
425.77
574.839
577.99
548.939
375.727
527.211
140.187
131.661
71.6442
90.507
82.1556
83.4618
590.875
589.812
590.189
578.353
121.578
78.9493
77.0696
74.7762
586.186
586.057
592.678
586.535
587.969
288.99
295.333
114.389
111.107
68.7914
591.785
582.164
138.991
584.586
562.911
205.159
293.048
547.113
569.852
552.503
587.076
587.837
588.449
106.453
81.2433
92.3542
87.8222
106.737
93.9191
128.808
134.354
132.824
113.097
124.573
565.03
560.014
612.268
436.572
132.456
591.799
586.159
582.959
588.436
586.135
434.161
446.31
569.156
576.442
97.2759
191.606
325.766
608.013
139.08
139.162
138.213
138.665
68.7364
83.8779
591.115
294.876
72.4238
72.7808
589.039
115.03
545.384
67.7535
136.541
139.81
138.091
587.669
113.63
110.105
79.8649
97.3097
80.5143
112.409
123.241
114.576
556.069
532.27
568.081
90.413
136.074
107.206
591.531
587.02
582.856
587.76
464.144
562.916
574.732
555.761
217.185
171.806
594.398
104.951
138.413
67.363
67.4474
84.6249
591.272
582.951
572.89
243.677
579.052
582.891
120.145
125.048
117.799
117.805
119.04
118.049
127.715
121.772
132.128
137.851
141.242
140.946
141.643
141.466
141.983
141.814
142.279
142.136
142.477
142.392
142.546
142.542
142.445
142.523
142.053
142.278
141.387
141.759
140.421
140.942
139.108
139.814
137.295
138.282
134.893
136.173
131.416
133.196
128.395
129.84
126.356
127.238
124.779
125.509
123.5
124.11
122.464
122.953
121.684
122.038
121.197
121.403
121.028
121.072
121.086
121.038
121.377
121.202
121.849
121.593
122.441
122.138
123.071
122.754
123.695
123.387
124.249
123.985
124.661
124.477
124.815
124.788
124.792
125.492
125.643
124.601
125.15
122.58
123.762
119.088
121.021
114.305
116.816
109.303
111.735
104.542
106.972
102.442
103.025
102.74
102.333
105.311
103.764
109.377
107.229
113.876
111.646
117.97
116.035
120.711
119.587
121.409
121.239
121.197
121.406
121.359
121.071
119.234
122.491
120.79
126.709
124.477
131.628
129.129
136.312
134.059
140.329
138.392
144.399
142.253
148.662
146.566
152.246
150.547
155.004
153.723
157.055
156.117
158.52
157.846
158.99
158.859
158.977
159.017
158.533
158.812
157.526
158.098
156.148
156.864
154.546
155.369
152.881
153.707
151.229
152.07
149.245
150.308
146.949
148.032
145.138
145.901
144.141
144.631
143.458
143.755
143.12
143.26
142.862
143
142.349
142.646
142.148
142.21
142.197
142.145
142.249
142.235
142.114
587.746
587.67
588.351
587.99
588.886
588.673
588.887
588.945
588.631
588.762
588.398
588.504
588.309
588.33
588.444
588.345
588.816
588.605
589.371
589.087
590.016
589.681
590.749
590.377
591.465
591.106
592.109
591.805
592.538
592.363
592.483
592.594
591.695
592.179
590.492
591.113
589.985
590.094
590.993
590.271
592.824
591.826
593.883
592.522
593.05
593.301
592.54
229.245
593.629
593.464
247.951
593.801
593.549
594.664
594.246
594.245
594.786
594.213
593.965
595.052
594.708
595.201
595.203
595.206
600.897
542.809
582.053
567.82
560.614
585.61
586.258
585.872
585.478
588.255
587.04
588.742
588.617
589.27
588.917
589.715
589.652
588.006
589.288
586.278
586.811
586.148
97.2916
591.394
115.334
99.8335
409.638
134.922
136.467
113.507
592.412
583.912
367.823
117.024
122.157
592.393
584.282
589.436
423.496
576.447
546.026
443.494
432.497
406.54
267.448
117.291
122.439
113.194
113.936
113.812
113.338
118.538
115.162
132.723
125.877
134.995
139.423
139.807
136.516
75.4224
81.0854
590.549
311.277
120.405
75.6141
585.961
131.944
453.565
460.936
592.275
587.236
503.576
587.288
298.775
118.439
69.1013
574.416
169.282
182.954
109.76
90.7796
530.441
601.33
583.428
600.307
555.907
128.997
141.807
558.082
221.845
141.429
304.181
133.025
593.332
139.101
583.818
581.011
574.463
573.487
134.206
555.693
563.279
588.055
588.139
100.863
83.6192
89.3992
126.191
120.845
101.879
103.38
97.0085
137.711
134.324
116.506
122.399
595.102
546.135
591.696
271.427
604.802
458.584
127.193
572.078
509.833
167.245
592.392
591.943
585.538
583.954
588.812
438.839
445.225
571.204
574.804
144.966
151.141
154.818
177.835
404.599
544.01
360.278
281.593
157.667
150.91
147.559
139.889
116.014
139.121
139.575
131.408
70.2457
85.0316
77.2239
81.4802
590.76
589.606
590.003
117.962
129.018
77.1276
75.2952
73.0808
588.558
272.773
119.843
69.6495
141.853
136.957
271.19
569.218
127.438
127.374
119.328
117.643
593.438
594.538
595.076
112.135
519.648
90.848
104.799
82.247
93.7128
86.577
108.257
94.5119
129.59
118.759
539.38
133.109
569.953
563.085
586.443
594.793
132.089
87.7401
591.569
586.551
583.828
588.137
451.649
464.316
564.97
572.994
549.349
148.581
199.456
274.143
162.076
539.408
304.985
153.213
139.573
138.215