/*--------------------------------*- C++ -*----------------------------------*\
| =========                 |                                                 |
| \\      /  F ield         | OpenFOAM: The Open Source CFD Toolbox           |
|  \\    /   O peration     | Version:  2212                                  |
|   \\  /    A nd           | Website:  www.openfoam.com                      |
|    \\/     M anipulation  |                                                 |
\*---------------------------------------------------------------------------*/
FoamFile
{
    version     2.0;
    format      ascii;
    arch        "LSB;label=32;scalar=64";
    class       volScalarField;
    location    "0.386";
    object      pMean;
}
// * * * * * * * * * * * * * * * * * * * * * * * * * * * * * * * * * * * * * //

dimensions      [0 2 -2 0 0 0 0];

internalField   nonuniform List<scalar> 
24240
(
4.8997
4.89971
4.89971
4.89971
4.89972
4.89972
4.89973
4.89974
4.89974
4.89975
4.89976
4.89977
4.89978
4.89978
4.89979
4.8998
4.8998
4.89981
4.89981
4.89981
3.80455
3.80455
3.80455
3.80456
3.80456
3.80456
3.80457
3.80458
3.80458
3.80459
3.80459
3.8046
3.80461
3.80461
3.80462
3.80462
3.80462
3.80463
3.80463
3.80463
3.89274
3.89274
3.89274
3.89274
3.89274
3.89273
3.89273
3.89273
3.89272
3.89272
3.89271
3.89271
3.89271
3.8927
3.8927
3.8927
3.8927
3.89269
3.89269
3.89269
3.49727
3.49727
3.49727
3.49727
3.49728
3.49728
3.49728
3.49729
3.49729
3.49729
3.49729
3.4973
3.4973
3.4973
3.4973
3.4973
3.4973
3.4973
3.4973
3.4973
3.53743
3.53743
3.53743
3.53743
3.53742
3.53741
3.5374
3.53739
3.53738
3.53737
3.53736
3.53735
3.53734
3.53733
3.53732
3.53731
3.53731
3.5373
3.5373
3.53729
3.39058
3.39059
3.39059
3.39059
3.39058
3.39058
3.39058
3.39058
3.39058
3.39058
3.39057
3.39057
3.39057
3.39057
3.39056
3.39056
3.39056
3.39055
3.39055
3.39055
3.41628
3.41628
3.41628
3.41627
3.41627
3.41626
3.41625
3.41624
3.41623
3.41622
3.41621
3.41621
3.4162
3.41619
3.41618
3.41617
3.41617
3.41616
3.41616
3.41615
3.353
3.353
3.353
3.353
3.35299
3.35299
3.35298
3.35297
3.35297
3.35296
3.35295
3.35295
3.35294
3.35293
3.35293
3.35292
3.35292
3.35291
3.35291
3.3529
3.36696
3.36696
3.36696
3.36696
3.36695
3.36695
3.36694
3.36693
3.36693
3.36692
3.36691
3.36691
3.3669
3.36689
3.36688
3.36688
3.36687
3.36687
3.36687
3.36686
3.3581
3.3581
3.35809
3.35809
3.35808
3.35807
3.35806
3.35805
3.35804
3.35803
3.35802
3.35801
3.358
3.35799
3.35798
3.35797
3.35796
3.35796
3.35795
3.35795
3.35278
3.35279
3.35279
3.35279
3.3528
3.3528
3.35281
3.35281
3.35282
3.35282
3.35282
3.35283
3.35283
3.35283
3.35283
3.35283
3.35283
3.35283
3.35283
3.35283
3.39955
3.39955
3.39954
3.39954
3.39953
3.39951
3.3995
3.39949
3.39947
3.39946
3.39944
3.39942
3.39941
3.3994
3.39939
3.39938
3.39937
3.39936
3.39936
3.39935
3.37723
3.37723
3.37724
3.37725
3.37725
3.37726
3.37727
3.37729
3.3773
3.37731
3.37732
3.37733
3.37733
3.37734
3.37735
3.37735
3.37735
3.37735
3.37735
3.37735
3.4905
3.4905
3.49049
3.49048
3.49047
3.49046
3.49045
3.49043
3.49041
3.4904
3.49038
3.49037
3.49035
3.49034
3.49033
3.49032
3.49031
3.49031
3.4903
3.4903
3.45386
3.45386
3.45387
3.45388
3.45389
3.4539
3.45392
3.45393
3.45395
3.45397
3.45398
3.454
3.45401
3.45402
3.45403
3.45404
3.45404
3.45404
3.45405
3.45404
3.69432
3.69432
3.69432
3.69431
3.6943
3.69429
3.69428
3.69427
3.69426
3.69424
3.69423
3.69422
3.69421
3.6942
3.69419
3.69418
3.69418
3.69418
3.69417
3.69417
3.6436
3.6436
3.64361
3.64362
3.64364
3.64365
3.64367
3.64369
3.64371
3.64373
3.64375
3.64377
3.64379
3.6438
3.64382
3.64383
3.64384
3.64384
3.64384
3.64384
4.27558
4.27558
4.27558
4.27558
4.27557
4.27557
4.27557
4.27556
4.27556
4.27556
4.27556
4.27555
4.27555
4.27555
4.27555
4.27555
4.27555
4.27555
4.27555
4.27555
4.16645
4.16646
4.16646
4.16647
4.16649
4.1665
4.16652
4.16654
4.16656
4.16658
4.1666
4.16662
4.16664
4.16666
4.16668
4.1667
4.16671
4.16672
4.16673
4.16673
5.88416
5.88417
5.88417
5.88417
5.88418
5.88419
5.8842
5.88421
5.88423
5.88424
5.88426
5.88428
5.88429
5.88431
5.88433
5.88434
5.88436
5.88437
5.88438
5.88438
11.2926
11.2926
11.2926
11.2926
11.2926
11.2926
11.2926
11.2926
11.2927
11.2927
11.2927
11.2927
11.2927
11.2927
11.2927
11.2927
11.2928
11.2928
11.2928
11.2928
10.4027
10.4027
10.4027
10.4027
10.4027
10.4028
10.4028
10.4028
10.4028
10.4028
10.4028
10.4028
10.4028
10.4029
10.4029
10.4029
10.4029
10.4029
10.4029
10.4029
10.6039
10.6039
10.6039
10.6039
10.6039
10.6038
10.6038
10.6038
10.6038
10.6038
10.6038
10.6038
10.6038
10.6038
10.6038
10.6038
10.6037
10.6037
10.6037
10.6037
10.1407
10.1407
10.1407
10.1407
10.1407
10.1407
10.1407
10.1407
10.1408
10.1408
10.1408
10.1408
10.1408
10.1408
10.1408
10.1408
10.1408
10.1408
10.1408
10.1408
10.2492
10.2492
10.2492
10.2492
10.2492
10.2492
10.2492
10.2492
10.2491
10.2491
10.2491
10.2491
10.2491
10.2491
10.249
10.249
10.249
10.249
10.249
10.249
9.98166
9.98166
9.98166
9.98166
9.98165
9.98165
9.98165
9.98164
9.98164
9.98163
9.98163
9.98162
9.98161
9.98161
9.9816
9.98159
9.98159
9.98158
9.98158
9.98157
10.0492
10.0492
10.0492
10.0492
10.0492
10.0492
10.0492
10.0491
10.0491
10.0491
10.0491
10.0491
10.0491
10.049
10.049
10.049
10.049
10.049
10.049
10.049
9.91478
9.91478
9.91478
9.91477
9.91476
9.91475
9.91474
9.91473
9.91472
9.9147
9.91469
9.91467
9.91466
9.91464
9.91463
9.91462
9.91461
9.9146
9.91459
9.91458
9.95006
9.95006
9.95005
9.95005
9.95004
9.95003
9.95002
9.95001
9.95
9.94998
9.94997
9.94995
9.94994
9.94993
9.94991
9.9499
9.94989
9.94988
9.94987
9.94987
9.93212
9.93211
9.93211
9.9321
9.93209
9.93207
9.93206
9.93204
9.93202
9.93201
9.93199
9.93197
9.93195
9.93193
9.93192
9.9319
9.93189
9.93188
9.93187
9.93186
9.92659
9.92659
9.92659
9.92659
9.92659
9.9266
9.9266
9.9266
9.9266
9.9266
9.9266
9.9266
9.9266
9.92659
9.92659
9.92659
9.92658
9.92658
9.92657
9.92657
10.03
10.03
10.03
10.03
10.03
10.0299
10.0299
10.0299
10.0299
10.0299
10.0298
10.0298
10.0298
10.0298
10.0298
10.0297
10.0297
10.0297
10.0297
10.0297
9.98639
9.98639
9.9864
9.9864
9.98641
9.98642
9.98643
9.98645
9.98646
9.98647
9.98648
9.98648
9.98649
9.98649
9.9865
9.9865
9.9865
9.9865
9.98649
9.98649
10.2261
10.2261
10.2261
10.2261
10.2261
10.226
10.226
10.226
10.226
10.226
10.2259
10.2259
10.2259
10.2259
10.2259
10.2258
10.2258
10.2258
10.2258
10.2258
10.1404
10.1404
10.1405
10.1405
10.1405
10.1405
10.1405
10.1405
10.1406
10.1406
10.1406
10.1406
10.1406
10.1406
10.1406
10.1406
10.1407
10.1407
10.1407
10.1407
10.5593
10.5593
10.5593
10.5593
10.5593
10.5593
10.5593
10.5593
10.5593
10.5592
10.5592
10.5592
10.5592
10.5592
10.5592
10.5592
10.5591
10.5591
10.5591
10.5591
10.4143
10.4143
10.4144
10.4144
10.4144
10.4144
10.4144
10.4145
10.4145
10.4145
10.4145
10.4146
10.4146
10.4146
10.4146
10.4146
10.4146
10.4147
10.4147
10.4147
11.0952
11.0952
11.0952
11.0951
11.0951
11.0951
11.0951
11.0951
11.0951
11.0951
11.0951
11.0951
11.0951
11.0951
11.0951
11.0951
11.0951
11.0951
11.0951
11.0951
10.828
10.828
10.828
10.828
10.828
10.828
10.8281
10.8281
10.8281
10.8281
10.8282
10.8282
10.8282
10.8283
10.8283
10.8283
10.8283
10.8284
10.8284
10.8284
12.1094
12.1094
12.1094
12.1094
12.1094
12.1095
12.1095
12.1095
12.1095
12.1096
12.1096
12.1096
12.1097
12.1097
12.1097
12.1098
12.1098
12.1098
12.1098
12.1099
18.646
18.646
18.646
18.646
18.646
18.646
18.646
18.646
18.646
18.646
18.6461
18.6461
18.6461
18.6461
18.6461
18.6461
18.6462
18.6462
18.6462
18.6462
17.3412
17.3412
17.3412
17.3412
17.3413
17.3413
17.3413
17.3413
17.3413
17.3413
17.3413
17.3413
17.3414
17.3414
17.3414
17.3414
17.3414
17.3414
17.3414
17.3414
17.609
17.609
17.609
17.609
17.609
17.609
17.609
17.609
17.609
17.609
17.609
17.609
17.609
17.609
17.6089
17.6089
17.6089
17.6089
17.6089
17.6089
16.8523
16.8523
16.8523
16.8523
16.8523
16.8523
16.8523
16.8523
16.8523
16.8524
16.8524
16.8524
16.8524
16.8524
16.8524
16.8524
16.8524
16.8524
16.8524
16.8524
17.0096
17.0095
17.0095
17.0095
17.0095
17.0095
17.0095
17.0095
17.0094
17.0094
17.0094
17.0094
17.0094
17.0093
17.0093
17.0093
17.0093
17.0093
17.0093
17.0093
16.5888
16.5888
16.5888
16.5888
16.5888
16.5887
16.5887
16.5887
16.5887
16.5887
16.5887
16.5887
16.5887
16.5887
16.5887
16.5887
16.5887
16.5886
16.5886
16.5886
16.6887
16.6887
16.6887
16.6887
16.6887
16.6887
16.6886
16.6886
16.6886
16.6886
16.6886
16.6885
16.6885
16.6885
16.6885
16.6884
16.6884
16.6884
16.6884
16.6884
16.4863
16.4863
16.4863
16.4863
16.4862
16.4862
16.4862
16.4862
16.4862
16.4862
16.4862
16.4861
16.4861
16.4861
16.4861
16.4861
16.4861
16.486
16.486
16.486
16.5378
16.5378
16.5378
16.5377
16.5377
16.5377
16.5377
16.5377
16.5377
16.5377
16.5376
16.5376
16.5376
16.5376
16.5376
16.5376
16.5375
16.5375
16.5375
16.5375
16.5129
16.5129
16.5129
16.5129
16.5129
16.5129
16.5128
16.5128
16.5128
16.5128
16.5128
16.5127
16.5127
16.5127
16.5127
16.5127
16.5126
16.5126
16.5126
16.5126
16.5123
16.5123
16.5123
16.5123
16.5123
16.5123
16.5123
16.5123
16.5123
16.5123
16.5123
16.5123
16.5123
16.5123
16.5123
16.5123
16.5123
16.5123
16.5123
16.5123
16.667
16.667
16.667
16.667
16.667
16.6669
16.6669
16.6669
16.6669
16.6669
16.6668
16.6668
16.6668
16.6668
16.6667
16.6667
16.6667
16.6667
16.6667
16.6667
16.6187
16.6187
16.6187
16.6188
16.6188
16.6188
16.6188
16.6188
16.6188
16.6188
16.6188
16.6188
16.6188
16.6188
16.6188
16.6188
16.6188
16.6188
16.6188
16.6188
16.9791
16.9791
16.9791
16.9791
16.9791
16.9791
16.9791
16.979
16.979
16.979
16.979
16.979
16.9789
16.9789
16.9789
16.9789
16.9789
16.9789
16.9788
16.9788
16.8763
16.8763
16.8763
16.8763
16.8763
16.8764
16.8764
16.8764
16.8764
16.8764
16.8765
16.8765
16.8765
16.8765
16.8765
16.8765
16.8766
16.8766
16.8766
16.8766
17.529
17.529
17.529
17.529
17.529
17.5289
17.5289
17.5289
17.5289
17.5289
17.5289
17.5289
17.5288
17.5288
17.5288
17.5288
17.5288
17.5288
17.5288
17.5288
17.3436
17.3436
17.3436
17.3436
17.3437
17.3437
17.3437
17.3438
17.3438
17.3438
17.3439
17.3439
17.3439
17.3439
17.344
17.344
17.344
17.344
17.344
17.344
18.4871
18.4871
18.4871
18.4871
18.4871
18.4872
18.4872
18.4872
18.4872
18.4872
18.4872
18.4872
18.4872
18.4872
18.4872
18.4872
18.4872
18.4872
18.4872
18.4872
18.1408
18.1409
18.1409
18.1409
18.1409
18.1409
18.141
18.141
18.1411
18.1411
18.1412
18.1412
18.1412
18.1413
18.1413
18.1413
18.1414
18.1414
18.1414
18.1414
20.0835
20.0835
20.0835
20.0835
20.0835
20.0835
20.0836
20.0836
20.0836
20.0837
20.0837
20.0838
20.0838
20.0838
20.0839
20.0839
20.084
20.084
20.084
20.084
25.1703
25.1703
25.1703
25.1703
25.1703
25.1703
25.1704
25.1704
25.1704
25.1704
25.1704
25.1704
25.1704
25.1705
25.1705
25.1705
25.1705
25.1705
25.1705
25.1705
23.9039
23.9039
23.9039
23.9039
23.9039
23.9039
23.9039
23.9039
23.904
23.904
23.904
23.904
23.904
23.904
23.904
23.904
23.9041
23.9041
23.9041
23.9041
24.2005
24.2005
24.2005
24.2005
24.2005
24.2004
24.2004
24.2004
24.2004
24.2004
24.2004
24.2004
24.2004
24.2004
24.2004
24.2003
24.2003
24.2003
24.2003
24.2003
23.3891
23.3891
23.3891
23.3891
23.3891
23.3891
23.3891
23.3891
23.3891
23.3891
23.3891
23.3891
23.3891
23.3891
23.3891
23.3891
23.3891
23.3891
23.3891
23.3891
23.5828
23.5828
23.5827
23.5827
23.5827
23.5827
23.5827
23.5827
23.5826
23.5826
23.5826
23.5826
23.5826
23.5825
23.5825
23.5825
23.5825
23.5825
23.5825
23.5825
23.087
23.087
23.087
23.087
23.087
23.087
23.087
23.087
23.087
23.087
23.087
23.0869
23.0869
23.0869
23.0869
23.0869
23.0869
23.0869
23.0869
23.0869
23.2107
23.2107
23.2107
23.2106
23.2106
23.2106
23.2106
23.2106
23.2106
23.2105
23.2105
23.2105
23.2105
23.2104
23.2104
23.2104
23.2104
23.2104
23.2103
23.2103
22.9689
22.9689
22.9689
22.9689
22.9689
22.9689
22.9688
22.9688
22.9688
22.9688
22.9688
22.9688
22.9687
22.9687
22.9687
22.9687
22.9687
22.9686
22.9686
22.9686
23.0315
23.0315
23.0315
23.0315
23.0314
23.0314
23.0314
23.0314
23.0314
23.0314
23.0313
23.0313
23.0313
23.0313
23.0313
23.0312
23.0312
23.0312
23.0312
23.0312
23.0062
23.0062
23.0062
23.0062
23.0061
23.0061
23.0061
23.0061
23.0061
23.006
23.006
23.006
23.006
23.0059
23.0059
23.0059
23.0059
23.0059
23.0059
23.0058
23.0096
23.0096
23.0096
23.0096
23.0096
23.0096
23.0096
23.0096
23.0096
23.0096
23.0096
23.0096
23.0096
23.0095
23.0095
23.0095
23.0095
23.0095
23.0095
23.0095
23.2044
23.2044
23.2044
23.2043
23.2043
23.2043
23.2043
23.2043
23.2042
23.2042
23.2042
23.2042
23.2041
23.2041
23.2041
23.2041
23.204
23.204
23.204
23.204
23.1524
23.1524
23.1524
23.1524
23.1524
23.1524
23.1524
23.1524
23.1524
23.1524
23.1524
23.1524
23.1524
23.1524
23.1524
23.1524
23.1524
23.1524
23.1524
23.1524
23.5936
23.5936
23.5935
23.5935
23.5935
23.5935
23.5935
23.5935
23.5934
23.5934
23.5934
23.5934
23.5933
23.5933
23.5933
23.5933
23.5933
23.5933
23.5932
23.5932
23.4752
23.4752
23.4752
23.4752
23.4752
23.4753
23.4753
23.4753
23.4753
23.4753
23.4754
23.4754
23.4754
23.4754
23.4754
23.4754
23.4754
23.4754
23.4754
23.4754
24.2297
24.2297
24.2296
24.2296
24.2296
24.2296
24.2296
24.2296
24.2296
24.2296
24.2295
24.2295
24.2295
24.2295
24.2295
24.2295
24.2295
24.2295
24.2294
24.2294
24.0148
24.0148
24.0148
24.0149
24.0149
24.0149
24.0149
24.015
24.015
24.015
24.0151
24.0151
24.0151
24.0151
24.0152
24.0152
24.0152
24.0152
24.0152
24.0152
25.1995
25.1995
25.1995
25.1995
25.1995
25.1995
25.1995
25.1995
25.1995
25.1995
25.1995
25.1995
25.1995
25.1995
25.1995
25.1995
25.1995
25.1996
25.1996
25.1996
24.8252
24.8252
24.8252
24.8252
24.8252
24.8253
24.8253
24.8253
24.8254
24.8254
24.8255
24.8255
24.8256
24.8256
24.8256
24.8257
24.8257
24.8257
24.8257
24.8257
26.6529
26.6529
26.6529
26.653
26.653
26.653
26.653
26.6531
26.6531
26.6532
26.6532
26.6533
26.6533
26.6534
26.6534
26.6534
26.6535
26.6535
26.6535
26.6535
31.8325
31.8325
31.8325
31.8326
31.8326
31.8326
31.8326
31.8326
31.8326
31.8326
31.8326
31.8327
31.8327
31.8327
31.8327
31.8327
31.8327
31.8327
31.8328
31.8328
30.4654
30.4654
30.4654
30.4654
30.4654
30.4654
30.4655
30.4655
30.4655
30.4655
30.4655
30.4655
30.4655
30.4656
30.4656
30.4656
30.4656
30.4656
30.4656
30.4656
30.7909
30.7909
30.7909
30.7909
30.7909
30.7909
30.7909
30.7909
30.7909
30.7909
30.7909
30.7908
30.7908
30.7908
30.7908
30.7908
30.7908
30.7908
30.7908
30.7908
29.8701
29.8701
29.8701
29.8701
29.8702
29.8702
29.8702
29.8702
29.8702
29.8702
29.8702
29.8702
29.8702
29.8702
29.8702
29.8702
29.8702
29.8702
29.8702
29.8702
30.09
30.09
30.09
30.09
30.09
30.0899
30.0899
30.0899
30.0899
30.0898
30.0898
30.0898
30.0898
30.0898
30.0897
30.0897
30.0897
30.0897
30.0897
30.0897
29.5243
29.5243
29.5243
29.5242
29.5242
29.5242
29.5242
29.5242
29.5242
29.5242
29.5242
29.5242
29.5242
29.5241
29.5241
29.5241
29.5241
29.5241
29.5241
29.5241
29.6618
29.6618
29.6618
29.6618
29.6618
29.6618
29.6617
29.6617
29.6617
29.6617
29.6617
29.6616
29.6616
29.6616
29.6616
29.6615
29.6615
29.6615
29.6615
29.6615
29.3909
29.3909
29.3908
29.3908
29.3908
29.3908
29.3908
29.3908
29.3908
29.3907
29.3907
29.3907
29.3907
29.3907
29.3906
29.3906
29.3906
29.3906
29.3906
29.3906
29.4607
29.4607
29.4607
29.4607
29.4607
29.4607
29.4606
29.4606
29.4606
29.4606
29.4606
29.4605
29.4605
29.4605
29.4605
29.4605
29.4604
29.4604
29.4604
29.4604
29.4379
29.4379
29.4379
29.4379
29.4379
29.4379
29.4379
29.4378
29.4378
29.4378
29.4378
29.4377
29.4377
29.4377
29.4377
29.4377
29.4376
29.4376
29.4376
29.4376
29.4448
29.4448
29.4448
29.4448
29.4447
29.4447
29.4447
29.4447
29.4447
29.4447
29.4447
29.4447
29.4447
29.4447
29.4447
29.4447
29.4446
29.4446
29.4446
29.4446
29.6747
29.6747
29.6747
29.6747
29.6746
29.6746
29.6746
29.6746
29.6746
29.6745
29.6745
29.6745
29.6745
29.6744
29.6744
29.6744
29.6744
29.6743
29.6743
29.6743
29.6212
29.6212
29.6212
29.6212
29.6212
29.6212
29.6212
29.6212
29.6212
29.6212
29.6212
29.6212
29.6212
29.6212
29.6212
29.6212
29.6212
29.6212
29.6212
29.6212
30.1332
30.1332
30.1332
30.1332
30.1332
30.1332
30.1332
30.1331
30.1331
30.1331
30.1331
30.1331
30.133
30.133
30.133
30.133
30.133
30.1329
30.1329
30.1329
30.0055
30.0055
30.0055
30.0055
30.0055
30.0055
30.0055
30.0055
30.0056
30.0056
30.0056
30.0056
30.0056
30.0056
30.0056
30.0057
30.0057
30.0057
30.0057
30.0057
30.8729
30.8729
30.8729
30.8729
30.8729
30.8728
30.8728
30.8728
30.8728
30.8728
30.8728
30.8728
30.8728
30.8727
30.8727
30.8727
30.8727
30.8727
30.8727
30.8727
30.6371
30.6371
30.6371
30.6371
30.6371
30.6372
30.6372
30.6372
30.6373
30.6373
30.6373
30.6374
30.6374
30.6374
30.6375
30.6375
30.6375
30.6375
30.6375
30.6375
31.9835
31.9835
31.9835
31.9835
31.9835
31.9835
31.9835
31.9835
31.9835
31.9835
31.9835
31.9835
31.9836
31.9836
31.9836
31.9836
31.9836
31.9836
31.9836
31.9836
31.5791
31.5791
31.5791
31.5791
31.5791
31.5792
31.5792
31.5793
31.5793
31.5793
31.5794
31.5794
31.5795
31.5795
31.5796
31.5796
31.5796
31.5796
31.5796
31.5796
33.5459
33.5459
33.5459
33.5459
33.546
33.546
33.546
33.5461
33.5461
33.5462
33.5462
33.5463
33.5463
33.5463
33.5464
33.5464
33.5465
33.5465
33.5465
33.5465
38.2024
38.2024
38.2024
38.2024
38.2024
38.2025
38.2025
38.2025
38.2025
38.2025
38.2025
38.2025
38.2025
38.2026
38.2026
38.2026
38.2026
38.2026
38.2026
38.2026
36.8406
36.8406
36.8406
36.8406
36.8406
36.8406
36.8406
36.8407
36.8407
36.8407
36.8407
36.8407
36.8407
36.8407
36.8407
36.8408
36.8408
36.8408
36.8408
36.8408
37.1795
37.1795
37.1795
37.1795
37.1795
37.1795
37.1795
37.1795
37.1795
37.1795
37.1794
37.1794
37.1794
37.1794
37.1794
37.1794
37.1794
37.1794
37.1794
37.1794
36.2276
36.2276
36.2276
36.2276
36.2276
36.2276
36.2276
36.2276
36.2276
36.2276
36.2276
36.2276
36.2276
36.2276
36.2276
36.2276
36.2276
36.2276
36.2276
36.2276
36.4624
36.4624
36.4624
36.4624
36.4624
36.4624
36.4624
36.4623
36.4623
36.4623
36.4623
36.4623
36.4622
36.4622
36.4622
36.4622
36.4622
36.4622
36.4621
36.4621
35.8644
35.8644
35.8644
35.8644
35.8643
35.8643
35.8643
35.8643
35.8643
35.8643
35.8643
35.8643
35.8643
35.8642
35.8642
35.8642
35.8642
35.8642
35.8642
35.8642
36.0102
36.0102
36.0102
36.0101
36.0101
36.0101
36.0101
36.0101
36.0101
36.01
36.01
36.01
36.01
36.0099
36.0099
36.0099
36.0099
36.0099
36.0098
36.0098
35.7246
35.7246
35.7246
35.7246
35.7246
35.7246
35.7246
35.7245
35.7245
35.7245
35.7245
35.7245
35.7244
35.7244
35.7244
35.7244
35.7244
35.7243
35.7243
35.7243
35.7987
35.7987
35.7987
35.7987
35.7987
35.7987
35.7986
35.7986
35.7986
35.7986
35.7986
35.7985
35.7985
35.7985
35.7985
35.7985
35.7985
35.7984
35.7984
35.7984
35.7817
35.7817
35.7817
35.7817
35.7817
35.7817
35.7817
35.7816
35.7816
35.7816
35.7816
35.7815
35.7815
35.7815
35.7815
35.7814
35.7814
35.7814
35.7814
35.7814
35.79
35.79
35.79
35.79
35.79
35.79
35.79
35.79
35.7899
35.7899
35.7899
35.7899
35.7899
35.7899
35.7899
35.7899
35.7899
35.7899
35.7899
35.7899
36.049
36.049
36.049
36.049
36.0489
36.0489
36.0489
36.0489
36.0489
36.0488
36.0488
36.0488
36.0487
36.0487
36.0487
36.0487
36.0487
36.0486
36.0486
36.0486
35.9923
35.9923
35.9923
35.9923
35.9923
35.9923
35.9923
35.9923
35.9923
35.9923
35.9923
35.9923
35.9923
35.9923
35.9923
35.9923
35.9923
35.9923
35.9923
35.9923
36.5551
36.5551
36.5551
36.5551
36.555
36.555
36.555
36.555
36.555
36.5549
36.5549
36.5549
36.5549
36.5548
36.5548
36.5548
36.5548
36.5548
36.5548
36.5548
36.4172
36.4172
36.4172
36.4172
36.4172
36.4172
36.4172
36.4172
36.4173
36.4173
36.4173
36.4173
36.4173
36.4173
36.4173
36.4174
36.4174
36.4174
36.4174
36.4174
37.3434
37.3434
37.3434
37.3434
37.3434
37.3434
37.3434
37.3433
37.3433
37.3433
37.3433
37.3433
37.3433
37.3433
37.3432
37.3432
37.3432
37.3432
37.3432
37.3432
37.0918
37.0918
37.0918
37.0918
37.0919
37.0919
37.0919
37.0919
37.092
37.092
37.092
37.092
37.0921
37.0921
37.0921
37.0921
37.0922
37.0922
37.0922
37.0922
38.4688
38.4688
38.4688
38.4688
38.4688
38.4688
38.4688
38.4688
38.4688
38.4688
38.4688
38.4688
38.4689
38.4689
38.4689
38.4689
38.4689
38.4689
38.4689
38.4689
38.052
38.0521
38.0521
38.0521
38.0521
38.0522
38.0522
38.0522
38.0523
38.0523
38.0523
38.0524
38.0524
38.0525
38.0525
38.0525
38.0525
38.0526
38.0526
38.0526
39.9853
39.9853
39.9853
39.9853
39.9853
39.9854
39.9854
39.9854
39.9855
39.9855
39.9856
39.9856
39.9856
39.9857
39.9857
39.9857
39.9857
39.9858
39.9858
39.9857
44.5266
44.5266
44.5266
44.5266
44.5266
44.5267
44.5267
44.5267
44.5267
44.5267
44.5267
44.5267
44.5267
44.5268
44.5268
44.5268
44.5268
44.5268
44.5268
44.5268
43.1402
43.1402
43.1402
43.1402
43.1402
43.1402
43.1402
43.1402
43.1402
43.1402
43.1402
43.1403
43.1403
43.1403
43.1403
43.1403
43.1403
43.1403
43.1403
43.1403
43.4882
43.4882
43.4882
43.4882
43.4882
43.4882
43.4882
43.4882
43.4882
43.4882
43.4882
43.4882
43.4881
43.4881
43.4881
43.4881
43.4881
43.4881
43.4881
43.4881
42.5006
42.5006
42.5006
42.5006
42.5006
42.5006
42.5006
42.5006
42.5006
42.5006
42.5006
42.5006
42.5006
42.5006
42.5006
42.5006
42.5006
42.5006
42.5006
42.5006
42.7423
42.7423
42.7423
42.7423
42.7423
42.7423
42.7423
42.7423
42.7422
42.7422
42.7422
42.7422
42.7421
42.7421
42.7421
42.7421
42.7421
42.7421
42.7421
42.742
42.1196
42.1196
42.1196
42.1196
42.1196
42.1196
42.1196
42.1196
42.1196
42.1196
42.1196
42.1196
42.1195
42.1195
42.1195
42.1195
42.1195
42.1195
42.1195
42.1195
42.269
42.2689
42.2689
42.2689
42.2689
42.2689
42.2689
42.2689
42.2688
42.2688
42.2688
42.2688
42.2688
42.2687
42.2687
42.2687
42.2687
42.2687
42.2687
42.2686
41.9753
41.9753
41.9753
41.9753
41.9753
41.9753
41.9753
41.9753
41.9752
41.9752
41.9752
41.9752
41.9752
41.9751
41.9751
41.9751
41.9751
41.9751
41.9751
41.9751
42.0513
42.0513
42.0513
42.0513
42.0513
42.0513
42.0512
42.0512
42.0512
42.0512
42.0512
42.0511
42.0511
42.0511
42.0511
42.0511
42.0511
42.0511
42.0511
42.0511
42.0414
42.0414
42.0414
42.0414
42.0414
42.0414
42.0413
42.0413
42.0413
42.0413
42.0412
42.0412
42.0412
42.0412
42.0412
42.0411
42.0411
42.0411
42.0411
42.0411
42.0501
42.0501
42.0501
42.0501
42.0501
42.0501
42.0501
42.05
42.05
42.05
42.05
42.05
42.05
42.05
42.05
42.05
42.05
42.05
42.05
42.05
42.3339
42.3338
42.3338
42.3338
42.3338
42.3338
42.3338
42.3338
42.3337
42.3337
42.3337
42.3337
42.3336
42.3336
42.3336
42.3336
42.3335
42.3335
42.3335
42.3335
42.2737
42.2737
42.2737
42.2737
42.2737
42.2737
42.2737
42.2737
42.2737
42.2737
42.2737
42.2737
42.2737
42.2737
42.2737
42.2737
42.2737
42.2737
42.2738
42.2738
42.8789
42.8789
42.8789
42.8789
42.8789
42.8789
42.8789
42.8788
42.8788
42.8788
42.8788
42.8787
42.8787
42.8787
42.8787
42.8787
42.8786
42.8786
42.8786
42.8786
42.732
42.732
42.732
42.732
42.732
42.7321
42.7321
42.7321
42.7321
42.7321
42.7321
42.7321
42.7321
42.7322
42.7322
42.7322
42.7322
42.7322
42.7322
42.7322
43.7146
43.7146
43.7146
43.7146
43.7146
43.7145
43.7145
43.7145
43.7145
43.7145
43.7145
43.7145
43.7145
43.7144
43.7144
43.7144
43.7144
43.7144
43.7144
43.7144
43.4484
43.4484
43.4484
43.4484
43.4484
43.4484
43.4484
43.4485
43.4485
43.4485
43.4486
43.4486
43.4486
43.4486
43.4487
43.4487
43.4487
43.4487
43.4487
43.4488
44.8845
44.8845
44.8845
44.8845
44.8845
44.8845
44.8845
44.8845
44.8845
44.8845
44.8845
44.8845
44.8845
44.8845
44.8845
44.8845
44.8845
44.8845
44.8845
44.8845
44.4525
44.4525
44.4525
44.4526
44.4526
44.4526
44.4526
44.4527
44.4527
44.4528
44.4528
44.4528
44.4529
44.4529
44.4529
44.453
44.453
44.453
44.453
44.453
46.4138
46.4139
46.4139
46.4139
46.4139
46.414
46.414
46.414
46.4141
46.4141
46.4141
46.4142
46.4142
46.4142
46.4143
46.4143
46.4143
46.4143
46.4143
46.4143
50.6986
50.6986
50.6986
50.6986
50.6986
50.6986
50.6987
50.6987
50.6987
50.6987
50.6987
50.6987
50.6987
50.6987
50.6987
50.6987
50.6987
50.6987
50.6987
50.6987
49.3121
49.3121
49.3121
49.3121
49.3121
49.3121
49.3121
49.3121
49.3121
49.3121
49.3121
49.3121
49.3122
49.3122
49.3122
49.3122
49.3122
49.3122
49.3122
49.3122
49.6641
49.6641
49.6641
49.6641
49.6641
49.6641
49.6641
49.6641
49.6641
49.6641
49.6641
49.6641
49.6641
49.6641
49.664
49.664
49.664
49.664
49.664
49.664
48.6673
48.6673
48.6673
48.6673
48.6673
48.6673
48.6673
48.6673
48.6673
48.6673
48.6673
48.6673
48.6673
48.6673
48.6673
48.6673
48.6673
48.6673
48.6673
48.6673
48.912
48.912
48.912
48.912
48.912
48.912
48.912
48.912
48.912
48.9119
48.9119
48.9119
48.9119
48.9119
48.9119
48.9118
48.9118
48.9118
48.9118
48.9118
48.2797
48.2797
48.2797
48.2797
48.2796
48.2796
48.2796
48.2796
48.2796
48.2796
48.2796
48.2796
48.2796
48.2796
48.2795
48.2795
48.2795
48.2795
48.2795
48.2795
48.4303
48.4303
48.4303
48.4303
48.4303
48.4302
48.4302
48.4302
48.4302
48.4302
48.4301
48.4301
48.4301
48.4301
48.4301
48.4301
48.43
48.43
48.43
48.43
48.1353
48.1353
48.1353
48.1353
48.1353
48.1353
48.1353
48.1352
48.1352
48.1352
48.1352
48.1352
48.1351
48.1351
48.1351
48.1351
48.1351
48.1351
48.1351
48.1351
48.2115
48.2115
48.2115
48.2115
48.2115
48.2115
48.2115
48.2115
48.2114
48.2114
48.2114
48.2114
48.2114
48.2114
48.2113
48.2113
48.2113
48.2113
48.2113
48.2113
48.2098
48.2098
48.2098
48.2098
48.2098
48.2097
48.2097
48.2097
48.2097
48.2097
48.2096
48.2096
48.2096
48.2096
48.2095
48.2095
48.2095
48.2095
48.2095
48.2095
48.2175
48.2175
48.2175
48.2175
48.2175
48.2175
48.2175
48.2175
48.2175
48.2174
48.2174
48.2174
48.2174
48.2174
48.2174
48.2174
48.2174
48.2174
48.2174
48.2174
48.522
48.522
48.522
48.522
48.5219
48.5219
48.5219
48.5219
48.5219
48.5218
48.5218
48.5218
48.5218
48.5217
48.5217
48.5217
48.5217
48.5217
48.5217
48.5217
48.4572
48.4572
48.4572
48.4572
48.4572
48.4572
48.4572
48.4572
48.4572
48.4572
48.4572
48.4572
48.4572
48.4572
48.4572
48.4572
48.4572
48.4572
48.4572
48.4573
49.094
49.094
49.0939
49.0939
49.0939
49.0939
49.0939
49.0939
49.0939
49.0938
49.0938
49.0938
49.0938
49.0938
49.0937
49.0937
49.0937
49.0937
49.0937
49.0937
48.9379
48.9379
48.9379
48.9379
48.9379
48.9379
48.9379
48.938
48.938
48.938
48.938
48.938
48.938
48.938
48.938
48.9381
48.9381
48.9381
48.9381
48.9381
49.954
49.954
49.954
49.954
49.954
49.954
49.954
49.9539
49.9539
49.9539
49.9539
49.9539
49.9539
49.9539
49.9538
49.9538
49.9538
49.9538
49.9538
49.9538
49.6759
49.6759
49.6759
49.6759
49.6759
49.6759
49.6759
49.6759
49.676
49.676
49.676
49.676
49.6761
49.6761
49.6761
49.6761
49.6762
49.6762
49.6762
49.6762
51.1302
51.1302
51.1302
51.1302
51.1302
51.1302
51.1302
51.1302
51.1302
51.1302
51.1302
51.1302
51.1302
51.1302
51.1302
51.1302
51.1302
51.1302
51.1302
51.1302
50.6894
50.6894
50.6894
50.6894
50.6894
50.6895
50.6895
50.6895
50.6896
50.6896
50.6896
50.6897
50.6897
50.6897
50.6897
50.6898
50.6898
50.6898
50.6898
50.6898
52.6376
52.6376
52.6376
52.6376
52.6377
52.6377
52.6377
52.6377
52.6378
52.6378
52.6378
52.6379
52.6379
52.6379
52.6379
52.6379
52.6379
52.6379
52.6379
52.6379
56.7858
56.7858
56.7858
56.7858
56.7858
56.7858
56.7858
56.7859
56.7859
56.7859
56.7859
56.7859
56.7859
56.7859
56.7859
56.7859
56.7859
56.7859
56.7859
56.7859
55.3946
55.3946
55.3946
55.3946
55.3946
55.3946
55.3946
55.3946
55.3946
55.3946
55.3946
55.3946
55.3947
55.3947
55.3947
55.3947
55.3947
55.3947
55.3947
55.3947
55.7479
55.7479
55.7479
55.7479
55.7479
55.7479
55.7479
55.7479
55.7479
55.7479
55.7479
55.7479
55.7479
55.7479
55.7479
55.7479
55.7478
55.7478
55.7478
55.7478
54.7419
54.7419
54.7419
54.7419
54.7419
54.7419
54.7419
54.7419
54.7419
54.7419
54.7419
54.7419
54.7419
54.7419
54.7419
54.7419
54.7419
54.7419
54.7419
54.7419
54.9871
54.9871
54.987
54.987
54.987
54.987
54.987
54.987
54.987
54.987
54.987
54.9869
54.9869
54.9869
54.9869
54.9869
54.9869
54.9869
54.9868
54.9868
54.3489
54.3489
54.3489
54.3489
54.3489
54.3489
54.3489
54.3489
54.3489
54.3489
54.3489
54.3489
54.3488
54.3488
54.3488
54.3488
54.3488
54.3488
54.3488
54.3488
54.4991
54.4991
54.4991
54.4991
54.4991
54.4991
54.4991
54.4991
54.4991
54.499
54.499
54.499
54.499
54.499
54.499
54.4989
54.4989
54.4989
54.4989
54.4989
54.2059
54.2059
54.2059
54.2059
54.2059
54.2059
54.2059
54.2058
54.2058
54.2058
54.2058
54.2058
54.2058
54.2057
54.2057
54.2057
54.2057
54.2057
54.2057
54.2057
54.2811
54.2811
54.281
54.281
54.281
54.281
54.281
54.281
54.281
54.281
54.2809
54.2809
54.2809
54.2809
54.2809
54.2809
54.2809
54.2809
54.2809
54.2809
54.2878
54.2878
54.2878
54.2878
54.2878
54.2877
54.2877
54.2877
54.2877
54.2877
54.2876
54.2876
54.2876
54.2876
54.2876
54.2876
54.2875
54.2875
54.2875
54.2875
54.2935
54.2935
54.2935
54.2935
54.2935
54.2935
54.2935
54.2935
54.2935
54.2935
54.2935
54.2935
54.2934
54.2934
54.2934
54.2934
54.2934
54.2934
54.2934
54.2934
54.6158
54.6157
54.6157
54.6157
54.6157
54.6157
54.6157
54.6157
54.6157
54.6156
54.6156
54.6156
54.6156
54.6156
54.6155
54.6155
54.6155
54.6155
54.6155
54.6155
54.5459
54.5459
54.5459
54.5459
54.5459
54.5459
54.5459
54.5459
54.5459
54.5459
54.5459
54.5459
54.5459
54.5459
54.5459
54.5459
54.5459
54.5459
54.5459
54.5459
55.2086
55.2086
55.2086
55.2086
55.2086
55.2086
55.2086
55.2085
55.2085
55.2085
55.2085
55.2085
55.2085
55.2084
55.2084
55.2084
55.2084
55.2084
55.2084
55.2084
55.0438
55.0438
55.0438
55.0438
55.0438
55.0438
55.0438
55.0438
55.0438
55.0438
55.0438
55.0438
55.0438
55.0439
55.0439
55.0439
55.0439
55.0439
55.0439
55.0439
56.0892
56.0892
56.0892
56.0892
56.0892
56.0892
56.0892
56.0892
56.0892
56.0892
56.0891
56.0891
56.0891
56.0891
56.0891
56.0891
56.0891
56.0891
56.0891
56.0891
55.7998
55.7998
55.7998
55.7998
55.7998
55.7998
55.7998
55.7998
55.7999
55.7999
55.7999
55.7999
55.7999
55.8
55.8
55.8
55.8
55.8001
55.8001
55.8001
57.2779
57.2779
57.2779
57.2779
57.2779
57.2779
57.2779
57.2779
57.2779
57.2779
57.2779
57.2779
57.2779
57.2779
57.2779
57.2779
57.2779
57.2779
57.2779
57.2779
56.8277
56.8277
56.8277
56.8277
56.8277
56.8278
56.8278
56.8278
56.8278
56.8279
56.8279
56.8279
56.8279
56.8279
56.828
56.828
56.828
56.828
56.828
56.828
58.7791
58.7791
58.7791
58.7791
58.7791
58.7791
58.7791
58.7792
58.7792
58.7792
58.7792
58.7793
58.7793
58.7793
58.7793
58.7793
58.7793
58.7793
58.7793
58.7793
62.7627
62.7627
62.7627
62.7627
62.7627
62.7627
62.7627
62.7627
62.7627
62.7627
62.7628
62.7628
62.7628
62.7628
62.7628
62.7628
62.7628
62.7628
62.7628
62.7627
61.3722
61.3722
61.3722
61.3722
61.3722
61.3722
61.3722
61.3722
61.3722
61.3722
61.3722
61.3722
61.3722
61.3722
61.3722
61.3722
61.3722
61.3722
61.3722
61.3722
61.7265
61.7265
61.7265
61.7265
61.7265
61.7265
61.7265
61.7265
61.7265
61.7265
61.7265
61.7265
61.7265
61.7265
61.7265
61.7265
61.7264
61.7264
61.7264
61.7264
60.7194
60.7194
60.7194
60.7194
60.7194
60.7194
60.7194
60.7194
60.7194
60.7194
60.7194
60.7194
60.7194
60.7194
60.7194
60.7194
60.7194
60.7194
60.7194
60.7194
60.9642
60.9642
60.9642
60.9642
60.9642