/*--------------------------------*- C++ -*----------------------------------*\
| =========                 |                                                 |
| \\      /  F ield         | OpenFOAM: The Open Source CFD Toolbox           |
|  \\    /   O peration     | Version:  2212                                  |
|   \\  /    A nd           | Website:  www.openfoam.com                      |
|    \\/     M anipulation  |                                                 |
\*---------------------------------------------------------------------------*/
FoamFile
{
    version     2.0;
    format      ascii;
    arch        "LSB;label=32;scalar=64";
    class       volScalarField;
    location    "0.2175";
    object      s;
}
// * * * * * * * * * * * * * * * * * * * * * * * * * * * * * * * * * * * * * //

dimensions      [0 0 0 0 0 0 0];

internalField   nonuniform List<scalar> 
24240
(
1.4538e-93
1.43326e-93
1.45296e-93
1.41395e-93
1.43578e-93
1.44014e-93
1.4399e-93
1.40023e-93
1.41471e-93
1.45014e-93
1.4202e-93
1.45641e-93
1.41834e-93
1.44977e-93
1.40706e-93
1.46164e-93
1.40335e-93
1.42159e-93
1.4305e-93
1.3908e-93
9.11319e-91
8.98427e-91
9.10573e-91
8.86533e-91
8.99818e-91
9.02835e-91
9.0259e-91
8.77808e-91
8.86904e-91
9.0904e-91
8.90426e-91
9.12856e-91
8.89363e-91
9.089e-91
8.82249e-91
9.1626e-91
8.79962e-91
8.91325e-91
8.96653e-91
8.72101e-91
3.05396e-88
3.0107e-88
3.05069e-88
2.97152e-88
3.01469e-88
3.02574e-88
3.02461e-88
2.94185e-88
2.97238e-88
3.04628e-88
2.98443e-88
3.05865e-88
2.98118e-88
3.04609e-88
2.95719e-88
3.07044e-88
2.94967e-88
2.98748e-88
3.00444e-88
2.92336e-88
5.84999e-86
5.76705e-86
5.84226e-86
5.69333e-86
5.77346e-86
5.79643e-86
5.7937e-86
5.63578e-86
5.69438e-86
5.83537e-86
5.71796e-86
5.85829e-86
5.71233e-86
5.83559e-86
5.66609e-86
5.88163e-86
5.65208e-86
5.72393e-86
5.75468e-86
5.60174e-86
8.08334e-84
7.96874e-84
8.07059e-84
7.86865e-84
7.97577e-84
8.00999e-84
8.00545e-84
7.78814e-84
7.86933e-84
8.06311e-84
7.90245e-84
8.09366e-84
7.89544e-84
8.06418e-84
7.83107e-84
8.12683e-84
7.81241e-84
7.91076e-84
7.95073e-84
7.743e-84
7.78192e-82
7.67172e-82
7.76767e-82
7.57707e-82
7.67672e-82
7.71205e-82
7.70703e-82
7.49877e-82
7.57726e-82
7.76256e-82
7.6096e-82
7.79094e-82
7.60355e-82
7.76439e-82
7.54107e-82
7.82364e-82
7.524e-82
7.61754e-82
7.65349e-82
7.45726e-82
5.21218e-80
5.13861e-80
5.20127e-80
5.07631e-80
5.14067e-80
5.1659e-80
5.16218e-80
5.0234e-80
5.07636e-80
5.19921e-80
5.09818e-80
5.21755e-80
5.09448e-80
5.20098e-80
5.05219e-80
5.23977e-80
5.04166e-80
5.10326e-80
5.12551e-80
4.99711e-80
2.32159e-78
2.28908e-78
2.31613e-78
2.26179e-78
2.28935e-78
2.30126e-78
2.29954e-78
2.2381e-78
2.26205e-78
2.31579e-78
2.27171e-78
2.32371e-78
2.27009e-78
2.31684e-78
2.251e-78
2.33359e-78
2.247e-78
2.27368e-78
2.28273e-78
2.22738e-78
2.7367e-77
2.69943e-77
2.72972e-77
2.66771e-77
2.69862e-77
2.71332e-77
2.71166e-77
2.6399e-77
2.66933e-77
2.72985e-77
2.68013e-77
2.73909e-77
2.67778e-77
2.73142e-77
2.65467e-77
2.75009e-77
2.65194e-77
2.68143e-77
2.69089e-77
2.62953e-77
1.74178e-77
1.74263e-77
1.74455e-77
1.71745e-77
1.73111e-77
1.73434e-77
1.74824e-77
1.70855e-77
1.75454e-77
1.73388e-77
1.74252e-77
1.74917e-77
1.7218e-77
1.73493e-77
1.69752e-77
1.7309e-77
1.73474e-77
1.71613e-77
1.7195e-77
1.7366e-77
2.7064e-77
2.72951e-77
2.75202e-77
2.70876e-77
2.69144e-77
2.70425e-77
2.73749e-77
2.68028e-77
2.7646e-77
2.74186e-77
2.75631e-77
2.74531e-77
2.72593e-77
2.69544e-77
2.67508e-77
2.7048e-77
2.68761e-77
2.69037e-77
2.71027e-77
2.72083e-77
3.12784e-77
3.15189e-77
3.16616e-77
3.11069e-77
3.10592e-77
3.04901e-77
3.11803e-77
3.06515e-77
3.14307e-77
3.21463e-77
3.18413e-77
3.10423e-77
3.18154e-77
3.13185e-77
3.1285e-77
3.14882e-77
3.02134e-77
3.13317e-77
3.08039e-77
3.09251e-77
3.58729e-77
3.65055e-77
3.64025e-77
3.61835e-77
3.6401e-77
3.66832e-77
3.76028e-77
3.63703e-77
3.6496e-77
3.60295e-77
3.6173e-77
3.62142e-77
3.65496e-77
3.65911e-77
3.591e-77
3.63822e-77
3.6593e-77
3.60528e-77
3.58663e-77
3.59884e-77
3.93499e-77
3.93059e-77
3.95623e-77
4.03068e-77
3.99669e-77
4.03971e-77
3.97058e-77
4.04227e-77
3.97473e-77
3.85329e-77
3.89547e-77
3.91208e-77
3.93332e-77
3.86656e-77
3.85115e-77
3.89179e-77
3.86057e-77
3.93605e-77
3.89532e-77
3.97585e-77
4.01439e-77
4.00956e-77
4.08324e-77
4.04274e-77
4.00576e-77
4.07153e-77
4.06344e-77
4.12488e-77
4.0146e-77
4.07904e-77
4.05929e-77
4.0666e-77
4.08825e-77
4.07289e-77
4.04057e-77
4.15172e-77
4.03907e-77
3.99302e-77
4.04119e-77
4.04723e-77
4.05605e-77
3.98031e-77
4.00463e-77
3.98374e-77
4.04142e-77
4.07058e-77
4.07303e-77
4.04171e-77
3.95349e-77
3.98125e-77
3.94195e-77
4.06467e-77
4.05328e-77
4.11116e-77
4.0945e-77
4.09058e-77
4.05188e-77
4.05754e-77
4.00891e-77
4.02609e-77
3.71259e-77
3.76194e-77
3.71379e-77
3.84742e-77
3.73612e-77
3.82369e-77
3.75172e-77
3.80076e-77
3.74709e-77
3.76601e-77
3.75769e-77
3.83008e-77
3.7591e-77
3.86736e-77
3.73852e-77
3.80999e-77
3.80022e-77
3.69276e-77
3.81389e-77
3.81063e-77
3.35579e-77
3.48813e-77
3.44373e-77
3.41377e-77
3.37585e-77
3.52586e-77
3.46561e-77
3.47511e-77
3.44791e-77
3.38725e-77
3.44024e-77
3.5057e-77
3.42708e-77
3.56934e-77
3.43445e-77
3.49712e-77
3.52014e-77
3.45454e-77
3.52009e-77
3.52543e-77
3.07037e-77
3.06699e-77
3.0566e-77
3.10395e-77
3.1267e-77
3.12094e-77
3.05865e-77
3.08884e-77
3.15466e-77
3.05758e-77
3.12626e-77
3.13786e-77
3.05014e-77
3.1631e-77
3.14619e-77
3.20944e-77
3.10993e-77
3.16505e-77
3.12436e-77
3.20443e-77
2.18743e-77
2.20372e-77
2.19367e-77
2.17562e-77
2.21187e-77
2.19798e-77
2.21781e-77
2.20042e-77
2.21222e-77
2.23844e-77
2.19186e-77
2.24887e-77
2.18864e-77
2.26819e-77
2.19376e-77
2.19505e-77
2.21239e-77
2.25264e-77
2.21541e-77
2.27422e-77
5.44202e-92
5.36495e-92
5.43781e-92
5.29393e-92
5.3734e-92
5.39139e-92
5.38986e-92
5.2418e-92
5.29592e-92
5.42852e-92
5.31696e-92
5.45126e-92
5.31061e-92
5.42736e-92
5.26813e-92
5.47142e-92
5.25407e-92
5.32221e-92
5.35427e-92
5.20707e-92
3.46556e-89
3.41643e-89
3.46204e-89
3.372e-89
3.42108e-89
3.43361e-89
3.43229e-89
3.33833e-89
3.37285e-89
3.45702e-89
3.38656e-89
3.47104e-89
3.38289e-89
3.45661e-89
3.35568e-89
3.48435e-89
3.34688e-89
3.38999e-89
3.40941e-89
3.31695e-89
1.16054e-86
1.14407e-86
1.15907e-86
1.12946e-86
1.14538e-86
1.14994e-86
1.14938e-86
1.11804e-86
1.12961e-86
1.1577e-86
1.13431e-86
1.16225e-86
1.13321e-86
1.15769e-86
1.12404e-86
1.16686e-86
1.12116e-86
1.1355e-86
1.14166e-86
1.11114e-86
2.25607e-84
2.22405e-84
2.25268e-84
2.19615e-84
2.22611e-84
2.23568e-84
2.23437e-84
2.17369e-84
2.19624e-84
2.25062e-84
2.20555e-84
2.25915e-84
2.20365e-84
2.25081e-84
2.18571e-84
2.26841e-84
2.18026e-84
2.20791e-84
2.21921e-84
2.16081e-84
3.10533e-82
3.06128e-82
3.09988e-82
3.02357e-82
3.0634e-82
3.07755e-82
3.07545e-82
2.99229e-82
3.0234e-82
3.09787e-82
3.03643e-82
3.10918e-82
3.03413e-82
3.09843e-82
3.00926e-82
3.12228e-82
3.00204e-82
3.03974e-82
3.0543e-82
2.97531e-82
2.9688e-80
2.92676e-80
2.96286e-80
2.89136e-80
2.92811e-80
2.94255e-80
2.9403e-80
2.86116e-80
2.89103e-80
2.96175e-80
2.90365e-80
2.97216e-80
2.90173e-80
2.96258e-80
2.87775e-80
2.98497e-80
2.87119e-80
2.90681e-80
2.91976e-80
2.84567e-80
1.95793e-78
1.93031e-78
1.95352e-78
1.90738e-78
1.93071e-78
1.94083e-78
1.93921e-78
1.88729e-78
1.90713e-78
1.9533e-78
1.91551e-78
1.95991e-78
1.91438e-78
1.95404e-78
1.8984e-78
1.96847e-78
1.89442e-78
1.91751e-78
1.92536e-78
1.87763e-78
8.62089e-77
8.50033e-77
8.59935e-77
8.40109e-77
8.49972e-77
8.54676e-77
8.53937e-77
8.31223e-77
8.40088e-77
8.60059e-77
8.43753e-77
8.62871e-77
8.43268e-77
8.60476e-77
8.36134e-77
8.6663e-77
8.34637e-77
8.44527e-77
8.4766e-77
8.27327e-77
1.00174e-75
9.8812e-76
9.99059e-76
9.76752e-76
9.87641e-76
9.93352e-76
9.92617e-76
9.6647e-76
9.77204e-76
9.99388e-76
9.8125e-76
1.00262e-75
9.80525e-76
9.99986e-76
9.72022e-76
1.00674e-75
9.70993e-76
9.81775e-76
9.84984e-76
9.62752e-76
6.27861e-76
6.28157e-76
6.28977e-76
6.19256e-76
6.24005e-76
6.25327e-76
6.30204e-76
6.15943e-76
6.32561e-76
6.25104e-76
6.2826e-76
6.30533e-76
6.2082e-76
6.25458e-76
6.12122e-76
6.23868e-76
6.25378e-76
6.18712e-76
6.19925e-76
6.26062e-76
9.79241e-76
9.87437e-76
9.95691e-76
9.79959e-76
9.73721e-76
9.78237e-76
9.90086e-76
9.69585e-76
1.00004e-75
9.91884e-76
9.97177e-76
9.9297e-76
9.86236e-76
9.75218e-76
9.67908e-76
9.7845e-76
9.72141e-76
9.73333e-76
9.80454e-76
9.84149e-76
1.125e-75
1.13356e-75
1.13872e-75
1.11865e-75
1.11719e-75
1.09688e-75
1.12165e-75
1.10282e-75
1.13037e-75
1.15596e-75
1.1449e-75
1.11653e-75
1.14411e-75
1.12639e-75
1.12512e-75
1.13242e-75
1.0868e-75
1.12663e-75
1.10784e-75
1.11212e-75
1.29194e-75
1.31425e-75
1.3108e-75
1.30317e-75
1.31091e-75
1.3211e-75
1.35368e-75
1.31002e-75
1.3143e-75
1.29735e-75
1.30249e-75
1.30406e-75
1.31621e-75
1.318e-75
1.2935e-75
1.31025e-75
1.31777e-75
1.29857e-75
1.29179e-75
1.29621e-75
1.40512e-75
1.40322e-75
1.41222e-75
1.43888e-75
1.42686e-75
1.4421e-75
1.4174e-75
1.44322e-75
1.41857e-75
1.37608e-75
1.39074e-75
1.39694e-75
1.40425e-75
1.38066e-75
1.37508e-75
1.38972e-75
1.37823e-75
1.40524e-75
1.39073e-75
1.41942e-75
1.43664e-75
1.43471e-75
1.46104e-75
1.44641e-75
1.43338e-75
1.45714e-75
1.45388e-75
1.47604e-75
1.43673e-75
1.45988e-75
1.45273e-75
1.45539e-75
1.46278e-75
1.45784e-75
1.44621e-75
1.48557e-75
1.44545e-75
1.42893e-75
1.44615e-75
1.44787e-75
1.43641e-75
1.40972e-75
1.41776e-75
1.41075e-75
1.43121e-75
1.44154e-75
1.44219e-75
1.43112e-75
1.40012e-75
1.40976e-75
1.39571e-75
1.43909e-75
1.43538e-75
1.45571e-75
1.44994e-75
1.44824e-75
1.43481e-75
1.43699e-75
1.41974e-75
1.42577e-75
1.31974e-75
1.33754e-75
1.32023e-75
1.36756e-75
1.32776e-75
1.35889e-75
1.33328e-75
1.35106e-75
1.33201e-75
1.33888e-75
1.33585e-75
1.36152e-75
1.33614e-75
1.37456e-75
1.32896e-75
1.3541e-75
1.35081e-75
1.31283e-75
1.35574e-75
1.35463e-75
1.18257e-75
1.22881e-75
1.21342e-75
1.20258e-75
1.1895e-75
1.24199e-75
1.22072e-75
1.22422e-75
1.21465e-75
1.19341e-75
1.21178e-75
1.2348e-75
1.20735e-75
1.257e-75
1.20981e-75
1.23182e-75
1.2397e-75
1.21708e-75
1.23989e-75
1.24188e-75
1.08984e-75
1.08862e-75
1.08513e-75
1.10183e-75
1.10964e-75
1.10763e-75
1.08546e-75
1.09676e-75
1.11967e-75
1.08545e-75
1.10961e-75
1.11386e-75
1.08247e-75
1.12267e-75
1.11667e-75
1.13914e-75
1.10391e-75
1.12321e-75
1.10876e-75
1.13705e-75
7.74254e-76
7.80057e-76
7.76573e-76
7.70094e-76
7.82703e-76
7.7796e-76
7.84767e-76
7.78869e-76
7.82621e-76
7.92115e-76
7.75529e-76
7.95694e-76
7.74524e-76
8.0258e-76
7.76287e-76
7.76763e-76
7.82778e-76
7.97046e-76
7.83945e-76
8.04608e-76
2.15938e-90
2.12873e-90
2.15727e-90
2.10106e-90
2.13169e-90
2.13951e-90
2.13867e-90
2.08011e-90
2.10155e-90
2.15417e-90
2.11013e-90
2.1629e-90
2.10787e-90
2.15384e-90
2.09093e-90
2.17118e-90
2.0853e-90
2.11227e-90
2.12445e-90
2.06664e-90
1.36044e-87
1.34112e-87
1.35879e-87
1.32401e-87
1.3427e-87
1.34805e-87
1.34738e-87
1.31063e-87
1.32415e-87
1.3572e-87
1.32967e-87
1.36251e-87
1.3284e-87
1.35711e-87
1.31766e-87
1.36791e-87
1.31418e-87
1.33106e-87
1.33834e-87
1.30241e-87
4.47229e-85
4.40876e-85
4.4658e-85
4.35352e-85
4.41297e-85
4.432e-85
4.42933e-85
4.30899e-85
4.3535e-85
4.46179e-85
4.37206e-85
4.47866e-85
4.36838e-85
4.46196e-85
4.33286e-85
4.497e-85
4.32166e-85
4.37679e-85
4.39938e-85
4.28301e-85
8.60548e-83
8.48326e-83
8.59094e-83
8.37894e-83
8.48949e-83
8.52882e-83
8.52283e-83
8.29226e-83
8.37803e-83
8.58557e-83
8.41443e-83
8.61687e-83
8.40829e-83
8.58672e-83
8.33949e-83
8.65323e-83
8.31855e-83
8.4238e-83
8.46462e-83
8.2442e-83
1.16423e-80
1.14772e-80
1.16199e-80
1.13387e-80
1.14829e-80
1.15398e-80
1.15306e-80
1.12201e-80
1.13364e-80
1.16157e-80
1.13864e-80
1.16565e-80
1.13793e-80
1.16184e-80
1.12855e-80
1.17069e-80
1.12583e-80
1.13993e-80
1.14508e-80
1.11578e-80
1.1007e-78
1.08512e-78
1.09832e-78
1.07227e-78
1.08541e-78
1.09113e-78
1.09016e-78
1.06095e-78
1.07199e-78
1.09823e-78
1.07678e-78
1.10193e-78
1.07621e-78
1.09858e-78
1.06727e-78
1.1068e-78
1.06482e-78
1.078e-78
1.08251e-78
1.05533e-78
7.14268e-77
7.04204e-77
7.12548e-77
6.96016e-77
7.04214e-77
7.08146e-77
7.07465e-77
6.88612e-77
6.95824e-77
7.12683e-77
6.98951e-77
7.14986e-77
6.98635e-77
7.12979e-77
6.92769e-77
7.18188e-77
6.91307e-77
6.99714e-77
7.02386e-77
6.8516e-77
3.10232e-75
3.05902e-75
3.09413e-75
3.02407e-75
3.05819e-75
3.07618e-75
3.07313e-75
2.99177e-75
3.02356e-75
3.0955e-75
3.03704e-75
3.10514e-75
3.03573e-75
3.09709e-75
3.00989e-75
3.11899e-75
3.00446e-75
3.03999e-75
3.05043e-75
2.97804e-75
3.55099e-74
3.50283e-74
3.54106e-74
3.46343e-74
3.50046e-74
3.52192e-74
3.51884e-74
3.42661e-74
3.46451e-74
3.54327e-74
3.47918e-74
3.55416e-74
3.47712e-74
3.54547e-74
3.4468e-74
3.56911e-74
3.44306e-74
3.48124e-74
3.49168e-74
3.41368e-74
2.18915e-74
2.19014e-74
2.19347e-74
2.15973e-74
2.17566e-74
2.18082e-74
2.19735e-74
2.14781e-74
2.20588e-74
2.17987e-74
2.191e-74
2.19849e-74
2.16517e-74
2.181e-74
2.13504e-74
2.17497e-74
2.18068e-74
2.15759e-74
2.16183e-74
2.1831e-74
3.42799e-74
3.4561e-74
3.48537e-74
3.43001e-74
3.40829e-74
3.42369e-74
3.46452e-74
3.39347e-74
3.49987e-74
3.47158e-74
3.49033e-74
3.47482e-74
3.45221e-74
3.41371e-74
3.3883e-74
3.42445e-74
3.40208e-74
3.4069e-74
3.43156e-74
3.44404e-74
3.91753e-74
3.94703e-74
3.96513e-74
3.89481e-74
3.89058e-74
3.82043e-74
3.90644e-74
3.84162e-74
3.93587e-74
4.02448e-74
3.9856e-74
3.88812e-74
3.98333e-74
3.92219e-74
3.91751e-74
3.94292e-74
3.78491e-74
3.92219e-74
3.85748e-74
3.87211e-74
4.50571e-74
4.58178e-74
4.57071e-74
4.54495e-74
4.57158e-74
4.60724e-74
4.71895e-74
4.56926e-74
4.58335e-74
4.52383e-74
4.54155e-74
4.54729e-74
4.58996e-74
4.59724e-74
4.51194e-74
4.56943e-74
4.59534e-74
4.52937e-74
4.50547e-74
4.52096e-74
4.86725e-74
4.85953e-74
4.89011e-74
4.98268e-74
4.94154e-74
4.99385e-74
4.90824e-74
4.99842e-74
4.91119e-74
4.76708e-74
4.81645e-74
4.8389e-74
4.86318e-74
4.78236e-74
4.76276e-74
4.81386e-74
4.77296e-74
4.8667e-74
4.81655e-74
4.91566e-74
4.98859e-74
4.98105e-74
5.07233e-74
5.02114e-74
4.9767e-74
5.06003e-74
5.04736e-74
5.12482e-74
4.98886e-74
5.06945e-74
5.04435e-74
5.05389e-74
5.07816e-74
5.06315e-74
5.02235e-74
5.1575e-74
5.01911e-74
4.9615e-74
5.02119e-74
5.02565e-74
4.948e-74
4.85653e-74
4.88238e-74
4.85966e-74
4.93e-74
4.96551e-74
4.96701e-74
4.92921e-74
4.8232e-74
4.85593e-74
4.80717e-74
4.95582e-74
4.94426e-74
5.01365e-74
4.99426e-74
4.98741e-74
4.942e-74
4.95013e-74
4.89067e-74
4.9112e-74
4.56472e-74
4.62691e-74
4.56644e-74
4.72923e-74
4.59111e-74
4.69872e-74
4.61018e-74
4.6727e-74
4.60686e-74
4.63117e-74
4.62026e-74
4.70911e-74
4.62086e-74
4.75338e-74
4.59661e-74
4.68243e-74
4.6717e-74
4.54125e-74
4.68888e-74
4.68524e-74
4.06247e-74
4.2199e-74
4.16793e-74
4.12989e-74
4.08578e-74
4.26475e-74
4.19157e-74
4.20415e-74
4.17121e-74
4.09886e-74
4.16081e-74
4.23975e-74
4.14638e-74
4.31524e-74
4.1543e-74
4.22962e-74
4.25592e-74
4.17988e-74
4.25726e-74
4.26449e-74
3.7699e-74
3.76583e-74
3.75441e-74
3.81162e-74
3.83761e-74
3.83106e-74
3.75422e-74
3.79529e-74
3.87278e-74
3.75535e-74
3.8381e-74
3.85338e-74
3.74393e-74
3.88332e-74
3.86243e-74
3.94016e-74
3.81889e-74
3.88447e-74
3.83469e-74
3.93192e-74
2.65799e-74
2.6779e-74
2.66623e-74
2.64382e-74
2.68635e-74
2.67054e-74
2.69307e-74
2.67381e-74
2.68532e-74
2.7185e-74
2.66136e-74
2.73042e-74
2.65825e-74
2.75419e-74
2.66432e-74
2.66609e-74
2.68604e-74
2.73523e-74
2.69042e-74
2.7609e-74
8.32424e-89
8.20588e-89
8.31447e-89
8.10126e-89
8.21578e-89
8.24862e-89
8.24442e-89
8.01948e-89
8.10196e-89
8.30487e-89
8.13591e-89
8.3374e-89
8.1282e-89
8.30406e-89
8.06256e-89
8.37034e-89
8.04067e-89
8.14444e-89
8.18928e-89
7.96862e-89
5.30259e-86
5.22718e-86
5.29514e-86
5.16177e-86
5.23234e-86
5.25496e-86
5.25172e-86
5.109e-86
5.16158e-86
5.29046e-86
5.18369e-86
5.31045e-86
5.1794e-86
5.29044e-86
5.13733e-86
5.33216e-86
5.12364e-86
5.18932e-86
5.21632e-86
5.07771e-86
1.72287e-83
1.69838e-83
1.72005e-83
1.67752e-83
1.69968e-83
1.70758e-83
1.70635e-83
1.66017e-83
1.67727e-83
1.71901e-83
1.6846e-83
1.72526e-83
1.6834e-83
1.71916e-83
1.66964e-83
1.73254e-83
1.66529e-83
1.68649e-83
1.69474e-83
1.65037e-83
3.27374e-81
3.22724e-81
3.26763e-81
3.18836e-81
3.22899e-81
3.24504e-81
3.24237e-81
3.15501e-81
3.18755e-81
3.26655e-81
3.20173e-81
3.27798e-81
3.19982e-81
3.26714e-81
3.1735e-81
3.29221e-81
3.16547e-81
3.20544e-81
3.2201e-81
3.13711e-81
4.35384e-79
4.29212e-79
4.34472e-79
4.24138e-79
4.29343e-79
4.31616e-79
4.31218e-79
4.19656e-79
4.23991e-79
4.34446e-79
4.25905e-79
4.35904e-79
4.25698e-79
4.34563e-79
4.22169e-79
4.37842e-79
4.21143e-79
4.26408e-79
4.28218e-79
4.17373e-79
4.06321e-77
4.00578e-77
4.05377e-77
3.95933e-77
4.00606e-77
4.02855e-77
4.02447e-77
3.91713e-77
3.95772e-77
4.05468e-77
3.97581e-77
4.06772e-77
3.97428e-77
4.05614e-77
3.94105e-77
4.08617e-77
3.93196e-77
3.98052e-77
3.99605e-77
3.89677e-77
2.59431e-75
2.55783e-75
2.58769e-75
2.52873e-75
2.55735e-75
2.57252e-75
2.56972e-75
2.50157e-75
2.52766e-75
2.58896e-75
2.53927e-75
2.59693e-75
2.53849e-75
2.59012e-75
2.51704e-75
2.60884e-75
2.5117e-75
2.54218e-75
2.55118e-75
2.48927e-75
1.11036e-73
1.0949e-73
1.10728e-73
1.08267e-73
1.09438e-73
1.1012e-73
1.09997e-73
1.071e-73
1.08232e-73
1.1081e-73
1.08725e-73
1.11138e-73
1.08694e-73
1.10871e-73
1.07764e-73
1.11645e-73
1.07568e-73
1.08837e-73
1.0918e-73
1.06617e-73
1.25192e-72
1.23499e-72
1.24828e-72
1.22141e-72
1.23391e-72
1.24191e-72
1.24066e-72
1.20831e-72
1.22161e-72
1.24942e-72
1.2269e-72
1.25307e-72
1.22636e-72
1.25022e-72
1.2156e-72
1.25845e-72
1.21425e-72
1.2277e-72
1.23104e-72
1.20383e-72
7.58653e-73
7.58985e-73
7.60304e-73
7.4866e-73
7.53962e-73
7.55944e-73
7.61501e-73
7.44405e-73
7.64567e-73
7.55554e-73
7.59455e-73
7.61899e-73
7.50541e-73
7.55909e-73
7.40166e-73
7.53652e-73
7.55779e-73
7.47839e-73
7.49309e-73
7.56633e-73
1.19314e-72
1.20272e-72
1.21304e-72
1.19367e-72
1.18615e-72
1.19137e-72
1.20535e-72
1.18088e-72
1.21783e-72
1.20809e-72
1.21467e-72
1.20901e-72
1.20147e-72
1.1881e-72
1.17932e-72
1.19164e-72
1.18375e-72
1.18566e-72
1.19414e-72
1.19833e-72
1.35698e-72
1.36708e-72
1.37339e-72
1.34889e-72
1.34773e-72
1.32364e-72
1.35334e-72
1.33115e-72
1.36319e-72
1.39371e-72
1.38012e-72
1.34681e-72
1.3795e-72
1.35853e-72
1.35682e-72
1.36561e-72
1.31117e-72
1.35823e-72
1.33608e-72
1.34104e-72
1.56357e-72
1.58936e-72
1.58585e-72
1.57722e-72
1.58633e-72
1.59875e-72
1.63683e-72
1.5858e-72
1.59039e-72
1.5696e-72
1.57568e-72
1.57777e-72
1.59267e-72
1.59555e-72
1.566e-72
1.58563e-72
1.59452e-72
1.57196e-72
1.56357e-72
1.56898e-72
1.67969e-72
1.67663e-72
1.68698e-72
1.719e-72
1.70496e-72
1.72287e-72
1.69331e-72
1.72468e-72
1.69393e-72
1.64528e-72
1.66182e-72
1.6699e-72
1.67792e-72
1.65035e-72
1.6435e-72
1.66127e-72
1.64677e-72
1.67917e-72
1.66191e-72
1.69601e-72
1.72633e-72
1.72342e-72
1.75493e-72
1.73708e-72
1.722e-72
1.75111e-72
1.74626e-72
1.77324e-72
1.72639e-72
1.75435e-72
1.74556e-72
1.74897e-72
1.75689e-72
1.75245e-72
1.73821e-72
1.78442e-72
1.73684e-72
1.71686e-72
1.73744e-72
1.73846e-72
1.70225e-72
1.67094e-72
1.67919e-72
1.67189e-72
1.69603e-72
1.7082e-72
1.70847e-72
1.6956e-72
1.6594e-72
1.67049e-72
1.65359e-72
1.70444e-72
1.70088e-72
1.72454e-72
1.71806e-72
1.71531e-72
1.7e-72
1.70307e-72
1.68255e-72
1.68953e-72
1.57707e-72
1.59882e-72
1.5777e-72
1.63364e-72
1.58574e-72
1.6229e-72
1.59232e-72
1.61426e-72
1.59155e-72
1.60015e-72
1.59623e-72
1.62695e-72
1.5963e-72
1.64195e-72
1.5881e-72
1.61737e-72
1.6139e-72
1.56912e-72
1.61989e-72
1.6187e-72
1.39752e-72
1.45117e-72
1.43361e-72
1.42021e-72
1.40536e-72
1.46645e-72
1.44124e-72
1.44576e-72
1.43443e-72
1.40972e-72
1.43064e-72
1.45776e-72
1.42595e-72
1.48345e-72
1.42851e-72
1.45432e-72
1.46309e-72
1.43752e-72
1.46378e-72
1.46642e-72
1.30566e-72
1.30427e-72
1.30055e-72
1.3202e-72
1.32886e-72
1.32668e-72
1.3e-72
1.31493e-72
1.34118e-72
1.30083e-72
1.32921e-72
1.33469e-72
1.29648e-72
1.34486e-72
1.33762e-72
1.36453e-72
1.3227e-72
1.34504e-72
1.32783e-72
1.36131e-72
9.17517e-73
9.24418e-73
9.20485e-73
9.12661e-73
9.27071e-73
9.21805e-73
9.29315e-73
9.22994e-73
9.26459e-73
9.38152e-73
9.1833e-73
9.42129e-73
9.17398e-73
9.50389e-73
9.19462e-73
9.20106e-73
9.26808e-73
9.43833e-73
9.28446e-73
9.52595e-73
3.3139e-87
3.26671e-87
3.30937e-87
3.22587e-87
3.27004e-87
3.28419e-87
3.28214e-87
3.19292e-87
3.22568e-87
3.30649e-87
3.23954e-87
3.31898e-87
3.23689e-87
3.30635e-87
3.21061e-87
3.3325e-87
3.20183e-87
3.24306e-87
3.26005e-87
3.1731e-87
2.0781e-84
2.04852e-84
2.07479e-84
2.0234e-84
2.05015e-84
2.0597e-84
2.05819e-84
2.00248e-84
2.02303e-84
2.07356e-84
2.0319e-84
2.0811e-84
2.03049e-84
2.07366e-84
2.01391e-84
2.08986e-84
2.0085e-84
2.0342e-84
2.04423e-84
1.99047e-84
6.6306e-82
6.53633e-82
6.61858e-82
6.45769e-82
6.54007e-82
6.57266e-82
6.56714e-82
6.39016e-82
6.45577e-82
6.6165e-82
6.48465e-82
6.63962e-82
6.48092e-82
6.61741e-82
6.42765e-82
6.66841e-82
6.4108e-82
6.49222e-82
6.5222e-82
6.3532e-82
1.24328e-79
1.22563e-79
1.24075e-79
1.21117e-79
1.22605e-79
1.23256e-79
1.2314e-79
1.19837e-79
1.21068e-79
1.24071e-79
1.21619e-79
1.24487e-79
1.21564e-79
1.24099e-79
1.20558e-79
1.25042e-79
1.20251e-79
1.21766e-79
1.2229e-79
1.1917e-79
1.62489e-77
1.60188e-77
1.62123e-77
1.58335e-77
1.60205e-77
1.61109e-77
1.6094e-77
1.56645e-77
1.58257e-77
1.62162e-77
1.58987e-77
1.62682e-77
1.58933e-77
1.62212e-77
1.57607e-77
1.63424e-77
1.57222e-77
1.59183e-77
1.59814e-77
1.55809e-77
1.49549e-75
1.47438e-75
1.49179e-75
1.45766e-75
1.47419e-75
1.48298e-75
1.48129e-75
1.44197e-75
1.45685e-75
1.49258e-75
1.46365e-75
1.49715e-75
1.4633e-75
1.49317e-75
1.45099e-75
1.5041e-75
1.44763e-75
1.46547e-75
1.47078e-75
1.43462e-75
9.3919e-74
9.26015e-74
9.36661e-74
9.15715e-74
9.25655e-74
9.31469e-74
9.30336e-74
9.05788e-74
9.15192e-74
9.3741e-74
9.19484e-74
9.40149e-74
9.19337e-74
9.37859e-74
9.11521e-74
9.4456e-74
9.09576e-74
9.20592e-74
9.23589e-74
9.01411e-74
3.95719e-72
3.90227e-72
3.94572e-72
3.85968e-72
3.89965e-72
3.92531e-72
3.92041e-72
3.81769e-72
3.85788e-72
3.94988e-72
3.87581e-72
3.96094e-72
3.8753e-72
3.95212e-72
3.8419e-72
3.9794e-72
3.83487e-72
3.88003e-72
3.89117e-72
3.80078e-72
4.39401e-71
4.33482e-71
4.38077e-71
4.28828e-71
4.33018e-71
4.35978e-71
4.35479e-71
4.24187e-71
4.28832e-71
4.38613e-71
4.30728e-71
4.39819e-71
4.30605e-71
4.38899e-71
4.26805e-71
4.41749e-71
4.26322e-71
4.31037e-71
4.32092e-71
4.22636e-71
2.61573e-71
2.61684e-71
2.62196e-71
2.58198e-71
2.5995e-71
2.60699e-71
2.62555e-71
2.56687e-71
2.63651e-71
2.60546e-71
2.61904e-71
2.62696e-71
2.58845e-71
2.60654e-71
2.55291e-71
2.59818e-71
2.60603e-71
2.57886e-71
2.58394e-71
2.60902e-71
4.13263e-71
4.16511e-71
4.20127e-71
4.13387e-71
4.10797e-71
4.12557e-71
4.17317e-71
4.08936e-71
4.21703e-71
4.18364e-71
4.20664e-71
4.18615e-71
4.16115e-71
4.11495e-71
4.08474e-71
4.12653e-71
4.09882e-71
4.10621e-71
4.13525e-71
4.14919e-71
4.67979e-71
4.71422e-71
4.73615e-71
4.65119e-71
4.64817e-71
4.56581e-71
4.6679e-71
4.59233e-71
4.70067e-71
4.80537e-71
4.75807e-71
4.64482e-71
4.75652e-71
4.68495e-71
4.67872e-71
4.70904e-71
4.52229e-71
4.68285e-71
4.60743e-71
4.62416e-71
5.40339e-71
5.49043e-71
5.47941e-71
5.45067e-71
5.48169e-71
5.52474e-71
5.65394e-71
5.48081e-71
5.49565e-71
5.42338e-71
5.44413e-71
5.45161e-71
5.50342e-71
5.51463e-71
5.41271e-71
5.47943e-71
5.50976e-71
5.433e-71
5.40367e-71
5.42248e-71
5.77813e-71
5.76627e-71
5.80118e-71
5.91153e-71
5.86383e-71
5.92492e-71
5.82317e-71
5.93191e-71
5.82396e-71
5.66034e-71
5.71547e-71
5.74446e-71
5.77078e-71
5.67705e-71
5.65321e-71
5.71472e-71
5.66359e-71
5.77523e-71
5.71601e-71
5.83288e-71
5.95643e-71
5.94535e-71
6.05381e-71
5.99182e-71
5.94081e-71
6.04218e-71
6.0238e-71
6.11752e-71
5.95659e-71
6.05323e-71
6.02254e-71
6.03465e-71
6.06037e-71
6.04764e-71
5.99808e-71
6.15554e-71
5.99253e-71
5.92343e-71
5.99419e-71
5.9959e-71
5.84425e-71
5.73753e-71
5.76367e-71
5.74033e-71
5.82279e-71
5.86451e-71
5.86459e-71
5.82102e-71
5.69765e-71
5.73522e-71
5.67676e-71
5.85015e-71
5.83941e-71
5.91975e-71
5.89815e-71
5.88764e-71
5.83596e-71
5.84731e-71
5.77694e-71
5.80056e-71
5.43909e-71
5.5148e-71
5.44118e-71
5.63292e-71
5.46732e-71
5.59537e-71
5.48998e-71
5.56669e-71
5.48855e-71
5.5189e-71
5.5048e-71
5.61098e-71
5.50466e-71
5.66161e-71
5.47713e-71
5.57658e-71
5.5655e-71
5.41214e-71
5.58626e-71
5.58236e-71
4.80323e-71
4.98585e-71
4.92662e-71
4.87963e-71
4.82958e-71
5.03789e-71
4.95109e-71
4.96728e-71
4.9283e-71
4.84407e-71
4.91458e-71
5.00767e-71
4.89948e-71
5.09501e-71
4.9077e-71
4.99603e-71
5.02521e-71
4.93935e-71
5.02835e-71
5.03791e-71
4.51921e-71
4.51451e-71
4.50245e-71
4.5698e-71
4.59854e-71
4.59142e-71
4.49891e-71
4.55302e-71
4.64169e-71
4.50322e-71
4.60045e-71
4.62008e-71
4.48684e-71
4.65464e-71
4.62948e-71
4.72259e-71
4.57855e-71
4.65442e-71
4.59506e-71
4.71018e-71
3.16962e-71
3.1935e-71
3.18026e-71
3.15299e-71
3.20184e-71
3.18426e-71
3.20924e-71
3.18856e-71
3.19883e-71
3.23998e-71
3.17123e-71
3.25326e-71
3.16845e-71
3.28197e-71
3.17556e-71
3.17792e-71
3.20032e-71
3.25934e-71
3.20642e-71
3.28926e-71
1.3164e-85
1.29764e-85
1.31436e-85
1.28174e-85
1.29872e-85
1.30477e-85
1.3038e-85
1.2685e-85
1.28148e-85
1.3136e-85
1.28712e-85
1.31837e-85
1.28624e-85
1.31361e-85
1.27574e-85
1.32391e-85
1.27222e-85
1.28857e-85
1.29497e-85
1.26079e-85
8.13804e-83
8.02221e-83
8.12365e-83
7.92582e-83
8.02705e-83
8.06714e-83
8.06025e-83
7.84298e-83
7.9232e-83
8.12124e-83
7.95881e-83
8.1496e-83
7.95434e-83
8.12202e-83
7.88902e-83
8.18488e-83
7.86771e-83
7.96813e-83
8.00526e-83
7.79686e-83
2.54964e-80
2.5134e-80
2.54458e-80
2.4838e-80
2.51435e-80
2.52774e-80
2.5253e-80
2.45755e-80
2.48269e-80
2.54455e-80
2.49405e-80
2.55306e-80
2.49296e-80
2.54501e-80
2.47235e-80
2.56444e-80
2.46583e-80
2.49709e-80
2.50793e-80
2.4436e-80
4.71181e-78
4.64499e-78
4.70147e-78
4.59136e-78
4.64568e-78
4.67195e-78
4.66696e-78
4.54236e-78
4.58884e-78
4.70276e-78
4.6102e-78
4.71781e-78
4.60875e-78
4.70401e-78
4.57038e-78
4.73938e-78
4.55869e-78
4.61601e-78
4.63455e-78
4.51755e-78
6.05023e-76
5.9647e-76
6.03567e-76
5.8972e-76
5.96415e-76
5.99985e-76
5.99281e-76
5.83365e-76
5.8934e-76
6.039e-76
5.92121e-76
6.05743e-76
5.92003e-76
6.04109e-76
5.87034e-76
6.08574e-76
5.85593e-76
5.92884e-76
5.95067e-76
5.80305e-76
5.48483e-74
5.40763e-74
5.4705e-74
5.34767e-74
5.40583e-74
5.43996e-74
5.43307e-74
5.28958e-74
5.34391e-74
5.4751e-74
5.36938e-74
5.49101e-74
5.36889e-74
5.47743e-74
5.32343e-74
5.51712e-74
5.31104e-74
5.37637e-74
5.39429e-74
5.26304e-74
3.38726e-72
3.3399e-72
3.37771e-72
3.3036e-72
3.33792e-72
3.36006e-72
3.35554e-72
3.26747e-72
3.30122e-72
3.38147e-72
3.31702e-72
3.3908e-72
3.31699e-72
3.38317e-72
3.2886e-72
3.40707e-72
3.28155e-72
3.32122e-72
3.33108e-72
3.25192e-72
1.40393e-70
1.38453e-70
1.3997e-70
1.36977e-70
1.38331e-70
1.39291e-70
1.39098e-70
1.35474e-70
1.36892e-70
1.40162e-70
1.37541e-70
1.40531e-70
1.37544e-70
1.40244e-70
1.36351e-70
1.412e-70
1.361e-70
1.377e-70
1.38056e-70
1.34882e-70
1.53503e-69
1.51445e-69
1.53026e-69
1.49858e-69
1.51252e-69
1.5234e-69
1.52144e-69
1.48222e-69
1.49836e-69
1.5326e-69
1.50512e-69
1.53656e-69
1.50493e-69
1.53362e-69
1.49157e-69
1.54344e-69
1.48985e-69
1.5063e-69
1.50957e-69
1.47687e-69
8.97159e-70
8.97526e-70
8.99485e-70
8.85824e-70
8.91572e-70
8.94362e-70
9.00523e-70
8.80496e-70
9.0442e-70
8.93784e-70
8.98479e-70
9.01023e-70
8.88037e-70
8.94102e-70
8.75926e-70
8.91034e-70
8.939e-70
8.84657e-70
8.86408e-70
8.94942e-70
1.42427e-69
1.43523e-69
1.44783e-69
1.42449e-69
1.41562e-69
1.42152e-69
1.43764e-69
1.40909e-69
1.45297e-69
1.4416e-69
1.44958e-69
1.44222e-69
1.43398e-69
1.41811e-69
1.40776e-69
1.42186e-69
1.41218e-69
1.41499e-69
1.42488e-69
1.42949e-69
1.60646e-69
1.61813e-69
1.62572e-69
1.5964e-69
1.5957e-69
1.56768e-69
1.60261e-69
1.577e-69
1.61344e-69
1.64919e-69
1.6328e-69
1.59448e-69
1.63246e-69
1.60816e-69
1.60591e-69
1.61632e-69
1.55256e-69
1.60708e-69
1.58153e-69
1.58714e-69
1.85905e-69
1.88827e-69
1.88487e-69
1.87536e-69
1.88586e-69
1.90074e-69
1.94433e-69
1.88589e-69
1.89064e-69
1.86565e-69
1.87268e-69
1.87535e-69
1.89328e-69
1.89756e-69
1.86257e-69
1.88514e-69
1.89545e-69
1.86945e-69
1.85923e-69
1.86575e-69
1.98061e-69
1.97609e-69
1.98782e-69
2.0257e-69
2.00956e-69
2.03033e-69
1.99543e-69
2.03298e-69
1.99522e-69
1.94044e-69
1.95873e-69
1.96907e-69
1.97765e-69
1.94591e-69
1.93765e-69
1.95887e-69
1.94091e-69
1.97924e-69
1.959e-69
1.9989e-69
2.04816e-69
2.044e-69
2.08118e-69
2.05974e-69
2.04257e-69
2.07773e-69
2.07083e-69
2.10328e-69
2.0482e-69
2.08148e-69
2.07079e-69
2.07509e-69
2.08338e-69
2.07991e-69
2.0627e-69
2.11617e-69
2.06051e-69
2.03671e-69
2.06095e-69
2.06092e-69
2.00268e-69
1.96642e-69
1.97463e-69
1.96722e-69
1.9953e-69
2.00959e-69
2.00931e-69
1.99462e-69
1.95266e-69
1.96535e-69
1.94518e-69
2.00418e-69
2.00101e-69
2.02819e-69
2.02102e-69
2.01707e-69
1.99966e-69
2.00382e-69
1.97976e-69
1.98774e-69
1.87221e-69
1.8985e-69
1.87288e-69
1.93845e-69
1.88136e-69
1.92537e-69
1.88914e-69
1.91589e-69
1.88905e-69
1.89975e-69
1.89467e-69
1.93132e-69
1.89452e-69
1.94838e-69
1.88532e-69
1.91899e-69
1.91551e-69
1.86311e-69
1.92268e-69
1.92141e-69
1.64988e-69
1.71197e-69
1.69202e-69
1.67558e-69
1.65871e-69
1.72968e-69
1.69983e-69
1.70561e-69
1.69221e-69
1.66353e-69
1.68726e-69
1.71919e-69
1.68242e-69
1.74886e-69
1.68505e-69
1.71526e-69
1.72495e-69
1.69615e-69
1.72628e-69
1.72974e-69
1.56274e-69
1.56119e-69
1.5573e-69
1.58034e-69
1.58984e-69
1.58755e-69
1.55551e-69
1.57505e-69
1.60494e-69
1.55748e-69
1.59075e-69
1.59779e-69
1.55137e-69
1.6095e-69
1.60076e-69
1.63293e-69
1.58341e-69
1.60912e-69
1.58868e-69
1.62821e-69
1.0912e-69
1.09942e-69
1.09499e-69
1.08553e-69
1.10203e-69
1.09617e-69
1.10443e-69
1.09772e-69
1.10068e-69
1.1151e-69
1.09135e-69
1.11951e-69
1.09053e-69
1.12945e-69
1.09299e-69
1.09386e-69
1.10128e-69
1.12168e-69
1.10354e-69
1.13186e-69
5.22742e-84
5.15292e-84
5.21837e-84
5.09107e-84
5.15619e-84
5.18199e-84
5.17749e-84
5.03791e-84
5.08926e-84
5.21691e-84
5.11222e-84
5.23512e-84
5.1094e-84
5.21721e-84
5.06746e-84
5.25772e-84
5.05341e-84
5.1182e-84
5.14223e-84
5.00785e-84
3.17927e-81
3.13404e-81
3.1731e-81
3.09717e-81
3.13532e-81
3.15205e-81
3.14897e-81
3.06446e-81
3.09568e-81
3.17312e-81
3.10992e-81
3.18374e-81
3.10861e-81
3.17357e-81
3.08293e-81
3.1979e-81
3.07455e-81
3.11372e-81
3.12736e-81
3.04678e-81
9.77965e-79
9.64082e-79
9.75868e-79
9.52969e-79
9.64255e-79
9.69722e-79
9.68667e-79
9.42798e-79
9.52401e-79