/*--------------------------------*- C++ -*----------------------------------*\
| =========                 |                                                 |
| \\      /  F ield         | OpenFOAM: The Open Source CFD Toolbox           |
|  \\    /   O peration     | Version:  2212                                  |
|   \\  /    A nd           | Website:  www.openfoam.com                      |
|    \\/     M anipulation  |                                                 |
\*---------------------------------------------------------------------------*/
FoamFile
{
    version     2.0;
    format      ascii;
    arch        "LSB;label=32;scalar=64";
    class       surfaceScalarField;
    location    "0.0018";
    object      phi;
}
// * * * * * * * * * * * * * * * * * * * * * * * * * * * * * * * * * * * * * //

dimensions      [1 0 -1 0 0 0 0];

oriented        oriented;

internalField   nonuniform List<scalar> 
14149
(
-0.000116878
9.01849e-05
-0.000276874
0.000345546
-1.23074e-05
7.79771e-06
-7.84325e-06
1.20185e-05
7.36034e-06
-1.21492e-05
-7.44202e-06
1.23488e-05
-7.13237e-06
6.86896e-06
-1.17573e-05
-1.27025e-05
1.27347e-05
7.47438e-06
7.11759e-06
7.00258e-06
5.07667e-06
-7.93143e-06
-7.11755e-06
-5.54645e-06
1.09447e-06
-7.29776e-06
7.08367e-06
8.13675e-06
-6.89335e-06
6.67507e-06
-9.38432e-06
6.83949e-06
0.000336633
-0.000142815
-0.000331119
0.000159241
-0.000866767
-0.000213287
0.000885451
0.000120482
0.000468092
-3.01912e-05
2.39493e-05
-0.000444299
-0.000121827
0.000130942
-0.000133507
0.000129374
-0.00018588
-0.000163418
0.00020807
0.000147414
-0.000629065
0.00139763
-0.00154118
0.00075948
-0.000132679
-0.000422863
0.000376376
0.000201895
0.000143954
0.000140824
-0.000154645
-0.000100381
-0.000414401
0.000378566
-7.40696e-05
-3.05971e-05
0.000202859
-0.00019486
4.2786e-05
8.05865e-05
-0.000393457
-4.59057e-05
0.000375906
0.000348078
-0.000205964
-0.000368545
0.000224266
-5.57806e-06
-7.52921e-06
5.91009e-06
6.29641e-06
-0.000324675
3.45509e-06
-6.82552e-05
0.000393026
4.72637e-05
-0.000257727
7.91148e-06
0.000225259
0.000251095
-7.75878e-05
-0.00025857
9.08969e-05
0.000340223
0.00189834
-0.00251781
0.000309735
0.000167969
-0.000170852
-4.62378e-05
4.44087e-05
0.000127206
0.000363642
-0.000393158
0.000409787
-0.000450202
-7.36856e-05
0.000126447
0.000124989
-5.92397e-05
9.4693e-05
-0.000175257
0.000465882
-4.20519e-05
6.1666e-05
-0.000471539
-1.16232e-05
-1.1602e-05
1.47724e-05
1.00689e-06
-6.50338e-05
0.000398762
8.75529e-05
5.78808e-05
0.000285651
-1.0648e-06
-0.000316492
0.000146401
2.30473e-05
-8.49702e-05
-4.09391e-05
7.41433e-06
-1.1612e-05
1.19829e-05
-7.52722e-06
-0.000107726
0.00043331
3.06767e-05
-0.000136485
-0.000343428
0.000362868
-0.00024059
-2.7953e-08
0.000255212
3.41834e-05
-4.21706e-08
-0.000224594
3.47398e-05
0.000240617
-0.000224626
3.4671e-05
0.000255225
3.41513e-05
-2.50022e-05
2.74814e-05
7.495e-05
-3.55887e-05
-2.51333e-05
-6.97667e-06
7.73542e-05
-3.1213e-06
1.69839e-05
-1.64331e-05
1.00909e-05
1.85578e-05
1.15002e-05
2.1482e-05
2.10214e-05
9.67895e-06
-0.000207355
-6.49706e-08
3.53338e-05
-7.21535e-08
-0.000189074
3.59779e-05
0.000207406
-0.000189123
3.5838e-05
3.52427e-05
-0.000170002
-9.90602e-08
3.6633e-05
-1.14044e-07
-0.000150466
3.72961e-05
0.000170061
-0.000150527
3.70748e-05
3.64492e-05
-0.000130854
-1.37677e-07
3.79571e-05
-1.62459e-07
-0.000111622
3.85877e-05
0.000130919
-0.000111692
3.82772e-05
3.76874e-05
-9.32895e-05
-1.90294e-07
3.91983e-05
-2.17326e-07
-7.64137e-05
3.97607e-05
9.33677e-05
-7.65002e-05
3.93431e-05
3.88337e-05
-6.15544e-05
-2.42312e-07
4.0259e-05
-2.63952e-07
-4.91974e-05
4.06763e-05
6.16484e-05
-4.92969e-05
4.01735e-05
3.97929e-05
-3.9581e-05
-2.85258e-07
4.10011e-05
-2.90042e-07
-3.2578e-05
4.12309e-05
3.96978e-05
-3.2733e-05
4.07271e-05
4.04746e-05
-2.77959e-05
-2.90281e-07
4.13639e-05
-3.23977e-07
-2.47284e-05
4.14466e-05
2.79924e-05
-2.50004e-05
4.09473e-05
4.08711e-05
-2.2854e-05
-3.88175e-07
4.14965e-05
-6.5145e-07
-2.1767e-05
4.1623e-05
2.32087e-05
-2.2325e-05
4.07384e-05
4.09141e-05
-2.12021e-05
-9.96892e-07
4.19823e-05
-1.99174e-06
-2.06959e-05
4.25277e-05
2.184e-05
-2.17012e-05
3.92282e-05
4.02734e-05
2.1568e-05
6.10843e-06
3.35351e-05
3.93623e-06
3.70488e-05
-2.00841e-05
4.36483e-05
-1.96842e-05
4.51809e-05
-1.9142e-05
4.743e-05
2.48219e-05
7.7626e-05
-1.54747e-08
3.36821e-05
0.00026839
3.36579e-05
0.000268403
0.000241168
-0.000225164
6.85821e-05
0.000255812
6.75099e-05
-3.00977e-05
-9.20148e-06
7.44181e-05
9.078e-06
-1.49006e-05
-1.95253e-05
4.91543e-05
-2.00379e-05
4.89334e-05
2.11e-05
-2.1043e-05
8.27332e-05
-2.12827e-05
2.18175e-05
8.17193e-05
8.20785e-05
-2.28287e-05
2.47008e-05
8.15087e-05
8.15651e-05
-2.78017e-05
3.25719e-05
8.14202e-05
8.14891e-05
-3.95992e-05
4.92373e-05
8.07025e-05
8.11305e-05
-6.16289e-05
7.65296e-05
7.92816e-05
8.0083e-05
-9.34526e-05
0.000111835
7.7242e-05
7.83239e-05
-0.00013112
0.000150786
7.48537e-05
7.60632e-05
-0.000170372
0.000189486
7.22856e-05
7.35689e-05
-0.000207811
0.000225067
6.97679e-05
7.10071e-05
-0.000241103
0.000255762
6.74979e-05
6.85814e-05
0.000207906
-0.000189597
7.09058e-05
6.97173e-05
0.000170494
-0.000150913
7.33753e-05
7.21329e-05
0.000131258
-0.00011199
7.58056e-05
7.46085e-05
9.36201e-05
-7.67199e-05
7.79678e-05
7.69219e-05
6.18338e-05
-4.94573e-05
7.96539e-05
7.88721e-05
3.98529e-05
-3.28603e-05
8.07763e-05
8.02921e-05
2.81431e-05
-2.51967e-05
8.13526e-05
8.11228e-05
2.35617e-05
-2.28583e-05
8.1473e-05
8.14728e-05
2.2856e-05
-2.3435e-05
8.06613e-05
8.12688e-05
7.95235e-05
-2.10512e-05
8.37828e-05
0.000268977
6.6503e-05
6.6535e-05
0.000269002
2.3182e-05
-1.7718e-05
0.000115779
2.39166e-05
0.000118145
7.42842e-05
-3.2303e-05
-8.37407e-06
4.88615e-05
-1.93539e-05
-2.11763e-05
8.54892e-05
-2.19482e-05
8.75248e-05
-2.35739e-05
2.31587e-05
0.000122442
-9.68528e-06
0.00011597
-2.28115e-05
8.81485e-05
-2.39695e-05
0.000124485
-2.28583e-05
2.23589e-05
0.000120367
0.000121131
-2.22027e-05
2.25069e-05
0.00011954
0.0001198
-2.34723e-05
2.50091e-05
0.000119839
0.000119423
-2.79796e-05
3.27814e-05
0.00011951
0.000119685
-3.98299e-05
4.9511e-05
0.000118482
0.000119087
-6.19636e-05
7.69413e-05
0.000116413
0.00011758
-9.39554e-05
0.000112438
0.000113446
0.000115019
-0.00013182
0.000151625
0.000109932
0.000111739
-0.000171305
0.000190525
0.000106221
0.000108112
-0.000208936
0.000226283
0.000102555
0.000104365
-0.000242373
0.000257101
9.91952e-05
0.000100818
6.56145e-05
-3.32297e-05
0.000280761
-0.000270358
0.000282204
9.63853e-05
9.77444e-05
1.52904e-09
3.32338e-05
0.000280155
0.000280141
0.000270436
-0.000257157
9.77887e-05
-6.56357e-05
9.64614e-05
0.000282254
0.000280792
0.000242452
-0.000226361
0.000100864
9.92699e-05
0.00020902
-0.000190619
0.000104306
0.00010255
0.000171421
-0.000151735
0.000107946
0.000106122
0.000131973
-0.000112591
0.00011154
0.000109771
9.41293e-05
-7.71199e-05
0.000114732
0.000113202
6.21528e-05
-4.97094e-05
0.000117264
0.000116088
4.00261e-05
-3.30019e-05
0.000118941
0.000118207
2.82667e-05
-2.53423e-05
0.000119925
0.000119497
2.37614e-05
-2.31393e-05
0.000120522
0.000120265
2.31869e-05
-2.35541e-05
0.000120386
0.000120644
0.000119727
8.21867e-06
-6.69641e-06
0.000114867
0.000115594
1.92917e-05
-1.66269e-05
0.000153238
2.13977e-05
0.000154622
6.48009e-05
-3.28233e-05
0.000291213
9.51786e-05
0.000292693
0.000272758
-0.000259418
0.000126998
0.000284683
0.000125192
7.65822e-06
-1.23417e-05
-7.46975e-05
0.000114252
-3.92032e-06
-3.38374e-05
-5.5416e-06
8.86958e-05
-2.29239e-05
-2.50799e-05
2.47664e-05
0.000157396
7.37259e-06
-4.68484e-06
0.000151963
9.78632e-06
0.000152607
0.000126035
-2.47164e-05
-1.28634e-05
0.00015303
-2.49114e-05
0.000159138
-2.4515e-05
2.39881e-05
0.000155672
0.000156274
-2.37772e-05
2.36772e-05
0.000155198
0.000155017
-2.40549e-05
2.57851e-05
0.000155465
0.000155345
-2.86366e-05
3.32776e-05
0.000155243
0.00015546
-4.02555e-05
4.99945e-05
0.000153765
0.00015464
-6.25397e-05
7.76397e-05
0.00015108
0.000152594
-9.48015e-05
0.000113456
0.000147239
0.000149276
-0.000133014
0.000152964
0.000142709
0.000145052
-0.000172851
0.00019224
0.000137912
0.00014034
-0.000210812
0.000228306
0.00013318
0.000135521
-0.000244522
0.00025934
0.000128805
0.00013093
-0.000272694
0.000284614
0.000125079
0.000126902
-1.66759e-09
3.28347e-05
0.000290565
0.000290553
-6.48366e-05
9.52286e-05
0.000292744
0.000291236
0.000244567
-0.000228345
0.000131024
0.000128898
0.000210829
-0.000192277
0.000135527
0.000133197
0.000172899
-0.000153051
0.00014026
0.00013787
0.000133108
-0.000113546
0.000144914
0.000142618
9.49135e-05
-7.77668e-05
0.000149088
0.000147091
6.26782e-05
-5.01048e-05
0.000152402
0.000150876
4.03175e-05
-3.32176e-05
0.000154633
0.000153644
2.84032e-05
-2.54328e-05
0.000156027
0.000155376
2.37512e-05
-2.29586e-05
0.000156968
0.000156518
2.26029e-05
-2.22583e-05
0.000157094
0.000157225
0.000156397
0.000152855
0.000123452
0.000295188
0.000295209
0.000123582
4.74185e-05
-1.6713e-05
0.000113922
-7.51285e-05
-6.02471e-09
-8.95289e-07
0.000150895
6.6651e-06
-8.77225e-06
0.000161053
-2.45735e-05
1.83055e-05
-1.63912e-05
0.000187869
1.98014e-05
0.000188785
-1.3958e-05
0.000187696
0.000128059
-2.60073e-05
0.000287888
-0.000275876
0.00015175
0.000298508
0.000149723
9.41278e-05
-6.40973e-05
0.000302017
0.000122072
0.000304542
8.99281e-05
-2.3119e-05
-3.53438e-05
-1.05301e-06
-0.000113665
5.24198e-06
0.000148306
-7.63503e-05
5.67929e-06
-1.10163e-05
-0.000143194
3.50971e-05
0.000154766
-0.000145238
2.3268e-06
0.000169254
1.44603e-05
-0.000113748
4.64533e-05
-1.26048e-05
2.44808e-05
0.000193125
-2.29956e-05
-2.52656e-05
2.53733e-05
0.000190168
0.000191397
-2.53249e-05
2.49217e-05
0.000188796
0.000189317
-2.41086e-05
2.39388e-05
0.000188723
0.000188626
-2.4678e-05
2.61432e-05
0.000188908
0.000188583
-2.91059e-05
3.3841e-05
0.00018844
0.000188676
-4.08731e-05
5.06388e-05
0.000186658
0.000187729
-6.33069e-05
7.85678e-05
0.000183336
0.000185176
-9.59234e-05
0.000114792
0.000178678
0.000181146
-0.000134601
0.000154797
0.000173191
0.000176022
-0.000174919
0.000194548
0.000167381
0.000170318
-0.000213328
0.000231028
0.000161668
0.000164517
-0.000247424
0.000262393
0.000156357
0.000158949
0.000154018
-9.40727e-05
0.000121972
0.000304541
6.40565e-05
-3.24483e-05
0.000300468
0.000301967
-7.18763e-09
3.24696e-05
0.000299781
0.000299772
0.000300482
-0.000287965
0.000298587
0.000149887
0.000275968
-0.00026246
0.000154126
0.00015192
0.000247467
-0.000231032
0.000159053
0.000156467
0.000213343
-0.000194535
0.000164541
0.00016174
0.000174917
-0.000154821
0.000170314
0.000167399
0.000134638
-0.000114858
0.000175972
0.000173173
9.6002e-05
-7.86514e-05
0.000181052
0.000178614
6.33605e-05
-5.06274e-05
0.000185103
0.000183232
4.06938e-05
-3.34761e-05
0.000187851
0.000186611
2.8546e-05
-2.54652e-05
0.000189608
0.000188748
2.36324e-05
-2.26116e-05
0.000190767
0.000190168
2.18029e-05
-2.09927e-05
0.000190848
0.000190917
0.000190099
1.14754e-05
-9.21489e-06
0.000188101
0.000187743
7.10607e-06
-5.13687e-06
0.000187999
0.000188165
0.000184811
0.00016336
-2.35255e-05
0.000147885
0.000307864
0.000307969
0.00014798
1.78922e-05
-1.64463e-05
0.000220307
1.91546e-05
0.000220657
-1.45033e-05
0.00022034
1.88601e-05
0.00025066
-5.97033e-05
0.000131266
-2.95563e-05
4.98408e-06
-3.83479e-06
-3.71926e-05
4.23268e-06
-0.00011391
2.62775e-05
7.46993e-05
-1.03991e-05
-0.000164642
7.63111e-05
0.000242434
-0.000111224
-2.12738e-05
2.36221e-05
0.000222789
-7.77752e-05
1.3023e-05
0.000194933
-1.99852e-05
-1.74885e-05
0.000224246
-0.000144273
5.44921e-05
-2.46286e-05
2.51092e-05
0.000221101
0.000221919
-2.52028e-05
2.49215e-05
0.00022025
0.000220602
-2.45493e-05
2.45852e-05
0.000220122
0.000220063
-2.5136e-05
2.66571e-05
0.000220289
0.000220016
-2.95347e-05
3.42953e-05
0.000219597
0.000219939
-4.1464e-05
5.13886e-05
0.000217481
0.000218715
-6.42024e-05
7.96714e-05
0.000213597
0.000215759
-9.72697e-05
0.000116408
0.000208171
0.000211046
-0.000136507
0.00015699
0.000201788
0.000205066
-0.000177402
0.000197309
0.000195016
0.00019843
-0.000216387
0.00023434
0.000188366
0.000191675
-0.000250967
0.000266127
0.000182168
0.000185197
-0.000279784
0.00029191
0.000176701
0.000179388
-0.000302608
0.000312041
0.000172023
0.000174268
-0.000146113
0.000169876
0.000320361
0.000120595
-9.30105e-05
0.00031281
0.000316184
6.33678e-05
-3.20872e-05
0.00030869
0.000310236
-7.92907e-09
3.21111e-05
0.000308003
0.000307998
-6.34007e-05
9.30786e-05
0.000310264
0.000308702
-0.000120664
0.000146216
0.000316271
0.00031283
-0.000312146
0.00032042
0.000170046
0.000302738
-0.000292059
0.00017449
0.000172165
0.00027989
-0.000266228
0.000179522
0.000176868
0.000251028
-0.00023437
0.000185314
0.000182274
0.000216397
-0.000197322
0.000191743
0.000188462
0.00017741
-0.000157013
0.000198493
0.000195078
0.000136539
-0.000116465
0.000205098
0.000201833
9.73399e-05
-7.97396e-05
0.000211051
0.00020819
6.42014e-05
-5.12684e-05
0.000215793
0.000213578
4.11809e-05
-3.3795e-05
0.000218988
0.000217558
2.87499e-05
-2.55708e-05
0.000221092
0.000220046
2.36269e-05
-2.24464e-05
0.000222339
0.000221662
2.14158e-05
-2.035e-05
0.000222208
0.000222263
0.000221527
1.22595e-05
-1.01473e-05
0.000221904
0.000220655
8.98394e-06
-9.97012e-06
0.000226965
0.000223855
0.000232985
-0.00016588
0.000196493
-1.43642e-05
-2.0011e-05
5.06675e-05
-1.05985e-05
-1.21999e-05
0.000225685
1.79189e-05
-1.64568e-05
0.000250561
1.90597e-05
0.000250622
-1.45593e-05
0.000250863
0.000316716
-0.000307259
0.000194352
0.000324967
0.000191833
0.000144501
-0.000119301
0.000323682
0.000167932
0.00032779
2.13662e-06
1.76524e-06
-3.96639e-05
1.07945e-05
-7.87224e-05
2.199e-05
0.000231989
7.35044e-05
-0.000184724
6.99644e-05
-5.90656e-05
0.000265889
-0.000230063
8.11834e-05
0.000263781
8.00213e-05
-0.000190789
0.000198923
-0.000169375
-5.70809e-06
0.000139714
-5.31258e-05
-0.000114506
3.97361e-05
6.94342e-06
7.56673e-05
0.000227521
-4.87984e-06
6.34317e-05
-0.000149237
1.56169e-05
-1.06606e-05
0.000253663
-1.95602e-05
2.21907e-05
0.000250768
0.000251894
-2.35677e-05
2.44308e-05
0.000250023
0.000250509
-2.47862e-05
2.48344e-05
0.000249766
0.000249845
-2.48673e-05
2.49937e-05
0.000249556
0.000249309
-2.55023e-05
2.71807e-05
0.000249562
0.000249603
-3.00178e-05
3.48772e-05
0.000248733
0.000249302
-4.21047e-05
5.2184e-05
0.000246348
0.000247772
-6.52065e-05
8.09093e-05
0.000241961
0.000244404
-9.87818e-05
0.000118221
0.000235816
0.000239072
-0.000138632
0.000159464
0.000228554
0.00023229
-0.000180213
0.000200442
0.000220873
0.000224739
-0.000219839
0.000238091
0.000213293
0.00021705
-0.000254993
0.000270398
0.000206209
0.000209677
-0.00028423
0.000296486
0.000199898
0.000203013
0.000197041
-0.0001444
0.000167837
0.000327711
0.000119256
-9.20428e-05
0.000320254
0.000323641
6.27106e-05
-3.17684e-05
0.000316104
0.000317647
-5.18528e-09
3.17752e-05
0.000315407
0.000315401
-6.27314e-05
9.20633e-05
0.000317676
0.000316099
0.000320254
-0.000316839
0.000325127
0.000191988
0.000307422
-0.000296597
0.000197246
0.000194562
0.000284328
-0.000270458
0.000203138
0.000200085
0.000255047
-0.000238123
0.000209814
0.000206345
0.000219857
-0.00020046
0.000217162
0.000213418
0.000180241
-0.000159488
0.000224849
0.000220994
0.000138673
-0.000118282
0.000232401
0.00022867
9.88475e-05
-8.09349e-05
0.000239161
0.000235919
6.51506e-05
-5.19944e-05
0.000244579
0.000242051
4.16593e-05
-3.4172e-05
0.000248231
0.000246513
2.90417e-05
-2.56986e-05
0.00025054
0.000249414
2.37592e-05
-2.22259e-05
0.000251653
0.000251248
2.10145e-05
-2.01046e-05
0.000251809
0.000251556
0.000251148
1.21912e-05
-9.56139e-06
0.000253457
0.000251462
6.64427e-06
-2.95352e-06
0.00026033
0.00025639
-4.07016e-06
3.42678e-05
0.000266322
0.000265533
0.000265253
-7.1619e-06
-3.94766e-06
0.000255059
0.000189321
0.000332298
0.00033243
0.000189458
-1.78894e-05
1.91616e-05
0.000278245
-1.63624e-05
0.000278515
-0.000201778
0.000229738
4.24705e-06
-0.000172841
4.65744e-06
-1.75835e-06
3.7123e-05
-1.41323e-06
7.98395e-06
-4.10748e-05
1.87738e-05
-7.97382e-05
3.31603e-05
-0.000230695
0.000265177
9.25026e-05
8.96838e-05
-0.000193483
-0.000249472
0.000265046
0.00015698
-0.000140833
7.3336e-05
-0.00015405
-5.18564e-05
0.000115589
-0.000134512
8.03605e-05
-0.000116333
5.28278e-05
0.000256487
4.67366e-06
1.68669e-06
6.53723e-06
0.00028238
-8.41133e-06
1.42798e-05
0.000279249
0.000281234
-1.81456e-05
2.05879e-05
0.000277378
0.00027808
-2.23335e-05
2.37841e-05
0.0002764
0.000277114
-2.44319e-05
2.50491e-05
0.000276686
0.000276706
-2.48424e-05
2.52533e-05
0.000276541
0.000276712
-2.59848e-05
2.767e-05
0.000276588
0.000276771
-3.06234e-05
3.5519e-05
0.000275645
0.000276341
-4.28579e-05
5.30911e-05
0.000273
0.000274595
-6.63158e-05
8.22755e-05
0.000268158
0.000270862
-0.000100448
0.000120214
0.000261347
0.000264955
-0.000140988
0.000162159
0.000253266
0.000257404
-0.000183273
0.000203873
0.000244671
0.000248984
-0.000223615
0.000242192
0.000236188
0.000240386
-0.000259398
0.000275006
0.000228273
0.000232118
-0.000289098
0.000301503
0.000221045
0.000224538
-0.000312354
0.000321804
0.000214615
0.000217755
-0.000330082
0.000337319
0.000208613
0.000211585
-0.000186825
0.000205622
0.000343738
0.00016577
-0.000142738
0.000334338
0.000338828
0.000117898
-9.09932e-05
0.00032695
0.000330325
6.20513e-05
-3.14299e-05
0.00032284
0.000324419
-1.35846e-09
3.1439e-05
0.000322159
0.00032216
-6.20606e-05
9.1036e-05
0.000324419
0.000322835
-0.000117919
0.000142768
0.000330357
0.000326975
-0.000165825
0.000186918
0.000338927
0.000334394
-0.000337514
0.000343914
0.000205742
0.000330313
-0.000322034
0.000211757
0.000208802
0.000312558
-0.000301623
0.000217902
0.000214825
0.000289196
-0.000275089
0.000224676
0.000221241
0.000259439
-0.000242224
0.000232286
0.000228401
0.000223648
-0.000203892
0.000240525
0.000236357
0.000183294
-0.000162209
0.000249172
0.000244841
0.000141032
-0.000120271
0.000257592
0.000253427
0.000100491
-8.22668e-05
0.000265145
0.000261531
6.62002e-05
-5.27397e-05
0.000271132
0.000268378
4.23384e-05
-3.4593e-05
0.000275163
0.000273415
2.94544e-05
-2.58908e-05
0.000277614
0.000276677
2.36819e-05
-2.21105e-05
0.000278747
0.000278406
2.11739e-05
-2.01537e-05
0.000279055
0.000278969
0.000278637
1.13711e-05
-7.6438e-06
0.000282066
-1.40366e-05
0.000278812
0.000279989
3.48052e-06
4.60572e-06
0.000287642
0.000285987
-1.75542e-05
3.55737e-05
0.000289077
0.00029042
-5.06351e-05
6.61077e-05
0.000293523
0.000292904
-7.94527e-05
9.38591e-05
0.000294828
0.000293815
-0.000121774
0.000327567
-0.000273679
-0.000109626
-0.000267759
0.000301299
0.000267015
0.000103435
-0.000231407
0.000295971
1.01568e-05
-5.2647e-05
-2.19285e-06
3.41952e-05
2.20458e-06
0.000258097
-0.000232136
1.51216e-05
1.64911e-05
0.000283391
3.17289e-05
5.71607e-06
-7.26432e-06
-1.17227e-05
0.000342625
-0.000335463
0.000225674
0.000348922
0.000222169
0.000184227
-0.000163608
0.000344786
0.000202623
0.000349577
-3.42637e-06
1.5814e-05
0.000115266
-0.000232621
-4.20992e-05
2.85704e-05
0.000100861
-0.000194947
8.51082e-05
-0.000157189
-8.07219e-05
4.56958e-05
-0.000118456
6.54416e-05
-5.59608e-06
-7.66253e-06
7.37921e-06
-3.81511e-05
0.000138517
-0.000143755
-0.000146011
0.000152198
-4.03701e-05
4.62356e-05
-0.000170243
-6.25228e-06
0.000276191
-0.000110054
-0.000284898
0.000120792
6.04251e-05
0.000159
-6.62214e-05
-0.000156313
-0.000204862
1.48591e-05
-0.000176123
1.55474e-05
8.89551e-05
3.5716e-05
-0.000142955
-1.55463e-05
0.000234211
-0.000207015
2.64385e-05
-0.000143731
0.000313363
0.000204357
-0.000117507
0.000317931
9.94354e-05
-6.24244e-05
1.52884e-05
-1.39345e-05
0.000143062
2.07635e-05
0.000259493
2.72977e-05
2.47103e-05
-1.25615e-05
2.71134e-05
0.000284996
0.000174049
-0.000224111
-0.000113015
0.000170268
0.000259538
-0.000234927
4.08613e-05
3.96702e-05
0.000283517
7.12384e-06
-7.92919e-06
-1.44324e-05
-7.25413e-05
-0.000266074
0.000120938
0.000249536
0.000280192
-0.000260673
5.70752e-05
4.90142e-05
-3.79221e-05
0.000304633
-0.000272671
0.000282552
2.84432e-05
-1.83093e-05
0.000310004
0.00030959
9.4719e-06
-1.18411e-06
0.000307362
0.000308879
-6.08754e-06
1.13209e-05
0.000304371
0.000305793
-1.58282e-05
1.92323e-05
0.000301712
0.000302491
-2.17835e-05
2.30595e-05
0.00030114
0.000301283
-2.40874e-05
2.48752e-05
0.000301308
0.000301194
-2.53181e-05
2.57233e-05
0.000301338
0.000301403
-2.65993e-05
2.82791e-05
0.00030137
0.000301552
-3.13198e-05
3.62512e-05
0.000300338
0.000301068
-4.37059e-05
5.40624e-05
0.000297476
0.000299178
-6.75038e-05
8.37275e-05
0.00029219
0.000295127
-0.000102213
0.000122347
0.000284735
0.000288691
-0.000143482
0.000165056
0.000275885
0.000280431
-0.00018655
0.000207527
0.000266421
0.000271175
-0.000227608
0.000246512
0.000257041
0.000261697
-0.000263991
0.000279947
0.000248182
0.00025253
-0.000294199
0.00030679
0.000240064
0.000244028
-0.00031772
0.000327231
0.000232689
0.000236365
0.000229163
-0.000184217
0.000202508
0.000349508
0.000163575
-0.000140922
0.000340322
0.000344667
0.000116454
-8.99408e-05
0.000333088
0.000336411
6.13491e-05
-3.10948e-05
0.000329057
0.000330621
-2.78612e-09
3.10957e-05
0.000328384
0.000328381
-6.13472e-05
8.99445e-05
0.00033061
0.000329051
-0.00011645
0.000140933
0.000336425
0.000333117
0.000340356
-0.000342796
0.000349054
0.000222335
0.000335629
-0.000327414
0.000229366
0.000225871
0.000317879
-0.000306879
0.000236454
0.000232896
0.000294259
-0.000279989
0.000244172
0.000240257
0.000264046
-0.000246534
0.000252702
0.000248351
0.000227613
-0.000207543
0.000261884
0.000257232
0.000186575
-0.000165071
0.000271394
0.000266637
0.000143522
-0.000122391
0.000280688
0.000276113
0.000102224
-8.36511e-05
0.000288982
0.000284997
6.73179e-05
-5.37072e-05
0.000295622
0.000292591
4.29289e-05
-3.51108e-05
0.000299973
0.000297962
2.97832e-05
-2.60287e-05
0.000302345
0.000301662
2.39466e-05
-2.25235e-05
0.00030379
0.000303525
2.14567e-05
-2.03711e-05
0.000303969
0.000304134
1.93172e-05
-1.79608e-05
0.000303627
0.000303871
1.60699e-05
-1.35261e-05
0.000304516
0.000304026
1.04042e-05
-5.94522e-06
0.000308124
0.000306172
-2.11779e-06
1.09514e-05
0.00031257
0.000309994
-2.39962e-05
3.63598e-05
0.00031429
0.000313141
-5.12852e-05
6.57119e-05
0.000319356
0.000317244
-8.21055e-05
0.000100371
0.000317988
0.000318264
0.000320843
-1.9711e-05
0.000121182
2.472e-05
-2.47064e-05
0.00013646
0.000157227
-0.000139524
1.83322e-05
7.80541e-06
-1.6739e-06
8.77107e-05
1.27276e-05
-5.43337e-07
4.38439e-05
-0.000243275
0.000242321
-4.18266e-05
-0.000262137
-0.000285547
0.000259735
0.000308068
0.000132185
-0.00025709
0.000218618
0.000354497
0.000354584
0.000218782
5.0428e-05
-0.00013096
-0.000177447
2.60882e-05
-0.000105422
0.000143498
2.46898e-05
-6.78173e-05
2.01621e-05
3.25253e-05
1.4139e-05
0.000121187
-0.000232888
0.000116259
-0.000119863
0.000169634
-0.000135883
-0.000208491
3.97136e-05
0.000138986
-0.000118805
0.000336353
0.00032919
0.000161572
0.000291272
0.000173451
-0.000221084
-4.21755e-06
2.55552e-05
0.000111826
-0.000195666
9.74051e-05
-0.000158378
-0.000236558
5.5702e-05
-0.000291858
-0.000319518
0.000402752
0.000222039
-4.29975e-05
4.03828e-05
-9.43609e-05
0.000105143
0.000148622
-0.000160652
-0.000256907
7.80484e-05
-0.000163799
0.000136501
-8.17561e-05
5.92058e-05
7.85053e-05
-0.000120509
3.55089e-05
2.25848e-06
-5.88177e-05
5.6702e-05
8.5121e-06
1.42483e-06
0.000254402
-0.000239128
0.000152304
0.000105755
2.76384e-05
8.11482e-05
1.96195e-05
1.20141e-05
-1.19636e-05
-7.43195e-06
3.01163e-05
-3.78196e-05
0.000347162
0.000376802
-2.85554e-05
3.22129e-05
-2.34417e-05
0.000335315
0.000338459
1.42504e-05
-5.65709e-06
0.000331375
0.000333172
-1.75947e-06
8.60769e-06
0.000327237
0.000329673
-1.36864e-05
1.76803e-05
0.000324322
0.000325448
-2.06121e-05
2.26851e-05
0.000323456
0.000323706
-2.40773e-05
2.5088e-05
0.000323597
0.000323452
-2.57505e-05
2.62883e-05
0.00032382
0.000323771
-2.72646e-05
2.89657e-05
0.000323891
0.000323985
-3.20464e-05
3.70581e-05
0.000322777
0.000323539
-4.45906e-05
5.51072e-05
0.000319743
0.00032156
-6.87521e-05
8.52122e-05
0.000314097
0.000317219
-0.00010401
0.000124487
0.000306021
0.000310295
-0.00014601
0.000167986
0.00029641
0.000301356
-0.000189867
0.000211203
0.000286105
0.000291291
-0.000231651
0.000250881
0.00027578
0.000280902
-0.000268669
0.000284838
0.000265952
0.000270784
-0.000299288
0.000311993
0.000256875
0.000261317
-0.000323108
0.000332639
0.000248483
0.000252596
-0.000340844
0.00034793
0.000240622
0.000244508
-0.000354087
0.000359501
0.000233027
0.000236794
-0.000214966
0.000229264
0.000364362
0.000199261
-0.000181309
0.000354597
0.000359539
0.000161191
-0.000138922
0.000345748
0.000350013
0.000114832
-8.87349e-05
0.00033873
0.000341964
6.05444e-05
-3.06996e-05
0.000334817
0.000336324
-2.26454e-09
3.07111e-05
0.000334154
0.000334158
-6.05632e-05
8.87345e-05
0.000336332
0.000334808
-0.000114836
0.000138925
0.000341976
0.000338751
-0.000161221
0.000181402
0.000350071
0.000345754
-0.000199337
0.000215109
0.00035956
0.000354686
-0.000359597
0.000364426
0.000229444
0.000354216
-0.000348074
0.000236981
0.000233233
0.000340987
-0.000332757
0.000244697
0.000240829
0.000323179
-0.000312097
0.000252728
0.000248657
0.000299334
-0.000284857
0.000261455
0.000257029
0.000268677
-0.000250877
0.000270973
0.000266136
0.000231639
-0.0002112
0.000281123
0.000275994
0.000189855
-0.000168001
0.000291567
0.00028634
0.000146047
-0.000124508
0.00030167
0.0002967
0.000103988
-8.50907e-05
0.000310713
0.000306375
6.83696e-05
-5.43835e-05
0.000317834
0.000314577
4.35691e-05
-3.56805e-05
0.000322674
0.000320497
2.9954e-05
-2.67142e-05
0.000325468
0.000324149
2.4323e-05
-2.29094e-05
0.000326653
0.000326165
2.14862e-05
-2.0493e-05
0.0003269
0.000326795
1.92919e-05
-1.77544e-05
0.000326798
0.000326869
1.55445e-05
-1.24778e-05
0.000327838
0.000327269
8.0128e-06
-1.78506e-06
0.000330793
0.00032927
-5.44778e-06
1.57557e-05
0.000334317
0.000333168
-2.61396e-05
3.87041e-05
0.000336623
0.000336323
-5.22961e-05
7.02237e-05
0.000338624
0.000339853
-8.45306e-05
0.000100937
0.000339815
0.000341907
0.000341772
-5.65102e-05
-0.000102434
0.000125889
5.44206e-05
-0.000120482
-0.000254172
0.000215158
0.0003123
-0.000235064
6.66232e-05
-0.000104198
3.29545e-05
-4.25086e-05
2.59117e-05
1.54706e-05
9.63925e-05
2.38447e-05
-9.76399e-05
-0.00012116
0.000130801
-0.000226427
-0.000233327
-7.56801e-05
-0.000111031
0.000110803
-2.5648e-05
-9.93392e-05
4.27089e-05
6.91503e-05
-8.18301e-06
-4.25012e-08
-7.28069e-06
-0.000178273
3.69346e-05
0.000129951
-0.000116706
0.000358043
0.00014275
0.000350347
0.000325528
0.000163212
3.3143e-05
2.39367e-05
-0.000107815
0.000144445
3.20347e-05
-7.03759e-05
2.81059e-05
9.9226e-05
2.65466e-05
1.32543e-05
0.000121986
-0.000195939
-7.56545e-06
1.14025e-05
0.000363909
-0.00035863
0.000246848
0.000368615
0.000243137
0.000211348
-0.00019585
0.000364081
0.000225675
0.000368868
0.000109744
-0.000159043
-5.02526e-05
-0.000281433
0.000236154
0.000111414
-0.000208844
5.26014e-05
0.000302709
0.000168356
5.60048e-06
5.68302e-06
-1.30246e-05
-1.15405e-05
-7.68006e-06
-1.09703e-05
7.42163e-06
1.11662e-05
7.79725e-06
-8.08943e-06
-1.04277e-05
3.02805e-05
-5.05011e-05
-4.43833e-05
5.56542e-05
-4.34624e-06
3.69283e-05
0.000134221
-0.000134724
-2.12041e-05
4.06027e-05
4.21289e-05
0.000111908
-0.000113812
-2.29344e-05
5.68307e-05
0.000100696
-8.56279e-05
-0.00033238
0.000371714
2.82978e-05
3.69345e-05
-0.000158484
-1.69664e-05
0.000158946
5.82127e-05
-0.000185543
0.000182756
-0.000234804
7.28651e-05
0.000279035
0.000165855
1.85396e-05
1.74532e-05
-3.75065e-05
-1.63978e-05
1.2345e-05
-1.17572e-05
5.28124e-06
-1.51166e-05
1.33083e-05
3.05615e-06
-3.035e-05
1.74076e-05
4.52416e-05
2.5423e-05
0.00012743
-0.000184397
-4.34061e-05
5.34427e-05
9.19349e-05
-0.000121295
-0.000253661
0.000102731
1.88526e-05
5.05301e-06
-1.70565e-06
-8.25535e-05
7.29254e-05
8.87809e-05
4.34595e-05
-9.14387e-05
-2.63898e-05
-4.62384e-05
6.5291e-05
8.68591e-05
0.000132705
6.29366e-05
-0.000262094
0.000164284
3.38129e-05
8.24377e-06
6.47071e-05
0.000109379
5.09707e-05
1.96938e-05
7.39715e-05
0.000142851
-0.000213011
1.20144e-05
-7.40966e-06
0.000255813
-0.00023097
0.00016172
0.000298184
0.000151671
7.1301e-05
-5.3639e-05
0.000363005
0.000361825
0.000121132
4.13692e-05
-3.1024e-05
0.000357572
0.000359133
2.02694e-05
-1.09374e-05
0.000353656
0.000354569
2.06561e-06
4.8637e-06
0.000349622
0.000351567
-1.10344e-05
1.59008e-05
0.000345627
0.000347072
-1.97569e-05
2.23757e-05
0.000344165
0.000344472
-2.41819e-05
2.54177e-05
0.000344072
0.000343991
-2.63078e-05
2.69396e-05
0.000344454
0.000344251
-2.79493e-05
2.97262e-05
0.000344487
0.000344548
-3.28492e-05
3.78883e-05
0.000343368
0.000344118
-4.55045e-05
5.61551e-05
0.000340169
0.000342088
-6.99452e-05
8.6696e-05
0.000334149
0.000337532
-0.000105778
0.000126583
0.000325534
0.000330118
-0.000148455
0.000170782
0.000315177
0.000320516
-0.00019301
0.000214714
0.000303979
0.000309643
-0.00023547
0.000254998
0.000292689
0.000298315
-0.000273043
0.00028944
0.000281837
0.000287187
-0.000304073
0.000316928
0.000271761
0.000276698
-0.000328028
0.000337518
0.00026265
0.000267076
-0.000345637
0.000352611
0.000254447
0.000258451
0.000250601
-0.000211247
0.000225566
0.000368812
0.000195736
-0.000178308
0.000359331
0.000364046
0.000158571
-0.000136704
0.000350677
0.000354815
0.000112991
-8.73774e-05
0.000343944
0.000347011
5.96621e-05
-3.02642e-05
0.000340143
0.00034159
-2.85536e-09
3.02673e-05
0.00033951
0.000339511
-5.96516e-05
8.73672e-05
0.000341592
0.000340143
-0.000112985
0.000136716
0.000347004
0.000343956
-0.000158544
0.000178342
0.000354807
0.000350718
0.000359338
-0.000364005
0.000368692
0.000243345
0.000358758
-0.000352741
0.000250799
0.000247098
0.000345716
-0.000337578
0.000258628
0.000254611
0.000328053
-0.000316955
0.000267218
0.000262796
0.000304084
-0.000289436
0.000276837
0.000271912
0.000273013
-0.000254958
0.000287389
0.000282015
0.000235426
-0.000214666
0.000298551
0.000292919
0.000192992
-0.000170762
0.000309939
0.00030426
0.000148422
-0.000126522
0.000320887
0.000315494
0.000105636
-8.64046e-05
0.000330654
0.000325969
6.93927e-05
-5.52968e-05
0.000338358
0.000334754
4.43239e-05
-3.63052e-05
0.000343539
0.000341234
3.08136e-05
-2.69737e-05
0.000346201
0.000345094
2.45774e-05
-2.30728e-05