/*--------------------------------*- C++ -*----------------------------------*\
| =========                 |                                                 |
| \\      /  F ield         | OpenFOAM: The Open Source CFD Toolbox           |
|  \\    /   O peration     | Version:  2212                                  |
|   \\  /    A nd           | Website:  www.openfoam.com                      |
|    \\/     M anipulation  |                                                 |
\*---------------------------------------------------------------------------*/
FoamFile
{
    version     2.0;
    format      ascii;
    arch        "LSB;label=32;scalar=64";
    class       surfaceScalarField;
    location    "0.000189";
    object      phi;
}
// * * * * * * * * * * * * * * * * * * * * * * * * * * * * * * * * * * * * * //

dimensions      [1 0 -1 0 0 0 0];

oriented        oriented;

internalField   nonuniform List<scalar> 
74907
(
-1.09479e-10
-6.49692e-09
2.43309e-11
-3.06314e-10
-1.36059e-08
-6.3906e-10
-2.26266e-08
-8.57008e-10
-3.23017e-08
-1.07244e-09
-4.21805e-08
-1.36213e-09
-4.68759e-08
-1.65798e-09
-5.38186e-08
-2.04152e-09
-6.85599e-08
-2.20535e-09
-7.90587e-08
-2.62098e-09
-8.65513e-08
-3.04892e-09
-1.00362e-07
-3.53034e-09
-1.11602e-07
-3.99589e-09
-1.17368e-07
-4.44693e-09
-1.25831e-07
-4.6996e-09
-1.31242e-07
-4.97986e-09
-1.45413e-07
-5.33226e-09
-1.54898e-07
-5.26421e-09
-1.35661e-07
-4.85338e-09
-1.2846e-07
-4.3518e-09
-1.27839e-07
-3.89177e-09
-1.14329e-07
-3.02793e-09
-8.99702e-08
-2.38899e-09
-7.1097e-08
-2.00012e-09
-6.34673e-08
-1.73534e-09
-5.72822e-08
-1.56905e-09
-5.18555e-08
-1.43053e-09
-4.88622e-08
-1.43853e-09
-4.77715e-08
-1.48944e-09
-4.85775e-08
-1.56278e-09
-4.81967e-08
-1.51012e-09
-5.05111e-08
-1.21816e-09
-5.86494e-08
-3.73835e-10
-7.44216e-08
7.32814e-10
-8.97679e-08
1.70014e-09
-9.06996e-08
2.15247e-09
-8.39646e-08
2.32691e-09
-7.537e-08
2.36666e-09
-6.81442e-08
2.06992e-09
-6.11901e-08
1.92711e-09
-5.54975e-08
1.90426e-09
-4.99684e-08
1.84357e-09
-4.44802e-08
1.72065e-09
-3.8733e-08
1.36026e-09
-3.21877e-08
9.31607e-10
-2.2937e-08
2.99591e-10
-1.45053e-08
-7.49636e-09
-8.50896e-11
-6.42106e-09
1.88979e-11
-2.35855e-10
-1.34191e-08
-5.3353e-10
-2.23272e-08
-7.1966e-10
-3.20183e-08
-9.43908e-10
-4.1912e-08
-1.16529e-09
-4.6821e-08
-1.40245e-09
-5.36081e-08
-1.66085e-09
-6.81287e-08
-1.9135e-09
-7.83156e-08
-2.21984e-09
-8.64443e-08
-2.55342e-09
-1.00415e-07
-2.90497e-09
-1.11303e-07
-3.36262e-09
-1.16757e-07
-3.57998e-09
-1.252e-07
-3.83915e-09
-1.3051e-07
-4.11926e-09
-1.44731e-07
-4.30228e-09
-1.52752e-07
-4.26812e-09
-1.34714e-07
-4.0385e-09
-1.28236e-07
-3.65996e-09
-1.28559e-07
-3.07855e-09
-1.15423e-07
-2.45825e-09
-9.05579e-08
-2.05864e-09
-7.1065e-08
-1.68338e-09
-6.38548e-08
-1.45927e-09
-5.75844e-08
-1.32952e-09
-5.20145e-08
-1.19684e-09
-4.89677e-08
-1.18512e-09
-4.76365e-08
-1.18905e-09
-4.82488e-08
-1.21227e-09
-4.76618e-08
-1.1872e-09
-4.98449e-08
-9.52037e-10
-5.7838e-08
-2.27056e-10
-7.35671e-08
7.21449e-10
-8.91835e-08
1.64501e-09
-9.10593e-08
2.16365e-09
-8.38407e-08
2.37627e-09
-7.601e-08
2.36382e-09
-6.81412e-08
2.09515e-09
-6.13684e-08
1.94587e-09
-5.55288e-08
1.88911e-09
-4.98746e-08
1.80261e-09
-4.42318e-08
1.65824e-09
-3.83703e-08
1.35883e-09
-3.15872e-08
9.76223e-10
-2.22617e-08
4.51346e-10
-1.37337e-08
-6.79935e-09
-8.9836e-11
-6.34861e-09
1.97593e-11
-2.58132e-10
-1.32681e-08
-6.05146e-10
-2.19237e-08
-8.50472e-10
-3.16654e-08
-1.12337e-09
-4.19427e-08
-1.36702e-09
-4.67223e-08
-1.65195e-09
-5.33138e-08
-1.93426e-09
-6.75881e-08
-2.24168e-09
-7.77012e-08
-2.61631e-09
-8.59373e-08
-2.99176e-09
-1.00173e-07
-3.39903e-09
-1.11069e-07
-3.99269e-09
-1.16234e-07
-4.18832e-09
-1.24223e-07
-4.50206e-09
-1.30404e-07
-4.80338e-09
-1.44687e-07
-5.00412e-09
-1.50876e-07
-5.0008e-09
-1.33963e-07
-4.75094e-09
-1.28107e-07
-4.29409e-09
-1.2926e-07
-3.56229e-09
-1.16325e-07
-2.83105e-09
-9.15335e-08
-2.41162e-09
-7.16271e-08
-1.94189e-09
-6.42669e-08
-1.67766e-09
-5.78937e-08
-1.53267e-09
-5.21761e-08
-1.42018e-09
-4.90464e-08
-1.37997e-09
-4.76059e-08
-1.38837e-09
-4.79301e-08
-1.4131e-09
-4.71141e-08
-1.40548e-09
-4.89341e-08
-1.22284e-09
-5.67825e-08
-4.97175e-10
-7.23348e-08
6.47295e-10
-8.81487e-08
1.75615e-09
-9.08282e-08
2.44257e-09
-8.35361e-08
2.7476e-09
-7.60758e-08
2.66131e-09
-6.82349e-08
2.26389e-09
-6.1492e-08
2.03245e-09
-5.55725e-08
1.86228e-09
-4.96719e-08
1.67831e-09
-4.38599e-08
1.4204e-09
-3.78704e-08
1.10931e-09
-3.09408e-08
7.4612e-10
-2.15794e-08
3.4107e-10
-1.30524e-08
-6.17432e-09
-8.92466e-11
-6.28786e-09
1.96049e-11
-2.51146e-10
-1.31242e-08
-5.9307e-10
-2.14723e-08
-8.98649e-10
-3.12495e-08
-1.22416e-09
-4.20512e-08
-1.49297e-09
-4.65744e-08
-1.78826e-09
-5.29485e-08
-2.10252e-09
-6.69635e-08
-2.46417e-09
-7.7045e-08
-3.00802e-09
-8.52994e-08
-3.28689e-09
-9.99064e-08
-3.71726e-09
-1.10357e-07
-4.32549e-09
-1.15553e-07
-4.61783e-09
-1.23029e-07
-4.99132e-09
-1.3034e-07
-5.29653e-09
-1.45156e-07
-5.48132e-09
-1.50241e-07
-5.49428e-09
-1.3382e-07
-5.26075e-09
-1.28317e-07
-4.7915e-09
-1.29903e-07
-3.87719e-09
-1.16929e-07
-3.11674e-09
-9.2238e-08
-2.65983e-09
-7.24694e-08
-2.166e-09
-6.46418e-08
-1.87175e-09
-5.81906e-08
-1.71384e-09
-5.23276e-08
-1.63227e-09
-4.90819e-08
-1.54877e-09
-4.7665e-08
-1.56881e-09
-4.76258e-08
-1.58608e-09
-4.65746e-08
-1.5624e-09
-4.80441e-08
-1.38202e-09
-5.56309e-08
-6.5738e-10
-7.09265e-08
6.38935e-10
-8.68761e-08
1.93378e-09
-9.01332e-08
2.67457e-09
-8.37944e-08
3.01134e-09
-7.5525e-08
2.89765e-09
-6.85175e-08
2.43142e-09
-6.15883e-08
2.10697e-09
-5.54608e-08
1.84776e-09
-4.93712e-08
1.58683e-09
-4.34004e-08
1.35087e-09
-3.73456e-08
1.01657e-09
-3.02488e-08
6.24177e-10
-2.08491e-08
2.44285e-10
-1.23722e-08
-5.6169e-09
-8.27075e-11
-6.21553e-09
1.83988e-11
-2.42387e-10
-1.2926e-08
-5.57922e-10
-2.10668e-08
-8.60593e-10
-3.08129e-08
-1.19114e-09
-4.20564e-08
-1.44848e-09
-4.64018e-08
-1.73651e-09
-5.25716e-08
-2.02973e-09
-6.63529e-08
-2.397e-09
-7.6275e-08
-3.02216e-09
-8.48046e-08
-3.18655e-09
-9.97182e-08
-3.60394e-09
-1.09752e-07
-4.15573e-09
-1.14855e-07
-4.47504e-09
-1.21028e-07
-4.85022e-09
-1.29816e-07
-5.15258e-09
-1.45575e-07
-5.32999e-09
-1.50156e-07
-5.34111e-09
-1.3402e-07
-5.13581e-09
-1.28807e-07
-4.71119e-09
-1.30305e-07
-3.75023e-09
-1.16507e-07
-3.09569e-09
-9.22694e-08
-2.60375e-09
-7.31722e-08
-2.13195e-09
-6.49545e-08
-1.83509e-09
-5.84627e-08
-1.67666e-09
-5.2464e-08
-1.59991e-09
-4.91034e-08
-1.51497e-09
-4.76871e-08
-1.50649e-09
-4.73947e-08
-1.52182e-09
-4.60884e-08
-1.50172e-09
-4.72597e-08
-1.355e-09
-5.45107e-08
-7.22083e-10
-6.93924e-08
5.55759e-10
-8.54872e-08
1.83023e-09
-8.93213e-08
2.61792e-09
-8.405e-08
2.95537e-09
-7.64146e-08
2.7888e-09
-6.87478e-08
2.29805e-09
-6.16795e-08
1.8681e-09
-5.53046e-08
1.55097e-09
-4.90466e-08
1.33026e-09
-4.3043e-08
1.09761e-09
-3.68907e-08
7.87059e-10
-2.96682e-08
4.46402e-10
-2.02029e-08
1.41105e-10
-1.17815e-08
-5.175e-09
-7.5533e-11
-6.15443e-09
1.67979e-11
-2.16924e-10
-1.27216e-08
-5.07551e-10
-2.06696e-08
-8.31419e-10
-3.04393e-08
-1.15955e-09
-4.19426e-08
-1.41672e-09
-4.61437e-08
-1.6945e-09
-5.2122e-08
-1.97773e-09
-6.56723e-08
-2.36549e-09
-7.57235e-08
-2.99585e-09
-8.45429e-08
-3.14952e-09
-9.93317e-08
-3.58054e-09
-1.0889e-07
-4.08044e-09
-1.14153e-07
-4.43916e-09
-1.19877e-07
-4.84864e-09
-1.29249e-07
-5.14164e-09
-1.45767e-07
-5.30908e-09
-1.5024e-07
-5.31317e-09
-1.34258e-07
-5.11583e-09
-1.29259e-07
-4.70562e-09
-1.30128e-07
-3.76999e-09
-1.16171e-07
-3.18056e-09
-9.22951e-08
-2.63195e-09
-7.37577e-08
-2.17464e-09
-6.52496e-08
-1.87107e-09
-5.87147e-08
-1.70663e-09
-5.25957e-08
-1.63383e-09
-4.91246e-08
-1.56128e-09
-4.76561e-08
-1.54323e-09
-4.71889e-08
-1.55688e-09
-4.56357e-08
-1.52502e-09
-4.65602e-08
-1.37359e-09
-5.35177e-08
-7.97331e-10
-6.7853e-08
4.73493e-10
-8.39387e-08
1.71994e-09
-8.87545e-08
2.55396e-09
-8.43391e-08
2.87647e-09
-7.68151e-08
2.67178e-09
-6.99845e-08
2.22679e-09
-6.24364e-08
1.76631e-09
-5.54216e-08
1.41848e-09
-4.88777e-08
1.18156e-09
-4.27243e-08
9.42475e-10
-3.64706e-08
6.4111e-10
-2.91496e-08
3.28855e-10
-1.96185e-08
7.30017e-11
-1.12568e-08
-4.80868e-09
-7.33195e-11
-6.09117e-09
1.65404e-11
-2.13858e-10
-1.25884e-08
-4.96523e-10
-2.03791e-08
-8.55924e-10
-3.00776e-08
-1.19228e-09
-4.17247e-08
-1.4393e-09
-4.58029e-08
-1.71757e-09
-5.15454e-08
-2.033e-09
-6.48551e-08
-2.46506e-09
-7.53455e-08
-3.0396e-09
-8.44185e-08
-3.29202e-09
-9.88254e-08
-3.76242e-09
-1.06642e-07
-4.31429e-09
-1.13402e-07
-4.70787e-09
-1.19333e-07
-5.17459e-09
-1.28709e-07
-5.48855e-09
-1.45625e-07
-5.68934e-09
-1.50313e-07
-5.69477e-09
-1.34443e-07
-5.51303e-09
-1.29628e-07
-5.07435e-09
-1.30784e-07
-4.12549e-09
-1.17551e-07
-3.56104e-09
-9.33432e-08
-2.87276e-09
-7.43071e-08
-2.38919e-09
-6.55728e-08
-2.04694e-09
-5.89546e-08
-1.8684e-09
-5.27284e-08
-1.79341e-09
-4.91415e-08
-1.72835e-09
-4.76093e-08
-1.70862e-09
-4.69882e-08
-1.72466e-09
-4.52098e-08
-1.70622e-09
-4.58537e-08
-1.5737e-09
-5.2438e-08
-1.05974e-09
-6.63514e-08
2.59354e-10
-8.24494e-08
1.64211e-09
-8.84683e-08
2.50248e-09
-8.45473e-08
2.82283e-09
-7.68292e-08
2.62894e-09
-7.07988e-08
2.27079e-09
-6.29004e-08
1.7668e-09
-5.62398e-08
1.36946e-09
-4.87748e-08
1.10112e-09
-4.24562e-08
8.4785e-10
-3.60717e-08
5.45649e-10
-2.86363e-08
2.46969e-10
-1.90606e-08
2.33325e-11
-1.07693e-08
-4.48865e-09
-7.12415e-11
-6.03696e-09
1.61698e-11
-2.04824e-10
-1.24363e-08
-4.82283e-10
-2.00828e-08
-9.00327e-10
-2.97128e-08
-1.24032e-09
-4.14572e-08
-1.45863e-09
-4.54163e-08
-1.74364e-09
-5.08074e-08
-2.07265e-09
-6.39575e-08
-2.5427e-09
-7.49717e-08
-3.11972e-09
-8.42094e-08
-3.36112e-09
-9.82589e-08
-3.88573e-09
-1.05873e-07
-4.41568e-09
-1.12678e-07
-4.83323e-09
-1.18892e-07
-5.30588e-09
-1.28241e-07
-5.64296e-09
-1.45264e-07
-5.83174e-09
-1.50526e-07
-5.81252e-09
-1.34664e-07
-5.63691e-09
-1.30033e-07
-5.17689e-09
-1.31604e-07
-4.25219e-09
-1.1914e-07
-3.73373e-09
-9.44904e-08
-2.96537e-09
-7.47913e-08
-2.47986e-09
-6.58292e-08
-2.1347e-09
-5.90619e-08
-1.93562e-09
-5.28386e-08
-1.85686e-09
-4.91507e-08
-1.79801e-09
-4.7545e-08
-1.77717e-09
-4.6788e-08
-1.77866e-09
-4.48198e-08
-1.74929e-09
-4.52049e-08
-1.60771e-09
-5.14236e-08
-1.0797e-09
-6.50097e-08
2.3088e-10
-8.08867e-08
1.71725e-09
-8.8181e-08
2.57647e-09
-8.45261e-08
2.85333e-09
-7.68859e-08
2.68379e-09
-6.99819e-08
2.37186e-09
-6.34126e-08
1.89895e-09
-5.68756e-08
1.40613e-09
-4.87404e-08
1.07276e-09
-4.22282e-08
7.86406e-10
-3.56944e-08
4.72504e-10
-2.8141e-08
1.83736e-10
-1.85383e-08
-1.19227e-11
-1.03289e-08
-4.21374e-09
-6.97121e-11
-5.98218e-09
1.58004e-11
-2.03023e-10
-1.23383e-08
-4.71979e-10
-1.98052e-08
-9.15171e-10
-2.93526e-08
-1.27895e-09
-4.10985e-08
-1.43798e-09
-4.49608e-08
-1.74098e-09
-4.97334e-08
-2.0821e-09
-6.3408e-08
-2.60193e-09
-7.46042e-08
-3.11599e-09
-8.38116e-08
-3.37614e-09
-9.75795e-08
-3.91754e-09
-1.05455e-07
-4.40483e-09
-1.11902e-07
-4.8548e-09
-1.18471e-07
-5.32413e-09
-1.27851e-07
-5.67192e-09
-1.44182e-07
-5.86499e-09
-1.50479e-07
-5.82764e-09
-1.34902e-07
-5.65476e-09
-1.30503e-07
-5.17464e-09
-1.32455e-07
-4.29056e-09
-1.20807e-07
-3.77593e-09
-9.55093e-08
-2.98659e-09
-7.51192e-08
-2.48419e-09
-6.57239e-08
-2.17238e-09
-5.87261e-08
-1.95807e-09
-5.28223e-08
-1.86548e-09
-4.91434e-08
-1.80836e-09
-4.74666e-08
-1.78922e-09
-4.65962e-08
-1.7839e-09
-4.44398e-08
-1.75051e-09
-4.46016e-08
-1.61512e-09
-5.04694e-08
-1.10798e-09
-6.37599e-08
1.78263e-10
-7.92227e-08
1.76738e-09
-8.77961e-08
2.60723e-09
-8.43292e-08
2.86776e-09
-7.69299e-08
2.71746e-09
-6.99322e-08
2.48469e-09
-6.46795e-08
2.03501e-09
-5.69349e-08
1.4711e-09
-4.881e-08
1.06481e-09
-4.20572e-08
7.41908e-10
-3.53561e-08
4.18185e-10
-2.76873e-08
1.40732e-10
-1.80643e-08
-3.20506e-11
-9.94074e-09
-3.98165e-09
-6.60151e-11
-5.92103e-09
1.50823e-11
-1.8909e-10
-1.22224e-08
-4.4005e-10
-1.95452e-08
-8.96277e-10
-2.89697e-08
-1.24677e-09
-4.05835e-08
-1.41433e-09
-4.4797e-08
-1.69648e-09
-4.95653e-08
-2.03824e-09
-6.30818e-08
-2.59384e-09
-7.43181e-08
-2.98786e-09
-8.3316e-08
-3.29087e-09
-9.67955e-08
-3.81402e-09
-1.05016e-07
-4.27516e-09
-1.1062e-07
-4.72352e-09
-1.18055e-07
-5.15277e-09
-1.2756e-07
-5.49703e-09
-1.42026e-07
-5.66271e-09
-1.50153e-07
-5.61462e-09
-1.35e-07
-5.40962e-09
-1.31002e-07
-4.96031e-09
-1.33275e-07
-4.13789e-09
-1.22614e-07
-3.64909e-09
-9.64797e-08
-2.86606e-09
-7.468e-08
-2.4041e-09
-6.49969e-08
-2.12744e-09
-5.89339e-08
-1.92238e-09
-5.26546e-08
-1.8086e-09
-4.9102e-08
-1.75559e-09
-4.73782e-08
-1.72359e-09
-4.64145e-08
-1.7159e-09
-4.40688e-08
-1.66982e-09
-4.40521e-08
-1.52218e-09
-4.9602e-08
-1.03586e-09
-6.25256e-08
1.83589e-10
-7.77261e-08
1.77505e-09
-8.72402e-08
2.61383e-09
-8.40353e-08
2.84159e-09
-7.6953e-08
2.7426e-09
-6.97159e-08
2.61476e-09
-6.46022e-08
2.17593e-09
-5.75615e-08
1.55691e-09
-4.90912e-08
1.07923e-09
-4.19419e-08
7.16853e-10
-3.50639e-08
3.84659e-10
-2.72795e-08
1.18667e-10
-1.76441e-08
-3.79435e-11
-9.6077e-09
-3.78981e-09
-6.4327e-11
-5.86425e-09
1.47138e-11
-1.86766e-10
-1.20823e-08
-4.20351e-10
-1.93573e-08
-8.96177e-10
-2.85225e-08
-1.24024e-09
-3.99537e-08
-1.42122e-09
-4.45078e-08
-1.70796e-09
-4.98802e-08
-2.04772e-09
-6.33038e-08
-2.61742e-09
-7.41834e-08
-2.98428e-09
-8.27382e-08
-3.29785e-09
-9.54829e-08
-3.81588e-09
-1.04529e-07
-4.28406e-09
-1.10001e-07
-4.75756e-09
-1.17663e-07
-5.16942e-09
-1.27161e-07
-5.54257e-09
-1.41423e-07
-5.70694e-09
-1.49148e-07
-5.65573e-09
-1.34688e-07
-5.41534e-09
-1.31422e-07
-4.98569e-09
-1.34072e-07
-4.24836e-09
-1.24246e-07
-3.61986e-09
-9.74615e-08
-2.88723e-09
-7.54303e-08
-2.46109e-09
-6.55839e-08
-2.15187e-09
-5.92547e-08
-1.9756e-09
-5.27951e-08
-1.82655e-09
-4.90418e-08
-1.77883e-09
-4.72732e-08
-1.74715e-09
-4.61947e-08
-1.7328e-09
-4.3742e-08
-1.69169e-09
-4.35135e-08
-1.5492e-09
-4.87781e-08
-1.10147e-09
-6.12922e-08
1.17304e-10
-7.61901e-08
1.61941e-09
-8.63661e-08
2.62387e-09
-8.38495e-08
2.84147e-09
-7.69358e-08
2.82445e-09
-6.94174e-08
2.727e-09
-6.37479e-08
2.34468e-09
-5.72722e-08
1.70844e-09
-5.0216e-08
1.14838e-09
-4.18922e-08
7.33023e-10
-3.48229e-08
3.80869e-10
-2.691e-08
1.15005e-10
-1.7265e-08
-3.62365e-11
-9.31411e-09
-3.62608e-09
-6.15742e-11
-5.80898e-09
1.41555e-11
-1.75205e-10
-1.19497e-08
-4.00009e-10
-1.90919e-08
-8.33594e-10
-2.80302e-08
-1.2069e-09
-3.93533e-08
-1.4145e-09
-4.41822e-08
-1.70072e-09
-4.96185e-08
-2.04337e-09
-6.33255e-08
-2.58903e-09
-7.4196e-08
-2.91713e-09
-8.2373e-08
-3.26124e-09
-9.48129e-08
-3.74988e-09
-1.03997e-07
-4.23178e-09
-1.09531e-07
-4.71136e-09
-1.17791e-07
-5.09711e-09
-1.26511e-07
-5.46521e-09
-1.41146e-07
-5.60421e-09
-1.48459e-07
-5.55927e-09
-1.34194e-07
-5.29994e-09
-1.31435e-07
-4.86156e-09
-1.34635e-07
-4.11956e-09
-1.25533e-07
-3.51872e-09
-9.82963e-08
-2.84807e-09
-7.64024e-08
-2.46427e-09
-6.62807e-08
-2.14164e-09
-5.95944e-08
-1.951e-09
-5.29733e-08
-1.81675e-09
-4.89942e-08
-1.75766e-09
-4.71567e-08
-1.7322e-09
-4.59526e-08
-1.70186e-09
-4.34195e-08
-1.65092e-09
-4.30298e-08
-1.50252e-09
-4.79947e-08
-1.07132e-09
-6.00842e-08
9.34708e-11
-7.46611e-08
1.56789e-09
-8.53967e-08
2.64435e-09
-8.36347e-08
2.84964e-09
-7.68747e-08
2.91814e-09
-6.92805e-08
2.84898e-09
-6.31875e-08
2.50013e-09
-5.76589e-08
1.90694e-09
-5.05894e-08
1.25738e-09
-4.18972e-08
7.74749e-10
-3.46363e-08
3.95864e-10
-2.65836e-08
1.24639e-10
-1.69274e-08
-2.62131e-11
-9.05787e-09
-3.48814e-09
-5.75691e-11
-5.74732e-09
1.30641e-11
-1.6657e-10
-1.1813e-08
-3.77695e-10
-1.88592e-08
-7.55799e-10
-2.75823e-08
-1.12555e-09
-3.90488e-08
-1.3621e-09
-4.37536e-08
-1.62234e-09
-4.94317e-08
-1.95343e-09
-6.30534e-08
-2.46211e-09
-7.41769e-08
-2.74028e-09
-8.17473e-08
-3.08684e-09
-9.42775e-08
-3.52739e-09
-1.03449e-07
-3.98891e-09
-1.09158e-07
-4.44327e-09
-1.18611e-07
-4.78079e-09
-1.26243e-07
-5.1285e-09
-1.41009e-07
-5.24446e-09
-1.48585e-07
-5.19165e-09
-1.34127e-07
-4.91428e-09
-1.3007e-07
-4.65648e-09
-1.33989e-07
-3.68613e-09
-1.26097e-07
-3.16603e-09
-9.9061e-08
-2.63324e-09
-7.72983e-08
-2.30031e-09
-6.69851e-08
-1.99179e-09
-5.99546e-08
-1.80125e-09
-5.31491e-08
-1.68758e-09
-4.8962e-08
-1.61636e-09
-4.70269e-08
-1.59094e-09
-4.57235e-08
-1.56609e-09
-4.30759e-08
-1.49365e-09
-4.26054e-08
-1.34172e-09
-4.72935e-08
-9.21474e-10
-5.89187e-08
1.48352e-10
-7.3152e-08
1.57887e-09
-8.43779e-08
2.65913e-09
-8.32795e-08
2.87562e-09
-7.6963e-08
2.97108e-09
-7.05488e-08
2.89888e-09
-6.27475e-08
2.66744e-09
-5.81864e-08
2.04664e-09
-5.21817e-08
1.35826e-09
-4.19386e-08
8.20567e-10
-3.44997e-08
4.18405e-10
-2.63079e-08
1.42593e-10
-1.66371e-08
-9.11915e-12
-8.84062e-09
-3.37521e-09
-5.3179e-11
-5.69249e-09
1.22512e-11
-1.52525e-10
-1.17031e-08
-3.4971e-10
-1.8616e-08
-7.15204e-10
-2.73205e-08
-1.05451e-09
-3.85527e-08
-1.32547e-09
-4.33622e-08
-1.56828e-09
-4.92009e-08
-1.88948e-09
-6.27426e-08
-2.33627e-09
-7.37515e-08
-2.61553e-09
-8.11597e-08
-2.96723e-09
-9.37646e-08
-3.37938e-09
-1.02688e-07
-3.86593e-09
-1.09002e-07
-4.27108e-09
-1.18202e-07
-4.58112e-09
-1.25991e-07
-4.9396e-09
-1.40967e-07
-5.01528e-09
-1.48714e-07
-4.95097e-09
-1.33676e-07
-4.66675e-09
-1.29656e-07
-4.46494e-09
-1.34342e-07
-3.47121e-09
-1.26066e-07
-2.94833e-09
-9.98247e-08
-2.49852e-09
-7.80387e-08
-2.19591e-09
-6.76513e-08
-1.90568e-09
-6.03133e-08
-1.70983e-09
-5.33239e-08
-1.62096e-09
-4.89389e-08
-1.53666e-09
-4.68962e-08
-1.50803e-09
-4.55136e-08
-1.48491e-09
-4.27355e-08
-1.41585e-09
-4.21441e-08
-1.24435e-09
-4.66459e-08
-8.28317e-10
-5.78222e-08
1.66058e-10
-7.16866e-08
1.52463e-09
-8.32345e-08
2.61777e-09
-8.31257e-08
2.90576e-09
-7.83099e-08
3.01884e-09
-7.07686e-08
2.92159e-09
-6.24881e-08
2.75615e-09
-5.74797e-08
2.28131e-09
-5.1411e-08
1.47412e-09
-4.20281e-08
8.87378e-10
-3.44094e-08
4.56252e-10
-2.60823e-08
1.68522e-10
-1.63902e-08
9.69371e-12
-8.65383e-09
-3.27976e-09
-5.01857e-11
-5.63736e-09
1.13796e-11
-1.45424e-10
-1.15752e-08
-3.30974e-10
-1.8405e-08
-6.57272e-10
-2.69188e-08
-9.95278e-10
-3.79311e-08
-1.28403e-09
-4.29984e-08
-1.52772e-09
-4.89359e-08
-1.8439e-09
-6.23961e-08
-2.23971e-09
-7.33309e-08
-2.54213e-09
-8.0694e-08
-2.90141e-09
-9.32694e-08
-3.31623e-09
-1.02276e-07
-3.79417e-09
-1.09952e-07
-4.1718e-09
-1.17651e-07
-4.48617e-09
-1.25642e-07
-4.84435e-09
-1.40685e-07
-4.93135e-09
-1.48849e-07
-4.87011e-09
-1.33471e-07
-4.60518e-09
-1.30344e-07
-4.17008e-09
-1.34925e-07
-3.39973e-09
-1.24255e-07
-2.84375e-09
-1.004e-07
-2.44571e-09
-7.86646e-08
-2.15584e-09
-6.83072e-08
-1.87047e-09
-6.06839e-08
-1.67565e-09
-5.34986e-08
-1.59683e-09
-4.89234e-08
-1.51477e-09
-4.67828e-08
-1.48199e-09
-4.53115e-08
-1.46135e-09
-4.24101e-08
-1.40939e-09
-4.16796e-08
-1.24879e-09
-4.60048e-08
-8.50747e-10
-5.67687e-08
1.19748e-10
-7.02832e-08
1.39196e-09
-8.19682e-08
2.52607e-09
-8.43775e-08
2.93759e-09
-7.91764e-08
3.04031e-09
-7.02382e-08
2.92944e-09
-6.25518e-08
2.7441e-09
-5.70648e-08
2.41759e-09
-5.07186e-08
1.60307e-09
-4.21724e-08
9.73767e-10
-3.43666e-08
5.0876e-10
-2.59095e-08
2.0264e-10
-1.61867e-08
3.18915e-11
-8.49432e-09
-3.19764e-09
-4.86708e-11
-5.58628e-09
1.12631e-11
-1.38918e-10
-1.14483e-08
-3.16184e-10
-1.81598e-08
-6.30454e-10
-2.63988e-08
-9.8035e-10
-3.73615e-08
-1.29322e-09
-4.25684e-08
-1.55501e-09
-4.87001e-08
-1.88124e-09
-6.19438e-08
-2.29321e-09
-7.22383e-08
-2.61868e-09
-8.0266e-08
-3.00512e-09
-9.27261e-08
-3.45565e-09
-1.01879e-07
-3.95528e-09
-1.09799e-07
-4.34921e-09
-1.17052e-07
-4.69788e-09
-1.24981e-07
-5.06217e-09
-1.40212e-07
-5.21961e-09
-1.48492e-07
-5.15838e-09
-1.33431e-07
-4.93277e-09
-1.31359e-07
-4.37661e-09
-1.35514e-07
-3.62863e-09
-1.24501e-07
-2.98149e-09
-1.00003e-07
-2.61528e-09
-7.9041e-08
-2.29385e-09
-6.8918e-08
-1.98622e-09
-6.10493e-08
-1.78532e-09
-5.36747e-08
-1.70943e-09
-4.89075e-08
-1.63825e-09
-4.66903e-08
-1.59765e-09
-4.51031e-08
-1.57833e-09
-4.20966e-08
-1.53575e-09
-4.1219e-08
-1.39546e-09
-4.53353e-08
-1.02576e-09
-5.57064e-08
-6.01998e-11
-6.89133e-08
1.20497e-09
-8.05862e-08
2.446e-09
-8.38765e-08
2.99754e-09
-7.86641e-08
3.13446e-09
-6.99824e-08
3.03059e-09
-6.48917e-08
2.86421e-09
-5.83836e-08
2.56818e-09
-5.0287e-08
1.81174e-09
-4.24624e-08
1.12423e-09
-3.438e-08
6.00724e-10
-2.57891e-08
2.56758e-10
-1.60205e-08
6.02995e-11
-8.35713e-09
-3.12595e-09
-4.81357e-11
-5.53081e-09
1.10117e-11
-1.38058e-10
-1.13297e-08
-3.12548e-10
-1.7939e-08
-6.16984e-10
-2.59731e-08
-9.90213e-10
-3.68258e-08
-1.34687e-09
-4.19813e-08
-1.60906e-09
-4.84602e-08
-1.94622e-09
-6.10477e-08
-2.41534e-09
-7.16184e-08
-2.73696e-09
-7.9817e-08
-3.16001e-09
-9.20016e-08
-3.64971e-09
-1.01634e-07
-4.17117e-09
-1.09222e-07
-4.57806e-09
-1.16227e-07
-4.96592e-09
-1.23256e-07
-5.34582e-09
-1.39699e-07
-5.57512e-09
-1.47655e-07
-5.5322e-09
-1.33533e-07
-5.32184e-09
-1.31968e-07
-4.69019e-09
-1.35957e-07
-3.90322e-09
-1.25706e-07
-3.16957e-09
-1.00634e-07
-2.81967e-09
-7.88236e-08
-2.44842e-09
-6.94307e-08
-2.12244e-09
-6.13696e-08
-1.90991e-09
-5.38404e-08
-1.83921e-09
-4.8897e-08
-1.77512e-09
-4.65995e-08
-1.73156e-09
-4.48892e-08
-1.7116e-09
-4.17835e-08
-1.67929e-09
-4.07555e-08
-1.5644e-09
-4.46313e-08
-1.21906e-09
-5.4614e-08
-2.97819e-10
-6.75716e-08
1.06861e-09
-7.90451e-08
2.43147e-09
-8.30412e-08
3.13336e-09
-7.81621e-08
3.30842e-09
-7.11937e-08
3.21019e-09
-6.39952e-08
3.09572e-09
-5.75964e-08
2.80246e-09
-4.99917e-08
2.11597e-09
-4.33439e-08
1.33873e-09
-3.44698e-08
7.33883e-10
-2.57187e-08
3.34505e-10
-1.58839e-08
9.98934e-11
-8.24173e-09
-3.06718e-09
-4.69851e-11
-5.48162e-09
1.08874e-11
-1.32888e-10
-1.12096e-08
-3.01352e-10
-1.76976e-08
-5.79893e-10
-2.564e-08
-9.93283e-10
-3.61446e-08
-1.46734e-09
-4.1184e-08
-1.63861e-09
-4.81169e-08
-1.99149e-09
-5.99827e-08
-2.53847e-09
-7.11818e-08
-2.81865e-09
-7.92756e-08
-3.26425e-09
-9.04141e-08
-3.78579e-09
-1.01764e-07
-4.31875e-09
-1.08332e-07
-4.72794e-09
-1.14067e-07
-5.14861e-09
-1.22589e-07
-5.54557e-09
-1.39183e-07
-5.81965e-09
-1.46812e-07
-5.78989e-09
-1.33599e-07
-5.5149e-09
-1.32221e-07
-4.90842e-09
-1.35651e-07
-4.10414e-09
-1.26929e-07
-3.30576e-09
-1.01924e-07
-2.95345e-09
-7.94359e-08
-2.53243e-09
-6.97559e-08
-2.20242e-09
-6.15961e-08
-1.99347e-09
-5.3972e-08
-1.9155e-09
-4.88896e-08
-1.85967e-09
-4.65e-08
-1.82379e-09
-4.4687e-08
-1.79467e-09
-4.14744e-08
-1.76133e-09
-4.03109e-08
-1.66039e-09
-4.39397e-08
-1.34253e-09
-5.35058e-08
-4.65089e-10
-6.60938e-08
9.55816e-10
-7.73725e-08
2.46313e-09
-8.20981e-08
3.25683e-09
-7.74079e-08
3.49079e-09
-7.10731e-08
3.38902e-09
-6.33101e-08
3.31114e-09
-5.69026e-08
3.01794e-09
-4.98144e-08
2.58807e-09
-4.3104e-08
1.5885e-09
-3.46269e-08
8.93926e-10
-2.57036e-08
4.30803e-10
-1.5786e-08
1.50335e-10
-8.15249e-09
-3.02426e-09
-4.43077e-11
-5.43257e-09
1.01561e-11
-1.2552e-10
-1.10959e-08
-2.81734e-10
-1.74627e-08
-5.51842e-10
-2.516e-08
-9.52202e-10
-3.50623e-08
-1.44796e-09
-4.03471e-08
-1.62729e-09
-4.74957e-08
-1.99288e-09
-5.96146e-08
-2.56037e-09
-7.07812e-08
-2.80931e-09
-7.86296e-08
-3.26606e-09
-8.98073e-08
-3.83496e-09
-1.01277e-07
-4.25041e-09
-1.0614e-07
-4.70973e-09
-1.12823e-07
-5.14963e-09
-1.22119e-07
-5.55215e-09
-1.38701e-07
-5.85144e-09
-1.46325e-07
-5.85223e-09
-1.33593e-07
-5.57883e-09
-1.32102e-07
-4.94797e-09
-1.3598e-07
-4.16651e-09
-1.27999e-07
-3.33057e-09
-1.03147e-07
-2.88989e-09
-8.00779e-08
-2.50399e-09
-6.97449e-08
-2.18887e-09
-6.17513e-08
-1.9869e-09
-5.40728e-08
-1.9086e-09
-4.8877e-08
-1.86369e-09
-4.64126e-08
-1.8296e-09
-4.44917e-08
-1.80636e-09
-4.11699e-08
-1.7717e-09
-3.98796e-08
-1.68441e-09
-4.32795e-08
-1.3945e-09
-5.24233e-08
-5.70426e-10
-6.46088e-08
8.39393e-10
-7.56376e-08
2.49939e-09
-8.10412e-08
3.32021e-09
-7.64738e-08
3.59876e-09
-7.02953e-08
3.51898e-09
-6.29768e-08
3.41974e-09
-5.64986e-08
3.15337e-09
-5.01439e-08
2.79656e-09
-4.29184e-08
1.81991e-09
-3.47914e-08
1.05729e-09
-2.57433e-08
5.344e-10
-1.57321e-08
2.06379e-10
-8.09318e-09
-2.99872e-09
-4.15212e-11
-5.38882e-09
9.54466e-12
-1.16382e-10
-1.09956e-08
-2.59174e-10
-1.72529e-08
-5.04017e-10
-2.47695e-08
-8.97602e-10
-3.44073e-08
-1.32974e-09
-4.00073e-08
-1.5933e-09
-4.68058e-08
-2.00153e-09
-5.93556e-08
-2.48553e-09
-7.04468e-08
-2.77508e-09
-7.80441e-08
-3.29411e-09
-8.94537e-08
-3.76052e-09
-1.00719e-07
-4.20642e-09
-1.05205e-07
-4.6791e-09
-1.12297e-07
-5.13699e-09
-1.21632e-07
-5.54691e-09
-1.3818e-07
-5.88285e-09
-1.45944e-07
-5.88069e-09
-1.33411e-07
-5.65046e-09
-1.31099e-07
-5.00562e-09
-1.36545e-07
-4.28278e-09
-1.28737e-07
-3.38464e-09
-1.03838e-07
-2.85278e-09
-8.06056e-08
-2.48903e-09
-6.99601e-08
-2.18473e-09
-6.19042e-08
-1.98995e-09
-5.41397e-08
-1.90593e-09
-4.88623e-08
-1.87656e-09
-4.63194e-08
-1.84712e-09
-4.43085e-08
-1.82821e-09
-4.08819e-08
-1.79306e-09
-3.94737e-08
-1.7175e-09
-4.26667e-08
-1.46387e-09
-5.14101e-08
-7.37279e-10
-6.31168e-08
6.5426e-10
-7.39096e-08
2.45776e-09
-7.98561e-08
3.2637e-09
-7.68532e-08
3.59522e-09
-6.99024e-08
3.5646e-09
-6.39971e-08
3.44095e-09
-5.65435e-08
3.32068e-09
-5.1679e-08
2.86735e-09
-4.2864e-08
2.0299e-09
-3.49634e-08
1.22667e-09
-2.58366e-08
6.47152e-10
-1.57267e-08
2.67751e-10
-8.06629e-09
-2.99053e-09
-3.91574e-11
-5.36122e-09
9.06139e-12
-1.08562e-10
-1.0915e-08
-2.4013e-10
-1.70563e-08
-4.70791e-10
-2.43056e-08
-8.45309e-10
-3.39524e-08
-1.24211e-09
-3.96294e-08
-1.56298e-09
-4.6231e-08
-2.00861e-09
-5.91643e-08
-2.42219e-09
-7.00091e-08
-2.73529e-09
-7.75083e-08
-3.30222e-09
-8.89788e-08
-3.72224e-09
-1.00102e-07
-4.15722e-09
-1.04761e-07
-4.64089e-09
-1.11781e-07
-5.11024e-09
-1.21189e-07
-5.52236e-09
-1.37494e-07
-5.88867e-09
-1.45442e-07
-5.88263e-09
-1.32899e-07
-5.73438e-09
-1.31115e-07
-5.06119e-09
-1.37302e-07
-4.29261e-09
-1.29191e-07
-3.43856e-09
-1.04207e-07
-2.82745e-09
-8.12691e-08
-2.46708e-09
-7.05024e-08
-2.1619e-09
-6.20868e-08
-1.97663e-09
-5.4189e-08
-1.896e-09
-4.88327e-08
-1.87513e-09
-4.62178e-08
-1.85412e-09
-4.41346e-08
-1.84005e-09
-4.05956e-08
-1.81696e-09
-3.90816e-08
-1.75419e-09
-4.20733e-08
-1.53732e-09
-5.04409e-08
-8.98113e-10
-6.16493e-08
4.73605e-10
-7.21306e-08
2.18411e-09
-7.67766e-08
3.2282e-09
-7.68377e-08
3.57362e-09
-6.9726e-08
3.61607e-09
-6.45958e-08
3.46442e-09
-5.79483e-08
3.48202e-09
-5.08579e-08
2.95938e-09
-4.29012e-08
2.23523e-09
-3.51775e-08
1.40787e-09
-2.598e-08
7.71922e-10
-1.57684e-08
3.3539e-10
-8.07079e-09
-2.99928e-09
-3.63209e-11
-5.33625e-09
8.48645e-12
-9.93599e-11
-1.08469e-08
-2.17165e-10
-1.69167e-08
-4.29832e-10
-2.40134e-08
-7.84401e-10
-3.35153e-08
-1.17115e-09
-3.92362e-08
-1.50313e-09
-4.54059e-08
-1.95983e-09
-5.87911e-08
-2.31867e-09
-6.95463e-08
-2.63568e-09
-7.70026e-08
-3.19375e-09
-8.84998e-08
-3.58015e-09
-9.94671e-08
-4.01184e-09
-1.0431e-07
-4.47761e-09
-1.11213e-07
-4.93753e-09
-1.20832e-07
-5.33548e-09
-1.36816e-07
-5.70148e-09
-1.4488e-07
-5.69239e-09
-1.3185e-07
-5.54122e-09
-1.31404e-07
-4.9348e-09
-1.37949e-07
-4.18043e-09
-1.29194e-07
-3.36495e-09
-1.04375e-07
-2.71561e-09
-8.17957e-08
-2.34171e-09
-7.09119e-08
-2.06207e-09
-6.2264e-08
-1.88793e-09
-5.42384e-08
-1.80579e-09
-4.87873e-08
-1.79876e-09
-4.61075e-08
-1.78538e-09
-4.39654e-08
-1.77736e-09
-4.0322e-08
-1.75528e-09
-3.87211e-08
-1.69589e-09
-4.15272e-08
-1.50329e-09
-4.95491e-08
-9.41488e-10
-6.02648e-08
3.55909e-10
-7.03588e-08
1.90372e-09
-7.60137e-08
3.24512e-09
-7.6102e-08
3.51051e-09
-7.07418e-08
3.59492e-09
-6.38194e-08
3.45234e-09
-5.73139e-08
3.41752e-09
-5.03731e-08
3.01919e-09
-4.29686e-08
2.38517e-09
-3.53862e-08
1.56286e-09
-2.61634e-08
8.85767e-10
-1.58529e-08
3.98799e-10
-8.10417e-09
-3.02324e-09
-3.43269e-11
-5.3065e-09
8.01322e-12
-9.36321e-11
-1.0783e-08
-2.02688e-10
-1.67853e-08
-3.98658e-10
-2.37441e-08
-7.74526e-10
-3.28401e-08
-1.1208e-09
-3.87314e-08
-1.45779e-09
-4.45767e-08
-1.94273e-09
-5.84648e-08
-2.23863e-09
-6.90983e-08
-2.55886e-09
-7.64433e-08
-3.07553e-09
-8.81706e-08
-3.47475e-09
-9.87666e-08
-3.90238e-09
-1.03777e-07
-4.34129e-09
-1.10693e-07
-4.78841e-09
-1.20374e-07
-5.18249e-09
-1.36502e-07
-5.53058e-09
-1.44202e-07
-5.54193e-09
-1.31441e-07
-5.45727e-09
-1.31757e-07
-4.81894e-09
-1.38347e-07
-4.07997e-09
-1.29571e-07
-3.2829e-09
-1.04839e-07
-2.60443e-09
-8.16562e-08
-2.21438e-09
-7.08296e-08
-1.95785e-09
-6.24274e-08
-1.79365e-09
-5.4283e-08
-1.71358e-09
-4.87173e-08
-1.71321e-09
-4.59905e-08
-1.71033e-09
-4.38024e-08
-1.70931e-09
-4.00649e-08
-1.6938e-09
-3.83761e-08
-1.63925e-09
-4.10047e-08
-1.46113e-09
-4.86997e-08
-9.37352e-10
-5.89395e-08
2.74816e-10
-6.85621e-08
1.81999e-09
-7.59225e-08
3.13622e-09
-7.53436e-08
3.53005e-09
-7.01714e-08
3.61749e-09
-6.33896e-08
3.47382e-09
-5.70581e-08
3.39491e-09
-5.01197e-08
3.11078e-09
-4.30361e-08
2.5362e-09
-3.5574e-08
1.7252e-09
-2.63831e-08
1.00728e-09
-1.59754e-08
4.66027e-10
-8.16418e-09
-3.0612e-09
-3.32347e-11
-5.27646e-09
7.77228e-12
-9.02101e-11
-1.07225e-08
-1.93482e-10
-1.6681e-08
-3.74576e-10
-2.35575e-08
-7.43784e-10
-3.24926e-08
-1.07174e-09
-3.80769e-08
-1.4219e-09
-4.42309e-08
-1.91709e-09
-5.83068e-08
-2.18296e-09
-6.85656e-08
-2.51212e-09
-7.51837e-08
-2.99819e-09
-8.79131e-08
-3.42346e-09
-9.82322e-08
-3.84677e-09
-1.03232e-07
-4.29207e-09
-1.10159e-07
-4.74096e-09
-1.19935e-07
-5.14571e-09
-1.36029e-07
-5.4986e-09
-1.4329e-07
-5.547e-09
-1.31404e-07
-5.4776e-09
-1.32229e-07
-4.85387e-09
-1.37649e-07
-4.13171e-09
-1.30231e-07
-3.31841e-09
-1.05497e-07
-2.60444e-09
-8.20646e-08
-2.18763e-09
-7.07765e-08
-1.93554e-09
-6.25515e-08
-1.77043e-09
-5.43179e-08
-1.68788e-09
-4.86213e-08
-1.69083e-09
-4.58476e-08
-1.69455e-09
-4.36422e-08
-1.69892e-09
-3.98323e-08
-1.69463e-09
-3.80465e-08
-1.64721e-09
-4.05171e-08
-1.48946e-09
-4.78932e-08
-1.01382e-09
-5.76747e-08
1.32978e-10
-6.68648e-08
1.65241e-09
-7.44655e-08
2.96087e-09
-7.45461e-08
3.4917e-09
-6.97317e-08
3.60597e-09
-6.31731e-08
3.49518e-09
-5.81643e-08
3.3772e-09
-5.00044e-08
3.23528e-09
-4.30892e-08
2.71779e-09
-3.57473e-08
1.90281e-09
-2.66506e-08
1.14574e-09
-1.61409e-08
5.43362e-10
-8.25433e-09
-3.11481e-09
-3.29054e-11
-5.24732e-09
7.72847e-12
-8.83847e-11
-1.06618e-08
-1.87836e-10
-1.66086e-08
-3.56714e-10
-2.35196e-08
-6.52242e-10
-3.22272e-08
-9.99867e-10
-3.72562e-08
-1.37479e-09
-4.39119e-08
-1.8603e-09
-5.80866e-08
-2.0954e-09
-6.79642e-08
-2.44912e-09
-7.39808e-08
-2.92362e-09
-8.75956e-08