/*--------------------------------*- C++ -*----------------------------------*\
| =========                 |                                                 |
| \\      /  F ield         | OpenFOAM: The Open Source CFD Toolbox           |
|  \\    /   O peration     | Version:  2212                                  |
|   \\  /    A nd           | Website:  www.openfoam.com                      |
|    \\/     M anipulation  |                                                 |
\*---------------------------------------------------------------------------*/
FoamFile
{
    version     2.0;
    format      ascii;
    arch        "LSB;label=32;scalar=64";
    class       volScalarField;
    location    "0.0495";
    object      p;
}
// * * * * * * * * * * * * * * * * * * * * * * * * * * * * * * * * * * * * * //

dimensions      [1 -1 -2 0 0 0 0];

internalField   nonuniform List<scalar> 
2308
(
623.605
588.055
621.627
599.628
613.233
609.423
613.253
614.667
614.52
611.26
610.726
610.167
610.037
610.206
610.566
610.973
611.331
611.805
611.504
611.095
610.617
610.158
609.867
609.846
610.102
610.499
611.132
611.776
613.287
611.581
612.157
612.356
612.423
612.411
612.305
612.005
611.366
610.273
608.764
607.06
605.462
604.156
603.25
602.804
602.665
604.73
604.776
605.104
605.816
606.88
608.201
609.54
610.628
611.352
611.764
612.027
612.288
612.599
612.881
612.986
612.832
612.603
612.179
611.558
610.925
610.414
610.159
610.165
610.39
610.697
610.968
602.655
604.812
611.535
611.097
610.587
610.084
609.706
609.529
609.574
609.802
610.226
610.746
611.258
611.714
612.09
612.339
612.352
611.983
611.116
609.688
607.833
605.852
604.046
602.576
601.541
600.983
600.689
612.003
600.456
611.744
611.14
606.867
606.782
606.758
606.926
607.383
608.148
609.122
610.052
610.728
611.12
611.348
611.618
612.076
612.7
613.344
613.771
613.883
613.686
613.136
612.309
611.411
610.647
610.182
610.007
610.076
610.248
610.416
615.361
607.294
609.445
608.546
611.752
611.385
610.929
610.443
609.957
609.54
609.257
609.13
609.16
609.373
609.762
610.294
610.898
611.492
611.944
612.073
611.675
610.646
608.997
606.931
604.761
602.829
601.29
600.183
599.483
598.906
598.289
597.638
600.234
602.661
604.888
614.837
606.859
616.055
616.315
611.253
617.061
613.702
612.199
610.491
596.97
599.916
602.528
604.761
606.599
608.192
608.586
608.737
608.692
608.616
608.597
608.763
609.175
609.755
610.285
610.614
610.758
610.875
611.204
611.874
612.801
613.771
614.491
614.809
614.661
614.018
613.006
611.848
610.836
610.116
609.721
609.601
609.635
609.691
612.402
623.415
611.933
614.507
613.619
612.895
612.332
611.885
611.517
611.196
610.871
610.509
610.123
609.721
609.332
608.999
608.743
608.587
608.586
608.798
609.239
609.865
610.568
611.152
611.383
611.012
609.957
608.275
606.206
604.044
602.197
600.682
599.477
598.455
597.421
596.221
594.968
593.835
613.384
616.835
616.681
599.429
623.411
617.084
610.495
612.556
609.553
610.076
610.349
610.358
610.192
610.004
609.899
609.951
610.151
610.335
610.413
610.401
610.481
610.902
611.762
612.943
614.177
615.129
615.593
615.466
614.738
613.545
612.159
610.908
609.941
609.33
609.029
608.906
608.762
609.605
616.997
616.108
614.203
613.078
612.21
611.55
611.041
610.645
610.339
610.082
609.843
609.599
609.331
609.032
608.709
608.376
608.072
607.872
607.871
608.129
608.644
609.31
609.928
610.242
609.996
609.099
607.606
605.746
603.863
602.064
600.601
599.26
597.846
596.171
594.277
592.349
590.741
589.627
592.875
596.239
599.387
602.133
604.358
606.145
607.581
608.684
620.76
624.771
610.187
617.982
622.602
611.684
608.536
609.493
618.146
618.709
622.044
612.596
613.452
612.222
611.221
610.457
609.888
609.473
609.195
609.022
608.918
608.837
608.735
608.575
608.327
607.981
607.582
607.214
606.996
607.029
607.337
607.839
608.378
608.727
608.674
608.093
607.003
605.574
604.03
602.568
601.09
599.524
597.628
595.272
592.609
590.044
588.122
587.058
586.988
589.136
592.208
595.495
598.681
601.463
603.738
605.491
606.738
607.569
608.004
609.471
610.66
611.337
611.682
611.732
611.518
611.158
610.796
610.552
610.441
610.363
610.275
610.188
610.289
610.793
611.789
613.144
614.556
615.656
616.197
616.053
615.227
613.875
612.322
610.824
609.64
608.84
608.364
608.064
607.767
616.923
608.24
609.318
612.794
619.27
619.9
619.191
618.294
616.937
614.916
614.317
612.645
611.198
610.019
609.109
608.46
608.023
607.776
607.689
607.724
607.809
607.895
607.915
607.806
607.524
607.095
606.607
606.194
605.985
606.028
606.282
606.646
606.992
607.151
606.97
606.434
605.613
604.584
603.413
602.001
600.196
597.819
594.95
591.823
588.892
586.922
586.03
586.418
587.178
587.436
589.162
591.721
594.784
597.859
600.663
603.004
604.77
605.923
606.512
606.591
606.019
607.99
609.914
611.486
612.379
612.799
612.88
612.624
612.14
611.604
611.139
610.799
610.546
610.361
610.247
610.368
610.917
611.979
613.415
614.902
616.055
616.592
616.376
615.437
613.963
612.236
610.566
609.216
608.26
607.637
607.199
606.759
607.377
618.278
616.787
611.182
606.91
617.943
619.421
620.415
609.126
613.81
612.881
607.925
620.375
621.11
591.306
589.56
589.815
591.671
594.314
597.157
599.923
602.358
604.208
605.332
605.804
605.651
604.671
602.517
604.434
607.232
609.878
611.978
613.238
613.823
613.964
613.708
613.153
612.492
611.868
611.376
611.02
610.775
610.642
610.754
611.294
612.343
613.762
615.221
616.322
616.77
616.448
615.407
613.783
611.915
610.139
608.677
607.606
606.869
606.318
605.746
606.197
611.127
619.559
595.239
621.055
611.924
610.098
608.667
607.58
606.818
606.331
606.081
606.057
606.198
606.433
606.731
607.005
607.102
606.967
606.6
606.068
605.517
605.086
604.844
604.806
604.944
605.232
605.572
605.806
605.851
605.719
605.275
604.447
603.157
601.226
598.488
595.184
591.739
588.686
586.92
586.428
587.633
588.084
595.192
616.644
618.358
615.181
607.654
621.518
606.472
598.855
601.411
605.272
609.046
612.114
613.977
614.886
615.151
614.92
614.365
613.614
612.856
612.258
611.823
611.526
611.362
611.436
611.918
612.879
614.189
615.523
616.484
616.764
616.285
615.103
613.379
611.436
609.584
608.043
606.882
606.051
605.401
604.727
605.026
609.671
620.71
585.309
586.371
587.618
589.196
591.311
593.813
596.598
599.41
601.926
603.857
605.035
605.502
605.291
604.231
601.886
598.057
610.064
622.272
621.634
620.59
619.032
611.471
608.037
618.273
597.944
610.959
608.863
607.185
605.896
604.958
604.37
604.109
604.125
604.36
604.753
605.276
605.804
606.161
606.26
606.068
605.607
605.005
604.417
603.915
603.595
603.5
603.696
604.154
604.741
605.351
605.854
605.937
605.519
604.409
602.47
599.631
596.188
592.705
589.711
588.39
588.011
590.673
589.574
599.657
584.713
617.406
605.576
607.808
616.544
619.822
618.467
610.606
615.811
613.257
610.381
606.06
603.831
612.041
623.971
593.192
619.226
592.393
593.478
596.708
601.993
607.417
612.06
614.771
616.078
616.537
616.419
615.843
615.001
614.13
613.414
612.916
612.565
612.361
612.368
612.743
613.558
614.685
615.822
616.593
616.663
615.993
614.684
612.883
610.875
608.956
607.34
606.093
605.169
604.435
603.705
602.792
608.507
624.404
624.428
619.84
615.266
608.692
602.462
599.165
598.285
599.128
600.691
602.242
603.506
604.481
605.217
605.575
605.431
604.433
602.293
599.193
595.542
613.898
623.368
622.838
621.887
620.463
618.595
622.394
622.581
611.97
609.582
607.4
605.54
604.055
602.955
602.26
601.933
601.971
602.287
602.812
603.557
604.365
605.019
605.406
605.445
605.182
604.664
604.002
603.357
602.826
602.545
602.647
603.158
604.003
605.053
606.062
606.555
606.451
605.562
603.76
601.107
597.86
594.618
591.963
590.895
590.846
593.138
592.281
601.812
585.256
620.036
608.697
604.243
623.761
611.084
613.835
616.491
604.977
621.074
618.643
620.112
618.804
612.154
623.606
610.08
600.645
607.162
615.217
617.386
601.734
602.616
603.391
604.217
605.25
606.606
608.32
610.326
612.407
614.279
615.729
616.586
616.671
616.129
615.234
614.338
613.707
613.461
613.542
613.797
614.207
614.808
615.638
616.649
617.584
618.113
618.109
617.468
615.853
612.34
606.481
599.371
591.939
588.295
587.39
593.313
619.671
569.313
569.528
570.616
572.267
575.431
579.136
582.193
584.802
587.498
590.533
594.091
598.075
601.275
603.367
604.436
604.021
602.19
598.183
592.705
585.516
606.901
602.854
608.338
613.521
613.376
613.214
613.238
613.241
615.208
617.383
619.577
596.073
621.72
607.915
611.09
612.089
610.304
613.438
616.473
604.488
607.204
616.036
624.346
623.995
623.224
622.031
620.498
616.951
619.359
613.411
610.926
608.414
606.057
603.969
602.253
600.951
600.069
599.652
599.671
600.032
600.683
601.627
602.711
603.693
604.425
604.798
604.793
604.446
603.883
603.194
602.56
602.156
602.179
602.705
603.719
605.065
606.412
607.171
607.269
606.595
605.043
602.753
599.984
597.167
594.788
593.574
593.475
594.618
594.521
601.743
586.663
618.833
568.911
612.135
608.234
604.388
625.349
603.859
603.486
623.202
600.251
623.184
620.497
621.517
618.921
608.788
612.992
609.502
619.629
612.548
621.526
619.663
624.038
602.723
607.223
617.416
615.24
613.288
600.531
601.421
602.255
603.189
604.363
605.873
607.739
609.872
612.058
614.028
615.637
616.591
616.808
616.484
615.831
615.151
614.708
614.601
614.779
615.12
615.58
616.292
617.269
618.439
619.455
619.903
619.78
619.024
617.29
613.394
606.89
598.778
590.153
586.375
582.514
594.022
579.041
622.084
623.418
624.455
625.05
625.24
625.128
623.807
605.458
601.365
607.226
605.141
621.66
622.021
615.887
616.389
611.799
623.795
622.776
615.822
605.148
611.208
619.142
616.037
624.963
654.512
654.566
653.227
650.282
645.647
639.203
631.456
628.134
627.231
627.127
625.71
623.874
621.993
619.886
617.854
616.882
615.946
616.625
617.917
619.655
621.098
623.417
611.366
611.509
611.518
611.591
611.65
611.732
619.698
601.964
605.708
600.889
596.873
592.277
622.556
624.127
622.054
622.555
618.123
619.353
625.624
602.856
611.241
611.116
621.069
616.739
614.708
612.37
609.832
607.244
604.734
602.446
600.492
598.961
597.893
597.348
597.32
597.719
598.442
599.573
600.911
602.226
603.34
604.118
604.498
604.438
604.07
603.479
602.839
602.375
602.329
602.817
603.893
605.403
606.938
607.826
607.997
607.477
606.23
604.428
602.282
599.944
597.708
595.863
595.075
594.882
594.867
599.317
586.822
616.583
569.742
653
608.687
624.984
611.044
606.112
621.953
616.209
615.932
589.49
613.831
622.237
603.416
614.014
621.751
623.238
624.545
625.49
625.993
626.113
625.88
625.543
624.955
625.288
590.788
597.305
593.751
617.851
596.992
598.201
599.258
600.151
601.048
602.114
603.467
605.181
607.256
609.574
611.909
614.049
615.745
616.768
617.064
616.874
616.441
615.946
615.644
615.683
615.949
616.372
616.928
617.761
618.926
620.237
621.318
621.647
621.402
620.606
618.985
615.43
609.567
601.26
592.407
588.342
588.113
597.735
578.678
629.562
617.451
615.309
613.416
611.893
621.176
610.835
597.903
601.77
606.316
622.854
615.682
619.708
611.507
620.151
597.012
600.388
604.34
601.787
594.129
590.631
623.561
624.311
624.669
623.226
610.905
626.563
606.288
627.519
627.374
619.356
619.571
627.445
602.454
602.613
591.578
594.167
624.927
624.423
624.368
619.056
620.723
609.551
609.731
609.962
610.159
610.289
610.409
610.534
610.669
610.876
603.284
601.151
621.748
622.809
624.136
624.387
588.982
616.189
613.963
611.549
608.953
606.267
603.597
601.083
598.892
597.123
595.853
595.153
595.051
595.45
596.236
597.502
599.087
600.713
602.21
603.408
604.249
604.593
604.552
604.168
603.6
603.153
603.066
603.497
604.547
606.078
607.652
608.556
608.69
608.202
607.192
605.94
604.501
602.705
600.584
598.233
596.062
595.005
594.848
595.807
590.194
613.042
574.773
652.545
535.811
525.798
527.823
531.572
534.655
536.394
537.602
540.356
544.268
546.521
547.737
548.743
551.776
557.954
565.755
573.423
579.185
581.844
581.622
578.289
570.975
562.446
554.214
548.113
549.097
597.825
626.226
625.17
625.108
621.814
620.517
609.281
613.117
612.486
604.156
622.394
624.05
625.39
626.319
626.777
626.858
626.562
626.102
625.647
625.283
624.759
625.14
625.011
598.713
603.009
591.953
624.117
624.478
610.573
626.046
625.101
626.255
619.595
628.439
602.344
625.161
591.53
618.872
614.818
610.269
605.681
601.341
597.466
594.166
589.802
610.884
614.63
619.376
617.38
615.37
613.563
612.098
611.119
601.373
600.648
611.749
623.735
608.303
608.505
608.755
609.002
609.276
609.521
609.712
609.87
610.028
610.201
610.427
610.677
623.666
625.325
593.268
622.886
611.091
611.718
615.923
618.358
616.058
613.648
611.069
608.368
605.549
602.706
600.002
597.58
595.577
594.088
593.21
592.994
593.38
594.202
595.566
597.351
599.258
601.104
602.719
604.015
604.823
605.169
605.074
604.702
604.31
604.214
604.587
605.564
607.018
608.523
609.329
609.352
608.761
607.846
607.022
606.253
605.055
603.156
600.696
597.978
595.449
593.678
592.839
592.958
605.554
580.945
645.042
495.493
702.85
697.801
704.3
706.509
713.711
714.66
708.151
699.614
696.091
692.633
683.741
676.621
674.072
677.641
684.831
683.153
674.297
664.459
663.41
660.201
674.694
685.558
685.824
676.19
675.422
681.291
691.905
520.356
625.799
582.056
597.716
593.863
593.731
597.63
606.035
613.561
617.988
620.483
621.891
622.777
623.186
623.013
621.918
620.438
619.093
618.107
617.444
616.951
616.597
616.476
616.648
616.981
617.313
617.461
617.137
616.07
614.286
611.984
609.433
606.882
604.561
602.612
601.061
599.851
598.874
597.965
596.936
595.705
594.285
592.728
591.284
622.158
590.167
615.777
588.121
588.527
604.571
589.245
624.132
624.345
599.465
595.933
598.869
601.824
591.945
595.228
626.298
625.171
625.116
625.529
625.35
624.833
628.24
622.373
622.566
627.838
628.894
621.579
600.523
628.703
622.654
627.039
625.544
625.251
625.207
625.969
593.163
600.318
597.753
624.859
625.375
625.954
626.558
627.107
627.447
627.393
626.949
626.02
624.683
623.044
624.952
590.123
605.778
591.238
593.844
597.073
600.875
605.069
609.51
613.963
618.106
589.036
599.59
623.018
620.857
618.286
615.654
612.993
620.548
599.716
628.511
593.235
626.057
589.477
619.322
617.369
615.451
613.701
612.29
611.337
610.882
597.986
613.324
587.472
587.812
588.459
589.404
590.611
591.948
593.365
594.694
595.837
596.818
597.739
598.785
600.121
601.854
604.031
606.603
609.41
612.195
614.663
616.538
617.636
617.937
617.77
617.454
617.178
617.1
617.287
617.701
618.266
619.042
620.185
621.706
623.32
624.393
624.418
623.765
622.672
621.316
619.674
616.748
611.264
605.808
603.37
602.626
602.126
601.545
619.005
633.844
759.62
625.257
624.615
353.402
406.575
424.536
432.011
436
439.394
448.187
458.068
461.512
467.551
479.461
487.45
489.93
486.554
479.261
485.026
503.263
517.8
519.69
523.873
511.238
491.08
469.734
470.258
455.614
420.282
346.616
172.793
622.548
608.337
608.506
608.726
608.989
609.271
609.532
609.742
609.914
610.074
610.248
610.45
610.692
610.891
610.79
609.093
608.203
608.21
620.363
618.224
615.862
613.385
610.776
607.997
605.076
602.099
599.209
596.567
594.336
592.651
591.601
591.274
591.633
592.476
593.906
595.827
597.94
600.08
602.079
603.806
605.051
605.782
606.012
605.865
605.599
605.498
605.808
606.674
608.021
609.421
610.082
609.916
609.101
608.085
607.452
607.246
606.729
605.229
602.395
599.11
596.63
595.713
595.758
598.691
603.56
604.491
624.95
629.461
798.652
188.953
626.296
625.656
627.808
626.398
593.605
596.477
598.881
595.151
626.302
625.257
621.84
626.119
614.803
589.189
591.106
593.679
596.782
600.402
604.434
608.742
613.096
617.169
615.091
612.002
623.122
622.246
620.232
617.746
623.527
624.576
625.4
626.176
626.909
627.525
627.882
627.833
627.36
626.414
625.084
597.135
598.115
594.691
627.336
626.018
626.125
627.315
625.15
587.497
587.004
586.972
587.301
587.955
588.854
590.018
591.311
592.643
593.9
594.992
595.945
596.878
597.971
599.388
601.257
603.625
606.407
609.435
612.417
615.026
616.986
618.118
618.397
618.199
617.84
617.555
617.512
617.732
618.175
618.801
619.673
620.945
622.605
624.315
625.363
625.276
624.367
623.014
621.547
620.344
618.658
614.967
612.568
612.041
613.806
617.807
622.692
631.503
658.161
722.867
123.284
621.272
619.466
617.473
615.565
613.82
612.416
611.476
610.987
610.996
595.006
627.096
626.363
627.182
628.641
595.406
598.668
611.386
609.387
608.246
608.066
615.777
624.14
609.017
609.083
609.214
609.39
609.61
609.852
610.081
610.27
610.414
610.547
610.677
610.823
611.002
611.147
611.244
611.578
12.6241
15.4964
12.5482
14.1522
13.7461
14.0991
14.3973
14.4383
14.7382
14.6965
14.5194
14.2006
14.2078
14.357
14.6885
15.1184
15.8171
16.9069
17.9285
18.4764
17.677
17.5695
15.9402
16.6705
15.8596
17.2903
14.6896
15.585
12.3286
17.3815
619.924
617.835
615.6
613.198
610.574
607.727
604.717
601.643
598.623
595.829
593.44
591.595
590.403
589.985
590.314
591.154
592.604
594.611
596.887
599.266
601.574
603.624
605.21
606.257
606.784
606.866
606.731
606.637
606.875
607.635
608.86
610.128
610.676
610.307
609.221
608.007
607.435
607.534
607.524
606.557
603.401
599.55
598.032
597.929
600.168
605.888
613.439
620.986
627.724
635.659
759.315
169.194
18.8174
627.095
626.786
628.083
596.455
596.849
261.801
537.973
591.655
591.679
24.7895
5545.08
5374.46
4605.74
5326.91
4748.04
5345.63
4900.12
5263.44
5024.51
5250.08
5053.27
5166.6
5146.15
5070.34
5088.65
4991.79
4991.16
5165.06
5035.29
5361.95
5300.44
5335.78
5358.09
5189.88
5283.2
5130.99
5079.56
5318.55
4512.07
312.376
25.8697
5197.66
4414.69
607.144
548.414
629.168
635.467
608.746
618.805
598.932
601.855
599.994
598.622
605.544
603.021
607.01
606.764
607.847
607.059
610.5
609.205
610.602
611.049
608.314
609.444
607.37
607.615
607.44
607.405
606.402
607.156
603.4
605.145
598.794
601.251
593.853
596.273
590.272
591.743
589.18
589.427
591.05
589.73
595.586
593.041
601.703
598.531
607.989
604.928
613.265
610.734
617.847
615.625
621.886
619.938
625.241
623.659
627.524
626.56
628.134
628.046
627.156
627.803
625.426
626.335
623.298
624.354
619.677
621.594
615.846
617.62
612.433
613.984
610.883
611.358
611.275
611.57
611.6
611.461
611.515
611.357
611.407
611.216
611.288
610.99
611.111
610.757
610.867
610.622
610.673
609.811
610.647
611.29
609.343
610.775
611.525
608.626
609.481
608.449
608.073
612.248
609.91
617.404
614.721
621.724
619.841
621.766
622.481
616.056
619.561
607.588
611.9
599.624
603.442
593.296
596.213
589.153
590.935
586.997
587.844
586.604
586.567
587.638
586.978
589.661
588.524
592.242
590.933
594.528
593.46
596.41
595.469
598.962
597.511
603.385
600.909
609.402
606.286
615.149
612.456
618.437
617.211
618.508
618.738
617.777
618.095
617.952
617.727
619.052
618.405
621.309
619.972
624.825
623.049
625.752
625.901
622.809
624.556
619.38
621.034
615.682
617.447
615.842
615.236
625.43
618.475
643.961
636.039
618.176
611.706
611.84
628.686
604.131
3946.79
627.271
3621.72
619.177
611.907
611.952
611.885
611.965
611.983
611.996
611.991
605.758
625.887
628.077
627.385
628.224
612.067
612.36
612.289
615.483
612.589
614.047
615.137
611.734
613.435
614.725
610.679
612.715
614.273
609.506
611.897
624.598
596.814
611.469
615.143
611.148
600.838
615.359
623.989
615.719
617.441
591.837
611.413
611.833
624.6
590.054
612.637
587.491
613.107
588.252
612.986
594.531
615.167
624.137
612.988
611.588
611.904
624.53
606.894
608.79
614.364
617.94
611.868
617.434
623.955
621.739
588.146
628.598
608.906
621.293
599.99
609.273
594.801
601.797
598.319
594.989
611.837
621.285
618.163
621.544
608.509
610.539
611.708
590.302
)
;

boundaryField
{
    wall
    {
        type            zeroGradient;
    }
    outlet
    {
        type            fixedValue;
        value           uniform 1e-05;
    }
    inlet
    {
        type            fixedValue;
        value           uniform 612;
    }
    frontAndBackPlanes
    {
        type            empty;
    }
}


// ************************************************************************* //
