/*--------------------------------*- C++ -*----------------------------------*\
| =========                 |                                                 |
| \\      /  F ield         | OpenFOAM: The Open Source CFD Toolbox           |
|  \\    /   O peration     | Version:  2212                                  |
|   \\  /    A nd           | Website:  www.openfoam.com                      |
|    \\/     M anipulation  |                                                 |
\*---------------------------------------------------------------------------*/
FoamFile
{
    version     2.0;
    format      ascii;
    arch        "LSB;label=32;scalar=64";
    class       volVectorField;
    location    "0.0278";
    object      U;
}
// * * * * * * * * * * * * * * * * * * * * * * * * * * * * * * * * * * * * * //

dimensions      [0 1 -1 0 0 0 0];

internalField   nonuniform List<vector> 
2308
(
(-1.40664 4.22487 -1.02359e-15)
(0.314247 0.445291 0)
(-0.00270429 6.82502 7.24067e-17)
(0.525898 2.61257 -3.61166e-16)
(0.065891 3.72292 0)
(0.311487 3.46204 1.73705e-20)
(-0.29844 3.38649 -1.84787e-21)
(-0.340944 3.55209 -4.98809e-16)
(-0.0479335 3.82368 9.07695e-16)
(0.0611583 3.00381 -1.20484e-16)
(0.0772118 3.01978 2.14843e-16)
(0.0393768 3.05085 -3.15855e-16)
(0.0444651 3.06579 1.56324e-16)
(0.048487 3.08565 -7.91656e-17)
(0.0489772 3.10957 1.34808e-17)
(0.0481588 3.13576 1.1201e-16)
(0.0473713 3.16356 1.49701e-17)
(-0.0263795 3.18447 3.46541e-17)
(-0.0339976 3.16053 4.66302e-17)
(-0.0318117 3.1345 3.45099e-18)
(-0.0292781 3.10813 2.63276e-17)
(-0.0268915 3.08252 -7.69279e-17)
(-0.0211925 3.05894 9.88431e-17)
(-0.0057406 3.03641 -4.5542e-17)
(-0.0288127 3.01672 -1.95861e-16)
(-0.0260095 2.9985 -9.32005e-17)
(0.00468474 2.97645 4.76647e-17)
(-0.00766057 2.97128 -5.24299e-17)
(-0.188539 3.42765 0)
(0.0469246 3.1919 -3.19799e-16)
(-0.000659148 2.96356 2.79245e-18)
(0.00202097 2.95772 7.15459e-19)
(0.00245689 2.95543 -1.22301e-17)
(0.00241851 2.95606 1.1555e-17)
(0.0024892 2.95906 -1.22934e-17)
(0.00266705 2.96399 1.1581e-17)
(0.00279067 2.9702 -5.78617e-18)
(0.00304519 2.9773 5.78451e-18)
(0.00331621 2.98463 -5.77833e-18)
(0.00355085 2.99178 2.88863e-18)
(0.00372418 2.99809 5.7829e-18)
(0.00385668 3.00336 8.68523e-18)
(0.00394117 3.00738 -1.741e-17)
(0.00399053 3.01024 1.16394e-17)
(0.00399039 3.01222 5.81918e-18)
(0.0637812 3.00986 -5.83868e-18)
(0.066804 3.008 5.81851e-18)
(0.0697788 3.00516 -8.70995e-18)
(0.0726099 3.00133 -9.43241e-18)
(0.0752912 2.99617 1.44867e-17)
(0.0777126 2.99002 -2.89706e-18)
(0.0797976 2.98302 5.80459e-18)
(0.0815595 2.97614 1.45111e-18)
(0.083168 2.96913 -8.70315e-18)
(0.0843061 2.96314 -2.9071e-18)
(0.0852661 2.95853 5.80802e-18)
(0.0860879 2.95568 0)
(0.0869228 2.95517 -7.21896e-19)
(0.0879226 2.95765 -2.3745e-17)
(0.091693 2.96382 -8.17908e-17)
(0.100836 2.97142 9.63618e-17)
(0.0921373 2.97617 9.95051e-17)
(0.121224 2.9925 1.14212e-16)
(0.121558 3.00666 -2.3988e-21)
(0.137091 3.01861 1.27972e-16)
(0.137214 3.0395 -2.37205e-16)
(0.128744 3.064 -5.44169e-17)
(0.126738 3.0875 0)
(0.126715 3.11176 0)
(0.126926 3.13788 0)
(0.12685 3.16694 0)
(0.00387233 3.01382 -2.91193e-18)
(0.0606349 3.0112 2.92629e-18)
(-0.0955763 3.16906 -1.60821e-16)
(-0.102539 3.1348 -3.25087e-18)
(-0.104675 3.10519 1.27448e-17)
(-0.103083 3.07983 0)
(-0.099355 3.05631 -2.44372e-17)
(-0.0962374 3.03343 -2.3916e-17)
(-0.0971791 3.0138 1.19962e-17)
(-0.0951087 2.99715 4.81105e-17)
(-0.0874074 2.98088 0)
(-0.0838142 2.97035 -6.5608e-22)
(-0.0845371 2.96236 8.91734e-20)
(-0.0840913 2.95735 -1.15516e-17)
(-0.0830683 2.95497 1.73332e-17)
(-0.0820218 2.95529 1.24499e-21)
(-0.0808303 2.95805 -1.01322e-17)
(-0.0794325 2.96276 0)
(-0.0776437 2.96872 -1.44782e-18)
(-0.0755917 2.97576 8.68123e-18)
(-0.0732963 2.98305 -1.15702e-17)
(-0.0707531 2.99008 -4.53175e-22)
(-0.0680166 2.99633 1.15846e-17)
(-0.0650663 3.00162 0)
(-0.0620202 3.00562 1.15994e-17)
(-0.0589864 3.00857 1.28983e-22)
(-0.0559414 3.0107 -5.82184e-18)
(-0.0355668 3.22002 -1.37094e-16)
(-0.0530404 3.0123 -5.82572e-18)
(0.0396221 3.22555 1.398e-16)
(0.124834 3.1995 1.49516e-21)
(0.115193 3.00429 -5.86156e-18)
(0.121147 3.00332 7.31841e-18)
(0.127165 3.0014 0)
(0.132979 2.99892 -2.18926e-18)
(0.138622 2.99528 5.09976e-18)
(0.143908 2.99041 5.82679e-18)
(0.148764 2.98471 -5.82617e-18)
(0.153118 2.97823 0)
(0.156923 2.9718 -1.45497e-18)
(0.16024 2.96528 2.91728e-18)
(0.162956 2.96 -1.40957e-22)
(0.16519 2.95599 -2.91697e-18)
(0.166957 2.95371 0)
(0.168259 2.95373 4.37576e-18)
(0.169534 2.95621 -1.742e-17)
(0.169886 2.961 -1.16496e-17)
(0.168477 2.96762 4.73231e-17)
(0.172209 2.9778 1.75434e-16)
(0.184006 2.98951 1.3234e-17)
(0.193982 3.00583 1.2583e-16)
(0.201805 3.02233 -5.68827e-17)
(0.203042 3.04012 0)
(0.200449 3.06228 0)
(0.199663 3.08591 0)
(0.200859 3.11037 1.88238e-16)
(0.20298 3.13606 -2.18641e-16)
(0.205348 3.16488 2.22719e-16)
(-0.488332 3.56 -4.00851e-16)
(0.447587 3.37977 0)
(0.287027 3.37966 0)
(0.35701 3.38981 0)
(-0.190144 3.20036 3.20804e-16)
(-0.198379 3.15941 9.07654e-17)
(-0.188069 3.13028 1.16089e-21)
(-0.182231 3.10193 -1.54313e-18)
(-0.178121 3.07674 1.53428e-18)
(-0.175281 3.05363 1.21661e-17)
(-0.173671 3.03171 -2.40532e-17)
(-0.1742 3.01184 -5.31891e-22)
(-0.172444 2.99563 0)
(-0.168813 2.98184 5.31749e-17)
(-0.165595 2.9696 3.49171e-17)
(-0.16477 2.96085 -5.78844e-18)
(-0.164279 2.95544 5.78544e-18)
(-0.163562 2.95272 0)
(-0.162419 2.95276 0)
(-0.160577 2.95494 -7.25427e-19)
(-0.157994 2.95916 0)
(-0.154868 2.96467 4.35103e-18)
(-0.151155 2.97128 1.16995e-22)
(-0.146836 2.97818 -2.9017e-18)
(-0.142029 2.98479 0)
(-0.136849 2.99087 -2.90232e-18)
(-0.131313 2.99598 4.35785e-18)
(-0.125561 2.99978 -7.27112e-18)
(-0.119689 3.00276 0)
(-0.113759 3.00503 -1.16405e-17)
(-0.107909 3.00672 2.91529e-18)
(-0.102236 3.00859 1.24734e-22)
(-0.050264 3.01413 0)
(0.00360184 3.01545 -1.46058e-18)
(0.057307 3.01279 -4.75606e-18)
(-0.269855 3.64298 4.35631e-16)
(0.10906 3.00605 3.66778e-19)
(-0.661907 3.58237 -1.25651e-15)
(-0.870364 3.42389 -2.89128e-16)
(0.117692 3.23708 0)
(-0.456532 3.88162 4.16438e-16)
(-0.0509839 3.64933 -8.71369e-16)
(-0.0513947 3.2618 5.72375e-17)
(0.207061 3.19842 -3.36806e-16)
(-0.0968287 3.01081 -2.92638e-18)
(-0.0477504 3.01629 -2.92566e-18)
(0.00311359 3.0176 -3.66035e-19)
(0.0538637 3.0149 5.85704e-18)
(0.102873 3.00795 3.67254e-19)
(0.148248 2.99615 0)
(0.156898 2.9942 2.94229e-18)
(0.165525 2.99275 5.88039e-18)
(0.174171 2.99172 -1.46906e-18)
(0.182794 2.99017 -5.87073e-18)
(0.191229 2.98794 -6.59313e-18)
(0.199324 2.9846 8.78903e-18)
(0.206924 2.98016 2.93038e-18)
(0.213956 2.9752 -5.86655e-18)
(0.220403 2.96957 4.39795e-18)
(0.22622 2.96368 -1.28207e-18)
(0.231141 2.95811 0)
(0.235158 2.95366 0)
(0.238456 2.95047 0)
(0.240934 2.94891 5.87631e-18)
(0.242599 2.94941 -2.94387e-18)
(0.243422 2.95231 -2.58394e-22)
(0.243722 2.95736 -2.37346e-17)
(0.244433 2.96561 0)
(0.247998 2.97722 -2.49341e-17)
(0.25251 2.98976 2.57853e-17)
(0.257673 3.00458 5.30617e-17)
(0.263125 3.02161 2.70667e-17)
(0.264968 3.0391 1.07967e-16)
(0.264894 3.05947 -1.06867e-16)
(0.266061 3.08198 0)
(0.269193 3.10541 2.64812e-17)
(0.273931 3.12992 -5.32234e-17)
(0.27981 3.15667 -1.07861e-16)
(-0.241264 3.27977 5.17164e-17)
(-0.950564 5.2053 0)
(0.163652 3.62624 -2.01566e-21)
(-0.507147 3.48983 5.53957e-16)
(-0.445486 3.40499 -1.183e-16)
(-0.397671 3.34363 1.34587e-16)
(-0.358865 3.2954 -2.56178e-17)
(-0.325713 3.2524 5.00518e-17)
(-0.298284 3.21485 -2.45023e-17)
(-0.277113 3.18186 0)
(-0.266034 3.14906 -2.37278e-17)
(-0.257841 3.12192 -2.4075e-17)
(-0.251434 3.09666 0)
(-0.24695 3.0726 0)
(-0.244067 3.05029 1.50974e-18)
(-0.242655 3.02902 -1.35025e-17)
(-0.242413 3.01001 0)
(-0.242258 2.99368 0)
(-0.241872 2.97989 -1.7749e-17)
(-0.24079 2.96765 -1.17309e-17)
(-0.240053 2.95827 2.3359e-17)
(-0.239426 2.95201 5.83291e-18)
(-0.238477 2.94833 1.45783e-18)
(-0.236686 2.94791 5.8293e-18)
(-0.234058 2.94903 -6.56167e-18)
(-0.230472 2.95252 0)
(-0.225949 2.95733 -2.91429e-18)
(-0.220558 2.96321 0)
(-0.214405 2.9693 0)
(-0.207607 2.97546 0)
(-0.200185 2.98113 -1.16599e-17)
(-0.192278 2.9857 0)
(-0.184112 2.98926 -6.55326e-18)
(-0.175753 2.99228 1.09243e-18)
(-0.167257 2.99446 2.29515e-17)
(-0.158812 2.99627 0)
(-0.15056 2.99819 -1.16652e-17)
(-0.142594 3.00053 1.8221e-19)
(-1.02919 6.56469 0)
(-0.603665 3.7531 6.83192e-16)
(1.50699 3.79164 1.09394e-15)
(0.42028 2.34747 0)
(-0.564614 4.052 -3.2989e-16)
(-0.839483 3.59161 1.43079e-15)
(0.202088 3.23653 1.2847e-20)
(-0.14729 3.29989 1.08654e-16)
(0.188314 2.97813 -3.69559e-19)
(0.199061 2.97638 -2.95253e-18)
(0.209916 2.97489 2.95079e-18)
(0.220813 2.9742 0)
(0.231695 2.9728 0)
(0.24232 2.97091 3.68085e-19)
(0.252545 2.96817 -1.4719e-18)
(0.262202 2.96435 -5.14658e-18)
(0.271177 2.9603 3.67542e-19)
(0.279452 2.95548 -7.58128e-19)
(0.286842 2.95061 -9.02544e-19)
(0.293212 2.94625 4.04888e-18)
(0.298509 2.94265 3.68264e-19)
(0.30272 2.9408 -2.9498e-18)
(0.305876 2.94012 0)
(0.307945 2.94172 1.18252e-17)
(0.308983 2.94559 -7.50584e-22)
(0.309433 2.95195 5.98386e-17)
(0.309941 2.96124 -4.8439e-17)
(0.311402 2.97288 0)
(0.313289 2.98658 5.07004e-17)
(0.315342 2.99989 -1.55409e-16)
(0.317418 3.01782 7.88157e-17)
(0.319164 3.03467 1.04832e-16)
(0.320748 3.0532 -1.05991e-20)
(0.323585 3.07431 -1.03913e-16)
(0.32893 3.09566 1.03898e-16)
(0.336873 3.11754 1.04374e-16)
(0.346446 3.1418 -1.04343e-16)
(0.286823 3.18821 -2.14021e-16)
(-0.326225 4.03271 1.35492e-20)
(-1.00927 3.11061 7.2021e-21)
(-0.63939 3.4041 -9.7749e-17)
(-0.555977 3.3395 -1.29425e-17)
(-0.49121 3.29086 -3.83479e-17)
(-0.440694 3.25172 -1.25261e-17)
(-0.4007 3.21689 0)
(-0.36974 3.18647 2.43216e-17)
(-0.346438 3.15877 -1.2019e-17)
(-0.330662 3.13239 -1.19741e-17)
(-0.319675 3.1086 6.01375e-18)
(-0.312331 3.08636 6.03203e-18)
(-0.307553 3.06489 1.20619e-17)
(-0.30489 3.04399 0)
(-0.304082 3.02379 1.1972e-17)
(-0.304369 3.00566 -1.17494e-17)
(-0.304924 2.98918 -1.85979e-19)
(-0.305323 2.97501 -3.55497e-17)
(-0.305373 2.96261 2.94784e-18)
(-0.305204 2.95265 -1.46796e-17)
(-0.304661 2.9455 0)
(-0.303546 2.94085 -4.75262e-18)
(-0.301394 2.9392 3.65194e-19)
(-0.298174 2.93923 6.58339e-18)
(-0.293735 2.94158 0)
(-0.28805 2.94533 0)
(-0.281312 2.94996 -1.82866e-19)
(-0.273657 2.95523 -5.66379e-18)
(-0.265035 2.96079 5.85219e-18)
(-0.255629 2.96562 7.31243e-18)
(-0.245772 2.96952 -1.46e-18)
(-0.235545 2.97293 4.38048e-18)
(-0.224994 2.9758 -1.46171e-18)
(-0.214353 2.97772 -1.16934e-17)
(-0.203766 2.97975 1.16812e-17)
(-0.193377 2.98167 2.62819e-17)
(-0.183263 2.98421 1.167e-17)
(-0.173514 2.98766 0)
(-0.134934 3.00393 -6.01936e-18)
(-0.0916708 3.01411 -2.4056e-22)
(-0.0454294 3.01953 6.59793e-18)
(0.00255786 3.02081 2.19812e-18)
(0.0504457 3.01813 -2.93461e-18)
(0.0966376 3.01127 5.88096e-18)
(0.139548 2.99955 -5.88379e-18)
(0.177679 2.98144 -2.95175e-18)
(1.39682 4.27808 -4.06897e-16)
(0.170613 6.6076 -9.34738e-17)
(-1.50118 1.58202 -1.62734e-16)
(-0.772952 3.77758 -6.94284e-16)
(-1.24615 4.32507 -3.43577e-16)
(1.15878 2.90815 9.77518e-17)
(0.356721 3.16893 0)
(0.292845 3.221 4.28372e-16)
(-0.490294 4.13193 1.01121e-15)
(-0.740884 4.00611 4.14532e-16)
(-0.894883 4.77772 -4.16761e-16)
(0.0507771 3.5655 8.91747e-16)
(-0.705192 3.30487 0)
(-0.628212 3.26041 1.27135e-17)
(-0.561452 3.22505 -3.1378e-18)
(-0.505842 3.19729 -5.87282e-17)
(-0.461292 3.17176 1.22116e-17)
(-0.426831 3.14931 0)
(-0.401012 3.12858 -4.6099e-24)
(-0.382711 3.10839 -2.99787e-18)
(-0.370014 3.08904 0)
(-0.361829 3.07001 -6.00652e-18)
(-0.35692 3.05135 -6.00492e-18)
(-0.354674 3.03228 0)
(-0.354234 3.0134 1.49328e-18)
(-0.354877 2.99598 -1.49094e-18)
(-0.356079 2.97966 1.48841e-18)
(-0.35733 2.96514 2.2244e-17)
(-0.358186 2.95232 0)
(-0.358628 2.94143 2.94746e-18)
(-0.358483 2.93319 -1.47145e-18)
(-0.357284 2.9274 3.67842e-19)
(-0.35488 2.92401 1.10379e-18)
(-0.351028 2.92281 -6.62148e-18)
(-0.34579 2.92379 0)
(-0.339234 2.92596 1.46952e-18)
(-0.331499 2.92932 2.93624e-18)
(-0.322496 2.93387 2.93964e-18)
(-0.312444 2.93802 -1.76589e-22)
(-0.301584 2.94181 -1.46577e-18)
(-0.290093 2.9453 -4.39511e-18)
(-0.2781 2.94842 -2.93282e-18)
(-0.265825 2.95074 -2.9302e-18)
(-0.253485 2.95283 0)
(-0.241272 2.95482 -1.17162e-17)
(-0.229278 2.95679 -1.17056e-17)
(-0.217538 2.9596 -8.7658e-18)
(-0.206168 2.9631 -1.60625e-17)
(-0.195272 2.96818 7.30512e-18)
(-0.16418 2.99269 -5.84367e-18)
(-0.127563 3.00874 0)
(-0.0867781 3.01894 2.93387e-18)
(-0.0430653 3.02449 2.93831e-18)
(0.00203865 3.02574 -5.87033e-18)
(0.0469995 3.02295 5.88522e-18)
(0.0904834 3.01585 4.80284e-24)
(0.131042 3.00398 -2.9466e-18)
(0.167233 2.98601 8.8496e-18)
(0.197803 2.95944 -8.89325e-18)
(0.209692 2.9549 1.48247e-18)
(0.221897 2.95169 -1.11005e-18)
(0.234351 2.95009 2.21946e-18)
(0.246996 2.94847 -7.38091e-18)
(0.259616 2.94811 2.7701e-18)
(0.272175 2.94695 0)
(0.284516 2.94563 3.69549e-19)
(0.296468 2.94343 5.17455e-18)
(0.307818 2.94073 -7.38613e-19)
(0.318493 2.93749 1.84491e-18)
(0.328271 2.93372 -1.54804e-23)
(0.336937 2.93013 7.44393e-19)
(0.344446 2.9273 -3.6946e-19)
(0.350744 2.92483 2.58675e-18)
(0.355717 2.92448 -8.87312e-18)
(0.359485 2.9251 5.43996e-22)
(0.361814 2.92827 5.93755e-18)
(0.362893 2.93332 -5.96068e-18)
(0.362996 2.94116 -4.79808e-17)
(0.362942 2.95127 4.83852e-17)
(0.363043 2.96323 0)
(0.36302 2.97759 -9.98782e-17)
(0.362936 2.98985 7.5572e-17)
(0.363379 3.00838 -7.67622e-17)
(0.364915 3.02385 0)
(0.366702 3.04081 0)
(0.370382 3.05989 0)
(0.377065 3.07833 -1.27133e-17)
(0.386992 3.09717 2.25917e-22)
(0.400881 3.11738 2.0252e-16)
(-0.180135 4.18566 -4.55015e-16)
(0.367053 3.19788 2.14472e-16)
(0.295232 3.25554 -2.01967e-16)
(-0.268705 3.33016 2.56351e-17)
(-0.665444 4.20971 4.86357e-16)
(-0.942608 4.01581 4.15182e-16)
(-0.973844 3.77583 -2.48959e-20)
(-0.993072 3.5633 -4.32658e-16)
(-1.09842 2.93787 -3.01389e-16)
(-0.799619 3.35452 -2.99806e-16)
(-0.866552 3.22563 1.0828e-16)
(-0.769203 3.18844 -2.51289e-17)
(-0.684515 3.16303 -4.9615e-17)
(-0.61216 3.14292 0)
(-0.551959 3.12783 4.89986e-17)
(-0.504059 3.11372 0)
(-0.467135 3.10034 0)
(-0.439504 3.08787 1.20131e-17)
(-0.41979 3.07399 2.99776e-18)
(-0.40635 3.05962 0)
(-0.397867 3.04436 5.99274e-18)
(-0.393245 3.02822 6.88254e-22)
(-0.391361 3.01126 4.43372e-22)
(-0.391384 2.99371 5.96884e-18)
(-0.392645 2.97693 6.71176e-18)
(-0.394667 2.96068 -6.69913e-18)
(-0.396668 2.94565 -1.22528e-17)
(-0.398242 2.93224 3.70542e-19)
(-0.3992 2.92017 -2.22132e-18)
(-0.399085 2.91077 7.39209e-19)
(-0.397769 2.90344 2.95622e-18)
(-0.395073 2.89837 -2.21671e-18)
(-0.390871 2.89552 2.95443e-18)
(-0.385125 2.89491 9.45202e-23)
(-0.378026 2.8952 -7.37218e-18)
(-0.369447 2.8975 2.95209e-18)
(-0.359465 2.90048 2.94971e-18)
(-0.348411 2.90307 -4.41182e-18)
(-0.336465 2.90615 5.88032e-18)
(-0.323722 2.90908 5.88758e-18)
(-0.3105 2.91139 0)
(-0.297051 2.91364 1.76422e-17)
(-0.283535 2.91562 2.93827e-18)
(-0.270149 2.91747 2.93092e-18)
(-0.256964 2.91975 0)
(-0.244116 2.92252 0)
(-0.231718 2.92626 8.7743e-18)
(-0.219806 2.9315 6.59929e-23)
(-0.208501 2.93845 -1.46048e-18)
(-0.184933 2.97498 1.46134e-18)
(-0.155338 2.99948 0)
(-0.12053 3.01577 0)
(-0.0820781 3.02599 -1.46617e-18)
(-0.040997 3.0314 4.39942e-18)
(0.00143627 3.03273 0)
(0.0436812 3.02984 -2.94623e-18)
(0.0845585 3.02271 -2.94566e-18)
(0.122803 3.01066 5.8973e-18)
(0.157118 2.99248 -2.95287e-18)
(0.186292 2.96594 8.88768e-18)
(0.209341 2.92719 1.48536e-18)
(0.221691 2.92057 1.48646e-18)
(0.23452 2.91598 2.97271e-18)
(0.247776 2.9129 0)
(0.261416 2.91108 -1.11372e-18)
(0.275264 2.90994 -2.7839e-19)
(0.289189 2.90944 1.66984e-18)
(0.303054 2.9089 -3.7097e-19)
(0.316704 2.90816 -7.41578e-19)
(0.329967 2.90667 -5.92449e-18)
(0.342602 2.90491 1.48139e-18)
(0.354428 2.9028 -3.70486e-18)
(0.365292 2.90032 1.85124e-18)
(0.374975 2.89814 -7.40298e-19)
(0.383366 2.89693 0)
(0.390429 2.89617 0)
(0.396035 2.89724 0)
(0.400062 2.89982 -2.96879e-18)
(0.402657 2.90447 0)
(0.403932 2.91116 5.94071e-22)
(0.403964 2.92034 2.39574e-17)
(0.403208 2.93141 -1.20594e-17)
(0.402048 2.94407 2.43715e-17)
(0.400473 2.95871 7.41078e-17)
(0.399246 2.97094 -1.79362e-21)
(0.398509 2.98877 -2.50697e-17)
(0.398512 3.00295 -5.00243e-17)
(0.400384 3.01824 9.92844e-17)
(0.404615 3.03481 -4.98502e-17)
(0.412497 3.04995 -6.17483e-23)
(0.424551 3.0651 2.48135e-17)
(0.441397 3.08072 -3.91641e-21)
(0.417828 3.13918 -3.08633e-16)
(-0.349932 4.31924 -4.67962e-16)
(-0.0112115 4.33688 8.82781e-16)
(1.53776 2.27345 0)
(0.435385 3.16511 -2.10351e-16)
(-1.10739 3.30725 7.75558e-16)
(-1.14618 3.47968 -4.13508e-16)
(-1.15639 3.72393 -7.91233e-16)
(0.289486 3.3049 -6.75145e-17)
(-0.342703 3.44401 -6.42885e-17)
(-0.172165 3.3526 -2.56339e-17)
(0.375093 3.23729 -9.38991e-21)
(-0.870985 4.25079 -4.76547e-16)
(-1.13554 4.00703 3.97387e-16)
(-0.197998 2.94788 -1.46228e-18)
(-0.175251 2.98432 -1.46153e-18)
(-0.146979 3.00902 0)
(-0.113998 3.02537 -1.4661e-18)
(-0.0776944 3.0358 1.46834e-18)
(-0.0390982 3.04144 -1.46724e-18)
(0.000711838 3.0427 1.46929e-18)
(0.0403664 3.03977 2.94459e-18)
(0.0787482 3.03242 -2.9474e-18)
(0.114851 3.02015 5.8992e-18)
(0.147371 3.00187 -8.8694e-18)
(0.175295 2.97521 0)
(0.197641 2.93626 5.72766e-23)
(0.213461 2.87927 0)
(0.225466 2.87008 -8.92385e-18)
(0.238207 2.86353 2.97784e-18)
(0.251559 2.85868 0)
(0.265375 2.8557 0)
(0.279611 2.85373 7.44189e-19)
(0.294134 2.85271 -9.30237e-20)
(0.308796 2.85257 0)
(0.323462 2.85232 -3.71867e-19)
(0.337937 2.85222 3.71732e-19)
(0.352007 2.85156 1.48552e-18)
(0.36545 2.85063 7.41942e-19)
(0.378023 2.84981 1.48445e-18)
(0.389609 2.84888 -7.37141e-23)
(0.400059 2.84822 -2.96856e-18)
(0.409136 2.84847 7.42579e-19)
(0.416666 2.84982 2.9707e-18)
(0.4226 2.85256 7.42556e-19)
(0.4269 2.85721 -1.48664e-18)
(0.429573 2.86363 2.97606e-18)
(0.430603 2.87215 -8.94334e-18)
(0.430328 2.88273 -1.19575e-17)
(0.429031 2.89495 6.00736e-18)
(0.426977 2.90855 -1.21041e-17)
(0.424394 2.92329 0)
(0.421251 2.93622 -3.68969e-17)
(0.419427 2.95326 7.45648e-17)
(0.419532 2.96536 0)
(0.421173 2.97975 0)
(0.425289 2.99293 0)
(0.432406 3.00482 1.83243e-17)
(0.444832 3.01558 7.4254e-23)
(0.463864 3.02662 5.55111e-21)
(0.463397 3.09802 -1.98617e-16)
(0.287405 3.68901 -4.67276e-16)
(-0.542638 4.43235 -1.20133e-20)
(0.535217 2.20387 3.87345e-16)
(-0.170841 4.0741 0)
(-0.811275 3.05323 -2.36539e-17)
(-0.718722 3.04318 0)
(-0.640282 3.04032 0)
(-0.576643 3.03947 1.21245e-17)
(-0.526513 3.03823 -2.41627e-17)
(-0.488342 3.03479 0)
(-0.460056 3.03103 1.20267e-17)
(-0.440232 3.02358 0)
(-0.426993 3.01444 -2.9942e-18)
(-0.418999 3.00299 2.99301e-18)
(-0.414936 2.98937 -1.49569e-17)
(-0.413765 2.97428 -2.63128e-22)
(-0.414645 2.95801 -5.96798e-18)
(-0.416756 2.94168 1.19333e-17)
(-0.419353 2.9254 8.93261e-18)
(-0.421899 2.90982 -8.92859e-18)
(-0.423944 2.89545 0)
(-0.425212 2.88225 1.37834e-22)
(-0.425363 2.87129 -4.45086e-18)
(-0.424098 2.86224 0)
(-0.421286 2.85537 0)
(-0.416883 2.85069 1.48226e-18)
(-0.410884 2.84805 4.44384e-18)
(-0.403269 2.84678 -2.96094e-18)
(-0.394075 2.84747 2.95474e-18)
(-0.383577 2.84876 -5.90419e-18)
(-0.371962 2.84984 -1.47709e-18)
(-0.359264 2.85229 -1.18135e-17)
(-0.345833 2.85419 5.90085e-18)
(-0.33193 2.85606 0)
(-0.317745 2.8582 -1.17929e-17)
(-0.30356 2.85962 -5.88305e-18)
(-0.289415 2.86183 0)
(-0.275546 2.86435 5.88189e-18)
(-0.262125 2.86714 -1.04639e-22)
(-0.24919 2.87106 8.79583e-18)
(-0.236785 2.87665 8.7824e-18)
(-0.225082 2.8838 0)
(-0.214252 2.89362 -2.92582e-18)
(0.180982 4.48559 -4.34936e-16)
(-0.187658 4.50707 -8.93996e-16)
(-0.0803203 7.57262 1.34391e-16)
(0.386169 3.29276 -1.86928e-16)
(-1.07745 4.31672 8.06257e-16)
(0.454533 3.20091 3.72262e-21)
(0.222401 2.79598 1.48758e-18)
(0.234245 2.78631 7.44136e-18)
(0.246884 2.77951 -5.95822e-18)
(0.260198 2.77457 0)
(0.274033 2.77132 0)
(0.288328 2.76942 0)
(0.303015 2.76826 0)
(0.31792 2.76822 1.48948e-18)
(0.332881 2.7684 -7.44358e-19)
(0.347666 2.76865 3.72133e-19)
(0.362005 2.76899 -2.23224e-18)
(0.375751 2.76893 1.4872e-18)
(0.388703 2.76908 7.43264e-19)
(0.400657 2.76961 -1.11516e-18)
(0.41146 2.77065 0)
(0.420837 2.77257 -2.13157e-23)
(0.428607 2.77598 -7.43369e-19)
(0.434713 2.78072 7.43859e-19)
(0.439004 2.78728 1.48807e-18)
(0.441562 2.79577 -1.67475e-18)
(0.442463 2.80604 1.67588e-18)
(0.44183 2.81822 -4.47761e-18)
(0.439997 2.83183 -8.98261e-18)
(0.437308 2.84644 6.01649e-18)
(0.433925 2.86163 0)
(0.430703 2.87559 -4.51288e-22)
(0.427341 2.89161 -3.6819e-17)
(0.425099 2.90252 3.05864e-17)
(0.425151 2.9159 -6.12314e-18)
(0.428995 2.92527 0)
(0.437177 2.93326 -6.0434e-18)
(0.449987 2.93894 8.34161e-17)
(0.468443 2.94419 -4.63223e-17)
(0.491375 3.03946 1.8789e-16)
(0.363092 3.59076 9.56818e-16)
(-0.752069 4.51793 -1.3063e-20)
(-0.204349 2.90634 -7.32252e-19)
(-0.188395 2.96052 4.3937e-18)
(-0.166372 2.99708 7.31345e-19)
(-0.139225 3.02179 0)
(-0.107948 3.03847 -1.46678e-18)
(-0.0736551 3.04923 1.46721e-18)
(-0.0373211 3.05507 -2.20487e-18)
(-7.98335e-05 3.05632 -5.14676e-18)
(0.0370603 3.05317 5.8886e-18)
(0.073166 3.04556 0)
(0.10725 3.03295 -2.95114e-18)
(0.138148 3.01416 8.86413e-18)
(0.165025 2.98712 -5.91978e-18)
(0.186725 2.94817 -2.96382e-18)
(0.202352 2.89137 4.44691e-18)
(0.211488 2.80812 -5.94084e-18)
(0.437553 3.72921 9.05983e-16)
(-1.31328 3.94353 -3.68361e-16)
(-1.31959 3.60938 3.75521e-16)
(-1.28217 3.33175 7.52312e-16)
(-1.20559 3.11756 3.5706e-16)
(0.144955 3.49988 1.3086e-20)
(0.426649 3.44443 2.75228e-16)
(-0.641888 1.2007 0)
(0.492379 2.40131 0)
(-0.829334 2.87561 0)
(-0.724805 2.89378 5.9986e-18)
(-0.641878 2.91138 -1.20792e-17)
(-0.577013 2.92642 -1.21108e-21)
(-0.526991 2.93805 3.6222e-17)
(-0.489362 2.94512 -2.41112e-17)
(-0.462088 2.94918 -7.28766e-22)
(-0.44337 2.94825 1.19923e-17)
(-0.431288 2.94382 -2.09595e-17)
(-0.424487 2.93591 2.99035e-18)
(-0.421524 2.92501 1.19598e-17)
(-0.421342 2.91154 -2.98859e-18)
(-0.42303 2.89627 2.98686e-18)
(-0.425846 2.88022 -8.95464e-18)
(-0.429123 2.86369 2.98023e-18)
(-0.432286 2.84742 8.93114e-18)
(-0.434951 2.83175 -5.952e-18)
(-0.436601 2.81732 5.94988e-18)
(-0.436939 2.80458 2.23076e-18)
(-0.435768 2.79375 5.20444e-18)
(-0.432962 2.78501 -6.68967e-18)
(-0.428484 2.7784 4.4588e-18)
(-0.422338 2.77378 -8.17067e-18)
(-0.414513 2.77082 -5.93928e-18)
(-0.405141 2.7694 5.93475e-18)
(-0.394344 2.76929 2.96284e-18)
(-0.382401 2.76925 -2.96119e-18)
(-0.369438 2.77061 0)
(-0.355803 2.77174 -5.91551e-18)
(-0.341688 2.77334 2.95531e-18)
(-0.327354 2.77475 -5.8983e-18)
(-0.312944 2.77657 -8.84784e-18)
(-0.298651 2.77886 -5.89783e-18)
(-0.284661 2.78147 -1.17644e-17)
(-0.271087 2.78461 2.93557e-18)
(-0.258042 2.78905 -2.93657e-18)
(-0.245651 2.79491 -5.8721e-18)
(-0.234042 2.80248 0)
(-0.223297 2.81293 0)
(-0.213597 2.82609 0)
(-0.0721095 7.79507 0)
(0.488911 3.11665 1.51483e-20)
(0.386098 3.318 1.01291e-15)
(0.398793 4.61679 4.31637e-16)
(-0.395428 4.66314 4.43833e-16)
(0.00440565 4.69545 8.73347e-16)
(0.250624 3.53907 -4.68599e-16)
(-0.376553 7.53016 -1.15136e-16)
(-1.04598 5.7769 0)
(0.221722 3.43376 -5.331e-16)
(0.47869 3.24333 -2.17588e-16)
(0.49293 2.95705 -8.31514e-17)
(0.0629602 3.45436 -1.3994e-15)
(1.24904 4.82747 4.24867e-16)
(0.625714 2.10563 3.81024e-16)
(-0.384778 6.83211 -6.20038e-17)
(0.213307 2.68759 -2.97168e-18)
(0.22367 2.67502 -7.43015e-19)
(0.235024 2.66469 -2.23332e-18)
(0.247178 2.65736 3.49798e-22)
(0.260024 2.65214 0)
(0.273475 2.64839 0)
(0.287402 2.64609 0)
(0.301703 2.64482 -3.72657e-19)
(0.316289 2.64449 -4.65502e-19)
(0.330936 2.64493 4.65354e-19)
(0.345465 2.64543 -3.72321e-19)
(0.359652 2.6464 9.30476e-19)
(0.373353 2.64709 -1.11698e-18)
(0.386283 2.64824 0)
(0.398206 2.64989 0)
(0.408923 2.65248 0)
(0.418273 2.65604 0)
(0.426012 2.66119 0)
(0.431959 2.66801 0)
(0.436112 2.67656 -3.72213e-19)
(0.438406 2.68698 1.48916e-18)
(0.439026 2.6991 0)
(0.438175 2.71282 -3.72848e-18)
(0.43597 2.72782 6.72268e-18)
(0.43267 2.74355 5.99163e-18)
(0.42855 2.75951 0)
(0.423906 2.7747 1.8177e-17)
(0.419974 2.78953 -1.82376e-17)
(0.417299 2.80006 -6.05116e-18)
(0.416142 2.8122 1.2144e-17)
(0.417809 2.81888 -1.81492e-17)
(0.423441 2.82341 9.01059e-18)
(0.436212 2.82388 -2.3676e-17)
(0.459829 2.81827 5.82471e-18)
(0.492866 2.80767 1.79542e-16)
(0.494819 3.60846 5.08601e-16)
(-1.52098 3.95033 6.83878e-16)
(-1.45903 4.47225 3.32586e-16)
(-0.205035 2.84248 0)
(-0.195615 2.92223 -1.48048e-23)
(-0.179868 2.97629 -1.46487e-18)
(-0.158393 3.01319 -7.32307e-19)
(-0.132252 3.03836 -1.83393e-19)
(-0.102497 3.05557 1.83387e-19)
(-0.070052 3.06661 0)
(-0.035827 3.07258 0)
(-0.000909632 3.07395 2.20726e-18)
(0.033916 3.07069 -5.88755e-18)
(0.0678888 3.0627 7.36941e-18)
(0.100148 3.04958 0)
(0.129699 3.03038 -5.90293e-18)
(0.155667 3.00305 5.91316e-18)
(0.176759 2.96386 1.47978e-18)
(0.192306 2.9069 1.48078e-18)
(0.201597 2.82414 0)
(0.203926 2.70439 0)
(-0.23319 3.49496 0)
(-1.4501 3.77867 3.54184e-16)
(-1.4376 3.40633 0)
(-1.37566 3.11024 -7.39877e-16)
(-1.28136 2.88575 3.72894e-16)
(-1.18559 2.70291 6.76182e-16)
(-0.415012 3.91309 -1.03954e-16)
(-0.713982 5.15229 4.13607e-16)
(-0.869123 2.62213 1.25915e-17)
(-0.77312 2.67145 -9.77534e-17)
(-0.68653 2.71394 4.25434e-17)
(-0.612196 2.74983 -4.85146e-17)
(-0.551858 2.7793 -2.11829e-17)
(-0.50522 2.80235 3.02123e-17)
(-0.470565 2.81911 6.02842e-18)
(-0.445992 2.82994 -3.00579e-17)
(-0.429497 2.8349 1.80009e-17)
(-0.419437 2.83464 0)
(-0.414314 2.82972 -1.49632e-17)
(-0.412796 2.82084 8.96997e-18)
(-0.413875 2.80867 1.4945e-17)
(-0.41663 2.79403 2.98848e-18)
(-0.420325 2.77797 -1.19455e-17)
(-0.42432 2.76098 -5.96859e-18)
(-0.428005 2.74385 0)
(-0.430994 2.72709 0)
(-0.432905 2.71128 -1.48993e-18)
(-0.433456 2.69689 -7.44846e-19)
(-0.432494 2.68431 7.44798e-18)
(-0.429869 2.67372 1.48972e-18)
(-0.425492 2.66521 -5.21157e-18)
(-0.419369 2.65869 1.65567e-24)
(-0.411565 2.65403 0)
(-0.402252 2.65095 0)
(-0.391593 2.64928 -5.94509e-18)
(-0.379763 2.64841 8.91093e-18)
(-0.367002 2.64857 -2.96746e-18)
(-0.353574 2.64933 1.6298e-22)
(-0.339734 2.65045 2.95724e-18)
(-0.325678 2.6519 2.9575e-18)
(-0.311556 2.65411 1.77357e-17)
(-0.297644 2.65645 0)
(-0.283994 2.65927 8.83815e-18)
(-0.270752 2.66326 -8.83435e-18)
(-0.258058 2.66834 5.88688e-18)
(-0.246082 2.6747 -5.87623e-18)
(-0.234949 2.68333 5.87525e-18)
(-0.224719 2.69434 0)
(-0.215507 2.70845 0)
(-0.207392 2.72574 -2.93399e-18)
(0.608139 3.74508 8.87085e-16)
(0.52384 3.0462 -1.91394e-16)
(-1.31747 4.7304 -3.50745e-16)
(0.859948 4.16583 8.59907e-16)
(0.762971 4.4323 1.09764e-20)
(0.631771 4.71768 8.61488e-16)
(0.51727 3.15005 2.10454e-16)
(-0.61971 4.781 -9.36255e-16)
(0.225339 4.8693 0)
(-0.207579 4.89582 0)
(-0.369486 5.75731 -6.80425e-17)
(1.56375 3.76742 -4.24763e-16)
(-0.481301 5.48622 2.90027e-17)
(0.243552 3.36078 -8.44708e-16)
(0.467803 2.61444 -9.63478e-17)
(0.529629 3.50276 -5.64827e-16)
(0.248979 7.54372 0)
(0.15805 7.78579 -5.97525e-17)
(0.432344 2.62946 0)
(0.416937 2.64471 3.00238e-18)
(0.404053 2.65513 5.99057e-18)
(0.395773 2.65869 2.25052e-18)
(0.392019 2.65643 3.76219e-19)
(0.391998 2.65087 0)
(0.394474 2.64072 7.54005e-18)
(0.398635 2.62963 -7.54972e-18)
(0.403799 2.61527 3.0021e-18)
(0.408791 2.59919 -5.98604e-18)
(0.413281 2.58229 1.4933e-18)
(0.416968 2.5654 0)
(0.419514 2.54907 2.98179e-18)
(0.420664 2.53383 -1.49085e-18)
(0.42025 2.52011 1.48971e-18)
(0.418214 2.50798 -2.60748e-18)
(0.414423 2.49771 3.02641e-18)
(0.408811 2.48931 5.26632e-23)
(0.40146 2.48266 -1.58324e-18)
(0.392516 2.4777 7.45062e-19)
(0.382213 2.4741 -8.38218e-19)
(0.370744 2.47156 0)
(0.358326 2.46986 3.72652e-19)
(0.345211 2.46871 -1.86362e-19)
(0.331591 2.46781 -7.4555e-19)
(0.317729 2.46729 6.4649e-19)
(0.303835 2.46725 9.31993e-20)
(0.290093 2.46816 -3.72694e-19)
(0.276659 2.4698 0)
(0.263601 2.47302 0)
(0.251047 2.47725 -1.49078e-18)
(0.239037 2.4836 8.19444e-18)
(0.227785 2.49177 -1.49031e-18)
(0.217297 2.50292 0)
(0.207696 2.51694 5.95149e-18)
(0.199076 2.53458 -1.86848e-22)
(-0.0540966 7.93098 3.19972e-16)
(-0.200426 2.74606 2.93459e-18)
(-0.197734 2.86197 0)
(-0.188189 2.94165 -7.33648e-19)
(-0.17256 2.9959 7.32773e-19)
(-0.151562 3.03305 1.83361e-18)
(-0.12635 3.05879 -1.46704e-18)
(-0.0978742 3.07649 3.67207e-19)
(-0.0670648 3.08809 7.35031e-19)
(-0.0346956 3.09453 5.15008e-18)
(-0.00177729 3.09603 -7.35584e-18)
(0.0310278 3.09255 -5.89111e-18)
(0.0631728 3.08407 5.89578e-18)
(0.0938856 3.07035 -7.37307e-19)
(0.122268 3.05057 1.47568e-18)
(0.147396 3.02267 -5.90858e-18)
(0.168031 2.98313 -1.47709e-18)
(0.183505 2.92627 5.91847e-18)
(0.19291 2.84377 0)
(0.19567 2.72484 2.9645e-18)
(0.191373 2.55653 -1.48338e-18)
(0.649988 3.59734 4.65072e-16)
(0.539926 2.94122 -1.67318e-16)
(0.923864 3.92099 -4.27258e-16)
(-0.778739 7.11384 0)
(-0.467882 7.24947 0)
(-0.0701601 7.25703 -1.10527e-16)
(0.351792 7.21333 -2.76894e-17)
(0.739721 7.11094 -3.45091e-17)
(0.546541 7.41979 -8.48487e-17)
(0.366256 7.64504 1.18232e-16)
(0.209021 7.79156 6.42816e-17)
(0.437021 2.06178 0)
(-0.125488 7.85591 -6.32678e-17)
(1.55961 3.32814 8.38669e-21)
(1.36002 2.58792 3.79959e-16)
(1.5267 3.30038 -3.62892e-16)
(1.06942 4.14464 -4.30344e-16)
(0.987297 4.44732 0)
(0.867955 4.77379 0)
(0.548778 3.19128 4.39616e-16)
(0.783315 3.73694 8.66876e-16)
(-0.709698 6.75241 -8.48585e-17)
(-1.53378 3.48063 3.54427e-16)
(-1.49354 3.09541 -3.66939e-16)
(-1.41276 2.79977 0)
(-1.30798 2.57202 -7.79174e-16)
(-1.19646 2.38831 3.91857e-16)
(-1.03122 2.46298 -5.28157e-16)
(-0.86337 1.619 -3.22943e-16)
(-0.856444 2.26885 1.02277e-16)
(-0.777285 2.35801 -1.13872e-16)
(-0.6965 2.43031 5.00024e-17)
(-0.621813 2.49111 -4.92763e-17)
(-0.556791 2.54166 0)
(-0.503863 2.58305 -3.03898e-18)
(-0.463049 2.61576 -4.54584e-18)
(-0.433132 2.64009 1.81109e-17)
(-0.412503 2.65663 6.01883e-18)
(-0.399391 2.66603 -3.00291e-17)
(-0.392145 2.66903 1.19906e-17)
(-0.38922 2.66627 1.49657e-17)
(-0.389436 2.65886 -1.19617e-17)
(-0.391884 2.64751 7.47408e-18)
(-0.39566 2.63324 -7.47181e-18)
(-0.40009 2.61704 -2.98823e-18)
(-0.404632 2.5996 8.9584e-18)
(-0.408826 2.58162 1.49249e-18)
(-0.41215 2.56381 5.96812e-18)
(-0.414311 2.5467 -5.96618e-18)
(-0.41509 2.53089 0)
(-0.414354 2.51675 -1.49147e-18)
(-0.411965 2.50451 -7.45672e-19)
(-0.407832 2.49443 -7.45577e-18)
(-0.401991 2.48635 6.70841e-18)