/*--------------------------------*- C++ -*----------------------------------*\
| =========                 |                                                 |
| \\      /  F ield         | OpenFOAM: The Open Source CFD Toolbox           |
|  \\    /   O peration     | Version:  2212                                  |
|   \\  /    A nd           | Website:  www.openfoam.com                      |
|    \\/     M anipulation  |                                                 |
\*---------------------------------------------------------------------------*/
FoamFile
{
    version     2.0;
    format      ascii;
    arch        "LSB;label=32;scalar=64";
    class       volVectorField;
    location    "0.209";
    object      U_0;
}
// * * * * * * * * * * * * * * * * * * * * * * * * * * * * * * * * * * * * * //

dimensions      [0 1 -1 0 0 0 0];

internalField   nonuniform List<vector> 
24240
(
(9.08346 0.727357 5.85605e-07)
(9.08361 0.72737 -1.69175e-06)
(9.08361 0.727369 -2.17029e-06)
(9.08361 0.72737 -3.33737e-06)
(9.08361 0.72737 -3.95445e-06)
(9.08362 0.72737 -4.64206e-06)
(9.08363 0.727371 -5.08572e-06)
(9.08363 0.727371 -5.43935e-06)
(9.08364 0.727371 -5.61789e-06)
(9.08364 0.727372 -5.66502e-06)
(9.08365 0.727373 -5.55996e-06)
(9.08366 0.727373 -5.3295e-06)
(9.08366 0.727374 -4.96684e-06)
(9.08367 0.727374 -4.52441e-06)
(9.08367 0.727375 -3.95926e-06)
(9.08368 0.727375 -3.4327e-06)
(9.08368 0.727375 -2.68285e-06)
(9.08368 0.727376 -2.29257e-06)
(9.08369 0.727376 -1.1047e-06)
(9.08355 0.727364 -1.60091e-06)
(9.04336 0.730812 -6.74805e-07)
(9.0435 0.730826 -1.45401e-06)
(9.04351 0.730827 -2.14923e-06)
(9.04351 0.73083 -2.98827e-06)
(9.04351 0.730833 -3.56696e-06)
(9.04351 0.730837 -4.12046e-06)
(9.04351 0.730841 -4.48194e-06)
(9.04351 0.730846 -4.74131e-06)
(9.04351 0.73085 -4.84564e-06)
(9.04351 0.730855 -4.8326e-06)
(9.04352 0.73086 -4.69245e-06)
(9.04352 0.730864 -4.45196e-06)
(9.04352 0.730868 -4.11138e-06)
(9.04352 0.730872 -3.71214e-06)
(9.04352 0.730875 -3.22957e-06)
(9.04352 0.730878 -2.75716e-06)
(9.04352 0.73088 -2.15952e-06)
(9.04352 0.730882 -1.66439e-06)
(9.04353 0.730883 -9.16384e-07)
(9.04338 0.730871 -1.70221e-07)
(9.07911 0.460132 -7.68578e-08)
(9.07925 0.460141 5.27384e-07)
(9.07925 0.460141 1.15948e-06)
(9.07925 0.460142 1.48341e-06)
(9.07925 0.460143 1.87291e-06)
(9.07925 0.460144 2.0686e-06)
(9.07925 0.460146 2.22183e-06)
(9.07925 0.460147 2.25546e-06)
(9.07925 0.460149 2.22189e-06)
(9.07925 0.46015 2.11107e-06)
(9.07925 0.460152 1.94946e-06)
(9.07925 0.460153 1.74506e-06)
(9.07925 0.460155 1.52103e-06)
(9.07924 0.460156 1.27741e-06)
(9.07924 0.460157 1.06324e-06)
(9.07924 0.460158 8.19145e-07)
(9.07924 0.460159 6.89529e-07)
(9.07924 0.460159 4.50651e-07)
(9.07924 0.46016 4.26695e-07)
(9.0791 0.460151 3.40326e-07)
(8.97969 0.454996 -3.43423e-07)
(8.97983 0.455005 -7.64733e-07)
(8.97983 0.455005 -1.05676e-06)
(8.97983 0.455006 -1.43414e-06)
(8.97983 0.455006 -1.71846e-06)
(8.97983 0.455007 -1.96908e-06)
(8.97983 0.455008 -2.1286e-06)
(8.97983 0.455009 -2.23584e-06)
(8.97983 0.455009 -2.26666e-06)
(8.97983 0.45501 -2.24085e-06)
(8.97983 0.455011 -2.15484e-06)
(8.97983 0.455012 -2.02303e-06)
(8.97983 0.455013 -1.84604e-06)
(8.97983 0.455013 -1.64431e-06)
(8.97983 0.455014 -1.40535e-06)
(8.97983 0.455015 -1.17245e-06)
(8.97982 0.455015 -8.95755e-07)
(8.97982 0.455016 -6.51794e-07)
(8.97982 0.455016 -2.73314e-07)
(8.97968 0.455007 -2.16509e-08)
(9.00439 0.264844 1.69437e-07)
(9.00453 0.26485 9.39507e-07)
(9.00453 0.26485 1.75209e-06)
(9.00453 0.264851 2.34766e-06)
(9.00452 0.264851 2.86992e-06)
(9.00452 0.264852 3.24969e-06)
(9.00452 0.264853 3.52375e-06)
(9.00452 0.264854 3.6593e-06)
(9.00451 0.264855 3.68528e-06)
(9.00451 0.264856 3.59841e-06)
(9.00451 0.264857 3.42302e-06)
(9.0045 0.264858 3.17207e-06)
(9.0045 0.264859 2.8684e-06)
(9.0045 0.26486 2.52203e-06)
(9.0045 0.26486 2.16691e-06)
(9.0045 0.264861 1.78951e-06)
(9.00449 0.264861 1.4347e-06)
(9.00449 0.264862 1.05149e-06)
(9.00449 0.264862 7.69687e-07)
(9.00435 0.264857 3.69628e-07)
(8.92401 0.257654 -1.3697e-07)
(8.92415 0.257659 -2.42e-07)
(8.92415 0.257659 -2.8394e-07)
(8.92415 0.257659 -3.73527e-07)
(8.92415 0.257658 -4.12984e-07)
(8.92415 0.257658 -4.65359e-07)
(8.92415 0.257657 -4.85566e-07)
(8.92415 0.257656 -5.0084e-07)
(8.92415 0.257656 -4.92683e-07)
(8.92414 0.257655 -4.74596e-07)
(8.92414 0.257655 -4.40214e-07)
(8.92414 0.257654 -3.97584e-07)
(8.92414 0.257654 -3.41151e-07)
(8.92414 0.257653 -2.85627e-07)
(8.92413 0.257653 -2.10561e-07)
(8.92413 0.257653 -1.52289e-07)
(8.92413 0.257652 -5.72746e-08)
(8.92413 0.257652 -1.42043e-08)
(8.92413 0.257652 8.31495e-08)
(8.92399 0.257646 8.27213e-08)
(8.93972 0.119049 1.06196e-07)
(8.93987 0.119052 6.48538e-07)
(8.93986 0.119052 1.21868e-06)
(8.93986 0.119052 1.65153e-06)
(8.93986 0.119052 2.03156e-06)
(8.93986 0.119052 2.31979e-06)
(8.93985 0.119053 2.53074e-06)
(8.93985 0.119053 2.6476e-06)
(8.93985 0.119053 2.68302e-06)
(8.93984 0.119053 2.63544e-06)
(8.93984 0.119054 2.51962e-06)
(8.93984 0.119054 2.34232e-06)
(8.93983 0.119054 2.12267e-06)
(8.93983 0.119054 1.86651e-06)
(8.93983 0.119055 1.60273e-06)
(8.93983 0.119055 1.3218e-06)
(8.93982 0.119055 1.05958e-06)
(8.93982 0.119055 7.7573e-07)
(8.93982 0.119055 5.64857e-07)
(8.93968 0.119053 2.82821e-07)
(8.89845 0.107457 -5.98666e-08)
(8.89859 0.107459 -8.41597e-08)
(8.89859 0.107459 -5.06353e-08)
(8.89859 0.107458 -5.80229e-08)
(8.89859 0.107458 -3.40563e-08)
(8.89859 0.107457 -2.66044e-08)
(8.89858 0.107456 -5.68155e-09)
(8.89858 0.107455 8.70092e-09)
(8.89858 0.107455 2.79973e-08)
(8.89858 0.107454 4.33165e-08)
(8.89857 0.107453 6.10953e-08)
(8.89857 0.107452 7.59143e-08)
(8.89857 0.107452 9.77517e-08)
(8.89857 0.107451 1.12456e-07)
(8.89857 0.107451 1.41125e-07)
(8.89856 0.10745 1.46585e-07)
(8.89856 0.10745 1.7856e-07)
(8.89856 0.107449 1.5227e-07)
(8.89856 0.107449 1.87412e-07)
(8.89842 0.107447 1.16049e-07)
(8.9083 -0.00223465 8.88301e-09)
(8.90844 -0.00223477 2.84058e-07)
(8.90844 -0.00223489 5.83436e-07)
(8.90844 -0.00223503 8.04857e-07)
(8.90844 -0.00223524 1.00822e-06)
(8.90844 -0.00223548 1.16203e-06)
(8.90844 -0.00223576 1.27824e-06)
(8.90843 -0.00223606 1.34265e-06)
(8.90843 -0.00223638 1.36101e-06)
(8.90843 -0.00223671 1.32926e-06)
(8.90842 -0.00223706 1.2563e-06)
(8.90842 -0.00223741 1.14372e-06)
(8.90842 -0.00223776 1.00992e-06)
(8.90842 -0.00223811 8.54528e-07)
(8.90841 -0.00223846 7.08682e-07)
(8.90841 -0.00223878 5.52967e-07)
(8.90841 -0.00223908 4.37932e-07)
(8.90841 -0.00223935 3.01989e-07)
(8.90841 -0.00223956 2.72876e-07)
(8.90826 -0.00223962 1.95624e-07)
(8.90908 -0.0203755 -1.26684e-07)
(8.90923 -0.0203765 -2.24329e-07)
(8.90923 -0.0203773 -2.72397e-07)
(8.90922 -0.0203784 -3.53105e-07)
(8.90922 -0.0203798 -4.05357e-07)
(8.90922 -0.0203815 -4.54834e-07)
(8.90922 -0.0203834 -4.85231e-07)
(8.90921 -0.0203854 -5.09489e-07)
(8.90921 -0.0203875 -5.22952e-07)
(8.90921 -0.0203895 -5.31922e-07)
(8.9092 -0.0203916 -5.31442e-07)
(8.9092 -0.0203935 -5.27476e-07)
(8.9092 -0.0203953 -5.08348e-07)
(8.9092 -0.020397 -4.86452e-07)
(8.90919 -0.0203984 -4.37146e-07)
(8.90919 -0.0203997 -3.96388e-07)
(8.90919 -0.0204007 -3.11376e-07)
(8.90919 -0.0204015 -2.58733e-07)
(8.90919 -0.0204021 -1.07917e-07)
(8.90904 -0.0204017 3.03055e-08)
(8.91204 -0.124228 -2.49169e-07)
(8.91218 -0.124231 -6.71795e-07)
(8.91218 -0.124231 -1.01055e-06)
(8.91218 -0.124231 -1.34756e-06)
(8.91218 -0.12423 -1.61326e-06)
(8.91218 -0.12423 -1.83302e-06)
(8.91217 -0.12423 -1.98705e-06)
(8.91217 -0.12423 -2.08845e-06)
(8.91217 -0.12423 -2.13579e-06)
(8.91216 -0.124229 -2.13803e-06)
(8.91216 -0.124229 -2.09719e-06)
(8.91216 -0.124229 -2.02183e-06)
(8.91216 -0.124229 -1.90668e-06)
(8.91215 -0.124229 -1.76452e-06)
(8.91215 -0.124229 -1.57461e-06)
(8.91215 -0.124229 -1.3723e-06)
(8.91215 -0.124229 -1.10038e-06)
(8.91215 -0.124229 -8.49641e-07)
(8.91215 -0.124229 -4.64061e-07)
(8.912 -0.124226 -1.04252e-07)
(8.95988 -0.141639 -1.51959e-07)
(8.96003 -0.141643 -1.36266e-07)
(8.96003 -0.141643 -8.58145e-08)
(8.96003 -0.141644 -9.49522e-08)
(8.96002 -0.141645 -1.02038e-07)
(8.96002 -0.141646 -1.21548e-07)
(8.96002 -0.141648 -1.44744e-07)
(8.96002 -0.141649 -1.80243e-07)
(8.96001 -0.141651 -2.24576e-07)
(8.96001 -0.141653 -2.80664e-07)
(8.96001 -0.141654 -3.38835e-07)
(8.96 -0.141656 -4.00965e-07)
(8.96 -0.141657 -4.47102e-07)
(8.96 -0.141658 -4.82637e-07)
(8.96 -0.141659 -4.76188e-07)
(8.95999 -0.14166 -4.59188e-07)
(8.95999 -0.141661 -3.80627e-07)
(8.95999 -0.141662 -3.04475e-07)
(8.95999 -0.141662 -1.16348e-07)
(8.95985 -0.141659 7.76113e-08)
(8.95294 -0.266285 -4.68657e-07)
(8.95308 -0.26629 -1.40697e-06)
(8.95308 -0.26629 -2.20438e-06)
(8.95308 -0.26629 -2.96289e-06)
(8.95308 -0.26629 -3.57856e-06)
(8.95308 -0.26629 -4.09383e-06)
(8.95308 -0.266291 -4.46944e-06)
(8.95308 -0.266291 -4.71752e-06)
(8.95307 -0.266291 -4.83279e-06)
(8.95307 -0.266291 -4.82632e-06)
(8.95307 -0.266291 -4.70365e-06)
(8.95307 -0.266291 -4.47866e-06)
(8.95307 -0.266291 -4.15591e-06)
(8.95307 -0.266291 -3.75713e-06)
(8.95307 -0.266292 -3.27156e-06)
(8.95306 -0.266292 -2.75393e-06)
(8.95306 -0.266292 -2.14054e-06)
(8.95306 -0.266292 -1.57101e-06)
(8.95306 -0.266292 -8.55669e-07)
(8.95292 -0.266286 -2.39104e-07)
(9.04841 -0.278068 -2.21336e-07)
(9.04856 -0.278075 -1.80015e-07)
(9.04856 -0.278075 -9.16877e-08)
(9.04855 -0.278076 -1.11486e-07)
(9.04855 -0.278077 -1.44999e-07)
(9.04855 -0.278078 -1.95066e-07)
(9.04855 -0.278079 -2.53101e-07)
(9.04855 -0.27808 -3.29639e-07)
(9.04854 -0.278081 -4.14701e-07)
(9.04854 -0.278082 -5.11605e-07)
(9.04854 -0.278084 -6.04144e-07)
(9.04853 -0.278085 -6.94009e-07)
(9.04853 -0.278086 -7.53233e-07)
(9.04853 -0.278087 -7.86428e-07)
(9.04853 -0.278088 -7.57605e-07)
(9.04853 -0.278088 -6.99576e-07)
(9.04852 -0.278089 -5.74469e-07)
(9.04852 -0.278089 -4.25003e-07)
(9.04852 -0.27809 -1.54237e-07)
(9.04838 -0.278083 1.02883e-07)
(9.02964 -0.450794 -6.58826e-07)
(9.02978 -0.450804 -1.9655e-06)
(9.02978 -0.450804 -3.10196e-06)
(9.02978 -0.450804 -4.18711e-06)
(9.02978 -0.450804 -5.05791e-06)
(9.02978 -0.450804 -5.81268e-06)
(9.02978 -0.450804 -6.36648e-06)
(9.02978 -0.450805 -6.73907e-06)
(9.02978 -0.450805 -6.91483e-06)
(9.02978 -0.450805 -6.90833e-06)
(9.02978 -0.450806 -6.72542e-06)
(9.02978 -0.450806 -6.38624e-06)
(9.02978 -0.450806 -5.90191e-06)
(9.02978 -0.450807 -5.30412e-06)
(9.02978 -0.450807 -4.59086e-06)
(9.02978 -0.450808 -3.83447e-06)
(9.02978 -0.450808 -2.94667e-06)
(9.02978 -0.450808 -2.14246e-06)
(9.02978 -0.450808 -1.17922e-06)
(9.02964 -0.450799 -3.39733e-07)
(9.16572 -0.455709 -3.29176e-07)
(9.16587 -0.455719 -2.94459e-07)
(9.16587 -0.455719 -1.90768e-07)
(9.16586 -0.45572 -3.02162e-07)
(9.16586 -0.45572 -4.30121e-07)
(9.16586 -0.455721 -5.68979e-07)
(9.16586 -0.455722 -6.96275e-07)
(9.16586 -0.455723 -8.45701e-07)
(9.16586 -0.455724 -9.87113e-07)
(9.16586 -0.455725 -1.13438e-06)
(9.16585 -0.455726 -1.26008e-06)
(9.16585 -0.455727 -1.3688e-06)
(9.16585 -0.455728 -1.42515e-06)
(9.16585 -0.455729 -1.44248e-06)
(9.16585 -0.45573 -1.37236e-06)
(9.16585 -0.45573 -1.26289e-06)
(9.16585 -0.455731 -1.08481e-06)
(9.16585 -0.455731 -8.4801e-07)
(9.16585 -0.455732 -3.9095e-07)
(9.1657 -0.455722 6.23771e-08)
(9.13203 -0.710711 -8.22845e-07)
(9.13217 -0.710726 -2.38044e-06)
(9.13217 -0.710726 -3.70465e-06)
(9.13217 -0.710727 -5.09012e-06)
(9.13217 -0.710728 -6.27947e-06)
(9.13218 -0.710729 -7.26469e-06)
(9.13218 -0.71073 -7.99223e-06)
(9.13218 -0.710731 -8.49018e-06)
(9.13218 -0.710733 -8.73136e-06)
(9.13218 -0.710734 -8.7406e-06)
(9.13218 -0.710736 -8.51917e-06)
(9.13219 -0.710737 -8.09968e-06)
(9.13219 -0.710739 -7.494e-06)
(9.13219 -0.71074 -6.75468e-06)
(9.13219 -0.710741 -5.8818e-06)
(9.13219 -0.710742 -4.96074e-06)
(9.13219 -0.710743 -3.94558e-06)
(9.13219 -0.710744 -2.93834e-06)
(9.13219 -0.710744 -1.60944e-06)
(9.13205 -0.71073 -4.5937e-07)
(9.27756 -0.707887 -6.32458e-07)
(9.27771 -0.707901 -8.52072e-07)
(9.27771 -0.707901 -1.15228e-06)
(9.27771 -0.707902 -1.7382e-06)
(9.27771 -0.707903 -2.08888e-06)
(9.27771 -0.707903 -2.54097e-06)
(9.27771 -0.707904 -2.86185e-06)
(9.27772 -0.707905 -3.17847e-06)
(9.27772 -0.707906 -3.40413e-06)
(9.27772 -0.707907 -3.57981e-06)
(9.27772 -0.707908 -3.66278e-06)
(9.27772 -0.707909 -3.67708e-06)
(9.27772 -0.70791 -3.57858e-06)
(9.27772 -0.707911 -3.41535e-06)
(9.27773 -0.707912 -3.09824e-06)
(9.27773 -0.707913 -2.7674e-06)
(9.27773 -0.707913 -2.19951e-06)
(9.27773 -0.707914 -1.74273e-06)
(9.27773 -0.707914 -9.46786e-07)
(9.27758 -0.707901 -9.19945e-09)
(9.22199 -1.08081 -9.03619e-07)
(9.22213 -1.08083 -2.51688e-06)
(9.22214 -1.08083 -4.30892e-06)
(9.22214 -1.08083 -6.14422e-06)
(9.22214 -1.08084 -7.51914e-06)
(9.22214 -1.08084 -8.76452e-06)
(9.22215 -1.08084 -9.65104e-06)
(9.22215 -1.08085 -1.0292e-05)
(9.22216 -1.08085 -1.06065e-05)
(9.22216 -1.08086 -1.06448e-05)
(9.22216 -1.08086 -1.03881e-05)
(9.22217 -1.08087 -9.8908e-06)
(9.22217 -1.08087 -9.15056e-06)
(9.22218 -1.08087 -8.26386e-06)
(9.22218 -1.08088 -7.19055e-06)
(9.22218 -1.08088 -6.11022e-06)
(9.22219 -1.08088 -4.8052e-06)
(9.22219 -1.08088 -3.72035e-06)
(9.22219 -1.08088 -2.3034e-06)
(9.22204 -1.08086 -6.57348e-07)
(9.27181 -1.05958 4.97772e-07)
(9.27195 -1.05959 -2.32014e-06)
(9.27194 -1.05959 -3.94076e-06)
(9.27195 -1.05959 -6.21407e-06)
(9.27195 -1.05959 -7.57407e-06)
(9.27196 -1.05959 -8.94216e-06)
(9.27197 -1.05959 -9.87997e-06)
(9.27197 -1.05959 -1.06034e-05)
(9.27198 -1.05959 -1.0982e-05)
(9.27199 -1.05959 -1.10812e-05)
(9.272 -1.05959 -1.08573e-05)
(9.27201 -1.05959 -1.03717e-05)
(9.27201 -1.05959 -9.6088e-06)
(9.27202 -1.05959 -8.68931e-06)
(9.27203 -1.05959 -7.53907e-06)
(9.27203 -1.05959 -6.45541e-06)
(9.27203 -1.05959 -5.03238e-06)
(9.27204 -1.05959 -4.2539e-06)
(9.27205 -1.0596 -2.59616e-06)
(9.27191 -1.05958 -2.12169e-06)
(8.72115 0.772244 8.86399e-08)
(8.72129 0.772257 -2.28151e-06)
(8.72129 0.772257 -3.47082e-06)
(8.72129 0.772258 -5.02616e-06)
(8.72129 0.772259 -6.01124e-06)
(8.72129 0.77226 -7.00017e-06)
(8.72129 0.772262 -7.65142e-06)
(8.7213 0.772263 -8.14897e-06)
(8.7213 0.772265 -8.38116e-06)
(8.7213 0.772267 -8.41558e-06)
(8.7213 0.772268 -8.22297e-06)
(8.7213 0.77227 -7.85048e-06)
(8.7213 0.772271 -7.28588e-06)
(8.72131 0.772273 -6.61372e-06)
(8.72131 0.772274 -5.76691e-06)
(8.72131 0.772275 -4.95679e-06)
(8.72131 0.772276 -3.88502e-06)
(8.72131 0.772277 -3.11913e-06)
(8.72131 0.772278 -1.79765e-06)
(8.72117 0.772266 -1.52765e-06)
(8.75106 0.778169 -7.34044e-07)
(8.7512 0.778183 -1.66687e-06)
(8.7512 0.778185 -2.53384e-06)
(8.7512 0.778189 -3.48525e-06)
(8.7512 0.778193 -4.15725e-06)
(8.7512 0.778198 -4.81069e-06)
(8.7512 0.778204 -5.23693e-06)
(8.7512 0.77821 -5.55852e-06)
(8.75119 0.778216 -5.69487e-06)
(8.75119 0.778223 -5.70128e-06)
(8.75119 0.778229 -5.55271e-06)
(8.75119 0.778235 -5.29273e-06)
(8.75119 0.778241 -4.90647e-06)
(8.75119 0.778246 -4.45641e-06)
(8.75119 0.778251 -3.88712e-06)
(8.75119 0.778255 -3.33302e-06)
(8.75119 0.778258 -2.60444e-06)
(8.75119 0.778261 -1.96527e-06)
(8.75119 0.778263 -1.1311e-06)
(8.75105 0.778251 -2.70567e-07)
(8.78484 0.544084 1.30913e-08)
(8.78498 0.544094 6.07166e-07)
(8.78498 0.544094 1.16035e-06)
(8.78498 0.544095 1.51556e-06)
(8.78498 0.544097 1.9781e-06)
(8.78498 0.544098 2.21322e-06)
(8.78498 0.5441 2.42464e-06)
(8.78498 0.544102 2.50552e-06)
(8.78498 0.544105 2.52225e-06)
(8.78498 0.544107 2.45027e-06)
(8.78499 0.544109 2.32368e-06)
(8.78499 0.544111 2.1438e-06)
(8.78499 0.544113 1.93767e-06)
(8.78499 0.544115 1.69339e-06)
(8.78499 0.544116 1.48225e-06)
(8.78499 0.544118 1.20437e-06)
(8.78499 0.544119 1.07145e-06)
(8.78499 0.54412 7.59803e-07)
(8.78499 0.544121 5.65577e-07)
(8.78485 0.544112 3.36323e-07)
(8.76599 0.540982 -3.24896e-07)
(8.76613 0.540991 -7.05311e-07)
(8.76613 0.540992 -9.78076e-07)
(8.76613 0.540993 -1.32377e-06)
(8.76613 0.540994 -1.59385e-06)
(8.76613 0.540995 -1.83028e-06)
(8.76613 0.540997 -1.97146e-06)
(8.76613 0.540999 -2.07522e-06)
(8.76613 0.541001 -2.10198e-06)
(8.76613 0.541002 -2.07903e-06)
(8.76613 0.541004 -1.99585e-06)
(8.76613 0.541006 -1.87529e-06)
(8.76613 0.541008 -1.70798e-06)
(8.76612 0.541009 -1.52774e-06)
(8.76612 0.541011 -1.30092e-06)
(8.76612 0.541012 -1.09498e-06)
(8.76612 0.541013 -8.39795e-07)
(8.76612 0.541014 -6.04325e-07)
(8.76612 0.541015 -2.56809e-07)
(8.76598 0.541006 -2.25179e-08)
(8.78887 0.33317 3.6789e-07)
(8.78901 0.333176 1.42541e-06)
(8.78901 0.333177 2.50717e-06)
(8.78901 0.333178 3.38744e-06)
(8.78901 0.333179 4.16009e-06)
(8.78901 0.333181 4.76238e-06)
(8.78901 0.333182 5.2254e-06)
(8.78901 0.333184 5.50314e-06)
(8.78901 0.333185 5.62983e-06)
(8.78901 0.333187 5.59192e-06)
(8.78901 0.333189 5.42163e-06)
(8.78901 0.333191 5.12593e-06)
(8.789 0.333192 4.74024e-06)
(8.789 0.333194 4.26568e-06)
(8.789 0.333195 3.75325e-06)
(8.789 0.333196 3.17072e-06)
(8.789 0.333197 2.578e-06)
(8.789 0.333198 1.91273e-06)
(8.789 0.333198 1.30142e-06)
(8.78886 0.333193 5.26447e-07)
(8.7605 0.325078 1.98254e-09)
(8.76064 0.325084 1.29834e-07)
(8.76064 0.325084 2.67606e-07)
(8.76064 0.325083 3.87706e-07)
(8.76064 0.325083 5.57054e-07)
(8.76064 0.325083 6.60957e-07)
(8.76064 0.325083 7.74062e-07)
(8.76064 0.325083 8.47559e-07)
(8.76063 0.325082 9.15435e-07)
(8.76063 0.325082 9.52165e-07)
(8.76063 0.325082 9.74819e-07)
(8.76063 0.325082 9.68656e-07)
(8.76063 0.325082 9.5406e-07)
(8.76063 0.325082 9.02472e-07)
(8.76063 0.325082 8.5906e-07)
(8.76063 0.325082 7.6449e-07)
(8.76062 0.325082 7.21136e-07)
(8.76062 0.325082 5.76536e-07)
(8.76062 0.325082 4.18835e-07)
(8.76048 0.325076 1.82365e-07)
(8.77225 0.151133 3.29013e-07)
(8.77239 0.151135 1.29224e-06)
(8.77239 0.151136 2.24379e-06)
(8.77239 0.151136 3.06635e-06)
(8.77239 0.151136 3.79329e-06)
(8.77239 0.151136 4.37913e-06)
(8.77239 0.151137 4.83494e-06)
(8.77239 0.151137 5.13165e-06)
(8.77239 0.151137 5.28724e-06)
(8.77239 0.151138 5.29212e-06)
(8.77238 0.151138 5.16964e-06)
(8.77238 0.151139 4.92295e-06)
(8.77238 0.151139 4.58421e-06)
(8.77238 0.151139 4.15199e-06)
(8.77238 0.15114 3.67412e-06)
(8.77238 0.15114 3.12593e-06)
(8.77237 0.15114 2.56215e-06)
(8.77237 0.151141 1.91823e-06)
(8.77237 0.151141 1.27859e-06)
(8.77223 0.151138 5.29884e-07)
(8.75846 0.136439 9.11484e-08)
(8.7586 0.136441 3.2235e-07)
(8.7586 0.136441 5.69811e-07)
(8.7586 0.13644 8.02238e-07)
(8.7586 0.136439 1.05802e-06)
(8.7586 0.136439 1.25059e-06)
(8.7586 0.136438 1.43123e-06)
(8.7586 0.136437 1.56065e-06)
(8.75859 0.136435 1.65921e-06)
(8.75859 0.136434 1.7094e-06)
(8.75859 0.136433 1.72906e-06)
(8.75859 0.136432 1.70288e-06)
(8.75859 0.136432 1.65449e-06)
(8.75858 0.136431 1.55802e-06)
(8.75858 0.13643 1.45623e-06)
(8.75858 0.136429 1.28783e-06)
(8.75858 0.136429 1.14301e-06)
(8.75858 0.136428 8.84637e-07)
(8.75858 0.136428 6.31315e-07)
(8.75844 0.136426 2.63781e-07)
(8.76357 -0.0129643 1.8119e-07)
(8.76371 -0.0129647 7.66383e-07)
(8.76371 -0.0129648 1.34458e-06)
(8.76371 -0.0129649 1.86841e-06)
(8.76371 -0.012965 2.3555e-06)
(8.76371 -0.0129652 2.75532e-06)
(8.76371 -0.0129654 3.08433e-06)
(8.76371 -0.0129657 3.31218e-06)
(8.76371 -0.0129659 3.44839e-06)
(8.76371 -0.0129662 3.48015e-06)
(8.7637 -0.0129665 3.42287e-06)
(8.7637 -0.0129667 3.27078e-06)
(8.7637 -0.012967 3.05422e-06)
(8.7637 -0.0129673 2.76378e-06)
(8.7637 -0.0129675 2.45064e-06)
(8.7637 -0.0129678 2.07748e-06)
(8.7637 -0.012968 1.72106e-06)
(8.7637 -0.0129682 1.27704e-06)
(8.7637 -0.0129683 8.78371e-07)
(8.76356 -0.0129681 4.05963e-07)
(8.7716 -0.032851 1.34669e-08)
(8.77174 -0.0328523 1.91588e-07)
(8.77174 -0.0328531 3.87091e-07)
(8.77174 -0.0328544 5.6395e-07)
(8.77174 -0.032856 7.52879e-07)
(8.77174 -0.0328579 9.04871e-07)
(8.77174 -0.0328601 1.0459e-06)
(8.77173 -0.0328623 1.14805e-06)
(8.77173 -0.0328647 1.2225e-06)
(8.77173 -0.0328671 1.25588e-06)
(8.77173 -0.0328695 1.26416e-06)
(8.77173 -0.0328718 1.23273e-06)
(8.77172 -0.032874 1.18572e-06)
(8.77172 -0.0328759 1.10204e-06)
(8.77172 -0.0328777 1.0247e-06)
(8.77172 -0.0328792 8.94781e-07)
(8.77172 -0.0328804 7.91123e-07)
(8.77172 -0.0328814 5.99901e-07)
(8.77171 -0.0328821 4.40934e-07)
(8.77157 -0.0328815 2.29785e-07)
(8.77193 -0.180138 -1.17106e-07)
(8.77207 -0.180142 -3.21653e-07)
(8.77207 -0.180142 -4.68353e-07)
(8.77207 -0.180142 -5.92498e-07)
(8.77207 -0.180142 -6.4927e-07)
(8.77207 -0.180142 -6.96402e-07)
(8.77207 -0.180142 -7.00548e-07)
(8.77207 -0.180142 -6.90158e-07)
(8.77206 -0.180142 -6.58628e-07)
(8.77206 -0.180142 -6.21002e-07)
(8.77206 -0.180142 -5.73281e-07)
(8.77206 -0.180142 -5.28716e-07)
(8.77206 -0.180142 -4.72091e-07)
(8.77205 -0.180142 -4.23418e-07)
(8.77205 -0.180142 -3.41081e-07)
(8.77205 -0.180142 -2.84848e-07)
(8.77205 -0.180142 -1.61944e-07)
(8.77205 -0.180142 -1.19842e-07)
(8.77205 -0.180142 -1.62758e-09)
(8.77191 -0.180138 5.5617e-08)
(8.80537 -0.19691 -4.35299e-08)
(8.80551 -0.196915 1.82956e-07)
(8.80551 -0.196916 4.2295e-07)
(8.80551 -0.196917 6.2764e-07)
(8.80551 -0.196918 8.26575e-07)
(8.80551 -0.19692 9.90892e-07)
(8.80551 -0.196922 1.13211e-06)
(8.80551 -0.196924 1.22973e-06)
(8.80551 -0.196926 1.29064e-06)
(8.80551 -0.196928 1.30403e-06)
(8.80551 -0.196931 1.28616e-06)
(8.8055 -0.196933 1.22752e-06)
(8.8055 -0.196935 1.15903e-06)
(8.8055 -0.196937 1.06195e-06)
(8.8055 -0.196938 9.85353e-07)
(8.8055 -0.19694 8.72746e-07)
(8.8055 -0.196941 7.87837e-07)
(8.8055 -0.196941 6.37678e-07)
(8.80549 -0.196942 5.09221e-07)
(8.80535 -0.196938 3.07499e-07)
(8.79764 -0.366518 -4.21359e-07)
(8.79778 -0.366525 -1.31468e-06)
(8.79778 -0.366525 -2.10905e-06)
(8.79778 -0.366525 -2.81665e-06)
(8.79778 -0.366525 -3.35209e-06)
(8.79777 -0.366525 -3.81459e-06)
(8.79777 -0.366526 -4.13716e-06)
(8.79777 -0.366526 -4.34576e-06)
(8.79777 -0.366526 -4.42781e-06)
(8.79777 -0.366526 -4.40034e-06)
(8.79777 -0.366527 -4.26468e-06)
(8.79776 -0.366527 -4.03996e-06)
(8.79776 -0.366527 -3.72318e-06)
(8.79776 -0.366528 -3.34414e-06)
(8.79776 -0.366528 -2.87242e-06)
(8.79776 -0.366528 -2.38722e-06)
(8.79776 -0.366528 -1.77657e-06)
(8.79776 -0.366528 -1.2646e-06)
(8.79776 -0.366528 -6.83615e-07)
(8.79762 -0.366522 -1.89913e-07)
(8.8531 -0.376054 -1.22875e-07)
(8.85324 -0.376061 6.74763e-08)
(8.85324 -0.376062 2.98829e-07)
(8.85324 -0.376063 4.49389e-07)
(8.85324 -0.376065 5.7412e-07)
(8.85324 -0.376066 6.79275e-07)
(8.85324 -0.376068 7.65855e-07)
(8.85323 -0.37607 8.11457e-07)
(8.85323 -0.376072 8.30688e-07)
(8.85323 -0.376074 8.08733e-07)
(8.85323 -0.376077 7.70116e-07)
(8.85323 -0.376079 7.04041e-07)
(8.85323 -0.376081 6.51497e-07)
(8.85323 -0.376082 5.90487e-07)
(8.85323 -0.376084 5.74035e-07)
(8.85323 -0.376085 5.44799e-07)
(8.85323 -0.376086 5.37392e-07)
(8.85323 -0.376087 5.00478e-07)
(8.85322 -0.376088 4.83181e-07)
(8.85308 -0.376081 3.27219e-07)
(8.83377 -0.587736 -7.3239e-07)
(8.83391 -0.587747 -2.23945e-06)
(8.83391 -0.587747 -3.65343e-06)
(8.83391 -0.587747 -4.91097e-06)
(8.83391 -0.587747 -5.86831e-06)
(8.83391 -0.587748 -6.74114e-06)
(8.83391 -0.587748 -7.37653e-06)
(8.83391 -0.587749 -7.81141e-06)
(8.83391 -0.587749 -8.01724e-06)
(8.83391 -0.58775 -8.01673e-06)
(8.8339 -0.58775 -7.81213e-06)
(8.8339 -0.587751 -7.43115e-06)
(8.8339 -0.587752 -6.87966e-06)
(8.8339 -0.587752 -6.19934e-06)
(8.8339 -0.587753 -5.36888e-06)
(8.8339 -0.587753 -4.48504e-06)
(8.8339 -0.587754 -3.38173e-06)
(8.8339 -0.587754 -2.41283e-06)
(8.8339 -0.587754 -1.37826e-06)
(8.83376 -0.587744 -4.17612e-07)
(8.89544 -0.587736 -2.31578e-07)
(8.89558 -0.587747 -1.20345e-07)
(8.89558 -0.587748 8.87136e-08)
(8.89558 -0.587749 8.40882e-08)
(8.89558 -0.587751 1.79077e-08)
(8.89558 -0.587752 -1.46552e-08)
(8.89558 -0.587754 -3.28188e-08)
(8.89558 -0.587756 -8.59579e-08)
(8.89558 -0.587758 -1.33978e-07)
(8.89558 -0.58776 -2.08184e-07)
(8.89558 -0.587762 -2.6737e-07)
(8.89558 -0.587764 -3.31948e-07)
(8.89558 -0.587766 -3.46556e-07)
(8.89558 -0.587768 -3.53467e-07)
(8.89558 -0.58777 -2.80698e-07)
(8.89558 -0.587771 -2.09718e-07)
(8.89558 -0.587772 -1.51791e-07)
(8.89558 -0.587773 -3.95773e-08)
(8.89558 -0.587774 1.98184e-07)
(8.89543 -0.587763 2.44546e-07)
(8.85937 -0.853839 -1.03213e-06)
(8.85951 -0.853854 -3.07153e-06)
(8.85951 -0.853855 -4.85455e-06)
(8.85951 -0.853856 -6.67322e-06)
(8.85951 -0.853857 -8.29316e-06)
(8.85951 -0.853859 -9.60757e-06)
(8.85951 -0.853861 -1.05855e-05)
(8.85951 -0.853863 -1.12629e-05)
(8.85951 -0.853865 -1.15984e-05)
(8.85951 -0.853868 -1.16321e-05)
(8.85951 -0.85387 -1.13583e-05)
(8.85951 -0.853873 -1.08278e-05)
(8.85951 -0.853875 -1.00468e-05)
(8.85951 -0.853877 -9.09068e-06)
(8.85951 -0.853879 -7.94834e-06)
(8.85951 -0.85388 -6.72179e-06)
(8.85951 -0.853881 -5.39343e-06)
(8.85951 -0.853883 -3.97827e-06)
(8.85951 -0.853884 -2.24005e-06)
(8.85937 -0.853869 -7.06387e-07)
(8.89209 -0.840612 -5.41413e-07)
(8.89223 -0.840626 -8.97475e-07)
(8.89224 -0.840627 -1.54921e-06)
(8.89224 -0.840628 -2.26354e-06)
(8.89224 -0.840629 -2.64036e-06)
(8.89224 -0.840631 -3.15877e-06)
(8.89224 -0.840632 -3.48191e-06)
(8.89224 -0.840635 -3.80595e-06)
(8.89224 -0.840637 -3.99337e-06)
(8.89224 -0.840639 -4.12241e-06)
(8.89224 -0.840641 -4.11988e-06)
(8.89224 -0.840643 -4.04133e-06)
(8.89225 -0.840645 -3.81574e-06)
(8.89225 -0.840647 -3.53664e-06)
(8.89225 -0.840648 -3.06283e-06)
(8.89225 -0.84065 -2.62441e-06)
(8.89225 -0.840651 -1.89607e-06)
(8.89225 -0.840652 -1.40113e-06)
(8.89225 -0.840653 -8.38282e-07)
(8.89211 -0.840639 -5.15689e-08)
(8.83278 -1.14658 -1.2346e-06)
(8.83292 -1.1466 -3.64178e-06)
(8.83292 -1.1466 -6.2744e-06)
(8.83292 -1.14661 -8.79767e-06)
(8.83292 -1.14661 -1.07859e-05)
(8.83293 -1.14662 -1.2561e-05)
(8.83293 -1.14662 -1.38394e-05)
(8.83293 -1.14663 -1.47684e-05)
(8.83293 -1.14664 -1.52285e-05)
(8.83293 -1.14664 -1.5299e-05)
(8.83293 -1.14665 -1.49433e-05)
(8.83293 -1.14666 -1.42494e-05)
(8.83293 -1.14666 -1.32088e-05)
(8.83294 -1.14667 -1.1961e-05)
(8.83294 -1.14667 -1.04388e-05)
(8.83294 -1.14668 -8.88228e-06)
(8.83294 -1.14668 -7.02136e-06)
(8.83294 -1.14668 -5.3069e-06)
(8.83294 -1.14668 -3.34222e-06)
(8.8328 -1.14667 -1.0698e-06)
(8.79857 -1.11162 1.16944e-06)
(8.7987 -1.11164 -2.69151e-06)
(8.79869 -1.11164 -5.68176e-06)
(8.79869 -1.11164 -8.66589e-06)
(8.79869 -1.11164 -1.06279e-05)
(8.79869 -1.11164 -1.24789e-05)
(8.7987 -1.11164 -1.37526e-05)
(8.7987 -1.11164 -1.47125e-05)
(8.7987 -1.11164 -1.51768e-05)
(8.79871 -1.11164 -1.52481e-05)
(8.79871 -1.11164 -1.48639e-05)
(8.79871 -1.11164 -1.41273e-05)
(8.79871 -1.11164 -1.30083e-05)
(8.79872 -1.11163 -1.16944e-05)
(8.79872 -1.11163 -1.00818e-05)
(8.79872 -1.11163 -8.55005e-06)
(8.79872 -1.11163 -6.66576e-06)
(8.79872 -1.11163 -5.43317e-06)
(8.79873 -1.11164 -3.91057e-06)
(8.79861 -1.11162 -3.32242e-06)
(8.80366 0.733149 -2.25409e-07)
(8.8038 0.733162 -3.12843e-06)
(8.80379 0.733162 -3.72444e-06)
(8.80379 0.733163 -5.24772e-06)
(8.80379 0.733164 -6.16534e-06)
(8.80379 0.733166 -7.1797e-06)
(8.80379 0.733167 -7.84202e-06)
(8.80379 0.733169 -8.36698e-06)
(8.80379 0.733171 -8.62118e-06)
(8.80379 0.733173 -8.68274e-06)
(8.80379 0.733175 -8.51358e-06)
(8.80379 0.733176 -8.16838e-06)
(8.80379 0.733178 -7.62383e-06)
(8.80379 0.73318 -6.97425e-06)
(8.80379 0.733181 -6.12199e-06)
(8.80379 0.733182 -5.30953e-06)
(8.80379 0.733183 -4.1075e-06)
(8.80379 0.733184 -3.23448e-06)
(8.80379 0.733185 -1.17971e-06)
(8.80366 0.733173 -1.27473e-06)
(8.72007 0.7332 -1.08005e-06)
(8.7202 0.733213 -1.92719e-06)
(8.7202 0.733215 -2.58008e-06)
(8.7202 0.733219 -3.44904e-06)
(8.7202 0.733223 -4.06301e-06)
(8.7202 0.733228 -4.69981e-06)
(8.7202 0.733234 -5.11546e-06)
(8.72021 0.73324 -5.44081e-06)
(8.72021 0.733246 -5.58309e-06)
(8.72021 0.733253 -5.60566e-06)
(8.72021 0.733259 -5.47754e-06)
(8.72021 0.733265 -5.24791e-06)
(8.72021 0.733271 -4.89243e-06)
(8.72021 0.733276 -4.48022e-06)
(8.72021 0.733281 -3.93656e-06)
(8.72021 0.733285 -3.40777e-06)
(8.72021 0.733288 -2.65522e-06)
(8.72021 0.733291 -1.97229e-06)
(8.72021 0.733293 -9.0417e-07)
(8.72007 0.733282 8.33636e-08)
(8.75079 0.505002 -2.62185e-07)
(8.75093 0.505011 3.83365e-07)
(8.75092 0.505011 9.48918e-07)
(8.75092 0.505013 1.28345e-06)
(8.75092 0.505014 1.78647e-06)
(8.75092 0.505015 2.01484e-06)
(8.75092 0.505017 2.23515e-06)
(8.75092 0.505019 2.33193e-06)
(8.75092 0.505021 2.37322e-06)
(8.75092 0.505023 2.3218e-06)
(8.75092 0.505025 2.22323e-06)
(8.75092 0.505027 2.06965e-06)
(8.75092 0.505029 1.89264e-06)
(8.75092 0.505031 1.66628e-06)
(8.75092 0.505033 1.48312e-06)
(8.75092 0.505034 1.21703e-06)
(8.75092 0.505035 1.15814e-06)
(8.75092 0.505036 8.5864e-07)
(8.75092 0.505037 7.19195e-07)
(8.75078 0.505029 5.91397e-07)
(8.70185 0.502544 -4.29235e-07)
(8.70199 0.502553 -7.52691e-07)
(8.70199 0.502554 -9.60007e-07)
(8.70199 0.502554 -1.28869e-06)
(8.70199 0.502556 -1.56155e-06)
(8.70199 0.502557 -1.79988e-06)
(8.70199 0.502559 -1.94225e-06)
(8.70199 0.502561 -2.05613e-06)
(8.70199 0.502562 -2.09453e-06)
(8.70199 0.502564 -2.08417e-06)
(8.70199 0.502566 -2.01387e-06)
(8.70198 0.502568 -1.9104e-06)
(8.70198 0.50257 -1.75612e-06)
(8.70198 0.502572 -1.59248e-06)
(8.70198 0.502573 -1.37645e-06)
(8.70198 0.502575 -1.18529e-06)
(8.70198 0.502576 -9.46176e-07)
(8.70198 0.502577 -7.02773e-07)
(8.70198 0.502578 -2.73434e-07)
(8.70185 0.50257 5.95783e-08)
(8.72311 0.308758 2.40038e-07)
(8.72325 0.308763 1.33964e-06)
(8.72325 0.308764 2.42728e-06)
(8.72325 0.308765 3.30733e-06)
(8.72325 0.308767 4.09048e-06)
(8.72325 0.308769 4.70579e-06)
(8.72325 0.308771 5.19257e-06)
(8.72325 0.308773 5.50325e-06)
(8.72325 0.308775 5.66921e-06)
(8.72324 0.308778 5.66993e-06)
(8.72324 0.30878 5.5424e-06)
(8.72324 0.308783 5.28627e-06)
(8.72324 0.308785 4.93591e-06)
(8.72324 0.308787 4.4843e-06)
(8.72324 0.308789 3.98905e-06)
(8.72324 0.30879 3.40165e-06)
(8.72324 0.308792 2.80219e-06)
(8.72324 0.308793 2.09876e-06)
(8.72324 0.308794 1.46064e-06)
(8.7231 0.308789 6.88766e-07)
(8.69121 0.301378 3.50345e-08)
(8.69135 0.301384 3.71948e-07)
(8.69135 0.301384 7.15753e-07)
(8.69135 0.301384 1.00631e-06)
(8.69135 0.301384 1.34112e-06)
(8.69135 0.301384 1.57045e-06)
(8.69135 0.301384 1.78507e-06)
(8.69135 0.301385 1.92924e-06)
(8.69135 0.301385 2.04067e-06)
(8.69135 0.301385 2.08812e-06)
(8.69135 0.301386 2.09939e-06)
(8.69135 0.301386 2.05411e-06)