/*--------------------------------*- C++ -*----------------------------------*\
| =========                 |                                                 |
| \\      /  F ield         | OpenFOAM: The Open Source CFD Toolbox           |
|  \\    /   O peration     | Version:  2212                                  |
|   \\  /    A nd           | Website:  www.openfoam.com                      |
|    \\/     M anipulation  |                                                 |
\*---------------------------------------------------------------------------*/
FoamFile
{
    version     2.0;
    format      ascii;
    arch        "LSB;label=32;scalar=64";
    class       volScalarField;
    location    "0.00091";
    object      p;
}
// * * * * * * * * * * * * * * * * * * * * * * * * * * * * * * * * * * * * * //

dimensions      [1 -1 -2 0 0 0 0];

internalField   nonuniform List<scalar> 
2681
(
190.725
194.35
194.424
190.54
195.212
194.538
190.537
190.544
190.546
190.546
190.542
190.559
190.557
190.606
190.568
190.579
190.584
190.545
190.551
190.555
190.55
190.558
190.557
190.552
190.564
190.56
190.543
190.544
190.541
190.548
190.545
190.55
190.549
190.556
190.554
190.556
190.556
190.558
190.562
190.561
190.564
190.556
190.559
190.551
190.554
194.352
190.547
190.545
190.541
190.542
190.543
190.568
190.585
190.545
190.543
190.556
190.558
190.543
190.541
190.541
190.54
190.551
190.545
190.551
190.554
190.559
190.553
190.568
190.562
190.539
190.578
190.569
190.573
190.558
190.561
190.562
190.542
190.599
195.021
190.543
190.543
190.543
190.545
190.544
190.548
190.546
190.552
190.551
190.554
190.557
190.564
190.552
190.553
190.548
190.55
190.546
190.547
190.544
190.545
190.542
190.542
190.541
190.559
190.575
190.572
190.569
190.542
190.541
190.54
190.576
190.578
190.578
190.581
190.556
190.561
190.559
190.543
190.541
190.541
190.563
190.605
190.579
196.066
190.563
190.567
190.563
190.54
194.435
190.54
190.687
190.624
190.545
190.544
190.548
190.547
190.553
190.552
190.562
190.558
190.572
190.565
190.579
190.574
190.575
190.562
190.569
190.6
190.543
192.687
190.545
190.544
190.542
190.539
190.54
190.543
190.543
190.545
190.544
190.547
190.545
190.55
190.548
190.553
190.552
190.558
190.556
190.615
190.561
190.551
190.555
190.55
190.55
190.548
190.549
190.545
190.546
190.543
190.544
190.542
190.54
190.539
190.539
190.54
190.536
190.542
190.544
190.586
190.587
190.592
190.578
190.566
190.574
190.539
190.563
190.563
190.543
190.542
190.583
190.581
190.539
190.539
241.883
234.068
234.076
241.89
190.538
190.539
190.539
190.564
190.598
190.536
190.54
190.802
194.427
194.826
190.572
190.565
194.175
190.539
190.622
190.543
190.542
190.547
190.545
190.549
190.548
190.557
190.552
190.564
190.561
190.574
190.568
190.58
190.58
190.586
190.576
190.578
190.568
190.573
190.554
190.559
190.55
190.552
190.546
190.548
190.545
227.686
222.407
217.994
214.275
211.12
208.425
206.112
204.121
202.395
200.89
200.876
199.573
198.425
198.411
199.56
204.106
202.376
208.419
206.104
214.277
211.116
222.415
218
227.695
190.541
190.539
190.542
190.542
190.544
190.543
190.546
190.545
190.549
190.548
190.552
190.55
190.555
190.553
190.78
190.557
190.565
190.559
190.564
190.56
190.559
190.553
190.556
190.551
190.552
190.55
190.55
190.547
190.548
190.544
190.545
190.542
190.543
190.54
190.541
190.539
190.539
190.539
190.54
190.54
190.541
190.541
190.737
190.789
190.581
190.567
190.569
190.578
190.54
190.618
251.613
251.624
190.538
191.078
200.918
199.62
190.584
196.007
190.566
190.584
190.54
190.541
251.619
264.004
264.011
190.538
190.538
190.539
190.538
197.377
197.429
190.564
190.569
190.599
190.587
190.566
190.568
194.393
190.619
190.636
190.537
190.541
190.54
190.54
190.575
190.573
190.539
190.538
190.538
190.539
190.539
190.539
190.543
190.543
190.548
190.545
190.551
190.549
190.558
190.554
190.566
190.562
190.576
190.571
190.589
190.582
190.6
190.594
190.626
190.592
190.609
190.576
190.582
190.566
190.571
190.557
190.56
190.551
190.554
190.547
190.549
190.544
190.545
190.542
234.068
241.885
222.402
227.684
214.269
217.988
208.426
211.115
204.13
206.119
202.411
251.635
264.025
264.014
196.512
196.565
190.854
198.503
197.492
200.887
199.6
204.092
202.368
208.409
206.09
214.273
211.111
222.415
217.996
234.085
227.7
241.901
190.54
190.538
190.541
190.541
190.543
190.542
190.546
190.544
190.548
190.547
190.55
190.549
190.553
190.552
190.555
190.554
190.561
190.56
190.566
190.561
190.559
190.565
190.566
190.566
190.561
190.567
190.56
190.561
190.557
190.561
190.552
190.553
190.55
190.551
190.548
190.549
190.545
190.547
190.543
190.544
190.541
190.542
190.54
190.54
190.539
190.539
190.538
190.539
190.539
190.54
194.14
190.713
198.504
190.582
190.57
190.574
190.582
190.539
193.677
190.623
190.565
251.647
264.052
190.537
190.776
190.541
190.539
190.537
190.537
190.542
190.541
196.606
190.636
190.662
193.878
190.537
200.949
199.66
190.644
190.7
190.682
190.573
190.589
190.589
190.573
190.639
251.656
264.06
190.746
194.336
194.713
190.64
190.607
190.572
190.562
190.567
190.563
190.568
190.569
190.605
190.648
197.528
190.537
190.622
190.713
190.58
190.578
190.538
190.537
190.539
190.538
190.54
190.539
190.538
190.539
190.539
190.543
190.541
190.544
190.543
190.548
190.546
190.553
190.55
190.56
190.556
190.569
190.564
190.581
190.575
190.596
190.587
190.624
190.607
190.641
190.619
190.626
190.594
190.609
190.578
190.584
190.567
190.572
190.558
190.562
190.552
190.555
190.547
190.55
190.544
190.546
190.543
234.078
241.902
222.406
227.69
214.272
217.991
208.431
211.119
204.146
206.128
202.433
280.236
280.264
280.245
190.573
280.3
280.255
195.647
195.155
196.836
196.182
198.573
197.627
200.925
199.657
204.101
202.395
208.402
206.086
214.267
211.105
222.411
217.991
234.088
227.698
241.913
190.537
190.537
190.537
190.538
190.538
190.54
190.539
190.54
190.54
190.542
190.541
190.544
190.543
190.546
190.545
190.548
190.547
190.551
190.55
190.553
190.552
190.556
190.554
190.558
190.557
190.563
190.559
190.559
190.559
190.559
190.563
190.559
190.557
190.557
190.559
190.56
190.562
190.557
190.555
190.553
190.556
190.551
190.552
190.549
190.55
190.546
190.547
190.544
190.545
190.542
190.543
190.541
190.541
190.54
190.54
190.538
190.539
190.536
190.537
190.537
190.538
190.537
190.537
190.538
190.538
190.539
190.538
190.539
190.539
190.54
190.54
193.96
195.822
190.559
190.712
198.544
190.81
190.689
190.764
190.759
190.735
190.578
190.585
190.56
190.562
190.585
190.577
190.641
190.667
190.705
190.537
190.742
190.655
190.63
280.306
194.308
194.714
190.537
190.537
190.537
194.106
190.659
190.598
190.576
190.567
190.57
190.576
190.595
190.631
190.539
190.539
196.649
190.727
192.083
194.01
190.572
190.731
194.672
194.679
190.629
195.685
190.606
190.572
190.574
190.612
190.539
190.54
190.539
302.499
280.356
302.563
197.574
190.536
190.612
190.659
190.704
190.552
190.56
190.582
190.562
190.582
190.648
190.537
190.537
190.538
190.537
190.538
190.538
190.539
190.539
190.539
190.54
190.543
190.541
190.545
190.543
190.548
190.547
190.554
190.551
190.561
190.557
190.572
190.566
190.586
190.579
190.602
190.593
190.629
190.612
190.642
190.733
190.632
190.597
190.611
190.578
190.586
190.567
190.572
190.559
190.562
190.553
190.555
190.548
190.55
190.544
190.546
190.542
190.543
190.541
251.67
264.089
234.088
241.918
222.409
227.696
214.274
217.993
208.438
211.123
204.161
206.138
200.979
202.455
198.584
199.698
302.449
280.355
302.563
302.495
302.412
302.429
302.444
195.668
195.172
196.908
196.236
198.616
197.685
200.955
199.691
204.122
202.421
208.404
206.1
214.257
211.097
222.403
217.982
234.087
227.693
251.67
241.917
264.089
190.537
190.537
190.538
190.537
190.539
190.538
190.54
190.539
190.541
190.54
190.543
190.542
190.545
190.544
190.547
190.546
190.549
190.548
190.551
190.55
190.553
190.551
190.555
190.555
190.556
190.556
190.556
190.556
190.556
190.555
190.556
190.556
190.554
190.557
190.553
190.554
190.551
190.552
190.55
190.551
190.547
190.549
190.545
190.546
190.543
190.544
190.541
190.542
190.54
190.541
190.539
190.54
190.538
190.539
190.536
190.536
190.537
190.536
190.538
190.537
190.538
190.538
190.539
190.538
190.539
190.539
192.624
193.66
190.537
190.711
190.668
190.722
190.591
190.58
190.566
190.566
190.582
190.589
190.633
190.554
190.54
190.695
190.769
194.183
190.679
195.781
190.537
190.72
190.678
280.387
302.616
193.766
194.722
190.58
193.949
190.71
190.644
195.019
195.144
190.605
190.576
190.573
190.575
190.581
190.6
190.618
190.537
190.537
190.54
190.539
190.539
190.539
280.402
302.635
339.291
339.389
190.747
196.692
190.536
190.536
197.62
190.542
190.622
190.536
190.687
190.553
190.585
190.568
190.585
190.637
190.537
190.537
190.537
190.537
190.538
190.537
190.538
190.538
190.539
190.539
190.539
190.539
190.539
190.54
190.539
190.542
190.541
190.545
190.543
190.549
190.547
190.555
190.551
190.563
190.558
190.574
190.568
190.59
190.581
190.61
190.6
190.639
190.623
190.662
190.717
190.621
190.646
190.584
190.599
190.569
190.575
190.562
190.565
190.557
190.559
190.552
190.554
190.548
190.55
190.544
190.546
190.542
190.543
190.541
251.69
264.119
234.096
241.929
222.414
227.701
214.283
218
208.449
211.133
204.18
206.153
201.009
202.479
198.636
199.737
339.21
339.383
339.287
339.178
339.185
339.205
195.577
195.086
196.906
196.207
198.643
197.715
200.977
199.722
204.132
202.435
208.407
206.107
214.252
211.098
222.395
217.974
234.081
227.685
251.676
241.915
264.105
195.508
190.537
190.537
190.537
190.537
190.538
190.538
190.539
190.539
190.541
190.54
190.542
190.541
190.544
190.543
190.546
190.545
190.548
190.547
190.549
190.549
190.551
190.55
190.553
190.552
190.553
190.553
190.553
190.553
190.553
190.553
190.554
190.554
190.552
190.553
190.551
190.552
190.55
190.55
190.548
190.549
190.546
190.547
190.544
190.545
190.542
190.543
190.541
190.542
190.54
190.54
190.538
190.539
190.538
190.538
190.537
190.538
190.537
190.537
190.536
190.537
190.537
190.538
190.537
190.538
190.538
190.538
190.755
190.767
339.48
193.5
193.644
193.913
190.774
190.71
190.576
193.714
190.691
190.658
190.704
195.306
190.894
194.994
190.599
190.582
190.573
190.571
190.586
190.592
190.627
190.55
190.536
190.539
190.539
190.704
194.199
190.738
190.691
190.539
339.5
190.787
190.732
195.9
190.536
190.795
196.789
197.686
190.585
193.938
190.699
190.639
190.807
190.607
190.579
190.606
366.917
366.937
193.371
190.621
190.962
190.538
190.57
193.283
193.482
190.677
190.548
190.846
192.85
190.59
190.576
190.589
190.637
190.536
190.537
190.536
190.537
190.537
190.537
190.537
190.537
190.537
190.538
190.537
190.539
190.538
190.539
190.539
190.539
190.54
190.539
190.542
190.541
190.545
190.544
190.549
190.547
190.556
190.552
190.564
190.56
190.575
190.569
190.593
190.583
190.621
190.605
190.664
190.641
190.679
190.796
190.618
190.651
190.577
190.593
190.562
190.568
190.556
190.558
190.554
190.555
190.551
190.552
190.547
190.549
190.544
190.546
190.542
190.543
190.54
190.541
190.539
190.54
280.423
339.575
302.673
251.694
264.13
234.095
241.93
222.416
227.701
214.289
218.004
208.461
211.142
204.196
206.166
201.037
202.501
198.68
199.772
190.876
366.878
366.897
366.88
366.878
366.901
366.878
366.95
366.926
195.556
194.992
196.919
196.211
198.662
197.732
200.996
199.742
204.147
202.453
208.414
206.117
214.252
211.1
222.389
217.971
234.074
227.678
251.678
241.912
280.413
264.116
339.565
302.664
190.536
190.535
190.536
190.92
190.536
190.536
190.536
190.56
190.537
190.536
190.537
190.537
190.538
190.537
190.539
190.538
190.54
190.539
190.541
190.541
190.543
190.542
190.545
190.544
190.546
190.545
190.548
190.547
190.549
190.548
190.551
190.55
190.551
190.551
190.551
190.551
190.551
190.551
190.552
190.552
190.55
190.551
190.549
190.55
190.548
190.549
190.547
190.548
190.545
190.546
190.543
190.544
190.542
190.542
190.54
190.541
190.539
190.54
190.538
190.539
190.538
190.538
190.537
190.537
190.536
190.536
190.536
190.536
190.536
190.536
190.537
190.536
190.537
190.537
190.537
190.537
190.538
190.538
190.538
190.538
190.539
190.539
194.281
194.038
193.535
193.783
194.3
194.62
190.798
196.882
197.739
190.581
193.609
190.681
190.649
190.69
190.855
190.536
190.923
190.805
196.096
190.603
190.586
190.58
190.576
190.588
190.598
190.619
190.638
190.536
190.866
190.539
366.957
366.949
192.322
193.277
193.109
194.631
190.633
190.616
190.54
190.536
190.601
190.754
190.699
191.425
191.551
191.627
191.43
193.144
196.937
190.667
190.579
193.335
190.666
190.677
190.881
190.845
194.077
193.825
190.536
193.557
196.258
196.213
193.734
190.594
190.581
190.594
190.63
190.536
190.536
190.536
190.536
190.537
190.537
190.537
190.537
190.537
190.537
190.538
190.538
190.538
190.538
190.538
190.539
190.539
190.54
190.54
190.542
190.541
190.546
190.544
190.551
190.548
190.557
190.553
190.565
190.561
190.577
190.571
190.596
190.585
190.627
190.609
190.675
190.651
190.715
190.686
190.774
190.704
190.754
190.808
190.632
190.664
190.586
190.606
190.564
190.572
190.556
190.559
190.553
190.555
190.55
190.552
190.547
190.549
190.544
190.546
190.542
190.543
190.54
190.541
190.54
190.54
190.539
366.955
339.591
302.668
280.412
264.116
251.681
241.919
234.086
227.695
222.412
218.001
214.289
211.144
208.465
206.174
204.206
202.512
201.052
199.791
198.702
197.767
196.969
196.292
195.716
195.23
194.796
194.125
190.885
193.513
372.096
372.106
372.112
372.118
372.12
372.126
372.128
372.121
372.123
372.121
372.115
372.105
372.102
191.01
195.127
195.637
196.236
196.919
197.721
198.653
199.739
201
202.46
204.154
206.124
208.418
211.102
214.251
217.969
222.384
227.671
234.067
241.904
251.67
264.11
280.413
302.679
339.629
366.973
372.109
193.267
193.009
193.811
190.629
190.635
191.218
191.178
190.675
190.638
190.626
191.036
190.547
191.97
190.563
192.435
190.958
190.868
194.112
190.989
191.823
191.489
195.54
194.781
195.687
193.43
192.916
191.327
191.803
191.539
191.344
190.75
190.604
190.595
190.585
190.588
190.621
190.61
194.174
193.904
193.641
193.38
193.128
192.894
190.563
190.676
194.942
190.54
191.029
191.1
190.539
190.538
190.538
190.538
190.538
190.538
190.538
190.537
190.537
190.537
190.537
190.537
190.536
190.536
190.536
190.536
190.536
190.536
190.536
190.536
190.536
190.537
190.537
190.537
190.536
190.537
190.537
190.537
190.538
190.538
190.538
190.539
190.539
190.54
190.541
190.541
190.542
190.543
190.543
190.544
190.545
190.546
190.546
190.547
190.547
190.548
190.549
190.549
190.549
190.55
190.55
190.55
190.55
190.55
190.55
190.549
190.549
190.549
190.548
190.548
190.547
190.546
190.546
190.545
190.545
190.544
190.543
190.542
190.542
190.541
190.54
190.54
190.539
190.538
190.538
190.537
190.537
190.536
190.536
190.536
190.536
190.536
371.071
371.091
366.854
372.133
190.537
192.993
190.887
190.535
190.535
190.767
190.663
190.537
190.537
190.536
190.536
190.536
190.536
190.536
190.536
190.537
190.537
190.537
190.537
190.537
190.537
190.537
190.538
190.538
190.537
190.538
190.539
190.541
190.542
190.543
190.544
190.545
190.546
190.548
190.55
190.553
190.556
190.56
190.565
190.572
190.58
190.59
190.603
190.619
190.64
190.668
190.7
190.73
190.753
190.77
190.832
190.788
190.719
190.912
190.874
190.778
190.722
190.696
190.664
190.637
190.617
190.602
190.591
190.582
190.575
190.569
190.563
190.559
190.556
190.553
190.55
190.548
190.547
190.546
190.545
190.544
190.543
190.54
190.542
193.178
190.539
190.538
190.538
190.538
190.538
190.537
190.537
190.537
190.537
190.537
190.537
190.537
190.536
190.536
190.536
190.537
190.537
190.537
190.542
190.536
190.537
190.537
190.537
190.537
190.537
190.537
190.538
190.538
190.538
190.539
190.539
190.539
190.54
190.54
190.541
190.541
190.542
190.543
190.543
190.544
190.544
190.545
190.545
190.546
190.546
190.547
190.547
190.547
190.548
190.548
190.548
190.548
190.548
190.548
190.547
190.547
190.547
190.547
190.546
190.546
190.545
190.545
190.544
190.544
190.543
190.542
190.542
190.541
190.541
190.541
190.54
190.54
190.54
190.54
190.539
190.539
190.539
190.539
190.539
190.538
190.538
190.538
190.537
190.672
191.031
190.537
190.536
192.637
192.308
192.546
192.781
193.082
193.403
193.702
193.999
194.301
194.728
195.178
195.687
196.264
196.932
197.721
198.65
199.733
200.994
202.455
204.15
206.12
208.415
211.098
214.246
217.962
222.376
227.66
234.053
241.887
251.651
264.089
280.393
366.867
339.447
302.656
190.623
190.602
190.584
190.591
191.063
190.779
191.241
192.035
191.891
191.709
191.561
191.411
192.722
190.828
195.206
195.645
371.08
371.086
371.098
371.105
371.11
371.118
371.116
371.108
371.1
371.089
371.078
190.763
195.332
191.649
191.876
191.162
190.689
190.626
190.543
192.482
192.639
192.851
191.145
193.247
193.561
194.486
194.867
195.28
195.747
196.311
196.984
197.777
198.708
199.792
201.051
202.512
204.205
206.172
208.463
211.141
214.285
217.995
222.404
227.684
234.072
241.902
251.661
264.094
280.392
302.644
339.411
193.939
193.849
190.916
190.918
191.107
192.208
190.657
190.657
190.546
190.56
190.539
371.087
372.134
190.623
192.473
191.019
194.364
371.235
371.237
190.537
193.177
192.173
191.103
190.65
190.613
190.595
191.289
190.537
190.547
190.973
190.546
192.471
190.633
191.313
190.971
194.153
339.371
372.233
366.935
280.28
302.543
251.591
264.001
234.031
241.85
222.378
227.652
214.268
217.974
208.451
211.127
204.195
206.161
201.043
202.502
198.7
199.784
196.969
197.767
195.728
196.293
194.824
195.252
194.117
194.446
193.457
193.782
192.903
193.139
192.574
192.76
192.24
192.458
191.797
191.929
191.631
191.71
191.274
365.079
365.103
365.08
365.111
365.097
365.135
365.125
365.126
365.135
365.104
365.116
365.086
365.086
365.391
371.335
365.398
365.104
195.177
190.704
190.54
191.176
191.079
190.596
190.615
371.329
366.94
372.23
302.551
339.398
263.995
280.28
241.834
251.58
227.628
234.012
217.941
222.35
211.083
214.229
206.109
208.403
202.445
204.14
199.725
200.984
197.711
198.642
196.236
196.916
195.13
195.64
194.442
194.701
193.839
190.761
193.289
193.561
192.763
193.016
192.289
192.535
191.96
192.187
191.56
191.726
191.411
190.538
190.537
190.538
190.538
190.538
190.539
190.538
190.538
190.538
190.538
190.538
190.538
190.539
190.539
190.54
190.539
190.541
190.54
190.542
190.541
190.542
190.542
190.543
190.543
190.544
190.543
190.545
190.544
190.545
190.545
190.545
190.545
190.545
190.545
190.545
190.545
190.546
190.545
190.545
190.545
190.545
190.545
190.544
190.544
190.543
190.544
190.542
190.543
190.541
190.542
190.541
190.541
190.54
190.54
190.539
190.54
190.539
190.539
190.538
190.538
190.538
190.538
190.538
190.538
190.537
190.537
190.541
190.536
190.791
190.537
190.537
190.537
190.537
190.537
190.537
190.537
190.537
190.537
190.537
190.537
190.537
190.537
190.537
190.537
190.537
190.539
190.538
191.127
190.541
191.232
190.543
190.541
190.545
190.544
190.546
190.546
190.549
190.547
190.554
190.551
190.561
190.558
190.571
190.566
190.585
190.577
190.604
190.594
190.635
190.618
190.694
190.658
190.831
190.751
190.918
190.904
191
190.835
190.872
190.777
190.811
190.714
190.742
190.668
190.691
190.624
190.645
190.592
190.607
190.571
190.58
190.559
190.564
190.552
190.555
190.547
190.549
190.545
190.546
190.544
190.544
190.54
190.542
190.539
190.547
190.538
190.538
190.539
190.537
190.537
190.537
190.537
190.537
190.537
190.537
190.537
190.536
190.537
190.536
190.536
190.536
190.536
190.537
190.536
193.38
190.537
191.258
190.54
365.595
365.602
190.55
192.253
190.538
190.539
190.538
190.538
190.537
190.537
190.537
190.537
190.537
190.537
190.537
190.537
190.537
190.537
190.536
190.536
190.536
190.537
190.537
190.539
190.54
190.542
190.549
193.086
190.541
190.544
190.547
190.549
190.551
190.553
190.555
190.557
190.56
190.564
190.569
190.576
190.586
190.597
190.612
190.631
190.654
190.682
190.713
190.74
190.753
190.754
190.756
190.786
190.858
190.951
191.091
191.131
191.344
191.123
190.954
190.848
190.781
190.737
190.7
190.669
190.645
190.626
190.612
190.601
190.592
190.584
190.577
190.571
190.567
190.563
190.56
190.558
190.556
190.554
190.553
190.551
190.55
190.548
190.546
190.541
192.177
190.545
190.54
190.539
190.538
190.537
190.537
190.537
190.537
190.537
190.537
190.537
190.537
190.537
190.537
190.537
190.537
190.538
190.538
190.538
190.538
190.846
190.537
190.538
190.539
190.54
190.54
190.54
190.54
190.54
190.54
190.54
190.54
190.54
190.54
190.54
190.54
190.541
190.541
190.541
190.541
190.541
190.541
190.541
190.541
190.541
190.542
190.542
190.542
190.542
190.542
190.542
190.542
190.543
190.543
190.543
190.543
190.543
190.542
190.542
190.542
190.542
190.542
190.542
190.542
190.542
190.542
190.542
190.542
190.542
190.542
190.542
190.542
190.542
190.542
190.542
190.542
190.541
190.541
190.541
190.541
190.541
190.542
190.542
190.542
190.542
190.541
190.54
190.539
190.539
190.538
190.538
191.331
191.199
191.304
191.594
191.767
192.122
192.495
192.679
192.823
192.992
193.21
193.481
193.755
194.098
194.365
194.729
195.122
195.608
196.187
196.87
197.674
198.609
199.694
200.952
202.408
204.097
206.057
208.341
211.009
214.14
217.834
222.221
227.475
233.83
241.616
251.309
263.674
279.932
301.704
335.832
367.143
373.952
373.122
366.978
190.614
190.616
192.732
191.25
190.539
192.351
194.742
372.552
372.278
371.878
371.864
371.86
371.887
371.907
371.922
371.931
371.932
371.922
371.903
371.881
371.854
371.857
371.871
372.269
372.541
374.148
190.779
191.264
191.308
191.745
191.818
192.045
192.331
192.459
192.604
192.793
193.081
193.404
193.729
194.054
194.373
194.712
195.113
195.612
196.213
196.907
197.715
198.654
199.742
201.001
202.458
204.146
206.105
208.386
211.05
214.178
217.868
222.252
227.502
233.854
241.638
251.33
263.694
279.95
301.723
335.851
367.16
373.969
373.138
366.993
374.166
191.102
190.979
190.62
190.614
194.554
191.272
191.033
192.983
190.545
190.624
190.742
191.133
190.537
190.617
190.538
190.543
190.948
194.106
190.539
190.537
191.326
190.541
190.715
190.699
194.592
190.565
190.923
190.756
194.109
190.622
190.537
190.618
190.613
190.615
194.607
190.541
190.557
190.574
195.69
190.537
190.773
194.238
194.766
190.717
190.544
194.512
190.542
190.593
190.54
191.137
190.542
191.428
190.58
192.99
192.151
194.465
191.004
190.536
192.222
194.849
190.738
194.354
190.662
190.565
190.537
190.561
190.539
190.624
190.543
190.552
190.561
)
;

boundaryField
{
    wall
    {
        type            zeroGradient;
    }
    outlet
    {
        type            inletOutlet;
        inletValue      uniform 1e-05;
        value           nonuniform List<scalar> 
20
(
372.552
372.278
371.878
371.864
371.86
371.887
371.907
371.922
371.931
371.932
371.922
371.903
371.881
371.854
371.857
371.871
372.269
372.541
374.148
374.166
)
;
    }
    frontAndBackPlanes
    {
        type            empty;
    }
}


// ************************************************************************* //
