/*--------------------------------*- C++ -*----------------------------------*\
| =========                 |                                                 |
| \\      /  F ield         | OpenFOAM: The Open Source CFD Toolbox           |
|  \\    /   O peration     | Version:  2212                                  |
|   \\  /    A nd           | Website:  www.openfoam.com                      |
|    \\/     M anipulation  |                                                 |
\*---------------------------------------------------------------------------*/
FoamFile
{
    version     2.0;
    format      ascii;
    arch        "LSB;label=32;scalar=64";
    class       surfaceScalarField;
    location    "0.179";
    object      phi;
}
// * * * * * * * * * * * * * * * * * * * * * * * * * * * * * * * * * * * * * //

dimensions      [0 3 -1 0 0 0 0];

oriented        oriented;

internalField   nonuniform List<scalar> 
69808
(
4.42153e-07
-0.0176101
-1.85031
7.28461e-07
-0.0176096
-1.85034
1.07919e-06
-0.017609
-1.85033
1.3557e-06
-0.0176079
-1.85033
1.60059e-06
-0.0176065
-1.85033
1.78092e-06
-0.0176049
-1.85033
1.90471e-06
-0.0176031
-1.85033
1.96726e-06
-0.0176012
-1.85033
1.97238e-06
-0.0175992
-1.85033
1.92446e-06
-0.0175972
-1.85033
1.82779e-06
-0.0175953
-1.85033
1.69118e-06
-0.0175935
-1.85033
1.52071e-06
-0.0175918
-1.85033
1.32976e-06
-0.0175903
-1.85033
1.12342e-06
-0.017589
-1.85033
9.21153e-07
-0.0175878
-1.85033
6.99597e-07
-0.0175869
-1.85033
4.95599e-07
-0.0175862
-1.85033
1.66445e-07
-0.0175856
-1.85033
-0.0175855
-1.8503
-4.48271e-08
-0.0209201
-1.84997
-4.15328e-08
-0.0209196
-1.84999
-5.54084e-08
-0.0209189
-1.84999
-6.91752e-08
-0.0209177
-1.84999
-7.29817e-08
-0.0209162
-1.84999
-7.58119e-08
-0.0209144
-1.84999
-7.36411e-08
-0.0209124
-1.84999
-7.00176e-08
-0.0209103
-1.84999
-6.40523e-08
-0.0209081
-1.84999
-5.77163e-08
-0.0209059
-1.84999
-5.11443e-08
-0.0209037
-1.84999
-4.51457e-08
-0.0209016
-1.84999
-3.97936e-08
-0.0208997
-1.84999
-3.43231e-08
-0.020898
-1.84999
-3.10241e-08
-0.0208965
-1.84999
-2.66492e-08
-0.0208952
-1.84999
-2.58668e-08
-0.0208942
-1.84999
-2.11314e-08
-0.0208934
-1.84999
4.84547e-09
-0.0208927
-1.84999
-0.0208926
-1.84996
3.5498e-08
-0.0240201
-1.85756
1.38441e-07
-0.0240196
-1.85758
2.09885e-07
-0.0240188
-1.85758
2.64235e-07
-0.0240176
-1.85758
3.04556e-07
-0.0240161
-1.85758
3.27832e-07
-0.0240143
-1.85758
3.35815e-07
-0.0240123
-1.85758
3.29347e-07
-0.0240102
-1.85758
3.10662e-07
-0.024008
-1.85758
2.82462e-07
-0.0240058
-1.85758
2.47571e-07
-0.0240037
-1.85758
2.08986e-07
-0.0240017
-1.85758
1.69293e-07
-0.0239998
-1.85758
1.31334e-07
-0.0239982
-1.85758
9.57421e-08
-0.0239967
-1.85758
6.71791e-08
-0.0239955
-1.85758
4.15206e-08
-0.0239945
-1.85758
2.74985e-08
-0.0239937
-1.85758
3.44909e-08
-0.0239931
-1.85758
-0.0239929
-1.85756
-1.97056e-07
-0.0161584
-1.84319
-3.63457e-07
-0.016158
-1.84322
-5.23403e-07
-0.0161574
-1.84322
-6.65798e-07
-0.0161565
-1.84322
-7.83991e-07
-0.0161554
-1.84322
-8.74215e-07
-0.016154
-1.84322
-9.36161e-07
-0.0161525
-1.84322
-9.70097e-07
-0.016151
-1.84322
-9.7672e-07
-0.0161493
-1.84322
-9.58206e-07
-0.0161476
-1.84322
-9.16356e-07
-0.016146
-1.84322
-8.54932e-07
-0.0161444
-1.84322
-7.76364e-07
-0.016143
-1.84322
-6.85938e-07
-0.0161417
-1.84322
-5.85853e-07
-0.0161406
-1.84322
-4.82472e-07
-0.0161397
-1.84322
-3.73937e-07
-0.0161389
-1.84322
-2.55456e-07
-0.0161383
-1.84322
-1.22713e-07
-0.0161378
-1.84322
-0.0161377
-1.84319
-8.48392e-08
-0.00835066
-1.8481
-1.29561e-07
-0.00835028
-1.84812
-1.80692e-07
-0.00834984
-1.84812
-2.35936e-07
-0.0083492
-1.84812
-2.87426e-07
-0.00834839
-1.84812
-3.34887e-07
-0.00834743
-1.84812
-3.76045e-07
-0.00834636
-1.84812
-4.09953e-07
-0.00834523
-1.84812
-4.34657e-07
-0.00834405
-1.84813
-4.49126e-07
-0.00834287
-1.84813
-4.51356e-07
-0.00834172
-1.84813
-4.41312e-07
-0.00834063
-1.84813
-4.18406e-07
-0.00833963
-1.84813
-3.84153e-07
-0.00833874
-1.84813
-3.39744e-07
-0.00833796
-1.84813
-2.87758e-07
-0.00833731
-1.84813
-2.28166e-07
-0.00833679
-1.84813
-1.54871e-07
-0.00833638
-1.84813
-6.76095e-08
-0.00833608
-1.84813
-0.00833611
-1.8481
-2.23661e-07
0.0057203
-1.83513
-4.24262e-07
0.00572068
-1.83515
-6.12606e-07
0.00572085
-1.83515
-7.80262e-07
0.0057211
-1.83515
-9.20604e-07
0.00572142
-1.83515
-1.0315e-06
0.0057218
-1.83515
-1.10994e-06
0.00572222
-1.83515
-1.15616e-06
0.00572267
-1.83515
-1.16973e-06
0.00572314
-1.83516
-1.1527e-06
0.00572362
-1.83516
-1.10665e-06
0.00572408
-1.83516
-1.03531e-06
0.00572452
-1.83516
-9.41813e-07
0.00572492
-1.83516
-8.31287e-07
0.00572528
-1.83516
-7.08078e-07
0.00572559
-1.83516
-5.76618e-07
0.00572585
-1.83516
-4.39055e-07
0.00572605
-1.83516
-2.93396e-07
0.00572621
-1.83516
-1.38915e-07
0.00572633
-1.83516
0.00572609
-1.83514
-1.56407e-07
0.0193549
-1.83793
-2.79668e-07
0.0193553
-1.83796
-3.99646e-07
0.0193553
-1.83796
-5.12899e-07
0.0193553
-1.83796
-6.11756e-07
0.0193553
-1.83796
-6.94541e-07
0.0193553
-1.83796
-7.58728e-07
0.0193552
-1.83796
-8.03614e-07
0.0193552
-1.83796
-8.27745e-07
0.0193552
-1.83796
-8.31268e-07
0.0193552
-1.83796
-8.13742e-07
0.0193551
-1.83796
-7.76429e-07
0.0193551
-1.83796
-7.20452e-07
0.0193551
-1.83796
-6.48481e-07
0.019355
-1.83796
-5.63081e-07
0.019355
-1.83797
-4.67281e-07
0.019355
-1.83797
-3.61835e-07
0.019355
-1.83797
-2.42575e-07
0.0193549
-1.83797
-1.10349e-07
0.0193549
-1.83797
0.0193545
-1.83794
-2.37274e-07
0.0361154
-1.8312
-4.57501e-07
0.0361159
-1.83122
-6.63255e-07
0.0361156
-1.83122
-8.47293e-07
0.0361152
-1.83122
-1.00299e-06
0.0361147
-1.83122
-1.12767e-06
0.0361141
-1.83122
-1.21789e-06
0.0361134
-1.83122
-1.27328e-06
0.0361127
-1.83122
-1.2929e-06
0.0361119
-1.83123
-1.27844e-06
0.0361112
-1.83123
-1.23103e-06
0.0361104
-1.83123
-1.15427e-06
0.0361097
-1.83123
-1.05175e-06
0.0361091
-1.83123
-9.2884e-07
0.0361085
-1.83123
-7.91249e-07
0.036108
-1.83123
-6.44275e-07
0.0361076
-1.83123
-4.90343e-07
0.0361073
-1.83123
-3.27412e-07
0.036107
-1.83123
-1.54376e-07
0.0361069
-1.83123
0.0361063
-1.83121
-1.71754e-07
0.0456278
-1.82625
-3.1684e-07
0.0456282
-1.82627
-4.56083e-07
0.0456278
-1.82627
-5.84616e-07
0.0456271
-1.82627
-6.96421e-07
0.0456263
-1.82627
-7.89351e-07
0.0456253
-1.82627
-8.60852e-07
0.0456242
-1.82627
-9.10426e-07
0.045623
-1.82628
-9.36978e-07
0.0456218
-1.82628
-9.40996e-07
0.0456205
-1.82628
-9.2247e-07
0.0456193
-1.82628
-8.82874e-07
0.0456181
-1.82628
-8.23268e-07
0.0456171
-1.82628
-7.46015e-07
0.0456161
-1.82628
-6.53185e-07
0.0456153
-1.82628
-5.47017e-07
0.0456146
-1.82628
-4.28103e-07
0.0456141
-1.82628
-2.93307e-07
0.0456137
-1.82628
-1.37176e-07
0.0456135
-1.82628
0.0456128
-1.82626
-2.53019e-07
0.056057
-1.82674
-4.8196e-07
0.0560573
-1.82677
-6.96717e-07
0.0560567
-1.82677
-8.89699e-07
0.0560557
-1.82677
-1.05464e-06
0.0560544
-1.82677
-1.1874e-06
0.056053
-1.82677
-1.28498e-06
0.0560513
-1.82677
-1.34599e-06
0.0560496
-1.82677
-1.36968e-06
0.0560477
-1.82677
-1.35687e-06
0.0560459
-1.82677
-1.30873e-06
0.0560441
-1.82677
-1.22822e-06
0.0560424
-1.82678
-1.11914e-06
0.0560408
-1.82678
-9.87401e-07
0.0560395
-1.82678
-8.39458e-07
0.0560383
-1.82678
-6.81075e-07
0.0560373
-1.82678
-5.14541e-07
0.0560366
-1.82678
-3.36204e-07
0.0560361
-1.82678
-1.50573e-07
0.0560358
-1.82678
0.056035
-1.82675
-2.52193e-07
0.0661678
-1.82762
-4.84277e-07
0.0661681
-1.82764
-7.0138e-07
0.0661673
-1.82764
-8.95002e-07
0.066166
-1.82764
-1.06003e-06
0.0661645
-1.82764
-1.19199e-06
0.0661626
-1.82764
-1.28878e-06
0.0661606
-1.82764
-1.34911e-06
0.0661583
-1.82764
-1.37325e-06
0.0661561
-1.82765
-1.36236e-06
0.0661537
-1.82765
-1.31834e-06
0.0661515
-1.82765
-1.24415e-06
0.0661494
-1.82765
-1.14335e-06
0.0661474
-1.82765
-1.02045e-06
0.0661457
-1.82765
-8.80266e-07
0.0661443
-1.82765
-7.26332e-07
0.0661432
-1.82765
-5.59751e-07
0.0661423
-1.82765
-3.77099e-07
0.0661417
-1.82765
-1.7785e-07
0.0661413
-1.82765
0.0661405
-1.82762
-1.85035e-07
0.0749392
-1.83627
-3.34701e-07
0.0749395
-1.83629
-4.79339e-07
0.0749385
-1.83629
-6.13289e-07
0.0749371
-1.83629
-7.31406e-07
0.0749354
-1.83629
-8.30014e-07
0.0749333
-1.83629
-9.06901e-07
0.074931
-1.83629
-9.60072e-07
0.0749285
-1.83629
-9.8844e-07
0.0749259
-1.83629
-9.91134e-07
0.0749233
-1.83629
-9.68166e-07
0.0749208
-1.83629
-9.20063e-07
0.0749184
-1.83629
-8.48807e-07
0.0749162
-1.8363
-7.575e-07
0.0749143
-1.8363
-6.50714e-07
0.0749127
-1.8363
-5.32242e-07
0.0749115
-1.8363
-4.03456e-07
0.0749106
-1.8363
-2.60862e-07
0.0749099
-1.8363
-1.0829e-07
0.0749095
-1.8363
0.0749087
-1.83627
-2.79309e-07
0.0836214
-1.83549
-5.41608e-07
0.0836216
-1.83552
-7.85589e-07
0.0836205
-1.83552
-1.00129e-06
0.0836189
-1.83552
-1.18504e-06
0.0836169
-1.83552
-1.33149e-06
0.0836144
-1.83552
-1.43811e-06
0.0836117
-1.83552
-1.50296e-06
0.0836088
-1.83552
-1.52648e-06
0.0836058
-1.83552
-1.50959e-06
0.0836028
-1.83552
-1.45497e-06
0.0835999
-1.83552
-1.36602e-06
0.0835971
-1.83552
-1.2476e-06
0.0835946
-1.83552
-1.10548e-06
0.0835924
-1.83552
-9.45865e-07
0.0835906
-1.83552
-7.73278e-07
0.0835892
-1.83552
-5.8988e-07
0.0835882
-1.83552
-3.93361e-07
0.0835875
-1.83552
-1.82689e-07
0.0835871
-1.83552
0.0835862
-1.8355
-1.40934e-07
0.0880015
-1.85222
-2.32349e-07
0.0880017
-1.85225
-3.26571e-07
0.0880005
-1.85225
-4.19745e-07
0.0879989
-1.85225
-5.05658e-07
0.0879967
-1.85225
-5.80054e-07
0.0879942
-1.85225
-6.4176e-07
0.0879914
-1.85225
-6.87971e-07
0.0879884
-1.85225
-7.17566e-07
0.0879852
-1.85225
-7.28238e-07
0.0879821
-1.85225
-7.1942e-07
0.087979
-1.85225
-6.90141e-07
0.0879761
-1.85225
-6.41717e-07
0.0879735
-1.85225
-5.76301e-07
0.0879713
-1.85225
-4.97318e-07
0.0879694
-1.85225
-4.07872e-07
0.087968
-1.85225
-3.08418e-07
0.0879669
-1.85225
-1.9411e-07
0.0879662
-1.85225
-6.91764e-08
0.0879658
-1.85225
0.087965
-1.85222
-2.60812e-07
0.0922527
-1.849
-5.03308e-07
0.0922528
-1.84902
-7.30398e-07
0.0922515
-1.84902
-9.28636e-07
0.0922497
-1.84902
-1.09808e-06
0.0922473
-1.84902
-1.23287e-06
0.0922446
-1.84902
-1.33072e-06
0.0922415
-1.84902
-1.38845e-06
0.0922382
-1.84902
-1.40756e-06
0.0922347
-1.84902
-1.3878e-06
0.0922313
-1.84902
-1.33321e-06
0.0922279
-1.84902
-1.24649e-06
0.0922248
-1.84902
-1.13395e-06
0.0922219
-1.84902
-1.00093e-06
0.0922195
-1.84902
-8.53827e-07
0.0922175
-1.84902
-6.9589e-07
0.0922159
-1.84902
-5.28895e-07
0.0922148
-1.84902
-3.52445e-07
0.092214
-1.84902
-1.60948e-07
0.0922136
-1.84902
0.0922128
-1.849
-6.0028e-08
0.0876292
-1.87167
-5.51175e-08
0.0876292
-1.87169
-6.73141e-08
0.087628
-1.87169
-9.46761e-08
0.0876262
-1.87169
-1.27273e-07
0.0876239
-1.87169
-1.59339e-07
0.0876212
-1.87169
-1.92832e-07
0.0876182
-1.87169
-2.24578e-07
0.0876149
-1.87169
-2.54014e-07
0.0876116
-1.87169
-2.77174e-07
0.0876082
-1.87169
-2.93447e-07
0.0876049
-1.87169
-2.99806e-07
0.0876018
-1.87169
-2.96605e-07
0.087599
-1.87169
-2.83178e-07
0.0875966
-1.87169
-2.60166e-07
0.0875946
-1.87169
-2.29688e-07
0.0875931
-1.87169
-1.85874e-07
0.087592
-1.87169
-1.18721e-07
0.0875913
-1.87169
-3.22739e-08
0.0875908
-1.87169
0.0875902
-1.87166
-1.66221e-07
0.0823962
-1.86482
-3.0974e-07
0.0823961
-1.86485
-4.5142e-07
0.0823949
-1.86485
-5.83895e-07
0.0823931
-1.86485
-6.97629e-07
0.0823909
-1.86485
-7.84875e-07
0.0823882
-1.86484
-8.47708e-07
0.0823852
-1.86484
-8.84266e-07
0.082382
-1.86484
-8.96324e-07
0.0823786
-1.86484
-8.83646e-07
0.0823753
-1.86484
-8.50391e-07
0.082372
-1.86484
-7.97938e-07
0.082369
-1.86484
-7.31519e-07
0.0823662
-1.86484
-6.54476e-07
0.0823639
-1.86484
-5.70059e-07
0.0823619
-1.86484
-4.81008e-07
0.0823604
-1.86484
-3.81947e-07
0.0823593
-1.86484
-2.6074e-07
0.0823586
-1.86484
-1.18528e-07
0.0823581
-1.86484
0.0823576
-1.86481
5.64638e-08
0.0618846
-1.88614
1.95902e-07
0.0618843
-1.88616
2.86903e-07
0.0618833
-1.88616
3.54541e-07
0.0618818
-1.88616
4.08981e-07
0.0618799
-1.88616
4.40666e-07
0.0618775
-1.88616
4.52968e-07
0.061875
-1.88616
4.47603e-07
0.0618722
-1.88616
4.22289e-07
0.0618693
-1.88616
3.80292e-07
0.0618664
-1.88616
3.25253e-07
0.0618635
-1.88615
2.61887e-07
0.0618609
-1.88615
1.92552e-07
0.0618585
-1.88615
1.25836e-07
0.0618565
-1.88615
6.45651e-08
0.0618548
-1.88615
1.76717e-08
0.0618535
-1.88615
-1.61278e-08
0.0618525
-1.88615
-2.7014e-08
0.0618519
-1.88615
1.69232e-08
0.0618514
-1.88615
0.0618512
-1.88612
8.40345e-08
0.0402242
-1.87409
1.49432e-07
0.0402239
-1.87412
1.666e-07
0.0402233
-1.87411
1.90446e-07
0.040222
-1.87411
2.20449e-07
0.0402205
-1.87411
2.43474e-07
0.0402187
-1.87411
2.60844e-07
0.0402167
-1.87411
2.67638e-07
0.0402145
-1.87411
2.63854e-07
0.0402122
-1.87411
2.48441e-07
0.0402099
-1.87411
2.20832e-07
0.0402077
-1.8741
1.83124e-07
0.0402056
-1.8741
1.3435e-07
0.0402038
-1.8741
8.97751e-08
0.0402022
-1.8741
4.08242e-08
0.0402009
-1.8741
7.65833e-10
0.0401998
-1.8741
-4.14754e-08
0.0401991
-1.8741
-7.65158e-08
0.0401985
-1.8741
-4.22063e-08
0.0401981
-1.87409
0.0401979
-1.87407
5.12887e-07
-1.87319
8.2309e-07
-1.87322
1.10982e-06
-1.87321
1.3487e-06
-1.87321
1.58621e-06
-1.87321
1.7646e-06
-1.87321
1.88971e-06
-1.87321
1.94852e-06
-1.87321
1.94095e-06
-1.87321
1.86924e-06
-1.87321
1.73578e-06
-1.8732
1.55076e-06
-1.8732
1.33001e-06
-1.8732
1.09007e-06
-1.8732
8.4506e-07
-1.8732
6.20445e-07
-1.8732
3.71714e-07
-1.8732
1.44289e-07
-1.8732
-5.73615e-08
-1.8732
-1.87317
5.36657e-07
0.00622518
-1.85654
9.29346e-07
0.00622553
-1.85656
1.33933e-06
0.00622573
-1.85656
1.7042e-06
0.00622615
-1.85656
2.02549e-06
0.00622667
-1.85656
2.2759e-06
0.00622731
-1.85656
2.45876e-06
0.00622802
-1.85656
2.56738e-06
0.00622879
-1.85656
2.60505e-06
0.0062296
-1.85656
2.57389e-06
0.00623043
-1.85656
2.47939e-06
0.00623126
-1.85656
2.32901e-06
0.00623205
-1.85656
2.13097e-06
0.00623279
-1.85656
1.89816e-06
0.00623347
-1.85656
1.63766e-06
0.00623406
-1.85656
1.36468e-06
0.00623456
-1.85656
1.06149e-06
0.00623498
-1.85656
7.24493e-07
0.0062353
-1.85656
2.94484e-07
0.00623562
-1.85656
0.00623552
-1.85654
-4.91744e-09
0.00611855
-1.84986
2.45218e-08
0.00611904
-1.84988
3.86525e-08
0.00611943
-1.84988
5.57034e-08
0.00612009
-1.84988
7.75855e-08
0.0061209
-1.84988
9.49805e-08
0.00612189
-1.84989
1.12943e-07
0.006123
-1.84989
1.26735e-07
0.00612421
-1.84989
1.37632e-07
0.00612549
-1.84989
1.44545e-07
0.00612678
-1.84989
1.47796e-07
0.00612807
-1.84989
1.46573e-07
0.00612932
-1.84989
1.41878e-07
0.00613049
-1.84989
1.33571e-07
0.00613155
-1.84989
1.20542e-07
0.0061325
-1.84989
1.05259e-07
0.0061333
-1.84989
8.45896e-08
0.00613398
-1.84989
5.83924e-08
0.0061345
-1.84989
3.93866e-08
0.00613494
-1.84989
0.00613486
-1.84986
1.30368e-07
0.00574829
-1.85719
3.017e-07
0.00574884
-1.85721
4.41088e-07
0.00574933
-1.85721
5.68466e-07
0.00575009
-1.85721
6.69932e-07
0.00575105
-1.85721
7.43939e-07
0.0057522
-1.85721
7.88609e-07
0.00575349
-1.85721
8.06452e-07
0.00575488
-1.85721
7.98437e-07
0.00575634
-1.85721
7.68412e-07
0.00575782
-1.85721
7.18979e-07
0.00575927
-1.85721
6.55235e-07
0.00576067
-1.85721
5.82264e-07
0.00576197
-1.85721
5.03351e-07
0.00576315
-1.85721
4.23474e-07
0.00576418
-1.85721
3.44569e-07
0.00576504
-1.85721
2.6831e-07
0.00576577
-1.85721
1.81183e-07
0.00576634
-1.85721
1.00874e-07
0.00576678
-1.85721
0.00576668
-1.85719
-2.27209e-07
0.00957246
-1.84701
-4.2174e-07
0.00957298
-1.84704
-6.09499e-07
0.00957336
-1.84704
-7.7921e-07
0.00957395
-1.84704
-9.25129e-07
0.00957469
-1.84704
-1.03897e-06
0.00957557
-1.84704
-1.12244e-06
0.00957655
-1.84704
-1.17351e-06
0.00957762
-1.84704
-1.19281e-06
0.00957872
-1.84704
-1.18129e-06
0.00957984
-1.84704
-1.14001e-06
0.00958094
-1.84704
-1.07305e-06
0.009582
-1.84704
-9.82401e-07
0.00958298
-1.84704
-8.74786e-07
0.00958386
-1.84704
-7.50457e-07
0.00958463
-1.84704
-6.19529e-07
0.00958527
-1.84704
-4.77014e-07
0.00958581
-1.84704
-3.21036e-07
0.00958622
-1.84704
-1.52656e-07
0.00958654
-1.84704
0.00958636
-1.84701
-1.13661e-07
0.0132197
-1.85175
-1.93138e-07
0.0132202
-1.85177
-2.74492e-07
0.0132205
-1.85177
-3.57101e-07
0.0132209
-1.85177
-4.33808e-07
0.0132215
-1.85177
-5.01852e-07
0.0132222
-1.85177
-5.59788e-07
0.0132229
-1.85177
-6.06235e-07
0.0132237
-1.85177
-6.38634e-07
0.0132245
-1.85177
-6.55456e-07
0.0132254
-1.85177
-6.55029e-07
0.0132262
-1.85177
-6.36787e-07
0.0132269
-1.85177
-6.01055e-07
0.0132276
-1.85177
-5.48894e-07
0.0132283
-1.85177
-4.82536e-07
0.0132288
-1.85177
-4.05248e-07
0.0132293
-1.85177
-3.16103e-07
0.0132296
-1.85177
-2.11856e-07
0.0132299
-1.85177
-9.81439e-08
0.0132301
-1.85177
0.0132299
-1.85175
-3.38105e-07
0.0211396
-1.84305
-6.55533e-07
0.0211401
-1.84307
-9.5432e-07
0.0211402
-1.84307
-1.21757e-06
0.0211404
-1.84307
-1.44204e-06
0.0211406
-1.84307
-1.6228e-06
0.0211409
-1.84307
-1.75515e-06
0.0211413
-1.84307
-1.83802e-06
0.0211416
-1.84307
-1.87072e-06
0.021142
-1.84307
-1.85535e-06
0.0211423
-1.84307
-1.79445e-06
0.0211426
-1.84307
-1.69276e-06
0.021143
-1.84307
-1.55507e-06
0.0211433
-1.84307
-1.38769e-06
0.0211435
-1.84307
-1.19598e-06
0.0211437
-1.84307
-9.84714e-07
0.0211439
-1.84307
-7.55515e-07
0.021144
-1.84307
-5.12607e-07
0.0211441
-1.84307
-2.52823e-07
0.0211442
-1.84307
0.0211438
-1.84305
-2.75681e-07
0.0287254
-1.84552
-5.15548e-07
0.0287259
-1.84554
-7.44086e-07
0.0287258
-1.84554
-9.54064e-07
0.0287258
-1.84554
-1.13706e-06
0.0287257
-1.84554
-1.28815e-06
0.0287256
-1.84554
-1.40398e-06
0.0287255
-1.84554
-1.4827e-06
0.0287254
-1.84554
-1.52261e-06
0.0287253
-1.84554
-1.52414e-06
0.0287252
-1.84554
-1.48825e-06
0.028725
-1.84554
-1.41688e-06
0.0287249
-1.84555
-1.31331e-06
0.0287248
-1.84555
-1.18178e-06
0.0287247
-1.84555
-1.02657e-06
0.0287246
-1.84555
-8.52052e-07
0.0287245
-1.84555
-6.58598e-07
0.0287244
-1.84555
-4.43898e-07
0.0287244
-1.84555
-2.1062e-07
0.0287243
-1.84555
0.0287238
-1.84552
-4.01283e-07
0.0390528
-1.84152
-7.86889e-07
0.0390533
-1.84155
-1.14762e-06
0.039053
-1.84155
-1.46853e-06
0.0390527
-1.84155
-1.74342e-06
0.0390522
-1.84155
-1.96592e-06
0.0390517
-1.84155
-2.13045e-06
0.039051
-1.84155
-2.235e-06
0.0390504
-1.84155
-2.27845e-06
0.0390497
-1.84155
-2.26271e-06
0.039049
-1.84155
-2.19059e-06
0.0390483
-1.84155
-2.06759e-06
0.0390477
-1.84155
-1.89971e-06
0.0390471
-1.84155
-1.69516e-06
0.0390465
-1.84155
-1.46176e-06
0.0390461
-1.84155
-1.20457e-06
0.0390457
-1.84155
-9.26301e-07
0.0390453
-1.84155
-6.27774e-07
0.0390451
-1.84155
-3.07823e-07
0.0390449
-1.84155
0.0390443
-1.84153
-2.96824e-07
0.0423703
-1.82956
-5.65539e-07
0.0423706
-1.82959
-8.19356e-07
0.0423703
-1.82959
-1.04851e-06
0.0423698
-1.82959
-1.24713e-06
0.0423691
-1.82959
-1.41025e-06
0.0423684
-1.82959
-1.53428e-06
0.0423675
-1.82959
-1.61776e-06
0.0423666
-1.82959
-1.65993e-06
0.0423657
-1.82959
-1.66168e-06
0.0423647
-1.82959
-1.62486e-06
0.0423638
-1.82959
-1.55197e-06
0.0423629
-1.82959
-1.44604e-06
0.0423621
-1.82959
-1.31039e-06
0.0423614
-1.8296
-1.14819e-06
0.0423608
-1.8296
-9.61124e-07
0.0423603
-1.8296
-7.50538e-07
0.0423599
-1.8296
-5.15302e-07
0.0423596
-1.8296
-2.50118e-07
0.0423594
-1.8296
0.0423588
-1.82957
-4.01361e-07
0.0464846
-1.83086
-7.77443e-07
0.0464849
-1.83088
-1.13056e-06
0.0464843
-1.83088
-1.44807e-06
0.0464836
-1.83088
-1.72296e-06
0.0464826
-1.83088
-1.94725e-06
0.0464814
-1.83088
-2.11583e-06
0.0464801
-1.83088
-2.22524e-06
0.0464787
-1.83088
-2.27383e-06
0.0464773
-1.83088
-2.2624e-06
0.0464758
-1.83088
-2.19294e-06
0.0464744
-1.83089
-2.07017e-06
0.046473
-1.83089
-1.90031e-06
0.0464718
-1.83089
-1.692e-06
0.0464707
-1.83089
-1.45414e-06
0.0464697
-1.83089
-1.19299e-06
0.046469
-1.83089
-9.10726e-07
0.0464684
-1.83089
-6.05194e-07
0.0464679
-1.83089
-2.85517e-07
0.0464677
-1.83089
0.046467
-1.83086
-3.56607e-07
0.0501393
-1.83127
-6.97123e-07
0.0501395
-1.8313
-1.01494e-06
0.0501389
-1.8313
-1.29835e-06
0.050138
-1.8313
-1.54287e-06
0.0501369
-1.8313
-1.74141e-06
0.0501355
-1.8313
-1.89057e-06
0.050134
-1.8313
-1.9872e-06
0.0501324
-1.8313
-2.03163e-06
0.0501307
-1.8313
-2.02477e-06
0.0501291
-1.8313
-1.96938e-06
0.0501274
-1.8313
-1.86957e-06
0.0501259
-1.8313
-1.73016e-06
0.0501244
-1.8313
-1.55665e-06
0.0501232
-1.8313
-1.35409e-06
0.0501221
-1.8313
-1.12548e-06
0.0501213
-1.8313
-8.71839e-07
0.0501206
-1.8313
-5.92933e-07
0.0501201
-1.8313
-2.8958e-07
0.0501199
-1.8313
0.0501192
-1.83128
-2.78256e-07
0.0522736
-1.8384
-5.20082e-07
0.0522738
-1.83843
-7.4947e-07
0.0522731
-1.83843
-9.58977e-07
0.0522721
-1.83843
-1.14305e-06
0.0522708
-1.83843
-1.29544e-06
0.0522693
-1.83843
-1.41317e-06
0.0522676
-1.83843
-1.49276e-06
0.0522657
-1.83843
-1.53318e-06
0.0522638
-1.83843
-1.53352e-06
0.0522619
-1.83843
-1.49486e-06
0.0522601
-1.83843
-1.4191e-06
0.0522583
-1.83843
-1.30987e-06
0.0522567
-1.83843
-1.17213e-06
0.0522553
-1.83843
-1.01124e-06
0.0522541
-1.83843
-8.31361e-07
0.0522532
-1.83843
-6.33655e-07
0.0522524
-1.83843
-4.17001e-07
0.0522519
-1.83843
-1.87447e-07
0.0522516
-1.83843
0.052251
-1.8384
-3.66002e-07
0.0540482
-1.83727
-7.21625e-07
0.0540483
-1.83729
-1.05417e-06
0.0540475
-1.83729
-1.34491e-06
0.0540464
-1.83729
-1.59603e-06
0.0540449
-1.83729
-1.7991e-06
0.0540432
-1.83729
-1.95044e-06
0.0540413
-1.83729
-2.04639e-06
0.0540393
-1.83729
-2.0872e-06
0.0540372
-1.83729
-2.07364e-06
0.054035
-1.83729
-2.00947e-06
0.054033
-1.83729
-1.89923e-06
0.054031
-1.83729
-1.74905e-06
0.0540292
-1.83729
-1.56579e-06
0.0540277
-1.83729
-1.35498e-06
0.0540264
-1.83729
-1.12059e-06
0.0540254
-1.83729
-8.62214e-07
0.0540246
-1.83729
-5.85813e-07
0.054024
-1.83729
-2.86786e-07
0.0540237
-1.83729
0.0540231
-1.83727
-1.73812e-07
0.051874
-1.85005
-2.9938e-07
0.051874
-1.85007
-4.2291e-07
0.0518732
-1.85007
-5.41668e-07
0.0518721
-1.85007
-6.49368e-07
0.0518706
-1.85007
-7.39785e-07
0.0518689
-1.85007
-8.1264e-07
0.051867
-1.85007
-8.64297e-07
0.0518649
-1.85007
-8.94149e-07
0.0518627
-1.85007
-9.0001e-07
0.0518606
-1.85007
-8.82059e-07
0.0518585
-1.85007
-8.40313e-07
0.0518565
-1.85007
-7.77114e-07
0.0518547
-1.85007
-6.95508e-07
0.0518531
-1.85007
-5.98893e-07
0.0518518
-1.85007
-4.91378e-07
0.0518508
-1.85007
-3.71297e-07
0.05185
-1.85007
-2.34697e-07
0.0518495
-1.85007
-9.20753e-08
0.0518492
-1.85007
0.0518487
-1.85005
-3.0891e-07
0.0493457
-1.84647
-6.09647e-07
0.0493457
-1.8465
-8.93652e-07
0.0493448
-1.8465
-1.12965e-06
0.0493436
-1.8465
-1.33509e-06
0.0493421
-1.8465
-1.50093e-06
0.0493403
-1.8465
-1.62404e-06
0.0493383
-1.8465
-1.6992e-06
0.0493361
-1.8465
-1.72866e-06
0.0493338
-1.8465
-1.71144e-06
0.0493315
-1.8465
-1.65297e-06
0.0493293
-1.8465
-1.55666e-06
0.0493273
-1.84649
-1.42946e-06
0.0493254
-1.84649
-1.27713e-06
0.0493238
-1.84649
-1.10374e-06
0.0493225
-1.84649
-9.11027e-07
0.0493214
-1.8465
-6.96097e-07
0.0493206
-1.8465
-4.74861e-07
0.0493201
-1.8465
-2.30809e-07
0.0493198
-1.8465
0.0493193
-1.84647
-4.84688e-09
0.040778
-1.8631
4.79766e-08
0.0407778
-1.86313
8.73321e-08
0.0407771
-1.86313
1.00331e-07
0.040776
-1.86313
1.08381e-07
0.0407745
-1.86313
1.13185e-07
0.0407728
-1.86312
1.09879e-07
0.0407709
-1.86312
1.02299e-07
0.0407689
-1.86312
8.98218e-08
0.0407667
-1.86312
7.40661e-08
0.0407646
-1.86312
5.64303e-08
0.0407625
-1.86312
4.08875e-08
0.0407606
-1.86312
2.80985e-08
0.0407588
-1.86312
1.68514e-08
0.0407573
-1.86312
6.28698e-09
0.0407561
-1.86312
-4.53269e-09
0.0407551
-1.86312
-9.98529e-09
0.0407544
-1.86312
5.57962e-09
0.0407539
-1.86312
2.69202e-08
0.0407535
-1.86312
0.0407533
-1.8631
-1.39296e-07
0.0319529
-1.856
-2.62942e-07
0.0319527
-1.85602
-3.79583e-07
0.031952
-1.85602
-4.95334e-07
0.0319509
-1.85602
-5.93792e-07
0.0319495
-1.85602
-6.64866e-07
0.0319479
-1.85602
-7.1495e-07
0.0319461
-1.85602
-7.41754e-07
0.0319441
-1.85602
-7.48541e-07
0.031942
-1.85602
-7.35168e-07
0.03194
-1.85602
-7.05569e-07
0.031938
-1.85602
-6.61789e-07
0.0319362
-1.85602
-6.08011e-07
0.0319346
-1.85602
-5.47416e-07
0.0319331
-1.85602
-4.81539e-07
0.031932
-1.85602
-4.16484e-07
0.0319311
-1.85602
-3.39491e-07
0.0319304
-1.85601
-2.32396e-07
0.0319299
-1.85601
-1.09828e-07
0.0319296
-1.85601
0.0319294
-1.85599
2.79455e-07
0.0174051
-1.87159
5.94313e-07
0.0174049
-1.87162
8.5117e-07
0.0174045
-1.87161
1.09102e-06
0.0174037
-1.87161
1.29647e-06
0.0174028
-1.87161
1.4535e-06
0.0174017
-1.87161
1.56359e-06
0.0174004
-1.87161
1.62016e-06
0.0173991
-1.87161
1.62669e-06
0.0173976
-1.87161
1.58588e-06
0.0173962
-1.87161
1.50095e-06
0.0173949
-1.87161
1.38141e-06
0.0173936
-1.87161
1.23311e-06
0.0173924
-1.87161
1.06845e-06
0.0173914
-1.87161
8.91741e-07
0.0173906
-1.87161
7.17012e-07
0.01739
-1.87161
5.39998e-07
0.0173895
-1.87161
3.44188e-07
0.0173892
-1.87161
1.76711e-07
0.0173889
-1.87161
0.0173888
-1.87158
2.52886e-07
0.00340742
-1.86009
4.71404e-07
0.00340747
-1.86012
6.43594e-07
0.00340757
-1.86012
8.13249e-07
0.00340742
-1.86012
9.71116e-07
0.00340726
-1.86012
1.09931e-06
0.00340703
-1.86012
1.19794e-06
0.00340678
-1.86012
1.25886e-06
0.0034065
-1.86012
1.2833e-06
0.00340621
-1.86012
1.26862e-06
0.00340591
-1.86011
1.21567e-06
0.00340562
-1.86011
1.12979e-06
0.00340535
-1.86011
1.01593e-06
0.00340511
-1.86011
8.83035e-07
0.00340492
-1.86011
7.3663e-07
0.00340478
-1.86011
5.87557e-07
0.0034047
-1.86011
4.30303e-07
0.00340464
-1.86011
2.55837e-07
0.00340462
-1.86011
1.14059e-07
0.00340444
-1.86011
0.0034044
-1.86008
7.91474e-07
-1.86979
1.21635e-06
-1.86981
1.62143e-06
-1.86981
2.02577e-06
-1.86981
2.41021e-06
-1.86981
2.72143e-06
-1.86981
2.9543e-06
-1.8698
3.09413e-06
-1.8698
3.1409e-06
-1.8698
3.09538e-06
-1.8698
2.96408e-06
-1.8698
2.75934e-06
-1.8698
2.495e-06
-1.8698
2.19453e-06
-1.8698
1.86589e-06
-1.86979
1.529e-06
-1.86979
1.13588e-06
-1.86979
6.68498e-07
-1.86979
1.70963e-07
-1.86979
-1.86977
3.55281e-07
-0.00181886
-1.85472
6.61351e-07
-0.0018187
-1.85474
1.06562e-06
-0.00181876
-1.85474
1.38335e-06
-0.00181876
-1.85474
1.66607e-06
-0.00181881
-1.85474
1.88448e-06
-0.00181885
-1.85474
2.04962e-06
-0.0018189
-1.85474
2.15353e-06
-0.00181896
-1.85474
2.20109e-06
-0.00181902
-1.85474
2.19186e-06
-0.00181908
-1.85474
2.13172e-06
-0.00181914
-1.85474
2.02522e-06
-0.00181921
-1.85474
1.8795e-06
-0.00181927
-1.85474
1.70372e-06
-0.00181934
-1.85474
1.49941e-06
-0.0018194
-1.85474
1.28442e-06
-0.00181947
-1.85474
1.03468e-06
-0.00181951
-1.85474
7.95076e-07
-0.00181957
-1.85474
3.86634e-07
-0.00181955
-1.85474
-0.00181973
-1.85472
-1.02017e-07
-0.000653463
-1.85102
-6.1364e-08
-0.000653461
-1.85105
-3.90179e-08
-0.000653632
-1.85105
-2.66798e-08
-0.000653807
-1.85105
-1.56873e-08
-0.000654077
-1.85105
-7.78386e-09
-0.000654376
-1.85105
1.78779e-09
-0.000654728
-1.85105
1.01209e-08
-0.000655104
-1.85105
1.93909e-08
-0.000655503
-1.85105
2.80479e-08
-0.000655911
-1.85105
3.68176e-08
-0.000656318
-1.85105
4.6219e-08
-0.000656717
-1.85105
5.34332e-08
-0.000657095
-1.85105
6.07548e-08
-0.000657451
-1.85105
6.47386e-08
-0.000657767
-1.85105
6.86367e-08
-0.000658056
-1.85105
7.11229e-08
-0.000658279
-1.85105
8.35575e-08
-0.000658485
-1.85105
1.10587e-07
-0.00065857
-1.85105
-0.000658692
-1.85102
8.1416e-08
-0.000374888
-1.85747
2.68575e-07
-0.000374894
-1.85749
4.12652e-07
-0.000375019
-1.85749
5.49457e-07
-0.000375177
-1.85749
6.58739e-07
-0.000375387
-1.85749
7.3958e-07
-0.00037562
-1.85749
7.92157e-07
-0.000375892
-1.85749
8.18374e-07
-0.000376182
-1.85749
8.20238e-07
-0.000376487
-1.85749
8.00352e-07
-0.000376796
-1.85749
7.62506e-07
-0.000377101
-1.85749
7.08466e-07
-0.000377394
-1.85749
6.4518e-07
-0.000377673
-1.85749
5.73922e-07
-0.000377933
-1.85749
5.01639e-07
-0.000378168
-1.85749
4.28269e-07
-0.00037838
-1.85749
3.54987e-07
-0.000378544
-1.85749
2.61119e-07
-0.000378675
-1.85749
1.82708e-07
-0.000378743
-1.85749
-0.000378827
-1.85747
-1.98417e-07
0.00480925
-1.8522
-3.35086e-07
0.00480937
-1.85222
-4.73788e-07
0.00480938
-1.85222
-6.05469e-07
0.00480942
-1.85222
-7.22468e-07
0.00480945
-1.85222
-8.15779e-07
0.0048095
-1.85222
-8.87743e-07
0.00480954
-1.85222
-9.35747e-07
0.00480958
-1.85222
-9.59746e-07
0.00480962
-1.85222
-9.6017e-07
0.00480965
-1.85222
-9.37255e-07
0.00480967
-1.85223
-8.92442e-07
0.00480969
-1.85223
-8.26355e-07
0.0048097
-1.85223
-7.43713e-07
0.0048097
-1.85223
-6.43991e-07
0.00480969
-1.85223
-5.32924e-07
0.00480967
-1.85223
-4.0445e-07
0.00480966
-1.85223
-2.60761e-07
0.00480965
-1.85223
-1.0639e-07
0.00480967
-1.85223
0.00480956
-1.8522
-1.40689e-07
0.00952734
-1.85646
-2.20704e-07
0.00952755
-1.85649
-3.08439e-07
0.0095276
-1.85649
-3.97519e-07
0.00952771
-1.85649
-4.81624e-07
0.00952781
-1.85649
-5.55847e-07
0.00952794
-1.85649
-6.19982e-07
0.00952808
-1.85649
-6.70497e-07
0.00952822
-1.85649
-7.06633e-07
0.00952836
-1.85649
-7.25279e-07
0.0095285
-1.85649
-7.25985e-07
0.00952863
-1.85649
-7.07382e-07
0.00952874
-1.85649
-6.70303e-07
0.00952884
-1.85649
-6.14729e-07
0.00952892
-1.85649
-5.41513e-07
0.00952898
-1.85649
-4.53692e-07
0.00952902
-1.85649
-3.48829e-07
0.00952905
-1.85649
-2.27406e-07
0.00952907
-1.85649
-9.10656e-08
0.0095291
-1.85649
0.00952894
-1.85647
-3.73077e-07
0.0181583
-1.85168
-7.13694e-07
0.0181586
-1.8517
-1.03856e-06
0.0181586
-1.8517
-1.32661e-06
0.0181586
-1.8517
-1.5761e-06
0.0181586
-1.8517
-1.78155e-06
0.0181586
-1.8517
-1.93673e-06
0.0181586
-1.8517
-2.03959e-06
0.0181585
-1.8517
-2.08877e-06
0.0181585
-1.8517
-2.08587e-06
0.0181585
-1.8517
-2.03303e-06
0.0181585
-1.8517
-1.93456e-06
0.0181584
-1.8517
-1.79465e-06
0.0181584
-1.8517
-1.6189e-06
0.0181583
-1.8517
-1.41127e-06
0.0181583
-1.8517
-1.17344e-06
0.0181582
-1.8517
-9.0562e-07
0.0181582
-1.8517
-6.17131e-07
0.0181581
-1.8517
-3.03362e-07
0.0181581
-1.8517
0.0181578
-1.85168
-3.4771e-07
0.0265761
-1.85393
-6.46425e-07
0.0265765
-1.85396
-9.33998e-07
0.0265764
-1.85396
-1.19907e-06
0.0265763
-1.85396
-1.43226e-06
0.0265761
-1.85396
-1.62609e-06
0.0265759
-1.85396
-1.77642e-06
0.0265757
-1.85396
-1.88034e-06
0.0265754
-1.85396
-1.93599e-06
0.0265752
-1.85396
-1.94392e-06
0.0265749
-1.85396
-1.90497e-06
0.0265746
-1.85396
-1.82243e-06
0.0265744
-1.85396
-1.69961e-06
0.0265741
-1.85396
-1.54121e-06
0.0265739
-1.85396
-1.35076e-06
0.0265737
-1.85396
-1.13199e-06
0.0265735
-1.85396
-8.8359e-07
0.0265733
-1.85396
-6.02992e-07
0.0265731
-1.85396
-2.89808e-07
0.026573
-1.85396
0.0265726
-1.85394
-4.76536e-07
0.0368805
-1.85183
-9.27178e-07
0.0368809
-1.85185
-1.35369e-06
0.0368807
-1.85185
-1.73571e-06