/*--------------------------------*- C++ -*----------------------------------*\
| =========                 |                                                 |
| \\      /  F ield         | OpenFOAM: The Open Source CFD Toolbox           |
|  \\    /   O peration     | Version:  2212                                  |
|   \\  /    A nd           | Website:  www.openfoam.com                      |
|    \\/     M anipulation  |                                                 |
\*---------------------------------------------------------------------------*/
FoamFile
{
    version     2.0;
    format      ascii;
    arch        "LSB;label=32;scalar=64";
    class       volVectorField;
    location    "0.000291";
    object      U;
}
// * * * * * * * * * * * * * * * * * * * * * * * * * * * * * * * * * * * * * //

dimensions      [0 1 -1 0 0 0 0];

internalField   nonuniform List<vector> 
22212
(
(-1.77e-12 3.9 -16.6)
(5.41e-12 3.84 -16.6)
(-4.44e-12 3.61 -16.8)
(-7.14e-12 3.1 -16.9)
(5.59e-12 2.83 -17)
(-1.65e-11 2.78 -17.2)
(-9.78e-12 2.84 -17.4)
(6.42e-12 3.04 -17.5)
(-5.11e-12 3.22 -17.6)
(-1.72e-11 3.34 -17.7)
(-1.65e-11 3.38 -17.8)
(1.3e-11 3.38 -17.9)
(1.29e-12 3.43 -18)
(-6.49e-12 3.56 -18.1)
(-1.67e-12 3.68 -18.2)
(-2.06e-11 3.75 -18.2)
(1.94e-11 3.78 -18.3)
(4.25e-13 3.77 -18.4)
(8.27e-12 3.78 -18.4)
(3.87e-13 3.79 -18.5)
(-1.34e-11 3.81 -18.6)
(1.55e-11 3.83 -18.7)
(-1.21e-11 3.84 -18.7)
(2.06e-11 3.86 -18.8)
(6.6e-12 3.84 -18.9)
(1.13e-11 3.83 -19)
(-1.77e-11 3.83 -19.1)
(-5.79e-12 3.84 -19.2)
(1.77e-11 3.87 -19.3)
(3.99e-12 3.91 -19.4)
(-1.39e-11 3.95 -19.5)
(1.34e-11 3.97 -19.6)
(8.31e-12 3.98 -19.8)
(2.3e-12 4 -19.9)
(-3.4e-12 4.01 -20)
(4.34e-12 4.02 -20.1)
(1.28e-12 4.04 -20.2)
(-1.51e-11 4.06 -20.4)
(-2.64e-12 4.01 -20.4)
(-2.28e-12 3.97 -20.5)
(-4.5e-13 3.99 -20.6)
(1.11e-11 3.97 -20.8)
(-2.38e-11 3.89 -20.9)
(7.87e-12 3.76 -21)
(-1.65e-11 3.63 -21.1)
(-9.49e-12 3.48 -21.3)
(1.26e-11 3.3 -21.5)
(-1.11e-11 3.1 -21.6)
(1.07e-11 2.95 -21.8)
(-7.86e-12 2.88 -22.1)
(-1.13e-13 2.79 -22.4)
(3.77e-12 2.66 -22.6)
(9.28e-12 2.69 -22.8)
(-2.71e-12 2.84 -23.2)
(4.3e-12 3.05 -23.6)
(2.29e-12 3.28 -23.9)
(9.33e-12 3.54 -24.2)
(-9.31e-13 3.81 -24.4)
(-4.33e-12 4.14 -24.7)
(-5.24e-12 4.47 -24.9)
(1.1e-12 4.67 -25.1)
(3.42e-12 4.83 -25.2)
(-3.97e-14 4.91 -25.3)
(5.47e-12 4.95 -25.3)
(7.59e-12 5.02 -25.3)
(3.56e-12 5.13 -25.4)
(9.23e-12 5.26 -25.4)
(1.39e-11 5.39 -25.4)
(1.04e-11 5.5 -25.4)
(8.38e-12 5.6 -25.5)
(7.5e-12 5.7 -25.5)
(8.48e-12 5.81 -25.5)
(1.88e-12 5.96 -25.5)
(7.78e-12 6.13 -25.4)
(-4.84e-12 6.27 -25.4)
(7.65e-12 6.34 -25.3)
(-9.53e-13 6.44 -25.2)
(-8.95e-12 6.63 -25.1)
(7.45e-12 6.84 -25)
(-1.05e-11 6.99 -24.9)
(3.82e-12 7.07 -24.8)
(3.42e-12 7.18 -24.7)
(7.05e-12 7.33 -24.6)
(7.25e-12 7.42 -24.4)
(-7.24e-14 7.45 -24.2)
(-1.03e-11 7.56 -24.1)
(-1.47e-11 7.71 -23.9)
(-1.83e-11 7.82 -23.8)
(-1.17e-11 7.91 -23.6)
(2.67e-12 8.04 -23.4)
(-1.1e-11 8.16 -23.2)
(-5.05e-12 8.27 -23)
(-9.46e-12 8.37 -22.9)
(-1.05e-11 8.43 -22.7)
(-7.44e-12 8.49 -22.4)
(2.79e-12 8.58 -22.2)
(-9.26e-12 8.7 -22.1)
(6.8e-12 8.79 -21.9)
(-7.28e-12 8.81 -21.7)
(6.76e-12 8.84 -21.4)
(-3.18e-12 8.87 -21.2)
(-2.35e-12 9.01 -21)
(1.82e-11 9.24 -20.8)
(-6.12e-12 9.48 -20.7)
(4.61e-12 9.55 -20.4)
(-1.84e-11 9.55 -20)
(2.56e-11 9.66 -19.8)
(-1.04e-11 9.83 -19.5)
(-8.93e-13 9.88 -19.2)
(-6.16e-12 9.82 -18.8)
(8.29e-12 9.89 -18.5)
(-5.06e-14 10.1 -18.3)
(1.46e-11 10.3 -18.1)
(5.52e-12 10.4 -17.9)
(1.34e-11 10.4 -17.5)
(1.61e-11 10.4 -17.1)
(-9.77e-12 10.4 -16.8)
(6.01e-12 10.6 -16.6)
(2.06e-12 10.6 -16.3)
(-4.15e-12 10.6 -15.9)
(-2.78e-12 10.8 -15.6)
(1.15e-11 10.9 -15.4)
(-2.3e-12 10.8 -15)
(2.95e-12 10.8 -14.7)
(-2.07e-12 10.8 -14.5)
(2.23e-12 10.9 -14.3)
(8.59e-12 11 -14.1)
(7.93e-12 11 -13.8)
(8.1e-12 11 -13.5)
(-7.1e-13 11 -13.2)
(7.19e-13 11.1 -12.9)
(-1.53e-12 11.1 -12.7)
(-3.28e-12 11.1 -12.3)
(-1.33e-12 11 -11.9)
(-8.55e-13 11.1 -11.6)
(2.52e-12 11.3 -11.4)
(9.1e-13 11.3 -11.1)
(-6.69e-12 11.2 -10.7)
(-2.44e-12 11.2 -10.3)
(3.81e-13 11.2 -10.1)
(-3.22e-12 11.3 -9.9)
(-1.45e-12 11.2 -9.5)
(-2.58e-12 11.2 -9.16)
(7.04e-13 11.2 -8.93)
(3.1e-13 11.2 -8.59)
(2.79e-12 11.1 -8.24)
(-1.95e-12 11.2 -8)
(8.42e-12 11.1 -7.71)
(1.03e-11 11 -7.35)
(9.44e-12 11 -7.1)
(3.79e-12 11 -6.88)
(2.18e-12 10.9 -6.57)
(1.42e-11 10.8 -6.26)
(2.61e-12 10.8 -6.02)
(-1.42e-12 10.8 -5.78)
(-1.55e-11 10.7 -5.56)
(1.75e-11 10.6 -5.33)
(4.57e-12 10.5 -5.1)
(2.33e-11 10.5 -4.9)
(3.54e-11 10.4 -4.67)
(-2.52e-11 10.3 -4.43)
(9e-12 10.3 -4.18)
(3.31e-12 10.3 -3.87)
(-1.62e-11 10.2 -3.52)
(-1.21e-12 10.1 -3.17)
(6.2e-13 9.97 -2.79)
(5.32e-12 9.81 -2.49)
(7.98e-13 9.71 -2.19)
(2.97e-13 9.59 -1.95)
(2.23e-11 9.52 -1.68)
(1.83e-11 9.45 -1.43)
(1.39e-11 9.41 -1.16)
(2.07e-11 9.35 -0.9)
(2.34e-13 9.34 -0.609)
(-9.59e-12 8.97 -0.316)
(-7.98e-12 8.01 -0.0479)
(-2.03e-12 3.93 -16.7)
(6.65e-12 3.88 -16.8)
(-4.68e-12 3.71 -17)
(-1.19e-11 3.24 -17)
(1.59e-11 2.97 -17.2)
(-1.66e-11 2.9 -17.3)
(-1.13e-12 2.95 -17.5)
(5.3e-12 3.11 -17.6)
(1.04e-12 3.29 -17.7)
(1.05e-11 3.41 -17.8)
(-1.44e-11 3.45 -17.9)
(1.87e-13 3.46 -18)
(6.36e-12 3.53 -18.1)
(-1.3e-13 3.66 -18.1)
(-2.87e-12 3.79 -18.2)
(-1.28e-11 3.86 -18.3)
(3.81e-12 3.89 -18.4)
(2.54e-12 3.89 -18.4)
(6.65e-12 3.9 -18.5)
(4.77e-12 3.9 -18.5)
(-1.16e-11 3.93 -18.6)
(8.08e-12 3.96 -18.7)
(-3.28e-12 3.98 -18.8)
(1.38e-11 3.99 -18.8)
(7.7e-12 3.99 -18.9)
(1.96e-11 3.99 -19)
(-4.09e-12 3.99 -19.1)
(-5.48e-12 4 -19.2)
(8.88e-12 4.04 -19.3)
(2.13e-11 4.08 -19.4)
(-2.17e-11 4.1 -19.5)
(1.3e-11 4.11 -19.6)
(1.71e-11 4.12 -19.7)
(2.05e-12 4.15 -19.8)
(-4.98e-12 4.16 -19.9)
(5.7e-13 4.14 -20.1)
(1.04e-11 4.12 -20.2)
(-9.46e-12 4.14 -20.3)
(-3.35e-12 4.14 -20.4)
(4.23e-12 4.07 -20.5)
(5.79e-12 4.03 -20.5)
(1.67e-11 3.96 -20.8)
(-2.27e-11 3.9 -21)
(2.11e-11 3.79 -21.1)
(-2.78e-11 3.63 -21.3)
(7.93e-12 3.41 -21.5)
(9.81e-12 3.23 -21.6)
(-1.82e-11 3.03 -21.7)
(1.57e-11 2.81 -21.9)
(-2.14e-11 2.65 -22.1)
(1.72e-11 2.53 -22.4)
(3.06e-12 2.49 -22.6)
(7.82e-12 2.5 -22.7)
(-2.61e-12 2.62 -23)
(6.4e-12 2.8 -23.4)
(9.42e-12 3.03 -23.6)
(1.7e-11 3.27 -23.9)
(5.72e-12 3.49 -24.1)
(-3.53e-12 3.77 -24.3)
(-7.46e-12 4.15 -24.6)
(-1.72e-12 4.4 -24.9)
(2.95e-12 4.58 -25)
(-2.54e-12 4.74 -25.2)
(1.35e-12 4.83 -25.2)
(4.8e-12 4.88 -25.2)
(2.31e-12 4.99 -25.2)
(8.26e-12 5.11 -25.3)
(1.48e-11 5.23 -25.3)
(1.32e-11 5.35 -25.3)
(1.08e-11 5.46 -25.4)
(1e-11 5.55 -25.4)
(1.05e-11 5.67 -25.3)
(3.54e-12 5.81 -25.3)
(8.76e-12 5.95 -25.2)
(-6.82e-12 6.11 -25.3)
(1.31e-11 6.23 -25.2)
(-1.39e-11 6.29 -25.1)
(-2.82e-12 6.38 -24.9)
(1.11e-11 6.53 -24.8)
(-2.31e-11 6.72 -24.8)
(2.25e-11 6.86 -24.7)
(-3.68e-14 6.95 -24.6)
(9.59e-12 7.09 -24.4)
(9.98e-12 7.23 -24.3)
(1.9e-12 7.3 -24.2)
(-8.9e-12 7.31 -24)
(-1.33e-11 7.42 -23.8)
(-1.84e-11 7.56 -23.7)
(-1.7e-11 7.65 -23.5)
(-1.9e-12 7.71 -23.3)
(-2.07e-11 7.8 -23.1)
(-1.32e-11 7.91 -22.9)
(-1.65e-11 8.06 -22.8)
(-1.5e-11 8.16 -22.6)
(-8.51e-12 8.22 -22.4)
(1.14e-11 8.29 -22.2)
(-3.33e-12 8.37 -22)
(8.92e-12 8.48 -21.8)
(-6.15e-12 8.58 -21.6)
(3.63e-12 8.63 -21.4)
(3.46e-12 8.64 -21.2)
(-9.86e-12 8.68 -20.9)
(2.11e-11 8.83 -20.6)
(-3.07e-12 9.07 -20.4)
(-3.56e-12 9.25 -20.3)
(-1.08e-11 9.26 -20)
(2.94e-11 9.24 -19.6)
(6.11e-12 9.41 -19.3)
(4.88e-12 9.59 -19.1)
(-8.8e-12 9.58 -18.9)
(6.48e-12 9.51 -18.5)
(3.21e-12 9.58 -18.2)
(9.96e-12 9.76 -17.9)
(7.81e-12 9.99 -17.7)
(9.14e-12 10.1 -17.5)
(1.97e-11 10.1 -17.2)
(-8.01e-12 10 -16.8)
(1.02e-12 10.1 -16.5)
(-4.67e-12 10.3 -16.2)
(-1.03e-11 10.3 -15.9)
(-4.1e-14 10.3 -15.5)
(1.24e-11 10.4 -15.3)
(-2.22e-12 10.5 -15.1)
(8.98e-12 10.4 -14.8)
(2.41e-12 10.4 -14.5)
(6.48e-12 10.5 -14.2)
(1.13e-11 10.6 -14)
(7.44e-12 10.6 -13.8)
(1.15e-11 10.6 -13.5)
(-2.06e-12 10.6 -13.3)
(-8.56e-14 10.6 -12.9)
(-3.12e-12 10.7 -12.6)
(-6.1e-12 10.7 -12.3)
(-2.38e-12 10.7 -12)
(-2.04e-12 10.6 -11.6)
(3.74e-13 10.7 -11.2)
(-2.93e-12 10.9 -11)
(-1.02e-11 10.9 -10.7)
(-1.97e-12 10.8 -10.3)
(2.42e-13 10.8 -9.96)
(-4.74e-12 10.9 -9.68)
(-4.29e-12 10.9 -9.41)
(-5.55e-12 10.8 -9.04)
(-2.14e-12 10.8 -8.67)
(-1.65e-12 10.9 -8.39)
(4.37e-12 10.8 -8.04)
(-3.33e-12 10.8 -7.67)
(1.17e-11 10.8 -7.37)
(8.67e-12 10.7 -7.07)
(1.4e-11 10.6 -6.72)
(5.76e-12 10.6 -6.41)
(3.67e-13 10.6 -6.13)
(1.38e-11 10.5 -5.81)
(-1.58e-12 10.4 -5.49)
(-5.32e-12 10.4 -5.23)
(-1.41e-11 10.3 -5.02)
(2.68e-11 10.2 -4.82)
(3.84e-12 10.2 -4.59)
(4.26e-11 10.1 -4.35)
(4.22e-11 10 -4.11)
(-2.83e-11 9.96 -3.88)
(1.14e-11 9.92 -3.66)
(-4.64e-12 9.85 -3.39)
(-2e-11 9.75 -3.08)
(1.66e-12 9.66 -2.78)
(-1.34e-12 9.54 -2.48)
(8.14e-12 9.42 -2.23)
(-1.2e-11 9.33 -1.96)
(-7.78e-13 9.24 -1.76)
(4.28e-11 9.18 -1.53)
(1.72e-11 9.11 -1.3)
(8.13e-12 9.06 -1.06)
(8.81e-12 8.98 -0.828)
(-7.27e-12 8.92 -0.571)
(-1.59e-11 8.54 -0.302)
(-8.24e-12 7.74 -0.0636)
(-1.42e-12 3.87 -16.9)
(8.66e-12 3.84 -17)
(-5.46e-12 3.62 -17.1)
(-1.56e-11 3.19 -17.2)
(2.15e-11 2.97 -17.3)
(-2.29e-11 2.9 -17.5)
(4.75e-12 2.93 -17.6)
(-2.16e-11 3.08 -17.7)
(-4.64e-12 3.28 -17.8)
(9.57e-12 3.4 -17.9)
(-3.49e-12 3.45 -18)
(-5.5e-12 3.45 -18.1)
(1.42e-11 3.51 -18.1)
(1.16e-11 3.64 -18.2)
(-1.57e-12 3.78 -18.3)
(5.17e-12 3.89 -18.3)
(-1.96e-11 3.94 -18.4)
(-1.1e-11 3.94 -18.4)
(-8.99e-12 3.94 -18.5)
(8.49e-13 3.94 -18.6)
(1.53e-12 3.95 -18.6)
(-8.46e-12 3.95 -18.7)
(1.18e-11 3.97 -18.7)
(1.3e-11 3.99 -18.8)
(4.58e-12 4 -18.9)
(7.69e-13 4 -19)
(2.82e-12 4.01 -19.1)
(-1.4e-11 4.02 -19.1)
(-1.18e-11 4.04 -19.2)
(3.38e-11 4.07 -19.3)
(-3.07e-11 4.11 -19.5)
(1.86e-11 4.14 -19.6)
(2.43e-11 4.16 -19.6)
(2.14e-12 4.17 -19.8)
(-4.12e-12 4.17 -19.9)
(-4.79e-12 4.18 -20)
(1.73e-11 4.16 -20.1)
(-1.46e-12 4.15 -20.3)
(-5.23e-12 4.15 -20.4)
(8.76e-12 4.1 -20.5)
(1.26e-11 4 -20.6)
(1.37e-11 3.86 -20.8)
(-9.41e-12 3.77 -21)
(1.12e-11 3.68 -21.2)
(-1.23e-11 3.56 -21.4)
(9.66e-12 3.38 -21.6)
(1.06e-11 3.18 -21.8)
(-5.96e-13 2.96 -21.9)
(1.69e-11 2.67 -22.1)
(-5.75e-12 2.41 -22.2)
(1.76e-11 2.38 -22.5)
(1.99e-11 2.48 -22.6)
(1.83e-11 2.55 -22.7)
(9.1e-12 2.66 -22.9)
(1.64e-11 2.83 -23.2)
(1.77e-11 3.02 -23.5)
(1.85e-11 3.22 -23.7)
(6.36e-12 3.47 -23.9)
(-4.02e-12 3.71 -24.1)
(-6.87e-12 3.99 -24.4)
(-5.12e-12 4.33 -24.7)
(3.76e-12 4.51 -24.9)
(-4.8e-12 4.65 -25)
(-2.03e-12 4.79 -25.1)
(2.24e-12 4.88 -25.2)
(3.44e-12 4.96 -25.2)
(6.34e-12 5.06 -25.2)
(1.39e-11 5.18 -25.2)
(1.52e-11 5.28 -25.2)
(1.04e-11 5.42 -25.3)
(1.13e-11 5.56 -25.3)
(9.82e-12 5.68 -25.2)
(6.68e-12 5.8 -25.2)
(6.56e-12 5.9 -25.2)
(-5.87e-12 6.02 -25.2)
(1.99e-11 6.19 -25.1)
(-4.13e-11 6.35 -25)
(3.27e-11 6.43 -24.9)
(-1.12e-11 6.52 -24.7)
(-1.78e-11 6.65 -24.6)
(1.91e-11 6.81 -24.6)
(2.15e-11 6.89 -24.5)
(4.03e-11 6.96 -24.3)
(2.6e-11 7.09 -24.2)
(3.39e-12 7.27 -24.1)
(-1.19e-11 7.35 -23.9)
(-1.25e-11 7.38 -23.7)
(-1.43e-11 7.47 -23.6)
(-2e-11 7.61 -23.5)
(-4.94e-12 7.69 -23.3)
(-2.1e-11 7.73 -23)
(-1.98e-11 7.8 -22.8)
(-2.09e-11 7.92 -22.7)
(-1.06e-11 8.06 -22.5)
(-8.68e-12 8.16 -22.3)
(1.81e-11 8.24 -22.1)
(7.14e-12 8.33 -21.9)
(6.43e-12 8.39 -21.7)
(-2.89e-12 8.43 -21.5)
(-4.59e-12 8.51 -21.3)
(1.02e-11 8.65 -21.1)
(-1.28e-11 8.75 -20.8)
(1.94e-11 8.78 -20.5)
(-8.9e-12 8.85 -20.3)
(-6.27e-12 9.05 -20.2)
(1.28e-11 9.25 -20)
(5.81e-12 9.29 -19.6)
(-2.06e-11 9.26 -19.2)
(-1.28e-11 9.34 -19)
(-1.88e-11 9.51 -18.8)
(1.14e-12 9.52 -18.5)
(6e-12 9.49 -18.1)
(-6.74e-12 9.57 -17.8)
(9.51e-12 9.72 -17.5)
(-1.86e-12 9.85 -17.4)
(1.87e-11 9.98 -17.2)
(-1.2e-13 10 -16.8)
(-1.7e-11 10 -16.4)
(-1.4e-11 10.1 -16.2)
(-1.83e-11 10.2 -15.9)
(9.32e-12 10.2 -15.5)
(8.4e-12 10.2 -15.2)
(-5.47e-12 10.3 -15)
(1.18e-11 10.4 -14.9)
(4.14e-12 10.4 -14.5)
(9.2e-12 10.4 -14.2)
(7.57e-12 10.4 -14)
(3.06e-13 10.5 -13.8)
(1.55e-11 10.5 -13.5)
(-5.82e-12 10.5 -13.2)
(-8.73e-13 10.6 -13)
(-4.01e-12 10.5 -12.6)
(-8.94e-12 10.5 -12.3)
(-3.66e-12 10.6 -12.1)
(-4.84e-12 10.6 -11.7)
(-4.01e-12 10.6 -11.3)
(-7.32e-12 10.6 -11)
(-1.13e-11 10.7 -10.8)
(2.65e-12 10.7 -10.5)
(3.59e-12 10.7 -10)
(-5.54e-12 10.7 -9.74)
(-8.33e-12 10.7 -9.51)
(-9.9e-12 10.7 -9.14)
(-7.05e-12 10.6 -8.72)
(-3.25e-12 10.6 -8.43)
(3.96e-12 10.6 -8.1)
(-3.82e-12 10.6 -7.68)
(1.09e-11 10.6 -7.35)
(-1.2e-11 10.6 -7.07)
(1.99e-11 10.5 -6.7)
(1.35e-11 10.4 -6.34)
(-1.38e-11 10.4 -6.07)
(-6.59e-12 10.3 -5.76)
(-2.04e-11 10.2 -5.4)
(-1.87e-11 10.2 -5.09)
(-1.33e-11 10.1 -4.85)
(2.67e-11 10.1 -4.66)
(-2.86e-12 10 -4.45)
(5.61e-11 9.94 -4.19)
(8.62e-11 9.87 -3.92)
(-1.96e-11 9.83 -3.66)
(1.9e-11 9.78 -3.41)
(5.13e-12 9.72 -3.14)
(-1.58e-11 9.63 -2.82)
(7.07e-12 9.53 -2.53)
(-3.54e-12 9.44 -2.23)
(9.97e-12 9.33 -1.97)
(-3.42e-11 9.23 -1.7)
(2e-11 9.15 -1.52)
(1.2e-10 9.09 -1.32)
(4.7e-11 9.01 -1.11)
(-4.28e-12 8.96 -0.871)
(-1.67e-11 8.88 -0.661)
(-2.04e-11 8.83 -0.476)
(-2.38e-11 8.43 -0.263)
(-8.43e-12 7.61 -0.0684)
(-2.32e-13 3.96 -17.2)
(4.66e-13 3.9 -17.3)
(1.47e-12 3.72 -17.4)
(-4.42e-12 3.3 -17.4)
(1.44e-11 3.05 -17.6)
(-9.34e-12 2.98 -17.7)
(8.45e-12 3.01 -17.8)
(-1.17e-11 3.15 -17.9)
(6.7e-12 3.35 -17.9)
(-4.31e-13 3.48 -18)
(-1.03e-11 3.53 -18)
(-1.18e-11 3.54 -18.1)
(2.68e-12 3.6 -18.2)
(7.66e-12 3.71 -18.2)
(8.44e-12 3.85 -18.3)
(8.57e-12 3.97 -18.3)
(1.98e-12 4.03 -18.4)
(-1.56e-11 4.06 -18.4)
(-1.86e-11 4.07 -18.5)
(-1.44e-11 4.07 -18.6)
(-1.34e-11 4.07 -18.6)
(-6.45e-12 4.08 -18.7)
(-9.7e-12 4.1 -18.8)
(9.34e-12 4.11 -18.8)
(8.57e-12 4.13 -18.9)
(6.02e-12 4.13 -19)
(1.75e-11 4.12 -19.1)
(-1.27e-11 4.14 -19.1)
(-6.24e-12 4.15 -19.2)
(1.94e-11 4.17 -19.3)
(-1.9e-11 4.21 -19.4)
(1.24e-11 4.25 -19.6)
(1.66e-11 4.26 -19.7)
(1.59e-11 4.25 -19.8)
(1.28e-11 4.24 -19.9)
(-5.86e-12 4.23 -20)
(3e-11 4.22 -20.1)
(-1.61e-12 4.2 -20.3)
(-1.27e-12 4.18 -20.4)
(8.1e-12 4.14 -20.6)
(8.39e-12 4.07 -20.7)
(1.07e-11 3.95 -20.9)
(-8.32e-12 3.74 -21.1)
(-1.2e-12 3.58 -21.3)
(6.13e-12 3.43 -21.6)
(1.76e-12 3.27 -21.9)
(9.89e-13 3.08 -22.1)
(-4.03e-12 2.85 -22.3)
(-2.95e-12 2.58 -22.4)
(-3.23e-12 2.28 -22.4)
(-3.29e-12 2.27 -22.4)
(5.48e-12 2.4 -22.4)
(-6.71e-12 2.51 -22.6)
(2.32e-12 2.62 -22.8)
(-5.64e-13 2.77 -23.1)
(-1.25e-12 2.94 -23.3)
(3.78e-13 3.16 -23.5)
(2.59e-13 3.39 -23.7)
(-4.85e-12 3.58 -23.9)
(-2.25e-12 3.74 -24.1)
(-9.46e-12 4.04 -24.5)
(7.79e-12 4.34 -24.8)
(-6.74e-12 4.51 -24.9)
(6.02e-13 4.64 -25)
(2.75e-12 4.78 -25.1)
(6.17e-12 4.86 -25.1)
(-2.02e-13 4.92 -25.1)
(1.19e-11 5.02 -25.1)
(1.38e-11 5.13 -25.1)
(6.88e-12 5.22 -25.1)
(7.15e-12 5.35 -25.1)
(7.51e-12 5.47 -25.1)
(9.64e-12 5.59 -25)
(7.87e-13 5.71 -25)
(5.12e-12 5.82 -25)
(9.8e-13 5.94 -24.9)
(-2e-11 6.12 -24.8)
(2.49e-11 6.29 -24.8)
(-2.52e-11 6.37 -24.6)
(2.94e-11 6.39 -24.5)
(1.07e-11 6.47 -24.5)
(1.01e-11 6.64 -24.4)
(1.27e-11 6.76 -24.2)
(-2.79e-12 6.83 -24)
(-1.42e-11 6.94 -23.9)
(-2.17e-11 7.08 -23.9)
(-1.59e-11 7.15 -23.7)
(-1.09e-11 7.19 -23.5)
(-1.61e-11 7.3 -23.3)
(1.91e-12 7.44 -23.2)
(-1.04e-11 7.55 -23)
(-1.59e-11 7.59 -22.8)
(-1.88e-11 7.61 -22.5)
(4.48e-14 7.73 -22.4)
(-1.05e-11 7.89 -22.2)
(1.44e-11 8 -22)
(1.4e-11 8.09 -21.8)
(6.18e-12 8.15 -21.7)
(-3.15e-12 8.21 -21.5)
(-6.65e-12 8.24 -21.2)
(7.74e-12 8.32 -21)
(-1.06e-11 8.51 -20.7)
(2.31e-11 8.6 -20.5)
(-2.75e-11 8.57 -20.2)
(1.8e-11 8.65 -20)
(8.85e-12 8.9 -19.8)
(-1.17e-11 9.08 -19.6)
(-1.1e-11 9.06 -19.3)
(2.27e-11 9.02 -18.9)
(1.19e-11 9.17 -18.7)
(1.29e-11 9.34 -18.5)
(3.33e-12 9.35 -18.1)
(-1.5e-11 9.28 -17.7)
(9.65e-12 9.28 -17.4)
(-6.58e-12 9.38 -17.2)
(1.78e-11 9.6 -17)
(1.5e-11 9.74 -16.7)
(-2.84e-11 9.72 -16.4)
(-8.67e-12 9.73 -16.1)
(-1.85e-11 9.89 -15.8)
(2.02e-11 9.94 -15.5)
(4.21e-13 9.87 -15.1)
(-1.11e-11 9.92 -14.9)
(4.53e-12 10.1 -14.7)
(-2.75e-12 10.1 -14.5)
(7.29e-12 10 -14.1)
(-5.69e-13 10 -13.9)
(-8.38e-12 10.1 -13.7)
(2.24e-11 10.2 -13.5)
(-7.57e-12 10.2 -13.2)
(-9.85e-13 10.2 -12.9)
(-5.33e-13 10.2 -12.6)
(-8.16e-12 10.1 -12.2)
(-2.31e-12 10.2 -11.9)
(-7.55e-12 10.3 -11.6)
(-7.39e-12 10.3 -11.3)
(-4.16e-12 10.2 -10.9)
(-9.83e-12 10.2 -10.6)
(4.53e-12 10.4 -10.4)
(7.93e-12 10.3 -10.1)
(-5.33e-12 10.3 -9.68)
(-1.22e-11 10.3 -9.37)
(-1.43e-11 10.4 -9.08)
(-1.06e-11 10.3 -8.72)
(-2.35e-12 10.2 -8.35)
(1.37e-12 10.3 -8.03)
(-2.35e-12 10.2 -7.66)
(6.03e-12 10.2 -7.3)
(-2.17e-11 10.2 -7.01)
(1.55e-11 10.2 -6.68)
(1.5e-11 10.1 -6.3)
(-1.15e-11 10 -5.98)
(-1.15e-11 9.98 -5.69)
(-2.93e-11 9.91 -5.37)
(-2.38e-11 9.82 -5.04)
(-2.06e-11 9.76 -4.78)
(1.74e-11 9.72 -4.59)
(-1.02e-11 9.68 -4.39)
(1.18e-11 9.62 -4.12)
(4.22e-11 9.54 -3.83)
(-1.91e-11 9.48 -3.54)
(5.28e-11 9.45 -3.26)
(3.35e-11 9.37 -2.99)
(-2.02e-11 9.29 -2.68)
(5.08e-12 9.21 -2.42)
(3.09e-13 9.14 -2.17)
(9.27e-12 9.06 -1.92)
(-1.8e-11 8.97 -1.67)
(2.52e-12 8.9 -1.46)
(4.53e-11 8.83 -1.26)
(2.79e-11 8.77 -1.04)
(2.25e-13 8.74 -0.818)
(-1.25e-12 8.69 -0.614)
(-1.43e-11 8.61 -0.438)
(-2e-11 8.19 -0.251)
(-8.43e-12 7.43 -0.0842)
(-7.28e-13 3.86 -17.4)
(-6.12e-12 3.81 -17.4)
(2.53e-12 3.63 -17.5)
(5.06e-12 3.23 -17.6)
(1.43e-11 3 -17.7)
(1.66e-12 2.93 -17.8)
(-4.4e-12 2.96 -17.9)
(-1.5e-11 3.1 -18)
(-2.3e-12 3.32 -18)
(-1.5e-12 3.47 -18.1)
(-1.54e-11 3.52 -18.1)
(-1.57e-11 3.54 -18.2)
(-1.68e-12 3.58 -18.2)
(-7.96e-12 3.68 -18.3)
(3.1e-12 3.82 -18.3)
(7.85e-12 3.94 -18.4)
(8.07e-12 4.02 -18.4)
(-1.19e-11 4.06 -18.5)
(-2.59e-11 4.09 -18.5)
(-1.92e-11 4.09 -18.6)
(-2.28e-11 4.09 -18.7)
(-4.42e-12 4.11 -18.7)
(-2.58e-11 4.14 -18.8)
(1.47e-12 4.15 -18.9)
(4.46e-12 4.17 -18.9)
(3.1e-12 4.18 -19)
(2.72e-11 4.17 -19.1)
(-1.34e-11 4.19 -19.1)
(-3.1e-12 4.21 -19.2)
(2.53e-12 4.22 -19.3)
(-3.43e-12 4.24 -19.4)
(4.93e-12 4.25 -19.6)
(-6.22e-12 4.26 -19.7)
(1.14e-11 4.27 -19.8)
(2.58e-12 4.26 -19.9)
(-2.47e-11 4.21 -20)
(3.91e-11 4.16 -20.1)
(-1.27e-11 4.13 -20.3)
(1.21e-11 4.1 -20.5)
(2.95e-12 4.06 -20.6)
(-3.18e-12 4.01 -20.8)
(1.33e-11 3.93 -21.1)
(-7.99e-12 3.73 -21.3)
(3.72e-13 3.45 -21.5)
(9.51e-12 3.22 -21.7)
(3.47e-12 3.05 -22)
(5.62e-12 2.87 -22.2)
(2.31e-12 2.68 -22.5)
(1.07e-11 2.5 -22.6)
(1.85e-12 2.34 -22.6)
(1.2e-11 2.28 -22.4)
(-1.59e-12 2.33 -22.3)
(-1.34e-12 2.46 -22.5)
(3.02e-11 2.58 -22.7)
(-3.39e-12 2.73 -22.9)
(-6.61e-12 2.91 -23.1)
(-1.29e-12 3.13 -23.3)
(7.8e-12 3.33 -23.5)
(4.87e-12 3.51 -23.7)
(5.83e-12 3.66 -24)
(-1.02e-11 3.82 -24.2)
(1.4e-11 4.14 -24.5)
(-1.08e-11 4.43 -24.7)
(8.37e-12 4.6 -24.9)
(2.34e-12 4.73 -24.9)
(6.72e-12 4.85 -25)
(-9.57e-12 4.9 -25)
(9.68e-12 4.94 -24.9)
(8.35e-12 5.03 -25)
(3.32e-12 5.13 -25)
(2.98e-12 5.26 -25)
(8.13e-12 5.39 -24.9)
(8.55e-12 5.49 -24.9)
(2.15e-12 5.6 -24.9)
(1.02e-11 5.73 -24.9)
(-8.62e-12 5.86 -24.8)
(7.59e-12 5.99 -24.7)
(-7.74e-12 6.14 -24.6)
(-2.33e-11 6.24 -24.6)
(-2.61e-12 6.27 -24.5)
(-1.53e-11 6.3 -24.3)
(-1.7e-11 6.43 -24.2)
(7.78e-12 6.61 -24.1)
(2.5e-11 6.74 -24)
(2.8e-11 6.79 -23.9)
(1.1e-11 6.87 -23.7)
(-5.35e-13 7.01 -23.6)
(-5.91e-12 7.11 -23.5)
(-1.82e-11 7.16 -23.3)
(-5.76e-12 7.26 -23.1)
(-3.53e-12 7.41 -22.9)
(-1.65e-11 7.51 -22.8)
(-1.78e-11 7.53 -22.5)
(1.03e-11 7.53 -22.3)
(-1.46e-11 7.62 -22.1)
(1.22e-12 7.75 -21.9)
(2.11e-11 7.88 -21.7)
(8.89e-12 8.02 -21.6)
(-5.3e-12 8.14 -21.4)
(-6.33e-12 8.18 -21.2)
(3.26e-12 8.16 -20.9)
(-4.17e-12 8.27 -20.5)
(1.08e-11 8.46 -20.4)
(-1.29e-11 8.55 -20.2)
(2.45e-11 8.52 -19.9)
(-1.16e-11 8.62 -19.6)
(1.59e-11 8.84 -19.5)
(1.05e-11 9.02 -19.3)
(-5.68e-12 9 -18.9)
(-3.27e-11 8.98 -18.5)
(-2.21e-11 9.15 -18.3)
(-1.76e-11 9.31 -18.1)
(-1.83e-11 9.26 -17.8)
(7.06e-12 9.18 -17.5)
(-4.17e-12 9.21 -17.1)
(1.66e-11 9.34 -16.8)
(3.52e-11 9.51 -16.7)
(-2.45e-11 9.59 -16.4)
(2.08e-12 9.58 -16)
(-1.55e-11 9.65 -15.7)
(3.13e-11 9.76 -15.5)
(-1.05e-11 9.76 -15.2)
(-6.51e-12 9.74 -14.8)
(1.49e-12 9.83 -14.6)
(-4.26e-12 9.95 -14.5)
(7.41e-12 9.92 -14.2)
(-4.21e-12 9.85 -13.9)
(-1.45e-11 9.89 -13.6)
(3.48e-11 9.98 -13.4)
(-6.1e-12 9.98 -13.2)
(2.07e-13 10 -12.9)
(8.39e-12 10.1 -12.6)
(-3.49e-12 9.99 -12.2)
(2.96e-12 9.95 -11.8)
(-8.83e-12 10.1 -11.6)
(-8.54e-12 10.1 -11.4)
(1.44e-12 10 -11)
(-9.49e-12 10 -10.6)
(-2.05e-12 10.1 -10.4)
(6.46e-12 10.2 -10.2)
(-5.9e-12 10.1 -9.78)
(-1.77e-11 10.1 -9.41)
(-2.16e-11 10.1 -9.18)
(-1.36e-11 10.1 -8.85)
(-5.16e-12 10 -8.44)
(2.65e-12 10 -8.09)
(-5.39e-12 10 -7.79)
(1.25e-11 9.95 -7.4)
(-5.05e-13 9.93 -7.07)
(1.24e-11 9.93 -6.8)
(2.02e-11 9.85 -6.46)
(9.82e-12 9.74 -6.08)
(1.9e-12 9.71 -5.77)
(-2.42e-11 9.66 -5.48)
(-2.75e-11 9.58 -5.15)
(-2.48e-11 9.52 -4.86)
(6.86e-12 9.49 -4.66)
(-3.66e-11 9.46 -4.48)
(3.32e-11 9.4 -4.22)
(1.17e-10 9.34 -3.9)
(2.92e-12 9.28 -3.59)
(2.19e-11 9.24 -3.29)
(-2.21e-11 9.18 -3.01)
(-3.69e-11 9.1 -2.7)
(7.25e-13 9.04 -2.43)
(5.82e-12 8.98 -2.2)
(8.83e-12 8.9 -1.95)
(8.76e-12 8.82 -1.67)
(8.68e-11 8.75 -1.44)
(2.02e-10 8.68 -1.25)
(1.49e-10 8.64 -1.05)
(2.62e-11 8.6 -0.808)
(3.07e-11 8.57 -0.579)
(-1.11e-11 8.49 -0.387)
(-1.83e-11 8.08 -0.202)
(-8.16e-12 7.26 -0.0916)
(-6.37e-12 3.89 -17.5)
(-8.03e-12 3.84 -17.5)
(-3.58e-12 3.68 -17.7)
(-1.04e-11 3.27 -17.7)
(5.31e-12 3.04 -17.8)
(6.61e-13 2.97 -17.9)
(3.78e-12 3.01 -18)
(-1.29e-11 3.17 -18)
(-1.81e-11 3.38 -18.1)
(3.05e-12 3.53 -18.1)
(-1.95e-12 3.59 -18.2)
(-1.74e-11 3.62 -18.2)
(-6.83e-12 3.66 -18.3)
(-2.88e-11 3.75 -18.3)
(1.12e-12 3.89 -18.4)
(-2.44e-13 4.01 -18.4)
(4.85e-12 4.1 -18.4)
(-3.66e-12 4.16 -18.5)
(-2.36e-11 4.2 -18.5)
(-4.39e-12 4.21 -18.6)
(-1.91e-11 4.21 -18.7)
(9.77e-12 4.22 -18.7)
(-1.63e-11 4.24 -18.8)
(2.06e-12 4.25 -18.9)
(4.34e-12 4.25 -18.9)
(4.72e-12 4.26 -19)
(2.51e-11 4.27 -19.1)
(-2.43e-12 4.28 -19.1)
(-4.27e-12 4.31 -19.3)
(-3.82e-12 4.33 -19.4)
(-3.09e-12 4.33 -19.5)
(4.07e-12 4.32 -19.6)
(-1.2e-11 4.3 -19.7)
(1.9e-11 4.31 -19.8)
(-1.03e-11 4.3 -19.9)
(-5.04e-12 4.27 -20.1)
(1.55e-11 4.21 -20.2)
(-6.62e-12 4.15 -20.3)
(9.02e-12 4.07 -20.5)
(2.95e-12 4.03 -20.7)
(2.15e-12 3.98 -20.8)
(2.39e-11 3.88 -21.2)
(1.47e-11 3.72 -21.5)
(2.18e-12 3.48 -21.8)
(1.3e-11 3.19 -22)
(1.02e-11 2.94 -22.2)
(2.57e-12 2.74 -22.4)
(7.61e-12 2.58 -22.6)
(3.98e-12 2.47 -22.8)
(1.64e-12 2.43 -22.6)
(1.13e-11 2.36 -22.4)
(-1.11e-11 2.35 -22.2)
(1.47e-12 2.43 -22.3)
(2.28e-11 2.54 -22.5)
(1.42e-11 2.68 -22.8)
(1.39e-11 2.85 -22.9)
(1.55e-11 3.03 -23.1)
(1.66e-11 3.23 -23.3)
(7.69e-12 3.42 -23.6)
(4.13e-12 3.62 -23.8)
(-1.07e-11 3.76 -24)
(1.1e-11 3.93 -24.2)
(-1.62e-11 4.24 -24.5)
(1.25e-11 4.49 -24.7)
(-6.43e-12 4.62 -24.8)
(5.95e-12 4.73 -24.9)
(-6.36e-12 4.83 -25)
(1.3e-11 4.87 -24.9)
(1.9e-12 4.88 -24.9)
(9.9e-12 4.97 -24.9)
(1.28e-11 5.12 -24.9)
(1.36e-11 5.26 -24.8)
(7.62e-12 5.35 -24.8)
(9.39e-12 5.43 -24.8)
(1.32e-11 5.53 -24.8)
(7.79e-12 5.71 -24.7)
(1.15e-11 5.85 -24.6)
(-9.11e-12 5.92 -24.5)
(-9.01e-12 6.01 -24.5)
(-1.94e-11 6.13 -24.5)
(-1.37e-11 6.2 -24.3)
(-1.08e-11 6.23 -24.1)
(-2.67e-12 6.34 -24)
(-4.92e-12 6.5 -23.9)
(-5.7e-12 6.62 -23.8)
(-9.84e-12 6.68 -23.7)
(-1.29e-11 6.77 -23.5)
(-1.5e-11 6.92 -23.4)
(-2.7e-11 7.01 -23.2)
(-2.6e-11 7.07 -23)
(-9.61e-12 7.13 -22.8)
(-1.75e-11 7.24 -22.7)
(-1.8e-11 7.36 -22.5)
(1.36e-11 7.4 -22.3)
(-1.43e-11 7.37 -22)
(-1.41e-11 7.43 -21.8)
(1.59e-11 7.57 -21.6)
(1.16e-11 7.78 -21.4)
(-8.93e-12 7.95 -21.3)
(-4.55e-12 8.06 -21.2)
(2.83e-12 8.08 -20.9)
(-3.23e-13 8.03 -20.5)
(2.36e-12 8.12 -20.2)
(-3.15e-12 8.32 -20.1)
(2.24e-11 8.39 -19.9)
(3.02e-11 8.37 -19.5)
(1.92e-11 8.49 -19.3)
(9.87e-12 8.73 -19.1)
(1.12e-11 8.85 -18.9)
(1.38e-11 8.79 -18.6)
(1.58e-11 8.77 -18.2)
(6.47e-12 8.92 -18)
(5.32e-12 9.06 -17.8)
(2.94e-12 9.05 -17.5)
(5.78e-12 9 -17.1)
(3.73e-13 9.03 -16.7)
(4.33e-11 9.15 -16.5)
(-5.13e-12 9.32 -16.4)
(8.51e-12 9.36 -16)
(1.3e-12 9.33 -15.7)
(1.77e-11 9.43 -15.4)
(2.69e-11 9.52 -15.2)
(1.54e-11 9.48 -14.8)
(6.27e-12 9.46 -14.5)
(-1.89e-12 9.56 -14.4)
(1.22e-11 9.64 -14.2)
(5.5e-12 9.62 -13.9)
(-1.35e-11 9.59 -13.6)
(4.04e-11 9.65 -13.4)
(-1.17e-12 9.68 -13.1)
(4.25e-12 9.67 -12.8)
(1.85e-11 9.73 -12.6)
(4.78e-13 9.77 -12.2)
(8.62e-12 9.65 -11.8)
(-5.49e-12 9.67 -11.5)
(-3.82e-12 9.81 -11.3)
(7.15e-12 9.83 -11)
(-6.19e-12 9.73 -10.6)
(-3.21e-12 9.73 -10.3)
(4.14e-12 9.84 -10.1)
(-1.07e-11 9.87 -9.77)
(-1.65e-11 9.78 -9.37)
(-2.1e-11 9.78 -9.09)
(-1.04e-11 9.83 -8.82)
(-1.27e-12 9.79 -8.45)
(3.55e-12 9.73 -8.06)
(-8.77e-12 9.74 -7.73)
(1.34e-11 9.71 -7.36)
(-4.33e-12 9.65 -7)
(1.33e-11 9.63 -6.71)
(3.5e-11 9.61 -6.38)
(2.71e-11 9.5 -6.01)
(1.23e-11 9.43 -5.7)
(-1.98e-11 9.41 -5.45)
(-2.63e-11 9.35 -5.15)
(-2.11e-11 9.27 -4.85)
(-7.89e-12 9.23 -4.61)
(4.07e-12 9.19 -4.44)
(-1.82e-11 9.12 -4.21)
(-3.42e-11 9.05 -3.88)
(-6.4e-11 8.98 -3.56)
(3.37e-11 8.92 -3.27)
(6.53e-11 8.88 -3.03)
(-2.56e-12 8.82 -2.75)
(7.22e-12 8.77 -2.49)
(8.84e-12 8.72 -2.25)
(2.64e-12 8.64 -1.99)
(3.58e-11 8.57 -1.71)
(4.14e-11 8.52 -1.47)
(3.89e-11 8.48 -1.27)
(4.22e-11 8.43 -1.07)
(2.32e-11 8.39 -0.833)
(3.66e-11 8.35 -0.591)
(-1.94e-11 8.27 -0.384)
(-2.44e-11 7.9 -0.182)
(-8.52e-12 7.11 -0.0985)
(-8.38e-12 3.85 -17.5)
(-7.29e-12 3.8 -17.6)
(-1.01e-11 3.64 -17.7)
(-1.21e-11 3.23 -17.8)
(6.07e-12 3 -17.9)
(-1.71e-11 2.95 -17.9)
(-1.1e-11 2.98 -18)
(-3.47e-12 3.14 -18.1)
(-1.22e-11 3.37 -18.1)
(-5.9e-12 3.53 -18.2)
(-8.24e-12 3.6 -18.2)
(-1.28e-11 3.61 -18.3)
(-1.94e-11 3.64 -18.3)
(-2.52e-11 3.74 -18.3)
(-1.64e-12 3.89 -18.4)
(-3.96e-12 4.01 -18.4)
(1.01e-11 4.11 -18.4)
(8.58e-12 4.17 -18.5)
(-3.12e-11 4.23 -18.5)
(-2.23e-11 4.24 -18.6)
(-4.19e-11 4.25 -18.6)
(-9.11e-12 4.26 -18.7)
(-2.06e-11 4.26 -18.8)
(-3.34e-12 4.27 -18.9)
(1.27e-11 4.28 -19)
(7.2e-12 4.28 -19)
(2.06e-11 4.3 -19.1)
(9.6e-12 4.32 -19.1)
(1.09e-12 4.33 -19.2)
(-9.42e-12 4.35 -19.3)
(-8.4e-13 4.37 -19.5)
(-3.28e-12 4.35 -19.6)
(-6.22e-12 4.32 -19.7)
(7.46e-12 4.32 -19.8)
(6.93e-12 4.3 -20)
(5.59e-12 4.25 -20.1)
(-4.05e-12 4.2 -20.3)
(7.04e-12 4.13 -20.4)
(9.77e-12 4.05 -20.6)
(-1.17e-12 3.96 -20.7)
(-1.18e-11 3.86 -20.9)
(-3.17e-13 3.73 -21.3)
(1.09e-11 3.55 -21.6)
(-5.29e-12 3.41 -21.9)
(3.23e-12 3.16 -22.2)
(8.86e-12 2.87 -22.4)
(1.67e-12 2.63 -22.6)
(6.55e-12 2.47 -22.7)
(5.12e-12 2.41 -22.8)
(9.04e-13 2.52 -22.6)
(9.64e-12 2.51 -22.4)
(-1.34e-11 2.46 -22.2)
(1.56e-11 2.48 -22.2)
(-3.69e-12 2.56 -22.5)
(-1.07e-11 2.67 -22.7)
(-1.91e-11 2.8 -22.8)
(-1.63e-11 2.92 -22.9)
(-1.51e-11 3.11 -23.1)
(-1.68e-11 3.32 -23.4)
(-1.45e-11 3.52 -23.7)
(-1.53e-11 3.71 -23.9)
(-2.61e-12 3.83 -24.1)
(-1.63e-11 3.98 -24.2)
(1.28e-11 4.27 -24.5)
(-2.18e-11 4.53 -24.7)
(1.84e-11 4.68 -24.8)
(-8e-14 4.8 -24.8)
(1.66e-11 4.9 -24.9)
(-1.1e-11 4.91 -24.9)
(3.06e-11 4.89 -24.8)
(1.78e-11 5 -24.7)
(1.32e-11 5.16 -24.7)
(1.24e-11 5.27 -24.8)
(8.3e-12 5.33 -24.7)
(2.45e-11 5.44 -24.7)
(1.62e-11 5.57 -24.6)
(9.48e-12 5.69 -24.5)
(-2.87e-12 5.77 -24.5)
(1.44e-12 5.83 -24.4)
(-1.26e-11 5.97 -24.3)
(-2.54e-11 6.12 -24.3)
(-3.13e-11 6.18 -24.1)
(-5.44e-12 6.22 -23.9)
(1.49e-11 6.31 -23.8)
(2.46e-11 6.45 -23.7)
(2.39e-11 6.58 -23.6)
(1.61e-11 6.65 -23.4)
(9.05e-12 6.75 -23.3)
(-8.43e-12 6.87 -23.1)
(-2.19e-11 6.96 -23)
(-3.94e-12 7 -22.8)
(-7.22e-12 7.02 -22.6)
(-1.43e-11 7.14 -22.4)
(1.37e-11 7.3 -22.3)
(-6.24e-12 7.35 -22)
(-2.61e-11 7.33 -21.7)
(8.88e-12 7.36 -21.4)
(8.62e-12 7.49 -21.2)
(-7.07e-12 7.68 -21.2)
(-8.8e-12 7.9 -21.1)
(-3.36e-13 8.04 -20.9)
(1.03e-11 8 -20.5)
(-1.25e-11 7.95 -20.2)
(6.88e-12 8.08 -20)
(2.66e-11 8.27 -19.8)
(4.45e-12 8.34 -19.5)
(-1.38e-11 8.32 -19.1)
(5.36e-12 8.45 -19)
(-2.49e-12 8.67 -18.9)
(5.66e-12 8.76 -18.6)
(-7.57e-12 8.67 -18.2)
(-9.05e-12 8.68 -17.9)
(-5.03e-12 8.86 -17.7)
(-1.46e-11 8.97 -17.5)
(5.31e-12 8.93 -17.1)
(-2.66e-11 8.93 -16.7)
(4.29e-11 8.95 -16.4)
(2.28e-12 9.08 -16.2)
(1.27e-11 9.2 -16)
(2.08e-11 9.18 -15.7)
(-6.59e-12 9.21 -15.4)
(-2.41e-11 9.35 -15.2)
(-3.45e-11 9.38 -14.9)
(-1.78e-11 9.31 -14.5)
(-8.77e-12 9.32 -14.3)
(1.44e-11 9.43 -14.2)
(1.61e-11 9.48 -14)
(-1.56e-11 9.43 -13.6)
(3.38e-11 9.44 -13.4)
(-3.63e-12 9.5 -13.1)
(8.35e-12 9.48 -12.8)
(2.56e-11 9.49 -12.5)
(-3.7e-13 9.58 -12.3)
(1.12e-11 9.51 -11.9)
(4.81e-12 9.41 -11.5)
(8.09e-12 9.52 -11.2)
(9.99e-12 9.63 -11)
(3.18e-12 9.58 -10.7)
(5.77e-12 9.47 -10.3)
(1.95e-13 9.54 -10)
(-1.84e-11 9.64 -9.79)
(-9.29e-12 9.55 -9.42)
(-1.47e-11 9.49 -9.08)
(-4.75e-12 9.52 -8.81)
(4.7e-12 9.53 -8.51)
(3.45e-12 9.45 -8.13)
(-1.03e-11 9.43 -7.78)
(8.05e-12 9.41 -7.45)
(-1.33e-11 9.34 -7.1)
(2.54e-11 9.28 -6.76)
(6.71e-11 9.26 -6.46)
(1.62e-11 9.21 -6.12)
(-7.1e-12 9.14 -5.8)
(-2.97e-11 9.11 -5.51)
(-2.8e-11 9.07 -5.22)
(-2.72e-11 9.02 -4.91)
(6.76e-12 8.98 -4.67)
(-3.74e-11 8.94 -4.48)
(6.41e-12 8.89 -4.27)
(1.05e-10 8.82 -3.95)
(3.26e-11 8.75 -3.61)
(-1.37e-11 8.71 -3.33)
(-4.47e-11 8.69 -3.09)
(-3e-11 8.64 -2.81)
(1.33e-12 8.58 -2.55)
(6.92e-12 8.52 -2.28)
(-2.48e-12 8.47 -2.04)
(2.24e-11 8.4 -1.77)
(8.01e-11 8.36 -1.54)
(1.3e-10 8.33 -1.31)
(6.02e-11 8.28 -1.08)
(3.12e-11 8.24 -0.823)
(2.6e-11 8.2 -0.576)
(-2.73e-11 8.12 -0.378)
(-2.9e-11 7.79 -0.183)
(-8.49e-12 6.96 -0.0962)
(-5.64e-12 3.87 -17.5)
(-3.52e-12 3.82 -17.6)
(-3.29e-12 3.67 -17.8)
(-1.32e-11 3.26 -17.8)
(-1.12e-11 3.03 -18)
(4.42e-12 2.98 -18)
(-5.96e-14 3.02 -18.1)
(-2.05e-11 3.19 -18.2)
(-3.88e-12 3.42 -18.2)
(-3.5e-12 3.59 -18.2)
(1.08e-11 3.66 -18.3)
(1.07e-11 3.67 -18.3)
(-1.26e-11 3.71 -18.3)
(-9.46e-12 3.81 -18.4)
(-1.66e-11 3.96 -18.4)
(-1.42e-11 4.1 -18.4)
(-7.84e-12 4.19 -18.5)
(1.75e-11 4.26 -18.5)
(1.18e-11 4.3 -18.5)
(1.85e-11 4.32 -18.6)
(-7.1e-14 4.32 -18.6)
(2.24e-11 4.33 -18.7)
(1.12e-11 4.33 -18.8)
(2.17e-12 4.33 -18.9)
(1.15e-11 4.36 -19)
(-8.13e-12 4.36 -19)
(1.41e-11 4.37 -19.1)
(1.97e-12 4.39 -19.1)
(-1.02e-11 4.4 -19.2)
(-1.33e-11 4.42 -19.3)
(-6.44e-13 4.44 -19.4)
(2.76e-13 4.45 -19.6)
(-1.33e-12 4.42 -19.7)
(-1.24e-11 4.38 -19.8)
(1.95e-11 4.34 -20)
(3.02e-12 4.27 -20.2)
(-1.39e-12 4.2 -20.4)
(-8.87e-12 4.14 -20.5)
(-1.7e-12 4.08 -20.7)
(1.41e-12 3.96 -20.9)
(-3.31e-12 3.77 -21.1)
(-2.51e-12 3.59 -21.4)
(1.2e-11 3.47 -21.8)
(-2.61e-12 3.3 -22.1)
(-2.99e-12 3.08 -22.4)
(1.03e-11 2.85 -22.6)
(3.72e-12 2.6 -22.8)
(6.11e-12 2.4 -22.8)
(1.16e-11 2.39 -22.7)
(7.37e-12 2.57 -22.5)
(2.19e-11 2.63 -22.4)
(-1.21e-11 2.58 -22.2)
(2.41e-11 2.56 -22.2)
(-1.39e-11 2.59 -22.4)
(-6.86e-12 2.67 -22.5)
(3.73e-12 2.76 -22.7)
(8.61e-12 2.9 -22.8)
(7.98e-12 3.06 -22.9)
(-1.61e-12 3.25 -23.2)
(-6.35e-12 3.45 -23.5)
(-1.44e-11 3.64 -23.8)
(-1.53e-11 3.79 -24)
(-5.59e-12 3.9 -24.1)
(5.46e-12 4.06 -24.2)
(-8.16e-12 4.35 -24.5)
(1.11e-11 4.59 -24.7)
(8.64e-12 4.71 -24.7)
(2.11e-11 4.81 -24.8)
(-2.28e-12 4.91 -24.9)
(1.97e-11 4.93 -24.8)
(7.54e-12 4.93 -24.6)
(2.09e-11 5.01 -24.6)
(1.97e-11 5.13 -24.7)
(5.14e-12 5.24 -24.6)
(1.35e-11 5.36 -24.6)
(3.61e-12 5.44 -24.5)
(5.82e-12 5.53 -24.4)
(-5.8e-12 5.62 -24.4)
(-5.94e-12 5.72 -24.3)
(-1.09e-11 5.82 -24.2)
(-5.93e-12 5.94 -24.1)
(-3.18e-12 6.07 -24)
(1.33e-11 6.13 -23.8)
(1.74e-11 6.17 -23.7)