/*--------------------------------*- C++ -*----------------------------------*\
| =========                 |                                                 |
| \\      /  F ield         | OpenFOAM: The Open Source CFD Toolbox           |
|  \\    /   O peration     | Version:  2212                                  |
|   \\  /    A nd           | Website:  www.openfoam.com                      |
|    \\/     M anipulation  |                                                 |
\*---------------------------------------------------------------------------*/
FoamFile
{
    version     2.0;
    format      ascii;
    arch        "LSB;label=32;scalar=64";
    class       volVectorField;
    location    "0.045";
    object      U;
}
// * * * * * * * * * * * * * * * * * * * * * * * * * * * * * * * * * * * * * //

dimensions      [0 1 -1 0 0 0 0];

internalField   nonuniform List<vector> 
2308
(
(-2.14081 7.50467 -1.03058e-15)
(6.04168 6.46163 0)
(1.16027 6.59089 7.26641e-17)
(8.32219 19.2321 -3.63129e-16)
(1.60456 15.9376 0)
(4.63577 17.9176 -2.82725e-19)
(0.530264 15.5071 2.92493e-20)
(-0.661199 15.3217 -5.03029e-16)
(0.809918 15.2331 9.14616e-16)
(7.71046 11.7953 -1.2175e-16)
(8.53872 12.7284 2.16743e-16)
(9.01527 14.587 -3.19812e-16)
(9.33692 15.8762 1.57579e-16)
(9.2684 16.9464 -8.00638e-17)
(8.94727 17.8163 1.36073e-17)
(8.449 18.4696 1.13055e-16)
(7.79167 18.8996 1.51793e-17)
(6.35741 18.2502 3.49129e-17)
(7.30788 18.1497 4.70779e-17)
(7.99808 17.7459 3.48354e-18)
(8.60166 17.2621 2.65967e-17)
(9.03101 16.6147 -7.76527e-17)
(9.18065 15.7497 9.9961e-17)
(9.0359 14.4228 -4.5862e-17)
(8.28195 13.4482 -1.98219e-16)
(7.70753 12.5162 -9.42298e-17)
(7.20574 11.699 4.81234e-17)
(6.24904 11.4102 -5.30229e-17)
(1.28053 16.2006 0)
(6.95538 19.0432 -3.22526e-16)
(5.87394 11.3924 2.82691e-18)
(5.50591 11.2053 7.23916e-19)
(5.12442 10.6822 -1.24066e-17)
(4.66781 9.60732 1.16761e-17)
(4.04926 7.98049 -1.25017e-17)
(3.2329 5.95337 1.16792e-17)
(2.30117 3.84623 -5.88717e-18)
(1.45338 2.1606 5.83791e-18)
(0.917537 1.32026 -5.86378e-18)
(0.872084 1.49652 2.92583e-18)
(1.41834 2.6426 5.86114e-18)
(2.44084 4.47405 8.79093e-18)
(3.76449 6.78694 -1.76454e-17)
(5.12661 9.43491 1.18124e-17)
(6.2828 12.3132 5.88799e-18)
(2.81762 13.2611 -5.932e-18)
(1.91963 10.6554 5.88754e-18)
(0.784094 8.10651 -8.83973e-18)
(-0.377578 5.65514 -9.60157e-18)
(-1.3422 3.44746 1.46529e-17)
(-1.90875 1.73767 -2.93079e-18)
(-1.88776 0.963469 5.86864e-18)
(-1.25569 1.28515 1.43757e-18)
(-0.141884 2.7036 -8.85249e-18)
(1.21436 4.76466 -2.90626e-18)
(2.54695 6.95026 5.9131e-18)
(3.67597 8.8081 0)
(4.55597 10.0677 -7.34219e-19)
(5.21441 10.6773 -2.39974e-17)
(5.77299 10.8207 -8.2704e-17)
(6.44832 10.925 9.75093e-17)
(6.74552 10.7402 1.00013e-16)
(7.46288 11.2721 1.15476e-16)
(7.89921 12.0332 -2.82743e-19)
(8.53154 13.1934 1.29055e-16)
(9.01488 14.4486 -2.39749e-16)
(9.25374 15.9066 -5.4855e-17)
(9.31171 17.2237 0)
(9.12312 18.2923 0)
(8.71903 19.0874 0)
(8.15175 19.5791 0)
(6.97761 15.4005 -2.96045e-18)
(3.36742 15.9469 2.96985e-18)
(6.19313 16.9115 -1.62204e-16)
(7.14423 16.858 -3.2814e-18)
(8.02079 16.6557 1.2863e-17)
(8.59201 16.2326 0)
(8.84795 15.6204 -2.46727e-17)
(8.768 14.7706 -2.42035e-17)
(8.36181 14.0058 1.21099e-17)
(7.70547 13.1415 4.86694e-17)
(6.97557 12.3867 0)
(6.34549 12.0096 6.54342e-20)
(5.8991 11.7487 9.02234e-20)
(5.65028 11.441 -1.16848e-17)
(5.53275 10.8916 1.75494e-17)
(5.45663 9.90013 5.89942e-20)
(5.29775 8.42759 -1.02244e-17)
(5.00868 6.55739 0)
(4.60648 4.4996 -1.4637e-18)
(4.21669 2.6793 8.80677e-18)
(4.03009 1.48177 -1.17179e-17)
(4.24379 1.16207 -1.37073e-20)
(4.98501 1.78293 1.17227e-17)
(6.19098 3.22821 0)
(7.67768 5.35088 1.17486e-17)
(9.20287 8.07099 -9.98771e-21)
(10.4125 11.2844 -5.91205e-18)
(5.3712 18.1006 -1.38436e-16)
(10.9842 14.8946 -5.90362e-18)
(5.97619 18.8745 1.41008e-16)
(7.44084 19.7433 8.90925e-21)
(-0.343953 16.3033 -5.95316e-18)
(-0.487234 13.8611 7.41578e-18)
(-0.899763 11.5392 0)
(-1.57915 9.14792 -2.23224e-18)
(-2.41453 6.67496 5.15642e-18)
(-3.24946 4.24741 5.91291e-18)
(-3.87694 2.09535 -5.89051e-18)
(-4.0575 0.673438 0)
(-3.55861 0.341613 -1.47114e-18)
(-2.40476 1.28156 2.94753e-18)
(-0.813983 3.12305 -6.06355e-21)
(0.933849 5.38208 -2.97118e-18)
(2.53483 7.49011 0)
(3.83978 9.0257 4.40619e-18)
(4.83495 9.88592 -1.76558e-17)
(5.56998 10.2115 -1.17841e-17)
(6.12669 10.2759 4.78561e-17)
(6.61574 10.3165 1.7719e-16)
(7.11201 10.6282 1.33658e-17)
(7.68844 11.4553 1.27011e-16)
(8.24047 12.6875 -5.75451e-17)
(8.70426 14.1964 0)
(9.07427 15.8902 0)
(9.23944 17.4326 0)
(9.17644 18.6799 1.89917e-16)
(8.90456 19.6067 -2.20813e-16)
(8.44555 20.1871 2.24811e-16)
(-1.19493 14.6501 -4.03006e-16)
(5.78389 18.6753 0)
(5.09063 18.7925 0)
(5.39882 18.8328 0)
(4.30158 15.9153 3.23591e-16)
(5.76253 16.1272 9.1486e-17)
(6.67027 16.0083 3.11964e-21)
(7.43767 15.9656 -1.55759e-18)
(8.00587 15.7891 1.54883e-18)
(8.32247 15.4704 1.22794e-17)
(8.33905 14.9846 -2.43262e-17)
(8.05727 14.4005 -2.3037e-20)
(7.52124 13.702 0)
(6.87247 13.0213 5.37096e-17)
(6.29479 12.4874 3.53253e-17)
(5.90602 11.9987 -5.85131e-18)
(5.76238 11.4767 5.85063e-18)
(5.83653 10.7814 0)
(6.04512 9.75882 0)
(6.26216 8.34892 -7.34836e-19)
(6.44311 6.5737 0)
(6.55675 4.56826 4.40594e-18)
(6.70336 2.65687 1.33411e-21)
(7.04979 1.19709 -2.93157e-18)
(7.78049 0.468768 0)
(9.01534 0.659158 -2.96535e-18)
(10.6687 1.80528 4.41557e-18)
(12.5222 3.82666 -7.3786e-18)
(14.259 6.72393 0)
(15.4735 10.3804 -1.17588e-17)
(15.7681 14.5854 2.94588e-18)
(14.8334 19.0388 -1.59824e-20)
(10.6679 18.6963 0)
(7.06487 18.6077 -1.48031e-18)
(3.55925 18.743 -4.8156e-18)
(-0.172266 15.4434 4.39023e-16)
(-0.340581 18.9291 3.72236e-19)
(-2.09295 13.2423 -1.26702e-15)
(-2.99913 11.8796 -2.90222e-16)
(6.52543 19.6253 0)
(-1.26957 13.9459 4.1897e-16)
(0.958774 16.1497 -8.78165e-16)
(4.80776 18.1133 5.76151e-17)
(7.83143 20.3845 -3.39893e-16)
(12.6346 23.3519 -2.97244e-18)
(9.41069 22.3809 -2.95772e-18)
(6.53126 21.7366 -3.71193e-19)
(3.44811 21.5535 5.94782e-18)
(-0.341405 21.7 3.72548e-19)
(-5.27609 22.0631 0)
(-5.02549 18.9842 2.99021e-18)
(-4.50298 16.25 5.97189e-18)
(-3.99049 13.9037 -1.47978e-18)
(-3.69638 11.7865 -5.94772e-18)
(-3.71873 9.63065 -6.70186e-18)
(-4.05643 7.33145 8.89575e-18)
(-4.58837 4.91499 2.97025e-18)
(-5.1405 2.54467 -5.94318e-18)
(-5.46307 0.572026 4.44925e-18)
(-5.21142 -0.469827 -1.29875e-18)
(-4.21052 -0.192846 0)
(-2.57978 1.24205 0)
(-0.616305 3.40749 0)
(1.33993 5.71553 5.92677e-18)
(3.02247 7.60102 -3.01188e-18)
(4.31017 8.80798 -4.31191e-20)
(5.2432 9.42227 -2.40397e-17)
(5.90121 9.64881 0)
(6.38985 9.77175 -2.52036e-17)
(6.78968 10.07 2.60746e-17)
(7.26273 10.8533 5.36789e-17)
(7.79459 12.1555 2.73297e-17)
(8.3164 13.8565 1.08903e-16)
(8.77643 15.7338 -1.08179e-16)
(9.06104 17.4882 0)
(9.13906 18.9137 2.67229e-17)
(9.01242 19.9757 -5.37592e-17)
(8.6699 20.6591 -1.08904e-16)
(2.31653 15.7306 5.20188e-17)
(-0.251237 7.60283 0)
(2.54235 16.6755 -2.30752e-19)
(-1.41897 14.1525 5.55713e-16)
(-1.02019 14.3941 -1.18879e-16)
(-0.111752 14.5691 1.35656e-16)
(0.817448 14.6078 -2.57678e-17)
(1.75001 14.6325 5.05439e-17)
(2.74767 14.692 -2.46498e-17)
(3.7923 14.7798 0)
(4.8898 14.9921 -2.39218e-17)
(5.83208 15.0917 -2.42776e-17)
(6.63069 15.1829 0)
(7.24225 15.2404 0)
(7.62214 15.1944 1.52494e-18)
(7.73637 15.0079 -1.362e-17)
(7.58113 14.6529 0)
(7.20222 14.1435 0)
(6.70956 13.5263 -1.79724e-17)
(6.25232 12.8608 -1.18493e-17)
(5.95694 12.1383 2.35751e-17)
(5.90895 11.3523 5.88999e-18)
(6.11797 10.4355 1.47512e-18)
(6.51661 9.29496 5.90975e-18)
(7.00816 7.84692 -6.62759e-18)
(7.53782 6.08477 0)
(8.08787 4.077 -2.95419e-18)
(8.74632 2.0475 0)
(9.67476 0.317479 0)
(11.0482 -0.790558 0)
(12.9263 -0.948398 -1.18155e-17)
(15.2364 0.0115659 0)
(17.696 2.09344 -6.6235e-18)
(19.8834 5.28278 1.10714e-18)
(21.3088 9.43233 2.32389e-17)
(21.4298 14.2818 0)
(19.8717 19.362 -1.17526e-17)
(16.6757 24.2715 1.83975e-19)
(-0.169082 10.0668 0)
(-1.7465 13.4514 6.87909e-16)
(4.87567 4.46602 1.09983e-15)
(7.44915 18.6981 0)
(0.222207 2.81412 -3.31173e-16)
(-2.40152 12.0203 1.43923e-15)
(7.08802 20.1442 -3.16496e-19)
(2.86685 16.7984 1.09535e-16)
(-11.3762 22.3602 -3.76179e-19)
(-10.5045 18.6377 -2.99479e-18)
(-9.14025 15.6024 2.99993e-18)
(-7.7153 13.2331 0)
(-6.55902 11.322 0)
(-5.82107 9.48887 3.73195e-19)
(-5.5444 7.48543 -1.48896e-18)
(-5.63442 5.24961 -5.21985e-18)
(-5.92925 2.87157 3.70576e-19)
(-6.17841 0.611297 -7.66435e-19)
(-6.10061 -1.05149 -9.13722e-19)
(-5.40054 -1.55713 4.09465e-18)
(-3.89999 -0.688056 3.50647e-19)
(-1.88635 1.22266 -3.003e-18)
(0.248244 3.62082 0)
(2.19318 5.84992 1.19311e-17)
(3.72415 7.47937 -6.62331e-20)
(4.82237 8.46349 6.04969e-17)
(5.56308 8.95411 -4.90405e-17)
(6.04889 9.2198 0)
(6.4152 9.56997 5.12313e-17)
(6.81107 10.3329 -1.57036e-16)
(7.28889 11.6485 7.97506e-17)
(7.83845 13.4279 1.05748e-16)
(8.37938 15.4365 -3.89252e-19)
(8.79282 17.3615 -1.05134e-16)
(9.00904 18.9567 1.0478e-16)
(9.03784 20.1574 1.04964e-16)
(8.89817 20.9288 -1.0544e-16)
(8.093 20.955 -2.1604e-16)
(-0.420809 13.5846 1.2497e-19)
(-2.75847 9.91238 1.35822e-19)
(-1.42064 13.1064 -9.83112e-17)
(-0.996401 13.3338 -1.30551e-17)
(-0.367458 13.4754 -3.86551e-17)
(0.419771 13.5016 -1.26419e-17)
(1.28756 13.5083 0)
(2.21237 13.5534 2.45171e-17)
(3.16395 13.678 -1.21348e-17)
(4.11908 13.8944 -1.20725e-17)
(4.99189 14.1328 6.0812e-18)
(5.75044 14.389 6.09126e-18)
(6.36034 14.6369 1.21839e-17)
(6.78076 14.82 0)
(6.9884 14.8792 1.20581e-17)
(6.96721 14.7365 -1.18269e-17)
(6.76428 14.3903 -1.87505e-19)
(6.45997 13.8239 -3.593e-17)
(6.17932 13.0556 2.98213e-18)
(6.03828 12.1304 -1.48286e-17)
(6.12674 11.0848 0)
(6.46087 9.91991 -4.8113e-18)
(6.99506 8.60284 3.58768e-19)
(7.65677 7.05969 6.65654e-18)
(8.39845 5.23959 0)
(9.2445 3.15149 0)
(10.2857 0.943837 -1.85589e-19)
(11.6864 -1.0839 -5.73185e-18)
(13.6361 -2.52945 5.92162e-18)
(16.1632 -3.00276 7.41494e-18)
(19.1903 -2.23571 -1.47956e-18)
(22.3911 -0.11947 4.45394e-18)
(25.2612 3.32642 -1.4672e-18)
(27.1602 7.94711 -1.18644e-17)
(27.3846 13.4226 1.17953e-17)
(25.396 19.0596 2.66143e-17)
(21.3181 24.4955 1.17468e-17)
(14.9408 28.1392 0)
(11.7498 27.9328 -6.12033e-18)
(9.1234 26.7799 -2.76095e-20)
(7.19468 25.4171 6.68528e-18)
(5.40544 24.4083 2.23225e-18)
(3.12181 24.0583 -2.97375e-18)
(-0.161161 24.3169 5.97825e-18)
(-4.90879 25.1865 -5.96555e-18)
(-11.1896 26.3259 -3.00597e-18)
(4.36352 4.1864 -4.09753e-16)
(1.57919 6.76809 -9.36249e-17)
(-3.35656 4.20628 -1.62756e-16)
(-2.22849 12.5547 -6.9815e-16)
(-1.88673 8.64748 -3.45622e-16)
(1.68918 4.96035 9.77285e-17)
(8.57154 21.2542 0)
(7.17139 20.7557 4.30389e-16)
(-0.833178 12.8125 1.01877e-15)
(-1.96493 12.2092 4.17517e-16)
(-0.722933 8.99566 -4.19119e-16)
(2.05713 17.0352 8.98573e-16)
(-1.77065 12.143 0)
(-1.20735 12.2808 1.28135e-17)
(-0.537657 12.345 -3.16231e-18)
(0.205786 12.3767 -5.9245e-17)
(0.988657 12.4049 1.23269e-17)
(1.79789 12.4714 0)
(2.61206 12.6327 -1.75616e-20)
(3.40843 12.892 -3.02713e-18)
(4.15153 13.2225 0)
(4.81701 13.6121 -6.05891e-18)
(5.37902 14 -6.04901e-18)
(5.81459 14.3582 0)
(6.10097 14.6019 1.50819e-18)
(6.22122 14.6393 -1.51169e-18)
(6.20515 14.4092 1.50076e-18)
(6.12267 13.8776 2.24711e-17)
(6.06557 13.0184 0)
(6.13536 11.902 2.98149e-18)
(6.40399 10.6187 -1.4889e-18)
(6.87914 9.24172 3.71806e-19)
(7.52515 7.76464 1.11849e-18)
(8.2845 6.12182 -6.69788e-18)
(9.13058 4.21867 0)
(10.1195 2.00995 1.48693e-18)
(11.3503 -0.400724 2.97892e-18)
(13.0443 -2.74467 2.98722e-18)
(15.4049 -4.58071 -1.13468e-20)
(18.5007 -5.41737 -1.48267e-18)
(22.2175 -4.91524 -4.43993e-18)
(26.2232 -2.91759 -2.95927e-18)
(29.9402 0.570141 -2.94351e-18)
(32.5725 5.42966 0)
(33.1689 11.3385 -1.19057e-17)
(30.998 17.381 -1.19024e-17)
(26.2601 23.2629 -8.9412e-18)
(18.4462 26.6042 -1.62045e-17)
(11.039 30.2673 7.41932e-18)
(8.46171 31.5018 -5.88418e-18)
(6.32919 30.8335 0)
(4.98868 29.2748 2.97723e-18)
(4.40949 27.5849 2.9911e-18)
(3.92888 26.3527 -5.93999e-18)
(2.77144 26.0225 5.9722e-18)
(0.401986 26.6478 4.24485e-21)
(-3.71985 28.1907 -2.9938e-18)
(-9.65953 30.39 9.0106e-18)
(-17.0015 32.722 -9.03111e-18)
(-18.7852 27.3515 1.49295e-18)
(-18.5698 22.3013 -1.1299e-18)
(-16.7904 17.7554 2.25582e-18)
(-14.2703 14.2741 -7.49159e-18)
(-11.6971 11.833 2.81324e-18)
(-9.50924 10.1373 0)
(-7.90929 8.67725 3.74779e-19)
(-6.91628 7.08313 5.24969e-18)
(-6.46627 5.15418 -7.47153e-19)
(-6.37593 2.91382 1.87001e-18)
(-6.40146 0.553789 2.82243e-21)
(-6.32593 -1.46524 7.53904e-19)
(-5.87297 -2.6502 -3.73953e-19)
(-4.69211 -2.52269 2.60957e-18)
(-2.80758 -1.02043 -8.97297e-18)
(-0.639155 1.37 6.28001e-20)
(1.42348 3.87681 6.04457e-18)
(3.10997 5.95717 -6.04653e-18)
(4.32551 7.3709 -4.85116e-17)
(5.13232 8.1966 4.89631e-17)
(5.63375 8.67202 0)
(5.96905 9.10397 -1.00989e-16)
(6.30495 9.8497 7.63634e-17)
(6.74349 11.1281 -7.76215e-17)
(7.30349 12.9057 0)
(7.90047 14.9895 0)
(8.44496 17.0551 0)
(8.82943 18.8019 -1.28446e-17)
(9.0479 20.1431 -7.47466e-20)
(9.07571 21.0043 2.03294e-16)
(0.257933 13.1717 -4.58156e-16)
(8.13437 21.1356 2.16413e-16)
(6.34745 20.4972 -2.02646e-16)
(1.41254 15.621 2.58366e-17)
(-1.2954 11.9857 4.89781e-16)
(-2.21834 11.2113 4.18085e-16)
(-2.71039 11.3682 1.10888e-19)
(-2.89095 11.2855 -4.3616e-16)
(-3.04316 8.34061 -3.03494e-16)
(-2.08223 12.0123 -3.01489e-16)
(-2.36179 10.9514 1.09087e-16)
(-1.74102 11.0906 -2.53737e-17)
(-1.13237 11.2031 -5.00523e-17)
(-0.484722 11.2764 0)
(0.19081 11.3272 4.9398e-17)
(0.865929 11.3929 0)
(1.52849 11.5035 0)
(2.16818 11.709 1.21119e-17)
(2.77787 12.0205 3.02237e-18)
(3.34913 12.4173 0)
(3.87825 12.889 6.04493e-18)
(4.35582 13.3723 -3.91751e-21)
(4.76684 13.8266 5.06503e-21)
(5.11461 14.1851 6.03276e-18)
(5.37324 14.3388 6.76405e-18)
(5.56506 14.1794 -6.76759e-18)
(5.73115 13.6446 -1.23651e-17)
(5.94128 12.7024 3.73913e-19)
(6.26471 11.4325 -2.24342e-18)
(6.73857 9.96322 7.42226e-19)
(7.36057 8.4162 2.98942e-18)
(8.10189 6.82295 -2.23943e-18)
(8.9075 5.11947 2.9881e-18)
(9.78227 3.16414 6.48752e-21)
(10.7984 0.871672 -7.46235e-18)
(12.0732 -1.72805 2.98262e-18)
(13.8827 -4.40893 2.98179e-18)
(16.4304 -6.68316 -4.47433e-18)
(19.8642 -8.00402 5.94296e-18)
(24.123 -7.98768 5.9668e-18)
(28.9049 -6.44712 0)
(33.6227 -3.27504 1.7842e-17)
(37.2743 1.5282 2.9769e-18)
(38.532 7.56725 2.97863e-18)
(36.4533 13.675 0)
(31.1667 19.8293 0)
(21.8803 22.4749 8.93703e-18)
(13.188 26.6879 -6.38877e-22)
(0.0416205 19.5913 -1.46135e-18)
(-0.0889793 25.7514 1.48043e-18)
(-0.320297 28.8924 0)
(-0.604169 29.7374 0)
(-0.0910927 28.9939 -1.48885e-18)
(1.09918 27.6575 4.4566e-18)
(2.28085 26.7651 0)
(2.63168 26.8966 -2.98749e-18)
(1.53084 28.1244 -2.9896e-18)
(-1.57273 30.2988 5.99012e-18)
(-6.59041 33.5315 -2.99943e-18)
(-12.9729 37.1715 9.04243e-18)
(-19.9665 39.8202 1.51018e-18)
(-25.2345 34.0894 1.51201e-18)
(-27.3805 27.4489 3.01679e-18)
(-26.7235 21.3462 0)
(-23.8383 16.0125 -1.13221e-18)
(-19.8632 12.1347 -2.82963e-19)
(-15.8715 9.68801 1.6948e-18)
(-12.4489 8.26356 -3.77766e-19)
(-9.8513 7.22865 -7.50867e-19)
(-8.09233 6.09638 -6.01007e-18)
(-7.04839 4.58242 1.50616e-18)
(-6.51361 2.59114 -3.75711e-18)
(-6.24792 0.298613 1.87166e-18)
(-6.08708 -1.86714 -7.50696e-19)
(-5.74413 -3.49957 0)
(-4.90772 -4.0691 0)
(-3.33691 -3.14272 0)
(-1.30054 -0.926597 -3.01587e-18)
(0.756714 1.79871 0)
(2.51338 4.30074 4.30479e-20)
(3.80511 6.17488 2.42727e-17)
(4.6548 7.37947 -1.21638e-17)
(5.16831 8.10468 2.46759e-17)
(5.47876 8.64381 7.4908e-17)
(5.77625 9.36936 -2.30717e-20)
(6.17606 10.5652 -2.53595e-17)
(6.72095 12.2891 -5.04768e-17)
(7.36788 14.3853 1.00331e-16)
(8.029 16.54 -5.04563e-17)
(8.56661 18.4239 -2.2257e-20)
(8.94469 19.895 2.49484e-17)
(9.15984 20.8495 -9.23478e-20)
(8.90558 21.3904 -3.10254e-16)
(-0.205 12.3518 -4.71169e-16)
(1.03366 12.4887 8.89054e-16)
(3.00996 4.57124 0)
(8.6051 21.294 -2.12272e-16)
(-3.19664 9.94987 7.78841e-16)
(-3.17598 10.215 -4.1613e-16)
(-2.96478 10.2074 -7.96648e-16)
(6.31848 20.0919 -6.78103e-17)
(-0.301432 15.3563 -6.46659e-17)
(2.20598 16.5599 -2.58707e-17)
(7.75374 20.7245 1.45495e-19)
(-1.64885 10.9757 -4.79734e-16)
(-2.52067 10.028 4.00325e-16)
(-2.04272 29.1889 -1.46085e-18)
(-3.93132 31.6332 -1.4644e-18)
(-5.98953 32.6434 0)
(-6.6798 32.1348 -1.48108e-18)
(-5.49831 30.9107 1.47606e-18)
(-2.71034 29.4729 -1.48953e-18)
(0.728518 28.4262 1.48388e-18)
(3.42756 28.4902 2.97875e-18)
(4.14868 29.9154 -2.97023e-18)
(2.25993 33.0803 5.99208e-18)
(-1.71184 37.2066 -8.99726e-18)
(-6.52566 41.9565 0)
(-11.8404 45.8821 -2.82012e-22)
(-17.0706 47.013 0)
(-26.8906 39.6908 -9.07968e-18)
(-33.5164 32.8797 3.02581e-18)
(-36.1393 25.3598 0)
(-35.143 18.5921 0)
(-31.1671 12.8888 7.54854e-19)
(-25.6213 8.93816 -9.4347e-20)
(-20.0205 6.69813 0)
(-15.2087 5.67809 -3.79102e-19)
(-11.5079 5.18537 3.77698e-19)
(-8.94173 4.61168 1.5074e-18)
(-7.30251 3.5682 7.52466e-19)
(-6.3295 1.91935 1.50929e-18)
(-5.79304 -0.167833 7.22217e-21)
(-5.52828 -2.31639 -3.00769e-18)
(-5.23557 -4.19026 7.48411e-19)
(-4.6586 -5.312 3.00498e-18)
(-3.48446 -5.00261 7.35586e-19)
(-1.71196 -3.11083 -1.53017e-18)
(0.23112 -0.294836 2.99901e-18)
(1.96323 2.57166 -9.06088e-18)
(3.27983 4.8988 -1.20708e-17)
(4.15424 6.50315 6.12641e-18)
(4.67589 7.50364 -1.22481e-17)
(4.97814 8.17454 0)
(5.21597 8.8816 -3.72973e-17)
(5.57273 9.96033 7.53885e-17)
(6.11885 11.5757 0)
(6.80022 13.628 0)
(7.54686 15.8178 0)
(8.2263 17.8264 1.85028e-17)
(8.75907 19.4194 -3.14407e-20)
(9.1577 20.4908 8.96663e-21)
(9.19959 21.299 -1.99712e-16)
(3.21919 16.0004 -4.70382e-16)
(-0.632619 11.4624 -1.60143e-19)
(8.67042 16.2141 3.8897e-16)
(0.765919 3.97337 0)
(-1.8086 9.96196 -2.3793e-17)
(-0.969713 10.1568 0)
(-0.281292 10.2668 0)
(0.336651 10.3716 1.2221e-17)
(0.898877 10.5032 -2.43872e-17)
(1.40057 10.6865 0)
(1.84792 10.9539 1.21391e-17)
(2.24955 11.3218 0)
(2.61869 11.7607 -3.02344e-18)
(2.97729 12.268 3.01578e-18)
(3.33876 12.7847 -1.50998e-17)
(3.70208 13.2596 7.58811e-21)
(4.08316 13.6474 -6.01881e-18)
(4.47317 13.838 1.2053e-17)
(4.86569 13.6899 9.01843e-18)
(5.28897 13.1114 -9.02672e-18)
(5.78269 12.0801 0)
(6.38039 10.6868 5.01935e-21)
(7.08772 9.09656 -4.49687e-18)
(7.87363 7.4616 0)
(8.70274 5.83692 0)
(9.52836 4.14496 1.49945e-18)
(10.3908 2.19496 4.49629e-18)
(11.3507 -0.118711 -3.00113e-18)
(12.5897 -2.8392 2.98427e-18)
(14.3269 -5.78732 -5.96708e-18)
(16.8111 -8.49886 -1.4966e-18)
(20.2804 -10.4402 -1.19575e-17)
(24.8078 -11.2188 5.97786e-18)
(30.2257 -10.5614 0)
(36.0234 -8.18824 -1.19459e-17)
(40.8562 -4.03234 -5.95832e-18)
(42.8314 1.51686 0)
(41.0063 7.24242 5.9644e-18)
(34.9241 13.491 4.5528e-20)
(24.3397 15.2243 8.92561e-18)
(14.2164 20.5864 8.86433e-18)
(-0.596736 10.4504 0)
(-1.54395 25.8299 -2.90925e-18)
(1.81818 11.6293 -4.37656e-16)
(0.542708 11.6781 -9.00317e-16)
(1.02177 9.40462 1.34737e-16)
(7.3626 20.0667 -1.88806e-16)
(-1.95922 9.73761 8.11617e-16)
(8.11346 20.818 -7.16986e-20)
(-22.2708 43.7475 1.51813e-18)
(-33.3338 35.0575 7.56479e-18)
(-41.0347 27.409 -6.06087e-18)
(-44.0393 19.6746 0)
(-42.7703 13.0514 0)
(-37.848 7.78717 0)
(-30.8341 4.3995 0)
(-23.6609 2.80872 1.51133e-18)
(-17.4694 2.45218 -7.59456e-19)
(-12.7108 2.63796 3.79169e-19)
(-9.36973 2.70613 -2.26755e-18)
(-7.17727 2.21378 1.5074e-18)
(-5.82929 0.994236 7.5555e-19)
(-5.09926 -0.777856 -1.1289e-18)
(-4.75734 -2.80174 0)
(-4.51439 -4.78032 5.8544e-22)
(-4.13412 -6.26779 -7.52309e-19)
(-3.32674 -6.53927 7.52494e-19)
(-1.89783 -5.08996 1.50418e-18)
(-0.155316 -2.32032 -1.69872e-18)
(1.49427 0.825548 1.69136e-18)
(2.78944 3.57388 -4.53045e-18)
(3.66147 5.57945 -9.07979e-18)
(4.1789 6.87066 6.07933e-18)
(4.47112 7.68717 0)
(4.70286 8.38936 -4.41341e-21)
(5.01021 9.33107 -3.71903e-17)
(5.5136 10.796 3.09397e-17)
(6.21734 12.7492 -6.19311e-18)
(7.00616 14.9321 0)
(7.79061 17.045 -6.1e-18)
(8.4677 18.7677 8.41727e-17)
(9.08289 19.9393 -4.66485e-17)
(9.39351 21.0098 1.88974e-16)
(4.02379 16.4044 9.64585e-16)
(-1.00583 10.5385 -2.44509e-19)
(-18.6779 -9.89421 -7.40582e-19)
(-17.3336 1.54635 4.43551e-18)
(-15.9359 10.7248 7.48554e-19)
(-14.7106 15.5216 0)
(-12.854 16.4458 -1.47564e-18)
(-9.75211 15.0152 1.47058e-18)
(-5.53214 13.6307 -2.22187e-18)
(-1.13936 13.8696 -5.20257e-18)
(2.84474 16.8445 5.91382e-18)
(5.46571 22.7721 0)
(6.02367 29.9148 -2.97684e-18)
(3.68942 37.0644 9.01e-18)
(-0.110256 43.3291 -6.00604e-18)
(-3.25159 48.3494 -3.01533e-18)
(-5.28444 50.8311 4.49319e-18)
(-6.69864 48.9358 -6.08371e-18)
(3.81467 15.3393 9.13e-16)
(-2.66865 8.92117 -3.70846e-16)
(-3.20475 9.03652 3.78429e-16)
(-3.46133 8.97693 7.57331e-16)
(-3.43269 8.74327 3.5931e-16)
(3.03642 17.7013 -6.36392e-19)
(5.02908 18.0837 2.76854e-16)
(-2.41909 3.64629 0)
(8.94985 18.1673 0)
(-1.19265 8.74757 0)
(-0.549743 9.04264 6.05304e-18)
(0.0700057 9.27267 -1.21731e-17)
(0.61341 9.49463 1.72399e-20)
(1.05931 9.74412 3.6536e-17)
(1.39941 10.0374 -2.43258e-17)
(1.64857 10.3956 1.1534e-20)
(1.8389 10.823 1.20955e-17)
(1.98743 11.2875 -2.11539e-17)
(2.15536 11.7832 3.02049e-18)
(2.37956 12.2697 1.20669e-17)
(2.6764 12.6968 -3.02102e-18)
(3.05871 13.0235 3.01253e-18)
(3.54789 13.1556 -9.02604e-18)
(4.1267 12.9526 3.01652e-18)
(4.79925 12.2921 9.01851e-18)
(5.57136 11.1637 -6.01608e-18)
(6.43741 9.67275 6.01002e-18)
(7.36625 8.02482 2.25469e-18)
(8.30553 6.38636 5.26683e-18)
(9.20835 4.82462 -6.76139e-18)
(10.0459 3.22697 4.51266e-18)
(10.8743 1.38759 -8.26351e-18)
(11.7388 -0.853296 -6.00965e-18)
(12.8767 -3.57825 5.9869e-18)
(14.4357 -6.63657 3.00264e-18)
(16.6863 -9.70251 -2.9833e-18)
(19.9337 -12.3508 0)
(24.4488 -14.1927 -5.96272e-18)
(30.3274 -14.8735 2.97996e-18)
(37.1852 -13.9485 -5.96139e-18)
(43.1599 -11.1633 -8.92329e-18)
(45.7181 -7.03521 -5.93017e-18)
(44.118 -2.34616 -1.1865e-17)
(37.0179 3.41081 2.95585e-18)
(25.9682 4.33988 -2.97712e-18)
(12.9495 10.6941 -5.93449e-18)
(-0.945568 -2.84695 0)
(-5.25513 19.6446 0)
(-18.8418 -22.6002 0)
(1.08723 8.94203 0)
(8.98905 21.1943 -4.95143e-20)
(6.17542 19.8385 1.01838e-15)
(2.56098 10.6516 4.34619e-16)
(0.0974386 10.8089 4.46583e-16)
(1.3006 10.8762 8.79283e-16)
(3.48192 17.4295 -4.72613e-16)
(0.717627 9.48433 -1.15459e-16)
(-0.511903 9.61864 0)
(4.32161 18.2746 -5.37255e-16)
(7.44741 20.1679 -2.19229e-16)
(9.55043 20.4991 -8.32212e-17)
(2.90393 17.5928 -1.4059e-15)
(3.88543 4.17467 4.27063e-16)
(7.92976 14.2513 3.8285e-16)
(0.669109 8.67135 -6.20941e-17)
(-8.64422 42.9125 -3.00664e-18)
(-27.8135 36.1945 -7.59724e-19)
(-39.6788 25.639 -2.30556e-18)
(-47.6084 17.3117 8.75624e-21)
(-50.3483 9.83823 0)
(-48.4922 4.18534 0)
(-42.6711 0.358006 0)
(-34.5463 -1.61984 -3.78338e-19)
(-26.1235 -1.93852 -4.71515e-19)
(-18.8229 -1.25728 4.74671e-19)
(-13.2204 -0.205805 -3.76644e-19)
(-9.27155 0.57595 9.44064e-19)
(-6.65407 0.667223 -1.13321e-18)
(-5.07056 -0.0504689 0)
(-4.24576 -1.43835 0)
(-3.86994 -3.27064 0)
(-3.6825 -5.26461 0)
(-3.46155 -6.98943 0)
(-2.95693 -7.75076 0)
(-1.88774 -6.80638 -3.77177e-19)
(-0.391664 -4.20347 1.50609e-18)
(1.11123 -0.87784 0)
(2.34833 2.24014 -3.77603e-18)
(3.19293 4.63395 6.80228e-18)
(3.69256 6.21652 6.05954e-18)
(3.97285 7.18884 0)
(4.17131 7.88925 1.83779e-17)
(4.45434 8.70186 -1.84349e-17)
(4.93967 9.9791 -6.11363e-18)
(5.63769 11.7951 1.2259e-17)
(6.44257 13.9263 -1.83265e-17)
(7.25614 16.0961 9.12589e-18)
(7.89145 17.9252 -2.38991e-17)
(8.2352 19.093 5.89009e-18)
(8.50405 19.7218 1.80692e-16)
(4.58406 16.1101 5.12131e-16)
(-2.44504 6.4081 6.88062e-16)
(-1.68054 5.85359 3.3421e-16)
(-19.1504 37.1635 0)
(-11.5664 41.8595 1.27929e-20)
(-6.96326 44.2074 -1.43541e-18)
(-7.54598 44.5357 -7.20524e-19)
(-11.8173 43.7872 -1.84404e-19)
(-14.9338 42.7619 1.83515e-19)
(-13.7809 41.6261 0)
(-7.47193 40.1083 0)
(1.47971 38.6828 2.18872e-18)
(10.727 37.5931 -5.93543e-18)
(17.35 38.4287 7.39987e-18)
(18.3933 40.0318 0)
(15.9204 43.6073 -5.94796e-18)
(12.1032 48.6808 6.00024e-18)
(8.96782 53.2062 1.50524e-18)
(7.97917 55.9139 1.50723e-18)
(8.34764 55.3247 0)
(7.84991 53.0289 0)
(0.105236 15.9881 0)
(-2.89045 7.74758 3.56214e-16)
(-3.41526 7.86967 0)
(-3.66077 7.80328 -7.43738e-16)
(-3.60981 7.53164 3.75485e-16)
(-3.15753 7.03257 6.81881e-16)
(0.577455 3.34907 -1.04361e-16)
(0.049344 8.38861 4.16465e-16)
(-1.5467 7.23039 1.25744e-17)
(-0.821803 7.62352 -9.86389e-17)
(-0.120608 7.9691 4.28612e-17)
(0.493137 8.3297 -4.8974e-17)
(0.97403 8.71421 -2.13446e-17)
(1.30782 9.13013 3.04986e-17)
(1.49397 9.57299 6.07419e-18)
(1.557 10.0456 -3.03202e-17)
(1.53904 10.5426 1.81685e-17)
(1.47549 11.0243 0)
(1.44469 11.4649 -1.51054e-17)
(1.51765 11.8584 9.04756e-18)
(1.73133 12.1687 1.50839e-17)
(2.11214 12.3596 3.01812e-18)
(2.66851 12.3385 -1.20613e-17)
(3.40446 12.0011 -6.03038e-18)
(4.2938 11.2192 0)
(5.30496 9.98721 0)
(6.39415 8.43815 -1.50308e-18)
(7.49662 6.79995 -7.51778e-19)
(8.54053 5.2464 7.53196e-18)
(9.47807 3.83324 1.50539e-18)
(10.3009 2.41176 -5.27277e-18)
(11.0281 0.774122 1.68725e-21)
(11.8048 -1.29385 0)
(12.7807 -3.88565 0)
(14.1264 -6.88802 -6.01748e-18)
(16.0807 -10.1416 9.02497e-18)
(18.9854 -13.4119 -2.98697e-18)
(23.2961 -16.4189 2.92387e-20)
(29.407 -18.8152 3.00397e-18)
(37.1767 -20.1395 2.99518e-18)
(44.0158 -19.8267 1.78643e-17)
(46.9628 -18.0477 0)
(45.8389 -15.0883 8.91511e-18)
(38.3137 -11.1191 -8.94264e-18)
(26.1857 -9.47735 5.94019e-18)
(10.4814 -4.03786 -5.92614e-18)
(1.64403 -15.006 5.92745e-18)
(-11.592 5.73253 0)
(-13.492 -32.3738 0)
(-25.1651 30.8676 -2.82005e-18)
(4.62923 14.3416 8.94264e-16)
(9.36113 20.8414 -1.92954e-16)
(-1.34221 7.23584 -3.52619e-16)
(4.52793 10.6857 8.65985e-16)
(3.8498 10.1565 -7.02789e-20)
(3.23294 9.58754 8.67103e-16)
(8.67247 20.7145 2.12154e-16)
(-0.276112 9.93062 -9.42713e-16)
(2.02936 9.97305 0)
(0.855018 10.0767 0)
(0.521748 8.13391 -6.82233e-17)
(5.47214 5.33229 -4.27079e-16)
(0.937359 4.27097 2.90787e-17)
(4.90919 18.582 -8.46106e-16)
(9.04342 19.7322 -9.64521e-17)
(5.4643 16.7551 -5.69816e-16)
(1.29085 9.35142 0)
(1.27048 8.86212 -5.99395e-17)
(8.56333 19.3976 0)
(7.97489 18.5121 3.02978e-18)
(7.32896 17.0455 6.04906e-18)
(6.60472 15.0861 2.27219e-18)
(5.80184 12.8827 3.80413e-19)
(5.02375 10.8176 0)
(4.36801 9.16691 7.62317e-18)
(3.92805 8.0814 -7.6321e-18)
(3.67499 7.38894 3.03644e-18)
(3.47914 6.6825 -6.05723e-18)
(3.21286 5.5629 1.50675e-18)
(2.74552 3.69834 0)
(1.95733 0.94505 3.01597e-18)
(0.826891 -2.47832 -1.51249e-18)
(-0.487574 -5.89216 1.51595e-18)
(-1.70956 -8.22917 -2.63382e-18)
(-2.44495 -8.67061 3.05863e-18)
(-2.72929 -7.51856 -4.03117e-21)
(-2.82241 -5.64403 -1.60739e-18)
(-2.95342 -3.68592 7.53744e-19)
(-3.32129 -2.04975 -8.51477e-19)
(-4.16597 -1.02788 0)
(-5.80816 -0.840275 3.77888e-19)
(-8.5764 -1.55612 -1.88959e-19)
(-12.7886 -3.0601 -7.58323e-19)
(-18.7874 -5.07495 6.56018e-19)
(-26.6623 -7.10938 9.45828e-20)
(-35.7914 -8.54398 -3.79418e-19)
(-44.6985 -8.84694 0)
(-51.5702 -7.44661 0)
(-54.8439 -3.49678 -1.51398e-18)
(-53.7402 3.42638 8.33857e-18)
(-47.5496 12.4323 -1.53788e-18)
(-35.3108 25.2988 0)
(-12.3303 32.8314 6.07298e-18)
(8.34265 48.9993 -3.76242e-20)
(1.25458 8.39654 3.20982e-16)
(-27.7931 -56.1395 3.10591e-18)
(-32.8661 -51.1551 0)
(-34.9735 -43.2968 -7.12451e-19)
(-34.0334 -32.8588 6.76024e-19)
(-31.1891 -20.219 1.86699e-18)
(-27.3886 -14.1443 -1.45615e-18)
(-23.0118 -15.1971 3.90653e-19)
(-18.312 -21.656 7.84511e-19)
(-13.3328 -26.5022 5.14612e-18)
(-6.32305 -24.2822 -7.47654e-18)
(2.37388 -18.9932 -5.98326e-18)
(7.57764 -4.68516 5.92651e-18)
(10.269 14.8442 -7.55296e-19)
(12.9188 32.4294 1.49253e-18)
(15.4614 44.5194 -5.97066e-18)
(16.1952 51.5346 -1.49097e-18)
(18.337 54.5642 6.03203e-18)
(23.7992 52.6754 0)
(31.6243 49.0079 3.01906e-18)
(39.3139 47.2422 -1.48713e-18)
(5.41069 15.0484 4.68857e-16)
(9.0144 20.479 -1.68011e-16)
(5.26592 11.2291 -4.30464e-16)
(0.156949 9.92867 0)
(0.531557 9.8123 0)
(0.924052 9.73436 -1.10644e-16)
(1.32802 9.67958 -2.76998e-17)
(1.70446 9.66231 -3.45206e-17)
(1.56054 9.32279 -8.50899e-17)
(1.45175 8.80502 1.18559e-16)
(1.41749 8.12959 6.45095e-17)
(7.05814 17.7711 0)
(1.18057 7.93545 -6.34445e-17)
(6.12002 5.37826 -1.19614e-19)
(5.53135 3.93292 3.82488e-16)
(5.50833 4.40897 -3.6494e-16)
(5.08156 9.44682 -4.33122e-16)
(4.41266 8.98303 0)
(3.79644 8.49346 0)
(8.31552 19.9604 4.4323e-16)
(5.38993 13.174 8.73646e-16)
(0.256697 9.39855 -8.50818e-17)
(-3.10632 6.70839 3.57193e-16)
(-3.59042 6.81205 -3.69038e-16)
(-3.81471 6.74916 0)
(-3.77762 6.55655 -7.84189e-16)
(-3.51147 6.23125 3.94485e-16)
(-3.05643 6.65945 -5.31412e-16)
(-2.98858 4.57778 -3.25881e-16)
(-1.68148 5.84839 1.03028e-16)
(-0.990511 6.1846 -1.14877e-16)
(-0.299336 6.54982 5.03676e-17)
(0.363649 6.98948 -4.97435e-17)
(0.931967 7.50021 0)
(1.34681 8.07377 -3.06413e-18)
(1.58088 8.68268 -4.58412e-18)
(1.63276 9.29785 1.82578e-17)
(1.53194 9.90275 6.05957e-18)
(1.32945 10.478 -3.03024e-17)
(1.08509 10.9693 1.21008e-17)
(0.871136 11.3335 1.51113e-17)
(0.792566 11.5764 -1.20699e-17)
(0.91632 11.6961 7.54508e-18)
(1.27979 11.6673 -7.53541e-18)
(1.88368 11.439 -3.03148e-18)
(2.73078 10.896 9.0358e-18)
(3.78146 9.95732 1.51251e-18)
(4.96838 8.62732 6.04077e-18)
(6.20711 7.06369 -6.02251e-18)
(7.40478 5.50388 0)
(8.48209 4.11162 -1.50792e-18)
(9.39726 2.9162 -7.53585e-19)
(10.1489 1.77489 -7.5313e-18)
(10.7535 0.397328 6.79227e-18)
(11.4002 -1.43527 -7.51925e-19)
(12.1599 -3.7741 6.02496e-18)
(13.2355 -6.58477 -1.12997e-17)
(14.8561 -9.81772 6.02305e-18)
(17.3605 -13.4601 3.0235e-18)
(21.2898 -17.4905 1.49397e-18)
(27.2829 -21.7284 -3.01103e-18)
(35.3802 -25.8664 8.96686e-18)
(43.1941 -29.2774 -8.91365e-18)
(46.6596 -30.2325 -2.97105e-18)
(46.3323 -30.0017 -8.95684e-18)
(39.1024 -28.3889 1.1901e-17)
(26.0107 -26.0186 -8.95405e-18)
(9.64761 -21.7736 5.94607e-18)
(-0.198853 -25.6252 -1.18477e-17)
(-13.8248 -10.7165 0)
(-10.9743 -35.4311 6.04086e-18)
(-29.242 20.3185 -2.9502e-18)
(-22.8494 -60.6678 -3.09442e-18)
(5.50251 5.86577 -9.73314e-16)
(6.07802 6.17174 4.5187e-16)
(6.7039 6.44982 -4.52029e-16)
(1.92555 5.51704 2.03327e-16)
(6.75636 5.6488 -4.70475e-16)
(9.19886 20.39 0)
(1.09111 5.62408 -1.08232e-16)
(7.36879 6.08018 -4.98473e-16)
(1.12934 7.62502 2.98153e-16)
(1.57528 9.24818 1.27065e-15)
(0.461793 9.23198 -8.5875e-16)
(2.69449 8.98226 -4.31249e-16)
(5.86369 7.12817 0)
(4.87079 7.84749 -4.44139e-16)