/*--------------------------------*- C++ -*----------------------------------*\
| =========                 |                                                 |
| \\      /  F ield         | OpenFOAM: The Open Source CFD Toolbox           |
|  \\    /   O peration     | Version:  2212                                  |
|   \\  /    A nd           | Website:  www.openfoam.com                      |
|    \\/     M anipulation  |                                                 |
\*---------------------------------------------------------------------------*/
FoamFile
{
    version     2.0;
    format      ascii;
    arch        "LSB;label=32;scalar=64";
    class       volScalarField;
    location    "0.00302";
    object      T;
}
// * * * * * * * * * * * * * * * * * * * * * * * * * * * * * * * * * * * * * //

dimensions      [0 0 0 1 0 0 0];

internalField   nonuniform List<scalar> 
7220
(
257.652
273.862
274.018
274.02
273.735
273.891
273.736
273.565
273.837
273.71
256.417
259.148
265.323
258.073
257.648
254.085
257.236
257.863
258.18
257.786
259.723
267.154
273.61
267.395
269.615
268.959
270.374
257.932
259.693
261.647
270.819
263.183
272.303
260.954
268.434
251.309
274.343
255.926
256.176
248.875
248.807
248.809
248.875
248.21
248.654
248.733
248.416
248.149
248.712
248.596
248.6
248.715
248.467
248.331
248.336
248.471
248.194
248.06
248.063
248.198
247.931
247.811
247.812
247.934
247.702
247.606
247.605
247.702
247.526
247.46
247.458
247.524
247.427
247.416
247.414
247.425
247.418
247.451
247.449
247.415
247.515
247.61
247.607
247.513
247.923
247.741
247.743
247.925
248.151
247.966
248.912
248.911
248.802
248.865
249.038
249.104
248.434
248.768
247.781
247.55
247.646
247.449
247.484
247.456
247.446
247.549
247.487
247.72
247.627
247.943
247.826
248.2
248.069
248.466
248.333
248.705
248.591
248.865
248.797
248.603
248.713
248.348
248.479
248.08
248.213
247.831
247.952
247.626
247.722
247.48
247.545
247.438
247.449
247.476
247.441
247.639
247.542
247.775
247.966
248.902
248.899
248.296
248.038
249.495
249.164
248.196
248.484
248.273
248.619
248.825
248.564
247.854
248.041
247.617
247.716
247.51
247.549
247.511
247.503
247.596
247.539
247.758
247.669
247.972
247.86
248.218
248.093
248.47
248.345
248.695
248.588
248.848
248.783
248.91
248.896
248.886
248.915
248.917
248.881
248.884
248.902
248.79
248.849
248.607
248.709
248.367
248.491
248.111
248.239
247.869
247.987
247.669
247.763
247.53
247.591
247.492
247.502
247.536
247.499
247.704
247.605
247.844
249.472
249.02
248.371
248.128
248.9
248.889
248.851
248.854
249.559
249.986
250.029
249.231
248.372
249.987
249.49
248.909
248.68
248.663
247.953
248.141
247.709
247.812
247.592
247.636
247.586
247.578
247.656
247.609
247.809
247.726
248.011
247.905
248.241
248.124
248.473
248.358
248.678
248.581
248.821
248.759
248.871
248.859
248.904
248.907
248.875
248.892
248.769
248.821
248.603
248.695
248.386
248.499
248.148
248.268
247.919
248.03
247.729
247.818
247.602
247.655
247.569
247.576
247.621
247.58
247.795
247.693
247.937
249.053
248.866
248.847
249.63
250.587
250.548
250.095
249.005
248.467
248.234
248.765
249.317
248.829
248.825
248.852
248.827
249.712
250.645
251.204
251.281
252.638
251.845
251.965
250.172
249.105
248.483
248.772
248.068
248.256
247.814
247.922
247.687
247.737
247.67
247.664
247.724
247.686
247.864
247.788
248.049
247.952
248.259
248.153
248.466
248.364
248.648
248.562
248.778
248.721
248.815
248.851
248.877
248.87
248.876
248.88
248.866
248.801
248.804
248.806
248.73
248.777
248.586
248.666
248.395
248.495
248.181
248.29
247.971
248.074
247.796
247.877
247.684
247.727
247.658
247.665
247.722
247.676
247.903
247.797
248.047
249.53
249.118
250.536
250.001
251.145
249.41
248.814
248.785
248.578
248.352
248.866
251.821
249.793
250.724
251.369
252.862
250.225
253.026
249.204
252.1
249.495
249.575
253.531
248.6
248.883
248.189
248.376
247.927
248.04
247.787
247.843
247.754
247.756
247.795
247.765
247.916
247.848
248.081
247.994
248.267
248.173
248.447
248.359
248.602
248.528
248.716
248.666
248.765
248.751
248.755
248.763
248.737
248.816
248.789
248.824
248.826
248.814
248.82
248.799
248.807
248.745
248.783
248.675
248.735
248.723
248.736
248.739
248.674
248.714
248.552
248.619
248.39
248.475
248.204
248.299
248.018
248.108
247.862
247.934
247.768
247.803
247.753
247.755
247.832
247.779
248.022
247.912
248.168
249.588
249.2
250.536
250.031
251.123
249.949
249.888
250.835
249.999
248.695
248.474
248.974
248.671
248.647
248.658
248.602
251.464
252.226
253.065
254.037
253.559
254.617
255.129
250.48
250.363
253.879
250.841
250.488
254.546
250.045
249.298
249.649
248.715
248.99
248.308
248.494
248.037
248.156
247.883
247.947
247.83
247.844
247.86
247.84
247.959
247.901
248.102
248.026
248.262
248.182
248.411
248.339
248.539
248.478
248.634
248.592
248.676
248.663
248.675
248.665
248.736
248.717
248.722
248.731
248.709
248.715
248.7
248.704
248.689
248.575
248.644
248.625
248.645
248.647
248.596
248.628
248.499
248.552
248.367
248.437
248.211
248.292
248.051
248.13
247.919
247.98
247.849
247.873
247.846
247.838
247.941
247.881
248.142
248.027
248.291
249.654
249.29
250.539
250.068
251.778
251.095
252.599
250.466
250.497
248.582
248.516
248.592
248.812
251.066
251.109
251.557
252.338
253.233
254.147
255.672
256.141
257.639
255.606
271.217
254.955
251.022
250.98
250.085
250.502
249.383
249.714
248.821
249.086
248.417
248.602
248.138
248.263
247.97
248.042
247.897
247.922
247.911
247.897
247.984
247.939
248.105
248.042
248.238
248.172
248.358
248.3
248.457
248.411
248.529
248.497
248.558
248.55
248.551
248.558
248.465
248.515
248.405
248.577
248.509
248.623
248.613
248.6
248.615
248.585
248.591
248.586
248.583
248.563
248.583
248.444
248.518
248.332
248.446
248.395
248.519
248.487
248.528
248.528
248.498
248.519
248.425
248.465
248.324
248.378
248.198
248.263
248.067
248.132
247.959
248.007
247.912
247.927
247.928
247.907
248.04
247.972
248.256
248.134
248.408
249.721
249.078
249.38
250.535
250.103
251.62
251.033
253.163
252.321
255.157
254.131
257.368
256.87
256.568
256.118
251.152
272.7
251.631
251.535
252.437
274.147
248.311
248.259
248.355
248.256
253.362
257.198
254.348
256.919
256.514
255.247
255.968
273.401
271.352
271.505
271.151
269.101
271.724
251.731
251.839
272.34
252.517
257.023
256.402
252.334
252.13
252.338
272.513
252.17
269.076
253.167
252.913
273.22
254.991
253.754
253.437
254.236
252.014
252.679
250.938
251.44
250.115
250.501
249.453
249.768
248.913
249.166
248.509
248.695
248.222
248.352
248.038
248.118
247.947
247.981
247.94
247.933
247.991
247.957
248.087
248.036
248.193
248.14
248.285
248.241
248.356
248.324
248.402
248.383
248.414
248.412
248.386
248.41
248.353
248.329
248.474
248.42
248.497
248.497
248.462
248.481
248.444
248.449
248.453
248.445
248.448
248.458
248.416
248.181
248.283
248.236
248.355
248.323
248.388
248.379
248.377
248.387
248.331
248.358
248.258
248.298
248.162
248.212
248.059
248.109
247.976
248.013
247.948
247.957
247.99
247.959
248.122
248.044
248.354
248.225
248.698
248.511
249.171
248.918
249.781
249.462
250.526
250.133
251.484
250.971
252.819
252.089
254.629
253.68
255.577
271.661
271.842
271.656
251.959
252.45
271.93
257.469
268.54
257.753
248.195
248.117
271.039
252.702
253.11
253.312
253.444
257.575
270.72
253.434
255.823
256.475
257.3
254.487
257.421
257.164
254.098
261.043
255.448
258.063
254.64
270.707
256.217
256.776
272.543
272.185
257.787
271.544
271.825
274.13
253.165
253.927
251.868
252.47
250.891
251.346
250.133
250.491
249.507
249.807
248.985
249.228
248.58
248.768
248.284
248.419
248.084
248.172
247.971
248.017
247.942
247.946
247.974
247.954
248.044
248.006
248.125
248.085
248.194
248.162
248.239
248.219
248.257
248.252
248.246
248.257
248.199
248.226
248.125
248.165
248.021
248.077
247.954
248.236
248.117
248.35
248.312
248.35
248.36
248.304
248.328
248.284
248.29
248.301
248.288
248.314
248.313
248.249
248.295
248.041
248.166
247.873
247.994
247.938
248.091
248.045
248.17
248.133
248.224
248.201
248.239
248.238
248.219
248.233
248.171
248.198
248.1
248.138
248.023
248.061
247.97
247.991
247.96
247.958
248.026
247.983
248.18
248.092
248.429
248.292
248.784
248.593
249.245
249.004
249.828
249.528
250.512
250.154
251.365
250.911
252.521
251.893
254.115
253.267
255.001
270.802
270.912
254.914
272.668
272.065
252.899
253.433
271.465
257.826
257.753
270.466
271.67
273.45
253.703
255.22
255.887
256.893
254.557
254.212
254.415
271.082
257.699
273.984
247.816
247.756
247.951
247.797
257.556
270.265
254.445
257.447
273.169
274.256
274.438
274.559
271.72
255.572
269.928
270.086
270.679
268.601
269.758
269.538
255.059
257.69
272.533
272.828
272.648
272.376
270.191
256.374
257.313
255.478
272.754
256.939
270.197
270.025
269.825
255.632
272.438
269.951
272.107
271.767
257.837
274.227
257.775
268.946
252.886
253.578
251.718
252.26
250.836
251.248
250.136
250.469
249.544
249.829
249.035
249.268
248.626
248.818
248.318
248.46
248.1
248.198
247.97
248.024
247.921
247.937
247.935
247.923
247.983
247.955
248.042
248.013
248.087
248.067
248.109
248.102
248.101
248.11
248.061
248.084
247.997
248.031
247.915
247.958
247.869
247.873
248.125
248.022
248.206
248.183
248.183
248.203
248.128
248.155
248.107
248.112
248.129
248.112
248.16
248.149
248.124
248.154
248.059
247.671
247.781
247.729
247.88
247.831
247.972
247.927
248.045
248.012
248.091
248.071
248.094
248.097
248.068
248.084
248.019
248.046
247.966
247.991
247.935
247.947
247.948
247.934
248.034
247.981
248.21
248.11
248.48
248.333
248.847
248.65
249.298
249.065
249.857
249.574
250.488
250.161
251.252
250.848
252.259
251.717
253.643
252.901
254.441
270.597
273.132
273.527
273.359
272.021
272.176
269.206
253.965
255.806
256.379
254.532
269.826
270.082
270.011
270.328
270.15
270.226
271.378
270.324
254.17
257.812
255.463
272.516
247.685
247.604
257.745
270.314
269.89
270.158
270.069
270.669
254.778
274.1
257.123
274.495
272.179
271.847
271.778
273.355
255.621
255.321
255.499
270.2
270.58
270.367
270.434
270.152
269.966
270.113
270.312
270.582
270.966
269.349
272.729
273.051
274.507
270.03
269.608
255.455
257.521
270.494
272.055
268.646
256.464
270.35
269.98
270.167
270.341
257.611
255.933
258.249
257.698
271.283
272.269
273.603
273.873
273.85
273.775
272.96
257.029
270.239
270.43
270.19
270.363
257.666
266.794
257.389
256.182
272.677
270.224
270.435
270.399
269.7
256.157
272.391
269.8
269.989
269.799
272.059
270.013
257.812
257.848
258.198
270.038
273.691
257.744
253.578
252.587
253.192
251.562
252.04
250.772
251.144
250.124
250.435
249.557
249.833
249.056
249.287
248.643
248.84
248.322
248.471
248.089
248.195
247.943
248.006
247.876
247.901
247.872
247.867
247.9
247.883
247.941
247.921
247.968
247.958
247.973
247.973
247.937
247.959
247.875
247.909
247.794
247.837
247.7
247.748
247.597
247.65
247.471
247.538
247.39
247.776
247.599
247.994
247.909
248.042
248.035
247.997
248.026
247.935
247.964
247.913
247.918
247.941
247.921
247.986
247.966
247.981
247.995
247.844
247.934
247.524
247.706
247.311
247.449
247.385
247.559
247.505
247.666
247.612
247.772
247.72
247.865
247.821
247.931
247.902
247.96
247.952
247.951
247.958
247.921
247.938
247.888
247.903
247.875
247.878
247.91
247.885
248.017
247.953
248.212
248.103
248.5
248.345
248.881
248.679
249.328
249.097
249.864
249.592
250.454
250.151
251.143
250.781
252.03
251.556
253.221
252.582
254.635
253.923
255.285
257.818
266.415
273.97
272.32
270.232
270.248
269.959
273.634
273.281
273.487
272.636
272.977
271.754
272.221
271.225
255.074
256.695
258.202
273.535
255.601
270.292
270.498
270.454
271.262
270.108
271.073
254.735
274.311
274.205
273.079
273.306
272.006
271.433
258.175
269.869
270.104
270.065
269.787
269.915
269.935
269.673
269.863
269.809
270.895
255.794
257.255
270.89
271.688
273.828
273.345
256.497
256.269
256.407
270.484
270.873
270.676
270.745
270.509
257.744
274.41
247.256
247.176
247.426
247.222
269.611
269.429
256.313
270.63
257.558
270.675
271.987
273.661
273.833
273.144
257.08
270.607
270.535
270.184
257.618
269.138
256.613
257.679
270.725
272.898
257.418
270.643
270.569
269.457
256.694
272.642
269.63
269.799
270.615
269.557
256.61
272.368
269.808
257.776
257.845
272.122
269.83
257.838
272.901
269.838
271.932
269.077
257.707
273.828
273.674
273.908
273.815
255.356
254.728
253.453
254.123
252.298
252.844
251.403
251.82
250.698
251.032
250.096
250.388
249.548
249.817
249.051
249.283
248.631
248.833
248.297
248.453
248.05
248.163
247.889
247.959
247.806
247.838
247.783
247.788
247.797
247.788
247.823
247.81
247.837
247.832
247.825
247.836
247.773
247.803
247.695
247.737
247.6
247.649
247.497
247.55
247.385
247.442
247.324
247.294
247.659
247.495
247.844
247.777
247.859
247.867
247.795
247.831
247.726
247.757
247.706
247.71
247.737
247.714
247.796
247.767
247.819
247.817
247.718
247.79
247.595
247.093
247.231
247.166
247.347
247.29
247.464
247.405
247.58
247.522
247.687
247.636
247.768
247.731
247.813
247.795
247.819
247.82
247.804
247.813
247.788
247.795
247.794
247.786
247.847
247.813
247.973
247.9
248.188
248.069
248.493
248.329
248.883
248.678
249.333
249.101
249.852
249.587
250.41
250.125
251.04
250.711
251.819
251.405
252.843
252.294
254.083
253.45
255.219
254.692
255.628
273.971
273.949
273.955
273.944
273.947
273.787
273.895
273.933
273.879
273.986
274.25
274.125
274.356
273.939
274.093
273.532
273.548
273.747
272.976
273.3
272.554
270.826
270.501
254.222
270.005
269.913
269.736
273.912
274.001
273.961
273.761
273.85
273.412
273.623
272.766
273.124
271.893
272.357
271.391
256.068
256.888
271.289
256.012
273.677
273.517
256.478
270.592
270.806
270.809
270.663
271.003
257.796
257.542
271.325
255.557
269.021
247.084
247.008
258.072
258.256
274.387
274.46
274.309
258.617
269.369
269.753
269.776
269.628
269.723
269.576
269.488
269.582
269.57
271.091
256.605
256.567
257.32
271.012
271.674
255.209
255.84
273.314
273.687
273.651
273.324
257.908
257.765
257.079
256.948
257.031
270.764
258.245
258.356
258.345
271.172
270.992
271.069
270.705
258.198
268.502
268.754
269.868
257.718
269.108
256.12
274.025
274.037
269.173
269.29
256.928
257.559
270.914
271.963
273.744
273.83
273.736
273.102
257.422
270.842
270.736
257.993
269.231
257.602
257.07
258.307
258.389
257.647
258.368
258.388
270.97
273.753
272.867
269.475
269.619
270.832
270.783
269.314
257.058
258.462
258.461
273.843
273.732
272.621
269.612
257.746
257.819
258.209
258.452
258.447
258.527
258.504
258.547
258.508
258.516
272.374
269.622
257.831
272.742
269.626
272.174
269.639
257.813
256.482
271.984
274.458
257.681
257.321
255.567
254.929
254.122
254.573
253.029
253.591
252.02
252.502
251.239
251.602
250.611
250.911
250.052
250.326
249.518
249.784
249.022
249.258
248.593
248.801
248.244
248.407
247.982
248.102
247.808
247.884
247.712
247.751
247.676
247.688
247.679
247.675
247.695
247.687
247.702
247.701
247.678
247.696
247.617
247.652
247.528
247.575
247.423
247.477
247.31
247.367
247.191
247.251
247.054
247.126
246.884
246.974
246.784
247.179
246.977
247.52
247.369
247.673
247.622
247.659
247.681
247.578
247.621
247.505
247.537
247.486
247.489
247.519
247.495
247.591
247.554
247.64
247.623
247.57
247.626
247.308
247.464
246.909
247.114
246.714
246.888
246.805
247.029
246.962
247.154
247.093
247.279
247.216
247.403
247.341
247.518
247.463
247.609
247.568
247.663
247.641
247.68
247.676
247.675
247.679
247.671
247.672
247.693
247.677
247.763
247.72
247.905
247.824
248.135
248.008
248.456
248.285
248.859
248.649
249.315
249.08
249.824
249.561
250.359
250.088
250.939
250.641
251.62
251.261
252.489
252.026
253.567
253.012
254.626
254.119
255.056
274.032
274.024
274.039
274.039
273.969
274.021
273.739
273.794
273.892
273.704
273.817
274.079
273.947
274.326
274.208
274.428
274.579
274.525
274.115
274.222
273.803
273.974
273.292
273.581
272.484
272.933
271.935
274.089
269.617
269.762
269.585
269.539
274.011
274.052
274.033
273.9
273.973
273.555
273.766
272.938
273.275
272.113
272.561
271.618
256.814
256.991
271.325
256.927
256.433
273.503
273.496
257.729
257.586
257.07
258.353
270.893
258.28
258.322
271.126
270.861
258.228
257.402
269.48
269.259
251.514
257.666
257.826
257.764
274.416
257.81
272.409
269.759
268.95
256.083
257.942
257.864
274.068
274.615
274.496
272.207
269.378
269.468
269.527
269.238
269.345
269.339
269.372
257.144
256.623
257.358
271.181
271.696
256.178
273.136
273.555
273.614
273.293
257.571
257.412
257.356
257.391
258.419
258.236
264.803
271.026
258.44
271.467
271.293
271.382
270.903
258.124
258.052
269.027
258.039
257.687
258.449
246.691
246.595
246.797
246.613
274.577
274.608
268.015
268.625
269.195
257.312
257.536
257.931
253.524
258.308
271.157
273.065
255.193
255.818
273.603
273.661
273.071
269.33
269.448
257.58
258.455
271.047
258.53
271.163
270.947
257.826
269.079
254.804
254.994
257.421
257.355
257.621
258.445
273.61
273.685
273.63
272.844
269.427
269.047
270.998
258.567
257.732
257.789
257.289
256.724
258.517
273.588
272.616
269.421
258.558
257.807
272.592
269.397
273.695
273.574
272.406
269.43
257.807
269.435
258.302
272.222
257.78
272.126
274.528
257.748
257.962
257.653
255.378
254.747
254.308
254.557
253.56
253.968
252.616
253.097
251.742
252.157
251.068
251.381
250.517
250.784
250
250.257
249.48
249.743
248.987
249.227
248.549
248.762
248.18
248.354
247.9
248.028
247.711
247.794
247.603
247.648
247.56
247.575
247.559
247.556
247.573
247.566
247.579
247.579
247.553
247.572
247.486
247.524
247.388
247.44
247.273
247.332
247.147
247.211
247.014
247.082
246.864
246.942
246.781
246.673
247.046
246.855
247.36
247.222
247.484
247.447
247.445
247.479
247.349
247.398
247.273
247.305
247.255
247.258
247.291
247.265
247.373
247.329
247.443
247.415
247.402
247.444
247.169
247.31
246.99
246.525
246.692
246.611
246.844
246.77
246.983
246.914
247.12
247.051
247.255
247.188
247.378
247.319
247.474
247.43
247.529
247.507
247.545
247.541
247.543
247.545
247.545
247.542
247.577
247.556
247.66
247.611
247.817
247.728
248.063
247.928
248.403
248.222
248.822
248.605
249.289
249.049
249.797
249.532
250.312
250.053
250.841
250.573
251.423
251.121
252.15
251.762
253.079
252.595
254.034
253.569
254.46
274.074
274.07
274.066
274.102
274.085
274.105
274.111
274.01
274.072
273.832
273.927
273.578
273.65
273.737
273.584
273.713
273.929
273.817
274.161
274.045
274.379
274.274
274.545
274.472
274.596
274.538
274.308
274.369
274.086
274.218
273.667
273.907
272.997
273.37
271.954
272.533
271.275
269.23
269.541
269.289
269.371
274.121
274.091
274.113
274.134
274.128
274.058
274.117
273.724
273.927
273.176
273.471
272.439
272.846
271.216
271.896
258.147
257.279
257.047
271.44
257.124
256.708
273.363
273.465
257.385
257.404
258.331
257.737
257.93
271.18
258.418
271.446
271.075
258.094
260.564
268.868
257.731
258.37
274.532
257.325
253.948
260.141
270.423
267.737
246.494
246.434
274.63
274.629
274.526
268.225
269.001
269.304
269.362
268.927
269.249
269.232
269.267
267.911
269.014
257.459
256.634
257.35
265.195
263.366
264.095
265.182
271.376
271.81
256.395
273.421
273.555
273.258
269.184
269.288
257.571
257.565
257.569
258.376
250.776
257.87
258.21
258.205
258.116
271.262
268.552
258.518
271.668
271.323
271.116
269.165
257.896
268.853
254.062
254.411
255.258
268.472
269.152
274.143
257.998
274.111
257.537
257.514
257.489
257.653
258.063
258.402
258.079
271.347
254.573
255.988
273.472
273.564
273.044
259.171
260.711
269.25
268.867
257.664
258.392
273.619
273.844
273.755
271.213
259.655
259.252
269.127
258.568
269.062
262.368
269.274
257.765
271.15
257.526
257.86
257.859
257.643
257.609
258.505
257.892
258.078
254.897
255.51
273.469
273.514
272.829
273.649
273.608
273.536
261.196
269.226
259.77
262.345
258.577
272.014
257.782
272.197
257.683
274.279
257.429
257.387
257.953
267.259
258.562
269.155
273.456
273.571
273.476
272.621
273.492
269.361
269.221
257.786
269.216
258.197
273.46
272.432
269.226
257.777
257.748
258.274
273.49
272.249
266.913
253.855
258.034
257.511
257.694
257.303
257.109
257.311
255.014
254.416
254.12
254.28
253.653
253.922
253.011
253.345
252.225
252.621
251.51
251.85
250.934
251.208
250.436
250.68
249.956
250.197
249.455
249.711
248.972
249.211
248.528
248.746
248.146
248.327
247.85
247.987
247.649
247.738
247.533
247.581
247.485
247.501
247.481
247.479
247.494
247.487
247.496
247.497
247.465
247.487
247.392
247.434
247.287
247.343
247.163
247.227
247.028
247.096
246.883
246.957
246.722
246.805
246.542
246.634
246.35
246.448
246.247
246.551
246.385
246.894
246.719
247.176
247.054
247.275
247.25
247.218
247.259
247.11
247.164
247.032
247.064
247.015
247.018
247.053
247.025
247.143
247.094
247.23
247.193
247.212
247.241
247.008
247.133
246.67
246.846
246.335
246.501
246.197
246.377
246.29
246.544
246.461
246.705
246.626
246.857
246.782
247.004
246.93
247.148
247.077
247.279
247.216
247.381
247.334
247.441
247.416
247.459
247.454
247.457
247.459
247.46
247.456
247.497
247.473
247.588
247.534
247.756
247.661
248.018
247.874
248.375
248.185
248.81
248.585
249.289
249.045
249.79
249.528
250.278
250.036
250.76
250.518
251.275
251.009
251.886
251.564
252.639
252.247
253.405
253.036
253.707
274.085
274.085
274.117
274.096
274.157
274.14
274.137
274.159
274.023
274.09
273.868
273.946
273.732
273.797
273.674
274.039
273.94
274.233
274.137
274.412
274.325
274.556
274.49
274.605
274.604
274.561
274.579
274.536
274.526
274.535
274.405
274.483
274.093
274.282
273.584
273.866
272.57
273.195
271.755
268.318
257.769
269.38
269.132
269.272
274.212
274.164
274.286
274.255
274.233
274.281
273.931
274.117
273.488
273.72
272.808
273.212
271.373
272.227
270.29
257.536
257.063
264.394
264.57
271.612
257.242
256.876
273.238
273.42
260.246
260.232
268.988
269.136
274.677
269.077
269.167
256.931
256.647
258.401
264.406
256.485
257.567
258.293
257.681
258.06
258.028
271.444
259.554
258.487
271.754
271.46
271.29
257.953
260.239
267.737
267.945
268.668
262.692
258.123
258.453
269.125
257.186
255.003
257.711
254.639
257.57
274.655
270.229
267.724
268.843
268.754
269.213
269.233
274.073
257.63
256.084
256.62
257.325
257.803
258.039
258.341
258.181
271.543
257.914
260.378
271.806
267.133
258.029
256.534
273.316
273.476
273.219
273.618
273.746
273.728
273.591
260.703
260.774
268.875
268.611
268.754
269.081
268.619
257.537
255.438
257.65
257.666
257.657
258.32
273.676
276.822
274.383
257.977
258.161
258.081
257.931
272.914
271.424
259.279
259.062
258.554
269.175
257.751
257.329
271.913
271.507
266.942
257.537
271.307
271.651
267.925
266.135
246.198
246.111
246.226
246.097
274.635
274.604
274.614
268.209
268.522
269.07
269.179
257.657
257.853
257.802
257.732
257.498
257.482
257.911
258.468
258.192
272.482
256.095
259.697
272.769
273.341
273.452
273.017
273.489
261.084
261.353
268.345
269.038
268.861
258.804
257.523
257.708
258.314
273.54
257.751
257.859
271.35
258.574
257.057
257.76
254.625
268.226
259.109
269.084
257.612
257.776
257.44
257.598
256.903
257.111
257.938
258.553
258.191
268.906
255.602
273.337
273.405
272.817
273.419
261.952
267.963
269.017
254.799
257.274
257.467
258.395
258.574
257.764
258.35
257.499
257.71
257.042
268.979
254.53
255.1
258.073
273.341
273.389
272.624
267.615
269.011
258.072
257.761
257.749
258.167
273.363
272.44
269.01
259.997
266.692
266.851
265.828
273.069
257.844
257.34
257.546
256.905
257.122
256.685
256.457
256.688
254.621
254.089
253.839
253.973
253.527
253.69
253.124
253.338
252.634
252.916
251.891
252.26
251.257
251.555
250.753
250.994
250.303
250.525
249.856
250.082
249.378
249.624
248.918
249.148
248.493
248.701
248.119
248.297
247.823
247.961
247.616
247.708
247.494
247.545
247.438
247.459
247.425
247.428
247.426
247.426
247.416
247.424
247.371
247.399
247.284
247.332
247.165
247.228
247.027
247.098
246.876
246.953
246.715
246.797
246.544
246.631
246.369
246.456
246.283
246.137
246.418
246.266
246.727
246.571
246.974
246.868
247.051
247.036
246.982
247.029
246.865
246.922
246.784
246.817
246.768
246.77
246.808
246.779
246.906
246.852
247.004
246.962
247.004
247.023
246.83
246.939
246.531
246.688
246.378
246.063
246.214
246.14
246.369
246.29
246.533
246.45
246.699
246.616
246.864
246.782
247.024
246.945
247.171
247.1
247.289
247.235
247.366
247.333
247.402
247.388
247.414
247.409
247.428
247.419
247.472
247.444
247.57
247.513
247.744
247.646
248.012
247.866
248.371
248.18
248.804
248.581
249.27
249.034
249.744
249.497
250.194
249.972
250.626
250.41
251.075
250.845
251.598
251.323
252.265
251.91
253.084
252.656
253.517
253.411
253.962
253.753
274.112
274.09
274.168
274.14
274.194
274.189
274.14
274.178
274.023
274.085
273.91
273.963
273.825
273.865
273.773
273.787
273.764
273.717
273.561
273.564
273.719
273.715
273.822
273.756
273.976
273.895
274.143
274.059
274.298
274.223
274.435
274.369
274.549
274.496
274.626
274.593
274.641
274.679
274.63
274.68
274.636
274.642
274.593
274.619
274.523
274.562
274.173
274.415
272.856
273.617
271.832
267.228
248.77
269.025
268.96
269.236
274.288
274.211
274.252
274.326
274.315
274.353
274.338
274.319
274.35
274.182
274.259
273.871
274.039
273.091
273.581
271.239
272.358
269.735
257.664
257.031
257.941
258.269
271.749
266.004
269.102
257.3
256.973
255.865
273.362
273.572
260.769
268.915
267.976
268.316
257.768
257.235
257.396
268.184
256.861
256.415
256.161
254.154
254.804
257.65
258.242
277.228
274.67
258.158
258.005
251.722
259.222
258.518
258.378
271.997
271.643
267.325
266.903
271.47
265.117
274.432
260.213
258.928
264.3
258.464
254.186
266.18
246.02
245.981
254.31
274.547
257.646
267.998
268.843
268.8
268.76
269.235
269.237
257.712
269.675
257.805
256.093
256.605
257.305
257.642
257.868
258.418
258.281
271.693
272.064
260.15
246.117
256.614
272.93
273.208
273.38
273.168
273.453
261.236
261.395
268.508
268.856
268.542
260.412
266.812
253.872
255.521
257.696
257.718
257.705
258.249
273.476
273.413
273.411
254.282
258.057
258.105
258.036
257.915
266.206
263.482
272.659
271.884
271.543
258.628
258.817
258.558
256.502
257.752
272.395
272.247
254.443
272.124
267.891
258.085
258.893
268.837
260.577
269.264
273.832
274.201
273.709
257.707
257.762
257.556
257.479
257.301
257.745
256.187
255.638
255.946
258.525
258.298
268.67
268.442
253.224
261.456
256.158
273.221
273.339
272.98
273.367
271.669
261.698
262.027
268.086
268.815
257.411
257.554
258.772
268.984
254.214
254.159
254.562
254.523
257.726
258.225
273.408
258.604
257.734
257.842
271.497
258.569
269.428
257.747
257.769
258.032
254.921
269.006
257.526
257.646
257.693
257.211
257.62
256.905
256.447
258.564
268.268
266.74
268.727
258.08
255.658
257.138
273.23
273.303
272.798
273.316
262.662
267.674
268.794
267.297
258.05
255.819
265.143
256.754
255.158
257.743
257.739
258.052
273.254
272.618
268.789
258.299
266.735
264.453
257.492
257.637
257.121
257.318
256.683
256.906
256.232
256.461
255.993
254.623
253.576
253.697
253.286
253.437
252.975
253.129
252.613
252.808
251.96
252.314
251.295
251.618
250.818
251.043
250.407
250.609
249.997
250.204
249.556
249.782
249.069
249.323
248.607
248.839
248.181
248.389
247.802
247.985
247.486
247.635
247.255
247.359
247.114
247.174
247.044
247.071
247.019
247.028
247.005
247.012
246.978
246.994
246.924
246.955
246.84
246.886
246.732
246.788
246.605
246.671
246.461
246.535
246.297
246.382
246.109
246.205
245.913
246.011
245.718
245.816
245.51
245.616
245.398
246.015
245.922
246.271
246.135
246.542
246.406
246.751
246.662
246.806
246.799
246.731
246.781
246.61
246.669
246.528
246.561
246.513
246.514
246.554
246.524
246.657
246.6
246.761
246.715
246.773
246.783
246.632
246.722
246.376
246.511
246.104
246.24
245.891
245.985
245.368
245.566
245.47
245.743
245.656
245.917
245.829
246.098
246.007
246.271
246.186
246.43
246.353
246.577
246.505
246.71
246.645
246.822
246.769
246.902
246.866
246.947
246.928
246.964
246.958
246.975
246.969
247.014
246.989
247.119
247.057
247.317
247.205
247.615
247.454
247.999
247.798
248.442
248.216
248.909
248.674
249.379
249.135
249.824
249.606
250.246
250.035
250.671
250.458
251.108
250.887
251.573
251.338
252.233
251.857
253.128
252.695
253.571
253.376
253.82
253.713
253.92
274.102
274.08
274.175
274.138
274.227
274.207
274.216
274.232
274.13
274.179
274.029
274.078
273.96
273.991
273.914
273.935
273.885
273.895
273.871
273.878
273.861
273.863
273.882
273.866
273.971
273.917
274.102
274.034
274.239
274.172
274.359
274.302
274.458
274.411
274.542
274.501
274.617
274.581
274.668
274.648
274.657
274.67
274.55
274.26
274.382
274.145
274.117
258.075
274.198
274.512
258.177
274.774
274.65
274.923
274.869
274.863
274.934
274.446
274.723
273.328
274.054
269.768
271.848
267.632
260.229
267.709
268.942
269.169
269.258
274.115
273.989
274.371
274.24
274.596
274.499
274.615
274.634
274.435
274.551
274.091
274.293
273.263
273.831
271.061
272.332
269.22
257.724
272.463
257.012
257.778
260.874
255.409
255.16
258.356
271.878
271.566
259.625
257.32
257.035
273.069
273.288
273.427
261.363
268.679
268.154
261.58
261.716
261.268
258.368
257.293
257.419
256.96
257.136
256.564
256.769
256.094
256.344
255.53
255.824
255.193
254.088
253.986
254.914
257.696
258.178
273.428
259.051
258.226
257.973
261.775
257.962
262.632
262.557
272.573
272.022
265.307
271.727
258.923
258.522
257.759
269.855
257.412
257.531
257.42
257.779
265.864
261.134
272.201
257.148
268.536
258.472
254.023
267.872
258.581
257.569
258.843
257.469
257.113
253.784
268.864
269.104
269.087
268.716
258.266
269.346
269.353
274.229
273.707
257.743
257.749
257.653
256.125
256.603
257.283
257.466
257.69
255.163
255.686
258.481
258.369
268.297
267.68
271.82
258.749
254.547
262.304
256.645
269.46
264.769
258.575
272.821
273.097
273.274
273.104
273.33
261.85
262.058
268.249
268.617
257.797
257.532
257.784
257.694
260.646
268.408
259.032
258.348
257.32
257.568
257.255
254.26
257.287
254.468
254.437
255.583
257.716
257.739
257.725
258.168
273.348
273.293
273.295
256.195
258.101
258.041
257.984
257.886
271.679
258.602
258.554
257.769
258.199
255.291
259.871
270.144
246.181
246.111
245.792
245.257
274.764
274.746
266.993
257.515
265.218
257.533
257.718
257.664
257.357
257.48
257.103
257.569
256.199
258.548
267.265
258.405
272.101
268.424
272.175
264.578
256.178
257.801
273.118
273.231
272.928
273.259
262.335
262.726
267.804
268.578
266.948
258.008
258.019
258.741