/*--------------------------------*- C++ -*----------------------------------*\
| =========                 |                                                 |
| \\      /  F ield         | OpenFOAM: The Open Source CFD Toolbox           |
|  \\    /   O peration     | Version:  2212                                  |
|   \\  /    A nd           | Website:  www.openfoam.com                      |
|    \\/     M anipulation  |                                                 |
\*---------------------------------------------------------------------------*/
FoamFile
{
    version     2.0;
    format      ascii;
    arch        "LSB;label=32;scalar=64";
    class       volScalarField;
    location    "9.9e-05";
    object      T;
}
// * * * * * * * * * * * * * * * * * * * * * * * * * * * * * * * * * * * * * //

dimensions      [0 0 0 1 0 0 0];

internalField   nonuniform List<scalar> 
37872
(
56.0295
56.2441
56.2834
55.7599
55.8733
55.8426
55.7094
55.5195
55.8201
55.8168
56.1105
55.8867
55.8075
55.6346
55.5355
55.8631
55.8139
55.5316
55.0687
55.2334
55.3379
55.4793
55.4101
56.1123
55.7739
55.2255
55.6578
55.9617
55.763
55.3036
55.2993
55.6163
55.3984
55.5078
55.1226
55.1446
55.433
55.3737
55.0291
54.6902
54.7417
54.7798
55.4658
58.0402
62.3575
66.6914
69.1455
60.4893
60.6669
60.7489
60.3984
60.1992
60.3372
60.2544
60.1868
60.1971
60.1554
60.2437
60.1041
60.131
60.1438
60.1791
60.418
60.2563
59.9692
59.8633
59.9509
59.9895
60.0278
60.0321
60.2498
60.1463
59.6971
59.8574
60.1999
59.9631
59.6356
59.6572
59.9411
59.9039
59.7115
59.727
59.562
59.5467
59.5612
59.2907
59.2313
59.2808
59.3308
60.0694
62.7489
67.5712
72.2472
74.0464
58.0422
58.1467
58.3608
58.1829
57.8072
57.9581
58.0413
58.0303
57.7941
57.7483
57.6934
57.7155
57.7256
57.9428
58.0779
58.3633
57.9915
57.7716
57.912
57.9917
57.9342
57.8412
57.9302
57.7905
57.8869
57.6084
57.4228
57.6904
57.4867
57.4317
57.4799
57.6431
57.8098
57.4277
57.6521
57.4868
57.2919
57.2705
57.0785
57.2447
57.2967
57.3408
58.2528
60.8723
65.9407
71.0487
73.4463
58.0343
58.0978
58.3482
58.1629
57.9388
57.8945
58.1417
58.0959
57.8252
57.7606
57.6447
57.6867
57.6955
57.9952
58.1659
58.3589
57.9633
57.8254
58.0649
58.1354
57.9976
57.9931
58.0582
57.8591
57.8851
57.6484
57.4523
57.6226
57.4298
57.4162
57.4626
57.6136
57.874
57.6128
57.6972
57.6636
57.3351
57.2341
57.0999
57.3921
57.2787
57.3066
58.2465
60.943
66.476
71.8239
74.384
57.7242
57.6943
58.0205
57.6954
57.7542
57.6301
57.7726
57.858
57.6165
57.5843
57.3969
57.4127
57.4746
57.7388
57.9586
57.9746
57.6059
57.5965
57.839
57.8624
57.7505
57.8225
57.925
57.6145
57.6017
57.3858
57.2291
57.2679
57.1151
57.1056
57.2027
57.3154
57.5868
57.3906
57.5338
57.5871
57.0955
56.8622
56.8622
57.1827
57.0617
57.0756
58.0074
60.6984
66.4566
71.8065
74.4392
57.7017
57.4869
57.9008
57.7059
57.8081
57.627
57.6065
57.7245
57.6586
57.6771
57.4112
57.4152
57.4847
57.6139
57.9101
57.7636
57.6145
57.5753
57.7206
57.6979
57.6308
57.8482
57.902
57.6051
57.5407
57.2939
57.2162
57.2154
57.0649
57.0636
57.1653
57.2444
57.4276
57.4006
57.5545
57.6944
57.0903
56.7652
56.8151
56.9933
57.0943
57.0819
57.8995
60.7112
66.5663
72.0792
74.721
57.6159
57.451
57.6196
57.6561
57.796
57.5802
57.5413
57.5472
57.7352
57.6197
57.3868
57.3565
57.4462
57.5352
57.6481
57.6054
57.5623
57.4923
57.598
57.5491
57.4931
57.7241
57.6696
57.5195
57.4193
57.2832
57.2113
57.1504
56.9655
57.0217
57.0994
57.1881
57.3334
57.3561
57.4635
57.5766
57.0591
56.7114
56.7491
56.968
56.9943
56.9487
57.734
60.7161
66.57
72.1865
74.8952
57.4954
57.4672
57.4786
57.6463
57.7273
57.5504
57.5221
57.5064
57.784
57.4923
57.4911
57.3552
57.4293
57.5418
57.4269
57.5321
57.5431
57.462
57.3632
57.3355
57.4901
57.5812
57.4802
57.4613
57.2178
57.2817
57.1011
57.1334
56.9259
56.9851
57.0934
57.1775
57.2232
57.3328
57.3843
57.4246
57.0381
56.7217
56.7484
56.9716
56.9321
56.9089
57.6911
60.7357
66.6464
72.3391
75.1287
57.4403
57.5374
57.4366
57.6069
57.4677
57.512
57.5211
57.504
57.6422
57.5065
57.474
57.3408
57.4198
57.5473
57.3951
57.4224
57.4724
57.3964
57.3037
57.2794
57.4258
57.4711
57.44
57.2572
57.1258
57.2484
57.0443
57.1045
56.8897
56.9282
57.0963
57.1503
57.0514
57.2907
57.2803
57.2423
57.0085
56.7333
56.7447
56.9198
56.8353
56.9282
57.6533
60.8042
66.7071
72.399
74.9997
57.4435
57.5449
57.3542
57.4715
57.4541
57.5163
57.5789
57.5376
57.5972
57.4962
57.3697
57.3361
57.4192
57.6886
57.391
57.2897
57.3276
57.3011
57.3093
57.2595
57.4339
57.4055
57.3864
57.2055
57.136
57.2244
57.0201
57.0765
56.8845
56.912
57.1421
57.1411
56.978
57.1775
57.205
57.1794
57.03
56.7234
56.7385
56.8657
56.8147
56.9865
57.6408
60.815
66.735
72.5464
74.8437
57.4612
57.4469
57.1851
57.4041
57.4757
57.5175
57.5626
57.6294
57.6004
57.4248
57.3714
57.3663
57.4373
57.7637
57.414
57.2384
57.2698
57.2742
57.2401
57.2083
57.4315
57.363
57.3356
57.1882
57.1687
57.1812
57.0267
57.0717
56.8954
56.9078
57.457
57.1431
56.9327
56.9626
57.123
57.1376
57.2288
56.6949
56.725
56.7734
56.7944
57.0666
57.5989
60.8013
66.7918
72.7222
74.7845
57.6446
57.4202
57.1598
57.3648
57.4946
57.6844
57.5374
57.5649
57.5564
57.4044
57.4006
57.3888
57.4433
57.6404
57.5765
57.2056
57.2666
57.2737
57.1406
57.1642
57.4217
57.3461
57.2854
57.1796
57.3073
57.1509
57.0862
57.0497
56.9078
56.9031
57.4659
57.2236
56.9114
56.8813
57.0858
57.1092
57.2426
56.9581
56.7854
56.7646
56.7835
57.1049
57.5482
61.0577
66.9993
73.1546
74.7499
57.8269
57.3972
57.1792
57.3234
57.511
57.7549
57.4928
57.4687
57.4877
57.3918
57.436
57.453
57.462
57.6077
57.546
57.1866
57.3153
57.2745
57.0851
57.1637
57.4623
57.3146
57.2831
57.1498
57.344
57.164
57.1694
56.9899
56.9054
56.9014
57.3159
57.2277
56.9068
56.8537
57.0808
57.1158
57.1644
57.1259
56.7834
56.7948
56.7738
57.0929
57.6201
61.125
67.0884
73.168
74.7822
57.7081
57.3514
57.2068
57.3083
57.5008
57.6832
57.455
57.4523
57.4595
57.3862
57.6464
57.695
57.4943
57.5863
57.44
57.1774
57.4943
57.3645
57.1114
57.1571
57.4312
57.2959
57.2322
57.0937
57.2097
57.1786
57.2031
57.0008
56.8839
56.9718
57.2911
57.1769
56.9158
56.8218
57.0823
57.1492
57.1428
57.0472
56.7738
56.7523
56.767
57.0854
57.9093
61.1551
67.2161
73.0773
74.7968
57.6878
57.2894
57.2617
57.3165
57.4623
57.6007
57.4325
57.4411
57.4349
57.3997
57.7223
57.8105
57.5481
57.5631
57.455
57.1715
57.5125
57.5906
57.1357
57.1359
57.4026
57.2706
57.1955
57.1211
57.1898
57.2311
57.2261
57.0334
56.9174
57.0991
57.2549
57.093
56.9667
56.7904
57.0703
57.2532
57.1199
57.0495
56.7687
56.7056
56.7912
57.0848
58.3377
61.2024
67.2897
73.0393
74.8558
57.7205
57.3474
57.6044
57.4794
57.4371
57.5771
57.4124
57.4392
57.4232
57.4086
57.6366
57.7242
57.7567
57.5403
57.4587
57.1931
57.47
57.521
57.134
57.1068
57.3373
57.2545
57.2055
57.1804
57.1955
57.304
57.4271
57.051
57.0063
57.2204
57.2041
57.0743
57.0629
56.8039
57.0688
57.2368
57.1144
57.0672
56.7994
56.8786
56.8061
57.0797
58.4288
61.1892
67.3191
73.0292
74.8926
57.7444
57.387
57.5616
57.7897
57.4456
57.5025
57.4065
57.4504
57.4277
57.4034
57.6529
57.7203
58.043
57.5233
57.5096
57.3318
57.4498
57.4794
57.1207
57.1229
57.3359
57.2599
57.2511
57.2053
57.2127
57.4632
57.6095
57.0734
57.1324
57.3453
57.1883
57.1352
57.1005
57.0163
57.1175
57.1406
57.1135
57.0748
56.8701
56.8899
56.8122
57.0944
58.4409
61.1525
67.325
73.0374
75.0861
57.6685
57.3951
57.5477
57.7145
57.4431
57.49
57.3966
57.4794
57.4623
57.4011
57.6525
57.7924
57.9563
57.6605
57.5353
57.4425
57.4025
57.4807
57.144
57.2859
57.3335
57.3435
57.2632
57.1998
57.2717
57.5342
57.6328
57.0866
57.2849
57.4665
57.1859
57.1264
57.0964
57.1672
57.1318
57.0923
57.0688
57.0948
56.9975
56.8744
56.8168
57.2141
58.3212
61.1133
67.3066
73.0628
75.4785
57.4833
57.4107
57.5515
57.6939
57.4499
57.5105
57.3918
57.5097
57.5198
57.5267
57.7725
58.0231
57.8887
57.6925
57.4586
57.502
57.4806
57.4962
57.3408
57.4687
57.3099
57.2131
57.3197
57.189
57.3351
57.5614
57.6927
57.1601
57.4345
57.5743
57.2381
57.1207
57.1506
57.417
57.2619
57.0754
57.1196
57.1616
57.1236
56.9451
56.8653
57.4663
58.2756
61.1653
67.4746
73.0925
75.4053
57.4292
57.4367
57.5514
57.7243
57.9021
57.5315
57.5119
57.5219
57.6797
57.6837
57.9255
58.0486
57.9347
57.746
57.5155
57.7609
57.6644
57.5838
57.5769
57.6945
57.3714
57.2498
57.3024
57.1365
57.3535
57.6736
57.715
57.3741
57.5549
57.7204
57.3735
57.2951
57.3804
57.4876
57.2942
57.1932
57.2502
57.4276
57.1915
56.9164
56.9064
57.3582
58.3016
61.3309
67.9667
73.15
75.4056
57.4055
57.4517
57.6135
57.7502
58.0013
57.5432
57.6335
57.439
57.8037
57.708
58.0092
58.0892
58.1045
57.7822
57.933
57.9018
57.6885
57.6436
57.9001
57.915
57.4638
57.3893
57.2896
57.1463
57.359
57.8498
57.6778
57.7281
57.7724
57.9111
57.5745
57.528
57.5275
57.4593
57.2934
57.2566
57.3047
57.4699
57.4122
56.95
56.9501
57.3185
58.2996
61.4712
67.9194
73.2515
75.4817
57.4014
57.5042
57.6878
57.7496
57.9793
57.6022
57.7551
57.8089
57.7719
57.7412
58.0394
58.1181
58.1757
57.7848
58.1602
57.8809
57.7495
57.6762
58.0931
57.9427
57.7138
57.6549
57.4524
57.2957
57.4787
57.8219
57.6679
58.008
57.9976
57.8737
57.7377
57.6326
57.7447
57.5504
57.3641
57.2614
57.476
57.5208
57.5784
57.1382
56.9594
57.5398
58.2611
61.6168
67.9205
73.3056
75.5334
57.4087
57.5893
57.8092
57.8312
57.9849
57.626
57.8455
58.2212
57.9073
58.0713
58.0548
58.1245
58.2181
57.8325
58.1949
57.9034
57.7917
57.6891
58.4878
58.0573
57.8687
57.8392
57.6461
57.592
57.6314
57.7857
57.8255
58.1048
58.0014
57.9172
57.7444
57.6851
58.1061
57.6857
57.5052
57.2716
57.534
57.5801
57.6354
57.3357
57.0047
57.7428
58.7401
61.8381
68.0046
73.3736
75.5382
57.4876
57.6996
57.8698
57.9373
58.0517
57.7157
57.9258
58.2146
58.1417
58.3179
58.0042
58.1464
58.2209
58.0495
58.1314
58.0976
57.7751
57.8303
58.5094
58.1421
57.9866
57.9025
57.8189
57.9481
57.7426
57.9053
58.0796
58.1614
58.1802
58.0064
57.7639
57.7465
58.1785
57.7191
57.5511
57.3568
57.5198
57.6081
57.7431
57.4152
57.208
57.797
58.9092
62.2874
68.0706
73.7857
75.5479
57.5911
57.8323
57.9457
58.0369
58.1416
57.8262
57.9365
58.2116
58.2369
58.412
57.9835
58.1683
58.1884
58.1536
58.1151
58.271
57.7362
58.0892
58.3817
58.2267
58.0463
57.9703
58.0712
58.3602
57.8615
58.4425
58.213
58.1696
58.3039
58.1053
57.809
57.7894
58.0998
57.7528
57.5627
57.3948
57.5377
57.7649
57.9691
57.6048
57.5305
57.8148
59.0196
62.7679
68.1582
73.7941
75.5933
57.6286
57.9377
58.0217
58.0968
58.2269
57.9029
57.9231
58.2377
58.4091
58.5051
58.1052
58.181
58.1499
58.18
58.3926
58.2988
58.0426
58.2882
58.331
58.2243
58.0828
58.0394
58.1754
58.5778
58.2186
58.4298
58.273
58.2311
58.3577
58.221
57.8494
57.8781
58.0694
57.9179
57.5945
57.4139
57.6199
57.9336
58.204
57.741
57.7432
57.7879
59.2451
62.6161
68.2195
73.7287
75.6857
57.6551
57.9901
58.0645
58.1281
58.2873
57.9741
57.9111
58.2064
58.7595
58.9067
58.3221
58.2168
58.2271
58.3382
58.466
58.418
58.2166
58.4344
58.313
58.1364
58.1336
58.0932
58.1801
58.599
58.3729
58.5106
58.398
58.351
58.5133
58.2323
58.2758
58.0393
58.0478
58.2726
57.6125
57.4845
57.6807
57.9691
58.2845
57.9351
58.0492
57.8741
59.3295
62.4932
68.3415
73.7217
76.0737
57.6973
58.0368
58.1153
58.1523
58.34
58.0488
57.9459
58.1813
58.76
58.9052
58.4974
58.3301
58.3109
58.7968
58.5553
58.5346
58.366
58.4817
58.3211
58.307
58.1886
58.0956
58.218
58.5857
58.47
58.6001
58.5036
58.4236
58.5134
58.3119
58.6387
58.5051
58.0228
58.1296
57.6802
57.5358
57.7971
58.1105
58.351
58.0766
58.3552
57.8887
59.3464
62.4884
68.5119
73.7837
76.0604
57.8316
58.1487
58.2138
58.293
58.413
58.0362
58.0874
58.1732
58.7822
58.8433
58.8476
58.5037
58.3429
58.8403
58.6389
58.5723
58.4619
58.5776
58.4438
58.5633
58.2587
58.0949
58.2904
58.5699
58.5198
58.6398
58.5092
58.5134
58.5112
58.5042
58.6334
58.6451
58.0651
58.0675
57.757
57.6375
57.9623
58.2977
58.3426
58.2122
58.505
57.9779
59.3627
62.6812
68.5511
73.9505
76.0192
57.9126
58.3138
58.3607
58.5854
58.437
58.2277
58.1866
58.2383
58.718
58.9354
59.0112
58.655
58.3926
58.8065
58.6816
58.6084
58.4874
58.6603
58.5107
58.6466
58.3024
58.1236
58.4136
58.5478
58.5359
58.7004
58.4718
58.5376
58.6264
58.7733
58.7214
58.6352
58.1497
58.1899
57.8549
57.9363
58.1269
58.3835
58.4585
58.3908
58.5404
58.4562
59.6135
62.863
68.6048
74.0741
76.039
57.9925
58.4874
58.4881
58.7011
58.4614
58.5125
58.4902
58.4921
58.6614
59.0427
59.0804
58.8155
58.4893
58.9643
58.6759
58.6595
58.5449
58.7138
58.6206
58.7234
58.379
58.3514
58.5159
58.5512
58.5943
58.6955
58.4839
58.72
58.7248
59.0737
58.8177
58.6063
58.2648
58.3396
58.0208
58.0064
58.1726
58.3959
58.5618
58.617
58.5715
58.7216
59.7191
62.9954
68.6669
74.112
76.0604
58.2048
58.6891
58.5914
58.7515
58.5214
58.6594
58.8602
58.7165
58.681
59.1336
59.0886
58.913
58.6722
58.9444
58.7216
58.8059
58.6468
58.7312
58.891
58.7466
58.4978
58.5275
58.6293
58.6157
58.6331
58.7002
58.5674
58.8659
58.8504
58.9791
58.9399
58.5703
58.4631
58.4197
58.2491
58.0844
58.219
58.3976
58.617
58.8855
58.8336
58.7792
59.5785
63.0653
68.8205
74.1236
76.0654
58.6048
59.0586
58.9372
58.7719
58.5833
58.8023
59.0114
58.7513
58.8908
59.1391
59.0571
58.9644
58.8327
58.8414
58.9559
58.8797
58.8583
58.8792
58.976
58.9178
58.7757
58.8838
58.7611
58.7446
58.7761
58.7293
58.6838
58.9517
58.9587
59.0642
58.9744
58.7536
58.6517
58.4761
58.4584
58.2486
58.2191
58.4635
58.6437
59.011
58.9158
58.8413
59.6062
63.1
68.9383
74.1573
76.0745
58.7689
59.2577
59.0443
58.7759
58.6439
58.9404
59.0854
59.012
59.0691
59.1288
59.0489
59.0452
59.178
58.8339
59.0555
58.9499
58.9487
58.8866
59.0128
59.4516
59.1157
59.1918
58.9532
58.8126
59.2856
58.7526
58.7329
59.2381
59.0273
59.1618
59.0032
58.8119
58.8124
58.5744
58.6182
58.5718
58.2365
58.4855
58.6923
58.9867
58.9905
58.9555
59.9058
63.1156
69.012
74.2519
76.1097
59.4339
59.3502
59.2106
58.8448
58.7522
59.3827
59.142
59.1694
59.1044
59.1167
59.1981
59.2997
59.4072
59.0716
59.1628
59.217
59.2149
58.9174
59.0709
59.5796
59.4503
59.3897
59.1397
58.8768
59.3234
58.777
58.7383
59.3723
59.041
59.2431
59.0257
58.9653
59.0291
58.8171
59.182
59.0988
58.7355
58.6753
58.777
59.0187
59.0125
59.0699
60.1445
63.2069
69.0922
74.4904
76.3501
59.9092
59.5615
59.4743
59.2354
59.2355
59.4747
59.2086
59.2203
59.1589
59.1924
59.3524
59.4522
59.473
59.4402
59.3451
59.4311
59.554
59.1716
59.1696
59.7283
59.8946
59.573
59.3452
59.0109
59.288
58.9666
58.9012
59.3305
59.2972
59.213
59.0733
59.0572
59.1008
59.0352
59.4042
59.476
59.3057
58.7728
58.8482
58.923
59.0287
59.2494
60.2817
63.3387
69.1692
74.9241
76.3103
60.0312
59.8885
59.8878
59.6862
59.3271
59.5044
59.3251
59.2979
59.357
59.3977
59.8351
59.6161
59.611
59.5669
59.3933
59.5552
59.6519
59.3348
59.3115
59.6129
60.0535
59.6778
59.4487
59.1687
59.34
59.1343
59.0862
59.3374
59.3678
59.1038
59.2
59.0709
59.1958
59.423
59.5281
59.4593
59.3679
58.8221
58.8704
58.8823
59.1462
59.3987
60.5555
63.4708
69.3063
74.7871
76.274
60.1525
60.0443
59.9936
59.8004
59.3851
59.5604
59.4887
59.314
59.423
59.4459
59.9379
59.7486
59.661
59.5813
59.404
59.643
59.6785
59.3864
59.3815
59.663
60.0809
59.7027
59.4995
59.3454
59.513
59.3359
59.5438
59.3291
59.6089
59.3418
59.234
59.1949
59.2441
59.7245
59.6829
59.5671
59.4426
59.0608
58.8643
58.8945
59.1912
59.4708
61.0551
63.6555
69.6598
74.7265
76.3188
60.2979
60.1227
60.0298
59.8841
59.3979
59.6015
59.6861
59.4429
59.5164
59.4306
59.8715
59.8335
59.6728
59.6497
59.468
59.7155
59.6985
59.4186
59.4651
59.7246
59.9047
59.7191
59.5651
59.5621
59.6078
59.7667
59.6518
59.4837
59.6378
59.6315
59.4151
59.4384
59.3052
59.7516
59.7213
59.6997
59.7247
59.2932
58.8974
59.0417
59.2317
59.6618
61.1723
63.8223
69.7818
74.8172
76.4034
60.3474
60.1594
60.1581
59.9453
59.6276
59.6346
59.7784
59.7308
59.5559
59.4871
59.8324
60.2194
59.7532
59.6912
59.6488
59.7547
59.7248
59.4567
59.5143
59.7388
59.8829
59.7133
59.6661
59.9979
59.7026
59.8392
59.7555
59.7415
59.7169
59.8435
59.5481
59.5118
59.65
59.7674
59.7259
59.7977
59.7789
59.4638
59.1169
59.3068
59.3943
60.0961
60.9835
63.8453
69.9613
74.8585
76.4534
60.3717
60.2052
60.2524
59.9599
59.8411
59.7244
59.884
59.8986
59.5309
59.509
59.8479
60.3793
59.9131
59.7106
59.8087
59.8214
59.7996
59.6375
59.4999
59.5707
59.8058
59.9027
59.9548
60.1379
59.773
59.9044
59.8091
59.8884
59.9463
59.9069
59.6427
59.5675
59.8723
59.8083
59.7473
59.8328
59.817
59.5198
59.2401
59.5027
59.4949
60.3057
60.9048
63.9427
70.1327
74.8243
76.4889
60.4015
60.2586
60.4126
59.9881
59.8796
59.9649
60.2444
59.9909
59.533
59.5001
59.8899
60.2618
59.9689
59.7393
59.9638
59.8649
59.837
59.7399
59.5392
59.5445
59.7497
59.9409
60.157
60.0568
59.8078
59.948
59.8759
59.9369
59.9676
59.8297
59.6013
59.7193
60.0284
59.8493
59.7811
59.8394
59.8632
59.4991
59.298
59.5646
59.7326
60.3863
60.8869
64.1534
70.6151
74.7971
76.5739
60.4552
60.3014
60.4261
60.0499
59.948
60.0572
60.5709
60.0504
59.7229
59.5663
59.9052
60.2577
60.1486
59.8994
60.065
60.0323
59.9492
59.8507
60.1263
59.6202
59.7595
59.9546
60.1348
59.96
59.7726
59.9048
59.939
59.9455
59.9786
59.9616
59.6133
59.9218
60.0074
59.8236
59.7875
59.849
59.909
59.4959
59.5072
59.6727
59.8462
60.3639
61.0047
64.3216
70.5669
74.8549
76.7028
60.4659
60.3385
60.3749
59.975
60.0144
60.1798
60.5664
60.2049
59.9424
59.6508
59.9149
60.2672
60.3911
59.9678
60.1227
60.2113
60.136
60.0858
60.2986
59.8758
59.9734
60.258
60.1243
59.9389
59.738
59.8719
59.9307
59.9781
60.0919
60.0537
59.6419
60.0312
60.1136
59.7937
59.7794
59.9036
59.828
59.5551
59.6151
59.6883
60.0061
60.3841
61.1694
64.4852
70.4986
74.9941
76.8793
60.4639
60.3781
60.3001
59.9254
60.0631
60.2053
60.5061
60.3571
60.119
59.7815
59.9053
60.2081
60.2987
59.9829
60.1515
60.283
60.3616
60.4152
60.348
60.2206
60.0971
60.304
60.1792
59.937
59.8334
59.9643
60.0013
59.9879
60.1166
60.0994
59.7046
60.0997
60.1523
59.9255
59.8876
59.9398
59.8001
59.6156
59.6661
59.7529
60.1658
60.4564
61.2339
64.7342
70.4892
75.128
77.3368
60.6028
60.473
60.2019
60.0266
60.1548
60.1895
60.5089
60.5371
60.3306
60.0256
59.9023
60.1917
60.2857
59.9966
60.1653
60.3514
60.4587
60.6144
60.5081
60.4075
60.3135
60.4218
60.4293
60.1936
60.2209
60.1875
60.125
59.9433
60.1196
60.0391
60.2648
60.1725
60.1698
59.9654
60.2598
60.0403
59.8781
59.7707
59.7124
59.8239
60.2681
60.5684
61.2579
64.8214
70.4648
75.4042
77.4349
60.7614
60.9282
60.159
60.0485
60.7497
60.1786
60.4889
61.0217
60.6042
60.8685
60.0666
60.1882
60.3091
60.0841
60.3509
60.6939
60.5392
60.7016
60.5422
60.3062
60.3577
60.6931
60.6417
60.6118
60.406
60.3431
60.2564
59.9897
60.0881
60.0678
60.4608
60.4253
60.2209
59.9997
60.2477
60.1797
59.9274
59.909
59.7708
60.0967
60.3573
60.6419
61.2502
64.8012
70.5874
75.4386
77.4772
60.9556
61.0062
60.2052
60.197
60.9895
60.2144
60.5035
60.9983
60.6907
61.1528
60.2475
60.2187
60.3629
60.2931
60.7118
60.7486
60.7533
60.7228
60.5744
60.3535
60.3784
60.7438
60.7236
60.7769
60.5759
60.4616
60.2687
60.1709
60.0645
60.2421
60.5572
60.4629
60.265
60.1077
60.3051
60.1778
59.9569
60.1006
59.8937
60.2405
60.3561
60.4676
61.3371
64.7865
70.6997
75.4627
77.5691
61.3083
61.1174
60.3655
60.5359
60.9533
60.4029
60.4937
60.9913
60.7296
61.0813
60.402
60.4276
60.5244
60.5556
60.776
60.7184
60.8525
60.7356
60.6397
60.4519
60.4247
60.7596
60.8102
60.7577
60.5943
60.5575
60.3614
60.2565
60.1537
60.323
60.6012
60.46
60.3457
60.181
60.3967
60.3793
60.0514
60.3859
60.1718
60.4861
60.4565
60.4767
61.8436
64.9363
70.7063
75.4711
77.7696
61.7625
61.1644
60.5859
60.732
60.9881
60.5963
60.6734
61.05
60.7308
61.0774
60.6702
60.6714
60.6288
60.7542
60.8414
60.671
60.814
60.7412
60.6479
60.5011
60.5301
60.7625
60.831
60.7476
60.6327
60.6563
60.6506
60.4197
60.3529
60.3671
60.5802
60.4567
60.3595
60.2612
60.4785
60.4656
60.3577
60.6506
60.6752
60.7114
60.5815
60.6534
62.054
65.0837
70.7962
75.7646
78.0407
61.9897
61.2529
60.8122
60.9328
61.2021
60.737
60.7355
61.1366
60.8372
61.2188
60.8954
60.7996
60.7195
60.8542
60.8972
60.6944
60.7782
60.8263
60.5913
60.5448
60.7036
60.798
60.7742
60.7448
61.034
60.7687
60.7922
60.7059
60.448
60.3578
60.5753
60.5735
60.3707
60.3929
60.6016
60.4431
60.5929
60.76
60.9678
60.6937
60.6633
60.9149
62.3299
65.2787
70.9368
76.32
77.9807
62.0029
61.3579
61.0721
61.2316
61.3422
61.4368
60.8249
61.1425
61.2381
61.3319
61.0222
60.9864
60.9961
61.0672
60.9175
60.885
60.8251
60.9241
60.7232
60.7694
60.8955
60.8572
60.8465
60.9093
61.2815
60.9384
60.9158
60.8408
60.5872
60.3647
60.4277
60.5684
60.2721
60.5077
60.6585
60.4363
60.7898
60.7672
61.1253
61.0004
60.6889
60.9482
62.6676
65.4477
70.9733
76.2551
77.9172
62.1015
61.6151
61.3218
61.4499
61.4387
61.7716
61.0177
61.1416
61.443
61.4285
61.157
61.0282
61.159
61.2571
61.1265
61.1908
61.1096
61.0866
61.0297
61.1582
61.0221
60.8923
60.8956
61.2062
61.2701
61.207
61.073
60.9064
60.736
60.4549
60.4105
60.414
60.4269
60.7056
60.6346
60.642
61.2112
60.7668
61.161
61.1868
60.7786
61.0205
62.6974
65.5704
71.0158
76.2711
77.88
62.1114
61.6529
61.5642
61.6551
61.6665
61.7837
61.1906
61.1999
61.761
61.4549
61.2408
61.1323
61.4358
61.4406
61.4894
61.2247
61.2559
61.315
61.3015
61.457
61.2428
60.9542
61.0127
61.2852
61.2969
61.3015
61.241
60.9512
60.8256
60.6164
60.4442
60.3728
60.6127
60.8671
60.6775
60.715
61.119
60.919
61.1843
61.1831
60.9322
61.0461
62.7473
65.7157
71.1063
76.3246
77.8697
61.8345
61.741
61.9764
62.0502
61.8953
61.7677
61.4888
61.3312
62.2025
61.5011
61.351
61.3249
61.927
61.4942
61.7242
61.3477
61.3555
61.3638
61.4244
61.5015
61.5229
61.2288
61.2088
61.32
61.425
61.4669
61.383
61.0434
61.0263
60.8158
60.6856
60.5907
60.869
61.0174
60.8197
60.8411
60.9948
61.1479
61.2028
61.2632
60.9676
61.0058
62.7907
65.9277
71.1412
76.3389
77.9092
61.7767
61.8427
62.1373
62.2464
61.9734
61.9295
61.7253
61.5485
62.2437
61.6058
61.5166
61.428
61.9149
61.8375
61.7018
61.4451
61.3962
61.5082
61.6539
61.4879
61.5819
61.7668
61.4675
61.4201
61.4952
61.4911
61.515
61.491
61.044
61.0731
60.9013
60.9516
61.162
61.4264
61.307
61.067
61.0332
61.2511
61.1858
61.2166
60.9969
61.2594
62.7572
66.0866
71.2459
76.3826
77.988
61.7151
61.8955
62.2325
62.3511
61.9995
62.0707
61.8342
61.8757
62.3165
61.936
61.8795
61.611
62.0038
62.1769
61.7018
61.5035
61.4432
61.5943
61.8723
61.7131
61.763
61.9266
61.8053
61.5944
61.5896
61.5495
61.6889
61.8874
61.3795
61.3286
61.1845
61.2673
61.2607
61.4359
61.4691
61.2017
61.1534
61.4713
61.2295
60.9987
60.9992
61.3382
62.7183
66.1324
71.5645
76.3863
78.3188
61.7007
62.0143
62.2968
62.5851
62.0322
62.1962
62.1375
62.2623
62.4154
62.3943
62.3614
61.7887
62.1176
62.2727
61.7767
61.5254
61.4896
61.6205
62.134
61.898
61.9409
62.106
61.8939
61.8864
61.7754
61.7831
61.6894
61.6968
61.7998
61.7723
61.4042
61.5521
61.5152
61.5996
61.5058
61.5105
61.4198
61.709
61.2693
60.9614
61.0761
61.3288
62.713
66.1195
71.7249
76.4115
78.5545
61.6515
62.0961
62.6763
62.9269
62.0227
62.2001
62.3662
62.4793
62.6031
62.575
62.6802
61.8842
62.1362
62.3314
61.8612
61.5647
61.5018
61.6499
62.2289
61.9472
61.9634
62.1467
62.0252
61.9864
61.9796
61.9319
61.8157
61.6479
61.8086
61.9191
61.4994
61.6013
61.5763
61.6405
61.6881
61.598
61.6411
61.7069
61.5453
61.1219
61.1037
61.5841
62.7026
66.09
71.8054
76.475
78.425
61.6261
62.1583
62.9741
62.9335
62.1267
62.2343
62.4877
62.6601
62.7518
62.7
62.6867
62.0644
62.0663
62.4027
61.8496
61.568
61.5308
61.7099
62.1034
62.0293
61.968
62.1292
62.058
61.9792
62.057
62.0767
61.8838
61.7318
61.8943
61.8729
61.5207
61.6015
61.5888
61.6855
61.846
61.8146
61.7734
61.7891
61.6018
61.1516
61.0919
61.9187
62.8356
66.1946
71.8359
76.6078
78.4028
61.6351
62.2224
63.0355
62.9693
62.4431
62.3418
62.7296
62.7666
62.7788
62.7147
62.7302
62.4367
61.9529
62.3386
61.8352
61.5682
61.6206
61.8623
62.0741
62.2874
61.9564
62.0677
62.076
61.9916
62.1014
62.23
61.95
61.7893
61.9729
61.8397
61.5789
61.6034
61.7269
61.7122
61.8907
61.9033
61.9154
61.9334
61.7341
61.3797
61.2139
61.9736
62.9069
66.3549
71.8655
76.6948
78.4138
61.8108
62.2878
63.0594
63.0405
62.7433
62.719
62.8343
62.8809
62.8098
62.7694
62.8186
62.9522
62.1885
62.2444
61.8312
61.6963
61.8224
62.1139
62.0487
62.5058
61.9744
62.0571
62.0832
62.0441
62.1428
62.3284
62.0825
61.8489
61.9193
61.7769
61.6316
61.6337
61.8248
61.6986
61.9692
61.9024
61.953
61.948
61.8761
61.5731
61.4246
62.0127
63.0294
66.4235
71.9417
76.7324
78.4392
62.1704
62.462
63.1084
63.1477
62.9151
63.097
63.0005
63.3014
62.8332
62.8053
62.8714
63.4839
62.5346
62.2207
62.0581
62.0032
62.1663
62.5543
62.2877
62.5428
62.0665
62.0614
62.086
62.0575
62.2034
62.2802
62.3065
62.1071
61.8971
61.7119
61.8082
61.8478
61.8923
61.7644
61.9859
61.9794
61.935
61.8809
61.8964
61.5357
61.6601
62.0755
63.2578
66.486
72.025
76.7641
78.4807
62.7039
62.824
63.0232
63.1734
63.0287
63.3039
63.2509
63.3615
62.88
62.81
62.9497
63.5355
62.6405
62.3478
62.4106
62.4135
62.829
62.8928
62.5133
62.6754
62.2361
62.0729
62.0417
62.0257
62.2261
62.2847
62.4453
62.1679
61.9697
61.9139
62.0942
62.0083
62.0169
61.8884
61.9368
62.0366
61.8791
61.9162
61.9407
61.4851
61.8149
62.1892
63.4612
66.587
72.1836
76.8559
78.6785
63.519
63.6715
63.0502
63.2593
63.274
63.4136
63.7493
63.4022
62.9079
62.8042
63.3118
63.5369
62.8978
62.4852
62.6322
62.6568
63.28
62.9634
62.7307
62.8424
62.6259
62.1168
62.069
62.0098
62.2338
62.3178
62.4957
62.3866
62.1834
62.201
62.3737
62.2199
62.2457
62.0959
61.979
62.0793
61.8293
61.9758
61.9355
61.5361
61.9268
62.0915
63.4966
66.7691
72.3634
77.0939
78.7268
64.4273
64.1566
63.4077
63.3411
63.5447
63.4005
63.79
63.2563
63.0419
62.9349
63.4032
63.5573
63.0796
62.689
62.8947
62.968
63.362
63.2583
63.1288
62.9714
63.1287
62.2706
62.3389
62.0624
62.2707
62.333
62.497
62.5316
62.3397
62.3527
62.4921
62.524
62.5392
62.4068
62.069
62.2607
62.1613
61.9199
61.7796
61.6604
62.1516
62.1167
63.4245
67.0711
72.5018
77.1637
78.634
64.8604
64.3993
63.787
63.6082
63.829
64.1033
63.8628
63.2037
63.0893
63.1775
63.5044
63.5261
63.2078
62.9905
63.034
63.3725
63.5873
63.4817
63.4257
63.365
63.3796
62.6455
62.4505
62.319
62.3214
62.2763
62.4625
62.601
62.448
62.4252
62.5541
62.6515
62.6542
62.5803
62.3036
62.579
62.3972
61.9219
61.806
61.8143
62.1921
62.2404
63.4155
67.229
72.6711
77.2386
78.6248
65.2787
64.6618
63.9451
63.7595
64.0663
64.5719
64.0118
63.413
63.3994
63.5152
63.5758
63.5387
63.3149
63.1428
63.1938
63.8699
63.6951
63.6099
63.5218
63.4623
63.4905
63.0505
62.6998
62.7451
62.341
62.2547
62.4578
62.6643
62.5128
62.4575
62.6069
62.7136
62.6928
62.6515
62.5755
62.6887
62.4231
62.097
61.8231
61.9461
62.2043
62.3738
63.5309
67.2761
72.7977
77.2753
78.6568
65.4832
64.8008
64.096
63.8843
64.1573
64.6084
64.0887
63.6987
63.6657
63.5957
63.6214
63.5538
63.4154
63.3087
63.8905
64.1
63.7304
63.6016
63.5519
63.5362
63.4839
63.3969
63.1036
63.0583
62.5158
62.2621
62.5568
62.6275
62.5392
62.4692
62.6142
62.7152
62.7123
62.6645
62.6654
62.6701
62.5361
62.1276
61.8958
62.0005
62.2442
62.4455
63.689
67.3003
72.9691
77.3018
78.6878
65.5291
64.9911
64.4368
63.9399
64.226
64.6303
64.1343
63.798
63.7894
63.6904
63.6525
63.5502
63.4797
63.4277
64.0189
64.0297
63.733
63.6068
63.6114
63.5843
63.5888
63.6404
63.5844
63.3467
62.9757
62.4679
62.7017
62.5921
62.5421
62.5017
62.5849
62.6943
62.7166
62.6868
62.7745
62.7731
62.6685
62.3902
62.0275
62.1582
62.2973
62.5704
63.9246
67.341
73.038
77.3226
78.7618
65.5314
65.1512
64.657
64.0075
64.3041
64.5613
64.1682
63.9273
63.8571
63.7156
63.6814
63.5795
63.5381
63.5285
63.956
64.0014
63.7362
63.6075
63.6434
63.6293
63.6595
63.7953
63.7644
63.4941
63.3684
62.7641
62.7877
62.5921
62.5544
62.5253
62.5453
62.6715
62.7086
62.7063
62.784
62.7982
62.65
62.5701
62.2168
62.3696
62.3723
62.6584
64.0862
67.5124
73.0566
77.3401
78.9325
65.5419
65.2292
64.7845
64.1247
64.4063
64.5176
64.1845
63.964
63.911
63.7192
63.6772
63.5899
63.5888
63.6558
63.9887
64.0598
63.7475
63.6027
63.66
63.7756
63.8288
63.9487
63.8572
63.5502
63.3838
63.1462
62.8782
62.5828
62.571
62.5785
62.5852
62.7551
62.7078
62.6942
62.7752
62.7734
62.6744
62.5748
62.4093
62.6146
62.4474
62.7351
64.1677
67.9717
73.0655
77.3553
78.8459
65.4835
65.244
64.983
64.463
64.5329
64.4947
64.249
64.0649
64.049
63.7871
63.6741
63.5839
63.6349
63.8189
64.0472
64.1415
63.8163
63.6181
63.7763
64.2495
63.9941
63.9626
63.8981
63.7851
63.5825
63.4213
62.9942
62.7671
62.7107
62.9069
62.7343
62.803
62.7644
62.7297
62.7686
62.7591
62.7094
62.6485
62.641
62.7006
62.4818
62.8266
64.3874
67.9715
73.1499
77.385
78.7882
65.3949
65.2308
65.0497
64.907
64.8007
64.4802
64.3568
64.291
64.6452
64.1368
63.7302
63.6437
63.8322
64.0685
64.1679
64.2654
64.0769
63.6911
64.3325
64.2604
63.985
63.8852
63.9107
63.8798
63.7127
63.4915
63.0832
62.9207
62.8864
62.9652
62.8485
62.9197
62.8989
62.9128
62.7428
62.7705
62.7123
62.7042
62.7777
62.9418
62.5337
62.9958
64.5046
67.939
73.2958
77.4475
78.7717
65.3604
65.2151
65.1024
65.1179
65.2296
64.4768
64.446
64.5253
65.0069
64.6832
64.0821
63.8294
64.1581
64.4037
64.4788
64.4372
64.2655
63.8666
64.4153
64.1653
64.0242
64.0424
63.8736
64.0018
63.7646
63.6548
63.3281
63.0187
63.0977
63.0911
63.0683
63.1083
63.1394
63.1602
62.8364
62.8023
62.7311
62.7172
62.7979
62.9629
62.8336
63.2823
64.5658
67.9014
73.3728
77.5319
78.7841
65.3513
65.2115
65.1397
65.2647
65.3238
64.5357
64.5506
64.7686
65.3026
65.2028
64.5203
64.2749
64.6184
64.9081
64.8598
64.703
64.3207
64.1945
64.4456
64.1304
64.1423
64.1121
63.9665
64.3256
64.098
63.7996
63.59
63.2691
63.3117
63.3742
63.2949
63.2842
63.2646
63.3688
63.1035
62.8287
62.7583
62.7216
62.8077
62.9299
63.1407
63.52
64.6994
67.8823
73.4016
77.6447
78.8299
65.4665
65.3369
65.1426
65.3425
65.36
64.8857
64.7765
65.063
65.4444
65.7386
65.0355
64.9627
65.672
66.2028
65.6876
65.2056
64.9909
64.5997
64.4583
64.2948
64.2045
64.2052
64.1123
64.2327
64.3541
63.8944
63.7955
63.6133
63.615
63.7607
63.622
63.6604
63.5491
63.4927
63.2591
62.9217
62.8065
62.7272
62.838
62.8095
63.2486
63.8228
65.0035
67.9325
73.3971
77.7522
78.9399
65.5016
65.6645
65.1075
65.3704
65.4294
65.2846
65.1508
65.4881
65.5079
66.0072
65.7279
65.6356
66.6028
66.6466
66.3184
66.013
66.0843
65.648
64.7391
64.6432
64.3931
64.2602
64.2223
64.0912
64.2809
64.4716
64.2059
63.8019
63.833
63.8736
64.0275
63.9473
63.8575
63.7409
63.5734
63.2675
63.1058
62.9792
62.8461
62.959
63.3191
64.1697
65.3228
68.0247
73.4185
77.8306
79.0864
65.517
65.7689
65.4081
65.4584
65.5302
65.5367
65.5858
65.8007
65.6728
66.0926
66.2535
66.315
67.0348
66.8594
66.6071
66.2833
66.2463
66.2148
65.2311
65.0932
64.7948