/*--------------------------------*- C++ -*----------------------------------*\
| =========                 |                                                 |
| \\      /  F ield         | OpenFOAM: The Open Source CFD Toolbox           |
|  \\    /   O peration     | Version:  2212                                  |
|   \\  /    A nd           | Website:  www.openfoam.com                      |
|    \\/     M anipulation  |                                                 |
\*---------------------------------------------------------------------------*/
FoamFile
{
    version     2.0;
    format      ascii;
    arch        "LSB;label=32;scalar=64";
    class       surfaceScalarField;
    location    "0.0102";
    object      phi;
}
// * * * * * * * * * * * * * * * * * * * * * * * * * * * * * * * * * * * * * //

dimensions      [1 0 -1 0 0 0 0];

oriented        oriented;

internalField   nonuniform List<scalar> 
4475
(
0.000100599
-9.38883e-05
0.000132164
-0.000129721
4.2705e-05
-7.33898e-05
-1.8485e-05
6.39788e-05
0.00021809
-0.000261208
1.29097e-05
1.62917e-05
-4.1543e-05
9.68953e-05
3.2177e-05
-9.28352e-05
-9.24066e-05
9.38561e-05
8.5015e-05
-9.28977e-05
6.72197e-05
-7.40858e-05
-7.7357e-05
7.90069e-05
-1.91745e-05
1.15726e-05
0.000105737
-0.000107529
-7.4669e-05
-9.80965e-05
8.48908e-05
7.99811e-05
9.79333e-05
-0.000100352
-9.57878e-05
-3.90433e-05
-2.05311e-05
2.33199e-05
3.52765e-05
-2.67197e-05
2.11407e-05
-3.86596e-05
-5.81469e-05
-7.77442e-06
2.60364e-06
5.25842e-05
-6.50322e-05
-7.31571e-06
1.48667e-06
-7.22663e-05
-3.66402e-06
-1.91714e-06
-7.817e-05
-1.04002e-07
-5.78439e-06
-8.19786e-05
2.66512e-06
-9.19948e-06
5.17536e-06
-8.17419e-05
-1.39312e-05
7.89938e-05
-1.19168e-05
-7.92513e-05
4.50319e-06
8.02454e-05
-5.70485e-06
7.5329e-05
-4.35615e-06
6.81118e-05
-6.17857e-06
6.02676e-05
-9.027e-06
5.33469e-05
-1.21079e-05
5.18444e-05
-1.5139e-05
4.19139e-05
-2.10531e-05
4.19288e-05
-1.96959e-05
5.74926e-05
-1.40372e-05
3.82578e-06
6.02052e-05
2.29408e-05
-1.56502e-05
0.000110967
-0.000115567
-2.57976e-05
-8.16523e-05
-1.8988e-05
6.77369e-05
1.92431e-05
-1.43867e-05
7.74456e-05
1.55333e-05
-1.09181e-05
8.79183e-05
1.14096e-05
-6.34408e-06
9.82448e-05
6.65122e-06
-1.35236e-06
0.000107463
9.21996e-07
4.14363e-06
0.000113549
-4.69976e-06
9.50185e-06
0.00011464
-1.02432e-05
1.40292e-05
0.000108657
-1.45961e-05
1.69375e-05
9.3689e-05
-1.63803e-05
1.68998e-05
7.17499e-05
-1.47365e-05
1.36314e-05
4.18243e-05
-9.65469e-06
6.25767e-06
8.35984e-06
1.55919e-07
-5.20842e-06
-2.12785e-05
1.29042e-05
-1.86766e-05
-4.00376e-05
2.64902e-05
-3.02426e-05
3.58138e-05
-4.3972e-05
-3.56638e-05
2.98719e-05
-3.78787e-05
3.30094e-05
7.77078e-06
2.05796e-05
-2.10765e-05
6.74774e-06
-5.17576e-05
-4.72529e-06
-7.70212e-05
-1.25747e-05
-9.54406e-05
-1.57884e-05
-0.000106471
-1.58684e-05
-0.000110288
-1.17372e-05
-0.000107591
-6.72851e-06
-0.000100936
-4.07974e-07
-9.26124e-05
6.17594e-06
-8.29804e-05
1.15986e-05
-7.34317e-05
1.61955e-05
-6.44932e-05
1.96439e-05
-5.67473e-05
2.23782e-05
-5.10567e-05
2.50537e-05
-3.89173e-05
3.01528e-05
-4.01971e-05
-4.34819e-05
2.55069e-05
-4.6423e-05
1.82554e-05
-5.37894e-05
1.00471e-05
-1.07003e-05
-6.32962e-05
1.73764e-06
-7.03741e-05
-3.31194e-06
-7.64171e-05
-7.42083e-06
-8.09618e-05
-1.15006e-05
-8.29539e-05
-1.55261e-05
-8.41626e-05
-1.95361e-05
4.14671e-05
-3.815e-05
-4.14094e-05
4.27484e-05
-3.78288e-05
7.78211e-05
-1.6889e-05
-7.84699e-05
7.21955e-05
-1.19433e-05
6.4638e-05
-1.23911e-05
5.65754e-05
-1.39661e-05
5.0038e-05
-1.60648e-05
4.65679e-05
-1.79556e-05
4.36569e-05
-1.94917e-05
4.59459e-05
-1.84745e-05
5.4847e-05
-1.50033e-05
6.30602e-05
-1.26896e-05
7.19844e-05
-1.00305e-05
8.2123e-05
-6.15363e-06
9.30101e-05
-1.44014e-06
0.000103839
3.57958e-06
0.000112826
8.9994e-06
0.000117949
1.39914e-05
0.000117279
1.73401e-05
0.000108154
1.89639e-05
8.97042e-05
1.72199e-05
6.3998e-05
1.22563e-05
3.00625e-05
2.65277e-06
-3.82405e-06
-9.77612e-06
-3.29484e-05
-2.3109e-05
-4.61752e-05
-3.16242e-05
-4.64862e-05
-3.35953e-05
-1.48186e-05
-8.13663e-05
9.94873e-06
-3.38078e-05
-4.28983e-05
-2.66516e-05
-7.56658e-05
-8.32861e-05
-2.5561e-05
2.80978e-05
-3.12698e-05
4.06784e-05
1.62622e-05
2.7786e-05
-5.86152e-06
1.37076e-05
-3.28142e-05
8.76475e-07
-5.94354e-05
-9.16461e-06
-8.00734e-05
-1.50345e-05
-9.52562e-05
-1.64882e-05
-0.000103398
-1.46238e-05
-0.000104126
-9.93204e-06
-0.000100547
-3.62924e-06
-9.45058e-05
3.65831e-06
-8.66356e-05
1.02589e-05
-7.82984e-05
1.5816e-05
-7.0007e-05
2.00056e-05
-6.24355e-05
2.29189e-05
-5.63019e-05
2.47117e-05
-5.21741e-05
2.57719e-05
-4.78464e-05
2.58875e-05
-4.82816e-05
2.18842e-05
-5.35072e-05
1.56585e-05
-6.04068e-05
6.99247e-06
-6.83956e-05
-1.30487e-06
-7.53565e-05
-7.38666e-06
-8.05338e-05
-1.20605e-05
-8.41999e-05
-1.58253e-05
-8.56826e-05
-1.99366e-05
-8.58889e-05
-2.39152e-05
-9.35756e-05
0.000125843
-0.000116682
6.13506e-05
-8.78649e-05
-4.59157e-05
6.89846e-05
-6.89419e-05
-4.22935e-05
7.20124e-05
3.57821e-05
5.6185e-05
9.28716e-05
-8.06808e-06
-7.99943e-06
-8.90282e-05
7.8634e-05
-1.64816e-05
7.09394e-05
-1.81595e-05
6.2641e-05
-1.79097e-05
5.45645e-05
-1.821e-05
4.82283e-05
-1.87104e-05
4.50677e-05
-1.88886e-05
4.49656e-05
-1.8329e-05
4.85593e-05
-1.6143e-05
5.66724e-05
-1.31112e-05
6.60733e-05
-9.76723e-06
7.62092e-05
-6.23322e-06
8.70656e-05
-1.99403e-06
9.84479e-05
2.76088e-06
0.000108951
8.05394e-06
0.000117396
1.30776e-05
0.000121448
1.74925e-05
0.000118071
2.02826e-05
0.000105481
2.03429e-05
8.3938e-05
1.72657e-05
5.41908e-05
1.03959e-05
1.73581e-05
-5.83138e-07
-1.71016e-05
-1.35951e-05
-4.13017e-05
-2.53903e-05
-4.85457e-05
-3.05216e-05
-4.68431e-05
-3.0513e-05
-4.31361e-05
-2.93114e-05
3.30695e-05
-4.03032e-05
-2.77192e-05
3.82913e-05
-3.88693e-05
4.25729e-05
-3.66573e-05
4.4702e-05
-3.2952e-05
-8.53655e-05
7.95876e-05
-0.000100809
-2.70472e-05
4.37377e-05
-0.000111802
-0.000113426
0.000119369
-8.39226e-05
0.000141638
6.61898e-05
-0.000134239
-3.52165e-05
-7.98382e-05
0.000110257
-8.87183e-05
0.000113713
-0.000141076
8.24031e-05
9.06805e-05
-8.71515e-05
-0.000105329
1.06469e-06
1.4822e-05
-8.66597e-05
-2.8675e-05
3.54627e-05
-2.91942e-05
-3.83314e-05
4.24595e-05
-3.58106e-05
5.03266e-05
-3.30574e-05
5.75245e-05
-2.90103e-05
6.074e-05
-2.18762e-05
1.93385e-05
5.78472e-05
-1.38712e-05
2.14763e-05
4.14509e-05
1.60801e-05
3.46154e-05
4.44452e-07
2.13037e-05
-1.90204e-05
7.04804e-06
-4.30038e-05
-4.67744e-06
-6.5073e-05
-1.29451e-05
-8.16561e-05
-1.70435e-05
-9.31578e-05
-1.70137e-05
-9.78739e-05
-1.37026e-05
-9.71541e-05
-8.12691e-06
-9.31621e-05
-1.11161e-06
-8.72008e-05
6.28719e-06
-8.05869e-05
1.31119e-05
-7.37462e-05
1.85574e-05
-6.70909e-05
2.23884e-05
-6.13004e-05
2.48704e-05
-5.66505e-05
2.55528e-05
-5.40094e-05
2.50091e-05
-5.31486e-05
2.26398e-05
-5.5658e-05
1.83137e-05
-6.01637e-05
1.10577e-05
-6.69558e-05
3.26968e-06
-7.40275e-05
-4.71373e-06
-7.96024e-05
-1.10392e-05
-8.38401e-05
-1.50921e-05
-8.64088e-05
-1.83728e-05
-8.79575e-05
-2.15923e-05
-2.53204e-05
-8.87208e-05
-2.42972e-06
-2.88224e-06
-9.58469e-05
9.20721e-05
0.000106927
-0.000137987
0.000128305
-8.61617e-05
9.30309e-05
-9.24521e-05
7.77532e-05
0.000100564
-2.15166e-07
1.6108e-05
0.000102118
8.62735e-06
-1.87006e-05
9.93164e-05
5.71672e-06
9.50614e-05
-3.87461e-07
-3.7529e-06
9.13055e-05
-6.96547e-06
8.88702e-05
-1.21428e-05
5.62844e-06
8.66895e-05
-1.63366e-05
7.89763e-05
-2.08877e-05
7.07959e-05
-2.30728e-05
6.22985e-05
-2.2503e-05
5.43211e-05
-2.17194e-05
4.81997e-05
-2.04477e-05
4.56451e-05
-1.8947e-05
4.64819e-05
-1.64733e-05
5.13522e-05
-1.35206e-05
5.99742e-05
-1.01476e-05
6.99126e-05
-6.40427e-06
8.06756e-05
-2.48845e-06
9.19584e-05
1.77543e-06
0.000103513
6.16206e-06
0.000113603
1.16941e-05
0.000121223
1.60874e-05
0.000123253
2.01826e-05
0.000117346
2.20341e-05
0.000101077
2.1035e-05
7.69051e-05
1.65373e-05
4.2672e-05
8.63591e-06
4.42972e-06
-3.05256e-06
-2.87896e-05
-1.60735e-05
-4.62812e-05
-2.53507e-05
-4.83514e-05
-2.80325e-05
-4.56138e-05
-2.6822e-05
-4.24806e-05
-2.48641e-05
-4.07232e-05
-2.2688e-05
-2.33316e-05
-3.97018e-05
2.606e-05
0.000274699
-0.000234725
-8.60637e-05
-0.00011253
0.000101635
-0.000150996
0.000159
4.60909e-05
-4.66e-05
-2.79047e-06
8.29661e-05
6.58872e-06
-9.22504e-05
-0.000189577
-4.16248e-05
6.75273e-05
0.000152453
-0.000111904
-9.52848e-05
-3.6483e-05
-8.92715e-05
-9.42165e-05
-1.25987e-05
9.50119e-05
1.05276e-05
-6.9411e-06
5.08882e-05
9.57623e-06
4.09816e-05
3.64698e-06
2.48889e-05
-1.22756e-05
1.41875e-05
-3.09886e-05
6.59396e-07
-5.14919e-05
-9.49282e-06
-6.89268e-05
-1.60098e-05
-8.23238e-05
-1.84307e-05
-9.02144e-05
-1.72016e-05
-9.20029e-05
-1.31402e-05
-8.97362e-05
-6.89932e-06
-8.52977e-05
3.3793e-07
-7.99294e-05
7.55748e-06
-7.46484e-05
1.43632e-05
-6.94767e-05
1.94858e-05
-6.48167e-05
2.31076e-05
-6.06614e-05
2.47928e-05
-5.78691e-05
2.47157e-05
-5.72706e-05
2.29124e-05
-5.86166e-05
1.91837e-05
-6.21782e-05
1.40991e-05
-6.72489e-05
6.39911e-06
-7.35574e-05
-2.99705e-07
-7.95108e-05
-7.44894e-06
-8.37642e-05
-1.34041e-05
-8.65236e-05
-1.65851e-05
-8.80124e-05
-1.88748e-05
-8.87536e-05
-2.13246e-05
-9.04104e-05
-2.35484e-05
-2.85645e-05
-9.06714e-05
-9.99807e-05
-9.97261e-05
0.000107447
-6.37721e-05
-0.000141006
0.000132691
6.0088e-05
0.000105915
6.87019e-06
-0.000123903
0.000100082
4.86376e-06
9.5378e-05
2.07081e-06
9.12956e-05
-3.54198e-06
8.85595e-05
-1.08472e-05
8.64203e-05
-1.69292e-05
8.3604e-05
-2.17061e-05
7.82128e-05
-2.53525e-05
7.0874e-05
-2.69792e-05
6.33027e-05
-2.66081e-05
5.56482e-05
-2.45031e-05
5.01407e-05
-2.19987e-05
4.7909e-05
-1.86844e-05
4.9398e-05
-1.46342e-05
5.4777e-05
-1.06358e-05
6.34403e-05
-6.73963e-06
7.39185e-05
-2.89532e-06
8.54486e-05
1.00216e-06
9.73245e-05
4.98277e-06
0.000108391
9.45618e-06
0.000118369
1.41535e-05
0.000124301
1.85724e-05
0.000124278
2.17392e-05
0.000115313
2.27855e-05
9.62537e-05
2.03898e-05
6.83165e-05
1.57549e-05
3.0608e-05
6.84566e-06
-7.17639e-06
-4.94571e-06
-3.8016e-05
-1.69076e-05
-4.84744e-05
-2.36318e-05
-4.69377e-05
-2.46492e-05
-4.34433e-05
-2.27696e-05
-4.0846e-05
-2.06213e-05
-3.99824e-05
-1.787e-05
-3.91951e-05
-1.78795e-05
2.13996e-05
-1.4642e-05
-3.846e-05
2.77141e-05
-3.8728e-05
3.36218e-05
-3.65027e-05
3.92135e-05
-3.27637e-05
4.4727e-05
-2.91866e-05
4.89999e-05
-2.50753e-05
5.17879e-05
-2.00886e-05
5.28557e-05
-1.58192e-05
-1.27131e-05
5.22293e-05
-0.000152084
-4.60293e-05
5.55901e-05
-9.92304e-06
1.70723e-05
-0.000198854
0.000184177
-0.00011465
7.68216e-05
-9.28117e-05
0.000129786
-0.000141566
-9.02086e-05
0.000120915
0.000128836
-0.000141065
-4.4794e-05
5.83648e-05
0.000141369
-9.2145e-05
-2.68e-05
-3.29916e-05
-9.63223e-05
-9.01624e-05
-0.000107786
9.57647e-05
-0.000114441
-7.76427e-05
4.69668e-05
-0.00013924
7.892e-05
-9.29731e-05
0.000160811
7.22443e-05
9.53995e-05
0.000105043
-0.000114528
5.85538e-06
9.52635e-05
4.92961e-06
8.9664e-05
-6.00143e-08
8.62713e-05
-5.91577e-06
8.43707e-05
-1.34643e-05
8.30975e-05
-1.99249e-05
8.10761e-05
-2.49399e-05
7.7338e-05
-2.85286e-05
7.1809e-05
-3.00726e-05
6.51576e-05
-2.95339e-05
5.86744e-05
-2.70165e-05
5.36809e-05
-2.32714e-05
5.17477e-05
-1.8551e-05
5.33367e-05
-1.31633e-05
5.85964e-05
-8.06427e-06
6.73342e-05
-3.44803e-06
7.79871e-05
6.1432e-07
8.9822e-05
4.2652e-06
0.00010158
8.1969e-06
0.000112721
1.215e-05
0.000121822
1.61662e-05
0.000126758
1.97908e-05
0.000124489
2.23107e-05
0.000112882
2.20005e-05
9.06066e-05
1.95864e-05
5.88969e-05
1.45309e-05
1.88907e-05
4.96665e-06
-1.91333e-05
-6.07127e-06
-4.42171e-05
-1.62209e-05
-4.89169e-05
-2.06857e-05
-4.51243e-05
-2.05251e-05
-4.07461e-05
-1.85457e-05
-3.85223e-05
-1.61222e-05
-3.81815e-05
-1.29499e-05
-3.73319e-05
-1.24171e-05
-3.58925e-05
-8.06771e-06
1.40949e-05
-1.07365e-05
-1.43415e-05
2.13435e-05
-2.34541e-05
3.12266e-05
-2.83667e-05
4.2867e-05
-2.91821e-05
5.39092e-05
-2.56541e-05
6.51628e-05
-2.28063e-05
7.36081e-05
-1.7557e-05
7.41736e-05
-7.41015e-06
6.64488e-05
-1.28086e-06
5.60864e-05
-1.0382e-06
9.7823e-06
-3.69977e-06
4.63536e-05
7.44e-07
5.67428e-05
1.96891e-06
3.55844e-05
-4.91585e-06
4.02283e-05
-1.14202e-05
1.7669e-05
-2.52798e-05
6.89891e-06
-4.15666e-05
-5.17149e-06
-5.81796e-05
-1.35728e-05
-7.14784e-05
-1.83976e-05
-8.16112e-05
-1.92682e-05
-8.60412e-05
-1.71956e-05
-8.57348e-05
-1.24953e-05
-8.23004e-05
-6.19961e-06
-7.77483e-05
8.77698e-07
-7.31571e-05
7.56297e-06
-6.89824e-05
1.37605e-05
-6.54605e-05
1.84787e-05
-6.26556e-05
2.17312e-05
-6.06815e-05
2.29047e-05
-6.00899e-05
2.2214e-05
-6.14754e-05
1.94867e-05
-6.45654e-05
1.51729e-05
-6.9504e-05
1.00279e-05
-7.48581e-05
2.32679e-06
-8.05222e-05
-2.94387e-06
-8.46949e-05
-9.49544e-06
-8.73149e-05
-1.4312e-05
-8.84635e-05
-1.63868e-05
-8.86956e-05
-1.75255e-05
-8.92898e-05
-1.86134e-05
-2.05488e-05
-9.02533e-05
-0.000102977
-0.00010476
0.000106203
-3.00486e-05
-9.57546e-05
-0.000113428
-3.16088e-05
4.52449e-05
-3.20129e-06
-9.00036e-05
-0.000115548
0.000127125
-0.000119196
-8.77567e-05
0.000118273
-8.60215e-05
-8.35811e-05
0.00010017
-0.00012617
-7.77772e-05
0.000128502
6.25875e-06
9.90727e-06
0.000114694
2.70403e-06
-0.000121878
0.000100621
8.37023e-06
9.01111e-05
5.44633e-06
8.32748e-05
-5.1185e-07
8.03776e-05
-7.4204e-06
7.92692e-05
-1.46665e-05
7.91876e-05
-2.12666e-05
7.83494e-05
-2.60951e-05
7.63572e-05
-3.00233e-05
7.26905e-05
-3.18152e-05
6.77672e-05
-3.13934e-05
6.26113e-05
-2.88708e-05
5.85255e-05
-2.43952e-05
5.6942e-05
-1.87225e-05
5.83533e-05
-1.23367e-05
6.3181e-05
-6.26095e-06
7.13976e-05
-8.20209e-07
8.17935e-05
3.71144e-06
9.34608e-05
7.24922e-06
0.000105358
1.0984e-05
0.000116403
1.43685e-05
0.000124945
1.75949e-05
0.000128583
2.02868e-05
0.000124531
2.17057e-05
0.000109319
2.09527e-05
8.45741e-05
1.83485e-05
4.98017e-05
1.23251e-05
8.17194e-06
3.2982e-06
-2.88193e-05
-6.55755e-06
-4.8053e-05
-1.46039e-05
-4.85235e-05
-1.68345e-05
-4.25896e-05
-1.61515e-05
-3.77103e-05
-1.34711e-05
-3.55242e-05
-1.09221e-05
-3.53553e-05
-7.42483e-06
-3.45705e-05
-6.26058e-06
-3.2738e-05
-1.40701e-06
-8.25367e-06
-8.21326e-06
1.72312e-06
-6.02049e-06
6.89077e-06
1.18405e-05
-1.19258e-05
2.30452e-05
-2.40359e-05
3.04683e-05
-2.75053e-05
3.58685e-05
-2.797e-05
4.08878e-05
-2.63035e-05
4.45359e-05
-2.42122e-05
4.84685e-05
-1.97094e-05
5.58467e-05
-1.21258e-05
6.21663e-05
-2.97338e-06
6.67495e-05
-4.91429e-06
7.23126e-05
-1.609e-05
4.5217e-06
-2.23763e-05
7.84526e-05
3.79843e-06
3.67418e-05
-5.91232e-06
6.18734e-05
-1.04957e-05
2.54037e-05
-1.67862e-05
3.22859e-05
-2.52911e-05
1.1408e-05
-3.71217e-05
4.39316e-07
-5.05372e-05
-1.03214e-05
-6.30995e-05
-1.67951e-05
-7.33201e-05
-1.99808e-05
-7.95353e-05
-1.98602e-05
-8.13482e-05
-1.66738e-05
-7.9416e-05
-1.17179e-05
-7.53755e-05
-5.69413e-06
-7.07515e-05
5.81846e-07
-6.69122e-05
6.51587e-06
-6.39422e-05
1.17127e-05
-6.22026e-05
1.58878e-05
-6.11527e-05
1.83414e-05
-6.12123e-05
1.91447e-05
-6.27747e-05
1.80578e-05
-6.61138e-05
1.51091e-05
-7.07473e-05
1.08406e-05
-7.60468e-05
5.94543e-06
-8.20348e-05
-1.50808e-07
-8.63419e-05
-4.91895e-06
-8.94291e-05
-9.8264e-06
-9.02473e-05
-1.37361e-05
-8.95975e-05
-1.45212e-05
-8.84831e-05
-1.46909e-05
-8.80396e-05
-1.48132e-05
-1.57566e-05
-8.95086e-05
-9.21696e-05
-2.3619e-05
-9.79367e-05
-0.000113125
-0.000106777
-0.000107635
0.000109867
6.74553e-05
0.000177111
-0.000179814
-6.91875e-05
-9.42405e-05
-2.78628e-05
-0.000119332
-6.64836e-05
3.73132e-05
-0.000126415
-8.13587e-05
-0.000124906
-8.99219e-05
-1.63982e-05
-1.96866e-05
-8.06865e-05
-4.10459e-05
-9.31077e-05
3.96502e-06
-9.84385e-05
-3.08034e-05
-9.39849e-05
-0.000114894
-0.000115032
-9.70401e-05
9.67486e-06
-2.43869e-05
3.54105e-05
-1.35143e-06
2.94641e-05
-1.75528e-07
1.29842e-05
1.64564e-05
-3.04997e-06
3.9897e-05
-1.02147e-05
5.6504e-05
-9.49178e-06
6.88171e-05
-1.18107e-05
7.69767e-05
-9.50341e-06
7.72055e-05
4.43635e-06
6.60049e-05
1.90699e-05
4.86038e-05
1.73821e-05
3.10069e-05
-8.71349e-07
2.8767e-05
-2.73846e-05
1.28138e-05
2.4457e-05
-1.9157e-05
-7.76003e-06
8.61454e-05
-1.21695e-05
2.65199e-05
-1.73561e-05
5.57454e-05
-2.4974e-05
1.92538e-05
-2.97936e-05
2.01232e-05
-3.79539e-05
3.69293e-06
-4.76645e-05
-5.88626e-06
-5.76653e-05
-1.48662e-05
-6.66075e-05
-1.91299e-05
-7.34704e-05
-2.09291e-05
-7.68216e-05
-1.94808e-05
-7.6384e-05
-1.58143e-05
-7.33908e-05
-1.06878e-05
-6.90242e-05
-5.27915e-06
-6.46941e-05
-4.50504e-08
-6.15866e-05
4.80671e-06
-5.99025e-05
8.80075e-06
-5.94078e-05
1.17789e-05
-6.01878e-05
1.36032e-05
-6.2167e-05
1.38974e-05
-6.56679e-05
1.26973e-05
-7.05341e-05
1.00623e-05
-7.62684e-05
6.4645e-06
-8.20718e-05
2.45424e-06
-8.70108e-05
-2.44911e-06
-9.13647e-05
-4.7257e-06
-9.24927e-05
-9.28581e-06
-9.24668e-05
-1.08576e-05
-8.98065e-05
-1.16946e-05
-8.74419e-05
-1.09256e-05
-8.65339e-05
-9.98457e-06
-9.65961e-06
-8.86766e-05
-1.92039e-05
-9.20805e-05
8.19348e-05
-8.74388e-05
-9.26443e-05
-9.06479e-05
-0.000121592
8.5061e-05
-3.82338e-05
3.86757e-05
-9.1659e-05
0.000195926
-6.15543e-06
-0.000204726
1.30397e-08
9.45732e-05
1.02042e-05
-0.000109121
8.41682e-05
5.4262e-06
7.74376e-05
-7.80325e-07
7.43327e-05
-7.56063e-06
7.37139e-05
-1.43969e-05
7.45317e-05
-2.09648e-05
7.52543e-05
-2.57013e-05
7.50667e-05
-2.98874e-05
7.33951e-05
-3.20634e-05
7.04473e-05
-3.20514e-05
6.69491e-05
-2.97231e-05
6.42452e-05
-2.53311e-05
6.31718e-05
-1.91839e-05
6.44656e-05
-1.23106e-05
6.84634e-05
-5.242e-06
7.57189e-05
7.89417e-07
8.55537e-05
5.79545e-06
9.67074e-05
9.78519e-06
0.000108512
1.31849e-05
0.000119335
1.60982e-05
0.000127272
1.85221e-05
0.000129594
2.02651e-05
0.000123302
2.07162e-05
0.000105482
1.92642e-05
7.9149e-05
1.59817e-05
4.09245e-05
1.01452e-05
-7.36305e-07
1.76107e-06
-3.6182e-05
-6.77269e-06
-5.01756e-05
-1.2173e-05
-4.70228e-05
-1.2792e-05
-3.99562e-05
-1.109e-05
-3.43248e-05
-7.79519e-06
-3.16927e-05
-5.0706e-06
-3.15141e-05
-9.89364e-07
-3.07729e-05
7.21465e-07
-2.90064e-05
5.70178e-06
-5.52959e-06
-4.04177e-06
-6.75546e-06
1.53178e-05
3.27346e-05
-3.73507e-05
-0.000106185
-0.000112449
0.000114054
-0.000104168
-0.000114573
0.000230258
-1.56297e-06
1.38579e-05
-0.000252381
-8.34065e-05
-3.42174e-05
-8.42913e-05
-9.54228e-05
-3.08676e-05
-1.92093e-05
2.28343e-05
8.23093e-06
-2.41275e-05
7.75468e-05
-3.07647e-05
1.67947e-05
-3.07386e-05
3.92416e-05
-3.82268e-05
1.16556e-05
-4.26425e-05
7.51188e-06
-4.92746e-05
-4.83924e-06
-5.61862e-05
-1.22603e-05
-6.28214e-05
-1.84759e-05
-6.8443e-05
-2.09366e-05
-7.21439e-05
-2.08717e-05
-7.31148e-05
-1.83002e-05
-7.15002e-05
-1.41941e-05
-6.78656e-05
-9.44187e-06
-6.36305e-05
-4.69205e-06
-5.99005e-05
-5.50895e-07
-5.74685e-05
2.76801e-06
-5.67459e-05
5.34424e-06
-5.75803e-05
7.07267e-06
-5.97008e-05
7.91859e-06
-6.32539e-05
7.82481e-06
-6.82166e-05
6.70324e-06
-7.4188e-05
4.751e-06
-8.06675e-05
2.2632e-06
-8.67213e-05
-4.25562e-07
-9.21807e-05
-3.08325e-06
-9.42561e-05
-4.91733e-06
-9.43605e-05
-7.30151e-06
-9.26103e-05
-7.27011e-06
-8.92887e-05
-7.29872e-06
-8.60563e-05
-6.5167e-06
-8.43376e-05
-5.12579e-06
-8.68346e-05
-3.2095e-06
-1.32465e-05
-9.2907e-05
9.47411e-05
-8.05431e-05
6.19468e-05
-0.000124133
-7.8601e-05
3.50111e-06
-6.47077e-06
8.69389e-05
-1.21278e-05
0.000101538
-2.23783e-05
9.358e-05
3.35593e-06
4.05089e-05
2.47855e-05
4.4703e-06
3.36675e-05
-7.40506e-06
4.41704e-05
-1.13555e-05
5.41328e-05
-1.4037e-05
6.48707e-05
-1.17501e-05
7.50048e-05
-8.83435e-08
7.33358e-05
2.76952e-05
6.60453e-05
2.96666e-05
7.63621e-05
-1.02551e-05
8.60806e-05
-3.94772e-05
0.000102457
-4.00707e-05
0.000123139
-3.85157e-06
0.000103748
-8.98697e-05
-0.000106304
0.000130135
-9.45811e-05
0.000128425
-8.79614e-05
0.000124538
-8.05319e-05
-7.40321e-05
-8.85917e-05
6.43995e-05
8.94403e-05
-4.70594e-05
-0.000119794
-9.07361e-05
8.70585e-05
-8.409e-06
1.14849e-05
-4.11057e-05
-8.94525e-05
8.23734e-05
8.83065e-05
9.19025e-06
-0.000100874
7.82248e-05
4.61032e-06
7.13698e-05
-7.91698e-07
6.80832e-05
-6.85315e-06
6.80318e-05
-1.32208e-05
6.94657e-05
-1.91633e-05
7.17436e-05
-2.42609e-05
7.32686e-05
-2.83536e-05
7.36119e-05
-3.09409e-05
7.27809e-05
-3.13939e-05
7.13648e-05
-2.96156e-05
7.01556e-05
-2.56006e-05
6.99101e-05
-1.97418e-05
7.09478e-05
-1.25483e-05
7.43406e-05
-5.19448e-06
8.05357e-05
1.28896e-06
8.91795e-05
6.94857e-06
9.97167e-05
1.13451e-05
0.00011105
1.47146e-05
0.000121446
1.72646e-05
0.00012863
1.90139e-05
0.000129632
1.98415e-05
0.000121297
1.93393e-05
0.000101567
1.7154e-05
7.2897e-05
1.34813e-05
3.27623e-05
7.54471e-06
-8.54913e-06
1.94657e-07
-4.12444e-05
-6.60238e-06
-5.04001e-05
-9.628e-06
-4.50681e-05
-8.33622e-06
-3.70499e-05
-5.63107e-06
-3.07256e-05
-1.79132e-06
-2.79956e-05
1.57187e-06
-2.76712e-05
6.14648e-06
-2.70205e-05
8.43701e-06
-2.51844e-05
1.30595e-05
-7.09935e-06
4.2506e-06
-1.18899e-05
2.31794e-05
2.23515e-05
-4.00969e-05
4.2407e-05
1.47647e-05
1.21812e-05
0.000218557
-1.06137e-05
-2.66509e-05
-9.31141e-05
-7.61296e-05
4.60522e-05
-0.000103221
-0.000119526
0.000120504
-9.4559e-05
-0.000127299
-0.00011168
-0.000111082
-0.000251561
-1.92139e-05
0.000254798
0.000247882
2.741e-06
-0.000246843
9.54281e-05
-3.04192e-05
-0.000101895
8.85113e-07
-0.000100119
8.95477e-05
5.14742e-05
-5.9215e-05
-4.64361e-05
-0.000153224
5.69923e-05
4.50947e-05
-7.29694e-05
-9.25116e-05
0.000115655
-5.32003e-07
-0.000242794
-2.15331e-05
0.000240214
-5.73305e-05
9.46871e-05
7.68846e-05
-5.446e-05
-6.11281e-06
-3.92611e-05
4.77171e-05
-4.54247e-05
6.26315e-06
-4.31671e-05
1.78425e-05
-4.91699e-05
3.9843e-07
-5.29579e-05
-4.74751e-06
-5.75829e-05
-1.3335e-05
-6.18612e-05
-1.7801e-05
-6.5512e-05
-2.14066e-05
-6.82044e-05
-2.15523e-05
-6.93685e-05
-1.99126e-05
-6.87616e-05
-1.63411e-05
-6.64068e-05
-1.20558e-05
-6.29295e-05
-7.69492e-06
-5.91429e-05
-3.89488e-06
-5.61417e-05
-9.77103e-07
-5.46205e-05
8.82239e-07
-5.47361e-05
1.90546e-06
-5.63946e-05
2.25177e-06
-5.95191e-05
2.15391e-06
-6.40099e-05
1.61171e-06
-6.98791e-05
7.65941e-07
-7.65801e-05
-3.11473e-07
-8.34423e-05
-1.56943e-06
-8.95143e-05
-2.77138e-06
-9.40421e-05
-3.51788e-06
-9.62485e-05
-3.42544e-06
-9.54937e-05
-4.52835e-06
-9.24868e-05
-3.39856e-06
-8.80625e-05
-2.88782e-06
-8.45912e-05
-1.79754e-06
-8.3015e-05
-8.68718e-08
-8.4466e-05
1.57066e-06
6.02437e-06
-8.98951e-05
9.66811e-05
-7.8289e-05
-0.000159175
0.000146991
-7.10158e-05
9.54687e-05
-6.33771e-05
-0.000179777
7.30285e-05
-0.000114701
5.63382e-05
4.34543e-05
9.14267e-05
1.71925e-05
0.000111016
-1.01942e-05
0.000110194
-4.05588e-05
6.67299e-05
-2.2526e-05
8.76572e-06
7.99488e-06
-9.39337e-07
2.36179e-05
1.84118e-05
3.40303e-05
1.74264e-05
5.03755e-05
4.96551e-06
5.7292e-05
1.54975e-05
5.47186e-05
4.37221e-05
4.61005e-05
5.05281e-05
1.78795e-05
2.48724e-05
-5.41785e-06
-1.33671e-05
-1.09716e-05
-3.52841e-05
-3.0324e-05
8.82411e-06
-4.8223e-05
0.000100729
-8.12427e-05
0.000132338
-8.83971e-05
0.000128478
-8.10758e-05
0.000122339
-7.46869e-05
0.000110926
-6.55333e-05
-7.31213e-05
9.98635e-05
5.79094e-06
-1.32018e-05
0.000108432
-0.000131152
9.70308e-05
1.33206e-05
-0.000107501
-1.6191e-05
8.37068e-05
8.82171e-06
7.27289e-05
4.29092e-06
6.54203e-05
-5.6178e-07
6.21353e-05
-5.8407e-06
6.23357e-05
-1.14721e-05
6.47264e-05
-1.68106e-05
6.78772e-05
-2.1723e-05
7.091e-05
-2.57443e-05
7.30561e-05
-2.85453e-05
7.44168e-05
-2.94826e-05
7.51393e-05
-2.83559e-05
7.57417e-05
-2.50163e-05
7.62969e-05
-1.97403e-05
7.75776e-05
-1.30352e-05
8.04545e-05
-5.792e-06
8.5555e-05
9.10936e-07
9.30301e-05
7.01177e-06
0.000102559
1.18442e-05
0.000113066
1.53975e-05
0.000122706
1.77631e-05
0.000128929
1.89925e-05
0.000128551
1.90209e-05
0.000118332
1.76504e-05
9.72752e-05
1.48398e-05
6.65867e-05
1.0789e-05
2.52267e-05
4.89709e-06
-1.52424e-05
-1.38942e-06
-4.40076e-05
-6.20962e-06
-4.93281e-05
-6.88259e-06
-4.23688e-05
-4.01309e-06
-3.3559e-05
-4.82958e-07
-2.69828e-05
4.16135e-06
-2.38527e-05
7.88523e-06
-2.33324e-05
1.30706e-05
-2.30169e-05
1.61031e-05
-2.15679e-05
2.08073e-05
-1.17918e-05
1.73886e-05
-1.52984e-05
2.82878e-05
6.69452e-06
-2.37736e-05
2.05904e-06
3.36877e-05
3.00397e-06
-0.000122589
0.000109285
-9.0777e-05
-0.000112696
-2.62697e-05
-9.36795e-05
9.58235e-05
-0.000119159
-0.000123479
0.000120778
-9.39399e-05
9.63654e-05
-0.000124172
-9.55016e-05
9.85362e-05
-9.82167e-05
-0.000124044
-9.491e-05
-3.03413e-05
-0.000134471
-0.000117314
-0.000107658
-0.000122482
-0.000109501
0.000217484
-0.000233953
-7.51277e-06
0.000124652
-8.91738e-05
7.44165e-05
-0.000105839
-0.000214282
0.000186362
-2.42642e-05
8.93187e-05
-4.13306e-05
8.27315e-05
7.4512e-06
-6.5412e-05
9.76792e-05
6.00495e-05
0.000239652
-0.000249157
1.39144e-05
1.61023e-05
0.000225311
8.2303e-05
5.22082e-06
8.09825e-05
5.15572e-06
8.29363e-05
3.84224e-06
8.64674e-05
2.38635e-06
9.13801e-05
9.53612e-07
9.50896e-05
-1.60961e-08
9.56897e-05
-1.06239e-06
9.46724e-05
-2.28883e-06
9.04113e-05
-3.29289e-06
8.4104e-05
-4.12998e-06
7.70246e-05
-4.53846e-06
7.01038e-05
-4.55146e-06
6.4008e-05
-4.28922e-06
5.91593e-05
-3.6957e-06
5.56664e-05
-2.81653e-06
5.34555e-05
-1.78225e-06
5.26554e-05
-8.95139e-07
5.32787e-05
-5.11657e-07
5.53104e-05
-1.07718e-06
5.82088e-05
-2.78969e-06
6.11763e-05
-5.68999e-06
6.36006e-05
-9.56411e-06
6.50858e-05
-1.38385e-05
6.55276e-05
-1.79728e-05
6.51507e-05
-2.1006e-05
6.39776e-05
-2.29028e-05
6.21712e-05
-2.21605e-05
5.94468e-05
-2.05108e-05
5.66966e-05
-1.53805e-05
5.28889e-05
-1.17724e-05
5.45825e-05
-1.82923e-06
5.12271e-05
-6.91461e-06
6.96925e-05
1.33738e-05
7.57124e-05
-2.50728e-05
0.000129172
1.14289e-05
0.000143758
-7.88969e-05
1.41314e-05
0.000208381
-1.50863e-05
9.80844e-05
-4.46041e-05
-4.36769e-05
0.000129336
-4.58523e-06
6.7146e-05
8.98012e-05
-3.14208e-05
0.000149434
-0.000122705
0.00016804
-0.000115532
6.29246e-05
-5.41487e-05
-1.11049e-05
-6.52263e-06
2.02947e-06
2.48349e-05
3.91378e-05
4.42457e-05
4.11058e-05
6.17608e-05
1.72359e-05
8.43123e-05
1.74163e-05
9.84939e-05
5.25086e-05
8.2407e-05
7.93965e-05
8.20659e-05
3.25872e-05
9.60282e-05
-2.41298e-05
0.000113525
-5.96364e-05
0.000149475
-3.84895e-05
0.000118319
0.000118343
1.21216e-05
0.000232259
0.00010696
-8.0827e-05
-3.53136e-05
-9.28964e-05
-9.17665e-05
0.00011595
9.40079e-05
5.48376e-05
0.000275768
-0.000225865
-0.000119267
3.53222e-05
-0.000243444
2.33472e-05
-0.000249224
1.96262e-05
-0.000253324
0.000247643
1.61552e-05
-0.000252169
0.00023618
1.59567e-05
0.000224353
1.77156e-05
-2.33726e-05
3.44995e-05
0.000203673
9.73664e-05
-6.06929e-05
9.43605e-06
0.000187387
-0.000197597
-1.09265e-05
7.39251e-05
0.000121802
-6.89601e-05
5.76325e-05
0.000125966
-0.000138501
-3.96319e-05
0.00013268
-0.000126244
-9.04517e-05
0.000122775
-0.000127499
-9.14109e-05
-9.24264e-05
-0.000127543
-3.25198e-05
-9.53316e-05
0.000109259
-9.01408e-05
-0.00011417
2.16188e-07
5.79794e-06
0.000137171
-6.99346e-05
0.00013032
-6.84088e-05
0.000122356
-6.39427e-05
0.000119749
-6.25473e-05
-6.33994e-05
0.000108495
-0.000101467
0.000138212
5.43053e-05
7.16898e-05
-4.40911e-05
-9.85667e-05
7.04081e-05
0.000104965
2.16405e-05
-2.31172e-05
-0.000115041
9.19501e-05
1.27766e-05
7.88258e-05
8.1024e-06
6.74959e-05
3.9708e-06
5.9835e-05
-2.11544e-07
5.6417e-05
-4.62365e-06
5.6766e-05
-9.51011e-06
5.97037e-05
-1.41939e-05
6.35103e-05
-1.85228e-05
6.78703e-05
-2.23437e-05
7.16499e-05
-2.50762e-05
7.49333e-05
-2.63851e-05
7.76823e-05
-2.58837e-05
7.99994e-05
-2.33841e-05
8.18372e-05
-1.90367e-05
8.36742e-05
-1.32062e-05
8.62689e-05
-6.54794e-06
9.04949e-05
1.56957e-07
9.67709e-05
6.24339e-06
0.000105023
1.13368e-05
0.000114331
1.51589e-05
0.000122865
1.74495e-05
0.000127897
1.8305e-05
0.000126104
1.77594e-05
0.000114192
1.56724e-05
9.21996e-05
1.24367e-05
5.97879e-05
8.03922e-06
1.81236e-05
2.34773e-06
-2.09303e-05
-2.84845e-06
-4.51872e-05
-5.8044e-06
-4.72266e-05
-4.29248e-06
-3.91877e-05
-2.84972e-07
-3.01359e-05
4.0956e-06
-2.31707e-05
9.00286e-06
-1.9534e-05
1.28884e-05
-1.82975e-05
1.84724e-05
-1.77574e-05
2.25381e-05
-1.63448e-05
2.79257e-05
-1.13206e-05
3.15107e-05
-1.35657e-05
3.33932e-05
-1.23813e-07
6.21882e-06
-1.05746e-05
3.81304e-05
-1.55258e-05
-0.000107041
-2.58391e-05
-7.88811e-06
0.000125615
7.99733e-05
-0.000128087
0.000120704
7.9942e-05
-7.1794e-05
8.02171e-05
0.000111401
-0.000172896
1.20869e-05
0.000174041
-1.34048e-05
0.000106419
-5.59152e-05
-3.1762e-05
-9.4135e-05
1.24612e-06
0.0002088
-4.29727e-06
7.94614e-05
9.2606e-05
-6.61972e-05
2.41742e-05
0.000186668
-3.54271e-05
-0.000188999
-0.000116935
-0.000114298
-0.000127442
-0.000102109
-0.000121797
8.58162e-05
-0.000127802
0.000122467
0.000127428
-8.52397e-05
-0.000130469
0.000123072
0.000205777
-0.000129904
0.000196224
1.18206e-05
-7.05535e-06
-0.000234077
4.69134e-05
0.000209938
0.000118011
-0.000110802
-0.000133793
-0.00012539
-5.48583e-05
0.000126338
-5.83821e-05
-0.000246032
1.83717e-05
-0.000255481
1.51758e-05
-0.000257996
9.70751e-06
7.9245e-05
6.43732e-06
7.86637e-05
6.85783e-06
8.06935e-05
6.57403e-06
8.42258e-05
5.56197e-06
8.88973e-05
4.30123e-06
9.2599e-05
2.8477e-06
9.38106e-05
1.49288e-06
9.24694e-05
-8.27571e-07
8.8133e-05
-2.57637e-06
8.19162e-05
-4.69672e-06
7.48657e-05
-6.27657e-06
6.82437e-05
-7.43984e-06
6.24648e-05
-7.74755e-06
5.79355e-05
-7.37026e-06
5.45796e-05
-6.2061e-06
5.22464e-05
-4.50381e-06
5.09351e-05
-2.67478e-06
5.07289e-05
-1.22358e-06
5.15724e-05
-7.49952e-07
5.3285e-05
-1.5047e-06
5.53238e-05
-3.60089e-06
5.73067e-05
-6.94796e-06
5.90443e-05
-1.10303e-05
6.04486e-05
-1.54034e-05
6.15613e-05
-1.92911e-05
6.22256e-05
-2.27368e-05
6.2425e-05
-2.44244e-05
6.16362e-05
-2.53767e-05
6.02856e-05
-2.34818e-05
5.79932e-05
-2.21008e-05
5.82656e-05
-1.73238e-05
5.65529e-05
-2.05247e-05
6.95966e-05
-1.5273e-05
7.56328e-05
-4.50014e-05
0.000117427
-4.42846e-05
0.000140795
-0.000120384
0.000215564
-7.9757e-05
-0.000121839
-5.4765e-05
0.000114933
-0.000127187
-5.36953e-05
-0.000131682
-5.35734e-05
-0.000138887
-5.31362e-05
-0.000146711
-5.22656e-05
-0.000156414
-5.06294e-05
-0.000108395
8.24522e-05
8.28792e-05
-6.53901e-05
0.000102066
-9.02289e-05
8.35061e-05
-8.8706e-05
0.000117263
8.50877e-05
0.000115793
-1.32688e-05
0.000197909
1.0008e-05
1.3076e-05
0.000193893
7.48209e-05
-0.000137359
-6.05237e-05
-8.48207e-05
-0.000131989
0.000100821
-4.54389e-05
3.33446e-05
-9.58966e-05
6.08281e-06
-0.000118519
2.07591e-06
-0.000109051
0.00011089
-8.76441e-05
4.12557e-05
-2.16962e-05
-0.000243057
0.000212216