/*--------------------------------*- C++ -*----------------------------------*\
| =========                 |                                                 |
| \\      /  F ield         | OpenFOAM: The Open Source CFD Toolbox           |
|  \\    /   O peration     | Version:  2212                                  |
|   \\  /    A nd           | Website:  www.openfoam.com                      |
|    \\/     M anipulation  |                                                 |
\*---------------------------------------------------------------------------*/
FoamFile
{
    version     2.0;
    format      ascii;
    arch        "LSB;label=32;scalar=64";
    class       volScalarField;
    location    "0.00021";
    object      p;
}
// * * * * * * * * * * * * * * * * * * * * * * * * * * * * * * * * * * * * * //

dimensions      [1 -1 -2 0 0 0 0];

internalField   nonuniform List<scalar> 
25920
(
96.461
97.4818
96.9326
96.221
95.3311
94.1961
92.99
91.7888
90.6617
89.5404
88.3633
87.0156
85.6521
84.448
83.2441
82.9261
82.9523
83.2107
83.8424
85.2387
87.9118
92.337
98.9626
107.295
117.032
127.209
138.412
151.143
165.783
181.616
198.671
216.577
233.235
249.224
259.459
265.729
268.887
269.676
268.485
266.37
263.719
259.81
253.767
246.549
238.478
233.309
211.701
90.2372
91.0601
90.6596
89.9949
89.1622
88.1076
86.961
85.8211
84.7489
83.6976
82.6008
81.3538
80.0672
78.9176
78.1355
77.712
77.6751
77.8288
78.2944
79.4736
81.955
85.9447
91.9451
99.4988
108.46
117.867
127.928
139.407
152.625
166.935
182.467
198.453
214.112
230.24
243.66
249.32
249.374
248.848
247.143
244.829
242.371
239.235
234.898
229.699
223.845
220.614
210.611
89.1828
89.9964
89.6512
88.9948
88.1717
87.1304
85.9866
84.8503
83.7733
82.7129
81.5998
80.3354
79.054
77.9101
77.3643
76.8896
76.8079
76.9267
77.3418
78.4259
80.7966
84.6324
90.4306
97.76
106.527
115.748
125.447
136.517
149.267
163.026
178.186
193.671
209.114
225.2
240.068
246.468
245.062
244.18
242.395
240.007
237.479
234.465
230.694
226.227
221.104
218
210.273
88.9157
89.7675
89.4392
88.7838
87.9633
86.9247
85.7788
84.6365
83.5502
82.4784
81.3539
80.0628
78.7866
77.6438
77.1998
76.7047
76.6067
76.715
77.1143
78.1585
80.4661
84.2474
89.9677
97.2151
105.919
115.064
124.625
135.514
148.047
161.548
176.559
191.977
207.368
223.395
238.634
245.809
243.716
242.779
240.991
238.591
236.023
233.002
229.444
225.35
220.633
217.558
212.385
89.9948
90.5217
90.2865
89.6333
88.8056
87.7866
86.7075
85.593
84.5069
83.4229
82.2691
80.9466
79.5989
78.3606
77.2207
76.6927
76.5994
76.7063
77.1108
78.1471
80.4433
84.2197
89.9345
97.177
105.869
114.989
124.534
135.351
147.777
161.194
176.172
191.643
207.042
223.12
238.416
245.972
243.402
242.48
240.692
238.278
235.693
232.647
229.109
225.138
220.567
217.525
213.885
92.1573
93.074
92.693
91.8149
90.885
89.7587
88.5786
87.4626
86.4182
85.3518
84.2301
82.9723
81.7123
80.567
79.7115
79.1062
78.8986
78.9733
79.2626
79.9721
81.4616
84.6947
90.308
97.4531
106.04
115.188
124.654
135.444
147.828
161.241
176.211
191.749
207.141
225.113
239.18
246.855
243.677
242.471
241.325
238.952
236.106
232.784
229.091
225.248
221.903
218.834
215.053
95.8553
96.3202
95.9359
95.1255
94.1895
93.0072
91.7962
90.5973
89.4211
88.1885
86.8691
85.3879
83.9446
82.6563
81.5811
80.8494
80.6416
80.7232
81.0587
81.8752
83.7139
87.376
92.9824
100.054
108.576
117.716
127.532
138.216
150.562
164.026
178.621
194.548
211.289
228.154
239.977
247.633
249.768
248.782
247.356
244.546
241.53
237.74
233.286
228.583
224.061
220.552
216.524
98.5317
99.2636
98.7863
97.8735
96.8325
95.5483
94.1887
92.8882
91.6834
90.4743
89.1897
87.7404
86.3094
85.0189
83.9741
83.2617
82.9891
83.1012
83.4444
84.1962
85.7722
88.9329
94.4491
101.76
110.42
119.694
129.426
140.344
152.805
166.443
181.502
198.06
214.239
229.921
241.772
251.489
252.725
251.976
250.665
248.089
245.13
241.388
237.005
232.132
227.16
223.03
218.474
102.026
102.672
102.191
101.238
100.146
98.8093
97.4475
96.0575
94.7007
93.3108
91.8473
90.2115
88.6131
87.1803
86.0155
85.2041
84.9196
85.0208
85.3953
86.2053
88.0074
91.5403
97.1456
104.556
113.068
122.307
132.306
143.134
155.639
169.323
184.499
201.367
217.979
230.871
243.35
254.019
257.557
257.022
255.275
252.561
249.573
245.838
241.263
236.163
230.725
226.113
220.963
104.961
105.549
105.083
104.129
103.024
101.657
100.214
98.8035
97.457
96.0684
94.5728
92.8739
91.1945
89.6702
88.4101
87.4727
87.0816
87.1529
87.4845
88.2547
89.833
93.1845
98.85
106.188
115.055
124.415
134.272
145.435
158.05
171.788
186.842
203.81
219.722
232.452
246.76
258.023
260.278
260.656
259.002
256.28
253.37
249.805
245.35
240.212
234.576
229.586
223.871
107.859
108.44
108.013
107.055
105.945
104.564
103.137
101.689
100.272
98.7994
97.2133
95.4068
93.6098
91.9561
90.5832
89.5452
89.0752
89.1061
89.3981
90.1885
91.9301
95.4706
101.211
108.886
117.687
127.113
137.003
147.912
160.293
174.392
189.643
206.295
222.098
234.008
248.874
260.332
264.337
264.694
263.256
260.568
257.532
253.897
249.483
244.306
238.439
233.191
226.969
111.192
111.724
111.301
110.321
109.207
107.821
106.369
104.947
103.56
102.087
100.481
98.6087
96.7111
94.942
93.4248
92.1907
91.4853
91.443
91.6331
92.294
93.8243
97.208
103.123
110.685
119.569
129.068
139.083
150.066
162.842
176.549
191.654
208.489
223.558
236.504
253.649
264.244
267.444
268.349
267.263
264.598
261.621
258.093
253.749
248.658
242.638
237.149
230.375
114.565
115.238
114.81
113.814
112.685
111.277
109.8
108.336
106.911
105.415
103.793
101.878
99.9106
98.0468
96.4326
95.098
94.1973
94.0706
94.1976
94.7725
96.2907
99.59
105.456
113.279
122.486
132.268
142.431
153.472
166.039
179.958
195.189
211.818
226.215
239.99
258.043
268.28
271.845
272.351
271.789
269.268
266.226
262.631
258.328
253.269
247.144
241.479
234.125
118.965
119.659
119.192
118.125
116.927
115.444
113.888
112.37
110.901
109.345
107.647
105.652
103.603
101.648
99.937
98.4781
97.3654
97.0788
97.162
97.5714
98.8459
101.825
107.637
115.278
124.608
134.705
144.966
156.027
168.556
182.451
197.506
213.855
228.705
243.868
262.755
272.473
275.029
276.09
275.859
273.427
270.533
267.044
262.85
257.957
251.862
246.1
238.166
123.188
123.98
123.424
122.256
120.95
119.369
117.706
116.102
114.567
112.963
111.249
109.212
107.104
105.085
103.316
101.795
100.609
100.176
100.256
100.649
101.824
104.485
109.856
117.618
127.219
137.723
148.32
159.386
172.149
185.985
200.887
217.008
231.679
247.694
266.928
277.287
280.217
280.433
280.401
278.135
275.156
271.593
267.442
262.689
256.664
250.966
242.543
128.239
128.858
128.303
127.021
125.599
123.87
122.054
120.327
118.684
116.954
115.101
112.939
110.751
108.681
106.868
105.291
104.035
103.487
103.561
103.906
104.968
107.632
112.953
120.428
129.779
140.221
151.023
162.306
175.056
189.022
203.91
219.986
235.005
251.871
271.878
282.03
283.837
284.391
284.238
282.313
279.5
275.976
271.916
267.402
261.444
255.915
247.213
133.577
133.758
133.157
131.831
130.366
128.529
126.615
124.718
122.881
121.011
119.032
116.733
114.424
112.263
110.398
108.797
107.512
106.924
107.047
107.434
108.454
110.861
115.833
123.283
132.677
143.223
154.138
165.633
178.696
192.613
207.349
223.388
238.644
255.881
276.144
287.122
289.318
289.082
288.532
286.755
284.032
280.484
276.412
272.068
266.158
260.804
251.976
138.947
139.142
138.456
136.991
135.381
133.409
131.344
129.349
127.446
125.455
123.343
120.884
118.425
116.136
114.161
112.455
111.091
110.48
110.637
111.093
112.164
114.684
119.796
127.524
136.419
146.638
157.647
169.293
182.212
196.313
211.28
227.535
243.139
260.172
278.273
290.444
293.449
293.939
292.96
291.126
288.491
285.038
280.99
276.742
271.016
265.774
256.854
144.162
144.496
143.796
142.3
140.649
138.589
136.439
134.314
132.274
130.139
127.862
125.224
122.61
120.195
118.118
116.321
114.862
114.203
114.371
114.891
115.986
118.477
123.57
131.051
140.388
150.512
161.313
173.014
186.097
200.178
215.204
231.788
247.791
264.546
283.082
294.184
298.939
299.705
298.823
296.272
293.384
289.846
285.755
281.555
276.039
270.938
261.97
149.57
150.074
149.312
147.675
145.879
143.707
141.471
139.248
137.124
134.902
132.537
129.76
126.984
124.408
122.186
120.246
118.676
117.892
118.064
118.652
119.852
122.479
127.547
135.138
144.633
155.033
165.684
177.263
190.159
204.31
219.516
236.312
252.557
269.559
290.921
300.105
303.075
304.038
303.772
301.166
298.166
294.58
290.519
286.365
281.118
276.187
267.161
154.705
155.229
154.392
152.803
151.038
148.839
146.549
144.256
142.06
139.76
137.308
134.418
131.518
128.81
126.456
124.38
122.656
121.671
121.82
122.383
123.602
126.29
131.701
139.145
148.95
159.55
170.187
181.454
194.189
208.228
223.494
240.465
257.271
276.157
297.873
309.664
309.314
309.391
309.225
306.476
303.248
299.493
295.353
291.204
286.25
281.539
272.395
159.612
160.223
159.359
157.673
155.81
153.549
151.207
148.873
146.643
144.298
141.788
138.808
135.814
133.007
130.553
128.359
126.505
125.339
125.44
125.938
127.158
129.907
135.039
142.744
152.772
163.948
174.982
185.997
198.29
212.302
227.542
244.663
262.101
282.496
300.854
313.392
314.839
314.889
314.721
311.849
308.448
304.509
300.295
296.156
291.443
287.069
277.866
164.553
165.149
164.27
162.605
160.764
158.478
156.082
153.706
151.441
149.059
146.519
143.48
140.411
137.51
134.949
132.631
130.642
129.269
129.322
129.71
130.861
133.599
138.981
146.815
157.091
168.58
179.46
190.58
202.626
216.425
231.551
248.872
267.02
287.396
302.38
315.523
322.386
321.75
320.617
317.68
314.051
309.824
305.448
301.265
296.734
292.69
283.579
169.685
170.304
169.369
167.61
165.677
163.329
160.879
158.462
156.164
153.738
151.15
148.062
144.948
141.983
139.346
136.939
134.843
133.275
133.295
133.58
134.647
137.277
142.435
150.165
160.654
172.935
184.26
195.519
207.463
221.099
236.064
253.288
271.841
290.835
303.869
318.896
326.852
327.994
326.657
323.49
319.713
315.275
310.675
306.397
301.96
298.193
289.266
175.28
175.98
175.028
173.251
171.285
168.83
166.275
163.752
161.36
158.838
156.169
152.983
149.786
146.743
144.024
141.514
139.302
137.581
137.512
137.755
138.76
141.293
146.469
154.466
164.928
177.241
188.888
200.398
212.412
225.995
241.069
258.127
276.866
294.208
307.522
325.661
333.277
334.542
333.076
329.743
325.75
321.094
316.204
311.692
307.257
303.631
294.895
181.411
182.024
180.941
179.043
176.969
174.414
171.794
169.192
166.725
164.108
161.338
158.041
154.747
151.593
148.769
146.154
143.828
141.985
141.77
142.028
143.04
145.498
150.452
158.137
168.88
181.54
193.573
205.427
217.729
231.393
246.438
263.251
281.926
298.662
313.685
332.258
338.737
340.539
339.842
336.352
332.135
327.281
322.102
317.276
312.78
309.196
300.709
187.7
188.33
187.234
185.276
183.11
180.426
177.685
174.935
172.326
169.565
166.658
163.211
159.794
156.541
153.627
150.909
148.477
146.515
146.209
146.477
147.454
149.877
154.769
162.862
173.486
186.009
198.101
210.325
223.006
236.939
252.096
268.671
287.222
304.211
322.609
340.795
346.642
347.211
346.729
343.262
338.941
333.894
328.443
323.237
318.583
314.985
306.812
193.915
194.405
193.311
191.281
189.071
186.314
183.539
180.716
178.019
175.136
172.101
168.509
164.951
161.557
158.517
155.679
153.127
151.048
150.665
150.936
151.911
154.304
159.036
166.883
177.831
190.445
202.698
215.171
228.167
242.337
257.598
274.095
292.552
310.177
332.126
352.976
353.786
354.262
353.58
350.154
345.822
340.606
334.926
329.39
324.477
320.79
312.993
200.134
200.521
199.458
197.371
195.109
192.284
189.453
186.54
183.738
180.719
177.533
173.773
170.066
166.542
163.384
160.422
157.743
155.538
155.097
155.337
156.282
158.662
163.585
171.714
182.621
195.057
207.482
220.012
233.07
247.37
262.798
279.423
298.062
316.925
342.859
358.518
362.831
362.207
360.823
357.297
352.957
347.613
341.693
335.783
330.443
326.536
319.059
206.462
206.758
205.749
203.641
201.36
198.51
195.65
192.695
189.825
186.694
183.37
179.437
175.549
171.853
168.541
165.427
162.601
160.267
159.695
159.922
160.818
163.103
167.942
175.985
187.241
199.889
212.354
225.045
238.184
252.476
267.963
284.722
303.644
323.849
350.713
362.318
370.46
370.422
368.624
364.785
360.243
354.79
348.675
342.393
336.583
332.28
324.972
213.434
213.634
212.576
210.366
208
205.064
202.108
199.078
196.137
192.915
189.483
185.41
181.364
177.493
174.013
170.726
167.729
165.231
164.45
164.657
165.497
167.676
172.433
180.575
191.842
204.764
217.557
230.189
243.362
257.657
273.22
290.243
309.337
330.464
355.759
366.626
379.877
379.708
377.385
373.107
368.051
362.329
356.041
349.41
343.07
338.246
330.916
221.143
221.219
220.116
217.802
215.318
212.262
209.168
206.027
202.98
199.637
196.078
191.853
187.649
183.614
179.971
176.509
173.33
170.649
169.583
169.751
170.488
172.456
176.901
184.835
196.132
209.475
222.759
235.671
249.136
263.382
279.021
296.048
314.954
335.717
359.461
371.833
387.97
388.478
386.276
382.001
376.455
370.191
363.611
356.649
349.807
344.459
336.959
230.211
230.09
228.797
226.23
223.492
220.16
216.847
213.514
210.314
206.823
203.121
198.739
194.379
190.17
186.361
182.722
179.355
176.447
175.057
175.182
175.792
177.536
181.654
189.464
200.63
214.231
228.034
241.525
255.309
269.596
285.359
302.312
320.816
340.891
364.531
378.92
396.391
396.58
394.491
390.462
384.86
378.173
371.204
363.825
356.456
350.608
342.813
240.675
240.337
238.778
235.904
232.799
229.048
225.399
221.733
218.256
214.507
210.559
205.925
201.35
196.951
192.976
189.167
185.621
182.487
180.72
180.806
181.305
182.807
186.486
194.034
205.265
219.109
233.432
247.633
261.826
276.191
291.879
308.877
327.113
346.815
370.532
388.054
402.844
403.618
402.154
398.348
392.812
385.945
378.611
370.782
362.783
356.412
348.187
252.19
251.665
249.714
246.439
242.893
238.661
234.612
230.554
226.731
222.644
218.355
213.37
208.497
203.844
199.672
195.684
191.958
188.592
186.423
186.472
186.868
188.218
191.592
198.717
209.921
224.1
239.043
253.991
268.539
282.938
298.793
315.795
333.716
353.248
376.866
397.48
410.969
411.402
410.058
406.345
400.761
393.712
386.064
377.853
369.248
362.233
353.457
264.395
263.749
261.511
257.893
253.926
249.231
244.717
240.229
236.011
231.525
226.82
221.393
216.132
211.152
206.721
202.507
198.575
194.975
192.444
192.441
192.761
194.015
197.248
203.831
215.114
229.59
245.214
260.813
275.554
290.162
306.047
323.127
340.998
360.681
384.158
405.745
418.509
419.255
418.183
414.565
408.994
401.86
393.875
385.279
376.112
368.524
359.056
276.447
275.77
273.31
269.447
265.208
260.218
255.351
250.508
245.934
241.053
235.906
229.968
224.223
218.814
214.043
209.542
205.363
201.521
198.699
198.524
198.844
200.074
203.16
209.615
220.953
235.732
251.92
267.939
282.797
297.593
313.382
330.546
348.511
368.246
391.259
412.699
426.515
427.274
426.154
422.384
416.912
409.823
401.718
392.846
383.038
374.929
364.752
288.046
287.441
284.807
280.794
276.354
271.147
266.009
260.898
256.061
250.866
245.34
238.904
232.637
226.737
221.544
216.665
212.143
207.995
204.86
204.511
204.827
206.086
209.178
215.54
226.772
242.031
258.693
274.934
289.959
305.059
320.708
337.871
356.133
375.758
398.401
421.227
433.831
434.758
434.404
430.48
424.765
417.678
409.622
400.581
390.249
381.458
370.478
299.156
298.699
295.824
291.748
287.204
281.906
276.628
271.366
266.353
260.918
255.071
248.184
241.403
235
229.345
224.026
219.081
214.548
211.054
210.446
210.798
212.141
215.346
221.953
233.153
248.608
265.513
281.795
296.973
312.302
327.866
345.079
363.725
383.114
406.131
430.519
442.231
443.883
443.122
438.833
433.074
426.078
417.903
408.704
398.138
388.656
376.731
310.485
310.172
306.962
302.809
298.113
292.701
287.295
281.945
276.841
271.289
265.253
258.044
250.83
243.953
237.815
232.002
226.549
221.508
217.605
216.545
216.936
218.44
221.78
228.268
239.584
255.267
272.286
288.678
304.159
319.723
335.342
352.515
371.352
391.12
414.885
440.895
452.416
453.485
453.077
448.329
442.142
435.019
426.898
417.721
407.09
397.068
384.031
322.659
322.454
318.81
314.535
309.606
304.043
298.438
292.951
287.717
282.058
275.891
268.463
260.918
253.645
247.073
240.791
234.823
229.234
224.77
223.123
223.545
225.117
228.469
235.007
246.311
262.154
279.351
295.961
311.599
327.243
343.132
360.109
379.234
399.44
423.66
449.255
460.979
462.671
462.674
457.91
451.536
444.343
436.195
427.136
416.669
406.426
392.302
335.208
334.952
330.845
326.371
321.118
315.323
309.422
303.74
298.335
292.553
286.282
278.696
270.914
263.333
256.409
249.729
243.304
237.181
232.155
229.788
230.22
231.784
235.007
241.224
252.569
268.679
286.149
303.133
319.016
334.301
350.575
367.628
386.943
407.617
431.709
456.668
469.76
473.591
473.127
468.029
461.001
453.681
445.492
436.631
426.495
416.37
401.356
346.815
346.216
341.912
337.191
331.633
325.57
319.379
313.486
307.894
301.947
295.565
287.878
279.999
272.267
265.14
258.202
251.449
244.9
239.37
236.345
236.604
237.898
240.901
246.922
258.148
274.496
292.328
309.742
325.729
340.971
357.374
374.655
394.02
414.751
438.157
462.915
479.258
484.844
483.55
478.284
470.876
463.073
454.823
446.08
436.386
426.802
411.227
358.222
357.124
352.755
347.761
341.935
335.557
329.098
322.967
317.154
310.913
304.358
296.559
288.637
280.823
273.591
266.489
259.528
252.691
246.764
243.148
243.208
244.113
246.748
252.425
263.274
280.081
298.477
316.404
332.603
347.793
364.238
381.69
400.835
421.397
445.353
470.142
489.095
495.423
493.24
488.198
480.613
472.426
463.982
455.293
445.949
437.174
421.479
370.505
368.813
364.488
359.216
353.125
346.338
339.545
333.095
326.984
320.373
313.489
305.412
297.352
289.439
282.128
274.921
267.839
260.811
254.567
250.407
250.294
250.81
252.95
258.139
268.609
285.973
304.971
323.433
339.896
355.225
371.53
389.009
407.886
428.038
452.273
479.957
499.419
504.885
502.101
497.509
490.184
481.759
472.84
464.123
454.79
446.721
431.144
384.813
382.747
378.238
372.62
366.139
358.855
351.571
344.655
338.096
330.974
323.574
314.967
306.524
298.368
290.901
283.563
276.366
269.194
262.708
258.108
257.659
258.108
259.917
264.531
274.474
292.497
312.103
330.837
347.629
363.247
379.505
396.92
415.505
435.126
459.507
487.284
508.32
513.647
511.01
506.733
499.658
491.24
482.037
472.858
463.137
455.477
440.11
401.463
399.158
394.395
388.414
381.461
373.567
365.682
358.15
351.016
343.269
335.184
325.825
316.733
308.115
300.342
292.771
285.402
278.075
271.39
266.43
265.559
265.946
267.585
271.794
281.16
299.503
319.511
338.672
355.911
371.988
388.241
405.436
424
443.275
467.502
497.006
518.891
524.241
521.293
516.906
510.05
501.593
492.078
482.348
472.004
464.441
449.069
419.872
417.487
412.451
406.153
398.794
390.353
381.918
373.755
366.018
357.626
348.804
338.547
328.582
319.24
310.93
302.931
295.237
287.666
280.805
275.633
274.433
274.821
276.388
280.388
289.314
307.525
327.765
347.294
365.044
381.616
398.173
415.339
433.61
452.869
477.024
506.4
528.687
533.92
531.77
527.675
521.23
512.909
503.194
492.947
481.865
474.232
458.622
439.885
437.395
432.173
425.575
417.879
408.967
400.057
391.337
383.085
374.116
364.639
353.465
342.524
332.262
323.197
314.542
306.298
298.277
291.12
285.673
284.268
284.683
286.244
290.161
298.775
316.333
336.684
356.569
374.765
391.822
408.835
426.345
444.389
463.803
487.71
517.19
540.574
546.576
543.94
539.181
533.209
524.925
515.218
504.575
492.608
484.673
468.833
460.985
458.512
452.992
446.09
438.034
428.732
419.345
410.172
401.521
392.113
382.108
370.091
358.175
346.895
336.911
327.396
318.362
309.609
301.895
296.055
294.392
294.907
296.709
300.727
309.213
326.323
346.497
366.496
384.996
402.414
419.726
437.59
455.936
475.356
498.805
526.461
548.762
556.337
554.626
551.057
545.294
537.205
527.6
516.751
504.036
495.405
479.284
483.24
480.753
474.8
467.459
458.908
449.264
439.376
429.839
420.87
411.126
400.734
388.004
375.232
362.989
352.051
341.568
331.54
321.755
313.148
306.682
304.562
305.123
307.084
311.236
319.81
336.779
356.582
376.508
395.226
412.869
430.255
448.428
467.18
486.816
510.108
536.486
560.293
569.248
567.368
564.999
558.311
549.922
540.306
529.413
516.166
506.65
489.926
506.583
504.148
497.529
489.627
480.387
470.284
459.74
449.822
440.55
430.519
419.802
406.476
393.005
379.966
368.188
356.783
345.702
334.683
324.877
317.468
314.496
315.096
317.273
321.501
330.41
347.286
366.832
386.716
405.721
423.374
440.688
458.879
477.987
497.718
520.892
547.28
569.97
577.358
577.889
577.297
571.5
563.032
553.328
542.493
529.185
518.749
501.144
531.688
529.305
521.802
513.22
503.166
492.506
481.258
470.913
461.287
450.932
439.877
426.008
411.915
398.219
385.757
373.554
361.476
349.154
337.925
329.235
324.921
325.462
327.462
331.669
341.236
357.597
377.488
397.622
416.915
434.393
451.584
469.647
488.755
508.941
532.3
560.387
584.182
591.032
591.235
590.936
586.303
577.662
567.723
556.989
543.94
532.761
514.185
558.59
556.169
547.789
538.519
527.544
516.162
504.088
493.205
483.136
472.399
460.957
446.604
431.961
417.758
404.832
392.058
379.218
365.765
353.088
342.878
336.806
336.852
338.251
342.423
352.268
368.473
389.041
409.949
429.83
446.681
463.732
481.538
500.43
521.016
544.741
575.37
593.548
602.865
606.341
606.731
602.253
593.62
583.439
572.832
560.135
548.81
529.446
587.391
584.809
575.588
565.66
553.813
541.65
528.73
517.258
506.66
495.403
483.38
468.372
452.998
438.22
424.902
411.713
398.364
384.09
370.21
358.569
350.603
349.544
350.139
353.814
363.642
379.803
401.22
423.164
443.593
460.334
477.201
494.881
513.232
533.68
557.45
587.858
606.665
620.301
623.952
622.844
618.591
610
599.595
589.058
576.739
565.702
545.845
619.548
616.863
606.671
596.052
583.217
570.085
556.076
543.787
532.472
520.569
507.853
492.02
475.675
460.134
446.315
432.727
418.987
404.124
389.32
376.377
366.818
363.594
363.822
366.857
376.149
392.123
414.252
437.559
458.276
475.275
491.908
509.525
527.687
547.665
570.874
599.578
622.566
635.676
639.696
639.213
635.163
626.804
616.24
605.582
593.603
582.966
562.789
656.168
653.637
642.361
631.102
617.225
603.018
587.766
574.388
562.058
549.247
535.56
518.539
500.867
484.21
469.577
455.429
441.231
425.868
410.408
396.553
385.762
380.008
379.74
382.452
390.826
405.978
428.264
452.55
474.168
491.683
508.292
525.933
544.163
564.1
586.606
614.05
636.808
652.202
655.506
656.299
652.474
644.72
634.055
623.068
611.291
600.987
580.518
694.77
692.425
680.178
668.361
653.533
638.333
621.914
607.352
593.904
580.154
565.51
547.297
528.29
510.321
494.622
479.669
464.792
448.827
432.788
418.269
406.633
398.981
397.62
400.412
407.562
421.29
442.961
467.82
489.976
508.603
525.814
543.747
562.191
582.359
604.394
630.956
649.856
668.889
674.532
675.566
671.177
663.437
652.949
641.703
629.989
619.95
599.477
730.83
728.214
715.731
703.537
688.193
672.284
655.057
639.506
625.072
610.385
594.782
575.475
555.369
536.182
519.469
503.603
487.931
471.274
454.689
439.708
427.535
419.026
416.45
419.195
425.039
437.364
456.962
481.985
504.811
524.236
542.344
560.981
579.889
600.389
622.565
649.746
674.271
687.808
691.814
693.714
689.484
681.859
671.894
660.686
649
639.153
619.398
763.361
760.459
748.088
735.734
720.244
704.013
686.433
670.235
655.13
639.582
623.133
602.809
581.809
561.771
544.109
527.195
510.65
493.189
475.953
460.519
447.902
438.898
436.1
438.035
442.991
453.485
471.4
495.953
519.119
538.861
557.448
576.793
596.252
617.335
640.192
667.705
696.337
709.762
712.889
713.193
708.142
699.922
690.337
679.436
667.821
658.123
639.481
794.82
791.755
779.562
767.137
751.63
735.236
717.454
700.842
685.238
668.979
651.745
630.518
608.705
587.762
569.304
551.421
533.923
515.486
497.391
481.285
468.236
458.914
455.692
457.32
461.768
470.709
487.308
510.647
534.078
553.792
572.396
591.96
611.865
633.606
657.197
685.566
709.426
726.154
731.306
732.121
727.178
718.231
708.347
697.776
686.191
676.547
659.042
827.698
824.309
812.275
799.737
784.26
767.774
749.898
732.959
716.993
699.972
681.934
659.704
636.973
615.42
596.049
577.153
558.703
539.22
520.051
502.941
488.979
478.801
475.548
477.127
481.089
488.902
504.074
527.311
550.874
570.202
588.454
607.718
627.853
649.706
674.785
704.91
733.145
748.021
753.292
752.764
747.677
737.725
726.95
716.174
704.378
694.449
677.758
864.199
859.975
848.065
835.163
819.51
802.741
784.603
767.288
750.999
733.341
714.583
691.347
667.688
645.126
624.885
604.958
585.473
564.839
544.447
526.048
510.836
499.511
495.81
497.235
501.191
508.51
522.545
546.068
570.676
589.606
606.478
625.009
644.881
666.494
691.98
723.378
756.544
772.808
777.679
775.834
769.735
758.859
746.593
735.143
722.832
712.248
695.911
907.444
902.556
890.039
876.52
860.235
842.862
824.06
806.121
789.326
770.931
751.316
726.848
702.112
678.363
656.973
635.945
615.324
593.426
571.664
551.779
535.047
522.102
517.205
518.398
522.518
529.595
543.251
567.116
592.898
612.506
628.831
645.66
664.522
685.435
709.721
740.841
776.065
792.834
796.827
797.81
793.052
782.519
768.569
755.795
742.419
730.796
714.126
959.271
953.694
940.065
925.49
907.977
889.463
869.351
850.402
832.836
813.596
793.09
767.289
741.326
716.214
693.408
670.974
648.967
625.604
602.331
580.875
562.409
547.851
540.647
541.611
545.798
552.706
566.038
591.053
617.936
638.583
654.701
671.573
688.773
707.835
730.715
760.829
800.147
818.317
820.158
819.741
816.385
808.241
793.433
778.889
763.928
750.955
733.132
1020.09
1013.64
998.469
982.477
963.237
943.114
921.087
900.647
881.888
861.49
839.846
812.566
785.139
758.473
734.232
710.153
686.529
661.412
636.41
613.289
593.132
576.744
567.242
567.879
571.462
578.207
591.745
616.597
643.965
665.905
683.54
700.058
717.652
735.178
756.739
785.54
824.11
844.205
844.584
844.729
840.357
834.679
820.505
804.841
788.014
773.445
753.722
1088.36
1081
1064.25
1046.54
1025.24
1003.05
978.717
956.343
935.998
914.155
891.126
862.169
833.068
804.72
778.951
753.155
727.801
700.679
673.671
648.633
626.728
608.463
596.869
597.358
599.831
606.093
619.835
643.846
671.377
694.23
713.451
731.25
749.062
766.637
787.098
813.305
847.664
864.849
872.752
875.274
872.197
863.21
849.449
833.149
814.625
798.413
776.533
1159.95
1151.94
1133.88
1114.78
1091.66
1067.43
1040.81
1016.23
993.953
970.341
945.552
914.476
883.426
853.253
825.837
798.476
771.503
742.389
713.304
686.189
662.395
642.462
628.731
628.358
629.88
635.808
649.694
672.913
700.815
725.257
745.587
763.667
781.684
799.542
819.749
844.451
874.079
889.197
896.742
900.027
898.942
893.09
879.537
862.96
843.119
825.403
801.267
1230.59
1222.37
1203.4
1183.31
1158.82
1132.97
1104.58
1077.92
1053.82
1028.33
1001.64
968.206
934.803
902.525
873.253
844.226
815.649
784.723
753.728
724.611
698.895
677.167
661.741
658.848
660.207
666.068
679.766
701.596
729.723
756.095
778.339
796.773
814.044
831.637
852.534
877.058
904.927
919.816
927.902
929.667
926.278
921.208
908.698
892.658
872.328
853.577
827.104
1295.67
1287.46
1267.96
1247.51
1222.22
1195.41
1165.83
1137.46
1112.05
1084.77
1056.38
1020.66
984.87
950.307
919.163
888.302
858
825.341
792.643
761.78
734.325
710.839
693.906
688.361
689.611
694.921
708.136
728.356
755.276
782.847
807.014
825.998
843.327
861.078
882.966
909.191
937.695
950.401
958.753
962.487
957.52
948.888
936.711
921.513
901.555
882.411
853.639
1352.82
1344.58
1324.79
1304.35
1278.74
1251.72
1221.79
1192.53
1166.31
1137.64
1107.82
1070.02
1032.27
995.501
962.405
929.655
897.577
863.202
828.936
796.548
767.582
742.641
724.068
715.769
717.189
722.271
734.549
754.392
783.09
810.688
835.243
853.945
870.356
887.567
909.804
937.462
967.899
982.529
992.93
993.693
989.053
977.409
964.332
949.687
930.686
911.915
881.188
1406.69
1397.94
1377.86
1357.54
1331.72
1304.83
1275.07
1245.7
1219.11
1189.51
1158.59
1119.13
1079.76
1040.95
1005.88
971.032
936.996
900.739
864.855
830.971
800.575
774.07
753.836
742.891
744.356
748.826
759.822
778.57
806.188
835.449
860.898
880.387
897.286
914.034
935.729
964.229
998.43
1018.51
1029.41
1028.11
1021.18
1008.8
993.793
979.171
961.286
943.588
911.434
1467.57
1457.64
1436.89
1416.29
1389.83
1362.93
1333.31
1304.05
1277.06
1246.76
1215.07
1174.48
1133.72
1092.91
1055.78
1018.55
982.182
943.571
905.605
869.868
837.756
809.579
787.351
773.758
774.861
778.466
787.014
804.381
832.669
862.28
888.911
909.545
927.628
944.474
965.519
994.564
1032.19
1054.95
1066.09
1064.28
1056.82
1043.4
1026.08
1010.98
994.006
978.361
945.575
1549.61
1537.41
1514.55
1492.35
1463.54
1435.32
1404.41
1374.52
1346.55
1315.38
1282.98
1241.53
1199.3
1156.48
1117.2
1077.35
1038.21
996.496
955.465
916.898
882.333
851.978
827.405
810.977
811.402
813.744
820.396
835.317
864.706
899.757
925.397
944.22
962.808
980.486
1001.81
1030.42
1067.11
1093.87
1104.89
1102.66
1092.98
1078.59
1059.46
1043.24
1025.98
1013.72
981.074
1662.29
1646.88
1619.5
1593.62
1560.01
1528.04
1493.01
1460.26
1430.1
1396.87
1362.84
1319.92
1275.44
1230.47
1189.01
1146.59
1104.47
1059.07
1013.98
971.462
933.322
899.751
872.332
852.839
851.7
853.196
858.804
872.068
898.519
932.669
966.361
987.195
1001.88
1018.91
1040.42
1069.14
1100.23
1127.12
1138.17
1137.44
1129.17
1113.37
1092.9
1075.13
1055.82
1046.33
1014.23
1804.34
1785.19
1751.42
1719.76
1678.98
1640.48
1598.61
1560.38
1526.71
1489.77
1452.47
1406.56
1359.13
1311.65
1267.93
1222.96
1177.92
1128.67
1079.06
1031.88
989.301
951.567
920.609
898.3
892.417
893.732
899.135
912.375
939.561
978.295
1012.82
1025.17
1044.57
1060.29
1080.58
1108.56
1138.34
1163.89
1174.3
1175.71
1168.61
1150.95
1129.3
1109.22
1086.77
1076.96
1045.6
1966.69
1944.12
1904.22
1866.36
1817.82
1771.23
1720.79
1675.43
1635.82
1593.52
1550.82
1499.96
1448.79
1398.21
1351.95
1304.51
1256.8
1204.07
1150.15
1098.16
1050.65
1008.15
972.75
947.25
935.789
937.418
943.095
957.207
985.273
1029.57
1058.56
1077.49
1090.14
1105.98
1125.45
1152.41
1180.17
1207.05
1220.29
1223.45
1211.28
1193.72
1171.05
1148.05
1122.33
1109.18
1078.95
2140
2115.38
2071.35
2028.51
1973.7
1919.63
1861.14
1808.24
1761.08
1711.86
1661.42
1603.61
1546.81
1492.06
1442.49
1392.28
1341.75
1285.93
1228.35
1171.99
1119.61
1072.05
1031.98
1001.5
984.324
985.887
991.739
1005.17
1028.97
1060.44
1085.83
1125.03
1137.13
1153.87
1174.96
1201.05
1230.61
1257.8
1273.12
1276.7
1263.6
1242.95
1218.23
1192.97
1163.78
1145.74
1115.97
2317.53
2291.98
2245.99
2200.48
2142.13
2082.78
2018.73
1959.01
1904.88
1848.27
1788.43
1722.26
1656.94
1596.21
1541.81
1487.67
1433.57
1374.44
1313.6
1253.46
1196.75
1144.4