/*--------------------------------*- C++ -*----------------------------------*\
| =========                 |                                                 |
| \\      /  F ield         | OpenFOAM: The Open Source CFD Toolbox           |
|  \\    /   O peration     | Version:  2212                                  |
|   \\  /    A nd           | Website:  www.openfoam.com                      |
|    \\/     M anipulation  |                                                 |
\*---------------------------------------------------------------------------*/
FoamFile
{
    version     2.0;
    format      ascii;
    arch        "LSB;label=32;scalar=64";
    class       volScalarField;
    location    "8e-05";
    object      nut;
}
// * * * * * * * * * * * * * * * * * * * * * * * * * * * * * * * * * * * * * //

dimensions      [0 2 -1 0 0 0 0];

internalField   nonuniform List<scalar> 
3450
(
0.000694564
0.0121174
0.0518783
0.101848
0.145019
0.178569
0.203547
0.221714
0.234611
0.243387
0.248818
0.251442
0.251919
0.249323
0.24395
0.235232
0.222249
0.203539
0.176791
0.137855
0.0811696
0.0215695
0.00110358
0.000634649
0.00231202
0.00878335
0.0220338
0.0405499
0.060992
0.0806395
0.0978975
0.111945
0.122474
0.129439
0.132894
0.133029
0.129484
0.122457
0.111894
0.0978182
0.0804913
0.0606446
0.0395482
0.0197195
0.00604434
0.000848093
0.000527277
0.00142355
0.00457272
0.0108089
0.0195977
0.0300993
0.0411086
0.0515292
0.0605324
0.0675764
0.0723478
0.0747266
0.0747102
0.0721235
0.0671751
0.0600496
0.0510763
0.040795
0.0299842
0.0194808
0.0102221
0.00351796
0.000700404
0.00046079
0.00111922
0.00320773
0.0070948
0.0125025
0.0186702
0.0250794
0.0311696
0.0364802
0.0406715
0.0435208
0.0449048
0.0448364
0.0432119
0.0401817
0.0359033
0.0306176
0.0246614
0.0184518
0.0123625
0.00672453
0.00251886
0.000599362
0.000412009
0.000912514
0.00246998
0.00515863
0.00869847
0.0127026
0.0166665
0.0203462
0.0235056
0.0259725
0.027633
0.0284226
0.0283347
0.0273539
0.0255483
0.0230072
0.0198594
0.0162761
0.0124625
0.00857908
0.00487516
0.00195219
0.00051065
0.000371244
0.000756003
0.0019508
0.00393234
0.00636213
0.00896157
0.0115139
0.0138056
0.0157318
0.0172127
0.0181976
0.0186598
0.0185947
0.0180038
0.0169176
0.0153818
0.0134591
0.0112322
0.00880221
0.00622835
0.00370533
0.00156812
0.000433262
0.00033808
0.000629246
0.00154019
0.0030021
0.00472825
0.00649101
0.00815835
0.00963256
0.0108509
0.0117779
0.0123912
0.0126786
0.0126511
0.0122893
0.0116197
0.0106622
0.0094449
0.00800634
0.0063841
0.00465973
0.00286696
0.00128012
0.000384552
0.00031264
0.000530993
0.00123184
0.0023271
0.00358124
0.00482507
0.00596835
0.00696346
0.00777975
0.00839975
0.00881328
0.00901533
0.00900532
0.00878352
0.00835609
0.00773181
0.00692261
0.00594332
0.00482989
0.00359281
0.00227008
0.0010587
0.000355377
0.00029467
0.000457912
0.00101086
0.00186211
0.00281469
0.0037388
0.00457343
0.0052909
0.00587705
0.00632357
0.00662537
0.00677959
0.00678501
0.0066416
0.00635077
0.0059153
0.00533963
0.00463311
0.00380711
0.00286858
0.00184139
0.000881868
0.000339096
0.00028299
0.000403766
0.000852718
0.00154646
0.00231021
0.0030395
0.00368931
0.00424192
0.00469278
0.00503701
0.00527196
0.00539588
0.00540752
0.00530604
0.00509106
0.00476273
0.00432182
0.00377124
0.00311693
0.00236109
0.00152239
0.000736679
0.000330756
0.000277436
0.000360077
0.000732832
0.00132053
0.00196412
0.00257142
0.00310577
0.00355744
0.00392359
0.00420264
0.0043935
0.00449511
0.00450632
0.00442592
0.00425255
0.003987
0.00362575
0.00316983
0.00262178
0.00198148
0.00126754
0.000617297
0.000326666
0.000274994
0.000324995
0.000633334
0.00114256
0.00170515
0.00223218
0.00269057
0.00307492
0.00338417
0.00361852
0.00377795
0.00386199
0.00386978
0.00380017
0.0036517
0.00342285
0.00311191
0.00271795
0.00223995
0.00167787
0.00105351
0.00052255
0.000324654
0.000275094
0.000296651
0.000549069
0.000991662
0.00149422
0.00196359
0.0023685
0.00270467
0.0029728
0.00317435
0.00331008
0.00337997
0.00338344
0.00331976
0.00318695
0.00298338
0.00270679
0.00235553
0.0019264
0.00142209
0.000874507
0.00044552
0.000323788
0.000276991
0.000273624
0.000475626
0.000857467
0.00131044
0.00173578
0.0021005
0.00240015
0.00263689
0.00281315
0.00293034
0.00298886
0.00298845
0.00292825
0.00280674
0.0026218
0.00237055
0.00205014
0.00165819
0.00120011
0.00072318
0.00038373
0.000323591
0.000280141
0.000254165
0.000411266
0.000736995
0.00114464
0.0015341
0.0018672
0.0021381
0.00234997
0.00250608
0.00260842
0.00265777
0.00265412
0.00259666
0.00248384
0.00231332
0.00208199
0.00178599
0.00142385
0.00100541
0.000596114
0.000336544
0.000323795
0.000284169
0.000238125
0.000355279
0.000628349
0.000992178
0.00135139
0.00165929
0.00190645
0.00209854
0.00223832
0.00232858
0.00237051
0.00236425
0.00230908
0.00220347
0.00204467
0.00182995
0.00155327
0.00121624
0.000835485
0.000490845
0.000299686
0.000324182
0.000288804
0.000225182
0.000307052
0.000531325
0.000852456
0.00118468
0.00147088
0.00169987
0.00187535
0.00200171
0.00208207
0.00211796
0.00210969
0.00205666
0.00195723
0.00180845
0.0016061
0.00134506
0.00102883
0.000687678
0.000404968
0.000271059
0.000324727
0.00029384
0.000215066
0.00026722
0.000446622
0.000725677
0.00103156
0.00129957
0.00151371
0.00167589
0.00179128
0.00186352
0.00189443
0.00188465
0.00183356
0.00173914
0.0015986
0.00140588
0.00115758
0.000861077
0.000560615
0.000335241
0.000249027
0.000325359
0.000299126
0.000207501
0.000235533
0.000374466
0.000611953
0.000890324
0.00114295
0.00134539
0.00149678
0.00160345
0.00166904
0.00169595
0.00168501
0.00163555
0.00154537
0.00141057
0.00122541
0.000988054
0.000712305
0.000453744
0.000280472
0.000232268
0.000325943
0.000304546
0.000202111
0.000210278
0.000314452
0.000511731
0.000761133
0.000999493
0.00119228
0.00133588
0.00143549
0.00149571
0.00151937
0.00150746
0.00145917
0.00137208
0.00124114
0.00106102
0.000832645
0.000582034
0.000366595
0.000239529
0.000219835
0.000326375
0.000310015
0.000198494
0.000190294
0.000265029
0.000425314
0.000644896
0.000868602
0.001053
0.00119068
0.00128481
0.0013409
0.00136199
0.0013492
0.00130162
0.00121611
0.00108748
0.000911571
0.000693403
0.00047063
0.000297255
0.000208405
0.000210763
0.000326576
0.000315472
0.00019632
0.000174705
0.000225159
0.000351873
0.000541306
0.00074785
0.000925458
0.00105893
0.00114967
0.00120231
0.0012214
0.00120772
0.00116012
0.00107498
0.000947057
0.000774213
0.000570271
0.000377759
0.00024269
0.000184884
0.000204202
0.000326482
0.000320876
0.000195325
0.000162813
0.000193986
0.000291331
0.000450599
0.000637818
0.000808555
0.000938966
0.00102744
0.00107835
0.0010954
0.00108071
0.00103233
0.000946323
0.000818138
0.000649327
0.000463289
0.000302202
0.000200852
0.0001673
0.000199506
0.000326045
0.000326197
0.000195293
0.000153984
0.000170307
0.000242426
0.000373219
0.000539476
0.000702008
0.00082946
0.000916677
0.000966366
0.000982334
0.000966199
0.000916228
0.000828467
0.000700213
0.000538378
0.000372948
0.000242685
0.000170302
0.000154428
0.000196198
0.000325229
0.000331419
0.000196031
0.000147558
0.000151915
0.000203653
0.00030795
0.000452401
0.000603392
0.000728765
0.000815714
0.000865002
0.00088004
0.000862262
0.000809951
0.000719708
0.000591674
0.00044067
0.000298246
0.000197161
0.000147585
0.000145084
0.000193887
0.000323979
0.000336534
0.00019737
0.000143005
0.000137726
0.000172743
0.000254295
0.000376814
0.000514632
0.000636619
0.000723278
0.000772673
0.000786954
0.000767284
0.000712217
0.000619991
0.00049467
0.000356928
0.00023841
0.000161985
0.000130565
0.000138303
0.00019226
0.000322353
0.000341544
0.000199175
0.000139937
0.000126967
0.000148937
0.000211005
0.000312751
0.00043578
0.000552032
0.000638323
0.000688066
0.000701672
0.000679872
0.000621776
0.000527957
0.000408584
0.000287105
0.000191593
0.000135746
0.000117953
0.00013341
0.000191091
0.000320432
0.000346461
0.000201341
0.000138061
0.000119001
0.000131207
0.000177023
0.00025905
0.000366553
0.000474696
0.000559997
0.000610078
0.000623042
0.000599063
0.000538432
0.000445155
0.000334113
0.000230421
0.000155954
0.000116832
0.000108746
0.000129915
0.000190202
0.000318203
0.000351295
0.000203782
0.000137125
0.000113154
0.000117451
0.000150103
0.000215041
0.000306726
0.000405775
0.000488221
0.000538039
0.000550219
0.000524152
0.000461775
0.000371315
0.000271284
0.000185459
0.000128819
0.000102554
0.00010198
0.000127428
0.000189459
0.000315681
0.000356062
0.000206429
0.000136922
0.000108934
0.00010686
0.000128869
0.000179374
0.000255925
0.000344486
0.000422304
0.000471377
0.000482675
0.000454938
0.000392275
0.000306906
0.000219515
0.00015029
0.000108057
9.18025e-05
9.69857e-05
0.00012565
0.000188766
0.000312896
0.000360777
0.000209228
0.00013729
0.000105994
9.88424e-05
0.000112685
0.000151012
0.000213535
0.000290856
0.000362982
0.000409901
0.00042027
0.000391452
0.000330148
0.00025198
0.000177795
0.000123298
9.27311e-05
8.37763e-05
9.32997e-05
0.000124361
0.000188055
0.000309883
0.000365457
0.000212136
0.000138105
0.000104071
9.2883e-05
0.000100536
0.000128718
0.000178742
0.000244728
0.000309931
0.000353887
0.000363047
0.000333925
0.000275681
0.000206215
0.000144766
0.000102786
8.14344e-05
7.78027e-05
9.05788e-05
0.000123401
0.000187284
0.000306681
0.000370121
0.000215124
0.000139266
0.000102936
8.84545e-05
9.09906e-05
0.00011094
0.000150448
0.000205539
0.000263287
0.000303495
0.000311006
0.000282551
0.000228821
0.000168677
0.000118911
8.70069e-05
7.27369e-05
7.3289e-05
8.85507e-05
0.000122648
0.00018643
0.000303333
0.000374791
0.000218168
0.000140692
0.000102415
8.52149e-05
8.35997e-05
9.70174e-05
0.000127689
0.00017295
0.000222517
0.000258708
0.00026461
0.000237543
0.000189307
0.000138419
9.87348e-05
7.48324e-05
6.60498e-05
6.98474e-05
8.70152e-05
0.000122016
0.00018548
0.000299877
0.000379483
0.000221253
0.00014232
0.000102375
8.29161e-05
7.79748e-05
8.64723e-05
0.000109624
0.000146121
0.000188004
0.000219241
0.000223816
0.000198815
0.000156566
0.000114341
8.318e-05
6.57816e-05
6.09447e-05
6.72085e-05
8.58276e-05
0.000121443
0.000184433
0.000296346
0.000384231
0.000224368
0.000144099
0.000102708
8.13536e-05
7.37042e-05
7.82295e-05
9.52479e-05
0.000124214
0.0001589
0.000185336
0.000188619
0.000166068
0.000129816
9.53144e-05
7.11456e-05
5.88064e-05
5.70064e-05
6.51619e-05
8.48802e-05
0.000120888
0.000183293
0.000292765
0.000388963
0.000227497
0.000145986
0.000103326
8.03609e-05
7.04629e-05
7.16807e-05
8.36204e-05
0.000106379
0.000134662
0.000156599
0.000158738
0.00013879
0.000108172
8.02825e-05
6.16844e-05
5.33085e-05
5.39202e-05
6.35459e-05
8.40928e-05
0.000120322
0.000182068
0.000289159
0.000393835
0.000230656
0.000147953
0.00010416
7.98081e-05
6.80277e-05
6.65396e-05
7.45152e-05
9.20146e-05
0.000114702
0.000132556
0.000133725
0.000116336
9.0781e-05
6.84128e-05
5.4229e-05
4.89607e-05
5.14692e-05
6.22407e-05
8.34061e-05
0.000119728
0.000180771
0.000285557
0.000398844
0.000233844
0.00014997
0.000105148
7.95902e-05
6.62287e-05
6.25431e-05
6.75143e-05
8.05348e-05
9.84075e-05
0.000112661
0.00011303
9.80316e-05
7.68894e-05
5.91096e-05
4.85785e-05
4.55307e-05
4.94984e-05
6.1157e-05
8.27761e-05
0.000119097
0.00017942
0.000281992
0.000404032
0.000237065
0.000152007
0.000106237
7.96241e-05
6.49164e-05
5.94018e-05
6.18182e-05
7.12278e-05
8.51288e-05
9.63186e-05
9.60532e-05
8.31983e-05
6.57962e-05
5.17332e-05
4.40268e-05
4.27707e-05
4.78808e-05
6.02256e-05
8.21711e-05
0.000118426
0.000178035
0.000278506
0.00040945
0.000240316
0.000154034
0.00010739
7.98427e-05
6.39749e-05
5.69226e-05
5.72041e-05
6.36236e-05
7.4315e-05
8.29613e-05
8.22056e-05
7.12114e-05
5.69094e-05
4.58114e-05
4.03316e-05
4.05087e-05
4.65178e-05
5.93917e-05
8.15678e-05
0.000117717
0.00017664
0.000275139
0.000415162
0.000243591
0.000156056
0.000108569
8.01854e-05
6.33124e-05
5.4966e-05
5.35028e-05
5.76542e-05
6.5587e-05
7.20963e-05
7.09516e-05
6.1532e-05
4.97589e-05
4.0993e-05
3.73019e-05
3.86173e-05
4.53317e-05
5.86113e-05
8.09485e-05
0.000116976
0.000175264
0.000271935
0.000421241
0.000246911
0.000158047
0.000109737
8.05998e-05
6.28543e-05
5.3418e-05
5.05246e-05
5.28713e-05
5.85295e-05
6.32727e-05
6.1823e-05
5.37226e-05
4.40233e-05
3.71867e-05
3.4806e-05
3.7002e-05
4.42613e-05
5.78478e-05
8.02996e-05
0.000116211
0.000173938
0.000268946
0.000427798
0.000250301
0.000159981
0.000110862
8.10444e-05
6.25428e-05
5.2188e-05
4.81077e-05
4.89291e-05
5.27487e-05
5.60887e-05
5.44151e-05
4.74105e-05
3.93905e-05
3.40774e-05
3.27169e-05
3.55901e-05
4.326e-05
5.70716e-05
7.96088e-05
0.00011543
0.000172698
0.000266243
0.000435003
0.000253775
0.00016183
0.000111915
8.14931e-05
6.23437e-05
5.12142e-05
4.61444e-05
4.56947e-05
4.79917e-05
5.02322e-05
4.83954e-05
4.22903e-05
3.56142e-05
3.1488e-05
3.09418e-05
3.43321e-05
4.22999e-05
5.62663e-05
7.88635e-05
0.000114634
0.000171581
0.000263901
0.000443101
0.000257296
0.000163563
0.000112886
8.19432e-05
6.22658e-05
5.04654e-05
4.45643e-05
4.30773e-05
4.42948e-05
4.54995e-05
4.35035e-05
3.81235e-05
3.25169e-05
2.93308e-05
2.94265e-05
3.3206e-05
4.13808e-05
5.54538e-05
7.80575e-05
0.000113823
0.000170635
0.000262089
0.000452008
0.000260773
0.000165179
0.000113811
8.24239e-05
6.22904e-05
4.99213e-05
4.33123e-05
4.09497e-05
4.12261e-05
4.1633e-05
3.95159e-05
3.4724e-05
2.99575e-05
2.75425e-05
2.81466e-05
3.22186e-05
4.05232e-05
5.46277e-05
7.71978e-05
0.000112991
0.000169897
0.00026087
0.00046228
0.000264119
0.000166778
0.000114811
8.30219e-05
6.24698e-05
4.95936e-05
4.2353e-05
3.92167e-05
3.8693e-05
3.84436e-05
3.62568e-05
3.1964e-05
2.79376e-05
2.60824e-05
2.70982e-05
3.14091e-05
3.98146e-05
5.3878e-05
7.63555e-05
0.000112157
0.000169432
0.000261354
0.00047131
0.00026729
0.000168656
0.000116137
8.39013e-05
6.2902e-05
4.95189e-05
4.16573e-05
3.78432e-05
3.65989e-05
3.58864e-05
3.35898e-05
2.9693e-05
2.62468e-05
2.48767e-05
2.62633e-05
3.08126e-05
3.93525e-05
5.33775e-05
7.57291e-05
0.000111422
0.000169049
0.000262177
0.000479604
0.000270777
0.000171492
0.000118226
8.53126e-05
6.37388e-05
4.9748e-05
4.12587e-05
3.68077e-05
3.49155e-05
3.37284e-05
3.13695e-05
2.78016e-05
2.48243e-05
2.39035e-05
2.56431e-05
3.04984e-05
3.92378e-05
5.33753e-05
7.57024e-05
0.000111218
0.00016897
0.00026602
0.000492714
0.000285647
0.000184771
0.000127335
9.13223e-05
6.76969e-05
5.19639e-05
4.2008e-05
3.62789e-05
3.33646e-05
3.15396e-05
2.90118e-05
2.56967e-05
2.32653e-05
2.30017e-05
2.54121e-05
3.09455e-05
4.05297e-05
5.58412e-05
7.91425e-05
0.000115313
0.000172973
0.000269003
0.000474455
0.000287337
0.000190516
0.000136227
9.97162e-05
7.32442e-05
5.5175e-05
4.35735e-05
3.65135e-05
3.25327e-05
3.00092e-05
2.72741e-05
2.41967e-05
2.22797e-05
2.26376e-05
2.5751e-05
3.19683e-05
4.20037e-05
5.7188e-05
8.0416e-05
0.000115561
0.000168916
0.000249577
0.000458315
0.000284613
0.000192198
0.000138547
0.000102433
7.67531e-05
5.8411e-05
4.56096e-05
3.72693e-05
3.23228e-05
2.91211e-05
2.61607e-05
2.32778e-05
2.17438e-05
2.24991e-05
2.58858e-05
3.22969e-05
4.24799e-05
5.78314e-05
8.0792e-05
0.00011481
0.000165349
0.000241033
0.000445963
0.000280679
0.00019177
0.000139331
0.000103747
7.8057e-05
5.95375e-05
4.65226e-05
3.78298e-05
3.22166e-05
2.85394e-05
2.54517e-05
2.27378e-05
2.14623e-05
2.24402e-05
2.59739e-05
3.24901e-05
4.27782e-05
5.81812e-05
8.0862e-05
0.000114175
0.000163572
0.000238277
0.000438523
0.000277075
0.000190433
0.000139102
0.000104033
7.85305e-05
6.00395e-05
4.69363e-05
3.80088e-05
3.21534e-05
2.81885e-05
2.50007e-05
2.2415e-05
2.13311e-05
2.24687e-05
2.61442e-05
3.27542e-05
4.30795e-05
5.84437e-05
8.08986e-05
0.000113995
0.000163396
0.000239013
0.000435211
0.000274402
0.000188867
0.000138348
0.000103896
7.87025e-05
6.03442e-05
4.72618e-05
3.82102e-05
3.21221e-05
2.79464e-05
2.47054e-05
2.22324e-05
2.12855e-05
2.25246e-05
2.62743e-05
3.29377e-05
4.32804e-05
5.8578e-05
8.10405e-05
0.000114301
0.000164345
0.000241585
0.000434358
0.00027275
0.000187432
0.000137361
0.000103413
7.85783e-05
6.04486e-05
4.74037e-05
3.82751e-05
3.20559e-05
2.77571e-05
2.45022e-05
2.21292e-05
2.12843e-05
2.25836e-05
2.63661e-05
3.30486e-05
4.34066e-05
5.87062e-05
8.13422e-05
0.000115041
0.000166094
0.000245376
0.000435067
0.000271966
0.000186269
0.000136318
0.000102679
7.81697e-05
6.02436e-05
4.73117e-05
3.82036e-05
3.19416e-05
2.75917e-05
2.43549e-05
2.20718e-05
2.1307e-05
2.26419e-05
2.64372e-05
3.31354e-05
4.35096e-05
5.89065e-05
8.1814e-05
0.000116126
0.000168393
0.000249949
0.000436967
0.000271907
0.000185438
0.000135328
0.000101766
7.75407e-05
5.98218e-05
4.70453e-05
3.80226e-05
3.1787e-05
2.74437e-05
2.425e-05
2.20481e-05
2.13449e-05
2.27008e-05
2.64981e-05
3.32091e-05
4.36018e-05
5.9185e-05
8.24541e-05
0.000117477
0.000171067
0.000255034
0.000439771
0.000272442
0.000184945
0.000134476
0.000100877
7.68084e-05
5.92718e-05
4.66677e-05
3.77728e-05
3.1616e-05
2.73247e-05
2.41922e-05
2.20619e-05
2.14033e-05
2.27679e-05
2.65617e-05
3.32881e-05
4.37535e-05
5.95544e-05
8.32416e-05
0.000119033
0.000173996
0.000260458
0.000443174
0.000273433
0.000184761
0.000133794
0.000100056
7.60526e-05
5.86693e-05
4.62414e-05
3.75023e-05
3.14641e-05
2.72601e-05
2.42016e-05
2.21311e-05
2.14993e-05
2.28613e-05
2.665e-05
3.34019e-05
4.39727e-05
6.00128e-05
8.41486e-05
0.000120736
0.000177095
0.000266108
0.000447003
0.000274766
0.000184839
0.000133287
9.9334e-05
7.53321e-05
5.80783e-05
4.58261e-05
3.72631e-05
3.13754e-05
2.72871e-05
2.43104e-05
2.22852e-05
2.16598e-05
2.30061e-05
2.67863e-05
3.35679e-05
4.42585e-05
6.0551e-05
8.51485e-05
0.000122542
0.000180307
0.000271916
0.000451125
0.000276354
0.000185135
0.000132951
9.87319e-05
7.46798e-05
5.7554e-05
4.54781e-05
3.71088e-05
3.14001e-05
2.74522e-05
2.45612e-05
2.25626e-05
2.19184e-05
2.32313e-05
2.69986e-05
3.37991e-05
4.46102e-05
6.11582e-05
8.62194e-05
0.00012442
0.000183596
0.000277835
0.000455452
0.000278131
0.000185611
0.000132773
9.82626e-05
7.41447e-05
5.71599e-05
4.52502e-05
3.70931e-05
3.15931e-05
2.78096e-05
2.50054e-05
2.30091e-05
2.23122e-05
2.35626e-05
2.72974e-05
3.41027e-05
4.50263e-05
6.18245e-05
8.7344e-05
0.000126347
0.000186934
0.000283828
0.000459923
0.00028005
0.000186232
0.000132739
9.79317e-05
7.37563e-05
5.68874e-05
4.51795e-05
3.72683e-05
3.20131e-05
2.84206e-05
2.57025e-05
2.36776e-05
2.28839e-05
2.40293e-05
2.76894e-05
3.4483e-05
4.5506e-05
6.25428e-05
8.85107e-05
0.000128308
0.000190304
0.000289872
0.000464503
0.000282078
0.000186975
0.000132833
9.77389e-05
7.35201e-05
5.67798e-05
4.53146e-05
3.76914e-05
3.27253e-05
2.93548e-05
2.67202e-05
2.46282e-05
2.36834e-05
2.46753e-05
2.82028e-05
3.49524e-05
4.60521e-05
6.33098e-05
8.97127e-05
0.000130292
0.000193695
0.000295954
0.000469172
0.000284198
0.000187821
0.000133047
9.76845e-05
7.34465e-05
5.68684e-05
4.57116e-05
3.84235e-05
3.38016e-05
3.06916e-05
2.81341e-05
2.59218e-05
2.47597e-05
2.55149e-05
2.88595e-05
3.55284e-05
4.66703e-05
6.41251e-05
9.09484e-05
0.000132292
0.000197104
0.000302065
0.000473924
0.000286401
0.000188763
0.000133377
9.77712e-05
7.35467e-05
5.71724e-05
4.63735e-05
3.95214e-05
3.53169e-05
3.24965e-05
3.00369e-05
2.76394e-05
2.61113e-05
2.65712e-05
2.96826e-05
3.62237e-05
4.73684e-05
6.49914e-05
9.22158e-05
0.00013431
0.00020053
0.000308206
0.000478759
0.000288685
0.000189798
0.000133822
9.8005e-05
7.38353e-05
5.77157e-05
4.73277e-05
4.09828e-05
3.72513e-05
3.48985e-05
3.25505e-05
2.99022e-05
2.79256e-05
2.78873e-05
3.07039e-05
3.70571e-05
4.81575e-05
6.59148e-05
9.35173e-05
0.000136351
0.000203978
0.000314381
0.000483683
0.000291053
0.000190929
0.000134387
9.8396e-05
7.43312e-05
5.8531e-05
4.86328e-05
4.28882e-05
3.98701e-05
3.80389e-05
3.58162e-05
3.283e-05
3.02522e-05
2.95836e-05
3.197e-05
3.80532e-05
4.90522e-05
6.69039e-05
9.48579e-05
0.000138418
0.00020745
0.00032059
0.000488698
0.00029351
0.00019216
0.000135081
9.89571e-05
7.50573e-05
5.96559e-05
5.03516e-05
4.53101e-05
4.32376e-05
4.20712e-05
3.99964e-05
3.65668e-05
3.32162e-05
3.17801e-05
3.35149e-05
3.92387e-05
5.00693e-05
6.79699e-05
9.62439e-05
0.000140516
0.00021095
0.000326835
0.000493809
0.000296062
0.000193499
0.000135911
9.97047e-05
7.60405e-05
6.11319e-05
5.25689e-05
4.85516e-05
4.75356e-05
4.71812e-05
4.52784e-05
4.12748e-05
3.69306e-05
3.4499e-05
3.5392e-05
4.06474e-05
5.12287e-05
6.91259e-05
9.76821e-05
0.000142651
0.000214482
0.000333117
0.000499021
0.000298716
0.000194955
0.000136892
0.000100657
7.73124e-05
6.30159e-05
5.53056e-05
5.26368e-05
5.29234e-05
5.35733e-05
5.18762e-05
4.71433e-05
4.15383e-05
3.78366e-05
3.77183e-05
4.23201e-05
5.25521e-05
7.03845e-05
9.91826e-05
0.00014483
0.000218052
0.000339438
0.000504335
0.000301478
0.000196536
0.000138035
0.000101836
7.89083e-05
6.53798e-05
5.88068e-05
5.76757e-05
5.95882e-05
6.14807e-05
6.00334e-05
5.43907e-05
4.721e-05
4.19174e-05
4.05399e-05
4.42882e-05
5.40629e-05
7.17595e-05
0.000100757
0.00014706
0.000221662
0.000345795
0.000509756
0.000304357
0.000198254
0.000139356
0.000103262
8.08628e-05
6.82676e-05
6.31437e-05
6.38536e-05
6.77535e-05
7.11664e-05
7.00229e-05
6.3264e-05
5.41405e-05
4.68791e-05
4.39535e-05
4.65737e-05
5.57893e-05
7.32677e-05
0.000102415
0.000149349
0.000225318
0.000352189
0.000515283
0.000307361
0.000200118
0.000140871
0.000104963
8.32166e-05
7.17021e-05
6.84429e-05
7.13545e-05
7.76652e-05
8.292e-05
8.21446e-05
7.4038e-05
6.25482e-05
5.2868e-05
4.80392e-05
4.93113e-05
5.77727e-05
7.49282e-05
0.000104171
0.000151704
0.000229024
0.000358617
0.000520921
0.000310496
0.000202141
0.000142596
0.000106966
8.60317e-05
7.59075e-05
7.47743e-05
8.03669e-05
8.95917e-05
9.70544e-05
9.67213e-05
8.70136e-05
7.26796e-05
6.00542e-05
5.28756e-05
5.25306e-05
6.00427e-05
7.6762e-05
0.000106036
0.000154135
0.000232785
0.000365078
0.000526671
0.000313772
0.000204334
0.000144551
0.000109302
8.93493e-05
8.09159e-05
8.22829e-05
9.11211e-05
0.000103831
0.000113903
0.000114093
0.000102515
8.48096e-05
6.86418e-05
5.86081e-05
5.62965e-05
6.26321e-05
7.87923e-05
0.000108027
0.000156651
0.000236607
0.000371569
0.000532535
0.000317197
0.000206712
0.000146757
0.000112006
9.32083e-05
8.68341e-05
9.11865e-05
0.000103889
0.000120705
0.000133809
0.00013461
0.000120886
9.92362e-05
7.88577e-05
6.53952e-05
6.07005e-05
6.55692e-05
8.10454e-05
0.000110158
0.000159261
0.000240494
0.000378092
0.000538517
0.000320781
0.000209287
0.000149239
0.000115124
9.76984e-05
9.38249e-05
0.000101711
0.000118958
0.00014055
0.000157123
0.000158619
0.000142463
0.000116298
9.09712e-05
7.34189e-05
6.5871e-05
6.89451e-05
8.35589e-05
0.000112448
0.000161977
0.000244455
0.000384645
0.000544625
0.000324533
0.000212075
0.00015202
0.000118708
0.000102999
0.000102072
0.000114082
0.000136624
0.000163704
0.000184186
0.000186466
0.00016761
0.000136317
0.000105271
8.2873e-05
7.19482e-05
7.28585e-05
8.63678e-05
0.000114915
0.000164809
0.000248494
0.000391229
0.000550862
0.000328464
0.000215091
0.000155127
0.000122796
0.000109126
0.000111624
0.000128527
0.000157236
0.000190518
0.000215345
0.000218494
0.000196705
0.000159693
0.000122056
9.39513e-05
7.89781e-05
7.73343e-05
8.95012e-05
0.000117579
0.00016777
0.00025262
0.000397843
0.000557231
0.000332583
0.000218353
0.000158589
0.000127434
0.000116178
0.000122668
0.000145333
0.00018116
0.000221403
0.000250944
0.000254993
0.000230124
0.000186788
0.000141676
0.000106896
8.71046e-05
8.24462e-05
9.29958e-05
0.000120459
0.000170872
0.000256841
0.000404487
0.00056374
0.000336903
0.000221878
0.000162441
0.000132656
0.000124284
0.000135453
0.000164816
0.000208756
0.000256715
0.000291205
0.000296207
0.000268046
0.00021798
0.000164476
0.000121987
9.65235e-05
8.82891e-05
9.68924e-05
0.000123582
0.000174129
0.000261163
0.000411165
0.000570395
0.000341434
0.000225688
0.00016673
0.000138615
0.000133614
0.000150231
0.000187318
0.000240384
0.000296812
0.000336417
0.000342385
0.000310858
0.000253682
0.000190836
0.000139534
0.000107439
9.49745e-05
0.000101223
0.000126973
0.000177555
0.000265597
0.000417876
0.000577204
0.000346188
0.000229802
0.000171499
0.000145424
0.000144338
0.00016727
0.000213196
0.000276402
0.00034176
0.000386768
0.000393728
0.000358769
0.000294107
0.000221115
0.000159877
0.000120077
0.000102642
0.000106112
0.00013067
0.000181168
0.000270151
0.000424624
0.000584175
0.000351177
0.00023424
0.00017678
0.000153127
0.000156654
0.000186857
0.000242829
0.000317237
0.000391898
0.000442497
0.000450438
0.000412025
0.000339574
0.000255729
0.000183362
0.000134677
0.000111434
0.000111633
0.000134704
0.000184982
0.000274834
0.00043141
0.000591317
0.000356413
0.000239023
0.000182615
0.000161798
0.000170716
0.000209276
0.000276591
0.00036336
0.000447708
0.000503742
0.000512734
0.000470893
0.000390437
0.000295103
0.000210365
0.000151498
0.000121521
0.000117828
0.000139103
0.000189013
0.000279654
0.000438239
0.00059864
0.00036191
0.000244179
0.000189054
0.000171546
0.000186618
0.000234853
0.000314896
0.000414936
0.000509341
0.000570862
0.00058085
0.000535642
0.000447118
0.000339695
0.000241276
0.000170808
0.000133022
0.000124758
0.000143897
0.000193278
0.000284622
0.000445114
0.000606155
0.000367679
0.000249734
0.000196137
0.000182508
0.000204671
0.000263963
0.000358209
0.000472227
0.000577061
0.000644046
0.000655003
0.000606508
0.00050989
0.000389812
0.00027653
0.000192887
0.000146036
0.000132507
0.000149126
0.000197795
0.000289749
0.000452044
0.000613874
0.000373736
0.000255723
0.000203979
0.000194847
0.000225163
0.000296991
0.000406902
0.000535762
0.000651168
0.000723534
0.000735431
0.000683733
0.000579033
0.000445796
0.000316433
0.000218181
0.000160829
0.000141183
0.00015483
0.000202583
0.000295044
0.000459035
0.000621808
0.000380094
0.00026218
0.000212698
0.000208727
0.000248397
0.000334338
0.000461474
0.000605857
0.000731942
0.00080959
0.000822396
0.000767584
0.000654861
0.000508107
0.000361575
0.000246976
0.000177638
0.000150903
0.000161055
0.000207666
0.000300521
0.000466098
0.000629972
0.000386765
0.000269131
0.000222332
0.00022432
0.000274696
0.000376599
0.000522157
0.000682822
0.00081968
0.000902509
0.000916191
0.000858347
0.000737689
0.000577138
0.000412377
0.000279697
0.000196722
0.000161801
0.000167848
0.000213068
0.000306188
0.000473241
0.00063838
0.000393763
0.00027661
0.000232963
0.000241823
0.000304386
0.000424046
0.00058965
0.000767038
0.000914711
0.00100262
0.00101714
0.000956326
0.000827832
0.000653267
0.000469295
0.000316768
0.000218358
0.000174025
0.000175346
0.000218816
0.000312059
0.000480474
0.000647048
0.000401102
0.000284655
0.00024469
0.000261471
0.000337834
0.000477177
0.000664197
0.000858935
0.00101738
0.00111027
0.00112561
0.00106186
0.00092561
0.000736857
0.000532795
0.000358643
0.000242837
0.000187722
0.000183571
0.000224931
0.000318142
0.000487809
0.000655995
0.000408798
0.000293304
0.000257613
0.000283548
0.000375421
0.000536474
0.000746239
0.000958832
0.00112805
0.00122585
0.00124198
0.00117533
0.00103136
0.000828256
0.000603315
0.000405699
0.000270534
0.000203077
0.000192586
0.000231436
0.000324448
0.00049526
0.000665238
0.000416865
0.000302601
0.000271834
0.00030815
0.000417458
0.000602495
0.00083621
0.00106708
0.00124708
0.00134977
0.00136669
0.00129714
0.00114546
0.000927816
0.000681212
0.000458463
0.000301757
0.000220291
0.000202466
0.000238358
0.00033099
0.00050284
0.000674798
0.00042532
0.000312595
0.000287487
0.000335533
0.000464668
0.000675325
0.000934511
0.00118407
0.0013749
0.0014825
0.0015002
0.0014277
0.00126829
0.00103601
0.000766974
0.000517398
0.000336865
0.000239607
0.000213289
0.000245725
0.000337776
0.000510565
0.000684689
0.000434179
0.000323339
0.000304725
0.000366052
0.000517212
0.000755899
0.00104162
0.0013102
0.00151195
0.00162451
0.00164299
0.0015675
0.00140027
0.00115319
0.000861043
0.000582969
0.000376206
0.000261067
0.000225126
0.000253567
0.000344819
0.000518452
0.000694931
0.00044346
0.000334883
0.000323712
0.000400052
0.000575659
0.000844583
0.00115793
0.00144589
0.0016587
0.00177632
0.00179559
0.00171701
0.00154183
0.00127974
0.000963843
0.000655656
0.000420201
0.00028492
0.000238087
0.000261919
0.00035213
0.000526514
0.000705541
0.000453183
0.000347327
0.000344632
0.000437884
0.000640507
0.000941831
0.00128386
0.00159157
0.00181566
0.00193848
0.00195856
0.00187677
0.0016934
0.00141605
0.00107579
0.000735938
0.000469294
0.00031148
0.000252289
0.000270819
0.000359719
0.000534764
0.000716537
0.000463366
0.000360759
0.000367674
0.000479911
0.000712269
0.00104811
0.00141983
0.00174771
0.00198334
0.00211156
0.00213249
0.00204732
0.00185549
0.00156252
0.00119729
0.000824298
0.000523957
0.00034102
0.000267853
0.000280305
0.000367596
0.00054321
0.000727934
0.000474027
0.000375231
0.000393048
0.000526487
0.000791513
0.00116389
0.00156627
0.00191478
0.00216231
0.00229618
0.00231798
0.00222924
0.00202859
0.00171959
0.00132875
0.000921173
0.00058455
0.000373899
0.000284918
0.00029042
0.000375772
0.000551868
0.000739753
0.000485188
0.000390827
0.00042099
0.000578245
0.000878429
0.00128958
0.00172362
0.0020933
0.00235315
0.00249296
0.0025157
0.00242314
0.00221324
0.0018877
0.00147057
0.00102704
0.000651621
0.000410374
0.000303616
0.000301205
0.000384258
0.000560754
0.000752021
0.000496874
0.000407641
0.000451733
0.000635396
0.000973868
0.00142572
0.00189235
0.00228379
0.00255647
0.00270252
0.00272632
0.00262966
0.00240998
0.00206729
0.00162315
0.00114234
0.000725619
0.000450781
0.000324101
0.0003127
0.000393068
0.000569892
0.000764729
0.000509109
0.000425783
0.000485562
0.000698456
0.00107828
0.00157277
0.00207296
0.00248685
0.00277294
0.00292556
0.00295055
0.00284943
0.00261941
0.00225886
0.0017869
0.00126749
0.000807002
0.000495474
0.000346545
0.000324993
0.000402213
0.000579265
0.000777856
0.000521918
0.000445374
0.000522811
0.000767933
0.00119217
0.00173124
0.00226599
0.00270313
0.00300334
0.00316307
0.00318898
0.00308317
0.00284216
0.00246294
0.00196227
0.00140294
0.000896239
0.000544824
0.000371134
0.000338152
0.000411703
0.000588857
0.000791435
0.000535327
0.000466531
0.000563899
0.00084433
0.00131607
0.00190164
0.00247204
0.00293331
0.00324839
0.00341568
0.00344253
0.00333164
0.00307892
0.0026801
0.00214971
0.00154911
0.000993801
0.000599219
0.000398061
0.000352224
0.00042155
0.00059869
0.000805469
0.000549368
0.000489358
0.000608899
0.000928075
0.0014505
0.0020845
0.00269174
0.00317811
0.00350886
0.00368415
0.00371208
0.00359565
0.00333037
0.00291089