/*--------------------------------*- C++ -*----------------------------------*\
| =========                 |                                                 |
| \\      /  F ield         | OpenFOAM: The Open Source CFD Toolbox           |
|  \\    /   O peration     | Version:  2212                                  |
|   \\  /    A nd           | Website:  www.openfoam.com                      |
|    \\/     M anipulation  |                                                 |
\*---------------------------------------------------------------------------*/
FoamFile
{
    version     2.0;
    format      ascii;
    arch        "LSB;label=32;scalar=64";
    class       volScalarField;
    location    "0.0473";
    object      p;
}
// * * * * * * * * * * * * * * * * * * * * * * * * * * * * * * * * * * * * * //

dimensions      [1 -1 -2 0 0 0 0];

internalField   nonuniform List<scalar> 
2308
(
599.96
623.55
582.918
611.682
609.701
606.429
602.781
606.761
611.135
607.708
607.335
606.475
605.784
604.927
604.027
603.169
602.416
602.094
603.063
604.277
605.646
607.011
608.215
609.085
609.675
609.944
609.072
607.773
602.866
601.785
606.156
604.232
602.082
599.818
597.484
595.034
592.501
590.061
588.026
586.738
586.422
587.049
588.214
589.704
591.225
592.581
590.763
589.143
587.941
587.258
587.332
588.192
589.681
591.598
593.708
595.871
598.033
600.2
602.23
604.047
605.427
605.753
605.381
604.922
604.367
603.974
603.56
603.105
602.683
602.329
602.025
592.689
594.471
603.678
605.46
607.344
609.125
610.588
611.596
612.085
611.962
611.004
609.55
607.752
605.747
603.605
601.397
599.078
596.563
593.865
591.186
588.866
587.277
586.694
587.167
588.224
589.517
590.723
601.343
591.771
601.295
601.742
596.833
594.79
592.824
591.107
589.835
589.068
588.809
589.142
589.948
591.096
592.526
594.173
596
597.925
599.776
601.437
602.601
602.984
602.966
602.604
602.188
601.921
601.761
601.7
601.749
601.87
601.981
608.048
607.035
604.519
605.835
602.441
604.306
606.641
608.959
611.042
612.682
613.74
614.07
613.611
612.44
610.802
608.915
606.94
604.921
602.893
600.74
598.336
595.695
593.02
590.661
588.992
588.283
588.584
589.428
590.355
591.018
591.433
591.694
592.702
594.189
596.384
607.911
598.849
608.86
608.124
601.483
611.45
607.797
600.878
602.046
592.221
593.772
595.784
598.271
600.694
602.646
601.241
599.519
597.518
595.458
593.618
592.206
591.295
590.804
590.605
590.627
590.868
591.429
592.4
593.772
595.398
597.12
598.683
599.807
600.362
600.534
600.463
600.316
600.264
600.403
600.77
601.275
601.825
602.318
600.965
601.203
608.329
606.615
604.788
603.108
601.873
601.411
601.891
603.272
605.354
607.856
610.388
612.625
614.392
615.372
615.45
614.74
613.405
611.71
609.857
608.021
606.231
604.476
602.573
600.393
597.949
595.446
593.223
591.628
590.884
591.02
591.596
592.067
592.082
591.772
591.169
591.229
596.121
610.121
609.007
611.642
581.921
608.899
602.036
600.816
603.629
603.227
602.117
600.393
598.35
596.344
594.698
593.558
592.76
592.064
591.376
590.78
590.426
590.643
591.515
592.871
594.483
596.025
597.238
598.009
598.41
598.59
598.73
599.017
599.573
600.333
601.248
602.188
602.999
602.687
612.748
606.172
606.905
605.21
603.682
602.546
602.181
602.743
604.216
606.388
608.941
611.507
613.836
615.486
616.3
616.243
615.434
614.117
612.46
610.804
609.213
607.745
606.292
604.667
602.75
600.56
598.299
596.284
594.785
593.982
593.883
594.125
594.095
593.57
592.527
591.315
590.927
591.705
592.037
593.245
595.182
597.583
600.159
602.387
603.619
603.505
606.303
595.671
608.919
609.822
602.97
609.599
603.625
602.929
612.209
610.386
605.121
606.412
607.019
605.813
604.493
603.506
603.204
603.789
605.228
607.329
609.778
612.291
614.419
615.922
616.637
616.545
615.81
614.669
613.348
611.924
610.69
609.573
608.406
607.043
605.368
603.414
601.379
599.514
598.028
597.064
596.602
596.385
595.907
594.869
593.452
592.007
591.406
592.104
593.935
593.401
593.747
595.047
597.092
599.564
601.929
603.8
604.1
602.991
600.384
602.16
603.394
603.95
604.081
603.085
601.183
598.956
596.963
595.473
594.363
593.247
591.948
590.608
589.556
589.067
589.436
590.535
592.053
593.633
594.997
596.001
596.67
597.152
597.644
598.315
599.214
600.362
601.643
602.905
603.964
613.879
604.058
603.117
601.524
610.724
608.324
608.127
607.661
604.157
607.909
607.543
607.29
606.525
605.533
604.677
604.437
604.961
606.251
608.156
610.375
612.564
614.441
615.799
616.491
616.514
616.023
615.219
614.307
613.388
612.516
611.688
610.79
609.619
608.113
606.337
604.44
602.614
601.031
599.783
598.859
598.108
597.192
595.802
594.141
592.67
592.067
592.786
594.875
598.5
597.415
596.573
596.534
597.467
599.193
601.437
603.377
604.561
603.928
601.953
598.37
593.716
596.542
599.391
601.953
603.715
604.484
604.681
603.449
601.194
598.805
596.856
595.364
593.924
592.218
590.391
588.813
587.818
587.737
588.59
590.021
591.659
593.195
594.453
595.424
596.247
597.078
598.066
599.322
600.797
602.368
603.858
605.152
604.804
612.873
614.718
603.243
605.427
605.831
605.565
605.668
603.762
604.656
601.453
604.36
608.563
605.73
603.662
602.038
600.341
599.537
599.852
601.078
602.905
604.286
604.452
603.102
600.551
596.643
591.913
586.933
588.74
592.293
596.114
599.579
602.413
604.023
604.8
604.418
602.619
600.06
597.645
595.733
594.06
592.196
590.157
588.296
586.98
586.535
587.151
588.501
590.193
591.9
593.423
594.708
595.841
596.991
598.306
599.84
601.55
603.318
604.976
606.41
606.145
610.378
610.896
612.9
581.209
607.51
607.21
606.622
606.046
605.806
606.193
607.277
608.845
610.647
612.454
614.033
615.228
615.972
616.25
616.144
615.823
615.423
615.016
614.564
614.03
613.296
612.239
610.842
609.156
607.294
605.412
603.638
602.044
600.656
599.398
598.069
596.437
594.715
593.275
592.719
593.435
595.765
599.114
605.05
615.058
613.148
590.946
605.136
605.847
605.936
581.756
583.987
588.37
592.999
597.118
600.404
602.719
603.951
604.207
602.959
600.563
597.88
595.599
593.754
591.944
589.944
588.032
586.577
585.876
586.269
587.527
589.266
591.137
592.899
594.473
595.934
597.393
598.966
600.698
602.577
604.424
606.149
607.649
607.519
609.198
608.367
599.058
599.039
598.283
597.554
597.461
598.727
600.67
602.656
603.699
603.278
601.601
598.927
595.483
591.74
587.475
582.54
612.474
602.923
603.016
603.051
603.484
605.426
607.833
596.842
612.161
607.576
607.869
607.712
607.437
607.311
607.552
608.283
609.413
610.723
612.065
613.304
614.375
615.226
615.835
616.215
616.446
616.612
616.706
616.66
616.379
615.769
614.777
613.414
611.748
609.862
607.867
605.868
603.961
602.192
600.521
598.822
596.949
595.123
593.613
593.107
593.861
596.464
598.851
606.166
597.987
589.788
606.862
605.571
614.875
610.681
612.959
607.25
592.066
597.366
604.813
606.513
608.881
603.72
604
614.071
594.535
576.826
576.448
579.623
585.037
590.442
594.984
598.436
600.97
602.487
603.168
602.482
600.416
597.67
595.128
593.166
591.521
589.769
587.994
586.547
585.705
585.911
587.079
588.843
590.851
592.849
594.724
596.481
598.206
599.969
601.863
603.764
605.62
607.305
608.727
609.855
611.332
597.623
597.084
618.789
618.638
618.451
617.48
615.824
613.286
611.675
611.114
610.193
608.047
604.275
600.548
597.547
594.871
592.148
589.025
585.547
581.946
604.915
600.207
600.375
600.499
600.864
601.397
581.29
604.059
606.226
607.761
608.596
608.861
608.864
608.856
608.989
609.358
609.972
610.731
611.569
612.464
613.406
614.357
615.286
616.159
616.963
617.686
618.269
618.592
618.531
618.034
617.095
615.752
614.085
612.156
610.054
607.876
605.73
603.69
601.736
599.728
597.604
595.703
594.123
593.455
594.033
596.577
597.581
607.676
596.129
619.593
614.354
608.286
599.174
617.616
616.435
614.254
607.401
607.813
612.332
610.146
596.424
612.427
582.485
603.198
611.287
610.313
589.728
588.375
610.62
609.666
608.398
606.838
605.067
603.184
601.265
599.347
597.416
595.401
593.251
591.01
588.845
587.046
585.957
585.895
586.777
588.101
589.601
590.997
592.459
594.504
597.18
599.844
601.517
601.749
600.852
599.241
596.959
593.859
589.419
583.342
576.276
571.602
570.168
579.68
589.076
584.405
583.786
580.91
577.47
574.577
573.693
575.015
578.422
582.05
584.396
585.665
586.702
588.701
590.806
592.346
592.813
591.698
587.312
578.157
568.024
613.143
609.644
617.809
594.361
593.359
592.446
591.48
590.615
588.624
587.067
586.086
612.394
590.658
615.236
612.2
611.965
617.627
615.864
613.295
607.935
615.945
595.021
597.853
597.995
598.116
598.348
598.696
601.564
597.184
603.593
605.979
607.943
609.288
610.016
610.328
610.441
610.472
610.508
610.603
610.794
611.117
611.644
612.411
613.409
614.598
615.898
617.224
618.472
619.521
620.197
620.331
619.966
619.112
617.832
616.201
614.272
612.115
609.822
607.513
605.288
603.15
600.899
598.632
596.57
594.765
593.931
594.306
596.344
598.076
605.76
596.478
620.657
584.808
613.566
616.033
617.999
599.144
617.524
608.819
582.998
619.175
592.856
609.243
606.951
611.315
616.681
615.127
617.269
587.476
614.301
596.753
584.693
600.15
617.646
614.989
585.892
587.679
589.901
611.149
610.405
609.354
607.996
606.392
604.615
602.724
600.74
598.659
596.424
594.025
591.542
589.203
587.332
586.274
586.279
587.114
588.235
589.397
590.448
591.774
593.881
596.607
599.114
600.399
600.284
599.264
597.745
595.979
593.643
589.487
583.175
574.925
568.983
564.067
578.507
561.592
596.533
596.285
596.099
596.052
595.906
595.617
582.08
611.918
610.801
618.34
618.33
585.619
588.76
610.776
612.3
601.346
597.693
580.994
609.354
614.76
596.742
592.67
593.343
594.965
632.785
632.851
636.567
643.443
646.046
647.365
647.642
647.518
643.417
640.268
635.676
628.187
616.323
610.055
606.684
605.329
606.971
612.613
619.267
625.345
626.543
623.403
595.85
594.995
594.266
593.54
592.921
592.469
583.502
610.121
617.227
619.178
620.06
613.879
584.025
590.923
605.951
581.985
608.383
610.104
593.64
609.318
610.443
597.582
607.997
598.822
600.798
603.179
605.72
608.039
609.885
611.13
611.815
612.06
612.002
611.727
611.337
610.975
610.791
610.917
611.447
612.416
613.761
615.387
617.151
618.872
620.349
621.366
621.725
621.541
620.831
619.699
618.182
616.325
614.17
611.804
609.364
606.987
604.718
602.388
600.036
597.725
595.613
594.616
594.701
596.055
598.362
603.646
598.174
619.267
583.566
634.728
606.112
603.402
609.807
618.483
587.097
611.397
596.624
620.93
606.023
594.767
613.456
606.928
595.394
594.989
594.744
594.64
594.575
594.38
593.949
593.132
593.612
591.813
615.052
620.066
613.077
598.921
612.052
611.795
611.466
610.942
610.139
609.03
607.649
606.045
604.245
602.268
600.102
597.687
595.054
592.334
589.801
587.811
586.712
586.69
587.417
588.296
589.138
589.932
591.201
593.357
596.089
598.396
599.348
598.967
597.904
596.605
595.398
593.974
591.076
585.573
577.065
568.824
562.813
578.776
564.237
625.04
584.88
586.879
589.349
592.177
581.926
609.212
620.014
617.888
615.059
605.132
609.489
607.131
601.304
595.897
612.567
611.206
618.165
619.074
620.521
619.64
585.508
588.968
595.617
602.878
602.211
597.048
609.249
598.562
600.135
607.824
608.98
594.836
609.967
612.122
615.81
621.289
585.27
583.664
583.546
598.914
596.805
599.08
598.435
597.709
597.011
596.411
595.881
595.477
595.223
595.151
616.192
610.593
606.623
604.623
584.165
602.236
617.57
598.316
600.327
602.681
605.346
608.013
610.355
612.128
613.247
613.686
613.565
613.014
612.186
611.3
610.6
610.318
610.56
611.405
612.782
614.616
616.72
618.844
620.702
622.06
622.719
622.778
622.305
621.39
620.076
618.372
616.265
613.856
611.286
608.746
606.358
604.015
601.595
599.141
596.916
595.779
595.531
596.442
598.815
601.782
601.057
616.013
589.494
643.663
555.419
552.214
557.721
557.333
550.725
540.818
532.45
525.258
520.756
518.823
521.45
524.624
527.801
532.079
540.094
552.242
563.67
572.985
577.711
572.656
556.762
534.626
515.982
515.906
531.079
619.629
591.514
590.129
591.854
605.53
595.055
599.831
598.306
602.257
608.644
594.434
594.04
593.788
593.65
593.522
593.197
592.587
591.569
590.146
588.395
585.346
588.414
586.693
612.05
618.762
620.477
587.154
597.303
602.062
600.823
586.849
601.978
608.165
596.221
610.842
584.75
617.029
607.832
609.993
612.479
615.182
617.971
620.454
622.284
623.08
598.497
604.088
582.628
584.121
586.28
588.938
591.97
595.19
614.952
611.216
611.572
603.191
602.091
601.502
600.887
600.39
599.831
599.292
598.82
598.428
598.134
598.205
598.309
598.472
604.297
584.886
614.752
602.496
603.376
610.487
610.72
596.152
597.668
599.657
602.067
604.838
607.83
610.622
612.921
614.509
615.219
615.094
614.319
613.105
611.736
610.527
609.845
609.778
610.404
611.753
613.689
616.028
618.459
620.669
622.359
623.33
623.659
623.478
622.884
621.887
620.394
618.386
615.942
613.228
610.489
607.923
605.5
603.058
600.554
598.396
597.384
597.155
597.766
598.947
599.944
601.085
608.929
587.065
639.721
520.217
702.661
703.312
689.94
685.993
685.291
689.151
693.912
695.127
694.087
688.321
685.946
688.451
698.737
701.083
696.379
679.942
666.753
656.576
649.127
647.469
669.611
672.724
673.595
649.856
637.525
665.562
725.752
510.959
624.547
574.63
576.559
569.467
573.355
583.007
590.625
593.724
594.8
595.11
595.763
596.828
597.887
598.471
597.791
595.693
592.966
590.776
589.499
588.846
588.245
587.594
587.008
587.143
588.357
590.511
593.26
596.212
599.048
601.587
603.798
605.715
607.372
608.768
609.893
610.727
611.275
611.586
611.754
611.94
612.241
612.862
613.802
605.87
616.678
601.156
620.458
622.159
610.707
624.55
601.493
583.634
611.677
613.157
619.105
617.423
618.227
619.598
589.475
585.74
593.574
586.463
590.027
602.973
598.636
605.49
604.92
592.554
595.384
606.444
612.044
593.851
604.909
600.712
588.243
596.743
595.15
587.541
619.127
618.394
612.548
584.893
586.67
588.561
590.292
591.523
592.322
592.797
593.051
593.247
593.493
593.857
598.84
618.217
608.275
624.395
623.199
621.017
618.287
615.482
612.823
610.488
608.442
619.377
614.051
599.641
598.468
597.903
597.844
604.596
607.12
616.419
597.369
615.932
586.211
615.846
581.972
583.557
585.837
588.712
592.013
595.543
598.906
615.449
606.443
620.754
618.479
616.579
614.844
613.482
612.525
611.941
611.68
611.585
611.543
611.423
611.119
610.553
609.685
608.498
607.002
605.182
602.964
600.342
597.34
594.174
591.203
588.861
587.487
587.193
587.644
588.128
588.575
589.176
590.478
592.7
595.406
597.335
597.817
597.137
596.099
595.165
594.922
595.567
596.505
596.028
591.26
584.999
582.552
586.332
596.769
620.765
644.891
746.655
602.179
602.121
388.616
455.663
489.73
504.978
506.654
501.789
487.609
462.353
449.784
450.49
453.817
454.979
449.56
444.571
441.481
456.46
482.339
502.592
519.382
530.724
506.501
463.212
399.741
413.454
410.179
378.001
313.296
123.516
605.082
603.81
603.286
602.797
602.37
601.961
601.591
601.263
600.985
600.919
601.064
601.225
601.546
602.036
599.17
600.549
602.4
604.357
594.701
595.697
597.112
599.02
601.403
604.286
607.503
610.686
613.457
615.503
616.518
616.443
615.512
613.984
612.194
610.555
609.499
609.144
609.555
610.793
612.754
615.229
617.899
620.4
622.402
623.702
624.322
624.442
624.164
623.455
622.236
620.387
617.918
615.055
612.104
609.312
606.72
604.212
601.762
599.703
598.856
598.755
599.708
601.302
603.286
606.374
609.672
610.371
627.672
642.352
803.603
207.299
588.002
591.65
590.553
586.542
617.016
618.684
612.346
613.988
595.099
600.042
593.945
597.249
609.397
625.714
625.395
623.92
621.539
618.673
615.778
613.204
610.953
608.976
598.641
601.732
602.977
601.165
599.68
598.895
593.53
583.125
585.253
587.461
589.365
590.806
591.772
592.382
592.742
592.964
593.21
613.274
617.666
617.956
588.526
593.307
589.829
599.669
601.804
624.443
622.631
620.505
618.429
616.397
614.638
613.214
612.216
611.641
611.412
611.385
611.439
611.465
611.36
611.015
610.362
609.353
607.975
606.219
604.078
601.416
598.288
594.941
591.779
589.279
587.749
587.301
587.641
588.026
588.366
588.946
590.263
592.492
595.182
597.03
597.412
596.715
595.676
594.774
594.672
595.818
598.281
599.903
597.437
595.023
595.458
602.498
610.926
621.556
640.741
687.524
115.039
580.727
581.508
583.189
585.509
588.515
591.927
595.627
599.397
602.628
614.988
587.987
598.915
589.796
592.048
615.96
613.239
599.399
600.736
602.515
604.445
612.279
583.215
605.569
605.066
604.587
604.19
603.875
603.649
603.466
603.322
603.225
603.219
603.483
603.737
604.153
604.769
605.642
608.855
13.3978
16.223
14.1695
14.8979
13.9667
14.3046
14.1069
14.5428
14.2414
14.8876
15.0401
15.6092
15.9413
15.9189
16.4706
16.7188
17.1345
18.3287
19.2546
20.4348
19.866
18.8147
16.9633
17.335
17.3064
19.1501
15.2304
16.0341
12.2128
17.1428
594.529
595.401
596.701
598.478
600.821
603.741
607.093
610.566
613.721
616.14
617.431
617.442
616.433
614.682
612.578
610.591
609.22
608.669
608.895
610.032
611.983
614.535
617.379
620.114
622.359
623.912
624.781
625.149
625.151
624.711
623.699
621.956
619.509
616.525
613.385
610.357
607.526
604.858
602.447
600.641
599.913
599.798
601.011
603.419
607.266
612.877
620.112
627.068
634.326
649.416
772.902
180.171
18.8806
598.863
591.623
590.137
616.831
614.197
251.204
506.379
623.068
621.874
23.4983
5558.66
5186.74
4590.66
5361.41
4661.05
5393.16
4937.44
5228.86
5189.44
5183.09
5115.67
5172.95
5125.2
5270.67
5221.58
5369.98
5308.71
5396.86
5418.08
5188.4
5228.77
4964.83
4875.46
4914.44
4812.72
5130.8
4812.05
5386.88
4805.14
347.026
25.788
5283.86
4562.85
616.602
559.105
632.631
640.159
615.401
623.556
604.862
609.136
599.573
601.623
600.031
599.155
604.971
602.252
610.903
607.878
617.385
614.12
622.869
620.412
625.423
624.535
625.586
625.719
624.09
625.093
619.994
622.389
614.212
617.14
609.678
611.613
608.518
608.616
610.851
609.252
615.116
612.916
617.934
616.959
616.245
617.765
610.235
613.597
603.244
606.623
598.147
600.408
595.214
596.429
593.823
594.386
593.113
593.427
592.597
592.86
591.521
592.186
589.028
590.509
584.687
587.038
580.92
582.337
581.181
580.337
585.026
583.052
592.358
588.354
600.961
596.711
608.398
608.525
608.796
607.907
608.175
607.623
607.76
607.552
607.582
607.604
607.565
607.77
607.669
608.172
607.929
608.038
608.562
606.252
606.782
609.876
611.092
606.729
608.794
602.082
604.381
599.244
600.265
599.427
598.879
601.803
600.247
605.764
603.746
609.496
607.756
613.751
611.477
619.151
616.323
624.388
621.979
626.379
625.962
624.617
625.88
620.515
622.738
616.277
618.284
613.061
614.503
611.434
612.035
611.211
611.204
611.447
611.325
611.27
611.471
609.914
610.766
607.072
608.704
602.102
604.853
595.522
598.913
589.672
592.305
587.363
587.964
587.932
587.598
588.777
588.208
592.337
590.098
596.838
594.999
596.611
597.279
594.53
595.61
595.117
594.083
599.395
597.408
598.75
599.8
608.993
600.113
624.181
619.444
588.972
609.99
611.149
593.831
609.572
3985.4
596.002
4021.81
590.924
611.611
611.808
611.777
611.928
611.94
611.983
611.978
607.306
602.136
592.139
593.69
596.106
601.293
600.929
600.929
613.801
611.678
612.933
615.165
613.677
614.696
616.121
615.444
616.146
616.52
616.839
617.132
603.627
615.114
611.087
604.896
604.985
612.841
610.544
604.373
607.293
607.246
614.907
602.438
602.501
584.563
614.834
601.511
622.295
598.843
618.659
595.494
613.445
608.013
600.577
603.181
607.836
601.989
598.142
606.404
604.583
606.004
611.395
611.151
591.131
599.05
594.147
625.397
596.96
600.618
584.562
619.165
607.602
612.477
610.657
611.984
621.451
601.057
592.267
597.556
606.155
608.873
606.304
607.541
621.9
)
;

boundaryField
{
    wall
    {
        type            zeroGradient;
    }
    outlet
    {
        type            fixedValue;
        value           uniform 1e-05;
    }
    inlet
    {
        type            fixedValue;
        value           uniform 612;
    }
    frontAndBackPlanes
    {
        type            empty;
    }
}


// ************************************************************************* //
