/*--------------------------------*- C++ -*----------------------------------*\
| =========                 |                                                 |
| \\      /  F ield         | OpenFOAM: The Open Source CFD Toolbox           |
|  \\    /   O peration     | Version:  2212                                  |
|   \\  /    A nd           | Website:  www.openfoam.com                      |
|    \\/     M anipulation  |                                                 |
\*---------------------------------------------------------------------------*/
FoamFile
{
    version     2.0;
    format      ascii;
    arch        "LSB;label=32;scalar=64";
    class       volVectorField;
    location    "0.000207";
    object      U;
}
// * * * * * * * * * * * * * * * * * * * * * * * * * * * * * * * * * * * * * //

dimensions      [0 1 -1 0 0 0 0];

internalField   nonuniform List<vector> 
22212
(
(-1.54e-12 3.65 -16.3)
(-7.89e-12 3.63 -16.5)
(1.5e-11 3.38 -16.8)
(-2.52e-11 3.13 -17)
(2.03e-11 3.04 -17.2)
(3.4e-12 2.98 -17.4)
(-2.88e-11 2.84 -17.7)
(-6.66e-12 2.63 -17.9)
(5.84e-12 2.4 -18.2)
(3.16e-11 2.18 -18.4)
(-1.21e-11 2 -18.7)
(1.68e-11 1.81 -18.9)
(-2.93e-11 1.62 -19.2)
(2.61e-11 1.39 -19.6)
(1.56e-11 1.18 -19.9)
(-8.41e-12 0.974 -20.2)
(3.75e-12 0.802 -20.5)
(-7.6e-12 0.656 -20.8)
(1.2e-11 0.525 -21.1)
(9.79e-12 0.37 -21.4)
(-5.7e-12 0.218 -21.7)
(1.7e-11 0.0685 -22)
(-1.68e-11 -0.0639 -22.3)
(-1.87e-12 -0.188 -22.6)
(8.16e-12 -0.303 -22.9)
(-1.64e-11 -0.449 -23.2)
(2.45e-12 -0.568 -23.5)
(-3.32e-11 -0.674 -23.8)
(2.36e-12 -0.76 -24.1)
(-5.09e-12 -0.844 -24.4)
(-7.72e-12 -0.928 -24.7)
(-1.04e-11 -1.01 -24.9)
(1.03e-11 -1.07 -25.2)
(-1.38e-11 -1.13 -25.4)
(-2.66e-11 -1.19 -25.6)
(2.17e-11 -1.25 -25.9)
(-9.34e-12 -1.3 -26.1)
(-4.75e-12 -1.34 -26.3)
(1.09e-11 -1.36 -26.5)
(-4.42e-14 -1.4 -26.7)
(8.44e-12 -1.45 -26.9)
(-7.83e-12 -1.48 -27.1)
(7.82e-12 -1.51 -27.3)
(8.72e-12 -1.53 -27.5)
(-1.27e-11 -1.54 -27.7)
(8.83e-12 -1.54 -27.9)
(9.12e-16 -1.53 -28.1)
(1.15e-12 -1.52 -28.3)
(-5.11e-12 -1.5 -28.5)
(-5.46e-12 -1.48 -28.7)
(4.06e-12 -1.46 -28.8)
(6.61e-12 -1.45 -29)
(1.45e-11 -1.45 -29.2)
(8.4e-12 -1.44 -29.3)
(-8.95e-14 -1.43 -29.5)
(5.95e-12 -1.4 -29.7)
(1.1e-11 -1.37 -29.8)
(9.87e-12 -1.31 -30)
(5.05e-12 -1.23 -30.1)
(-8.32e-13 -1.12 -30.3)
(1.31e-12 -0.971 -30.4)
(9.5e-13 -0.797 -30.5)
(3.5e-12 -0.638 -30.6)
(-2.82e-12 -0.502 -30.7)
(1.19e-11 -0.376 -30.7)
(-7.46e-12 -0.268 -30.7)
(1.96e-12 -0.2 -30.7)
(-4.42e-13 -0.155 -30.7)
(1.38e-11 -0.0294 -30.7)
(-5.18e-12 0.141 -30.7)
(3.51e-12 0.33 -30.7)
(2.81e-12 0.544 -30.6)
(8.02e-13 0.779 -30.6)
(8.98e-12 1.03 -30.5)
(1.02e-11 1.28 -30.4)
(-5.49e-12 1.55 -30.2)
(2.59e-12 1.85 -30.1)
(-1.38e-11 2.13 -29.9)
(2.57e-12 2.42 -29.7)
(3.66e-12 2.71 -29.5)
(-2.03e-12 3.01 -29.2)
(-2.83e-13 3.32 -28.9)
(5.77e-12 3.64 -28.6)
(2.88e-12 3.95 -28.2)
(-4.88e-12 4.28 -27.9)
(-5.84e-12 4.62 -27.5)
(-6.56e-12 4.96 -27.1)
(-2.52e-12 5.32 -26.6)
(1.01e-12 5.69 -26.2)
(-4.05e-13 6.08 -25.7)
(-6.42e-12 6.46 -25.2)
(-9.9e-12 6.85 -24.7)
(2.69e-12 7.22 -24.2)
(1.35e-11 7.56 -23.7)
(1.48e-12 7.84 -23.3)
(-6.32e-12 8.07 -22.8)
(1.21e-11 8.28 -22.5)
(5.6e-12 8.47 -22.1)
(-1.59e-11 8.65 -21.8)
(1.31e-11 8.82 -21.4)
(-6.79e-12 8.99 -21.1)
(1.44e-11 9.17 -20.8)
(-7.54e-12 9.36 -20.4)
(-6.87e-12 9.56 -20.1)
(1.69e-11 9.75 -19.7)
(-5.04e-12 9.98 -19.3)
(-1.26e-11 10.3 -18.9)
(4.07e-11 10.6 -18.6)
(7.68e-12 10.9 -18.2)
(-2.27e-11 11.3 -17.8)
(-4.64e-11 11.6 -17.3)
(-4.32e-11 12 -16.9)
(-3.81e-11 12.6 -16.2)
(-2.83e-11 13.7 -15.2)
(-1.61e-11 15.6 -13.6)
(1.11e-12 18.9 -10.9)
(4.92e-12 23.7 -6.93)
(-1.69e-12 27.1 -3.84)
(2.04e-12 27 -3.94)
(4.38e-12 26 -5.05)
(3.13e-13 25.7 -5.24)
(1.28e-12 25.9 -4.96)
(1.47e-13 25.9 -4.8)
(-5.81e-13 25.8 -4.84)
(-3.94e-12 25.8 -4.87)
(-2.9e-12 25.8 -4.83)
(-1.47e-12 25.7 -4.75)
(-7.93e-13 25.7 -4.64)
(8.72e-13 25.5 -4.45)
(-3.58e-12 25.4 -4.25)
(-3.37e-12 25.2 -4.14)
(-3.26e-12 25.1 -4.07)
(-1.5e-12 25 -3.98)
(1.21e-12 24.9 -3.94)
(4.28e-12 24.9 -3.83)
(3.88e-12 24.7 -3.75)
(-1.85e-12 24.6 -3.66)
(-1.5e-12 24.4 -3.57)
(2.56e-12 24.3 -3.52)
(-7.38e-13 24.1 -3.46)
(8.87e-13 23.9 -3.41)
(4.63e-12 23.7 -3.34)
(1.26e-12 23.5 -3.31)
(4.42e-12 23.4 -3.27)
(6.2e-13 23.3 -3.27)
(2.61e-12 23.2 -3.19)
(6.44e-12 22.9 -3.15)
(6.23e-12 22.8 -3.13)
(2.19e-12 22.7 -3.11)
(-5.07e-13 22.6 -3.12)
(-1.15e-11 22.5 -3.1)
(-1.05e-11 22.4 -3.1)
(-7.69e-13 22.3 -3.06)
(-1.25e-11 22.2 -3.02)
(-1.17e-11 22.1 -2.99)
(-3.19e-12 22 -2.96)
(-5.83e-12 22 -2.91)
(2.12e-12 21.9 -2.87)
(2e-11 21.8 -2.84)
(-6.98e-12 21.8 -2.8)
(-4.07e-11 21.7 -2.75)
(7.6e-12 21.7 -2.69)
(-4.06e-11 21.7 -2.64)
(-3.23e-11 21.7 -2.53)
(4.12e-12 21.6 -2.37)
(3.85e-12 21.5 -2.18)
(3.51e-12 21.4 -2.01)
(1.89e-11 21.4 -1.82)
(6.11e-12 21.4 -1.65)
(-3.33e-11 21.4 -1.47)
(-2.58e-11 21.5 -1.33)
(-2.11e-11 21.5 -1.05)
(-9.39e-12 21.6 -0.793)
(7.83e-12 21.6 -0.482)
(1.5e-12 21.1 -0.234)
(-8.44e-12 20.3 0.0144)
(-2.4e-12 3.72 -16.6)
(-9.07e-12 3.7 -16.9)
(1.23e-11 3.49 -17.1)
(-2e-11 3.24 -17.3)
(1.05e-11 3.14 -17.5)
(2.12e-11 3.09 -17.7)
(-2.49e-11 2.98 -18)
(1.8e-12 2.78 -18.2)
(-2.23e-11 2.55 -18.5)
(5.72e-11 2.35 -18.7)
(-8.39e-12 2.16 -18.9)
(1.67e-11 1.99 -19.2)
(-3.7e-11 1.81 -19.5)
(4.1e-12 1.58 -19.8)
(2.28e-11 1.37 -20.1)
(-8.66e-12 1.17 -20.4)
(8.05e-12 1 -20.7)
(-1.5e-11 0.847 -21)
(9.38e-12 0.705 -21.3)
(9.32e-12 0.554 -21.6)
(-1.29e-12 0.4 -21.9)
(1.28e-11 0.251 -22.2)
(-6.99e-12 0.11 -22.5)
(-5.6e-12 -0.0184 -22.7)
(6.29e-12 -0.143 -23)
(-4.98e-12 -0.29 -23.3)
(1.21e-11 -0.42 -23.7)
(-2.07e-11 -0.533 -23.9)
(-8.32e-12 -0.627 -24.2)
(-1.49e-12 -0.716 -24.5)
(-9.4e-12 -0.809 -24.7)
(-2.14e-11 -0.893 -25)
(1.44e-11 -0.964 -25.2)
(-8.49e-12 -1.03 -25.5)
(-4.69e-11 -1.1 -25.7)
(2.72e-11 -1.16 -25.9)
(-1.24e-13 -1.22 -26.2)
(-7.53e-12 -1.26 -26.4)
(9.89e-12 -1.3 -26.6)
(5.99e-12 -1.34 -26.8)
(3.6e-12 -1.39 -27)
(5.42e-12 -1.43 -27.2)
(-7.08e-12 -1.47 -27.4)
(2.72e-11 -1.5 -27.5)
(-1.91e-11 -1.51 -27.7)
(3.41e-12 -1.53 -27.9)
(1.8e-11 -1.53 -28.1)
(-8.7e-12 -1.52 -28.3)
(-1.02e-12 -1.51 -28.4)
(-2.24e-11 -1.5 -28.6)
(4.92e-12 -1.49 -28.8)
(1.05e-11 -1.48 -29)
(1.28e-11 -1.47 -29.1)
(9.14e-12 -1.45 -29.3)
(-1.43e-12 -1.44 -29.5)
(6.88e-12 -1.41 -29.6)
(1.49e-11 -1.37 -29.7)
(1.45e-11 -1.32 -29.9)
(7.98e-12 -1.24 -30)
(2.31e-13 -1.13 -30.1)
(2.61e-12 -0.99 -30.2)
(1.92e-12 -0.829 -30.3)
(5.72e-12 -0.667 -30.4)
(-4.8e-12 -0.525 -30.4)
(1.44e-11 -0.397 -30.5)
(-6.42e-12 -0.291 -30.6)
(5.07e-13 -0.195 -30.6)
(-3.64e-12 -0.142 -30.6)
(1.73e-11 -0.0646 -30.5)
(-4.85e-12 0.0894 -30.4)
(-1.47e-12 0.278 -30.4)
(2.27e-12 0.486 -30.3)
(3.79e-13 0.703 -30.2)
(8.29e-12 0.926 -30.2)
(1.86e-11 1.16 -30.1)
(-6.44e-12 1.4 -29.9)
(1.94e-11 1.67 -29.8)
(-2.85e-11 1.93 -29.6)
(1.39e-11 2.2 -29.4)
(-1.23e-13 2.48 -29.1)
(5.69e-12 2.79 -28.8)
(-4.21e-13 3.11 -28.5)
(2.66e-12 3.44 -28.2)
(8.51e-13 3.75 -27.8)
(-4.39e-12 4.08 -27.5)
(-3.26e-12 4.42 -27.1)
(-4.57e-12 4.78 -26.6)
(-1.81e-12 5.16 -26.2)
(9.93e-13 5.53 -25.7)
(-1.25e-12 5.93 -25.2)
(-9.5e-12 6.31 -24.7)
(-1.21e-11 6.69 -24.1)
(2.58e-12 7.06 -23.7)
(1.41e-11 7.38 -23.2)
(1.62e-12 7.67 -22.8)
(-5.84e-12 7.9 -22.3)
(1.22e-11 8.13 -21.9)
(5.19e-12 8.33 -21.6)
(-1.5e-11 8.53 -21.2)
(1.3e-11 8.73 -20.8)
(-5.56e-12 8.93 -20.5)
(1.13e-11 9.13 -20.1)
(-5.29e-14 9.36 -19.7)
(-1.21e-11 9.6 -19.3)
(1.44e-11 9.83 -18.9)
(4.64e-13 10.1 -18.4)
(-5.75e-11 10.4 -17.9)
(9.14e-11 10.7 -17.5)
(1.58e-12 11.1 -17)
(-1.3e-11 11.5 -16.6)
(-2.9e-11 11.9 -16)
(-1.57e-11 12.4 -15.4)
(-2e-11 13.2 -14.3)
(-1.96e-11 14.8 -12.5)
(-9.63e-12 17.5 -9.57)
(5.25e-12 21.7 -5.46)
(4.04e-12 26 -2.39)
(-7e-12 26.9 -2.34)
(-8.36e-12 25.9 -3.32)
(-1.26e-11 25.6 -3.72)
(-6.81e-12 26 -3.68)
(5.65e-13 26.1 -3.56)
(-7.21e-12 26 -3.52)
(-1.31e-11 25.9 -3.59)
(-1.73e-11 26 -3.72)
(-1.2e-11 25.9 -3.82)
(-6.33e-12 25.8 -3.83)
(-3.05e-12 25.7 -3.75)
(1.62e-12 25.6 -3.65)
(-5.78e-12 25.4 -3.54)
(-4.2e-12 25.1 -3.42)
(-3.27e-12 25 -3.3)
(-2.16e-12 24.9 -3.23)
(7.53e-13 24.8 -3.14)
(3.96e-12 24.7 -3.12)
(3.11e-12 24.6 -3.11)
(-2.87e-12 24.4 -3.04)
(-2.77e-12 24.3 -2.97)
(3.08e-12 24.2 -2.92)
(-7.05e-13 24 -2.9)
(-5.85e-13 23.8 -2.87)
(3.64e-12 23.6 -2.85)
(1.15e-12 23.4 -2.83)
(4.69e-12 23.2 -2.78)
(1.83e-12 23.1 -2.79)
(6.66e-12 22.9 -2.79)
(1.27e-11 22.7 -2.76)
(1.72e-11 22.6 -2.73)
(9.4e-12 22.4 -2.71)
(-2.93e-12 22.3 -2.71)
(-2.03e-11 22.2 -2.71)
(-7.24e-12 22 -2.72)
(3.1e-12 21.9 -2.71)
(-1.34e-11 21.8 -2.68)
(-9.24e-12 21.7 -2.65)
(-1.52e-12 21.5 -2.62)
(-3.59e-12 21.4 -2.58)
(4.3e-12 21.3 -2.55)
(1.5e-11 21.2 -2.5)
(-6.31e-12 21.1 -2.47)
(-3.47e-11 21.1 -2.42)
(1.16e-11 21.1 -2.39)
(-3.46e-11 21 -2.32)
(-2.87e-11 20.9 -2.19)
(4.49e-12 20.8 -2.02)
(2.19e-12 20.6 -1.86)
(1.83e-12 20.6 -1.73)
(1.27e-11 20.5 -1.55)
(1.6e-11 20.5 -1.41)
(1.28e-12 20.5 -1.27)
(-8.62e-12 20.5 -1.16)
(-1.92e-11 20.4 -0.926)
(-1.21e-11 20.4 -0.713)
(-6.71e-13 20.5 -0.429)
(1.66e-12 20 -0.237)
(-8.42e-12 19.5 -0.00933)
(-1.88e-12 3.72 -16.9)
(-3.84e-12 3.72 -17.1)
(1.82e-12 3.49 -17.4)
(-9.14e-12 3.24 -17.5)
(1.54e-11 3.14 -17.8)
(-5.49e-12 3.11 -18)
(-9.24e-12 3 -18.2)
(4.8e-13 2.81 -18.4)
(-4.71e-11 2.58 -18.7)
(2.54e-11 2.37 -18.9)
(4.69e-12 2.17 -19.2)
(3.48e-11 2 -19.4)
(-6.49e-12 1.82 -19.7)
(-1.33e-11 1.61 -20)
(2.11e-11 1.39 -20.3)
(-1.14e-11 1.19 -20.6)
(1.43e-11 1.03 -20.9)
(-2.04e-11 0.874 -21.2)
(4.9e-12 0.725 -21.4)
(-2.7e-12 0.571 -21.7)
(1.69e-11 0.415 -22)
(-3.75e-12 0.266 -22.3)
(8.73e-12 0.127 -22.6)
(2.63e-12 -0.00621 -22.9)
(-5.16e-12 -0.139 -23.1)
(-1.77e-12 -0.277 -23.4)
(3.21e-12 -0.412 -23.7)
(8.86e-12 -0.527 -24)
(-1.24e-11 -0.622 -24.3)
(1.06e-11 -0.708 -24.5)
(-9.19e-12 -0.8 -24.8)
(-1.87e-11 -0.883 -25)
(1.85e-11 -0.953 -25.3)
(5.27e-12 -1.02 -25.5)
(-5.27e-11 -1.08 -25.8)
(1.25e-11 -1.13 -26)
(1.07e-11 -1.18 -26.2)
(-5.35e-12 -1.23 -26.4)
(3.23e-12 -1.27 -26.6)
(8.13e-12 -1.31 -26.8)
(1.95e-12 -1.36 -27)
(1.19e-11 -1.4 -27.2)
(-4.73e-12 -1.44 -27.4)
(2.04e-11 -1.47 -27.6)
(-2.42e-12 -1.49 -27.8)
(-1.88e-12 -1.5 -27.9)
(1.37e-11 -1.51 -28.1)
(2.16e-12 -1.51 -28.3)
(7.09e-12 -1.51 -28.4)
(-6.03e-12 -1.5 -28.6)
(6.28e-12 -1.49 -28.8)
(4.01e-12 -1.49 -29)
(9.45e-12 -1.48 -29.1)
(2.26e-11 -1.47 -29.3)
(1.19e-11 -1.44 -29.4)
(1.06e-11 -1.4 -29.6)
(1.49e-11 -1.34 -29.7)
(1.38e-11 -1.28 -29.8)
(8.61e-12 -1.2 -29.9)
(1.9e-13 -1.1 -30)
(2.8e-12 -1 -30.1)
(4.51e-13 -0.888 -30.2)
(8.51e-12 -0.768 -30.3)
(-1.15e-11 -0.655 -30.3)
(1.69e-11 -0.547 -30.4)
(-5.09e-12 -0.44 -30.5)
(1.44e-12 -0.281 -30.5)
(-1.14e-11 -0.106 -30.5)
(2.14e-11 -0.00743 -30.4)
(-3.56e-12 0.0901 -30.3)
(-8.16e-12 0.264 -30.2)
(3.46e-12 0.468 -30.2)
(-4.53e-12 0.684 -30.1)
(1.04e-11 0.904 -30)
(1.27e-11 1.13 -29.9)
(1.55e-11 1.38 -29.7)
(1.08e-11 1.64 -29.6)
(-1.26e-11 1.92 -29.4)
(8.49e-12 2.19 -29.2)
(-3.35e-12 2.48 -28.9)
(1.59e-11 2.79 -28.6)
(3.84e-12 3.12 -28.3)
(1.56e-12 3.45 -27.9)
(1.09e-11 3.77 -27.6)
(1.38e-11 4.1 -27.2)
(1.21e-11 4.45 -26.8)
(4.31e-12 4.82 -26.4)
(9.49e-13 5.19 -25.9)
(-5.7e-13 5.58 -25.4)
(-6.75e-12 5.96 -24.9)
(-1.49e-11 6.33 -24.4)
(-1.48e-11 6.7 -23.9)
(1e-12 7.05 -23.4)
(1.27e-11 7.35 -23)
(3.17e-12 7.62 -22.6)
(-5.69e-12 7.85 -22.2)
(9.21e-12 8.07 -21.8)
(7.3e-12 8.27 -21.4)
(-1.24e-11 8.47 -21)
(8.85e-12 8.66 -20.7)
(-3.83e-12 8.85 -20.3)
(1.15e-11 9.05 -19.9)
(-3.9e-12 9.28 -19.4)
(1.07e-11 9.54 -19)
(5.61e-12 9.81 -18.6)
(1.51e-11 10.1 -18.1)
(-5.56e-11 10.4 -17.6)
(4.71e-11 10.7 -17.1)
(-2.52e-12 11 -16.6)
(-8.93e-12 11.4 -16)
(-1.19e-11 11.9 -15.4)
(-1.68e-11 12.6 -14.5)
(-1.89e-11 13.9 -12.9)
(-1.8e-11 16 -10.3)
(-5.23e-12 19.3 -6.28)
(3.37e-12 23.4 -2.12)
(6.5e-12 25.1 -0.753)
(4.9e-12 25 -2.09)
(1.96e-12 24.8 -3.15)
(-1.3e-11 25 -3.2)
(-1.67e-12 25.3 -3.12)
(2.78e-12 25.4 -3.22)
(-9.06e-12 25.4 -3.25)
(-1.57e-11 25.4 -3.28)
(-1.58e-11 25.4 -3.44)
(-8.33e-12 25.4 -3.6)
(-3.45e-12 25.3 -3.59)
(-4.7e-13 25.3 -3.51)
(2.54e-12 25.2 -3.42)
(-5.3e-12 25.1 -3.31)
(-3.36e-12 24.9 -3.16)
(-2.53e-12 24.7 -3)
(-1.86e-12 24.6 -2.92)
(6.85e-13 24.5 -2.82)
(3.53e-12 24.4 -2.82)
(2.9e-12 24.3 -2.83)
(-1.66e-12 24.2 -2.77)
(-1.24e-12 24 -2.71)
(2.45e-12 23.9 -2.67)
(-6.3e-13 23.8 -2.67)
(9.85e-13 23.6 -2.68)
(3.45e-12 23.4 -2.69)
(4.04e-13 23.2 -2.68)
(4.03e-12 23.1 -2.62)
(-2.12e-13 22.9 -2.63)
(2.82e-12 22.8 -2.64)
(8.05e-12 22.6 -2.65)
(1.21e-11 22.4 -2.62)
(1.22e-11 22.2 -2.6)
(4.74e-12 22.1 -2.6)
(-3.19e-11 21.9 -2.6)
(-1.56e-11 21.8 -2.62)
(3.89e-12 21.7 -2.62)
(-1.32e-11 21.5 -2.6)
(-1.68e-12 21.4 -2.59)
(8.19e-12 21.2 -2.56)
(2.11e-12 21.1 -2.52)
(1.32e-11 21 -2.49)
(6.48e-11 20.9 -2.45)
(5.37e-11 20.8 -2.4)
(-4.34e-11 20.7 -2.33)
(1.88e-11 20.7 -2.31)
(1.66e-11 20.6 -2.25)
(-1.3e-11 20.5 -2.14)
(5.65e-12 20.4 -1.99)
(-4.34e-12 20.3 -1.82)
(-7.18e-12 20.2 -1.67)
(-1.34e-11 20.2 -1.46)
(8.17e-11 20.2 -1.28)
(1.66e-10 20.2 -1.11)
(7.02e-11 20.1 -0.944)
(-1.99e-11 20 -0.727)
(-2.23e-11 20 -0.632)
(-2.37e-11 20 -0.406)
(-7.01e-12 19.6 -0.223)
(-8.45e-12 19 -0.0233)
(-4.82e-13 3.79 -17.1)
(-1.25e-12 3.78 -17.4)
(2.46e-12 3.59 -17.6)
(-8.16e-12 3.33 -17.8)
(1.11e-12 3.23 -18)
(2.53e-11 3.19 -18.2)
(-1.31e-12 3.11 -18.4)
(8.65e-12 2.94 -18.7)
(-2.46e-11 2.73 -18.9)
(-8.97e-12 2.51 -19.2)
(-8.56e-12 2.31 -19.4)
(2.37e-11 2.13 -19.7)
(2.04e-11 1.96 -19.9)
(-1.54e-12 1.76 -20.2)
(2.74e-11 1.55 -20.5)
(-1.27e-11 1.34 -20.8)
(1.87e-11 1.17 -21.1)
(-9.94e-12 1.01 -21.4)
(-1.72e-12 0.866 -21.6)
(-6.96e-12 0.709 -21.9)
(2.14e-11 0.554 -22.2)
(1.52e-12 0.408 -22.5)
(1.75e-12 0.277 -22.7)
(1.53e-11 0.142 -23)
(4.13e-12 0.00597 -23.3)
(-5.39e-13 -0.141 -23.6)
(-2.8e-12 -0.285 -23.9)
(1.86e-11 -0.409 -24.2)
(1.05e-11 -0.513 -24.4)
(1.55e-11 -0.605 -24.7)
(1.19e-11 -0.701 -24.9)
(-1.01e-11 -0.787 -25.2)
(1.2e-11 -0.861 -25.4)
(2.89e-11 -0.931 -25.6)
(-3.06e-11 -0.995 -25.8)
(-6.94e-12 -1.05 -26.1)
(2.12e-11 -1.1 -26.3)
(-6.2e-12 -1.16 -26.4)
(-7.77e-12 -1.21 -26.6)
(-2.41e-13 -1.27 -26.8)
(5.54e-12 -1.31 -27)
(1.86e-12 -1.36 -27.3)
(1e-11 -1.4 -27.4)
(9.93e-12 -1.43 -27.6)
(5.79e-12 -1.46 -27.8)
(8.65e-12 -1.48 -27.9)
(2.5e-12 -1.49 -28.1)
(1.19e-11 -1.5 -28.3)
(1.03e-11 -1.5 -28.4)
(-1.22e-11 -1.51 -28.6)
(-6.39e-12 -1.5 -28.8)
(8.4e-13 -1.5 -28.9)
(-9.97e-12 -1.47 -29.1)
(1.17e-11 -1.43 -29.3)
(2.17e-12 -1.38 -29.4)
(-6.8e-12 -1.33 -29.5)
(-1.98e-12 -1.27 -29.6)
(4.74e-12 -1.2 -29.7)
(7.7e-12 -1.13 -29.8)
(8.28e-13 -1.06 -29.9)
(4.13e-12 -0.987 -30)
(-2.87e-12 -0.913 -30.1)
(1.19e-11 -0.825 -30.2)
(-1.82e-11 -0.731 -30.3)
(1.47e-11 -0.625 -30.3)
(-3.91e-12 -0.505 -30.3)
(4.82e-12 -0.366 -30.3)
(-2.27e-11 -0.18 -30.3)
(2.24e-11 -0.00482 -30.3)
(-1.28e-12 0.0936 -30.2)
(-1.69e-11 0.231 -30)
(2.75e-12 0.424 -30)
(-4.89e-12 0.63 -29.9)
(4.98e-12 0.832 -29.8)
(1.07e-11 1.05 -29.6)
(1.94e-11 1.28 -29.5)
(9.83e-12 1.53 -29.3)
(1.87e-11 1.79 -29.1)
(-1.44e-11 2.06 -28.9)
(-2.45e-11 2.34 -28.6)
(1.09e-11 2.64 -28.3)
(4.36e-11 2.96 -27.9)
(3.26e-11 3.29 -27.6)
(1.66e-11 3.63 -27.2)
(1.77e-12 3.97 -26.9)
(-2.68e-12 4.32 -26.5)
(-8.36e-12 4.68 -26)
(-7.28e-12 5.06 -25.5)
(-7.86e-12 5.45 -25)
(-1.4e-11 5.83 -24.5)
(-2.09e-11 6.2 -24)
(-1.59e-11 6.56 -23.5)
(1.41e-12 6.9 -23.1)
(1.1e-11 7.19 -22.7)
(3.9e-12 7.45 -22.3)
(-8.73e-12 7.7 -22)
(6.01e-12 7.93 -21.6)
(1.38e-11 8.14 -21.2)
(-1.34e-11 8.34 -20.8)
(6.69e-12 8.54 -20.5)
(-5.87e-12 8.77 -20.1)
(1.07e-11 8.97 -19.7)
(-6.11e-13 9.22 -19.2)
(-9.5e-12 9.5 -18.7)
(3.69e-11 9.8 -18.2)
(6.92e-11 10.1 -17.7)
(-5.08e-11 10.4 -17.2)
(3.37e-11 10.7 -16.7)
(1.28e-11 11.1 -16.1)
(2.63e-12 11.5 -15.4)
(-1.01e-11 12.2 -14.6)
(-5.02e-12 13.2 -13.2)
(-1.69e-11 15 -10.9)
(-1.92e-11 17.9 -7.25)
(-3.73e-12 21.7 -2.53)
(2.09e-11 24.4 0.312)
(2.33e-11 24.5 -0.192)
(9.63e-12 24.2 -1.71)
(4.88e-11 24.6 -2.46)
(3.59e-11 25.1 -2.41)
(1.18e-11 25.3 -2.42)
(-4.46e-12 25.4 -2.55)
(1.14e-11 25.4 -2.61)
(1.14e-11 25.4 -2.72)
(1.68e-11 25.3 -2.79)
(1.54e-11 25.4 -2.78)
(6.15e-12 25.4 -2.75)
(5.42e-12 25.4 -2.7)
(-1.42e-12 25.3 -2.66)
(-4.2e-14 25.3 -2.55)
(-4.06e-12 25.2 -2.4)
(-3.82e-12 25.1 -2.28)
(1.49e-14 25 -2.23)
(1.62e-12 24.8 -2.17)
(4.96e-12 24.5 -2.11)
(4.98e-12 24.4 -2.1)
(4.29e-12 24.3 -2.08)
(4.47e-12 24.2 -2.08)
(9.32e-13 24 -2.04)
(-4.95e-13 23.8 -2.05)
(6.96e-12 23.6 -2.09)
(5.11e-12 23.4 -2.1)
(-5.48e-13 23.3 -2.07)
(2.8e-12 23.1 -2.08)
(-4.3e-12 22.9 -2.11)
(-7.7e-12 22.7 -2.16)
(-6.38e-12 22.5 -2.24)
(-1.1e-11 22.3 -2.25)
(9.09e-12 22.1 -2.23)
(1.73e-11 21.9 -2.24)
(-4.52e-11 21.7 -2.26)
(-3.33e-11 21.5 -2.27)
(-3.02e-12 21.4 -2.31)
(-1.42e-11 21.2 -2.33)
(-2.74e-14 21.1 -2.35)
(7.18e-12 20.9 -2.33)
(1.98e-12 20.8 -2.31)
(6.99e-12 20.7 -2.28)
(-3.13e-11 20.6 -2.24)
(-2.84e-11 20.5 -2.19)
(-3.17e-11 20.3 -2.12)
(8.95e-11 20.2 -2.07)
(7.93e-11 20.2 -2)
(-1.63e-11 20 -1.93)
(5.54e-12 19.9 -1.82)
(-1.42e-12 19.8 -1.67)
(-4.34e-12 19.7 -1.51)
(-5.65e-12 19.6 -1.34)
(-4.23e-11 19.6 -1.18)
(-1.11e-10 19.5 -0.965)
(-4.55e-11 19.4 -0.762)
(-1.5e-11 19.4 -0.567)
(-1.42e-11 19.4 -0.453)
(-8.52e-12 19.4 -0.315)
(-5.28e-12 18.9 -0.267)
(-8.43e-12 18.4 -0.0426)
(4.06e-14 3.8 -17.4)
(1.96e-12 3.8 -17.6)
(-5.46e-12 3.6 -17.8)
(2.11e-11 3.34 -18)
(-6.31e-11 3.23 -18.2)
(6.5e-11 3.2 -18.4)
(9.35e-12 3.13 -18.6)
(-2.2e-11 2.97 -18.9)
(-3.75e-11 2.77 -19.1)
(-2.97e-11 2.57 -19.3)
(-3.39e-11 2.36 -19.6)
(-5.02e-11 2.16 -19.9)
(-1.03e-11 1.98 -20.1)
(-2.04e-11 1.8 -20.4)
(4.15e-11 1.6 -20.7)
(-7.25e-12 1.4 -21)
(2.6e-11 1.22 -21.2)
(5.54e-12 1.06 -21.5)
(3.29e-12 0.902 -21.8)
(-1.48e-11 0.746 -22)
(9.63e-12 0.59 -22.3)
(2.12e-11 0.445 -22.6)
(6.11e-12 0.313 -22.8)
(-1.37e-12 0.181 -23.1)
(1.63e-11 0.0376 -23.4)
(1.59e-11 -0.11 -23.6)
(1.13e-11 -0.252 -23.9)
(-1.14e-11 -0.38 -24.2)
(-1.13e-12 -0.484 -24.5)
(-1.42e-11 -0.577 -24.7)
(8.84e-12 -0.672 -25)
(-7.26e-12 -0.757 -25.2)
(-1.65e-11 -0.833 -25.4)
(3.36e-11 -0.906 -25.7)
(-4.61e-12 -0.971 -25.9)
(-3.09e-11 -1.02 -26.1)
(3.14e-11 -1.07 -26.3)
(-1.42e-11 -1.11 -26.5)
(-1.6e-11 -1.17 -26.7)
(-4.28e-12 -1.22 -26.9)
(-1.9e-12 -1.27 -27.1)
(-1.67e-13 -1.32 -27.3)
(7.76e-12 -1.36 -27.5)
(7.24e-12 -1.4 -27.6)
(1.68e-11 -1.44 -27.8)
(8.91e-12 -1.47 -28)
(3.96e-12 -1.5 -28.1)
(-7.46e-12 -1.52 -28.3)
(1.93e-11 -1.54 -28.4)
(1.61e-11 -1.55 -28.6)
(1.14e-11 -1.54 -28.8)
(1.14e-11 -1.51 -28.9)
(-2.25e-11 -1.47 -29.1)
(3e-11 -1.42 -29.2)
(3e-11 -1.36 -29.3)
(6.34e-12 -1.31 -29.5)
(6.23e-12 -1.25 -29.6)
(1.82e-11 -1.2 -29.7)
(2.58e-11 -1.16 -29.8)
(1.56e-11 -1.11 -29.9)
(1.4e-11 -1.06 -29.9)
(-5.62e-13 -0.983 -30)
(1.7e-11 -0.888 -30.1)
(-1.56e-11 -0.78 -30.1)
(1.24e-11 -0.657 -30.2)
(-4.92e-12 -0.53 -30.2)
(6.44e-12 -0.392 -30.2)
(-2.3e-11 -0.249 -30.1)
(2e-11 -0.0721 -30.1)
(6.25e-13 0.0906 -30.1)
(-1.84e-11 0.209 -29.9)
(3.35e-14 0.381 -29.8)
(4.66e-12 0.57 -29.7)
(-9.81e-12 0.764 -29.6)
(9.57e-12 0.978 -29.4)
(1.39e-12 1.22 -29.2)
(3.98e-12 1.48 -29)
(1.49e-11 1.75 -28.8)
(5.18e-12 2.03 -28.6)
(-2.75e-11 2.32 -28.3)
(-6.58e-11 2.63 -28)
(-1.33e-11 2.94 -27.7)
(3.85e-11 3.25 -27.3)
(5.18e-11 3.59 -26.9)
(4.07e-11 3.95 -26.5)
(2.19e-11 4.31 -26.1)
(3.86e-12 4.68 -25.7)
(-4.37e-12 5.07 -25.2)
(-6.66e-12 5.46 -24.7)
(-1.47e-11 5.84 -24.2)
(-1.86e-11 6.2 -23.7)
(-9.7e-12 6.53 -23.3)
(6.79e-12 6.85 -22.9)
(7.31e-12 7.13 -22.5)
(3.13e-12 7.38 -22.1)
(-8.25e-12 7.61 -21.8)
(7.74e-13 7.83 -21.4)
(2.28e-11 8.03 -21)
(-1.45e-11 8.23 -20.7)
(7.41e-12 8.43 -20.3)
(-1.53e-11 8.66 -19.9)
(4.62e-12 8.9 -19.5)
(2.04e-11 9.16 -19)
(-5.26e-11 9.41 -18.5)
(-6.71e-11 9.7 -18)
(2.86e-11 10 -17.5)
(-4.4e-11 10.4 -16.9)
(-1.15e-11 10.7 -16.4)
(-5.42e-11 11.1 -15.7)
(-2.4e-11 11.6 -14.9)
(-1.36e-11 12.4 -13.7)
(-9.35e-12 14 -11.7)
(-1.97e-11 16.4 -8.51)
(-1.87e-11 20 -3.95)
(-2.04e-11 23.5 0.0285)
(-2.76e-11 24 0.866)
(-1.77e-11 23.5 -0.392)
(-2.89e-11 23.3 -1.42)
(-5.47e-11 24 -1.63)
(-7.59e-11 24.5 -1.83)
(5.42e-12 24.7 -2.11)
(-1.7e-11 24.8 -2.23)
(-2.53e-11 24.8 -2.27)
(-4.03e-11 24.8 -2.33)
(-4.74e-11 24.9 -2.35)
(-3.64e-11 25 -2.36)
(-1.79e-11 25.1 -2.4)
(-8.03e-12 25.1 -2.34)
(-5.94e-12 25.1 -2.19)
(-6.52e-12 25 -2.08)
(-9.25e-12 25 -2.03)
(-5.78e-12 24.9 -1.92)
(1.34e-12 24.8 -1.84)
(2.13e-12 24.6 -1.84)
(9.47e-12 24.5 -1.77)
(1.12e-11 24.2 -1.73)
(9.58e-12 24.1 -1.68)
(6.33e-12 23.9 -1.64)
(1.06e-12 23.8 -1.67)
(2.24e-13 23.6 -1.69)
(8.72e-12 23.4 -1.73)
(7.65e-12 23.2 -1.72)
(1.51e-12 23 -1.73)
(3.54e-12 22.8 -1.75)
(-2.21e-12 22.6 -1.83)
(-1.48e-12 22.4 -1.9)
(2.82e-12 22.2 -1.97)
(-7.43e-12 22 -2.04)
(1.06e-11 21.8 -2.07)
(3.84e-12 21.5 -2.09)
(-3.86e-11 21.3 -2.12)
(-2.66e-11 21.1 -2.16)
(-8.86e-12 20.9 -2.23)
(-1.48e-11 20.8 -2.28)
(-8.94e-12 20.6 -2.33)
(-7.7e-12 20.5 -2.33)
(-6.88e-13 20.4 -2.32)
(-1.67e-11 20.2 -2.29)
(7.01e-11 20.1 -2.24)
(1.3e-10 20 -2.19)
(-2.89e-13 19.9 -2.13)
(-1.15e-12 19.8 -2.07)
(-6.82e-11 19.6 -2.01)
(-3.19e-11 19.5 -1.95)
(6.17e-12 19.4 -1.87)
(6.05e-12 19.3 -1.72)
(4.24e-12 19.2 -1.54)
(1.47e-11 19.1 -1.36)
(3.38e-11 19 -1.19)
(8.79e-11 18.9 -0.977)
(8.89e-11 18.8 -0.857)
(1.55e-11 18.8 -0.688)
(3.22e-11 18.9 -0.554)
(2.4e-11 18.9 -0.37)
(1.03e-11 18.4 -0.254)
(-8.31e-12 17.9 -0.0574)
(-5.59e-12 3.85 -17.6)
(-1.29e-12 3.85 -17.9)
(-2.57e-11 3.68 -18.1)
(3.15e-11 3.41 -18.3)
(-3.67e-11 3.3 -18.5)
(-2.12e-12 3.26 -18.7)
(1.2e-12 3.2 -18.9)
(2.7e-11 3.06 -19.1)
(1.66e-11 2.87 -19.3)
(-2.11e-12 2.69 -19.6)
(2.98e-11 2.48 -19.8)
(1.74e-11 2.26 -20.1)
(3.4e-11 2.06 -20.4)
(-3.96e-11 1.89 -20.7)
(2.97e-11 1.7 -20.9)
(-2.88e-11 1.52 -21.2)
(-2.31e-12 1.34 -21.5)
(7.11e-12 1.17 -21.7)
(8.85e-12 1 -22)
(-2.97e-11 0.843 -22.3)
(1.13e-11 0.698 -22.5)
(-1.39e-12 0.554 -22.8)
(1.23e-11 0.419 -23)
(9.71e-12 0.288 -23.3)
(-8.91e-12 0.146 -23.5)
(-1.79e-12 -0.000657 -23.8)
(1.37e-11 -0.144 -24.1)
(2.64e-11 -0.275 -24.3)
(3.05e-11 -0.381 -24.6)
(1.46e-11 -0.477 -24.8)
(1.08e-11 -0.577 -25.1)
(3.6e-11 -0.666 -25.3)
(-2.47e-11 -0.749 -25.5)
(2.07e-11 -0.825 -25.7)
(-1.3e-11 -0.897 -26)
(-1.11e-11 -0.952 -26.2)
(4.69e-11 -1 -26.4)
(2.33e-11 -1.04 -26.5)
(3.54e-12 -1.1 -26.7)
(-2.66e-12 -1.16 -26.9)
(9.18e-12 -1.21 -27.1)
(1.42e-11 -1.26 -27.3)
(1.16e-11 -1.31 -27.5)
(1.63e-11 -1.35 -27.7)
(3.85e-12 -1.4 -27.8)
(2.53e-12 -1.44 -28)
(2.49e-11 -1.48 -28.1)
(-6.86e-12 -1.51 -28.3)
(3.67e-12 -1.52 -28.5)
(-9.13e-12 -1.52 -28.6)
(-2.19e-11 -1.5 -28.7)
(1.57e-11 -1.45 -28.9)
(-2.98e-11 -1.39 -29)
(-8.58e-12 -1.34 -29.1)
(-1.3e-11 -1.3 -29.3)
(-1.91e-11 -1.27 -29.4)
(5.74e-12 -1.24 -29.5)
(3.61e-11 -1.21 -29.6)
(5.16e-11 -1.18 -29.7)
(3.68e-11 -1.14 -29.8)
(2.8e-11 -1.08 -29.9)
(6.82e-12 -0.999 -29.9)
(1.84e-11 -0.897 -30)
(-2.99e-12 -0.786 -30)
(1.42e-11 -0.663 -30)
(-7.61e-12 -0.536 -30.1)
(2.24e-12 -0.398 -30)
(-1.1e-11 -0.272 -30)
(2.27e-11 -0.133 -30)
(-2.16e-13 0.052 -29.9)
(-1.92e-11 0.194 -29.8)
(6.61e-15 0.35 -29.6)
(1.33e-11 0.523 -29.5)
(-1.37e-11 0.714 -29.4)
(-8.79e-13 0.929 -29.2)
(-9.1e-12 1.17 -29)
(-7.93e-13 1.44 -28.8)
(-3.17e-11 1.7 -28.6)
(-1.51e-11 1.97 -28.3)
(2.92e-11 2.26 -28)
(4.43e-12 2.56 -27.7)
(-4.74e-11 2.87 -27.4)
(-4.87e-11 3.19 -27)
(-4.26e-11 3.54 -26.6)
(-2.75e-11 3.91 -26.2)
(-1.97e-11 4.28 -25.8)
(-1.57e-11 4.65 -25.4)
(-1.51e-11 5.02 -24.9)
(-8.1e-12 5.42 -24.4)
(-1.16e-11 5.79 -23.9)
(-1.49e-11 6.14 -23.4)
(-4.12e-13 6.46 -23)
(1.22e-11 6.75 -22.6)
(-4.94e-13 7.02 -22.2)
(5.2e-12 7.28 -21.9)
(4.92e-12 7.52 -21.5)
(-8.3e-12 7.74 -21.2)
(2.09e-11 7.95 -20.8)
(2.43e-12 8.17 -20.5)
(-1.18e-11 8.39 -20.1)
(-1.61e-12 8.61 -19.7)
(-8.4e-12 8.86 -19.3)
(-1.02e-11 9.14 -18.8)
(9.65e-11 9.41 -18.3)
(4.9e-11 9.7 -17.7)
(5.26e-11 10 -17.2)
(-3.46e-11 10.4 -16.6)
(4.88e-11 10.8 -16.1)
(3.82e-11 11.2 -15.3)
(4.57e-11 11.9 -14.2)
(2.22e-11 13.1 -12.5)
(1.26e-11 15.1 -9.72)
(2.95e-12 18.3 -5.63)
(-1.18e-12 22.3 -1.01)
(4.63e-11 24 1.15)
(6.08e-11 23.5 0.41)
(5.65e-11 22.7 -0.705)
(2.57e-11 22.9 -1.03)
(4.74e-11 23.5 -1.12)
(2.89e-11 23.8 -1.49)
(2.64e-12 24.1 -1.85)
(2.59e-11 24.3 -2.06)
(2.58e-11 24.4 -2.16)
(3.21e-11 24.5 -2.17)
(4.34e-11 24.6 -2.11)
(4.24e-11 24.7 -2.09)
(2.54e-11 24.8 -2.09)
(8.79e-12 24.9 -2.05)
(6.23e-14 24.9 -1.98)
(1.55e-11 24.9 -1.8)
(2.76e-12 24.9 -1.64)
(2.1e-12 24.9 -1.61)
(9.23e-12 24.9 -1.6)
(6.58e-12 24.8 -1.55)
(1.19e-11 24.6 -1.48)
(9.73e-12 24.4 -1.42)
(5.21e-12 24.2 -1.31)
(4.19e-12 24.1 -1.26)
(5.71e-12 23.9 -1.28)
(-3.22e-13 23.7 -1.3)
(5.9e-12 23.4 -1.31)
(5.28e-12 23.3 -1.31)
(5.97e-13 23.1 -1.37)
(2.31e-12 22.8 -1.38)
(-1.68e-12 22.6 -1.43)
(2.79e-12 22.4 -1.51)
(9.63e-12 22.1 -1.6)
(9.79e-12 21.9 -1.68)
(5.5e-12 21.7 -1.76)
(-1.61e-11 21.4 -1.81)
(2.27e-12 21.1 -1.87)
(1.25e-11 20.9 -1.88)
(4.12e-12 20.7 -1.96)
(-1.11e-11 20.5 -2.02)
(-6.52e-12 20.3 -2.11)
(4.85e-12 20.2 -2.16)
(2.55e-12 20 -2.16)
(1.11e-11 19.9 -2.15)
(-4.66e-11 19.8 -2.07)
(-8.76e-11 19.6 -2.01)
(-5.97e-11 19.5 -1.94)
(6.92e-11 19.3 -1.87)
(6.5e-11 19.2 -1.88)
(-6.29e-12 19.1 -1.84)
(8.98e-12 19 -1.78)
(6.72e-12 18.9 -1.64)
(7.52e-12 18.8 -1.42)
(2.65e-11 18.7 -1.22)
(-1.02e-11 18.5 -1.02)
(-2.61e-12 18.5 -0.868)
(4.18e-11 18.4 -0.781)
(3.37e-11 18.3 -0.704)
(6.05e-11 18.3 -0.565)
(1.16e-11 18.4 -0.359)
(-4.89e-13 17.8 -0.177)
(-8.55e-12 17.4 -0.0481)
(-9.58e-12 3.87 -17.8)
(-6.85e-12 3.88 -18.1)
(-1.61e-11 3.7 -18.3)
(5.66e-12 3.45 -18.5)
(-4.26e-11 3.32 -18.7)
(1.94e-11 3.29 -18.9)
(-1.15e-11 3.23 -19.1)
(-1.95e-11 3.09 -19.3)
(-3.84e-11 2.92 -19.5)
(-1.98e-11 2.74 -19.7)
(-8.77e-11 2.53 -20)
(-9.48e-11 2.32 -20.2)
(-1.54e-11 2.1 -20.5)
(-1.66e-11 1.91 -20.8)
(4.53e-11 1.73 -21.1)
(1.25e-11 1.55 -21.3)
(2.28e-11 1.38 -21.6)
(1.96e-11 1.21 -21.9)
(3.02e-11 1.05 -22.1)
(-2.52e-11 0.891 -22.4)
(-1.45e-11 0.732 -22.7)
(1.14e-11 0.584 -22.9)
(-5.61e-12 0.446 -23.2)
(-5.4e-12 0.316 -23.4)
(8.51e-12 0.172 -23.6)
(-1.75e-12 0.029 -23.9)
(-1.24e-11 -0.114 -24.1)
(-1.23e-11 -0.245 -24.4)
(-2.17e-11 -0.349 -24.7)
(1.98e-11 -0.44 -24.9)
(-2.26e-11 -0.533 -25.1)
(2.57e-11 -0.626 -25.4)
(-1.48e-11 -0.707 -25.6)
(4.73e-11 -0.784 -25.8)
(-1.08e-12 -0.857 -26)
(-2.37e-11 -0.916 -26.2)
(-1.54e-11 -0.966 -26.4)
(5.9e-14 -1 -26.6)
(2.09e-12 -1.06 -26.8)
(-1.05e-11 -1.13 -27)
(4.73e-12 -1.18 -27.2)
(5.79e-12 -1.23 -27.4)
(-1.57e-12 -1.29 -27.5)
(-1.51e-11 -1.34 -27.7)
(-3.24e-12 -1.4 -27.9)
(-1.84e-11 -1.45 -28)
(7.04e-12 -1.49 -28.2)
(-1.04e-11 -1.51 -28.3)
(1.33e-11 -1.51 -28.5)
(3.52e-11 -1.5 -28.6)
(-4.61e-12 -1.46 -28.7)
(1.91e-11 -1.41 -28.8)
(-1.37e-11 -1.36 -29)
(2.67e-11 -1.33 -29.1)
(4.73e-11 -1.32 -29.3)
(1.91e-11 -1.3 -29.4)
(-1.41e-11 -1.29 -29.5)
(-3.33e-11 -1.28 -29.6)
(-3.04e-11 -1.25 -29.7)
(-2.37e-11 -1.19 -29.8)
(-1.27e-11 -1.11 -29.8)
(-1.61e-12 -1.02 -29.8)
(-6.39e-12 -0.914 -29.9)
(1.48e-11 -0.805 -29.9)
(6.33e-12 -0.686 -29.9)
(-1.07e-12 -0.561 -29.9)
(-1.33e-11 -0.428 -29.9)
(5.51e-12 -0.296 -29.9)
(1.09e-11 -0.169 -29.8)
(1.85e-12 -0.00401 -29.8)
(-1.08e-11 0.155 -29.6)
(3.55e-13 0.298 -29.5)
(2.16e-11 0.464 -29.3)
(-2.74e-12 0.649 -29.2)
(-2.36e-12 0.867 -29)
(-5.83e-13 1.11 -28.8)
(-2.84e-12 1.38 -28.6)
(-1.15e-11 1.64 -28.3)
(-4.93e-11 1.93 -28)
(-7.98e-11 2.23 -27.8)
(-9.37e-12 2.52 -27.4)
(4.8e-11 2.84 -27.1)
(4.58e-11 3.17 -26.7)
(1.97e-11 3.51 -26.3)
(3.7e-12 3.86 -25.9)
(-6.27e-12 4.23 -25.5)
(-1.09e-11 4.6 -25)
(-1.35e-11 4.99 -24.5)
(-1.12e-12 5.37 -24)
(-1.83e-12 5.73 -23.6)
(-6.76e-12 6.07 -23.1)
(-1.34e-13 6.37 -22.7)
(1.11e-11 6.65 -22.4)
(-8.82e-12 6.91 -22)
(4.37e-12 7.15 -21.7)
(1.86e-11 7.38 -21.4)
(-1.61e-11 7.6 -21)
(1.68e-11 7.81 -20.6)
(7.04e-12 8.03 -20.3)
(-4.45e-12 8.26 -19.9)
(-7.45e-12 8.5 -19.5)
(4.52e-12 8.75 -19)
(-4.23e-11 9.02 -18.5)
(-1.85e-11 9.32 -18)
(-8.37e-11 9.62 -17.5)
(5.62e-11 9.94 -16.9)
(-1.43e-11 10.3 -16.3)
(1.96e-11 10.7 -15.7)
(-2.18e-12 11.3 -14.8)
(5.93e-12 12.4 -13.4)
(7.8e-12 13.9 -11)
(8.54e-12 16.5 -7.32)
(-3.94e-12 20.3 -2.49)
(-1.73e-11 23.4 0.913)
(-3.02e-11 23.5 1.05)
(-7.25e-11 22.6 -0.202)
(-2.54e-12 22.2 -0.811)
(-6.05e-11 22.6 -0.674)
(-6.2e-11 22.9 -0.765)
(-2.47e-11 23.2 -1.17)
(-4.55e-11 23.4 -1.58)
(-4.84e-11 23.6 -1.88)
(-2.92e-11 23.7 -1.99)
(-1.95e-11 23.9 -1.96)
(-4.54e-11 24.1 -1.91)
(-2.79e-11 24.2 -1.89)
(-2.82e-11 24.4 -1.93)
(-8.8e-12 24.5 -1.89)
(-2.55e-12 24.6 -1.8)
(-1.12e-11 24.6 -1.63)
(-3.87e-12 24.6 -1.49)
(-2.39e-12 24.6 -1.42)
(-5.52e-12 24.6 -1.39)
(5.55e-12 24.6 -1.38)
(-3.94e-13 24.5 -1.34)
(-7.02e-12 24.3 -1.27)
(-2.62e-11 24.1 -1.12)
(-1.26e-11 23.9 -1.05)
(2.04e-11 23.7 -1.07)
(-4.36e-12 23.5 -1.07)
(-2.05e-11 23.3 -0.994)
(-5.94e-12 23.1 -1)
(-2.46e-13 22.9 -1.02)
(1.19e-12 22.7 -1.03)
(-2.42e-12 22.4 -1.08)
(3.36e-12 22.2 -1.14)
(4.45e-12 21.9 -1.24)
(1.89e-11 21.7 -1.36)
(-1.13e-11 21.4 -1.46)
(6.16e-11 21.1 -1.53)
(1.23e-10 20.8 -1.54)
(3.1e-11 20.6 -1.6)
(1.66e-11 20.3 -1.67)
(-5.74e-12 20.1 -1.75)
(-1.5e-12 20 -1.82)
(1.04e-11 19.8 -1.86)
(3.98e-11 19.6 -1.85)
(1.8e-12 19.5 -1.83)
(5.04e-11 19.3 -1.8)
(7.72e-11 19.2 -1.77)
(-2.04e-11 19 -1.74)
(-2.9e-12 18.9 -1.75)
(-4.17e-11 18.8 -1.74)
(-1.77e-11 18.7 -1.74)
(4.59e-12 18.5 -1.65)
(4.93e-12 18.3 -1.5)
(7.98e-12 18.2 -1.35)
(1.31e-11 18.1 -1.15)
(-8.19e-12 18 -1.01)
(3.61e-11 17.9 -0.88)
(6.12e-11 17.9 -0.786)
(7.73e-11 17.8 -0.631)
(8.44e-11 17.8 -0.555)
(-1.67e-11 17.8 -0.358)
(-1.75e-11 17.3 -0.199)
(-8.69e-12 16.9 -0.0366)
(-7.09e-12 3.93 -18)
(-3.79e-13 3.93 -18.3)
(-2.56e-11 3.77 -18.5)
(1.09e-11 3.51 -18.7)
(2.78e-12 3.37 -18.9)
(-4.56e-11 3.35 -19.1)
(-1.98e-11 3.3 -19.3)
(2.84e-11 3.18 -19.5)
(-2.26e-12 3.01 -19.7)
(4.68e-11 2.83 -19.9)
(7.47e-11 2.63 -20.2)
(4.35e-11 2.41 -20.4)
(1.15e-11 2.19 -20.7)
(3.26e-14 1.99 -21)
(3.07e-13 1.79 -21.3)
(-8.11e-12 1.61 -21.5)
(3.34e-12 1.45 -21.8)
(-1.6e-11 1.29 -22)
(2.35e-11 1.13 -22.3)
(-1.7e-11 0.967 -22.5)
(-9.81e-12 0.809 -22.8)
(-2.9e-12 0.658 -23.1)
(1.12e-11 0.515 -23.3)
(3.98e-12 0.384 -23.6)
(-8.09e-12 0.247 -23.8)
(3.38e-12 0.108 -24)
(1.27e-11 -0.0311 -24.3)
(1.29e-11 -0.162 -24.5)
(1.63e-11 -0.267 -24.8)
(5.9e-12 -0.36 -25)
(5.2e-12 -0.452 -25.2)
(3.45e-11 -0.551 -25.4)
(-1.76e-11 -0.641 -25.6)
(-2.38e-12 -0.722 -25.8)
(3.24e-11 -0.796 -26)
(2.27e-11 -0.856 -26.3)
(-1.64e-12 -0.907 -26.4)
(1.87e-11 -0.95 -26.6)
(5.22e-11 -1 -26.8)
(-8.7e-13 -1.07 -27)
(-2.92e-11 -1.13 -27.2)
(-1.4e-11 -1.18 -27.4)
(1.33e-11 -1.25 -27.6)
(2.14e-11 -1.31 -27.8)
(2.63e-11 -1.37 -27.9)
(-1.47e-12 -1.41 -28.1)
(3.12e-11 -1.44 -28.2)
(-1.19e-11 -1.44 -28.3)
(-1.67e-11 -1.44 -28.4)
(1.04e-11 -1.42 -28.6)
(-2.09e-11 -1.39 -28.7)
(1.34e-11 -1.36 -28.8)
(1.48e-12 -1.34 -29)
(-3.71e-11 -1.33 -29.1)
(-3.21e-11 -1.34 -29.2)
(8.35e-12 -1.34 -29.4)
(4.47e-11 -1.32 -29.5)
(5.86e-11 -1.29 -29.6)