/*--------------------------------*- C++ -*----------------------------------*\
| =========                 |                                                 |
| \\      /  F ield         | OpenFOAM: The Open Source CFD Toolbox           |
|  \\    /   O peration     | Version:  2212                                  |
|   \\  /    A nd           | Website:  www.openfoam.com                      |
|    \\/     M anipulation  |                                                 |
\*---------------------------------------------------------------------------*/
FoamFile
{
    version     2.0;
    format      ascii;
    arch        "LSB;label=32;scalar=64";
    class       surfaceScalarField;
    location    "0.0053";
    object      phi;
}
// * * * * * * * * * * * * * * * * * * * * * * * * * * * * * * * * * * * * * //

dimensions      [1 0 -1 0 0 0 0];

oriented        oriented;

internalField   nonuniform List<scalar> 
5190
(
-2.53104e-09
-1.02781e-09
4.65577e-09
1.54486e-09
-6.32538e-06
-1.12189e-05
9.2875e-06
8.93363e-06
1.09691e-07
1.18743e-05
4.07515e-07
-1.16266e-05
-1.13159e-09
9.01345e-10
1.44634e-09
-1.23872e-09
-1.51405e-05
-3.00351e-06
1.61958e-05
2.9565e-06
7.68957e-06
-1.02956e-05
-7.32182e-06
1.08148e-05
-5.6882e-10
3.13171e-10
8.54958e-10
-2.92379e-10
-1.69458e-09
1.70246e-09
-8.3163e-10
8.16821e-10
8.45162e-10
-8.8343e-10
-1.51508e-09
1.61346e-09
8.1692e-10
-1.4668e-09
1.55937e-09
-1.78668e-09
1.59151e-09
-9.48643e-10
-7.51539e-10
1.08089e-09
-1.02623e-09
7.03895e-10
1.18862e-09
-8.16999e-10
-1.09793e-09
-4.12553e-10
3.26189e-10
-6.34397e-10
6.75783e-10
-6.53193e-10
-9.0995e-10
6.98778e-10
8.61784e-10
-6.67697e-10
-1.01223e-09
5.69008e-10
1.06849e-09
-4.2013e-10
-7.70364e-10
4.15866e-10
7.26516e-10
7.05961e-10
-1.42271e-09
1.36654e-09
-6.63968e-10
5.80443e-10
-1.50424e-09
1.63232e-09
-1.41085e-09
1.76954e-09
2.48508e-10
1.04896e-09
-1.18502e-09
1.57893e-09
-1.43142e-09
-7.97656e-10
7.41722e-10
-1.25396e-09
1.31354e-09
-9.20605e-10
-1.28316e-09
1.40641e-09
-1.26864e-09
1.39094e-09
-7.05111e-10
1.13716e-09
1.22795e-09
-6.21139e-10
8.02139e-10
-1.5557e-09
7.55869e-10
-8.13453e-10
-1.66003e-09
-1.70699e-09
1.88971e-09
-8.14812e-10
8.44133e-10
-1.38124e-09
-1.45861e-09
-9.60784e-10
9.80944e-10
-1.15525e-09
-1.2258e-09
1.16088e-09
-9.55074e-10
8.77157e-10
-1.17143e-09
-1.20798e-09
-1.16615e-09
1.01595e-09
-1.13469e-09
1.50601e-09
-1.38355e-09
8.61602e-10
-1.22799e-09
1.38377e-09
-1.21424e-09
7.66203e-10
1.30469e-09
8.12263e-10
-8.83756e-10
-1.13762e-09
1.16345e-09
-1.22345e-09
8.67948e-10
9.19643e-10
-9.48272e-10
-1.0707e-09
-1.17268e-09
8.19928e-10
-8.31704e-10
-1.34408e-09
1.41264e-09
-1.14689e-09
1.06736e-09
-6.88045e-06
-1.00626e-05
1.10992e-05
6.4212e-06
-1.42611e-09
1.47111e-09
-8.99492e-10
-1.57816e-09
1.65576e-09
-1.6778e-09
-7.91868e-10
8.85476e-10
1.58055e-09
8.92387e-10
-8.51349e-10
-1.6925e-09
1.72584e-09
-1.63377e-09
1.15394e-09
7.7381e-10
-9.09061e-10
-4.76992e-10
9.01441e-10
-7.68925e-10
1.6381e-09
7.55069e-10
-7.81798e-10
-1.70276e-09
1.63347e-09
8.58051e-10
-9.00006e-10
-1.02935e-09
8.22904e-10
-9.79662e-10
-1.63968e-09
-7.64857e-10
1.67057e-09
-1.72509e-09
1.75673e-09
-7.91807e-10
-8.74314e-10
9.28563e-10
-1.58459e-09
-1.61563e-09
-7.98001e-10
-7.29544e-10
7.46223e-10
1.60416e-09
1.52946e-09
-8.63956e-10
8.96258e-10
1.51857e-09
1.62747e-09
-8.05759e-10
7.72046e-10
1.40835e-09
1.45721e-09
-6.72798e-10
5.28157e-10
1.34385e-09
1.38303e-09
-2.40489e-10
-2.93932e-10
3.17036e-10
2.15148e-10
1.39283e-09
2.3463e-10
7.30092e-10
-7.67602e-10
1.3155e-09
1.1796e-09
7.84413e-10
1.49938e-09
-8.00597e-10
1.37849e-09
-9.7273e-10
7.58668e-10
1.00143e-11
4.76116e-10
-3.18423e-10
-1.71777e-10
-6.7584e-10
8.72387e-10
-6.72274e-10
-3.81648e-06
1.44159e-05
3.45157e-06
-1.3183e-05
-8.03581e-10
8.44492e-10
-1.46903e-09
8.78478e-10
-8.79448e-10
-1.49174e-09
-1.50488e-09
-8.33096e-10
8.62985e-10
-1.30733e-09
-1.33623e-09
-9.64419e-10
1.0378e-09
-1.13948e-09
-1.22625e-09
-1.0022e-09
9.55311e-10
-1.06777e-09
-1.09787e-09
-1.06697e-09
7.7396e-10
-8.95988e-10
-9.97313e-10
-9.58153e-10
5.04819e-10
9.84426e-10
-9.56627e-10
-1.03446e-09
-1.04689e-09
8.44777e-10
-8.75456e-10
-1.2246e-09
-1.17784e-09
9.22859e-10
-9.55396e-10
-1.33257e-09
-1.28474e-09
9.62812e-10
-9.62738e-10
-1.45966e-09
-1.39731e-09
-1.52804e-09
-1.71971e-09
1.64167e-09
-7.85247e-10
8.154e-10
-7.79429e-10
7.66209e-10
-9.19765e-10
-8.41134e-10
1.14889e-09
7.4028e-10
-1.09755e-09
-8.32905e-10
6.77895e-10
-9.79249e-10
7.20143e-10
-7.66486e-10
-1.55154e-09
-9.0286e-10
9.73557e-10
-1.38277e-09
-8.09505e-10
-1.40803e-09
6.53305e-10
-7.13717e-10
1.11719e-09
-9.59229e-10
5.27959e-10
1.00456e-09
-8.79499e-10
6.15619e-10
-9.04844e-10
5.2221e-10
8.6537e-10
-8.296e-10
-7.57559e-10
6.96489e-10
-6.94655e-10
9.45359e-10
9.10959e-10
-1.19805e-09
8.47493e-10
-7.14773e-10
-7.55894e-10
7.48862e-10
1.46909e-09
1.60173e-09
-1.71766e-09
-7.4138e-10
1.42288e-09
-7.44665e-10
6.19709e-10
5.62731e-10
-8.05511e-10
-4.53156e-10
3.73595e-10
-7.70938e-10
-3.81508e-10
7.0475e-10
-5.26298e-10
1.03566e-09
2.04365e-05
5.71257e-06
-1.27287e-05
-1.26965e-05
8.34499e-10
-8.32182e-10
7.44227e-10
7.45357e-10
8.10814e-10
1.63796e-09
-1.48479e-09
-6.9e-10
-1.17023e-05
1.12085e-05
1.27736e-06
-7.05052e-10
1.05447e-09
1.00067e-09
-7.94937e-10
-7.93504e-10
8.13447e-10
-6.36407e-10
1.27659e-10
-9.35482e-10
8.16771e-10
1.46443e-09
1.41243e-09
-8.74134e-10
-7.43363e-10
7.56485e-10
1.49334e-09
1.49985e-09
-8.33199e-10
8.39398e-10
1.41827e-09
1.45824e-09
-7.79058e-10
7.27822e-10
1.35588e-09
1.41747e-09
-6.96363e-10
6.60858e-10
1.29547e-09
1.32681e-09
1.24934e-09
6.17788e-10
-6.78835e-10
1.27676e-09
1.17258e-09
7.57845e-10
1.41133e-09
-7.6613e-10
1.35899e-09
-2.48207e-10
1.05588e-09
-2.74882e-11
-6.78892e-06
8.30021e-06
-7.12596e-06
8.11561e-06
-7.34535e-10
1.49703e-09
7.08731e-10
1.47355e-09
-8.5429e-10
9.36338e-10
-1.29148e-09
7.83892e-10
-1.30773e-09
-6.18034e-10
-1.28418e-09
-9.71283e-10
9.76541e-10
-1.26641e-09
-1.29801e-09
-9.98615e-10
9.8875e-10
-1.12822e-09
-1.17281e-09
-1.01547e-09
1.00783e-09
-9.89944e-10
-1.09486e-09
-1.02974e-09
9.87385e-10
-9.35402e-10
-1.00487e-09
-9.51775e-10
8.97426e-10
-9.31327e-10
-9.64138e-10
-8.55779e-10
8.17968e-10
-8.89896e-10
-9.19427e-10
-7.12084e-10
6.62944e-10
3.71027e-10
-8.54231e-10
8.05803e-10
8.85346e-10
-9.26156e-10
-9.17365e-10
-8.90669e-10
9.69858e-10
-9.7199e-10
-9.45254e-10
-9.4656e-10
9.94892e-10
-1.01836e-09
-1.07229e-09
-1.04359e-09
1.03587e-09
-1.03892e-09
-1.16628e-09
-1.11971e-09
1.03607e-09
-1.01548e-09
-1.28165e-09
-1.2188e-09
-1.33748e-09
-1.73823e-09
1.76244e-09
-7.07746e-10
1.62714e-09
-6.96155e-10
-1.40855e-09
-6.97183e-10
-7.24021e-10
4.82364e-10
3.68684e-10
-3.79625e-10
-2.78617e-10
1.07874e-09
-1.37159e-09
9.44504e-10
-8.39962e-10
-7.82381e-10
1.00628e-09
6.16231e-10
-3.98677e-10
1.03719e-09
4.42606e-10
-8.93737e-10
9.10994e-10
-7.99717e-10
4.23986e-10
-8.51576e-10
6.27662e-10
8.27586e-10
6.96199e-10
-8.16462e-10
-8.48862e-10
6.32709e-10
7.73917e-10
-5.94181e-10
-1.02057e-09
-7.45503e-10
7.69193e-10
8.32716e-10
-7.67439e-10
8.08108e-10
-7.38493e-10
7.31935e-10
1.21892e-09
-7.45656e-10
1.18476e-09
-8.16871e-10
5.02441e-10
-7.99556e-10
5.2071e-10
-1.52424e-09
1.61625e-09
-5.56641e-10
-1.37607e-09
-4.26069e-10
-4.16565e-05
3.59396e-09
4.49838e-05
-4.92503e-09
1.27761e-09
-3.87046e-05
-5.61315e-09
4.16579e-05
-3.8708e-05
-1.98455e-09
4.49894e-05
-1.64959e-09
-1.40045e-09
1.6081e-09
-5.72598e-10
-6.69916e-10
7.94017e-10
-1.10403e-09
-5.39332e-10
-1.11436e-09
-5.54314e-10
4.16407e-10
-9.0161e-10
9.42438e-10
-4.41968e-10
8.67216e-10
3.0615e-10
5.24353e-10
-1.74896e-10
-7.14923e-10
-1.55988e-09
8.14653e-10
-9.48513e-09
-1.06869e-08
1.47337e-08
1.75231e-08
-1.03524e-05
-6.82818e-06
1.14986e-05
6.24873e-06
-1.36993e-05
-3.04011e-06
2.62361e-06
1.48188e-05
6.94908e-10
7.01427e-10
-5.36409e-06
-1.18619e-05
-5.9117e-10
1.6298e-09
-5.48191e-10
7.80577e-10
8.13604e-10
-9.21086e-10
-8.86985e-10
8.71637e-10
1.25849e-09
-1.48743e-09
1.22189e-09
-1.39423e-09
-7.84139e-10
7.44326e-10
1.28304e-09
1.26808e-09
-7.3751e-10
7.51227e-10
1.28993e-09
1.30566e-09
-7.54268e-10
7.35713e-10
1.2427e-09
1.2682e-09
-7.22691e-10
6.83079e-10
1.20248e-09
1.23093e-09
-6.53985e-10
6.14429e-10
1.16234e-09
1.17284e-09
-6.11949e-10
5.41166e-10
1.03153e-09
1.08291e-09
9.67555e-10
5.27961e-10
-6.10233e-10
1.16661e-09
1.12492e-09
6.62179e-10
-6.95482e-10
1.23848e-09
1.20558e-09
7.13648e-10
-6.96695e-10
1.27945e-09
-1.49915e-09
1.25992e-09
-1.44663e-09
6.80574e-10
-6.77786e-10
1.28492e-09
-1.49128e-09
1.28411e-09
-1.50098e-09
6.93959e-10
-7.04173e-10
1.26318e-09
1.27614e-09
-1.4883e-09
1.24451e-09
-3.60779e-05
1.89577e-09
-5.65216e-09
-3.37282e-05
-1.18842e-10
-5.41806e-09
-3.16249e-05
-2.55275e-09
-1.33334e-09
-2.97445e-05
-4.53884e-09
4.6204e-09
-2.80523e-05
-2.35669e-08
1.19782e-08
-2.65231e-05
-7.10816e-08
4.89207e-08
-2.51595e-05
-1.35521e-07
1.30193e-07
-2.39081e-05
-2.37525e-07
2.16544e-07
-2.27728e-05
-4.04872e-07
3.97876e-07
-5.49846e-07
-2.17756e-05
6.03158e-07
-2.1881e-05
2.28047e-05
-4.25372e-07
-2.08975e-05
-6.92166e-07
8.07032e-07
-7.97297e-07
-2.01285e-05
9.85812e-07
2.1095e-05
-2.0434e-05
-4.9524e-07
-4.8459e-07
-2.38652e-05
2.51275e-05
-2.70377e-07
-3.41644e-07
-2.65104e-05
2.80293e-05
-8.36595e-08
-1.5985e-07
-2.97358e-05
3.16254e-05
-1.62751e-08
-4.86393e-08
-3.37313e-05
3.60786e-05
-4.26484e-09
-9.07337e-09
-4.2669e-09
-8.69633e-10
9.86751e-10
-1.00845e-09
-9.44944e-10
-1.02248e-09
1.04365e-09
-9.8709e-10
-9.83774e-10
-1.0608e-09
1.04644e-09
-8.80297e-10
-9.27334e-10
-1.03484e-09
1.04271e-09
-8.11063e-10
-8.72662e-10
-1.03452e-09
1.03266e-09
-7.86854e-10
-8.25915e-10
-9.80462e-10
9.41295e-10
-8.1128e-10
-7.94369e-10
-8.87744e-10
8.33382e-10
-8.15534e-10
-8.18033e-10
-6.02065e-09
9.54149e-09
-5.96685e-09
-7.89058e-10
7.53399e-10
-8.47168e-10
9.12151e-10
-6.95375e-10
8.38856e-10
-9.03635e-10
-7.50049e-10
-7.10671e-10
6.69198e-10
7.63819e-10
-9.41842e-10
6.10209e-10
6.65519e-10
-4.17155e-10
-8.80596e-10
8.85953e-10
-8.35124e-10
-7.92172e-10
-7.50612e-10
9.00462e-10
-9.6535e-10
-7.93425e-10
-7.87755e-10
1.00244e-09
-1.00931e-09
-8.11012e-10
-8.1472e-10
1.03426e-09
-1.06532e-09
-8.5637e-10
-8.59696e-10
1.0824e-09
-1.08977e-09
-9.25432e-10
-8.92146e-10
1.08144e-09
-1.05507e-09
-1.01804e-09
-9.69656e-10
9.98867e-10
-9.11311e-10
-1.09323e-09
-1.06298e-09
-1.11037e-09
-1.72482e-09
1.76172e-09
-6.22009e-10
-5.90958e-10
-1.70692e-09
1.58485e-09
-6.81862e-10
-6.43817e-10
-1.39048e-09
1.14375e-09
-7.1617e-10
-7.00134e-10
-2.11637e-09
-2.43405e-09
3.4743e-09
3.48479e-09
-1.81499e-08
3.15842e-08
-9.89128e-09
1.46413e-08
-7.35724e-10
5.27003e-10
7.01355e-10
6.94991e-10
-7.53603e-10
7.30953e-10
7.11897e-10
-7.51834e-10
5.44714e-10
-3.81949e-10
-1.13685e-09
-3.10614e-10
9.50602e-10
7.87273e-11
2.58713e-09
-2.60388e-09
4.87568e-05
3.81587e-09
4.87615e-05
8.15488e-10
-5.21942e-10
-8.74992e-10
-3.30571e-07
-1.48225e-07
1.15396e-07
6.76775e-07
-2.17398e-05
2.27475e-05
6.42675e-07
-2.08016e-05
8.55749e-07
-7.53156e-10
4.207e-10
2.07388e-05
4.79316e-06
-7.45215e-06
-1.71065e-05
5.97471e-10
6.71239e-10
6.86703e-10
-6.83448e-10
4.80074e-10
1.13938e-09
-1.43283e-09
-6.96548e-10
8.44593e-10
-6.62791e-10
4.87538e-05
-4.49808e-05
-2.22149e-09
3.37888e-09
4.60704e-09
5.30535e-05
5.56111e-10
5.30614e-05
-1.38639e-09
1.58377e-09
-4.64119e-10
-1.10662e-09
-4.37346e-10
-6.70987e-10
8.07726e-10
-7.63264e-10
-5.88362e-10
-7.41962e-10
8.20518e-07
-1.98767e-05
-4.07498e-07
-1.9826e-05
1.47199e-06
6.59184e-10
4.61515e-10
-7.9247e-10
5.46452e-10
4.432e-10
-4.4719e-10
-7.58851e-10
4.42843e-10
3.85276e-10
5.4458e-10
5.27389e-10
-6.82571e-10
-4.7566e-10
6.12439e-10
4.9421e-10
-1.26487e-05
-3.509e-06
3.22489e-06
5.44251e-10
7.99482e-10
-7.42433e-10
-6.94968e-10
8.06731e-10
-6.10826e-10
1.45203e-10
3.26548e-10
-2.8593e-10
3.77166e-11
-7.26681e-10
7.50963e-10
8.62199e-10
1.1049e-09
-1.35324e-09
-6.60661e-10
8.20404e-10
-6.65464e-10
6.22422e-10
6.37665e-10
1.34279e-09
-3.05781e-10
-1.04183e-09
-1.57746e-09
1.6543e-09
-4.24269e-10
-3.51681e-10
-1.677e-09
1.56895e-09
-5.91294e-10
7.10374e-10
-5.05418e-10
-6.46766e-10
-8.33384e-10
8.00405e-10
9.56337e-10
1.07369e-09
-7.33432e-10
7.20536e-10
9.83912e-10
1.00495e-09
-7.11311e-10
7.22419e-10
9.99077e-10
1.02674e-09
-7.15888e-10
7.17516e-10
9.59365e-10
9.96125e-10
-7.02098e-10
6.78817e-10
9.46836e-10
9.60514e-10
-6.46023e-10
6.18451e-10
9.2964e-10
9.31113e-10
-5.44819e-10
4.32331e-10
9.04544e-10
9.01338e-10
8.88097e-10
-6.99182e-10
4.26657e-10
5.66419e-10
8.60502e-10
-6.52929e-10
2.58309e-10
-4.05591e-10
9.48331e-10
9.18936e-10
2.06814e-10
5.04116e-10
-5.96957e-10
9.71866e-10
9.52195e-10
6.5682e-10
-6.87691e-10
9.66864e-10
9.64034e-10
6.99458e-10
-6.91153e-10
9.8456e-10
9.74251e-10
6.81388e-10
-6.6958e-10
9.91998e-10
9.93852e-10
6.80111e-10
-7.00345e-10
9.74342e-10
9.90858e-10
7.35373e-10
-7.56424e-10
9.30699e-10
9.61849e-10
8.89713e-10
4.16533e-05
-3.87041e-05
-6.4421e-09
-5.21043e-09
3.60778e-05
-3.37301e-05
-7.76561e-09
-7.87832e-09
3.16241e-05
-2.97379e-05
4.50557e-10
-7.47424e-09
2.80509e-05
-2.65256e-05
2.95438e-08
7.09533e-09
2.51229e-05
-2.38986e-05
2.21592e-07
8.37045e-08
3.72563e-07
4.87639e-05
-4.49899e-05
3.86188e-09
-1.14481e-08
9.64788e-09
5.30701e-05
5.30584e-05
1.2061e-07
1.79723e-06
2.00824e-05
1.45749e-06
-3.26198e-08
5.47916e-09
7.61101e-08
-1.51641e-08
-2.05861e-05
2.12183e-05
-1.70293e-07
4.14404e-08
-2.19927e-05
2.29107e-05
-2.95072e-07
-2.6889e-07
-2.39549e-05
2.51389e-05
-2.2192e-07
-2.51747e-07
-2.64868e-05
2.80656e-05
-1.54884e-07
-1.51344e-07
-2.9752e-05
3.16317e-05
-1.84181e-08
-5.33433e-08
-3.37388e-05
3.60885e-05
-9.25514e-09
-1.70428e-08
-3.87134e-05
4.16634e-05
-4.25461e-09
-5.29763e-09
-9.03489e-10
-9.24609e-10
9.97394e-10
-6.40557e-10
-6.00799e-10
-1.07246e-09
1.09205e-09
-6.55891e-10
-6.56643e-10
-1.10664e-09
1.10729e-09
-6.02021e-10
-6.30614e-10
-1.0858e-09
1.08599e-09
-5.73381e-10
-5.96046e-10
-1.04246e-09
1.02432e-09
-5.76636e-10
-5.6503e-10
-9.88908e-10
9.54615e-10
-6.47765e-10
-5.95877e-10
-8.98614e-10
8.51998e-10
-7.10761e-10
-6.70502e-10
-7.90206e-10
7.43198e-10
-7.6008e-10
8.04219e-10
-6.99531e-10
-6.06906e-10
4.44772e-10
-7.85464e-10
-7.47257e-10
-7.57048e-10
7.49425e-10
3.70896e-10
-4.1128e-10
3.59348e-10
-7.51461e-10
-8.05781e-10
-9.00675e-10
6.21354e-10
6.85611e-10
2.79097e-10
-4.63025e-10
-7.6507e-10
-6.66179e-10
2.38528e-10
5.77826e-10
-2.51577e-10
-2.30196e-10
2.55968e-10
-7.32952e-10
-7.76037e-10
7.78125e-10
4.18338e-10
-5.6911e-10
-8.30627e-10
9.20708e-10
-7.7119e-10
7.22631e-10
-7.70859e-10
-7.15015e-10
-7.65037e-10
8.24925e-10
-8.85724e-10
-6.89924e-10
-6.84361e-10
9.33679e-10
-9.70739e-10
-6.55512e-10
-6.73025e-10
1.00649e-09
-1.02893e-09
-6.12914e-10
-6.39158e-10
1.06997e-09
-1.09465e-09
-6.03119e-10
-6.16235e-10
1.11804e-09
-1.13144e-09
-6.34581e-10
-6.17452e-10
1.12546e-09
-1.09306e-09
-6.99589e-10
-6.67402e-10
1.02672e-09
-9.23832e-10
-7.52721e-10
-7.30499e-10
-7.55365e-10
-1.69105e-09
1.72971e-09
-5.34447e-10
-4.86366e-10
-1.67651e-09
1.55017e-09
-6.0195e-10
-5.5869e-10
-6.33332e-10
-9.46982e-06
-9.29561e-06
6.52831e-09
1.47632e-09
-1.03019e-09
-3.59678e-09
-2.00435e-05
1.17611e-06
-7.12636e-10
4.63733e-10
6.447e-10
5.84893e-10
6.29534e-10
6.00352e-10
-6.52661e-10
4.73336e-10
-6.51548e-10
6.99351e-10
6.22999e-10
1.00599e-05
9.41352e-06
-8.79358e-06
-9.75103e-06
-8.37074e-10
6.77803e-10
4.11026e-10
5.76779e-10
-4.94966e-10
4.87637e-05
-4.49891e-05
-2.17784e-10
5.30671e-05
4.45828e-09
-1.08931e-09
1.34388e-09
-2.2877e-10
-9.95928e-09
5.27818e-09
-4.55498e-09
-2.61088e-10
-6.24702e-10
1.54955e-10
-2.50249e-10
-6.8241e-10
-7.50017e-10
-2.58108e-10
-8.02912e-10
-4.63657e-10
-7.3931e-10
7.67658e-10
6.05421e-10
-6.84249e-10
5.75176e-10
-1.92951e-05
2.22368e-06
4.32997e-10
-8.4711e-10
-4.23433e-10
9.77968e-10
-7.97907e-10
1.18557e-09
2.92045e-10
1.10419e-05
-9.6724e-06
3.70544e-10
-3.19241e-10
-2.16536e-05
2.27537e-05
5.85388e-07
-2.06862e-05
8.70611e-07
1.26297e-09
9.18915e-10
-1.03153e-09
1.88952e-09
-8.01137e-10
1.12232e-09
1.22187e-09
-1.23883e-09
1.75435e-09
6.03294e-10
4.14099e-10
-6.88564e-10
3.3037e-10
-6.25686e-10
3.84836e-10
6.11322e-10
5.63095e-10
5.06952e-10
-7.43253e-10
4.87783e-05
-4.50008e-05
3.20235e-09
5.30825e-05
1.31457e-08
-6.52345e-09
1.01411e-08
-5.65063e-09
8.62251e-09
1.43867e-05
-1.76065e-06
-1.53313e-05
1.50926e-05
-3.01355e-06
8.0696e-10
-8.35354e-10
-6.48033e-10
3.78951e-10
7.1748e-10
6.72411e-10
3.90746e-10
7.63544e-10
2.9951e-10
-7.53986e-10
3.25298e-10
6.90483e-10
7.59671e-10
1.40177e-10
-7.02095e-10
1.79219e-10
6.88902e-10
5.44639e-10
5.01299e-10
-5.88719e-10
3.7284e-10
-4.89575e-10
-5.89792e-10
6.16439e-10
6.61799e-10
-1.91444e-05
1.50767e-06
4.37124e-10
5.97415e-11
-1.73295e-10
-1.46335e-10
7.09599e-10
-4.63256e-10
-7.964e-10
6.39999e-09
-2.78788e-09
-2.57746e-09
1.40855e-09
5.05839e-10
5.65392e-10
-1.54265e-09
1.64572e-09
-3.48755e-10
-2.81193e-10
-1.65457e-09
1.56846e-09
-4.90761e-10
-4.20443e-10
-1.41329e-09
1.19921e-09
-6.05062e-10
-5.52454e-10
-9.98636e-10
7.65018e-10
-5.91491e-10
-6.21646e-10
6.72363e-10
-5.69618e-10
5.32362e-10
-6.28515e-10
7.85812e-10
7.47642e-10
-1.14463e-09
5.77761e-10
-7.98895e-10
7.42661e-10
6.86139e-10
7.25621e-10
-7.23366e-10
6.91191e-10
7.17262e-10
7.07603e-10
-6.91388e-10
6.86832e-10
7.25217e-10
7.39514e-10
-6.88097e-10
6.71374e-10
6.90045e-10
7.15359e-10
-6.63706e-10
6.42791e-10
6.71342e-10
6.76815e-10
-6.09618e-10
5.69814e-10
6.76494e-10
6.66319e-10
-5.11231e-10
4.60087e-10
6.83057e-10
6.69655e-10
-3.86265e-10
3.99367e-10
7.78824e-10
7.33457e-10
9.07582e-10
2.36503e-10
4.15406e-10
-3.96773e-10
7.98473e-10
-9.33173e-10
8.62104e-10
4.29327e-10
-4.83024e-10
7.37725e-10
7.50724e-10
5.41548e-10
-5.96034e-10
7.06447e-10
7.10596e-10
6.41805e-10
-6.7299e-10
6.77122e-10
6.83646e-10
6.88319e-10
-6.76816e-10
6.86197e-10
6.81207e-10
6.70319e-10
-6.67706e-10
7.11153e-10
7.07604e-10
6.7654e-10
-7.06408e-10
7.0807e-10
7.1039e-10
7.34979e-10
-7.59274e-10
6.66448e-10
6.91097e-10
6.34021e-10
4.16577e-05
-3.87041e-05
-9.64581e-09
-6.91377e-09
3.60747e-05
-3.37263e-05
-9.72449e-09
-1.06208e-08
3.16265e-05
-2.97408e-05
-2.11742e-09
-5.93966e-09
2.80516e-05
-2.65366e-05
2.1945e-08
1.74263e-09
2.51681e-05
-2.39084e-05
1.91976e-07
7.23471e-08
3.40833e-07
4.28032e-09
6.79652e-09
5.79845e-05
-1.15291e-08
1.84447e-08
5.80076e-05
5.79937e-05
2.47775e-10
5.96923e-10
-1.25123e-08
5.80125e-05
1.21562e-08
5.8e-05
-1.43151e-05
1.56702e-05
5.23309e-07
-1.28096e-06
-2.21317e-06
3.64061e-06
-1.94838e-05
2.00104e-05
1.78085e-06
2.59686e-06
-2.0427e-05
2.11364e-05
6.69968e-08
5.28152e-07
-2.19797e-05
2.29207e-05
-1.81529e-07
-1.22986e-07
-2.40076e-05
2.51833e-05
-1.63504e-07
-2.07158e-07
-2.65476e-05
2.80379e-05
-1.35635e-07
-1.56496e-07
-2.97232e-05
3.16279e-05
-4.55239e-08
-5.89952e-08
-3.37288e-05
3.60847e-05
-1.84821e-08
-1.83945e-08
-3.87153e-05
4.16698e-05
-8.11934e-09
-1.06073e-08
-2.72435e-09
-4.21649e-10
5.01354e-10
-4.13929e-10
3.2207e-10
-2.6071e-10
-5.22226e-10
-4.73671e-10
-6.212e-10
7.24936e-10
-2.71423e-10
-3.44413e-10
5.44699e-10
-8.71889e-10
9.76143e-10
-3.4892e-10
-3.55605e-10
-1.06734e-09
1.11626e-09
-3.74662e-10
-3.71741e-10
-1.14006e-09
1.13738e-09
-3.50856e-10
-3.67028e-10
-1.10861e-09
1.07773e-09
-3.41912e-10
-3.47855e-10
-1.04758e-09
1.01681e-09
-3.78047e-10
-3.51292e-10
-9.85183e-10
9.38909e-10
-4.78639e-10
-4.16636e-10
-8.8558e-10
8.25148e-10
-5.82745e-10
-5.224e-10
-7.76275e-10
6.94635e-10
-6.55726e-10
-6.04484e-10
-6.19221e-10
5.33835e-10
-7.08077e-10
-6.67493e-10
-4.3738e-10
3.78823e-10
-6.88063e-10
-7.13539e-10
-7.49087e-10
2.3655e-10
7.53626e-10
-3.14746e-10
2.49256e-10
-6.69152e-10
-6.79106e-10
1.76267e-10
7.33979e-10
-6.52685e-10
8.29464e-11
7.31028e-10
-6.4207e-10
-7.09645e-10
6.18776e-11
7.11151e-10
1.81017e-11
-1.1978e-10
-6.17159e-10
7.04397e-10
-6.17388e-10
1.96601e-10
-2.40539e-10
-6.66182e-10
-6.17235e-10
3.36232e-10
-4.22581e-10
-6.57094e-10
-6.54187e-10
4.54361e-10
-6.05251e-10
-6.85929e-10
-7.33258e-10
7.15739e-10
-7.5861e-10
-6.667e-10
-6.56464e-10
8.08465e-10
-8.41985e-10
-6.05054e-10
-6.06639e-10
8.90419e-10
-9.32423e-10
-5.16005e-10
-5.51794e-10
9.7525e-10
-1.01089e-09
-4.25943e-10
-4.72235e-10
1.05483e-09
-1.09472e-09
-3.74941e-10
-4.02114e-10
1.13159e-09
-1.15115e-09
-3.78445e-10
-3.7306e-10
1.14698e-09
-1.10645e-09
-4.14179e-10
-3.96064e-10
1.03041e-09
-9.14482e-10
-4.49165e-10
-4.28637e-10
8.0043e-10
-6.61225e-10
-4.67909e-10
-4.31065e-10
5.8564e-10
-4.67933e-10
-5.02078e-10
-4.00622e-10
-8.77264e-10
1.1197e-09
-3.19851e-10
-6.5829e-10
-1.38343e-09
1.56718e-09
-3.77327e-10
-3.58174e-10
-1.6713e-09
1.68939e-09
-4.49735e-10
-4.07252e-10
-1.64884e-09
1.52342e-09
-5.25172e-10
-4.87647e-10
-1.32749e-09
1.07798e-09
-5.85157e-10
-5.56228e-10
-8.05767e-10
-6.04211e-10
5.67097e-10
-5.90566e-10
-8.60638e-06
9.56167e-06
3.41388e-06
-1.70064e-05
-1.60697e-09
-7.07683e-10
-1.56903e-09
3.09927e-09
2.005e-09
-1.97142e-05
1.14562e-06
2.91046e-08
5.50114e-08
-1.89002e-08
1.31632e-09
-1.58594e-09
2.58167e-09
-2.2203e-09
1.45912e-09
-5.12655e-09
-2.90921e-09
-2.43707e-09
6.10868e-09
-1.73542e-09
-2.16088e-09
2.74116e-09
6.35871e-10
4.68765e-10
-6.61413e-10
4.07668e-10
-4.51526e-11
7.21913e-10
1.53305e-10
7.4807e-10
-6.25286e-10
4.34741e-10
6.06655e-10
5.14542e-10
5.02749e-10
-6.86123e-10
-7.104e-10
1.09826e-09
-4.93933e-10
-6.06854e-11
-1.0194e-10
1.72178e-10
6.02846e-10
-2.07382e-09
3.02189e-09
-2.18026e-09
3.57302e-09
-5.54394e-10
1.49995e-09
5.20793e-10
-4.57686e-10
7.35381e-10
2.0042e-08
5.80255e-05
1.3731e-05
-1.45377e-05
-1.41999e-07
1.54577e-05
-3.98407e-06
-5.53103e-10
8.00031e-10
-2.33991e-10
4.07863e-10
-4.01253e-10
-3.28692e-10
4.4294e-10
-3.20335e-10
-8.72416e-06
8.74203e-10
-9.37849e-10
-6.22715e-10
3.03646e-10
5.8253e-10
3.88479e-10
2.46232e-10
7.03408e-10
4.72404e-11
6.83341e-10
5.067e-10
4.79264e-10
-5.49224e-10
3.40788e-10
5.0971e-10
-5.52873e-10
-6.61232e-10
7.14041e-10
-9.51061e-10
-5.08598e-10
5.36381e-10
-5.04465e-10
-1.83296e-05
2.34691e-06
9.92304e-10
1.2476e-08
9.16784e-06
-5.96145e-06
-1.10568e-06
7.14179e-07
-1.15868e-05
-7.4738e-06
5.42812e-06
4.01101e-10
5.23682e-10
-1.97449e-09
-1.91632e-09
3.53963e-09
1.42115e-05
7.06674e-07
-3.8692e-06
-1.40181e-05
6.40823e-10
-6.4798e-10
-1.40793e-05
-5.31843e-06
5.47802e-10
-6.70001e-10
5.3521e-10
6.02357e-10
3.2685e-10
2.24726e-10
5.2131e-10
-5.27952e-10
3.84389e-10
5.30533e-10
5.66639e-10
-7.94937e-10
-5.12788e-10
-5.61426e-10
6.55332e-10
3.70171e-10
3.74292e-10
-4.54321e-10
2.16653e-08
-1.77579e-08
6.37254e-05
5.80321e-05
-5.30867e-05
1.35554e-08
2.16839e-08
6.3749e-05
-1.88214e-05
1.53916e-06
1.14921e-09
-2.7999e-10
5.15438e-10
-3.75697e-10
-5.33567e-10
6.44572e-10
6.30071e-10
-4.80874e-10
-1.94089e-09
1.59856e-09
-7.17608e-10
6.06214e-10
-6.91041e-10
-1.74099e-09
4.27121e-10
7.5558e-10
4.87763e-10
-7.15088e-10
7.3967e-10
6.49328e-10
-1.06282e-09
1.33771e-09
-2.09037e-10
-2.17769e-10
-1.53217e-09
1.63089e-09
-2.91497e-10
-2.39692e-10
-1.64819e-09
1.57159e-09
-4.08733e-10
-3.60607e-10
-1.43669e-09
1.21554e-09
-5.04264e-10
-4.74072e-10
-5.09264e-10
6.15306e-10
-5.30336e-10
3.70147e-10
-6.59624e-10
7.78017e-10
4.43549e-10
4.14305e-10
-8.38918e-10
7.70442e-10
4.73471e-10
4.16529e-10
-7.40259e-10
6.98868e-10
4.82622e-10
4.54927e-10
-6.83958e-10
6.76187e-10
4.76644e-10
4.8667e-10
-6.74012e-10
6.76592e-10
4.31391e-10
4.63161e-10
-6.71804e-10
6.57852e-10
4.17557e-10
4.23844e-10
-6.27096e-10
5.90229e-10
4.32505e-10
4.21349e-10
-5.33276e-10
4.74762e-10
4.89852e-10
4.4955e-10
-4.54575e-10
5.20058e-10
6.21704e-10
5.58089e-10
8.0063e-10
-2.11809e-09
3.66231e-09
2.59112e-09
-1.89194e-09
1.02805e-09
4.77224e-10
-5.07897e-10
5.37865e-10
6.2632e-10
5.6113e-10
-6.13163e-10
4.56732e-10
4.87974e-10
6.57642e-10
-6.82431e-10
4.14177e-10
4.28305e-10
6.84588e-10
-6.72378e-10
4.21111e-10
4.13281e-10
6.59759e-10
-6.63173e-10
4.62147e-10
4.46394e-10
6.82232e-10
-7.16703e-10
4.69313e-10
4.64425e-10
7.49318e-10
-7.76824e-10
4.40195e-10
4.53403e-10
7.70405e-10
-7.31352e-10
3.87219e-10
4.06814e-10
3.62833e-10
4.87763e-05
-4.49942e-05
-2.82343e-09
5.39891e-09
4.16619e-05
-3.87097e-05
-9.93077e-09
-7.10195e-09
3.60826e-05
-3.37354e-05
-9.62091e-09
-9.72803e-09
3.16304e-05
-2.97422e-05
-7.2627e-09
-8.21808e-09
2.80623e-05
-2.65474e-05
1.8815e-08
8.16017e-09
2.51853e-05
-2.39038e-05
1.43167e-07
7.12855e-08
2.27698e-05
-2.1658e-05
5.13944e-07
3.32559e-07
2.06218e-05
-1.95764e-05
1.04131e-06
8.13046e-07
2.41515e-08
-1.12103e-08
6.37109e-05
5.80469e-05
-5.3099e-05
1.8879e-08
-2.85407e-08
3.08055e-08
6.37619e-05
6.37375e-05
-7.56808e-10
4.31562e-09
6.36963e-05
6.36985e-05
6.37026e-05
-1.54557e-05
1.63157e-05
4.27791e-07
-1.42856e-06
-1.83215e-05
1.96961e-05
1.25817e-06
1.38306e-06
-2.04676e-05
2.12285e-05
2.50953e-07
6.57991e-07
-2.20623e-05
2.29971e-05
-6.16365e-08
3.65984e-08
-2.40412e-05
2.52518e-05
-1.35197e-07
-1.12622e-07
-2.65571e-05
2.80472e-05
-1.18426e-07
-1.00074e-07
-2.97384e-05
3.16156e-05
-4.51125e-08
-7.09484e-08
-3.37362e-05
3.60907e-05
-2.50416e-08
-3.94282e-08
-3.87194e-05
4.16716e-05
-8.63451e-09
-1.23597e-08
-4.50057e-05
4.87871e-05
1.472e-09
-5.1418e-09
1.23695e-08
-4.77285e-10
5.1878e-10
-2.03553e-10
-2.64858e-10
-6.49056e-10
7.87949e-10
-9.9199e-11
-2.00916e-10
-8.79356e-10
9.90523e-10
-1.10419e-10
-1.12599e-10
-1.07335e-09
1.13331e-09
-1.35879e-10
-1.16798e-10
-1.1551e-09
1.14229e-09
-1.33124e-10
-1.35932e-10
-1.10498e-09
1.05573e-09
-1.45409e-10
-1.40784e-10
-1.01083e-09
9.75337e-10
-2.13825e-10
-1.71214e-10
-9.3904e-10
8.96852e-10
-3.25916e-10
-2.58923e-10
-8.53446e-10
8.04247e-10
-4.49442e-10
-3.81589e-10
-7.61224e-10
6.95293e-10
-5.35275e-10
-4.90561e-10
-6.2051e-10
5.21728e-10
-5.80182e-10
-5.54935e-10
-4.43439e-10
3.82871e-10
-5.75193e-10
-5.98442e-10
-3.29462e-10
2.71587e-10
-5.33438e-10
-5.57404e-10
-1.91404e-10
8.62694e-11
-4.90971e-10
-5.05369e-10
3.15999e-11
-1.46518e-10
-4.68689e-10
-4.68345e-10
2.35621e-10
-3.19358e-10
-5.13478e-10
-4.77425e-10
3.60508e-10
-4.0595e-10
-5.4253e-10
-5.34775e-10
4.94064e-10
-5.61577e-10
-5.802e-10
-5.93324e-10
6.28232e-10
-7.05464e-10
-5.50857e-10
-5.56915e-10
7.50978e-10
-8.03381e-10
-4.81076e-10
-5.06792e-10
8.41799e-10
-8.83104e-10
-3.80026e-10
-4.30724e-10
9.28141e-10
-9.72926e-10
-2.66244e-10
-3.23353e-10
1.02917e-09
-1.08584e-09
-1.84876e-10
-2.23556e-10
1.13747e-09
-1.16932e-09
-1.57752e-10
-1.67156e-10
1.17014e-09
-1.1313e-09
-1.62554e-10
-1.59398e-10
1.05186e-09
-9.4536e-10
-1.77818e-10
-1.6627e-10
8.22095e-10
-7.35196e-10
-1.85377e-10
-1.68544e-10
6.23699e-10
-1.30146e-10
-6.93273e-10
-1.69351e-10
-1.37626e-09
1.55033e-09
-3.12378e-10
-2.78872e-10
-1.63752e-09
1.65202e-09
-3.82038e-10
-3.38609e-10
-1.59769e-09
1.48676e-09
-4.55214e-10
-4.19055e-10
-1.29757e-09
1.05743e-09
-5.09536e-10
-4.8299e-10
-5.05215e-10
2.78658e-10
1.23376e-05
-5.42254e-06
-1.10005e-05
6.84076e-06
-4.31194e-06
1.25578e-05
5.89539e-06
-1.28659e-05
4.1333e-10
-3.14452e-10
-3.0726e-10
-1.24878e-09
-1.63668e-09
9.82955e-10
-1.1187e-09
-1.39784e-09
-1.46746e-09
-6.02301e-10
3.57237e-10
5.66188e-10
3.89818e-10
1.66859e-10
6.88089e-10
-8.46652e-11
6.86599e-10
4.97593e-10
4.23059e-10
-5.26705e-10
3.82573e-10
5.19123e-10
-6.08205e-10
1.61708e-09
-7.23296e-10
-4.30805e-10
3.70977e-10
-9.20803e-10
1.31955e-09
-1.0923e-08
-6.60434e-09
1.90216e-08
-1.09439e-05
-5.87664e-06
1.06775e-05
-8.25276e-10
2.6405e-09
-1.68588e-05
2.91109e-06
4.72187e-10
-1.94089e-10
1.3864e-08
4.48289e-10
1.72448e-09
-1.26093e-09
-9.58323e-10
1.27491e-09
5.80682e-05
-5.31165e-05
1.79696e-08
6.37919e-05
2.65386e-08
-1.07245e-05
-8.5281e-06
1.60984e-05
-1.15362e-05
3.17245e-10
5.1616e-10
-1.06277e-05
-8.25903e-06
-1.29872e-09
-1.43251e-09
6.96761e-10
-7.78409e-10
-1.58187e-05
-3.02175e-06
3.47029e-06
-6.0862e-10
2.6437e-10
5.51681e-10
3.14506e-10
2.6179e-10
5.99753e-10
6.0075e-11
6.05142e-10
4.95075e-10
3.66109e-10
-5.4043e-10
3.64876e-10
4.12012e-10
-5.38696e-10
-6.53792e-10
8.7116e-10
-1.87355e-10
-4.53482e-10
-2.9555e-10
-5.88253e-10
6.84494e-10
2.31685e-10
-4.81826e-10
2.34995e-10
5.90447e-10
-8.13046e-10
-4.17807e-10
4.06813e-10
-3.53368e-10
5.80597e-05
-5.31052e-05
9.66373e-09
6.37806e-05
2.0146e-08
2.87295e-08
-2.01872e-08
7.03612e-05
2.93166e-08
7.03943e-05
5.9603e-09
1.37153e-09
-1.75628e-05
2.02673e-06
-9.1402e-10
1.15619e-09
-2.24015e-10
-6.91655e-10
-2.34965e-10
-1.84046e-05
1.28508e-06
-1.33345e-10
-3.68593e-11
1.761e-10
4.74696e-10
-5.19344e-10
-4.79323e-11
3.43997e-10
-2.33186e-10
-1.37947e-09
-6.99249e-10
3.32593e-10
6.81029e-10
3.98842e-10
-6.97889e-10
6.41252e-10
-1.12117e-09
1.34999e-09
-1.73477e-10
-1.85075e-10
-1.51285e-09
1.60448e-09
-2.48592e-10
-1.94719e-10
-1.61149e-09
1.55542e-09
-3.49233e-10
-2.98808e-10
-1.42208e-09
1.23915e-09
-4.31527e-10
-3.95255e-10
-1.01928e-09
7.82337e-10
-4.19911e-10
-4.36176e-10
-5.68578e-10
3.99125e-10
-3.29703e-10
-4.03558e-10
4.70043e-10
-3.7412e-10
2.74852e-10
-5.75926e-10
6.76558e-10
2.45428e-10
2.47112e-10
-7.79105e-10
8.33575e-10
2.74285e-10
2.54693e-10
-8.21285e-10
7.98078e-10
2.78387e-10
2.54164e-10
-7.39011e-10
6.90434e-10
2.97124e-10
2.79416e-10
-6.57923e-10
6.4048e-10
2.87783e-10
2.97439e-10
-6.37769e-10
6.33865e-10
2.47629e-10
2.7028e-10
-6.36103e-10
6.30221e-10
2.24849e-10
2.35401e-10
-6.08298e-10
5.72518e-10
2.42924e-10
2.31409e-10
-5.25481e-10
4.93292e-10
3.34138e-10
2.72364e-10
-5.17148e-10
5.95692e-10
5.96006e-10
4.28462e-10
8.2862e-10
6.37332e-09
-3.24721e-09
-5.12772e-09
6.41964e-10
-5.59149e-10
8.82455e-10
1.49346e-09
5.04617e-10
-5.20666e-10
3.98441e-10
5.5383e-10
5.64455e-10
-6.0814e-10
2.59183e-10
3.10118e-10
6.37975e-10
-6.55105e-10
2.18547e-10
2.28413e-10
6.51827e-10
-6.43938e-10
2.3441e-10
2.17963e-10
6.30386e-10
-6.40795e-10
2.78064e-10
2.49149e-10
6.71948e-10
-7.20018e-10
2.91048e-10
2.82288e-10
7.7165e-10
-7.99895e-10
2.62819e-10
2.7827e-10
7.99525e-10
-7.58904e-10
2.30744e-10
2.45329e-10
2.1632e-10
4.87869e-05
-4.50027e-05
-4.69614e-09
1.13795e-09
4.16673e-05
-3.87132e-05
-1.00901e-08
-8.57295e-09
3.60833e-05
-3.3735e-05
-1.14426e-08
-1.12159e-08
3.16319e-05
-2.97499e-05
-6.00676e-09
-9.72146e-09
2.80517e-05
-2.65392e-05
1.98003e-08
-2.2802e-09
2.51701e-05
-2.39227e-05
1.32447e-07
6.64142e-08
2.27157e-05
-2.16497e-05
4.95237e-07
2.57632e-07