/*--------------------------------*- C++ -*----------------------------------*\
| =========                 |                                                 |
| \\      /  F ield         | OpenFOAM: The Open Source CFD Toolbox           |
|  \\    /   O peration     | Version:  2212                                  |
|   \\  /    A nd           | Website:  www.openfoam.com                      |
|    \\/     M anipulation  |                                                 |
\*---------------------------------------------------------------------------*/
FoamFile
{
    version     2.0;
    format      ascii;
    arch        "LSB;label=32;scalar=64";
    class       surfaceScalarField;
    location    "0.000177";
    object      phi;
}
// * * * * * * * * * * * * * * * * * * * * * * * * * * * * * * * * * * * * * //

dimensions      [1 0 -1 0 0 0 0];

oriented        oriented;

internalField   nonuniform List<scalar> 
115921
(
-4.94846e-09
3.04343e-12
-4.31198e-09
-2.66488e-10
-3.98793e-09
3.12735e-11
-3.70023e-09
4.35215e-11
-3.43887e-09
9.75657e-11
-3.18871e-09
1.4032e-10
-2.95711e-09
1.83253e-10
-2.75165e-09
2.14091e-10
-2.57057e-09
2.32519e-10
-2.40771e-09
2.50085e-10
-2.24512e-09
2.89865e-10
-2.0836e-09
3.36252e-10
-1.94057e-09
3.43272e-10
-1.8139e-09
3.43291e-10
-1.69514e-09
3.5742e-10
-1.57877e-09
3.92044e-10
-1.47193e-09
4.09105e-10
-1.38281e-09
3.81562e-10
-1.30983e-09
3.41251e-10
-1.24431e-09
3.29733e-10
-1.1778e-09
3.6089e-10
-1.11077e-09
4.17354e-10
-1.04764e-09
4.7127e-10
-9.90536e-10
4.91924e-10
-9.39508e-10
4.9224e-10
-8.91924e-10
5.0483e-10
-8.52171e-10
4.69302e-10
-8.17181e-10
4.59063e-10
-7.84487e-10
4.87299e-10
-7.54247e-10
5.25294e-10
-7.27137e-10
5.62616e-10
-7.04531e-10
5.69471e-10
-6.872e-10
5.2589e-10
-6.73492e-10
4.89236e-10
-6.61636e-10
4.8964e-10
-6.50992e-10
5.03599e-10
-6.41848e-10
4.88431e-10
-6.33251e-10
5.16028e-10
-6.25404e-10
5.29264e-10
-6.18343e-10
5.28831e-10
-6.11856e-10
5.36831e-10
-6.05767e-10
5.47093e-10
-5.99887e-10
5.60979e-10
-5.94172e-10
5.65745e-10
-5.88406e-10
5.76732e-10
-5.82365e-10
5.93046e-10
-5.7615e-10
5.90411e-10
-5.69648e-10
5.93746e-10
-5.62992e-10
5.85327e-10
-5.56581e-10
5.48718e-10
-5.50244e-10
5.3151e-10
-5.43899e-10
5.23023e-10
-5.37617e-10
5.10391e-10
-5.31209e-10
5.09705e-10
-5.24729e-10
5.05302e-10
-5.18208e-10
4.99328e-10
-5.11411e-10
5.08226e-10
-5.03442e-10
5.63389e-10
-4.9417e-10
6.04941e-10
-4.84434e-10
5.91451e-10
-4.74832e-10
5.54461e-10
-4.64769e-10
5.4862e-10
-4.53814e-10
5.59703e-10
-4.42249e-10
5.53384e-10
-4.30379e-10
5.36774e-10
-4.1738e-10
5.58158e-10
-4.01585e-10
6.39512e-10
-3.84387e-10
6.59898e-10
-3.67617e-10
6.18027e-10
-3.50958e-10
5.91911e-10
-3.33374e-10
6.0034e-10
-3.1469e-10
6.14494e-10
-2.94863e-10
6.32088e-10
-2.74043e-10
6.43992e-10
-2.52625e-10
6.40565e-10
-2.31228e-10
6.20461e-10
-2.08608e-10
6.37971e-10
-1.84952e-10
6.54158e-10
-1.61312e-10
6.43712e-10
-1.37966e-10
6.26358e-10
-1.13395e-10
6.44461e-10
-8.79501e-11
6.55883e-10
-6.33478e-11
6.31065e-10
-3.91618e-11
6.18505e-10
-1.44995e-11
6.1963e-10
1.15679e-11
6.28527e-10
3.94671e-11
6.49962e-10
6.75907e-11
6.56432e-10
9.3999e-11
6.23983e-10
1.2144e-10
6.35685e-10
1.53202e-10
6.90928e-10
1.88612e-10
7.15312e-10
2.22541e-10
6.9153e-10
2.54358e-10
6.93157e-10
2.85403e-10
6.94237e-10
3.16345e-10
6.6989e-10
3.47835e-10
6.46727e-10
3.78867e-10
6.35696e-10
4.08919e-10
6.28003e-10
4.39206e-10
6.36902e-10
4.69397e-10
6.45996e-10
5.00473e-10
6.59862e-10
5.35743e-10
7.41242e-10
5.73806e-10
8.00943e-10
6.11581e-10
8.12313e-10
6.49027e-10
8.33025e-10
6.84076e-10
8.24184e-10
7.15147e-10
7.89521e-10
7.44805e-10
8.00426e-10
7.72686e-10
8.14022e-10
7.98699e-10
8.21418e-10
8.21098e-10
8.02324e-10
8.38625e-10
7.61903e-10
8.51036e-10
7.28906e-10
8.58822e-10
7.20623e-10
8.62682e-10
7.39115e-10
8.62606e-10
7.78027e-10
8.59135e-10
8.41116e-10
8.52907e-10
8.68477e-10
8.45303e-10
8.54434e-10
8.39059e-10
8.05315e-10
8.34925e-10
7.39018e-10
8.32511e-10
7.18474e-10
8.31198e-10
7.46484e-10
8.324e-10
8.26074e-10
8.40136e-10
8.66439e-10
8.61456e-10
8.32594e-10
9.10669e-10
8.28418e-10
1.01371e-09
8.21072e-10
1.17915e-09
7.89924e-10
1.38918e-09
7.39152e-10
1.62256e-09
7.40055e-10
1.87835e-09
7.61405e-10
2.14037e-09
7.85599e-10
2.40247e-09
7.78664e-10
2.61813e-09
7.6865e-10
2.78144e-09
7.07053e-10
2.90634e-09
6.21543e-10
3.15175e-09
3.53838e-10
3.7228e-09
7.67449e-11
5.02011e-09
-4.65823e-10
6.10567e-09
-2.0472e-10
7.65008e-10
5.8909e-09
-8.44145e-09
-1.87837e-10
-7.87025e-09
-4.52378e-10
-7.48659e-09
2.30086e-11
-7.1118e-09
1.58283e-11
-6.76971e-09
1.26878e-10
-6.41909e-09
1.90959e-10
-6.08908e-09
2.77125e-10
-5.77913e-09
3.30825e-10
-5.49974e-09
3.72346e-10
-5.23987e-09
4.07438e-10
-4.976e-09
4.82036e-10
-4.7074e-09
5.68198e-10
-4.46479e-09
5.89151e-10
-4.24711e-09
5.97438e-10
-4.04223e-09
6.30363e-10
-3.84045e-09
7.00079e-10
-3.65228e-09
7.38199e-10
-3.49323e-09
6.9477e-10
-3.36225e-09
6.26464e-10
-3.24517e-09
6.1061e-10
-3.13009e-09
6.76693e-10
-3.01908e-09
7.89841e-10
-2.90827e-09
8.94678e-10
-2.80414e-09
9.37282e-10
-2.70921e-09
9.41538e-10
-2.62056e-09
9.69702e-10
-2.54886e-09
9.07382e-10
-2.48739e-09
8.92564e-10
-2.43115e-09
9.5172e-10
-2.37994e-09
1.02962e-09
-2.33436e-09
1.10611e-09
-2.29619e-09
1.12244e-09
-2.26655e-09
1.03879e-09
-2.24274e-09
9.68318e-10
-2.22171e-09
9.70265e-10
-2.20224e-09
9.9864e-10
-2.1849e-09
9.69265e-10
-2.16768e-09
1.02374e-09
-2.15071e-09
1.0494e-09
-2.13423e-09
1.04804e-09
-2.11785e-09
1.06341e-09
-2.10125e-09
1.08328e-09
-2.08406e-09
1.11038e-09
-2.06642e-09
1.11991e-09
-2.04785e-09
1.14128e-09
-2.02795e-09
1.17281e-09
-2.00731e-09
1.16708e-09
-1.98567e-09
1.17313e-09
-1.96349e-09
1.15605e-09
-1.94206e-09
1.08365e-09
-1.92075e-09
1.04944e-09
-1.89926e-09
1.03236e-09
-1.87779e-09
1.00713e-09
-1.85575e-09
1.00513e-09
-1.8333e-09
9.96131e-10
-1.81056e-09
9.84277e-10
-1.78672e-09
1.00144e-09
-1.75891e-09
1.10843e-09
-1.72721e-09
1.18857e-09
-1.6946e-09
1.16161e-09
-1.66283e-09
1.08921e-09
-1.6299e-09
1.07699e-09
-1.59459e-09
1.09766e-09
-1.55793e-09
1.08404e-09
-1.52077e-09
1.05037e-09
-1.48043e-09
1.09092e-09
-1.43206e-09
1.24843e-09
-1.38027e-09
1.28781e-09
-1.33032e-09
1.20602e-09
-1.281e-09
1.15424e-09
-1.22927e-09
1.16929e-09
-1.17468e-09
1.19569e-09
-1.117e-09
1.2294e-09
-1.05678e-09
1.25244e-09
-9.95303e-10
1.24479e-09
-9.34278e-10
1.20451e-09
-8.7009e-10
1.23742e-09
-8.03299e-10
1.26849e-09
-7.36846e-10
1.24835e-09
-6.71438e-10
1.21474e-09
-6.02909e-10
1.24914e-09
-5.32206e-10
1.27107e-09
-4.63625e-10
1.22315e-09
-3.95757e-10
1.19866e-09
-3.27347e-10
1.20192e-09
-2.57698e-10
1.22008e-09
-1.84882e-10
1.26079e-09
-1.09591e-10
1.27032e-09
-3.60366e-11
1.20529e-09
4.11224e-11
1.22753e-09
1.26331e-10
1.33424e-09
2.15503e-10
1.3816e-09
3.02775e-10
1.33354e-09
3.91056e-10
1.33552e-09
4.80447e-10
1.33738e-09
5.67151e-10
1.29137e-09
6.51384e-10
1.2469e-09
7.34832e-10
1.22516e-09
8.16975e-10
1.21056e-09
8.99655e-10
1.2286e-09
9.82795e-10
1.24688e-09
1.06896e-09
1.27192e-09
1.16691e-09
1.42733e-09
1.27289e-09
1.54198e-09
1.37915e-09
1.56472e-09
1.48596e-09
1.60614e-09
1.58806e-09
1.59158e-09
1.68163e-09
1.52719e-09
1.77357e-09
1.54928e-09
1.8631e-09
1.5774e-09
1.94991e-09
1.59273e-09
2.02926e-09
1.55829e-09
2.09771e-09
1.48346e-09
2.15518e-09
1.42353e-09
2.20396e-09
1.41136e-09
2.24699e-09
1.45044e-09
2.28444e-09
1.53066e-09
2.31639e-09
1.65997e-09
2.34119e-09
1.72093e-09
2.35791e-09
1.69989e-09
2.37183e-09
1.6054e-09
2.384e-09
1.47634e-09
2.39519e-09
1.43827e-09
2.40509e-09
1.49779e-09
2.41852e-09
1.65793e-09
2.43995e-09
1.73836e-09
2.47755e-09
1.66887e-09
2.55167e-09
1.65656e-09
2.69697e-09
1.63298e-09
2.95471e-09
1.54192e-09
3.28861e-09
1.40188e-09
3.68046e-09
1.35837e-09
4.12978e-09
1.36256e-09
4.62879e-09
1.36354e-09
5.14311e-09
1.32298e-09
5.63267e-09
1.26743e-09
6.04139e-09
1.1695e-09
6.37895e-09
1.01367e-09
6.70158e-09
6.58185e-10
7.17901e-09
3.53695e-10
7.68216e-09
-1.0878e-10
8.31909e-09
9.6794e-11
1.37512e-09
8.42767e-09
-1.04851e-08
-1.87261e-10
-1.00545e-08
-4.68559e-10
-9.69518e-09
6.20785e-11
-9.34275e-09
2.75886e-11
-9.00819e-09
1.83842e-10
-8.6487e-09
2.53105e-10
-8.30618e-09
3.79248e-10
-7.97424e-09
4.45721e-10
-7.67243e-09
5.08757e-10
-7.3881e-09
5.58435e-10
-7.09891e-09
6.67711e-10
-6.80268e-09
7.92455e-10
-6.5339e-09
8.27934e-10
-6.2911e-09
8.44692e-10
-6.06239e-09
8.97679e-10
-5.83624e-09
1.00274e-09
-5.62274e-09
1.06114e-09
-5.44007e-09
1.00246e-09
-5.2893e-09
9.0884e-10
-5.1555e-09
8.92646e-10
-5.03507e-09
1.0003e-09
-4.90674e-09
1.16082e-09
-4.77434e-09
1.3139e-09
-4.65032e-09
1.381e-09
-4.53814e-09
1.39192e-09
-4.43495e-09
1.4384e-09
-4.35211e-09
1.35123e-09
-4.28092e-09
1.33279e-09
-4.21569e-09
1.42395e-09
-4.15609e-09
1.54258e-09
-4.10251e-09
1.65871e-09
-4.05666e-09
1.6843e-09
-4.01984e-09
1.55965e-09
-3.98894e-09
1.45466e-09
-3.96036e-09
1.45761e-09
-3.93259e-09
1.49981e-09
-3.90656e-09
1.45534e-09
-3.87964e-09
1.53574e-09
-3.85216e-09
1.57264e-09
-3.82452e-09
1.56933e-09
-3.79589e-09
1.59094e-09
-3.76592e-09
1.61939e-09
-3.73417e-09
1.65886e-09
-3.70096e-09
1.67273e-09
-3.66576e-09
1.7038e-09
-3.62807e-09
1.74959e-09
-3.58904e-09
1.74005e-09
-3.54825e-09
1.74807e-09
-3.50659e-09
1.7218e-09
-3.46634e-09
1.61363e-09
-3.42636e-09
1.56218e-09
-3.38605e-09
1.53611e-09
-3.34575e-09
1.49795e-09
-3.30444e-09
1.49387e-09
-3.26242e-09
1.4799e-09
-3.21983e-09
1.46197e-09
-3.17521e-09
1.48673e-09
-3.1237e-09
1.64311e-09
-3.0659e-09
1.75975e-09
-3.00713e-09
1.71929e-09
-2.95017e-09
1.61238e-09
-2.89169e-09
1.59333e-09
-2.82972e-09
1.62249e-09
-2.76613e-09
1.60075e-09
-2.70229e-09
1.54952e-09
-2.63363e-09
1.60762e-09
-2.55213e-09
1.83774e-09
-2.46553e-09
1.89516e-09
-2.38247e-09
1.77466e-09
-2.30093e-09
1.69735e-09
-2.21597e-09
1.71756e-09
-2.12689e-09
1.75476e-09
-2.03361e-09
1.80354e-09
-1.93684e-09
1.83606e-09
-1.8382e-09
1.82308e-09
-1.74032e-09
1.76247e-09
-1.63752e-09
1.80921e-09
-1.53068e-09
1.85427e-09
-1.42439e-09
1.82496e-09
-1.3198e-09
1.77582e-09
-1.21049e-09
1.82515e-09
-1.09807e-09
1.85709e-09
-9.89509e-10
1.7877e-09
-8.82606e-10
1.75188e-09
-7.74719e-10
1.75645e-09
-6.6429e-10
1.78251e-09
-5.48775e-10
1.84112e-09
-4.30255e-10
1.85329e-09
-3.155e-10
1.75675e-09
-1.96135e-10
1.78726e-09
-6.42349e-11
1.94164e-09
7.5033e-11
2.00997e-09
2.10042e-10
1.93902e-09
3.44621e-10
1.94377e-09
4.81082e-10
1.94506e-09
6.14278e-10
1.87698e-09
7.43871e-10
1.81156e-09
8.72311e-10
1.77902e-09
9.99269e-10
1.75811e-09
1.12695e-09
1.78558e-09
1.25545e-09
1.81318e-09
1.38865e-09
1.84702e-09
1.54002e-09
2.07033e-09
1.70382e-09
2.23587e-09
1.8685e-09
2.26962e-09
2.03491e-09
2.33094e-09
2.19523e-09
2.31235e-09
2.34395e-09
2.22135e-09
2.4916e-09
2.25384e-09
2.63714e-09
2.29611e-09
2.77999e-09
2.31865e-09
2.91308e-09
2.27073e-09
3.03127e-09
2.16527e-09
3.13474e-09
2.08206e-09
3.22756e-09
2.06794e-09
3.31481e-09
2.12724e-09
3.39701e-09
2.24834e-09
3.47492e-09
2.44245e-09
3.54599e-09
2.53742e-09
3.60676e-09
2.51269e-09
3.65923e-09
2.37788e-09
3.70449e-09
2.19151e-09
3.74638e-09
2.1383e-09
3.78534e-09
2.23133e-09
3.82901e-09
2.47214e-09
3.88e-09
2.59379e-09
3.94226e-09
2.49449e-09
4.03705e-09
2.47966e-09
4.203e-09
2.44199e-09
4.49998e-09
2.29595e-09
4.87761e-09
2.05844e-09
5.31639e-09
1.95383e-09
5.82667e-09
1.92209e-09
6.40248e-09
1.88176e-09
7.00162e-09
1.79307e-09
7.57725e-09
1.68107e-09
8.03686e-09
1.56167e-09
8.3214e-09
1.37229e-09
8.39504e-09
1.16786e-09
8.43097e-09
8.98056e-10
8.27462e-09
7.28151e-10
8.33187e-09
9.59499e-10
2.30435e-09
8.42179e-09
-1.24912e-08
-9.45827e-11
-1.21241e-08
-3.78396e-10
-1.1749e-08
1.2984e-10
-1.14206e-08
1.00425e-10
-1.10942e-08
2.87384e-10
-1.07496e-08
3.68761e-10
-1.04139e-08
5.27029e-10
-1.00872e-08
6.03289e-10
-9.78726e-09
6.82583e-10
-9.50366e-09
7.44281e-10
-9.21402e-09
8.88948e-10
-8.91563e-09
1.05298e-09
-8.64325e-09
1.10004e-09
-8.39614e-09
1.12288e-09
-8.16225e-09
1.19502e-09
-7.92953e-09
1.33584e-09
-7.70959e-09
1.41539e-09
-7.52155e-09
1.34161e-09
-7.36584e-09
1.22194e-09
-7.24137e-09
1.20835e-09
-7.10783e-09
1.34083e-09
-6.97138e-09
1.5559e-09
-6.83405e-09
1.76244e-09
-6.69928e-09
1.84959e-09
-6.57566e-09
1.86597e-09
-6.46558e-09
1.93525e-09
-6.37403e-09
1.81858e-09
-6.29553e-09
1.79688e-09
-6.2231e-09
1.92124e-09
-6.15588e-09
2.08116e-09
-6.09395e-09
2.237e-09
-6.03896e-09
2.2704e-09
-5.9927e-09
2.1015e-09
-5.95194e-09
1.95961e-09
-5.91249e-09
1.96234e-09
-5.87251e-09
2.0175e-09
-5.83356e-09
1.9563e-09
-5.79211e-09
2.0618e-09
-5.74885e-09
2.10859e-09
-5.70455e-09
2.10191e-09
-5.65827e-09
2.12881e-09
-5.60956e-09
2.16506e-09
-5.55778e-09
2.2163e-09
-5.50339e-09
2.23412e-09
-5.44584e-09
2.27442e-09
-5.38461e-09
2.33385e-09
-5.32157e-09
2.31979e-09
-5.25617e-09
2.32916e-09
-5.18977e-09
2.29306e-09
-5.12583e-09
2.14841e-09
-5.06242e-09
2.07907e-09
-4.99861e-09
2.04336e-09
-4.93497e-09
1.99163e-09
-4.87e-09
1.98466e-09
-4.80412e-09
1.96521e-09
-4.73749e-09
1.94087e-09
-4.66797e-09
1.97269e-09
-4.58853e-09
2.177e-09
-4.50037e-09
2.32879e-09
-4.41145e-09
2.27458e-09
-4.32577e-09
2.13353e-09
-4.23847e-09
2.10709e-09
-4.14673e-09
2.14388e-09
-4.05336e-09
2.1131e-09
-3.96034e-09
2.04358e-09
-3.86107e-09
2.11805e-09
-3.74427e-09
2.41886e-09
-3.62105e-09
2.49393e-09
-3.50339e-09
2.33522e-09
-3.38841e-09
2.232e-09
-3.26926e-09
2.25608e-09
-3.14496e-09
2.30291e-09
-3.01516e-09
2.36603e-09
-2.88103e-09
2.40783e-09
-2.74516e-09
2.38884e-09
-2.6112e-09
2.30739e-09
-2.47136e-09
2.36689e-09
-2.326e-09
2.42469e-09
-2.18112e-09
2.38571e-09
-2.03877e-09
2.32121e-09
-1.89043e-09
2.38428e-09
-1.73804e-09
2.42542e-09
-1.59039e-09
2.3349e-09
-1.44465e-09
2.28801e-09
-1.29766e-09
2.29364e-09
-1.14764e-09
2.32721e-09
-9.9132e-10
2.40277e-09
-8.31751e-10
2.41699e-09
-6.7805e-10
2.28933e-09
-5.18677e-10
2.32654e-09
-3.42647e-10
2.52545e-09
-1.58557e-10
2.61375e-09
1.849e-11
2.52345e-09
1.98158e-10
2.5279e-09
3.78551e-10
2.52936e-09
5.54437e-10
2.43927e-09
7.25416e-10
2.35312e-09
8.94304e-10
2.30987e-09
1.06096e-09
2.28305e-09
1.2288e-09
2.32009e-09
1.39779e-09
2.35719e-09
1.57265e-09
2.39789e-09
1.77111e-09
2.68457e-09
1.98575e-09
2.89799e-09
2.20145e-09
2.94259e-09
2.41944e-09
3.02356e-09
2.63002e-09
3.00246e-09
2.82633e-09
2.88705e-09
3.02215e-09
2.92891e-09
3.21638e-09
2.98464e-09
3.40822e-09
3.01321e-09
3.58873e-09
2.95262e-09
3.75144e-09
2.81846e-09
3.89694e-09
2.71376e-09
4.03066e-09
2.69872e-09
4.15974e-09
2.7772e-09
4.28529e-09
2.93808e-09
4.40954e-09
3.19522e-09
4.52751e-09
3.32449e-09
4.6338e-09
3.29722e-09
4.72819e-09
3.12467e-09
4.81061e-09
2.88404e-09
4.88718e-09
2.81767e-09
4.96104e-09
2.94489e-09
5.04196e-09
3.26496e-09
5.13049e-09
3.42649e-09
5.22821e-09
3.29945e-09
5.35322e-09
3.28635e-09
5.5405e-09
3.24577e-09
5.84668e-09
3.06206e-09
6.25962e-09
2.72918e-09
6.72683e-09
2.56878e-09
7.25911e-09
2.49193e-09
7.85404e-09
2.40353e-09
8.4693e-09
2.26403e-09
9.04669e-09
2.09811e-09
9.49383e-09
1.9602e-09
9.62158e-09
1.83947e-09
9.64767e-09
1.67974e-09
9.40225e-09
1.66408e-09
8.83884e-09
1.77738e-09
8.12025e-09
2.28736e-09
3.66206e-09
7.60674e-09
-1.39625e-08
2.20398e-10
-1.36696e-08
-1.82452e-10
-1.33222e-08
2.5e-10
-1.30507e-08
2.52695e-10
-1.27493e-08
4.41092e-10
-1.24439e-08
5.49595e-10
-1.21339e-08
7.2771e-10
-1.18353e-08
8.15656e-10
-1.15575e-08
9.04171e-10
-1.12949e-08
9.75938e-10
-1.10255e-08
1.15669e-09
-1.07471e-08
1.36148e-09
-1.04914e-08
1.41572e-09
-1.02579e-08
1.4404e-09
-1.00365e-08
1.53027e-09
-9.8164e-09
1.70879e-09
-9.60857e-09
1.81237e-09
-9.42558e-09
1.72301e-09
-9.29268e-09
1.57257e-09
-9.16566e-09
1.54032e-09
-9.03342e-09
1.70164e-09
-8.89262e-09
1.97001e-09
-8.74917e-09
2.23107e-09
-8.61453e-09
2.34496e-09
-8.49223e-09
2.36774e-09
-8.38068e-09
2.45511e-09
-8.28685e-09
2.30663e-09
-8.20241e-09
2.27746e-09
-8.12389e-09
2.43493e-09
-8.05053e-09
2.63665e-09
-7.98086e-09
2.83083e-09
-7.91671e-09
2.86988e-09
-7.8606e-09
2.65396e-09
-7.80931e-09
2.4733e-09
-7.75815e-09
2.47449e-09
-7.70493e-09
2.54142e-09
-7.65204e-09
2.46224e-09
-7.59502e-09
2.59159e-09
-7.53503e-09
2.64686e-09
-7.47321e-09
2.63558e-09
-7.40839e-09
2.66675e-09
-7.34008e-09
2.70997e-09
-7.2675e-09
2.77234e-09
-7.19142e-09
2.794e-09
-7.1112e-09
2.84304e-09
-7.02621e-09
2.91536e-09
-6.93911e-09
2.89633e-09
-6.84916e-09
2.90655e-09
-6.75821e-09
2.86029e-09
-6.67088e-09
2.67925e-09
-6.58448e-09
2.59181e-09
-6.49775e-09
2.54612e-09
-6.41145e-09
2.48057e-09
-6.32363e-09
2.47006e-09
-6.23483e-09
2.44488e-09
-6.14525e-09
2.41409e-09
-6.05205e-09
2.45252e-09
-5.94621e-09
2.70279e-09
-5.82958e-09
2.88813e-09
-5.71258e-09
2.82039e-09
-5.60024e-09
2.64626e-09
-5.48633e-09
2.61222e-09
-5.36729e-09
2.65592e-09
-5.24682e-09
2.61555e-09
-5.12742e-09
2.52739e-09
-5.00066e-09
2.61718e-09
-4.85246e-09
2.98642e-09
-4.69686e-09
3.07891e-09
-4.5488e-09
2.88318e-09
-4.40453e-09
2.75406e-09
-4.25547e-09
2.78079e-09
-4.10034e-09
2.83608e-09
-3.93858e-09
2.91272e-09
-3.77168e-09
2.96327e-09
-3.60313e-09
2.93758e-09
-3.43733e-09
2.83489e-09
-3.26422e-09
2.90551e-09
-3.08442e-09
2.97517e-09
-2.90597e-09
2.92744e-09
-2.73108e-09
2.84845e-09
-2.54927e-09
2.92447e-09
-2.36282e-09
2.97454e-09
-2.18251e-09
2.86397e-09
-2.00455e-09
2.80604e-09
-1.8245e-09
2.81197e-09
-1.64073e-09
2.8528e-09
-1.44959e-09
2.94434e-09
-1.255e-09
2.96011e-09
-1.06812e-09
2.80197e-09
-8.74843e-10
2.84461e-09
-6.61601e-10
3.08509e-09
-4.3884e-10
3.19198e-09
-2.23914e-10
3.08308e-09
-1.13735e-11
3.09267e-09
2.07902e-10
3.08951e-09
4.19792e-10
2.97819e-09
6.25578e-10
2.87188e-09
8.28604e-10
2.81798e-09
1.02873e-09
2.78587e-09
1.23037e-09
2.83276e-09
1.43343e-09
2.87959e-09
1.64321e-09
2.92549e-09
1.88103e-09
3.27145e-09
2.13817e-09
3.52998e-09
2.39672e-09
3.58522e-09
2.65834e-09
3.68562e-09
2.91151e-09
3.66343e-09
3.14804e-09
3.52583e-09
3.38454e-09
3.57623e-09
3.61992e-09
3.64481e-09
3.8533e-09
3.67825e-09
4.07389e-09
3.60579e-09
4.27373e-09
3.44538e-09
4.45436e-09
3.32122e-09
4.62287e-09
3.30587e-09
4.78818e-09
3.40194e-09
4.95227e-09
3.60032e-09
5.11919e-09
3.91703e-09
5.28139e-09
4.07979e-09
5.4308e-09
4.05073e-09
5.56622e-09
3.84257e-09
5.686e-09
3.55058e-09
5.79787e-09
3.47303e-09
5.90774e-09
3.63444e-09
6.02698e-09
4.0319e-09
6.1553e-09
4.23181e-09
6.28875e-09
4.07986e-09
6.44498e-09
4.07044e-09
6.6536e-09
4.03459e-09
6.96297e-09
3.82838e-09
7.39945e-09
3.39701e-09
7.89622e-09
3.20032e-09
8.4482e-09
3.09227e-09
9.04986e-09
2.95501e-09
9.66574e-09
2.7608e-09
1.02391e-08
2.54194e-09
1.06771e-08
2.37223e-09
1.07585e-08
2.23095e-09
1.07484e-08
2.11791e-09
1.05908e-08
2.20281e-09
1.01244e-08
2.53591e-09
9.34178e-09
3.32673e-09
4.86484e-09
8.26136e-09
-1.49183e-08
5.96298e-10
-1.46512e-08
5.64931e-11
-1.43706e-08
4.54802e-10
-1.41374e-08
4.59466e-10
-1.3873e-08
6.47887e-10
-1.36112e-08
7.90525e-10
-1.3338e-08
9.81317e-10
-1.30784e-08
1.0824e-09
-1.28332e-08
1.17257e-09
-1.26022e-08
1.25253e-09
-1.23636e-08
1.46873e-09
-1.21165e-08
1.71536e-09
-1.1888e-08
1.77209e-09
-1.16784e-08
1.79514e-09
-1.14789e-08
1.90176e-09
-1.12798e-08
2.11974e-09
-1.1093e-08
2.24818e-09
-1.09396e-08
2.13746e-09
-1.08088e-08
1.93656e-09
-1.06883e-08
1.88794e-09
-1.0564e-08
2.07949e-09
-1.04291e-08
2.40318e-09
-1.02895e-08
2.71865e-09
-1.01573e-08
2.85789e-09
-1.00373e-08
2.8862e-09
-9.92706e-09
2.98725e-09
-9.83556e-09
2.80757e-09
-9.75194e-09
2.76911e-09
-9.66882e-09
2.95464e-09
-9.59079e-09
3.19746e-09
-9.51554e-09
3.4283e-09
-9.44458e-09
3.47107e-09
-9.38081e-09
3.20658e-09
-9.32109e-09
2.98626e-09
-9.26042e-09
2.98487e-09
-9.19642e-09
3.06235e-09
-9.13209e-09
2.96443e-09
-9.06217e-09
3.11597e-09
-8.98817e-09
3.17828e-09
-8.91168e-09
3.16154e-09
-8.83137e-09
3.19616e-09
-8.7467e-09
3.2457e-09
-8.65688e-09
3.31872e-09
-8.56291e-09
3.34437e-09
-8.46402e-09
3.40183e-09
-8.35952e-09
3.48637e-09
-8.25278e-09
3.46222e-09
-8.14288e-09
3.47303e-09
-8.03208e-09
3.41663e-09
-7.92592e-09
3.19995e-09
-7.82107e-09
3.09461e-09
-7.71603e-09
3.03893e-09
-7.61171e-09
2.95963e-09
-7.50577e-09
2.94517e-09
-7.39887e-09
2.91426e-09
-7.29122e-09
2.8772e-09
-7.17948e-09
2.92193e-09
-7.05308e-09
3.21602e-09
-6.91442e-09
3.43333e-09
-6.77578e-09
3.35262e-09
-6.64289e-09
3.14677e-09
-6.50844e-09
3.10498e-09
-6.36831e-09
3.15494e-09
-6.22696e-09
3.10462e-09
-6.08732e-09
2.99781e-09
-5.93955e-09
3.10188e-09
-5.76714e-09
3.53669e-09
-5.58613e-09
3.64592e-09
-5.41395e-09
3.4144e-09
-5.24655e-09
3.25991e-09
-5.07426e-09
3.28859e-09
-4.89545e-09
3.35152e-09
-4.7093e-09
3.44111e-09
-4.51748e-09
3.50003e-09
-4.32406e-09
3.46718e-09
-4.13406e-09
3.34313e-09
-3.93596e-09
3.42372e-09
-3.73065e-09
3.50482e-09
-3.52712e-09
3.44906e-09
-3.32779e-09
3.35642e-09
-3.12076e-09
3.44461e-09
-2.90856e-09
3.50339e-09
-2.70345e-09
3.37402e-09
-2.50119e-09
3.30568e-09
-2.29679e-09
3.31175e-09
-2.08765e-09
3.35895e-09
-1.86992e-09
3.46548e-09
-1.64842e-09
3.48228e-09
-1.436e-09
3.29439e-09
-1.2166e-09
3.34136e-09
-9.74747e-10
3.62071e-09
-7.22164e-10
3.7451e-09
-4.78413e-10
3.6192e-09
-2.35549e-10
3.63376e-09
7.3234e-12
3.63065e-09
2.49652e-10
3.49315e-09
4.82692e-10
3.36817e-09
7.12483e-10
3.30405e-09
9.38962e-10
3.26728e-09
1.16726e-09
3.32432e-09
1.3973e-09
3.38112e-09
1.63472e-09
3.43077e-09
1.90372e-09
3.83223e-09
2.19462e-09
4.1333e-09
2.48739e-09
4.19903e-09
2.78404e-09
4.31853e-09
3.07172e-09
4.29645e-09
3.34109e-09
4.13873e-09
3.61085e-09
4.197e-09
3.88007e-09
4.2779e-09
4.1478e-09
4.31513e-09
4.40203e-09
4.23136e-09
4.6338e-09
4.04662e-09
4.84472e-09
3.90508e-09
5.04303e-09
3.89016e-09
5.2389e-09
4.00274e-09
5.43488e-09
4.23732e-09
5.63727e-09
4.61076e-09
5.8372e-09
4.80543e-09
6.02472e-09
4.77457e-09
6.19741e-09
4.53145e-09
6.35184e-09
4.19047e-09
6.49689e-09
4.10362e-09
6.64094e-09
4.29878e-09
6.79741e-09
4.77119e-09
6.96411e-09
5.00816e-09
7.13236e-09
4.83437e-09
7.32167e-09
4.82799e-09
7.55763e-09
4.79775e-09
7.8598e-09
4.58544e-09
8.30838e-09
4.08385e-09
8.82733e-09
3.83102e-09
9.40467e-09
3.71374e-09
1.00199e-08
3.54162e-09
1.06401e-08
3.29508e-09
1.12255e-08
3.01884e-09
1.16974e-08
2.80194e-09
1.17769e-08
2.58046e-09
1.18197e-08
2.44117e-09
1.17806e-08
2.50026e-09
1.14721e-08
2.74888e-09
1.10216e-08
3.31128e-09
4.17819e-09
1.04818e-08
-1.62501e-08
1.06311e-09
-1.60201e-08
3.67505e-10
-1.57847e-08
7.3741e-10
-1.55759e-08
7.19428e-10
-1.53422e-08
9.16349e-10
-1.51058e-08
1.08953e-09
-1.48577e-08
1.29339e-09
-1.46212e-08
1.40521e-09
-1.43958e-08
1.49223e-09
-1.41834e-08
1.5781e-09
-1.39625e-08
1.83073e-09
-1.37333e-08
2.12175e-09
-1.35199e-08
2.1777e-09
-1.33232e-08
2.19699e-09
-1.31355e-08
2.32123e-09
-1.29491e-08
2.58256e-09
-1.27745e-08
2.73344e-09
-1.26276e-08
2.57795e-09
-1.24961e-08
2.32351e-09
-1.23738e-08
2.25975e-09
-1.22473e-08
2.48432e-09
-1.21117e-08
2.86625e-09
-1.19715e-08
3.23784e-09
-1.18361e-08
3.40117e-09
-1.17122e-08
3.43067e-09
-1.15958e-08
3.54441e-09
-1.14946e-08
3.32722e-09
-1.14048e-08
3.28222e-09
-1.13156e-08
3.49694e-09
-1.12248e-08
3.77413e-09
-1.11396e-08
4.04481e-09
-1.10579e-08
4.08956e-09
-1.09833e-08
3.77363e-09
-1.09122e-08
3.51159e-09
-1.08388e-08
3.50613e-09
-1.07606e-08
3.59304e-09
-1.06814e-08
3.47518e-09
-1.05949e-08
3.64779e-09
-1.05033e-08
3.71596e-09
-1.04086e-08
3.69281e-09
-1.03093e-08
3.73027e-09
-1.02048e-08
3.78575e-09
-1.00943e-08
3.86931e-09
-9.97924e-09
3.89935e-09
-9.85855e-09
3.96525e-09
-9.73153e-09
4.06175e-09
-9.60227e-09
4.03226e-09
-9.46963e-09
4.04328e-09
-9.33624e-09
3.97636e-09
-9.20872e-09
3.72385e-09
-9.08314e-09
3.60043e-09
-8.95768e-09
3.53455e-09
-8.8334e-09
3.44128e-09
-8.70747e-09
3.42231e-09
-8.58063e-09
3.38545e-09
-8.45315e-09
3.34217e-09
-8.32125e-09
3.39317e-09
-8.17259e-09
3.73003e-09
-8.00979e-09
3.97813e-09
-7.84707e-09
3.88419e-09
-7.69134e-09
3.64727e-09
-7.53445e-09
3.59777e-09
-7.37168e-09
3.65373e-09
-7.20802e-09
3.59289e-09
-7.04677e-09
3.4669e-09
-6.87652e-09
3.58444e-09
-6.67827e-09
4.08364e-09
-6.4706e-09
4.20964e-09
-6.27358e-09
3.94304e-09
-6.08261e-09
3.76311e-09
-5.88647e-09
3.79291e-09
-5.68326e-09
3.8627e-09
-5.47203e-09
3.96498e-09
-5.2547e-09
4.03212e-09
-5.03596e-09
3.99151e-09
-4.82148e-09
3.84554e-09
-4.59832e-09
3.93535e-09
-4.36745e-09
4.02775e-09
-4.13886e-09
3.96439e-09
-3.91519e-09
3.85857e-09
-3.68315e-09
3.95848e-09
-3.4455e-09
4.02595e-09
-3.21594e-09
3.87848e-09
-2.98976e-09
3.80002e-09
-2.76148e-09
3.80633e-09
-2.52805e-09
3.85927e-09
-2.28458e-09
3.97995e-09
-2.03698e-09
3.99724e-09
-1.7998e-09
3.77947e-09
-1.55514e-09
3.8298e-09
-1.28572e-09
4.1464e-09
-1.00453e-09
4.28769e-09
-7.33119e-10
4.1457e-09
-4.62744e-10
4.16623e-09
-1.90445e-10
4.16121e-09
7.47613e-11
4.00293e-09
3.34506e-10
3.85335e-09
5.89427e-10
3.7806e-09
8.40826e-10
3.73945e-09
1.09425e-09
3.80705e-09
1.34963e-09
3.8742e-09
1.61292e-09
3.92629e-09
1.91097e-09
4.38086e-09
2.2332e-09
4.72294e-09
2.55761e-09
4.79907e-09
2.88653e-09
4.93764e-09
3.20588e-09
4.91661e-09
3.50526e-09
4.74007e-09
3.80533e-09
4.80561e-09
4.10523e-09
4.89841e-09
4.40397e-09
4.93834e-09
4.68851e-09
4.84333e-09
4.94901e-09
4.63523e-09
5.18723e-09
4.47751e-09
5.41235e-09
4.46354e-09
5.63574e-09
4.59174e-09
5.86073e-09
4.8615e-09
6.09454e-09
5.29028e-09
6.32724e-09
5.51593e-09
6.54731e-09
5.48351e-09
6.75148e-09
5.20576e-09
6.93523e-09
4.81696e-09
7.10847e-09
4.72175e-09
7.28142e-09
4.95027e-09
7.46995e-09
5.4959e-09
7.6709e-09
5.76778e-09
7.87075e-09
5.5734e-09
8.09193e-09
5.56959e-09
8.34774e-09
5.55778e-09
8.67375e-09
5.33824e-09
9.10133e-09
4.84123e-09
9.63499e-09
4.49559e-09
1.02359e-08
4.34209e-09
1.08691e-08
4.16278e-09
1.15007e-08
3.87814e-09
1.20967e-08
3.54782e-09
1.26157e-08
3.27525e-09
1.29984e-08
2.96675e-09
1.29424e-08
2.69554e-09
1.28652e-08
2.7214e-09
1.27753e-08
2.86978e-09
1.26693e-08
3.18428e-09
3.54602e-09
1.2721e-08
-1.72288e-08
1.60203e-09
-1.70433e-08
7.45685e-10
-1.68321e-08
1.06914e-09
-1.66431e-08
1.02148e-09
-1.64356e-08
1.23457e-09
-1.62206e-08
1.43439e-09
-1.5997e-08
1.65437e-09
-1.57816e-08
1.77256e-09
-1.55757e-08
1.85348e-09
-1.5381e-08
1.9422e-09
-1.51776e-08
2.23216e-09
-1.49657e-08
2.56948e-09
-1.47677e-08
2.62275e-09
-1.4585e-08
2.63679e-09
-1.44116e-08
2.77983e-09
-1.42355e-08
3.0849e-09
-1.40778e-08
3.24027e-09
-1.39293e-08
3.03378e-09
-1.37929e-08
2.72692e-09
-1.36676e-08
2.64768e-09
-1.35425e-08
2.9063e-09
-1.34071e-08
3.3477e-09
-1.32636e-08
3.77494e-09
-1.31239e-08
3.96086e-09
-1.2995e-08
3.98787e-09
-1.2872e-08
4.11272e-09
-1.27643e-08
3.85674e-09
-1.26643e-08
3.80164e-09
-1.25695e-08
4.0494e-09
-1.24727e-08
4.36156e-09
-1.23776e-08
4.66675e-09
-1.2286e-08
4.71181e-09
-1.22011e-08
4.34247e-09
-1.21193e-08
4.03762e-09
-1.20339e-08
4.02682e-09
-1.19423e-08
4.12201e-09
-1.18494e-08
3.98363e-09
-1.17478e-08
4.17592e-09
-1.16401e-08
4.24873e-09
-1.15288e-08
4.21851e-09
-1.14123e-08
4.25827e-09
-1.12901e-08
4.3193e-09
-1.11613e-08
4.41315e-09
-1.10275e-08
4.44805e-09
-1.08879e-08
4.52245e-09
-1.07415e-08
4.63054e-09
-1.0593e-08
4.5956e-09
-1.04411e-08
4.60668e-09
-1.02888e-08
4.52933e-09
-1.01438e-08
4.24167e-09
-1.00015e-08
4.10041e-09
-9.85953e-09
4.0243e-09
-9.71922e-09
3.91709e-09
-9.57728e-09
3.89316e-09
-9.43457e-09
3.85031e-09
-9.29149e-09
3.80109e-09
-9.14379e-09
3.85821e-09
-8.97756e-09
4.23588e-09
-8.7958e-09
4.51307e-09
-8.61465e-09
4.40637e-09
-8.44197e-09
4.13999e-09
-8.26851e-09
4.08293e-09
-8.08891e-09
4.14436e-09
-7.90873e-09
4.07255e-09
-7.73154e-09
3.92713e-09
-7.54482e-09
4.0572e-09
-7.32786e-09
4.61876e-09
-7.10118e-09
4.76155e-09
-6.88664e-09
4.46122e-09
-6.67905e-09
4.25613e-09
-6.46615e-09
4.28617e-09
-6.2459e-09
4.36201e-09
-6.01731e-09
4.47664e-09
-5.78249e-09
4.55185e-09
-5.54654e-09
4.50311e-09
-5.31559e-09
4.3351e-09
-5.07574e-09
4.43337e-09
-4.82798e-09
4.53682e-09
-4.58293e-09
4.46645e-09
-4.34339e-09
4.34815e-09
-4.0951e-09
4.45924e-09
-3.84102e-09
4.53534e-09
-3.59577e-09
4.37075e-09
-3.35436e-09
4.28268e-09
-3.111e-09
4.28926e-09
-2.86196e-09
4.34731e-09
-2.60209e-09
4.48128e-09
-2.33795e-09
4.49854e-09
-2.08515e-09
4.25121e-09
-1.82462e-09
4.30393e-09
-1.53794e-09
4.65578e-09
-1.23889e-09
4.8132e-09
-9.50257e-10
4.65616e-09
-6.6262e-10
4.68341e-09
-3.73111e-10
4.67638e-09
-9.21029e-11
4.49638e-09
1.83232e-10
4.3249e-09
4.53962e-10
4.24147e-09
7.20439e-10
4.19688e-09
9.89323e-10
4.27501e-09
1.26029e-09
4.3527e-09
1.53941e-09
4.40594e-09
1.85514e-09
4.91069e-09
2.1964e-09
5.29174e-09
2.54001e-09
5.37804e-09
2.88853e-09
5.53531e-09
3.22719e-09
5.51612e-09
3.54495e-09
5.32216e-09
3.86359e-09
5.39424e-09
4.18239e-09
5.49831e-09
4.50033e-09
5.53985e-09
4.80379e-09
5.43377e-09
5.08247e-09
5.20347e-09
5.33822e-09
5.03079e-09
5.58081e-09
5.01812e-09
5.82232e-09
5.1608e-09
6.06672e-09
5.46411e-09
6.32187e-09
5.9458e-09
6.57672e-09
6.20114e-09
6.81941e-09
6.16731e-09
7.04574e-09
5.8563e-09
7.24977e-09
5.422e-09
7.4425e-09
5.31895e-09
7.63551e-09
5.58011e-09
7.84601e-09
6.1964e-09
8.07006e-09
6.50068e-09
8.29194e-09
6.28618e-09
8.53331e-09
6.28651e-09
8.79544e-09
6.29532e-09
9.10304e-09
6.08887e-09
9.5248e-09
5.56267e-09
1.00657e-08
5.18493e-09
1.0665e-08
4.98865e-09
1.13039e-08
4.79274e-09
1.19328e-08
4.49036e-09
1.25275e-08
4.12053e-09
1.30619e-08
3.79866e-09
1.35004e-08
3.40838e-09
1.37999e-08
2.99395e-09
1.3673e-08
2.90095e-09
1.35556e-08
2.94897e-09
1.35629e-08
3.06919e-09
3.14311e-09
1.38329e-08
-1.92683e-08
2.24689e-09
-1.91099e-08
1.2037e-09
-1.8911e-08
1.47047e-09
-1.87293e-08
1.38465e-09
-1.85296e-08
1.61722e-09
-1.83186e-08
1.84311e-09
-1.80997e-08
2.08142e-09
-1.78859e-08
2.20203e-09
-1.76813e-08
2.27419e-09
-1.74865e-08
2.36301e-09
-1.72822e-08
2.69413e-09
-1.70686e-08
3.08278e-09
-1.68687e-08
3.13251e-09
-1.66826e-08
3.13936e-09
-1.64967e-08
3.29914e-09
-1.63249e-08
3.63561e-09
-1.61521e-08
3.7872e-09
-1.59888e-08
3.53165e-09
-1.58465e-08
3.16863e-09
-1.57117e-08
3.07289e-09
-1.5572e-08
3.36784e-09
-1.54214e-08
3.8724e-09
-1.52612e-08
4.35737e-09
-1.51043e-08
4.56314e-09
-1.4957e-08
4.58579e-09
-1.48151e-08
4.72137e-09
-1.46899e-08
4.4247e-09
-1.45749e-08
4.35952e-09
-1.44609e-08
4.63774e-09
-1.43501e-08
4.99049e-09
-1.42372e-08
5.32733e-09
-1.41278e-08
5.37048e-09
-1.40247e-08
4.94203e-09
-1.39241e-08
4.5906e-09
-1.38184e-08
4.57278e-09
-1.37046e-08
4.67551e-09
-1.35894e-08
4.51528e-09
-1.34635e-08
4.72715e-09
-1.33306e-08
4.80387e-09
-1.31938e-08
4.76577e-09
-1.30511e-08
4.80758e-09
-1.29021e-08
4.87421e-09
-1.27455e-08
4.97881e-09
-1.25838e-08
5.01951e-09
-1.24157e-08