/*--------------------------------*- C++ -*----------------------------------*\
| =========                 |                                                 |
| \\      /  F ield         | OpenFOAM: The Open Source CFD Toolbox           |
|  \\    /   O peration     | Version:  2212                                  |
|   \\  /    A nd           | Website:  www.openfoam.com                      |
|    \\/     M anipulation  |                                                 |
\*---------------------------------------------------------------------------*/
FoamFile
{
    version     2.0;
    format      ascii;
    arch        "LSB;label=32;scalar=64";
    class       volScalarField;
    location    "0.2769";
    object      s;
}
// * * * * * * * * * * * * * * * * * * * * * * * * * * * * * * * * * * * * * //

dimensions      [0 0 0 0 0 0 0];

internalField   nonuniform List<scalar> 
24240
(
1.19908e-85
1.18304e-85
1.1959e-85
1.17184e-85
1.18136e-85
1.19144e-85
1.18884e-85
1.15857e-85
1.16966e-85
1.19946e-85
1.17607e-85
1.20172e-85
1.17725e-85
1.19983e-85
1.16685e-85
1.2082e-85
1.16356e-85
1.17822e-85
1.18027e-85
1.15191e-85
5.96249e-83
5.88342e-83
5.94622e-83
5.82883e-83
5.87387e-83
5.9256e-83
5.91213e-83
5.76242e-83
5.81741e-83
5.96534e-83
5.8496e-83
5.97579e-83
5.85624e-83
5.96744e-83
5.80413e-83
6.00849e-83
5.78824e-83
5.86074e-83
5.86932e-83
5.7298e-83
1.57403e-80
1.55334e-80
1.56962e-80
1.53922e-80
1.5505e-80
1.56458e-80
1.56088e-80
1.52158e-80
1.53607e-80
1.57504e-80
1.54464e-80
1.57758e-80
1.54659e-80
1.57565e-80
1.53273e-80
1.58633e-80
1.52867e-80
1.54769e-80
1.54952e-80
1.51312e-80
2.39435e-78
2.36319e-78
2.38747e-78
2.34213e-78
2.35837e-78
2.38043e-78
2.37459e-78
2.31515e-78
2.33716e-78
2.39628e-78
2.35028e-78
2.39981e-78
2.35355e-78
2.39729e-78
2.33229e-78
2.41329e-78
2.32634e-78
2.35507e-78
2.3572e-78
2.3025e-78
2.60955e-76
2.57594e-76
2.60186e-76
2.55344e-76
2.57014e-76
2.59487e-76
2.58828e-76
2.5239e-76
2.54786e-76
2.61206e-76
2.56223e-76
2.61554e-76
2.5661e-76
2.61324e-76
2.54273e-76
2.63036e-76
2.53656e-76
2.56758e-76
2.56918e-76
2.5104e-76
1.96753e-74
1.94248e-74
1.9616e-74
1.92585e-74
1.93769e-74
1.95684e-74
1.95172e-74
1.90349e-74
1.92158e-74
1.96973e-74
1.93243e-74
1.97208e-74
1.93555e-74
1.97067e-74
1.91777e-74
1.9833e-74
1.91339e-74
1.93651e-74
1.93716e-74
1.89353e-74
1.02809e-72
1.01518e-72
1.02493e-72
1.00666e-72
1.01244e-72
1.02271e-72
1.01997e-72
9.94944e-73
1.00444e-72
1.02939e-72
1.01009e-72
1.03047e-72
1.01181e-72
1.0299e-72
1.00242e-72
1.03632e-72
1.00032e-72
1.0122e-72
1.01224e-72
9.89894e-73
3.56417e-71
3.52025e-71
3.5531e-71
3.49124e-71
3.50988e-71
3.54627e-71
3.53667e-71
3.45062e-71
3.48398e-71
3.56911e-71
3.50328e-71
3.57245e-71
3.50933e-71
3.57095e-71
3.47637e-71
3.59232e-71
3.47011e-71
3.51023e-71
3.50935e-71
3.43407e-71
3.34734e-70
3.30766e-70
3.33732e-70
3.28084e-70
3.29687e-70
3.33159e-70
3.32287e-70
3.24294e-70
3.27557e-70
3.35247e-70
3.29287e-70
3.35543e-70
3.29806e-70
3.3542e-70
3.26652e-70
3.37285e-70
3.26259e-70
3.29819e-70
3.29646e-70
3.22932e-70
1.67592e-70
1.67636e-70
1.68374e-70
1.65872e-70
1.66502e-70
1.67384e-70
1.68135e-70
1.64625e-70
1.69034e-70
1.6731e-70
1.68078e-70
1.68374e-70
1.66301e-70
1.67245e-70
1.64181e-70
1.66389e-70
1.66994e-70
1.65534e-70
1.65874e-70
1.67121e-70
2.7257e-70
2.74326e-70
2.76927e-70
2.72306e-70
2.70732e-70
2.71638e-70
2.74174e-70
2.69356e-70
2.77478e-70
2.75547e-70
2.77065e-70
2.75316e-70
2.74216e-70
2.7139e-70
2.69429e-70
2.71647e-70
2.69626e-70
2.70515e-70
2.72216e-70
2.72675e-70
3.08579e-70
3.10606e-70
3.12202e-70
3.06356e-70
3.06715e-70
3.01886e-70
3.08256e-70
3.04026e-70
3.09571e-70
3.16191e-70
3.12751e-70
3.0637e-70
3.12995e-70
3.08905e-70
3.08252e-70
3.10265e-70
2.98771e-70
3.07999e-70
3.03901e-70
3.04578e-70
3.58145e-70
3.62549e-70
3.62576e-70
3.61385e-70
3.63056e-70
3.65972e-70
3.7278e-70
3.63626e-70
3.63968e-70
3.59162e-70
3.60201e-70
3.60795e-70
3.64411e-70
3.65859e-70
3.59406e-70
3.63046e-70
3.64573e-70
3.6056e-70
3.58236e-70
3.59538e-70
3.88114e-70
3.86554e-70
3.88458e-70
3.95834e-70
3.93094e-70
3.96912e-70
3.9009e-70
3.97789e-70
3.89126e-70
3.80784e-70
3.83194e-70
3.85963e-70
3.86812e-70
3.81385e-70
3.79672e-70
3.83913e-70
3.79825e-70
3.87313e-70
3.83526e-70
3.90746e-70
3.98346e-70
3.97084e-70
4.03941e-70
3.99681e-70
3.97109e-70
4.0433e-70
4.01918e-70
4.08682e-70
3.98481e-70
4.04886e-70
4.0251e-70
4.03596e-70
4.04346e-70
4.05258e-70
4.01549e-70
4.10716e-70
4.00641e-70
3.96087e-70
4.00574e-70
3.99446e-70
3.97967e-70
3.91754e-70
3.92129e-70
3.91597e-70
3.96597e-70
3.99546e-70
3.98913e-70
3.96651e-70
3.88884e-70
3.91148e-70
3.86915e-70
3.97725e-70
3.97959e-70
4.02533e-70
4.01496e-70
4.00312e-70
3.97315e-70
3.9846e-70
3.94066e-70
3.95305e-70
3.66617e-70
3.7205e-70
3.66595e-70
3.78317e-70
3.67393e-70
3.75705e-70
3.6888e-70
3.74487e-70
3.69418e-70
3.71976e-70
3.70411e-70
3.77937e-70
3.70482e-70
3.80584e-70
3.69369e-70
3.74643e-70
3.74627e-70
3.65249e-70
3.75953e-70
3.75727e-70
3.29706e-70
3.40954e-70
3.37706e-70
3.34148e-70
3.31143e-70
3.44163e-70
3.38125e-70
3.39731e-70
3.37079e-70
3.31883e-70
3.35708e-70
3.41957e-70
3.35302e-70
3.47218e-70
3.35541e-70
3.41295e-70
3.42612e-70
3.38081e-70
3.43285e-70
3.44231e-70
3.0783e-70
3.07807e-70
3.07553e-70
3.11523e-70
3.12591e-70
3.12521e-70
3.06168e-70
3.11444e-70
3.15835e-70
3.07369e-70
3.13264e-70
3.15094e-70
3.055e-70
3.16951e-70
3.1522e-70
3.21323e-70
3.12321e-70
3.1626e-70
3.12502e-70
3.19598e-70
2.10611e-70
2.12247e-70
2.11633e-70
2.09722e-70
2.12338e-70
2.11506e-70
2.12511e-70
2.11952e-70
2.11526e-70
2.14694e-70
2.10038e-70
2.15285e-70
2.10078e-70
2.17288e-70
2.10635e-70
2.10916e-70
2.11789e-70
2.15862e-70
2.12497e-70
2.1756e-70
3.73527e-84
3.68563e-84
3.72515e-84
3.65147e-84
3.67978e-84
3.71221e-84
3.70373e-84
3.60994e-84
3.64425e-84
3.73725e-84
3.66448e-84
3.74382e-84
3.66867e-84
3.73845e-84
3.63603e-84
3.76427e-84
3.62581e-84
3.67144e-84
3.67693e-84
3.58917e-84
1.85313e-81
1.82874e-81
1.848e-81
1.81214e-81
1.82546e-81
1.84206e-81
1.83767e-81
1.7914e-81
1.80838e-81
1.85444e-81
1.81851e-81
1.85744e-81
1.82083e-81
1.8551e-81
1.80451e-81
1.86774e-81
1.79959e-81
1.8221e-81
1.82432e-81
1.78124e-81
4.82832e-79
4.76539e-79
4.81463e-79
4.723e-79
4.75587e-79
4.8004e-79
4.78853e-79
4.66866e-79
4.71279e-79
4.83257e-79
4.73939e-79
4.8397e-79
4.74606e-79
4.83445e-79
4.70323e-79
4.86691e-79
4.69081e-79
4.74908e-79
4.75356e-79
4.64259e-79
7.33509e-77
7.24048e-77
7.31384e-77
7.17739e-77
7.22449e-77
7.2941e-77
7.27541e-77
7.09439e-77
7.16131e-77
7.34281e-77
7.20198e-77
7.35259e-77
7.21303e-77
7.34586e-77
7.14743e-77
7.39439e-77
7.12928e-77
7.21717e-77
7.22195e-77
7.05542e-77
7.86612e-75
7.76581e-75
7.84286e-75
7.69952e-75
7.74698e-75
7.8237e-75
7.80298e-75
7.61008e-75
7.68179e-75
7.87571e-75
7.72558e-75
7.88507e-75
7.73838e-75
7.87919e-75
7.6674e-75
7.93027e-75
7.64887e-75
7.74228e-75
7.74521e-75
7.56908e-75
5.87003e-73
5.7961e-73
5.85235e-73
5.74763e-73
5.78079e-73
5.83955e-73
5.82364e-73
5.68064e-73
5.73419e-73
5.87816e-73
5.76691e-73
5.88431e-73
5.7771e-73
5.88088e-73
5.72364e-73
5.91817e-73
5.71063e-73
5.77953e-73
5.78006e-73
5.65064e-73
3.02167e-71
2.98418e-71
3.01243e-71
2.95972e-71
2.9756e-71
3.00661e-71
2.99822e-71
2.92514e-71
2.95283e-71
3.02633e-71
2.96961e-71
3.02907e-71
2.97512e-71
3.02778e-71
2.94731e-71
3.04644e-71
2.94117e-71
2.97606e-71
2.97547e-71
2.91013e-71
1.0344e-69
1.02181e-69
1.03121e-69
1.01359e-69
1.01862e-69
1.02947e-69
1.02657e-69
1.00176e-69
1.01136e-69
1.03613e-69
1.01702e-69
1.03695e-69
1.01894e-69
1.03664e-69
1.0093e-69
1.04277e-69
1.00749e-69
1.01912e-69
1.01862e-69
9.96888e-70
9.58011e-69
9.46806e-69
9.55182e-69
9.39313e-69
9.43552e-69
9.5375e-69
9.51146e-69
9.28426e-69
9.3769e-69
9.59761e-69
9.42696e-69
9.60462e-69
9.44328e-69
9.60227e-69
9.35235e-69
9.65497e-69
9.34112e-69
9.44291e-69
9.43582e-69
9.24451e-69
4.69825e-69
4.69962e-69
4.72107e-69
4.65107e-69
4.66763e-69
4.69304e-69
4.71327e-69
4.61563e-69
4.73937e-69
4.6911e-69
4.71274e-69
4.72028e-69
4.66314e-69
4.68887e-69
4.60393e-69
4.664e-69
4.68182e-69
4.6412e-69
4.65078e-69
4.68553e-69
7.68739e-69
7.73602e-69
7.80973e-69
7.67905e-69
7.63495e-69
7.65973e-69
7.73013e-69
7.59601e-69
7.82418e-69
7.77087e-69
7.81319e-69
7.76293e-69
7.73337e-69
7.65403e-69
7.59891e-69
7.66031e-69
7.6023e-69
7.62865e-69
7.67595e-69
7.68797e-69
8.65325e-69
8.70942e-69
8.75438e-69
8.59034e-69
8.60156e-69
8.46777e-69
8.64562e-69
8.52862e-69
8.67989e-69
8.86477e-69
8.76764e-69
8.59124e-69
8.77551e-69
8.66275e-69
8.6436e-69
8.70017e-69
8.38003e-69
8.63531e-69
8.52256e-69
8.5407e-69
1.00628e-68
1.0183e-68
1.01854e-68
1.01542e-68
1.02001e-68
1.02826e-68
1.04689e-68
1.02178e-68
1.02253e-68
1.00899e-68
1.01184e-68
1.01356e-68
1.02372e-68
1.02789e-68
1.00987e-68
1.01993e-68
1.02415e-68
1.01312e-68
1.00649e-68
1.01023e-68
1.08281e-68
1.07825e-68
1.08351e-68
1.10403e-68
1.09647e-68
1.10709e-68
1.08802e-68
1.10964e-68
1.08514e-68
1.06251e-68
1.06892e-68
1.07682e-68
1.07897e-68
1.06403e-68
1.05927e-68
1.07112e-68
1.05955e-68
1.08041e-68
1.06994e-68
1.08991e-68
1.11443e-68
1.11079e-68
1.12988e-68
1.1179e-68
1.11091e-68
1.13118e-68
1.12421e-68
1.14323e-68
1.11482e-68
1.13279e-68
1.12603e-68
1.12912e-68
1.13104e-68
1.13399e-68
1.12348e-68
1.14888e-68
1.12085e-68
1.10806e-68
1.12063e-68
1.1172e-68
1.10463e-68
1.08753e-68
1.08816e-68
1.08696e-68
1.10083e-68
1.10896e-68
1.10711e-68
1.10082e-68
1.07945e-68
1.08563e-68
1.07383e-68
1.10373e-68
1.10455e-68
1.11712e-68
1.11438e-68
1.1108e-68
1.10274e-68
1.10606e-68
1.09384e-68
1.09726e-68
1.02174e-68
1.03707e-68
1.02177e-68
1.05425e-68
1.02365e-68
1.04683e-68
1.02782e-68
1.04362e-68
1.02957e-68
1.03681e-68
1.03232e-68
1.05334e-68
1.03245e-68
1.0605e-68
1.02944e-68
1.04393e-68
1.04404e-68
1.01801e-68
1.04776e-68
1.04714e-68
9.1346e-69
9.44308e-69
9.35502e-69
9.25496e-69
9.17348e-69
9.53117e-69
9.36378e-69
9.40924e-69
9.3362e-69
9.19305e-69
9.29716e-69
9.46988e-69
9.28708e-69
9.61403e-69
9.2935e-69
9.45216e-69
9.48697e-69
9.36467e-69
9.50631e-69
9.53368e-69
8.58958e-69
8.58883e-69
8.58315e-69
8.6928e-69
8.72096e-69
8.71922e-69
8.54199e-69
8.69259e-69
8.81184e-69
8.57769e-69
8.74072e-69
8.79259e-69
8.52398e-69
8.84308e-69
8.79549e-69
8.96492e-69
8.7153e-69
8.82277e-69
8.7182e-69
8.91497e-69
5.84467e-69
5.89045e-69
5.87394e-69
5.82036e-69
5.89156e-69
5.86941e-69
5.89617e-69
5.88216e-69
5.8677e-69
5.95687e-69
5.82722e-69
5.97256e-69
5.82914e-69
6.02842e-69
5.84437e-69
5.85231e-69
5.87572e-69
5.98879e-69
5.896e-69
6.03546e-69
1.15278e-82
1.13758e-82
1.14961e-82
1.12727e-82
1.13558e-82
1.14592e-82
1.14317e-82
1.11439e-82
1.12491e-82
1.15367e-82
1.13123e-82
1.15553e-82
1.13268e-82
1.15404e-82
1.12253e-82
1.16193e-82
1.11939e-82
1.13345e-82
1.13486e-82
1.10796e-82
5.65366e-80
5.57987e-80
5.63779e-80
5.53036e-80
5.5689e-80
5.62114e-80
5.60714e-80
5.46679e-80
5.51821e-80
5.65905e-80
5.5495e-80
5.66738e-80
5.55738e-80
5.66105e-80
5.50723e-80
5.69924e-80
5.49225e-80
5.56084e-80
5.56622e-80
5.43566e-80
1.44832e-77
1.42962e-77
1.44418e-77
1.4172e-77
1.42651e-77
1.44028e-77
1.43656e-77
1.40082e-77
1.41396e-77
1.44997e-77
1.42204e-77
1.45189e-77
1.42425e-77
1.45052e-77
1.4113e-77
1.46016e-77
1.40759e-77
1.42505e-77
1.42603e-77
1.39295e-77
2.1753e-75
2.14753e-75
2.16897e-75
2.12925e-75
2.1424e-75
2.16367e-75
2.15789e-75
2.10453e-75
2.12423e-75
2.17817e-75
2.13643e-75
2.18075e-75
2.14003e-75
2.17906e-75
2.12042e-75
2.1933e-75
2.11506e-75
2.1411e-75
2.14197e-75
2.09289e-75
2.29393e-73
2.26501e-73
2.28715e-73
2.24613e-73
2.25911e-73
2.28213e-73
2.27584e-73
2.21994e-73
2.24068e-73
2.29737e-73
2.2536e-73
2.29975e-73
2.25768e-73
2.29835e-73
2.23681e-73
2.31309e-73
2.23144e-73
2.25865e-73
2.25893e-73
2.20787e-73
1.69093e-71
1.66989e-71
1.68585e-71
1.65626e-71
1.66517e-71
1.68258e-71
1.67781e-71
1.63689e-71
1.65218e-71
1.69376e-71
1.66172e-71
1.69527e-71
1.66491e-71
1.69451e-71
1.64939e-71
1.70514e-71
1.64566e-71
1.66548e-71
1.66522e-71
1.62814e-71
8.56791e-70
8.46299e-70
8.5419e-70
8.39531e-70
8.43711e-70
8.52746e-70
8.50272e-70
8.29691e-70
8.37475e-70
8.58366e-70
8.42286e-70
8.59012e-70
8.43983e-70
8.58761e-70
8.36031e-70
8.63992e-70
8.34305e-70
8.44184e-70
8.43804e-70
8.25375e-70
2.89102e-68
2.85633e-68
2.88221e-68
2.83392e-68
2.84689e-68
2.87802e-68
2.86959e-68
2.80072e-68
2.82733e-68
2.89674e-68
2.84333e-68
2.89857e-68
2.84914e-68
2.89809e-68
2.82197e-68
2.91503e-68
2.81697e-68
2.84942e-68
2.84734e-68
2.78688e-68
2.63827e-67
2.60788e-67
2.63062e-67
2.58776e-67
2.59845e-67
2.62727e-67
2.61979e-67
2.55767e-67
2.58297e-67
2.64393e-67
2.5969e-67
2.64544e-67
2.60183e-67
2.64513e-67
2.57659e-67
2.65945e-67
2.57351e-67
2.60151e-67
2.59895e-67
2.54648e-67
1.26564e-67
1.26604e-67
1.27204e-67
1.25322e-67
1.25737e-67
1.2644e-67
1.26962e-67
1.24354e-67
1.2769e-67
1.26393e-67
1.26977e-67
1.2716e-67
1.25648e-67
1.26321e-67
1.24059e-67
1.25627e-67
1.26129e-67
1.25044e-67
1.25305e-67
1.26234e-67
2.08393e-67
2.09687e-67
2.11695e-67
2.08142e-67
2.06956e-67
2.07607e-67
2.09483e-67
2.05897e-67
2.12056e-67
2.10643e-67
2.11776e-67
2.1039e-67
2.09627e-67
2.07488e-67
2.05998e-67
2.0763e-67
2.06031e-67
2.06779e-67
2.08043e-67
2.08343e-67
2.33363e-67
2.34857e-67
2.36077e-67
2.3165e-67
2.31983e-67
2.28419e-67
2.33194e-67
2.30085e-67
2.34047e-67
2.39013e-67
2.36375e-67
2.31688e-67
2.36615e-67
2.33628e-67
2.33089e-67
2.34617e-67
2.26044e-67
2.32832e-67
2.29854e-67
2.30318e-67
2.71958e-67
2.75109e-67
2.75221e-67
2.74437e-67
2.75645e-67
2.77894e-67
2.82788e-67
2.76169e-67
2.76316e-67
2.72652e-67
2.73401e-67
2.73881e-67
2.76625e-67
2.77782e-67
2.72943e-67
2.75614e-67
2.76731e-67
2.73821e-67
2.71999e-67
2.73032e-67
2.90945e-67
2.89661e-67
2.91061e-67
2.96556e-67
2.9455e-67
2.97396e-67
2.92264e-67
2.98107e-67
2.91432e-67
2.85529e-67
2.87165e-67
2.89337e-67
2.89856e-67
2.85897e-67
2.8462e-67
2.87807e-67
2.84658e-67
2.90252e-67
2.87467e-67
2.92785e-67
3.0033e-67
2.99315e-67
3.0443e-67
3.01187e-67
2.99364e-67
3.04845e-67
3.02899e-67
3.08056e-67
3.00437e-67
3.05283e-67
3.03431e-67
3.0428e-67
3.04748e-67
3.05654e-67
3.02791e-67
3.0956e-67
3.02054e-67
2.98602e-67
3.01983e-67
3.00986e-67
2.95818e-67
2.91288e-67
2.91356e-67
2.9111e-67
2.94797e-67
2.96968e-67
2.96442e-67
2.9478e-67
2.89105e-67
2.90736e-67
2.87561e-67
2.95524e-67
2.95792e-67
2.9911e-67
2.98416e-67
2.97396e-67
2.95294e-67
2.96222e-67
2.92949e-67
2.93858e-67
2.74798e-67
2.78959e-67
2.74815e-67
2.83482e-67
2.7524e-67
2.81464e-67
2.76367e-67
2.80646e-67
2.76891e-67
2.78869e-67
2.77621e-67
2.83295e-67
2.77653e-67
2.85166e-67
2.76879e-67
2.80699e-67
2.80775e-67
2.73814e-67
2.81781e-67
2.81615e-67
2.44477e-67
2.52644e-67
2.5034e-67
2.47631e-67
2.45491e-67
2.54979e-67
2.50497e-67
2.51741e-67
2.49796e-67
2.4599e-67
2.48723e-67
2.53334e-67
2.48487e-67
2.57148e-67
2.48651e-67
2.52876e-67
2.53763e-67
2.50575e-67
2.54299e-67
2.55062e-67
2.31477e-67
2.31461e-67
2.31346e-67
2.34263e-67
2.34974e-67
2.34941e-67
2.30167e-67
2.34317e-67
2.37434e-67
2.31185e-67
2.35536e-67
2.36958e-67
2.29699e-67
2.38284e-67
2.37016e-67
2.41555e-67
2.34882e-67
2.37702e-67
2.34899e-67
2.40162e-67
1.56462e-67
1.57693e-67
1.57267e-67
1.55822e-67
1.5769e-67
1.57119e-67
1.57802e-67
1.57471e-67
1.57015e-67
1.59431e-67
1.55954e-67
1.59833e-67
1.56023e-67
1.61335e-67
1.56431e-67
1.56649e-67
1.57245e-67
1.60276e-67
1.57805e-67
1.61512e-67
3.45999e-81
3.41475e-81
3.45035e-81
3.38451e-81
3.40814e-81
3.44017e-81
3.43154e-81
3.34568e-81
3.377e-81
3.46351e-81
3.39622e-81
3.46861e-81
3.40107e-81
3.46462e-81
3.37038e-81
3.48807e-81
3.36096e-81
3.40313e-81
3.4065e-81
3.32628e-81
1.72064e-78
1.69839e-78
1.71577e-78
1.68367e-78
1.69475e-78
1.71115e-78
1.70669e-78
1.66424e-78
1.67977e-78
1.72272e-78
1.68941e-78
1.72501e-78
1.69205e-78
1.72332e-78
1.67667e-78
1.73483e-78
1.67213e-78
1.69298e-78
1.69418e-78
1.6547e-78
4.34144e-76
4.28595e-76
4.32896e-76
4.24958e-76
4.27586e-76
4.31839e-76
4.30676e-76
4.20028e-76
4.23936e-76
4.34753e-76
4.26385e-76
4.35267e-76
4.27112e-76
4.34916e-76
4.23199e-76
4.37776e-76
4.22092e-76
4.27319e-76
4.27505e-76
4.17652e-76
6.43577e-74
6.35451e-74
6.41702e-74
6.30174e-74
6.33821e-74
6.40297e-74
6.38515e-74
6.22831e-74
6.2861e-74
6.44606e-74
6.32262e-74
6.45274e-74
6.33425e-74
6.44862e-74
6.27575e-74
6.49032e-74
6.26e-74
6.33691e-74
6.33789e-74
6.19352e-74
6.67359e-72
6.59045e-72
6.65392e-72
6.53687e-72
6.57209e-72
6.641e-72
6.62194e-72
6.46039e-72
6.52023e-72
6.68551e-72
6.55822e-72
6.69144e-72
6.57112e-72
6.68828e-72
6.50991e-72
6.7307e-72
6.49439e-72
6.57342e-72
6.57257e-72
6.42484e-72
4.85318e-70
4.79359e-70
4.83873e-70
4.75543e-70
4.77918e-70
4.83054e-70
4.8163e-70
4.69963e-70
4.74316e-70
4.86277e-70
4.77082e-70
4.86637e-70
4.78076e-70
4.86485e-70
4.73581e-70
4.895e-70
4.72521e-70
4.78201e-70
4.78005e-70
4.67419e-70
2.42039e-68
2.39117e-68
2.41313e-68
2.37253e-68
2.38342e-68
2.40963e-68
2.40237e-68
2.34463e-68
2.36643e-68
2.4256e-68
2.38016e-68
2.42704e-68
2.38535e-68
2.42665e-68
2.36269e-68
2.44126e-68
2.35786e-68
2.38572e-68
2.38406e-68
2.33224e-68
8.04365e-67
7.94861e-67
8.01953e-67
7.8878e-67
7.92085e-67
8.00973e-67
7.98538e-67
7.79513e-67
7.86852e-67
8.06215e-67
7.91348e-67
8.06594e-67
7.93098e-67
8.06567e-67
7.85474e-67
8.11221e-67
7.84094e-67
7.93111e-67
7.92338e-67
7.75589e-67
7.23267e-66
7.15074e-66
7.21218e-66
7.09699e-66
7.12355e-66
7.20459e-66
7.18327e-66
7.0142e-66
7.08293e-66
7.25058e-66
7.12155e-66
7.25354e-66
7.13628e-66
7.2536e-66
7.0665e-66
7.29233e-66
7.05813e-66
7.1348e-66
7.12608e-66
6.98275e-66
3.39163e-66
3.3928e-66
3.40943e-66
3.35909e-66
3.36939e-66
3.3887e-66
3.4021e-66
3.33281e-66
3.42229e-66
3.38761e-66
3.4033e-66
3.40767e-66
3.36787e-66
3.38537e-66
3.32546e-66
3.36613e-66
3.38016e-66
3.35136e-66
3.35839e-66
3.38308e-66
5.62178e-66
5.656e-66
5.71044e-66
5.61434e-66
5.58257e-66
5.59957e-66
5.64935e-66
5.55397e-66
5.71938e-66
5.68213e-66
5.71228e-66
5.67427e-66
5.6547e-66
5.59736e-66
5.55725e-66
5.60041e-66
5.55657e-66
5.57763e-66
5.61127e-66
5.61861e-66
6.2653e-66
6.30488e-66
6.33782e-66
6.21893e-66
6.22866e-66
6.1341e-66
6.26177e-66
6.17959e-66
6.28274e-66
6.41554e-66
6.3442e-66
6.22026e-66
6.35142e-66
6.2727e-66
6.25758e-66
6.29871e-66
6.07014e-66
6.24979e-66
6.17155e-66
6.18337e-66
7.31883e-66
7.40098e-66
7.40523e-66
7.38575e-66
7.41744e-66
7.47851e-66
7.60634e-66
7.43277e-66
7.43518e-66
7.33648e-66
7.35605e-66
7.36934e-66
7.44314e-66
7.47498e-66
7.34567e-66
7.41629e-66
7.44579e-66
7.36933e-66
7.31948e-66
7.34792e-66
7.79213e-66
7.75622e-66
7.79334e-66
7.93995e-66
7.88694e-66
7.96293e-66
7.82528e-66
7.98268e-66
7.80151e-66
7.64817e-66
7.68966e-66
7.74911e-66
7.76141e-66
7.65688e-66
7.62286e-66
7.70824e-66
7.62281e-66
7.77233e-66
7.69853e-66
7.83955e-66
8.06921e-66
8.0411e-66
8.17773e-66
8.0902e-66
8.04286e-66
8.19054e-66
8.13651e-66
8.27583e-66
8.0722e-66
8.20251e-66
8.15193e-66
8.17516e-66
8.18647e-66
8.21384e-66
8.13598e-66
8.3158e-66
8.11541e-66
8.02256e-66
8.11324e-66
8.08447e-66
7.90952e-66
7.78981e-66
7.7889e-66
7.78436e-66
7.88219e-66
7.93992e-66
7.92515e-66
7.88131e-66
7.73092e-66
7.77383e-66
7.68861e-66
7.90028e-66
7.90863e-66
7.9961e-66
7.97866e-66
7.94968e-66
7.89498e-66
7.92096e-66
7.83349e-66
7.85748e-66
7.38051e-66
7.49337e-66
7.38123e-66
7.61235e-66
7.39044e-66
7.55744e-66
7.42089e-66
7.5366e-66
7.43644e-66
7.49046e-66
7.45586e-66
7.60887e-66
7.45659e-66
7.65753e-66
7.43666e-66
7.5372e-66
7.54064e-66
7.35461e-66
7.56774e-66
7.56335e-66
6.54611e-66
6.76233e-66
6.70211e-66
6.62857e-66
6.57256e-66
6.82425e-66
6.70419e-66
6.73821e-66
6.68645e-66
6.5851e-66
6.65689e-66
6.78005e-66
6.65155e-66
6.88104e-66
6.65582e-66
6.76834e-66
6.79087e-66
6.70783e-66
6.80556e-66
6.82692e-66
6.24217e-66
6.2417e-66
6.23968e-66
6.31743e-66
6.33535e-66
6.33467e-66
6.20601e-66
6.3204e-66
6.40192e-66
6.23504e-66
6.35129e-66
6.39022e-66
6.19389e-66
6.42497e-66
6.39133e-66
6.51297e-66
6.33436e-66
6.40847e-66
6.33315e-66
6.47408e-66
4.21014e-66
4.24354e-66
4.2325e-66
4.19322e-66
4.24242e-66
4.22775e-66
4.2453e-66
4.23751e-66
4.22325e-66
4.28921e-66
4.19536e-66
4.29947e-66
4.1978e-66
4.34011e-66
4.20861e-66
4.21456e-66
4.23e-66
4.31159e-66
4.24554e-66
4.34449e-66
1.07127e-79
1.0574e-79
1.06826e-79
1.04825e-79
1.05516e-79
1.06539e-79
1.0626e-79
1.03617e-79
1.0458e-79
1.07264e-79
1.05182e-79
1.07407e-79
1.05348e-79
1.07298e-79
1.0439e-79
1.08017e-79
1.04099e-79
1.05404e-79
1.05481e-79
1.03013e-79
5.2479e-77
5.18073e-77
5.23296e-77
5.13689e-77
5.1687e-77
5.22021e-77
5.20605e-77
5.07737e-77
5.12436e-77
5.25566e-77
5.1541e-77
5.26186e-77
5.16296e-77
5.25745e-77
5.11565e-77
5.29218e-77
5.10186e-77
5.16537e-77
5.16773e-77
5.04804e-77
1.30103e-74
1.28458e-74
1.29728e-74
1.27394e-74
1.28133e-74
1.29445e-74
1.29082e-74
1.25911e-74
1.27073e-74
1.30322e-74
1.27815e-74
1.30456e-74
1.28053e-74
1.30369e-74
1.2687e-74
1.31217e-74
1.2654e-74
1.28105e-74
1.28127e-74
1.25192e-74
1.90248e-72
1.87876e-72
1.89696e-72
1.86354e-72
1.8736e-72
1.89329e-72
1.88781e-72
1.84175e-72
1.85869e-72
1.90608e-72
1.8696e-72
1.90777e-72
1.87333e-72
1.90681e-72
1.8559e-72
1.91901e-72
1.85127e-72
1.87397e-72
1.87378e-72
1.83134e-72
1.93913e-70
1.9153e-70
1.93346e-70
1.90011e-70
1.90961e-70
1.93019e-70
1.92443e-70
1.87781e-70
1.89505e-70
1.94318e-70
1.9062e-70
1.94461e-70
1.91026e-70
1.94395e-70
1.89232e-70
1.95614e-70
1.88784e-70
1.91077e-70
1.91004e-70
1.86733e-70
1.38999e-68
1.37317e-68
1.3859e-68
1.36252e-68
1.36879e-68
1.3839e-68
1.37966e-68
1.34648e-68
1.35884e-68
1.39318e-68
1.36684e-68
1.39399e-68
1.36991e-68
1.39374e-68
1.35693e-68
1.40228e-68
1.35392e-68
1.37016e-68
1.36925e-68
1.33908e-68
6.82043e-67
6.73937e-67
6.8003e-67
6.68817e-67
6.71627e-67
6.79207e-67
6.77086e-67
6.6093e-67
6.67017e-67
6.83732e-67
6.70927e-67
6.84031e-67
6.72499e-67
6.84011e-67
6.66059e-67
6.88079e-67
6.6471e-67
6.7255e-67
6.71912e-67
6.57375e-67
2.23043e-65
2.20451e-65
2.22388e-65
2.18808e-65
2.1964e-65
2.22168e-65
2.21467e-65
2.1623e-65
2.18247e-65
2.2363e-65
2.19506e-65
2.237e-65
2.20029e-65
2.23721e-65
2.17896e-65
2.24995e-65
2.17517e-65
2.20014e-65
2.19746e-65
2.15119e-65
1.97562e-64
1.95365e-64
1.97018e-64
1.93934e-64
1.94586e-64
1.96854e-64
1.96249e-64
1.91666e-64
1.93526e-64
1.98119e-64
1.94592e-64
1.98168e-64
1.95028e-64
1.98194e-64
1.93106e-64
1.99238e-64
1.92879e-64
1.94971e-64
1.94687e-64
1.90783e-64
9.04963e-65
9.05301e-65
9.0989e-65
8.96483e-65
8.99009e-65
9.04285e-65
9.07696e-65
8.89378e-65
9.1327e-65
9.04048e-65
9.08236e-65
9.09258e-65
8.98835e-65
9.03359e-65
8.87564e-65
8.98055e-65
9.01944e-65
8.94338e-65
8.96232e-65
9.02757e-65
1.51034e-64
1.51935e-64
1.53404e-64
1.50816e-64
1.49969e-64
1.50411e-64
1.51726e-64
1.492e-64
1.53623e-64
1.52646e-64
1.53444e-64
1.52408e-64
1.51908e-64
1.50378e-64
1.49302e-64
1.50439e-64
1.49243e-64
1.49831e-64
1.50722e-64
1.509e-64
1.67596e-64
1.6864e-64
1.69527e-64
1.66346e-64
1.66626e-64
1.64127e-64
1.67527e-64
1.65365e-64
1.68037e-64
1.71576e-64
1.69654e-64
1.66388e-64
1.69867e-64
1.67802e-64
1.67381e-64
1.68483e-64
1.62412e-64
1.67148e-64
1.65102e-64
1.654e-64
1.96272e-64
1.98404e-64
1.98551e-64
1.98071e-64
1.98899e-64
2.00551e-64
2.03876e-64
1.99341e-64
1.99367e-64
1.9672e-64
1.97227e-64
1.97593e-64
1.99571e-64
2.00442e-64
1.97001e-64
1.9886e-64
1.99634e-64
1.97636e-64
1.96276e-64
1.97056e-64
2.08143e-64
2.07143e-64
2.08125e-64
2.12025e-64
2.10629e-64
2.12653e-64
2.08972e-64
2.13197e-64
2.08296e-64
2.04326e-64
2.05372e-64
2.06994e-64
2.0728e-64
2.04527e-64
2.03625e-64
2.05905e-64
2.03595e-64
2.07581e-64
2.05631e-64
2.09359e-64
2.16259e-64
2.15483e-64
2.19121e-64
2.16767e-64
2.15544e-64
2.1951e-64
2.18015e-64
2.2177e-64
2.16342e-64
2.19835e-64
2.18457e-64
2.19091e-64
2.19362e-64
2.20176e-64
2.18063e-64
2.22826e-64
2.17494e-64
2.15002e-64
2.17428e-64
2.16605e-64
2.11157e-64
2.08006e-64
2.07912e-64
2.07841e-64
2.10427e-64
2.11965e-64
2.11549e-64
2.10401e-64
2.06421e-64
2.07549e-64
2.05265e-64
2.10881e-64
2.11135e-64
2.13432e-64
2.12994e-64
2.12183e-64
2.10759e-64
2.11477e-64
2.09152e-64
2.09784e-64
1.97945e-64
2.00994e-64
1.97965e-64
2.04112e-64
1.98159e-64
2.02626e-64
1.98978e-64
2.02097e-64
1.9943e-64
2.00902e-64
1.99943e-64
2.04064e-64
1.99964e-64
2.05329e-64
1.99459e-64
2.02092e-64
2.02223e-64
1.97264e-64
2.02948e-64
2.02834e-64
1.75147e-64
1.80866e-64
1.79294e-64
1.77307e-64
1.75835e-64
1.82506e-64
1.79293e-64
1.80222e-64
1.78845e-64
1.76152e-64
1.78035e-64
1.8132e-64
1.77917e-64
1.83991e-64
1.78027e-64
1.8102e-64
1.81591e-64
1.7943e-64
1.81994e-64
1.82588e-64
1.6821e-64
1.68202e-64
1.68175e-64
1.70241e-64
1.70688e-64
1.70682e-64
1.67218e-64
1.70365e-64
1.72489e-64
1.68039e-64
1.71141e-64
1.72207e-64
1.66905e-64
1.73118e-64
1.72223e-64
1.75478e-64
1.70708e-64
1.72647e-64
1.7063e-64
1.74397e-64
1.13009e-64
1.13908e-64
1.13624e-64
1.12563e-64
1.13857e-64
1.13477e-64
1.13924e-64
1.13747e-64
1.13316e-64
1.15106e-64
1.12584e-64
1.15368e-64
1.12661e-64
1.16464e-64
1.12952e-64
1.13116e-64
1.13508e-64
1.157e-64
1.13937e-64
1.16574e-64
3.31301e-78
3.27053e-78
3.30364e-78
3.24292e-78
3.26304e-78
3.29562e-78
3.28662e-78
3.20541e-78
3.23494e-78
3.31813e-78
3.25379e-78
3.32205e-78
3.2594e-78
3.31916e-78
3.22953e-78
3.34116e-78
3.22059e-78
3.26086e-78
3.26242e-78
3.18657e-78
1.59896e-75
1.57872e-75
1.5944e-75
1.56568e-75
1.57477e-75
1.59093e-75
1.58643e-75
1.54748e-75
1.56168e-75
1.60177e-75
1.57084e-75
1.60342e-75
1.57378e-75
1.6023e-75
1.55925e-75
1.61277e-75
1.55507e-75
1.57439e-75
1.57471e-75
1.53845e-75
3.89428e-73
3.84566e-73
3.88311e-73
3.8146e-73
3.83522e-73
3.87561e-73
3.86431e-73
3.77004e-73
3.80451e-73
3.90198e-73
3.82697e-73
3.90542e-73
3.83468e-73
3.90334e-73
3.79899e-73
3.92846e-73
3.78918e-73
3.83594e-73
3.83563e-73
3.74824e-73
5.61194e-71
5.54288e-71
5.59578e-71
5.49911e-71
5.52665e-71
5.58634e-71
5.56955e-71
5.4346e-71
5.48414e-71
5.62428e-71
5.51668e-71
5.62839e-71
5.52858e-71
5.62633e-71
5.47669e-71
5.66192e-71
5.46315e-71
5.53002e-71
5.52804e-71
5.40349e-71
5.6215e-69
5.5534e-69
5.60526e-69
5.5105e-69
5.5359e-69
5.59715e-69
5.57985e-69
5.44562e-69
5.49514e-69
5.63504e-69
5.52783e-69
5.63829e-69
5.54048e-69
5.63715e-69
5.48802e-69
5.67209e-69
5.47516e-69
5.54152e-69
5.53799e-69
5.41477e-69
3.96825e-67
3.92098e-67
3.95677e-67
3.89135e-67
3.90775e-67
3.952e-67
3.93947e-67
3.84541e-67
3.88037e-67
3.97865e-67
3.90345e-67
3.98035e-67
3.91287e-67
3.98016e-67
3.87547e-67
4.00426e-67
3.86696e-67
3.91326e-67
3.90967e-67
3.8239e-67
1.91536e-65
1.89298e-65
1.90983e-65
1.87898e-65
1.88614e-65
1.90797e-65
1.9018e-65
1.85676e-65
1.87369e-65
1.92075e-65
1.88478e-65
1.92128e-65
1.88952e-65
1.92148e-65
1.87127e-65
1.93277e-65
1.86752e-65
1.8895e-65
1.88724e-65
1.84657e-65
6.16e-64
6.08974e-64
6.14241e-64
6.04556e-64
6.06619e-64
6.13772e-64
6.11769e-64
5.97414e-64
6.0293e-64
6.1784e-64
6.06442e-64
6.17929e-64
6.07991e-64
6.18067e-64
6.02048e-64
6.21543e-64
6.01015e-64
6.07897e-64
6.07008e-64
5.94273e-64
5.3742e-63
5.31561e-63
5.35992e-63
5.27773e-63
5.29342e-63
5.35662e-63
5.33954e-63
5.21583e-63
5.26596e-63
5.3913e-63
5.29525e-63
5.39171e-63
5.30804e-63
5.39311e-63
5.2553e-63
5.4211e-63
5.2492e-63
5.30601e-63
5.29703e-63
5.1911e-63
2.40315e-63
2.40411e-63
2.41671e-63
2.38116e-63
2.38728e-63
2.4016e-63
2.41023e-63
2.36205e-63
2.42554e-63
2.40114e-63
2.41226e-63
2.41459e-63
2.38744e-63
2.39906e-63
2.35762e-63
2.38452e-63
2.39522e-63
2.37525e-63
2.38033e-63
2.39747e-63
4.03942e-63
4.06304e-63
4.1025e-63
4.03308e-63
4.01065e-63
4.02207e-63
4.05662e-63
3.99007e-63
4.1078e-63
4.0823e-63
4.1033e-63
4.07519e-63
4.06251e-63
4.02189e-63
3.99316e-63
4.02296e-63
3.99047e-63
4.0068e-63
4.03031e-63
4.03451e-63
4.4643e-63
4.4917e-63
4.51548e-63
4.43074e-63
4.43875e-63
4.37298e-63
4.46309e-63
4.40649e-63
4.47531e-63
4.56924e-63
4.51771e-63
4.43199e-63
4.52392e-63
4.47002e-63
4.45833e-63
4.48776e-63
4.32722e-63
4.45147e-63
4.39826e-63
4.40569e-63
5.24212e-63
5.29715e-63
5.30197e-63
5.2903e-63
5.31181e-63
5.35637e-63
5.44236e-63
5.32449e-63
5.32411e-63
5.25341e-63
5.26649e-63
5.27657e-63
5.32926e-63
5.35295e-63
5.2618e-63
5.31052e-63
5.33076e-63
5.27878e-63
5.24188e-63
5.26317e-63
5.54097e-63
5.51331e-63
5.5392e-63
5.64255e-63
5.6059e-63
5.65965e-63
5.56154e-63
5.67458e-63
5.54246e-63
5.44017e-63
5.46634e-63
5.51042e-63
5.5169e-63
5.44465e-63
5.42084e-63
5.48146e-63
5.41928e-63
5.52517e-63
5.47385e-63
5.572e-63
5.77671e-63
5.75541e-63
5.85195e-63
5.78882e-63
5.75742e-63
5.86356e-63
5.82239e-63
5.92321e-63
5.77902e-63
5.87234e-63
5.83492e-63
5.85214e-63
5.85855e-63
5.88249e-63
5.82534e-63
5.95109e-63
5.80966e-63
5.74301e-63
5.80767e-63
5.7843e-63
5.62469e-63
5.54202e-63
5.53767e-63
5.53714e-63
5.60523e-63
5.64618e-63
5.63448e-63
5.60451e-63
5.49948e-63
5.52905e-63
5.468e-63
5.61662e-63
5.6242e-63
5.68439e-63
5.6734e-63
5.65084e-63
5.61391e-63
5.63365e-63
5.57201e-63
5.58862e-63
5.29702e-63
5.37917e-63
5.29753e-63
5.46064e-63
5.30131e-63
5.42051e-63
5.32332e-63
5.40717e-63
5.33632e-63
5.37633e-63
5.34982e-63
5.46062e-63
5.35042e-63
5.49336e-63
5.33771e-63
5.40642e-63
5.41101e-63
5.27915e-63
5.4304e-63
5.4274e-63
4.68017e-63
4.83115e-63
4.79023e-63
4.73658e-63
4.69805e-63
4.87456e-63
4.78873e-63
4.81399e-63
4.77744e-63
4.70595e-63
4.75526e-63
4.84279e-63
4.7528e-63
4.9133e-63
4.75564e-63
4.83516e-63
4.84955e-63
4.79343e-63
4.86054e-63
4.87704e-63
4.52579e-63
4.52567e-63
4.52573e-63
4.5805e-63
4.59161e-63
4.59172e-63
4.49863e-63
4.585e-63
4.64022e-63
4.52174e-63
4.60437e-63
4.63352e-63
4.49058e-63
4.65733e-63
4.63358e-63
4.7205e-63
4.59337e-63
4.64396e-63
4.59004e-63
4.69055e-63
3.02664e-63
3.05084e-63
3.04358e-63
3.01496e-63
3.04886e-63
3.0391e-63
3.05043e-63
3.04655e-63
3.03367e-63
3.08215e-63
3.01453e-63
3.08883e-63
3.01691e-63
3.11829e-63
3.02473e-63
3.02922e-63
3.03911e-63
3.0979e-63
3.05094e-63
3.12102e-63
1.02421e-76
1.01123e-76
1.02131e-76
1.0029e-76
1.00873e-76
1.0191e-76
1.0162e-76
9.91258e-77
1.00031e-76
1.02609e-76
1.0062e-76
1.02715e-76
1.00809e-76
1.02639e-76
9.98782e-77
1.03312e-76
9.96031e-77
1.00847e-76
1.00868e-76
9.85372e-77
4.86201e-74
4.80122e-74
4.84819e-74
4.76256e-74
4.78835e-74
4.83887e-74
4.82467e-74
4.707e-74
4.74981e-74
4.872e-74
4.77799e-74
4.87629e-74
4.78768e-74
4.87355e-74
4.7431e-74
4.90505e-74
4.73048e-74
4.78915e-74
4.78886e-74
4.67923e-74
1.16314e-71
1.14881e-71
1.15983e-71
1.13977e-71
1.14549e-71
1.15788e-71
1.15438e-71