/*--------------------------------*- C++ -*----------------------------------*\
| =========                 |                                                 |
| \\      /  F ield         | OpenFOAM: The Open Source CFD Toolbox           |
|  \\    /   O peration     | Version:  2212                                  |
|   \\  /    A nd           | Website:  www.openfoam.com                      |
|    \\/     M anipulation  |                                                 |
\*---------------------------------------------------------------------------*/
FoamFile
{
    version     2.0;
    format      ascii;
    arch        "LSB;label=32;scalar=64";
    class       volScalarField;
    location    "0.0036";
    object      p;
}
// * * * * * * * * * * * * * * * * * * * * * * * * * * * * * * * * * * * * * //

dimensions      [1 -1 -2 0 0 0 0];

internalField   nonuniform List<scalar> 
7220
(
312.446
611.834
613.709
614.362
610.37
612.42
605.791
600.557
608.842
604.858
303.345
564.821
455.687
357.677
350.604
541.106
334.556
356.348
339.93
349.954
358.095
484.427
623.738
496.006
540.834
536.558
577.052
354.835
357.083
389.136
551.845
417.105
591.185
378.113
478.134
298.656
618.64
300.707
300.056
240.246
239.752
239.753
240.245
285.17
291.315
292.487
289.238
284.87
239.236
238.718
238.721
239.238
238.223
237.766
237.77
238.226
237.315
237.075
237.086
237.317
237.169
237.332
237.357
237.187
237.582
238.11
238.154
237.616
239.069
240.487
240.556
239.124
242.482
245.141
245.24
242.565
248.615
253.016
253.156
248.729
258.437
264.817
265.039
258.613
279.057
272.106
271.802
278.69
284.509
278.938
240.713
240.71
239.339
239.843
293.973
294.771
289.021
292.353
270.707
257.411
263.738
247.724
252.058
241.714
244.315
238.4
239.771
236.996
237.484
236.636
236.774
236.846
236.57
237.768
237.301
238.804
238.275
239.839
239.331
238.285
238.812
237.319
237.782
236.611
236.862
236.853
236.699
237.612
237.095
239.966
238.56
244.588
241.947
252.446
248.045
264.424
257.911
271.685
277.654
240.32
240.322
284.647
277.933
295.972
294.705
283.62
288.239
281.938
289.458
291.612
286.72
268.812
275.803
255.622
261.871
246.151
250.379
240.34
242.846
237.18
238.478
235.899
236.33
235.614
235.717
235.936
235.597
236.887
236.397
237.967
237.416
239.051
238.517
240.746
240.003
239.557
241.123
241.126
239.56
240.008
240.749
238.53
239.058
237.439
237.985
236.436
236.917
235.671
235.969
235.849
235.726
236.53
236.058
238.771
237.425
243.24
240.681
250.926
246.607
262.908
256.347
270.349
294.699
292.587
282.174
275.49
241.1
240.38
238.474
238.948
296.649
296.495
297.766
293.984
279.571
294.67
292.887
290.205
287.168
284.522
266.211
273.264
253.191
259.32
244.013
248.091
238.461
240.845
235.495
236.703
234.362
234.725
234.161
234.228
234.631
234.217
235.63
235.108
236.774
236.191
237.926
237.357
238.934
238.46
241.468
241.47
240.388
241.107
237.383
237.943
236.232
236.806
235.172
235.681
234.326
234.693
234.411
234.326
234.983
234.575
237.065
235.805
241.308
238.873
248.701
244.533
260.43
253.983
267.831
290.59
239.337
239.355
296.564
298.245
296.365
298.395
288.118
279.128
272.19
284.404
292.589
237.575
238.006
240.705
239.693
295.819
299.549
298.137
300.055
299.547
297.594
300.019
298.321
285.479
276.555
281.741
262.933
270.031
250.187
256.142
241.402
245.283
236.184
238.416
233.448
234.551
232.48
232.768
232.367
232.396
232.995
232.523
234.064
233.503
235.282
234.663
236.506
235.902
237.071
239.667
241.395
240.692
241.756
241.756
241.405
238.044
237.105
237.609
235.946
236.541
234.725
235.334
233.598
234.14
232.661
233.1
232.627
232.583
233.073
232.739
234.957
233.805
238.915
236.637
245.913
241.953
257.223
250.971
264.503
290.505
288.072
293.937
292.289
295.694
290.588
238.352
238.401
275.331
268.148
281
294.998
294.402
300.212
301.389
302.007
297.548
297.958
282.37
301.956
288.033
285.091
301.418
272.874
278.384
259.042
266.134
246.701
252.405
238.451
242.074
233.64
235.69
231.164
232.153
230.364
230.579
230.337
230.324
231.107
230.601
232.248
231.65
233.548
232.888
234.844
234.206
235.972
235.44
236.778
236.424
237.003
239.881
238.571
241.593
240.897
241.95
241.949
240.915
241.604
238.634
239.916
237.1
236.492
236.861
235.499
236.031
234.276
234.905
232.982
233.628
231.782
232.361
230.772
231.259
230.601
230.592
230.917
230.664
232.579
231.549
236.201
234.108
242.703
239.011
253.429
247.466
260.498
287.648
284.992
291.187
289.516
292.959
289.909
292.444
300.205
287.05
270.873
263.504
277.011
234.996
235.223
238.736
237.21
302.061
303.322
303.983
300.107
296.527
299.055
302.627
291.656
296.266
304.072
299.345
288.782
303.512
283.931
278.851
281.82
268.608
274.504
254.685
261.703
242.929
248.306
235.316
238.64
230.952
232.802
228.753
229.624
228.114
228.263
228.159
228.102
229.036
228.507
230.248
229.614
231.627
230.929
232.992
232.321
234.171
233.616
234.638
237.09
239.948
238.649
241.645
240.954
242.006
242
240.993
241.669
240.007
235.356
234.74
235.114
233.705
234.262
232.422
233.084
231.056
231.738
229.786
230.398
228.727
229.232
228.407
228.443
228.619
228.438
230.058
229.156
233.311
231.424
239.243
235.866
249.24
243.652
255.997
284.419
281.447
288.169
286.454
292.117
289.981
294.315
294.276
285.711
235.315
235.469
258.437
265.894
290.519
293.432
302.138
304.054
305.395
306.16
301.841
305.404
313.719
305.975
565.169
306.33
287.44
284.302
280.671
282.542
275.011
278.353
263.91
270.183
250.064
256.907
239.045
244.017
232.121
235.114
228.225
229.869
226.301
227.058
225.801
225.901
225.915
225.811
226.859
226.324
228.129
227.463
229.573
228.84
231.006
230.304
232.231
231.656
233.069
232.709
233.388
233.298
233.351
237.05
235.277
239.91
238.609
241.614
240.921
241.978
241.971
240.963
241.641
238.705
239.977
235.439
237.18
233.544
233.462
233.575
232.843
233.219
231.774
232.352
230.431
231.126
228.995
229.712
227.661
228.304
226.568
227.086
226.134
226.211
226.262
226.135
227.483
226.695
230.35
228.676
235.675
232.634
244.813
239.666
251.171
280.919
272.518
277.517
284.976
283.191
288.676
286.755
292.944
290.71
298.199
295.434
308.219
304.525
304.888
301.231
296.157
582.721
289.226
286.095
304.189
615.537
231.381
231.345
235.298
233.394
306.166
308.18
307.634
308.429
308.713
308.523
308.831
596.137
564.767
564.613
559.857
536.931
562.124
292.319
295.247
574.536
294.257
304.286
300.784
302.337
300.323
291.139
578.66
288
535.312
293.228
290.061
591.716
293.56
292.277
289.106
291.383
284.907
286.935
281.196
283.006
277.363
279.382
270.891
274.729
258.919
265.516
245.373
251.93
235.188
239.734
228.979
231.667
225.549
226.991
223.878
224.528
223.484
223.555
223.655
223.511
224.644
224.1
225.955
225.264
227.456
226.693
228.951
228.219
230.218
229.626
231.069
230.705
231.297
233.189
236.895
235.118
239.772
238.461
241.5
240.795
241.872
241.864
240.849
241.533
238.58
239.856
237.048
231.561
231.487
231.593
230.865
231.243
229.766
230.364
228.361
229.09
226.86
227.608
225.474
226.141
224.356
224.877
223.83
223.952
223.893
223.812
224.911
224.241
227.409
225.952
232.123
229.416
240.364
235.698
253.146
246.224
267.586
260.574
277.23
273.242
281.786
279.875
285.322
283.529
289.437
287.274
294.568
291.871
297.534
569.011
569.29
564.069
297.932
303.647
573.106
345.923
529.452
316.876
231.185
231.405
560.557
297.226
302.32
304.307
306.295
311.758
552.734
296.38
297.097
300.338
307.302
308.426
311.678
311.694
295.5
278.072
310.046
356.885
294.595
556.028
311.079
311.565
581.627
577.159
320.535
569.066
573.11
615.299
286.155
288.577
281.912
283.948
278.155
280.005
273.997
276.244
266.475
270.906
253.796
260.588
240.78
246.96
231.527
235.62
226.025
228.388
222.994
224.26
221.532
222.104
221.235
221.272
221.466
221.28
222.467
221.921
223.804
223.099
225.348
224.561
226.892
226.134
228.196
227.589
229.059
228.692
229.366
229.286
229.178
229.333
228.802
232.811
230.803
236.554
234.751
239.482
238.15
241.241
240.52
241.636
241.619
240.606
241.298
238.3
239.596
234.965
236.741
231.031
233.037
229.016
229.558
229.4
229.494
229.591
228.871
229.252
227.742
228.36
226.282
227.04
224.722
225.499
223.294
223.98
222.157
222.682
221.56
221.725
221.56
221.519
222.401
221.834
224.56
223.291
228.687
226.31
236.024
231.859
247.827
241.354
262.311
255.066
273.281
268.593
278.6
276.43
282.13
280.382
286.088
284
291.069
288.436
293.967
561.514
561.35
291.405
578.528
569.525
299.93
305.691
569.27
319.753
315.664
557.894
572.611
596.672
299.394
293.684
296.823
303.461
308.548
304.561
306.543
565.105
315.158
613.712
227.228
226.869
230.458
228.404
314.881
524.67
298.697
310.196
591.451
616.943
620.226
623.709
571.784
310.856
547.199
547.333
561.303
472.41
547.737
545.413
297.903
317.187
588.298
595.367
594.281
588.531
547.169
312.64
314.515
296.914
585.458
313.826
547.781
544.353
543.819
295.504
581.191
544.046
577.018
573.096
323.602
617.237
324.22
530.715
283.343
285.82
278.993
281.064
275.128
277.05
270.456
273.06
261.756
266.805
248.643
255.466
236.428
242.114
228.161
231.791
223.304
225.388
220.638
221.761
219.36
219.859
219.13
219.149
219.409
219.193
220.405
219.863
221.744
221.036
223.305
222.508
224.877
224.105
226.21
225.589
227.088
226.715
227.4
227.318
227.37
228.175
232.249
230.207
236.05
234.225
239.017
237.661
240.838
240.088
241.252
241.234
240.189
240.902
237.842
239.157
234.468
236.266
232.503
227.061
227.593
227.441
227.535
227.626
226.907
227.293
225.756
226.388
224.258
225.036
222.662
223.456
221.209
221.905
220.067
220.592
219.413
219.629
219.362
219.347
220.036
219.561
221.897
220.801
225.49
223.423
231.951
228.271
242.649
236.723
256.815
249.543
268.977
263.568
275.326
272.775
279.031
277.259
282.921
280.879
287.823
285.234
290.654
557.577
587.338
597.887
592.943
574.177
568.993
540.235
302.146
296.801
299.984
307.924
550.816
553.104
550.31
557.47
555.364
556.693
569.037
550.95
312.812
318.869
293.465
593.418
226.228
226.423
318.269
553.276
553.174
555.03
554.939
547.5
301.758
615.92
306.644
622.083
579.5
564.783
570.112
595.866
310.971
306.992
308.973
550.375
560.585
555.676
557.814
545.626
542.308
545.466
549.062
555.583
564.527
543.023
587.98
596.521
621.977
548.015
548.774
301.172
313.636
551.432
581.5
523.954
313.461
550.869
542.203
545.678
549.055
317.651
300.351
360.071
320.806
560.599
588.57
601.279
611.613
610.081
607.168
589.202
315.403
547.837
551.263
546.245
549.323
350.095
475.351
316.755
299.219
584.961
547.166
550.964
550.101
540.22
297.662
580.918
538.967
542.455
540.539
577.18
543.204
327.35
322.715
359.094
544.058
604.019
328.009
303.542
280.512
282.982
276.131
278.228
272.031
274.106
266.581
269.672
256.701
262.302
243.566
250.199
232.383
237.499
225.12
228.291
220.876
222.703
218.535
219.521
217.426
217.848
217.246
217.252
217.553
217.323
218.518
217.993
219.829
219.134
221.368
220.58
222.935
222.164
224.277
223.651
225.176
224.791
225.512
225.418
225.37
225.489
224.423
225.051
223.715
227.49
225.522
231.612
229.547
235.436
233.602
238.441
237.061
240.308
239.535
240.738
240.719
239.645
240.377
237.252
238.591
233.849
235.66
229.8
231.869
225.721
227.722
223.87
225.222
224.581
225.71
225.574
225.641
225.737
225.002
225.394
223.842
224.478
222.338
223.119
220.744
221.535
219.299
219.991
218.17
218.687
217.488
217.743
217.391
217.396
217.916
217.531
219.485
218.551
222.598
220.802
228.235
225.021
237.746
232.432
251.188
244.121
264.228
258.183
271.872
268.762
276.035
274.111
280.019
277.96
284.844
282.314
290.556
287.6
293.64
321.843
508.742
614.479
577.127
548.344
554.652
554.448
600.186
589.1
595.056
574.869
582.21
558.859
566.723
552.194
304.554
303.231
358.71
600.066
310.345
553.16
559.43
552.404
567.882
508.478
547.459
289.577
619.547
618.357
600.742
602.987
559.076
542.178
359.097
537.405
545.58
545.144
539.227
541.973
551.001
551.233
552.968
552.926
541.135
304.287
310.061
557.805
573.787
612.047
595.779
313.574
309.588
311.572
553.657
563.551
558.465
560.506
552.547
320.964
620.718
222.817
222.116
224.895
223.05
546.042
546.706
303.741
495.172
317.18
557.661
582.857
602.598
609.351
592.427
316.242
554.293
552.579
474.569
319.852
496.453
302.882
324.533
558.702
588.405
318.326
554.446
553.044
536.48
301.696
584.493
536.088
538.844
553.85
536.458
300.448
580.727
539.277
331.088
326.515
577.315
540.067
325.533
598.894
540.62
574.743
538.428
331.94
607.637
603.106
613.773
606.39
292.679
289.364
283.081
286.305
277.689
280.199
273.25
275.387
268.754
271.091
262.229
265.946
251.346
257.322
238.625
244.873
228.624
233.131
222.375
225.085
218.758
220.315
216.72
217.583
215.761
216.124
215.622
215.617
215.948
215.711
216.844
216.353
218.076
217.422
219.543
218.79
221.066
220.312
222.4
221.773
223.328
222.924
223.722
223.597
223.628
223.713
223.369
222.935
226.713
224.738
230.854
228.781
234.685
232.846
237.714
236.321
239.614
238.826
240.057
240.035
238.942
239.688
236.516
237.872
233.079
234.906
228.998
231.085
226.905
222.227
223.531
222.929
223.935
223.828
223.835
223.951
223.167
223.57
222.007
222.639
220.527
221.293
218.977
219.744
217.591
218.253
216.518
217.009
215.845
216.119
215.722
215.74
216.115
215.814
217.417
216.632
220.07
218.535
224.887
222.137
233.167
228.507
245.562
238.919
259.01
252.522
268.139
264.274
273.18
270.934
277.344
275.243
282.063
279.594
287.679
284.765
293.93
290.743
297.253
617.895
614.024
615.732
610.941
612.465
605.23
608.358
609.519
613.357
615.31
617.375
616.272
618.675
614.373
616.764
607.754
605.232
610.311
587.75
597.949
574.953
524.624
534.705
287.805
544.051
552.501
552.489
612.517
620.646
616.679
603.338
608.163
591.093
597.83
574.099
583.118
554.723
564.204
546.779
307.128
306.588
565.813
296.416
609.854
599.604
312.948
556.177
562.216
559.697
556.078
563.036
324.44
347.361
513.726
301.572
528.504
221.354
221.429
356.27
360.053
622.226
623.195
621.184
351.066
529.418
539.259
540.26
536.563
538.847
549.486
549.657
551.989
551.828
532.815
306.946
306.438
313.492
563.688
576.569
292.454
295.872
604.839
609.826
602.059
595.615
353.662
351.574
316.335
312.336
314.333
556.927
359.667
361.444
360.94
566.332
561.343
563.302
556.015
358.332
516.738
524.001
520.89
323.116
510.386
305.042
621.684
624.287
545.358
544.612
306.43
320.761
563.13
583.988
604.89
607.537
604.278
591.625
319.186
557.52
556.166
354.985
533.03
321.413
305.598
360.682
362.237
328.38
361.712
362.032
563.558
611.37
587.694
533.674
535.537
557.319
556.659
532.315
304.555
363.36
363.331
614.542
612.533
583.969
535.501
334.826
330.228
359.073
362.819
362.995
363.992
363.891
364.581
364.068
364.3
580.493
536.011
329.239
597.472
536.774
577.43
536.634
328.024
320.531
574.479
625.26
335.836
343.666
295.677
292.419
286.326
289.325
280.414
283.388
274.899
277.539
270.195
272.478
265.171
267.847
257.403
261.81
245.777
251.928
233.88
239.572
225.116
229.032
219.76
222.071
216.754
218.032
215.14
215.817
214.367
214.669
214.241
214.244
214.505
214.294
215.294
214.858
216.411
215.814
217.775
217.07
219.231
218.504
220.552
219.924
221.52
221.09
222.002
221.828
221.978
222.029
221.359
221.791
219.971
220.694
219.16
222.035
220.49
225.793
223.82
229.944
227.865
233.788
231.942
236.834
235.433
238.75
237.954
239.2
239.175
238.074
238.825
235.627
236.994
232.164
234.005
228.053
230.156
223.938
225.949
220.529
222.112
219.163
220.765
220.01
221.941
221.442
222.238
222.17
222.09
222.241
221.375
221.795
220.22
220.845
218.784
219.523
217.317
218.04
216.026
216.64
215.041
215.489
214.423
214.678
214.314
214.331
214.64
214.387
215.72
215.07
217.908
216.64
221.929
219.625
228.974
224.988
239.991
233.996
253.316
246.634
264.024
259.268
270.266
267.574
274.707
272.539
279.428
276.966
285.004
282.116
291.251
288.051
294.616
617.54
619.485
613.967
615.671
611.401
612.503
607.025
610.282
610.686
614.017
616.196
617.27
616.595
619.233
618.165
620.494
625.771
624.341
617.199
619.667
608.013
613.313
589.014
600.272
556.208
574.264
535.206
637.232
535.796
539.992
551.39
551.195
616.315
624.021
620.25
607.038
612.038
593.27
600.891
572.523
583.725
549.04
560.408
539.698
309.844
309.876
570.064
303.61
299.603
607.502
598.847
350.664
348.657
315.714
361.728
559.234
359.04
360.229
564.999
559.475
359.073
345.518
536.206
533.402
300.825
351.682
354.03
326.531
624.442
353.715
592.464
482.524
524.179
307.62
353.824
354.124
627.464
627.483
625.941
588.5
534.302
534.581
536.132
549.511
548.29
551.863
551.604
309.748
309.208
316.869
568.618
578.952
299.22
602.767
608.15
601.048
594.748
348.979
319.266
315.252
317.261
363.004
360.271
442.499
560.132
362.373
569.018
564.217
566.088
559.569
357.416
355.93
529.841
356.026
324.66
363.263
218.7
217.945
219.531
218.209
628.089
629.651
540.696
547.912
542.385
309.313
324.361
354.745
304.835
360.763
567.952
586.912
295.613
299.012
609.264
603.636
590.725
531.874
532.655
322.283
363.58
560.424
363.888
566.951
559.589
352.05
528.343
295.416
298.773
343.12
308.599
332.182
363.103
610.544
610.084
606.743
587.025
532.021
533.205
559.978
364.784
338.437
333.869
307.755
335.824
364.371
611.939
583.47
532.089
365.03
332.892
595.828
532.581
616.106
613.781
580.201
532.529
331.651
532.795
360.955
577.131
330.063
587.926
629.42
350.91
356.109
350.423
298.817
295.544
289.449
292.486
283.547
286.472
277.723
280.651
272.115
274.845
266.975
269.526
261.151
264.281
252.322
257.25
240.454
246.543
229.636
234.674
222.258
225.513
217.797
219.735
215.217
216.322
213.801
214.397
213.125
213.391
212.985
213
213.194
213.025
213.867
213.492
214.844
214.319
216.077
215.435
217.443
216.755
218.738
218.114
219.748
219.29
220.318
220.096
220.378
220.4
219.962
220.264
219.372
218.255
221.031
219.531
224.752
222.789
228.908
226.825
232.762
230.911
235.808
234.408
237.719
236.924
238.163
238.14
237.039
237.789
234.588
235.959
231.115
232.961
226.99
229.099
222.879
224.882
221.076
217.898
219.381
218.686
220.372
219.996
220.571
220.531
220.338
220.528
219.571
220.01
218.421
219.036
217.052
217.748
215.703
216.363
214.549
215.094
213.694
214.079
213.171
213.388
213.082
213.096
213.334
213.141
214.201
213.673
216.009
214.962
219.365
217.439
225.263
221.92
234.843
229.551
247.648
241.018
259.495
254.029
267.029
263.772
272.046
269.66
276.951
274.434
282.507
279.638
288.707
285.533
292.029
630.148
624.916
627.379
620.461
622.665
616.733
618.483
614.266
615.295
613.309
613.631
610.077
613.364
613.243
616.254
618.838
618.434
618.499
619.241
618.689
621.076
620.032
623.833
622.345
625.536
626.848
620.858
623.139
611.937
617.233
592.254
603.974
555.022
575.531
508.541
532.233
487.892
530.29
536.574
551.518
550.587
627.872
633.165
631.209
620.573
624.317
611.156
616.34
595.844
604.457
571.631
584.744
542.178
557.199
522.852
530.458
357.324
312.717
313.002
573.974
307.071
303.032
605.693
597.861
345.978
318.644
361.803
351.531
354.109
562.258
361.701
567.845
563.136
356.716
369.127
526.807
328.065
362.269
628.84
342.156
512.303
364.016
552.72
550.094
217.09
216.989
629.385
631.551
629.529
505.831
530.936
533.182
534.167
550.808
547.054
552.414
551.958
531.169
512.519
312.738
311.817
320.202
454.741
452.982
421.29
463.394
572.845
581.778
302.721
606.951
600.235
593.781
530.79
530.29
322.362
318.339
320.367
362.805
502.526
353.642
358.484
360.277
358.484
563.192
526.171
363.49
568.726
568.57
562.767
516.657
353.045
524.537
292.941
296.343
302.466
555.238
539.917
637.996
354.608
639.839
312.436
327.897
349.109
351.19
356.549
362.544
357.897
571.218
321.846
302.414
608.456
603.265
590.04
347.111
372.977
528.971
526.14
325.553
362.975
619.405
621.458
622.262
562.9
358.434
352.112
533.518
364.783
538.607
463.292
538.881
337.416
562.7
311.87
351.332
351.018
348.655
335.601
364.283
354.619
357.645
298.589
302.002
609.92
606.601
586.42
620.618
617.243
617.569
381.401
528.4
359.815
402.454
365.398
573.083
336.444
589.071
341.79
623.213
311.24
336.559
355.971
460.689
365.227
528.113
611.565
613.615
610.121
583.025
613.815
537.493
528.445
335.24
528.533
359.428
613.753
579.789
528.642
333.638
331.58
361.104
616.55
576.747
530.581
304.551
355.09
349.274
351.475
346.264
344.004
346.843
301.549
298.32
292.568
295.474
286.72
289.632
280.952
283.839
275.075
278.042
269.198
272.1
263.461
266.359
256.55
260.296
246.779
252.037
235.4
241.078
225.742
230.197
219.363
222.14
215.759
217.287
213.767
214.624
212.614
213.113
212.01
212.258
211.805
211.866
211.886
211.806
212.41
212.107
213.213
212.777
214.281
213.718
215.527
214.891
216.773
216.163
217.815
217.332
218.469
218.198
218.641
218.619
218.392
218.586
217.342
217.964
215.843
216.647
214.941
217.265
216.144
219.954
218.498
223.625
221.681
227.769
225.69
231.614
229.768
234.638
233.251
236.519
235.739
236.947
236.926
235.835
236.577
233.396
234.762
229.927
231.772
225.806
227.913
221.715
223.704
218.431
219.94
215.96
217.143
214.703
216.534
215.683
217.896
217.251
218.643
218.396
218.747
218.733
218.396
218.638
217.581
218.037
216.447
217.045
215.177
215.814
213.978
214.558
212.993
213.454
212.287
212.601
211.908
212.034
211.861
211.866
212.13
211.941
212.929
212.448
214.54
213.615
217.388
215.769
222.307
219.517
230.445
225.915
241.995
235.882
254.168
248.29
263.186
259.173
269.189
266.414
274.448
271.808
280.107
277.204
286.326
283.157
289.588
632.318
634.89
627.494
629.843
622.96
625.212
619.205
621.001
616.973
617.877
616.188
616.441
616.457
616.205
617.008
620.685
620.91
621.182
620.765
622.858
621.855
625.668
624.137
627.42
633.539
630.213
631.391
629.739
625.504
627.633
617.281
622.223
597.241
609.402
555.348
579.308
506.685
530.881
484.189
491.033
347.317
534.329
552.389
550.456
632.342
635.228
625.195
629.008
615.427
620.745
599.343
608.499
571.245
587.209
536.778
555.251
510.311
520.275
509.475
315.767
316.004
460.257
431.17
577.795
310.744
306.666
604.415
596.945
364.779
364.574
527.146
528.468
635.506
533.731
538.773
339.403
335.977
361.847
497.367
332.269
321.749
361.72
339.11
356.275
356.319
565.303
354.847
362.786
570.308
570.334
566.26
353.85
366.567
504.124
507.351
520.789
576.044
355.166
363.028
554.27
342.765
315.88
351.177
299.808
335.627
632.954
478.379
510.81
530.661
554.432
546.014
553.273
640.657
315.936
310.002
314.475
323.46
353.06
356.073
361.816
359.567
575.685
352.668
368.107
570.077
472.07
355.471
306.324
606.153
599.775
593.147
621.855
624.588
625.929
623.051
371.581
373.317
526.29
521.478
522.909
526.469
518.765
349.193
306.336
325.626
321.615
323.649
362.382
623.129
472.484
625.688
355.793
360.125
358.467
354.122
600.112
565.466
352.681
348.435
364.53
534.608
340.779
345.872
571.45
573.081
490.897
346.813
565.723
573.068
502.32
514.824
214.675
213.843
214.83
213.619
635.772
637.533
636.846
514.381
519.879
529.066
537.213
315.789
350.65
349.689
349.69
331.202
348.355
354.095
363.922
359.52
594.412
305.787
350.471
598.668
607.884
603.061
589.477
618.471
378.107
383.184
516.487
525.098
520.802
340.169
329.65
328.977
362.115
619.992
343.524
351.815
565.498
365.504
342.393
339.814
322.058
509.808
351.976
523.801
315.396
347.868
344.828
338.581
340.882
343.144
355.486
365.252
358.212
523.613
305.069
609.433
606.56
585.914
614.122
392.856
509.471
524.58
314.82
334.378
335.044
340.891
365.701
338.7
335.186
314.908
344.465
339.511
523.913
301.04
304.359
357.618
611.336
610.219
582.552
501.94
524.446
340.086
337.162
335.137
359.7
613.764
579.402
524.328
361.304
546.496
464.613
489.355
590.472
351.543
346.911
349.362
341.54
344.335
337.581
335.274
338.515
303.57
300.388
295.383
297.983
289.887
292.667
284.264
287.077
278.553
281.439
272.477
275.57
266.123
269.308
259.584
262.918
251.713
255.924
241.375
246.83
230.487
235.765
222.118
225.894
216.914
219.161
213.987
215.232
212.378
213.067
211.467
211.858
210.974
211.179
210.766
210.84
210.792
210.756
211.154
210.914
211.798
211.449
212.698
212.218
213.796
213.228
214.952
214.378
215.979
215.493
216.684
216.38
216.963
216.883
216.844
216.946
216.034
216.568
215.398
213.945
216.192
215.106
218.803
217.387
222.413
220.494
226.526
224.461
230.34
228.51
233.32
231.957
235.148
234.395
235.552
235.538
234.463
235.191
232.051
233.404
228.597
230.435
224.496
226.592
220.442
222.408
217.227
218.699
215.976
213.543
215.205
214.449
216.44
215.84
216.947
216.794
216.963
216.99
216.526
216.802
215.703
216.153
214.631
215.188
213.495
214.058
212.468
212.959
211.667
212.036
211.133
211.364
210.895
210.965
210.915
210.882
211.176
211.006
211.821
211.439
213.017
212.337
215.168
213.929
219.099
216.846
225.952
222.085
236.459
230.781
248.75
242.631
258.876
254.263
265.931
262.673
271.835
268.926
277.801
274.769
284.166
280.94
290.709
287.439
297.19
293.99
634.015
636.339
629.516
631.746
625.457
627.363
621.788
623.803
619.493
620.447
618.524
618.836
618.976
618.561
621.33
619.854
623.065
626.931
624.379
624.501
627.198
627.417
625.794
626.645
623.908
624.798
622.877
623.245
623.024
622.792
624.516
623.645
627.341
625.774
631.211
629.171
633.462
637.982
638.451
636.821
629.791
631.582
624.247
627.506
606.704
617.91
564.015
588.785
510.614
537.007
488.225
497.715
336.005
530.471
554.843
550.855
643.373
646.999
645.397
636.447
640.302
628.494
632.428
619.661
624.318
604.695
613.47
574.421
591.669
534.885
554.618
500.415
514.631
497.872
319.025
318.955
354.823
360.855
580.114
511.677
532.667
314.531
310.452
325.414
596.389
623.991
372.883
524.505
503.391
510.944
352.595
345.02
347.252
562.911
339.347
332.523
329.081
300.257
303.058
325.03
361.452
449.857
634.2
358.265
356.472
407.768
350.817
363.969
362.671
572.779
574.49
494.131
487.766
569.167
524.526
476.897
360.782
350.908
410.454
364.095
302.491
445.707
212.914
212.534
302.87
645.459
335.71
522.827
532.837
525.793
556.959
545.319
556.154
319.35
540.198
350.535
312.999
317.37
326.556
350.256
353.175
363.304
361.246
577.537
586.212
363.618
338.598
309.952
601.301
605.802
599.526
592.683
619.427
381.019
383.497
518.253
522.319
512.166
355.845
459.993
302.533
309.046
329.066
325.095
327.124
361.71
620.353
620.637
620.641
589.819
357.326
359.812
358.311
354.403
495.591
505.549
597.421
571.562
567.958
342.702
346.647
365.383
330.92
343.131
591.364
576.37
311.465
574.386
506.459
324.035
351.616
514.495
552.728
533.423
632.574
648.572
633.227
319.364
347.626
345.959
334.138
345.258
351.361
331.696
325.381
328.145
365.044
360.912
519.141
514.703
640.63
381.023
308.947
607.31
602.936
588.958
614.708
568.57
387.726
394.665
511.332
521.014
336.766
335.801
345.117
525.677
307.531
306.653
310.954
309.771
332.51
361.053
616.791
346.81
342.126
352.344
568.341
365.858
515.774
341.967
346.275
350.918
314.249
534.301
318.655
319.088
344.395
340.834
340.477
339.863
334.122
365.783
455.973
476.647
518.985
357.093
307.939
342.808
608.997
606.524
585.446
610.389
405.566
503.915
520.381
495.769
340.52
318.182
485.902
334.828
306.943
340.53
338.637
358.016
611.087
582.187
520.017
346.178
557.553
538.817
346.461
347.31
343.495
345.322
338.789
341.307
332.971
335.976
329.666
312.47
297.467
299.463
292.72
295.189
287.468
290.127
281.998
284.755
276.212
279.158
269.763
273.087
262.665
266.267
255.102
258.978
246.123
250.864
235.779
241.001
226.237
230.784
218.998
222.29
214.284
216.348
211.537
212.712
210.054
210.676
209.313
209.615
208.964
209.101
208.86
208.886
208.926
208.874
209.211
209.023
209.702
209.431
210.433
210.038
211.347
210.869
212.37
211.853
213.355
212.877
214.131
213.778
214.575
214.402
214.623
214.651
214.182
214.496
213.042
213.663
211.437
212.293
210.484
212.86
211.903
215.03
213.978
217.567
216.191
221.108
219.22
225.167
223.128
228.933
227.128
231.851
230.522
233.61
232.894
233.985
233.978
232.924
233.633
230.553
231.887
227.131
228.954
223.066
225.142
219.068
221.003
215.936
217.366
213.619
214.724
211.453
212.457
210.023
211.976
211.041
213.429
212.789
214.385
213.977
214.633
214.576
214.507
214.628
213.975
214.285
213.179
213.6
212.239
212.718
211.297
211.759
210.474
210.864
209.848
210.134
209.451
209.619
209.239
209.316
209.215
209.212
209.372
209.266
209.809
209.545
210.722
210.186
212.564
211.485
216.066
214.055
222.06
218.702
231.141
226.214
242.588
236.697
253.699
248.39
262.214
258.295
268.968
265.686
275.443
272.189
282.122
278.762
288.738
285.479
294.994
291.879
300.379
297.796
302.878
639.788
641.416
635.266
637.581
630.497
632.93
625.158
627.913
620.169
622.2
618.486
618.746
618.186
618.158
619.298
618.528
622.13
620.433
625.606
624.003
627.91
626.929
628.252
628.395
626.892
627.675
625.183
625.997
624.116
624.569
623.834
623.864
625.929
624.777
628.855
627.251
632.82
630.736
637.82
635.123
647.975
637.311
627.647
623.641
625.646
620.788
620.619
341.277
621.541
628.907
341.11
635.751
632.668
635.955
636.776
625.854
632.96
584.753
610.948
531.074
555.293
495.767
512.473
516.709
493.896
494.659
530.552
560.011
552.472
631.786
632.278
629.681
630.6
629.126
629.24
628.265
629.063
614.873
623.951
579.423
598.736
537.34
558.858
496.857
513.006
492.174
322.484
591.633
321.871
351.933
375.965
322.378
319.03
362.419
581.848
567.108
353.631
318.435
314.403
603.614
596.051
620.198
382.765
520.101
503.299
393.567
376.292
364.88
341.331
344.764
345.472
341.223
343.357
335.787
338.715
329.132
332.516
322.205
325.731
318.561
305.406
303.963
305.692
328.488
360.935
620.471
351.328
359.808
356.53
515.538
351.291
392.462
407.848
595.973
574.317
430.272
569.937
349.181
364.927
345.882
533.179
333.975
332.435
328.157
352.246
473.915
512.919
575.56
525.47
444.698
364.625
305.18
504.312
322.839
344.658
349.664
340.96
481.728
303.64
537.201
539.254
534.487
525.269
358.139
544.159
560.209
650.875
635.395
322.983
347.494
346.93
315.785
320.046
329.329
347.179
350.256
318.141
324.827
364.556
362.61
474.469
496.674
578.727
351.722
587.039
394.509
313.233
541.606
445.656
362.57
600.178
605.107
599.31
592.236
615.387
391.485
394.891
513.247
517.916
344.47
334.782
342.962
337.636
371.281
504.661
358.42
337.305
336.043
343.192
337.641
304.159
322.932
308.368
305.494
311.947
332.634
328.774
330.773
360.803
616.85
616.348
616.553
328.376
357.796
359.259
357.99
354.555
570.589
345.999
365.824
349.497
355.064
317.537
333.306
543.874
211.486
210.729
210.312
208.917
649.829
629.31
478.73
322.42
462.218
339.65
323.074
344.247
342.038
336.012
342.009
348.312
330.675
365.706
487.576
361.682
573.403
513.679
576.061
475.444
311.823
352.983
606.672
602.808
588.577
610.732
398.715
407.027
505.762
516.576
489.07
350.146
341.478
350.889
341.31
481.706
333.223
320.969
305.808
312.884
500.166