/*--------------------------------*- C++ -*----------------------------------*\
| =========                 |                                                 |
| \\      /  F ield         | OpenFOAM: The Open Source CFD Toolbox           |
|  \\    /   O peration     | Version:  2212                                  |
|   \\  /    A nd           | Website:  www.openfoam.com                      |
|    \\/     M anipulation  |                                                 |
\*---------------------------------------------------------------------------*/
FoamFile
{
    version     2.0;
    format      ascii;
    arch        "LSB;label=32;scalar=64";
    class       volVectorField;
    location    "0.214";
    object      U_0;
}
// * * * * * * * * * * * * * * * * * * * * * * * * * * * * * * * * * * * * * //

dimensions      [0 1 -1 0 0 0 0];

internalField   nonuniform List<vector> 
24240
(
(9.1117 0.731787 6.23874e-07)
(9.11185 0.7318 -1.59514e-06)
(9.11185 0.731799 -2.00328e-06)
(9.11185 0.731798 -3.11387e-06)
(9.11185 0.731796 -3.68587e-06)
(9.11186 0.731795 -4.3451e-06)
(9.11186 0.731793 -4.77241e-06)
(9.11187 0.731792 -5.12354e-06)
(9.11187 0.73179 -5.30806e-06)
(9.11188 0.731788 -5.36866e-06)
(9.11188 0.731787 -5.27941e-06)
(9.11189 0.731785 -5.06589e-06)
(9.11189 0.731784 -4.7187e-06)
(9.1119 0.731783 -4.29042e-06)
(9.1119 0.731782 -3.73574e-06)
(9.1119 0.731781 -3.21961e-06)
(9.11191 0.731781 -2.47587e-06)
(9.11191 0.73178 -2.10094e-06)
(9.11191 0.73178 -9.16623e-07)
(9.11177 0.731767 -1.51327e-06)
(9.07317 0.735604 -9.8155e-07)
(9.07332 0.735619 -2.35159e-06)
(9.07332 0.73562 -3.61074e-06)
(9.07332 0.735623 -4.96249e-06)
(9.07332 0.735627 -5.97931e-06)
(9.07333 0.735631 -6.88748e-06)
(9.07333 0.735636 -7.50909e-06)
(9.07333 0.735642 -7.93361e-06)
(9.07334 0.735647 -8.10322e-06)
(9.07334 0.735652 -8.05943e-06)
(9.07335 0.735658 -7.79454e-06)
(9.07335 0.735663 -7.34658e-06)
(9.07336 0.735668 -6.72992e-06)
(9.07336 0.735672 -6.00399e-06)
(9.07336 0.735676 -5.16309e-06)
(9.07336 0.735679 -4.32653e-06)
(9.07337 0.735681 -3.37229e-06)
(9.07337 0.735683 -2.528e-06)
(9.07337 0.735685 -1.3844e-06)
(9.07322 0.735672 -2.90938e-07)
(9.10826 0.465647 5.85139e-08)
(9.10841 0.465657 9.56067e-07)
(9.10841 0.465658 1.87572e-06)
(9.10841 0.465659 2.45571e-06)
(9.1084 0.465661 3.06432e-06)
(9.1084 0.465663 3.42816e-06)
(9.1084 0.465665 3.70222e-06)
(9.1084 0.465668 3.80617e-06)
(9.1084 0.465671 3.79491e-06)
(9.10839 0.465674 3.66047e-06)
(9.10839 0.465676 3.43332e-06)
(9.10839 0.465679 3.12833e-06)
(9.10839 0.465681 2.77959e-06)
(9.10839 0.465683 2.39454e-06)
(9.10839 0.465685 2.03361e-06)
(9.10839 0.465687 1.64291e-06)
(9.10838 0.465688 1.37362e-06)
(9.10838 0.465689 9.76083e-07)
(9.10838 0.46569 7.66938e-07)
(9.10824 0.465681 4.64251e-07)
(9.0118 0.460308 -4.73988e-07)
(9.01195 0.460318 -1.13338e-06)
(9.01195 0.460318 -1.64431e-06)
(9.01195 0.460319 -2.2223e-06)
(9.01195 0.460319 -2.67696e-06)
(9.01195 0.46032 -3.06364e-06)
(9.01195 0.460321 -3.31993e-06)
(9.01195 0.460322 -3.4846e-06)
(9.01195 0.460323 -3.53257e-06)
(9.01196 0.460324 -3.48652e-06)
(9.01196 0.460325 -3.34534e-06)
(9.01196 0.460326 -3.12813e-06)
(9.01196 0.460327 -2.83909e-06)
(9.01196 0.460328 -2.50545e-06)
(9.01196 0.460329 -2.12062e-06)
(9.01196 0.460329 -1.73925e-06)
(9.01196 0.46033 -1.31967e-06)
(9.01196 0.46033 -9.42557e-07)
(9.01196 0.460331 -4.18341e-07)
(9.01181 0.460321 -5.16311e-08)
(9.03635 0.268912 3.32412e-07)
(9.0365 0.268918 1.44549e-06)
(9.0365 0.268919 2.59443e-06)
(9.0365 0.26892 3.48769e-06)
(9.03649 0.268921 4.26428e-06)
(9.03649 0.268922 4.84646e-06)
(9.03649 0.268923 5.26828e-06)
(9.03648 0.268925 5.49491e-06)
(9.03648 0.268926 5.55659e-06)
(9.03647 0.268928 5.4526e-06)
(9.03647 0.268929 5.21141e-06)
(9.03646 0.26893 4.85028e-06)
(9.03646 0.268932 4.40014e-06)
(9.03646 0.268933 3.87864e-06)
(9.03645 0.268934 3.33165e-06)
(9.03645 0.268935 2.75666e-06)
(9.03645 0.268935 2.20705e-06)
(9.03645 0.268936 1.62105e-06)
(9.03644 0.268936 1.11327e-06)
(9.0363 0.268931 4.81999e-07)
(8.95784 0.261651 -1.9218e-07)
(8.95799 0.261656 -3.96068e-07)
(8.95799 0.261656 -5.30723e-07)
(8.95799 0.261655 -7.0408e-07)
(8.95799 0.261654 -8.11713e-07)
(8.95799 0.261653 -9.1961e-07)
(8.95798 0.261651 -9.77747e-07)
(8.95798 0.26165 -1.01591e-06)
(8.95798 0.261649 -1.01608e-06)
(8.95798 0.261647 -9.91096e-07)
(8.95798 0.261646 -9.3348e-07)
(8.95798 0.261645 -8.55197e-07)
(8.95797 0.261644 -7.5057e-07)
(8.95797 0.261643 -6.3851e-07)
(8.95797 0.261642 -5.00553e-07)
(8.95797 0.261641 -3.80042e-07)
(8.95797 0.26164 -2.23356e-07)
(8.95797 0.26164 -1.2467e-07)
(8.95797 0.261639 2.98842e-08)
(8.95782 0.261634 7.34134e-08)
(8.97341 0.120894 1.53153e-07)
(8.97356 0.120897 8.01678e-07)
(8.97356 0.120898 1.47489e-06)
(8.97355 0.120898 1.99801e-06)
(8.97355 0.120899 2.4569e-06)
(8.97355 0.1209 2.80927e-06)
(8.97354 0.120901 3.0689e-06)
(8.97354 0.120902 3.21666e-06)
(8.97354 0.120903 3.26533e-06)
(8.97353 0.120904 3.21318e-06)
(8.97353 0.120905 3.07606e-06)
(8.97352 0.120906 2.86083e-06)
(8.97352 0.120907 2.5899e-06)
(8.97352 0.120908 2.27165e-06)
(8.97351 0.120909 1.94035e-06)
(8.97351 0.120909 1.58972e-06)
(8.97351 0.12091 1.26041e-06)
(8.97351 0.12091 9.10342e-07)
(8.97351 0.12091 6.32689e-07)
(8.97336 0.120908 3.01668e-07)
(8.93323 0.109219 1.79774e-08)
(8.93338 0.109221 1.54653e-07)
(8.93338 0.10922 3.38568e-07)
(8.93338 0.10922 4.64157e-07)
(8.93337 0.10922 6.05938e-07)
(8.93337 0.109219 7.09233e-07)
(8.93337 0.109219 8.02792e-07)
(8.93337 0.109218 8.6141e-07)
(8.93336 0.109217 8.97461e-07)
(8.93336 0.109217 9.01258e-07)
(8.93336 0.109216 8.79603e-07)
(8.93335 0.109215 8.26798e-07)
(8.93335 0.109215 7.58228e-07)
(8.93335 0.109214 6.65002e-07)
(8.93334 0.109214 5.78091e-07)
(8.93334 0.109213 4.66919e-07)
(8.93334 0.109213 3.91814e-07)
(8.93334 0.109212 2.67648e-07)
(8.93334 0.109212 2.06857e-07)
(8.93319 0.10921 1.02392e-07)
(8.94277 -0.00256994 7.83986e-08)
(8.94292 -0.00257008 4.97737e-07)
(8.94292 -0.00257025 9.31098e-07)
(8.94292 -0.00257045 1.27146e-06)
(8.94291 -0.00257074 1.58066e-06)
(8.94291 -0.00257107 1.82168e-06)
(8.94291 -0.00257146 2.00446e-06)
(8.9429 -0.00257187 2.11046e-06)
(8.9429 -0.00257231 2.14424e-06)
(8.9429 -0.00257278 2.09955e-06)
(8.94289 -0.00257326 1.98572e-06)
(8.94289 -0.00257375 1.80476e-06)
(8.94289 -0.00257425 1.57965e-06)
(8.94288 -0.00257475 1.31543e-06)
(8.94288 -0.00257523 1.05371e-06)
(8.94288 -0.0025757 7.83812e-07)
(8.94288 -0.00257612 5.65991e-07)
(8.94288 -0.0025765 3.41813e-07)
(8.94288 -0.00257679 2.36314e-07)
(8.94273 -0.00257689 1.60374e-07)
(8.94394 -0.0207218 -6.65087e-08)
(8.94409 -0.0207229 -3.42025e-08)
(8.94408 -0.0207239 3.49716e-08)
(8.94408 -0.0207254 5.54135e-08)
(8.94408 -0.0207273 9.39198e-08)
(8.94408 -0.0207296 1.16961e-07)
(8.94407 -0.0207321 1.39403e-07)
(8.94407 -0.0207347 1.44485e-07)
(8.94407 -0.0207375 1.36088e-07)
(8.94406 -0.0207403 1.04436e-07)
(8.94406 -0.020743 5.69158e-08)
(8.94406 -0.0207456 -1.18461e-08)
(8.94405 -0.0207481 -8.41856e-08)
(8.94405 -0.0207503 -1.68436e-07)
(8.94405 -0.0207523 -2.28024e-07)
(8.94405 -0.020754 -2.88988e-07)
(8.94404 -0.0207553 -2.90329e-07)
(8.94404 -0.0207564 -3.03686e-07)
(8.94404 -0.0207572 -1.98532e-07)
(8.9439 -0.0207569 -2.25717e-08)
(8.94643 -0.126988 -2.83999e-07)
(8.94658 -0.126991 -7.70783e-07)
(8.94658 -0.126991 -1.17442e-06)
(8.94658 -0.126991 -1.57288e-06)
(8.94657 -0.126991 -1.88735e-06)
(8.94657 -0.126991 -2.14729e-06)
(8.94657 -0.126991 -2.33119e-06)
(8.94657 -0.126991 -2.45597e-06)
(8.94657 -0.126991 -2.52118e-06)
(8.94656 -0.126991 -2.53846e-06)
(8.94656 -0.126991 -2.51065e-06)
(8.94656 -0.126991 -2.44768e-06)
(8.94656 -0.126991 -2.34262e-06)
(8.94656 -0.126992 -2.20687e-06)
(8.94656 -0.126992 -2.01436e-06)
(8.94655 -0.126992 -1.79739e-06)
(8.94655 -0.126992 -1.49303e-06)
(8.94655 -0.126992 -1.18937e-06)
(8.94655 -0.126992 -7.23776e-07)
(8.9464 -0.126989 -2.09844e-07)
(8.99409 -0.144341 -1.20471e-07)
(8.99424 -0.144345 -3.20535e-08)
(8.99424 -0.144346 8.02609e-08)
(8.99424 -0.144347 1.2191e-07)
(8.99424 -0.144348 1.61526e-07)
(8.99423 -0.14435 1.78239e-07)
(8.99423 -0.144351 1.80343e-07)
(8.99423 -0.144353 1.53747e-07)
(8.99423 -0.144355 1.00716e-07)
(8.99422 -0.144357 1.55643e-08)
(8.99422 -0.144359 -9.14335e-08)
(8.99422 -0.144361 -2.21603e-07)
(8.99421 -0.144363 -3.50113e-07)
(8.99421 -0.144365 -4.7451e-07)
(8.99421 -0.144366 -5.52023e-07)
(8.99421 -0.144367 -6.04351e-07)
(8.99421 -0.144368 -5.71979e-07)
(8.99421 -0.144369 -5.14145e-07)
(8.99421 -0.144369 -3.16523e-07)
(8.99406 -0.144366 -1.51234e-08)
(8.98669 -0.271425 -5.69272e-07)
(8.98684 -0.271431 -1.70013e-06)
(8.98684 -0.271431 -2.68133e-06)
(8.98684 -0.271431 -3.60753e-06)
(8.98684 -0.271431 -4.36368e-06)
(8.98684 -0.271431 -4.99461e-06)
(8.98684 -0.271432 -5.45742e-06)
(8.98684 -0.271432 -5.76674e-06)
(8.98684 -0.271432 -5.91799e-06)
(8.98684 -0.271432 -5.92527e-06)
(8.98684 -0.271432 -5.79584e-06)
(8.98684 -0.271433 -5.54557e-06)
(8.98684 -0.271433 -5.17909e-06)
(8.98684 -0.271433 -4.71811e-06)
(8.98684 -0.271434 -4.14979e-06)
(8.98684 -0.271434 -3.53037e-06)
(8.98684 -0.271434 -2.79264e-06)
(8.98684 -0.271434 -2.07817e-06)
(8.98684 -0.271434 -1.19482e-06)
(8.98669 -0.271428 -3.62974e-07)
(9.08104 -0.283164 -2.09814e-07)
(9.08118 -0.283171 -1.36807e-07)
(9.08118 -0.283171 -2.35768e-08)
(9.08118 -0.283172 -2.59591e-08)
(9.08118 -0.283173 -4.37257e-08)
(9.08118 -0.283175 -8.26992e-08)
(9.08118 -0.283176 -1.36682e-07)
(9.08117 -0.283178 -2.19767e-07)
(9.08117 -0.283179 -3.23229e-07)
(9.08117 -0.283181 -4.53543e-07)
(9.08117 -0.283183 -5.93629e-07)
(9.08116 -0.283184 -7.43528e-07)
(9.08116 -0.283186 -8.69544e-07)
(9.08116 -0.283187 -9.68658e-07)
(9.08116 -0.283188 -9.93093e-07)
(9.08116 -0.283189 -9.67044e-07)
(9.08116 -0.28319 -8.4737e-07)
(9.08116 -0.28319 -6.76831e-07)
(9.08115 -0.283191 -3.71332e-07)
(9.08101 -0.283184 4.73213e-09)
(9.06191 -0.458096 -8.37724e-07)
(9.06206 -0.458106 -2.4865e-06)
(9.06206 -0.458106 -3.94637e-06)
(9.06206 -0.458106 -5.32433e-06)
(9.06207 -0.458107 -6.44359e-06)
(9.06207 -0.458107 -7.40408e-06)
(9.06207 -0.458108 -8.11284e-06)
(9.06207 -0.458108 -8.58969e-06)
(9.06207 -0.458109 -8.81786e-06)
(9.06208 -0.458109 -8.81401e-06)
(9.06208 -0.45811 -8.58552e-06)
(9.06208 -0.45811 -8.15564e-06)
(9.06208 -0.458111 -7.53808e-06)
(9.06209 -0.458112 -6.76971e-06)
(9.06209 -0.458112 -5.85437e-06)
(9.06209 -0.458112 -4.87592e-06)
(9.06209 -0.458113 -3.75207e-06)
(9.06209 -0.458113 -2.71561e-06)
(9.06209 -0.458113 -1.52644e-06)
(9.06194 -0.458103 -4.55615e-07)
(9.19542 -0.463041 -3.58511e-07)
(9.19557 -0.463052 -3.69112e-07)
(9.19557 -0.463052 -3.07934e-07)
(9.19557 -0.463053 -4.66911e-07)
(9.19557 -0.463054 -6.39535e-07)
(9.19557 -0.463056 -8.15077e-07)
(9.19557 -0.463057 -9.73915e-07)
(9.19557 -0.463059 -1.15251e-06)
(9.19556 -0.46306 -1.32007e-06)
(9.19556 -0.463062 -1.49226e-06)
(9.19556 -0.463064 -1.63981e-06)
(9.19556 -0.463065 -1.76642e-06)
(9.19556 -0.463067 -1.83092e-06)
(9.19556 -0.463068 -1.84268e-06)
(9.19556 -0.463069 -1.74659e-06)
(9.19556 -0.46307 -1.591e-06)
(9.19556 -0.463071 -1.35909e-06)
(9.19556 -0.463071 -1.07887e-06)
(9.19556 -0.463071 -5.88477e-07)
(9.19541 -0.463061 -2.69195e-08)
(9.16166 -0.719091 -1.11211e-06)
(9.16181 -0.719106 -3.21619e-06)
(9.16181 -0.719107 -5.04318e-06)
(9.16181 -0.719107 -6.89249e-06)
(9.16182 -0.719109 -8.48672e-06)
(9.16182 -0.71911 -9.80035e-06)
(9.16183 -0.719112 -1.07726e-05)
(9.16183 -0.719114 -1.14267e-05)
(9.16184 -0.719115 -1.17307e-05)
(9.16184 -0.719117 -1.17097e-05)
(9.16185 -0.719119 -1.13657e-05)
(9.16185 -0.719121 -1.07377e-05)
(9.16186 -0.719123 -9.84627e-06)
(9.16186 -0.719124 -8.7612e-06)
(9.16187 -0.719125 -7.50511e-06)
(9.16187 -0.719126 -6.19417e-06)
(9.16187 -0.719127 -4.81686e-06)
(9.16187 -0.719128 -3.49205e-06)
(9.16187 -0.719128 -1.85757e-06)
(9.16173 -0.719114 -5.03713e-07)
(9.30312 -0.716494 -7.27309e-07)
(9.30326 -0.716509 -1.12154e-06)
(9.30326 -0.716509 -1.59845e-06)
(9.30327 -0.71651 -2.34615e-06)
(9.30327 -0.716511 -2.83346e-06)
(9.30327 -0.716513 -3.40234e-06)
(9.30327 -0.716514 -3.81121e-06)
(9.30327 -0.716516 -4.1894e-06)
(9.30328 -0.716518 -4.44404e-06)
(9.30328 -0.716519 -4.61737e-06)
(9.30328 -0.716521 -4.66321e-06)
(9.30328 -0.716523 -4.60695e-06)
(9.30329 -0.716524 -4.40283e-06)
(9.30329 -0.716525 -4.10462e-06)
(9.30329 -0.716526 -3.62678e-06)
(9.30329 -0.716527 -3.12763e-06)
(9.30329 -0.716528 -2.40539e-06)
(9.30329 -0.716528 -1.86184e-06)
(9.30329 -0.716529 -1.03184e-06)
(9.30315 -0.716514 -4.00612e-08)
(9.24813 -1.08748 -1.32819e-06)
(9.24828 -1.0875 -3.72121e-06)
(9.24828 -1.0875 -6.21626e-06)
(9.24829 -1.08751 -8.69435e-06)
(9.24829 -1.08751 -1.06317e-05)
(9.2483 -1.08751 -1.23405e-05)
(9.24831 -1.08752 -1.35694e-05)
(9.24832 -1.08752 -1.44219e-05)
(9.24833 -1.08753 -1.48049e-05)
(9.24833 -1.08753 -1.47658e-05)
(9.24834 -1.08754 -1.42848e-05)
(9.24835 -1.08754 -1.34266e-05)
(9.24836 -1.08755 -1.22073e-05)
(9.24837 -1.08755 -1.07594e-05)
(9.24837 -1.08755 -9.08661e-06)
(9.24838 -1.08756 -7.42461e-06)
(9.24838 -1.08756 -5.59758e-06)
(9.24839 -1.08756 -4.07347e-06)
(9.24839 -1.08756 -2.28079e-06)
(9.24824 -1.08754 -5.5348e-07)
(9.29738 -1.06559 3.84576e-07)
(9.29752 -1.0656 -2.83289e-06)
(9.29752 -1.0656 -4.7776e-06)
(9.29752 -1.0656 -7.3402e-06)
(9.29753 -1.0656 -8.95261e-06)
(9.29753 -1.0656 -1.05318e-05)
(9.29754 -1.0656 -1.16257e-05)
(9.29755 -1.0656 -1.24477e-05)
(9.29756 -1.06559 -1.28558e-05)
(9.29757 -1.06559 -1.29139e-05)
(9.29758 -1.06559 -1.25745e-05)
(9.29759 -1.06559 -1.19031e-05)
(9.29759 -1.06559 -1.08902e-05)
(9.2976 -1.06559 -9.6767e-06)
(9.29761 -1.06559 -8.21107e-06)
(9.29761 -1.06559 -6.82502e-06)
(9.29762 -1.06559 -5.13792e-06)
(9.29762 -1.06559 -4.16593e-06)
(9.29763 -1.06559 -2.36495e-06)
(9.29749 -1.06557 -2.03014e-06)
(8.75568 0.773659 3.03619e-07)
(8.75582 0.773671 -1.69933e-06)
(8.75581 0.77367 -2.48932e-06)
(8.75581 0.77367 -3.70338e-06)
(8.75581 0.773669 -4.39443e-06)
(8.75581 0.773668 -5.16205e-06)
(8.75581 0.773667 -5.65684e-06)
(8.75582 0.773666 -6.06884e-06)
(8.75582 0.773665 -6.27372e-06)
(8.75582 0.773664 -6.33915e-06)
(8.75582 0.773663 -6.22502e-06)
(8.75582 0.773662 -5.97141e-06)
(8.75582 0.773661 -5.5554e-06)
(8.75582 0.77366 -5.05545e-06)
(8.75582 0.773659 -4.39161e-06)
(8.75582 0.773659 -3.77511e-06)
(8.75582 0.773658 -2.89352e-06)
(8.75582 0.773658 -2.34896e-06)
(8.75582 0.773658 -1.23423e-06)
(8.75568 0.773645 -1.32264e-06)
(8.7814 0.7799 -9.63197e-07)
(8.78155 0.779914 -2.32124e-06)
(8.78155 0.779916 -3.59395e-06)
(8.78155 0.779919 -4.92701e-06)
(8.78155 0.779922 -5.93766e-06)
(8.78154 0.779927 -6.88317e-06)
(8.78154 0.779932 -7.54165e-06)
(8.78154 0.779937 -8.03298e-06)
(8.78154 0.779943 -8.26688e-06)
(8.78154 0.779949 -8.29785e-06)
(8.78154 0.779955 -8.09851e-06)
(8.78154 0.77996 -7.71603e-06)
(8.78154 0.779965 -7.14057e-06)
(8.78154 0.77997 -6.44785e-06)
(8.78154 0.779974 -5.59606e-06)
(8.78154 0.779978 -4.74238e-06)
(8.78154 0.779981 -3.70569e-06)
(8.78154 0.779983 -2.75158e-06)
(8.78154 0.779985 -1.53913e-06)
(8.7814 0.779973 -3.61766e-07)
(8.81441 0.546318 7.97355e-08)
(8.81455 0.546328 8.30804e-07)
(8.81455 0.546328 1.5363e-06)
(8.81455 0.54633 2.03567e-06)
(8.81455 0.546331 2.63226e-06)
(8.81455 0.546333 2.97459e-06)
(8.81455 0.546335 3.27342e-06)
(8.81455 0.546337 3.41536e-06)
(8.81455 0.546339 3.4704e-06)
(8.81455 0.546341 3.41234e-06)
(8.81455 0.546343 3.27736e-06)
(8.81455 0.546346 3.0671e-06)
(8.81455 0.546348 2.81287e-06)
(8.81455 0.54635 2.5035e-06)
(8.81455 0.546351 2.21926e-06)
(8.81455 0.546353 1.85817e-06)
(8.81455 0.546354 1.63987e-06)
(8.81455 0.546355 1.209e-06)
(8.81455 0.546356 8.62436e-07)
(8.81441 0.546347 4.50022e-07)
(8.79621 0.542978 -5.53307e-07)
(8.79636 0.542988 -1.3691e-06)
(8.79636 0.542988 -2.05142e-06)
(8.79636 0.542989 -2.77457e-06)
(8.79636 0.542991 -3.37281e-06)
(8.79636 0.542992 -3.87738e-06)
(8.79636 0.542994 -4.21961e-06)
(8.79636 0.542996 -4.45516e-06)
(8.79636 0.542998 -4.54073e-06)
(8.79636 0.543 -4.50696e-06)
(8.79636 0.543002 -4.34531e-06)
(8.79636 0.543004 -4.0849e-06)
(8.79636 0.543005 -3.72389e-06)
(8.79636 0.543007 -3.30935e-06)
(8.79636 0.543009 -2.81969e-06)
(8.79636 0.54301 -2.34073e-06)
(8.79636 0.543011 -1.81289e-06)
(8.79636 0.543012 -1.3017e-06)
(8.79636 0.543012 -6.39125e-07)
(8.79622 0.543003 -1.24806e-07)
(8.8188 0.334998 4.6428e-07)
(8.81895 0.335004 1.72654e-06)
(8.81895 0.335005 3.0078e-06)
(8.81895 0.335007 4.06762e-06)
(8.81895 0.335009 4.99445e-06)
(8.81895 0.335011 5.72134e-06)
(8.81895 0.335014 6.2789e-06)
(8.81895 0.335017 6.61776e-06)
(8.81895 0.33502 6.77291e-06)
(8.81895 0.335023 6.73215e-06)
(8.81895 0.335027 6.52983e-06)
(8.81895 0.33503 6.1737e-06)
(8.81895 0.335032 5.70455e-06)
(8.81895 0.335035 5.12831e-06)
(8.81895 0.335037 4.50502e-06)
(8.81895 0.335039 3.80613e-06)
(8.81895 0.335041 3.09525e-06)
(8.81895 0.335042 2.29833e-06)
(8.81895 0.335043 1.53204e-06)
(8.8188 0.335037 6.01919e-07)
(8.79195 0.326803 -1.13422e-08)
(8.7921 0.326809 9.81574e-08)
(8.7921 0.326809 2.19209e-07)
(8.7921 0.326809 3.25052e-07)
(8.79209 0.326808 4.86882e-07)
(8.79209 0.326808 5.82992e-07)
(8.79209 0.326808 6.93477e-07)
(8.79209 0.326807 7.65494e-07)
(8.79209 0.326807 8.34255e-07)
(8.79209 0.326806 8.73864e-07)
(8.79208 0.326806 9.02705e-07)
(8.79208 0.326806 9.02431e-07)
(8.79208 0.326806 8.95314e-07)
(8.79208 0.326805 8.51957e-07)
(8.79208 0.326805 8.19652e-07)
(8.79208 0.326805 7.35166e-07)
(8.79208 0.326805 7.04382e-07)
(8.79208 0.326805 5.66598e-07)
(8.79208 0.326805 4.09264e-07)
(8.79193 0.326799 1.78026e-07)
(8.80346 0.151947 3.94211e-07)
(8.80361 0.15195 1.49479e-06)
(8.80361 0.15195 2.57815e-06)
(8.8036 0.151951 3.51923e-06)
(8.8036 0.151951 4.35018e-06)
(8.8036 0.151952 5.02127e-06)
(8.8036 0.151953 5.54217e-06)
(8.8036 0.151954 5.88021e-06)
(8.8036 0.151955 6.05345e-06)
(8.8036 0.151956 6.0519e-06)
(8.8036 0.151957 5.90013e-06)
(8.80359 0.151958 5.60165e-06)
(8.80359 0.151959 5.19325e-06)
(8.80359 0.15196 4.67786e-06)
(8.80359 0.151961 4.11111e-06)
(8.80359 0.151961 3.47226e-06)
(8.80359 0.151962 2.82124e-06)
(8.80359 0.151962 2.08915e-06)
(8.80359 0.151962 1.35627e-06)
(8.80344 0.15196 5.45928e-07)
(8.79055 0.137244 1.86817e-07)
(8.79069 0.137246 6.11001e-07)
(8.79069 0.137245 1.03916e-06)
(8.79069 0.137245 1.43519e-06)
(8.79069 0.137244 1.83712e-06)
(8.79069 0.137243 2.1484e-06)
(8.79068 0.137242 2.41842e-06)
(8.79068 0.137241 2.60259e-06)
(8.79068 0.13724 2.72139e-06)
(8.79068 0.137239 2.75573e-06)
(8.79068 0.137238 2.72423e-06)
(8.79068 0.137237 2.61341e-06)
(8.79067 0.137235 2.45413e-06)
(8.79067 0.137235 2.22733e-06)
(8.79067 0.137234 1.98879e-06)
(8.79067 0.137233 1.68499e-06)
(8.79067 0.137232 1.41555e-06)
(8.79067 0.137232 1.04063e-06)
(8.79067 0.137231 6.67023e-07)
(8.79052 0.137229 2.50599e-07)
(8.7954 -0.0135303 2.39488e-07)
(8.79554 -0.0135307 9.43335e-07)
(8.79554 -0.0135309 1.63183e-06)
(8.79554 -0.0135312 2.25457e-06)
(8.79554 -0.0135316 2.8311e-06)
(8.79554 -0.0135321 3.30393e-06)
(8.79554 -0.0135327 3.68771e-06)
(8.79554 -0.0135332 3.94699e-06)
(8.79554 -0.0135339 4.09032e-06)
(8.79554 -0.0135345 4.10249e-06)
(8.79554 -0.0135351 3.99943e-06)
(8.79554 -0.0135358 3.77691e-06)
(8.79554 -0.0135364 3.47117e-06)
(8.79553 -0.013537 3.07921e-06)
(8.79553 -0.0135376 2.66373e-06)
(8.79553 -0.0135381 2.19463e-06)
(8.79553 -0.0135386 1.75788e-06)
(8.79553 -0.013539 1.24874e-06)
(8.79553 -0.0135392 7.99458e-07)
(8.79539 -0.0135391 3.56192e-07)
(8.80371 -0.0332379 5.34118e-08)
(8.80386 -0.0332395 3.19788e-07)
(8.80385 -0.0332406 5.94594e-07)
(8.80385 -0.0332424 8.41262e-07)
(8.80385 -0.0332446 1.09566e-06)
(8.80385 -0.0332472 1.29975e-06)
(8.80385 -0.0332502 1.47876e-06)
(8.80385 -0.0332534 1.5988e-06)
(8.80385 -0.0332567 1.67047e-06)
(8.80384 -0.03326 1.67727e-06)
(8.80384 -0.0332633 1.63553e-06)
(8.80384 -0.0332665 1.53313e-06)
(8.80384 -0.0332695 1.4014e-06)
(8.80384 -0.0332722 1.22467e-06)
(8.80384 -0.0332746 1.05887e-06)
(8.80383 -0.0332767 8.52864e-07)
(8.80383 -0.0332784 6.93949e-07)
(8.80383 -0.0332797 4.70734e-07)
(8.80383 -0.0332806 3.00322e-07)
(8.80369 -0.0332801 1.60256e-07)
(8.80376 -0.182315 -1.99283e-07)
(8.8039 -0.182319 -5.58407e-07)
(8.8039 -0.182319 -8.57002e-07)
(8.8039 -0.182319 -1.1208e-06)
(8.8039 -0.18232 -1.29155e-06)
(8.8039 -0.18232 -1.435e-06)
(8.80389 -0.18232 -1.51e-06)
(8.80389 -0.182321 -1.5535e-06)
(8.80389 -0.182321 -1.55989e-06)
(8.80389 -0.182321 -1.54483e-06)
(8.80389 -0.182322 -1.50596e-06)
(8.80389 -0.182322 -1.45868e-06)
(8.80389 -0.182323 -1.38468e-06)
(8.80389 -0.182323 -1.30338e-06)
(8.80388 -0.182324 -1.16747e-06)
(8.80388 -0.182324 -1.03624e-06)
(8.80388 -0.182324 -8.12398e-07)
(8.80388 -0.182324 -6.42845e-07)
(8.80388 -0.182325 -3.66054e-07)
(8.80374 -0.182321 -8.22046e-08)
(8.83677 -0.198843 -6.99837e-08)
(8.83691 -0.198847 1.11638e-07)
(8.83691 -0.198848 3.0472e-07)
(8.83691 -0.19885 4.6435e-07)
(8.83691 -0.198852 6.26535e-07)
(8.83691 -0.198854 7.58683e-07)
(8.83691 -0.198856 8.73046e-07)
(8.83691 -0.198859 9.41737e-07)
(8.83691 -0.198862 9.72469e-07)
(8.83691 -0.198865 9.49532e-07)
(8.83691 -0.198868 8.89592e-07)
(8.83691 -0.198871 7.85511e-07)
(8.83691 -0.198873 6.73287e-07)
(8.83691 -0.198875 5.40557e-07)
(8.8369 -0.198877 4.46855e-07)
(8.8369 -0.198879 3.43345e-07)
(8.8369 -0.198881 2.97764e-07)
(8.8369 -0.198882 2.18147e-07)
(8.8369 -0.198882 1.87018e-07)
(8.83676 -0.198878 1.74112e-07)
(8.8288 -0.369944 -5.99387e-07)
(8.82895 -0.369951 -1.83856e-06)
(8.82895 -0.369951 -2.96408e-06)
(8.82895 -0.369951 -3.97123e-06)
(8.82895 -0.369951 -4.76076e-06)
(8.82894 -0.369952 -5.43516e-06)
(8.82894 -0.369952 -5.91967e-06)
(8.82894 -0.369953 -6.24289e-06)
(8.82894 -0.369953 -6.39181e-06)
(8.82894 -0.369954 -6.38719e-06)
(8.82894 -0.369954 -6.232e-06)
(8.82894 -0.369955 -5.94783e-06)
(8.82894 -0.369956 -5.53182e-06)
(8.82894 -0.369956 -5.01615e-06)
(8.82894 -0.369957 -4.37011e-06)
(8.82894 -0.369957 -3.67878e-06)
(8.82894 -0.369957 -2.82972e-06)
(8.82894 -0.369957 -2.05495e-06)
(8.82894 -0.369957 -1.18863e-06)
(8.82879 -0.36995 -3.67416e-07)
(8.88304 -0.379337 -1.88275e-07)
(8.88319 -0.379345 -1.23854e-07)
(8.88319 -0.379346 -1.58368e-08)
(8.88319 -0.379347 1.97156e-08)
(8.88319 -0.379349 4.49321e-08)
(8.88319 -0.379351 6.61324e-08)
(8.88319 -0.379354 8.35269e-08)
(8.88319 -0.379357 7.10963e-08)
(8.88319 -0.379359 4.32038e-08)
(8.88319 -0.379362 -1.8686e-08)
(8.88319 -0.379365 -8.86436e-08)
(8.88319 -0.379368 -1.76646e-07)
(8.88319 -0.37937 -2.3549e-07)
(8.88319 -0.379372 -2.8247e-07)
(8.88319 -0.379374 -2.54307e-07)
(8.88318 -0.379376 -2.03364e-07)
(8.88318 -0.379377 -1.02454e-07)
(8.88318 -0.379378 -8.45352e-09)
(8.88318 -0.379379 1.12919e-07)
(8.88304 -0.379372 1.76081e-07)
(8.86361 -0.59172 -1.01726e-06)
(8.86376 -0.591731 -3.07797e-06)
(8.86376 -0.591731 -5.02078e-06)
(8.86376 -0.591731 -6.75573e-06)
(8.86376 -0.591731 -8.12109e-06)
(8.86376 -0.591732 -9.33513e-06)
(8.86376 -0.591733 -1.02301e-05)
(8.86376 -0.591733 -1.08416e-05)
(8.86376 -0.591734 -1.11382e-05)
(8.86376 -0.591735 -1.11447e-05)
(8.86376 -0.591736 -1.08654e-05)
(8.86376 -0.591736 -1.0333e-05)
(8.86376 -0.591737 -9.55838e-06)
(8.86376 -0.591738 -8.59285e-06)
(8.86376 -0.591739 -7.42625e-06)
(8.86376 -0.591739 -6.17547e-06)
(8.86376 -0.591739 -4.68517e-06)
(8.86376 -0.59174 -3.33622e-06)
(8.86376 -0.59174 -1.93275e-06)
(8.86361 -0.591729 -6.01385e-07)
(8.92343 -0.591725 -3.28717e-07)
(8.92358 -0.591736 -4.01354e-07)
(8.92358 -0.591737 -3.66478e-07)
(8.92358 -0.591739 -5.37204e-07)
(8.92358 -0.591741 -7.55259e-07)
(8.92358 -0.591743 -9.11679e-07)
(8.92358 -0.591746 -1.02888e-06)
(8.92358 -0.591749 -1.16058e-06)
(8.92358 -0.591752 -1.26168e-06)
(8.92358 -0.591755 -1.36723e-06)
(8.92358 -0.591758 -1.43226e-06)
(8.92358 -0.591761 -1.47838e-06)
(8.92358 -0.591764 -1.44412e-06)
(8.92358 -0.591766 -1.36916e-06)
(8.92358 -0.591768 -1.17831e-06)
(8.92358 -0.59177 -9.5718e-07)
(8.92358 -0.591771 -7.41849e-07)
(8.92358 -0.591772 -4.96166e-07)
(8.92358 -0.591772 -1.39612e-07)
(8.92344 -0.591762 1.0755e-07)
(8.88754 -0.857213 -1.47256e-06)
(8.88768 -0.857228 -4.363e-06)
(8.88768 -0.857229 -6.94085e-06)
(8.88768 -0.85723 -9.49114e-06)
(8.88769 -0.857231 -1.17542e-05)
(8.88769 -0.857233 -1.3591e-05)
(8.88769 -0.857235 -1.49607e-05)
(8.88769 -0.857237 -1.58895e-05)
(8.88769 -0.85724 -1.63284e-05)
(8.88769 -0.857242 -1.63187e-05)
(8.88769 -0.857245 -1.58575e-05)
(8.88769 -0.857247 -1.50074e-05)
(8.88769 -0.857249 -1.37902e-05)
(8.8877 -0.857251 -1.23097e-05)
(8.8877 -0.857253 -1.059e-05)
(8.8877 -0.857254 -8.77533e-06)
(8.8877 -0.857255 -6.89571e-06)
(8.8877 -0.857256 -4.96699e-06)
(8.8877 -0.857257 -2.71901e-06)
(8.88756 -0.857242 -8.16607e-07)
(8.91945 -0.844266 -6.66497e-07)
(8.91959 -0.844281 -1.25154e-06)
(8.91959 -0.844281 -2.13607e-06)
(8.91959 -0.844283 -3.05676e-06)
(8.91959 -0.844285 -3.59913e-06)
(8.9196 -0.844288 -4.25835e-06)
(8.9196 -0.84429 -4.68424e-06)
(8.9196 -0.844294 -5.07639e-06)
(8.9196 -0.844297 -5.28889e-06)
(8.9196 -0.8443 -5.40616e-06)
(8.9196 -0.844303 -5.35466e-06)
(8.9196 -0.844306 -5.19142e-06)
(8.9196 -0.844309 -4.84293e-06)
(8.91961 -0.844311 -4.40983e-06)
(8.91961 -0.844314 -3.74985e-06)
(8.91961 -0.844315 -3.11036e-06)
(8.91961 -0.844317 -2.193e-06)
(8.91961 -0.844317 -1.59864e-06)
(8.91961 -0.844318 -9.92593e-07)
(8.91946 -0.844304 -1.09698e-07)
(8.86096 -1.14887 -1.85416e-06)
(8.8611 -1.14889 -5.42459e-06)
(8.8611 -1.14889 -9.14168e-06)
(8.8611 -1.1489 -1.26663e-05)
(8.8611 -1.1489 -1.55403e-05)
(8.86111 -1.1489 -1.80557e-05)
(8.86111 -1.14891 -1.98933e-05)
(8.86111 -1.14892 -2.11832e-05)
(8.86111 -1.14892 -2.17875e-05)
(8.86111 -1.14893 -2.17776e-05)
(8.86112 -1.14893 -2.11155e-05)
(8.86112 -1.14894 -1.99064e-05)
(8.86112 -1.14895 -1.81717e-05)
(8.86112 -1.14895 -1.61059e-05)
(8.86112 -1.14896 -1.37117e-05)
(8.86113 -1.14896 -1.13114e-05)
(8.86113 -1.14896 -8.67921e-06)
(8.86113 -1.14896 -6.25722e-06)
(8.86113 -1.14897 -3.62701e-06)
(8.86099 -1.14895 -1.04416e-06)
(8.83372 -1.11382 1.25988e-06)
(8.83385 -1.11383 -2.78511e-06)
(8.83384 -1.11383 -5.88824e-06)
(8.83385 -1.11383 -8.98686e-06)
(8.83385 -1.11382 -1.10309e-05)
(8.83385 -1.11382 -1.29566e-05)
(8.83385 -1.11382 -1.42849e-05)
(8.83386 -1.11381 -1.52853e-05)
(8.83386 -1.11381 -1.5768e-05)
(8.83386 -1.11381 -1.58355e-05)
(8.83386 -1.1138 -1.54177e-05)
(8.83387 -1.1138 -1.46191e-05)
(8.83387 -1.1138 -1.34071e-05)
(8.83387 -1.11379 -1.19753e-05)
(8.83387 -1.11379 -1.0224e-05)
(8.83388 -1.11379 -8.55841e-06)
(8.83388 -1.11379 -6.56627e-06)
(8.83388 -1.11379 -5.31695e-06)
(8.83389 -1.11379 -3.80538e-06)
(8.83376 -1.11377 -3.37975e-06)
(8.82999 0.733745 3.98881e-08)
(8.83013 0.733758 -2.32916e-06)
(8.83013 0.733757 -2.40254e-06)
(8.83013 0.733756 -3.451e-06)
(8.83013 0.733756 -3.96695e-06)
(8.83013 0.733754 -4.66975e-06)
(8.83013 0.733753 -5.10612e-06)
(8.83013 0.733752 -5.49819e-06)
(8.83013 0.733751 -5.69994e-06)
(8.83012 0.733749 -5.79077e-06)
(8.83012 0.733748 -5.71976e-06)
(8.83012 0.733747 -5.53148e-06)
(8.83012 0.733746 -5.18958e-06)
(8.83012 0.733745 -4.78007e-06)
(8.83012 0.733744 -4.18727e-06)
(8.83012 0.733743 -3.65097e-06)
(8.83012 0.733742 -2.7321e-06)
(8.83012 0.733742 -2.17596e-06)
(8.83013 0.733741 -4.65961e-07)
(8.82999 0.733728 -1.00564e-06)
(8.75028 0.734288 -1.28905e-06)
(8.75042 0.734302 -2.53832e-06)
(8.75042 0.734303 -3.57234e-06)
(8.75042 0.734306 -4.80448e-06)
(8.75042 0.73431 -5.746e-06)
(8.75042 0.734314 -6.66951e-06)
(8.75042 0.734319 -7.31794e-06)
(8.75042 0.734324 -7.81873e-06)
(8.75042 0.73433 -8.07286e-06)
(8.75042 0.734335 -8.14135e-06)
(8.75042 0.734341 -7.98756e-06)
(8.75042 0.734346 -7.66362e-06)
(8.75042 0.734352 -7.14982e-06)
(8.75042 0.734356 -6.52667e-06)
(8.75042 0.734361 -5.73175e-06)
(8.75042 0.734364 -4.9311e-06)
(8.75043 0.734367 -3.88782e-06)
(8.75043 0.73437 -2.88907e-06)
(8.75043 0.734372 -1.4165e-06)
(8.75028 0.73436 -5.45081e-08)
(8.78076 0.506815 -1.33771e-07)
(8.7809 0.506824 7.67602e-07)
(8.7809 0.506824 1.58315e-06)
(8.7809 0.506825 2.15583e-06)
(8.7809 0.506826 2.87077e-06)
(8.7809 0.506828 3.27014e-06)
(8.7809 0.506829 3.62399e-06)
(8.7809 0.506831 3.80861e-06)
(8.7809 0.506833 3.90168e-06)
(8.7809 0.506835 3.86494e-06)
(8.78089 0.506837 3.74242e-06)
(8.78089 0.506839 3.52898e-06)
(8.78089 0.506841 3.26295e-06)
(8.78089 0.506843 2.9217e-06)
(8.78089 0.506845 2.6096e-06)
(8.78089 0.506846 2.20239e-06)
(8.78089 0.506847 1.99657e-06)
(8.78089 0.506848 1.51054e-06)
(8.78089 0.506849 1.13288e-06)
(8.78075 0.506841 7.33735e-07)
(8.73313 0.503876 -6.7393e-07)
(8.73328 0.503885 -1.46172e-06)
(8.73328 0.503885 -2.10352e-06)
(8.73328 0.503886 -2.84058e-06)
(8.73328 0.503887 -3.46966e-06)
(8.73328 0.503888 -4.0003e-06)
(8.73328 0.503889 -4.36357e-06)
(8.73328 0.50389 -4.62394e-06)
(8.73328 0.503891 -4.73193e-06)
(8.73328 0.503893 -4.71909e-06)
(8.73328 0.503894 -4.57606e-06)
(8.73328 0.503895 -4.33649e-06)
(8.73327 0.503897 -3.9906e-06)
(8.73327 0.503898 -3.59357e-06)
(8.73327 0.503899 -3.11384e-06)
(8.73327 0.5039 -2.64454e-06)
(8.73327 0.5039 -2.11847e-06)
(8.73328 0.503901 -1.5705e-06)
(8.73328 0.503902 -7.69576e-07)
(8.73313 0.503893 -8.22381e-08)
(8.7542 0.310152 2.75576e-07)
(8.75434 0.310158 1.46157e-06)
(8.75434 0.310159 2.63728e-06)
(8.75434 0.310161 3.5919e-06)
(8.75434 0.310164 4.4364e-06)
(8.75434 0.310167 5.0976e-06)
(8.75434 0.31017 5.61538e-06)
(8.75434 0.310173 5.94007e-06)
(8.75434 0.310177 6.10721e-06)
(8.75434 0.310181 6.09919e-06)
(8.75434 0.310185 5.95354e-06)
(8.75434 0.310189 5.6696e-06)
(8.75434 0.310192 5.2856e-06)
(8.75434 0.310195 4.79564e-06)
(8.75434 0.310198 4.26242e-06)
(8.75434 0.310201 3.63667e-06)
(8.75434 0.310203 2.99943e-06)
(8.75434 0.310204 2.24868e-06)
(8.75434 0.310205 1.55407e-06)
(8.75419 0.310201 7.22686e-07)
(8.72308 0.302582 8.31093e-09)
(8.72322 0.302588 3.06976e-07)
(8.72322 0.302588 6.16673e-07)
(8.72322 0.302588 8.72943e-07)
(8.72322 0.302588 1.1813e-06)
(8.72322 0.302588 1.38608e-06)
(8.72322 0.302588 1.5832e-06)
(8.72322 0.302589 1.71301e-06)
(8.72322 0.302589 1.81666e-06)
(8.72322 0.30259 1.86256e-06)
(8.72322 0.30259 1.87742e-06)
(8.72322 0.302591 1.83933e-06)
(8.72322 0.302591 1.77754e-06)