/*--------------------------------*- C++ -*----------------------------------*\
| =========                 |                                                 |
| \\      /  F ield         | OpenFOAM: The Open Source CFD Toolbox           |
|  \\    /   O peration     | Version:  2212                                  |
|   \\  /    A nd           | Website:  www.openfoam.com                      |
|    \\/     M anipulation  |                                                 |
\*---------------------------------------------------------------------------*/
FoamFile
{
    version     2.0;
    format      ascii;
    arch        "LSB;label=32;scalar=64";
    class       surfaceScalarField;
    location    "0.00551";
    object      phi;
}
// * * * * * * * * * * * * * * * * * * * * * * * * * * * * * * * * * * * * * //

dimensions      [1 0 -1 0 0 0 0];

oriented        oriented;

internalField   nonuniform List<scalar> 
5190
(
-1.3142e-06
-5.4494e-06
-1.3891e-06
4.22056e-06
0.00141613
0.00170432
-0.00178272
-0.00137098
-0.00042028
-0.0022544
0.000292062
0.00231852
-6.26535e-06
5.11648e-06
1.43804e-07
1.13607e-06
0.0025422
0.000387963
-0.00257893
-0.000371385
-0.00161384
0.00160924
0.00165255
-0.00169046
-1.26851e-06
2.96922e-06
1.2743e-06
-2.51545e-06
-1.53021e-06
1.49965e-06
-5.38189e-06
5.64012e-06
5.9898e-06
-5.86221e-06
-1.77356e-06
1.85553e-06
6.16561e-06
-2.13581e-06
2.10367e-06
-1.15978e-06
6.24813e-07
-5.56913e-06
-6.33913e-06
2.80868e-06
-2.58587e-06
6.28441e-06
2.59701e-06
-6.40704e-06
-2.34305e-06
-5.74027e-06
5.39409e-06
-2.16294e-06
1.93296e-06
-6.14515e-06
-2.78167e-06
6.42654e-06
2.58059e-06
-7.0318e-06
-3.26423e-06
6.53709e-06
3.19588e-06
-5.77926e-06
-2.76642e-06
5.59202e-06
2.38207e-06
5.24241e-06
-1.4157e-06
8.99999e-07
-4.64368e-06
5.35119e-06
-1.51183e-06
1.51406e-06
-1.81934e-06
2.46001e-06
4.86167e-06
6.40936e-06
-8.08078e-07
8.64402e-07
-6.26447e-06
-6.56947e-06
6.59481e-06
-2.23498e-06
2.46262e-06
-6.51935e-06
-1.81422e-06
2.00579e-06
-1.41958e-06
1.53136e-06
-6.49098e-06
3.31381e-06
2.93252e-06
-4.73083e-06
5.24977e-06
-1.84336e-06
5.94486e-06
-5.46684e-06
-1.43847e-06
-2.11115e-06
3.4598e-06
-5.47217e-06
5.36405e-06
-1.62457e-06
-1.65371e-06
-5.61815e-06
6.17364e-06
-1.23584e-06
-1.49613e-06
1.33941e-06
-6.33907e-06
6.38538e-06
-1.69189e-06
-1.42941e-06
-2.073e-06
7.32586e-06
-1.87512e-06
2.00359e-06
-7.52507e-06
7.24009e-06
-2.86512e-06
2.81234e-06
-3.50297e-06
7.17335e-06
3.30368e-06
6.87923e-06
-7.01568e-06
-3.52629e-06
3.79462e-06
-4.68368e-06
7.47717e-06
7.01833e-06
-6.42327e-06
-2.44819e-06
-2.91198e-06
6.10184e-06
-6.2427e-06
-2.71271e-06
2.91917e-06
-2.53621e-06
2.26303e-06
0.00120436
0.0016551
-0.00185761
-0.00101801
-2.41396e-06
2.43026e-06
-5.66838e-06
-1.58133e-06
1.68231e-06
-9.97192e-07
-4.79761e-06
5.20766e-06
8.12624e-07
5.36688e-06
-4.99916e-06
-1.36111e-06
1.41201e-06
-1.4566e-06
3.4083e-06
7.15364e-06
-2.93343e-06
-6.43324e-06
2.95662e-06
-5.40993e-06
1.34944e-06
5.63584e-06
-5.14003e-06
-1.43229e-06
1.35133e-06
6.18021e-06
-6.20772e-06
-2.21259e-06
6.08303e-06
-2.38952e-06
-1.1345e-06
-5.09955e-06
9.99704e-07
-1.26096e-06
1.32107e-06
-4.63687e-06
-4.91802e-06
5.25442e-06
-1.26511e-06
-1.18603e-06
-4.58492e-06
-5.39799e-06
5.75925e-06
1.33649e-06
7.48529e-07
-6.86009e-06
6.58233e-06
1.43099e-06
1.60941e-06
-6.69222e-06
6.82649e-06
2.1607e-06
1.70377e-06
-6.85288e-06
6.51993e-06
3.45279e-06
2.70503e-06
-1.75348e-07
-1.23639e-06
1.69159e-06
3.16663e-08
4.54475e-06
5.31668e-06
7.2934e-06
-7.32927e-06
3.0554e-06
3.20296e-06
7.30465e-06
2.35381e-06
-7.64193e-06
2.68425e-06
-2.6269e-06
6.26586e-06
1.47864e-07
4.83364e-07
-1.18928e-07
-1.35006e-07
-1.60428e-06
1.87697e-06
-6.63537e-06
0.00052541
-0.00246008
-0.00040153
0.00233187
-5.34134e-06
5.35919e-06
-1.74071e-06
5.55668e-06
-5.34425e-06
-1.41189e-06
-1.71863e-06
-5.42887e-06
5.57478e-06
-1.70795e-06
-1.64392e-06
-5.65629e-06
6.00346e-06
-1.50228e-06
-1.5118e-06
-6.15419e-06
6.22107e-06
-1.65626e-06
-1.48391e-06
-1.9558e-06
6.21777e-06
-6.57876e-06
-3.12395e-06
-3.36022e-06
4.83492e-06
6.61659e-06
-6.38701e-06
-2.48021e-06
-2.73965e-06
6.25689e-06
-6.23415e-06
-2.47432e-06
-2.42602e-06
6.14005e-06
-6.06761e-06
-1.8871e-06
-2.22034e-06
5.8071e-06
-5.57047e-06
-1.41373e-06
-1.67203e-06
-1.34071e-06
-1.34352e-06
1.30871e-06
-4.81286e-06
5.07895e-06
-4.72008e-06
6.0735e-06
-2.52063e-06
-2.35202e-06
2.65032e-06
7.29906e-06
-7.86917e-06
-2.79536e-06
6.82685e-06
-3.2464e-06
6.64304e-06
-5.02495e-06
-1.17577e-06
-4.86708e-06
5.17473e-06
-1.20384e-06
-4.56184e-06
-1.15386e-06
7.32511e-06
-8.28442e-06
3.04951e-06
-3.22986e-06
6.72404e-06
3.10808e-06
-3.18102e-06
6.78191e-06
-3.12407e-06
6.13381e-06
5.95227e-06
-5.82821e-06
-2.60991e-06
2.52327e-06
-2.16397e-06
2.77622e-06
6.55458e-06
-7.33003e-06
6.21416e-06
-2.48318e-06
-4.85627e-06
5.17037e-06
1.19008e-06
1.2116e-06
-1.2436e-06
-4.42783e-06
1.13327e-06
-4.49305e-06
2.52793e-06
4.40591e-06
-6.02067e-06
-1.03058e-06
5.71645e-06
-2.82142e-06
-5.81299e-06
2.11692e-06
-6.94193e-06
3.04341e-06
-0.00296618
-0.000740484
0.00189152
0.00186955
2.784e-06
-2.61859e-06
5.98623e-06
6.3382e-06
6.64987e-06
1.09314e-06
-1.12486e-06
-4.68974e-06
0.00204638
-0.00202913
-0.000488717
-4.74194e-06
2.29695e-06
4.89505e-07
-3.36478e-06
-1.255e-06
2.47059e-06
-2.37994e-06
4.65764e-06
-5.75562e-06
5.51641e-06
5.37437e-07
5.72634e-07
-5.5499e-06
-5.68094e-06
6.13457e-06
1.1506e-06
7.84708e-07
-6.65322e-06
6.86229e-06
1.55305e-06
1.40578e-06
-7.03544e-06
7.21741e-06
2.25283e-06
1.83838e-06
-7.32057e-06
7.51651e-06
3.25595e-06
2.78382e-06
3.49183e-06
7.36002e-06
-7.56644e-06
2.94952e-06
3.0632e-06
7.58696e-06
2.42259e-06
-7.46654e-06
2.67955e-06
-6.16351e-06
3.85853e-06
4.52058e-06
0.0001977
-0.000257592
0.000208605
-0.000249979
-5.42007e-06
1.14969e-06
5.62781e-06
1.19175e-06
-5.18157e-06
5.38964e-06
-1.3492e-06
4.93196e-06
-1.04978e-06
-4.66902e-06
-1.1173e-06
-5.43557e-06
5.48338e-06
-1.6312e-06
-1.54645e-06
-5.55668e-06
5.55047e-06
-1.64074e-06
-1.61663e-06
-5.79739e-06
5.84713e-06
-1.50991e-06
-1.7158e-06
-6.08724e-06
6.09095e-06
-1.61304e-06
-1.67757e-06
-6.11797e-06
6.00562e-06
-2.07804e-06
-1.94473e-06
-5.9494e-06
5.83803e-06
-2.42671e-06
-2.33105e-06
-2.61083e-06
1.42725e-06
6.04202e-06
-2.60678e-06
5.78841e-06
6.21942e-06
-6.40981e-06
-2.70295e-06
-2.84545e-06
6.35815e-06
-6.25222e-06
-2.22845e-06
-2.47828e-06
6.09555e-06
-6.16601e-06
-2.03334e-06
-2.21497e-06
6.12747e-06
-5.97327e-06
-1.65645e-06
-1.88227e-06
5.76488e-06
-5.45939e-06
-1.31793e-06
-1.48608e-06
-1.23282e-06
-1.16632e-06
1.2118e-06
-4.27916e-06
1.11269e-06
-4.25201e-06
-1.10881e-06
-4.26303e-06
-4.35404e-06
2.60396e-06
1.09763e-06
-2.26334e-06
-9.73102e-07
-9.05039e-10
-4.17238e-07
4.80265e-06
-4.1639e-06
-3.72494e-06
5.08457e-06
-1.1617e-06
-6.89359e-06
2.98178e-06
6.23732e-06
-3.34019e-06
3.02196e-06
-3.33362e-06
5.89093e-06
-3.16496e-06
6.61413e-06
3.062e-06
5.88714e-06
-2.9222e-06
-3.15767e-06
6.16762e-06
4.78602e-06
-4.81202e-06
-6.40993e-07
-2.70651e-06
2.98875e-06
6.06901e-06
-2.56424e-06
5.93405e-06
-4.88499e-06
5.18471e-06
1.02518e-06
-4.52473e-06
9.96236e-07
-3.43796e-06
6.2723e-06
-3.03582e-06
5.80597e-06
-1.24452e-06
1.10392e-06
-4.22155e-06
-1.43582e-06
-4.11172e-06
0.000616671
1.71784e-07
-0.000545275
-5.06693e-06
1.59506e-07
0.000693549
-4.76182e-06
-0.00061663
0.000693505
-4.51584e-06
-0.00054523
-4.77637e-06
-1.10332e-06
1.10654e-06
-3.94808e-06
-4.26351e-06
4.56441e-06
-1.14693e-06
-3.95204e-06
-1.12895e-06
-4.71909e-06
3.41771e-06
-3.63168e-06
4.6758e-06
-6.63523e-06
2.9927e-06
1.21233e-06
2.87174e-06
-1.05278e-06
-4.28002e-06
-6.98984e-07
4.8e-06
3.47363e-06
5.56358e-06
-5.56762e-06
-7.94742e-06
0.00171534
0.00111887
-0.00183668
-0.00101882
0.00228013
0.000596274
-0.000525498
-0.00235822
6.23024e-06
6.12327e-06
0.00145371
0.00188408
-4.27422e-06
9.25852e-07
9.36166e-07
4.8474e-06
-5.64268e-07
-6.44582e-06
-5.18786e-06
5.43638e-06
6.10664e-07
-6.87721e-07
3.82959e-07
-5.7765e-07
-5.56135e-06
5.67966e-06
6.30805e-07
6.21705e-07
-5.93734e-06
6.36033e-06
1.06822e-06
8.01521e-07
-6.80259e-06
7.11473e-06
1.57401e-06
1.32319e-06
-7.37888e-06
7.61048e-06
2.20465e-06
1.84901e-06
-7.81558e-06
7.91707e-06
2.892e-06
2.58238e-06
-7.89527e-06
7.36281e-06
2.79476e-06
2.95044e-06
2.94662e-06
7.42428e-06
-7.74763e-06
2.78337e-06
2.87412e-06
7.82181e-06
-7.65031e-06
2.45019e-06
2.62218e-06
7.23188e-06
-6.70666e-06
1.85322e-06
-1.91841e-06
2.19704e-06
-2.21292e-06
6.25271e-06
-5.89052e-06
1.13864e-06
-1.26504e-06
1.43014e-06
-1.49783e-06
5.6267e-06
-5.4259e-06
9.91421e-07
9.99665e-07
-1.15692e-06
1.00948e-06
0.000776439
1.04713e-07
-4.51874e-06
0.000866522
9.42517e-08
-4.49536e-06
0.000965222
8.61411e-08
-4.94151e-06
0.00107418
2.1424e-07
-5.78457e-06
0.00119447
1.11113e-06
-6.85378e-06
0.00132818
3.27747e-06
-9.68203e-06
0.00147794
6.86432e-06
-1.51639e-05
0.00164072
1.48455e-05
-2.1679e-05
0.00181725
2.99585e-05
-3.63368e-05
4.67071e-05
0.00200898
-5.69659e-05
0.00201252
-0.00181621
3.14723e-05
0.00221208
6.49134e-05
-8.07217e-05
8.29928e-05
0.00241985
-0.000106459
-0.00222115
0.00244097
5.25141e-05
4.43166e-05
0.00163559
-0.00147489
1.00582e-05
1.92269e-05
0.00132767
-0.00119362
-3.58332e-06
8.88222e-07
0.00107321
-0.000964702
-4.96512e-06
-4.74566e-06
0.000866317
-0.00077632
-4.27085e-06
-4.43595e-06
-4.27627e-06
-5.04795e-06
5.27266e-06
-1.28922e-06
-1.06178e-06
-5.41424e-06
5.52893e-06
-1.55258e-06
-1.44109e-06
-5.63208e-06
5.67489e-06
-1.606e-06
-1.58647e-06
-5.66015e-06
5.81209e-06
-1.63902e-06
-1.66251e-06
-5.9291e-06
6.05234e-06
-1.72255e-06
-1.77646e-06
-5.98526e-06
5.95223e-06
-2.07059e-06
-1.87631e-06
-5.84935e-06
5.71294e-06
-2.39718e-06
-2.29133e-06
3.39954e-06
-4.78286e-06
1.11297e-06
-2.49468e-06
5.44636e-06
-3.09896e-06
3.31055e-06
-5.17965e-06
5.64723e-06
-5.79827e-06
-2.56646e-06
-2.38856e-06
2.64578e-06
5.51035e-06
-5.90067e-06
1.93194e-06
4.24842e-06
-5.62961e-07
-2.92871e-06
5.85727e-06
-5.92589e-06
-2.47327e-06
-2.46192e-06
6.10212e-06
-6.19103e-06
-2.33518e-06
-2.49401e-06
6.18793e-06
-6.0717e-06
-1.97824e-06
-2.13137e-06
6.08429e-06
-6.05859e-06
-1.72643e-06
-1.85188e-06
6.00447e-06
-5.86907e-06
-1.48376e-06
-1.6207e-06
5.67466e-06
-5.4171e-06
-1.28058e-06
-1.37922e-06
5.14151e-06
-4.85699e-06
-1.21816e-06
-1.22515e-06
-1.1861e-06
-1.12105e-06
1.14888e-06
-3.92932e-06
-3.93033e-06
-1.15492e-06
1.12036e-06
-4.01544e-06
-3.97108e-06
-1.05103e-06
9.41922e-07
-4.11726e-06
-4.07886e-06
8.70611e-07
-1.41448e-06
-1.8735e-07
-2.17806e-06
6.35437e-06
-9.9918e-06
4.64103e-06
-6.36453e-06
-3.30118e-06
6.14508e-06
3.03414e-06
5.6738e-06
-2.83622e-06
2.98087e-06
5.54522e-06
-3.11995e-06
5.75027e-06
-3.89223e-06
-1.94214e-06
-6.50872e-06
3.52565e-06
5.05964e-06
1.7017e-07
-5.38884e-06
-0.000478163
-5.07528e-06
-0.000478127
4.69382e-06
-6.16144e-07
-4.38285e-06
4.59242e-05
2.7956e-05
-1.73583e-05
-7.28116e-05
0.00200989
-0.00181799
-6.33163e-05
0.002204
-8.54635e-05
-3.53858e-06
5.75384e-06
-0.00312684
-0.000649962
0.00121035
0.00263164
2.56822e-06
4.73086e-06
2.50389e-06
-2.92193e-06
5.61497e-06
3.71004e-07
-5.81359e-07
-3.69942e-06
4.14165e-07
-3.55405e-06
-0.000478309
0.000545605
-1.07352e-05
-5.61757e-06
1.8999e-07
-0.00041441
-1.09523e-05
-0.000414384
-1.16175e-06
1.11671e-06
-3.57989e-06
-1.17162e-06
-3.61372e-06
-4.30355e-06
4.57807e-06
-1.1733e-06
-3.9706e-06
-1.16458e-06
-0.000101121
0.00267236
4.48487e-05
0.00265875
-0.000168728
3.09361e-06
3.41318e-06
-3.36159e-06
2.87184e-06
3.63374e-06
-3.57966e-06
-3.22182e-06
5.60418e-06
5.8883e-06
2.21699e-06
3.5843e-06
-2.64807e-06
-3.51282e-06
2.3942e-06
3.88213e-06
0.00220769
0.000667204
-0.000604515
5.8979e-06
1.44571e-06
-6.8065e-06
-6.41606e-06
6.20186e-06
3.20504e-08
8.7087e-07
5.18699e-07
-4.47885e-07
-4.53552e-07
-4.1451e-06
4.54361e-06
7.9848e-07
8.73329e-07
-9.68405e-07
-3.67759e-06
7.44837e-07
-3.70598e-06
5.85711e-06
5.65513e-06
1.37976e-06
-3.42192e-06
-1.44242e-06
-1.26602e-06
1.12594e-06
-3.72587e-06
-3.61136e-06
-9.72277e-07
7.83102e-07
-3.82445e-06
4.31059e-06
-3.7978e-06
-3.80154e-06
-5.03696e-06
5.26749e-06
5.64953e-07
6.33128e-07
-5.50271e-06
5.76993e-06
6.24333e-07
5.92913e-07
-6.12978e-06
6.58506e-06
9.90272e-07
7.73811e-07
-7.02074e-06
7.38784e-06
1.48402e-06
1.24161e-06
-7.69527e-06
7.93407e-06
1.99088e-06
1.71762e-06
-8.08297e-06
8.05042e-06
2.45997e-06
2.22889e-06
-7.82044e-06
7.2414e-06
2.45901e-06
2.44931e-06
2.69413e-06
-2.57629e-06
5.64779e-06
6.8394e-06
1.29547e-06
-6.49258e-06
6.33148e-06
-6.86441e-06
2.53754e-06
2.62035e-06
6.67331e-06
7.42488e-06
-7.86012e-06
2.43315e-06
2.47711e-06
8.01749e-06
-7.89804e-06
2.28439e-06
2.34146e-06
7.53481e-06
-7.05948e-06
1.84548e-06
2.10936e-06
6.51699e-06
-6.08635e-06
1.14156e-06
1.41164e-06
5.71898e-06
-5.45408e-06
8.90448e-07
9.21948e-07
5.17754e-06
-4.8882e-06
8.53156e-07
8.36246e-07
8.34531e-07
-0.000617075
0.000693835
-1.01709e-05
-1.04221e-05
-0.000776343
0.000866069
-1.02738e-05
-9.96858e-06
-0.000964162
0.00107278
-1.24513e-05
-1.10297e-05
-0.00119371
0.00132769
-1.60055e-05
-1.40006e-05
-0.0014751
0.00164084
-2.87151e-05
-1.96564e-05
-3.99783e-05
-0.000478306
0.000545565
-1.04602e-05
5.27853e-06
-1.06728e-05
-0.000414405
-0.000414387
-3.9492e-05
-0.000250091
-0.00266005
-0.000179452
1.06903e-05
-3.59568e-06
-2.04347e-05
6.83151e-06
0.00244216
-0.00222692
2.67235e-05
2.70364e-06
0.00202205
-0.00182616
1.80234e-05
2.82722e-05
0.0016423
-0.00147425
-5.08984e-07
6.59544e-06
0.00132422
-0.00119278
-7.30107e-06
-6.58631e-06
0.00107212
-0.000963622
-1.16481e-05
-1.14713e-05
0.000865568
-0.000776077
-9.95148e-06
-1.0527e-05
0.000693665
-0.000617009
-9.94989e-06
-9.76048e-06
-1.0204e-05
-4.94851e-06
5.16463e-06
-1.21915e-06
-1.00681e-06
-5.34724e-06
5.49163e-06
-1.47244e-06
-1.36111e-06
-5.60873e-06
5.73779e-06
-1.62087e-06
-1.52917e-06
-5.80188e-06
5.92508e-06
-1.73169e-06
-1.66607e-06
-5.86262e-06
5.89722e-06
-1.74896e-06
-1.69739e-06
-5.88075e-06
5.85899e-06
-2.07953e-06
-1.86304e-06
-5.72599e-06
5.57567e-06
-2.37532e-06
-2.23221e-06
-5.34808e-06
5.05406e-06
-2.72425e-06
2.76825e-06
-2.45521e-06
-4.58805e-06
3.85469e-06
-3.22885e-06
-2.9362e-06
-3.21759e-06
3.23059e-06
3.06383e-06
-3.39089e-06
2.9747e-06
-3.19742e-06
-3.24936e-06
-3.02725e-06
3.76265e-06
2.40177e-06
2.53599e-06
-3.23948e-06
-3.01624e-06
-2.715e-06
1.65463e-06
2.53442e-06
-1.89773e-06
-1.57768e-06
1.37111e-06
-3.1135e-06
-3.23944e-06
3.53491e-06
3.32114e-06
-4.74397e-06
-3.30295e-06
4.22847e-06
-3.09692e-06
5.2298e-06
-5.48309e-06
-2.54111e-06
-2.84624e-06
5.64663e-06
-5.80308e-06
-2.28817e-06
-2.38538e-06
5.96651e-06
-6.01723e-06
-2.09269e-06
-2.20755e-06
6.0131e-06
-6.01005e-06
-1.7702e-06
-1.91415e-06
6.00124e-06
-5.97965e-06
-1.5893e-06
-1.67729e-06
5.92633e-06
-5.80366e-06
-1.44717e-06
-1.52441e-06
5.62479e-06
-5.39369e-06
-1.32591e-06
-1.38454e-06
5.13564e-06
-4.86605e-06
-1.28408e-06
-1.28927e-06
-1.2557e-06
-1.10195e-06
1.08631e-06
-3.5543e-06
-3.57654e-06
-1.07531e-06
1.03889e-06
-3.60006e-06
-3.58481e-06
-3.63873e-06
0.0016304
0.00174562
-4.27254e-07
-4.73182e-06
3.75175e-06
-2.0828e-06
0.00240102
-0.000121796
-3.47714e-06
5.62327e-06
3.14027e-06
4.97357e-06
2.98774e-06
4.97397e-06
-3.10512e-06
5.42703e-06
-3.45043e-06
6.73749e-07
3.3763e-06
-0.00173614
-0.00152594
0.00133059
0.0012764
-2.41575e-06
9.18818e-07
2.5329e-06
2.30454e-06
-1.44052e-06
-0.000478276
0.000545626
-1.63939e-05
-0.000414278
-1.65444e-05
-1.26425e-06
1.27702e-06
-3.01056e-06
3.73254e-06
-4.36792e-06
2.99186e-06
-3.4202e-06
-1.48483e-06
3.33993e-06
-3.18288e-06
-1.27392e-06
-1.14942e-06
-2.87711e-06
-1.09894e-06
-3.67974e-06
-4.15319e-06
4.54506e-06
6.29465e-07
-3.72479e-06
5.94026e-07
0.00281981
-0.000268406
5.35717e-06
-1.43202e-06
-6.51964e-06
1.36324e-06
-9.24015e-07
1.35327e-06
3.67747e-06
-0.00187801
0.0015718
2.64778e-06
-2.35309e-06
0.00200477
-0.00181942
-5.99215e-05
0.00219656
-8.59148e-05
-4.21305e-07
4.33557e-06
-4.85591e-07
-1.78939e-06
-5.54357e-06
4.82219e-06
4.23498e-06
-3.58333e-07
-1.57076e-06
3.16518e-06
3.98254e-06
-3.64866e-06
5.36897e-06
-2.95294e-06
5.35769e-06
2.81986e-06
4.23297e-06
5.41916e-06
-9.4592e-07
-0.000478259
0.0005456
-1.61601e-05
-0.000414267
-1.62985e-05
1.34027e-06
-3.78517e-06
3.92581e-06
-5.0496e-06
-0.00238925
0.000423263
0.00259509
-0.00244643
0.000623743
5.12127e-06
-8.3757e-07
-3.04716e-06
5.16713e-06
2.57129e-06
3.35835e-06
3.26137e-06
3.27172e-06
2.46942e-06
-3.21965e-06
2.56903e-06
3.35711e-06
3.02485e-06
8.03537e-07
-3.12497e-06
1.1184e-06
3.05424e-06
2.58969e-06
3.55304e-06
-2.48516e-06
5.10616e-06
-4.77421e-06
-1.76336e-06
4.2428e-06
9.23291e-07
0.00255616
-0.000160045
1.12607e-06
1.73195e-07
-6.5357e-07
-2.57055e-07
5.56911e-06
-3.0156e-07
-6.26173e-06
-2.7272e-06
1.65692e-06
-2.60031e-06
1.31385e-06
5.30233e-06
5.22743e-06
-1.23062e-06
1.14849e-06
-3.25524e-06
-3.15427e-06
-1.03768e-06
9.02108e-07
-3.34823e-06
-3.32413e-06
-7.73103e-07
6.7522e-07
-3.30898e-06
-3.35382e-06
-6.33122e-07
6.03798e-07
-3.18654e-06
-3.2506e-06
3.40427e-06
-3.13308e-06
5.50471e-07
-3.49165e-06
4.82606e-06
1.13931e-06
-2.29093e-06
7.64682e-07
-4.92196e-06
5.18477e-06
5.01023e-07
7.42219e-07
-5.50835e-06
5.88777e-06
5.43195e-07
5.07013e-07
-6.32608e-06
6.79808e-06
8.86882e-07
6.94201e-07
-7.24733e-06
7.62536e-06
1.29064e-06
1.09325e-06
-7.92782e-06
8.15617e-06
1.6462e-06
1.46668e-06
-8.23333e-06
8.16966e-06
1.95383e-06
1.81664e-06
-7.889e-06
7.47504e-06
1.94433e-06
1.93086e-06
-7.16232e-06
7.70135e-06
1.94841e-06
2.01878e-06
2.04402e-06
6.00103e-06
7.54221e-06
-7.10952e-06
1.62291e-06
-2.95164e-06
1.3198e-06
7.05644e-06
-7.26418e-06
1.7396e-06
1.69239e-06
7.61384e-06
-7.95918e-06
1.81587e-06
1.77364e-06
8.19053e-06
-8.10584e-06
1.78815e-06
1.82645e-06
7.81473e-06
-7.33625e-06
1.59094e-06
1.75564e-06
6.82951e-06
-6.32386e-06
1.08483e-06
1.31433e-06
5.88076e-06
-5.50022e-06
7.75335e-07
8.54484e-07
5.20271e-06
-4.89515e-06
6.94607e-07
7.25728e-07
6.53161e-07
-0.000617133
0.000693747
-1.65588e-05
-1.64256e-05
-0.000775906
0.000864952
-1.74993e-05
-1.68204e-05
-0.000962584
0.00107068
-1.97547e-05
-1.8534e-05
-0.00119142
0.00132657
-2.22727e-05
-2.08845e-05
-0.00147674
0.00164145
-3.12461e-05
-2.46585e-05
-4.05756e-05
2.16443e-07
-5.66066e-06
-0.000353361
5.25018e-06
-1.04967e-05
-0.000353339
-0.000353349
1.9788e-06
2.8483e-06
1.08302e-05
-0.000353292
-1.62894e-05
-0.000353329
0.00226955
-0.0023924
-8.27615e-06
0.000147213
0.000415748
-0.000592157
0.00275993
-0.00263805
-0.000160304
-0.000300071
0.00243879
-0.00223424
5.61861e-06
-3.05079e-05
0.00202861
-0.00183027
6.33435e-06
1.34507e-05
0.00164754
-0.0014773
-8.90609e-06
-4.61402e-08
0.00132608
-0.00118957
-1.46178e-05
-1.24223e-05
0.00106913
-0.000961991
-1.81404e-05
-1.81047e-05
0.000864475
-0.000775597
-1.70977e-05
-1.80282e-05
0.000693578
-0.000617035
-1.6356e-05
-1.6604e-05
-1.62214e-05
-3.40251e-06
3.4821e-06
-1.23146e-06
3.10052e-06
-2.73291e-06
-1.10196e-06
-1.17828e-06
-3.91677e-06
4.49582e-06
-8.86666e-07
-1.01039e-06
8.90861e-07
-4.80789e-06
5.04533e-06
-1.16466e-06
-1.01126e-06
-5.25148e-06
5.43039e-06
-1.39757e-06
-1.28978e-06
-5.61076e-06
5.73161e-06
-1.57248e-06
-1.48695e-06
-5.80294e-06
5.82534e-06
-1.69118e-06
-1.62795e-06
-5.84794e-06
5.86561e-06
-1.73553e-06
-1.67874e-06
-5.85511e-06
5.77487e-06
-1.99939e-06
-1.83008e-06
-5.62809e-06
5.44438e-06
-2.28452e-06
-2.12521e-06
-5.24056e-06
4.9266e-06
-2.62573e-06
-2.40438e-06
-4.51159e-06
3.96745e-06
-3.00317e-06
-2.79258e-06
-3.4469e-06
2.96475e-06
-3.09885e-06
-3.07852e-06
-3.32007e-06
1.90999e-06
3.3558e-06
-2.44485e-06
1.87771e-06
-3.22734e-06
-3.12421e-06
1.27807e-06
3.37885e-06
-3.3086e-06
6.28607e-07
3.41962e-06
-3.35556e-06
-3.24065e-06
1.54184e-07
3.19282e-06
2.77342e-08
-6.56443e-07
-3.28175e-06
3.34675e-06
-3.32743e-06
1.23122e-06
-1.80029e-06
-3.21555e-06
-3.22101e-06
2.53003e-06
-3.11406e-06
-3.07411e-06
-3.17957e-06
3.68489e-06
-4.45707e-06
-3.01738e-06
-3.09357e-06
4.94808e-06
-5.23665e-06
-2.51242e-06
-2.7351e-06
5.44805e-06
-5.62228e-06
-2.17594e-06
-2.32305e-06
5.7603e-06
-5.85606e-06
-1.96686e-06
-2.0719e-06
5.90083e-06
-5.92773e-06
-1.72118e-06
-1.83256e-06
5.94497e-06
-5.9331e-06
-1.59473e-06
-1.65318e-06
5.88021e-06
-5.76379e-06
-1.49647e-06
-1.54858e-06
5.59456e-06
-5.3802e-06
-1.40318e-06
-1.44843e-06
5.1376e-06
-4.87705e-06
-1.35244e-06
-1.36748e-06
4.59678e-06
-4.28354e-06
-1.21876e-06
-1.31308e-06
3.97427e-06
-3.82054e-06
-8.12275e-07
-1.14043e-06
-1.37597e-06
1.24139e-06
-3.13475e-06
-1.74664e-06
-1.18452e-06
1.1392e-06
-3.18566e-06
-3.18608e-06
-1.09442e-06
1.06554e-06
-3.17272e-06
-3.18481e-06
-1.02258e-06
9.7523e-07
-3.1808e-06
-3.17723e-06
-9.07918e-07
8.16363e-07
-3.22299e-06
-3.19836e-06
-7.00556e-07
-3.26071e-06
5.56712e-07
-3.24604e-06
0.00152021
-0.00144657
-0.000449166
0.00265993
-2.47931e-06
-6.94156e-06
-5.09013e-06
3.32699e-06
-2.33023e-06
0.00237084
-0.000113758
-8.37391e-06
-1.48286e-05
6.67678e-06
2.12352e-06
-3.18249e-08
1.37841e-07
2.00591e-06
-2.95283e-06
1.93673e-06
-2.55989e-07
1.44506e-06
-1.72667e-06
-1.24152e-06
1.26575e-06
-2.37361e-06
3.53981e-06
4.42266e-06
-3.75764e-06
5.13885e-06
-5.45548e-07
3.34954e-06
1.2564e-06
3.43468e-06
-3.19185e-06
5.12826e-06
3.13605e-06
4.54384e-06
4.54524e-06
-1.0269e-06
-7.27997e-06
-3.84944e-07
-5.76352e-06
3.72913e-06
7.06472e-08
-2.7072e-07
1.85013e-06
-6.20378e-07
-7.02284e-07
3.19526e-07
-1.76083e-06
-6.58523e-06
5.72641e-07
7.17859e-06
-7.22904e-06
8.33504e-07
-1.59889e-05
-0.000353295
-0.00231648
0.00243781
0.000250192
-0.00253602
0.000828486
-1.02131e-06
1.10972e-06
-2.39416e-06
2.67176e-06
-9.93244e-07
-2.26892e-06
2.99472e-06
-1.00132e-06
0.00143135
4.17469e-06
-8.92909e-07
-3.70646e-06
5.14194e-06
3.59355e-06
3.54627e-06
1.9655e-06
3.46626e-06
3.39664e-07
3.40004e-06
3.02171e-06
3.78567e-06
-2.98223e-06
5.15842e-06
5.54349e-06
-1.22339e-06
-6.07685e-06
6.17173e-07
-7.16183e-07
-2.80952e-06
5.03065e-07
-2.7591e-06
0.00269917
-0.000274412
-4.57407e-06
-4.56967e-06
-0.000277776
0.000208517
3.47974e-05
-2.22245e-05
0.00191399
0.00151566
-0.0011168
2.94065e-06
2.82407e-06
-1.40774e-06
5.33821e-07
-1.86789e-07
-0.00230505
-0.000150445
0.000446146
0.00258832
4.83951e-06
-1.21471e-06
0.00220955
0.000916356
5.97247e-06
-3.24577e-06
1.44347e-06
3.55624e-06
2.73725e-06
1.51099e-06
3.24366e-06
-2.37542e-06
5.11947e-06
1.71076e-06
5.27356e-07
-6.59306e-07
-2.78195e-06
-3.27075e-06
3.73053e-06
3.94954e-07
3.75095e-07
-2.78386e-06
-1.65289e-05
1.10326e-05
-0.000294595
-0.000353106
0.00041389
-2.27856e-05
-2.32041e-05
-0.000294481
0.00252621
-0.000155399
1.22776e-06
-2.65712e-06
5.05525e-06
-3.51417e-07
-4.25102e-06
1.39013e-06
3.36773e-06
-2.09686e-06
6.43789e-07
2.46479e-06
-6.07989e-06
6.02039e-06
-6.48648e-06
-3.59656e-06
4.74627e-06
3.47239e-06
4.8621e-06
-5.05376e-07
4.32188e-06
-3.2671e-07
-1.16082e-06
1.19795e-06
-2.61292e-06
-2.49536e-06
-1.18627e-06
1.14276e-06
-2.79594e-06
-2.71231e-06
-1.07252e-06
9.83314e-07
-2.88084e-06
-2.85769e-06
-8.92988e-07
8.03032e-07
-2.88359e-06
-2.90401e-06
-2.85809e-06
3.43129e-06
-3.10904e-06
4.41137e-07
-3.83127e-06
4.48167e-06
6.67744e-07
5.49775e-07
-4.89062e-06
5.17694e-06
4.3109e-07
5.22504e-07
-5.57436e-06
6.00131e-06
4.37571e-07
3.73997e-07
-6.49268e-06
6.98084e-06
7.21247e-07
5.6145e-07
-7.41674e-06
7.80346e-06
9.97677e-07
8.75763e-07
-8.09845e-06
8.30686e-06
1.24812e-06
1.1455e-06
-8.36582e-06
8.24038e-06
1.47814e-06
1.36046e-06
-7.96938e-06
7.61471e-06
1.39929e-06
1.42332e-06
-7.27509e-06
7.10099e-06
1.04736e-06
1.39359e-06
4.75543e-07
-4.58526e-07
-1.19219e-06
-1.04928e-06
-2.99903e-08
7.25715e-07
7.27488e-06
-7.43519e-06
9.83992e-07
9.30151e-07
7.71959e-06
-8.01906e-06
1.14792e-06
1.07007e-06
8.23129e-06
-8.19914e-06
1.16302e-06
1.20029e-06
7.98603e-06
-7.57511e-06
1.12033e-06
1.23367e-06
7.05331e-06
-6.55443e-06
8.66088e-07
9.34673e-07
6.07594e-06
-5.65316e-06
6.41959e-07
6.99403e-07
5.26713e-06
-4.90075e-06
5.20664e-07
5.71442e-07
4.54118e-06
-4.15469e-06
4.51009e-07
4.76609e-07
4.22673e-07
-0.000477845
0.000545104
-2.28069e-05
-2.30213e-05
-0.0006165
0.000692866
-2.34834e-05
-2.31236e-05
-0.000774627
0.000863298
-2.47167e-05
-2.39855e-05
-0.000960806
0.00106925
-2.63818e-05
-2.5611e-05
-0.00119111
0.00132722
-2.75603e-05
-2.73579e-05
-0.00147947
0.00164459
-3.07834e-05
-2.87511e-05
-0.00182613
0.0020107
-5.24215e-05
-4.09341e-05
-0.00219569
0.00236477
-9.85218e-05
-7.66379e-05
-1.06456e-05
5.33863e-06
-0.000294612
-0.000353034
0.000413812
-2.24931e-05
1.62191e-05
-2.28845e-05
-0.000294443
-0.000294572
2.27837e-07
-5.80668e-06
-0.00029461
-0.000294639
-0.000294622
0.00249682
-0.00255044
5.59898e-05
0.000377616
0.00266535
-0.00259888
-9.35423e-05
-0.00010619
0.00243632
-0.0022423
-7.7471e-06
-3.34425e-05
0.0020376
-0.0018382
-2.92184e-06
2.17618e-07
0.00165074
-0.00148129
-1.29428e-05
-7.65036e-06
0.00132641
-0.00118933
-2.0883e-05
-1.91474e-05
0.00106802
-0.000959691
-2.48324e-05
-2.42339e-05
0.000862945
-0.000774405
-2.42201e-05
-2.44879e-05
0.000692747
-0.000616414
-2.32832e-05
-2.37548e-05
0.000545042
-0.000477771
-2.25876e-05
-2.29168e-05
-2.27843e-05
-3.2982e-06
3.52759e-06
-1.07714e-06
-1.07369e-06
-3.89071e-06
4.31387e-06
-9.6124e-07
-1.00916e-06
-4.65313e-06
4.91784e-06
-1.11677e-06
-1.01778e-06
-5.13977e-06
5.34354e-06
-1.31848e-06
-1.21259e-06
-5.51363e-06
5.64355e-06
-1.47101e-06
-1.38833e-06
-5.7391e-06
5.74996e-06
-1.57744e-06
-1.54382e-06
-5.76683e-06
5.79965e-06
-1.69479e-06
-1.60832e-06
-5.77611e-06
5.69464e-06
-1.86348e-06
-1.73922e-06
-5.5515e-06
5.35364e-06
-2.10344e-06
-1.95725e-06
-5.13856e-06
4.813e-06
-2.41318e-06
-2.25391e-06
-4.43368e-06
3.95462e-06
-2.73434e-06
-2.57413e-06
-3.45105e-06
2.9494e-06
-2.88588e-06
-2.82682e-06
-2.42647e-06
1.86865e-06
-3.02663e-06
-2.92345e-06
-1.27142e-06
6.60496e-07
-3.16787e-06
-3.10067e-06
-4.30627e-08
-5.83425e-07
-3.1765e-06
-3.1813e-06
1.19949e-06
-1.83468e-06
-3.12713e-06
-3.14688e-06
2.47257e-06
-3.05288e-06
-3.00491e-06
-3.08129e-06
3.65334e-06
-4.2451e-06
-2.82087e-06
-2.94939e-06
4.67636e-06
-5.00066e-06
-2.42839e-06
-2.62223e-06
5.24724e-06
-5.44633e-06
-2.10464e-06
-2.25136e-06
5.60383e-06
-5.72825e-06
-1.91817e-06
-2.00858e-06
5.81204e-06
-5.86719e-06
-1.74058e-06
-1.82011e-06
5.90118e-06
-5.89576e-06
-1.64065e-06
-1.68671e-06
5.84065e-06
-5.72606e-06
-1.54872e-06
-1.59662e-06
5.56255e-06
-5.35987e-06
-1.45263e-06
-1.49993e-06
5.12852e-06
-4.87495e-06
-1.37763e-06
-1.40793e-06
4.60183e-06
-4.29648e-06
-1.20723e-06
-1.31852e-06
4.01014e-06
-6.61994e-07
-3.7349e-06
-1.05066e-06
-1.17545e-06
1.13225e-06
-2.76582e-06
-2.73224e-06
-1.08724e-06
1.04247e-06
-2.76859e-06
-2.77541e-06
-9.93851e-07
9.3593e-07
-2.75759e-06
-2.76648e-06
-8.6727e-07
7.74005e-07
-2.76386e-06
-2.76163e-06
-2.77278e-06
2.5644e-06
-0.000362806
0.000169878
0.000310841
-0.000211037
0.000453696
-0.00171037
-0.000732029
0.000818146
2.51868e-06
-2.15432e-06
-9.15819e-07
-2.37585e-06
1.20715e-07
3.16838e-06
-7.7113e-07
-2.16943e-07
-1.95172e-06
-3.96557e-06
4.7209e-06
3.89275e-06
3.86798e-06
1.28421e-06
3.55174e-06
-5.22771e-07
3.59187e-06
3.31512e-06
4.15465e-06
-3.32494e-06
4.88945e-06
5.11006e-06
-1.55057e-06
2.18406e-06
-6.20792e-06
-2.72827e-06
3.7242e-07
-6.43289e-06
-9.28503e-07
4.24843e-06
3.19676e-06
-7.34595e-06
0.00182148
0.00105136
-0.00181106
-6.32905e-06
-1.19095e-06
0.00263184
-0.000356465
2.88163e-06
-9.30845e-07
-4.58542e-06
-4.39357e-06
2.82212e-06
-3.97448e-06
3.17135e-08
-1.0771e-06
-0.0003527
0.000413341
-3.02538e-05
-0.000294217
-3.10033e-05
0.00152257
0.0014777
-0.00271979
0.00191672
2.51326e-06
3.23394e-06
0.00171988
0.00139055
-1.6457e-06
-5.61852e-07
4.27122e-06
-1.6045e-06
0.00269347
0.000334393
-0.000611536
-4.04909e-06
4.86572e-06
3.87151e-06
2.9709e-06
2.10839e-06
3.69956e-06
5.51423e-07
4.03207e-06
3.29805e-06
3.33684e-06
-3.03395e-06
5.0694e-06
5.41341e-06
-2.27788e-06
-9.97371e-07
1.06398e-06
-2.02161e-06
-9.37048e-07
-1.89227e-06
-3.27946e-06
3.736e-06
2.21188e-07
-2.78849e-06
2.08597e-07
5.13798e-07
-6.41433e-07
-2.29259e-06
3.74873e-07
-2.28847e-06
-0.000352782
0.000413413
-3.05113e-05
-0.000294275
-3.12999e-05
-1.64235e-05
1.0978e-05
-0.000238452
-2.29068e-05
-0.000238271
-8.31018e-08
-3.71008e-06
0.00260097
-0.000216042
-1.16819e-06
1.16762e-06
-2.21e-06
-1.10833e-06
-2.11115e-06
0.00248859
-0.000120573
2.487e-08
9.85435e-07
-5.41414e-07
4.78214e-06
-2.01825e-06
-2.16387e-07
1.75196e-06
-1.04225e-06
-3.90773e-07
-6.46474e-06
4.25169e-06
3.62446e-06
4.51414e-06
-1.45209e-06
4.9094e-06
-1.10903e-06
1.14251e-06
-2.20075e-06
-2.09809e-06
-1.14273e-06
1.12424e-06
-2.34259e-06
-2.2689e-06
-1.07488e-06
1.01786e-06
-2.41784e-06
-2.38832e-06
-9.37946e-07
8.57937e-07
-2.43494e-06
-2.43522e-06
-7.58106e-07
6.37488e-07
-2.37157e-06
-2.41345e-06
-5.18946e-07
3.95321e-07
-2.31683e-06
-2.34061e-06
2.71463e-06
-2.29176e-06
2.52827e-07
-3.09728e-06
3.48111e-06
2.71172e-07
2.36784e-07
-3.90033e-06
4.38048e-06
3.73212e-07
3.21125e-07
-4.78642e-06
5.20506e-06
2.4929e-07
3.16443e-07
-5.63647e-06
6.12213e-06
2.89235e-07
2.32365e-07
-6.62802e-06
7.11231e-06
5.0293e-07
3.94931e-07
-7.54912e-06
7.91181e-06
6.85832e-07
5.96519e-07
-8.21746e-06
8.41181e-06
8.50229e-07
7.91704e-07
-8.43282e-06
8.3124e-06
9.75549e-07
9.32756e-07
-8.02286e-06
7.66572e-06
8.25128e-07
8.98157e-07
-7.40489e-06
6.99546e-06
2.79121e-07
6.25309e-07
-4.10456e-07
-4.92332e-06
3.44191e-06
-8.79081e-07
6.91812e-06
-7.12588e-06
-8.95547e-08
-4.00377e-07
7.18047e-06
-7.34896e-06
2.62076e-07
1.27629e-07
7.65131e-06
-7.9857e-06
5.61913e-07
4.19025e-07
8.19875e-06
-8.27783e-06
6.96834e-07
6.35353e-07
8.05519e-06
-7.68099e-06
6.33392e-07
7.05598e-07
7.17941e-06
-6.70775e-06
5.41871e-07
4.67823e-07
6.22292e-06
-5.78661e-06
4.36692e-07
4.25735e-07
5.3375e-06
-4.92113e-06
3.13318e-07
3.50165e-07
4.5466e-06
-4.15285e-06
2.65924e-07
2.99037e-07
2.46573e-07
-0.000477221
0.000544262
-3.001e-05
-3.05104e-05
-0.000615468
0.000691716
-3.02222e-05
-3.02146e-05
-0.000773422
0.000862211
-3.05777e-05
-3.03399e-05
-0.000959879
0.0010688
-3.12446e-05
-3.08818e-05
-0.00119072
0.00132789
-3.10026e-05
-3.12281e-05
-0.0014804
0.00164815
-3.08972e-05
-3.07674e-05
-0.00182555
0.00201673
-4.95553e-05
-3.49836e-05
-0.00219495
0.00236355
-8.19411e-05
-5.91047e-05
-1.05783e-05
5.27007e-06
-0.000238477
1.60752e-05