/*--------------------------------*- C++ -*----------------------------------*\
| =========                 |                                                 |
| \\      /  F ield         | OpenFOAM: The Open Source CFD Toolbox           |
|  \\    /   O peration     | Version:  2212                                  |
|   \\  /    A nd           | Website:  www.openfoam.com                      |
|    \\/     M anipulation  |                                                 |
\*---------------------------------------------------------------------------*/
FoamFile
{
    version     2.0;
    format      ascii;
    arch        "LSB;label=32;scalar=64";
    class       volVectorField;
    location    "0.00429";
    object      U;
}
// * * * * * * * * * * * * * * * * * * * * * * * * * * * * * * * * * * * * * //

dimensions      [0 1 -1 0 0 0 0];

internalField   nonuniform List<vector> 
2681
(
(-0.548124 0.616606 -1.94228e-18)
(0.59199 -11.6809 0)
(-0.00247165 -11.5708 -2.891e-18)
(0.296661 0.106926 -8.5915e-18)
(-0.544356 -20.6385 2.01571e-18)
(-0.225802 -12.679 5.01487e-18)
(-0.12735 0.057398 -2.13691e-18)
(-0.292105 0.0976512 2.77842e-19)
(-0.315001 0.119635 5.50884e-19)
(-0.327277 0.1289 -1.38686e-19)
(0.276588 0.097441 0)
(0.355991 0.240005 -1.47312e-19)
(0.357184 0.22052 -1.43034e-19)
(-0.414902 0.436817 0)
(0.374099 0.260377 -6.53781e-19)
(-0.408126 0.28981 1.07117e-18)
(-0.419792 0.362959 0)
(0.306424 0.117738 -6.84675e-19)
(0.318128 0.127332 3.03436e-18)
(0.33536 0.138965 -3.50531e-18)
(0.347363 0.153772 -1.12867e-17)
(0.3713 0.198958 8.3109e-19)
(0.365958 0.183516 -3.32016e-18)
(0.358833 0.169473 2.23676e-18)
(0.374149 0.231723 -1.24102e-18)
(0.374952 0.216066 0)
(0.2963 0.120109 -2.60136e-18)
(0.270389 0.102381 2.43745e-19)
(0.280664 0.109453 1.10738e-18)
(0.318952 0.136932 1.32789e-18)
(0.308482 0.128733 -6.27784e-19)
(0.338811 0.164672 1.3017e-18)
(0.329109 0.151192 -1.13602e-18)
(0.352739 0.188879 5.75546e-19)
(0.3471 0.176145 0)
(0.355884 0.203507 -8.52125e-19)
(-0.369456 0.171027 2.1524e-18)
(-0.377898 0.195229 2.57944e-19)
(-0.381027 0.220266 -5.14349e-19)
(-0.361188 0.215875 -5.21378e-19)
(-0.350024 0.239111 9.59974e-19)
(-0.357462 0.182551 0)
(-0.360457 0.197434 -2.72184e-19)
(-0.345545 0.148734 0)
(-0.352706 0.165066 0)
(0.253813 -13.4275 0)
(-0.33911 0.139533 1.40502e-19)
(-0.301366 0.111996 -1.09492e-18)
(0.239037 0.084141 0)
(-0.270933 0.0991785 -2.78251e-19)
(-0.286823 0.105387 1.76409e-23)
(-0.379717 0.245075 2.04787e-18)
(-0.430854 0.330075 1.53095e-19)
(-0.297707 0.0914937 -2.77216e-19)
(-0.280034 0.0850611 5.64103e-19)
(0.340763 0.220691 1.42919e-19)
(0.337487 0.238391 -4.29449e-19)
(0.250201 0.0940669 -2.89478e-19)
(-0.253684 0.093045 0)
(-0.265319 0.105212 5.52182e-19)
(-0.248169 0.0980449 1.38461e-19)
(0.330187 0.123605 0)
(0.313767 0.112592 2.43367e-18)
(0.358572 0.14999 2.89075e-18)
(0.342093 0.135733 -4.95485e-19)
(0.380032 0.176133 -5.78069e-23)
(0.370856 0.161783 0)
(0.390904 0.214297 0)
(0.387423 0.193056 5.32055e-19)
(0.0867004 0.018358 0)
(0.401701 0.239281 1.09789e-18)
(-0.403641 0.232461 2.503e-19)
(-0.407027 0.260189 -9.01605e-19)
(-0.38748 0.184174 -1.61128e-18)
(-0.396894 0.206036 -4.82772e-19)
(0.353941 0.261302 5.92985e-19)
(0.0237715 -0.000751784 0)
(-0.445202 0.386507 7.57372e-18)
(0.0842545 -16.8502 4.91853e-18)
(0.286449 0.120755 1.19374e-18)
(0.259156 0.102936 -6.64861e-19)
(0.273651 0.112477 1.68976e-18)
(0.308269 0.140335 0)
(0.298129 0.129941 1.23865e-18)
(0.326583 0.16232 1.24665e-18)
(0.317961 0.151295 -1.19985e-19)
(0.339224 0.189943 0)
(0.333983 0.175893 -5.97424e-19)
(0.341352 0.204737 8.59809e-19)
(-0.338682 0.21623 0)
(-0.339125 0.235661 0)
(-0.34362 0.184413 1.15014e-18)
(-0.342853 0.199481 -1.13104e-18)
(-0.335136 0.160598 2.90526e-19)
(-0.341021 0.173359 0)
(-0.318398 0.137491 0)
(-0.328308 0.148332 -2.81965e-19)
(-0.294874 0.119915 0)
(-0.307391 0.128092 0)
(-0.280862 0.112448 5.48654e-19)
(-0.262001 0.0796079 -7.07725e-20)
(-0.25813 0.0864329 7.06651e-20)
(0.33253 0.258187 5.66046e-19)
(0.394225 0.268232 4.58992e-18)
(0.370835 0.286849 0)
(-0.380788 0.274123 -2.079e-18)
(0.241651 0.0950904 0)
(-0.258443 0.107979 -1.37063e-19)
(-0.241459 0.0998963 -6.85091e-19)
(0.423593 0.27159 -6.75535e-18)
(0.421304 0.302248 4.41208e-18)
(0.392047 0.302663 0)
(-0.404223 0.319383 0)
(-0.309596 0.25443 -1.9755e-18)
(-0.322858 0.264194 4.41069e-18)
(-0.300188 0.274472 4.87272e-18)
(-0.266089 0.0739887 -5.62144e-19)
(-0.243017 0.0748467 1.14255e-18)
(-0.246293 0.0689843 5.72891e-19)
(0.266698 0.337794 -2.20192e-18)
(0.44006 0.391945 1.36934e-18)
(-0.436483 0.305768 -3.02009e-19)
(0.217934 -33.5702 -1.00019e-17)
(0.325913 0.278662 1.1165e-18)
(0.348676 0.281821 -1.17246e-18)
(-0.353834 0.267318 0)
(0.223248 0.0880725 0)
(0.421685 -11.8465 7.32168e-18)
(0.231536 0.0871433 4.9162e-20)
(-0.128124 0.709393 0)
(-0.397347 0.495134 2.30776e-18)
(0.30438 0.0979413 3.17687e-18)
(0.284343 0.0911277 -1.03257e-18)
(0.340215 0.117139 -2.6535e-19)
(0.322906 0.106747 2.71405e-19)
(0.370101 0.139849 -1.52011e-18)
(0.355444 0.127984 5.17892e-19)
(0.394472 0.167443 0)
(0.383004 0.15214 1.0196e-18)
(0.414793 0.209246 5.03986e-19)
(0.405171 0.18632 5.80031e-19)
(0.413128 0.237137 9.47995e-19)
(-0.427236 0.245456 2.47586e-19)
(-0.433438 0.275252 -6.05115e-19)
(-0.407583 0.192867 1.20563e-19)
(-0.418597 0.217672 1.95866e-23)
(-0.468699 0.353681 1.0811e-18)
(-0.275546 0.0918042 2.82092e-19)
(-0.000425911 -4.07552 2.38448e-17)
(-0.304651 0.0885272 -2.73853e-19)
(-0.285225 0.080265 0)
(0.249652 0.102212 1.36159e-19)
(0.214871 0.0868569 1.03636e-18)
(0.232838 0.0939175 0)
(0.277017 0.119396 -5.94854e-19)
(0.264515 0.110906 -1.11782e-18)
(0.29756 0.137909 3.05754e-19)
(0.288183 0.128285 -3.00934e-19)
(0.314019 0.159184 -6.02622e-19)
(0.305938 0.148071 5.73537e-19)
(0.325708 0.186372 0)
(0.320756 0.172409 -2.95495e-19)
(0.325165 0.215876 0)
(0.326947 0.200867 -2.84839e-19)
(0.313357 0.249813 -5.52729e-19)
(0.32026 0.232161 0)
(0.422031 0.441874 0)
(0.304868 0.269016 1.07288e-18)
(-0.324953 0.220025 -5.71731e-19)
(-0.317154 0.233925 1.24041e-18)
(-0.329337 0.191592 -5.67576e-19)
(-0.328512 0.205595 1.14543e-18)
(-0.323465 0.166909 -2.84697e-19)
(-0.327276 0.179184 0)
(-0.309061 0.144056 6.815e-20)
(-0.317447 0.155045 0)
(-0.287302 0.124873 -1.08594e-18)
(-0.298857 0.134001 6.11451e-19)
(-0.27374 0.116263 5.46777e-19)
(-0.235157 0.0869672 4.20534e-19)
(-0.223145 0.0921193 1.35869e-18)
(-0.229677 0.0910064 1.37596e-19)
(-0.239501 0.0811746 -5.65136e-19)
(-0.114964 0.0448377 2.3761e-18)
(0.22746 0.0678041 -3.33789e-18)
(0.230026 0.0616212 -6.75445e-18)
(-0.464768 0.31311 -8.92329e-19)
(0.416602 0.339769 -2.37355e-18)
(0.406965 0.378007 1.2395e-18)
(0.364745 0.307985 2.38972e-18)
(0.31494 0.301464 -3.34563e-18)
(-0.375924 0.303835 0)
(0.205773 0.0832348 1.94242e-18)
(-0.317186 0.294252 -2.1964e-18)
(-0.289979 0.294726 2.20643e-18)
(-0.271174 0.0695674 5.59796e-19)
(-0.250042 0.0639128 -7.08498e-19)
(0.38311 0.333855 1.18122e-18)
(-0.395592 0.348141 2.45424e-18)
(0.204575 0.0816868 0)
(0.197019 0.0803727 -5.15503e-19)
(0.231312 -34.3634 3.18498e-21)
(0.210076 -38.5672 -4.16663e-21)
(-0.187905 -38.5643 -3.38719e-20)
(-0.208792 -34.3605 3.41497e-20)
(-0.203822 0.0848295 -5.40384e-19)
(-0.21606 0.0899384 -5.37817e-19)
(-0.197213 0.0824797 0)
(0.231388 0.30777 5.39244e-18)
(0.451174 0.341353 0)
(-0.131318 0.0471374 -2.54025e-18)
(0.223307 0.0731939 1.09108e-18)
(-0.184531 0.908188 -1.01699e-17)
(-0.196137 -14.3985 6.84836e-18)
(-0.613738 -17.615 -2.85446e-18)
(0.338157 0.306068 0)
(-0.346048 0.295182 0)
(0.21425 -10.3536 1.13831e-17)
(0.212023 0.0807769 -1.11583e-18)
(0.5199 0.494204 4.46467e-18)
(0.270773 0.0785434 -1.03344e-18)
(0.249124 0.0727557 1.05278e-18)
(0.311687 0.0914949 0)
(0.291566 0.0847343 1.04199e-18)
(0.348938 0.108712 2.60893e-19)
(0.33082 0.0992359 -5.25795e-19)
(0.380572 0.128664 5.12133e-19)
(0.365501 0.118273 -5.52501e-23)
(0.409537 0.157047 0)
(0.395064 0.140818 -2.54346e-19)
(0.437056 0.204409 0)
(0.424028 0.177943 -6.37704e-20)
(0.453333 0.267796 -1.01423e-18)
(0.444314 0.233279 0)
(0.456474 0.305694 -5.39854e-19)
(-0.453441 0.24608 4.958e-19)
(-0.462558 0.277924 7.33022e-19)
(-0.428306 0.195368 -6.13375e-19)
(-0.441412 0.21853 -4.87607e-19)
(-0.399732 0.154258 1.27232e-19)
(-0.414813 0.174172 3.1031e-19)
(-0.359466 0.116486 -6.57881e-20)
(-0.381255 0.134779 0)
(-0.313764 0.0871568 -5.26205e-19)
(-0.336405 0.100234 6.72762e-19)
(-0.292164 0.0771139 0)
(0.171273 -43.1592 1.04954e-21)
(0.113022 -48.1214 -1.04866e-21)
(0.0432343 -53.4131 -1.64478e-20)
(-0.0287653 -58.8885 5.04488e-20)
(-0.0913904 -64.3225 -2.45561e-20)
(-0.146298 -69.409 -4.02317e-21)
(-0.200472 -73.7886 -7.05849e-20)
(-0.224269 -77.1487 -1.28276e-19)
(-0.221082 -78.9329 -4.08349e-21)
(-0.212171 -79.1227 -6.50863e-20)
(0.245578 -79.1446 0)
(-0.247516 -78.434 1.28438e-19)
(-0.189397 -76.3971 4.4237e-19)
(0.324912 -76.5057 7.55159e-19)
(0.229421 -78.4824 -2.56672e-19)
(0.248062 -77.1509 1.36808e-19)
(0.237317 -78.9435 2.59419e-19)
(0.171414 -69.4073 2.51447e-20)
(0.220527 -73.7853 0)
(0.0568275 -58.8781 1.64413e-20)
(0.120561 -64.3191 -8.62901e-24)
(-0.09131 -48.1149 1.80298e-20)
(-0.0206573 -53.4023 -3.77262e-20)
(-0.149213 -43.1538 -1.04958e-21)
(0.241072 0.0987452 0)
(0.224783 0.0906823 0)
(0.268131 0.115358 5.80233e-19)
(0.255675 0.107046 0)
(0.287603 0.132876 -2.97599e-19)
(0.278773 0.123936 -2.94265e-19)
(0.302178 0.152771 2.99804e-19)
(0.294934 0.142198 -2.62428e-19)
(0.312075 0.178405 -5.75944e-19)
(0.307722 0.165017 -2.91722e-19)
(0.310588 0.206345 0)
(0.312956 0.1923 5.65235e-19)
(0.29645 0.236311 -5.41987e-19)
(0.304572 0.220844 2.75034e-19)
(-0.279126 0.860485 1.04664e-17)
(0.286138 0.253064 7.33162e-19)
(0.260846 0.291208 1.18733e-19)
(-0.26621 0.286713 0)
(-0.274335 0.316398 -8.56333e-18)
(-0.234605 0.332173 -8.58473e-18)
(-0.243321 0.305916 -1.92049e-18)
(-0.292018 0.252878 5.88472e-19)
(-0.279579 0.267634 0)
(-0.310034 0.221184 -5.73032e-19)
(-0.301978 0.236537 -2.94755e-19)
(-0.315939 0.192797 -2.82162e-19)
(-0.314518 0.206811 5.65124e-19)
(-0.311402 0.167757 8.3288e-19)
(-0.314356 0.179928 0)
(-0.298611 0.144786 4.76016e-19)
(-0.305998 0.155907 -2.74986e-19)
(-0.278543 0.124668 -5.41086e-19)
(-0.289441 0.134418 -5.94175e-19)
(-0.250614 0.106503 1.36004e-19)
(-0.265575 0.115389 2.71483e-19)
(-0.233981 0.0979821 1.35719e-19)
(-0.215325 0.081107 -5.59527e-19)
(-0.210064 0.0842836 -5.48656e-19)
(-0.222765 0.070543 -1.78523e-18)
(-0.219476 0.0761607 6.35425e-19)
(-0.228243 0.0595555 5.74377e-19)
(-0.225492 0.06491 0)
(-0.238402 0.797614 0)
(0.337681 0.903597 -5.02049e-18)
(0.353816 0.332849 -1.16651e-18)
(0.300699 0.323405 4.36176e-18)
(-0.304962 0.321051 -4.40816e-18)
(-0.365771 0.333126 -2.32314e-18)
(0.188197 0.077548 -4.87859e-19)
(0.501466 0.375148 4.35947e-18)
(0.237981 -30.4436 4.17756e-21)
(-0.216976 -30.441 0)
(0.201239 0.0797318 -2.25062e-18)
(0.268757 0.931049 0)
(-0.672712 -79.0865 2.61213e-19)
(-0.668915 -78.383 2.58942e-19)
(0.369447 0.366057 -4.79036e-18)
(1.39691 -29.1589 2.80375e-18)
(-0.260159 0.343175 8.77731e-18)
(-0.379675 0.374433 2.5182e-18)
(0.203991 0.0639773 1.15328e-18)
(0.205437 0.0576396 3.82299e-18)
(0.638939 -30.4518 -1.64889e-20)
(0.237831 -26.7723 -5.27675e-21)
(0.64223 -26.763 3.3816e-20)
(-0.18359 0.0783125 -3.37632e-20)
(-0.177468 0.0760412 2.164e-19)
(-0.208992 0.0851232 1.62944e-26)
(-0.190725 0.0779501 0)
(-0.385733 -68.8672 7.08054e-19)
(-0.269385 -68.6072 -4.90284e-19)
(0.213341 0.319797 1.52585e-18)
(0.225261 0.344017 1.67332e-18)
(0.389038 0.411841 0)
(-0.406646 0.399662 2.75341e-18)
(-0.191092 0.338981 1.25114e-18)
(-0.211181 0.356866 -7.19582e-18)
(-0.310399 -13.9688 5.14834e-18)
(0.481058 0.425446 4.81895e-18)
(0.421704 0.556085 4.30892e-18)
(-0.0358016 0.0189986 -4.85253e-18)
(-0.231298 0.0539062 -4.27529e-19)
(-0.205665 0.0561475 -5.76306e-19)
(-0.207835 0.0504354 5.77168e-19)
(0.326465 0.329674 -3.16328e-22)
(-0.336178 0.324613 2.24618e-18)
(0.171443 0.0726654 1.07759e-18)
(0.185283 0.0758861 -5.35569e-19)
(0.178705 0.0747577 1.06516e-18)
(0.196915 0.0725682 1.09665e-18)
(0.191574 0.0750083 -5.10361e-19)
(0.200902 0.0684996 -1.11724e-18)
(0.276274 0.0702322 -5.12006e-19)
(0.251648 0.0638394 4.82015e-19)
(0.318987 0.0828084 0)
(0.298176 0.0763275 5.18744e-19)
(0.356941 0.0980379 -2.59665e-19)
(0.338444 0.0900592 0)
(0.391073 0.116598 2.57513e-19)
(0.374482 0.106591 3.87392e-19)
(0.426432 0.147123 -1.2711e-19)
(0.40817 0.129254 -7.63881e-19)
(0.46249 0.198941 -1.03875e-18)
(0.445675 0.170401 8.89723e-19)
(0.488037 0.272173 1.00958e-18)
(0.476165 0.232014 -1.01128e-18)
(0.492176 0.318731 7.74017e-19)
(-0.390579 0.425709 -2.70112e-18)
(-0.437443 0.47009 -1.02631e-17)
(-0.508382 0.322295 -9.40723e-19)
(-0.489249 0.373537 6.72645e-19)
(-0.481558 0.235215 -9.82856e-19)
(-0.496191 0.275522 1.21109e-18)
(-0.447376 0.180817 0)
(-0.464075 0.203964 4.83238e-19)
(-0.415482 0.145915 1.27098e-19)
(-0.431727 0.162131 -6.24394e-20)
(-0.37424 0.114212 2.58139e-19)
(-0.39677 0.130137 0)
(-0.324572 0.0849447 -1.68464e-20)
(-0.349566 0.0987317 -2.62467e-19)
(-0.277251 0.0648605 5.58013e-19)
(-0.300624 0.0736443 -6.80892e-19)
(-0.254397 0.0585395 4.22339e-19)
(0.540408 -38.6315 0)
(0.606531 -34.3974 -1.7739e-20)
(0.301005 -48.2447 0)
(0.437041 -43.2548 0)
(-0.0376263 -59.0359 5.2973e-22)
(0.140821 -53.554 -5.23624e-22)
(-0.400519 -69.5227 -1.6868e-20)
(-0.227708 -64.4627 3.66845e-21)
(-0.641972 -77.1819 0)
(-0.542756 -73.8658 1.49645e-19)
(-0.691368 -78.9198 -2.63757e-19)
(-0.617925 -30.4482 -3.38549e-20)
(-0.622346 -26.7621 -3.34437e-20)
(-0.21715 -26.7706 9.41138e-21)
(-0.539667 -45.9153 2.55697e-18)
(1.38692 -48.5846 1.77376e-18)
(0.611714 0.820453 4.32152e-18)
(0.629511 -76.5668 -1.13933e-18)
(1.00558 -70.2106 -8.65603e-19)
(0.64489 -79.1276 -2.62042e-19)
(0.671984 -78.4748 0)
(0.64077 -77.1856 -1.32723e-19)
(0.663627 -78.9371 -1.32116e-19)
(0.427396 -69.5121 -4.94588e-20)
(0.566293 -73.8641 -1.64834e-20)
(0.0586675 -59.0133 -2.49201e-20)
(0.243806 -64.4449 5.0524e-20)
(-0.278082 -48.2253 -2.09874e-21)
(-0.115177 -53.5331 2.11554e-20)
(-0.520526 -38.6208 1.74858e-20)
(-0.416152 -43.2385 -1.55902e-20)
(-0.586896 -34.3905 3.31247e-20)
(0.233001 0.0934971 -2.83269e-19)
(0.217979 0.0865739 5.60975e-19)
(0.25921 0.108823 -1.4453e-19)
(0.246929 0.10094 -2.84514e-19)
(0.278289 0.125423 1.46358e-19)
(0.269709 0.117037 -7.28563e-20)
(0.291053 0.143325 -2.88186e-19)
(0.285234 0.133954 2.64177e-19)
(0.29885 0.166262 -2.86056e-19)
(0.29562 0.15417 0)
(0.297074 0.192249 0)
(0.299728 0.17927 0)
(0.281786 0.218512 -3.37285e-19)
(0.290875 0.205246 6.83644e-20)
(0.25781 0.247595 -5.19051e-19)
(0.270819 0.232785 -4.62916e-23)
(0.222582 0.276297 -1.60147e-18)
(0.24295 0.261339 9.02903e-19)
(0.185584 0.334367 -5.83579e-19)
(0.17401 0.301744 5.57266e-19)
(0.199446 0.289085 0)
(-0.157948 0.355517 4.13201e-18)
(-0.149456 0.324233 -7.57648e-19)
(-0.0898711 0.369556 2.64289e-18)
(-0.0864052 0.335181 3.0715e-19)
(-0.113017 0.332482 1.11029e-18)
(-0.199657 0.301062 3.8045e-18)
(-0.176445 0.311262 1.14985e-18)
(-0.245327 0.26992 -1.56189e-18)
(-0.229609 0.287758 1.1803e-19)
(-0.275009 0.24022 1.40237e-18)
(-0.261412 0.254276 1.09638e-18)
(-0.295467 0.212659 -2.80873e-19)
(-0.286608 0.226417 -8.49946e-19)
(-0.302573 0.1855 2.78494e-19)
(-0.300679 0.198995 5.60336e-19)
(-0.299233 0.16107 -4.12017e-19)
(-0.301868 0.172918 6.92452e-19)
(-0.288015 0.139139 0)
(-0.294603 0.149809 -4.10061e-19)
(-0.269353 0.119328 0)
(-0.279632 0.129007 -1.69523e-20)
(-0.24247 0.101222 -3.38356e-19)
(-0.256928 0.11005 2.7046e-19)
(-0.226403 0.0928952 1.34947e-19)
(-0.194221 0.0756487 -1.74181e-20)
(-0.189321 0.078105 7.68068e-20)
(-0.201095 0.0666088 4.99379e-19)
(-0.19808 0.0715425 -4.83095e-19)
(-0.20347 0.0614182 0)
(0.287052 -11.9012 -1.04995e-17)
(0.546217 0.632829 -1.11329e-17)
(-0.635434 -76.3508 -8.50576e-23)
(0.338071 0.359384 2.346e-18)
(0.286861 0.348352 4.50215e-18)
(-0.289684 0.348459 0)
(-0.350201 0.361272 -7.14578e-18)
(0.206978 0.0522527 -3.43696e-19)
(-0.0444182 -9.30114 -2.49767e-17)
(0.441647 0.485076 -2.36284e-18)
(-0.137362 0.378184 -4.48155e-18)
(0.962894 -30.4658 3.38422e-20)
(0.988389 -26.7606 1.05006e-21)
(0.153097 0.0678816 -1.37845e-18)
(0.366936 0.842756 5.72826e-18)
(0.179333 0.0714581 9.2117e-18)
(0.162352 0.0675535 -9.93884e-24)
(0.145459 0.0638713 0)
(-0.171244 0.0718801 7.70732e-19)
(-0.234635 0.0473726 -7.06637e-19)
(-0.210068 0.0439909 1.98043e-23)
(0.531188 -47.627 -3.69946e-18)
(-0.458985 0.52292 4.36029e-18)
(-0.432664 0.554545 4.33551e-18)
(-0.0303045 -10.9826 5.30023e-18)
(-0.120762 0.0509505 0)
(-1.10977 -79.0696 -5.26568e-19)
(-1.14815 -78.3657 7.51478e-22)
(0.478949 0.527551 4.6857e-18)
(0.551305 0.57283 2.00428e-18)
(0.450352 0.639405 4.45615e-18)
(0.241249 0.360351 -5.00925e-18)
(0.349242 0.398148 0)
(-0.35515 0.402075 0)
(-0.238033 0.368256 0)
(-0.405035 0.528945 1.32122e-17)
(-0.941114 -30.463 1.05029e-21)
(-0.967685 -26.7601 2.10042e-21)
(-0.446859 0.782497 5.3492e-18)
(0.423863 -13.649 -1.93639e-18)
(0.146605 -16.5966 -1.09415e-20)
(0.407332 0.599611 -4.46069e-18)
(0.363081 0.442371 0)
(0.199534 0.362188 -5.99813e-19)
(0.146341 0.314644 0)
(0.156749 0.348938 0)
(-0.0525871 0.34117 1.1428e-18)
(-0.0566115 0.379671 3.05481e-22)
(-0.183882 0.378818 4.51697e-18)
(-0.359383 0.440136 0)
(-0.197838 0.62405 -1.01431e-17)
(-0.503292 -68.9411 -1.48306e-18)
(0.0456231 0.0209646 1.81656e-17)
(0.380574 0.529901 9.56565e-18)
(0.417937 0.697688 6.41741e-18)
(0.310622 0.354385 -2.29127e-18)
(-0.320591 0.352975 0)
(0.165122 0.0707294 7.5979e-24)
(0.159367 0.0697931 -8.12599e-19)
(0.17489 0.067987 -5.4791e-19)
(0.170382 0.0700163 4.22182e-21)
(0.180973 0.0603564 0)
(0.178321 0.0644922 5.6259e-19)
(0.18484 0.0492023 0)
(0.182999 0.0549148 -1.21934e-18)
(0.187615 0.04282 0)
(0.2338 0.051521 1.41183e-23)
(0.212781 0.0464484 -3.23643e-19)
(0.282214 0.0612354 0)
(0.257566 0.0567403 -2.39767e-18)
(0.325626 0.0723522 1.39203e-19)
(0.304469 0.0666066 -1.38434e-19)
(0.364061 0.0852782 -2.59963e-19)
(0.345242 0.0784654 1.30079e-19)
(0.40176 0.102744 0)
(0.382637 0.0928151 9.24292e-24)
(0.445532 0.13576 7.65818e-19)
(0.422547 0.116569 1.28178e-19)
(0.491822 0.191844 -1.60584e-20)
(0.469689 0.160866 -3.83661e-19)
(0.530196 0.273994 -9.96809e-19)
(0.512764 0.229198 0)
(0.531562 0.381746 1.38436e-18)
(0.544922 0.325166 7.35181e-19)
(0.544334 0.449724 -3.73739e-18)
(-0.519099 0.414234 1.75043e-18)
(-0.493525 0.471533 -3.59778e-18)
(-0.552057 0.308674 0)
(-0.548549 0.359343 -1.59987e-18)
(-0.514455 0.210627 4.74913e-19)
(-0.53787 0.255634 0)
(-0.465176 0.151176 -2.45233e-19)
(-0.48854 0.175523 0)
(-0.42669 0.122344 0)
(-0.44484 0.134361 0)
(-0.386273 0.101866 5.13683e-19)
(-0.408034 0.11237 -5.08934e-19)
(-0.335645 0.0782522 2.67039e-19)
(-0.361758 0.0901975 1.29466e-19)
(-0.284197 0.058928 -2.75893e-19)
(-0.309698 0.0675696 -6.75847e-19)
(-0.259356 0.0522174 5.57167e-19)
(0.821751 -38.7255 -1.4852e-20)
(0.910758 -34.4466 -3.12596e-20)
(0.492781 -48.4232 1.69691e-20)
(0.684558 -43.3948 2.0821e-20)
(-0.032907 -59.2567 0)
(0.247403 -53.7595 -1.65649e-20)
(-0.595345 -69.7104 -3.37666e-20)
(-0.31801 -64.6824 -2.08603e-21)
(-1.018 -77.2506 -1.33508e-19)
(-0.838938 -74.0002 -6.70238e-20)
(-1.11031 -78.9276 3.96835e-19)
(0.237803 -23.2814 0)
(-0.616224 -23.2633 3.16664e-20)
(-0.218543 -23.2797 -2.30643e-20)
(-0.100996 0.397427 -2.45181e-18)
(1.01238 -23.2499 -2.09979e-21)
(0.636388 -23.262 2.09803e-21)
(0.535158 -25.6028 0)
(0.524693 -20.5198 3.09936e-18)
(-0.481919 -54.1054 -9.78181e-19)
(0.466567 -36.0778 2.85723e-18)
(0.954939 -76.49 -9.09405e-19)
(0.99838 -70.9211 1.3261e-18)
(1.09179 -79.0515 1.32028e-19)
(1.12042 -78.3472 1.31531e-19)
(1.02862 -77.2284 -1.32506e-19)
(1.11801 -78.903 -6.86565e-22)
(0.606394 -69.7055 -6.73898e-20)
(0.84659 -73.9944 2.66961e-19)
(0.0532738 -59.2343 -8.06722e-21)
(0.342141 -64.6628 -8.26108e-21)
(-0.472514 -48.4062 -1.4596e-20)
(-0.230686 -53.7428 1.69768e-20)
(-0.800207 -38.7142 1.66592e-20)
(-0.663222 -43.379 7.43809e-21)
(-0.888265 -34.4403 -1.69467e-20)
(0.16954 0.0653684 4.20559e-18)
(0.138596 0.0590627 2.4164e-18)
(0.155085 0.0625227 -7.36724e-18)
(0.198233 0.0747783 -3.22235e-19)
(0.184049 0.0693562 -1.0408e-18)
(0.225868 0.0861861 -1.26765e-19)
(0.212281 0.0803037 4.42617e-19)
(0.250696 0.100005 7.21665e-20)
(0.238833 0.0927994 -1.79556e-20)
(0.269674 0.115484 7.63752e-20)
(0.261109 0.107665 1.68147e-25)
(0.281311 0.131576 -7.13302e-20)
(0.276393 0.123312 -8.94055e-21)
(0.287073 0.151132 4.22564e-19)
(0.284922 0.14078 1.42186e-19)
(0.284731 0.174339 1.37348e-19)
(0.28741 0.162568 -1.77987e-24)
(0.269577 0.197538 3.37469e-19)
(0.27876 0.186 -4.09672e-19)
(0.245041 0.2219 6.57883e-20)
(0.258209 0.209573 -4.69644e-19)
(0.210969 0.245961 -1.86048e-18)
(0.229673 0.234257 3.96002e-19)
(0.164118 0.267138 -5.43527e-19)
(0.188521 0.25644 1.08143e-18)
(0.116682 0.326158 0)
(0.109388 0.287266 -5.38094e-19)
(0.137771 0.277701 5.41433e-19)
(0.0793797 0.295346 0)
(0.0475416 0.300937 -1.32274e-19)
(-0.0190702 0.345876 0)
(-0.0187069 0.303186 2.70994e-19)
(0.0146744 0.303942 0)
(-0.0814709 0.295006 -3.52007e-20)
(-0.0506482 0.29931 2.77936e-19)
(-0.139663 0.283158 0)
(-0.111204 0.289802 3.43342e-20)
(-0.191658 0.26741 7.93657e-19)
(-0.16605 0.275821 -1.3472e-19)
(-0.231566 0.243947 1.77115e-23)
(-0.213927 0.255635 5.16404e-19)
(-0.26088 0.218871 -2.74153e-19)
(-0.247105 0.231211 0)
(-0.281651 0.194646 2.78098e-19)
(-0.272589 0.206821 -5.56375e-19)
(-0.290009 0.17045 1.37622e-19)
(-0.287432 0.182502 1.38575e-19)
(-0.287961 0.148354 -6.82405e-19)
(-0.289981 0.159045 4.11892e-19)
(-0.277993 0.12843 -2.71002e-19)
(-0.283967 0.138182 4.0846e-19)
(-0.260425 0.109973 0)
(-0.270177 0.119031 0)
(-0.234661 0.0930054 6.07775e-19)
(-0.248521 0.101251 -2.02473e-19)
(-0.202857 0.0784233 1.63663e-24)
(-0.219395 0.0854073 -2.69413e-19)
(-0.16482 0.0655973 -9.53575e-19)
(-0.185276 0.0718704 1.04618e-18)
(-0.15201 0.0664487 7.74791e-19)
(-0.145994 0.0610689 1.44537e-18)
(-0.162697 0.072493 6.78778e-20)
(-0.157394 0.0704018 -3.82721e-19)
(-0.172097 0.070686 -3.47585e-20)
(-0.167735 0.072539 3.75726e-19)
(-0.178403 0.063054 -7.10024e-20)
(-0.175631 0.0673203 5.60448e-19)
(-0.182387 0.0532988 0)
(-0.180526 0.0583273 7.15222e-20)
(-0.185659 0.0415126 5.23588e-19)
(-0.184088 0.0477479 -5.40794e-19)
(-0.152649 -10.2418 -5.1633e-18)
(0.0733147 -29.4118 -4.20324e-18)
(-0.394585 0.170211 -9.78691e-19)
(0.609585 0.481876 9.07869e-18)
(-1.02364 -76.3608 -5.20894e-19)
(0.280188 0.952035 9.52369e-18)
(0.395794 0.644032 -5.19838e-18)
(0.363141 0.776007 -7.37968e-22)
(0.254803 0.820142 6.90666e-18)
(0.2929 0.760124 -7.24471e-18)
(0.264072 0.371506 2.32555e-18)
(0.317179 0.386672 -2.31144e-18)
(0.0159206 0.346557 -5.30002e-19)
(0.0850144 0.335905 3.5445e-23)
(-0.326818 0.387307 9.74654e-18)
(-0.267602 0.37457 0)
(-0.372222 0.557391 -1.43803e-17)
(0.552932 0.506054 -3.75749e-18)
(-0.511367 0.569707 -8.47746e-19)
(0.0621959 0.0280556 -4.42888e-18)
(-0.0989141 0.819276 -1.58863e-17)
(-0.516616 0.510274 2.55206e-19)
(-0.583284 0.396189 1.83412e-18)
(-0.994716 -23.2519 -3.34466e-20)
(-0.627202 -12.7384 2.70653e-18)
(-0.0737626 -15.9624 1.66156e-20)
(0.121628 0.0557225 5.95452e-19)
(0.115955 0.0498352 -7.7057e-24)
(0.132409 0.0529705 3.04938e-18)
(-0.0980753 -12.4607 1.20681e-17)
(0.379632 0.631615 -9.78156e-18)
(0.319099 0.432265 0)
(0.216145 0.38141 2.38166e-18)
(0.12579 0.36198 -6.86095e-20)
(-0.0209801 0.38444 0)
(-0.210331 0.392251 6.78281e-22)
(-0.325591 0.428242 -7.84929e-18)
(-0.352765 0.521669 -5.17223e-18)
(0.160931 0.0462661 -4.50742e-19)
(0.162856 0.0404131 1.50396e-19)
(-0.279012 -47.8845 5.19927e-19)
(0.504773 0.753617 2.6434e-18)
(0.151972 -1.78417 -6.30528e-18)
(-0.115793 -11.1561 1.53596e-17)
(-0.155268 0.40122 0)
(0.179286 0.804619 5.99528e-18)
(-0.11926 -15.59 -1.29942e-17)
(-0.604818 -14.8929 -3.9392e-18)
(0.342646 0.580348 -9.91143e-18)
(-0.721087 -23.4568 3.31092e-19)
(0.321189 0.481861 -1.50419e-17)
(0.169677 0.377915 5.69335e-19)
(-0.0632335 0.411146 -2.21126e-18)
(-0.325878 0.475318 -3.03254e-18)
(-0.161311 0.0396736 7.24175e-20)
(-0.187087 0.0348139 -2.70534e-19)
(-0.162189 0.0333697 2.17141e-19)
(1.01612 -19.782 0)
(1.2765 -23.2773 3.37757e-20)
(1.32329 -19.8061 0)
(-0.813669 -69.2543 2.06719e-18)
(-0.132529 0.0619969 2.66372e-19)
(0.30781 0.551196 -2.03508e-21)
(-0.108416 0.623675 -4.64618e-18)
(0.332499 0.706807 -3.3813e-18)
(-0.348196 0.136962 -1.0891e-18)
(-0.372175 0.160963 7.04645e-19)
(0.28899 0.379556 2.28996e-18)
(0.0510403 0.342936 6.61699e-19)
(-0.297676 0.379083 -4.67112e-18)
(-0.348297 0.613609 1.54211e-21)
(0.134005 0.0637205 1.11943e-18)
(0.127765 0.0603925 -5.75464e-19)
(0.144118 0.0663526 4.75916e-19)
(0.13929 0.0655615 0)
(0.152243 0.0639464 -2.96701e-24)
(0.148444 0.0657726 -2.04047e-19)
(0.157716 0.0568884 0)
(0.155309 0.0608442 -2.7923e-19)
(0.159591 0.0518591 -2.9518e-19)
(0.190205 0.0358924 3.01649e-19)
(0.240139 0.0425334 2.25416e-18)
(0.215907 0.0388481 0)
(0.287643 0.0510067 -1.21161e-23)
(0.264161 0.0468822 -2.64461e-19)
(0.331008 0.0603808 -8.23558e-21)
(0.309816 0.0556123 1.35798e-19)
(0.370347 0.0710204 6.51826e-20)
(0.350933 0.0654316 1.35084e-19)
(0.412859 0.0880153 6.45778e-20)
(0.39054 0.078126 -4.52678e-19)
(0.466343 0.123456 -7.6766e-19)
(0.438072 0.102513 3.87337e-19)
(0.523073 0.182177 2.09736e-18)
(0.495573 0.150372 -1.02581e-18)
(0.574525 0.265984 0)
(0.550031 0.220185 -1.01188e-18)
(0.595088 0.37276 1.43823e-18)
(0.591873 0.319517 0)
(0.575069 0.435098 3.56509e-18)
(0.0422037 0.825834 -5.59108e-18)
(-0.559318 0.451603 7.4448e-22)
(-0.597865 0.291328 0)
(-0.600431 0.34505 0)
(-0.547878 0.191513 -9.62179e-19)
(-0.578175 0.238666 0)
(-0.482092 0.124172 -1.87548e-23)
(-0.513573 0.152605 1.21795e-18)
(-0.433509 0.0939855 0)
(-0.455135 0.105359 3.11981e-20)
(-0.392902 0.0816082 0)
(-0.413798 0.0871187 1.2735e-19)
(-0.344323 0.066773 -1.31635e-19)
(-0.369899 0.0749486 1.29166e-19)
(-0.290826 0.0506371 0)
(-0.317704 0.058265 5.37138e-19)
(-0.237972 0.0400371 3.50314e-19)
(-0.264229 0.0445273 -1.38372e-19)
(-0.212234 0.0369399 -3.03786e-19)
(1.13635 -30.5081 0)
(1.20124 -26.793 -3.44584e-20)
(0.938813 -38.8414 -3.60029e-20)
(1.05086 -34.5183 1.0497e-21)
(0.564781 -48.6693 -2.07861e-20)
(0.778958 -43.5712 4.18011e-20)
(0.00636716 -59.5962 2.93364e-21)
(0.304649 -54.0678 3.3935e-20)
(-0.670863 -70.0084 5.92128e-20)
(-0.32645 -65.0167 -3.51524e-20)
(-1.25159 -77.3968 -2.66281e-19)
(-0.988807 -74.2377 1.35371e-19)
(-1.42527 -79.0549 5.3077e-19)
(-1.40145 -78.9654 -1.33772e-19)
(-1.42173 -76.3446 5.29514e-19)
(-1.43723 -78.3368 -1.58839e-18)
(-0.600917 -19.7966 2.09631e-21)
(-1.25729 -23.2789 0)
(-1.30497 -19.8097 4.19744e-21)
(-1.00237 -19.7855 -6.00378e-21)
(0.229758 -19.8106 2.09613e-21)
(-0.21294 -19.8104 1.68445e-20)
(0.622902 -19.795 -2.09731e-21)
(0.0948989 -24.7464 0)
(0.53711 -19.3622 -2.6515e-18)
(0.616497 -55.2233 -1.13569e-18)
(0.366514 -35.4492 0)
(1.36348 -76.6461 -6.69691e-19)
(1.13435 -71.6524 -2.71909e-19)
(1.43755 -79.0697 3.98899e-19)
(1.47165 -78.3955 1.48784e-19)
(1.2582 -77.3679 6.73136e-20)
(1.41558 -78.9532 -1.32687e-19)
(0.686411 -69.9965 -8.40617e-20)
(1.002 -74.2186 6.61814e-20)
(0.00703015 -59.5783 0)
(0.338614 -65.0023 5.04476e-20)
(-0.548608 -48.6567 8.28473e-21)
(-0.28687 -54.0524 -1.67802e-20)
(-0.919014 -38.832 -2.09972e-21)
(-0.760942 -43.5585 -8.48656e-21)
(-1.11715 -30.5059 -3.39143e-20)
(-1.03117 -34.5132 1.05012e-21)
(-1.18215 -26.7937 3.17104e-20)
(0.163623 0.0597498 0)
(0.148423 0.0563037 1.86797e-18)
(0.192802 0.0671772 -6.24102e-19)
(0.178372 0.0631401 -3.22321e-19)
(0.219572 0.0772111 0)
(0.206599 0.0720296 5.98005e-19)
(0.242984 0.089131 2.90197e-19)
(0.231778 0.0828883 -2.95623e-24)
(0.261668 0.103223 6.71618e-20)
(0.25306 0.0959841 1.42793e-19)
(0.273108 0.117845 1.41911e-19)
(0.268407 0.110481 -1.42146e-19)
(0.277266 0.134235 -1.39724e-19)
(0.276021 0.125647 0)
(0.273718 0.153722 -3.12645e-24)
(0.276745 0.143671 -2.76549e-19)
(0.258958 0.174013 1.51917e-19)
(0.267862 0.163919 4.08944e-19)
(0.234277 0.1943 6.63986e-20)
(0.24752 0.184122 -2.85218e-19)
(0.200365 0.214234 2.65583e-19)
(0.218744 0.204657 -1.33065e-19)
(0.155922 0.231652 0)
(0.179247 0.222899 -1.3389e-19)
(0.103466 0.247615 -5.34048e-19)
(0.130564 0.240009 0)
(0.0447029 0.258259 -1.33488e-19)
(0.0747021 0.253938 5.9989e-19)
(-0.0183346 0.259886 -5.39585e-19)
(0.0133993 0.260564 2.68409e-19)
(-0.0783085 0.253187 -6.86752e-19)
(-0.0489754 0.256973 2.73341e-19)
(-0.133164 0.244419 -2.02674e-19)
(-0.106491 0.249287 3.06976e-19)
(-0.182164 0.231136 -2.00701e-23)
(-0.158352 0.2379 -1.34472e-19)
(-0.22027 0.211893 9.88615e-24)
(-0.20279 0.222182 -1.06084e-18)
(-0.249235 0.190873 -1.08749e-18)
(-0.235613 0.201292 1.08008e-18)
(-0.269825 0.170712 -6.88422e-20)
(-0.26076 0.180806 5.45509e-19)
(-0.278998 0.150558 1.36672e-19)
(-0.275892 0.160603 -1.37441e-19)
(-0.27811 0.1318 -2.71888e-19)
(-0.279597 0.140942 -2.73034e-19)
(-0.268944 0.114407 -3.38326e-20)
(-0.274545 0.12299 2.71595e-19)
(-0.252148 0.097983 -2.22367e-24)
(-0.261504 0.106059 2.70603e-19)
(-0.22748 0.0829881 0)
(-0.240702 0.0902051 -3.71177e-19)
(-0.197438 0.0707943 1.83653e-24)
(-0.213034 0.0765593 -4.05692e-19)
(-0.162721 0.0602852 4.37141e-18)
(-0.181005 0.0655341 -5.42425e-19)
(-0.141598 0.0675277 -6.79589e-20)
(-0.137139 0.0655752 6.71344e-19)
(-0.149588 0.0663428 -2.7669e-19)
(-0.145827 0.0677385 -3.41701e-19)
(-0.155212 0.0598703 5.6574e-19)
(-0.152709 0.0635665 6.97379e-20)
(-0.158796 0.0508198 -1.43853e-19)
(-0.157154 0.055569 7.14126e-19)
(-0.160179 0.0455361 0)
(-0.139001 0.0540102 0)
(0.139497 -3.62104 -1.11956e-17)
(0.700143 -7.63506 -4.42917e-18)
(0.110038 0.0436466 1.21675e-18)
(0.222668 0.765586 -1.20565e-17)
(0.322652 0.683496 1.60686e-17)
(-0.152914 0.778793 1.063e-17)
(0.289369 0.416157 2.34255e-18)
(0.236421 0.394379 -4.65476e-18)
(0.091688 0.373044 -3.35443e-19)
(0.0178718 0.385498 -3.62917e-23)
(-0.23881 0.398943 -4.58044e-18)
(-0.296743 0.410779 -2.46266e-18)
(-0.31634 0.564353 8.0833e-22)
(-0.364951 0.141668 1.8099e-18)
(0.164476 0.034163 0)
(0.637235 0.4488 -4.07383e-18)