/*--------------------------------*- C++ -*----------------------------------*\
| =========                 |                                                 |
| \\      /  F ield         | OpenFOAM: The Open Source CFD Toolbox           |
|  \\    /   O peration     | Version:  2212                                  |
|   \\  /    A nd           | Website:  www.openfoam.com                      |
|    \\/     M anipulation  |                                                 |
\*---------------------------------------------------------------------------*/
FoamFile
{
    version     2.0;
    format      ascii;
    arch        "LSB;label=32;scalar=64";
    class       surfaceScalarField;
    location    "0.0101";
    object      phi;
}
// * * * * * * * * * * * * * * * * * * * * * * * * * * * * * * * * * * * * * //

dimensions      [1 0 -1 0 0 0 0];

oriented        oriented;

internalField   nonuniform List<scalar> 
4475
(
1.63576e-05
-1.68357e-05
2.1814e-05
-2.23518e-05
4.12598e-07
-1.28286e-05
1.22926e-06
9.33492e-06
4.64848e-05
-5.27225e-05
2.59916e-06
3.79879e-06
-5.14673e-06
9.94266e-06
4.4628e-06
-9.34873e-06
-1.2033e-05
1.07781e-05
1.13641e-05
-1.05413e-05
9.43605e-06
-8.24349e-06
-1.0797e-05
9.32113e-06
-2.11717e-06
1.50245e-06
1.46379e-05
-1.43146e-05
-9.42603e-06
-1.17959e-05
1.0907e-05
9.94605e-06
1.1292e-05
-1.28294e-05
-1.10007e-05
-1.18171e-05
8.5358e-08
1.35004e-07
1.02252e-05
-1.58214e-06
3.85728e-07
-1.2122e-05
-1.29811e-05
2.26775e-06
-2.36665e-06
1.16602e-05
-1.34696e-05
8.2567e-07
-1.66556e-06
-1.37564e-05
4.40611e-07
-1.3328e-06
-1.38473e-05
2.69438e-07
-1.17989e-06
-1.37265e-05
1.75716e-07
-1.1084e-06
1.92328e-07
-1.31284e-05
-1.42254e-06
1.29347e-05
-1.02914e-06
-1.25598e-05
1.83369e-07
1.38271e-05
-1.32254e-06
1.39885e-05
-8.28734e-07
1.39146e-05
-6.97373e-07
1.37113e-05
-5.86461e-07
1.35019e-05
-3.96918e-07
1.43494e-05
-2.76477e-07
1.22037e-05
-1.20649e-06
1.12116e-05
-4.9113e-07
1.36812e-05
8.46241e-07
-5.07395e-06
1.25216e-05
-6.63707e-07
-1.28307e-07
1.52173e-05
-1.52809e-05
-2.3939e-06
-1.27482e-05
-1.9153e-06
1.19859e-05
-6.65075e-07
-5.26766e-07
1.16526e-05
-6.29352e-07
-5.86903e-07
1.14714e-05
-6.10719e-07
-5.8807e-07
1.13886e-05
-5.45343e-07
-5.68764e-07
1.14378e-05
-5.38854e-07
-5.20815e-07
1.15671e-05
-4.75877e-07
-4.77402e-07
1.1797e-05
-4.35938e-07
-4.39274e-07
1.21133e-05
-4.09717e-07
-3.84764e-07
1.25032e-05
-3.82506e-07
-3.34471e-07
1.29314e-05
-3.26502e-07
-2.95824e-07
1.34098e-05
-3.04085e-07
-2.55145e-07
1.38969e-05
-2.69021e-07
-2.05979e-07
1.43759e-05
-2.34014e-07
-1.59449e-07
1.48693e-05
-2.34281e-07
-1.17971e-07
-2.59869e-07
1.54089e-05
-9.77274e-08
-1.49026e-05
1.53417e-05
-5.38614e-07
-1.44331e-05
-5.8272e-07
-1.39036e-05
-6.96791e-07
-1.34281e-05
-7.49339e-07
-1.29562e-05
-8.70628e-07
-1.25072e-05
-9.79227e-07
-1.20977e-05
-1.12347e-06
-1.18366e-05
-1.14802e-06
-1.15915e-05
-1.31932e-06
-1.14323e-05
-1.44368e-06
-1.14386e-05
-1.52054e-06
-1.15011e-05
-1.64902e-06
-1.17099e-05
-1.74469e-06
-1.20098e-05
-1.82911e-06
-1.26108e-05
-1.72462e-06
-1.38764e-05
-1.24787e-06
-1.12298e-05
2.45601e-07
-4.50072e-06
-1.19114e-05
-5.68196e-07
-1.16485e-05
-1.1528e-06
-1.19249e-05
-1.88774e-06
1.02602e-06
-1.2903e-05
-2.5447e-06
-1.33071e-05
-2.42145e-06
-1.35403e-05
-2.15328e-06
-1.35997e-05
-2.03002e-06
-1.34041e-05
-2.05768e-06
-1.32311e-05
-2.21104e-06
-1.83132e-07
-5.67775e-08
1.58589e-05
-4.96077e-07
1.58425e-05
1.3676e-05
-2.93708e-06
-1.27357e-05
1.39012e-05
-1.8874e-06
1.39065e-05
-1.71428e-06
1.37709e-05
-1.64437e-06
1.36747e-05
-1.67972e-06
1.36065e-05
-1.75075e-06
1.27408e-05
-1.97288e-06
1.23459e-05
-1.77273e-06
1.27913e-05
-1.31776e-06
1.2441e-05
-1.52461e-06
1.19952e-05
-1.73476e-06
1.16754e-05
-1.78818e-06
1.14825e-05
-1.75101e-06
1.1412e-05
-1.68336e-06
1.14504e-05
-1.56145e-06
1.15754e-05
-1.42446e-06
1.18161e-05
-1.32775e-06
1.21277e-05
-1.1819e-06
1.25092e-05
-1.05388e-06
1.29388e-05
-9.33231e-07
1.34233e-05
-8.36636e-07
1.39173e-05
-7.05935e-07
1.44248e-05
-6.005e-07
1.49206e-05
-4.924e-07
1.53929e-05
-4.088e-07
-1.38439e-06
-1.24951e-05
9.25269e-07
-3.54147e-07
1.58791e-05
-2.93583e-06
-1.15814e-05
-1.28512e-05
-2.79211e-06
-1.53882e-05
1.58814e-05
-8.58099e-07
-1.49476e-05
-8.73859e-07
-1.44194e-05
-1.0425e-06
-1.39702e-05
-1.12783e-06
-1.34661e-05
-1.30076e-06
-1.29919e-05
-1.47414e-06
-1.25664e-05
-1.6337e-06
-1.22413e-05
-1.7952e-06
-1.18906e-05
-1.97781e-06
-1.16551e-05
-2.17837e-06
-1.15519e-05
-2.32558e-06
-1.15057e-05
-2.50481e-06
-1.15798e-05
-2.67186e-06
-1.17656e-05
-2.80552e-06
-1.21095e-05
-2.86932e-06
-1.25187e-05
-2.79862e-06
-1.28168e-05
-2.47589e-06
-1.20597e-05
-1.97132e-06
-1.19213e-05
-2.06922e-06
-1.19879e-05
-2.32725e-06
-1.2224e-05
-2.79701e-06
-1.27153e-05
-3.12545e-06
-1.30759e-05
-3.06863e-06
-1.32567e-05
-2.88156e-06
-1.33634e-05
-2.7095e-06
-1.33102e-05
-2.77595e-06
-1.31272e-05
-2.9539e-06
-1.15346e-05
1.56684e-05
-1.41436e-05
6.96465e-06
-1.17006e-05
-4.80703e-06
9.31209e-06
-8.2668e-06
-6.57889e-06
9.00237e-06
5.65915e-06
7.93526e-06
1.52329e-05
-8.96336e-07
-9.99108e-07
-1.38486e-05
1.3938e-05
-2.29986e-06
1.38741e-05
-2.58094e-06
1.3804e-05
-2.54961e-06
1.37217e-05
-2.63223e-06
1.35847e-05
-2.7755e-06
1.3387e-05
-2.92985e-06
1.29839e-05
-3.04561e-06
1.26148e-05
-2.95674e-06
1.25293e-05
-2.80948e-06
1.22856e-05
-2.86104e-06
1.19706e-05
-2.94181e-06
1.17119e-05
-2.94515e-06
1.15602e-05
-2.87781e-06
1.14816e-05
-2.7296e-06
1.15263e-05
-2.56801e-06
1.16793e-05
-2.37687e-06
1.18902e-05
-2.17896e-06
1.21978e-05
-1.98058e-06
1.25714e-05
-1.78296e-06
1.30283e-05
-1.62614e-06
1.34832e-05
-1.42565e-06
1.39638e-05
-1.23631e-06
1.44822e-05
-1.10122e-06
1.50038e-05
-9.45005e-07
1.54743e-05
-7.7303e-07
1.59024e-05
-6.50534e-07
2.57285e-07
1.63567e-05
-5.63734e-07
4.48377e-08
1.62976e-05
-1.49719e-07
1.62813e-05
-3.90641e-07
1.62895e-05
-1.07417e-05
1.03255e-05
-1.18291e-05
1.63111e-05
-6.72103e-07
-1.36827e-05
-1.35689e-05
1.4795e-05
-1.06901e-05
1.71695e-05
8.587e-06
-1.59695e-05
-3.99175e-06
-1.21925e-05
1.33517e-05
-1.06747e-05
1.42347e-05
-1.76319e-05
1.10958e-05
1.06052e-05
-1.13233e-05
-1.55372e-05
-6.57897e-07
3.31343e-06
-1.30745e-05
-3.29684e-06
2.70911e-07
-4.94237e-07
1.6737e-05
7.10795e-08
1.6713e-05
-9.8079e-08
1.66879e-05
-3.32271e-07
1.67402e-05
-6.03116e-07
1.67403e-05
-1.63945e-05
-9.26735e-07
1.68005e-05
-1.58864e-05
-1.10624e-06
-1.54976e-05
-1.18701e-06
-1.49713e-05
-1.36231e-06
-1.45434e-05
-1.46433e-06
-1.40391e-05
-1.66935e-06
-1.35535e-05
-1.87983e-06
-1.30742e-05
-2.11728e-06
-1.26588e-05
-2.29855e-06
-1.23095e-05
-2.49431e-06
-1.20133e-05
-2.73747e-06
-1.18031e-05
-2.97609e-06
-1.16487e-05
-3.19804e-06
-1.15985e-05
-3.40638e-06
-1.16458e-05
-3.60766e-06
-1.17797e-05
-3.77586e-06
-1.20212e-05
-3.83379e-06
-1.22587e-05
-3.83536e-06
-1.23579e-05
-3.66957e-06
-1.21601e-05
-3.43188e-06
-1.21374e-05
-3.29612e-06
-1.20769e-05
-3.50232e-06
-1.22483e-05
-3.62919e-06
-1.25453e-05
-3.74056e-06
-1.27628e-05
-3.68258e-06
-1.2949e-05
-3.4258e-06
-1.30481e-05
-3.23293e-06
-1.31403e-05
-3.21253e-06
-3.37185e-06
-1.31498e-05
-2.16202e-07
-4.67992e-08
-1.38164e-05
1.37816e-05
1.94118e-05
-2.48954e-05
2.18694e-05
-1.7084e-05
1.07829e-05
-1.04892e-05
1.06917e-05
1.30669e-05
-2.00467e-08
2.17052e-06
1.37387e-05
1.30847e-06
-2.32168e-06
1.39142e-05
1.0457e-06
1.38218e-05
3.73599e-07
-5.35224e-07
1.37368e-05
-3.89565e-07
1.38866e-05
-1.0336e-06
6.01121e-07
1.42704e-05
-1.65132e-06
1.39476e-05
-2.45266e-06
1.37738e-05
-3.00352e-06
1.36793e-05
-3.18779e-06
1.36013e-05
-3.43255e-06
1.34454e-05
-3.64251e-06
1.32598e-05
-3.89668e-06
1.29446e-05
-3.98514e-06
1.26708e-05
-4.01258e-06
1.24826e-05
-3.99074e-06
1.22509e-05
-4.00189e-06
1.19846e-05
-4.00745e-06
1.17629e-05
-3.97338e-06
1.16506e-05
-3.90594e-06
1.1591e-05
-3.68484e-06
1.16559e-05
-3.51114e-06
1.17933e-05
-3.25469e-06
1.20209e-05
-3.01132e-06
1.23195e-05
-2.75573e-06
1.27302e-05
-2.55395e-06
1.3137e-05
-2.29059e-06
1.35789e-05
-2.03685e-06
1.40961e-05
-1.84953e-06
1.46197e-05
-1.6628e-06
1.50952e-05
-1.41432e-06
1.55822e-05
-1.22182e-06
1.60482e-05
-1.05696e-06
1.64802e-05
-9.22845e-07
-8.3945e-07
1.69055e-05
6.06313e-06
5.06675e-05
-4.10436e-05
-1.58244e-05
-1.37846e-05
1.25496e-05
-3.18484e-05
3.1964e-05
9.30119e-06
-9.72711e-06
1.5777e-06
8.91218e-06
-1.03695e-06
-9.32921e-06
-5.17556e-05
-1.12039e-05
2.23049e-05
4.11237e-05
-1.40369e-05
-1.12169e-05
-4.16049e-06
-1.32883e-05
-1.35286e-05
-1.04048e-06
1.42102e-05
-1.63849e-05
1.68221e-05
-1.3524e-06
-1.60245e-05
-1.45874e-06
-1.55205e-05
-1.69135e-06
-1.51375e-05
-1.76078e-06
-1.46381e-05
-2.00266e-06
-1.41574e-05
-2.22203e-06
-1.36897e-05
-2.46349e-06
-1.32575e-05
-2.72194e-06
-1.28661e-05
-2.93117e-06
-1.24888e-05
-3.19359e-06
-1.21871e-05
-3.45203e-06
-1.19611e-05
-3.71375e-06
-1.1792e-05
-3.98299e-06
-1.17325e-05
-4.18871e-06
-1.17452e-05
-4.42152e-06
-1.18557e-05
-4.58645e-06
-1.19745e-05
-4.70892e-06
-1.21215e-05
-4.71836e-06
-1.21666e-05
-4.66139e-06
-1.21165e-05
-4.50254e-06
-1.20974e-05
-4.30754e-06
-1.20625e-05
-4.44012e-06
-1.21927e-05
-4.29747e-06
-1.23784e-05
-4.26583e-06
-1.25215e-05
-4.17293e-06
-1.26372e-05
-3.83991e-06
-1.27321e-05
-3.57517e-06
-1.28156e-05
-3.48564e-06
-1.30232e-05
-3.46284e-06
-3.51607e-06
-1.32959e-05
-1.28882e-05
-1.21006e-05
1.3678e-05
-6.23801e-06
-1.73527e-05
1.59887e-05
6.45249e-06
1.37152e-05
1.09877e-06
-1.53758e-05
1.36395e-05
9.93183e-07
1.35842e-05
8.08717e-07
1.34734e-05
2.58389e-07
1.34516e-05
-5.679e-07
1.35454e-05
-1.31678e-06
1.36797e-05
-2.01491e-06
1.36258e-05
-2.70471e-06
1.34915e-05
-3.27476e-06
1.34772e-05
-3.69533e-06
1.3378e-05
-3.98055e-06
1.32879e-05
-4.32613e-06
1.31094e-05
-4.60965e-06
1.28868e-05
-4.75146e-06
1.26552e-05
-4.84484e-06
1.24472e-05
-4.88758e-06
1.2242e-05
-4.91373e-06
1.20567e-05
-4.91242e-06
1.19105e-05
-4.8637e-06
1.17814e-05
-4.72922e-06
1.17812e-05
-4.53897e-06
1.1821e-05
-4.29744e-06
1.19699e-05
-4.0388e-06
1.21958e-05
-3.76318e-06
1.25475e-05
-3.53046e-06
1.28988e-05
-3.23468e-06
1.3293e-05
-2.93135e-06
1.3778e-05
-2.69805e-06
1.42868e-05
-2.47676e-06
1.47414e-05
-2.19043e-06
1.52127e-05
-1.92499e-06
1.57103e-05
-1.73578e-06
1.61633e-05
-1.51228e-06
1.66107e-05
-1.3655e-06
1.6995e-05
-1.21695e-06
7.48091e-07
-1.1136e-06
1.73662e-05
4.52709e-07
1.72836e-05
2.41182e-07
1.71089e-05
7.48715e-08
1.70982e-05
-1.39508e-07
1.71432e-05
-2.68677e-07
1.70895e-05
-4.7156e-07
1.71063e-05
-7.67152e-07
1.71829e-05
1.72348e-05
-1.16753e-06
-3.34615e-05
-1.03701e-05
1.18998e-05
6.32007e-08
1.41307e-06
-4.67697e-05
4.5499e-05
-1.36078e-05
1.12398e-05
-1.09539e-05
1.31874e-05
-1.78593e-05
-1.09932e-05
1.79887e-05
1.96614e-05
-2.22856e-05
-8.0103e-06
1.21381e-05
1.90669e-05
-1.31863e-05
-3.61756e-06
-3.88516e-06
-1.38918e-05
-1.1875e-05
-1.36378e-05
1.1977e-05
-1.48387e-05
-9.86743e-06
5.96913e-06
-2.23637e-05
1.27113e-05
-1.56572e-05
2.45047e-05
1.01292e-05
1.14085e-05
1.36624e-05
-1.4242e-05
1.14435e-06
1.31465e-05
1.10035e-06
1.30143e-05
6.4302e-07
1.29653e-05
1.09695e-07
1.29825e-05
-7.17081e-07
1.306e-05
-1.49305e-06
1.31445e-05
-2.19971e-06
1.31779e-05
-2.88182e-06
1.31711e-05
-3.48243e-06
1.31501e-05
-3.98013e-06
1.31455e-05
-4.38427e-06
1.30667e-05
-4.76205e-06
1.29319e-05
-5.08961e-06
1.27719e-05
-5.29274e-06
1.25934e-05
-5.43477e-06
1.2422e-05
-5.52695e-06
1.22577e-05
-5.57534e-06
1.21181e-05
-5.58626e-06
1.19891e-05
-5.50998e-06
1.19199e-05
-5.37404e-06
1.19251e-05
-5.18402e-06
1.20164e-05
-4.94799e-06
1.21739e-05
-4.67191e-06
1.24566e-05
-4.43883e-06
1.27558e-05
-4.14448e-06
1.30828e-05
-3.80581e-06
1.35327e-05
-3.56473e-06
1.4012e-05
-3.31084e-06
1.44457e-05
-3.00408e-06
1.49006e-05
-2.70915e-06
1.54082e-05
-2.47685e-06
1.58378e-05
-2.19869e-06
1.63041e-05
-2.00865e-06
1.6743e-05
-1.83688e-06
1.7134e-05
-1.64671e-06
1.7481e-05
-1.50786e-06
1.02069e-06
-1.39654e-06
1.78002e-05
6.7805e-07
1.77111e-05
4.6574e-07
1.75776e-05
1.68984e-07
1.75661e-05
-1.19883e-08
1.7499e-05
-9.77336e-08
1.74663e-05
-2.38513e-07
1.74497e-05
-4.74392e-07
1.75065e-05
-7.07094e-07
1.75035e-05
-1.0304e-06
1.75694e-05
-1.72396e-05
1.75748e-05
-1.41124e-06
-1.68812e-05
-1.56456e-06
-1.65288e-05
-1.73714e-06
-1.61123e-05
-1.90303e-06
-1.57407e-05
-2.09027e-06
-1.52391e-05
-2.29444e-06
-1.47776e-05
-2.5083e-06
-1.43171e-05
-2.74682e-06
-1.38532e-05
-3.0213e-06
-1.3465e-05
-3.24389e-06
-1.30655e-05
-3.51459e-06
-1.27116e-05
-3.79136e-06
-1.23987e-05
-4.07706e-06
-1.2172e-05
-4.32744e-06
-1.20055e-05
-4.61599e-06
-1.18994e-05
-4.84287e-06
-1.18754e-05
-5.07097e-06
-1.19148e-05
-5.24227e-06
-1.19949e-05
-5.37184e-06
-1.20538e-05
-5.41403e-06
-1.21131e-05
-5.37445e-06
-1.2128e-05
-5.25287e-06
-1.21459e-05
-5.01611e-06
-1.21027e-05
-5.13242e-06
-1.22156e-05
-4.75747e-06
-1.2229e-05
-4.73454e-06
-1.22827e-05
-4.53016e-06
-1.23232e-05
-4.12029e-06
-1.23708e-05
-3.77884e-06
-1.2508e-05
-3.54686e-06
-3.50269e-06
-1.26389e-05
-1.37428e-05
-1.29457e-05
1.39023e-05
-3.75548e-06
-1.3563e-05
-1.58474e-05
-3.44942e-06
5.0886e-06
-1.13053e-08
-1.21328e-05
-1.53021e-05
1.67607e-05
-1.61576e-05
-1.14491e-05
1.52763e-05
-1.05101e-05
-9.68023e-06
1.28058e-05
-1.6174e-05
-7.4249e-06
1.59279e-05
1.28751e-06
9.21388e-07
1.41665e-05
1.10683e-06
-1.46769e-05
1.31877e-05
1.54682e-06
1.26341e-05
1.21362e-06
1.23574e-05
6.32878e-07
1.23508e-05
-4.76585e-08
1.23888e-05
-8.30974e-07
1.24933e-05
-1.61639e-06
1.25696e-05
-2.26348e-06
1.26645e-05
-2.97449e-06
1.27295e-05
-3.5882e-06
1.27758e-05
-4.13136e-06
1.28128e-05
-4.60229e-06
1.27853e-05
-4.99698e-06
1.27077e-05
-5.35341e-06
1.26018e-05
-5.59875e-06
1.24956e-05
-5.79537e-06
1.238e-05
-5.91426e-06
1.22568e-05
-5.9698e-06
1.21577e-05
-5.99772e-06
1.20847e-05
-5.92039e-06
1.2063e-05
-5.79348e-06
1.21076e-05
-5.61453e-06
1.22269e-05
-5.394e-06
1.24345e-05
-5.14506e-06
1.2681e-05
-4.89023e-06
1.29578e-05
-4.57009e-06
1.33699e-05
-4.31866e-06
1.38056e-05
-4.06187e-06
1.42067e-05
-3.7431e-06
1.46349e-05
-3.44249e-06
1.51261e-05
-3.19866e-06
1.5546e-05
-2.89134e-06
1.60349e-05
-2.68566e-06
1.64918e-05
-2.47318e-06
1.68712e-05
-2.23833e-06
1.72619e-05
-2.07679e-06
1.7618e-05
-1.92213e-06
1.79307e-05
-1.78648e-06
1.33263e-06
1.81852e-05
-1.68313e-06
9.91512e-07
1.80744e-05
6.7351e-07
1.80264e-05
4.01135e-07
1.79288e-05
2.58615e-07
1.78663e-05
6.50492e-08
1.79077e-05
-8.858e-08
1.78556e-05
-2.68067e-07
1.78458e-05
-4.20601e-07
1.78217e-05
-6.79975e-07
1.78498e-05
-9.39522e-07
1.78371e-05
-1.27069e-06
1.78524e-05
-1.76045e-05
1.78741e-05
-1.6227e-06
-1.7301e-05
-1.78116e-06
-1.69647e-05
-1.95109e-06
-1.66122e-05
-2.12344e-06
-1.62243e-05
-2.3093e-06
-1.58108e-05
-2.50982e-06
-1.53868e-05
-2.71724e-06
-1.49483e-05
-2.94434e-06
-1.45134e-05
-3.18498e-06
-1.41052e-05
-3.44664e-06
-1.36681e-05
-3.72059e-06
-1.3296e-05
-3.95747e-06
-1.29524e-05
-4.24556e-06
-1.26567e-05
-4.53072e-06
-1.24003e-05
-4.79487e-06
-1.22229e-05
-5.0617e-06
-1.20908e-05
-5.30289e-06
-1.20484e-05
-5.49954e-06
-1.20419e-05
-5.68759e-06
-1.20761e-05
-5.80858e-06
-1.21091e-05
-5.85822e-06
-1.21202e-05
-5.83731e-06
-1.2125e-05
-5.72017e-06
-1.20607e-05
-5.52786e-06
-1.21528e-05
-5.43269e-06
-1.20856e-05
-5.13927e-06
-1.21159e-05
-4.95791e-06
-1.20613e-05
-4.77494e-06
-1.2011e-05
-4.2934e-06
-1.19824e-05
-3.88546e-06
-1.202e-05
-3.56147e-06
-3.38646e-06
-1.21881e-05
-1.28297e-05
-3.59167e-06
-1.34318e-05
-1.46652e-05
-1.36061e-05
-1.49155e-05
1.48379e-05
8.6117e-06
2.20724e-05
-2.40641e-05
-6.75923e-06
-1.29944e-05
-3.77149e-06
-1.5394e-05
-6.5886e-06
3.55601e-06
-1.69477e-05
-9.2238e-06
-1.73836e-05
-1.11662e-05
-1.20718e-06
-3.94652e-06
-1.09221e-05
-4.93556e-06
-1.19846e-05
1.39998e-06
-1.37592e-05
-3.49977e-06
-1.30543e-05
-1.60046e-05
-1.66667e-05
-1.32364e-05
1.29593e-06
-1.59488e-06
1.83701e-05
9.51185e-07
1.83415e-05
6.75555e-07
1.82933e-05
4.52247e-07
1.8227e-05
2.352e-07
1.8237e-05
1.08767e-07
1.82446e-05
-6.43327e-08
1.82602e-05
-2.00528e-07
1.81948e-05
-4.00737e-07
1.81813e-05
-5.97528e-07
1.81304e-05
-8.47129e-07
1.80905e-05
-1.16184e-06
1.81049e-05
-1.5171e-06
1.81312e-05
-1.79602e-05
-1.82884e-06
1.81789e-05
-1.7669e-05
-1.98198e-06
-1.7388e-05
-2.10414e-06
-1.70594e-05
-2.29422e-06
-1.67289e-05
-2.44029e-06
-1.63626e-05
-2.63454e-06
-1.5961e-05
-2.84582e-06
-1.55605e-05
-3.0317e-06
-1.51346e-05
-3.26907e-06
-1.47253e-05
-3.484e-06
-1.43203e-05
-3.73922e-06
-1.39337e-05
-4.00057e-06
-1.35336e-05
-4.265e-06
-1.31978e-05
-4.51073e-06
-1.29022e-05
-4.78485e-06
-1.2638e-05
-5.05306e-06
-1.24458e-05
-5.288e-06
-1.23074e-05
-5.51837e-06
-1.22091e-05
-5.71903e-06
-1.21772e-05
-5.87989e-06
-1.21705e-05
-6.00045e-06
-1.21652e-05
-6.05451e-06
-1.21449e-05
-6.03978e-06
-1.20977e-05
-5.94358e-06
-1.20248e-05
-5.767e-06
-1.19044e-05
-5.68342e-06
-1.19639e-05
-5.15483e-06
-1.18239e-05
-5.12403e-06
-1.18409e-05
-4.73992e-06
-1.16653e-05
-4.40917e-06
-1.15482e-05
-3.92626e-06
-1.15355e-05
-3.49829e-06
-3.16498e-06
-1.17016e-05
-3.46353e-06
-1.2394e-05
1.12163e-05
-9.79781e-06
-1.2356e-05
-1.28501e-05
-1.66311e-05
7.3085e-06
-2.80565e-06
3.48908e-06
-8.40837e-06
5.06671e-05
-2.60653e-06
-4.96086e-05
2.01752e-06
1.24538e-05
1.96792e-06
-1.35276e-05
1.19437e-05
1.27193e-06
1.1726e-05
5.60831e-07
1.16848e-05
-1.62005e-07
1.17234e-05
-8.99569e-07
1.1834e-05
-1.67304e-06
1.19625e-05
-2.28932e-06
1.21034e-05
-2.995e-06
1.22307e-05
-3.60919e-06
1.23333e-05
-4.16268e-06
1.24095e-05
-4.65591e-06
1.24645e-05
-5.08258e-06
1.24601e-05
-5.43501e-06
1.24277e-05
-5.70108e-06
1.23685e-05
-5.91052e-06
1.23064e-05
-6.05151e-06
1.22607e-05
-6.134e-06
1.21996e-05
-6.14031e-06
1.21793e-05
-6.08206e-06
1.22029e-05
-5.96704e-06
1.22857e-05
-5.80575e-06
1.24328e-05
-5.60452e-06
1.26457e-05
-5.3764e-06
1.29109e-05
-5.13092e-06
1.32645e-05
-4.86148e-06
1.3614e-05
-4.57607e-06
1.40109e-05
-4.34555e-06
1.44202e-05
-4.02736e-06
1.48838e-05
-3.7784e-06
1.52957e-05
-3.48831e-06
1.57662e-05
-3.25189e-06
1.62272e-05
-3.05457e-06
1.65999e-05
-2.77679e-06
1.6994e-05
-2.59061e-06
1.73761e-05
-2.44693e-06
1.77353e-05
-2.29994e-06
1.80245e-05
-2.12428e-06
1.82809e-05
-2.01763e-06
1.84753e-05
-1.8955e-06
-1.4081e-05
-1.6233e-05
1.59294e-05
-1.49619e-05
-1.53795e-05
4.28664e-05
-1.12945e-06
3.45835e-06
-4.54344e-05
-1.16263e-05
-3.57125e-06
-1.2618e-05
-1.29572e-05
-3.74658e-06
-1.80017e-05
1.82035e-05
-2.07253e-06
-1.77782e-05
-2.2129e-06
-1.74786e-05
-2.37468e-06
-1.72005e-05
-2.50469e-06
-1.68495e-05
-2.68451e-06
-1.65127e-05
-2.82616e-06
-1.6148e-05
-3.02942e-06
-1.57375e-05
-3.22864e-06
-1.53551e-05
-3.40988e-06
-1.49297e-05
-3.64546e-06
-1.45411e-05
-3.84807e-06
-1.41548e-05
-4.09906e-06
-1.37908e-05
-4.34129e-06
-1.3436e-05
-4.5859e-06
-1.31387e-05
-4.81827e-06
-1.28837e-05
-5.06647e-06
-1.26628e-05
-5.29477e-06
-1.24971e-05
-5.50101e-06
-1.23793e-05
-5.68817e-06
-1.23027e-05
-5.83767e-06
-1.22544e-05
-5.95193e-06
-1.22139e-05
-6.00654e-06
-1.21581e-05
-6.00151e-06
-1.20714e-05
-5.92806e-06
-1.19501e-05
-5.78168e-06
-1.19434e-05
-5.56789e-06
-1.16783e-05
-5.26734e-06
-1.15153e-05
-5.10119e-06
-1.13815e-05
-4.6667e-06
-1.12737e-05
-4.29571e-06
-1.11118e-05
-3.87399e-06
-1.09949e-05
-3.41956e-06
-1.11487e-05
-2.85797e-06
-3.17792e-06
-1.1987e-05
1.08066e-05
-9.01051e-06
9.01844e-06
-1.80106e-05
-1.15414e-05
1.53074e-06
-1.79911e-06
1.86113e-05
1.21652e-06
1.85531e-05
9.22238e-07
1.85477e-05
6.98744e-07
1.8502e-05
4.50456e-07
1.85458e-05
2.25647e-07
1.86113e-05
7.09627e-08
1.86044e-05
-2.47805e-08
1.85821e-05
-2.01678e-07
1.858e-05
-3.61009e-07
1.84962e-05
-5.55955e-07
1.84054e-05
-8.34967e-07
1.83683e-05
-1.12575e-06
1.83247e-05
-1.4235e-06
1.83158e-05
-1.71969e-06
1.83589e-05
-1.99948e-06
1.84094e-05
1.37777e-05
-1.00164e-05
-1.41093e-05
1.90964e-05
-1.3771e-05
1.80426e-05
-1.13558e-05
1.67174e-05
-9.15574e-06
-7.35645e-06
-1.03553e-05
9.36978e-06
1.08212e-05
-4.86229e-06
-1.5392e-05
-1.10376e-05
9.39089e-06
1.469e-06
-7.01908e-07
-4.1778e-06
-8.28008e-06
7.1789e-06
1.15419e-05
1.89205e-06
-1.21293e-05
1.11927e-05
1.16925e-06
1.10244e-05
4.55187e-07
1.09814e-05
-2.44727e-07
1.10445e-05
-9.56689e-07
1.1135e-05
-1.65026e-06
1.13393e-05
-2.31318e-06
1.15221e-05
-2.95932e-06
1.17017e-05
-3.55875e-06
1.1866e-05
-4.1044e-06
1.20033e-05
-4.58993e-06
1.21046e-05
-5.00665e-06
1.2173e-05
-5.35541e-06
1.22135e-05
-5.62138e-06
1.22331e-05
-5.83195e-06
1.22362e-05
-5.96991e-06
1.22287e-05
-6.04514e-06
1.22319e-05
-6.05309e-06
1.22622e-05
-6.00174e-06
1.23319e-05
-5.89865e-06
1.24495e-05
-5.7533e-06
1.2623e-05
-5.57136e-06
1.28512e-05
-5.36401e-06
1.31304e-05
-5.13911e-06
1.3463e-05
-4.89919e-06
1.38475e-05
-4.64963e-06
1.42259e-05
-4.40654e-06
1.46587e-05
-4.1454e-06
1.50677e-05
-3.88436e-06
1.55194e-05
-3.65642e-06
1.59785e-05
-3.45284e-06
1.63368e-05
-3.18583e-06
1.67724e-05
-3.02048e-06
1.71805e-05
-2.84536e-06
1.75365e-05
-2.69049e-06
1.78098e-05
-2.5026e-06
1.81044e-05
-2.38951e-06
1.83557e-05
-2.27954e-06
1.85461e-05
-2.13494e-06
1.87008e-05
-2.03884e-06
2.88702e-06
4.21388e-05
-2.34081e-06
-3.94275e-06
-1.23497e-05
-9.21767e-06
5.3331e-06
-1.43069e-05
-1.79556e-05
1.73822e-05
-1.42783e-05
-1.80973e-05
-1.56267e-05
-1.6763e-05
-4.54617e-05
-3.84276e-06
4.79396e-05
4.75978e-05
2.99629e-06
-4.45746e-05
1.18563e-05
-3.27313e-06
-1.35087e-05
-2.0227e-06
-1.22263e-05
1.12041e-05
7.9597e-06
-8.61989e-06
-1.07163e-05
-3.52414e-05
1.2547e-05
4.82152e-06
-8.20479e-06
-7.08553e-06
9.72133e-06
1.4103e-06
-4.84925e-05
-4.6065e-06
5.17038e-05
-1.8262e-05
1.8406e-05
-2.13384e-06
-1.80625e-05
-2.22274e-06
-1.78173e-05
-2.36639e-06
-1.75745e-05
-2.48051e-06
-1.7277e-05
-2.61823e-06
-1.69844e-05
-2.74556e-06
-1.66228e-05
-2.90963e-06
-1.62769e-05
-3.05254e-06
-1.59139e-05
-3.22701e-06
-1.55153e-05
-3.40615e-06
-1.51333e-05
-3.59294e-06
-1.47296e-05
-3.79149e-06
-1.43508e-05
-3.99994e-06
-1.39897e-05
-4.21476e-06
-1.3656e-05
-4.43034e-06
-1.33457e-05
-4.64559e-06
-1.30801e-05
-4.86266e-06
-1.2855e-05
-5.06907e-06
-1.26676e-05
-5.26087e-06
-1.25196e-05
-5.43365e-06
-1.2406e-05
-5.57257e-06
-1.23191e-05
-5.68076e-06
-1.22378e-05
-5.74097e-06
-1.21469e-05
-5.74591e-06
-1.20191e-05
-5.70399e-06
-1.18499e-05
-5.59526e-06
-1.16727e-05
-5.38622e-06
-1.15013e-05
-5.06991e-06
-1.12838e-05
-4.93733e-06
-1.10653e-05
-4.50404e-06
-1.08319e-05
-4.15954e-06
-1.06345e-05
-3.72882e-06
-1.05882e-05
-3.16205e-06
-1.06717e-05
-2.53502e-06
-1.44143e-06
-1.11094e-05
1.28381e-05
-8.52825e-06
-2.96904e-05
2.60702e-05
-1.40948e-05
1.92033e-05
-1.44471e-05
-3.51576e-05
1.74672e-06
-1.95061e-06
1.87867e-05
1.49533e-06
1.87065e-05
1.19348e-06
1.87078e-05
9.45422e-07
1.86982e-05
6.91619e-07
1.87351e-05
4.72351e-07
1.88311e-05
3.21675e-07
1.89069e-05
1.6674e-07
1.89594e-05
-3.8107e-08
1.90076e-05
-1.94022e-07
1.89395e-05
-3.62742e-07
1.88166e-05
-5.78332e-07
1.86977e-05
-8.08899e-07
1.85929e-05
-1.06241e-06
1.8499e-05
-1.35667e-06
1.8483e-05
-1.63676e-06
1.85016e-05
-1.84323e-06
1.85126e-05
-2.0023e-06
1.85385e-05
-9.65204e-06
2.07828e-05
-1.38579e-05
1.92068e-05
-1.10059e-05
1.75418e-05
-8.78126e-06
1.56052e-05
-6.77547e-06
-6.91908e-06
1.37582e-05
3.4088e-06
-4.01322e-06
1.8447e-05
-2.21245e-05
1.13853e-05
2.67161e-06
-1.19402e-05
-2.91137e-06
1.08319e-05
1.82375e-06
1.04976e-05
1.07053e-06
1.03293e-05
3.6967e-07
1.02961e-05
-3.07158e-07
1.03607e-05
-9.7738e-07
1.05047e-05
-1.63397e-06
1.07137e-05
-2.27249e-06
1.09355e-05
-2.87346e-06
1.11652e-05
-3.44566e-06
1.1386e-05
-3.96378e-06
1.15843e-05
-4.41907e-06
1.17534e-05
-4.80893e-06
1.18898e-05
-5.13229e-06
1.19998e-05
-5.3809e-06
1.2079e-05
-5.56844e-06
1.21418e-05
-5.69287e-06
1.21938e-05
-5.75318e-06
1.22533e-05
-5.7565e-06
1.23309e-05
-5.70372e-06
1.24408e-05
-5.6076e-06
1.25897e-05
-5.47424e-06
1.27848e-05
-5.3089e-06
1.30285e-05
-5.12298e-06
1.33165e-05
-4.92111e-06
1.36476e-05
-4.70953e-06
1.40161e-05
-4.49132e-06
1.44062e-05
-4.27299e-06
1.48213e-05
-4.04966e-06
1.52604e-05
-3.8338e-06
1.56918e-05
-3.62699e-06
1.60666e-05
-3.40276e-06
1.65007e-05
-3.23523e-06
1.68914e-05
-3.06985e-06
1.72715e-05
-2.93067e-06
1.75665e-05
-2.74004e-06
1.78964e-05
-2.63758e-06
1.81793e-05
-2.52724e-06
1.83718e-05
-2.37528e-06
1.85829e-05
-2.29596e-06
1.87199e-05
-2.16993e-06
1.88193e-05
-2.0847e-06
1.44689e-05
-1.01716e-05
-1.4971e-05
-4.18198e-06
-1.18319e-05
1.69643e-05
-2.0912e-05
-1.78731e-05
1.70982e-05
-1.20448e-05
1.19506e-05
-1.85469e-05
-1.30592e-05
1.29018e-05
-1.42882e-05
-1.9359e-05
-1.24191e-05
-3.86425e-06
-2.03197e-05
-1.85666e-05
-1.57884e-05
-1.81657e-05
-1.74749e-05
5.05211e-05
-4.92628e-05
2.7413e-07
2.32299e-05
-1.59447e-05
1.23085e-05
-2.01758e-05
-5.03405e-05
4.51284e-05
-5.67622e-06
1.13774e-05
-6.55599e-06
9.26208e-06
2.33162e-06
-6.87995e-06
1.2809e-05
6.52827e-06
4.41721e-05
-4.4592e-05
3.65166e-06
3.73936e-06
4.31187e-05
9.84526e-06
-1.82233e-06
9.98276e-06
-2.34731e-06
1.01789e-05
-2.94696e-06
1.04024e-05
-3.48092e-06
1.06953e-05
-3.93691e-06
1.1009e-05
-4.26983e-06
1.11974e-05
-4.56127e-06
1.15296e-05
-4.83175e-06
1.17527e-05
-5.03553e-06
1.19303e-05
-5.19927e-06
1.20886e-05
-5.29073e-06
1.22195e-05
-5.30622e-06
1.23376e-05
-5.28434e-06
1.2458e-05
-5.21604e-06
1.26031e-05
-5.11588e-06
1.27715e-05
-4.98209e-06
1.29733e-05
-4.82597e-06
1.32063e-05
-4.64846e-06
1.34765e-05
-4.46675e-06
1.37818e-05
-4.2775e-06
1.41121e-05
-4.0871e-06
1.44663e-05
-3.9028e-06
1.48345e-05
-3.7175e-06
1.52104e-05
-3.54043e-06
1.55898e-05
-3.37668e-06
1.59595e-05
-3.21787e-06
1.63158e-05
-3.06865e-06
1.66621e-05
-2.93111e-06
1.6976e-05
-2.8057e-06
1.72652e-05
-2.66833e-06
1.75409e-05
-2.57959e-06
1.7774e-05
-2.45104e-06
1.79771e-05
-2.35717e-06
1.81727e-05
-2.25359e-06
1.83038e-05
-2.14452e-06
1.84348e-05
-2.05349e-06
3.1628e-06
4.20849e-05
-3.2686e-06
1.9053e-06
-2.00606e-06
1.88488e-05
1.71371e-06
1.88306e-05
1.45497e-06
1.87876e-05
1.21596e-06
1.87857e-05
1.00088e-06
1.88074e-05
7.76603e-07
1.89335e-05
6.10816e-07
1.90588e-05
4.18897e-07
1.92393e-05
1.83364e-07
1.93897e-05
-2.62139e-08
1.94325e-05
-2.27242e-07
1.93394e-05
-4.36762e-07
1.91742e-05
-6.40025e-07
1.89747e-05
-8.32896e-07
1.87756e-05
-1.06637e-06
1.8646e-05
-1.32007e-06
1.85972e-05
-1.5427e-06
1.85677e-05
-1.75961e-06
1.85996e-05
-1.86948e-06
1.85889e-05
-1.91009e-06
1.85185e-05
1.40306e-05
-8.68253e-06
-5.45229e-06
-1.10118e-05
-1.10428e-05
1.61787e-05
1.10789e-05
1.02209e-05
4.97325e-05
-3.93361e-05
-2.08645e-05
7.12827e-06
-4.26364e-05
5.25729e-06
-4.3839e-05
4.86879e-06
-4.44521e-05
4.40833e-05
4.66412e-06
-4.40917e-05
4.3232e-05
4.31412e-06
4.2636e-05
4.18032e-06
-4.91914e-06
6.83992e-06
4.06006e-05
8.06028e-06
-5.14144e-06
1.57416e-06
4.03583e-05
-4.05488e-05
-1.48487e-06
1.08357e-05
2.22881e-05
-1.06575e-05
1.10812e-05
2.83305e-05
-3.15814e-05
-8.23328e-06
2.6518e-05
-1.8995e-05
-1.19972e-05
1.804e-05
-1.98116e-05
-1.3074e-05
-1.41349e-05
-2.07277e-05
-3.60347e-06
-1.23387e-05
1.46418e-05
-1.0133e-05
-1.54592e-05
-1.29037e-07
2.20173e-06
2.31109e-05
-1.19181e-05
2.08494e-05
-9.89604e-06
1.86951e-05
-7.83756e-06
1.73178e-05
-6.67242e-06
-6.24856e-06
1.53771e-05
-1.05454e-05
1.50069e-05
8.01075e-06
6.7773e-06
-3.46449e-06
-1.34984e-05
9.34876e-06
1.12306e-05
3.81106e-06
-4.12344e-06
-1.18794e-05
1.05884e-05
2.52683e-06
1.01182e-05
1.69182e-06
9.80169e-06
9.71551e-07
9.63221e-06
3.02889e-07
9.59596e-06
-3.42499e-07
9.67674e-06
-9.7395e-07
9.84877e-06
-1.5918e-06
1.00786e-05
-2.18314e-06
1.03504e-05
-2.747e-06
1.06254e-05
-3.26392e-06
1.09017e-05
-3.74179e-06
1.11607e-05
-4.15106e-06
1.13934e-05
-4.49824e-06
1.15936e-05
-4.78036e-06
1.17649e-05
-4.99656e-06
1.19062e-05
-5.15194e-06
1.20245e-05
-5.24932e-06
1.21317e-05
-5.29048e-06
1.22385e-05
-5.28005e-06
1.23569e-05
-5.22058e-06
1.24974e-05
-5.1249e-06
1.26725e-05
-5.00305e-06
1.28836e-05
-4.85074e-06
1.31397e-05
-4.68805e-06
1.34294e-05
-4.50457e-06
1.37586e-05
-4.32414e-06
1.41181e-05
-4.13631e-06
1.45027e-05
-3.95225e-06
1.48978e-05
-3.75762e-06
1.5317e-05
-3.59279e-06
1.57262e-05
-3.41008e-06
1.61508e-05
-3.24144e-06
1.6548e-05
-3.09119e-06
1.69208e-05
-2.9495e-06
1.72338e-05
-2.80185e-06
1.75504e-05
-2.66866e-06
1.78574e-05
-2.61146e-06
1.80774e-05
-2.46915e-06
1.8317e-05
-2.3903e-06
1.85006e-05
-2.30618e-06
1.86292e-05
-2.17392e-06
1.87396e-05
-2.11583e-06
1.87911e-05
-2.01927e-06
2.20532e-05
1.25491e-05
-2.29365e-05
2.07542e-05
1.13115e-05
-9.20938e-06
1.01975e-05
1.8824e-05
-4.61751e-05
4.16314e-07
4.73598e-05
-1.27187e-06
1.94687e-05
-7.25901e-06
-4.13875e-06
-1.17398e-05
6.87474e-07
4.66421e-05
-6.72119e-07
9.43417e-06
1.70972e-05
-7.97137e-06
4.06579e-06
4.32308e-05
-6.44901e-06
-4.08446e-05
-1.97299e-05
-1.7748e-05
-2.00922e-05
-1.57614e-05
-2.01324e-05
1.17623e-05
-2.11134e-05
1.97813e-05
2.00239e-05
-1.27629e-05
-2.11465e-05
1.88787e-05
4.12047e-05
-2.2086e-05
4.91196e-05
1.38946e-06
2.66546e-07
-4.43544e-05
9.80607e-06
4.13477e-05
2.31455e-05
-2.06099e-05
-2.79969e-05
-2.45134e-05
-6.48588e-06
2.28693e-05
-9.39406e-06
-4.49352e-05
4.67996e-06
-4.53419e-05
4.59811e-06
-4.49085e-05
4.0805e-06
9.06813e-06
-1.69811e-06
9.34327e-06
-2.20622e-06
9.62217e-06
-2.70299e-06
9.92909e-06
-3.18022e-06
1.02441e-05
-3.58269e-06
1.06047e-05
-3.9161e-06
1.09235e-05
-4.13713e-06
1.12467e-05
-4.39512e-06
1.14956e-05
-4.51899e-06
1.17119e-05
-4.65017e-06
1.18867e-05
-4.70213e-06
1.20649e-05
-4.72307e-06
1.22196e-05
-4.67624e-06
1.23798e-05
-4.6073e-06
1.25444e-05
-4.50204e-06
1.27253e-05
-4.37439e-06
1.2933e-05
-4.23447e-06
1.31692e-05
-4.07603e-06
1.34356e-05
-3.91693e-06
1.37323e-05
-3.75543e-06
1.40509e-05
-3.59057e-06
1.43888e-05
-3.43663e-06
1.47409e-05
-3.28385e-06
1.51019e-05
-3.14139e-06
1.54579e-05
-3.00545e-06
1.58088e-05
-2.8806e-06
1.61483e-05
-2.76454e-06
1.64679e-05
-2.65538e-06
1.67612e-05
-2.55478e-06
1.70485e-05
-2.46343e-06
1.72746e-05
-2.36655e-06
1.74942e-05
-2.28417e-06
1.77006e-05
-2.22809e-06
1.78576e-05
-2.12367e-06
1.80094e-05
-2.05499e-06
1.81078e-05
-1.95263e-06
1.82172e-05
-1.85821e-06
-1.87531e-05
-5.39356e-06
1.66888e-05
-2.07645e-05
-5.89737e-06
-2.28136e-05
-6.9398e-06
-2.54158e-05
-8.33364e-06
-2.83051e-05
-9.8998e-06
-3.18278e-05
-1.12882e-05
-4.17155e-05
2.68197e-05
3.78155e-05
-6.66245e-06
1.32912e-05
-9.80258e-06
8.75529e-06
-1.08975e-05
1.69291e-05
1.06598e-05
1.83333e-05
-2.67557e-06
4.08913e-05
2.30145e-06
2.47895e-06
4.10516e-05
1.26449e-05
-2.53497e-05
-1.07648e-05
-1.36328e-05
-2.23669e-05
1.5038e-05