/*--------------------------------*- C++ -*----------------------------------*\
| =========                 |                                                 |
| \\      /  F ield         | OpenFOAM: The Open Source CFD Toolbox           |
|  \\    /   O peration     | Version:  2212                                  |
|   \\  /    A nd           | Website:  www.openfoam.com                      |
|    \\/     M anipulation  |                                                 |
\*---------------------------------------------------------------------------*/
FoamFile
{
    version     2.0;
    format      ascii;
    arch        "LSB;label=32;scalar=64";
    class       volScalarField;
    location    "0.0027";
    object      T;
}
// * * * * * * * * * * * * * * * * * * * * * * * * * * * * * * * * * * * * * //

dimensions      [0 0 0 1 0 0 0];

internalField   nonuniform List<scalar> 
2308
(
272.339
272.219
272.714
272.069
272.175
272.127
272.106
272.152
272.192
271.837
271.858
271.887
271.908
271.929
271.95
271.97
271.99
272.007
271.988
271.969
271.948
271.927
271.905
271.883
271.86
271.838
271.816
271.794
272.11
272.009
271.771
271.749
271.727
271.705
271.683
271.661
271.64
271.618
271.596
271.575
271.553
271.531
271.509
271.488
271.466
271.465
271.487
271.509
271.531
271.553
271.574
271.596
271.618
271.639
271.661
271.683
271.704
271.726
271.748
271.77
271.793
271.814
271.835
271.855
271.874
271.893
271.912
271.932
271.952
271.973
271.993
271.444
271.443
271.99
271.969
271.947
271.926
271.904
271.882
271.86
271.837
271.815
271.793
271.771
271.749
271.727
271.705
271.683
271.662
271.64
271.618
271.597
271.575
271.553
271.532
271.51
271.488
271.466
272.025
271.444
272.027
272.012
271.443
271.465
271.487
271.509
271.53
271.552
271.574
271.596
271.617
271.639
271.661
271.682
271.704
271.726
271.748
271.77
271.791
271.812
271.834
271.855
271.875
271.895
271.915
271.935
271.955
271.976
271.996
272.167
272.119
272.101
272.112
272.016
271.993
271.97
271.947
271.925
271.903
271.881
271.859
271.837
271.815
271.793
271.771
271.749
271.727
271.705
271.684
271.662
271.64
271.619
271.597
271.575
271.554
271.532
271.51
271.488
271.467
271.445
271.423
271.422
271.422
271.421
272.164
271.421
272.182
272.19
272.032
272.215
272.16
272.045
272.016
271.401
271.4
271.4
271.399
271.399
271.398
271.42
271.442
271.464
271.486
271.508
271.53
271.552
271.574
271.595
271.617
271.639
271.66
271.682
271.704
271.726
271.747
271.769
271.79
271.812
271.833
271.854
271.875
271.896
271.917
271.938
271.958
271.979
271.999
272.062
272.372
272.158
272.148
272.126
272.104
272.082
272.06
272.037
272.015
271.992
271.97
271.947
271.925
271.903
271.881
271.859
271.836
271.814
271.792
271.771
271.749
271.727
271.706
271.684
271.662
271.641
271.619
271.597
271.576
271.554
271.532
271.511
271.489
271.467
271.445
271.423
271.401
272.891
272.201
272.405
272.047
272.619
272.202
272.036
272.064
271.398
271.42
271.442
271.464
271.486
271.508
271.53
271.552
271.573
271.595
271.617
271.638
271.66
271.682
271.704
271.725
271.747
271.768
271.79
271.811
271.832
271.854
271.875
271.897
271.918
271.94
271.961
271.981
272.002
272.02
272.228
272.192
272.149
272.125
272.103
272.081
272.058
272.036
272.014
271.991
271.969
271.947
271.925
271.902
271.88
271.858
271.836
271.814
271.792
271.771
271.749
271.727
271.706
271.684
271.662
271.641
271.619
271.598
271.576
271.554
271.533
271.511
271.489
271.467
271.446
271.424
271.402
271.38
271.379
271.379
271.378
271.378
271.377
271.376
271.376
271.376
272.439
272.686
273.138
272.22
272.319
273.147
272.023
272.04
272.246
272.241
272.331
272.143
272.146
272.124
272.101
272.079
272.057
272.035
272.013
271.991
271.968
271.946
271.924
271.902
271.88
271.858
271.836
271.814
271.792
271.771
271.749
271.727
271.706
271.684
271.662
271.641
271.619
271.598
271.576
271.555
271.533
271.511
271.49
271.468
271.446
271.424
271.403
271.381
271.359
271.358
271.358
271.357
271.356
271.356
271.355
271.354
271.354
271.354
271.353
271.375
271.398
271.42
271.442
271.464
271.486
271.508
271.529
271.551
271.573
271.595
271.617
271.638
271.66
271.682
271.703
271.725
271.747
271.768
271.789
271.811
271.832
271.854
271.875
271.897
271.919
271.941
271.962
271.983
272.004
272.244
272.043
272.06
272.084
272.262
272.258
272.239
272.22
272.201
272.169
272.167
272.145
272.123
272.1
272.078
272.056
272.034
272.012
271.99
271.968
271.946
271.924
271.902
271.88
271.858
271.836
271.814
271.792
271.771
271.749
271.727
271.706
271.684
271.662
271.641
271.619
271.598
271.576
271.555
271.533
271.512
271.49
271.468
271.447
271.425
271.403
271.382
271.36
271.338
271.337
271.336
271.336
271.335
271.334
271.333
271.333
271.332
271.332
271.331
271.331
271.331
271.353
271.375
271.397
271.419
271.441
271.463
271.485
271.507
271.529
271.551
271.573
271.595
271.616
271.638
271.66
271.681
271.703
271.725
271.746
271.768
271.789
271.811
271.832
271.853
271.875
271.897
271.919
271.941
271.963
271.985
272.006
272.025
272.263
272.261
273.079
272.046
272.213
272.235
272.256
272.079
272.127
272.086
272.063
272.278
272.277
271.317
271.316
271.315
271.314
271.313
271.312
271.311
271.311
271.31
271.31
271.309
271.309
271.309
271.309
271.331
271.353
271.375
271.397
271.419
271.441
271.463
271.485
271.507
271.529
271.551
271.573
271.594
271.616
271.638
271.66
271.681
271.703
271.725
271.746
271.768
271.789
271.81
271.832
271.853
271.875
271.897
271.919
271.941
271.963
271.985
272.008
272.028
272.174
272.281
272.105
272.698
272.145
272.121
272.099
272.076
272.054
272.032
272.01
271.989
271.967
271.945
271.923
271.901
271.879
271.857
271.836
271.814
271.792
271.77
271.749
271.727
271.706
271.684
271.662
271.641
271.619
271.598
271.576
271.555
271.533
271.512
271.49
271.469
271.447
271.425
271.404
271.382
271.361
271.339
271.318
272.278
272.281
272.858
272.082
272.298
272.066
271.309
271.331
271.353
271.375
271.397
271.419
271.441
271.463
271.485
271.507
271.529
271.551
271.573
271.594
271.616
271.638
271.659
271.681
271.703
271.724
271.746
271.767
271.789
271.81
271.832
271.853
271.875
271.897
271.919
271.941
271.963
271.985
272.008
272.03
272.158
272.297
271.296
271.295
271.294
271.293
271.292
271.291
271.29
271.289
271.289
271.288
271.287
271.287
271.287
271.286
271.286
271.286
272.189
272.295
272.271
272.248
272.225
272.128
272.135
272.209
272.076
272.142
272.119
272.097
272.075
272.053
272.031
272.009
271.988
271.966
271.944
271.922
271.901
271.879
271.857
271.835
271.814
271.792
271.77
271.749
271.727
271.706
271.684
271.662
271.641
271.619
271.598
271.577
271.555
271.534
271.512
271.49
271.469
271.447
271.426
271.404
271.383
271.361
271.34
271.319
271.297
272.821
272.048
272.098
272.295
272.3
272.299
272.143
272.852
272.888
272.114
272.086
272.031
272.112
272.474
272.134
272.789
271.287
271.309
271.331
271.353
271.375
271.397
271.419
271.441
271.463
271.485
271.507
271.529
271.551
271.572
271.594
271.616
271.638
271.659
271.681
271.702
271.724
271.746
271.767
271.789
271.81
271.832
271.853
271.875
271.897
271.918
271.94
271.963
271.985
272.007
272.03
272.173
272.354
272.383
271.276
271.274
271.273
271.272
271.271
271.27
271.269
271.268
271.267
271.266
271.266
271.265
271.264
271.264
271.264
271.264
271.264
271.264
272.132
272.312
272.286
272.262
272.239
272.217
272.655
272.356
272.159
272.138
272.116
272.094
272.073
272.051
272.03
272.008
271.987
271.965
271.943
271.922
271.9
271.878
271.857
271.835
271.813
271.792
271.77
271.749
271.727
271.706
271.684
271.662
271.641
271.619
271.598
271.577
271.555
271.534
271.512
271.491
271.469
271.448
271.426
271.405
271.384
271.362
271.341
271.32
271.298
271.277
272.202
272.051
272.366
272.268
272.29
272.312
272.069
272.318
272.317
272.319
272.788
272.36
272.631
272.086
272.048
272.157
272.856
272.819
272.027
272.006
271.984
271.962
271.94
271.918
271.896
271.875
271.853
271.831
271.81
271.788
271.767
271.745
271.724
271.702
271.681
271.659
271.637
271.616
271.594
271.572
271.551
271.529
271.507
271.485
271.463
271.441
271.419
271.397
271.375
271.353
271.331
271.309
271.287
271.265
272.785
271.256
271.254
271.253
271.251
271.25
271.249
271.247
271.246
271.245
271.245
271.244
271.243
271.242
271.242
271.241
271.241
271.241
271.241
271.242
271.242
272.184
272.054
272.248
272.897
272.896
272.896
272.896
272.895
272.854
272.815
272.778
272.084
272.753
272.334
272.38
272.373
272.283
272.305
272.328
272.089
272.215
272.843
272.326
272.299
272.275
272.253
272.233
272.201
272.218
272.173
272.153
272.133
272.112
272.092
272.071
272.049
272.028
272.007
271.986
271.964
271.943
271.921
271.9
271.878
271.856
271.835
271.813
271.792
271.77
271.749
271.727
271.706
271.684
271.662
271.641
271.62
271.598
271.577
271.555
271.534
271.512
271.491
271.47
271.448
271.427
271.406
271.384
271.363
271.342
271.321
271.3
271.279
271.257
272.345
272.322
272.299
272.64
272.31
272.072
272.671
272.288
272.726
272.338
272.338
272.335
272.309
272.319
272.296
272.781
272.332
272.737
272.768
272.397
272.316
272.343
272.809
272.851
272.893
272.026
272.004
271.983
271.961
271.94
271.918
271.896
271.875
271.853
271.831
271.81
271.788
271.767
271.745
271.724
271.702
271.68
271.659
271.637
271.616
271.594
271.572
271.55
271.529
271.507
271.485
271.463
271.441
271.419
271.397
271.375
271.353
271.331
271.309
271.287
271.265
271.243
272.247
272.266
272.287
272.311
272.337
272.364
272.59
272.166
272.061
272.261
272.287
272.742
272.747
272.369
272.343
272.068
272.687
272.632
272.182
272.195
272.942
272.795
272.849
272.394
271.236
271.234
271.232
271.23
271.229
271.227
271.226
271.225
271.224
271.223
271.222
271.221
271.22
271.219
271.219
271.218
271.218
271.218
271.218
271.219
271.22
271.221
272.941
272.939
272.938
272.937
272.937
272.936
272.758
272.076
272.227
272.277
272.268
272.128
272.711
272.713
272.359
272.668
272.401
272.352
272.68
272.093
273.153
272.939
272.357
272.198
272.183
272.166
272.148
272.129
272.109
272.089
272.069
272.048
272.027
272.006
271.985
271.963
271.942
271.921
271.899
271.878
271.856
271.835
271.813
271.791
271.77
271.748
271.727
271.705
271.684
271.662
271.641
271.62
271.598
271.577
271.555
271.534
271.513
271.491
271.47
271.449
271.427
271.406
271.385
271.364
271.343
271.322
271.301
271.28
271.259
271.239
273.099
272.517
273.15
272.274
272.744
272.357
272.838
272.214
272.144
272.736
272.175
272.168
272.239
272.256
272.275
272.296
272.32
272.346
272.373
272.403
272.425
272.434
272.148
272.283
272.109
272.207
272.065
272.045
272.024
272.003
271.982
271.961
271.939
271.918
271.896
271.874
271.853
271.831
271.81
271.788
271.767
271.745
271.723
271.702
271.68
271.659
271.637
271.615
271.594
271.572
271.55
271.529
271.507
271.485
271.463
271.441
271.419
271.397
271.375
271.354
271.332
271.31
271.288
271.266
271.244
271.222
272.803
272.847
272.891
272.935
272.708
273.146
272.296
272.321
272.35
272.482
272.413
272.447
272.05
272.224
272.096
272.082
272.24
272.265
272.249
272.209
272.705
272.708
272.415
272.379
272.074
272.637
272.141
272.59
272.549
272.395
272.368
272.634
272.113
272.154
272.16
272.263
272.564
272.596
272.633
272.218
272.232
272.982
272.982
272.982
272.981
272.98
272.979
272.978
272.978
272.978
272.206
272.098
272.377
272.38
272.671
272.607
272.173
272.194
272.178
272.162
272.144
272.126
272.107
272.087
272.067
272.046
272.026
272.005
271.984
271.963
271.941
271.92
271.899
271.877
271.856
271.834
271.813
271.791
271.77
271.748
271.727
271.705
271.684
271.662
271.641
271.62
271.598
271.577
271.555
271.534
271.513
271.491
271.47
271.449
271.428
271.406
271.385
271.364
271.343
271.323
271.302
271.281
271.261
271.241
271.221
271.218
271.215
271.213
271.21
271.208
271.206
271.205
271.203
271.202
271.201
271.2
271.199
271.198
271.197
271.196
271.195
271.195
271.195
271.195
271.195
271.196
271.197
271.199
271.2
272.257
272.673
272.467
272.458
272.432
272.226
272.983
272.885
272.096
272.109
272.243
272.261
272.281
272.302
272.326
272.352
272.38
272.411
272.444
272.478
272.542
272.5
272.511
272.089
272.253
272.23
272.705
272.41
272.057
272.595
272.531
272.51
272.383
272.591
272.133
272.597
272.179
272.456
272.419
272.386
272.355
272.327
272.302
272.277
272.235
272.938
272.181
272.752
272.798
272.843
272.889
272.934
272.978
272.185
272.119
273.158
272.402
273.028
273.025
273.024
273.023
273.023
273.022
273.021
273.02
273.02
273.02
273.019
273.019
272.558
272.633
272.149
272.345
272.099
273.152
272.196
272.208
272.192
272.175
272.159
272.142
272.124
272.105
272.085
272.066
272.045
272.025
272.004
271.983
271.962
271.941
271.92
271.898
271.877
271.855
271.834
271.813
271.791
271.77
271.748
271.727
271.705
271.684
271.662
271.641
271.62
271.598
271.577
271.556
271.534
271.513
271.492
271.47
271.449
271.428
271.407
271.386
271.365
271.344
271.323
271.303
271.283
271.262
271.243
271.223
271.204
271.201
271.197
271.194
271.191
271.188
271.186
271.184
271.182
271.181
271.179
271.178
271.177
271.176
271.175
271.174
271.173
271.172
271.171
271.171
271.171
271.172
271.173
271.174
271.176
271.178
271.181
271.202
271.224
271.245
271.267
271.288
271.31
271.332
271.354
271.376
271.397
271.419
271.441
271.463
271.485
271.507
271.529
271.55
271.572
271.594
271.615
271.637
271.659
271.68
271.702
271.723
271.745
271.766
271.788
271.809
271.831
271.853
271.874
271.896
271.917
271.939
271.96
271.981
272.003
272.024
272.045
272.066
272.087
272.107
272.125
272.495
272.167
272.191
272.196
272.215
272.148
272.239
272.403
272.562
272.104
272.118
272.245
272.219
272.199
272.237
272.668
272.668
272.45
272.56
272.492
272.465
272.536
272.395
272.423
272.631
272.553
272.509
272.139
272.591
272.411
272.5
272.525
272.437
272.445
272.666
272.218
272.232
272.111
272.528
272.49
272.453
272.417
272.385
272.356
272.33
272.306
272.285
272.265
272.247
272.423
272.188
272.124
272.26
272.281
272.305
272.33
272.358
272.389
272.424
272.464
272.193
272.166
272.682
272.735
272.787
272.837
272.127
272.513
272.199
272.519
272.169
272.594
272.154
272.745
272.792
272.84
272.887
272.934
272.979
273.022
272.181
272.166
272.193
272.175
272.157
272.139
272.122
272.104
272.084
272.064
272.044
272.023
272.002
271.981
271.96
271.938
271.917
271.895
271.874
271.852
271.831
271.809
271.788
271.766
271.745
271.723
271.702
271.68
271.658
271.637
271.615
271.594
271.572
271.55
271.528
271.507
271.485
271.463
271.441
271.419
271.397
271.376
271.354
271.332
271.31
271.289
271.267
271.246
271.225
271.204
271.183
272.454
272.422
271.185
271.181
271.176
271.172
271.168
271.165
271.163
271.161
271.159
271.158
271.156
271.155
271.154
271.153
271.151
271.15
271.149
271.148
271.148
271.147
271.147
271.148
271.149
271.15
271.153
271.156
271.16
271.163
272.565
273.068
273.066
273.065
273.064
273.063
273.062
273.061
273.061
273.06
273.06
273.06
273.06
273.065
272.933
272.979
273.025
273.069
272.223
272.206
272.19
272.174
272.157
272.14
272.122
272.104
272.084
272.065
272.045
272.024
272.003
271.983
271.962
271.941
271.919
271.898
271.877
271.855
271.834
271.812
271.791
271.77
271.748
271.727
271.705
271.684
271.662
271.641
271.62
271.598
271.577
271.556
271.534
271.513
271.492
271.47
271.449
271.428
271.407
271.386
271.365
271.344
271.324
271.304
271.284
271.264
271.244
271.225
271.207
271.189
272.555
272.485
272.627
272.628
272.188
272.226
272.125
272.139
272.468
272.427
272.235
272.452
272.178
272.244
272.263
272.284
272.307
272.333
272.361
272.392
272.427
272.467
272.842
272.02
272.619
272.676
272.734
272.788
272.25
272.55
272.504
272.46
272.421
272.388
272.358
272.332
272.308
272.287
272.267
272.132
272.213
272.207
272.626
272.478
272.519
272.486
272.44
272.219
272.204
272.188
272.172
272.155
272.138
272.12
272.102
272.083
272.063
272.043
272.022
272.001
271.98
271.959
271.938
271.917
271.895
271.874
271.852
271.831
271.809
271.788
271.766
271.745
271.723
271.702
271.68
271.658
271.637
271.615
271.593
271.572
271.55
271.528
271.507
271.485
271.463
271.441
271.419
271.398
271.376
271.354
271.332
271.311
271.289
271.268
271.246
271.226
271.205
271.185
271.166
272.685
272.737
272.787
272.836
272.885
272.934
272.982
273.029
273.071
272.159
272.588
272.452
272.548
272.584
272.178
272.147
272.917
272.968
273.019
273.065
272.21
272.587
273.108
273.105
273.104
273.104
273.103
273.102
273.102
273.101
273.101
273.1
273.1
273.1
273.1
273.104
273.109
273.137
271.172
271.166
271.16
271.154
271.149
271.145
271.142
271.139
271.137
271.136
271.135
271.133
271.132
271.131
271.13
271.128
271.127
271.125
271.124
271.123
271.122
271.122
271.123
271.124
271.126
271.129
271.133
271.138
271.143
271.148
272.219
272.204
272.188
272.172
272.156
272.139
272.121
272.103
272.084
272.064
272.044
272.024
272.003
271.982
271.961
271.94
271.919
271.898
271.876
271.855
271.834
271.812
271.791
271.769
271.748
271.727
271.705
271.684
271.662
271.641
271.62
271.598
271.577
271.556
271.534
271.513
271.492
271.471
271.449
271.428
271.407
271.386
271.365
271.345
271.324
271.304
271.284
271.265
271.246
271.227
271.21
271.193
271.178
272.472
272.512
272.583
272.195
272.153
271.168
271.186
272.255
272.244
271.152
271.115
271.133
271.123
271.102
271.108
271.097
271.099
271.096
271.096
271.097
271.096
271.101
271.099
271.104
271.103
271.107
271.106
271.11
271.109
271.112
271.111
271.115
271.113
271.12
271.117
271.131
271.125
271.147
271.139
271.195
271.182
271.166
271.157
271.228
271.211
271.265
271.246
271.304
271.285
271.345
271.325
271.386
271.366
271.428
271.407
271.471
271.449
271.513
271.492
271.556
271.534
271.598
271.577
271.641
271.62
271.684
271.662
271.727
271.705
271.769
271.748
271.812
271.791
271.855
271.834
271.898
271.876
271.94
271.919
271.982
271.961
272.023
272.003
272.064
272.044
272.103
272.084
272.139
272.121
272.171
272.155
272.203
272.187
272.235
272.218
272.268
272.251
272.309
272.288
272.36
272.333
272.423
272.389
272.508
272.462
272.615
272.56
272.73
272.674
272.832
272.784
272.938
272.885
273.04
272.991
273.12
273.141
273.143
273.14
273.14
273.14
273.14
273.141
273.14
273.141
273.141
273.141
273.141
273.142
273.142
273.132
273.143
273.112
273.119
273.148
273.156
273.095
273.121
273.011
273.058
272.901
272.957
272.792
272.845
272.676
272.734
272.566
272.621
272.469
272.515
272.393
272.428
272.334
272.362
272.286
272.308
272.248
272.266
272.216
272.232
272.186
272.201
272.154
272.17
272.12
272.138
272.082
272.101
272.042
272.063
272.001
272.022
271.959
271.98
271.916
271.938
271.874
271.895
271.831
271.852
271.788
271.809
271.745
271.766
271.702
271.723
271.658
271.68
271.615
271.637
271.572
271.593
271.528
271.55
271.485
271.507
271.441
271.463
271.398
271.419
271.354
271.376
271.311
271.332
271.268
271.289
271.226
271.247
271.206
273.148
273.156
272.542
272.128
271.139
272.482
271.171
272.794
273.158
273.159
273.159
273.16
273.16
273.16
273.16
272.105
272.555
272.54
272.503
272.505
272.039
272.066
272.042
272.226
272.19
272.208
272.242
272.206
272.223
272.258
272.22
272.239
272.274
272.234
272.254
272.545
272.17
273.155
272.184
273.096
272.155
272.377
272.522
272.184
272.207
272.147
272.087
272.006
272.564
272.14
272.084
272.205
272.881
272.18
272.904
272.12
272.168
272.644
272.112
273.131
272.085
272.413
272.106
272.093
272.142
272.232
273.155
272.822
272.385
272.234
272.231
272.561
272.993
272.74
272.297
273.12
272.091
272.046
272.062
272.276
272.043
272.759
272.208
272.311
272.149
271.873
271.82
272.23
)
;

boundaryField
{
    wall
    {
        type            zeroGradient;
    }
    outlet
    {
        type            inletOutlet;
        inletValue      uniform 85;
        value           nonuniform List<scalar> 
33
(
271.121
271.139
271.129
271.109
271.114
271.103
271.105
271.102
271.102
271.103
271.102
271.107
271.105
271.111
271.109
271.114
271.112
271.116
271.115
271.118
271.117
271.121
271.119
271.126
271.123
271.138
271.131
271.153
271.145
271.172
271.163
271.145
271.177
)
;
    }
    inlet
    {
        type            fixedValue;
        value           uniform 273.16;
    }
    frontAndBackPlanes
    {
        type            empty;
    }
}


// ************************************************************************* //
