/*--------------------------------*- C++ -*----------------------------------*\
| =========                 |                                                 |
| \\      /  F ield         | OpenFOAM: The Open Source CFD Toolbox           |
|  \\    /   O peration     | Version:  2212                                  |
|   \\  /    A nd           | Website:  www.openfoam.com                      |
|    \\/     M anipulation  |                                                 |
\*---------------------------------------------------------------------------*/
FoamFile
{
    version     2.0;
    format      ascii;
    arch        "LSB;label=32;scalar=64";
    class       volScalarField;
    location    "130";
    object      k;
}
// * * * * * * * * * * * * * * * * * * * * * * * * * * * * * * * * * * * * * //

dimensions      [0 2 -2 0 0 0 0];

internalField   nonuniform List<scalar> 
12225
(
0.308577
0.226138
0.181582
0.152226
0.133264
0.121439
0.11365
0.108067
0.103783
0.100327
0.0974631
0.0950659
0.0930898
0.0914703
0.0902809
0.0894251
0.0892703
0.0889789
0.352584
0.25516
0.191002
0.157057
0.137426
0.125021
0.116363
0.109728
0.104308
0.0997176
0.0957653
0.0923285
0.0893511
0.086707
0.0844656
0.0823979
0.0806473
0.0793334
0.35828
0.290218
0.233323
0.195694
0.171259
0.154723
0.142845
0.133748
0.126409
0.12029
0.115086
0.11059
0.106687
0.103237
0.100247
0.0975182
0.0951263
0.0928152
0.361093
0.310635
0.263693
0.227394
0.201072
0.181828
0.167365
0.156094
0.146995
0.139443
0.13305
0.127553
0.122783
0.118587
0.114909
0.111595
0.108687
0.105891
0.3625
0.322853
0.283681
0.250488
0.224383
0.2041
0.18819
0.175466
0.165063
0.156382
0.149018
0.142683
0.137181
0.132349
0.128092
0.124285
0.120928
0.117769
0.363255
0.330517
0.297218
0.26743
0.24256
0.222289
0.20579
0.192246
0.180983
0.171485
0.163375
0.156371
0.150267
0.144901
0.140158
0.135929
0.132178
0.128697
0.363659
0.335492
0.306639
0.279982
0.256766
0.237116
0.22062
0.206749
0.195007
0.184982
0.176343
0.168836
0.162261
0.156463
0.151321
0.146733
0.142642
0.138873
0.363868
0.338777
0.313302
0.289339
0.267864
0.249155
0.233044
0.219207
0.207297
0.196994
0.188028
0.180176
0.173259
0.16713
0.161673
0.15679
0.152416
0.148397
0.363967
0.340953
0.318034
0.296316
0.2765
0.258863
0.243363
0.229811
0.217968
0.207596
0.198478
0.190428
0.183288
0.176927
0.171238
0.166128
0.161526
0.157302
0.364006
0.342382
0.321372
0.301487
0.283164
0.266612
0.251836
0.238727
0.227121
0.216841
0.207717
0.199596
0.192344
0.185845
0.180003
0.174732
0.169961
0.165579
0.364014
0.343299
0.323689
0.305269
0.288235
0.272708
0.258691
0.246112
0.234854
0.224784
0.215768
0.207682
0.200413
0.193861
0.187939
0.182571
0.17769
0.173199
0.364011
0.343822
0.325128
0.30775
0.291706
0.277023
0.263682
0.251618
0.240737
0.230931
0.222092
0.214113
0.2069
0.200364
0.19443
0.189027
0.184094
0.179546
0.364004
0.344155
0.326122
0.309557
0.294334
0.280393
0.267679
0.256121
0.245634
0.236126
0.227504
0.21968
0.212569
0.206095
0.20019
0.194793
0.189845
0.185276
0.363996
0.344374
0.326844
0.310957
0.296468
0.283235
0.271154
0.260137
0.250096
0.240946
0.232605
0.224996
0.218045
0.211687
0.205861
0.200512
0.19559
0.191034
0.363989
0.344496
0.327303
0.311923
0.298032
0.285417
0.273925
0.26344
0.253862
0.245104
0.237089
0.229744
0.223006
0.216814
0.211115
0.205862
0.201008
0.196505
0.363984
0.344551
0.327549
0.312494
0.299029
0.28689
0.275886
0.265868
0.25672
0.248346
0.240664
0.233605
0.227106
0.221114
0.215578
0.210456
0.205708
0.201294
0.363981
0.344568
0.327651
0.312767
0.29955
0.287717
0.277049
0.267375
0.258563
0.250503
0.243108
0.236304
0.230029
0.224229
0.218858
0.213875
0.209244
0.204931
0.363979
0.344569
0.327677
0.312852
0.299734
0.288034
0.277526
0.268027
0.259393
0.251508
0.244278
0.237626
0.231487
0.225808
0.220542
0.21565
0.211095
0.206847
0.363979
0.344565
0.327659
0.312809
0.299654
0.287909
0.277348
0.267794
0.259105
0.251165
0.243884
0.237183
0.231
0.225279
0.219975
0.215048
0.210463
0.206192
0.363982
0.344544
0.32755
0.312525
0.299113
0.287046
0.276122
0.266187
0.257116
0.24881
0.241186
0.23417
0.227701
0.221727
0.216198
0.211073
0.206317
0.201899
0.363986
0.344466
0.327228
0.311796
0.297854
0.285191
0.273652
0.263118
0.25349
0.244677
0.236602
0.229192
0.222383
0.216117
0.210342
0.205009
0.20008
0.195521
0.363994
0.344225
0.326403
0.310137
0.295241
0.281611
0.269163
0.257814
0.247477
0.238065
0.22949
0.221671
0.214531
0.208
0.202016
0.196522
0.19147
0.186824
0.364001
0.343616
0.324617
0.306906
0.290543
0.275572
0.261976
0.249684
0.238597
0.228603
0.219588
0.211444
0.204072
0.197383
0.1913
0.185753
0.180682
0.176048
0.363989
0.342285
0.321213
0.301287
0.282922
0.266312
0.251455
0.238238
0.226503
0.216079
0.2068
0.198516
0.191097
0.184427
0.17841
0.172961
0.168012
0.163518
0.363901
0.339668
0.315263
0.292227
0.271389
0.25301
0.236986
0.223067
0.210968
0.200416
0.19117
0.183026
0.175812
0.169389
0.163639
0.158468
0.153795
0.149579
0.363618
0.334828
0.305352
0.278222
0.254659
0.234707
0.217932
0.203807
0.191844
0.181628
0.172826
0.165174
0.158466
0.152541
0.147272
0.14256
0.138315
0.134507
0.362909
0.325999
0.289014
0.256955
0.230973
0.210213
0.193578
0.1801
0.169015
0.159748
0.151882
0.145117
0.139228
0.134056
0.129469
0.125384
0.121702
0.118419
0.361263
0.309487
0.261541
0.224764
0.197901
0.178084
0.163165
0.151609
0.142368
0.134764
0.12836
0.12287
0.118093
0.1139
0.110172
0.106862
0.103854
0.101199
0.355887
0.276248
0.215134
0.177761
0.154162
0.138562
0.127639
0.11948
0.113021
0.107686
0.10315
0.0992231
0.0957726
0.0927242
0.0899857
0.0875602
0.0853156
0.0833593
0.302816
0.220068
0.17877
0.152538
0.134431
0.121988
0.1133
0.106977
0.102155
0.0983045
0.0951055
0.0923689
0.0899776
0.0878657
0.0859687
0.084274
0.082712
0.0813142
0.000660672
0.000883127
0.00115174
0.00142522
0.00166958
0.00187146
0.00203459
0.00216449
0.00226443
0.00234189
0.00240774
0.00248151
0.00260343
0.00280895
0.00307145
0.00337428
0.00371421
0.00409355
0.00451527
0.00498169
0.00549316
0.00604909
0.00664698
0.00728335
0.00795304
0.00865148
0.00937311
0.0101139
0.010868
0.0116341
0.0124023
0.0131648
0.0139181
0.0146606
0.015389
0.0161032
0.0168004
0.0174813
0.0181435
0.0187883
0.0194133
0.0200203
0.0206067
0.0211744
0.0217208
0.0222478
0.0227527
0.0232372
0.0236985
0.0241384
0.0245536
0.0249459
0.0253122
0.0256546
0.0259711
0.0262662
0.0265416
0.026799
0.0270337
0.0272484
0.0274401
0.0276092
0.0277535
0.0278734
0.0279662
0.0280316
0.0280603
0.0280896
0.0281198
0.0280848
0.0280261
0.0279415
0.0278303
0.0276923
0.0275269
0.0273336
0.0271097
0.026856
0.0265808
0.0262812
0.0259602
0.0256157
0.025251
0.0248652
0.0244623
0.0240417
0.0236075
0.0231596
0.0227013
0.0222337
0.0217585
0.0212791
0.020801
0.0203414
0.019985
0.0198366
0.0197711
0.0197195
0.0196655
0.0196058
0.0195395
0.0194669
0.0193887
0.0193052
0.0192172
0.019125
0.0190294
0.0189305
0.018829
0.018725
0.0186192
0.0185117
0.0184032
0.0182936
0.0181837
0.0180733
0.0179631
0.0178527
0.0177426
0.0176329
0.0175239
0.0174159
0.0173093
0.0172041
0.0171005
0.0169985
0.0168983
0.0167998
0.0167033
0.0166086
0.0165158
0.0164248
0.0163357
0.0162486
0.0161635
0.0160804
0.0159993
0.0159202
0.0158431
0.0157678
0.0156945
0.015623
0.0155533
0.0154855
0.0154194
0.015355
0.0152924
0.0152309
0.0151707
0.0151117
0.0150539
0.0149976
0.0149427
0.0148892
0.0148371
0.0147864
0.0147368
0.0146892
0.0146425
0.014599
0.0145547
0.0145124
0.0144692
0.014426
0.0143843
0.0143412
0.0142988
0.0142541
0.0142091
0.0141599
0.014109
0.0140513
0.0139864
0.0139101
0.0138213
0.0137034
0.0135716
0.013345
0.0131235
0.0124159
0.00132079
0.00159366
0.00216782
0.00270671
0.00317955
0.00359923
0.00397864
0.00433139
0.00467077
0.00500542
0.00534164
0.00568546
0.00604355
0.00642074
0.00681724
0.00723354
0.00767198
0.00813603
0.00862873
0.00915215
0.00970692
0.0102931
0.0109099
0.0115562
0.01223
0.01293
0.0136548
0.0144044
0.0151702
0.0159463
0.01673
0.0175199
0.0183144
0.019113
0.0199147
0.0207194
0.0215262
0.0223354
0.0231461
0.0239589
0.024773
0.0255889
0.0264059
0.0272243
0.0280432
0.028863
0.0296825
0.0305016
0.0313188
0.0321338
0.0329446
0.0337503
0.0345485
0.0353378
0.0361151
0.0368785
0.0376252
0.0383603
0.0390862
0.0398026
0.0405089
0.0411981
0.0418671
0.0425138
0.0431351
0.0437289
0.0442921
0.0448268
0.0453273
0.0457855
0.0462044
0.0465813
0.0469145
0.0472023
0.0474432
0.0476364
0.0477724
0.0478436
0.0478652
0.0478376
0.0477629
0.0476383
0.0474651
0.0472441
0.0469777
0.0466674
0.0463162
0.0459263
0.0455008
0.045042
0.0445531
0.044038
0.0435018
0.0429533
0.0424083
0.0418773
0.041347
0.0408083
0.0402587
0.0396989
0.0391302
0.0385545
0.0379733
0.0373884
0.0368013
0.0362134
0.0356259
0.0350399
0.0344566
0.0338769
0.0333016
0.0327316
0.0321677
0.0316105
0.0310608
0.030519
0.0299856
0.0294603
0.0289436
0.0284363
0.0279388
0.0274515
0.0269748
0.0265088
0.0260537
0.0256097
0.0251766
0.0247546
0.0243434
0.0239431
0.0235531
0.0231735
0.0228041
0.0224449
0.0220958
0.0217566
0.0214271
0.021107
0.0207962
0.0204943
0.020201
0.0199162
0.0196395
0.0193709
0.01911
0.0188567
0.0186102
0.0183703
0.0181368
0.0179096
0.0176887
0.0174739
0.0172651
0.0170621
0.0168647
0.0166727
0.0164857
0.0163048
0.0161304
0.0159613
0.0157964
0.0156349
0.015474
0.0153203
0.015169
0.0150224
0.0148776
0.014737
0.0145987
0.0144628
0.0143314
0.0141976
0.0140694
0.0139382
0.0138127
0.0136803
0.0135562
0.0134212
0.0132712
0.0129596
0.00202845
0.00263033
0.00353075
0.00429398
0.00494899
0.00553911
0.00609169
0.00662439
0.00714872
0.00767173
0.00819764
0.00872925
0.00926884
0.0098183
0.0103793
0.0109542
0.0115462
0.0121594
0.0127975
0.0134638
0.0141601
0.0148873
0.0156443
0.0164305
0.0172446
0.0180849
0.0189489
0.0198338
0.020736
0.0216525
0.0225809
0.0235192
0.0244653
0.0254177
0.0263747
0.0273354
0.0282985
0.0292633
0.0302289
0.0311951
0.0321611
0.033127
0.0340923
0.035057
0.0360208
0.0369835
0.0379449
0.0389046
0.0398623
0.0408174
0.0417693
0.0427174
0.0436607
0.0445985
0.0455301
0.046455
0.0473723
0.0482809
0.0491792
0.0500652
0.050936
0.0517884
0.0526192
0.0534254
0.0542037
0.054951
0.0556639
0.0563396
0.0569738
0.0575625
0.0581033
0.0585932
0.0590294
0.0594096
0.059732
0.0599939
0.0601933
0.0603216
0.0603783
0.0603767
0.0603138
0.0601889
0.0600028
0.0597571
0.0594539
0.0590956
0.0586853
0.0582259
0.0577208
0.0571736
0.056588
0.0559686
0.0553211
0.0546528
0.0539724
0.0532835
0.0525837
0.0518707
0.0511441
0.0504053
0.049656
0.0488984
0.0481345
0.0473664
0.0465958
0.0458245
0.0450541
0.0442861
0.0435217
0.0427622
0.0420087
0.0412623
0.0405238
0.0397942
0.0390742
0.0383646
0.0376659
0.0369784
0.0363027
0.0356391
0.0349882
0.0343502
0.0337254
0.0331141
0.0325164
0.0319325
0.0313622
0.0308057
0.0302628
0.0297334
0.0292168
0.0287133
0.0282228
0.0277451
0.0272802
0.0268278
0.0263877
0.0259595
0.025543
0.0251379
0.0247438
0.0243606
0.0239879
0.0236254
0.0232729
0.02293
0.0225963
0.0222715
0.0219552
0.0216472
0.0213472
0.0210553
0.0207711
0.0204943
0.0202248
0.0199623
0.0197064
0.0194574
0.0192157
0.0189803
0.0187513
0.0185276
0.0183081
0.0180947
0.0178856
0.0176823
0.0174829
0.0172886
0.0170982
0.0169118
0.0167301
0.0165507
0.016376
0.0162024
0.016035
0.015866
0.0157101
0.0155554
0.0154031
0.0151272
0.00250959
0.00369907
0.00492684
0.00589092
0.00669818
0.00741768
0.00808878
0.00873508
0.00937114
0.0100056
0.0106431
0.0112865
0.0119376
0.0125984
0.0132713
0.0139598
0.0146679
0.0153995
0.0161582
0.0169466
0.0177663
0.0186173
0.0194991
0.02041
0.0213478
0.0223098
0.023293
0.0242943
0.0253103
0.0263382
0.0273755
0.0284198
0.0294692
0.0305219
0.0315764
0.0326317
0.0336868
0.034741
0.0357938
0.0368449
0.0378942
0.0389416
0.0399871
0.041031
0.0420731
0.0431139
0.0441533
0.0451914
0.0462283
0.0472638
0.0482978
0.0493299
0.0503597
0.0513866
0.0524098
0.0534284
0.0544409
0.0554455
0.05644
0.0574219
0.0583884
0.0593363
0.0602623
0.0611629
0.0620345
0.0628733
0.0636755
0.0644372
0.0651541
0.0658224
0.0664383
0.0669984
0.0674992
0.0679377
0.0683115
0.0686182
0.0688558
0.0690199
0.0691024
0.069118
0.0690633
0.0689382
0.0687439
0.0684819
0.0681543
0.067764
0.0673139
0.0668075
0.0662485
0.0656407
0.0649884
0.0642968
0.0635714
0.0628183
0.0620433
0.0612501
0.0604397
0.0596126
0.05877
0.0579135
0.0570455
0.0561682
0.0552839
0.054395
0.0535034
0.0526111
0.0517199
0.0508314
0.0499472
0.0490687
0.0481972
0.0473339
0.0464799
0.0456361
0.0448035
0.0439828
0.0431748
0.0423799
0.0415986
0.0408315
0.0400789
0.0393411
0.0386185
0.0379112
0.0372195
0.0365433
0.0358826
0.0352376
0.034608
0.0339937
0.0333944
0.0328099
0.0322402
0.031685
0.031144
0.0306171
0.030104
0.0296042
0.0291176
0.0286438
0.0281825
0.0277334
0.0272963
0.0268708
0.0264566
0.0260533
0.0256605
0.025278
0.0249052
0.024542
0.0241883
0.0238436
0.0235078
0.0231805
0.0228614
0.0225503
0.022247
0.0219513
0.0216634
0.0213828
0.0211094
0.0208425
0.0205816
0.020327
0.0200782
0.0198355
0.0195981
0.0193664
0.0191398
0.0189184
0.0187022
0.0184905
0.0182842
0.0180818
0.0178861
0.0176934
0.0175138
0.017339
0.0171935
0.0169268
0.00276701
0.0047045
0.00625133
0.00740528
0.0083511
0.00918003
0.00994223
0.0106678
0.0113759
0.0120786
0.0127834
0.0134952
0.0142176
0.0149536
0.0157068
0.0164807
0.017279
0.0181048
0.0189607
0.0198479
0.0207667
0.0217164
0.0226952
0.0237008
0.0247304
0.0257811
0.0268498
0.0279333
0.0290287
0.0301335
0.0312451
0.0323615
0.0334809
0.0346019
0.0357231
0.0368436
0.0379625
0.0390795
0.0401942
0.0413064
0.0424161
0.0435234
0.0446286
0.045732
0.0468337
0.0479343
0.0490339
0.050133
0.0512315
0.0523298
0.0534276
0.0545248
0.055621
0.0567155
0.0578073
0.0588954
0.0599779
0.0610531
0.0621186
0.0631717
0.0642095
0.0652288
0.066226
0.0671975
0.0681393
0.0690474
0.0699174
0.070745
0.0715259
0.0722558
0.0729305
0.0735461
0.0740987
0.0745851
0.075002
0.0753472
0.075618
0.0758129
0.0759234
0.0759574
0.0759146
0.0757959
0.0756018
0.0753337
0.074994
0.0745854
0.074111
0.0735744
0.0729796
0.0723307
0.0716324
0.0708897
0.070108
0.0692926
0.0684487
0.06758
0.0666892
0.0657784
0.0648497
0.0639053
0.0629479
0.06198
0.061004
0.0600226
0.0590379
0.058052
0.0570671
0.0560849
0.0551072
0.0541355
0.0531714
0.0522162
0.051271
0.0503371
0.0494153
0.0485067
0.047612
0.0467318
0.0458668
0.0450172
0.0441837
0.0433666
0.042566
0.0417824
0.0410158
0.0402662
0.0395338
0.0388183
0.0381199
0.0374382
0.036773
0.0361243
0.0354916
0.0348748
0.0342736
0.0336877
0.0331168
0.0325605
0.0320186
0.0314907
0.0309763
0.0304753
0.0299872
0.0295117
0.0290485
0.0285971
0.0281572
0.0277285
0.0273105
0.0269033
0.0265065
0.0261197
0.0257425
0.0253747
0.0250159
0.0246658
0.0243245
0.0239916
0.023667
0.0233504
0.0230417
0.0227402
0.0224459
0.0221585
0.0218778
0.0216037
0.0213359
0.0210743
0.0208188
0.0205693
0.0203257
0.0200878
0.019856
0.0196299
0.019411
0.0191984
0.0189973
0.0188033
0.0186553
0.0183834
0.00299212
0.0056126
0.00743839
0.00876125
0.00982842
0.0107498
0.0115851
0.0123705
0.0131297
0.013879
0.0146293
0.0153883
0.0161617
0.0169539
0.0177687
0.0186095
0.019479
0.0203791
0.0213107
0.0222741
0.0232684
0.0242919
0.0253423
0.0264172
0.0275135
0.0286283
0.0297588
0.0309022
0.0320557
0.0332171
0.0343842
0.0355551
0.0367284
0.0379025
0.0390765
0.0402494
0.0414205
0.0425894
0.0437559
0.0449198
0.0460812
0.0472404
0.0483975
0.0495529
0.0507068
0.0518599
0.0530124
0.0541647
0.0553169
0.0564694
0.0576219
0.0587744
0.0599263
0.0610769
0.0622253
0.0633701
0.0645095
0.0656416
0.066764
0.067874
0.0689686
0.0700445
0.0710981
0.0721254
0.0731223
0.0740847
0.075008
0.0758876
0.0767192
0.077498
0.0782197
0.0788801
0.0794752
0.0800013
0.080455
0.0808336
0.0811346
0.0813563
0.0814933
0.0815477
0.0815212
0.0814141
0.0812267
0.0809607
0.0806183
0.0802023
0.0797157
0.0791624
0.0785464
0.077872
0.077144
0.0763671
0.0755466
0.0746874
0.0737944
0.0728717
0.0719227
0.0709503
0.0699573
0.0689466
0.0679209
0.066883
0.0658356
0.0647814
0.0637228
0.0626623
0.061602
0.0605439
0.0594901
0.0584422
0.0574018
0.0563706
0.0553498
0.0543408
0.0533446
0.0523623
0.0513947
0.0504426
0.0495066
0.0485873
0.0476851
0.0468005
0.0459338
0.0450851
0.0442547
0.0434427
0.042649
0.0418735
0.0411163
0.0403771
0.0396557
0.0389519
0.0382654
0.037596
0.0369433
0.0363071
0.0356869
0.0350824
0.0344934
0.0339193
0.0333598
0.0328146
0.0322832
0.0317653
0.0312605
0.0307684
0.0302887
0.029821
0.0293649
0.0289201
0.0284864
0.0280633
0.0276506
0.0272479
0.0268549
0.0264712
0.0260972
0.0257323
0.0253763
0.0250289
0.0246899
0.0243587
0.0240356
0.0237201
0.023412
0.0231111
0.0228171
0.02253
0.0222498
0.0219762
0.0217092
0.0214488
0.0211952
0.0209486
0.0207098
0.0204793
0.0202601
0.0200495
0.0198817
0.0196116
0.00378827
0.00647639
0.00847557
0.00992173
0.011082
0.0120773
0.0129723
0.0138072
0.0146092
0.0153973
0.0161853
0.0169833
0.0177985
0.0186363
0.0195007
0.0203943
0.0213192
0.0222761
0.0232651
0.0242853
0.0253352
0.0264129
0.0275157
0.0286412
0.0297864
0.0309488
0.0321257
0.0333146
0.0345132
0.0357193
0.036931
0.0381467
0.0393649
0.0405844
0.041804
0.043023
0.0442406
0.0454565
0.0466703
0.047882
0.0490915
0.050299
0.0515048
0.0527091
0.0539123
0.0551147
0.0563167
0.0575186
0.0587206
0.0599228
0.0611251
0.0623271
0.0635285
0.0647283
0.0659255
0.0671186
0.068306
0.0694854
0.0706545
0.0718107
0.0729507
0.0740713
0.0751687
0.0762391
0.0772782
0.0782817
0.079245
0.0801637
0.081033
0.0818485
0.0826055
0.0832997
0.0839272
0.084484
0.0849669
0.0853727
0.085699
0.0859437
0.086104
0.086179
0.0861703
0.0860778
0.0859017
0.0856438
0.0853062
0.0848918
0.0844036
0.0838455
0.0832213
0.0825353
0.0817921
0.0809963
0.0801528
0.0792665
0.078342
0.0773836
0.0763951
0.0753799
0.0743413
0.0732824
0.0722063
0.0711158
0.0700141
0.0689037
0.0677875
0.066668
0.0655474
0.0644282
0.0633123
0.0622018
0.0610984
0.0600039
0.0589197
0.0578473
0.056788
0.0557429
0.0547129
0.053699
0.0527019
0.0517222
0.0507605
0.0498173
0.0488928
0.0479874
0.0471012
0.0462343
0.0453869
0.0445587
0.0437498
0.04296
0.042189
0.0414367
0.0407027
0.0399868
0.0392886
0.0386079
0.0379442
0.0372972
0.0366664
0.0360516
0.0354522
0.0348679
0.0342983
0.033743
0.0332016
0.0326738
0.032159
0.0316569
0.0311672
0.0306895
0.0302234
0.0297687
0.029325
0.0288919
0.0284691
0.0280563
0.0276533
0.0272601
0.0268761
0.0265012
0.0261352
0.0257776
0.0254287
0.0250882
0.0247557
0.0244309
0.0241136
0.0238039
0.0235016
0.0232066
0.0229189
0.0226385
0.0223656
0.0221005
0.0218441
0.0215969
0.0213613
0.0211363
0.0209454
0.0206845
0.00464264
0.00718855
0.00930642
0.010847
0.0120811
0.0131375
0.0140845
0.0149648
0.0158074
0.0166333
0.0174579
0.0182925
0.0191454
0.0200224
0.0209276
0.0218634
0.0228311
0.023831
0.0248625
0.0259243
0.0270148
0.0281318
0.0292728
0.0304354
0.0316171
0.0328155
0.0340283
0.0352532
0.0364882
0.0377313
0.0389809
0.0402354
0.0414934
0.0427537
0.0440151
0.0452768
0.0465382
0.0477987
0.0490581
0.0503161
0.0515726
0.0528278
0.0540817
0.0553344
0.0565863
0.0578376
0.0590885
0.0603391
0.0615896
0.0628398
0.0640894
0.0653382
0.0665854
0.0678301
0.0690709
0.0703066
0.071535
0.0727542
0.0739617
0.0751546
0.0763299
0.0774842
0.0786138
0.0797147
0.0807829
0.081814
0.0828036
0.0837473
0.0846404
0.0854785
0.0862573
0.0869725
0.0876201
0.0881965
0.0886983
0.0891225
0.0894666
0.0897287
0.0899066
0.0899996
0.0900076
0.0899308
0.0897681
0.0895223
0.0891956
0.0887905
0.0883101
0.0877577
0.0871372
0.0864524
0.0857077
0.0849075
0.0840564
0.083159
0.0822197
0.0812428
0.0802323
0.0791918
0.0781249
0.0770348
0.0759249
0.0747981
0.0736577
0.0725065
0.0713474
0.070183
0.0690159
0.0678487
0.0666835
0.0655225
0.0643678
0.0632211
0.0620843
0.0609589
0.0598463
0.0587479
0.0576646
0.0565977
0.0555478
0.0545158
0.0535023
0.0525078
0.0515327
0.0505774
0.049642
0.0487268
0.0478317
0.0469568
0.0461019
0.045267
0.0444518
0.0436561
0.0428797
0.0421222
0.0413832
0.0406626
0.0399598
0.0392746
0.0386064
0.0379549
0.0373197
0.0367004
0.0360964
0.0355075
0.0349333
0.0343732
0.0338269
0.0332941
0.0327742
0.0322669
0.031772
0.0312889
0.0308174
0.0303572
0.0299078
0.029469
0.0290405
0.0286221
0.0282135
0.0278144
0.0274246
0.0270437
0.0266718
0.0263087
0.0259539
0.0256073
0.0252687
0.0249384
0.0246161
0.0243018
0.0239952
0.0236965
0.0234061
0.0231242
0.0228515
0.0225889
0.022338
0.0220991
0.0218869
0.0216271
0.00544047
0.00771998
0.00991318
0.0115269
0.0128209
0.0139297
0.0149243
0.0158485
0.0167322
0.0175969
0.0184588
0.0193295
0.0202179
0.0211299
0.0220696
0.0230394
0.0240403
0.0250726
0.0261354
0.0272274
0.0283471
0.0294923
0.0306609
0.0318508
0.0330599
0.034286
0.0355272
0.0367815
0.038047
0.039322
0.040605
0.0418945
0.043189
0.0444873
0.0457885
0.0470916
0.0483959
0.0497009
0.051006
0.052311
0.0536156
0.0549197
0.0562232
0.057526
0.0588283
0.06013
0.0614311
0.0627315
0.064031
0.0653293
0.0666259
0.0679203
0.0692114
0.0704982
0.0717791
0.0730526
0.0743166
0.0755688
0.0768067
0.0780275
0.0792279
0.0804047
0.0815541
0.0826724
0.0837556
0.0847995
0.0858
0.0867527
0.0876536
0.0884983
0.0892829
0.0900034
0.0906562
0.091238
0.0917456
0.0921764
0.0925281
0.0927988
0.092987
0.0930918
0.093113
0.0930509
0.0929022
0.0926711
0.0923597
0.0919703
0.0915056
0.0909686
0.0903626
0.0896913
0.0889585
0.0881681
0.0873243
0.0864314
0.0854936
0.084515
0.0834995
0.0824508
0.0813724
0.0802677
0.0791402
0.0779929
0.0768291
0.0756518
0.074464
0.0732686
0.0720683
0.0708656
0.0696633
0.0684635
0.0672685
0.0660804
0.0649011
0.0637323
0.0625757
0.0614328
0.0603047
0.0591928
0.0580979
0.0570209
0.0559626
0.0549236
0.0539044
0.0529053
0.0519267
0.0509687
0.0500315
0.0491151
0.0482193
0.0473442
0.0464895
0.0456551
0.0448405
0.0440457
0.0432701
0.0425135
0.0417756
0.0410558
0.0403539
0.0396693
0.0390017
0.0383506
0.0377156
0.0370963
0.0364922
0.035903
0.0353282
0.0347674
0.0342202
0.0336863
0.0331651
0.0326565
0.0321599
0.0316751
0.0312017
0.0307394
0.0302879
0.029847
0.0294162
0.0289955
0.0285844
0.0281828
0.0277905
0.0274072
0.0270327
0.0266669
0.0263095
0.0259605
0.02562
0.0252877
0.0249637
0.0246481
0.0243415
0.0240441
0.0237562
0.0234791
0.0232139
0.0229615
0.0227303
0.022467
0.00613838
0.00807438
0.0103052
0.0119737
0.0133165
0.014471
0.0155097
0.0164766
0.0174015
0.0183058
0.0192054
0.0201118
0.0210339
0.0219776
0.0229472
0.0239449
0.024972
0.0260286
0.0271142
0.0282277
0.0293679
0.0305331
0.0317216
0.0329317
0.0341616
0.0354096
0.0366739
0.0379529
0.039245
0.0405486
0.0418623
0.0431846
0.0445141
0.0458497
0.0471905
0.0485354
0.0498837
0.0512347
0.0525876
0.053942
0.0552973
0.0566534
0.0580096
0.0593658
0.0607217
0.0620769
0.063431
0.0647836
0.0661342
0.0674821
0.0688264
0.0701663
0.0715003
0.0728272
0.0741452
0.0754523
0.0767462
0.0780247
0.0792848
0.0805238
0.0817385
0.0829254
0.0840812
0.0852022
0.0862845
0.0873245
0.0883183
0.089262
0.090152
0.0909846
0.0917563
0.0924638
0.093104
0.093674
0.0941713
0.0945939
0.09494
0.0952079
0.0953966
0.0955054
0.0955342
0.0954834
0.095348
0.0951324
0.0948395
0.0944708
0.0940286
0.0935154
0.0929343
0.0922881
0.0915799
0.0908132
0.0899916
0.0891188
0.0881987
0.087235
0.0862313
0.0851911
0.084118
0.0830152
0.0818862
0.080734
0.0795621
0.0783734
0.0771712
0.0759583
0.0747377
0.0735123
0.0722847
0.0710575
0.0698332
0.0686141
0.0674022
0.0661996
0.0650081
0.0638293
0.0626646
0.0615155
0.060383
0.0592682
0.0581719
0.0570948
0.0560376
0.0550007
0.0539845
0.0529893
0.0520151
0.0510622
0.0501303
0.0492196
0.0483298
0.0474608
0.0466122
0.0457839
0.0449756
0.0441867
0.0434171
0.0426663
0.0419338
0.0412194
0.0405225
0.0398427
0.0391796
0.0385327
0.0379017
0.0372861
0.0366854
0.0360993
0.0355273
0.0349691
0.0344242
0.0338923
0.033373
0.032866
0.0323708
0.0318872
0.0314149
0.0309535
0.0305028
0.0300625
0.0296323
0.0292119
0.0288012
0.0283999
0.0280079
0.0276248
0.0272506
0.0268852
0.0265284
0.0261803
0.0258409
0.0255102
0.0251887
0.0248766
0.0245745
0.0242836
0.0240049
0.0237393
0.0234913
0.0232218
0.00670372
0.00826696
0.0105042
0.0122121
0.0135947
0.014789
0.0158682
0.0168756
0.0178404
0.0187834
0.0197198
0.0206608
0.0216147
0.0225874
0.0235828
0.0246036
0.0256511
0.026726
0.0278282
0.0289572
0.0301119
0.0312915
0.0324947
0.0337201
0.0349665
0.0362326
0.0375168
0.038818
0.0401346
0.0414654
0.0428088
0.0441636
0.0455286
0.0469027
0.0482848
0.0496738
0.0510689
0.0524691
0.0538735
0.0552814
0.056692
0.0581045
0.0595182
0.0609325
0.0623464
0.0637594
0.0651704
0.0665786
0.0679831
0.0693825
0.0707756
0.072161
0.073537
0.0749017
0.0762531
0.0775887
0.0789061
0.0802026
0.0814754
0.0827215
0.0839376
0.0851206
0.0862671
0.0873738
0.0884372
0.089454
0.090421
0.091335
0.092193
0.0929921
0.0937297
0.0944033
0.0950105
0.0955492
0.0960177
0.096415
0.0967406
0.0969924
0.0971697
0.0972728
0.097302
0.0972573
0.0971326
0.0969319
0.0966591
0.0963151
0.0959012
0.0954193
0.0948725
0.0942625
0.0935914
0.092862
0.0920772
0.0912399
0.0903535
0.0894212
0.088446
0.0874312
0.08638
0.0852955
0.0841811
0.0830398
0.0818749
0.0806896
0.0794869
0.0782702
0.0770425
0.0758068
0.0745659
0.0733228
0.0720801
0.0708404
0.0696059
0.0683789
0.0671614
0.0659553
0.0647623
0.0635837
0.0624211
0.0612755
0.0601479
0.0590393
0.0579502
0.0568814
0.0558332
0.054806
0.0538
0.0528154
0.0518521
0.0509103
0.0499897
0.0490902
0.0482116
0.0473537
0.0465162
0.0456986
0.0449007
0.0441221
0.0433624
0.0426211
0.0418979
0.0411923
0.0405039
0.0398322
0.0391768
0.0385373
0.0379133
0.0373043
0.0367099
0.0361297
0.0355633
0.0350103
0.0344705
0.0339432
0.0334284
0.0329255
0.0324343
0.0319544
0.0314857
0.0310277
0.0305801
0.0301429
0.0297156
0.0292982
0.0288903
0.0284917
0.0281024
0.0277222
0.027351
0.0269888
0.0266356
0.0262915
0.0259568
0.0256318
0.0253171
0.0250134
0.0247219
0.0244434
0.0241803
0.0239033
0.0071028
0.00829965
0.0105239
0.0122646
0.0136839
0.0149154
0.016032
0.017076
0.018078
0.0190576
0.0200287
0.0210016
0.0219842
0.0229822
0.024
0.0250401
0.0261044
0.0271939
0.0283089
0.0294495
0.0306154
0.0318062
0.0330212
0.0342597
0.0355207
0.0368034
0.0381068
0.0394298
0.0407712
0.0421298
0.0435044
0.0448939
0.0462972
0.0477131
0.0491404
0.0505781
0.0520249
0.0534798
0.0549414
0.0564087
0.0578805
0.0593556
0.0608327
0.0623107
0.0637881
0.0652636
0.0667357
0.068203
0.0696637
0.0711161
0.0725582
0.073988
0.0754034
0.0768018
0.0781808
0.0795376
0.0808694
0.0821732
0.0834461
0.0846851
0.0858869
0.0870486
0.0881671
0.0892395
0.0902629
0.0912346
0.092152
0.093013
0.0938156
0.0945577
0.0952377
0.0958551
0.0964075
0.096894
0.0973139
0.0976666
0.0979509
0.0981675
0.098317
0.0984012
0.0984206
0.0983756
0.0982578
0.0980721
0.0978226
0.0975096
0.0971332
0.0966933
0.0961905
0.0956273
0.0950053
0.0943265
0.0935927
0.0928058
0.091969
0.0910845
0.0901545
0.0891816
0.0881687
0.087119
0.0860351
0.0849203
0.0837775
0.0826101
0.0814212
0.0802143
0.0789924
0.0777588
0.0765167
0.0752691
0.0740189
0.072769
0.0715218
0.0702799
0.0690456
0.0678208
0.0666076
0.0654075
0.0642222
0.0630529
0.0619009
0.0607672
0.0596525
0.0585575
0.057483
0.0564292
0.0553965
0.0543851
0.0533952
0.0524267
0.0514796
0.0505539
0.0496492
0.0487655
0.0479024
0.0470596
0.0462369
0.0454337
0.0446498
0.0438848
0.0431382
0.0424096
0.0416985
0.0410047
0.0403275
0.0396666
0.0390216
0.0383921
0.0377775
0.0371776
0.0365919
0.03602
0.0354615
0.0349162
0.0343836
0.0338633
0.0333551
0.0328586
0.0323735
0.0318996
0.0314365
0.030984
0.0305418
0.0301098
0.0296877
0.0292752
0.0288724
0.0284789
0.0280948
0.0277199
0.0273544
0.0269983
0.0266518
0.0263153
0.0259892
0.0256743
0.0253713
0.0250812
0.0248048
0.0245197
0.00734246
0.00824964
0.0104466
0.0121978
0.013635
0.0148887
0.0160319
0.017108
0.0181439
0.0191568
0.0201594
0.0211609
0.022168
0.0231883
0.0242258
0.0252831
0.0263623
0.0274645
0.0285908
0.029742
0.0309183
0.0321201
0.0333472
0.0345993
0.0358763
0.0371774
0.0385021
0.0398496
0.041219
0.0426094
0.0440199
0.0454495
0.0468969
0.0483611
0.0498406
0.0513342
0.0528404
0.0543576
0.0558843
0.0574188
0.0589594
0.0605043
0.0620515
0.0635992
0.0651453
0.0666878
0.0682242
0.0697524
0.0712699
0.0727743
0.0742627
0.0757327
0.0771812
0.0786054
0.0800022
0.0813684
0.082701
0.0839968
0.0852528
0.0864658
0.0876332
0.088752
0.0898199
0.0908343
0.0917932
0.0926946
0.0935373
0.0943197
0.0950418
0.095702
0.0962992
0.0968308
0.0972963
0.0977001
0.0980434
0.098327
0.0985515
0.0987183
0.0988323
0.0988915
0.0988952
0.098844
0.0987277
0.0985533
0.0983243
0.098041
0.0977052
0.0973147
0.0968688
0.0963678
0.0958122
0.0952027
0.0945401
0.0938241
0.0930543
0.0922338
0.0913651
0.0904503
0.0894917
0.0884926
0.0874551
0.086382
0.0852761
0.084141
0.0829798
0.0817959
0.0805927
0.0793736
0.078142
0.0769013
0.0756545
0.0744047
0.0731549
0.0719076
0.0706654
0.0694307
0.0682056
0.0669919
0.0657914
0.0646058
0.0634362
0.0622839
0.0611498
0.0600348
0.0589396
0.0578647
0.0568106
0.0557775
0.0547656
0.0537751
0.052806
0.0518581
0.0509314
0.0500257
0.0491408
0.0482764
0.0474322
0.0466078
0.0458029
0.0450171
0.0442501
0.0435013
0.0427704
0.042057
0.0413606
0.0406808
0.0400173
0.0393695
0.038737
0.0381195
0.0375166
0.0369278
0.0363528
0.0357913
0.0352428
0.0347069
0.0341835
0.0336721
0.0331725
0.0326843
0.0322073
0.0317411
0.0312857
0.0308406
0.0304057
0.0299808
0.0295658
0.0291605
0.0287648
0.0283786
0.0280021
0.0276352
0.0272782
0.0269313
0.026595
0.0262699
0.0259567
0.0256562
0.0253682
0.0250756
0.00739584
0.00810323
0.0102562
0.0120165
0.0134749
0.0147539
0.015923
0.0170225
0.0180804
0.0191152
0.0201396
0.0211628
0.0221921
0.0232338
0.0242908
0.0253658
0.0264607
0.0275771
0.0287156
0.0298792
0.0310688
0.0322851
0.0335285
0.0347992
0.0360972
0.0374225
0.038775
0.0401542
0.0415597
0.0429907
0.0444465
0.0459259
0.0474278
0.0489509
0.0504934
0.0520536
0.0536298
0.0552198
0.0568214
0.0584324
0.0600503
0.0616724
0.0632961
0.0649186
0.0665368
0.068148
0.0697487
0.0713359
0.0729064
0.0744566
0.0759833
0.0774831
0.0789523
0.0803876
0.0817855
0.0831425
0.0844554
0.0857209
0.0869362
0.0880985
0.0892052
0.0902543
0.091244
0.0921727
0.0930391
0.0938424
0.0945831
0.095259
0.0958664
0.0964074
0.0968869
0.0973079
0.097679
0.0979969
0.0982616
0.0984744
0.0986366
0.0987502
0.0988174
0.0988405
0.0988196
0.0987513
0.0986316
0.0984679
0.0982605
0.0980091
0.0977139
0.0973704
0.0969789
0.0965388
0.0960496
0.095511
0.0949228
0.0942861
0.0936006
0.0928644
0.0920779
0.0912421
0.0903571
0.0894246
0.0884483
0.0874314