/*--------------------------------*- C++ -*----------------------------------*\
| =========                 |                                                 |
| \\      /  F ield         | OpenFOAM: The Open Source CFD Toolbox           |
|  \\    /   O peration     | Version:  2212                                  |
|   \\  /    A nd           | Website:  www.openfoam.com                      |
|    \\/     M anipulation  |                                                 |
\*---------------------------------------------------------------------------*/
FoamFile
{
    version     2.0;
    format      ascii;
    arch        "LSB;label=32;scalar=64";
    class       volScalarField;
    location    "1.8e-05";
    object      T;
}
// * * * * * * * * * * * * * * * * * * * * * * * * * * * * * * * * * * * * * //

dimensions      [0 0 0 1 0 0 0];

internalField   nonuniform List<scalar> 
34861
(
400
400
400
400
400
400
400
400
400
400
400
400
400
400
400
400
400
400
400
400
400
400
400
400
400
400
400
400
400
400
400
400
400
400
400
400
400
400
400
400
400
400
400
400
400
400
400
400
400
400
400
400
400
400
400
400
400
400
400
400
400
400
400
400
400
400
400
400
400
400
400
400
400
400
400
400
400
400
400
400
400
400
400
400
400
400
400
400
400
400
400
400
400
400
400
400
400
400
400
400
400
400
400
400
400
400
400
400
400
400
400
400
400
400
400
400
400
400
400
400
400
400
400
400
400
400
400
400
400
400
400
400
400
400
400
400
400
400
400
400
400
400
400
400
400
400
400
400
400
400
400
400
400
400
400
400
400
400
400
400
400
400
400
400
400
400
400
400
400
400
400
400
400
400
400
400
400
400
400
400
400
400
400
400
400
400
400
400
400
400
400
400
400
400
400
400
400
400
400
400
400
400
400
400
400
400
400
400
400
400
400
400
400
400
400
400
400
400
400
400
400
400
400
400
400
400
400
400
400
400
400
400
400
400
400
400
400
400
400
400
400
400
400
400
400
400
400
400
400
400
400
400
400
400
400
400
400
400
400
400
400
400
400
400
400
400
400
400
400
400
400
400
400
400
400
400
400
400
400
400
400
400
400
400
400
400
400
400
400
400
400
400
400
400
400
400
400
400
400
400
400
400
400
400
400
400
400
400
400
400
400
400
400
400
400
400
400
400
400
400
400
400
400
400
400
400
400
400
400
400
400
400
400
400
400
400
400
400
400
400
400
400
400
400
400
400
400
400
400
400
400
400
400
400
400
400
400
400
400
400
400
400
400
400
400
400
400
400
400
400
400
400
400
400
400
400
400
400
400
400
400
400
400
400
400
400
400
400
400
400
400
400
400
400
400
400
400
400
400
400
400
400
400
400
400
400
400
400
400
400
400
400
400
400
400
400
400
400
400
400
400
400
400
400
400
400
400
400
400
400
400
400
400
400
400
400
400
400
400
400
400
400
400
400
400
400
400
400
400
400
400
400
400
400
400
400
400
400
400
400
400
400
400
400
400
400
400
400
400
400
400
400
400
400
400
400
400
400
400
400
400
400
400
400
400
400
400
400
400
400
400
400
400
400
400
400
400
400
400
400
400
400
400
400
400
400
400
400
400
400
400
400
400
400
400
400
400
400
400
400
400
400
400
400
400
400
400
400
400
400
400
400
400
400
400
400
400
400
400
400
400
400
400
400
400
400
400
400
400
400
400
400
400
400
400
400
400
400
400
400
400
400
400
400
400
400
400
400
400
400
400
400
400
400
400
400
400
400
400
400
400
400
400
400
400
400
400
400
400
400
400
400
400
400
400
400
400
400
400
400
400
400
400
400
400
400
400
400
400
400
400
400
400
400
400
400
400
400
400
400
400
400
400
400
400
400
400
400
400
400
400
400
400
400
400
400
400
400
400
400
400
400
400
400
400
400
400
400
400
400
400
400
400
400
400
400
400
400
400
400
400
400
400
400
400
400
400
400
400
400
400
400
400
400
400
400
400
400
400
400
400
400
400
400
400
400
400
400
400
400
400
400
400
400
400
400
400
400
400
400
400
400
400
400
400
400
400
400
400
400
400
400
400
400
400
400
400
400
400
400
400
400
400
400
400
400
400
400
400
400
400
400
400
400
400
400
400
400
400
400
400
400
400
400
400
400
400
400
400
400
400
400
400
400
400
400
400
400
400
400
400
400
400
400
400
400
400
400
400
400
400
400
400
400
400
400
400
400
400
400
400
400
400
400
400
400
400
400
400
400
400
400
400
400
400
400
400
400
400
400
400
400
400
400
400
400
400
400
400
400
400
400
400
400
400
400
400
400
400
400
400
400
400
400
400
400
400
400
400
400
400
400
400
400
400
400
400
400
400
400
400
400
400
400
400
400
400
400
400
400
400
400
400
400
400
400
400
400
400
400
400
400
400
400
400
400
400
400
400
400
400
400
400
400
400
400
400
400
400
400
400
400
400
400
400
400
400
400
400
400
400
400
400
400
400
400
400
400
400
400
400
400
400
400
400
400
400
400
400
400
400
400
400
400
400
400
400
400
400
400
400
400
400
400
400
400
400
400
400
400
400
400
400
400
400
400
400
400
400
400
400
400
400
400
400
400
400
400
400
400
400
400
400
400
400
400
400
400
400
400
400
400
400
400
400
400
400
400
400
400
400
400
400
400
400
400
400
400
400
400
400
400
400
400
400
400
400
400
400
400
400
400
400
400
400
400
400
400
400
400
400
400
400
400
400
400
400
400
400
400
400
400
400
400
400
400
400
400
400
400
400
400
400
400
400
400
400
400
400
400
400
400
400
400
400
400
400
400
400
400
400
400
400
400
400
400
400
400
400
400
400
400
400
400
400
400
400
400
400
400
400
400
400
400
400
400
400
400
400
400
400
400
400
400
400
400
400
400
400
400
400
400
400
400
400
400
400
400
400
400
400
400
400
400
400
400
400
400
400
400
400
400
400
400
400
400
400
400
400
400
400
400
400
400
400
400
400
400
400
400
400
400
400
400
400
400
400
400
400
400
400
400
400
400
400
400
400
400
400
400
400
400
400
400
400
400
400
400
400
400
400
400
400
400
400
400
400
400
400
400
400
400
400
400
400
400
400
400
400
400
400
400
400
400
400
400
400
400
400
400
400
400
400
400
400
400
400
400
400
400
400
400
400
400
400
400
400
400
400
400
400
400
400
400
400
400
400
400
400
400
400
400
400
400
400
400
400
400
400
400
400
400
400
400
400
400
400
400
400
400
400
400
400
400
400
400
400
400
400
400
400
400
400
400
400
400
400
400
400
400
400
400
400
400
400
400
400
400
400
400
400
400
400
400
400
400
400
400
400
400
400
400
400
400
400
400
400
400
400
400
400
400
400
400
400
400
400
400
400
400
400
400
400
400
400
400
400
400
400
400
400
400
400
400
400
400
400
400
400
400
400
400
400
400
400
400
400
400
400
400
400
400
400
400
400
400
400
400
400
400
400
400
400
400
400
400
400
400
400
400
400
400
400
400
400
400
400
400
400
400
400
400
400
400
400
400
400
400
400
400
400
400
400
400
400
400
400
400
400
400
400
400
400
400
400
400
400
400
400
400
400
400
400
400
400
400
400
400
400
400
400
400
400
400
400
400
400
400
400
400
400
400
400
400
400
400
400
400
400
400
400
400
400
400
400
400
400
400
400
400
400
400
400
400
400
400
400
400
400
400
400
400
400
400
400
400
400
400
400
400
400
400
400
400
400
400
400
400
400
400
400
400
400
400
400
400
400
400
400
400
400
400
400
400
400
400
400
400
400
400
400
400
400
400
400
400
400
400
400
400
400
400
400
400
400
400
400
400
400
400
400
400
400
400
400
400
400
400
400
400
400
400
400
400
400
400
400
400
400
400
400
400
400
400
400
400
400
400
400
400
400
400
400
400
400
400
400
400
400
400
400
400
400
400
400
400
400
400
400
400
400
400
400
400
400
400
400
400
400
400
400
400
400
400
400
400
400
400
400
400
400
400
400
400
400
400
400
400
400
400
400
400
400
400
400
400
400
400
400
400
400
400
400
400
400
400
400
400
400
400
400
400
400
400
400
400
400
400
400
400
400
400
400
400
400
400
400
400
400
400
400
400
400
400
400
400
400
400
400
400
400
400
400
400
400
400
400
400
400
400
400
400
400
400
400
400
400
400
400
400
400
400
400
400
400
400
400
400
400
400
400
400
400
400
400
400
400
400
400
400
400
400
400
400
400
400
400
400
400
400
400
400
400
400
400
400
400
400
400
400
400
400
400
400
400
400
400
400
400
400
400
400
400
400
400
400
400
400
400
400
400
400
400
400
400
400
400
400
400
400
400
400
400
400
400
400
400
400
400
400
400
400
400
400
400
400
400
400
400
400
400
400
400
400
400
400
400
400
400
400
400
400
400
400
400
400
400
400
400
400
400
400
400
400
400
400
400
400
400
400
400
400
400
400
400
400
400
400
400
400
400
400
400
400
400
400
400
400
400
400
400
400
400
400
400
400
400
400
400
400
400
400
400
400
400
400
400
400
400
400
400
400
400
400
400
400
400
400
400
400
400
400
400
400
400
400
400
400
400
400
400
400
400
400
400
400
400
400
400
400
400
400
400
400
400
400
400
400
400
400
400
400
400
400
400
400
400
400
400
400
400
400
400
400
400
400
400
400
400
400
400
400
400
400
400
400
400
400
400
400
400
400
400
400
400
400
400
400
400
400
400
400
400
400
400
400
400
400
400
400
400
400
400
400
400
400
400
400
400
400
400
400
400
400
400
400
400
400
400
400
400
400
400
400
400
400
400
400
400
400
400
400
400
400
400
400
400
400
400
400
400
400
400
400
400
400
400
400
400
400
400
400
400
400
400
400
400
400
400
400
400
400
400
400
400
400
400
400
400
400
400
400
400
400
400
400
400
400
400
400
400
400
400
400
400
400
400
400
400
400
400
400
400
400
400
400
400
400
400
400
400
400
400
400
400
400
400
400
400
400
400
400
400
400
400
400
400
400
400
400
400
400
400
400
400
400
400
400
400
400
400
400
400
400
400
400
400
400
400
400
400
400
400
400
400
400
400
400
400
400
400
400
400
400
400
400
400
400
400
400
400
400
400
400
400
400
400
400
400
400
400
400
400
400
400
400
400
400
400
400
400
400
400
400
400
400
400
400
400
400
400
400
400
400
400
400
400
400
400
400
400
400
400
400
400
400
400
400
400
400
400
400
400
400
400
400
400
400
400
400
400
400
400
400
400
400
400
400
400
400
400
400
400
400
400
400
400
400
400
400
400
400
400
400
400
400
400
400
400
400
400
400
400
400
400
400
400
400
400
400
400
400
400
400
400
400
400
400
400
400
400
400
400
400
400
400
400
400
400
400
400
400
400
400
400
400
400
400
400
400
400
400
400
400
400
400
400
400
400
400
400
400
400
400
400
400
400
400
400
400
400
400
400
400
400
400
400
400
400
400
400
400
400
400
400
400
400
400
400
400
400
400
400
400
400
400
400
400
400
400
400
400
400
400
400
400
400
400
400
400
400
400
400
400
400
400
400
400
400
400
400
400
400
400
400
400
400
400
400
400
400
400
400
400
400
400
400
400
400
400
400
400
400
400
400
400
400
400
400
400
400
400
400
400
400
400
400
400
400
400
400
400
400
400
400
400
400
400
400
400
400
400
400
400
400
400
400
400
400
400
400
400
400
400
400
400
400
400
400
400
400
400
400
400
400
400
400
400
400
400
400
400
400
400
400
400
400
400
400
400
400
400
400
400
400
400
400
400
400
400
400
400
400
400
400
400
400
400
400
400
400
400
400
400
400
400
400
400
400
400
400
400
400
400
400
400
400
400
400
400
400
400
400
400
400
400
400
400
400
400
400
400
400
400
400
400
400
400
400
400
400
400
400
400
400
400
400
400
400
400
400
400
400
400
400
400
400
400
400
400
400
400
400
400
400
400
400
400
400
400
400
400
400
400
400
400
400
400
400
400
400
400
400
400
400
400
400
400
400
400
400
400
400
400
400
400
400
400
400
400
400
400
400
400
400
400
400
400
400
400
400
400
400
400
400
400
400
400
400
400
400
400
400
400
400
400
400
400
400
400
400
400
400
400
400
400
400
400
400
400
201.706
252.973
234.281
240.417
240.668
243.202
244.237
246.598
247.756
250.347
251.7
254.49
255.862
258.734
260.298
263.691
265.677
269.002
270.935
274.678
276.564
280.385
282.497
285.807
287.671
291.436
293.989
297.666
300.863
304.382
307.702
310.977
314.185
317.479
320.804
324.13
327.301
330.345
333.521
336.929
340.358
343.688
346.879
350.018
353.233
356.688
360.268
363.763
366.98
369.935
372.745
375.527
378.334
381.175
384.01
386.701
389.206
391.56
393.789
395.746
397.221
398.232
398.893
399.32
399.593
399.764
399.867
399.929
399.962
399.98
399.99
399.995
399.998
399.999
400
400
400
400
400
400
400
400
400
400
400
400
400
400
400
400
400
400
400
400
400
400
400
400
400
400
400
98.4749
129.921
114.202
118.329
118.286
122.216
124.132
124.812
124.671
127.151
128.901
130.572
134.099
138.462
140.369
141.002
144.087
145.653
148.647
149.99
155.6
158.269
161.502
164.736
166.944
169.473
172.705
175.781
177.296
180.033
182.843
186.65
189.404
189.698
194.814
197.608
199.487
200.542
199.236
198.199
197.565
200.68
202.527
200.391
198.378
197.841
198.429
197.857
197.602
199.618
202.66
204.813
205.119
204.147
198.628
201.547
203.336
203.166
201.556
200.68
200.219
197.696
195.844
194.581
195.04
196.266
197.375
196.739
194.548
194.396
195.282
198.016
202.06
201.311
199.347
196.824
196.828
199.305
198.652
98.1142
131.353
114.418
118.777
117.403
120.022
120.633
123.356
124.788
127.559
131.265
133.394
135.867
135.615
137.298
139.33
141.091
142.305
146.609
148.646
153.342
156.221
159.703
159.976
164.473
164.636
164.88
170.901
172.301
174.649
174.481
175.34
178.681
180.762
181.797
182.715
183.283
182.911
184.247
183.406
183.673
185.142
187.769
190.127
190.168
187.552
185.486
186.333
187.109
185.695
185.219
185.915
189.969
191.032
190.133
188.529
188.7
190.317
188.201
185.422
187.475
190.864
190.42
188.338
189.356
189.547
186.194
185.914
185.133
185.553
186.694
185.662
185.991
185.399
185.091
184.361
185.206
185.291
186.93
186.788
186.44
185.894
185.912
187.169
188.165
189.943
191.325
188.383
187.209
186.494
186.494
185.825
185.286
184.741
184.435
185.952
186.994
186.195
186.601
186.737
186.279
184.753
185.894
186.36
187.831
188.783
189.284
186.975
184.903
184.234
184.578
183.928
185.596
185.187
185.13
185.021
184.51
185.846
187.693
189.225
193.377
191.91
186.688
185.272
184.517
184.084
183.956
184.428
184.103
184.144
185.264
186.257
187.56
189.789
188.619
190.796
190.472
186.205
185.107
184.377
186.849
186.693
187.305
188.106
188.729
192.086
191.079
189.757
188.069
185.688
184.686
184.345
184.596
185.351
186.868
186.708
186.941
186.088
185.312
184.359
184.308
185.101
186.198
186.343
189.745
191.551
193.848
193.251
190.719
190.707
191.101
188.278
185.513
184.558
185.761
185.601
183.521
183.261
183.244
187.196
189.153
189.288
188.67
187.163
186.094
185.518
184.27
185.329
187.379
188.952
190.919
189.481
188.939
186.404
185.001
186.272
189.918
190.773
191.137
187.879
186.631
185.282
185.031
184.511
185.382
185.652
184.62
184.803
185.616
185.718
187.21
188.116
188.645
187.493
184.624
185.614
185.987
185.677
185.731
185.43
184.758
184.297
184.429
185.601
186.195
186.837
186.478
184.767
184.322
184.656
187.71
190.837
190.439
188.951
186.71
186.862
187.395
187.611
188.626
192.282
191.574
191.645
187.313
185.767
186.002
185.747
185.911
188.042
186.515
185.767
185.519
184.837
184.077
186.505
189.244
189.351
187.06
184.154
183.415
185.11
184.915
185.064
182.712
180.017
179.758
177.844
174.424
171.455
168.885
166.596
163.951
160.676
159.82
157.665
155.628
151.577
151.122
149.74
145.005
143.67
139.989
137.314
135.386
131.775
131.179
129.879
126.108
123.298
122.256
121.249
121.62
119.424
118.333
113.577
130.3
204.421
203.308
200.854
201.979
203.917
200.313
198.682
199.619
201.383
200.985
199.698
199.62
199.298
199.368
200.573
203.405
204.714
202.513
199.89
198.301
201.974
203.659
202.943
202.385
199.379
198.061
198.293
198.965
199.977
202.839
203.491
201.176
199.486
199.097
200.214
200.441
198.746
199.353
200.278
199.294
198.181
199.679
199.664
198.231
198.638
197.971
198.246
198.854
200.173
196.613
191.128
190.916
190.723
189.043
184.429
181.063
180.3
181.612
178.524
176.832
170.587
166.467
162.547
162.242
159.345
156.867
157.118
156.06
149.492
145.06
141.943
140.776
136.191
134.438
131.508
127.727
124.405
121.695
123.276
122.014
121.413
120.254
118.269
112.285
127.899
400
400
400
400
400
400
400
400
400
400
400
400
400
400
400
400
400
400
400
400
400
400
400
400
400
400
400
400
400
400
400
400
400
400
400
400
400
400
400
400
400
400
400
400
400
400
400
400
400
400
400
400
400
400
400
400
400
400
400
400
400
400
400
400
400
400
400
400
400
400
400
400
400
400
400
400
400
400
400
400
400
400
400
400
400
400
400
400
400
400
400
400
400
400
400
400
400
400
400
400
400
400
400
400
400
400
400
400
400
400
400
400
400
400
400
400
400
400
400
400
400
400
400
400
400
400
400
400
400
400
400
400
400
400
400
400
400
400
400
400
400
400
400
400
400
400
400
400
400
400
400
400
400
400
400
400
400
400
400
400
400
400
400
400
400
400
400
400
400
400
400
400
400
400
400
400
400
400
400
400
400
400
400
400
400
400
400
400
400
400
400
400
400
400
400
400
400
400
400
400
400
400
400
400
400
400
400
400
400
400
400
400
400
400
400
400
400
400
400
400
400
400
400
400
400
400
400
400
400
400
400
400
400
400
400
400
400
400
400
400
400
400
400
400
400
400
400
400
400
400
400
400
400
400
400
400
400
400
400
400
400
400
400
254.06
172.937
172.515
268.99
400
400
400
400
400
400
400
400
400
240.669
232.593
258.492
242.893
240.473
246.218
243.735
250.219
247.433
254.396
251.578
258.926
255.821
263.867
260.532
269.015
265.534
274.609
270.882
280.092
276.442
286.002
281.956
291.89
288.015
297.864
294.493
304.325
301.013
310.869
307.578
317.429
314.163
323.961
320.701
330.489
327.229
337.01
333.771
343.585
340.285
350.265
346.916
356.937
353.62
363.358
360.188
369.536
366.472
375.62
372.614
381.438
378.562
386.922
384.227
391.869
389.497
395.698
393.947
398.126
397.096
399.293
398.83
399.762
399.584
399.927
399.867
399.979
399.961
399.995
399.99
399.999
399.998
400
400
400
400
400
400
400
400
400
400
400
400
400
400
400
400
400
400
400
400
400
400
400
400
400
400
158.669
152.487
153.844
160.836
157.918
167.223
162.015
175.435
169.84
181.896
179.362
183.714
182.552
191.91
189.593
202.662
199.023
209.555
208.062
216.236
215.998
226.086
220.688
233.881
228.95
242.786
238.455
253.543
249.822
260.951
257.46
268.234
265.842
269.002
268.838
272.103
269.778
277.743
275.422
275.648
278.111
276.968
275.124
280.352
278.291
281.338
280.85
276.285
280.673
267.731
270.58
266.981
267.114
268.289
270.482
265.463
265.603
266.986
265.672
271.272
268.562
274.653
274.341
272.314
273.812
269.504
270.303
272.254
272.237
263.201
269.392
258.87
259.558
260.803
260.45
262.417
161.171
152.298
153.119
165.702
162.205
170.54
167.062
174.501
173.264
177.776
174.837
185.334
183.294
196.912
190.696
201.616
199.74
207.827
206.689
211.737
210.393
213.541
212.832
225.604
221.629
230.699
227.034
236.569
232.696
246.419
241.003
250.856
248.757
256.431
253.474
259.45
258.284
261.729
261.528
257.754
261.335
252.063
252.248
254.677
253.915
257.659
258.398
258.103
256.621
256.942
258.253
250.853
253.25
252.764
252.202
253.733
253.034
257.345
254.835
252.119
254.985
253.482
251.898
253.039
252.888
257.584
254.708
258.353
258.854
257.252
257.641
258.53
257.464
259.832
259.206
257.741
259.168
256.42
256.816
257.473
256.82
255.415
258.332
252.539
253.312
253.013
250.818
256.392
256.882
258.819
258.006
261.166
260.418
258.762
260.25
257.323
257.384
257.099
256.967
259.515
258.001
257.34
259.245
255.171
255.414
257.255
255.6
261.634
260.008
261.486
262.006
259.561
260.36
260.854
259.805
258.678
260.811
251.388
255.866
252.304
251.259
260.059
254.286
262.31
261.335
262.163
261.786
261.689
261.853
258.667
260.898
254.368
255.203
252.939
252.982
254.813
252.896
259.544
260.799
256.562
258.043
256.326
255.546
250.326
252.094
252.396
250.262
257.85
254.628
259.801
260.298
259.585
260.628
255.956
257.287
257.567
257.118
260.266
258.553
260.395
260.598
256.453
260.602
249.153
253.49
248.31
247.713
250.13
248.461
254.742
250.785
257.859
257.384
259.862
258.79
262.054
261.556
256.264
259.509
253.243
253.763
256.735
253.674
258.393
257.498
259.132
259.969
252.52
255.298
251.982
251.765
257.467
253.97
256.593
258.76
251.916
253.491
255.044
252.059
258.792
258.27
260.336
260.261
259.083
258.496
260.055
259.659
259.233
259.594
255.277
256.518
256.505
254.803
258.881
259.018
258.431
259.195
259.146
258.69
261.371
260.662
259.2
260.802
257.492
257.798
260.427
258.217
260.111
261.259
251.542
254.621
255.37
251.014
256.704
256.124
255.369
256.388
250.217
252.97
251.009
248.969
255.665
254.405
259.882
257.938
256.616
258.156
259.22
257.51
260.176
260.296
256.506
260.099
253.191
253.61
258.951
255.785
255.397
258.986
250.757
252.798
249.485
250.983
242.898
245.894
237.815
240.111
232.876
235.914
226.033
229.255
216.259
221.987
208.759
214.295
204.333
207.186
198.825
199.466
194.054
195.545
187.076
191.029
179.999
184.726
174.441
177.861
168.122
172.682
161.73
165.78
160.823
270.78
271.903
242.896
400
400
272.966
273.964
277.543
276.399
274.8
276.784
275.438
274.617
276.576
276.147
273.87
276.161
270.213
271.288
275.327
272.138
273.509
276.971
271.978
272.061
277.141
273.902
279.289
279.143
275.872
277.89
271.864
272.7
276.005
274.094
275.451
276.517
277.316
275.936
276.467
276.672
278.607
278.303
276.812
277.34
276.805
276.536
273.898
275.577
266.233
270.046
266.804
265.814
256.762
261.907
250.088
252.208
241.256
248.272
231.301
237.107
229.621
230.483
225.679
228.781
215.618
222.993
207.346
208.124
198.887
203.234
196.614
198.31
188.701
194.755
183.64
186.922
177.68
179.128
169.957
174.329
162.253
164.067
400
400
400
400
400
400
400
400
400
400
400
400
400
400
400
400
400
400
400
400
400
400
400
400
400
400
400
400
400
400
400
400
400
400
400
400
400
400
400
400
400
400
400
400
400
400
400
400
400
400
400
400
400
400
400
400
400
400
400
400
400
400
400
400
400
400
400
400
400
400
400
400
400
400
400
400
400
400
400
400
400
400
400
400
400
400
400
400
400
400
400
400
400
400
400
400
400
400
400
400
400
400
400
400
400
400
400
400
400
400
400
400
400
400
400
400
400
400
400
400
400
400
400
400
400
400
400
400
400
400
400
400
400
400
400
400
400
400
400
400
400
400
400
400
400
400
400
400
400
400
400
400
400
400
400
400
400
400
400
400
400
400
400
400
400
400
400
400
400
400
400
400
400
400
400
400
400
400
400
400
400
400
400
400
400
400
400
400
400
400
400
400
400
400
400
400
400
400
400
400
400
400
400
400
400
400
400
400
400
400
400
400
400
400
400
400
400
400
400
400
400
400
400
400
400
400
400
400
400
400
400
400
400
400
400
400
400
400
400
400
400
400
400
400
400
400
400
400
400
400
400
400
400
400
400
400
400
400
400
400
400
400
400
400
400
400
400
400
400
400
400
400
400
400
400
400
400
400
400
400
400
400
400
400
400
400
400
400
400
400
400
400
400
400
400
400
400
400
400
400
400
400
400
400
400
400
400
400
400
400
400
400
400
400
400
400
400
400
400
400
400
400
400
400
400
400
400
400
400
400
400
400
400
400
400
400
400
400
400
400
400
400
400
400
400
400
400
400
400
400
400
400
400
400
400
400
400
400
400
400
400
400
400
400
400
400
400
400
400
400
400
400
399.998
399.999
399.985
399.994
399.919
399.965
399.632
399.823
398.654
399.276
396.273
397.668
392.228
394.461
386.392
389.525
378.991
382.868
370.369
374.808
361.073
365.764
351.628
356.321
342.152
346.834
332.876
337.358
323.946
328.287
315.181
319.549
306.308
311.278
297.7
303.466
290.169
295.334
282.359
287.458
274.705
279.956
267.345
272.034
260.314
265.149
253.413
258.303
253.008
400
400
400
400
400
400
400
400
400
400
400
400
400
400
400
400
400
400
400
400
400
400
400
400
400
400
400
400
400
400
400
400
400
400
400
400
400
400
400
400
400
400
400
400
400
400
400
400
400
400
400
400
400
400
400
400
400
400
400
400
400
400
400
400
400
400
400
400
400
400
400
400
400
400
400
400
400
400
400
400
400
400
400
400
400
400
400
400
400
400
400
400
400
400
400
400
400
400
400
400
400
400
400
400
400
400
400
400
400
400
400
400
400
400
400
400
400
400
400
400
400
400
400
400
400
400
400
400
400
400
400
400
400
400
400
400
400
400
400
400
400
400
400
400
400
400
400
400
400
400
400
400
400
400
400
400
400
400
400
400
400
400
400
400
400
400
400
400
400
400
400
400
400
400
400
400
400
400
400
400
400
400
400
400
400
400
400
400
400
400
400
400
400
400
400
400
400
400
400
400
400
400
400
400
400
400
400
400
400
400
400
400
400
400
400
400
400
400
400
400
400
400
400
400
400
400
400
232.048
400
135.065
158.419
157.616
134.612
242.405
400
400
400
400
400
400
400
400
400
400
400
400
400
400
400
400
400
242.933
246.16
243.681
250.374
247.461
254.548
251.76
258.977
255.983
263.832
260.625
269.057
265.55
274.667
270.994
280.062
276.495
285.988
281.937
291.803
287.986
297.932
294.528
304.383
301.03
310.929
307.631
317.51
314.218
323.989
320.777
330.447
327.214
336.99
333.71
343.562
340.268
350.205
346.874
356.9
353.548
363.416
360.203
369.537
366.523
375.531
372.546
381.347
378.487
386.83
384.14
391.758
389.39
395.636
393.863
398.09
397.046
399.273
398.804
399.756
399.572
399.925
399.863
399.977
399.958
399.994
399.988
399.999
399.997
400
399.999
400
400
400
400
400
400
400
400
400
400
400
400
400
400
400
400
400
400
400
400
400
400
400
400
143.5
146.95
144.347
151.125
147.897
157.489
153.89
162.547
161.09
168.233
166.784
174.761
172.43
180.395
178.676
188.625
187.141
197.199
192.724
203.173
199.777
210.465
207.733
217.521
214.331
224.686
220.734
230.194
227.805
236.626
233.851
239.847
238.637
240.28
240.057
241.77
240.804
241.985
242.371
240.78
241.137
240.233
240.627
241.355
240.206
242.752
242.136
240.784
242.555
239.663
238.817
239.676
240.149
239.083
238.765
237.924
238.516
236.247
237.026
236.705
236.357
236.526
236.837
234.899
235.966
234.797
235.079
235.886
236.553
233.395
235.312
232.808
240.046
400
143.579
146.986
144.303
153.184
149.387
156.576
154.865
161.298
160.577
167.984
163.235
171.223
169.863
178.371
176.147
185.971
182.828
188.943
188.633
196.197
194.584
202.619
197.275
207.302
204.557
211.365
209.08
216.932
214.172
220.435
218.666
221.652
221.515
222.583
222.554
224.101
223.069
225.339
223.725
223.901
225.946
223.757
223.294
223.699
223.89
223.891
223.188
225.023
225.137
224.306
225.187
225.083
224.37
223.161
224.159
224.937
223.932
224.361
225.019
224.475
224.815
223.14
223.412
223.683
223.346
224.212
224.124
223.869
224.206
223.381
223.575
223.937
223.664
224.263
224.464
223.725
224.245
224.19
224.041
225.387
224.099
224.313
225.118
224.158
224.838
223.736
224.114
223.55
223.615
224.078
223.485
224.249
224.333
224.31
224.371
223.746
223.972
224.015
223.592
225.149
224.763
224.727
225.394
223.641
223.77
223.556
223.678
224.035
224.062
223.472
223.841
223.832
223.212
225.041
225.05
226.783
227.193
223.832
224.015
223.01
222.941
223.544
223.178
222.919
223.201
224.465
223.891
225.686
224.233
226.183
225.358
223.46
225.336
222.948
224.137
224.129
224.078
225.285
224.057
225.533
224.435
224.712
224.906
223.043
224.168
222.435
222.509
224.007
223.447
223.832
224.306
223.885
224.322
223.109
223.437
223.313
223.064
223.34
224.025
225.312
224.969
226.119
226.215
224.793
224.521
224.024
225.12
222.616
223.265
223.348
223.202
222.512
222.379
224.273
222.242
224.68
224.868
224.668
224.404
223.396
223.443
223.673
223.041
224.357
224.298
224.444
225.461
223.714
224.218
224.214
223.329
225.81
225.486
225.049
225.886
223.406
224.197
223.436
223.603
223.849
223.913
223.6
223.497
223.958
223.71
224.938
224.715
224.476
224.84
223.897
223.525
224.036
224.345
224.102
223.974
223.73
224.141
224.311
223.739
224.597
224.619
223.562
224.208
223.464
223.062
225.065
224.561
225.092
224.852
223.608
223.617
224.058
223.988
225.915
224.814
225.854
225.211
223.014
224.674
223.74
223.731
224.676
223.712
223.841
224.168
223.345
223.684
224.396
223.435
225.149
225.181
222.859
224.197
222.132
222.291
220.246
221.267
215.75
218.197
212.147
214.509
205.538
208.39
200.007
202.979
193.827
196.93
188.098
191.682
180.905
186.065
177.938
180.424
172.243
173.704
166.11
168.535
159.376
162.719
154.433
157.692
148.947
152.178
144.55
147.286
141.17
143.772
140.637
141.04
140.543
240.501
240.481
240.514
241.318
240.889
240.973
241.555
240.801
240.993
241.525
240.788
242.738
242.416
241.165
241.96
241.772
240.525
242.512
242.352
241.165
242.2
240.588
240.56
241.749
240.963
242.583
242.415
241.135
241.83
241.068
240.864
240.763
241.373
241.188
240.933
240.537
240.674
240.825
240.972
240.233
240.399
238.883
239.57
237.189
238.265
231.015
234.278
226.662
228.831
220.332
223.944
213.942
217.612
209.082
213.577
203.059
207.539
194.506
199.163
189.323
193.543
185.711
185.306
177.246
182.549
170.719
173.74
163.126
168.358
157.937
161.756
151.612
153.806
146.018
147.785
143.274
143.912
400
400
400
400
400
400
400
400
400
400
400
400
400
400
400
400
400
400
400
400
400
400
400
400
400
400
400
400
400
400
400
400
400
400
400
400
400
400
400
400
400
400
400
400
400
400
400
400
400
400
400
400
400
400
400
400
400
400
400
400
400
400
400
400
400
400
400
400
400
400
400
400
400
400
400
400
400
400
400
400
400
400
400
400
400
400
400
400
400
400
400
400
400
400
400
400
400
400
400
400
400
400
400
400
400
400
400
400
400
400
400
400
400
400
400
400
400
400
400
400
400
400
400
400
400
400
400
400
400
400
400
400
400
400
400
400
400
400
400
400
400
400
400
400
400
400
400
400
400
400
400
400
400
400
400
400
400
400
400
400
400
400
400
400
400
400
400
400
400
400
400
400
400
400
400
400
400
400
400
400
400
400
400
400
400
400
400
400
400
400
400
400
400
400
400
400
400
400
400
400
400
400
400
400
400
400
400
400
400
400
400
400
400
400
400
400
400
400
400
400
400
400
400
400
400
400
400
400
400
400
400
400
400
400
400
400
400
400
400
400
400
400
400
400
400
400
400
400
400
400
400
400
400
400
400
400
400
400
400
400
400
400
400
400
400
400
400
400
400
400
400
400
400
400
400
400
400
400
400
400
400
400
400
400
400
400
400
400
400
400
400
400
400
400
400
400
400
400
400
400
400
400
400
400
400
400
400
400
400
400
400
400
400
400
400
400
400
400
400
400
400
400
400
400
400
400
400
400
400
400
400
400
400
400
400
400
400
400
400
400
400
400
400
400
400
400
400
400
400
400
400
400
400
400
400
400
400
399.998
399.999
399.985
399.994
399.919
399.965
399.632
399.823
398.67
399.277
396.335
397.708
392.273
394.528
386.454
389.577
379.051
382.926
370.433
374.858
361.138
365.842
351.724
356.414
342.299
346.962
333.034
337.57
324.079
328.425
315.285
319.661
306.407
311.285
297.811
303.436
290.081
295.432
282.402
287.54
274.734
279.956
267.191
272.058
260.197
265.009
253.503
258.219
253.023
400
400
400
400
400
400
400
400
400
400
400
400
400
400
400
400
400
400
400
400
400
400
400
400
400
400
400
400
400
400
400
400
400
400
400
400
400
400
400
400
400
400
400
400
400
400
400
400
400
400
400
400
400
400
400
400
400
400
400
400
400
400
400
400
400
400
400
400
400
400
400
400
400
400
400
400
400
400
400
400
400
400
400
400
400
400
400
400
400
400
400
400
400
400
400
400
400
400
400
400
400
400
400
400
400
400
400
400
400
400
400
400
400
400
400
400
400
400
400
400
400
400
400
400
400
400
400
400
400
400
400
400
400
400
400
400
400
400
400
400
400
400
400
400
400