/*--------------------------------*- C++ -*----------------------------------*\
| =========                 |                                                 |
| \\      /  F ield         | OpenFOAM: The Open Source CFD Toolbox           |
|  \\    /   O peration     | Version:  2212                                  |
|   \\  /    A nd           | Website:  www.openfoam.com                      |
|    \\/     M anipulation  |                                                 |
\*---------------------------------------------------------------------------*/
FoamFile
{
    version     2.0;
    format      ascii;
    arch        "LSB;label=32;scalar=64";
    class       surfaceScalarField;
    location    "0.358";
    object      phi;
}
// * * * * * * * * * * * * * * * * * * * * * * * * * * * * * * * * * * * * * //

dimensions      [0 3 -1 0 0 0 0];

oriented        oriented;

internalField   nonuniform List<scalar> 
69808
(
4.69448e-08
-9.86959e-05
-1.84471
-5.24552e-08
-9.84056e-05
-1.84476
-1.51927e-08
-9.85343e-05
-1.84476
-2.86683e-08
-9.84865e-05
-1.84476
-1.1577e-08
-9.84875e-05
-1.84476
-1.25582e-08
-9.84496e-05
-1.84476
-6.59468e-09
-9.84246e-05
-1.84476
-7.17668e-09
-9.83876e-05
-1.84476
-6.54016e-09
-9.83539e-05
-1.84476
-7.4713e-09
-9.83172e-05
-1.84476
-8.37119e-09
-9.82817e-05
-1.84476
-7.48668e-09
-9.82477e-05
-1.84476
-7.7653e-09
-9.82135e-05
-1.84476
-1.0326e-09
-9.81859e-05
-1.84476
-9.76281e-10
-9.81521e-05
-1.84476
1.63526e-08
-9.81364e-05
-1.84476
3.88268e-09
-9.80926e-05
-1.84476
4.41606e-08
-9.81051e-05
-1.84476
-5.56881e-08
-9.79519e-05
-1.84476
-9.8218e-05
-1.84472
-3.10744e-07
0.00218518
-1.84463
-4.38896e-07
0.00218553
-1.84468
-6.0119e-07
0.0021854
-1.84468
-7.4902e-07
0.00218537
-1.84468
-8.70856e-07
0.00218527
-1.84468
-9.68332e-07
0.00218519
-1.84468
-1.03456e-06
0.00218508
-1.84468
-1.07234e-06
0.00218498
-1.84468
-1.08099e-06
0.00218486
-1.84468
-1.06038e-06
0.00218475
-1.84468
-1.01358e-06
0.00218465
-1.84468
-9.4425e-07
0.00218455
-1.84468
-8.57086e-07
0.00218447
-1.84468
-7.54311e-07
0.00218439
-1.84468
-6.42232e-07
0.00218434
-1.84468
-5.18768e-07
0.00218429
-1.84468
-3.87663e-07
0.00218428
-1.84468
-2.40021e-07
0.00218423
-1.84468
-3.8757e-08
0.0021843
-1.84468
0.00218394
-1.84463
2.52371e-08
0.00388255
-1.84996
2.02401e-07
0.00388297
-1.85001
3.33483e-07
0.00388284
-1.85001
4.60017e-07
0.00388271
-1.85001
5.65556e-07
0.00388252
-1.85001
6.40031e-07
0.00388234
-1.85001
6.91232e-07
0.00388211
-1.85001
7.18188e-07
0.00388188
-1.85001
7.24449e-07
0.00388163
-1.85001
7.09599e-07
0.00388138
-1.85001
6.77157e-07
0.00388114
-1.85001
6.3112e-07
0.00388092
-1.85001
5.74861e-07
0.00388071
-1.85001
5.12557e-07
0.00388053
-1.85001
4.45547e-07
0.00388038
-1.85001
3.84519e-07
0.00388023
-1.85001
3.21936e-07
0.00388015
-1.85001
2.43513e-07
0.00388008
-1.85001
1.97954e-07
0.00388006
-1.85001
0.00387959
-1.84996
-3.0148e-07
0.00918984
-1.84616
-4.79668e-07
0.00919035
-1.84621
-6.59133e-07
0.00919019
-1.84621
-8.39802e-07
0.00919
-1.84621
-9.94097e-07
0.00918974
-1.84621
-1.10929e-06
0.00918944
-1.84621
-1.19001e-06
0.00918911
-1.84621
-1.23479e-06
0.00918876
-1.84621
-1.24552e-06
0.0091884
-1.84621
-1.225e-06
0.00918805
-1.84621
-1.17481e-06
0.0091877
-1.84621
-1.09991e-06
0.00918738
-1.84621
-1.00251e-06
0.00918709
-1.84621
-8.89741e-07
0.00918683
-1.84621
-7.62868e-07
0.00918662
-1.84621
-6.32162e-07
0.00918643
-1.84621
-4.88156e-07
0.0091863
-1.84621
-3.07258e-07
0.00918619
-1.84621
-9.99068e-08
0.00918614
-1.84621
0.00918555
-1.84616
8.6304e-08
0.014196
-1.85053
2.92897e-07
0.0141966
-1.85058
4.72613e-07
0.0141965
-1.85058
6.11286e-07
0.0141964
-1.85058
7.2239e-07
0.0141962
-1.85058
8.10372e-07
0.014196
-1.85058
8.69483e-07
0.0141957
-1.85058
9.00394e-07
0.0141954
-1.85058
9.04329e-07
0.0141952
-1.85058
8.83559e-07
0.0141949
-1.85057
8.41209e-07
0.0141946
-1.85057
7.80967e-07
0.0141943
-1.85057
7.06998e-07
0.0141941
-1.85057
6.23115e-07
0.0141939
-1.85057
5.33502e-07
0.0141937
-1.85057
4.36487e-07
0.0141936
-1.85057
3.40105e-07
0.0141935
-1.85057
2.62152e-07
0.0141934
-1.85057
1.95518e-07
0.0141933
-1.85057
0.0141926
-1.85053
-2.11803e-07
0.0222144
-1.84729
-3.39695e-07
0.0222151
-1.84734
-4.65454e-07
0.022215
-1.84734
-5.76214e-07
0.0222148
-1.84734
-6.70321e-07
0.0222146
-1.84734
-7.4684e-07
0.0222144
-1.84734
-8.01522e-07
0.0222142
-1.84734
-8.33998e-07
0.0222139
-1.84734
-8.44223e-07
0.0222136
-1.84734
-8.33093e-07
0.0222133
-1.84734
-8.02281e-07
0.0222131
-1.84734
-7.53288e-07
0.0222128
-1.84734
-6.88882e-07
0.0222126
-1.84734
-6.10544e-07
0.0222123
-1.84734
-5.21414e-07
0.0222122
-1.84734
-4.19809e-07
0.022212
-1.84734
-3.08731e-07
0.0222119
-1.84734
-1.89152e-07
0.0222118
-1.84734
-5.64377e-08
0.0222118
-1.84734
0.022211
-1.84729
1.9586e-08
0.0299484
-1.84955
1.4402e-07
0.0299493
-1.8496
2.5334e-07
0.0299493
-1.8496
3.33086e-07
0.0299493
-1.8496
3.9693e-07
0.0299493
-1.8496
4.45645e-07
0.0299493
-1.8496
4.77316e-07
0.0299493
-1.8496
4.92392e-07
0.0299493
-1.8496
4.91455e-07
0.0299493
-1.8496
4.76446e-07
0.0299493
-1.8496
4.48692e-07
0.0299492
-1.8496
4.11498e-07
0.0299492
-1.8496
3.66711e-07
0.0299492
-1.8496
3.18564e-07
0.0299492
-1.8496
2.68589e-07
0.0299492
-1.8496
2.19614e-07
0.0299492
-1.8496
1.72896e-07
0.0299492
-1.8496
1.4527e-07
0.0299491
-1.8496
1.26236e-07
0.0299491
-1.8496
0.0299482
-1.84955
-1.10658e-07
0.039456
-1.84866
-1.50137e-07
0.0394571
-1.84871
-1.90524e-07
0.0394572
-1.84871
-2.26895e-07
0.0394573
-1.84871
-2.59214e-07
0.0394574
-1.84871
-2.8847e-07
0.0394575
-1.84871
-3.11398e-07
0.0394577
-1.84871
-3.27542e-07
0.0394578
-1.84871
-3.36204e-07
0.039458
-1.84871
-3.36431e-07
0.0394582
-1.84871
-3.2883e-07
0.0394583
-1.84871
-3.1224e-07
0.0394585
-1.84871
-2.88284e-07
0.0394586
-1.84871
-2.55268e-07
0.0394587
-1.84871
-2.15623e-07
0.0394588
-1.84871
-1.65955e-07
0.0394589
-1.84871
-1.12295e-07
0.0394589
-1.84871
-5.30681e-08
0.039459
-1.84871
9.46739e-09
0.039459
-1.84871
0.039458
-1.84866
-7.46082e-08
0.0420014
-1.8425
-6.07197e-08
0.0420024
-1.84254
-5.08638e-08
0.0420026
-1.84254
-5.15615e-08
0.0420028
-1.84254
-5.34582e-08
0.0420031
-1.84254
-5.87025e-08
0.0420034
-1.84254
-6.45835e-08
0.0420037
-1.84254
-7.18013e-08
0.0420041
-1.84254
-7.87911e-08
0.0420045
-1.84254
-8.56959e-08
0.0420048
-1.84254
-9.14336e-08
0.0420052
-1.84254
-9.46533e-08
0.0420055
-1.84254
-9.57235e-08
0.0420058
-1.84254
-9.15146e-08
0.0420061
-1.84254
-8.29602e-08
0.0420063
-1.84254
-6.5329e-08
0.0420065
-1.84254
-4.32075e-08
0.0420066
-1.84254
-4.3472e-09
0.0420067
-1.84254
4.45773e-08
0.0420068
-1.84254
0.0420058
-1.84249
2.74654e-08
0.0446754
-1.8447
1.40693e-07
0.0446764
-1.84475
2.40598e-07
0.0446767
-1.84475
3.22701e-07
0.0446771
-1.84475
3.90751e-07
0.0446776
-1.84475
4.42831e-07
0.0446781
-1.84475
4.78397e-07
0.0446787
-1.84475
4.97157e-07
0.0446794
-1.84475
4.99061e-07
0.04468
-1.84475
4.8545e-07
0.0446807
-1.84475
4.57327e-07
0.0446813
-1.84475
4.17621e-07
0.0446819
-1.84475
3.68674e-07
0.0446825
-1.84475
3.15315e-07
0.0446829
-1.84475
2.60083e-07
0.0446833
-1.84475
2.08375e-07
0.0446836
-1.84474
1.5995e-07
0.0446838
-1.84474
1.21646e-07
0.0446839
-1.84474
9.67553e-08
0.044684
-1.84474
0.0446831
-1.8447
-2.78684e-07
0.0474206
-1.84371
-4.78141e-07
0.0474216
-1.84376
-6.68002e-07
0.0474218
-1.84376
-8.33816e-07
0.0474221
-1.84376
-9.77099e-07
0.0474225
-1.84376
-1.09228e-06
0.0474229
-1.84376
-1.17668e-06
0.0474234
-1.84376
-1.22746e-06
0.0474239
-1.84376
-1.24482e-06
0.0474245
-1.84376
-1.22842e-06
0.047425
-1.84376
-1.18095e-06
0.0474255
-1.84376
-1.10435e-06
0.047426
-1.84376
-1.00318e-06
0.0474264
-1.84376
-8.80713e-07
0.0474268
-1.84376
-7.42355e-07
0.0474271
-1.84376
-5.89567e-07
0.0474273
-1.84376
-4.27301e-07
0.0474275
-1.84376
-2.576e-07
0.0474276
-1.84376
-8.39754e-08
0.0474277
-1.84376
0.0474268
-1.84371
1.39446e-07
0.0486178
-1.8494
3.83921e-07
0.0486187
-1.84944
6.00977e-07
0.0486191
-1.84944
7.79155e-07
0.0486196
-1.84944
9.27127e-07
0.0486203
-1.84944
1.04319e-06
0.0486211
-1.84944
1.12339e-06
0.048622
-1.84944
1.16717e-06
0.0486229
-1.84944
1.17399e-06
0.0486239
-1.84944
1.14578e-06
0.0486249
-1.84944
1.0852e-06
0.0486258
-1.84944
9.97104e-07
0.0486267
-1.84944
8.87149e-07
0.0486274
-1.84944
7.62744e-07
0.0486281
-1.84944
6.31214e-07
0.0486286
-1.84944
4.9843e-07
0.048629
-1.84944
3.69129e-07
0.0486293
-1.84944
2.59407e-07
0.0486294
-1.84944
1.70599e-07
0.0486295
-1.84944
0.0486287
-1.84939
-4.0876e-07
0.0499857
-1.8465
-7.38181e-07
0.0499865
-1.84655
-1.05083e-06
0.0499868
-1.84655
-1.31481e-06
0.0499871
-1.84655
-1.54169e-06
0.0499876
-1.84655
-1.72552e-06
0.0499882
-1.84655
-1.85895e-06
0.0499888
-1.84655
-1.93825e-06
0.0499895
-1.84655
-1.96292e-06
0.0499902
-1.84655
-1.93367e-06
0.0499909
-1.84655
-1.85438e-06
0.0499915
-1.84655
-1.72986e-06
0.0499921
-1.84655
-1.56712e-06
0.0499927
-1.84655
-1.37307e-06
0.0499931
-1.84655
-1.15598e-06
0.0499935
-1.84655
-9.17211e-07
0.0499937
-1.84655
-6.65383e-07
0.0499939
-1.84655
-4.16376e-07
0.0499941
-1.84655
-1.64743e-07
0.0499941
-1.84655
0.0499934
-1.8465
2.07634e-07
0.0482096
-1.85497
5.43018e-07
0.0482103
-1.85502
8.40449e-07
0.0482108
-1.85502
1.07454e-06
0.0482114
-1.85502
1.26869e-06
0.0482122
-1.85502
1.42443e-06
0.0482131
-1.85502
1.53241e-06
0.0482141
-1.85502
1.59181e-06
0.0482152
-1.85502
1.60138e-06
0.0482163
-1.85502
1.56297e-06
0.0482175
-1.85502
1.48068e-06
0.0482185
-1.85502
1.36016e-06
0.0482195
-1.85502
1.21021e-06
0.0482203
-1.85502
1.03911e-06
0.0482211
-1.85502
8.58114e-07
0.0482216
-1.85502
6.70115e-07
0.0482221
-1.85502
4.86646e-07
0.0482223
-1.85502
3.40297e-07
0.0482225
-1.85502
2.2066e-07
0.0482226
-1.85502
0.048222
-1.85497
-4.9417e-07
0.0465864
-1.84984
-9.04311e-07
0.046587
-1.84989
-1.29627e-06
0.0465873
-1.84989
-1.62297e-06
0.0465877
-1.84989
-1.90281e-06
0.0465882
-1.84989
-2.13401e-06
0.0465889
-1.84989
-2.3011e-06
0.0465896
-1.84989
-2.39998e-06
0.0465903
-1.84989
-2.42963e-06
0.0465911
-1.84989
-2.39181e-06
0.0465919
-1.84989
-2.29119e-06
0.0465926
-1.84989
-2.13532e-06
0.0465933
-1.84989
-1.93285e-06
0.0465938
-1.84989
-1.6943e-06
0.0465943
-1.84989
-1.42938e-06
0.0465947
-1.84989
-1.13533e-06
0.046595
-1.84989
-8.25122e-07
0.0465952
-1.84989
-5.23089e-07
0.0465954
-1.84989
-2.13555e-07
0.0465954
-1.84989
0.0465949
-1.84984
2.21994e-07
0.0405393
-1.85918
5.9704e-07
0.0405399
-1.85923
9.20185e-07
0.0405403
-1.85923
1.15562e-06
0.0405409
-1.85923
1.34909e-06
0.0405416
-1.85923
1.51275e-06
0.0405425
-1.85923
1.62659e-06
0.0405435
-1.85923
1.68885e-06
0.0405445
-1.85923
1.69801e-06
0.0405455
-1.85923
1.65512e-06
0.0405466
-1.85923
1.56559e-06
0.0405476
-1.85922
1.43524e-06
0.0405485
-1.85922
1.27448e-06
0.0405493
-1.85922
1.09134e-06
0.0405499
-1.85922
8.98658e-07
0.0405504
-1.85922
6.88474e-07
0.0405508
-1.85922
4.85371e-07
0.040551
-1.85922
3.42625e-07
0.0405512
-1.85922
2.34924e-07
0.0405512
-1.85922
0.0405507
-1.85917
-4.84552e-07
0.0346536
-1.8515
-8.56675e-07
0.034654
-1.85155
-1.22209e-06
0.0346544
-1.85155
-1.60515e-06
0.0346548
-1.85155
-1.93523e-06
0.0346553
-1.85155
-2.18315e-06
0.0346559
-1.85155
-2.36082e-06
0.0346565
-1.85155
-2.46297e-06
0.0346572
-1.85155
-2.49186e-06
0.0346579
-1.85155
-2.45038e-06
0.0346586
-1.85155
-2.34396e-06
0.0346592
-1.85155
-2.18194e-06
0.0346598
-1.85155
-1.97422e-06
0.0346603
-1.85155
-1.73627e-06
0.0346608
-1.85155
-1.47693e-06
0.0346611
-1.85155
-1.22167e-06
0.0346614
-1.85155
-9.51839e-07
0.0346616
-1.85155
-6.06712e-07
0.0346616
-1.85155
-2.44157e-07
0.0346616
-1.85155
0.0346612
-1.8515
1.40369e-07
0.0239298
-1.85894
3.93221e-07
0.0239302
-1.85899
5.57516e-07
0.0239307
-1.85899
7.38637e-07
0.0239311
-1.85899
8.98053e-07
0.0239316
-1.85899
1.01015e-06
0.0239322
-1.85899
1.09129e-06
0.0239328
-1.85899
1.13134e-06
0.0239335
-1.85899
1.13551e-06
0.0239342
-1.85899
1.10271e-06
0.0239348
-1.85899
1.03785e-06
0.0239355
-1.85899
9.46829e-07
0.0239361
-1.85899
8.35277e-07
0.0239366
-1.85899
7.15898e-07
0.023937
-1.85899
5.88951e-07
0.0239374
-1.85899
4.78873e-07
0.0239376
-1.85899
3.68622e-07
0.0239377
-1.85899
2.22409e-07
0.0239378
-1.85899
1.52302e-07
0.0239376
-1.85899
0.0239372
-1.85894
-2.97031e-07
0.0137752
-1.84875
-5.64902e-07
0.0137758
-1.8488
-8.96771e-07
0.0137762
-1.8488
-1.17887e-06
0.0137765
-1.8488
-1.40763e-06
0.0137768
-1.8488
-1.5895e-06
0.0137771
-1.8488
-1.71551e-06
0.0137775
-1.8488
-1.78964e-06
0.0137779
-1.8488
-1.80959e-06
0.0137784
-1.8488
-1.77946e-06
0.0137788
-1.8488
-1.70303e-06
0.0137792
-1.8488
-1.58574e-06
0.0137795
-1.8488
-1.43779e-06
0.0137798
-1.8488
-1.26538e-06
0.0137801
-1.8488
-1.08308e-06
0.0137803
-1.84881
-8.90576e-07
0.0137805
-1.84881
-7.01146e-07
0.0137805
-1.84881
-5.20237e-07
0.0137805
-1.84881
-2.5846e-07
0.0137802
-1.84881
0.0137797
-1.84876
3.32886e-07
-1.85211
1.16065e-08
-1.85216
-1.85868e-07
-1.85216
-3.39194e-07
-1.85216
-4.13413e-07
-1.85216
-4.77746e-07
-1.85216
-5.12045e-07
-1.85216
-5.34687e-07
-1.85216
-5.40417e-07
-1.85216
-5.31577e-07
-1.85216
-5.08618e-07
-1.85216
-4.70817e-07
-1.85216
-4.25853e-07
-1.85216
-3.68916e-07
-1.85216
-3.21369e-07
-1.85216
-2.67186e-07
-1.85216
-2.75979e-07
-1.85216
-3.21609e-07
-1.85216
-5.01084e-07
-1.85216
-1.85212
-6.70368e-08
0.00172705
-1.84644
-1.69756e-07
0.00172723
-1.84649
-1.68906e-07
0.00172704
-1.84649
-2.02295e-07
0.00172696
-1.84649
-2.05291e-07
0.00172679
-1.84649
-2.2114e-07
0.00172663
-1.84649
-2.24585e-07
0.00172643
-1.84649
-2.29502e-07
0.00172623
-1.84649
-2.26998e-07
0.00172601
-1.84649
-2.20635e-07
0.0017258
-1.84649
-2.09707e-07
0.00172559
-1.84649
-1.92515e-07
0.00172538
-1.84649
-1.73339e-07
0.0017252
-1.84649
-1.43665e-07
0.00172503
-1.84649
-1.17457e-07
0.00172488
-1.84649
-7.13317e-08
0.00172475
-1.84649
-4.76751e-08
0.00172466
-1.84649
1.72763e-08
0.00172456
-1.84649
-1.52189e-08
0.00172461
-1.84649
0.00172438
-1.84644
-3.77019e-07
0.00582248
-1.84873
-5.71171e-07
0.00582269
-1.84877
-7.81733e-07
0.00582247
-1.84877
-9.65521e-07
0.00582228
-1.84877
-1.1182e-06
0.00582199
-1.84877
-1.23977e-06
0.00582169
-1.84877
-1.32281e-06
0.00582134
-1.84878
-1.36932e-06
0.00582098
-1.84878
-1.37896e-06
0.0058206
-1.84878
-1.35377e-06
0.00582023
-1.84878
-1.29721e-06
0.00581987
-1.84878
-1.21193e-06
0.00581954
-1.84878
-1.10436e-06
0.00581924
-1.84878
-9.75784e-07
0.00581896
-1.84878
-8.34526e-07
0.00581874
-1.84878
-6.75659e-07
0.00581854
-1.84878
-5.03494e-07
0.00581841
-1.84878
-3.15134e-07
0.00581828
-1.84878
-7.94714e-08
0.00581827
-1.84878
0.00581796
-1.84873
5.42378e-08
0.00957726
-1.85372
2.4215e-07
0.00957755
-1.85377
3.87402e-07
0.0095774
-1.85377
5.57222e-07
0.00957721
-1.85377
6.984e-07
0.00957699
-1.85377
8.01017e-07
0.00957676
-1.85377
8.71898e-07
0.00957649
-1.85377
9.13491e-07
0.0095762
-1.85377
9.26387e-07
0.0095759
-1.85377
9.14364e-07
0.0095756
-1.85377
8.79398e-07
0.0095753
-1.85377
8.26152e-07
0.00957503
-1.85377
7.59037e-07
0.00957477
-1.85377
6.82545e-07
0.00957455
-1.85377
6.01122e-07
0.00957436
-1.85377
5.27581e-07
0.00957418
-1.85377
4.53375e-07
0.00957407
-1.85377
3.29328e-07
0.00957402
-1.85377
2.34482e-07
0.00957399
-1.85377
0.00957364
-1.85372
-3.38968e-07
0.0144296
-1.85101
-5.71935e-07
0.01443
-1.85106
-7.98503e-07
0.0144298
-1.85106
-1.02468e-06
0.0144296
-1.85106
-1.21906e-06
0.0144293
-1.85106
-1.36169e-06
0.014429
-1.85106
-1.46438e-06
0.0144287
-1.85106
-1.5228e-06
0.0144283
-1.85106
-1.54123e-06
0.0144279
-1.85106
-1.52131e-06
0.0144275
-1.85106
-1.46555e-06
0.0144272
-1.85106
-1.38009e-06
0.0144268
-1.85106
-1.26596e-06
0.0144265
-1.85106
-1.13316e-06
0.0144262
-1.85106
-9.80215e-07
0.014426
-1.85106
-8.24238e-07
0.0144258
-1.85106
-6.47908e-07
0.0144257
-1.85106
-4.24461e-07
0.0144256
-1.85106
-1.71346e-07
0.0144255
-1.85106
0.014425
-1.85101
1.13642e-07
0.019173
-1.85527
3.2663e-07
0.0191735
-1.85532
5.17815e-07
0.0191734
-1.85532
6.73293e-07
0.0191734
-1.85532
8.00336e-07
0.0191732
-1.85532
9.05888e-07
0.0191731
-1.85532
9.79723e-07
0.0191729
-1.85532
1.02299e-06
0.0191727
-1.85532
1.03549e-06
0.0191725
-1.85532
1.02015e-06
0.0191723
-1.85532
9.79277e-07
0.0191721
-1.85532
9.17439e-07
0.0191719
-1.85532
8.38294e-07
0.0191718
-1.85532
7.46656e-07
0.0191716
-1.85532
6.46004e-07
0.0191715
-1.85532
5.32984e-07
0.0191714
-1.85532
4.16071e-07
0.0191714
-1.85532
3.10962e-07
0.0191713
-1.85532
2.13089e-07
0.0191713
-1.85532
0.0191707
-1.85527
-2.14632e-07
0.0250735
-1.85319
-3.6958e-07
0.0250742
-1.85324
-5.18424e-07
0.0250741
-1.85324
-6.35914e-07
0.025074
-1.85324
-7.36174e-07
0.0250739
-1.85324
-8.18488e-07
0.0250738
-1.85324
-8.78563e-07
0.0250737
-1.85324
-9.15002e-07
0.0250735
-1.85324
-9.2857e-07
0.0250733
-1.85324
-9.19194e-07
0.0250732
-1.85324
-8.89329e-07
0.025073
-1.85324
-8.39562e-07
0.0250729
-1.85324
-7.73279e-07
0.0250728
-1.85324
-6.90794e-07
0.0250727
-1.85324
-5.93997e-07
0.0250726
-1.85324
-4.80336e-07
0.0250725
-1.85324
-3.54371e-07
0.0250725
-1.85324
-2.29791e-07
0.0250724
-1.85324
-9.15809e-08
0.0250724
-1.85324
0.0250717
-1.85319
5.56406e-08
0.0308874
-1.85537
1.94933e-07
0.0308881
-1.85541
3.22099e-07
0.0308882
-1.85541
4.25466e-07
0.0308882
-1.85541
5.10649e-07
0.0308883
-1.85541
5.78979e-07
0.0308883
-1.85541
6.26239e-07
0.0308884
-1.85541
6.52826e-07
0.0308885
-1.85541
6.59038e-07
0.0308885
-1.85541
6.46742e-07
0.0308886
-1.85541
6.17546e-07
0.0308886
-1.85541
5.7538e-07
0.0308887
-1.85541
5.22015e-07
0.0308888
-1.85541
4.62552e-07
0.0308888
-1.85541
3.98303e-07
0.0308889
-1.85541
3.31206e-07
0.0308889
-1.85541
2.62886e-07
0.030889
-1.85541
2.03589e-07
0.030889
-1.85541
1.46884e-07
0.030889
-1.85541
0.0308883
-1.85537
-7.0322e-08
0.0374805
-1.85525
-9.30783e-08
0.0374814
-1.8553
-1.13771e-07
0.0374815
-1.8553
-1.2004e-07
0.0374817
-1.8553
-1.24823e-07
0.0374819
-1.8553
-1.34633e-07
0.0374821
-1.8553
-1.42766e-07
0.0374823
-1.8553
-1.50615e-07
0.0374826
-1.8553
-1.55981e-07
0.0374829
-1.8553
-1.58192e-07
0.0374831
-1.8553
-1.56635e-07
0.0374834
-1.8553
-1.49404e-07
0.0374837
-1.8553
-1.37882e-07
0.0374839
-1.8553
-1.1887e-07
0.0374841
-1.8553
-9.59487e-08
0.0374843
-1.8553
-6.16024e-08
0.0374844
-1.8553
-2.5868e-08
0.0374845
-1.8553
-6.00945e-10
0.0374846
-1.8553
2.51568e-08
0.0374847
-1.8553
0.0374838
-1.85525
-6.01636e-08
0.0374153
-1.84243
-5.28885e-08
0.0374162
-1.84248
-4.62596e-08
0.0374163
-1.84248
-3.72562e-08
0.0374165
-1.84248
-3.09148e-08
0.0374167
-1.84248
-2.80988e-08
0.0374169
-1.84248
-2.76521e-08
0.0374171
-1.84248
-2.88622e-08
0.0374174
-1.84248
-3.13978e-08
0.0374177
-1.84248
-3.36438e-08
0.037418
-1.84248
-3.62788e-08
0.0374182
-1.84248
-3.70894e-08
0.0374185
-1.84248
-3.70468e-08
0.0374187
-1.84248
-3.28453e-08
0.0374189
-1.84248
-2.64298e-08
0.0374191
-1.84248
-1.28802e-08
0.0374193
-1.84248
3.89806e-09
0.0374194
-1.84248
2.27729e-08
0.0374195
-1.84248
4.73813e-08
0.0374195
-1.84248
0.0374187
-1.84243
1.28086e-07
0.0373046
-1.84459
3.22896e-07
0.0373055
-1.84464
5.00314e-07
0.0373057
-1.84464
6.65181e-07
0.037306
-1.84464
8.02973e-07
0.0373064
-1.84464
9.12703e-07
0.0373068
-1.84464
9.90113e-07
0.0373073
-1.84464
1.03694e-06
0.0373079
-1.84464
1.05169e-06
0.0373084
-1.84464
1.03823e-06
0.0373089
-1.84464
9.97323e-07
0.0373095
-1.84464
9.34567e-07
0.03731
-1.84464
8.52837e-07
0.0373104
-1.84464
7.58813e-07
0.0373108
-1.84464
6.55932e-07
0.0373111
-1.84464
5.48843e-07
0.0373114
-1.84464
4.37543e-07
0.0373116
-1.84464
3.13418e-07
0.0373117
-1.84464
1.87142e-07
0.0373118
-1.84464
0.037311
-1.84459
-2.29028e-07
0.0371547
-1.84356
-4.05231e-07
0.0371555
-1.84361
-5.72854e-07
0.0371556
-1.84361
-7.03374e-07
0.0371559
-1.84361
-8.19139e-07
0.0371562
-1.84361
-9.1464e-07
0.0371565
-1.84361
-9.87602e-07
0.0371569
-1.84361
-1.03366e-06
0.0371574
-1.84361
-1.05333e-06
0.0371578
-1.84361
-1.0449e-06
0.0371582
-1.84361
-1.01139e-06
0.0371587
-1.84361
-9.5351e-07
0.0371591
-1.84361
-8.75576e-07
0.0371594
-1.84361
-7.78622e-07
0.0371597
-1.84361
-6.66765e-07
0.03716
-1.84361
-5.36297e-07
0.0371602
-1.84361
-3.92907e-07
0.0371603
-1.84361
-2.52274e-07
0.0371605
-1.84361
-1.02622e-07
0.0371605
-1.84361
0.0371598
-1.84356
2.45151e-07
0.0360658
-1.84831
5.7256e-07
0.0360665
-1.84836
8.74147e-07
0.0360668
-1.84836
1.13582e-06
0.0360671
-1.84836
1.35688e-06
0.0360676
-1.84836
1.53587e-06
0.0360682
-1.84836
1.66467e-06
0.0360688
-1.84836
1.74456e-06
0.0360695
-1.84836
1.77346e-06
0.0360702
-1.84835
1.75556e-06
0.0360709
-1.84835
1.69321e-06
0.0360716
-1.84835
1.59305e-06
0.0360722
-1.84835
1.46052e-06
0.0360727
-1.84835
1.30299e-06
0.0360732
-1.84835
1.12664e-06
0.0360736
-1.84835
9.3456e-07
0.0360739
-1.84835
7.29848e-07
0.0360741
-1.84835
5.21913e-07
0.0360743
-1.84835
3.04414e-07
0.0360743
-1.84835
0.0360737
-1.8483
-3.54977e-07
0.0349483
-1.84539
-6.62883e-07
0.0349489
-1.84543
-9.58085e-07
0.0349491
-1.84543
-1.18209e-06
0.0349493
-1.84543
-1.3806e-06
0.0349497
-1.84543
-1.54671e-06
0.0349501
-1.84543
-1.6732e-06
0.0349506
-1.84543
-1.75308e-06
0.034951
-1.84543
-1.78661e-06
0.0349515
-1.84543
-1.77281e-06
0.034952
-1.84543
-1.71579e-06
0.0349525
-1.84543
-1.61935e-06
0.034953
-1.84543
-1.48913e-06
0.0349534
-1.84543
-1.32973e-06
0.0349537
-1.84543
-1.14473e-06
0.034954
-1.84543
-9.29108e-07
0.0349542
-1.84543
-6.86498e-07
0.0349543
-1.84543
-4.61832e-07
0.0349544
-1.84543
-2.17075e-07
0.0349545
-1.84543
0.0349539
-1.84538
3.36683e-07
0.0321596
-1.85219
7.70909e-07
0.0321602
-1.85224
1.17233e-06
0.0321605
-1.85224
1.50015e-06
0.0321609
-1.85224
1.77803e-06
0.0321614
-1.85224
2.00854e-06
0.032162
-1.85223
2.1751e-06
0.0321627
-1.85223
2.27921e-06
0.0321635
-1.85223
2.31708e-06
0.0321642
-1.85223
2.29287e-06
0.032165
-1.85223
2.21045e-06
0.0321657
-1.85223
2.07686e-06
0.0321663
-1.85223
1.9008e-06
0.0321669
-1.85223
1.6892e-06
0.0321674
-1.85223
1.45276e-06
0.0321678
-1.85223
1.18909e-06
0.0321681
-1.85223
9.08088e-07
0.0321683
-1.85223
6.48716e-07
0.0321684
-1.85223
3.78511e-07
0.0321684
-1.85223
0.032168
-1.85218
-4.44787e-07
0.0294215
-1.8471
-8.44202e-07
0.029422
-1.84715
-1.22946e-06
0.0294222
-1.84715
-1.52343e-06
0.0294224
-1.84715
-1.78189e-06
0.0294227
-1.84715
-2.00355e-06
0.0294231
-1.84715
-2.17096e-06
0.0294235
-1.84715
-2.27666e-06
0.029424
-1.84715
-2.32076e-06
0.0294245
-1.84715
-2.30351e-06
0.0294249
-1.84715
-2.23005e-06
0.0294254
-1.84715
-2.10744e-06
0.0294258
-1.84715
-1.94226e-06
0.0294261
-1.84715
-1.74288e-06
0.0294264
-1.84715
-1.51165e-06
0.0294267
-1.84715
-1.23729e-06
0.0294268
-1.84715
-9.2468e-07
0.0294269
-1.84715
-6.30779e-07
0.0294271
-1.84715
-3.0442e-07
0.0294271
-1.84715
0.0294266
-1.8471
3.53532e-07
0.0248031
-1.85456
8.2391e-07
0.0248036
-1.85461
1.25274e-06
0.0248039
-1.85461
1.5762e-06
0.0248042
-1.85461
1.84973e-06
0.0248047
-1.85461
2.08957e-06
0.0248053
-1.85461
2.26312e-06
0.0248059
-1.85461
2.37148e-06
0.0248065
-1.85461
2.40988e-06
0.0248072
-1.85461
2.38198e-06
0.0248079
-1.85461
2.29253e-06
0.0248085
-1.85461
2.14901e-06
0.0248091
-1.85461
1.96183e-06
0.0248096
-1.85461
1.73763e-06
0.02481
-1.85461
1.48988e-06
0.0248103
-1.85461
1.20076e-06
0.0248106
-1.85461
8.96898e-07
0.0248107
-1.85461
6.45782e-07
0.0248109
-1.85461
3.88222e-07
0.0248108
-1.85461
0.0248104
-1.85456
-4.39011e-07
0.0203965
-1.84709
-7.85048e-07
0.0203969
-1.84714
-1.11772e-06
0.0203971
-1.84714
-1.50126e-06
0.0203974
-1.84714
-1.83685e-06
0.0203977
-1.84714
-2.0838e-06
0.0203979
-1.84714
-2.26754e-06
0.0203983
-1.84714
-2.37902e-06
0.0203986
-1.84714
-2.42437e-06
0.020399
-1.84714
-2.40423e-06
0.0203993
-1.84714
-2.32585e-06
0.0203997
-1.84714
-2.19698e-06
0.0204
-1.84714
-2.02692e-06
0.0204003
-1.84714
-1.82907e-06
0.0204005
-1.84714
-1.60612e-06
0.0204007
-1.84714
-1.38665e-06
0.0204009
-1.84714
-1.13651e-06
0.0204009
-1.84714
-7.61662e-07
0.0204008
-1.84714
-3.52981e-07
0.0204008
-1.84714
0.0204004
-1.84709
2.30714e-07
0.0144353
-1.85298
5.21414e-07
0.0144358
-1.85302
7.3749e-07
0.0144361
-1.85302
1.02702e-06
0.0144364
-1.85302
1.28063e-06
0.0144368
-1.85302
1.46211e-06
0.0144372
-1.85303
1.5963e-06
0.0144376
-1.85303
1.67443e-06
0.0144381
-1.85303
1.70113e-06
0.0144386
-1.85303
1.67824e-06
0.0144391
-1.85303
1.60986e-06
0.0144395
-1.85303
1.50515e-06
0.0144399
-1.85303
1.36886e-06
0.0144403
-1.85303
1.21811e-06
0.0144406
-1.85303
1.05206e-06
0.0144408
-1.85303
9.07998e-07
0.014441
-1.85303
7.5525e-07
0.0144411
-1.85303
4.92498e-07
0.0144411
-1.85303
2.73567e-07
0.014441
-1.85303
0.0144406
-1.85298
-2.88237e-07
0.00882969
-1.84315
-5.394e-07
0.00883014
-1.8432
-8.35126e-07
0.00883053
-1.8432
-1.08205e-06
0.0088307
-1.8432
-1.28623e-06
0.00883093
-1.8432
-1.45255e-06
0.00883114
-1.8432
-1.57155e-06
0.00883139
-1.8432
-1.64558e-06
0.00883165
-1.8432
-1.6739e-06
0.00883191
-1.8432
-1.65843e-06
0.00883217
-1.8432
-1.60421e-06
0.00883242
-1.8432
-1.51407e-06
0.00883264
-1.8432
-1.39956e-06
0.00883283
-1.8432
-1.2604e-06
0.008833
-1.8432
-1.10827e-06
0.00883311
-1.8432
-9.3396e-07
0.0088332
-1.8432
-7.45134e-07
0.00883321
-1.8432
-5.55394e-07
0.00883321
-1.8432
-2.8849e-07
0.00883293
-1.8432
0.00883247
-1.84315
3.06214e-07
-1.84329
2.33564e-08
-1.84333
-1.40145e-07
-1.84332
-2.37931e-07
-1.84333
-2.68596e-07
-1.84333
-2.9934e-07
-1.84333
-3.1007e-07
-1.84333
-3.17323e-07
-1.84333
-3.1298e-07
-1.84333
-2.99091e-07
-1.84333
-2.82097e-07
-1.84333
-2.56351e-07
-1.84333
-2.26834e-07
-1.84333
-1.86429e-07
-1.84333
-1.5639e-07
-1.84333
-1.16431e-07
-1.84333
-1.29881e-07
-1.84333
-2.04382e-07
-1.84333
-4.07994e-07
-1.84333
-1.84329
-1.79076e-07
0.0006783
-1.84712
-2.81867e-07
0.000678886
-1.84717
-2.78411e-07
0.000678885
-1.84716
-3.17245e-07
0.000678976
-1.84717
-3.35921e-07
0.000679043
-1.84717
-3.63862e-07
0.000679155
-1.84717
-3.78989e-07
0.000679263
-1.84717
-3.90212e-07
0.000679392
-1.84717
-3.91552e-07
0.000679518
-1.84717
-3.8459e-07
0.000679651
-1.84717
-3.69635e-07
0.00067978
-1.84717
-3.44605e-07
0.000679905
-1.84717
-3.14275e-07
0.000680023
-1.84717
-2.7093e-07
0.000680127
-1.84717
-2.26718e-07
0.000680227
-1.84717
-1.59311e-07
0.0006803
-1.84717
-9.81366e-08
0.000680385
-1.84717
1.5598e-08
0.000680418
-1.84717
3.94544e-08
0.000680501
-1.84717
0.00067997
-1.84712
-4.15954e-07
0.00408227
-1.85213
-6.02904e-07
0.00408279
-1.85218
-8.00193e-07
0.0040827
-1.85218
-9.78899e-07
0.00408265
-1.85218
-1.13304e-06
0.00408256
-1.85218
-1.25744e-06
0.00408247
-1.85218
-1.34548e-06
0.00408236
-1.85218
-1.39627e-06
0.00408226
-1.85218
-1.41095e-06
0.00408215
-1.85218
-1.39068e-06
0.00408204
-1.85218
-1.33972e-06
0.00408194
-1.85218
-1.25938e-06
0.00408184
-1.85218
-1.15623e-06
0.00408176
-1.85218
-1.03024e-06
0.00408169
-1.85218
-8.88585e-07
0.00408163
-1.85218
-7.25025e-07
0.00408157
-1.85218
-5.39833e-07
0.00408155
-1.85218
-3.25303e-07
0.00408151
-1.85218
-6.6116e-08
0.00408153
-1.85218
0.00408099
-1.85213
-3.23227e-08
0.00714872
-1.85678
1.19522e-07
0.00714925
-1.85683
2.31e-07
0.00714922
-1.85683
3.7242e-07
0.00714915
-1.85683
4.88258e-07
0.00714912
-1.85683
5.70041e-07
0.00714912
-1.85683
6.2568e-07
0.00714908
-1.85683
6.59517e-07
0.00714906
-1.85683
6.70476e-07
0.00714903
-1.85683
6.63992e-07
0.007149
-1.85683
6.4111e-07
0.00714897
-1.85683
6.0503e-07
0.00714894
-1.85683
5.60668e-07
0.00714892
-1.85683
5.1051e-07
0.00714889
-1.85683
4.59554e-07
0.00714888
-1.85683
4.20515e-07
0.00714884
-1.85683
3.85069e-07
0.00714884
-1.85683
2.98169e-07
0.00714889
-1.85683
2.43303e-07
0.00714891
-1.85683
0.00714839
-1.85679
-3.50837e-07
0.0118944
-1.85576
-5.43501e-07
0.011895
-1.85581
-7.37459e-07
0.0118949
-1.85581
-9.42842e-07
0.0118948
-1.85581
-1.12246e-06
0.0118947
-1.85581
-1.25324e-06
0.0118946
-1.85581
-1.34957e-06
0.0118945
-1.85581
-1.40467e-06
0.0118944
-1.85581
-1.42509e-06
0.0118942
-1.85581
-1.41005e-06
0.0118941
-1.85581
-1.36407e-06
0.011894
-1.85581
-1.29021e-06
0.0118939
-1.85581
-1.19074e-06
0.0118938
-1.85581
-1.07267e-06
0.0118937
-1.85581
-9.34487e-07
0.0118936
-1.85581
-7.91626e-07
0.0118936
-1.85581
-6.25115e-07
0.0118935
-1.85581
-3.98612e-07
0.0118935
-1.85581
-1.3487e-07
0.0118935
-1.85581
0.0118929
-1.85576
4.67914e-08
0.0167094
-1.86009
2.47362e-07
0.01671
-1.86013
4.21009e-07
0.01671
-1.86013
5.5942e-07
0.01671
-1.86013
6.71815e-07
0.0167099
-1.86013
7.66011e-07
0.0167099
-1.86013
8.32422e-07
0.0167099
-1.86013
8.73429e-07
0.0167099
-1.86014
8.87723e-07
0.0167098
-1.86014
8.79012e-07
0.0167098
-1.86014
8.4827e-07
0.0167098
-1.86014
8.00831e-07
0.0167097
-1.86014
7.38214e-07
0.0167097
-1.86014
6.6554e-07
0.0167097
-1.86014
5.8474e-07
0.0167097
-1.86014
4.93488e-07
0.0167097
-1.86014
3.97865e-07
0.0167097
-1.86014
3.16028e-07
0.0167097
-1.86014
2.45209e-07
0.0167097
-1.86014
0.0167091
-1.86009
-2.21127e-07
0.0228587
-1.85934
-3.31587e-07
0.0228594
-1.85939
-4.43472e-07
0.0228594
-1.85939
-5.3474e-07
0.0228594
-1.85939
-6.1341e-07
0.0228594
-1.85939
-6.79256e-07
0.0228593
-1.85939
-7.28171e-07
0.0228593
-1.85939
-7.57964e-07
0.0228593
-1.85939
-7.70401e-07
0.0228593
-1.85939
-7.63623e-07
0.0228593
-1.85939
-7.41591e-07
0.0228593
-1.85939
-7.01312e-07
0.0228592
-1.85939
-6.48356e-07
0.0228592
-1.85939
-5.80323e-07
0.0228592
-1.85939
-5.00567e-07
0.0228592
-1.85939
-4.02611e-07
0.0228593
-1.85939
-2.92203e-07
0.0228593
-1.85939
-1.75179e-07
0.0228593
-1.85939
-3.82729e-08
0.0228593
-1.85939
0.0228586
-1.85934
2.7064e-08
0.0290057
-1.86151
1.86615e-07
0.0290065
-1.86156
3.27878e-07
0.0290065
-1.86156
4.40585e-07
0.0290066
-1.86156
5.33367e-07
0.0290067
-1.86156
6.08255e-07
0.0290068
-1.86156
6.60681e-07
0.0290069
-1.86156
6.92654e-07
0.029007
-1.86156
7.02619e-07
0.0290071
-1.86156
6.94086e-07
0.0290072
-1.86156
6.67503e-07
0.0290073
-1.86156
6.28186e-07
0.0290074
-1.86156
5.76506e-07
0.0290075
-1.86156
5.18141e-07
0.0290076
-1.86156
4.5396e-07
0.0290077
-1.86156
3.86611e-07
0.0290078
-1.86156
3.15682e-07
0.0290078
-1.86156
2.56482e-07
0.0290078
-1.86156
2.00118e-07
0.0290079
-1.86156
0.0290071
-1.86151
-8.12322e-08
0.0358965
-1.86215
-6.74924e-08
0.0358975
-1.86219
-5.82599e-08
0.0358975
-1.86219
-4.15437e-08
0.0358976
-1.86219
-2.7885e-08
0.0358976
-1.86219
-2.17299e-08
0.0358977
-1.86219
-1.83826e-08
0.0358978
-1.86219
-1.7025e-08
0.035898
-1.86219
-1.7382e-08
0.0358981
-1.86219
-1.67037e-08
0.0358982
-1.86219
-1.61415e-08
0.0358983
-1.86219
-1.23068e-08
0.0358984