/*--------------------------------*- C++ -*----------------------------------*\
| =========                 |                                                 |
| \\      /  F ield         | OpenFOAM: The Open Source CFD Toolbox           |
|  \\    /   O peration     | Version:  2212                                  |
|   \\  /    A nd           | Website:  www.openfoam.com                      |
|    \\/     M anipulation  |                                                 |
\*---------------------------------------------------------------------------*/
FoamFile
{
    version     2.0;
    format      ascii;
    arch        "LSB;label=32;scalar=64";
    class       volVectorField;
    location    "0.181";
    object      U_0;
}
// * * * * * * * * * * * * * * * * * * * * * * * * * * * * * * * * * * * * * //

dimensions      [0 1 -1 0 0 0 0];

internalField   nonuniform List<vector> 
24240
(
(9.15351 0.705422 1.50614e-06)
(9.15363 0.705432 1.17664e-06)
(9.15363 0.70543 2.55612e-06)
(9.15362 0.705427 3.07126e-06)
(9.15362 0.705422 3.85916e-06)
(9.15362 0.705418 4.31673e-06)
(9.15361 0.705413 4.70292e-06)
(9.15361 0.705407 4.88036e-06)
(9.15361 0.705402 4.91874e-06)
(9.1536 0.705396 4.80018e-06)
(9.1536 0.705391 4.56237e-06)
(9.1536 0.705386 4.21337e-06)
(9.15359 0.705381 3.78984e-06)
(9.15359 0.705377 3.29396e-06)
(9.15359 0.705373 2.8028e-06)
(9.15358 0.70537 2.2314e-06)
(9.15358 0.705368 1.83571e-06)
(9.15358 0.705366 1.06359e-06)
(9.15358 0.705365 9.85674e-07)
(9.15346 0.705353 -8.54129e-07)
(9.08299 0.708349 -5.85717e-07)
(9.08312 0.708361 -1.31655e-06)
(9.08312 0.70836 -1.98465e-06)
(9.08312 0.708359 -2.76344e-06)
(9.08312 0.708359 -3.28874e-06)
(9.08312 0.708358 -3.77291e-06)
(9.08312 0.708357 -4.07545e-06)
(9.08313 0.708356 -4.27329e-06)
(9.08313 0.708355 -4.32531e-06)
(9.08313 0.708354 -4.26776e-06)
(9.08313 0.708353 -4.10154e-06)
(9.08313 0.708352 -3.85008e-06)
(9.08313 0.708351 -3.52062e-06)
(9.08313 0.70835 -3.14807e-06)
(9.08313 0.70835 -2.72265e-06)
(9.08313 0.708349 -2.32665e-06)
(9.08314 0.708348 -1.85012e-06)
(9.08314 0.708348 -1.47892e-06)
(9.08314 0.708348 -8.68981e-07)
(9.08301 0.708336 -2.01434e-07)
(9.11862 0.428969 7.6302e-08)
(9.11874 0.428977 8.78372e-07)
(9.11874 0.428976 1.68182e-06)
(9.11874 0.428976 2.17961e-06)
(9.11874 0.428976 2.69928e-06)
(9.11874 0.428976 3.01301e-06)
(9.11874 0.428976 3.24346e-06)
(9.11873 0.428976 3.32775e-06)
(9.11873 0.428976 3.30917e-06)
(9.11873 0.428975 3.18454e-06)
(9.11873 0.428975 2.97797e-06)
(9.11872 0.428975 2.70342e-06)
(9.11872 0.428975 2.38438e-06)
(9.11872 0.428974 2.03035e-06)
(9.11872 0.428974 1.68709e-06)
(9.11872 0.428974 1.31577e-06)
(9.11872 0.428974 1.04125e-06)
(9.11872 0.428974 6.834e-07)
(9.11872 0.428974 5.01372e-07)
(9.11859 0.428967 3.13664e-07)
(8.99578 0.423813 -5.12522e-07)
(8.9959 0.42382 -1.36572e-06)
(8.9959 0.42382 -2.09692e-06)
(8.9959 0.423819 -2.8448e-06)
(8.9959 0.423818 -3.44204e-06)
(8.99591 0.423817 -3.93925e-06)
(8.99591 0.423815 -4.28175e-06)
(8.99591 0.423814 -4.50039e-06)
(8.99591 0.423812 -4.57908e-06)
(8.99591 0.423811 -4.53649e-06)
(8.99592 0.423809 -4.37694e-06)
(8.99592 0.423808 -4.11798e-06)
(8.99592 0.423806 -3.77194e-06)
(8.99592 0.423805 -3.36422e-06)
(8.99592 0.423804 -2.90237e-06)
(8.99592 0.423803 -2.43357e-06)
(8.99593 0.423802 -1.92483e-06)
(8.99593 0.423802 -1.43542e-06)
(8.99593 0.423802 -8.12848e-07)
(8.9958 0.423794 -2.42935e-07)
(9.01982 0.241408 -4.18305e-08)
(9.01995 0.241413 2.20689e-07)
(9.01995 0.241413 5.11661e-07)
(9.01995 0.241413 6.6055e-07)
(9.01995 0.241413 7.94529e-07)
(9.01995 0.241414 8.55542e-07)
(9.01995 0.241414 8.82071e-07)
(9.01995 0.241415 8.51663e-07)
(9.01995 0.241415 7.85533e-07)
(9.01995 0.241415 6.86796e-07)
(9.01995 0.241416 5.70713e-07)
(9.01995 0.241416 4.47427e-07)
(9.01995 0.241416 3.29039e-07)
(9.01995 0.241416 2.19408e-07)
(9.01995 0.241417 1.36087e-07)
(9.01995 0.241417 6.48124e-08)
(9.01995 0.241417 3.44735e-08)
(9.01995 0.241417 7.12933e-09)
(9.01995 0.241417 7.09052e-08)
(9.01982 0.241413 9.59987e-08)
(8.92628 0.234428 -4.15627e-07)
(8.92641 0.234432 -1.12113e-06)
(8.92641 0.234431 -1.74528e-06)
(8.92641 0.234431 -2.35656e-06)
(8.92642 0.23443 -2.85475e-06)
(8.92642 0.234428 -3.27801e-06)
(8.92642 0.234427 -3.58414e-06)
(8.92642 0.234426 -3.78864e-06)
(8.92643 0.234424 -3.87722e-06)
(8.92643 0.234423 -3.8614e-06)
(8.92643 0.234422 -3.74291e-06)
(8.92644 0.23442 -3.53502e-06)
(8.92644 0.234419 -3.24488e-06)
(8.92644 0.234418 -2.89474e-06)
(8.92645 0.234417 -2.48668e-06)
(8.92645 0.234416 -2.06176e-06)
(8.92645 0.234416 -1.5908e-06)
(8.92645 0.234415 -1.13786e-06)
(8.92645 0.234415 -6.15041e-07)
(8.92633 0.23441 -1.6771e-07)
(8.94197 0.107881 -2.2447e-07)
(8.9421 0.107883 -4.19966e-07)
(8.9421 0.107882 -5.74125e-07)
(8.9421 0.107882 -7.82177e-07)
(8.9421 0.107882 -9.64972e-07)
(8.94211 0.107882 -1.1408e-06)
(8.94211 0.107882 -1.29005e-06)
(8.94211 0.107881 -1.41829e-06)
(8.94211 0.107881 -1.51435e-06)
(8.94211 0.107881 -1.57766e-06)
(8.94212 0.107881 -1.60136e-06)
(8.94212 0.10788 -1.58479e-06)
(8.94212 0.10788 -1.52294e-06)
(8.94212 0.10788 -1.42166e-06)
(8.94213 0.10788 -1.27427e-06)
(8.94213 0.107879 -1.09828e-06)
(8.94213 0.107879 -8.78957e-07)
(8.94213 0.107879 -6.43757e-07)
(8.94213 0.107879 -3.28425e-07)
(8.942 0.107877 -4.52389e-08)
(8.89406 0.0969851 -4.18479e-07)
(8.89418 0.0969868 -1.19611e-06)
(8.89418 0.0969866 -1.89554e-06)
(8.89419 0.0969863 -2.56283e-06)
(8.89419 0.0969858 -3.12175e-06)
(8.89419 0.0969853 -3.59241e-06)
(8.8942 0.0969848 -3.94319e-06)
(8.8942 0.0969842 -4.1812e-06)
(8.8942 0.0969836 -4.29688e-06)
(8.89421 0.0969829 -4.29645e-06)
(8.89421 0.0969823 -4.18131e-06)
(8.89422 0.0969817 -3.96308e-06)
(8.89422 0.0969811 -3.64781e-06)
(8.89423 0.0969806 -3.26116e-06)
(8.89423 0.0969801 -2.80746e-06)
(8.89423 0.0969797 -2.33132e-06)
(8.89423 0.0969793 -1.8112e-06)
(8.89424 0.096979 -1.30595e-06)
(8.89424 0.0969787 -7.28142e-07)
(8.89411 0.0969768 -2.14919e-07)
(8.9052 -0.000234455 -2.97648e-07)
(8.90532 -0.000234482 -6.9644e-07)
(8.90532 -0.000234551 -1.06039e-06)
(8.90532 -0.000234619 -1.43339e-06)
(8.90533 -0.000234721 -1.75961e-06)
(8.90533 -0.000234835 -2.04665e-06)
(8.90533 -0.000234971 -2.27871e-06)
(8.90533 -0.000235119 -2.45788e-06)
(8.90534 -0.000235282 -2.57833e-06)
(8.90534 -0.000235453 -2.64107e-06)
(8.90534 -0.00023563 -2.6431e-06)
(8.90534 -0.000235807 -2.5874e-06)
(8.90535 -0.000235979 -2.47026e-06)
(8.90535 -0.000236139 -2.30148e-06)
(8.90535 -0.000236284 -2.07104e-06)
(8.90535 -0.000236405 -1.80346e-06)
(8.90535 -0.000236506 -1.47022e-06)
(8.90536 -0.000236578 -1.1141e-06)
(8.90536 -0.000236628 -6.53992e-07)
(8.90523 -0.000236608 -1.60559e-07)
(8.9034 -0.0181884 -4.62318e-07)
(8.90353 -0.0181892 -1.27818e-06)
(8.90353 -0.0181898 -2.01546e-06)
(8.90353 -0.0181908 -2.71367e-06)
(8.90353 -0.018192 -3.3137e-06)
(8.90353 -0.0181933 -3.81625e-06)
(8.90354 -0.0181949 -4.19954e-06)
(8.90354 -0.0181965 -4.4634e-06)
(8.90354 -0.0181982 -4.60134e-06)
(8.90354 -0.0181998 -4.61615e-06)
(8.90355 -0.0182014 -4.50879e-06)
(8.90355 -0.0182029 -4.28858e-06)
(8.90355 -0.0182043 -3.95994e-06)
(8.90356 -0.0182055 -3.54925e-06)
(8.90356 -0.0182066 -3.06167e-06)
(8.90356 -0.0182075 -2.54709e-06)
(8.90356 -0.0182082 -1.9824e-06)
(8.90356 -0.0182087 -1.42978e-06)
(8.90356 -0.018209 -7.71651e-07)
(8.90344 -0.0182086 -1.8568e-07)
(8.90909 -0.108419 -5.1904e-07)
(8.90922 -0.10842 -1.50691e-06)
(8.90922 -0.10842 -2.39466e-06)
(8.90922 -0.108419 -3.22261e-06)
(8.90922 -0.108418 -3.92728e-06)
(8.90922 -0.108417 -4.50926e-06)
(8.90922 -0.108416 -4.94632e-06)
(8.90922 -0.108415 -5.24001e-06)
(8.90923 -0.108414 -5.38811e-06)
(8.90923 -0.108413 -5.39635e-06)
(8.90923 -0.108412 -5.27158e-06)
(8.90923 -0.10841 -5.02644e-06)
(8.90923 -0.10841 -4.66891e-06)
(8.90923 -0.108409 -4.22369e-06)
(8.90924 -0.108408 -3.69429e-06)
(8.90924 -0.108407 -3.12493e-06)
(8.90924 -0.108407 -2.48424e-06)
(8.90924 -0.108407 -1.83961e-06)
(8.90924 -0.108407 -1.05793e-06)
(8.90911 -0.108404 -3.07969e-07)
(8.95809 -0.126087 -3.19466e-07)
(8.95821 -0.126089 -7.13958e-07)
(8.95821 -0.12609 -1.0664e-06)
(8.95821 -0.12609 -1.43091e-06)
(8.95822 -0.126091 -1.7619e-06)
(8.95822 -0.126091 -2.05652e-06)
(8.95822 -0.126092 -2.30217e-06)
(8.95822 -0.126093 -2.49718e-06)
(8.95822 -0.126094 -2.63426e-06)
(8.95822 -0.126094 -2.71096e-06)
(8.95822 -0.126095 -2.72063e-06)
(8.95822 -0.126096 -2.66377e-06)
(8.95822 -0.126096 -2.53233e-06)
(8.95822 -0.126097 -2.34001e-06)
(8.95822 -0.126098 -2.07519e-06)
(8.95822 -0.126098 -1.77574e-06)
(8.95822 -0.126098 -1.4083e-06)
(8.95822 -0.126098 -1.03178e-06)
(8.95822 -0.126099 -5.41389e-07)
(8.95809 -0.126096 -7.1701e-08)
(8.9546 -0.236507 -6.16644e-07)
(8.95473 -0.236512 -1.88171e-06)
(8.95473 -0.236512 -2.9983e-06)
(8.95473 -0.236511 -4.03856e-06)
(8.95473 -0.236511 -4.91655e-06)
(8.95473 -0.23651 -5.64578e-06)
(8.95474 -0.236509 -6.19108e-06)
(8.95474 -0.236509 -6.55403e-06)
(8.95474 -0.236508 -6.72876e-06)
(8.95474 -0.236507 -6.72272e-06)
(8.95474 -0.236506 -6.54398e-06)
(8.95474 -0.236506 -6.20871e-06)
(8.95474 -0.236505 -5.73185e-06)
(8.95475 -0.236505 -5.14443e-06)
(8.95475 -0.236504 -4.45785e-06)
(8.95475 -0.236504 -3.72948e-06)
(8.95475 -0.236504 -2.92061e-06)
(8.95475 -0.236503 -2.13072e-06)
(8.95475 -0.236503 -1.18518e-06)
(8.95462 -0.236499 -3.52278e-07)
(9.05736 -0.2486 -2.59491e-07)
(9.05748 -0.248605 -3.90882e-07)
(9.05748 -0.248605 -4.88816e-07)
(9.05748 -0.248605 -6.56087e-07)
(9.05748 -0.248605 -8.30082e-07)
(9.05748 -0.248605 -1.00612e-06)
(9.05748 -0.248605 -1.17269e-06)
(9.05747 -0.248605 -1.3313e-06)
(9.05747 -0.248605 -1.47012e-06)
(9.05747 -0.248605 -1.58519e-06)
(9.05747 -0.248605 -1.66308e-06)
(9.05747 -0.248605 -1.70074e-06)
(9.05747 -0.248605 -1.6812e-06)
(9.05746 -0.248605 -1.6121e-06)
(9.05746 -0.248605 -1.47244e-06)
(9.05746 -0.248605 -1.29411e-06)
(9.05746 -0.248605 -1.04198e-06)
(9.05746 -0.248605 -7.60785e-07)
(9.05746 -0.248605 -3.53531e-07)
(9.05733 -0.2486 2.80588e-08)
(9.04219 -0.407941 -6.38716e-07)
(9.04231 -0.407948 -1.95706e-06)
(9.04231 -0.407948 -3.10248e-06)
(9.04232 -0.407947 -4.18659e-06)
(9.04232 -0.407946 -5.07932e-06)
(9.04232 -0.407945 -5.83888e-06)
(9.04232 -0.407944 -6.40089e-06)
(9.04232 -0.407943 -6.77467e-06)
(9.04232 -0.407942 -6.9471e-06)
(9.04232 -0.407941 -6.92901e-06)
(9.04232 -0.407939 -6.72746e-06)
(9.04232 -0.407938 -6.36237e-06)
(9.04232 -0.407937 -5.85135e-06)
(9.04232 -0.407937 -5.22966e-06)
(9.04232 -0.407936 -4.51076e-06)
(9.04232 -0.407936 -3.75966e-06)
(9.04232 -0.407935 -2.91216e-06)
(9.04232 -0.407935 -2.11149e-06)
(9.04232 -0.407935 -1.13474e-06)
(9.0422 -0.407927 -3.26887e-07)
(9.19587 -0.413096 -1.35081e-07)
(9.196 -0.413104 1.58696e-07)
(9.19599 -0.413104 4.65433e-07)
(9.19599 -0.413103 5.82514e-07)
(9.19599 -0.413103 6.51881e-07)
(9.19599 -0.413102 6.62852e-07)
(9.19598 -0.413101 6.33691e-07)
(9.19598 -0.4131 5.42594e-07)
(9.19597 -0.4131 4.15898e-07)
(9.19597 -0.413099 2.48245e-07)
(9.19596 -0.413098 6.53824e-08)
(9.19596 -0.413097 -1.29883e-07)
(9.19596 -0.413096 -3.04504e-07)
(9.19595 -0.413096 -4.61212e-07)
(9.19595 -0.413095 -5.57183e-07)
(9.19595 -0.413095 -6.17888e-07)
(9.19594 -0.413095 -5.90969e-07)
(9.19594 -0.413094 -5.01622e-07)
(9.19594 -0.413094 -2.24688e-07)
(9.19581 -0.413086 8.65666e-08)
(9.16555 -0.661608 -5.19291e-07)
(9.16568 -0.66162 -1.56092e-06)
(9.16568 -0.661619 -2.42347e-06)
(9.16568 -0.661618 -3.33974e-06)
(9.16568 -0.661617 -4.10858e-06)
(9.16567 -0.661617 -4.75063e-06)
(9.16567 -0.661616 -5.21554e-06)
(9.16567 -0.661614 -5.5305e-06)
(9.16567 -0.661613 -5.67446e-06)
(9.16567 -0.661612 -5.66548e-06)
(9.16567 -0.661611 -5.50642e-06)
(9.16567 -0.66161 -5.22126e-06)
(9.16566 -0.661609 -4.81993e-06)
(9.16566 -0.661609 -4.34313e-06)
(9.16566 -0.661608 -3.79003e-06)
(9.16566 -0.661608 -3.227e-06)
(9.16566 -0.661607 -2.58658e-06)
(9.16566 -0.661607 -1.95878e-06)
(9.16566 -0.661607 -1.07167e-06)
(9.16553 -0.661596 -3.19332e-07)
(9.34326 -0.659583 -5.15066e-08)
(9.34339 -0.659594 7.22657e-07)
(9.34339 -0.659593 1.37926e-06)
(9.34338 -0.659593 1.68332e-06)
(9.34338 -0.659592 2.07117e-06)
(9.34337 -0.65959 2.24856e-06)
(9.34337 -0.659589 2.38557e-06)
(9.34336 -0.659588 2.3719e-06)
(9.34335 -0.659586 2.26929e-06)
(9.34334 -0.659585 2.05576e-06)
(9.34334 -0.659583 1.7652e-06)
(9.34333 -0.659582 1.39815e-06)
(9.34332 -0.659581 1.00832e-06)
(9.34332 -0.659579 5.8932e-07)
(9.34331 -0.659579 2.4205e-07)
(9.34331 -0.659578 -1.09548e-07)
(9.34331 -0.659577 -2.46226e-07)
(9.3433 -0.659577 -4.50031e-07)
(9.3433 -0.659577 -3.16963e-07)
(9.34318 -0.659566 1.07827e-07)
(9.29069 -1.0502 -2.20587e-07)
(9.29082 -1.05022 -5.94951e-07)
(9.29081 -1.05022 -1.19395e-06)
(9.29081 -1.05022 -1.91871e-06)
(9.29081 -1.05022 -2.33035e-06)
(9.29081 -1.05022 -2.75892e-06)
(9.2908 -1.05022 -3.02609e-06)
(9.2908 -1.05022 -3.24025e-06)
(9.29079 -1.05021 -3.34395e-06)
(9.29079 -1.05021 -3.37655e-06)
(9.29078 -1.05021 -3.32345e-06)
(9.29078 -1.05021 -3.21433e-06)
(9.29078 -1.05021 -3.02982e-06)
(9.29077 -1.05021 -2.82653e-06)
(9.29077 -1.05021 -2.54729e-06)
(9.29077 -1.05021 -2.32194e-06)
(9.29077 -1.05021 -1.91816e-06)
(9.29076 -1.05021 -1.71085e-06)
(9.29076 -1.05021 -1.16727e-06)
(9.29064 -1.05019 -3.31799e-07)
(9.376 -1.02996 1.47361e-06)
(9.37611 -1.02998 1.44677e-06)
(9.37611 -1.02997 2.35349e-06)
(9.3761 -1.02997 2.33613e-06)
(9.3761 -1.02997 2.90833e-06)
(9.37609 -1.02997 3.15164e-06)
(9.37608 -1.02996 3.41442e-06)
(9.37608 -1.02996 3.47706e-06)
(9.37607 -1.02995 3.43566e-06)
(9.37606 -1.02995 3.23041e-06)
(9.37605 -1.02995 2.90355e-06)
(9.37605 -1.02994 2.45831e-06)
(9.37604 -1.02994 1.95024e-06)
(9.37603 -1.02994 1.36836e-06)
(9.37603 -1.02993 8.70127e-07)
(9.37602 -1.02993 2.85989e-07)
(9.37602 -1.02993 4.21861e-08)
(9.37602 -1.02993 -8.14315e-07)
(9.37602 -1.02993 -7.19627e-07)
(9.37591 -1.02992 -1.30649e-06)
(8.72957 0.76909 1.0053e-06)
(8.72969 0.7691 8.42809e-07)
(8.72969 0.769098 1.51273e-06)
(8.72969 0.769096 1.7599e-06)
(8.72969 0.769093 2.27785e-06)
(8.72969 0.76909 2.55444e-06)
(8.7297 0.769086 2.84278e-06)
(8.7297 0.769082 2.98455e-06)
(8.7297 0.769078 3.06447e-06)
(8.7297 0.769074 3.04095e-06)
(8.72971 0.76907 2.94952e-06)
(8.72971 0.769066 2.77914e-06)
(8.72971 0.769062 2.56462e-06)
(8.72971 0.769059 2.28078e-06)
(8.72971 0.769056 2.01265e-06)
(8.72971 0.769054 1.63079e-06)
(8.72971 0.769051 1.38941e-06)
(8.72972 0.76905 8.15454e-07)
(8.72972 0.769049 5.37509e-07)
(8.7296 0.769038 -6.18362e-07)
(8.78192 0.776164 -5.04252e-07)
(8.78204 0.776176 -1.15378e-06)
(8.78204 0.776176 -1.76619e-06)
(8.78204 0.776176 -2.45965e-06)
(8.78204 0.776176 -2.92104e-06)
(8.78204 0.776177 -3.3812e-06)
(8.78203 0.776178 -3.66849e-06)
(8.78203 0.776178 -3.88856e-06)
(8.78203 0.776179 -3.97315e-06)
(8.78203 0.77618 -3.96635e-06)
(8.78203 0.77618 -3.85174e-06)
(8.78203 0.776181 -3.65776e-06)
(8.78203 0.776181 -3.3746e-06)
(8.78203 0.776182 -3.05036e-06)
(8.78203 0.776182 -2.64756e-06)
(8.78203 0.776182 -2.28038e-06)
(8.78203 0.776183 -1.79301e-06)
(8.78203 0.776183 -1.39723e-06)
(8.78203 0.776183 -8.39495e-07)
(8.78191 0.776172 -2.3318e-07)
(8.81843 0.534148 2.15102e-07)
(8.81855 0.534156 1.07311e-06)
(8.81855 0.534156 1.90004e-06)
(8.81855 0.534156 2.51195e-06)
(8.81855 0.534156 3.1664e-06)
(8.81855 0.534156 3.59147e-06)
(8.81855 0.534156 3.93859e-06)
(8.81855 0.534156 4.11906e-06)
(8.81855 0.534156 4.18383e-06)
(8.81855 0.534156 4.11976e-06)
(8.81855 0.534156 3.95229e-06)
(8.81855 0.534156 3.69021e-06)
(8.81855 0.534156 3.35896e-06)
(8.81855 0.534156 2.9678e-06)
(8.81855 0.534156 2.57225e-06)
(8.81855 0.534156 2.11164e-06)
(8.81855 0.534157 1.7494e-06)
(8.81855 0.534157 1.24117e-06)
(8.81855 0.534157 8.02205e-07)
(8.81843 0.534149 3.43251e-07)
(8.79175 0.53051 -4.44392e-07)
(8.79187 0.530518 -1.1338e-06)
(8.79187 0.530517 -1.71918e-06)
(8.79187 0.530516 -2.33636e-06)
(8.79187 0.530516 -2.83821e-06)
(8.79187 0.530515 -3.26854e-06)
(8.79187 0.530513 -3.56628e-06)
(8.79187 0.530512 -3.77396e-06)
(8.79186 0.530511 -3.86188e-06)
(8.79186 0.530509 -3.85165e-06)
(8.79186 0.530508 -3.73801e-06)
(8.79186 0.530507 -3.53876e-06)
(8.79186 0.530505 -3.25746e-06)
(8.79186 0.530504 -2.92666e-06)
(8.79186 0.530503 -2.53141e-06)
(8.79186 0.530502 -2.13461e-06)
(8.79186 0.530502 -1.67771e-06)
(8.79186 0.530501 -1.22746e-06)
(8.79186 0.530501 -6.75468e-07)
(8.79174 0.530492 -1.95266e-07)
(8.81472 0.323269 8.73141e-08)
(8.81484 0.323274 5.16655e-07)
(8.81484 0.323274 9.83421e-07)
(8.81484 0.323273 1.30981e-06)
(8.81484 0.323273 1.59395e-06)
(8.81484 0.323272 1.7834e-06)
(8.81484 0.323272 1.91448e-06)
(8.81484 0.323271 1.95358e-06)
(8.81484 0.32327 1.93038e-06)
(8.81484 0.32327 1.84284e-06)
(8.81484 0.323269 1.71238e-06)
(8.81484 0.323268 1.54731e-06)
(8.81484 0.323267 1.36672e-06)
(8.81484 0.323267 1.17261e-06)
(8.81484 0.323266 9.95401e-07)
(8.81484 0.323266 8.11675e-07)
(8.81484 0.323265 6.61485e-07)
(8.81484 0.323265 4.92385e-07)
(8.81484 0.323265 3.78761e-07)
(8.81472 0.32326 1.70096e-07)
(8.7761 0.315179 -5.06232e-07)
(8.77622 0.315184 -1.40497e-06)
(8.77622 0.315183 -2.2486e-06)
(8.77622 0.315181 -3.03214e-06)
(8.77622 0.315179 -3.66661e-06)
(8.77622 0.315177 -4.21943e-06)
(8.77622 0.315175 -4.62001e-06)
(8.77623 0.315172 -4.89638e-06)
(8.77623 0.315169 -5.0246e-06)
(8.77623 0.315167 -5.02183e-06)
(8.77623 0.315164 -4.88575e-06)
(8.77623 0.315161 -4.63726e-06)
(8.77623 0.315159 -4.27957e-06)
(8.77623 0.315157 -3.84815e-06)
(8.77623 0.315155 -3.3301e-06)
(8.77623 0.315153 -2.78936e-06)
(8.77623 0.315152 -2.15739e-06)
(8.77623 0.315151 -1.54731e-06)
(8.77623 0.31515 -8.87681e-07)
(8.77611 0.315145 -2.67922e-07)
(8.78819 0.146545 -3.34518e-07)
(8.78832 0.146547 -7.36439e-07)
(8.78832 0.146546 -1.10036e-06)
(8.78832 0.146546 -1.4792e-06)
(8.78832 0.146545 -1.81191e-06)
(8.78832 0.146545 -2.10976e-06)
(8.78832 0.146544 -2.34781e-06)
(8.78832 0.146543 -2.53444e-06)
(8.78832 0.146542 -2.654e-06)
(8.78832 0.146541 -2.71061e-06)
(8.78832 0.14654 -2.69461e-06)
(8.78832 0.146539 -2.61304e-06)
(8.78832 0.146538 -2.46014e-06)
(8.78833 0.146537 -2.25311e-06)
(8.78833 0.146536 -1.98036e-06)
(8.78833 0.146536 -1.67682e-06)
(8.78833 0.146535 -1.31567e-06)
(8.78833 0.146535 -9.41256e-07)
(8.78833 0.146535 -4.95844e-07)
(8.78821 0.146532 -9.23513e-08)
(8.7684 0.131692 -6.0911e-07)
(8.76853 0.131694 -1.79206e-06)
(8.76853 0.131694 -2.89955e-06)
(8.76853 0.131693 -3.91763e-06)
(8.76853 0.131693 -4.77581e-06)
(8.76853 0.131693 -5.50538e-06)
(8.76853 0.131692 -6.05305e-06)
(8.76853 0.131691 -6.43063e-06)
(8.76853 0.131691 -6.62053e-06)
(8.76853 0.13169 -6.63413e-06)
(8.76854 0.131689 -6.47118e-06)
(8.76854 0.131689 -6.15371e-06)
(8.76854 0.131688 -5.68863e-06)
(8.76854 0.131688 -5.11884e-06)
(8.76854 0.131687 -4.43973e-06)
(8.76854 0.131687 -3.72409e-06)
(8.76854 0.131686 -2.91774e-06)
(8.76854 0.131686 -2.11751e-06)
(8.76854 0.131686 -1.23156e-06)
(8.76842 0.131684 -3.8589e-07)
(8.77464 -0.00923488 -4.12688e-07)
(8.77476 -0.009235 -1.03989e-06)
(8.77476 -0.00923492 -1.63417e-06)
(8.77476 -0.00923475 -2.1898e-06)
(8.77476 -0.00923457 -2.66836e-06)
(8.77476 -0.00923435 -3.07854e-06)
(8.77476 -0.00923413 -3.39657e-06)
(8.77476 -0.00923389 -3.62888e-06)
(8.77477 -0.00923365 -3.76723e-06)
(8.77477 -0.00923343 -3.8184e-06)
(8.77477 -0.00923322 -3.77954e-06)
(8.77477 -0.00923302 -3.66246e-06)
(8.77477 -0.00923285 -3.46211e-06)
(8.77477 -0.00923269 -3.19927e-06)
(8.77477 -0.00923254 -2.8521e-06)
(8.77478 -0.0092324 -2.46285e-06)
(8.77478 -0.00923228 -1.97867e-06)
(8.77478 -0.00923218 -1.48036e-06)
(8.77478 -0.0092321 -8.78877e-07)
(8.77465 -0.00923183 -2.27622e-07)
(8.78079 -0.0305486 -6.02868e-07)
(8.78091 -0.0305495 -1.69048e-06)
(8.78091 -0.03055 -2.70637e-06)
(8.78091 -0.0305508 -3.64668e-06)
(8.78091 -0.0305517 -4.46116e-06)
(8.78091 -0.0305529 -5.15232e-06)
(8.78091 -0.0305541 -5.68636e-06)
(8.78092 -0.0305554 -6.06237e-06)
(8.78092 -0.0305568 -6.26688e-06)
(8.78092 -0.0305582 -6.30391e-06)
(8.78092 -0.0305596 -6.17059e-06)
(8.78092 -0.0305608 -5.88339e-06)
(8.78092 -0.030562 -5.44467e-06)
(8.78092 -0.0305631 -4.89688e-06)
(8.78092 -0.030564 -4.23693e-06)
(8.78092 -0.0305648 -3.54096e-06)
(8.78092 -0.0305654 -2.75812e-06)
(8.78092 -0.0305659 -1.9863e-06)
(8.78092 -0.0305662 -1.09501e-06)
(8.7808 -0.0305656 -2.73968e-07)
(8.78313 -0.167255 -5.69205e-07)
(8.78325 -0.167257 -1.68754e-06)
(8.78325 -0.167257 -2.71503e-06)
(8.78325 -0.167256 -3.6549e-06)
(8.78325 -0.167255 -4.45324e-06)
(8.78325 -0.167253 -5.12281e-06)
(8.78325 -0.167252 -5.62962e-06)
(8.78325 -0.16725 -5.97892e-06)
(8.78325 -0.167248 -6.16408e-06)
(8.78325 -0.167246 -6.19151e-06)
(8.78325 -0.167244 -6.06712e-06)
(8.78324 -0.167243 -5.80783e-06)
(8.78324 -0.167241 -5.41744e-06)
(8.78324 -0.167239 -4.92963e-06)
(8.78324 -0.167238 -4.33204e-06)
(8.78324 -0.167237 -3.6857e-06)
(8.78324 -0.167236 -2.92468e-06)
(8.78324 -0.167236 -2.16694e-06)
(8.78324 -0.167235 -1.2631e-06)
(8.78312 -0.167232 -3.74289e-07)
(8.81926 -0.185986 -3.83802e-07)
(8.81938 -0.18599 -8.86003e-07)
(8.81938 -0.18599 -1.3538e-06)
(8.81938 -0.18599 -1.80078e-06)
(8.81938 -0.185991 -2.1996e-06)
(8.81938 -0.185992 -2.54728e-06)
(8.81938 -0.185993 -2.82791e-06)
(8.81938 -0.185993 -3.04126e-06)
(8.81938 -0.185994 -3.1776e-06)
(8.81938 -0.185995 -3.23774e-06)
(8.81938 -0.185996 -3.21297e-06)
(8.81938 -0.185997 -3.11095e-06)
(8.81938 -0.185997 -2.91978e-06)
(8.81938 -0.185998 -2.66613e-06)
(8.81938 -0.185999 -2.32714e-06)
(8.81938 -0.185999 -1.96174e-06)
(8.81938 -0.185999 -1.51322e-06)
(8.81938 -0.186 -1.07549e-06)
(8.81938 -0.186 -5.51501e-07)
(8.81926 -0.185997 -5.62252e-08)
(8.81388 -0.346498 -6.7318e-07)
(8.81401 -0.346504 -2.08872e-06)
(8.81401 -0.346503 -3.38106e-06)
(8.81401 -0.346502 -4.55758e-06)
(8.814 -0.346502 -5.53933e-06)
(8.814 -0.3465 -6.37219e-06)
(8.814 -0.346499 -6.99926e-06)
(8.814 -0.346498 -7.42749e-06)
(8.814 -0.346497 -7.64449e-06)
(8.814 -0.346495 -7.66017e-06)
(8.814 -0.346494 -7.48129e-06)
(8.814 -0.346493 -7.12904e-06)
(8.814 -0.346492 -6.6161e-06)
(8.814 -0.346491 -5.98084e-06)
(8.814 -0.34649 -5.22001e-06)
(8.814 -0.346489 -4.40704e-06)
(8.814 -0.346488 -3.45584e-06)
(8.814 -0.346488 -2.53068e-06)
(8.814 -0.346487 -1.46024e-06)
(8.81388 -0.346481 -4.54129e-07)
(8.87764 -0.357592 -2.27815e-07)
(8.87776 -0.357598 -3.03379e-07)
(8.87776 -0.357598 -3.45879e-07)
(8.87776 -0.357598 -4.38209e-07)
(8.87776 -0.357598 -5.43635e-07)
(8.87776 -0.357598 -6.49516e-07)
(8.87776 -0.357598 -7.49818e-07)
(8.87776 -0.357598 -8.51761e-07)
(8.87776 -0.357598 -9.41706e-07)
(8.87776 -0.357598 -1.02111e-06)
(8.87776 -0.357598 -1.07267e-06)
(8.87776 -0.357599 -1.10135e-06)
(8.87776 -0.357599 -1.08075e-06)
(8.87775 -0.357599 -1.02966e-06)
(8.87775 -0.357599 -9.12673e-07)
(8.87775 -0.357599 -7.7873e-07)
(8.87775 -0.357599 -5.75579e-07)
(8.87775 -0.357599 -3.6972e-07)
(8.87775 -0.357599 -9.00568e-08)
(8.87763 -0.357592 1.23812e-07)
(8.86074 -0.56473 -6.93868e-07)
(8.86086 -0.564739 -2.15488e-06)
(8.86086 -0.564738 -3.50217e-06)
(8.86086 -0.564737 -4.71813e-06)
(8.86086 -0.564736 -5.68182e-06)
(8.86086 -0.564734 -6.53912e-06)
(8.86086 -0.564732 -7.17415e-06)
(8.86086 -0.56473 -7.60995e-06)
(8.86086 -0.564728 -7.82257e-06)
(8.86086 -0.564726 -7.82824e-06)
(8.86086 -0.564724 -7.63147e-06)
(8.86085 -0.564723 -7.25837e-06)
(8.86085 -0.564721 -6.72334e-06)
(8.86085 -0.564719 -6.06725e-06)
(8.86085 -0.564718 -5.28673e-06)
(8.86085 -0.564717 -4.46025e-06)
(8.86085 -0.564716 -3.45215e-06)
(8.86085 -0.564716 -2.50893e-06)
(8.86085 -0.564715 -1.41784e-06)
(8.86073 -0.564706 -4.28085e-07)
(8.93613 -0.566043 4.3622e-08)
(8.93625 -0.566052 6.16732e-07)
(8.93625 -0.566052 1.23299e-06)
(8.93625 -0.566051 1.63384e-06)
(8.93625 -0.566051 1.93302e-06)
(8.93625 -0.56605 2.17113e-06)
(8.93625 -0.566049 2.34178e-06)
(8.93624 -0.566048 2.40038e-06)
(8.93624 -0.566047 2.37866e-06)
(8.93624 -0.566047 2.26313e-06)
(8.93624 -0.566046 2.09e-06)
(8.93624 -0.566045 1.85201e-06)
(8.93624 -0.566044 1.59768e-06)
(8.93624 -0.566043 1.31237e-06)
(8.93624 -0.566043 1.06737e-06)
(8.93624 -0.566042 8.10222e-07)
(8.93624 -0.566042 5.83313e-07)
(8.93624 -0.566041 4.11256e-07)
(8.93624 -0.566041 3.59873e-07)
(8.93611 -0.566032 2.51515e-07)
(8.90193 -0.835898 -5.67466e-07)
(8.90205 -0.835911 -1.72851e-06)
(8.90205 -0.83591 -2.68247e-06)
(8.90205 -0.835908 -3.70186e-06)
(8.90205 -0.835907 -4.59033e-06)
(8.90205 -0.835905 -5.31359e-06)
(8.90205 -0.835903 -5.83587e-06)
(8.90205 -0.835901 -6.19809e-06)
(8.90205 -0.835899 -6.3661e-06)
(8.90204 -0.835896 -6.36799e-06)
(8.90204 -0.835894 -6.20039e-06)
(8.90204 -0.835892 -5.89849e-06)
(8.90204 -0.83589 -5.46403e-06)
(8.90204 -0.835888 -4.9511e-06)
(8.90204 -0.835887 -4.34471e-06)
(8.90204 -0.835886 -3.72819e-06)
(8.90204 -0.835885 -3.0362e-06)
(8.90204 -0.835885 -2.30444e-06)
(8.90204 -0.835884 -1.28667e-06)
(8.90191 -0.835871 -4.12471e-07)
(8.94438 -0.823887 3.93945e-07)
(8.9445 -0.823899 1.78379e-06)
(8.9445 -0.823898 2.9052e-06)
(8.9445 -0.823897 3.7794e-06)
(8.9445 -0.823896 4.73855e-06)
(8.9445 -0.823894 5.37103e-06)
(8.9445 -0.823892 5.89992e-06)
(8.9445 -0.82389 6.15873e-06)
(8.94449 -0.823887 6.23609e-06)
(8.94449 -0.823885 6.07447e-06)
(8.94449 -0.823883 5.74279e-06)
(8.94449 -0.823881 5.2267e-06)
(8.94449 -0.823879 4.61526e-06)
(8.94449 -0.823877 3.8873e-06)
(8.94449 -0.823876 3.2075e-06)
(8.94449 -0.823874 2.44465e-06)
(8.94448 -0.823873 1.90704e-06)
(8.94448 -0.823873 1.18432e-06)
(8.94448 -0.823872 5.39462e-07)
(8.94436 -0.82386 2.83848e-07)
(8.88319 -1.1466 -1.28077e-07)
(8.88331 -1.14662 -4.30136e-07)
(8.88331 -1.14662 -9.38691e-07)
(8.88331 -1.14662 -1.52355e-06)
(8.88331 -1.14662 -1.81808e-06)
(8.88331 -1.14662 -2.16169e-06)
(8.88331 -1.14662 -2.34402e-06)
(8.88331 -1.14663 -2.51331e-06)
(8.88331 -1.14663 -2.58421e-06)
(8.8833 -1.14663 -2.61897e-06)
(8.8833 -1.14663 -2.58439e-06)
(8.8833 -1.14663 -2.52623e-06)
(8.8833 -1.14663 -2.40654e-06)
(8.8833 -1.14664 -2.29906e-06)
(8.8833 -1.14664 -2.10536e-06)
(8.8833 -1.14664 -1.98972e-06)
(8.8833 -1.14664 -1.6598e-06)
(8.8833 -1.14664 -1.5242e-06)
(8.8833 -1.14664 -1.15098e-06)
(8.88317 -1.14662 -4.13156e-07)
(8.80875 -1.10742 1.83658e-06)
(8.80886 -1.10743 1.75618e-06)
(8.80885 -1.10743 1.95697e-06)
(8.80885 -1.10743 1.89776e-06)
(8.80885 -1.10742 2.40461e-06)
(8.80885 -1.10742 2.64256e-06)
(8.80885 -1.10742 2.94875e-06)
(8.80885 -1.10742 3.07023e-06)
(8.80885 -1.10741 3.12912e-06)
(8.80885 -1.10741 3.04689e-06)
(8.80884 -1.10741 2.88807e-06)
(8.80884 -1.1074 2.61861e-06)
(8.80884 -1.1074 2.32306e-06)
(8.80884 -1.1074 1.93241e-06)
(8.80884 -1.10739 1.62317e-06)
(8.80884 -1.10739 1.14803e-06)
(8.80884 -1.10739 9.29975e-07)
(8.80884 -1.10739 8.21063e-08)
(8.80884 -1.10739 -5.37959e-07)
(8.80873 -1.10738 -1.43271e-06)
(8.85213 0.741615 6.88414e-07)
(8.85225 0.741625 -4.86833e-07)
(8.85225 0.741624 4.48929e-07)
(8.85225 0.741623 4.42374e-07)
(8.85225 0.741621 8.00136e-07)
(8.85225 0.741619 8.80101e-07)
(8.85225 0.741617 1.04504e-06)
(8.85225 0.741614 1.10699e-06)
(8.85225 0.741612 1.16971e-06)
(8.85225 0.741609 1.18189e-06)
(8.85226 0.741606 1.18154e-06)
(8.85226 0.741604 1.14092e-06)
(8.85226 0.741601 1.098e-06)
(8.85226 0.741599 1.00492e-06)
(8.85226 0.741597 9.63768e-07)
(8.85226 0.741595 7.9183e-07)
(8.85226 0.741594 8.59701e-07)
(8.85226 0.741592 5.13631e-07)
(8.85226 0.741592 1.0683e-06)
(8.85214 0.74158 -5.33154e-07)
(8.74562 0.742964 -8.50566e-07)
(8.74574 0.742975 -1.3129e-06)
(8.74574 0.742975 -1.6262e-06)
(8.74574 0.742976 -2.16397e-06)
(8.74574 0.742976 -2.51025e-06)
(8.74574 0.742977 -2.91041e-06)
(8.74574 0.742978 -3.1573e-06)
(8.74574 0.742979 -3.36334e-06)
(8.74574 0.74298 -3.4515e-06)
(8.74574 0.742982 -3.46683e-06)
(8.74574 0.742983 -3.38452e-06)
(8.74574 0.742983 -3.2387e-06)
(8.74574 0.742984 -3.00458e-06)
(8.74574 0.742985 -2.73722e-06)
(8.74574 0.742986 -2.37789e-06)
(8.74574 0.742986 -2.05509e-06)
(8.74574 0.742987 -1.5652e-06)
(8.74574 0.742987 -1.15228e-06)
(8.74574 0.742987 -4.25182e-07)
(8.74562 0.742977 2.18249e-07)
(8.77759 0.503881 -1.56839e-07)
(8.77771 0.503888 6.10016e-07)
(8.77771 0.503888 1.28687e-06)
(8.77771 0.503888 1.73802e-06)
(8.77771 0.503888 2.29437e-06)
(8.77771 0.503888 2.60743e-06)
(8.77771 0.503888 2.88239e-06)
(8.77771 0.503888 3.019e-06)
(8.77771 0.503888 3.07671e-06)
(8.77771 0.503888 3.03755e-06)
(8.77771 0.503888 2.92964e-06)
(8.77771 0.503889 2.74934e-06)
(8.77771 0.503889 2.52589e-06)
(8.77771 0.503889 2.26393e-06)
(8.77771 0.503889 2.02424e-06)
(8.77771 0.503889 1.70641e-06)
(8.77771 0.503889 1.53225e-06)
(8.77771 0.503889 1.14784e-06)
(8.77771 0.503889 8.6902e-07)
(8.77758 0.503882 6.02554e-07)
(8.71939 0.502192 -5.10085e-07)
(8.71951 0.502199 -1.05552e-06)
(8.71951 0.502198 -1.50924e-06)
(8.71951 0.502198 -2.03335e-06)
(8.71952 0.502197 -2.46935e-06)
(8.71952 0.502197 -2.84538e-06)
(8.71952 0.502196 -3.10378e-06)
(8.71952 0.502195 -3.28926e-06)
(8.71952 0.502194 -3.36948e-06)
(8.71952 0.502193 -3.36748e-06)
(8.71952 0.502193 -3.27371e-06)
(8.71952 0.502192 -3.10459e-06)
(8.71952 0.502191 -2.85804e-06)
(8.71952 0.50219 -2.58155e-06)
(8.71952 0.502189 -2.24075e-06)
(8.71952 0.502189 -1.90087e-06)
(8.71952 0.502188 -1.49372e-06)
(8.71952 0.502188 -1.0714e-06)
(8.71952 0.502188 -5.23498e-07)
(8.7194 0.502181 -5.07425e-08)
(8.74061 0.304729 -5.89052e-08)
(8.74073 0.304733 3.57758e-07)
(8.74073 0.304733 7.73984e-07)
(8.74073 0.304733 1.05547e-06)
(8.74073 0.304732 1.2996e-06)
(8.74073 0.304732 1.45954e-06)
(8.74073 0.304731 1.57415e-06)
(8.74073 0.30473 1.60956e-06)
(8.74073 0.304729 1.59797e-06)
(8.74073 0.304729 1.53327e-06)
(8.74073 0.304728 1.43722e-06)
(8.74074 0.304727 1.31341e-06)
(8.74074 0.304726 1.18049e-06)
(8.74074 0.304725 1.03391e-06)
(8.74074 0.304724 9.07642e-07)
(8.74074 0.304724 7.68284e-07)
(8.74074 0.304723 6.70227e-07)
(8.74074 0.304723 5.37079e-07)
(8.74074 0.304722 4.63935e-07)
(8.74061 0.304718 3.07767e-07)
(8.7031 0.297561 -5.17853e-07)
(8.70322 0.297565 -1.33964e-06)
(8.70322 0.297564 -2.114e-06)
(8.70322 0.297562 -2.84667e-06)
(8.70322 0.29756 -3.43378e-06)
(8.70322 0.297558 -3.96551e-06)
(8.70322 0.297556 -4.35711e-06)
(8.70322 0.297553 -4.63991e-06)
(8.70322 0.29755 -4.78539e-06)