/*--------------------------------*- C++ -*----------------------------------*\
| =========                 |                                                 |
| \\      /  F ield         | OpenFOAM: The Open Source CFD Toolbox           |
|  \\    /   O peration     | Version:  2212                                  |
|   \\  /    A nd           | Website:  www.openfoam.com                      |
|    \\/     M anipulation  |                                                 |
\*---------------------------------------------------------------------------*/
FoamFile
{
    version     2.0;
    format      ascii;
    arch        "LSB;label=32;scalar=64";
    class       volSymmTensorField;
    location    "0.181";
    object      UPrime2Mean;
}
// * * * * * * * * * * * * * * * * * * * * * * * * * * * * * * * * * * * * * //

dimensions      [0 2 -2 0 0 0 0];

internalField   nonuniform List<symmTensor> 
24240
(
(0.0634863 -0.0188453 -5.8046e-08 0.00589143 1.88697e-08 2.25769e-13)
(0.0634691 -0.0188434 9.19437e-09 0.00589187 9.88545e-10 1.39678e-12)
(0.0634693 -0.0188434 -3.15024e-08 0.00589181 1.57426e-08 3.8127e-12)
(0.0634694 -0.0188433 -1.53497e-08 0.00589175 1.34579e-08 7.01154e-12)
(0.0634696 -0.0188432 -3.12254e-08 0.00589167 2.05558e-08 1.06017e-11)
(0.0634698 -0.0188431 -3.33391e-08 0.00589158 2.32492e-08 1.40776e-11)
(0.06347 -0.018843 -4.22128e-08 0.00589148 2.76595e-08 1.70756e-11)
(0.0634702 -0.018843 -4.74549e-08 0.00589137 3.06417e-08 1.92809e-11)
(0.0634705 -0.0188429 -5.39522e-08 0.00589126 3.3662e-08 2.05323e-11)
(0.0634708 -0.0188428 -5.92311e-08 0.00589114 3.59547e-08 2.07651e-11)
(0.0634711 -0.0188427 -6.46168e-08 0.00589103 3.79203e-08 2.00351e-11)
(0.0634714 -0.0188426 -6.90643e-08 0.00589092 3.92185e-08 1.84777e-11)
(0.0634717 -0.0188425 -7.28877e-08 0.00589081 3.99673e-08 1.63036e-11)
(0.0634721 -0.0188425 -7.46797e-08 0.00589071 3.97232e-08 1.37458e-11)
(0.0634723 -0.0188424 -7.74141e-08 0.00589063 3.94319e-08 1.10633e-11)
(0.0634726 -0.0188424 -7.1656e-08 0.00589054 3.632e-08 8.44346e-12)
(0.0634729 -0.0188424 -7.68955e-08 0.00589048 3.61902e-08 6.07801e-12)
(0.0634731 -0.0188423 -4.75557e-08 0.00589042 2.5292e-08 3.84797e-12)
(0.0634731 -0.0188423 -6.69029e-08 0.0058904 2.7904e-08 1.91063e-12)
(0.0634905 -0.0188442 3.83569e-08 0.00588991 -8.79738e-09 2.79801e-13)
(0.00115636 -0.00218686 4.12357e-09 0.00485587 -8.69459e-09 3.2898e-14)
(0.00115413 -0.00218448 8.75292e-09 0.00485635 -1.81116e-08 2.23863e-13)
(0.00115412 -0.00218449 1.31869e-08 0.00485637 -2.7252e-08 5.67188e-13)
(0.00115411 -0.0021845 1.85623e-08 0.00485642 -3.85843e-08 1.05843e-12)
(0.0011541 -0.00218451 2.17425e-08 0.00485647 -4.5164e-08 1.54512e-12)
(0.00115408 -0.00218452 2.47013e-08 0.00485654 -5.14267e-08 2.02711e-12)
(0.00115406 -0.00218454 2.62064e-08 0.00485661 -5.461e-08 2.39803e-12)
(0.00115404 -0.00218455 2.69745e-08 0.00485669 -5.63216e-08 2.64917e-12)
(0.00115402 -0.00218456 2.66961e-08 0.00485677 -5.58368e-08 2.74459e-12)
(0.00115399 -0.00218458 2.56823e-08 0.00485686 -5.38404e-08 2.69518e-12)
(0.00115397 -0.00218459 2.39373e-08 0.00485694 -5.03015e-08 2.51373e-12)
(0.00115394 -0.0021846 2.16875e-08 0.00485702 -4.57019e-08 2.2334e-12)
(0.00115392 -0.0021846 1.9028e-08 0.0048571 -4.02184e-08 1.88946e-12)
(0.00115389 -0.00218461 1.62035e-08 0.00485717 -3.43883e-08 1.52234e-12)
(0.00115386 -0.00218461 1.31616e-08 0.00485724 -2.80448e-08 1.16246e-12)
(0.00115384 -0.00218461 1.05233e-08 0.00485729 -2.26096e-08 8.43465e-13)
(0.00115381 -0.0021846 7.27473e-09 0.00485734 -1.57411e-08 5.56047e-13)
(0.00115379 -0.0021846 5.40616e-09 0.00485737 -1.19473e-08 3.24281e-13)
(0.00115377 -0.00218459 1.47091e-09 0.00485742 -3.5127e-09 1.21097e-13)
(0.00115599 -0.00218698 -1.05536e-09 0.00485697 2.18435e-09 1.56406e-14)
(0.000629802 -0.00144621 -8.48782e-12 0.00698643 3.39062e-09 1.01475e-14)
(0.000628548 -0.00144324 -2.26484e-09 0.0069868 2.33075e-08 1.66089e-13)
(0.000628545 -0.00144326 -4.85256e-09 0.00698678 4.48817e-08 5.44683e-13)
(0.000628537 -0.00144328 -5.90107e-09 0.00698677 5.92023e-08 1.00828e-12)
(0.000628527 -0.00144331 -7.33959e-09 0.00698676 7.48807e-08 1.61251e-12)
(0.000628514 -0.00144334 -7.94778e-09 0.00698674 8.6006e-08 2.20058e-12)
(0.0006285 -0.00144338 -8.42616e-09 0.00698671 9.56329e-08 2.781e-12)
(0.000628484 -0.00144342 -8.41539e-09 0.00698669 1.02011e-07 3.26768e-12)
(0.000628467 -0.00144348 -8.15429e-09 0.00698666 1.06094e-07 3.64881e-12)
(0.00062845 -0.00144353 -7.6049e-09 0.00698663 1.076e-07 3.89055e-12)
(0.000628432 -0.00144359 -6.8876e-09 0.0069866 1.06927e-07 3.98542e-12)
(0.000628413 -0.00144364 -6.05809e-09 0.00698657 1.04196e-07 3.92742e-12)
(0.000628395 -0.0014437 -5.19345e-09 0.00698653 9.96144e-08 3.72001e-12)
(0.000628377 -0.00144376 -4.29524e-09 0.0069865 9.32126e-08 3.37898e-12)
(0.00062836 -0.00144381 -3.52971e-09 0.00698647 8.56765e-08 2.94193e-12)
(0.000628343 -0.00144386 -2.50953e-09 0.00698644 7.57154e-08 2.42746e-12)
(0.000628327 -0.0014439 -1.98471e-09 0.00698642 6.64886e-08 1.92027e-12)
(0.000628313 -0.00144393 -7.5279e-10 0.00698639 5.20608e-08 1.32489e-12)
(0.000628299 -0.00144396 -7.61986e-10 0.00698637 4.00526e-08 7.53714e-13)
(0.00062954 -0.00144695 -7.25102e-10 0.00698598 1.86366e-08 1.36047e-13)
(0.00156379 0.00306084 -4.50226e-09 0.00665474 -9.826e-09 2.10133e-14)
(0.00156651 0.00306387 -1.18341e-08 0.0066551 -2.60462e-08 1.64104e-13)
(0.00156653 0.00306389 -1.83457e-08 0.00665509 -4.06122e-08 4.24211e-13)
(0.00156655 0.00306391 -2.51314e-08 0.00665507 -5.58047e-08 7.98778e-13)
(0.00156658 0.00306394 -3.03979e-08 0.00665504 -6.77038e-08 1.19062e-12)
(0.00156662 0.00306399 -3.46972e-08 0.00665501 -7.74814e-08 1.56905e-12)
(0.00156666 0.00306403 -3.74366e-08 0.00665497 -8.38576e-08 1.86502e-12)
(0.00156671 0.00306408 -3.90204e-08 0.00665493 -8.7696e-08 2.06892e-12)
(0.00156675 0.00306414 -3.93141e-08 0.00665488 -8.87094e-08 2.15834e-12)
(0.0015668 0.00306419 -3.85814e-08 0.00665483 -8.74575e-08 2.14366e-12)
(0.00156685 0.00306425 -3.69209e-08 0.00665478 -8.41424e-08 2.03554e-12)
(0.0015669 0.0030643 -3.45297e-08 0.00665473 -7.91753e-08 1.8555e-12)
(0.00156695 0.00306436 -3.15548e-08 0.00665468 -7.28569e-08 1.62513e-12)
(0.001567 0.00306441 -2.82341e-08 0.00665462 -6.5689e-08 1.37003e-12)
(0.00156704 0.00306446 -2.46135e-08 0.00665457 -5.77861e-08 1.1085e-12)
(0.00156708 0.00306451 -2.11505e-08 0.00665452 -5.01432e-08 8.67928e-13)
(0.00156712 0.00306455 -1.73527e-08 0.00665448 -4.17137e-08 6.40688e-13)
(0.00156716 0.00306459 -1.39201e-08 0.00665443 -3.38471e-08 4.36103e-13)
(0.00156719 0.00306462 -8.10505e-09 0.0066544 -2.04166e-08 2.05381e-13)
(0.00156448 0.00306161 -2.18398e-09 0.00665401 -5.93423e-09 2.90312e-14)
(0.00360807 0.00298699 2.32702e-09 0.00283914 2.30291e-09 2.22418e-14)
(0.0036122 0.00298899 1.19279e-08 0.00283929 1.15525e-08 2.27438e-13)
(0.00361218 0.00298899 2.14669e-08 0.0028393 2.09716e-08 6.42239e-13)
(0.00361216 0.00298899 2.84761e-08 0.00283931 2.79061e-08 1.17919e-12)
(0.00361214 0.00298899 3.48837e-08 0.00283933 3.42494e-08 1.7848e-12)
(0.00361212 0.002989 3.96596e-08 0.00283935 3.90087e-08 2.36537e-12)
(0.00361209 0.002989 4.33523e-08 0.00283937 4.2704e-08 2.86935e-12)
(0.00361207 0.002989 4.5515e-08 0.0028394 4.49075e-08 3.23815e-12)
(0.00361203 0.002989 4.6439e-08 0.00283942 4.59149e-08 3.4502e-12)
(0.003612 0.002989 4.60457e-08 0.00283945 4.56472e-08 3.49311e-12)
(0.00361197 0.00298899 4.45271e-08 0.00283947 4.4297e-08 3.37825e-12)
(0.00361194 0.00298899 4.20755e-08 0.00283949 4.20454e-08 3.12926e-12)
(0.00361191 0.00298899 3.88026e-08 0.00283951 3.90097e-08 2.77638e-12)
(0.00361188 0.00298898 3.48574e-08 0.00283952 3.52978e-08 2.35716e-12)
(0.00361186 0.00298898 3.04388e-08 0.00283954 3.11328e-08 1.91007e-12)
(0.00361184 0.00298898 2.53619e-08 0.00283955 2.62658e-08 1.46308e-12)
(0.00361183 0.00298898 2.01724e-08 0.00283956 2.12583e-08 1.04575e-12)
(0.00361183 0.00298898 1.43266e-08 0.00283956 1.54529e-08 6.50961e-13)
(0.00361184 0.00298898 1.0195e-08 0.00283957 1.10795e-08 3.08561e-13)
(0.00360771 0.00298699 4.86054e-09 0.00283943 5.11277e-09 4.53626e-14)
(0.00451579 0.00356365 -5.07985e-09 0.00289354 -4.07004e-09 2.78452e-14)
(0.00452058 0.00356568 -1.31974e-08 0.00289368 -1.04992e-08 2.3691e-13)
(0.00452061 0.00356568 -2.04087e-08 0.00289366 -1.61905e-08 6.33003e-13)
(0.00452066 0.00356569 -2.78753e-08 0.00289364 -2.21036e-08 1.1792e-12)
(0.00452073 0.0035657 -3.37989e-08 0.00289362 -2.67814e-08 1.78855e-12)
(0.00452081 0.00356572 -3.88998e-08 0.00289359 -3.08144e-08 2.39853e-12)
(0.0045209 0.00356573 -4.24279e-08 0.00289355 -3.35927e-08 2.93234e-12)
(0.00452101 0.00356575 -4.47845e-08 0.00289352 -3.54439e-08 3.34623e-12)
(0.00452111 0.00356577 -4.57897e-08 0.00289348 -3.62193e-08 3.60284e-12)
(0.00452123 0.00356578 -4.56891e-08 0.00289344 -3.61183e-08 3.69186e-12)
(0.00452134 0.0035658 -4.45333e-08 0.0028934 -3.51789e-08 3.61503e-12)
(0.00452145 0.00356583 -4.25049e-08 0.00289336 -3.35496e-08 3.3912e-12)
(0.00452157 0.00356585 -3.96848e-08 0.00289333 -3.12919e-08 3.04764e-12)
(0.00452167 0.00356587 -3.63669e-08 0.00289329 -2.86458e-08 2.62301e-12)
(0.00452178 0.00356589 -3.24615e-08 0.00289326 -2.55329e-08 2.15293e-12)
(0.00452187 0.00356591 -2.85908e-08 0.00289323 -2.24643e-08 1.6794e-12)
(0.00452196 0.00356593 -2.39417e-08 0.00289321 -1.87735e-08 1.21514e-12)
(0.00452203 0.00356594 -1.93106e-08 0.00289319 -1.51226e-08 7.74562e-13)
(0.0045221 0.00356596 -1.18923e-08 0.00289318 -9.24132e-09 3.53111e-13)
(0.00451736 0.00356395 -3.61231e-09 0.00289303 -2.75699e-09 4.74294e-14)
(0.00669812 0.00191229 -5.58595e-10 0.000583288 -9.49816e-11 2.38091e-14)
(0.00670391 0.00191321 3.80446e-09 0.000583319 1.46307e-09 2.15859e-13)
(0.00670391 0.00191321 8.53868e-09 0.000583321 3.17079e-09 5.94917e-13)
(0.00670391 0.00191321 1.13186e-08 0.000583325 4.26468e-09 1.1123e-12)
(0.0067039 0.00191322 1.37298e-08 0.000583329 5.24017e-09 1.70856e-12)
(0.0067039 0.00191323 1.51758e-08 0.000583334 5.90399e-09 2.31307e-12)
(0.0067039 0.00191323 1.60225e-08 0.000583339 6.36557e-09 2.86466e-12)
(0.0067039 0.00191324 1.60364e-08 0.000583344 6.54762e-09 3.31013e-12)
(0.00670391 0.00191325 1.54339e-08 0.000583349 6.51504e-09 3.61348e-12)
(0.00670391 0.00191325 1.42205e-08 0.000583353 6.2646e-09 3.75479e-12)
(0.00670392 0.00191326 1.25763e-08 0.000583357 5.84928e-09 3.73021e-12)
(0.00670393 0.00191326 1.06185e-08 0.000583361 5.29847e-09 3.5501e-12)
(0.00670394 0.00191327 8.52948e-09 0.000583363 4.6683e-09 3.23724e-12)
(0.00670395 0.00191327 6.3895e-09 0.000583366 3.97379e-09 2.82412e-12)
(0.00670396 0.00191327 4.45439e-09 0.000583367 3.30026e-09 2.34866e-12)
(0.00670398 0.00191327 2.54535e-09 0.000583368 2.57919e-09 1.8457e-12)
(0.006704 0.00191328 1.22083e-09 0.000583369 1.98812e-09 1.34319e-12)
(0.00670402 0.00191328 9.45651e-11 0.00058337 1.37379e-09 8.50483e-13)
(0.00670404 0.00191328 1.11767e-09 0.00058337 1.31452e-09 3.92257e-13)
(0.00669826 0.00191237 1.77892e-09 0.00058334 9.32923e-10 5.38805e-14)
(0.00635467 0.00183302 -3.69693e-09 0.000541116 -1.05102e-09 2.93879e-14)
(0.00636037 0.00183391 -1.05268e-08 0.000541142 -2.96025e-09 2.59568e-13)
(0.00636039 0.00183391 -1.65632e-08 0.000541142 -4.62363e-09 6.98359e-13)
(0.00636045 0.00183392 -2.29665e-08 0.000541143 -6.39733e-09 1.30229e-12)
(0.00636051 0.00183393 -2.83234e-08 0.000541144 -7.86617e-09 1.99312e-12)
(0.00636059 0.00183394 -3.3236e-08 0.000541145 -9.21321e-09 2.69895e-12)
(0.00636069 0.00183396 -3.71431e-08 0.000541146 -1.0273e-08 3.34105e-12)
(0.0063608 0.00183397 -4.02542e-08 0.000541147 -1.11106e-08 3.86007e-12)
(0.00636091 0.00183399 -4.23918e-08 0.000541149 -1.16742e-08 4.20828e-12)
(0.00636104 0.00183401 -4.36396e-08 0.00054115 -1.1991e-08 4.36171e-12)
(0.00636117 0.00183403 -4.39386e-08 0.000541151 -1.20443e-08 4.31394e-12)
(0.0063613 0.00183405 -4.33669e-08 0.000541151 -1.18597e-08 4.08012e-12)
(0.00636142 0.00183406 -4.1848e-08 0.000541151 -1.14143e-08 3.68938e-12)
(0.00636155 0.00183408 -3.96241e-08 0.000541151 -1.0782e-08 3.18678e-12)
(0.00636167 0.00183409 -3.6418e-08 0.00054115 -9.8786e-09 2.61699e-12)
(0.00636178 0.00183411 -3.2778e-08 0.000541148 -8.86886e-09 2.02996e-12)
(0.00636188 0.00183412 -2.78012e-08 0.000541147 -7.48452e-09 1.44931e-12)
(0.00636197 0.00183413 -2.23601e-08 0.000541146 -5.99647e-09 9.02536e-13)
(0.00636204 0.00183414 -1.45981e-08 0.000541144 -3.86355e-09 4.07584e-13)
(0.00635641 0.00183326 -5.28932e-09 0.000541118 -1.38041e-09 5.49144e-14)
(0.00750583 -0.000129776 2.59345e-10 2.48951e-06 2.64329e-12 2.9424e-14)
(0.00751199 -0.000129833 5.38286e-09 2.48962e-06 -8.09139e-11 2.67474e-13)
(0.00751197 -0.000129838 1.04702e-08 2.48988e-06 -1.67305e-10 7.26495e-13)
(0.00751194 -0.000129845 1.40729e-08 2.49022e-06 -2.27701e-10 1.34728e-12)
(0.00751191 -0.000129853 1.70908e-08 2.49066e-06 -2.7997e-10 2.05855e-12)
(0.00751187 -0.000129863 1.9051e-08 2.49118e-06 -3.15074e-10 2.77718e-12)
(0.00751184 -0.000129874 2.0135e-08 2.49176e-06 -3.36743e-10 3.42607e-12)
(0.0075118 -0.000129886 2.02299e-08 2.49239e-06 -3.42369e-10 3.93854e-12)
(0.00751176 -0.000129899 1.94149e-08 2.49304e-06 -3.33554e-10 4.26611e-12)
(0.00751173 -0.000129911 1.77127e-08 2.4937e-06 -3.09943e-10 4.38323e-12)
(0.00751169 -0.000129923 1.52788e-08 2.49433e-06 -2.7421e-10 4.28814e-12)
(0.00751166 -0.000129935 1.22095e-08 2.49493e-06 -2.27391e-10 4.00158e-12)
(0.00751164 -0.000129945 8.75254e-09 2.49547e-06 -1.73645e-10 3.56272e-12)
(0.00751162 -0.000129953 5.05472e-09 2.49593e-06 -1.14766e-10 3.02291e-12)
(0.00751161 -0.000129959 1.84411e-09 2.4963e-06 -6.38722e-11 2.4384e-12)
(0.0075116 -0.000129963 -8.64397e-10 2.49658e-06 -1.98199e-11 1.8535e-12)
(0.0075116 -0.000129965 -2.12316e-09 2.49676e-06 2.38168e-14 1.29846e-12)
(0.0075116 -0.000129966 -2.86151e-09 2.49686e-06 1.43797e-11 7.89835e-13)
(0.00751161 -0.000129964 -2.26256e-09 2.49687e-06 8.58297e-12 3.4989e-13)
(0.00750545 -0.000129908 -1.11959e-11 2.49685e-06 -1.48242e-11 4.62458e-14)
(0.00728723 -0.000298208 -6.50434e-09 1.26095e-05 2.85809e-10 3.27453e-14)
(0.00729333 -0.000298362 -1.77019e-08 1.26117e-05 7.72168e-10 2.74724e-13)
(0.00729336 -0.000298392 -2.78202e-08 1.26142e-05 1.20942e-09 7.20676e-13)
(0.0072934 -0.000298435 -3.78153e-08 1.26179e-05 1.63897e-09 1.32731e-12)
(0.00729346 -0.000298491 -4.65681e-08 1.26225e-05 2.0124e-09 2.01636e-12)
(0.00729354 -0.000298556 -5.42535e-08 1.2628e-05 2.33744e-09 2.71491e-12)
(0.00729363 -0.000298629 -6.04094e-08 1.26341e-05 2.59433e-09 3.34194e-12)
(0.00729373 -0.000298707 -6.5036e-08 1.26406e-05 2.7837e-09 3.83499e-12)
(0.00729384 -0.000298788 -6.79257e-08 1.26474e-05 2.89704e-09 4.14296e-12)
(0.00729396 -0.000298869 -6.90722e-08 1.26541e-05 2.93493e-09 4.24241e-12)
(0.00729408 -0.000298949 -6.8408e-08 1.26607e-05 2.89503e-09 4.12875e-12)
(0.00729419 -0.000299024 -6.59985e-08 1.2667e-05 2.78113e-09 3.82562e-12)
(0.00729431 -0.000299093 -6.18739e-08 1.26728e-05 2.59484e-09 3.37284e-12)
(0.00729442 -0.000299155 -5.64467e-08 1.26779e-05 2.35494e-09 2.82936e-12)
(0.00729452 -0.000299209 -4.9566e-08 1.26824e-05 2.05558e-09 2.24598e-12)
(0.00729461 -0.000299255 -4.20829e-08 1.26862e-05 1.73436e-09 1.6791e-12)
(0.00729469 -0.000299291 -3.32807e-08 1.26892e-05 1.36115e-09 1.14689e-12)
(0.00729475 -0.000299319 -2.42468e-08 1.26915e-05 9.83129e-10 6.815e-13)
(0.0072948 -0.000299338 -1.38585e-08 1.2693e-05 5.48906e-10 2.92039e-13)
(0.00728874 -0.000299208 -3.96931e-09 1.26928e-05 1.48736e-10 3.73692e-14)
(0.00670769 -0.00224421 -9.86366e-09 0.000788903 3.50742e-09 2.88943e-14)
(0.00671352 -0.00224526 -2.92114e-08 0.000788934 1.03204e-08 2.5332e-13)
(0.00671355 -0.00224525 -4.68671e-08 0.000788926 1.64865e-08 6.64629e-13)
(0.00671359 -0.00224524 -6.33415e-08 0.000788915 2.22238e-08 1.22348e-12)
(0.00671364 -0.00224523 -7.73512e-08 0.0007889 2.707e-08 1.84819e-12)
(0.0067137 -0.00224521 -8.89494e-08 0.000788883 3.1052e-08 2.47417e-12)
(0.00671378 -0.0022452 -9.76466e-08 0.000788863 3.39977e-08 3.02657e-12)
(0.00671386 -0.00224518 -1.03469e-07 0.000788843 3.59254e-08 3.45461e-12)
(0.00671394 -0.00224516 -1.06383e-07 0.000788821 3.68292e-08 3.71961e-12)
(0.00671403 -0.00224515 -1.06489e-07 0.0007888 3.67512e-08 3.80409e-12)
(0.00671412 -0.00224513 -1.03983e-07 0.000788779 3.57658e-08 3.71097e-12)
(0.00671421 -0.00224512 -9.91815e-08 0.000788759 3.39901e-08 3.46175e-12)
(0.0067143 -0.0022451 -9.23298e-08 0.000788741 3.15113e-08 3.08726e-12)
(0.00671438 -0.00224509 -8.39335e-08 0.000788725 2.85134e-08 2.63283e-12)
(0.00671445 -0.00224509 -7.39762e-08 0.000788711 2.49922e-08 2.1304e-12)
(0.00671451 -0.00224508 -6.31009e-08 0.000788699 2.11831e-08 1.62535e-12)
(0.00671456 -0.00224507 -5.07226e-08 0.00078869 1.68841e-08 1.13005e-12)
(0.0067146 -0.00224507 -3.78526e-08 0.000788682 1.24753e-08 6.87899e-13)
(0.00671465 -0.00224507 -2.38312e-08 0.000788677 7.66991e-09 3.08283e-13)
(0.00670883 -0.00224401 -8.51644e-09 0.00078864 2.66177e-09 4.20662e-14)
(0.00771467 -0.00250679 -2.80619e-09 0.000844384 1.13323e-09 1.84511e-14)
(0.00772093 -0.00250791 -2.79964e-09 0.000844429 1.39509e-09 1.46376e-13)
(0.00772091 -0.0025079 -2.83838e-09 0.00084443 1.61063e-09 3.84443e-13)
(0.00772087 -0.0025079 -3.95352e-09 0.000844432 2.15612e-09 7.08068e-13)
(0.00772083 -0.0025079 -5.38309e-09 0.000844434 2.75359e-09 1.0768e-12)
(0.00772078 -0.0025079 -7.20154e-09 0.000844438 3.43115e-09 1.45087e-12)
(0.00772073 -0.00250789 -9.17077e-09 0.000844441 4.10603e-09 1.78972e-12)
(0.00772068 -0.00250789 -1.12971e-08 0.000844445 4.78663e-09 2.06052e-12)
(0.00772062 -0.00250789 -1.33864e-08 0.000844449 5.41247e-09 2.2388e-12)
(0.00772057 -0.00250788 -1.53337e-08 0.000844454 5.95726e-09 2.31083e-12)
(0.00772052 -0.00250788 -1.69696e-08 0.000844458 6.36902e-09 2.27363e-12)
(0.00772048 -0.00250788 -1.82469e-08 0.000844462 6.64268e-09 2.13779e-12)
(0.00772044 -0.00250788 -1.89061e-08 0.000844466 6.69399e-09 1.92045e-12)
(0.0077204 -0.00250788 -1.9089e-08 0.00084447 6.58336e-09 1.6492e-12)
(0.00772037 -0.00250788 -1.81985e-08 0.000844474 6.11805e-09 1.34772e-12)
(0.00772035 -0.00250788 -1.65681e-08 0.000844478 5.42557e-09 1.04115e-12)
(0.00772033 -0.00250788 -1.32762e-08 0.000844481 4.20932e-09 7.39531e-13)
(0.00772032 -0.00250788 -9.24662e-09 0.000844483 2.79416e-09 4.63543e-13)
(0.00772032 -0.00250788 -5.79753e-09 0.000844486 1.56459e-09 2.19031e-13)
(0.00771404 -0.00250677 -1.02148e-09 0.000844443 1.11198e-10 3.1094e-14)
(0.00485674 -0.00401709 -7.8941e-09 0.00346316 7.0578e-09 2.3955e-14)
(0.0048617 -0.00401931 -2.59671e-08 0.00346331 2.29533e-08 2.3148e-13)
(0.00486171 -0.00401931 -4.2228e-08 0.0034633 3.71814e-08 6.08554e-13)
(0.00486172 -0.0040193 -5.74319e-08 0.00346328 5.04568e-08 1.12164e-12)
(0.00486174 -0.0040193 -7.0209e-08 0.00346325 6.15671e-08 1.68321e-12)
(0.00486177 -0.00401929 -8.09364e-08 0.00346322 7.08511e-08 2.24458e-12)
(0.0048618 -0.00401929 -8.89269e-08 0.00346319 7.77144e-08 2.72861e-12)
(0.00486183 -0.00401928 -9.43128e-08 0.00346315 8.22811e-08 3.09555e-12)
(0.00486187 -0.00401928 -9.70049e-08 0.00346311 8.44814e-08 3.3109e-12)
(0.00486191 -0.00401927 -9.71483e-08 0.00346307 8.44544e-08 3.3652e-12)
(0.00486195 -0.00401927 -9.49403e-08 0.00346303 8.23765e-08 3.26434e-12)
(0.004862 -0.00401927 -9.07016e-08 0.003463 7.85327e-08 3.03153e-12)
(0.00486204 -0.00401927 -8.46952e-08 0.00346296 7.31537e-08 2.69546e-12)
(0.00486208 -0.00401927 -7.73249e-08 0.00346293 6.65946e-08 2.29479e-12)
(0.00486213 -0.00401927 -6.86307e-08 0.0034629 5.88886e-08 1.85444e-12)
(0.00486217 -0.00401927 -5.89746e-08 0.00346288 5.03792e-08 1.41254e-12)
(0.00486221 -0.00401928 -4.75803e-08 0.00346286 4.04054e-08 9.71645e-13)
(0.00486224 -0.00401928 -3.56582e-08 0.00346284 3.00498e-08 5.89747e-13)
(0.00486228 -0.00401929 -2.34681e-08 0.00346283 1.9414e-08 2.71287e-13)
(0.00485733 -0.00401707 -9.6887e-09 0.00346266 7.87262e-09 4.17484e-14)
(0.00654828 -0.00449801 -6.74789e-11 0.00331292 8.56145e-10 1.56571e-14)
(0.00655402 -0.00450021 8.7433e-09 0.00331309 -4.27878e-09 1.37855e-13)
(0.00655396 -0.00450019 1.74798e-08 0.00331309 -9.59863e-09 3.74072e-13)
(0.00655387 -0.00450017 2.39107e-08 0.0033131 -1.33208e-08 6.86896e-13)
(0.00655375 -0.00450015 2.91957e-08 0.00331311 -1.6389e-08 1.03701e-12)
(0.00655362 -0.00450011 3.29521e-08 0.00331312 -1.855e-08 1.37862e-12)
(0.00655347 -0.00450008 3.53796e-08 0.00331314 -1.99664e-08 1.67368e-12)
(0.0065533 -0.00450004 3.63213e-08 0.00331315 -2.04999e-08 1.89174e-12)
(0.00655313 -0.0045 3.59459e-08 0.00331317 -2.02782e-08 2.01278e-12)
(0.00655296 -0.00449995 3.43334e-08 0.00331318 -1.9332e-08 2.02989e-12)
(0.00655278 -0.00449991 3.16323e-08 0.0033132 -1.77695e-08 1.94563e-12)
(0.00655261 -0.00449987 2.79466e-08 0.00331321 -1.56389e-08 1.77522e-12)
(0.00655246 -0.00449983 2.36925e-08 0.00331322 -1.32398e-08 1.54245e-12)
(0.00655231 -0.0044998 1.90241e-08 0.00331324 -1.06389e-08 1.27603e-12)
(0.00655218 -0.00449977 1.4763e-08 0.00331325 -8.39678e-09 1.00588e-12)
(0.00655207 -0.00449974 1.11011e-08 0.00331326 -6.55881e-09 7.52978e-13)
(0.00655198 -0.00449972 9.13359e-09 0.00331327 -5.85386e-09 5.27415e-13)
(0.00655191 -0.0044997 7.9821e-09 0.00331328 -5.62279e-09 3.3232e-13)
(0.00655188 -0.00449969 5.62871e-09 0.00331328 -4.61823e-09 1.61153e-13)
(0.00654608 -0.00449748 3.7356e-09 0.00331311 -3.21017e-09 2.61472e-14)
(0.00234362 -0.00448998 -6.63859e-09 0.00910405 1.36239e-08 3.31024e-14)
(0.00234704 -0.00449356 -2.12224e-08 0.00910448 4.34075e-08 3.02386e-13)
(0.00234705 -0.00449356 -3.38627e-08 0.00910447 6.9262e-08 7.70143e-13)
(0.00234707 -0.00449357 -4.57806e-08 0.00910445 9.36435e-08 1.39835e-12)
(0.00234708 -0.00449359 -5.54462e-08 0.00910441 1.13428e-07 2.05327e-12)
(0.00234711 -0.0044936 -6.37812e-08 0.00910437 1.30491e-07 2.70467e-12)
(0.00234713 -0.00449362 -6.99171e-08 0.00910432 1.43061e-07 3.23983e-12)
(0.00234716 -0.00449363 -7.4082e-08 0.00910427 1.51598e-07 3.62314e-12)
(0.0023472 -0.00449365 -7.6111e-08 0.0091042 1.55765e-07 3.81082e-12)
(0.00234724 -0.00449367 -7.62047e-08 0.00910413 1.55968e-07 3.80441e-12)
(0.00234727 -0.00449369 -7.45053e-08 0.00910406 1.52492e-07 3.61726e-12)
(0.00234731 -0.00449372 -7.12674e-08 0.00910398 1.45853e-07 3.2842e-12)
(0.00234735 -0.00449374 -6.67291e-08 0.0091039 1.36533e-07 2.84525e-12)
(0.00234739 -0.00449376 -6.11477e-08 0.00910382 1.25058e-07 2.34786e-12)
(0.00234744 -0.00449378 -5.44792e-08 0.00910374 1.11345e-07 1.82363e-12)
(0.00234748 -0.00449381 -4.68714e-08 0.00910366 9.57168e-08 1.31899e-12)
(0.00234752 -0.00449383 -3.73447e-08 0.00910359 7.6197e-08 8.29847e-13)
(0.00234755 -0.00449384 -2.69339e-08 0.00910353 5.49261e-08 4.39661e-13)
(0.00234758 -0.00449386 -1.57002e-08 0.00910347 3.19845e-08 1.60404e-13)
(0.00234417 -0.00449028 -5.8246e-09 0.00910298 1.18254e-08 2.33332e-14)
(0.00243392 -0.00402132 6.72266e-10 0.00869348 1.52969e-09 1.61567e-14)
(0.00243715 -0.0040248 1.02387e-08 0.00869392 -1.21658e-08 1.64841e-13)
(0.00243708 -0.00402477 2.12809e-08 0.00869392 -2.90305e-08 4.93443e-13)
(0.00243699 -0.0040247 3.05811e-08 0.00869393 -4.19342e-08 9.44981e-13)
(0.00243686 -0.00402462 3.92908e-08 0.00869394 -5.40893e-08 1.47655e-12)
(0.00243671 -0.00402453 4.65908e-08 0.00869395 -6.41254e-08 2.00708e-12)
(0.00243653 -0.00402441 5.28372e-08 0.00869395 -7.28702e-08 2.49343e-12)
(0.00243634 -0.00402429 5.75325e-08 0.00869395 -7.92706e-08 2.87664e-12)
(0.00243613 -0.00402415 6.08945e-08 0.00869395 -8.39113e-08 3.13203e-12)
(0.00243591 -0.004024 6.27114e-08 0.00869395 -8.63617e-08 3.23441e-12)
(0.00243568 -0.00402385 6.30756e-08 0.00869394 -8.69379e-08 3.1818e-12)
(0.00243545 -0.0040237 6.19103e-08 0.00869393 -8.54733e-08 2.98047e-12)
(0.00243523 -0.00402355 5.94149e-08 0.00869392 -8.24654e-08 2.65783e-12)
(0.00243502 -0.00402341 5.56289e-08 0.00869391 -7.78086e-08 2.24958e-12)
(0.00243483 -0.00402328 5.1133e-08 0.00869389 -7.25933e-08 1.81606e-12)
(0.00243466 -0.00402315 4.6066e-08 0.00869388 -6.65521e-08 1.40201e-12)
(0.0024345 -0.00402305 4.15864e-08 0.00869386 -6.15636e-08 1.07004e-12)
(0.00243438 -0.00402296 3.79082e-08 0.00869383 -5.77394e-08 8.25396e-13)
(0.00243428 -0.00402289 3.14735e-08 0.00869381 -5.02028e-08 5.3819e-13)
(0.00243095 -0.00401933 1.45827e-08 0.00869336 -2.44815e-08 1.10934e-13)
(0.000249021 -0.000685396 -1.73747e-09 0.0164005 2.32093e-08 6.53886e-14)
(0.00024945 -0.000690095 -4.89956e-09 0.0164014 6.51695e-08 5.39329e-13)
(0.000249458 -0.000690106 -7.72073e-09 0.0164013 9.63896e-08 1.33017e-12)
(0.00024947 -0.00069012 -1.05325e-08 0.0164013 1.27418e-07 2.42188e-12)
(0.000249486 -0.000690141 -1.29554e-08 0.0164013 1.52339e-07 3.61451e-12)
(0.000249506 -0.000690168 -1.50166e-08 0.0164012 1.73055e-07 4.79627e-12)
(0.000249529 -0.000690198 -1.65592e-08 0.0164012 1.86858e-07 5.78452e-12)
(0.000249554 -0.000690232 -1.76485e-08 0.0164011 1.952e-07 6.51331e-12)
(0.000249581 -0.000690268 -1.82167e-08 0.016401 1.97144e-07 6.88861e-12)
(0.000249609 -0.000690307 -1.83101e-08 0.0164009 1.93795e-07 6.90706e-12)
(0.000249638 -0.000690349 -1.79314e-08 0.0164008 1.85493e-07 6.57634e-12)
(0.000249666 -0.000690393 -1.71368e-08 0.0164007 1.73378e-07 5.95725e-12)
(0.000249693 -0.000690438 -1.5955e-08 0.0164005 1.5806e-07 5.11794e-12)
(0.000249718 -0.000690485 -1.4467e-08 0.0164004 1.40792e-07 4.16168e-12)
(0.000249741 -0.000690534 -1.26929e-08 0.0164003 1.21505e-07 3.16999e-12)
(0.000249762 -0.000690582 -1.07421e-08 0.0164001 1.01248e-07 2.24561e-12)
(0.000249779 -0.000690628 -8.51639e-09 0.0164 7.50797e-08 1.40932e-12)
(0.000249794 -0.000690666 -6.02444e-09 0.0163999 4.21884e-08 7.23145e-13)
(0.000249806 -0.000690696 -3.07141e-09 0.0163999 1.49548e-08 2.29062e-13)
(0.000249384 -0.000686008 -7.62776e-10 0.0163989 5.2026e-09 2.02517e-14)
(0.00523647 0.00904007 2.63158e-09 0.0169861 4.25246e-10 6.84787e-14)
(0.00523142 0.00903557 -6.06855e-09 0.016987 -2.8147e-08 7.68523e-13)
(0.00523147 0.00903565 -1.57261e-08 0.0169869 -6.03334e-08 2.38639e-12)
(0.00523153 0.00903576 -2.00407e-08 0.0169869 -8.24996e-08 4.73839e-12)
(0.00523162 0.00903591 -2.80967e-08 0.0169869 -1.11072e-07 7.766e-12)
(0.00523172 0.0090361 -3.33483e-08 0.0169869 -1.33477e-07 1.10983e-11)
(0.00523185 0.00903633 -3.94153e-08 0.0169869 -1.56138e-07 1.45524e-11)
(0.00523198 0.00903658 -4.39056e-08 0.0169868 -1.74402e-07 1.77907e-11)
(0.00523214 0.00903686 -4.80833e-08 0.0169868 -1.90317e-07 2.05841e-11)
(0.0052323 0.00903715 -5.11143e-08 0.0169868 -2.02088e-07 2.26673e-11)
(0.00523247 0.00903746 -5.3538e-08 0.0169868 -2.10453e-07 2.38628e-11)
(0.00523264 0.00903777 -5.49254e-08 0.0169867 -2.14453e-07 2.40441e-11)
(0.00523281 0.00903808 -5.58476e-08 0.0169867 -2.14953e-07 2.31903e-11)
(0.00523298 0.00903838 -5.5495e-08 0.0169867 -2.10453e-07 2.13464e-11)
(0.00523313 0.00903867 -5.49226e-08 0.0169867 -2.0278e-07 1.86852e-11)
(0.00523328 0.00903893 -5.14847e-08 0.0169866 -1.87186e-07 1.53408e-11)
(0.0052334 0.00903916 -4.89371e-08 0.0169866 -1.70755e-07 1.1732e-11)
(0.00523351 0.00903936 -4.04906e-08 0.0169866 -1.40786e-07 7.88955e-12)
(0.00523357 0.00903951 -3.28463e-08 0.0169867 -1.09317e-07 4.2961e-12)
(0.0052387 0.00904415 -1.68056e-08 0.0169858 -5.10634e-08 7.40951e-13)
(0.00860716 0.00880759 8.21613e-09 0.00928939 8.49965e-09 1.0674e-13)
(0.00860056 0.00880457 2.59262e-08 0.00929033 2.75172e-08 9.51628e-13)
(0.00860058 0.00880459 5.40977e-08 0.00929034 5.81648e-08 2.71819e-12)
(0.0086006 0.00880464 8.14763e-08 0.00929042 8.78384e-08 5.1743e-12)
(0.00860062 0.00880471 9.75455e-08 0.00929053 1.05566e-07 7.78942e-12)
(0.00860064 0.00880478 1.12177e-07 0.00929066 1.21708e-07 1.04198e-11)
(0.00860067 0.00880487 1.20472e-07 0.00929081 1.31117e-07 1.2634e-11)
(0.00860069 0.00880497 1.25592e-07 0.00929097 1.37113e-07 1.4273e-11)
(0.00860071 0.00880507 1.2593e-07 0.00929115 1.37973e-07 1.51101e-11)
(0.00860073 0.00880517 1.22738e-07 0.00929133 1.35004e-07 1.51106e-11)
(0.00860074 0.00880527 1.15879e-07 0.00929151 1.28025e-07 1.42923e-11)
(0.00860074 0.00880536 1.06381e-07 0.00929169 1.18105e-07 1.28052e-11)
(0.00860074 0.00880544 9.42158e-08 0.00929187 1.05187e-07 1.08407e-11)
(0.00860072 0.00880552 8.12971e-08 0.00929203 9.13e-08 8.6878e-12)
(0.0086007 0.00880558 6.72805e-08 0.00929218 7.60289e-08 6.55874e-12)
(0.00860067 0.00880563 5.66879e-08 0.00929231 6.41525e-08 4.68568e-12)
(0.00860062 0.00880566 4.47823e-08 0.00929243 5.07284e-08 3.06312e-12)
(0.00860057 0.00880568 4.1025e-08 0.00929252 4.58258e-08 1.75207e-12)
(0.00860049 0.0088057 4.07453e-08 0.00929265 4.4032e-08 7.91523e-13)
(0.00860704 0.00880874 1.92139e-08 0.00929178 2.0252e-08 1.33755e-13)
(0.177196 0.0425347 -1.16117e-10 0.010786 -5.6648e-09 4.60509e-13)
(0.177169 0.0425328 -2.55592e-08 0.0107867 -1.63386e-08 2.94558e-12)
(0.177171 0.0425326 -2.73527e-08 0.0107865 -2.31001e-08 8.08111e-12)
(0.177172 0.0425326 5.33753e-08 0.0107864 -1.01177e-08 1.5135e-11)
(0.177173 0.0425325 3.7639e-08 0.0107862 -2.03659e-08 2.33391e-11)
(0.177173 0.0425323 4.21937e-08 0.0107861 -2.54523e-08 3.17946e-11)
(0.177175 0.0425322 2.18699e-08 0.0107859 -3.6056e-08 3.96133e-11)
(0.177176 0.0425321 2.9086e-09 0.0107857 -4.56527e-08 4.60241e-11)
(0.177177 0.0425319 -2.63874e-08 0.0107854 -5.69403e-08 5.04092e-11)
(0.177179 0.0425318 -5.75738e-08 0.0107852 -6.76937e-08 5.24103e-11)
(0.17718 0.0425317 -9.3234e-08 0.0107849 -7.84416e-08 5.19475e-11)
(0.177182 0.0425316 -1.28715e-07 0.0107847 -8.79726e-08 4.92145e-11)
(0.177184 0.0425314 -1.65738e-07 0.0107844 -9.66077e-08 4.46113e-11)
(0.177185 0.0425314 -1.94558e-07 0.0107842 -1.01859e-07 3.86771e-11)
(0.177187 0.0425313 -2.21654e-07 0.010784 -1.053e-07 3.19644e-11)
(0.177188 0.0425312 -2.16339e-07 0.0107838 -9.94107e-08 2.4879e-11)
(0.17719 0.0425311 -2.24455e-07 0.0107836 -9.50416e-08 1.79616e-11)
(0.177191 0.042531 -1.24028e-07 0.0107834 -6.24052e-08 1.13423e-11)
(0.17719 0.0425311 -9.27298e-08 0.0107834 -4.5205e-08 6.10739e-12)
(0.177218 0.0425329 -4.81705e-08 0.0107826 -1.85108e-08 9.01814e-13)
(0.0115751 -0.00735349 -2.1368e-08 0.00592724 1.62355e-08 3.28547e-13)
(0.011569 -0.00735114 -4.37557e-08 0.00592767 2.97504e-08 2.5121e-12)
(0.0115691 -0.00735109 -7.40384e-08 0.00592756 4.76615e-08 6.96629e-12)