/*--------------------------------*- C++ -*----------------------------------*\
| =========                 |                                                 |
| \\      /  F ield         | OpenFOAM: The Open Source CFD Toolbox           |
|  \\    /   O peration     | Version:  2212                                  |
|   \\  /    A nd           | Website:  www.openfoam.com                      |
|    \\/     M anipulation  |                                                 |
\*---------------------------------------------------------------------------*/
FoamFile
{
    version     2.0;
    format      ascii;
    arch        "LSB;label=32;scalar=64";
    class       volScalarField;
    location    "0.03";
    object      epsilon;
}
// * * * * * * * * * * * * * * * * * * * * * * * * * * * * * * * * * * * * * //

dimensions      [0 2 -3 0 0 0 0];

internalField   nonuniform List<scalar> 
44662
(
8428.45
20184.5
20082.5
20792.9
20486.6
9308.58
11449.7
9055.5
16053.4
16427.7
10500.5
24274.3
11709.3
19209.5
604512
21139.8
339950
273921
24271.4
9381.22
15529.2
299770
13331.9
14102.8
668591
23418.1
12277.3
19872.8
12096.9
18555.6
263258
20475.7
504710
15693.9
7.51129e+06
14228.3
17060.3
19638.8
24397.6
14826
14909.4
15759.2
56486
18085.4
15547.9
2716.11
36319.1
15603.4
18112.7
16646.3
21695.3
44186.4
20083.1
19916.6
16303.9
4229.65
19280.1
44946.5
13902.2
14005.3
9321.89
12028.2
16916.2
24532.4
15370.1
11368.5
34622.3
75986.4
25939.4
18027
15090.3
32520.6
43864.6
11434.3
18841.4
16093.1
3847.48
13816.6
14129.7
34340.8
3452.27
19562.9
16998.7
23198.8
4294.6
17386.5
20263.7
33273.1
19770
10996.6
21735.5
20992.8
14873.7
4712.06
16072.3
19989.5
22280.6
16767.3
15137.8
14728.7
7160.28
31425.2
13742.3
15349.1
12101.7
23230.5
12479.1
4318.28
14954.6
10670.6
12851.6
14140.9
30758.8
13846.2
13335.6
13218
14153.5
17949.5
8007.08
13529.2
14026.8
13366.1
15020.9
13716.8
13537.7
61780.5
13783.3
13686.5
23895.8
13714.3
13799.7
16131.6
10781.1
14431.7
13443.3
13871.9
14451.9
14519.1
12878.6
13891.4
14952.5
12046.8
31989.7
36591
10994.6
24037.9
19375
19479.4
57634.1
16224.9
14833.5
21863.1
11280.5
74585.2
44087.7
53515.3
14042.9
7026.53
6984.52
6941.62
6897.85
6853.31
6808.05
6762.02
6715.34
6667.86
6619.67
6570.8
6521.38
6471.46
6421.13
6370.46
6319.53
6268.41
6217.18
6165.9
6114.66
6063.54
6012.6
5961.94
5911.62
5861.73
5812.34
5763.5
5715.24
5667.62
5620.7
5574.52
5529.15
5484.57
5440.82
5397.91
5355.91
5314.87
5274.83
5235.81
5197.84
5160.92
5125.1
5090.39
5056.83
5024.43
4993.21
4963.14
4934.21
4906.43
4945.95
4918.02
4975.07
17681.3
7067.44
7045.56
7087.49
4879.84
4854.56
4866.39
4891.47
5036.83
5005.38
5103.14
5069.42
5173.98
5138.01
5249.17
5211.04
5328.55
5288.34
5412.06
5369.8
5499.45
5455.29
5590.32
5544.47
5684.14
5636.88
5780.39
5731.97
5878.87
5829.34
5979.53
5928.95
6081.81
6030.52
6184.95
6133.31
6288.28
6236.63
6391.17
6339.82
6493.01
6442.25
6593.31
6543.36
6691.74
6642.82
6787.47
6739.99
6879.9
6834.15
6968.04
6924.53
7010.36
6959
7002.65
6869.96
6914.82
6778.72
6824.75
6684.62
6732.06
6587.56
6636.44
6487.95
6538.02
6386.55
6437.43
6284.03
6335.38
6181.06
6232.56
6078.23
6129.58
5976.14
6027.06
5875.32
5925.53
5776.39
5825.57
5680.03
5727.87
5586.71
5632.96
5496.7
5541.29
5410.02
5452.93
5326.93
5368
5247.76
5286.83
5172.81
5209.75
5102.28
5136.98
5036.42
5068.75
4975.36
5005.29
4918.84
4946.54
4866.9
4892.25
4981.86
4953.79
5011.3
11065.9
16811.9
7109.12
7152.03
4842.75
4902.49
4879.35
4904.02
4842.87
4880.05
7128.22
7107.12
4927.32
5073.75
5041.95
5140.7
5106.66
5212.14
5175.84
5287.99
5249.52
5368.15
5327.53
5452.65
5409.84
5541.47
5496.53
5634.01
5587.37
5729.52
5681.47
5827.09
5778.04
5926.8
5876.62
6028.97
5977.59
6133.08
6080.84
6238.23
6185.57
6343.65
6290.95
6448.68
6396.27
6552.67
6500.84
6655.17
6604.12
6756.25
6705.91
6855.03
6806.04
6949.63
6902.96
7038.27
6994.74
7080.27
12001.8
4830.62
7020.78
7065.29
6930.47
6975.89
6837.88
6884.52
6742.34
6790.48
6643.77
6693.42
6542.58
6593.46
6439.47
6491.2
6335.2
6387.42
6230.5
6282.87
6125.99
6178.18
6022.27
6074
5919.86
5970.88
5819.35
5869.31
5721.61
5770.09
5627.13
5673.93
5536.15
5581.2
5448.7
5491.98
5364.96
5406.34
5285.26
5324.58
5209.9
5247.02
5139.1
5173.91
5073.12
5105.47
5012.1
5041.98
4955.76
4983.35
4929.28
7193.97
4941.07
4963.59
5042.75
5014.5
5072.56
4820.22
4857.57
7130.18
7234.51
7167.64
7145.45
4920.05
5029.2
5009.05
7205.31
7273.49
4988.13
5135.83
5103.62
5203.65
5169.2
5275.97
5239.26
5352.82
5313.83
5434.18
5392.93
5520.2
5476.6
5611.14
5565.09
5706.31
5658.3
5804.26
5754.92
5903.94
5853.88
6005.78
5954.49
6110.54
6057.8
6217.65
6163.88
6326
6271.72
6434.77
6380.37
6543.22
6489.08
6650.67
6597.11
6756.73
6703.89
6861.7
6809.32
6964.9
6913.69
7062.78
7014.75
7152.76
7108.73
15549.3
7195.04
4820.49
4808.05
4857.6
7387.6
7305.47
7347.25
7218.37
7262.32
7127.99
7173.41
7035.2
7081.85
6939.84
6987.88
6841.39
6890.98
6739.86
6790.99
6635.65
6688.04
6529.53
6582.77
6422.21
6475.96
6314.54
6368.39
6207.14
6260.75
6100.65
6153.74
5995.67
6047.94
5892.78
5943.91
5792.77
5842.37
5696.23
5744.05
5603.47
5649.37
5514.54
5558.52
5429.6
5471.54
5348.93
5388.71
5272.83
5310.29
5201.53
5236.56
5135.26
5167.72
5074.19
5104.09
5018.08
5045.52
4966.78
4991.78
4921.01
4943.16
7311.05
7426.46
7198.82
5050.99
7168.1
4900.33
4990.27
5145.36
5126.28
5011.53
4900.42
4991.47
7182.44
7241.97
7346.95
5160.03
5129.86
5101.41
7463.66
7478.11
7314.31
5075.01
5224.24
5191.52
5293.11
5258.06
5366.47
5329.22
5444.59
5404.92
5527.52
5485.44
5615.53
5570.86
5709.22
5661.67
5807.81
5757.97
5908.82
5858.06
6011.47
5959.99
6116.26
6063.47
6224.66
6170.01
6335.86
6280.01
6448.59
6392.1
6561.9
6505.21
6675.03
6618.54
6787.23
6731.29
6898.18
6842.85
7008.47
6953.4
7117.31
7063.25
7219.34
7169.49
7312.26
7266.91
17973.6
7355.62
50587.8
4799.05
4836.64
4799.58
4786.89
4837.18
7627.57
7549.08
7589.12
7464.56
7507.54
7374.57
7420.11
7280.94
7328.08
7184.32
7232.85
7084.75
7134.82
6982.01
7033.78
6876.08
6929.4
6767.48
6822.08
6656.98
6712.43
6545.38
6601.26
6433.49
6489.41
6322.03
6377.65
6211.71
6266.68
6103.15
6157.17
5996.99
6049.72
5893.98
5945.06
5794.62
5843.81
5699.38
5746.5
5608.37
5653.33
5521.75
5564.49
5439.74
5480.15
5362.63
5400.56
5290.64
5325.98
5223.99
5256.61
5162.83
5192.74
5106.99
5134.25
5056.35
5080.97
5033.18
7499.36
7664.26
7236.52
5166.33
5244.78
5216.23
5275.28
5108.61
4881.43
4973.05
7690.76
7517.42
7732.17
7204.71
7218.34
7277.06
7381.79
7533.83
7699.62
7352.25
5189.88
5340.46
5307.21
5410.45
5374.86
5484.89
5447.01
5564.48
5524.02
5649.27
5606.21
5739.65
5693.73
5836.57
5787.33
5938.96
5887.26
6044.13
5991.38
6150.21
6097.05
6258.69
6203.98
6371.65
6314.65
6487.95
6429.51
6606.07
6546.84
6725.04
6665.5
6844
6784.57
6962.2
6903.24
7079.39
7020.92
7196.28
7137.92
7311.64
7254.4
7419.59
7366.28
7516.67
7469.15
7606.04
7561.92
7648.72
4779.39
4817.25
4780.05
4767.17
4881.87
4818.06
5092.2
4972.69
7914.61
7839.96
7877.92
7758.23
7799.88
7670.35
7715.13
7576.63
7623.98
7478.64
7528.15
7377.01
7428.2
7272.13
7325.03
7163.71
7218.38
7052.08
7108.3
6937.86
6995.23
6821.73
6879.95
6704.61
6763.22
6587.4
6645.97
6470.86
6528.99
6355.75
6413.08
6242.76
6298.94
6132.52
6187.24
6025.81
6078.7
5923.06
5973.91
5824.79
5873.36
5731.23
5777.42
5642.54
5686.27
5558.92
5600.07
5480.62
5519.09
5407.83
5443.52
5340.77
5373.56
5279.58
5309.46
5224.1
5251.14
5174.37
5198.52
5130.77
5151.77
5093.78
5111.42
7733.72
7949.82
7773.12
7555.43
7273.03
5291.91
5273.86
5311.89
7240.26
5076.94
5242.33
5228.45
5245.58
5077.84
5230.71
8037.9
7814.61
8083.97
7253
7311.31
7415.9
7567.04
7766.56
5360.98
5389.35
5420.03
7983.51
7389.62
5257.45
5334.86
5486.1
5452.36
5557.05
5521.01
5632.72
5594.21
5713.88
5672.6
5800.68
5756.56
5893.68
5846.35
5994.2
5943
6101.14
6047.06
6210.74
6155.69
6320.44
6265.49
6433.24
6376.26
6551.42
6491.75
6673.55
6612.12
6797.93
6735.54
6923.44
6860.6
7049.2
6986.34
7174.41
7111.92
7298.85
7236.72
7423.29
7361.05
7546.43
7485.31
7661.23
7605.27
7764.15
7713.98
7859.16
7812.15
7949.25
7904.65
7993.52
4864
4956.27
4761.26
4799.38
4761.92
4748.91
4864.74
4800.28
4956.38
8250.6
8178.89
8215.75
8100.24
8140.24
8014.44
8057.93
7921.72
7968.81
7822.76
7872.7
7719.46
7771.79
7611.68
7666.04
7500.21
7556.4
7385.02
7443.02
7266.52
7326.09
7145.41
7206.21
7022.67
7084.22
6899.12
6960.92
6775.71
6837.34
6653.29
6714.32
6532.67
6592.71
6414.56
6473.26
6299.68
6356.66
6188.75
6243.69
6082.22
6134.91
5980.6
6030.76
5884.19
5931.72
5793.21
5838
5707.82
5749.8
5628.27
5667.32
5554.7
5590.73
5487.31
5520.22
5426.22
5455.99
5371.36
5398.05
5322.77
5346.29
5280.7
5300.89
5262.25
8015.45
8283.47
7593.6
7308.82
5470.74
5454.06
5489.61
5565.47
5537.38
5596.24
5425.5
5413.16
5063.65
5217.66
8134.53
7858.07
7274.79
7286.7
7344.54
7448.31
7598.86
7798
8045.7
8314.55
7425.63
5439.08
5511.85
5662.94
5628.83
5734.8
5698.33
5811.54
5772.49
5894.15
5852.16
5982.88
5937.7
6078.55
6029.76
6182.6
6129.48
6294.22
6237.74
6408.32
6351.27
6521.95
6465
6639.38
6579.92
6763.11
6700.53
6891.47
6826.86
7022.55
6956.75
7155.13
7088.71
7288.28
7221.69
7421.19
7354.8
7553.75
7487.46
7686.41
7619.91
7818.5
7752.89
7941.15
7881.37
8051.03
7997.47
8152.48
8102.61
8248.48
8201.08
8341.12
8294.93
8438.16
8388.19
8192.26
8497.39
4848.17
4941.14
4744.64
4783.06
4745.25
4732.16
4848.92
4783.95
5063.03
4941.39
5402.1
5215.85
8631.91
8565.13
8599.48
8489.23
8528.28
8405.31
8448.13
8313.88
8360.15
8214.86
8265.21
8109.69
8162.87
7999.46
8055.31
7884.42
7942.54
7765.37
7825.39
7642.36
7704.32
7516.19
7579.68
7387.58
7452.12
7257.48
7322.66
7126.91
7192.22
6996.81
7061.74
6868.09
6932.21
6741.59
6804.5
6618.08
6679.42
6498.29
6557.66
6382.94
6440.02
6272.5
6327.07
6167.45
6219.27
6068.16
6117.07
5974.91
6020.78
5887.81
5930.57
5807.11
5846.65
5732.93
5769.2
5665.43
5698.35
5604.72
5634.21
5550.79
5576.93
5503.65
5526.38
5463.49
5482.68
5430.64
5446.12
5405.35
5417.05
8343.03
8661.11
7632.33
7343.44
5684.08
5669.02
5701.82
5775.55
5747.89
5805.9
7900.57
7308.05
5392.57
5624.1
5616.37
5628.9
5395.56
5620.8
8563.27
8240.8
7319.19
7376.24
7479.5
7629.99
7827.79
8074.33
8685.22
8368.07
7461.44
5643.88
5633.33
5655.69
5723.25
5873.04
5838.67
5945.34
5908.59
6022.89
5983.44
6106.38
6063.81
6196.7
6150.65
6294.65
6244.63
6402
6347.03
6517.85
6459.2
6636.23
6577.08
6753.76
6694.81
6875.64
6813.89
7004.77
6939.43
7139.2
7071.49
7276.84
7207.7
7416.44
7346.46
7557.02
7486.67
7697.76
7627.39
7838.49
7768.19
7979.82
7909.1
8121.1
8050.92
8253.09
8188.8
8371.23
8313.19
8480.72
8426.43
8584.22
8533.2
8683.16
8634.09
8782.4
8732.19
8902.49
8838.48
8566.38
8947.25
8934.47
5051.19
5206.41
4833.98
4927.71
4729.57
4768.32
4730.1
4716.93
4834.66
4769.15
5050.57
4927.91
5204.76
9068.85
9047.84
8705.67
9064.77
8991.48
9022.61
8920.3
8957.04
8838.85
8880.65
8748.43
8794.62
8649.69
8699.51
8543.26
8597.2
8430.42
8487.46
8312.12
8371.84
8188.87
8251
8061.29
8125.51
7930.12
7996.24
7795.9
7863.34
7659.51
7727.93
7522.02
7590.84
7384.41
7453.16
7247.68
7315.87
7112.79
7179.95
6980.6
7046.3
6851.9
6915.77
6727.42
6789.08
6607.88
6667
6493.79
6550.13
6385.63
6438.94
6283.78
6333.9
6188.53
6235.33
6100.05
6143.43
6018.53
6058.41
5944.11
5980.42
5876.88
5909.59
5816.94
5845.98
5764.37
5789.75
5719.1
5740.81
5681.25
5699.22
5651.12
5665.2
5639.02
7669.89
7376.98
5934.09
5920.6
5950.73
5883.59
5877.88
5387.7
5614.7
7939.67
7340.2
8242.44
7350.51
8967.21
8585.41
7407.27
7510.09
7659.73
7856.77
8100.54
8389.46
8718.22
9476.34
9090.21
5993.89
6020.7
6050.78
7496.69
5899.38
5890.83
5909.18
5970.42
6117.58
6083.28
6190.05
6153.07
6267.48
6227.97
6351.38
6308.52
6442.71
6396.07
6542.35
6491.43
6652.03
6595.94
6771.44
6710.85
6893.15
6832.17
7013.93
6953.28
7139.42
7075.74
7273.04
7205.32
7412.61
7342.28
7555.92
7483.89
7701.66
7628.55
7848.86
7775.13
7996.72
7922.72
8145.12
8070.9
8294.71
8219.72
8444.76
8370.09
8586.66
8517.09
8713.9
8652.14
8833.45
8774.41
8948.05
8891.24
9059.21
9003.87
9171.05
9114.56
9286.91
9230.7
9355.33
9326.73
8989.88
9410.79
9382.73
5040.51
5197.02
4821.43
4915.98
4716.05
4755.18
4716.54
4703.27
4821.99
4755.9
5039.85
4916.07
5384.8
5195.34
5873.92
5610.38
9439.65
9452.05
9381.83
9414.6
9304.89
9344.93
9216.38
9261.73
9117.86
9168.14
9010.09
9064.51
8894.91
8953.27
8773.56
8835
8646.4
8710.43
8514.6
8581.11
8378.71
8447.06
8239.49
8309.51
8097.57
8168.81
7954.07
8025.96
7809.87
7881.99
7666.07
7737.86
7523.63
7594.62
7383.47
7453.21
7246.48
7314.53
7113.47
7179.43
6985.16
7048.68
6862.26
6923
6745.3
6803.02
6634.78
6689.21
6531.08
6582.06
6434.53
6481.9
6345.3
6388.99
6263.57
6303.49
6189.49
6225.57
6123.11
6155.33
6064.54
6092.84
6013.8
6038.2
5970.9
5991.38
5935.87
5952.39
5908.92
5921.37
5890.2
5898.53
5879.82
5883.97
7704.88
7409.24
6222.09
6210.43
6236.45
6302.83
6276.99
6332.28
7960.1
7371.24
5871.94
6176.81
6177.07
6184.18
5877.77
6184.26
8256.16
7381.11
8607.18
7437.38
9439.69
9014.89
7539.87
7688.9
7883.64
8123.79
8407.05
8739.22
9529.37
9128.27
7529.9
6182
6178.42
6193.47
6187.09
6201.11
6255.04
6397.65
6363.99
6469.18
6432.64
6545.86
6506.79
6629.31
6586.63
6720.67
6673.96
6820.81
6769.57
6931.59
6874.8
7052.93
6991.37
7176.58
7114.75
7299.1
7237.5
7426.67
7361.89
7563.06
7493.91
7705.92
7633.87
7852.95
7779
8002.87
7927.61
8154.74
8078.62
8307.84
8231.16
8462.13
8384.85
8618.49
8539.99
8775.71
8697.3
8926.24
8852.44
9062.62
8996.09
9193.1
9128.3
9319.85
9256.88
9444.28
9382.33
9568.08
9506.15
9684.73
9628.81
9773.88
9732.46
9848.47
9811.58
9467.74
9918.57
9884.22
5381.8
5610.64
5031.63
5189.51
4810.56
4905.97
4704.17
4743.7
4704.59
4691.22
4810.98
4744.3
5030.82
4905.95
5378.84
5187.73
5606.31
9567.12
9998.2
9881.19
9955.57
9846.69
9862.11
9787.69
9822.01
9703.24
9747.34
9605.05
9655.32
9496.18
9551.63
9378.47
9437.96
9253.87
9317.01
9123.17
9189.16
8987.47
9055.81
8847.73
8918.12
8704.35
8776.46
8558.35
8631.68
8410.43
8484.54
8261.45
8335.99
8112.46
8186.9
7964.36
8038.23
7818.09
7890.94
7674.56
7745.93
7534.6
7604.08
7399
7466.2
7268.5
7333.07
7143.76
7205.36
7025.36
7083.74
6913.79
6968.68
6809.47
6860.7
6712.7
6760.12
6623.74
6667.23
6542.74
6582.23
6469.85
6505.28
6405.12
6436.46
6348.63
6375.84
6300.4
6323.49
6260.41
6279.37
6228.68
6243.51
6205.34
6215.95
6190.49
6196.85
6186.26
7732.11
7440.12
6548.27
6538.81
6560.5
6621.67
6597.29
6650.08
6518.75
6521.19
5877.87
6186.5
7978.38
7401.24
8275.53
7410.88
8630.15
7467.01
9039.33
7569.12
9950.73
9494.04
7716.44
7908.41
8144.86
8429.36
8767.02
10023.5
9160.02
9587.98
10492.9
10036.6
10502.3
7559.41
6519.56
6518.27
6526.5
6522.41
6531.81
6577.46
6713.57
6680.96
6782.88
6747.47
6857.72
6819.51
6939.54
6897.7
7029.45
6983.43
7128.56
7077.81
7238.94
7182.3
7359.77
7298.5
7482.9
7421.27
7604.92
7543.68
7732.14
7667.52
7868.52
7799.39
8011.72
7939.48
8159.36
8085.08
8310.22
8234.44
8463.43
8386.58
8618.46
8540.73
8775.45
8696.73
8934.95
8854.96
9096.08
9015.69
9251.65
9175.03
9395.75
9325.01
9535.5
9466.02
9673.1
9604.49
9808.91
9741.31
9942.21
9875.98
10068.2
10007.1
10177.5
10125
10273.7
10226.6
10362.4
10319
9979.97
10440.9
10403.2
5377.91
5608.65
5024.58
5183.92
4801.39
4897.73
4693.93
4733.87
4694.26
4680.81
4801.68
4734.33
5023.61
4897.51
5374.79
5181.95
5872.17
5604.22
6525.85
6179.37
10441.6
10472.3
10355.7
10402.6
10277.6
10315.4
10193
10237.3
10093.3
10144.8
9981.51
10038.4
9860.73
9922.07
9732.12
9797.13
9597.93
9665.59
9458.98
9528.86
9316.12
9387.91
9170.25
9243.47
9021.92
9096.34
8871.92
8947.06
8720.87
8796.46
8569.66
8645.26
8419.05
8494.22
8269.85
8344.22
8122.9
8196.04
7979
8050.51
7838.93
7908.44
7703.44
7770.56
7573.24
7637.63
7448.99
7510.33
7331.27
7389.28
7220.59
7275.02
7117.39
7168.03
7022.02
7068.71
6934.74
6977.35
6855.74
6894.2
6785.17
6819.4
6723.08
6753.06
6669.54
6695.24
6624.55
6645.98
6588.08
6605.25
6560.13
6573.04
6540.74
6549.36
6529.97
6534.28
6527.83
6527.81
6534.35
6530
7755.12
7469.14
6905.23
6912.12
7998.98
7430.23
6532.45
6909.77
6918.41
6919.59
6540.86
6927.93
8297.31
7439.88
8653.07
7495.88
9062.35
7597.05
9517.99
7742.35
10475
10006
7932.16
8169.71
8454.15
8794.23
16654.3
33141.2
9179.97
9595.47
10038.2
11573
42713.3
6954.08
10510.5
6977.33
7586.56
6898.5
6903.18
6894.83
6895.79
6897.48
6895.58
6900.54
6921.79
6935.41
7064.5
7004.28
7033.64
7130.34
7096.75
7201.94
7165.46
7280.45
7240.29
7367.05
7322.67
7463.04
7413.79
7570.38
7515.29
7687.95
7628.34
7807.55
7747.84
7925.89
7866.51
8049.38
7986.58
8182.04
8114.72
8321.45
8251.09
8465.32
8392.92
8612.52
8538.55
8762.32
8687.13
8914.33
8838.04
9068.88
8991.33
9226.43
9147.41
9386.08
9306.33
9541.85
9464.92
9689.65
9616.63
9835.05
9762.5
9980.19
9907.6
10124.8
10052.6
10267.3
10196.4
10405
10337.1
10533.1
10470.4
10651.6
10593.2
10762.3
10707.7
10863.2
10814.1
10505
10951.2
10908.9
5880.11
6190.92
5376.03
5608.76
5019.4
5180.26
4793.99
4891.3
4685.38
4725.77
4685.63
4672.08
4794.09
4726.07
5018.22
4890.88
5372.71
5178.08
5874.3
5604.26
6183.84
10862.6
10897.9
10771.4
10818.8
10669.9
10721.9
10560.6
10616.3
10442.1
10502.6
10315.5
10379.4
10182.3
10249.4
10043.8
10113.5
9901.71
9972.99
9756.91
9829.63
9610.15
9683.72
9461.91
9536.16
9312.81
9387.48
9163.28
9238.08
9013.87
9088.54
8865.09
8939.36
8717.52
8791.11
8571.82
8644.4
8428.59
8499.85
8288.54
8358.13
8152.33
8219.91
8020.64
8085.87
7894.15
7956.71
7773.52
7833.07
7659.33
7715.58
7552.12
7604.82
7452.35
7501.27
7360.42
7405.38
7276.65
7317.5
7201.24
7237.88
7134.35
7166.72
7076.07
7104.13
7026.45
7050.18
6985.47
7004.88
6953.12
6968.22
6929.33
6940.15
6914.09
6920.64
6907.41
6909.68
6909.26
6907.29
6913.36
7778.24
7496.77
7327.48
7337.67
13109.9
6549.54
6938.38
8021.38
7458.43
8319.95
7468.21
8675.07
7523.91
9083.92
7623.64
9539.38
7767.69
10028.4
7958.06
10984.3
10528.3
8193.79
8478.95
8814.37
9189.51
9595.45
10039.9
10535.5
11026.4
12353.4
11043.9
9425.01
7611.86
7312.86
7319.31
7305.08
7308.14
7303.38
7303.45
7306.88
7304.39
7318.12
7310.48
7347.1
7329.8
7392.88
7368.06
7448.36
7419.9
7509.42
7478.39
7575.96
7542.12
7649.02
7611.58
7730.06
7688.49
7820.36
7773.91
7921.66
7869.45
8032.7
7976.45
8144.76
8089.2
8255.65
8200.31
8371.25
8312.36
8495.53
8432.36
8626
8560.12
8760.59
8692.86
8898.26
8829.07
9038.5
8968.08
9181.06
9109.48
9326.51
9253.38
9475.32
9400.51
9626.32
9550.71
9775.38
9701.47
9920.67
9848.48
10066.3
9993.28
10213.8
10139.8
10362.9
10288.3
10512.1
10437.5
10660
10586.3
10804
10732.6
10943.2
10874.2
11076.8
11010.6
11202.6
11140.9
11315.9
11261.2
11809.3
11924.1
11364.7
12374.1
11729.4
12211.7
5884.5
6197.53
5376.17
5610.98
5016.12
5178.57
4788.39
4886.73
4678.56
4719.42
4678.72
4665.06
4788.29
4719.57
5014.73
4886.09
5372.76
5176.21
5878.64
5606.34
6541.28
6190.43
7349.71
6929.09
11218.6
11265.4
11105
11163.2
10981.3
11044.4
10850.1
10916.4
10713.1
10782.2
10572.2
10642.9
10428.7
10500.6
10283.6
10356.2
10137.9
10210.7
9992.12
10065
9846.61
9919.23
9701.88
9774.13
9558.09
9629.85
9415.33
9486.56
9273.83
9344.4
9133.75
9203.58
8995.38
9064.33
8859.06
8926.93
8725.2
8791.79
8594.31
8659.35
8466.94
8530.15
8343.67
8404.75
8225.14
8283.76
8111.97
8167.84
8004.81
8057.6
7904.21
7953.65
7810.67
7856.52
7724.67
7766.7
7646.54
7684.6
7576.56
7610.52
7514.92
7544.69
7461.73
7487.26
7417.04
7438.32
7380.83
7397.87
7353.06
7365.89
7333.66
7342.32
7322.57
7327.08
7319.72
7320.11
7325.03
7321.36
7338.42
7330.72
7359.79
7348.11
11397.7
7801.95
7523.57
8044.6
7486.05
7363.71
7796.61
7811.01
7807.16
7373.43
7821.07
8342.39
7495.96
8696.11
7550.89
9103.54
7649.88
9558.4
7793.98
10047.2
7982.6
10545.4
8216.49
8499.4
17058.5
8827.6
12465.7
9193.58
9596.8
10588.8
11109.3
11501.2
11235.3
11617.9
10048.9
11707.5
11910
12004.7
7637.15
7773.08
7783.93
7756.03
7763.79
7745.4
7750.13
7739.6
7742.11
7738.83
7738.41
7746.68
7741.01
7771.11
7756.48
7811.56
7789.73
7861.43
7835.78
7916.12
7888.38
7975.31
7945.14
8040.81
8007.18
8113.83
8076.34
8195.35
8153.42
8287.49
8239.98
8387.99
8337.2
8488.8
8438.89
8587.46
8538.31
8690.38
8637.93
8800.77
8744.65
8916.44
8858.08
9035.36
8975.56
9156.71
9095.76
9280.19
9218.19
9405.78
9342.69
9534.17
9469.54
9665.89
9599.64
9799.78
9732.65
9933.86
9866.94
10068.5
10001
10206.7
10137
10349.5
10277.5
10496.3
10422.4
10646.5
10571
10799.7
10722.8
10954.7
10877
11110.1
11032.4
11264.4
11187.5
11415.3
11340.5
11557.7
11488
11693.6
11626.6
12105.7
6560.4
6950.93
5891.1
6206.34
5378.42
5615.34
5014.81
5178.9
4784.64
4884.05
4673.53
4714.89
4673.58
4659.82
4784.33
4714.87
5013.19
4883.18
5374.82
5176.35
5885.15
5610.55
6552.23
6199.21
6941.83
11684.5
11796
11582.6
11635
11460.3
11524.4
11319.8
11391.2
11172.6
11246.6
11022
11097.7
10870.2
10946.2
10719.2
10794.5
10570.5
10644.6
10424.3
10497.1
10281.2
10352.4
10141.3
10210.9
10004.7
10072.6
9871.16
9937.54
9740.52
9805.5
9612.43
9676.17
9486.59
9549.24
9362.78
9424.44
9240.89
9301.6
9120.92
9180.66
9003.02
9061.7
8887.48
8944.93
8774.69
8830.71
8665.15
8719.48
8559.44
8611.77
8458.19
8508.22
8362.04
8409.43
8271.61
8316.07
8187.47
8228.71
8110.13
8147.92
8040.03
8074.15
7977.49
8007.79
7922.74
7949.13
7875.92
7898.33
7837.12
7855.52
7806.31
7820.71
7783.44
7793.88
7768.42
7774.95
7761.15
7763.82
7761.52
7760.39
7769.4
7764.53
7784.67
7776.13
7795.02
7826.3
7550.2
11005.7
8260.73
8274.5
7389.02
7836.72
8067.79
7513.3
8363.85
7523.12
8715.86
7577.59
9121.6
7676.56
9575.35
7818.99
12081.1
11776.8
10064.5
8005.68
10571.9
8237.33
11073.5
8515.71
11321.1
11421.8
8837.25
10828
29716.7
9198.83
2276.28
9605.22
10067.3
12144.8
12240.6
12317.4
7662.57
8237.64
8248.44
8220.2
8228.24
8207.78
8213.47
8199.21
8203.25
8195.41
8196.44
8200.05
8196.27
8220.08
8208.11
8254.19
8235.75
8296.91
8274.99
8343.54
8320.05
8393.87
8368.23
8449.76
8421.04
8512.22
8480.14
8582.1
8546.11
8661.3
8620.5
8747.44
8703.91
8832.54
8790.37
8914.22
8873.61
8999.24
8956
9090.09
9043.98
9184.7
9137.08
9281.19
9232.76
9378.97
9329.93
9477.99
9428.32
9578.53
9528.03
9681.25
9629.53
9786.79
9733.71
9894.3
9840.29
10004
9948.73
10118.5
10060.4
10240.2
10178.5
10369
10303.8
10504.6
10435.9
10647.4
10575
10797.8
10721.6
10955.8
10875.9
11120.3
11037.3
11289.8
11204.5
11462.8
11375.9
11639.2
11550.3
11814.9
11728.3
11905.6
6573.44
6965.57
5899.89
6217.36
5382.8
5621.86
5015.5
5181.3
4782.77
4883.31
4670.31
4712.2
4670.25
4656.38
4782.24
4711.99
5013.65
4882.21
5378.99
5178.54
5893.83
5616.93
6565.31
6210.2
7379.63
6956.67
8289.71
7827.14
12066.2
12158.1
11883.9
11971.3
11716.6
11800.7
11545.9
11630.8
11376.6
11461.4
11208.9
11292.6
11043.8
11125.8
10883.6
10963
10729.8
10805.9
10583.3
10655.7
10444.1
10512.8
10312.2
10377.3
10187.3
10248.9
10068.6
10127.2
9955.48
10011.4
9847.11
9900.76
9742.57
9794.41
9641.06
9691.49
9541.85
9591.2
9444.38
9492.92
9348.3
9396.18
9253.45
9300.72
9159.88
9206.49
9067.82
9113.64
8977.68
9022.48
8889.98
8933.49
8805.34
8847.23
8724.43
8764.38
8647.94
8685.59
8576.5
8611.55
8510.71
8542.87
8451.07
8480.09
8397.97
8423.67
8351.7
8373.96
8312.46
8331.2
8280.35
8295.51
8255.36
8266.96
8237.44
8245.52
8226.5
8231.1
8222.41
8223.61
8225.02
8222.88
8234.18
8228.79
8249.71
8241.15
8271.43
8259.81
8299.14
8284.55
7850.48
7576.68
8090.42
7540.25
8306.38
8755.53
8769.6
8764.5
8315.17
8777.83
8384.63
7549.91
8734.42
7604.4
12389.4
12200.5
9138.44
7702.35
11829.2
9592.8
7843.11
10083.4
8027.86
10596.2
8256.16
11384
11022.3
8530.14
10895.1
11461.3
8846.97
10420.3
16884.3
14917.2
9208.82
9622.9
10083.3
12458.1
12393.7
12481.7
7687.98
8730.67
8742.52
8710.32
8719.95
8694.27
8701.86
8682.03
8687.66
8672.46
8677.03
8666.52
8668.8
8668.87
8666.58
8684.01
8674.74
8711.49
8696.52
8746.27
8728.4
8783.74
8764.87
8823.73
8803.33
8868.04
8845.24
8917.56
8892.14
8972.92
8944.42
9035.6
9003.35
9103.21
9069.15
9168.29
9136.73
9228.81
9198.92
9290.92
9259.39
9356.66
9323.39
9424.05
9390.28
9491.51
9457.82
9558.67
9525.12
9625.71
9592.18
9693.17
9659.34
9761.82
9727.3
9832.19
9796.8
9904.06
9867.87
9979.68
9941.08
10064.3
10020.6
10159.4
10110.6
10263.7
10210.4
10377.6
10319.4
10502.6
10438.6
10640.1
10569.7
10790.7
10713.7
10954.2
10870.9
11129.6
11040.5
11316
11221.4
11514.8
11413.7
11711.4
11614.9
11896.3
11803.4
12089.6
11992.4
12282.7
12188.2
7406.55
7854.09
6588.66
6982.29
5910.91
6230.61
5389.32
5630.59
5018.22
5185.81
4782.82
4884.54
4668.95
4711.38
4668.78
4654.79
4782.07
4711
5016.12
4883.21
5385.31
5182.81
5904.71
5625.48
6580.6
6223.38
7397.5
6973.59
7845.01
12212.2
12303.4
12027.2
12120
11841
11933.4
11643.3
11744.3
11437.4
11539.3
11246.8
11340.5
11065.6
11155.1
10893.9
10978.3
10734.4
10812.6
10587.5
10659.3
10453.2
10518.8
10331.2
10390.7
10220.7
10274.6
10120.9
10169.6
10030.2
10074.5
9947.34
9987.91
9870.77
9908.36
9798.98
9834.37
9730.56
9764.43
9664.29
9697.23
9599.16
9631.64
9534.42
9566.78
9469.6
9502.04
9404.52
9437.1
9339.25
9371.9
9274.08
9306.63
9209.48
9241.67
9146.07
9177.58
9084.57
9115.04
9025.69
9054.75
8970.18
8997.47
8918.69
8943.89
8871.81
8894.64
8830.01
8850.25
8793.64
8811.13
8762.95
8777.58
8738.08
8749.78
8719.05
8727.83
8705.83
8711.72
8698.33
8701.37
8696.41
8696.68
8699.91
8697.49
8708.67
8703.64
8722.49
8714.96
8741.17
8731.24
8752.27
7874.6
7602.92
9210.82
9220.88
12002
12083.3
8332.62
8792.25
8112.52
7566.69
12568.4
12521.3
8404.59
7576.57
12248.6
8752.07
7630.76
11871.4
9155.32
7727.43
9608.95
7866.71
10097.4
8048.64
11427.4
10572.1
8273.97
10942.5
11038.6
8543.55
10453
11507.6
8858.32
2637.46
9223.21
9642.02
10007.2
12433.6
11971
7713.25
9192.86
9201.48
9177.92
9184.98
9165.53
9171.43
9155.46
9160.23
9146.95
9151.11
9140.26
9143.18
9140.85
9139.92
9151.08
9144.48
9172.46
9161.03
9198.95
9185.31
9226.41
9212.49
9254.84
9240.34
9286.05
9270.02
9320.56
9302.88
9358.82
9339.18
9401.82
9379.79
9447.6
9424.57
9488.87
9469.22
9524.12
9506.86
9558.78
9541.34
9594.48
9576.65
9629.29
9612.12
9661.94
9645.91
9692.28
9677.38
9720.73
9706.7
9748.06
9734.48
9775.21
9761.64
9802.49
9788.85
9830.45
9816.3
9863.38
9845.77
9908.67
9884.24
9966.92
9936.29
10036.6
10000.4
10117.9
10075.6
10214
10163.9
10327
10268.2
10458.5
10390.3
10608.8
10531.3
10777.6
10690.9
10964.1
10868.7
11168.2
11064.6
11373.5
11271.9
11573.7
11472.6
11785.9
11677.2
11895.3
7425.99
7873.15
6606.07
7001.11
5924.17
6246.08
5398.03
5641.55
5023
5192.43
4784.83
4887.78
4669.48
4712.49
4669.21
4655.09
4783.85
4711.93
5020.67
4886.2
5393.79
5189.18
5917.86
5636.27
6598.06
6238.85
7417.27
6992.6
8324.43
7864.53
9231.64
8784.8
11294.8
11421.1
12738.7
12623.4
12652.3
12397.8
12509.5
12179.3
12287.8
11966.1
12072.1
11757.9
11862
11551.3
11654.2
11338.6
11445.7
11118.7
11226.9
10915.9
11013.3
10733.1
10822.6
10566.5
10647.4
10419.4
10490.4
10290.6
10352.7
10179.9
10233.1
10086.1
10130.9
10007.8
10045.2
9943.34
9973.99
9890.56
9915.62
9847.3
9867.87
9811.44
9828.58
9780.83
9795.61
9753.5
9766.87
9727.7
9740.51
9701.97
9714.9
9675.21
9688.77
9646.65
9661.19
9615.86
9631.55
9582.76
9599.6
9547.54
9565.4
9510.61
9529.25
9472.59
9491.69
9434.22
9453.4
9396.27
9415.14
9359.54
9377.7
9324.78
9341.87
9292.64
9308.34
9263.67
9277.73
9238.3
9250.51
9216.82
9227.06
9199.42
9207.6
9186.17
9192.27
9177.06
9181.1
9172.02
9174.03
9170.93
9170.98
9173.66
9171.83
9180.03
9176.4
9189.86
9184.52
9202.97
9196.01
9219.13
9210.67
9238.15
9228.29
12294.9
12733.5
7898.16
7628.75
12579.6
8134.05
7592.94
9243.02
9649.97
9654.96
9655.39
9248.66
9659.37
12290.8
8423.83
7602.95
11906
8769.58
7656.51
9171.28
7752.12
9621.91
7889.49
11458.5
10098.2
8068.84
10975.3
10577.3
8290.99
10482.3
11071.2
8557.82
11546
8871.81
2205.64
9235.37
10016.7
9613.17
12305.6
12510.9
12315
12555.7
12503.9
12820.9
12808.7
12419.8
7167.42
7738.21
9640.7
9645.21
9632.56
9636.48
9625.51
9628.89
9619.43
9622.3
9613.82
9616.58
9608.53
9611.12
9603.48
9605.63
9601.7
9601.8
9608.95
9604.21
9624.22
9616.17
9642.11
9633.27
9659.22
9650.7
9675.64
9667.4
9692.57
9683.98
9710.54
9701.43
9729.69
9719.96
9750.56
9739.98
9771.28
9761.25
9785.91
9779.77
9792.95
9789.98
9796.8
9795.1
9798.6
9798.06
9796.65
9798.18
9790.06
9793.95
9778.89
9785.02
9763.75
9771.76
9745.66
9755
9725.65
9735.85
9703.97
9715.02
9681.74
9692.73
9665.12
9672
9662.81
9662.25
9676.07
9667.82
9701.75
9687.48
9740.71
9719.28
9797.25
9766.54
9874.55
9833.14
9974.89
9921.71
10099.2
10034
10247.9
10170.5
10420.8
10331.4
10616.6
10516.1
10822.4
10719
11034
10927.6
11264.6
11147.8
11500.4
11383.3
11735.3
11617.9
11854.1
8351.45
8807.7
7447.35
7893.9
6625.66
7021.99
5939.7
6263.81
5408.94
5654.75
5029.88
5201.2
4788.84
4893.06
4671.95
4715.55
4671.6
4657.34
4787.65
4714.83
5027.3
4891.25
5404.5
5197.73
5933.3
5649.31
6617.74
6256.55
7438.92
7013.67
8343.89
7885.74
8801.01
12000.1
12139.7
11736.6
11866.3
11491.2
11613.2
11258.5
11374.6
11031.5
11144.1
10810.8
10919.1
10591
10698.6
10392.8
10488.1
10222
10304.8
10074.4
10145
9951.36
10009.5
9853.03
9899.32
9777.2
9812.39
9722.21
9747.19
9685.97
9701.9
9665.97
9674.1
9659.52
9661.24
9663.77
9660.49
9675.88
9669
9693.2
9684.05
9713.21
9703.01
9733.71
9723.52
9752.85
9743.55
9769.2
9761.45
9781.7
9775.98
9789.73
9786.3
9793.03
9791.97
9791.68
9792.92
9786.05
9789.37
9776.73
9781.81
9764.47
9770.92
9750.08
9757.48
9734.4
9742.35
9718.26
9726.34
9702.35
9710.23
9687.31
9694.69
9673.6
9680.26
9661.6
9667.37
9651.53
9656.31
9643.53
9647.27
9637.62
9640.31
9633.78
9635.44
9631.94
9632.62
9631.97
9631.72
9633.76
9632.66
9637.15
9635.26
9642.01
9639.41
9648.14
9644.92
9651.63
12631.7
7921.29
7654.35
7414.28
10024.5
10021.6
9259.78
9663.56
12327.9
8155.16
7618.96
11932.8
8442.79
7629.04
8786.43
7682.12
9185.15
7776.66
11480.4
9628.4
7911.97
10997.3
10096.1
8088.82
10505.7
10590
8308.4
11098.5
8573.05
11586.9
8884.4
10031.4
9234.1
12022.9
12368.2
9608.42
12585.2
12643.9
12594
12017.1
12139.6
30538.8
25886.4
12521.5
12691.9
12894.1
12873.6
12677.5
7762.7
10029.7
10027.2
10034.2
10032.1
10037.9
10036.2
10040.4
10039.3
10041.9
10041.4
10041.7
10042
10039.4
10040.6
10037.9
10037.7
10042.7
10039.1
10052.7
10047.5
10062.4
10057.9
10069.4
10066.4
10073.2
10071.6
10075.3
10074.5
10075.8
10075.7
10074.6
10075.4
10071.6
10073.3
10065.5
10069.2
10051.5
10059.8
10028.4
10040.9
9999.24
10014.4
9964.69
9982.68
9923.47
9944.96
9875.02
9900.15
9819.59
9848.14
9758.01
9789.5
9691.5
9725.29
9621.14
9656.74
9547.08
9584.57
9471.12
9509.06
9400.68
9434.27
9346.48
9371.41
9308.12
9325.45
9282.82
9293.99
9271.99