/*--------------------------------*- C++ -*----------------------------------*\
| =========                 |                                                 |
| \\      /  F ield         | OpenFOAM: The Open Source CFD Toolbox           |
|  \\    /   O peration     | Version:  2212                                  |
|   \\  /    A nd           | Website:  www.openfoam.com                      |
|    \\/     M anipulation  |                                                 |
\*---------------------------------------------------------------------------*/
FoamFile
{
    version     2.0;
    format      ascii;
    arch        "LSB;label=32;scalar=64";
    class       volScalarField;
    location    "0.0028";
    object      epsilon;
}
// * * * * * * * * * * * * * * * * * * * * * * * * * * * * * * * * * * * * * //

dimensions      [0 2 -3 0 0 0 0];

internalField   nonuniform List<scalar> 
31661
(
350310
91033.5
90846.6
90942.9
91492.8
91297.6
91399.4
91940.8
91739.5
91845.6
1.40637e+06
94215.7
1.74504e+07
97051.8
266454
225274
278921
262630
94502.4
209634
95076.3
95052.9
137473
196375
93676
95111.7
163957
127616
94209.8
94155.6
180464
96543.1
96223.7
94826.8
93922.9
151650
95144
145783
102829
96133.1
95449.6
89761.6
113490
95253.3
95327.2
94318.5
95292.2
95702
95169.7
94948.3
95220.2
96908.7
94422.1
95666
99488.8
94326.2
94524.9
94605.3
78127.6
94435.2
94317
94333.1
95232.3
87613.6
95907
232626
2.2124e+06
78334.4
78557.3
78764.9
94176
79129.2
79350.1
79583.7
79823.7
80066.8
80314.3
80566.1
80821.1
81079.8
81340.9
81603
81865.2
82128.3
82148.7
81886.7
81624.2
81361.2
81100.3
80842.9
80589.8
80342.2
80100.1
79865
79639.5
79425.8
79217.6
79000.8
78762
78547.3
78353.1
78173.1
77984.9
77811.1
77781.4
77637
77598.1
77459.3
77424
77287.8
77258.5
77125.4
77101.5
76972.9
76953.7
76830.3
76815.3
76697.4
76686
76574
76565.6
76459.4
76453.5
76353
76349.1
76253.8
76251.6
76161
76160
76073.6
76073.3
75990.3
75990.4
75910.1
75910.3
75831.9
75832
75754.5
75754.7
75677.1
75677.2
75598.9
75598.8
75519.3
75519
75437.8
75437.3
75353.9
75353.1
75267.4
75266.4
75178.1
75176.8
75085.9
75084.5
74990.9
74989.4
74893.2
74891.6
74792.8
74791.3
74690.1
74688.5
74585
74583.4
74478
74476.4
74369
74367.5
74256.9
74258.4
74258.6
74369.1
74478
74585
74689.9
74792.7
74892.9
74990.6
75085.6
75177.7
75266.9
75353.4
75437.2
75518.6
75598
75676
75753.3
75830.7
75909.2
75989.8
76073.5
76161.8
76255.8
76356.4
76464.8
76581.9
76708.3
76844.7
76991.2
77148.2
77315.3
77491.7
77676.8
77871.6
78086.4
78317.6
78560.2
78787.1
79036.8
79283.4
79531.5
79782.3
80034
80286.7
80541.6
80799
82411.2
82392.8
81058.4
81318.9
81580.1
81843
82108.3
82658.8
82675.4
82694.5
82430.1
82166.3
81903.2
81641.5
81380.7
81122.2
80867
80615.6
80370
80129.5
79895
79668.2
79448.5
79229.1
79006.5
78780.1
78561
78356.8
78163
77971.2
77776.3
77587.7
77409.2
77242.1
77086.3
76940.8
76804.7
76677.3
76558.5
76447.9
76344.6
76247.8
76157
76070.7
75988.2
75908.3
75830
75752.6
75675
75596.6
75516.6
75434.7
75350.5
75263.6
75174
75081.6
74986.4
74888.7
74788.4
74685.7
74580.8
74473.9
74365.1
74254.8
74143.2
74145.1
74146.3
74146.6
74145.8
74257.7
74368
74476.7
74583.6
74688.4
74791
74891.1
74988.7
75083.6
75175.6
75264.7
75351.1
75435
75516.5
75596
75674.2
75751.6
75829.2
75908
75989
76073.6
76162.7
76257.7
76359.5
76469.3
76588.1
76716.5
76855
77004
77163.2
77332.1
77509.6
77694.8
77889.2
78100.9
78314.5
78532
78753.4
79000.3
79246.6
79497.2
79751
80006.2
80261.8
80519.8
80778.1
81037.2
81297.1
82375.4
81559.3
81823.8
82090.4
82960
82941.4
82644.6
82926.5
83227.2
83246.7
82979.2
82712.7
82447
82182.5
81919.1
81657.9
81398.7
81141.9
80888.5
80638.6
80392.3
80150.5
79914.2
79683.1
79454.5
79227.8
79004.9
78784.7
78568.1
78357.9
78155.5
77960.2
77769.7
77584.9
77408
77240.5
77082.9
76935.4
76798.4
76671.2
76552.7
76442.3
76339.2
76242.9
76152.4
76066.4
75984
75904.2
75826
75748.5
75670.9
75592.4
75512.3
75430.2
75345.9
75259
75169.4
75076.9
74981.8
74884.1
74784
74681.4
74576.8
74470.2
74361.8
74251.8
74140.5
74028.1
74030.5
74032.2
74033.2
74033.5
74032.8
74031.1
74143.8
74255.3
74365.3
74473.7
74580.3
74684.9
74787.2
74887.2
74984.6
75079.4
75171.4
75260.7
75347.2
75431.2
75512.9
75592.8
75671.4
75749.3
75827.4
75906.8
75988.4
76073.5
76163.4
76259.1
76361.8
76472.5
76592.1
76721.2
76860.3
77009.5
77168.4
77336.4
77512.9
77697.8
77892.6
78096.6
78303.8
78515.7
78738.8
78977.9
79223.6
79472.9
79725.6
79981.3
80239.6
80497.6
80755.9
81014.9
81275.9
81539.7
82359.5
81805.5
82073.7
83209.6
83515.3
83496.1
82630.8
82914.8
83196.3
83785.4
83805.2
83534.7
83265
82996.1
82728.2
82461.3
82196
81932.3
81670.5
81411.1
81154.4
80901.3
80651.2
80404.3
80161.6
79922.7
79686.9
79454
79225.2
79001.6
78781.8
78566.2
78355.5
78150.8
77953.6
77764
77581.6
77407.1
77240.6
77083.1
76935.2
76796.9
76668.1
76548.5
76437.5
76334.2
76237.6
76146.8
76060.8
75978.5
75898.8
75820.6
75743
75665.2
75586.6
75506.3
75424.1
75339.6
75252.6
75163
75070.6
74975.6
74878.1
74778.1
74675.9
74571.6
74465.3
74357.3
74247.8
74136.9
74025.1
73912.4
73915
73917
73918.3
73919.1
73919.4
73918.9
73917.4
73915.2
74028.5
74140.8
74251.8
74361.4
74469.4
74575.6
74679.8
74781.9
74881.6
74978.9
75073.7
75165.7
75255.1
75341.8
75426.1
75508.2
75588.5
75667.7
75746.3
75825.1
75905.1
75987.4
76073.2
76163.7
76259.9
76362.9
76473.7
76593.2
76722
76860.2
77007.6
77164.2
77330
77504.8
77689
77882.3
78083.7
78292.4
78510.2
78735.9
78968.4
79208.3
79454.3
79704.5
79958.8
80215.9
80473.9
80732.6
80993.7
81257.1
81522.2
81787.8
82344.4
82056.4
83479.9
83767.2
82616.8
84076.6
84057.1
82904.1
83186.2
83468
84349.1
84369.2
84096.5
83824
83552
83280.7
83010.1
82740.5
82472.2
82205.5
81941.2
81679.2
81419.8
81163.3
80909.6
80658.9
80411.4
80167.4
79926.3
79687.9
79453
79223
78998.5
78779
78564.4
78354.4
78150.5
77953.4
77763.4
77581.9
77408.2
77242.5
77085.3
76937.2
76798.5
76669.2
76549
76437.3
76333
76235.4
76143.6
76056.8
75973.8
75893.5
75814.9
75736.9
75658.6
75579.5
75499
75416.5
75331.8
75244.6
75155
75062.7
74967.9
74870.5
74770.9
74669
74565.1
74459.3
74351.8
74242.8
74132.5
74021.3
73909.1
73796.2
73799
73801.2
73802.8
73803.8
73804.3
73804.6
73804.1
73802.9
73801
73912.1
74024.9
74136.6
74247.1
74356.2
74463.7
74569.5
74673.3
74775
74874.6
74971.7
75066.3
75158.4
75247.9
75335
75419.6
75502.2
75583.2
75663
75742.3
75822
75902.8
75985.9
76072.3
76163.2
76259.8
76362.9
76473.4
76592.2
76719.6
76855.9
77001.4
77156.2
77320.5
77494.1
77677.2
77869.3
78069.8
78279.6
78499.6
78726.8
78959.4
79196
79437.4
79685.3
79938.1
80193.4
80450.7
80710.4
80973.5
81238.7
81504.1
81771.2
82328.3
82041.2
73798.4
82313.1
83752.7
82602.5
84040.3
82891.7
84330.7
83178.4
84642.4
84622.8
83459.7
83742.3
84916
84936.8
84663
84388.8
84114.4
83840.2
83566.3
83293.1
83020.9
82750
82480.6
82213.2
81948.3
81685.7
81425.7
81168.5
80914.4
80663.1
80415.2
80170.2
79928
79688.9
79453.2
79222.2
78996.9
78777.5
78563.7
78354.9
78151.8
77955.2
77766.1
77585.2
77412.4
77247.6
77091
76943.1
76804
76673.9
76552.6
76439.6
76334.2
76235.7
76142.7
76054.5
75970.2
75888.8
75809.1
75730.2
75651.3
75571.6
75490.5
75407.6
75322.6
75235.2
75145.5
75053.2
74958.5
74861.5
74762.1
74660.6
74557.2
74451.9
74345
74236.7
74127.2
74016.5
73905
73792.6
73679.6
73682.7
73685.1
73686.8
73688.1
73688.8
73689.2
73689.2
73688.8
73687.8
73686.2
73684
73795
73908.1
74020.3
74131.3
74241.2
74349.7
74456.6
74561.9
74665.3
74766.6
74865.9
74962.8
75057.4
75149.6
75239.3
75326.7
75411.8
75495
75576.7
75657.3
75737.5
75817.9
75899.6
75983.5
76070.6
76162
76258.8
76361.9
76472
76589.8
76716.1
76851
76995.2
77148.6
77311.2
77483.3
77665.5
77857.7
78059.9
78271.8
78491.2
78716.7
78947.2
79183.4
79424.7
79670.4
79919.4
80171.5
80427.7
80688.7
80953.1
81217.9
81484.4
81754.6
82026.3
82299.3
73681.2
82575.4
82587.6
84027.7
82878.8
84315.5
83169.6
84605.8
83454
84897.5
83735.5
85210.2
85190
84018.9
73566
73568.7
73570.6
73572
73573
73573.5
73573.7
73573.5
73573
73572.2
73570.9
73569.1
73566.7
73677.6
73790.7
73903.1
74014.5
74124.8
74234
74341.8
74448.1
74552.8
74655.7
74756.7
74855.6
74952.4
75046.9
75139.2
75229.2
75317
75402.7
75486.6
75569
75650.4
75731.5
75812.9
75895.5
75980.2
76068.1
76160
76257
76360.2
76470.1
76587.3
76712.8
76846.8
76989.9
77142.5
77305.2
77478.7
77662.1
77854.5
78055.8
78265
78482.2
78705.3
78933.5
79166.9
79406.4
79650.5
79899
80151.9
80409.3
80670.2
80931.7
81196.2
81464.6
81734.8
82008.2
82284.7
82564.1
82854.6
82845
73563.8
85483.4
85504.9
85231.6
84957.1
84681.7
84405.7
84129.4
83853.2
83577.5
83302.7
83029.1
82757.1
82487.1
82219.2
81953.6
81690.5
81430.1
81172.5
80917.8
80666
80417.5
80172.1
79929.7
79690.5
79455
79224.1
78998.6
78779.1
78565.2
78357.1
78154.6
77958.8
77770.2
77589.8
77417.5
77253.4
77097.4
76949.8
76810.7
76680.1
76557.9
76443.7
76336.9
76236.9
76142.6
76053
75967.2
75884.3
75803.3
75723.2
75643.3
75562.7
75480.9
75397.5
75312
75224.4
75134.5
75042.3
74947.7
74850.9
74751.9
74650.9
74548
74443.3
74337.1
74229.5
74120.7
74010.7
73899.9
73788.2
73675.7
73562.7
82865.4
84304.8
83127.9
83135.4
83158.7
84592.7
83448.5
84882.5
83731.4
85173.6
84013.5
85464.8
84297.6
85777.4
85756.9
73560.2
73673.2
73785.5
73897
74007.6
74117.2
74225.5
74332.6
74438.3
74542.4
74644.7
74745.3
74843.9
74940.5
75035
75127.4
75217.6
75305.8
75392.2
75476.8
75560.1
75642.4
75724.5
75806.9
75890.5
75976.1
76064.7
76157.2
76254.7
76357.9
76467.9
76585.1
76710.6
76844.6
76988
77140.7
77303.2
77475
77656.2
77846.4
78046.2
78256
78473.7
78695.6
78922.3
79154.2
79391.3
79634.2
79881.6
80133.7
80390.1
80648.4
80909.5
81175.4
81443.8
81716.7
81991.5
82268.6
82549.6
82832.2
83116.1
85799.9
85526.3
85251.2
84974.8
84697.4
84419.4
84141.3
83863.4
83586.2
83310.1
83035.5
82762.7
82492
82223.6
81957.7
81694.4
81433.8
81176
80921
80669.2
80420.4
80174.6
79932
79692.9
79457.8
79227.2
79001.9
78782.3
78568.4
78360.4
78158.6
77963.3
77775.3
77595.1
77423
77259.1
77103.3
76955.8
76816.6
76685.5
76562.6
76447.5
76339.5
76238.1
76142.5
76051.4
75964.2
75879.8
75797.3
75715.9
75634.7
75553.1
75470.4
75386.3
75300.3
75212.3
75122.3
75030
74935.5
74838.9
74740.3
74639.8
74537.4
74433.5
74328
74221.1
74113
74003.8
73893.7
73782.7
73671
73558.6
73445.6
73449.2
73452
73454.1
73455.7
73456.9
73457.7
73457.9
73458
73457.6
73457.1
73456.3
73455.3
73453.8
73451.9
73449.6
86072.3
73446.8
83412.5
83402.7
86049.9
83145.4
84583.7
73332.9
73335.1
73336.9
73338.4
73339.5
73340.4
73341.1
73341.6
73342
73342.3
73342
73341.5
73340.5
73339.3
73337.5
73335.1
73332.2
83416.6
83440.4
84871.4
86344.5
86368.4
86095.2
85820.9
85545
85267.6
84989.1
84709.8
84430
84150.3
83871.1
83592.9
83316
83040.7
82767.5
82496.5
82227.8
81961.7
81698.3
81437.5
81179.5
80924.6
80672.6
80423.6
80177.7
79935.2
79696.3
79461.5
79231.3
79006.3
78786.7
78573
78365.2
78163.6
77968.7
77781
77600.9
77428.8
77264.8
77108.9
76961.2
76821.7
76690.3
76566.7
76450.7
76341.7
76239.1
76142.1
76049.6
75960.9
75875
75791.1
75708.2
75625.7
75542.8
75459.1
75374.1
75287.5
75199.1
75108.7
75016.3
74921.9
74825.6
74727.3
74627.3
74525.5
74422.3
74317.5
74211.5
74104.2
73995.8
73886.5
73776.2
73665.2
73553.5
73441.3
73328.5
83688.7
83696.4
83728.3
85160.7
84010.5
85450.5
84293.4
85740.5
84578
86031.5
86323.8
86641.5
86618.5
87542.8
87221.9
73329.9
73443.1
73555.7
73667.8
73779.3
73889.9
73999.6
74108.4
74215.9
74322.1
74427
74530.5
74632.3
74732.4
74830.7
74927.1
75021.6
75114.1
75204.7
75293.4
75380.4
75465.8
75550
75633.5
75716.6
75800.1
75884.8
75971.3
76060.7
76154
76251.9
76355.4
76465.5
76583.4
76709.3
76843.8
76987.5
77140.6
77302.6
77473.5
77652.7
77840.7
78038
78243.7
78456.2
78676.2
78903.7
79137.9
79377.2
79620.4
79867.3
80118.3
80372.2
80630
80891.9
81159.6
81430.4
81701.2
81974.7
82253.2
82535.2
82817.5
83101.5
83388.4
83677
73218.7
83975.6
83967.8
95941.8
73216.3
83426.9
84864.1
73220.5
73221.9
73222.9
73223.9
73224.6
73225.1
73225.5
73225.9
73226.4
73226.3
73225.9
73225.1
73224.1
73222.7
73220.9
73218.5
73215.4
83701.5
83723.1
85151.2
87255.5
86666.7
86391.4
86115.3
85838.2
85559.8
85280.4
85000
84719.1
84438
84157.3
83877.3
83598.5
83321.1
83045.5
82772
82500.8
82232
81965.8
81702.2
81441.4
81183.4
80928.4
80676.3
80427.3
80181.6
79939.3
79700.8
79466.4
79236.5
79011.7
78792.3
78578.6
78370.9
78169.6
77974.9
77787.3
77607.2
77434.9
77270.7
77114.5
76966.5
76826.6
76694.6
76570.4
76453.5
76343.5
76239.7
76141.3
76047.5
75957.3
75869.9
75784.4
75700.1
75616.1
75532
75447.1
75361.1
75273.8
75184.8
75094
75001.5
74907.1
74810.9
74713
74613.5
74512.4
74409.8
74305.8
74200.5
74094.1
73986.6
73878.1
73768.7
73658.5
73547.6
73436.1
73324
73211.5
83982.9
84009.2
85439.6
84258.1
84265.6
84291.3
85728.3
84574.8
86017.7
84859.6
86308.1
86600.7
86896.8
87508.6
73104.4
73102.5
87978.4
88318.8
73213.3
73326.1
73438.3
73550.1
73661.3
73771.8
73881.6
73990.4
74098.2
74204.9
74310.4
74414.5
74517.2
74618.5
74718.1
74816.1
74912.4
75006.9
75099.6
75190.6
75279.9
75367.6
75453.9
75539.1
75623.6
75707.9
75792.7
75878.5
75966.1
76056.6
76150.7
76249.2
76353.4
76464.1
76582.1
76708.1
76842.8
76986.5
77139.3
77301.7
77472.7
77652.5
77841.3
78038.2
78240.6
78449.4
78665.6
78889.2
79120.5
79357.6
79599.2
79845.3
80095.6
80350.2
80609.8
80874.5
81142.3
81411.5
81683
81960.6
82241.3
82520.7
82802.8
83088.8
83377.3
83666.8
83957.5
84248.9
88379.7
87830.9
84548.2
84541.7
95192.1
83710.7
85145.6
73105.8
73106.8
73107.7
73108.4
73108.8
73109.2
73109.5
73109.8
73110.4
73110.4
73110.2
73109.7
73108.8
73107.8
73106.3
73104.4
73101.9
73098.6
83987.9
84005.7
85432.2
92910.7
86972.6
86691.4
86411.1
86131.3
85851.3
85570.8
85289.7
85008
84726.1
84444.3
84163
83882.6
83603.5
83325.9
83050.2
82776.5
82505.2
82236.3
81970.1
81706.5
81445.6
81187.6
80932.6
80680.6
80431.7
80186.1
79944.1
79706
79472
79242.5
79017.9
78798.7
78585.1
78377.6
78176.3
77981.7
77794.2
77614
77441.5
77276.9
77120.3
76971.8
76831.3
76698.7
76573.7
76456
76344.9
76239.9
76140.2
76044.9
75953.2
75864.3
75777.3
75691.4
75606
75520.5
75434.4
75347.4
75259.2
75169.5
75078.4
74985.6
74891.1
74795.1
74697.5
74598.4
74497.9
74396
74292.7
74188.3
74082.7
73976.1
73868.5
73760
73650.7
73540.6
73429.9
73318.6
73206.8
73094.6
84272.2
84290.8
85719.7
84555.6
84573.4
86007.9
84833.9
84839.1
84857.3
86297.1
85142.2
86588.2
86882.5
87182
72990.1
72988.6
87488.8
87806
95590.1
88128
73100
73096.7
73209.1
73321
73432.5
73543.4
73653.7
73763.3
73872.1
73980
74086.9
74192.6
74297.2
74400.6
74502.6
74603.3
74702.5
74800.2
74896.4
74990.9
75083.9
75175.3
75265.2
75353.7
75441
75527.3
75613.1
75698.7
75784.7
75871.9
75960.9
76052.5
76147.7
76247.3
76352.4
76463.7
76581.9
76708.3
76842.9
76985.8
77137.7
77299
77469.9
77650.8
77839.5
78034.2
78235.9
78445.1
78660
78882.6
79111.5
79344.6
79583.9
79828.8
80079.1
80333.7
80593.6
80857.1
81123
81393.8
81668.8
81945.4
82224.6
82505.8
82790.5
83077.7
83367.5
83657.2
83947.9
84241.1
84535.5
84828.2
121532
85124.8
85119.8
95094.8
94367.6
83995.8
85427.9
72991.1
72991.8
72992.4
72992.8
72993.1
72993.4
72993.6
72993.8
72994.3
72994.6
72994.5
72994.1
72993.5
72992.8
72991.7
72990.1
72988.1
72985.4
72982
84275.5
84288.9
85714.2
94379.5
92739.8
87308.6
87008.9
86714.8
86427.1
86143.1
85860.7
85578.7
85296.5
85014.2
84731.8
84449.6
84168.1
83887.6
83608.3
83330.7
83054.9
82781.2
82509.8
82240.9
81974.6
81710.9
81450.1
81192.1
80937.2
80685.3
80436.6
80191.3
79949.6
79711.8
79478.2
79249.1
79024.8
78805.8
78592.4
78384.9
78183.8
77989.2
77801.6
77621.2
77448.5
77283.5
77126.4
76977.4
76836.2
76702.9
76577
76458.3
76346.1
76239.8
76138.7
76041.9
75948.8
75858.3
75769.6
75682.2
75595.3
75508.4
75421.1
75333
75243.8
75153.5
75061.8
74968.7
74874.1
74778.2
74680.9
74582.2
74482.2
74380.9
74278.4
74174.8
74070.1
73964.4
73857.7
73750.2
73641.7
73532.6
73422.7
73312.2
73201.2
73089.7
72977.7
84561.5
84573.2
86001.3
84844.9
84856.4
86289.7
85130.4
85140.5
86579.8
85411.3
85415.1
85425.4
86873.1
87171.3
72875.8
72874.7
87476.7
87792.2
88118.6
88439.3
72986.5
72983.8
73092.2
73203.8
73315
73425.7
73535.7
73645
73753.6
73861.4
73968.3
74074.2
74179
74282.7
74385.3
74486.7
74586.8
74685.6
74783.1
74879.2
74973.9
75067.2
75159.1
75249.7
75339
75427.4
75514.9
75601.9
75688.9
75776.4
75865.1
75955.5
76048.6
76145.3
76246.2
76352.3
76464.4
76583.8
76710.7
76845
76987.6
77139.1
77299.7
77469.2
77647
77832.7
78028.2
78232.1
78440.3
78657
78880
79106.4
79337.6
79574.2
79816.5
80064.4
80318.1
80577.1
80840.6
81107
81378.8
81654.6
81932
82210.7
82492.5
82777.5
83064.8
83355.1
83646
83938.3
84233.3
84526.7
84821.2
85115.3
85407.4
88687.8
85701.7
85698.4
88733.1
72980.1
84281.5
85710.9
72876.4
72876.8
72877.2
72877.4
72877.6
72877.8
72877.8
72877.7
72878.3
72878.8
72878.9
72878.7
72878.3
72877.7
72876.9
72875.7
72874.1
72871.9
72869
72865.5
84565
84572.7
85997.3
88302.1
87969.4
87648.6
87333.8
87026.2
86727.6
86437.3
86151.3
85867.5
85584.7
85302
85019.3
84736.8
84454.6
84173
83892.5
83613.2
83335.5
83059.8
82786.1
82514.7
82245.7
81979.4
81715.7
81454.9
81197
80942.1
80690.4
80441.9
80196.9
79955.6
79718.2
79484.9
79256.2
79032.3
78813.5
78600.3
78393
78191.8
77997.2
77809.5
77629
77455.9
77290.5
77132.9
76983.2
76841.4
76707.2
76580.4
76460.5
76347.1
76239.5
76137
76038.7
75943.9
75851.8
75761.6
75672.6
75584.2
75495.9
75407.2
75318
75227.9
75136.7
75044.4
74950.9
74856.2
74760.3
74663.1
74564.8
74465.3
74364.6
74262.9
74160.1
74056.3
73951.5
73845.7
73739.1
73631.6
73523.4
73414.4
73304.8
73194.6
73083.9
72972.7
72861
84850.4
84856.3
86284.9
85134.2
85139.9
86574.4
88658
85420.1
85424.1
86867.1
85704.6
85709.1
87164.8
72761.6
72760.9
85988.8
85991.9
87469.6
87784.3
88112.7
88448.8
88777.1
72872.9
72870.7
72867.6
72975.3
73086.7
73197.6
73307.9
73417.6
73526.7
73635.1
73742.6
73849.4
73955.2
74060.1
74164.1
74267
74368.9
74469.6
74569.2
74667.6
74764.9
74861
74955.8
75049.5
75142
75233.3
75323.6
75413
75501.8
75590.3
75678.8
75767.8
75858.1
75950.3
76045.1
76143.4
76245.8
76353.5
76467.2
76587.6
76715.2
76850.5
76993.5
77144.8
77304.4
77472.4
77648.9
77833
78025.9
78226.4
78436.8
78653.3
78872.9
79096.3
79326.6
79564.8
79808.1
80055.3
80305.8
80561
80822.6
81090
81362.3
81638.7
81916.2
82196
82480.3
82767.4
83056
83345.9
83637.8
83931.7
84224.7
84519
84814.9
85109
85402
85693.7
85984.5
86278.6
89114.8
86275.2
89074
72863.5
84569.1
85994.9
72761.9
72761.8
72761.9
72762
72762
72762.2
72762.1
72762
72762.4
72763
72763.4
72763.4
72763.2
72762.7
72762.1
72761.3
72760
72758.3
72755.9
72752.9
72749.1
84853.8
84856.5
86282
88280.4
87946
87628.1
87320.1
87023.6
86730.5
86442.1
86156.5
85872.6
85589.5
85306.7
85024
84741.5
84459.4
84177.9
83897.4
83618.2
83340.6
83064.8
82791.1
82519.7
82250.8
81984.4
81720.8
81460
81202.2
80947.5
80696
80447.8
80203.1
79962.1
79725
79492.2
79263.8
79040.2
78821.7
78608.7
78401.5
78200.4
78005.8
77817.9
77637.2
77463.8
77297.9
77139.8
76989.4
76846.8
76711.7
76583.8
76462.8
76348.2
76239.2
76135.1
76035.3
75938.9
75845.1
75753.2
75662.6
75572.7
75482.9
75392.9
75302.5
75211.3
75119.3
75026.3
74932.4
74837.4
74741.4
74644.4
74546.4
74447.3
74347.2
74246.2
74144.2
74041.2
73937.3
73832.5
73726.8
73620.3
73513
73405
73296.3
73187
73077.1
72966.6
72855.7
72744.4
85138
85140
86571.2
88632.7
89038.5
85423.2
85423.9
86863.6
85708.2
85708.3
87161
72647.7
72647.2
85994
85993.6
86280.8
87465.8
87780.5
86565.9
86568.1
88108.4
88452.1
88801.2
89153.2
72759.4
72757.4
72754.8
72751.4
72858.4
72969.5
73080.1
73190.1
73299.5
73408.3
73516.4
73623.8
73730.4
73836.1
73941
74044.9
74148
74250.1
74351.2
74451.4
74550.5
74648.6
74745.8
74841.9
74937
75031.1
75124.2
75216.3
75307.6
75398.2
75488.3
75578.2
75668.3
75759.1
75851.1
75945.1
76041.7
76141.6
76245.9
76355.4
76470.5
76592.2
76721.2
76857.5
77001.3
77153
77312.1
77479
77653.9
77837.1
78027.6
78225.2
78430.6
78641.8
78861
79090
79324.5
79563.2
79807.4
80055.6
80306.8
80561.9
80820
81082.3
81350.2
81622
81899.4
82181.8
82467.6
82756
83046.4
83337.9
83630
83922.4
84217.5
84515.2
84808.4
85102.8
85395.6
85688.4
85979.8
86271.2
86563.7
86857.5
89482.7
86856.9
89523.8
72747
84855.6
86280.3
72647.6
72647
72647
72646.6
72646.7
72646.8
72646.7
72646.5
72646.7
72647.2
72648
72648.2
72648.1
72647.8
72647.5
72646.9
72645.9
72644.5
72642.6
72640.1
72636.8
72632.7
85140.6
85140.5
86569.2
88609.7
88261.5
87931.6
87617.5
87314
87019.9
86731
86444.3
86159.5
85876.2
85593.5
85310.9
85028.4
84746.1
84464.1
84182.8
83902.4
83623.3
83345.8
83070
82796.4
82525
82256
81989.7
81726.2
81465.5
81207.8
80953.2
80701.9
80454
80209.6
79969
79732.3
79499.9
79271.9
79048.6
78830.4
78617.6
78410.6
78209.5
78014.8
77826.9
77645.9
77472.1
77305.8
77147.1
76996
76852.5
76716.4
76587.5
76465.3
76349.3
76238.8
76133.3
76031.8
75933.7
75838.2
75744.7
75652.4
75560.8
75469.6
75378.2
75286.5
75194.3
75101.4
75007.7
74913.3
74818
74721.8
74624.8
74527
74428.3
74328.8
74228.3
74127.1
74024.9
73921.9
73818
73713.3
73607.8
73501.5
73394.4
73286.6
73178.2
73069.1
72959.5
72849.4
72738.8
72627.8
89442.7
85424.9
85424
86861.6
89007.1
88978.8
85710.2
85708.1
87159
72533.8
72533.5
85995.5
85993.1
86279.4
86281.8
87464
87778.9
86569.1
88106.8
86858.4
88454
87149.9
87151.2
88813
89181.3
89561.8
72646
72644.1
72641.9
72639
72635.2
72741.6
72852.3
72962.5
73072.3
73181.4
73289.9
73397.8
73504.9
73611.3
73716.9
73821.6
73925.5
74028.5
74130.7
74232.1
74332.5
74432.1
74530.9
74628.8
74725.9
74822.1
74917.5
75012.1
75105.9
75198.9
75291.3
75383.1
75474.6
75566
75657.7
75750.2
75844
75939.8
76038.2
76140
76246.2
76357.3
76474.1
76597.4
76727.5
76864.8
77009.6
77161.7
77321.4
77488.6
77663.6
77845.4
78033.9
78230.5
78434
78643.3
78860.1
79084
79314.3
79550.9
79792.3
80038.4
80290.5
80548.9
80811.7
81076.9
81345.6
81618.6
81896.1
82178.1
82463.6
82750.5
83039.1
83329.1
83621.7
83916.5
84212.9
84507
84803.3
85096.4
85390.4
85682.3
85974.3
86266.9
86559.9
86853.5
87147.5
87447.2
89959.3
89915.4
87446.1
72630.5
85141
86568.1
72533.4
72532.7
72532.4
72531.5
72531.6
72531.5
72531.4
72531.2
72531.3
72531.8
72532.7
72533.2
72533.3
72533.2
72533
72532.6
72531.8
72530.8
72529.2
72527.1
72524.3
72520.8
72516.5
89870.8
85425.9
85425
90369.6
90319.9
86860.4
89405.3
89370.9
89339.5
88953.2
88589.5
88246.5
87921.2
87610.4
87309.9
87017.2
86730
86445.1
86161.7
85879.1
85596.9
85314.7
85032.6
84750.6
84468.9
84187.8
83907.6
83628.6
83351.1
83075.4
82801.8
82530.4
82261.5
81995.3
81731.8
81471.2
81213.7
80959.3
80708.3
80460.7
80216.6
79976.4
79740.1
79508
79280.4
79057.5
78839.6
78627
78420.1
78219.1
78024.3
77836.2
77655
77480.8
77314
77154.7
77002.9
76858.5
76721.5
76591.4
76467.9
76350.5
76238.6
76131.4
76028.3
75928.5
75831.2
75735.9
75642
75548.8
75456
75363.3
75270.3
75176.9
75083.1
74988.7
74893.6
74797.9
74701.6
74604.6
74506.8
74408.4
74309.3
74209.5
74108.9
74007.5
73905.3
73802.3
73698.5
73594
73488.6
73382.5
73275.7
73168.2
73060.1
72951.3
72842
72732.2
72622
72511.3
85710.6
85708.4
87158
72419.7
72419.8
85996.1
85993
86279.2
86282.3
87463.2
87778.5
86569.8
86567.8
88107.8
86859.3
88453.2
87152.2
88820.9
87449.9
89200.6
87749.3
87751.7
89592.8
89999.5
72532.6
72531
72529
72526.5
72523.2
72519.1
72514.1
72624.8
72735.2
72845.1
72954.5
73063.3
73171.5
73279.1
73386
73492.1
73597.4
73702
73805.8
73908.8
74011
74112.4
74213
74312.9
74412
74510.5
74608.2
74705.3
74801.8
74897.5
74992.7
75087.2
75181.2
75274.6
75367.7
75460.7
75553.7
75647.1
75741.4
75837
75934.6
76034.8
76138.5
76246.4
76359.2
76477.7
76602.3
76733.6
76872.1
77017.8
77170.8
77331.2
77499.2
77674.3
77856.1
78045.1
78240.4
78442
78650.6
78866.4
79088.9
79318
79553.2
79793.3
80038.8
80288.9
80543
80802.9
81068.9
81340.7
81615.5
81891.9
82172.1
82456.5
82743.3
83032.5
83321.9
83614.8
83910.2
84203.5
84499.6
84793.6
85089.4
85382
85674.2
85967.4
86260.8
86554.7
86848.5
87146.8
87450.4
87754.2
88059
88057.6
88369.6
90417.3
90490.9
85425.4
88592.1
88958.7
90838.6
90783.8
89827.5
89786.6
89748.7
90270.5
90223.1
90178.6
90728.4
90674.7
90624
91133
91192.4
91076.9
91253.1
91526.6
91587.4
91651.7
86859.9
72419.6
72418.7
72417.9
72417
72416.8
72416.6
72416.3
72416.3
72416.2
72416.8
72417.6
72418.3
72418.6
72418.7
72418.7
72418.4
72417.8
72417
72415.7
72413.9
72411.6
72408.6
72404.8
72400.3
88094.2
87776.1
87455.2
87145.4
86843.1
86547.4
86253.8
85958
85663.6
85370.9
85076.8
84783.6
84487.9
84194.3
83899.5
83606.7
83313.7
83024.3
82737
82451.1
82167.6
81887.3
81609.9
81336
81067.4
80803.9
80546.4
80292.9
80043
79797.9
79558.7
79325.7
79098.4
78877.1
78662.4
78453.6
78251.6
78056.3
77867.4
77684.8
77509.3
77340.9
77179.6
77025.8
76879.2
76739.6
76607
76481
76361.1
76246.6
76137
76031.5
75929.4
75829.9
75732.5
75636.5
75541.4
75446.8
75352.4
75258
75163.3
75068.4
74973
74877.3
74781
74684.3
74587.1
74489.4
74391.2
74292.4
74193
74093
73992.3
73890.9
73788.8
73686
73582.4
73478
73372.9
73267
73160.4
73053.1
72945.2
72836.7
72727.7
72618.1
72508.1
85710.7
85709.4
87157.6
72419.1
72417.8
72416.1
72413.8
72411
72407.4
72403
72397.7
91471.7
91025.7
90577.3
90137.6
89713.7
89311
88930.5
88572
88233.8
87912.3
87604.5
87306.5
87015.6
86729.3
86445.9
86163.7
85881.8
85600.2
85318.5
85036.8
84755.1
84473.7
84192.8
83912.8
83633.9
83356.5
83080.9
82807.3
82536
82267.2
82001.1
81737.7
81477.3
81220
80965.8
80715.1
80467.8
80224.1
79984.2
79748.3
79516.6
79289.4
79066.8
78849.2
78636.8
78430
78229
78034.3
77846
77664.4
77489.9
77322.6
77162.7
77010.1
76864.8
76726.7
76595.5
76470.7
76351.8
76238.4
76129.6
76024.8
75923.2
75824.2
75727.2
75631.5
75536.7
75442.3
75348.2
75253.9
75159.4
75064.6
74969.3
74873.6
74777.4
74680.8
74583.7
74486
74387.8
74289
74189.7
74089.6
73988.9
73887.6
73785.4
73682.6
73578.9
73474.6
73369.4
73263.6
73157.1
73049.9
72942
72833.6
72724.6
72615.1
72505.2
72394.8
85996.2
85993.5
86279.2
86282.6
87463.1
87779.3
86570.2
86567.6
72305.9
72306.1
88109.5
86860
86859.6
88457.2
87153.3
88826.4
87451.5
89213.9
87755.4
89616.7
88066.2
90033.6
88383.2
90460.8
88689.2
90890.7
91312.9
91904.6
91963.5
91717.2
92259
92314
85710.4
93497.3
90577.6
92027.2
92094.6
87157.4
88879.9
88493.6
88128.3
87782.8
87453.7
87138.1
86833
86535.3
86242.4
85949.1
85652.6
85357.8
85065.1
84770.1
84476.8
84182
83888.7
83594.8
83303.4
83014.6
82729.3
82445.9
82163.8
81884.1
81607.6
81335.8
81069
80807.1
80550.4
80298.5
80050.1
79806
79566.8
79334.1
79108.3
78888.1
78673.5
78465.2
78262.9
78067.1
77877.9
77695.1
77518.9
77349.9
77188
77033.3
76885.8
76745.3
76611.5
76484.2
76362.8
76246.8
76135.5
76028.2
75924.3
75823
75723.7
75626
75529.2
75433
75337.1
75241.3
75145.5
75049.5
74953.3
74856.8
74760
74662.9
74565.5
74467.8
74369.7
74271.2
74172.2
74072.7
73972.7
73872
73770.7
73668.7
73566.1
73462.6
73358.5
73253.6
73148
73041.7
72934.8
72827.2
72719
72610.3
72501.1
72391.4
72305.9
72304.9
72303.8
72302.8
72302.4
72302
72301.7
72301.6
72301.7
72302.1
72302.9
72303.7
72304
72304.5
72304.5
72304.4
72303.9
72303.2
72302.2
72300.8
72298.8
72296.2
72293
72289
72284.1
85995.9
85994.3
92620.9
94147.4
86279.6
86282.4
87463.4
87780.5
91858.6
91425.7
90980.1
90535
90100
89682.2
89284.6
88909.8
88556.5
88222.4
87904.4
87599.2
87303.5
87014.3
86729.3
86446.8
86165.5
85884.6
85603.6
85322.4
85041.1
84759.8
84478.6
84197.9
83918
83639.2
83362
83086.5
82813
82541.8
82273.1
82007.1
81743.9
81483.7
81226.6
80972.7
80722.2
80475.3
80232
79992.5
79757
79525.7
79298.8
79076.5
78859.1
78647
78440.3
78239.4
78044.6
77856.1
77674.3
77499.4
77331.5
77170.9
77017.5
76871.3
76732.1
76599.7
76473.6
76353.3
76238.3
76127.8
76021.3
75918
75817.3
75718.5
75621.1
75524.6
75428.7
75333
75237.5
75141.8
75045.9
74949.8
74853.4
74756.7
74659.6
74562.3
74464.6
74366.5
74268
74169
74069.5
73969.4
73868.8
73767.4
73665.4
73562.7
73459.3
73355.1
73250.2
73144.7
73038.4
72931.5
72823.9
72715.8
72607.2
72498
72388.4
72278.4
86570.3
86567.6
72305.7
72304.6
72303.1
72301.1
72298.6
72295.5
72291.6
72286.9
72281.3
72192.3
72192.6
92697.4
93030.6
92377.1
88111.9
86860.4
86859.5
88461.4
87154.1
87157.3
88830.8
87453.1
89224
87759.2
89635.5
88073.9
90061.6
88396.7
90498.5
88723
90938
89033.7
91369.9
90047.7
91781.7
92163.7
85995.5
93061.1
93338.6
86280.2
86281.7
87781.5
72192.3
72191.2
72189.9
72188.9
72188.2
72187.8
72187.4
72187.4
72187.4
72187.8
72188.6
72189.1
72189.5
72190.4
72190.5
72190.5
72190.1
72189.6
72188.7
72187.6
72185.9
72183.7
72180.9
72177.4
72173.1
72168.1
95266.6
92237.9
91822.9
91383.9
90938.1
90495.7
90064.9
89652.2
89260.3
88890.5
88541.8
88211.6
87896.8
87594.2
87300.6
87013.1
86729.5
86448
86167.5
85887.4
85607
85326.4
85045.5
84764.4
84483.5
84203
83923.3
83644.7
83367.5
83092.2
82818.8
82547.8
82279.2
82013.4
81750.4
81490.4
81233.6
80980
80729.9
80483.2
80240.3
80001.2
79766.1
79535.2
79308.6
79086.6
78869.5
78657.6
78451
78250.1
78055.2
77866.6
77684.4
77509.1
77340.7
77179.4
77025.2
76878.1
76737.8
76604.1
76476.6
76354.9
76238.3
76126.2
76018
75912.9
75810.4
75709.8
75610.7
75512.6
75415.1
75318
75221.1
75124.2
75027.2
74930.2
74833
74735.7
74638.3
74540.6
74442.8
74344.7
74246.4
74147.7
74048.6
73949
73849
73748.4
73647.2
73545.3
73442.8
73339.5
73235.6
73131
73025.7
72919.7
72813.1
72705.9
72598.1
72489.8
72381
72271.7
72162
86570.1
86567.6
89621
89210.4
88817.3
88445.2
88096.9
87765.6
87439.6
87122.9
86816.8
86517.5
86223.7
85933.7
85640.4
85342
85046.1
84753.9
84461.1
84168.6
83875
83583.8
83293.7
83005.8
82719.9
82437.1
82157.2
81880.3
81606.6
81336.2
81070.7
80810.2
80554.6
80303.8
80056.7
79814
79576.6
79344
79117.7
78897.9
78683.9
78475.6
78273.4
78077.3
77887.7
77704.7
77528.3
77358.7
77196.1
77040.6
76892.2
76750.7
76615.8
76487.2
76364.4
76246.9
76133.9
76024.9
75919.2
75816.1
75715.1
75615.6
75517.1
75419.3
75322
75224.8
75127.8
75030.7
74933.5
74836.3
74738.9
74641.4
74543.7
74445.8
74347.7
74249.4
74150.7
74051.6
73952.1
73852.1
73751.6
73650.4
73548.6
73446.1
73342.9
73239
73134.4
73029
72923
72816.4
72709.1
72601.3
72493
72384.1
72274.7
72192.3
72191.4
72190.1
72188.4
72186.2
72183.4
72180.1
72175.9
72170.9
72165
93166.4
93274.7
93335.9
92754.3
93087.3
88114.2
86860.5
86859.4
88465
87154.8
87157.2
88836.6
87454.7
87463.7
87463.7
89232.3
87763.1
89650.6
88080.8
90084.5
88408.8
90530.6
88745.6
90979.9
89083.6
91421.6
94410.1
91842.4
531890
90394.3
92231.4
92441.4
92510.2
92580.7
72079
72079.2
93565.5
86281.3
87782.4
72078.7