/*--------------------------------*- C++ -*----------------------------------*\
| =========                 |                                                 |
| \\      /  F ield         | OpenFOAM: The Open Source CFD Toolbox           |
|  \\    /   O peration     | Version:  2212                                  |
|   \\  /    A nd           | Website:  www.openfoam.com                      |
|    \\/     M anipulation  |                                                 |
\*---------------------------------------------------------------------------*/
FoamFile
{
    version     2.0;
    format      ascii;
    arch        "LSB;label=32;scalar=64";
    class       volVectorField;
    location    "0.0442";
    object      U;
}
// * * * * * * * * * * * * * * * * * * * * * * * * * * * * * * * * * * * * * //

dimensions      [0 1 -1 0 0 0 0];

internalField   nonuniform List<vector> 
2308
(
(6.70356 -11.439 -7.44444e-16)
(1.09269 1.04447 0)
(2.34622 -21.6682 6.1715e-17)
(-13.0581 -14.58 -2.29564e-16)
(-4.48472 16.3096 0)
(-10.7303 14.8941 3.19067e-19)
(4.39824 18.0989 1.55424e-20)
(3.49545 11.9449 -3.32586e-16)
(-2.34093 13.9578 6.16899e-16)
(1.07861 84.6058 -6.78639e-17)
(0.204661 83.2578 1.21362e-16)
(-0.478404 78.4798 -1.82196e-16)
(-2.56779 74.4767 9.15356e-17)
(-3.38521 69.8053 -4.65166e-17)
(-4.18076 64.5421 8.06366e-18)
(-4.795 59.3683 6.79579e-17)
(-5.24203 54.28 9.5834e-18)
(-2.06888 51.0078 2.1404e-17)
(-1.04251 55.6092 2.85441e-17)
(-0.496642 60.6756 2.08689e-18)
(0.0772376 65.9118 1.55922e-17)
(0.492033 71.1824 -4.55016e-17)
(1.44536 76.2036 5.73154e-17)
(0.93386 80.7068 -2.63894e-17)
(2.84964 83.9775 -1.10938e-16)
(3.56168 85.6489 -5.14972e-17)
(3.54539 85.5932 2.56248e-17)
(3.86475 84.5879 -2.81047e-17)
(0.991019 23.9828 0)
(-5.50362 49.5384 -1.97598e-16)
(4.26851 81.606 1.4969e-18)
(4.34804 76.5204 3.79682e-19)
(3.74571 69.2422 -6.44711e-18)
(2.46822 59.8491 5.91581e-18)
(1.39541 50.2205 -6.27022e-18)
(0.677967 41.9945 5.78692e-18)
(0.252176 34.8566 -2.85594e-18)
(0.145817 28.26 2.81554e-18)
(0.413309 22.2753 -2.77004e-18)
(0.960816 17.0097 1.36048e-18)
(1.60411 12.6658 2.68534e-18)
(2.17064 9.15401 3.97076e-18)
(2.71773 7.02087 -7.83125e-18)
(3.31336 5.2958 5.15668e-18)
(3.90978 4.99132 2.52614e-18)
(5.52976 5.84898 -2.54689e-18)
(5.08646 5.89938 2.56925e-18)
(4.75991 7.46478 -3.92064e-18)
(4.67252 9.41707 -4.3131e-18)
(4.84508 12.8275 6.73361e-18)
(5.21957 17.16 -1.36737e-18)
(5.69771 22.4409 2.78173e-18)
(6.2105 28.3555 7.06646e-19)
(6.66541 34.7104 -4.29489e-18)
(6.83238 41.4069 -1.45212e-18)
(6.66612 48.9005 2.95942e-18)
(6.40386 57.6228 0)
(6.19778 66.5034 -3.79494e-19)
(5.72382 73.6013 -1.25401e-17)
(4.99038 78.3 -4.38541e-17)
(4.12569 81.1074 5.25481e-17)
(2.74088 82.049 5.4618e-17)
(-0.0264762 79.3995 6.37771e-17)
(-1.80856 77.6121 3.93347e-20)
(-4.2646 73.5871 7.3655e-17)
(-5.82457 70.685 -1.37232e-16)
(-6.17234 67.2578 -3.18686e-17)
(-7.47392 62.7618 0)
(-8.24059 58.0081 0)
(-8.84961 53.1858 0)
(-9.12873 48.6017 0)
(4.72266 3.4799 -1.25136e-18)
(6.2214 4.30089 1.25122e-18)
(2.34265 50.6675 -9.8276e-17)
(3.06611 55.9732 -1.96347e-18)
(3.78947 61.2168 7.60114e-18)
(4.30731 66.3909 0)
(4.69652 71.0452 -1.42398e-17)
(4.84028 75.4509 -1.36982e-17)
(5.35246 78.5627 6.8117e-18)
(5.15657 80.0563 2.69271e-17)
(4.27459 80.8858 0)
(3.81377 79.9267 1.14928e-20)
(3.20649 77.1364 4.79592e-20)
(2.2183 72.4013 -6.13674e-18)
(0.566659 65.452 9.10091e-18)
(-1.67083 56.1244 8.913e-20)
(-3.82629 46.2706 -5.11254e-18)
(-5.41194 37.8945 0)
(-6.07262 30.8895 -7.1495e-19)
(-5.78373 24.7942 4.22343e-18)
(-4.72511 19.5101 -5.54532e-18)
(-3.17862 14.961 -1.12566e-21)
(-1.60316 11.2655 5.38081e-18)
(-0.332735 8.20208 0)
(0.660111 6.21927 5.2188e-18)
(1.47285 4.53474 -5.96481e-21)
(2.18265 4.09247 -2.54021e-18)
(-1.84233 46.1 -8.57654e-17)
(3.03007 2.72122 -2.49315e-18)
(-5.24775 44.9114 8.74927e-17)
(-9.03936 44.3681 3.53681e-20)
(7.45807 5.11973 -2.50978e-18)
(6.94011 6.56652 3.1727e-18)
(6.66648 6.33201 0)
(6.59687 7.53042 -9.8718e-19)
(6.93547 8.99115 2.32992e-18)
(7.76564 11.8181 2.70417e-18)
(9.0195 15.5236 -2.75169e-18)
(10.4296 20.1338 0)
(11.6706 25.3061 -7.08111e-19)
(12.4416 30.856 1.44138e-18)
(12.4439 36.6687 -3.52684e-21)
(11.558 43.073 -1.48539e-18)
(10.1576 50.6123 0)
(8.66116 58.6336 2.26694e-18)
(7.13239 65.3063 -9.26075e-18)
(5.3255 69.6631 -6.24278e-18)
(3.37208 71.9652 2.57729e-17)
(1.10136 72.1751 9.66127e-17)
(-1.9141 68.2073 7.41087e-18)
(-4.48815 66.5901 7.13014e-17)
(-6.77112 62.6188 -3.25704e-17)
(-8.75388 59.6585 0)
(-10.1856 56.1109 0)
(-11.344 52.0484 0)
(-12.1515 47.7417 1.1338e-16)
(-12.6393 43.5031 -1.32217e-16)
(-12.7436 39.6247 1.37054e-16)
(5.43804 5.13856 -2.68939e-16)
(-13.3789 8.01756 0)
(-11.3615 18.9463 0)
(-12.2398 13.7148 0)
(5.41467 37.5068 1.98812e-16)
(6.87694 42.0534 5.53765e-17)
(7.35975 46.6942 -3.57257e-20)
(7.77833 51.4656 -9.1732e-19)
(7.98087 56.1723 9.08016e-19)
(8.02082 60.4419 7.09543e-18)
(7.73033 64.2638 -1.37467e-17)
(7.29961 67.0909 3.3407e-20)
(6.45512 68.5638 0)
(5.11791 69.3186 2.93327e-17)
(3.4974 68.3584 1.90029e-17)
(1.83983 65.7655 -3.11123e-18)
(-0.239187 61.5286 3.07006e-18)
(-2.74233 55.2976 0)
(-5.58879 46.7213 0)
(-8.49477 37.5683 -3.6975e-19)
(-10.6744 29.8595 0)
(-11.5045 23.6574 2.14825e-18)
(-10.8366 18.7159 2.24718e-22)
(-9.02123 14.7994 -1.391e-18)
(-6.64568 11.5713 0)
(-4.37277 8.97356 -1.35057e-18)
(-2.59187 6.6683 1.99261e-18)
(-1.27562 5.13899 -3.274e-18)
(-0.317515 3.71217 0)
(0.508497 3.27644 -5.06669e-18)
(1.37667 2.07777 1.24594e-18)
(2.10173 2.09114 -4.87758e-21)
(3.47947 2.77832 0)
(4.91766 3.71093 -6.14122e-19)
(6.24874 4.85421 -1.99652e-18)
(1.55839 14.0535 2.91888e-16)
(7.45579 5.92365 1.54105e-19)
(6.70176 -0.869273 -8.48091e-16)
(8.21316 -8.28963 -1.96209e-16)
(-8.54722 40.6301 0)
(3.20687 4.49697 2.86063e-16)
(-2.35912 18.7389 -5.82545e-16)
(-1.49509 41.3891 3.59289e-17)
(-12.5069 35.984 -2.08932e-16)
(3.31368 -0.317673 -1.21293e-18)
(4.7084 -0.267343 -1.21178e-18)
(5.99366 0.138595 -1.51352e-19)
(7.01799 0.965147 2.42242e-18)
(7.88912 2.07771 1.51639e-19)
(8.73791 3.13503 0)
(8.5443 6.79462 1.23416e-18)
(8.45366 5.84845 2.5161e-18)
(8.09851 7.11931 -6.27679e-19)
(7.97333 6.59607 -2.58867e-18)
(8.09374 7.28802 -2.96964e-18)
(8.72947 8.05532 4.01431e-18)
(10.0242 9.95888 1.35894e-18)
(11.9143 12.5578 -2.76769e-18)
(14.0678 15.9126 2.10789e-18)
(15.9729 19.733 -6.23999e-19)
(17.1335 23.8842 0)
(17.1391 28.2684 0)
(15.8029 33.1141 0)
(13.504 38.8986 3.01344e-18)
(10.874 45.2582 -1.55778e-18)
(8.24185 50.8462 -1.91186e-20)
(5.30482 54.5694 -1.27728e-17)
(2.16014 56.3113 0)
(-1.0585 56.1672 -1.37542e-17)
(-4.0541 54.2888 1.44112e-17)
(-6.91432 52.35 3.00707e-17)
(-9.56871 49.2352 1.55069e-17)
(-11.6731 46.3419 6.28735e-17)
(-13.359 43.1312 -6.25088e-17)
(-14.6432 39.581 0)
(-15.4959 35.8695 1.59122e-17)
(-15.9107 32.3161 -3.23386e-17)
(-15.8803 29.1803 -6.62731e-17)
(5.12585 26.7071 3.27398e-17)
(5.04686 -8.74001 0)
(-6.69869 17.1024 -2.91866e-19)
(6.28099 4.52723 3.6833e-16)
(6.58645 7.50125 -7.77461e-17)
(6.91948 10.989 8.74557e-17)
(7.4889 14.4935 -1.64039e-17)
(8.02186 18.4037 3.18495e-17)
(8.73848 22.3329 -1.53074e-17)
(9.30827 26.9793 0)
(9.9753 31.0508 -1.45069e-17)
(10.5696 34.8667 -1.4537e-17)
(10.8919 38.8115 0)
(10.9043 42.6812 0)
(10.5812 46.2816 8.74627e-19)
(9.86967 49.32 -7.76691e-18)
(8.77532 51.6035 0)
(7.24027 52.9257 0)
(5.26029 53.3725 -9.77945e-18)
(2.9274 52.4234 -6.39523e-18)
(0.259217 49.9522 1.25525e-17)
(-2.73775 46.2594 3.08922e-18)
(-5.90169 40.8642 7.62233e-19)
(-9.16368 33.5944 3.0289e-18)
(-12.4728 25.874 -3.31532e-18)
(-14.8563 19.4688 0)
(-15.5705 14.6629 -1.4399e-18)
(-14.4844 11.3273 0)
(-12.0462 9.16249 0)
(-9.12226 7.54113 0)
(-6.44168 6.25634 -5.4166e-18)
(-4.42374 4.88896 0)
(-2.97143 3.92774 -2.94548e-18)
(-1.94789 2.80828 4.83663e-19)
(-0.996738 2.47292 9.99132e-18)
(-0.0691517 1.44596 0)
(0.985303 1.56433 -4.91125e-18)
(2.32829 -0.342419 7.55031e-20)
(1.14627 -23.2707 0)
(4.85915 1.81926 4.65569e-16)
(-5.31794 -12.8962 8.18073e-16)
(-11.2589 -14.3564 0)
(4.00936 -16.7177 -2.71046e-16)
(7.17056 -5.53914 9.75389e-16)
(-11.8336 32.9825 -6.11608e-19)
(1.52236 33.1887 6.90982e-17)
(9.57866 4.18705 -1.52377e-19)
(9.49913 7.47209 -1.24066e-18)
(9.25097 6.46558 1.25798e-18)
(9.04024 7.52617 0)
(8.98861 6.72168 0)
(9.21691 6.8722 1.65219e-19)
(9.98444 6.87453 -6.72029e-19)
(11.4993 7.71264 -2.3907e-18)
(13.6859 8.98894 1.73496e-19)
(16.2743 10.8022 -3.63167e-19)
(18.6537 12.9218 -4.38744e-19)
(20.1848 15.3062 1.99778e-18)
(20.3233 17.9451 1.81128e-19)
(18.8641 21.0438 -1.50136e-18)
(16.0503 24.9542 0)
(12.5741 29.55 6.15404e-18)
(8.97191 33.9382 -3.80644e-20)
(5.22397 37.122 3.21099e-17)
(1.34637 38.7469 -2.64176e-17)
(-2.43794 39.0028 0)
(-5.94388 38.0867 2.83569e-17)
(-9.1008 36.506 -8.79399e-17)
(-11.8963 34.4295 4.51284e-17)
(-14.1514 31.9583 6.10387e-17)
(-15.9128 29.42 4.04129e-19)
(-17.1525 26.6848 -6.15685e-17)
(-17.9437 23.7726 6.27007e-17)
(-18.2643 21.0071 6.40927e-17)
(-18.0761 18.5889 -6.3832e-17)
(-15.5148 26.3373 -1.33313e-16)
(1.09347 6.72584 -2.36837e-19)
(8.25051 -12.8423 6.5095e-20)
(7.68836 -1.07362 -6.49908e-17)
(8.29532 0.891685 -8.49875e-18)
(8.93104 3.61328 -2.48993e-17)
(9.61696 6.41923 -8.04318e-18)
(10.3539 9.45968 0)
(11.1851 12.5474 1.52361e-17)
(11.8447 15.8299 -7.44265e-18)
(12.5239 19.0088 -7.30074e-18)
(13.0369 21.981 3.66695e-18)
(13.2463 24.9375 3.61108e-18)
(13.072 27.8089 7.11305e-18)
(12.4543 30.4625 0)
(11.3467 32.6108 6.8665e-18)
(9.72879 34.2298 -6.66881e-18)
(7.60535 35.1689 -1.04414e-19)
(5.03409 35.3236 -1.96204e-17)
(2.07308 34.3306 1.60561e-18)
(-1.36728 32.1359 -7.8889e-18)
(-5.02876 29.0463 0)
(-8.62336 24.7279 -2.49438e-18)
(-12.0536 19.1089 1.69952e-19)
(-15.2918 13.3389 3.33732e-18)
(-17.4485 8.77725 0)
(-17.8658 5.72469 0)
(-16.3929 4.13766 -8.89477e-20)
(-13.6492 3.70658 -2.71343e-18)
(-10.5617 3.61006 2.7603e-18)
(-7.85467 3.56005 3.39784e-18)
(-5.82214 3.09028 -6.68132e-19)
(-4.35337 2.72791 1.97429e-18)
(-3.32392 1.91237 -6.4529e-19)
(-2.29081 1.68116 -5.08953e-18)
(-1.31297 0.759441 5.00254e-18)
(-0.001975 0.942116 1.10575e-17)
(1.56318 -0.623517 4.8289e-18)
(2.8714 0.628217 0)
(3.40335 0.594267 -2.44204e-18)
(3.84269 -0.146673 6.14479e-21)
(4.6235 -0.247683 2.67693e-18)
(5.48917 0.963953 8.92679e-19)
(6.51286 3.12085 -1.19155e-18)
(7.60882 4.6982 2.38585e-18)
(8.61623 5.72518 -2.38811e-18)
(9.72227 6.64255 -1.19631e-18)
(-5.1277 -13.3919 -3.09191e-16)
(-0.867939 -20.4539 -7.87316e-17)
(1.19929 -1.22916 -1.61526e-16)
(5.88675 -3.11947 -4.77794e-16)
(6.27846 -9.78494 -2.47554e-16)
(-2.6916 -7.13353 9.80651e-17)
(-17.5547 16.4901 0)
(-14.8883 23.9799 2.69098e-16)
(2.55587 2.75862 7.05663e-16)
(4.9774 -1.71522 2.88452e-16)
(4.57887 -6.50528 -3.02105e-16)
(-4.91518 21.3186 5.90872e-16)
(9.01925 -6.29615 0)
(9.53477 -4.79165 8.34349e-18)
(10.2869 -3.05527 -2.03404e-18)
(11.0638 -1.11327 -3.76455e-17)
(11.8797 0.981293 7.74543e-18)
(12.7319 3.10259 0)
(13.4588 5.24873 -4.5505e-21)
(14.1045 7.35909 -1.83329e-18)
(14.5278 9.35249 0)
(14.6051 11.2422 -3.56909e-18)
(14.2531 13.044 -3.51655e-18)
(13.38 14.6594 0)
(11.9054 15.9458 8.53896e-19)
(9.87011 16.8716 -8.66297e-19)
(7.34192 17.3595 8.3003e-19)
(4.36824 17.2811 1.22769e-17)
(0.962034 16.385 0)
(-2.88356 14.6673 1.58571e-18)
(-6.80556 12.3906 -7.80871e-19)
(-10.4572 9.39977 1.92328e-19)
(-13.7438 5.71624 5.71414e-19)
(-16.5512 2.17532 -3.36561e-18)
(-18.2049 -0.431123 0)
(-18.2507 -1.68087 7.24829e-19)
(-16.6051 -1.67283 1.42845e-18)
(-13.9703 -0.789941 1.40884e-18)
(-11.1622 0.26377 -2.63947e-21)
(-8.72353 1.1645 -6.79998e-19)
(-6.84913 1.42178 -2.00567e-18)
(-5.46909 1.59763 -1.31888e-18)
(-4.46992 1.04499 -1.29341e-18)
(-3.40704 0.932131 0)
(-2.3861 0.0749823 -5.0148e-18)
(-0.9524 0.219795 -4.92359e-18)
(0.720921 -1.0533 -3.61895e-18)
(2.21227 0.167642 -6.51656e-18)
(4.73214 -3.71857 2.91423e-18)
(4.78489 -3.76866 -2.32855e-18)
(4.62172 -3.78336 0)
(5.04902 -4.38518 1.17259e-18)
(6.51695 -4.74688 1.16567e-18)
(7.83994 -4.32062 -2.34054e-18)
(8.04437 -3.68628 2.35186e-18)
(7.6601 -2.26161 3.63429e-21)
(7.78104 -1.20286 -1.17718e-18)
(8.45147 -0.0513174 3.52885e-18)
(9.20002 1.85687 -3.54202e-18)
(10.4608 7.62696 6.0151e-19)
(10.0655 5.364 -4.58111e-19)
(10.0736 8.10538 9.31405e-19)
(9.74041 7.00553 -3.15345e-18)
(9.69866 7.79621 1.2015e-18)
(9.70026 6.73236 0)
(10.001 6.41582 1.65174e-19)
(10.7649 5.6976 2.36401e-18)
(12.2442 5.52769 -3.42541e-19)
(14.3942 5.53371 8.70011e-19)
(17.0314 5.80951 -3.34246e-23)
(19.6311 6.22129 3.61696e-19)
(21.3586 6.72657 -1.82223e-19)
(21.7702 7.57486 1.29317e-18)
(20.4511 8.89885 -4.50383e-18)
(17.6199 10.9728 1.88241e-20)
(13.7744 13.7728 3.11458e-18)
(9.55866 16.7906 -3.16371e-18)
(5.25772 19.309 -2.57459e-17)
(0.866629 20.8661 2.6334e-17)
(-3.34999 21.5226 0)
(-7.2046 21.2749 -5.58726e-17)
(-10.6032 20.5123 4.27591e-17)
(-13.5239 19.3377 -4.39128e-17)
(-15.8821 17.7402 0)
(-17.6257 16.0976 0)
(-18.7688 14.2806 0)
(-19.3799 12.3339 -7.65474e-18)
(-19.5428 10.391 8.78107e-21)
(-19.3098 8.71948 1.25079e-16)
(-0.24338 6.67636 -3.17246e-16)
(-16.8066 14.8765 1.35185e-16)
(-13.9527 22.3632 -1.2798e-16)
(4.80749 21.9897 1.64767e-17)
(4.01322 -1.20019 3.41804e-16)
(5.65676 -5.76693 2.91138e-16)
(6.51347 -6.96493 -5.19915e-20)
(7.34042 -8.57792 -2.97894e-16)
(7.46887 -13.7923 -2.05015e-16)
(8.37253 -6.78815 -2.01365e-16)
(8.79286 -10.579 7.27057e-17)
(9.44013 -10.2187 -1.6682e-17)
(10.1637 -9.49046 -3.25411e-17)
(10.9487 -8.525 0)
(11.7726 -7.42584 3.13906e-17)
(12.5844 -6.25772 0)
(13.4084 -5.1168 0)
(14.1039 -3.97715 7.42633e-18)
(14.6651 -2.89099 1.83072e-18)
(14.9797 -1.90583 0)
(14.9312 -1.02155 3.56027e-18)
(14.4093 -0.212071 -2.53558e-20)
(13.3186 0.519189 -9.4446e-21)
(11.6398 1.05352 3.43023e-18)
(9.41321 1.36884 3.78765e-18)
(6.71013 1.50482 -3.75283e-18)
(3.52538 1.3439 -6.75249e-18)
(-0.0566068 0.747788 2.02187e-19)
(-3.84658 -0.253269 -1.19097e-18)
(-7.62419 -1.49735 3.89007e-19)
(-11.0148 -2.95846 1.54728e-18)
(-13.8839 -4.63691 -1.1402e-18)
(-16.1274 -6.0869 1.50195e-18)
(-17.2163 -6.86337 8.69704e-21)
(-17.0023 -6.75635 -3.639e-18)
(-15.5921 -5.70623 1.43267e-18)
(-13.4734 -4.03317 1.41138e-18)
(-11.2336 -2.30816 -2.08367e-18)
(-9.24277 -0.799742 2.72803e-18)
(-7.6181 0.012987 2.69447e-18)
(-6.39346 0.624913 0)
(-5.4323 0.293991 7.8053e-18)
(-4.40052 0.271293 1.27693e-18)
(-3.36875 -0.55342 1.25468e-18)
(-1.85466 -0.457543 0)
(-0.259889 -1.52247 0)
(1.5155 -0.594299 3.56266e-18)
(4.05373 -3.6667 -5.47667e-22)
(4.83889 0.43675 -5.73017e-19)
(5.43007 1.87712 5.66009e-19)
(6.05066 2.4032 0)
(6.38819 1.76603 0)
(6.32839 -0.824154 -5.72916e-19)
(6.20019 -1.48746 1.7142e-18)
(5.96106 0.517227 0)
(6.38705 4.01796 -1.14871e-18)
(6.86525 6.04539 -1.14946e-18)
(6.75288 6.67909 2.29629e-18)
(7.69222 6.944 -1.1512e-18)
(9.03974 8.1294 3.47325e-18)
(9.38081 9.70706 5.78006e-19)
(9.30631 3.58045 5.92625e-19)
(10.5135 8.47905 1.2048e-18)
(10.0052 6.31425 0)
(10.1714 8.52736 -4.66982e-19)
(9.88533 7.35968 -1.18764e-19)
(10.0217 7.92836 7.25692e-19)
(10.075 6.65321 -1.61309e-19)
(10.4079 5.99358 -3.31167e-19)
(11.1141 4.69732 -2.70719e-18)
(12.3605 3.6872 6.88585e-19)
(14.2393 2.65851 -1.74718e-18)
(16.5811 1.69918 8.86335e-19)
(18.9766 0.674737 -3.59965e-19)
(20.8256 -0.358264 0)
(21.4416 -1.20051 0)
(20.4324 -1.58574 0)
(17.8463 -1.23071 -1.53101e-18)
(14.1237 -0.0986788 0)
(9.77573 1.49926 1.77599e-20)
(5.22144 3.14074 1.28686e-17)
(0.618011 4.44015 -6.53455e-18)
(-3.79426 5.35343 1.34481e-17)
(-7.7983 5.65771 4.13406e-17)
(-11.2958 5.7452 -1.73028e-20)
(-14.211 5.41539 -1.43869e-17)
(-16.5361 4.82635 -2.91004e-17)
(-18.2497 4.17511 5.83333e-17)
(-19.312 3.34636 -2.95706e-17)
(-19.8206 2.37675 -1.43458e-21)
(-19.8917 1.28048 1.51316e-17)
(-19.5827 0.233142 1.55363e-19)
(-18.8429 7.21465 -1.91999e-16)
(1.3051 3.29102 -3.29218e-16)
(-1.79433 5.57305 6.19802e-16)
(-2.52564 -5.74496 0)
(-18.0888 6.17708 -1.32754e-16)
(7.77646 -11.992 5.31977e-16)
(7.38043 -10.9788 -2.86724e-16)
(6.85098 -9.76766 -5.53847e-16)
(-12.6609 20.0416 -4.33189e-17)
(4.52224 13.7819 -4.22803e-17)
(1.47311 28.1202 -1.65119e-17)
(-15.7621 13.6022 1.31705e-19)
(4.90244 -4.59986 -3.37485e-16)
(6.27693 -8.65187 2.81074e-16)
(9.94798 -8.14677 -5.66123e-19)
(10.0246 -8.73328 -5.66012e-19)
(8.26396 -9.06189 0)
(5.93627 -8.54209 -5.62601e-19)
(6.76143 -9.12526 5.62326e-19)
(8.93908 -9.56692 -5.57288e-19)
(9.78282 -8.68374 5.57647e-19)
(7.92357 -6.70005 1.13135e-18)
(4.77278 -3.3063 -1.12961e-18)
(2.76567 -4.08971 2.26556e-18)
(2.94201 -4.41492 -3.40587e-18)
(5.68765 -2.49364 0)
(6.76461 -0.760357 -1.69805e-21)
(6.82871 0.1015 0)
(9.80425 10.1407 -3.48302e-18)
(9.07915 4.89277 1.18462e-18)
(10.2209 9.09581 0)
(9.60796 7.06666 0)
(9.88535 8.77417 3.11995e-19)
(9.64617 7.5327 -3.97004e-20)
(9.92805 7.88604 0)
(10.0565 6.49566 -1.63765e-19)
(10.4295 5.61364 1.66922e-19)
(11.0592 3.94439 6.80118e-19)
(12.0318 2.3165 3.43945e-19)
(13.509 0.515583 7.00636e-19)
(15.3398 -1.29587 3.91587e-22)
(17.2938 -3.29213 -1.44298e-18)
(18.878 -5.42328 3.67551e-19)
(19.5309 -7.47199 1.48736e-18)
(18.818 -9.14594 3.72963e-19)
(16.7097 -10.2169 -7.70839e-19)
(13.455 -10.5542 1.55132e-18)
(9.4163 -10.2367 -4.7361e-18)
(4.99399 -9.52954 -6.40973e-18)
(0.486293 -8.70099 3.30338e-18)
(-3.83974 -7.79414 -6.68844e-18)
(-7.77044 -7.07405 0)
(-11.1504 -6.33735 -2.09023e-17)
(-13.9334 -5.96293 4.27001e-17)
(-16.1749 -5.66285 0)
(-17.8193 -5.45087 0)
(-18.8326 -5.39341 0)
(-19.2628 -5.50389 1.10211e-17)
(-19.2301 -5.87181 7.47429e-21)
(-18.9019 -6.32439 -8.97075e-20)
(-19.0686 -0.724025 -1.23967e-16)
(-8.07857 11.9813 -3.14184e-16)
(2.74946 -0.238612 -1.40544e-19)
(-7.96817 -12.0016 2.51715e-16)
(2.54548 -17.5224 0)
(9.29882 -13.1344 -1.56739e-17)
(10.1518 -12.9786 0)
(10.9753 -12.6658 0)
(11.7847 -12.311 7.75376e-18)
(12.5667 -11.9383 -1.52947e-17)
(13.2994 -11.6033 0)
(13.9197 -11.2929 7.43324e-18)
(14.3648 -11.0442 0)
(14.554 -10.9028 -1.80394e-18)
(14.3896 -10.8062 1.77075e-18)
(13.7377 -10.7589 -8.80355e-18)
(12.578 -10.7496 1.61553e-20)
(10.8829 -10.7801 -3.42059e-18)
(8.65758 -10.7924 6.75986e-18)
(5.94589 -10.7327 4.98497e-18)
(2.79145 -10.7289 -4.93659e-18)
(-0.657172 -10.904 0)
(-4.12076 -11.0983 8.42715e-22)
(-7.45558 -11.1475 -2.35948e-18)
(-10.3666 -11.1596 0)
(-12.6601 -11.1872 0)
(-14.2997 -11.0533 7.52553e-19)
(-15.0601 -10.5474 2.22735e-18)
(-14.8894 -9.55248 -1.46599e-18)
(-13.9634 -8.04292 1.43362e-18)
(-12.5883 -6.10171 -2.82736e-18)
(-11.0564 -4.10276 -6.97593e-19)
(-9.59603 -2.28247 -5.48524e-18)
(-8.30702 -1.12595 2.70141e-18)
(-7.24776 -0.207154 0)
(-6.32266 -0.346969 -5.2251e-18)
(-5.31489 -0.236358 -2.5631e-18)
(-4.33879 -1.06561 0)
(-2.75996 -0.982816 2.47384e-18)
(-1.34384 -2.00288 4.37008e-21)
(0.700142 -1.37648 3.57789e-18)
(2.81533 -3.71257 3.50169e-18)
(4.24812 -0.73432 0)
(8.52047 -7.38767 -1.13265e-18)
(-3.12556 3.35525 -3.08166e-16)
(-0.0482619 3.01136 -6.33538e-16)
(0.845683 -25.2571 1.20953e-16)
(-14.9327 11.8532 -1.2044e-16)
(5.67077 -7.34404 5.76579e-16)
(-17.1328 5.33694 -3.23364e-19)
(7.25755 3.00036 5.70483e-19)
(10.4064 10.6273 2.90047e-18)
(8.95393 6.37978 -2.36867e-18)
(9.82629 9.66959 0)
(9.0394 7.79718 0)
(9.36864 8.98967 0)
(9.09862 7.62169 0)
(9.47137 7.71766 6.46791e-19)
(9.66869 6.28899 -3.28201e-19)
(10.0635 5.25946 1.66792e-19)
(10.5987 3.37672 -1.02114e-18)
(11.3446 1.35909 6.87891e-19)
(12.3749 -0.901175 3.50965e-19)
(13.6439 -3.2099 -5.33679e-19)
(15.033 -5.7378 0)
(16.1687 -8.42821 -2.52156e-22)
(16.6566 -11.1518 -3.72504e-19)
(16.1533 -13.6547 3.77662e-19)
(14.5202 -15.6871 7.66037e-19)
(11.8387 -17.0601 -8.75889e-19)
(8.38107 -17.7261 8.86434e-19)
(4.45378 -17.8012 -2.40312e-18)
(0.356729 -17.5004 -4.88407e-18)
(-3.64557 -16.8141 3.29245e-18)
(-7.30986 -15.9691 0)
(-10.5072 -14.887 -2.81957e-20)
(-13.0058 -13.988 -2.10768e-17)
(-15.0066 -13.0171 1.77249e-17)
(-16.4657 -12.1963 -3.59902e-18)
(-17.4395 -11.5352 0)
(-17.9539 -11.0993 -3.63831e-18)
(-17.9668 -10.9387 5.0804e-17)
(-17.6379 -10.9786 -2.84494e-17)
(-18.4112 -6.95545 1.17088e-16)
(-9.66447 10.6657 6.39366e-16)
(3.9802 -3.63179 -1.57542e-19)
(7.72332 2.0225 -2.83192e-19)
(7.43115 3.79805 1.6388e-18)
(7.96782 7.65372 2.69006e-19)
(9.28231 9.22392 0)
(10.224 7.57917 -5.49834e-19)
(9.85383 1.36103 5.52581e-19)
(8.60452 1.01018 -8.23223e-19)
(7.41399 5.21204 -1.92605e-18)
(7.72018 10.4372 2.22045e-18)
(1.63368 12.4216 0)
(-3.51436 11.5774 -1.10461e-18)
(-0.426828 5.18407 3.33138e-18)
(3.47377 6.64274 -2.23091e-18)
(5.72673 13.0409 -1.11251e-18)
(9.41202 12.6707 1.67658e-18)
(10.7806 14.2501 -2.22871e-18)
(-8.93423 6.58528 6.14772e-16)
(6.65081 -10.7184 -2.62628e-16)
(6.90129 -11.5505 2.6488e-16)
(7.1015 -12.401 5.24816e-16)
(7.2684 -13.1878 2.46318e-16)
(-7.29476 21.7563 -1.2278e-19)
(-12.0722 9.12187 1.82372e-16)
(0.312508 -2.70697 0)
(-10.1806 -13.8908 0)
(8.9853 -14.8343 0)
(9.72918 -15.1946 3.92415e-18)
(10.5182 -15.4652 -7.80701e-18)
(11.2797 -15.7071 1.07607e-20)
(11.9894 -15.9465 2.2896e-17)
(12.6187 -16.2149 -1.50641e-17)
(13.1257 -16.513 1.21934e-20)
(13.4648 -16.8566 7.3019e-18)
(13.5396 -17.2614 -1.26365e-17)
(13.2719 -17.6821 1.82269e-18)
(12.5855 -18.1062 7.05685e-18)
(11.4482 -18.5005 -1.73775e-18)
(9.8292 -18.798 1.69954e-18)
(7.73192 -18.8772 -5.07695e-18)
(5.18951 -18.7089 1.66768e-18)
(2.31741 -18.3852 4.9192e-18)
(-0.737443 -18.0275 -3.24298e-18)
(-3.76373 -17.4944 3.19739e-18)
(-6.51506 -16.5907 1.18182e-18)
(-8.85396 -15.5233 2.72878e-18)
(-10.6305 -14.4459 -3.44084e-18)
(-11.8337 -13.3213 2.2778e-18)
(-12.4303 -12.0848 -4.08283e-18)
(-12.4723 -10.7084 -2.94011e-18)
(-12.1131 -9.07753 2.87945e-18)
(-11.4544 -7.13448 1.42235e-18)
(-10.6347 -5.14069 -1.3935e-18)
(-9.71987 -3.25612 0)
(-8.8345 -1.9438 -2.69986e-18)
(-7.97214 -0.864719 1.32891e-18)
(-7.17772 -0.891422 -2.61091e-18)
(-6.16754 -0.599829 -3.84789e-18)
(-5.32508 -1.46249 -2.52359e-18)
(-3.72767 -1.32344 -4.95009e-18)
(-2.59325 -2.42567 1.21199e-18)
(-0.277482 -1.87702 -1.19339e-18)
(1.39946 -3.76427 -2.34019e-18)
(3.74853 -1.38183 0)
(7.02595 -6.73803 0)
(7.68788 0.978882 0)
(0.89273 -24.7407 0)
(-18.3899 -1.23888 -4.25291e-19)
(-14.1775 11.6418 6.5949e-16)
(-4.18965 0.407913 3.07935e-16)
(1.66023 -0.0446622 3.17458e-16)
(-1.32771 1.79437 6.24338e-16)
(-8.86969 16.3379 -3.10894e-16)
(0.889831 -24.8825 -1.03238e-16)
(1.20663 -21.5664 0)
(-9.63396 20.6856 -3.48644e-16)
(-16.0418 4.59096 -1.40202e-16)
(-16.8586 -11.3709 -5.19329e-17)
(-5.51565 26.4624 -9.13274e-16)
(-4.57615 -14.2233 3.28291e-16)
(-6.88829 -11.465 2.51144e-16)
(0.296605 -22.4543 -5.43673e-17)
(8.27772 16.7356 -1.11309e-18)
(6.9005 8.20874 -2.84464e-19)
(10.1247 12.1711 -8.73873e-19)
(8.60078 8.74111 2.00711e-21)
(9.22071 10.5958 0)
(8.30311 8.72987 0)
(8.68306 9.26289 0)
(8.31612 7.74565 -1.59211e-19)
(8.72934 7.50784 -2.02635e-19)
(8.92613 6.08557 2.05643e-19)
(9.31926 4.93891 -1.67889e-19)
(9.75477 2.9473 4.25543e-19)
(10.3085 0.753307 -5.18811e-19)
(10.9545 -1.73188 0)
(11.7618 -4.30916 0)
(12.6151 -7.06011 0)
(13.3056 -9.93041 0)
(13.5426 -12.868 0)
(13.0979 -15.6809 0)
(11.8096 -18.1481 -1.91913e-19)
(9.65727 -20.0831 7.76951e-19)
(6.83297 -21.3666 0)
(3.5741 -22.001 -2.0039e-18)
(0.0956393 -22.1272 3.65033e-18)
(-3.40516 -21.6927 3.29261e-18)
(-6.63745 -20.8427 0)
(-9.4497 -19.6979 1.02618e-17)
(-11.6838 -18.4797 -1.04333e-17)
(-13.5156 -17.2346 -3.5058e-18)
(-14.8675 -16.181 7.13533e-18)
(-15.7288 -15.2742 -1.07983e-17)
(-16.1496 -14.5951 5.41138e-18)
(-16.2325 -14.143 -1.44335e-17)
(-16.14 -13.9962 3.58743e-18)
(-16.004 -14.0069 1.12238e-16)
(-10.4892 5.05213 3.42284e-16)
(6.65233 -12.4423 4.99574e-16)
(6.587 -12.5619 2.46145e-16)
(11.4886 -12.6695 0)
(14.7718 -13.766 -1.82637e-21)
(15.1252 -15.7353 -5.51595e-19)
(14.1194 -17.14 -2.76035e-19)
(9.2789 -17.0227 -6.75896e-20)
(5.58232 -14.7192 6.76623e-20)
(8.65649 -14.3801 0)
(12.8737 -14.6492 0)
(8.84792 -14.8433 8.28314e-19)
(-0.778352 -3.63401 -2.17037e-18)
(-6.1511 3.26975 2.71232e-18)
(-11.705 -6.74119 0)
(-9.31703 -12.8695 -2.16487e-18)
(3.92836 -9.2102 2.18761e-18)
(9.21799 -9.03074 5.51776e-19)
(3.90219 -7.46274 5.49537e-19)
(-0.745585 2.06459 0)
(-4.74169 10.0678 0)
(1.83326 18.4912 0)
(6.7407 -11.9804 2.54278e-16)
(6.64573 -12.4223 0)
(6.50158 -12.8369 -5.18066e-16)
(6.35348 -13.1286 2.58236e-16)
(6.20072 -13.1964 4.64409e-16)
(3.40356 -16.7644 -8.65441e-17)
(3.72679 -6.09417 3.03372e-16)
(7.3394 -14.6171 8.38981e-18)
(8.14032 -15.4443 -6.4593e-17)
(8.91681 -16.1879 2.77761e-17)
(9.66795 -16.9373 -3.13519e-17)
(10.3714 -17.68 -1.35186e-17)
(11.0173 -18.401 1.90961e-17)
(11.5738 -19.114 3.75323e-18)
(12.0038 -19.8191 -1.85494e-17)
(12.2498 -20.5238 1.09941e-17)
(12.2427 -21.2183 0)
(11.9189 -21.8732 -8.88881e-18)
(11.2397 -22.455 5.30768e-18)
(10.1701 -22.9172 8.67777e-18)
(8.70757 -23.1943 1.6875e-18)
(6.83898 -23.1714 -6.76666e-18)
(4.63198 -22.816 -3.3329e-18)
(2.15642 -22.1695 0)
(-0.414085 -21.352 0)
(-2.93632 -20.2844 -7.99572e-19)
(-5.15293 -18.7973 -3.94417e-19)
(-6.97869 -17.104 3.89891e-18)
(-8.35995 -15.4596 7.82291e-19)
(-9.31003 -13.8846 -2.64082e-18)
(-9.87864 -12.373 1.55423e-21)
(-10.1597 -10.8865 0)
(-10.2512 -9.28689 0)
(-10.1593 -7.45526 -2.84713e-18)
(-9.90416 -5.57289 4.20731e-18)
(-9.50451 -3.75859 -1.37481e-18)
(-9.00118 -2.43667 5.33938e-21)
(-8.40536 -1.29368 1.33137e-18)
(-7.84065 -1.28796 1.30867e-18)
(-6.86298 -0.780107 7.72013e-18)
(-6.24296 -1.63281 0)
(-4.63603 -1.25868 3.71717e-18)
(-3.82847 -2.41365 -3.65168e-18)
(-1.31395 -1.50723 2.38344e-18)
(0.119909 -3.35497 -2.34655e-18)
(3.04875 -0.842041 2.29662e-18)
(5.67533 -5.96958 0)
(7.18732 2.12289 0)
(9.1389 -12.1381 -1.09694e-18)
(-9.67098 1.16128 6.05322e-16)
(-17.8753 -7.16868 -1.20788e-16)
(6.40977 -11.0154 -2.58341e-16)
(-7.66171 -4.59608 6.05552e-16)
(-6.41725 -3.45933 1.28859e-19)
(-5.01983 -2.82607 6.19477e-16)
(-17.4906 -1.5594 1.34018e-16)
(3.22779 -3.2832 -6.75384e-16)
(-2.50248 -0.235729 0)
(0.497088 -0.508467 0)
(0.22121 -20.8808 -5.96467e-17)
(-5.79361 -12.9672 -3.11393e-16)
(4.16181 -18.7455 2.39748e-17)
(-10.9153 23.2485 -5.44638e-16)
(-12.7337 -14.7394 -6.07995e-17)
(-11.806 3.5841 -3.78204e-16)
(0.712825 -25.2846 0)
(0.951191 -24.7822 -5.29762e-17)
(-13.2517 -15.0705 0)
(-14.0623 -15.4215 1.84915e-18)
(-14.3685 -15.8172 3.65057e-18)
(-14.2886 -16.4078 1.35478e-18)
(-13.862 -17.2197 2.2373e-19)
(-13.0771 -18.2121 0)
(-11.9 -19.3353 4.37514e-18)
(-10.3492 -20.5812 -4.32797e-18)
(-8.34513 -21.7655 1.69718e-18)
(-5.88378 -22.7536 -3.33997e-18)
(-3.189 -23.4641 8.20316e-19)
(-0.318632 -23.6576 0)
(2.50657 -23.2341 1.59776e-18)
(5.1377 -22.2969 -7.90471e-19)
(7.37043 -20.7609 7.79065e-19)
(9.05942 -18.6716 -1.34323e-18)
(10.113 -16.1552 1.53679e-18)
(10.5952 -13.374 3.13174e-22)
(10.5957 -10.503 -7.81154e-19)
(10.282 -7.6638 3.61722e-19)
(9.83694 -4.87311 -4.01732e-19)
(9.37824 -2.19524 0)
(8.98732 0.373007 1.73195e-19)
(8.59718 2.6224 -8.52381e-20)
(8.26296 4.64645 -3.35084e-19)
(7.88908 5.89288 2.86192e-19)
(7.73271 7.32836 4.05522e-20)
(7.33384 7.86694 -1.59287e-19)
(7.74306 9.58242 0)
(7.34885 9.78597 0)
(8.20152 11.7783 -6.02951e-19)
(7.59031 11.4661 3.25385e-18)
(8.55085 14.3079 -5.82971e-19)
(5.40901 13.141 0)
(4.24352 19.4185 2.22684e-18)
(-5.55613 14.3538 -1.19386e-21)
(0.972495 -24.0737 2.80498e-16)
(4.43076 6.55142 1.04378e-18)
(5.18155 3.84409 0)
(5.68269 8.37375 -2.73832e-19)
(5.79138 12.1458 2.74635e-19)
(7.75875 19.5123 6.58289e-19)
(9.83988 22.3073 -5.30835e-19)
(11.6458 13.7535 1.27696e-19)
(11.5833 2.95748 2.54974e-19)
(9.96737 9.52204 1.86669e-18)
(11.5976 25.6961 -2.64952e-18)
(7.44324 31.5457 -2.12572e-18)
(-13.6698 32.9725 2.10637e-18)
(-18.7691 24.61 -2.57058e-19)
(-11.493 -4.33003 5.17296e-19)
(-5.76126 -4.6403 -2.13595e-18)
(0.375983 19.5836 -5.30672e-19)
(3.19801 26.7735 2.14001e-18)
(-2.59517 30.915 0)
(-11.24 29.9014 1.04813e-18)
(-11.6188 28.4463 -5.25534e-19)
(-11.0259 -0.502128 3.14502e-16)
(-16.7302 -11.4522 -1.05421e-16)
(-8.77372 -6.02504 -2.98174e-16)
(1.07006 -24.7864 0)
(0.958238 -25.3646 0)
(0.740525 -25.6394 -1.00864e-16)
(0.466238 -25.6386 -2.52776e-17)
(0.195883 -25.3401 -3.1483e-17)
(0.57379 -25.0207 -7.62618e-17)
(0.957753 -24.556 1.04758e-16)
(1.32789 -23.9953 5.61471e-17)
(-8.08487 -11.5565 0)
(0.567754 -23.1757 -5.47898e-17)
(-5.86701 -13.0186 -1.85966e-20)
(-4.54576 -11.3744 2.81431e-16)
(-5.39336 -12.7007 -2.67662e-16)
(-7.67565 -7.97289 -3.05455e-16)
(-6.69632 -6.8272 0)
(-5.55371 -6.00121 0)
(-16.452 -1.85594 2.83453e-16)
(-9.92172 -3.60032 5.94724e-16)
(0.790125 -23.1412 -7.59557e-17)
(6.41933 -12.3905 2.56209e-16)
(6.02533 -12.3328 -2.61685e-16)
(5.61021 -12.262 0)
(5.23794 -12.0751 -5.44574e-16)
(4.83692 -11.7317 2.71347e-16)
(5.77164 -12.7387 -3.5984e-16)
(1.85232 -6.60721 -2.22903e-16)
(5.35414 -12.4488 6.87874e-17)
(6.18334 -13.6145 -7.58562e-17)
(6.95171 -14.7576 3.29535e-17)
(7.71253 -15.9264 -3.21538e-17)
(8.44445 -17.1005 0)
(9.1342 -18.2696 -1.93949e-18)
(9.75527 -19.4077 -2.86902e-18)
(10.2828 -20.5005 1.129e-17)
(10.6767 -21.5361 3.68861e-18)
(10.893 -22.4969 -1.83042e-17)
(10.8759 -23.3548 7.23944e-18)
(10.5766 -24.0838 8.88768e-18)
(9.9608 -24.6415 -7.05412e-18)
(9.00804 -24.9818 4.32681e-18)
(7.72119 -25.0658 -4.29191e-18)
(6.10667 -24.8557 -1.67939e-18)
(4.22624 -24.2938 5.00903e-18)
(2.16175 -23.3819 8.2338e-19)
(0.0992578 -22.1851 3.2454e-18)
(-1.93656 -20.7916 -3.20748e-18)
(-3.71978 -19.0814 0)
(-5.13269 -17.1674 -7.79377e-19)
(-6.23107 -15.337 -3.84547e-19)
(-7.03836 -13.6499 -3.79595e-18)
(-7.62478 -12.0927 3.35366e-18)
(-8.0791 -10.5998 -3.6685e-19)
(-8.46319 -9.05035 2.90091e-18)
(-8.75806 -7.33352 -5.34851e-18)
(-8.90624 -5.58583 2.80753e-18)
(-8.91704 -3.89896 1.38437e-18)
(-8.74497 -2.67782 6.77091e-19)
(-8.40222 -1.49972 -1.33535e-18)
(-8.09184 -1.55264 3.92281e-18)
(-7.24473 -0.829641 -3.85346e-18)
(-6.85396 -1.73432 -1.26187e-18)
(-5.2594 -0.957319 -3.72267e-18)
(-4.74383 -2.24774 4.87365e-18)
(-2.23512 -0.900447 -3.59193e-18)
(-1.05393 -2.99854 2.34389e-18)
(1.95508 -0.558093 -4.61342e-18)
(4.72645 -5.65486 0)
(5.74222 2.14107 2.18766e-18)
(9.8219 -12.8708 -1.09267e-18)
(2.02065 9.62718 -1.04676e-18)
(-6.45615 -12.6053 -7.06441e-16)