/*--------------------------------*- C++ -*----------------------------------*\
| =========                 |                                                 |
| \\      /  F ield         | OpenFOAM: The Open Source CFD Toolbox           |
|  \\    /   O peration     | Version:  2212                                  |
|   \\  /    A nd           | Website:  www.openfoam.com                      |
|    \\/     M anipulation  |                                                 |
\*---------------------------------------------------------------------------*/
FoamFile
{
    version     2.0;
    format      ascii;
    arch        "LSB;label=32;scalar=64";
    class       surfaceScalarField;
    location    "0.01082";
    object      phi;
}
// * * * * * * * * * * * * * * * * * * * * * * * * * * * * * * * * * * * * * //

dimensions      [1 0 -1 0 0 0 0];

oriented        oriented;

internalField   nonuniform List<scalar> 
5190
(
0.00168138
0.00130639
-0.00148554
-0.00132533
0.000142537
6.7623e-05
-0.000139947
3.33553e-05
-0.000222004
4.7331e-05
0.000225272
2.93601e-05
2.26124e-05
-2.17487e-05
-8.3697e-06
3.65713e-06
0.000112134
-7.66378e-05
3.11486e-05
0.000134074
-0.000167476
3.44634e-05
0.000173582
0.000107238
2.69083e-06
-3.67073e-06
-3.03532e-06
3.00638e-06
1.22003e-05
-1.30047e-05
1.77131e-05
-2.06282e-05
-2.40729e-05
2.14701e-05
1.66376e-05
-1.84923e-05
-2.69463e-05
2.07298e-05
-2.29413e-05
1.00124e-05
-8.75708e-06
1.76374e-05
5.02667e-05
-7.61535e-05
6.14468e-05
-5.67182e-05
-6.02767e-05
4.52748e-05
5.02205e-05
0.00114273
-0.0010588
0.00105992
-0.00106566
7.14095e-05
9.14192e-05
-0.000101726
-0.000111334
0.000169209
0.000197785
-0.000262786
-0.000355157
0.000760684
0.00101102
-0.000942219
-0.000955852
-2.05501e-05
1.35368e-05
-1.30486e-05
1.67472e-05
-2.16871e-05
1.61032e-05
-1.91634e-05
1.96076e-05
-2.80998e-05
-1.81941e-05
-4.01888e-05
2.02983e-05
-2.61555e-05
3.94707e-05
4.78969e-05
-5.37521e-05
4.79099e-05
-5.81285e-05
4.35908e-05
3.75032e-05
-4.44831e-05
2.93511e-05
-3.43631e-05
6.1338e-05
-0.00010075
-7.61064e-05
1.47055e-05
-1.80971e-05
1.3723e-05
-1.73675e-05
1.47359e-05
9.24149e-06
1.28813e-05
-1.89441e-05
2.08486e-05
-2.29205e-05
1.77588e-05
1.514e-05
2.74324e-05
-3.31725e-05
2.09214e-05
1.94477e-05
-1.90985e-05
3.69574e-05
-4.0735e-05
3.27446e-05
2.64019e-05
4.12022e-05
-6.3548e-05
3.81127e-05
-5.025e-05
6.19641e-05
-6.97561e-05
5.66653e-05
-7.1772e-05
7.623e-05
-8.38512e-05
-9.65081e-05
-6.05174e-05
5.38202e-05
6.24087e-05
-9.99862e-05
8.58385e-05
-8.03681e-05
-4.85092e-05
3.96549e-05
3.72264e-05
4.77725e-05
-3.26281e-05
2.97225e-05
3.04042e-05
-3.39685e-05
3.28668e-05
-3.3071e-05
9.91187e-05
0.000146189
-0.000114635
-5.93178e-05
2.50275e-05
-2.8136e-05
1.88346e-05
1.36689e-05
-1.50118e-05
6.58231e-06
1.21232e-05
-1.46634e-05
-6.46804e-06
-1.61785e-05
1.36777e-05
9.46671e-06
-1.00274e-05
1.13305e-05
-0.000134544
-0.000110063
0.00072212
0.00052675
-0.00103405
1.94086e-05
-1.35892e-05
-2.27812e-05
1.65309e-05
1.06153e-05
-1.11422e-05
-4.099e-05
3.7398e-05
4.30179e-05
-4.49e-05
5.13322e-05
7.26231e-06
1.25717e-05
-7.83484e-06
7.90851e-06
-8.40275e-06
1.156e-05
1.22348e-05
-1.43659e-05
8.76702e-06
7.32925e-06
1.04166e-05
2.47534e-05
-2.85244e-05
-2.04276e-05
-1.40523e-05
3.77228e-05
-4.27902e-05
-2.96779e-05
-2.57316e-05
4.97323e-05
-5.80939e-05
-5.20054e-05
-3.84302e-05
6.82616e-05
-7.36617e-05
-0.000113071
-7.34446e-05
1.83966e-06
3.75704e-06
-5.11346e-06
-1.50706e-06
-0.00018759
-6.56431e-05
-0.0001152
8.53082e-05
-0.000129751
-0.000207554
-6.44608e-05
-6.04012e-05
5.44138e-05
-8.58348e-05
7.27472e-05
-6.86168e-05
1.34447e-06
-3.24084e-06
2.02828e-06
-1.27442e-06
0.000947474
-0.00111826
0.00136951
-7.26994e-05
-6.41484e-05
0.000153609
0.000128237
1.5191e-05
-1.66301e-05
1.19521e-05
-1.46225e-05
1.27546e-05
8.30392e-06
1.04158e-05
1.85595e-05
-2.08254e-05
1.62386e-05
1.36076e-05
2.32585e-05
-2.77243e-05
2.06118e-05
1.77406e-05
3.11033e-05
-3.43398e-05
2.90219e-05
2.40394e-05
3.56397e-05
-3.87055e-05
4.01527e-05
4.80099e-05
5.42051e-05
-2.42117e-05
-3.71961e-05
3.24322e-05
3.39533e-05
4.05418e-05
-2.89868e-05
2.6936e-05
2.66851e-05
2.9699e-05
-2.43936e-05
2.20632e-05
1.84598e-05
2.24386e-05
-1.92667e-05
1.6777e-05
1.2467e-05
1.53092e-05
1.04739e-05
8.8263e-06
-9.22375e-06
1.39965e-05
-1.50787e-05
1.27228e-05
-5.11396e-05
6.01811e-05
0.000154297
-0.000285026
-0.000308415
0.000223964
0.000117671
-0.000159644
0.000123925
-0.000146088
1.09436e-05
6.63177e-06
1.08846e-05
-1.26969e-05
8.02781e-06
9.34752e-06
6.73068e-06
-0.000485368
0.000273203
-0.000460956
0.000557182
-0.000911906
-0.00100795
0.000306417
-0.000487679
0.000333696
-0.000432785
-4.60497e-05
3.69112e-05
4.9574e-05
-5.12966e-05
5.97164e-05
-8.94949e-05
-7.99488e-05
8.27104e-05
-5.66873e-05
5.54167e-05
1.51457e-05
-1.80447e-05
-9.4173e-06
-7.58695e-06
7.41592e-06
1.17106e-05
-7.71168e-06
1.27046e-05
-0.000136323
-6.64689e-05
6.87253e-05
8.09035e-05
-0.0011034
0.00120168
0.00100768
-0.00106335
0.000296121
-0.000805341
0.000168862
0.000131576
-0.000112621
-4.7961e-05
-8.99165e-05
7.19443e-05
-6.0695e-05
-9.05553e-05
-9.80847e-05
-6.25082e-06
5.71207e-06
9.41308e-06
1.10965e-05
9.7218e-06
-0.000148809
1.06366e-05
-0.00131057
-0.000927995
0.00138914
0.000975132
-0.00124373
0.00107786
-0.00081537
2.30707e-05
-2.44913e-05
-1.11323e-05
-8.9517e-06
1.96013e-05
2.84446e-05
-3.44253e-05
-2.03018e-05
-1.4889e-05
4.1869e-05
-4.9088e-05
-3.27009e-05
-2.57795e-05
5.93854e-05
-7.45285e-05
-6.12685e-05
-4.32062e-05
9.91077e-05
-0.0001473
-0.000153021
-9.29946e-05
-0.000264102
-0.000174471
0.000115685
-0.000196097
-0.000365056
-8.3727e-05
-7.55559e-05
6.61877e-05
-0.000115042
0.000724986
-0.0013721
-0.000412245
0.000541853
-0.000597279
0.000682432
-0.000552739
2.13686e-05
-1.41077e-05
-2.5103e-05
-1.1423e-05
1.10428e-05
-1.2522e-05
7.33251e-06
-9.58927e-06
5.02014e-06
8.37908e-06
5.91437e-06
1.37271e-05
-1.51097e-05
1.03655e-05
8.89491e-06
1.6769e-05
-1.82007e-05
1.41123e-05
1.20211e-05
2.09992e-05
-2.32042e-05
1.83646e-05
1.6599e-05
2.65018e-05
-2.87658e-05
2.53266e-05
2.22195e-05
3.13462e-05
-3.32505e-05
3.64783e-05
3.11331e-05
3.58264e-05
-3.90137e-05
5.04608e-05
4.35569e-05
0.00115903
-0.000999887
-0.00118821
5.96717e-05
-4.38683e-05
-3.46459e-05
3.30438e-05
4.03523e-05
4.63653e-05
-3.05857e-05
2.77566e-05
3.00068e-05
3.50046e-05
-2.51132e-05
2.35956e-05
2.3091e-05
2.65497e-05
-2.16534e-05
1.93778e-05
1.65297e-05
1.97471e-05
-1.70974e-05
1.47294e-05
1.14302e-05
1.37944e-05
9.52845e-06
6.64927e-06
-7.05667e-06
9.77769e-06
-6.1717e-06
8.05093e-06
5.69522e-06
8.89105e-06
1.07356e-05
-2.66942e-06
-2.0777e-06
2.18618e-06
1.64269e-06
-3.2576e-06
4.61302e-06
-1.48413e-05
1.13916e-05
1.13045e-05
-1.70061e-05
2.82857e-07
0.000605512
-0.0011874
-0.000966587
0.00111743
-0.00117786
0.00125718
-0.00101192
0.000178332
-0.000238582
-0.000118728
-7.50011e-05
8.96023e-05
0.000184011
-0.000217742
-8.52878e-06
7.60317e-06
4.12094e-06
8.22645e-05
-0.000117774
-8.75032e-05
6.67789e-05
-6.4033e-05
1.64433e-05
-1.97479e-05
-9.35523e-06
1.37044e-05
-7.67473e-06
0.000558142
-0.000847351
0.000512362
-0.000811339
5.294e-06
-5.48096e-06
7.83577e-06
5.14655e-06
6.85166e-06
1.90861e-05
-9.41375e-07
-2.53176e-05
-3.15512e-06
-1.38032e-06
7.55658e-06
-3.87706e-06
-1.8678e-05
7.06679e-06
-6.57233e-06
-2.50229e-05
-5.0425e-06
4.90672e-06
-5.32701e-06
6.98565e-06
7.28804e-06
-8.37434e-06
5.23294e-06
6.38159e-06
4.49155e-06
2.54051e-05
-1.88109e-05
7.25716e-05
-9.93114e-05
0.000953361
-0.00113046
-2.37523e-06
-3.15546e-06
1.99113e-06
1.073e-05
5.24258e-06
-1.34164e-05
0.0015261
0.00143791
-0.00144675
-0.00138846
0.00012865
0.000119716
-0.000102154
-7.95676e-05
9.5073e-05
5.73564e-05
-5.20084e-05
6.96211e-06
-0.000121305
-0.000127475
0.000158245
9.16667e-05
8.78379e-06
-5.50727e-06
0.00047472
-0.00153121
-0.000799918
0.00198823
1.79108e-05
-2.10611e-05
-7.86986e-06
7.73427e-06
-5.65189e-06
6.02891e-06
2.41943e-05
-2.79471e-05
-1.19284e-05
-9.67114e-06
3.26946e-05
-3.9219e-05
-2.04986e-05
-1.55283e-05
4.74685e-05
-5.8056e-05
-3.51685e-05
-2.6456e-05
7.37445e-05
-9.98348e-05
-7.36345e-05
-4.89039e-05
0.000147685
-0.000246813
-0.000212702
-0.000120541
0.000449013
-0.000874625
-0.000877275
-0.000397121
-0.00108686
-0.000310265
0.00017962
-0.000323961
-0.000816147
-0.000115699
8.24026e-05
-9.5769e-05
-0.00016539
-6.24559e-05
4.92834e-05
-4.29072e-05
4.00468e-05
-6.17802e-05
5.36825e-05
-3.99354e-05
3.32293e-05
-2.32312e-05
2.2641e-05
-3.09304e-05
2.99105e-05
-2.79348e-05
2.35143e-05
-1.42634e-05
-1.78775e-05
1.75931e-05
-1.14847e-05
-1.17543e-05
-1.90952e-06
-5.20571e-06
-4.25238e-05
-2.43029e-06
-7.53687e-06
-9.25635e-05
-2.87129e-06
-1.12158e-05
-0.000173327
-3.17752e-06
-1.60165e-05
-0.00030264
-3.36977e-06
-2.02269e-05
-0.000495655
-4.53878e-06
-1.68412e-05
-0.000767895
-6.73771e-06
1.47417e-05
-0.000760414
-1.542e-05
5.38138e-05
-0.000707859
-2.59844e-05
7.33457e-05
-3.47433e-05
-0.000625843
8.72068e-05
-0.000628999
0.000713148
2.96619e-05
-0.000522404
-3.40442e-05
9.01073e-05
-3.03844e-05
-0.000408144
8.45853e-05
0.000521612
-0.000402418
2.82071e-05
3.00409e-05
-0.000765814
0.000774914
2.30151e-05
2.83751e-05
-0.000492392
0.000302104
-2.55308e-05
-1.98758e-06
-0.000173239
9.28018e-05
-2.16647e-05
-2.64317e-05
-4.29154e-05
1.22148e-05
-1.20297e-05
-1.63865e-05
-8.84206e-06
9.80356e-06
-1.10061e-05
6.39628e-06
5.27253e-06
1.21758e-05
-1.34608e-05
8.97415e-06
7.64965e-06
1.4912e-05
-1.63421e-05
1.22374e-05
1.04894e-05
1.77177e-05
-1.99357e-05
1.6548e-05
1.43337e-05
2.21249e-05
-2.45094e-05
2.24784e-05
1.97926e-05
2.59747e-05
-2.76925e-05
3.12238e-05
2.65458e-05
2.91804e-05
-3.06424e-05
4.21701e-05
3.68091e-05
0.00123132
-0.00115601
0.00157767
4.83492e-05
-3.11708e-05
6.45012e-05
-8.99492e-05
3.0429e-05
-4.66411e-05
4.0399e-05
5.83163e-05
7.76504e-05
-0.000102187
-7.31444e-05
6.08815e-05
-8.74537e-05
-5.69122e-05
5.7605e-05
7.12089e-05
-3.49782e-05
3.14934e-05
4.37703e-05
4.95597e-05
-3.00649e-05
2.81009e-05
3.48744e-05
3.95428e-05
-2.60742e-05
2.37859e-05
2.64715e-05
3.04017e-05
-2.20989e-05
2.0443e-05
2.00875e-05
2.30858e-05
-1.87169e-05
1.67935e-05
1.46019e-05
1.72532e-05
-1.48436e-05
1.29037e-05
1.02665e-05
1.22679e-05
-1.11614e-05
9.65777e-06
7.27269e-06
8.58819e-06
6.14656e-06
5.71838e-06
-6.0649e-06
8.31029e-06
7.62078e-06
6.31427e-06
-6.42953e-06
9.79194e-06
9.041e-06
6.43525e-06
-6.31557e-06
1.13847e-05
1.05926e-05
0.00104344
0.00156733
-0.00143181
-0.00105747
0.00199137
-0.00207204
0.000633073
-0.000409055
0.000291435
-0.000373655
-0.000163754
-9.42656e-05
0.000109665
-0.000156188
-0.000105642
0.000275146
-0.000367131
5.80139e-06
5.30239e-06
0.000922579
-0.0013495
-0.000661161
-6.31043e-07
-2.74148e-06
-2.81101e-05
-4.02117e-06
-2.79263e-05
-7.92992e-06
3.1654e-06
7.42078e-06
0.00279491
0.00150395
-0.00113178
-0.00289789
-0.000629894
0.000702292
0.000137536
-0.000536399
0.000147153
0.00114141
-0.000898476
0.000158429
2.93388e-05
-1.14992e-06
-2.45931e-05
-0.000135807
-8.05952e-05
-0.00109109
0.00103792
-0.000961075
-3.89037e-06
4.40055e-06
9.21094e-06
-3.83314e-06
9.6885e-06
-2.77697e-05
2.48603e-05
-6.19997e-06
-2.44817e-06
-4.31106e-07
-2.86619e-05
-5.46908e-06
-2.83859e-05
4.38891e-06
-4.70624e-06
6.01528e-06
4.01441e-06
5.57124e-06
6.64689e-06
-7.54071e-06
4.75168e-06
5.83687e-06
4.10367e-06
1.05085e-05
-0.000272099
3.39401e-05
-0.000292181
7.03487e-05
-9.39458e-05
-2.1187e-05
7.60745e-05
-0.000124977
-3.79972e-05
3.17209e-05
0.00129391
-0.00108326
-0.00109048
-8.84827e-05
-3.92405e-05
7.60108e-05
3.16526e-05
-0.000121316
-6.54134e-05
0.000183839
6.35928e-05
-5.19427e-05
-0.00148312
-0.00112221
0.00169213
0.00175056
-0.0018834
0.000742992
-5.2943e-07
-6.13949e-07
4.2199e-07
1.65209e-07
1.22144e-05
-1.47761e-05
-6.05793e-06
-5.31553e-06
5.47782e-06
9.44816e-06
-5.01652e-06
1.00759e-05
-0.000168435
-0.000180828
-4.55491e-06
4.83916e-06
4.14929e-06
4.80156e-06
-4.91435e-06
6.43832e-06
5.65123e-06
4.95214e-06
-4.7266e-06
8.02178e-06
-9.87516e-06
7.24614e-06
8.73896e-06
1.88155e-05
-2.21606e-05
-8.01691e-06
-6.89195e-06
2.60836e-05
-3.07298e-05
-1.21614e-05
-9.85481e-06
3.66253e-05
-4.45521e-05
-2.03988e-05
-1.56387e-05
5.48055e-05
-7.00754e-05
-3.76253e-05
-2.74026e-05
9.48197e-05
-0.000139399
-9.01834e-05
-5.58062e-05
0.000226694
-0.000404589
-0.000297711
-0.000158774
0.000848662
-0.00099609
-0.000981062
-0.000677726
-0.00115255
0.00112676
-0.00110687
-0.00161366
-0.00115581
0.00163506
-0.000932963
0.000929203
-0.00118081
-0.00128509
-0.000925871
-0.000599885
0.000308732
-0.000529107
-0.00103906
-0.000173239
0.000110677
-0.000124565
-0.000239564
-7.7996e-05
5.89453e-05
-4.67064e-05
-7.26833e-05
-4.63221e-05
3.76276e-05
-2.33442e-05
-3.17923e-05
-3.10473e-05
2.58886e-05
-1.40603e-05
-1.76719e-05
-2.15536e-05
1.79049e-05
-9.09927e-06
-1.12485e-05
-7.37426e-06
-1.82685e-05
6.00997e-06
-9.17676e-06
-7.31886e-06
1.4229e-05
-4.62683e-05
-1.73067e-05
-1.23369e-05
9.70177e-05
-0.000175728
-3.37296e-05
-2.46388e-05
0.00029474
-0.000462517
-3.75551e-05
-4.15427e-05
0.000735668
-0.000753895
7.83465e-05
3.01363e-06
0.000114187
-2.72105e-05
2.39735e-05
-7.46798e-06
3.32637e-06
-6.3718e-06
-2.80684e-05
-2.85604e-05
3.95678e-05
2.61028e-05
0.000282472
0.000106757
0.00216062
0.000353782
-0.00238083
4.59778e-05
-0.000407112
0.000524338
0.00010152
8.79257e-05
-0.000631157
0.000711903
9.41213e-05
0.000100091
-0.000767251
0.000746375
4.40114e-05
7.60135e-05
-0.000463333
0.000294916
-4.68267e-05
-1.54554e-05
-0.000175786
9.74123e-05
-3.75303e-05
-4.61081e-05
-4.71688e-05
1.54622e-05
-2.09206e-05
-2.84921e-05
4.60638e-06
-1.70573e-05
-1.16273e-05
-1.54219e-05
-9.11341e-06
8.76616e-06
-9.68883e-06
5.47394e-06
4.46564e-06
1.06985e-05
-1.17887e-05
7.70485e-06
6.55769e-06
1.29921e-05
-1.43802e-05
1.0633e-05
9.02768e-06
1.58156e-05
-1.76146e-05
1.45795e-05
1.24136e-05
1.87552e-05
-2.03389e-05
1.94048e-05
1.67259e-05
2.16692e-05
-2.30649e-05
2.66511e-05
2.26272e-05
2.37715e-05
-2.44708e-05
3.50842e-05
3.07032e-05
2.44639e-05
-2.37333e-05
4.51621e-05
-5.64662e-05
3.93736e-05
2.23455e-05
-1.93072e-05
5.64737e-05
5.09136e-05
8.14559e-05
-0.000107431
-2.25931e-05
1.69792e-05
-1.5437e-05
6.40707e-05
5.99209e-05
8.93928e-05
-5.35146e-05
-0.000108107
-1.32286e-05
1.8578e-05
6.60967e-05
8.70283e-05
-2.20084e-05
-0.000117193
2.03079e-05
8.70313e-06
-9.72259e-06
7.10633e-05
6.95616e-05
-9.12155e-05
-1.81548e-05
2.58208e-05
6.0693e-05
-8.18234e-05
6.32425e-05
-2.92923e-05
2.90767e-05
4.76908e-05
5.39431e-05
-2.74874e-05
2.58018e-05
3.7559e-05
4.20662e-05
-2.475e-05
2.34841e-05
2.97467e-05
3.35392e-05
-2.20595e-05
2.05416e-05
2.28231e-05
2.60859e-05
-1.90575e-05
1.7597e-05
1.72874e-05
1.98991e-05
-1.60903e-05
1.44713e-05
1.26652e-05
1.48694e-05
-1.2841e-05
1.12559e-05
9.03248e-06
1.07039e-05
-9.82274e-06
8.59674e-06
6.50492e-06
7.61894e-06
5.56603e-06
5.02032e-06
-5.26803e-06
7.04658e-06
6.52614e-06
5.45841e-06
-5.53598e-06
8.2062e-06
7.62483e-06
8.81469e-06
0.000175566
0.000192956
-0.00196708
7.89117e-05
-2.64846e-05
0.00208787
-0.000429466
0.000150216
0.000495648
-0.000687626
-0.000248779
-0.000115605
-0.000237213
-0.000138671
0.000462256
-0.000732994
9.60704e-06
-4.747e-06
-1.01599e-05
-0.0002207
-0.000219543
0.000235811
0.000286767
0.00129462
-0.00092665
-4.97555e-05
-0.000133632
8.24395e-05
-2.69046e-05
2.35548e-05
-9.9602e-06
-2.78395e-05
-8.93782e-06
3.55163e-06
-3.99774e-06
4.0436e-06
0.00179868
-0.000137128
0.000436617
4.26532e-06
3.5608e-06
-3.8059e-06
3.96044e-06
3.23385e-06
2.87258e-06
3.48444e-06
3.51288e-06
5.2146e-06
1.30014e-05
-1.58527e-05
-5.62022e-06
1.06996e-05
-4.63735e-06
-0.000160239
7.2106e-05
-0.00115072
0.00109457
0.00133192
-0.00113372
0.00108124
-0.00122395
-0.000899285
-0.000184163
0.000220365
-2.84266e-06
2.50242e-06
-0.000624595
0.000691752
0.000180136
-0.000540882
0.000204481
-0.00105355
-0.00144196
0.00114842
-0.000941027
0.00127561
-0.00119486
-0.0014733
0.0011659
-0.000953685
-0.000207518
-7.60449e-05
0.00138383
-0.00101677
0.00121703
-0.00106434
-0.000198871
-0.000102331
-0.00144323
0.00104556
-2.59683e-05
2.21286e-05
-1.11414e-05
-2.728e-05
-9.83286e-06
0.00184955
-0.00173367
0.00108616
-0.00106887
-0.000114075
4.44688e-05
0.000228248
-6.71906e-06
6.31102e-05
-0.00157272
0.0010213
0.00137897
-0.00119769
-0.0011821
-0.000167173
-3.94274e-05
-8.93516e-05
-1.33039e-05
6.83159e-05
-2.10262e-05
-0.000128458
-9.7174e-05
-9.00977e-06
7.39433e-05
-1.92629e-05
-0.00015145
-0.000168386
-7.59142e-05
0.0011738
-0.00113841
0.00138773
0.00106403
-0.00142413
-0.000875887
-0.000307186
0.000139334
-7.27678e-07
-1.211e-07
3.90083e-07
1.6316e-08
-0.00169503
0.00064591
0.00191947
-0.00155668
0.00104978
0.00137836
-0.000780168
-0.000253937
-0.000288513
4.31113e-06
-4.50546e-06
5.30731e-06
4.6747e-06
4.57223e-06
-4.47539e-06
6.54451e-06
5.95516e-06
4.28389e-06
-4.10002e-06
7.65015e-06
7.16214e-06
3.88021e-06
-3.88519e-06
8.25675e-06
8.1133e-06
-1.00865e-05
8.6355e-06
-3.86673e-06
1.12615e-05
-1.67276e-05
-7.5488e-06
1.07048e-05
-5.21773e-06
1.95894e-05
-2.35744e-05
-7.71319e-06
-7.23213e-06
2.82403e-05
-3.39581e-05
-1.17133e-05
-9.53787e-06
4.11215e-05
-5.06613e-05
-2.01917e-05
-1.52341e-05
6.47365e-05
-8.65971e-05
-4.05944e-05
-2.78231e-05
0.000125821
-0.000201087
-0.000109389
-6.35837e-05
0.000354062
-0.000655979
-0.000392789
-0.000202371
0.00105638
-0.00118714
-0.00088922
-0.000757441
0.00125074
-0.00134166
-0.00114593
-0.00102514
-0.00123077
-0.00110846
-0.00140875
0.00133724
-0.00111881
0.00135495
-0.00107055
-0.00126115
0.00116835
-0.000993097
-0.00107289
-0.00100917
0.000515346
-0.000739897
-0.000892519
-0.000276818
0.000156083
-0.000156069
-0.000319889
-0.000100145
7.07659e-05
-5.02582e-05
-8.49475e-05
-5.36399e-05
4.25072e-05
-2.30104e-05
-3.2578e-05
-3.44649e-05
2.83344e-05
-1.33572e-05
-1.69773e-05
-2.34012e-05
1.92863e-05
-8.56e-06
-1.06754e-05
-6.90904e-06
-1.61385e-05
2.45982e-06
-1.4558e-05
-1.16734e-05
1.9266e-05
-5.33186e-05
-2.62673e-05
-1.92398e-05
0.000105052
-0.000180394
-4.77394e-05
-3.61434e-05
0.000284108
-0.000419548
-5.37887e-05
-5.68781e-05
0.000647095
-0.000739411
5.72611e-05
-2.1481e-05
0.00013418
-3.18713e-07
-2.20731e-06
-2.72976e-05
2.85639e-06
-5.63965e-06
-2.70163e-05
-2.72477e-05
-5.33432e-05
-0.000194632
4.96634e-06
-2.707e-05
-8.31268e-06
-2.71703e-05
-7.15154e-05
0.000134252
0.000126013
-8.28987e-05
7.95345e-05
-4.93615e-05
-0.000224251
0.000317207
0.000177404
0.00016724
-0.000416794
0.000521753
0.000172225
0.000163099
-0.000618292
0.000693834
0.000142706
0.000164628
-0.000746983
0.000665733
2.78743e-05
9.35541e-05
-0.000428016
0.000286584
-6.25545e-05
-3.9634e-05
-0.000180598
0.000105351
-4.97998e-05
-6.01683e-05
-5.43462e-05
2.09355e-05
-2.86419e-05
-3.83108e-05
2.86866e-07
-1.42692e-05
-1.65176e-05
-2.14734e-05
-1.3241e-05
4.15864e-06
-4.65942e-06
3.07409e-06
-3.59787e-06
2.99032e-06
2.40588e-06
2.70036e-06
5.6398e-06
-6.81692e-06
3.1624e-06
3.00137e-06
-3.05273e-06
7.63742e-06
-8.46346e-06
4.70881e-06
3.88228e-06
9.34276e-06
-1.02632e-05
6.56925e-06
5.61859e-06
1.13523e-05
-1.24646e-05
9.06704e-06
7.75202e-06
1.36741e-05
-1.48525e-05
1.23675e-05
1.05958e-05
1.61222e-05
-1.74259e-05
1.64948e-05
1.42202e-05
1.85963e-05
-1.9417e-05
2.22289e-05
1.91058e-05
1.98556e-05
-2.01276e-05
2.88844e-05
2.53387e-05
2.03031e-05
-1.98988e-05
3.66258e-05
3.23485e-05
1.85835e-05
-1.65833e-05
4.48289e-05
4.06385e-05
1.47085e-05
-1.27019e-05
5.10041e-05
4.78398e-05
7.28129e-05
-1.03196e-05
-9.87619e-05
1.03288e-05
-7.70594e-06
5.67379e-05
5.37921e-05
-4.6506e-06
-7.72417e-05
5.92342e-05
-1.374e-06
-8.00898e-05
6.07034e-05
7.86349e-05
-4.96807e-06
-0.000111664
-2.74127e-06
5.57528e-06
6.0491e-05
-8.30603e-05
6.17779e-05
-7.46675e-06
9.97823e-06
5.64806e-05
5.85928e-05
-1.27679e-05
1.44392e-05
5.31051e-05
5.51205e-05
-1.74399e-05
2.06571e-05
4.74928e-05
4.98244e-05
-2.17537e-05
2.20367e-05
3.88476e-05
4.33055e-05
-2.16344e-05
2.10452e-05
3.13237e-05
3.48786e-05
-2.04341e-05
1.96248e-05
2.49737e-05
2.80165e-05
-1.863e-05
1.75151e-05
1.92837e-05
2.19926e-05
-1.63432e-05
1.51135e-05
1.45937e-05
1.68138e-05
-1.38296e-05
1.24804e-05
1.07294e-05
1.25527e-05
-1.11373e-05
9.85625e-06
7.75484e-06
9.11533e-06
-8.70574e-06
7.72614e-06
5.70121e-06
6.60908e-06
-6.88588e-06
6.15605e-06
4.24136e-06
4.93808e-06
-5.44541e-06
4.85407e-06
2.98553e-06
3.71176e-06
3.50541e-06
-3.65992e-06
4.28406e-06
3.59659e-06
3.94208e-06
-4.22767e-06
5.1319e-06
4.72991e-06
4.48147e-06
-4.68865e-06
5.96505e-06
5.54418e-06
4.81686e-06
-4.85585e-06
6.87409e-06
6.41005e-06
4.78123e-06
-4.59551e-06
7.83421e-06
7.3429e-06
4.31493e-06
8.77467e-06
-3.92463e-06
8.32101e-06
0.000202906
-0.000151006
5.47687e-05
-2.5512e-05
4.90729e-05
5.19664e-05
0.00172409
-0.00185534
-0.000641215
-0.000439412
0.000219401
-0.000680354
-0.00213443
0.000911858
-0.0011667
0.00122551
-0.00141205
0.000300177
0.000100075
0.00148931
0.00127177
0.000715062
-0.00160121
0.00117951
0.000911177
-0.000740382
-0.000413268
-0.000159555
0.0010858
-0.000879843
1.64542e-06
-0.000125309
-6.54026e-06
-0.000108814
0.00098429
-0.000923117
-0.000394991
-0.00020374
-0.00132528
0.00107116
0.00160271
-0.000898534
0.00105306
-0.000453767
6.02432e-08
-1.31998e-07
-1.38424e-06
0.00128274
-0.00115113
0.00118817
-0.00121512
0.00128582
-0.00121706
-0.00140025
0.00138282
-0.000960689
-9.00283e-06
-2.67703e-05
-0.000112083
0.00020542
5.13549e-05
-1.40039e-05
9.17543e-05
2.11749e-06
-2.64192e-06
2.47427e-06
-2.73092e-06
1.73175e-06
2.12515e-06
-3.27311e-06
1.91843e-06
0.000164291
-0.00142546
0.00116254
0.00145515
-0.00102608
-0.000320403
-8.83923e-05
-1.76631e-05
-0.000153896
-1.28172e-05
-0.000194868
-0.000323548
-0.000137382
0.00127425
-0.00110948
-0.00153743
0.000915105
0.00176066
-3.49259e-06
3.64893e-06
6.89748e-06
-3.27318e-06
7.16269e-06
-0.000168953
0.000140591
0.000453451
-0.00178787
-0.00177837
0.00197721
0.000383328
-0.000360903
0.000224057
0.000171708
-0.000109883
-8.97902e-05
-0.000247736
0.0012722
0.000944343
-0.00141027
-7.44991e-05
-1.0268e-05
-2.78465e-05
0.000220618
-0.00155153
0.0010398
-1.42189e-05
3.02308e-05
-0.0015491
0.00144325
-0.000983097
-0.000222359
-4.08573e-05
-5.24942e-05
-0.000294042
0.00117264
-0.00126625
-0.000978716
-3.42988e-06
3.77541e-06
7.18769e-06
9.21772e-06
-1.12799e-05
-3.46942e-06
-3.0162e-06
7.50135e-06
-8.18001e-06
4.83932e-06
-2.41604e-05
-2.66577e-05
2.68451e-05
-1.26095e-05
-1.2429e-05
-2.44384e-05
-0.000322671
0.000219872
-3.28962e-06
3.48048e-06
-0.00144932
0.000666269
0.00140853
-0.000981374
-0.00133445
0.00107034
0.00114839
-3.43919e-05
2.96078e-05
-3.04662e-05
4.06471e-05
4.86666e-05
-0.000396375
-0.000116512
-0.000482118
0.000860414
-0.00140525
-0.000678881
3.11809e-06
-3.55539e-06
3.33849e-06
2.86078e-06
3.87194e-06
-4.08203e-06
4.33642e-06
3.82119e-06
4.18209e-06
-4.16427e-06
5.33287e-06
4.8662e-06
4.06833e-06
-3.89028e-06
6.27703e-06
5.86962e-06
6.68158e-06
-1.08281e-05
9.07718e-06
-3.65192e-06
1.3304e-05
-1.73261e-05
-5.94321e-06
-4.62135e-06
2.11363e-05
-2.52292e-05
-7.4301e-06
-6.54728e-06
3.06231e-05
-3.70476e-05
-1.10178e-05
-8.74003e-06
4.56441e-05
-5.77746e-05
-1.9402e-05
-1.43094e-05
7.66407e-05
-0.000109228
-4.23441e-05
-2.78171e-05
0.000168407
-0.000284173
-0.000127808
-7.10161e-05
0.000503509
-0.00097573
-0.000514807
-0.000241559
0.00117878
-0.0012793
-0.000755772
-0.000682033
0.00137661
-0.00148278
-0.000914524
-0.000837588
-0.000960604
0.00126766
-0.00135457
-0.000880294
0.00105549
-0.00104165
-0.00130544
0.00121734
-0.000817914
-0.00088164
-0.00112345
0.00086636
-0.000659836
-0.000748886
-0.000398244
0.000214795
-0.000182777
-0.000382013
-0.000128915
8.58368e-05
-5.33984e-05
-9.57135e-05
-6.18046e-05
4.76601e-05
-2.21867e-05
-3.21705e-05
-3.80034e-05
3.09123e-05
-1.22885e-05
-1.58175e-05
-2.52669e-05
2.07099e-05
-7.76327e-06
-9.67834e-06
-1.69089e-05
1.38139e-05
-5.05072e-06
-6.20627e-06
-4.11619e-06
-2.54154e-05
2.13206e-05
-1.4258e-05
-1.3171e-05
-1.26356e-05
-2.86283e-06
-1.98701e-05
-1.63232e-05
2.66734e-05
-6.30967e-05
-3.34239e-05
-2.53907e-05
0.000115631
-0.000186811
-5.58048e-05
-4.4112e-05
0.000276867
-0.000382198
-6.39878e-05
-6.46476e-05
0.00049776
-0.000672735
1.21391e-05
-4.40616e-05
0.000681599
-0.000614757
0.000191128
0.000103808
0.000534226
-0.000438871
0.000274976
0.000252231
-5.37528e-06
2.6435e-06
-2.37961e-05
-2.62125e-05
2.60694e-05
-1.32968e-05
8.74229e-06
-1.30081e-05
-2.42181e-05
-2.40223e-05
-2.62556e-07
-2.12056e-06
-2.38231e-05
-2.38092e-05
-2.38494e-05
-7.62324e-05
0.000155991
0.000179484
0.000126324
-0.000248264
0.000348017
0.000234448
0.000210669
-0.000441307
0.000527859
0.000230746
0.000226921
-0.000608445
0.000671504
0.000153915
0.000210095
-0.000679737
0.00051753
-4.6689e-06
7.30059e-05
-0.000396352
0.000282789
-7.23622e-05
-5.7709e-05
-0.000188228
0.00011572
-5.71528e-05
-6.8184e-05
-6.39213e-05
2.83921e-05
-3.4496e-05
-4.50499e-05
-5.02242e-06
-1.03664e-05
-2.11052e-05
-2.66292e-05
1.94906e-05
-2.41659e-05
-1.52482e-05
-1.74848e-05
-1.39967e-05
3.83057e-06
-4.26832e-06
2.48708e-06
2.22141e-06
4.96723e-06
-5.85783e-06
2.92376e-06
2.65307e-06
6.65553e-06
-7.40473e-06
4.05645e-06
3.42375e-06
8.16863e-06
-8.97875e-06
5.59151e-06
4.79448e-06
9.85281e-06
-1.07547e-05
7.61781e-06
6.55611e-06
1.17295e-05
-1.26611e-05
1.02696e-05
8.88415e-06
1.37005e-05
-1.48372e-05
1.38258e-05
1.1866e-05
1.58005e-05
-1.64766e-05
1.82465e-05
1.58453e-05
1.68693e-05
-1.69931e-05
2.34464e-05
2.06546e-05
1.70839e-05
-1.65418e-05
2.94264e-05
2.63678e-05
1.56398e-05
-1.41658e-05
3.5625e-05
3.25481e-05
1.25814e-05
-1.07594e-05
4.05229e-05
3.80901e-05
8.69479e-06
-6.4581e-06
4.47255e-05
4.25437e-05
3.87609e-06
-1.26331e-06
4.74569e-05
4.636e-05
-1.582e-06
4.06081e-06
4.75567e-05
4.80003e-05
-6.2952e-06
8.31445e-06
4.50564e-05
4.6463e-05
-1.04997e-05
1.2562e-05
4.21376e-05
4.37911e-05
-1.43025e-05
1.62186e-05
3.74514e-05
3.96215e-05
-1.72647e-05
1.75743e-05
3.14207e-05
3.45584e-05
-1.75246e-05
1.72767e-05
2.56315e-05
2.84288e-05
-1.69044e-05
1.64299e-05
2.04985e-05
2.29891e-05
-1.57564e-05
1.49267e-05
1.59082e-05
1.81142e-05
-1.40066e-05
1.30019e-05
1.20097e-05
1.38559e-05
-1.19384e-05
1.08347e-05
8.84202e-06
1.0323e-05
-9.74489e-06
8.71905e-06
6.48022e-06
7.55162e-06
-7.79895e-06
7.00447e-06
4.88409e-06
5.58904e-06
-6.32448e-06
5.74236e-06
3.67772e-06
4.2752e-06
-5.31942e-06
2.17918e-06
5.16143e-06
3.10966e-06
3.55229e-06
-3.82022e-06
4.28881e-06
3.89983e-06
4.05003e-06
-4.22163e-06
4.99328e-06
4.64205e-06
4.32669e-06
-4.33198e-06
5.72168e-06
5.35664e-06
4.24859e-06
-4.06128e-06
6.4793e-06
6.10187e-06
6.83902e-06
-2.55963e-06
-0.00098481
0.000342432
0.00125177
-0.000505996
2.67204e-05
-0.000208069
-0.000123645
0.000350018
-2.3271e-06
1.8239e-06
1.29454e-06
0.00120215
0.00107478
-0.00126946
0.00118265
0.00104591
0.00139489
0.00147724
-0.000896698
-0.000672631
-0.000221704
-1.32478e-05
-0.000180371
2.96396e-06
-0.000238701
-0.00067326
-0.000329232
0.00132895
-0.00100986
-0.00142728
0.00106449
-3.81396e-05
3.51195e-05
7.46924e-06
-2.97926e-06
0.00168018
-0.000680263
0.00173802
0.00084869
-0.00183126
0.000183194
0.00012842
-0.00012892
0.00137892
-0.00114262
-1.89933e-05
0.000108416
-2.87663e-06
1.49283e-06
-0.00191694
0.00055533
-0.00166999
0.00173602
0.000769465
-0.000715227
-2.44926e-05
2.3769e-05
-1.83791e-05
-2.31231e-05
-1.81042e-05
0.000280855
0.000215978
1.01162e-05
7.29835e-05
-0.000125873
-0.000391271
0.000234364
0.00018549
0.00120985
0.00109443
-0.0014551
0.00120187
0.000131649
-3.83715e-05
-2.99673e-05
0.00155537
-0.00100581
-0.000478116
-0.000102182
-4.03249e-05
-0.000299316
-3.47006e-05
-0.000461924
-0.000526564
-0.000197855
0.00131119
-0.00115554
-0.00140079
0.00114441
1.93747e-06
-2.39479e-06
1.94047e-06
1.52607e-06
1.60401e-06
9.68663e-06
-1.19129e-05
-2.91836e-06
7.83591e-06
-2.53134e-06
-3.08163e-06
3.40844e-06
5.81394e-06
-2.71365e-06
6.04153e-06
-2.50584e-05
2.46926e-05
-1.77216e-05
-2.34272e-05
-1.75192e-05
-8.6912e-06
5.22096e-06
-1.88261e-05
-1.26588e-05
-2.00184e-05
-0.00168745
3.78804e-05
-0.000183256
0.000220132
2.59393e-06
-2.89626e-06
2.75572e-06
2.22933e-06
2.39362e-06
-0.000325465
0.000282987
1.35339e-06
-3.93658e-06
2.96864e-06
-0.00143947
0.00115963
4.93231e-08
-1.19211e-06
6.6121e-07
0.00117925
4.18678e-05
-0.000674323
-0.000208122
-0.000858072
0.00102719
-0.00147547
2.81517e-06
-3.19532e-06
2.65997e-06
2.24956e-06
3.48136e-06
-3.69801e-06
3.48108e-06
3.03711e-06
3.79518e-06
-3.83124e-06
4.30383e-06
3.89522e-06
3.73751e-06
-3.61793e-06
5.09163e-06
4.71342e-06
3.39736e-06
-3.18412e-06
5.59507e-06
5.38341e-06
2.95627e-06
-2.68932e-06
6.03612e-06
5.80792e-06
-7.81669e-06
6.2659e-06
-2.3445e-06
9.54897e-06
-1.16776e-05
-3.15694e-06
-2.62332e-06
1.44327e-05
-1.80654e-05
-4.84825e-06
-3.87761e-06
2.21881e-05
-2.71406e-05
-6.39556e-06
-5.58711e-06
3.30385e-05
-4.05075e-05
-9.82992e-06
-7.6882e-06
5.05736e-05
-6.57589e-05
-1.80499e-05
-1.30808e-05
9.12117e-05
-0.000136253
-4.2499e-05
-2.64383e-05
0.000221525
-0.000387803
-0.000136764
-7.36294e-05
0.000696819
-0.00109923
-0.000492673
-0.000264898
0.00126582
-0.00134319
-0.000612748
-0.000561192
0.00143137
-0.00154911
-0.000700302
-0.000659083
-0.00069976
-0.00102705
0.000819273
0.00220618
-0.00142059
0.00142875
-0.000870435
-0.000953581
-0.00137625
0.00129956
-0.000657948
-0.000741965
-0.00120517
0.0010195
-0.000519778
-0.000589013
-0.000525206
0.000289101
-0.000191686
-0.000401387
-0.000164684
0.000103419
-5.27722e-05
-9.79553e-05
-7.10994e-05
5.31078e-05
-2.04331e-05
-3.01247e-05
-4.15175e-05
3.34392e-05
-1.08556e-05
-1.40703e-05
-2.70987e-05
2.20188e-05
-6.64964e-06
-8.33264e-06
-1.79495e-05
1.45893e-05
-4.31189e-06
-5.32892e-06
-3.54187e-06
-2.2569e-05
1.73956e-05
-1.90273e-05
-1.80559e-05
-7.13509e-06
-9.93811e-06
-2.47116e-05
-2.11827e-05
3.61409e-05
-7.4567e-05
-3.79277e-05
-3.01618e-05
0.000127269
-0.000194469
-5.85948e-05
-4.786e-05
0.000273744
-0.000359387
-6.99149e-05
-6.72808e-05
0.000442918
-0.000513799
-2.59078e-05
-6.01687e-05
0.000600081
-0.000590358
0.000143348
4.69375e-05
0.00051697
-0.000433737
0.000308792
0.000248367
-5.69256e-06
2.72765e-06
-1.823e-05
9.17374e-06
-1.31578e-05
-1.99327e-05
-1.87851e-05
-2.40645e-07
-2.25464e-06
-1.80884e-05
-1.80927e-05
-1.82332e-05
-9.92843e-05
0.00018343
0.000248542
0.000217812
-0.0002719