/*--------------------------------*- C++ -*----------------------------------*\
| =========                 |                                                 |
| \\      /  F ield         | OpenFOAM: The Open Source CFD Toolbox           |
|  \\    /   O peration     | Version:  2212                                  |
|   \\  /    A nd           | Website:  www.openfoam.com                      |
|    \\/     M anipulation  |                                                 |
\*---------------------------------------------------------------------------*/
FoamFile
{
    version     2.0;
    format      ascii;
    arch        "LSB;label=32;scalar=64";
    class       volVectorField;
    location    "0.088";
    object      U;
}
// * * * * * * * * * * * * * * * * * * * * * * * * * * * * * * * * * * * * * //

dimensions      [0 1 -1 0 0 0 0];

internalField   nonuniform List<vector> 
7220
(
(121.555 725.989 -2.85563e-17)
(22.9431 23.7243 2.29008e-17)
(21.9938 22.5563 1.14598e-17)
(19.3614 20.8715 1.4157e-17)
(21.6861 23.7328 -2.24265e-17)
(20.583 22.3423 -1.60915e-21)
(-22.0217 22.642 0)
(-21.6427 23.7462 2.33981e-17)
(-19.3433 20.8844 0)
(-20.5513 22.3532 0)
(148.701 689.254 -5.38438e-19)
(-69.5068 -25.0089 -2.09373e-16)
(25.6205 177.369 1.07296e-17)
(-130.618 604.444 1.32639e-16)
(190.695 581.199 1.33752e-16)
(-38.5814 -13.1356 9.39631e-17)
(-46.6126 436.483 0)
(-0.941911 686.038 -3.38132e-16)
(-34.2758 427.95 3.86751e-17)
(79.8262 692.866 -1.71674e-16)
(0.547765 342.72 4.32299e-17)
(-67.3004 103.607 3.02725e-16)
(4.29899 13.4081 1.68184e-16)
(70.7108 114.61 2.29305e-16)
(-35.1099 22.2463 1.57315e-16)
(-75.614 18.7806 -3.40213e-16)
(-21.9797 12.5814 1.07195e-16)
(-116.55 651.099 1.25853e-16)
(-2.74442 344.82 -4.13809e-17)
(33.8629 259.273 7.36502e-17)
(31.0912 29.6164 9.53817e-17)
(37.7596 221.324 -2.1842e-17)
(22.6302 32.0278 4.08873e-16)
(28.0199 280.788 -4.05233e-17)
(38.0746 13.2076 -1.72444e-16)
(-37.0215 768.384 -2.25478e-16)
(23.3865 21.5535 5.68251e-18)
(132.525 673.94 0)
(134.973 690.616 -2.95781e-21)
(0.620294 593.741 -1.02256e-21)
(1.10985 592.907 -4.09509e-21)
(0.31145 592.648 -2.62624e-19)
(0.786149 593.488 2.31654e-19)
(7.28191 777.799 -5.08394e-17)
(11.0665 778.6 -2.1768e-16)
(2.52098 780.001 -3.65791e-17)
(2.50191 779.901 6.84298e-18)
(2.65463 779.415 -6.78799e-17)
(1.12549 592.108 5.19541e-19)
(0.152191 591.218 -5.20518e-19)
(0.324406 591.4 -4.91918e-19)
(0.102603 592.039 5.27163e-19)
(-2.02969 589.667 5.31424e-19)
(-4.99105 587.523 -1.57537e-18)
(2.90421 588.418 5.40415e-19)
(1.15757 590.247 -5.63193e-19)
(-7.36865 584.83 -1.20923e-20)
(-8.43995 583.641 2.01091e-18)
(5.16314 582.679 1.05713e-18)
(4.41181 585.614 -5.30689e-19)
(-8.79459 582.374 -1.04522e-18)
(-0.48935 580.672 1.0376e-18)
(3.94213 579.648 -5.26871e-19)
(5.48726 581.271 -1.05792e-18)
(16.579 583.607 -1.07911e-18)
(41.1127 596.403 0)
(-22.3491 585.934 1.10038e-18)
(-7.95237 578.125 4.83079e-20)
(62.8611 617.828 0)
(75.2876 640.213 -9.10339e-20)
(-41.8345 638.542 3.12998e-20)
(-34.3616 607.627 1.48481e-20)
(73.911 667.849 1.8402e-18)
(58.8061 702.928 -6.13637e-20)
(-30.1837 707.512 -1.966e-18)
(-40.4119 671.545 1.60386e-18)
(38.1484 731.703 -2.1513e-19)
(23.8513 750.661 -8.69228e-18)
(-10.8828 753.939 2.49135e-18)
(-16.9547 736.318 4.71212e-19)
(13.9906 763.963 6.90918e-18)
(7.404 771.127 -2.07278e-17)
(-1.3868 772.743 6.71889e-18)
(-4.33254 766.099 -7.60765e-20)
(2.13679 778.416 -1.31058e-19)
(0.943492 776.414 -6.89118e-18)
(3.41093 775.295 7.0068e-18)
(0.59712 777.468 1.59716e-17)
(-1.86622 778.721 2.72818e-17)
(3.49652 775.858 2.66744e-17)
(-0.0951567 594.948 0)
(1.27904 594.655 3.29303e-20)
(1.46247 594.51 -8.26631e-21)
(1.63184 595.572 8.2237e-21)
(14.0542 778.024 -1.37765e-17)
(4.03167 778.859 -4.06753e-19)
(-4.26519 779.477 1.49893e-17)
(-6.32547 779.555 2.9863e-17)
(10.178 768.967 -7.32175e-18)
(41.9208 748.354 4.28188e-18)
(23.555 761.21 -9.04719e-19)
(101.007 701.034 0)
(69.3346 729.219 0)
(136.83 664.456 0)
(127.745 677.81 -4.26432e-19)
(120.092 645.754 0)
(132.868 654.574 6.19744e-20)
(65.8438 623.967 -9.75215e-19)
(96.9213 635.774 1.04123e-18)
(10.4342 591.584 -5.47823e-19)
(33.8903 606.224 0)
(-14.8595 584.904 -9.9903e-19)
(-7.40468 583.699 1.04352e-18)
(-10.7826 587.219 -5.28707e-19)
(-13.7229 585.812 4.89765e-19)
(-3.61535 592.918 8.17353e-21)
(-6.99116 590.184 5.43729e-19)
(-1.07051 596.462 0)
(-1.5403 595.007 4.10062e-21)
(5.15076 591.008 6.9098e-22)
(2.41979 593.046 0)
(12.3932 585.587 -1.51256e-20)
(8.8241 588.145 3.23062e-20)
(14.7823 583.286 -3.8707e-21)
(14.3059 584.785 0)
(-17.649 594.802 1.09122e-21)
(1.54999 584.163 0)
(-78.6689 626.543 -5.34366e-19)
(-45.1629 609.539 4.91801e-19)
(-121.303 650.444 -1.01054e-18)
(-106.651 639.369 9.35854e-19)
(-109.695 683.65 1.07239e-19)
(-123.238 664.027 -3.75473e-21)
(-49.9357 739.136 8.532e-19)
(-79.6005 713.07 -4.31668e-19)
(-12.0834 766.734 1.38968e-17)
(-26.8386 755.564 -3.71399e-18)
(-2.57888 772.487 1.34724e-17)
(1.95346 773.131 5.79066e-19)
(-1.48355 597.578 0)
(2.37319 596.552 0)
(10.703 773.235 -5.92049e-17)
(1.4232 769.232 6.67885e-18)
(15.9936 776.59 0)
(-6.95065 778.549 4.22934e-19)
(-4.31 775.27 -7.20413e-18)
(-9.2329 776.519 7.31283e-18)
(-1.66474 767.899 3.22563e-19)
(16.0666 774.849 0)
(-13.5006 777.131 7.20971e-18)
(-10.8579 770.778 7.26209e-18)
(29.1241 753.083 5.24132e-18)
(11.1286 762.826 -1.0293e-17)
(88.017 716.682 0)
(54.9766 738.505 -1.74864e-18)
(143.214 677.053 -9.70375e-19)
(121.395 691.766 2.03336e-18)
(154.436 665.294 2.31118e-19)
(152.533 669.979 0)
(145.595 659.414 4.65673e-19)
(151.475 662.332 -2.36116e-19)
(120.087 650.588 0)
(134.964 655.793 -2.94793e-20)
(70.3308 631.024 3.18167e-21)
(98.9123 642.48 0)
(11.3901 596.211 -2.70014e-19)
(37.7063 612.884 -7.29824e-21)
(-17.5973 587.439 4.86164e-19)
(-7.36806 586.563 2.54109e-19)
(-15.097 590.165 4.929e-19)
(-17.0945 588.75 -4.96564e-19)
(-8.07112 596.95 2.10056e-18)
(-11.5855 593.66 -1.57137e-18)
(-2.29534 598.652 0)
(-4.96431 601.005 0)
(-5.70115 599.263 -1.05768e-18)
(1.6341 596.09 1.62238e-20)
(-0.718752 596.39 2.7776e-19)
(5.03716 599.041 0)
(5.11411 600.374 -6.56275e-20)
(3.30571 597.658 9.82397e-20)
(8.76699 594.888 2.68909e-19)
(5.96831 597.258 -2.7269e-19)
(15.2535 588.605 3.11768e-20)
(12.2188 591.4 0)
(16.3261 585.906 -2.8665e-20)
(16.8091 587.623 -5.76742e-20)
(-19.2776 600.954 0)
(0.773614 587.681 0)
(-80.3112 634.59 -3.68214e-21)
(-48.9926 618.307 0)
(-126.086 651.524 -1.84707e-21)
(-106.993 644.115 -4.29394e-21)
(-146.17 660.132 0)
(-138.928 656.261 0)
(-146.259 671.223 -8.32197e-19)
(-149.231 664.588 9.14727e-19)
(-102.725 702.999 3.39933e-18)
(-132.599 681.229 0)
(-34.601 750.132 -1.34583e-17)
(-66.8029 730.256 -5.07799e-19)
(-13.1892 762.29 2.73e-19)
(25.7359 774.366 -2.67678e-17)
(21.7036 775.042 3.91996e-17)
(5.6546 763.69 1.26119e-17)
(-12.2173 755.09 1.27501e-17)
(-3.19485 599.828 -3.26381e-20)
(-5.17163 602.394 3.27733e-20)
(14.1097 598.421 5.30774e-19)
(10.9095 601.036 -4.86996e-19)
(4.31462 777.39 2.79091e-17)
(28.9258 772.965 2.06868e-17)
(17.6881 774.748 -6.93717e-18)
(-16.8371 776.823 2.17874e-17)
(11.5931 753.574 -2.21103e-17)
(37.2924 769.388 1.03698e-17)
(31.7025 769.678 0)
(-17.9375 772.187 7.07726e-18)
(16.5683 767.595 1.44701e-17)
(-5.76282 760.737 7.35809e-18)
(66.4245 724.463 0)
(34.6918 741.842 -8.14812e-18)
(130.163 682.5 5.53092e-18)
(101.03 700.96 1.6719e-19)
(154.473 669.661 1.90381e-18)
(146.827 673.682 -2.61151e-18)
(157.823 666.786 2.2327e-19)
(158.09 667.923 -1.41728e-18)
(153.387 665.306 4.73875e-19)
(156.473 666.243 -4.46594e-19)
(141.666 662.415 0)
(148.376 664.342 -2.04956e-19)
(118.577 654.366 2.38351e-19)
(131.985 659.191 -2.45278e-19)
(71.1683 635.042 2.5308e-19)
(99.0476 646.359 -2.44883e-19)
(10.1269 600.286 2.63148e-19)
(38.2281 616.895 -2.59575e-19)
(-21.5092 590.189 -2.57659e-19)
(-9.42699 589.847 2.66386e-19)
(-19.8506 593.329 1.93927e-20)
(-21.4046 591.842 0)
(-13.1993 600.543 -1.12715e-18)
(-16.7166 596.915 1.03279e-18)
(1.83585 597.703 -6.57555e-20)
(-1.15511 597.986 -2.62974e-19)
(5.7663 601.497 -6.54225e-20)
(4.14223 598.946 -2.60821e-19)
(19.8295 591.956 0)
(17.4923 594.451 -5.10126e-19)
(20.0081 588.801 -1.23322e-19)
(21.3828 590.595 1.15614e-19)
(-18.3591 605.152 3.57947e-20)
(2.90626 591.19 2.87809e-20)
(-81.0114 639.249 7.52487e-20)
(-49.6555 623.07 0)
(-123.099 655.669 4.05835e-21)
(-106.389 648.627 -6.36208e-20)
(-144.295 662.453 -5.4251e-21)
(-135.459 659.504 -7.36568e-21)
(-153.618 664.775 0)
(-150.044 663.789 -7.2817e-21)
(-155.34 667.824 -5.90248e-19)
(-155.154 665.699 4.38385e-19)
(-139.243 677.146 8.07639e-19)
(-150.017 670.383 9.04117e-19)
(-78.7405 716.811 0)
(-115.123 691.194 -5.97682e-18)
(-40.6222 740.563 9.52968e-18)
(25.0264 769.164 -1.31321e-17)
(-10.6831 603.098 0)
(9.59552 603.017 1.63197e-18)
(-7.78611 777.029 4.90085e-19)
(31.5304 771.171 -1.03691e-17)
(41.8076 768.297 -1.04128e-17)
(5.04911 775.339 6.98685e-18)
(-18.0701 764.584 2.18344e-17)
(-14.3373 745.301 7.49352e-18)
(-47.5877 727.522 -1.39821e-17)
(6.5439 754.94 -2.51621e-18)
(-23.8655 772.804 -1.43531e-17)
(-24.7323 596.253 1.06935e-19)
(-21.8329 599.897 1.05253e-18)
(6.6373 602.63 3.24541e-20)
(9.41286 604.598 -1.11536e-18)
(-19.3748 775.542 4.36217e-19)
(19.2129 772.622 0)
(45.2396 766.619 -1.0893e-17)
(33.7336 768.963 3.61438e-18)
(61.4761 759.489 -3.40725e-17)
(58.5737 761.284 -1.54727e-17)
(47.9927 764.473 2.92068e-19)
(-8.1736 775.02 -3.47772e-17)
(-8.23017 751.488 7.38059e-18)
(42.7715 727.949 -8.14977e-18)
(13.3915 741.926 7.6662e-18)
(110.116 686.524 1.13376e-17)
(77.7868 707.574 -2.6592e-18)
(144.209 670.01 0)
(132.583 674.917 -7.47871e-18)
(153.774 667.545 -4.69038e-19)
(150.349 668.307 -9.57946e-19)
(154.923 668.119 -1.10221e-19)
(155.082 667.687 4.48608e-19)
(152.443 668.841 -1.2051e-19)
(154.076 668.581 0)
(147.277 667.476 -1.18318e-19)
(150.319 668.296 1.78241e-19)
(137.18 664.548 -1.17473e-19)
(143.024 666.352 1.18841e-19)
(115.727 656.763 -1.11643e-19)
(128.379 661.421 1.14739e-19)
(69.3521 638.421 0)
(96.9119 649.064 -1.71226e-20)
(7.28739 603.739 2.51039e-19)
(36.3803 620.418 -2.73492e-19)
(-25.696 593.043 9.33653e-19)
(-12.849 592.958 -5.02487e-19)
(-26.0757 594.653 -1.40394e-18)
(-9.73411 605.041 9.83292e-20)
(-3.97666 601.186 -2.61317e-19)
(-5.87066 603.613 4.87799e-19)
(1.92925 599.413 9.748e-20)
(-1.42514 599.668 -2.59231e-19)
(4.7542 600.42 3.27696e-19)
(19.3787 601.478 -5.63142e-19)
(24.6525 594.974 -3.84886e-21)
(22.596 597.221 4.7666e-19)
(22.1185 591.113 0)
(26.2307 593.412 0)
(-16.5391 607.764 -1.21839e-19)
(6.82517 595.09 0)
(-79.4681 642.311 3.51571e-20)
(-47.8547 626.729 2.42713e-20)
(-119.73 658.134 -1.98639e-20)
(-104.009 651.389 3.17171e-20)
(-138.754 664.741 3.74129e-21)
(-131.09 661.937 8.56218e-23)
(-148.155 667.01 7.50837e-21)
(-144.15 666.161 2.21722e-20)
(-152.481 667.721 5.40726e-20)
(-151.007 667.638 7.21874e-21)
(-153.72 667.24 -8.97196e-19)
(-153.57 667.486 0)
(-147.075 668.744 -1.92601e-18)
(-151.336 667.515 4.72624e-19)
(-119.908 681.145 3.94478e-18)
(-138.126 672.281 3.45462e-18)
(-87.3256 700.98 -1.38249e-17)
(32.6528 761.995 6.8138e-18)
(21.9756 759.698 -1.02337e-17)
(48.4133 763.144 -5.23055e-18)
(41.4963 762.86 -1.65002e-18)
(54.2403 762.577 1.0741e-17)
(-27.4978 766.566 6.94276e-18)
(-18.414 603.646 -6.50054e-20)
(16.1342 604.389 0)
(-58.7069 710.377 -6.06092e-18)
(-95.4089 686.039 -3.41014e-18)
(-22.2218 730.691 7.89739e-18)
(65.9513 755.995 1.08528e-16)
(-28.62 772.46 2.94403e-17)
(5.89381 773.168 0)
(20.7615 770.208 -1.44329e-17)
(50.0834 762.073 3.31055e-17)
(-21.3704 773.863 -8.7294e-17)
(73.222 754.302 0)
(18.9931 727.747 -1.50958e-17)
(35.7842 766.462 -1.54763e-17)
(-24.8904 756.851 -1.41635e-17)
(-8.00068 739.702 5.90593e-19)
(64.4147 757.182 -6.26667e-19)
(86.9872 689.694 0)
(53.0769 710.784 -1.39901e-18)
(129.951 669.234 -7.56895e-18)
(114.199 675.426 6.92093e-18)
(143.53 665.794 1.9532e-18)
(138.381 666.762 7.55215e-18)
(147.7 666.009 -4.89488e-19)
(146.361 665.637 -1.9508e-18)
(148.352 668.546 1.20191e-19)
(148.31 667.136 4.8767e-19)
(148.136 669.89 0)
(148.429 669.58 0)
(146.481 669.72 -5.9935e-20)
(147.56 669.778 8.99314e-20)
(141.957 668.614 -4.68222e-22)
(144.719 669.27 6.67122e-20)
(132.425 666.047 0)
(138.047 667.64 3.76218e-21)
(110.994 659.166 6.22645e-20)
(123.704 663.4 0)
(65.2164 640.843 3.57758e-20)
(92.4241 651.544 -4.54128e-20)
(2.74233 606.019 2.50651e-19)
(32.2173 622.745 -2.79829e-19)
(-30.0231 595.414 -5.16537e-19)
(-17.7676 595.398 5.41153e-19)
(-29.2637 598.541 9.955e-19)
(-30.4637 596.852 -2.90361e-20)
(-26.5142 602.192 -9.86651e-19)
(-9.72908 606.619 0)
(-15.8618 606.332 9.70896e-19)
(-4.57161 602.704 5.21761e-19)
(-6.74838 604.837 -5.23566e-19)
(1.96714 601.182 -1.33138e-19)
(-1.58851 601.408 2.29702e-19)
(7.51115 603.892 0)
(5.15782 602.028 0)
(14.6285 606.529 -5.51111e-19)
(9.87867 605.945 -4.86841e-19)
(24.4952 603.657 1.04695e-18)
(29.5159 597.271 5.47471e-19)
(27.6215 599.491 -5.06862e-19)
(26.0189 593.794 5.30134e-19)
(30.8038 595.593 -1.01972e-18)
(-12.554 610.317 0)
(11.2653 597.518 2.92684e-20)
(-75.5535 644.38 0)
(-43.6534 629.138 0)
(-115.287 660.302 0)
(-99.7003 653.831 1.67238e-20)
(-133.651 666.147 2.98774e-20)
(-126.487 663.832 -2.97043e-20)
(-141.914 668.41 1.4878e-20)
(-138.602 667.546 -1.46672e-20)
(-145.669 669.393 -3.01262e-20)
(-144.225 669.076 2.95663e-20)
(-147.375 668.997 -5.99238e-20)
(-146.808 669.308 6.43668e-23)
(-147.583 666.38 5.38112e-19)
(-147.701 667.727 -2.99984e-20)
(-144.827 665.585 -1.83949e-19)
(-146.729 665.627 6.05358e-20)
(-133.776 667.691 -3.58002e-18)
(-140.749 665.933 0)
(-120.983 672.871 6.70912e-18)
(24.7992 749.907 -3.69262e-18)
(5.60827 742.435 3.52703e-18)
(50.4502 755.28 1.5615e-17)
(39.729 753.42 -2.62811e-18)
(59.1988 755.733 -1.39687e-17)
(-36.7471 759.725 4.92555e-20)
(-35.0982 767.322 1.56894e-20)
(-7.76797 772.868 -3.3392e-18)
(-28.6429 747.562 0)
(-100.905 673.516 -3.52014e-18)
(-118.646 666.468 -1.99755e-18)
(-70.6924 689.385 3.93705e-18)
(-34.2492 596.757 0)
(-34.3031 598.088 9.34086e-19)
(14.1396 608.178 3.80932e-20)
(21.1332 606.537 -5.58901e-19)
(6.9127 770.641 -4.41031e-17)
(22.66 767.615 2.99557e-17)
(37.4102 763.754 1.31138e-17)
(78.8213 751.902 0)
(86.2384 747.343 -3.19926e-19)
(91.8308 745.415 2.95932e-17)
(82.3549 749.127 3.07419e-17)
(-46.1548 760.875 1.41525e-17)
(-32.5223 771.398 -8.07222e-17)
(52.3398 759.348 -7.59136e-18)
(-20.6484 771.879 -1.09785e-17)
(-43.8561 751.384 5.35683e-19)
(67.9643 754.479 5.97975e-17)
(-2.81072 725.343 3.6484e-18)
(63.7628 691.674 1.60495e-17)
(29.8293 710.834 -8.0929e-18)
(113.279 667.335 3.80506e-18)
(93.5611 675.456 -1.26222e-18)
(130.501 662.956 5.90073e-18)
(123.708 664.244 -3.94439e-18)
(136.939 662.934 1.96284e-18)
(134.464 662.693 -3.93264e-18)
(139.324 665.483 1.46249e-18)
(138.434 663.983 -9.78218e-19)
(140.965 667.748 0)
(140.004 666.715 -4.82223e-19)
(143.103 669.262 -3.04556e-20)
(142.09 668.61 0)
(143.301 670.196 -8.94869e-20)
(143.532 669.809 4.0654e-24)
(141.403 670.306 5.89566e-20)
(142.659 670.302 -7.3965e-21)
(136.417 669.626 -3.70216e-21)
(139.496 670.116 0)
(126.392 667.634 0)
(132.076 669.021 -7.32642e-21)
(105.177 660.759 0)
(117.863 665.032 -1.56359e-20)
(58.9168 641.792 1.27258e-19)
(86.3317 653.183 -1.61576e-19)
(-3.16175 606.042 5.48102e-19)
(25.8826 623.095 -3.36858e-21)
(-23.6706 596.335 -4.71508e-19)
(-23.1692 605.883 6.59445e-20)
(-10.2265 607.981 5.14265e-19)
(-14.7176 608.361 -1.56669e-18)
(-4.98717 604.335 -2.77793e-19)
(-7.59697 606.168 2.036e-20)
(1.97237 602.991 2.04527e-21)
(-1.68608 603.197 6.51104e-20)
(8.23247 605.309 -4.07599e-21)
(5.40047 603.727 -1.25559e-19)
(10.6101 607.179 5.2284e-19)
(33.328 597.964 -5.02268e-19)
(30.6731 595.047 5.07748e-19)
(34.442 596.656 -1.2664e-21)
(-6.69734 610.908 -5.00579e-19)
(17.0264 598.421 2.49443e-19)
(-69.504 645.415 1.4723e-20)
(-37.7022 629.602 2.34682e-19)
(-109.67 661.688 -1.47333e-20)
(-93.5655 655.252 0)
(-127.823 667.47 -1.46834e-20)
(-120.735 665.238 0)
(-136.58 669.225 5.94471e-20)
(-132.853 668.627 0)
(-140.534 669.866 1.77072e-19)
(-139.046 669.648 -1.03892e-19)
(-141.609 669.796 0)
(-141.325 669.858 -1.25233e-19)
(-140.86 668.508 0)
(-141.616 669.206 -3.0415e-20)
(-139.552 666.213 -4.87279e-19)
(-140.081 667.466 -2.43775e-19)
(-138.139 663.395 2.39288e-18)
(-139.085 664.687 0)
(-133.423 662.967 0)
(-136.37 662.834 -4.8262e-19)
(-127.843 663.886 -1.87612e-18)
(-1.13555 727.423 3.35726e-18)
(-35.5593 711.694 -3.34477e-18)
(44.8098 743.793 5.46995e-18)
(25.0701 737.333 -8.93427e-19)
(70.6681 748.519 -1.59845e-17)
(59.4934 746.95 3.39244e-18)
(78.5845 748.537 -3.76356e-17)
(-41.6576 767.417 -1.30882e-17)
(-28.2357 735.668 -1.90669e-17)
(-33.1214 599.716 -2.05227e-18)
(31.102 600.3 5.41823e-19)
(-120.012 659.834 1.81152e-18)
(-112.719 661.109 3.83374e-20)
(-55.0791 753.236 1.41532e-17)
(-53.5912 761.024 1.33893e-17)
(-7.51137 770.535 -2.94033e-17)
(9.26719 768.139 3.01878e-17)
(23.8561 764.772 3.68274e-19)
(39.1126 760.882 -2.30712e-17)
(96.5148 742.7 1.77992e-18)
(85.6571 746.033 6.85131e-19)
(131.627 719.797 -8.14517e-17)
(70.2978 751.619 7.12149e-19)
(-26.5853 35.6828 0)
(54.8977 756.436 2.68985e-17)
(-47.9954 741.455 0)
(-23.1001 720.515 -3.99189e-18)
(42.3282 691.133 4.40178e-18)
(7.98444 707.784 1.52025e-17)
(95.5748 665.089 -3.14684e-18)
(72.8889 674.393 -8.54131e-18)
(116.107 659.86 -1.98279e-18)
(108.159 661.316 -1.69978e-19)
(124.269 659.441 0)
(121.024 659.468 1.9866e-18)
(128.018 661.622 0)
(126.472 660.215 0)
(130.644 664.056 -4.83613e-19)
(129.18 662.928 9.79098e-19)
(133.926 665.802 2.67419e-20)
(132.259 664.981 9.27724e-20)
(136.879 667.51 3.00303e-20)
(135.502 666.63 3.80913e-21)
(138.476 669.302 2.57778e-22)
(137.857 668.415 -1.48629e-20)
(137.878 670.569 9.43224e-22)
(138.48 670.08 3.41022e-20)
(135.059 671.242 3.7868e-21)
(136.654 670.835 0)
(129.876 670.691 -5.94777e-20)
(132.901 671.105 6.69228e-20)
(119.227 668.327 -5.91036e-20)
(125.176 669.831 5.90546e-20)
(97.9253 660.831 -8.72151e-20)
(110.616 665.546 1.21135e-19)
(50.6775 640.399 2.47563e-19)
(78.6706 652.774 -2.72541e-19)
(-10.7424 603.356 -6.42232e-20)
(17.6671 621.039 -5.50449e-19)
(-37.9004 595.851 -6.04875e-20)
(-29.6731 595.361 5.05807e-19)
(-37.4198 597.178 -9.00717e-19)
(-20.6272 608.552 0)
(-30.398 603.236 1.49728e-18)
(-10.9388 609.254 -5.21803e-19)
(-14.4512 610.009 5.2263e-19)
(-5.26442 606.036 1.45566e-19)
(-8.29448 607.615 -1.6269e-20)
(1.96168 604.819 -6.4683e-20)
(-1.74497 605.014 -3.26625e-20)
(8.75156 606.836 -4.05419e-21)
(5.53914 605.48 1.26892e-21)
(14.2387 609.521 1.04025e-18)
(11.3655 608.412 4.07156e-21)
(27.8051 604.133 -4.31046e-20)
(19.2211 608.607 0)
(35.3036 596.598 3.01874e-20)
(35.4942 594.442 4.81892e-19)
(36.3275 595.506 -4.30079e-20)
(0.637971 608.583 2.71385e-19)
(22.743 596.37 -7.77672e-19)
(-61.5654 644.594 8.83606e-20)
(-30.2038 627.267 0)
(-102.584 661.731 3.81287e-20)
(-86.1592 654.906 -1.86449e-19)
(-120.924 667.945 1.51533e-20)
(-113.645 665.564 0)
(-130.223 670.001 -5.93503e-20)
(-126.283 669.182 5.95399e-20)
(-134.546 670.397 7.53314e-20)
(-132.801 670.322 -5.95176e-20)
(-136.677 669.871 1.34829e-19)
(-135.946 670.088 -1.20297e-19)
(-136.437 668.428 -1.20409e-19)
(-136.967 669.208 1.21303e-19)
(-134.187 666.752 2.43419e-19)
(-135.471 667.605 3.00188e-20)
(-131.338 664.951 4.81306e-19)
(-132.745 665.873 -9.20498e-22)
(-129.193 662.563 9.76683e-19)
(-130.105 663.854 0)
(-126.623 659.891 -9.67386e-19)
(-128.196 661.026 9.79083e-21)
(-124.136 659.566 3.93908e-18)
(-48.3188 689.009 -8.83617e-19)
(-101.384 664.407 8.82713e-20)
(-79.8875 672.461 1.95755e-18)
(21.5082 722.858 -4.82446e-19)
(-12.6674 708.827 1.1906e-18)
(65.2718 737.424 1.98452e-17)
(46.336 732.197 1.59104e-18)
(88.2031 739.85 -1.01218e-17)
(77.4592 739.496 1.29846e-17)
(103.885 737.756 1.19328e-17)
(96.5571 739.341 1.04889e-17)
(118.947 729.16 2.54831e-17)
(114.652 732.603 -3.59979e-18)
(100.381 739.749 1.77892e-17)
(109.804 735.463 -1.37621e-17)
(-46.4879 766.129 2.57391e-17)
(-23.9432 28.6024 4.01773e-16)
(-62.0811 744.066 1.45866e-17)
(-47.233 729.222 0)
(-3.61648 767.957 -1.6729e-17)
(20.8915 21.2451 -1.14579e-17)
(-18.8228 597.768 6.79104e-20)
(-34.1435 590.701 -1.05632e-18)
(24.4912 606.906 -5.25521e-19)
(32.7279 599.163 4.7969e-19)
(9.86176 765.241 3.78145e-19)
(103.635 736.462 -2.09561e-17)
(25.0461 761.866 -1.50681e-17)
(88.322 742.795 7.22199e-19)
(72.7294 748.357 -5.87911e-17)
(40.756 757.844 1.87362e-17)
(56.7451 753.385 -2.95433e-17)
(-22.6134 25.0291 0)
(-27.3912 33.4417 8.97927e-17)
(-27.6719 31.1875 0)
(-29.027 30.9895 -8.81726e-17)
(-47.3017 67.8345 -3.04088e-16)
(-28.1301 26.7405 -6.22073e-17)
(-64.4533 753.57 -2.54385e-18)
(-60.3992 759.885 -2.20478e-17)
(-26.0562 28.7657 1.49622e-16)
(-72.0862 752.847 1.86547e-18)
(127.853 724.323 0)
(121.438 727.134 -3.42496e-18)
(-30.5327 766.672 5.00495e-17)
(-41.325 765.749 5.94881e-17)
(-73.4664 744.94 7.84097e-18)
(-25.0528 29.0222 -1.88914e-16)
(-66.346 733.363 -1.75161e-17)
(-39.9006 71.5021 3.17703e-16)
(-82.52 744.94 1.17594e-17)
(-80.1399 735.391 -5.62498e-18)
(-23.5405 26.0596 0)
(-107.637 724.5 4.49421e-18)
(-91.3208 735.786 1.9844e-17)
(-83.8001 723.69 -1.61059e-17)
(-97.5876 724.841 -4.23499e-18)
(-41.423 713.18 -1.38682e-18)
(-65.4817 720.549 0)
(21.645 687.387 3.80373e-18)
(-11.6875 701.713 -4.14034e-18)
(76.7998 662.036 -7.68418e-18)
(52.1842 671.665 -3.56928e-18)
(100.369 656.173 1.51181e-20)
(91.4224 657.84 1.34597e-17)
(110.278 655.483 -2.02939e-18)
(106.337 655.69 -2.00648e-18)
(115.359 657.157 0)
(113.173 655.983 0)
(118.853 659.565 0)
(117.004 658.432 9.97761e-19)
(122.955 661.394 0)
(120.853 660.529 -4.85777e-19)
(126.842 663.136 5.30464e-20)
(124.992 662.245 -1.75102e-19)
(129.782 665.152 -6.04935e-20)
(128.441 664.103 -3.04715e-20)
(131.666 667.382 0)
(130.861 666.253 3.83561e-20)
(132.274 669.464 -6.04775e-20)
(132.161 668.474 2.63489e-20)
(130.871 670.668 -3.21659e-20)
(131.753 670.216 6.04317e-20)
(127.638 671.274 -3.76549e-21)
(129.461 670.963 0)
(122.268 670.456 2.2409e-20)
(125.434 671.053 3.70755e-21)
(111.561 667.321 -5.98571e-20)
(117.643 669.268 -1.49987e-20)
(89.9886 658.599 2.32614e-19)
(103.033 664.059 5.94382e-20)
(41.3417 635.152 1.42086e-20)
(70.2754 649.564 -2.36686e-19)
(8.57451 614.625 0)
(-35.6781 598.64 9.36852e-19)
(-19.289 610.525 5.20898e-19)
(-26.9341 606.649 -1.0108e-18)
(-11.6641 610.561 -3.24262e-20)
(-14.6731 611.418 1.21877e-20)
(-5.44019 607.786 -1.94894e-19)
(-8.80513 609.166 1.61798e-20)
(1.94056 606.659 9.74977e-20)
(-1.78302 606.847 -1.20817e-20)
(9.0619 608.433 1.62007e-20)
(5.59874 607.261 1.90917e-19)
(14.5657 610.695 -5.13104e-19)
(11.9663 609.711 -2.43475e-20)
(18.2598 610.161 0)
(37.7851 590.444 -2.93721e-20)
(8.78024 601.558 2.46993e-19)
(29.1667 591.16 1.66159e-20)
(-52.4371 640.313 1.47804e-20)
(-20.9063 621.061 -2.77881e-19)
(-94.9792 659.767 -1.07186e-19)
(-78.243 651.973 1.20226e-19)
(-113.389 666.982 1.54256e-20)
(-106.088 664.154 -5.93821e-20)
(-122.803 669.579 7.44214e-20)
(-118.942 668.624 1.99629e-22)
(-127.363 670.147 1.51445e-20)
(-125.509 670.118 0)
(-130.08 669.683 -1.36324e-19)
(-129.003 669.94 0)
(-130.81 668.312 -1.05181e-19)
(-130.753 669.138 2.41821e-19)
(-129.633 666.275 0)
(-130.365 667.321 -3.05188e-20)
(-127.237 664.254 2.44501e-19)
(-128.577 665.242 -3.06506e-20)
(-123.881 662.467 -2.50288e-19)
(-125.664 663.331 -4.86658e-19)
(-120.146 660.666 0)
(-121.985 661.607 0)
(-117.12 658.25 -1.46898e-18)
(-118.467 659.549 4.90848e-19)
(-113.246 655.884 -1.95721e-18)
(-115.496 656.751 1.0692e-18)
(-104.649 656.139 1.94409e-18)
(-109.947 655.837 4.93578e-19)
(-83.1151 660.854 0)
(-96.2398 657.324 0)
(-26.7003 688.137 -3.373e-18)
(-59.2898 670.102 -2.05446e-18)
(40.0614 718.175 0)
(8.96595 706.227 -4.61909e-18)
(81.2653 728.539 -1.51783e-18)
(62.6087 725.407 0)
(105.295 729.486 4.3112e-19)
(94.1131 729.67 0)
(113.831 728.884 -3.4483e-18)
(-26.1992 32.8765 2.77927e-20)
(-26.687 30.7945 -8.53795e-17)
(-27.8814 28.9444 -1.4384e-16)
(-52.0192 763.51 0)
(-17.4472 767.338 -1.81097e-17)
(-24.898 32.3517 -1.77686e-16)
(-161.81 662.225 -1.18689e-16)
(61.4224 32.1136 -2.99629e-16)
(120.335 723.012 6.06115e-17)
(-38.329 591.309 9.75779e-19)
(37.3989 591.391 5.76295e-20)
(-28.7745 33.5979 -1.88079e-16)
(-65.6674 757.719 7.38639e-18)
(-44.3097 762.676 0)
(-31.5245 763.922 0)
(-4.45684 765.255 7.66006e-18)
(106.343 733.018 0)
(-30.9866 27.8257 0)
(-78.5723 751.309 7.64117e-18)
(121.428 717.862 0)
(130.369 716.816 2.84161e-17)
(133.362 720.654 0)
(10.5502 762.369 -3.08904e-17)
(90.682 739.358 -2.85221e-17)
(74.6654 745.029 2.90813e-17)
(-90.1118 743.958 -1.17763e-17)
(126.518 450.228 -7.54836e-17)
(26.036 758.755 0)
(-127.733 618.253 3.39601e-18)
(-100.186 735.504 1.22037e-17)
(-30.2768 31.1376 7.2982e-17)
(42.1643 754.705 -2.34872e-19)
(58.5885 750.104 0)
(-23.2127 29.6346 1.97638e-16)
(-23.5434 31.5827 -1.83548e-16)
(124.23 718.871 -1.22005e-19)
(-25.2929 34.6861 -9.28005e-17)
(-23.7598 33.8481 -3.68989e-20)
(23.1692 22.5812 5.78232e-18)
(-57.9029 704.061 -2.79879e-17)
(-82.439 711.223 1.4847e-16)
(3.68257 681.21 -4.50369e-19)
(-28.7329 694.043 8.37878e-18)
(57.9159 657.777 4.27647e-18)
(33.2904 667.473 -4.41445e-18)
(83.4294 651.63 -2.04735e-18)
(73.7473 653.259 2.04426e-18)
(94.9196 650.839 1.00581e-18)
(90.3053 651.139 -2.02568e-18)
(101.508 652.129 1.97096e-18)
(98.6039 651.143 -1.00612e-18)
(106.106 654.412 -4.99327e-19)
(103.816 653.331 4.95211e-19)
(110.989 656.245 0)
(108.507 655.372 -1.48077e-18)
(115.64 658.001 0)
(113.401 657.103 -2.49362e-19)
(119.363 660.008 -6.09341e-20)
(117.634 658.969 9.17263e-20)
(122.063 662.246 0)
(120.829 661.106 1.5806e-20)
(123.922 664.578 0)
(123.09 663.409 3.71626e-21)
(125 666.835 -2.38572e-22)
(124.572 665.727 1.91268e-21)
(124.929 668.627 3.23016e-20)
(125.164 667.816 -3.01187e-20)
(123.09 669.396 5.67051e-21)
(124.188 669.154 -1.8953e-21)
(119.666 669.394 7.58987e-21)
(121.65 669.524 -3.78462e-21)
(114.265 667.807 -7.47973e-20)
(117.374 668.801 1.50001e-20)
(103.721 663.523 0)
(109.981 666.156 5.97789e-20)
(82.0302 652.37 -2.36237e-19)
(95.1898 659.246 2.44586e-19)
(31.7365 624.133 5.0013e-19)
(61.233 641.804 -5.23028e-19)
(-24.1416 587.208 -4.64181e-19)
(0.449593 601.69 5.18876e-19)
(-35.6041 581.082 4.97507e-19)
(-32.4097 601.624 0)
(-37.3907 592.102 0)
(-18.6382 612.026 -7.55084e-19)
(-24.0577 609.001 5.15912e-19)
(-12.2635 611.911 -1.62133e-20)
(-15.0592 612.645 -1.45213e-19)
(-5.55581 609.552 3.28697e-20)
(-9.14919 610.768 1.61643e-20)
(1.9126 608.49 -4.6642e-20)
(-1.81559 608.678 -1.59452e-20)
(9.20336 610.045 0)
(5.60457 609.033 -1.31573e-19)
(14.9294 611.789 1.21068e-19)
(12.353 611.058 0)
(22.41 608.857 -1.73916e-20)
(17.8973 611.415 2.6759e-19)
(35.5309 592.269 -5.19086e-19)
(29.0972 602.479 4.06724e-20)
(36.0252 580.397 5.18365e-19)
(16.6468 590.629 5.75243e-19)
(32.8645 581.843 -1.10801e-18)
(-42.7655 630.671 -4.44864e-21)
(-11.0351 609.476 0)
(-87.1114 654.097 -1.22637e-21)
(-69.9126 644.966 0)
(-105.718 663.392 0)
(-98.4203 659.684 0)
(-114.86 666.944 -1.49613e-20)
(-111.277 665.543 0)
(-119.683 668.215 -1.51701e-20)
(-117.672 667.76 0)
(-122.633 668.158 -1.51505e-20)
(-121.465 668.249 7.55643e-21)
(-123.876 667.25 1.21778e-19)
(-123.501 667.863 -1.5188e-20)
(-123.401 665.419 1.54983e-20)
(-123.796 666.406 -1.20553e-19)
(-121.951 663.274 2.11385e-19)
(-122.77 664.357 -2.14539e-19)
(-119.708 661.121 4.88453e-19)
(-120.937 662.187 -2.15206e-19)
(-116.509 659.128 4.76245e-19)
(-118.241 660.096 -7.34503e-19)
(-112.32 657.374 4.87559e-19)
(-114.518 658.226 -1.48251e-18)
(-107.808 655.621 -4.94504e-18)
(-110.028 656.534 9.85476e-19)
(-103.966 653.393 -9.77441e-19)
(-105.747 654.565 -2.90142e-18)
(-98.6986 651.495 4.99759e-19)
(-101.656 652.145 1.33726e-20)
(-88.8734 651.94 3.8981e-18)
(-94.8131 651.566 -1.97165e-18)
(-65.2189 657.609 3.92337e-18)
(-80.0664 653.431 -4.97447e-18)
(-7.93591 684.069 -7.20051e-18)
(-39.4375 667.536 -6.52249e-19)
(55.2794 708.774 -1.71426e-18)
(25.3811 698.166 7.70189e-18)
(96.5243 717.735 1.43423e-17)
(77.9893 715.169 0)
(110.059 718.518 -1.42879e-17)
(-27.5681 38.8415 0)
(-28.2459 36.407 0)
(-98.5068 711.519 1.80134e-16)
(-26.0359 26.8318 2.67077e-16)
(-26.8737 28.6311 -7.53517e-17)
(-55.8418 760.784 0)
(-18.2589 764.746 0)
(-24.1057 36.3625 2.88631e-16)
(108.408 725.994 -3.161e-17)
(108.07 729.473 2.97724e-17)
(-29.7601 39.1491 -2.26852e-16)
(-20.805 36.4581 1.62054e-16)
(-23.7484 24.8764 0)
(-70.1305 755.263 -7.65844e-18)
(109.28 705.939 0)
(123.045 706.347 -1.46959e-17)
(138.11 714.571 4.31309e-19)
(-4.18219 762.262 1.75033e-18)
(-46.6947 759.707 0)
(-33.3255 760.921 0)
(-25.2645 38.8539 -1.67624e-16)
(92.5785 735.804 -1.46573e-17)
(23.8924 23.4653 -2.61065e-21)
(22.0764 605.591 -4.88792e-19)
(-6.52036 582.187 0)
(31.4322 594.351 5.39357e-19)
(34.6463 580.778 3.02996e-20)
(76.4577 741.523 0)
(-31.6037 17.6474 -1.82941e-16)
(-83.6996 749.042 1.49048e-19)
(140.451 716.074 -1.67466e-17)
(-22.2858 26.2421 -2.6331e-17)
(22.2545 21.4962 -5.71863e-18)
(22.4547 20.5007 3.36624e-17)
(22.5869 19.549 -6.95904e-22)
(-16.3345 38.0786 -4.89474e-17)
(10.8606 759.174 -4.229e-19)
(-21.3738 63.4879 0)
(-14.7086 64.5843 -1.57653e-16)
(-26.8169 41.6306 1.82902e-16)
(34.3307 11.1526 4.45537e-17)
(-27.6508 61.1787 0)
(-31.993 62.492 -4.69486e-21)
(-96.5045 742.062 -1.58408e-17)
(135.393 715.878 4.92981e-17)
(26.7536 27.001 2.09261e-17)
(26.1128 26.7413 0)
(25.6938 28.3706 -2.09983e-17)
(26.4177 28.8339 -2.20656e-17)
(34.0166 37.0588 6.45656e-20)
(26.8793 755.515 1.51661e-17)
(60.0033 746.744 -3.03171e-17)
(-107.794 733.884 -1.05559e-19)
(-21.8384 28.5746 -1.05508e-16)
(43.423 751.366 3.04436e-17)
(-7.91684 64.891 -3.01879e-19)
(-4.66039 68.7139 3.19839e-16)
(-18.8743 67.7814 1.59396e-16)
(-114.443 722.484 -9.83412e-17)
(-22.1115 30.4508 9.73382e-17)
(-11.8302 68.6095 -3.2027e-16)
(-22.2343 32.5913 8.94214e-17)
(-22.2376 35.1101 0)
(110.677 721.835 -7.56498e-18)
(24.0629 22.366 -5.79741e-18)
(126.572 714.921 7.94318e-18)
(-44.877 75.6582 -1.41641e-16)
(-13.3757 672.267 3.64156e-18)
(-44.2903 684.335 0)
(39.1132 651.974 -2.15646e-18)
(15.0438 660.554 0)
(66.0137 646.263 -5.93446e-18)
(55.6657 647.803 1.01247e-17)