/*--------------------------------*- C++ -*----------------------------------*\
| =========                 |                                                 |
| \\      /  F ield         | OpenFOAM: The Open Source CFD Toolbox           |
|  \\    /   O peration     | Version:  2212                                  |
|   \\  /    A nd           | Website:  www.openfoam.com                      |
|    \\/     M anipulation  |                                                 |
\*---------------------------------------------------------------------------*/
FoamFile
{
    version     2.0;
    format      ascii;
    arch        "LSB;label=32;scalar=64";
    class       volVectorField;
    location    "0.201";
    object      UMean;
}
// * * * * * * * * * * * * * * * * * * * * * * * * * * * * * * * * * * * * * //

dimensions      [0 1 -1 0 0 0 0];

internalField   nonuniform List<vector> 
24240
(
(9.44786 0.601805 7.6536e-07)
(9.44793 0.60181 -5.10984e-07)
(9.44793 0.60181 -3.19338e-07)
(9.44793 0.601809 -6.87094e-07)
(9.44793 0.601809 -7.85526e-07)
(9.44793 0.601808 -9.79481e-07)
(9.44793 0.601807 -1.11126e-06)
(9.44793 0.601807 -1.24681e-06)
(9.44793 0.601806 -1.35064e-06)
(9.44793 0.601805 -1.43122e-06)
(9.44793 0.601805 -1.4775e-06)
(9.44793 0.601804 -1.48899e-06)
(9.44793 0.601804 -1.46026e-06)
(9.44793 0.601803 -1.39856e-06)
(9.44793 0.601803 -1.28939e-06)
(9.44793 0.601803 -1.18555e-06)
(9.44793 0.601802 -9.65002e-07)
(9.44793 0.601802 -9.56905e-07)
(9.44793 0.601803 -3.36054e-07)
(9.44786 0.601797 -1.09859e-06)
(9.12218 0.607085 -3.28855e-07)
(9.12225 0.607091 -7.38231e-07)
(9.12226 0.607091 -1.07635e-06)
(9.12226 0.607092 -1.4978e-06)
(9.12226 0.607092 -1.79367e-06)
(9.12226 0.607093 -2.07676e-06)
(9.12226 0.607094 -2.27383e-06)
(9.12226 0.607095 -2.41804e-06)
(9.12226 0.607096 -2.49018e-06)
(9.12226 0.607097 -2.50067e-06)
(9.12226 0.607098 -2.44845e-06)
(9.12226 0.607098 -2.33986e-06)
(9.12226 0.607099 -2.17897e-06)
(9.12226 0.6071 -1.97742e-06)
(9.12226 0.6071 -1.73646e-06)
(9.12226 0.607101 -1.48893e-06)
(9.12226 0.607101 -1.18917e-06)
(9.12226 0.607101 -9.37716e-07)
(9.12226 0.607102 -5.43432e-07)
(9.12219 0.607096 -1.39523e-07)
(9.14928 0.306542 -1.06557e-07)
(9.14935 0.306545 1.03902e-07)
(9.14935 0.306545 3.07655e-07)
(9.14935 0.306545 3.56595e-07)
(9.14935 0.306546 4.30417e-07)
(9.14935 0.306546 4.18509e-07)
(9.14934 0.306546 3.84461e-07)
(9.14934 0.306547 3.04068e-07)
(9.14934 0.306547 2.00521e-07)
(9.14934 0.306547 7.8302e-08)
(9.14934 0.306548 -4.83879e-08)
(9.14934 0.306548 -1.68857e-07)
(9.14934 0.306548 -2.72723e-07)
(9.14934 0.306549 -3.53229e-07)
(9.14934 0.306549 -3.98753e-07)
(9.14934 0.30655 -4.23087e-07)
(9.14934 0.30655 -3.86255e-07)
(9.14934 0.30655 -3.62084e-07)
(9.14933 0.30655 -2.00106e-07)
(9.14926 0.306547 2.1971e-08)
(8.94009 0.304498 -1.93347e-07)
(8.94016 0.304502 -5.34352e-07)
(8.94016 0.304502 -7.98876e-07)
(8.94016 0.304502 -1.07981e-06)
(8.94016 0.304502 -1.29887e-06)
(8.94016 0.304502 -1.49076e-06)
(8.94016 0.304502 -1.62697e-06)
(8.94016 0.304502 -1.72002e-06)
(8.94016 0.304503 -1.76026e-06)
(8.94016 0.304503 -1.75258e-06)
(8.94016 0.304503 -1.69687e-06)
(8.94016 0.304503 -1.59785e-06)
(8.94016 0.304503 -1.45998e-06)
(8.94016 0.304504 -1.291e-06)
(8.94016 0.304504 -1.09499e-06)
(8.94016 0.304504 -8.88501e-07)
(8.94016 0.304504 -6.60204e-07)
(8.94016 0.304504 -4.46733e-07)
(8.94016 0.304505 -2.16484e-07)
(8.94009 0.304501 -7.45484e-08)
(8.95024 0.159303 1.84694e-09)
(8.95031 0.159305 1.9707e-07)
(8.95031 0.159305 3.91305e-07)
(8.95031 0.159305 5.13131e-07)
(8.95031 0.159306 6.09969e-07)
(8.95031 0.159306 6.51672e-07)
(8.95031 0.159307 6.5612e-07)
(8.95031 0.159307 6.18539e-07)
(8.95031 0.159308 5.51386e-07)
(8.95031 0.159308 4.61484e-07)
(8.95031 0.159309 3.60251e-07)
(8.9503 0.159309 2.58054e-07)
(8.9503 0.15931 1.63669e-07)
(8.9503 0.15931 8.49245e-08)
(8.9503 0.15931 2.92337e-08)
(8.9503 0.159311 -2.03597e-09)
(8.9503 0.159311 -3.96392e-09)
(8.9503 0.159311 8.01135e-09)
(8.9503 0.159311 4.42428e-08)
(8.95023 0.159309 5.42702e-08)
(8.82972 0.153121 -9.28739e-08)
(8.82979 0.153122 -2.4558e-07)
(8.82979 0.153122 -3.59604e-07)
(8.82979 0.153122 -4.8466e-07)
(8.82979 0.153122 -5.78681e-07)
(8.82979 0.153121 -6.65541e-07)
(8.82979 0.153121 -7.28426e-07)
(8.82979 0.15312 -7.73917e-07)
(8.82979 0.15312 -7.95431e-07)
(8.82979 0.15312 -7.94882e-07)
(8.82979 0.153119 -7.70705e-07)
(8.82979 0.153119 -7.24492e-07)
(8.82979 0.153119 -6.57151e-07)
(8.82979 0.153118 -5.72508e-07)
(8.82979 0.153118 -4.68756e-07)
(8.82979 0.153118 -3.57074e-07)
(8.82979 0.153118 -2.27376e-07)
(8.82979 0.153117 -1.14132e-07)
(8.82979 0.153117 -1.2632e-08)
(8.82972 0.153115 3.56567e-09)
(8.83479 0.0698851 -3.45081e-08)
(8.83486 0.069886 1.51548e-10)
(8.83486 0.069886 4.0576e-08)
(8.83486 0.069886 4.6199e-08)
(8.83486 0.0698861 4.51204e-08)
(8.83486 0.0698861 2.55316e-08)
(8.83486 0.0698861 -6.02203e-09)
(8.83486 0.0698862 -5.0792e-08)
(8.83486 0.0698862 -1.03633e-07)
(8.83486 0.0698863 -1.61154e-07)
(8.83486 0.0698863 -2.1791e-07)
(8.83485 0.0698864 -2.68548e-07)
(8.83485 0.0698864 -3.07244e-07)
(8.83485 0.0698864 -3.29965e-07)
(8.83485 0.0698864 -3.30325e-07)
(8.83485 0.0698863 -3.0934e-07)
(8.83485 0.0698863 -2.61817e-07)
(8.83485 0.0698862 -1.99218e-07)
(8.83485 0.0698861 -1.1003e-07)
(8.83478 0.0698851 -1.9638e-08)
(8.77967 0.0614273 -6.98745e-08)
(8.77974 0.0614281 -2.00544e-07)
(8.77974 0.061428 -3.06494e-07)
(8.77974 0.0614278 -4.17605e-07)
(8.77974 0.0614276 -5.01916e-07)
(8.77974 0.0614274 -5.74628e-07)
(8.77974 0.0614271 -6.26367e-07)
(8.77974 0.0614268 -6.62731e-07)
(8.77974 0.0614266 -6.81752e-07)
(8.77974 0.0614263 -6.85635e-07)
(8.77974 0.061426 -6.7471e-07)
(8.77974 0.0614257 -6.49615e-07)
(8.77974 0.0614254 -6.09029e-07)
(8.77974 0.0614251 -5.56383e-07)
(8.77974 0.0614249 -4.87079e-07)
(8.77974 0.0614246 -4.13087e-07)
(8.77974 0.0614243 -3.23033e-07)
(8.77974 0.0614241 -2.45646e-07)
(8.77974 0.0614238 -1.42871e-07)
(8.77967 0.0614229 -4.9839e-08)
(8.78683 0.00295195 -6.69016e-08)
(8.7869 0.00295189 -1.23676e-07)
(8.7869 0.0029517 -1.82645e-07)
(8.7869 0.00295144 -2.56876e-07)
(8.7869 0.00295109 -3.2428e-07)
(8.78689 0.00295069 -3.90197e-07)
(8.78689 0.00295023 -4.52202e-07)
(8.78689 0.00294974 -5.12931e-07)
(8.78689 0.00294922 -5.72797e-07)
(8.78689 0.00294868 -6.31751e-07)
(8.78689 0.00294814 -6.881e-07)
(8.78689 0.0029476 -7.39228e-07)
(8.78689 0.00294707 -7.78109e-07)
(8.78689 0.00294657 -8.0165e-07)
(8.78689 0.0029461 -7.97623e-07)
(8.78689 0.00294568 -7.69783e-07)
(8.78689 0.00294531 -6.97298e-07)
(8.78689 0.002945 -5.95301e-07)
(8.78689 0.00294475 -4.10404e-07)
(8.78682 0.00294463 -1.2909e-07)
(8.78206 -0.0123355 -1.52289e-07)
(8.78213 -0.012336 -4.32238e-07)
(8.78213 -0.0123366 -6.8567e-07)
(8.78213 -0.0123373 -9.27207e-07)
(8.78213 -0.0123384 -1.13077e-06)
(8.78213 -0.0123395 -1.29976e-06)
(8.78213 -0.0123408 -1.42898e-06)
(8.78213 -0.0123422 -1.52166e-06)
(8.78213 -0.0123436 -1.57914e-06)
(8.78213 -0.012345 -1.6034e-06)
(8.78213 -0.0123464 -1.59593e-06)
(8.78213 -0.0123477 -1.5576e-06)
(8.78213 -0.0123489 -1.48545e-06)
(8.78213 -0.01235 -1.38418e-06)
(8.78213 -0.012351 -1.24879e-06)
(8.78213 -0.0123518 -1.09666e-06)
(8.78213 -0.0123524 -9.10876e-07)
(8.78213 -0.0123529 -7.2068e-07)
(8.78213 -0.0123532 -4.40416e-07)
(8.78206 -0.0123532 -1.29336e-07)
(8.7951 -0.062755 -2.72159e-07)
(8.79517 -0.0627559 -8.05435e-07)
(8.79517 -0.0627559 -1.2954e-06)
(8.79517 -0.062756 -1.7484e-06)
(8.79517 -0.0627561 -2.13188e-06)
(8.79517 -0.0627561 -2.44523e-06)
(8.79517 -0.0627563 -2.68146e-06)
(8.79517 -0.0627564 -2.84392e-06)
(8.79517 -0.0627566 -2.93565e-06)
(8.79517 -0.0627568 -2.96187e-06)
(8.79517 -0.062757 -2.92725e-06)
(8.79517 -0.0627573 -2.83669e-06)
(8.79517 -0.0627575 -2.69088e-06)
(8.79517 -0.0627578 -2.49698e-06)
(8.79518 -0.0627581 -2.25226e-06)
(8.79518 -0.0627584 -1.9763e-06)
(8.79518 -0.0627586 -1.64685e-06)
(8.79518 -0.0627588 -1.29337e-06)
(8.79518 -0.062759 -8.08281e-07)
(8.79511 -0.0627582 -2.57616e-07)
(8.83745 -0.0795004 -1.93923e-07)
(8.83752 -0.0795017 -4.88597e-07)
(8.83752 -0.0795019 -7.66383e-07)
(8.83752 -0.0795023 -1.03783e-06)
(8.83752 -0.0795028 -1.27974e-06)
(8.83752 -0.0795034 -1.49066e-06)
(8.83752 -0.0795041 -1.66688e-06)
(8.83752 -0.0795048 -1.8095e-06)
(8.83752 -0.0795055 -1.91857e-06)
(8.83752 -0.0795062 -1.99396e-06)
(8.83752 -0.079507 -2.03317e-06)
(8.83752 -0.0795077 -2.03358e-06)
(8.83752 -0.0795083 -1.98772e-06)
(8.83752 -0.0795088 -1.89585e-06)
(8.83752 -0.0795093 -1.74733e-06)
(8.83752 -0.0795097 -1.56103e-06)
(8.83752 -0.07951 -1.31512e-06)
(8.83752 -0.0795102 -1.04071e-06)
(8.83752 -0.0795103 -6.33049e-07)
(8.83745 -0.0795091 -1.64303e-07)
(8.85598 -0.143949 -3.73753e-07)
(8.85605 -0.143951 -1.15699e-06)
(8.85605 -0.143951 -1.85509e-06)
(8.85605 -0.143952 -2.49969e-06)
(8.85605 -0.143952 -3.04499e-06)
(8.85606 -0.143952 -3.49307e-06)
(8.85606 -0.143952 -3.83132e-06)
(8.85606 -0.143953 -4.0612e-06)
(8.85606 -0.143953 -4.18369e-06)
(8.85606 -0.143953 -4.2043e-06)
(8.85606 -0.143954 -4.12822e-06)
(8.85606 -0.143954 -3.96178e-06)
(8.85606 -0.143955 -3.70969e-06)
(8.85607 -0.143955 -3.38303e-06)
(8.85607 -0.143956 -2.98378e-06)
(8.85607 -0.143956 -2.54453e-06)
(8.85607 -0.143956 -2.04501e-06)
(8.85607 -0.143956 -1.54162e-06)
(8.85607 -0.143956 -8.93483e-07)
(8.856 -0.143954 -2.72031e-07)
(8.95542 -0.156598 -2.71781e-07)
(8.95549 -0.1566 -6.43048e-07)
(8.95549 -0.156601 -9.99691e-07)
(8.95549 -0.156601 -1.35847e-06)
(8.95549 -0.156601 -1.69005e-06)
(8.95549 -0.156602 -1.98654e-06)
(8.95549 -0.156602 -2.24109e-06)
(8.95549 -0.156602 -2.45265e-06)
(8.95549 -0.156603 -2.61681e-06)
(8.95549 -0.156603 -2.73076e-06)
(8.95549 -0.156604 -2.78725e-06)
(8.95549 -0.156604 -2.78218e-06)
(8.95549 -0.156605 -2.70465e-06)
(8.95549 -0.156605 -2.55489e-06)
(8.95549 -0.156605 -2.32299e-06)
(8.95549 -0.156605 -2.03398e-06)
(8.95549 -0.156605 -1.67218e-06)
(8.95549 -0.156605 -1.26754e-06)
(8.95549 -0.156605 -7.31746e-07)
(8.95542 -0.156603 -1.66428e-07)
(8.97267 -0.262734 -4.28239e-07)
(8.97274 -0.262738 -1.36502e-06)
(8.97274 -0.262738 -2.19271e-06)
(8.97274 -0.262738 -2.96581e-06)
(8.97274 -0.262738 -3.61564e-06)
(8.97274 -0.262738 -4.15798e-06)
(8.97274 -0.262738 -4.5661e-06)
(8.97274 -0.262738 -4.84175e-06)
(8.97275 -0.262738 -4.98182e-06)
(8.97275 -0.262738 -4.99079e-06)
(8.97275 -0.262739 -4.8733e-06)
(8.97275 -0.262739 -4.63808e-06)
(8.97275 -0.262739 -4.29299e-06)
(8.97275 -0.26274 -3.8549e-06)
(8.97276 -0.26274 -3.33512e-06)
(8.97276 -0.26274 -2.78046e-06)
(8.97276 -0.26274 -2.17257e-06)
(8.97276 -0.262741 -1.60743e-06)
(8.97276 -0.262741 -9.27904e-07)
(8.97269 -0.262738 -3.01518e-07)
(9.15204 -0.26805 -3.11124e-07)
(9.15212 -0.268053 -6.43732e-07)
(9.15212 -0.268053 -9.97335e-07)
(9.15212 -0.268053 -1.40454e-06)
(9.15212 -0.268054 -1.79332e-06)
(9.15212 -0.268054 -2.15961e-06)
(9.15212 -0.268054 -2.48588e-06)
(9.15212 -0.268054 -2.77474e-06)
(9.15212 -0.268055 -3.01248e-06)
(9.15212 -0.268055 -3.19426e-06)
(9.15212 -0.268055 -3.30639e-06)
(9.15212 -0.268056 -3.34165e-06)
(9.15212 -0.268056 -3.28495e-06)
(9.15212 -0.268056 -3.13657e-06)
(9.15212 -0.268056 -2.88582e-06)
(9.15212 -0.268057 -2.56037e-06)
(9.15212 -0.268057 -2.15393e-06)
(9.15212 -0.268057 -1.71544e-06)
(9.15212 -0.268057 -1.09892e-06)
(9.15205 -0.268054 -2.92998e-07)
(9.15498 -0.474843 -4.43462e-07)
(9.15505 -0.474848 -1.43885e-06)
(9.15505 -0.474848 -2.33578e-06)
(9.15505 -0.474848 -3.22196e-06)
(9.15506 -0.474849 -3.97668e-06)
(9.15506 -0.474849 -4.60776e-06)
(9.15506 -0.474849 -5.08513e-06)
(9.15506 -0.47485 -5.41398e-06)
(9.15506 -0.47485 -5.58537e-06)
(9.15506 -0.47485 -5.60374e-06)
(9.15507 -0.474851 -5.47193e-06)
(9.15507 -0.474851 -5.2011e-06)
(9.15507 -0.474852 -4.80239e-06)
(9.15507 -0.474852 -4.30218e-06)
(9.15507 -0.474853 -3.71467e-06)
(9.15507 -0.474853 -3.10077e-06)
(9.15507 -0.474854 -2.45989e-06)
(9.15508 -0.474854 -1.90273e-06)
(9.15508 -0.474854 -1.13891e-06)
(9.155 -0.474849 -3.74485e-07)
(9.45157 -0.468975 -4.64139e-07)
(9.45164 -0.468981 -8.08489e-07)
(9.45164 -0.46898 -1.20675e-06)
(9.45164 -0.46898 -1.76378e-06)
(9.45164 -0.46898 -2.21807e-06)
(9.45164 -0.46898 -2.69578e-06)
(9.45164 -0.46898 -3.10249e-06)
(9.45164 -0.46898 -3.47263e-06)
(9.45164 -0.468979 -3.77098e-06)
(9.45164 -0.468979 -3.99848e-06)
(9.45164 -0.468979 -4.1363e-06)
(9.45164 -0.468979 -4.17964e-06)
(9.45165 -0.468979 -4.11164e-06)
(9.45165 -0.468979 -3.93993e-06)
(9.45165 -0.468979 -3.638e-06)
(9.45165 -0.468978 -3.25498e-06)
(9.45165 -0.468978 -2.71494e-06)
(9.45165 -0.468978 -2.17552e-06)
(9.45165 -0.468978 -1.35578e-06)
(9.45157 -0.468973 -3.00667e-07)
(9.41572 -0.908916 -4.75192e-07)
(9.41579 -0.908925 -1.34148e-06)
(9.41579 -0.908925 -2.17568e-06)
(9.41579 -0.908925 -3.07374e-06)
(9.4158 -0.908926 -3.76042e-06)
(9.4158 -0.908927 -4.3876e-06)
(9.4158 -0.908927 -4.85108e-06)
(9.4158 -0.908928 -5.1893e-06)
(9.4158 -0.908928 -5.37227e-06)
(9.4158 -0.908929 -5.41194e-06)
(9.41581 -0.908929 -5.30379e-06)
(9.41581 -0.90893 -5.06273e-06)
(9.41581 -0.90893 -4.6936e-06)
(9.41581 -0.908931 -4.23202e-06)
(9.41581 -0.908931 -3.66989e-06)
(9.41581 -0.908931 -3.09125e-06)
(9.41581 -0.908931 -2.40232e-06)
(9.41581 -0.908931 -1.84823e-06)
(9.41581 -0.908931 -1.04836e-06)
(9.41574 -0.908922 -2.67171e-07)
(9.86905 -0.889467 6.27516e-07)
(9.86911 -0.889474 -1.18223e-06)
(9.86911 -0.889473 -1.55151e-06)
(9.86911 -0.889473 -2.58536e-06)
(9.86911 -0.889473 -3.15212e-06)
(9.86911 -0.889472 -3.78139e-06)
(9.86911 -0.889472 -4.24842e-06)
(9.86911 -0.889472 -4.64375e-06)
(9.86911 -0.889471 -4.9124e-06)
(9.86911 -0.889471 -5.07112e-06)
(9.86912 -0.889471 -5.10201e-06)
(9.86912 -0.889471 -5.01276e-06)
(9.86912 -0.889471 -4.79411e-06)
(9.86912 -0.889471 -4.47647e-06)
(9.86912 -0.889471 -4.02467e-06)
(9.86912 -0.889472 -3.55728e-06)
(9.86912 -0.889472 -2.86475e-06)
(9.86912 -0.889472 -2.52596e-06)
(9.86912 -0.889474 -1.36126e-06)
(9.86906 -0.889467 -1.49082e-06)
(8.77911 0.67865 4.22187e-07)
(8.77917 0.678656 -1.11458e-07)
(8.77917 0.678655 -3.0674e-08)
(8.77917 0.678654 -2.24816e-07)
(8.77917 0.678654 -2.35499e-07)
(8.77917 0.678653 -3.47605e-07)
(8.77917 0.678651 -4.21775e-07)
(8.77917 0.67865 -5.29208e-07)
(8.77917 0.678649 -6.23483e-07)
(8.77917 0.678648 -7.19164e-07)
(8.77917 0.678647 -7.97817e-07)
(8.77917 0.678647 -8.58567e-07)
(8.77917 0.678646 -8.92698e-07)
(8.77917 0.678645 -9.04201e-07)
(8.77917 0.678645 -8.74817e-07)
(8.77917 0.678645 -8.52503e-07)
(8.77917 0.678644 -7.47894e-07)
(8.77917 0.678644 -7.6898e-07)
(8.77917 0.678645 -4.86931e-07)
(8.7791 0.678639 -7.11862e-07)
(8.82418 0.69203 -2.65167e-07)
(8.82424 0.692036 -7.41558e-07)
(8.82424 0.692036 -1.12139e-06)
(8.82424 0.692037 -1.54684e-06)
(8.82424 0.692038 -1.82797e-06)
(8.82424 0.692039 -2.09735e-06)
(8.82424 0.69204 -2.2675e-06)
(8.82424 0.692041 -2.38444e-06)
(8.82424 0.692042 -2.4197e-06)
(8.82424 0.692043 -2.3918e-06)
(8.82424 0.692044 -2.29607e-06)
(8.82424 0.692045 -2.14531e-06)
(8.82424 0.692046 -1.94411e-06)
(8.82424 0.692047 -1.71031e-06)
(8.82424 0.692048 -1.44382e-06)
(8.82424 0.692048 -1.18443e-06)
(8.82424 0.692049 -8.84264e-07)
(8.82424 0.692049 -6.56268e-07)
(8.82424 0.69205 -3.66378e-07)
(8.82417 0.692044 -1.53527e-07)
(8.85745 0.435932 8.25813e-08)
(8.85752 0.435937 4.0123e-07)
(8.85752 0.435937 7.60934e-07)
(8.85752 0.435937 9.78883e-07)
(8.85752 0.435937 1.20844e-06)
(8.85752 0.435938 1.31362e-06)
(8.85752 0.435938 1.37024e-06)
(8.85752 0.435938 1.3442e-06)
(8.85752 0.435938 1.26603e-06)
(8.85752 0.435939 1.14051e-06)
(8.85752 0.435939 9.87609e-07)
(8.85752 0.435939 8.21119e-07)
(8.85752 0.43594 6.53166e-07)
(8.85752 0.43594 4.95675e-07)
(8.85752 0.43594 3.62205e-07)
(8.85752 0.435941 2.40097e-07)
(8.85752 0.435941 1.70214e-07)
(8.85752 0.435941 7.36032e-08)
(8.85752 0.435941 4.66336e-08)
(8.85745 0.435937 -5.2588e-09)
(8.77914 0.433722 -2.00189e-07)
(8.77921 0.433726 -5.64465e-07)
(8.77921 0.433726 -8.44991e-07)
(8.77921 0.433726 -1.13916e-06)
(8.77921 0.433726 -1.36367e-06)
(8.77921 0.433726 -1.55695e-06)
(8.77921 0.433726 -1.68448e-06)
(8.7792 0.433725 -1.76589e-06)
(8.7792 0.433725 -1.7871e-06)
(8.7792 0.433725 -1.75667e-06)
(8.7792 0.433725 -1.67429e-06)
(8.7792 0.433726 -1.54816e-06)
(8.7792 0.433726 -1.38368e-06)
(8.7792 0.433726 -1.19245e-06)
(8.7792 0.433726 -9.76497e-07)
(8.7792 0.433726 -7.58742e-07)
(8.7792 0.433726 -5.23804e-07)
(8.7792 0.433726 -3.22009e-07)
(8.7792 0.433726 -1.2882e-07)
(8.77913 0.433722 -5.47139e-08)
(8.79589 0.254093 8.32271e-08)
(8.79595 0.254096 3.75976e-07)
(8.79595 0.254096 6.91233e-07)
(8.79595 0.254096 9.24962e-07)
(8.79595 0.254097 1.12317e-06)
(8.79595 0.254097 1.24865e-06)
(8.79595 0.254098 1.32094e-06)
(8.79595 0.254098 1.32975e-06)
(8.79595 0.254099 1.29122e-06)
(8.79595 0.254099 1.21204e-06)
(8.79595 0.2541 1.10654e-06)
(8.79595 0.2541 9.86566e-07)
(8.79595 0.254101 8.61996e-07)
(8.79595 0.254101 7.42428e-07)
(8.79595 0.254102 6.35765e-07)
(8.79595 0.254102 5.44574e-07)
(8.79595 0.254102 4.66683e-07)
(8.79595 0.254103 3.84331e-07)
(8.79595 0.254103 2.90797e-07)
(8.79588 0.2541 1.05207e-07)
(8.72413 0.245668 -9.96782e-08)
(8.7242 0.24567 -2.59539e-07)
(8.7242 0.24567 -3.90547e-07)
(8.7242 0.24567 -5.18425e-07)
(8.7242 0.245669 -6.02822e-07)
(8.7242 0.245669 -6.8233e-07)
(8.7242 0.245668 -7.29876e-07)
(8.7242 0.245668 -7.58837e-07)
(8.7242 0.245667 -7.59171e-07)
(8.7242 0.245667 -7.35806e-07)
(8.7242 0.245666 -6.87137e-07)
(8.7242 0.245665 -6.17917e-07)
(8.7242 0.245665 -5.28797e-07)
(8.7242 0.245665 -4.27384e-07)
(8.7242 0.245664 -3.0882e-07)
(8.7242 0.245664 -1.93556e-07)
(8.7242 0.245663 -6.06825e-08)
(8.7242 0.245663 2.81212e-08)
(8.7242 0.245663 7.64193e-08)
(8.72413 0.24566 3.29785e-08)
(8.73131 0.114266 -1.25198e-08)
(8.73138 0.114267 8.99887e-08)
(8.73138 0.114267 1.95911e-07)
(8.73138 0.114267 2.68493e-07)
(8.73138 0.114267 3.27663e-07)
(8.73138 0.114267 3.58795e-07)
(8.73138 0.114268 3.68885e-07)
(8.73138 0.114268 3.54126e-07)
(8.73138 0.114268 3.20931e-07)
(8.73138 0.114268 2.72945e-07)
(8.73138 0.114268 2.16906e-07)
(8.73138 0.114268 1.58146e-07)
(8.73138 0.114268 1.04695e-07)
(8.73138 0.114268 6.01112e-08)
(8.73138 0.114268 3.37844e-08)
(8.73138 0.114268 2.25005e-08)
(8.73138 0.114268 3.31252e-08)
(8.73138 0.114268 4.55609e-08)
(8.73138 0.114268 6.29031e-08)
(8.73131 0.114266 4.7073e-08)
(8.69704 0.100182 -7.5332e-08)
(8.69711 0.100182 -2.22995e-07)
(8.69711 0.100182 -3.42441e-07)
(8.69711 0.100182 -4.52775e-07)
(8.69711 0.100182 -5.25708e-07)
(8.69711 0.100181 -5.86434e-07)
(8.69711 0.100181 -6.19043e-07)
(8.69711 0.10018 -6.34188e-07)
(8.69711 0.100179 -6.28599e-07)
(8.69711 0.100179 -6.0664e-07)
(8.69711 0.100178 -5.69101e-07)
(8.69711 0.100178 -5.18956e-07)
(8.69711 0.100177 -4.54485e-07)
(8.69711 0.100177 -3.83513e-07)
(8.69711 0.100176 -2.96681e-07)
(8.69711 0.100176 -2.16099e-07)
(8.69711 0.100175 -1.17757e-07)
(8.69711 0.100175 -5.53624e-08)
(8.69711 0.100175 1.24448e-08)
(8.69704 0.100174 1.52075e-08)
(8.70245 -0.000216411 -9.37666e-08)
(8.70252 -0.000216591 -1.77823e-07)
(8.70252 -0.000216912 -2.62726e-07)
(8.70252 -0.000217359 -3.46882e-07)
(8.70252 -0.000217945 -4.16329e-07)
(8.70252 -0.000218634 -4.79153e-07)
(8.70252 -0.000219415 -5.31499e-07)
(8.70252 -0.000220258 -5.79575e-07)
(8.70252 -0.000221148 -6.24422e-07)
(8.70252 -0.000222061 -6.67295e-07)
(8.70252 -0.000222978 -7.07406e-07)
(8.70252 -0.000223879 -7.43629e-07)
(8.70252 -0.000224745 -7.67707e-07)
(8.70252 -0.000225556 -7.78596e-07)
(8.70252 -0.000226297 -7.58555e-07)
(8.70252 -0.000226951 -7.18254e-07)
(8.70252 -0.000227514 -6.24769e-07)
(8.70252 -0.000227964 -5.16693e-07)
(8.70252 -0.000228297 -3.24444e-07)
(8.70245 -0.000228391 -7.33749e-08)
(8.70336 -0.024795 -2.22695e-07)
(8.70343 -0.0247956 -6.27418e-07)
(8.70343 -0.0247962 -9.96454e-07)
(8.70343 -0.0247971 -1.3323e-06)
(8.70343 -0.0247982 -1.61116e-06)
(8.70343 -0.0247995 -1.83859e-06)
(8.70343 -0.0248009 -2.00456e-06)
(8.70343 -0.0248024 -2.1153e-06)
(8.70343 -0.024804 -2.17102e-06)
(8.70343 -0.0248056 -2.17516e-06)
(8.70343 -0.0248072 -2.1297e-06)
(8.70343 -0.0248087 -2.03843e-06)
(8.70343 -0.0248101 -1.89921e-06)
(8.70343 -0.0248114 -1.72316e-06)
(8.70343 -0.0248125 -1.50324e-06)
(8.70343 -0.0248135 -1.27107e-06)
(8.70343 -0.0248142 -9.96871e-07)
(8.70343 -0.0248148 -7.3701e-07)
(8.70343 -0.0248152 -3.8687e-07)
(8.70336 -0.024815 -7.67879e-08)
(8.7136 -0.114522 -3.12828e-07)
(8.71367 -0.114523 -9.26608e-07)
(8.71367 -0.114523 -1.49363e-06)
(8.71367 -0.114523 -2.00766e-06)
(8.71367 -0.114523 -2.43857e-06)
(8.71367 -0.114523 -2.79142e-06)
(8.71367 -0.114524 -3.05443e-06)
(8.71367 -0.114524 -3.23454e-06)
(8.71367 -0.114524 -3.33437e-06)
(8.71367 -0.114525 -3.35932e-06)
(8.71367 -0.114525 -3.31457e-06)
(8.71367 -0.114525 -3.20584e-06)
(8.71367 -0.114526 -3.03274e-06)
(8.71367 -0.114526 -2.80461e-06)
(8.71367 -0.114526 -2.51234e-06)
(8.71367 -0.114527 -2.18387e-06)
(8.71367 -0.114527 -1.7791e-06)
(8.71367 -0.114527 -1.36194e-06)
(8.71367 -0.114527 -8.05011e-07)
(8.7136 -0.114526 -2.3101e-07)
(8.74952 -0.140719 -2.97128e-07)
(8.74959 -0.140721 -7.54977e-07)
(8.74959 -0.140721 -1.1852e-06)
(8.74959 -0.140722 -1.58233e-06)
(8.74959 -0.140722 -1.92638e-06)
(8.74959 -0.140723 -2.21448e-06)
(8.74959 -0.140724 -2.44053e-06)
(8.74959 -0.140725 -2.60692e-06)
(8.74959 -0.140726 -2.71422e-06)
(8.74959 -0.140727 -2.76349e-06)
(8.74959 -0.140728 -2.75354e-06)
(8.74959 -0.140729 -2.68499e-06)
(8.74959 -0.14073 -2.5508e-06)
(8.74959 -0.140731 -2.35941e-06)
(8.74959 -0.140732 -2.09729e-06)
(8.74959 -0.140733 -1.79816e-06)
(8.74959 -0.140733 -1.42923e-06)
(8.74959 -0.140733 -1.05711e-06)
(8.74959 -0.140733 -5.72525e-07)
(8.74952 -0.140732 -1.00677e-07)
(8.7618 -0.251352 -4.60955e-07)
(8.76187 -0.251355 -1.43446e-06)
(8.76187 -0.251355 -2.32054e-06)
(8.76187 -0.251355 -3.12405e-06)
(8.76187 -0.251355 -3.79725e-06)
(8.76187 -0.251355 -4.35492e-06)
(8.76187 -0.251355 -4.77264e-06)
(8.76187 -0.251356 -5.05608e-06)
(8.76187 -0.251356 -5.20337e-06)
(8.76187 -0.251356 -5.22155e-06)
(8.76187 -0.251356 -5.1171e-06)
(8.76187 -0.251357 -4.8988e-06)
(8.76187 -0.251357 -4.57264e-06)
(8.76187 -0.251357 -4.15392e-06)
(8.76187 -0.251358 -3.64286e-06)
(8.76187 -0.251358 -3.07886e-06)
(8.76187 -0.251358 -2.42585e-06)
(8.76187 -0.251358 -1.78392e-06)
(8.76187 -0.251358 -1.00939e-06)
(8.7618 -0.251355 -2.98756e-07)
(8.83677 -0.269651 -3.51657e-07)
(8.83684 -0.269654 -8.37466e-07)
(8.83684 -0.269654 -1.29363e-06)
(8.83684 -0.269654 -1.73553e-06)
(8.83684 -0.269655 -2.13429e-06)
(8.83684 -0.269655 -2.4808e-06)
(8.83684 -0.269655 -2.76684e-06)
(8.83684 -0.269656 -2.99313e-06)
(8.83684 -0.269657 -3.15416e-06)
(8.83684 -0.269657 -3.24851e-06)
(8.83684 -0.269658 -3.2693e-06)
(8.83684 -0.269658 -3.21514e-06)
(8.83684 -0.269658 -3.07337e-06)
(8.83684 -0.269659 -2.85051e-06)
(8.83684 -0.269659 -2.5332e-06)
(8.83684 -0.269659 -2.15633e-06)
(8.83684 -0.26966 -1.69654e-06)
(8.83684 -0.26966 -1.22299e-06)
(8.83684 -0.26966 -6.53481e-07)
(8.83677 -0.269657 -1.09215e-07)
(8.84343 -0.431168 -5.35466e-07)
(8.8435 -0.431172 -1.69137e-06)
(8.8435 -0.431172 -2.73379e-06)
(8.8435 -0.431172 -3.68412e-06)
(8.8435 -0.431172 -4.46632e-06)
(8.8435 -0.431172 -5.13277e-06)
(8.8435 -0.431172 -5.63125e-06)
(8.8435 -0.431173 -5.96936e-06)
(8.8435 -0.431173 -6.13834e-06)
(8.8435 -0.431173 -6.14619e-06)
(8.8435 -0.431173 -5.99883e-06)
(8.8435 -0.431174 -5.70886e-06)
(8.8435 -0.431174 -5.28733e-06)
(8.8435 -0.431174 -4.7542e-06)
(8.8435 -0.431175 -4.11967e-06)
(8.8435 -0.431175 -3.43027e-06)
(8.8435 -0.431175 -2.64269e-06)
(8.8435 -0.431176 -1.90424e-06)
(8.8435 -0.431176 -1.06659e-06)
(8.84343 -0.431171 -3.32232e-07)
(8.9558 -0.436445 -3.71787e-07)
(8.95586 -0.43645 -8.52311e-07)
(8.95587 -0.43645 -1.28783e-06)
(8.95587 -0.43645 -1.77875e-06)
(8.95587 -0.43645 -2.24297e-06)
(8.95587 -0.43645 -2.6636e-06)
(8.95587 -0.436451 -3.02376e-06)
(8.95587 -0.436451 -3.33283e-06)
(8.95587 -0.436451 -3.57121e-06)
(8.95587 -0.436452 -3.7389e-06)
(8.95587 -0.436452 -3.81894e-06)
(8.95587 -0.436452 -3.80953e-06)
(8.95587 -0.436453 -3.69154e-06)
(8.95587 -0.436453 -3.47356e-06)
(8.95587 -0.436453 -3.13924e-06)
(8.95587 -0.436453 -2.72727e-06)
(8.95587 -0.436453 -2.22899e-06)
(8.95587 -0.436453 -1.68507e-06)
(8.95586 -0.436453 -9.80635e-07)
(8.9558 -0.436449 -2.41673e-07)
(8.94462 -0.679187 -5.87739e-07)
(8.94468 -0.679194 -1.85901e-06)
(8.94469 -0.679193 -2.93654e-06)
(8.94468 -0.679194 -3.99365e-06)
(8.94468 -0.679194 -4.89814e-06)
(8.94468 -0.679194 -5.64919e-06)
(8.94468 -0.679194 -6.205e-06)
(8.94468 -0.679194 -6.57987e-06)
(8.94468 -0.679194 -6.75681e-06)
(8.94468 -0.679195 -6.74888e-06)
(8.94468 -0.679195 -6.56126e-06)
(8.94468 -0.679195 -6.21361e-06)
(8.94469 -0.679196 -5.72058e-06)
(8.94469 -0.679196 -5.11667e-06)
(8.94469 -0.679197 -4.41411e-06)
(8.94469 -0.679197 -3.67571e-06)
(8.94469 -0.679198 -2.87595e-06)
(8.94469 -0.679198 -2.08692e-06)
(8.94469 -0.679198 -1.141e-06)
(8.94462 -0.679192 -3.74417e-07)
(9.05175 -0.665858 -3.73875e-07)
(9.05182 -0.665865 -8.53377e-07)
(9.05182 -0.665865 -1.33079e-06)
(9.05182 -0.665865 -1.92802e-06)
(9.05182 -0.665865 -2.39617e-06)
(9.05182 -0.665865 -2.90603e-06)
(9.05182 -0.665864 -3.3328e-06)
(9.05182 -0.665864 -3.73222e-06)
(9.05182 -0.665864 -4.05293e-06)
(9.05182 -0.665864 -4.30462e-06)
(9.05182 -0.665864 -4.45682e-06)
(9.05182 -0.665864 -4.5128e-06)
(9.05182 -0.665863 -4.44107e-06)
(9.05182 -0.665863 -4.25941e-06)
(9.05182 -0.665863 -3.91927e-06)
(9.05182 -0.665863 -3.49912e-06)
(9.05182 -0.665862 -2.89021e-06)
(9.05182 -0.665862 -2.2896e-06)
(9.05182 -0.665862 -1.46124e-06)
(9.05175 -0.665855 -4.52579e-07)
(9.00366 -1.02639 -5.53904e-07)
(9.00373 -1.02639 -1.78132e-06)
(9.00373 -1.02639 -2.88293e-06)
(9.00373 -1.0264 -3.99582e-06)
(9.00373 -1.0264 -4.83377e-06)
(9.00373 -1.0264 -5.57342e-06)
(9.00373 -1.0264 -6.08432e-06)
(9.00373 -1.0264 -6.42481e-06)
(9.00373 -1.0264 -6.55315e-06)
(9.00373 -1.0264 -6.49627e-06)
(9.00373 -1.0264 -6.25317e-06)
(9.00373 -1.0264 -5.85538e-06)
(9.00373 -1.0264 -5.31112e-06)
(9.00373 -1.02641 -4.67862e-06)
(9.00373 -1.02641 -3.94514e-06)
(9.00373 -1.02641 -3.226e-06)
(9.00373 -1.02641 -2.40206e-06)
(9.00373 -1.02641 -1.75337e-06)
(9.00373 -1.02641 -8.72229e-07)
(9.00366 -1.0264 -2.26872e-07)
(8.91499 -0.975421 -2.76667e-07)
(8.91505 -0.975428 -1.18994e-06)
(8.91505 -0.975427 -2.00279e-06)
(8.91505 -0.975426 -3.07528e-06)
(8.91505 -0.975425 -3.7829e-06)
(8.91505 -0.975425 -4.52763e-06)
(8.91505 -0.975424 -5.10035e-06)
(8.91505 -0.975424 -5.60029e-06)
(8.91505 -0.975423 -5.95342e-06)
(8.91505 -0.975423 -6.18057e-06)
(8.91505 -0.975423 -6.25449e-06)
(8.91505 -0.975423 -6.19384e-06)
(8.91505 -0.975423 -5.97176e-06)
(8.91505 -0.975424 -5.62882e-06)
(8.91505 -0.975425 -5.11148e-06)
(8.91505 -0.975425 -4.55167e-06)
(8.91505 -0.975426 -3.75218e-06)
(8.91505 -0.975427 -3.14097e-06)
(8.91505 -0.975429 -2.07804e-06)
(8.91499 -0.975422 -8.69712e-07)
(8.88085 0.727713 2.8542e-07)
(8.88091 0.727719 -5.08418e-07)
(8.88091 0.727719 -1.16766e-07)
(8.88091 0.727718 -2.53633e-07)
(8.88091 0.727718 -1.90484e-07)
(8.88091 0.727717 -2.74186e-07)
(8.88091 0.727716 -3.08641e-07)
(8.88091 0.727716 -3.83296e-07)
(8.88091 0.727715 -4.41908e-07)
(8.88091 0.727714 -5.01711e-07)
(8.88091 0.727713 -5.45146e-07)
(8.88091 0.727713 -5.75691e-07)
(8.88091 0.727712 -5.81677e-07)
(8.88091 0.727711 -5.77024e-07)
(8.88091 0.727711 -5.32224e-07)
(8.88091 0.727711 -5.16701e-07)
(8.88091 0.72771 -3.87077e-07)
(8.88091 0.72771 -4.20811e-07)
(8.88091 0.72771 9.35199e-08)
(8.88084 0.727704 -5.06022e-07)
(8.74988 0.739067 -4.8706e-07)
(8.74995 0.739074 -7.33158e-07)
(8.74995 0.739074 -8.71865e-07)
(8.74995 0.739074 -1.1391e-06)
(8.74995 0.739075 -1.31043e-06)
(8.74995 0.739076 -1.51505e-06)
(8.74995 0.739077 -1.64935e-06)
(8.74995 0.739078 -1.76149e-06)
(8.74995 0.739079 -1.8141e-06)
(8.74995 0.73908 -1.82378e-06)
(8.74995 0.739081 -1.78345e-06)
(8.74995 0.739081 -1.70226e-06)
(8.74995 0.739082 -1.57703e-06)
(8.74995 0.739083 -1.42541e-06)
(8.74995 0.739084 -1.23346e-06)
(8.74995 0.739084 -1.04931e-06)
(8.74995 0.739085 -7.98531e-07)
(8.74995 0.739085 -5.8614e-07)
(8.74995 0.739086 -2.36796e-07)
(8.74988 0.73908 8.99879e-08)
(8.78431 0.465599 -1.50364e-07)
(8.78438 0.465603 2.53133e-07)
(8.78438 0.465603 6.13024e-07)
(8.78438 0.465603 8.3288e-07)
(8.78438 0.465603 1.08307e-06)
(8.78438 0.465603 1.19892e-06)
(8.78438 0.465603 1.27998e-06)
(8.78438 0.465603 1.2846e-06)
(8.78438 0.465604 1.24524e-06)
(8.78437 0.465604 1.16376e-06)
(8.78437 0.465604 1.06092e-06)
(8.78437 0.465604 9.45636e-07)
(8.78437 0.465604 8.26355e-07)
(8.78437 0.465605 7.09369e-07)
(8.78437 0.465605 6.10715e-07)
(8.78437 0.465605 5.07675e-07)
(8.78437 0.465605 4.64685e-07)
(8.78437 0.465605 3.55291e-07)
(8.78437 0.465606 2.89514e-07)
(8.7843 0.465602 2.58694e-07)
(8.69273 0.466148 -2.47057e-07)
(8.6928 0.466152 -4.961e-07)
(8.6928 0.466152 -6.86322e-07)
(8.6928 0.466152 -9.0713e-07)
(8.6928 0.466152 -1.08369e-06)
(8.6928 0.466153 -1.24423e-06)
(8.6928 0.466153 -1.35555e-06)
(8.6928 0.466153 -1.43512e-06)
(8.6928 0.466153 -1.46624e-06)
(8.6928 0.466153 -1.45481e-06)
(8.6928 0.466154 -1.39807e-06)
(8.6928 0.466154 -1.30352e-06)
(8.6928 0.466154 -1.17275e-06)
(8.6928 0.466154 -1.01842e-06)
(8.6928 0.466155 -8.34058e-07)
(8.6928 0.466155 -6.43915e-07)
(8.6928 0.466155 -4.23474e-07)
(8.6928 0.466155 -2.15012e-07)
(8.6928 0.466155 -3.01706e-08)
(8.69273 0.466152 4.21981e-08)
(8.71037 0.271674 4.15161e-08)
(8.71044 0.271677 4.18898e-07)
(8.71044 0.271677 7.89526e-07)
(8.71044 0.271677 1.08058e-06)
(8.71044 0.271678 1.3266e-06)
(8.71044 0.271678 1.49489e-06)
(8.71044 0.271679 1.60426e-06)
(8.71044 0.271679 1.64379e-06)
(8.71043 0.27168 1.63098e-06)
(8.71043 0.27168 1.57322e-06)
(8.71043 0.271681 1.48385e-06)
(8.71043 0.271681 1.37346e-06)
(8.71043 0.271682 1.25189e-06)
(8.71043 0.271682 1.12752e-06)
(8.71043 0.271682 1.00928e-06)
(8.71043 0.271683 9.00064e-07)
(8.71043 0.271683 7.99882e-07)
(8.71043 0.271683 6.77237e-07)
(8.71043 0.271683 5.10522e-07)
(8.71036 0.271681 2.39497e-07)
(8.65187 0.264189 -1.0348e-07)
(8.65194 0.264191 -2.10532e-07)