/*--------------------------------*- C++ -*----------------------------------*\
| =========                 |                                                 |
| \\      /  F ield         | OpenFOAM: The Open Source CFD Toolbox           |
|  \\    /   O peration     | Version:  2212                                  |
|   \\  /    A nd           | Website:  www.openfoam.com                      |
|    \\/     M anipulation  |                                                 |
\*---------------------------------------------------------------------------*/
FoamFile
{
    version     2.0;
    format      ascii;
    arch        "LSB;label=32;scalar=64";
    class       surfaceScalarField;
    location    "0.0225";
    object      phi;
}
// * * * * * * * * * * * * * * * * * * * * * * * * * * * * * * * * * * * * * //

dimensions      [1 0 -1 0 0 0 0];

oriented        oriented;

internalField   nonuniform List<scalar> 
4475
(
3.51882e-05
-3.11092e-05
2.96306e-05
-2.8409e-05
-1.00909e-05
4.56008e-05
1.31013e-06
-3.41894e-05
8.77595e-06
-1.05598e-05
2.52778e-05
-2.14314e-05
-3.72477e-06
3.96904e-05
4.25085e-06
-3.27788e-05
-3.18334e-05
2.90658e-05
3.0644e-05
-2.68577e-05
2.86982e-05
-1.94135e-05
-3.13971e-05
2.48806e-05
-9.42231e-06
8.50841e-06
4.49176e-05
-4.03903e-05
-2.21835e-05
-3.4301e-05
2.81776e-05
2.9076e-05
3.11567e-05
-3.38311e-05
-2.89328e-05
-6.70752e-05
-3.32225e-06
8.43404e-06
6.11439e-05
-9.96978e-06
8.20783e-06
-6.29033e-05
-6.01845e-05
1.1896e-05
-6.95185e-06
6.06449e-05
-5.69398e-05
5.65663e-06
-3.40805e-06
-5.46812e-05
4.04362e-06
-1.92059e-06
-5.33245e-05
3.05038e-06
-1.27695e-06
-5.23053e-05
2.16138e-06
-1.21034e-06
1.742e-06
-4.98327e-05
-2.71659e-06
4.92621e-05
-4.52135e-06
-4.69935e-05
3.71945e-06
5.30967e-05
-7.98207e-07
5.42299e-05
2.64743e-06
5.55787e-05
4.14362e-06
5.79061e-05
5.00946e-06
6.21304e-05
5.51986e-06
7.31193e-05
4.6591e-06
6.7364e-05
-3.00931e-06
6.51069e-05
-3.30486e-06
8.20811e-05
-2.46932e-07
-2.22128e-05
7.44253e-05
1.14313e-05
-1.24691e-05
4.6942e-05
-4.29597e-05
-9.29072e-06
-4.77219e-05
-5.01381e-06
7.12614e-05
1.52603e-05
-1.90954e-05
7.16974e-05
1.84149e-05
-2.26035e-05
7.57938e-05
2.03514e-05
-2.35641e-05
8.24323e-05
2.05575e-05
-2.2979e-05
8.94924e-05
1.94329e-05
-2.11956e-05
9.43408e-05
1.82305e-05
-1.95354e-05
9.58601e-05
1.745e-05
-1.87309e-05
9.29736e-05
1.75076e-05
-1.92079e-05
8.5058e-05
1.9176e-05
-2.1501e-05
7.36381e-05
2.2913e-05
-2.56232e-05
6.34746e-05
2.77532e-05
-3.06293e-05
6.06711e-05
3.26921e-05
-3.5416e-05
6.83148e-05
3.66782e-05
-3.9242e-05
8.67903e-05
3.91411e-05
-4.2157e-05
4.11277e-05
0.000111344
-4.58479e-05
-8.96555e-05
0.000114881
3.5566e-05
-7.13993e-05
3.49566e-05
-6.44759e-05
3.30335e-05
-6.81938e-05
2.98055e-05
-7.82994e-05
2.52103e-05
-8.83849e-05
2.0819e-05
-9.43812e-05
1.74181e-05
-9.61469e-05
1.65652e-05
-9.34517e-05
1.58648e-05
-8.79247e-05
1.60777e-05
-8.15669e-05
1.67083e-05
-7.61833e-05
1.63737e-05
-7.37846e-05
1.50844e-05
-7.5203e-05
1.24492e-05
-7.87257e-05
9.7522e-06
-8.52801e-05
9.1017e-06
-6.87286e-05
1.62127e-05
-3.72775e-05
-6.98323e-05
9.76302e-06
-6.34719e-05
5.0692e-06
-6.00139e-05
1.07356e-06
5.21823e-07
-5.9243e-05
-1.5925e-06
-5.62738e-05
-3.49008e-07
-5.4138e-05
7.77912e-07
-5.29032e-05
8.65303e-07
-5.1828e-05
-2.68031e-07
-5.10116e-05
-1.97176e-06
4.45177e-05
-5.12021e-05
0.000142255
3.59641e-05
0.000148813
5.42451e-05
-2.51354e-06
-5.13061e-05
5.50352e-05
2.81076e-06
5.61523e-05
4.29436e-06
5.81409e-05
4.71532e-06
6.20527e-05
3.55583e-06
6.67503e-05
9.46526e-07
6.62413e-05
-3.89893e-06
6.66155e-05
-7.68145e-06
7.07881e-05
-1.05157e-05
6.91967e-05
-1.69187e-05
6.83144e-05
-2.20202e-05
7.06544e-05
-2.45223e-05
7.6334e-05
-2.47554e-05
8.38797e-05
-2.36516e-05
9.0934e-05
-2.18026e-05
9.48625e-05
-2.01976e-05
9.51655e-05
-2.00351e-05
9.05507e-05
-2.10984e-05
8.08709e-05
-2.40643e-05
6.85222e-05
-2.83842e-05
5.87736e-05
-3.311e-05
5.68842e-05
-3.71484e-05
6.50286e-05
-4.05196e-05
8.25519e-05
-4.38491e-05
0.000104304
-4.89122e-05
-5.76571e-06
-4.58287e-05
6.62383e-06
-5.70159e-05
0.0001318
-9.34258e-06
-4.2193e-05
-4.88513e-05
-5.41232e-06
-0.000116287
0.000151468
2.6081e-05
-9.05746e-05
2.88491e-05
-7.28903e-05
2.98556e-05
-6.76414e-05
2.96647e-05
-7.21609e-05
2.71192e-05
-8.20398e-05
2.32183e-05
-9.10402e-05
1.95188e-05
-9.62337e-05
1.68083e-05
-9.61553e-05
1.5076e-05
-9.28611e-05
1.39974e-05
-8.75466e-05
1.34899e-05
-8.15817e-05
1.24893e-05
-7.74392e-05
1.08342e-05
-7.67105e-05
8.4303e-06
-7.89585e-05
5.59612e-06
-8.22141e-05
3.56152e-06
-8.45892e-05
3.49028e-06
-7.73615e-05
5.61016e-06
-7.12252e-05
4.95515e-06
-6.54195e-05
4.24364e-06
-6.04678e-05
2.83308e-06
-5.75177e-05
2.49891e-06
-5.52282e-05
3.3951e-06
-5.37166e-05
3.95573e-06
-5.34842e-05
3.49546e-06
-5.32335e-05
1.27243e-06
-5.21051e-05
-1.53913e-06
-2.51016e-05
4.30805e-05
-4.02937e-05
1.66627e-05
-3.32901e-05
-8.84581e-06
2.80902e-05
-2.24741e-05
-2.14116e-05
2.65079e-05
1.98212e-05
2.53299e-05
6.02533e-05
6.42785e-06
-1.12258e-05
-5.28867e-05
5.5999e-05
2.8394e-06
5.56642e-05
3.19225e-06
5.58321e-05
3.93343e-06
5.71852e-05
3.14798e-06
5.95226e-05
9.09217e-07
6.21535e-05
-2.88532e-06
6.30444e-05
-7.69533e-06
6.30284e-05
-1.21852e-05
6.38784e-05
-1.63026e-05
6.40815e-05
-2.06729e-05
6.56333e-05
-2.38227e-05
7.0171e-05
-2.4949e-05
7.73738e-05
-2.44719e-05
8.52913e-05
-2.2968e-05
9.20059e-05
-2.15025e-05
9.48467e-05
-2.0633e-05
9.36565e-05
-2.10153e-05
8.74914e-05
-2.28871e-05
7.64799e-05
-2.62436e-05
6.394e-05
-3.04709e-05
5.47463e-05
-3.4216e-05
5.34125e-05
-3.73228e-05
6.10789e-05
-4.04651e-05
7.65239e-05
-4.45222e-05
9.52621e-05
-5.09758e-05
0.00011813
-6.07795e-05
6.83407e-05
0.000143037
-7.43401e-05
6.01015e-05
0.000160331
5.00654e-05
0.000174928
3.80936e-05
0.000185258
-2.63419e-05
2.62218e-05
-3.3659e-05
0.000190148
2.46123e-05
-3.94259e-05
-2.883e-05
4.18277e-05
-3.13322e-05
3.80269e-05
2.46747e-05
-3.28557e-05
-1.10152e-05
-4.49626e-05
3.90966e-05
-3.02851e-05
3.63621e-05
-4.61864e-05
2.97144e-05
2.99439e-05
-2.92682e-05
-5.47263e-05
4.30797e-07
1.16706e-05
-5.08081e-05
-4.69958e-06
8.45438e-05
-9.10621e-05
0.000167735
7.33236e-05
0.000188606
5.91125e-05
0.000206569
4.20637e-05
0.000220598
2.33052e-05
0.000227572
-0.000189693
3.78446e-06
0.000228333
-0.000149146
9.78038e-06
-0.000114816
1.67079e-05
-8.89317e-05
2.16035e-05
-7.31946e-05
2.54708e-05
-6.95193e-05
2.65316e-05
-7.54067e-05
2.49483e-05
-8.51996e-05
2.13966e-05
-9.32221e-05
1.82057e-05
-9.71656e-05
1.57107e-05
-9.67791e-05
1.34584e-05
-9.33668e-05
1.157e-05
-8.79354e-05
9.69323e-06
-8.26993e-05
7.46339e-06
-7.95663e-05
4.64707e-06
-7.95762e-05
1.41107e-06
-8.15144e-05
-1.16466e-06
-8.37068e-05
-2.78274e-06
-8.35569e-05
-2.51671e-06
-7.85689e-05
-4.95311e-07
-7.2113e-05
1.93001e-06
-6.45606e-05
3.10553e-06
-5.91035e-05
4.96007e-06
-5.59086e-05
6.23793e-06
-5.40941e-05
7.01217e-06
-5.38437e-05
7.38577e-06
-5.44529e-05
6.09316e-06
-5.50797e-05
3.26738e-06
-6.23381e-07
-5.43721e-05
5.39572e-06
-4.38313e-06
-4.64419e-05
4.99207e-05
5.25435e-05
-4.06562e-05
3.77387e-05
-4.51663e-05
2.86306e-05
-2.6085e-05
2.98923e-05
3.52641e-05
6.20123e-06
2.4832e-06
3.90374e-05
8.52516e-06
-1.00234e-05
4.32146e-05
8.15375e-06
4.74165e-05
7.23342e-06
-6.66422e-06
5.13351e-05
6.2052e-06
5.51205e-05
5.76088e-06
-5.74857e-06
5.81263e-05
5.44508e-06
5.70241e-05
4.16066e-06
5.57181e-05
3.31091e-06
5.4917e-05
2.86353e-06
5.51045e-05
7.97647e-07
5.60889e-05
-2.38362e-06
5.74606e-05
-7.10327e-06
5.81076e-05
-1.19414e-05
5.85366e-05
-1.65688e-05
5.93855e-05
-2.02999e-05
6.09651e-05
-2.30024e-05
6.44125e-05
-2.42634e-05
7.03868e-05
-2.41266e-05
7.8362e-05
-2.32111e-05
8.62225e-05
-2.14499e-05
9.21969e-05
-2.07342e-05
9.35535e-05
-2.06572e-05
9.1443e-05
-2.17928e-05
8.38717e-05
-2.41348e-05
7.25185e-05
-2.77221e-05
6.01293e-05
-3.09502e-05
5.15883e-05
-3.36245e-05
5.02298e-05
-3.61557e-05
5.6464e-05
-3.92279e-05
6.88161e-05
-4.39761e-05
8.43223e-05
-5.17696e-05
0.000103721
-6.2532e-05
0.000125221
-7.64929e-05
-9.29955e-05
0.0001479
-1.26211e-05
1.4325e-05
-9.76557e-06
6.07964e-06
-3.17719e-05
3.00133e-05
6.13114e-06
-1.16285e-05
-2.01342e-06
5.89284e-06
-8.95394e-06
3.54464e-05
7.77944e-06
-2.81327e-05
5.24243e-05
2.8004e-05
-4.54574e-05
-3.18122e-05
-3.94936e-05
-2.23802e-05
-9.46099e-06
-4.96234e-05
-4.49622e-05
-5.55955e-06
5.02266e-05
-0.000181873
0.00022161
-1.51773e-05
-0.000142847
-2.34046e-06
-0.00010903
7.72396e-06
-8.50951e-05
1.63934e-05
-7.15509e-05
2.1763e-05
-7.04666e-05
2.3826e-05
-7.81237e-05
2.24953e-05
-8.83957e-05
1.90122e-05
-9.58551e-05
1.57459e-05
-9.89228e-05
1.27666e-05
-9.81842e-05
1.01686e-05
-9.4677e-05
7.73349e-06
-8.94976e-05
4.99186e-06
-8.48977e-05
2.26021e-06
-8.23103e-05
-1.18187e-06
-8.23728e-05
-4.52199e-06
-8.3079e-05
-6.95771e-06
-8.38479e-05
-7.93978e-06
-8.18959e-05
-7.0247e-06
-7.66482e-05
-3.98138e-06
-6.9461e-05
2.18371e-07
-6.20911e-05
3.16834e-06
-5.69208e-05
7.33505e-06
-5.4311e-05
9.52033e-06
-5.35746e-05
1.03894e-05
-5.45209e-05
1.03103e-05
-5.60146e-05
8.36114e-06
-5.66711e-05
4.78871e-06
-5.66095e-05
1.14998e-06
-3.66363e-06
-5.29899e-05
-3.42341e-05
-3.28408e-05
3.62261e-05
-1.49387e-06
-3.66755e-05
3.00064e-05
6.24116e-06
3.52914e-05
8.69723e-06
-3.70016e-05
3.82718e-05
8.14518e-06
4.26269e-05
7.96704e-06
4.73763e-05
7.45587e-06
5.20012e-05
6.3284e-06
5.56921e-05
5.65792e-06
5.75182e-05
5.04904e-06
5.68371e-05
4.07039e-06
5.47245e-05
2.85488e-06
5.29732e-05
1.01595e-06
5.17431e-05
-1.85492e-06
5.18021e-05
-6.23601e-06
5.24225e-05
-1.13032e-05
5.33386e-05
-1.61424e-05
5.454e-05
-2.02482e-05
5.63909e-05
-2.29217e-05
5.94799e-05
-2.40672e-05
6.45731e-05
-2.38718e-05
7.15745e-05
-2.27051e-05
7.93038e-05
-2.10532e-05
8.68171e-05
-1.97806e-05
9.13275e-05
-1.94466e-05
9.17505e-05
-2.03588e-05
8.86335e-05
-2.20452e-05
8.06627e-05
-2.49737e-05
6.90874e-05
-2.76441e-05
5.73828e-05
-2.98122e-05
4.92279e-05
-3.17105e-05
4.70085e-05
-3.36199e-05
5.08286e-05
-3.6685e-05
5.98493e-05
-4.21761e-05
7.24349e-05
-5.07136e-05
8.86232e-05
-6.14098e-05
0.000107876
-7.48828e-05
0.000128324
-9.01403e-05
0.000111166
-0.000106885
0.00014851
0.000110642
0.000169483
0.000103629
0.000190708
8.99025e-05
0.000213221
7.02633e-05
0.000233502
4.87741e-05
0.0002475
2.45731e-05
0.000256407
-1.28719e-06
0.000259486
0.000254946
-2.64497e-05
-1.43838e-08
4.66071e-07
2.82316e-06
-5.89945e-06
4.31052e-06
-1.67215e-05
1.73235e-05
-6.41569e-06
4.95818e-06
-5.63715e-06
6.71264e-06
-4.90409e-05
-2.37514e-05
4.26015e-05
3.71407e-05
-4.09095e-05
-3.57769e-06
6.60245e-06
-3.41043e-07
-5.44176e-05
-2.8096e-06
-7.13262e-06
-5.20211e-05
-3.1212e-05
-3.66245e-05
3.31606e-05
-4.0012e-05
-2.3208e-05
1.3377e-05
-4.68485e-05
3.5813e-05
-4.24945e-05
5.61688e-05
2.84549e-05
3.2098e-05
3.36963e-05
-3.28695e-05
8.82914e-06
3.62723e-05
8.40767e-06
4.12098e-05
7.46272e-06
4.68332e-05
6.92223e-06
5.19879e-05
5.81914e-06
5.56178e-05
5.06536e-06
5.68985e-05
4.34094e-06
5.57875e-05
3.21062e-06
5.30256e-05
1.53049e-06
4.9846e-05
-1.12051e-06
4.76846e-05
-4.95399e-06
4.68153e-05
-9.90106e-06
4.73824e-05
-1.52441e-05
4.90096e-05
-1.97717e-05
5.15269e-05
-2.3012e-05
5.49725e-05
-2.44607e-05
5.95668e-05
-2.41608e-05
6.55583e-05
-2.27093e-05
7.24927e-05
-2.06251e-05
7.97866e-05
-1.88208e-05
8.61107e-05
-1.79196e-05
8.96126e-05
-1.82409e-05
8.93856e-05
-1.96219e-05
8.5947e-05
-2.20573e-05
7.75587e-05
-2.4471e-05
6.65202e-05
-2.62119e-05
5.56434e-05
-2.76774e-05
4.72516e-05
-2.85458e-05
4.32756e-05
-2.98978e-05
4.45763e-05
-3.31305e-05
5.06624e-05
-3.89738e-05
6.03518e-05
-4.72536e-05
7.39243e-05
-5.78446e-05
9.16021e-05
-7.06834e-05
0.000111248
-8.50005e-05
0.000130597
-0.000100048
0.0001245
-0.00011529
0.000147794
0.000130938
0.000166236
0.000132297
0.000187093
0.000123089
0.000210103
0.000106101
0.000229873
8.36051e-05
0.000246256
5.63496e-05
0.000258552
2.5605e-05
0.00026761
-5.5661e-06
0.000270868
-3.61213e-05
0.000270374
-0.000242823
0.000263734
-6.27886e-05
-0.000208228
-4.71671e-05
-0.000169071
-2.95371e-05
-0.00013089
-1.19377e-05
-0.000100759
2.4601e-06
-7.83851e-05
1.25676e-05
-6.87904e-05
1.906e-05
-7.11543e-05
2.07652e-05
-8.07262e-05
1.84541e-05
-9.14475e-05
1.45131e-05
-9.83381e-05
1.04269e-05
-0.000101134
7.22026e-06
-0.000100151
4.40397e-06
-9.67307e-05
2.20459e-06
-9.20641e-05
-2.32432e-07
-8.75652e-05
-2.61359e-06
-8.51107e-05
-5.79844e-06
-8.42265e-05
-8.44727e-06
-8.39662e-05
-1.05442e-05
-8.274e-05
-1.09227e-05
-7.90726e-05
-9.03964e-06
-7.29105e-05
-5.07907e-06
-6.56598e-05
3.5421e-07
-5.87924e-05
4.40476e-06
-5.45421e-05
9.56795e-06
-5.2629e-05
1.19993e-05
-5.34269e-05
1.29695e-05
-5.56628e-05
1.23386e-05
-5.78427e-05
9.98763e-06
-5.90139e-05
6.51125e-06
2.23235e-06
-5.77488e-05
-3.79574e-05
-3.31509e-05
3.80534e-05
-5.58539e-06
-5.19465e-05
-5.44198e-05
-6.53975e-06
1.31405e-05
-3.61203e-06
-3.13978e-05
-3.99574e-05
4.37068e-05
-4.11309e-05
-2.60052e-05
3.99208e-05
-2.08911e-05
-1.65241e-05
3.27536e-05
-2.94174e-05
-9.43396e-07
2.64817e-05
9.18169e-06
-4.5925e-06
3.00566e-05
8.9766e-06
-3.03618e-05
3.05269e-05
9.43644e-06
3.38832e-05
8.18926e-06
3.93445e-05
6.80217e-06
4.57906e-05
5.67008e-06
5.13967e-05
4.70045e-06
5.4957e-05
3.8068e-06
5.57204e-05
3.18894e-06
5.39829e-05
1.728e-06
5.01784e-05
-3.15281e-07
4.57987e-05
-3.57046e-06
4.2656e-05
-8.03258e-06
4.14311e-05
-1.32354e-05
4.24951e-05
-1.84688e-05
4.53218e-05
-2.24924e-05
4.96395e-05
-2.47946e-05
5.48083e-05
-2.49727e-05
6.05829e-05
-2.33559e-05
6.69239e-05
-2.10009e-05
7.34582e-05
-1.84122e-05
7.97942e-05
-1.66346e-05
8.48667e-05
-1.60747e-05
8.7242e-05
-1.68777e-05
8.68982e-05
-1.86537e-05
8.28377e-05
-2.10034e-05
7.48952e-05
-2.28502e-05
6.51267e-05
-2.42165e-05
5.45244e-05
-2.4555e-05
4.50984e-05
-2.44834e-05
3.92311e-05
-2.56012e-05
3.8075e-05
-2.88664e-05
4.13228e-05
-3.43537e-05
4.8949e-05
-4.23658e-05
6.03564e-05
-5.25311e-05
7.61799e-05
-6.45856e-05
9.54922e-05
-7.87731e-05
0.000115851
-9.33253e-05
0.000134411
-0.000106737
0.000129527
0.000148204
-0.000116934
0.000143048
0.000159539
0.000152107
0.000178223
0.000152818
0.000198735
0.00014368
0.000217999
0.000122898
0.000233045
9.58127e-05
0.000243791
6.38075e-05
0.000255203
2.94896e-05
0.000263601
-7.16219e-06
0.000268324
-4.13418e-05
0.000267179
-7.18148e-05
0.000263098
-0.000252491
0.000261213
-9.75395e-05
-0.000225611
-8.31406e-05
-0.000189055
-6.17303e-05
-0.000150224
-3.83721e-05
-0.000114977
-1.66924e-05
-8.83754e-05
3.73668e-07
-7.06488e-05
1.10407e-05
-6.61942e-05
1.64691e-05
-7.26328e-05
1.59697e-05
-8.42413e-05
1.13202e-05
-9.45239e-05
5.58444e-06
-0.000101058
9.36206e-07
-0.000103365
-1.85649e-06
-0.000102179
-3.56929e-06
-9.84703e-05
-4.3836e-06
-9.39683e-05
-5.32489e-06
-8.98757e-05
-6.71602e-06
-8.75232e-05
-8.33883e-06
-8.56858e-05
-1.03089e-05
-8.3932e-05
-1.15007e-05
-8.06574e-05
-1.10085e-05
-7.51644e-05
-8.3411e-06
-6.79879e-05
-3.74463e-06
-6.0234e-05
1.81012e-06
-5.46621e-05
6.80393e-06
-5.13415e-05
1.1416e-05
-5.12555e-05
1.39029e-05
-5.36315e-05
1.41699e-05
-5.69687e-05
1.31017e-05
-5.94344e-05
1.06587e-05
-5.99607e-05
7.44953e-06
3.78745e-06
-5.86258e-05
-5.49507e-05
-1.68123e-06
-3.70903e-05
-3.75235e-05
-3.22038e-05
-4.20696e-05
4.12948e-05
3.55733e-06
-1.59545e-05
5.39907e-06
5.10873e-06
-5.09268e-05
-4.57334e-06
-3.42388e-05
-4.79213e-06
7.03487e-07
-3.9197e-05
-1.25243e-05
-4.03897e-05
-1.99024e-05
-2.78405e-07
-1.61896e-05
-3.45998e-05
-1.65388e-05
-3.19634e-05
2.72764e-06
-4.84645e-05
-5.43566e-06
-3.28693e-05
-3.92021e-05
-3.7497e-05
-2.80917e-05
0.000141962
-0.00012255
0.000153807
0.000160221
0.000163018
0.000171302
0.000180784
0.00016983
0.000200341
0.000155573
0.000216542
0.000133628
0.000228066
0.000104413
0.000236254
7.01268e-05
0.000244451
3.13865e-05
0.000253924
-8.13433e-06
0.000261155
-4.49637e-05
0.000262089
-7.48927e-05
0.000257338
-9.88466e-05
0.000255145
-0.000258986
-0.000122353
0.0002644
-0.000236384
-0.000117851
-0.000202556
-9.66734e-05
-0.000164112
-6.93606e-05
-0.000127082
-4.09882e-05
-9.61906e-05
-1.64916e-05
-7.43242e-05
8.01168e-07
-6.37248e-05
1.03002e-05
-6.54974e-05
1.18457e-05
-7.61957e-05
6.55072e-06
-8.8914e-05
-9.82971e-07
-9.84438e-05
-7.21996e-06
-0.000103206
-1.11088e-05
-0.000104263
-1.26472e-05
-0.00010228
-1.26735e-05
-9.83816e-05
-1.16593e-05
-9.42854e-05
-1.03403e-05
-9.09664e-05
-9.69349e-06
-8.82856e-05
-9.64829e-06
-8.59859e-05
-9.91329e-06
-8.27336e-05
-9.80948e-06
-7.74933e-05
-8.20775e-06
-7.03929e-05
-4.94069e-06
-6.21092e-05
-7.90437e-08
-5.45791e-05
4.97602e-06
-4.96531e-05
9.33155e-06
-4.81954e-05
1.34747e-05
-4.98653e-05
1.45221e-05
-5.41128e-05
1.41782e-05
-5.8092e-05
1.23414e-05
-6.03937e-05
1.0208e-05
-6.05836e-05
7.88582e-06
5.59096e-06
-5.87563e-05
-1.2289e-07
-5.50784e-05
3.1313e-05
-2.21968e-05
-3.363e-05
-3.51959e-05
-4.14468e-05
1.7513e-05
5.04029e-06
-2.03616e-06
-1.63493e-05
-5.36348e-05
1.86291e-05
5.10177e-05
-1.41863e-05
2.61325e-05
1.00017e-05
-2.53818e-05
3.05656e-05
7.30682e-06
3.71422e-05
5.35599e-06
4.41863e-05
3.96719e-06
5.01352e-05
3.04242e-06
5.35374e-05
2.04936e-06
5.39481e-05
1.41248e-06
5.13352e-05
-1.58475e-07
4.6393e-05
-2.47096e-06
4.08419e-05
-6.08104e-06
3.6901e-05
-1.07854e-05
3.57906e-05
-1.60108e-05
3.78889e-05
-2.08059e-05
4.24636e-05
-2.41303e-05
4.87168e-05
-2.53854e-05
5.55475e-05
-2.44584e-05
6.23277e-05
-2.19789e-05
6.84956e-05
-1.88732e-05
7.42259e-05
-1.61458e-05
7.92635e-05
-1.44358e-05
8.2906e-05
-1.41427e-05
8.42895e-05
-1.52176e-05
8.36052e-05
-1.70412e-05
7.97612e-05
-1.92896e-05
7.32157e-05
-2.08965e-05
6.39906e-05
-2.12743e-05
5.33413e-05
-2.09517e-05
4.28489e-05
-2.03198e-05
3.50187e-05
-2.11722e-05
3.13272e-05
-2.39332e-05
3.23054e-05
-2.9008e-05
3.75039e-05
-3.63509e-05
4.67295e-05
-4.58891e-05
6.11984e-05
-5.79082e-05
8.05439e-05
-7.24421e-05
0.000102696
-8.79465e-05
0.000124944
-0.000102161
0.000144094
-0.000110937
0.000156031
-0.000111067
-3.00174e-05
-4.57047e-05
4.40712e-05
-4.25096e-05
-3.66844e-05
2.01245e-05
2.34918e-06
-6.03563e-06
-1.71592e-05
-3.87296e-05
-5.80907e-06
-2.60268e-05
-4.56846e-05
-5.23974e-06
-0.000250591
0.000276574
-0.000144121
-0.000213773
-0.000133173
-0.000172692
-0.00010495
-0.000133902
-7.05043e-05
-0.000100482
-3.83711e-05
-7.61557e-05
-1.35287e-05
-6.18866e-05
1.45751e-06
-6.01752e-05
6.15869e-06
-6.92205e-05
1.3832e-06
-8.23489e-05
-7.24774e-06
-9.38215e-05
-1.57308e-05
-0.000100878
-2.16445e-05
-0.000103563
-2.42366e-05
-0.000102712
-2.43169e-05
-9.97444e-05
-2.21233e-05
-9.59089e-05
-1.8822e-05
-9.21948e-05
-1.52625e-05
-8.94039e-05
-1.22104e-05
-8.72503e-05
-9.90354e-06
-8.43904e-05
-8.09478e-06
-7.98612e-05
-6.04839e-06
-7.31864e-05
-3.08325e-06
-6.46026e-05
8.69546e-07
-5.58844e-05
5.22855e-06
-4.899e-05
9.48011e-06
-4.54163e-05
1.27213e-05
-4.53439e-05
1.46792e-05
-4.90178e-05
1.41408e-05
-5.43154e-05
1.27537e-05
-5.86404e-05
1.04597e-05
-6.03854e-05
8.55811e-06
-5.97539e-05
7.42708e-06
-5.71418e-05
7.30016e-06
2.45857e-06
-5.47631e-05
2.64708e-05
-1.99632e-05
2.69746e-05
-4.25048e-05
-3.09324e-05
0.000118824
-9.28687e-05
0.000152268
0.000151214
0.000143795
0.000177897
0.000151585
0.000189665
0.00017117
0.000184666
0.000194422
0.000166743
0.00021182
0.000139576
0.000216068
0.000111031
0.000211371
7.64287e-05
0.000218561
3.84096e-05
0.000233009
-4.26037e-06
0.000250058
-4.48805e-05
0.000253751
-7.42758e-05
0.00024223
-8.9103e-05
0.000233656
-0.000103178
0.000255003
-0.00012296
0.000287277
3.7051e-05
-1.97027e-05
-3.79997e-05
3.68453e-05
-2.54984e-05
3.47554e-05
-1.68808e-05
3.15521e-05
-9.62514e-06
-4.07212e-06
-2.74844e-05
2.79981e-05
3.06771e-05
-8.71827e-06
-4.13161e-05
1.16355e-05
-1.20269e-05
2.78461e-06
-3.83069e-06
-1.40635e-06
-2.5134e-05
2.88342e-05
2.06888e-05
7.75145e-06
-1.66881e-05
2.67165e-05
5.33177e-06
3.4318e-05
3.30292e-06
4.20248e-05
1.86131e-06
4.83177e-05
8.95154e-07
5.138e-05
1.11189e-07
5.14423e-05
-8.12124e-07
4.78786e-05
-2.32514e-06
4.16967e-05
-4.76353e-06
3.50757e-05
-8.43192e-06
3.0664e-05
-1.30274e-05
2.99105e-05
-1.78864e-05
3.33876e-05
-2.20796e-05
3.9991e-05
-2.45823e-05
4.83587e-05
-2.4879e-05
5.67179e-05
-2.30693e-05
6.39259e-05
-1.99724e-05
6.97468e-05
-1.65922e-05
7.4422e-05
-1.38222e-05
7.80356e-05
-1.22135e-05
8.02519e-05
-1.20404e-05
8.07918e-05
-1.31229e-05
7.98418e-05
-1.49126e-05
7.65757e-05
-1.70201e-05
7.10069e-05
-1.82737e-05
6.2841e-05
-1.82889e-05
5.20257e-05
-1.74483e-05
4.03528e-05
-1.65223e-05
3.0371e-05
-1.66982e-05
2.4531e-05
-1.87866e-05
2.32132e-05
-2.30182e-05
2.58634e-05
-2.95049e-05
3.28813e-05
-3.86232e-05
4.5217e-05
-5.06939e-05
6.3903e-05
-6.65918e-05
8.77797e-05
-8.50982e-05
0.000114954
-0.000103367
0.000142017
-0.000114948
0.000163425
-0.000112609
0.000173281
-8.4625e-05
-6.42211e-06
2.50506e-05
1.4446e-06
-4.34276e-06
-4.90346e-05
-2.43063e-05
1.37706e-05
-2.64379e-05
-4.89027e-05
4.61371e-05
-4.05829e-05
-4.24738e-05
-3.39435e-05
-4.77077e-05
-1.9602e-05
-4.33719e-06
2.53369e-05
-2.79624e-06
-1.26719e-05
1.10993e-06
3.43777e-05
-3.46965e-06
-4.26909e-05
1.0059e-05
-5.64472e-05
3.38308e-05
2.45983e-05
-2.45734e-05
-3.55795e-06
-7.27699e-06
7.28969e-06
7.90861e-06
-1.19312e-05
2.03416e-06
5.52615e-06
-7.00005e-06
-1.48353e-05
2.63651e-06
1.83771e-05
-0.000277864
0.000310566
-0.000141948
-0.000230613
-0.000163283
-0.000179785
-0.000145809
-0.000134381
-0.00010865
-9.78552e-05
-6.82711e-05
-7.23087e-05
-3.41931e-05
-5.66855e-05
-1.10968e-05
-5.38764e-05
-1.18556e-06
-6.19955e-05
-2.81683e-06
-7.54714e-05
-1.17492e-05
-8.84913e-05
-2.24826e-05
-9.72606e-05
-3.08496e-05
-0.000101275
-3.53419e-05
-0.000101324
-3.64705e-05
-9.84546e-05
-3.47903e-05
-9.40714e-05
-3.07298e-05
-9.00176e-05
-2.53697e-05
-8.69803e-05
-1.97001e-05
-8.49118e-05
-1.45014e-05
-8.3268e-05
-9.92494e-06
-8.01999e-05
-5.52917e-06
-7.47922e-05
-1.0738e-06
-6.70884e-05
3.58355e-06
-5.8231e-05
8.01327e-06
-4.97616e-05
1.19319e-05
-4.37773e-05
1.47729e-05
-4.14608e-05
1.60292e-05
-4.35424e-05
1.55267e-05
-4.86654e-05
1.27502e-05
-5.42705e-05
1.01612e-05
-5.8243e-05
7.69242e-06
-5.96157e-05
6.32007e-06
-5.80056e-05
6.23597e-06
-5.31692e-05
6.97838e-06
9.46399e-06
-4.49248e-05
3.43822e-05
-1.54409e-05
-2.55846e-05
2.08644e-05
-1.97463e-05
4.0087e-05
-2.58952e-05
-3.22776e-05
7.76274e-05
-4.77341e-05
0.000158371
0.000116574
0.000130329
0.000153986
0.000119591
0.000180759
0.000126988
0.000191055
0.000151052
0.000184987
0.000180673
0.000161001
0.000199907
0.000127949
0.000199338
0.000105135
0.000177904
7.71152e-05
0.000196118
4.2889e-05
0.000228487
-6.73254e-06
0.000263885
-5.36864e-05
0.000264036
-7.61832e-05
0.000227988
-6.12723e-05
0.000182175
-5.90378e-05
0.000222411
-6.71712e-05
0.000281193
-8.04229e-05
0.00032695
-2.91197e-05
2.92027e-05
-2.11124e-05
2.74304e-05
-1.27104e-05
2.50466e-05
-6.42056e-06
2.20951e-05
-1.76116e-06
4.80516e-07
1.88041e-05
-1.81105e-05
1.9339e-05
5.12476e-05
-4.24876e-05
1.13179e-05
7.59986e-06
-8.72927e-06
-1.00624e-05
1.59337e-05
5.50394e-06
2.27959e-05
3.19938e-06
3.10801e-05
1.14688e-06
3.9312e-05
-3.33422e-07
4.57192e-05
-1.32714e-06
4.87112e-05
-2.1361e-06
4.80735e-05
-3.10062e-06
4.34752e-05
-4.54441e-06
3.60828e-05
-6.92464e-06
2.85443e-05
-1.03706e-05
2.389e-05
-1.45207e-05
2.38002e-05
-1.87483e-05
2.88402e-05
-2.22005e-05
3.76223e-05
-2.38929e-05
4.79722e-05
-2.33536e-05
5.7515e-05
-2.09537e-05
6.4926e-05
-1.75777e-05
7.01324e-05
-1.41641e-05
7.36514e-05
-1.14541e-05
7.58472e-05
-9.93401e-06
7.67341e-05
-9.77738e-06
7.66144e-05
-1.06831e-05
7.54086e-05
-1.24106e-05
7.2825e-05
-1.42707e-05
6.83559e-05
-1.53671e-05
6.09127e-05
-1.53531e-05
5.00993e-05
-1.44242e-05
3.72634e-05
-1.31624e-05
2.54559e-05
-1.25663e-05
1.74297e-05
-1.34516e-05
1.37145e-05
-1.64657e-05
1.39501e-05
-2.22026e-05
1.78323e-05
-3.07633e-05
2.64439e-05
-4.31737e-05
4.23154e-05
-6.14809e-05
6.67345e-05
-8.53921e-05
9.84761e-05
-0.00011137
0.000134793
-0.000130809
0.000169538
-0.000131927
0.000193711
-9.74521e-05
0.000191968
-3.73426e-05
3.74522e-05
-1.63157e-05
-3.92408e-05
-3.95333e-06
-4.74385e-05
4.14469e-05
-2.39029e-05
-4.27093e-05
3.98072e-05
-1.43976e-05
1.89184e-05
-4.56998e-05
-1.80543e-05
2.23021e-05
-2.19231e-05
-4.92852e-05
-4.3612e-05
-4.30831e-06
-4.57334e-05
-5.16107e-05
-3.03627e-05
-3.94096e-05
-4.94986e-05
-5.88987e-06
4.47515e-06
-6.31245e-06
2.61461e-06
8.43282e-06
-1.46181e-06
-9.14504e-06
1.98851e-05
-1.37198e-05
2.4682e-05
3.54395e-05
-2.20421e-05
4.10874e-05
-3.19526e-06
-1.10321e-05
3.41966e-05
1.33151e-05
2.03761e-05
-1.54344e-05
-1.11119e-05
-1.07514e-05
2.49164e-05
4.89161e-05
7.84651e-06
5.40799e-05
6.17958e-06
5.6818e-05
4.43618e-06
5.63704e-05
3.66975e-06
5.33826e-05
4.41353e-06
4.82715e-05
6.96473e-06
4.23327e-05
1.08953e-05
3.8888e-05
1.52837e-05
3.93304e-05
1.8747e-05
4.37319e-05
2.00147e-05
5.10798e-05
1.87861e-05
5.94394e-05
1.52958e-05
6.68959e-05
1.0161e-05
7.2432e-05
3.94813e-06
7.56796e-05
-2.86784e-06
7.69641e-05
-9.83167e-06
7.84648e-05
-1.66462e-05
8.09865e-05
-2.34573e-05
8.53075e-05
-3.03599e-05
9.09205e-05
-3.68521e-05
9.60765e-05
-4.21978e-05
9.89539e-05
-4.55701e-05
9.82329e-05
-4.59817e-05
9.28095e-05
-4.30836e-05
8.19065e-05
-3.64064e-05
6.66277e-05
-2.61973e-05
5.11136e-05
-1.48914e-05
4.17467e-05
-8.03766e-06
4.36372e-05
-1.1675e-05
5.87186e-05
-3.02217e-05
8.7055e-05
-6.58356e-05
0.000131789
-0.000112366
0.000191871
-0.000157438
0.000257372
-0.000181532
0.0003129
-0.000160164
0.000351315
-9.47719e-05
-6.8857e-06
3.0217e-05
1.88003e-06
-4.51174e-05
9.43908e-05
0.000152598
2.38379e-05
0.000106142
9.90617e-05
7.09306e-05
0.000164422
6.2681e-05
0.000205322
8.14592e-05
0.000215529
0.000126108
0.000197671
0.000169521
0.000154246
0.000200892
0.000109225
0.000199333
0.000112363
0.000136817
9.95901e-05
0.000188665
6.44325e-05
0.00026272
-1.78664e-06
0.000329745
-6.07374e-05
0.000316482
-7.9263e-05
0.000234127
-3.20668e-05
0.000115256
-1.49281e-05
0.000183317
3.08383e-07
0.000249882
1.65631e-05
0.000307085
3.31879e-05
0.00034537
3.58882e-05
-1.19325e-05
-6.77899e-06
-4.41504e-05
-1.0826e-05
3.69692e-05
1.55552e-05
7.23054e-06
2.13421e-05
-1.38137e-05
-1.63974e-05
4.6646e-07
-1.41911e-05
-5.68176e-06
-1.20809e-05
-1.10874e-05
-1.08173e-05
1.4248e-05
-1.59894e-05
-9.9074e-06
1.87092e-05
-1.55524e-05
2.32357e-05
-1.47745e-05
1.02502e-05
-1.19425e-05
2.57469e-05
2.15467e-05
-1.22093e-06
-3.54446e-06
3.20332e-05
-2.74544e-05
-1.10823e-06
-6.77794e-06
-1.55001e-06
1.28164e-05
-1.29842e-05
-3.73542e-05
3.48114e-05
1.4292e-05
-1.63739e-05
-3.96775e-05
-9.40311e-06
3.66018e-05
-4.31069e-05
-1.32079e-05
-1.69897e-05
-4.71461e-05
-2.90296e-06
-3.84076e-05
3.58665e-05
-1.19084e-05
-3.85401e-05
7.82522e-06
-9.77488e-06
1.83543e-05
-1.32264e-05
1.70766e-05
-7.65038e-06
1.56676e-05
-3.03471e-06
1.40494e-05
3.05835e-07
2.27253e-06
1.13506e-05
-9.58814e-07
8.13086e-06
9.39371e-06
-6.01571e-06
6.05146e-06
2.78541e-06
-3.80278e-06
1.91912e-06
5.36357e-06
-8.9762e-06
4.95349e-07
5.22474e-06
4.87898e-06
1.05479e-05
3.12246e-06
1.80847e-05
1.05734e-06
2.69574e-05
-9.0354e-07
3.55712e-05
-2.40439e-06
4.20563e-05
-3.45119e-06
4.48371e-05
-4.28735e-06
4.35567e-05
-5.18078e-06
3.79764e-05
-6.51592e-06
2.94767e-05
-8.62016e-06
2.1222e-05
-1.16015e-05
1.65095e-05
-1.50545e-05
1.71837e-05
-1.84991e-05
2.38724e-05
-2.12016e-05
3.48005e-05
-2.21656e-05
4.69339e-05
-2.10044e-05
5.73567e-05
-1.83114e-05
6.47421e-05
-1.49495e-05
6.92608e-05
-1.17054e-05
7.16334e-05
-9.12227e-06
7.24795e-05
-7.67089e-06
7.22032e-05
-7.43238e-06
7.13779e-05
-8.13097e-06
6.9956e-05
-9.6457e-06
6.80135e-05
-1.12553e-05
6.45537e-05
-1.24131e-05
5.79064e-05
-1.26459e-05
4.73109e-05
-1.18554e-05
3.37484e-05
-1.02974e-05
2.03729e-05
-8.79443e-06
1.02405e-05
-8.207e-06
3.97283e-06
-9.6671e-06
1.2406e-06
-1.42741e-05
9.08995e-07
-2.21993e-05
4.04918e-06
-3.59422e-05
1.4298e-05
-5.71538e-05
3.49744e-05
-8.71711e-05
6.76185e-05
-0.000124045
0.00011176
-0.000157538
0.000158367
-0.000166925
0.000196289
-0.000130294
0.000207501
-4.85233e-05
0.000183238
0.000118321
1.55933e-05
2.83515e-06
-1.87647e-05
1.2268e-05
-1.31404e-06
1.04952e-05
-5.05437e-06
9.70429e-06
8.08977e-06
7.39823e-06
-1.05789e-05
-7.0565e-06
-3.12758e-06
1.4659e-05
-3.58113e-06
-4.07785e-05
-2.28638e-05
9.3041e-06
2.45634e-05
-1.28015e-05
-3.14451e-06
1.56573e-05
2.21135e-06
2.99328e-05
-6.85083e-06
-2.54126e-05
-5.50878e-05
-3.46489e-05
-4.19643e-05
-2.58881e-05
-5.29617e-05
4.04071e-06
-2.59516e-05
2.27782e-05
3.41222e-05
-7.8914e-06
-3.79601e-05
3.08784e-05
2.87517e-05
-2.96445e-05
-7.23925e-06
5.76696e-06
-5.18853e-06
-2.07448e-05
-1.88876e-05
2.89752e-05
6.09023e-05
-3.24823e-05
-6.50385e-05
2.00121e-05
1.9421e-05
-2.24177e-05
1.78112e-05
-1.56495e-05
-1.89792e-05
-1.16253e-05
-1.9239e-05
-8.04627e-06
-1.988e-05
4.2368e-05
6.5422e-06
4.82281e-05
4.56064e-06
5.19587e-05
2.45937e-06
5.29293e-05
1.06186e-06
5.11103e-05
1.36062e-06
4.72955e-05
3.74257e-06
4.19636e-05
8.4121e-06
3.73495e-05
1.41986e-05
3.55068e-05
2.00682e-05
3.757e-05
2.37566e-05
4.26817e-05
2.43065e-05
4.95084e-05
2.13284e-05
5.60209e-05
1.55545e-05
6.10479e-05
7.79611e-06
6.41657e-05
-9.29938e-07
6.56001e-05
-9.80067e-06
6.70794e-05
-1.81658e-05
6.95295e-05
-2.58943e-05
7.42008e-05
-3.29853e-05
8.08775e-05
-3.94527e-05
8.79323e-05
-4.512e-05
9.36031e-05
-4.95291e-05
9.61713e-05
-5.13541e-05
9.42074e-05
-5.01302e-05
8.64395e-05
-4.55179e-05
7.2054e-05
-3.74341e-05
5.24228e-05
-2.69709e-05
3.24864e-05
-1.76638e-05
1.88742e-05
-1.60952e-05
1.68204e-05
-2.93934e-05
3.16186e-05
-6.24753e-05
6.64191e-05
-0.000114158
0.000123167
-0.000171399
0.000195617
-0.000203583
0.000272267
-0.000187535
0.00033024
-0.000114359
0.000328584
5.77332e-05
-2.20578e-06
4.41818e-06
1.65741e-07
-2.77786e-06
2.49283e-06
-2.57023e-06
1.34741e-07
-2.27408e-06
-2.90794e-06
-2.61793e-06
-6.60192e-06
-3.98509e-06
-1.09853e-05
6.9243e-05
-2.65726e-05
-8.37445e-05
-6.9899e-06
3.4145e-05
-3.85411e-05
4.47478e-05
-5.69695e-06
3.37501e-05
3.96098e-07
2.01425e-05
1.22534e-05
2.83872e-05
-1.40024e-05
-8.12092e-06
3.50724e-05
6.08921e-06
-2.34123e-05
-1.26509e-06
-1.16049e-05
-4.25751e-05
5.26687e-05
-1.68523e-05
1.16835e-05
-4.38263e-05
-6.2712e-06
7.28853e-05
-1.84864e-05
-3.71413e-05
3.49882e-05
-8.97511e-06
1.14099e-05
-1.31236e-05
-1.14653e-05
1.11317e-05
-2.33991e-05
-1.15749e-06
2.65275e-05
-1.62594e-05
-5.69207e-06
-0.000117747
0.000170112