/*--------------------------------*- C++ -*----------------------------------*\
| =========                 |                                                 |
| \\      /  F ield         | OpenFOAM: The Open Source CFD Toolbox           |
|  \\    /   O peration     | Version:  2212                                  |
|   \\  /    A nd           | Website:  www.openfoam.com                      |
|    \\/     M anipulation  |                                                 |
\*---------------------------------------------------------------------------*/
FoamFile
{
    version     2.0;
    format      ascii;
    arch        "LSB;label=32;scalar=64";
    class       volScalarField;
    location    "0.054";
    object      p;
}
// * * * * * * * * * * * * * * * * * * * * * * * * * * * * * * * * * * * * * //

dimensions      [1 -1 -2 0 0 0 0];

internalField   nonuniform List<scalar> 
31661
(
504.063
39.0116
41.0229
39.9067
39.1305
40.9211
39.8918
39.2919
40.8928
39.9419
475.182
54.3038
684.19
320.573
459.884
446.832
473.334
469.367
56.9308
436.593
79.0815
79.902
244.404
410.378
42.6057
79.1081
240.631
209.662
54.8416
58.4031
402.843
95.7611
95.7756
63.5074
81.8389
386.369
65.4083
383.844
226.639
93.5339
96.5627
38.0895
361.45
98.8394
102.165
59.3316
100.359
81.0413
65.0351
258.676
94.3103
245.128
62.3173
77.6475
191.445
54.0435
63.7359
68.8691
62.4876
57.6248
57.5683
56.5345
92.4269
34.4926
73.057
389.713
615.586
56.9046
52.9077
48.8328
51.7443
44.8126
41.3528
39.3033
37.1514
35.5916
34.1313
33.0317
32.0597
31.3249
30.7073
30.2518
29.8914
29.6411
29.7372
30.0045
30.3795
30.8594
31.4913
32.2555
33.2288
34.3596
35.7814
37.3851
39.3776
41.5645
44.139
46.9662
49.699
53.0887
56.8397
60.7641
64.5984
68.2782
68.3594
72.9587
72.4732
77.4069
76.6013
81.5318
80.5229
85.253
84.1407
88.5247
87.3958
91.3329
90.2545
93.6968
92.7151
95.6568
94.7978
97.2635
96.5355
98.5711
97.9693
99.6328
99.1452
100.495
100.105
101.198
100.889
101.773
101.529
102.247
102.055
102.641
102.489
102.971
102.85
103.252
103.153
103.492
103.411
103.7
103.633
103.884
103.827
104.05
104.001
104.202
104.16
104.347
104.311
104.488
104.457
104.631
104.603
104.779
104.756
104.938
104.918
105.114
105.097
105.311
105.298
105.535
105.526
105.795
105.788
106.094
106.097
106.147
105.839
105.574
105.345
105.143
104.964
104.801
104.649
104.504
104.359
104.212
104.056
103.886
103.698
103.484
103.237
102.949
102.608
102.2
101.708
101.11
100.378
99.4789
98.3723
97.0108
95.3433
93.3168
90.8839
88.0097
84.6774
80.8989
76.7097
72.1485
67.2292
62.3998
57.3404
52.7897
48.5398
45.1046
42.1423
39.6979
37.5802
35.8705
34.3938
33.2203
32.2306
29.5473
29.4636
31.4581
30.8281
30.3523
29.9806
29.7155
29.3796
29.4492
29.6582
29.7985
30.027
30.3423
30.7644
31.305
31.9919
32.8318
33.8582
35.0759
36.5203
38.2054
40.1521
42.3618
44.8661
47.5924
50.4421
53.5314
56.85
60.2527
63.6895
67.2742
70.928
74.5814
78.1524
81.5763
84.7897
87.7486
90.4099
92.756
94.7828
96.5051
97.9477
99.1419
100.124
100.927
101.582
102.118
102.557
102.921
103.226
103.484
103.707
103.904
104.082
104.247
104.407
104.566
104.73
104.904
105.094
105.305
105.545
105.82
106.138
106.509
106.451
106.451
106.507
106.623
106.245
105.921
105.642
105.4
105.187
104.996
104.822
104.66
104.503
104.347
104.187
104.017
103.83
103.622
103.382
103.103
102.773
102.378
101.9
101.318
100.605
99.7317
98.6609
97.3528
95.7658
93.8613
91.6052
88.9763
85.9701
82.6029
78.908
74.9341
70.7445
66.4218
62.0508
57.5601
53.4248
49.5814
46.2028
43.2513
40.7364
38.539
36.6987
35.1363
33.847
32.7827
31.9256
31.238
29.5282
30.699
30.2801
29.9687
29.5812
29.3989
29.4336
29.3353
29.5569
29.841
29.8856
30.0176
30.2265
30.5213
30.9135
31.4209
32.0562
32.843
33.7923
34.9285
36.2615
37.8107
39.5729
41.5661
43.7672
46.1988
48.7428
51.3535
54.0742
56.8802
59.7295
62.5784
65.5528
68.6139
71.7242
74.8639
77.9969
81.0949
84.0973
86.9459
89.5845
91.973
94.0865
95.9153
97.4703
98.7726
99.8476
100.727
101.445
102.029
102.506
102.898
103.226
103.503
103.742
103.955
104.15
104.334
104.515
104.7
104.893
105.102
105.333
105.593
105.889
106.23
106.625
107.085
106.942
106.869
106.866
106.931
107.066
107.273
106.799
106.392
106.043
105.741
105.477
105.244
105.034
104.842
104.66
104.483
104.306
104.122
103.923
103.704
103.453
103.162
102.816
102.399
101.894
101.275
100.516
99.5861
98.4501
97.0736
95.4243
93.4765
91.2182
88.6492
85.7927
82.6854
79.3779
75.92
72.3652
68.7581
65.1278
61.448
57.7462
54.2067
50.8257
47.6863
44.8333
42.302
40.0384
38.0771
36.3754
34.9485
33.7591
32.7843
31.9863
31.3466
29.7479
30.8408
30.4527
29.3855
29.8164
29.5516
29.6168
29.386
29.3248
29.8157
30.1524
30.1711
30.2332
30.3521
30.5608
30.8547
31.2454
31.7473
32.3755
33.1467
34.0776
35.181
36.4671
37.9455
39.6126
41.4575
43.4725
45.6126
47.8736
50.139
52.396
54.6551
56.9108
59.1528
61.3901
63.7112
66.1311
68.653
71.2859
74.0277
76.8611
79.7495
82.6402
85.4634
88.1528
90.6525
92.9167
94.9171
96.6456
98.1086
99.3268
100.329
101.148
101.814
102.357
102.803
103.173
103.486
103.758
104.002
104.227
104.444
104.66
104.883
105.121
105.38
105.67
105.997
106.371
106.802
107.302
107.882
107.623
107.45
107.361
107.354
107.429
107.587
107.829
108.161
107.556
107.037
106.592
106.207
105.872
105.577
105.315
105.077
104.856
104.645
104.437
104.225
104
103.754
103.476
103.153
102.769
102.305
101.74
101.047
100.196
99.155
97.8913
96.3749
94.5829
92.5055
90.1471
87.5324
84.705
81.7272
78.6598
75.5702
72.4997
69.4831
66.533
63.6307
60.7331
57.8297
54.9879
52.1567
49.4084
46.7726
44.3166
42.0365
39.9695
38.1259
36.5416
35.1858
34.0404
33.0827
32.2981
31.669
30.164
31.1662
29.4071
29.6188
29.963
30.1526
29.9008
29.5505
29.3732
29.3602
30.2444
30.5519
30.5542
30.5837
30.6365
30.7801
31.0026
31.3117
31.7203
32.2402
32.8871
33.675
34.6178
35.7265
37.0076
38.4635
40.0854
41.8514
43.7321
45.6929
47.6903
49.6837
51.5946
53.4373
55.2125
56.94
58.6239
60.3023
62.0452
63.8839
65.8438
67.9498
70.2192
72.6573
75.2521
77.9741
80.7679
83.5777
86.3319
88.9555
91.3856
93.5827
95.515
97.1762
98.5785
99.7433
100.701
101.483
102.121
102.646
103.082
103.451
103.774
104.064
104.335
104.6
104.867
105.146
105.445
105.775
106.145
106.563
107.042
107.594
108.232
108.973
108.56
108.252
108.047
107.94
107.93
108.016
108.199
108.482
108.869
108.586
107.918
107.342
106.845
106.413
106.035
105.699
105.397
105.119
104.858
104.604
104.349
104.083
103.794
103.47
103.094
102.649
102.112
101.457
100.654
99.6721
98.4783
97.0423
95.3412
93.3658
91.1177
88.6253
85.9314
83.0957
80.1906
77.2949
74.4629
71.7465
69.1689
66.7346
64.425
62.2046
60.0251
57.8467
55.6771
53.4378
51.1695
48.8833
46.6229
44.4173
42.3165
40.3737
38.6316
37.084
35.7322
34.5767
33.6164
32.8176
30.7819
32.1627
109.364
31.6403
29.4994
30.4932
29.7123
29.8388
30.002
29.5287
30.6319
30.3442
29.3997
29.4577
30.7331
31.0628
31.0021
31.0099
31.0402
31.1269
31.287
31.5335
31.8711
32.3111
32.8674
33.5523
34.3801
35.3597
36.5017
37.8076
39.2713
40.8785
42.5983
44.3937
46.2233
48.0325
49.7914
51.4493
52.9788
54.4003
55.7285
57.0011
58.2053
59.4306
60.7046
62.064
63.5374
65.1549
66.9422
68.9192
71.0953
73.4666
76.0117
78.6942
81.4599
84.2388
86.9591
89.5459
91.9392
94.0928
95.9813
97.6023
98.9674
100.102
101.036
101.803
102.435
102.963
103.412
103.806
104.162
104.499
104.83
105.167
105.522
105.907
106.331
106.808
107.348
107.966
108.677
109.498
110.447
109.835
109.351
108.99
108.749
108.622
108.609
108.709
108.921
109.249
109.698
110.272
109.973
109.109
108.364
107.718
107.156
106.664
106.229
105.84
105.484
105.153
104.834
104.518
104.191
103.84
103.448
102.998
102.466
101.825
101.047
100.1
98.9496
97.5653
95.923
94.0097
91.8278
89.4054
86.7815
84.0178
81.1913
78.3693
75.6238
73.0157
70.5776
68.3314
66.2712
64.3819
62.6353
60.9899
59.4023
57.8295
56.2352
54.5597
52.7967
50.9373
48.9917
46.9881
44.9762
43.0178
41.1675
39.4436
37.886
36.5263
35.3512
34.3353
33.4966
32.8013
110.976
32.2401
31.2359
29.6048
30.2901
29.8478
29.8014
30.1468
29.5259
30.4939
29.4916
31.1598
30.8781
29.5715
111.547
110.838
110.277
109.857
109.575
109.427
109.411
109.525
109.772
110.151
110.669
111.331
112.139
111.816
110.703
109.737
108.898
108.167
107.525
106.959
106.452
105.992
105.566
105.158
104.758
104.348
103.911
103.428
102.875
102.225
101.448
100.512
99.3816
98.0255
96.4172
94.5426
92.4021
90.0182
87.4326
84.7075
81.9143
79.1264
76.4182
73.8502
71.4602
69.2756
67.302
65.5324
63.9516
62.5317
61.2421
60.0478
58.9102
57.821
56.6835
55.4824
54.1887
52.7714
51.216
49.5291
47.7332
45.8831
44.0241
42.2027
40.5006
38.9416
37.5259
36.2893
35.2181
34.3061
33.5482
31.7937
32.9321
113.099
31.2966
31.625
31.5299
31.5008
31.5143
31.567
31.6688
31.8652
32.1459
32.5224
33.0066
33.6114
34.3494
35.2322
36.2677
37.461
38.8094
40.3007
41.9119
43.6079
45.3438
47.068
48.7345
50.2998
51.7461
53.0447
54.2068
55.2491
56.2139
57.104
57.9908
58.8354
59.7409
60.7217
61.7984
62.9991
64.3499
65.8747
67.594
69.5226
71.6659
74.0152
76.5473
79.2216
81.9781
84.7498
87.4574
90.0285
92.4014
94.5309
96.3965
97.9959
99.3449
100.469
101.401
102.175
102.825
103.382
103.873
104.321
104.746
105.167
105.599
106.057
106.554
107.104
107.721
108.422
109.222
110.139
111.194
112.407
30.928
29.7578
32.4429
31.4596
30.181
30.008
29.7802
30.3154
29.6023
30.6637
29.6002
31.0476
29.7263
31.7446
31.461
114.214
112.797
111.558
110.473
109.524
108.69
107.951
107.291
106.693
106.14
105.614
105.102
104.58
104.029
103.423
102.735
101.932
100.981
99.8468
98.495
96.8979
95.0384
92.9158
90.5489
87.9789
85.266
82.4841
79.7068
77.0126
74.4561
72.0806
69.9183
67.9789
66.2532
64.7354
63.4015
62.2276
61.1904
60.26
59.4182
58.6451
57.8545
57.0809
56.2416
55.3366
54.313
53.1535
51.8355
50.3565
48.7403
47.0095
45.2335
43.4766
41.762
40.1661
38.685
37.3783
36.2228
35.2341
34.4029
33.7265
32.1215
32.0401
32.0429
32.0742
32.1287
32.2811
32.5131
32.8382
33.263
33.8016
34.4666
35.2695
36.2199
37.3236
38.5801
39.9813
41.5085
43.1316
44.809
46.4915
48.1268
49.6694
51.0831
52.3485
53.463
54.4269
55.2672
56.0052
56.6785
57.2932
57.9199
58.5292
59.1479
59.8208
60.5837
61.4498
62.4366
63.5658
64.8611
66.345
68.0357
69.9458
72.0798
74.4269
76.9635
79.6439
82.4095
85.187
87.8988
90.4699
92.8381
94.963
96.8243
98.4236
99.7773
100.915
101.87
102.679
103.378
103.997
104.566
105.11
105.65
106.209
106.801
107.446
108.16
108.962
109.869
110.9
112.078
113.422
114.957
113.804
112.821
112.008
111.361
110.876
110.549
110.377
110.357
110.489
110.774
111.212
111.807
112.565
113.487
114.575
32.2252
115.829
32.061
33.1688
31.9042
30.7114
29.928
117.665
116.266
115.044
114
113.139
112.458
111.955
111.629
111.477
111.501
111.7
112.076
112.633
113.372
114.297
115.409
116.705
31.2125
30.125
30.199
32.3744
32.7422
32.6468
32.6075
32.6234
32.6494
32.7711
32.9577
33.2346
33.61
34.091
34.6941
35.4294
36.3072
37.3348
38.5143
39.8406
41.299
42.8639
44.4981
46.1553
47.7836
49.3327
50.7608
52.0402
53.1567
54.1152
54.9266
55.6096
56.1923
56.6998
57.1489
57.5734
57.9694
58.4198
58.8633
59.3275
59.8316
60.4254
61.121
61.9257
62.8627
63.9532
65.2196
66.6832
68.3624
70.2701
72.4086
74.7685
77.3208
80.0223
82.8103
85.6098
88.341
90.9288
93.3129
95.4532
97.3335
98.9562
100.342
101.523
102.534
103.415
104.203
104.931
105.631
106.329
107.053
107.821
108.657
109.582
110.617
111.783
113.101
114.592
116.277
118.177
32.7493
31.7809
29.7903
30.5146
29.6959
30.8672
29.753
31.2484
29.9026
31.6572
32.0899
32.8702
32.5478
34.0428
33.5378
119.233
117.249
115.483
113.919
112.538
111.319
110.241
109.283
108.426
107.648
106.93
106.249
105.588
104.919
104.216
103.45
102.587
101.59
100.423
99.0486
97.4373
95.5694
93.441
91.0692
88.4929
85.7714
82.978
80.1925
77.4871
74.9281
72.553
70.3975
68.4632
66.7586
65.2674
63.9711
62.8486
61.8768
61.0324
60.2997
59.6659
59.0952
58.5519
57.9809
57.4613
56.8962
56.2811
55.5775
54.759
53.7977
52.6709
51.3717
49.8999
48.2997
46.6121
44.862
43.1511
41.502
39.9855
38.5767
37.335
36.2694
35.3616
34.6049
33.9982
119.739
32.4134
33.4913
96.143
121.449
30.5721
30.1323
118.198
116.838
115.67
114.696
113.923
113.35
112.977
112.804
112.831
113.06
113.49
114.123
114.962
116.005
117.25
118.688
120.308
31.0566
30.107
30.412
33.9509
33.2932
33.2122
33.2166
33.2429
33.3171
33.4594
33.6989
34.0299
34.464
35.0142
35.6903
36.5046
37.4654
38.5767
39.8364
41.2338
42.7475
44.3449
45.9829
47.6111
49.1784
50.6378
51.9548
53.1087
54.0957
54.9217
55.607
56.1695
56.6344
57.0231
57.3586
57.6597
57.9345
58.2043
58.4663
58.7743
59.1152
59.4641
59.8559
60.2966
60.84
61.4929
62.2614
63.1695
64.2385
65.4908
66.9484
68.6298
70.5473
72.7037
75.0876
77.6718
80.4087
83.2353
86.0742
88.844
91.4703
93.8937
96.0765
98.0037
99.6829
101.138
102.403
103.517
104.521
105.457
106.358
107.263
108.199
109.193
110.271
111.459
112.78
114.257
115.909
117.755
119.811
122.089
31.5841
29.8763
30.7354
33.1216
32.1829
29.8367
31.0901
29.9249
31.4728
30.1096
31.8785
32.3071
32.7559
33.6982
122.068
123.908
34.921
35.045
123.31
120.957
118.824
116.902
115.18
113.643
112.27
111.042
109.935
108.93
108
107.118
106.263
105.402
104.503
103.529
102.443
101.204
99.7725
98.1159
96.211
94.0508
91.6493
89.0437
86.2919
83.4678
80.6508
77.9176
75.3313
72.9418
70.7744
68.8406
67.1371
65.6602
64.3832
63.2896
62.3525
61.5561
60.8729
60.2978
59.817
59.3822
58.9723
58.5557
58.2226
57.8627
57.5006
57.092
56.6241
56.0733
55.4119
54.6087
53.6426
52.4955
51.1689
49.684
48.0467
46.3586
44.66
42.9729
41.3651
39.9117
38.5908
37.43
36.4261
35.5978
34.8849
34.3355
34.7238
34.1601
32.8382
33.8881
90.643
30.5249
30.3532
120.392
118.898
117.6
116.511
115.643
114.996
114.574
114.378
114.41
114.669
115.156
115.87
116.812
117.975
119.352
120.929
122.686
124.595
30.9748
30.1193
30.6489
40.1216
33.865
33.8468
33.8673
33.8972
34.028
34.2278
34.5196
34.9114
35.4126
36.0398
36.7972
37.6981
38.7479
39.9467
41.2873
42.7526
44.3143
45.9332
47.5617
49.148
50.643
52.0068
53.2122
54.248
55.116
55.8298
56.4079
56.8732
57.2471
57.5498
57.7999
58.0117
58.1991
58.3738
58.5434
58.7119
58.8856
59.0742
59.3352
59.5939
59.8854
60.2282
60.6346
61.1448
61.7692
62.5166
63.4098
64.4704
65.7214
67.1856
68.8812
70.8217
73.0096
75.4341
78.066
80.8575
83.7424
86.6424
89.4767
92.1699
94.6645
96.9256
98.9417
100.724
102.299
103.706
104.987
106.188
107.347
108.517
109.724
110.999
112.374
113.876
115.531
117.357
119.372
121.584
124
126.619
31.4861
29.9828
30.9795
32.0307
29.9973
31.3393
33.5604
32.6526
30.1296
31.7219
30.3344
32.1258
32.5483
32.9886
124.668
126.613
33.4425
33.8998
73.3685
34.3461
125.885
127.965
125.294
122.817
120.538
118.457
116.568
114.858
113.311
111.905
110.618
109.421
108.283
107.178
106.073
104.921
103.684
102.318
100.781
99.0352
97.0546
94.828
92.3662
89.7032
86.8959
84.0174
81.1484
78.3666
75.7378
73.3102
71.1143
69.1623
67.4516
65.9706
64.7009
63.6175
62.7006
61.9315
61.2826
60.7469
60.3165
59.9394
59.6097
59.2927
59.0093
58.7816
58.5523
58.3247
58.0871
57.826
57.5275
57.1735
56.7369
56.1984
55.5245
54.6946
53.6842
52.4884
51.1005
49.5713
47.9416
46.2295
44.5212
42.9039
41.348
39.9442
38.6713
37.6047
36.6652
35.8854
35.2404
34.7421
370.543
33.324
34.3522
84.9771
60.1823
30.5
30.6001
122.872
121.251
119.831
118.632
117.665
116.94
116.467
116.248
116.284
116.575
117.121
117.918
118.962
120.242
121.744
123.446
125.32
127.33
129.434
30.943
30.2087
30.9053
61.1057
40.5713
34.4964
34.5152
34.5523
34.641
34.8008
35.0628
35.4178
35.8809
36.4582
37.1732
38.0193
39.0137
40.1569
41.4445
42.8631
44.3887
45.9863
47.6112
49.213
50.7414
52.1523
53.4132
54.5065
55.4287
56.1884
56.8019
57.2904
57.6749
57.9762
58.2123
58.3983
58.5469
58.6686
58.771
58.8634
58.9529
59.0438
59.1382
59.2437
59.3595
59.5174
59.7281
59.941
60.1967
60.5082
60.8906
61.3839
61.9938
62.7328
63.6227
64.6874
65.9502
67.4342
69.1594
71.1391
73.3759
75.859
78.5591
81.4278
84.3981
87.391
90.3252
93.1266
95.739
98.1303
100.293
102.243
104.011
105.639
107.175
108.658
110.157
111.7
113.314
115.035
116.893
118.909
121.096
123.46
126.002
128.713
131.583
31.4338
30.1296
31.2439
31.9828
30.1918
31.6074
32.5562
30.3516
31.9925
34.0658
33.1901
30.5839
32.3956
32.8158
127.548
129.569
33.2496
33.6923
34.1376
34.5922
128.679
130.823
130.109
127.363
124.776
122.359
120.119
118.054
116.156
114.407
112.788
111.268
109.81
108.393
106.979
105.508
103.941
102.23
100.334
98.2231
95.8813
93.3155
90.5569
87.6601
84.6974
81.7497
78.8958
76.2027
73.72
71.4778
69.4886
67.7506
66.2513
64.972
63.8897
62.9809
62.2226
61.5926
61.0805
60.6798
60.3431
60.0603
59.8136
59.5671
59.3951
59.2449
59.103
58.963
58.8285
58.6842
58.5276
58.3478
58.1289
57.8563
57.5082
57.0655
56.5004
55.7856
54.9022
53.8271
52.5676
51.1425
49.5598
47.8876
46.2082
44.5123
42.9169
41.3954
40.0805
38.8695
37.8413
36.9779
36.2534
35.674
35.2201
35.3104
33.8687
34.8757
35.0686
133.005
30.4995
30.8628
125.66
123.935
122.405
121.101
120.038
119.24
118.717
118.473
118.512
118.835
119.438
120.316
121.456
122.841
124.452
126.257
128.218
130.293
132.437
134.601
30.9378
30.3177
31.1813
35.475
35.4277
35.2164
35.2031
35.2699
35.4022
35.6467
35.9777
36.407
36.9516
37.615
38.4256
39.3666
40.4591
41.6975
43.0712
44.5603
46.1334
47.75
49.3613
50.9171
52.3705
53.6851
54.8374
55.8185
56.6323
57.2921
57.8171
58.2276
58.5452
58.7868
58.97
59.1066
59.2073
59.2815
59.3341
59.3729
59.403
59.4276
59.4521
59.4781
59.5109
59.5597
59.6309
59.714
59.8487
60.0183
60.2075
60.4439
60.7405
61.1083
61.5953
62.2001
62.9444
63.8454
64.9293
66.2199
67.7405
69.5118
71.5487
73.8555
76.4217
79.2188
82.1983
85.2933
88.4244
91.5101
94.4775
97.2727
99.8666
102.256
104.459
106.513
108.461
110.343
112.235
114.182
116.182
118.284
120.511
122.879
125.391
128.044
130.827
133.728
136.739
31.4233
30.302
31.5275
31.9564
30.4056
31.8966
35.6817
32.517
30.5988
32.2839
33.1217
30.8492
32.6878
130.719
132.774
34.625
33.7744
33.1055
33.535
33.9731
34.4185
34.8619
131.686
133.857
136.041
135.178
132.266
129.465
126.787
124.244
121.846
119.594
117.482
115.491
113.598
111.753
109.961
108.166
106.301
104.328
102.201
99.884
97.3591
94.6283
91.7194
88.6845
85.5952
82.532
79.5741
76.789
74.2267
71.9177
69.8734
68.0912
66.5574
65.2521
64.1527
63.2356
62.4745
61.8529
61.3503
60.9652
60.6503
60.3962
60.1879
59.9833
59.8323
59.727
59.6352
59.5614
59.4922
59.4301
59.3672
59.2993
59.2202
59.1256
59.0028
58.8415
58.6321
58.3537
57.9887
57.5147
56.9017
56.1278
55.1743
54.0359
52.7045
51.2156
49.6144
47.9122
46.2242
44.5363
43.0102
41.5436
40.2623
39.1493
38.165
37.3721
36.7099
36.1823
35.7666
34.4628
35.3105
35.4549
35.5363
138.197
30.589
31.1461
128.775
126.977
125.365
123.974
122.832
121.966
121.394
121.126
121.168
121.519
122.174
123.12
124.341
125.812
127.504
129.376
131.384
133.483
135.624
137.764
139.861
31.0102
30.4696
31.4745
36.0732
36.0568
36.0355
36.0968
36.2841
36.5864
36.9938
37.5083
38.1432
38.9024
39.812
40.8532
42.0449
43.3752
44.8271
46.3731
47.9762
49.5897
51.1655
52.6544
54.0171
55.2251
56.2648
57.1353
57.8465
58.4151
58.8609
59.2045
59.464
59.6576
59.7959
59.8948
59.9563
59.9937
60.0099
60.0079
59.9998
59.982
59.9551
59.9265
59.8999
59.8778
59.8693
59.8731
59.8869
59.9208
59.9877
60.1102
60.262
60.4349
60.6659
60.9604
61.3278
61.8162
62.4311
63.1956
64.1248
65.2425
66.5767
68.1525
69.9918
72.1115
74.5181
77.2028
80.1384
83.2771
86.5523
89.8847
93.1931
96.4055
99.4701
102.36
105.074
107.633
110.075
112.429
114.761
117.171
119.591
122.076
124.648
127.312
130.066
132.905
135.819
138.808
141.885
31.4647
30.5034
31.8289
36.1733
35.847
31.9574
30.645
32.2033
32.5071
30.8621
32.5945
134.192
136.236
33.1011
31.1345
33.7272
32.9999
33.4178
35.2361
34.4026
33.8463
34.2819
34.7227
35.1713
134.903
137.064
139.219
141.332
140.287
137.296
134.384
131.547
128.793
126.131
123.569
121.105
118.732
116.426
114.133
111.915
109.664
107.327
104.869
102.252
99.4558
96.4784
93.3449
90.1054
86.8296
83.5986
80.4913
77.5751
74.9001
72.495
70.3708
68.5232
66.9366
65.5896
64.458
63.5155
62.7374
62.1082
61.6052
61.2232
60.9141
60.6704
60.4784
60.3053
60.1739
60.0922
60.0284
59.9905
59.9701
59.9578
59.9524
59.951
59.9423
59.9371
59.9142
59.8815
59.8274
59.7473
59.631
59.4697
59.2498
58.9471
58.5477
58.0248
57.3579
56.52
55.4932
54.2805
52.8963
51.3368
49.702
47.9774
46.3281
44.682
43.161
41.773
40.5572
39.4955
38.6151
37.8539
37.2426
36.7432
36.3556
35.0958
35.8274
36.0644
35.6425
143.377
30.6955
31.4441
132.238
130.412
128.758
127.314
126.114
125.195
124.585
124.298
124.342
124.715
125.406
126.4
127.675
129.198
130.928
132.819
134.826
136.901
138.998
141.08
143.114
145.079
31.1114
30.6449
31.7844
36.863
36.8864
36.9463
37.0597
37.2866
37.6285
38.1099
38.7118
39.4532
40.3217
41.3362
42.483
43.7725
45.1876
46.7048
48.2899
49.8999
51.4873
53.0031
54.4065
55.6645
56.759
57.685
58.4486
59.0641
59.5496
59.9257
60.2101
60.4217
60.5717
60.6771
60.738
60.7741
60.7736
60.7656
60.7441
60.7013
60.6458
60.583
60.5154
60.4463
60.3777
60.3124
60.2533
60.2054
60.1658
60.1519
60.1568
60.1804
60.2241
60.3364
60.4907
60.6633
60.8982
61.2067
61.5935
62.0925
62.7365
63.5288
64.5017
65.6749
67.0749
68.7326
70.6722
72.9117
75.4606
78.3135
81.445
84.8085
88.3381
91.955
95.5775
99.133
102.569
105.857
108.995
112
114.895
117.691
120.548
123.425
126.265
129.121
131.99
134.888
137.809
140.774
143.81
146.96
36.0924
31.5653
30.7273
32.1471
36.2842
36.8689
32.0514
30.9019
32.5278
137.987
139.968
32.5624
31.1455
31.4344
33.1077
32.9233
33.3314
33.7167
33.7505
34.3731
34.1799
35.8794
35.0606
34.6149
35.0559
35.5013
138.334
140.448
142.544
144.598
146.592
145.335
142.282
139.319
136.415
133.552
130.718
127.921
125.162
122.421
119.662
116.922
114.243
111.469
108.587
105.572
102.403
99.0804
95.6287
92.0976
88.5572
85.088
81.7688
78.6673
75.8319
73.2908
71.0524
69.1084
67.4431
66.0328
64.8495
63.8654
63.0592
62.404
61.8921
61.4954
61.1765
60.9293
60.7416
60.576
60.4521
60.3857
60.3519
60.3397
60.3371
60.3563
60.386
60.4242
60.467
60.5099
60.5514
60.5908
60.6143
60.6243
60.6279
60.6048
60.5593
60.4833
60.3582
60.1831
59.9355
59.6026
59.1605
58.5838
57.8491
56.9389
55.8481
54.5502
53.1076
51.506
49.8688
48.1632
46.477
44.8975
43.4357
42.1289
40.9759
39.9802
39.1236
38.4011
37.8118
37.3421
36.9907
35.7843
35.9547
36.1106
36.719
148.516
30.8468
31.7594
136.08
134.284
132.642
131.192
129.975
129.036
128.408
128.112
128.154
128.533
129.237
130.246
131.53
133.051
134.763
136.616
138.565
140.565
142.577
144.572
146.526
148.425
150.265
36.3343
31.2567
30.8512
36.4419
36.6279
32.1098
36.4612
36.9718
37.675
37.697
37.757
37.8836
38.1151
38.4207
38.8356
39.3801
40.069
40.8961
41.883
43.0085
44.2616
45.6426
47.1305
48.6937
50.2947
51.8866
53.4213
54.8559
56.156
57.2998
58.2773
59.0916
59.7541
60.2813
60.6927
61.006
61.2407
61.4076
61.5258
61.5943
61.6325
61.6312
61.6209
61.5938
61.5402
61.4704
61.3892
61.299
61.2026
61.1021
60.9996
60.8973
60.7973
60.7012
60.6123
60.5333
60.4688
60.4189
60.3905
60.394
60.4116
60.4641
60.5677
60.7396
60.932
61.1902
61.5274
61.9513
62.4783
63.154
64.003
65.0366
66.2949
67.797
69.5719
71.6535
74.063
76.812
79.8973
83.2977
86.969
90.8448
94.8441
98.8814
102.879
106.778
110.542
114.157
117.628
120.939
124.157
127.395
130.582
133.657
136.674
139.633
142.601
145.619
148.752
152.044
31.6942
30.9737
32.4811
142.139
143.995
32.1625
31.1794
31.4439
32.6671
32.8684
33.269
33.2076
31.7513
33.6808
33.7686
34.1029
34.3707
34.5333
35.0408
34.9686
36.5443
35.7387
35.4068
35.8537
141.988
144.017
146.031
148.011
149.948
151.832
153.663
150.366
147.195
144.156
141.208
138.292
135.381
132.42
129.417
126.317
123.173
120.052
116.861
113.521
110.043
106.419
102.656
98.7874
94.8661
90.9661
87.171
83.561
80.2035
77.1466
74.4147
72.013
69.9325
68.1547
66.648
65.3848
64.3392
63.482
62.7939
62.2584
61.8279
61.4832
61.2175
61.0169
60.8369
60.717
60.6563
60.6309
60.6233
60.6314
60.6733
60.723
60.7876
60.8596
60.9375
61.0167
61.0979
61.1778
61.2532
61.3193
61.377
61.414
61.4335
61.4407
61.4337
61.3756
61.2886
61.1471
60.9505
60.672
60.2988
59.8044
59.1686
58.3716
57.3841
56.2204
54.8712
53.3888
51.7624
50.0821
48.3975
46.7802
45.2447
43.8643
42.6231
41.4837
40.5188
39.6813
39.0036
38.4275
37.9668
37.6226
36.4779
37.366
37.2155
36.3147
39.942
31.0213
38.2218
38.1654
36.7768
36.9295
36.6523
37.0907
37.6877
36.8952
37.2746
37.8022
37.1553
37.4779
37.9308
37.7229
37.4496
38.1163
37.2641
38.3218
37.9879
37.7604
32.0887
140.347
138.656
137.097
135.711
134.543
133.634
133.021
132.727
132.764
133.127
133.805
134.775
136.004
137.449
139.067
140.809
142.634
144.504
146.388
148.264
150.117
151.938
153.721
155.463
38.4523
38.9873
39.5672
40.2631
41.0947
42.0341
43.1216
44.3685
45.7486
47.2229
48.8032
50.4446
52.1095
53.7302
55.2682
56.6613
57.8867
58.9242
59.7856
60.4824
61.0269
61.446
61.7579
61.9844
62.143
62.2476
62.3095
62.3267
62.321
62.3022
62.2598
62.1926
62.113
62.0228
61.923
61.8181
61.7075
61.5959
61.4848
61.3761
61.271
61.1725
61.0835
61.0053
60.9466
60.899
60.8918
60.9016
60.9341
61.0045
61.1358
61.343
61.5834
61.8799
62.2669
62.7558
63.3551
64.0936
65.0174
66.1558
67.5246
69.1717
71.1137
73.3805
76.0027
78.9934
82.3479
86.0432
90.033
94.2461
98.5961
102.991
107.346
111.592
115.682
119.589
123.299
126.802
130.182
133.518
136.748
139.848
142.869
145.86
148.936
152.137
155.436
31.4271
31.0794
32.4504
145.885
147.788
149.686
151.564
153.412
155.218
156.972
158.657
38.8015
38.6682
38.5605
38.5277
38.5442
38.5935
38.7192
38.9426
39.2517
39.6624
40.1778
40.8152
41.5946
42.5279
43.6068
44.8328
46.1892
47.6503
49.1924
50.7788
52.367
53.9128
55.371
56.7048
57.8894
58.9127
59.774
60.4814
61.0499
61.4974
61.8419
62.1019
62.2896
62.4239
62.5045
62.5528
62.5526
62.5434
62.5164
62.4623
62.386
62.2949
62.1921
62.0801
61.961
61.8364
61.7083
61.5782
61.448
61.3195
61.1944
61.075
60.9635
60.8625
60.7741
60.7045
60.6504
60.6301
60.6372
60.6672
60.7266
60.8525
61.0535
61.2911
61.5832
61.9667
62.4538
63.0513
63.7856
64.701
65.834
67.1991
68.8452
70.7916
73.0693
75.706
78.7237
82.1207
85.8753
89.944
94.2572
98.7271
103.258
107.757
112.15
116.382
120.418
124.245
127.845
131.277
134.67
137.951
141.114
144.188
147.258
150.434
153.754
157.154
31.8626
31.24
31.4728
32.3243
32.8302
33.2246
32.8104
31.7592
146.698
148.348
33.6309
33.3237
32.0818
34.0473
33.8774
34.4734
34.4614
34.9047
35.0648
35.3402
35.7284
35.7805
36.4416
36.2263
37.2056
36.6775
37.1432
38.9811
38.566
37.6106
39.6539
39.1872
31.2284
41.9162
38.9565
38.2824
38.0967
32.4331
39.3525
39.5148
39.9922
40.7195
41.5922
42.5883
43.7067
44.9337
46.2788
47.7377
49.3306
50.9579
52.5904
54.2129
55.7473
57.1709
58.4399
59.5369
60.4545
61.1993
61.7904
62.2525
62.6009
62.8605
63.0412
63.1661
63.2368
63.2725
63.2686
63.2463
63.2078
63.1405
63.0568
62.9578
62.8465
62.7269
62.6007
62.4687
62.3333
62.1957
62.0588
61.9241
61.7934
61.668
61.5508
61.4441
61.3498
61.2722
61.2143
61.1817
61.1859
61.2084
61.2607
61.3677
61.5274
61.7575
62.0728
62.4368
62.8898
63.4592
64.159
65.0063
66.0307
67.2834
68.808
70.6242
72.7834
75.3056
78.2139
81.5331
85.2614
89.3712
93.8127
98.5068
103.353
108.241
113.065
117.734
122.182
126.371
130.286
133.925
137.349
140.712
143.993
147.231
150.472
153.777
157.122
160.249
145.111
143.619
142.246
141.025
139.993
139.189
138.642
138.376
138.4
138.715
139.307
140.16
141.241
142.511
143.932
145.468
147.087
148.758
150.457
152.167
153.874
155.567
157.23
158.847
160.397
31.6315
31.331
39.8329
48.4521
31.5247
32.0581
32.805
33.1938
39.5413
39.4446
39.4222
39.4403
39.4893
39.6029
39.814
40.1126
40.515
41.0268
41.6556
42.4098
43.2984
44.3286
45.519
46.8348
48.2627
49.7845
51.3557
52.9374
54.4843
55.9555
57.3145
58.533
59.5951
60.4972
61.246
61.8535
62.3366
62.7126
62.999
63.2099
63.3612
63.4583
63.5168
63.5273
63.5198
63.4957
63.4448
63.3667
63.2717
63.1624
63.0416
62.9113
62.7732
62.629
62.4802
62.3283
62.1748
62.0213
61.8695
61.7209
61.5774
61.441
61.3135
61.1978
61.0958
61.0107
60.9479
60.9077
60.9106
60.9302
60.9812
61.0821
61.2396
61.4663
61.7861
62.1539
62.6076
63.1799
63.8846
64.7366
65.7654
67.015
68.5376
70.3631
72.5234
75.067
78.0051
81.36
85.1413
89.3222
93.8549
98.6597
103.633
108.66
113.625
118.431
123.003
127.299
131.306
135.012
138.489
141.872
145.211
148.546
151.908
155.341
158.759
161.846
32.5093
31.7833
150.039
151.754
153.476
155.189
156.872
158.503
160.052
161.49
162.788
151.731
153.059
39.4334
39.6692
38.8312
33.5956
32.9877
32.0883
34.0083
33.4934
32.4272
34.4297
34.0201
34.8588
34.5742
35.2931
35.1737
35.7305
35.7986
36.1703
36.4709
36.6164
37.2392
37.069
40.0332
37.5196
37.9816
31.4577
40.9284
41.143
31.6021
31.8595
33.1736
150.477
149.319
148.272
147.354
146.588
145.995
145.594
145.392
145.4
145.612
146.033
146.659
147.46
148.413
149.5
150.703
152
153.369
154.791
156.246
157.714
159.172
160.587
161.927
163.153
164.227
92.8274
40.3533
40.362
40.3835
40.4452
40.5485
40.7613
41.047
41.434
41.9315
42.5481
43.2914
44.1663
45.1771
46.3187
47.6008
48.9961
50.4843
52.0318
53.6006
55.1431
56.6204
57.9933
59.2349
60.3278
61.2654
62.0502
62.6933
63.2099
63.6165
63.9294
64.1643
64.3335
64.4493
64.5184
64.5443
64.5395
64.5194
64.4762
64.3996
64.3039
64.1918
64.0662
63.9293
63.7827
63.6281
63.4669
63.3005
63.1304
62.9579
62.7844
62.6114
62.4404
62.2727
62.1102
61.9544
61.8073
61.6708
61.5476
61.4402
61.3507
61.2829
61.2413
61.2447
61.2668
61.3095
61.4146
61.5719
61.7812
62.0777
62.4676
62.9678
63.5433
64.2363
65.0836
66.1059
67.3227
68.7654
70.4759
72.5245
74.9556
77.7962
81.0904
84.829
89.0295
93.6565
98.6503
103.916
109.33
114.752
120.048
125.103
129.846
134.235
138.284
142.04
145.605
149.174
152.9
156.653
160.179
163.112
164.993
32.2843
31.8269
40.2177
40.5225
40.9427
41.4369
42.1448
43.0791
44.2004
45.5089
46.9055
48.3841
49.9325
51.5019
53.1542
54.8054
56.3544
57.7926
59.0794
60.206
61.1685
61.9606
62.5992
63.0996
63.4826
63.7717
63.9752
64.1243
64.2083
64.2614
64.2593
64.2427
64.2099
64.1432
64.0579
63.9566
63.8403
63.7147
63.5774
63.4321
63.2816
63.1271
62.9693
62.8108
62.6524
62.4965
62.3449
62.1985
62.0599
61.9306
61.8137
61.7114
61.6259
61.5611
61.5221
61.5259
61.5454
61.5966
61.697
61.8511
62.0578
62.3497
62.7385
63.2238
63.789
64.4722
65.3098
66.3188
67.5188
68.9449
70.6454
72.6904
75.1032
77.9334
81.1918
84.8888
89.0339
93.5913
98.4987
103.662
108.959
114.256
119.427
124.366
129.005
133.309
137.287
140.965
144.45
147.939
151.527
155.139
158.629
161.686
163.882
154.445
155.872