/*--------------------------------*- C++ -*----------------------------------*\
| =========                 |                                                 |
| \\      /  F ield         | OpenFOAM: The Open Source CFD Toolbox           |
|  \\    /   O peration     | Version:  2212                                  |
|   \\  /    A nd           | Website:  www.openfoam.com                      |
|    \\/     M anipulation  |                                                 |
\*---------------------------------------------------------------------------*/
FoamFile
{
    version     2.0;
    format      ascii;
    arch        "LSB;label=32;scalar=64";
    class       surfaceScalarField;
    location    "0.000261";
    object      phi;
}
// * * * * * * * * * * * * * * * * * * * * * * * * * * * * * * * * * * * * * //

dimensions      [1 0 -1 0 0 0 0];

oriented        oriented;

internalField   nonuniform List<scalar> 
112622
(
2.9022e-09
-2.6831e-09
4.04365e-09
3.34914e-09
4.398e-09
5.57295e-09
4.51778e-09
6.49868e-09
4.57039e-09
7.13492e-09
4.5452e-09
7.37971e-09
4.43707e-09
7.47166e-09
4.28404e-09
7.40287e-09
4.11056e-09
7.03704e-09
3.92997e-09
6.69498e-09
3.74596e-09
6.47175e-09
3.56252e-09
6.26937e-09
3.38132e-09
6.06607e-09
3.20533e-09
5.84872e-09
3.03036e-09
5.76491e-09
2.84981e-09
5.89873e-09
2.66375e-09
6.05384e-09
2.47352e-09
6.2086e-09
2.28801e-09
6.05202e-09
2.10849e-09
5.87291e-09
1.93615e-09
5.66152e-09
1.7704e-09
5.47768e-09
1.61152e-09
5.29433e-09
1.45972e-09
5.11003e-09
1.31591e-09
4.90052e-09
1.18386e-09
4.57102e-09
1.06464e-09
4.1855e-09
9.64675e-10
3.52781e-09
8.7618e-10
3.15494e-09
7.94929e-10
2.92743e-09
7.19497e-10
2.74907e-09
6.45882e-10
2.73037e-09
5.71008e-10
2.85379e-09
4.96021e-10
2.93671e-09
4.21781e-10
2.97817e-09
3.53933e-10
2.75876e-09
2.92423e-10
2.53866e-09
2.37459e-10
2.31591e-09
1.87511e-10
2.15476e-09
1.44199e-10
1.90421e-09
1.07322e-10
1.64107e-09
7.74595e-11
1.32687e-09
5.25064e-11
1.11595e-09
3.25793e-11
8.94173e-10
1.79022e-11
6.63832e-10
7.93174e-12
4.50174e-10
2.69722e-10
1.96818e-12
4.71959e-09
-7.39925e-09
6.1966e-09
1.87532e-09
6.10908e-09
5.66337e-09
5.74551e-09
6.86546e-09
5.38396e-09
7.50031e-09
5.0454e-09
7.72266e-09
4.75079e-09
7.7711e-09
4.48991e-09
7.66871e-09
4.24994e-09
7.28177e-09
4.02931e-09
6.92013e-09
3.81609e-09
6.68917e-09
3.61324e-09
6.47605e-09
3.41667e-09
6.26603e-09
3.23023e-09
6.03807e-09
3.04655e-09
5.9511e-09
2.85959e-09
6.0879e-09
2.66758e-09
6.24782e-09
2.47243e-09
6.40549e-09
2.28228e-09
6.2436e-09
2.09947e-09
6.0569e-09
1.9242e-09
5.83786e-09
1.75596e-09
5.64702e-09
1.59496e-09
5.4566e-09
1.44166e-09
5.26489e-09
1.29713e-09
5.04699e-09
1.16471e-09
4.70572e-09
1.04556e-09
4.30716e-09
9.45987e-10
3.62977e-09
8.58159e-10
3.24511e-09
7.77738e-10
3.0102e-09
7.03316e-10
2.82585e-09
6.30775e-10
2.8054e-09
5.57233e-10
2.93008e-09
4.83601e-10
3.0133e-09
4.10909e-10
3.05397e-09
3.44739e-10
2.82784e-09
2.8499e-10
2.60098e-09
2.31613e-10
2.37143e-09
1.8314e-10
2.20496e-09
1.41015e-10
1.94755e-09
1.05119e-10
1.6777e-09
7.59704e-11
1.35635e-09
5.16762e-11
1.14032e-09
3.20994e-11
9.13685e-10
1.7777e-11
6.78037e-10
7.86953e-12
4.59973e-10
2.75446e-10
2.07016e-12
5.02175e-09
-1.24139e-08
6.87333e-09
3.0719e-11
6.78285e-09
5.76059e-09
6.37524e-09
7.28056e-09
5.96864e-09
7.9156e-09
5.59935e-09
8.1016e-09
5.25439e-09
8.12644e-09
4.93936e-09
7.99437e-09
4.64404e-09
7.58729e-09
4.37792e-09
7.19583e-09
4.1261e-09
6.94997e-09
3.89077e-09
6.71965e-09
3.66665e-09
6.49766e-09
3.45623e-09
6.25508e-09
3.24995e-09
6.16326e-09
3.04011e-09
6.3031e-09
2.82618e-09
6.46659e-09
2.61027e-09
6.62572e-09
2.40123e-09
6.45639e-09
2.20098e-09
6.26051e-09
2.00999e-09
6.03197e-09
1.82817e-09
5.83199e-09
1.65535e-09
5.63282e-09
1.49121e-09
5.43284e-09
1.33747e-09
5.20508e-09
1.19744e-09
4.85058e-09
1.07206e-09
4.43763e-09
9.67417e-10
3.73917e-09
8.75581e-10
3.34155e-09
7.91606e-10
3.09872e-09
7.14326e-10
2.90763e-09
6.39273e-10
2.88513e-09
5.63639e-10
3.01079e-09
4.88494e-10
3.09385e-09
4.14662e-10
3.13341e-09
3.47544e-10
2.90014e-09
2.87006e-10
2.66609e-09
2.33063e-10
2.42919e-09
1.84252e-10
2.25685e-09
1.41842e-10
1.99216e-09
1.05806e-10
1.71512e-09
7.63702e-11
1.38648e-09
5.19727e-11
1.16499e-09
3.22491e-11
9.33403e-10
1.80209e-11
6.92142e-10
7.95245e-12
4.69903e-10
2.81053e-10
2.24273e-12
5.66976e-09
-1.80708e-08
8.17761e-09
-2.46435e-09
8.17911e-09
5.77195e-09
7.60872e-09
7.8652e-09
7.00423e-09
8.53619e-09
6.46718e-09
8.65605e-09
5.99003e-09
8.62194e-09
5.56721e-09
8.43593e-09
5.19857e-09
7.97393e-09
4.86957e-09
7.54172e-09
4.56705e-09
7.26829e-09
4.28742e-09
7.01385e-09
4.02522e-09
6.77305e-09
3.7794e-09
6.51263e-09
3.54317e-09
6.41012e-09
3.3037e-09
6.55243e-09
3.06211e-09
6.71721e-09
2.81935e-09
6.87672e-09
2.58566e-09
6.69735e-09
2.3625e-09
6.49026e-09
2.15085e-09
6.24985e-09
1.95037e-09
6.03867e-09
1.76032e-09
5.82933e-09
1.5813e-09
5.6188e-09
1.41404e-09
5.37992e-09
1.26269e-09
5.01002e-09
1.12762e-09
4.58106e-09
1.01549e-09
3.85902e-09
9.17089e-10
3.44735e-09
8.28104e-10
3.19496e-09
7.4599e-10
2.99686e-09
6.66814e-10
2.97161e-09
5.87572e-10
3.09788e-09
5.08801e-10
3.18087e-09
4.31843e-10
3.2188e-09
3.62163e-10
2.97755e-09
2.99449e-10
2.73556e-09
2.43659e-10
2.49059e-09
1.93101e-10
2.31192e-09
1.48858e-10
2.03962e-09
1.11182e-10
1.75483e-09
8.03379e-11
1.41839e-09
5.47567e-11
1.19101e-09
3.38704e-11
9.54339e-10
1.88297e-11
7.0704e-10
8.30262e-12
4.80247e-10
2.86961e-10
2.25391e-12
5.30329e-09
-2.33551e-08
7.57306e-09
-4.7154e-09
7.65285e-09
5.71095e-09
7.18877e-09
8.3498e-09
6.66419e-09
9.08347e-09
6.17335e-09
9.17092e-09
5.73078e-09
9.08936e-09
5.32867e-09
8.86314e-09
4.97648e-09
8.35031e-09
4.66008e-09
7.88092e-09
4.37108e-09
7.57873e-09
4.10256e-09
7.30226e-09
3.85353e-09
7.04032e-09
3.62049e-09
6.76214e-09
3.39671e-09
6.64899e-09
3.16998e-09
6.79337e-09
2.94121e-09
6.95927e-09
2.71077e-09
7.11951e-09
2.48894e-09
6.93025e-09
2.27597e-09
6.71334e-09
2.07396e-09
6.46142e-09
1.88202e-09
6.24005e-09
1.70041e-09
6.02063e-09
1.52917e-09
5.80027e-09
1.36894e-09
5.551e-09
1.22445e-09
5.16576e-09
1.09536e-09
4.72149e-09
9.88024e-10
3.97673e-09
8.94032e-10
3.55121e-09
8.08066e-10
3.29055e-09
7.29039e-10
3.08529e-09
6.52945e-10
3.0573e-09
5.76285e-10
3.18476e-09
5.00486e-10
3.2673e-09
4.26243e-10
3.30383e-09
3.58617e-10
3.05497e-09
2.97399e-10
2.80531e-09
2.4266e-10
2.55241e-09
1.92953e-10
2.3673e-09
1.49528e-10
2.08706e-09
1.12178e-10
1.79474e-09
8.12489e-11
1.45069e-09
5.53729e-11
1.21751e-09
3.44897e-11
9.75344e-10
1.90367e-11
7.2235e-10
8.43693e-12
4.90629e-10
2.93138e-10
2.0821e-12
5.03648e-09
-2.83653e-08
7.2736e-09
-6.92668e-09
7.37443e-09
5.63598e-09
6.93121e-09
8.82091e-09
6.42533e-09
9.61967e-09
5.94619e-09
9.68163e-09
5.51495e-09
9.55282e-09
5.12204e-09
9.28822e-09
4.78026e-09
8.72286e-09
4.47467e-09
8.21547e-09
4.19501e-09
7.88571e-09
3.93616e-09
7.58658e-09
3.69646e-09
7.30352e-09
3.47219e-09
7.00779e-09
3.25615e-09
6.88476e-09
3.03733e-09
7.03101e-09
2.81664e-09
7.19796e-09
2.59414e-09
7.35915e-09
2.3804e-09
7.15956e-09
2.17502e-09
6.93303e-09
1.98072e-09
6.66915e-09
1.79564e-09
6.43821e-09
1.62134e-09
6.20817e-09
1.4566e-09
5.97874e-09
1.30371e-09
5.71815e-09
1.1655e-09
5.31836e-09
1.0423e-09
4.8589e-09
9.40205e-10
4.09161e-09
8.50458e-10
3.653e-09
7.69212e-10
3.38344e-09
6.94487e-10
3.17126e-09
6.22314e-10
3.14086e-09
5.50109e-10
3.26898e-09
4.78412e-10
3.35135e-09
4.08073e-10
3.38654e-09
3.43604e-10
3.13056e-09
2.85562e-10
2.873e-09
2.33517e-10
2.6124e-09
1.86091e-10
2.42109e-09
1.44133e-10
2.13354e-09
1.08257e-10
1.83353e-09
7.85258e-11
1.48203e-09
5.35649e-11
1.24326e-09
3.33772e-11
9.95748e-10
1.83878e-11
7.37245e-10
8.14319e-12
5.00678e-10
2.99151e-10
1.95943e-12
4.87539e-09
-3.32043e-08
7.10277e-09
-9.1186e-09
7.25887e-09
5.51513e-09
6.83521e-09
9.28213e-09
6.34024e-09
1.01549e-08
5.86213e-09
1.02012e-08
5.4357e-09
1.0021e-08
5.04571e-09
9.71947e-09
4.70806e-09
9.09966e-09
4.40215e-09
8.55812e-09
4.12506e-09
8.19737e-09
3.86578e-09
7.87806e-09
3.62597e-09
7.57316e-09
3.40061e-09
7.2605e-09
3.18451e-09
7.12636e-09
2.96458e-09
7.27552e-09
2.7436e-09
7.44266e-09
2.52049e-09
7.60514e-09
2.30669e-09
7.39447e-09
2.10239e-09
7.15687e-09
1.90923e-09
6.88053e-09
1.7266e-09
6.63829e-09
1.55461e-09
6.39745e-09
1.39389e-09
6.15699e-09
1.24514e-09
5.88473e-09
1.11134e-09
5.46978e-09
9.92978e-10
4.99432e-09
8.94597e-10
4.20511e-09
8.08689e-10
3.75296e-09
7.30524e-10
3.47501e-09
6.58873e-10
3.25572e-09
5.89837e-10
3.22272e-09
5.21012e-10
3.35115e-09
4.53277e-10
3.43261e-09
3.87186e-10
3.466e-09
3.26425e-10
3.2032e-09
2.71537e-10
2.93811e-09
2.21923e-10
2.67043e-09
1.7698e-10
2.47277e-09
1.37245e-10
2.17813e-09
1.03169e-10
1.8708e-09
7.4884e-11
1.51214e-09
5.11521e-11
1.26792e-09
3.18676e-11
1.01536e-09
1.76463e-11
7.51469e-10
7.8117e-12
5.10408e-10
3.04807e-10
2.05434e-12
4.82515e-09
-3.79789e-08
7.06959e-09
-1.13139e-08
7.2588e-09
5.37451e-09
6.86008e-09
9.73209e-09
6.36935e-09
1.06998e-08
5.89033e-09
1.0735e-08
5.46307e-09
1.0503e-08
5.06983e-09
1.01661e-08
4.72626e-09
9.49334e-09
4.41499e-09
8.91614e-09
4.13012e-09
8.52615e-09
3.8631e-09
8.18596e-09
3.61661e-09
7.85755e-09
3.38416e-09
7.5279e-09
3.16216e-09
7.38121e-09
2.93609e-09
7.53346e-09
2.70918e-09
7.70052e-09
2.48053e-09
7.8639e-09
2.26276e-09
7.64026e-09
2.05503e-09
7.39062e-09
1.86014e-09
7.09957e-09
1.67651e-09
6.84474e-09
1.50534e-09
6.59069e-09
1.3462e-09
6.33797e-09
1.19912e-09
6.05357e-09
1.06796e-09
5.62208e-09
9.52277e-10
5.13012e-09
8.56295e-10
4.3186e-09
7.72624e-10
3.85262e-09
6.97093e-10
3.56556e-09
6.27952e-10
3.33903e-09
5.61573e-10
3.30309e-09
4.95724e-10
3.43137e-09
4.30828e-10
3.51188e-09
3.67627e-10
3.54316e-09
3.0953e-10
3.27354e-09
2.5713e-10
3.00096e-09
2.10153e-10
2.72599e-09
1.6761e-10
2.52224e-09
1.30139e-10
2.22067e-09
9.78654e-11
1.90648e-09
7.10627e-11
1.54093e-09
4.83717e-11
1.29171e-09
3.01017e-11
1.03412e-09
1.6729e-11
7.65012e-10
7.40998e-12
5.19765e-10
3.1024e-10
1.97573e-12
4.50715e-09
-4.24211e-08
6.60437e-09
-1.33482e-08
6.81055e-09
5.23017e-09
6.47265e-09
1.0135e-08
6.02918e-09
1.12115e-08
5.5969e-09
1.12354e-08
5.1974e-09
1.09696e-08
4.83218e-09
1.05961e-08
4.50617e-09
9.87971e-09
4.21143e-09
9.26699e-09
3.93917e-09
8.85118e-09
3.6861e-09
8.48835e-09
3.44787e-09
8.14159e-09
3.22563e-09
7.79261e-09
3.01124e-09
7.63583e-09
2.794e-09
7.79006e-09
2.57493e-09
7.95801e-09
2.35571e-09
8.12061e-09
2.14642e-09
7.88442e-09
1.94752e-09
7.62199e-09
1.76121e-09
7.31616e-09
1.58623e-09
7.04811e-09
1.42309e-09
6.78072e-09
1.27125e-09
6.51588e-09
1.13181e-09
6.21852e-09
1.00802e-09
5.77025e-09
8.99086e-10
5.26184e-09
8.08654e-10
4.42852e-09
7.29756e-10
3.94906e-09
6.58501e-10
3.65305e-09
5.93267e-10
3.41936e-09
5.30489e-10
3.3806e-09
4.68307e-10
3.5085e-09
4.07253e-10
3.58772e-09
3.47682e-10
3.61695e-09
2.92824e-10
3.34073e-09
2.43089e-10
3.06115e-09
1.98665e-10
2.77901e-09
1.58515e-10
2.56939e-09
1.23365e-10
2.26105e-09
9.27384e-11
1.94073e-09
6.73724e-11
1.56854e-09
4.58463e-11
1.31461e-09
2.85551e-11
1.05221e-09
1.56782e-11
7.7831e-10
6.9591e-12
5.2869e-10
3.15555e-10
1.73377e-12
3.95063e-09
-4.62947e-08
5.76546e-09
-1.50891e-08
5.97798e-09
5.09033e-09
5.71729e-09
1.04717e-08
5.3563e-09
1.1652e-08
5.00482e-09
1.16662e-08
4.66704e-09
1.13851e-08
4.35674e-09
1.0981e-08
4.07594e-09
1.02294e-08
3.82332e-09
9.58338e-09
3.58546e-09
9.14907e-09
3.36472e-09
8.76543e-09
3.15597e-09
8.40301e-09
2.9602e-09
8.03753e-09
2.76934e-09
7.8735e-09
2.57507e-09
8.03053e-09
2.37772e-09
8.20087e-09
2.17938e-09
8.36364e-09
1.98884e-09
8.11679e-09
1.8075e-09
7.84241e-09
1.63695e-09
7.52307e-09
1.47703e-09
7.24196e-09
1.32773e-09
6.96195e-09
1.18878e-09
6.68536e-09
1.06148e-09
6.3752e-09
9.4833e-10
5.91093e-09
8.48308e-10
5.38716e-09
7.65079e-10
4.53308e-09
6.92187e-10
4.04089e-09
6.25717e-10
3.73686e-09
5.64669e-10
3.4964e-09
5.06008e-10
3.45472e-09
4.47931e-10
3.58213e-09
3.90728e-10
3.66017e-09
3.34809e-10
3.68744e-09
2.82942e-10
3.40518e-09
2.35511e-10
3.11922e-09
1.92993e-10
2.8303e-09
1.54227e-10
2.61539e-09
1.20244e-10
2.30053e-09
9.05349e-11
1.97442e-09
6.58805e-11
1.59582e-09
4.47731e-11
1.33752e-09
2.79892e-11
1.07019e-09
1.52475e-11
7.91786e-10
6.829e-12
5.37513e-10
3.21052e-10
1.52814e-12
3.57039e-09
-4.97746e-08
5.16114e-09
-1.65921e-08
5.36725e-09
4.9703e-09
5.13532e-09
1.07938e-08
4.83552e-09
1.2046e-08
4.5266e-09
1.20684e-08
4.24754e-09
1.17552e-08
3.9826e-09
1.13332e-08
3.74671e-09
1.05457e-08
3.52832e-09
9.87595e-09
3.32209e-09
9.42498e-09
3.12675e-09
9.02613e-09
2.93929e-09
8.65194e-09
2.76231e-09
8.27213e-09
2.58853e-09
8.10249e-09
2.4086e-09
8.26534e-09
2.22447e-09
8.43954e-09
2.03955e-09
8.60245e-09
1.86228e-09
8.34463e-09
1.69342e-09
8.05836e-09
1.53497e-09
7.72517e-09
1.38638e-09
7.43129e-09
1.24734e-09
7.13913e-09
1.11842e-09
6.85019e-09
1.00005e-09
6.52736e-09
8.94975e-10
6.04705e-09
8.0246e-10
5.50773e-09
7.25065e-10
4.63379e-09
6.56975e-10
4.12944e-09
5.95084e-10
3.8173e-09
5.3804e-10
3.57037e-09
4.8289e-10
3.52608e-09
4.28365e-10
3.65281e-09
3.74424e-10
3.72981e-09
3.21516e-10
3.75521e-09
2.72194e-10
3.46728e-09
2.26987e-10
3.17523e-09
1.86273e-10
2.87995e-09
1.48834e-10
2.66028e-09
1.15938e-10
2.33926e-09
8.73522e-11
2.00743e-09
6.36046e-11
1.62272e-09
4.32703e-11
1.36018e-09
2.71025e-11
1.08802e-09
1.47588e-11
8.05258e-10
6.59148e-12
5.46389e-10
3.26576e-10
1.46518e-12
3.27037e-09
-5.29378e-08
4.59622e-09
-1.78134e-08
4.79736e-09
4.87213e-09
4.5678e-09
1.11312e-08
4.32833e-09
1.23976e-08
4.06319e-09
1.24444e-08
3.85121e-09
1.20753e-08
3.63224e-09
1.16552e-08
3.44603e-09
1.08267e-08
3.25725e-09
1.01522e-08
3.0808e-09
9.6835e-09
2.90371e-09
9.28035e-09
2.73457e-09
8.89378e-09
2.56886e-09
8.50616e-09
2.40515e-09
8.33189e-09
2.23455e-09
8.50148e-09
2.062e-09
8.67722e-09
1.88764e-09
8.84102e-09
1.72171e-09
8.57072e-09
1.5641e-09
8.27199e-09
1.41768e-09
7.92349e-09
1.28057e-09
7.61682e-09
1.15354e-09
7.31119e-09
1.03541e-09
7.00994e-09
9.27304e-10
6.6738e-09
8.31375e-10
6.17764e-09
7.46415e-10
5.62359e-09
6.74984e-10
4.7306e-09
6.12376e-10
4.21408e-09
5.55304e-10
3.89411e-09
5.02758e-10
3.64074e-09
4.52055e-10
3.59366e-09
4.01388e-10
3.72011e-09
3.51332e-10
3.79585e-09
3.01834e-10
3.8197e-09
2.55667e-10
3.52626e-09
2.13297e-10
3.22844e-09
1.75003e-10
2.92727e-09
1.39871e-10
2.70303e-09
1.08989e-10
2.37624e-09
8.22253e-11
2.03897e-09
5.98578e-11
1.64864e-09
4.08431e-11
1.38195e-09
2.54484e-11
1.10549e-09
1.4073e-11
8.18125e-10
6.2303e-12
5.55238e-10
3.31838e-10
1.57434e-12
2.82024e-09
-5.5636e-08
3.71609e-09
-1.85892e-08
3.88372e-09
4.82327e-09
3.72595e-09
1.1413e-08
3.60809e-09
1.26445e-08
3.4461e-09
1.27338e-08
3.32766e-09
1.23178e-08
3.17367e-09
1.19276e-08
3.03757e-09
1.10716e-08
2.88154e-09
1.04085e-08
2.73308e-09
9.92621e-09
2.57378e-09
9.52827e-09
2.42239e-09
9.12859e-09
2.27006e-09
8.73669e-09
2.12365e-09
8.5534e-09
1.96862e-09
8.73143e-09
1.81446e-09
8.90591e-09
1.65846e-09
9.07058e-09
1.51213e-09
8.78607e-09
1.37408e-09
8.47441e-09
1.24643e-09
8.11065e-09
1.12729e-09
7.79102e-09
1.01717e-09
7.47187e-09
9.14696e-10
7.15859e-09
8.21027e-10
6.80961e-09
7.37485e-10
6.29888e-09
6.63746e-10
5.73058e-09
6.01688e-10
4.81968e-09
5.47e-10
4.29195e-09
4.96751e-10
3.96492e-09
4.49982e-10
3.70588e-09
4.0467e-10
3.65623e-09
3.6003e-10
3.78161e-09
3.15696e-10
3.85626e-09
2.71668e-10
3.87871e-09
2.30462e-10
3.58017e-09
1.92254e-10
3.27735e-09
1.57722e-10
2.97073e-09
1.26235e-10
2.74213e-09
9.84546e-11
2.41022e-09
7.41843e-11
2.06822e-09
5.39076e-11
1.67271e-09
3.68556e-11
1.402e-09
2.2908e-11
1.12174e-09
1.28549e-11
8.29884e-10
5.67023e-12
5.63591e-10
3.36584e-10
1.61678e-12
2.07535e-09
-5.75844e-08
2.48471e-09
-1.88735e-08
2.6198e-09
4.81225e-09
2.63696e-09
1.15259e-08
2.66951e-09
1.27468e-08
2.63691e-09
1.29004e-08
2.60764e-09
1.24776e-08
2.52328e-09
1.21365e-08
2.43537e-09
1.12744e-08
2.31866e-09
1.06313e-08
2.20355e-09
1.0141e-08
2.07469e-09
9.75084e-09
1.95269e-09
9.33885e-09
1.82911e-09
8.94308e-09
1.71059e-09
8.75151e-09
1.58563e-09
8.93594e-09
1.46231e-09
9.10855e-09
1.339e-09
9.27246e-09
1.22394e-09
8.97497e-09
1.11497e-09
8.6521e-09
1.01462e-09
8.27409e-09
9.21079e-10
7.9425e-09
8.35081e-10
7.61093e-09
7.54613e-10
7.28747e-09
6.80451e-10
6.92774e-09
6.14391e-10
6.40393e-09
5.55458e-10
5.82356e-09
5.04954e-10
4.89763e-09
4.60102e-10
4.36019e-09
4.18776e-10
4.02686e-09
3.80089e-10
3.76289e-09
3.4268e-10
3.71075e-09
3.05478e-10
3.83544e-09
2.68652e-10
3.90887e-09
2.31976e-10
3.93006e-09
1.97133e-10
3.62748e-09
1.64687e-10
3.32029e-09
1.35323e-10
3.00881e-09
1.08296e-10
2.77656e-09
8.452e-11
2.44001e-09
6.37515e-11
2.09381e-09
4.63008e-11
1.69383e-09
3.16078e-11
1.41965e-09
1.96273e-11
1.13604e-09
1.1091e-11
8.40148e-10
4.86939e-12
5.7099e-10
3.40678e-10
1.47155e-12
1.39142e-09
-5.88426e-08
1.46087e-09
-1.88133e-08
1.60115e-09
4.80096e-09
1.77617e-09
1.14865e-08
1.9138e-09
1.27503e-08
1.98161e-09
1.29724e-08
2.00581e-09
1.25902e-08
1.97216e-09
1.23011e-08
1.91632e-09
1.14513e-08
1.83177e-09
1.08279e-08
1.74264e-09
1.03356e-08
1.64293e-09
9.95006e-09
1.54764e-09
9.52802e-09
1.45279e-09
9.12615e-09
1.36198e-09
8.92731e-09
1.26653e-09
9.11651e-09
1.17205e-09
9.28798e-09
1.07837e-09
9.45023e-09
9.90741e-10
9.14155e-09
9.07658e-10
8.80833e-09
8.30759e-10
8.4179e-09
7.59219e-10
8.07538e-09
6.92265e-10
7.73411e-09
6.29584e-10
7.40144e-09
5.71246e-10
7.03251e-09
5.19022e-10
6.4971e-09
4.71832e-10
5.9063e-09
4.30604e-10
4.96733e-09
3.93506e-10
4.42145e-09
3.58962e-10
4.08261e-09
3.26336e-10
3.8143e-09
2.9459e-10
3.75999e-09
2.63236e-10
3.88376e-09
2.32255e-10
3.95592e-09
2.0113e-10
3.97612e-09
1.71365e-10
3.66989e-09
1.43344e-10
3.35892e-09
1.18061e-10
3.04288e-09
9.46336e-11
2.80739e-09
7.40739e-11
2.46652e-09
5.58695e-11
2.11672e-09
4.05833e-11
1.7127e-09
2.76396e-11
1.43546e-09
1.71871e-11
1.14874e-09
9.63819e-12
8.49357e-10
4.265e-12
5.77491e-10
3.44352e-10
1.26164e-12
8.30639e-10
-5.95331e-08
6.32367e-10
-1.84798e-08
7.6552e-10
4.80206e-09
1.0655e-09
1.13276e-08
1.26603e-09
1.26971e-08
1.41054e-09
1.29749e-08
1.46406e-09
1.26804e-08
1.474e-09
1.24293e-08
1.44278e-09
1.16109e-08
1.39234e-09
1.09977e-08
1.33111e-09
1.05099e-08
1.26382e-09
1.01244e-08
1.1981e-09
9.69495e-09
1.13297e-09
9.28662e-09
1.06995e-09
9.0823e-09
1.0037e-09
9.27484e-09
9.37069e-10
9.44653e-09
8.71865e-10
9.60626e-09
8.08763e-10
9.28997e-09
7.49085e-10
8.94708e-09
6.92499e-10
8.54694e-09
6.38917e-10
8.19546e-09
5.88032e-10
7.84603e-09
5.39785e-10
7.50537e-09
4.94015e-10
7.12864e-09
4.52504e-10
6.58289e-09
4.1414e-10
5.98298e-09
3.80246e-10
5.03184e-09
3.48931e-10
4.47867e-09
3.19349e-10
4.13488e-09
2.91208e-10
3.86253e-09
2.63873e-10
3.80602e-09
2.36538e-10
3.92924e-09
2.09569e-10
4.00013e-09
1.82338e-10
4.01938e-09
1.56071e-10
3.70973e-09
1.30795e-10
3.39553e-09
1.07964e-10
3.07501e-09
8.66153e-11
2.83649e-09
6.79633e-11
2.4913e-09
5.1271e-11
2.1382e-09
3.72878e-11
1.73028e-09
2.52322e-11
1.45039e-09
1.57547e-11
1.16046e-09
8.62227e-12
8.58144e-10
3.85231e-12
5.83381e-10
3.47878e-10
9.92067e-13
3.42646e-10
-5.9735e-08
-7.70006e-11
-1.79246e-08
5.6858e-11
4.80319e-09
4.36666e-10
1.10899e-08
6.43982e-10
1.26389e-08
8.461e-10
1.29219e-08
9.18139e-10
1.27552e-08
9.71024e-10
1.25183e-08
9.67917e-10
1.17466e-08
9.56509e-10
1.11331e-08
9.27057e-10
1.06574e-08
8.96495e-10
1.02673e-08
8.62268e-10
9.83604e-09
8.29909e-10
9.42e-09
7.96592e-10
9.21331e-09
7.60603e-10
9.40892e-09
7.22012e-10
9.58322e-09
6.84165e-10
9.74102e-09
6.45511e-10
9.41973e-09
6.08391e-10
9.06919e-09
5.70896e-10
8.66268e-09
5.35005e-10
8.30345e-09
4.99148e-10
7.94807e-09
4.64197e-10
7.60089e-09
4.29594e-10
7.21809e-09
3.97799e-10
6.66294e-09
3.67587e-10
6.055e-09
3.39828e-10
5.09311e-09
3.13755e-10
4.53315e-09
2.88929e-10
4.18463e-09
2.64771e-10
3.90879e-09
2.41012e-10
3.85042e-09
2.17222e-10
3.97314e-09
1.9372e-10
4.04279e-09
1.69557e-10
4.06136e-09
1.46062e-10
3.74832e-09
1.23057e-10
3.43114e-09
1.02224e-10
3.10617e-09
8.24e-11
2.86488e-09
6.49685e-11
2.51545e-09
4.90687e-11
2.15927e-09
3.5846e-11
1.74734e-09
2.40872e-11
1.46517e-09
1.50772e-11
1.17182e-09
8.00859e-12
8.66957e-10
3.60416e-12
5.88978e-10
3.51508e-10
6.89422e-13
-5.7443e-11
-5.95429e-08
-5.51307e-10
-1.7301e-08
-4.06696e-10
4.788e-09
-4.87141e-11
1.08688e-08
1.4305e-10
1.2591e-08
3.56001e-10
1.28535e-08
4.36329e-10
1.28178e-08
5.19052e-10
1.25747e-08
5.39291e-10
1.18573e-08
5.62759e-10
1.12328e-08
5.62064e-10
1.07763e-08
5.65808e-10
1.03766e-08
5.60146e-10
9.94992e-09
5.56895e-10
9.52602e-09
5.48789e-10
9.32125e-09
5.3928e-10
9.51912e-09
5.25024e-10
9.69843e-09
5.11862e-10
9.85473e-09
4.9447e-10
9.53169e-09
4.76886e-10
9.17522e-09
4.562e-10
8.76517e-09
4.35775e-10
8.39979e-09
4.12919e-10
8.04063e-09
3.89807e-10
7.68787e-09
3.65646e-10
7.30036e-09
3.42785e-10
6.73713e-09
3.19991e-10
6.12247e-09
2.98429e-10
5.15063e-09
2.77583e-10
4.58464e-09
2.57328e-10
4.23191e-09
2.37214e-10
3.95298e-09
2.17322e-10
3.8929e-09
1.97178e-10
4.01538e-09
1.77127e-10
4.08397e-09
1.56129e-10
4.10211e-09
1.35519e-10
3.7857e-09
1.14925e-10
3.46577e-09
9.59954e-11
3.1366e-09
7.77478e-11
2.89268e-09
6.17572e-11
2.53892e-09
4.67806e-11
2.18e-09
3.43303e-11
1.76403e-09
2.29799e-11
1.47985e-09
1.44862e-11
1.1829e-09
7.47309e-12
8.75877e-10
3.43806e-12
5.9431e-10
3.55317e-10
4.09539e-13
-2.55391e-10
-5.91615e-08
-7.47174e-10
-1.66878e-08
-6.45724e-10
4.80811e-09
-3.65785e-10
1.07177e-08
-1.76747e-10
1.2538e-08
5.28652e-12
1.28082e-08
8.84592e-11
1.28714e-08
1.82376e-10
1.26143e-08
2.18891e-10
1.1947e-08
2.65316e-10
1.1306e-08
2.84406e-10
1.08727e-08
3.12449e-10
1.046e-08
3.2576e-10
1.00437e-08
3.44801e-10
9.60914e-09
3.54574e-10
9.41105e-09
3.64956e-10
9.60961e-09
3.68106e-10
9.79684e-09
3.72654e-10
9.95177e-09
3.71003e-10
9.62976e-09
3.6784e-10
9.26875e-09
3.59774e-10
8.85664e-09
3.50505e-10
8.48671e-09
3.38199e-10
8.12486e-09
3.2443e-10
7.76759e-09
3.08758e-10
7.37632e-09
2.93227e-10
6.80622e-09
2.76703e-10
6.18581e-09
2.59992e-10
5.20525e-09
2.43196e-10
4.63391e-09
2.26746e-10
4.27718e-09
2.10197e-10
3.99539e-09
1.93589e-10
3.93392e-09
1.76699e-10
4.05626e-09
1.59777e-10
4.12394e-09
1.4196e-10
4.14154e-09
1.24155e-10
3.82198e-09
1.05831e-10
3.49965e-09
8.90296e-11
3.16625e-09
7.26558e-11
2.91978e-09
5.80482e-11
2.56197e-09
4.41291e-11
2.20043e-09
3.25224e-11
1.78044e-09
2.17943e-11
1.49434e-09
1.37928e-11
1.19381e-09
7.12322e-12
8.84678e-10
3.25705e-12
5.99609e-10
3.59048e-10
3.82137e-13
-3.31899e-10
-5.87013e-08
-7.9894e-10
-1.6097e-08
-7.56539e-10
4.88937e-09
-5.61087e-10
1.06534e-08
-3.89097e-10
1.25045e-08
-2.41421e-10
1.28004e-08
-1.49422e-10
1.29185e-08
-5.38978e-11
1.26553e-08
-3.5331e-12
1.20261e-08
5.8184e-11
1.13677e-08
9.29185e-11
1.09575e-08
1.37218e-10
1.05313e-08
1.65748e-10
1.01262e-08
1.98267e-10
9.68292e-09
2.21539e-10
9.49152e-09
2.44894e-10
9.6917e-09
2.60909e-10
9.88727e-09
2.77216e-10
1.00418e-08
2.86219e-10
9.72165e-09
2.92247e-10
9.35772e-09
2.92525e-10
8.94405e-09
2.9024e-10
8.57014e-09
2.84484e-10
8.206e-09
2.76475e-10
7.84519e-09
2.65804e-10
7.45065e-09
2.54697e-10
6.87407e-09
2.42309e-10
6.24792e-09
2.29038e-10
5.25891e-09
2.15309e-10
4.68241e-09
2.01509e-10
4.322e-09
1.87368e-10
4.0375e-09
1.73093e-10
3.97471e-09
1.58723e-10
4.09677e-09
1.44388e-10
4.16346e-09
1.28875e-10
4.18079e-09
1.13057e-10
3.85822e-09
9.68149e-11
3.53321e-09
8.17953e-11
3.19569e-09
6.68682e-11
2.94685e-09
5.37148e-11
2.58475e-09
4.10813e-11
2.22056e-09
3.0385e-11
1.79669e-09
2.05533e-11
1.50854e-09
1.30202e-11
1.20468e-09
6.95206e-12
8.93145e-10
3.15225e-12
6.04998e-10
3.62511e-10
6.25324e-13
-3.1996e-10
-5.82388e-08
-7.48972e-10
-1.55306e-08
-7.96814e-10
5.07425e-09
-6.98059e-10
1.06997e-08
-5.71016e-10
1.25301e-08
-4.4471e-10
1.28279e-08
-3.50997e-10
1.29776e-08
-2.51169e-10
1.27053e-08
-1.8315e-10
1.21e-08
-1.11386e-10
1.14309e-08
-5.92019e-11
1.10359e-08
-1.84697e-12
1.05999e-08
4.00031e-11
1.02052e-08
8.58843e-11
9.75342e-09
1.20841e-10
9.57013e-09
1.54492e-10
9.7727e-09
1.80593e-10
9.97666e-09
2.05995e-10
1.01315e-08
2.23005e-10
9.81366e-09
2.359e-10
9.44718e-09
2.42374e-10
9.0322e-09
2.45143e-10
8.65476e-09
2.43678e-10
8.28816e-09
2.39374e-10
7.9241e-09
2.32422e-10
7.52604e-09
2.244e-10
6.94303e-09
2.14622e-10
6.3112e-09
2.03374e-10
5.31373e-09
1.91508e-10
4.73185e-09
1.79362e-10
4.36778e-09
1.66906e-10
4.08037e-09
1.54295e-10
4.01617e-09
1.41712e-10
4.13785e-09
1.29123e-10
4.20358e-09
1.15532e-10
4.2204e-09
1.0153e-10
3.8947e-09
8.70341e-11
3.56689e-09
7.37258e-11
3.22512e-09
6.05203e-11
2.97376e-09
4.87728e-11
2.60748e-09
3.75097e-11
2.24043e-09
2.77996e-11
1.8128e-09
1.90245e-11
1.52233e-09
1.20956e-11
1.2154e-09
6.77783e-12
9.01145e-10
3.05629e-12
6.10486e-10
3.65681e-10
9.24686e-13
-2.63162e-10
-5.78039e-08
-6.60461e-10
-1.49679e-08
-8.30064e-10
5.40847e-09
-8.14742e-10
1.08584e-08
-7.43632e-10
1.26419e-08
-6.40981e-10
1.2909e-08
-5.49404e-10
1.30683e-08
-4.42661e-10
1.27768e-08
-3.59122e-10
1.21854e-08
-2.71738e-10
1.15036e-08
-2.01946e-10
1.11207e-08
-1.29846e-10
1.06769e-08
-6.9983e-11
1.02886e-08
-1.10416e-11
9.83149e-09
3.65608e-11
9.65539e-09
8.26907e-11
9.86136e-09
1.19825e-10
1.00743e-08
1.55583e-10
1.02302e-08
1.80725e-10
9.91525e-09
2.00427e-10
9.54622e-09
2.12215e-10
9.12991e-09
2.19538e-10
8.74874e-09
2.21805e-10
8.37954e-09
2.20516e-10
8.01168e-09
2.16164e-10
7.60953e-09
2.10492e-10
7.0194e-09
2.02513e-10
6.38133e-09
1.92523e-10
5.37449e-09
1.81806e-10
4.78649e-09
1.70491e-10
4.41846e-09
1.58701e-10
4.12779e-09
1.468e-10
4.06196e-09
1.35108e-10
4.18308e-09
1.23428e-10
4.24776e-09
1.10801e-10
4.26393e-09
9.74825e-11
3.93494e-09
8.36701e-11
3.60385e-09
7.09709e-11
3.25739e-09
5.8552e-11
3.00294e-09
4.74346e-11
2.63212e-09
3.66211e-11
2.26192e-09
2.7247e-11
1.83013e-09
1.87948e-11
1.53699e-09
1.19705e-11
1.22692e-09
6.82749e-12
9.09615e-10
3.06461e-12
6.16442e-10
3.69007e-10
1.02259e-12
-1.77897e-10
-5.74436e-08
-4.98975e-10
-1.44707e-08
-7.36358e-10
5.82131e-09
-7.8416e-10
1.10919e-08
-7.64766e-10
1.28179e-08
-6.97944e-10
1.30391e-08
-6.26098e-10
1.31921e-08
-5.31657e-10
1.28738e-08
-4.51019e-10
1.22861e-08
-3.64871e-10
1.15894e-08
-2.92142e-10
1.12139e-08
-2.17109e-10
1.07617e-08
-1.53096e-10
1.03782e-08
-9.02224e-11
9.91546e-09
-3.56103e-11
9.74397e-09
1.503e-11
9.95472e-09
5.78035e-11
1.01774e-08
9.85672e-11
1.03347e-08
1.2941e-10
1.00222e-08
1.53981e-10
9.65059e-09
1.70303e-10
9.23273e-09
1.81768e-10
8.8478e-09
1.87862e-10
8.47605e-09
1.90471e-10
8.10442e-09
1.89458e-10
7.69844e-09
1.86559e-10
7.10114e-09
1.81417e-10
6.45643e-09
1.73625e-10
5.43978e-09
1.64622e-10
4.84552e-09
1.55041e-10
4.4731e-09
1.44874e-10
4.17894e-09
1.34489e-10
4.11151e-09
1.24347e-10
4.23227e-09
1.14266e-10
4.29606e-09
1.03313e-10
4.31159e-09
9.14937e-11
3.97907e-09
7.90979e-11
3.64435e-09
6.75076e-11
3.29298e-09
5.60501e-11
3.03519e-09
4.57052e-11
2.65949e-09
3.55532e-11
2.28568e-09
2.65975e-11
1.84938e-09
1.83007e-11
1.55339e-09
1.16696e-11
1.23969e-09
6.5028e-12
9.19164e-10
2.95116e-12
6.22891e-10
3.7285e-10
7.97154e-13
-9.4309e-11
-5.71797e-08
-3.32705e-10
-1.40677e-08
-5.59888e-10
6.213e-09
-6.35288e-10
1.1342e-08
-6.50508e-10
1.30178e-08
-6.11694e-10
1.3187e-08
-5.65935e-10
1.33324e-08
-4.95185e-10
1.29856e-08
-4.31822e-10
1.23959e-08
-3.62524e-10
1.16845e-08
-3.0113e-10
1.13112e-08
-2.37573e-10
1.0851e-08
-1.8118e-10
1.04687e-08
-1.25797e-10
1.00003e-08
-7.66124e-11
9.8318e-09
-3.09155e-11
1.0048e-08
8.95572e-12
1.02779e-08
4.75123e-11
1.04368e-08
7.73347e-11
1.01261e-08
1.01374e-10
9.75209e-09
1.18594e-10
9.33284e-09
1.31786e-10
8.94456e-09
1.40111e-10
8.57049e-09
1.45098e-10
8.19526e-09
1.46855e-10
7.7859e-09
1.47123e-10
7.18176e-09
1.44856e-10
6.53088e-09
1.3979e-10
5.50464e-09
1.33512e-10
4.90413e-09
1.26345e-10
4.52777e-09
1.18304e-10
4.23049e-09
1.10017e-10
4.16174e-09
1.02041e-10
4.28244e-09
9.42784e-11
4.34556e-09
8.60797e-11
4.36039e-09
7.69064e-11
4.0245e-09
6.6891e-11
3.68631e-09
5.74783e-11
3.33007e-09
4.80647e-11
3.06891e-09
3.95636e-11
2.68822e-09
3.09665e-11
2.31072e-09
2.33347e-11
1.86966e-09
1.59885e-11
1.57083e-09
1.026e-11
1.25314e-09
5.45359e-12
9.29499e-10
2.49282e-12
6.2953e-10
3.77113e-10
4.00535e-13
-4.67327e-11
-5.69729e-08
-2.31184e-10
-1.37278e-08
-4.21582e-10
6.55898e-09
-5.01561e-10
1.15874e-08
-5.31003e-10
1.32221e-08
-5.08508e-10
1.33415e-08
-4.7976e-10
1.34802e-08
-4.28792e-10
1.31077e-08
-3.80634e-10
1.25118e-08
-3.26559e-10
1.1786e-08
-2.77095e-10
1.14116e-08
-2.25758e-10
1.09436e-08
-1.79017e-10
1.05601e-08
-1.33304e-10
1.00861e-08
-9.19612e-11
9.91882e-09
-5.33339e-11
1.01398e-08
-1.89783e-11
1.03753e-08
1.35524e-11
1.05361e-08
3.93537e-11
1.02258e-08
6.08286e-11
9.84991e-09
7.6571e-11
9.42861e-09
8.89305e-11
9.03698e-09
9.75309e-11
8.66025e-09
1.03451e-10
8.28207e-09
1.0682e-10
7.86943e-09
1.08676e-10
7.25883e-09
1.08408e-10
6.60203e-09
1.05078e-10
5.56706e-09
1.00233e-10
4.96089e-09
9.44948e-11
4.58075e-09
8.82276e-11
4.28039e-09
8.17641e-11
4.21047e-09
7.60551e-11
4.33091e-09
7.08097e-11
4.39346e-09
6.5367e-11
4.40775e-09
5.88357e-11
4.06885e-09
5.14911e-11
3.72741e-09
4.44942e-11
3.36664e-09
3.74924e-11
3.10222e-09
3.12021e-11
2.71673e-09
2.46216e-11
2.33564e-09
1.86953e-11
1.88991e-09
1.27797e-11
1.58829e-09
8.25303e-12
1.26658e-09
4.31508e-12
9.39882e-10
2.01655e-12
6.36128e-10
3.81448e-10
2.07767e-13
-2.64533e-11
-5.67847e-08
-1.74051e-10
-1.34229e-08
-3.28065e-10
6.87041e-09
-4.05655e-10
1.18323e-08
-4.40902e-10
1.34344e-08
-4.3405e-10
1.35138e-08
-4.16141e-10
1.36409e-08
-3.78928e-10
1.32455e-08
-3.41434e-10
1.26399e-08
-2.98752e-10
1.19e-08
-2.58037e-10
1.15217e-08
-2.15494e-10
1.10456e-08
-1.7544e-10
1.06583e-08
-1.36137e-10
1.01782e-08
-9.991e-11
1.00105e-08
-6.68291e-11
1.02366e-08
-3.6976e-11
1.04768e-08
-8.28446e-12
1.06393e-08
1.51076e-11
1.03284e-08
3.38978e-11
9.94992e-09
4.84435e-11
9.52636e-09
6.02991e-11
9.13154e-09
6.9059e-11
8.75226e-09
7.53834e-11
8.37099e-09
7.9598e-11
7.95461e-09
8.29082e-11
7.3375e-09
8.4093e-11
6.67473e-09
8.174e-11
5.63109e-09
7.79286e-11
5.01916e-09
7.32881e-11
4.63524e-09
6.80237e-11
4.33177e-09
6.2718e-11
4.2607e-09
5.84414e-11
4.3809e-09
5.48169e-11
4.44299e-09
5.12101e-11
4.45691e-09
4.62509e-11
4.11529e-09
4.05375e-11
3.77055e-09
3.51829e-11
3.4052e-09
3.00008e-11
3.13732e-09
2.53736e-11
2.74698e-09
2.03326e-11
2.36212e-09
1.555e-11