/*--------------------------------*- C++ -*----------------------------------*\
| =========                 |                                                 |
| \\      /  F ield         | OpenFOAM: The Open Source CFD Toolbox           |
|  \\    /   O peration     | Version:  2212                                  |
|   \\  /    A nd           | Website:  www.openfoam.com                      |
|    \\/     M anipulation  |                                                 |
\*---------------------------------------------------------------------------*/
FoamFile
{
    version     2.0;
    format      ascii;
    arch        "LSB;label=32;scalar=64";
    class       volVectorField;
    location    "0.0935";
    object      U;
}
// * * * * * * * * * * * * * * * * * * * * * * * * * * * * * * * * * * * * * //

dimensions      [0 1 -1 0 0 0 0];

internalField   nonuniform List<vector> 
2308
(
(-133.308 574.912 -4.33253e-16)
(57.7197 139.603 0)
(4.60375 382.224 3.37839e-17)
(105.149 594.195 -1.4093e-16)
(9.68101 640.897 0)
(65.2734 661.269 -4.38558e-18)
(-66.2996 669.321 1.4724e-18)
(-64.5256 650.336 -2.08856e-16)
(-7.29942 632.717 3.75901e-16)
(8.64611 736.835 -4.54552e-17)
(11.1272 736.343 7.81789e-17)
(14.08 732.98 -1.18512e-16)
(14.9079 729.849 5.96047e-17)
(14.9343 725.597 -2.92583e-17)
(15.2149 721.004 5.11135e-18)
(15.2453 715.987 4.35087e-17)
(14.9886 710.637 7.57112e-18)
(-6.86161 705.394 1.32644e-17)
(-6.416 710.831 1.78271e-17)
(-5.74677 716.185 1.31507e-18)
(-5.00763 721.284 9.62501e-18)
(-3.69719 726.135 -2.9434e-17)
(-3.14617 730.407 3.66319e-17)
(-0.272992 734.44 -1.76049e-17)
(-0.459707 737.178 -6.98157e-17)
(-0.528722 737.227 -3.28481e-17)
(3.42898 736.204 1.73419e-17)
(3.2324 734.86 -1.96251e-17)
(-39.3154 668.51 0)
(13.9209 705.033 -1.2178e-16)
(2.85823 732.158 1.06928e-18)
(3.1089 727.051 2.76275e-19)
(3.0168 717.539 -4.88267e-18)
(4.93003 700.749 4.2967e-18)
(6.01382 664.401 -5.59538e-18)
(9.81755 629.302 4.23559e-18)
(7.71379 587.446 -2.91564e-18)
(5.55242 545.219 2.186e-18)
(-0.439786 544.45 -2.47388e-18)
(-2.48215 547.339 1.23612e-18)
(-1.97855 551.044 2.5542e-18)
(-1.47845 558.604 3.73635e-18)
(-1.01212 565.387 -7.61195e-18)
(-0.464224 569.75 5.12e-18)
(-0.203766 572.078 2.50565e-18)
(5.74878 570.272 -2.55862e-18)
(11.7893 565.498 2.48085e-18)
(16.8501 561.092 -3.6557e-18)
(19.2437 559.325 -3.84775e-18)
(20.0696 557.461 6.01284e-18)
(0.126242 556.628 -1.3054e-18)
(-26.0786 568.342 2.36041e-18)
(-60.7759 589.392 2.92973e-19)
(-89.5871 601.41 -3.65406e-18)
(-95.9711 623.181 -1.02853e-18)
(-88.7799 647.009 2.54246e-18)
(-58.2057 681.577 0)
(-30.7025 708.178 -3.39296e-19)
(-14.3322 720.224 -8.91322e-18)
(-3.91857 727.649 -3.07438e-17)
(2.67233 731.095 3.65381e-17)
(7.43169 732.92 3.33018e-17)
(13.6329 733.48 4.2284e-17)
(19.2701 733.534 -1.27714e-18)
(24.9099 731.758 4.791e-17)
(28.4846 730.002 -8.83484e-17)
(30.8241 727.395 -2.0396e-17)
(32.928 723.574 0)
(34.6011 719.275 0)
(35.7561 714.421 0)
(36.2233 709.188 0)
(-0.105935 573.406 -1.25999e-18)
(1.43743 573.78 1.25682e-18)
(-27.7932 709.319 -6.07957e-17)
(-26.7768 715.025 -1.24144e-18)
(-25.0736 720.356 4.84101e-18)
(-22.8535 725.263 0)
(-20.3048 729.614 -9.28507e-18)
(-17.2386 733.219 -8.85167e-18)
(-12.9871 734.925 4.59457e-18)
(-8.19287 734.75 1.79037e-17)
(-2.27376 733.734 0)
(3.22598 731.881 -6.61331e-19)
(10.3996 728.31 3.4261e-20)
(21.8669 719.94 -4.61722e-18)
(40.6616 707.163 6.91367e-18)
(71.7034 677.875 7.91163e-19)
(101.192 643.539 -3.64996e-18)
(107 623.932 0)
(98.3771 605.969 -5.68025e-19)
(69.3531 596.453 3.69917e-18)
(30.4052 576.169 -5.00675e-18)
(3.8816 557.261 -1.92575e-19)
(-22.6135 555.36 4.58427e-18)
(-22.5277 557.535 0)
(-19.6057 559.408 4.75632e-18)
(-14.4034 563.598 9.06309e-21)
(-7.60067 568.906 -2.55691e-18)
(-10.3998 700.002 -5.43158e-17)
(-2.63438 572.545 -2.50106e-18)
(11.2941 699.283 5.4223e-17)
(35.314 703.535 -3.98692e-19)
(15.3473 571.455 -2.56385e-18)
(20.2138 566.277 3.0709e-18)
(22.9525 564.153 0)
(23.5924 562.385 -9.16256e-19)
(6.22341 561.752 2.32143e-18)
(-18.1584 578.792 2.12997e-18)
(-48.5125 600.245 -2.63635e-18)
(-81.4073 613.404 0)
(-104.693 619.795 -6.55563e-19)
(-118.894 625.486 1.2516e-18)
(-127.376 629.08 -4.07087e-20)
(-129.195 637.555 -1.19726e-18)
(-115.708 646.769 0)
(-86.4811 671.255 1.40862e-18)
(-50.2659 700.273 -7.53765e-18)
(-24.3377 714.107 -4.46603e-18)
(-8.7611 722.533 1.80276e-17)
(2.27641 725.445 6.4024e-17)
(12.0214 726.679 4.9701e-18)
(22.1922 726.786 4.64974e-17)
(31.5796 726.17 -2.17115e-17)
(39.3185 724.835 0)
(45.4819 723.063 0)
(49.7606 719.853 0)
(53.5701 715.726 7.30663e-17)
(56.3295 711.036 -8.23029e-17)
(58.1322 705.914 8.75223e-17)
(-89.5446 643.35 -1.59554e-16)
(97.8079 662.642 0)
(64.0534 671.158 0)
(78.3716 666.52 0)
(-51.8391 699.627 1.25259e-16)
(-49.5564 706.594 3.43162e-17)
(-47.0917 712.905 -1.52514e-19)
(-44.1525 718.408 -5.79063e-19)
(-40.2765 723.064 5.93598e-19)
(-35.883 726.956 4.58829e-18)
(-29.4485 729.06 -8.9324e-18)
(-21.5558 728.827 9.27279e-20)
(-12.5533 728.363 0)
(-2.49141 726.328 2.097e-17)
(11.0016 722.509 1.27551e-17)
(27.7507 713.59 -2.67618e-18)
(59.1693 696.215 2.1212e-18)
(96.8373 666.439 0)
(124.122 645.983 0)
(135.769 636.94 -2.79759e-19)
(132.903 629.888 0)
(125.721 627.342 1.75954e-18)
(112.684 623.427 -6.80245e-20)
(92.308 617.363 -1.17851e-18)
(60.7121 606.122 0)
(25.2617 585.119 -1.84841e-18)
(0.24574 561.804 1.82293e-18)
(-24.7117 559.854 -3.00787e-18)
(-24.6745 562.31 0)
(-22.3165 564.211 -4.79036e-18)
(-17.3316 569.188 1.23464e-18)
(-11.355 575.012 -3.55569e-20)
(-0.63872 575.049 0)
(-0.0723387 574.41 -6.30453e-19)
(-0.242923 576.157 -2.03817e-18)
(-44.2505 646 1.75141e-16)
(9.77056 576.751 1.56785e-19)
(-112.616 636.052 -5.18618e-16)
(-152.976 631.587 -1.21981e-16)
(32.2828 697.539 0)
(-65.1131 623.136 1.74235e-16)
(-12.217 648.025 -3.5621e-16)
(-12.4329 693.581 2.08842e-17)
(58.6115 700.313 -1.309e-16)
(-6.95994 578.904 -1.27485e-18)
(-0.601999 576.907 -1.25405e-18)
(-0.0469912 575.473 -1.5744e-19)
(-0.0124551 577.873 2.53422e-18)
(6.02297 580.48 1.57544e-19)
(21.3488 575.606 0)
(26.6955 570.266 1.23907e-18)
(29.4784 567.999 2.37701e-18)
(30.5095 566.21 -6.26091e-19)
(14.9572 565.873 -2.5726e-18)
(-11.6747 583.509 -2.69496e-18)
(-42.7262 605.81 3.94081e-18)
(-77.5128 620.383 9.74081e-19)
(-98.6747 626.618 -2.42134e-18)
(-113.888 631.721 1.79987e-18)
(-123.921 633 -5.26135e-19)
(-131.313 634.468 0)
(-135.552 635.313 0)
(-137.061 636.455 0)
(-133.757 639.193 2.31961e-18)
(-124.534 644.727 -1.33469e-18)
(-100.516 658.215 -8.82321e-19)
(-66.5394 683.725 -1.06484e-17)
(-33.5881 702.618 0)
(-10.9736 710.36 -9.51635e-18)
(6.13927 714.528 9.93276e-18)
(20.6095 715.709 2.12311e-17)
(33.7881 716.307 9.97536e-18)
(44.7673 716.25 4.11644e-17)
(54.8646 716.17 -4.07428e-17)
(63.2389 714.218 0)
(69.7054 710.666 1.00184e-17)
(74.4957 706.441 -2.07745e-17)
(77.7576 701.565 -4.22019e-17)
(-60.277 685.085 1.94381e-17)
(-60.158 548.279 0)
(27.3996 648 -7.42865e-19)
(-99.1867 651.41 2.30275e-16)
(-97.3472 660.275 -4.78061e-17)
(-92.591 668.304 5.40646e-17)
(-88.4337 675.904 -9.44762e-18)
(-83.8428 683.157 2.0668e-17)
(-80.1348 690.271 -9.16103e-18)
(-75.2071 697.082 0)
(-71.318 703.575 -9.15987e-18)
(-67.2033 709.614 -9.2158e-18)
(-61.97 714.636 0)
(-55.3696 718.689 0)
(-46.9797 720.531 5.75463e-19)
(-36.4974 720.714 -5.33026e-18)
(-24.8786 719.588 0)
(-10.683 717.718 0)
(7.51907 711.326 -5.2261e-18)
(33.9906 702.602 -4.61292e-18)
(70.8031 678.945 9.20007e-18)
(106.045 653.184 2.15767e-18)
(127.881 642.767 6.03686e-19)
(137.661 638.309 2.3702e-18)
(140.436 636.179 -2.50727e-18)
(139.012 635.799 0)
(135.008 635.675 -1.18823e-18)
(128.086 634.763 0)
(119.484 633.621 0)
(105.819 630.06 0)
(87.6725 623.841 -5.01877e-18)
(53.7717 612.007 0)
(18.2711 590.281 -2.59326e-18)
(-9.18984 566.24 4.55057e-19)
(-31.1551 564.78 9.15589e-18)
(-30.8625 567.013 0)
(-28.2684 569.169 -4.83864e-18)
(-23.2165 574.127 7.71334e-20)
(-34.0306 306.568 0)
(-88.3338 630.015 2.88201e-16)
(149.739 549.017 4.91817e-16)
(50.2503 539.085 0)
(-34.8984 449.929 -1.41298e-16)
(-128.867 628.557 5.87855e-16)
(56.7954 694.322 -3.95693e-18)
(-36.7036 685.472 4.30142e-17)
(31.4505 569.245 -1.50406e-19)
(33.3865 568.072 -1.22207e-18)
(22.2102 567.113 1.13722e-18)
(-6.05799 582.849 0)
(-35.5108 606.81 0)
(-71.2212 623.657 1.46195e-19)
(-91.3217 630.384 -6.40228e-19)
(-105.584 636.242 -2.15188e-18)
(-114.013 638.18 1.52126e-19)
(-121.02 639.639 -3.04167e-19)
(-126.156 640.145 -3.66496e-19)
(-129.987 640.315 1.64191e-18)
(-132.532 639.024 1.49437e-19)
(-133.741 638.176 -1.09815e-18)
(-133.551 637.64 0)
(-128.619 637.806 4.73621e-18)
(-120.163 640.209 -3.826e-19)
(-102.946 646.975 2.28457e-17)
(-72.4648 663.702 -2.09469e-17)
(-38.7112 684.395 0)
(-8.28129 695.747 1.95489e-17)
(13.1981 701.635 -5.95435e-17)
(31.4842 704.494 3.11963e-17)
(45.4355 705.493 4.04419e-17)
(58.8453 705.471 -7.79934e-20)
(70.7567 704.925 -4.01048e-17)
(81.0616 703.371 4.0526e-17)
(89.2646 700.24 4.11713e-17)
(94.6868 695.956 -3.9887e-17)
(79.5102 696.409 -8.49097e-17)
(-39.0458 616.177 1.10048e-18)
(-194.532 622.697 -5.36948e-18)
(-123.548 650.184 -3.94616e-17)
(-119.983 658.505 -5.2074e-18)
(-115.101 665.89 -1.54877e-17)
(-110.054 673.105 -5.08489e-18)
(-105.082 680.247 0)
(-100.269 687.144 9.52928e-18)
(-95.1469 693.566 -4.73941e-18)
(-89.4547 699.445 -4.57574e-18)
(-83.4971 704.582 2.43655e-18)
(-74.7332 708.242 2.35576e-18)
(-64.2328 710.015 4.84666e-18)
(-51.3394 710.183 0)
(-36.9704 709.125 4.4518e-18)
(-18.3959 705.375 -4.92496e-18)
(5.63368 698.18 -7.13925e-20)
(40.9305 682.744 -1.40593e-17)
(77.7659 658.781 1.24558e-18)
(108.183 643.417 -5.33318e-18)
(122.954 638.15 0)
(130.947 636.862 -1.90689e-18)
(135.124 637.295 1.50046e-19)
(135.05 638.413 2.57796e-18)
(133.507 640.341 0)
(130.861 641.824 0)
(127.602 642.391 -7.44769e-20)
(123.831 641.91 -2.28088e-18)
(117.734 640.966 2.34093e-18)
(110.673 639.12 3.06766e-18)
(97.7466 634.808 -5.87692e-19)
(80.7893 628.033 2.05998e-18)
(46.3344 613.716 -7.2745e-19)
(12.2082 589.607 -5.65926e-18)
(-17.2627 568.784 4.37638e-18)
(-33.5199 568.168 1.05871e-17)
(-32.6098 569.524 4.69314e-18)
(-29.391 571.521 0)
(-16.6145 579.644 -2.56816e-18)
(-5.04372 581.57 3.37129e-20)
(-1.50651 578.603 2.84538e-18)
(-0.109656 577.166 9.43752e-19)
(1.02977 579.445 -1.26657e-18)
(4.32201 582.83 2.55041e-18)
(14.7797 580.644 -2.50646e-18)
(27.5491 571.483 -1.26584e-18)
(111.906 535.406 -1.69035e-16)
(2.73721 398.793 -4.90086e-17)
(-171.372 147.884 -8.39347e-17)
(-107.266 621.81 -2.75784e-16)
(-114.235 579.418 -1.55223e-16)
(99.7615 405.129 5.0397e-17)
(98.627 691.343 0)
(79.2921 690.811 1.67815e-16)
(-54.0122 608.169 4.30327e-16)
(-88.2646 612.667 1.73371e-16)
(-68.5357 566.688 -1.92413e-16)
(8.60575 654.409 3.61356e-16)
(-148.798 647.056 0)
(-143.479 654.668 5.10875e-18)
(-137.456 662.157 -1.22957e-18)
(-131.26 669.384 -2.33586e-17)
(-125.078 676.199 4.9321e-18)
(-118.639 682.709 0)
(-111.645 688.312 -1.39089e-19)
(-103.307 693.288 -1.20677e-18)
(-92.9912 696.316 0)
(-80.4054 697.383 -2.34594e-18)
(-65.4243 697.399 -2.15934e-18)
(-46.8609 695.764 0)
(-23.6915 690.325 6.0358e-19)
(9.65823 680.199 -1.6086e-18)
(47.4148 659.81 6.36319e-19)
(80.7952 641.673 8.84265e-18)
(102.192 635.124 0)
(113.766 633.65 1.23518e-18)
(120.334 633.42 -6.1698e-19)
(123.115 634.17 1.48334e-19)
(123.868 636.632 4.5291e-19)
(123.423 640.295 -2.71345e-18)
(122.658 643.062 0)
(122.214 644.528 6.02515e-19)
(121.072 645.001 1.19583e-18)
(119.514 645.225 1.20695e-18)
(117.38 644.818 -2.46676e-20)
(114.47 644.245 -5.9428e-19)
(109.093 642.752 -1.75132e-18)
(102.018 640.473 -1.20092e-18)
(89.4273 635.166 -1.15729e-18)
(70.1533 627.07 0)
(33.9901 609.388 -5.68135e-18)
(2.70401 582.43 -5.38844e-18)
(-26.4749 566.324 -3.842e-18)
(-35.1739 566.64 -6.44467e-18)
(-32.7073 567.283 2.97432e-18)
(-23.4229 576.172 -2.55913e-18)
(-11.4812 583.139 0)
(-4.58324 583.302 1.2671e-18)
(-2.5121 580.266 1.27515e-18)
(-0.109773 579.3 -2.51872e-18)
(2.09607 581.021 2.52108e-18)
(4.03088 584.279 -5.89569e-21)
(10.0339 583.582 -1.25956e-18)
(20.8758 576.287 3.8509e-18)
(31.3228 564.879 -3.62388e-18)
(34.3534 564.157 6.43702e-19)
(30.6179 562.472 -4.84976e-19)
(2.8026 575.72 8.75158e-19)
(-25.3163 602.648 -3.30089e-18)
(-61.6417 621.861 1.21166e-18)
(-83.3716 629.868 0)
(-96.9689 636.617 1.38921e-19)
(-105.261 639.375 2.09271e-18)
(-111.337 641.546 -3.00282e-19)
(-115.031 642.383 7.46428e-19)
(-117.729 643.101 1.77882e-21)
(-119.756 643.112 3.03626e-19)
(-121.609 642.715 -1.50907e-19)
(-122.618 641.236 1.06699e-18)
(-123.649 638.4 -3.62957e-18)
(-123.51 635.646 -2.87383e-20)
(-122.03 634.391 2.42582e-18)
(-118.1 634.339 -2.50029e-18)
(-110.321 635.021 -1.937e-17)
(-97.8984 637.656 1.90111e-17)
(-75.0742 646.131 0)
(-43.3031 663.442 -4.18435e-17)
(-10.1051 679.001 2.91085e-17)
(19.5694 687.445 -3.01704e-17)
(39.501 691.734 0)
(57.507 693.102 0)
(71.6646 693.239 0)
(85.1757 692.35 -5.18886e-18)
(96.8551 691.288 -1.33413e-18)
(106.605 688.422 8.00773e-17)
(-21.1079 607.776 -1.86815e-16)
(100.277 686.492 8.54681e-17)
(76.2085 684.838 -7.72096e-17)
(-64.2838 677.401 1.02136e-17)
(-72.8909 602.019 2.12458e-16)
(-106.552 605.92 1.77096e-16)
(-128.922 613.866 3.46876e-18)
(-147.637 620.846 -1.75808e-16)
(-206.937 613.458 -1.20393e-16)
(-152.098 639.331 -1.24023e-16)
(-171.935 635.119 4.25226e-17)
(-167.51 641.974 -1.12513e-17)
(-161.618 649.56 -2.03785e-17)
(-154.744 656.979 0)
(-147.524 664.135 1.94239e-17)
(-139.535 670.332 0)
(-131.133 676.167 0)
(-120.526 680.093 4.63901e-18)
(-108.057 682.214 1.14626e-18)
(-92.5254 683.095 0)
(-74.3215 682.548 2.39584e-18)
(-50.8223 679.035 7.83313e-20)
(-19.8734 671.994 3.99754e-19)
(17.3799 655.712 2.74714e-18)
(51.7339 637.562 2.0238e-18)
(77.7404 629.907 -2.85907e-18)
(92.0507 628.284 -4.77439e-18)
(101.027 627.963 1.53613e-19)
(105.697 628.628 -8.78977e-19)
(108.106 630.977 3.02845e-19)
(109.198 634.694 1.21821e-18)
(109.52 637.797 -9.15045e-19)
(110.568 640.31 1.20215e-18)
(112.234 642.368 -2.3533e-20)
(113.727 643.667 -3.0088e-18)
(114.441 644.99 1.15126e-18)
(114.225 645.265 1.12399e-18)
(113.375 645.247 -1.75901e-18)
(111.614 645.232 2.38936e-18)
(109.264 644.281 2.40253e-18)
(106.157 643.276 0)
(101.122 640.637 7.20384e-18)
(93.5116 637.604 1.15889e-18)
(80.4455 629.697 1.18583e-18)
(59.0105 620.229 0)
(22.2998 598.178 0)
(-6.90568 568.343 4.39025e-18)
(-33.3399 553.857 6.75425e-20)
(-31.8216 553.565 -5.78253e-19)
(-26.5272 569.16 6.23851e-19)
(-16.0705 580.355 0)
(-8.08156 584.707 0)
(-4.51292 584.346 -6.20158e-19)
(-3.22569 581.946 1.89329e-18)
(-0.235316 581.436 0)
(2.67873 582.52 -1.26928e-18)
(3.72383 584.779 -1.25182e-18)
(6.85799 584.502 2.53482e-18)
(13.5417 579.483 -1.28418e-18)
(24.0255 566.849 3.89041e-18)
(29.5117 548.206 6.73204e-19)
(32.7363 548.854 6.29598e-19)
(12.5922 560.218 1.33856e-18)
(-16.5123 589.401 0)
(-51.0341 613.018 -5.01495e-19)
(-75.3934 623.138 -1.20024e-19)
(-88.4459 632.127 6.83941e-19)
(-97.2167 635.848 -1.57993e-19)
(-102.93 639.111 -3.09579e-19)
(-106.459 640.469 -2.41434e-18)
(-108.948 641.767 6.05757e-19)
(-110.993 642.185 -1.48783e-18)
(-112.112 642.519 7.0606e-19)
(-112.563 642.531 -2.87121e-19)
(-112.399 641.769 0)
(-111.348 640.296 0)
(-110.417 638.261 0)
(-109.96 635.561 -1.23135e-18)
(-109.337 632.431 0)
(-107.494 629.844 -4.31631e-20)
(-103.82 628.895 9.75588e-18)
(-97.7862 629.151 -4.858e-18)
(-87.739 629.916 1.00393e-17)
(-72.0867 632.448 2.82553e-17)
(-46.1202 642.204 -1.37807e-18)
(-13.4688 658.835 -1.13955e-17)
(18.7062 671.019 -1.97183e-17)
(46.3252 676.963 3.96948e-17)
(65.9114 679.773 -1.9949e-17)
(83.0387 679.905 -4.74217e-19)
(97.369 679.022 8.53902e-18)
(111.163 677.48 -1.69466e-18)
(113.517 684.354 -1.21029e-16)
(-35.3124 599.08 -1.92732e-16)
(-2.35334 598.773 3.84881e-16)
(143.674 160.71 0)
(118.062 680.342 -8.38805e-17)
(-182.202 620.561 3.15573e-16)
(-171.941 613.211 -1.71334e-16)
(-149.148 607.511 -3.36725e-16)
(73.8272 678.586 -2.5675e-17)
(-72.6874 660.946 -2.50863e-17)
(-40.8752 677.25 -1.01901e-17)
(99.5366 681.392 2.10413e-18)
(-88.1917 595.613 -2.04987e-16)
(-127.546 598.369 1.65562e-16)
(-26.3794 553.773 -6.14094e-19)
(-18.0787 571.774 -6.38628e-19)
(-10.5964 581.659 0)
(-6.07634 584.695 -6.27517e-19)
(-4.13261 584.394 6.18132e-19)
(-3.29456 583.03 -6.30445e-19)
(-0.331463 583.006 6.31429e-19)
(2.32786 583.43 1.2621e-18)
(3.11374 584.593 -1.24605e-18)
(4.50938 584.153 2.55752e-18)
(8.05311 579.968 -3.79387e-18)
(14.7499 568.768 0)
(20.2022 548.533 -9.67949e-22)
(14.9599 516.093 0)
(18.7037 520.098 -3.70387e-18)
(-10.0015 560.017 1.21208e-18)
(-40.7117 588.156 0)
(-68.7717 605.371 0)
(-81.3705 616.985 3.22475e-19)
(-90.3733 623.845 -3.93393e-20)
(-95.138 628.405 0)
(-97.9201 631.439 -1.51833e-19)
(-100.173 633.887 1.5284e-19)
(-101.962 635.738 6.12381e-19)
(-103.837 637.318 2.98078e-19)
(-104.902 637.954 5.70428e-19)
(-105.29 637.98 9.30596e-21)
(-104.76 637.141 -1.21905e-18)
(-103.052 636.471 2.99198e-19)
(-101.057 635.228 1.22245e-18)
(-98.6372 633.948 3.18382e-19)
(-96.3973 632.243 -6.22209e-19)
(-94.3471 630.128 1.24427e-18)
(-92.8597 627.503 -3.66521e-18)
(-90.9259 624.467 -5.00735e-18)
(-87.6381 622.272 2.61825e-18)
(-82.4904 621.659 -5.14589e-18)
(-75.2019 621.973 0)
(-64.0032 622.656 -1.53729e-17)
(-46.1733 625.66 3.06125e-17)
(-19.139 636.083 0)
(12.8237 650.748 0)
(45.3362 660.168 0)
(73.1599 663.757 7.33792e-18)
(93.2012 665.106 -1.0591e-18)
(110.78 664.165 -1.60943e-18)
(121.972 675.389 -7.99361e-17)
(45.5417 641.206 -1.85451e-16)
(-50.0829 591.319 1.00572e-17)
(79.3989 536.634 1.73996e-16)
(-1.87216 421.281 0)
(-185.374 635.111 -9.54341e-18)
(-177.255 642.659 0)
(-168.083 650.077 0)
(-158.199 655.782 4.77454e-18)
(-146.057 660.397 -9.8927e-18)
(-132.394 663.796 0)
(-116.561 665.801 5.11776e-18)
(-97.9233 666.628 0)
(-74.762 664.956 -1.34141e-18)
(-43.8203 659.028 1.12802e-18)
(-7.91709 646.628 -6.33574e-18)
(25.2052 630.872 1.62744e-19)
(52.7015 622.611 -2.22679e-18)
(68.6735 621.364 4.88365e-18)
(78.9628 621.228 3.63103e-18)
(84.8864 621.74 -3.76601e-18)
(88.5853 623.918 0)
(90.9833 627.539 -1.28431e-20)
(92.349 630.518 -1.86493e-18)
(94.5028 633.066 0)
(97.0848 634.995 0)
(99.86 636.619 6.18832e-19)
(102.511 637.997 1.81926e-18)
(104.721 639.43 -1.20546e-18)
(106.325 640.438 1.22038e-18)
(107.293 641.605 -2.38082e-18)
(106.903 642.024 -5.79161e-19)
(106.026 641.779 -4.68492e-18)
(104.347 640.752 2.40546e-18)
(102.493 639.179 0)
(100.467 637.056 -4.87827e-18)
(97.7478 634.471 -2.44467e-18)
(93.7118 630.209 0)
(85.7791 625.3 2.33733e-18)
(73.0363 613.529 -1.30162e-19)
(47.0507 600.629 3.89998e-18)
(15.8712 572.22 3.57458e-18)
(-16.8068 537.197 0)
(-20.701 523.91 -1.25718e-18)
(15.7877 590.075 -1.92779e-16)
(-18.1047 588.831 -3.82561e-16)
(-4.77485 282.017 6.75913e-17)
(97.9429 675.89 -7.72138e-17)
(-103.602 587.575 3.4713e-16)
(120.095 675.897 -6.54724e-19)
(-8.74875 482.48 6.09555e-19)
(-32.8484 526.341 3.25285e-18)
(-63.1824 565.223 -2.64012e-18)
(-76.9153 583.176 0)
(-85.4523 595.677 0)
(-89.1879 603.749 0)
(-91.314 610.216 0)
(-92.4698 615 6.20851e-19)
(-93.2985 619.071 -3.10376e-19)
(-94.0544 622.423 1.55361e-19)
(-94.8786 625.536 -9.12267e-19)
(-95.6882 627.245 5.77524e-19)
(-95.825 627.907 2.95173e-19)
(-95.2288 627.997 -4.578e-19)
(-94.1844 627.46 0)
(-92.6023 626.849 6.36812e-21)
(-90.539 625.919 -3.05597e-19)
(-88.0111 624.986 3.04978e-19)
(-85.0811 623.934 6.10882e-19)
(-81.9326 622.78 -7.07266e-19)
(-78.8298 621.316 7.04922e-19)
(-75.9755 619.462 -1.87804e-18)
(-73.5616 617.299 -3.77332e-18)
(-70.4537 614.827 2.39501e-18)
(-66.0633 613.057 0)
(-59.9289 612.679 -2.53421e-19)
(-52.1224 613.094 -1.49083e-17)
(-39.5781 613.772 1.29393e-17)
(-19.9074 616.089 -2.69065e-18)
(7.77871 624.419 0)
(38.1133 636.672 -2.31265e-18)
(70.103 644.878 3.39522e-17)
(97.8697 647.245 -1.91926e-17)
(124.84 662.56 7.69056e-17)
(64.5891 648.259 3.94009e-16)
(-66.2572 585.164 1.13503e-17)
(-15.6692 523.629 -2.83927e-19)
(-15.4081 554.376 1.96315e-18)
(-9.72384 572.33 3.17328e-19)
(-5.88449 581.338 0)
(-3.80289 584.439 -6.28122e-19)
(-3.24935 584.395 6.27793e-19)
(-2.67114 583.455 -9.46287e-19)
(-0.657467 583.57 -2.1706e-18)
(1.32271 583.747 2.51464e-18)
(1.83687 584.507 0)
(1.93351 583.736 -1.26611e-18)
(2.93676 579.508 3.86503e-18)
(6.26838 568.849 -2.52575e-18)
(9.31632 548.685 -1.30525e-18)
(10.079 516.73 1.9528e-18)
(-2.55159 476.206 -2.70747e-18)
(66.7704 634.312 3.75816e-16)
(-143.098 592.874 -1.54834e-16)
(-168.608 601.719 1.51769e-16)
(-187.977 608.868 3.05703e-16)
(-204.026 611.236 1.44562e-16)
(26.4388 661.15 -7.79907e-18)
(85.7579 657.208 1.03826e-16)
(-118.801 369.807 0)
(67.9822 556.801 0)
(-189.963 626.081 0)
(-179.282 632.096 2.53325e-18)
(-166.62 638.254 -4.848e-18)
(-152.551 643.46 3.31428e-20)
(-136.108 646.408 1.43874e-17)
(-116.528 648.052 -9.78716e-18)
(-92.2208 647.669 2.49743e-19)
(-61.9596 643.614 5.09746e-18)
(-28.5444 632.749 -8.88675e-18)
(1.61799 619.633 7.49882e-19)
(27.5276 613.323 4.73222e-18)
(44.5683 613.262 -1.2932e-18)
(54.7083 613.14 1.22196e-18)
(61.3019 613.483 -3.68457e-18)
(66.1524 615.308 1.26691e-18)
(69.8054 618.397 3.69253e-18)
(72.3529 620.973 -2.48848e-18)
(75.6772 623.216 2.49821e-18)
(79.2417 624.934 9.25958e-19)
(82.9491 626.326 2.13661e-18)
(86.4589 627.559 -2.80355e-18)
(89.5024 628.768 1.83379e-18)
(92.029 629.934 -3.401e-18)
(94.0269 631.056 -2.4322e-18)
(95.5908 631.953 2.47413e-18)
(96.6319 632.637 1.21287e-18)
(97.3768 632.891 -1.17109e-18)
(97.3324 632.544 0)
(96.8695 631.317 -2.38481e-18)
(95.9173 628.763 1.21983e-18)
(95.1914 625.479 -2.44611e-18)
(94.161 622.129 -3.69102e-18)
(93.3184 617.525 -2.47272e-18)
(91.0703 612.421 -4.98793e-18)
(88.1988 604.184 1.25541e-18)
(80.1001 594.455 -1.22084e-18)
(68.4028 578.385 -2.68936e-18)
(42.9103 548.206 0)
(7.48298 502.964 0)
(1.23072 481.158 0)
(-4.59818 303.322 0)
(130.647 672.185 -1.42323e-18)
(94.8568 670.687 3.84899e-16)
(32.4019 581.636 1.7933e-16)
(-34.1567 579.429 1.95002e-16)
(0.0143261 579.245 3.65869e-16)
(46.5457 654.886 -1.9456e-16)
(-15.7416 292.74 -5.63198e-17)
(-46.8424 330.697 0)
(49.5309 666.419 -2.16454e-16)
(120.55 670.849 -8.54907e-17)
(121.486 648.154 -3.23421e-17)
(11.4792 666.768 -5.58255e-16)
(84.2203 515.7 1.92654e-16)
(121.284 533.387 1.77532e-16)
(-9.77451 351.899 -3.16783e-17)
(-23.1741 438.553 -1.30774e-18)
(-46.9498 461.997 -3.13054e-19)
(-76.1829 507.362 -1.09671e-18)
(-82.1578 540.129 3.15028e-20)
(-86.9208 556.311 0)
(-87.2521 570.047 0)
(-88.4487 579.1 0)
(-87.9174 586.813 -1.58126e-19)
(-87.6712 592.676 -1.96926e-19)
(-86.9583 598.126 1.97039e-19)
(-86.5113 602.72 -1.55731e-19)
(-86.0443 607.143 3.89732e-19)
(-85.655 609.68 -4.67003e-19)
(-84.4844 610.786 0)
(-83.6099 611.195 0)
(-82.2419 611.336 0)
(-80.7252 611.137 0)
(-78.8806 610.748 0)
(-76.7054 610.189 0)
(-74.0752 609.55 -1.58359e-19)
(-70.9812 608.859 6.18277e-19)
(-67.4564 608.119 0)
(-63.673 607.285 -1.59442e-18)
(-59.8362 606.242 2.8061e-18)
(-55.9772 604.882 2.50543e-18)
(-52.2983 603.357 0)
(-47.8065 601.634 7.63214e-18)
(-42.0092 600.001 -7.59043e-18)
(-34.4191 599.497 -2.49483e-18)
(-25.7142 600.07 5.05743e-18)
(-12.7656 600.486 -7.6866e-18)
(5.90666 601.851 3.81128e-18)
(32.4516 607.472 -9.60932e-18)
(60.786 615.653 2.52785e-18)
(91.4385 619.695 7.34211e-17)
(83.083 641.71 2.02851e-16)
(-144.67 572.394 2.92863e-16)
(-116.381 554.868 1.54658e-16)
(-1.1898 482.536 0)
(-6.3023 524.521 1.80563e-21)
(-4.70124 553.916 -6.44037e-19)
(-2.02691 571.635 -3.17857e-19)
(-1.10658 580.619 -7.8383e-20)
(-1.6733 583.877 7.9548e-20)
(-2.47832 584.034 0)
(-2.23197 583.378 0)
(-0.795085 583.501 9.2949e-19)
(0.53303 583.608 -2.53253e-18)
(0.636013 584.08 3.1548e-18)
(-0.606807 583.078 0)
(-2.16626 578.671 -2.59018e-18)
(-2.46017 567.994 2.52642e-18)
(-1.47432 548.75 6.49524e-19)
(2.88396 518.013 6.65872e-19)
(3.33102 478.162 0)
(-1.095 438.691 0)
(-48.9466 658.832 0)
(-162.004 587.857 1.5888e-16)
(-186.209 596.463 0)
(-207.615 601.371 -3.07336e-16)
(-217.584 600.655 1.49264e-16)
(-216.208 601.213 2.70547e-16)
(-24.228 430.669 -4.56669e-17)
(-44.288 552.756 1.78211e-16)
(-193.831 604.595 4.86367e-18)
(-181.111 611.067 -4.02387e-17)
(-166.379 616.253 1.7571e-17)
(-149.113 620.589 -1.99418e-17)
(-126.498 624.363 -8.68119e-18)
(-100.124 625.551 1.27425e-17)
(-72.216 622.158 2.37908e-18)
(-44.2671 612.928 -1.28851e-17)
(-18.7611 604.731 7.58606e-18)
(3.77495 601.844 0)
(18.9832 602.375 -6.38279e-18)
(27.8644 602.271 3.78337e-18)
(35.2786 602.64 6.30322e-18)
(41.3766 604.107 1.19714e-18)
(46.5266 606.108 -5.08448e-18)
(50.5689 607.845 -2.52906e-18)
(55.0995 609.456 0)
(59.6732 610.716 0)
(64.2089 611.759 -6.17297e-19)
(68.4292 612.695 -3.08149e-19)
(72.1414 613.61 3.10144e-18)
(75.2686 614.478 5.72144e-19)
(77.8629 615.293 -2.20707e-18)
(79.9966 615.959 -6.64787e-21)
(81.7989 616.464 0)
(83.3243 616.692 0)
(84.6676 616.657 -2.46129e-18)
(85.7297 616.247 3.73853e-18)
(86.6995 615.445 -1.24962e-18)
(87.5177 613.412 -6.98386e-21)
(87.748 609.824 1.24526e-18)
(88.2031 605.171 1.244e-18)
(88.6584 600.399 7.4961e-18)
(89.2428 594.492 0)
(89.38 588.126 3.77237e-18)
(89.3085 579.091 -3.78082e-18)
(87.8485 568.437 2.59212e-18)
(85.6153 552.179 -2.50501e-18)
(78.4889 529.03 2.5594e-18)
(58.7641 484.975 0)
(30.9107 442.821 0)
(8.99016 442.102 -1.35559e-18)
(90.4459 628.2 3.73522e-16)
(136.758 660.783 -7.96758e-17)
(-103.433 559.805 -1.61492e-16)
(92.6214 598.721 3.57385e-16)
(69.8728 587.011 -9.86806e-18)
(49.9325 574.41 3.71976e-16)
(136.201 668.505 8.25684e-17)
(-49.5942 571.432 -3.94416e-16)
(15.849 569.575 0)
(-15.6679 568.723 0)
(-15.234 371.134 -3.30422e-17)
(164.551 567.436 -1.93437e-16)
(-25.0567 436.41 1.35977e-17)
(54.5824 677.076 -3.30936e-16)
(70.1465 584.345 -3.77225e-17)
(101.928 646.908 -2.3596e-16)
(3.54562 281.752 0)
(2.26141 302.403 -2.9855e-17)
(50.5677 577.692 0)
(30.7025 576.852 1.33188e-18)
(14.3569 578.18 2.42819e-18)
(2.66997 578.429 9.14477e-19)
(-7.02386 578.229 1.65779e-19)
(-15.9933 578.78 0)
(-23.4061 580.131 3.28774e-18)
(-29.5053 581.439 -3.29638e-18)
(-34.8766 582.781 1.27717e-18)
(-39.9438 583.893 -2.57004e-18)
(-44.6202 584.698 6.44351e-19)
(-49.0266 585.315 0)
(-53.0533 585.814 1.25886e-18)
(-56.6002 586.238 -6.44854e-19)
(-59.6683 586.611 6.3008e-19)
(-62.2741 586.906 -1.11605e-18)
(-64.5061 587.09 1.29275e-18)
(-66.443 587.114 -1.39714e-20)
(-68.1765 586.922 -6.82794e-19)
(-69.7517 586.425 3.14585e-19)
(-71.2564 585.636 -3.61133e-19)
(-72.6818 584.356 0)
(-74.2248 582.436 1.57835e-19)
(-75.8588 578.827 -7.90987e-20)
(-77.4756 573.154 -3.19846e-19)
(-79.0843 566.943 2.7835e-19)
(-80.905 559.85 3.99909e-20)
(-82.47 552.163 -1.63028e-19)
(-84.3971 542.531 0)
(-85.378 531.459 0)
(-87.265 515.232 -6.68852e-19)
(-87.2415 494.725 3.68334e-18)
(-85.892 465.56 -6.83729e-19)
(-69.6201 423.592 0)
(-37.1627 399.614 2.86417e-18)
(-7.83613 395.192 -5.48776e-20)
(-2.73431 324.081 1.53643e-16)
(-10.6631 445.78 1.36561e-18)
(-5.37807 486.828 0)
(0.647219 525.249 -3.11081e-19)
(4.83763 554.459 3.38638e-19)
(5.70017 570.892 7.8679e-19)
(3.42635 579.768 -6.43236e-19)
(0.951041 583.186 1.58422e-19)
(-1.02953 583.883 3.1611e-19)
(-1.51598 583.411 2.20711e-18)
(-1.08487 583.422 -3.15701e-18)
(-0.709984 583.625 -2.53501e-18)
(-1.24452 583.736 2.5227e-18)
(-3.62113 581.998 -3.18376e-19)
(-7.06669 577.431 6.3978e-19)
(-9.47851 567.457 -2.62504e-18)
(-9.67386 549.134 -7.59287e-19)
(-2.22094 521.478 2.59606e-18)
(9.6468 485.116 0)
(18.3775 444 1.35135e-18)
(18.8503 398.217 -6.88983e-19)
(110.075 635.563 1.91459e-16)
(141.477 646.807 -7.58768e-17)
(116.789 609.331 -1.86435e-16)
(-30.8565 280.613 0)
(-20.3401 269.123 0)
(-6.32007 260.687 -5.34628e-17)
(5.80793 260.927 -1.40487e-17)
(18.9728 265.632 -1.68368e-17)
(14.0592 286.468 -4.09938e-17)
(10.8573 307.653 5.80814e-17)
(5.94214 327.497 3.14558e-17)
(71.6488 500.422 0)
(-4.31232 345.503 -3.20738e-17)
(190.911 577.901 -5.57269e-18)
(205.934 552.318 1.60279e-16)
(178.776 562.219 -1.66988e-16)
(113.412 594.09 -1.81314e-16)
(89.4473 581.547 0)
(66.6826 567.913 0)
(139.791 664.26 1.77518e-16)
(115.933 622.82 3.60983e-16)
(-28.9584 331.208 -4.13397e-17)
(-175.476 584.207 1.42798e-16)
(-204.486 589.773 -1.61903e-16)
(-223.407 590.014 0)
(-228.857 585.484 -3.22672e-16)
(-227.887 580.878 1.62507e-16)
(-215.463 584.256 -2.15195e-16)
(-179.526 488.18 -1.50658e-16)
(-183.664 569.333 4.31811e-17)
(-168.099 579.672 -4.76979e-17)
(-148.551 587.002 2.121e-17)
(-127.218 591.629 -2.06224e-17)
(-105.245 591.323 0)
(-81.8099 587.25 -1.17447e-18)
(-59.391 584.729 -1.64701e-18)
(-37.7362 584.797 7.52735e-18)
(-20.0292 585.994 2.40488e-18)
(-7.77565 586.228 -1.27742e-17)
(0.42024 585.914 5.1552e-18)
(8.6572 585.877 6.37054e-18)
(16.058 586.39 -5.16481e-18)
(22.6138 587.016 3.19824e-18)
(28.3708 587.784 -3.23532e-18)
(34.1186 588.65 -1.27654e-18)
(39.4905 589.388 3.83862e-18)
(44.6062 590.04 6.47505e-19)
(49.2989 590.648 2.52446e-18)
(53.4558 591.22 -2.57553e-18)
(57.047 591.741 0)
(60.1239 592.212 -6.35463e-19)
(62.7444 592.547 -3.14227e-19)
(65.012 592.761 -3.14748e-18)
(66.9951 592.748 2.88342e-18)
(68.7759 592.527 -3.1993e-19)
(70.4043 591.977 2.51099e-18)
(71.9246 591.164 -4.7546e-18)
(73.3802 589.894 2.55988e-18)
(74.8377 588.163 1.2572e-18)
(76.4699 585.139 6.39484e-19)
(77.9789 580.289 -1.25773e-18)
(79.6751 574.116 3.82294e-18)
(81.3086 567.61 -3.81448e-18)
(83.1783 559.889 -1.29629e-18)
(84.6449 551.614 -3.8666e-18)
(86.671 540.401 5.16676e-18)
(87.2185 527.843 -3.87434e-18)
(89.6357 506.425 2.69311e-18)
(86.8614 485.361 -5.23599e-18)
(81.4945 442.233 0)
(47.3622 407.613 2.77053e-18)
(17.121 397.196 -1.34014e-18)
(-11.2002 399.015 -1.37681e-18)
(142.398 573.173 -4.1557e-16)
(168.633 583.958 1.99878e-16)
(195.374 590.359 -1.88475e-16)
(18.1556 437.495 9.01253e-17)
(216.647 579.816 -2.04987e-16)
(145.534 658.692 0)
(-3.06634 402.523 -5.22643e-17)
(227.919 582.094 -2.04357e-16)
(-4.9871 369.615 1.48093e-16)
(-0.00767649 557.564 5.67264e-16)
(-30.6223 559.568 -3.82112e-16)
(32.7355 561.216 -1.8e-16)
(148.18 587.839 0)
(108.647 577.834 -1.98603e-16)
(131.483 590.81 1.76726e-16)
(1.16708 323.14 -9.11846e-17)
(124.532 575.545 -2.058e-16)