/*--------------------------------*- C++ -*----------------------------------*\
| =========                 |                                                 |
| \\      /  F ield         | OpenFOAM: The Open Source CFD Toolbox           |
|  \\    /   O peration     | Version:  2212                                  |
|   \\  /    A nd           | Website:  www.openfoam.com                      |
|    \\/     M anipulation  |                                                 |
\*---------------------------------------------------------------------------*/
FoamFile
{
    version     2.0;
    format      ascii;
    arch        "LSB;label=32;scalar=64";
    class       surfaceScalarField;
    location    "8.1e-05";
    object      phi;
}
// * * * * * * * * * * * * * * * * * * * * * * * * * * * * * * * * * * * * * //

dimensions      [1 0 -1 0 0 0 0];

oriented        oriented;

internalField   nonuniform List<scalar> 
20680
(
-8.7702e-10
-6.4611e-08
1.87565e-10
-2.0047e-09
-1.13176e-07
-3.50686e-09
-1.5831e-07
-4.42349e-09
-2.06021e-07
-7.13409e-09
-2.39435e-07
-9.45601e-09
-2.72549e-07
-1.16989e-08
-2.9612e-07
-1.34241e-08
-3.26122e-07
-1.33515e-08
-3.39288e-07
-1.11629e-08
-3.27589e-07
-8.21404e-09
-2.65123e-07
-5.60385e-09
-2.00904e-07
-3.88782e-09
-1.77668e-07
-4.05877e-09
-1.82326e-07
-1.07041e-09
-2.15261e-07
1.15323e-09
-1.79728e-07
-7.62398e-10
-1.646e-07
-8.43407e-10
-1.66346e-07
-5.67281e-10
-1.83881e-07
1.90404e-09
-1.80838e-07
6.22499e-09
-1.90032e-07
8.86087e-09
-1.80449e-07
1.16481e-08
-1.48916e-07
8.24661e-09
-1.09677e-07
-6.70581e-08
-7.16126e-10
-6.4484e-08
1.67407e-10
-1.40278e-09
-1.12391e-07
-2.60986e-09
-1.56905e-07
-3.60347e-09
-2.03731e-07
-5.21715e-09
-2.38264e-07
-7.07133e-09
-2.69255e-07
-9.1054e-09
-2.92495e-07
-1.05864e-08
-3.24702e-07
-1.07428e-08
-3.41376e-07
-8.99824e-09
-3.32401e-07
-6.73105e-09
-2.6903e-07
-4.79001e-09
-2.036e-07
-3.32034e-09
-1.78859e-07
-3.11716e-09
-1.79957e-07
-1.90618e-09
-2.16621e-07
3.90505e-10
-1.85064e-07
1.08298e-10
-1.62187e-07
3.55853e-10
-1.65205e-07
-4.71299e-10
-1.81772e-07
3.28095e-11
-1.80308e-07
1.81672e-09
-1.86926e-07
4.20904e-09
-1.79323e-07
6.01793e-09
-1.46131e-07
5.50018e-09
-1.04141e-07
-5.69226e-08
-7.76595e-10
-6.42387e-08
1.9656e-10
-1.44683e-09
-1.11117e-07
-2.6927e-09
-1.55422e-07
-3.81264e-09
-2.00701e-07
-5.51901e-09
-2.36761e-07
-7.57118e-09
-2.66593e-07
-9.82247e-09
-2.90038e-07
-1.14698e-08
-3.2239e-07
-1.17842e-08
-3.42488e-07
-9.74122e-09
-3.35097e-07
-7.4615e-09
-2.72988e-07
-5.53595e-09
-2.06964e-07
-4.19549e-09
-1.80489e-07
-3.52339e-09
-1.78616e-07
-3.0828e-09
-2.15387e-07
-1.18976e-09
-1.88351e-07
-7.26551e-10
-1.60933e-07
-5.18583e-10
-1.64557e-07
-1.75547e-09
-1.77658e-07
-1.86197e-09
-1.77591e-07
-1.30042e-09
-1.83007e-07
-7.09472e-11
-1.76032e-07
1.18447e-09
-1.43516e-07
1.09834e-09
-1.0061e-07
-5.08845e-08
-8.80089e-10
-6.35868e-08
2.36486e-10
-1.59275e-09
-1.09543e-07
-2.97573e-09
-1.53661e-07
-4.23986e-09
-1.97345e-07
-6.0968e-09
-2.34684e-07
-8.42522e-09
-2.63072e-07
-1.09676e-08
-2.87844e-07
-1.28012e-08
-3.1973e-07
-1.32296e-08
-3.43133e-07
-1.09409e-08
-3.36801e-07
-8.4337e-09
-2.76618e-07
-6.33392e-09
-2.10536e-07
-5.04884e-09
-1.82422e-07
-4.46125e-09
-1.78218e-07
-3.91113e-09
-2.13619e-07
-2.74788e-09
-1.89258e-07
-1.95381e-09
-1.61587e-07
-1.88687e-09
-1.63361e-07
-2.62507e-09
-1.74277e-07
-2.8894e-09
-1.70309e-07
-2.69363e-09
-1.77834e-07
-1.348e-09
-1.72485e-07
-1.66295e-10
-1.40614e-07
9.91614e-10
-9.88832e-08
-4.58045e-08
-9.47884e-10
-6.26925e-08
2.64322e-10
-1.68527e-09
-1.07622e-07
-3.14903e-09
-1.51752e-07
-4.54883e-09
-1.94031e-07
-6.61747e-09
-2.32349e-07
-9.13535e-09
-2.58873e-07
-1.19211e-08
-2.83763e-07
-1.40325e-08
-3.16521e-07
-1.4738e-08
-3.42745e-07
-1.23318e-08
-3.38369e-07
-9.56112e-09
-2.80327e-07
-7.15292e-09
-2.1411e-07
-5.77486e-09
-1.83984e-07
-4.48685e-09
-1.78011e-07
-2.80555e-09
-2.12413e-07
-2.903e-09
-1.88287e-07
-2.32537e-09
-1.61637e-07
-2.63397e-09
-1.61746e-07
-2.98858e-09
-1.71948e-07
-3.06203e-09
-1.68871e-07
-3.49532e-09
-1.72152e-07
-2.09826e-09
-1.66837e-07
-1.32895e-09
-1.33822e-07
-8.27202e-10
-9.6626e-08
-4.35048e-08
-9.54145e-10
-6.15216e-08
2.73549e-10
-1.70333e-09
-1.05705e-07
-3.12445e-09
-1.49812e-07
-4.66036e-09
-1.91543e-07
-6.82466e-09
-2.29885e-07
-9.47023e-09
-2.5516e-07
-1.24735e-08
-2.80584e-07
-1.45895e-08
-3.13412e-07
-1.54072e-08
-3.38567e-07
-1.3142e-08
-3.36424e-07
-1.00101e-08
-2.85925e-07
-7.50489e-09
-2.17941e-07
-5.99216e-09
-1.85552e-07
-4.8039e-09
-1.7702e-07
-2.01923e-09
-2.09956e-07
-2.92376e-09
-1.8698e-07
-2.28693e-09
-1.61973e-07
-2.87448e-09
-1.60227e-07
-3.05816e-09
-1.69675e-07
-2.77381e-09
-1.67531e-07
-3.12771e-09
-1.67558e-07
-1.97323e-09
-1.63617e-07
-1.09548e-09
-1.33578e-07
-7.52087e-10
-9.4667e-08
-4.16188e-08
-9.19326e-10
-5.99485e-08
2.57746e-10
-1.70274e-09
-1.0413e-07
-3.02416e-09
-1.47869e-07
-4.60828e-09
-1.892e-07
-6.71908e-09
-2.26603e-07
-9.32345e-09
-2.50585e-07
-1.23154e-08
-2.75834e-07
-1.44123e-08
-3.10642e-07
-1.5324e-08
-3.31785e-07
-1.36144e-08
-3.38643e-07
-1.04852e-08
-2.93081e-07
-7.63155e-09
-2.21922e-07
-6.72947e-09
-1.85753e-07
-4.59912e-09
-1.77308e-07
-1.27393e-09
-2.09736e-07
-2.8613e-09
-1.85486e-07
-2.24929e-09
-1.62978e-07
-2.97888e-09
-1.58373e-07
-3.1611e-09
-1.67511e-07
-2.44327e-09
-1.65258e-07
-2.38151e-09
-1.64273e-07
-1.8761e-09
-1.60273e-07
-1.44105e-09
-1.32285e-07
-9.96773e-10
-9.28979e-08
-4.03043e-08
-9.22528e-10
-5.91451e-08
2.44925e-10
-1.71776e-09
-1.02779e-07
-2.999e-09
-1.45901e-07
-4.6349e-09
-1.86918e-07
-6.73508e-09
-2.23157e-07
-9.2752e-09
-2.46867e-07
-1.23399e-08
-2.71638e-07
-1.44812e-08
-3.07442e-07
-1.565e-08
-3.31166e-07
-1.42099e-08
-3.42743e-07
-1.08216e-08
-2.98916e-07
-7.86662e-09
-2.24843e-07
-6.73555e-09
-1.86639e-07
-5.03291e-09
-1.76945e-07
-1.29572e-09
-2.13968e-07
-2.49605e-09
-1.84566e-07
-2.24501e-09
-1.71003e-07
-2.91471e-09
-1.56747e-07
-3.14265e-09
-1.65165e-07
-2.35326e-09
-1.61955e-07
-1.95527e-09
-1.61567e-07
-1.77014e-09
-1.57097e-07
-1.38259e-09
-1.32238e-07
-8.90931e-10
-9.16905e-08
-3.92687e-08
-8.97563e-10
-5.83476e-08
2.29623e-10
-1.7168e-09
-1.01109e-07
-2.94642e-09
-1.43616e-07
-4.60916e-09
-1.84366e-07
-6.67056e-09
-2.18936e-07
-9.49978e-09
-2.43116e-07
-1.22484e-08
-2.68389e-07
-1.44795e-08
-3.03519e-07
-1.5859e-08
-3.30685e-07
-1.49909e-08
-3.4388e-07
-1.11548e-08
-3.01058e-07
-7.66382e-09
-2.3142e-07
-6.94765e-09
-1.86943e-07
-5.41404e-09
-1.76328e-07
-1.33651e-09
-2.13574e-07
-1.7046e-09
-1.84461e-07
-1.83248e-09
-1.71694e-07
-2.5047e-09
-1.55148e-07
-2.88194e-09
-1.63376e-07
-2.09767e-09
-1.60188e-07
-1.58563e-09
-1.59207e-07
-1.54246e-09
-1.54079e-07
-1.38127e-09
-1.29881e-07
-9.91995e-10
-9.08403e-08
-3.85385e-08
-7.361e-10
-5.76465e-08
1.90052e-10
-1.60648e-09
-9.85243e-08
-2.73625e-09
-1.39529e-07
-4.27313e-09
-1.81685e-07
-6.14718e-09
-2.15636e-07
-8.5329e-09
-2.3963e-07
-1.11833e-08
-2.64898e-07
-1.32897e-08
-2.99872e-07
-1.47907e-08
-3.30716e-07
-1.40597e-08
-3.51264e-07
-1.06169e-08
-3.06155e-07
-7.01112e-09
-2.37157e-07
-5.89125e-09
-1.87508e-07
-4.75106e-09
-1.7593e-07
-1.52824e-09
-2.08393e-07
-5.53896e-10
-1.85754e-07
-1.33359e-09
-1.68134e-07
-1.77707e-09
-1.54665e-07
-2.1529e-09
-1.61743e-07
-1.4742e-09
-1.58932e-07
-1.2106e-09
-1.56923e-07
-8.95374e-10
-1.51733e-07
-9.13031e-10
-1.26288e-07
-8.51197e-10
-8.93391e-08
-3.80943e-08
-6.44761e-10
-5.70255e-08
1.57696e-10
-1.4674e-09
-9.71775e-08
-2.65052e-09
-1.37979e-07
-4.06287e-09
-1.78871e-07
-5.80108e-09
-2.11761e-07
-8.21979e-09
-2.3635e-07
-1.04387e-08
-2.61488e-07
-1.25435e-08
-2.9642e-07
-1.41831e-08
-3.30158e-07
-1.38122e-08
-3.52427e-07
-1.05058e-08
-3.19252e-07
-6.5971e-09
-2.43296e-07
-5.57996e-09
-1.88036e-07
-4.91131e-09
-1.75442e-07
-2.04312e-09
-2.02838e-07
-2.1853e-10
-1.89218e-07
-1.15796e-09
-1.66299e-07
-1.37296e-09
-1.58289e-07
-1.80608e-09
-1.60426e-07
-1.22881e-09
-1.57526e-07
-1.03788e-09
-1.54898e-07
-7.14308e-10
-1.49523e-07
-6.8229e-10
-1.25375e-07
-7.56912e-10
-8.80123e-08
-3.78708e-08
-6.0854e-10
-5.64483e-08
1.48891e-10
-1.49427e-09
-9.62923e-08
-2.77735e-09
-1.36594e-07
-4.19389e-09
-1.75996e-07
-5.94646e-09
-2.07708e-07
-8.19693e-09
-2.33087e-07
-1.05089e-08
-2.57651e-07
-1.27188e-08
-2.92593e-07
-1.44474e-08
-3.28743e-07
-1.43228e-08
-3.51962e-07
-1.0955e-08
-3.2383e-07
-6.80715e-09
-2.47959e-07
-5.67811e-09
-1.8853e-07
-5.01602e-09
-1.74556e-07
-3.06845e-09
-1.97806e-07
-2.96341e-10
-1.93452e-07
-1.20263e-09
-1.6523e-07
-1.06018e-09
-1.66535e-07
-1.48661e-09
-1.59385e-07
-1.19057e-09
-1.56116e-07
-1.10131e-09
-1.5307e-07
-7.75477e-10
-1.4738e-07
-6.04633e-10
-1.234e-07
-7.06109e-10
-8.6796e-08
-3.76227e-08
-6.66216e-10
-5.58728e-08
1.62679e-10
-1.71797e-09
-9.54134e-08
-3.14856e-09
-1.35147e-07
-4.80494e-09
-1.72547e-07
-6.91707e-09
-2.03791e-07
-9.35488e-09
-2.28911e-07
-1.19137e-08
-2.53547e-07
-1.44478e-08
-2.87781e-07
-1.65589e-08
-3.26517e-07
-1.67153e-08
-3.51617e-07
-1.31271e-08
-3.25524e-07
-8.15751e-09
-2.56426e-07
-6.88848e-09
-1.89459e-07
-6.10783e-09
-1.73249e-07
-4.6292e-09
-1.92338e-07
-5.25238e-10
-1.97663e-07
-1.31109e-09
-1.628e-07
-1.0148e-09
-1.63673e-07
-1.41003e-09
-1.58748e-07
-1.54065e-09
-1.54719e-07
-1.54113e-09
-1.51264e-07
-1.08096e-09
-1.45498e-07
-6.44611e-10
-1.21921e-07
-7.18884e-10
-8.56828e-08
-3.73456e-08
-6.91592e-10
-5.53045e-08
1.6677e-10
-1.85976e-09
-9.45113e-08
-3.43182e-09
-1.33618e-07
-5.38858e-09
-1.68365e-07
-7.66329e-09
-1.9907e-07
-1.03058e-08
-2.23577e-07
-1.29575e-08
-2.4866e-07
-1.58487e-08
-2.84616e-07
-1.78381e-08
-3.23215e-07
-1.87521e-08
-3.50919e-07
-1.54002e-08
-3.29828e-07
-9.5296e-09
-2.63637e-07
-7.67296e-09
-1.91671e-07
-6.55847e-09
-1.72474e-07
-5.47206e-09
-1.87394e-07
-2.04749e-10
-1.99967e-07
-3.14661e-10
-1.60783e-07
-6.05902e-10
-1.61305e-07
-8.24395e-10
-1.65048e-07
-1.41557e-09
-1.53311e-07
-1.64638e-09
-1.49877e-07
-1.18827e-09
-1.44008e-07
-7.08863e-10
-1.20212e-07
-6.99814e-10
-8.45763e-08
-3.7036e-08
-6.88514e-10
-5.47524e-08
1.62413e-10
-1.87374e-09
-9.36018e-08
-3.49224e-09
-1.31721e-07
-5.57217e-09
-1.62657e-07
-8.04015e-09
-1.93114e-07
-1.0689e-08
-2.17815e-07
-1.34236e-08
-2.43113e-07
-1.65782e-08
-2.8152e-07
-1.83679e-08
-3.19985e-07
-2.01269e-08
-3.50511e-07
-1.71613e-08
-3.33355e-07
-1.09474e-08
-2.70263e-07
-7.65272e-09
-1.98052e-07
-6.76128e-09
-1.71854e-07
-5.75307e-09
-1.83721e-07
-2.03518e-11
-2.00586e-07
7.61381e-10
-1.59842e-07
9.63291e-11
-1.57957e-07
7.1897e-11
-1.62426e-07
-9.92588e-10
-1.52003e-07
-1.4824e-09
-1.497e-07
-1.13103e-09
-1.42951e-07
-6.39966e-10
-1.18523e-07
-5.42454e-10
-8.37661e-08
-3.6665e-08
-7.10025e-10
-5.41291e-08
1.62815e-10
-1.84542e-09
-9.24978e-08
-3.31246e-09
-1.29194e-07
-5.8218e-09
-1.53643e-07
-8.30411e-09
-1.85738e-07
-1.02854e-08
-2.13695e-07
-1.39342e-08
-2.3337e-07
-1.70679e-08
-2.77849e-07
-1.91253e-08
-3.16433e-07
-2.12582e-08
-3.46982e-07
-1.88935e-08
-3.36325e-07
-1.31321e-08
-2.77619e-07
-7.73612e-09
-2.03861e-07
-6.72845e-09
-1.71573e-07
-6.37582e-09
-1.78185e-07
-5.2014e-10
-2.00092e-07
1.42164e-09
-1.60393e-07
1.01086e-09
-1.54966e-07
9.19727e-10
-1.58617e-07
-5.38953e-10
-1.50602e-07
-1.00705e-09
-1.5194e-07
-9.98607e-10
-1.42438e-07
-5.99932e-10
-1.17364e-07
-3.86463e-10
-8.35024e-08
-3.64449e-08
-7.05303e-10
-5.29749e-08
1.61604e-10
-1.82988e-09
-9.11061e-08
-3.00022e-09
-1.26196e-07
-5.84017e-09
-1.51088e-07
-8.58221e-09
-1.82279e-07
-1.04637e-08
-2.06043e-07
-1.44706e-08
-2.30015e-07
-1.73472e-08
-2.73577e-07
-1.96037e-08
-3.1304e-07
-2.2457e-08
-3.43776e-07
-2.03029e-08
-3.40591e-07
-1.45837e-08
-2.85301e-07
-8.80072e-09
-2.07937e-07
-6.93932e-09
-1.7266e-07
-6.60933e-09
-1.73115e-07
-1.36514e-09
-1.99333e-07
1.73764e-09
-1.62387e-07
1.68931e-09
-1.52525e-07
1.44848e-09
-1.5591e-07
8.17944e-11
-1.49183e-07
-3.23347e-10
-1.50065e-07
-6.8296e-10
-1.42319e-07
-5.09213e-10
-1.16684e-07
-2.58504e-10
-8.35094e-08
-3.64815e-08
-7.11035e-10
-5.21487e-08
1.60274e-10
-1.79713e-09
-8.96313e-08
-3.03148e-09
-1.22915e-07
-5.62254e-09
-1.49071e-07
-8.22058e-09
-1.78825e-07
-1.07286e-08
-1.98762e-07
-1.46457e-08
-2.27224e-07
-1.74039e-08
-2.68644e-07
-1.99061e-08
-3.09548e-07
-2.30759e-08
-3.41087e-07
-2.13526e-08
-3.43558e-07
-1.59301e-08
-2.94158e-07
-1.02428e-08
-2.16437e-07
-7.20821e-09
-1.75883e-07
-6.19921e-09
-1.70813e-07
-2.09462e-09
-1.99213e-07
1.68042e-09
-1.66262e-07
1.94017e-09
-1.50632e-07
1.6754e-09
-1.53695e-07
2.79584e-10
-1.48037e-07
1.35326e-10
-1.50058e-07
-3.17169e-10
-1.42886e-07
-4.30404e-10
-1.16452e-07
-2.10003e-10
-8.36586e-08
-3.67433e-08
-7.26839e-10
-5.15038e-08
1.59732e-10
-1.72179e-09
-8.80166e-08
-3.18817e-09
-1.19553e-07
-5.71299e-09
-1.47054e-07
-8.06717e-09
-1.75296e-07
-1.12644e-08
-1.9694e-07
-1.47131e-08
-2.2461e-07
-1.75938e-08
-2.638e-07
-2.04119e-08
-3.05157e-07
-2.33631e-08
-3.38245e-07
-2.31767e-08
-3.44679e-07
-1.78228e-08
-3.06493e-07
-1.1975e-08
-2.27064e-07
-8.00997e-09
-1.8087e-07
-5.97592e-09
-1.70249e-07
-2.42359e-09
-1.97879e-07
1.00691e-09
-1.71098e-07
1.48273e-09
-1.49274e-07
1.54112e-09
-1.52058e-07
1.82398e-10
-1.47151e-07
3.67025e-10
-1.5049e-07
-1.66026e-11
-1.45795e-07
-3.98055e-10
-1.16765e-07
-2.38373e-10
-8.39643e-08
-3.72708e-08
-7.30233e-10
-5.08223e-08
1.66272e-10
-1.64605e-09
-8.58478e-08
-3.36355e-09
-1.16568e-07
-5.8847e-09
-1.44285e-07
-8.11581e-09
-1.71414e-07
-1.17958e-08
-1.94644e-07
-1.47765e-08
-2.21771e-07
-1.79855e-08
-2.59196e-07
-2.10799e-08
-3.00509e-07
-2.36573e-08
-3.35378e-07
-2.47691e-08
-3.43461e-07
-1.92382e-08
-3.1346e-07
-1.33106e-08
-2.34011e-07
-8.87935e-09
-1.8682e-07
-6.47555e-09
-1.69132e-07
-2.6665e-09
-1.94016e-07
-2.65143e-10
-1.74866e-07
6.84288e-10
-1.48683e-07
8.49088e-10
-1.51214e-07
-2.49323e-10
-1.46578e-07
1.38692e-10
-1.48189e-07
2.07497e-10
-1.4405e-07
-3.79914e-10
-1.18363e-07
-3.76296e-10
-8.48506e-08
-3.79168e-08
-7.23765e-10
-5.00234e-08
1.759e-10
-1.55719e-09
-8.32289e-08
-3.41494e-09
-1.14e-07
-5.64751e-09
-1.41246e-07
-8.20281e-09
-1.67511e-07
-1.2109e-08
-1.91572e-07
-1.48643e-08
-2.18411e-07
-1.79172e-08
-2.54501e-07
-2.12767e-08
-2.96232e-07
-2.35953e-08
-3.31235e-07
-2.49859e-08
-3.36225e-07
-2.0929e-08
-3.17764e-07
-1.43816e-08
-2.42617e-07
-1.06105e-08
-1.89273e-07
-7.65958e-09
-1.72296e-07
-3.37424e-09
-1.91062e-07
-1.6746e-09
-1.75904e-07
-4.00631e-10
-1.49867e-07
-6.92443e-11
-1.50933e-07
-6.75768e-10
-1.46976e-07
-2.03554e-10
-1.46689e-07
1.18641e-10
-1.43196e-07
-3.08463e-10
-1.25015e-07
-3.73192e-10
-8.9256e-08
-3.84443e-08
-7.06544e-10
-4.91824e-08
1.76975e-10
-1.60641e-09
-7.9239e-08
-3.52123e-09
-1.115e-07
-5.53769e-09
-1.38161e-07
-8.24229e-09
-1.64142e-07
-1.22238e-08
-1.8826e-07
-1.49208e-08
-2.14549e-07
-1.78858e-08
-2.50399e-07
-2.12349e-08
-2.92148e-07
-2.29508e-08
-3.19589e-07
-2.55254e-08
-3.35419e-07
-2.20751e-08
-3.20999e-07
-1.55592e-08
-2.51101e-07
-1.2761e-08
-1.90465e-07
-9.44396e-09
-1.72084e-07
-4.37684e-09
-1.89384e-07
-2.68005e-09
-1.76509e-07
-1.42664e-09
-1.53162e-07
-8.71685e-10
-1.51839e-07
-8.49886e-10
-1.51881e-07
-6.19328e-10
-1.45907e-07
-3.58601e-10
-1.42897e-07
-2.46324e-10
-1.23469e-07
-2.37618e-11
-8.91933e-08
-3.91214e-08
-5.9313e-10
-4.82671e-08
1.71344e-10
-1.70131e-09
-7.5904e-08
-3.56041e-09
-1.09059e-07
-5.50052e-09
-1.35282e-07
-8.23966e-09
-1.61292e-07
-1.21675e-08
-1.84469e-07
-1.49314e-08
-2.10444e-07
-1.80683e-08
-2.46224e-07
-2.08761e-08
-2.86932e-07
-2.28146e-08
-3.10243e-07
-2.58776e-08
-3.37604e-07
-2.22877e-08
-3.24126e-07
-1.59863e-08
-2.5939e-07
-1.31195e-08
-1.92921e-07
-1.1009e-08
-1.70881e-07
-5.75448e-09
-1.89687e-07
-3.26975e-09
-1.79239e-07
-1.98478e-09
-1.59596e-07
-1.17255e-09
-1.55142e-07
-6.98805e-10
-1.50752e-07
-8.67268e-10
-1.45671e-07
-8.03468e-10
-1.42567e-07
-1.55777e-10
-1.22527e-07
4.38169e-10
-8.90494e-08
-4.14215e-08
-5.54236e-10
-4.70436e-08
1.739e-10
-1.82487e-09
-7.42227e-08
-3.72423e-09
-1.06506e-07
-5.6129e-09
-1.31818e-07
-8.16875e-09
-1.58089e-07
-1.1886e-08
-1.80764e-07
-1.49121e-08
-2.0667e-07
-1.7687e-08
-2.41711e-07
-2.05788e-08
-2.81116e-07
-2.31162e-08
-3.10137e-07
-2.53628e-08
-3.42793e-07
-2.24032e-08
-3.26881e-07
-1.62675e-08
-2.68495e-07
-1.32801e-08
-1.96662e-07
-1.16829e-08
-1.70374e-07
-7.71416e-09
-1.81191e-07
-2.9896e-09
-1.81303e-07
-2.01007e-09
-1.58877e-07
-7.15481e-10
-1.56491e-07
-3.09027e-10
-1.51543e-07
-9.30098e-10
-1.45641e-07
-9.82771e-10
-1.42778e-07
-2.58995e-10
-1.21638e-07
1.61856e-10
-8.89308e-08
-4.20076e-08
-6.37132e-10
-4.51782e-08
1.90257e-10
-1.99879e-09
-7.26802e-08
-3.58017e-09
-1.03845e-07
-5.69282e-09
-1.2838e-07
-8.28052e-09
-1.5478e-07
-1.14138e-08
-1.77308e-07
-1.47864e-08
-2.02526e-07
-1.73726e-08
-2.36979e-07
-2.05684e-08
-2.76636e-07
-2.39294e-08
-3.08908e-07
-2.52825e-08
-3.41819e-07
-2.29925e-08
-3.28635e-07
-1.70595e-08
-2.76668e-07
-1.33723e-08
-2.01599e-07
-1.15927e-08
-1.70506e-07
-8.89216e-09
-1.70699e-07
-2.67009e-09
-1.81871e-07
-1.25705e-09
-1.58272e-07
-2.71496e-10
-1.5632e-07
-1.08128e-11
-1.48974e-07
-7.4901e-10
-1.44894e-07
-9.22349e-10
-1.40679e-07
-5.06468e-10
-1.20368e-07
-1.98346e-10
-8.8638e-08
-4.18517e-08
-7.8742e-10
-4.2065e-08
1.99911e-10
-2.13591e-09
-7.13146e-08
-3.58199e-09
-1.01165e-07
-5.74568e-09
-1.25016e-07
-8.18957e-09
-1.513e-07
-1.10143e-08
-1.7369e-07
-1.41154e-08
-1.98519e-07
-1.69365e-08
-2.32331e-07
-2.00541e-08
-2.70265e-07
-2.39679e-08
-3.06799e-07
-2.50482e-08
-3.38879e-07
-2.26264e-08
-3.30067e-07
-1.74383e-08
-2.81517e-07
-1.27661e-08
-2.0657e-07
-1.10874e-08
-1.70386e-07
-9.00221e-09
-1.65116e-07
-2.62139e-09
-1.78139e-07
-2.34021e-10
-1.59702e-07
-7.19965e-11
-1.54741e-07
-6.72607e-11
-1.46362e-07
-6.79928e-10
-1.43693e-07
-8.37561e-10
-1.38205e-07
-7.19457e-10
-1.1833e-07
-4.52478e-10
-8.73516e-08
-4.12036e-08
-9.03589e-10
-4.17158e-08
2.13655e-10
-2.19189e-09
-6.9948e-08
-3.44752e-09
-9.85133e-08
-5.46541e-09
-1.20989e-07
-7.79296e-09
-1.47956e-07
-1.04205e-08
-1.70579e-07
-1.3043e-08
-1.94291e-07
-1.59735e-08
-2.26462e-07
-1.87231e-08
-2.63242e-07
-2.30904e-08
-3.0491e-07
-2.39437e-08
-3.36204e-07
-2.17806e-08
-3.29471e-07
-1.72992e-08
-2.81914e-07
-1.25258e-08
-2.10613e-07
-1.08951e-08
-1.70424e-07
-8.81461e-09
-1.62631e-07
-2.39773e-09
-1.71463e-07
3.51187e-10
-1.59689e-07
9.58489e-11
-1.52348e-07
-1.92964e-10
-1.4344e-07
-6.04356e-10
-1.40638e-07
-6.6586e-10
-1.35733e-07
-7.27073e-10
-1.1602e-07
-5.88787e-10
-8.58123e-08
-4.02532e-08
-1.00192e-09
-4.13495e-08
2.30506e-10
-2.23484e-09
-6.89096e-08
-3.34979e-09
-9.61531e-08
-5.29571e-09
-1.18953e-07
-7.4651e-09
-1.44328e-07
-9.98573e-09
-1.67379e-07
-1.20471e-08
-1.9031e-07
-1.48195e-08
-2.22505e-07
-1.7558e-08
-2.60163e-07
-2.15812e-08
-3.07136e-07
-2.2658e-08
-3.32429e-07
-2.07096e-08
-3.19668e-07
-1.7098e-08
-2.87235e-07
-1.22784e-08
-2.16429e-07
-1.04067e-08
-1.70642e-07
-8.33052e-09
-1.57996e-07
-1.93984e-09
-1.66861e-07
4.77431e-10
-1.5883e-07
2.36564e-10
-1.50045e-07
-8.02949e-11
-1.4054e-07
-4.32835e-10
-1.38023e-07
-5.55042e-10
-1.3331e-07
-7.47755e-10
-1.13682e-07
-6.91602e-10
-8.4154e-08
-3.93387e-08
-1.09707e-09
-4.06457e-08
2.34602e-10
-2.07184e-09
-6.77998e-08
-3.42762e-09
-9.44119e-08
-5.23029e-09
-1.1719e-07
-7.44514e-09
-1.41462e-07
-9.34793e-09
-1.64054e-07
-1.14586e-08
-1.86459e-07
-1.40827e-08
-2.19233e-07
-1.72091e-08
-2.57593e-07
-2.13403e-08
-3.04194e-07
-2.12058e-08
-3.29019e-07
-2.00503e-08
-3.21942e-07
-1.69553e-08
-2.93947e-07
-1.21289e-08
-2.23045e-07
-9.49899e-09
-1.72165e-07
-7.55463e-09
-1.54494e-07
-1.8084e-09
-1.65629e-07
4.89025e-10
-1.57902e-07
3.78507e-10
-1.47948e-07
1.37421e-10
-1.37994e-07
-2.42904e-10
-1.35293e-07
-5.12442e-10
-1.30839e-07
-7.80235e-10
-1.11401e-07
-7.41339e-10
-8.24831e-08
-3.84535e-08
-1.19211e-09
-3.97638e-08
2.6793e-10
-2.11184e-09
-6.61431e-08
-3.58897e-09
-9.2447e-08
-5.37138e-09
-1.1533e-07
-7.4039e-09
-1.39533e-07
-9.20116e-09
-1.60727e-07
-1.1365e-08
-1.82311e-07
-1.39439e-08
-2.15612e-07
-1.77634e-08
-2.55043e-07
-2.07563e-08
-3.00622e-07
-2.10981e-08
-3.25594e-07
-2.04538e-08
-3.24652e-07
-1.74992e-08
-3.03159e-07
-1.26473e-08
-2.31347e-07
-9.72257e-09
-1.74344e-07
-7.75916e-09
-1.54036e-07
-2.39634e-09
-1.66608e-07
3.70452e-10
-1.57472e-07
3.81351e-10
-1.45986e-07
2.89658e-10
-1.35655e-07
-1.25117e-10
-1.32489e-07
-4.5502e-10
-1.2831e-07
-7.55587e-10
-1.09115e-07
-7.65839e-10
-8.07694e-08
-3.79703e-08
-1.25075e-09
-3.81165e-08
3.2435e-10
-2.23401e-09
-6.42147e-08
-3.91985e-09
-8.93009e-08
-5.72385e-09
-1.13158e-07
-7.67548e-09
-1.37387e-07
-9.38185e-09
-1.57348e-07
-1.17087e-08
-1.77512e-07
-1.44398e-08
-2.11771e-07
-1.874e-08
-2.52063e-07
-2.13513e-08
-2.96223e-07
-2.22791e-08
-3.22269e-07
-2.19566e-08
-3.2484e-07
-1.94095e-08
-3.08623e-07
-1.35216e-08
-2.40274e-07
-1.10138e-08
-1.76209e-07
-9.30914e-09
-1.53276e-07
-4.21794e-09
-1.64226e-07
-2.96741e-10
-1.57644e-07
-2.86712e-11
-1.44159e-07
1.40699e-10
-1.33529e-07
-2.48723e-10
-1.29661e-07
-6.11623e-10
-1.25949e-07
-8.99399e-10
-1.06764e-07
-9.42095e-10
-7.90751e-08
-3.762e-08
-1.32496e-09
-3.6809e-08
3.86514e-10
-2.2786e-09
-6.21869e-08
-4.23058e-09
-8.55589e-08
-5.98939e-09
-1.10133e-07
-7.84282e-09
-1.34753e-07
-9.57215e-09
-1.54101e-07
-1.1971e-08
-1.74541e-07
-1.46959e-08
-2.07248e-07
-1.90747e-08
-2.48726e-07
-2.18176e-08
-2.91307e-07
-2.31472e-08
-3.19167e-07
-2.32109e-08
-3.25466e-07
-2.09396e-08
-3.12363e-07
-1.45791e-08
-2.477e-07
-1.16717e-08
-1.80129e-07
-1.02153e-08
-1.5276e-07
-6.45343e-09
-1.55055e-07
-1.19281e-09
-1.59924e-07
-5.2507e-10
-1.42664e-07
-8.4131e-11
-1.32421e-07
-3.72869e-10
-1.26937e-07
-6.86001e-10
-1.23845e-07
-1.00202e-09
-1.04423e-07
-1.05339e-09
-7.74113e-08
-3.62536e-08
-1.28396e-09
-3.55967e-08
4.42069e-10
-2.27625e-09
-6.04571e-08
-4.35344e-09
-8.40525e-08
-6.15476e-09
-1.0741e-07
-7.86438e-09
-1.31866e-07
-9.54145e-09
-1.51167e-07
-1.18297e-08
-1.71595e-07
-1.45428e-08
-2.02931e-07
-1.91075e-08
-2.4496e-07
-2.1588e-08
-2.8665e-07
-2.33034e-08
-3.15624e-07
-2.37418e-08
-3.25499e-07
-2.24735e-08
-3.15271e-07
-1.55144e-08
-2.558e-07
-1.18464e-08
-1.84411e-07
-1.00335e-08
-1.53991e-07
-7.77975e-09
-1.47354e-07
-2.00469e-09
-1.5764e-07
-7.10522e-10
-1.42417e-07
-1.79561e-10
-1.30992e-07
-3.78987e-10
-1.24466e-07
-6.82753e-10
-1.20998e-07
-1.10055e-09
-1.02218e-07
-1.01305e-09
-7.58063e-08
-3.51723e-08
-1.26013e-09
-3.44575e-08
4.05286e-10
-2.28059e-09
-5.879e-08
-4.24022e-09
-8.28352e-08
-6.02438e-09
-1.05143e-07
-7.53641e-09
-1.29138e-07
-9.25274e-09
-1.48519e-07
-1.13471e-08
-1.68922e-07
-1.39513e-08
-1.99777e-07
-1.8293e-08
-2.40632e-07
-2.06022e-08
-2.82056e-07
-2.24219e-08
-3.12082e-07
-2.32247e-08
-3.24865e-07
-2.24548e-08
-3.16996e-07
-1.57347e-08
-2.61127e-07
-1.10892e-08
-1.88054e-07
-9.58993e-09
-1.53456e-07
-8.01319e-09
-1.44764e-07
-2.46292e-09
-1.53409e-07
-1.44327e-10
-1.4211e-07
-1.37313e-11
-1.29181e-07
-1.24319e-10
-1.22203e-07
-5.73712e-10
-1.18346e-07
-1.00921e-09
-1.00157e-07
-8.90748e-10
-7.60394e-08
-3.41508e-08
-1.12745e-09
-3.35647e-08
3.83947e-10
-2.39525e-09
-5.77071e-08
-4.03047e-09
-8.21183e-08
-5.67051e-09
-1.03719e-07
-7.26567e-09
-1.26699e-07
-8.97492e-09
-1.45969e-07
-1.09244e-08
-1.66362e-07
-1.34024e-08
-1.96635e-07
-1.71366e-08
-2.36027e-07
-1.97167e-08
-2.77229e-07
-2.19175e-08
-3.08078e-07
-2.27622e-08
-3.23637e-07
-2.17593e-08
-3.18687e-07
-1.60475e-08
-2.67111e-07
-1.12061e-08
-1.92344e-07
-9.7226e-09
-1.53206e-07
-8.05095e-09
-1.4226e-07
-2.37568e-09
-1.49349e-07
3.76741e-10
-1.42217e-07
1.17146e-10
-1.27036e-07
-1.29969e-11
-1.19934e-07
-5.80874e-10
-1.15788e-07
-1.03538e-09
-9.81237e-08
-7.85397e-10
-7.42129e-08
-3.32057e-08
-1.07442e-09
-3.26261e-08
3.48191e-10
-2.42381e-09
-5.62678e-08
-4.03753e-09
-8.15884e-08
-5.5144e-09
-1.04208e-07
-7.03771e-09
-1.24526e-07
-8.82566e-09
-1.42389e-07
-1.07336e-08
-1.63851e-07
-1.31103e-08
-1.9345e-07
-1.63361e-08
-2.31685e-07
-1.91648e-08
-2.72365e-07
-2.16581e-08
-3.04115e-07
-2.29778e-08
-3.21417e-07
-2.22918e-08
-3.20627e-07
-1.68896e-08
-2.74409e-07
-1.17118e-08
-1.98367e-07
-9.93097e-09
-1.5325e-07
-8.37804e-09
-1.37649e-07
-2.35747e-09
-1.48378e-07
4.50399e-10
-1.42174e-07
-8.93779e-11
-1.2474e-07
-2.29763e-10
-1.17788e-07
-7.44634e-10
-1.13269e-07
-1.08876e-09
-9.60314e-08
-7.86098e-10
-7.17756e-08
-3.23637e-08
-1.02055e-09
-3.17131e-08
2.87134e-10
-2.36939e-09
-5.47007e-08
-4.0431e-09
-7.99528e-08
-5.12068e-09
-1.01675e-07
-6.93101e-09
-1.22683e-07
-8.77789e-09
-1.38827e-07
-1.07105e-08
-1.61344e-07
-1.30576e-08
-1.90541e-07
-1.58833e-08
-2.27957e-07
-1.90686e-08
-2.66564e-07
-2.18751e-08
-3.00042e-07
-2.32263e-08
-3.19038e-07
-2.31642e-08
-3.20488e-07
-1.81949e-08
-2.80826e-07
-1.24587e-08
-2.05116e-07
-9.99107e-09
-1.54448e-07
-8.83688e-09
-1.34556e-07
-3.04815e-09
-1.50279e-07
2.00415e-12
-1.42053e-07
-4.282e-10
-1.22636e-07
-5.28556e-10
-1.15775e-07
-9.79358e-10
-1.10861e-07
-1.18443e-09
-9.39731e-08
-9.01252e-10
-6.98346e-08
-3.27124e-08
-9.56879e-10
-3.06362e-08
2.54692e-10
-2.34709e-09
-5.28601e-08
-3.69699e-09
-7.6679e-08
-5.14645e-09
-9.83766e-08
-6.84967e-09
-1.20409e-07
-8.72614e-09
-1.36887e-07
-1.06528e-08
-1.5845e-07
-1.29691e-08
-1.87623e-07
-1.56235e-08
-2.23563e-07
-1.89322e-08
-2.61449e-07
-2.19811e-08
-2.9552e-07
-2.37063e-08
-3.16027e-07
-2.36765e-08
-3.20376e-07
-1.92435e-08
-2.85191e-07
-1.33439e-08
-2.11707e-07
-1.08749e-08
-1.56214e-07
-9.52001e-09
-1.34645e-07
-4.54967e-09
-1.50436e-07
-9.12527e-10
-1.41891e-07
-7.78774e-10
-1.20885e-07
-7.42891e-10
-1.13952e-07
-1.15605e-09
-1.08795e-07
-1.26514e-09
-9.20341e-08
-1.11855e-09
-6.80765e-08
-3.14161e-08
-8.56363e-10
-2.94299e-08
2.28176e-10
-1.99361e-09
-5.0202e-08
-3.48461e-09
-7.37193e-08
-4.98112e-09
-9.58001e-08
-6.7004e-09
-1.1793e-07
-8.5423e-09
-1.35105e-07
-1.03986e-08
-1.55741e-07
-1.25934e-08
-1.84965e-07
-1.51137e-08
-2.19991e-07
-1.83602e-08
-2.5707e-07
-2.15374e-08
-2.90694e-07
-2.34815e-08
-3.13106e-07
-2.3612e-08
-3.20878e-07
-1.97326e-08
-2.88898e-07
-1.33757e-08
-2.1895e-07
-1.12086e-08
-1.57879e-07
-9.85713e-09
-1.32667e-07
-5.96098e-09
-1.45553e-07
-1.63939e-09
-1.43249e-07
-9.50728e-10
-1.19662e-07
-7.7922e-10
-1.12439e-07
-1.19969e-09
-1.06669e-07
-1.32533e-09
-9.05028e-08
-1.19402e-09
-6.65344e-08
-3.02465e-08
-7.9094e-10
-2.87017e-08
1.86926e-10
-1.81391e-09
-4.84666e-08
-3.35413e-09
-7.21533e-08
-4.87148e-09
-9.40639e-08
-6.56308e-09
-1.14988e-07
-8.44047e-09
-1.33264e-07
-1.02014e-08
-1.52995e-07
-1.2244e-08
-1.82283e-07
-1.46169e-08
-2.16691e-07
-1.76894e-08
-2.52343e-07
-2.08733e-08
-2.85425e-07
-2.29535e-08
-3.10244e-07
-2.3555e-08
-3.18373e-07
-2.04281e-08
-2.91461e-07
-1.36345e-08
-2.26872e-07
-1.10859e-08
-1.60121e-07
-9.65681e-09
-1.31884e-07
-7.21425e-09
-1.39245e-07
-2.09717e-09
-1.43076e-07
-9.71762e-10
-1.1904e-07
-7.20956e-10
-1.11449e-07
-1.14814e-09
-1.04157e-07
-1.30924e-09
-8.83525e-08
-1.14571e-09
-6.49746e-08
-2.94447e-08
-7.16285e-10
-2.80905e-08
1.58925e-10
-1.69599e-09
-4.74669e-08
-3.37248e-09
-7.0206e-08
-4.69366e-09
-9.20559e-08
-6.43057e-09
-1.11211e-07
-8.33184e-09
-1.3097e-07
-9.99749e-09
-1.50643e-07
-1.19862e-08
-1.79344e-07
-1.42802e-08
-2.13308e-07
-1.72496e-08
-2.47913e-07
-2.06248e-08
-2.79487e-07
-2.28865e-08
-3.07927e-07
-2.34497e-08
-3.18929e-07
-2.06675e-08
-2.95674e-07
-1.41376e-08
-2.32518e-07
-1.10539e-08
-1.62549e-07
-9.31567e-09
-1.3195e-07
-7.79586e-09
-1.34515e-07
-2.64908e-09
-1.40989e-07
-6.83444e-10
-1.18922e-07
-6.06415e-10
-1.10142e-07
-9.84202e-10
-1.01823e-07
-1.2663e-09
-8.62116e-08
-1.12153e-09
-6.31782e-08
-2.85764e-08
-6.64717e-10
-2.7392e-08
1.41426e-10
-1.58263e-09
-4.62959e-08
-3.10419e-09
-6.77339e-08
-4.49061e-09
-8.91358e-08
-6.40123e-09
-1.09065e-07
-8.36241e-09
-1.28591e-07
-1.00468e-08
-1.47881e-07
-1.20665e-08
-1.76269e-07
-1.43912e-08
-2.10089e-07
-1.72824e-08
-2.43761e-07
-2.07399e-08
-2.74846e-07
-2.33147e-08
-3.03931e-07
-2.41984e-08
-3.17107e-07
-2.1193e-08
-3.0022e-07
-1.50461e-08
-2.4068e-07
-1.1377e-08
-1.65595e-07
-9.8618e-09
-1.31508e-07
-8.54425e-09
-1.30901e-07
-3.19057e-09
-1.3806e-07
-5.67807e-10
-1.18996e-07
-6.88932e-10
-1.08481e-07
-1.01186e-09
-9.95943e-08
-1.31692e-09
-8.39483e-08
-1.16988e-09
-6.14062e-08
-2.76183e-08
-6.01841e-10
-2.6868e-08
1.27302e-10
-1.4776e-09
-4.50713e-08
-2.78765e-09
-6.54682e-08
-4.29302e-09
-8.68802e-08
-6.2746e-09
-1.06978e-07
-8.20252e-09
-1.26469e-07
-1.00353e-08
-1.45851e-07
-1.2096e-08
-1.73612e-07
-1.44594e-08
-2.0696e-07
-1.7376e-08
-2.39907e-07
-2.08916e-08
-2.70202e-07
-2.37009e-08
-2.99069e-07
-2.4875e-08
-3.15004e-07
-2.23665e-08
-3.02856e-07
-1.6189e-08
-2.49211e-07
-1.14227e-08
-1.7061e-07
-1.04168e-08
-1.31094e-07
-9.23498e-09
-1.26261e-07
-3.43368e-09
-1.36456e-07
-7.52625e-10
-1.19024e-07
-9.87553e-10
-1.06702e-07
-1.19288e-09
-9.74565e-08
-1.38538e-09
-8.1779e-08
-1.1895e-09
-5.97154e-08
-2.67515e-08
-5.51272e-10
-2.63538e-08
1.18465e-10
-1.38335e-09
-4.36343e-08
-2.64149e-09
-6.37501e-08
-4.13536e-09
-8.48255e-08
-6.08432e-09
-1.04854e-07
-8.01935e-09
-1.2411e-07
-9.93573e-09
-1.43597e-07
-1.2018e-08
-1.71114e-07
-1.43392e-08
-2.03961e-07
-1.71384e-08
-2.36354e-07
-2.05418e-08
-2.65359e-07
-2.35823e-08
-2.93141e-07
-2.51442e-08
-3.12384e-07
-2.29793e-08
-3.05435e-07
-1.7017e-08
-2.5833e-07
-1.18817e-08
-1.766e-07
-1.0411e-08
-1.31396e-07
-9.47216e-09
-1.22344e-07
-3.78173e-09
-1.37251e-07
-1.14282e-09
-1.18929e-07
-1.29653e-09
-1.05058e-07
-1.37656e-09
-9.5606e-08
-1.42439e-09
-7.97944e-08
-1.16909e-09
-5.812e-08
-2.59327e-08
-5.19701e-10
-2.56647e-08
1.2128e-10
-1.32651e-09
-4.27143e-08
-2.53413e-09
-6.23286e-08
-4.02673e-09
-8.22171e-08
-5.92939e-09
-1.02653e-07
-7.89757e-09
-1.21694e-07
-9.89149e-09
-1.4133e-07
-1.2003e-08
-1.68575e-07
-1.43032e-08
-2.01031e-07
-1.70121e-08
-2.3307e-07
-2.03326e-08
-2.61084e-07
-2.34584e-08
-2.88984e-07
-2.53251e-08
-3.09474e-07
-2.37605e-08
-3.06711e-07
-1.79152e-08
-2.66457e-07
-1.24411e-08
-1.82751e-07
-1.07221e-08
-1.32082e-07
-9.94746e-09
-1.20924e-07
-4.64773e-09
-1.38382e-07
-1.66807e-09
-1.18901e-07
-1.59749e-09
-1.03551e-07
-1.51028e-09
-9.41499e-08
-1.45616e-09
-7.8006e-08
-1.15869e-09
-5.66377e-08
-2.51329e-08
-4.90629e-10
-2.422e-08
1.25364e-10
-1.28342e-09
-4.2035e-08
-2.42925e-09
-6.11385e-08
-3.91594e-09
-7.96214e-08
-5.76981e-09
-1.00414e-07
-7.74564e-09
-1.19274e-07
-9.83855e-09