/*--------------------------------*- C++ -*----------------------------------*\
| =========                 |                                                 |
| \\      /  F ield         | OpenFOAM: The Open Source CFD Toolbox           |
|  \\    /   O peration     | Version:  2212                                  |
|   \\  /    A nd           | Website:  www.openfoam.com                      |
|    \\/     M anipulation  |                                                 |
\*---------------------------------------------------------------------------*/
FoamFile
{
    version     2.0;
    format      ascii;
    arch        "LSB;label=32;scalar=64";
    class       volScalarField;
    location    "0.0385";
    object      T;
}
// * * * * * * * * * * * * * * * * * * * * * * * * * * * * * * * * * * * * * //

dimensions      [0 0 0 1 0 0 0];

internalField   nonuniform List<scalar> 
2308
(
233.426
258.053
257.128
229.745
225.461
221.932
220.79
223.739
226.742
209.88
210.031
210.679
211.239
211.968
212.746
213.588
214.483
215.399
214.503
213.616
212.759
211.94
211.192
210.498
209.972
209.853
209.984
210.145
221.223
215.414
210.517
211.116
212.333
214.46
219.194
224.044
232.765
240.13
241.47
241.064
240.643
240.332
240.488
240.877
241.731
241.654
241.06
240.847
240.72
240.665
238.772
235.034
231.838
230.237
226.451
221.765
216.557
213.584
211.885
211.144
210.623
210.41
210.281
210.408
210.724
211.052
211.546
212.185
212.915
213.715
214.593
243.169
242.679
214.731
213.785
212.906
212.064
211.315
210.662
210.304
210.206
210.381
210.574
211.092
211.991
213.774
217.312
222.204
225.786
229.484
231.186
234.51
238.323
241.054
241.175
241.28
241.402
242.032
216.275
242.957
216.365
215.534
244.733
243.838
243.832
242.88
238.235
234.482
231.849
229.023
227.74
226.455
225.4
223.961
222.699
218.256
214.529
212.822
211.857
211.467
211.337
211.341
211.499
211.695
212.086
212.615
213.299
214.055
214.891
224.366
221.141
220.413
220.914
216.144
215.021
213.992
213.087
212.286
211.634
211.206
211.166
211.203
211.554
211.835
213.122
214.683
218.885
222.875
224
225.148
226.046
227.4
228.569
231.342
233.851
238.315
243.474
244.028
244.045
244.76
245.345
245.11
246.557
244.963
224.641
245.196
225.064
224.684
216.548
227.854
224.482
217.324
215.811
248.323
249.283
250.789
248.56
247.814
248.708
248.514
248.421
248.379
241.64
234.944
232.053
229.25
228.073
226.567
225.967
225.29
224.921
224.394
224.244
223.258
219.993
216.028
214.651
213.482
213.29
213.016
212.975
212.833
212.981
213.292
213.862
214.533
215.301
218.391
238.274
224.329
222.939
221.626
220.476
219.373
218.292
217.23
216.202
215.193
214.247
213.435
212.763
212.433
212.453
212.594
212.926
213.589
214.784
217.259
221.245
223.291
224.119
224.289
224.669
225.099
225.716
226.245
227.719
228.713
231.68
234.613
241.63
248.736
248.769
248.783
248.896
262.74
226.337
235.765
237.7
249.579
225.866
216.815
218.557
251.295
251.43
248.884
241.214
234.661
231.364
229.029
227.379
226.444
225.641
225.195
224.798
224.656
224.62
224.6
224.452
223.877
222.654
219.368
216.884
215.838
215.125
214.866
214.639
214.57
214.46
214.726
215.232
215.863
216.118
229.149
224.316
222.614
221.42
220.375
219.363
218.338
217.32
216.375
215.493
214.74
214.134
213.887
213.938
214.257
214.558
215.692
216.888
220.307
223.572
224.321
224.563
224.643
224.616
224.581
224.706
224.979
225.395
226.182
227.014
228.493
230.762
234.126
240.606
248.461
251.915
251.767
251.795
250.115
251.079
254.105
254.33
253.51
250.553
249.701
251.451
238.942
255.437
263.548
227.191
233.176
243.852
216.542
217.045
230.164
228.887
235.795
223.447
222.508
221.497
220.484
219.498
218.536
217.622
216.834
216.144
215.762
215.627
215.826
216.102
216.904
218.017
220.44
223.653
224.961
225.387
225.284
225.199
225.103
225.031
225.042
225.134
225.196
225.432
225.925
226.613
227.969
229.695
231.816
234.916
240.447
248.426
254.456
254.206
253.598
251.218
251.033
253.063
253.877
254.282
253.587
252.349
250.486
250.649
253.289
253.927
254.102
249.674
241.837
235.671
232.588
230.347
228.527
226.942
226.159
225.515
225.219
225.147
225.029
225.027
225.039
225.097
225.173
225.095
224.681
222.624
219.797
218.166
217.173
216.698
216.428
216.283
216.186
216.321
216.666
230.369
217.321
218.053
219.552
230.774
229.488
228.044
226.402
224.916
223.564
223.49
222.61
221.659
220.719
219.816
219.036
218.34
217.847
217.619
217.791
218.045
218.609
219.58
221.333
224.252
226.126
226.457
226.361
226.252
226.145
225.949
225.766
225.774
225.825
225.955
226.083
226.379
226.75
227.568
228.522
230.578
232.19
234.487
237.381
244.338
251.374
256.456
256.266
254.945
252.224
250.987
251.798
252.907
253.655
254.048
253.311
252.223
250.903
250.196
251.821
254.583
255.92
256.048
253.924
245.807
238.779
235.608
233.297
231.511
229.232
228.006
226.993
226.54
226.139
225.966
225.778
225.705
225.696
225.899
226.06
226.141
226.271
226.192
225.43
222.968
220.729
219.502
218.732
218.375
218.165
218.073
217.984
217.204
231.583
231.687
266.226
217.799
225.305
226.645
228.308
219.11
221.994
219.838
218.15
231.302
230.28
252.289
250.411
250.657
251.742
252.688
253.016
253.415
252.745
252.083
250.862
249.792
250.027
251.923
255.321
257.511
258.204
257.99
251.791
245.418
240.262
237.857
235.578
233.729
231.75
230.199
229.081
228.321
227.881
227.442
227.224
226.948
226.8
226.794
226.954
227.205
227.329
227.396
227.503
227.394
226.243
223.954
222.137
221.075
220.468
220.152
219.991
218.23
225.258
232.573
236.551
252.566
222.874
222.034
221.19
220.564
220.25
220.061
220.213
220.338
220.757
221.572
223.046
225.45
227.39
227.842
227.737
227.634
227.484
227.271
226.915
226.771
226.776
226.88
227.017
227.249
227.468
227.962
228.442
229.426
230.691
232.649
234.298
236.558
238.795
242.775
250.505
257.81
258.111
257.59
255.519
232.863
233.064
264.347
219.074
232.261
218.478
258.111
259.596
259.625
258.999
254.102
248.882
244.826
241.912
239.521
237.58
235.483
233.663
232.048
231.155
230.297
229.88
229.328
229.071
228.675
228.474
228.41
228.468
228.682
228.894
229.02
229.061
229.141
228.967
227.777
225.679
224.116
223.26
222.675
219.879
223.975
233.285
252.496
249.661
248.847
249.643
251.295
251.71
251.751
252.131
251.638
251.218
250.451
248.796
248.546
249.493
252.393
255.985
225.955
230.566
228.362
226.601
225.532
222.337
222.219
254.487
234.884
223.818
223.282
222.941
222.576
222.504
222.67
223.096
223.795
225.212
227.233
228.936
229.373
229.159
229.074
228.971
228.75
228.443
228.21
228.08
228.087
228.234
228.526
228.738
229.186
229.563
230.34
231.083
232.569
234.367
236.412
238.524
240.682
243.504
247.688
253.232
258.24
259.665
259.738
258.241
256.141
262.822
218.644
219.959
233.885
234.301
234.41
223.146
263.531
261.059
221.341
219.273
222.349
221.534
242.205
236.186
259.196
256.371
257.709
258.211
257.808
257.634
255.129
253.183
251.08
248.287
245.457
242.995
240.594
238.464
236.162
234.956
233.66
233.013
232.21
231.76
231.228
230.899
230.592
230.475
230.474
230.559
230.712
230.908
231.004
230.987
230.973
230.797
229.955
228.542
227.13
226.482
224.575
233.301
236.692
253.654
249.759
247.725
247.597
248.712
250.315
250.153
250.09
250.438
249.755
249.787
249.61
247.987
247.309
247.753
249.98
253.532
254.791
222.648
230.592
228.347
226.642
226.015
225.977
251.276
237.777
226.375
226.014
225.719
225.749
225.786
226.067
226.679
227.89
229.489
230.582
230.869
230.749
230.729
230.66
230.494
230.284
230.122
229.993
229.936
229.967
230.168
230.501
230.955
231.415
232.127
232.817
233.998
235.22
237.427
239.675
242.296
244.856
247.594
250.329
252.364
254.169
257.164
257.451
257.956
257.488
256.214
254.731
226.54
219.996
236.079
230.727
232.721
234.624
219.14
235.294
235.634
235.83
257.615
233.001
251.923
219.635
231.112
223.446
264.431
262.963
232.114
233.256
233.825
233.831
233.807
233.821
233.75
233.56
233.426
233.337
233.334
233.388
233.54
233.893
234.254
235.027
235.553
236.621
237.368
238.862
240.156
242.347
244.979
247.68
250.064
251.637
252.682
253.303
253.851
254.607
254.627
254.327
254.426
254.712
254.609
254.31
261.26
253.211
251.572
247.6
246.033
245.934
246.748
247.821
247.708
248.231
248.514
247.731
247.304
247.257
246.202
245.889
246.203
248.017
251.659
253.445
253.82
224.993
222.111
228.607
264.173
265.099
265.749
265.843
265.632
264.161
262.668
261.15
241.646
259.551
230.211
232.261
232.658
230.808
233.165
235.388
219.73
226.729
260.752
230.286
228.195
226.903
227.156
227.744
227.958
241.997
230.909
230.154
229.806
229.645
229.852
230.595
231.557
232.195
232.444
232.445
232.471
232.532
232.58
232.576
232.566
232.541
232.505
232.5
232.536
232.661
232.952
233.314
234.093
234.642
235.754
236.542
238.125
239.376
241.699
244.419
247.334
249.673
251.155
252.096
252.675
253.134
253.877
253.935
253.707
253.807
254.107
254.114
253.954
253.459
233.121
230.745
228.537
252.075
228.79
220.196
255.252
227.725
257.488
237.305
236.996
236.609
230.783
233.16
230.759
261.391
233.141
256.105
260.174
240.971
229.441
230.196
262.009
263.373
265.282
237.399
237.289
237.286
237.372
237.437
237.551
237.488
237.436
237.412
237.446
237.586
237.782
238.188
238.638
239.471
240.305
241.406
242.488
244.047
245.625
247.599
249.93
251.647
252.669
253.131
253.372
253.366
253.241
252.802
251.706
250.453
248.795
248.788
249.039
249.778
251.299
252.387
231.429
229.567
228.32
228.173
229.973
232.143
247.024
223.65
224.546
228.572
228.67
259.63
259.679
235.599
235.684
218.744
253.831
252.056
225.564
225.098
266.776
260.297
262.285
235.567
253.048
252.241
249.795
245.86
244.405
244.188
244.408
245.106
245.402
246.199
246.456
245.66
244.931
244.506
243.926
244.142
244.706
246.397
250.194
252.646
253.513
252.812
267.077
267.412
267.513
267.601
267.494
267.487
258.892
221.998
226.681
227.432
227.819
246.086
257.514
257.991
238.821
253.712
237.662
237.488
255.839
220.545
253.591
265.299
238.425
244.732
241.641
239.328
238.124
237.438
236.936
236.502
236.263
236.039
235.864
235.866
235.883
235.944
236.023
236.181
236.294
236.389
236.452
236.576
236.76
237.056
237.5
238.029
238.899
239.774
241.05
242.251
243.992
245.49
247.556
249.661
251.265
252.205
252.59
252.79
252.765
252.604
252.127
250.947
249.683
247.842
247.809
248.055
248.798
250.417
251.743
252.238
264.779
243.334
251.522
228.596
259.731
235.635
259.544
250.186
223.497
257.162
223.711
223.706
247.194
238.638
234.7
232.302
230.377
230.337
231.815
233.776
238.595
236.489
251.121
229.51
246.782
234.428
244.939
244.849
244.443
244.16
243.959
243.889
243.882
243.881
243.791
243.805
243.81
243.969
244.198
244.601
245.119
245.843
246.77
247.803
248.904
250.018
250.916
251.724
252.6
253.157
253.503
253.488
253.339
252.901
251.918
250.351
247.809
244.83
241.873
239.968
239.998
240.451
241.527
243.752
246.479
248.825
260.481
262.055
263.978
266.422
255.23
248.048
232.987
230.655
231.184
240.345
234.694
237.345
217.628
251.83
231.288
223.906
226.718
227.034
230.466
237.491
257.939
258.049
239.759
239.928
218.966
253.105
222.314
250.961
247.993
238.099
238.148
254
220.991
222.581
237.027
234.366
248.469
250.444
253.598
230.309
234.952
268.159
269.143
269.689
269.893
269.92
270.004
269.889
269.74
268.858
225.092
221.927
239.503
240.288
256.058
247.386
255.578
253.516
252.226
250.816
249.521
248.439
247.48
246.622
245.856
245.277
244.753
244.382
244.214
244.143
244.172
244.18
244.049
244.03
244.077
244.266
244.542
244.985
245.479
246.222
247.035
248.092
249.018
249.93
250.654
251.32
252.036
252.557
252.88
252.855
252.689
252.226
251.202
249.61
247.044
243.883
240.843
238.7
238.712
239.139
240.189
242.341
245.254
247.829
250.023
252.689
252.916
251.228
248.069
244.075
242.477
242.024
241.951
242.557
243.113
243.853
244.111
243.393
242.613
241.996
241.51
241.862
242.789
244.658
248.567
251.757
253.392
253.195
250.752
226.729
256.266
239.453
241.71
239.961
256.779
267.042
257.597
220.58
220.51
255.871
252.563
244.654
239.929
235.59
233.528
233.098
234.442
236.379
238.952
244.28
242.831
241.452
227.251
226.854
233.822
258.094
240.967
217.906
248.877
246.059
245.344
238.214
251.949
221.694
251.64
233.826
237.719
235.264
233.761
233.859
236.691
241.094
244.1
255.512
263.419
227.006
256.795
258.07
259.85
261.476
264.194
267.062
224.096
222.066
269.556
241.509
267.755
269.273
269.009
270.155
270.35
270.478
270.471
270.562
270.477
270.498
269.977
268.308
244.661
254.175
231.106
235.535
220.576
254.254
226.774
257.059
257.196
257.171
257.052
256.803
256.496
256.052
255.609
255.056
254.581
254.127
253.83
253.538
253.359
252.983
252.658
252.174
252.012
251.684
251.626
251.55
251.551
251.593
251.693
251.9
252.122
252.291
252.38
252.422
252.557
252.569
252.448
252.028
251.059
249.695
247.408
244.577
240.899
237.209
234.955
233.659
233.179
233.274
233.65
234.561
235.87
238.429
240.204
243.014
245.041
251.049
252.786
252.638
250.537
246.628
242.556
240.791
240.152
239.993
240.539
241.166
241.724
242.041
241.375
240.741
240.069
239.667
239.984
241.066
243.039
247.192
251.079
253.116
253.27
251.665
245.989
244.074
241.292
239.571
237.098
235.667
234.666
234.248
234.124
234.538
235.807
238.022
241.71
245.369
248.231
250.485
251.856
252.793
253.196
253.305
253.254
253.073
253.01
252.902
252.691
252.434
252.159
252
251.923
251.903
251.936
251.973
252.251
252.386
252.831
253.14
253.494
253.673
253.996
254.286
254.688
254.861
254.24
256.14
256.051
240.494
247.351
231.98
257.276
257.125
222.463
258.377
241.843
244.502
223.572
228.522
226.231
225.385
231.228
227.638
256.308
256.298
242.842
249.586
244.612
243.072
248
240.401
240.456
254.463
250.422
241.772
222.364
252.507
240.676
245.489
247.156
243.694
243.311
256.347
229.542
225.738
225.59
242.429
240.396
238.771
237.714
238.349
241.26
247.154
253.145
257.392
257.905
257.55
243.117
241.66
221.245
258.016
258.075
254.465
248.364
242.047
238.72
238.326
239.514
253.458
223.454
251.976
253.387
254.972
256.091
222.45
246.569
224.55
248.168
229.024
252.454
257.735
254.462
255.194
257.301
258.95
261.679
264.407
266.865
224.291
224.284
257.149
258.25
257.965
257.921
258.763
258.651
258.696
258.688
258.515
258.298
258.044
257.833
257.394
256.971
256.357
256.033
255.516
255.251
254.721
254.401
254.113
253.885
253.676
253.568
253.429
253.272
253.007
252.543
252.035
250.946
249.628
247.383
244.832
241.798
238.267
235.797
234.203
233.271
232.82
232.661
232.653
232.718
232.944
233.567
234.29
235.915
236.904
238.936
240.003
243.184
242.454
247.345
252.007
253.092
252.316
249.297
244.722
240.741
238.813
238.047
237.886
238.321
238.95
239.335
239.655
239.064
238.583
237.984
237.604
237.854
239.06
241.147
245.258
249.745
252.734
253.526
252.568
248.209
242.124
248.043
270.125
271.097
271.076
270.5
270.384
270.242
270.292
270.23
270.234
270.589
271.197
270.186
267.622
259.34
262.198
266.056
266.603
257.049
256.184
256.264
256.835
257.302
257.737
258.04
258.18
258.147
258.043
257.815
257.637
257.37
257.138
256.659
256.247
255.666
255.359
254.832
254.567
254.036
253.736
253.441
253.219
253.001
252.883
252.735
252.577
252.286
251.811
251.287
250.153
248.832
246.549
244.009
240.945
237.464
235.042
233.466
232.526
232.049
231.859
231.835
231.886
232.081
232.627
233.311
234.889
235.885
237.935
239.008
241.168
250.156
245.424
254.475
254.525
227.874
226.019
223.512
227.858
246.127
243.403
251.015
245.017
225.729
253.726
258.575
260.403
260.703
258.997
256.098
251.542
247.617
246.348
256.516
216.238
250.125
252.546
254.547
255.909
255.172
246.761
246.264
246.36
247.668
250.452
255.108
258.157
260.139
260.041
258.696
225.408
225.19
226.768
254.604
246.002
248.168
245.697
243.196
246.732
247.315
248.644
252.973
253.525
254.004
255.996
256.836
257.488
257.675
257.64
257.552
257.364
257.161
256.745
256.431
255.902
255.585
255.003
254.641
254.033
253.564
253.073
252.517
251.949
251.243
250.528
249.53
248.378
246.925
244.961
242.833
239.859
237.097
235.156
233.841
232.996
232.552
232.37
232.339
232.396
232.506
232.618
232.793
233.009
233.471
233.88
234.778
235.298
236.415
236.963
238.142
252.785
254.575
256.239
257.265
258.916
260.586
262.969
265.469
265.804
226.452
252.617
244.686
250.564
252.519
225.892
223.346
259.523
260.942
263.891
265.256
227.949
247.767
262.906
263.051
262.034
259.706
258.225
256.601
255.02
255.014
254.978
256.127
257.764
259.201
259.507
261.002
263.62
261.044
242.059
248.592
252.384
253.063
251.911
248.389
243.607
239.636
237.663
236.787
236.547
236.909
237.402
237.613
237.989
237.428
237.092
236.672
236.424
236.676
237.825
239.872
243.988
248.78
252.295
253.47
252.916
249.483
243.012
238.654
248.16
246.135
246.787
249.211
251.827
253.856
255.283
256.157
256.592
256.832
256.82
256.756
256.576
256.361
255.929
255.628
255.135
254.825
254.25
253.913
253.298
252.858
252.354
251.83
251.238
250.532
249.788
248.745
247.571
246.054
244.077
241.898
238.912
236.253
234.39
233.121
232.295
231.846
231.65
231.599
231.623
231.698
231.791
231.943
232.139
232.558
232.952
233.835
234.364
235.499
236.057
237.257
237.769
245.735
248.291
252.598
225.338
224.778
236.609
236.009
251.68
240.234
236.924
250.904
239.954
245.254
253.131
252.909
246.71
251.097
237.939
241.619
234.917
236.151
234.749
234.707
235.362
235.092
235.516
235.872
234.946
235.32
234.926
234.723
237.69
235.87
246.383
241.292
252.764
250.774
250.17
252.432
235.776
236.092
239.058
244.289
234.791
235.15
233.813
234.191
232.958
233.298
232.34
232.602
231.943
232.117
231.667
231.795
231.422
231.542
231.326
231.333
231.875
231.467
234.185
232.731
238.33
236.146
242.186
240.42
244.922
243.663
246.893
245.981
248.403
247.693
249.642
249.045
250.713
250.204
251.516
251.178
251.976
251.79
252.088
252.061
251.725
252.005
250.454
251.205
248.091
249.373
244.257
246.338
239.921
241.892
239.201
239.134
245.219
240.705
258.665
254.901
259.105
259.023
257.984
258.744
254.675
255.48
258.354
255.361
262.523
261.352
262.228
263.074
262.232
262.012
265.196
263.765
261.571
241.276
251.74
236.969
238.687
235.714
236.189
235.208
235.4
235.098
235.008
235.571
235.265
237.994
236.255
265.198
241.188
266.448
261.27
266.735
260.496
266.256
266.877
264.448
264.97
262.473
263.856
263.41
262.84
261.246
262.843
257.088
259.303
257.91
256.829
259.491
258.893
259.506
259.628
254.848
259.066
241.077
244.77
240.2
240.057
243.17
241.595
245.871
244.926
249.377
247.197
251.977
250.922
252.8
252.55
252.83
252.859
252.584
252.752
251.986
252.328
250.982
251.515
249.801
250.408
248.468
249.162
246.856
247.704
244.729
245.881
241.664
243.358
237.248
239.553
233.529
235.128
232.123
232.577
232.01
231.979
232.306
232.143
232.631
232.472
232.989
232.8
233.499
233.229
234.203
233.861
235.084
234.716
235.664
268.505
260.6
250.459
221.403
237.669
246.714
236.833
260.996
269.529
271.777
271.658
271.218
271.192
270
269.969
220.224
246.452
250.552
248.206
248.297
217.27
218.53
217.307
229.108
226.508
227.853
230.294
227.345
228.837
231.257
228.023
229.569
232.021
228.529
230.289
244.829
224.747
270.504
224.937
265.436
222.831
235.265
242.925
224.234
225.445
241.83
219.856
215.457
247.045
258.2
219.745
257.487
257.057
257.242
263.743
234.863
223.806
249.64
221.498
260.508
219.788
241.848
220.337
219.847
222.964
228.886
270.377
262.317
238.497
257.383
248.552
249.979
266.288
259.12
228.493
268.154
248.094
226.528
238.124
236.084
217.227
259.044
247.568
233.669
223.2
210.379
210.021
248.929
)
;

boundaryField
{
    wall
    {
        type            zeroGradient;
    }
    outlet
    {
        type            inletOutlet;
        inletValue      uniform 85;
        value           nonuniform List<scalar> 
33
(
250.905
239.957
245.258
253.129
252.908
246.7
251.093
237.931
241.608
234.914
236.147
234.742
234.704
235.355
235.085
235.509
235.867
234.937
235.31
234.919
234.717
237.679
235.862
246.372
241.275
252.762
250.767
250.171
252.43
239.059
244.291
237.672
236.835
)
;
    }
    inlet
    {
        type            fixedValue;
        value           uniform 273.16;
    }
    frontAndBackPlanes
    {
        type            empty;
    }
}


// ************************************************************************* //
