/*--------------------------------*- C++ -*----------------------------------*\
| =========                 |                                                 |
| \\      /  F ield         | OpenFOAM: The Open Source CFD Toolbox           |
|  \\    /   O peration     | Version:  2212                                  |
|   \\  /    A nd           | Website:  www.openfoam.com                      |
|    \\/     M anipulation  |                                                 |
\*---------------------------------------------------------------------------*/
FoamFile
{
    version     2.0;
    format      ascii;
    arch        "LSB;label=32;scalar=64";
    class       volScalarField;
    location    "0.00492";
    object      nut;
}
// * * * * * * * * * * * * * * * * * * * * * * * * * * * * * * * * * * * * * //

dimensions      [0 2 -1 0 0 0 0];

internalField   nonuniform List<scalar> 
7220
(
0.292843
0.316402
0.345761
0.373228
0.349869
0.366861
0.304082
0.321289
0.346295
0.335693
0.298615
0.239857
0.346111
0.415883
0.232671
0.212705
0.0653037
0.44553
0.136242
0.411437
0.368528
0.0939901
0.334867
0.0813566
0.356549
0.396428
0.252071
0.511719
0.36129
0.257798
0.189017
0.264621
0.332135
0.252345
0.354425
0.265265
0.306945
0.297581
0.291639
0.248815
0.250059
0.250102
0.248854
0.258665
0.259635
0.260031
0.259315
0.258768
0.251285
0.25248
0.252532
0.251333
0.253623
0.254693
0.25475
0.253678
0.255668
0.256527
0.256583
0.255725
0.257251
0.257832
0.257884
0.257306
0.258263
0.258546
0.258587
0.258311
0.258687
0.258705
0.258737
0.258723
0.258625
0.258478
0.258507
0.258654
0.258302
0.258137
0.258175
0.258334
0.258021
0.257992
0.258047
0.258068
0.258387
0.258147
0.258081
0.258314
0.258705
0.258221
0.247564
0.247599
0.249846
0.248607
0.260569
0.260913
0.259278
0.26003
0.257782
0.257718
0.257689
0.257989
0.25783
0.25829
0.258156
0.258325
0.258357
0.257876
0.25817
0.256848
0.257435
0.255265
0.256121
0.253236
0.254296
0.250928
0.252107
0.248493
0.249719
0.252257
0.251067
0.254461
0.253396
0.256287
0.255432
0.257587
0.257009
0.258296
0.258016
0.258456
0.258436
0.258246
0.258381
0.257943
0.258086
0.25784
0.257849
0.257954
0.258022
0.24726
0.247363
0.258383
0.257869
0.261639
0.260952
0.258433
0.259028
0.257971
0.259122
0.259815
0.258578
0.257295
0.257548
0.257206
0.257191
0.25744
0.257302
0.257697
0.257585
0.257684
0.25774
0.257194
0.257507
0.256144
0.256739
0.254564
0.255415
0.252564
0.253607
0.250303
0.251456
0.247925
0.249122
0.246024
0.245512
0.24672
0.246344
0.246312
0.246884
0.245662
0.246118
0.249321
0.248105
0.251691
0.250521
0.253865
0.252813
0.255678
0.254827
0.256985
0.256401
0.257716
0.257423
0.257909
0.257871
0.257742
0.257855
0.257485
0.257606
0.257429
0.257414
0.257566
0.261046
0.259999
0.25775
0.257269
0.244789
0.244302
0.246206
0.245019
0.26201
0.262284
0.262898
0.260791
0.257364
0.261526
0.260304
0.259378
0.258421
0.257982
0.256665
0.256931
0.256537
0.256543
0.25671
0.256604
0.256898
0.256822
0.256817
0.256906
0.256272
0.25661
0.255194
0.255799
0.253621
0.254464
0.25166
0.25268
0.249462
0.250582
0.247157
0.248316
0.24482
0.24599
0.245092
0.245063
0.244442
0.244876
0.248573
0.247392
0.250883
0.249741
0.253014
0.25198
0.254808
0.253963
0.256127
0.255533
0.256897
0.256582
0.257147
0.257079
0.257044
0.257125
0.256844
0.256938
0.256825
0.256795
0.256971
0.259275
0.243646
0.243832
0.262067
0.263701
0.262926
0.263299
0.258798
0.256965
0.256505
0.257615
0.260376
0.243999
0.242871
0.243226
0.242649
0.261948
0.264332
0.264504
0.2653
0.267255
0.265378
0.266264
0.263377
0.258108
0.256654
0.257282
0.255928
0.25621
0.25575
0.255786
0.255847
0.255782
0.255945
0.255914
0.255777
0.255908
0.255167
0.255534
0.254058
0.254673
0.252497
0.253329
0.250585
0.251576
0.248461
0.249541
0.246244
0.247359
0.245123
0.242474
0.243557
0.243095
0.243846
0.243818
0.24364
0.243095
0.245378
0.244237
0.247657
0.246519
0.24989
0.248784
0.251965
0.250956
0.253735
0.252897
0.255071
0.254464
0.255892
0.255548
0.25622
0.256111
0.2562
0.25624
0.256065
0.25613
0.256074
0.256036
0.256218
0.259455
0.258442
0.262073
0.260669
0.263658
0.259825
0.241744
0.241955
0.256105
0.255665
0.256724
0.264619
0.261575
0.264759
0.265952
0.268239
0.263176
0.267739
0.257321
0.267088
0.259143
0.258337
0.269252
0.255875
0.256503
0.255126
0.255422
0.254891
0.254959
0.2549
0.254883
0.254893
0.254915
0.254624
0.254803
0.253939
0.254339
0.252798
0.253424
0.251253
0.252071
0.249398
0.250357
0.247359
0.248394
0.245241
0.246304
0.243103
0.244173
0.240957
0.24203
0.239898
0.241315
0.240629
0.242343
0.241903
0.242619
0.242593
0.242029
0.242422
0.240831
0.241482
0.24013
0.242283
0.241199
0.244457
0.24337
0.24663
0.245544
0.248773
0.24771
0.250784
0.249803
0.252526
0.251697
0.253879
0.253258
0.254762
0.254382
0.255183
0.255025
0.255261
0.255253
0.255202
0.255234
0.255245
0.255196
0.255388
0.258509
0.257522
0.261107
0.259702
0.262742
0.260391
0.261081
0.264947
0.259556
0.255225
0.254807
0.255812
0.240165
0.239172
0.239749
0.239101
0.266388
0.267767
0.269085
0.270277
0.268846
0.271656
0.273042
0.261858
0.262984
0.270416
0.264689
0.260995
0.271596
0.258671
0.256482
0.257475
0.25506
0.25568
0.254297
0.254606
0.254006
0.254108
0.253918
0.253953
0.253794
0.253876
0.253414
0.253647
0.252649
0.253084
0.251474
0.25211
0.249947
0.250749
0.248155
0.249077
0.246207
0.247194
0.244199
0.245206
0.242181
0.24319
0.241172
0.238877
0.240196
0.239554
0.241173
0.240752
0.241437
0.241411
0.240875
0.241249
0.240359
0.239428
0.241449
0.240431
0.243494
0.242471
0.24555
0.244521
0.247594
0.246578
0.249532
0.248584
0.251242
0.250423
0.252613
0.251976
0.253563
0.253144
0.254088
0.253875
0.254278
0.254216
0.254305
0.254299
0.254391
0.254327
0.254538
0.257547
0.256582
0.260155
0.25873
0.263918
0.261859
0.266331
0.262595
0.260095
0.238217
0.238464
0.253971
0.254369
0.262669
0.263559
0.266648
0.268245
0.269778
0.271298
0.274887
0.276253
0.299114
0.274359
0.300741
0.272802
0.261754
0.260851
0.257789
0.259199
0.255634
0.256609
0.254244
0.25485
0.253476
0.253793
0.25313
0.253266
0.252945
0.253033
0.252698
0.252843
0.252198
0.252488
0.251347
0.251819
0.250135
0.250783
0.248626
0.249413
0.2469
0.247784
0.245049
0.245984
0.243158
0.244104
0.241274
0.242215
0.239404
0.240337
0.237607
0.238487
0.236798
0.237926
0.237334
0.239151
0.238551
0.240078
0.239677
0.240333
0.240307
0.239799
0.240154
0.238742
0.239313
0.237573
0.238145
0.237059
0.238764
0.237875
0.240633
0.23969
0.242535
0.241582
0.244463
0.243495
0.246402
0.245435
0.248262
0.247349
0.249937
0.24913
0.251326
0.250673
0.252348
0.251886
0.252984
0.252712
0.253296
0.253174
0.253419
0.253369
0.253555
0.253471
0.253709
0.256615
0.254929
0.255672
0.259188
0.257778
0.262793
0.260851
0.267489
0.264987
0.273492
0.270283
0.286667
0.281509
0.278615
0.27719
0.264414
0.312547
0.263642
0.262733
0.268519
0.364144
0.237024
0.236293
0.236657
0.236147
0.270264
0.282948
0.272003
0.279961
0.277549
0.27375
0.275547
0.305135
0.271469
0.242943
0.226294
0.123382
0.202344
0.26457
0.26549
0.248521
0.266697
0.284949
0.279951
0.267985
0.267233
0.265759
0.283608
0.264845
0.232655
0.268127
0.267207
0.289531
0.274845
0.269807
0.269005
0.271793
0.264008
0.266392
0.259983
0.261874
0.256931
0.258335
0.254804
0.255763
0.253444
0.254037
0.252675
0.252999
0.252279
0.252446
0.252
0.252139
0.251627
0.251836
0.251003
0.251353
0.250059
0.250572
0.248805
0.249467
0.247308
0.248082
0.245645
0.246493
0.243892
0.244775
0.242125
0.243006
0.240383
0.24125
0.238666
0.239521
0.237828
0.235957
0.237033
0.236468
0.238199
0.237623
0.23909
0.238705
0.239337
0.239311
0.238819
0.239164
0.237796
0.238346
0.237214
0.236582
0.238129
0.237318
0.23984
0.238976
0.24159
0.240711
0.243385
0.242481
0.245215
0.2443
0.246996
0.246117
0.248634
0.247838
0.250044
0.249373
0.251142
0.250635
0.251898
0.251563
0.252338
0.252152
0.252563
0.252467
0.252757
0.25265
0.253175
0.252919
0.254091
0.253556
0.255715
0.254804
0.258199
0.25684
0.26165
0.259799
0.266212
0.26377
0.272132
0.268979
0.275746
0.289684
0.259209
0.219109
0.266378
0.268536
0.309004
0.47268
0.380184
0.300401
0.235462
0.235649
0.252275
0.267621
0.269314
0.269981
0.270492
0.288002
0.173655
0.269083
0.278513
0.283147
0.290793
0.2725
0.284269
0.281238
0.270757
0.0926249
0.274492
0.465975
0.272695
0.198819
0.276523
0.278717
0.331546
0.330481
0.308275
0.315834
0.332184
0.310851
0.268237
0.271148
0.263188
0.26559
0.259146
0.261042
0.256098
0.257497
0.253987
0.254936
0.252643
0.25323
0.251866
0.252199
0.251419
0.251618
0.251045
0.251236
0.250545
0.250821
0.24979
0.250204
0.248742
0.249302
0.247433
0.248116
0.245936
0.246703
0.244324
0.24514
0.242661
0.243495
0.241011
0.241831
0.239403
0.240202
0.237829
0.238613
0.236323
0.237061
0.234808
0.235664
0.233016
0.23424
0.233712
0.235366
0.234779
0.236559
0.235975
0.23746
0.237071
0.237702
0.237681
0.237159
0.237518
0.236101
0.236669
0.234917
0.235499
0.233854
0.234378
0.233179
0.235995
0.235008
0.237406
0.236662
0.238973
0.238182
0.240581
0.239772
0.24225
0.241407
0.243974
0.243108
0.24568
0.244834
0.24729
0.246501
0.24873
0.248036
0.249917
0.249359
0.250801
0.250399
0.251375
0.251124
0.251707
0.251563
0.251962
0.25183
0.25239
0.252136
0.253274
0.252759
0.254836
0.253959
0.257231
0.255921
0.260577
0.258776
0.265058
0.262655
0.270912
0.267792
0.274451
0.306746
0.282604
0.276175
0.223982
0.22858
0.268508
0.270401
0.3354
0.301373
0.293973
0.277117
0.354766
0.265355
0.270018
0.277144
0.28162
0.288471
0.272699
0.271661
0.27225
0.333667
0.289301
0.274221
0.233502
0.231654
0.232037
0.231384
0.285521
0.377028
0.271738
0.296899
0.322931
0.342171
0.338561
0.333285
0.360155
0.275011
0.373655
0.377314
0.326
0.344066
0.353306
0.321762
0.273709
0.306382
0.201572
0.206463
0.227573
0.21797
0.207469
0.277302
0.28239
0.275936
0.344119
0.279697
0.375866
0.377453
0.377782
0.278151
0.345473
0.379005
0.34562
0.347573
0.309713
0.267946
0.317652
0.161302
0.267586
0.270807
0.262363
0.264812
0.258297
0.260204
0.25523
0.256641
0.2531
0.254059
0.251734
0.252334
0.250917
0.251272
0.250394
0.250636
0.249911
0.250162
0.24927
0.24962
0.248363
0.248852
0.247186
0.247806
0.24579
0.246511
0.244258
0.245036
0.242663
0.243465
0.241055
0.241857
0.239487
0.240264
0.237974
0.238725
0.236493
0.237231
0.235067
0.235766
0.234453
0.231241
0.23241
0.231914
0.233464
0.232914
0.234605
0.234043
0.235467
0.235096
0.235694
0.235677
0.235174
0.235518
0.234157
0.234704
0.233038
0.233586
0.232533
0.231895
0.234878
0.233771
0.236209
0.235504
0.237688
0.236943
0.239199
0.238439
0.240774
0.239977
0.24242
0.241591
0.244078
0.243252
0.245689
0.244893
0.247189
0.246458
0.248492
0.24787
0.249525
0.249046
0.250245
0.249924
0.250695
0.250497
0.251027
0.250861
0.251492
0.251225
0.252372
0.251863
0.253898
0.253041
0.256238
0.254957
0.259525
0.257755
0.263955
0.261583
0.269737
0.26666
0.273208
0.25009
0.21258
0.225313
0.216643
0.357481
0.203078
0.185427
0.270892
0.285554
0.286791
0.272607
0.33786
0.358972
0.367623
0.31411
0.347159
0.331698
0.348146
0.297118
0.0622853
0.295247
0.280116
0.260432
0.229889
0.230104
0.290514
0.1655
0.317826
0.230983
0.262259
0.175771
0.272685
0.234454
0.294722
0.302773
0.198116
0.20256
0.19669
0.335169
0.275216
0.274284
0.274827
0.375243
0.340737
0.367766
0.361236
0.365911
0.346849
0.333181
0.358471
0.335689
0.345438
0.263789
0.20398
0.204475
0.35625
0.187657
0.295097
0.274717
0.304251
0.202984
0.213142
0.208792
0.277864
0.37449
0.371303
0.376101
0.374186
0.286651
0.27701
0.535834
0.315452
0.19338
0.247147
0.283724
0.284744
0.323721
0.259616
0.351275
0.280518
0.3745
0.372596
0.37633
0.375682
0.480291
0.343223
0.283371
0.27952
0.353066
0.374788
0.372148
0.373518
0.380611
0.281856
0.35376
0.357684
0.377726
0.380563
0.354423
0.377476
0.31928
0.302356
0.50079
0.376745
0.35155
0.328957
0.138137
0.266663
0.269694
0.26142
0.263894
0.257273
0.259221
0.254107
0.255569
0.251865
0.252881
0.250379
0.251041
0.249429
0.249851
0.248758
0.249077
0.248103
0.248443
0.247263
0.247715
0.246145
0.24674
0.244768
0.245484
0.243207
0.244005
0.241555
0.242387
0.239885
0.240719
0.238239
0.239057
0.236654
0.237438
0.235127
0.235885
0.233618
0.234372
0.23215
0.23287
0.230356
0.231519
0.226644
0.228428
0.2251
0.229665
0.228344
0.230741
0.230294
0.231699
0.231195
0.232768
0.232238
0.233587
0.233233
0.233798
0.233785
0.233297
0.233627
0.232333
0.232849
0.231296
0.2318
0.230397
0.230842
0.228537
0.229788
0.225485
0.228871
0.227051
0.232165
0.230826
0.233546
0.232819
0.23506
0.234301
0.236586
0.23582
0.238162
0.237365
0.239815
0.238981
0.241506
0.240658
0.243198
0.242355
0.244835
0.244029
0.246323
0.245604
0.247557
0.246978
0.248467
0.248054
0.249079
0.248804
0.249547
0.249317
0.250122
0.249805
0.251069
0.250531
0.252634
0.251761
0.255
0.25371
0.258308
0.256528
0.262753
0.26038
0.268535
0.265467
0.275908
0.271996
0.280377
0.29635
0.346686
0.215171
0.203569
0.316585
0.194829
0.292481
0.19592
0.192187
0.193009
0.192886
0.192455
0.197459
0.194824
0.193569
0.273549
0.292944
0.515837
0.344681
0.275136
0.372238
0.352182
0.348448
0.35529
0.310147
0.202286
0.278257
0.228027
0.209069
0.214107
0.205171
0.239444
0.243422
0.4521
0.170766
0.222862
0.245783
0.314625
0.294029
0.146013
0.262574
0.157725
0.188892
0.21404
0.275665
0.302118
0.202942
0.211738
0.24266
0.350941
0.278096
0.277231
0.277748
0.373137
0.354926
0.369419
0.366314
0.371469
0.291594
0.263218
0.218841
0.217263
0.227231
0.224177
0.307348
0.222622
0.27805
0.355557
0.313108
0.251239
0.24196
0.239484
0.2148
0.356576
0.281132
0.371012
0.375378
0.348653
0.287627
0.347754
0.280705
0.326485
0.321234
0.356478
0.284222
0.369824
0.372943
0.378465
0.283479
0.357003
0.332
0.375378
0.370509
0.382876
0.286472
0.357289
0.379371
0.330405
0.31068
0.35775
0.379169
0.303189
0.244516
0.379317
0.359137
0.404704
0.342949
0.354839
0.356165
0.236314
0.355317
0.283157
0.281696
0.272727
0.276966
0.265609
0.268941
0.259999
0.262631
0.255544
0.257638
0.25207
0.25369
0.249502
0.250683
0.247672
0.248507
0.246378
0.246972
0.245367
0.245856
0.244369
0.244882
0.243172
0.243805
0.241683
0.242465
0.239936
0.240836
0.238027
0.238995
0.236058
0.237044
0.234107
0.235078
0.232206
0.233149
0.230376
0.231282
0.228594
0.229482
0.226813
0.227705
0.225072
0.225925
0.222751
0.224291
0.220694
0.223808
0.228343
0.227052
0.229318
0.228923
0.230178
0.22972
0.231169
0.230675
0.231943
0.231608
0.232141
0.23213
0.231661
0.231976
0.230753
0.231236
0.229804
0.23026
0.22901
0.229401
0.22845
0.21807
0.221601
0.219696
0.225409
0.22369
0.227115
0.226251
0.228908
0.228012
0.230684
0.229798
0.232483
0.231577
0.234346
0.233406
0.236268
0.2353
0.238233
0.237247
0.240188
0.239218
0.242016
0.241126
0.243586
0.242841
0.24481
0.244242
0.245722
0.245298
0.246486
0.246109
0.247337
0.246885
0.248523
0.247871
0.250296
0.249321
0.252854
0.251471
0.25636
0.254479
0.260979
0.258515
0.266924
0.263772
0.274484
0.270472
0.28434
0.279062
0.290474
0.266384
0.338999
0.310528
0.354714
0.351937
0.35258
0.349328
0.352714
0.373268
0.367323
0.370518
0.371292
0.360876
0.21013
0.206597
0.207871
0.218536
0.213101
0.22911
0.223918
0.234329
0.261453
0.203393
0.274556
0.270472
0.139533
0.225826
0.184985
0.216722
0.194331
0.185647
0.183688
0.18974
0.18814
0.194483
0.191524
0.205392
0.199867
0.204655
0.276516
0.300165
0.208744
0.28476
0.219965
0.354683
0.278018
0.371587
0.361683
0.361391
0.367296
0.372713
0.297323
0.465678
0.342487
0.305889
0.411102
0.215928
0.216715
0.429602
0.479666
0.203276
0.222159
0.205075
0.329783
0.160497
0.169986
0.193118
0.270739
0.24573
0.227644
0.180676
0.127817
0.126283
0.275235
0.279015
0.306479
0.310809
0.244008
0.242089
0.286946
0.288472
0.226536
0.281861
0.35513
0.356679
0.444127
0.398408
0.281387
0.280573
0.281079
0.369688
0.530266
0.527512
0.513338
0.360735
0.36752
0.365978
0.375093
0.498848
0.24465
0.202308
0.222984
0.292563
0.292646
0.310564
0.298598
0.252014
0.400074
0.144598
0.281808
0.323807
0.307465
0.277576
0.202105
0.346065
0.349184
0.357654
0.284892
0.367851
0.373045
0.479711
0.368751
0.288518
0.284875
0.526906
0.533306
0.340053
0.514708
0.526311
0.354471
0.374759
0.357434
0.293421
0.366041
0.367785
0.369619
0.382648
0.288136
0.532272
0.523228
0.361805
0.368833
0.357519
0.378725
0.343533
0.320238
0.523866
0.522607
0.533142
0.528133
0.535903
0.530129
0.535596
0.528512
0.357619
0.381237
0.311161
0.282885
0.382246
0.357834
0.381422
0.303954
0.0484396
0.358567
0.200192
0.360548
0.466264
0.29287
0.290995
0.279862
0.285096
0.270952
0.275123
0.263181
0.266895
0.256843
0.259835
0.251647
0.254116
0.247398
0.249412
0.244036
0.245615
0.2414
0.242638
0.239322
0.240304
0.237559
0.238418
0.235841
0.236711
0.233938
0.234923
0.231739
0.232877
0.229275
0.230534
0.226649
0.227975
0.223975
0.225312
0.221338
0.222649
0.218767
0.220043
0.216267
0.21751
0.213803
0.215034
0.211333
0.212569
0.208939
0.210109
0.20569
0.207764
0.201473
0.203449
0.198396
0.199808
0.197182
0.222744
0.21481
0.227261
0.225993
0.228145
0.227799
0.228914
0.2285
0.229836
0.229374
0.230569
0.230251
0.230754
0.230746
0.230295
0.230596
0.229438
0.229892
0.228572
0.228985
0.227876
0.228218
0.226166
0.22736
0.21558
0.223104
0.198698
0.201409
0.199944
0.205231
0.203167
0.20977
0.207539
0.21228
0.211082
0.214765
0.213521
0.217216
0.215995
0.219652
0.218431
0.222131
0.220883
0.22468
0.223396
0.227305
0.225985
0.229933
0.228627
0.232417
0.231203
0.234609
0.233556
0.236442
0.23557
0.237969
0.237235
0.239373
0.238672
0.240857
0.240097
0.242643
0.2417
0.244962
0.243715
0.248067
0.246408
0.252136
0.249971
0.257305
0.254568
0.26377
0.26036
0.271833
0.26757
0.282193
0.276656
0.288687
0.347716
0.331101
0.35214
0.352934
0.345814
0.349122
0.343416
0.340763
0.342974
0.356458
0.350243
0.359678
0.354603
0.368026
0.364733
0.366533
0.296209
0.25777
0.233091
0.218761
0.254857
0.243701
0.280843
0.267287
0.312087
0.296235
0.327174
0.191015
0.157017
0.219144
0.15882
0.145795
0.178844
0.178313
0.172921
0.196702
0.188252
0.205612
0.202547
0.214085
0.208744
0.230326
0.222307
0.24158
0.279869
0.308607
0.242853
0.291881
0.290113
0.250224
0.356558
0.456751
0.416723
0.281322
0.535828
0.368535
0.460288
0.491532
0.363969
0.374363
0.518487
0.432541
0.150495
0.123703
0.26628
0.319857
0.303882
0.298299
0.222824
0.380668
0.298602
0.359566
0.173442
0.320749
0.500864
0.193045
0.202108
0.32589
0.195799
0.282759
0.140663
0.217786
0.192428
0.346601
0.119243
0.178827
0.131719
0.282817
0.315158
0.32114
0.296397
0.282237
0.294491
0.264071
0.322827
0.352097
0.356417
0.345725
0.285197
0.284396
0.284893
0.538974
0.536243
0.1908
0.366208
0.50696
0.361851
0.364207
0.363528
0.373594
0.530253
0.505395
0.345704
0.522278
0.293484
0.537649
0.164558
0.163266
0.214632
0.197619
0.250777
0.289614
0.401066
0.415526
0.106566
0.286106
0.336812
0.182743
0.121127
0.500596
0.347087
0.244414
0.29767
0.299667
0.36891
0.346151
0.356276
0.243125
0.346229
0.289221
0.539574
0.365434
0.516258
0.370301
0.369575
0.487394
0.376897
0.292908
0.302557
0.443979
0.289713
0.356873
0.510825
0.374084
0.339133
0.341426
0.356135
0.372782
0.0998823
0.366499
0.521347
0.358591
0.331196
0.293629
0.388847
0.518806
0.363081
0.356197
0.381669
0.52239
0.320386
0.320648
0.384901
0.346767
0.351959
0.356322
0.383428
0.311614
0.384089
0.531526
0.356653
0.304985
0.315041
0.218559
0.114358
0.297863
0.120269
0.305231
0.301829
0.2875
0.2943
0.275833
0.281394
0.265787
0.270639
0.256678
0.261109
0.248735
0.25254
0.241883
0.24519
0.235953
0.23881
0.230932
0.233335
0.226677
0.228717
0.223068
0.224804
0.219872
0.221434
0.216817
0.218345
0.213644
0.215257
0.210216
0.211965
0.206531
0.208401
0.202673
0.204617
0.198759
0.200716
0.194891
0.196815
0.191111
0.192989
0.187414
0.189253
0.183763
0.185585
0.180146
0.181947
0.176705
0.178384
0.172277
0.174855
0.167776
0.169861
0.16602
0.196136
0.221871
0.213876
0.226383
0.225134
0.227194
0.226888
0.227885
0.227509
0.228745
0.228311
0.229439
0.229138
0.229614
0.229607
0.229176
0.229463
0.228368
0.228794
0.227574
0.227947
0.226963
0.227262
0.225306
0.22648
0.222226
0.165764
0.168726
0.167117
0.172857
0.170626
0.178118
0.175407
0.181969
0.180215
0.185611
0.18378
0.189256
0.187439
0.192873
0.191065
0.196523
0.194689
0.200263
0.198379
0.204092
0.202171
0.207896
0.206009
0.211495
0.209731
0.214769
0.213176
0.217685
0.21627
0.220359
0.219041
0.222978
0.221661
0.225718
0.22433
0.228692
0.227168
0.232155
0.230335
0.236447
0.234184
0.241792
0.238975
0.248289
0.244889
0.256096
0.252014
0.265515
0.260574
0.277275
0.271024
0.284503
0.245649
0.32395
0.290672
0.350071
0.342757
0.348253
0.350611
0.342364
0.345184
0.338282
0.340061
0.338028
0.336044
0.336954
0.344106
0.340275
0.34478
0.342218
0.352164
0.348083
0.36116
0.356777
0.360847
0.363461
0.349543
0.214742
0.273483
0.250999
0.310888
0.291683
0.354235
0.332628
0.380765
0.37307
0.371112
0.378361
0.360109
0.144266
0.168813
0.265557
0.113984
0.163028
0.198492
0.165103
0.196747
0.177109
0.226582
0.214066
0.239164
0.234642
0.253634
0.24411
0.278653
0.264626
0.344693
0.306785
0.469594
0.283688
0.318348
0.288561
0.298151
0.296242
0.290838
0.354576
0.370502
0.285114
0.539089
0.321533
0.379497
0.364957
0.484956
0.362703
0.374368
0.521638
0.340585
0.296755
0.299278
0.536294
0.257088
0.454418
0.338853
0.340939
0.27542
0.381885
0.162123
0.164553
0.34176
0.318727
0.19058
0.354865
0.13497
0.158293
0.138923
0.411679
0.110594
0.27313
0.189709
0.389359
0.402258
0.287177
0.325498
0.33343
0.186935
0.110313
0.20426
0.119455
0.338917
0.320909
0.301461
0.354049
0.3489
0.354069
0.181614
0.313667
0.289614
0.288803
0.289307
0.540271
0.415712
0.299772
0.415821
0.532071
0.523768
0.363376
0.26886
0.499792
0.360253
0.374739
0.370229
0.372146
0.508489
0.360163
0.282656
0.29414
0.31469
0.393211
0.109801
0.145767
0.526974
0.154562
0.2911
0.352566
0.340716
0.396816
0.513473
0.494818
0.359645
0.367181
0.0435199
0.307505
0.375404
0.34381
0.353931
0.183949
0.361256
0.358086
0.10817
0.294263
0.539329
0.33884
0.337036
0.336023
0.363856
0.272049
0.273567
0.107353
0.509224
0.244645
0.232369
0.298698
0.343864
0.366129
0.295383
0.471623
0.487584
0.490385
0.377157
0.506413
0.214283
0.291466
0.310211
0.313781
0.369365
0.340068
0.354006
0.332661
0.333747
0.333846
0.327771
0.378209
0.256399
0.260761
0.514189
0.355625
0.331091
0.354406
0.40355
0.223046
0.300055
0.0662517
0.367144
0.230957
0.513441
0.385883
0.357657
0.335569
0.337388
0.35423
0.335394
0.3576
0.384448
0.320498
0.38678
0.526462
0.34842
0.354615
0.385948
0.312741
0.306044
0.531789
0.342115
0.355343
0.380815
0.18158
0.200882
0.248496
0.230044
0.361843
0.300312
0.273792
0.319549
0.31234
0.294056
0.302852
0.278318
0.28589
0.264538
0.271239
0.251568
0.257998
0.239255
0.245289
0.228036
0.233491
0.218075
0.222921
0.209248
0.213523
0.201561
0.205269
0.194875
0.198102
0.189083
0.191881
0.183933
0.186445
0.179127
0.181507
0.174371
0.176757
0.169493
0.171952
0.16445
0.166992
0.159269
0.161872
0.154044
0.156653
0.148895
0.151454
0.143893
0.146374
0.139039
0.141449
0.134306
0.136658
0.129728
0.131991
0.125466
0.127549
0.12046
0.123069
0.116241
0.118177
0.113207
0.114602
0.110973
0.112042
0.10997
0.195224
0.161093
0.221151
0.213087
0.225672
0.224435
0.226426
0.226152
0.22705
0.226706
0.227852
0.227445
0.228509
0.228223
0.228675
0.228669
0.22826
0.228532
0.227498
0.227899
0.226769
0.227108
0.226227
0.226492
0.224609
0.225773
0.213832
0.221505
0.163452
0.196671
0.112786
0.115032
0.113859
0.117941
0.116386
0.121887
0.119756
0.127147
0.124365
0.132104
0.129842
0.136765
0.134404
0.141557
0.139155
0.146388
0.143967
0.15131
0.148833
0.156376
0.153824
0.161537
0.158952
0.166629
0.164105
0.171488
0.169095
0.176051
0.173806
0.180338
0.178221
0.184505
0.182423
0.18876
0.186605
0.193255
0.190983
0.197962
0.195581
0.20318
0.200467
0.209395
0.206135
0.216967
0.213001
0.225964
0.221284
0.236495
0.231021
0.24889
0.242435
0.263812
0.255962
0.272645
0.281541
0.236628
0.336617
0.315887
0.348006
0.345937
0.344022
0.346577
0.339244
0.341442
0.33607
0.337467
0.334213
0.334998
0.333799
0.340203
0.338395
0.345621
0.342577
0.35328
0.349318
0.357754
0.356617
0.353883
0.285298
0.207932
0.245688
0.186228
0.321954
0.293587
0.373484
0.347627
0.408388
0.394915
0.397801
0.407984
0.364001
0.381442
0.351042
0.360621
0.398127
0.126269
0.365926
0.136992
0.172724
0.151563
0.233649
0.203777
0.269663
0.254996
0.286215
0.279562
0.303013
0.294804
0.335813
0.313135
0.391608
0.366351
0.407071
0.288074
0.32976
0.110557
0.19482
0.330498
0.305373
0.303343
0.329308
0.351576
0.367765
0.377271
0.207233
0.267792
0.203126
0.115699
0.333555
0.35122
0.291223
0.44594
0.212936
0.408669
0.289514
0.537709
0.381158
0.362855
0.513272
0.361699
0.332595
0.477472
0.359819
0.372909
0.371532
0.521143
0.270019
0.0803609
0.0844319
0.321419
0.215705
0.196976
0.439109
0.366119
0.395082
0.362819
0.137754
0.307461
0.0795957
0.297853
0.335953
0.371802
0.195937
0.407315
0.141124
0.299301
0.176571
0.29225
0.332494
0.337902
0.347986
0.440884
0.501158
0.472599
0.407161
0.36239
0.51814
0.245629
0.358014
0.0704082
0.526784
0.309625
0.371443
0.346275
0.351372
0.332737
0.331602
0.331662
0.332898
0.375253
0.38106
0.138512
0.161542
0.233916
0.331609
0.129368
0.139249
0.3278
0.294745
0.293911
0.294448
0.537395
0.335309
0.233116
0.280172
0.282958
0.523833
0.513182
0.486663
0.323162
0.361701
0.354137
0.269652
0.492635
0.326069
0.358194
0.28797
0.357266
0.374155
0.345271
0.46292
0.366459
0.368815
0.380391
0.372492
0.0588536
0.058166
0.162429
0.111746
0.310328
0.246403
0.27893
0.1106
0.100204
0.111753
0.146207
0.296953
0.50155
0.425118
0.507855
0.371281
0.411918
0.509521
0.490173
0.354863
0.350629
0.316504
0.178871
0.348693
0.37413
0.342169
0.351524
0.334071
0.34523
0.37096
0.187192
0.367759
0.09756
0.0889445
0.046376
0.300142
0.535366
0.337839
0.373968
0.455603
0.363169
0.50303
0.22209
0.343491
0.0442419
0.2825
0.354824
0.149228
0.302044
0.473722
0.488463
0.400641
0.324346
0.381201
0.508473
0.502324
0.281347
0.382986
0.323521
0.363556
0.339214
0.351866
0.335285
0.333374
0.131892
0.382753
0.301005
0.0659574
0.0654394
0.139996
0.506738
0.330872
0.045415
0.30755
0.438603
0.455989
0.388486
0.322599
0.330016
0.518759
0.353161
0.337035
0.352385
0.0941121
0.387221
0.133722
0.32171
0.313933
0.524181
0.345728
0.353202
0.388592
0.336637
0.370005
0.0844409
0.223345
0.340111
0.124362
0.173629
0.152527
0.226613
0.200114
0.344355
0.27849
0.253278
0.333478
0.315138
0.292757
0.303954
0.271275
0.281835
0.251361
0.261087
0.232747
0.241951
0.214323
0.223522
0.197058
0.205449
0.181476
0.189032
0.168056
0.174524
0.156599
0.16209
0.146941
0.151558
0.138792
0.142697
0.131905
0.135212
0.125947
0.128832
0.120565
0.123206
0.115445
0.117987
0.110402
0.11292
0.105364
0.107886
0.100302
0.102836
0.0952626
0.0977735
0.0903428
0.092782
0.0856237
0.0879548
0.0811289
0.0833493
0.0768453
0.0789608
0.0728142
0.074791
0.0691008
0.0709354
0.0652086
0.067065
0.0623617
0.0636518
0.0604065
0.0612933
0.0595949
0.109035
0.194415
0.160147
0.22055
0.212412
0.225092
0.223859
0.2258
0.225553
0.226368
0.226052
0.227122
0.226737
0.227748
0.227475
0.227907
0.227901
0.22751
0.227771
0.226789
0.227167
0.226115
0.226425
0.22563
0.225867
0.224038
0.225197
0.213143
0.220904
0.195824
0.0602265
0.0618253
0.0610075
0.0637667
0.0627201
0.0664817
0.0650053
0.0702803
0.0682333
0.0746222
0.0725406
0.0788147
0.0766779
0.0832567
0.0810132
0.0878594
0.085538
0.0926474
0.0902287
0.0976234
0.095115
0.102695
0.100156
0.10772
0.105221
0.112596
0.110179
0.117313
0.114974
0.121911
0.119617
0.126567
0.12422
0.131452
0.128959
0.136742
0.134054
0.142337
0.139497
0.148605
0.145347
0.156176
0.152182
0.165619
0.160649
0.177169
0.171121
0.190991
0.18374
0.20776
0.199001
0.228066
0.217407
0.253046
0.239879
0.284173
0.267829
0.302885
0.266297
0.339547
0.326948
0.343915
0.343926
0.340263
0.342278
0.336744
0.338385
0.334259
0.335374
0.332744
0.33339
0.331856
0.332178
0.331699
0.33185
0.334166
0.333574
0.332536
0.332175
0.333401
0.332955
0.334569
0.333883
0.336713
0.335492
0.340444
0.338328
0.346075
0.343126
0.350962
0.348898
0.345897
0.350805
0.333068
0.174878
0.201623
0.174851
0.364729
0.336028
0.409133
0.389384
0.413254
0.417651
0.379365
0.399154
0.344802
0.359759
0.336842
0.354933
0.245208
0.120811
0.406359
0.201276
0.138625
0.136358
0.128723
0.204864
0.165534
0.278881
0.245414
0.318056
0.301993
0.335042
0.32887
0.343922
0.339392
0.374505
0.355884
0.395501
0.39027
0.390735
0.29319
0.343067
0.474901
0.443726
0.356164
0.229472
0.110042
0.313735
0.31174
0.373296
0.348799
0.333161
0.386234
0.291149
0.199401
0.161632
0.210604
0.192443
0.164007
0.368082
0.254421
0.328073
0.354069
0.300902
0.320886
0.294653
0.532099
0.22272
0.249675
0.348635
0.500717
0.313973
0.328149
0.469845
0.393654
0.35697
0.374011
0.0763077
0.0779419
0.367329
0.37313
0.248226
0.141071
0.340222
0.0583272
0.434158
0.325781
0.0621558
0.0575148
0.059483
0.317981
0.24153
0.0799344
0.361672
0.319195
0.0951155
0.383045
0.207918
0.385153
0.298209
0.374347
0.517544
0.347251
0.352373
0.364929
0.450958
0.500466
0.468085
0.401885
0.372351
0.363834
0.368577
0.281529
0.319258
0.367271
0.376218
0.344352
0.349039
0.334349
0.381433
0.390152
0.26019
0.34682
0.0974084
0.176948
0.0668504
0.289589
0.34242
0.300776
0.299913
0.300499
0.530716
0.337156
0.335321
0.335936
0.373746
0.268462
0.512142
0.49954
0.471019
0.367505
0.367662
0.366267
0.356824
0.36072
0.163436
0.25245
0.486909
0.465488
0.358039
0.373353
0.354581
0.207552
0.354723
0.100419
0.0490262
0.348606
0.115667
0.24489
0.209175
0.109054
0.148588
0.109447
0.303835
0.490147
0.503885
0.392364
0.425439
0.502739
0.300519
0.261588
0.321067
0.486837
0.35144
0.37168
0.343185
0.349262
0.148282
0.326876
0.369093
0.341084
0.349488
0.335512
0.3589
0.352433
0.376767
0.215808
0.375642
0.39314
0.0632141
0.0536568
0.22118
0.285168
0.301904
0.336108
0.348919
0.307033
0.528078
0.34067
0.244792
0.38628
0.439983
0.363006
0.496733
0.206117
0.342861
0.0676644
0.122106
0.372205
0.153885
0.316323
0.309893
0.45968
0.48231
0.424827
0.396849
0.360858
0.497053
0.203451
0.106471
0.38752
0.519013
0.334602
0.318642
0.358217
0.338723
0.350133
0.336879
0.337185
0.158602
0.38667
0.106831
0.131326
0.0520798
0.348412
0.459756
0.341507
0.332014
0.323122
0.51379
0.349656
0.351028
0.389967
0.220818
0.366566
0.377195
0.0792714
0.0722997
0.107124
0.0910056
0.15159
0.126907
0.204627
0.17847
0.22588
0.316968
0.262989
0.274752
0.235725
0.249615
0.208386
0.22185
0.183163
0.195447
0.160444