/*--------------------------------*- C++ -*----------------------------------*\
| =========                 |                                                 |
| \\      /  F ield         | OpenFOAM: The Open Source CFD Toolbox           |
|  \\    /   O peration     | Version:  2212                                  |
|   \\  /    A nd           | Website:  www.openfoam.com                      |
|    \\/     M anipulation  |                                                 |
\*---------------------------------------------------------------------------*/
FoamFile
{
    version     2.0;
    format      ascii;
    arch        "LSB;label=32;scalar=64";
    class       volVectorField;
    location    "0.009";
    object      U;
}
// * * * * * * * * * * * * * * * * * * * * * * * * * * * * * * * * * * * * * //

dimensions      [0 1 -1 0 0 0 0];

internalField   nonuniform List<vector> 
2308
(
(-44.8143 222.765 -4.94728e-16)
(26.5607 40.5573 0)
(-23.9454 279.118 3.31816e-17)
(22.2886 139.05 -1.71427e-16)
(1.67137 182.917 0)
(9.00339 176.636 -5.52523e-19)
(-10.1789 174.133 1.38104e-19)
(-11.9865 180.587 -2.44135e-16)
(-1.1933 185.662 4.45368e-16)
(0.369464 181.026 -5.71903e-17)
(0.366443 178.963 1.00956e-16)
(1.08356 175.545 -1.49225e-16)
(0.867891 173.787 7.40467e-17)
(0.915317 172.239 -3.73284e-17)
(1.01383 171.114 6.37567e-18)
(1.12239 170.252 5.26075e-17)
(1.18208 169.876 7.18726e-18)
(-0.755028 169.8 1.64775e-17)
(-0.49168 169.931 2.19898e-17)
(-0.275874 170.423 1.62817e-18)
(-0.0580305 171.256 1.23968e-17)
(0.00387859 172.446 -3.64312e-17)
(0.269338 174.136 4.65387e-17)
(0.0381249 176.187 -2.15817e-17)
(0.333371 178.614 -9.24101e-17)
(0.926304 180.976 -4.3874e-17)
(0.353754 183.634 2.24471e-17)
(0.761609 186.37 -2.46811e-17)
(-6.31216 175.47 0)
(1.1512 169.778 -1.49342e-16)
(0.801734 188.932 1.31436e-18)
(0.749617 191.53 3.36326e-19)
(0.662789 194.263 -5.73047e-18)
(0.490043 197.065 5.44612e-18)
(0.268147 200.01 -5.7533e-18)
(0.038423 203.113 5.44397e-18)
(-0.162189 206.48 -2.705e-18)
(-0.327286 210.049 2.71382e-18)
(-0.48781 213.908 -2.70144e-18)
(-0.692263 217.985 1.3545e-18)
(-0.999641 222.519 2.70589e-18)
(-1.33676 226.777 4.04067e-18)
(-0.767603 229.463 -8.13681e-18)
(-0.119647 231.33 5.44972e-18)
(0.0299336 234.226 2.70106e-18)
(-0.210238 234.385 -2.73348e-18)
(-0.452437 231.851 2.70204e-18)
(-1.19869 230.033 -4.09139e-18)
(-1.23033 226.77 -4.4192e-18)
(-0.802895 222.243 6.78072e-18)
(-0.532595 217.828 -1.35616e-18)
(-0.365926 213.822 2.72115e-18)
(-0.259342 209.994 6.89997e-19)
(-0.204907 206.439 -4.07176e-18)
(-0.1346 203.063 -1.37004e-18)
(-0.0388708 199.929 2.71742e-18)
(0.105785 196.97 0)
(0.259802 194.186 -3.39202e-19)
(0.37544 191.505 -1.11981e-17)
(0.404719 188.958 -3.86607e-17)
(0.462123 186.478 4.51984e-17)
(0.879505 183.907 4.67973e-17)
(0.540459 181.277 5.36554e-17)
(0.915082 179.057 -2.33865e-20)
(0.90499 176.913 6.06859e-17)
(1.17524 175.025 -1.12169e-16)
(1.51193 173.311 -2.57474e-17)
(1.72801 171.893 0)
(2.10227 170.769 0)
(2.46662 170.004 0)
(2.75671 169.764 0)
(0.0644841 237.408 -1.36574e-18)
(-0.139187 237.482 1.3621e-18)
(-2.05956 169.777 -7.42507e-17)
(-1.76541 170.104 -1.51433e-18)
(-1.22581 171.11 6.01435e-18)
(-0.810859 172.442 0)
(-0.488041 174.235 -1.15464e-17)
(-0.222637 176.252 -1.12879e-17)
(0.0746017 178.552 5.65888e-18)
(0.425814 181.146 2.26645e-17)
(0.500535 183.782 0)
(0.729832 186.329 -5.32955e-21)
(0.88592 188.952 4.1819e-20)
(0.922098 191.617 -5.42337e-18)
(0.847948 194.396 8.13515e-18)
(0.682814 197.276 -3.20068e-20)
(0.444714 200.273 -4.77065e-18)
(0.192855 203.372 0)
(-0.0484043 206.686 -6.79017e-19)
(-0.285077 210.208 4.062e-18)
(-0.530247 214.085 -5.4171e-18)
(-0.87821 218.254 1.07759e-21)
(-1.41893 222.824 5.42484e-18)
(-1.33829 226.469 0)
(-0.253946 228.705 5.42296e-18)
(0.192007 230.945 -1.13595e-20)
(0.276204 234.114 -2.72289e-18)
(-1.2117 170.07 -6.54672e-17)
(0.281489 237.354 -2.71174e-18)
(0.828018 169.945 6.65322e-17)
(2.94085 169.878 -7.5955e-20)
(-0.3354 237.571 -2.73989e-18)
(-0.426958 234.617 3.39997e-18)
(-0.755103 232.438 0)
(-1.33946 230.351 -1.02952e-18)
(-1.05468 226.49 2.38382e-18)
(-0.650299 221.952 2.72684e-18)
(-0.408604 217.701 -2.72304e-18)
(-0.268277 213.793 0)
(-0.206806 210.051 -6.81171e-19)
(-0.204703 206.514 1.36638e-18)
(-0.202478 203.092 3.92614e-21)
(-0.169432 199.907 -1.36488e-18)
(-0.0884036 196.894 0)
(0.0354844 194.113 2.06441e-18)
(0.166962 191.462 -8.18236e-18)
(0.311683 188.909 -5.51346e-18)
(0.512141 186.433 2.22327e-17)
(0.726891 184.026 8.26416e-17)
(0.791467 181.428 6.24922e-18)
(1.06102 178.903 5.94525e-17)
(1.31429 176.625 -2.68533e-17)
(1.71356 174.555 0)
(2.13589 172.746 0)
(2.67697 171.286 0)
(3.2777 170.137 8.94049e-17)
(3.98362 169.345 -1.03375e-16)
(4.63492 168.964 1.05936e-16)
(-17.2939 181.065 -1.95871e-16)
(13.2761 174.589 0)
(8.19801 174.3 0)
(10.4523 174.703 0)
(-4.85618 168.977 1.52108e-16)
(-3.68965 169.198 4.28846e-17)
(-2.80994 169.816 -2.54524e-20)
(-2.03847 170.903 -7.28346e-19)
(-1.45934 172.326 7.2729e-19)
(-0.958884 174.092 5.76299e-18)
(-0.450411 176.151 -1.132e-17)
(-0.0015847 178.464 1.64793e-20)
(0.408071 181.017 0)
(0.779772 183.653 2.50365e-17)
(1.04227 186.268 1.64213e-17)
(1.21929 188.928 -2.71815e-18)
(1.32107 191.679 2.71969e-18)
(1.34708 194.572 0)
(1.29568 197.514 0)
(1.09763 200.535 -3.40183e-19)
(0.663125 203.644 0)
(0.0390467 207.002 2.04323e-18)
(-0.722869 210.588 -2.83375e-22)
(-1.48644 214.579 -1.36027e-18)
(-1.95311 218.974 0)
(-1.7528 223.064 -1.36032e-18)
(-0.652065 225.611 2.04636e-18)
(0.298363 227.859 -3.40189e-18)
(0.519768 230.736 0)
(0.544574 234.062 -5.42479e-18)
(0.527801 237.325 1.35213e-18)
(0.49573 240.838 -1.0064e-20)
(0.272714 240.862 0)
(0.0773134 240.909 -6.79369e-19)
(-0.102318 240.96 -2.20193e-18)
(-8.19101 182.582 2.12503e-16)
(-0.283582 241.012 1.70565e-19)
(-22.9017 179.305 -6.15953e-16)
(-34.4895 174.191 -1.41604e-16)
(2.89521 170.526 0)
(-13.9264 190.904 2.03478e-16)
(-2.4839 182.099 -4.23575e-16)
(-1.43962 170.851 2.71015e-17)
(5.16804 169.173 -1.59996e-16)
(0.462292 244.148 -1.36506e-18)
(0.257961 244.175 -1.3544e-18)
(0.0882838 244.224 -1.70115e-19)
(-0.0664979 244.262 2.73203e-18)
(-0.235717 244.302 1.70642e-19)
(-0.396594 244.359 0)
(-0.453799 241.082 1.36921e-18)
(-0.514646 237.673 2.74957e-18)
(-0.606492 234.883 -6.52202e-19)
(-0.885616 232.88 -2.72359e-18)
(-1.16392 230.449 -3.08347e-18)
(-0.892372 226.213 4.11194e-18)
(-0.633011 221.756 1.37207e-18)
(-0.446876 217.615 -2.74581e-18)
(-0.319486 213.795 2.05779e-18)
(-0.24755 210.103 -5.99006e-19)
(-0.210341 206.597 0)
(-0.227798 203.186 0)
(-0.265761 199.972 0)
(-0.3074 196.92 2.76806e-18)
(-0.313427 194.099 -1.37491e-18)
(-0.250099 191.429 -7.41283e-21)
(-0.124542 188.871 -1.11751e-17)
(0.0610538 186.335 0)
(0.324787 183.834 -1.17754e-17)
(0.719825 181.252 1.21132e-17)
(1.11836 178.675 2.50723e-17)
(1.59718 176.274 1.27868e-17)
(2.19592 174.09 5.11931e-17)
(2.82792 172.224 -5.04483e-17)
(3.59067 170.698 0)
(4.4811 169.48 1.25349e-17)
(5.47663 168.663 -2.52499e-17)
(6.38835 168.342 -5.12233e-17)
(-7.28622 170.358 2.44419e-17)
(-20.2718 241.467 0)
(4.51783 180.967 -5.80802e-20)
(-17.7302 176.541 2.6938e-16)
(-16.291 173.739 -5.69471e-17)
(-14.1885 171.66 6.44088e-17)
(-12.0783 169.929 -1.20892e-17)
(-10.1545 168.603 2.39465e-17)
(-8.44584 167.899 -1.15563e-17)
(-6.87364 167.746 0)
(-5.47351 168.079 -1.1235e-17)
(-4.24165 168.923 -1.13941e-17)
(-3.20543 170.204 0)
(-2.36146 171.767 0)
(-1.6456 173.569 7.11402e-19)
(-0.979382 175.662 -6.38076e-18)
(-0.349953 178.02 0)
(0.180439 180.587 0)
(0.66252 183.267 -8.35191e-18)
(0.995573 185.957 -5.52297e-18)
(1.20289 188.687 1.10069e-17)
(1.31972 191.479 2.75095e-18)
(1.36932 194.43 6.85852e-19)
(1.27639 197.57 2.73272e-18)
(0.939862 201.011 -3.08689e-18)
(0.368146 204.592 0)
(-0.368263 208.281 -1.36229e-18)
(-1.11294 211.979 0)
(-1.59317 215.571 0)
(-1.53415 218.726 0)
(-0.663201 221.626 -5.46836e-18)
(0.386533 224.43 0)
(0.730319 227.528 -3.05816e-18)
(0.789975 230.689 5.10097e-19)
(0.778573 234.077 1.06941e-17)
(0.744845 237.348 0)
(0.703539 240.857 -5.42769e-18)
(0.659233 244.162 8.43563e-20)
(-3.0048 251.562 0)
(-19.4749 186.711 3.34854e-16)
(49.742 220.73 5.31013e-16)
(17.4267 133.944 0)
(-25.4514 277.659 -1.55158e-16)
(-29.0128 179.756 6.98846e-16)
(5.50202 169.931 -5.22229e-19)
(-4.47699 171.374 5.17388e-17)
(-0.545853 244.409 -1.71851e-19)
(-0.611 241.131 -1.37306e-18)
(-0.662378 237.739 1.37468e-18)
(-0.720984 235.028 0)
(-0.810254 233.058 0)
(-0.85286 230.431 1.72271e-19)
(-0.750963 226.036 -6.88408e-19)
(-0.632838 221.59 -2.40749e-18)
(-0.502488 217.465 1.71486e-19)
(-0.375892 213.666 -3.54956e-19)
(-0.269315 210.008 -4.23592e-19)
(-0.210735 206.561 1.90048e-18)
(-0.228335 203.222 1.8053e-19)
(-0.329601 200.066 -1.38031e-18)
(-0.486897 197.033 0)
(-0.62055 194.164 5.57644e-18)
(-0.645203 191.403 1.31678e-20)
(-0.517043 188.733 2.81999e-17)
(-0.244844 186.066 -2.2794e-17)
(0.150144 183.401 0)
(0.686843 180.721 2.39777e-17)
(1.2617 178.095 -7.33661e-17)
(1.94063 175.576 3.71948e-17)
(2.69321 173.307 4.96951e-17)
(3.53437 171.334 2.37452e-19)
(4.55818 169.635 -4.90696e-17)
(5.74505 168.273 4.93454e-17)
(7.04919 167.369 4.98136e-17)
(8.3517 167.004 -4.92932e-17)
(7.2055 168.661 -1.01879e-16)
(-8.12464 192.625 -4.99474e-19)
(-44.0939 158.893 -3.405e-19)
(-22.1909 172.776 -4.71581e-17)
(-19.5942 169.838 -6.22055e-18)
(-17.1221 167.878 -1.83425e-17)
(-14.7094 166.56 -5.98464e-18)
(-12.4566 165.728 0)
(-10.3926 165.425 1.15396e-17)
(-8.4485 165.622 -5.70108e-18)
(-6.75882 166.301 -5.65735e-18)
(-5.30414 167.433 2.86908e-18)
(-4.06744 168.938 2.86122e-18)
(-3.00927 170.693 5.70696e-18)
(-2.11452 172.65 0)
(-1.3427 174.839 5.65084e-18)
(-0.633039 177.276 -5.54854e-18)
(-0.0378598 179.932 -8.79463e-20)
(0.435343 182.725 -1.675e-17)
(0.778055 185.551 1.38461e-18)
(1.0068 188.382 -6.90858e-18)
(1.1044 191.287 0)
(0.989499 194.43 -2.23074e-18)
(0.654661 197.834 1.77225e-19)
(0.191603 201.431 3.09556e-18)
(-0.217629 205.035 0)
(-0.479344 208.637 0)
(-0.475759 211.996 -8.54104e-20)
(-0.151259 215.16 -2.65059e-18)
(0.327881 218.142 2.7379e-18)
(0.750052 221.173 3.41906e-18)
(0.963933 224.228 -6.84768e-19)
(1.02795 227.488 2.04627e-18)
(1.02153 230.714 -6.74388e-19)
(0.99533 234.126 -5.43713e-18)
(0.954898 237.402 5.45091e-18)
(0.91222 240.911 1.22308e-17)
(0.859991 244.211 5.42583e-18)
(0.806834 247.839 0)
(0.613583 247.791 -2.79456e-18)
(0.424498 247.783 6.10469e-21)
(0.250335 247.81 3.0688e-18)
(0.0964902 247.854 1.02068e-18)
(-0.0392601 247.882 -1.3624e-18)
(-0.185425 247.917 2.73136e-18)
(-0.334419 247.97 -2.73137e-18)
(-0.482991 248.025 -1.37129e-18)
(46.2034 230.431 -1.95781e-16)
(26.5062 250.778 -4.57539e-17)
(-98.0254 153.122 -8.13087e-17)
(-26.7896 188.727 -3.38802e-16)
(-37.9874 221.551 -1.66654e-16)
(176.219 222.46 5.09138e-17)
(9.58805 167.244 0)
(7.91604 169.621 2.03633e-16)
(-12.937 197.208 4.98143e-16)
(-22.3944 194.59 2.0326e-16)
(-22.768 224.942 -2.0372e-16)
(0.939317 179.663 4.3065e-16)
(-27.3162 167.678 0)
(-23.896 165.28 6.09915e-18)
(-20.6258 163.668 -1.49418e-18)
(-17.5773 162.755 -2.79502e-17)
(-14.812 162.385 5.82173e-18)
(-12.3021 162.541 0)
(-10.0175 163.188 -6.62799e-21)
(-8.01506 164.271 -1.42131e-18)
(-6.29473 165.748 0)
(-4.83598 167.524 -2.83468e-18)
(-3.58516 169.502 -2.8292e-18)
(-2.52808 171.664 0)
(-1.63014 174.024 7.03397e-19)
(-0.869333 176.605 -7.13774e-19)
(-0.2625 179.397 7.00295e-19)
(0.217717 182.292 1.04826e-17)
(0.609396 185.181 0)
(0.871005 188.114 1.389e-18)
(0.918633 191.233 -6.93212e-19)
(0.733167 194.634 1.72707e-19)
(0.428026 198.177 5.18691e-19)
(0.1728 201.75 -3.11044e-18)
(0.0472177 205.181 0)
(0.125552 208.49 6.8928e-19)
(0.400898 211.614 1.37142e-18)
(0.728991 214.727 1.37416e-18)
(1.01293 217.795 -7.04401e-22)
(1.18442 220.981 -6.82936e-19)
(1.24691 224.166 -2.0524e-18)
(1.25308 227.498 -1.36416e-18)
(1.23244 230.756 -1.36317e-18)
(1.19904 234.179 0)
(1.1564 237.462 -5.45341e-18)
(1.11448 240.977 -5.44357e-18)
(1.0615 244.28 -4.07775e-18)
(1.00536 247.909 -7.46364e-18)
(0.938657 251.229 3.39123e-18)
(0.747232 251.157 -2.71198e-18)
(0.568774 251.11 0)
(0.39237 251.106 1.36633e-18)
(0.231253 251.129 1.36833e-18)
(0.103409 251.164 -2.72327e-18)
(-0.00478748 251.192 2.72494e-18)
(-0.133187 251.225 -5.14745e-21)
(-0.271447 251.274 -1.36162e-18)
(-0.413358 251.331 4.10157e-18)
(-0.573643 251.394 -4.12027e-18)
(-0.646437 248.08 6.90121e-19)
(-0.709747 244.452 -5.13465e-19)
(-0.769243 241.163 1.03549e-18)
(-0.811751 237.75 -3.44011e-18)
(-0.820204 235 1.2856e-18)
(-0.706308 232.988 0)
(-0.531027 230.368 1.73032e-19)
(-0.51024 225.961 2.42044e-18)
(-0.447849 221.461 -3.45407e-19)
(-0.352698 217.292 8.63906e-19)
(-0.269295 213.472 5.85979e-22)
(-0.24711 209.836 3.489e-19)
(-0.309993 206.45 -1.73095e-19)
(-0.457484 203.204 1.21807e-18)
(-0.660916 200.135 -4.16984e-18)
(-0.847119 197.125 -1.79251e-20)
(-0.947158 194.179 2.78241e-18)
(-0.917203 191.256 -2.80735e-18)
(-0.709723 188.396 -2.26224e-17)
(-0.356873 185.57 2.27578e-17)
(0.123176 182.78 0)
(0.709381 180.007 -4.72129e-17)
(1.37726 177.282 3.56767e-17)
(2.16563 174.646 -3.62056e-17)
(3.0583 172.242 0)
(4.14109 170.056 0)
(5.41857 168.139 0)
(6.88359 166.585 -6.02709e-18)
(8.48928 165.492 -4.23557e-20)
(10.1593 164.952 9.63116e-17)
(-3.69466 194.461 -2.23542e-16)
(10.7198 168.06 1.02178e-16)
(8.36107 170.918 -9.56986e-17)
(-8.65746 172.054 1.22178e-17)
(-19.4093 201.793 2.38281e-16)
(-30.518 199.843 2.02541e-16)
(-34.4319 190.257 7.44668e-20)
(-37.6928 181.553 -2.12446e-16)
(-49.4911 149.837 -1.47043e-16)
(-30.7843 170.895 -1.46363e-16)
(-34.5261 163.413 5.24281e-17)
(-30.4759 161.153 -1.22417e-17)
(-26.5654 159.602 -2.38415e-17)
(-22.8129 158.725 0)
(-19.3816 158.482 2.33127e-17)
(-16.3035 158.745 0)
(-13.5354 159.457 0)
(-11.0361 160.598 5.69295e-18)
(-8.84314 162.12 1.41934e-18)
(-6.94368 163.965 0)
(-5.30821 166.044 2.82845e-18)
(-3.91089 168.292 -1.48292e-20)
(-2.73419 170.693 -5.16303e-21)
(-1.74455 173.262 2.82188e-18)
(-0.963688 176.037 3.16042e-18)
(-0.357488 178.97 -3.16415e-18)
(0.142741 181.944 -5.77202e-18)
(0.531676 184.928 1.75096e-19)
(0.73662 188.048 -1.04298e-18)
(0.730228 191.365 3.49306e-19)
(0.612223 194.846 1.39057e-18)
(0.508893 198.323 -1.04368e-18)
(0.516139 201.748 1.38782e-18)
(0.640856 205.022 -4.68406e-21)
(0.858787 208.226 -3.45926e-18)
(1.09314 211.339 1.38906e-18)
(1.28107 214.507 1.38215e-18)
(1.40009 217.664 -2.06397e-18)
(1.45652 220.934 2.75119e-18)
(1.46259 224.168 2.7499e-18)
(1.45436 227.529 0)
(1.4292 230.799 8.23145e-18)
(1.39517 234.237 1.37578e-18)
(1.3561 237.526 1.36997e-18)
(1.31387 241.046 0)
(1.26091 244.355 0)
(1.2073 247.992 4.06679e-18)
(1.14098 251.315 -1.08791e-20)
(1.07387 255.103 -6.8534e-19)
(0.87547 255.012 6.74548e-19)
(0.694639 254.937 0)
(0.520755 254.89 0)
(0.364354 254.877 -6.79387e-19)
(0.220558 254.895 2.04433e-18)
(0.111321 254.93 0)
(0.022976 254.952 -1.37083e-18)
(-0.0873096 254.981 -1.37065e-18)
(-0.212961 255.034 2.73323e-18)
(-0.351314 255.095 -1.37424e-18)
(-0.509375 255.17 4.12656e-18)
(-0.676294 255.25 6.81728e-19)
(-0.740492 251.458 6.87057e-19)
(-0.810267 248.132 1.38027e-18)
(-0.864707 244.488 0)
(-0.91888 241.181 -5.17579e-19)
(-0.951345 237.728 -1.28987e-19)
(-0.935297 234.848 7.83537e-19)
(-0.67411 232.678 -1.62032e-19)
(-0.226713 230.145 -3.41227e-19)
(-0.238366 225.844 -2.77168e-18)
(-0.255196 221.307 6.93845e-19)
(-0.241219 217.146 -1.73428e-18)
(-0.303971 213.4 8.65499e-19)
(-0.451186 209.875 -3.46612e-19)
(-0.686147 206.589 0)
(-0.939646 203.383 0)
(-1.14067 200.261 0)
(-1.22527 197.117 -1.39631e-18)
(-1.19726 194.027 0)
(-1.06083 190.954 -1.6576e-20)
(-0.813613 187.956 1.12607e-17)
(-0.44398 185.011 -5.70941e-18)
(0.0581085 182.099 1.14615e-17)
(0.691212 179.204 3.49863e-17)
(1.43553 176.343 1.97138e-20)
(2.32016 173.547 -1.18573e-17)
(3.3685 170.933 -2.37161e-17)
(4.62047 168.502 4.6975e-17)
(6.11124 166.331 -2.35374e-17)
(7.81338 164.497 -9.67306e-21)
(9.72202 163.069 1.173e-17)
(11.7706 162.164 8.29486e-20)
(11.8173 165.013 -1.46301e-16)
(-7.65321 198.813 -2.29798e-16)
(0.950437 196.583 4.34014e-16)
(109.22 104.852 0)
(13.3118 165.708 -1.00213e-16)
(-44.9341 169.684 3.78859e-16)
(-46.1947 179.776 -2.01794e-16)
(-42.7941 192.913 -3.85568e-16)
(8.94511 171.904 -3.20703e-17)
(-12.1114 176.275 -3.07491e-17)
(-5.53645 173.182 -1.22465e-17)
(11.6064 169.209 3.56612e-19)
(-24.796 207.26 -2.32369e-16)
(-38.2412 203.454 1.93204e-16)
(0.97571 258.431 -6.80063e-19)
(0.788896 258.337 -6.79658e-19)
(0.619307 258.258 0)
(0.458979 258.207 -6.78729e-19)
(0.323538 258.192 6.80014e-19)
(0.212505 258.198 -6.82132e-19)
(0.123952 258.226 6.83149e-19)
(0.0515093 258.246 1.36357e-18)
(-0.0360336 258.28 -1.36452e-18)
(-0.144683 258.334 2.72117e-18)
(-0.270247 258.401 -4.10091e-18)
(-0.416924 258.482 0)
(-0.581111 258.571 -1.16455e-20)
(-0.76907 258.663 0)
(-0.867034 255.336 -4.13706e-18)
(-0.927904 251.527 1.38245e-18)
(-0.994988 248.186 0)
(-1.03942 244.521 0)
(-1.08846 241.195 3.46188e-19)
(-1.10863 237.691 -4.33147e-20)
(-1.07243 234.627 0)
(-0.720985 232.164 -1.73013e-19)
(0.422989 229.821 1.7287e-19)
(1.20732 225.86 6.94063e-19)
(1.05406 221.323 3.4781e-19)
(0.383797 217.194 6.96357e-19)
(-0.474497 213.528 4.46769e-21)
(-1.23241 210.066 -1.39152e-18)
(-1.73982 206.791 3.44504e-19)
(-1.96063 203.51 1.39402e-18)
(-1.95607 200.267 3.54942e-19)
(-1.82076 197.014 -6.95973e-19)
(-1.61369 193.837 1.40399e-18)
(-1.35109 190.692 -4.20357e-18)
(-1.04627 187.599 -5.64801e-18)
(-0.631118 184.514 2.82258e-18)
(-0.0918761 181.444 -5.71354e-18)
(0.56199 178.389 0)
(1.35723 175.362 -1.74597e-17)
(2.28849 172.368 3.52118e-17)
(3.41431 169.512 0)
(4.78773 166.795 0)
(6.43805 164.299 0)
(8.38773 162.088 8.67814e-18)
(10.5848 160.226 -1.92224e-20)
(12.9591 158.817 -1.66516e-19)
(13.8229 161.899 -9.44425e-17)
(7.54873 181.838 -2.26965e-16)
(-12.7984 204.976 1.06137e-19)
(27.026 122.939 1.84497e-16)
(-22.6029 269.5 0)
(-34.826 154.87 -1.13918e-17)
(-29.7649 154.008 0)
(-25.1845 153.749 0)
(-21.1922 154.132 5.75306e-18)
(-17.7096 155.013 -1.15012e-17)
(-14.6403 156.276 0)
(-11.932 157.92 5.70918e-18)
(-9.55963 159.874 0)
(-7.48573 162.076 -1.41956e-18)
(-5.69065 164.464 1.40792e-18)
(-4.15827 166.983 -7.077e-18)
(-2.86165 169.616 9.91529e-21)
(-1.81044 172.409 -2.81755e-18)
(-1.00638 175.379 5.63487e-18)
(-0.371463 178.434 4.20983e-18)
(0.141733 181.508 -4.21698e-18)
(0.503153 184.647 0)
(0.681895 187.938 -2.99162e-21)
(0.733129 191.356 -2.09949e-18)
(0.75569 194.841 0)
(0.822374 198.257 0)
(0.957824 201.6 6.96765e-19)
(1.14294 204.819 2.08711e-18)
(1.33369 208.023 -1.38463e-18)
(1.48835 211.186 1.39018e-18)
(1.58696 214.419 -2.76609e-18)
(1.63866 217.632 -6.91164e-19)
(1.66184 220.94 -5.51439e-18)
(1.6517 224.198 2.76752e-18)
(1.64094 227.572 0)
(1.61228 230.851 -5.49959e-18)
(1.58414 234.294 -2.74115e-18)
(1.54789 237.586 0)
(1.50853 241.115 2.74935e-18)
(1.45611 244.429 2.12245e-20)
(1.40786 248.075 4.10059e-18)
(1.33755 251.404 4.08156e-18)
(1.27206 255.205 0)
(1.16699 258.538 -1.34928e-18)
(6.41895 198.175 -2.13878e-16)
(-3.15674 201.942 -4.38543e-16)
(-7.24183 263.926 6.28975e-17)
(12.1109 170.671 -8.95112e-17)
(-31.8133 213.698 3.92044e-16)
(14.465 166.958 -1.45544e-19)
(-0.97936 258.757 6.92072e-19)
(-1.07775 255.418 3.45341e-18)
(-1.12848 251.595 -2.76546e-18)
(-1.19125 248.244 0)
(-1.22763 244.566 0)
(-1.26968 241.222 0)
(-1.28812 237.665 0)
(-1.27036 234.389 6.97264e-19)
(-1.05415 231.082 -3.44159e-19)
(-0.107203 228.136 1.72535e-19)
(0.920855 225.161 -1.0469e-18)
(1.04812 222.101 6.9362e-19)
(0.538654 218.647 3.49172e-19)
(-0.262623 214.992 -5.211e-19)
(-1.08403 211.131 0)
(-1.72666 207.326 1.47753e-21)
(-2.11207 203.621 -3.48215e-19)
(-2.22466 200.152 3.49232e-19)
(-2.13717 196.81 6.99178e-19)
(-1.915 193.592 -7.8838e-19)
(-1.60525 190.414 7.90801e-19)
(-1.2224 187.253 -2.11119e-18)
(-0.769319 184.059 -4.23864e-18)
(-0.221249 180.872 2.83122e-18)
(0.456869 177.66 0)
(1.27533 174.417 -1.02462e-20)
(2.26887 171.186 -1.74178e-17)
(3.45552 168.039 1.44405e-17)
(4.90285 164.991 -2.90041e-18)
(6.65541 162.098 0)
(8.78019 159.412 -2.86116e-18)
(11.2878 157.026 3.9603e-17)
(14.0403 154.99 -2.19132e-17)
(15.4103 158.027 8.90795e-17)
(9.44029 178.841 4.64716e-16)
(-18.6736 212.543 1.30359e-19)
(1.0781 262.548 -3.31153e-19)
(0.893619 262.427 2.03e-18)
(0.718913 262.319 3.36851e-19)
(0.561137 262.23 0)
(0.416832 262.175 -6.78368e-19)
(0.300473 262.148 6.78784e-19)
(0.207275 262.14 -1.02268e-18)
(0.138145 262.156 -2.37498e-18)
(0.0773466 262.179 2.72341e-18)
(0.00138833 262.218 0)
(-0.0957789 262.283 -1.37092e-18)
(-0.210909 262.363 4.1073e-18)
(-0.350929 262.454 -2.73808e-18)
(-0.511522 262.555 -1.37723e-18)
(-0.689915 262.668 2.06097e-18)
(-0.901999 262.781 -2.74869e-18)
(11.1951 181.92 4.41179e-16)
(-45.5717 207.744 -1.79121e-16)
(-51.6628 192.25 1.82634e-16)
(-53.066 176.775 3.66106e-16)
(-53.1228 163.105 1.73809e-16)
(3.63765 178.36 -7.22154e-19)
(11.9303 176.485 1.31916e-16)
(-41.503 77.9883 0)
(22.6964 131.236 0)
(-35.9106 147.003 0)
(-30.6706 147.183 2.86909e-18)
(-26.0268 147.926 -5.74225e-18)
(-21.9088 149.156 3.13739e-20)
(-18.2785 150.759 1.7209e-17)
(-15.0916 152.657 -1.14467e-17)
(-12.2859 154.847 1.90855e-20)
(-9.81722 157.262 5.67063e-18)
(-7.65422 159.862 -9.9315e-18)
(-5.78034 162.59 1.44425e-18)
(-4.16643 165.388 5.67226e-18)
(-2.8193 168.282 -1.41447e-18)
(-1.7561 171.323 1.40318e-18)
(-0.928316 174.48 -4.23216e-18)
(-0.255314 177.668 1.40786e-18)
(0.26591 180.892 4.20666e-18)
(0.619541 184.208 -2.8063e-18)
(0.82354 187.656 2.80629e-18)
(0.94728 191.162 1.05022e-18)
(1.06136 194.662 2.44108e-18)
(1.20545 198.059 -3.15457e-18)
(1.37405 201.391 2.08664e-18)
(1.53943 204.63 -3.84647e-18)
(1.67385 207.88 -2.77781e-18)
(1.76682 211.094 2.79233e-18)
(1.82078 214.373 1.38758e-18)
(1.84307 217.62 -1.38693e-18)
(1.84729 220.954 0)
(1.83298 224.225 -2.76608e-18)
(1.81643 227.609 1.37511e-18)
(1.79206 230.891 -2.7522e-18)
(1.76546 234.336 -4.12158e-18)
(1.73239 237.634 -2.73671e-18)
(1.70118 241.171 -5.46297e-18)
(1.65137 244.489 1.3595e-18)
(1.6073 248.145 -1.36944e-18)
(1.53587 251.484 -2.72445e-18)
(1.47279 255.301 0)
(1.36311 258.643 0)
(1.27051 262.677 0)
(-3.48635 269.034 0)
(15.6733 162.378 -4.76864e-19)
(12.0494 172.829 4.85763e-16)
(11.2553 199.717 2.11689e-16)
(-8.2571 208.394 2.17063e-16)
(2.85102 204.111 4.28182e-16)
(6.7823 178.936 -2.26661e-16)
(-3.8609 264.482 -5.33889e-17)
(9.58858 223.345 0)
(6.45567 175.859 -2.5667e-16)
(15.3101 168.627 -1.03596e-16)
(16.8726 153.363 -3.94034e-17)
(1.0762 176.247 -6.70354e-16)
(41.4152 234.447 2.04691e-16)
(32.3709 119.738 1.82257e-16)
(19.6887 251.724 -2.89698e-17)
(-1.11591 262.864 -1.37493e-18)
(-1.18829 258.818 -3.45694e-19)
(-1.29005 255.473 -1.0367e-18)
(-1.33282 251.634 -1.64143e-22)
(-1.39281 248.284 0)
(-1.42126 244.596 0)
(-1.45959 241.251 0)
(-1.47891 237.679 -1.74283e-19)
(-1.49345 234.366 -2.19062e-19)
(-1.46728 230.948 2.15186e-19)
(-1.33402 227.807 -1.74761e-19)
(-1.00294 224.691 4.35432e-19)
(-0.569599 221.716 -5.2298e-19)
(-0.205641 218.527 0)
(-0.0858274 215.176 0)
(-0.26003 211.561 0)
(-0.686848 207.854 0)
(-1.22864 204.059 0)
(-1.70889 200.369 0)
(-1.98891 196.794 -1.75316e-19)
(-2.02389 193.401 7.0019e-19)
(-1.83976 190.098 0)
(-1.48302 186.858 -1.75834e-18)
(-1.02539 183.596 3.16693e-18)
(-0.474491 180.27 2.82476e-18)
(0.184925 176.88 0)
(0.992392 173.455 8.58953e-18)
(1.9482 169.983 -8.61006e-18)
(3.12034 166.523 -2.85963e-18)
(4.56933 163.106 5.7528e-18)
(6.31761 159.774 -8.60265e-18)
(8.40515 156.568 4.25437e-18)
(10.8144 153.597 -1.12312e-17)
(13.5055 150.929 2.75749e-18)
(16.4978 148.452 8.52997e-17)
(12.7009 179.911 2.46716e-16)
(-47.9272 221.069 3.32713e-16)
(-38.5544 241.62 1.59581e-16)
(1.11175 266.014 0)
(0.928905 265.875 3.04203e-21)
(0.762793 265.745 -6.80078e-19)
(0.604115 265.628 -3.39958e-19)
(0.465685 265.536 -8.47402e-20)
(0.347673 265.476 8.47698e-20)
(0.258333 265.44 0)
(0.196638 265.423 0)
(0.15188 265.437 1.02147e-18)
(0.107118 265.456 -2.72103e-18)
(0.0509593 265.502 3.40228e-18)
(-0.027571 265.572 0)
(-0.121995 265.654 -2.72895e-18)
(-0.24722 265.748 2.73251e-18)
(-0.392268 265.857 6.80926e-19)
(-0.559364 265.976 6.87601e-19)
(-0.760292 266.09 0)
(-0.962147 266.187 0)
(-8.43798 178.173 0)
(-53.3243 205.045 1.72179e-16)
(-58.6774 186.269 0)
(-59.4562 168.607 -3.60513e-16)
(-58.4955 153.143 1.8123e-16)
(-54.8021 141.848 3.28545e-16)
(-25.5386 271.264 -4.90938e-17)
(-12.3701 230.121 2.00378e-16)
(-42.0184 135.082 5.93756e-18)
(-36.0138 137.562 -4.68843e-17)
(-30.8005 139.39 2.02459e-17)
(-26.207 141.226 -2.3166e-17)
(-22.0841 143.372 -1.00442e-17)
(-18.4149 145.788 1.43893e-17)
(-15.1762 148.418 2.84567e-18)
(-12.308 151.234 -1.4265e-17)
(-9.78295 154.201 8.55137e-18)
(-7.56941 157.278 0)
(-5.63961 160.402 -7.07168e-18)
(-3.9858 163.553 4.26682e-18)
(-2.63417 166.784 7.06677e-18)
(-1.55865 170.107 1.39665e-18)
(-0.691109 173.472 -5.64938e-18)
(0.0120311 176.845 -2.81765e-18)
(0.535007 180.269 0)
(0.883226 183.776 0)
(1.10545 187.359 -7.01511e-19)
(1.27272 190.928 -3.5061e-19)
(1.43062 194.446 3.49724e-18)
(1.5905 197.85 6.83661e-19)
(1.74212 201.202 -2.45829e-18)
(1.8664 204.475 -2.41089e-22)
(1.95592 207.765 0)
(2.00949 211.016 0)
(2.03616 214.325 -2.77619e-18)
(2.03868 217.594 4.18129e-18)
(2.03545 220.943 -1.38869e-18)
(2.01477 224.221 8.87706e-21)
(1.99833 227.611 1.39608e-18)
(1.97457 230.894 1.3852e-18)
(1.95042 234.347 8.26787e-18)
(1.92073 237.645 0)
(1.89372 241.191 4.10702e-18)
(1.84655 244.515 -4.11359e-18)
(1.80435 248.187 2.72344e-18)
(1.7327 251.534 -2.73834e-18)
(1.66966 255.37 2.72401e-18)
(1.5557 258.727 0)
(1.46246 262.786 0)
(1.29389 266.134 -1.3499e-18)
(15.1739 181.591 4.31803e-16)
(17.7677 158.094 -9.10193e-17)
(-35.7987 239.52 -1.67193e-16)
(21.9243 188.814 4.20311e-16)
(19.5929 194.989 -1.78303e-19)
(16.7338 201.425 4.22093e-16)
(17.1443 163.582 9.98863e-17)
(-14.1952 215.93 -4.55854e-16)
(7.864 205.167 0)
(-1.53843 211.425 0)
(27.2057 232.588 -3.18415e-17)
(47.8619 205.186 -2.05685e-16)
(-23.9066 285.827 1.36849e-17)
(5.84337 172.147 -4.02686e-16)
(19.454 140.425 -4.57744e-17)
(14.5433 177.227 -2.74195e-16)
(-4.98573 263.612 0)
(-5.72901 270.622 -2.78638e-17)
(16.4474 143.401 0)
(13.2236 146.653 1.42537e-18)
(10.314 150.067 2.83828e-18)
(7.84594 153.679 1.06521e-18)
(5.76679 157.423 1.78358e-19)
(4.03306 161.205 0)
(2.60082 164.994 3.56733e-18)
(1.45168 168.765 -3.57392e-18)
(0.519052 172.473 1.41477e-18)
(-0.257685 176.099 -2.82661e-18)
(-0.909593 179.613 7.08323e-19)
(-1.45913 183.02 0)
(-1.8534 186.411 1.40442e-18)
(-2.05299 189.836 -7.02897e-19)
(-2.01447 193.394 6.99411e-19)
(-1.74014 197.062 -1.22681e-18)
(-1.31643 200.834 1.42253e-18)
(-0.868596 204.552 -3.30087e-21)
(-0.551233 208.19 -7.4533e-19)
(-0.451681 211.621 3.48417e-19)
(-0.586844 214.93 -3.94308e-19)
(-0.894441 218.053 0)
(-1.26118 221.194 1.74619e-19)
(-1.53181 224.294 -8.72008e-20)
(-1.67189 227.59 -3.46992e-19)
(-1.69988 230.842 3.03095e-19)
(-1.69458 234.302 4.34527e-20)
(-1.6698 237.619 -1.73682e-19)
(-1.6538 241.187 0)
(-1.61597 244.523 0)
(-1.59714 248.211 -6.91228e-19)
(-1.53918 251.556 3.80225e-18)
(-1.4998 255.406 -6.94088e-19)
(-1.40315 258.753 0)
(-1.32916 262.827 2.74763e-18)
(-1.16711 266.161 -6.8712e-21)
(0.419377 272.112 1.47272e-16)
(1.15782 270.482 1.36108e-18)
(0.983418 270.325 0)
(0.805679 270.157 -3.37069e-19)
(0.652773 270 3.39981e-19)
(0.508882 269.863 8.4557e-19)
(0.38817 269.757 -6.77378e-19)
(0.293983 269.682 1.6873e-19)
(0.229248 269.635 3.37742e-19)
(0.192469 269.608 2.37876e-18)
(0.165558 269.609 -3.39535e-18)
(0.13209 269.633 -2.71956e-18)
(0.089732 269.687 2.71505e-18)
(0.0260552 269.766 -3.38798e-19)
(-0.0520302 269.859 6.78103e-19)
(-0.164574 269.968 -2.72837e-18)
(-0.296082 270.094 -6.85777e-19)
(-0.455985 270.228 2.73235e-18)
(-0.645416 270.376 0)
(-0.837244 270.508 1.362e-18)
(-1.03817 270.529 -6.81428e-19)
(16.5389 178.408 2.25536e-16)
(19.2706 152.629 -7.9763e-17)
(23.7479 182.994 -2.08161e-16)
(-13.0653 263.312 0)
(-17.6126 261.955 0)
(-12.7859 254.531 -5.057e-17)
(-2.51473 251.485 -1.31457e-17)
(7.5601 254.547 -1.60015e-17)
(-2.31762 264.714 -3.88178e-17)
(-8.08411 271.489 5.4769e-17)
(-11.2403 275.274 2.98302e-17)
(22.4783 121.238 0)
(10.6513 268.057 -2.99235e-17)
(53.1051 199.049 2.38458e-19)
(61.4235 205.877 1.84235e-16)
(54.6873 210.137 -1.76105e-16)
(27.1192 188.543 -2.0944e-16)
(24.5405 194.876 0)
(21.5574 201.84 0)
(18.2771 165.184 2.09815e-16)
(19.472 180.03 4.21459e-16)
(10.9238 248.616 -3.92712e-17)
(-56.5371 198.64 1.72236e-16)
(-61.4797 176.181 -1.78435e-16)
(-61.6696 156.525 0)
(-60.2911 140.295 -3.79624e-16)
(-57.9942 129.972 1.90678e-16)
(-52.7758 130.646 -2.56596e-16)
(-49.4756 95.0694 -1.57138e-16)
(-44.9633 120.398 4.91149e-17)
(-39.9376 124.207 -5.45688e-17)
(-34.4335 128.091 2.38301e-17)
(-29.5291 131.332 -2.35437e-17)
(-25.208 134.246 0)
(-21.2755 137.258 -1.44451e-18)
(-17.7268 140.486 -2.15791e-18)
(-14.5619 143.875 8.5833e-18)
(-11.7411 147.381 2.8259e-18)
(-9.24577 150.964 -1.42376e-17)
(-7.04044 154.573 5.69735e-18)
(-5.11803 158.169 7.0729e-18)
(-3.49353 161.762 -5.67767e-18)
(-2.17203 165.382 3.52846e-18)
(-1.09925 169.007 -3.54033e-18)
(-0.230003 172.609 -1.40531e-18)
(0.44664 176.201 4.23663e-18)
(0.931082 179.832 7.04777e-19)
(1.25494 183.495 2.80784e-18)
(1.47976 187.162 -2.81911e-18)
(1.65911 190.76 0)
(1.82019 194.283 -7.02092e-19)
(1.96461 197.69 -3.50668e-19)
(2.08377 201.055 -3.49575e-18)
(2.17027 204.346 3.16028e-18)
(2.22242 207.656 -3.49878e-19)
(2.24712 210.923 2.78583e-18)
(2.25109 214.243 -5.23373e-18)
(2.24034 217.515 2.79705e-18)
(2.22832 220.866 1.39106e-18)
(2.2034 224.14 6.94604e-19)
(2.18745 227.529 -1.37531e-18)
(2.15991 230.807 4.15595e-18)
(2.1382 234.26 -4.13347e-18)
(2.10569 237.557 -1.38066e-18)
(2.08065 241.108 -4.12643e-18)
(2.02777 244.438 5.47822e-18)
(1.98868 248.123 -4.11942e-18)
(1.91248 251.474 2.72395e-18)
(1.85036 255.332 -5.4738e-18)
(1.73447 258.695 0)
(1.64313 262.784 2.70834e-18)
(1.46617 266.148 -1.37766e-18)
(1.32663 270.539 -1.36321e-18)
(40.6512 200.151 -4.69443e-16)
(45.3403 195.369 2.18091e-16)
(48.7606 187.287 -2.1827e-16)