/*--------------------------------*- C++ -*----------------------------------*\
| =========                 |                                                 |
| \\      /  F ield         | OpenFOAM: The Open Source CFD Toolbox           |
|  \\    /   O peration     | Version:  2212                                  |
|   \\  /    A nd           | Website:  www.openfoam.com                      |
|    \\/     M anipulation  |                                                 |
\*---------------------------------------------------------------------------*/
FoamFile
{
    version     2.0;
    format      ascii;
    arch        "LSB;label=32;scalar=64";
    class       volScalarField;
    location    "0.074";
    object      epsilon;
}
// * * * * * * * * * * * * * * * * * * * * * * * * * * * * * * * * * * * * * //

dimensions      [0 2 -3 0 0 0 0];

internalField   nonuniform List<scalar> 
7220
(
58967.7
12418.7
13369.5
13940.5
11761.1
12764.3
13324.4
11791.5
13962.9
12790.8
143412
6.04294e+06
52749.8
167114
497554
3.37211e+06
702539
53357.4
302568
61601.7
104458
64696.9
19507
316146
26291.6
512503
1.93991e+07
95498.4
105994
121142
10863.9
99700.7
7721.08
134757
57840.5
34279.3
17041.2
204822
142175
261174
270523
270823
261316
31800
31176.9
30796.4
30656.4
30806.2
280151
290395
290826
280562
301668
314150
314778
302099
328030
342020
344884
329220
355790
369720
376022
360254
377558
358974
390088
391764
305955
244665
270828
345980
184425
128675
125825
192564
85658.5
58359.2
54286.3
79811.8
43232.9
36007.2
35101.2
41262
31230.8
32379.4
32801.7
31465.5
30976.7
33188.9
251988
251970
262575
253364
31379
31117.9
30846.4
30944.4
38703.8
64496.8
47717.7
117852
90023.7
147051
136440
185388
161952
266209
220835
334601
310571
322127
332385
298559
310490
274911
286366
255002
264468
283617
272595
308523
295731
333245
321001
336640
342689
256601
303587
178313
211313
136893
156571
78748.4
109170
42956.9
56311.4
36283.3
34569.6
246284
244687
34199.6
38770.6
31785.4
31248
32774.1
32048
38185.6
32672.6
31800.4
35196.6
57159.5
44446.5
103987
78110.9
129567
123634
129788
130185
134670
130747
161076
143808
230284
190099
303342
274569
294493
304055
272061
283410
249799
260501
238010
231512
240219
242841
243006
234529
226334
236303
253403
243511
276226
264512
298707
287576
296717
306594
216736
260273
155708
180588
134853
141603
131021
132075
115806
128674
65274.8
90650.8
48113.6
32536.6
32404.6
42379.4
54811.6
229983
223503
225068
216522
31570.7
32915.3
32309.9
31870.1
53112.6
34345.3
34455.3
33848.5
37046.6
43604.8
94939.2
70473.7
129684
118122
128505
130746
122295
125374
118384
119863
120874
118400
140945
127514
200491
165023
270031
240985
265561
273555
245596
255783
225630
235197
234013
234304
218702
228121
244937
234755
264298
254841
258784
270309
185316
224278
135088
154571
119894
124614
119424
118633
123977
121338
127614
126685
103107
122319
76342
35129.3
217093
208735
31696.9
33433.6
34576.8
32121.1
38778.1
64803.9
89774.9
49319.3
33290
222146
212927
211406
201562
32220.9
32903.5
35038.6
34054.3
37757.2
37269.8
35655.2
32233.2
51605.4
87482.3
65447.2
129251
112318
132156
133609
124986
128850
117644
121236
111912
114513
108453
109789
110143
108316
126599
115419
178194
147108
241963
214654
239776
246642
231169
209314
222145
215996
225535
225931
220151
201279
218665
209862
234924
226991
229379
239587
163119
197735
120405
136587
108444
112019
108357
107583
112627
110171
119015
115606
126121
122697
127323
128467
115065
38903.4
42111.1
37008.4
37534.3
36972.6
36486.8
204452
193760
107111
126732
81358
40350.6
33178.9
32719.9
33552.9
36363.2
32689.1
40526.1
82517.2
34757.3
44063.6
63534.9
38417.5
128273
107245
136869
136868
130149
133975
122391
126282
114789
118485
108855
111561
104364
106484
101561
102646
103061
101483
117327
107560
163591
135553
221666
196817
219496
225707
203635
211751
195386
202144
196904
214517
208814
217419
217895
204335
212438
186965
194891
182987
198327
190531
212749
205685
207451
216723
148749
179531
110896
125054
100773
103761
100724
100075
104234
102213
109278
106580
116242
112534
123812
120051
131020
127695
132204
50218.5
61346.2
41929.3
44599.8
40782
40264.8
35488.7
32820.7
52125.3
137044
137493
126557
205539
198428
180737
176410
33360.5
34257.1
35516.3
41308.2
45022.5
45770.2
42261.6
38529.5
33452.3
37141.8
33215.4
45998.8
39258
81254.3
127468
104462
142609
140385
136800
140435
128964
132915
120995
124909
114039
117397
108143
110944
103453
105636
99985.3
101589
97929.1
98696.2
99688.6
98034.5
113182
104047
156652
130230
209457
187663
211582
187836
195454
190024
207138
201867
209662
210193
197473
205010
188593
184743
197691
191275
194320
201727
141012
169346
106071
119168
96576.2
99453.1
96243.1
95801.4
98982.3
97394.7
102960
100829
108299
105453
114956
111480
122730
118734
130672
126733
134593
79820.9
103738
53102.7
62888.5
45463.7
47967.5
44573.2
35173.4
64845.1
191012
177776
138956
142682
43055.6
37855.7
33452.3
34027.5
35007.2
36306.1
46819.7
43356.5
66132.9
40186.8
7263.31
37975.3
55150.3
84448
129334
105798
149861
145270
145149
148504
137318
141259
129122
133196
121802
125332
115470
118529
109904
112593
105195
107426
101697
103277
99244.8
100360
98188.8
98472.9
100669
98708.7
114541
105229
157799
131671
205981
187664
199498
205728
192843
181121
183587
189113
183677
200033
195142
202257
202826
190843
197886
174974
182564
171016
170474
178512
191293
184891
190656
195958
140632
168123
106249
119219
96398.6
99516.1
95327.5
95299.7
97072.3
95989.6
100046
98446
104226
101963
109505
106751
115645
112473
122711
119051
130839
126684
134923
128762
144824
142426
81818.3
105134
57438.9
66135.2
52159
53402
52692.8
52116.9
57219
55370.5
48073.2
53824.4
35318.9
8739.37
50139.2
69897.7
34054.6
14515.3
212406
209714
165066
171999
34742.8
49480.1
35772.9
44542.3
41220.3
37128.6
38866.3
10962.7
7832.01
8718.44
9306.48
18449.2
11749.5
41867.4
37941.4
9075.7
41626.9
66587
64479
34548.2
35020.2
47817.4
8694.65
61385.8
12597.8
46911.1
56891.8
10315
66206.4
54887.8
71759.5
67482.3
93661
79862.9
135657
113008
159745
153306
155960
159126
148012
152008
139562
143801
131844
135562
125188
128397
119374
122186
114285
116740
109955
112018
106568
108123
104387
105334
103134
103646
103319
102984
107006
104438
122417
112255
168414
140887
197538
186052
175047
176895
183034
177778
193213
188650
195196
195787
184473
191075
169569
176758
165031
192964
197075
198412
148966
176980
112411
126338
101270
104990
99010.4
99572.6
99502.1
99050.9
101251
100265
104089
102506
108121
105979
113027
110476
118675
115762
125098
121779
132507
128671
140905
136669
148971
144951
154023
152509
132427
149448
86644
107623
66965.7
73834.5
62892.6
63858.8
63264.8
7673.06
8400.22
9984.53
36020.5
34252.3
7683.07
120004
143196
59432.3
203307
186773
8227.43
38516.3
35853.4
35237.4
34693.3
50981.8
12665.8
41941.6
78334.8
79173.5
69702.7
35474.3
45802.9
42308.7
46861.4
4.42013e+06
36569.2
143172
54275
10129.4
37982.9
39823.2
8381.87
7852.9
61375.3
7296.06
7451.39
14384.7
111178
97719.5
150126
129369
174855
167497
171001
174502
162292
166639
153187
157760
144880
148864
137799
141201
131693
134638
126412
128952
121931
124073
118238
119987
115355
116688
113463
114268
112705
112958
112915
112662
114691
113553
120180
116659
139080
126769
191190
160536
228081
219029
224375
179390
196858
169487
170980
177192
172243
186687
182414
188470
189070
178379
184582
164430
171167
159745
159987
180990
165978
207144
213652
212302
168971
197745
126680
143259
112705
117552
108690
110126
107574
107908
107844
107584
109151
108347
111662
110268
115150
113297
119483
117213
124637
121958
130582
127509
137364
133856
145188
141137
154012
149565
162492
158271
166734
165931
141516
160061
100910
119063
81953
88718.2
78909.5
7065.05
7448.02
90841.9
10253.4
9606.31
36845.8
34871.1
7167.24
53802
52491.8
7475.98
7521.54
11555.4
39297.7
105007
102376
81575.6
35413.6
36690.5
35997.9
6958.98
47123.3
13504.7
230515
255777
175642
201823
43450.8
35074.7
42640.3
74399
9941.58
15478.1
18319.8
22200.5
8446.31
36247.9
10190.3
12349.5
6919
63992.3
8655.1
8913.85
47432.3
68870
10427.5
10451.7
9159.47
9039.29
9433.9
37398
40822.2
54739.6
8823.07
38887.1
14225.8
15616.8
11756.3
67011.7
8226.94
14039
7755.13
7434.82
55512.3
16006.6
63931.2
16794.1
174561
156243
196191
189595
190997
195215
181194
186021
171160
176186
162072
166415
154413
158078
147919
151036
142385
145036
137761
139960
134018
135782
131109
132463
128994
129953
127719
128242
127488
127458
128458
127830
130721
129384
134840
132508
143577
138198
169340
152869
196176
218445
173483
190788
164356
165674
171587
166999
180456
176449
182067
182668
172563
178401
159508
165798
155024
155300
160935
245748
205632
234374
153505
174851
133866
140954
126927
129658
123456
124966
121678
122371
121151
121253
121886
121375
123668
122660
126347
124897
129928
128022
134451
132070
139908
137065
146235
142962
153536
149742
162165
157672
172040
167058
181646
176837
186475
185579
162361
179591
124545
142295
112034
8097.13
11466.6
12580.1
11985.6
9171.14
11467.4
12985.8
37723.6
143794
102904
35586
7964.72
8019.31
8939.67
7059.98
7422.7
7110.03
7168.96
7170.54
2.83842e+06
48487.6
91734.4
8369.06
259668
243984
44648.4
10810.7
7616.89
8356.81
7821.2
16042.7
40220.6
15202.8
86149.7
20701.9
10389.3
12680.4
10285.9
10624
36171.8
37564.6
36800.2
10823.5
6958.07
8471.41
7703.09
8708.82
8390.01
7678.74
7747.54
6721.47
6966.27
10145.3
12519.2
12464
19866.8
16156.3
8540.14
43620.3
78288.5
9229.61
8905.37
44970.7
37065.2
12792
9997
10791.2
9409.17
41889.5
48509.4
82874.3
72332.1
10267.8
8182.64
12349.3
15392.3
14485
14260.7
9390.83
38285.7
15112.6
14121.9
13059.9
11562.1
94580.2
92453.4
39856.7
56056.5
8745.45
14688.8
14368.2
13420.5
13611.9
68802.5
8205.71
9461.41
12421.4
15806.4
7843.75
14655.2
57433.9
49914.2
99570
15861.4
12507.2
66873.3
4.69494e+06
220115
212744
216042
220208
205686
210780
195254
200508
185363
190110
176971
180973
169902
173290
163960
166793
159080
161390
155213
157023
152297
153640
150268
151176
149078
149570
148727
148793
149355
148904
151233
150112
154868
152776
160593
157495
168857
164258
184497
175151
223551
199303
298278
259331
321891
212924
256410
168598
185336
159621
160999
166230
162018
174523
170762
175980
176577
167024
172521
154815
160669
150928
150968
171288
156859
240726
197562
309386
270306
299192
202371
232394
171460
183239
158464
163777
151127
154427
145910
148298
142768
144080
141289
141858
141009
141013
141726
141251
143372
142431
145994
144557
149663
147689
154407
151898
160159
157155
167028
163443
175313
170972
185320
180119
196780
190949
208303
202463
216149
213582
197579
211367
161972
179280
149930
45919.1
233258
14629.8
12614.8
7286.32
9400.95
7571.42
14269.3
13474.3
13798.3
13371.3
13201.9
14243.4
13808.4
14900.4
38659.3
105935
90092
11502.5
36345.8
9517.3
7204.72
7090.96
7287.38
22718.1
13434.5
142807
18497.6
17753.4
10537.8
12452.7
16046.8
16763.2
129645
13455.3
9036.41
8644.59
8882.14
8516.97
13632.7
8517.25
10325.3
9401.41
20325.3
41262.4
91034.4
9001.37
8756
12844.8
10591.2
36979.5
38481.1
37654.1
11418.5
7196.08
9106.38
8257.11
8315.94
43026.4
19473.5
323706
377358
239304
314472
22185.5
10223.7
44814.1
28227.6
82763.7
7559.65
7979.42
13328.4
15810.8
10012.3
37928.4
12999.4
10233.3
44914.9
40888.3
30661
49964.8
76283.4
6619.25
9340.96
39224.2
13765.4
12146.9
13036.2
57937.3
8755.35
9603.42
11619.6
13454.4
15678.1
70913.5
8351.24
14265.9
59548.4
51495.3
8162.85
16261.1
47268.2
9339.22
16839.6
8265.81
38696.3
70203.3
13667.5
12375.3
16899.1
13494.1
138025
228198
253136
241568
253402
257056
241597
247675
229978
235863
219020
224325
209216
213921
200984
204917
194147
197399
188657
191244
184413
186384
181321
182730
179278
180174
178211
178625
178088
178032
178928
178382
180876
179746
184202
182342
189624
186536
198568
193687
210499
204080
228020
218268
259516
241084
286051
329535
208695
253831
164576
180963
155290
156972
161138
157312
168885
165357
170199
170789
161759
166934
150400
155805
147342
147005
167803
153390
194288
395217
294748
340103
240446
262678
213736
224972
198032
205059
186964
192115
178760
182429
173895
176024
170820
172180
169063
169792
168411
168608
168786
168469
170223
169369
172770
171360
176485
174477
181361
178769
187630
184295
195658
191417
205668
200438
217501
211340
231161
224170
245947
238413
258922
253604
250899
258355
223799
237548
212847
18205.7
15854.4
16739.8
15027.2
15339.4
13383.7
14667.4
14821.9
13609.3
14984.7
15876.7
15322.3
16799.6
16143.2
17209.3
12521.6
15379.6
15459.3
15562.5
15444.1
15710.2
18807.3
15227.5
143440
8453.6
11738
8808.43
18273.9
20568.2
19312.3
16922.3
17469.5
16442.8
16552
16744.9
16474.7
17901.1
17236.3
18849.8
39650.7
110404
8737.15
92067
12510.1
11418
37163.7
10168.4
7624.07
6904.32
7479.55
7499.25
44221.4
286116
24116.9
297150
45937.6
434357
432716
208602
105736
22258.9
23205
21544.7
101759
18103.8
13233.1
12113.2
10917.6
11006
18703.8
10645.3
13951.4
12469.2
26488.5
42410.7
147865
96397.8
7582.63
7767.79
214745
132003
10773.8
11668.6
12309
10634.1
234416
312710
37826.2
39459.1
38556
11853.3
94885.6
87928.8
101897
7661.46
9749.72
8894.02
9111.49
134874
17138.5
16655.7
18731.4
41968.6
25752.6
211053
19765.5
22042.3
32156.6
13691.8
46177.9
87799.9
6708.49
7468.58
14940.3
14532
13286.8
9974.24
38828.9
12967.7
10953.5
185652
12555.8
40206.4
51676.3
71955
65107.8
80710.8
78113.5
70153.5
6610.53
12430.3
9363.52
11167.9
10915
13204.1
12447.5
15264.5
60121.4
63912.4
67650.6
14763.7
13413.3
8910.94
13577.4
61833.2
53195.5
78451
82466.9
73973.3
71145.7
66030
65009.3
62679.2
63674.8
8628.25
16240.7
48704
8617.85
17523.7
8595.37
17757.4
45465.6
1.74899e+06
8685.53
28026.5
73997.1
315823
203547
331887
333209
335493
318651
327222
301702
310304
284520
293029
269929
276981
257318
263359
246478
251655
237725
241850
230825
234042
225661
228046
222004
223656
219686
220687
218573
218985
218604
218447
219779
219047
222191
220819
226048
223913
231767
228642
240230
235522
254022
246431
272303
262574
297618
283685
338473
315525
401348
366687
531964
451403
606643
335793
462667
205674
254025
161013
177377
151363
153363
156342
152929
163538
160242
164715
165299
156778
161635
146317
151237
144041
143420
164757
150188
239823
192038
443963
318349
602957
477171
562304
372736
413967
316175
341573
280070
295882
257001
267504
239759
247875
227222
232761
219362
222910
213854
216368
210069
211777
207663
208707
206484
206925
206484
206339
207675
206927
210077
208737
213753
211748
219035
216139
226615
222508
236747
231411
248968
242621
263148
255845
279753
271049
299291
289164
321354
310410
329245
328904
321805
17495.5
18357.3
16662.4
16983.5
16248.3
16434.1
14386.2
15882.5
16071.3
14598.4
16196.3
16636.4
16393.3
17514.4
16978.4
18399.4
25843.2
24401.8
20279.4
20929.6
19834.6
19851
20165
19958.7
21038.5
20482.6
22011.4
40633.9
15027.9
11415.6
16003.5
11391.3
22089.2
24304.5
23085.3
20948.2
21367.7
20912.7
20815
21660.6
21200
23200.5
22322.2
24478.6
40719.4
116146
7618.56
73336.6
92876.9
11139.2
11396.4
259275
341375
38023.8
77752
10749.3
149489
121310
8194.38
8201.9
111607
368600
18609.1
32100.7
33822.3
370169
319179
43099.7
27401
261263
7935.23
36731.7
27455
228555
81233.1
393523
25699.3
27530.3
28945
7706.91
20199.3
15839.6
16455.4
27134.3
14732.5
20198.7
17884.8
43662.3
155632
102621
6811.22
7200.56
130171
9730.65
10933
12260.3
10633.7
429366
38717.7
40496
39502.3
67760.3
73988.5
137048
12063.4
93901.7
8183.44
10276.8
9478.03
9890.2
103601
149370
12523.7
85541.6
41233.6
61701
667510
762180
438810
590478
31582.2
33134.7
61027.4
49535.9
20311.5
47686.4
93572.4
349992
3.74297e+06
89933.4
6534.13
10334.5
325468
197441
11406.1
13189.1
9995.37
15500.4
10726.9
39770.7
62631.5
12722.2
78484
7119.92
11434.8
205533
14729.9
431816
427125
107125
53569.4
85738.6
73620.7
12266.4
15673.8
14226.1
9496.22
12808.6
28953.9
12490.9
68969.5
64133.6
55058.4
62579.9
735873
65950.7
13289
9149.43
15814.5
64760.8
50228.4
8238.87
17848.2
16020
14458.1
8984.94
18254.5
46777.3
19026
66674.2
8997.2
44286.1
7431.26
37122.7
499003
262242
581325
321326
491795
455841
474657
416649
435641
389701
401596
367630
378601
346751
357031
328626
337216
313704
320758
301555
307264
292193
296542
285207
288411
280340
282533
277262
278593
275768
276327
275740
275573
277166
276272
280118
278443
284789
282219
291592
287890
301201
295994
315030
307401
336611
324807
364735
349849
402662
381933
461368
428711
542315
499859
593544
619750
338463
464845
203918
255498
157797
174354
147793
149984
151875
148910
158473
155424
159514
160091
152094
156620
142580
146995
140988
140137
162372
147396
240549
190909
318293
773586
615982
709592
508995
554573
433046
468672
380444
403703
345640
361622
318994
331601
299267
308069
286382
292244
277117
281389
270386
273480
265593
267778
262410
263815
260669
261366
260342
260327
261274
260634
263587
262248
267714
265346
274706
270773
285055
279504
298197
291280
313676
305678
331772
322355
353594
342088
380944
366526
413758
397059
426927
27120.1
21657.5
23780
19505.4
20331.9
18678.1
19000.5
18225.1
18438.5
17791.6
18016.4
15454.2
17300.7
17555.8
15847.3
17797
18199.4
17995.1
18665.3
18412.7
19516.6
19003.1
21762.6
20366.8
23995.1
30150.7
26625.8
26949.3
26610.3
26521.9
27154.4
26833.5
28333.1
27608.5
31776.5
29502.6
36006.6
22705.7
17401.7
23233.9
16103
30205
32241.3
31646.4
27965.5
28936.5
27233.2
27363.8
27793.1
27413.8
29031.8
28328.6
30989.9
29890.9
34930.1
32523.3
167224
41862.1
123181
6966.4
76407.6
95070.5
10305.9
11389.2
470209
38922.2
70333.6
387176
279874
11151.4
108817
8781.8
8977.82
122776
125260
13391
42310.9
61762.8
36687.5
128347
2.36184e+06
101638
7301.82
88877.5
795408
758372
29537.1
34781.8
37988.1
41819.3
34652
26943.1
28279
41740.8
22443.8
31156.1
27665.2
62993.9
55823.1
45004.2
166516
109799
99647.1
488147
180346
216310
6599.45
7011.94
131426
10506.2
12210.5
10659.3
25732.4
11789.5
39651.1
41590.7
40500.2
63370.4
4.43107e+06
349622
184587
67407
71075.2
12075.4
67189.5
88910.6
9948.82
7995.82
10470.4
541695
166675
14349.1
572802
596710
418323
74736.8
32049.9
45663.1
115152
50915.8
49305.6
100112
413648
293173
102117
82435.2
191920
6916.49
2.49855e+06
197243
11279.7
13082.2
10090.3
441161
97827.3
12335.8
26170.2
40755.6
60606.5
17588.5
20321.7
20087.9
12313
224514
204321
52159.7
74980.4
4.88535e+06
1.48027e+06
10434.5
57055.9
11707.5
55641.8
77506.1
86474.4
231733
92002.6
70059.1
371330
237518
508854
322847
12189.6
14052.3
9680.79
20602.4
18705.7
18097.9
96546.4
15108.8
150567
115539
67419
10840.7
51863.5
7659.24
85370
77605.1
65439.9
780382
226296
2.87062e+06
65597.7
17774.8
13192.8
16990.5
15192
9431.52
16537.7
10863.1
18237.1
48152.3
19945
70486.3
14321.7
9347.35
20148.1
45531.6
43441.9
62549.6
15671.1
9402.04
78007.9
3.76301e+06
328831
535167
465494
455026
648542
592464
528516
744396
655195
697079
583808
616998
531540
555204
495974
512065
466325
481339
438024
451533
414842
425593
396879
405264
383126
389541
372978
377636
365756
369021
361063
363117
358567
359555
358094
358085
359605
358600
363164
361123
368956
365759
377385
372808
389134
382787
405330
396584
428382
415716
462406
444099
505240
482636
562551
531274
645728
600844
747106
694770
875024
804655
982848
954882
936385
596510
761572
336203
452949
203373
255861
155100
172203
144490
146914
147785
145274
153696
150933
154592
155157
147743
151901
139214
143128
138290
137082
160990
145232
240071
190803
425731
315671
711094
559766
879772
964341
943595
826089
908683
708079
762568
610255
657570
533654
568432
481036
505220
440348
459666
408861
423175
387515
397233
372068
379212
360596
365907
352103
356019
345993
348770
341898
343713
339643
340576
339025
339139
340108
339367
343343
341374
350221
346238
361246
355248
376154
368242
394814
384976
417837
405755
445409
431065
478660
461004
521651
498850
546820
29052.4
33683.7
24046.8
26002.7
22035.9
22813.3
21237
21554.5
20766.5
20994.8
20290.5
20531.4
19769.4
20038.6
19464.1
20763.6
20544.2
21239.1
20987.4
22044
21560.1
24142.7
22846.1
26224.1
43080.4
40732.6
42196.2
39230
36713.8
36632.2
37256.4
36959.8
38025.8
37615.5
39429.4
38568.8
43282.4
40786.5
47917.5
49905.8
62646.2
29982.2
35765.4
24852.2
39577.1
41675
37174.3
38118.3
37147.7
36901.7
38512.8
37730.3
40379.4
39416
42805.8
41470.5
47376.2
44587.8
50554.5
43067.4
132074
352358
176323
6768.52
80066.1
98775.7
9821.39
11385.2
101940
104319
24538.9
15406.8
52653.7
54550.4
201219
706651
1.0763e+06
128744
6.96133e+06
817800
39865.5
64914.4
78027.3
249079
75824.1
11343.7
122455
104099
9365.15
8920.77
9594.21
137297
244403
182424
110959
14734.7
8.0711e+06
281559
116933
48890.6
496865
1.98323e+06
590544
610681
657263
52106.8
71277.6
78127.5
62279.9
63859
35198
43832.6
54488.8
46412.7
245134
179859
118064
213327
119481
95513.5
145781
6850.61
108623
162210
10782.2
484915
98652.5
135175
10435.9
12158.2
10713.1
20328.5
23645.7
23449.8
20100.6
103659
99722.9
43483.9
40849.5
23539.8
12879.9
24528.6
657059
388217
40619.8
42759.6
41560.3
60408.3
19835.6
7.25194e+06
77689.5
307382
62536.2
65021.3
72737.1
8938.36
11986.5
104594
193972
83807.1
11243.7
59100.1
609724
10294.2
7648.11
116135
100901
10926.1
9596.46
77933.3
89453.2
1.19123e+06
1.12224e+06
657302
805186
44613.3
56060.1
56608.7
71766
79977.6
49519.8
56346.5
51029.9
96962
67138.9
189053
107904
325739
113649
76771.6
167876
8106.89
201331
526529
8668.97
11254.7
12962.8
10214.9
17791.8
123248
92390.3
37935.7
14460.7
44147.1
1.01413e+06
1.03569e+06
41789.1
59670.3
17366
61173.6
70159.6
11772.8
71948
900812
53599.8
2.75799e+06
18387.7
101452
91836.3
57929.8
96078.5
262429
100330
716360
498335
81925
67986.4
209034
17388.7
332015
12144.6
13854.4
9888.21
16136.4
89929.8
61889.2
17789.9
3.36721e+06
634971
597167
321224
66794
49598.4
1.9663e+06
68659.2
94658.5
399764
20410.4
800649
556915
75865.7
13104.3
14888.3
9718.18
94413.8
20727.8
282075
46838.3
44631.4
64668.1
14184.9
9693.69
21759.1
124691
110470
162076
1.1589e+06
9583.88
519201
761690
667906
950761
854641
806211
1.22407e+06
1.06713e+06
871922
1.17591e+06
997793
1.07833e+06
869640
929043
775346
818989
707951
739041
656978
680947
611626
633704
573260
591327
543676
557451
521476
531770
504936
512557
493160
498502
485262
488760
480764
482613
479347
479681
480901
479751
485469
482806
493183
488914
504403
498322
519787
511518
540436
529362
568150
553252
606774
585699
659690
631785
723468
689969
807548
761864
917666
860563
1.03214e+06
975476
1.14784e+06
1.08879e+06
1.1959e+06
863942
563389
707817
331565
436054
203622
254801
153233
171285
141415
144306
144103
141956
149262
146831
149997
150543
143789
147542
136120
139660
136141
134288
160869
144028
238304
190936
407024
309890
524338
1.05472e+06
1.18606e+06
1.14187e+06
1.10462e+06
1.16321e+06
990065
1.04636e+06
875075
932821
769745
819449
692215
727902
631480
660486
581649
604873
545998
562303
519839
531995
500024
509258
484940
491968
473626
478860
465436
469156
460092
462424
457134
458300
457005
456727
459897
457972
467661
463076
480664
473496
498946
489178
522823
510046
554049
537363
593607
572906
639229
615587
693643
664924
758934
725246
827318
793599
31828.6
36322.1
27176.3
28975
25337.8
26052.6
24578.6
24881.6
24109.1
24336.8
23613.5
23866.7
23073.3
23349.2
23248.5
22826.6
23744.1
23223
19462.8
19705.8
22596.7
22961.6
23069
22635.7
23647
23378.2
24127.8
23893.7
24589.6
24351.7
25342.5
24887.8
27235.1
26069.6
32134.7
29117.9
36953.3
55751.9
57482.2
53977.3
53240.8
52517.6
54599.2
53973.7
55633.1
55142.1
57083.9
56149.6
61232.6
58569.7
65887.9
94686.5
1.49036e+07
46768.3
55194
39082.4
62031.2
72621.6
67566.6
54687.9
57561.6
52247.5
52977.2
53351.1
52515.4
55962.5
54610.8
58605.1
57317.1
61431.2
59926
66422.1
63480.1
70824.3
44347.3
142537
158354
115608
6958.77
839988
49973.4
84342.2
103983
1.52287e+06
11386.6
19898.2
102117
15692.2
23426.4
23588.6
442379
814630
737481
116966
991487
1.17201e+06
1.30579e+06
861573
615837
40854.1
61036.1
1.6568e+07
51986.2
222099
68481.3
5.05207e+06
118182
96876.6
128494
9869.62
8457.86
192002
182813
10208.1
110641
1.84093e+07
392657
104711
929397
104534
1.29919e+06
584940
1.02724e+06
957716
910126
75733.2
733804
162873
128411
79863.8
104021
63348.1
77481.9
47909.3
241264
155855
262829
195713
127847
237522
137542
87187.8
128030
7448.25
7555.55
105657
1.13854e+07
141546
9222.97
10480.2
12097
10768.1
17564
99411
96355.2
22842.4
14530.2
40602.4
609849
505826
2.1827e+06
399459
41635
44025.5
42685.2
58579.3
17095.9
17209.5
17013.4
1.59604e+06
272077
58982.4
60480.1
66152.3
114565
132153
8600.72
11172.8
11677.4
445756
207921
78895.7
629936
55445.3
8785.79
9794.32
4.39172e+06
10490.2
242160
1.27944e+06
98937.9
82451.2
7.75666e+06
103604
103278
76899.1
109544
52861.6
110840
215618
117141
356656
124821
1.44467e+06
2.59078e+06
1.53739e+06
72557.2
143703
16884.2
16880.8
2.91594e+06
264385
211210
11258.5
12827.8
10347.7
15853.8
11277.3
105913
87178.2
35073.6
17126
91139.6
591042
1.91799e+06
2.00188e+06
3.27355e+06
2.85945e+06
2.62638e+06
2.24476e+06
42871.6
59594.1
15487.4
139279
68936.4
64035.4
11174.6
69718
189088
51120.7
678646
385664
1.77393e+06
104365
72353.3
60407.5
108756
315470
107655
550556
922713
67535.9
7.08266e+06
60338.8
20457
86962.4
350157
665632
12109.4
13632.3
10093.7
14601.3
82933.3
54552
20718.8
90823.5
276376
1.93862e+06
149248
519624
597949
48226
45876.2
67982.5
13015.8
9988.91
23054.3
149405
156145
149260
936564
816109
1.17984e+06
1.05297e+06
1.482e+06
1.31848e+06
1.92458e+06
1.68273e+06
2.2186e+06
3.02878e+06
1.59496e+06
1.75472e+06
1.3568e+06
1.46552e+06
1.18676e+06
1.26501e+06
1.06292e+06
1.12039e+06
968925
1.01273e+06
891225
928958
826875
857079
776120
800027
736686
755067
707294
720845
686227
695826
672327
678446
664542
667723
662140
662701
664678
662810
671963
667727
683959
677371
700861
691771
723212
711305
752023
736726
788935
769332
836590
811182
900155
865954
979416
938551
1.06957e+06
1.02265e+06
1.18319e+06
1.12262e+06
1.30898e+06
1.24721e+06
1.41246e+06
1.36481e+06
1.47567e+06
1.45063e+06
1.41427e+06
1.47185e+06
1.18315e+06
1.30747e+06
1.06366e+06
787584
930073
525377
650318
321994
413284
203253
251992
152347
171401
138684
142400
140790
138877
145309
143208
145875
146395
140306
143676
133224
136503
134738
131896
160858
143611
234747
189670
382141
298871
601149
484241
865457
730948
993284
1.22517e+06
1.10357e+06
1.43237e+06
1.34468e+06
1.45007e+06
1.46372e+06
1.37384e+06
1.41706e+06
1.26264e+06
1.32183e+06
1.13597e+06
1.19917e+06
1.02911e+06
1.07881e+06
942545
984322
866362
902892
807236
834596
762353
783382
727184
743724
699375
712468
677432
687745
660453
668379
647950
653678
639584
643261
636003
637149
637836
636238
646713
641314
663137
653996
687057
674192
719217
702024
761622
739058
816723
787569
883994
849472
958331
919693
1.04445e+06
1.00022e+06
1.14084e+06
1.09121e+06
1.2756e+06
1.19872e+06
1.3688e+06
46696.7
57958
35608.3
39831.5
31403.7
33010.5
29772.7
30410.9
29065.7
29352.5
28602.2
28825.4
28124.6
28375.1
27633.5
27869.9
27782.1
27566.4
28114.9
28078.5
27751.7
27977.5
27271.1
27492
27567.6
27305.7
28138.5
27864.7
28641.7
28398
29089
28868.5
29773.3
29363.3
31424.5
30411.5
35751.4
33072.5
47296.7
40126.2
78625.9
59075.8
111669
94026.4
106069
81279.4
84986.8
348659
78958.4
78568.4
381067
81653.7
80107.2
84305.8
83109.6
85603.3
85154.8
86781.1
86073.4
91000.1
88287.2
103710
95773
194891
3.93775e+06
36032.2
88753.4
90235.2
69898.4
89334.8
96187.7
80178.4
83784.1
78264.9
78254.7
81198.6
79274.5
85911
83561.4
89498.4
87866.3
92562.3
90958.9
98374.7
94745.9
104345
45724.7
9311.58
155158
177897
243870
2.86828e+06
3.25728e+06
103126
7448.17
10621.9
399134
89113.2
110620
9845.61
11382.3
17377.2
98517
16501.8
37988.9
160739
419181
532888
419832
1.00105e+06
875100
1.26187e+06
1.12854e+06
1.56578e+06
1.40744e+06
1.91759e+06
1.73485e+06
2.42377e+06
2.11756e+06
2.89496e+06
2.56619e+06
2.37246e+06
632588
41888.4
58365.5
16847.1
98560.8
195946
62916.4
162396
434646
332825
142609
8698.73
11062
705925
11468.8
121867
89202.6
57194.6
31745.7
999408
1.01113e+06
88819.4
103848
164448
2.13433e+06
10147.1
4.21318e+06
2.54563e+06
93438.7
1.48242e+06
500684
1.5217e+06
719234
101904
1.15442e+06
3.15211e+06
3.45732e+06
336751
234752
173410
138912
185505
117994
145767
80854.7
114559
49514.8
129996
178396
284102
215375
139529
261294
153552
2.09686e+06
1.75153e+06
80296.2
112036
85500.2
24115.7
8190.43
95699.8
3.56689e+06
256856
151193
9664.53
67895
74039.7
9187.65
10498.7
12023.7
10828.7
15639.9
92457.4
91209.5
22807.7
16829.6
665002
1.0717e+06
625591
556059
106102
76388.5
1.56306e+06
937321
1.01468e+06
677812
1.0452e+06
1.46413e+06
101470
1.96592e+06
971058
425632
42696.7
45400.2
43877.5
57668.7
15303.3
15324.6
15211.7
977239
245639
56467.9
57103.3
61025
11252.7
206772
74762.3
57930.5
248653
1.1943e+06
4.07698e+06
18751.7
1.31404e+06
1.17231e+06
783260
900564
81882.2
115904
122571
76452.5
193582
79852.2
54790
126553
253036
127041
390078
135451
1.00104e+06
70086
34295.2
115263
8194.19
20094.1
10848.1
165768
227882
88255.1
11274.5
12678.6
10475.7
14369.5
94326.8
80496.6
33053.6
20275.5
84785
382483
281831
103502
655020
169516
4.21232e+06
1.56821e+06
965168
1.56632e+06
178588
204449
43996
60523
14047.7
10017.2
22921.1
325192
59363.8
10580
95292
63108.7
124775
380889
613583
15787.1
68785.2
5.35695e+06
280318
378398
49702.4
47174.6
72124.5
12076.7
13424.9
10283
75030.2
50616.7
23718.3
151798
436289
8130.24
2.08215e+06
2.26887e+06
237913
210268
211899
107176
97924.3
9014.36
10904.2
3.89442e+06
3.60977e+06
468622
493453
1.71749e+06
129645
91582
120286
1.10499e+06
1.46974e+06
1.27382e+06
1.92553e+06
1.69148e+06
2.47852e+06
2.17764e+06
3.19365e+06
2.83231e+06
3.92546e+06
3.5742e+06
4.56208e+06
4.25594e+06
4.83514e+06
4.7927e+06
102383
4.00918e+06
4.08532e+06
677099
2.98048e+06
3.19899e+06
2.52128e+06
2.7575e+06
2.12206e+06
2.30632e+06
1.8313e+06
1.96533e+06
1.62003e+06
1.71784e+06
1.45692e+06
1.53436e+06
1.3239e+06
1.38716e+06
1.22045e+06
1.26873e+06
1.13572e+06
1.17576e+06
1.06853e+06
1.10017e+06
1.01669e+06
1.04071e+06
979788
996415
956691
966613
945788
949831
945312
944354
953684
948476
969775
960819
992982
980506
1.023e+06
1.00713e+06
1.06014e+06
1.04064e+06
1.10521e+06
1.08161e+06
1.15961e+06
1.13113e+06
1.2254e+06
1.19092e+06
1.30564e+06
1.26345e+06
1.40482e+06
1.3527e+06
1.51418e+06
1.45941e+06
1.62768e+06
1.56965e+06