/*--------------------------------*- C++ -*----------------------------------*\
| =========                 |                                                 |
| \\      /  F ield         | OpenFOAM: The Open Source CFD Toolbox           |
|  \\    /   O peration     | Version:  2212                                  |
|   \\  /    A nd           | Website:  www.openfoam.com                      |
|    \\/     M anipulation  |                                                 |
\*---------------------------------------------------------------------------*/
FoamFile
{
    version     2.0;
    format      ascii;
    arch        "LSB;label=32;scalar=64";
    class       volScalarField;
    location    "0.488";
    object      nut;
}
// * * * * * * * * * * * * * * * * * * * * * * * * * * * * * * * * * * * * * //

dimensions      [0 2 -1 0 0 0 0];

internalField   nonuniform List<scalar> 
24240
(
0
0
0
0
0
0
0
0
0
0
0
0
0
0
0
0
0
0
0
0
0
0
0
0
0
0
0
0
0
0
0
0
0
0
0
0
0
0
0
0
0
0
0
0
0
0
0
0
0
0
0
0
0
0
0
0
0
0
0
0
0
0
0
0
0
0
0
0
0
0
0
0
0
0
0
0
0
0
0
0
0
0
0
0
0
0
0
0
0
0
0
0
0
0
0
0
0
0
0
0
0
0
0
0
0
0
0
0
0
0
0
0
0
0
0
0
0
0
0
0
0
0
0
0
0
0
0
0
0
0
0
0
0
0
0
0
0
0
0
0
0
0
0
0
0
0
0
0
0
0
0
0
0
0
0
0
0
0
0
0
0
0
0
0
0
0
0
0
0
0
0
0
0
0
0
0
0
0
0
0
0
0
0
0
0
0
0
0
0
0
0
0
0
0
0
0
0
0
0
0
0
0
0
0
0
0
0
0
0
0
0
0
0
0
0
0
0
0
0
0
0
0
0
0
0
0
0
0
0
0
0
0
0
0
0
0
0
0
0
0
0
0
0
0
0
0
0
0
0
0
0
0
0
0
0
0
0
0
0
0
0
0
0
0
0
0
0
0
0
0
0
0
0
0
0
0
0
0
0
0
0
0
0
0
0
0
0
0
0
0
0
0
0
0
0
0
0
0
0
0
0
0
0
0
0
0
0
0
0
0
0
0
0
0
0
0
0
0
0
0
0
0
0
4.06427e-07
4.09416e-07
4.09755e-07
4.10102e-07
4.10478e-07
4.10863e-07
4.11265e-07
4.11655e-07
4.12059e-07
4.12439e-07
4.12805e-07
4.13139e-07
4.13427e-07
4.10964e-07
0
0
0
0
0
0
0
0
0
0
0
0
0
0
0
0
0
0
0
0
0
0
0
0
0
0
0
0
0
0
0
0
0
0
0
0
0
0
0
0
0
0
0
0
0
0
0
0
0
0
0
0
0
0
0
0
0
0
0
0
0
0
0
0
0
0
0
0
0
0
0
0
0
0
0
0
0
0
0
0
0
0
0
0
0
0
0
0
0
0
0
0
0
0
0
0
0
0
0
0
0
0
0
0
0
0
0
0
0
0
0
0
0
0
0
0
0
0
0
0
0
0
0
0
0
0
0
0
0
0
0
0
0
0
0
0
0
0
0
0
0
0
0
0
0
0
0
0
0
0
0
0
0
0
0
0
0
0
0
0
0
0
0
0
0
0
0
0
0
0
0
0
0
0
0
0
0
0
0
0
0
0
0
0
0
0
0
0
0
0
0
0
0
0
0
0
0
0
0
0
0
0
0
0
0
0
0
0
0
0
0
0
0
0
0
0
0
0
0
0
0
0
0
0
0
0
0
0
0
0
0
0
0
0
0
0
0
0
0
0
0
0
0
0
0
0
0
0
0
0
0
0
0
0
0
0
0
0
0
0
0
0
0
0
0
0
0
0
0
0
0
0
0
0
0
0
0
0
0
0
0
0
0
0
0
0
0
0
0
0
0
0
0
0
0
0
0
0
0
0
0
0
0
0
0
0
0
0
0
0
0
0
0
0
0
0
0
0
0
0
0
0
0
0
0
0
0
0
0
0
0
0
0
0
0
0
0
0
0
0
0
0
0
0
0
0
0
0
0
0
0
0
0
0
0
0
0
0
0
0
0
0
0
0
0
0
0
0
0
0
0
0
0
0
0
0
0
0
0
0
0
0
0
0
0
0
0
0
0
0
0
0
0
0
0
0
0
0
0
0
0
0
0
0
0
0
0
0
0
0
0
0
0
0
0
0
0
0
0
0
0
0
0
0
0
0
0
0
0
0
0
0
0
0
0
0
0
0
0
0
0
0
0
0
0
0
0
0
0
0
0
0
0
0
0
0
0
0
0
0
0
0
0
0
1.24673e-07
2.10652e-07
2.097e-07
2.0972e-07
2.0974e-07
2.09765e-07
2.09791e-07
2.09819e-07
2.09847e-07
2.09875e-07
2.09902e-07
2.09927e-07
2.09953e-07
2.09976e-07
2.10002e-07
2.10021e-07
2.11003e-07
1.24778e-07
0
0
0
1.59589e-08
2.0786e-08
2.01934e-08
2.01929e-08
2.01925e-08
2.01921e-08
2.01916e-08
2.01911e-08
2.01906e-08
2.01902e-08
2.01897e-08
2.01895e-08
2.01893e-08
2.01897e-08
2.07798e-08
1.5944e-08
0
0
0
0
0
0
0
0
0
0
0
0
0
0
0
0
0
0
0
0
0
0
0
0
0
3.57016e-06
3.59903e-06
3.59915e-06
3.59925e-06
3.59937e-06
3.59948e-06
3.5996e-06
3.59971e-06
3.59983e-06
3.59993e-06
3.60002e-06
3.6001e-06
3.60017e-06
3.57142e-06
0
0
0
0
0
0
3.66649e-06
3.69889e-06
3.69899e-06
3.69907e-06
3.69916e-06
3.69924e-06
3.69933e-06
3.69941e-06
3.69949e-06
3.69956e-06
3.69963e-06
3.69967e-06
3.6997e-06
3.66738e-06
0
0
0
0
0
0
2.74965e-06
2.77386e-06
2.77371e-06
2.77353e-06
2.77333e-06
2.77312e-06
2.77291e-06
2.77268e-06
2.77247e-06
2.77226e-06
2.77206e-06
2.77187e-06
2.7717e-06
2.74722e-06
0
0
0
0
0
0
2.71532e-06
2.73991e-06
2.73972e-06
2.73949e-06
2.73926e-06
2.739e-06
2.73874e-06
2.73848e-06
2.73822e-06
2.73796e-06
2.73772e-06
2.73749e-06
2.73728e-06
2.71236e-06
0
0
0
0
0
0
1.9913e-06
2.00924e-06
2.00902e-06
2.00877e-06
2.0085e-06
2.00821e-06
2.00792e-06
2.00762e-06
2.00733e-06
2.00703e-06
2.00675e-06
2.00648e-06
2.00624e-06
1.98792e-06
0
0
0
0
0
0
1.90341e-06
1.92008e-06
1.91975e-06
1.9194e-06
1.91901e-06
1.9186e-06
1.91819e-06
1.91777e-06
1.91736e-06
1.91695e-06
1.91657e-06
1.91621e-06
1.91589e-06
1.89871e-06
0
0
0
0
0
0
2.08101e-06
2.09898e-06
2.09853e-06
2.09803e-06
2.09749e-06
2.09691e-06
2.09633e-06
2.09573e-06
2.09516e-06
2.09459e-06
2.09406e-06
2.09357e-06
2.09314e-06
2.07446e-06
0
0
0
0
0
0
2.02974e-06
2.04704e-06
2.04655e-06
2.046e-06
2.0454e-06
2.04477e-06
2.04414e-06
2.04349e-06
2.04286e-06
2.04226e-06
2.04169e-06
2.04116e-06
2.0407e-06
2.02265e-06
0
0
0
0
0
0
3.00247e-06
3.02791e-06
3.02742e-06
3.02685e-06
3.02625e-06
3.02561e-06
3.02497e-06
3.02431e-06
3.02368e-06
3.02306e-06
3.02248e-06
3.02195e-06
3.02148e-06
2.99526e-06
0
0
0
0
0
0
3.05975e-06
3.0847e-06
3.08414e-06
3.0835e-06
3.08282e-06
3.0821e-06
3.08137e-06
3.08064e-06
3.07993e-06
3.07925e-06
3.07863e-06
3.07805e-06
3.07755e-06
3.05176e-06
0
0
0
0
0
0
4.56547e-06
4.60325e-06
4.60292e-06
4.60253e-06
4.60212e-06
4.60167e-06
4.60123e-06
4.60078e-06
4.60036e-06
4.59994e-06
4.59957e-06
4.59922e-06
4.59892e-06
4.56061e-06
0
0
0
0
0
0
4.72911e-06
4.76698e-06
4.76662e-06
4.76618e-06
4.76573e-06
4.76523e-06
4.76475e-06
4.76426e-06
4.76381e-06
4.76338e-06
4.76299e-06
4.76264e-06
4.76235e-06
4.72395e-06
0
0
0
0
0
0
6.67448e-06
6.72695e-06
6.7273e-06
6.72761e-06
6.72797e-06
6.72831e-06
6.7287e-06
6.72908e-06
6.72948e-06
6.72986e-06
6.73024e-06
6.73058e-06
6.73085e-06
6.67887e-06
0
0
0
0
0
0
7.24196e-06
7.2969e-06
7.29734e-06
7.29772e-06
7.29814e-06
7.29857e-06
7.29904e-06
7.29947e-06
7.3e-06
7.30047e-06
7.30095e-06
7.30139e-06
7.30174e-06
7.24743e-06
0
0
0
0
0
0
0
0
0
0
0
0
0
0
0
0
0
0
0
0
0
0
0
0
0
3.93857e-08
4.68166e-08
4.42497e-08
4.42192e-08
4.42227e-08
4.42264e-08
4.42303e-08
4.42343e-08
4.42654e-08
4.42424e-08
4.42462e-08
4.42501e-08
4.42537e-08
4.42905e-08
4.68654e-08
3.94312e-08
0
0
2.66868e-08
1.55465e-06
2.04813e-06
2.04597e-06
2.04626e-06
2.0466e-06
2.04701e-06
2.04746e-06
2.04794e-06
2.04843e-06
2.04893e-06
2.04942e-06
2.0499e-06
2.05037e-06
2.05081e-06
2.05123e-06
2.05159e-06
2.05422e-06
1.55957e-06
2.67336e-08
0
0
2.95486e-08
2.97465e-08
2.97337e-08
2.97169e-08
2.96992e-08
2.96798e-08
2.9659e-08
2.96378e-08
2.96157e-08
2.95945e-08
2.95736e-08
2.95552e-08
2.95381e-08
2.95257e-08
2.95141e-08
2.92924e-08
0
0
0
0
0
0
0
0
0
0
0
0
0
0
0
0
0
0
0
0
0
0
0
0
0
0
0
0
0
0
0
0
0
0
0
0
0
0
0
0
0
0
0
0
0
3.17662e-06
3.20327e-06
3.20338e-06
3.20348e-06
3.20359e-06
3.20369e-06
3.2038e-06
3.2039e-06
3.204e-06
3.20408e-06
3.20417e-06
3.20423e-06
3.20427e-06
3.17773e-06
0
0
0
0
0
0
3.33209e-06
3.36261e-06
3.3627e-06
3.36277e-06
3.36285e-06
3.36292e-06
3.363e-06
3.36307e-06
3.36314e-06
3.3632e-06
3.36325e-06
3.36329e-06
3.3633e-06
3.33285e-06
0
0
0
0
0
0
2.57013e-06
2.59364e-06
2.5935e-06
2.59333e-06
2.59315e-06
2.59295e-06
2.59274e-06
2.59253e-06
2.59232e-06
2.59211e-06
2.59191e-06
2.59172e-06
2.59154e-06
2.56776e-06
0
0
0
0
0
0
2.6337e-06
2.65829e-06
2.65811e-06
2.6579e-06
2.65768e-06
2.65744e-06
2.65719e-06
2.65694e-06
2.65669e-06
2.65643e-06
2.6562e-06
2.65596e-06
2.65575e-06
2.63085e-06
0
0
0
0
0
0
1.97634e-06
1.99477e-06
1.99455e-06
1.9943e-06
1.99404e-06
1.99375e-06
1.99346e-06
1.99316e-06
1.99286e-06
1.99257e-06
1.99228e-06
1.99201e-06
1.99177e-06
1.97296e-06
0
0
0
0
0
0
1.93944e-06
1.9568e-06
1.95649e-06
1.95613e-06
1.95575e-06
1.95534e-06
1.95493e-06
1.9545e-06
1.95409e-06
1.95368e-06
1.95328e-06
1.95291e-06
1.95258e-06
1.93469e-06
0
0
0
0
0
0
2.15318e-06
2.17248e-06
2.17207e-06
2.17161e-06
2.17112e-06
2.17059e-06
2.17005e-06
2.16951e-06
2.16897e-06
2.16845e-06
2.16796e-06
2.16749e-06
2.16709e-06
2.14714e-06
0
0
0
0
0
0
2.12908e-06
2.14769e-06
2.14724e-06
2.14673e-06
2.14618e-06
2.14559e-06
2.14499e-06
2.14438e-06
2.14379e-06
2.14321e-06
2.14266e-06
2.14215e-06
2.14171e-06
2.12238e-06
0
0
0
0
0
0
3.10208e-06
3.12957e-06
3.12907e-06
3.1285e-06
3.1279e-06
3.12725e-06
3.1266e-06
3.12593e-06
3.12529e-06
3.12467e-06
3.12409e-06
3.12355e-06
3.12309e-06
3.09483e-06
0
0
0
0
0
0
3.12992e-06
3.15584e-06
3.15527e-06
3.15463e-06
3.15395e-06
3.15321e-06
3.15248e-06
3.15172e-06
3.151e-06
3.1503e-06
3.14965e-06
3.14905e-06
3.14853e-06
3.12174e-06
0
0
0
0
0
0
4.5019e-06
4.54118e-06
4.54078e-06
4.54031e-06
4.53982e-06
4.53929e-06
4.53877e-06
4.53824e-06
4.53775e-06
4.53727e-06
4.53685e-06
4.53646e-06
4.53613e-06
4.49628e-06
0
0
0
0
0
0
4.49853e-06
4.53577e-06
4.53538e-06
4.53489e-06
4.53439e-06
4.53384e-06
4.5333e-06
4.53275e-06
4.53223e-06
4.53174e-06
4.53129e-06
4.53089e-06
4.53055e-06
4.49271e-06
0
0
0
0
0
0
5.9838e-06
6.03451e-06
6.03472e-06
6.03486e-06
6.03505e-06
6.03522e-06
6.03544e-06
6.03565e-06
6.03592e-06
6.03617e-06
6.03645e-06
6.03671e-06
6.03694e-06
5.98658e-06
0
0
0
0
0
0
6.23258e-06
6.28217e-06
6.28244e-06
6.28269e-06
6.28298e-06
6.28327e-06
6.2836e-06
6.28392e-06
6.28428e-06
6.28462e-06
6.28499e-06
6.28534e-06
6.28567e-06
6.23657e-06
0
0
0
0
0
0
0
0
0
0
0
0
0
0
0
0
0
0
0
0
0
0
0
0
0
1.08403e-08
1.57268e-08
1.48365e-08
1.48285e-08
1.48312e-08
1.4834e-08
1.48371e-08
1.48403e-08
1.48443e-08
1.48466e-08
1.48496e-08
1.48528e-08
1.48557e-08
1.48686e-08
1.57657e-08
1.08753e-08
0
0
0
8.25125e-07
1.20817e-06
1.21055e-06
1.21073e-06
1.21093e-06
1.21119e-06
1.21147e-06
1.21177e-06
1.21209e-06
1.2124e-06
1.21273e-06
1.21304e-06
1.21335e-06
1.21365e-06
1.21394e-06
1.21418e-06
1.21209e-06
8.27858e-07
0
0
6.20017e-08
1.24854e-07
1.24554e-07
1.24564e-07
1.24573e-07
1.24586e-07
1.24599e-07
1.24613e-07
1.24627e-07
1.24641e-07
1.24655e-07
1.24667e-07
1.24679e-07
1.2469e-07
1.24702e-07
1.2471e-07
1.25021e-07
6.20216e-08
0
0
0
4.19414e-09
7.76424e-09
7.09748e-09
7.09633e-09
7.0952e-09
7.09398e-09
7.09265e-09
7.09131e-09
7.08989e-09
7.08854e-09
7.08714e-09
7.08592e-09
7.08471e-09
7.08387e-09
7.74643e-09
4.17368e-09
0
0
0
0
0
0
0
0
0
0
0
0
0
0
0
0
0
0
0
0
0
0
0
0
0
6.05976e-06
6.11339e-06
6.1135e-06
6.11359e-06
6.11369e-06
6.11377e-06
6.11386e-06
6.11393e-06
6.11401e-06
6.11405e-06
6.1141e-06
6.11412e-06
6.11412e-06
6.06055e-06
0
0
0
0
0
0
6.14055e-06
6.19763e-06
6.1977e-06
6.19773e-06
6.19777e-06
6.19779e-06
6.19782e-06
6.19783e-06
6.19785e-06
6.19785e-06
6.19786e-06
6.19783e-06
6.19779e-06
6.1407e-06
0
0
0
0
0
0
4.8503e-06
4.89662e-06
4.89646e-06
4.89626e-06
4.89605e-06
4.8958e-06
4.89556e-06
4.89529e-06
4.89503e-06
4.89476e-06
4.89451e-06
4.89425e-06
4.89402e-06
4.84737e-06
0
0
0
0
0
0
4.82784e-06
4.87432e-06
4.87411e-06
4.87387e-06
4.8736e-06
4.87331e-06
4.87301e-06
4.8727e-06
4.87239e-06
4.87208e-06
4.87179e-06
4.8715e-06
4.87124e-06
4.82439e-06
0
0
0
0
0
0
3.80669e-06
3.84315e-06
3.84286e-06
3.84254e-06
3.84219e-06
3.84182e-06
3.84144e-06
3.84104e-06
3.84065e-06
3.84025e-06
3.83988e-06
3.83952e-06
3.8392e-06
3.80226e-06
0
0
0
0
0
0
3.70686e-06
3.74094e-06
3.74056e-06
3.74013e-06
3.73967e-06
3.73918e-06
3.73868e-06
3.73817e-06
3.73766e-06
3.73716e-06
3.73668e-06
3.73622e-06
3.73581e-06
3.70108e-06
0
0
0
0
0
0
3.99421e-06
4.03084e-06
4.03039e-06
4.02988e-06
4.02933e-06
4.02874e-06
4.02815e-06
4.02753e-06
4.02694e-06
4.02635e-06
4.02581e-06
4.02529e-06
4.02485e-06
3.9875e-06
0
0
0
0
0
0
3.97384e-06
4.01006e-06
4.00959e-06
4.00905e-06
4.00847e-06
4.00785e-06
4.00722e-06
4.00657e-06
4.00593e-06
4.0053e-06
4.00472e-06
4.00417e-06
4.00371e-06
3.96674e-06
0
0
0
0
0
0
5.41315e-06
5.46279e-06
5.46225e-06
5.46163e-06
5.46098e-06
5.46027e-06
5.45957e-06
5.45885e-06
5.45816e-06
5.45748e-06
5.45687e-06
5.4563e-06
5.45583e-06
5.40539e-06
0
0
0
0
0
0
5.58876e-06
5.63899e-06
5.63842e-06
5.63775e-06
5.63706e-06
5.6363e-06
5.63554e-06
5.63475e-06
5.634e-06
5.63325e-06
5.63258e-06
5.63195e-06
5.63142e-06
5.58033e-06
0
0
0
0
0
0
7.66183e-06
7.73056e-06
7.73013e-06
7.72959e-06
7.72905e-06
7.72844e-06
7.72787e-06
7.72727e-06
7.72673e-06
7.7262e-06
7.72575e-06
7.72533e-06
7.72499e-06
7.65564e-06
0
0
0
0
0
0
7.97538e-06
8.04467e-06
8.04426e-06
8.04374e-06
8.04321e-06
8.04261e-06
8.04204e-06
8.04144e-06
8.04089e-06
8.04035e-06
8.03987e-06
8.03943e-06
8.03906e-06
7.96913e-06
0
0
0
0
0
0
1.06003e-05
1.0693e-05
1.06932e-05
1.06933e-05
1.06934e-05
1.06936e-05
1.06938e-05
1.0694e-05
1.06943e-05
1.06946e-05
1.06949e-05
1.06952e-05
1.06955e-05
1.06033e-05
0
0
0
0
0
0
1.13547e-05
1.14515e-05
1.14518e-05
1.14521e-05
1.14525e-05
1.14528e-05
1.14532e-05
1.14536e-05
1.14541e-05
1.14545e-05
1.14549e-05
1.14554e-05
1.14557e-05
1.13595e-05
0
0
0
0
0
0
0
0
0
0
0
0
0
0
0
0
0
0
0
0
0
0
0
0
0
2.77116e-08
3.34742e-08
3.15697e-08
3.15603e-08
3.15634e-08
3.15667e-08
3.15702e-08
3.15737e-08
3.15913e-08
3.15808e-08
3.15841e-08
3.15875e-08
3.15907e-08
3.16045e-08
3.35178e-08
2.77526e-08
0
0
1.81234e-08
1.27154e-06
1.71706e-06
1.71702e-06
1.71723e-06
1.71748e-06
1.71778e-06
1.71812e-06
1.71849e-06
1.71887e-06
1.71926e-06
1.71965e-06
1.72003e-06
1.72041e-06
1.72077e-06
1.72112e-06
1.72142e-06
1.72182e-06
1.27515e-06
1.81455e-08
0
0
1.89917e-08
1.89727e-08
1.89685e-08
1.89625e-08
1.89563e-08
1.89494e-08
1.89418e-08
1.89336e-08
1.89244e-08
1.89152e-08
1.8905e-08
1.88955e-08
1.88854e-08
1.88771e-08
1.88679e-08
1.88732e-08
0
0
0
0
0
0
0
0
0
0
0
0
0
0
0
0
0
0
0
0
0
0
0
0
0
0
0
0
0
0
0
0
0
0
0
0
0
0
0
0
0
0
0
0
0
5.5317e-06
5.58219e-06
5.5823e-06
5.58239e-06
5.58249e-06
5.58257e-06
5.58266e-06
5.58272e-06
5.58279e-06
5.58283e-06
5.58286e-06
5.58286e-06
5.58284e-06
5.53239e-06
0
0
0
0
0
0
5.72842e-06
5.78506e-06
5.78514e-06
5.78518e-06
5.78523e-06
5.78525e-06
5.78529e-06
5.7853e-06
5.78532e-06
5.78531e-06
5.7853e-06
5.78526e-06
5.7852e-06
5.72854e-06
0
0
0
0
0
0
4.5469e-06
4.59166e-06
4.59153e-06
4.59136e-06
4.59117e-06
4.59096e-06
4.59074e-06
4.5905e-06
4.59027e-06
4.59002e-06
4.58978e-06
4.58954e-06
4.58933e-06
4.54428e-06
0
0
0
0
0
0
4.61626e-06
4.6624e-06
4.66222e-06
4.662e-06
4.66177e-06
4.66151e-06
4.66125e-06
4.66096e-06
4.66068e-06
4.6604e-06
4.66013e-06
4.65987e-06
4.65964e-06
4.61318e-06
0
0
0
0
0
0
3.68329e-06
3.71966e-06
3.7194e-06
3.7191e-06
3.71878e-06
3.71843e-06
3.71808e-06
3.71771e-06
3.71735e-06
3.71698e-06
3.71664e-06
3.71631e-06
3.71602e-06
3.6792e-06
0
0
0
0
0
0
3.61954e-06
3.65377e-06
3.65344e-06
3.65308e-06
3.65269e-06
3.65227e-06
3.65184e-06
3.6514e-06
3.65097e-06
3.65053e-06
3.65012e-06
3.64973e-06
3.64938e-06
3.61459e-06
0
0
0
0
0
0
3.92187e-06
3.95914e-06
3.95875e-06
3.95832e-06
3.95786e-06
3.95736e-06
3.95686e-06
3.95634e-06
3.95584e-06
3.95535e-06
3.9549e-06
3.95448e-06
3.95413e-06
3.9163e-06
0
0
0
0
0
0
3.93073e-06
3.96759e-06
3.9672e-06
3.96675e-06
3.96628e-06
3.96576e-06
3.96524e-06
3.96469e-06
3.96417e-06
3.96365e-06
3.96318e-06
3.96274e-06
3.96239e-06
3.92494e-06
0
0
0
0
0
0
5.3136e-06
5.36487e-06
5.36441e-06
5.36389e-06
5.36334e-06
5.36273e-06
5.36214e-06
5.36152e-06
5.36094e-06
5.36037e-06
5.35987e-06
5.35941e-06
5.35906e-06
5.30717e-06
0
0
0
0
0
0
5.45765e-06
5.50992e-06
5.50947e-06
5.50893e-06
5.50838e-06
5.50776e-06
5.50715e-06
5.5065e-06
5.5059e-06
5.5053e-06
5.50476e-06
5.50427e-06
5.50387e-06
5.45096e-06
0
0
0
0
0
0
7.39255e-06
7.46278e-06
7.46241e-06
7.46194e-06
7.46148e-06
7.46095e-06
7.46046e-06
7.45994e-06
7.45949e-06
7.45905e-06
7.45869e-06
7.45836e-06
7.45812e-06
7.38742e-06
0
0
0
0
0
0
7.55623e-06
7.62529e-06
7.62498e-06
7.62457e-06
7.62415e-06
7.62367e-06
7.62322e-06
7.62273e-06
7.62231e-06
7.62187e-06
7.62152e-06
7.62118e-06
7.62091e-06
7.55139e-06
0
0
0
0
0
0
9.64549e-06
9.73801e-06
9.7382e-06
9.73831e-06
9.73849e-06
9.73863e-06
9.73885e-06
9.73906e-06
9.73937e-06
9.73966e-06
9.74002e-06
9.74037e-06
9.7407e-06
9.6486e-06
0
0
0
0
0
0
1.00396e-05
1.01327e-05
1.01331e-05
1.01334e-05
1.01337e-05
1.01341e-05
1.01345e-05
1.01348e-05
1.01353e-05
1.01357e-05
1.01361e-05
1.01365e-05
1.01369e-05
1.00443e-05
0
0
0
0
0
0
0
0
0
0
0
0
0
0
0
0
0
0
0
0
0
0
0
0
0
1.3527e-08
1.84999e-08
1.74434e-08
1.74418e-08
1.74451e-08
1.74486e-08
1.74522e-08
1.74559e-08
1.7464e-08
1.74631e-08
1.74664e-08
1.74696e-08
1.74724e-08
1.74784e-08
1.85424e-08
1.35664e-08
0
0
0
7.83114e-07
1.12877e-06
1.13006e-06
1.13022e-06
1.13041e-06
1.13065e-06
1.13091e-06
1.13119e-06
1.13148e-06
1.13177e-06
1.13207e-06
1.13235e-06
1.13263e-06
1.13288e-06
1.13313e-06
1.13333e-06
1.13229e-06
7.85621e-07
0
0
1.27236e-08
4.19058e-08
4.17767e-08
4.17793e-08
4.17814e-08
4.17844e-08
4.17876e-08
4.17906e-08
4.17934e-08
4.17952e-08
4.17968e-08
4.17968e-08
4.17967e-08
4.17948e-08
4.17936e-08
4.17898e-08
4.19157e-08
1.2666e-08
0
0
0
0
1.28142e-09
1.15779e-09
1.15705e-09
1.15629e-09
1.15544e-09
1.15444e-09
1.1534e-09
1.15217e-09
1.15093e-09
1.14952e-09
1.14818e-09
1.14671e-09
1.14546e-09
1.26556e-09
0
0
0
0
0
0
0
0
0
0
0
0
0
0
0
0
0
0
0
0
0
0
0
0
0
0
6.92545e-06
6.99154e-06
6.99163e-06
6.99169e-06
6.99176e-06
6.9918e-06
6.99185e-06
6.99187e-06
6.99189e-06
6.99187e-06
6.99184e-06
6.99178e-06
6.9917e-06
6.92557e-06
0
0
0
0
0
0
6.95446e-06
7.0246e-06
7.02465e-06
7.02465e-06
7.02466e-06
7.02464e-06
7.02463e-06
7.02459e-06
7.02456e-06
7.0245e-06
7.02443e-06
7.02433e-06
7.02421e-06
6.95398e-06
0
0
0
0
0
0
5.57331e-06
5.6297e-06
5.62957e-06
5.62939e-06
5.62921e-06
5.62899e-06
5.62876e-06
5.62851e-06
5.62826e-06
5.62799e-06
5.62774e-06
5.62748e-06
5.62725e-06
5.57057e-06
0
0
0
0
0
0
5.55316e-06
5.61059e-06
5.61043e-06
5.61022e-06
5.61001e-06
5.60975e-06
5.6095e-06
5.60923e-06
5.60896e-06
5.60868e-06
5.60842e-06
5.60817e-06
5.60797e-06
5.55026e-06
0
0
0
0
0
0
4.54952e-06
4.59652e-06
4.59627e-06
4.59598e-06
4.59568e-06
4.59535e-06
4.59501e-06
4.59465e-06
4.59431e-06
4.59396e-06
4.59364e-06
4.59334e-06
4.59309e-06
4.54567e-06
0
0
0
0
0
0
4.45152e-06
4.49532e-06
4.49505e-06
4.49474e-06
4.49443e-06
4.49408e-06
4.49373e-06
4.49336e-06
4.49301e-06
4.49265e-06
4.49233e-06
4.49202e-06
4.49176e-06
4.44753e-06
0
0
0
0
0
0
4.77885e-06
4.82621e-06
4.82589e-06
4.82553e-06
4.82516e-06
4.82474e-06
4.82434e-06
4.8239e-06
4.8235e-06
4.8231e-06
4.82275e-06
4.82243e-06
4.8222e-06
4.77441e-06
0
0
0
0
0
0
4.82766e-06
4.87532e-06
4.87501e-06
4.87466e-06
4.87429e-06
4.87388e-06
4.87347e-06
4.87304e-06
4.87263e-06
4.87223e-06
4.87189e-06
4.87158e-06
4.87136e-06
4.82331e-06
0
0
0
0
0
0
6.27008e-06
6.33348e-06
6.33312e-06
6.33269e-06
6.33225e-06
6.33175e-06
6.33127e-06
6.33076e-06
6.3303e-06
6.32985e-06
6.32946e-06
6.32911e-06
6.32886e-06
6.26502e-06
0
0
0
0
0
0
6.53594e-06
6.60221e-06
6.60186e-06
6.60144e-06
6.601e-06
6.6005e-06
6.60002e-06
6.5995e-06
6.59902e-06
6.59853e-06
6.59812e-06
6.59774e-06
6.59745e-06
6.53068e-06
0
0
0
0
0
0
8.61478e-06
8.70134e-06
8.70106e-06
8.7007e-06
8.70034e-06
8.69993e-06
8.69956e-06
8.69915e-06
8.69882e-06
8.69849e-06
8.69825e-06
8.69803e-06
8.6979e-06
8.61104e-06
0
0
0
0
0
0
9.11642e-06
9.20723e-06
9.20704e-06
9.20675e-06
9.20647e-06
9.20612e-06
9.20581e-06
9.20546e-06
9.20517e-06
9.20486e-06
9.20463e-06
9.20441e-06
9.20424e-06
9.11312e-06
0
0
0
0
0
0
1.15377e-05
1.16523e-05
1.16525e-05
1.16527e-05
1.16529e-05
1.16531e-05
1.16534e-05
1.16537e-05
1.1654e-05
1.16544e-05
1.16548e-05
1.16552e-05
1.16555e-05
1.15413e-05
0
0
0
0
0
0
1.23063e-05
1.24281e-05
1.24285e-05
1.24288e-05
1.24293e-05
1.24297e-05
1.24302e-05
1.24307e-05
1.24312e-05
1.24317e-05
1.24322e-05
1.24326e-05
1.2433e-05
1.23117e-05
0
0
0
0
0
0
0
0
0
0
0
0
0
0
0
0
0
0
0
0
0
0
0
0
0
2.24815e-08
2.77821e-08
2.61576e-08
2.61392e-08
2.61421e-08
2.61452e-08
2.61484e-08
2.61516e-08
2.61617e-08
2.61575e-08
2.61601e-08
2.61624e-08
2.61643e-08
2.61836e-08
2.78145e-08
2.25125e-08
0
0
0
9.89872e-07
1.38037e-06
1.38128e-06
1.38145e-06
1.38163e-06
1.38185e-06
1.3821e-06
1.38237e-06
1.38265e-06
1.38293e-06
1.3832e-06
1.38347e-06
1.38372e-06
1.38394e-06
1.38415e-06
1.38431e-06
1.38359e-06
9.92191e-07
0
0
0
3.65491e-09
3.64839e-09
3.64752e-09
3.64622e-09
3.64464e-09
3.64299e-09
3.64039e-09
3.63763e-09
3.63352e-09
3.62926e-09
3.62352e-09
3.61787e-09
3.61104e-09
3.60515e-09
3.59857e-09
3.59857e-09
0
0
0
0
0
0
0
0
0
0
0
0
0
0
0
0
0
0
0
0
0
0
0
0
0
0
0
0
0
0
0
0
0
0
0
0
0
0
0
0
0
0
0
0
0
6.47676e-06
6.54225e-06
6.54232e-06
6.54233e-06
6.54237e-06
6.54236e-06
6.54236e-06
6.54233e-06
6.5423e-06
6.54222e-06
6.54215e-06
6.54202e-06
6.54189e-06
6.47628e-06
0
0
0
0
0
0
6.62038e-06
6.69027e-06
6.69027e-06
6.69021e-06
6.69017e-06
6.69008e-06
6.69e-06
6.68989e-06
6.68979e-06
6.68965e-06
6.68951e-06
6.68933e-06
6.68915e-06
6.61909e-06
0
0
0
0
0
0
5.4599e-06
5.51738e-06
5.51726e-06
5.51709e-06
5.51692e-06
5.51671e-06
5.51649e-06
5.51625e-06
5.51601e-06
5.51575e-06
5.5155e-06
5.51524e-06
5.51501e-06
5.45727e-06
0
0
0
0
0
0
5.53368e-06
5.59294e-06
5.59279e-06
5.59259e-06
5.59239e-06
5.59215e-06
5.59192e-06
5.59165e-06
5.5914e-06
5.59113e-06
5.59089e-06
5.59065e-06
5.59045e-06
5.53093e-06
0
0
0
0
0
0
4.6103e-06
4.65999e-06
4.65978e-06
4.65954e-06
4.65928e-06
4.65899e-06
4.65871e-06
4.6584e-06
4.65812e-06
4.65782e-06
4.65756e-06
4.65731e-06
4.65712e-06
4.60714e-06
0
0
0
0
0
0
4.54356e-06
4.59003e-06
4.58983e-06
4.58959e-06
4.58936e-06
4.58909e-06
4.58883e-06
4.58855e-06
4.58829e-06
4.58802e-06
4.5878e-06
4.58759e-06
4.58745e-06
4.54071e-06
0
0
0
0
0
0
4.87879e-06
4.92923e-06
4.929e-06
4.92872e-06
4.92844e-06
4.92812e-06
4.92781e-06
4.92748e-06
4.92718e-06
4.92687e-06
4.92662e-06
4.92639e-06
4.92626e-06
4.87555e-06
0
0
0
0
0
0
4.95836e-06
5.00969e-06
5.00948e-06
5.00923e-06
5.00898e-06
5.00868e-06
5.0084e-06
5.00809e-06
5.00782e-06
5.00754e-06
5.00732e-06
5.00713e-06
5.00703e-06
4.95549e-06
0
0
0
0
0
0
6.3469e-06
6.41369e-06
6.41344e-06
6.41314e-06
6.41283e-06
6.41247e-06
6.41213e-06
6.41175e-06
6.41143e-06
6.4111e-06
6.41083e-06
6.41059e-06
6.41043e-06
6.34335e-06
0
0
0
0
0
0
6.58494e-06
6.65396e-06
6.65375e-06
6.65348e-06
6.65321e-06
6.65288e-06
6.65257e-06
6.65223e-06
6.65193e-06
6.65162e-06
6.65136e-06
6.65113e-06
6.65096e-06
6.58163e-06
0
0
0
0
0
0
8.47135e-06
8.56184e-06
8.56171e-06
8.5615e-06
8.56131e-06
8.56107e-06
8.56087e-06
8.56064e-06
8.56048e-06
8.5603e-06
8.56019e-06
8.56009e-06
8.56004e-06
8.4694e-06
0
0
0
0
0
0
8.7707e-06
8.86369e-06
8.86365e-06
8.86355e-06
8.86348e-06
8.86335e-06
8.86326e-06
8.86314e-06
8.86306e-06
8.86297e-06
8.86291e-06
8.86285e-06
8.8628e-06
8.7697e-06
0
0
0
0
0
0
1.07438e-05
1.08602e-05
1.08604e-05
1.08606e-05
1.08609e-05
1.08611e-05
1.08614e-05
1.08617e-05
1.08621e-05
1.08625e-05
1.08629e-05
1.08633e-05
1.08636e-05
1.07476e-05
0
0
0
0
0
0
1.12526e-05
1.13725e-05
1.1373e-05
1.13734e-05
1.13738e-05
1.13742e-05
1.13747e-05
1.13752e-05
1.13757e-05
1.13762e-05
1.13767e-05
1.13771e-05
1.13774e-05
1.12579e-05
0
0
0
0
0
0
0
0
0
0
0
0
0
0
0
0
0
0
0
0
0
0
0
0
0
1.46901e-08
1.93236e-08
1.81211e-08
1.81193e-08
1.81215e-08
1.81238e-08
1.81262e-08
1.81286e-08
1.81325e-08
1.81328e-08
1.81344e-08
1.81358e-08
1.81367e-08
1.81378e-08
1.93408e-08
1.47096e-08
0
0
0
7.79717e-07
1.11874e-06
1.11993e-06
1.12005e-06
1.12019e-06
1.12036e-06
1.12054e-06
1.12074e-06
1.12094e-06
1.12114e-06
1.12133e-06
1.12151e-06
1.12167e-06
1.12181e-06
1.12193e-06
1.122e-06
1.1209e-06
7.81176e-07
0
0
0
9.4834e-09
9.40088e-09
9.40229e-09
9.40414e-09
9.40601e-09
9.40839e-09
9.40992e-09
9.41176e-09
9.41218e-09
9.41274e-09
9.41164e-09
9.4108e-09
9.40855e-09
9.40747e-09
9.40594e-09
9.49016e-09
0
0
0
0
0
0
0
0
0
0
0
0
0
0
0
0
0
0
0
0
0
0
0
0
0
0
0
0
0
0
0
0
0
0
0
0
0
0
0
0
0
0
0
0
0
7.15049e-06
7.22511e-06
7.22512e-06
7.22509e-06
7.22507e-06
7.225e-06
7.22494e-06
7.22484e-06
7.22474e-06
7.2246e-06
7.22445e-06
7.22425e-06
7.22407e-06
7.14922e-06
0
0
0
0
0
0
7.21823e-06
7.2962e-06
7.29616e-06
7.29605e-06
7.29595e-06
7.2958e-06
7.29566e-06
7.29547e-06
7.29529e-06
7.29507e-06
7.29486e-06
7.2946e-06
7.29433e-06
7.21606e-06
0
0
0
0
0
0
5.9575e-06
6.02153e-06
6.02139e-06
6.02122e-06
6.02103e-06
6.0208e-06
6.02056e-06
6.0203e-06
6.02004e-06
6.01975e-06
6.01947e-06
6.01918e-06
6.01891e-06
5.95455e-06
0
0
0
0
0
0
5.98553e-06
6.05105e-06
6.0509e-06
6.0507e-06
6.05049e-06
6.05025e-06
6.05001e-06
6.04974e-06
6.04947e-06
6.0492e-06
6.04894e-06
6.04869e-06
6.04847e-06
5.98266e-06
0
0
0
0
0
0
5.02441e-06
5.08113e-06
5.08096e-06
5.08076e-06
5.08056e-06
5.08032e-06
5.08009e-06
5.07983e-06
5.0796e-06
5.07936e-06
5.07917e-06
5.07898e-06
5.07885e-06
5.0219e-06
0
0
0
0
0
0
4.95648e-06
5.00949e-06
5.00937e-06
5.00921e-06
5.00906e-06
5.00887e-06
5.0087e-06
5.0085e-06
5.00834e-06
5.00817e-06
5.00805e-06
5.00794e-06
5.00791e-06
4.95479e-06
0
0
0
0
0
0
5.29131e-06
5.34854e-06
5.34837e-06
5.34817e-06
5.34797e-06
5.34772e-06
5.3475e-06
5.34723e-06
5.34702e-06
5.34678e-06
5.34661e-06
5.34645e-06
5.34638e-06
5.28899e-06
0
0
0
0
0
0
5.41099e-06
5.47034e-06
5.4702e-06
5.47003e-06
5.46986e-06
5.46964e-06
5.46945e-06
5.46922e-06
5.46904e-06
5.46885e-06
5.46871e-06
5.46859e-06
5.46855e-06
5.40909e-06
0
0
0
0
0
0
6.81544e-06
6.88987e-06
6.88971e-06
6.8895e-06
6.8893e-06
6.88904e-06
6.88881e-06
6.88855e-06
6.88833e-06
6.8881e-06
6.88792e-06
6.88775e-06
6.88765e-06
6.81303e-06
0
0
0
0
0
0
7.14604e-06
7.22387e-06
7.22375e-06
7.22359e-06
7.22343e-06
7.22323e-06
7.22305e-06
7.22284e-06
7.22267e-06
7.22248e-06
7.22235e-06
7.22221e-06
7.22212e-06
7.14412e-06
0
0
0
0
0
0
9.05515e-06
9.15609e-06
9.15605e-06
9.15594e-06
9.15587e-06
9.15575e-06
9.15567e-06
9.15555e-06
9.1555e-06
9.15541e-06
9.15537e-06
9.15531e-06
9.15527e-06
9.05421e-06
0
0
0
0
0
0
9.54262e-06
9.64903e-06
9.64908e-06
9.64909e-06
9.64913e-06
9.64914e-06
9.64918e-06
9.64919e-06
9.64925e-06
9.64928e-06
9.64933e-06
9.64936e-06
9.64938e-06
9.54297e-06
0
0
0
0
0
0
1.16856e-05
1.18179e-05
1.18182e-05
1.18184e-05
1.18187e-05
1.18189e-05
1.18193e-05
1.18196e-05
1.182e-05
1.18204e-05
1.18207e-05
1.1821e-05
1.18213e-05
1.16893e-05
0
0
0
0
0
0
1.23629e-05
1.25023e-05
1.25026e-05
1.2503e-05
1.25035e-05
1.2504e-05
1.25045e-05
1.25051e-05
1.25056e-05
1.25061e-05
1.25066e-05
1.25071e-05
1.25074e-05
1.23685e-05
0
0
0
0
0
0
0
0
0
0
0
0
0
0
0
0
0
0
0
0
0
0
0
0
0
2.099e-08
2.63306e-08
2.46311e-08
2.46247e-08
2.46268e-08
2.46291e-08
2.46314e-08
2.46336e-08
2.46389e-08
2.46375e-08
2.46389e-08
2.46401e-08
2.46409e-08
2.4646e-08
2.63373e-08
2.10081e-08
0
0
0
9.02047e-07
1.26818e-06
1.26905e-06
1.26916e-06
1.26928e-06
1.26943e-06
1.2696e-06
1.26977e-06
1.26995e-06
1.27013e-06
1.2703e-06
1.27045e-06
1.27059e-06
1.27071e-06
1.27082e-06
1.27087e-06
1.27009e-06
9.03393e-07
0
0
0
0
0
0
0
0
0
0
0
0
0
0
0
0
0
0
0
0
0
0
0
0
0
0
0
0
0
0
0
0
0
0
0
0
0
0
0
0
0
0
0
0
0
0
0
0
0
0
0
0
0
0
0
0
0
0
0
0
0
0
0
0
6.93797e-06
7.01365e-06
7.01358e-06
7.01349e-06
7.01339e-06
7.01324e-06
7.01311e-06
7.01293e-06
7.01275e-06
7.01253e-06
7.01232e-06
7.01206e-06
7.01184e-06
6.93583e-06
0
0
0
0
0
0
7.0554e-06
7.13431e-06
7.13419e-06
7.13401e-06
7.13382e-06
7.13359e-06
7.13336e-06
7.13309e-06
7.13282e-06
7.13252e-06
7.13221e-06
7.13188e-06
7.13153e-06
7.05219e-06
0
0
0
0
0
0
5.99304e-06
6.06021e-06
6.06005e-06
6.05985e-06
6.05963e-06
6.05938e-06
6.05912e-06
6.05883e-06
6.05854e-06
6.05823e-06
6.05792e-06
6.05761e-06
6.0573e-06
5.98974e-06
0
0
0
0
0
0
6.08465e-06
6.15428e-06
6.15412e-06
6.15391e-06
6.15369e-06
6.15343e-06
6.15317e-06
6.15289e-06
6.15261e-06
6.15232e-06
6.15205e-06
6.15177e-06
6.15152e-06
6.08155e-06
0
0
0
0
0
0
5.17872e-06
5.23879e-06
5.23865e-06
5.23847e-06
5.23829e-06
5.23807e-06
5.23787e-06
5.23764e-06
5.23743e-06
5.23721e-06
5.23703e-06
5.23685e-06
5.23672e-06
5.17642e-06
0
0
0
0
0
0
5.13552e-06
5.19195e-06
5.19187e-06
5.19175e-06
5.19165e-06
5.1915e-06
5.19139e-06
5.19124e-06
5.19113e-06
5.191e-06
5.19093e-06
5.19085e-06
5.19084e-06
5.13434e-06
0
0
0
0
0
0
5.47114e-06
5.53199e-06
5.53189e-06
5.53175e-06
5.53161e-06
5.53143e-06
5.53127e-06
5.53107e-06
5.53092e-06
5.53074e-06
5.53062e-06
5.53048e-06
5.53043e-06
5.46945e-06
0
0
0
0
0
0
5.62422e-06
5.68784e-06
5.68776e-06
5.68765e-06
5.68755e-06
5.6874e-06
5.68728e-06
5.68713e-06
5.68702e-06
5.68689e-06
5.68681e-06
5.68672e-06
5.68669e-06
5.62298e-06
0
0
0
0
0
0
6.99424e-06
7.07468e-06
7.0746e-06
7.07447e-06
7.07436e-06
7.0742e-06
7.07407e-06
7.0739e-06
7.07377e-06
7.07361e-06
7.07349e-06
7.07334e-06
7.07324e-06
6.99262e-06
0
0
0
0
0
0
7.35077e-06
7.43556e-06
7.43553e-06
7.43547e-06
7.43542e-06
7.43534e-06
7.43529e-06
7.4352e-06
7.43515e-06
7.43508e-06
7.43504e-06
7.43497e-06
7.43492e-06
7.35002e-06
0
0
0
0
0
0
9.05945e-06
9.16738e-06
9.16741e-06
9.16741e-06
9.16744e-06
9.16743e-06
9.16746e-06
9.16745e-06
9.16747e-06
9.16745e-06
9.16744e-06
9.16738e-06
9.1673e-06
9.05927e-06
0
0
0
0
0
0
9.47692e-06
9.59029e-06
9.59042e-06
9.59054e-06
9.5907e-06
9.59083e-06
9.591e-06
9.59115e-06
9.59132e-06
9.59145e-06
9.59158e-06
9.59168e-06
9.59175e-06
9.47849e-06
0
0
0
0
0
0
1.12162e-05
1.1353e-05
1.13533e-05
1.13536e-05
1.1354e-05
1.13544e-05
1.13548e-05
1.13552e-05
1.13557e-05
1.1356e-05
1.13564e-05
1.13567e-05
1.13569e-05
1.12205e-05
0
0
0
0
0
0
1.17483e-05
1.18918e-05
1.18923e-05
1.18928e-05
1.18933e-05
1.18939e-05
1.18946e-05
1.18952e-05
1.18959e-05
1.18965e-05
1.18971e-05
1.18976e-05
1.1898e-05
1.17552e-05
0
0
0
0
0
0
0
0
0
0
0
0
0
0
0
0
0
0
0
0
0
0
0
0
0
1.63978e-08
2.16081e-08
2.00024e-08
1.99985e-08
2.00001e-08
2.00016e-08
2.00034e-08
2.00049e-08
2.00075e-08
2.00074e-08
2.00083e-08
2.00088e-08
2.00091e-08
2.0012e-08
2.15902e-08
1.64091e-08
0
0
0
7.75526e-07
1.12195e-06
1.12362e-06
1.1237e-06
1.12379e-06
1.1239e-06
1.12403e-06
1.12416e-06
1.12429e-06
1.12442e-06
1.12454e-06
1.12465e-06
1.12475e-06
1.12484e-06
1.12492e-06
1.12497e-06
1.12338e-06
7.76572e-07
0
0
0
0
0
0
0
0
0
0
0
0
0
0
0
0
0
0
0
0
0
0
0
0
0
0
0
0
0
0
0
0
0
0
0
0
0
0
0
0
0
0
0
0
0
0
0
0
0
0
0
0
0
0
0
0
0
0
0
0
0
0
0
0
7.26995e-06
7.35138e-06
7.35125e-06
7.3511e-06
7.35094e-06
7.35074e-06
7.35054e-06
7.3503e-06
7.35007e-06
7.3498e-06
7.34954e-06
7.34925e-06
7.34903e-06
7.2672e-06
0
0
0
0
0
0
7.35249e-06
7.43675e-06
7.43657e-06
7.43633e-06
7.43607e-06
7.43577e-06
7.43546e-06
7.43512e-06
7.43477e-06
7.4344e-06
7.43403e-06
7.43364e-06
7.43325e-06
7.3485e-06
0
0
0
0
0
0
6.26282e-06
6.33489e-06
6.33468e-06
6.33442e-06
6.33415e-06
6.33384e-06
6.33351e-06
6.33316e-06
6.33281e-06
6.33244e-06
6.33206e-06
6.33169e-06
6.33133e-06
6.25878e-06
0
0
0
0
0
0
6.33686e-06
6.41166e-06
6.41147e-06
6.41123e-06
6.41098e-06
6.41068e-06
6.41039e-06
6.41006e-06
6.40975e-06
6.40941e-06
6.40909e-06
6.40876e-06
6.40846e-06
6.33324e-06
0
0
0
0
0
0
5.43405e-06
5.49872e-06
5.49859e-06
5.49841e-06
5.49825e-06
5.49804e-06
5.49785e-06
5.49761e-06
5.49741e-06
5.49719e-06
5.497e-06
5.49679e-06
5.49663e-06
5.43169e-06
0
0
0
0
0
0
5.40325e-06
5.46417e-06
5.46412e-06
5.46403e-06
5.46396e-06
5.46385e-06