/*--------------------------------*- C++ -*----------------------------------*\
| =========                 |                                                 |
| \\      /  F ield         | OpenFOAM: The Open Source CFD Toolbox           |
|  \\    /   O peration     | Version:  2212                                  |
|   \\  /    A nd           | Website:  www.openfoam.com                      |
|    \\/     M anipulation  |                                                 |
\*---------------------------------------------------------------------------*/
FoamFile
{
    version     2.0;
    format      ascii;
    arch        "LSB;label=32;scalar=64";
    class       volScalarField;
    location    "0.00034";
    object      epsilon;
}
// * * * * * * * * * * * * * * * * * * * * * * * * * * * * * * * * * * * * * //

dimensions      [0 2 -3 0 0 0 0];

internalField   nonuniform List<scalar> 
7220
(
225161
225161
225160
225160
225161
225160
225160
225161
225160
225160
225145
256510
225148
225096
222936
230660
216901
225161
220250
225161
224832
225391
225113
225555
225163
226398
395678
225160
224601
223588
225161
224524
225161
223165
225196
225161
225160
225098
225142
225161
225161
225161
225161
225161
225161
225161
225161
225161
225161
225161
225161
225161
225161
225161
225161
225161
225161
225161
225161
225161
225161
225161
225161
225161
225161
225161
225161
225161
225161
225161
225161
225161
225161
225161
225161
225161
225161
225161
225161
225161
225161
225161
225161
225161
225161
225161
225161
225161
225161
225161
225161
225161
225161
225161
225161
225161
225161
225161
225161
225161
225161
225161
225161
225161
225161
225161
225161
225161
225161
225161
225161
225161
225161
225161
225161
225161
225161
225161
225161
225161
225161
225161
225161
225161
225161
225161
225161
225161
225161
225161
225161
225161
225161
225161
225161
225161
225161
225161
225161
225161
225161
225161
225161
225161
225161
225161
225161
225161
225161
225161
225161
225161
225161
225161
225161
225161
225161
225161
225161
225161
225161
225161
225161
225161
225161
225161
225161
225161
225161
225161
225161
225161
225161
225161
225161
225161
225161
225161
225161
225161
225161
225161
225161
225161
225161
225161
225161
225161
225161
225161
225161
225161
225161
225161
225161
225161
225161
225161
225161
225161
225161
225161
225161
225161
225161
225161
225161
225161
225161
225161
225161
225161
225161
225161
225161
225161
225161
225161
225161
225161
225161
225161
225161
225161
225161
225161
225161
225161
225161
225161
225161
225161
225161
225161
225161
225161
225161
225161
225161
225161
225161
225161
225161
225161
225161
225161
225161
225161
225161
225161
225161
225161
225161
225161
225161
225161
225161
225161
225161
225161
225161
225161
225161
225161
225161
225161
225161
225161
225161
225161
225161
225161
225161
225161
225161
225161
225161
225161
225161
225161
225161
225161
225161
225161
225161
225161
225161
225161
225161
225161
225161
225161
225161
225161
225161
225161
225161
225161
225161
225161
225161
225161
225161
225161
225161
225161
225161
225161
225161
225161
225161
225161
225161
225161
225161
225161
225161
225161
225161
225161
225161
225161
225161
225161
225161
225161
225161
225161
225161
225161
225161
225161
225161
225161
225161
225161
225161
225161
225161
225161
225161
225161
225161
225161
225161
225161
225161
225161
225161
225161
225161
225161
225161
225161
225161
225161
225161
225161
225161
225161
225161
225161
225161
225161
225161
225161
225161
225161
225161
225161
225161
225161
225161
225161
225161
225161
225161
225161
225161
225161
225161
225161
225161
225161
225161
225161
225161
225161
225161
225161
225161
225161
225161
225161
225161
225161
225161
225161
225161
225161
225161
225161
225161
225161
225161
225161
225161
225161
225161
225161
225161
225161
225161
225161
225161
225161
225161
225161
225161
225161
225161
225161
225161
225161
225161
225161
225161
225161
225161
225161
225161
225161
225161
225161
225161
225161
225161
225161
225161
225161
225161
225161
225161
225161
225161
225161
225161
225161
225161
225161
225161
225161
225161
225161
225161
225161
225161
225161
225161
225161
225161
225161
225161
225161
225161
225161
225161
225161
225161
225161
225161
225161
225161
225161
225161
225161
225161
225161
225161
225161
225161
225161
225161
225161
225161
225161
225161
225161
225161
225161
225161
225161
225161
225161
225161
225161
225161
225161
225161
225161
225161
225161
225161
225161
225161
225161
225161
225161
225161
225161
225161
225161
225161
225161
225161
225161
225161
225161
225161
225161
225161
225161
225161
225161
225161
225161
225161
225161
225161
225161
225161
225161
225161
225161
225161
225161
225161
225161
225161
225161
225161
225161
225161
225161
225161
225161
225161
225161
225161
225161
225161
225161
225161
225161
225161
225161
225161
225161
225161
225161
225161
225161
225161
225161
225161
225161
225161
225161
225161
225161
225161
225161
225161
225161
225161
225161
225161
225161
225161
225161
225161
225161
225161
225161
225161
225161
225161
225161
225161
225161
225161
225161
225161
225161
225161
225161
225161
225161
225161
225161
225161
225161
225161
225161
225161
225161
225161
225161
225161
225161
225161
225161
225161
225161
225161
225161
225161
225161
225161
225161
225161
225161
225161
225161
225161
225161
225161
225161
225161
225161
225161
225161
225161
225161
225161
225161
225161
225161
225161
225161
225161
225161
225161
225161
225161
225161
225161
225161
225161
225161
225161
225161
225161
225161
225161
225161
225160
225160
225160
225160
225160
225161
225161
225161
225161
225161
225161
225161
225161
225161
225161
225161
225188
225161
225161
225161
225161
225161
225160
225160
225161
225161
225161
225161
225161
225167
225161
225161
225161
225160
225161
225160
225160
225160
225160
225160
225160
225160
225160
225160
225160
225160
225160
225160
225160
225160
225160
225160
225160
225160
225160
225160
225160
225160
225160
225160
225160
225160
225160
225160
225160
225160
225160
225160
225160
225160
225160
225160
225160
225160
225160
225160
225160
225160
225160
225160
225160
225160
225160
225160
225160
225160
225160
225160
225160
225160
225160
225160
225160
225160
225160
225160
225160
225160
225160
225160
225160
225160
225160
225160
225160
225160
225160
225160
225160
225160
225160
225160
225160
225160
225160
225160
225160
225160
225160
225160
225160
225160
225160
225160
225160
225160
225160
225160
225160
225160
225161
225161
225161
225161
225161
225161
225160
225396
225161
225160
225160
225161
225161
225161
225161
225161
225161
225161
225161
225160
225160
225160
225161
225161
225161
225161
1.10936e+06
225161
225147
225161
225161
225161
225161
225161
225161
225161
225161
225161
225160
225160
225160
225160
225160
225160
225160
225160
225160
225160
225160
225160
225160
225160
225160
225160
225160
225160
225160
225160
225160
225160
225160
225160
225160
225160
225160
225160
225160
225160
225160
225160
225160
225160
225160
225160
225160
225160
225160
225160
225160
225159
225160
225159
225160
225160
225160
225160
225160
225160
225160
225160
225160
225160
225160
225160
225160
225160
225160
225160
225160
225160
225159
225160
225159
225160
225160
225160
225160
225160
225160
225160
225160
225160
225160
225160
225160
225160
225160
225160
225160
225160
225160
225159
225160
225160
225159
225160
225160
225160
225160
225160
225160
225160
225160
225160
225160
225160
225160
225160
225160
225160
225160
225160
225160
225160
225161
225161
225159
225161
225161
225161
225161
225161
225161
225161
225161
225161
225161
225161
225157
225157
225160
225161
225161
225161
225161
225161
225161
225156
225156
225159
225158
225161
225163
225161
225160
225161
225160
225159
225154
225161
225161
225161
225161
225161
225200
225161
225161
225161
225161
225161
225161
225161
225161
225161
225161
225161
225161
225161
225161
225161
225161
225161
225160
225161
225161
225161
225161
225161
225160
225161
225182
225156
225156
225156
225156
225156
225156
225156
225156
225157
225157
225157
225157
225156
225156
225156
225156
225156
225156
225156
225156
225156
225156
225156
225156
225156
225156
225156
225156
225156
225156
225156
225156
225156
225156
225156
225156
225156
225156
225156
225156
225156
225158
225159
225159
225159
225159
225159
225159
225159
225159
225159
225159
225159
225159
225159
225159
225159
225159
225159
225156
225156
225156
225156
225156
225156
225156
225156
225156
225156
225156
225156
225156
225156
225156
225156
225156
225156
225156
225156
225156
225156
225156
225156
225156
225156
225156
225157
225156
225157
225157
225157
225156
225157
225157
225157
225157
225157
225157
225157
225157
225157
225157
225157
225161
225161
225161
225161
225161
225161
225169
225161
225143
225157
225161
225161
225161
225161
225161
225161
225161
225161
225161
248390
225161
225158
225161
225155
225155
225161
225161
225161
225161
225161
225161
225161
225161
225160
225159
225161
225161
225161
225161
225161
225161
225161
225161
225161
225161
225161
225161
225161
225161
225161
225161
225161
225163
225161
225161
225155
225161
225161
225161
225160
225161
225161
225198
225161
225161
225161
225161
225161
225161
225161
225161
225161
225161
225161
225161
225160
225160
225160
225161
225161
225161
225161
225161
225161
225161
225256
225161
225161
225161
225161
225161
225161
225161
225160
225161
225161
225161
225161
225161
225161
225161
225161
225159
225161
225160
225161
210214
225141
225141
225143
225142
225143
225143
225143
225143
225144
225143
225144
225144
225144
225144
225144
225144
225144
225144
225144
225144
225144
225144
225144
225144
225144
225144
225144
225144
225144
225144
225144
225144
225144
225144
225144
225144
225144
225144
225144
225144
225143
225144
225142
225143
225136
225152
225149
225153
225153
225153
225153
225153
225153
225153
225153
225153
225153
225153
225153
225153
225153
225153
225153
225153
225153
225149
225152
225136
225143
225142
225144
225143
225144
225144
225144
225144
225144
225144
225144
225144
225144
225144
225144
225144
225144
225144
225144
225144
225144
225144
225143
225143
225143
225143
225142
225143
225142
225142
225143
225143
225145
225144
225145
225145
225145
225145
225144
225144
225144
225144
225144
225144
225144
225144
225144
225161
225495
225161
225161
225161
225161
225161
225161
225161
225161
225161
225161
225161
225161
225161
225161
225157
225160
225161
225161
225161
225161
225161
225161
225163
225161
225149
225161
225161
225161
225161
225161
225161
225144
225161
225161
225161
225161
225161
225161
225161
225161
225161
225161
225161
225160
225161
225161
225161
225161
225161
225161
225161
225161
225161
225161
225161
225161
225161
225160
225097
225090
225123
225110
225163
225163
225161
225164
225160
225161
225161
225161
225160
225161
225161
225161
225161
225175
225161
225171
225161
225161
225161
225161
225161
225161
225161
225161
225160
225161
225161
225161
225161
225161
225160
225161
225161
225161
225161
225161
225161
225161
225161
225161
225161
225170
225161
225160
225160
225160
225160
225149
225111
225105
225111
225093
225093
225095
225094
225096
225096
225097
225097
225097
225097
225098
225098
225098
225098
225098
225098
225098
225098
225098
225098
225098
225098
225098
225098
225098
225098
225098
225098
225098
225098
225098
225098
225098
225098
225098
225098
225098
225098
225098
225098
225098
225098
225098
225110
225127
225123
225128
225127
225128
225128
225128
225128
225128
225128
225128
225128
225128
225128
225128
225128
225128
225128
225127
225128
225127
225091
225098
225097
225098
225098
225098
225098
225098
225098
225098
225098
225098
225098
225098
225098
225098
225098
225098
225098
225098
225098
225098
225098
225098
225098
225098
225098
225098
225098
225098
225098
225100
225099
225101
225101
225101
225101
225100
225100
225100
225100
225099
225100
225099
225099
225098
225098
225096
225097
225094
225159
225159
225159
225159
225159
225160
225159
225159
225160
225159
225159
225159
225159
225161
225161
225161
225161
225161
225161
225161
225161
225161
225161
225155
225161
225161
225161
225161
225159
225160
225161
225161
225161
225161
225161
225161
225161
225161
225161
225161
225157
225161
225158
225161
225161
225161
225161
225161
225161
225161
225161
225161
225049
225162
224943
225168
225065
225065
225073
225156
225161
225160
225161
224716
225164
225163
225163
225163
225163
225163
225163
225163
225163
225161
225161
225147
225160
225161
225161
225110
225149
225161
225161
225160
225161
225071
224837
225161
225161
225161
225161
225160
225160
225160
225161
225161
225161
225161
225155
225178
225179
225163
225161
225169
225093
225155
225155
225170
225170
225161
225160
225161
225161
225161
225159
225160
225161
225161
225161
225161
225137
225161
225161
225161
225161
225161
225161
225160
225161
225161
225160
225161
225163
225161
225161
225161
225161
225160
225161
225161
225159
225160
225161
225161
225161
225161
225161
225160
225161
225161
225161
225161
225161
225161
225161
225161
225161
225161
225161
225161
225161
225161
221757
225161
225161
225161
224993
225110
224976
224980
224978
224957
224977
224946
224947
224946
224945
224948
224948
224949
224949
224950
224950
224951
224951
224952
224951
224952
224952
224952
224952
224952
224952
224952
224952
224952
224952
224952
224952
224952
224952
224952
224952
224952
224952
224952
224952
224952
224952
224952
224952
224952
224952
224952
224952
224950
224951
224918
224944
224820
225014
224968
225031
225027
225032
225031
225032
225032
225032
225032
225032
225032
225032
225032
225032
225032
225032
225032
225032
225032
225031
225032
225027
225031
224968
225014
224821
224944
224918
224951
224950
224952
224952
224952
224952
224952
224952
224952
224952
224952
224952
224952
224952
224952
224952
224952
224952
224952
224952
224952
224952
224952
224952
224952
224952
224954
224953
224956
224955
224959
224958
224958
224959
224957
224958
224956
224957
224955
224956
224955
224955
224953
224954
224952
224953
224950
224951
224953
225155
225155
225155
225155
225155
225155
225159
225155
225155
225159
225155
225155
225155
225155
225155
225155
225154
225159
225161
225161
225161
225161
225161
225161
225161
225161
225161
225083
225163
225163
225163
225163
225161
225159
225160
225161
225161
225161
225161
225161
225161
225161
225161
225161
225161
225157
225161
225160
225158
225161
225161
225066
224829
225161
225161
225161
225139
225156
225161
225161
225159
224803
225169
225190
225161
224394
224438
225161
225161
224924
225161
225172
225173
225073
225161
223041
225154
225139
225161
225161
225169
225170
225169
225170
225171
225170
225171
225161
225143
225160
225161
225161
225149
225161
225161
225160
225161
224211
225161
225161
225161
225161
225161
224976
225161
225160
225161
225161
225161
225161
225160
225155
225162
225161
225161
225161
224499
224399
224653
224503
225154
225138
225195
225193
225193
225161
225160
223071
214291
225160
225161
225161
224973
225109
225161
225160
225161
225170
225161
225161
225161
225161
225160
225161
225161
225136
225161
224559
224557
225161
225161
225161
225160
225160
225156
225159
225161
225161
225241
225161
225161
225161
225161
225160
223281
225161
225160
225161
225161
225161
225161
225161
225161
225155
225159
225161
225161
225161
225161
225161
225161
225161
225161
225163
221068
224511
221106
224968
224553
224580
224568
224591
224587
224570
224590
224534
224549
224525
224526
224528
224527
224529
224529
224531
224530
224532
224532
224533
224533
224533
224533
224533
224533
224533
224533
224533
224533
224533
224533
224533
224533
224533
224533
224533
224533
224533
224533
224533
224533
224533
224533
224533
224533
224533
224533
224533
224533
224531
224533
224525
224503
224700
224653
224717
224714
224719
224718
224719
224719
224719
224719
224719
224719
224719
224719
224719
224719
224719
224719
224719
224719
224718
224719
224714
224717
224700
224399
224525
224499
224533
224531
224533
224533
224533
224533
224533
224533
224533
224533
224533
224533
224533
224533
224533
224533
224533
224533
224534
224533
224534
224534
224534
224534
224535
224535
224539
224537
224545
224542
224550
224549
224549
224550
224545
224547
224542
224544
224540
224541
224539
224539
224537
224538
224536
224536
224541
224537
224554
225139
225141
225140
225142
225141
225141
225142
225142
225141
225143
225142
225156
225145
225144
225155
225143
225142
225142
225141
225142
225142
225142
225141
225141
225140
225159
225162
225161
225162
225162
225162
225162
225162
225162
225163
225162
225166
225169
225169
225170
225171
225159
225136
225154
225161
225161
225162
225161
225162
225162
225162
225162
225162
225162
225163
225163
225138
225161
225157
225161
225160
225158
225161
225161
224184
225161
225161
224217
224846
225161
225157
225161
225161
225159
223784
225166
225161
225161
225164
225160
226903
224246
225161
225264
224074
224075
225096
225093
225163
225190
225190
225190
225189
225193
225196
225193
225195
225180
225171
225161
225139
225160
225124
224189
224148
225117
225161
225161
225149
225161
225160
225161
225192
225163
225161
225161
225161
225161
248074
224210
225076
225161
225161
225161
225255
225159
225161
225161
225161
226285
225155
225162
223595
223675
224650
225258
225255
225137
225160
225088
225161
225160
224388
224928
225160
225160
224947
225161
231631
225109
225161
225160
225161
220279
224529
225161
225228
225161
225161
225143
225105
225107
225161
222079
222433
225239
225160
254628
226964
225162
225161
225161
225161
225161
225161
225131
225161
225160
223426
224478
224531
224961
225160
225159
225161
225087
225126
225134
224167
225161
222507
224072
225161
225161
225161
225161
225161
225181
225160
217071
224927
231140
225161
225161
225160
225147
225157
225161
225150
225161
225161
225161
225161
225161
225159
225161
225161
225161
225161
225161
225156
225161
225208
208368
223310
223149
223308
224394
223128
223116
224498
223401
223522
223472
223580
223555
223602
223595
223575
223603
223520
223544
223498
223507
223499
223499
223502
223500
223504
223503
223506
223505
223506
223506
223507
223506
223507
223507
223507
223507
223506
223506
223506
223506
223506
223506
223506
223506
223506
223506
223506
223506
223506
223506
223506
223506
223506
223506
223506
223506
223506
223506
223504
223506
223470
223497
223026
223365
222122
223652
223207
223858
223808
223876
223872
223877
223877
223877
223877
223878
223878
223878
223878
223878
223878
223878
223878
223878
223878
223877
223878
223877
223877
223872
223876
223808
223857
223208
223652
222123
223365
223026
223498
223470
223506
223504
223506
223506
223506
223506
223506
223506
223506
223506
223506
223506
223507
223506
223507
223507
223507
223507
223507
223507
223508
223508
223509
223508
223513
223510
223520
223516
223532
223526
223541
223539
223537
223540
223529
223534
223522
223525
223519
223520
223517
223518
223516
223516
223517
223516
223535
223523
223560
225095
225088
225101
225099
225103
225102
225102
225103
225102
225102
225105
225103
225111
225108
225114
225102
225103
225102
225102
225102
225102
225101
225102
225098
225090
225156
225138
225161
225164
225164
225164
225164
225165
225165
225166
225165
225168
225166
225172
225196
225161
225188
225193
225196
225161
225155
225163
225163
225164
225164
225164
225164
225165
225165
225166
225166
225168
225167
225169
225161
225156
224818
224660
225161
225160
225158
225161
225161
224740
224853
225191
225170
225168
225240
225614
223058
220802
225139
264918
223342
225161
225161
225161
224849
225161
225161
223863
225156
225161
225161
225161
225159
222149
225507
225393
225166
256086
223286
225139
225253
224218
219469
221478
223818
218644
225169
225200
225252
225247
225256
225265
225260
224972
225161
225042
225132
225159
225102
225158
225157
225099
225161
225160
222729
225161
225220
225161
225149
225161
225160
225161
225092
224985
224992
225097
224585
224847
225247
225237
225187
225163
225220
220823
224745
225161
225161
225161
225161
225109
250915
225182
224246
225161
225161
225161
225161
225161
224660
222566
225160
225162
225161
222901
225161
225161
225304
225161
225161
225161
225187
225202
220916
219942
221366
220208
224974
225085
224962
225323
225350
225360
225392
225161
225161
225161
225154
225160
224930
225160
225160
224934
225161
225108
219665
225161
225161
225160
225161
225137
224005
224714
225224
225161
225331
217476
218358
225161
225161
225144
225161
225161
225161
225160
220706
225161
257578
225174
224878
225558
225161
225161
225114
225161
223120
224397
225161
225160
224451
225161
224950
225160
225160
225161
225152
224435
225279
225161
214867
217661
217244
220192
225161
225161
219678
225160
225161
224823
225161
223299
224447
225161
225160
225158
225161
225336
225161
220419
225161
225161
225161
225159
225161
225161
223733
225296
225450
226800
225161
221476
221079
221323
220935
220962
223099
220750
220888
223140
220828
221232
221073
221428
221346
221529
221486
221561
221550
221536
221565
221468
221500
221439
221449
221434
221433
221434
221433
221436
221435
221437
221437
221438
221438
221438
221438
221438
221438
221438
221438
221438
221438
221438
221438
221437
221437
221437
221437
221437
221437
221437
221437
221437
221437
221437
221437
221437
221437
221437
221437
221437
221437
221435
221437
221397
221428
221284
220207
221841
221365
222061
222009
222081
222076
222082
222082
222083
222083
222083
222083
222083
222083
222083
222083
222083
222083
222083
222083
222083
222083
222082
222082
222076
222081
222009
222061
221841
219944
221285
220917
221428
221398
221437
221435
221437
221437
221437
221437
221437
221437
221437
221437
221437
221437
221437
221437
221438
221437
221438
221438
221439
221438
221439
221439
221441
221441
221448
221445
221462
221455
221480
221471
221490
221490
221483
221487
221471
221478
221461
221465
221456
221458
221455
221455
221455
221453
221464
221459
221499
221477
221620
221544
221909
221751
224988
224976
225000
224996
225003
225002
225002
225003
225003
225002
225008
225005
225018
225013
225008
225023
224984
225001
225112
225106
225027
225012
225018
225029
225007
225011
225002
225004
225001
225001
225003
225003
225000
225002
224990
224995
224983
225161
225141
225167
225170
225170
225172
225171
225173
225172
225176
225174
225181
225178
225187
225270
1.87219e+07
225249
225254
225266
225145
224982
225098
225167
225162
225169
225169
225170
225170
225172
225171
225174
225173
225176
225175
225179
225178
225182
225161
225154
225149
225145
225161
226365
225245
225160
225158
220606
225161
225102
224884
225169
225203
225212
222955
220736
220777
225413
220694
220943
220994
222001
223894
225161
225161
482682
225169
224849
225161
223939
224034
225156
225081
225161
225161
225419
225358
225161
225245
420875
221350
224672
222512
225141
220437
224403
217883
217885
221986
224962
217505
225407
225392
225365
225400
225415
225410
225161
225939
225159
225028
225128
225159
225103
225158
225157
225097
225161
225161
224567
1.86085e+07
225149
225161
225161
225160
225161
225140
224673
224937
225182
225162
225311
219524
224885
215938
224717
225161
225161
225161
225161
225146
225144
225146
226928
224288
225161
225161
225161
225220
225246
225161
225161
225161
220502
222664
225160
224425
225161
225161
225161
209401
225161
225635
216011
224907
225505
263874
225617
224998
224751
224767
225161
225161
225150
225160
224932
225160
220435
216305
220235
225160
224938
225162
225165
229606
222013
225105
225161
225160
225161
225154
225161
224277
224851
225209
225161
225161
218327
215688
230811
214453
214270
216667
217959
225161
225161
225156
222744
225161
225161
225161
225160
225819
225161
219129
221514
220150
225361
225160
225161
225161
225064
225161
224395
222985
225160
287460
225329
225161
225160
224931
222923
225160
225160
225161
225158
224691
225249
225161
225306
220556
221407
225360
224521
224370
225161
225161
225161
225160
225161
225161
222801
225481
225358
218393
218907
217884
218106
217600
217725
217123
217478
216872
215139
217448
217069
217901
217717
218131
218033
218253
218204
218295
218281
218279
218308
218220
218249
218186
218197
218179
218180
218177
218178
218177
218177
218178
218178
218178
218178
218178
218178
218178
218178
218178
218178
218177
218177
218177
218177
218176
218177
218177
218177
218177
218177
218176
218176
218176
218176
218176
218176
218176
218176
218176
218176
218175
218176
218174
218175
218133
218167
217595
218006
214216
216510
210372
217001
214440
218797
218274
219039
218981
219060
219055
219061
219061
219062
219062
219062
219062
219062
219062
219062
219062
219062
219062
219062
219062
219062
219062
219061
219061
219055
219060
218981
219039
218274
218797
214442
217002
210376
216512
214219
218007
217596
218166
218133
218175
218174
218176
218175
218177
218177
218177
218177
218176
218176
218176
218176
218177
218176
218177
218177
218176
218176
218177
218177
218179
218177
218181
218180
218192
218186
218209
218200
218228
218218
218231
218235
218222
218228
218211
218217
218204
218206
218200
218202
218201
218198
218205
218197
218218
218207
218271
218237
218423
218322
218715
218558
218770
218798
218742
224740
224742
224769
224753
224787
224780
224792
224791
224792
224793
224793
224792
224800
224795
224811
224806
224795
224810
224771
224776
224789
224777
224820
224805
224815
224823
224799
224806
224791
224794
224791
224790
224793
224793
224788
224792
224773
224782
224747
224762
224728
224731
224745
225101
224980
225173
225153
220793
225179
225183
220343
225185
225184
225189
225187
225193
225191
225199
225196
225208
225202
225245
225220
225442
228653
225270
225376
225398
225422
225159
225113
225180
225175
225182
225181
225185
225183
225189
225186
225194
225191
225198
225196
225204
225201
225210
225161
225161
225154
225148
222752
215886
215645
225145
225161
225161
220523
225160
225158
225161
225161
225142
224935
225167
225292
223530
222215
221007
220235
217913
218605
217497
217681
217339
217465
217322
217349
216579
217234
215822
214870
215328
223874
225161
225161
225147
224702
224863
225161
225311
221450
223154
224123
225161
225161
223644
225161
224058
225156
225161
225163
215197
215835
225160
225160
225089
229176
225161
229196
227968
225147
218630
225729
214913
218514
224079
215042
233558
209791
225704
225646
225581
225554
224389
225652
225670
224392
224408
225161
225160
225158
225017
225124
225159
225103
225158
219055
220156
225157
225100
225230
225193
225161
224940
229533
222921
225148
225161
225036
225133
225161
225161
225161
225161
225155
224794
225010
225177
225162
218570
216257
218571
218874
223830
225470
217696
217493
215629
218367
215818
219942
225160
218740
221954
224689
225161
225161
225161
225161
225156
225156
225156
223083
224263
225161
225161
225161
225161
222590
225160
225161
223268
222696
235967
225161
209769
205478
210000
205415
224373
224387
225303
225160
224846
225161
225161
225160
225137
225160
224931
225160
222904
225160
225244
225005
225161
225161
225161
225388
225099
225161
225161
225160
225161
225159
224482
224972
225196
225161
225272
221325
220926
224659
218262
225247
220332
221327
222896
221183
225278
225321
225161
225161
225159
225161
225161
223065
225161
225161
225161
225161
225160
224963
224357
225162
225160
210830
225564
224900
225161
225161
225161
225160
225160
225161
224904
225230
225161
222897
220974
225161
214285
213972
225775
225579
225452
224161
224556
225161
225161
210320
209511
221039
226240
223992
224826
225061
224831
215281
214788
215274
214325
214633
213683
213990
212991
213367
211947
212228
210993
211177
210498
209879
224641
208916
209500
226130
211420
210700
212664
211932
213487
213161
213877
213725
214066
213981
214157
214125
214186
214175
214185
214195
214167
214187
214143
214154
214139
214142
214139
214140
214139
214138
214138
214140
214134
214136
214133
214133
214135
214133
214134
214135
214134
214135
214133
214134
214133
214133
214133
214133
214134
214134
214134
214134
214133
214133
214133
214133
214133
214133
214133
214133
214132
214132
214130
214131
214087
214123
213498
213949
212305
205413
212851
210000
214833
214259
215098
215037
215120
215116
215122
215121
215122
215122
215122
215122
215122
215122
215122
215122
215122
215122
215122
215122
215122
215122
215122
215122
215116
215120
215036
215098
214259
214834
212851
205483
212308
209774
213949
213500
214124
214087
214131
214131
214132
214132
214133
214133
214132
214133
214133
214132
214133
214132
214133
214133
214132
214134
214131
214131
214132
214132
214134
214133
214137
214138
214149
214144
214159
214154
214171
214170
214166
214173
214158
214163
214155
214155
214154
214155
214156
214157
214157
214159
214158
214158
214175
214170
214225
214204
214352
214256
214533
214435
214521
214588
214447
224386
224384
224417
224402
224437
224429
224442
224441
224444
224444
224445
224444
224452
224447
224460
224458
224445
224457
224424
224430
224440
224429
224467
224455
224467
224470
224453
224460
224444
224447
224444
224443
224445
224445
224440
224444
224423
224434
224394
224410
224376
224781
225133
225016
225197
225180
225205
225203
225208
225206
225213
225210
225221
225217
225230
225226
225240
225235
225258
225247
225317
225277
225700
225749
225664
225380
225590
225658
225676
225025
224436
224796
225184
225139
225204
225199
225207
225206
225211
225209
225219
225215
225229
225224
225238
225234
225250
225243
225259
225161
225160
225153
225148
219584
225146
225171
225161
217602
217069
219694
218651
221302
220512
223760
223616
222522
225158
225074
225161
225161
225155
224997
225165
217963
225436
221068
221888
219881
217004
225161
229537
214498
215155
213886
214247
213312
213604
212767
213063
211590
212392
210948
219164
223827
225161
225161
225157
224393
225063
224808
224872
225161
223114
225161
224015
217109
225157
211754
214037
225161
236612
224307
224050
223270
212688
214385
199875
225451
199878
224420
225398
225799
225161
225160
225161
225161
225160
225155
225000
225119
225159
225102
225158
222297
222782
225158
225116
225274
225161
225185
225161
225804
221074
225439
225160
225147
225160
225221
225075
225161
225161
225161
225161
225159
224892
225069
225173
225162
225223
221230
221135
218095
218227
225562
225701
224023
220716
223123
223718
222504
221815
221848
224648
225409
225161
225161
225161
225161
225160
225159
225160
225161
224418
225161
225161
224225
225161
225161
225161
225161
225161
222674
224252
225161