/*--------------------------------*- C++ -*----------------------------------*\
| =========                 |                                                 |
| \\      /  F ield         | OpenFOAM: The Open Source CFD Toolbox           |
|  \\    /   O peration     | Version:  2212                                  |
|   \\  /    A nd           | Website:  www.openfoam.com                      |
|    \\/     M anipulation  |                                                 |
\*---------------------------------------------------------------------------*/
FoamFile
{
    version     2.0;
    format      ascii;
    arch        "LSB;label=32;scalar=64";
    class       volVectorField;
    location    "0.0998";
    object      U;
}
// * * * * * * * * * * * * * * * * * * * * * * * * * * * * * * * * * * * * * //

dimensions      [0 1 -1 0 0 0 0];

internalField   nonuniform List<vector> 
31661
(
(-79.4478 111.719 4.57133e-16)
(102.611 726.149 -1.34201e-17)
(97.4911 717.292 1.8168e-17)
(101.109 722.138 0)
(106.54 725.815 2.68056e-17)
(103.114 717.755 -3.64881e-17)
(105.831 722.16 -2.25155e-17)
(110.149 725.286 0)
(108.275 717.884 2.69603e-17)
(110.164 721.975 -3.84171e-20)
(-157.924 150.088 0)
(-181.243 670.758 -1.44484e-16)
(29.4214 24.7036 -1.17484e-16)
(0.318721 286.074 0)
(30.3524 141.264 1.99458e-16)
(70.4589 151.859 1.31015e-18)
(31.6475 131.403 0)
(-74.2162 135.285 -1.17573e-16)
(236.726 644.561 0)
(71.3619 159.602 0)
(209.877 565.078 5.83769e-17)
(205.139 565.859 -1.49167e-16)
(4.29509 399.345 -1.0778e-18)
(-103.218 201.725 3.59255e-17)
(-130.242 710.689 -1.21429e-16)
(211.796 561.551 0)
(1.52282 383.941 -3.1884e-18)
(31.6606 442.488 -6.2596e-17)
(-175.499 670.913 1.57965e-16)
(111.959 674.335 -7.94631e-17)
(-98.0491 207.525 -4.00059e-16)
(-69.6754 175.396 1.42734e-16)
(-84.0693 214.45 -7.43556e-17)
(245.616 627.189 8.14687e-17)
(-67.2759 619.195 -2.74396e-17)
(-84.6389 223.181 7.50772e-17)
(274.216 597.365 -2.39614e-16)
(-80.2128 223.322 -1.53678e-17)
(-16.07 430.082 -1.51724e-16)
(-114.848 290.785 -3.82976e-19)
(119.42 376.037 -2.22995e-16)
(90.6876 730.091 9.40965e-20)
(45.7715 237.717 1.54174e-16)
(18.9613 596.508 -2.03616e-16)
(17.4497 590.59 -2.13279e-16)
(173.235 660.213 -9.70884e-17)
(23.3567 593.622 -1.024e-16)
(215.491 599.881 -1.04288e-16)
(277.876 599.028 0)
(1.4152 371.761 0)
(139.39 461.756 0)
(-3.68091 399.313 -2.88848e-17)
(-169.898 653.01 -4.78487e-17)
(230.498 601.371 9.45882e-17)
(48.8812 468.472 -1.18323e-16)
(-213.931 658.989 7.94619e-17)
(-183.031 646.664 -9.53844e-17)
(-155.917 641.673 -5.04983e-17)
(13.0097 628.79 -1.46386e-16)
(-212.984 652.614 -2.0871e-16)
(-186.137 661.208 1.70751e-16)
(-197.66 660.226 0)
(-94.3394 603.166 -2.25518e-16)
(-60.7041 747.423 0)
(-264.773 594.553 0)
(129.847 239.41 0)
(-83.3942 51.503 2.69314e-16)
(12.4074 640.684 4.64253e-17)
(11.9605 653.842 9.5492e-18)
(13.6364 666.293 6.97623e-17)
(-185.345 675.97 -6.85902e-17)
(12.2489 682.128 -1.81108e-17)
(10.2647 693.884 0)
(8.70276 704.785 4.42398e-18)
(7.64795 714.439 3.46819e-17)
(6.79309 723.385 -3.3298e-17)
(6.01469 731.299 0)
(5.30098 738.362 0)
(4.63677 744.471 0)
(4.03923 749.754 0)
(3.52307 754.202 -1.94891e-18)
(3.08177 757.911 -1.92541e-17)
(2.73022 760.936 1.54903e-17)
(2.46536 763.375 -3.84958e-18)
(4.16905 762.772 1.92684e-17)
(5.68902 760.247 1.66226e-19)
(7.46445 757.125 -1.5404e-17)
(9.53476 753.313 3.90501e-18)
(11.8659 748.772 0)
(14.4999 743.432 1.00978e-18)
(17.3472 737.286 0)
(20.4528 730.284 -3.39641e-17)
(23.6624 722.465 3.26672e-17)
(27.1104 713.759 -1.08082e-18)
(30.34 704.39 3.8994e-17)
(33.9798 694.345 -3.58441e-17)
(37.7868 684.045 -5.02819e-19)
(42.4789 674.015 1.99383e-17)
(42.6946 663.753 0)
(41.9027 653.239 -5.19973e-18)
(42.0751 642.313 5.0041e-18)
(41.9387 632.424 3.97505e-17)
(42.2526 623.537 -5.67836e-18)
(11.5427 614.82 7.70636e-17)
(37.9393 614.787 -4.74965e-17)
(8.61568 605.194 2.175e-17)
(33.2062 606.434 3.22162e-17)
(6.95206 596.931 3.39572e-17)
(29.0176 598.718 -5.64659e-18)
(5.80936 589.851 -2.4845e-17)
(25.1107 591.895 2.61154e-17)
(4.89224 583.882 0)
(21.406 585.981 -4.72606e-17)
(4.10761 578.918 0)
(17.9695 580.926 2.34658e-17)
(3.43039 574.834 0)
(14.8961 576.669 0)
(2.8617 571.497 -9.14092e-20)
(12.2418 573.118 9.24401e-20)
(2.38827 568.777 -1.84594e-19)
(10.0058 570.173 -5.98018e-18)
(1.99654 566.554 1.85313e-19)
(8.16484 567.737 1.17187e-17)
(1.67875 564.728 5.9236e-18)
(6.68328 565.721 -1.19618e-17)
(1.42191 563.209 -5.96854e-18)
(5.50565 564.04 5.96566e-18)
(1.21348 561.927 -6.19018e-18)
(4.58059 562.624 -2.95696e-18)
(1.04568 560.823 -4.48955e-20)
(3.86015 561.413 -2.76092e-20)
(0.907552 559.854 6.03446e-18)
(3.30059 560.357 3.06428e-18)
(0.791643 558.982 1.89777e-19)
(2.86719 559.416 3.04419e-18)
(0.693025 558.178 0)
(2.53171 558.558 -2.98769e-18)
(0.607078 557.417 3.05577e-18)
(2.27316 557.754 3.15207e-18)
(0.529896 556.677 1.0916e-19)
(2.07459 556.98 1.43852e-20)
(0.459212 555.939 1.3423e-20)
(1.92353 556.213 -3.02613e-18)
(0.392781 555.186 -6.21927e-18)
(1.81157 555.436 9.57331e-20)
(0.329416 554.4 6.03855e-18)
(1.73288 554.63 0)
(0.267518 553.565 -3.06447e-18)
(1.68295 553.776 4.79968e-20)
(0.205756 552.661 -6.06812e-18)
(1.65982 552.854 0)
(0.143184 551.669 5.85511e-18)
(1.66235 551.844 9.62401e-20)
(0.0792186 550.564 3.09406e-18)
(1.69026 550.723 9.6425e-20)
(0.012583 549.323 -9.37951e-18)
(1.7442 549.465 -3.101e-18)
(-0.05741 547.916 3.06319e-18)
(1.82507 548.041 -3.13043e-18)
(-0.131155 546.309 -2.45066e-20)
(1.93585 546.415 3.0657e-18)
(-0.209735 544.46 -2.7857e-20)
(2.07827 544.548 -2.80963e-20)
(-0.294772 542.321 9.55194e-18)
(2.25435 542.391 3.09924e-18)
(-0.387506 539.832 -6.2086e-18)
(2.46688 539.883 -1.18051e-18)
(-0.490311 536.916 -3.9129e-19)
(2.71866 536.947 1.55522e-18)
(3.01 533.466 -3.92397e-19)
(-0.60409 533.454 1.97471e-18)
(-4.21361 533.236 -1.21553e-18)
(-3.69616 536.728 -1.18534e-18)
(-3.24111 539.673 0)
(-2.84235 542.188 1.35505e-18)
(-2.49567 544.352 -3.30194e-18)
(-2.19569 546.223 -1.53279e-18)
(-1.93773 547.851 2.91319e-18)
(-1.71716 549.277 -3.08121e-18)
(-1.53023 550.534 3.09527e-18)
(-1.37357 551.653 6.33802e-18)
(-1.24485 552.659 -9.23648e-18)
(-1.14276 553.576 -2.9539e-18)
(-1.06593 554.425 1.23643e-17)
(-1.01435 555.222 -2.71299e-20)
(-0.989463 555.988 -3.07748e-18)
(-0.993106 556.74 -1.40765e-20)
(-1.02963 557.495 -1.48e-20)
(-1.10556 558.275 -3.04916e-18)
(-1.2293 559.101 -6.24106e-18)
(-1.41353 559.999 3.05633e-18)
(-1.67446 561.002 6.03353e-18)
(-2.03338 562.147 6.66507e-20)
(-2.5154 563.482 -5.99326e-18)
(-3.15136 565.066 -2.82967e-18)
(-3.97567 566.975 5.61038e-18)
(-5.01926 569.295 5.50524e-19)
(-6.31205 572.132 0)
(-7.85757 575.6 0)
(-9.64102 579.824 1.41957e-18)
(-11.5982 584.931 -1.10925e-17)
(-13.579 591.039 1.14418e-17)
(-15.3009 598.257 -2.6765e-17)
(-16.2511 606.727 -1.99003e-17)
(-15.6214 616.679 2.98925e-17)
(-15.2237 627.26 8.62066e-18)
(-18.6836 640.23 -3.49613e-18)
(-17.7573 653.623 -9.15715e-18)
(-15.4068 666.98 0)
(-13.6836 679.131 -6.48005e-17)
(-15.5712 691.511 3.84776e-17)
(-14.1599 702.541 -2.31009e-18)
(-12.6527 712.605 6.8404e-17)
(-10.7417 721.759 -1.79236e-17)
(-8.93029 729.923 -3.29574e-17)
(-7.12547 737.158 -1.53966e-17)
(-5.51828 743.441 6.17895e-17)
(2.89089 764.773 1.14405e-17)
(2.27772 765.295 7.63665e-18)
(-4.00674 748.848 -4.94173e-17)
(-2.67709 753.398 3.12313e-17)
(-1.46265 757.189 -1.17518e-17)
(-0.359592 760.299 -1.53609e-17)
(0.658983 762.82 1.54179e-17)
(2.17422 766.739 0)
(1.82274 766.295 -2.67414e-17)
(1.71677 764.951 1.53493e-17)
(3.78359 763.214 3.82482e-18)
(6.19915 760.981 0)
(9.00485 758.204 -7.80568e-18)
(12.2192 754.82 9.74203e-18)
(15.8942 750.748 -1.95103e-18)
(20.0115 745.94 -1.71741e-17)
(24.576 740.367 -1.4667e-18)
(29.5052 734.016 1.62068e-17)
(34.7869 726.898 1.74435e-17)
(40.2099 719.058 -1.67754e-17)
(45.8326 710.5 -1.11642e-18)
(51.2901 701.387 -4.53864e-18)
(56.7012 691.85 0)
(62.0774 681.932 -9.92265e-18)
(66.5274 672.161 9.71477e-18)
(68.611 662.665 0)
(69.3447 653.144 3.89645e-18)
(69.484 643.822 -6.51879e-18)
(68.8747 634.998 -1.91276e-17)
(66.7257 626.746 2.02029e-18)
(62.1535 618.732 0)
(56.5911 610.95 1.13145e-17)
(50.663 603.721 -2.30202e-17)
(44.6254 597.094 2.21735e-17)
(38.6393 591.103 2.1564e-18)
(32.9331 585.765 -2.69345e-20)
(27.6573 581.071 1.18475e-17)
(22.9689 577.006 -1.15525e-17)
(18.9145 573.531 0)
(15.5009 570.591 -2.28816e-20)
(12.6908 568.119 2.30332e-20)
(10.4211 566.043 0)
(8.61696 564.298 -2.36314e-20)
(7.19894 562.816 -3.02605e-18)
(6.09703 561.542 -7.30957e-20)
(5.2484 560.428 3.03406e-18)
(4.60121 559.431 3.0037e-18)
(4.11167 558.515 -3.13727e-18)
(3.74787 557.65 1.53015e-18)
(3.48473 556.809 -1.54885e-18)
(3.30414 555.967 4.78169e-20)
(3.19363 555.103 4.78825e-20)
(3.14561 554.196 -2.41751e-23)
(3.15414 553.225 -4.80659e-20)
(3.21798 552.167 1.54494e-18)
(3.33615 550.997 -1.73073e-18)
(3.51012 549.689 1.6481e-18)
(3.74356 548.213 -1.54392e-18)
(4.03934 546.533 1.75321e-18)
(4.40418 544.608 -1.54841e-18)
(4.84319 542.389 1.56776e-18)
(5.36315 539.817 -3.71473e-19)
(5.96893 536.814 -1.94895e-18)
(6.66394 533.267 0)
(7.44714 528.989 -1.58775e-18)
(3.34044 529.245 -3.93372e-19)
(-0.730115 529.247 -1.57719e-18)
(-4.79526 529.001 -8.478e-19)
(-8.88998 528.503 0)
(-7.85986 532.806 -3.92077e-19)
(-6.94036 536.375 1.55644e-18)
(-6.1325 539.398 -1.76804e-18)
(-5.42888 541.986 0)
(-4.81929 544.218 1.94181e-19)
(-4.29689 546.153 -1.54562e-18)
(-3.85224 547.839 1.65136e-18)
(-3.47904 549.318 1.93341e-19)
(-3.17019 550.626 0)
(-2.92095 551.791 0)
(-2.72771 552.843 -1.44317e-19)
(-2.58838 553.804 1.43657e-18)
(-2.50228 554.697 -1.0312e-19)
(-2.47111 555.542 -1.34382e-18)
(-2.49977 556.36 -1.5251e-18)
(-2.59586 557.17 1.43483e-18)
(-2.77146 557.994 1.51923e-18)
(-3.04294 558.855 -1.14511e-18)
(-3.43411 559.782 0)
(-3.97647 560.806 0)
(-4.71026 561.966 0)
(-5.68594 563.308 0)
(-6.96333 564.888 -1.48472e-18)
(-8.60951 566.771 1.4979e-18)
(-10.6945 569.035 3.7171e-19)
(-13.2791 571.761 -3.26973e-18)
(-16.412 575.04 2.22968e-18)
(-20.096 578.962 1.41376e-18)
(-24.2871 583.608 -4.4255e-20)
(-28.8513 589.048 5.48705e-18)
(-33.5649 595.337 -5.6485e-18)
(-38.0691 602.513 -5.17873e-18)
(-41.8723 610.602 -4.58967e-18)
(-44.6035 619.563 -1.50636e-17)
(-46.1866 629.743 3.02876e-19)
(-48.601 640.799 4.76078e-18)
(-48.3346 652.602 -1.79387e-17)
(-46.3567 664.423 3.62992e-17)
(-43.3686 676.353 -1.39083e-17)
(-41.1657 687.592 0)
(-37.6032 698.412 3.8291e-17)
(-33.4901 708.478 -3.5198e-17)
(-29.0084 717.783 -1.64477e-17)
(-24.6086 726.197 1.63478e-17)
(-20.3365 733.729 -1.60111e-17)
(-16.4306 740.322 3.60993e-17)
(-12.8357 746.016 -2.97417e-17)
(-9.61347 750.853 3.10525e-19)
(1.58211 764.81 -7.6458e-18)
(-6.68558 754.929 1.96324e-17)
(-4.0588 758.314 0)
(-1.7004 761.081 0)
(-0.0176591 766.245 -1.53269e-17)
(0.963374 767.394 -3.79292e-18)
(2.44219 766.315 0)
(2.13482 767.775 3.82126e-18)
(-1.46162 767.174 -1.52933e-17)
(-2.77882 765.461 7.68509e-18)
(-0.494398 764.272 -7.68185e-18)
(2.19507 762.648 -1.15685e-17)
(5.33487 760.566 -6.5008e-20)
(8.95005 757.963 -8.8249e-20)
(13.0902 754.785 7.77762e-18)
(17.7794 750.974 -1.9568e-18)
(23.0411 746.484 -1.01432e-18)
(28.8836 741.265 9.97327e-19)
(35.2568 735.322 0)
(42.0875 728.666 -5.33958e-19)
(49.2728 721.331 -8.96948e-18)
(56.6173 713.412 7.99122e-18)
(63.96 705.009 1.09394e-18)
(71.0509 696.267 1.0754e-18)
(77.7201 687.312 0)
(83.8332 678.285 4.94107e-18)
(88.6415 669.576 -4.98391e-18)
(91.4325 661.275 -7.71984e-18)
(92.745 653.215 -1.34088e-18)
(92.8283 645.464 0)
(91.7273 638.101 5.44785e-18)
(88.9421 631.089 -1.9704e-18)
(84.1017 624.195 0)
(78.1125 617.386 -5.87615e-18)
(71.3884 610.813 1.9533e-17)
(64.1892 604.513 -9.62066e-18)
(56.7945 598.541 -3.46732e-20)
(49.4303 592.931 -7.32509e-19)
(42.3818 587.755 -1.14247e-17)
(35.8535 583.061 1.73679e-17)
(29.9957 578.885 -5.78841e-18)
(24.8768 575.23 2.04572e-19)
(20.5195 572.074 5.98374e-18)
(16.8996 569.382 -2.90528e-18)
(13.9467 567.098 -2.97575e-18)
(11.5796 565.159 0)
(9.71589 563.51 -3.04054e-18)
(8.26831 562.09 2.95814e-18)
(7.15764 560.845 0)
(6.32011 559.73 3.05832e-18)
(5.70026 558.701 -3.04477e-18)
(5.25795 557.725 0)
(4.95991 556.769 -9.56874e-20)
(4.78348 555.805 -4.79598e-20)
(4.71264 554.809 -1.58956e-18)
(4.73725 553.754 3.95179e-20)
(4.85119 552.615 1.53789e-18)
(5.05326 551.364 1.92922e-19)
(5.34551 549.972 1.55316e-18)
(5.73005 548.409 -1.54518e-18)
(6.21364 546.638 1.36706e-18)
(6.80291 544.616 -1.55059e-18)
(7.50714 542.295 1.37523e-18)
(8.33496 539.614 -1.55649e-18)
(9.29456 536.499 -1.6368e-21)
(10.391 532.842 -7.95051e-19)
(11.62 528.467 7.75742e-19)
(12.9626 523 1.18334e-18)
(8.30583 523.579 -8.76861e-21)
(3.70453 523.869 3.96386e-19)
(-0.867363 523.878 1.56565e-18)
(-5.43318 523.613 3.94217e-18)
(-10.0213 523.074 7.90506e-19)
(-14.655 522.26 -2.3829e-18)
(-13.0505 527.748 1.59889e-18)
(-11.5805 532.157 -3.86148e-19)
(-10.2655 535.847 7.90818e-19)
(-9.1054 538.992 -8.48383e-22)
(-8.09282 541.698 0)
(-7.21804 544.041 1.35463e-18)
(-6.46892 546.077 -1.65829e-18)
(-5.83601 547.858 1.93844e-19)
(-5.30796 549.427 -1.93186e-19)
(-4.87691 550.818 -9.66528e-20)
(-4.53755 552.063 0)
(-4.28534 553.192 1.53622e-18)
(-4.11898 554.231 -8.10791e-21)
(-4.03923 555.205 -1.4428e-18)
(-4.05235 556.136 -1.91608e-19)
(-4.16878 557.05 -1.52508e-18)
(-4.40481 557.971 3.05287e-18)
(-4.78352 558.927 -2.66639e-18)
(-5.33626 559.949 -5.5893e-19)
(-6.1066 561.073 1.5209e-18)
(-7.14766 562.342 -3.75166e-19)
(-8.52637 563.805 0)
(-10.3208 565.519 3.706e-19)
(-12.6172 567.548 7.38248e-19)
(-15.5032 569.961 -1.84357e-18)
(-19.0589 572.828 1.70976e-20)
(-23.3379 576.213 1.98031e-20)
(-28.3661 580.17 2.17352e-18)
(-34.0868 584.732 -7.77264e-19)
(-40.3816 589.908 -4.24096e-18)
(-47.038 595.686 -1.35487e-18)
(-53.7605 602.041 1.39074e-18)
(-60.1454 608.935 -5.7431e-18)
(-65.7401 616.337 1.34298e-17)
(-70.1198 624.254 -2.61183e-18)
(-73.1783 632.894 -3.10482e-19)
(-75.5075 642.122 0)
(-75.4556 651.897 1.95413e-17)
(-73.4792 661.983 -1.80166e-17)
(-70.0113 672.371 -5.64231e-18)
(-65.8445 682.603 0)
(-60.4684 692.713 1.28323e-17)
(-54.3463 702.442 -3.47108e-17)
(-47.7434 711.696 1.7475e-17)
(-41.0315 720.309 -5.56553e-19)
(-34.5349 728.151 1.61501e-17)
(-28.4645 735.119 -1.84794e-17)
(-22.8391 741.233 0)
(-17.674 746.541 1.16474e-17)
(-12.9709 751.084 -3.53548e-17)
(0.401231 763.295 -7.65575e-18)
(-8.75024 754.908 2.73003e-17)
(-4.97009 758.08 -1.95392e-17)
(0.260791 768.185 -1.81338e-21)
(-4.73153 766.293 0)
(-2.72186 767.833 7.6298e-18)
(2.28636 765.008 7.68075e-18)
(3.22776 767.397 -7.6561e-18)
(2.14228 768.534 -7.46644e-18)
(-6.44779 766.89 -3.85771e-18)
(-8.5201 764.928 -1.15876e-17)
(-6.14629 764.103 3.83685e-18)
(-3.37394 762.939 2.34487e-20)
(-0.126621 761.36 -9.69282e-18)
(3.62035 759.309 -1.96937e-18)
(7.92695 756.757 1.98352e-18)
(12.8273 753.648 -7.94289e-18)
(18.3676 749.933 6.87243e-18)
(24.567 745.567 -5.1175e-19)
(31.4328 740.521 9.98562e-19)
(38.9232 734.787 0)
(46.9608 728.395 -8.54151e-18)
(55.4033 721.413 8.61671e-18)
(64.1125 713.912 2.79231e-19)
(72.8046 706.051 -1.42722e-19)
(81.2671 697.963 0)
(89.1989 689.817 1.13285e-18)
(96.3626 681.769 1.21143e-18)
(102.554 673.966 0)
(107.244 666.629 1.53196e-19)
(110.199 659.8 7.58411e-18)
(111.634 653.323 -1.23155e-18)
(111.675 647.195 0)
(110.359 641.366 5.34332e-18)
(107.568 635.737 -5.35223e-18)
(103.085 630.114 2.64571e-18)
(97.3835 624.431 -5.541e-18)
(90.7471 618.724 2.80447e-18)
(83.3785 613.002 -1.4195e-18)
(75.4957 607.295 -1.39936e-18)
(67.3366 601.668 -3.43675e-19)
(59.1641 596.206 5.45224e-18)
(51.2357 591 -1.15269e-17)
(43.789 586.148 1.16432e-17)
(36.9936 581.723 -8.94186e-18)
(30.9549 577.761 2.91015e-18)
(25.7292 574.275 0)
(21.3169 571.253 3.02761e-18)
(17.6736 568.659 -2.97e-18)
(14.7302 566.444 4.65442e-20)
(12.3983 564.548 1.54726e-18)
(10.5851 562.911 -1.48599e-18)
(9.20029 561.472 1.52854e-18)
(8.16899 560.18 -1.52e-18)
(7.42562 558.987 0)
(6.9194 557.85 1.58507e-18)
(6.60995 556.73 -2.29946e-18)
(6.46903 555.596 7.66715e-19)
(6.47602 554.416 -4.81351e-20)
(6.61888 553.157 0)
(6.89187 551.789 -8.72494e-19)
(7.29394 550.28 7.71787e-19)
(7.82726 548.594 6.82767e-19)
(8.49718 546.695 -7.75106e-19)
(9.31324 544.538 0)
(10.2839 542.074 3.91359e-19)
(11.4205 539.244 0)
(12.7318 535.975 7.89458e-19)
(14.2221 532.169 6.88879e-21)
(15.8838 527.665 -4.40562e-19)
(17.6893 522.129 -1.51019e-19)
(19.5567 514.807 -3.00901e-19)
(14.359 515.606 5.99874e-19)
(9.20106 516.134 -7.98085e-19)
(4.08177 516.395 3.98462e-19)
(-1.0156 516.397 0)
(-6.10506 516.146 -7.44033e-19)
(-11.2049 515.64 2.41963e-18)
(-16.3277 514.876 1.57466e-18)
(-21.4799 513.855 0)
(-19.3481 521.165 -1.19352e-18)
(-17.2961 526.729 1.1728e-18)
(-15.4043 531.275 -2.38545e-18)
(-13.7005 535.124 -7.81062e-19)
(-12.1922 538.432 1.76511e-18)
(-10.8722 541.296 -7.87264e-19)
(-9.7292 543.788 1.9458e-19)
(-8.75244 545.966 -3.41711e-22)
(-7.92785 547.878 2.77092e-22)
(-7.2449 549.571 0)
(-6.69566 551.079 9.66225e-20)
(-6.27287 552.439 9.65436e-20)
(-5.97488 553.683 8.1654e-19)
(-5.80353 554.838 -7.72068e-19)
(-5.76369 555.934 1.91796e-19)
(-5.869 557.001 -7.64132e-19)
(-6.14001 558.069 1.9573e-19)
(-6.60613 559.171 1.33585e-18)
(-7.3078 560.345 -1.90366e-18)
(-8.29694 561.631 9.52731e-19)
(-9.6398 563.08 -7.99064e-22)
(-11.4137 564.744 7.57836e-19)
(-13.7078 566.686 1.8591e-19)
(-16.6161 568.969 -5.64682e-19)
(-20.2296 571.655 -1.14426e-20)
(-24.621 574.802 3.85007e-19)
(-29.8368 578.453 -7.11655e-19)
(-35.8761 582.632 0)
(-42.6767 587.324 1.38797e-18)
(-50.0849 592.495 -1.38019e-18)
(-57.9012 598.074 4.19037e-18)
(-65.83 603.978 0)
(-73.5612 610.13 -5.25678e-18)
(-80.7279 616.461 5.39469e-18)
(-86.9552 622.932 5.10259e-18)
(-91.9366 629.581 0)
(-95.5292 636.551 1.23738e-18)
(-97.8089 643.878 0)
(-97.9952 651.58 1.57749e-20)
(-96.2837 659.678 1.72304e-17)
(-92.8203 668.221 -1.76351e-17)
(-87.9636 677.03 1.7761e-17)
(-81.738 686.028 -1.7312e-17)
(-74.4664 695.051 0)
(-66.4241 703.975 0)
(-58.0447 712.559 2.13048e-18)
(-49.767 720.583 0)
(-41.8002 727.92 1.62004e-17)
(-34.2126 734.56 -5.07207e-19)
(-27.1324 740.465 -8.23742e-18)
(-20.6452 745.612 -1.58036e-17)
(-14.7885 750.01 3.95893e-17)
(-1.59978 760.669 0)
(-9.48934 753.744 3.64911e-18)
(-0.343999 768.73 1.52493e-17)
(-3.83117 768.236 1.52973e-17)
(1.39737 762.717 0)
(-10.6255 765.499 2.7023e-17)
(-7.92817 767.221 7.68229e-18)
(3.96396 766.26 7.65919e-18)
(3.95077 768.176 0)
(2.18282 769.024 1.67394e-17)
(-12.446 765.802 -1.54066e-17)
(-15.0779 763.746 0)
(-12.6275 763.161 5.80822e-18)
(-9.84125 762.325 -7.76357e-18)
(-6.61867 761.124 3.8601e-18)
(-2.88231 759.494 -7.83076e-18)
(1.4281 757.417 9.7457e-18)
(6.34803 754.829 1.94627e-18)
(11.9286 751.692 -1.95674e-18)
(18.2074 747.958 -5.10503e-19)
(25.2029 743.598 1.51201e-18)
(32.909 738.59 -3.9102e-18)
(41.2864 732.94 1.42379e-19)
(50.2426 726.691 4.2848e-18)
(59.6413 719.914 -6.90261e-20)
(69.2915 712.717 -4.12072e-18)
(78.9456 705.248 4.08611e-18)
(88.315 697.682 -8.1547e-21)
(97.1213 690.199 -5.02552e-18)
(105.103 682.943 4.61263e-18)
(112.059 676.05 -3.62354e-18)
(117.77 669.635 1.15112e-18)
(121.982 663.781 1.26228e-18)
(124.708 658.434 6.36264e-19)
(126.048 653.464 -3.23973e-19)
(126.087 648.814 6.45064e-19)
(124.869 644.383 1.00278e-18)
(122.45 640.039 -1.46509e-18)
(118.688 635.634 0)
(113.804 631.081 0)
(107.94 626.355 0)
(101.205 621.431 2.77459e-18)
(93.7269 616.31 -2.33754e-18)
(85.6645 611.025 1.91595e-20)
(77.2163 605.643 -2.86425e-18)
(68.6149 600.259 2.87597e-18)
(60.1289 594.992 2.92478e-18)
(51.9769 589.947 -2.76022e-18)
(44.3732 585.219 2.96777e-18)
(37.4878 580.892 -2.90225e-18)
(31.4244 577.017 -2.99325e-18)
(26.2096 573.594 2.94496e-18)
(21.8471 570.617 -9.35212e-20)
(18.2833 568.048 2.38178e-20)
(15.4359 565.83 -1.5493e-18)
(13.2157 563.903 -1.90864e-20)
(11.5268 562.204 1.51556e-18)
(10.2856 560.674 1.18768e-20)
(9.41478 559.256 0)
(8.85422 557.901 0)
(8.5549 556.563 8.20286e-19)
(8.48159 555.2 -7.20329e-19)
(8.60942 553.774 -7.27662e-19)
(8.92198 552.245 6.74801e-19)
(9.41501 550.578 2.92688e-19)
(10.0858 548.732 -2.90182e-19)
(10.937 546.667 -9.77321e-20)
(11.9759 544.336 0)
(13.2121 541.69 -3.94017e-19)
(14.6545 538.672 -2.02968e-19)
(16.3108 535.214 3.92056e-19)
(18.1814 531.227 5.00628e-20)
(20.2534 526.57 -4.46385e-19)
(22.4879 520.958 1.01232e-18)
(24.7859 513.729 -6.95267e-19)
(26.9333 503.292 -6.32264e-21)
(21.3036 503.887 6.34321e-21)
(15.6662 504.283 0)
(10.0397 504.51 2.00702e-19)
(4.43263 504.59 -2.00751e-19)
(-1.16063 504.542 4.13406e-19)
(-6.74613 504.378 -2.37405e-18)
(-12.3297 504.087 -7.72689e-19)
(-17.9145 503.652 -8.06091e-19)
(-23.4925 503.058 8.03773e-19)
(-26.6498 512.58 1.5871e-18)
(-24.1096 519.79 -4.33208e-19)
(-21.6438 525.437 -8.08798e-19)
(-19.3543 530.143 3.94762e-19)
(-17.2783 534.181 0)
(-15.4277 537.686 0)
(-13.8024 540.745 0)
(-12.3924 543.424 0)
(-11.1863 545.78 9.72951e-20)
(-10.1726 547.862 3.31809e-22)
(-9.34055 549.714 2.89561e-19)
(-8.68289 551.379 -3.888e-19)
(-8.19643 552.893 2.8863e-19)
(-7.88427 554.294 -2.90769e-19)
(-7.75155 555.614 -4.80117e-19)
(-7.81577 556.89 1.93294e-19)
(-8.1013 558.16 1.91118e-19)
(-8.64516 559.464 -1.91678e-19)
(-9.4959 560.846 5.70841e-19)
(-10.717 562.357 -4.83908e-21)
(-12.3828 564.052 0)
(-14.5812 565.991 -3.74484e-19)
(-17.4061 568.239 -5.90882e-21)
(-20.9508 570.856 0)
(-25.2899 573.898 0)
(-30.4865 577.409 0)
(-36.5452 581.403 -1.4353e-18)
(-43.4286 585.874 2.20317e-18)
(-51.0326 590.783 0)
(-59.1853 596.043 -2.81491e-18)
(-67.633 601.554 -1.37479e-18)
(-76.1321 607.203 1.38364e-18)
(-84.3803 612.882 0)
(-92.1014 618.503 -2.60406e-18)
(-99.0373 624.018 0)
(-104.968 629.427 -5.24916e-18)
(-109.713 634.78 -9.97747e-18)
(-113.152 640.197 2.9789e-17)
(-115.229 645.769 -1.97948e-18)
(-115.565 651.585 -4.00743e-17)
(-114.216 657.77 8.15099e-19)
(-111.168 664.443 1.90291e-17)
(-106.548 671.572 -1.82008e-17)
(-100.388 679.152 -2.30736e-19)
(-92.9107 687.105 1.17117e-18)
(-84.353 695.298 1.81222e-17)
(-75.1527 703.498 -2.17684e-18)
(-65.713 711.466 0)
(-56.2608 719.064 0)
(-47.0029 726.186 0)
(-38.1911 732.692 -8.21671e-18)
(-30.039 738.465 -1.60459e-17)
(-22.5084 743.549 2.81497e-17)
(-4.75697 756.843 -1.56855e-17)
(-15.6362 747.976 -1.60971e-17)
(-29.0442 502.289 8.1343e-19)
(-9.43361 751.734 0)
(-0.862514 769.005 3.8349e-18)
(-0.540552 759.379 7.75922e-18)
(-4.73071 768.382 -1.91615e-17)
(4.05169 764.303 -7.76375e-18)
(-9.18501 767.294 0)
(5.44374 767.16 0)
(-17.209 764.064 0)
(-14.0086 765.853 -7.75971e-18)
(4.64211 768.715 -3.81978e-18)
(2.22645 769.218 2.4945e-20)
(-19.0491 764.132 -3.91045e-18)
(-22.0931 762.059 -1.17353e-17)
(-19.662 761.699 1.56418e-17)
(-16.8715 761.083 -9.79259e-18)
(-13.705 760.175 1.95731e-17)
(-10.0469 758.895 -5.84539e-18)
(-5.81499 757.194 7.89645e-18)
(-0.986651 755.022 -7.87033e-18)
(4.50834 752.343 1.01141e-18)
(10.7095 749.111 0)
(17.6542 745.289 -4.08256e-18)
(25.354 740.852 4.53911e-18)
(33.7867 735.795 -5.05679e-19)
(42.8925 730.147 2.38434e-18)
(52.579 723.949 -2.3527e-18)
(62.6776 717.3 -1.31407e-19)
(72.9787 710.325 3.12171e-20)
(83.2316 703.18 -6.78919e-20)
(93.1421 696.054 -2.40372e-18)
(102.442 689.117 4.53115e-20)
(110.882 682.525 2.60171e-18)
(118.256 676.395 1.22197e-18)
(124.469 670.795 -2.43676e-18)
(129.381 665.766 2.31311e-18)
(132.957 661.298 -2.47033e-18)
(135.282 657.279 1.04673e-20)
(136.467 653.597 0)
(136.571 650.172 8.11856e-20)
(135.679 646.892 5.74724e-19)
(133.815 643.623 -4.81999e-19)
(130.921 640.27 -6.652e-19)
(127.078 636.742 6.55176e-19)
(122.334 632.991 0)
(116.715 628.967 0)
(110.262 624.644 6.80487e-19)
(103.036 620.016 1.84421e-19)
(95.1433 615.105 0)
(86.7364 609.971 -9.00711e-20)
(78.0178 604.7 0)
(69.2108 599.397 1.36134e-18)
(60.5628 594.183 -1.41584e-18)
(52.321 589.183 0)
(44.6825 584.492 -2.35138e-20)
(37.8098 580.192 -2.24987e-20)
(31.7934 576.324 5.02633e-20)
(26.6721 572.899 0)
(22.4318 569.9 0)
(19.0116 567.282 0)
(16.3326 564.989 -7.66054e-19)
(14.2992 562.954 7.34345e-19)
(12.8213 561.113 2.37695e-20)
(11.813 559.402 0)
(11.2037 557.76 3.38645e-19)
(10.9351 556.133 -7.71984e-19)
(10.9641 554.471 1.11464e-18)
(11.2588 552.724 -2.85953e-19)
(11.7985 550.846 -6.81083e-19)
(12.5788 548.794 -3.91769e-21)
(13.5941 546.521 4.86742e-19)
(14.8455 543.976 -1.97404e-19)
(16.3379 541.11 -3.97231e-19)
(18.0751 537.869 3.90081e-19)
(20.0612 534.191 1.96783e-19)
(22.2899 529.998 2.00286e-19)
(24.7385 525.174 4.05285e-19)
(27.3575 519.483 -4.99564e-19)
(30.0319 512.367 0)
(32.5266 502.471 8.37373e-19)
(34.3029 486.801 5.36871e-20)
(28.4216 486.257 8.04961e-19)
(22.4824 485.625 5.1155e-20)
(16.5257 484.997 8.54829e-19)
(10.5772 484.457 -8.54237e-19)
(4.64582 484.072 -4.26821e-19)
(-1.27315 483.888 1.23585e-20)
(-7.18664 483.938 2.15788e-20)
(-13.0999 484.203 8.11605e-19)
(-19.0084 484.631 8.9324e-19)
(-24.9028 485.152 0)
(-30.7611 485.679 1.70402e-18)
(-34.5392 501.323 7.89672e-19)
(-31.8237 511.055 -5.04237e-20)
(-28.9324 518.146 -1.63116e-18)
(-26.1033 523.87 3.98076e-19)
(-23.448 528.747 0)
(-21.0217 532.996 1.99218e-19)
(-18.8458 536.726 -9.92065e-20)
(-16.9233 540.012 -1.95526e-19)
(-15.2524 542.914 1.97456e-19)
(-13.8243 545.484 0)
(-12.6306 547.774 -9.73382e-20)
(-11.6658 549.829 4.84633e-19)
(-10.927 551.694 -1.96672e-19)
(-10.4212 553.414 -1.94432e-19)
(-10.1523 555.029 -1.52726e-22)
(-10.1434 556.581 3.30961e-22)
(-10.4257 558.119 1.91359e-19)
(-11.0427 559.691 -7.66267e-19)
(-12.0529 561.35 1.94249e-19)
(-13.5284 563.155 2.44359e-21)
(-15.554 565.169 -5.09435e-20)
(-18.2218 567.457 -3.24395e-19)
(-21.624 570.084 2.59388e-21)
(-25.843 573.108 -7.42243e-19)
(-30.9404 576.573 -7.30409e-19)
(-36.9211 580.494 1.46089e-18)
(-43.7627 584.868 0)
(-51.3722 589.653 0)
(-59.5764 594.765 2.10383e-18)
(-68.1866 600.113 -2.861e-18)
(-76.9502 605.57 8.02929e-20)
(-85.5866 611.006 -1.40888e-18)
(-93.8606 616.315 6.63274e-18)
(-101.536 621.411 -1.59377e-17)
(-108.461 626.254 1.59804e-17)
(-114.501 630.833 -7.69423e-18)
(-119.551 635.173 2.05651e-17)
(-123.553 639.344 -1.02854e-17)
(-126.442 643.442 -1.25985e-18)
(-128.152 647.558 4.61652e-22)
(-128.511 651.818 -2.05555e-17)
(-127.506 656.371 3.8798e-17)
(-125.036 661.345 -9.65392e-19)
(-121.101 666.812 -1.92796e-17)
(-115.646 672.84 1.83096e-17)
(-108.758 679.433 -3.69885e-17)
(-100.589 686.518 1.90914e-17)
(-91.4369 693.94 1.85207e-17)
(-81.6101 701.51 -1.79275e-17)
(-71.335 709.077 0)
(-60.9572 716.444 0)
(-50.8799 723.351 4.07885e-18)
(-41.2363 729.725 0)
(-32.0821 735.554 1.61238e-17)
(-23.6435 740.712 -1.63952e-17)
(-15.9229 745.208 7.96734e-18)
(-36.5319 486.124 0)
(-8.90365 749.088 -1.19645e-17)
(-3.87794 754.871 -3.83099e-18)
(-1.27001 769.052 -7.63533e-18)
(3.204 761.41 -8.43009e-20)
(-5.52311 768.314 9.57399e-18)
(6.39256 765.46 -1.54675e-17)
(-10.2786 767.168 0)
(6.80522 767.813 0)
(-15.3584 765.713 -4.06206e-20)
(5.27053 768.983 -3.84303e-18)
(-24.2149 762.171 -3.90105e-18)
(-20.6458 764.001 3.92009e-18)
(2.3039 769.259 -1.5308e-17)
(34.4184 460.397 -6.98431e-19)
(28.3929 457.294 9.07715e-20)
(22.3661 454.386 0)
(16.3764 451.877 1.00503e-19)
(10.4398 449.948 7.86079e-19)
(4.55588 448.729 1.07579e-18)
(-1.29364 448.311 -4.7779e-19)
(-7.1439 448.738 -1.86151e-19)
(-13.0315 450.002 -4.11626e-19)
(-18.9504 452.021 -6.25009e-19)
(-24.8982 454.605 2.59386e-18)
(-30.8785 457.576 -1.58932e-18)
(-36.8321 460.728 0)
(-42.1762 486.417 0)
(-39.9404 500.153 3.93792e-19)
(-36.9704 509.296 -8.26901e-19)
(-33.7962 516.247 0)
(-30.6653 522.036 0)
(-27.6956 527.082 2.01384e-19)
(-24.9537 531.552 -9.80596e-20)
(-22.4762 535.53 9.87542e-20)
(-20.2785 539.071 0)
(-18.3644 542.229 9.87998e-20)
(-16.7349 545.054 -4.88047e-20)
(-15.3899 547.595 4.92049e-20)
(-14.3319 549.905 0)
(-13.5761 552.034 0)
(-13.126 554.028 9.68718e-20)
(-13.0102 555.937 -9.66004e-20)
(-13.2713 557.824 2.41619e-19)
(-13.961 559.744 -1.4389e-19)
(-15.1461 561.762 1.20173e-19)
(-16.9083 563.944 -2.40245e-20)
(-19.337 566.36 1.87273e-19)
(-22.5246 569.08 -1.91247e-19)
(-26.5517 572.163 3.78245e-19)
(-31.4801 575.66 7.60769e-19)
(-37.3288 579.592 3.63037e-19)
(-44.0695 583.957 0)
(-51.6056 588.711 -2.52545e-18)
(-59.7893 593.78 2.15814e-18)
(-68.4265 599.071 2.78585e-18)
(-77.2649 604.45 1.30393e-18)
(-86.0463 609.793 -3.49429e-18)
(-94.5426 614.99 7.32078e-20)
(-102.529 619.942 0)
(-109.852 624.584 -2.67767e-18)
(-116.405 628.889 -1.0437e-17)
(-122.11 632.844 7.92988e-18)
(-126.943 636.484 -1.28593e-17)
(-130.887 639.854 1.03554e-17)
(-133.948 643.025 0)
(-136.107 646.076 1.98968e-17)
(-137.322 649.075 -3.85187e-17)
(-137.571 652.137 2.11723e-17)
(-136.775 655.413 0)
(-134.849 659 -1.88566e-17)
(-131.706 663.005 1.94561e-17)
(-127.239 667.546 -1.88437e-17)
(-121.422 672.685 3.7444e-17)
(-114.258 678.443 -1.57231e-18)
(-105.896 684.759 -1.86495e-17)
(-96.4795 691.539 0)
(-86.2232 698.647 -1.73444e-17)
(-75.5501 705.818 -1.55236e-18)
(-64.7403 712.865 3.44286e-17)
(-53.9679 719.688 -1.7284e-17)
(-43.5584 726.08 1.42978e-17)
(-33.6642 731.96 -3.31829e-17)
(-24.3991 737.266 1.23598e-17)
(-15.8583 741.951 -8.02876e-18)
(-2.58461 752.365 0)
(-8.10545 745.987 8.14239e-18)
(-42.6886 463.852 0)
(-26.0384 762.073 0)
(-29.4099 759.997 3.91917e-18)
(-27.0113 759.82 -1.57871e-17)
(-24.2682 759.393 -1.98723e-18)
(-21.1558 758.713 -1.98949e-18)
(-17.5862 757.722 1.95524e-18)
(-13.4859 756.335 4.61101e-20)
(-8.7863 754.504 -9.53922e-19)
(-3.43536 752.209 4.01223e-18)
(2.61385 749.396 -8.03558e-18)
(9.40572 746.026 3.02228e-18)
(16.9681 742.069 -2.06501e-18)
(25.3006 737.511 4.13466e-18)
(34.3696 732.362 -1.93023e-18)
(44.0951 726.661 1.07762e-18)
(54.3518 720.477 -1.05876e-18)
(64.9588 713.918 0)
(75.6872 707.127 0)
(86.2774 700.271 1.18816e-18)
(96.4486 693.531 -1.12783e-18)
(105.935 687.08 7.08998e-20)
(114.513 681.065 0)
(122.026 675.582 -3.85544e-20)
(128.389 670.678 0)
(133.593 666.351 3.08802e-18)
(137.626 662.572 -7.63431e-19)
(140.566 659.274 0)
(142.517 656.333 -6.29077e-19)
(143.589 653.668 0)
(143.827 651.164 -3.01212e-19)
(143.315 648.759 -2.50739e-20)
(142.076 646.371 0)
(140.049 643.871 0)
(137.253 641.21 -6.52202e-19)
(133.695 638.33 0)
(129.355 635.18 0)
(124.211 631.715 -1.0207e-18)