/*--------------------------------*- C++ -*----------------------------------*\
| =========                 |                                                 |
| \\      /  F ield         | OpenFOAM: The Open Source CFD Toolbox           |
|  \\    /   O peration     | Version:  2212                                  |
|   \\  /    A nd           | Website:  www.openfoam.com                      |
|    \\/     M anipulation  |                                                 |
\*---------------------------------------------------------------------------*/
FoamFile
{
    version     2.0;
    format      ascii;
    arch        "LSB;label=32;scalar=64";
    class       volScalarField;
    location    "0.4561";
    object      s;
}
// * * * * * * * * * * * * * * * * * * * * * * * * * * * * * * * * * * * * * //

dimensions      [0 0 0 0 0 0 0];

internalField   nonuniform List<scalar> 
24240
(
2.64136e-69
2.63525e-69
2.65272e-69
2.62484e-69
2.61735e-69
2.65999e-69
2.64734e-69
2.59397e-69
2.61306e-69
2.68148e-69
2.63095e-69
2.67269e-69
2.64779e-69
2.67915e-69
2.61666e-69
2.69145e-69
2.61218e-69
2.64002e-69
2.62564e-69
2.55816e-69
8.28589e-67
8.2708e-67
8.32461e-67
8.2382e-67
8.21283e-67
8.34727e-67
8.30739e-67
8.14082e-67
8.20066e-67
8.41454e-67
8.25664e-67
8.38578e-67
8.31069e-67
8.40705e-67
8.21253e-67
8.44511e-67
8.19958e-67
8.28592e-67
8.24021e-67
8.02689e-67
1.29804e-64
1.2963e-64
1.30457e-64
1.29119e-64
1.28693e-64
1.3081e-64
1.30182e-64
1.27587e-64
1.28525e-64
1.31862e-64
1.29399e-64
1.31394e-64
1.30265e-64
1.31743e-64
1.28719e-64
1.3233e-64
1.28534e-64
1.29871e-64
1.29146e-64
1.25781e-64
1.19548e-62
1.19445e-62
1.20191e-62
1.18973e-62
1.18555e-62
1.20513e-62
1.19933e-62
1.17555e-62
1.1842e-62
1.21479e-62
1.19222e-62
1.21031e-62
1.20036e-62
1.21365e-62
1.18604e-62
1.21897e-62
1.18449e-62
1.19664e-62
1.1899e-62
1.15872e-62
7.76695e-61
7.76389e-61
7.81127e-61
7.73296e-61
7.70413e-61
7.83191e-61
7.79412e-61
7.64053e-61
7.69685e-61
7.89459e-61
7.74872e-61
7.86433e-61
7.80267e-61
7.88697e-61
7.7091e-61
7.92081e-61
7.70018e-61
7.77797e-61
7.73387e-61
7.53029e-61
3.49821e-59
3.49834e-59
3.51916e-59
3.48425e-59
3.47053e-59
3.52829e-59
3.51123e-59
3.44247e-59
3.46795e-59
3.55642e-59
3.49114e-59
3.54228e-59
3.51585e-59
3.55284e-59
3.47345e-59
3.56768e-59
3.46994e-59
3.5044e-59
3.48447e-59
3.39253e-59
1.09712e-57
1.09763e-57
1.10397e-57
1.09313e-57
1.0886e-57
1.10677e-57
1.10142e-57
1.08001e-57
1.08807e-57
1.11556e-57
1.09527e-57
1.11097e-57
1.10313e-57
1.11439e-57
1.08975e-57
1.11889e-57
1.08883e-57
1.09941e-57
1.09318e-57
1.06434e-57
2.2248e-56
2.22657e-56
2.23904e-56
2.21723e-56
2.2076e-56
2.24445e-56
2.23368e-56
2.19059e-56
2.20724e-56
2.26218e-56
2.22157e-56
2.25259e-56
2.23761e-56
2.25966e-56
2.21029e-56
2.26831e-56
2.2089e-56
2.22974e-56
2.21724e-56
2.15927e-56
1.32876e-55
1.33052e-55
1.33776e-55
1.32481e-55
1.31881e-55
1.34072e-55
1.33442e-55
1.30897e-55
1.31937e-55
1.35125e-55
1.32763e-55
1.34539e-55
1.33709e-55
1.3496e-55
1.32065e-55
1.35428e-55
1.32019e-55
1.33202e-55
1.32477e-55
1.29063e-55
3.27794e-56
3.28306e-56
3.31028e-56
3.26186e-56
3.25543e-56
3.27863e-56
3.2813e-56
3.23061e-56
3.31134e-56
3.29559e-56
3.29984e-56
3.29621e-56
3.27814e-56
3.28169e-56
3.23846e-56
3.25675e-56
3.26179e-56
3.25056e-56
3.2581e-56
3.25779e-56
6.13072e-56
6.15716e-56
6.22114e-56
6.10869e-56
6.08761e-56
6.09025e-56
6.12941e-56
6.05841e-56
6.21511e-56
6.19799e-56
6.21232e-56
6.16019e-56
6.16326e-56
6.11342e-56
6.07149e-56
6.09815e-56
6.03962e-56
6.06864e-56
6.10195e-56
6.07962e-56
6.51605e-56
6.54517e-56
6.5897e-56
6.47294e-56
6.49356e-56
6.43632e-56
6.54419e-56
6.48947e-56
6.51775e-56
6.6358e-56
6.55969e-56
6.46643e-56
6.58293e-56
6.54173e-56
6.51346e-56
6.55546e-56
6.38096e-56
6.48267e-56
6.45446e-56
6.44179e-56
7.89224e-56
7.91912e-56
7.95605e-56
7.96827e-56
7.98611e-56
8.05381e-56
8.09405e-56
8.02154e-56
7.9887e-56
7.89629e-56
7.89717e-56
7.91726e-56
7.99151e-56
8.01057e-56
7.9257e-56
7.9634e-56
7.96065e-56
7.9487e-56
7.87752e-56
7.91601e-56
8.28089e-56
8.21956e-56
8.25673e-56
8.37722e-56
8.34518e-56
8.42519e-56
8.28182e-56
8.45205e-56
8.22399e-56
8.16877e-56
8.16157e-56
8.24074e-56
8.22731e-56
8.15255e-56
8.13453e-56
8.2066e-56
8.11165e-56
8.24172e-56
8.20114e-56
8.28374e-56
8.73136e-56
8.69685e-56
8.81083e-56
8.70905e-56
8.71906e-56
8.85815e-56
8.76922e-56
8.92324e-56
8.74953e-56
8.87504e-56
8.79867e-56
8.82824e-56
8.83435e-56
8.91537e-56
8.81627e-56
8.9491e-56
8.78085e-56
8.68731e-56
8.78075e-56
8.69904e-56
8.51024e-56
8.45013e-56
8.39248e-56
8.42305e-56
8.48903e-56
8.54947e-56
8.52183e-56
8.49938e-56
8.38631e-56
8.4061e-56
8.31607e-56
8.50052e-56
8.53529e-56
8.58171e-56
8.59279e-56
8.52803e-56
8.51153e-56
8.54704e-56
8.47983e-56
8.48851e-56
8.03751e-56
8.1713e-56
8.04663e-56
8.22535e-56
8.00722e-56
8.15748e-56
8.03985e-56
8.15783e-56
8.0794e-56
8.15282e-56
8.08556e-56
8.26726e-56
8.1e-56
8.28024e-56
8.11219e-56
8.14088e-56
8.19114e-56
8.02355e-56
8.21063e-56
8.20302e-56
7.19858e-56
7.37272e-56
7.34367e-56
7.26082e-56
7.21874e-56
7.41793e-56
7.29693e-56
7.34549e-56
7.30936e-56
7.21077e-56
7.26786e-56
7.38143e-56
7.27333e-56
7.4583e-56
7.28355e-56
7.37921e-56
7.37957e-56
7.33555e-56
7.39241e-56
7.43159e-56
7.18785e-56
7.19409e-56
7.22379e-56
7.27339e-56
7.26652e-56
7.26926e-56
7.13904e-56
7.3143e-56
7.33668e-56
7.19664e-56
7.30386e-56
7.35815e-56
7.14755e-56
7.37347e-56
7.35791e-56
7.4522e-56
7.31225e-56
7.32897e-56
7.26309e-56
7.37975e-56
4.29083e-56
4.32997e-56
4.33329e-56
4.2861e-56
4.31391e-56
4.30669e-56
4.30954e-56
4.32602e-56
4.27416e-56
4.3526e-56
4.26326e-56
4.35344e-56
4.27437e-56
4.39807e-56
4.28583e-56
4.29337e-56
4.29198e-56
4.37056e-56
4.31563e-56
4.393e-56
5.1686e-68
5.15917e-68
5.19298e-68
5.13919e-68
5.12354e-68
5.20756e-68
5.18272e-68
5.0788e-68
5.11605e-68
5.24982e-68
5.15111e-68
5.23189e-68
5.18477e-68
5.24499e-68
5.12339e-68
5.26871e-68
5.11484e-68
5.1688e-68
5.14013e-68
5.00665e-68
1.59842e-65
1.59632e-65
1.60658e-65
1.59014e-65
1.58495e-65
1.61106e-65
1.60334e-65
1.57136e-65
1.58288e-65
1.62409e-65
1.59369e-65
1.61832e-65
1.60434e-65
1.62257e-65
1.58526e-65
1.62981e-65
1.58283e-65
1.59933e-65
1.59035e-65
1.54873e-65
2.465e-63
2.46299e-63
2.47851e-63
2.45344e-63
2.4449e-63
2.48535e-63
2.4734e-63
2.42435e-63
2.44212e-63
2.50543e-63
2.45876e-63
2.49619e-63
2.47555e-63
2.50304e-63
2.44598e-63
2.51405e-63
2.44257e-63
2.4677e-63
2.45371e-63
2.38904e-63
2.24296e-61
2.24225e-61
2.25606e-61
2.2335e-61
2.22524e-61
2.26221e-61
2.2513e-61
2.2069e-61
2.22309e-61
2.28043e-61
2.23816e-61
2.27169e-61
2.25375e-61
2.27818e-61
2.22669e-61
2.28801e-61
2.22389e-61
2.24645e-61
2.23361e-61
2.17436e-61
1.43488e-59
1.43512e-59
1.44376e-59
1.42948e-59
1.42389e-59
1.44764e-59
1.44063e-59
1.4124e-59
1.42278e-59
1.45927e-59
1.43238e-59
1.45347e-59
1.44255e-59
1.45779e-59
1.42514e-59
1.46395e-59
1.42356e-59
1.43778e-59
1.42952e-59
1.39141e-59
6.37994e-58
6.38388e-58
6.4213e-58
6.35841e-58
6.33223e-58
6.43817e-58
6.407e-58
6.28221e-58
6.3286e-58
6.48972e-58
6.37092e-58
6.46301e-58
6.41694e-58
6.48286e-58
6.33905e-58
6.50954e-58
6.33297e-58
6.39513e-58
6.35835e-58
6.18831e-58
1.97237e-56
1.97446e-56
1.98569e-56
1.96643e-56
1.95792e-56
1.99077e-56
1.98114e-56
1.94283e-56
1.95729e-56
2.00666e-56
1.97025e-56
1.99811e-56
1.98469e-56
2.00444e-56
1.96045e-56
2.01241e-56
1.9589e-56
1.97772e-56
1.96638e-56
1.91378e-56
3.94017e-55
3.94567e-55
3.96738e-55
3.9292e-55
3.91143e-55
3.97705e-55
3.95794e-55
3.882e-55
3.91144e-55
4.0086e-55
3.93684e-55
3.99103e-55
3.96586e-55
4.00393e-55
3.91713e-55
4.01901e-55
3.91484e-55
3.95134e-55
3.92902e-55
3.82479e-55
2.3204e-54
2.32487e-54
2.33728e-54
2.31492e-54
2.30403e-54
2.34248e-54
2.33146e-54
2.28724e-54
2.30537e-54
2.36096e-54
2.3198e-54
2.35038e-54
2.33669e-54
2.35796e-54
2.30777e-54
2.36601e-54
2.30706e-54
2.3275e-54
2.31475e-54
2.25416e-54
5.53254e-55
5.5415e-55
5.58794e-55
5.50582e-55
5.49462e-55
5.53298e-55
5.53775e-55
5.4532e-55
5.58995e-55
5.56284e-55
5.57039e-55
5.56292e-55
5.53382e-55
5.53847e-55
5.46678e-55
5.49582e-55
5.50488e-55
5.48612e-55
5.49937e-55
5.49872e-55
1.04969e-54
1.05417e-54
1.06514e-54
1.04583e-54
1.04233e-54
1.04266e-54
1.04937e-54
1.03735e-54
1.06402e-54
1.06125e-54
1.06357e-54
1.05456e-54
1.05527e-54
1.04677e-54
1.03964e-54
1.04411e-54
1.03403e-54
1.03897e-54
1.04471e-54
1.04072e-54
1.10915e-54
1.11402e-54
1.12165e-54
1.10188e-54
1.10543e-54
1.09589e-54
1.11414e-54
1.10495e-54
1.10935e-54
1.12936e-54
1.1164e-54
1.10062e-54
1.12047e-54
1.11364e-54
1.10883e-54
1.11595e-54
1.08656e-54
1.10347e-54
1.09888e-54
1.09663e-54
1.34804e-54
1.35231e-54
1.35877e-54
1.36107e-54
1.36403e-54
1.37566e-54
1.38198e-54
1.37015e-54
1.36434e-54
1.3485e-54
1.34867e-54
1.35221e-54
1.36474e-54
1.36776e-54
1.35365e-54
1.35988e-54
1.35935e-54
1.3576e-54
1.34546e-54
1.35208e-54
1.40818e-54
1.39766e-54
1.40403e-54
1.42422e-54
1.41891e-54
1.43256e-54
1.40816e-54
1.43714e-54
1.39828e-54
1.38933e-54
1.38793e-54
1.40138e-54
1.39903e-54
1.3864e-54
1.38353e-54
1.39563e-54
1.3795e-54
1.40141e-54
1.39485e-54
1.40845e-54
1.49029e-54
1.48442e-54
1.50367e-54
1.48622e-54
1.48829e-54
1.51179e-54
1.49662e-54
1.52276e-54
1.49347e-54
1.51482e-54
1.50166e-54
1.50665e-54
1.50784e-54
1.52187e-54
1.50489e-54
1.52722e-54
1.49884e-54
1.48281e-54
1.49876e-54
1.48462e-54
1.44633e-54
1.43648e-54
1.42638e-54
1.43178e-54
1.44274e-54
1.45295e-54
1.44827e-54
1.44452e-54
1.42565e-54
1.42877e-54
1.41353e-54
1.44473e-54
1.45071e-54
1.45835e-54
1.46044e-54
1.44916e-54
1.4467e-54
1.45277e-54
1.44145e-54
1.44291e-54
1.37245e-54
1.39536e-54
1.37412e-54
1.40432e-54
1.36711e-54
1.39256e-54
1.37267e-54
1.39272e-54
1.37955e-54
1.39214e-54
1.38057e-54
1.41162e-54
1.383e-54
1.41362e-54
1.38522e-54
1.38972e-54
1.39861e-54
1.37004e-54
1.40188e-54
1.4006e-54
1.22607e-54
1.25534e-54
1.25063e-54
1.23645e-54
1.2295e-54
1.26297e-54
1.24248e-54
1.25073e-54
1.24476e-54
1.22789e-54
1.23766e-54
1.2568e-54
1.23861e-54
1.26977e-54
1.24046e-54
1.25657e-54
1.2565e-54
1.24921e-54
1.25857e-54
1.26536e-54
1.23354e-54
1.23453e-54
1.2398e-54
1.24813e-54
1.24689e-54
1.24725e-54
1.22507e-54
1.25526e-54
1.25881e-54
1.23503e-54
1.25334e-54
1.26264e-54
1.22668e-54
1.26517e-54
1.26269e-54
1.27855e-54
1.2549e-54
1.25744e-54
1.24623e-54
1.26606e-54
7.32227e-55
7.38943e-55
7.3958e-55
7.31445e-55
7.3611e-55
7.34913e-55
7.35391e-55
7.38241e-55
7.29237e-55
7.42685e-55
7.27467e-55
7.42775e-55
7.2945e-55
7.50419e-55
7.31344e-55
7.32608e-55
7.32356e-55
7.45707e-55
7.36428e-55
7.4951e-55
9.637e-67
9.62455e-67
9.68684e-67
9.58802e-67
9.55695e-67
9.71473e-67
9.66825e-67
9.4755e-67
9.54478e-67
9.79392e-67
9.61025e-67
9.75908e-67
9.67443e-67
9.78439e-67
9.55906e-67
9.82799e-67
9.54353e-67
9.64313e-67
9.58864e-67
9.33677e-67
2.93247e-64
2.93024e-64
2.94883e-64
2.9191e-64
2.909e-64
2.95723e-64
2.94302e-64
2.88467e-64
2.90574e-64
2.98127e-64
2.92561e-64
2.97025e-64
2.94559e-64
2.97831e-64
2.9103e-64
2.99141e-64
2.90598e-64
2.93593e-64
2.91917e-64
2.84184e-64
4.44879e-62
4.44775e-62
4.47538e-62
4.43077e-62
4.41449e-62
4.48799e-62
4.46635e-62
4.37829e-62
4.41029e-62
4.5244e-62
4.44035e-62
4.50706e-62
4.47133e-62
4.51984e-62
4.41753e-62
4.53942e-62
4.41159e-62
4.45647e-62
4.4308e-62
4.31252e-62
3.99433e-60
3.99545e-60
4.01973e-60
3.98009e-60
3.96461e-60
4.03087e-60
4.01138e-60
3.93273e-60
3.9615e-60
4.06347e-60
3.98836e-60
4.0473e-60
4.01675e-60
4.05924e-60
3.96817e-60
4.0765e-60
3.96338e-60
4.00312e-60
3.97992e-60
3.87291e-60
2.51335e-58
2.51533e-58
2.53024e-58
2.50555e-58
2.49528e-58
2.53713e-58
2.52484e-58
2.47564e-58
2.4938e-58
2.5576e-58
2.51061e-58
2.54707e-58
2.52883e-58
2.55487e-58
2.49809e-58
2.56551e-58
2.49545e-58
2.52008e-58
2.50542e-58
2.43766e-58
1.10162e-56
1.103e-56
1.10936e-56
1.09864e-56
1.09391e-56
1.11231e-56
1.10692e-56
1.08548e-56
1.09348e-56
1.12125e-56
1.10079e-56
1.11647e-56
1.10891e-56
1.12001e-56
1.09536e-56
1.12455e-56
1.09437e-56
1.10497e-56
1.09855e-56
1.06873e-56
3.35329e-55
3.35902e-55
3.3778e-55
3.34546e-55
3.33036e-55
3.38651e-55
3.37012e-55
3.30531e-55
3.32988e-55
3.41365e-55
3.35191e-55
3.3986e-55
3.377e-55
3.40971e-55
3.33548e-55
3.42303e-55
3.33302e-55
3.36462e-55
3.34516e-55
3.25428e-55
6.5891e-54
6.60264e-54
6.63828e-54
6.57515e-54
6.54422e-54
6.65453e-54
6.62254e-54
6.49619e-54
6.54537e-54
6.70756e-54
6.58787e-54
6.67712e-54
6.63746e-54
6.69939e-54
6.55537e-54
6.72418e-54
6.55187e-54
6.61215e-54
6.57453e-54
6.39729e-54
3.82205e-53
3.83196e-53
3.85201e-53
3.81556e-53
3.79693e-53
3.86059e-53
3.84242e-53
3.76996e-53
3.79976e-53
3.89119e-53
3.82356e-53
3.87314e-53
3.85201e-53
3.88603e-53
3.80404e-53
3.89905e-53
3.80302e-53
3.83627e-53
3.81515e-53
3.71355e-53
8.79158e-54
8.80627e-54
8.8809e-54
8.74971e-54
8.73138e-54
8.79097e-54
8.79902e-54
8.66636e-54
8.88435e-54
8.84061e-54
8.85309e-54
8.83903e-54
8.79518e-54
8.8003e-54
8.68851e-54
8.7317e-54
8.7468e-54
8.71738e-54
8.73932e-54
8.73792e-54
1.69286e-53
1.70001e-53
1.71774e-53
1.68648e-53
1.68102e-53
1.68136e-53
1.69219e-53
1.67305e-53
1.71578e-53
1.71157e-53
1.71509e-53
1.70042e-53
1.70189e-53
1.68823e-53
1.67683e-53
1.68387e-53
1.66753e-53
1.67544e-53
1.68477e-53
1.67802e-53
1.77846e-53
1.78613e-53
1.79846e-53
1.76692e-53
1.77268e-53
1.75774e-53
1.78679e-53
1.77226e-53
1.77866e-53
1.81056e-53
1.78978e-53
1.76466e-53
1.79649e-53
1.78586e-53
1.77814e-53
1.78951e-53
1.74296e-53
1.76937e-53
1.76236e-53
1.75861e-53
2.1695e-53
2.17583e-53
2.18648e-53
2.1905e-53
2.19515e-53
2.21394e-53
2.22321e-53
2.20507e-53
2.19541e-53
2.16988e-53
2.17015e-53
2.176e-53
2.19596e-53
2.20038e-53
2.17836e-53
2.18802e-53
2.18701e-53
2.18472e-53
2.16523e-53
2.17593e-53
2.25729e-53
2.24027e-53
2.25055e-53
2.28243e-53
2.27416e-53
2.29612e-53
2.25695e-53
2.30344e-53
2.24102e-53
2.22742e-53
2.22489e-53
2.24642e-53
2.24254e-53
2.22244e-53
2.21816e-53
2.23729e-53
2.21151e-53
2.24626e-53
2.2363e-53
2.25735e-53
2.39828e-53
2.38887e-53
2.41949e-53
2.39129e-53
2.39524e-53
2.43261e-53
2.40826e-53
2.45004e-53
2.40355e-53
2.43775e-53
2.41638e-53
2.42427e-53
2.42646e-53
2.44932e-53
2.42192e-53
2.45728e-53
2.41218e-53
2.38631e-53
2.41196e-53
2.38891e-53
2.31896e-53
2.30383e-53
2.28715e-53
2.29612e-53
2.31323e-53
2.32954e-53
2.32207e-53
2.31618e-53
2.28653e-53
2.29111e-53
2.26677e-53
2.31652e-53
2.32626e-53
2.33805e-53
2.34173e-53
2.32323e-53
2.31984e-53
2.32957e-53
2.31168e-53
2.31395e-53
2.21153e-53
2.24849e-53
2.21439e-53
2.26244e-53
2.20263e-53
2.24328e-53
2.21155e-53
2.24369e-53
2.22284e-53
2.24319e-53
2.22442e-53
2.27445e-53
2.2283e-53
2.27734e-53
2.23213e-53
2.2387e-53
2.2535e-53
2.20764e-53
2.25867e-53
2.25663e-53
1.97186e-53
2.01828e-53
2.01105e-53
1.98821e-53
1.97734e-53
2.03038e-53
1.99764e-53
2.0109e-53
2.00156e-53
1.97437e-53
1.99013e-53
2.0206e-53
1.9917e-53
2.04122e-53
1.99484e-53
2.0204e-53
2.02011e-53
2.00872e-53
2.02326e-53
2.03433e-53
1.99981e-53
2.0013e-53
2.01015e-53
2.0233e-53
2.02117e-53
2.02163e-53
1.98594e-53
2.03505e-53
2.04029e-53
2.00217e-53
2.03172e-53
2.04678e-53
1.98882e-53
2.0507e-53
2.047e-53
2.07216e-53
2.03447e-53
2.03802e-53
2.02004e-53
2.05181e-53
1.18034e-53
1.1912e-53
1.19236e-53
1.17914e-53
1.18652e-53
1.18463e-53
1.18536e-53
1.19006e-53
1.17531e-53
1.19705e-53
1.17261e-53
1.19712e-53
1.17591e-53
1.20948e-53
1.1789e-53
1.18091e-53
1.18045e-53
1.20186e-53
1.18705e-53
1.20794e-53
1.79728e-65
1.79597e-65
1.80744e-65
1.78928e-65
1.78314e-65
1.81277e-65
1.80407e-65
1.76831e-65
1.7812e-65
1.82761e-65
1.79343e-65
1.82085e-65
1.80567e-65
1.82573e-65
1.78398e-65
1.83374e-65
1.78116e-65
1.79954e-65
1.78919e-65
1.74162e-65
5.3824e-63
5.38146e-63
5.41513e-63
5.36135e-63
5.34177e-63
5.43089e-63
5.40474e-63
5.29818e-63
5.33679e-63
5.47523e-63
5.3733e-63
5.45419e-63
5.41078e-63
5.4695e-63
5.3455e-63
5.49317e-63
5.33781e-63
5.39218e-63
5.3609e-63
5.21704e-63
8.03109e-61
8.03407e-61
8.08328e-61
8.00388e-61
7.97294e-61
8.10648e-61
8.06733e-61
7.90916e-61
7.96683e-61
8.17252e-61
8.02114e-61
8.13999e-61
8.0783e-61
8.16385e-61
7.98041e-61
8.19865e-61
7.97008e-61
8.05017e-61
8.00313e-61
7.78655e-61
7.10876e-59
7.11523e-59
7.15782e-59
7.08822e-59
7.05933e-59
7.17798e-59
7.14322e-59
7.00395e-59
7.05508e-59
7.23626e-59
7.10292e-59
7.2064e-59
7.15455e-59
7.22835e-59
7.06742e-59
7.25859e-59
7.05926e-59
7.12916e-59
7.08729e-59
6.89398e-59
4.39847e-57
4.40478e-57
4.43049e-57
4.38783e-57
4.36903e-57
4.44271e-57
4.42116e-57
4.33549e-57
4.36722e-57
4.47869e-57
4.39667e-57
4.45957e-57
4.42924e-57
4.47368e-57
4.37503e-57
4.49199e-57
4.37064e-57
4.41322e-57
4.38725e-57
4.26681e-57
1.89886e-55
1.90251e-55
1.9133e-55
1.89505e-55
1.88654e-55
1.91844e-55
1.90913e-55
1.87236e-55
1.88613e-55
1.93392e-55
1.89875e-55
1.92538e-55
1.91304e-55
1.93167e-55
1.8895e-55
1.93937e-55
1.88789e-55
1.90595e-55
1.89476e-55
1.84252e-55
5.68972e-54
5.70334e-54
5.73465e-54
5.68042e-54
5.65375e-54
5.74953e-54
5.72169e-54
5.61228e-54
5.65392e-54
5.79579e-54
5.69132e-54
5.76934e-54
5.73481e-54
5.78879e-54
5.66383e-54
5.81102e-54
5.65996e-54
5.71289e-54
5.67958e-54
5.52275e-54
1.09904e-52
1.10206e-52
1.10789e-52
1.09747e-52
1.09211e-52
1.11061e-52
1.10527e-52
1.0843e-52
1.0925e-52
1.11949e-52
1.09959e-52
1.11424e-52
1.10804e-52
1.11807e-52
1.09424e-52
1.12214e-52
1.09372e-52
1.10364e-52
1.09733e-52
1.06724e-52
6.27803e-52
6.2987e-52
6.33095e-52
6.27168e-52
6.23996e-52
6.34503e-52
6.31518e-52
6.19674e-52
6.24564e-52
6.39555e-52
6.28476e-52
6.36487e-52
6.33254e-52
6.38674e-52
6.25317e-52
6.40773e-52
6.25177e-52
6.30567e-52
6.27083e-52
6.10081e-52
1.39187e-52
1.39426e-52
1.40621e-52
1.38532e-52
1.38235e-52
1.39154e-52
1.3929e-52
1.37217e-52
1.4068e-52
1.39976e-52
1.40182e-52
1.39923e-52
1.39268e-52
1.39312e-52
1.37577e-52
1.38213e-52
1.38463e-52
1.38003e-52
1.38366e-52
1.38338e-52
2.72192e-52
2.7333e-52
2.76185e-52
2.71142e-52
2.70295e-52
2.70317e-52
2.72059e-52
2.69022e-52
2.75847e-52
2.75212e-52
2.75741e-52
2.7336e-52
2.73649e-52
2.71459e-52
2.69643e-52
2.70748e-52
2.68109e-52
2.69367e-52
2.7088e-52
2.69746e-52
2.84372e-52
2.85574e-52
2.87563e-52
2.82548e-52
2.83478e-52
2.8115e-52
2.8576e-52
2.83469e-52
2.84387e-52
2.89456e-52
2.86135e-52
2.82147e-52
2.87238e-52
2.85587e-52
2.84353e-52
2.86164e-52
2.78813e-52
2.82923e-52
2.81859e-52
2.81236e-52
3.48231e-52
3.49164e-52
3.50912e-52
3.51608e-52
3.52334e-52
3.55362e-52
3.56706e-52
3.53941e-52
3.52338e-52
3.48236e-52
3.4828e-52
3.49242e-52
3.52413e-52
3.5305e-52
3.49627e-52
3.51119e-52
3.5093e-52
3.50647e-52
3.47528e-52
3.49252e-52
3.61125e-52
3.58376e-52
3.60032e-52
3.65056e-52
3.63771e-52
3.67297e-52
3.61019e-52
3.68467e-52
3.58456e-52
3.56398e-52
3.55949e-52
3.59388e-52
3.58751e-52
3.55559e-52
3.54927e-52
3.57942e-52
3.53829e-52
3.5933e-52
3.57829e-52
3.61076e-52
3.85215e-52
3.83715e-52
3.88576e-52
3.84024e-52
3.84758e-52
3.90687e-52
3.8679e-52
3.93449e-52
3.86092e-52
3.91557e-52
3.88093e-52
3.8934e-52
3.89741e-52
3.93452e-52
3.8904e-52
3.94623e-52
3.87477e-52
3.83308e-52
3.87428e-52
3.83672e-52
3.7145e-52
3.69131e-52
3.66386e-52
3.67869e-52
3.70535e-52
3.73138e-52
3.71946e-52
3.71026e-52
3.66372e-52
3.67036e-52
3.63155e-52
3.7108e-52
3.72661e-52
3.74479e-52
3.75122e-52
3.72091e-52
3.71637e-52
3.73188e-52
3.70369e-52
3.70724e-52
3.5604e-52
3.61996e-52
3.56529e-52
3.64163e-52
3.54559e-52
3.61044e-52
3.55987e-52
3.61134e-52
3.57838e-52
3.61124e-52
3.58081e-52
3.66137e-52
3.58702e-52
3.6655e-52
3.5936e-52
3.60306e-52
3.62769e-52
3.55413e-52
3.63582e-52
3.63259e-52
3.17128e-52
3.24489e-52
3.23383e-52
3.19704e-52
3.18008e-52
3.2641e-52
3.21183e-52
3.23306e-52
3.2185e-52
3.17467e-52
3.20011e-52
3.24858e-52
3.20267e-52
3.28138e-52
3.20799e-52
3.24853e-52
3.24782e-52
3.23002e-52
3.25256e-52
3.27063e-52
3.24204e-52
3.24427e-52
3.25912e-52
3.27985e-52
3.27622e-52
3.27673e-52
3.21934e-52
3.2992e-52
3.30687e-52
3.24579e-52
3.29345e-52
3.31784e-52
3.22446e-52
3.32393e-52
3.31842e-52
3.35829e-52
3.29829e-52
3.3031e-52
3.27429e-52
3.32519e-52
1.90098e-52
1.91848e-52
1.92056e-52
1.89914e-52
1.91079e-52
1.90777e-52
1.90892e-52
1.91665e-52
1.89253e-52
1.92763e-52
1.88844e-52
1.92764e-52
1.89389e-52
1.94757e-52
1.89864e-52
1.90183e-52
1.90097e-52
1.9353e-52
1.91167e-52
1.94499e-52
3.35092e-64
3.35044e-64
3.37157e-64
3.3382e-64
3.3261e-64
3.38172e-64
3.36547e-64
3.29913e-64
3.32313e-64
3.40953e-64
3.34595e-64
3.39642e-64
3.36927e-64
3.40584e-64
3.3285e-64
3.42054e-64
3.3234e-64
3.35728e-64
3.33766e-64
3.24775e-64
9.8755e-62
9.87982e-62
9.94081e-62
9.84351e-62
9.80569e-62
9.97028e-62
9.92219e-62
9.72767e-62
9.79841e-62
1.0052e-61
9.86545e-62
1.00119e-61
9.93574e-62
1.0041e-61
9.81499e-62
1.00837e-61
9.80136e-62
9.89995e-62
9.84167e-62
9.57393e-62
1.4489e-59
1.45036e-59
1.45912e-59
1.44499e-59
1.43913e-59
1.46338e-59
1.4563e-59
1.42791e-59
1.4383e-59
1.47535e-59
1.4481e-59
1.46925e-59
1.45864e-59
1.4737e-59
1.44084e-59
1.47988e-59
1.43905e-59
1.45332e-59
1.44472e-59
1.40505e-59
1.26388e-57
1.26586e-57
1.27333e-57
1.26111e-57
1.25574e-57
1.27696e-57
1.27077e-57
1.24614e-57
1.25521e-57
1.28737e-57
1.26373e-57
1.28187e-57
1.2731e-57
1.2859e-57
1.25749e-57
1.29119e-57
1.25611e-57
1.26838e-57
1.26084e-57
1.22593e-57
7.68793e-56
7.70421e-56
7.74845e-56
7.67482e-56
7.64053e-56
7.77003e-56
7.73233e-56
7.58333e-56
7.63874e-56
7.83321e-56
7.69023e-56
7.79858e-56
7.74839e-56
7.82403e-56
7.65291e-56
7.85551e-56
7.64564e-56
7.71912e-56
7.67323e-56
7.45922e-56
3.26731e-54
3.27587e-54
3.29414e-54
3.2631e-54
3.24786e-54
3.30304e-54
3.28701e-54
3.22407e-54
3.24774e-54
3.3298e-54
3.26945e-54
3.31459e-54
3.29458e-54
3.32576e-54
3.25377e-54
3.33878e-54
3.25117e-54
3.28184e-54
3.2624e-54
3.17096e-54
9.63345e-53
9.66343e-53
9.71549e-53
9.6247e-53
9.57778e-53
9.74079e-53
9.69364e-53
9.50931e-53
9.57976e-53
9.81947e-53
9.6431e-53
9.77313e-53
9.71831e-53
9.80709e-53
9.59722e-53
9.84408e-53
9.59118e-53
9.67961e-53
9.6228e-53
9.35249e-53
1.82824e-51
1.83459e-51
1.84409e-51
1.82695e-51
1.8177e-51
1.84862e-51
1.83973e-51
1.80503e-51
1.81865e-51
1.86347e-51
1.83045e-51
1.85443e-51
1.84481e-51
1.861e-51
1.8217e-51
1.86764e-51
1.82091e-51
1.8372e-51
1.82664e-51
1.77566e-51
1.0282e-50
1.03234e-50
1.03751e-50
1.02789e-50
1.02252e-50
1.0398e-50
1.03492e-50
1.01561e-50
1.02362e-50
1.04812e-50
1.03002e-50
1.04292e-50
1.03803e-50
1.04662e-50
1.02493e-50
1.04999e-50
1.02475e-50
1.03346e-50
1.02773e-50
9.99342e-51
2.19643e-51
2.20029e-51
2.21936e-51
2.18619e-51
2.1814e-51
2.19552e-51
2.19781e-51
2.16554e-51
2.22034e-51
2.20908e-51
2.21243e-51
2.20779e-51
2.19807e-51
2.19818e-51
2.17136e-51
2.18067e-51
2.18472e-51
2.17758e-51
2.18354e-51
2.18301e-51
4.36245e-51
4.38053e-51
4.42638e-51
4.34527e-51
4.33218e-51
4.33205e-51
4.35998e-51
4.31191e-51
4.42056e-51
4.41106e-51
4.41896e-51
4.38043e-51
4.3859e-51
4.35092e-51
4.32207e-51
4.33936e-51
4.29691e-51
4.31683e-51
4.34132e-51
4.3223e-51
4.53335e-51
4.55215e-51
4.58413e-51
4.50466e-51
4.51962e-51
4.48349e-51
4.55639e-51
4.52036e-51
4.53338e-51
4.61359e-51
4.56073e-51
4.49763e-51
4.57878e-51
4.55323e-51
4.5336e-51
4.5623e-51
4.44666e-51
4.51035e-51
4.49432e-51
4.484e-51
5.57322e-51
5.58683e-51
5.61544e-51
5.62732e-51
5.63865e-51
5.68723e-51
5.70648e-51
5.66456e-51
5.63807e-51
5.57248e-51
5.57314e-51
5.58886e-51
5.63912e-51
5.64811e-51
5.59517e-51
5.6181e-51
5.61458e-51
5.61144e-51
5.5617e-51
5.58931e-51
5.76276e-51
5.71851e-51
5.7451e-51
5.82407e-51
5.80419e-51
5.86067e-51
5.76028e-51
5.8793e-51
5.71917e-51
5.68817e-51
5.68032e-51
5.73505e-51
5.72469e-51
5.67417e-51
5.66489e-51
5.71226e-51
5.64687e-51
5.73362e-51
5.71117e-51
5.76105e-51
6.17208e-51
6.14831e-51
6.22523e-51
6.15192e-51
6.16529e-51
6.25906e-51
6.19692e-51
6.30267e-51
6.18665e-51
6.27369e-51
6.21772e-51
6.23736e-51
6.24457e-51
6.30455e-51
6.23378e-51
6.32165e-51
6.20872e-51
6.14187e-51
6.20782e-51
6.1468e-51
5.93768e-51
5.90232e-51
5.85732e-51
5.88175e-51
5.92313e-51
5.96459e-51
5.94563e-51
5.93133e-51
5.85847e-51
5.86799e-51
5.80624e-51
5.93216e-51
5.9578e-51
5.98568e-51
5.99681e-51
5.94733e-51
5.94148e-51
5.96605e-51
5.92184e-51
5.92733e-51
5.72027e-51
5.81594e-51
5.72856e-51
5.84948e-51
5.69573e-51
5.79888e-51
5.71852e-51
5.80069e-51
5.74871e-51
5.80162e-51
5.75241e-51
5.88183e-51
5.76242e-51
5.88765e-51
5.77365e-51
5.787e-51
5.82784e-51
5.71017e-51
5.84056e-51
5.83547e-51
5.09095e-51
5.2075e-51
5.19061e-51
5.13155e-51
5.10503e-51
5.23789e-51
5.15461e-51
5.18855e-51
5.1659e-51
5.09541e-51
5.1364e-51
5.21338e-51
5.14058e-51
5.26543e-51
5.14951e-51
5.21366e-51
5.21216e-51
5.18438e-51
5.21929e-51
5.24864e-51
5.24592e-51
5.24924e-51
5.27406e-51
5.30664e-51
5.30048e-51
5.30093e-51
5.20886e-51
5.33843e-51
5.34948e-51
5.25183e-51
5.32854e-51
5.36796e-51
5.21787e-51
5.37743e-51
5.36928e-51
5.43228e-51
5.33703e-51
5.34325e-51
5.29721e-51
5.37856e-51
3.05631e-51
3.08447e-51
3.08818e-51
3.05352e-51
3.07189e-51
3.06707e-51
3.06884e-51
3.08156e-51
3.04219e-51
3.09876e-51
3.03603e-51
3.09862e-51
3.04502e-51
3.13072e-51
3.05254e-51
3.05759e-51
3.05606e-51
3.11094e-51
3.07332e-51
3.12638e-51
6.25011e-63
6.25308e-63
6.29199e-63
6.23064e-63
6.20688e-63
6.31129e-63
6.28093e-63
6.15783e-63
6.20253e-63
6.36342e-63
6.24513e-63
6.33801e-63
6.28958e-63
6.35619e-63
6.2129e-63
6.38315e-63
6.20367e-63
6.26611e-63
6.22893e-63
6.05882e-63
1.81006e-60
1.81202e-60
1.82304e-60
1.80546e-60
1.79819e-60
1.82854e-60
1.81971e-60
1.78424e-60
1.79719e-60
1.8436e-60
1.80949e-60
1.83597e-60
1.82265e-60
1.84147e-60
1.80034e-60
1.84918e-60
1.79793e-60
1.81578e-60
1.80494e-60
1.75512e-60
2.6106e-58
2.61498e-58
2.63053e-58
2.60541e-58
2.59437e-58
2.63831e-58
2.62554e-58
2.57465e-58
2.59335e-58
2.65998e-58
2.61103e-58
2.6486e-58
2.63042e-58
2.65687e-58
2.59809e-58
2.66782e-58
2.595e-58
2.62039e-58
2.60469e-58
2.53207e-58
2.24294e-56
2.24801e-56
2.26106e-56
2.23966e-56
2.22971e-56
2.26758e-56
2.25659e-56
2.21309e-56
2.22919e-56
2.28614e-56
2.2443e-56
2.27602e-56
2.2613e-56
2.2834e-56
2.23337e-56
2.29264e-56
2.23104e-56
2.25254e-56
2.23901e-56
2.17601e-56
1.34089e-54
1.34469e-54
1.35229e-54
1.3396e-54
1.33337e-54
1.35608e-54
1.3495e-54
1.32365e-54
1.3333e-54
1.36715e-54
1.34229e-54
1.3609e-54
1.35265e-54
1.36548e-54
1.33586e-54
1.37087e-54
1.33467e-54
1.34731e-54
1.33923e-54
1.30125e-54
5.60738e-53
5.62622e-53
5.65702e-53
5.60437e-53
5.5772e-53
5.67239e-53
5.64487e-53
5.53738e-53
5.57799e-53
5.71852e-53
5.61525e-53
5.6915e-53
5.6593e-53
5.71128e-53
5.58872e-53
5.73323e-53
5.58457e-53
5.63649e-53
5.60286e-53
5.44307e-53
1.62642e-51
1.6327e-51
1.64133e-51
1.62616e-51
1.61795e-51
1.64561e-51
1.63765e-51
1.60668e-51
1.61857e-51
1.65895e-51
1.62926e-51
1.65086e-51
1.64223e-51
1.65677e-51
1.62163e-51
1.6629e-51
1.6207e-51
1.63542e-51
1.62577e-51
1.57927e-51
3.03132e-50
3.04415e-50
3.05957e-50
3.03143e-50
3.01557e-50
3.06706e-50
3.05234e-50
2.99507e-50
3.01766e-50
3.09179e-50
3.03722e-50
3.0763e-50
3.06154e-50
3.08754e-50
3.02293e-50
3.09834e-50
3.02179e-50
3.04841e-50
3.03084e-50
2.94467e-50
1.67815e-49
1.6862e-49
1.69443e-49
1.67889e-49
1.66982e-49
1.69816e-49
1.69018e-49
1.65884e-49
1.67189e-49
1.7118e-49
1.68235e-49
1.70303e-49
1.6957e-49
1.70926e-49
1.67417e-49
1.71465e-49
1.67395e-49
1.68796e-49
1.67861e-49
1.63132e-49
3.4516e-50
3.45777e-50
3.4881e-50
3.43563e-50
3.42796e-50
3.44949e-50
3.45336e-50
3.40334e-50
3.48971e-50
3.47178e-50
3.47722e-50
3.46901e-50
3.45472e-50
3.45397e-50
3.4127e-50
3.42618e-50
3.43271e-50
3.42167e-50
3.43144e-50
3.43043e-50
6.96615e-50
6.99478e-50
7.06813e-50
6.93814e-50
6.91804e-50
6.91704e-50
6.96167e-50
6.88588e-50
7.0582e-50
7.04409e-50
7.05577e-50
6.99367e-50
7.00374e-50
6.94807e-50
6.90243e-50
6.92936e-50
6.86138e-50
6.89272e-50
6.93227e-50
6.90053e-50
7.20068e-50
7.22998e-50
7.2812e-50
7.15581e-50
7.17975e-50
7.12398e-50
7.2388e-50
7.18234e-50
7.20047e-50
7.32685e-50
7.24305e-50
7.14359e-50
7.27244e-50
7.23308e-50
7.202e-50
7.24731e-50
7.06615e-50
7.16437e-50
7.14037e-50
7.12335e-50
8.88847e-50
8.90809e-50
8.95474e-50
8.97483e-50
8.99243e-50
9.0701e-50
9.09721e-50
9.03406e-50
8.99046e-50
8.886e-50
8.887e-50
8.91257e-50
8.99194e-50
9.00426e-50
8.92285e-50
8.95789e-50
8.95145e-50
8.94868e-50
8.86969e-50
8.91371e-50
9.16649e-50
9.09547e-50
9.13805e-50
9.26177e-50
9.23118e-50
9.32134e-50
9.16127e-50
9.35092e-50
9.09558e-50
9.0492e-50
9.03562e-50
9.1224e-50
9.10563e-50
9.02593e-50
9.01247e-50
9.0866e-50
8.98304e-50
9.1193e-50
9.08607e-50
9.16229e-50
9.85811e-50
9.82071e-50
9.94192e-50
9.82419e-50
9.84814e-50
9.99589e-50
9.89723e-50
1.00645e-49
9.88232e-50
1.00204e-49
9.93026e-50
9.9611e-50
9.97396e-50
1.00705e-49
9.95736e-50
1.00951e-49
9.91736e-50
9.81053e-50
9.91572e-50
9.8169e-50
9.46478e-50
9.41122e-50
9.3377e-50
9.3778e-50
9.44172e-50
9.50755e-50
9.4775e-50
9.45536e-50
9.34173e-50
9.35509e-50
9.25715e-50
9.45666e-50
9.49809e-50
9.54063e-50
9.55977e-50
9.47921e-50
9.47219e-50
9.51098e-50
9.44188e-50
9.45033e-50
9.16535e-50
9.31864e-50
9.1794e-50
9.37035e-50
9.12484e-50
9.28844e-50
9.16109e-50
9.29192e-50
9.21023e-50
9.29519e-50
9.21587e-50
9.42318e-50
9.23186e-50
9.43119e-50
9.25092e-50
9.26936e-50
9.33685e-50
9.14908e-50
9.35668e-50
9.34867e-50
8.15356e-50
8.33765e-50
8.31199e-50
8.21736e-50
8.17612e-50
8.3856e-50
8.25329e-50
8.30734e-50
8.27224e-50
8.15909e-50
8.22506e-50
8.34695e-50
8.23186e-50
8.42936e-50
8.24682e-50
8.34803e-50
8.34503e-50
8.30189e-50
8.35566e-50
8.40319e-50
8.47065e-50
8.4755e-50
8.51686e-50
8.56792e-50
8.55754e-50
8.55761e-50
8.41025e-50
8.62001e-50
8.63565e-50
8.4799e-50
8.60313e-50
8.6667e-50
8.42598e-50
8.68136e-50
8.66948e-50
8.76871e-50
8.61788e-50
8.62543e-50
8.55201e-50
8.68171e-50
4.90709e-50
4.95233e-50
4.95888e-50
4.90286e-50
4.93177e-50
4.92408e-50
4.92683e-50
4.9477e-50
4.88355e-50
4.97462e-50
4.87433e-50
4.97411e-50
4.88915e-50
5.02576e-50
4.901e-50
4.90897e-50
4.90628e-50
4.99392e-50
4.9341e-50
5.01848e-50
1.16396e-61
1.16526e-61
1.17241e-61
1.16115e-61
1.15651e-61
1.17608e-61
1.17041e-61
1.1476e-61
1.15592e-61
1.18583e-61
1.16386e-61
1.18092e-61
1.17232e-61
1.18442e-61
1.15792e-61
1.18935e-61
1.15625e-61
1.16774e-61
1.16071e-61
1.12854e-61
3.31538e-59
3.32119e-59
3.34112e-59
3.30935e-59
3.29541e-59
3.35135e-59
3.33516e-59
3.27052e-59
3.29421e-59
3.37905e-59
3.31675e-59
3.36456e-59
3.34138e-59
3.37497e-59
3.30018e-59
3.38885e-59
3.29593e-59
3.32821e-59
3.30809e-59
3.21536e-59
4.69901e-57
4.71018e-57
4.73778e-57
4.69315e-57
4.67241e-57
4.75196e-57