/*--------------------------------*- C++ -*----------------------------------*\
| =========                 |                                                 |
| \\      /  F ield         | OpenFOAM: The Open Source CFD Toolbox           |
|  \\    /   O peration     | Version:  2212                                  |
|   \\  /    A nd           | Website:  www.openfoam.com                      |
|    \\/     M anipulation  |                                                 |
\*---------------------------------------------------------------------------*/
FoamFile
{
    version     2.0;
    format      ascii;
    arch        "LSB;label=32;scalar=64";
    class       surfaceScalarField;
    location    "0.141";
    object      phi_0;
}
// * * * * * * * * * * * * * * * * * * * * * * * * * * * * * * * * * * * * * //

dimensions      [0 3 -1 0 0 0 0];

oriented        oriented;

internalField   nonuniform List<scalar> 
69808
(
-7.20441e-08
-0.0291225
-1.85701
-2.80502e-07
-0.0291226
-1.85703
-3.90262e-07
-0.0291228
-1.85703
-5.19607e-07
-0.029123
-1.85703
-6.15264e-07
-0.0291233
-1.85703
-6.99286e-07
-0.0291237
-1.85703
-7.61065e-07
-0.0291241
-1.85703
-8.03572e-07
-0.0291245
-1.85703
-8.23924e-07
-0.0291249
-1.85703
-8.22277e-07
-0.0291253
-1.85703
-7.98938e-07
-0.0291258
-1.85703
-7.5522e-07
-0.0291262
-1.85703
-6.93468e-07
-0.0291265
-1.85703
-6.16964e-07
-0.0291269
-1.85703
-5.32564e-07
-0.0291272
-1.85703
-4.38618e-07
-0.0291274
-1.85703
-3.57016e-07
-0.0291276
-1.85703
-2.34293e-07
-0.0291277
-1.85703
-1.90897e-07
-0.0291277
-1.85703
-0.0291278
-1.85701
-2.0512e-07
-0.0332326
-1.8531
-3.63492e-07
-0.0332328
-1.85312
-5.25664e-07
-0.0332331
-1.85312
-6.6671e-07
-0.0332336
-1.85312
-7.8103e-07
-0.0332342
-1.85312
-8.69303e-07
-0.0332349
-1.85312
-9.28192e-07
-0.0332356
-1.85312
-9.59073e-07
-0.0332365
-1.85312
-9.61908e-07
-0.0332373
-1.85312
-9.39105e-07
-0.0332381
-1.85312
-8.92863e-07
-0.0332389
-1.85312
-8.26403e-07
-0.0332397
-1.85312
-7.43566e-07
-0.0332404
-1.85312
-6.48848e-07
-0.033241
-1.85312
-5.47119e-07
-0.0332415
-1.85312
-4.41887e-07
-0.0332419
-1.85311
-3.3585e-07
-0.0332423
-1.85311
-2.25958e-07
-0.0332426
-1.85311
-9.457e-08
-0.0332427
-1.85311
-0.0332427
-1.85309
2.95263e-08
-0.0368461
-1.86095
1.18497e-07
-0.0368463
-1.86098
1.80434e-07
-0.0368466
-1.86098
2.26227e-07
-0.036847
-1.86098
2.56777e-07
-0.0368475
-1.86097
2.71165e-07
-0.036848
-1.86097
2.71106e-07
-0.0368487
-1.86097
2.58809e-07
-0.0368493
-1.86097
2.36762e-07
-0.03685
-1.86097
2.08808e-07
-0.0368507
-1.86097
1.77825e-07
-0.0368514
-1.86097
1.47033e-07
-0.0368521
-1.86097
1.18555e-07
-0.0368527
-1.86097
9.4017e-08
-0.0368532
-1.86097
7.39778e-08
-0.0368536
-1.86097
5.87709e-08
-0.036854
-1.86097
4.60427e-08
-0.0368543
-1.86097
3.92808e-08
-0.0368545
-1.86097
4.596e-08
-0.0368547
-1.86097
-0.0368546
-1.86095
-1.19706e-07
-0.0270507
-1.84128
-2.18815e-07
-0.0270509
-1.8413
-3.11519e-07
-0.0270513
-1.8413
-3.92784e-07
-0.0270517
-1.8413
-4.5905e-07
-0.0270523
-1.8413
-5.09017e-07
-0.027053
-1.8413
-5.41825e-07
-0.0270538
-1.8413
-5.57226e-07
-0.0270546
-1.8413
-5.55791e-07
-0.0270555
-1.8413
-5.38568e-07
-0.0270563
-1.8413
-5.07483e-07
-0.0270571
-1.8413
-4.6436e-07
-0.0270579
-1.8413
-4.11798e-07
-0.0270586
-1.8413
-3.52385e-07
-0.0270592
-1.8413
-2.889e-07
-0.0270597
-1.8413
-2.24253e-07
-0.0270601
-1.8413
-1.59432e-07
-0.0270605
-1.8413
-9.56626e-08
-0.0270608
-1.8413
-3.93507e-08
-0.0270609
-1.8413
-0.027061
-1.84128
1.21009e-07
-0.0172496
-1.84613
2.69029e-07
-0.0172497
-1.84615
3.97411e-07
-0.0172498
-1.84615
5.0347e-07
-0.01725
-1.84615
5.85552e-07
-0.0172502
-1.84615
6.41947e-07
-0.0172505
-1.84615
6.72803e-07
-0.0172508
-1.84615
6.79695e-07
-0.0172511
-1.84615
6.65101e-07
-0.0172515
-1.84615
6.32948e-07
-0.0172518
-1.84615
5.86645e-07
-0.0172521
-1.84615
5.30702e-07
-0.0172525
-1.84615
4.68719e-07
-0.0172528
-1.84615
4.04633e-07
-0.017253
-1.84615
3.41322e-07
-0.0172533
-1.84615
2.80351e-07
-0.0172535
-1.84615
2.21991e-07
-0.0172536
-1.84615
1.62217e-07
-0.0172538
-1.84615
9.65744e-08
-0.0172538
-1.84615
-0.0172539
-1.84613
1.51932e-08
-0.000840439
-1.82983
3.91685e-08
-0.00084031
-1.82985
6.19085e-08
-0.000840336
-1.82985
8.17463e-08
-0.000840367
-1.82985
9.90995e-08
-0.00084041
-1.82985
1.12701e-07
-0.000840457
-1.82985
1.22743e-07
-0.000840505
-1.82985
1.29077e-07
-0.000840553
-1.82985
1.31786e-07
-0.000840597
-1.82985
1.31247e-07
-0.000840639
-1.82985
1.27482e-07
-0.000840678
-1.82985
1.21259e-07
-0.000840715
-1.82985
1.1291e-07
-0.00084075
-1.82985
1.03785e-07
-0.000840786
-1.82985
9.4421e-08
-0.000840823
-1.82985
8.62072e-08
-0.000840861
-1.82985
7.75809e-08
-0.000840901
-1.82985
6.46751e-08
-0.000840943
-1.82985
3.85153e-08
-0.000840982
-1.82985
-0.000841145
-1.82983
4.73593e-08
0.0151664
-1.83261
1.12437e-07
0.0151667
-1.83263
1.68283e-07
0.0151667
-1.83263
2.13381e-07
0.0151668
-1.83263
2.48358e-07
0.0151669
-1.83262
2.72019e-07
0.0151669
-1.83262
2.84164e-07
0.015167
-1.83262
2.85206e-07
0.0151671
-1.83262
2.7624e-07
0.0151673
-1.83262
2.58457e-07
0.0151674
-1.83262
2.34041e-07
0.0151675
-1.83262
2.05136e-07
0.0151676
-1.83262
1.73883e-07
0.0151676
-1.83262
1.42696e-07
0.0151677
-1.83262
1.13547e-07
0.0151677
-1.83262
8.76058e-08
0.0151678
-1.83262
6.50586e-08
0.0151678
-1.83262
4.58089e-08
0.0151677
-1.83262
2.88748e-08
0.0151677
-1.83262
0.0151674
-1.8326
4.15368e-08
0.0341706
-1.82412
8.54192e-08
0.0341711
-1.82414
1.25561e-07
0.0341712
-1.82414
1.61112e-07
0.0341715
-1.82414
1.91994e-07
0.0341717
-1.82414
2.16446e-07
0.0341721
-1.82414
2.33665e-07
0.0341725
-1.82414
2.42836e-07
0.0341729
-1.82414
2.43516e-07
0.0341733
-1.82414
2.35927e-07
0.0341737
-1.82414
2.20404e-07
0.0341741
-1.82414
1.98438e-07
0.0341745
-1.82414
1.71405e-07
0.0341748
-1.82414
1.41986e-07
0.0341751
-1.82414
1.11963e-07
0.0341754
-1.82414
8.3459e-08
0.0341755
-1.82414
5.65685e-08
0.0341757
-1.82414
3.14164e-08
0.0341757
-1.82414
1.17835e-08
0.0341757
-1.82414
0.0341753
-1.82412
7.3078e-08
0.0459772
-1.81948
1.55339e-07
0.0459778
-1.8195
2.27268e-07
0.0459782
-1.8195
2.89157e-07
0.0459788
-1.8195
3.40037e-07
0.0459795
-1.8195
3.78332e-07
0.0459803
-1.8195
4.02028e-07
0.0459813
-1.8195
4.10275e-07
0.0459823
-1.8195
4.02087e-07
0.0459833
-1.8195
3.78343e-07
0.0459844
-1.8195
3.39777e-07
0.0459854
-1.8195
2.89336e-07
0.0459864
-1.8195
2.30301e-07
0.0459872
-1.8195
1.68291e-07
0.045988
-1.8195
1.08217e-07
0.0459886
-1.8195
5.6242e-08
0.045989
-1.8195
1.43616e-08
0.0459894
-1.8195
-1.43953e-08
0.0459896
-1.8195
-1.63304e-08
0.0459898
-1.8195
0.0459893
-1.81948
-1.2507e-08
0.0587695
-1.81926
-2.13149e-08
0.0587704
-1.81928
-3.13351e-08
0.0587709
-1.81928
-4.19452e-08
0.0587717
-1.81928
-5.17903e-08
0.0587727
-1.81928
-6.14022e-08
0.0587738
-1.81928
-7.15451e-08
0.0587751
-1.81928
-8.28358e-08
0.0587765
-1.81928
-9.5515e-08
0.0587779
-1.81928
-1.09505e-07
0.0587793
-1.81928
-1.2406e-07
0.0587807
-1.81928
-1.37654e-07
0.058782
-1.81928
-1.48465e-07
0.0587831
-1.81928
-1.54691e-07
0.0587841
-1.81929
-1.55464e-07
0.058785
-1.81929
-1.48786e-07
0.0587856
-1.81929
-1.34792e-07
0.0587861
-1.81929
-1.072e-07
0.0587864
-1.81929
-5.78247e-08
0.0587866
-1.81929
0.0587861
-1.81927
-1.6319e-07
0.0711744
-1.8209
-3.17739e-07
0.0711753
-1.82092
-4.61548e-07
0.0711758
-1.82092
-5.87049e-07
0.0711764
-1.82092
-6.91002e-07
0.0711773
-1.82092
-7.7147e-07
0.0711782
-1.82093
-8.28456e-07
0.0711793
-1.82093
-8.63141e-07
0.0711805
-1.82093
-8.76918e-07
0.0711817
-1.82093
-8.71751e-07
0.0711829
-1.82093
-8.49221e-07
0.071184
-1.82093
-8.10981e-07
0.0711851
-1.82093
-7.58195e-07
0.0711861
-1.82093
-6.92038e-07
0.071187
-1.82093
-6.14052e-07
0.0711877
-1.82093
-5.25241e-07
0.0711882
-1.82093
-4.24722e-07
0.0711886
-1.82093
-3.05196e-07
0.0711889
-1.82093
-1.57795e-07
0.0711891
-1.82093
0.0711884
-1.82091
-3.76933e-08
0.0826339
-1.82982
-6.15548e-08
0.082635
-1.82984
-8.75836e-08
0.0826356
-1.82984
-1.14037e-07
0.0826365
-1.82984
-1.38823e-07
0.0826377
-1.82984
-1.62571e-07
0.0826391
-1.82984
-1.85537e-07
0.0826406
-1.82984
-2.08438e-07
0.0826422
-1.82984
-2.31859e-07
0.0826439
-1.82984
-2.55055e-07
0.0826456
-1.82984
-2.77646e-07
0.0826472
-1.82984
-2.96053e-07
0.0826487
-1.82984
-3.08291e-07
0.0826501
-1.82984
-3.10828e-07
0.0826513
-1.82984
-3.01473e-07
0.0826523
-1.82984
-2.77559e-07
0.0826531
-1.82985
-2.38779e-07
0.0826536
-1.82985
-1.80011e-07
0.0826541
-1.82985
-9.25265e-08
0.0826543
-1.82985
0.0826536
-1.82983
-2.23792e-07
0.0938065
-1.83015
-4.40871e-07
0.0938076
-1.83017
-6.40745e-07
0.0938082
-1.83017
-8.14889e-07
0.093809
-1.83017
-9.60163e-07
0.09381
-1.83017
-1.07333e-06
0.0938112
-1.83017
-1.15411e-06
0.0938126
-1.83017
-1.20287e-06
0.093814
-1.83017
-1.2214e-06
0.0938155
-1.83017
-1.21166e-06
0.093817
-1.83017
-1.17583e-06
0.0938185
-1.83017
-1.11612e-06
0.0938198
-1.83017
-1.03448e-06
0.0938211
-1.83018
-9.32692e-07
0.0938222
-1.83018
-8.13378e-07
0.093823
-1.83018
-6.79203e-07
0.0938237
-1.83018
-5.32069e-07
0.0938243
-1.83018
-3.68117e-07
0.0938246
-1.83018
-1.8534e-07
0.0938248
-1.83018
0.093824
-1.83016
-6.30961e-08
0.10116
-1.8487
-9.93662e-08
0.101161
-1.84872
-1.4034e-07
0.101162
-1.84872
-1.83097e-07
0.101163
-1.84872
-2.24121e-07
0.101164
-1.84872
-2.63582e-07
0.101166
-1.84872
-3.01755e-07
0.101168
-1.84872
-3.38187e-07
0.10117
-1.84872
-3.72742e-07
0.101172
-1.84872
-4.0386e-07
0.101174
-1.84872
-4.29885e-07
0.101176
-1.84872
-4.47446e-07
0.101178
-1.84872
-4.53012e-07
0.101179
-1.84873
-4.42021e-07
0.101181
-1.84873
-4.1172e-07
0.101182
-1.84873
-3.61166e-07
0.101183
-1.84873
-2.91073e-07
0.101183
-1.84873
-2.01587e-07
0.101184
-1.84873
-9.2917e-08
0.101184
-1.84873
0.101183
-1.84871
-2.94455e-07
0.108252
-1.8467
-5.79985e-07
0.108253
-1.84672
-8.4336e-07
0.108253
-1.84672
-1.07296e-06
0.108254
-1.84672
-1.26588e-06
0.108255
-1.84672
-1.41728e-06
0.108257
-1.84672
-1.52539e-06
0.108258
-1.84672
-1.58936e-06
0.10826
-1.84672
-1.61048e-06
0.108262
-1.84672
-1.5906e-06
0.108263
-1.84672
-1.53244e-06
0.108265
-1.84672
-1.43919e-06
0.108267
-1.84673
-1.31419e-06
0.108268
-1.84673
-1.16218e-06
0.108269
-1.84673
-9.88899e-07
0.10827
-1.84673
-8.00826e-07
0.108271
-1.84673
-6.04057e-07
0.108272
-1.84673
-4.02985e-07
0.108272
-1.84673
-1.96511e-07
0.108272
-1.84673
0.108271
-1.84671
-9.89904e-08
0.106023
-1.8735
-1.53433e-07
0.106024
-1.87352
-2.1886e-07
0.106025
-1.87352
-2.88641e-07
0.106026
-1.87352
-3.56599e-07
0.106027
-1.87352
-4.19989e-07
0.106029
-1.87352
-4.78382e-07
0.106031
-1.87352
-5.30704e-07
0.106033
-1.87352
-5.75077e-07
0.106035
-1.87352
-6.09666e-07
0.106037
-1.87352
-6.31239e-07
0.106038
-1.87352
-6.36742e-07
0.10604
-1.87352
-6.21859e-07
0.106042
-1.87352
-5.84435e-07
0.106043
-1.87352
-5.22862e-07
0.106044
-1.87352
-4.41826e-07
0.106045
-1.87352
-3.44425e-07
0.106046
-1.87352
-2.33142e-07
0.106046
-1.87352
-9.94563e-08
0.106047
-1.87352
0.106046
-1.8735
-3.75178e-07
0.103116
-1.86764
-7.35698e-07
0.103117
-1.86766
-1.07371e-06
0.103118
-1.86766
-1.37563e-06
0.103119
-1.86766
-1.63007e-06
0.10312
-1.86766
-1.82948e-06
0.103121
-1.86766
-1.97106e-06
0.103122
-1.86766
-2.05289e-06
0.103123
-1.86766
-2.07519e-06
0.103125
-1.86766
-2.04005e-06
0.103126
-1.86766
-1.95067e-06
0.103128
-1.86766
-1.81285e-06
0.103129
-1.86766
-1.63308e-06
0.10313
-1.86767
-1.4215e-06
0.103131
-1.86767
-1.18858e-06
0.103132
-1.86767
-9.48506e-07
0.103133
-1.86767
-7.0879e-07
0.103133
-1.86767
-4.67056e-07
0.103133
-1.86767
-2.17803e-07
0.103133
-1.86767
0.103133
-1.86765
-1.97632e-07
0.081287
-1.89598
-3.20249e-07
0.0812877
-1.896
-4.71348e-07
0.0812883
-1.896
-6.17433e-07
0.0812889
-1.896
-7.47926e-07
0.0812899
-1.896
-8.63907e-07
0.0812909
-1.896
-9.5946e-07
0.0812921
-1.896
-1.03382e-06
0.0812933
-1.896
-1.08304e-06
0.0812946
-1.896
-1.10528e-06
0.0812959
-1.896
-1.09773e-06
0.0812972
-1.896
-1.05945e-06
0.0812984
-1.896
-9.89635e-07
0.0812994
-1.896
-8.90549e-07
0.0813003
-1.896
-7.67484e-07
0.081301
-1.896
-6.26026e-07
0.0813016
-1.896
-4.76342e-07
0.081302
-1.896
-3.20351e-07
0.0813023
-1.896
-1.25269e-07
0.0813023
-1.896
0.0813018
-1.89598
-3.94445e-07
0.0578991
-1.88428
-7.92158e-07
0.0578996
-1.8843
-1.1974e-06
0.0579
-1.8843
-1.54681e-06
0.0579004
-1.8843
-1.83544e-06
0.0579009
-1.8843
-2.06428e-06
0.0579014
-1.88431
-2.2255e-06
0.057902
-1.88431
-2.31823e-06
0.0579027
-1.88431
-2.34041e-06
0.0579034
-1.88431
-2.29426e-06
0.0579041
-1.88431
-2.18309e-06
0.0579047
-1.88431
-2.01425e-06
0.0579053
-1.88431
-1.79767e-06
0.0579059
-1.88431
-1.54699e-06
0.0579063
-1.88431
-1.27901e-06
0.0579066
-1.88431
-1.00608e-06
0.0579069
-1.88431
-7.50916e-07
0.0579071
-1.88431
-5.17797e-07
0.0579072
-1.88431
-2.51288e-07
0.057907
-1.88431
0.0579066
-1.88429
-2.85704e-07
-1.88625
-7.0349e-07
-1.88627
-1.09068e-06
-1.88627
-1.45426e-06
-1.88627
-1.73818e-06
-1.88627
-1.97345e-06
-1.88627
-2.14481e-06
-1.88627
-2.25414e-06
-1.88627
-2.29626e-06
-1.88627
-2.27102e-06
-1.88627
-2.1804e-06
-1.88627
-2.02881e-06
-1.88627
-1.82704e-06
-1.88627
-1.58648e-06
-1.88627
-1.32793e-06
-1.88627
-1.05897e-06
-1.88627
-8.23976e-07
-1.88627
-5.80633e-07
-1.88627
-3.45304e-07
-1.88628
-1.88626
8.44536e-08
0.000748134
-1.85776
8.09315e-08
0.000748343
-1.85778
1.00772e-07
0.000748374
-1.85778
1.15983e-07
0.000748513
-1.85778
1.36124e-07
0.000748669
-1.85778
1.45979e-07
0.000748866
-1.85778
1.51232e-07
0.000749082
-1.85778
1.493e-07
0.000749318
-1.85778
1.428e-07
0.000749564
-1.85778
1.32917e-07
0.000749814
-1.85778
1.21632e-07
0.000750061
-1.85778
1.09987e-07
0.000750301
-1.85778
9.80274e-08
0.000750529
-1.85778
8.72313e-08
0.000750739
-1.85778
7.41906e-08
0.000750931
-1.85778
6.31798e-08
0.000751095
-1.85778
4.02147e-08
0.000751244
-1.85778
1.92124e-08
0.000751348
-1.85778
-3.50323e-08
0.000751482
-1.85778
0.000751369
-1.85776
-1.14462e-07
-0.000494667
-1.85186
-2.21603e-07
-0.000494351
-1.85188
-3.22992e-07
-0.000494226
-1.85188
-4.08132e-07
-0.000493976
-1.85188
-4.78367e-07
-0.000493681
-1.85188
-5.3436e-07
-0.000493321
-1.85188
-5.73607e-07
-0.000492928
-1.85188
-5.96135e-07
-0.000492505
-1.85188
-6.00564e-07
-0.000492069
-1.85188
-5.87661e-07
-0.000491631
-1.85188
-5.59346e-07
-0.000491202
-1.85187
-5.1682e-07
-0.000490791
-1.85187
-4.63356e-07
-0.000490407
-1.85187
-4.01688e-07
-0.000490056
-1.85187
-3.34851e-07
-0.000489741
-1.85187
-2.65103e-07
-0.000489472
-1.85187
-1.9441e-07
-0.000489238
-1.85187
-1.27735e-07
-0.000489068
-1.85187
-6.49222e-08
-0.000488904
-1.85187
-0.000489062
-1.85185
8.28327e-08
-0.0018056
-1.85964
2.03704e-07
-0.00180533
-1.85966
3.00478e-07
-0.00180523
-1.85966
3.84394e-07
-0.00180504
-1.85966
4.47734e-07
-0.00180482
-1.85966
4.93262e-07
-0.00180455
-1.85966
5.18607e-07
-0.00180425
-1.85966
5.26958e-07
-0.00180393
-1.85966
5.18512e-07
-0.0018036
-1.85966
4.98627e-07
-0.00180326
-1.85966
4.68649e-07
-0.00180292
-1.85966
4.32696e-07
-0.0018026
-1.85966
3.92716e-07
-0.0018023
-1.85966
3.49986e-07
-0.00180202
-1.85966
3.06019e-07
-0.00180177
-1.85966
2.58713e-07
-0.00180155
-1.85966
2.10171e-07
-0.00180136
-1.85966
1.5438e-07
-0.00180123
-1.85966
9.98125e-08
-0.00180111
-1.85966
-0.00180124
-1.85964
-1.59883e-07
0.00296606
-1.84605
-2.94827e-07
0.00296626
-1.84607
-4.21405e-07
0.0029662
-1.84607
-5.32086e-07
0.00296615
-1.84607
-6.24887e-07
0.00296605
-1.84607
-6.95998e-07
0.00296594
-1.84607
-7.45023e-07
0.00296582
-1.84607
-7.68591e-07
0.00296568
-1.84607
-7.67488e-07
0.00296554
-1.84607
-7.43371e-07
0.00296541
-1.84607
-6.98798e-07
0.00296528
-1.84607
-6.37347e-07
0.00296518
-1.84607
-5.63314e-07
0.00296508
-1.84607
-4.8114e-07
0.00296501
-1.84607
-3.92382e-07
0.00296496
-1.84607
-3.03808e-07
0.00296492
-1.84607
-2.13779e-07
0.00296489
-1.84607
-1.28305e-07
0.00296486
-1.84607
-5.42985e-08
0.00296486
-1.84607
0.00296464
-1.84605
1.52373e-07
0.00754656
-1.85072
3.26645e-07
0.0075468
-1.85074
4.8538e-07
0.0075468
-1.85074
6.21234e-07
0.00754682
-1.85074
7.31307e-07
0.00754683
-1.85074
8.13554e-07
0.00754685
-1.85074
8.65904e-07
0.00754687
-1.85074
8.89091e-07
0.00754689
-1.85074
8.85404e-07
0.00754692
-1.85073
8.59066e-07
0.00754694
-1.85073
8.13724e-07
0.00754697
-1.85073
7.542e-07
0.007547
-1.85073
6.84906e-07
0.00754702
-1.85073
6.08811e-07
0.00754704
-1.85073
5.28941e-07
0.00754706
-1.85073
4.44979e-07
0.00754708
-1.85073
3.57132e-07
0.00754709
-1.85073
2.60829e-07
0.00754709
-1.85073
1.46461e-07
0.00754709
-1.85073
0.00754687
-1.85071
-1.38153e-08
0.0169826
-1.83927
-1.75092e-08
0.0169829
-1.83929
-2.08763e-08
0.0169828
-1.83929
-2.00441e-08
0.0169827
-1.83929
-1.76912e-08
0.0169826
-1.83929
-1.45843e-08
0.0169824
-1.83929
-1.01726e-08
0.0169822
-1.83929
-4.6895e-09
0.0169821
-1.83929
1.77133e-09
0.0169819
-1.83929
9.1864e-09
0.0169817
-1.83929
1.67707e-08
0.0169815
-1.83929
2.43908e-08
0.0169813
-1.83929
3.15366e-08
0.0169812
-1.83929
3.84361e-08
0.016981
-1.83929
4.47577e-08
0.0169809
-1.83929
5.12011e-08
0.0169808
-1.83929
5.50356e-08
0.0169807
-1.83929
4.96763e-08
0.0169806
-1.83929
3.17198e-08
0.0169805
-1.83929
0.0169802
-1.83927
1.18392e-07
0.0260815
-1.8417
2.55255e-07
0.0260819
-1.84172
3.79607e-07
0.0260819
-1.84172
4.87978e-07
0.0260819
-1.84172
5.77439e-07
0.026082
-1.84172
6.45994e-07
0.026082
-1.84172
6.91895e-07
0.0260821
-1.84172
7.15316e-07
0.0260821
-1.84172
7.17169e-07
0.0260822
-1.84172
6.99061e-07
0.0260822
-1.84172
6.63816e-07
0.0260823
-1.84172
6.14538e-07
0.0260823
-1.84172
5.54711e-07
0.0260824
-1.84172
4.88146e-07
0.0260824
-1.84172
4.18226e-07
0.0260824
-1.84172
3.46808e-07
0.0260824
-1.84172
2.73161e-07
0.0260824
-1.84172
1.9386e-07
0.0260823
-1.84172
1.06233e-07
0.0260823
-1.84172
0.0260819
-1.8417
7.10178e-08
0.0381979
-1.83624
1.42649e-07
0.0381984
-1.83626
2.1036e-07
0.0381985
-1.83626
2.74204e-07
0.0381986
-1.83626
3.30666e-07
0.0381987
-1.83626
3.77114e-07
0.0381989
-1.83626
4.12198e-07
0.0381991
-1.83626
4.34535e-07
0.0381993
-1.83626
4.43366e-07
0.0381995
-1.83626
4.3893e-07
0.0381997
-1.83626
4.21365e-07
0.0381999
-1.83626
3.92862e-07
0.0382001
-1.83626
3.55146e-07
0.0382002
-1.83626
3.11451e-07
0.0382003
-1.83626
2.64129e-07
0.0382004
-1.83626
2.15752e-07
0.0382005
-1.83626
1.65902e-07
0.0382005
-1.83626
1.11725e-07
0.0382005
-1.83626
5.57546e-08
0.0382005
-1.83626
0.0382001
-1.83624
9.97856e-08
0.0432554
-1.82453
2.11733e-07
0.0432559
-1.82455
3.13678e-07
0.0432561
-1.82455
4.05747e-07
0.0432563
-1.82456
4.84032e-07
0.0432567
-1.82456
5.4616e-07
0.043257
-1.82456
5.89224e-07
0.0432575
-1.82456
6.11567e-07
0.0432579
-1.82456
6.11998e-07
0.0432584
-1.82456
5.91048e-07
0.0432589
-1.82456
5.50053e-07
0.0432594
-1.82456
4.92259e-07
0.0432598
-1.82456
4.2216e-07
0.0432602
-1.82456
3.45978e-07
0.0432605
-1.82456
2.69852e-07
0.0432607
-1.82456
1.99309e-07
0.0432609
-1.82456
1.35295e-07
0.0432611
-1.82456
7.75237e-08
0.0432611
-1.82456
3.60743e-08
0.0432612
-1.82456
0.0432607
-1.82454
-4.82035e-08
0.0493207
-1.82533
-8.80533e-08
0.0493213
-1.82535
-1.2516e-07
0.0493214
-1.82535
-1.56089e-07
0.0493217
-1.82535
-1.81464e-07
0.049322
-1.82535
-2.01172e-07
0.0493224
-1.82535
-2.15928e-07
0.0493229
-1.82535
-2.27175e-07
0.0493233
-1.82535
-2.3503e-07
0.0493238
-1.82535
-2.39804e-07
0.0493243
-1.82535
-2.41296e-07
0.0493248
-1.82535
-2.38439e-07
0.0493252
-1.82535
-2.30188e-07
0.0493256
-1.82535
-2.15655e-07
0.0493259
-1.82535
-1.95556e-07
0.0493261
-1.82535
-1.69284e-07
0.0493263
-1.82535
-1.3736e-07
0.0493265
-1.82535
-9.4572e-08
0.0493266
-1.82535
-3.72676e-08
0.0493266
-1.82535
0.0493261
-1.82533
-1.85166e-07
0.0547736
-1.82636
-3.62653e-07
0.0547742
-1.82638
-5.24934e-07
0.0547744
-1.82638
-6.65614e-07
0.0547747
-1.82638
-7.82504e-07
0.054775
-1.82638
-8.72531e-07
0.0547755
-1.82638
-9.37426e-07
0.054776
-1.82638
-9.74108e-07
0.0547765
-1.82638
-9.88696e-07
0.054777
-1.82638
-9.82141e-07
0.0547775
-1.82638
-9.56212e-07
0.0547781
-1.82638
-9.12198e-07
0.0547785
-1.82638
-8.5141e-07
0.054779
-1.82638
-7.74418e-07
0.0547793
-1.82638
-6.82874e-07
0.0547796
-1.82638
-5.77085e-07
0.0547799
-1.82638
-4.58279e-07
0.05478
-1.82638
-3.20854e-07
0.0547802
-1.82638
-1.60256e-07
0.0547802
-1.82638
0.0547797
-1.82636
-8.67599e-08
0.0588777
-1.83393
-1.51089e-07
0.0588783
-1.83395
-2.12096e-07
0.0588786
-1.83395
-2.66085e-07
0.0588789
-1.83395
-3.12345e-07
0.0588794
-1.83395
-3.49964e-07
0.0588799
-1.83395
-3.80298e-07
0.0588805
-1.83395
-4.0473e-07
0.0588811
-1.83395
-4.23068e-07
0.0588817
-1.83395
-4.34978e-07
0.0588824
-1.83395
-4.40905e-07
0.058883
-1.83395
-4.38716e-07
0.0588836
-1.83395
-4.25626e-07
0.0588841
-1.83395
-3.9992e-07
0.0588846
-1.83395
-3.6044e-07
0.0588849
-1.83395
-3.06749e-07
0.0588852
-1.83395
-2.4112e-07
0.0588854
-1.83395
-1.63369e-07
0.0588856
-1.83395
-6.90648e-08
0.0588857
-1.83395
0.0588852
-1.83393
-2.89925e-07
0.0624103
-1.83368
-5.74093e-07
0.0624109
-1.8337
-8.36024e-07
0.0624112
-1.8337
-1.06155e-06
0.0624115
-1.8337
-1.25064e-06
0.0624119
-1.8337
-1.39814e-06
0.0624125
-1.8337
-1.50392e-06
0.062413
-1.8337
-1.5675e-06
0.0624137
-1.83371
-1.59143e-06
0.0624143
-1.83371
-1.57749e-06
0.0624149
-1.83371
-1.52885e-06
0.0624155
-1.83371
-1.44791e-06
0.0624161
-1.83371
-1.33747e-06
0.0624166
-1.83371
-1.20011e-06
0.0624171
-1.83371
-1.03867e-06
0.0624175
-1.83371
-8.57017e-07
0.0624178
-1.83371
-6.58239e-07
0.062418
-1.83371
-4.4762e-07
0.0624182
-1.83371
-2.21754e-07
0.0624183
-1.83371
0.0624178
-1.83369
-1.21317e-07
0.0619492
-1.84824
-2.05511e-07
0.0619498
-1.84826
-2.87781e-07
0.0619501
-1.84826
-3.6415e-07
0.0619505
-1.84826
-4.32681e-07
0.0619511
-1.84826
-4.90938e-07
0.0619518
-1.84826
-5.39309e-07
0.0619525
-1.84826
-5.77547e-07
0.0619533
-1.84826
-6.06416e-07
0.0619541
-1.84826
-6.24524e-07
0.0619549
-1.84826
-6.30184e-07
0.0619557
-1.84826
-6.20734e-07
0.0619564
-1.84827
-5.93504e-07
0.0619571
-1.84827
-5.45398e-07
0.0619577
-1.84827
-4.75557e-07
0.0619581
-1.84827
-3.87472e-07
0.0619585
-1.84827
-2.87255e-07
0.0619588
-1.84827
-1.78453e-07
0.061959
-1.84827
-6.57307e-08
0.0619591
-1.84827
0.0619587
-1.84825
-3.95057e-07
0.0608298
-1.84558
-7.80552e-07
0.0608304
-1.8456
-1.13815e-06
0.0608306
-1.8456
-1.44424e-06
0.060831
-1.8456
-1.70371e-06
0.0608315
-1.8456
-1.90849e-06
0.0608321
-1.8456
-2.05626e-06
0.0608327
-1.8456
-2.14395e-06
0.0608334
-1.8456
-2.17438e-06
0.0608341
-1.8456
-2.14851e-06
0.0608348
-1.8456
-2.07131e-06
0.0608355
-1.8456
-1.94612e-06
0.0608362
-1.84561
-1.77847e-06
0.0608368
-1.84561
-1.57395e-06
0.0608373
-1.84561
-1.33871e-06
0.0608377
-1.84561
-1.08089e-06
0.0608381
-1.84561
-8.06541e-07
0.0608383
-1.84561
-5.34455e-07
0.0608385
-1.84561
-2.58075e-07
0.0608386
-1.84561
0.0608382
-1.84559
-1.47651e-07
0.0531818
-1.86585
-2.42082e-07
0.0531822
-1.86587
-3.38829e-07
0.0531826
-1.86587
-4.38052e-07
0.0531832
-1.86587
-5.2908e-07
0.0531839
-1.86587
-6.06071e-07
0.0531847
-1.86587
-6.71872e-07
0.0531857
-1.86587
-7.24006e-07
0.0531867
-1.86587
-7.62098e-07
0.0531878
-1.86587
-7.83081e-07
0.0531888
-1.86588
-7.8477e-07
0.0531898
-1.86588
-7.63604e-07
0.0531908
-1.86588
-7.16647e-07
0.0531916
-1.86588
-6.42665e-07
0.0531923
-1.86588
-5.43156e-07
0.0531929
-1.86588
-4.28403e-07
0.0531934
-1.86588
-3.05159e-07
0.0531937
-1.86588
-1.79391e-07
0.053194
-1.86588
-5.97154e-08
0.0531941
-1.86588
0.0531939
-1.86586
-5.17854e-07
0.0448
-1.85926
-1.01232e-06
0.0448003
-1.85928
-1.47157e-06
0.0448006
-1.85928
-1.88632e-06
0.044801
-1.85928
-2.23791e-06
0.0448015
-1.85928
-2.51305e-06
0.0448021
-1.85928
-2.70991e-06
0.0448028
-1.85928
-2.82403e-06
0.0448036
-1.85928
-2.85746e-06
0.0448043
-1.85928
-2.81185e-06
0.0448051
-1.85928
-2.69349e-06
0.0448058
-1.85928
-2.50915e-06
0.0448065
-1.85928
-2.26875e-06
0.0448072
-1.85928
-1.98455e-06
0.0448077
-1.85928
-1.66925e-06
0.0448082
-1.85928
-1.33936e-06
0.0448085
-1.85928
-1.00389e-06
0.0448088
-1.85928
-6.58983e-07
0.044809
-1.85928
-3.07323e-07
0.044809
-1.85928
0.0448089
-1.85926
-1.62339e-07
0.0282471
-1.87943
-2.75603e-07
0.0282474
-1.87945
-4.06138e-07
0.0282479
-1.87945
-5.28469e-07
0.0282486
-1.87945
-6.3721e-07
0.0282494
-1.87945
-7.36669e-07
0.0282504
-1.87945
-8.20449e-07
0.0282515
-1.87945
-8.88066e-07
0.0282527
-1.87945
-9.3495e-07
0.028254
-1.87945
-9.57689e-07
0.0282552
-1.87945
-9.53789e-07
0.0282563
-1.87945
-9.18569e-07
0.0282574
-1.87945
-8.52665e-07
0.0282584
-1.87945
-7.55054e-07
0.0282592
-1.87945
-6.32271e-07
0.0282599
-1.87945
-4.90431e-07
0.0282605
-1.87945
-3.49025e-07
0.0282609
-1.87946
-2.19258e-07
0.0282612
-1.87946
-8.17453e-08
0.0282613
-1.87946
0.0282613
-1.87943
-5.99276e-07
0.0113581
-1.86739
-1.20761e-06
0.0113582
-1.86741
-1.78558e-06
0.0113586
-1.86741
-2.29053e-06
0.0113588
-1.86741
-2.70993e-06
0.0113592
-1.86741
-3.0391e-06
0.0113596
-1.86741
-3.26822e-06
0.0113601
-1.86741
-3.39449e-06
0.0113607
-1.86741
-3.41789e-06
0.0113612
-1.86742
-3.34191e-06
0.0113618
-1.86742
-3.17486e-06
0.0113623
-1.86742
-2.92767e-06
0.0113628
-1.86742
-2.6172e-06
0.0113633
-1.86742
-2.2605e-06
0.0113637
-1.86742
-1.88101e-06
0.011364
-1.86742
-1.49401e-06
0.0113643
-1.86742
-1.12136e-06
0.0113645
-1.86742
-7.60902e-07
0.0113646
-1.86742
-3.79943e-07
0.0113646
-1.86742
0.0113646
-1.8674
-3.48625e-07
-1.87489
-7.30031e-07
-1.87491
-1.1456e-06
-1.87491
-1.50574e-06
-1.87491
-1.79613e-06
-1.87491
-2.03693e-06
-1.87491
-2.21397e-06
-1.87491
-2.32735e-06
-1.87491
-2.37195e-06
-1.87491
-2.34709e-06
-1.87491
-2.25435e-06
-1.87491
-2.0977e-06
-1.87491
-1.88865e-06
-1.87491
-1.63791e-06
-1.87491
-1.36867e-06
-1.87491
-1.08687e-06
-1.87491
-8.30106e-07
-1.87491
-5.89479e-07
-1.87491
-2.88934e-07
-1.87491
-1.87489
4.52727e-08
0.000506428
-1.85827
5.43113e-08
0.000506636
-1.85829
1.52556e-07
0.000506693
-1.85829
2.02205e-07
0.000506817
-1.85829
2.51508e-07
0.000506936
-1.85829
2.7963e-07
0.000507093
-1.85829
3.02013e-07
0.000507259
-1.85829
3.13473e-07
0.000507442
-1.85829
3.15505e-07
0.00050763
-1.85829
3.09328e-07
0.000507821
-1.85829
2.96745e-07
0.000508009
-1.85829
2.79648e-07
0.000508191
-1.85829
2.58198e-07
0.000508362
-1.85829
2.34239e-07
0.000508519
-1.85829
2.04993e-07
0.000508663
-1.85829
1.80845e-07
0.000508781
-1.85829
1.49397e-07
0.000508891
-1.85829
1.58142e-07
0.000508949
-1.85829
6.47177e-08
0.000509012
-1.85829
0.000508872
-1.85827
-1.10678e-07
2.19093e-05
-1.85137
-1.00137e-07
2.2013e-05
-1.85139
-9.84733e-08
2.20406e-05
-1.85139
-1.06744e-07
2.21359e-05
-1.85139
-1.1753e-07
2.22203e-05
-1.85139
-1.28667e-07
2.2334e-05
-1.85139
-1.37922e-07
2.24527e-05
-1.85139
-1.42822e-07
2.25836e-05
-1.85139
-1.45178e-07
2.27197e-05
-1.85139
-1.41193e-07
2.28566e-05
-1.85139
-1.30136e-07
2.2992e-05
-1.85139
-1.16393e-07
2.31245e-05
-1.85139
-9.99509e-08
2.32515e-05
-1.85139
-8.23608e-08
2.33693e-05
-1.85139
-6.35272e-08
2.348e-05
-1.85139
-4.21512e-08
2.35717e-05
-1.85139
-1.60933e-08
2.36583e-05
-1.85139
2.40247e-08
2.36983e-05
-1.85139
6.99186e-08
2.37613e-05
-1.85139
2.37139e-05
-1.85137
8.03874e-08
-0.00160804
-1.85801
2.48746e-07
-0.00160794
-1.85803
3.78235e-07
-0.00160783
-1.85803
4.96705e-07
-0.00160765
-1.85803
5.88684e-07
-0.00160745
-1.85803
6.56232e-07
-0.00160721
-1.85803
7.01459e-07
-0.00160696
-1.85803
7.24577e-07
-0.00160669
-1.85803
7.29783e-07
-0.00160641
-1.85803
7.16936e-07
-0.00160613
-1.85803
6.87911e-07
-0.00160586
-1.85803
6.47696e-07
-0.0016056
-1.85803
5.98337e-07
-0.00160536
-1.85803
5.40628e-07
-0.00160513
-1.85803
4.77848e-07
-0.00160493
-1.85803
4.09632e-07
-0.00160476
-1.85803
3.39405e-07
-0.0016046
-1.85803
2.55424e-07
-0.00160449
-1.85803
1.80624e-07
-0.0016044
-1.85803
-0.00160437
-1.85801
-1.25809e-07
0.00315904
-1.85082
-2.00177e-07
0.00315919
-1.85084
-2.73949e-07
0.00315933
-1.85084
-3.37449e-07
0.00315954
-1.85084
-3.92363e-07
0.0031598
-1.85084
-4.35413e-07
0.00316011
-1.85084
-4.66547e-07
0.00316046
-1.85084
-4.8248e-07
0.00316084
-1.85084
-4.82706e-07
0.00316123
-1.85084
-4.6815e-07
0.00316163
-1.85084
-4.40625e-07
0.00316203
-1.85084
-4.02794e-07
0.00316241
-1.85084
-3.57192e-07
0.00316277
-1.85084
-3.06829e-07
0.0031631
-1.85084
-2.53128e-07
0.0031634
-1.85084
-1.94962e-07
0.00316365
-1.85084
-1.32748e-07
0.00316386
-1.85084
-6.83213e-08
0.00316402
-1.85084
-1.28955e-08
0.00316414
-1.85084
0.00316412
-1.85082
1.37565e-07
0.00741619
-1.85497
3.16784e-07
0.00741635
-1.85499
4.7553e-07
0.0074164
-1.85499
6.12061e-07
0.0074165
-1.85499
7.22663e-07
0.0074166
-1.85499
8.07697e-07
0.00741673
-1.85499
8.64463e-07
0.00741687
-1.85499
8.94675e-07
0.00741702
-1.85499
8.99771e-07
0.00741719
-1.85499
8.83963e-07
0.00741736
-1.85499
8.4999e-07
0.00741752
-1.85499
8.01443e-07
0.00741769
-1.85499
7.39706e-07
0.00741784
-1.85499
6.68468e-07
0.00741797
-1.85499
5.90205e-07
0.0074181
-1.85499
5.03276e-07
0.0074182
-1.85499
4.09134e-07
0.00741829
-1.85499
3.0143e-07
0.00741834
-1.85499
1.78706e-07
0.00741838
-1.85499
0.00741828
-1.85497
-9.09537e-09
0.0166192
-1.84847
-1.78248e-09
0.0166195
-1.84849
3.74547e-09
0.0166194
-1.84849
1.33759e-08
0.0166194
-1.84849
2.24839e-08
0.0166194
-1.84849
3.04583e-08
0.0166194
-1.84849
3.81268e-08
0.0166194
-1.84849
4.55185e-08
0.0166194
-1.84849
5.29205e-08
0.0166194
-1.84849
5.99517e-08
0.0166194
-1.84849
6.5985e-08
0.0166194
-1.84849
7.08284e-08
0.0166194
-1.84849
7.38333e-08
0.0166194
-1.84849
7.54457e-08
0.0166194
-1.84849
7.59673e-08
0.0166194
-1.84849
7.68357e-08
0.0166194
-1.84849
7.6826e-08
0.0166194
-1.84849
6.56478e-08
0.0166194
-1.84849
4.24082e-08
0.0166194
-1.84849
0.0166192
-1.84847
1.29473e-07
0.025575
-1.85066
2.86158e-07
0.0255753
-1.85068
4.28445e-07
0.0255753
-1.85068
5.54369e-07
0.0255753
-1.85068
6.59694e-07
0.0255753
-1.85068
7.42966e-07
0.0255753
-1.85068
8.01837e-07
0.0255753
-1.85068
8.36368e-07
0.0255754
-1.85068
8.46983e-07
0.0255754
-1.85068
8.35799e-07
0.0255754
-1.85068
8.04719e-07
0.0255754
-1.85068
7.57044e-07
0.0255755
-1.85068
6.9538e-07
0.0255755
-1.85068
6.23679e-07
0.0255755
-1.85068
5.4501e-07
0.0255755
-1.85068
4.6039e-07
0.0255755
-1.85068
3.69135e-07
0.0255755
-1.85068
2.65241e-07
0.0255754
-1.85068
1.49029e-07
0.0255754
-1.85068
0.0255751
-1.85066
7.26138e-08
0.0368419
-1.84751
1.52165e-07
0.0368423
-1.84753
2.27351e-07
0.0368424
-1.84753
2.99766e-07
0.0368424
-1.84753
3.63992e-07
0.0368424
-1.84753
4.17971e-07
0.0368425
-1.84753
4.59822e-07