/*--------------------------------*- C++ -*----------------------------------*\
| =========                 |                                                 |
| \\      /  F ield         | OpenFOAM: The Open Source CFD Toolbox           |
|  \\    /   O peration     | Version:  2212                                  |
|   \\  /    A nd           | Website:  www.openfoam.com                      |
|    \\/     M anipulation  |                                                 |
\*---------------------------------------------------------------------------*/
FoamFile
{
    version     2.0;
    format      ascii;
    arch        "LSB;label=32;scalar=64";
    class       volScalarField;
    location    "0.0005";
    object      epsilon;
}
// * * * * * * * * * * * * * * * * * * * * * * * * * * * * * * * * * * * * * //

dimensions      [0 2 -3 0 0 0 0];

internalField   nonuniform List<scalar> 
7700
(
4.10601e+12
8.90398e+11
2.18392e+11
6.13132e+10
1.99739e+10
7.39888e+09
3.04566e+09
1.3666e+09
6.57987e+08
3.35559e+08
1.7934e+08
9.95999e+07
5.71135e+07
3.36704e+07
2.03637e+07
1.26335e+07
8.05177e+06
5.28173e+06
3.56914e+06
2.4821e+06
1.772e+06
1.29554e+06
969698
745530
593514
495521
440608
422900
440586
495509
593559
745703
970112
1.29638e+06
1.77358e+06
2.48495e+06
3.57419e+06
5.29062e+06
8.06733e+06
1.26607e+07
2.04109e+07
3.37527e+07
5.72572e+07
9.98533e+07
1.79793e+08
3.36387e+08
6.59544e+08
1.36963e+09
3.05177e+09
7.41164e+09
2.00008e+10
6.13784e+10
2.18585e+11
8.90793e+11
4.10819e+12
4.15486e+12
9.02398e+11
2.19782e+11
6.13799e+10
1.99476e+10
7.38288e+09
3.03824e+09
1.3633e+09
6.56482e+08
3.34842e+08
1.78982e+08
9.94134e+07
5.70117e+07
3.36118e+07
2.03282e+07
1.26113e+07
8.03744e+06
5.27226e+06
3.5627e+06
2.47755e+06
1.76859e+06
1.29285e+06
967469
743614
591810
493941
439059
421274
438771
493394
591015
742577
966196
1.29135e+06
1.76689e+06
2.47571e+06
3.56089e+06
5.27082e+06
8.03714e+06
1.26137e+07
2.03363e+07
3.36311e+07
5.70522e+07
9.94936e+07
1.79137e+08
3.3514e+08
6.57067e+08
1.36449e+09
3.0409e+09
7.38966e+09
1.99689e+10
6.14529e+10
2.19998e+11
9.02807e+11
4.16222e+12
4.20809e+12
9.05529e+11
2.20109e+11
6.13167e+10
1.98804e+10
7.34615e+09
3.02063e+09
1.35492e+09
6.5239e+08
3.3276e+08
1.77874e+08
9.87961e+07
5.66525e+07
3.33953e+07
2.01941e+07
1.25263e+07
7.98255e+06
5.23605e+06
3.53816e+06
2.4603e+06
1.75597e+06
1.28323e+06
959875
737426
586592
489346
434772
416988
434169
488165
584803
734954
956597
1.27895e+06
1.75037e+06
2.45288e+06
3.52815e+06
5.22228e+06
7.96332e+06
1.24992e+07
2.01555e+07
3.33396e+07
5.65704e+07
9.86716e+07
1.77677e+08
3.32433e+08
6.5182e+08
1.3539e+09
3.01881e+09
7.3434e+09
1.98796e+10
6.1342e+10
2.20273e+11
9.06102e+11
4.216e+12
4.27396e+12
9.10329e+11
2.20578e+11
6.12081e+10
1.97829e+10
7.29415e+09
2.99519e+09
1.34244e+09
6.46067e+08
3.29423e+08
1.76033e+08
9.77354e+07
5.60169e+07
3.30021e+07
1.99447e+07
1.23653e+07
7.87693e+06
5.16555e+06
3.48997e+06
2.42629e+06
1.73106e+06
1.26434e+06
945084
725515
576700
480784
426926
409264
425966
478881
573776
721405
939513
1.25688e+06
1.72102e+06
2.41253e+06
3.47069e+06
5.13792e+06
7.83653e+06
1.23053e+07
1.98546e+07
3.28644e+07
5.58024e+07
9.73917e+07
1.75463e+08
3.28436e+08
6.44276e+08
1.33903e+09
2.98839e+09
7.28024e+09
1.97551e+10
6.1152e+10
2.20447e+11
9.10577e+11
4.27914e+12
4.36392e+12
9.2184e+11
2.22136e+11
6.12922e+10
1.97177e+10
7.24586e+09
2.96842e+09
1.32824e+09
6.38427e+08
3.25171e+08
1.73572e+08
9.62561e+07
5.50989e+07
3.24181e+07
1.95666e+07
1.21174e+07
7.7125e+06
5.05488e+06
3.41382e+06
2.37232e+06
1.69152e+06
1.23443e+06
921836
706993
561516
467823
415200
397827
413865
465162
557398
701158
913858
1.22363e+06
1.67683e+06
2.35198e+06
3.38498e+06
5.013e+06
7.65042e+06
1.20239e+07
1.94241e+07
3.21976e+07
5.47513e+07
9.56939e+07
1.72632e+08
3.23532e+08
6.35423e+08
1.32241e+09
2.95636e+09
7.21919e+09
1.96545e+10
6.11215e+10
2.21796e+11
9.21561e+11
4.36421e+12
4.47107e+12
9.39104e+11
2.24755e+11
6.15384e+10
1.96872e+10
7.20491e+09
2.94238e+09
1.3133e+09
6.29889e+08
3.20171e+08
1.70552e+08
9.43788e+07
5.39045e+07
3.16454e+07
1.90613e+07
1.17843e+07
7.4911e+06
4.90581e+06
3.31135e+06
2.29988e+06
1.63868e+06
1.19478e+06
891360
683051
542197
451595
400710
383797
399027
448229
536970
675610
881139
1.18088e+06
1.61969e+06
2.27346e+06
3.27373e+06
4.85086e+06
7.40914e+06
1.166e+07
1.88705e+07
3.13486e+07
5.34347e+07
9.36177e+07
1.69281e+08
3.17964e+08
6.25874e+08
1.30559e+09
2.92668e+09
7.17096e+09
1.96099e+10
6.13496e+10
2.24392e+11
9.38807e+11
4.47199e+12
4.58738e+12
9.58715e+11
2.27839e+11
6.18721e+10
1.96784e+10
7.16889e+09
2.91686e+09
1.29778e+09
6.2063e+08
3.14565e+08
1.67081e+08
9.21851e+07
5.24959e+07
3.07312e+07
1.8464e+07
1.1392e+07
7.23178e+06
4.7322e+06
3.1927e+06
2.21652e+06
1.57838e+06
1.15001e+06
857405
656787
521360
434372
385526
369185
383536
430383
515143
647904
845151
1.13328e+06
1.55544e+06
2.18452e+06
3.14696e+06
4.66512e+06
7.13118e+06
1.12386e+07
1.8227e+07
3.03604e+07
5.19062e+07
9.12271e+07
1.6548e+08
3.1179e+08
6.15599e+08
1.28817e+09
2.89735e+09
7.12672e+09
1.95812e+10
6.16344e+10
2.27336e+11
9.58072e+11
4.58708e+12
4.71159e+12
9.7969e+11
2.31062e+11
6.22354e+10
1.96726e+10
7.13122e+09
2.88927e+09
1.28063e+09
6.10219e+08
3.08188e+08
1.63109e+08
8.96719e+07
5.08873e+07
2.96939e+07
1.77918e+07
1.09547e+07
6.94534e+06
4.54211e+06
3.06386e+06
2.1268e+06
1.51415e+06
1.10291e+06
822219
630027
500503
417424
370782
355076
368531
412903
493436
619894
808192
1.08371e+06
1.48774e+06
2.08987e+06
3.01095e+06
4.46427e+06
6.82808e+06
1.07749e+07
1.75123e+07
2.92537e+07
5.01835e+07
8.85234e+07
1.61184e+08
3.04847e+08
6.04163e+08
1.26906e+09
2.8658e+09
7.08039e+09
1.95555e+10
6.19506e+10
2.3043e+11
9.7888e+11
4.71105e+12
4.84755e+12
1.00252e+12
2.34476e+11
6.26262e+10
1.96634e+10
7.08809e+09
2.85786e+09
1.26109e+09
5.98369e+08
3.00952e+08
1.58629e+08
8.68619e+07
4.91077e+07
2.85596e+07
1.70658e+07
1.0488e+07
6.64298e+06
4.34347e+06
2.9305e+06
2.03486e+06
1.44908e+06
1.05586e+06
787623
604180
480732
401645
357243
342196
354772
396674
472944
592984
772084
1.03453e+06
1.41969e+06
1.99371e+06
2.87146e+06
4.2564e+06
6.51133e+06
1.02851e+07
1.67484e+07
2.80564e+07
4.82979e+07
8.55323e+07
1.56389e+08
2.97049e+08
5.9128e+08
1.24754e+09
2.83039e+09
7.0287e+09
1.95267e+10
6.22975e+10
2.33745e+11
1.00169e+12
4.84742e+12
4.99551e+12
1.02727e+12
2.38088e+11
6.3029e+10
1.9644e+10
7.03676e+09
2.82165e+09
1.23889e+09
5.85054e+08
2.92914e+08
1.53716e+08
8.3823e+07
4.72109e+07
2.73681e+07
1.63138e+07
1.00109e+07
6.3376e+06
4.14501e+06
2.79863e+06
1.94493e+06
1.38624e+06
1.01108e+06
755251
580441
462930
387709
345465
331058
342808
382357
454532
568344
738428
987955
1.35433e+06
1.90023e+06
2.73445e+06
4.05023e+06
6.19392e+06
9.78848e+06
1.5964e+07
2.681e+07
4.63064e+07
8.23276e+07
1.51179e+08
2.88468e+08
5.76936e+08
1.22332e+09
2.79005e+09
6.96843e+09
1.94867e+10
6.26538e+10
2.37227e+11
1.02619e+12
4.99453e+12
5.15049e+12
1.05301e+12
2.41718e+11
6.34074e+10
1.96058e+10
6.97545e+09
2.78042e+09
1.21418e+09
5.70492e+08
2.84271e+08
1.48521e+08
8.06635e+07
4.52712e+07
2.61689e+07
1.55682e+07
9.54427e+06
6.04259e+06
3.95544e+06
2.67406e+06
1.861e+06
1.32838e+06
970508
726444
559739
447742
376077
335804
321980
332984
370392
438813
546862
708517
945846
1.29435e+06
1.81333e+06
2.60564e+06
3.85436e+06
5.8891e+06
9.30594e+06
1.51917e+07
2.5565e+07
4.42863e+07
7.9024e+07
1.45719e+08
2.79323e+08
5.61387e+08
1.19659e+09
2.74445e+09
6.89712e+09
1.94241e+10
6.29705e+10
2.40682e+11
1.0515e+12
5.14767e+12
5.30754e+12
1.0788e+12
2.45178e+11
6.37281e+10
1.95433e+10
6.90382e+09
2.73473e+09
1.18754e+09
5.55135e+08
2.75336e+08
1.43252e+08
7.75173e+07
4.3373e+07
2.50144e+07
1.4861e+07
9.1077e+06
5.77002e+06
3.78235e+06
2.56168e+06
1.78628e+06
1.27765e+06
935552
702117
542652
435524
366968
328403
315080
325433
360978
426112
529072
683207
909539
1.24178e+06
1.73607e+06
2.48969e+06
3.67607e+06
5.60855e+06
8.85652e+06
1.4463e+07
2.43733e+07
4.23226e+07
7.57592e+07
1.40229e+08
2.69959e+08
5.45166e+08
1.16811e+09
2.6946e+09
6.8154e+09
1.93352e+10
6.32179e+10
2.4393e+11
1.07669e+12
5.30197e+12
5.46208e+12
1.10381e+12
2.48305e+11
6.3969e+10
1.94549e+10
6.8234e+09
2.68605e+09
1.16e+09
5.39629e+08
2.66501e+08
1.38143e+08
7.45219e+07
4.15964e+07
2.39507e+07
1.4219e+07
8.71669e+06
5.52898e+06
3.63121e+06
2.46486e+06
1.72286e+06
1.23534e+06
906976
682692
529382
426345
360371
323212
310291
320094
354083
416465
515131
662856
879712
1.19779e+06
1.67039e+06
2.38976e+06
3.52048e+06
5.36082e+06
8.45489e+06
1.38034e+07
2.32795e+07
4.04928e+07
7.26672e+07
1.34939e+08
2.60773e+08
5.28942e+08
1.13903e+09
2.64238e+09
6.72623e+09
1.92233e+10
6.33886e+10
2.46832e+11
1.101e+12
5.45293e+12
5.60978e+12
1.12739e+12
2.51048e+11
6.41258e+10
1.93453e+10
6.73803e+09
2.63668e+09
1.13284e+09
5.24674e+08
2.58152e+08
1.33405e+08
7.17927e+07
4.00042e+07
2.3012e+07
1.36604e+07
8.38103e+06
5.3248e+06
3.50493e+06
2.38519e+06
1.6716e+06
1.20184e+06
884897
668123
519795
420025
356088
320022
307400
316751
349493
409667
504865
647363
856404
1.16267e+06
1.61698e+06
2.3072e+06
3.39015e+06
5.15068e+06
8.10998e+06
1.32297e+07
2.23153e+07
3.88561e+07
6.9858e+07
1.30052e+08
2.52131e+08
5.13386e+08
1.11056e+09
2.58998e+09
6.63327e+09
1.90929e+10
6.34791e+10
2.49355e+11
1.1238e+12
5.59622e+12
5.74651e+12
1.14891e+12
2.53435e+11
6.42079e+10
1.92236e+10
6.6525e+09
2.589e+09
1.10726e+09
5.10889e+08
2.50604e+08
1.29199e+08
6.94103e+07
3.86359e+07
2.2217e+07
1.31939e+07
8.10456e+06
5.15899e+06
3.40399e+06
2.32266e+06
1.63222e+06
1.17677e+06
868899
657994
513499
416204
353788
318522
306100
315086
346865
405340
497857
636273
839138
1.13594e+06
1.57544e+06
2.24179e+06
3.28524e+06
4.97915e+06
7.8248e+06
1.27493e+07
2.14974e+07
3.74486e+07
6.74056e+07
1.25716e+08
2.44329e+08
4.99076e+08
1.08382e+09
2.53952e+09
6.54043e+09
1.89498e+10
6.34855e+10
2.51483e+11
1.14438e+12
5.72777e+12
5.86899e+12
1.16788e+12
2.55455e+11
6.42345e+10
1.90997e+10
6.57138e+09
2.54515e+09
1.08426e+09
4.98733e+08
2.44068e+08
1.25618e+08
6.74141e+07
3.75066e+07
2.15702e+07
1.28196e+07
7.88586e+06
5.02988e+06
3.32682e+06
2.27593e+06
1.60361e+06
1.15919e+06
858184
651643
509944
414416
353073
318349
306038
314732
345791
403012
493539
628898
827078
1.11661e+06
1.54454e+06
2.19203e+06
3.20395e+06
4.84414e+06
7.59728e+06
1.23612e+07
2.08283e+07
3.62819e+07
6.53444e+07
1.22015e+08
2.3756e+08
4.86435e+08
1.05973e+09
2.49301e+09
6.45223e+09
1.88045e+10
6.34378e+10
2.5323e+11
1.16229e+12
5.84424e+12
5.97494e+12
1.18409e+12
2.57141e+11
6.4227e+10
1.89821e+10
6.49806e+09
2.50654e+09
1.06443e+09
4.88449e+08
2.38633e+08
1.22688e+08
6.58053e+07
3.66094e+07
2.10635e+07
1.25305e+07
7.71956e+06
4.93345e+06
3.27047e+06
2.24276e+06
1.58406e+06
1.14777e+06
851736
648275
508510
414186
353516
319119
306847
315306
345839
402162
491278
624437
819195
1.10332e+06
1.52255e+06
2.15562e+06
3.14316e+06
4.74139e+06
7.42158e+06
1.20577e+07
2.02987e+07
3.53473e+07
6.3672e+07
1.18971e+08
2.3191e+08
4.7571e+08
1.03892e+09
2.45201e+09
6.37249e+09
1.86654e+10
6.33519e+10
2.5461e+11
1.17722e+12
5.94356e+12
6.06296e+12
1.19724e+12
2.58482e+11
6.41914e+10
1.88748e+10
6.43405e+09
2.47385e+09
1.048e+09
4.8008e+08
2.34281e+08
1.20376e+08
6.4554e+07
3.59212e+07
2.06802e+07
1.23151e+07
7.59773e+06
4.8643e+06
3.23116e+06
2.2205e+06
1.57162e+06
1.14109e+06
848460
647107
508583
414962
354694
320466
308178
316444
346598
402295
490436
622066
814402
1.09464e+06
1.50749e+06
2.12985e+06
3.09902e+06
4.66535e+06
7.28957e+06
1.18268e+07
1.98912e+07
3.46201e+07
6.23559e+07
1.16547e+08
2.2735e+08
4.66931e+08
1.0216e+09
2.41722e+09
6.30283e+09
1.85388e+10
6.3246e+10
2.55669e+11
1.18914e+12
6.02549e+12
6.13221e+12
1.20723e+12
2.59458e+11
6.41312e+10
1.87808e+10
6.38103e+09
2.44728e+09
1.03488e+09
4.73498e+08
2.30907e+08
1.18609e+08
6.36101e+07
3.5409e+07
2.0399e+07
1.21595e+07
7.51136e+06
4.81647e+06
3.2049e+06
2.20636e+06
1.56434e+06
1.13772e+06
847463
647376
509539
416310
356235
322065
309721
317823
347699
402955
490402
621021
811666
1.08916e+06
1.49742e+06
2.11196e+06
3.06756e+06
4.61007e+06
7.19218e+06
1.16544e+07
1.95839e+07
3.40667e+07
6.13445e+07
1.14665e+08
2.2377e+08
4.59953e+08
1.00766e+09
2.3888e+09
6.24405e+09
1.84274e+10
6.31303e+10
2.56451e+11
1.19844e+12
6.09121e+12
6.1851e+12
1.21465e+12
2.60135e+11
6.40645e+10
1.87033e+10
6.33897e+09
2.4264e+09
1.02469e+09
4.68469e+08
2.28362e+08
1.17292e+08
6.29151e+07
3.50365e+07
2.01972e+07
1.20495e+07
7.45156e+06
4.78426e+06
3.18793e+06
2.1978e+06
1.56051e+06
1.13664e+06
847744
648347
510891
417843
357831
323646
311223
319178
348841
403783
490759
620589
810079
1.08562e+06
1.49058e+06
2.09943e+06
3.04505e+06
4.5699e+06
7.12058e+06
1.15265e+07
1.93544e+07
3.36505e+07
6.0579e+07
1.1323e+08
2.21019e+08
4.54539e+08
9.96698e+08
2.36574e+09
6.19555e+09
1.83316e+10
6.3008e+10
2.56945e+11
1.20531e+12
6.14099e+12
6.22582e+12
1.22033e+12
2.60636e+11
6.4008e+10
1.86433e+10
6.30723e+09
2.411e+09
1.01716e+09
4.64722e+08
2.26477e+08
1.16325e+08
6.24105e+07
3.4769e+07
2.00539e+07
1.19725e+07
7.41044e+06
4.76272e+06
3.17717e+06
2.19307e+06
1.55901e+06
1.13669e+06
848527
649532
512257
419271
359252
325015
312500
320318
349801
404489
491093
620314
808913
1.08305e+06
1.48558e+06
2.09019e+06
3.02836e+06
4.53998e+06
7.06709e+06
1.14308e+07
1.91823e+07
3.3338e+07
6.00029e+07
1.12147e+08
2.18931e+08
4.50374e+08
9.88052e+08
2.34744e+09
6.15643e+09
1.82511e+10
6.28862e+10
2.57204e+11
1.21002e+12
6.17638e+12
6.25622e+12
1.22453e+12
2.6099e+11
6.39597e+10
1.85974e+10
6.28361e+09
2.3998e+09
1.01182e+09
4.62114e+08
2.2516e+08
1.15644e+08
6.20533e+07
3.45799e+07
1.99535e+07
1.19195e+07
7.383e+06
4.74915e+06
3.171e+06
2.19069e+06
1.55851e+06
1.13708e+06
849359
650561
513382
420408
360356
326053
313443
321128
350444
404907
491124
619890
807772
1.08076e+06
1.4814e+06
2.08274e+06
3.01517e+06
4.51667e+06
7.02584e+06
1.13576e+07
1.90516e+07
3.31016e+07
5.9567e+07
1.11321e+08
2.17315e+08
4.47124e+08
9.8135e+08
2.3332e+09
6.12544e+09
1.81849e+10
6.2772e+10
2.57305e+11
1.21316e+12
6.20091e+12
6.27681e+12
1.22731e+12
2.61196e+11
6.39146e+10
1.8562e+10
6.26614e+09
2.39169e+09
1.00804e+09
4.60299e+08
2.24266e+08
1.15193e+08
6.182e+07
3.44575e+07
1.98888e+07
1.18855e+07
7.36536e+06
4.74031e+06
3.16689e+06
2.18908e+06
1.5582e+06
1.1374e+06
849985
651304
514136
421158
361076
326710
314006
321558
350693
404888
490836
619190
806427
1.07841e+06
1.47743e+06
2.0761e+06
3.00395e+06
4.49747e+06
6.99258e+06
1.12993e+07
1.89478e+07
3.29141e+07
5.92224e+07
1.10674e+08
2.16072e+08
4.44658e+08
9.76272e+08
2.32232e+09
6.10132e+09
1.81311e+10
6.26665e+10
2.5728e+11
1.21507e+12
6.21684e+12
6.28988e+12
1.22902e+12
2.61291e+11
6.38736e+10
1.85359e+10
6.25393e+09
2.38617e+09
1.00549e+09
4.59087e+08
2.23668e+08
1.14889e+08
6.1662e+07
3.43738e+07
1.9844e+07
1.18614e+07
7.35251e+06
4.73359e+06
3.16353e+06
2.18758e+06
1.55771e+06
1.13747e+06
850301
651725
514576
421561
361423
326992
314196
321605
350572
404578
490239
618171
804782
1.07582e+06
1.4734e+06
2.06973e+06
2.9937e+06
4.48055e+06
6.96406e+06
1.12504e+07
1.88631e+07
3.27651e+07
5.8955e+07
1.10183e+08
2.1514e+08
4.42824e+08
9.72504e+08
2.31419e+09
6.08295e+09
1.80884e+10
6.25728e+10
2.57177e+11
1.21589e+12
6.22527e+12
6.29738e+12
1.22987e+12
2.61318e+11
6.38423e+10
1.85188e+10
6.24643e+09
2.3829e+09
1.00401e+09
4.58382e+08
2.23318e+08
1.14708e+08
6.1566e+07
3.43216e+07
1.98152e+07
1.18453e+07
7.34354e+06
4.72856e+06
3.16072e+06
2.18604e+06
1.55694e+06
1.13718e+06
850314
651864
514754
421730
361548
327031
314109
321375
350173
403953
489303
616804
802812
1.07299e+06
1.46929e+06
2.06364e+06
2.98438e+06
4.46584e+06
6.94019e+06
1.12109e+07
1.87963e+07
3.26504e+07
5.87534e+07
1.09818e+08
2.14456e+08
4.41482e+08
9.69726e+08
2.30808e+09
6.06861e+09
1.80528e+10
6.24839e+10
2.56997e+11
1.21592e+12
6.22862e+12
6.29853e+12
1.22979e+12
2.61241e+11
6.38084e+10
1.85068e+10
6.24215e+09
2.38129e+09
1.00335e+09
4.58096e+08
2.23184e+08
1.14642e+08
6.15306e+07
3.43019e+07
1.98038e+07
1.18385e+07
7.33933e+06
4.72583e+06
3.15886e+06
2.18474e+06
1.55601e+06
1.13651e+06
849845
651549
514525
421517
361285
326699
313689
320821
349444
402991
488030
615119
800582
1.07003e+06
1.46528e+06
2.05806e+06
2.97632e+06
4.45373e+06
6.92135e+06
1.11807e+07
1.87469e+07
3.25676e+07
5.86108e+07
1.09564e+08
2.1398e+08
4.4054e+08
9.67725e+08
2.30348e+09
6.05704e+09
1.80209e+10
6.23886e+10
2.56704e+11
1.21505e+12
6.22607e+12
6.29275e+12
1.22851e+12
2.60993e+11
6.37559e+10
1.84953e+10
6.23965e+09
2.38086e+09
1.00338e+09
4.58183e+08
2.23253e+08
1.14687e+08
6.15589e+07
3.43192e+07
1.98143e+07
1.18448e+07
7.34301e+06
4.72786e+06
3.15981e+06
2.18494e+06
1.55574e+06
1.136e+06
849263
650973
513968
420971
360738
326117
313028
320033
348489
401818
486578
613315
798347
1.06725e+06
1.46175e+06
2.05346e+06
2.97009e+06
4.44493e+06
6.90836e+06
1.11608e+07
1.87154e+07
3.25161e+07
5.85234e+07
1.09407e+08
2.13681e+08
4.39918e+08
9.6631e+08
2.29992e+09
6.04706e+09
1.79895e+10
6.22768e+10
2.56255e+11
1.21304e+12
6.21652e+12
6.28296e+12
1.22652e+12
2.60629e+11
6.36862e+10
1.84821e+10
6.23774e+09
2.38102e+09
1.00376e+09
4.58485e+08
2.23453e+08
1.14812e+08
6.1635e+07
3.43654e+07
1.98423e+07
1.18619e+07
7.35336e+06
4.73413e+06
3.16357e+06
2.18713e+06
1.55691e+06
1.13648e+06
849225
650601
513437
420372
360098
325416
312241
319125
347436
400590
485145
611658
796446
1.06503e+06
1.45916e+06
2.0504e+06
2.96637e+06
4.44019e+06
6.90199e+06
1.11518e+07
1.8702e+07
3.24946e+07
5.84857e+07
1.09333e+08
2.13517e+08
4.39517e+08
9.65241e+08
2.29684e+09
6.03739e+09
1.7956e+10
6.21467e+10
2.55682e+11
1.21025e+12
6.20268e+12
6.2724e+12
1.22436e+12
2.60224e+11
6.3605e+10
1.84658e+10
6.23516e+09
2.38118e+09
1.0043e+09
4.58937e+08
2.23765e+08
1.15015e+08
6.17636e+07
3.44463e+07
1.9893e+07
1.18936e+07
7.37322e+06
4.74656e+06
3.17133e+06
2.19196e+06
1.55987e+06
1.13822e+06
850169
650982
513370
419989
359549
324755
311474
318246
346454
399511
483996
610455
795178
1.06374e+06
1.45792e+06
2.04926e+06
2.96541e+06
4.4395e+06
6.9017e+06
1.11521e+07
1.87031e+07
3.24959e+07
5.84837e+07
1.09313e+08
2.13425e+08
4.39195e+08
9.6421e+08
2.29358e+09
6.02679e+09
1.79192e+10
6.20051e+10
2.55073e+11
1.20734e+12
6.18849e+12
6.26258e+12
1.22223e+12
2.59804e+11
6.35125e+10
1.84442e+10
6.23041e+09
2.38063e+09
1.00462e+09
4.59338e+08
2.24088e+08
1.15245e+08
6.19209e+07
3.45513e+07
1.99622e+07
1.19389e+07
7.40276e+06
4.76574e+06
3.18374e+06
2.20003e+06
1.56513e+06
1.14162e+06
852322
652276
514071
420243
359413
324367
310938
317607
345772
398849
483380
609911
794762
1.06355e+06
1.45811e+06
2.05017e+06
2.96761e+06
4.4438e+06
6.90926e+06
1.11644e+07
1.87214e+07
3.252e+07
5.85063e+07
1.09305e+08
2.13313e+08
4.38763e+08
9.62833e+08
2.28939e+09
6.01383e+09
1.78768e+10
6.18535e+10
2.54465e+11
1.20459e+12
6.17582e+12
6.25581e+12
1.22048e+12
2.59402e+11
6.34067e+10
1.84142e+10
6.22175e+09
2.37834e+09
1.00428e+09
4.59485e+08
2.24309e+08
1.15444e+08
6.20766e+07
3.46653e+07
2.00428e+07
1.19946e+07
7.4407e+06
4.79125e+06
3.20109e+06
2.21193e+06
1.57333e+06
1.14726e+06
856156
654824
515704
421231
359963
324590
310929
317478
345619
398731
483375
610142
795449
1.06502e+06
1.46083e+06
2.05478e+06
2.97495e+06
4.45502e+06
6.92577e+06
1.11875e+07
1.8751e+07
3.25508e+07
5.85173e+07
1.09248e+08
2.13065e+08
4.38003e+08
9.60709e+08
2.28355e+09
5.99742e+09
1.7828e+10
6.16962e+10
2.53905e+11
1.20234e+12
6.16686e+12
6.25488e+12
1.21957e+12
2.59077e+11
6.32896e+10
1.8373e+10
6.20711e+09
2.37317e+09
1.00258e+09
4.59069e+08
2.24313e+08
1.15549e+08
6.21953e+07
3.47691e+07
2.01244e+07
1.20553e+07
7.48461e+06
4.82288e+06
3.22388e+06
2.22847e+06
1.58542e+06
1.15611e+06
862599
659466
519000
423540
361572
325733
311800
318228
346422
399785
484922
612471
798889
1.06996e+06
1.46772e+06
2.06414e+06
2.98747e+06
4.47182e+06
6.94763e+06
1.12137e+07
1.8776e+07
3.25565e+07
5.84691e+07
1.09065e+08
2.12551e+08
4.36693e+08
9.57473e+08
2.27552e+09
5.97693e+09
1.77734e+10
6.15438e+10
2.53467e+11
1.20106e+12
6.16415e+12
6.26616e+12
1.22091e+12
2.59144e+11
6.32287e+10
1.8333e+10
6.18817e+09
2.36489e+09
9.99134e+08
4.57734e+08
2.23886e+08
1.15485e+08
6.22446e+07
3.48452e+07
2.01966e+07
1.21149e+07
7.53128e+06
4.85859e+06
3.25115e+06
2.24947e+06
1.60173e+06
1.16881e+06
872453
667056
524810
427992
365039
328552
314275
320637
349070
402988
489003
617764
805738
1.07871e+06
1.47874e+06
2.0778e+06
3.0041e+06
4.49128e+06
6.9687e+06
1.12311e+07
1.87746e+07
3.25111e+07
5.83206e+07
1.08681e+08
2.11643e+08
4.34628e+08
9.52825e+08
2.265e+09
5.95274e+09
1.77172e+10
6.14205e+10
2.53285e+11
1.20145e+12
6.17101e+12
6.29074e+12
1.22561e+12
2.5989e+11
6.33253e+10
1.83375e+10
6.18232e+09
2.3604e+09
9.96739e+08
4.56628e+08
2.23443e+08
1.15355e+08
6.22475e+07
3.4893e+07
2.02537e+07
1.2168e+07
7.57635e+06
4.89567e+06
3.28152e+06
2.27455e+06
1.62259e+06
1.18617e+06
886799
678808
534378
435799
371525
334158
319438
325783
354650
409440
496735
627138
817027
1.09206e+06
1.4941e+06
2.09485e+06
3.02197e+06
4.5078e+06
6.97993e+06
1.12268e+07
1.87368e+07
3.23958e+07
5.80354e+07
1.08037e+08
2.10249e+08
4.31672e+08
9.46603e+08
2.25194e+09
5.92576e+09
1.76657e+10
6.13632e+10
2.53614e+11
1.20529e+12
6.18908e+12
6.32755e+12
1.23689e+12
2.61781e+11
6.36277e+10
1.83878e+10
6.1892e+09
2.36037e+09
9.95833e+08
4.55944e+08
2.23055e+08
1.15188e+08
6.221e+07
3.49104e+07
2.02867e+07
1.22061e+07
7.61361e+06
4.92999e+06
3.31261e+06
2.30258e+06
1.64774e+06
1.20851e+06
906356
695675
548779
448095
382181
343708
328449
334829
364328
420305
509270
641695
833773
1.11091e+06
1.51467e+06
2.11633e+06
3.04276e+06
4.52434e+06
6.98415e+06
1.121e+07
1.86737e+07
3.22317e+07
5.76618e+07
1.07239e+08
2.08593e+08
4.28286e+08
9.39735e+08
2.23821e+09
5.8993e+09
1.76212e+10
6.13476e+10
2.54351e+11
1.21269e+12
6.20087e+12
6.34787e+12
1.24937e+12
2.63697e+11
6.39055e+10
1.84254e+10
6.18915e+09
2.35465e+09
9.91184e+08
4.53064e+08
2.2148e+08
1.14379e+08
6.18246e+07
3.47555e+07
2.02517e+07
1.22181e+07
7.64111e+06
4.96209e+06
3.34485e+06
2.33342e+06
1.6766e+06
1.23502e+06
930253
716848
567321
464304
396527
356782
340909
347353
377616
434996
525887
660589
855074
1.1345e+06
1.5402e+06
2.14329e+06
3.07042e+06
4.55148e+06
7.00689e+06
1.1212e+07
1.86345e+07
3.21103e+07
5.7375e+07
1.0662e+08
2.07331e+08
4.25776e+08
9.34893e+08
2.22964e+09
5.88718e+09
1.76196e+10
6.15041e+10
2.55814e+11
1.22358e+12
6.20466e+12
6.35441e+12
1.26314e+12
2.65432e+11
6.4106e+10
1.84403e+10
6.17981e+09
2.34645e+09
9.86451e+08
4.50552e+08
2.20183e+08
1.13745e+08
6.15433e+07
3.46556e+07
2.02392e+07
1.22439e+07
7.68154e+06
5.00459e+06
3.38522e+06
2.3707e+06
1.71076e+06
1.2661e+06
958212
741706
589237
483627
413780
372620
356065
362589
393714
452666
545714
682986
880252
1.1625e+06
1.57097e+06
2.17684e+06
3.10688e+06
4.5907e+06
7.04709e+06
1.12474e+07
1.86415e+07
3.20477e+07
5.71621e+07
1.06117e+08
2.06304e+08
4.23889e+08
9.31739e+08
2.22497e+09
5.88579e+09
1.76577e+10
6.17945e+10
2.5791e+11
1.2386e+12
6.20452e+12
6.34477e+12
1.28009e+12
2.67203e+11
6.42711e+10
1.84514e+10
6.17394e+09
2.34117e+09
9.83271e+08
4.48849e+08
2.19358e+08
1.13418e+08
6.14569e+07
3.46805e+07
2.03052e+07
1.232e+07
7.75253e+06
5.06603e+06
3.4375e+06
2.41568e+06
1.75011e+06
1.30087e+06
988996
768865
613134
504727
432678
390024
372756
379373
411421
472055
567434
707547
908030
1.19381e+06
1.60628e+06
2.21699e+06
3.15338e+06
4.64554e+06
7.11162e+06
1.13196e+07
1.87103e+07
3.20804e+07
5.70947e+07
1.05827e+08
2.05584e+08
4.22462e+08
9.29355e+08
2.22226e+09
5.88718e+09
1.76915e+10
6.20119e+10
2.59752e+11
1.25575e+12
6.20483e+12
6.32075e+12
1.29019e+12
2.67988e+11
6.43143e+10
1.84488e+10
6.16971e+09
2.3386e+09
9.81837e+08
4.48116e+08
2.19127e+08
1.13482e+08
6.16254e+07
3.48638e+07
2.04675e+07
1.24519e+07
7.85565e+06
5.1459e+06
3.50034e+06
2.46669e+06
1.79287e+06
1.3376e+06
1.02095e+06
796795
637619
526339
452063
407913
389941
396671
429672
492043
589853
732993
937050
1.22704e+06
1.64472e+06
2.26244e+06
3.20888e+06
4.71573e+06
7.2023e+06
1.14362e+07
1.88544e+07
3.2241e+07
5.7234e+07
1.0585e+08
2.05273e+08
4.21623e+08
9.27845e+08
2.22015e+09
5.88672e+09
1.77006e+10
6.20792e+10
2.60505e+11
1.26502e+12
6.19339e+12
6.28371e+12
1.29014e+12
2.67299e+11
6.40738e+10
1.83701e+10
6.14093e+09
2.32776e+09
9.78201e+08
4.47411e+08
2.1931e+08
1.13795e+08
6.19798e+07
3.51807e+07
2.07158e+07
1.26371e+07
7.99174e+06
5.24657e+06
3.57663e+06
2.52668e+06
1.84194e+06
1.37898e+06
1.05654e+06
827726
664680
550240
473545
427782
409064
415937
450000
514296
614821
761398
969630
1.26475e+06
1.68909e+06
2.31616e+06
3.27651e+06
4.80437e+06
7.3219e+06
1.15992e+07
1.90738e+07
3.25224e+07
5.75445e+07
1.06128e+08
2.05433e+08
4.2092e+08
9.24395e+08
2.21018e+09
5.86117e+09
1.7634e+10
6.18963e+10
2.59987e+11
1.26514e+12
6.16357e+12
6.2731e+12
1.28771e+12
2.66938e+11
6.40816e+10
1.8387e+10
6.14935e+09
2.33225e+09
9.80896e+08
4.49071e+08
2.20418e+08
1.14594e+08
6.25466e+07
3.56091e+07
2.104e+07
1.28719e+07
8.16109e+06
5.37023e+06
3.66931e+06
2.59873e+06
1.90025e+06
1.42778e+06
1.09832e+06
863984
696445
578381
498932
451347
431798
438858
474159
540692
644378
794996
1.00822e+06
1.30961e+06
1.7423e+06
2.38129e+06
3.35953e+06
4.91449e+06
7.47247e+06
1.18083e+07
1.93645e+07
3.29163e+07
5.80605e+07
1.06837e+08
2.06382e+08
4.22292e+08
9.26496e+08
2.21323e+09
5.86524e+09
1.76368e+10
6.18485e+10
2.59555e+11
1.26316e+12
6.15534e+12
6.3138e+12
1.2955e+12
2.68919e+11
6.46181e+10
1.85524e+10
6.20721e+09
2.35511e+09
9.9102e+08
4.54046e+08
2.23114e+08
1.16188e+08
6.3541e+07
3.62497e+07
2.14767e+07
1.31746e+07
8.37428e+06
5.5236e+06
3.7829e+06
2.68601e+06
1.97012e+06
1.48573e+06
1.14765e+06
906686
733867
611609
529007
479353
458877
466180
502939
572088
679488
834908
1.05418e+06
1.36334e+06
1.8066e+06
2.46089e+06
3.46226e+06
5.05245e+06
7.66382e+06
1.20799e+07
1.97562e+07
3.34892e+07
5.89439e+07
1.08233e+08
2.08708e+08
4.26525e+08
9.35008e+08
2.23226e+09
5.91321e+09
1.77742e+10
6.2304e+10
2.61251e+11
1.27005e+12
6.19113e+12
6.3786e+12
1.30945e+12
2.72447e+11
6.55716e+10
1.8847e+10
6.31076e+09
2.39588e+09
1.00882e+09
4.62575e+08
2.27567e+08
1.18696e+08
6.50395e+07
3.7186e+07
2.20794e+07
1.35772e+07
8.65078e+06
5.71868e+06
3.92494e+06
2.79342e+06
2.05469e+06
1.5549e+06
1.20591e+06
956805
777659
650478
564232
512214
490698
498312
536784
609006
720805
882010
1.10873e+06
1.42775e+06
1.88471e+06
2.55913e+06
3.59121e+06
5.22861e+06
7.91282e+06
1.24418e+07
2.02964e+07
3.43237e+07
6.02708e+07
1.10433e+08
2.12579e+08
4.33884e+08
9.50281e+08
2.26717e+09
6.00198e+09
1.80278e+10
6.3129e+10
2.64319e+11
1.28239e+12
6.24887e+12
6.46288e+12
1.32839e+12
2.77298e+11
6.69016e+10
1.92633e+10
6.45868e+09
2.45465e+09
1.03457e+09
4.74895e+08
2.33941e+08
1.22229e+08
6.71147e+07
3.84618e+07
2.28861e+07
1.41061e+07
9.008e+06
5.96684e+06
4.10284e+06
2.92577e+06
2.15717e+06
1.63742e+06
1.27454e+06
1.01529e+06
828481
695474
604988
550257
527570
535569
576048
651879
768907
937118
1.17309e+06
1.50465e+06
1.97945e+06
2.68038e+06
3.7529e+06
5.45298e+06
8.23489e+06
1.29177e+07
2.10202e+07
3.5463e+07
6.21143e+07
1.13552e+08
2.18173e+08
4.44643e+08
9.7271e+08
2.31833e+09
6.13102e+09
1.83922e+10
6.42999e+10
2.6862e+11
1.29932e+12
6.32559e+12
6.56812e+12
1.35219e+12
2.83473e+11
6.86161e+10
1.98049e+10
6.65297e+09
2.5325e+09
1.06891e+09
4.91375e+08
2.42459e+08
1.26927e+08
6.98525e+07
4.01311e+07
2.3935e+07
1.47877e+07
9.46391e+06
6.28017e+06
4.32476e+06
3.08855e+06
2.28123e+06
1.73574e+06
1.35517e+06
1.08326e+06
887104
747148
651698
593834
569812
578278
621107
701181
824438
1.00116e+06
1.24864e+06
1.59615e+06
2.09393e+06
2.8293e+06
3.95445e+06
5.73622e+06
8.64602e+06
1.35314e+07
2.19629e+07
3.69601e+07
6.45618e+07
1.17733e+08
2.25723e+08
4.59206e+08
1.003e+09
2.38703e+09
6.30281e+09
1.88729e+10
6.58312e+10
2.74183e+11
1.32086e+12
6.42275e+12
6.69688e+12
1.38105e+12
2.91104e+11
7.07589e+10
2.04877e+10
6.89978e+09
2.6321e+09
1.11311e+09
5.12675e+08
2.53484e+08
1.32997e+08
7.33774e+07
4.22705e+07
2.52764e+07
1.56555e+07
1.00409e+07
6.67376e+06
4.60088e+06
3.28868e+06
2.43166e+06
1.85309e+06
1.44997e+06
1.1622e+06
954561
806248
704931
643415
617858
626883
672470
757561
888289
1.07542e+06
1.33726e+06
1.70503e+06
2.23234e+06
3.01212e+06
4.20518e+06
6.09223e+06
9.1668e+06
1.43138e+07
2.3171e+07
3.88873e+07
6.77329e+07
1.23178e+08
2.35584e+08
4.78216e+08
1.04241e+09
2.47586e+09
6.52332e+09
1.94851e+10
6.77639e+10
2.81123e+11
1.34728e+12
6.54189e+12
6.85064e+12
1.41565e+12
3.00402e+11
7.3397e+10
2.1336e+10
7.20878e+09
2.75762e+09
1.16912e+09
5.39766e+08
2.67529e+08
1.40727e+08
7.78555e+07
4.49799e+07
2.69718e+07
1.67492e+07
1.07651e+07
7.16514e+06
4.94305e+06
3.53411e+06
2.61374e+06
1.993e+06
1.5613e+06
1.25366e+06
1.03188e+06
873463
765178
699384
672054
681757
730607
821669
961413
1.16133e+06
1.44115e+06
1.83465e+06
2.39983e+06
3.23646e+06
4.51654e+06
6.53814e+06
9.82296e+06
1.5304e+07
2.47041e+07
4.13335e+07
7.17785e+07
1.30148e+08
2.48223e+08
5.02562e+08
1.09272e+09
2.58866e+09
6.80146e+09
2.02512e+10
7.01596e+10
2.89637e+11
1.37932e+12
6.68446e+12
7.03128e+12
1.45709e+12
3.11564e+11
7.6591e+10
2.23738e+10
7.58992e+09
2.91343e+09
1.23898e+09
5.7366e+08
2.85124e+08
1.50405e+08
8.3451e+07
4.83563e+07
2.9082e+07
1.81076e+07
1.16619e+07
7.77097e+06
5.36223e+06
3.83199e+06
2.832e+06
2.15827e+06
1.69081e+06
1.3585e+06
1.11942e+06
948860
832326
761537
732168
742691
795391
893546
1.04414e+06
1.25968e+06
1.56182e+06
1.98765e+06
2.60065e+06
3.50923e+06
4.89924e+06
7.09039e+06
1.06398e+07
1.6541e+07
2.66239e+07
4.43948e+07
7.68529e+07
1.38914e+08
2.64143e+08
5.33216e+08
1.15591e+09
2.72978e+09
7.14748e+09
2.1197e+10
7.30873e+10
2.99954e+11
1.4181e+12
6.85403e+12
7.24146e+12
1.50571e+12
3.24803e+11
8.04244e+10
2.36318e+10
8.05541e+09
3.10479e+09
1.32508e+09
6.15516e+08
3.06859e+08
1.62348e+08
9.03406e+07
5.25027e+07
3.16727e+07
1.97726e+07
1.27583e+07
8.50901e+06
5.87013e+06
4.18998e+06
3.09133e+06
2.35204e+06
1.84028e+06
1.47767e+06
1.21759e+06
1.03248e+06
906201
829578
797849
809339
866546
973067
1.13661e+06
1.37108e+06
1.7006e+06
2.16643e+06
2.83884e+06
3.83697e+06
5.36345e+06
7.76467e+06
1.16416e+07
1.8063e+07
2.89932e+07
4.81888e+07
8.31375e+07
1.49802e+08
2.83959e+08
5.71397e+08
1.23455e+09