/*--------------------------------*- C++ -*----------------------------------*\
| =========                 |                                                 |
| \\      /  F ield         | OpenFOAM: The Open Source CFD Toolbox           |
|  \\    /   O peration     | Version:  2212                                  |
|   \\  /    A nd           | Website:  www.openfoam.com                      |
|    \\/     M anipulation  |                                                 |
\*---------------------------------------------------------------------------*/
FoamFile
{
    version     2.0;
    format      ascii;
    arch        "LSB;label=32;scalar=64";
    class       volScalarField;
    location    "0.383";
    object      nut;
}
// * * * * * * * * * * * * * * * * * * * * * * * * * * * * * * * * * * * * * //

dimensions      [0 2 -1 0 0 0 0];

internalField   nonuniform List<scalar> 
24240
(
0
0
0
0
0
0
0
0
0
0
0
0
0
0
0
0
0
0
0
0
0
0
0
0
0
0
0
0
0
0
0
0
0
0
0
0
0
0
0
0
0
0
0
0
0
0
0
0
0
0
0
0
0
0
0
0
0
0
0
0
0
0
0
0
0
0
0
0
0
0
0
0
0
0
0
0
0
0
0
0
0
0
0
0
0
0
0
0
0
0
0
0
0
0
0
0
0
0
0
0
0
0
0
0
0
0
0
0
0
0
0
0
0
0
0
0
0
0
0
0
0
0
0
0
0
0
0
0
0
0
0
0
0
0
0
0
0
0
0
0
0
0
0
0
0
0
0
0
0
0
0
0
0
0
0
0
0
0
0
0
0
0
0
0
0
0
0
0
0
0
0
0
0
0
0
0
0
0
0
0
0
0
0
0
0
0
0
0
0
0
0
0
0
0
0
0
0
0
0
0
0
0
0
0
0
0
0
0
0
0
0
0
0
0
0
0
0
0
0
0
0
0
0
0
0
0
0
0
0
0
0
0
0
0
0
0
0
0
0
0
0
0
0
0
0
0
0
0
0
0
0
0
0
0
0
0
0
0
0
0
0
0
0
0
0
0
0
0
0
0
0
0
0
0
0
0
0
0
0
0
0
0
0
0
0
0
0
0
0
0
0
0
0
0
0
0
0
0
0
0
0
0
0
0
0
0
0
0
0
0
0
0
0
0
0
0
0
0
0
0
0
0
0
0
0
0
0
0
0
0
0
0
0
0
0
0
0
0
0
0
0
0
0
0
0
0
0
0
0
0
0
0
0
0
0
0
0
0
0
0
0
0
0
0
0
0
0
0
0
0
0
0
0
0
0
0
0
0
0
0
0
0
0
0
0
0
0
0
0
0
0
0
0
0
0
0
0
0
0
0
0
0
0
0
0
0
0
0
0
0
0
0
0
0
0
0
0
0
0
0
0
0
0
0
0
0
0
0
0
0
0
0
0
0
0
0
0
0
0
0
0
0
0
0
0
0
0
0
0
0
0
0
0
0
0
0
0
0
0
0
0
0
0
0
0
0
0
0
0
0
0
0
0
0
0
0
0
0
0
0
0
0
0
0
0
0
0
0
0
0
0
0
0
0
0
0
0
0
0
0
0
0
0
0
0
0
0
0
0
0
0
0
0
0
0
0
0
0
0
0
0
0
0
0
0
0
0
0
0
0
0
0
0
0
0
0
0
0
0
0
0
0
0
0
0
0
0
0
0
0
0
0
0
0
0
0
0
0
0
0
0
0
0
0
0
0
0
0
0
0
0
0
0
0
0
0
0
0
0
0
0
0
0
0
0
0
0
0
0
0
0
0
0
0
0
0
0
0
0
0
0
0
0
0
0
0
0
0
0
0
0
0
0
0
0
0
0
0
0
0
0
0
0
0
0
0
0
0
0
0
0
0
0
0
0
0
0
0
0
0
0
0
0
0
0
0
0
0
0
0
0
0
0
0
0
0
0
0
0
0
0
0
0
0
0
0
0
0
0
0
0
0
0
0
0
0
0
0
0
0
0
0
0
0
0
0
0
0
0
0
0
0
0
0
0
0
0
0
0
0
0
0
0
0
0
0
0
0
0
0
0
0
0
0
0
0
0
0
0
0
0
0
0
0
0
0
0
0
0
0
0
0
0
0
0
0
0
0
0
0
0
0
0
0
0
0
0
0
0
0
0
0
0
0
0
0
0
0
0
0
0
0
0
0
0
0
0
0
0
0
0
0
0
0
0
0
0
0
0
0
0
0
0
0
0
0
0
0
0
0
0
0
0
0
0
0
0
0
0
0
0
2.02315e-07
3.15832e-07
3.15096e-07
3.15298e-07
3.15533e-07
3.15801e-07
3.1609e-07
3.16392e-07
3.16699e-07
3.17002e-07
3.17295e-07
3.17571e-07
3.17827e-07
3.18057e-07
3.1826e-07
3.18427e-07
3.19459e-07
2.05122e-07
0
0
0
1.67156e-08
2.05727e-08
1.96457e-08
1.96577e-08
1.96714e-08
1.96862e-08
1.97017e-08
1.97174e-08
1.9733e-08
1.97481e-08
1.97624e-08
1.97757e-08
1.97876e-08
1.97983e-08
2.07497e-08
1.68962e-08
0
0
0
0
0
0
0
0
0
0
0
0
0
0
0
0
0
0
0
0
0
0
0
0
0
2.72664e-06
2.74821e-06
2.74794e-06
2.74762e-06
2.74728e-06
2.74692e-06
2.74655e-06
2.74619e-06
2.74585e-06
2.74553e-06
2.74523e-06
2.74496e-06
2.74473e-06
2.72276e-06
0
0
0
0
0
0
2.81072e-06
2.83538e-06
2.83514e-06
2.83485e-06
2.83454e-06
2.83421e-06
2.83389e-06
2.83356e-06
2.83324e-06
2.83294e-06
2.83267e-06
2.83242e-06
2.83219e-06
2.80717e-06
0
0
0
0
0
0
2.10745e-06
2.12604e-06
2.12575e-06
2.12541e-06
2.12505e-06
2.12466e-06
2.12428e-06
2.12389e-06
2.12352e-06
2.12316e-06
2.12284e-06
2.12254e-06
2.12228e-06
2.10325e-06
0
0
0
0
0
0
2.10986e-06
2.12937e-06
2.12911e-06
2.12882e-06
2.1285e-06
2.12816e-06
2.12783e-06
2.12749e-06
2.12716e-06
2.12685e-06
2.12656e-06
2.12629e-06
2.12606e-06
2.10616e-06
0
0
0
0
0
0
1.42777e-06
1.44098e-06
1.44075e-06
1.4405e-06
1.44022e-06
1.43993e-06
1.43964e-06
1.43934e-06
1.43905e-06
1.43877e-06
1.43851e-06
1.43827e-06
1.43806e-06
1.42451e-06
0
0
0
0
0
0
1.33532e-06
1.34748e-06
1.34725e-06
1.34698e-06
1.3467e-06
1.3464e-06
1.34609e-06
1.34579e-06
1.34549e-06
1.34521e-06
1.34495e-06
1.34471e-06
1.34449e-06
1.33198e-06
0
0
0
0
0
0
1.45139e-06
1.46434e-06
1.46402e-06
1.46367e-06
1.46329e-06
1.46288e-06
1.46247e-06
1.46206e-06
1.46165e-06
1.46127e-06
1.46091e-06
1.46058e-06
1.46029e-06
1.44686e-06
0
0
0
0
0
0
1.32707e-06
1.33864e-06
1.33825e-06
1.33782e-06
1.33736e-06
1.33687e-06
1.33637e-06
1.33588e-06
1.33541e-06
1.33496e-06
1.33454e-06
1.33417e-06
1.33385e-06
1.32174e-06
0
0
0
0
0
0
2.16193e-06
2.18059e-06
2.18022e-06
2.17981e-06
2.17936e-06
2.17889e-06
2.17842e-06
2.17795e-06
2.17749e-06
2.17706e-06
2.17666e-06
2.1763e-06
2.17599e-06
2.1568e-06
0
0
0
0
0
0
2.07897e-06
2.09595e-06
2.0955e-06
2.095e-06
2.09447e-06
2.09391e-06
2.09334e-06
2.09279e-06
2.09226e-06
2.09176e-06
2.09131e-06
2.09092e-06
2.09059e-06
2.07302e-06
0
0
0
0
0
0
3.47878e-06
3.50678e-06
3.50646e-06
3.50609e-06
3.50571e-06
3.5053e-06
3.50489e-06
3.50449e-06
3.50412e-06
3.50377e-06
3.50345e-06
3.50318e-06
3.50294e-06
3.47452e-06
0
0
0
0
0
0
3.49579e-06
3.52249e-06
3.52202e-06
3.5215e-06
3.52094e-06
3.52035e-06
3.51977e-06
3.51921e-06
3.51868e-06
3.5182e-06
3.51778e-06
3.51743e-06
3.51713e-06
3.48987e-06
0
0
0
0
0
0
5.20966e-06
5.24758e-06
5.24763e-06
5.24765e-06
5.24767e-06
5.2477e-06
5.24774e-06
5.2478e-06
5.24787e-06
5.24796e-06
5.24806e-06
5.24816e-06
5.24824e-06
5.21044e-06
0
0
0
0
0
0
5.76567e-06
5.80528e-06
5.80533e-06
5.80524e-06
5.80514e-06
5.80504e-06
5.80496e-06
5.8048e-06
5.80486e-06
5.80486e-06
5.80489e-06
5.80494e-06
5.80489e-06
5.76531e-06
0
0
0
0
0
0
0
0
0
0
0
0
0
0
0
0
0
0
0
0
0
0
0
0
0
5.02248e-08
5.91536e-08
5.59105e-08
5.58904e-08
5.59082e-08
5.59275e-08
5.59477e-08
5.59683e-08
5.60421e-08
5.60084e-08
5.60269e-08
5.60442e-08
5.60597e-08
5.61095e-08
5.93899e-08
5.0457e-08
0
0
1.29116e-07
1.88921e-06
2.43247e-06
2.43091e-06
2.43167e-06
2.43258e-06
2.43362e-06
2.43476e-06
2.43595e-06
2.43717e-06
2.43839e-06
2.43957e-06
2.44069e-06
2.44174e-06
2.4427e-06
2.44357e-06
2.44431e-06
2.44705e-06
1.90179e-06
1.32696e-07
0
4.68573e-09
4.7971e-08
4.81937e-08
4.83059e-08
4.84376e-08
4.85874e-08
4.8749e-08
4.89183e-08
4.90901e-08
4.92604e-08
4.94255e-08
4.95819e-08
4.97274e-08
4.98591e-08
4.99765e-08
5.00748e-08
5.00183e-08
6.12108e-09
0
0
0
0
0
0
0
0
0
0
0
0
0
0
0
0
0
0
0
0
0
0
0
0
0
0
0
0
0
0
0
0
0
0
0
0
0
0
0
0
0
0
0
0
2.66372e-06
2.68541e-06
2.68523e-06
2.68503e-06
2.6848e-06
2.68456e-06
2.68432e-06
2.68408e-06
2.68384e-06
2.68361e-06
2.68339e-06
2.68319e-06
2.683e-06
2.66103e-06
0
0
0
0
0
0
2.92627e-06
2.95313e-06
2.95288e-06
2.95258e-06
2.95226e-06
2.95192e-06
2.95158e-06
2.95124e-06
2.95091e-06
2.95059e-06
2.9503e-06
2.95003e-06
2.94977e-06
2.92252e-06
0
0
0
0
0
0
2.15241e-06
2.17181e-06
2.17154e-06
2.17123e-06
2.1709e-06
2.17054e-06
2.17018e-06
2.16982e-06
2.16947e-06
2.16913e-06
2.16881e-06
2.16851e-06
2.16825e-06
2.14843e-06
0
0
0
0
0
0
2.2378e-06
2.25907e-06
2.2588e-06
2.2585e-06
2.25817e-06
2.25783e-06
2.25748e-06
2.25712e-06
2.25678e-06
2.25644e-06
2.25613e-06
2.25584e-06
2.25559e-06
2.23391e-06
0
0
0
0
0
0
1.52833e-06
1.54273e-06
1.5425e-06
1.54223e-06
1.54194e-06
1.54164e-06
1.54133e-06
1.54101e-06
1.5407e-06
1.5404e-06
1.54012e-06
1.53985e-06
1.53962e-06
1.52484e-06
0
0
0
0
0
0
1.48064e-06
1.49426e-06
1.49401e-06
1.49373e-06
1.49343e-06
1.49311e-06
1.49278e-06
1.49245e-06
1.49213e-06
1.49182e-06
1.49152e-06
1.49125e-06
1.49101e-06
1.477e-06
0
0
0
0
0
0
1.63766e-06
1.65263e-06
1.6523e-06
1.65193e-06
1.65153e-06
1.6511e-06
1.65066e-06
1.65022e-06
1.64979e-06
1.64938e-06
1.64899e-06
1.64862e-06
1.6483e-06
1.63282e-06
0
0
0
0
0
0
1.55332e-06
1.56699e-06
1.56664e-06
1.56625e-06
1.56582e-06
1.56537e-06
1.5649e-06
1.56443e-06
1.56398e-06
1.56354e-06
1.56313e-06
1.56275e-06
1.56242e-06
1.54821e-06
0
0
0
0
0
0
2.51331e-06
2.53587e-06
2.53547e-06
2.53503e-06
2.53454e-06
2.53403e-06
2.53351e-06
2.53299e-06
2.53249e-06
2.532e-06
2.53155e-06
2.53113e-06
2.53077e-06
2.50762e-06
0
0
0
0
0
0
2.46303e-06
2.48353e-06
2.48314e-06
2.48268e-06
2.4822e-06
2.48168e-06
2.48116e-06
2.48063e-06
2.48013e-06
2.47964e-06
2.47919e-06
2.47878e-06
2.47843e-06
2.45733e-06
0
0
0
0
0
0
4.02455e-06
4.05944e-06
4.05907e-06
4.05865e-06
4.0582e-06
4.05772e-06
4.05724e-06
4.05676e-06
4.05631e-06
4.05588e-06
4.05549e-06
4.05513e-06
4.05481e-06
4.01939e-06
0
0
0
0
0
0
3.92638e-06
3.95771e-06
3.95736e-06
3.95695e-06
3.95651e-06
3.95604e-06
3.95558e-06
3.95512e-06
3.95468e-06
3.95426e-06
3.95388e-06
3.95354e-06
3.95324e-06
3.92139e-06
0
0
0
0
0
0
5.69191e-06
5.73648e-06
5.73649e-06
5.73645e-06
5.73642e-06
5.73637e-06
5.73635e-06
5.73633e-06
5.73633e-06
5.73634e-06
5.73637e-06
5.7364e-06
5.73641e-06
5.69186e-06
0
0
0
0
0
0
5.71221e-06
5.75395e-06
5.75413e-06
5.7542e-06
5.75429e-06
5.75438e-06
5.75449e-06
5.75454e-06
5.75473e-06
5.75485e-06
5.75499e-06
5.75512e-06
5.75515e-06
5.71357e-06
0
0
0
0
0
0
0
0
0
0
0
0
0
0
0
0
0
0
0
0
0
0
0
0
0
1.38992e-08
2.00639e-08
1.89598e-08
1.89642e-08
1.89819e-08
1.90013e-08
1.90219e-08
1.9043e-08
1.90725e-08
1.90849e-08
1.91048e-08
1.91237e-08
1.91413e-08
1.91685e-08
2.03135e-08
1.41466e-08
0
0
0
8.92612e-07
1.27112e-06
1.27338e-06
1.27397e-06
1.27466e-06
1.27547e-06
1.27636e-06
1.2773e-06
1.27827e-06
1.27925e-06
1.28021e-06
1.28114e-06
1.28203e-06
1.28286e-06
1.28363e-06
1.2843e-06
1.28304e-06
9.02744e-07
0
0
9.43678e-08
1.6983e-07
1.69726e-07
1.69837e-07
1.69966e-07
1.70115e-07
1.70275e-07
1.70444e-07
1.70617e-07
1.7079e-07
1.70959e-07
1.71121e-07
1.71273e-07
1.71412e-07
1.71539e-07
1.71645e-07
1.71924e-07
9.5846e-08
0
0
0
6.79431e-09
1.06115e-08
9.78926e-09
9.79679e-09
9.80545e-09
9.81481e-09
9.82467e-09
9.83473e-09
9.84475e-09
9.85455e-09
9.8639e-09
9.87271e-09
9.88076e-09
9.88812e-09
1.0732e-08
6.91351e-09
0
0
0
0
0
0
0
0
0
0
0
0
0
0
0
0
0
0
0
0
0
0
0
0
0
5.0959e-06
5.13976e-06
5.13959e-06
5.13938e-06
5.13915e-06
5.1389e-06
5.13865e-06
5.13839e-06
5.13813e-06
5.13788e-06
5.13764e-06
5.13741e-06
5.13719e-06
5.09301e-06
0
0
0
0
0
0
5.09299e-06
5.14017e-06
5.13994e-06
5.13966e-06
5.13936e-06
5.13903e-06
5.1387e-06
5.13836e-06
5.13803e-06
5.13771e-06
5.13741e-06
5.13712e-06
5.13685e-06
5.08926e-06
0
0
0
0
0
0
3.7533e-06
3.78883e-06
3.78859e-06
3.7883e-06
3.78798e-06
3.78764e-06
3.78729e-06
3.78694e-06
3.78659e-06
3.78624e-06
3.78592e-06
3.78561e-06
3.78532e-06
3.74936e-06
0
0
0
0
0
0
3.67361e-06
3.70904e-06
3.70878e-06
3.70848e-06
3.70815e-06
3.7078e-06
3.70744e-06
3.70707e-06
3.70671e-06
3.70635e-06
3.70602e-06
3.70571e-06
3.70543e-06
3.66956e-06
0
0
0
0
0
0
2.64946e-06
2.67515e-06
2.67489e-06
2.67459e-06
2.67427e-06
2.67393e-06
2.67358e-06
2.67321e-06
2.67286e-06
2.6725e-06
2.67217e-06
2.67185e-06
2.67156e-06
2.64544e-06
0
0
0
0
0
0
2.55045e-06
2.57419e-06
2.5739e-06
2.57358e-06
2.57323e-06
2.57285e-06
2.57247e-06
2.57208e-06
2.5717e-06
2.57132e-06
2.57096e-06
2.57062e-06
2.57032e-06
2.5461e-06
0
0
0
0
0
0
2.74342e-06
2.76892e-06
2.76856e-06
2.76816e-06
2.76773e-06
2.76726e-06
2.76678e-06
2.76629e-06
2.76581e-06
2.76534e-06
2.76489e-06
2.76446e-06
2.76407e-06
2.73799e-06
0
0
0
0
0
0
2.66521e-06
2.68962e-06
2.68926e-06
2.68885e-06
2.6884e-06
2.68792e-06
2.68743e-06
2.68692e-06
2.68643e-06
2.68593e-06
2.68547e-06
2.68503e-06
2.68463e-06
2.65961e-06
0
0
0
0
0
0
3.95939e-06
3.99526e-06
3.99486e-06
3.99439e-06
3.99389e-06
3.99335e-06
3.9928e-06
3.99224e-06
3.99169e-06
3.99115e-06
3.99064e-06
3.99015e-06
3.98972e-06
3.95317e-06
0
0
0
0
0
0
4.05162e-06
4.08757e-06
4.08717e-06
4.08671e-06
4.08622e-06
4.08569e-06
4.08514e-06
4.08458e-06
4.08404e-06
4.0835e-06
4.08299e-06
4.0825e-06
4.08206e-06
4.04544e-06
0
0
0
0
0
0
6.1885e-06
6.24298e-06
6.24262e-06
6.24219e-06
6.24174e-06
6.24125e-06
6.24076e-06
6.24026e-06
6.23979e-06
6.23932e-06
6.23888e-06
6.23847e-06
6.2381e-06
6.18302e-06
0
0
0
0
0
0
6.53367e-06
6.58953e-06
6.58921e-06
6.58881e-06
6.5884e-06
6.58794e-06
6.58749e-06
6.58702e-06
6.58657e-06
6.58613e-06
6.58572e-06
6.58532e-06
6.58494e-06
6.52849e-06
0
0
0
0
0
0
9.52833e-06
9.60701e-06
9.60701e-06
9.60696e-06
9.60692e-06
9.60687e-06
9.60684e-06
9.60681e-06
9.60682e-06
9.60683e-06
9.60686e-06
9.60688e-06
9.60686e-06
9.52816e-06
0
0
0
0
0
0
1.03579e-05
1.0441e-05
1.04412e-05
1.04414e-05
1.04416e-05
1.04417e-05
1.0442e-05
1.04422e-05
1.04424e-05
1.04426e-05
1.04428e-05
1.0443e-05
1.04432e-05
1.03602e-05
0
0
0
0
0
0
0
0
0
0
0
0
0
0
0
0
0
0
0
0
0
0
0
0
0
3.77014e-08
4.49022e-08
4.23622e-08
4.2338e-08
4.2353e-08
4.23695e-08
4.23871e-08
4.24055e-08
4.24384e-08
4.24428e-08
4.24611e-08
4.24792e-08
4.24965e-08
4.25502e-08
4.5129e-08
3.79281e-08
0
0
6.91548e-08
1.42853e-06
1.90748e-06
1.90871e-06
1.90925e-06
1.9099e-06
1.91067e-06
1.91151e-06
1.91242e-06
1.91337e-06
1.91433e-06
1.9153e-06
1.91626e-06
1.91719e-06
1.91808e-06
1.91894e-06
1.91971e-06
1.91955e-06
1.43891e-06
7.21359e-08
0
3.53992e-09
3.62168e-08
3.632e-08
3.63829e-08
3.64566e-08
3.65413e-08
3.66335e-08
3.67311e-08
3.68314e-08
3.69322e-08
3.70316e-08
3.71275e-08
3.72189e-08
3.73034e-08
3.73811e-08
3.74477e-08
3.74491e-08
4.34733e-09
0
0
0
0
0
0
0
0
0
0
0
0
0
0
0
0
0
0
0
0
0
0
0
0
0
0
0
0
0
0
0
0
0
0
0
0
0
0
0
0
0
0
0
0
4.45245e-06
4.49228e-06
4.49216e-06
4.49199e-06
4.49182e-06
4.49162e-06
4.49141e-06
4.49119e-06
4.49098e-06
4.49076e-06
4.49054e-06
4.49033e-06
4.49011e-06
4.44999e-06
0
0
0
0
0
0
4.65267e-06
4.69815e-06
4.69797e-06
4.69773e-06
4.69749e-06
4.69721e-06
4.69693e-06
4.69664e-06
4.69636e-06
4.69607e-06
4.6958e-06
4.69553e-06
4.69528e-06
4.64944e-06
0
0
0
0
0
0
3.53252e-06
3.56703e-06
3.56682e-06
3.56658e-06
3.56631e-06
3.56601e-06
3.56571e-06
3.5654e-06
3.56509e-06
3.56478e-06
3.56448e-06
3.56419e-06
3.56393e-06
3.52904e-06
0
0
0
0
0
0
3.58804e-06
3.62396e-06
3.62374e-06
3.62347e-06
3.62318e-06
3.62287e-06
3.62255e-06
3.62221e-06
3.62189e-06
3.62157e-06
3.62126e-06
3.62097e-06
3.62071e-06
3.58439e-06
0
0
0
0
0
0
2.64895e-06
2.67538e-06
2.67515e-06
2.67489e-06
2.6746e-06
2.67429e-06
2.67397e-06
2.67364e-06
2.67331e-06
2.67299e-06
2.67267e-06
2.67238e-06
2.67211e-06
2.64527e-06
0
0
0
0
0
0
2.59481e-06
2.61961e-06
2.61934e-06
2.61904e-06
2.61871e-06
2.61836e-06
2.618e-06
2.61763e-06
2.61727e-06
2.6169e-06
2.61655e-06
2.61621e-06
2.61591e-06
2.59065e-06
0
0
0
0
0
0
2.80945e-06
2.83641e-06
2.8361e-06
2.83573e-06
2.83534e-06
2.83491e-06
2.83447e-06
2.83402e-06
2.83357e-06
2.83312e-06
2.83268e-06
2.83227e-06
2.83189e-06
2.80438e-06
0
0
0
0
0
0
2.76075e-06
2.78677e-06
2.78645e-06
2.78609e-06
2.78569e-06
2.78526e-06
2.78482e-06
2.78435e-06
2.78389e-06
2.78342e-06
2.78298e-06
2.78254e-06
2.78215e-06
2.75555e-06
0
0
0
0
0
0
4.05784e-06
4.09674e-06
4.09637e-06
4.09593e-06
4.09547e-06
4.09496e-06
4.09444e-06
4.09389e-06
4.09336e-06
4.09282e-06
4.09232e-06
4.09182e-06
4.09138e-06
4.05182e-06
0
0
0
0
0
0
4.09942e-06
4.13667e-06
4.13631e-06
4.13589e-06
4.13545e-06
4.13495e-06
4.13444e-06
4.13391e-06
4.13338e-06
4.13284e-06
4.13233e-06
4.13183e-06
4.13136e-06
4.09344e-06
0
0
0
0
0
0
6.08836e-06
6.14516e-06
6.14486e-06
6.14448e-06
6.14409e-06
6.14365e-06
6.14322e-06
6.14276e-06
6.14232e-06
6.14187e-06
6.14144e-06
6.14102e-06
6.14063e-06
6.08325e-06
0
0
0
0
0
0
6.18599e-06
6.24101e-06
6.24076e-06
6.24044e-06
6.24011e-06
6.23972e-06
6.23934e-06
6.23893e-06
6.23852e-06
6.2381e-06
6.23768e-06
6.23726e-06
6.23685e-06
6.18125e-06
0
0
0
0
0
0
8.5409e-06
8.61916e-06
8.61924e-06
8.61925e-06
8.6193e-06
8.61932e-06
8.61938e-06
8.61942e-06
8.6195e-06
8.61955e-06
8.61963e-06
8.61966e-06
8.61967e-06
8.54142e-06
0
0
0
0
0
0
8.87619e-06
8.95374e-06
8.95404e-06
8.95429e-06
8.95458e-06
8.95485e-06
8.95516e-06
8.95542e-06
8.95575e-06
8.956e-06
8.95625e-06
8.95642e-06
8.95651e-06
8.87918e-06
0
0
0
0
0
0
0
0
0
0
0
0
0
0
0
0
0
0
0
0
0
0
0
0
0
1.76643e-08
2.3283e-08
2.19536e-08
2.19619e-08
2.19745e-08
2.19886e-08
2.20037e-08
2.20197e-08
2.20413e-08
2.20529e-08
2.20696e-08
2.20864e-08
2.21029e-08
2.21213e-08
2.34865e-08
1.78685e-08
0
0
0
8.82721e-07
1.23665e-06
1.23817e-06
1.23859e-06
1.23909e-06
1.23968e-06
1.24034e-06
1.24106e-06
1.24182e-06
1.24261e-06
1.24341e-06
1.24421e-06
1.24502e-06
1.2458e-06
1.24657e-06
1.24727e-06
1.24669e-06
8.91321e-07
0
0
3.59845e-08
7.92779e-08
7.90514e-08
7.91028e-08
7.91629e-08
7.92324e-08
7.93087e-08
7.939e-08
7.94745e-08
7.95602e-08
7.96459e-08
7.97295e-08
7.98103e-08
7.98857e-08
7.99559e-08
8.00162e-08
8.03345e-08
3.66872e-08
0
0
0
1.17958e-09
5.17719e-09
4.84142e-09
4.84705e-09
4.85362e-09
4.86079e-09
4.86844e-09
4.87637e-09
4.88439e-09
4.89241e-09
4.90022e-09
4.90778e-09
4.91485e-09
4.92152e-09
5.27376e-09
1.27491e-09
0
0
0
0
0
0
0
0
0
0
0
0
0
0
0
0
0
0
0
0
0
0
0
0
0
5.55301e-06
5.60486e-06
5.60476e-06
5.60463e-06
5.60449e-06
5.60432e-06
5.60415e-06
5.60395e-06
5.60376e-06
5.60356e-06
5.60335e-06
5.60314e-06
5.60292e-06
5.5508e-06
0
0
0
0
0
0
5.5899e-06
5.64589e-06
5.64575e-06
5.64556e-06
5.64537e-06
5.64513e-06
5.6449e-06
5.64465e-06
5.64441e-06
5.64416e-06
5.64391e-06
5.64366e-06
5.64341e-06
5.58709e-06
0
0
0
0
0
0
4.18621e-06
4.22901e-06
4.22884e-06
4.22862e-06
4.22839e-06
4.22812e-06
4.22785e-06
4.22756e-06
4.22727e-06
4.22698e-06
4.2267e-06
4.22642e-06
4.22617e-06
4.18302e-06
0
0
0
0
0
0
4.16173e-06
4.2047e-06
4.20451e-06
4.20428e-06
4.20403e-06
4.20376e-06
4.20348e-06
4.20318e-06
4.20289e-06
4.2026e-06
4.20232e-06
4.20206e-06
4.20183e-06
4.15853e-06
0
0
0
0
0
0
3.15713e-06
3.1897e-06
3.18948e-06
3.18922e-06
3.18895e-06
3.18864e-06
3.18833e-06
3.18801e-06
3.18769e-06
3.18736e-06
3.18705e-06
3.18675e-06
3.18648e-06
3.15351e-06
0
0
0
0
0
0
3.09105e-06
3.12144e-06
3.12119e-06
3.12089e-06
3.12058e-06
3.12024e-06
3.1199e-06
3.11954e-06
3.11918e-06
3.11882e-06
3.11847e-06
3.11813e-06
3.11782e-06
3.08696e-06
0
0
0
0
0
0
3.32455e-06
3.35721e-06
3.35692e-06
3.35659e-06
3.35623e-06
3.35584e-06
3.35544e-06
3.35501e-06
3.35459e-06
3.35417e-06
3.35376e-06
3.35336e-06
3.35301e-06
3.31983e-06
0
0
0
0
0
0
3.30194e-06
3.33414e-06
3.33387e-06
3.33354e-06
3.33319e-06
3.3328e-06
3.3324e-06
3.33197e-06
3.33155e-06
3.33111e-06
3.33068e-06
3.33027e-06
3.32989e-06
3.29715e-06
0
0
0
0
0
0
4.64925e-06
4.69503e-06
4.69471e-06
4.69433e-06
4.69393e-06
4.69348e-06
4.69303e-06
4.69254e-06
4.69207e-06
4.69158e-06
4.69112e-06
4.69067e-06
4.69027e-06
4.64392e-06
0
0
0
0
0
0
4.8074e-06
4.85363e-06
4.85332e-06
4.85296e-06
4.85257e-06
4.85212e-06
4.85167e-06
4.85118e-06
4.8507e-06
4.85019e-06
4.8497e-06
4.84921e-06
4.84877e-06
4.80192e-06
0
0
0
0
0
0
6.90312e-06
6.96978e-06
6.9695e-06
6.96916e-06
6.9688e-06
6.96838e-06
6.96797e-06
6.96751e-06
6.96708e-06
6.96662e-06
6.96618e-06
6.96572e-06
6.9653e-06
6.89806e-06
0
0
0
0
0
0
7.27274e-06
7.34084e-06
7.34063e-06
7.34034e-06
7.34005e-06
7.33969e-06
7.33933e-06
7.33891e-06
7.33851e-06
7.33806e-06
7.33761e-06
7.33713e-06
7.33665e-06
7.26792e-06
0
0
0
0
0
0
1.00908e-05
1.01868e-05
1.0187e-05
1.0187e-05
1.01871e-05
1.01872e-05
1.01873e-05
1.01873e-05
1.01874e-05
1.01875e-05
1.01876e-05
1.01876e-05
1.01876e-05
1.00915e-05
0
0
0
0
0
0
1.0749e-05
1.08493e-05
1.08495e-05
1.08497e-05
1.08501e-05
1.08503e-05
1.08507e-05
1.0851e-05
1.08513e-05
1.08515e-05
1.08518e-05
1.08519e-05
1.0852e-05
1.0752e-05
0
0
0
0
0
0
0
0
0
0
0
0
0
0
0
0
0
0
0
0
0
0
0
0
0
3.011e-08
3.66775e-08
3.45798e-08
3.45757e-08
3.45869e-08
3.45996e-08
3.46134e-08
3.46282e-08
3.46526e-08
3.46599e-08
3.46764e-08
3.46934e-08
3.47105e-08
3.47404e-08
3.68741e-08
3.03084e-08
0
0
3.0182e-08
1.09605e-06
1.48665e-06
1.48732e-06
1.48767e-06
1.4881e-06
1.48862e-06
1.4892e-06
1.48984e-06
1.49053e-06
1.49126e-06
1.49201e-06
1.49278e-06
1.49357e-06
1.49435e-06
1.49512e-06
1.49584e-06
1.49609e-06
1.1042e-06
3.24642e-08
0
0
7.23204e-09
7.31603e-09
7.33893e-09
7.36592e-09
7.39728e-09
7.43203e-09
7.46928e-09
7.50853e-09
7.54862e-09
7.58938e-09
7.62956e-09
7.66915e-09
7.70646e-09
7.74168e-09
7.77164e-09
7.73044e-09
0
0
0
0
0
0
0
0
0
0
0
0
0
0
0
0
0
0
0
0
0
0
0
0
0
0
0
0
0
0
0
0
0
0
0
0
0
0
0
0
0
0
0
0
0
5.11382e-06
5.16453e-06
5.16446e-06
5.16436e-06
5.16426e-06
5.16412e-06
5.164e-06
5.16384e-06
5.16369e-06
5.16351e-06
5.16334e-06
5.16315e-06
5.16296e-06
5.11202e-06
0
0
0
0
0
0
5.24178e-06
5.29684e-06
5.29674e-06
5.2966e-06
5.29645e-06
5.29626e-06
5.29608e-06
5.29587e-06
5.29567e-06
5.29546e-06
5.29525e-06
5.29502e-06
5.2948e-06
5.23946e-06
0
0
0
0
0
0
4.14643e-06
4.19028e-06
4.19013e-06
4.18994e-06
4.18975e-06
4.18952e-06
4.18928e-06
4.18902e-06
4.18877e-06
4.1885e-06
4.18824e-06
4.18799e-06
4.18776e-06
4.14362e-06
0
0
0
0
0
0
4.20229e-06
4.24725e-06
4.24709e-06
4.2469e-06
4.24669e-06
4.24646e-06
4.24622e-06
4.24595e-06
4.2457e-06
4.24544e-06
4.24519e-06
4.24495e-06
4.24474e-06
4.1995e-06
0
0
0
0
0
0
3.28362e-06
3.31841e-06
3.31821e-06
3.31797e-06
3.31771e-06
3.31743e-06
3.31714e-06
3.31683e-06
3.31653e-06
3.31622e-06
3.31592e-06
3.31563e-06
3.31538e-06
3.28021e-06
0
0
0
0
0
0
3.23866e-06
3.27136e-06
3.27113e-06
3.27087e-06
3.2706e-06
3.27029e-06
3.26998e-06
3.26965e-06
3.26933e-06
3.26899e-06
3.26868e-06
3.26836e-06
3.26807e-06
3.23493e-06
0
0
0
0
0
0
3.49239e-06
3.52807e-06
3.52783e-06
3.52755e-06
3.52725e-06
3.52692e-06
3.52658e-06
3.52622e-06
3.52586e-06
3.52549e-06
3.52514e-06
3.5248e-06
3.5245e-06
3.48839e-06
0
0
0
0
0
0
3.49836e-06
3.53391e-06
3.53369e-06
3.53343e-06
3.53314e-06
3.53282e-06
3.53249e-06
3.53213e-06
3.53177e-06
3.53139e-06
3.53103e-06
3.53067e-06
3.53035e-06
3.49436e-06
0
0
0
0
0
0
4.81548e-06
4.86511e-06
4.86485e-06
4.86453e-06
4.86419e-06
4.8638e-06
4.86342e-06
4.86299e-06
4.86257e-06
4.86213e-06
4.86172e-06
4.86131e-06
4.86096e-06
4.81084e-06
0
0
0
0
0
0
4.97333e-06
5.02429e-06
5.02404e-06
5.02374e-06
5.02341e-06
5.02303e-06
5.02264e-06
5.02221e-06
5.02178e-06
5.02131e-06
5.02086e-06
5.0204e-06
5.01999e-06
4.96848e-06
0
0
0
0
0
0
6.83641e-06
6.90734e-06
6.90711e-06
6.9068e-06
6.9065e-06
6.90612e-06
6.90576e-06
6.90534e-06
6.90494e-06
6.9045e-06
6.90409e-06
6.90366e-06
6.90326e-06
6.83182e-06
0
0
0
0
0
0
7.06656e-06
7.13839e-06
7.13823e-06
7.138e-06
7.13776e-06
7.13746e-06
7.13716e-06
7.13679e-06
7.13643e-06
7.13601e-06
7.1356e-06
7.13514e-06
7.13471e-06
7.06233e-06
0
0
0
0
0
0
9.10565e-06
9.19944e-06
9.19956e-06
9.1996e-06
9.19969e-06
9.19973e-06
9.19982e-06
9.19987e-06
9.19996e-06
9.19998e-06
9.20003e-06
9.20002e-06
9.19998e-06
9.10618e-06
0
0
0
0
0
0
9.51251e-06
9.60886e-06
9.60921e-06
9.60945e-06
9.60973e-06
9.60999e-06
9.61028e-06
9.61049e-06
9.61079e-06
9.61098e-06
9.61116e-06
9.61125e-06
9.61124e-06
9.51502e-06
0
0
0
0
0
0
0
0
0
0
0
0
0
0
0
0
0
0
0
0
0
0
0
0
0
1.58752e-08
2.08832e-08
1.96554e-08
1.96542e-08
1.96627e-08
1.96724e-08
1.96831e-08
1.96947e-08
1.97107e-08
1.97202e-08
1.97338e-08
1.9748e-08
1.97624e-08
1.97837e-08
2.10418e-08
1.60355e-08
0
0
0
7.51921e-07
1.07573e-06
1.0776e-06
1.07787e-06
1.07819e-06
1.07859e-06
1.07903e-06
1.07953e-06
1.08008e-06
1.08065e-06
1.08126e-06
1.0819e-06
1.08256e-06
1.08322e-06
1.08387e-06
1.08447e-06
1.08335e-06
7.58439e-07
0
0
6.62249e-09
2.74456e-08
2.72982e-08
2.73152e-08
2.7335e-08
2.73582e-08
2.73842e-08
2.74123e-08
2.74423e-08
2.74733e-08
2.75054e-08
2.75372e-08
2.75688e-08
2.75983e-08
2.76259e-08
2.7648e-08
2.78267e-08
6.8319e-09
0
0
0
0
1.95147e-10
1.79157e-10
1.81502e-10
1.84209e-10
1.87295e-10
1.90563e-10
1.94137e-10
1.9775e-10
2.01579e-10
2.05314e-10
2.09142e-10
2.12668e-10
2.16074e-10
2.40954e-10
0
0
0
0
0
0
0
0
0
0
0
0
0
0
0
0
0
0
0
0
0
0
0
0
0
0
5.65279e-06
5.7107e-06
5.71066e-06
5.71058e-06
5.7105e-06
5.71039e-06
5.71029e-06
5.71015e-06
5.71003e-06
5.70987e-06
5.70972e-06
5.70955e-06
5.70939e-06
5.65129e-06
0
0
0
0
0
0
5.68699e-06
5.7485e-06
5.74843e-06
5.74831e-06
5.74819e-06
5.74804e-06
5.74789e-06
5.74771e-06
5.74754e-06
5.74735e-06
5.74716e-06
5.74696e-06
5.74676e-06
5.685e-06
0
0
0
0
0
0
4.47699e-06
4.52543e-06
4.52531e-06
4.52515e-06
4.52498e-06
4.52478e-06
4.52458e-06
4.52435e-06
4.52412e-06
4.52388e-06
4.52364e-06
4.52341e-06
4.5232e-06
4.4745e-06
0
0
0
0
0
0
4.50374e-06
4.5537e-06
4.55356e-06
4.55339e-06
4.55321e-06
4.553e-06
4.55279e-06
4.55256e-06
4.55233e-06
4.55209e-06
4.55187e-06
4.55165e-06
4.55147e-06
4.50128e-06
0
0
0
0
0
0
3.60538e-06
3.64529e-06
3.64511e-06
3.6449e-06
3.64467e-06
3.64442e-06
3.64417e-06
3.64389e-06
3.64362e-06
3.64334e-06
3.64308e-06
3.64282e-06
3.64259e-06
3.60234e-06
0
0
0
0
0
0
3.55531e-06
3.59256e-06
3.59238e-06
3.59216e-06
3.59194e-06
3.59169e-06
3.59144e-06
3.59117e-06
3.59091e-06
3.59063e-06
3.59037e-06
3.59011e-06
3.58988e-06
3.55227e-06
0
0
0
0
0
0
3.81612e-06
3.85626e-06
3.85608e-06
3.85586e-06
3.85563e-06
3.85536e-06
3.8551e-06
3.8548e-06
3.85452e-06
3.85422e-06
3.85394e-06
3.85366e-06
3.85344e-06
3.81296e-06
0
0
0
0
0
0
3.85116e-06
3.89162e-06
3.89146e-06
3.89126e-06
3.89105e-06
3.8908e-06
3.89055e-06
3.89026e-06
3.88999e-06
3.88968e-06
3.88941e-06
3.88913e-06
3.8889e-06
3.84813e-06
0
0
0
0
0
0
5.14544e-06
5.20146e-06
5.20126e-06
5.201e-06
5.20073e-06
5.20041e-06
5.20009e-06
5.19972e-06
5.19936e-06
5.19898e-06
5.19862e-06
5.19825e-06
5.19794e-06
5.1415e-06
0
0
0
0
0
0
5.35687e-06
5.41513e-06
5.41494e-06
5.41469e-06
5.41443e-06
5.41412e-06
5.41379e-06
5.41342e-06
5.41304e-06
5.41263e-06
5.41223e-06
5.41182e-06
5.41145e-06
5.35271e-06
0
0
0
0
0
0
7.25453e-06
7.33293e-06
7.33274e-06
7.33249e-06
7.33223e-06
7.33191e-06
7.3316e-06
7.33123e-06
7.33088e-06
7.33047e-06
7.3301e-06
7.32969e-06
7.32933e-06
7.25049e-06
0
0
0
0
0
0
7.6315e-06
7.71305e-06
7.71293e-06
7.71274e-06
7.71256e-06
7.7123e-06
7.71206e-06
7.71174e-06
7.71143e-06
7.71105e-06
7.71069e-06
7.71028e-06
7.70991e-06
7.62791e-06
0
0
0
0
0
0
9.88428e-06
9.99191e-06
9.99201e-06
9.99204e-06
9.99211e-06
9.99212e-06
9.99219e-06
9.9922e-06
9.99226e-06
9.99225e-06
9.99226e-06
9.9922e-06
9.99214e-06
9.88447e-06
0
0
0
0
0
0
1.05201e-05
1.06333e-05
1.06335e-05
1.06337e-05
1.0634e-05
1.06342e-05
1.06345e-05
1.06347e-05
1.06349e-05
1.06351e-05
1.06352e-05
1.06353e-05
1.06354e-05
1.05224e-05
0
0
0
0
0
0
0
0
0
0
0
0
0
0
0
0
0
0
0
0
0
0
0
0
0
2.6224e-08
3.21343e-08
3.02641e-08
3.02651e-08
3.02721e-08
3.02802e-08
3.02891e-08
3.02991e-08
3.03133e-08
3.03215e-08
3.03337e-08
3.03466e-08
3.03596e-08
3.03746e-08
3.22713e-08
2.63635e-08
0
0
2.57309e-08
9.42454e-07
1.29069e-06
1.29106e-06
1.29127e-06
1.29154e-06
1.29186e-06
1.29223e-06
1.29265e-06
1.29312e-06
1.29362e-06
1.29416e-06
1.29472e-06
1.29531e-06
1.29589e-06
1.29647e-06
1.29699e-06
1.29725e-06
9.48106e-07
2.72833e-08
0
0
0
0
0
0
0
0
0
0
0
0
0
0
0
0
0
0
0
0
0
0
0
0
0
0
0
0
0
0
0
0
0
0
0
0
0
0
0
0
0
0
0
0
0
0
0
0
0
0
0
0
0
0
0
0
0
0
0
0
0
0
0
5.49694e-06
5.55612e-06
5.55609e-06
5.55602e-06
5.55596e-06
5.55587e-06
5.55579e-06
5.55567e-06
5.55556e-06
5.55543e-06
5.55531e-06
5.55517e-06
5.55507e-06
5.49574e-06
0
0
0
0
0
0
5.58582e-06
5.64836e-06
5.64828e-06
5.64816e-06
5.64805e-06
5.64789e-06
5.64775e-06
5.64757e-06
5.6474e-06
5.64721e-06
5.64704e-06
5.64684e-06
5.64667e-06
5.58391e-06
0
0
0
0
0
0
4.56063e-06
4.6117e-06
4.6116e-06
4.61147e-06
4.61133e-06
4.61116e-06
4.61099e-06
4.6108e-06
4.61061e-06
4.61039e-06
4.6102e-06
4.61e-06
4.60982e-06
4.55854e-06
0
0
0
0
0
0
4.62954e-06
4.68216e-06
4.68205e-06
4.6819e-06
4.68175e-06
4.68157e-06
4.68139e-06
4.68118e-06
4.68098e-06
4.68077e-06
4.68058e-06
4.68039e-06
4.68023e-06
4.62741e-06
0
0
0
0
0
0
3.78888e-06
3.8327e-06
3.83255e-06
3.83237e-06
3.83218e-06
3.83196e-06
3.83175e-06
3.83151e-06
3.83129e-06
3.83105e-06
3.83084e-06
3.83062e-06
3.83044e-06
3.78634e-06
0
0
0
0
0
0
3.75213e-06
3.7931e-06
3.79296e-06
3.7928e-06
3.79264e-06
3.79244e-06
3.79226e-06
3.79205e-06
3.79185e-06
3.79163e-06
3.79144e-06
3.79125e-06
3.79109e-06
3.74988e-06
0
0
0
0
0
0
4.02731e-06
4.07189e-06
4.07176e-06
4.07158e-06
4.07142e-06
4.0712e-06
4.071e-06
4.07076e-06
4.07054e-06
4.07028e-06
4.07007e-06
4.06984e-06
4.06967e-06
4.02484e-06
0
0
0
0
0
0
4.10066e-06
4.14621e-06
4.14609e-06
4.14594e-06
4.14578e-06
4.14558e-06
4.14538e-06
4.14515e-06
4.14493e-06
4.14468e-06
4.14445e-06
4.14423e-06
4.14405e-06
4.09825e-06
0
0
0
0
0
0
5.34327e-06
5.40357e-06
5.40342e-06
5.40321e-06
5.40301e-06
5.40274e-06
5.40248e-06
5.40217e-06
5.40188e-06
5.40154e-06
5.40124e-06
5.40091e-06
5.40064e-06
5.33999e-06
0
0
0
0
0
0
5.57875e-06
5.6418e-06
5.64166e-06
5.64147e-06
5.64127e-06
5.64101e-06
5.64076e-06
5.64044e-06
5.64014e-06
5.63979e-06
5.63947e-06
5.63912e-06
5.63881e-06
5.57539e-06
0
0
0
0
0
0
7.28476e-06
7.36862e-06
7.3685e-06
7.36831e-06
7.36813e-06
7.36788e-06
7.36764e-06
7.36734e-06
7.36706e-06
7.36671e-06
7.3664e-06
7.36605e-06
7.36574e-06
7.28152e-06
0
0
0
0
0
0
7.61076e-06
7.69828e-06
7.69821e-06
7.69809e-06
7.69797e-06
7.69778e-06
7.69761e-06
7.69736e-06
7.69713e-06
7.69684e-06
7.69656e-06
7.69625e-06
7.69598e-06
7.60816e-06
0
0
0
0
0
0
9.43651e-06
9.5467e-06
9.54678e-06
9.54679e-06
9.54684e-06
9.54683e-06
9.54687e-06
9.54684e-06
9.54686e-06
9.5468e-06
9.54677e-06
9.54667e-06
9.54658e-06
9.43633e-06
0
0
0
0
0
0
9.91731e-06
1.00324e-05
1.00327e-05
1.00329e-05
1.00331e-05
1.00333e-05
1.00335e-05
1.00336e-05
1.00339e-05
1.0034e-05
1.00342e-05
1.00343e-05
1.00343e-05
9.91939e-06
0
0
0
0
0
0
0
0
0
0
0
0
0
0
0
0
0
0
0
0
0
0
0
0
0
1.69547e-08
2.19673e-08
2.0574e-08
2.05664e-08
2.05718e-08
2.05782e-08
2.05854e-08
2.05934e-08
2.06058e-08
2.06115e-08
2.06214e-08
2.06317e-08
2.06418e-08
2.06604e-08
2.20714e-08
1.7063e-08
0
0
0
7.23436e-07
1.03513e-06
1.03688e-06
1.03705e-06
1.03725e-06
1.03749e-06
1.03778e-06
1.03811e-06
1.03847e-06
1.03887e-06
1.03929e-06
1.03973e-06
1.04018e-06
1.04063e-06
1.04106e-06
1.04144e-06
1.04012e-06
7.27656e-07
0
0
0
8.81961e-10
8.35279e-10
8.37075e-10
8.39102e-10
8.41809e-10
8.44996e-10
8.48677e-10
8.52899e-10
8.57455e-10
8.625e-10
8.67527e-10
8.72643e-10
8.76994e-10
8.80811e-10
8.83053e-10
9.32738e-10
0
0
0
0
0
0
0
0
0
0
0
0
0
0
0
0
0
0
0
0
0
0
0
0
0
0
0
0
0
0
0
0
0
0
0
0
0
0
0
0
0
0
0
0
0
5.72245e-06
5.78597e-06
5.78595e-06
5.78589e-06
5.78584e-06
5.78576e-06
5.78569e-06
5.78559e-06
5.7855e-06
5.78539e-06
5.78531e-06
5.7852e-06
5.78515e-06
5.72153e-06
0
0
0
0
0
0
5.78462e-06
5.8511e-06
5.85103e-06
5.85091e-06
5.85079e-06
5.85064e-06
5.8505e-06
5.85033e-06
5.85017e-06
5.84998e-06
5.84982e-06
5.84964e-06
5.8495e-06
5.78283e-06
0
0
0
0
0
0
4.75816e-06
4.81271e-06
4.81262e-06
4.81251e-06
4.81239e-06
4.81224e-06
4.81209e-06
4.81191e-06
4.81174e-06
4.81155e-06
4.81138e-06
4.81121e-06
4.81107e-06
4.75634e-06
0
0
0
0
0
0
4.82374e-06
4.88045e-06
4.88034e-06
4.88021e-06
4.88007e-06
4.8799e-06
4.87973e-06
4.87954e-06
4.87936e-06
4.87916e-06
4.87898e-06