/*--------------------------------*- C++ -*----------------------------------*\
| =========                 |                                                 |
| \\      /  F ield         | OpenFOAM: The Open Source CFD Toolbox           |
|  \\    /   O peration     | Version:  2212                                  |
|   \\  /    A nd           | Website:  www.openfoam.com                      |
|    \\/     M anipulation  |                                                 |
\*---------------------------------------------------------------------------*/
FoamFile
{
    version     2.0;
    format      ascii;
    arch        "LSB;label=32;scalar=64";
    class       volScalarField;
    location    "0.004";
    object      T;
}
// * * * * * * * * * * * * * * * * * * * * * * * * * * * * * * * * * * * * * //

dimensions      [0 0 0 1 0 0 0];

internalField   nonuniform List<scalar> 
31661
(
273.189
268.718
268.706
268.713
268.843
268.831
268.838
268.969
268.956
268.964
273.309
272.78
274.136
274.424
273.331
272.996
273.399
273.053
273.485
272.94
274.338
274.3
274.741
272.742
269.741
274.377
274.77
274.679
272.805
272.86
272.744
274.555
274.55
274.289
270.995
272.808
274.494
272.841
274.634
274.582
274.236
268.353
273.325
274.682
274.715
273.356
274.7
274.701
274.514
274.612
274.127
274.614
273.632
274.689
274.64
272.76
273.847
274.032
264.292
273.486
273.249
273.221
274.653
267.62
274.688
272.782
273.858
264.377
264.461
264.545
272.388
264.66
264.748
264.833
264.919
265.006
265.094
265.184
265.274
265.365
265.457
265.548
265.64
265.731
265.737
265.647
265.556
265.464
265.373
265.283
265.193
265.104
265.017
264.931
264.847
264.764
264.685
264.61
264.536
264.46
264.383
264.308
264.238
264.186
264.171
264.11
264.1
264.034
264.027
263.959
263.954
263.883
263.88
263.807
263.804
263.73
263.727
263.65
263.648
263.568
263.566
263.482
263.48
263.392
263.39
263.297
263.295
263.197
263.195
263.09
263.089
262.978
262.976
262.859
262.857
262.734
262.733
262.604
262.602
262.468
262.467
262.328
262.327
262.185
262.184
262.039
262.038
261.893
261.891
261.746
261.744
261.6
261.598
261.456
261.454
261.314
261.313
261.176
261.175
261.041
261.04
260.911
260.91
260.784
260.783
260.662
260.661
260.543
260.542
260.428
260.428
260.429
260.544
260.663
260.785
260.912
261.042
261.177
261.315
261.456
261.6
261.746
261.893
262.039
262.185
262.328
262.468
262.604
262.734
262.859
262.978
263.09
263.197
263.298
263.393
263.484
263.57
263.652
263.732
263.81
263.887
263.964
264.041
264.12
264.202
264.285
264.372
264.461
264.551
264.641
264.731
264.819
264.907
264.995
265.085
265.175
265.266
265.827
265.821
265.358
265.449
265.541
265.633
265.725
265.912
265.918
265.924
265.834
265.744
265.653
265.563
265.472
265.381
265.291
265.202
265.114
265.027
264.941
264.857
264.774
264.693
264.614
264.536
264.46
264.384
264.31
264.237
264.165
264.094
264.022
263.949
263.876
263.801
263.724
263.645
263.564
263.478
263.388
263.293
263.193
263.087
262.974
262.856
262.731
262.601
262.465
262.325
262.182
262.036
261.89
261.743
261.597
261.453
261.311
261.173
261.039
260.908
260.782
260.66
260.541
260.427
260.316
260.316
260.317
260.318
260.318
260.429
260.544
260.663
260.785
260.912
261.042
261.177
261.315
261.456
261.6
261.746
261.893
262.039
262.185
262.328
262.468
262.603
262.734
262.858
262.977
263.09
263.197
263.298
263.393
263.484
263.57
263.653
263.734
263.812
263.89
263.967
264.045
264.124
264.204
264.286
264.37
264.457
264.544
264.631
264.719
264.807
264.896
264.985
265.075
265.167
265.258
265.35
265.442
265.816
265.535
265.627
265.719
266.013
266.007
265.908
266.002
266.103
266.11
266.02
265.93
265.841
265.75
265.66
265.569
265.479
265.388
265.298
265.209
265.121
265.034
264.948
264.864
264.78
264.698
264.617
264.538
264.461
264.385
264.31
264.236
264.163
264.09
264.018
263.945
263.872
263.798
263.721
263.643
263.561
263.476
263.386
263.291
263.191
263.085
262.972
262.854
262.729
262.598
262.463
262.323
262.18
262.034
261.888
261.741
261.595
261.451
261.31
261.172
261.037
260.907
260.781
260.659
260.54
260.426
260.315
260.208
260.208
260.209
260.209
260.21
260.21
260.21
260.318
260.429
260.544
260.662
260.785
260.911
261.042
261.176
261.314
261.456
261.6
261.745
261.892
262.039
262.184
262.327
262.467
262.602
262.733
262.858
262.977
263.09
263.196
263.297
263.393
263.484
263.57
263.654
263.734
263.813
263.891
263.968
264.046
264.124
264.204
264.284
264.367
264.451
264.536
264.622
264.71
264.798
264.887
264.977
265.068
265.159
265.251
265.343
265.436
265.529
265.812
265.622
265.715
266.097
266.199
266.192
265.904
265.999
266.093
266.288
266.296
266.207
266.117
266.027
265.937
265.847
265.756
265.666
265.575
265.485
265.395
265.305
265.216
265.127
265.04
264.954
264.868
264.784
264.702
264.62
264.541
264.463
264.386
264.31
264.236
264.162
264.088
264.016
263.943
263.869
263.795
263.719
263.64
263.558
263.473
263.384
263.289
263.189
263.082
262.97
262.851
262.726
262.596
262.46
262.321
262.177
262.032
261.885
261.739
261.593
261.449
261.308
261.17
261.036
260.906
260.78
260.658
260.54
260.425
260.315
260.207
260.103
260.103
260.103
260.104
260.104
260.104
260.105
260.105
260.105
260.21
260.318
260.429
260.544
260.662
260.784
260.911
261.041
261.175
261.314
261.455
261.599
261.744
261.891
262.037
262.183
262.326
262.466
262.601
262.732
262.857
262.976
263.089
263.196
263.297
263.392
263.483
263.57
263.653
263.734
263.813
263.891
263.969
264.046
264.124
264.202
264.282
264.364
264.447
264.531
264.616
264.702
264.79
264.879
264.97
265.061
265.153
265.244
265.337
265.431
265.524
265.617
265.808
265.711
266.187
266.282
265.9
266.386
266.378
265.996
266.09
266.183
266.475
266.484
266.394
266.304
266.214
266.124
266.034
265.944
265.853
265.763
265.672
265.581
265.491
265.4
265.31
265.221
265.132
265.045
264.958
264.872
264.788
264.705
264.623
264.543
264.464
264.387
264.311
264.236
264.162
264.088
264.015
263.941
263.868
263.793
263.717
263.638
263.556
263.471
263.381
263.287
263.186
263.08
262.967
262.848
262.724
262.593
262.458
262.318
262.175
262.029
261.883
261.736
261.591
261.447
261.306
261.168
261.034
260.904
260.778
260.656
260.539
260.424
260.314
260.207
260.103
260.001
260.001
260.001
260.001
260.001
260.002
260.002
260.002
260.002
260.002
260.105
260.21
260.318
260.429
260.543
260.661
260.784
260.91
261.04
261.174
261.312
261.453
261.597
261.743
261.889
262.035
262.181
262.324
262.464
262.599
262.73
262.855
262.974
263.087
263.194
263.295
263.391
263.482
263.569
263.652
263.733
263.812
263.89
263.967
264.044
264.121
264.199
264.279
264.359
264.441
264.524
264.609
264.696
264.784
264.873
264.963
265.055
265.147
265.239
265.333
265.427
265.521
265.615
265.804
265.709
260.003
265.802
266.277
265.897
266.372
265.993
266.468
266.088
266.574
266.566
266.181
266.274
266.665
266.674
266.583
266.493
266.402
266.312
266.222
266.132
266.041
265.95
265.86
265.769
265.678
265.587
265.496
265.406
265.316
265.226
265.137
265.049
264.962
264.876
264.791
264.708
264.626
264.546
264.466
264.389
264.312
264.237
264.162
264.088
264.015
263.941
263.867
263.792
263.715
263.636
263.554
263.469
263.379
263.284
263.184
263.077
262.964
262.845
262.72
262.59
262.454
262.314
262.171
262.026
261.88
261.733
261.588
261.444
261.304
261.166
261.032
260.902
260.777
260.655
260.537
260.424
260.313
260.206
260.102
260.001
259.901
259.902
259.902
259.902
259.902
259.902
259.902
259.902
259.902
259.902
259.902
259.902
260.002
260.105
260.21
260.317
260.428
260.542
260.66
260.782
260.908
261.038
261.172
261.31
261.451
261.595
261.74
261.887
262.033
262.178
262.321
262.461
262.597
262.728
262.853
262.972
263.085
263.192
263.293
263.389
263.48
263.567
263.651
263.732
263.811
263.888
263.965
264.042
264.118
264.196
264.275
264.355
264.437
264.52
264.604
264.69
264.778
264.868
264.958
265.05
265.143
265.236
265.33
265.424
265.519
265.613
265.707
265.801
259.902
265.895
265.896
266.368
265.991
266.463
266.086
266.559
266.18
266.657
266.272
266.765
266.756
266.365
259.804
259.804
259.804
259.804
259.804
259.804
259.804
259.803
259.803
259.804
259.804
259.804
259.804
259.902
260.002
260.105
260.209
260.317
260.427
260.541
260.659
260.781
260.907
261.036
261.17
261.308
261.448
261.592
261.737
261.883
262.03
262.175
262.318
262.458
262.594
262.725
262.85
262.969
263.083
263.19
263.291
263.387
263.478
263.565
263.649
263.73
263.809
263.886
263.963
264.039
264.116
264.193
264.271
264.35
264.432
264.515
264.599
264.686
264.774
264.863
264.954
265.046
265.14
265.233
265.327
265.422
265.517
265.611
265.706
265.8
265.895
265.989
265.989
259.805
266.857
266.867
266.775
266.684
266.592
266.502
266.411
266.32
266.23
266.139
266.048
265.957
265.866
265.775
265.684
265.593
265.502
265.411
265.321
265.231
265.142
265.054
264.967
264.88
264.795
264.712
264.629
264.549
264.469
264.391
264.314
264.238
264.163
264.089
264.015
263.941
263.867
263.791
263.714
263.635
263.553
263.467
263.377
263.281
263.181
263.074
262.961
262.842
262.717
262.586
262.451
262.311
262.168
262.022
261.876
261.73
261.585
261.441
261.301
261.163
261.03
260.9
260.775
260.653
260.536
260.422
260.312
260.206
260.102
260
259.901
259.804
265.99
266.459
266.084
266.084
266.084
266.554
266.179
266.65
266.271
266.749
266.364
266.848
266.456
266.96
266.95
259.805
259.902
260.002
260.104
260.208
260.316
260.426
260.54
260.657
260.779
260.904
261.034
261.167
261.305
261.445
261.588
261.734
261.88
262.026
262.171
262.314
262.454
262.59
262.721
262.847
262.966
263.08
263.187
263.289
263.385
263.476
263.563
263.647
263.728
263.806
263.883
263.96
264.036
264.112
264.189
264.268
264.347
264.428
264.511
264.596
264.682
264.77
264.86
264.951
265.044
265.137
265.231
265.325
265.42
265.515
265.61
265.704
265.799
265.894
265.989
266.084
266.971
266.878
266.785
266.693
266.602
266.51
266.419
266.328
266.237
266.146
266.055
265.964
265.873
265.781
265.69
265.599
265.508
265.417
265.327
265.237
265.148
265.059
264.972
264.885
264.8
264.716
264.633
264.552
264.472
264.393
264.316
264.24
264.165
264.09
264.016
263.942
263.867
263.791
263.714
263.634
263.551
263.465
263.375
263.279
263.178
263.071
262.958
262.838
262.713
262.582
262.446
262.307
262.164
262.018
261.872
261.726
261.581
261.438
261.298
261.161
261.027
260.898
260.773
260.652
260.535
260.421
260.311
260.205
260.101
260
259.901
259.803
259.708
259.708
259.708
259.708
259.708
259.708
259.708
259.708
259.707
259.707
259.707
259.707
259.707
259.707
259.708
259.708
267.064
259.709
266.178
266.178
267.053
266.083
266.55
259.614
259.613
259.613
259.612
259.612
259.612
259.612
259.612
259.613
259.613
259.613
259.614
259.614
259.614
259.614
259.614
259.613
266.177
266.178
266.646
267.158
267.171
267.076
266.982
266.888
266.795
266.702
266.61
266.519
266.427
266.336
266.245
266.154
266.062
265.971
265.88
265.789
265.697
265.606
265.515
265.424
265.333
265.243
265.154
265.065
264.977
264.89
264.805
264.72
264.637
264.556
264.475
264.396
264.319
264.242
264.166
264.092
264.017
263.942
263.867
263.791
263.713
263.633
263.55
263.463
263.372
263.276
263.175
263.067
262.954
262.834
262.709
262.578
262.442
262.302
262.159
262.014
261.868
261.722
261.577
261.434
261.294
261.157
261.024
260.895
260.771
260.65
260.533
260.42
260.31
260.204
260.1
259.999
259.9
259.803
259.707
259.613
266.272
266.271
266.271
266.743
266.364
266.841
266.456
266.942
266.549
267.044
267.148
267.266
267.254
267.592
267.475
259.614
259.709
259.805
259.902
260.002
260.103
260.208
260.315
260.425
260.538
260.655
260.777
260.902
261.031
261.164
261.301
261.442
261.585
261.729
261.876
262.022
262.167
262.31
262.45
262.586
262.717
262.843
262.963
263.076
263.184
263.286
263.382
263.473
263.561
263.644
263.725
263.804
263.881
263.957
264.033
264.109
264.186
264.264
264.343
264.425
264.508
264.592
264.679
264.768
264.858
264.95
265.043
265.136
265.23
265.325
265.42
265.514
265.609
265.704
265.8
265.895
265.99
266.084
266.179
266.273
259.52
266.367
266.368
274.743
259.521
266.177
266.643
259.52
259.519
259.519
259.518
259.518
259.518
259.519
259.519
259.519
259.52
259.52
259.52
259.52
259.52
259.52
259.52
259.52
266.271
266.271
266.739
267.494
267.28
267.184
267.088
266.992
266.898
266.804
266.711
266.619
266.527
266.435
266.344
266.252
266.161
266.07
265.979
265.888
265.796
265.705
265.613
265.522
265.431
265.34
265.25
265.16
265.071
264.983
264.896
264.81
264.725
264.642
264.56
264.479
264.4
264.322
264.245
264.168
264.093
264.018
263.943
263.868
263.791
263.713
263.632
263.549
263.461
263.37
263.273
263.171
263.064
262.95
262.83
262.704
262.573
262.437
262.297
262.154
262.009
261.863
261.717
261.572
261.43
261.29
261.154
261.021
260.893
260.768
260.647
260.531
260.418
260.309
260.202
260.099
259.998
259.899
259.802
259.707
259.613
259.52
266.366
266.364
266.836
266.463
266.461
266.456
266.935
266.549
267.036
266.642
267.139
267.244
267.351
267.573
259.428
259.428
267.755
267.865
259.521
259.615
259.709
259.805
259.902
260.001
260.103
260.207
260.313
260.423
260.536
260.653
260.774
260.899
261.028
261.161
261.297
261.437
261.58
261.725
261.871
262.017
262.162
262.305
262.445
262.581
262.712
262.838
262.958
263.072
263.18
263.282
263.379
263.471
263.558
263.642
263.723
263.802
263.879
263.955
264.031
264.107
264.184
264.262
264.342
264.423
264.506
264.591
264.678
264.767
264.857
264.949
265.042
265.135
265.229
265.322
265.418
265.514
265.609
265.704
265.8
265.895
265.99
266.085
266.18
266.275
266.37
266.464
267.871
267.688
266.557
266.559
274.632
266.271
266.737
259.427
259.426
259.426
259.426
259.426
259.426
259.426
259.426
259.427
259.427
259.427
259.428
259.428
259.428
259.428
259.428
259.428
259.428
266.365
266.364
266.833
269.283
267.394
267.294
267.196
267.098
267.002
266.907
266.813
266.72
266.627
266.535
266.443
266.352
266.26
266.169
266.078
265.987
265.896
265.804
265.713
265.622
265.53
265.439
265.348
265.258
265.168
265.079
264.99
264.903
264.816
264.731
264.647
264.565
264.483
264.403
264.325
264.247
264.171
264.095
264.019
263.944
263.868
263.791
263.712
263.631
263.547
263.459
263.367
263.27
263.168
263.06
262.945
262.825
262.699
262.567
262.431
262.291
262.148
262.003
261.857
261.712
261.567
261.425
261.286
261.15
261.018
260.889
260.765
260.645
260.529
260.416
260.307
260.201
260.098
259.997
259.898
259.802
259.706
259.612
259.519
259.427
266.46
266.457
266.931
266.556
266.549
267.031
266.655
266.653
266.642
267.133
266.736
267.236
267.342
267.45
259.336
259.337
267.56
267.672
274.668
267.784
259.429
259.429
259.522
259.615
259.709
259.804
259.901
260.001
260.102
260.205
260.312
260.421
260.534
260.651
260.771
260.896
261.024
261.157
261.293
261.433
261.575
261.719
261.865
262.011
262.156
262.299
262.439
262.576
262.707
262.833
262.954
263.068
263.176
263.279
263.376
263.468
263.556
263.64
263.721
263.8
263.877
263.953
264.03
264.106
264.184
264.262
264.342
264.424
264.507
264.592
264.679
264.767
264.858
264.949
265.041
265.133
265.229
265.323
265.418
265.514
265.609
265.705
265.801
265.896
265.992
266.087
266.182
266.277
266.372
266.467
266.562
266.658
273.123
266.751
266.754
274.284
273.465
266.364
266.831
259.335
259.335
259.334
259.334
259.334
259.334
259.334
259.334
259.335
259.335
259.336
259.336
259.336
259.336
259.336
259.336
259.336
259.336
259.336
266.459
266.458
266.929
273.517
269.242
267.519
267.411
267.307
267.207
267.108
267.011
266.916
266.821
266.728
266.635
266.543
266.451
266.36
266.269
266.178
266.087
265.996
265.905
265.813
265.722
265.631
265.539
265.448
265.357
265.266
265.176
265.086
264.998
264.91
264.823
264.737
264.653
264.57
264.488
264.408
264.328
264.25
264.173
264.097
264.021
263.945
263.869
263.791
263.712
263.63
263.545
263.457
263.364
263.267
263.164
263.055
262.94
262.819
262.693
262.561
262.425
262.285
262.142
261.997
261.851
261.706
261.562
261.42
261.281
261.146
261.014
260.886
260.762
260.642
260.526
260.414
260.305
260.2
260.096
259.996
259.897
259.801
259.706
259.612
259.519
259.427
259.336
266.555
266.55
267.028
266.651
266.642
267.128
266.749
266.736
267.231
266.851
266.848
266.831
267.335
267.442
259.245
259.246
267.551
267.662
267.774
267.883
259.337
259.338
259.429
259.521
259.614
259.709
259.804
259.901
260
260.101
260.204
260.31
260.419
260.532
260.648
260.768
260.892
261.02
261.152
261.288
261.427
261.569
261.714
261.859
262.005
262.15
262.293
262.433
262.57
262.701
262.828
262.949
263.063
263.172
263.275
263.373
263.465
263.553
263.638
263.719
263.798
263.876
263.953
264.03
264.107
264.185
264.264
264.344
264.425
264.509
264.594
264.68
264.769
264.859
264.949
265.041
265.135
265.228
265.324
265.419
265.515
265.611
265.707
265.803
265.898
265.994
266.089
266.184
266.279
266.374
266.469
266.565
266.661
266.757
266.855
267.983
266.949
266.953
267.986
259.338
266.458
266.927
259.244
259.243
259.243
259.243
259.243
259.243
259.243
259.243
259.243
259.244
259.244
259.245
259.245
259.245
259.245
259.245
259.245
259.245
259.245
259.245
266.553
266.551
267.025
267.869
267.758
267.646
267.536
267.425
267.319
267.217
267.118
267.02
266.924
266.829
266.736
266.643
266.551
266.46
266.368
266.277
266.187
266.096
266.005
265.914
265.823
265.731
265.64
265.549
265.457
265.366
265.275
265.185
265.095
265.006
264.917
264.83
264.744
264.659
264.576
264.493
264.412
264.333
264.254
264.176
264.1
264.023
263.946
263.869
263.791
263.711
263.629
263.544
263.455
263.361
263.263
263.16
263.05
262.935
262.814
262.687
262.555
262.418
262.278
262.135
261.99
261.845
261.7
261.556
261.415
261.276
261.141
261.009
260.882
260.759
260.639
260.524
260.412
260.303
260.198
260.095
259.995
259.896
259.8
259.705
259.611
259.519
259.427
259.336
259.245
266.649
266.644
267.125
266.746
266.737
267.227
267.984
266.845
266.831
267.331
266.945
266.927
267.437
259.154
259.155
267.052
267.048
267.545
267.655
267.767
267.88
267.988
259.246
259.247
259.247
259.338
259.429
259.521
259.614
259.708
259.803
259.9
259.999
260.099
260.202
260.308
260.417
260.529
260.645
260.765
260.888
261.016
261.148
261.283
261.422
261.563
261.707
261.852
261.998
262.143
262.286
262.426
262.563
262.695
262.822
262.943
263.058
263.168
263.271
263.369
263.462
263.551
263.636
263.718
263.798
263.876
263.954
264.031
264.108
264.186
264.265
264.346
264.427
264.511
264.596
264.683
264.771
264.861
264.952
265.044
265.138
265.232
265.327
265.422
265.518
265.614
265.71
265.806
265.901
265.997
266.092
266.187
266.282
266.377
266.472
266.568
266.664
266.761
266.858
266.957
267.056
267.152
268.101
267.157
268.099
259.247
266.552
267.024
259.153
259.153
259.152
259.152
259.152
259.152
259.152
259.152
259.152
259.153
259.153
259.154
259.154
259.154
259.154
259.155
259.155
259.155
259.155
259.155
259.154
266.648
266.645
267.124
267.871
267.759
267.646
267.539
267.432
267.328
267.226
267.126
267.028
266.932
266.838
266.744
266.652
266.56
266.468
266.377
266.287
266.196
266.105
266.015
265.924
265.833
265.742
265.65
265.559
265.467
265.376
265.285
265.194
265.104
265.015
264.926
264.838
264.752
264.666
264.582
264.499
264.418
264.337
264.258
264.18
264.102
264.025
263.948
263.87
263.791
263.711
263.628
263.542
263.452
263.358
263.259
263.155
263.045
262.929
262.807
262.68
262.548
262.411
262.27
262.127
261.983
261.837
261.693
261.55
261.409
261.27
261.136
261.005
260.878
260.755
260.636
260.521
260.409
260.301
260.196
260.094
259.993
259.895
259.799
259.704
259.611
259.518
259.426
259.335
259.245
259.154
266.745
266.738
267.225
267.985
268.1
266.843
266.832
267.328
266.943
266.927
267.433
259.064
259.065
267.044
267.024
267.148
267.541
267.65
267.259
267.254
267.762
267.876
267.988
268.1
259.156
259.156
259.157
259.157
259.247
259.338
259.429
259.521
259.614
259.708
259.803
259.899
259.998
260.098
260.201
260.306
260.415
260.527
260.642
260.761
260.884
261.011
261.142
261.277
261.416
261.557
261.7
261.845
261.99
262.135
262.278
262.419
262.555
262.688
262.815
262.937
263.053
263.163
263.267
263.366
263.46
263.549
263.635
263.717
263.798
263.877
263.955
264.032
264.11
264.188
264.268
264.348
264.43
264.514
264.599
264.686
264.774
264.864
264.955
265.048
265.141
265.236
265.331
265.426
265.522
265.618
265.713
265.809
265.905
266
266.096
266.19
266.286
266.381
266.476
266.572
266.668
266.765
266.862
266.961
267.06
267.161
267.264
267.362
268.216
267.368
268.216
259.157
266.647
267.123
259.063
259.062
259.062
259.061
259.061
259.061
259.062
259.062
259.062
259.062
259.063
259.063
259.063
259.064
259.064
259.064
259.064
259.064
259.064
259.064
259.064
259.064
266.743
266.739
267.224
267.988
267.874
267.762
267.652
267.544
267.439
267.335
267.234
267.134
267.037
266.941
266.846
266.753
266.66
266.569
266.477
266.387
266.296
266.206
266.115
266.025
265.934
265.843
265.752
265.661
265.57
265.478
265.387
265.296
265.205
265.114
265.024
264.935
264.847
264.76
264.674
264.589
264.506
264.424
264.343
264.263
264.184
264.106
264.028
263.95
263.871
263.791
263.71
263.626
263.54
263.449
263.354
263.255
263.15
263.039
262.923
262.8
262.673
262.54
262.403
262.262
262.119
261.975
261.83
261.686
261.543
261.402
261.265
261.13
261
260.874
260.751
260.633
260.518
260.407
260.299
260.194
260.092
259.992
259.894
259.798
259.703
259.61
259.518
259.426
259.335
259.244
259.154
259.064
268.217
266.841
266.833
267.326
268.102
268.104
266.94
266.928
267.431
258.974
258.975
267.041
267.025
267.123
267.144
267.538
267.647
267.249
267.758
267.356
267.872
267.473
267.466
267.986
268.099
268.215
259.066
259.066
259.066
259.067
259.067
259.157
259.247
259.338
259.429
259.521
259.613
259.707
259.802
259.898
259.996
260.096
260.199
260.304
260.412
260.523
260.638
260.757
260.88
261.006
261.137
261.271
261.409
261.55
261.693
261.837
261.982
262.127
262.27
262.41
262.547
262.68
262.808
262.93
263.047
263.157
263.262
263.362
263.457
263.547
263.633
263.717
263.798
263.878
263.956
264.034
264.113
264.191
264.271
264.352
264.434
264.517
264.603
264.69
264.779
264.869
264.96
265.052
265.146
265.24
265.336
265.431
265.527
265.622
265.718
265.814
265.909
266.005
266.1
266.195
266.289
266.384
266.48
266.575
266.671
266.768
266.866
266.964
267.064
267.166
267.269
267.374
267.479
267.578
268.333
268.334
267.586
259.067
266.741
267.223
258.973
258.973
258.972
258.971
258.971
258.971
258.971
258.971
258.972
258.972
258.972
258.973
258.973
258.974
258.974
258.974
258.974
258.974
258.974
258.974
258.974
258.974
258.974
268.336
266.839
266.835
268.454
268.455
267.325
268.219
268.221
268.224
268.107
267.992
267.879
267.767
267.658
267.551
267.446
267.343
267.242
267.143
267.045
266.949
266.855
266.761
266.669
266.578
266.487
266.396
266.306
266.216
266.126
266.036
265.945
265.855
265.764
265.672
265.581
265.49
265.398
265.307
265.216
265.125
265.035
264.945
264.856
264.769
264.682
264.597
264.513
264.43
264.349
264.268
264.188
264.109
264.031
263.952
263.873
263.792
263.71
263.625
263.538
263.446
263.351
263.25
263.144
263.033
262.916
262.793
262.665
262.532
262.394
262.254
262.111
261.966
261.822
261.678
261.535
261.395
261.258
261.125
260.995
260.869
260.747
260.629
260.515
260.404
260.297
260.192
260.09
259.991
259.893
259.797
259.703
259.609
259.517
259.426
259.335
259.244
259.154
259.064
258.974
266.937
266.929
267.43
258.884
258.885
267.038
267.025
267.123
267.14
267.536
267.644
267.244
267.223
267.755
267.351
267.868
267.46
267.983
267.571
268.098
267.692
267.684
268.214
268.332
258.976
258.976
258.976
258.977
258.977
258.977
258.977
259.067
259.157
259.247
259.338
259.429
259.52
259.613
259.706
259.801
259.897
259.995
260.095
260.197
260.302
260.409
260.52
260.635
260.753
260.875
261.001
261.131
261.265
261.402
261.542
261.684
261.829
261.973
262.118
262.261
262.402
262.539
262.672
262.8
262.923
263.04
263.152
263.258
263.358
263.454
263.545
263.632
263.717
263.799
263.879
263.958
264.037
264.116
264.195
264.276
264.357
264.439
264.523
264.609
264.696
264.785
264.875
264.966
265.058
265.152
265.247
265.342
265.437
265.533
265.628
265.724
265.82
265.915
266.01
266.105
266.199
266.293
266.388
266.483
266.578
266.674
266.77
266.868
266.966
267.067
267.169
267.273
267.378
267.486
267.595
267.703
267.798
267.809
267.911
268.452
268.589
266.837
267.992
268.115
268.574
268.576
268.338
268.34
268.342
268.457
268.46
268.462
268.578
268.58
268.582
268.7
268.698
268.702
268.696
268.822
268.82
268.818
267.325
258.884
258.883
258.882
258.882
258.881
258.881
258.881
258.881
258.882
258.882
258.882
258.883
258.883
258.884
258.884
258.884
258.884
258.884
258.885
258.885
258.885
258.885
258.885
258.885
267.83
267.715
267.602
267.49
267.381
267.274
267.171
267.068
266.968
266.869
266.772
266.676
266.58
266.486
266.391
266.297
266.204
266.11
266.016
265.921
265.826
265.731
265.636
265.54
265.445
265.349
265.255
265.161
265.067
264.974
264.883
264.793
264.704
264.616
264.53
264.446
264.363
264.281
264.2
264.12
264.04
263.961
263.881
263.799
263.716
263.631
263.543
263.45
263.354
263.252
263.146
263.034
262.916
262.792
262.663
262.53
262.392
262.251
262.108
261.964
261.82
261.676
261.534
261.394
261.258
261.125
260.995
260.87
260.748
260.631
260.517
260.406
260.299
260.195
260.093
259.993
259.896
259.8
259.705
259.612
259.52
259.428
259.337
259.247
259.157
259.067
258.977
266.935
266.931
267.429
258.886
258.886
258.887
258.887
258.887
258.887
258.887
258.887
268.824
268.704
268.584
268.465
268.346
268.228
268.112
267.997
267.884
267.774
267.665
267.558
267.453
267.351
267.25
267.151
267.054
266.958
266.864
266.77
266.678
266.587
266.496
266.406
266.316
266.226
266.137
266.047
265.956
265.866
265.775
265.684
265.593
265.502
265.41
265.319
265.227
265.136
265.046
264.956
264.867
264.779
264.692
264.606
264.521
264.438
264.355
264.274
264.193
264.114
264.034
263.954
263.874
263.793
263.71
263.624
263.535
263.443
263.347
263.245
263.139
263.026
262.908
262.785
262.656
262.523
262.385
262.245
262.102
261.957
261.813
261.669
261.527
261.388
261.251
261.119
260.989
260.864
260.743
260.625
260.512
260.401
260.294
260.19
260.088
259.989
259.892
259.796
259.702
259.609
259.516
259.425
259.334
259.244
259.154
259.064
258.974
258.885
267.035
267.027
267.124
267.136
267.535
267.643
267.24
267.224
258.795
258.796
267.753
267.346
267.325
267.865
267.454
267.98
267.565
268.096
267.677
268.213
267.791
268.331
267.905
268.451
268.015
268.573
268.695
268.943
268.942
268.817
269.065
269.063
266.933
269.597
268.595
268.94
268.938
267.428
268.102
267.975
267.849
267.726
267.607
267.492
267.382
267.276
267.172
267.07
266.969
266.871
266.774
266.678
266.583
266.489
266.395
266.302
266.208
266.115
266.021
265.927
265.833
265.738
265.643
265.548
265.453
265.358
265.264
265.17
265.076
264.983
264.892
264.802
264.713
264.625
264.538
264.453
264.37
264.287
264.206
264.125
264.044
263.964
263.883
263.8
263.716
263.63
263.54
263.447
263.349
263.247
263.139
263.026
262.907
262.783
262.654
262.52
262.382
262.241
262.098
261.954
261.81
261.667
261.525
261.386
261.25
261.118
260.989
260.864
260.744
260.626
260.513
260.403
260.296
260.192
260.091
259.992
259.894
259.799
259.705
259.612
259.519
259.428
259.337
259.247
259.157
259.067
258.977
258.888
258.794
258.793
258.793
258.792
258.792
258.792
258.792
258.792
258.792
258.792
258.792
258.793
258.793
258.793
258.794
258.794
258.794
258.795
258.795
258.795
258.795
258.795
258.795
258.795
258.795
267.032
267.028
269.178
271.141
267.125
267.133
267.534
267.642
268.948
268.828
268.708
268.588
268.469
268.35
268.233
268.117
268.003
267.891
267.78
267.672
267.566
267.461
267.359
267.258
267.159
267.062
266.967
266.872
266.78
266.688
266.597
266.506
266.416
266.327
266.237
266.148
266.058
265.968
265.878
265.787
265.696
265.605
265.514
265.423
265.331
265.24
265.148
265.058
264.967
264.878
264.789
264.702
264.615
264.53
264.446
264.362
264.28
264.199
264.118
264.038
263.957
263.876
263.794
263.709
263.623
263.533
263.44
263.342
263.24
263.132
263.019
262.901
262.777
262.647
262.513
262.376
262.235
262.092
261.948
261.804
261.661
261.519
261.38
261.244
261.112
260.983
260.859
260.738
260.621
260.508
260.398
260.292
260.188
260.087
259.988
259.89
259.795
259.701
259.608
259.516
259.425
259.334
259.244
259.154
259.064
258.974
258.885
258.795
267.237
267.225
258.796
258.796
258.797
258.797
258.797
258.797
258.797
258.798
258.798
258.705
258.706
269.184
269.301
269.061
267.751
267.342
267.326
267.863
267.449
267.429
267.977
267.559
268.094
267.671
268.211
267.785
268.329
267.9
268.449
268.015
268.571
268.125
268.694
268.464
268.817
268.938
267.03
269.364
269.484
267.127
267.131
267.641
258.705
258.704
258.703
258.703
258.702
258.702
258.702
258.702
258.702
258.702
258.702
258.703
258.703
258.704
258.704
258.704
258.704
258.705
258.705
258.705
258.705
258.705
258.705
258.705
258.706
258.706
274.665
269.079
268.957
268.834
268.713
268.593
268.473
268.355
268.239
268.123
268.009
267.898
267.787
267.679
267.573
267.469
267.367
267.266
267.168
267.071
266.975
266.881
266.789
266.697
266.606
266.516
266.426
266.337
266.248
266.159
266.069
265.98
265.89
265.8
265.709
265.618
265.527
265.436
265.344
265.253
265.161
265.07
264.98
264.89
264.801
264.713
264.625
264.539
264.454
264.37
264.288
264.205
264.124
264.042
263.961
263.878
263.795
263.709
263.622
263.531
263.437
263.338
263.235
263.126
263.012
262.893
262.768
262.638
262.504
262.366
262.225
262.082
261.938
261.794
261.651
261.511
261.372
261.237
261.105
260.977
260.853
260.733
260.617
260.504
260.395
260.289
260.186
260.085
259.986
259.889
259.794
259.7
259.607
259.515
259.424
259.334
259.244
259.154
259.064
258.975
258.885
258.796
258.706
267.233
267.226
268.342
268.219
268.094
267.969
267.85
267.729
267.61
267.495
267.384
267.277
267.173
267.071
266.971
266.872
266.775
266.68
266.586
266.492
266.399
266.306
266.213
266.12
266.027
265.934
265.84
265.746
265.652
265.557
265.463
265.368
265.274
265.18
265.087
264.994
264.902
264.812
264.722
264.634
264.547
264.462
264.377
264.294
264.212
264.13
264.049
263.967
263.885
263.801
263.716
263.629
263.538
263.444
263.345
263.241
263.133
263.019
262.899
262.774
262.644
262.51
262.372
262.231
262.088
261.944
261.8
261.657
261.516
261.378
261.243
261.111
260.983
260.859
260.739
260.622
260.509
260.4
260.294
260.19
260.089
259.99
259.893
259.798
259.704
259.611
259.519
259.428
259.337
259.247
259.157
259.067
258.978
258.888
258.798
258.706
258.707