/*--------------------------------*- C++ -*----------------------------------*\
| =========                 |                                                 |
| \\      /  F ield         | OpenFOAM: The Open Source CFD Toolbox           |
|  \\    /   O peration     | Version:  2212                                  |
|   \\  /    A nd           | Website:  www.openfoam.com                      |
|    \\/     M anipulation  |                                                 |
\*---------------------------------------------------------------------------*/
FoamFile
{
    version     2.0;
    format      ascii;
    arch        "LSB;label=32;scalar=64";
    class       volScalarField;
    location    "0.1203";
    object      s;
}
// * * * * * * * * * * * * * * * * * * * * * * * * * * * * * * * * * * * * * //

dimensions      [0 0 0 0 0 0 0];

internalField   nonuniform List<scalar> 
24240
(
3.82054e-113
3.79441e-113
3.88215e-113
3.70477e-113
3.83178e-113
3.80274e-113
3.80723e-113
3.70217e-113
3.71929e-113
3.85015e-113
3.71465e-113
3.87678e-113
3.70302e-113
3.82464e-113
3.67594e-113
3.86139e-113
3.65303e-113
3.73722e-113
3.79651e-113
3.61133e-113
3.95804e-110
3.92904e-110
4.02004e-110
3.83714e-110
3.96777e-110
3.93821e-110
3.9426e-110
3.8332e-110
3.85168e-110
3.98655e-110
3.84761e-110
4.01421e-110
3.83569e-110
3.96107e-110
3.80818e-110
3.99936e-110
3.78404e-110
3.87053e-110
3.93165e-110
3.7407e-110
2.33975e-107
2.32136e-107
2.37541e-107
2.26766e-107
2.34437e-107
2.32726e-107
2.32957e-107
2.26449e-107
2.27572e-107
2.35533e-107
2.2738e-107
2.37164e-107
2.26689e-107
2.34078e-107
2.25103e-107
2.36351e-107
2.2362e-107
2.28715e-107
2.32318e-107
2.21041e-107
7.83732e-105
7.77115e-105
7.95376e-105
7.59359e-105
7.84906e-105
7.79322e-105
7.79959e-105
7.58007e-105
7.61824e-105
7.88573e-105
7.61378e-105
7.94004e-105
7.59145e-105
7.83864e-105
7.53997e-105
7.9152e-105
7.4873e-105
7.65834e-105
7.77895e-105
7.40003e-105
1.96508e-102
1.94712e-102
1.99371e-102
1.90327e-102
1.96711e-102
1.95356e-102
1.95458e-102
1.89902e-102
1.90849e-102
1.97638e-102
1.908e-102
1.98979e-102
1.90276e-102
1.96492e-102
1.89043e-102
1.98423e-102
1.87587e-102
1.91935e-102
1.94974e-102
1.85359e-102
3.40738e-100
3.37329e-100
3.45654e-100
3.29871e-100
3.40943e-100
3.38693e-100
3.38715e-100
3.28959e-100
3.30526e-100
3.42599e-100
3.30587e-100
3.44865e-100
3.29783e-100
3.40664e-100
3.27794e-100
3.44039e-100
3.24878e-100
3.32648e-100
3.37982e-100
3.20891e-100
4.20891e-98
4.16138e-98
4.27041e-98
4.07171e-98
4.20979e-98
4.18373e-98
4.18039e-98
4.05746e-98
4.07411e-98
4.23164e-98
4.07776e-98
4.25813e-98
4.07031e-98
4.20798e-98
4.04893e-98
4.25032e-98
4.00358e-98
4.10613e-98
4.17408e-98
3.95141e-98
3.43099e-96
3.38437e-96
3.48411e-96
3.3145e-96
3.43051e-96
3.41145e-96
3.40275e-96
3.29887e-96
3.30695e-96
3.45101e-96
3.31455e-96
3.46997e-96
3.31278e-96
3.4314e-96
3.30051e-96
3.46721e-96
3.24769e-96
3.34356e-96
3.40291e-96
3.20036e-96
7.85169e-95
7.78693e-95
7.91431e-95
7.60519e-95
7.83119e-95
7.76766e-95
7.79746e-95
7.58988e-95
7.66051e-95
7.84528e-95
7.64977e-95
7.91316e-95
7.60963e-95
7.81863e-95
7.53981e-95
7.89649e-95
7.56522e-95
7.66113e-95
7.75459e-95
7.49919e-95
7.29901e-95
7.32755e-95
7.27753e-95
7.12117e-95
7.26622e-95
7.17921e-95
7.29356e-95
7.15046e-95
7.3038e-95
7.229e-95
7.23675e-95
7.33588e-95
7.13663e-95
7.22519e-95
6.99889e-95
7.28198e-95
7.26353e-95
7.15198e-95
7.1725e-95
7.27034e-95
1.05358e-94
1.07206e-94
1.07212e-94
1.06252e-94
1.05243e-94
1.06265e-94
1.08202e-94
1.05743e-94
1.08768e-94
1.08642e-94
1.07901e-94
1.08932e-94
1.06739e-94
1.05516e-94
1.04547e-94
1.06577e-94
1.05779e-94
1.05426e-94
1.0609e-94
1.07093e-94
1.26839e-94
1.28172e-94
1.28517e-94
1.27338e-94
1.25772e-94
1.23127e-94
1.2567e-94
1.23022e-94
1.27144e-94
1.31233e-94
1.30141e-94
1.25705e-94
1.29331e-94
1.27478e-94
1.27185e-94
1.28345e-94
1.22574e-94
1.28256e-94
1.25884e-94
1.26333e-94
1.43149e-94
1.47632e-94
1.45764e-94
1.44806e-94
1.45153e-94
1.46899e-94
1.51744e-94
1.44973e-94
1.45963e-94
1.44705e-94
1.45243e-94
1.44982e-94
1.45446e-94
1.44292e-94
1.41547e-94
1.44798e-94
1.45971e-94
1.42949e-94
1.42201e-94
1.4321e-94
1.59858e-94
1.61097e-94
1.63531e-94
1.65352e-94
1.63292e-94
1.66229e-94
1.62892e-94
1.65338e-94
1.64536e-94
1.56691e-94
1.59517e-94
1.59048e-94
1.60745e-94
1.5706e-94
1.57403e-94
1.58142e-94
1.58556e-94
1.6095e-94
1.59561e-94
1.62466e-94
1.62704e-94
1.63947e-94
1.66448e-94
1.65889e-94
1.63441e-94
1.64595e-94
1.65583e-94
1.68137e-94
1.62838e-94
1.65437e-94
1.64103e-94
1.64427e-94
1.67509e-94
1.64526e-94
1.62738e-94
1.70048e-94
1.63731e-94
1.62336e-94
1.6454e-94
1.67277e-94
1.68446e-94
1.65253e-94
1.68335e-94
1.65587e-94
1.68115e-94
1.69058e-94
1.70491e-94
1.68381e-94
1.63717e-94
1.65526e-94
1.64839e-94
1.71018e-94
1.68246e-94
1.7149e-94
1.70688e-94
1.70915e-94
1.6915e-94
1.68338e-94
1.6653e-94
1.67577e-94
1.52718e-94
1.54708e-94
1.53005e-94
1.59666e-94
1.55184e-94
1.59353e-94
1.5635e-94
1.56839e-94
1.55097e-94
1.55478e-94
1.54773e-94
1.58266e-94
1.56085e-94
1.60496e-94
1.54362e-94
1.58627e-94
1.57564e-94
1.51643e-94
1.58229e-94
1.57358e-94
1.41409e-94
1.48393e-94
1.45535e-94
1.45482e-94
1.42886e-94
1.50516e-94
1.4817e-94
1.47783e-94
1.46999e-94
1.43591e-94
1.47148e-94
1.50218e-94
1.4548e-94
1.53957e-94
1.47328e-94
1.50281e-94
1.52044e-94
1.47114e-94
1.50588e-94
1.509e-94
1.25343e-94
1.24938e-94
1.23615e-94
1.26078e-94
1.28427e-94
1.27691e-94
1.25481e-94
1.23815e-94
1.28545e-94
1.2392e-94
1.27607e-94
1.27451e-94
1.25268e-94
1.28736e-94
1.28858e-94
1.30723e-94
1.26452e-94
1.29945e-94
1.28117e-94
1.32164e-94
9.52624e-95
9.62319e-95
9.53525e-95
9.48377e-95
9.74503e-95
9.61851e-95
9.85458e-95
9.6181e-95
9.86165e-95
9.88838e-95
9.70826e-95
9.99208e-95
9.63174e-95
1.0051e-94
9.68431e-95
9.6664e-95
9.8484e-95
9.98561e-95
9.79904e-95
1.01363e-94
2.10244e-111
2.08751e-111
2.13492e-111
2.03848e-111
2.10748e-111
2.09161e-111
2.09441e-111
2.03659e-111
2.0468e-111
2.11721e-111
2.04435e-111
2.13208e-111
2.03769e-111
2.10369e-111
2.02264e-111
2.124e-111
2.0111e-111
2.05597e-111
2.08806e-111
1.98846e-111
2.4463e-108
2.42772e-108
2.48298e-108
2.3713e-108
2.45098e-108
2.43288e-108
2.43594e-108
2.36832e-108
2.38061e-108
2.46219e-108
2.37825e-108
2.47952e-108
2.3706e-108
2.44705e-108
2.35345e-108
2.47081e-108
2.33969e-108
2.39152e-108
2.42868e-108
2.31325e-108
1.53374e-105
1.52128e-105
1.55609e-105
1.48633e-105
1.53594e-105
1.52485e-105
1.52657e-105
1.48391e-105
1.4918e-105
1.54291e-105
1.49066e-105
1.55373e-105
1.48597e-105
1.53375e-105
1.47548e-105
1.54871e-105
1.46645e-105
1.49886e-105
1.52209e-105
1.44977e-105
5.40192e-103
5.35491e-103
5.47854e-103
5.23346e-103
5.40707e-103
5.3691e-103
5.37423e-103
5.22291e-103
5.25109e-103
5.43163e-103
5.2484e-103
5.46949e-103
5.23246e-103
5.40054e-103
5.19663e-103
5.45346e-103
5.16281e-103
5.27722e-103
5.35894e-103
5.10346e-103
1.37969e-100
1.36674e-100
1.39884e-100
1.3362e-100
1.38036e-100
1.37099e-100
1.3719e-100
1.3329e-100
1.34002e-100
1.3867e-100
1.33978e-100
1.39622e-100
1.33596e-100
1.37901e-100
1.32721e-100
1.3926e-100
1.31763e-100
1.34727e-100
1.36823e-100
1.3022e-100
2.44155e-98
2.41655e-98
2.47506e-98
2.36354e-98
2.44166e-98
2.42582e-98
2.42633e-98
2.35646e-98
2.36853e-98
2.45325e-98
2.36914e-98
2.46966e-98
2.36314e-98
2.44001e-98
2.34868e-98
2.46424e-98
2.329e-98
2.38305e-98
2.42057e-98
2.30083e-98
2.98229e-96
2.94801e-96
3.02364e-96
2.88498e-96
2.9812e-96
2.96308e-96
2.96125e-96
2.87425e-96
2.88713e-96
2.99634e-96
2.88991e-96
3.01535e-96
2.8843e-96
2.98038e-96
2.8688e-96
3.01042e-96
2.83839e-96
2.90889e-96
2.95607e-96
2.80198e-96
2.41057e-94
2.37748e-94
2.44586e-94
2.32875e-94
2.40877e-94
2.39562e-94
2.39009e-94
2.31731e-94
2.32395e-94
2.42283e-94
2.3294e-94
2.43642e-94
2.32782e-94
2.40975e-94
2.31876e-94
2.43494e-94
2.28344e-94
2.34875e-94
2.38949e-94
2.25073e-94
5.39259e-93
5.34638e-93
5.43352e-93
5.2233e-93
5.37632e-93
5.33434e-93
5.35439e-93
5.21117e-93
5.26047e-93
5.38667e-93
5.25394e-93
5.43281e-93
5.2267e-93
5.36928e-93
5.17919e-93
5.4224e-93
5.19569e-93
5.26105e-93
5.32452e-93
5.1505e-93
4.97681e-93
4.99559e-93
4.962e-93
4.85679e-93
4.95393e-93
4.89672e-93
4.97411e-93
4.8755e-93
4.98127e-93
4.92945e-93
4.93568e-93
5.00153e-93
4.86751e-93
4.92742e-93
4.77424e-93
4.9645e-93
4.95267e-93
4.87699e-93
4.89075e-93
4.9576e-93
7.18909e-93
7.31311e-93
7.31578e-93
7.24813e-93
7.18027e-93
7.24885e-93
7.38059e-93
7.21195e-93
7.4198e-93
7.40818e-93
7.36156e-93
7.42819e-93
7.28163e-93
7.19824e-93
7.13217e-93
7.26944e-93
7.21542e-93
7.19204e-93
7.23825e-93
7.30569e-93
8.60251e-93
8.69235e-93
8.7163e-93
8.63383e-93
8.53024e-93
8.35101e-93
8.52521e-93
8.34522e-93
8.62499e-93
8.89884e-93
8.82551e-93
8.5255e-93
8.77251e-93
8.64508e-93
8.62627e-93
8.70367e-93
8.31306e-93
8.69691e-93
8.53536e-93
8.56691e-93
9.70467e-93
1.0005e-92
9.88162e-93
9.81495e-93
9.84145e-93
9.95791e-93
1.02856e-92
9.82777e-93
9.89448e-93
9.80731e-93
9.84459e-93
9.82806e-93
9.86182e-93
9.78483e-93
9.59913e-93
9.81669e-93
9.89619e-93
9.69222e-93
9.64191e-93
9.70926e-93
1.07217e-92
1.08018e-92
1.09623e-92
1.10878e-92
1.09505e-92
1.11452e-92
1.09223e-92
1.1087e-92
1.10311e-92
1.05074e-92
1.06963e-92
1.06666e-92
1.07801e-92
1.05343e-92
1.05549e-92
1.06067e-92
1.0631e-92
1.07933e-92
1.06997e-92
1.08962e-92
1.0916e-92
1.09961e-92
1.11658e-92
1.11255e-92
1.09626e-92
1.1043e-92
1.11086e-92
1.12781e-92
1.09242e-92
1.10985e-92
1.10114e-92
1.10323e-92
1.12347e-92
1.10383e-92
1.09206e-92
1.14052e-92
1.09852e-92
1.08897e-92
1.10376e-92
1.1216e-92
1.11236e-92
1.09104e-92
1.11112e-92
1.09329e-92
1.11008e-92
1.11642e-92
1.12557e-92
1.11173e-92
1.0811e-92
1.09292e-92
1.08813e-92
1.12892e-92
1.11098e-92
1.13239e-92
1.12699e-92
1.12851e-92
1.11675e-92
1.1117e-92
1.09956e-92
1.10646e-92
1.01091e-92
1.02404e-92
1.01278e-92
1.05685e-92
1.02704e-92
1.05456e-92
1.0346e-92
1.03818e-92
1.02654e-92
1.02901e-92
1.0246e-92
1.04747e-92
1.03284e-92
1.0622e-92
1.02154e-92
1.04969e-92
1.04274e-92
1.00371e-92
1.04712e-92
1.04158e-92
9.19364e-93
9.64704e-93
9.46189e-93
9.45542e-93
9.28848e-93
9.78409e-93
9.63113e-93
9.60724e-93
9.55527e-93
9.33449e-93
9.56513e-93
9.76391e-93
9.45754e-93
1.00056e-92
9.5748e-93
9.76612e-93
9.88056e-93
9.56329e-93
9.78835e-93
9.808e-93
8.20097e-93
8.17365e-93
8.08897e-93
8.24995e-93
8.4019e-93
8.35337e-93
8.20824e-93
8.104e-93
8.41149e-93
8.1088e-93
8.34898e-93
8.3388e-93
8.19432e-93
8.42292e-93
8.4294e-93
8.55353e-93
8.27274e-93
8.50053e-93
8.38079e-93
8.645e-93
6.20009e-93
6.26243e-93
6.20587e-93
6.17187e-93
6.34018e-93
6.25906e-93
6.4098e-93
6.25893e-93
6.41411e-93
6.43339e-93
6.31573e-93
6.49973e-93
6.26738e-93
6.53862e-93
6.30014e-93
6.28893e-93
6.40584e-93
6.49562e-93
6.37484e-93
6.59263e-93
1.51415e-109
1.50291e-109
1.53659e-109
1.46787e-109
1.51697e-109
1.50567e-109
1.50783e-109
1.46614e-109
1.47397e-109
1.52377e-109
1.47235e-109
1.53459e-109
1.46743e-109
1.5144e-109
1.45656e-109
1.5291e-109
1.44877e-109
1.48024e-109
1.50303e-109
1.43263e-109
1.76035e-106
1.74644e-106
1.78563e-106
1.70617e-106
1.76277e-106
1.74993e-106
1.7523e-106
1.70358e-106
1.71298e-106
1.77061e-106
1.71144e-106
1.78319e-106
1.70579e-106
1.76014e-106
1.6934e-106
1.77729e-106
1.68412e-106
1.72042e-106
1.74677e-106
1.66529e-106
1.09312e-103
1.08392e-103
1.10835e-103
1.05922e-103
1.0941e-103
1.08632e-103
1.08766e-103
1.05722e-103
1.0632e-103
1.09894e-103
1.06248e-103
1.10672e-103
1.05905e-103
1.09268e-103
1.05153e-103
1.10337e-103
1.04551e-103
1.06798e-103
1.08428e-103
1.03375e-103
3.89123e-101
3.85627e-101
3.94388e-101
3.76953e-101
3.89283e-101
3.86595e-101
3.87004e-101
3.76098e-101
3.78252e-101
3.9101e-101
3.78093e-101
3.9376e-101
3.76914e-101
3.88867e-101
3.74315e-101
3.92687e-101
3.72028e-101
3.80044e-101
3.85835e-101
3.67804e-101
9.81118e-99
9.71651e-99
9.9408e-99
9.50124e-99
9.81056e-99
9.74522e-99
9.75283e-99
9.47541e-99
9.52931e-99
9.85467e-99
9.52839e-99
9.92297e-99
9.50046e-99
9.80251e-99
9.43764e-99
9.89928e-99
9.37366e-99
9.57846e-99
9.72488e-99
9.26535e-99
1.72257e-96
1.70453e-96
1.745e-96
1.66746e-96
1.72169e-96
1.71074e-96
1.71134e-96
1.66207e-96
1.67117e-96
1.72969e-96
1.67174e-96
1.74138e-96
1.66734e-96
1.72081e-96
1.657e-96
1.73792e-96
1.64394e-96
1.68096e-96
1.70692e-96
1.62435e-96
2.07039e-94
2.04619e-94
2.09752e-94
2.00281e-94
2.06844e-94
2.05613e-94
2.05522e-94
1.99491e-94
2.00462e-94
2.07873e-94
2.00668e-94
2.09208e-94
2.00256e-94
2.06822e-94
1.99154e-94
2.08908e-94
1.97164e-94
2.01907e-94
2.05112e-94
1.94677e-94
1.65561e-92
1.63269e-92
1.67843e-92
1.59948e-92
1.65337e-92
1.64453e-92
1.64115e-92
1.59131e-92
1.59657e-92
1.6628e-92
1.60037e-92
1.67232e-92
1.59904e-92
1.65431e-92
1.5925e-92
1.6716e-92
1.56952e-92
1.61292e-92
1.64022e-92
1.54745e-92
3.61978e-91
3.58759e-91
3.64583e-91
3.50617e-91
3.60735e-91
3.58033e-91
3.5935e-91
3.49692e-91
3.53055e-91
3.6148e-91
3.52674e-91
3.64542e-91
3.50871e-91
3.60374e-91
3.47711e-91
3.63915e-91
3.48753e-91
3.53107e-91
3.57316e-91
3.45732e-91
3.31323e-91
3.32527e-91
3.30329e-91
3.23419e-91
3.29766e-91
3.26101e-91
3.31212e-91
3.24577e-91
3.31701e-91
3.28197e-91
3.28676e-91
3.32941e-91
3.24144e-91
3.28099e-91
3.17979e-91
3.30456e-91
3.29719e-91
3.24709e-91
3.25608e-91
3.30067e-91
4.79146e-91
4.8727e-91
4.876e-91
4.82948e-91
4.78492e-91
4.82983e-91
4.91729e-91
4.80438e-91
4.94388e-91
4.93408e-91
4.90563e-91
4.94757e-91
4.85197e-91
4.79643e-91
4.75244e-91
4.84308e-91
4.80739e-91
4.79227e-91
4.82368e-91
4.86795e-91
5.70197e-91
5.76109e-91
5.77732e-91
5.72099e-91
5.65409e-91
5.53542e-91
5.65199e-91
5.5325e-91
5.71801e-91
5.89726e-91
5.84909e-91
5.65086e-91
5.81522e-91
5.7296e-91
5.71785e-91
5.76833e-91
5.50991e-91
5.76334e-91
5.65581e-91
5.67746e-91
6.43269e-91
6.62931e-91
6.54969e-91
6.50438e-91
6.52391e-91
6.59978e-91
6.81647e-91
6.51384e-91
6.55781e-91
6.49888e-91
6.52406e-91
6.51385e-91
6.5378e-91
6.48769e-91
6.36485e-91
6.50716e-91
6.55976e-91
6.4252e-91
6.39211e-91
6.43603e-91
7.04446e-91
7.0952e-91
7.19873e-91
7.28341e-91
7.19385e-91
7.32006e-91
7.17433e-91
7.28297e-91
7.24462e-91
6.90244e-91
7.02617e-91
7.00778e-91
7.08206e-91
6.92146e-91
6.93346e-91
6.96895e-91
6.98259e-91
7.09044e-91
7.02857e-91
7.15874e-91
7.17841e-91
7.22921e-91
7.34203e-91
7.3134e-91
7.20715e-91
7.26219e-91
7.30464e-91
7.41533e-91
7.18305e-91
7.29821e-91
7.24247e-91
7.25532e-91
7.38587e-91
7.25886e-91
7.18293e-91
7.49803e-91
7.22415e-91
7.16e-91
7.25757e-91
7.37146e-91
7.22322e-91
7.08325e-91
7.2118e-91
7.09796e-91
7.20775e-91
7.24961e-91
7.30703e-91
7.21762e-91
7.02e-91
7.09583e-91
7.06311e-91
7.32792e-91
7.21383e-91
7.35276e-91
7.31706e-91
7.32687e-91
7.25e-91
7.21917e-91
7.13923e-91
7.18376e-91
6.58584e-91
6.6709e-91
6.59773e-91
6.8845e-91
6.68944e-91
6.868e-91
6.73763e-91
6.76327e-91
6.68652e-91
6.70254e-91
6.67532e-91
6.8227e-91
6.72617e-91
6.91836e-91
6.6534e-91
6.83609e-91
6.79121e-91
6.53832e-91
6.81952e-91
6.78502e-91
5.91126e-91
6.20185e-91
6.08341e-91
6.07763e-91
5.97143e-91
6.28949e-91
6.19081e-91
6.17635e-91
6.14233e-91
6.00118e-91
6.14865e-91
6.27588e-91
6.08039e-91
6.43024e-91
6.15354e-91
6.27621e-91
6.34934e-91
6.14751e-91
6.29187e-91
6.30401e-91
5.31051e-91
5.29277e-91
5.23908e-91
5.34292e-91
5.43999e-91
5.40877e-91
5.31438e-91
5.25011e-91
5.44763e-91
5.25149e-91
5.40651e-91
5.4001e-91
5.30514e-91
5.45474e-91
5.45769e-91
5.53945e-91
5.35707e-91
5.50375e-91
5.42623e-91
5.5968e-91
3.99679e-91
4.03645e-91
4.00044e-91
3.97824e-91
4.0856e-91
4.0341e-91
4.12927e-91
4.03404e-91
4.1319e-91
4.14547e-91
4.06944e-91
4.18751e-91
4.0392e-91
4.21295e-91
4.05944e-91
4.05253e-91
4.12675e-91
4.18498e-91
4.10754e-91
4.24681e-91
1.13787e-107
1.12906e-107
1.15404e-107
1.10295e-107
1.13939e-107
1.13102e-107
1.13274e-107
1.10136e-107
1.10759e-107
1.14437e-107
1.10649e-107
1.15258e-107
1.10271e-107
1.13761e-107
1.09454e-107
1.14869e-107
1.08903e-107
1.11209e-107
1.12898e-107
1.07702e-107
1.30633e-104
1.2956e-104
1.32428e-104
1.26597e-104
1.30744e-104
1.29805e-104
1.29992e-104
1.26372e-104
1.2711e-104
1.31311e-104
1.27008e-104
1.32252e-104
1.2658e-104
1.30566e-104
1.25658e-104
1.31842e-104
1.25011e-104
1.27636e-104
1.29563e-104
1.23629e-104
7.90909e-102
7.84017e-102
8.01424e-102
7.66302e-102
7.91191e-102
7.85662e-102
7.86701e-102
7.6466e-102
7.69228e-102
7.94615e-102
7.68783e-102
8.00289e-102
7.66246e-102
7.90282e-102
7.60783e-102
7.98034e-102
7.56696e-102
7.72522e-102
7.8413e-102
7.48285e-102
2.80862e-99
2.78261e-99
2.84481e-99
2.72057e-99
2.80826e-99
2.78924e-99
2.79247e-99
2.7137e-99
2.73012e-99
2.82048e-99
2.72924e-99
2.84047e-99
2.72053e-99
2.80571e-99
2.70166e-99
2.83333e-99
2.68617e-99
2.74245e-99
2.78355e-99
2.65605e-99
6.95801e-97
6.88909e-97
7.04529e-97
6.73783e-97
6.95378e-97
6.90843e-97
6.91461e-97
6.71783e-97
6.75829e-97
6.98448e-97
6.75825e-97
7.03326e-97
6.73792e-97
6.94926e-97
6.69295e-97
7.01795e-97
6.65041e-97
6.79152e-97
6.89348e-97
6.57464e-97
1.20804e-94
1.19512e-94
1.22292e-94
1.16936e-94
1.20675e-94
1.19925e-94
1.19983e-94
1.1653e-94
1.17209e-94
1.21226e-94
1.17258e-94
1.22053e-94
1.16939e-94
1.20635e-94
1.16204e-94
1.21835e-94
1.15345e-94
1.17863e-94
1.19648e-94
1.13992e-94
1.42851e-92
1.41156e-92
1.44615e-92
1.38189e-92
1.42635e-92
1.41806e-92
1.41769e-92
1.37614e-92
1.38336e-92
1.43332e-92
1.38487e-92
1.44263e-92
1.38187e-92
1.42646e-92
1.37409e-92
1.44084e-92
1.3612e-92
1.39288e-92
1.4145e-92
1.34433e-92
1.12817e-90
1.11246e-90
1.14275e-90
1.09e-90
1.12597e-90
1.12009e-90
1.11808e-90
1.08424e-90
1.0883e-90
1.13226e-90
1.09092e-90
1.13886e-90
1.08984e-90
1.12681e-90
1.08515e-90
1.13857e-90
1.0704e-90
1.09896e-90
1.11707e-90
1.05564e-90
2.41122e-89
2.389e-89
2.42761e-89
2.33559e-89
2.40193e-89
2.38473e-89
2.39329e-89
2.32868e-89
2.35142e-89
2.40726e-89
2.34928e-89
2.4274e-89
2.33744e-89
2.40029e-89
2.31659e-89
2.42372e-89
2.32308e-89
2.35187e-89
2.37955e-89
2.30305e-89
2.18747e-89
2.19511e-89
2.18086e-89
2.13585e-89
2.17697e-89
2.15373e-89
2.18718e-89
2.14291e-89
2.1905e-89
2.16701e-89
2.17059e-89
2.19796e-89
2.14072e-89
2.1666e-89
2.10031e-89
2.18142e-89
2.1769e-89
2.14401e-89
2.14984e-89
2.17931e-89
3.16827e-89
3.22105e-89
3.22423e-89
3.19254e-89
3.1635e-89
3.19268e-89
3.25025e-89
3.17528e-89
3.26814e-89
3.26032e-89
3.24325e-89
3.26933e-89
3.20752e-89
3.17081e-89
3.14177e-89
3.20112e-89
3.17772e-89
3.16804e-89
3.1892e-89
3.21802e-89
3.75136e-89
3.78996e-89
3.80087e-89
3.76271e-89
3.71988e-89
3.64189e-89
3.71929e-89
3.6406e-89
3.76264e-89
3.87909e-89
3.84766e-89
3.7177e-89
3.8262e-89
3.76914e-89
3.76186e-89
3.79454e-89
3.62486e-89
3.79091e-89
3.71989e-89
3.73459e-89
4.23458e-89
4.36239e-89
4.31141e-89
4.28089e-89
4.295e-89
4.34407e-89
4.48635e-89
4.28774e-89
4.31651e-89
4.27696e-89
4.29383e-89
4.28762e-89
4.3044e-89
4.27208e-89
4.19136e-89
4.28378e-89
4.31834e-89
4.2302e-89
4.20859e-89
4.237e-89
4.60461e-89
4.6365e-89
4.70289e-89
4.75971e-89
4.7016e-89
4.78296e-89
4.68823e-89
4.75949e-89
4.73333e-89
4.511e-89
4.59156e-89
4.58032e-89
4.62865e-89
4.52429e-89
4.53108e-89
4.55524e-89
4.56265e-89
4.63391e-89
4.59323e-89
4.67902e-89
4.69909e-89
4.73111e-89
4.80578e-89
4.78563e-89
4.71661e-89
4.75398e-89
4.78142e-89
4.85338e-89
4.70176e-89
4.77737e-89
4.74191e-89
4.74973e-89
4.83349e-89
4.75176e-89
4.70302e-89
4.90692e-89
4.72916e-89
4.68632e-89
4.75038e-89
4.82267e-89
4.68768e-89
4.59577e-89
4.67795e-89
4.60545e-89
4.67717e-89
4.70476e-89
4.74078e-89
4.68295e-89
4.55552e-89
4.60412e-89
4.58183e-89
4.75373e-89
4.6812e-89
4.77136e-89
4.74781e-89
4.75402e-89
4.70395e-89
4.68518e-89
4.63245e-89
4.66119e-89
4.28917e-89
4.3443e-89
4.29679e-89
4.48321e-89
4.35567e-89
4.47145e-89
4.38636e-89
4.40462e-89
4.35402e-89
4.36443e-89
4.34768e-89
4.44258e-89
4.379e-89
4.50463e-89
4.33208e-89
4.45061e-89
4.42162e-89
4.25786e-89
4.43997e-89
4.41852e-89
3.81898e-89
4.00602e-89
3.92996e-89
3.92516e-89
3.85733e-89
4.06237e-89
3.9984e-89
3.98965e-89
3.96729e-89
3.87664e-89
3.97133e-89
4.05314e-89
3.92786e-89
4.15212e-89
3.97364e-89
4.05268e-89
4.09953e-89
3.9706e-89
4.06365e-89
4.07119e-89
3.45349e-89
3.44198e-89
3.40778e-89
3.47502e-89
3.53724e-89
3.51711e-89
3.45546e-89
3.41582e-89
3.54316e-89
3.41555e-89
3.51601e-89
3.51201e-89
3.44929e-89
3.54768e-89
3.54872e-89
3.60278e-89
3.48391e-89
3.57867e-89
3.52828e-89
3.63883e-89
2.57961e-89
2.60487e-89
2.58193e-89
2.56741e-89
2.63596e-89
2.60323e-89
2.66335e-89
2.60321e-89
2.66495e-89
2.67443e-89
2.62525e-89
2.7011e-89
2.60634e-89
2.71776e-89
2.61885e-89
2.61459e-89
2.66174e-89
2.69956e-89
2.64985e-89
2.73901e-89
8.19342e-106
8.12745e-106
8.30484e-106
7.94106e-106
8.20004e-106
8.14076e-106
8.15375e-106
7.92751e-106
7.9749e-106
8.23507e-106
7.96774e-106
8.29459e-106
7.93997e-106
8.1883e-106
7.88097e-106
8.26833e-106
7.84389e-106
8.0056e-106
8.12545e-106
7.75827e-106
9.59425e-103
9.51257e-103
9.72016e-103
9.29691e-103
9.59728e-103
9.52963e-103
9.5441e-103
9.2779e-103
9.33497e-103
9.63808e-103
9.32845e-103
9.70765e-103
9.29639e-103
9.58561e-103
9.22847e-103
9.67957e-103
9.18395e-103
9.37171e-103
9.51108e-103
9.08349e-103
5.759e-100
5.70714e-100
5.83195e-100
5.57935e-100
5.75798e-100
5.71855e-100
5.72659e-100
5.56593e-100
5.60092e-100
5.78246e-100
5.59825e-100
5.82401e-100
5.57943e-100
5.7523e-100
5.53948e-100
5.80884e-100
5.51158e-100
5.62378e-100
5.70695e-100
5.45105e-100
2.01993e-97
2.00067e-97
2.04466e-97
1.95648e-97
2.01859e-97
2.00522e-97
2.00772e-97
1.95103e-97
1.96346e-97
2.02723e-97
1.96302e-97
2.04169e-97
1.95663e-97
2.01711e-97
1.94297e-97
2.03699e-97
1.93255e-97
1.97191e-97
2.00096e-97
1.91115e-97
4.9159e-95
4.86599e-95
4.9743e-95
4.76015e-95
4.91025e-95
4.87899e-95
4.88387e-95
4.74483e-95
4.77496e-95
4.93162e-95
4.77538e-95
4.96628e-95
4.76067e-95
4.90797e-95
4.7286e-95
4.9565e-95
4.7005e-95
4.79734e-95
4.86803e-95
4.6477e-95
8.4266e-93
8.33465e-93
8.52456e-93
8.15669e-93
8.41298e-93
8.36203e-93
8.36718e-93
8.12642e-93
8.1766e-93
8.4509e-93
8.18068e-93
8.5089e-93
8.1578e-93
8.41182e-93
8.10573e-93
8.49547e-93
8.04974e-93
8.22008e-93
8.34198e-93
7.95682e-93
9.80099e-91
9.68314e-91
9.91471e-91
9.48146e-91
9.78067e-91
9.72535e-91
9.72448e-91
9.43992e-91
9.49306e-91
9.82773e-91
9.50398e-91
9.89218e-91
9.48239e-91
9.78334e-91
9.42772e-91
9.88185e-91
9.34498e-91
9.55525e-91
9.70012e-91
9.23128e-91
7.63436e-89
7.52755e-89
7.72645e-89
7.37681e-89
7.61495e-89
7.57623e-89
7.56472e-89
7.33652e-89
7.36735e-89
7.65663e-89
7.3852e-89
7.70206e-89
7.37668e-89
7.62203e-89
7.34329e-89
7.70132e-89
7.24978e-89
7.43603e-89
7.55521e-89
7.15197e-89
1.59533e-87
1.58013e-87
1.60555e-87
1.54534e-87
1.58852e-87
1.57768e-87
1.5832e-87
1.54028e-87
1.55554e-87
1.5923e-87
1.55439e-87
1.60546e-87
1.54668e-87
1.58796e-87
1.53301e-87
1.60334e-87
1.53701e-87
1.55592e-87
1.57399e-87
1.52381e-87
1.43367e-87
1.43848e-87
1.42933e-87
1.40023e-87
1.42665e-87
1.41205e-87
1.43377e-87
1.40446e-87
1.43601e-87
1.42039e-87
1.42301e-87
1.44044e-87
1.40347e-87
1.42027e-87
1.37719e-87
1.4295e-87
1.42676e-87
1.40534e-87
1.40909e-87
1.42842e-87
2.08039e-87
2.11441e-87
2.11717e-87
2.09574e-87
2.07696e-87
2.09577e-87
2.13339e-87
2.08398e-87
2.14535e-87
2.13935e-87
2.12926e-87
2.14532e-87
2.10566e-87
2.08156e-87
2.06253e-87
2.10111e-87
2.08588e-87
2.07973e-87
2.09387e-87
2.11249e-87
2.45192e-87
2.47695e-87
2.48423e-87
2.45856e-87
2.43136e-87
2.38045e-87
2.43149e-87
2.38002e-87
2.45976e-87
2.53492e-87
2.51453e-87
2.42991e-87
2.50103e-87
2.46327e-87
2.45881e-87
2.47982e-87
2.36914e-87
2.47722e-87
2.43063e-87
2.44052e-87
2.77071e-87
2.85326e-87
2.82084e-87
2.80045e-87
2.81047e-87
2.842e-87
2.93485e-87
2.80533e-87
2.82403e-87
2.79767e-87
2.8089e-87
2.80515e-87
2.8168e-87
2.79613e-87
2.7434e-87
2.80304e-87
2.82559e-87
2.76822e-87
2.75419e-87
2.77244e-87
2.99513e-87
3.01504e-87
3.05737e-87
3.09528e-87
3.05778e-87
3.10993e-87
3.04869e-87
3.0952e-87
3.07742e-87
2.93374e-87
2.98592e-87
2.97912e-87
3.01039e-87
2.94292e-87
2.94666e-87
2.963e-87
2.96683e-87
3.01368e-87
2.98705e-87
3.04331e-87
3.0629e-87
3.08289e-87
3.13208e-87
3.11804e-87
3.0735e-87
3.09869e-87
3.11636e-87
3.16287e-87
3.06439e-87
3.11376e-87
3.0913e-87
3.09604e-87
3.14949e-87
3.09718e-87
3.06604e-87
3.19734e-87
3.08258e-87
3.05412e-87
3.0959e-87
3.14153e-87
3.03319e-87
2.97305e-87
3.02537e-87
2.97943e-87
3.02606e-87
3.04418e-87
3.06668e-87
3.02944e-87
2.94753e-87
2.9786e-87
2.96348e-87
3.07468e-87
3.02875e-87
3.08707e-87
3.07161e-87
3.07549e-87
3.043e-87
3.03165e-87
2.99699e-87
3.01551e-87
2.7869e-87
2.82255e-87
2.79178e-87
2.91261e-87
2.82946e-87
2.90435e-87
2.84895e-87
2.86181e-87
2.82854e-87
2.8353e-87
2.82504e-87
2.88601e-87
2.84425e-87
2.92614e-87
2.81409e-87
2.89078e-87
2.87211e-87
2.76633e-87
2.88397e-87
2.87067e-87
2.46545e-87
2.58571e-87
2.53694e-87
2.53313e-87
2.48986e-87
2.62191e-87
2.58048e-87
2.57521e-87
2.56053e-87
2.50236e-87
2.56309e-87
2.61566e-87
2.53546e-87
2.67906e-87
2.56405e-87
2.61494e-87
2.6449e-87
2.56265e-87
2.62257e-87
2.62725e-87
2.2447e-87
2.23723e-87
2.21548e-87
2.25899e-87
2.29885e-87
2.28585e-87
2.24561e-87
2.22127e-87
2.3033e-87
2.22035e-87
2.28538e-87
2.28291e-87
2.2415e-87
2.30617e-87
2.30629e-87
2.342e-87
2.26458e-87
2.32576e-87
2.293e-87
2.3646e-87
1.67496e-87
1.69116e-87
1.67647e-87
1.6669e-87
1.7109e-87
1.69001e-87
1.7282e-87
1.69001e-87
1.72916e-87
1.7358e-87
1.70378e-87
1.7528e-87
1.69189e-87
1.76378e-87
1.69965e-87
1.69702e-87
1.72715e-87
1.75185e-87
1.71976e-87
1.77717e-87
6.16377e-104
6.11222e-104
6.24388e-104
5.97328e-104
6.16552e-104
6.12176e-104
6.13195e-104
5.9615e-104
5.99893e-104
6.19136e-104
5.99419e-104
6.23639e-104
5.97296e-104
6.15763e-104
5.9285e-104
6.21796e-104
5.90233e-104
6.02093e-104
6.10979e-104
5.83857e-104
7.11192e-101
7.04924e-101
7.2009e-101
6.89089e-101
7.11042e-101
7.06132e-101
7.07255e-101
6.87496e-101
6.91933e-101
7.14015e-101
6.91525e-101
7.19198e-101
6.89111e-101
7.10295e-101
6.84061e-101
7.17271e-101
6.80969e-101
6.9453e-101
7.04702e-101
6.73603e-101
4.18709e-98
4.14819e-98
4.23752e-98
4.05619e-98
4.18413e-98
4.15612e-98
4.16228e-98
4.04536e-98
4.07202e-98
4.20167e-98
4.07051e-98
4.23201e-98
4.0566e-98
4.18075e-98
4.02743e-98
4.22188e-98
4.00845e-98
4.08787e-98
4.14734e-98
3.96495e-98
1.44797e-95
1.43378e-95
1.46478e-95
1.40242e-95
1.44624e-95
1.4369e-95
1.43881e-95
1.39815e-95
1.40749e-95
1.45236e-95
1.40732e-95
1.46276e-95
1.40266e-95
1.44545e-95
1.3928e-95
1.45971e-95
1.38582e-95
1.41327e-95
1.43372e-95
1.37068e-95
3.46084e-93
3.42487e-93
3.49968e-93
3.35111e-93
3.455e-93
3.4336e-93
3.43737e-93
3.33948e-93
3.36175e-93
3.46988e-93
3.36237e-93
3.49438e-93
3.35181e-93
3.45409e-93
3.32901e-93
3.48824e-93
3.31055e-93
3.37677e-93
3.42557e-93
3.27392e-93
5.84766e-91
5.78264e-91
5.91161e-91
5.66038e-91
5.83501e-91
5.80069e-91
5.80498e-91
5.63802e-91
5.67475e-91
5.86105e-91
5.67806e-91
5.9015e-91
5.66174e-91
5.83543e-91
5.62509e-91
5.89339e-91
5.58889e-91
5.70348e-91
5.78626e-91
5.52545e-91
6.68771e-89
6.60628e-89
6.76033e-89
6.46999e-89
6.67011e-89
6.63353e-89
6.63406e-89
6.44025e-89
6.47895e-89
6.70183e-89
6.48678e-89
6.74613e-89
6.47138e-89
6.67334e-89
6.43317e-89
6.74037e-89
6.3806e-89
6.51927e-89
6.61571e-89
6.30446e-89
5.13223e-87
5.06026e-87
5.18974e-87
4.95975e-87
5.11619e-87
5.09095e-87
5.08463e-87
4.93184e-87
4.95487e-87
5.1437e-87
4.96689e-87
5.17471e-87
4.96033e-87
5.12196e-87
4.93669e-87
5.17498e-87
4.8782e-87
4.99862e-87
5.07637e-87
4.81389e-87
1.04877e-85
1.03845e-85
1.05506e-85
1.01594e-85
1.04385e-85
1.03709e-85
1.04062e-85
1.01229e-85
1.02246e-85
1.04652e-85
1.02188e-85
1.05504e-85
1.0169e-85
1.04384e-85
1.00799e-85
1.05387e-85
1.01042e-85
1.02278e-85
1.03448e-85
1.00179e-85
9.33194e-86
9.36191e-86
9.30371e-86
9.11686e-86
9.28536e-86
9.19448e-86
9.33448e-86
9.1418e-86
9.34951e-86
9.24633e-86
9.26521e-86
9.37523e-86
9.13824e-86
9.24654e-86
8.96848e-86
9.30339e-86
9.28706e-86
9.14853e-86
9.17248e-86
9.29829e-86
1.35708e-85
1.37886e-85
1.38109e-85
1.36672e-85
1.35465e-85
1.3667e-85
1.3911e-85
1.35876e-85
1.39904e-85
1.39458e-85
1.38873e-85
1.3985e-85
1.37325e-85
1.35752e-85
1.34515e-85
1.37004e-85
1.3602e-85
1.35632e-85
1.3657e-85
1.37765e-85
1.59271e-85
1.60883e-85
1.61366e-85
1.59651e-85
1.57937e-85
1.54634e-85
1.57977e-85
1.54634e-85
1.59809e-85
1.6463e-85
1.63314e-85
1.57841e-85
1.62472e-85
1.59989e-85
1.59718e-85
1.61061e-85
1.53886e-85
1.60877e-85
1.5784e-85
1.58501e-85
1.80241e-85
1.8554e-85
1.83492e-85
1.8214e-85
1.82842e-85
1.84855e-85
1.90877e-85
1.82482e-85
1.83691e-85
1.81946e-85
1.82687e-85
1.82465e-85
1.83265e-85
1.81954e-85
1.78528e-85
1.82354e-85
1.83816e-85
1.80105e-85
1.79199e-85
1.80364e-85
1.93908e-85
1.95143e-85
1.97827e-85
2.00343e-85
1.97935e-85
2.01259e-85
1.97321e-85
2.00342e-85
1.99139e-85
1.89903e-85
1.93265e-85
1.92859e-85
1.9487e-85
1.9053e-85
1.90727e-85
1.91825e-85
1.92009e-85
1.95075e-85
1.93339e-85
1.97011e-85
1.98782e-85
2.0002e-85
2.03247e-85
2.02277e-85
1.99417e-85
2.0111e-85
2.02236e-85
2.0523e-85
1.98865e-85
2.02071e-85
2.00656e-85
2.00944e-85
2.04334e-85
2.01007e-85
1.99023e-85
2.07438e-85
2.00063e-85
1.98183e-85
2.00894e-85
2.03758e-85
1.95784e-85
1.91864e-85
1.95182e-85
1.92282e-85
1.95303e-85
1.96487e-85
1.97889e-85
1.95502e-85
1.90249e-85
1.9223e-85
1.91209e-85
1.98379e-85
1.95484e-85
1.99244e-85
1.98233e-85
1.98476e-85
1.9637e-85
1.95689e-85
1.9342e-85
1.94612e-85
1.80668e-85
1.82966e-85
1.80979e-85
1.88789e-85
1.83385e-85
1.88216e-85
1.84619e-85
1.85516e-85
1.83333e-85
1.83773e-85
1.83146e-85
1.87057e-85
1.84319e-85
1.89644e-85
1.82386e-85
1.87333e-85
1.86137e-85
1.79323e-85
1.86901e-85
1.86079e-85
1.5914e-85
1.66869e-85
1.63743e-85
1.63452e-85
1.60693e-85
1.69193e-85
1.6651e-85
1.66195e-85
1.65231e-85
1.615e-85
1.65393e-85
1.6877e-85
1.63639e-85
1.7283e-85
1.65421e-85
1.68697e-85
1.70611e-85
1.65367e-85
1.69224e-85
1.69515e-85
1.45849e-85
1.45367e-85
1.43984e-85
1.46799e-85
1.49347e-85
1.48512e-85
1.45885e-85
1.44399e-85
1.49677e-85
1.44288e-85
1.48496e-85
1.48345e-85
1.45611e-85
1.49861e-85
1.49832e-85
1.5219e-85
1.47151e-85
1.51095e-85
1.48968e-85
1.53603e-85
1.08486e-85
1.09521e-85
1.08583e-85
1.07955e-85
1.10772e-85
1.09441e-85
1.11859e-85
1.09442e-85
1.11916e-85
1.12377e-85
1.10298e-85
1.13458e-85
1.09553e-85
1.14179e-85
1.10034e-85
1.09872e-85
1.1179e-85
1.13401e-85
1.11334e-85
1.15022e-85
4.62931e-102
4.58917e-102
4.68671e-102
4.48583e-102
4.62821e-102
4.59605e-102
4.60398e-102
4.47576e-102
4.50518e-102