/*--------------------------------*- C++ -*----------------------------------*\
| =========                 |                                                 |
| \\      /  F ield         | OpenFOAM: The Open Source CFD Toolbox           |
|  \\    /   O peration     | Version:  2212                                  |
|   \\  /    A nd           | Website:  www.openfoam.com                      |
|    \\/     M anipulation  |                                                 |
\*---------------------------------------------------------------------------*/
FoamFile
{
    version     2.0;
    format      ascii;
    arch        "LSB;label=32;scalar=64";
    class       volScalarField;
    location    "0.00023778";
    object      T;
}
// * * * * * * * * * * * * * * * * * * * * * * * * * * * * * * * * * * * * * //

dimensions      [0 0 0 1 0 0 0];

internalField   nonuniform List<scalar> 
105480
(
7.53103
7.62382
7.70887
7.7782
7.83687
7.89107
7.93921
7.98159
8.02017
8.05656
8.0898
8.11862
8.14323
8.16443
8.18295
8.19915
8.21309
8.22425
8.23279
8.23963
8.24561
8.2509
8.25511
8.25781
8.25889
8.25825
8.25615
8.25288
8.24812
8.24141
8.23293
8.22393
8.2143
8.20454
8.19448
8.18371
8.17223
8.1597
8.14573
8.13055
8.11494
8.10008
8.08649
8.07346
8.05992
8.04466
8.02673
8.00673
7.98582
7.96427
7.94211
7.91971
7.89752
7.87593
7.85495
7.83411
7.81321
7.79222
7.77081
7.74887
7.727
7.70577
7.685
7.6642
7.64343
7.62314
7.60353
7.58469
7.56614
7.54717
7.52843
7.5111
7.49515
7.47989
7.46499
7.45047
7.43619
7.42201
7.40772
7.39285
7.3772
7.36113
7.34504
7.32924
7.314
7.29938
7.28545
7.2726
7.26138
7.25139
7.24152
7.23128
7.2212
7.21189
7.20345
7.19566
7.18816
7.18084
7.17381
7.16714
7.16065
7.15398
7.14673
7.13875
7.13021
7.12063
7.10905
7.09546
7.08054
7.06462
7.04762
7.02911
7.0091
6.9885
6.96778
6.94712
6.92722
6.90869
6.89167
6.87637
6.86299
6.85118
6.84078
6.83206
6.8255
6.82101
6.81798
6.81613
6.81558
6.81665
6.82036
6.82751
6.83989
6.86126
6.89992
6.96891
7.08923
7.29321
7.64586
8.25827
9.24913
10.7106
12.7236
15.4116
7.44232
7.60988
7.70241
7.77256
7.83029
7.88461
7.93306
7.97572
8.01452
8.05092
8.08403
8.11267
8.13704
8.15807
8.17649
8.19266
8.20647
8.21747
8.22587
8.23261
8.2385
8.24371
8.24787
8.2505
8.25179
8.25141
8.24909
8.24571
8.2411
8.23414
8.22554
8.21665
8.2071
8.1974
8.18739
8.17665
8.16514
8.1526
8.13861
8.12344
8.10786
8.09307
8.07956
8.06659
8.05303
8.03771
8.01977
7.9998
7.97894
7.95746
7.93538
7.91306
7.89095
7.86945
7.84855
7.8278
7.80699
7.7861
7.76479
7.74298
7.72127
7.70021
7.67959
7.65894
7.63833
7.61819
7.59872
7.58001
7.56158
7.54272
7.52412
7.50691
7.49106
7.47589
7.46108
7.44664
7.43244
7.41834
7.40412
7.38933
7.37378
7.35785
7.34191
7.32629
7.31123
7.29681
7.28314
7.27072
7.25993
7.25031
7.24077
7.2308
7.2209
7.21169
7.20332
7.19554
7.18804
7.18071
7.17368
7.167
7.16048
7.15375
7.14639
7.13827
7.12952
7.11966
7.10772
7.09372
7.07838
7.06206
7.04475
7.02605
7.00603
6.98561
6.96524
6.94505
6.92569
6.90769
6.89114
6.87627
6.86316
6.85147
6.8411
6.83237
6.82578
6.82125
6.81816
6.81621
6.81554
6.81653
6.8202
6.82688
6.83861
6.85904
6.89601
6.9618
7.07574
7.26821
7.60063
8.17518
9.09833
10.4473
12.2383
14.3492
7.3263
7.56988
7.67899
7.75071
7.80787
7.86356
7.91311
7.9567
7.99632
8.03342
8.06704
8.09598
8.12054
8.14174
8.16033
8.17665
8.19062
8.20182
8.21053
8.21756
8.22367
8.22902
8.23321
8.2361
8.23766
8.23787
8.23556
8.23224
8.22766
8.22059
8.21202
8.20332
8.19391
8.18432
8.17439
8.16373
8.15229
8.13982
8.12596
8.11083
8.09534
8.08068
8.06731
8.05445
8.04095
8.02565
8.00782
7.98799
7.9673
7.946
7.92409
7.90197
7.88005
7.85872
7.838
7.81742
7.79679
7.77608
7.75497
7.73338
7.71192
7.6911
7.67071
7.65028
7.6299
7.60997
7.5907
7.57218
7.55392
7.53525
7.51683
7.4998
7.48411
7.46909
7.45442
7.44012
7.42605
7.41209
7.39801
7.38338
7.36803
7.35232
7.33664
7.32127
7.30647
7.29234
7.27896
7.26678
7.2562
7.24675
7.23738
7.2276
7.21793
7.20891
7.2007
7.19307
7.18569
7.17846
7.1715
7.16483
7.15828
7.15146
7.14395
7.13563
7.12667
7.11654
7.10428
7.08996
7.07431
7.05773
7.04021
7.02136
7.00129
6.98089
6.96061
6.94057
6.92141
6.90364
6.88733
6.87272
6.85998
6.84876
6.83889
6.83071
6.8246
6.82045
6.81767
6.81589
6.81544
6.81645
6.81992
6.8261
6.83695
6.8558
6.88992
6.9506
7.05432
7.2298
7.5313
8.05092
8.8751
10.0373
11.4901
13.0754
7.21456
7.52182
7.64752
7.71689
7.77281
7.82976
7.88079
7.926
7.9671
8.00551
8.04025
8.07018
8.09559
8.1174
8.1366
8.15347
8.16793
8.17956
8.18865
8.19607
8.20258
8.2083
8.21284
8.21623
8.2182
8.21886
8.21713
8.21404
8.20916
8.2021
8.19361
8.1851
8.17578
8.16629
8.15645
8.14586
8.13452
8.12217
8.10843
8.09349
8.0781
8.06359
8.05035
8.03764
8.0243
8.00917
7.99151
7.97189
7.95143
7.93036
7.90871
7.88683
7.86514
7.84405
7.82354
7.80319
7.78279
7.76232
7.74147
7.72018
7.69902
7.67848
7.65835
7.63819
7.61806
7.59839
7.57936
7.56106
7.54302
7.52458
7.50639
7.48957
7.47408
7.45924
7.44476
7.43064
7.41675
7.40297
7.38908
7.37466
7.35958
7.34417
7.32879
7.31373
7.29925
7.28543
7.27237
7.26049
7.25015
7.24093
7.23179
7.22228
7.21288
7.20413
7.19616
7.18874
7.18157
7.17453
7.16771
7.16115
7.15464
7.14782
7.14027
7.13186
7.12274
7.1124
7.0999
7.08529
7.06934
7.0525
7.03476
7.01574
6.99558
6.97515
6.95489
6.93495
6.91592
6.8983
6.88217
6.86775
6.85524
6.84437
6.835
6.8273
6.82168
6.81793
6.81554
6.81431
6.81449
6.81592
6.81911
6.82492
6.83486
6.8519
6.8827
6.93756
7.03052
7.18488
7.44797
7.89508
8.59172
9.54537
10.689
11.9024
7.12069
7.47367
7.60551
7.67501
7.7306
7.7886
7.84099
7.88771
7.93038
7.97034
8.00639
8.03755
8.0641
8.08694
8.10692
8.12456
8.1397
8.15193
8.16153
8.16943
8.17642
8.18262
8.18763
8.19152
8.19393
8.19499
8.19417
8.19127
8.18604
8.17899
8.17066
8.16225
8.15304
8.14364
8.13388
8.12339
8.11215
8.09992
8.0863
8.07152
8.05635
8.042
8.02889
8.01634
8.00315
7.98822
7.97077
7.9514
7.93119
7.9104
7.88902
7.86743
7.84603
7.8252
7.80496
7.78486
7.76473
7.74453
7.72397
7.703
7.68214
7.6619
7.64206
7.62217
7.60234
7.58295
7.56419
7.54614
7.52835
7.51017
7.49225
7.47569
7.46042
7.44579
7.43152
7.41761
7.40393
7.39036
7.37669
7.36254
7.34778
7.3327
7.31767
7.30296
7.28882
7.27535
7.26267
7.25113
7.2411
7.23216
7.22331
7.21414
7.2051
7.1967
7.18905
7.18195
7.17508
7.16833
7.16176
7.15539
7.14903
7.14231
7.13481
7.1264
7.11721
7.10676
7.09408
7.07926
7.06309
7.04602
7.02807
7.00889
6.98862
6.96813
6.94786
6.92795
6.909
6.89146
6.87542
6.8611
6.84872
6.83806
6.82906
6.82185
6.81671
6.81338
6.81135
6.81066
6.81135
6.81367
6.81687
6.82252
6.83184
6.84729
6.87509
6.92334
7.00431
7.13764
7.36052
7.73263
8.29941
9.06362
9.96122
10.9117
7.05064
7.42451
7.55664
7.62993
7.6856
7.74416
7.79743
7.84532
7.88926
7.9305
7.96779
8.00002
8.02752
8.05136
8.07224
8.09069
8.10658
8.11946
8.12962
8.13804
8.14552
8.15222
8.15774
8.16213
8.16501
8.16651
8.16689
8.16367
8.15824
8.15124
8.14315
8.13483
8.12571
8.1164
8.10675
8.09636
8.08525
8.07315
8.0597
8.0451
8.03016
8.01602
8.00313
7.99076
7.97769
7.96299
7.94577
7.9267
7.90677
7.88628
7.86521
7.84392
7.82281
7.80226
7.78229
7.76246
7.74261
7.7227
7.70245
7.6818
7.66128
7.64135
7.62181
7.60224
7.5827
7.56361
7.54513
7.52736
7.50984
7.49196
7.47435
7.45805
7.44301
7.4286
7.41455
7.40087
7.38743
7.3741
7.36068
7.34685
7.33241
7.31769
7.30301
7.28867
7.2749
7.26182
7.24954
7.2384
7.2287
7.22006
7.21154
7.20277
7.19415
7.18615
7.17888
7.17216
7.16567
7.15929
7.15306
7.14699
7.14087
7.13435
7.12701
7.1187
7.10957
7.09912
7.08641
7.07151
7.05522
7.03802
7.01994
7.00066
6.98032
6.95979
6.93951
6.91962
6.90069
6.88317
6.86714
6.85285
6.84051
6.82993
6.8211
6.81427
6.80951
6.80657
6.80483
6.80509
6.80628
6.80866
6.8123
6.81807
6.82693
6.84091
6.86642
6.90796
6.97791
7.09165
7.27744
7.58253
8.03869
8.63754
9.34117
10.094
6.99473
7.3759
7.50973
7.58634
7.64138
7.7
7.75353
7.80196
7.84664
7.88871
7.92682
7.95984
7.98815
8.01272
8.03441
8.05358
8.07015
8.08362
8.09431
8.10321
8.11116
8.11832
8.12429
8.12915
8.13255
8.13472
8.13554
8.13229
8.12662
8.11974
8.11196
8.10371
8.0947
8.08551
8.07598
8.06573
8.05477
8.04284
8.02959
8.01522
8.0005
7.98659
7.97391
7.96173
7.94896
7.93452
7.91744
7.89868
7.87906
7.85888
7.83812
7.81713
7.79632
7.77606
7.75636
7.73681
7.71724
7.69761
7.67766
7.65732
7.63712
7.61751
7.59828
7.57901
7.55979
7.54099
7.52281
7.50531
7.48806
7.47047
7.45316
7.43712
7.42231
7.40814
7.39432
7.38087
7.36768
7.3546
7.34147
7.32792
7.3138
7.29941
7.28509
7.27111
7.25772
7.24506
7.23318
7.22241
7.21304
7.20471
7.19655
7.1882
7.18
7.17242
7.16556
7.15926
7.15319
7.14723
7.1414
7.13568
7.12988
7.12364
7.11656
7.10847
7.0995
7.08919
7.07658
7.06173
7.04546
7.02824
7.01015
6.99086
6.97052
6.95
6.92975
6.90988
6.89097
6.87346
6.85741
6.84309
6.83073
6.82015
6.81137
6.80469
6.80024
6.79745
6.7966
6.79736
6.79922
6.8016
6.80535
6.81142
6.82033
6.83398
6.8564
6.89267
6.95278
7.04855
7.20391
7.4527
7.81537
8.28429
8.8289
9.4237
6.94048
7.33403
7.46979
7.54613
7.59985
7.65793
7.71113
7.75956
7.80444
7.84684
7.88534
7.91882
7.94762
7.97274
7.99497
8.01473
8.03185
8.04582
8.05695
8.06626
8.07462
8.0822
8.08855
8.09381
8.0977
8.10067
8.10153
8.09802
8.09229
8.0856
8.07827
8.07004
8.06116
8.05212
8.04276
8.03268
8.02191
8.01017
7.99714
7.98302
7.96857
7.95491
7.94243
7.93044
7.91788
7.90368
7.88703
7.86848
7.84915
7.82921
7.80879
7.7881
7.76758
7.7476
7.72817
7.70889
7.68958
7.67023
7.65057
7.63053
7.61064
7.59132
7.57238
7.55339
7.53446
7.51595
7.49804
7.48081
7.46382
7.4465
7.42945
7.41365
7.39906
7.3851
7.37151
7.35828
7.34531
7.33247
7.3196
7.30631
7.29248
7.27841
7.26443
7.25082
7.23781
7.22551
7.214
7.20357
7.19451
7.18648
7.17868
7.17072
7.16293
7.15573
7.14928
7.1434
7.13777
7.13223
7.1268
7.12147
7.11603
7.11013
7.10336
7.09556
7.08684
7.07674
7.06435
7.04969
7.03355
7.01644
6.99843
6.97922
6.95896
6.93852
6.91833
6.89852
6.87965
6.86214
6.84608
6.83172
6.81931
6.80869
6.79988
6.79323
6.7889
6.78618
6.78636
6.78752
6.79
6.79268
6.79677
6.80309
6.81196
6.82544
6.84579
6.87744
6.92871
7.0088
7.13663
7.33967
7.62662
7.99183
8.41382
8.87656
6.89249
7.29684
7.43351
7.50851
7.56063
7.61773
7.67017
7.71824
7.76292
7.80522
7.84373
7.87734
7.90634
7.93171
7.95445
7.97464
7.99218
8.00654
8.01802
8.02767
8.0364
8.04437
8.05105
8.05664
8.06093
8.06426
8.06528
8.06194
8.05624
8.04939
8.04257
8.03442
8.02572
8.01689
8.00773
7.99786
7.9873
7.97579
7.96301
7.94916
7.93499
7.92158
7.90932
7.89754
7.88518
7.8712
7.85488
7.83671
7.81772
7.79786
7.77779
7.7574
7.73716
7.71746
7.6983
7.67927
7.66022
7.64114
7.62175
7.602
7.5824
7.56337
7.54469
7.52598
7.50732
7.48907
7.47141
7.45441
7.43766
7.42058
7.40377
7.38818
7.37379
7.36002
7.34662
7.33358
7.32081
7.30818
7.29552
7.28247
7.26889
7.2551
7.24142
7.22813
7.21546
7.20348
7.19229
7.18217
7.17343
7.16571
7.1582
7.15056
7.14312
7.13629
7.13023
7.12473
7.11949
7.11435
7.10932
7.10438
7.09932
7.09376
7.08733
7.07986
7.07144
7.06162
7.04952
7.03513
7.01924
7.00233
6.98449
6.96543
6.94531
6.92499
6.90489
6.88516
6.86634
6.84885
6.83277
6.8184
6.80595
6.79527
6.78641
6.77971
6.77536
6.77305
6.77368
6.77555
6.77805
6.78124
6.78616
6.79297
6.80187
6.81532
6.83416
6.86187
6.90532
6.97263
7.07648
7.23834
7.46342
7.74738
8.07057
8.42482
6.84984
7.26222
7.39906
7.47245
7.52281
7.57863
7.63014
7.67754
7.7217
7.76361
7.80185
7.8353
7.86431
7.89007
7.91309
7.93353
7.95137
7.96603
7.97781
7.98776
7.99683
8.00513
8.01211
8.018
8.02263
8.02622
8.02729
8.024
8.0186
8.01199
8.00531
7.99735
7.98891
7.98032
7.9714
7.96178
7.95147
7.94021
7.9277
7.91413
7.90024
7.88709
7.87506
7.86347
7.85132
7.83756
7.82152
7.80366
7.78496
7.76562
7.74564
7.72555
7.70554
7.68613
7.66724
7.64847
7.62969
7.61086
7.59174
7.57227
7.55295
7.53419
7.51577
7.49731
7.4789
7.4609
7.44347
7.42668
7.41014
7.39327
7.37667
7.36127
7.34704
7.33343
7.32019
7.30731
7.29471
7.28225
7.26976
7.2569
7.24353
7.22997
7.21654
7.20351
7.1911
7.1794
7.16846
7.15862
7.15014
7.14267
7.13542
7.12806
7.12094
7.11446
7.10872
7.10353
7.0986
7.09381
7.08917
7.08462
7.0799
7.07468
7.06859
7.06144
7.05333
7.04383
7.03206
7.01801
7.00242
6.98577
6.96816
6.9493
6.92934
6.90915
6.88914
6.8695
6.85072
6.83323
6.81718
6.80281
6.79032
6.77959
6.77067
6.76387
6.75935
6.75766
6.75862
6.76102
6.76374
6.76713
6.77238
6.78016
6.79009
6.80406
6.8212
6.84557
6.88227
6.93924
7.02349
7.15216
7.32647
7.54316
7.78803
8.06191
6.81056
7.22865
7.36518
7.43683
7.48533
7.53985
7.59026
7.6368
7.68024
7.72154
7.75929
7.79257
7.82186
7.84773
7.8708
7.89142
7.9095
7.92443
7.93649
7.94674
7.9561
7.96468
7.972
7.97822
7.98331
7.98682
7.98792
7.9847
7.97964
7.97357
7.96699
7.95929
7.95115
7.94285
7.9342
7.92486
7.91481
7.90383
7.8916
7.87833
7.86473
7.85185
7.84005
7.82867
7.81672
7.80319
7.78742
7.76985
7.75146
7.73249
7.71291
7.69298
7.67325
7.65406
7.63547
7.61697
7.59846
7.5799
7.56105
7.54187
7.52283
7.50433
7.48617
7.46796
7.44979
7.43201
7.4148
7.39822
7.38186
7.36518
7.34876
7.33352
7.31943
7.30596
7.29285
7.28011
7.26763
7.25531
7.24296
7.23024
7.21704
7.20366
7.19041
7.17759
7.16539
7.15388
7.14315
7.13351
7.12523
7.11794
7.11089
7.10375
7.09689
7.09069
7.0852
7.0802
7.07553
7.07113
7.06689
7.06271
7.05829
7.05335
7.04755
7.04071
7.0329
7.02371
7.01227
6.99858
6.98333
6.96696
6.94957
6.93091
6.91111
6.89102
6.87108
6.85147
6.83271
6.81523
6.79921
6.78484
6.77231
6.76153
6.75254
6.74562
6.74089
6.73976
6.74099
6.74392
6.74694
6.75053
6.75623
6.76487
6.77598
6.79021
6.80663
6.82828
6.8589
6.90414
6.97512
7.07896
7.21703
7.38278
7.56723
7.7718
6.77273
7.19479
7.3308
7.40051
7.44723
7.50038
7.54957
7.59509
7.63766
7.67829
7.71584
7.74911
7.77834
7.8041
7.82716
7.84799
7.86633
7.88154
7.89388
7.90437
7.914
7.9229
7.93065
7.93732
7.94301
7.94595
7.94719
7.94409
7.93947
7.9341
7.92766
7.92027
7.91249
7.90451
7.89618
7.88714
7.87739
7.8667
7.85478
7.84182
7.82853
7.81592
7.80435
7.79318
7.78145
7.76816
7.75267
7.73541
7.71733
7.69867
7.67945
7.65995
7.64048
7.62149
7.60315
7.58498
7.56675
7.54848
7.52993
7.51104
7.4923
7.47408
7.45618
7.43822
7.4203
7.40275
7.38576
7.36937
7.35319
7.33669
7.32044
7.30535
7.29139
7.27803
7.26503
7.2524
7.24003
7.22782
7.21557
7.20297
7.1899
7.17665
7.16355
7.15087
7.13882
7.12746
7.11688
7.10738
7.09923
7.09207
7.08516
7.07819
7.07151
7.0655
7.06015
7.05531
7.0509
7.0468
7.04289
7.03903
7.03501
7.03029
7.02475
7.01818
7.01065
7.00173
6.99062
6.97726
6.96231
6.9462
6.92902
6.91051
6.89082
6.87077
6.85084
6.83122
6.81246
6.79501
6.77897
6.76456
6.75195
6.74115
6.73206
6.725
6.72006
6.71933
6.72076
6.72415
6.72753
6.73151
6.73738
6.74695
6.75915
6.77407
6.79031
6.80992
6.8354
6.87088
6.92465
7.00691
7.12312
7.25562
7.39886
7.55199
6.73476
7.15988
7.29563
7.36318
7.40809
7.45976
7.50764
7.55212
7.59398
7.63428
7.6715
7.70454
7.73347
7.75906
7.78228
7.80334
7.82195
7.83742
7.84999
7.86075
7.8707
7.88002
7.88829
7.89553
7.90177
7.90431
7.9051
7.90237
7.89841
7.89376
7.88754
7.88055
7.87315
7.86553
7.85753
7.84881
7.83937
7.829
7.8174
7.80477
7.7918
7.77948
7.76815
7.75721
7.7457
7.73266
7.71745
7.70051
7.68276
7.66443
7.64556
7.62643
7.60741
7.58878
7.57057
7.55269
7.53481
7.51686
7.49863
7.48007
7.46165
7.44373
7.42611
7.40842
7.39076
7.37345
7.35668
7.34049
7.3245
7.30818
7.29209
7.27715
7.2633
7.25005
7.23715
7.22462
7.21234
7.20021
7.18806
7.17554
7.16257
7.14942
7.13643
7.12385
7.11189
7.10062
7.09013
7.08073
7.07266
7.06558
7.05876
7.05189
7.04533
7.03943
7.03417
7.02948
7.02527
7.02138
7.01771
7.01411
7.01043
7.00599
7.00067
6.99435
6.98706
6.97842
6.96759
6.95452
6.93984
6.92394
6.90692
6.8885
6.86884
6.84877
6.82876
6.80905
6.79022
6.77271
6.75662
6.74217
6.72955
6.71865
6.7094
6.70221
6.69703
6.69647
6.69806
6.70175
6.70548
6.70982
6.71615
6.72613
6.73953
6.75548
6.77204
6.79038
6.81184
6.83947
6.87974
6.94144
7.02873
7.13926
7.26025
7.38045
6.69774
7.1251
7.26012
7.32574
7.36901
7.41925
7.46595
7.50963
7.55102
7.59083
7.62753
7.66018
7.68875
7.71446
7.73785
7.75912
7.77795
7.79366
7.80652
7.81761
7.82795
7.83778
7.84663
7.85437
7.86067
7.86342
7.86401
7.86129
7.85793
7.85412
7.84816
7.8416
7.83459
7.82733
7.81965
7.81126
7.80212
7.79206
7.78078
7.76847
7.75583
7.74378
7.7327
7.72197
7.71068
7.69788
7.68297
7.66635
7.64893
7.63094
7.61243
7.59366
7.57502
7.55683
7.53899
7.52128
7.5037
7.48612
7.46824
7.45002
7.43194
7.41433
7.397
7.3796
7.3622
7.34515
7.3286
7.31261
7.29681
7.28067
7.26475
7.24994
7.23621
7.22306
7.21025
7.1978
7.1856
7.17354
7.16145
7.14901
7.13611
7.12303
7.11011
7.09759
7.08569
7.07448
7.06403
7.05467
7.04664
7.03959
7.0328
7.02598
7.01948
7.01365
7.00847
7.00385
6.99976
6.99601
6.99252
6.9891
6.98564
6.98152
6.97638
6.97027
6.96322
6.95481
6.94424
6.93144
6.91698
6.90124
6.88431
6.86592
6.84621
6.82603
6.80586
6.78597
6.76695
6.74928
6.73306
6.71849
6.70579
6.6948
6.68548
6.67814
6.67269
6.67198
6.67361
6.67755
6.68149
6.68615
6.69293
6.70338
6.71742
6.7347
6.75202
6.7699
6.78862
6.81039
6.84023
6.88553
6.94979
7.03133
7.12468
7.22851
6.66305
7.09193
7.22595
7.28989
7.33178
7.38084
7.42668
7.46974
7.51051
7.54968
7.58575
7.61793
7.64661
7.6724
7.69591
7.71731
7.73638
7.7524
7.76557
7.77703
7.78781
7.79816
7.80765
7.81586
7.82196
7.82471
7.82528
7.82296
7.82002
7.8168
7.8112
7.80504
7.7984
7.79146
7.78408
7.77597
7.76712
7.75733
7.74634
7.73434
7.72198
7.7102
7.69933
7.6888
7.67769
7.66512
7.65047
7.63415
7.61704
7.59938
7.58121
7.5628
7.54451
7.52668
7.50929
7.49181
7.47453
7.45726
7.43972
7.42186
7.40412
7.38683
7.3698
7.35267
7.33554
7.31873
7.3024
7.28661
7.27099
7.25502
7.23926
7.22459
7.21096
7.1979
7.18517
7.1728
7.16067
7.14866
7.13662
7.12422
7.11137
7.09834
7.08546
7.07297
7.0611
7.0499
7.03946
7.0301
7.02206
7.01501
7.00821
7.00139
6.9949
6.9891
6.98399
6.97939
6.97534
6.97167
6.96829
6.96501
6.96169
6.9578
6.95282
6.94692
6.94006
6.93186
6.92153
6.90895
6.89468
6.87907
6.86218
6.84375
6.82394
6.80356
6.78314
6.76298
6.74369
6.72577
6.7093
6.69453
6.68165
6.6705
6.66104
6.65356
6.64801
6.64683
6.64842
6.6524
6.6565
6.66142
6.66852
6.67952
6.69335
6.71227
6.7306
6.74872
6.76595
6.78369
6.80586
6.83851
6.88471
6.944
7.01319
7.09023
6.63118
7.0611
7.19398
7.25662
7.2975
7.34565
7.39071
7.43308
7.47314
7.5114
7.54716
7.57927
7.60791
7.63374
7.65731
7.67889
7.69822
7.71454
7.72807
7.7399
7.75112
7.76197
7.77204
7.78069
7.7864
7.78898
7.78953
7.78773
7.78531
7.78236
7.77715
7.77135
7.76502
7.75835
7.75122
7.74336
7.73474
7.72518
7.71444
7.70268
7.69057
7.679
7.66832
7.65794
7.64699
7.6346
7.62017
7.60411
7.58727
7.5699
7.55203
7.53395
7.51599
7.49848
7.48144
7.46448
7.44718
7.43029
7.41311
7.39559
7.37817
7.36118
7.34443
7.32757
7.3107
7.29412
7.27801
7.26241
7.24696
7.23115
7.21554
7.20098
7.18745
7.17447
7.16181
7.14949
7.13741
7.12544
7.11343
7.10106
7.08824
7.07523
7.06236
7.04988
7.038
7.02678
7.01632
7.00692
6.99885
6.99175
6.98491
6.97806
6.97153
6.96572
6.96064
6.95604
6.95197
6.94832
6.94499
6.94179
6.93858
6.93484
6.93001
6.92427
6.91758
6.90957
6.89944
6.88706
6.87293
6.85741
6.84052
6.82202
6.80203
6.7814
6.76066
6.74014
6.72049
6.70221
6.68541
6.67033
6.65717
6.64577
6.63608
6.62837
6.62265
6.62096
6.62247
6.6263
6.63048
6.63563
6.6428
6.65393
6.66804
6.68751
6.70738
6.7263
6.74312
6.75827
6.77491
6.79786
6.82968
6.87093
6.92017
6.97604
6.60163
7.03221
7.16401
7.22572
7.26585
7.31314
7.35742
7.39906
7.43822
7.47621
7.51166
7.5436
7.57216
7.59799
7.62166
7.64342
7.66302
7.67968
7.69356
7.70579
7.71747
7.72879
7.73931
7.74816
7.75352
7.75568
7.75633
7.75501
7.75309
7.75029
7.74545
7.73996
7.73388
7.72743
7.7205
7.71283
7.70441
7.69504
7.68449
7.67294
7.66101
7.64962
7.63907
7.62881
7.61799
7.60573
7.59148
7.57562
7.55902
7.54189
7.52428
7.50649
7.48883
7.47162
7.45487
7.43822
7.42135
7.40462
7.38775
7.37056
7.35346
7.33678
7.3203
7.3037
7.28707
7.27072
7.25481
7.23939
7.2241
7.20844
7.19297
7.17852
7.16507
7.15216
7.13956
7.12728
7.11524
7.1033
7.09131
7.07895
7.06613
7.05312
7.04024
7.02774
7.01582
7.00455
6.99404
6.98458
6.97644
6.96927
6.96236
6.95543
6.94884
6.94297
6.93787
6.93331
6.92916
6.92546
6.92213
6.91897
6.91582
6.91216
6.90746
6.90186
6.89533
6.88748
6.87753
6.86533
6.85133
6.83587
6.81896
6.80034
6.78012
6.75917
6.73804
6.71708
6.69698
6.67824
6.66099
6.64549
6.63195
6.62019
6.61015
6.60211
6.59618
6.5937
6.59507
6.59874
6.60304
6.6083
6.61533
6.62645
6.64133
6.65887
6.6813
6.70172
6.71902
6.73285
6.74558
6.7612
6.78176
6.80845
6.84112
6.88012
6.57427
7.00488
7.13578
7.19706
7.23655
7.28304
7.32655
7.3673
7.40617
7.4438
7.47895
7.51073
7.53923
7.56508
7.58888
7.61086
7.63076
7.64776
7.662
7.67462
7.68673
7.6985
7.70971
7.71777
7.72274
7.72477
7.7255
7.72463
7.72314
7.72039
7.71591
7.71066
7.70478
7.6985
7.69173
7.68421
7.67592
7.6667
7.6563
7.6449
7.63312
7.62185
7.6114
7.60122
7.59047
7.57831
7.56417
7.54847
7.53204
7.51511
7.49773
7.48019
7.4628
7.44586
7.42939
7.41304
7.3966
7.37988
7.36339
7.34654
7.32974
7.31334
7.29712
7.28078
7.26439
7.24825
7.23254
7.21729
7.20215
7.18664
7.17129
7.15695
7.14358
7.13072
7.11817
7.10594
7.09392
7.082
7.07
7.05765
7.04482
7.03179
7.01888
7.00634
6.99436
6.98303
6.97243
6.96288
6.95465
6.94739
6.94038
6.93335
6.92666
6.9207
6.91554
6.91099
6.90676
6.90298
6.8996
6.89644
6.89331
6.88968
6.8851
6.87963
6.87324
6.86555
6.85577
6.84373
6.82985
6.81442
6.79747
6.7787
6.75823
6.73691
6.71532
6.69385
6.6732
6.65391
6.63611
6.62008
6.60605
6.59382
6.58331
6.57483
6.56861
6.56509
6.56618
6.56949
6.57391
6.57911
6.58652
6.59687
6.6107
6.62836
6.6523
6.67434
6.6928
6.70657
6.7167
6.72717
6.73951
6.75496
6.77498
6.80154
6.55036
6.98064
7.11086
7.17161
7.21055
7.25605
7.29893
7.33943
7.37796
7.41528
7.45021
7.48187
7.51034
7.53627
7.56022
7.58244
7.60262
7.61995
7.63452
7.64749
7.65995
7.67201
7.68383
7.6911
7.69501
7.69729
7.69807
7.69754
7.6964
7.69367
7.68946
7.68439
7.67865
7.67249
7.66582
7.6584
7.65022
7.64107
7.63076
7.61946
7.60777
7.59657
7.58616
7.57601
7.56528
7.55314
7.53906
7.52344
7.50712
7.49032
7.47311
7.45576
7.43859
7.42187
7.40563
7.38953
7.37341
7.35685
7.34067
7.3241
7.30757
7.29143
7.27546
7.25934
7.24316
7.22723
7.21169
7.1966
7.1816
7.16623
7.15099
7.13673
7.12343
7.11062
7.09811
7.08591
7.07391
7.06198
7.04999
7.03761
7.02476
7.0117
6.99874
6.98614
6.97408
6.96266
6.95196
6.94231
6.93396
6.92659
6.91947
6.91231
6.90549
6.89941
6.89415
6.88955
6.88533
6.88142
6.87795
6.87475
6.87162
6.86797
6.8635
6.85814
6.85189
6.84435
6.83473
6.82284
6.80907
6.79368
6.77667
6.75775
6.73699
6.71527
6.69319
6.67115
6.64989
6.62998
6.61155
6.59489
6.58027
6.56747
6.5564
6.54736
6.54074
6.5361
6.53668
6.5392
6.5439
6.54934
6.55592
6.56521
6.57862
6.59653
6.62111
6.64432
6.66439
6.67916
6.688
6.6947
6.70173
6.71021
6.72202
6.73979
6.53027
6.96001
7.08959
7.1498
7.18785
7.23304
7.27565
7.31586
7.35413
7.39122
7.42601
7.45761
7.48611
7.51214
7.53627
7.55871
7.57917
7.59679
7.61165
7.62486
7.63755
7.64975
7.66137
7.66858
7.67196
7.67367
7.6744
7.67439
7.67346
7.6707
7.66668
7.66172
7.65607
7.64997
7.64336
7.636
7.62785
7.61875
7.60847
7.5972
7.58554
7.57434
7.56392
7.55374
7.54298
7.53081
7.51672
7.50111
7.48482
7.46809
7.45097
7.43375
7.41673
7.40019
7.38414
7.36822
7.35229
7.33605
7.32003
7.30369
7.28741
7.2715
7.25574
7.23982
7.22383
7.20807
7.19268
7.17772
7.16285
7.14758
7.13245
7.11827
7.10502
7.09225
7.07976
7.06757
7.05558
7.04365
7.03163
7.01923
7.00634
6.99324
6.98022
6.96754
6.95539
6.94386
6.93305
6.92328
6.91481
6.90731
6.90005
6.89276
6.8858
6.87958
6.87421
6.86951
6.86525
6.8613
6.8577
6.85443
6.85126
6.84758
6.8432
6.83797
6.83185
6.82445
6.81499
6.80325
6.78959
6.77424
6.75718
6.7381
6.71707
6.69494
6.67236
6.64973
6.62784
6.60726
6.58814
6.57081
6.55552
6.54208
6.53037
6.52069
6.5135
6.50828
6.50749
6.50928
6.51388
6.5188
6.52511
6.53393
6.5468
6.56352
6.58825
6.61258
6.63429
6.65059
6.65995
6.66411
6.66852
6.67331
6.67974
6.69009
6.51327
6.94286
7.07188
7.13086
7.16883
7.21379
7.25616
7.29616
7.33426
7.37121
7.40592
7.43752
7.4661
7.49225
7.51654
7.53921
7.55993
7.57781
7.59288
7.60624
7.61903
7.63129
7.64246
7.64932
7.65257
7.65405
7.65456
7.65456
7.65399
7.65117
7.64725
7.64233
7.63673
7.63067
7.62407
7.61673
7.60858
7.59947
7.58917
7.57788
7.56619
7.55495
7.54448
7.53422
7.52338
7.51112
7.49694
7.48127
7.46495
7.44821
7.43112
7.41397
7.39705
7.38063
7.3647
7.34894
7.33317
7.31714
7.30127
7.28513
7.26905
7.25334
7.23776
7.22201
7.20617
7.19055
7.1753
7.16046
7.14568
7.13051
7.11546
7.10134
7.08813
7.07538
7.06291
7.05073
7.03872
7.02678
7.01473
7.00229
6.98936
6.97619
6.9631
6.95033
6.93808
6.92644
6.9155
6.90559
6.89699
6.88935
6.88195
6.87451
6.8674
6.86104
6.85552
6.8507
6.84636
6.84237
6.8387
6.83533
6.83205
6.82839
6.82409
6.81896
6.81297
6.80573
6.79642
6.78484
6.77129
6.75599
6.73889
6.71967
6.69838
6.67587
6.65279
6.62957
6.60703
6.58575
6.56591
6.54785
6.53185
6.5177
6.50529
6.49491
6.48705
6.48149
6.47876
6.48
6.48385
6.48854
6.49465
6.50268
6.51477
6.53151
6.55257
6.57906
6.60237
6.62066
6.63181
6.63531
6.63881
6.64167
6.64494
6.65029
6.4987
6.9275
7.05618
7.11508
7.153
7.19779
7.23999
7.27988
7.31788
7.35475
7.38944
7.42108
7.44975
7.47602
7.50048
7.52334
7.54429
7.56239
7.57762
7.59106
7.60384
7.61608
7.62688
7.63313
7.63616
7.63751
7.63802
7.63806
7.63738
7.63464
7.63073
7.62583
7.62024
7.61417
7.60756
7.60019
7.59201
7.58285
7.57249
7.56113
7.54937
7.53803
7.52745
7.51709
7.5061
7.4937
7.47938
7.46359
7.44716
7.43035
7.41322
7.39608
7.37919
7.36284
7.34699
7.33133
7.31567
7.2998
7.28405
7.26807
7.25216
7.2366
7.22116
7.20555
7.18984
7.17435
7.1592
7.14445
7.12975
7.11465
7.09967
7.08559
7.0724
7.05967
7.0472
7.03501
7.02299
7.01101
6.99892
6.98643
6.97344
6.9602
6.94703
6.93415
6.92179
6.91001
6.89893
6.88888
6.88012
6.87233
6.86478
6.85717
6.84989
6.84336
6.8377
6.83274
6.82827
6.82421
6.82049
6.81704
6.81365
6.81
6.80576
6.80073
6.79487
6.78777
6.77863
6.76721
6.75378
6.73854
6.72143
6.70209
6.68057
6.65769
6.63411
6.6103
6.58709
6.56509
6.54448
6.52563
6.50885
6.49395
6.48077
6.46959
6.46099
6.45492
6.45048
6.45085
6.45355
6.45801
6.46405
6.47164
6.48184
6.49626
6.51656
6.54342
6.56787
6.58823
6.60205
6.60672
6.61001
6.61204
6.61363
6.616
6.48626
6.91421
7.04279
7.10174
7.13961
7.18435
7.22651
7.26633
7.30429
7.34113
7.37583
7.40753
7.43629
7.46271
7.48734
7.51038
7.53152
7.54979
7.56516
7.57864
7.59141
7.60382
7.61358
7.61957
7.62216
7.62349
7.624
7.6241
7.62321
7.62051
7.61659
7.61167
7.60606
7.59995
7.59331
7.58589
7.57765
7.56841
7.55795
7.54647
7.53459
7.52312
7.51239
7.50186
7.4907
7.47811
7.46359
7.4476
7.43101
7.41407
7.39685
7.37966
7.36275
7.34641
7.33061
7.31501
7.29942
7.28363
7.26799
7.25214
7.23636
7.22092
7.20559
7.19009
7.17449
7.15908
7.14402
7.12934
7.1147
7.09966
7.08472
7.07067
7.0575
7.04477
7.03229
7.02008
7.00803
6.99602
6.98387
6.97132
6.95825
6.94493
6.93165
6.91866
6.90617
6.89424
6.88301
6.87279
6.86387
6.85592
6.8482
6.84041
6.83294
6.82624
6.8204
6.81528
6.81068
6.8065
6.8027
6.79919
6.79574
6.79208
6.78789
6.78296
6.77723
6.77028
6.76131
6.75006
6.73678
6.72163
6.70453
6.68512
6.66339
6.64015
6.61611
6.59171
6.56782
6.54507
6.52366
6.50396
6.48635
6.47062
6.4566
6.44456
6.4351
6.42826
6.42319
6.42128
6.4228
6.4273
6.4324
6.43893
6.44787
6.46105
6.47909
6.50521
6.53031
6.55248
6.56935
6.57724
6.58001
6.58135
6.58225
6.58398
6.47545
6.90234
7.03103
7.09024
7.12813
7.17286
7.21505
7.2549
7.29287
7.32972
7.36446
7.39623
7.4251
7.45165
7.47645
7.49967
7.52098
7.53938
7.55484
7.56834
7.58104
7.59384
7.6023
7.60764
7.61038
7.6115
7.61198
7.6121
7.61102
7.60831
7.60434
7.59938
7.59373
7.58758
7.58087
7.57338
7.56505
7.5557
7.54511
7.53349
7.52144
7.50979
7.49888
7.48816
7.47678
7.46394
7.44918
7.43294
7.41612
7.399
7.38164
7.36434
7.34737
7.331
7.3152
7.29961
7.28407
7.26831
7.25277
7.23702
7.22133
7.20598
7.19074
7.17532
7.1598
7.14447
7.12948
7.11485
7.10026
7.08527
7.07036
7.05633
7.04316
7.03042
7.01793
7.00569
6.99361
6.98154
6.96934
6.95671
6.94356
6.93014
6.91675
6.90364
6.891
6.87892
6.86751
6.85712
6.84802
6.8399
6.832
6.82403
6.81636
6.80946
6.80344
6.79816
6.79339
6.78908
6.78518
6.78161
6.77813
6.77447
6.77033
6.76551
6.75992
6.75313
6.74435
6.7333
6.7202
6.70518
6.68813
6.66868
6.64679
6.62326
6.59877
6.57381
6.54926
6.52575
6.5035
6.48293
6.46444
6.44782
6.4329
6.41993
6.40955
6.40186
6.39623
6.39203
6.39253
6.39564
6.40015
6.40611
6.4136
6.42544
6.44195
6.4633
6.48987
6.51329
6.53273
6.54494
6.548
6.55044
6.55194
6.55335
6.46611
6.89219
7.02114
7.08077
7.11863
7.16346
7.20572
7.24564
7.28366
7.32056
7.35534
7.38718
7.41616
7.44284
7.46778
7.49118
7.51262
7.5311
7.54661
7.56015
7.5727
7.58544
7.59372
7.59812
7.6003
7.6015
7.60202
7.60215
7.60091
7.59813
7.5941
7.58908
7.58338
7.57717
7.57039
7.56281
7.55436
7.54487
7.53413
7.52233
7.51008
7.49823
7.4871
7.47615
7.46452
7.45141
7.43634
7.41982
7.40274
7.38537
7.36783
7.35038
7.33331
7.31687
7.30103
7.28542
7.2699
7.25411
7.23866
7.22297
7.20735
7.19206
7.17687
7.16151
7.14606
7.13078
7.11584
7.10125
7.0867
7.07173
7.05686
7.04284
7.02966
7.01691
7.00439
6.99212
6.98
6.96788
6.95561
6.94291
6.92967
6.91615
6.90265
6.8894
6.87661
6.86437
6.85279
6.84222
6.83295
6.82466
6.81657
6.8084
6.80053
6.79343
6.78722
6.78176
6.77684
6.77238
6.76838
6.76474
6.76124
6.7576
6.75352
6.74882
6.74337
6.73675
6.72818
6.71735
6.70446
6.68962
6.67269
6.65327
6.63128
6.60752
6.58266
6.5572
6.53202
6.5078
6.48474
6.46329
6.4439
6.42639
6.41055
6.39664
6.3853
6.37671
6.37023
6.36519
6.36308
6.36471
6.36909
6.37455
6.38093
6.38983
6.40359
6.42318
6.44878
6.47241
6.49361
6.5096
6.51665
6.51903
6.52034
6.52208
6.45828
6.8838
7.01298
7.07295
7.11114
7.15622
7.19863
7.23866
7.27676
7.31369
7.34846
7.38034
7.4094
7.43619
7.46124
7.48475
7.50628
7.52482
7.54033
7.55388
7.56637
7.5787
7.5867
7.59087
7.59274
7.59355
7.59403
7.59429
7.59286
7.58999
7.58589
7.58081
7.57504
7.56875
7.56188
7.5542
7.54563
7.53598
7.52506
7.51306
7.50059
7.48851
7.47716
7.46595
7.45405
7.44063
7.42525
7.40841
7.39102
7.3734
7.35564
7.33801
7.3208
7.30426
7.28834
7.27269
7.25716
7.24128
7.22589
7.21024
7.19465
7.17939
7.16424
7.14892
7.1335
7.11826
7.10334
7.08878
7.07425
7.0593
7.04443
7.03042
7.01723
7.00445
6.9919
6.9796
6.96744
6.95526
6.94293
6.93015
6.91682
6.9032
6.88958
6.8762
6.86327
6.85087
6.83912
6.82837
6.81893
6.81046
6.80219
6.79382
6.78575
6.77845