/*--------------------------------*- C++ -*----------------------------------*\
| =========                 |                                                 |
| \\      /  F ield         | OpenFOAM: The Open Source CFD Toolbox           |
|  \\    /   O peration     | Version:  2212                                  |
|   \\  /    A nd           | Website:  www.openfoam.com                      |
|    \\/     M anipulation  |                                                 |
\*---------------------------------------------------------------------------*/
FoamFile
{
    version     2.0;
    format      ascii;
    arch        "LSB;label=32;scalar=64";
    class       volVectorField;
    location    "0.088";
    object      U;
}
// * * * * * * * * * * * * * * * * * * * * * * * * * * * * * * * * * * * * * //

dimensions      [0 1 -1 0 0 0 0];

internalField   nonuniform List<vector> 
44662
(
(141.481 707.981 -4.46881e-17)
(26.4303 100.28 -5.75137e-20)
(27.3439 99.3757 -2.2193e-16)
(25.3158 99.452 2.73599e-16)
(26.2898 99.3032 1.63582e-20)
(219.277 649.323 -7.06587e-17)
(98.8642 676.921 -4.19336e-18)
(223.713 642.99 -2.17466e-16)
(39.6678 90.6862 1.12346e-16)
(-20.6082 308.651 0)
(209.344 657.415 1.41197e-16)
(18.9094 32.708 -7.63236e-17)
(-104.344 674.767 6.95729e-17)
(68.6528 77.3511 1.05981e-16)
(5.54322 9.673 0)
(19.5668 35.8217 1.75613e-17)
(-7.88009 12.1905 4.3514e-16)
(12.0277 14.5771 2.51913e-16)
(-67.2828 263.029 -1.33599e-18)
(7.63027 686.603 -5.71321e-17)
(3.08468 354.456 6.64678e-17)
(-8.86027 13.0075 -1.45034e-16)
(-13.2845 473.444 4.65894e-17)
(-14.6989 217.972 -1.05188e-16)
(-60.623 290.979 -5.32451e-17)
(96.1074 174.913 -2.30963e-16)
(117.683 675.9 -2.16726e-19)
(133.915 559.204 -8.37741e-17)
(83.5898 742.718 6.97552e-18)
(123.098 562.334 -9.46115e-17)
(-40.171 89.5492 9.86548e-17)
(3.25495 383.128 -1.1832e-17)
(-23.7568 52.9478 1.11156e-16)
(190.663 589.764 -2.39744e-16)
(-11.5399 214.168 -5.03483e-17)
(-17.3862 223.115 4.71329e-17)
(34.6364 47.3795 1.3083e-16)
(31.1963 42.0119 -2.22169e-16)
(82.3425 227.417 0)
(-39.3089 81.431 -1.09054e-16)
(-35.9047 78.2252 1.11891e-16)
(39.4244 53.71 -5.75129e-17)
(-64.6744 460.303 -2.04515e-16)
(-89.2179 141.416 -1.08572e-16)
(13.0102 419.396 5.4243e-17)
(-164.268 665.06 8.0854e-18)
(19.3006 411.632 2.52822e-17)
(-56.926 208.933 6.03052e-17)
(34.1779 295.322 -1.03167e-16)
(-84.583 141.756 -3.14855e-16)
(-26.1048 94.7058 -1.16463e-16)
(21.1971 413.408 -2.55389e-17)
(84.5416 101.641 -1.64013e-19)
(-115.386 322.753 3.05308e-17)
(-22.3901 301.912 4.92926e-17)
(199.532 669.745 0)
(74.5045 85.3366 -1.11873e-16)
(88.9844 489.425 1.06601e-16)
(-151.449 650.56 -1.5497e-16)
(-153.596 646.622 0)
(210.703 663.748 -1.41408e-20)
(-120.106 377.577 -8.02082e-17)
(38.6778 273.453 0)
(-88.433 100.022 -1.04363e-16)
(-9.45386 320.577 4.90592e-17)
(203.949 657.077 -2.03781e-16)
(-161.875 533.967 8.60846e-17)
(-157.802 513.678 -1.61439e-16)
(95.3948 118.642 0)
(55.4935 491.743 9.44468e-17)
(-146.498 382.555 0)
(-146.096 530.642 1.02661e-16)
(93.9575 226.858 2.87063e-16)
(204.651 653.697 8.06028e-17)
(61.6118 497.358 8.98428e-17)
(-26.763 69.7916 -3.13256e-17)
(279.454 576.146 -1.74585e-16)
(-146.748 648.98 -2.30943e-16)
(-161.045 644.353 1.52406e-16)
(168.662 535.871 -1.00793e-16)
(-178.997 670.153 1.72976e-17)
(68.6003 502.896 -9.42213e-17)
(-37.6311 95.0875 1.28139e-16)
(56.2775 476.301 4.00548e-17)
(-185.254 674.855 -4.22642e-17)
(-34.8227 91.0094 0)
(75.7705 508.411 2.77545e-16)
(-6.5039 94.5308 5.00877e-17)
(-12.5505 346.48 -5.72856e-18)
(-84.3206 672.379 1.33617e-16)
(92.4319 521.129 -8.03961e-19)
(83.3706 513.733 -9.47433e-17)
(57.1162 185.194 1.77336e-16)
(290.253 583.758 7.47031e-17)
(14.3955 419.865 -5.64743e-17)
(-5.40157 362.356 2.46719e-17)
(166.102 554.919 -8.33061e-17)
(13.9152 416.009 2.57586e-17)
(1.30761 377.111 -2.1035e-17)
(-42.364 131.975 -2.01582e-16)
(2.10082 772.496 5.86921e-18)
(11.8737 93.83 7.06733e-17)
(-164.585 670.429 2.59869e-19)
(232.456 566.272 1.94606e-18)
(-112.558 675.261 -3.57867e-17)
(105.468 526.79 8.85245e-19)
(-120.359 675.558 1.80709e-17)
(203.853 668.372 0)
(50.3951 109.973 -2.00532e-16)
(-70.3591 751.981 2.53972e-17)
(-128.275 675.632 -1.84675e-17)
(-51.9149 85.1524 0)
(12.6617 93.8648 -1.58046e-17)
(5.0144 198.614 0)
(217.081 585.186 1.47796e-16)
(-136.479 675.205 1.58937e-17)
(-169.25 642.245 -1.42516e-16)
(34.0576 92.6745 5.61577e-17)
(177.326 472.006 1.28204e-18)
(-144.373 675.073 -6.26504e-17)
(-51.9889 79.6918 4.79589e-20)
(-140.407 671.941 -1.89543e-16)
(163.349 620.659 1.58812e-16)
(-152.016 675.196 1.57446e-16)
(-145.652 669.286 -7.20692e-17)
(-3.16801 87.1189 -5.65068e-17)
(-159.408 675.062 -3.69549e-17)
(-151.228 666.896 -1.14775e-18)
(-22.7995 94.0091 -1.20817e-16)
(-166.726 674.659 9.03343e-18)
(-156.927 664.651 0)
(-156.681 599.133 -2.26356e-18)
(210.295 651.163 -3.45415e-19)
(-156.697 632.199 -1.33289e-16)
(-173.976 673.862 -2.07924e-17)
(-162.415 662.427 7.62326e-17)
(-170.758 627.67 3.73415e-20)
(-170.006 625.37 -8.70608e-17)
(-181.137 672.897 -4.17672e-18)
(-167.269 660.273 -7.95666e-17)
(-157.293 619.055 -7.67091e-17)
(-188.089 671.843 1.67218e-18)
(-63.8801 472.39 5.06341e-17)
(-68.2058 474.119 -9.99009e-17)
(-194.75 670.607 1.38402e-19)
(-22.862 93.5572 -1.90218e-16)
(-30.8457 93.6575 -2.49176e-16)
(-30.5459 93.1067 2.88121e-17)
(6.49054 86.9864 3.6314e-17)
(28.8411 120.52 0)
(-40.7138 83.0739 0)
(25.3273 95.8516 -7.99738e-17)
(-196.154 666.461 0)
(-77.7088 472.561 1.72554e-16)
(-12.3422 87.8891 -1.45476e-17)
(7.21236 87.4777 1.51844e-17)
(49.6143 81.0435 0)
(2.43723 772.324 2.95479e-18)
(2.65111 770.107 1.79103e-20)
(2.85857 767.269 -1.49273e-18)
(3.07236 763.768 1.5203e-18)
(3.33014 759.527 -1.51139e-18)
(3.64028 754.491 1.98517e-19)
(4.03972 748.595 -3.86088e-19)
(4.52348 741.794 -1.61626e-18)
(5.09067 734.072 1.62499e-18)
(5.69184 725.435 4.05416e-20)
(6.31131 715.948 4.64292e-20)
(6.87663 705.725 -8.3616e-19)
(7.36109 694.927 1.10014e-19)
(7.73169 683.762 -5.62567e-20)
(7.9736 672.463 1.89745e-18)
(8.0574 661.284 -1.79911e-18)
(7.97609 650.473 -1.96826e-18)
(7.73082 640.244 1.86348e-18)
(7.34438 630.776 0)
(6.83916 622.191 1.54796e-20)
(6.2542 614.554 1.06263e-18)
(5.62552 607.88 4.98322e-20)
(4.98471 602.138 -2.17151e-18)
(4.3525 597.265 1.26875e-18)
(3.74621 593.178 0)
(3.18816 589.785 1.05439e-18)
(2.69767 586.993 -2.07686e-18)
(2.2948 584.713 0)
(1.9638 582.864 -5.33197e-19)
(1.70104 581.373 -1.43489e-19)
(1.49335 580.181 1.05064e-18)
(1.3284 579.237 0)
(1.19108 578.497 -1.05862e-18)
(1.07076 577.928 0)
(0.964844 577.501 -5.33862e-19)
(0.871995 577.197 -2.69983e-19)
(0.789523 576.996 5.30019e-19)
(0.719472 576.885 5.32002e-19)
(0.650666 576.855 1.51964e-18)
(0.597843 576.899 -1.09972e-18)
(0.554118 577.008 1.06746e-18)
(0.509346 577.144 -2.6729e-19)
(0.466552 577.33 8.00744e-19)
(0.428421 577.57 -1.07064e-18)
(0.392739 577.852 1.07028e-18)
(0.358471 578.172 2.1908e-22)
(0.324644 578.526 -2.14085e-18)
(0.291783 578.912 1.12651e-21)
(0.260998 579.327 2.14005e-18)
(0.796414 578.92 2.14568e-18)
(0.826633 579.334 -4.28501e-18)
(0.76361 578.536 -1.07165e-18)
(-90.7084 326.927 2.52696e-17)
(2.21565 773.987 0)
(3.6129 771.485 0)
(2.25575 773.264 2.96343e-18)
(0.234276 579.77 -1.60777e-18)
(0.212898 580.239 -1.06733e-18)
(0.890245 580.245 0)
(0.857094 579.776 1.60679e-18)
(0.681029 577.866 -3.21284e-18)
(0.725547 578.184 2.14485e-18)
(0.570316 577.348 -1.06918e-18)
(0.629555 577.585 5.75588e-22)
(0.414472 577.035 -2.13632e-18)
(0.495987 577.167 1.60294e-18)
(0.200422 576.887 -9.88381e-22)
(0.323958 576.929 2.26803e-18)
(-0.109442 577.052 -1.06406e-18)
(0.0548917 576.931 -1.00017e-18)
(-0.561992 577.588 -5.3191e-19)
(-0.306072 577.266 1.06576e-18)
(-1.29748 578.641 2.12032e-18)
(-0.886445 578.039 -1.0592e-18)
(-2.45833 580.422 5.31158e-19)
(-1.81642 579.424 -1.59124e-18)
(-4.17964 583.236 -1.57073e-18)
(-3.24196 581.675 -6.55347e-20)
(-6.58924 587.519 -1.04119e-18)
(-5.28904 585.16 2.09598e-18)
(-9.79993 593.858 -9.85442e-19)
(-8.08626 590.389 2.75976e-20)
(-13.8174 602.937 0)
(-11.7201 598.013 1.07038e-18)
(-18.1908 615.354 1.97485e-18)
(-16.0128 608.7 -1.05088e-18)
(-21.9597 631.383 -9.47563e-19)
(-20.2203 622.92 -1.03707e-18)
(-24.0549 650.697 1.90743e-18)
(-23.2724 640.678 6.58664e-20)
(-23.7847 672.234 -1.43783e-20)
(-24.227 661.283 -9.5983e-19)
(-21.2475 694.32 1.70943e-18)
(-22.762 683.326 -1.73634e-18)
(-17.2461 715.124 -8.22932e-19)
(-19.3624 704.988 0)
(-12.7759 733.184 1.66374e-18)
(-15.0252 724.562 6.86564e-20)
(-8.42196 747.757 0)
(-10.5674 740.921 -1.61511e-18)
(-4.42994 758.841 7.4029e-19)
(-6.35417 753.72 9.51453e-19)
(-1.08391 766.786 4.44783e-18)
(-2.65606 763.182 3.00422e-18)
(0.26521 769.714 -2.97378e-18)
(6.93293 766.183 -1.49269e-18)
(5.17071 769.148 -2.96398e-18)
(11.1898 758.153 -3.85809e-19)
(8.93036 762.543 -1.50395e-18)
(16.5639 746.912 -2.35137e-18)
(13.7414 752.957 1.60335e-18)
(22.9691 732.155 1.59643e-18)
(19.6736 739.971 -4.56499e-19)
(29.7384 714.059 4.35431e-19)
(26.3681 723.49 0)
(35.6503 693.472 -6.87712e-19)
(32.9006 703.994 -4.19451e-19)
(39.2561 671.868 8.85779e-19)
(37.8251 682.691 -4.42583e-21)
(39.5149 650.946 -9.67977e-19)
(39.8443 661.218 0)
(36.3087 632.183 -1.0094e-18)
(38.3065 641.224 9.33227e-19)
(30.5968 616.474 -2.00402e-18)
(33.6764 623.916 1.98178e-18)
(23.893 604.101 2.29447e-18)
(27.2757 609.874 -1.11125e-19)
(17.5096 594.86 -2.03435e-18)
(20.6018 599.115 1.34393e-18)
(12.2248 588.273 1.05525e-18)
(14.7026 591.27 0)
(8.31207 583.768 -5.03777e-19)
(10.1024 585.796 5.38077e-19)
(5.60377 580.799 -1.09746e-20)
(6.82407 582.122 -1.97328e-18)
(3.79148 578.917 1.06237e-18)
(4.60749 579.746 1.57904e-18)
(2.56739 577.792 5.32583e-19)
(3.12087 578.276 0)
(1.72756 577.203 -1.59595e-18)
(2.10947 577.441 8.01053e-19)
(1.13638 577.008 -1.03248e-18)
(1.40668 577.064 1.06654e-18)
(0.716851 577.132 5.33763e-19)
(0.9039 577.035 1.33358e-19)
(0.374758 577.436 3.73972e-18)
(0.538581 577.261 -1.73516e-18)
(0.110782 577.943 1.07058e-18)
(0.235465 577.665 -3.74232e-18)
(-0.110506 578.608 1.07121e-18)
(-0.00368983 578.258 1.07069e-18)
(-0.302676 579.402 3.21047e-18)
(-0.210145 578.99 1.20792e-21)
(-0.463633 580.307 1.06808e-18)
(-0.387203 579.842 -1.60688e-18)
(1.29176 579.017 5.36331e-18)
(1.38481 579.425 -1.07193e-18)
(1.19087 578.64 -3.21954e-18)
(139.717 405.605 9.93446e-17)
(-90.7113 335.551 3.13507e-17)
(5.38158 769.439 1.50915e-18)
(2.81977 771.504 -2.9626e-18)
(0.925158 580.738 2.34972e-21)
(1.5614 580.328 -2.14026e-18)
(1.64896 580.818 -4.26682e-18)
(-1.12842 580.453 -1.60296e-18)
(-0.532862 580.796 -1.06881e-18)
(-1.25149 580.935 0)
(1.06716 774.509 -2.95828e-18)
(1.98784 775.14 -2.95387e-18)
(1.47417 579.862 2.13725e-18)
(0.948913 577.987 -1.07125e-18)
(1.07717 578.296 1.07205e-18)
(0.629654 577.498 0)
(0.802884 577.717 -5.34522e-19)
(0.205 577.211 5.34246e-19)
(0.42636 577.335 -8.01871e-19)
(-0.350184 577.127 -5.66563e-19)
(-0.0425056 577.13 -1.336e-19)
(-1.15493 577.385 -1.42256e-21)
(-0.712857 577.211 9.99405e-19)
(-2.35009 578.077 -5.28494e-19)
(-1.68941 577.666 -2.67844e-19)
(-4.19377 579.387 -2.63931e-18)
(-3.17204 578.641 -1.05933e-18)
(-7.00844 581.564 -6.25597e-21)
(-5.46128 580.348 2.62589e-18)
(-11.1045 584.924 1.04547e-18)
(-8.8802 583.072 -9.86237e-19)
(-16.7536 589.867 -1.52379e-18)
(-13.7205 587.17 1.08186e-20)
(-24.0991 596.869 0)
(-20.2096 593.079 -1.01948e-18)
(-32.9156 606.395 -1.03984e-18)
(-28.3648 601.294 1.02245e-18)
(-42.1424 618.716 0)
(-37.5831 612.199 6.39249e-20)
(-49.8999 633.86 3.78278e-21)
(-46.3371 625.943 0)
(-54.1882 651.577 9.73679e-19)
(-52.5872 642.425 -9.35929e-19)
(-53.7284 671.246 5.17898e-19)
(-54.5823 661.225 -4.59691e-19)
(-48.631 691.777 0)
(-51.6981 681.49 2.85059e-20)
(-40.3093 711.706 0)
(-44.7535 701.914 0)
(-30.7039 729.575 -8.02572e-19)
(-35.5628 720.973 -8.24824e-19)
(-21.2464 744.449 1.23939e-21)
(-25.9024 737.414 1.62538e-18)
(-12.6621 756.109 7.79286e-19)
(-16.8012 750.676 7.77008e-19)
(-5.46807 764.718 -3.78442e-18)
(-8.85546 760.783 -5.32487e-18)
(-2.51827 767.95 -2.9957e-18)
(79.3204 742.766 1.38847e-17)
(0.195673 580.732 3.20188e-18)
(11.6677 763.498 2.99899e-18)
(8.31978 766.795 -1.50829e-18)
(19.7142 754.731 3.82571e-19)
(15.4619 759.493 -7.7396e-19)
(29.6005 742.784 -7.83459e-19)
(24.4461 749.163 7.7226e-19)
(40.9144 727.605 -4.20373e-19)
(35.1435 735.577 8.10545e-19)
(52.4032 709.738 0)
(46.7384 718.957 0)
(62.1325 690.262 4.36878e-19)
(57.6334 700.112 -4.48068e-19)
(67.91 670.619 -1.39594e-18)
(65.6321 680.375 9.32198e-19)
(68.3246 652.034 -1.48578e-20)
(68.8316 661.134 4.23945e-19)
(63.2981 635.293 0)
(66.4305 643.404 0)
(54.2155 620.751 -4.86913e-19)
(59.1396 627.733 5.06974e-19)
(43.2292 608.579 3.89396e-19)
(48.8217 614.363 6.39631e-20)
(32.3921 598.827 -1.74789e-20)
(37.6912 603.402 -1.02258e-18)
(23.0602 591.4 0)
(27.4833 594.834 1.01642e-18)
(15.8306 586.045 5.29308e-19)
(19.1769 588.486 -5.28255e-19)
(10.6235 582.378 -5.30269e-19)
(12.9951 584.027 0)
(7.03356 579.99 -1.05885e-18)
(8.65731 581.048 1.04798e-18)
(4.59408 578.523 0)
(5.69669 579.16 1.05533e-18)
(2.93408 577.715 3.9908e-19)
(3.68596 578.05 -7.97381e-19)
(1.78581 577.383 5.66224e-19)
(2.3087 577.499 -5.33221e-19)
(0.972866 577.415 0)
(1.3406 577.355 -6.67829e-20)
(0.356417 577.68 -2.6736e-19)
(0.655172 577.53 2.94644e-22)
(-0.133173 578.143 1.60398e-18)
(0.0929977 577.884 -2.66922e-19)
(-0.521392 578.786 -5.36553e-19)
(-0.33578 578.446 -1.35241e-21)
(-0.849914 579.563 0)
(-0.692169 579.159 0)
(-0.994918 579.995 -5.34817e-19)
(0.596373 773.017 0)
(2.35893 580.974 -2.13761e-18)
(2.21788 580.49 4.279e-18)
(1.7618 579.208 -1.07399e-18)
(1.92284 579.605 2.14174e-18)
(1.5849 578.845 -3.75746e-18)
(-0.596338 581.307 -2.13316e-18)
(-1.36584 581.44 1.06673e-18)
(3.02648 774.938 -1.52413e-18)
(-1.28046 774.084 4.4788e-18)
(0.0532567 775.353 7.43571e-18)
(1.77765 775.919 -7.25779e-19)
(2.49432 581.482 -2.13098e-18)
(3.04464 581.211 -2.13546e-18)
(3.23379 581.71 0)
(-0.832433 775.964 0)
(-2.90247 774.846 -5.97242e-18)
(2.07421 580.033 -4.28027e-18)
(1.16108 578.227 5.37534e-19)
(1.38602 578.516 1.07356e-18)
(0.587638 577.803 0)
(0.896842 577.986 1.07299e-18)
(-0.140474 577.57 0)
(0.243936 577.665 0)
(-1.14903 577.618 -4.66569e-19)
(-0.597357 577.548 0)
(-2.60529 578.072 -5.33626e-19)
(-1.80748 577.788 1.06618e-18)
(-4.76924 579.082 1.59726e-18)
(-3.57704 578.495 -2.45632e-21)
(-8.04117 580.888 2.13234e-18)
(-6.23684 579.868 5.34254e-19)
(-12.8982 583.789 0)
(-10.2462 582.183 -4.21472e-18)
(-19.7116 588.09 -2.0858e-18)
(-16.029 585.746 0)
(-28.6844 594.086 2.11243e-18)
(-23.9174 590.861 0)
(-39.7892 602.038 4.97675e-19)
(-33.9818 597.805 1.05265e-18)
(-52.3991 612.065 0)
(-45.9809 606.798 1.04009e-18)
(-64.9229 624.017 0)
(-58.8096 617.816 0)
(-75.0449 637.675 -3.84857e-21)
(-70.4326 630.642 0)
(-80.5505 652.945 -4.88743e-19)
(-78.4915 645.11 4.62576e-19)
(-80.0209 669.768 -5.03607e-19)
(-81.0809 661.172 4.55622e-19)
(-73.4237 687.816 0)
(-77.4245 678.681 -2.80112e-20)
(-62.1923 706.195 0)
(-68.2548 697.042 -4.47443e-19)
(-48.6329 723.583 1.71898e-18)
(-55.5611 715.097 -4.12544e-19)
(-34.7718 738.817 -4.40306e-19)
(-41.647 731.517 8.17127e-19)
(-21.8574 751.356 -3.88739e-18)
(-28.1309 745.438 0)
(-10.8101 761.02 2.99656e-18)
(-16.04 756.558 3.80649e-18)
(13.2908 312.224 -2.3546e-18)
(-6.20245 764.744 1.48053e-18)
(0.959846 581.253 4.26504e-18)
(0.181204 581.246 0)
(1.73328 581.331 2.13483e-18)
(-4.37305 773.045 -6.00771e-18)
(0.944026 770.563 -4.48238e-18)
(-1.92412 772.017 1.19982e-17)
(8.14243 766.101 -4.54166e-18)
(4.29477 768.616 0)
(17.5155 759.158 7.68871e-19)
(12.532 762.973 3.01513e-18)
(29.3296 749.293 7.96923e-19)
(23.1209 754.603 -7.66108e-19)
(43.3762 736.408 1.48515e-18)
(36.117 743.215 -2.40257e-18)
(58.7474 720.862 1.22638e-18)
(50.9909 728.924 -1.23894e-18)
(73.5931 703.608 2.21389e-19)
(66.3704 712.377 0)
(85.5543 685.928 -6.55783e-19)
(80.0931 694.735 4.519e-19)
(92.3781 669.031 4.78789e-19)
(89.7154 677.328 -4.67644e-19)
(92.8303 653.533 -4.63558e-19)
(93.4278 661.095 5.10545e-19)
(87.0487 639.455 -4.6049e-19)
(90.6615 646.328 5.0077e-19)
(76.3695 626.614 5.0751e-19)
(82.2026 632.887 -7.56128e-21)
(62.8806 614.995 3.71412e-19)
(69.8336 620.641 -1.0624e-18)
(48.8147 604.829 1.24575e-19)
(55.7951 609.711 0)
(35.944 596.406 0)
(42.1439 600.384 -5.259e-19)
(25.3429 589.877 0)
(30.3269 592.906 2.53853e-19)
(17.2795 585.141 -5.94365e-19)
(21.0023 587.3 0)
(11.4817 581.912 2.70414e-19)
(14.1271 583.359 -9.27785e-21)
(7.44505 579.846 2.6319e-19)
(9.27684 580.754 -1.06055e-18)
(4.67585 578.636 1.28527e-21)
(5.93016 579.15 5.30798e-19)
(2.77035 578.045 2.66272e-19)
(3.63584 578.276 -2.66792e-19)
(1.43306 577.902 -2.67119e-19)
(2.04465 577.926 0)
(0.47625 578.093 -4.01084e-19)
(0.922769 577.968 4.67463e-19)
(-0.292901 578.473 -1.07103e-18)
(0.0666944 578.254 1.33675e-18)
(-0.881591 579.07 -7.77601e-22)
(-0.604371 578.75 5.3456e-19)
(-1.36395 579.816 -4.02001e-19)
(-1.13332 579.426 -8.43074e-22)
(-1.76983 580.682 6.39823e-22)
(-1.57528 580.235 0)
(-2.11706 581.648 -1.33557e-19)
(-1.94982 581.153 1.33338e-19)
(-4.37241 775.317 0)
(-6.53049 773.746 -4.50954e-18)
(3.82987 773.878 0)
(2.84598 580.739 -1.07125e-18)
(3.62104 775.726 7.80384e-19)
(2.6214 582.009 4.26595e-18)
(3.41109 582.229 -2.1343e-18)
(3.69418 581.539 4.28552e-18)
(3.94242 582.022 4.26985e-18)
(-2.84119 581.938 2.66805e-19)
(-2.27374 582.164 0)
(-3.0505 582.441 -8.00804e-19)
(1.60562 776.441 -2.59508e-18)
(-1.63701 776.267 0)
(-5.58928 775.497 0)
(1.91319 579.167 1.61436e-18)
(2.17925 579.507 5.37517e-19)
(2.41908 579.884 0)
(-8.40804 774.16 6.02109e-18)
(3.10512 768.838 1.46578e-18)
(4.00409 771.899 -2.95728e-18)
(2.63916 580.295 0)
(1.25594 578.618 0)
(1.61135 578.866 0)
(0.38111 578.286 2.67835e-19)
(0.840436 578.429 0)
(-0.762148 578.178 -2.67193e-19)
(-0.144663 578.194 -2.67714e-19)
(-2.39291 578.453 -3.34242e-19)
(-1.50437 578.26 5.34322e-19)
(-4.75812 579.253 0)
(-3.46241 578.776 0)
(-8.24767 580.797 -2.66487e-19)
(-6.33198 579.915 -2.64702e-21)
(-13.4064 583.389 2.65915e-19)
(-10.581 581.94 -2.63107e-19)
(-20.7834 587.355 -7.68973e-19)
(-16.7923 585.184 2.13356e-18)
(-30.6044 592.905 1.06283e-18)
(-25.3701 589.921 -2.64056e-19)
(-42.7904 600.128 5.15626e-19)
(-36.4242 596.311 -2.55469e-19)
(-56.8835 608.977 -1.04628e-18)
(-49.6382 604.358 1.736e-18)
(-71.8313 619.21 5.01726e-19)
(-64.3528 613.95 -2.48587e-19)
(-85.7363 630.352 -2.62481e-19)
(-79.0535 624.696 4.89541e-19)
(-96.4472 642.098 0)
(-91.6174 636.154 -2.50414e-19)
(-102.133 654.557 1.05047e-20)
(-100.013 648.215 -2.27894e-19)
(-101.602 668.134 0)
(-102.68 661.176 2.40484e-19)
(-94.6194 683.164 -5.65677e-19)
(-98.8858 675.467 1.94162e-19)
(-82.1527 699.38 1.10781e-18)
(-88.9643 691.17 6.61543e-19)
(-66.238 715.794 -1.85041e-18)
(-74.4821 707.643 -1.98244e-18)
(-49.0891 731.17 3.97125e-19)
(-57.6955 723.675 2.1206e-19)
(-32.3526 744.682 2.76394e-20)
(-40.5574 738.2 4.09395e-19)
(-17.5877 755.624 3.13631e-18)
(-24.6291 750.507 3.08902e-18)
(33.6631 91.9477 0)
(-11.2789 759.991 0)
(8.47362 87.6572 5.74707e-17)
(-0.656705 581.837 1.46532e-18)
(-1.47337 581.964 -5.33073e-19)
(0.99202 581.787 -2.13721e-18)
(0.167318 581.779 -2.12958e-18)
(1.81236 581.864 3.18724e-21)
(-10.503 772.205 -6.06278e-18)
(-4.97385 770.463 1.40129e-20)
(-7.94404 771.497 4.54955e-18)
(2.47094 767.006 -1.50174e-18)
(-1.52812 768.991 -6.04833e-18)
(12.315 761.373 1.48484e-18)
(7.07469 764.488 -3.06577e-18)
(24.8959 753.111 2.34294e-18)
(18.2456 757.596 0)
(40.3128 741.95 0)
(32.2653 747.895 -1.54986e-18)
(57.8684 728.17 -5.58865e-21)
(48.886 735.358 -1.98173e-20)
(76.035 712.596 8.30651e-19)
(67.0021 720.535 -1.06892e-18)
(92.5547 696.52 -4.38205e-19)
(84.6456 704.54 0)
(105.105 681.199 4.05545e-19)
(99.4645 688.695 4.34787e-19)
(111.939 667.418 0)
(109.3 674.102 -4.484e-19)
(112.413 655.173 0)
(112.966 661.13 5.90384e-20)
(106.84 643.926 -5.09772e-19)
(110.332 649.462 -7.55816e-21)
(96.2463 633.119 -2.51335e-19)
(102.084 638.493 4.8798e-19)
(82.1775 622.526 1.28419e-19)
(89.5371 627.791 3.07573e-19)
(66.4912 612.373 -6.94531e-21)
(74.416 617.366 -6.13799e-20)
(51.0433 603.165 1.30469e-19)
(58.6305 607.616 2.48255e-19)
(37.3401 595.405 0)
(43.9068 599.081 -5.17217e-19)
(26.1871 589.347 -1.60246e-19)
(31.4232 592.159 2.00093e-19)
(17.7151 584.954 1.37381e-19)
(21.6311 586.955 -1.28839e-19)
(11.5883 581.986 -2.67396e-19)
(14.3894 583.311 0)
(7.2929 580.134 -2.62944e-19)
(9.24472 580.94 -8.90172e-22)
(4.32181 579.11 5.00128e-19)
(5.67026 579.534 -2.00898e-19)
(2.2572 578.684 1.33392e-19)
(3.1978 578.834 -4.00024e-19)
(0.801863 578.692 -1.33953e-19)
(1.46462 578.639 -6.69718e-20)
(-0.295888 578.976 5.3485e-19)
(0.222977 578.812 -2.67446e-19)
(-1.15513 579.48 0)
(-0.755253 579.198 -5.36232e-19)
(-1.82296 580.174 -1.34036e-19)
(-1.50602 579.808 0)
(-2.3739 581.001 2.68171e-19)
(-2.1107 580.573 0)
(-2.61652 581.457 -2.67104e-19)
(-10.0256 774.291 -3.78945e-18)
(-12.7592 772.624 6.06884e-18)
(5.26856 774.822 -1.1104e-18)
(3.43051 581.084 -1.06694e-18)
(2.51253 579.932 2.68517e-18)
(2.84926 580.278 -5.37324e-19)
(2.12787 579.63 0)
(4.17423 582.528 0)
(-2.42116 582.699 -2.66707e-19)
(-3.24627 582.965 8.00422e-19)
(0.723305 764.562 3.02353e-18)
(6.59255 770.574 -5.97393e-18)
(5.463 766.897 0)
(4.13389 776.286 -1.47539e-18)
(1.46548 776.629 2.68113e-18)
(-2.28115 776.297 1.49547e-18)
(-6.66314 775.427 -6.0201e-18)
(-11.4178 774.186 5.28208e-18)
(-14.7173 772.764 0)
(6.39641 773.154 4.4389e-18)
(3.15126 580.663 -1.0727e-18)
(1.15743 579.209 -1.87521e-18)
(1.67831 579.388 0)
(-0.0994763 578.994 -1.34075e-19)
(0.572725 579.07 -1.34244e-19)
(-1.84201 579.132 -7.52397e-22)
(-0.893996 579.013 2.67653e-19)
(-4.3504 579.774 -1.325e-19)
(-2.9815 579.378 -2.67851e-19)
(-7.99134 581.128 1.32397e-19)
(-6.00045 580.346 -6.60414e-20)
(-13.2777 583.478 1.31544e-19)
(-10.3915 582.158 -1.33415e-19)
(-20.8392 587.172 2.06531e-18)
(-16.7368 585.135 -1.33075e-19)
(-31.1354 592.486 2.21776e-18)
(-25.6398 589.62 -1.29583e-19)
(-43.9973 599.407 1.27226e-19)
(-37.2768 595.755 5.06196e-19)
(-58.8372 607.711 -1.99061e-18)
(-51.2298 603.407 -1.30589e-19)
(-74.7158 617.05 0)
(-66.7127 612.276 -2.0931e-18)
(-90.3231 626.94 -2.60124e-19)
(-82.6653 621.966 -3.66565e-19)
(-103.844 636.809 3.02556e-20)
(-97.4552 631.903 -4.55027e-21)
(-113.712 646.449 0)
(-109.315 641.65 0)
(-118.785 656.148 0)
(-116.904 651.257 1.49439e-20)
(-118.239 666.606 -2.37651e-19)
(-119.238 661.234 2.31661e-19)
(-111.702 678.508 -4.51224e-21)
(-115.721 672.341 1.4145e-19)
(-99.4893 692.136 -9.71294e-19)
(-106.248 685.117 0)
(-82.9224 706.989 5.25348e-20)
(-91.639 699.469 1.80929e-18)
(-63.9086 722.032 -5.3123e-20)
(-73.6035 714.549 -2.27231e-21)
(-44.3108 736.229 -4.07205e-20)
(-54.006 729.32 8.04717e-19)
(-26.1471 748.505 -3.06495e-18)
(-34.9024 742.678 -6.64497e-19)
(-11.0365 757.973 8.83307e-20)
(-18.1538 753.609 0)
(-4.74777 761.61 3.05798e-18)
(-0.714433 582.386 1.16511e-18)
(-1.57517 582.508 -2.66569e-19)
(1.02119 582.339 -2.1331e-18)
(0.152968 582.33 1.59763e-18)
(2.73919 582.555 1.06639e-18)
(1.8853 582.414 1.06765e-18)
(4.38924 583.054 2.13286e-18)
(3.57572 582.767 0)
(-17.2712 770.783 -6.09356e-18)
(-11.6945 769.578 -5.33501e-18)
(-14.6683 770.31 1.14422e-17)
(-4.31621 766.887 3.02976e-18)
(-8.28466 768.461 -4.56223e-18)
(5.53214 762.216 -7.81546e-19)
(0.279725 764.826 3.05047e-18)
(18.2662 755.139 -2.35589e-18)
(11.5206 758.998 4.6802e-18)
(34.0429 745.398 -1.56627e-18)
(25.7693 750.618 1.59188e-18)
(52.6124 732.987 7.99543e-19)
(43.0298 739.503 -1.22881e-18)
(72.6478 718.654 1.01864e-19)
(62.5688 725.986 -1.56553e-21)
(92.1017 703.637 4.23425e-19)
(82.5983 711.14 -2.28687e-19)
(108.641 689.331 -2.17211e-19)
(100.872 696.317 1.13039e-19)
(120.472 676.691 -6.02409e-20)
(115.23 682.766 0)
(126.651 665.978 7.34435e-19)
(124.28 671.11 -2.0608e-19)
(127.18 656.697 2.41624e-19)
(127.592 661.201 -4.93293e-19)
(122.458 648.104 7.49253e-21)
(125.433 652.375 -2.36527e-19)
(113.154 639.417 -2.5647e-19)
(118.333 643.804 0)
(100.104 630.268 0)
(107.033 634.906 2.43072e-19)
(84.4908 620.732 -1.29459e-19)
(92.5283 625.526 3.19788e-21)
(67.8396 611.276 -5.74943e-21)
(76.1898 615.953 -1.37582e-19)
(51.8105 602.568 1.30802e-19)
(59.6542 606.788 2.5784e-19)
(37.7117 595.177 4.8722e-19)
(44.4605 598.682 -3.23938e-19)
(26.2643 589.399 3.98878e-19)
(31.6407 592.08 -1.24887e-19)
(17.5453 585.225 -1.33115e-19)
(21.5788 587.122 -2.61045e-19)
(11.2147 582.438 -1.30113e-19)
(14.1126 583.676 3.98195e-19)
(6.7559 580.745 6.65621e-20)
(8.78501 581.473 -1.21742e-21)
(3.65296 579.865 0)
(5.06438 580.219 0)
(1.47869 579.568 0)
(2.47206 579.656 0)
(-0.0753366 579.687 -4.0209e-19)
(0.646173 579.586 6.66947e-20)
(-1.27104 580.055 1.33766e-19)
(-0.703842 579.845 0)
(-2.19153 580.656 0)
(-1.76365 580.329 -1.33817e-19)
(-2.91982 581.424 2.01115e-19)
(-2.57427 581.022 3.35004e-20)
(-3.52574 582.317 -2.67319e-19)
(-3.23562 581.857 2.67993e-19)
(-4.04268 583.31 -2.671e-19)
(-3.79377 582.803 5.35564e-19)
(-16.3974 772.66 5.35028e-18)
(-19.5482 770.969 0)
(9.56366 768.667 5.97202e-18)
(9.56865 771.819 2.96882e-18)
(6.50801 775.498 -7.39626e-19)
(4.28995 581.969 0)
(4.60571 582.428 -2.14593e-18)
(3.949 581.542 1.07538e-18)
(4.60472 776.528 4.48527e-18)
(4.58778 583.598 0)
(5.16976 583.422 -2.13817e-18)
(5.41928 583.949 0)
(-4.79945 583.74 2.00789e-19)
(-4.27456 583.837 6.0156e-19)
(-5.08571 584.247 -2.6832e-19)
(7.94215 764.366 0)
(13.0772 769.922 -2.95936e-18)
(12.5943 766.215 -6.0227e-18)
(1.28237 776.63 -5.95292e-18)
(-2.88785 776.113 3.00729e-18)
(-7.58846 775.158 6.78024e-18)
(-12.6208 773.882 7.6235e-19)
(-17.8608 772.355 -1.22186e-17)
(3.17171 580.809 -1.07513e-18)
(2.69793 580.518 -1.62102e-18)
(2.14514 580.292 1.07318e-18)
(-21.4986 770.895 0)
(8.40939 774.014 3.67228e-19)
(4.89876 582.914 -4.2775e-18)
(3.57968 581.153 0)
(0.79732 580.014 2.15793e-18)
(1.51831 580.127 5.38965e-19)
(-1.03027 580.045 -5.34075e-19)
(-0.0336494 579.977 0)
(-3.63011 580.562 -2.00887e-19)
(-2.21147 580.23 1.33761e-19)
(-7.38139 581.776 1.3444e-19)
(-5.33423 581.068 6.70357e-20)
(-12.7681 583.95 6.68059e-20)
(-9.83549 582.724 6.67111e-20)
(-20.3711 587.408 1.03588e-18)
(-16.2552 585.497 0)
(-30.7668 592.474 -2.10707e-18)
(-25.1957 589.724 0)
(-44.0889 599.243 8.87713e-21)
(-37.0931 595.659 -3.3018e-20)
(-59.5637 607.37 9.33481e-19)
(-51.6142 603.17 -5.955e-19)
(-75.9522 616.269 2.09177e-18)
(-67.7125 611.755 2.04868e-18)
(-92.1579 625.459 6.17532e-20)
(-84.157 620.859 0)
(-106.874 634.408 2.43109e-19)
(-99.7997 629.999 4.48109e-19)
(-118.753 642.676 9.28676e-20)
(-113.236 638.638 -2.47063e-19)
(-126.947 650.251 -1.19343e-19)
(-123.347 646.531 0)
(-130.939 657.539 0)
(-129.497 653.9 1.06385e-19)
(-130.322 665.301 0)
(-131.241 661.303 -1.85558e-21)
(-124.649 674.329 1.75488e-19)
(-128.146 669.606 5.72292e-20)
(-113.701 685.232 9.19901e-19)
(-119.827 679.527 4.6654e-19)
(-97.9663 698.013 0)
(-106.368 691.417 0)
(-78.6785 712.041 8.77311e-19)
(-88.6781 704.918 0)
(-57.4781 726.383 1.70474e-18)
(-68.1837 719.245 4.33369e-19)
(-36.6193 739.737 0)
(-46.839 733.285 -1.57859e-18)
(-18.3647 750.72 -3.17115e-18)
(-27.0752 745.58 0)
(-3.52978 758.895 4.67808e-18)
(-10.5008 755.165 -9.24667e-18)
(2.58991 761.941 0)
(-2.55979 583.253 0)
(-3.42967 583.508 -6.0114e-19)
(-0.769943 582.951 2.99515e-19)
(-1.67147 583.068 -7.9797e-19)
(1.0467 582.907 0)
(0.137837 582.897 -5.34701e-19)
(2.84763 583.117 -2.12801e-18)
(1.95176 582.979 0)
(3.72801 583.322 0)
(-24.3988 768.939 -1.23499e-17)
(-18.883 768.136 -7.74855e-19)
(-21.8307 768.682 6.16055e-18)
(-11.6629 766.076 -7.63868e-19)
(-15.5341 767.299 7.75198e-19)
(-2.02748 762.17 3.11419e-18)
(-7.17438 764.387 -1.52206e-18)
(10.4926 756.039 7.68117e-19)
(3.83938 759.409 -3.08484e-18)
(26.2486 747.359 7.77448e-19)
(17.9579 752.036 -2.34264e-18)
(44.9814 736.147 -1.64853e-18)
(35.2722 742.057 0)
(65.8726 722.841 -7.84499e-19)
(55.2508 729.702 3.90158e-18)
(87.0789 708.562 -1.10931e-19)
(76.5868 715.727 -8.02472e-19)
(106.254 694.796 6.66237e-19)
(97.0513 701.532 -2.22096e-19)
(121.497 682.708 2.22196e-19)
(114.453 688.494 -7.74701e-19)
(131.811 672.777 -3.60812e-21)
(127.294 677.474 0)
(137.081 664.767 -2.61079e-19)
(135.061 668.566 3.22321e-19)
(137.718 657.974 0)
(137.958 661.261 -2.94612e-20)
(134.18 651.608 -2.46194e-19)
(136.461 654.8 2.43179e-19)
(126.743 644.914 1.28313e-19)
(130.93 648.337 -1.15093e-19)
(115.705 637.444 0)
(121.653 641.293 0)
(101.56 629.078 -1.23037e-19)
(108.974 633.366 1.5905e-19)
(85.2339 620.07 -6.5949e-20)
(93.5906 624.623 -1.29235e-19)
(68.1344 611.005 -3.14558e-20)
(76.6849 615.5 6.2837e-22)
(51.7869 602.592 -3.83557e-21)
(59.7781 606.674 -1.3058e-19)
(37.4585 595.433 -1.28896e-19)
(44.314 598.827 2.91455e-19)
(25.821 589.841 2.01502e-19)
(31.2864 592.434 6.39817e-20)
(16.9458 585.824 6.5135e-20)
(21.0526 587.645 -1.97084e-19)
(10.4872 583.176 -1.6672e-19)
(13.4452 584.346 -3.68876e-22)
(5.92414 581.61 1.33148e-19)
(8.00319 582.276 -1.00476e-19)
(2.73261 580.844 -1.66335e-20)
(4.18688 581.143 0)
(0.485567 580.647 1.68132e-19)
(1.51301 580.689 -1.34305e-19)
(-1.14888 580.853 -2.68783e-19)
(-0.386192 580.711 0)
(-2.41383 581.292 6.70954e-20)
(-1.82149 581.039 2.68827e-19)
(-3.37896 581.967 -6.7046e-20)
(-2.92859 581.607 -3.35464e-20)
(-4.15362 582.797 2.68189e-19)
(-3.78546 582.366 -6.68905e-20)
(-4.48995 583.256 0)
(-23.21 770.62 0)
(-26.6355 768.927 1.2363e-17)
(12.1314 772.634 2.96135e-18)
(7.62871 775.864 6.9511e-19)
(4.80138 582.516 1.07335e-18)
(5.20142 582.94 -1.07438e-18)
(4.36081 582.131 0)
(2.6472 581.325 5.39858e-19)
(3.30297 581.522 -1.61102e-18)
(1.899 581.179 -1.28213e-20)
(5.90386 583.877 4.8657e-21)
(6.21193 584.381 0)
(-4.49118 584.383 2.82836e-19)
(-5.35156 584.774 -1.67565e-20)
(16.6668 767.531 5.90468e-18)
(16.161 770.763 -3.01346e-18)
(4.98157 776.516 -1.47469e-18)
(1.1299 776.389 4.47207e-18)
(-3.3942 775.742 -6.0265e-18)
(-8.36859 774.719 0)
(-13.6557 773.413 7.58061e-19)
(-19.1329 771.881 6.12798e-18)
(-24.68 770.167 5.76639e-19)
(-28.5689 768.704 -6.00392e-18)
(10.212 774.593 -1.48163e-18)
(5.5679 583.395 4.53267e-21)
(3.87001 581.793 -1.07665e-18)
(0.0156661 581.137 1.60603e-18)