/*--------------------------------*- C++ -*----------------------------------*\
| =========                 |                                                 |
| \\      /  F ield         | OpenFOAM: The Open Source CFD Toolbox           |
|  \\    /   O peration     | Version:  2212                                  |
|   \\  /    A nd           | Website:  www.openfoam.com                      |
|    \\/     M anipulation  |                                                 |
\*---------------------------------------------------------------------------*/
FoamFile
{
    version     2.0;
    format      ascii;
    arch        "LSB;label=32;scalar=64";
    class       volScalarField;
    location    "5.7e-05";
    object      T;
}
// * * * * * * * * * * * * * * * * * * * * * * * * * * * * * * * * * * * * * //

dimensions      [0 0 0 1 0 0 0];

internalField   nonuniform List<scalar> 
10556
(
69.4004
70.3505
70.0501
70.5733
70.6895
70.8519
70.8443
70.3478
69.8957
69.5675
69.8047
69.9619
70.2576
70.238
69.9479
69.8009
70.0228
70.4628
70.4318
70.1722
70.1574
70.4544
71.598
76.0653
86.248
80.8401
80.7526
80.5198
80.7644
80.6803
80.5641
80.2904
80.1861
80.0994
79.9133
79.9328
79.9626
79.9527
79.9223
79.659
79.5812
79.5934
80.0705
79.8418
79.577
79.5787
79.8856
81.0185
85.9845
97.3935
75.6058
75.197
74.8156
74.8457
74.7532
74.509
74.2646
74.3231
74.6191
74.5961
74.4949
74.4095
74.2329
74.2496
74.1621
74.2478
74.1327
74.3227
73.9722
73.8129
73.8996
74.1596
75.6314
80.2786
92.9373
75.1417
75.1747
74.5631
74.5908
74.4687
74.1318
73.9666
74.0574
74.3993
74.5573
74.4247
74.2722
74.0532
74.1002
74.0976
74.1832
74.0578
74.0055
73.7061
73.6095
73.7347
73.866
75.1918
79.6871
93.28
74.4305
74.3933
73.9702
73.9246
73.7352
73.4459
73.3517
73.4376
73.6967
73.9973
73.8615
73.6828
73.5083
73.5253
73.5452
73.5254
73.4316
73.2542
72.9979
72.9573
73.0294
73.2217
74.2148
78.7678
91.951
74.4032
74.1016
73.902
73.7496
73.5473
73.3385
73.2837
73.3581
73.546
73.9327
73.785
73.6098
73.477
73.4992
73.5299
73.4343
73.3906
73.0839
72.9164
72.8867
72.938
73.129
73.9481
78.5054
91.6057
74.1694
73.8476
73.8043
73.6454
73.4444
73.2399
73.2091
73.2946
73.4503
73.6081
73.6035
73.4835
73.4129
73.4293
73.3933
73.3271
73.3133
72.9492
72.8387
72.8444
72.9096
73.0702
73.7723
78.3042
91.2233
74.0328
73.7237
73.7394
73.6292
73.4343
73.2501
73.2058
73.2923
73.4484
73.5078
73.4784
73.4205
73.3769
73.3677
73.3403
73.3065
73.1637
72.961
72.8229
72.8419
72.9115
73.0723
73.7572
78.2404
91.0717
73.8291
73.5912
73.6918
73.6286
73.3799
73.2604
73.2073
73.3011
73.432
73.4645
73.4549
73.393
73.3394
73.3319
73.3051
73.2639
73.1321
72.972
72.8201
73.0208
73.115
73.1424
73.8237
78.3317
90.9259
73.7405
73.5996
73.6545
73.5829
73.3544
73.2566
73.2165
73.254
73.3795
73.4813
73.5009
73.3927
73.3424
73.3286
73.2931
73.2583
73.147
72.98
72.9162
73.1784
73.2234
73.2898
74.1212
78.6907
90.8464
73.7302
73.5966
73.7394
73.5341
73.3726
73.2493
73.2447
73.3128
73.313
73.441
73.4769
73.4327
73.4217
73.4351
73.4719
73.3543
73.1665
72.9799
73.0381
73.2961
73.336
73.435
74.3164
78.8029
90.89
73.7929
73.7569
73.949
73.7364
73.3961
73.311
73.3562
73.448
73.4899
73.4733
73.5097
73.5454
73.5595
73.5798
73.5977
73.4858
73.1752
73.0174
73.0997
73.3604
73.4166
73.5909
74.5122
78.8728
90.9399
73.9962
74.0626
74.1095
73.9471
73.6275
73.5678
73.6178
73.727
73.7289
73.6143
73.5756
73.7702
73.7575
73.7144
73.7457
74.0061
73.3506
73.1616
73.2519
73.5336
73.6774
73.768
74.582
79.0589
90.9832
74.1886
74.3043
74.3441
74.1636
73.9777
73.9569
74.0285
74.1432
74.1179
73.9202
73.82
74.0096
74.0417
73.9611
73.9738
74.6335
73.7224
73.4803
73.538
73.7281
73.9041
73.9052
74.7208
79.2241
91.1092
74.3381
74.4615
74.4928
74.3626
74.3041
74.3852
74.4869
74.5621
74.5623
74.4004
74.1947
74.2942
74.3883
74.2811
74.2944
74.7396
74.6642
74.1841
74.0321
74.0704
74.0385
74.1509
74.8782
79.3835
91.3191
74.5086
74.7116
74.7368
74.6492
74.7324
74.8673
75.0074
75.062
75.0084
74.8087
74.5978
74.559
74.7005
74.6259
74.5469
74.94
75.1298
75.0723
74.9182
74.7844
74.3791
74.3861
75.034
79.5387
91.4591
74.8346
75.0512
75.0768
75.0074
75.1811
75.291
75.47
75.5149
75.4068
75.183
75.0243
74.8879
75.0227
74.9707
74.9045
75.1922
75.304
75.3237
75.463
75.6759
75.4534
74.6384
75.2448
79.736
91.6524
75.1802
75.2368
75.3269
75.4149
75.6288
75.699
75.8816
75.8744
75.7272
75.6174
75.4925
75.3366
75.3397
75.2647
75.3354
75.3645
75.5343
75.6204
75.6865
75.8399
75.742
75.3272
75.5461
80.0081
91.9388
75.5325
75.5784
75.6769
75.7825
76.0673
76.2101
76.2947
76.2484
76.0636
75.9758
75.8848
75.7766
75.7005
75.6622
75.7283
75.6576
75.8419
76.0157
76.0665
76.0945
75.9473
76.1749
75.9295
80.3464
92.3545
75.8479
75.9484
76.051
76.2365
76.562
76.691
76.7241
76.6462
76.4428
76.3456
76.2085
76.1514
76.0308
76.1081
76.1061
76.0516
76.1544
76.3933
76.4972
76.3382
76.2185
76.3522
76.393
80.7191
92.7907
76.2938
76.4473
76.4671
76.733
77.1093
77.1905
77.1455
77.0267
76.9049
76.742
76.6002
76.4879
76.4287
76.465
76.5086
76.3699
76.5063
76.7156
76.8515
76.5889
76.6112
76.5858
76.9053
81.1472
93.2489
76.724
76.9076
77.0064
77.2483
77.5793
77.6632
77.6012
77.4387
77.2584
77.1574
77.0787
76.9512
76.8226
76.886
76.9231
76.7765
76.8707
77.0498
77.1286
76.8632
76.8079
76.8968
77.3571
81.642
93.7453
77.1612
77.4383
77.5925
77.7535
78.0841
78.0804
78.0025
77.8703
77.7719
77.6409
77.4859
77.3931
77.29
77.3173
77.3125
77.2127
77.1671
77.358
77.3664
77.3444
77.0154
77.2017
77.8642
82.1746
94.2654
77.5897
77.9024
78.1218
78.2504
78.5053
78.5307
78.4014
78.2792
78.1426
78.071
77.9985
77.8488
77.7369
77.7978
77.8595
77.6564
77.5484
77.7537
77.6231
77.6145
77.1427
77.4753
78.9255
82.677
94.7406
78.4079
78.5047
78.6275
78.8373
79.023
78.9802
78.8524
78.7412
78.6846
78.6579
78.4861
78.3615
78.3222
78.3373
78.3835
78.1346
78.0678
78.2016
78.2258
77.9956
77.5436
77.8823
79.2724
83.1653
95.1504
79.968
79.1335
79.2312
79.3367
79.3788
79.3968
79.2949
79.1921
79.1362
79.0658
78.9972
78.9632
78.8795
78.8813
78.9176
78.6873
78.7416
78.738
78.6144
78.4736
78.26
78.4604
79.5875
83.6997
95.5697
80.438
79.7947
79.7884
79.8079
79.8129
79.7872
79.7181
79.6498
79.6028
79.6092
79.5809
79.5246
79.4875
79.4606
79.4202
79.2602
79.3111
79.1712
78.9592
78.895
78.7742
79.0659
79.9246
84.252
96.057
80.7997
80.4271
80.2798
80.2374
80.174
80.1837
80.1714
80.1078
80.0531
80.0104
79.9638
80.0389
80.0429
80.0191
79.9205
79.8254
79.8145
79.6093
79.4141
79.2741
79.3153
79.4435
80.1491
84.741
96.5546
81.0995
80.9934
80.74
80.6198
80.5192
80.4939
80.5433
80.4991
80.449
80.4299
80.4241
80.5161
80.5478
80.4758
80.384
80.3221
80.2679
80.0535
79.8864
79.6736
79.8112
79.767
80.402
85.1267
97.0268
81.5251
81.6012
81.2856
81.0464
80.8808
80.8394
80.9078
80.9131
80.8696
80.8198
80.8593
80.9902
81.0469
80.8751
80.8159
80.7731
80.6284
80.4096
80.2861
80.076
80.2975
80.1367
80.6948
85.5328
97.5187
81.9911
82.2523
81.8847
81.5378
81.3753
81.2984
81.3335
81.3701
81.3569
81.3632
81.4185
81.5372
81.5248
81.3167
81.2289
81.1712
81.0153
80.7484
80.6138
80.487
80.672
80.579
81.0469
86.0154
98.0642
82.4737
82.8989
82.4297
82.0802
81.8378
81.7482
81.8128
81.8462
81.8515
81.8773
81.9583
82.0938
82.0042
81.7815
81.6508
81.5783
81.4144
81.1006
80.9272
80.9212
81.0943
81.0806
81.572
86.6454
98.7631
82.9068
83.3354
82.9839
82.595
82.3769
82.2591
82.27
82.3486
82.414
82.4978
82.6248
82.6065
82.4532
82.2079
82.0703
82.0171
81.7797
81.5007
81.3465
81.3654
81.5828
81.6126
82.172
87.7066
100.091
83.5495
83.5502
83.4374
83.1256
82.9023
82.8083
82.8202
82.8951
83.0355
83.1866
83.2943
83.2012
82.9257
82.6945
82.585
82.5321
82.2203
81.9914
81.8973
81.9196
82.0952
82.2251
82.7966
88.1629
100.454
84.1523
84.1476
83.9018
83.7148
83.4905
83.3911
83.4064
83.5103
83.7099
83.8912
83.9158
83.7639
83.438
83.181
83.0795
83.0349
82.753
82.5438
82.3966
82.5356
82.5988
82.901
83.4868
88.4766
100.708
84.8834
84.5367
84.39
84.3288
84.1392
84.0134
84.0312
84.1617
84.4239
84.582
84.5172
84.244
83.9189
83.6722
83.573
83.5396
83.3537
83.1557
82.9737
83.0267
83.1469
83.5155
84.1563
88.8195
100.944
85.1329
84.749
84.8147
84.9304
84.8069
84.6827
84.7105
84.8618
85.1299
85.2039
85.0364
84.7558
84.4158
84.2436
84.2106
84.1263
83.9946
83.8698
83.7097
83.6734
83.8333
84.1096
84.7867
89.2704
101.152
85.3615
85.0021
85.2387
85.4443
85.4444
85.4034
85.455
85.5982
85.7767
85.7388
85.5014
85.1524
85.3076
85.1548
84.8166
84.7303
84.6063
84.517
84.5836
84.4626
84.5482
84.6997
85.388
89.7847
101.377
85.5134
85.2547
85.5857
85.9417
86.0737
86.1183
86.1998
86.3139
86.3607
86.1972
85.9022
85.6452
86.6347
86.5565
85.3081
85.2474
85.1303
85.1187
85.2068
85.2302
85.215
85.2728
85.981
90.3164
101.669
85.645
85.5642
85.9569
86.369
86.6568
86.8147
86.9052
86.9344
86.8432
86.6073
86.2934
86.0915
86.7413
86.6946
85.8082
85.745
85.7258
85.7656
85.8322
85.8885
85.8477
85.8378
86.5713
90.8861
102.047
86.0498
86.103
86.4677
86.9008
87.2593
87.4847
87.5751
87.4964
87.2441
86.9645
86.7029
86.6079
86.9282
86.9032
86.3978
86.2655
86.238
86.3511
86.4666
86.4554
86.4546
86.3908
87.1074
91.5121
102.506
86.9354
87.1027
87.3023
87.683
88.0175
88.1506
88.1952
88.0339
87.6752
87.347
87.2039
87.2732
87.1925
87.1798
86.9485
86.7678
86.7645
86.8796
87.0667
87.0421
86.9752
86.8747
87.5941
92.1393
103.029
88.896
89.2629
89.4225
89.6289
89.6522
88.9136
88.7604
88.529
88.1732
87.8404
87.8101
87.9717
87.5631
87.521
87.5071
87.3607
87.4024
87.509
87.6212
87.6252
87.5166
87.3418
88.0685
92.7253
103.614
90.0648
90.2107
90.2565
90.3248
90.4324
90.4884
89.3554
89.0415
88.7004
88.4208
88.4566
88.5686
88.0761
88.0107
88.2057
88.0247
88.0693
88.1505
88.1971
88.1632
88.0019
88.0484
88.4919
93.2843
104.244
90.6949
90.7808
90.7629
90.6721
90.6829
90.8433
90.6894
90.0299
89.5675
89.0169
89.1079
89.1078
88.5922
88.4957
88.7849
88.6993
88.7115
88.7084
88.7583
88.6236
88.4364
89.1743
88.9151
93.8824
104.91
91.4656
91.5273
91.342
91.1152
90.9904
91.047
91.2809
91.2773
91.0239
89.6126
89.7307
89.6474
89.1062
88.9941
89.4256
89.3957
89.4108
89.3245
89.241
89.0644
88.9253
89.3
89.3214
94.5112
105.605
92.2948
92.1264
91.9029
91.6352
91.4451
91.3416
91.4337
91.3718
91.1839
90.2372
90.3447
90.2374
89.6057
89.516
90.0592
90.1224
90.07
89.8953
89.7453
89.526
89.3976
89.5018
89.8334
95.1914
106.364
92.8521
92.6179
92.3664
92.0957
91.8106
91.6685
91.6821
91.5831
91.4618
90.9432
90.9902
90.82
90.1217
90.0773
90.7211
90.8231
90.7476
90.5052
90.294
90.0571
89.8513
89.8092
90.4842
95.9415
107.154
93.4431
93.1071
92.7637
92.517
92.2258
92.0456
92.004
91.8788
91.8016
91.7336
91.6594
91.36
90.7439
90.7419
91.3526
91.5257
91.4268
91.137
90.8534
90.6452
90.3964
90.2302
91.2126
96.6988
107.909
93.7849
93.5814
93.254
92.9675
92.7392
92.5618
92.4562
92.2903
92.2311
92.4547
92.2654
91.8371
91.4191
91.4282
91.9498
92.131
92.0051
91.71
91.4082
91.2137
90.9692
90.7748
91.9154
97.4322
108.593
94.1709
93.9573
93.706
93.4977
93.3226
93.1832
93.0465
92.8516
92.8088
93.1227
92.8383
92.385
92.0695
92.1305
92.4729
92.6048
92.5148
92.2197
91.9501
91.763
91.5124
91.3681
92.5846
98.1716
109.264
94.3587
94.2076
94.0233
93.9064
93.8023
93.7053
93.567
93.3806
93.3998
93.6909
93.3545
92.907
92.7244
92.7535
92.9049
92.9573
92.9296
92.6829
92.4725
92.2607
92.0791
91.9698
93.2741
98.8622
109.919
94.519
94.392
94.2795
94.2051
94.1638
94.1004
93.9723
93.8037
93.8414
94.1641
93.8335
93.3974
93.3505
93.3251
93.2866
93.2825
93.2879
93.0939
92.9424
92.7439
92.6598
92.764
93.9655
99.4803
110.714
94.6067
94.5296
94.494
94.508
94.5068
94.4653
94.3341
94.1978
94.2753
94.5881
94.2906
93.9337
93.9326
93.8277
93.6394
93.5789
93.6175
93.5113
93.411
93.2287
93.2771
93.9301
94.7671
100.182
111.828
94.7811
94.7171
94.7105
94.7842
94.8503
94.8312
94.7488
94.6516
94.7519
94.9969
94.7472
94.4355
94.5086
94.332
94.0072
93.903
93.9573
93.9041
93.899
93.7587
93.8974
94.2609
95.7272
101.052
112.403
95.1791
95.1129
95.1398
95.1798
95.2462
95.2201
95.1986
95.1608
95.2596
95.3126
95.2188
95.0076
95.0744
94.8467
94.4774
94.3126
94.3554
94.3409
94.3639
94.2864
94.4632
94.5533
96.5721
101.841
112.699
95.7473
95.6821
95.7319
95.8126
95.8412
95.7792
95.746
95.7678
95.8281
95.7769
95.75
95.6987
95.6644
95.4101
95.1288
94.8794
94.7833
94.7578
94.8261
94.7949
94.9744
94.7897
96.9308
102.434
113.162
96.4639
96.4005
96.4196
96.4577
96.4612
96.4021
96.3694
96.4004
96.3798
96.244
96.2735
96.3182
96.1982
95.9418
96.0331
95.8282
95.284
95.2037
95.2761
95.2635
95.3529
94.8468
97.2893
103.038
113.631
97.231
97.1658
97.1751
97.1448
97.1012
97.0526
97.0555
97.0655
96.9638
96.7333
96.7858
96.7873
96.757
96.4951
96.3284
96.1453
95.8821
95.7245
95.7669
95.7708
95.793
95.7692
98.2839
103.815
114.235
98.0472
97.9916
98.007
98
97.9533
97.8751
97.8435
97.7848
97.6259
97.4089
97.3708
97.3904
97.3149
97.0664
96.6651
96.4755
96.5561
96.4239
96.4567
96.4378
96.4854
96.7835
98.9353
104.441
114.774
98.9354
98.8932
98.8678
98.8264
98.7934
98.7835
98.7162
98.5814
98.3871
98.1783
98.0538
97.8689
97.8433
97.6095
97.1698
97.0032
96.9923
96.7437
96.9279
96.7221
96.7026
97.0312
99.1659
104.844
115.087
100.012
99.9727
99.9017
99.8329
99.7659
99.7084
99.6508
99.4774
99.3265
99.0496
98.8206
98.4715
98.3916
98.1719
97.9444
97.6588
97.3808
97.0982
97.0388
96.6858
96.5808
97.0006
99.318
105.116
115.323
101.017
101.015
100.992
101.023
100.975
100.924
100.8
100.632
100.565
100.311
100.072
99.6399
99.2646
98.9365
98.4829
98.0944
97.768
97.3569
96.9766
96.6677
96.6371
97.0297
99.4414
105.258
115.366
101.868
101.894
101.931
102.035
102.034
102.104
102.125
102.044
101.919
101.534
101.168
100.614
100.235
99.608
99.0522
98.5294
98.1462
97.6496
97.1328
96.7701
96.7312
97.1021
99.4433
105.353
115.358
102.73
102.818
102.971
103.24
103.299
103.451
103.505
103.43
103.363
103.102
102.631
101.948
101.322
100.481
99.8284
99.1537
98.6561
98.2035
97.5357
97.0217
96.9178
97.2449
99.4307
105.403
115.345
103.721
103.895
104.202
104.631
104.746
105.028
105.151
105.105
105.056
104.765
104.274
103.505
102.782
101.765
101.003
100.127
99.4995
99.0295
98.2478
97.5967
97.3729
97.4713
99.4357
105.378
115.331
104.989
105.288
105.796
106.426
106.452
106.842
107.094
107.053
107.096
107.136
106.588
105.717
104.955
103.762
102.86
101.715
100.92
99.7907
99.1929
98.3359
97.7435
97.5498
99.364
105.178
115.062
106.435
106.925
107.705
108.493
108.434
108.951
109.367
109.135
108.997
108.999
108.572
108.039
107.142
105.834
103.891
102.871
101.565
100.586
99.5659
98.5389
97.7758
97.4091
98.9107
104.613
114.449
107.684
108.342
109.445
110.324
110.017
110.316
110.323
109.86
109.48
109.297
108.874
108.668
107.621
106.383
103.719
103.079
101.884
100.719
99.6045
98.4862
97.5095
96.9051
97.9907
103.603
113.343
108.981
109.661
110.866
111.419
110.885
110.83
110.472
109.84
108.965
108.175
107.349
108.078
107.055
106.23
103.488
102.484
101.433
100.673
99.2936
98.0899
96.9512
96.0889
96.7575
102.198
111.681
111.159
111.617
112.674
112.786
111.962
111.11
110.479
109.178
107.103
105.457
103.623
105.119
104.193
105.414
106.911
102.731
99.7308
98.3788
98.2807
97.3801
96.0925
94.9752
95.1162
100.408
109.638
113.815
113.486
113.598
113.414
112.482
111.191
110.208
106.885
103.653
101.136
96.7159
95.2771
98.0425
103.236
104.469
101.606
96.6233
94.8566
95.6154
95.4091
94.4158
93.0977
92.9485
97.9605
106.986
114.482
113.777
113.471
113.196
112.159
110.357
107.052
98.161
94.5022
88.4124
87.1176
89.0843
98.153
109.666
110.98
107.44
97.4726
92.3357
92.5146
91.4273
91.168
90.0383
90.0407
94.6109
103.343
107.621
106.145
104.58
104.501
102.394
99.2043
90.3888
88.8064
85.0875
81.8198
82.8766
85.9926
95.1665
103.33
110.067
110.922
103.262
92.9783
87.941
86.011
86.425
85.572
85.8576
90.5137
98.5349
95.8116
94.6914
94.3153
94.2186
93.3156
91.672
88.1858
86.6144
81.1712
80.1887
81.5463
82.8043
89.0364
94.4904
102.421
107.291
105.27
90.9594
81.421
80.36
80.9091
79.9916
80.5955
85.4943
92.6118
92.3841
90.975
91.5414
91.801
91.0507
87.5901
84.8815
83.7728
78.6931
76.2315
74.4612
77.6433
89.0738
100.308
102.31
101.696
103.721
88.7808
77.8622
75.1042
74.4322
74.2706
75.1224
79.9899
85.9078
74.7487
74.0083
73.6072
73.2766
73.2603
72.8917
72.3914
72.3317
70.5572
69.9458
70.1419
75.5468
87.7467
102.783
103.916
97.0346
99.6905
86.9146
75.7788
71.6401
69.6752
68.1565
68.9153
74.2584
79.1141
70.5897
70.1986
69.4873
68.9317
69.2417
69.639
70.0389
69.7903
69.0785
69.1469
69.8839
73.7765
83.7887
100.338
103.377
93.4689
93.8352
84.8456
74.3481
69.5561
67.1272
65.127
64.9308
68.33
71.8957
70.6993
70.3378
69.9859
69.6208
69.0853
69.176
69.5538
69.8665
69.7004
69.801
70.1972
73.2266
83.3779
98.9833
102.733
90.8348
88.6472
83.0761
73.0361
68.52
65.7379
63.7266
63.2927
65.6606
67.2186
69.9541
69.6887
69.5216
69.5017
69.0599
68.9285
68.0267
68.5803
69.5887
69.5226
69.3451
72.6782
82.6696
98.7981
103.163
89.3738
87.3295
83.0743
72.5611
68.2711
65.2166
63.4214
63.0781
65.129
65.8956
69.7028
69.4785
69.2855
69.343
69.3482
69.2642
68.419
68.3435
68.1769
67.4282
67.4243
71.7059
79.9449
97.1589
104.304
89.4448
86.697
83.4995
72.9097
68.4187
65.2221
63.654
63.399
65.2553
65.9221
69.7023
69.4821
69.4925
69.5767
69.6248
69.2093
68.4392
67.8248
66.9279
66.6416
66.9124
70.2118
78.2461
95.0233
104.951
91.5899
84.5753
83.5952
73.2043
68.5665
65.3589
63.8218
63.6469
65.6809
66.5582
69.5819
69.5061
69.982
70.4834
70.5484
68.946
68.2452
67.2992
67.0211
66.9283
67.2336
69.461
76.9067
93.2171
105.275
96.6277
83.9647
83.2871
73.594
68.7322
65.8913
64.4549
64.2527
66.6019
67.6379
70.2882
70.4174
70.8469
70.5584
70.6908
69.493
68.0307
67.4599
66.7097
66.1412
66.6804
69.03
75.3256
90.3847
105.089
101.746
84.0229
81.5809
74.3147
69.1239
66.5587
65.3646
65.8167
68.0191
69.034
71.4289
71.5956
71.0927
72.0285
69.8566
69.4561
68.1804
67.276
66.1366
65.5375
66.0565
68.3507
73.9336
86.9724
103.347
104.094
84.3785
79.8224
75.1514
69.5956
67.1672
65.9551
66.3746
68.644
69.9502
72.5877
72.3483
72.9953
72.1732
70.7418
69.2903
68.2771
66.9967
66.1913
65.627
65.8247
67.2489
72.4154
84.2185
102.193
106.105
84.6906
79.3977
75.9245
70.1028
67.6676
66.3934
66.7663
68.9739
70.267
74.4372
73.8904
73.1138
71.4084
71.6041
69.6553
68.4266
67.3381
66.0872
65.7447
65.6677
66.6515
70.8814
81.6786
100.462
106.879
89.5977
79.2697
76.9545
70.5887
67.9644
66.7117
67.0654
69.1245
70.4917
75.328
74.8172
72.5616
72.1108
71.0442
69.6693
68.3476
67.3267
65.9639
65.4995
65.4459
66.3568
69.9634
78.673
97.6121
107.343
93.9415
79.4953
77.6535
71.281
68.2805
67.0143
67.2974
69.1768
70.5687
76.9426
74.5857
73.7044
72.1022
70.6205
69.5903
68.2413
66.9509
65.5625
65.2769
65.2866
66.0038
69.259
76.7683
94.5259
107.58
96.0506
79.6596
77.6748
72.147
68.6162
67.2157
67.4327
69.229
70.5537
76.2977
74.7526
73.6169
72.0706
71.0496
69.403
68.1859
66.866
66.2381
65.4291
65.2131
65.6888
68.0985
75.3702
91.2833
107.589
101.726
79.8583
76.9099
72.9214
68.8981
67.3848
67.5271
69.2676
70.5153
76.1347
74.7742
73.1209
72.1568
70.7281
69.3012
68.2052
67.4279
67.3983
65.4954
65.1672
65.562
67.6035
73.4189
88.1973
106.903
107.224
81.5822
75.7107
73.589
69.3301
67.7248
67.7359
69.3561
70.492
76.7004
74.4032
72.8939
70.8629
68.3719
68.2339
68.1511
67.2266
66.7278
65.9216
65.0318
65.4215
67.1871
72.5408
84.819
105.241
109.465
86.3659
75.3519
74.0176
69.8262
68.0967
68.0921
69.5178
70.5567
76.265
72.93
71.0802
69.8704
68.8494
68.3741
67.8367
66.824
66.1844
66.7446
65.9825
65.2977
66.5316
72.0982
83.2744
103.357
110.926
91.1771
75.6875
74.1195
70.3447
68.5271
68.4947
69.7678
70.7114
70.2578
72.6583
70.0524
69.4852
69.0979
68.1001
67.4328
66.9667
67.1211
67.1289
66.9799
66.8979
66.6581
70.7898
81.0587
100.901
110.876
95.8982
76.8262
74.102
71.0591
68.9971
68.8664
70.0126
70.8205
66.3076
67.3207
67.5918
67.7097
67.7033
67.1604
67.1588
66.9043
66.9218
66.803
67.4202
67.4152
67.5038
70.4535
79.2672
98.7275
111.41
100.685
78.8971
73.6308
71.3676
69.3643
69.1027
70.0886
70.7785
64.9325
64.3974
66.5098
66.7065
67.1463
66.9276
66.7968
66.578
66.7403
66.9482
67.2143
67.3477
67.7965
70.5298
77.0743
96.6323
112.235
105.435
79.7498
72.935
71.4146
69.6538
69.2567
70.1141
70.7309
61.8706
63.8336
64.6407
66.0009
66.4565
66.4017
66.4253
66.4791
66.7984
67.0109
67.2696
67.449
68.0231
70.3964
76.6089
92.4273
112.304
112.002
81.059
72.7549
71.538
69.9396
69.4481
70.1599
70.7401
61.4825
60.7954
61.7608
63.4338
64.7668
65.5924
66.0123
66.3021
66.7801
67.0523
67.3719
67.7104
68.6473
70.3851
76.4742
89.4762
111.649
115.763
86.7667
73.4767
71.89
70.4476
69.9169
70.3703
70.8928
60.4753
60.7207
60.5683
61.515
63.0026
64.3514
65.413
66.0413
66.5492
67.008
67.3379
67.8377
68.7403
70.886
75.4091
87.1453
110.092
119.191
95.2858
75.3818
72.4613
71.2692
70.7036
70.9747
71.3795
59.5221
59.7671
60.5585
60.9657
61.9673
63.2061
64.8023
65.6938
66.3456
66.8542
67.3152
67.7957
68.7068
70.5263
74.6328
84.0814
106.628
120.492
103.135
78.8824
73.1861
71.9941
71.4869
71.7671
72.1479
59.0696
59.2153
59.6812
60.7259
61.5508
61.9485
63.7524
64.8617
65.9719
66.7047
67.2356
67.7418
68.6296
70.2832
74.3808
83.5816
101.721
120.709
112
83.8775
74.2007
73.0386
72.574
72.8075
73.0905
58.8742
59.1774
59.6017
59.3125
60.0517
61.7206
62.4532
63.884
65.1476
66.4181
67.1245
67.6703
68.439
69.8273
72.5657
80.0977
98.873
119.767
121.589
91.2747
75.7895
73.8825
73.7929
74.2144
74.8141
58.5103
58.8097
59.2514
59.9546
60.7732
61.5171
62.3574
63.0403
64.4408
65.742
66.9344
67.524
68.4182
69.6119
71.3619
76.3005
91.1753
118.043
126.559
101.342
78.4282
74.7855
75.0123
75.2999
75.7046
58.6471
58.3204
58.7214
60.0014
60.6815
61.2179
61.8507
63.0437
63.9785
65.225
66.5436
67.3019
68.2961
69.5363
71.2079
75.1196
85.4388
112.009
129.243
114.116
83.2033
76.1142
75.5215
75.853
76.2142
58.3739
58.8938
58.9382
58.9094
59.408
60.8268
61.5236
62.8224
63.7729
65.11
66.0444
67.2503
67.8914
69.1261
70.1342
73.5422
82.2192
103.255
128.781
125.688
92.5658
77.8504
76.0766
76.4347
76.7716
58.2768
58.5585
59.2592
59.8835
60.5742
60.7502
61.914
62.2024
63.669
64.9599
66.1426
67.2799
68.3107
69.0931
70.3879
72.2745
78.8397
97.2386
125.544
130.786
107.585
80.3546
76.6702
76.682
77.1639
58.5069
58.3802
58.5456
59.8146
60.4575
61.2307
61.6279
62.6941
63.5714
64.5541
66.1127
67.233
68.4515
69.819
71.1635
72.8735
77.4364
89.838
120.416
135.379
116.569
83.5856
77.2387
76.7921
77.2929
58.3511
59.0192
59.5369
59.2533
59.816
60.5687
61.6299
62.6342
63.7355
64.6834
65.5562
66.9869
68.0545
69.22
69.9632
71.7782
75.2321
85.8213
110.69
136.382
120.978
89.0259
78.2133
76.9922
77.3748
59.2925
59.073
59.6064
60.261
60.5378
60.9138
61.947
62.6601
63.7184
64.7356
65.7924
66.8809
68.1671
69.099
70.6807
71.5573
74.1143
82.7945
105.806
134.075
134.768
102.223
80.0275
77.7421
77.8606
59.9212
59.9434
59.8512
60.4688
61.157
61.6528
61.6041
62.7916
63.6457
64.4881
65.7737
66.8879
68.187
69.617
70.9401
72.3467
74.126
79.3745
95.3159
130.522
140.726
118.813
83.0981
78.5533
78.2865
60.5305
60.9773
61.3624
61.1017
61.4845
62.0142
62.6704
62.5022
63.4683
64.4798
65.5704
66.8315
67.8919
69.2035
70.4626
71.8701
73.4344
78.3132
90.4779
119.749
144.185
123.378
86.3026
79.3238
78.5318
61.6563
61.4439
61.828
62.2761
62.4615
62.7439
63.2001
63.9869
64.3959
65.1185
65.851
66.8401
68.071
69.2969
70.9148
72.4306
74.514
77.355
88.2359
114.458
145.217
132.868
91.1598
80.1946
78.7171
62.7929
62.7609
62.6548
62.8214
63.2775
63.668
64.1336
64.7509
65.0556
65.3816
65.8153
66.7141
68.094
69.4942
70.6392
72.0219
73.6297
76.8616
84.7247
107.736
142.378
145.453
101.84
81.7653
79.0291
63.9633
64.0632
64.0399
64.0094
64.1729
64.4972
64.8899
65.0967
65.7404
66.2738
66.7438
67.3198
67.9234
68.8535
70.145
71.7027
73.781
76.524
82.7381
101.569
138.456
148.701
119.483
85.4593
80.3114
65.2402
65.3011
65.526
65.7839
65.6388
65.6823
65.8591
66.2451
66.4756
67.0069
67.7866
68.3842
69.1055
69.8779
71.0601
72.3457
73.752
76.1336
81.8259
97.1588
133.968
154.758
129.97
89.7555
81.5874
66.7409
66.6137
66.7453
66.479
66.9389
67.241
67.2702
67.3836
67.6991
67.8365
68.1897
68.9206
69.5667
70.3706
70.7108
71.7459
73.3248
75.6878
80.3408
92.4037
123.478
157.518
135.484
94.2042
83.2041
68.1768
68.2047
67.8818
68.2687
68.0899
68.1313
68.427
68.6417
68.82
69.3987
69.7417
70.1141
70.6774
71.3011
72.3608
73.0928
74.1437
75.4992
78.9798
90.1829
118.934
157.39
154.165
101.208
85.2525
69.5682
69.6948
69.8959
69.858
69.7686
69.7609
69.7382
69.8764
70.0307
69.9889
70.3279
70.8045
71.359
71.9305
72.5305
73.1893
73.8789
75.3547
78.4022
86.7361
110.625
154.394
163.051
115.174
88.4864
71.5565
71.4414
71.2769
71.2828
71.3639
71.5466
71.5648
71.5117
71.5387
71.6722
71.5735
71.3577
71.6371
72.1827
72.2012
73.1395
74.3472
75.2902
77.8163
84.4657
103.708
149.658
168.465
139.45
94.4032
73.1078
73.1574
73.2179
73.0697
72.9522
72.8022
72.8097
72.8857
72.9466
73.1718
73.5929
73.756
73.7001
73.5931
74.3529
74.4838
74.7874
75.6298
77.2954
82.844
99.5601
142.613
173.135
162.76
103.237
74.9974
74.9312
74.7377
74.8667
74.865
74.7958
74.659
74.4655
74.3969
74.3016
74.3735
74.7917
75.049
75.2739
75.3195
75.4388
75.7849
76.5616
78.0244
81.9349
94.22
129.001
175.277
173.045
115.966
76.8388
76.7779
76.7511
76.5657
76.4378
76.499
76.4968
76.5226
76.3186
76.2526
75.9699
75.7853
75.8457
76.0624
76.1375
76.5224
76.9318
77.1978
78.2769
81.3778
90.197
121.004
177.615
182.661
132.706
78.9079
78.9331
78.9011
78.8228
78.6478
78.4761
78.3083
78.238
78.276
78.1437
78.1731
78.0603
77.924
77.8871
78.1291
78.0282
78.1686
78.4468
79.1242
81.3103
89.2666
111.266
161.428
193.278
162.564
81.0208
80.9055
80.7888
80.7728
80.7567
80.6925
80.6539
80.4607
80.1753
80.1087
79.8823
79.8721
79.8628
79.8205
79.7236
79.7806
79.6312
79.8259
80.4935
82.5608
88.8053
107.877
155.544
192.302
189.969
83.4097
83.368
83.2136
83.0213
82.874
82.756
82.6064
82.6048
82.5213
82.2231
82.0513
81.7122
81.443
81.3184
81.2596
81.3523
81.6038
81.5242
81.7411
83.2225
88.5883
105.796
151.579
193.538
194.696
85.6268
85.6207
85.5844
85.4685
85.3033
85.0494
84.8799
84.6202
84.4787
84.4262
84.1977
84.0579
83.8485
83.6152
83.3988
83.078
82.8484
82.9559
83.3124
84.2352
89.1286
104.822
145.316
192.543
195.418
88.0203
87.8822
87.7185
87.6171
87.4239
87.3595
87.2056
87.0451
86.7313
86.4163
86.258
86.0727
85.8934
85.6754
85.5154
85.4006
85.2347
85.0189
85.1081
86.2938
90.1504
103.448
143.001
193.139
200.307
90.5715
90.5112
90.3621
90.1121
89.9424
89.6775
89.4606
89.2624
89.1685
88.9458
88.6315
88.4009
88.1663
87.9047
87.5838
87.4008
87.3261
87.1729
87.1554
87.8876
91.569
102.952
138.737
192.002
205.196
93.0298
92.975
92.9382
92.887
92.6748
92.5057
92.2587
91.9615
91.5886
91.3828
91.2148
90.9392
90.7364
90.5274
90.2896
89.9505
89.5983
89.4292
89.7097
90.1311
92.9386
102.719
136.881
190.785
206.665
95.8846
95.7667
95.5775
95.3546
95.1828
94.9792
94.8105
94.6286
94.3811
94.0175
93.736
93.5625
93.2909
93.0711
92.893
92.6945
92.5306
92.2247
92.0673
92.57
95.0252
103.346
134.923
191.142
210.39
98.8936
98.8625
98.7674
98.5841
98.3264
98.0547
97.7334
97.4084
97.1677
96.9282
96.5595
96.2296
96.008
95.7019
95.3448
95.1773
95.0452
94.8455
94.6476
94.772
97.2258
105.56
133.83
189.298
214.269
101.804
101.684
101.58
101.457
101.256
101.06
100.854
100.572
100.116
99.7158
99.5024
99.1581
98.7921
98.525
98.2944
97.9532
97.7281
97.5444
97.6196
97.846
99.6141
107.178
132.952
187.184
215.467
104.924
104.883
104.721
104.474
104.251
103.964
103.693
103.446
103.268
102.926
102.454
102.223
101.954
101.65
101.368
101.139
100.993
100.697
100.427
100.543
102.535
108.389
132.693
186.737
219.851
107.964
107.891
107.833
107.7
107.417
107.175
106.897
106.581
106.231
105.956
105.703
105.322
105.092
104.848
104.612
104.385
104.234
104.213
104.275
104.345
105.49
111.023
132.623
185.979
224.125
111.087
111.018
110.864
110.719
110.619
110.436
110.224
109.972
109.685
109.417
109.171
108.914
108.585
108.352
108.139
107.932
107.823
107.612
107.532
107.716
109.209
113.712
133.196
184.838
226.271
114.525
114.506
114.434
114.228
113.921
113.733
113.576
113.426
113.261
113.001
112.787
112.656
112.533
112.342
112.22
112.002
111.76
111.516
111.484
111.444
112.369
116.39
133.892
182.433
230.07
117.773
117.705
117.653
117.649
117.598
117.404
117.202
117.012
116.858
116.79
116.665
116.503
116.4
116.26
116.026
115.903
115.836
115.737
115.669
115.655
116.419
119.725
134.789
180.663
231.903
121.409
121.397
121.33
121.185
121.043
121.023
120.988
120.886
120.746
120.628
120.587
120.552
120.457
120.423
120.336
120.216
120.05
119.811
119.496
119.289
120.083
123.103
135.959
180.495
233.506
124.875
124.9
124.965
125.016
125.007
124.901
124.86
124.878
124.912
124.926
124.914
124.999
125.045
125.014
124.874
124.833
124.716
124.67
124.619
124.539
124.977
127.42
137.628
180.273
236.491
128.601
128.619
128.671
128.757
128.881
129.027
129.142
129.223
129.318
129.481
129.616
129.64
129.76
129.909
129.969
129.9
129.858
129.685
129.608
129.433
130.113
131.954
140.821
180.643
239.386
132.827
132.93
133.06
133.224
133.385
133.616
133.842
134.087
134.329
134.531
134.777
135.071
135.173
135.243
135.366
135.465
135.452
135.376
135.325
135.183
135.351
136.995
146.375
180.945
240.946
137.957
138.027
138.103
138.349
138.547
138.805
139.114
139.476
139.85
140.287
140.627
140.895
141.237
141.486
141.616
141.689
141.75
141.721
141.513
141.26
141.599
142.938
151.147
182.664
242.241
144.167
144.25
144.329
144.558
144.751
145.109
145.429
145.783
146.161
146.54
146.948
147.349
147.623
147.842
148.079
148.224
148.273
148.222
148.086
147.834
147.896
148.907
155.26
184.525
243.681
152.031
152.088
152.105
152.25
152.369
152.524
152.731
152.993
153.303
153.698
154.066
154.407
154.73
155.04
155.229
155.429
155.538
155.599
155.454
155.252
155.236
155.985
161.469
186.674
244.44
161.293
161.324
161.011
161.091
160.925
161.005
161.056
161.2
161.372
161.591
161.851
162.121
162.391
162.631
162.783
162.96
163.044
163.119
163.029
162.759
162.773
163.261
167.802
188.985
246.198
172.222
172.165
171.768
171.622
171.216
171.063
170.753
170.656
170.52
170.54
170.568
170.65
170.782
170.958
171.051
171.228
171.235
171.397
171.291
171.133
171.198
171.584
175.394
191.994
247.852
184.249
184.053
183.689
183.366
182.878
182.483
182.042
181.636
181.212
180.82
180.467
180.237
180.056
180.017
180.033
180.071
179.985
180.138
179.887
179.763
179.738
179.85
183.249
196.414
250.434
196.979
196.769
196.386
196.027
195.481
194.951
194.382
193.799
193.149
192.451
191.723
191.056