/*--------------------------------*- C++ -*----------------------------------*\
| =========                 |                                                 |
| \\      /  F ield         | OpenFOAM: The Open Source CFD Toolbox           |
|  \\    /   O peration     | Version:  2212                                  |
|   \\  /    A nd           | Website:  www.openfoam.com                      |
|    \\/     M anipulation  |                                                 |
\*---------------------------------------------------------------------------*/
FoamFile
{
    version     2.0;
    format      ascii;
    arch        "LSB;label=32;scalar=64";
    class       volScalarField;
    location    "0.0033";
    object      alphat;
}
// * * * * * * * * * * * * * * * * * * * * * * * * * * * * * * * * * * * * * //

dimensions      [1 -1 -1 0 0 0 0];

internalField   nonuniform List<scalar> 
7220
(
0.000857587
0.00162597
0.00162005
0.00160969
0.00161543
0.00161135
0.00162629
0.0016149
0.00161583
0.00161477
0.000813927
0.00158241
0.0012401
0.0012128
0.00118191
0.00140468
0.000367547
0.00100275
0.000626375
0.000974917
0.000933007
0.000673009
0.00160676
0.000332718
0.00057569
0.000608021
0.00123545
0.00104495
0.000928038
0.000910405
0.0013426
0.00101752
0.00163439
0.000866187
0.000731965
0.000782411
0.00163691
0.00079916
0.000804598
0.000601768
0.000600458
0.000600538
0.000601874
0.000642523
0.000667701
0.000675539
0.000657544
0.000642061
0.000598774
0.00059681
0.000596849
0.000598832
0.000594618
0.000592263
0.000592272
0.000594639
0.000589842
0.000587485
0.000587482
0.000589842
0.000585351
0.00058359
0.000583582
0.000585345
0.000582297
0.000581515
0.000581499
0.000582287
0.000581795
0.000583044
0.000583015
0.00058177
0.000584796
0.000587498
0.00058747
0.000584767
0.00059112
0.00059594
0.000595948
0.0005911
0.000602039
0.000609465
0.000609609
0.000602088
0.000629339
0.000618648
0.000618382
0.000629006
0.000641733
0.000628808
0.000602596
0.000602716
0.000599233
0.000600602
0.000689599
0.000696634
0.000657183
0.000675871
0.000616268
0.000600382
0.000607608
0.000589735
0.000594445
0.000583522
0.000586177
0.000580558
0.000581798
0.000581025
0.000580278
0.000583992
0.000582275
0.000588408
0.000586085
0.000593164
0.000590813
0.000597327
0.00059536
0.000600301
0.000599006
0.000595465
0.000597489
0.00059083
0.00059322
0.000586057
0.000588399
0.000582229
0.000583954
0.000580206
0.000580969
0.000581686
0.00058046
0.000586067
0.000583408
0.000594448
0.000589653
0.000608125
0.000600558
0.000617442
0.000626707
0.000601128
0.000601469
0.000640915
0.000625975
0.000715681
0.000698493
0.000639279
0.000654405
0.000634818
0.00065842
0.000672863
0.000649705
0.000612651
0.00062264
0.000597386
0.000604345
0.000587129
0.000591677
0.000581109
0.000583675
0.000578216
0.000579439
0.000578629
0.000577935
0.000581438
0.000579805
0.000585712
0.000583449
0.000590435
0.000588087
0.000594625
0.000592642
0.00059761
0.000596313
0.000601469
0.000598803
0.000598454
0.000603065
0.000602939
0.000598982
0.000599371
0.000601832
0.000596678
0.000598083
0.000592815
0.000594889
0.000588113
0.000590526
0.000583389
0.00058569
0.000579691
0.000581347
0.000577771
0.000578493
0.000579207
0.000578008
0.000583453
0.000580875
0.000591635
0.000586955
0.000605072
0.000597616
0.000614333
0.0007067
0.0006806
0.000634168
0.000620641
0.000601218
0.000598553
0.000595459
0.000595899
0.000722222
0.0007356
0.000744146
0.000695416
0.000628962
0.000724853
0.000696223
0.000668295
0.00065103
0.000643365
0.000607864
0.000617351
0.00059334
0.000599966
0.000583549
0.000587896
0.000577777
0.000580226
0.00057498
0.000576177
0.000575309
0.00057468
0.000577905
0.000576387
0.000581997
0.00057981
0.000586653
0.000584323
0.000590864
0.000588866
0.000593889
0.000592569
0.000595156
0.000594773
0.000602842
0.000602703
0.000599176
0.00060162
0.000593068
0.000594512
0.000589121
0.000591239
0.000584372
0.000586797
0.00057972
0.000581968
0.000576192
0.000577761
0.000574397
0.00057507
0.000575797
0.000574632
0.000579862
0.000577394
0.000587763
0.000583246
0.000600707
0.000593533
0.000609586
0.000671377
0.000594946
0.000595739
0.000724599
0.00076416
0.000754317
0.000750078
0.000661652
0.000626293
0.000613869
0.000641592
0.00069152
0.00059072
0.000590619
0.000598335
0.000594962
0.000721797
0.000771469
0.00078033
0.000788396
0.000807689
0.000792303
0.000800365
0.000752276
0.000653075
0.000622027
0.000635688
0.000602102
0.000611054
0.000588416
0.00059465
0.000579152
0.000583276
0.000573674
0.000575996
0.000570981
0.000572153
0.000571183
0.000570636
0.000573579
0.000572163
0.000577486
0.000575392
0.00058203
0.000579743
0.000586228
0.000584227
0.000589312
0.00058795
0.000590262
0.000594262
0.000600396
0.000597778
0.000601987
0.00060186
0.000600762
0.000591514
0.000591077
0.0005916
0.00058858
0.000590064
0.000584582
0.000586722
0.000579841
0.00058225
0.00057529
0.000577478
0.00057192
0.000573403
0.000570258
0.000570876
0.000571657
0.000570525
0.000575519
0.000573173
0.000583063
0.000578755
0.000595327
0.000588543
0.00060366
0.000684082
0.000660549
0.000742291
0.000712105
0.000770204
0.000684605
0.000590078
0.00059087
0.000617341
0.000606055
0.000631176
0.000784124
0.000719053
0.000776542
0.000794177
0.000814867
0.000749761
0.000808459
0.00064306
0.00080676
0.000675038
0.00066365
0.000819513
0.000614024
0.000626808
0.000595362
0.00060375
0.000582574
0.0005884
0.00057389
0.000577764
0.000568741
0.000570917
0.000566198
0.000567315
0.000566355
0.000565842
0.000568639
0.000567296
0.000572326
0.00057034
0.000576702
0.000574486
0.000580846
0.000578856
0.000584
0.000582584
0.000585629
0.000585042
0.000585361
0.000585714
0.000584531
0.000593197
0.000589112
0.000599247
0.000596655
0.000600817
0.000600697
0.000597179
0.000599593
0.000589822
0.000593843
0.000585274
0.000586639
0.000586202
0.000585954
0.000586594
0.000583332
0.000584857
0.00057933
0.000581462
0.000574673
0.00057703
0.000570277
0.000572382
0.000567033
0.000568466
0.000565455
0.000566028
0.000566848
0.000565755
0.000570497
0.000568277
0.000577623
0.000573563
0.000589052
0.000582755
0.000596727
0.000670627
0.000648552
0.000729077
0.000697894
0.000759587
0.000701902
0.00071225
0.00077902
0.000689188
0.000607563
0.000597385
0.000620045
0.00058015
0.000579513
0.000588356
0.000583979
0.000797714
0.000811349
0.000820441
0.00081993
0.000809265
0.000820042
0.0008301
0.000732314
0.00074842
0.000826078
0.000775959
0.000718669
0.000829037
0.000674767
0.000631911
0.000650896
0.00060514
0.000616968
0.000587799
0.000595614
0.00057594
0.000581331
0.000567894
0.000571485
0.000563133
0.000565133
0.000560815
0.000561833
0.000561001
0.0005605
0.000563117
0.000561877
0.000566563
0.000564702
0.000570732
0.00056861
0.000574788
0.000572824
0.000578024
0.000576543
0.000579945
0.000579181
0.000580269
0.00058344
0.000591754
0.000587818
0.000597637
0.000595111
0.000599154
0.00059905
0.00059554
0.00059793
0.000592265
0.000580233
0.000581182
0.000580995
0.000580151
0.000580933
0.000577391
0.000578956
0.000573426
0.000575523
0.000568927
0.000571194
0.000564742
0.000566739
0.000561685
0.000563032
0.000560153
0.00056072
0.000561442
0.000560435
0.00056482
0.00056276
0.000571447
0.000567678
0.000581928
0.000576166
0.000588934
0.000656003
0.000635779
0.000712357
0.000681665
0.000774924
0.000744924
0.000795297
0.000743275
0.000703066
0.000578651
0.000579177
0.00058823
0.000597336
0.000747952
0.00076141
0.000799259
0.000814057
0.00082419
0.000831329
0.000829547
0.000839441
0.000858776
0.000838437
0.00160984
0.000835942
0.000732458
0.000714794
0.000659027
0.000685691
0.000619928
0.000637179
0.000595641
0.00060639
0.000579804
0.000586954
0.00056891
0.000573853
0.000561538
0.000564831
0.000557128
0.000558984
0.000554962
0.000555919
0.000555056
0.000554607
0.00055701
0.000555865
0.00056021
0.000558476
0.000564147
0.000562131
0.000568096
0.000566164
0.000571423
0.000569869
0.00057367
0.000572709
0.000574389
0.000574251
0.000573395
0.00057408
0.000572257
0.000581654
0.000577183
0.000589522
0.000585754
0.000595191
0.000592762
0.000596584
0.000596526
0.00059302
0.000595357
0.000586123
0.000589859
0.000577469
0.00058197
0.000572545
0.000574665
0.000573886
0.000575127
0.000575206
0.00057369
0.00057463
0.000570788
0.000572393
0.000566895
0.000568933
0.000562608
0.000564756
0.000558687
0.000560553
0.000555844
0.000557096
0.000554449
0.000554953
0.000555695
0.000554755
0.000558811
0.000556912
0.00056486
0.000561439
0.000574332
0.000569117
0.000580649
0.000640742
0.000608517
0.000622561
0.000693579
0.000664268
0.000757282
0.000726323
0.000796971
0.000780891
0.000818592
0.00080879
0.000846285
0.000836817
0.000838725
0.000827716
0.000771037
0.0016166
0.000758536
0.000742167
0.00081508
0.00161685
0.000567578
0.000566807
0.000574822
0.000570217
0.000826283
0.000847983
0.00083487
0.000848654
0.00084789
0.000841323
0.000845532
0.00161699
0.0016217
0.00162807
0.00156899
0.00117699
0.00156659
0.000772237
0.000783651
0.00165631
0.000790219
0.000832968
0.000824185
0.000809127
0.000801806
0.00077857
0.00163374
0.000764418
0.00139598
0.00079296
0.000780641
0.00162171
0.000800256
0.000792828
0.000780167
0.000791222
0.000747417
0.000766157
0.000695071
0.000723143
0.000642436
0.00066701
0.000607402
0.000622808
0.000585689
0.000595323
0.000571367
0.000577874
0.000561404
0.000565934
0.000554629
0.000557661
0.000550521
0.000552252
0.00054849
0.000549371
0.000548535
0.000548144
0.000550342
0.000549283
0.0005533
0.000551697
0.000556987
0.000555088
0.000560806
0.000558917
0.000564209
0.000562589
0.000566767
0.000565619
0.000568031
0.000567593
0.000568033
0.000570375
0.000578948
0.000574801
0.000586505
0.000582893
0.000591939
0.000589607
0.000593264
0.000593222
0.00058974
0.000592042
0.000583052
0.000586655
0.000579094
0.000566963
0.000568533
0.000567967
0.000568407
0.000568727
0.000566577
0.000567674
0.000563553
0.000565188
0.000559766
0.000561726
0.000555737
0.000557744
0.000552115
0.000553834
0.000549507
0.000550654
0.000548255
0.000548696
0.00054946
0.000548586
0.000552406
0.000550631
0.000557954
0.000554841
0.0005665
0.000561804
0.000578914
0.000572158
0.000596872
0.000586979
0.000625356
0.000609277
0.000673185
0.000646361
0.000736138
0.000704584
0.000781859
0.000762761
0.000806013
0.000795461
0.000815286
0.00162316
0.00164159
0.00161695
0.000792687
0.000813529
0.00161229
0.000984039
0.000456649
0.000869117
0.000565428
0.000565155
0.00159178
0.00079984
0.000815469
0.000821235
0.000826818
0.000857534
0.00128572
0.000803351
0.000810339
0.000818513
0.0008398
0.000836614
0.000857968
0.00085737
0.000804154
0.000100356
0.000844853
0.00116255
0.000803192
0.00145277
0.0008511
0.000855228
0.00160215
0.0015997
0.000878592
0.00160638
0.00159677
0.00163083
0.000765923
0.000777238
0.000728262
0.000749852
0.000673932
0.000701996
0.000625469
0.000647567
0.000594584
0.000608121
0.000575388
0.000583962
0.000562531
0.000568382
0.000553461
0.000557598
0.000547257
0.000550033
0.00054346
0.000545075
0.000541553
0.000542368
0.000541547
0.000541199
0.000543209
0.000542233
0.000545921
0.000544453
0.000549323
0.000547564
0.000552947
0.000551137
0.000556352
0.000554702
0.00055915
0.000557851
0.000560891
0.000560184
0.000560997
0.000561181
0.00055953
0.000560513
0.000557614
0.000567676
0.000562958
0.000575957
0.000571948
0.000583196
0.000579733
0.000588411
0.000586176
0.000589642
0.000589628
0.000586186
0.000588433
0.000579694
0.000583184
0.000571837
0.00057589
0.000562791
0.000567511
0.0005574
0.00056057
0.000559245
0.000561586
0.000561234
0.000560918
0.000561485
0.000558778
0.000559993
0.000555705
0.000557332
0.000552097
0.000553943
0.000548386
0.000550223
0.000545096
0.000546655
0.000542731
0.000543772
0.00054163
0.000542001
0.000542788
0.000541974
0.000545551
0.000543906
0.000550598
0.000547777
0.000558336
0.000554093
0.000569435
0.000563418
0.000585342
0.000576611
0.000610178
0.000596178
0.000652141
0.000628413
0.00071205
0.000680988
0.000763242
0.000740688
0.000791488
0.000779418
0.000801409
0.00159476
0.00159998
0.000789776
0.00167946
0.00165882
0.000807977
0.000825307
0.00159349
0.000878129
0.000867656
0.00157027
0.00157498
0.00163164
0.000812139
0.000795268
0.000803777
0.000826187
0.000837101
0.000826401
0.000831787
0.00159352
0.000867439
0.00163878
0.000552449
0.000551153
0.000559577
0.000554444
0.000866834
0.000527229
0.000813996
0.000846843
0.00160823
0.00162607
0.00163331
0.00164118
0.00155811
0.000846983
0.00153174
0.00152077
0.0015873
0.000902858
0.00153829
0.00151686
0.000814023
0.000867643
0.00172637
0.0017196
0.00169305
0.00171232
0.00140612
0.000855255
0.000865013
0.000811873
0.00159401
0.000861267
0.00151608
0.00151232
0.00152223
0.000807004
0.00159048
0.00151347
0.00158751
0.0015837
0.000888165
0.00164323
0.00088838
0.00126447
0.000748304
0.000762884
0.000705848
0.000729541
0.000652092
0.000679006
0.000608618
0.000628109
0.000581709
0.000593512
0.000564873
0.000572416
0.000553444
0.000558659
0.00054526
0.00054901
0.000539588
0.000542133
0.00053609
0.00053759
0.000534302
0.000535051
0.000534219
0.00053394
0.000535704
0.000534826
0.000538118
0.000536814
0.000541148
0.000539577
0.000544459
0.00054279
0.000547725
0.000546117
0.000550619
0.000549241
0.000552725
0.000551805
0.000553348
0.000553258
0.000553074
0.000555356
0.000564738
0.000560341
0.000572623
0.000568792
0.000579557
0.000576239
0.000584519
0.000582402
0.000585626
0.000585649
0.000582251
0.000584436
0.00057593
0.000579331
0.000568288
0.000572225
0.000564108
0.00055077
0.000553073
0.000552216
0.000553571
0.000553467
0.000552472
0.000553226
0.000550149
0.000551416
0.000547175
0.000548722
0.00054388
0.000545548
0.000540596
0.000542213
0.000537706
0.000539077
0.000535608
0.000536534
0.000534676
0.000534964
0.000535793
0.000535039
0.000538403
0.000536862
0.000543023
0.000540444
0.000550039
0.000546203
0.000559944
0.000554593
0.00057394
0.000566293
0.000595352
0.000583356
0.000631229
0.000610914
0.000685959
0.000656787
0.000740579
0.000715279
0.000774334
0.000759955
0.000785627
0.00155443
0.00167711
0.00165124
0.00166179
0.0015521
0.00165349
0.00134905
0.000819685
0.000796105
0.000811842
0.000835541
0.00154311
0.00155057
0.00154126
0.00157271
0.00155889
0.00156641
0.00158465
0.00160112
7.46991e-05
0.000877137
0.000797784
0.00167114
0.000549287
0.000548199
0.00087625
0.00136726
0.0015445
0.00150465
0.00152918
0.00104456
0.000822566
0.00165301
0.000833744
0.001644
0.00168986
0.00143275
0.00161252
0.00160475
0.000847287
0.000836602
0.000841892
0.00152896
0.00157813
0.0015477
0.00155773
0.00158538
0.00157835
0.00158896
0.00160034
0.00162984
0.00158307
0.00145944
0.00171253
0.00173972
0.00163199
0.000940299
0.00150972
0.000823706
0.000855485
0.00145107
0.0017111
0.000493348
0.000857497
0.00152099
0.00156993
0.00156664
0.00158162
0.000874474
0.000822919
0.00109538
0.000877377
0.00155171
0.00169007
0.0016277
0.00163882
0.00162642
0.00164046
0.00159013
0.000865605
0.00151992
0.00152139
0.0015474
0.00156172
0.000998438
0.00101225
0.000871135
0.000819618
0.0015846
0.00153098
0.00152966
0.00154373
0.00151297
0.000813659
0.00158038
0.00156563
0.00155133
0.00150723
0.00157524
0.00153312
0.000898049
0.000886973
0.00113516
0.00151937
0.00160517
0.000898727
0.000181111
0.000727885
0.000744473
0.000681461
0.000706413
0.000630423
0.000655236
0.000592249
0.000609167
0.000568886
0.000579143
0.000554153
0.000560769
0.000544041
0.000548661
0.000536736
0.000540093
0.000531616
0.000533921
0.00052844
0.000529806
0.000526768
0.000527461
0.000526537
0.000526386
0.000527779
0.000527042
0.000529795
0.000528706
0.000532331
0.000531012
0.000535174
0.000533727
0.00053811
0.000536644
0.000540901
0.00053954
0.000543172
0.000542137
0.000544262
0.00054391
0.000543804
0.000544161
0.000541422
0.000542978
0.000538864
0.000552127
0.000546312
0.000561116
0.000556884
0.000568785
0.000565052
0.000575525
0.000572308
0.000580271
0.000578261
0.000581269
0.000581323
0.000577966
0.000580099
0.000571757
0.000575105
0.000564215
0.000568096
0.000555729
0.000560122
0.000544856
0.000550785
0.000537379
0.00054236
0.000540237
0.000544072
0.000543498
0.000544159
0.000544303
0.000542743
0.000543617
0.000540435
0.000541655
0.000537765
0.000539127
0.000534965
0.000536368
0.000532257
0.000533584
0.000529883
0.000531012
0.000528131
0.000528911
0.000527445
0.000527596
0.000528541
0.000527838
0.000530969
0.000529553
0.00053519
0.000532832
0.000541538
0.000538081
0.000550338
0.000545599
0.000562571
0.000555921
0.000580922
0.000570696
0.000611159
0.00059408
0.000659471
0.000633121
0.000714675
0.00068791
0.000754186
0.000737027
0.000778132
0.00076734
0.00078748
0.000885665
0.000923196
0.00166693
0.00160442
0.00159669
0.00144968
0.00154122
0.00167741
0.00170688
0.00169276
0.0016828
0.00170786
0.00145283
0.00159378
0.00125886
0.000830056
0.000819691
0.00110794
0.0016042
0.00084557
0.00153791
0.0015679
0.00161515
0.00157439
0.000530394
0.00111011
0.000777817
0.00165752
0.00166916
0.0016956
0.00172414
0.00117913
0.000899755
0.0011995
0.000927994
0.00143534
0.00147902
0.0015396
0.00153161
0.00109858
0.00149394
0.00134747
0.00141887
0.000835498
0.000832394
0.000842345
0.00153353
0.00168429
0.0016512
0.00159561
0.000857766
0.000846775
0.000852145
0.00152705
0.0015716
0.00154286
0.00155231
0.0015959
0.000883769
0.00164929
0.000530709
0.000528705
0.000541255
0.000534218
0.000664202
0.00142967
0.000832976
0.000557228
0.000865126
0.0016126
0.00170133
0.00164442
0.0016578
0.0015882
0.000867914
0.00152398
0.00157563
0.00077446
0.000880679
0.000524602
0.000831259
0.000887767
0.00164374
0.0015823
0.000875597
0.00152926
0.0015569
0.0015125
0.000827166
0.00157673
0.00153931
0.00155401
0.00154086
0.0015044
0.000820989
0.00157123
0.00153575
0.000908129
0.000896791
0.00156774
0.00151961
0.000895094
0.00166779
0.00150956
0.00156348
0.000488295
0.000909932
0.00160693
0.00159783
0.00165332
0.00159995
0.000789827
0.000771675
0.000742314
0.000757933
0.000704104
0.000722899
0.000656031
0.000681039
0.00060916
0.000631359
0.000576068
0.000590647
0.000555821
0.000564728
0.000542887
0.000548708
0.000533928
0.000538025
0.000527439
0.000530423
0.000522874
0.000524934
0.000520018
0.000521245
0.000518466
0.00051911
0.000518013
0.00051804
0.000518908
0.000518374
0.000520415
0.000519597
0.000522343
0.000521335
0.000524573
0.000523427
0.000526987
0.000525768
0.000529392
0.0005282
0.000531577
0.000530544
0.000532778
0.00053236
0.000532518
0.000532789
0.000531909
0.00053574
0.000548259
0.000542757
0.000556933
0.00055283
0.00056449
0.000560797
0.000571145
0.000567973
0.000575741
0.000573811
0.000576658
0.000576734
0.000573409
0.000575505
0.00056725
0.000570582
0.000559745
0.000563598
0.000551498
0.000555731
0.000546816
0.00052714
0.000531203
0.000529553
0.00053251
0.000532084
0.000532508
0.000532707
0.000531089
0.000531923
0.000529086
0.000530119
0.000526934
0.000528025
0.000524799
0.000525855
0.000522808
0.000523777
0.000521082
0.000521902
0.000519821
0.000520377
0.000519476
0.000519449
0.000520591
0.00051993
0.000522828
0.000521535
0.000526668
0.000524529
0.000532344
0.000529267
0.000540098
0.000535932
0.000550763
0.000544985
0.000566519
0.000557783
0.00059196
0.000577644
0.000633631
0.000610585
0.000686422
0.000659763
0.000730459
0.000710594
0.000758395
0.000745964
0.000779089
0.000769123
0.000788886
0.00165127
0.00162753
0.00163868
0.0016097
0.00161781
0.00159469
0.00159894
0.00160328
0.00160463
0.00160661
0.00161605
0.00161031
0.00162383
0.00170216
0.00168403
0.00169535
0.00174615
0.00172435
0.00165134
0.00173747
0.00145463
0.000647582
0.000815156
0.000770618
0.00151186
0.00123929
0.00146573
0.00167771
0.00166524
0.00166983
0.00170475
0.00168953
0.00172697
0.00172023
0.001634
0.0017074
0.0012749
0.00148465
0.00104242
0.000840108
0.000828407
0.0016421
0.000806036
0.00167047
0.00159649
0.000855924
0.00153425
0.00156189
0.00162497
0.00161016
0.00161263
0.000892946
0.00111133
0.000564043
0.000793665
0.000517846
0.00052599
0.000524419
0.00119531
0.00118343
0.00167375
0.00166313
0.00168835
0.000982385
0.000694374
0.00106258
0.00121034
0.00143992
0.00139263
0.000802536
0.0013842
0.00110554
0.00122561
0.000660198
0.000842007
0.000823682
0.000851822
0.00164623
0.00169833
0.000782664
0.000799921
0.00167039
0.00163525
0.00159181
0.00158897
0.00116549
0.00117575
0.000868197
0.000856951
0.000862473
0.00152773
0.00111185
0.00113308
0.00115408
0.00156385
0.00153937
0.00154734
0.00158879
0.00115036
0.00135093
0.00131418
0.00059392
0.000889826
0.000507885
0.000813711
0.00165066
0.00166289
0.000510831
0.00128623
0.000841842
0.000875329
0.0016547
0.00168246
0.00166572
0.0015964
0.00159127
0.00158172
0.000877951
0.00152978
0.00157
0.00114531
0.00150732
0.000885107
0.000839466
0.00110562
0.00110848
0.000898855
0.00114441
0.00112643
0.00163923
0.00160504
0.00157589
0.00146731
0.00155141
0.001539
0.00155275
0.00150252
0.000834977
0.00113058
0.00115091
0.00160451
0.00160207
0.0015705
0.00153765
0.000918762
0.000906445
0.00108626
0.00115552
0.00113425
0.00115633
0.00113429
0.00115592
0.00113296
0.00115407
0.00156631
0.00152039
0.000904495
0.00164954
0.00150194
0.00156404
0.00150753
0.00090205
0.000137829
0.00155803
0.00168954
0.000922412
0.00108438
0.000793235
0.000774608
0.000750418
0.00076278
0.00071816
0.000736504
0.000676347
0.000698157
0.000628334
0.00065242
0.000586528
0.000606002
0.000558101
0.000570569
0.000540701
0.000548362
0.000529448
0.000534525
0.000521572
0.000525181
0.000515852
0.000518482
0.000511835
0.00051365
0.000509273
0.000510382
0.000507811
0.000508438
0.000507077
0.000507287
0.000507444
0.00050719
0.000508264
0.00050781
0.000509375
0.00050879
0.000510707
0.000510015
0.000512197
0.000511445
0.000513767
0.000512969
0.000515278
0.000514585
0.000516018
0.000515779
0.000515619
0.000515937
0.000514008
0.000515033
0.000509931
0.00051233
0.000507168
0.000532244
0.000522902
0.000544045
0.000538863
0.000552364
0.000548396
0.000559841
0.000556163
0.000566489
0.00056332
0.000571005
0.000569123
0.000571869
0.00057196
0.000568652
0.000570726
0.000562488
0.000565831
0.00055499
0.000558829
0.000546969
0.000551049
0.000537299
0.000542534
0.000521273
0.000530647
0.000505592
0.000510842
0.000508436
0.000514356
0.000512888
0.000515604
0.000515141
0.000515842
0.000515877
0.00051502
0.000515541
0.000513706
0.000514356
0.000512497
0.000513091
0.000511366
0.000511922
0.000510346
0.000510829
0.000509509
0.000509895
0.000508997
0.00050921
0.000509185
0.000508917
0.000510431
0.000509745
0.000512545
0.00051134
0.000516
0.000514091
0.00052098
0.000518285
0.00052777
0.00052412
0.000537071
0.000532046
0.000550587
0.000543135
0.000571967
0.000559991
0.000607086
0.000587554
0.00065502
0.000629974
0.000701184
0.000679544
0.000733716
0.000719042
0.000758646
0.0007466
0.000770239
0.00162935
0.00163941
0.00161363
0.00162065
0.00160471
0.00160835
0.00159552
0.0016023
0.00160282
0.00160395
0.00160804
0.0016102
0.00160876
0.00161756
0.00161302
0.00162394
0.001651
0.0016557
0.00172896
0.001707
0.00175255
0.00175165
0.00152688
0.00169329
0.000943835
0.00125331
0.00069622
0.00168823
0.000880305
0.00131771
0.00095854
0.00131758
0.00169806
0.00168032
0.00168746
0.0017271
0.00171203
0.0017215
0.00173575
0.00151794
0.00165822
0.00104977
0.00129952
0.000824806
0.000850054
0.000837897
0.00168201
0.000829643
0.000815241
0.00164901
0.00159001
0.00113732
0.00114573
0.000866329
0.00111403
0.00153255
0.00120133
0.00117677
0.00155583
0.00160124
0.00113013
0.00111778
0.000939432
0.000709366
0.000794042
0.00118399
0.0012083
0.000898763
0.00170644
0.0011903
0.0016513
0.000618355
0.000560569
0.000820602
0.00102659
0.00120075
0.00167597
0.00164846
0.00167646
0.00166805
0.000810063
0.00126526
0.00117846
0.000586546
0.00120327
0.000839465
0.000975889
0.000851328
0.0008318
0.000861691
0.00166869
0.0016851
0.00080933
0.00164862
0.00162253
0.00158731
0.00158263
0.00116875
0.000878225
0.000866823
0.00087243
0.00111459
0.0010805
0.000940926
0.00153129
0.00117803
0.00155829
0.00153851
0.00154424
0.00158208
0.00109211
0.00112473
0.00148822
0.00105181
0.000894173
0.00111173
0.000482735
0.000480453
0.000517703
0.000502294
0.00165992
0.0016553
0.000514581
0.000470095
0.00107747
0.000850525
0.00088593
0.00119247
0.00012778
0.00116136
0.00164913
0.00164989
0.0007857
0.000803201
0.00160756
0.00158975
0.00157646
0.00132859
0.00153344
0.000887403
0.00111375
0.00153791
0.00117947
0.00162224
0.00156516
0.00111971
0.00149836
0.000755881
0.000768651
0.000961897
0.000847713
0.000910652
0.00117172
0.00160131
0.00160275
0.00159584
0.00157143
0.00153592
0.000939276
0.00154972
0.00118011
0.00093008
0.000916105
0.000843355
0.00104903
0.00117646
0.00160088
0.00156711
0.00152109
0.00117871
0.000913769
0.00163498
0.00149662
0.00160777
0.00160399
0.00156361
0.00150608
0.000911088
0.00149739
0.00108888
0.00155834
0.000907621
0.001652
0.00170151
0.00108011
0.00122446
0.00109833
0.000795939
0.000773546
0.000749113
0.000761839
0.000720913
0.000735428
0.000684466
0.000704962
0.000639701
0.000662471
0.00059455
0.000616624
0.000556136
0.000573787
0.000531716
0.000542305
0.000517198
0.000523545
0.000507911
0.000512103
0.000501438
0.000504402
0.000496724
0.000498896
0.000493384
0.000494898
0.000491173
0.000492147
0.000489826
0.000490429
0.00048884
0.000489245
0.000488626
0.000488683
0.000488591
0.0004886
0.000488573
0.000488588
0.00048857
0.000488563
0.000488681
0.000488609
0.000488919
0.000488765
0.00048916
0.000489081
0.000488888
0.000489094
0.00048792
0.00048851
0.000486174
0.000487134
0.000484744
0.000503939
0.000528333
0.000519386
0.000539525
0.00053462
0.000547519
0.000543676
0.000554929
0.00055126
0.00056162
0.000558429
0.00056612
0.000564254
0.000566956
0.000567056
0.000563741
0.000565816
0.000557535
0.000560907
0.00055003
0.00055386
0.00054221
0.000546156
0.000533019
0.00053798
0.000526688
0.000478958
0.000483419
0.000481359
0.000486618
0.000485186
0.00048843
0.000487614
0.000489595
0.000489092
0.000490203
0.000489962
0.000490455
0.000490351
0.00049083
0.000490626
0.000491198
0.000491008
0.00049155
0.000491391
0.000491768
0.000491675
0.000491933
0.00049184
0.000492509
0.000492095
0.000493689
0.000493081
0.000495489
0.000494464
0.000498393
0.000496797
0.000502579
0.000500305
0.000508377
0.000505254
0.000516289
0.00051203
0.000527535
0.000521373
0.000545194
0.000535333
0.000574913
0.000558134
0.00061774
0.000595466
0.000662335
0.000640578
0.000699163
0.000681886
0.000728693
0.000714575
0.00074243
0.00167262
0.00165081
0.00166151
0.00163208
0.00164088
0.00161897
0.00162471
0.00161219
0.00161485
0.00161009
0.00161058
0.00160414
0.00161098
0.0016104
0.00160731
0.00161037
0.00161278
0.00161168
0.00161539
0.00161388
0.00162128
0.0016177
0.00163289
0.00162634
0.00164045
0.00166694
0.0017489
0.00172686
0.00172508
0.00176038
0.00133876
0.00159295
0.00075234
0.00102015
0.000583078
0.000604671
0.000663546
0.000682515
0.00106627
0.000702748
0.00109892
0.00169454
0.00168352
0.00168868
0.0017141
0.00170292
0.00173589
0.00172693
0.00167027
0.00172589
0.00132931
0.00153994
0.000831757
0.00106743
0.000577212
0.000667931
0.00117298
0.000859702
0.000847009
0.00167946
0.00083836
0.0008242
0.00163284
0.00158446
0.00113666
0.000876319
0.00109676
0.0011986
0.00120644
0.00153366
0.00120113
0.00155087
0.00159293
0.00110727
0.00094865
0.00143799
0.000902953
0.0010922
0.00171892
0.000963629
0.00121893
0.000929711
0.00160076
0.00057302
0.000477796
0.000476206
0.00164818
0.00165287
0.00168435
0.000498212
0.000622311
0.00103291
0.000929116
0.000481171
0.000964775
0.00062174
0.000728463
0.000618951
0.000610495
0.000860361
0.000838881
0.000871706
0.000964919
0.000739744
0.000908338
0.000788392
0.00165565
0.00166146
0.000818647
0.00161325
0.00158492
0.00157819
0.00112186
0.00148166
0.000887715
0.000876196
0.000881871
0.00109651
0.0016838
0.00122361
0.00122503
0.00106698
0.00105409
0.00153773
0.000457436
0.00120268
0.00154391
0.00160432
0.00157656
0.000357881
0.00110138
0.00148412
0.000708474
0.000726914
0.000786975
0.000484962
0.000824883
0.00169371
0.00107339
0.00169232
0.000859065
0.000897074
0.00115189
0.00115556
0.00108386
0.00119207
0.00124158
0.00162812
7.48454e-05
0.000812701
0.00160258
0.00158976
0.00157323
0.00072293
0.0009761
0.00152364
0.00104374
0.000896458
0.0010949
0.00160874
0.00161334
0.00161105
0.00154775
0.000850743
0.000842567
0.00070352
0.00120476
0.00146857
0.00115948
0.00147769
0.000926105
0.00156177
0.000856018
0.001003
0.00101111
0.00109571
0.000923057
0.00119888
0.00117003
0.00123386
0.000784209
0.000805422
0.00159924
0.00159746
0.00156905
0.00161354
0.00161449
0.00161198
0.000976649
0.00151958
0.000818626
0.000960843
0.001204
0.00155321
0.000923019
0.00162077
0.00094797
0.00164092
0.000851819
0.000350351
0.0012195
0.00121576
0.00120192
0.0014927
0.00160071
0.0016114
0.00160566
0.00156468
0.0016112
0.00151427
0.00150488
0.000920021
0.00148946
0.00107068
0.00160417
0.00155957
0.00149335
0.000916386
0.000911597
0.00107444
0.00160651
0.00155406
0.000645978
0.000311989
0.00116177
0.00114656
0.0011642
0.0011144
0.00108749
0.00112045
0.000793812
0.000758152
0.000733884
0.00074669
0.000703957
0.000719511
0.000669366
0.000687284
0.000626934
0.000649748
0.000576495
0.000602304
0.000528478
0.000550891
0.000498098
0.000511256
0.000479511
0.000487517
0.000468716
0.000473389
0.000461931
0.000464973
0.000457199
0.000459381
0.000453552
0.000455274
0.000450617
0.000452008
0.000448082
0.00044932
0.000445801
0.000446938
0.000443569
0.000444662
0.000441255
0.000442404
0.000438957
0.000440142
0.000436424
0.000437712
0.000433808
0.00043513
0.000431106
0.000432455
0.000428541
0.000429797
0.000425905
0.000427257
0.000423175
0.000424538
0.000420386
0.000421795
0.000417468
0.000418964
0.000413948
0.000415794
0.000409584
0.000411899
0.000406962
0.00050026
0.000474766
0.000524035
0.000515447
0.000534747
0.000530062
0.000542482
0.00053874
0.000549833
0.000546174
0.000556586
0.000553359
0.000561124
0.000559245
0.000561957
0.000562062
0.000558713
0.000560806
0.000552443
0.000555848
0.000544936
0.00054875
0.00053728
0.00054112
0.000528462
0.000533209
0.000513748
0.000522386
0.000473133
0.000498586
0.000405714
0.00041089
0.000408433
0.000415122
0.000413103
0.000418763
0.000416997
0.000422062
0.000420429
0.000425289
0.000423686
0.000428448
0.000426871
0.000431567
0.000430007
0.000434812
0.000433182
0.000438075