/*--------------------------------*- C++ -*----------------------------------*\
| =========                 |                                                 |
| \\      /  F ield         | OpenFOAM: The Open Source CFD Toolbox           |
|  \\    /   O peration     | Version:  2212                                  |
|   \\  /    A nd           | Website:  www.openfoam.com                      |
|    \\/     M anipulation  |                                                 |
\*---------------------------------------------------------------------------*/
FoamFile
{
    version     2.0;
    format      ascii;
    arch        "LSB;label=32;scalar=64";
    class       volScalarField;
    location    "0.00164";
    object      epsilon;
}
// * * * * * * * * * * * * * * * * * * * * * * * * * * * * * * * * * * * * * //

dimensions      [0 2 -3 0 0 0 0];

internalField   nonuniform List<scalar> 
7220
(
102473
131157
131191
131223
131141
131181
131230
131216
131244
131221
103760
1.2658e+06
125828
123558
125346
1.38998e+07
163003
97781.9
150331
97029.5
128671
188925
131152
283738
152034
2.27238e+06
7.19831e+07
103651
129575
129991
135034
129740
130878
131384
150932
113041
131246
105080
104565
95003.1
96661.2
96663.4
95004.3
114539
114515
114064
114018
114103
98465.4
100378
100381
98468
102353
104333
104338
102356
106254
108042
108046
106258
109621
110929
110933
109626
111936
112660
112664
111940
113146
113454
113458
113150
113641
113753
113762
113647
113820
113872
113877
113831
113913
113968
113984
113925
114176
114066
114046
114096
114018
114174
93521.2
93521
96712.5
95044.6
114051
114045
113860
114070
114017
113945
113980
113862
113919
113678
113789
113191
113495
111987
112708
109676
110982
106312
108098
102411
104392
98517
100434
95040.4
96706.5
100443
98524.4
104404
102421
108113
106325
110997
109691
112723
112002
113514
113207
113815
113701
113927
113885
113983
113958
114024
114001
93548.1
93550.6
113382
113319
113760
113924
113872
113740
113183
113332
113933
113058
113375
113333
113345
113363
113270
113329
113086
113195
112615
112909
111439
112144
109172
110453
105864
107621
102019
103973
98165.9
100065
94703.4
96366.7
92252.3
91898.4
93206.1
92237.1
92238.2
93212.2
91903.1
92253.8
96376.4
94711.1
100080
98178.4
103994
102037
107646
105887
110482
109199
112177
111470
112953
112652
113246
113136
113356
113314
113380
113378
113344
113128
113204
112561
112344
91171
90798.2
92656.5
91334.7
113859
113020
113564
113952
112178
112083
112188
113170
112543
112055
112338
112309
112326
112344
112247
112303
112074
112177
111624
111906
110490
111171
108297
109538
105090
106795
101347
103251
97572.3
99436.5
94146.6
95797.2
91329.7
92649.2
91169.4
91170.7
90801.2
91171.9
95809.7
94156.2
99455.8
97588.2
103277
101369
106827
105119
109577
108333
111218
110533
111969
111678
112250
112145
112353
112314
112364
112371
112334
112284
90206.6
90209.5
113740
112868
111938
113684
112081
111520
111338
111498
113289
90828.7
89676
89917.7
89293.2
113836
113339
111800
112724
110475
110622
111665
113691
111030
111194
111081
111312
111291
111292
111314
111208
111260
111046
111146
110616
110885
109531
110183
107428
108618
104343
105985
100725
102569
97045.3
98867.7
93662
95298.7
92163.8
89291.9
90313.6
89916.4
90326.5
90327.8
90314.6
89680.7
92172.7
90835.2
95313.3
93673.6
98889
97063.3
102597
100750
106021
104375
108663
107468
110237
109580
110956
110678
111221
111123
111308
111275
111314
111322
111293
111145
111271
110910
111041
110758
112142
88719.6
88723.3
110538
110441
110524
109666
113224
113417
113221
111382
113339
109273
110178
112579
111039
110151
110067
110358
110262
110430
110421
110402
110425
110315
110368
110162
110257
109753
110008
108725
109342
106727
107858
103785
105352
100311
102085
96738.3
98513.4
93401.7
95023.5
90545.8
91900.7
88352.7
89357.8
87539.5
88588.6
87965.5
89678.5
89253.7
89707.4
89708.3
89253.6
89679.5
87968.3
88589
87541.5
89362.9
88356.2
91910.5
90553
95039.2
93414.3
98535.6
96757.2
102114
100336
105390
103818
107904
106769
109399
108776
110081
109817
110325
110236
110397
110371
110401
110410
110395
110224
110356
109997
110117
109845
110934
111962
113727
110103
109838
109808
109831
88333
87453.1
87410.1
86917.8
113424
113164
112352
108606
107698
107058
107885
110896
112908
110990
113754
110055
109489
109554
109650
109592
109808
109731
109846
109846
109810
109836
109721
109772
109572
109663
109186
109426
108220
108800
106339
107405
103557
105041
100244
101940
96790.5
98513.3
93504.4
95110.6
90621.9
91999.6
89393.5
86916.6
88087.3
87408.2
89251.4
88797.1
89296.7
89297.5
88796.7
89252.4
88087.4
87456.2
89399.2
88337.2
92010
90629.8
95126.4
93517.5
98535.3
96809.4
101969
100269
105078
103590
107450
106380
108856
108270
109493
109248
109714
109636
109775
109753
109769
109782
109781
109577
109711
109257
109443
108777
109008
108293
111881
109442
86757.4
86759.8
109556
109550
109692
110536
113385
113358
112917
111969
106292
107071
101614
108822
136047
110404
109103
108869
109355
109184
109505
109423
109633
109572
109657
109660
109615
109642
109526
109575
109379
109465
109015
109241
108113
108655
106353
107351
103739
105136
100596
102210
97272.1
98938.1
94043
95630.7
91135.3
92535.8
88745.5
89864.7
87018.6
87793.8
86420.4
86472.3
86240.3
87766.3
87030.1
89005.7
88521.7
89065.3
89066.3
88521.4
89006.2
87031.4
87766.3
86242.3
86473.2
86422.6
87797.4
87021.3
89871
88750.2
92546.6
91143.6
95646.4
94056.2
98959.2
97290.5
102238
100620
105170
103769
107394
106392
108708
108160
109299
109072
109497
109428
109549
109529
109534
109550
109549
109306
109543
109448
108898
109137
108384
108606
107269
107927
105900
106627
103141
104157
105405
105062
111515
131678
108647
108456
113579
131228
87718.6
87039.9
85890.3
85994.5
112981
104448
112538
106167
108047
111416
109798
131240
136165
136320
138972
143440
136559
109186
110010
132790
108778
103427
104311
113104
112269
108212
132107
108002
135677
107702
107467
131310
105730
106871
106983
106342
108144
107596
109003
108609
109520
109309
109732
109631
109844
109794
109862
109867
109815
109842
109725
109775
109582
109665
109238
109451
108395
108901
106753
107684
104305
105615
101340
102867
98155.4
99758.7
94995.6
96558.8
92074.2
93492.2
89592.1
90766.4
88571.4
85992.6
86187.4
85888.7
87594.1
86805.7
88903.8
88392.2
88974.6
88975.6
88392.3
88903.6
86806.3
87594.3
86188.3
87042.4
88575.5
87721.7
90773.2
89597.3
93503.1
92082.8
96573.8
95008.6
99778.3
98172.6
102892
101362
105646
104333
107724
106788
108949
108439
109497
109287
109676
109614
109719
109703
109700
109715
109702
109707
109666
109681
109425
109576
108972
109231
108433
108677
107299
107975
105931
106643
105142
134316
134296
136105
111031
113503
133045
100347
238641
101413
86535.7
86537.7
138253
109641
111759
112609
113025
103460
142808
108299
104768
103991
102701
112559
105226
107176
107100
5.34501e+06
112012
118067
106218
142017
110798
109081
131719
132229
100254
134218
132943
131204
107412
106779
108616
108053
109504
109099
110073
109826
110344
110227
110454
110411
110464
110472
110410
110440
110318
110369
110177
110257
109849
110051
109058
109532
107522
108393
105234
106458
102446
103885
99413.9
100947
96345.6
97872
93436.5
94858.7
90889.2
92105.4
88889.8
89810.2
87565.1
88140
87164.9
85724
86200.9
86038.7
85685.3
87536.4
86705
88904.1
88369.9
88982.6
88983.5
88370.2
88903.5
86705.3
87536.8
85686.7
86039.5
86202.6
85725.5
87166.6
88142.6
87567.1
89814.5
88893.1
92112.4
90894.7
94868.9
93444.9
97885.6
96357.5
100964
99429.2
103906
102465
106485
105258
108427
107553
109572
109096
110081
109888
110243
110188
110277
110265
110257
110271
110241
110254
110186
110214
109930
110089
109453
109722
108841
109148
107696
108351
106332
107038
105568
137694
138131
105944
132305
134006
110676
112987
133897
101523
102690
139875
132657
131263
109171
105531
104785
103273
112520
111186
112015
135731
104313
131175
89017.1
88550.9
86028.9
86936.6
106234
151399
107696
101969
131279
131236
131278
131313
132000
112046
134407
133815
137044
148903
135340
135859
106389
100404
131375
131169
131105
131278
137304
111379
108240
105467
131444
110066
133248
133361
134069
105051
131736
133748
132144
132728
100419
131217
99129.4
139189
108125
107494
109337
108761
110286
109849
110922
110641
111252
111115
111373
111330
111377
111388
111316
111350
111221
111274
111080
111160
110767
110959
110022
110468
108586
109400
106449
107592
103838
105188
100972
102426
98027.6
99499.3
95169.6
96577.6
92571.1
93824.6
90469.1
91443.7
89657.7
86934.9
85601.7
86027.5
86002.6
85612.5
87560
86699.9
88967.2
88417.9
89049.9
89050.6
88418.4
88966.6
86700
87560.5
85613.7
86003.3
85603
88553.1
89660.5
89019.5
91448.2
90472.6
93831.7
92576.8
96586.6
95177.6
99510.3
98037.4
102439
100984
105205
103853
107614
106468
109428
108611
110498
110053
110971
110792
111120
111070
111149
111140
111129
111143
111100
111118
111027
111070
110752
110919
110252
110532
109548
109925
108394
109030
107024
107727
106284
140789
131612
131286
131389
131273
134102
138445
110178
105179
104123
112458
136224
135672
134949
138354
136507
137547
133910
135453
773854
103243
105287
131036
88255.8
88258
105234
143881
137227
140822
139625
144500
108566
131192
102594
131285
131788
132741
132471
131220
112024
110596
111474
134057
137027
135047
135706
133693
134817
135050
133772
133949
135530
136722
131452
131222
131308
147188
136897
106964
100804
136056
131618
153060
111414
133253
133716
132839
132695
107279
105597
105499
99233.3
133542
131172
131231
131255
131248
131240
131289
110614
132699
132504
132415
132043
99017.1
155600
109198
104657
131431
132399
131989
131821
133940
104377
131660
134671
133108
133823
131977
132919
99340.5
102109
114376
133036
131216
98130.2
195391
108956
108289
110165
109579
111228
110725
111988
111652
112396
112230
112539
112492
112538
112552
112465
112506
112359
112416
112212
112294
111906
112091
111193
111619
109828
110601
107805
108887
105339
106614
102626
104004
99814
101224
97043.6
98413.5
94503.7
95732.1
92383.6
93379.7
90827.8
91530.5
89886.6
90280
89641.9
86866.6
88122.7
85611.7
86004.1
86059.3
85652.3
87637.6
86766.1
89061
88506
89144.3
89144.7
88506.4
89060.6
86766.3
87638
85653.2
86059.8
86005.3
85612.8
88125
86868.3
89644.7
90282.9
89889.3
91534.2
90830.9
93384.6
92387.8
95738.5
94509.3
98421.6
97051
101234
99822.6
104015
102637
106627
105352
108905
107821
110623
109849
111636
111215
112082
111913
112220
112174
112246
112239
112225
112239
112186
112208
112091
112151
111790
111971
111248
111551
110439
110883
109263
109892
107907
108595
106490
107195
105791
104072
201466
131170
131919
135294
142471
138204
131304
131644
131413
132909
132100
136966
134433
140601
109574
103469
110304
131205
111972
134470
136427
133884
133878
140706
134970
106462
131229
131207
131091
131132
132916
134590
122293
139589
137737
137540
136117
136517
145368
138079
142329
140810
145404
107827
101535
134286
132170
131149
131202
111398
109892
110821
133409
135354
134093
134529
132667
106222
131255
91515.4
91125.4
88137.5
89534.9
150708
138069
106147
139912
99688.7
134595
131440
131246
131251
131217
110638
132447
131822
143850
108180
145477
104755
98254.6
133855
131269
109703
131727
131382
133934
103845
131374
135789
133867
131354
133976
103500
131542
133502
98293.5
100988
131722
133466
102869
131039
133599
131823
155688
97314.2
131243
131215
131263
131245
105502
106610
108492
107548
109825
109204
110999
110419
112138
111579
113038
112630
113562
113348
113754
113691
113758
113772
113675
113722
113560
113621
113405
113491
113098
113283
112401
112815
111082
111827
109147
110179
106812
108015
104262
105556
101618
102945
98992.7
100295
96547.3
97736.8
94417.8
95436.4
92709
93504.7
92042.8
89532
86941.8
88135.1
85738.5
86115.1
86191.6
85789
87749.7
86886.5
89163.7
88612.9
89243.7
89243.9
88613.3
89163.7
86886.8
87750
85789.7
86192.1
86116.4
85739.5
86943.4
91128.8
92046.6
91518.9
93509.4
92713.2
95441.9
94423
97743.2
96553.2
100302
98999.6
102953
101625
105565
104271
108027
106822
110194
109160
111843
111099
112819
112413
113249
113087
113384
113339
113409
113403
113393
113406
113346
113373
113224
113303
112882
113084
112291
112621
111405
111889
110209
110841
108880
109550
107542
108204
106282
106878
105733
131286
131276
131280
131275
131274
131249
131278
131276
131223
131266
131267
131265
131271
131163
131187
131117
131166
131147
131501
131262
131991
137158
137405
107022
137017
144034
139361
131260
131291
131270
131315
131271
131654
131421
132894
132101
136978
134393
140899
108845
102544
133001
104398
131128
131198
111355
133694
134976
132696
132704
131749
105002
112304
136557
105717
155364
90861
90864.4
119208
119992
131240
131264
131221
147712
142730
140655
139742
137909
138388
147947
139523
144201
142635
145390
106997
102977
100539
133439
131874
105827
104654
131081
131126
131218
131191
116518
117829
110630
109063
110016
132490
108363
111172
114190
133838
132905
133204
131724
113925
134745
135168
140850
107047
145476
104001
131311
131315
155634
140840
105268
98780.5
133313
131265
131260
131280
131255
131201
109728
131584
131115
114326
133898
108652
103857
108504
107886
97513.1
114401
111755
132560
131175
131234
137333
134657
131052
130877
133888
102941
111112
114751
131268
131225
131301
134124
97319.4
99882.4
106080
114250
110981
114424
110867
114597
110877
114711
131388
133935
101723
130984
133995
131462
133933
103723
326976
131552
131251
96712.2
111491
105177
106436
107674
106983
109360
108485
110670
110036
111823
111241
112977
112400
113986
113515
114650
114371
114914
114825
114932
114943
114839
114892
114710
114777
114545
114636
114234
114420
113549
113955
112267
112989
110405
111395
108190
109327
105807
107012
103356
104586
100914
102129
98568.1
99723.6
96394.1
97454.1
94525.6
95409.6
93122.4
93761
92192.7
92603.9
91872.3
89536
90703
87137.3
88268.9
85964.9
86340.2
86386.3
86006.8
87885.1
87049.3
89264.6
88727.5
89337.3
89337.3
88727.8
89264.7
87049.6
87885.3
86007.4
86386.8
86341.5
85965.8
88271.4
87139.2
90706.6
89539.2
91876.9
92607.9
92196.9
93765.5
93126.4
95415.2
94530.5
97460.4
96400.1
99730.1
98574.6
102135
100920
104592
103363
107020
105814
109336
108198
111406
110415
112998
112278
113945
113551
114362
114205
114493
114449
114518
114513
114506
114519
114448
114483
114292
114391
113905
114130
113257
113617
112326
112827
111148
111758
109880
110517
108605
109238
107371
107970
106835
131304
131307
131301
131302
131296
131300
131279
131280
131289
131271
131294
131298
131297
131300
131299
131303
131317
131291
131184
131203
131194
131174
131505
131285
132765
131954
134214
131353
141082
139063
146008
141088
131268
131297
131277
131322
131279
131650
131424
132854
132083
136862
134314
140700
108011
101715
132503
102571
103518
131099
131195
114148
115371
110586
107987
132651
119390
116621
133538
131721
111281
113334
143525
151561
113074
122662
126201
105784
131235
121737
130960
144392
147063
104215
98293
134365
131319
131338
131272
131065
144312
140917
141313
152513
142813
148008
146526
106098
102567
99756.1
132506
131555
103909
131043
131104
131223
131183
118375
109725
108149
109099
107625
102878
157608
131552
117364
132631
131841
132069
130979
106093
111635
133980
100377
107500
107502
93642.5
93195
90631.9
91634.5
131322
131342
167551
167811
146598
104313
98116.1
138809
191122
117112
132171
131543
106051
104653
131128
131261
131182
140007
135543
108684
107412
130880
117735
131596
130586
112270
133692
107748
107370
98149.3
102880
97047
117882
131174
131268
131279
131194
134759
157640
130556
118240
96591.2
98782.1
101973
111655
118357
131230
131216
134423
118461
100617
130920
134133
131289
131273
131236
134307
102512
134256
105283
131251
104463
130981
131266
140288
130139
135910
105862
107315
107681
107401
108715
108130
110167
109391
111508
110867
112632
112065
113748
113195
114783
114292
115564
115219
115932
115799
115988
115986
115894
115951
115756
115828
115581
115677
115264
115452
114581
114984
113323
114030
111518
112474
109407
110486
107175
108299
104905
106043
102627
103766
100346
101486
98142.2
99223
96232.2
97136.5
94752
95439.3
94157.8
91629.7
89626.4
90627.9
87423.8
88491.3
86270.9
86652.7
86631.9
86290.2
88039.9
87247.4
89362.6
88847.4
89425.1
89425
88847.7
89362.8
87247.7
88040.1
86290.7
86632.3
86654
86271.8
88494.2
87425.9
89629.8
93201
94163.2
93648.2
95444
94757
97141.9
96237
99229.6
98148.3
101492
100353
103773
102633
106048
104911
108305
107181
110493
109413
112483
111526
114032
113330
114960
114574
115371
115216
115503
115458
115532
115524
115520
115533
115447
115492
115252
115373
114820
115067
114129
114508
113187
113686
112066
112643
110852
111466
109637
110235
108514
109052
108078
131337
131331
131334
131324
131327
131314
131319
131295
131306
131260
131279
131257
131218
131239
131281
131264
131296
131281
131314
131306
131323
131319
131331
131327
131335
131297
131206
131220
131218
131199
131496
131299
132554
131888
135790
133772
139096
144958
142236
150515
144833
131302
131341
131325
131274
131283
131325
131285
131628
131422
132734
132024
136507
134090
145193
140239
116736
107099
101104
131935
101656
102674
131070
131195
115801
109676
104932
121254
120566
131657
120330
132318
130973
108880
126137
134704
106249
104699
131252
100022
912266
128047
135511
202008
92812.1
92818.4
131350
131353
131284
152096
151627
147468
147260
163640
150973
157618
156536
162350
157358
105117
102461
99220.6
164022
184207
149505
233058
131755
131213
103226
131081
131232
131179
146042
136747
108677
107108
108047
104560
3.46833e+07
124797
122262
100744
99601
130789
167572
120735
131290
130973
130439
1.41964e+06
109822
133527
109358
109117
106919
211366
168391
131350
104566
131362
103276
97730.2
119673
118615
108941
120809
128642
131399
563572
104275
131122
131270
131166
144676
123706
135425
148066
107549
104449
131245
131228
131201
130376
133337
135458
161971
121505
377502
191315
135456
97727.2
130263
101831
96773.9
97864
110680
97075.8
121587
133572
133203
107355
105825
131178
131279
131152
131083
131135
131132
124810
134895
136520
129872
121954
130380
99588.6
130791
96846.5
131414
101011
166205
124970
300254
122038
133983
131237
131201
131249
131128
131192
134371
134654
101395
134332
103411
131275
131094
134516
103178
104972
102530
131272
131057
176848
135008
137705
123706
127792
117187
117931
120549
107484
108778
108609
108660
108924
108682
109785
109299
111012
110338
112343
111717
113444
112891
114494
113978
115490
115007
116319
115932
116794
116610
116905
116883
116820
116878
116674
116750
116489
116589
116164
116356
115479
115882
114234
114932
112469
113401
110438
111471
108331
109387
106214
107274
104067
105147
101864
102969
99746.9
100778
97945.8
98799.1
96483.6
97180.5
95220
95835.1
94094.6
94637
93614.3
91451.8
92485
89772.2
90613.8
87765.1
88765.8
86632
87021.3
86917.2
86621.7
88214.8
87476.6
89464.6
88977.4
89515.1
89515
88977.6
89464.7
87476.9
88215
86622.3
86917.7
87022.7
86632.9
88769
87767.3
90618.1
89776
92491.6
91457
93622.2
94644.1
94102
95841.6
95227
97185.7
96489.5
98804
97950.5
100784
99752.5
102976
101870
105153
104073
107278
106218
109392
108336
111477
110443
113407
112475
114927
114236
115842
115460
116250
116095
116383
116337
116412
116405
116395
116412
116303
116361
116069
116211
115600
115865
114887
115275
113959
114444
112895
113440
111753
112329
110654
111184
109753
110171
109465
131347
131350
131339
131343
131327
131334
131307
131319
131273
131293
131224
131250
131169
131196
131144
131275
131253
131308
131294
131328
131320
131341
131335
131346
131358
131330
131349
131307
131230
131241
131243
131225
131476
131313
132352
131793
135111
133355
137685
152101
98010.6
148915
162489
154590
131310
131332
131284
131292
131330
131294
131597
131416
132604
131956
136224
133857
145929
140274
152037
106089
100745
204662
150550
131391
100750
101850
131039
131200
125608
124787
143109
138753
131312
166748
485839
113658
114216
125247
3.06444e+07
110680
108621
102323
96636.7
123792
98766.4
130852
131871
123411
131474
130447
130428
107165
132342
210589
171147
133389
3.39982e+07
142300
128476
184156
113498
113765
134237
108888
166600
131286
141225
166944
172496
195555
177922
186861
131363
104032
104547
102527
98934.9
116938
112189
123147
127104
131196
101351
134864
130593
406919
102497
102647
131069
131245
131179
131076
131035
131033
131075
122533
121905
155115
148270
140420
136275
140606
130896
106628
107520
105947
106869
102054
131175
1.5512e+06
131397
129032
99164.1
98222.4
96989.7
130980
130307
133723
138618
124372
134608
97152
118543
130787
130844
166360
98559.9
130120
130162
160453
167967
95508.4
94845.5
92219.9
93216.1
131358
131372
131369
158932
176719
196471
218303
102163
99295.3
96510.2
108575
97737.3
116157
107195
124498
132094
130841
104076
146031
130925
131121
131280
131152
131129
124476
120797
143041
135356
174099
161976
205903
106340
102128
131225
97010
96320.7
130094
124975
118835
98728
654113
135184
136333
280790
100800
97790.4
109756
97243.1
115759
114999
101020
125109
136883
133695
105987
131186
131282
131112
131190
123433
145821
134958
116159
162753
163649
150446
125263
100456
218878
100056
97454.1
110467
134135
109133
107894
102160
131246
131247
131047
152197
134705
151394
101937
103702
101043
131277
130964
134486
128444
230548
357923
165975
131280
139417
124726
128881
118752
121446
114292
115285
116651
109734
110919
110116
110390
110016
110027
110319
110103
111056
110639
112118
111535
113362
112773
114438
113903
115435
114953
116348
115893
117166
116770
117726
117495
117904
117856
117839
117893
117688
117768
117495
117599
117162
117357
116475
116878
115241
115932
113506
114420
111533
112533
109515
110523
107503
108509
105457
106488
103384
104415
101476
102395
99881.2
100641
98458.4
99166.2
96988.6
97734.5
96238.1
93207.7
91324.7
92213
89943.9
90639.9
88122.6
89054.7
87020.3
87410.7
87231.5
86981.6
88414.6
87733.7
89584.7
89127.9
89623.6
89623.6
89128.1
89584.9
87734
88414.9
86982.3
87231.9
87412.3
87021.3
89058
88125
90644.5
89947.9
91330.2
94853.1
96244.4
95515.1
97740.4
96994.5
99171.6
98464.3
100646
99886.1
102401
101481
104421
103390
106492
105462
108513
107507
110527
109519
112538
111537
114422
113510
115918
115238
116823
116445
117228
117074
117361
117316
117385
117381
117359
117382
117244
117315
116974
117135
116475
116753
115751
116140
114851
115318
113843
114357
112803
113319
111876
112315
111181
111493
110917
110981
110714
110822
131344
131348
131333
131340
131314
131325
131284
131300
131238
131263
131180
131210
131120
131150
131066
131093
131045
131039
131120
131098
131075
131053
131125
131099
131183
131153
131240
131213
131285
131265
131316
131302
131337
131327
131349
131344
131353
131354
131371
131333
131267
131277
131276
131262
131462
131329
132199
131728
134465
133022
136989
167752
6.56423e+07
162796
198498
183870
131378
131397
131392
131336
131357
131311
131319
131350
131319
131580
131423
132469
131893
135674
133572
145517
139489
153306
104964
100590
114836
125329
131021
154876
165954
99916.9
101092
111352
131211
131082
121516
137650
135282
136446
129802
121880
125922
355758
116279
112578
111552
110559
108799
107441
100318
1.04891e+08
131296
127817
97451.3
8.08791e+06
136095
126743
134591
130962
130476
191064
212585
130106
185790
8.31028e+07
153642
140874
354010
132232
111640
317032
94277.8
94286.4
110560
131411
167432
224395
259411
190868
284777
242615
292623
102864
893170
106192
104796
102823
98971.7
114626
110270
126798
130670
130771
130718
125573
8.83138e+07
102236
130958
131064
131261
131185
131129
120457
119300
138379
135888
155695
151790
353632
116273
106776
106275
104712
105592
100216
131208
131152
131172
2.58692e+06
133196
98073.5
97374
96334
162259
172372
130862
130220
130039
149975
143518
127615
109611
98326.2
130642
130886
126195
130557
300896
223969
140849
239361
2.74645e+06
353909
131527
131400
131536
101067
99099.5
107881
97904.8
114020
105342
114341
116014
113940
127763
135968
133531
133430
7.56576e+06
151616
104234
131124
131294
131144
131189
130435
123453
119271
138758
135223
97423
168834
196043
180808
118912
117222
114850
114181
105104
100472
131262
141616
96722.3
96417.8
129968
127959
508627
99780
153035
148615
113401
220619
99149.9
99778.4
97943
108990
97592.1
113535
113449
128080
3.51041e+07
220317
133715
104870
106396
115904
131198
131289
131072
131249
122920
139836
134843
147772
153445
378639
164168
109856
108510
100821
102424
100004
131257
130967
134502
146181
396352
247282
137232
143881
126943
131298
120918
123604
117532
118890
116882
115819
113426
114217
112663
112915
112568
112581
112833
112645
113485
113107
114481
113942
115632
115079
116710
116173
117653
117205
118476
118060
119257
118874
119863
119600
120103
120028
120062
120108
119903
119988
119700
119810
119359
119558
118671
119073
117445
118130
115733
116634
113801
114778
111847
112820
109928
110884
108023
108974
106201
107090
104654
105383
103394
104004
102065
102759
100506
101305
98992.6
99735.5
97613.8
98276.6
97048.6
92869.9
93828.4
91243.1
91995.6
90116.4
90689.9
88460.7
89325.5
87406.3
87786.9
87562.1
87348.9
88648.9
88016.6
89750.1
89319.1
89781.2
89781.1
89319.2
89750.2
88016.9
88649.1
87349.6
87562.6
87788.7
87407.4
89329.2
88463.4
90694.6
90120.6
92002.6
91248.8
93837.7
92878.4
97059
98284.8
97623.1
99741.6
98999.7
101308
100510
102763
102068
104008
103398
105387
104658
107094
106205
108977
108027
110887
109931
112823
111850
114781
113803
116632
115734
118108
117436
119002
118629
119402
119250
119528
119487
119541
119543
119495
119527
119353
119439
119051
119227
118529
118817
117796
118187
116913
117369
115942
116435
115005
115459
114257
114605
113672
113951
113204
113416
112915
113078
112748
112725
112923
131352
131363
131339
131345
131322
131332
131296
131310
131257
131278
131206
131233
131145
131176
131087
131115
131040
131061
131014
131024
131015
131011
131043
131026
131089
131064
131147
131117
131207
131178
131259
131235
131299
131281
131326
131314
131344
131336
131356
131350
131410
131369
131552
131511
131545
131457
131476
158072
131435
131385
156707
131365
131375
131380
131363
131544
131432
132159
131760
134182
132854
140221
136429
213917
943231
148719
214273
315596
270199
131495
131515
131444
131469
131411
131423
131436
131414
131625
131494
132403
131892
135302
133363
144813
138869
153116
103769
130638
100739
112661
131513
115665
115908
128830
130723
131074
154610
99245.7
100519
131007
131227
131137
119219
136727
147533
130141
153769
156395
153892
133957
140067
123994
128390
118000
120626
114577
116027
113266
113559
113545
116695
116413
108826
106162
98952.2
131191
137227
132104
96712.2
192399
143743
150622
130805
130794
130175
328882
130096
140542
130008
97037.1
151764
176141
179436
97682.5
102222
189907
314762
130729
2.52618e+06
3.83476e+06
135073
113273
446676
253458
153340
139451
169423
1.32174e+07
131253
461293
528912
441395
288490
141776
440515
599011
131425
131570
101716
101056
105812
105080
103112
99231.9
112631
108348
113825
113666
130033
134103
146729
136685
130493
145481
5.16816e+06
152632
102289
135005
129406
145060
130916
131056
131282
131197
131192
119387
117982
136616
135492
160823
191231
166203
170576
127900
202076
181236
166434
173657
156305
172297
112455
98776
113749
110723
107028
104983
103441
104285
99029.1
131251
131213
131227
110452
137273
97410.6
96860.8
96140.6
129945
147987
130339
97556.7
147079
112468
556595
148952
113997
113482
93503.5
96620.6
131435
131585
146374
98319.2
176332
96555.4
99963.1
99087.3
107466
98351.1
112573
103730
112881
130529
157446
138357
133011
133534
130349
158693
104641
99905
131133
131311
131137
131250
123514
118822
136329
134931
149339
153488
156516
144638
158511
207899
428274
243846
110495
112958
162068
173654
103876
99352.9
131278
130836
134292
143135
97067.5
129976
96851.5
98804.1
98239.3
108893
112657
140279
130593
191108
186537
106993
99838
101161
99083.2
131215
131297
131029
122866
138048
134468
149177
151190
130746
122595
122870
875529
441850
256497
144185
131097
130742
130236
126540
126252
148414
859144
849331
143341
143125
144750
181327
151983
159924
139453
144854
132061
135298
128421
129791
127755
128019
125456
126421
127878
125927
129734
129004
124659
147665
129949
130234
128344
129794
125086
126508
123688
124202
123271
123420
123261
123214
123737
123435
124713
124180
125737
125233
126759
126259
127599
127206
128288
127938
128998
128644
129612
129334
129889
129799
129850
129898
129664
129764
129433
129556
129073
129280
128375
128781
127150
127832
125468
126349
123626
124549
121855
122723
120248
121029
118844
119516
117790
118259
117259
117459
117014
117141
116451
116786
115740
116074
114986
115388
114535
96609.6
92610.6
93494.3
91197.9
91824.9
90267.9
90748.7
88750.8
89552.8
87763.8
88121.2
87898.4
87703.3
88944.1
88330.6
90016
89595.5
90047.7
90047.7
89595.6
90016
88330.8
88944.3
87704.1
87898.9
88123.1
87765
89556.6
88753.6
90753.6
90272.3
91832.2
91203.8
92619
113500
114546
114011
115395
114995
116075
115744
116784
116450
117141
117014
117459
117259
118258
117790
119514
118843
121026
120246
122718
121851
124542
123620
126334
125459
127791
127125
128678
128308
129066
128920
129170
129140
129143
129163
129033
129089
128847
128954
128508
128699
127966
128264
127211
127613
126310
126767
125363
125827
124542
124916
124002
124238
123449
123750
122661
123065
122364
122502
122295
122261
122406
131369
131385
131345
131357
131319
131333
131285
131303
131243
131265
131191
131218
131135
131163
131082
131107
131046
131061
131029
131036
131027
131026
131044
131033
131082
131061
131136
131108
131193
131165
131245
131220
131288
131268
131323
131307
131349
131337
131372
131360
131390
132002
131878
131957
131779
131813
131736
131756
131702
131718
131670
131688
131656
131658
131758
131684
132222
131918
133594
132728
138319
135277
754682
402726
488185
248575
366818
684096
512659
131939
132029
131971
131857
131900
131781
131817
131738
131755
131750
131734
131898
131795
132531
132110
134820
133298
143309
137856
151712
102550
103379
101069
110759
113601
132122
135970
130526
175969
170270
187221
181646
198813
190988
149468
189920
200094
100374
126149
130984
131248
131201
118028
135874
168888
187709
182756
181610
184814
167207
148615
168039
146377
153600
134327
139753
127293
130298
123051
124875
121588
121985
122643
113300
108998
104831