/*--------------------------------*- C++ -*----------------------------------*\
| =========                 |                                                 |
| \\      /  F ield         | OpenFOAM: The Open Source CFD Toolbox           |
|  \\    /   O peration     | Version:  2212                                  |
|   \\  /    A nd           | Website:  www.openfoam.com                      |
|    \\/     M anipulation  |                                                 |
\*---------------------------------------------------------------------------*/
FoamFile
{
    version     2.0;
    format      ascii;
    arch        "LSB;label=32;scalar=64";
    class       volVectorField;
    location    "0.0001";
    object      U;
}
// * * * * * * * * * * * * * * * * * * * * * * * * * * * * * * * * * * * * * //

dimensions      [0 1 -1 0 0 0 0];

internalField   nonuniform List<vector> 
2681
(
(7.59097e-14 7.90561e-13 -6.23662e-18)
(1.81557e-14 -8.73313e-14 0)
(-1.94646e-13 -2.37388e-13 -9.32193e-18)
(-2.61314e-13 -1.03978e-13 -2.75935e-17)
(-1.41384e-13 -2.75455e-13 6.45245e-18)
(1.16318e-13 -7.52117e-14 1.5864e-17)
(-9.3545e-15 -6.2851e-13 -6.86316e-18)
(2.64563e-13 -3.7483e-13 8.92383e-19)
(-3.46967e-14 5.10913e-13 1.76935e-18)
(-4.81335e-13 1.05469e-12 -4.45407e-19)
(-1.1627e-12 -5.21874e-14 0)
(-5.69172e-13 2.98555e-13 -4.73158e-19)
(-4.30343e-13 9.73289e-14 -4.59414e-19)
(-4.12251e-13 2.37464e-13 0)
(-4.31949e-14 5.39914e-13 -2.09994e-18)
(1.40326e-13 3.32216e-13 3.44044e-18)
(7.34853e-14 2.6722e-15 0)
(2.05436e-13 -1.03227e-13 -2.19898e-18)
(-1.75209e-13 1.99624e-13 9.74545e-18)
(-4.53415e-13 6.80303e-13 -1.12586e-17)
(-1.83651e-13 1.89778e-13 -3.62512e-17)
(5.48178e-13 -3.30227e-13 2.66935e-18)
(7.26809e-13 5.14152e-14 -1.06635e-17)
(-5.13436e-13 -9.33401e-14 7.18357e-18)
(1.24398e-14 1.1134e-12 -3.98554e-18)
(-1.35074e-13 -7.0698e-13 0)
(-5.25564e-13 1.47938e-13 -8.35511e-18)
(5.88258e-13 3.68487e-13 7.82855e-19)
(9.69812e-14 7.14735e-15 3.55658e-18)
(1.50666e-13 -1.88095e-13 4.26471e-18)
(-2.10114e-13 -2.57108e-14 -2.01634e-18)
(-3.17913e-14 -3.34919e-13 4.18087e-18)
(1.80265e-13 -2.02436e-13 -3.64854e-18)
(2.74354e-13 -7.432e-13 1.84846e-18)
(2.7383e-14 -9.12646e-13 0)
(1.32641e-13 9.49961e-14 -2.73701e-18)
(-5.74557e-14 -3.41499e-13 6.91294e-18)
(-5.22762e-13 -7.97173e-13 8.2848e-19)
(-3.6169e-13 -4.14596e-13 -1.65202e-18)
(1.01547e-12 3.72507e-13 -1.67451e-18)
(4.73188e-13 -3.12958e-13 3.08325e-18)
(-9.47875e-13 -2.30791e-13 0)
(-2.93989e-13 -2.48043e-13 -8.74151e-19)
(3.58803e-13 -7.95583e-13 0)
(-8.08985e-14 -4.5881e-13 0)
(-1.96251e-13 3.59635e-13 0)
(4.33808e-13 -8.64504e-13 4.51271e-19)
(1.0727e-12 4.88421e-13 -3.51658e-18)
(-5.33882e-14 2.86694e-14 0)
(-8.97839e-13 4.91577e-13 -8.93645e-19)
(-3.68112e-13 6.6821e-13 -4.10019e-33)
(4.40708e-13 2.47894e-13 6.57696e-18)
(1.73372e-13 -4.12657e-13 4.91726e-19)
(-5.64893e-13 -2.604e-13 -8.90414e-19)
(-2.01697e-13 -7.92655e-14 1.8117e-18)
(-3.95538e-13 5.43207e-13 4.58866e-19)
(6.60784e-13 -1.78249e-13 -1.37937e-18)
(-2.20963e-13 4.64532e-13 -9.29712e-19)
(-3.67017e-13 8.66595e-14 0)
(3.56494e-13 -3.17734e-13 1.77349e-18)
(-2.2618e-13 9.35433e-14 4.44759e-19)
(2.89287e-13 -1.89512e-13 0)
(5.45562e-13 -7.05131e-13 7.8166e-18)
(-5.39677e-13 3.07602e-13 9.28436e-18)
(1.72052e-13 -3.72391e-13 -1.59131e-18)
(-1.19543e-13 1.00989e-12 3.79361e-33)
(-1.26448e-13 8.55505e-13 0)
(9.36539e-13 -2.52312e-13 0)
(-5.22048e-13 -2.54042e-13 1.70891e-18)
(9.41475e-14 -1.09127e-13 0)
(3.93019e-13 5.10853e-13 3.52643e-18)
(-1.35973e-13 -2.21775e-13 8.03879e-19)
(-9.78667e-13 3.4212e-13 -2.89557e-18)
(1.71436e-13 4.13988e-13 -5.17506e-18)
(-1.06307e-13 -4.86953e-14 -1.55051e-18)
(4.60212e-13 -5.13201e-13 1.90438e-18)
(9.5382e-14 1.41192e-13 0)
(5.31952e-13 3.06688e-13 2.4326e-17)
(5.28385e-13 2.15694e-14 1.56247e-17)
(2.87992e-13 4.16015e-14 3.83391e-18)
(-1.58299e-13 2.90389e-13 -2.13534e-18)
(3.73902e-13 5.95128e-15 5.42717e-18)
(-3.70853e-13 -2.07272e-13 0)
(6.92128e-14 -3.84931e-13 3.97823e-18)
(5.55577e-13 -2.0949e-13 4.00383e-18)
(-1.28359e-13 -5.90045e-15 -3.85346e-19)
(-2.44038e-13 9.5373e-14 0)
(-1.49028e-13 -2.72101e-13 -1.9188e-18)
(-2.55507e-13 -1.24845e-13 2.76147e-18)
(-2.62472e-13 6.35276e-15 0)
(-2.11073e-13 -2.4942e-13 0)
(-2.18967e-14 -4.27014e-13 3.69383e-18)
(2.7479e-13 1.3818e-12 -3.63274e-18)
(3.25259e-13 1.14516e-13 9.33121e-19)
(1.19317e-13 -1.52837e-13 0)
(-9.03075e-13 1.25502e-12 0)
(-6.90349e-13 4.18045e-13 -9.05574e-19)
(-6.93401e-14 -1.83408e-13 0)
(-9.19184e-14 2.82557e-13 0)
(4.45941e-13 1.10261e-12 1.76213e-18)
(2.12613e-13 -4.86931e-14 -2.27308e-19)
(-3.08753e-13 3.51223e-13 2.26953e-19)
(6.33594e-13 8.69352e-14 1.8181e-18)
(4.81435e-13 -5.53883e-13 1.47411e-17)
(3.08255e-13 -1.63714e-13 0)
(1.64437e-13 9.94614e-13 -6.67741e-18)
(3.47011e-13 -6.44415e-13 0)
(1.97381e-13 4.95612e-13 -4.40217e-19)
(-4.07872e-13 2.10366e-13 -2.20034e-18)
(-3.6805e-13 1.89022e-13 -2.16971e-17)
(6.80502e-13 -1.04244e-12 1.41705e-17)
(1.944e-13 1.60225e-14 0)
(7.15355e-13 -4.51589e-13 0)
(3.65981e-14 -2.58201e-14 -6.34508e-18)
(-5.23107e-13 -2.49343e-13 1.41658e-17)
(-6.7893e-14 3.74373e-13 1.56497e-17)
(-4.50445e-13 -3.94664e-13 -1.80551e-18)
(-1.82192e-13 -1.42221e-13 3.66966e-18)
(6.1678e-14 -2.41237e-13 1.83993e-18)
(3.57315e-13 -3.11346e-13 -7.07109e-18)
(1.08532e-14 -3.65868e-14 4.39821e-18)
(7.46165e-13 -2.57743e-13 -9.69927e-19)
(-5.30369e-13 5.1872e-13 -3.27853e-17)
(-4.39793e-13 2.81976e-13 3.58565e-18)
(5.12802e-13 -3.24767e-13 -3.7659e-18)
(-4.35776e-13 -3.52567e-14 0)
(-2.06504e-14 1.47632e-13 0)
(1.21016e-13 -3.59818e-14 2.35665e-17)
(-3.25862e-13 8.1304e-13 1.57894e-19)
(-6.48258e-16 1.1066e-13 0)
(-1.02572e-14 -1.24944e-13 7.41155e-18)
(-5.49174e-13 5.76077e-13 1.02035e-17)
(-2.97946e-13 1.96089e-13 -3.31624e-18)
(1.06487e-13 1.25297e-13 -8.52264e-19)
(-2.06158e-13 4.56554e-13 8.71648e-19)
(6.53142e-13 3.24318e-16 -4.88223e-18)
(2.06854e-13 -6.70209e-13 1.66339e-18)
(-2.92835e-13 4.23535e-13 0)
(3.47781e-14 6.71149e-13 3.2747e-18)
(3.9973e-13 -1.06143e-13 1.61841e-18)
(-4.66684e-13 9.2403e-14 1.8628e-18)
(-2.47243e-13 -7.68746e-13 3.04416e-18)
(-6.14687e-13 1.09288e-13 7.9508e-19)
(-1.70438e-13 -4.678e-13 -1.94356e-18)
(2.81904e-13 3.01402e-13 3.87114e-19)
(5.58276e-14 -2.80396e-13 1.16467e-33)
(2.95221e-13 4.49955e-13 3.47191e-18)
(-2.26841e-13 2.49574e-13 9.06031e-19)
(-3.09959e-13 -2.3244e-13 7.6634e-17)
(-5.59073e-13 -4.48123e-13 -8.79556e-19)
(8.07968e-15 -5.20813e-13 0)
(-1.88394e-13 -3.56606e-13 4.37299e-19)
(5.45908e-13 -4.13452e-13 3.32855e-18)
(-3.44194e-13 9.17867e-14 0)
(-5.93976e-14 2.33022e-13 -1.91055e-18)
(3.64118e-13 -9.85227e-14 -3.59009e-18)
(-1.70643e-13 3.51213e-13 9.82029e-19)
(3.30066e-14 2.31181e-13 -9.66461e-19)
(1.31302e-13 6.98746e-14 -1.9355e-18)
(3.02761e-13 -1.74223e-13 1.84203e-18)
(9.55694e-14 5.5447e-14 0)
(-3.81962e-13 5.21628e-13 -9.48962e-19)
(-3.97307e-13 -2.07822e-13 0)
(-2.14758e-13 2.82067e-13 -9.14785e-19)
(-1.52447e-13 9.83628e-13 -1.77511e-18)
(-5.01905e-15 3.73324e-13 0)
(1.69468e-13 1.12002e-13 0)
(3.52283e-14 6.53435e-13 3.44571e-18)
(-5.03597e-13 -3.45099e-13 -1.8363e-18)
(1.18699e-13 4.28167e-13 3.98383e-18)
(4.85893e-13 2.41814e-13 -1.82286e-18)
(2.17153e-13 4.60635e-14 3.67882e-18)
(-3.75781e-13 6.37947e-13 -9.14418e-19)
(-5.16818e-13 9.15843e-14 0)
(-3.25245e-13 -7.57517e-13 2.18888e-19)
(-6.84862e-13 2.72977e-13 0)
(2.5155e-13 -1.02358e-13 -3.48774e-18)
(1.31428e-12 2.01248e-13 1.96386e-18)
(-2.84974e-13 -1.74706e-13 1.75611e-18)
(-2.35235e-13 3.75538e-13 1.35066e-18)
(6.36591e-13 -9.85811e-13 4.36377e-18)
(8.19964e-14 -2.34169e-13 4.41953e-19)
(1.89315e-13 8.13506e-13 -1.8151e-18)
(2.71005e-13 1.54813e-13 7.63143e-18)
(-2.77125e-14 1.01674e-12 -1.07204e-17)
(1.40041e-13 -6.24413e-13 -2.16937e-17)
(3.01191e-14 -3.43636e-14 -2.86608e-18)
(8.4542e-14 -1.80269e-13 -7.62368e-18)
(-2.97012e-13 -1.95636e-13 3.98165e-18)
(1.48405e-13 4.01566e-13 7.67482e-18)
(-4.72952e-13 4.37279e-13 -1.07453e-17)
(-3.43272e-13 -8.85459e-14 0)
(-2.37356e-13 -2.4451e-13 6.23862e-18)
(-4.05541e-13 3.10455e-13 -7.05557e-18)
(5.22655e-13 8.85754e-13 7.0853e-18)
(5.72138e-13 1.92756e-13 1.79796e-18)
(1.80294e-13 6.44433e-13 -2.27546e-18)
(-5.82764e-13 -8.70204e-14 3.79408e-18)
(-1.476e-14 -1.52245e-13 7.88283e-18)
(-5.93054e-13 1.02978e-13 0)
(-1.00132e-13 -1.45119e-13 -1.65567e-18)
(-1.2613e-12 7.20175e-12 1.01218e-20)
(4.42226e-13 7.08196e-13 -1.34876e-20)
(1.02899e-13 -2.70687e-13 -1.09631e-19)
(-5.27405e-14 7.1885e-12 1.08817e-19)
(1.3301e-13 3.37267e-13 -1.73556e-18)
(-4.63166e-14 -7.77913e-13 -1.72732e-18)
(-2.85633e-13 4.56455e-13 0)
(4.57778e-14 -5.96497e-13 1.73186e-17)
(4.07745e-13 -8.74796e-13 0)
(1.81286e-13 2.37257e-13 -8.15869e-18)
(6.34033e-13 -5.66327e-13 3.50432e-18)
(3.59959e-13 2.3709e-13 -3.26734e-17)
(-8.94998e-14 4.31242e-13 2.20912e-17)
(-7.60489e-14 -6.40277e-14 -8.97647e-18)
(2.6096e-13 1.88071e-13 0)
(-4.91269e-13 -5.01701e-13 0)
(-1.34635e-13 -1.17058e-13 3.67691e-17)
(-4.74829e-13 5.7507e-13 -3.5837e-18)
(-3.33209e-14 9.9717e-14 1.43438e-17)
(3.05621e-13 -1.68274e-13 -3.31904e-18)
(-7.5582e-13 -3.35774e-13 3.38133e-18)
(3.55115e-16 -5.2584e-13 0)
(8.44982e-13 -1.31183e-13 3.34666e-18)
(-8.2174e-13 -2.13339e-13 8.38047e-19)
(2.22983e-14 3.25811e-13 -1.68864e-18)
(7.60818e-13 -1.95541e-14 1.64492e-18)
(2.16994e-14 3.15779e-13 1.24198e-33)
(-6.44722e-13 -1.48683e-13 0)
(3.66041e-13 -3.2917e-13 -8.17004e-19)
(1.76262e-13 7.76389e-13 0)
(-1.04812e-12 3.76778e-13 -2.04823e-19)
(-5.50883e-13 4.60132e-13 -3.25759e-18)
(6.3304e-13 7.93246e-14 0)
(-8.29882e-14 1.88085e-13 -1.7338e-18)
(5.13618e-14 -7.63665e-14 1.59225e-18)
(-6.01248e-13 -2.13029e-13 2.35413e-18)
(4.00581e-13 -7.65106e-14 -1.97009e-18)
(1.10811e-13 3.81591e-13 -1.56595e-18)
(-9.19396e-14 -8.72227e-13 4.08605e-19)
(-3.49234e-14 -4.38287e-13 9.96487e-19)
(5.59625e-14 5.1487e-13 -2.11293e-19)
(4.26464e-14 -6.9674e-13 0)
(-5.86668e-13 3.65837e-13 -1.68999e-18)
(8.82364e-14 -9.44413e-13 2.16077e-18)
(-1.45734e-13 -8.62769e-13 0)
(-3.84152e-13 4.43838e-13 3.37078e-21)
(6.29428e-13 4.29947e-13 -3.36795e-21)
(-6.39332e-13 2.80661e-13 -5.21503e-20)
(6.05992e-14 -5.42828e-13 1.61298e-19)
(-3.63261e-13 -8.99727e-13 -8.05391e-20)
(5.45269e-13 -2.81203e-13 -1.33899e-20)
(7.66082e-13 2.69325e-13 -2.26772e-19)
(4.3351e-13 -6.02861e-13 -4.12007e-19)
(5.50488e-13 -4.98561e-14 -1.31864e-20)
(-1.85025e-13 7.60484e-13 -2.09198e-19)
(-7.67309e-14 2.46168e-13 0)
(-2.68858e-13 1.08302e-13 4.13164e-19)
(-2.04564e-13 -4.54482e-14 1.42222e-18)
(5.41085e-13 -2.28994e-13 2.42578e-18)
(2.06582e-13 -2.62016e-13 -8.2643e-19)
(-4.31211e-13 1.04603e-13 4.39275e-19)
(-9.35159e-13 3.39316e-13 8.32995e-19)
(-6.79369e-13 -4.22248e-13 8.0392e-20)
(-1.66421e-13 4.65304e-13 0)
(1.13051e-12 -2.39068e-13 5.37925e-20)
(3.75652e-13 -6.6043e-13 1.99445e-35)
(1.09661e-13 4.26678e-13 5.72766e-20)
(-8.79156e-14 5.15667e-13 -1.21094e-19)
(-6.79423e-14 -1.18744e-13 -3.37082e-21)
(-2.85348e-14 -4.48813e-13 0)
(2.31569e-13 3.91215e-13 0)
(-1.07187e-13 -1.30718e-13 1.86353e-18)
(-1.87757e-13 2.20647e-13 0)
(3.28177e-14 1.96711e-13 -9.55792e-19)
(-9.65253e-14 1.78227e-15 -9.45088e-19)
(-1.09111e-13 1.82691e-13 9.62911e-19)
(1.63603e-13 -3.3524e-14 -8.42837e-19)
(-2.69826e-14 -3.64699e-13 -1.84975e-18)
(-4.42231e-14 -1.69743e-13 -9.36909e-19)
(-4.154e-13 -5.17431e-13 0)
(-1.14499e-13 4.3078e-13 1.81542e-18)
(3.41719e-13 -6.1228e-13 -1.74072e-18)
(-4.30427e-13 3.9527e-13 8.83314e-19)
(-3.22409e-13 -2.50219e-13 3.36053e-17)
(6.47631e-13 -6.28724e-13 2.35482e-18)
(5.35793e-13 -3.44511e-13 3.81332e-19)
(-8.16474e-13 2.84475e-13 0)
(-3.94385e-13 1.02887e-13 -2.75018e-17)
(2.54049e-13 2.69e-13 -2.75729e-17)
(-3.31278e-13 -2.02935e-13 -6.16752e-18)
(4.97256e-13 2.45245e-13 1.88988e-18)
(5.01616e-13 -2.57025e-13 0)
(-3.49935e-15 2.24241e-13 -1.84047e-18)
(-3.70534e-14 3.04874e-13 -9.46731e-19)
(-9.97915e-14 3.25145e-13 -9.06269e-19)
(-3.02472e-13 -5.59583e-13 1.81499e-18)
(1.64838e-13 -6.6001e-13 2.67498e-18)
(-1.51151e-13 5.4606e-14 0)
(-9.29408e-13 -1.26278e-12 1.52888e-18)
(6.5436e-13 -3.30248e-13 -8.83127e-19)
(4.11917e-13 4.08466e-13 -1.73785e-18)
(-7.93156e-13 -4.94652e-13 -1.90829e-18)
(-1.82228e-14 8.6042e-13 4.36803e-19)
(-1.45754e-13 -8.1836e-13 8.71928e-19)
(1.13316e-12 4.53284e-13 4.35895e-19)
(8.90712e-13 2.18739e-13 -1.79703e-18)
(-9.83724e-14 -9.1445e-13 -1.76212e-18)
(-8.08307e-14 -2.44567e-13 -5.73367e-18)
(2.5374e-14 3.57176e-13 2.04079e-18)
(1.86455e-14 2.19119e-13 1.84479e-18)
(3.24544e-13 9.8214e-15 0)
(-2.77705e-13 2.51731e-13 0)
(7.26806e-13 -1.73961e-13 -1.61304e-17)
(-1.41693e-13 -3.45909e-13 -3.74698e-18)
(-2.62758e-13 6.06541e-13 1.40099e-17)
(6.34276e-13 3.61068e-13 -1.41569e-17)
(-2.76781e-14 -2.06648e-13 -7.46094e-18)
(3.9049e-13 3.17322e-13 -1.56686e-18)
(-2.53906e-14 3.25255e-14 1.40007e-17)
(3.19964e-13 4.59219e-10 1.34969e-20)
(2.72455e-13 4.60618e-10 0)
(2.91674e-13 -1.24991e-13 -7.22839e-18)
(-6.62808e-13 -1.37994e-13 0)
(2.37656e-13 -5.42867e-13 8.39472e-19)
(-1.21513e-13 -1.82385e-13 8.32224e-19)
(-1.14417e-13 1.54954e-13 -1.53856e-17)
(-2.6449e-14 9.22203e-14 9.1494e-18)
(-5.61112e-13 2.81786e-13 2.8192e-17)
(1.01221e-13 -4.65322e-13 8.08835e-18)
(-2.26926e-13 3.52461e-13 3.704e-18)
(3.32585e-13 2.07651e-13 1.22784e-17)
(1.29309e-12 4.58999e-10 -5.39838e-20)
(5.68092e-13 5.95758e-09 -1.68663e-20)
(7.62919e-12 5.96397e-09 1.07948e-19)
(-1.43609e-12 -5.94637e-13 -1.08436e-19)
(8.53113e-13 -1.61755e-13 6.95022e-19)
(7.31772e-13 5.60366e-13 -5.85142e-33)
(-4.37157e-13 -9.64625e-13 0)
(-4.58646e-13 -3.03431e-14 2.32535e-18)
(1.73447e-13 -4.34057e-13 -1.5754e-18)
(-4.65001e-13 -4.92802e-15 4.90059e-18)
(1.58558e-13 -1.04087e-13 5.3736e-18)
(-1.93586e-13 -5.66047e-14 0)
(-2.538e-13 -3.9263e-13 8.84259e-18)
(6.86604e-13 3.74137e-14 4.01763e-18)
(9.84436e-14 6.82208e-13 -2.31122e-17)
(-6.86449e-14 1.32047e-13 1.66117e-17)
(-1.59248e-13 -1.67375e-14 1.54765e-17)
(-3.57472e-14 -3.43104e-13 1.38385e-17)
(-2.90651e-13 -4.3482e-14 -1.55853e-17)
(-2.15785e-13 1.17663e-13 -1.37308e-18)
(4.66553e-14 6.06919e-14 -1.85091e-18)
(7.44325e-14 -2.39066e-13 1.85375e-18)
(7.75282e-14 2.6873e-13 9.51181e-33)
(3.46387e-13 -4.00828e-13 7.21474e-18)
(3.72638e-13 6.95124e-14 3.46094e-18)
(6.0277e-13 4.93796e-13 -1.72012e-18)
(2.96686e-15 4.64803e-13 3.42102e-18)
(1.04017e-12 -8.71987e-13 3.52219e-18)
(3.15698e-13 6.90759e-13 -1.63913e-18)
(-5.86825e-13 -7.68934e-13 -3.58822e-18)
(3.20998e-15 -1.23922e-14 -1.64437e-18)
(-1.28354e-13 -7.21331e-14 1.54808e-18)
(1.88321e-14 -4.72063e-14 0)
(-5.41445e-13 -7.92799e-13 1.66612e-18)
(1.54833e-13 -1.21845e-13 -8.33999e-19)
(1.53607e-13 -4.34473e-13 0)
(-2.65762e-14 -3.26419e-13 8.26907e-19)
(3.8772e-13 -5.38126e-14 1.24413e-18)
(3.59869e-13 -3.28283e-13 -4.08228e-19)
(5.91609e-15 -4.22958e-13 -2.45351e-18)
(-1.30637e-14 6.72427e-13 -3.33637e-18)
(4.20793e-13 -2.24814e-13 2.85737e-18)
(-1.88609e-13 -5.18698e-14 3.24269e-18)
(-3.46408e-13 -5.97314e-14 -3.24774e-18)
(-6.54939e-13 5.8577e-13 2.48597e-18)
(-7.98126e-13 -1.16964e-14 -8.67611e-18)
(2.3954e-13 -5.72844e-13 -3.29592e-17)
(5.23442e-14 -2.77764e-13 -3.02154e-18)
(-1.64947e-13 3.30893e-13 2.15948e-18)
(-9.24813e-14 7.33573e-14 -3.15665e-18)
(-8.78381e-14 4.80751e-13 3.88953e-18)
(-4.93982e-13 1.83604e-13 0)
(4.99527e-14 4.50035e-13 1.55213e-18)
(-9.82037e-14 -4.58029e-13 4.08217e-19)
(-4.12816e-13 2.89972e-13 -2.00548e-19)
(4.24545e-13 5.97712e-15 8.29095e-19)
(7.96293e-13 -2.1516e-13 0)
(-6.22432e-13 6.33339e-13 -5.41063e-20)
(-1.67727e-13 6.11829e-14 -8.42951e-19)
(9.91177e-13 -1.90774e-13 1.79215e-18)
(-9.55961e-14 8.7824e-13 -2.18689e-18)
(4.48187e-14 -5.12925e-13 1.35649e-18)
(6.48505e-13 6.93401e-13 0)
(-3.41934e-13 7.13161e-12 -5.73415e-20)
(-1.18724e-12 1.32398e-13 0)
(-7.36339e-13 4.00728e-14 0)
(-2.80557e-13 1.1226e-13 1.67981e-21)
(-1.05928e-12 -1.93368e-13 -1.68257e-21)
(1.83074e-13 6.69278e-13 -5.35934e-20)
(-8.8206e-13 -1.99722e-13 1.175e-20)
(3.58555e-13 -1.0646e-13 0)
(1.31625e-13 3.45772e-13 4.81096e-19)
(4.99291e-13 -2.17702e-13 -8.46996e-19)
(-9.92078e-13 4.60889e-10 -1.07979e-19)
(-9.80198e-12 5.96897e-09 -1.07987e-19)
(-1.71934e-12 5.96042e-09 3.03687e-20)
(8.924e-14 1.88335e-13 8.34358e-18)
(2.23372e-13 -4.62785e-13 5.26364e-18)
(-2.09628e-13 -1.82653e-14 1.38801e-17)
(3.29434e-13 5.40507e-13 -3.69723e-18)
(-1.73936e-13 2.00712e-14 -3.20325e-18)
(8.95074e-13 -3.75195e-13 -8.42092e-19)
(4.99877e-14 -3.38676e-13 0)
(-4.93919e-13 2.23821e-13 -4.26122e-19)
(-2.04298e-13 -3.91649e-13 -4.24262e-19)
(-4.79335e-13 2.3439e-13 -1.60737e-19)
(-5.54755e-13 -5.75494e-14 -5.3503e-20)
(1.90753e-13 -9.46968e-13 -8.07032e-20)
(6.4322e-14 9.4075e-13 1.60966e-19)
(-7.18272e-13 4.12204e-13 -6.73588e-21)
(-1.16993e-13 -7.95879e-13 6.72759e-20)
(-1.13362e-13 6.9104e-13 5.56566e-20)
(-8.32099e-13 5.06145e-13 -5.05645e-20)
(7.7113e-13 7.75181e-12 1.07127e-19)
(-7.88551e-15 -7.82492e-15 -9.09804e-19)
(-1.10564e-13 -4.18991e-14 1.80169e-18)
(2.2214e-13 -2.60466e-13 -4.6419e-19)
(-9.03816e-14 1.61716e-13 -9.13792e-19)
(-1.98155e-13 2.30883e-13 4.70069e-19)
(-2.07485e-13 -2.11598e-13 -2.33988e-19)
(2.75437e-13 5.59718e-14 -9.25593e-19)
(2.27619e-13 -1.02492e-13 8.48458e-19)
(-4.26057e-13 -4.08768e-13 -9.18756e-19)
(1.25988e-13 -4.12521e-13 0)
(-2.77458e-13 -7.74142e-13 0)
(-1.59116e-13 1.81054e-13 0)
(9.49323e-13 -1.06495e-12 -1.08331e-18)
(9.13083e-14 -2.15013e-13 2.19563e-19)
(-3.42573e-13 1.55433e-14 -1.66703e-18)
(-1.50818e-13 -1.09376e-13 -2.54651e-33)
(-6.31673e-14 1.52085e-13 -5.14304e-18)
(3.74453e-13 -3.35011e-13 2.89991e-18)
(2.13349e-13 -2.32667e-14 -1.87441e-18)
(-5.14073e-13 -3.39901e-13 1.7897e-18)
(-2.62627e-13 -1.51303e-13 0)
(-5.6012e-13 4.34449e-13 1.32705e-17)
(2.37579e-13 -1.51241e-12 -2.43333e-18)
(2.50843e-13 1.02616e-13 8.48781e-18)
(-3.61555e-13 -2.6203e-13 9.86527e-19)
(-2.69433e-13 7.04955e-13 3.56598e-18)
(-2.43206e-13 -4.52014e-14 1.22183e-17)
(-1.86399e-13 -2.84143e-14 3.69283e-18)
(3.04761e-13 -4.36109e-13 -5.01648e-18)
(3.07896e-13 2.90429e-13 3.79076e-19)
(-5.10915e-13 -4.92922e-13 4.50414e-18)
(-3.0682e-13 -6.6587e-13 3.52123e-18)
(3.40885e-13 5.583e-13 -9.02092e-19)
(1.94482e-13 -5.18996e-14 -2.7298e-18)
(-9.48528e-14 -2.16288e-13 8.94414e-19)
(1.79297e-13 -1.68246e-13 1.79962e-18)
(3.34752e-14 -7.93202e-13 -1.32326e-18)
(4.60471e-13 2.30087e-13 2.22401e-18)
(-1.65423e-14 9.35928e-13 0)
(-7.15016e-14 6.04029e-13 -1.31699e-18)
(4.66686e-13 1.81759e-13 0)
(-3.63202e-13 -2.23561e-13 -5.44451e-20)
(-1.14133e-12 -8.90507e-13 -1.08671e-18)
(-7.19661e-13 -8.24025e-13 8.68651e-19)
(1.10272e-12 2.42752e-14 4.33422e-19)
(1.28718e-13 4.42964e-13 -5.59425e-20)
(-1.056e-13 4.94312e-13 2.46685e-19)
(-3.35969e-14 5.98497e-14 1.60385e-18)
(-4.13489e-14 -1.87697e-13 -1.5516e-18)
(1.65237e-13 -3.28194e-14 0)
(-1.79703e-13 1.81143e-13 -3.37035e-17)
(-5.59889e-13 -7.32852e-13 -3.57594e-17)
(1.06973e-13 1.31758e-13 -1.22447e-33)
(-3.16708e-13 -3.19242e-13 7.53443e-18)
(-3.84518e-15 3.96213e-13 1.446e-17)
(4.92445e-13 -7.66806e-13 0)
(2.94175e-13 1.12897e-13 -2.29488e-17)
(-4.62415e-13 -1.02044e-13 -1.10385e-18)
(-1.62454e-13 4.80803e-14 -8.01532e-17)
(8.63852e-14 -3.17509e-13 -7.58768e-18)
(-6.23404e-13 1.64378e-13 -1.43941e-17)
(9.54554e-13 4.60488e-10 1.07919e-19)
(1.32673e-11 5.98041e-09 3.37287e-21)
(-1.06722e-13 1.26428e-13 -4.42723e-18)
(-1.35989e-13 9.41235e-14 1.83918e-17)
(9.42488e-14 1.66854e-13 2.95858e-17)
(-3.47996e-13 -2.72556e-13 -1.0284e-32)
(-1.98604e-13 -4.30697e-13 0)
(-1.99557e-13 -2.49656e-13 2.47539e-18)
(2.66665e-13 3.4377e-14 -2.26957e-18)
(-9.58346e-14 -2.77146e-13 -3.42998e-34)
(-5.49531e-14 -1.19558e-13 -1.18801e-17)
(1.21549e-14 1.26833e-13 1.40063e-17)
(1.04644e-12 -8.297e-13 1.39258e-17)
(-2.98839e-15 -2.76906e-13 1.71874e-17)
(-9.00068e-13 1.45707e-13 0)
(-8.94452e-13 1.26647e-13 -1.6921e-18)
(2.97391e-13 -5.80436e-14 2.81756e-33)
(3.50407e-13 6.91786e-13 1.50505e-17)
(2.58403e-13 1.35144e-13 6.43602e-18)
(-7.26495e-14 2.88114e-13 1.43144e-17)
(2.25361e-13 2.35422e-13 -1.60894e-17)
(-1.85824e-13 5.46814e-14 0)
(8.21358e-14 3.04033e-13 0)
(8.4409e-14 -6.50193e-13 0)
(3.49569e-13 1.01937e-12 4.24362e-17)
(-2.06055e-12 4.61221e-10 3.37332e-21)
(-1.36014e-11 5.98575e-09 6.74671e-21)
(4.89258e-13 2.9963e-13 1.71833e-17)
(3.22753e-13 1.51141e-13 -6.21858e-18)
(1.58358e-13 -2.17292e-13 -1.65816e-32)
(2.53448e-13 -2.49686e-13 -1.43255e-17)
(1.30709e-14 1.92133e-13 0)
(-6.13054e-14 -5.75791e-15 -1.92641e-18)
(-7.40715e-13 1.08516e-12 0)
(-5.17897e-13 3.65001e-13 0)
(-3.2828e-13 3.63986e-13 3.66983e-18)
(-3.88274e-13 -1.4695e-13 5.44019e-33)
(3.83601e-13 6.31069e-13 1.45059e-17)
(-1.43305e-13 1.15331e-13 0)
(-1.43192e-13 4.36121e-14 -3.25736e-17)
(-1.62371e-13 -5.63782e-14 -4.86345e-18)
(-2.18761e-13 1.29335e-13 5.83445e-17)
(1.20715e-13 1.74476e-13 3.0719e-17)
(4.77355e-13 1.30157e-13 2.06124e-17)
(-5.06151e-13 6.43511e-14 -7.35859e-18)
(5.09116e-13 -3.57589e-14 0)
(4.80479e-13 -3.34984e-13 -6.43072e-33)
(-5.64264e-13 -3.70636e-13 -2.60983e-18)
(1.60115e-12 1.98989e-13 -1.75972e-18)
(1.63321e-12 2.54733e-13 1.35592e-20)
(2.07205e-13 2.13176e-13 0)
(-1.89187e-13 4.49189e-13 1.80691e-18)
(9.9827e-14 -3.83895e-14 0)
(-2.38477e-14 -3.98765e-13 -3.91618e-18)
(-1.51987e-13 -1.33681e-13 0)
(4.14891e-13 2.31734e-13 -1.47609e-32)
(9.03811e-15 -3.7908e-13 -1.03947e-18)
(-4.56584e-13 7.90517e-14 0)
(-5.65974e-13 -1.0208e-14 -7.70078e-18)
(4.54809e-13 1.58339e-13 4.47063e-19)
(6.45419e-13 2.81633e-13 -4.44602e-19)
(-5.29083e-13 4.06516e-13 -8.34976e-19)
(-2.02774e-14 4.28391e-13 4.17713e-19)
(5.04353e-13 -2.67447e-13 0)
(-1.96942e-13 -1.35364e-13 3.07453e-34)
(-4.97117e-13 1.64299e-13 2.45951e-18)
(3.51064e-13 -6.28934e-14 4.11663e-19)
(3.23769e-13 -5.67747e-13 -5.1571e-20)
(-1.34923e-13 -5.23731e-13 -1.23229e-18)
(2.90316e-14 -4.64582e-13 -3.20126e-18)
(3.57398e-14 -9.03834e-13 0)
(5.78892e-14 9.89663e-13 4.44562e-18)
(9.30229e-14 1.50111e-13 2.36138e-18)
(-4.47318e-13 3.52784e-13 -1.20057e-17)
(2.94361e-13 -2.05592e-13 5.62262e-18)
(-9.53058e-13 1.38992e-13 -1.15529e-17)
(7.7364e-14 -4.89617e-13 0)
(2.01255e-13 -2.89797e-13 -5.13748e-18)
(8.24485e-14 2.62152e-13 1.5254e-18)
(-2.627e-13 -6.95875e-13 0)
(2.54007e-13 4.02771e-13 -7.87567e-19)
(2.08706e-13 3.08344e-14 0)
(-4.82454e-13 3.46826e-13 0)
(-6.26568e-13 2.95379e-13 0)
(2.04271e-13 -4.5028e-13 1.64971e-18)
(4.54165e-13 3.52686e-13 -1.63465e-18)
(1.36425e-13 -1.50256e-13 8.57725e-19)
(6.93314e-13 1.00828e-13 4.15845e-19)
(-8.23598e-13 -6.51617e-14 -8.86117e-19)
(-8.71003e-13 6.29494e-13 -2.17059e-18)
(5.14987e-13 4.73631e-14 1.78946e-18)
(-9.2159e-13 3.35365e-13 -4.71885e-20)
(8.36732e-13 7.33477e-12 -1.01155e-19)
(-4.88969e-13 2.98882e-14 5.38616e-20)
(6.08359e-13 -1.3048e-12 6.73657e-20)
(-9.43026e-13 -2.99628e-13 0)
(-3.61533e-13 1.17608e-12 -5.38217e-20)
(3.48137e-13 7.65547e-13 -1.07306e-19)
(-2.88102e-14 -4.7687e-13 -6.7165e-21)
(-8.75695e-13 -1.99954e-13 -4.2653e-19)
(-4.65679e-13 5.07826e-13 -2.14155e-19)
(-6.01799e-13 -1.70237e-13 1.27652e-18)
(2.22124e-10 3.4959e-07 0)
(-5.04238e-10 3.50121e-07 1.01122e-19)
(-3.51767e-10 3.49666e-07 -7.41662e-20)
(2.9468e-13 1.29463e-13 -7.87513e-18)
(8.10561e-10 3.50828e-07 -6.74203e-21)
(5.27286e-10 3.49953e-07 6.74011e-21)
(3.42534e-13 -1.9869e-14 0)
(5.3263e-14 3.85543e-13 9.97112e-18)
(-2.68755e-13 1.29683e-13 -3.54312e-18)
(-3.70452e-13 -3.40867e-13 8.71086e-18)
(-5.03374e-13 1.26657e-14 -2.95171e-18)
(-3.04507e-13 7.2384e-14 4.22958e-18)
(5.24612e-13 -5.76904e-15 4.24281e-19)
(-3.08156e-13 1.66777e-13 4.22858e-19)
(-1.05218e-13 -3.06358e-13 -4.26775e-19)
(-1.32101e-13 -9.73271e-13 3.16613e-34)
(-1.17297e-13 2.96155e-13 -2.14148e-19)
(3.03463e-13 4.79447e-13 8.55754e-19)
(-3.11257e-13 -4.25524e-13 -2.69105e-20)
(4.14702e-13 -2.83723e-14 -2.68648e-20)
(8.39149e-13 -2.31133e-13 -4.71345e-20)
(8.1812e-13 -4.71713e-13 5.38465e-20)
(-9.54063e-14 1.36508e-12 5.39453e-20)
(7.01303e-13 4.69835e-13 2.35972e-20)
(-2.79201e-13 7.11406e-12 -5.39781e-20)
(-2.11949e-13 -3.64956e-13 1.35074e-17)
(-1.83439e-13 -3.28969e-13 7.76087e-18)
(-3.38251e-13 -1.51127e-13 -2.36618e-17)
(1.3359e-13 1.82551e-13 -1.03494e-18)
(9.77654e-14 -1.25472e-13 -3.34284e-18)
(-1.60335e-13 5.12586e-14 -4.07141e-19)
(-1.9438e-14 -4.42343e-14 1.42158e-18)
(2.95801e-13 2.91125e-13 2.31782e-19)
(8.92432e-14 -1.24248e-13 -5.76693e-20)
(-9.33286e-14 -2.48749e-13 2.453e-19)
(-6.52122e-13 1.45853e-13 -4.28276e-34)
(1.55727e-13 2.68013e-13 -2.29097e-19)
(3.77401e-13 -6.75554e-14 -2.87202e-20)
(-5.94341e-13 1.74407e-13 1.35713e-18)
(3.5676e-13 4.9796e-13 4.56659e-19)
(-5.17995e-14 3.54939e-13 4.41118e-19)
(3.5298e-13 -5.291e-13 4.99351e-34)
(2.62914e-13 2.88648e-13 1.08382e-18)
(-1.85406e-13 -4.05925e-13 -1.31579e-18)
(2.99435e-13 6.46349e-15 2.11293e-19)
(-4.61858e-13 7.60698e-13 -1.50827e-18)
(6.80542e-14 9.9869e-13 -5.97532e-18)
(3.56353e-13 -3.38143e-14 1.27189e-18)
(-9.94577e-13 -3.26176e-13 -1.74568e-18)
(5.32002e-14 -9.72259e-14 3.47327e-18)
(2.16872e-13 -3.34884e-13 0)
(8.23756e-13 -8.97437e-13 -1.72822e-18)
(-4.37892e-13 -7.38988e-13 1.73893e-18)
(-8.36629e-14 -8.77263e-13 0)
(-1.65922e-14 -6.28099e-13 -4.24808e-19)
(-1.82526e-13 9.89573e-13 0)
(-3.46548e-13 9.13367e-13 8.70367e-19)
(-5.37966e-13 4.80612e-13 0)
(9.52393e-15 -4.48168e-13 -1.12993e-19)
(8.68316e-13 4.87261e-13 8.92453e-19)
(2.0638e-13 -7.16319e-13 0)
(7.44696e-13 7.62263e-14 1.10272e-19)
(4.17721e-13 -4.29203e-13 2.54906e-18)
(-7.95276e-13 -3.97801e-13 -4.32678e-19)
(1.71656e-13 4.45566e-13 4.71202e-33)
(-1.78734e-13 -3.58119e-13 1.65857e-18)
(-1.82556e-13 -4.09887e-15 -8.80475e-19)
(6.27686e-13 1.28034e-13 0)
(1.52872e-13 -8.10836e-13 8.93182e-19)
(-1.13163e-12 -6.12181e-13 -1.78695e-18)
(-5.03342e-13 5.47559e-14 4.42013e-19)
(4.95023e-13 -6.11678e-13 4.45072e-19)
(-2.03455e-13 1.08575e-12 -2.19168e-18)
(3.94523e-13 1.96998e-13 1.32292e-18)
(-1.14971e-13 2.62079e-13 -8.70376e-19)
(-1.09345e-12 1.38785e-13 1.31187e-18)
(9.98444e-13 5.31063e-13 0)
(-2.92826e-14 1.3134e-13 0)
(-8.7942e-13 -7.20771e-13 1.95201e-18)
(9.90124e-13 1.24584e-12 -6.50291e-19)
(9.00343e-13 4.31991e-13 3.49272e-33)
(-3.29936e-13 -1.22924e-12 -8.65278e-19)
(-5.39432e-13 -4.63514e-13 -3.06261e-18)
(5.14768e-13 -2.95919e-13 3.36003e-18)
(-5.41372e-13 4.38561e-13 2.48842e-18)
(8.12542e-14 -4.05157e-13 4.64214e-18)
(4.18601e-14 -6.05574e-13 2.18009e-19)
(-3.16626e-13 -8.81734e-13 -1.2292e-18)
(-6.81401e-13 3.47136e-13 -1.11636e-19)
(8.45257e-13 6.37751e-13 1.20674e-18)
(-2.03331e-13 -2.45615e-14 -2.28039e-19)
(1.20765e-13 2.20909e-13 1.8e-18)
(3.26628e-14 1.13091e-13 0)
(1.93093e-13 1.03855e-13 2.29713e-19)
(3.01459e-14 2.36378e-14 1.6816e-18)
(4.06686e-15 -2.40512e-14 -1.73686e-18)
(5.78752e-14 -2.92547e-13 -1.63939e-17)
(3.72638e-13 3.17155e-13 -1.34505e-17)
(2.19849e-13 -2.41783e-14 -3.14329e-18)
(4.33221e-13 2.47787e-13 2.91565e-17)
(-1.09628e-13 -1.68267e-14 -1.6765e-18)
(-5.30523e-13 -6.25947e-13 3.05806e-17)
(-7.67776e-14 -2.84253e-13 -1.66933e-17)
(-8.42951e-14 -4.28753e-13 -8.36273e-33)
(9.38268e-14 -6.46026e-13 2.21879e-17)
(-9.3288e-14 6.33443e-14 -2.32554e-17)
(2.86584e-13 -1.28442e-14 7.46872e-18)
(2.88871e-14 1.275e-13 -7.42331e-18)
(7.50577e-13 3.37139e-14 -1.70211e-18)
(-2.16761e-14 -1.21668e-13 -1.91197e-33)
(2.39613e-13 1.3142e-13 3.13033e-17)
(-4.17486e-13 -5.82649e-13 0)
(-2.45223e-13 3.28753e-13 -4.61887e-17)
(-2.17089e-13 -2.37417e-13 -1.20704e-17)
(-1.81347e-13 -2.25281e-13 -2.72246e-18)
(-1.72543e-13 4.15687e-13 -1.42246e-17)
(3.15357e-14 4.49418e-13 -5.10403e-17)
(3.48469e-13 -8.13671e-13 8.19499e-19)
(-1.21745e-13 -2.02233e-14 5.88947e-18)
(-8.38388e-10 3.51008e-07 -1.07901e-19)
(-2.35014e-13 2.44459e-13 8.68177e-18)
(-2.61218e-13 -1.95089e-13 6.67182e-33)
(5.53739e-13 1.18669e-13 1.91244e-18)
(7.3144e-13 -9.40213e-14 2.60546e-32)
(2.25573e-13 7.20929e-13 9.79387e-18)
(2.3657e-13 2.64803e-13 3.90504e-17)
(7.46534e-14 5.2642e-13 -3.14067e-17)
(-4.34906e-13 -2.53419e-13 0)
(3.0357e-13 -8.85818e-14 7.64848e-18)
(-4.12909e-13 7.95923e-13 -2.20353e-19)
(-1.6998e-13 -3.33943e-13 0)
(3.00465e-13 1.88707e-13 5.43295e-33)
(-1.62828e-13 5.99104e-13 -2.52092e-17)
(-2.36598e-13 -4.57848e-13 -1.66128e-17)
(3.67174e-14 9.01484e-15 -1.44767e-18)
(1.19514e-15 -3.8231e-14 4.83039e-19)
(2.01884e-13 3.32097e-13 1.57958e-18)
(8.27512e-13 -5.41539e-13 8.48933e-18)
(6.35379e-13 -3.6184e-13 -2.01907e-17)
(4.57756e-13 -2.29171e-13 4.94727e-17)
(-2.30254e-13 -2.59906e-13 0)
(-1.37147e-14 5.03578e-13 1.92593e-17)
(-8.59182e-14 1.13996e-13 -4.14204e-17)
(3.2051e-13 -6.19577e-13 -1.26499e-17)
(-1.19945e-13 -2.66901e-14 -3.1837e-17)
(-4.57115e-14 7.07693e-14 -1.69814e-32)
(-9.54364e-14 4.51866e-13 -4.83089e-17)
(9.13338e-14 1.30032e-13 1.82859e-18)
(2.18584e-13 2.56742e-13 -7.10254e-18)
(8.94435e-14 -5.32302e-13 -9.73862e-18)
(-1.65949e-13 -4.1672e-13 2.32585e-19)
(-4.77296e-14 -1.63216e-13 -8.68899e-19)
(-3.46954e-13 3.84284e-13 6.97385e-19)
(4.00103e-09 3.13189e-06 0)
(9.99054e-10 3.51983e-07 1.07884e-19)
(5.59139e-09 3.14249e-06 0)
(-5.50698e-13 -2.84511e-13 6.6421e-18)
(6.85649e-13 -5.4172e-13 8.55522e-19)
(-4.53502e-13 6.00979e-14 -8.94864e-32)
(6.03935e-16 -4.96741e-15 -1.49208e-17)
(2.74154e-13 3.17677e-13 -1.08508e-17)
(1.06986e-12 -1.26636e-13 -3.49784e-18)
(3.03677e-13 6.33389e-13 2.26303e-18)
(-8.31001e-14 -2.44268e-13 7.35437e-18)
(8.51578e-13 -3.26147e-13 2.12522e-18)
(3.26994e-13 -2.81499e-14 -1.50014e-17)
(-2.8371e-13 1.56658e-13 -3.56849e-32)
(4.38892e-13 3.90351e-13 3.59531e-18)
(-2.52217e-13 -3.71257e-13 -1.84825e-18)
(-2.80894e-13 -1.58873e-12 1.52851e-18)
(1.64764e-14 -5.50073e-14 0)
(1.55637e-13 8.63409e-13 5.40688e-33)
(-9.37078e-14 -3.6838e-13 -6.55337e-19)
(4.22971e-13 2.03853e-13 0)
(1.14974e-13 6.11535e-13 -8.96791e-19)
(6.3421e-14 3.56801e-13 -9.48063e-19)
(-2.32244e-13 1.67617e-13 9.68815e-19)
(-3.58427e-14 -1.51836e-13 7.23985e-18)
(7.84989e-14 1.10609e-13 0)
(3.16303e-13 1.14725e-12 2.9718e-33)
(3.56819e-13 -1.79972e-13 -8.49351e-19)
(3.78053e-14 2.67701e-13 -2.64504e-20)
(-3.27176e-13 2.94749e-13 4.36154e-19)
(-3.69401e-13 -4.06557e-13 2.0928e-19)
(3.64816e-13 5.03104e-14 4.33829e-19)
(-3.21317e-14 8.22201e-14 2.07401e-19)
(-2.94728e-13 6.92256e-14 -1.45394e-18)