/*--------------------------------*- C++ -*----------------------------------*\
| =========                 |                                                 |
| \\      /  F ield         | OpenFOAM: The Open Source CFD Toolbox           |
|  \\    /   O peration     | Version:  2212                                  |
|   \\  /    A nd           | Website:  www.openfoam.com                      |
|    \\/     M anipulation  |                                                 |
\*---------------------------------------------------------------------------*/
FoamFile
{
    version     2.0;
    format      ascii;
    arch        "LSB;label=32;scalar=64";
    class       volScalarField;
    location    "0.05";
    object      alphat;
}
// * * * * * * * * * * * * * * * * * * * * * * * * * * * * * * * * * * * * * //

dimensions      [1 -1 -1 0 0 0 0];

internalField   nonuniform List<scalar> 
7220
(
2.15725e-05
0.000302131
0.000351081
0.000489736
0.000365746
0.000423924
0.000352388
0.000370576
0.000492779
0.000427828
1.904e-05
0.000543875
0.000707239
4.5308e-05
4.40942e-05
0.000495551
0.000112394
5.55557e-05
9.23051e-05
3.88265e-05
0.000881957
0.000167759
0.00106279
0.0001933
0.000157827
0.000251444
0.000925005
4.14374e-05
0.000725181
0.000243712
0.000141069
0.000282312
0.000338623
0.000222401
0.000192619
2.40537e-05
0.000277593
2.1396e-05
1.93828e-05
0.000116857
0.000117295
0.000116396
0.000116098
2.19779e-05
2.2076e-05
2.23021e-05
2.20253e-05
2.19795e-05
0.000117827
0.000118429
0.000117355
0.000116824
0.000119619
0.000121635
0.000120075
0.000118245
0.000124485
0.000126539
0.000125706
0.00012288
0.000127892
0.000128708
0.000128751
0.000127552
0.000124051
0.00010924
0.000117777
0.000128508
8.95032e-05
7.15276e-05
7.1303e-05
9.54212e-05
5.42193e-05
3.95903e-05
3.75181e-05
5.22078e-05
3.14748e-05
2.64081e-05
2.53816e-05
2.97019e-05
2.39798e-05
2.28892e-05
2.24756e-05
2.3349e-05
2.19895e-05
2.21135e-05
2.24021e-05
2.22244e-05
2.21787e-05
2.20476e-05
0.000116541
0.000115797
0.000110786
0.000110415
2.23375e-05
2.26096e-05
2.22058e-05
2.23938e-05
2.32326e-05
2.71193e-05
2.44161e-05
3.95702e-05
3.1841e-05
5.39008e-05
4.83407e-05
6.51085e-05
5.91066e-05
8.36636e-05
7.3226e-05
0.000112856
9.81453e-05
0.000121992
0.000120763
0.0001196
0.000121105
0.00011503
0.000117267
0.00011284
0.000113485
0.000113374
0.000111717
0.00011755
0.000115637
0.000119384
0.00011878
0.000105737
0.000116019
7.77064e-05
9.10517e-05
5.97082e-05
6.74364e-05
4.45155e-05
5.25388e-05
2.86658e-05
3.46433e-05
2.30073e-05
2.48042e-05
2.23086e-05
2.27319e-05
0.000112476
0.00011013
2.21735e-05
2.24628e-05
2.27365e-05
2.27485e-05
2.25491e-05
2.24967e-05
2.33608e-05
2.20819e-05
2.24936e-05
2.30235e-05
2.58765e-05
2.41264e-05
3.4752e-05
2.94784e-05
4.72286e-05
4.23222e-05
5.07492e-05
4.9657e-05
5.29023e-05
5.16703e-05
5.8601e-05
5.50736e-05
7.38741e-05
6.4743e-05
0.000102575
8.73735e-05
0.000113427
0.000111529
0.000111381
0.000112725
0.000107267
0.000109211
0.000112221
0.000106007
0.000106286
0.000115479
0.000116226
0.000102571
0.000102379
0.000109985
0.000104196
0.000102871
0.000108249
0.000106383
0.000109726
0.000109348
9.37855e-05
0.000105376
6.78874e-05
7.90611e-05
5.52107e-05
6.02327e-05
5.04277e-05
5.22419e-05
4.69851e-05
4.88623e-05
3.67348e-05
4.36318e-05
2.55276e-05
2.98339e-05
2.33354e-05
2.23567e-05
2.21095e-05
2.28292e-05
2.40988e-05
0.00011218
0.000105844
9.51726e-05
9.46795e-05
2.30699e-05
2.27089e-05
2.32107e-05
2.27459e-05
2.53124e-05
2.22913e-05
2.21599e-05
2.28959e-05
2.23777e-05
2.40391e-05
3.23118e-05
2.79708e-05
4.47096e-05
3.86363e-05
4.8046e-05
4.73286e-05
4.73049e-05
4.79269e-05
4.65881e-05
4.691e-05
4.7229e-05
4.66387e-05
5.16627e-05
4.87864e-05
6.48249e-05
5.68188e-05
9.07713e-05
7.66133e-05
0.000103164
0.000100189
0.000101972
0.000102849
9.92666e-05
0.000100449
0.000115195
0.00011596
0.000102334
0.000110094
9.78335e-05
9.6629e-05
9.84953e-05
9.84498e-05
8.18568e-05
9.34798e-05
5.89605e-05
6.85427e-05
4.84386e-05
5.24123e-05
4.51635e-05
4.62319e-05
4.49355e-05
4.48446e-05
4.54311e-05
4.51277e-05
4.3528e-05
4.51867e-05
3.2139e-05
3.92524e-05
2.70626e-05
2.22246e-05
9.91611e-05
9.46348e-05
2.32121e-05
2.31495e-05
2.25546e-05
2.35957e-05
2.34481e-05
2.5221e-05
2.89259e-05
2.34399e-05
2.28559e-05
9.41842e-05
9.36572e-05
0.000102555
9.47157e-05
2.31135e-05
2.37443e-05
2.29429e-05
2.36611e-05
2.29827e-05
2.25757e-05
2.34146e-05
2.37452e-05
2.48536e-05
3.05138e-05
2.69163e-05
4.20242e-05
3.56497e-05
4.68379e-05
4.57086e-05
4.58845e-05
4.67485e-05
4.38543e-05
4.48882e-05
4.22545e-05
4.29781e-05
4.13811e-05
4.16827e-05
4.20419e-05
4.14835e-05
4.5822e-05
4.3349e-05
5.72333e-05
5.02434e-05
8.06495e-05
6.75461e-05
9.43714e-05
9.03862e-05
9.44146e-05
9.91347e-05
0.000112443
0.000105889
0.000115058
0.000115847
0.000110341
8.85601e-05
8.94207e-05
8.89242e-05
8.89372e-05
8.95908e-05
7.21493e-05
8.3447e-05
5.17373e-05
6.00378e-05
4.27413e-05
4.60911e-05
3.99531e-05
4.08683e-05
3.97549e-05
3.96356e-05
4.08473e-05
4.02075e-05
4.25185e-05
4.16239e-05
4.38233e-05
4.34489e-05
4.10809e-05
4.33846e-05
3.51727e-05
2.23814e-05
2.27067e-05
2.215e-05
2.22288e-05
2.22961e-05
2.31849e-05
9.38072e-05
8.87169e-05
3.14375e-05
3.78633e-05
2.72004e-05
2.19338e-05
2.30569e-05
2.41856e-05
2.43207e-05
2.39511e-05
2.35678e-05
2.22088e-05
2.90797e-05
2.42326e-05
2.38357e-05
2.5926e-05
2.34482e-05
3.93744e-05
3.34077e-05
4.56018e-05
4.40225e-05
4.50075e-05
4.58001e-05
4.29626e-05
4.40193e-05
4.055e-05
4.17854e-05
3.86633e-05
3.94667e-05
3.76028e-05
3.80693e-05
3.72189e-05
3.73223e-05
3.79852e-05
3.73847e-05
4.15589e-05
3.92429e-05
5.19233e-05
4.55877e-05
7.36189e-05
6.11955e-05
8.91912e-05
8.38931e-05
9.11803e-05
9.06759e-05
9.18094e-05
9.93541e-05
9.40362e-05
0.000112921
0.000106359
0.00011518
0.000115991
0.000103264
0.000110785
8.90172e-05
9.51279e-05
8.61877e-05
8.52378e-05
8.56894e-05
8.25225e-05
8.49239e-05
6.53304e-05
7.62857e-05
4.6652e-05
5.42532e-05
3.8519e-05
4.15238e-05
3.58977e-05
3.67984e-05
3.54863e-05
3.5512e-05
3.61076e-05
3.56983e-05
3.73767e-05
3.66615e-05
3.95537e-05
3.84202e-05
4.15437e-05
4.05825e-05
4.26922e-05
4.25064e-05
4.16265e-05
2.30922e-05
2.44522e-05
2.21372e-05
2.2448e-05
2.19881e-05
2.33402e-05
2.30671e-05
2.43947e-05
2.42597e-05
3.96229e-05
4.12677e-05
3.48999e-05
9.06313e-05
9.41265e-05
8.96819e-05
8.68699e-05
2.48007e-05
2.49543e-05
2.48453e-05
2.25048e-05
2.12939e-05
2.14573e-05
2.29239e-05
2.31122e-05
2.34025e-05
2.45285e-05
2.41397e-05
2.3415e-05
2.38602e-05
2.75852e-05
3.66355e-05
3.14562e-05
4.40729e-05
4.17531e-05
4.41005e-05
4.46463e-05
4.2214e-05
4.31974e-05
3.986e-05
4.11004e-05
3.77226e-05
3.87409e-05
3.6046e-05
3.68228e-05
3.48924e-05
3.53943e-05
3.43378e-05
3.45526e-05
3.44144e-05
3.42875e-05
3.5631e-05
3.47927e-05
3.94939e-05
3.70812e-05
4.96676e-05
4.34558e-05
7.06043e-05
5.84371e-05
8.26916e-05
9.25508e-05
0.00010006
9.45438e-05
0.000113613
0.000107495
0.000115605
0.000116417
0.000104425
0.000111458
9.61293e-05
8.73949e-05
8.18161e-05
8.61546e-05
6.19331e-05
7.3488e-05
4.43029e-05
5.14858e-05
3.62585e-05
3.92812e-05
3.33611e-05
3.44206e-05
3.25695e-05
3.2801e-05
3.26774e-05
3.25279e-05
3.33708e-05
3.29742e-05
3.47127e-05
3.39821e-05
3.661e-05
3.56027e-05
3.88245e-05
3.77288e-05
4.07154e-05
3.98004e-05
4.14865e-05
2.59856e-05
2.94034e-05
2.24049e-05
2.36369e-05
2.15205e-05
2.17909e-05
2.14328e-05
2.30868e-05
2.49644e-05
9.55828e-05
8.84613e-05
3.97421e-05
4.0155e-05
2.30029e-05
2.29927e-05
2.50388e-05
2.54809e-05
2.56196e-05
2.55084e-05
2.17709e-05
2.34261e-05
2.08251e-05
2.44111e-05
0.000222444
2.51109e-05
2.35893e-05
2.61933e-05
3.43101e-05
2.98487e-05
4.2222e-05
3.93504e-05
4.29334e-05
4.31111e-05
4.13368e-05
4.21676e-05
3.92507e-05
4.03847e-05
3.72166e-05
3.81911e-05
3.55731e-05
3.63488e-05
3.4233e-05
3.4871e-05
3.31962e-05
3.36656e-05
3.26888e-05
3.283e-05
3.27444e-05
3.26506e-05
3.35426e-05
3.3016e-05
3.55509e-05
3.43014e-05
4.03092e-05
3.74274e-05
5.14017e-05
4.47032e-05
7.43914e-05
6.08148e-05
0.000100314
9.04376e-05
0.000103797
9.37006e-05
9.68257e-05
0.000101668
9.5718e-05
0.000114667
0.000109008
0.000116472
0.00011728
0.000105916
0.000112492
9.11393e-05
9.80959e-05
8.9699e-05
8.8026e-05
9.59523e-05
8.9017e-05
9.41674e-05
6.39465e-05
7.77746e-05
4.53339e-05
5.29283e-05
3.65352e-05
3.99594e-05
3.28717e-05
3.43026e-05
3.13728e-05
3.19453e-05
3.08596e-05
3.1012e-05
3.09729e-05
3.0867e-05
3.16584e-05
3.12461e-05
3.27774e-05
3.21777e-05
3.42062e-05
3.34514e-05
3.60111e-05
3.50586e-05
3.80604e-05
3.70709e-05
3.89301e-05
3.26051e-05
3.95418e-05
3.74107e-05
2.46e-05
2.78601e-05
2.13321e-05
2.24607e-05
2.04722e-05
2.0804e-05
2.02976e-05
2.02417e-05
2.1066e-05
2.06934e-05
2.21704e-05
2.04285e-05
2.3466e-05
0.00027585
2.28739e-05
2.40027e-05
2.57247e-05
0.000409178
8.65336e-05
0.000104586
9.13836e-05
9.76607e-05
2.61892e-05
2.26503e-05
2.63553e-05
2.39932e-05
2.50262e-05
2.62036e-05
2.57662e-05
0.000321522
0.000188337
0.000166198
0.000153601
0.000181653
0.000144199
2.27702e-05
2.31647e-05
0.000184745
2.27338e-05
1.92661e-05
1.91972e-05
2.52331e-05
2.45677e-05
2.24962e-05
0.000226946
2.28001e-05
0.000233367
2.22527e-05
2.21328e-05
0.000280568
2.09257e-05
2.17648e-05
2.19422e-05
2.13281e-05
2.50552e-05
2.3064e-05
3.2568e-05
2.84765e-05
4.03212e-05
3.72239e-05
4.15599e-05
4.14431e-05
4.03273e-05
4.0979e-05
3.86231e-05
3.95629e-05
3.68296e-05
3.76921e-05
3.53687e-05
3.60561e-05
3.41895e-05
3.47489e-05
3.3229e-05
3.36814e-05
3.25021e-05
3.28327e-05
3.21583e-05
3.22562e-05
3.24868e-05
3.22748e-05
3.32811e-05
3.28012e-05
3.50874e-05
3.40101e-05
3.84433e-05
3.64728e-05
4.51553e-05
4.1233e-05
5.88478e-05
5.07141e-05
7.05948e-05
0.000106206
9.57143e-05
9.84672e-05
0.000104274
9.81124e-05
0.000116098
0.000110938
0.000117776
0.000118569
0.00010784
0.000113954
9.39528e-05
0.000100658
9.01663e-05
0.000101898
7.37914e-05
8.97863e-05
5.11327e-05
6.04534e-05
4.02864e-05
4.47036e-05
3.49911e-05
3.71813e-05
3.23881e-05
3.34655e-05
3.0992e-05
3.15482e-05
3.04236e-05
3.06497e-05
3.03179e-05
3.0287e-05
3.0815e-05
3.05112e-05
3.16038e-05
3.1178e-05
3.26063e-05
3.20747e-05
3.38714e-05
3.31945e-05
3.55018e-05
3.46379e-05
3.72414e-05
3.64574e-05
3.85017e-05
3.79082e-05
3.7759e-05
3.86152e-05
3.01405e-05
3.50789e-05
2.30452e-05
2.59813e-05
2.03606e-05
2.13249e-05
1.94679e-05
1.98053e-05
1.91931e-05
0.000215668
0.000184576
0.00015229
2.38325e-05
2.56636e-05
0.000252853
2.9021e-05
0.000272929
2.26553e-05
0.000115153
0.000108029
0.000169123
2.34327e-05
2.51451e-05
2.58957e-05
2.64922e-05
2.32043e-05
0.000141854
2.28905e-05
1.87117e-05
1.85103e-05
1.94562e-05
2.69815e-05
2.46204e-05
2.57094e-05
2.22233e-05
0.000199831
2.71277e-05
4.3589e-05
2.15123e-05
0.000147245
2.69463e-05
2.64707e-05
0.000313106
0.000303747
2.32532e-05
0.000257715
0.000306504
0.000289498
2.44082e-05
2.229e-05
3.12547e-05
2.73434e-05
3.85293e-05
3.53462e-05
4.02134e-05
3.99004e-05
3.93791e-05
3.98283e-05
3.80871e-05
3.88176e-05
3.66044e-05
3.73165e-05
3.54058e-05
3.59678e-05
3.44616e-05
3.4908e-05
3.37124e-05
3.40635e-05
3.31678e-05
3.34112e-05
3.28562e-05
3.29801e-05
3.28633e-05
3.27975e-05
3.354e-05
3.31299e-05
3.46025e-05
3.40283e-05
3.63309e-05
3.53408e-05
3.97153e-05
3.7765e-05
4.5538e-05
4.22998e-05
5.50897e-05
4.97124e-05
7.17948e-05
6.21892e-05
0.00010978
8.59696e-05
0.000128599
0.000108136
0.000119184
9.9299e-05
0.000100767
0.000107942
0.00010246
0.000118267
0.000113666
0.000119821
0.000120589
0.000110508
0.000116163
9.80387e-05
0.000104092
9.3942e-05
9.39496e-05
0.000110722
9.95767e-05
0.000122653
9.0899e-05
0.000112752
6.2514e-05
7.35184e-05
4.86283e-05
5.45259e-05
4.07952e-05
4.41987e-05
3.6105e-05
3.81781e-05
3.34552e-05
3.45499e-05
3.20774e-05
3.26749e-05
3.11924e-05
3.15957e-05
3.07631e-05
3.08723e-05
3.09072e-05
3.07933e-05
3.13055e-05
3.10762e-05
3.19163e-05
3.15849e-05
3.27216e-05
3.22933e-05
3.37673e-05
3.32083e-05
3.51038e-05
3.44088e-05
3.64356e-05
3.58562e-05
3.73008e-05
3.68991e-05
3.59887e-05
3.71022e-05
2.86269e-05
3.30212e-05
2.22053e-05
2.50804e-05
1.96102e-05
2.05681e-05
1.90641e-05
0.000226074
0.000194854
2.09549e-05
0.000169968
0.000162333
2.42957e-05
2.63918e-05
0.000310779
2.48007e-05
2.38748e-05
0.00018885
0.000438014
0.000264278
2.38301e-05
1.93232e-05
1.87624e-05
1.85002e-05
2.72978e-05
2.58161e-05
2.66314e-05
0.000290894
2.53195e-05
0.000251619
9.40119e-05
0.000121436
0.000112348
0.000124244
2.64414e-05
0.000162086
2.31739e-05
1.93886e-05
0.000340433
0.00033699
0.000324987
0.000315859
0.000647104
2.78392e-05
0.000633076
0.000878282
0.00026349
0.000190283
0.000404194
0.000307594
2.23672e-05
2.12008e-05
0.000156217
0.000166458
0.000191867
0.000175629
0.000147793
2.79759e-05
2.72434e-05
2.1484e-05
0.000372456
2.77513e-05
0.00107178
0.00113883
0.000753161
2.06711e-05
0.000364134
0.000987021
0.000363629
0.000374645
2.55829e-05
0.000241204
2.37719e-05
0.000200319
3.04156e-05
2.65729e-05
3.7222e-05
3.43143e-05
3.90905e-05
3.86297e-05
3.86476e-05
3.88975e-05
3.78017e-05
3.8302e-05
3.671e-05
3.7235e-05
3.5823e-05
3.6235e-05
3.51606e-05
3.5468e-05
3.46721e-05
3.48963e-05
3.43589e-05
3.4493e-05
3.42535e-05
3.42799e-05
3.43813e-05
3.42895e-05
3.48352e-05
3.45492e-05
3.5926e-05
3.53111e-05
3.73442e-05
3.66082e-05
3.92933e-05
3.82265e-05
4.27193e-05
4.07738e-05
4.85346e-05
4.52787e-05
5.7227e-05
5.26468e-05
6.89181e-05
6.26865e-05
7.77239e-05
0.000132998
0.000110042
0.000121139
0.000104155
0.000104245
0.0001129
0.000107917
0.000121563
0.000117716
0.00012284
0.00012357
0.000114441
0.000119514
0.000102898
0.000108607
9.74234e-05
9.84726e-05
0.000101831
0.000124809
7.96674e-05
9.99377e-05
6.13942e-05
6.83421e-05
5.10474e-05
5.58155e-05
4.36082e-05
4.70048e-05
3.88554e-05
4.09077e-05
3.61489e-05
3.72879e-05
3.4501e-05
3.52504e-05
3.32246e-05
3.3828e-05
3.23767e-05
3.26974e-05
3.20886e-05
3.2191e-05
3.20648e-05
3.20448e-05
3.2268e-05
3.21389e-05
3.26574e-05
3.24416e-05
3.32036e-05
3.29103e-05
3.39479e-05
3.35448e-05
3.4919e-05
3.44133e-05
3.58457e-05
3.54628e-05
3.63474e-05
3.6125e-05
3.4686e-05
3.59532e-05
2.80882e-05
3.18445e-05
2.20177e-05
2.46365e-05
2.03089e-05
0.000168765
0.000180608
0.000220769
0.000197647
0.000782278
0.000148169
0.000198266
2.48464e-05
1.99394e-05
1.84227e-05
2.71672e-05
0.000324533
0.000423669
0.000521133
0.000237853
0.0003445
0.000281395
0.00036729
0.000203426
0.000165875
2.60913e-05
2.08552e-05
0.000228534
0.000138331
0.000131528
2.72449e-05
0.00014521
0.000264168
0.000166839
0.000187251
0.000142812
2.43119e-05
0.000213547
1.84557e-05
0.000267882
0.000149704
0.000140063
0.000146167
0.000391499
2.81897e-05
2.65417e-05
2.74533e-05
0.000763175
0.000311389
0.000541637
0.000447967
0.000491129
0.000366751
0.00029481
0.000398144
0.000262962
0.000335287
0.000238485
0.000145531
0.00015143
0.000386491
0.000145989
0.000249556
2.35655e-05
1.96212e-05
0.000146905
0.000165122
0.000186621
2.87775e-05
0.000983611
0.000597892
0.000742079
0.000629419
2.81094e-05
2.26183e-05
5.30247e-05
2.15617e-05
0.000143166
0.000205172
0.000304192
0.000336163
0.000409938
0.000288617
0.000438186
2.89035e-05
0.00116237
0.00112558
0.000974959
0.00087408
3.44701e-05
0.000217432
2.86558e-05
2.15489e-05
0.000430605
0.00112705
0.00115525
0.00106437
0.000875871
2.06384e-05
0.000429966
0.00045713
0.000855954
0.00108203
0.000440287
0.00106399
2.63194e-05
2.69819e-05
5.26106e-05
0.00116723
0.000509853
2.42497e-05
0.000145129
3.59631e-05
3.32914e-05
3.83982e-05
3.76838e-05
3.839e-05
3.84187e-05
3.80419e-05
3.82783e-05
3.73888e-05
3.77046e-05
3.68625e-05
3.71012e-05
3.65131e-05
3.66682e-05
3.63123e-05
3.63944e-05
3.62634e-05
3.62674e-05
3.63878e-05
3.63023e-05
3.67074e-05
3.65218e-05
3.72429e-05
3.69456e-05
3.81471e-05
3.76259e-05
3.964e-05
3.88406e-05
4.13642e-05
4.04548e-05
4.36762e-05
4.23803e-05
4.75813e-05
4.53852e-05
5.33311e-05
5.02119e-05
6.16608e-05
5.70477e-05
7.22251e-05
6.67976e-05
8.95248e-05
7.8746e-05
0.000134166
0.000109042
0.000140289
0.00013343
0.000139642
0.000111873
0.000122176
0.000108945
0.000107654
0.000118979
0.0001136
0.000126563
0.000123478
0.000127281
0.000128003
0.000119834
0.000124438
0.000107804
0.000114042
0.000100587
0.000102622
0.000112895
0.000103626
0.000131443
0.000123856
0.000133276
0.000116681
0.000132129
7.8597e-05
9.27554e-05
6.5186e-05
7.06901e-05
5.54141e-05
6.00877e-05
4.82581e-05
5.14303e-05
4.3336e-05
4.55421e-05
4.01923e-05
4.15279e-05
3.82025e-05
3.91082e-05
3.65828e-05
3.73593e-05
3.5283e-05
3.58372e-05
3.45521e-05
3.48705e-05
3.41058e-05
3.42994e-05
3.38794e-05
3.39659e-05
3.38395e-05
3.38384e-05
3.39391e-05
3.38734e-05
3.41741e-05
3.40378e-05
3.45904e-05
3.43551e-05
3.51931e-05
3.48769e-05
3.57492e-05
3.55465e-05
3.59022e-05
3.58527e-05
3.43818e-05
3.55397e-05
2.84826e-05
3.19294e-05
2.24623e-05
2.49588e-05
2.08677e-05
2.81669e-05
0.000299823
0.000192835
0.000141939
0.000241295
0.000152894
0.000218995
0.000189981
0.000162278
0.00017381
0.00014713
0.000153529
0.000141447
0.000143225
0.000141274
2.54616e-05
1.8238e-05
5.31804e-05
0.000446932
2.80455e-05
0.000648719
0.00037065
0.000321513
0.000419984
0.000150174
0.000139227
2.39097e-05
0.000205947
0.000186623
0.000180942
0.000160261
0.000139728
0.000140314
4.99132e-05
0.00014363
0.000155054
0.00016799
0.000269752
0.000222409
0.000145455
0.000208767
0.000153609
0.000163848
0.000145869
2.48608e-05
1.85801e-05
0.000148138
0.000158476
0.00022141
0.000472905
2.91548e-05
2.73308e-05
2.83337e-05
0.000882335
0.00039975
0.000666598
0.000566137
0.00052639
2.90594e-05
0.000232256
0.000126923
0.000136643
0.000128539
0.000131866
0.000154968
0.000201412
2.40075e-05
0.000154089
1.9881e-05
0.00016543
0.000189948
0.000250789
0.000239081
0.000507215
2.97843e-05
0.00106346
0.000768607
0.000170374
2.96196e-05
0.000163187
2.29142e-05
2.19184e-05
0.000224123
0.00050191
2.98938e-05
0.0011491
0.000983657
0.000743258
2.16684e-05
0.000501493
0.000334466
0.000714089
0.00112038
0.000992452
2.05396e-05
0.000507389
0.000965612
2.70988e-05
2.78969e-05
0.000534496
0.00113405
2.91737e-05
0.000215438
0.00117734
0.000592311
0.000173207
2.47718e-05
0.000578525
0.000593792
0.000275541
0.000661823
2.24217e-05
2.86799e-05
3.54765e-05
3.19001e-05
3.8505e-05
3.75639e-05
3.88999e-05
3.87549e-05
3.9056e-05
3.90199e-05
3.893e-05
3.89925e-05
3.88047e-05
3.8855e-05
3.87993e-05
3.87872e-05
3.8911e-05
3.88406e-05
3.91494e-05
3.90146e-05
3.95237e-05
3.93192e-05
4.00411e-05
3.97651e-05
4.07063e-05
4.03555e-05
4.15497e-05
4.10996e-05
4.28119e-05
4.21108e-05
4.45351e-05
4.36761e-05
4.64194e-05
4.54354e-05
4.91371e-05
4.75922e-05
5.36183e-05
5.11539e-05
5.95253e-05
5.63851e-05
6.72428e-05
6.29744e-05
7.79555e-05
7.231e-05
9.24501e-05
8.38971e-05
0.000106302
0.000139576
0.000131277
0.000138097
0.000112665
0.000121735
0.000112447
0.000110078
0.000124957
0.000118123
0.00013329
0.000130357
0.00013332
0.000134148
0.000125965
0.000130754
0.000111526
0.000119139
0.000102492
0.000105353
0.000111903
0.000104241
0.000120661
0.000132136
0.000110863
0.000127717
8.29845e-05
9.3669e-05
7.08581e-05
7.63386e-05
6.1092e-05
6.56114e-05
5.42883e-05
5.74518e-05
4.90374e-05
5.15153e-05
4.53247e-05
4.69754e-05
4.3035e-05
4.40819e-05
4.12173e-05
4.21103e-05
3.95836e-05
4.03547e-05
3.84788e-05
3.8976e-05
3.76756e-05
3.80528e-05
3.70456e-05
3.73416e-05
3.65673e-05
3.67888e-05
3.62131e-05
3.63753e-05
3.59899e-05
3.60873e-05
3.5919e-05
3.59353e-05
3.60096e-05
3.59462e-05
3.61982e-05
3.60985e-05
3.63789e-05
3.6343e-05
3.62471e-05
3.63376e-05
3.48217e-05
3.59197e-05
2.99407e-05
3.28453e-05
2.46796e-05
2.69775e-05
2.28566e-05
0.000323267
0.000477558
0.000395133
0.000651098
0.00056507
0.000739211
0.000801512
0.000730774
0.000573695
0.000647313
0.000477213
0.000562806
0.00039616
0.000163483
0.000172587
0.000173316
0.00014923
0.00015613
0.000141398
0.0001445
0.000140114
0.000143438
0.0001412
2.42614e-05
0.000189471
0.000147657
0.000181228
0.000203849
0.000265893
0.000230052
0.000169965
0.000184465
0.00015178
0.000159711
0.000143827
0.000146126
0.000142195
0.000142328
0.000143331
2.61383e-05
1.82436e-05
0.000152664
2.03584e-05
0.000194681
0.000529289
2.89882e-05
0.00077405
0.00047679
0.000359265
0.000434308
0.000479444
3.00896e-05
2.98665e-05
0.00014741
2.51104e-05
0.000175788
0.000137156
0.000131736
3.77201e-05
5.63263e-05
0.000182802
0.000200787
0.000169822
0.000372174
0.000150214
0.000149269
0.000154604
0.000205743
0.000180564
0.000152315
0.000177957
0.000152031
0.000155799
0.000150974
2.54519e-05
1.88489e-05
1.87669e-05
0.000167459
0.000180189
2.61074e-05
2.1377e-05
0.000200027
0.000260726
0.000675982
0.000558486
3.43911e-05
3.48503e-05
3.01959e-05
2.81666e-05
2.92766e-05
0.000982519
4.8622e-05
5.71617e-05
5.20707e-05
0.000500441
0.000787311
0.000686301
0.000664753
4.09572e-05
0.00028633
0.000232585
0.000147027
3.06571e-05
0.000158876
2.07729e-05
0.000385396
0.000315087
0.000169291
0.00017794
2.44858e-05
2.01758e-05
0.00020438
0.000225661
0.000211059
0.00086235
0.00080838
0.000572558
3.08638e-05
0.00111441
0.000891878
3.47336e-05
0.000600582
3.09543e-05
2.32288e-05
6.83447e-05
7.94512e-05
2.22762e-05
7.05872e-05
7.66638e-05
0.000309126
0.00050418
0.000575567
0.00024317
0.000562616
0.0011444
0.00106331
0.000872994
2.17787e-05
8.91418e-05
8.80097e-05
0.000726161
0.00065623
0.000579801
0.00083512
2.80008e-05
2.88263e-05
5.74169e-05
6.72939e-05
7.23105e-05
8.36468e-05
8.60381e-05
9.60864e-05
9.29683e-05
9.8216e-05
0.000595497
0.00106344
3.02307e-05
0.000262687
0.0011538
0.0006382
0.0011801
3.12064e-05
0.000141961
0.000684395
0.000169741
2.54473e-05
2.84841e-05
2.424e-05
3.29288e-05
3.82278e-05
3.5773e-05
4.04284e-05
3.97767e-05
4.11047e-05
4.08139e-05
4.14277e-05
4.13145e-05
4.18054e-05
4.16133e-05
4.21557e-05
4.19782e-05
4.25155e-05
4.23291e-05
4.29601e-05
4.27259e-05
4.34903e-05
4.32117e-05
4.41098e-05
4.37895e-05
4.48004e-05
4.44457e-05
4.55438e-05
4.51647e-05
4.63394e-05
4.59346e-05
4.72722e-05
4.67767e-05
4.86698e-05
4.79039e-05
5.02869e-05
4.94924e-05
5.21538e-05
5.11658e-05
5.52958e-05
5.34952e-05
6.01734e-05
5.75773e-05
6.63284e-05
6.31332e-05
7.39837e-05
6.9895e-05
8.46495e-05
7.891e-05
9.84648e-05
9.08707e-05
0.000123753
0.000109061
0.000135535
0.000133409
0.000134873
0.000135908
0.0001355
0.000125325
0.000132964
0.000112669
0.000118595
0.000114355
0.000110918
0.000129561
0.000120985
0.000142059
0.000137282
0.000142247
0.000143549
0.000131599
0.000138373
0.000113543
0.00012265
0.000102766
0.000106573
0.000108242
0.000103973
0.000121713
0.000113882
0.000129016
0.000127448
0.000129634
0.000130616
0.000130962
0.000111121
0.000124598
8.98709e-05
9.86455e-05
7.75075e-05
8.33618e-05
6.80153e-05
7.23392e-05
6.11128e-05
6.43487e-05
5.55184e-05
5.81518e-05
5.12818e-05
5.31884e-05
4.87312e-05
4.98229e-05
4.69262e-05
4.77803e-05
4.52222e-05
4.60612e-05
4.39251e-05
4.45016e-05
4.29466e-05
4.34141e-05
4.20631e-05
4.24963e-05
4.12386e-05
4.1647e-05
4.04731e-05
4.08472e-05
3.98002e-05
4.01173e-05
3.92987e-05
3.95235e-05
3.89525e-05
3.91123e-05
3.86737e-05
3.88076e-05
3.84027e-05
3.85492e-05
3.81873e-05
3.82804e-05
3.78495e-05
3.8032e-05
3.71299e-05
3.76627e-05
3.31276e-05
3.55834e-05
3.00871e-05
0.000556
0.000467819
0.000726693
0.000644256
0.000861354
0.000799345
0.000913465
0.000954363
0.000912692
0.000796698
0.000857654
0.000723859
0.000795952
0.000555499
0.000642683
0.000468042
0.000260683
0.000225732
0.000153816
0.000160485
0.000145224
0.000148989
0.00014234
0.000143177
0.000142709
0.000142196
0.00014403
0.000273271
0.000147596
0.000164247
0.0001511
0.000163699
0.000181205
0.000223928
0.000199001
0.000158933
0.000168313
0.000147371
0.000152114
0.000144647
0.000145457
0.000145619
0.000144635
0.000147651
2.68548e-05
1.8322e-05
0.000172789
2.05505e-05
2.00609e-05
0.000225971
0.000614106
3.18443e-05
3.26154e-05
3.00077e-05
6.20928e-05
0.000888429
4.38124e-05
4.74568e-05
0.000589516
0.00056632
4.43939e-05
3.07434e-05
0.000156962
0.000175557
2.4752e-05
4.15249e-05
4.40316e-05
3.17723e-05
0.000161305
3.98405e-05
0.000278317
0.000166938
0.000163674
2.08969e-05
3.9264e-05
5.05079e-05
0.000260195
0.000310134
0.000181586
0.000246359
0.000156191
0.000175819
0.000165615
0.000165535
0.000166917
0.000160195
0.000159737
2.60764e-05
1.88809e-05
1.90118e-05
0.000204359
0.000215157
2.07244e-05
0.00024064
0.000314991
0.000751742
0.000634488
3.63611e-05
3.13261e-05
2.90414e-05
3.02785e-05
7.59214e-05
5.71601e-05
0.00014083
0.00105753
6.16365e-05
0.000599598
0.000892073
0.000796516
0.000795573
4.15937e-05
3.60623e-05
0.00046003
4.20722e-05
3.20876e-05
8.72156e-05
0.000135205
0.000134895
0.000123699
0.000126658
0.000221832
0.000256685
0.000196305
0.00019063
0.000174214
2.49773e-05
2.04893e-05
5.3217e-05
0.000140981
6.32182e-05
0.000279703
0.000209094
3.0419e-05
2.30884e-05
0.000440458
0.000868727
0.000645851
0.000192503
0.00041764
3.20199e-05
8.57507e-05
0.00113838
7.88254e-05
0.000425146
0.000988738
3.17399e-05
0.000729751
3.69078e-05
3.391e-05
2.77996e-05
2.35509e-05
2.26612e-05
8.33589e-05
0.000588059
0.000987717
0.000955883
0.000652433
0.000682986
0.000180958
0.00111352
9.59237e-05
2.91012e-05
2.9795e-05
2.19551e-05
3.1904e-05
0.000100315
0.000733927
0.000664799
0.000953695
0.000105148
3.13406e-05
0.00032007
0.00109415
0.000909095
0.000857787
0.000691124
0.00114131
3.23894e-05
0.00119348
7.06855e-05
0.000732134
3.29695e-05
0.000292211
0.000164757
5.85778e-05
4.67532e-05
5.52639e-05
2.85967e-05
4.08166e-05
4.34921e-05
4.23293e-05
4.44604e-05
4.418e-05
4.53146e-05
4.48138e-05
4.61725e-05
4.5796e-05
4.68301e-05
4.65308e-05
4.74791e-05
4.71373e-05
4.82067e-05
4.78337e-05
4.89702e-05
4.85817e-05
4.97853e-05
4.93739e-05
5.06099e-05
5.01985e-05
5.14017e-05
5.10129e-05
5.21178e-05
5.17714e-05
5.27304e-05
5.24286e-05
5.32724e-05
5.29956e-05
5.3941e-05
5.35522e-05
5.50782e-05
5.44492e-05
5.62978e-05
5.56619e-05
5.80779e-05
5.704e-05
6.16423e-05
5.95952e-05
6.68581e-05
6.40813e-05
7.34067e-05
6.99727e-05
8.15052e-05
7.72147e-05
9.21467e-05
8.64601e-05
0.000106078
9.8605e-05
0.000125387
0.000115248
0.000132692
0.000132534
0.000128634
0.000131405
0.000116914
0.000122968
0.000111119
0.000112694
0.000115222
0.000110952
0.000133089
0.000122889
0.000154506
0.000144524
0.000157444
0.000159738
0.000137089
0.000148794
0.000114625
0.000124994
0.000102673
0.000106873
0.000102884
0.000102227
0.000112239
0.000106454
0.000119095
0.000130666
0.000130421
0.000131328
0.000115677
0.000125197
9.77482e-05
0.000105794
8.5178e-05
9.10314e-05
7.55872e-05
8.00223e-05
6.82226e-05
7.16903e-05
6.22538e-05
6.50637e-05
5.76306e-05
5.9752e-05
5.47634e-05
5.59426e-05
5.31506e-05
5.3889e-05
5.17649e-05
5.24696e-05
5.06018e-05
5.1122e-05
4.97964e-05
5.01909e-05
4.90078e-05
4.94158e-05
4.81301e-05
4.85853e-05
4.7147e-05
4.76524e-05
4.61467e-05
4.66405e-05
4.52626e-05
4.56785e-05
4.45519e-05
4.48925e-05
4.39038e-05
4.42225e-05
4.32163e-05
4.35696e-05
4.25233e-05
4.28677e-05
4.19278e-05
4.21962e-05
4.14155e-05
4.16705e-05
4.06211e-05
4.11787e-05
3.92019e-05
0.00031417
0.000464877
0.000382471
0.000644361
0.000554518
0.000803311
0.000728525
0.000917976
0.000866477
0.000991425
0.000959137
0.0010139
0.00103616
0.0010166
0.000951027
0.000989643
0.000915617
0.000956985
0.000801323
0.000864072
0.000643146
0.000727209
0.000463984
0.000553747
0.000380584
0.000198149
0.000151209
0.000155413
0.000146931
0.000148236
0.000146626
0.000146532
0.000148092
0.000147146
0.000152792
0.000149582
0.000158679
0.000157631
0.000159737
0.000162321
0.00016156
0.000197086
0.000265605
0.000221927
0.000168779
0.000180495
0.000154248
0.000160465
0.000148877
0.000150304
0.000148752
0.000148435
0.000151286
0.000149653
0.000157455
0.000153761
3.8629e-05
2.7606e-05
1.85065e-05
0.000208863
2.06552e-05
1.99611e-05
0.000271933
0.000693321
3.39826e-05
3.1103e-05
6.61819e-05
3.89893e-05
3.75308e-05
0.000982086
5.63064e-05
0.000699908
0.000698283
3.84357e-05
0.000367711
0.000329555
3.33068e-05
7.98523e-05
0.000159478
2.64704e-05
0.000542447
0.000591578
0.000179308
0.000221114
0.0001336
0.000129016
0.000379985
0.000308928
0.000172284
0.000181646
0.00017651
0.000177618
0.000175577
0.000186084
0.000172182
0.000177394
0.000174517
0.000187795
0.000177758
2.67173e-05
1.90144e-05
1.93026e-05
0.000162653
0.000134914
0.000128484
0.000124401
0.000268512
0.000271436
2.04044e-05
0.000383965
0.000819553
0.000708898
0.000182299
0.000297296
3.25329e-05
2.9963e-05
3.13576e-05
7.75278e-05
0.000408754
4.17261e-05
4.22187e-05
6.04804e-05
5.24103e-05
0.00110569
0.0002115
7.22012e-05
0.000891376
0.000576433
0.000902408
0.000240599
3.22816e-05
0.000571104
4.72829e-05
4.59333e-05
3.05044e-05
0.000215502
0.00018116
0.000213842
3.57893e-05
0.00023535
2.54811e-05
2.08438e-05
3.90279e-05
3.70316e-05
4.46652e-05
7.59228e-05
4.7726e-05
0.000387601
0.000148389
2.23994e-05
0.000523608
0.000920222
0.00072013
0.000107861
0.000748401
0.000522272
0.000184985
3.32582e-05
8.29299e-05
0.00101492
0.0010252
0.00104375
0.00113509
0.000139702
0.000146753
0.000205593
9.23055e-05
0.000531952
0.000444332
0.000293295
3.08406e-05
0.0010606
2.3908e-05
3.64171e-05
3.45044e-05
2.94226e-05
2.30608e-05
9.81361e-05
5.22389e-05
4.9848e-05
3.91226e-05
2.74035e-05
0.000671004
0.000990235
0.000732845
0.00108337
0.00107225
0.00107485
0.000488147
0.000810092
0.000218638
0.000252433
0.000108621
0.00107212
3.24962e-05
0.0004014
2.63822e-05
0.000176315
2.21881e-05
0.000122974
4.32248e-05
0.000526982
0.000111697
0.000997861
0.000803839
0.00105075
0.00103417
0.000752861
0.00106121
0.000483974
0.00106061
3.36378e-05
0.00116999
6.10144e-05
0.000909445
0.000784095
0.001193
3.42375e-05
3.46093e-05
7.21207e-05
0.000984623
0.000820759
0.000203589
0.000130794
5.47294e-05
4.51872e-05
4.77857e-05
3.67283e-05
3.93698e-05
4.22009e-05
3.77604e-05
5.15223e-05
5.21349e-05
5.18137e-05
5.22453e-05
5.22254e-05
5.26952e-05
5.23862e-05
5.39324e-05
5.3218e-05
5.53006e-05
5.47004e-05
5.60253e-05
5.568e-05
5.67788e-05
5.63625e-05
5.77143e-05
5.7229e-05
5.87122e-05
5.8216e-05
5.96525e-05
5.91981e-05
6.04079e-05
6.00625e-05
6.08912e-05
6.06924e-05
6.10625e-05
6.10204e-05
6.09596e-05
6.10454e-05
6.07119e-05
6.08445e-05
6.06943e-05
6.06398e-05
6.1173e-05
6.09216e-05
6.18863e-05
6.14644e-05
6.37534e-05
6.25806e-05
6.78216e-05
6.55535e-05
7.34785e-05
7.04728e-05
8.06153e-05
7.68751e-05
8.94385e-05
8.47961e-05
0.000100824
9.47801e-05
0.000114659
0.000107504
0.000129066
0.000122114