/*--------------------------------*- C++ -*----------------------------------*\
| =========                 |                                                 |
| \\      /  F ield         | OpenFOAM: The Open Source CFD Toolbox           |
|  \\    /   O peration     | Version:  2212                                  |
|   \\  /    A nd           | Website:  www.openfoam.com                      |
|    \\/     M anipulation  |                                                 |
\*---------------------------------------------------------------------------*/
FoamFile
{
    version     2.0;
    format      ascii;
    arch        "LSB;label=32;scalar=64";
    class       volScalarField;
    location    "0.062";
    object      p;
}
// * * * * * * * * * * * * * * * * * * * * * * * * * * * * * * * * * * * * * //

dimensions      [0 2 -2 0 0 0 0];

internalField   nonuniform List<scalar> 
24240
(
-8.55853
-8.55826
-8.55772
-8.55694
-8.55594
-8.55476
-8.55344
-8.55201
-8.55053
-8.54902
-8.54755
-8.54613
-8.54481
-8.54361
-8.54255
-8.54165
-8.54092
-8.54037
-8.54
-8.53982
-8.55877
-8.55862
-8.55833
-8.5579
-8.55735
-8.5567
-8.55598
-8.55519
-8.55437
-8.55353
-8.55271
-8.55192
-8.55118
-8.55051
-8.54992
-8.54942
-8.54902
-8.54874
-8.54857
-8.54851
-8.2355
-8.23546
-8.23537
-8.23525
-8.23509
-8.2349
-8.23469
-8.23445
-8.23419
-8.23393
-8.23367
-8.23341
-8.23317
-8.23295
-8.23275
-8.23259
-8.23247
-8.23239
-8.23236
-8.23237
-8.36639
-8.36641
-8.36644
-8.36647
-8.36652
-8.36658
-8.36663
-8.36669
-8.36675
-8.3668
-8.36685
-8.36689
-8.36692
-8.36695
-8.36697
-8.367
-8.36703
-8.36706
-8.36709
-8.36712
-8.1967
-8.19675
-8.19686
-8.19701
-8.1972
-8.19743
-8.19768
-8.19794
-8.19822
-8.19848
-8.19874
-8.19899
-8.19921
-8.19941
-8.19959
-8.19974
-8.19986
-8.19996
-8.20003
-8.20007
-8.26094
-8.26101
-8.26114
-8.26132
-8.26156
-8.26184
-8.26215
-8.26247
-8.26281
-8.26315
-8.26348
-8.26378
-8.26407
-8.26432
-8.26455
-8.26473
-8.26488
-8.265
-8.26508
-8.26511
-8.15246
-8.15254
-8.15268
-8.1529
-8.15317
-8.1535
-8.15385
-8.15424
-8.15463
-8.15502
-8.15541
-8.15577
-8.1561
-8.1564
-8.15666
-8.15687
-8.15704
-8.15717
-8.15725
-8.15728
-8.2026
-8.20267
-8.2028
-8.20298
-8.20322
-8.2035
-8.20381
-8.20414
-8.20448
-8.20482
-8.20515
-8.20546
-8.20575
-8.206
-8.20622
-8.2064
-8.20654
-8.20664
-8.2067
-8.20673
-8.11519
-8.11525
-8.11535
-8.1155
-8.11569
-8.11592
-8.11617
-8.11644
-8.11672
-8.11699
-8.11726
-8.11751
-8.11775
-8.11795
-8.11812
-8.11826
-8.11837
-8.11844
-8.11849
-8.1185
-8.14992
-8.14996
-8.15003
-8.15013
-8.15025
-8.1504
-8.15057
-8.15075
-8.15093
-8.15111
-8.15129
-8.15145
-8.1516
-8.15173
-8.15184
-8.15192
-8.15199
-8.15203
-8.15205
-8.15207
-8.13701
-8.13705
-8.13714
-8.13727
-8.13744
-8.13764
-8.13786
-8.1381
-8.13835
-8.13859
-8.13883
-8.13905
-8.13925
-8.13943
-8.13957
-8.13969
-8.13977
-8.13983
-8.13986
-8.13988
-8.09554
-8.09558
-8.09568
-8.09581
-8.09598
-8.09617
-8.09639
-8.09663
-8.09687
-8.09712
-8.09735
-8.09756
-8.09775
-8.09792
-8.09805
-8.09816
-8.09824
-8.0983
-8.09833
-8.09835
-8.22241
-8.22244
-8.22249
-8.22256
-8.22265
-8.22276
-8.22288
-8.22301
-8.22314
-8.22327
-8.22339
-8.22349
-8.22358
-8.22366
-8.22372
-8.22376
-8.2238
-8.22382
-8.22384
-8.22384
-8.0781
-8.07812
-8.07814
-8.07818
-8.07822
-8.07827
-8.07833
-8.07838
-8.07844
-8.07849
-8.07853
-8.07856
-8.07858
-8.07859
-8.0786
-8.0786
-8.0786
-8.0786
-8.0786
-8.07859
-8.3161
-8.31608
-8.31605
-8.316
-8.31594
-8.31586
-8.31578
-8.31568
-8.31557
-8.31546
-8.31535
-8.31523
-8.31511
-8.31499
-8.31489
-8.3148
-8.31473
-8.31469
-8.31466
-8.31462
-8.11728
-8.11724
-8.11716
-8.11705
-8.11691
-8.11675
-8.11656
-8.11635
-8.11612
-8.11589
-8.11565
-8.11541
-8.11518
-8.11497
-8.11478
-8.11462
-8.1145
-8.11442
-8.11437
-8.11434
-8.42291
-8.42281
-8.42263
-8.42238
-8.42205
-8.42167
-8.42123
-8.42075
-8.42024
-8.41973
-8.41921
-8.4187
-8.41823
-8.41779
-8.41742
-8.4171
-8.41687
-8.41671
-8.41663
-8.41662
-8.10673
-8.10657
-8.10628
-8.10586
-8.10532
-8.10468
-8.10395
-8.10316
-8.10233
-8.10149
-8.10065
-8.09983
-8.09907
-8.09839
-8.09779
-8.0973
-8.09693
-8.09669
-8.09658
-8.09658
-8.5856
-8.58534
-8.58484
-8.58413
-8.58322
-8.58214
-8.58092
-8.5796
-8.57821
-8.57681
-8.57542
-8.57409
-8.57286
-8.57175
-8.57079
-8.57001
-8.5694
-8.56899
-8.56877
-8.56873
-8.52313
-8.52277
-8.52205
-8.52101
-8.51967
-8.51808
-8.51628
-8.51434
-8.51231
-8.51025
-8.50822
-8.50629
-8.50451
-8.50291
-8.50152
-8.50037
-8.49946
-8.49879
-8.49836
-8.49816
-26.263
-26.2626
-26.2618
-26.2606
-26.2591
-26.2573
-26.2553
-26.2532
-26.2509
-26.2486
-26.2463
-26.2441
-26.242
-26.2401
-26.2384
-26.2369
-26.2357
-26.2347
-26.2341
-26.2338
-25.707
-25.7067
-25.7061
-25.7053
-25.7043
-25.7031
-25.7017
-25.7002
-25.6986
-25.697
-25.6954
-25.6939
-25.6924
-25.6911
-25.6899
-25.6889
-25.6881
-25.6875
-25.6871
-25.687
-25.214
-25.2139
-25.2137
-25.2134
-25.2129
-25.2124
-25.2118
-25.2112
-25.2105
-25.2098
-25.2091
-25.2084
-25.2078
-25.2072
-25.2066
-25.2062
-25.2058
-25.2055
-25.2054
-25.2054
-25.0069
-25.0068
-25.0068
-25.0067
-25.0066
-25.0065
-25.0063
-25.0062
-25.006
-25.0058
-25.0056
-25.0054
-25.0052
-25.005
-25.0048
-25.0046
-25.0045
-25.0045
-25.0044
-25.0045
-24.674
-24.6741
-24.6742
-24.6743
-24.6744
-24.6745
-24.6747
-24.6748
-24.675
-24.6751
-24.6752
-24.6753
-24.6754
-24.6755
-24.6756
-24.6757
-24.6757
-24.6758
-24.6758
-24.6758
-24.7193
-24.7194
-24.7195
-24.7197
-24.7199
-24.7202
-24.7205
-24.7208
-24.7211
-24.7214
-24.7216
-24.7219
-24.7221
-24.7223
-24.7225
-24.7227
-24.7228
-24.7229
-24.723
-24.723
-24.478
-24.4781
-24.4782
-24.4784
-24.4787
-24.479
-24.4793
-24.4797
-24.48
-24.4804
-24.4807
-24.481
-24.4813
-24.4815
-24.4818
-24.482
-24.4821
-24.4822
-24.4823
-24.4823
-24.5578
-24.5579
-24.558
-24.5582
-24.5584
-24.5587
-24.559
-24.5593
-24.5597
-24.56
-24.5603
-24.5606
-24.5609
-24.5611
-24.5613
-24.5615
-24.5617
-24.5618
-24.5618
-24.5619
-24.3577
-24.3578
-24.3579
-24.358
-24.3582
-24.3585
-24.3587
-24.359
-24.3593
-24.3596
-24.3599
-24.3601
-24.3603
-24.3606
-24.3607
-24.3609
-24.361
-24.3611
-24.3612
-24.3612
-24.4157
-24.4157
-24.4158
-24.4159
-24.416
-24.4161
-24.4163
-24.4165
-24.4166
-24.4168
-24.417
-24.4171
-24.4173
-24.4174
-24.4175
-24.4176
-24.4177
-24.4178
-24.4178
-24.4179
-24.4067
-24.4068
-24.4069
-24.407
-24.4072
-24.4074
-24.4077
-24.408
-24.4083
-24.4085
-24.4088
-24.4091
-24.4093
-24.4095
-24.4097
-24.4098
-24.41
-24.4101
-24.4102
-24.4102
-24.2917
-24.2917
-24.2918
-24.2919
-24.292
-24.2922
-24.2923
-24.2925
-24.2927
-24.2929
-24.293
-24.2932
-24.2933
-24.2934
-24.2936
-24.2937
-24.2938
-24.2938
-24.2939
-24.294
-24.6057
-24.6057
-24.6057
-24.6057
-24.6057
-24.6057
-24.6057
-24.6057
-24.6057
-24.6057
-24.6057
-24.6057
-24.6056
-24.6056
-24.6056
-24.6056
-24.6056
-24.6056
-24.6056
-24.6057
-24.3123
-24.3122
-24.3122
-24.3121
-24.3119
-24.3118
-24.3116
-24.3114
-24.3112
-24.311
-24.3107
-24.3105
-24.3103
-24.3101
-24.3099
-24.3098
-24.3097
-24.3097
-24.3097
-24.3097
-24.8552
-24.8551
-24.8549
-24.8547
-24.8543
-24.854
-24.8535
-24.8531
-24.8526
-24.8521
-24.8515
-24.851
-24.8505
-24.8501
-24.8497
-24.8494
-24.8492
-24.849
-24.849
-24.8489
-24.6157
-24.6155
-24.6152
-24.6148
-24.6143
-24.6137
-24.613
-24.6122
-24.6114
-24.6106
-24.6097
-24.6089
-24.6081
-24.6074
-24.6067
-24.6062
-24.6058
-24.6056
-24.6054
-24.6053
-25.2792
-25.279
-25.2785
-25.2779
-25.277
-25.2761
-25.2749
-25.2737
-25.2724
-25.271
-25.2697
-25.2684
-25.2671
-25.266
-25.265
-25.2641
-25.2635
-25.263
-25.2628
-25.2627
-25.477
-25.4766
-25.476
-25.4751
-25.4739
-25.4724
-25.4708
-25.469
-25.4672
-25.4653
-25.4633
-25.4615
-25.4597
-25.4581
-25.4566
-25.4554
-25.4544
-25.4537
-25.4533
-25.4532
-26.3068
-26.3063
-26.3053
-26.3039
-26.3022
-26.3
-26.2976
-26.295
-26.2922
-26.2893
-26.2865
-26.2837
-26.2811
-26.2787
-26.2766
-26.2747
-26.2732
-26.2721
-26.2714
-26.2711
-27.1382
-27.1376
-27.1364
-27.1345
-27.1321
-27.1293
-27.1261
-27.1226
-27.1189
-27.1151
-27.1113
-27.1076
-27.1042
-27.101
-27.0981
-27.0956
-27.0935
-27.0919
-27.0908
-27.0901
-41.9819
-41.9814
-41.9803
-41.9789
-41.977
-41.9747
-41.9722
-41.9695
-41.9666
-41.9637
-41.9608
-41.9579
-41.9553
-41.9528
-41.9506
-41.9487
-41.9471
-41.9459
-41.9451
-41.9446
-41.8232
-41.8229
-41.8223
-41.8215
-41.8203
-41.819
-41.8175
-41.8158
-41.814
-41.8122
-41.8104
-41.8086
-41.807
-41.8054
-41.804
-41.8028
-41.8018
-41.801
-41.8005
-41.8003
-41.2362
-41.236
-41.2356
-41.2351
-41.2344
-41.2336
-41.2327
-41.2316
-41.2306
-41.2294
-41.2283
-41.2272
-41.2261
-41.2252
-41.2243
-41.2235
-41.2229
-41.2225
-41.2222
-41.2221
-41.2759
-41.2759
-41.2757
-41.2755
-41.2753
-41.275
-41.2746
-41.2742
-41.2737
-41.2732
-41.2728
-41.2723
-41.2718
-41.2713
-41.2709
-41.2706
-41.2703
-41.2701
-41.27
-41.27
-40.8361
-40.8361
-40.8361
-40.8361
-40.836
-40.836
-40.8359
-40.8358
-40.8357
-40.8355
-40.8354
-40.8352
-40.8351
-40.8349
-40.8348
-40.8347
-40.8346
-40.8345
-40.8345
-40.8345
-41.0212
-41.0212
-41.0212
-41.0211
-41.0211
-41.021
-41.0209
-41.0207
-41.0205
-41.0204
-41.0202
-41.02
-41.0198
-41.0196
-41.0194
-41.0192
-41.0191
-41.019
-41.019
-41.0189
-40.6215
-40.6215
-40.6215
-40.6216
-40.6217
-40.6217
-40.6218
-40.6219
-40.622
-40.622
-40.6221
-40.6221
-40.6222
-40.6222
-40.6222
-40.6222
-40.6222
-40.6223
-40.6223
-40.6223
-40.7371
-40.7371
-40.7372
-40.7373
-40.7374
-40.7375
-40.7376
-40.7377
-40.7379
-40.738
-40.7381
-40.7382
-40.7383
-40.7383
-40.7384
-40.7385
-40.7386
-40.7386
-40.7387
-40.7387
-40.464
-40.464
-40.4641
-40.4641
-40.4642
-40.4643
-40.4644
-40.4645
-40.4646
-40.4647
-40.4648
-40.4649
-40.465
-40.465
-40.4651
-40.4652
-40.4653
-40.4653
-40.4654
-40.4654
-40.5294
-40.5294
-40.5294
-40.5294
-40.5294
-40.5294
-40.5294
-40.5295
-40.5295
-40.5295
-40.5295
-40.5295
-40.5295
-40.5295
-40.5296
-40.5296
-40.5296
-40.5297
-40.5298
-40.5298
-40.5406
-40.5407
-40.5407
-40.5407
-40.5408
-40.5408
-40.5409
-40.5409
-40.541
-40.541
-40.5411
-40.5411
-40.5412
-40.5412
-40.5413
-40.5414
-40.5415
-40.5416
-40.5417
-40.5417
-40.3799
-40.3799
-40.3799
-40.3798
-40.3798
-40.3797
-40.3796
-40.3796
-40.3795
-40.3794
-40.3793
-40.3792
-40.3791
-40.3791
-40.379
-40.379
-40.379
-40.3791
-40.3792
-40.3792
-40.8152
-40.8152
-40.8151
-40.8149
-40.8147
-40.8144
-40.8142
-40.8139
-40.8135
-40.8132
-40.8129
-40.8126
-40.8123
-40.812
-40.8118
-40.8116
-40.8116
-40.8115
-40.8115
-40.8116
-40.4253
-40.4252
-40.425
-40.4247
-40.4243
-40.4239
-40.4233
-40.4228
-40.4222
-40.4216
-40.4209
-40.4203
-40.4198
-40.4193
-40.4189
-40.4185
-40.4183
-40.4182
-40.4181
-40.4181
-41.1624
-41.1623
-41.1619
-41.1615
-41.1608
-41.1601
-41.1593
-41.1584
-41.1574
-41.1564
-41.1554
-41.1545
-41.1536
-41.1528
-41.152
-41.1515
-41.151
-41.1508
-41.1506
-41.1505
-40.7365
-40.7363
-40.7358
-40.7351
-40.7342
-40.7332
-40.732
-40.7307
-40.7293
-40.7279
-40.7264
-40.725
-40.7237
-40.7225
-40.7214
-40.7205
-40.7198
-40.7193
-40.7191
-40.719
-41.6506
-41.6502
-41.6496
-41.6486
-41.6474
-41.6459
-41.6442
-41.6424
-41.6404
-41.6384
-41.6364
-41.6344
-41.6325
-41.6308
-41.6292
-41.6279
-41.6269
-41.6261
-41.6256
-41.6255
-41.3713
-41.3709
-41.37
-41.3687
-41.367
-41.365
-41.3627
-41.3601
-41.3575
-41.3547
-41.3519
-41.3492
-41.3466
-41.3442
-41.342
-41.3401
-41.3386
-41.3375
-41.3368
-41.3365
-42.4403
-42.4397
-42.4385
-42.4367
-42.4344
-42.4317
-42.4285
-42.4251
-42.4215
-42.4177
-42.414
-42.4103
-42.4068
-42.4035
-42.4005
-42.3978
-42.3956
-42.3939
-42.3928
-42.3923
-42.6457
-42.6449
-42.6432
-42.6408
-42.6377
-42.634
-42.6297
-42.625
-42.6201
-42.615
-42.6099
-42.605
-42.6002
-42.5957
-42.5917
-42.5881
-42.585
-42.5825
-42.5807
-42.5797
-58.6802
-58.6797
-58.6787
-58.6773
-58.6754
-58.6732
-58.6707
-58.668
-58.6652
-58.6622
-58.6593
-58.6564
-58.6536
-58.651
-58.6487
-58.6467
-58.645
-58.6437
-58.6427
-58.6422
-58.1312
-58.1309
-58.1301
-58.1291
-58.1277
-58.1261
-58.1242
-58.1222
-58.1201
-58.1179
-58.1157
-58.1135
-58.1114
-58.1095
-58.1078
-58.1063
-58.105
-58.1041
-58.1034
-58.1031
-57.5528
-57.5525
-57.552
-57.5513
-57.5504
-57.5493
-57.5481
-57.5467
-57.5453
-57.5438
-57.5423
-57.5408
-57.5394
-57.5381
-57.5369
-57.5359
-57.535
-57.5344
-57.534
-57.5338
-57.4549
-57.4547
-57.4544
-57.454
-57.4535
-57.4529
-57.4522
-57.4513
-57.4505
-57.4496
-57.4486
-57.4477
-57.4468
-57.446
-57.4452
-57.4446
-57.4441
-57.4437
-57.4434
-57.4434
-57.0299
-57.0298
-57.0295
-57.0291
-57.0286
-57.028
-57.0273
-57.0265
-57.0257
-57.0248
-57.024
-57.0231
-57.0222
-57.0215
-57.0208
-57.0202
-57.0197
-57.0193
-57.0191
-57.019
-57.1125
-57.1124
-57.1122
-57.112
-57.1117
-57.1113
-57.1108
-57.1103
-57.1097
-57.1092
-57.1086
-57.108
-57.1074
-57.1069
-57.1064
-57.106
-57.1057
-57.1055
-57.1053
-57.1053
-56.63
-56.6299
-56.6298
-56.6297
-56.6295
-56.6293
-56.6291
-56.6288
-56.6285
-56.6282
-56.6279
-56.6276
-56.6273
-56.627
-56.6268
-56.6266
-56.6264
-56.6263
-56.6263
-56.6263
-56.7627
-56.7626
-56.7625
-56.7624
-56.7623
-56.7622
-56.762
-56.7618
-56.7615
-56.7613
-56.761
-56.7608
-56.7606
-56.7604
-56.7602
-56.7601
-56.76
-56.76
-56.76
-56.76
-56.4478
-56.4478
-56.4477
-56.4476
-56.4475
-56.4473
-56.4471
-56.4469
-56.4466
-56.4464
-56.4461
-56.4459
-56.4457
-56.4455
-56.4453
-56.4452
-56.4452
-56.4452
-56.4452
-56.4452
-56.5068
-56.5068
-56.5066
-56.5065
-56.5063
-56.5061
-56.5058
-56.5055
-56.5052
-56.5049
-56.5046
-56.5043
-56.5041
-56.5039
-56.5037
-56.5036
-56.5035
-56.5035
-56.5036
-56.5036
-56.5582
-56.5581
-56.558
-56.5578
-56.5576
-56.5574
-56.5571
-56.5568
-56.5564
-56.5561
-56.5558
-56.5555
-56.5552
-56.555
-56.5548
-56.5547
-56.5547
-56.5547
-56.5548
-56.5548
-56.3632
-56.3631
-56.3629
-56.3627
-56.3623
-56.3619
-56.3615
-56.361
-56.3605
-56.36
-56.3595
-56.359
-56.3586
-56.3582
-56.3579
-56.3577
-56.3576
-56.3576
-56.3576
-56.3577
-56.8925
-56.8923
-56.8921
-56.8917
-56.8912
-56.8906
-56.8899
-56.8892
-56.8884
-56.8876
-56.8869
-56.8861
-56.8854
-56.8848
-56.8843
-56.884
-56.8837
-56.8836
-56.8836
-56.8836
-56.469
-56.4688
-56.4685
-56.4679
-56.4672
-56.4664
-56.4654
-56.4644
-56.4633
-56.4622
-56.4611
-56.46
-56.459
-56.4581
-56.4573
-56.4568
-56.4563
-56.4561
-56.456
-56.4559
-57.3386
-57.3384
-57.3379
-57.3371
-57.3362
-57.335
-57.3337
-57.3323
-57.3309
-57.3293
-57.3278
-57.3263
-57.3249
-57.3237
-57.3226
-57.3217
-57.321
-57.3206
-57.3204
-57.3203
-56.9385
-56.9382
-56.9375
-56.9365
-56.9353
-56.9338
-56.9321
-56.9302
-56.9282
-56.9262
-56.9241
-56.9221
-56.9202
-56.9185
-56.917
-56.9157
-56.9147
-56.914
-56.9135
-56.9134
-57.9863
-57.9858
-57.9849
-57.9837
-57.9821
-57.9801
-57.9779
-57.9755
-57.9729
-57.9703
-57.9676
-57.965
-57.9625
-57.9601
-57.9581
-57.9563
-57.9548
-57.9538
-57.9531
-57.9529
-57.9914
-57.9909
-57.9898
-57.9881
-57.986
-57.9835
-57.9807
-57.9775
-57.9742
-57.9707
-57.9672
-57.9638
-57.9605
-57.9574
-57.9546
-57.9521
-57.9501
-57.9485
-57.9475
-57.9471
-59.0799
-59.0792
-59.0777
-59.0756
-59.0729
-59.0697
-59.066
-59.0619
-59.0575
-59.053
-59.0484
-59.0439
-59.0396
-59.0354
-59.0317
-59.0283
-59.0254
-59.0232
-59.0216
-59.0208
-59.8652
-59.8643
-59.8625
-59.8599
-59.8564
-59.8523
-59.8475
-59.8423
-59.8368
-59.831
-59.8252
-59.8194
-59.8138
-59.8085
-59.8036
-59.7992
-59.7953
-59.7921
-59.7897
-59.7883
-74.3184
-74.318
-74.3172
-74.3161
-74.3146
-74.3129
-74.3109
-74.3087
-74.3063
-74.3039
-74.3015
-74.2991
-74.2968
-74.2946
-74.2926
-74.2909
-74.2894
-74.2883
-74.2875
-74.2871
-74.0372
-74.0368
-74.0358
-74.0345
-74.0327
-74.0306
-74.0282
-74.0256
-74.0228
-74.0199
-74.0171
-74.0142
-74.0115
-74.0089
-74.0066
-74.0045
-74.0028
-74.0015
-74.0006
-74.0001
-73.4457
-73.4454
-73.4447
-73.4437
-73.4425
-73.441
-73.4393
-73.4374
-73.4354
-73.4333
-73.4312
-73.4292
-73.4272
-73.4254
-73.4237
-73.4222
-73.421
-73.4201
-73.4195
-73.4192
-73.4787
-73.4784
-73.4779
-73.4771
-73.476
-73.4748
-73.4733
-73.4717
-73.47
-73.4682
-73.4664
-73.4647
-73.463
-73.4614
-73.46
-73.4587
-73.4577
-73.4569
-73.4564
-73.4561
-72.8986
-72.8983
-72.8979
-72.8973
-72.8965
-72.8955
-72.8944
-72.8932
-72.8919
-72.8905
-72.8891
-72.8878
-72.8865
-72.8853
-72.8842
-72.8832
-72.8825
-72.8819
-72.8815
-72.8814
-73.0002
-73.0001
-72.9997
-72.9993
-72.9986
-72.9979
-72.9971
-72.9961
-72.9951
-72.9941
-72.993
-72.992
-72.991
-72.9901
-72.9893
-72.9886
-72.9881
-72.9877
-72.9875
-72.9874
-72.4678
-72.4677
-72.4674
-72.4671
-72.4666
-72.466
-72.4654
-72.4646
-72.4639
-72.4631
-72.4623
-72.4615
-72.4608
-72.4601
-72.4595
-72.459
-72.4587
-72.4584
-72.4583
-72.4583
-72.6142
-72.614
-72.6138
-72.6134
-72.613
-72.6125
-72.6119
-72.6112
-72.6105
-72.6098
-72.609
-72.6083
-72.6077
-72.6071
-72.6066
-72.6062
-72.606
-72.6058
-72.6057
-72.6057
-72.2847
-72.2846
-72.2844
-72.284
-72.2835
-72.283
-72.2824
-72.2817
-72.281
-72.2803
-72.2795
-72.2789
-72.2782
-72.2777
-72.2772
-72.2768
-72.2766
-72.2765
-72.2764
-72.2764
-72.3304
-72.3303
-72.33
-72.3296
-72.3291
-72.3285
-72.3279
-72.3271
-72.3264
-72.3256
-72.3248
-72.3241
-72.3234
-72.3228
-72.3223
-72.322
-72.3218
-72.3217
-72.3216
-72.3216
-72.4299
-72.4297
-72.4294
-72.429
-72.4284
-72.4278
-72.4271
-72.4263
-72.4254
-72.4246
-72.4238
-72.423
-72.4223
-72.4217
-72.4212
-72.4208
-72.4206
-72.4205
-72.4205
-72.4206
-72.2071
-72.2069
-72.2066
-72.206
-72.2053
-72.2045
-72.2036
-72.2026
-72.2016
-72.2005
-72.1995
-72.1985
-72.1976
-72.1968
-72.1962
-72.1957
-72.1954
-72.1952
-72.1952
-72.1952
-72.8035
-72.8032
-72.8027
-72.8021
-72.8012
-72.8002
-72.799
-72.7978
-72.7965
-72.7951
-72.7938
-72.7926
-72.7914
-72.7904
-72.7895
-72.7889
-72.7884
-72.7882
-72.7881
-72.7881
-72.3623
-72.362
-72.3614
-72.3605
-72.3595
-72.3582
-72.3567
-72.3552
-72.3535
-72.3518
-72.3501
-72.3485
-72.347
-72.3457
-72.3445
-72.3436
-72.3429
-72.3425
-72.3423
-72.3422
-73.3097
-73.3093
-73.3086
-73.3076
-73.3063
-73.3047
-73.3029
-73.301
-73.2989
-73.2968
-73.2947
-73.2926
-73.2907
-73.289
-73.2875
-73.2862
-73.2853
-73.2847
-73.2843
-73.2842
-72.8849
-72.8845
-72.8836
-72.8823
-72.8807
-72.8788
-72.8766
-72.8741
-72.8716
-72.8689
-72.8662
-72.8637
-72.8612
-72.8589
-72.8569
-72.8552
-72.8539
-72.8529
-72.8523
-72.8521
-74.0114
-74.0109
-74.0099
-74.0083
-74.0064
-74.004
-74.0013
-73.9984
-73.9952
-73.9919
-73.9887
-73.9854
-73.9823
-73.9795
-73.9769
-73.9746
-73.9728
-73.9715
-73.9706
-73.9703
-73.8617
-73.8611
-73.8598
-73.8579
-73.8555
-73.8526
-73.8493
-73.8456
-73.8417
-73.8377
-73.8336
-73.8295
-73.8256
-73.8219
-73.8185
-73.8155
-73.813
-73.811
-73.8097
-73.8091
-75.006
-75.0052
-75.0037
-75.0014
-74.9985
-74.995
-74.991
-74.9865
-74.9818
-74.9768
-74.9717
-74.9667
-74.9618
-74.9571
-74.9528
-74.9489
-74.9455
-74.9429
-74.941
-74.9399
-75.4873
-75.4864
-75.4845
-75.4817
-75.478
-75.4736
-75.4685
-75.4629
-75.4568
-75.4505
-75.4441
-75.4376
-75.4313
-75.4253
-75.4195
-75.4143
-75.4096
-75.4057
-75.4027
-75.4009
-90.2042
-90.2037
-90.2026
-90.201
-90.1989
-90.1964
-90.1936
-90.1904
-90.1871
-90.1836
-90.1801
-90.1766
-90.1733
-90.1701
-90.1671
-90.1645
-90.1623
-90.1605
-90.1592
-90.1584
-89.8211
-89.8207
-89.8198
-89.8186
-89.817
-89.8151
-89.8129
-89.8104
-89.8078
-89.8052
-89.8024
-89.7998
-89.7972
-89.7947
-89.7925
-89.7906
-89.789
-89.7878
-89.787
-89.7866
-89.2321
-89.2317
-89.231
-89.2298
-89.2283
-89.2265
-89.2245
-89.2222
-89.2198
-89.2173
-89.2148
-89.2123
-89.2099
-89.2077
-89.2056
-89.2039
-89.2024
-89.2013
-89.2005
-89.2001
-89.2253
-89.2249
-89.2242
-89.2232
-89.2219
-89.2203
-89.2185
-89.2166
-89.2144
-89.2123
-89.2101
-89.2079
-89.2058
-89.2039
-89.2021
-89.2006
-89.1993
-89.1984
-89.1977
-89.1974
-88.596
-88.5957
-88.5951
-88.5943
-88.5932
-88.5918
-88.5903
-88.5886
-88.5868
-88.5849
-88.5831
-88.5812
-88.5795
-88.5779
-88.5764
-88.5751
-88.5741
-88.5733
-88.5728
-88.5726
-88.7108
-88.7106
-88.7101
-88.7093
-88.7084
-88.7072
-88.7059
-88.7044
-88.7029
-88.7013
-88.6997
-88.6982
-88.6967
-88.6953
-88.6941
-88.6931
-88.6923
-88.6917
-88.6913
-88.6912
-88.1482
-88.148
-88.1475
-88.1469
-88.146
-88.145
-88.1439
-88.1426
-88.1412
-88.1399
-88.1385
-88.1371
-88.1359
-88.1347
-88.1337
-88.1329
-88.1323
-88.1318
-88.1315
-88.1314
-88.3011
-88.3009
-88.3005
-88.2998
-88.299
-88.298
-88.2969
-88.2957
-88.2944
-88.293
-88.2917
-88.2904
-88.2893
-88.2882
-88.2873
-88.2865
-88.286
-88.2856
-88.2854
-88.2853
-87.9738
-87.9735
-87.9731
-87.9724
-87.9716
-87.9706
-87.9694
-87.9682
-87.9669
-87.9655
-87.9642
-87.963
-87.9618
-87.9607
-87.9598
-87.9591
-87.9586
-87.9583
-87.9581
-87.9581
-88.0058
-88.0056
-88.0051
-88.0044
-88.0035
-88.0024
-88.0013
-88
-87.9986
-87.9972
-87.9959
-87.9946
-87.9934
-87.9923
-87.9914
-87.9907
-87.9902
-87.9899
-87.9898
-87.9898
-88.1509
-88.1506
-88.1501
-88.1493
-88.1484
-88.1472
-88.146
-88.1446
-88.1431
-88.1417
-88.1402
-88.1388
-88.1376
-88.1365
-88.1356
-88.1349
-88.1344
-88.1341
-88.134
-88.134
-87.9103
-87.91
-87.9094
-87.9085
-87.9074
-87.9061
-87.9046
-87.903
-87.9014
-87.8997
-87.898
-87.8964
-87.8949
-87.8936
-87.8926
-87.8917
-87.8911
-87.8908
-87.8906
-87.8906
-88.5555
-88.5551
-88.5544
-88.5534
-88.5521
-88.5506
-88.5489
-88.5471
-88.5451
-88.5431
-88.5412
-88.5393
-88.5376
-88.5361
-88.5348
-88.5338
-88.533
-88.5326
-88.5324
-88.5323
-88.1176
-88.1172
-88.1164
-88.1153
-88.1138
-88.112
-88.11
-88.1078
-88.1055
-88.1032
-88.1009
-88.0986
-88.0965
-88.0947
-88.0931
-88.0918
-88.0908
-88.0901
-88.0898
-88.0897
-89.1084
-89.1079
-89.107
-89.1056
-89.1039
-89.1019
-89.0995
-89.097
-89.0943
-89.0916
-89.0888
-89.0862
-89.0837
-89.0814
-89.0795
-89.0778
-89.0766
-89.0757
-89.0752
-89.075
-88.7087
-88.7081
-88.707
-88.7055
-88.7035
-88.7011
-88.6983
-88.6953
-88.6921
-88.6889
-88.6856
-88.6824
-88.6793
-88.6765
-88.674
-88.6719
-88.6702
-88.6689
-88.6682
-88.6678
-89.861
-89.8604
-89.8592
-89.8574
-89.8551
-89.8523
-89.8491
-89.8456
-89.8419
-89.8381
-89.8342
-89.8304
-89.8267
-89.8233
-89.8202
-89.8175
-89.8153
-89.8137
-89.8126
-89.8122
-89.7596
-89.7589
-89.7575
-89.7554
-89.7527
-89.7495
-89.7457
-89.7416
-89.7372
-89.7326
-89.728
-89.7233
-89.7188
-89.7146
-89.7106
-89.7072
-89.7042
-89.7019
-89.7004
-89.6996
-90.8896
-90.8888
-90.8871
-90.8848
-90.8817
-90.8779
-90.8736
-90.8688
-90.8637
-90.8583
-90.8528
-90.8472
-90.8418
-90.8367
-90.8318
-90.8274
-90.8236
-90.8206
-90.8185
-90.8172
-91.4649
-91.464
-91.4621
-91.4592
-91.4554
-91.4508
-91.4455
-91.4396
-91.4332
-91.4265
-91.4196
-91.4127
-91.4058
-91.399
-91.3926
-91.3867
-91.3814
-91.3768
-91.3734
-91.3712
-105.802
-105.801
-105.8
-105.798
-105.796
-105.793
-105.789
-105.786
-105.782
-105.778
-105.774
-105.77
-105.766
-105.762
-105.758
-105.755
-105.752
-105.75
-105.749
-105.748
-105.39
-105.39
-105.389
-105.388
-105.386
-105.384
-105.381
-105.378
-105.376
-105.372
-105.369
-105.366
-105.363
-105.361
-105.358
-105.356
-105.354
-105.353
-105.352
-105.351
-104.775
-104.774
-104.773
-104.772
-104.77
-104.768
-104.766
-104.763
-104.76
-104.758
-104.755
-104.752
-104.749
-104.746
-104.744
-104.742
-104.74
-104.739
-104.738
-104.737
-104.774
-104.773
-104.772
-104.771
-104.77
-104.768
-104.765
-104.763
-104.76
-104.758
-104.755
-104.752
-104.75
-104.747
-104.745
-104.743
-104.742
-104.741
-104.74
-104.739
-104.115
-104.115
-104.114
-104.113
-104.111
-104.11
-104.108
-104.105
-104.103
-104.101
-104.098
-104.096
-104.093
-104.091
-104.089
-104.088
-104.086
-104.085
-104.085
-104.084
-104.242
-104.242
-104.241
-104.24
-104.239
-104.237
-104.235
-104.233
-104.231
-104.229
-104.226
-104.224
-104.222
-104.22
-104.219
-104.217
-104.216
-104.215
-104.214
-104.214
-103.667
-103.666
-103.666
-103.665
-103.663
-103.662
-103.66
-103.658
-103.656
-103.654
-103.652
-103.65
-103.648
-103.646
-103.645
-103.644
-103.643
-103.642
-103.641
-103.641
-103.822
-103.822
-103.821
-103.82
-103.819
-103.817
-103.816
-103.814
-103.812
-103.81
-103.808
-103.806
-103.804
-103.802
-103.801
-103.8
-103.799
-103.798
-103.798
-103.798
-103.508
-103.507
-103.507
-103.506
-103.504
-103.503
-103.501
-103.499
-103.497
-103.495
-103.493
-103.491
-103.489
-103.488
-103.486
-103.485
-103.484
-103.483
-103.483
-103.483
-103.529
-103.529
-103.528
-103.527
-103.526
-103.524
-103.522
-103.52
-103.518
-103.516
-103.514
-103.512
-103.51
-103.509
-103.507
-103.506
-103.505
-103.505
-103.504
-103.504
-103.713
-103.712
-103.712
-103.71
-103.709
-103.707
-103.705
-103.703
-103.701
-103.699
-103.697
-103.695
-103.693
-103.691
-103.69
-103.688
-103.688
-103.687
-103.687
-103.687
-103.464
-103.463
-103.463
-103.461
-103.46
-103.458
-103.456
-103.454
-103.451
-103.449
-103.446
-103.444
-103.442
-103.44
-103.438
-103.437
-103.436
-103.436
-103.435
-103.435
-104.141
-104.14
-104.139
-104.138
-104.136
-104.134
-104.132
-104.129
-104.127
-104.124
-104.121
-104.119
-104.116
-104.114
-104.112
-104.111
-104.11
-104.109
-104.109
-104.109
-103.715
-103.714
-103.713
-103.712
-103.71
-103.708
-103.705
-103.702
-103.699
-103.696
-103.693
-103.69
-103.687
-103.685
-103.683
-103.681
-103.68
-103.679
-103.678
-103.678
-104.723
-104.722
-104.721
-104.719
-104.717
-104.715
-104.712
-104.709
-104.705
-104.702
-104.698
-104.695
-104.692
-104.689
-104.687
-104.685
-104.683
-104.682
-104.681
-104.681
-104.343
-104.342
-104.341
-104.339
-104.337
-104.334
-104.33
-104.327
-104.323
-104.319
-104.315
-104.311
-104.308
-104.304
-104.301
-104.299
-104.296
-104.295
-104.294
-104.293
-105.496
-105.495
-105.493
-105.491
-105.489
-105.485
-105.482
-105.478
-105.474
-105.469
-105.465
-105.46
-105.456
-105.452
-105.448
-105.445
-105.443
-105.441
-105.439
-105.439
-105.39
-105.39
-105.388
-105.386
-105.383
-105.379
-105.375
-105.371
-105.366
-105.361
-105.355
-105.35
-105.345
-105.34
-105.336
-105.332
-105.329
-105.326
-105.324
-105.323
-106.496
-106.495
-106.493
-106.49
-106.487
-106.483
-106.479
-106.473
-106.468
-106.462
-106.456
-106.45
-106.445
-106.439
-106.434
-106.429
-106.425
-106.421
-106.419
-106.418
-107.038
-107.037
-107.035
-107.032
-107.028
-107.024
-107.018
-107.012
-107.005
-106.998
-106.991
-106.984
-106.976
-106.969
-106.962
-106.956
-106.95
-106.945
-106.941
-106.939
-121.202
-121.202
-121.2
-121.198
-121.196
-121.193
-121.189
-121.185
-121.181
-121.177
-121.172
-121.168
-121.163
-121.159
-121.155
-121.152
-121.149
-121.147
-121.145
-121.145
-120.785
-120.784
-120.783
-120.781
-120.779
-120.777
-120.774
-120.771
-120.767
-120.764
-120.76
-120.756
-120.753
-120.75
-120.747
-120.744
-120.742
-120.74
-120.739
-120.739
-120.144
-120.143
-120.142
-120.141
-120.139
-120.136
-120.133
-120.13
-120.127
-120.123
-120.12
-120.117
-120.113
-120.11
-120.107
-120.105
-120.103
-120.101
-120.1
-120.099
-120.142
-120.142
-120.141
-120.139
-120.137
-120.135
-120.132
-120.129
-120.126
-120.122
-120.119
-120.116
-120.113
-120.11
-120.107
-120.105
-120.103
-120.101
-120.1
-120.1
-119.468
-119.468
-119.467
-119.465
-119.463
-119.461
-119.458
-119.455
-119.452
-119.449
-119.446
-119.443
-119.44
-119.437
-119.435
-119.433
-119.431
-119.43
-119.429
-119.428
-119.6
-119.6
-119.599
-119.598
-119.596
-119.594
-119.591
-119.588
-119.585
-119.582
-119.579
-119.576
-119.574
-119.571
-119.569
-119.567
-119.565
-119.564
-119.563
-119.563
-119.024
-119.024
-119.023
-119.022
-119.02
-119.018
-119.015
-119.013
-119.01
-119.007
-119.004
-119.001
-118.999
-118.996
-118.994
-118.992
-118.991
-118.99
-118.989
-118.989
-119.18
-119.179
-119.178
-119.177
-119.175
-119.173
-119.17
-119.168
-119.165
-119.162
-119.159
-119.157
-119.154
-119.152
-119.15
-119.148
-119.146
-119.145
-119.145
-119.144
-118.884
-118.883
-118.882
-118.881
-118.879
-118.877
-118.874
-118.872
-118.869
-118.866
-118.863
-118.86
-118.858
-118.856
-118.853
-118.852
-118.85
-118.849
-118.849
-118.848
-118.899
-118.898
-118.897
-118.896
-118.894
-118.892
-118.889
-118.887
-118.884
-118.881
-118.878
-118.875
-118.873
-118.87
-118.868
-118.866
-118.865
-118.864
-118.864
-118.863
-119.113
-119.113
-119.112
-119.11
-119.108
-119.106
-119.103
-119.101
-119.098
-119.095
-119.092
-119.089
-119.086
-119.084
-119.081
-119.08
-119.078
-119.077
-119.077
-119.077
-118.865
-118.865
-118.864
-118.862
-118.86
-118.858
-118.855
-118.852
-118.849
-118.845
-118.842
-118.839
-118.836
-118.833
-118.831
-118.829
-118.828
-118.827
-118.826
-118.826
-119.56
-119.559
-119.558
-119.556
-119.554
-119.551
-119.548
-119.545
-119.542
-119.538
-119.535
-119.531
-119.528
-119.525
-119.523
-119.521
-119.519
-119.518
-119.517
-119.517
-119.154
-119.153
-119.152
-119.15
-119.147
-119.145
-119.141
-119.138
-119.134
-119.13
-119.126
-119.123
-119.119
-119.116
-119.113
-119.111
-119.109
-119.108
-119.107
-119.107
-120.161
-120.16
-120.158
-120.156
-120.154
-120.151
-120.147
-120.143
-120.139
-120.135
-120.131
-120.127
-120.123
-120.119
-120.116
-120.114
-120.111
-120.11
-120.109
-120.109
-119.807
-119.806
-119.805
-119.802
-119.8
-119.796
-119.792
-119.788
-119.784
-119.779
-119.774
-119.77
-119.765
-119.761
-119.758
-119.755
-119.752
-119.75
-119.749
-119.748
-120.941
-120.94
-120.938
-120.936
-120.933
-120.929
-120.925
-120.92
-120.915
-120.91
-120.905
-120.9
-120.895
-120.891
-120.886
-120.883
-120.88
-120.878
-120.876
-120.876
-120.85
-120.849
-120.848
-120.845
-120.842
-120.838
-120.833
-120.828
-120.823
-120.817
-120.811
-120.806
-120.8
-120.795
-120.79
-120.785
-120.782
-120.779
-120.777
-120.776
-121.917
-121.916
-121.914
-121.911
-121.908
-121.904
-121.899
-121.893
-121.887
-121.881
-121.875
-121.869
-121.862
-121.856
-121.851
-121.846
-121.841
-121.838
-121.835
-121.834
-122.469
-122.468
-122.466
-122.463
-122.459
-122.454
-122.449
-122.442
-122.436
-122.428
-122.421
-122.413
-122.405
-122.397
-122.39
-122.383
-122.377
-122.372
-122.368
-122.366
-136.393
-136.392
-136.39
-136.388
-136.386
-136.382
-136.379
-136.374
-136.37
-136.365
-136.361
-136.356
-136.351
-136.347
-136.343
-136.339
-136.336
-136.334
-136.333
-136.332
-135.982
-135.982
-135.981
-135.979
-135.976
-135.973
-135.97
-135.966
-135.962
-135.958
-135.954
-135.95
-135.945
-135.942
-135.938
-135.935
-135.933
-135.931
-135.929
-135.929
-135.331
-135.33
-135.329
-135.327
-135.324
-135.321
-135.318
-135.314
-135.311
-135.306
-135.302
-135.298
-135.294
-135.291
-135.287
-135.284
-135.282
-135.28
-135.279
-135.278
-135.33
-135.329
-135.328
-135.326
-135.324
-135.321
-135.318
-135.314
-135.31
-135.306
-135.302
-135.298
-135.294
-135.291
-135.287