/*--------------------------------*- C++ -*----------------------------------*\
| =========                 |                                                 |
| \\      /  F ield         | OpenFOAM: The Open Source CFD Toolbox           |
|  \\    /   O peration     | Version:  2212                                  |
|   \\  /    A nd           | Website:  www.openfoam.com                      |
|    \\/     M anipulation  |                                                 |
\*---------------------------------------------------------------------------*/
FoamFile
{
    version     2.0;
    format      ascii;
    arch        "LSB;label=32;scalar=64";
    class       surfaceScalarField;
    location    "0.014";
    object      phi;
}
// * * * * * * * * * * * * * * * * * * * * * * * * * * * * * * * * * * * * * //

dimensions      [1 0 -1 0 0 0 0];

oriented        oriented;

internalField   nonuniform List<scalar> 
4475
(
0.000995985
-0.0010324
0.000885815
-0.00084158
4.23838e-05
7.7979e-05
-2.81327e-05
-8.83671e-05
0.00141693
-0.00161406
0.000149313
4.98158e-05
-0.000173528
0.000553056
0.000188865
-0.000563848
-0.000853727
0.000794716
0.000826865
-0.000762283
0.000791804
-0.000700079
-0.000854153
0.000766851
-0.000187055
0.000146337
0.00125886
-0.00121251
-0.000781884
-0.000870348
0.000894324
0.000763153
0.000776285
-0.000881017
-0.000742568
-0.000994526
-1.43054e-05
0.000135094
0.000878276
-0.000168426
0.000160447
-0.000980717
-0.00108869
0.000153071
-7.49842e-05
0.00101669
-0.00111159
4.87636e-05
-1.63377e-05
-0.00112441
1.97806e-05
3.8722e-06
-0.00112912
7.43513e-06
5.23005e-06
-0.00112261
3.11324e-06
-3.57837e-06
7.76932e-06
-0.00108047
-4.4843e-05
0.00105355
-7.82071e-05
-0.00102474
5.36463e-05
0.00112403
-5.78279e-05
0.00113402
-1.08344e-06
0.00112878
2.06527e-05
0.00111811
4.25287e-05
0.00110999
6.663e-05
0.00119662
7.39587e-05
0.00103731
-2.45245e-06
0.000964423
6.37713e-05
0.00119835
0.0001672
-0.000396053
0.00111835
1.53058e-05
6.94353e-05
0.00127952
-0.00126127
-0.000199346
-0.00105283
-0.000101311
0.00108844
1.99449e-06
3.25225e-05
0.00107144
-6.53782e-06
2.79398e-05
0.00106431
-1.4387e-05
2.65242e-05
0.00106208
-1.93579e-05
2.79715e-05
0.00106842
-2.99746e-05
3.22701e-05
0.00107674
-3.33681e-05
3.54e-05
0.0010859
-3.62513e-05
3.69424e-05
0.00109304
-3.74449e-05
3.85329e-05
0.00109595
-3.4333e-05
3.6522e-05
0.00109532
-3.09937e-05
3.5527e-05
0.00109109
-2.92065e-05
3.46522e-05
0.00108352
-2.44892e-05
3.38335e-05
0.00106592
-1.76779e-05
2.91238e-05
0.00104746
-1.37291e-05
2.27554e-05
-1.00505e-05
0.00103569
1.38827e-05
-0.00103463
0.001017
-7.50508e-08
-0.00105434
-3.29435e-06
-0.0010711
-1.03806e-05
-0.00108177
-1.2879e-05
-0.00108919
-2.09281e-05
-0.00109071
-2.58673e-05
-0.00108885
-3.1622e-05
-0.00108989
-2.8723e-05
-0.00108098
-3.43848e-05
-0.00107001
-3.24981e-05
-0.00106808
-2.24324e-05
-0.00106865
-1.28081e-05
-0.00107805
-2.062e-07
-0.00109156
1.15189e-05
-0.00112212
3.70215e-05
-0.00119482
9.24789e-05
-0.000949184
0.000243182
-0.000484167
-0.00100785
0.000198383
-0.000983911
0.000141508
-0.00101871
7.78357e-05
-3.82958e-05
-0.00109936
1.11857e-05
-0.00111879
1.34539e-05
-0.00113062
2.482e-05
-0.0011341
1.60226e-05
-0.00112063
-1.14912e-05
-0.00111227
-4.83178e-05
3.8868e-07
6.84597e-06
0.0010216
3.46314e-06
0.00100789
0.00114232
-0.000106103
-0.00108846
0.00114744
-1.27548e-07
0.00114153
3.44881e-05
0.00113017
6.42507e-05
0.00113358
7.60594e-05
0.00114086
7.40262e-05
0.00108542
5.92107e-05
0.00106925
8.56804e-05
0.00112593
0.00011572
0.00111267
8.74665e-05
0.00108883
6.12884e-05
0.00107323
4.79589e-05
0.0010639
4.08588e-05
0.00106204
3.60949e-05
0.00106626
3.64045e-05
0.00107398
3.78923e-05
0.00108494
3.60643e-05
0.00109329
3.82284e-05
0.00109713
3.81427e-05
0.0010977
3.92258e-05
0.00109615
3.83254e-05
0.00109142
4.00451e-05
0.001081
3.77671e-05
0.00106383
3.14741e-05
0.00104753
2.23321e-05
-0.000113705
-0.00102957
0.000122739
1.18119e-05
0.00103516
-0.000204016
-0.000958536
-0.00108421
-0.000124784
-0.001004
0.000996585
6.01974e-06
-0.00101952
8.45746e-06
-0.0010337
2.03074e-06
-0.00105857
2.27862e-06
-0.001069
-3.12953e-06
-0.00107749
-1.08952e-05
-0.0010845
-1.59602e-05
-0.00109196
-1.78655e-05
-0.00108845
-2.3732e-05
-0.00108329
-2.80148e-05
-0.00107918
-2.35636e-05
-0.00107537
-1.72149e-05
-0.00107893
-3.44567e-06
-0.00108725
1.26949e-05
-0.00110338
3.2104e-05
-0.00112312
6.12101e-05
-0.00113399
0.000107489
-0.0010548
0.000168628
-0.00102564
0.000174142
-0.00103293
0.000153945
-0.0010554
0.000105314
-0.00109989
6.0855e-05
-0.00112503
4.92079e-05
-0.00113869
4.71213e-05
-0.00115091
3.57043e-05
-0.00115169
-4.73515e-06
-0.00113927
-5.54352e-05
-0.000989457
0.00122588
-0.00101269
0.000597457
-0.00098343
-0.000429504
0.00081925
-0.000690391
-0.000556974
0.00074464
0.000505088
0.000702052
0.00129416
9.94592e-05
-0.000200939
-0.00118653
0.00117724
1.72463e-05
0.00115811
2.49782e-05
0.00114194
5.71707e-05
0.00113817
7.72199e-05
0.00114285
8.50937e-05
0.00113919
8.56991e-05
0.00111754
8.67969e-05
0.00110751
0.000101523
0.00111722
0.000111354
0.00111107
9.88366e-05
0.0010964
8.10812e-05
0.00108301
6.61269e-05
0.0010747
5.43892e-05
0.00106939
4.76879e-05
0.00107253
4.12151e-05
0.00108125
3.89202e-05
0.00108833
3.92128e-05
0.00109622
3.9315e-05
0.00109979
4.03313e-05
0.00110309
4.0604e-05
0.00109988
4.46495e-05
0.00109482
4.66194e-05
0.00109053
4.35641e-05
0.00107967
3.7443e-05
0.00106374
3.03497e-05
0.00104724
2.01877e-05
-5.72957e-06
0.00103629
9.97124e-06
9.82222e-07
0.00102274
7.19928e-06
0.00101065
1.10254e-05
0.00100019
-0.000839888
0.000816437
-0.000841173
0.000989971
1.4737e-05
-0.000907583
-0.00115669
0.00108133
-0.000638693
0.00140301
0.000499167
-0.00125871
-0.00025673
-0.00102733
0.000803213
-0.000628593
0.00102198
-0.00119041
0.00085202
0.000801421
-0.000852514
-0.00128879
-1.44284e-05
0.000278014
-0.00113819
-0.00012083
4.97592e-06
1.76619e-06
0.00102449
9.45598e-06
0.0010142
1.40247e-05
0.00100287
1.51412e-05
0.000996611
1.62658e-05
0.000987293
-0.000982983
1.733e-05
0.000981464
-0.000982577
1.23081e-05
-0.000993741
1.37626e-05
-0.0010014
1.02797e-05
-0.00101991
1.27182e-05
-0.0010383
9.57581e-06
-0.00105402
7.22608e-06
-0.00106256
5.55379e-07
-0.00107354
-2.01007e-06
-0.00108236
-3.30198e-06
-0.00108938
-8.67733e-06
-0.00108842
-1.46372e-05
-0.00108242
-1.42351e-05
-0.00108337
-7.83969e-06
-0.00108848
7.18969e-06
-0.00109568
2.43836e-05
-0.00110881
4.92881e-05
-0.00111924
7.57098e-05
-0.00111806
0.000110387
-0.0010899
0.000145093
-0.00107664
0.000166054
-0.00106519
0.000147887
-0.00108288
0.000128195
-0.00111564
9.88577e-05
-0.00113499
7.96747e-05
-0.00115137
7.38782e-05
-0.00116774
6.03774e-05
-0.00118627
2.0351e-05
-4.4959e-05
-0.00119094
8.02782e-05
-7.02509e-05
-0.00119878
0.00119394
0.000923832
-0.000934071
0.00085535
-0.000838409
0.000831653
-0.000804111
0.000804829
0.00110326
-9.91734e-05
0.000227317
0.00120493
7.64297e-05
-0.000172726
0.00124257
0.000114336
0.00124292
0.000110946
-0.000105885
0.00123285
9.58984e-05
0.00123757
9.31017e-05
-9.21343e-05
0.00125419
8.89343e-05
0.00121175
6.57995e-05
0.00118065
6.20509e-05
0.0011593
8.48581e-05
0.00115526
9.04158e-05
0.00115939
9.38456e-05
0.00115399
9.85682e-05
0.00113839
0.000108214
0.00113045
0.000115777
0.00112849
0.000119012
0.00112125
0.000111293
0.00110858
9.89671e-05
0.00109635
8.34883e-05
0.00108942
6.64715e-05
0.00108243
6.03434e-05
0.00108438
4.67468e-05
0.00108868
4.43841e-05
0.00109559
4.34984e-05
0.00110051
4.44372e-05
0.00110649
4.09287e-05
0.0011055
4.76283e-05
0.00110226
5.23188e-05
0.00110125
4.99733e-05
0.001099
4.75277e-05
0.0010908
4.58363e-05
0.00107767
3.56633e-05
0.00106369
2.52701e-05
0.00105065
1.51846e-05
5.52968e-06
0.00104085
5.31269e-05
0.00150709
-0.00120388
-0.000355916
-0.00108116
0.000983347
-0.00109245
0.00112011
0.000664764
-0.000686654
-4.45385e-05
0.000303708
3.42287e-05
-0.00028734
-0.00159834
-0.000223409
0.00052831
0.00129589
-0.000844311
-0.000945626
-0.000236609
-0.00115368
-0.00114754
-0.000113476
0.0011954
-0.000970181
0.000973108
1.50066e-05
-0.00097555
1.66435e-05
-0.000976543
1.25907e-05
-0.000990246
1.95712e-05
-0.00100157
1.74888e-05
-0.00101852
1.7179e-05
-0.0010374
1.7386e-05
-0.00104961
1.57825e-05
-0.00106499
1.57454e-05
-0.00107476
1.25826e-05
-0.00108708
1.01353e-05
-0.00109011
3.72825e-06
-0.00108564
-1.10967e-06
-0.0010905
6.772e-06
-0.00109665
1.911e-05
-0.00110615
3.86373e-05
-0.00111299
6.03968e-05
-0.00111963
8.673e-05
-0.00111863
0.000113894
-0.00110811
0.000139617
-0.00109723
0.000160568
-0.00109112
0.000147478
-0.00110562
0.000148414
-0.00113226
0.000131036
-0.00115417
0.000109443
-0.0011661
9.7907e-05
-0.0011836
8.69055e-05
-0.00120332
4.71343e-05
-0.00123369
-8.40068e-06
-0.000104614
-0.00120149
-0.000843285
-0.00069671
0.000917639
-0.000632893
-0.00115589
0.00113413
0.000659342
0.0012146
4.26147e-06
-0.00131203
0.00124506
5.19962e-05
0.00126398
0.000101033
0.00126228
0.000117847
0.00125719
0.000106171
0.00125321
0.000102265
0.0012479
9.98743e-05
0.0012256
9.38853e-05
0.00119653
9.71638e-05
0.00118441
0.000103687
0.00118066
0.000103773
0.00117854
0.00011007
0.00116699
0.000117934
0.00115472
0.000126571
0.00114646
0.000130522
0.00114008
0.00013148
0.00113261
0.000124599
0.00112457
0.000111857
0.00111678
9.66944e-05
0.0011056
8.29977e-05
0.00110155
6.97127e-05
0.00109657
5.85112e-05
0.00109897
5.17655e-05
0.00110246
5.13974e-05
0.00111018
4.79173e-05
0.00110929
5.11127e-05
0.00110661
5.77948e-05
0.00110778
5.71908e-05
0.00110702
5.42241e-05
0.00110039
5.61296e-05
0.00109592
5.23185e-05
0.00108613
3.88349e-05
0.00107159
2.99827e-05
0.00105958
1.86339e-05
0.00104722
1.12571e-05
4.11643e-07
4.43409e-06
0.00103833
5.25595e-06
0.00103228
1.03916e-05
0.00101646
1.46376e-05
0.001008
1.42493e-05
0.00100223
1.93124e-05
0.000991271
2.20674e-05
0.000984865
2.22236e-05
0.000981798
0.000976941
1.88674e-05
-0.00111809
-0.00064636
0.000677119
-9.55313e-05
0.000125903
-0.00142235
0.00139393
-0.000907516
0.000708355
-0.001238
0.00143856
-0.00103359
-0.0008853
0.00106606
0.000846129
-0.000907715
-0.000487904
0.000330725
0.000916472
-0.00124443
-8.82551e-05
-0.000191527
-0.00124173
-0.000771591
-0.000736049
0.000670207
-0.000800204
-0.000744725
0.000517706
-0.000941942
0.000676226
-0.000869959
0.00114233
0.00079269
0.00089645
0.0012337
-0.0012212
-3.20163e-06
0.0012356
5.63491e-05
0.00125142
9.05799e-05
0.0012566
0.000117606
0.00125323
0.000114159
0.00124589
0.000114433
0.00123552
0.000115516
0.00122039
0.00011479
0.00120612
0.000118337
0.00120181
0.000117075
0.00119621
0.000122054
0.00118521
0.000131126
0.00117264
0.000136875
0.00116206
0.000143291
0.0011538
0.000145926
0.0011471
0.000144867
0.00114094
0.000136919
0.00113426
0.000123825
0.00112444
0.000111627
0.00111566
9.69058e-05
0.00110927
8.13771e-05
0.00110571
6.88974e-05
0.0011055
6.29674e-05
0.00111213
5.78997e-05
0.00111245
6.0121e-05
0.00110609
6.60391e-05
0.001108
6.44978e-05
0.00110947
6.31989e-05
0.00110339
6.45629e-05
0.0010983
6.35856e-05
0.00109944
5.37007e-05
0.00108654
4.50909e-05
0.00107388
3.23488e-05
0.00106198
2.1732e-05
0.00105054
1.59528e-05
0.00104103
1.00846e-05
-3.70369e-07
5.89695e-06
0.00103406
4.34383e-06
0.00103208
1.23998e-05
0.00102289
1.09686e-05
0.00101709
1.26762e-05
0.00100609
1.85291e-05
0.000996603
2.11518e-05
0.00098907
2.00789e-05
0.000986499
2.19402e-05
0.000981018
2.15601e-05
0.000979215
-0.000969506
0.000973171
1.93884e-05
-0.0009666
1.74058e-05
-0.000966572
1.58853e-05
-0.000965869
1.62447e-05
-0.000971431
1.72657e-05
-0.000973535
1.9023e-05
-0.0009829
2.1901e-05
-0.000997114
2.40679e-05
-0.00101649
2.55564e-05
-0.00103225
3.24217e-05
-0.00104598
3.24219e-05
-0.00106049
3.24947e-05
-0.00107437
3.10498e-05
-0.00108494
2.81387e-05
-0.00108597
1.86177e-05
-0.00109089
2.27402e-05
-0.00109836
3.35526e-05
-0.00110707
5.20621e-05
-0.00111479
7.26026e-05
-0.00111975
9.6714e-05
-0.00112103
0.000120062
-0.00111791
0.000141977
-0.00111631
0.000164779
-0.00111586
0.000153642
-0.00112789
0.000167536
-0.00114261
0.000153094
-0.00116298
0.00013827
-0.00118123
0.000129399
-0.00119469
0.000109772
-0.00122178
8.15052e-05
1.82143e-05
-0.00124194
-0.000823321
-0.00072598
0.000858835
-0.000164709
-0.00126627
-0.00138301
-0.000201562
0.000347294
-4.04919e-05
-0.000786302
-0.000779378
0.000886846
-0.000795188
-0.000829971
0.000869165
-0.000861815
-0.000850164
0.000778107
-0.000853902
-0.000592122
0.000818488
-4.15877e-05
0.000228138
0.00120134
-7.82761e-05
-0.00116038
0.00118818
1.47614e-05
0.00118837
6.13155e-05
0.00119466
8.9584e-05
0.00121048
0.000107014
0.00121539
0.000114311
0.00121781
0.000117434
0.00121272
0.000126714
0.00120627
0.000127964
0.00119878
0.000133517
0.00118968
0.000136729
0.00118003
0.00014186
0.00116968
0.000149692
0.00115917
0.000155452
0.00115056
0.000159985
0.00114391
0.000160594
0.00113914
0.000157157
0.00113256
0.00015021
0.00112693
0.000135424
0.00112023
0.00012401
0.00111365
0.000108606
0.00110855
9.1839e-05
0.00110429
7.9619e-05
0.00110332
7.30874e-05
0.0011045
7.11351e-05
0.0011024
7.65935e-05
0.00110255
7.51562e-05
0.00110276
7.35417e-05
0.0010982
7.60015e-05
0.00109281
7.40514e-05
0.00109369
6.54081e-05
0.00109075
5.92386e-05
0.00108312
4.52904e-05
0.00107087
3.39541e-05
0.0010562
2.76673e-05
0.00104607
1.97084e-05
0.00103875
1.43789e-05
0.00103295
1.0681e-05
-1.3633e-06
0.00102772
7.26517e-06
4.68957e-06
0.0010279
9.31128e-06
0.00102713
1.24628e-05
0.0010195
1.89361e-05
0.00101076
1.91676e-05
0.00100648
1.9961e-05
0.000996933
1.94642e-05
0.000991224
2.2164e-05
0.000985911
2.12217e-05
0.00098387
2.25053e-05
0.000979306
2.20342e-05
0.00097715
-0.000968779
0.000975154
2.08377e-05
-0.000964485
1.77695e-05
-0.000961083
1.58756e-05
-0.000959091
1.53157e-05
-0.000957367
1.58379e-05
-0.000957183
1.72982e-05
-0.000959485
2.05917e-05
-0.000965025
2.45486e-05
-0.000975415
2.93802e-05
-0.000992601
3.45645e-05
-0.00100829
4.07811e-05
-0.00102065
4.90754e-05
-0.00103586
5.11775e-05
-0.00104998
5.36072e-05
-0.00106285
5.32246e-05
-0.00107234
4.51786e-05
-0.00107772
4.31261e-05
-0.00109008
5.318e-05
-0.00109733
6.56583e-05
-0.00110469
8.45963e-05
-0.00110921
0.000106617
-0.0011115
0.000127946
-0.00111244
0.000148719
-0.00110914
0.000167993
-0.00111808
0.000169607
-0.00112204
0.000180056
-0.00113396
0.000173641
-0.00114636
0.000159635
-0.00116138
0.000155195
-0.00117931
0.000139002
-0.00119748
0.000109422
5.30374e-05
-0.00122483
-0.00126051
-6.39116e-05
-0.000787927
-0.000765385
-0.000746746
-0.000816602
0.000843728
0.000628474
0.00131006
-0.00128489
-0.000652855
-0.00126824
-0.00015174
-0.000927697
-0.000702754
0.000478859
-0.000922997
-0.000850567
-0.000852018
-0.000927138
-5.00979e-05
-0.000386619
-0.000943625
-0.000388055
-0.000992328
9.66456e-05
-0.00126948
-0.000193712
-0.00081242
-0.000762858
-0.000728696
-0.000946552
1.80372e-06
5.59468e-06
0.00102212
6.16358e-06
0.00102542
1.17645e-05
0.00102327
1.66487e-05
0.00101636
1.82573e-05
0.0010111
2.2153e-05
0.00100477
2.19197e-05
0.000999368
2.36046e-05
0.000991368
2.27001e-05
0.000988261
2.40794e-05
0.000984698
2.53542e-05
0.000982721
2.47131e-05
0.000983446
2.22178e-05
0.000983004
-0.000974451
2.06284e-05
0.000981231
-0.000965626
1.71963e-05
-0.000959702
1.67088e-05
-0.000954846
1.34972e-05
-0.000952254
1.47666e-05
-0.000949724
1.47986e-05
-0.000947062
1.61116e-05
-0.000946999
2.08351e-05
-0.000948295
2.49488e-05
-0.000954422
3.22409e-05
-0.000964875
3.93112e-05
-0.000980634
4.77113e-05
-0.000990724
5.75723e-05
-0.00100204
6.62262e-05
-0.00101582
7.22112e-05
-0.00103032
7.55748e-05
-0.00104279
7.41939e-05
-0.00104783
7.05816e-05
-0.00105606
7.36483e-05
-0.00106728
8.38758e-05
-0.00107573
9.80891e-05
-0.00108058
0.000116819
-0.00108285
0.00013602
-0.00108265
0.000154834
-0.00107965
0.000172221
-0.00107818
0.000176202
-0.0010858
0.000196707
-0.00108556
0.000182367
-0.00109613
0.000180004
-0.00110022
0.000169376
-0.00110768
0.000157635
-0.00112282
0.000135069
9.43831e-05
-0.00115539
-3.32967e-05
-0.00124919
0.000802386
-0.000749761
-0.000852151
-0.000751188
-0.000810032
0.000161611
-7.54501e-05
0.000124543
-0.000206773
0.00153613
2.7282e-06
-0.00149038
-4.62156e-05
0.00106062
2.60714e-05
-0.00106746
0.00106918
5.73174e-05
0.00108527
7.84813e-05
0.00110355
9.40923e-05
0.00111606
0.000107553
0.00112642
0.000113369
0.00113211
0.000128138
0.00113444
0.000133697
0.00113504
0.000142493
0.0011324
0.000149338
0.0011289
0.000155572
0.00112519
0.000163717
0.00112039
0.000170186
0.00111627
0.000173305
0.00111278
0.00017262
0.00111018
0.000167913
0.00110905
0.000158416
0.00110423
0.000146839
0.0011006
0.000133715
0.00109601
0.000118015
0.00109067
0.000101725
0.00108431
9.17193e-05
0.00108002
8.69949e-05
0.00108394
8.59143e-05
0.00108943
8.81275e-05
0.00108304
9.0894e-05
0.00108008
8.59767e-05
0.00107881
8.52093e-05
0.00108008
7.65638e-05
0.00107821
6.92702e-05
0.00107831
5.95718e-05
0.00106792
4.50407e-05
0.00105234
3.96662e-05
0.00104146
3.11415e-05
0.00103378
2.27121e-05
0.00102969
1.70351e-05
0.00102479
1.54185e-05
0.00102233
1.15146e-05
0.00101879
1.03578e-05
-0.000762821
-0.000822939
0.000845398
-0.000797735
-0.000778013
0.00121473
-5.69916e-05
9.80687e-05
-0.00125518
-0.0010661
-0.00024952
-0.000467811
-0.0012393
-0.000217542
-0.000969268
0.000975967
1.89992e-05
-0.00096321
1.64168e-05
-0.000954836
1.35905e-05
-0.00094991
1.33932e-05
-0.000944678
1.17123e-05
-0.000941914
1.42944e-05
-0.000939234
1.50148e-05
-0.000935203
1.82887e-05
-0.000934913
2.47573e-05
-0.000934131
3.02774e-05
-0.000938512
4.02049e-05
-0.000945888
4.90548e-05
-0.000956718
6.00669e-05
-0.000961486
7.22896e-05
-0.000969316
8.34861e-05
-0.000981414
9.14634e-05
-0.000991084
9.51856e-05
-0.000998487
9.56476e-05
-0.00100181
9.84727e-05
-0.0010062
0.000104566
-0.00101364
0.000113583
-0.00101743
0.000127783
-0.0010188
0.000143362
-0.00101631
0.000159257
-0.00101127
0.000174436
-0.00101147
0.000185025
-0.000999561
0.000194518
-0.000993776
0.000187152
-0.000990628
0.0001876
-0.000986827
0.000176701
-0.000980749
0.000161703
-0.000981745
0.000146559
-0.00100519
0.000127638
1.25234e-05
-0.00119366
0.000875701
-0.000735801
0.000667543
-0.000830986
-0.000677367
-3.47706e-06
8.89208e-06
0.00101726
1.01536e-06
0.00101911
6.14851e-06
0.00102132
1.30748e-05
0.00101766
1.56869e-05
0.0010152
1.67667e-05
0.00101154
1.94259e-05
0.00100363
2.39366e-05
0.000996679
2.37343e-05
0.000994509
2.54904e-05
0.000991313
2.68066e-05
0.000989519
2.51331e-05
0.000990577
2.44038e-05
0.000989984
2.38642e-05
0.000988872
2.22602e-05
0.000987828
1.81173e-05
0.000984886
0.000967594
-0.000784658
-0.000928604
0.000890211
-0.000983418
0.000912428
-0.000942901
0.000875038
-0.000808628
-0.000676905
-0.000831626
0.000757691
0.00087074
-0.000442846
-0.00123576
-9.02133e-06
1.18945e-05
-4.50267e-05
4.45825e-05
-0.000102201
-0.000333136
0.000266133
0.000845191
2.99919e-05
-0.0008454
0.000860475
4.61359e-05
0.000881982
6.11493e-05
0.000907331
7.33025e-05
0.000935513
8.46774e-05
0.000956893
9.88957e-05
0.000978205
0.000113829
0.000993502
0.000126709
0.00100758
0.000138665
0.00101855
0.00014866
0.00102694
0.000158149
0.00103415
0.000167562
0.00104065
0.000174615
0.00104598
0.000177935
0.00105093
0.000176636
0.00105463
0.000172441
0.00105603
0.000164001
0.00105609
0.000152536
0.00105538
0.000140052
0.00105201
0.000126259
0.00104637
0.000113626
0.00104266
0.000107581
0.0010435
0.000103619
0.00104732
0.000100502
0.00105035
0.00010138
0.00105109
0.000100886
0.00105037
9.35617e-05
0.00105634
8.6277e-05
0.00105557
7.85186e-05
0.00105838
6.94344e-05
0.00105261
5.64525e-05
0.00103764
4.99308e-05
0.00103009
3.95851e-05
0.00102442
3.18766e-05
0.00101961
2.5433e-05
0.00101384
2.28162e-05
0.00101283
1.77562e-05
0.00101226
1.38419e-05
0.0010121
1.34367e-05
0.00101568
1.16965e-05
8.55998e-05
0.00121912
-8.92828e-05
-0.00016223
-0.00123282
-0.000798677
0.000437642
-0.000771545
-0.000853136
0.000868249
-0.000750004
-0.000851479
-0.000773757
-0.000820883
-0.00128743
-0.000151871
0.00138297
0.00142876
-5.38475e-05
-0.00132099
0.00097124
-0.000233202
-0.00125043
0.000134739
-0.00111617
0.000913857
0.000657133
-0.000696266
-0.000600299
-0.0011392
0.000625962
3.71158e-05
-0.000166417
-0.000145487
0.000277618
-1.55326e-05
-0.00146461
-0.000102502
0.00158402
-0.000972916
0.000978975
1.65865e-05
-0.000965606
1.65688e-05
-0.000957439
1.34241e-05
-0.000951179
1.26664e-05
-0.000943527
1.11063e-05
-0.000938401
1.14815e-05
-0.0009325
1.0881e-05
-0.000928949
1.37896e-05
-0.000925532
1.64559e-05
-0.000920542
2.11915e-05
-0.000917747
2.76224e-05
-0.000914427
3.58063e-05
-0.000914228
4.55043e-05
-0.00091645
5.6776e-05
-0.000920715
6.92906e-05
-0.000920178
8.3445e-05
-0.000921155
9.65105e-05
-0.000926213
0.000105531
-0.000930658
0.000110519
-0.000930773
0.000114734
-0.000928298
0.000122789
-0.000924377
0.000129315
-0.000922445
0.000138131
-0.000918824
0.000150045
-0.000911565
0.000161619
-0.00089994
0.000172428
-0.000887217
0.000182381
-0.000873265
0.000190919
-0.000857233
0.000182608
-0.000840405
0.000182083
-0.000823183
0.000170825
-0.00080722
0.000156499
-0.000792693
0.000142283
-0.000779261
0.000123362
0.000118725
-0.000754847
0.000960772
-0.000725281
-0.00114303
0.00102372
-0.000906292
0.00101947
-0.000832389
-0.00132351
-7.17072e-06
1.05374e-05
0.00101853
-2.38701e-06
0.00101886
1.16726e-06
0.00102108
6.77902e-06
0.00101929
1.02902e-05
0.00101677
1.36922e-05
0.00101422
1.90312e-05
0.00100908
2.28853e-05
0.00100383
2.33512e-05
0.00100195
2.58933e-05
0.000998643
2.75429e-05
0.000996467
2.71769e-05
0.000996506
2.71124e-05
0.000996886
2.70203e-05
0.000995763
2.5137e-05
0.000995844
2.31838e-05
0.000994449
2.23636e-05
0.000990112
1.91323e-05
0.000986365
-0.000749264
0.000900334
-0.000990597
0.000841019
-0.000877474
0.000738052
-0.000700624
0.000573932
-0.000507909
-0.000428422
0.000415172
-2.93174e-05
-3.05031e-05
0.000871183
-0.000882786
0.000590571
1.64885e-05
-0.000561525
-4.23416e-05
0.00060524
1.87229e-05
0.00062766
2.7646e-05
0.000654084
3.85325e-05
0.000683578
4.80687e-05
0.000714083
5.93288e-05
0.000743893
7.56903e-05
0.000771885
9.29982e-05
0.000798064
0.000108759
0.000823172
0.000122799
0.000846259
0.000135648
0.000867605
0.000147662
0.000888139
0.00015802
0.000907565
0.00016614
0.000924775
0.000171403
0.000939708
0.000171776
0.000952455
0.000169083
0.000962265
0.000162801
0.000969201
0.000153793
0.000973785
0.000144276
0.000975889
0.000133663
0.0009782
0.000124914
0.000984014
0.000120157
0.000993482
0.000113347
0.00100163
0.00010949
0.00100575
0.000109863
0.00100866
0.000104221
0.00101414
9.30428e-05
0.00101956
8.3962e-05
0.00102428
7.51579e-05
0.00102003
6.50067e-05
0.00100996
5.75722e-05
0.00100548
4.75863e-05
0.00100117
3.96265e-05
0.000999581
3.18986e-05
0.000996262
2.89352e-05
0.000998177
2.24876e-05
0.000999731
1.79081e-05
0.0010002
1.7099e-05
0.00100629
1.37022e-05
0.00101091
1.32428e-05
0.00101566
1.15474e-05
0.000995744
-0.000821335
-0.000955057
-0.000168551
-0.00117996
0.000914922
-0.000729975
-0.000892708
0.000917724
-0.000814285
0.000795806
-0.000874096
-0.00078285
0.000770674
-0.000771879
-0.000867366
-0.00121482
-0.000229648
-0.000898794
-0.000846514
-0.000774024
-0.000830056
-0.00083582
0.00153935
-0.00149169
-6.20018e-05
0.000862011
-0.000983735
0.000774945
-0.000647458
-0.00153754
0.001389
-7.27116e-05
0.000928361
-0.000567446
0.000500697
1.35263e-05
-0.000625516
0.00102413
0.000565989
0.00124507
-0.0012245
7.81717e-05
8.69209e-05
0.00124472
0.000546497
8.05529e-05
0.000573073
0.000106068
0.00060168
0.000124203
0.00062932
0.000140335
0.000658379
0.000153449
0.000687453
0.000165339
0.000710498
0.000172026
0.000739893
0.000173866
0.000762244
0.000172196
0.000780307
0.000166428
0.000796457
0.00015977
0.000813006
0.000152397
0.000828665
0.000143729
0.000841062
0.000135587
0.000850467
0.000126592
0.000856529
0.000118079
0.000861328
0.000111876
0.000868165
0.000102017
0.000874213
8.81063e-05
0.000877301
7.39532e-05
0.000881066
6.09776e-05
0.000886516
4.88408e-05
0.000892451
3.86396e-05
0.000898917
2.99826e-05
0.000905235
2.26788e-05
0.00091098
1.74413e-05
0.000916015
1.33809e-05
0.000922095
1.08916e-05
0.000928906
9.36255e-06
0.000935854
1.00095e-05
0.00094361
8.80173e-06
0.000950477
1.10045e-05
0.000957236
1.15813e-05
0.000965213
1.31688e-05
0.000971307
1.47432e-05
0.000979098
1.52807e-05
8.93176e-05
0.00123665
-0.000105773
-7.27286e-06
9.24489e-06
0.00101889
-4.75923e-06
0.00102178
-2.56586e-06
0.00102276
1.68439e-06
0.00102313
6.78728e-06
0.00102057
1.0338e-05
0.0010194
1.6089e-05
0.00101457
2.01552e-05
0.00101144
2.18849e-05
0.00100896
2.45445e-05
0.0010063
2.6641e-05
0.00100356
2.71136e-05
0.00100286
2.7154e-05
0.00100298
2.7927e-05
0.00100211
2.70771e-05
0.00100197
2.55156e-05
0.00100216
2.50739e-05
0.000999207
2.23524e-05
0.000996895
2.1105e-05
0.000991475
1.75978e-05
0.000986344
0.00104316
-0.000769061
-0.000254563
-0.00102283
-0.000852893
0.00094009
0.000835702
0.000363868
0.00143285
-0.00109662
-0.000699785
0.000235957
-0.00115924
0.000142772
-0.00116175
9.61338e-05
-0.00117747
0.00122457
5.57225e-05
-0.00118388
0.0012325
7.10391e-05
0.00124119
7.92545e-05
-0.000125357
0.00017379
0.00119392
0.000138518
-7.39217e-05
6.31301e-05
0.00120459
-0.00118149
-8.51169e-05
0.000810919
0.000833276
-0.000776574
0.00077326
0.000795843
-0.000963405
-0.000600878
0.00091543
-0.000897622
-0.00082878
0.000918409
-0.000881395
-0.000792812
-0.000770394
-0.000876652
-0.000271207
-0.00117093
0.000976283
-0.00084777
-0.000945751
7.90658e-05
-3.57218e-05
0.000912855
-0.00087267
0.00076506
-0.000723982
0.000598202
-0.000528541
0.000472282
-0.000376999
-0.000258324
0.000306971
-0.000378626
0.000665076
0.000133498
0.000127036
-6.12345e-05
-9.33638e-05
3.01196e-05
0.00037354
1.40544e-05
-3.68745e-05
-0.000347305
0.000390019
2.90551e-06
0.00040744
3.9844e-06
0.000427603
1.07027e-05
0.000450397
1.92516e-05
0.000474815
2.77687e-05
0.000500356
3.87537e-05
0.000527879
5.4399e-05
0.000557307
7.09421e-05
0.000587986
8.65255e-05
0.000618869
0.0001013
0.00064992
0.000114864
0.000680683
0.000127923
0.000710662
0.000139714
0.000739556
0.000148596
0.000767599
0.000154937
0.000792883
0.000157685
0.000815462
0.000157334
0.000834521
0.000154024
0.000850942
0.000148489
0.000866503
0.000142558
0.000883287
0.000135064
0.000900843
0.000127384
0.000917586
0.000120503
0.0009328
0.000112309
0.000942103
0.000110115
0.00094927
0.000107956
0.000958205
9.87357e-05
0.000967524
8.77177e-05
0.000969293
7.80428e-05
0.000968002
6.79962e-05
0.000966422
6.00795e-05
0.000967214
5.2154e-05
0.00096851
4.40966e-05
0.000970411
3.71411e-05
0.000971393
3.20238e-05
0.000974737
2.74098e-05
0.000979635
1.99171e-05
0.000984006
1.89072e-05
0.000992263
1.50875e-05
0.000999124
1.2768e-05
0.00100452
1.33269e-05
0.00101053
1.04985e-05
0.00101524
9.035e-06
0.000876732
0.000789987
-0.00088641
0.000867624
0.000826313
-0.000717008
0.000818837
0.00077024
-0.00139965
0.000146046
0.00143717
-0.000181163
0.000666176
-0.000545601
-0.000253159
-0.00114934
-6.82891e-05
0.00143057
5.67036e-05
0.000669555
0.000498928
-0.000498719
0.000167767
0.00129944
-0.000283
-0.00118257
-0.000872347
-0.000797754
-0.00085696
-0.000771929
-0.000863076
0.000835423
-0.00090213
0.000899115
0.000898383
-0.00078844
-0.000896824
0.000911011
0.00120982
-0.000894888
0.00149772
0.000119545
-7.6224e-05
-0.00132075
0.000259575
0.00123636
0.000981399
-0.000766868
-0.00114234
-0.000805205
-0.000457143
0.000721541
-0.000661068
-0.00130966
6.92932e-05
-0.00129448
5.67044e-05
-0.00124416
5.68958e-06
0.000335653
5.68615e-05
0.000371006
8.07881e-05
0.000404802
0.000101832
0.000439016
0.000118665
0.000474484
0.000131626
0.000512032
0.00014118
0.000548499
0.000150796
0.00058526
0.000153133
0.000619437
0.000156574
0.000652613
0.000153873
0.000683624
0.000149889
0.000711764
0.000142073
0.000734651
0.000134169
0.000754913
0.000125742
0.000772857
0.00011605
0.000789572
0.000107188
0.000805612
9.82665e-05
0.000815984
8.58701e-05
0.000826755
7.24015e-05
0.000837796
5.98934e-05
0.000848689
4.86995e-05
0.000859347
3.84156e-05
0.000869335
2.9894e-05
0.000878647
2.26684e-05
0.000886174
1.71055e-05
0.000893643
1.28895e-05
0.000902103
9.91458e-06
0.000910245
8.1045e-06
0.000917927
7.05962e-06
0.000926482
6.73431e-06
0.000932891
7.4848e-06
0.000940419
8.26009e-06
0.000948698
7.78218e-06
0.000955621
1.04096e-05
0.000963709
1.05735e-05
0.00097034
1.23639e-05
0.000979196
1.23704e-05
-0.000297654
-0.000131927
0.000176215
-0.000460655
-0.000208951
-0.000644092
-0.000339747
-0.000850395
-0.000512306
-0.00103178
-0.000685751
-0.00114661
-0.000785751
-0.00128895
0.000925369
0.000895495
-0.000638795
0.00106041
-0.000798579
0.000738709
-0.000860066
0.000930535
0.000856094
0.000866028
-6.03457e-05
0.00122099
3.45122e-05
7.15825e-05
0.00122949
0.000726242
-0.000963807
-0.000643979
-0.000758539
-0.000902778
0.00125555
-0.000427006
0.000279418
-0.00110476
4.42376e-06
-0.00131825
3.31807e-06
-0.000863563
0.00106538
-0.000854469
0.000329786
-0.000263654
-0.00112203
0.00105567
-0.00136071
-7.82173e-06
0.00126716
-0.000728611
-0.0012447
-8.43565e-06
8.04323e-06
0.00101977
-7.62637e-06
0.00102278
-4.91396e-06
0.00102427
-1.51312e-06
0.00102496
3.01884e-06
0.00102459
7.12799e-06
0.00102266
1.26018e-05
0.00102031
1.61313e-05
0.00101756
1.86113e-05
0.00101566
2.20489e-05
0.00101236
2.45358e-05
0.00101071
2.57387e-05
0.00100921
2.6687e-05
0.00100849
2.74439e-05
0.00100838
2.7571e-05
0.00100761
2.69915e-05
0.00100755
2.74448e-05
0.00100611
2.56961e-05
0.00100495
2.36316e-05
0.00100271
2.05254e-05
0.00099818
1.68223e-05
0.000993591
1.35625e-05
0.000985993
0.000308517
-0.00107569
0.000222376
-0.00107308
0.000148324
-0.00108762
8.6635e-05
-0.00111575
3.70502e-05
-0.00113433
-8.67382e-06
-0.0011986
-0.00143316
8.04289e-05
-0.000265295
-0.00100498
-0.000868074
0.000964493
0.000771727
0.000671451
-0.000421722
0.00035334
0.000571216
-4.90319e-05
0.000110278
-2.05686e-05
0.00010896
0.00131353
-0.00127148
7.72714e-05
0.0012966
-0.000910872
-0.000811868
-0.00163436
0.000556242
-0.00117537
0.00128928
-0.000762986
-0.000879358
0.00134682
8.05057e-05
-0.00111529
-0.00029964
0.00033969
-0.000567098
-0.00125666
-0.000210615
-0.000783843
-0.000870514
0.000119439
-1.20703e-05
-2.94851e-05
-7.55899e-05
0.000162849