/*--------------------------------*- C++ -*----------------------------------*\
| =========                 |                                                 |
| \\      /  F ield         | OpenFOAM: The Open Source CFD Toolbox           |
|  \\    /   O peration     | Version:  2212                                  |
|   \\  /    A nd           | Website:  www.openfoam.com                      |
|    \\/     M anipulation  |                                                 |
\*---------------------------------------------------------------------------*/
FoamFile
{
    version     2.0;
    format      ascii;
    arch        "LSB;label=32;scalar=64";
    class       surfaceScalarField;
    location    "0.00253";
    object      phi;
}
// * * * * * * * * * * * * * * * * * * * * * * * * * * * * * * * * * * * * * //

dimensions      [1 0 -1 0 0 0 0];

oriented        oriented;

internalField   nonuniform List<scalar> 
5190
(
-2.79172e-05
-2.29344e-05
2.70455e-05
2.34582e-05
2.69004e-05
3.16318e-05
-4.26984e-05
-3.09244e-05
-9.52393e-06
-5.54185e-05
5.335e-06
4.37558e-05
-9.32475e-06
7.99542e-06
1.76286e-06
1.49916e-07
8.4886e-05
1.22967e-05
-0.000111061
-1.06161e-05
-4.77146e-05
3.25691e-05
3.84944e-05
-4.28261e-05
-1.43251e-06
3.27027e-06
1.53899e-06
-2.77544e-06
-3.37175e-06
3.49478e-06
-7.49569e-06
7.99306e-06
8.51323e-06
-8.22014e-06
-4.09573e-06
4.41095e-06
8.83492e-06
-4.86359e-06
5.14002e-06
-2.9106e-06
2.28803e-06
-8.03048e-06
-9.94327e-06
8.69288e-06
-8.30674e-06
9.91653e-06
8.08014e-06
-1.00325e-05
-7.59643e-06
-1.53236e-05
1.4832e-05
-1.24773e-05
1.27769e-05
-1.00332e-05
-8.83666e-06
1.10838e-05
8.16035e-06
-1.2737e-05
-1.12132e-05
1.25336e-05
1.18551e-05
-1.21056e-05
-1.204e-05
1.31208e-05
1.10545e-05
7.70642e-06
-3.63738e-06
3.14293e-06
-6.76516e-06
7.70887e-06
-4.05165e-06
4.54633e-06
-4.72267e-06
6.46193e-06
6.49023e-06
1.05553e-05
-3.78138e-06
4.60501e-06
-1.08247e-05
-1.04894e-05
1.04117e-05
-7.24429e-06
7.76173e-06
-1.05583e-05
-6.24876e-06
6.80431e-06
-5.27369e-06
5.79967e-06
-1.02476e-05
9.24393e-06
8.62351e-06
-6.50966e-06
7.38894e-06
-4.04023e-06
8.14619e-06
-7.4041e-06
-2.97044e-06
-4.17354e-06
6.38908e-06
-7.85381e-06
7.95e-06
-4.36152e-06
-4.03671e-06
-8.6573e-06
9.61841e-06
-4.25228e-06
-4.38515e-06
4.12374e-06
-9.87759e-06
9.97302e-06
-5.83974e-06
-5.01038e-06
-6.83744e-06
1.23211e-05
-5.97567e-06
7.34451e-06
-1.31227e-05
1.19265e-05
-8.18071e-06
9.14857e-06
-9.6913e-06
1.20274e-05
1.01822e-05
1.08039e-05
-1.08462e-05
-9.10799e-06
1.06602e-05
-1.15368e-05
1.22558e-05
1.09002e-05
-9.93912e-06
-6.42254e-06
-7.60051e-06
9.08872e-06
-9.03811e-06
-6.33913e-06
6.84195e-06
-6.23909e-06
5.89167e-06
2.75876e-05
3.73152e-05
-4.7417e-05
-2.77856e-05
-5.54611e-06
5.94753e-06
-7.82526e-06
-3.60722e-06
3.84149e-06
-2.15844e-06
-6.5472e-06
7.29802e-06
2.03316e-06
7.32691e-06
-6.78672e-06
-2.97158e-06
3.01565e-06
-3.25096e-06
1.08284e-05
1.24871e-05
-1.20423e-05
-1.25091e-05
1.25037e-05
-7.74116e-06
3.56152e-06
8.28558e-06
-7.23294e-06
-3.11046e-06
3.187e-06
9.41064e-06
-9.41631e-06
-7.14573e-06
9.32379e-06
-7.82308e-06
-2.34681e-06
-6.809e-06
2.39879e-06
-2.70714e-06
2.7583e-06
-6.2714e-06
-6.55164e-06
7.03624e-06
-2.8833e-06
-2.62137e-06
-6.06862e-06
-8.44358e-06
8.97205e-06
4.55749e-06
3.20033e-06
-1.07617e-05
1.07109e-05
5.28044e-06
5.27868e-06
-1.09657e-05
1.11316e-05
7.10731e-06
6.07492e-06
-1.10365e-05
1.00731e-05
9.98618e-06
8.29513e-06
-6.62406e-07
-1.90872e-06
2.57474e-06
4.91567e-07
1.23164e-05
7.39524e-06
1.25863e-05
-1.22123e-05
1.03554e-05
1.11883e-05
1.17035e-05
8.12053e-06
-1.18682e-05
9.17988e-06
-8.65646e-06
1.01445e-05
-3.11435e-07
1.2848e-06
-6.03806e-07
2.04358e-07
-1.07705e-05
1.34073e-05
-1.82385e-05
1.12474e-05
-9.00478e-05
-1.0612e-05
6.96062e-05
-7.18993e-06
7.31702e-06
-3.62685e-06
7.399e-06
-6.97181e-06
-2.76185e-06
-3.37936e-06
-7.55348e-06
7.86991e-06
-4.19955e-06
-3.77516e-06
-8.12529e-06
8.85238e-06
-4.48356e-06
-4.16813e-06
-9.19974e-06
9.38862e-06
-5.48513e-06
-4.82672e-06
-6.35218e-06
8.79095e-06
-9.56506e-06
-7.82843e-06
-8.28724e-06
6.01647e-06
9.62327e-06
-9.185e-06
-6.31618e-06
-7.02282e-06
8.90253e-06
-8.84817e-06
-5.81519e-06
-5.96089e-06
8.62355e-06
-8.42875e-06
-4.48046e-06
-5.18411e-06
7.96795e-06
-7.53595e-06
-3.42144e-06
-3.9639e-06
-3.14387e-06
-2.80846e-06
2.86576e-06
-6.71189e-06
7.0011e-06
-6.47634e-06
9.42959e-06
-8.36089e-06
-8.17201e-06
1.00593e-05
1.4204e-05
-1.57168e-05
-9.07249e-06
1.23928e-05
-1.03115e-05
1.22213e-05
-6.43607e-06
-2.2364e-06
-6.32211e-06
6.76953e-06
-2.76346e-06
-5.85837e-06
-2.50066e-06
1.42521e-05
-1.46964e-05
1.08775e-05
-1.16294e-05
1.39812e-05
1.212e-05
-1.05991e-05
1.34669e-05
-1.15877e-05
1.24275e-05
9.34759e-06
-8.51183e-06
-7.58959e-06
7.15854e-06
-7.25502e-06
9.29455e-06
1.1787e-05
-1.33542e-05
1.02965e-05
-7.77463e-06
-6.90726e-06
7.48957e-06
2.85051e-06
2.54603e-06
-2.54967e-06
-6.12842e-06
2.52368e-06
-6.31753e-06
9.88864e-06
7.82959e-06
-1.01176e-05
-7.18793e-06
1.50585e-05
-1.3438e-05
-1.37655e-05
1.2258e-05
-1.28237e-05
1.22996e-05
-0.000169335
-4.12955e-05
9.15823e-05
9.21554e-05
9.1863e-06
-8.92576e-06
9.61719e-06
1.07125e-05
1.18722e-05
2.12544e-06
-2.01536e-06
-5.91029e-06
3.90074e-05
-5.09073e-05
-1.29319e-05
-6.20531e-06
2.18555e-05
1.50433e-05
-2.23552e-05
-1.52363e-05
1.61843e-05
-1.32067e-05
1.17495e-05
-8.96481e-06
8.69195e-06
2.61125e-06
2.30873e-06
-8.37477e-06
-9.12122e-06
9.95806e-06
4.27812e-06
3.33453e-06
-1.08664e-05
1.12256e-05
5.46819e-06
4.92723e-06
-1.15971e-05
1.19417e-05
7.19156e-06
6.1975e-06
-1.22135e-05
1.28218e-05
9.791e-06
8.42156e-06
1.08844e-05
1.29606e-05
-1.27547e-05
1.04401e-05
1.15357e-05
1.2474e-05
8.30473e-06
-1.22553e-05
9.22234e-06
-1.17874e-05
1.66358e-05
7.27503e-06
-1.93964e-05
1.54434e-05
-2.35348e-05
1.43731e-05
-8.05823e-06
3.58145e-06
8.62063e-06
3.1815e-06
-6.52144e-06
6.88393e-06
-2.50559e-06
6.09995e-06
-1.79189e-06
-5.69856e-06
-2.03027e-06
-7.0391e-06
7.21134e-06
-3.24762e-06
-2.94833e-06
-7.43353e-06
7.52746e-06
-3.79972e-06
-3.47838e-06
-8.02419e-06
8.21167e-06
-4.18585e-06
-4.18405e-06
-8.68258e-06
8.77487e-06
-5.01917e-06
-4.77543e-06
-8.88838e-06
8.74357e-06
-6.4915e-06
-5.90121e-06
-8.69215e-06
8.6363e-06
-7.84277e-06
-7.2967e-06
-1.32952e-05
1.2019e-05
1.64515e-05
-8.56455e-06
8.73425e-06
8.71452e-06
-8.93669e-06
-7.09764e-06
-7.63903e-06
8.89866e-06
-8.73014e-06
-5.92266e-06
-6.52685e-06
8.46314e-06
-8.49784e-06
-5.20141e-06
-5.65383e-06
8.37144e-06
-8.08626e-06
-4.19729e-06
-4.73849e-06
7.71424e-06
-7.21021e-06
-3.30568e-06
-3.73814e-06
-2.99242e-06
-2.45086e-06
2.502e-06
-5.7399e-06
2.35598e-06
-5.36493e-06
-2.23825e-06
-5.56677e-06
-5.9417e-06
2.82148e-06
1.17214e-06
-2.44552e-06
-9.98884e-07
7.48891e-07
-1.35929e-06
7.10884e-06
-5.93992e-06
-5.55081e-06
7.79407e-06
-9.76778e-07
-1.333e-05
1.3559e-05
1.35155e-05
-1.25544e-05
1.31905e-05
-1.33591e-05
1.36149e-05
-1.01445e-05
1.22995e-05
9.97601e-06
9.93667e-06
-9.81427e-06
-1.08562e-05
1.20715e-05
5.7562e-06
-5.64428e-06
-1.25555e-06
-8.9824e-06
1.00508e-05
1.12276e-05
-8.57348e-06
1.03556e-05
-7.14485e-06
7.79072e-06
2.73986e-06
-6.50151e-06
2.42649e-06
-1.18398e-05
1.2971e-05
-1.18426e-05
1.25087e-05
-2.02783e-06
1.9791e-06
-5.24406e-06
-2.14867e-06
-4.95902e-06
0.00299772
1.43501e-07
-0.00275035
2.63782e-06
2.47025e-07
0.00313227
2.67564e-06
-0.00299763
0.00313244
3.05337e-06
-0.00275029
2.96599e-06
-2.02509e-06
2.15972e-06
-4.88141e-06
-5.16969e-06
5.64431e-06
-2.09547e-06
-4.70098e-06
-1.87387e-06
-6.10579e-06
4.35587e-06
-1.0214e-05
1.24414e-05
-1.41695e-05
1.36859e-05
1.32151e-06
3.11937e-06
-1.114e-06
-5.89255e-06
-1.68048e-06
6.80594e-06
-2.92275e-05
-2.73154e-05
2.85256e-05
2.72267e-05
3.84727e-05
3.07179e-05
-5.11748e-05
-2.82672e-05
6.40474e-05
2.08143e-05
-1.64823e-05
-8.4398e-05
1.09788e-05
1.16767e-05
2.39961e-05
2.69865e-05
-5.48903e-06
1.87925e-06
-6.53922e-06
2.31759e-05
1.18675e-05
-2.88593e-05
-7.88961e-06
8.50043e-06
2.20359e-06
-2.2108e-06
1.59725e-06
-1.79061e-06
-8.90619e-06
9.2879e-06
2.79808e-06
2.49429e-06
-9.78973e-06
1.05263e-05
4.08842e-06
3.38081e-06
-1.12639e-05
1.1844e-05
5.36653e-06
4.70227e-06
-1.23588e-05
1.28519e-05
7.07232e-06
6.10789e-06
-1.3424e-05
1.41449e-05
9.42891e-06
8.20491e-06
-1.48857e-05
1.46697e-05
1.13517e-05
1.04908e-05
1.27472e-05
1.37292e-05
-1.36082e-05
1.02456e-05
1.17634e-05
1.32606e-05
-1.27395e-05
7.90462e-06
8.89448e-06
1.204e-05
-1.12156e-05
6.21611e-06
-6.73023e-06
7.05991e-06
-7.55618e-06
1.04315e-05
-9.71058e-06
4.5592e-06
-4.79562e-06
5.30938e-06
-5.69293e-06
9.03831e-06
-8.41464e-06
3.48758e-06
3.94244e-06
-4.09116e-06
3.08282e-06
0.00322212
2.64962e-07
2.42151e-06
0.00327746
5.18034e-07
2.11391e-06
0.00306294
7.94378e-07
1.04744e-06
0.00165786
9.15815e-07
-1.32437e-08
0.00111505
1.71652e-06
-4.97715e-07
0.000827284
2.80986e-06
-1.65717e-06
0.000651447
3.92378e-06
-3.55737e-06
0.000524519
5.82595e-06
-4.79599e-06
0.000425869
8.11608e-06
-7.39431e-06
9.75168e-06
0.000348034
-1.00314e-05
0.000349845
-0.00042624
8.71446e-06
0.00028479
1.00802e-05
-1.11886e-05
1.09825e-05
0.00023269
-1.30104e-05
-0.00028771
0.000236913
7.44112e-06
8.41729e-06
0.00052329
-0.000650431
7.4917e-06
7.9569e-06
0.000827077
-0.00111457
3.87436e-06
5.35495e-06
0.00165823
-0.00306328
2.45631e-06
3.34755e-06
0.00327749
-0.00322197
3.01896e-06
3.00178e-06
3.15745e-06
-6.18304e-06
6.53198e-06
-2.26566e-06
-1.8596e-06
-6.78327e-06
7.00985e-06
-2.91711e-06
-2.61011e-06
-7.24042e-06
7.40358e-06
-3.44231e-06
-3.17365e-06
-7.49556e-06
7.82335e-06
-4.03222e-06
-3.77729e-06
-8.07767e-06
8.33857e-06
-4.74214e-06
-4.52988e-06
-8.28354e-06
8.25672e-06
-5.92054e-06
-5.28753e-06
-8.13985e-06
7.98574e-06
-7.14247e-06
-6.62428e-06
-2.23448e-05
2.1823e-05
-2.96211e-05
-7.68043e-06
7.61016e-06
-9.23984e-06
1.08085e-05
-7.12034e-06
9.10393e-06
-8.73938e-06
-8.41401e-06
-8.92794e-06
9.55507e-06
1.02228e-05
-1.03957e-05
8.55429e-06
8.24141e-06
-5.99844e-06
-9.6984e-06
8.36605e-06
-8.22769e-06
-7.22205e-06
-7.62586e-06
8.39178e-06
-8.44984e-06
-6.4982e-06
-6.9638e-06
8.43658e-06
-8.25773e-06
-5.5359e-06
-5.98945e-06
8.20822e-06
-8.10799e-06
-4.71516e-06
-5.11963e-06
7.96377e-06
-7.70494e-06
-3.87793e-06
-4.31305e-06
7.3581e-06
-6.93655e-06
-3.12483e-06
-3.48371e-06
6.51888e-06
-6.09776e-06
-2.60786e-06
-2.83233e-06
-2.35289e-06
-2.24674e-06
2.3066e-06
-5.201e-06
-5.04441e-06
-2.32831e-06
2.30693e-06
-5.51968e-06
-5.36872e-06
-2.25314e-06
2.14651e-06
-5.84388e-06
-5.68986e-06
-1.78169e-05
-2.74894e-05
2.59681e-05
1.81116e-05
-4.03876e-05
4.30916e-05
-1.26996e-05
9.41778e-06
-1.1111e-05
1.18499e-05
1.0541e-05
9.98461e-06
-1.01245e-05
1.05223e-05
1.08003e-05
-1.132e-05
1.2026e-05
-4.5499e-06
-2.5925e-06
-1.40555e-05
1.73123e-05
1.03816e-05
9.72883e-08
2.27143e-06
-0.00244596
2.46468e-06
-0.00244584
5.54755e-06
-1.06575e-06
-5.18215e-06
-7.7e-05
-4.73207e-05
3.247e-05
8.63872e-05
0.000347814
-0.000426035
-1.0184e-05
0.000283497
-1.10129e-05
-1.27268e-05
1.25391e-05
-0.000166501
-3.53316e-05
5.60159e-05
0.000111489
9.98822e-06
9.24881e-06
1.19434e-05
-1.22818e-05
1.30579e-05
1.18727e-06
-1.44694e-06
-5.13674e-06
1.23304e-06
-5.12285e-06
-0.00244573
0.00274966
5.35093e-06
1.64221e-06
9.21281e-08
-0.00209873
3.63068e-06
-0.00209904
-1.91177e-06
1.9954e-06
-4.34591e-06
-1.7621e-06
-4.2293e-06
-5.01892e-06
5.4464e-06
-1.90486e-06
-4.55464e-06
-1.71682e-06
-8.79647e-06
0.000192382
5.1273e-06
0.000193033
-1.55724e-05
1.03882e-05
4.44874e-06
-1.00859e-05
1.0552e-05
5.57642e-06
-5.41962e-06
-1.39379e-05
1.44128e-05
1.42958e-05
9.46741e-06
6.37127e-06
-9.68978e-06
-5.84026e-06
1.00804e-05
7.97613e-06
4.74388e-05
2.03204e-05
-1.7885e-05
2.036e-05
1.43044e-05
-2.26477e-05
-2.47231e-05
2.74738e-05
-9.46065e-06
9.32404e-07
4.64581e-07
-3.5223e-07
-4.95524e-07
-6.00554e-06
6.70421e-06
1.974e-06
1.9219e-06
-2.03295e-06
-5.17783e-06
1.74892e-06
-5.30307e-06
1.07867e-05
1.14498e-05
1.97559e-06
-3.98914e-06
-1.93581e-06
-1.93814e-06
1.87416e-06
-4.57136e-06
-4.31518e-06
-1.79741e-06
1.64028e-06
-4.98607e-06
5.74393e-06
-4.80145e-06
-5.11622e-06
-7.91423e-06
8.50101e-06
2.18863e-06
2.07058e-06
-9.07866e-06
9.64822e-06
2.7779e-06
2.48448e-06
-1.02833e-05
1.10567e-05
3.80734e-06
3.25202e-06
-1.17678e-05
1.24866e-05
5.06565e-06
4.44297e-06
-1.31522e-05
1.37907e-05
6.742e-06
5.81215e-06
-1.44702e-05
1.51413e-05
9.0183e-06
7.79395e-06
-1.5622e-05
1.53537e-05
1.1734e-05
1.02342e-05
1.40236e-05
-1.26335e-05
1.44531e-05
2.29534e-05
1.55538e-05
-2.267e-05
1.40872e-05
-1.47423e-05
1.3471e-05
1.53471e-05
1.46514e-05
1.49987e-05
-1.47268e-05
9.56303e-06
1.14258e-05
1.41673e-05
-1.35089e-05
7.0333e-06
8.03035e-06
1.27582e-05
-1.19637e-05
5.49252e-06
6.21861e-06
1.10985e-05
-1.02916e-05
4.11792e-06
4.66867e-06
9.50191e-06
-8.80431e-06
3.24299e-06
3.59049e-06
8.10309e-06
-7.41178e-06
2.53847e-06
2.8521e-06
2.23216e-06
-0.00299668
0.00313113
6.64803e-06
6.4629e-06
-0.00322071
0.00327619
5.57482e-06
6.32915e-06
-0.00306129
0.00165655
1.84631e-06
4.23655e-06
-0.00111499
0.000827578
-1.95909e-07
7.55647e-07
-0.000650877
0.000524755
-4.57172e-06
-1.76751e-06
-6.64811e-06
-0.00244563
0.00274951
5.66857e-06
-1.7452e-06
3.79998e-06
-0.0020991
-0.00209864
-6.52328e-07
-1.88864e-05
-0.000197317
-1.33681e-05
-4.4875e-05
-9.76415e-06
5.5504e-05
-1.31154e-06
0.000240714
-0.000290304
4.11741e-06
2.76447e-06
0.000352903
-0.00042933
7.03305e-06
6.75034e-06
0.000525719
-0.000650509
6.91932e-06
6.94432e-06
0.000825834
-0.0011157
7.55959e-06
6.1675e-06
0.00165933
-0.00306287
4.29271e-06
4.88346e-06
0.00327625
-0.00322076
6.60076e-06
6.05805e-06
0.00313126
-0.00299659
7.18096e-06
6.94152e-06
6.7391e-06
-5.90191e-06
6.20781e-06
-2.02129e-06
-1.65467e-06
-6.48729e-06
6.72456e-06
-2.5999e-06
-2.32366e-06
-6.94067e-06
7.19163e-06
-3.15202e-06
-2.84287e-06
-7.39259e-06
7.67758e-06
-3.78009e-06
-3.43763e-06
-7.66901e-06
7.77514e-06
-4.33311e-06
-3.99793e-06
-7.77302e-06
7.76626e-06
-5.36379e-06
-4.76445e-06
-7.58549e-06
7.38438e-06
-6.36629e-06
-5.86639e-06
-7.03831e-06
6.58665e-06
-7.46083e-06
8.47665e-06
-6.76956e-06
-5.9746e-06
4.99271e-06
-8.70848e-06
-8.08438e-06
-1.01121e-05
1.08259e-05
4.12422e-06
-4.29033e-06
3.69901e-06
-9.07491e-06
-8.8989e-06
-1.07646e-05
7.32487e-06
1.02359e-05
3.22859e-06
-4.3493e-06
-9.19724e-06
-9.97837e-06
2.94536e-06
1.07041e-05
-3.22324e-06
-2.02728e-06
1.94023e-06
-9.44792e-06
-9.55113e-06
1.12045e-05
4.44802e-06
-6.41923e-06
-9.23613e-06
1.16808e-05
-9.19114e-06
7.23427e-06
-7.52808e-06
-7.54701e-06
-8.28824e-06
7.6029e-06
-7.68616e-06
-6.57422e-06
-6.97902e-06
7.86543e-06
-7.94394e-06
-5.85102e-06
-6.22447e-06
7.95391e-06
-7.9168e-06
-4.98961e-06
-5.40481e-06
7.83347e-06
-7.7232e-06
-4.24368e-06
-4.61022e-06
7.57522e-06
-7.33832e-06
-3.53939e-06
-3.89485e-06
7.031e-06
-6.66739e-06
-2.90671e-06
-3.20806e-06
6.28287e-06
-5.8837e-06
-2.41963e-06
-2.63881e-06
-2.18461e-06
-2.07146e-06
2.10656e-06
-4.62997e-06
-4.50503e-06
-2.12574e-06
2.10411e-06
-4.90806e-06
-4.78645e-06
-5.04219e-06
2.84641e-05
3.32599e-05
3.42486e-05
-2.71092e-06
2.84209e-06
-3.48754e-05
0.0002317
-1.3712e-05
-1.209e-05
1.14462e-05
1.12278e-05
9.02154e-06
1.10658e-05
1.02687e-05
-1.18583e-05
1.20068e-05
-5.02366e-06
1.6531e-06
5.03306e-06
-2.64066e-05
-2.05029e-05
1.86032e-05
1.59643e-05
-1.63502e-05
1.19389e-05
5.49881e-06
1.0474e-05
-8.16822e-06
-0.00244545
0.00274857
9.33545e-06
-0.0020998
5.78542e-06
-1.65759e-06
1.75968e-06
-3.49619e-06
-3.51795e-05
1.89614e-06
-7.64571e-06
-3.84157e-06
-1.8844e-06
3.68546e-06
-3.60258e-06
-1.61944e-06
-1.44098e-06
-3.26798e-06
-1.50654e-06
-4.17539e-06
-6.14524e-06
6.89524e-06
1.7307e-06
-5.42117e-06
1.53551e-06
0.000153906
-2.02262e-05
1.88767e-05
-1.56942e-05
-2.11156e-05
1.75593e-05
-1.58782e-05
1.9404e-05
1.4945e-05
-3.47102e-05
2.44252e-05
2.87098e-06
-2.56192e-06
0.000347832
-0.000427306
-8.75316e-06
0.000283616
-1.08323e-05
1.6436e-05
2.34729e-05
-1.71817e-05
1.6033e-05
-2.16285e-05
2.13731e-05
2.63084e-05
-1.7031e-05
1.37642e-05
1.15753e-05
7.1158e-06
-1.39366e-05
1.27127e-05
-1.28049e-05
1.34035e-05
1.09408e-05
8.81669e-06
2.10229e-05
-1.39716e-05
-0.0024456
0.00274869
9.7174e-06
-0.00209996
5.99311e-06
-3.41788e-05
3.40094e-05
-1.85507e-05
1.80317e-05
-6.45113e-05
1.4367e-05
5.55551e-05
-8.22141e-05
2.26184e-05
2.42592e-05
-1.42824e-05
-1.49531e-05
1.5534e-05
1.39439e-05
1.17709e-05
4.99783e-06
1.04304e-05
3.00328e-06
-9.28115e-06
3.45266e-06
1.15337e-05
1.05318e-05
1.39974e-06
-9.49162e-06
2.08864e-06
1.19034e-05
1.10825e-05
7.53969e-06
-1.34115e-05
1.46811e-05
-2.01424e-05
-1.48448e-05
2.18137e-05
1.31037e-05
0.000186272
-1.3843e-05
1.14048e-06
2.96756e-07
-6.64583e-07
-3.31536e-07
2.38179e-05
-7.77172e-06
-2.55842e-05
2.87529e-05
-1.81981e-05
-2.6458e-05
1.55059e-05
1.02289e-05
1.11944e-05
-1.80061e-06
1.80112e-06
-3.95209e-06
-3.73749e-06
-1.76772e-06
1.68722e-06
-4.28986e-06
-4.14621e-06
-1.58611e-06
1.49276e-06
-4.49033e-06
-4.42288e-06
-1.42501e-06
1.40163e-06
-4.52167e-06
-4.54672e-06
5.07115e-06
-4.55731e-06
1.36729e-06
-5.33336e-06
7.46874e-06
2.62439e-06
-4.2548e-06
1.84276e-06
-7.92509e-06
8.6022e-06
2.03542e-06
2.17869e-06
-9.30559e-06
1.00424e-05
2.55379e-06
2.29994e-06
-1.07876e-05
1.15588e-05
3.47524e-06
2.98698e-06
-1.23692e-05
1.31383e-05
4.66491e-06
4.03137e-06
-1.39228e-05
1.47129e-05
6.19581e-06
5.35097e-06
-1.54927e-05
1.63058e-05
8.34696e-06
7.17233e-06
-1.70019e-05
1.74858e-05
1.11639e-05
9.604e-06
-1.80952e-05
2.00387e-05
1.51403e-05
1.32006e-05
1.71513e-05
1.70122e-05
2.1717e-05
-2.02806e-05
1.55008e-05
-1.74277e-05
1.57184e-05
1.92386e-05
-1.80542e-05
1.17775e-05
1.38136e-05
1.69855e-05
-1.60045e-05
8.24265e-06
9.90274e-06
1.51458e-05
-1.42407e-05
5.85521e-06
6.87865e-06
1.3403e-05
-1.25025e-05
4.56395e-06
5.20511e-06
1.16536e-05
-1.07905e-05
3.53094e-06
3.96351e-06
9.95253e-06
-9.15262e-06
2.81075e-06
3.08964e-06
8.41015e-06
-7.65435e-06
2.23499e-06
2.52151e-06
1.95981e-06
-0.00299501
0.00312906
1.26219e-05
1.17026e-05
-0.00321811
0.00327306
1.13493e-05
1.23038e-05
-0.00305904
0.00165615
5.31681e-06
9.05199e-06
-0.00111481
0.00082817
1.38127e-06
2.98899e-06
-0.000652657
0.000525737
-3.28483e-06
-4.73402e-07
-5.69626e-06
1.61281e-07
6.84495e-07
-0.00174447
-9.64909e-07
1.57109e-06
-0.0017453
-0.00174436
4.6384e-06
1.20567e-05
-1.30148e-06
-0.00174693
1.24903e-06
-0.00174518
9.286e-05
-0.000118067
2.08573e-06
5.47266e-06
2.0519e-05
-2.60114e-05
0.000168326
-0.000203607
-1.34011e-05
-1.56753e-05
0.000242924
-0.00029329
1.79583e-06
-1.57315e-06
0.000355146
-0.00043153
5.41069e-06
4.83693e-06
0.000528335
-0.000652898
6.33151e-06
6.57041e-06
0.00082826
-0.00111485
8.15433e-06
7.26771e-06
0.00165755
-0.00306084
9.47684e-06
7.06879e-06
0.00327296
-0.00321827
1.27539e-05
1.07401e-05
0.00312943
-0.00299503
1.31233e-05
1.28807e-05
1.20524e-05
-3.80534e-06
3.93884e-06
-1.56697e-06
3.4596e-06
-3.05034e-06
-1.32663e-06
-1.45075e-06
-4.47918e-06
5.17312e-06
-1.26852e-06
-1.3488e-06
1.26507e-06
-5.57008e-06
5.89454e-06
-1.80514e-06
-1.51428e-06
-6.18826e-06
6.44652e-06
-2.31229e-06
-2.07009e-06
-6.71024e-06
6.92258e-06
-2.81138e-06
-2.55853e-06
-7.11583e-06
7.25422e-06
-3.3496e-06
-3.06313e-06
-7.37913e-06
7.46123e-06
-3.88095e-06
-3.56596e-06
-7.46853e-06
7.3703e-06
-4.71312e-06
-4.24545e-06
-7.1788e-06
6.93023e-06
-5.5626e-06
-5.11076e-06
-6.66137e-06
6.26051e-06
-6.4824e-06
-5.94257e-06
-5.68004e-06
4.9583e-06
-7.42174e-06
-6.94728e-06
-4.26566e-06
3.59951e-06
-7.87498e-06
-7.65914e-06
-9.54633e-06
2.23396e-06
1.08025e-05
-2.86945e-06
2.10366e-06
-8.29104e-06
-8.04447e-06
1.30499e-06
9.77909e-06
-8.47632e-06
4.82839e-07
9.91138e-06
-8.56892e-06
-9.77934e-06
5.54805e-07
1.11453e-05
3.89703e-07
-1.13674e-06
-8.51226e-06
9.98434e-06
-8.59326e-06
1.77972e-06
-2.50681e-06
-8.2678e-06
-8.3663e-06
3.36118e-06
-3.99381e-06
-8.06656e-06
-8.22029e-06
4.81414e-06
-5.81532e-06
-7.67119e-06
-7.85104e-06
6.35814e-06
-6.70191e-06
-6.60849e-06
-7.14338e-06
6.94184e-06
-7.15647e-06
-5.79548e-06
-6.16532e-06
7.34802e-06
-7.47939e-06
-5.1552e-06
-5.47498e-06
7.53075e-06
-7.52338e-06
-4.41671e-06
-4.77743e-06
7.46825e-06
-7.37049e-06
-3.77929e-06
-4.08878e-06
7.22739e-06
-7.01299e-06
-3.18708e-06
-3.48145e-06
6.73911e-06
-6.41475e-06
-2.6442e-06
-2.90595e-06
6.06447e-06
-5.69457e-06
-2.19529e-06
-2.39993e-06
5.29304e-06
-4.86052e-06
-1.72813e-06
-1.98134e-06
4.4361e-06
-4.19811e-06
-1.06811e-06
-1.52391e-06
-1.723e-06
1.70869e-06
-3.5328e-06
-1.98646e-06
-1.78534e-06
1.86212e-06
-3.81145e-06
-3.68849e-06
-1.91658e-06
1.95806e-06
-4.06305e-06
-3.94545e-06
-1.95907e-06
1.93367e-06
-4.29259e-06
-4.1846e-06
-1.86789e-06
1.75566e-06
-4.51076e-06
-4.40045e-06
-1.59624e-06
-4.69987e-06
1.38344e-06
-4.61392e-06
2.52999e-05
-2.58834e-05
-2.33151e-05
0.000110201
-7.97782e-06
-1.13733e-05
-2.73495e-05
3.05766e-05
1.25274e-05
0.000229735
-1.20744e-05
1.48221e-05
4.60871e-05
-1.83428e-05
2.15003e-05
-1.93054e-05
2.38365e-05
-4.68601e-06
-2.69409e-06
-2.82206e-05
-2.42447e-05
-1.19917e-05
3.11086e-05
-2.19032e-05
-1.54823e-05
1.28518e-05
1.24985e-05
8.39669e-06
-1.34153e-05
1.10957e-05
-4.33449e-07
1.14853e-05
1.37004e-06
1.11726e-05
-1.25095e-05
1.2013e-05
1.18514e-05
9.84216e-06
1.98966e-05
-1.49919e-05
-2.47782e-05
1.44472e-05
-1.80472e-05
9.02614e-06
1.79255e-07
-3.40267e-07
1.90592e-06
-2.25332e-05
2.05662e-05
-2.06341e-05
2.15193e-05
-2.13335e-05
2.05526e-05
2.2723e-05
-2.19488e-05
1.48186e-05
1.57675e-06
-0.00174719
-5.96042e-05
4.91228e-05
9.70403e-06
-8.26882e-05
2.95174e-05
-1.20237e-06
1.36113e-06
-2.67628e-06
2.96223e-06
-1.11586e-06
-2.50927e-06
3.32053e-06
-1.15406e-06
2.98974e-05
2.33892e-05
-1.64939e-05
-1.48762e-05
1.27927e-05
1.28149e-05
6.42443e-06
2.61788e-06
1.215e-05
9.39785e-07
1.28253e-05
1.2014e-05
8.31506e-06
-1.3503e-05
1.36357e-05
2.11729e-05
-1.1666e-05
-2.34643e-05
1.32784e-06
-1.43846e-06
-3.91362e-06
1.19874e-06
-3.9322e-06
0.0001478
-1.91814e-05
-9.90457e-06
3.54998e-05
6.55616e-05
-6.9423e-05
-7.81383e-06
5.14788e-06
2.73986e-05
3.07197e-05
-2.38683e-05
6.58861e-06
1.18996e-05
-2.29843e-05
-1.57757e-05
2.62255e-05
-7.24694e-05
-4.96601e-06
8.6537e-06
6.58189e-05
2.31068e-05
-1.37738e-05
8.50491e-05
3.71246e-05
2.05087e-05
-1.63334e-05
1.14554e-05
1.2675e-05
4.28212e-06
3.51847e-06
1.35238e-05
-1.34829e-05
1.6534e-05
1.17161e-05
1.27568e-06
-1.4686e-06
-3.99803e-06
-4.78017e-06
5.51973e-06
1.14577e-06
1.05367e-06
-4.04848e-06
-3.51584e-06
1.1823e-06
-0.00141302
-0.00175258
0.00210381
-1.14907e-06
-9.13646e-06
-0.00141922
0.000185787
-1.28676e-05
1.59513e-06
-2.97679e-06
1.9939e-05
-7.14426e-06
-2.01344e-05
1.46187e-05
2.02262e-05
-1.4804e-05
-1.88062e-05
6.87764e-06
-8.98759e-06
8.68253e-06
-1.0069e-05
-9.13459e-06
9.55203e-06
1.1391e-05
1.09553e-05
-1.24359e-05
2.22749e-05
9.68512e-06
-1.48223e-06
1.59718e-06
-3.02835e-06
-2.83805e-06
-1.66877e-06
1.70414e-06
-3.3692e-06
-3.19782e-06
-1.71346e-06
1.69222e-06
-3.63877e-06
-3.52565e-06
-1.64106e-06
1.5521e-06
-3.84131e-06
-3.771e-06
-3.91152e-06
5.25765e-06
-4.6385e-06
1.24643e-06
-6.05767e-06
7.3048e-06
1.89267e-06
1.53825e-06
-8.15022e-06
8.79823e-06
1.87936e-06
1.84935e-06
-9.59017e-06
1.03535e-05
2.26497e-06
1.98217e-06
-1.11844e-05
1.20353e-05
3.04312e-06
2.61674e-06
-1.29048e-05
1.38362e-05
4.05921e-06
3.53665e-06
-1.47006e-05
1.56011e-05
5.49788e-06
4.75529e-06
-1.6521e-05
1.74683e-05
7.44089e-06
6.37141e-06
-1.84072e-05
1.93924e-05
9.95137e-06
8.56493e-06
-2.06488e-05
2.23253e-05
1.31854e-05
1.1704e-05
1.42897e-05
-2.24198e-05
2.45572e-05
1.52047e-05
-1.80648e-05
1.69554e-05
2.07075e-05
-1.94329e-05
1.08268e-05
1.28376e-05
1.82069e-05
-1.70011e-05
7.35502e-06
9.00571e-06
1.59016e-05
-1.48528e-05
4.89579e-06
6.00413e-06
1.39325e-05
-1.29984e-05
3.71118e-06
4.32376e-06
1.20298e-05
-1.11791e-05
2.91943e-06
3.16603e-06
1.03384e-05
-9.51725e-06
2.32795e-06
2.5329e-06
8.68408e-06
-7.86899e-06
1.86516e-06
2.08587e-06
7.06423e-06
-6.28188e-06
1.45216e-06
1.6376e-06
1.2775e-06
-0.0024474
0.00274825
1.39246e-05
7.0127e-06
-0.00299294
0.00312563
2.12475e-05
1.87023e-05
-0.00321387
0.00326793
2.03148e-05
2.12354e-05
-0.00305393
0.00165515
1.15364e-05
1.74661e-05
-0.00111485
0.000828476
3.89029e-06
6.08674e-06
-0.000653457
0.000526505
-7.37631e-07
1.35979e-06
-0.000429032
0.000349914
-6.94908e-06
-4.61666e-06
-0.000285097
0.000231088
-1.06317e-05
-9.79136e-06
-8.53077e-07
-2.53444e-08
-0.00141083
-0.00175261
0.00210386
-8.71082e-07
3.26306e-06
-8.86048e-06
-0.00141929
-0.00141321
1.47116e-07
-3.58463e-07
-0.00140951
-0.00140945
-0.00141074
9.97638e-05
-0.000123547
5.01907e-06
1.92792e-05
0.000161741
-0.000202429
-6.54783e-06
-3.78815e-06
0.000245074
-0.000296391
5.36118e-07
-1.91214e-06
0.000358137
-0.00043406
4.45864e-06
3.3935e-06
0.000529515
-0.00065441
7.33159e-06
6.1232e-06
0.000828167
-0.00111453
1.00705e-05
7.67571e-06
0.00165644
-0.00305374
1.52066e-05
1.07212e-05
0.0032678
-0.00321393
2.20377e-05
2.08859e-05
0.00312595
-0.00299298
2.17591e-05
2.18669e-05
0.00274837
-0.00244744
1.42755e-05
1.91485e-05
7.24813e-06
-3.65633e-06
3.90114e-06
-1.30991e-06
-1.2671e-06
-4.31701e-06
4.82699e-06
-1.26166e-06
-1.26365e-06
-5.2578e-06
5.60881e-06
-1.60244e-06
-1.39867e-06
-5.91318e-06
6.19233e-06
-2.03776e-06
-1.81738e-06
-6.42422e-06
6.62013e-06
-2.4543e-06
-2.23938e-06
-6.80738e-06
6.9149e-06
-2.88447e-06
-2.6798e-06
-7.02823e-06
7.13098e-06
-3.43457e-06
-3.11526e-06
-7.12796e-06
7.03561e-06
-4.05073e-06
-3.69733e-06
-6.86972e-06
6.61974e-06
-4.74205e-06
-4.35787e-06
-6.3493e-06
5.93341e-06
-5.49489e-06
-5.11836e-06
-5.43371e-06
4.81368e-06
-6.23049e-06
-5.87806e-06
-4.17613e-06
3.51187e-06
-6.65296e-06
-6.45363e-06
-2.81063e-06
2.08e-06
-7.00509e-06
-6.79384e-06
-1.30174e-06
5.21563e-07
-7.24032e-06
-7.14309e-06
2.61251e-07
-1.00516e-06
-7.22967e-06
-7.26457e-06
1.72552e-06
-2.45676e-06
-7.03239e-06
-7.13401e-06
3.20039e-06
-3.88605e-06
-6.80639e-06
-6.94199e-06
4.57059e-06
-5.29312e-06
-6.37004e-06
-6.5771e-06
5.8115e-06
-6.1667e-06
-5.65379e-06
-6.03562e-06
6.45924e-06
-6.71021e-06
-4.99902e-06
-5.30914e-06
6.911e-06
-7.06715e-06
-4.43963e-06
-4.72468e-06
7.15356e-06
-7.17478e-06
-3.83977e-06
-4.13145e-06
7.14403e-06
-7.06013e-06
-3.30874e-06
-3.56742e-06
6.92432e-06
-6.72805e-06
-2.80334e-06
-3.052e-06
6.47641e-06
-6.18149e-06
-2.33616e-06
-2.56264e-06
5.86271e-06
-5.51912e-06
-1.94542e-06
-2.12397e-06
5.14834e-06
-4.75468e-06
-1.52399e-06
-1.75312e-06
4.40325e-06
-7.86442e-07
-4.09525e-06
-1.2773e-06
-1.65623e-06
1.72472e-06
-3.26698e-06
-3.13374e-06
-1.77933e-06
1.81506e-06
-3.48713e-06
-3.38495e-06
-1.8233e-06
1.79492e-06
-3.67744e-06
-3.59002e-06
-1.73547e-06
1.62706e-06
-3.85214e-06
-3.76992e-06
-3.92933e-06
2.77488e-06
2.98765e-05
-1.53444e-05
-4.30848e-05
1.84421e-05
1.1975e-05
-1.89265e-05
-1.52582e-05
8.95983e-06
2.75357e-06
-2.35114e-06
-9.58787e-07
-2.11607e-05
-1.77449e-05
2.1776e-05
-1.79685e-05
-1.74989e-05
-2.39995e-05
-1.44809e-05
1.08762e-05
1.38742e-05
7.64348e-06
1.68279e-06
1.26677e-05
-4.87015e-07
1.34419e-05
1.27726e-05
9.52084e-06
-1.33698e-05
1.21343e-05
2.05248e-05
-1.43422e-05
7.08384e-06
-9.66657e-06
-3.9742e-06
1.04312e-06
-2.65931e-05
1.31143e-05
-3.4566e-05
-1.58641e-05
3.71038e-05
3.47986e-05
2.73588e-05
-4.39934e-05
-2.39678e-05
2.16078e-05
0.00010941
-1.65223e-05
3.15298e-06
-1.00492e-06
3.61588e-05
-1.18978e-05
2.85821e-05
-2.88738e-05
-1.21757e-05
1.14709e-05
-0.00175954
0.00211026
-6.28691e-06
-0.00142642
-1.77782e-05
1.69353e-05
2.31447e-05
-8.45173e-05
4.73991e-05
6.19408e-06
1.29455e-05
2.40888e-05
2.70429e-05
-2.08205e-05
-1.80918e-05
2.28477e-05
-1.65506e-05
8.28859e-05
1.41408e-05
-2.19677e-05
-1.63466e-05
1.29944e-05
1.39307e-05
5.54918e-06
3.44996e-06
1.34743e-05
1.39848e-06
1.54679e-05
1.29601e-05
7.71026e-06
-1.4068e-05
1.43825e-05
1.87723e-05
-1.3744e-05
-1.14452e-06
1.27298e-06
-2.25484e-06
-1.02724e-06
-2.07827e-06
-4.86453e-06
5.63002e-06
8.89064e-07
-4.10259e-06
8.13579e-07
1.2066e-06
-1.38749e-06
-3.2969e-06
1.00678e-06
-3.32779e-06
-0.00175938
0.00211003
-6.48935e-06
-0.00142623
-1.80474e-05
-8.22733e-06
3.79537e-06
-0.00111391
-1.63174e-05
-0.00111954
2.88305e-05
-8.11055e-07
0.000143918
-1.42114e-05
-1.36091e-06
1.45205e-06
-2.46785e-06
-1.22367e-06
-2.32788e-06
0.00018483
-9.75452e-06
-3.99203e-07
1.83346e-06
-1.26135e-06
2.08031e-05
-1.47085e-05
-1.17946e-07
1.86997e-06
-1.09551e-06
-1.84889e-05
-1.05162e-05
9.16736e-06
1.31584e-05
1.0729e-05
-1.44474e-05
2.2399e-05
-1.37869e-06
1.48114e-06
-2.54446e-06
-2.38201e-06
-1.55336e-06
1.61026e-06
-2.80944e-06
-2.66758e-06
-1.63847e-06
1.65258e-06
-3.01889e-06
-2.91843e-06
-1.60759e-06
1.53787e-06
-3.20643e-06
-3.12097e-06
-1.41712e-06
1.27923e-06
-3.26091e-06
-3.25713e-06
-1.14147e-06
9.97454e-07
-3.30225e-06
-3.281e-06
4.03818e-06
-3.32499e-06
8.28269e-07
-4.73039e-06
5.47442e-06
1.02721e-06
8.80037e-07
-6.32074e-06
7.31096e-06
1.43861e-06
1.21487e-06
-8.19975e-06
9.06516e-06
1.52224e-06
1.4912e-06
-9.87626e-06
1.07119e-05
1.89511e-06
1.64246e-06
-1.15583e-05
1.24549e-05
2.55668e-06
2.2201e-06
-1.34392e-05
1.4399e-05
3.40509e-06
2.92689e-06
-1.53989e-05
1.64352e-05
4.62409e-06
3.978e-06
-1.74764e-05
1.85414e-05
6.34652e-06
5.42085e-06
-1.96488e-05
2.091e-05
8.49733e-06
7.30245e-06
-2.26576e-05
2.4602e-05
1.10286e-05
9.82154e-06
1.17897e-05
1.77166e-05
-1.41029e-05
-3.84293e-05
2.42101e-05
-2.38727e-05
1.48132e-05
1.73619e-05
2.25982e-05
-2.11291e-05
1.01492e-05
1.21442e-05
1.96097e-05
-1.81202e-05
6.91666e-06
8.44346e-06
1.66882e-05
-1.55428e-05
4.50779e-06
5.54018e-06
1.44089e-05
-1.33883e-05
3.10067e-06
3.73451e-06
1.23721e-05
-1.15058e-05
2.3776e-06
2.49964e-06
1.06366e-05
-9.80201e-06
1.88392e-06
2.0084e-06
8.91005e-06
-8.03376e-06
1.46673e-06
1.63385e-06
7.21149e-06
-6.39924e-06
1.15349e-06
1.31376e-06
1.01894e-06
-0.00245228
0.0027509
1.65737e-05
5.44008e-06
-0.00299345
0.00312314
3.09152e-05
2.53593e-05
-0.00321073
0.00326241
3.25627e-05
3.23514e-05
-0.00304593
0.00165308
2.10237e-05
3.03159e-05
-0.00111358
0.000827963
7.32094e-06
1.14227e-05
-0.000653193
0.000527509
1.76984e-06
4.26346e-06
-0.000429173
0.000351512
-5.2208e-06
-1.29255e-06
-0.000286254
0.000232976
-8.5961e-06
-6.74514e-06
-3.48888e-06
1.09466e-06
-0.00111145
7.96758e-06
-1.6033e-05
-0.00111962
-0.00111396
1.56703e-07
-1.42222e-06
-0.00110989
-0.00110992
-0.00111139
0.000101784