/*--------------------------------*- C++ -*----------------------------------*\
| =========                 |                                                 |
| \\      /  F ield         | OpenFOAM: The Open Source CFD Toolbox           |
|  \\    /   O peration     | Version:  2212                                  |
|   \\  /    A nd           | Website:  www.openfoam.com                      |
|    \\/     M anipulation  |                                                 |
\*---------------------------------------------------------------------------*/
FoamFile
{
    version     2.0;
    format      ascii;
    arch        "LSB;label=32;scalar=64";
    class       volScalarField;
    location    "0.079";
    object      p;
}
// * * * * * * * * * * * * * * * * * * * * * * * * * * * * * * * * * * * * * //

dimensions      [1 -1 -2 0 0 0 0];

internalField   nonuniform List<scalar> 
2308
(
124.965
117.846
305.809
92.4782
89.8584
77.788
73.6504
83.4093
94.3819
43.7526
44.7189
46.4708
47.9183
49.6913
51.6084
53.6981
55.9546
58.2456
55.9768
53.7473
51.6252
49.677
47.8708
46.2715
44.7814
43.6607
43.1655
43.1811
74.9011
58.4032
43.3297
43.7012
44.5282
46.2613
49.8316
57.1524
72.1181
91.542
131.341
139.807
139.001
136.106
130.124
124.243
120.19
126.116
129.164
130.597
130.986
127.069
112.136
99.1017
92.0839
78.7248
66.6075
54.6776
48.8965
46.0925
44.7505
44.1245
43.8809
43.8568
44.2297
45.1427
46.0807
47.1252
48.4915
50.1058
51.942
53.9794
56.2457
118.119
122.271
56.3773
54.0173
51.8541
49.8536
48.0432
46.4275
45.1054
44.076
43.6841
43.7285
43.9664
44.5863
45.9632
48.8477
54.7946
66.9479
77.9013
89.7691
96.7079
107.912
124.736
131.051
130.726
129.321
126.254
60.6367
122.293
60.9494
58.7518
128.408
130.203
130.629
125.028
106.128
94.814
89.214
85.1422
82.4945
79.2404
75.626
70.5829
58.3582
51.4215
48.0421
46.4287
45.7206
45.5053
45.5713
46.23
46.9982
48.0269
49.2945
50.8316
52.5999
54.5778
56.7631
86.1059
75.0194
72.5839
74.2349
60.1656
57.1975
54.5595
52.2995
50.2826
48.5252
47.0425
46.0236
45.4481
45.4707
45.6739
46.3338
47.8737
51.1207
57.7848
69.8671
74.948
78.247
81.1943
83.3515
86.6358
91.7083
102.033
122.712
130.761
130.412
128.764
125.115
119.46
117.473
119.312
86.4302
124.514
88.4195
86.9721
61.5036
98.9106
86.0561
63.5602
59.2363
120.282
117.512
117.281
117.24
119.671
125.115
126.878
127.356
121.864
102.628
91.7323
86.2054
82.9485
81.2986
80.1265
79.5275
79.2337
78.5461
77.1695
73.5745
66.6362
56.7586
52.0472
49.8808
49.0068
48.7802
48.7292
48.9876
49.665
50.5839
51.9511
53.628
55.5322
57.6103
66.291
150.42
85.7249
80.9066
76.4979
72.6862
69.2454
66.0333
63.083
60.2575
57.6154
55.1477
52.9493
51.0661
49.5733
48.5289
48.4015
48.4961
48.8323
49.7883
51.9826
56.6966
66.5057
72.8164
76.4333
77.7284
78.146
78.2963
78.6563
79.4216
80.9961
84.0711
89.2307
99.6228
120.614
127.552
127.137
125.429
376.964
93.1919
139.227
119.374
246.313
90.7984
61.984
66.7216
124.468
120.144
100.204
89.7859
84.4077
81.1375
79.5169
78.7368
78.434
78.3615
78.5776
79.4221
79.8341
79.9723
79.9804
78.3075
74.4018
64.352
57.9881
55.0329
53.7284
53.2351
52.9873
52.9007
52.8916
53.7769
55.1008
56.7854
58.6854
59.9094
103.712
84.879
79.6266
75.5175
72.1222
69.047
66.0707
63.2444
60.5773
58.1558
55.9596
54.046
52.6533
51.8484
51.8878
52.105
52.7737
54.3379
57.6334
64.5147
74.4274
78.1005
79.4122
79.3604
79.019
78.2131
77.2752
77.0746
77.1366
77.4163
78.1253
79.6103
82.6675
87.9329
98.5356
119.762
124.354
123.938
121.719
116.739
116.089
116.897
115.785
116.145
121.284
123.98
157.68
289.702
415.606
96.9763
124.088
228.761
60.7461
62.514
108.076
103.558
136.088
82.4591
78.6862
75.3583
72.1598
69.1696
66.3393
63.7192
61.3195
59.2436
57.5227
56.2677
55.9959
56.1113
56.5985
57.8134
60.3715
65.5558
76.0201
80.9789
83.1192
83.0535
82.6602
81.672
79.7575
78.1841
77.1238
76.611
76.3656
76.2327
76.2602
76.4726
77.1312
78.5509
81.5032
87.4357
99.4993
118.392
121.434
122.34
117.097
114.27
114.944
116.127
114.634
113.76
116.698
122.282
121.498
118.732
101.171
88.8757
82.7723
79.7887
78.2976
77.5918
77.3406
77.3027
77.3988
77.7504
78.3519
79.4968
81.1668
82.4086
82.9972
83.1867
83.207
80.7264
75.4616
65.916
61.3087
59.1378
57.9464
57.5178
57.3243
57.2459
57.6127
58.7384
60.3209
109.388
63.0976
65.4867
69.8687
111.529
106.471
99.6063
93.2519
86.073
82.3892
81.7439
78.737
75.5976
72.5455
69.7143
67.1371
64.8696
62.9338
61.5287
60.7802
60.8537
61.2289
62.2722
64.5986
69.2859
78.7065
85.3461
87.7762
87.7247
87.3603
86.3985
84.4482
82.5389
80.7653
79.2646
78.0474
77.0727
76.3475
75.8997
75.4422
75.1468
75.1856
75.4375
76.1313
77.6884
80.9757
87.678
101.304
117.926
121.038
118.892
113.75
112.582
113.74
114.73
113.551
112.238
113.417
118.648
121.065
118.744
103.718
89.3277
82.282
78.8533
77.2059
76.4591
76.1776
76.1225
76.3662
76.8604
77.2914
77.9534
78.9455
80.241
81.8265
83.5854
85.524
86.8116
87.4053
87.5873
87.5707
84.7702
77.4469
69.7687
65.7942
63.8858
62.9089
62.4452
62.306
62.2776
63.0974
62.1384
114.674
114.997
481.961
64.0739
88.8638
94.4071
101.074
68.681
77.7001
70.5234
65.6636
114.515
109.732
120.797
119.655
114.613
111.503
111.318
112.374
112.97
112.321
111.174
111.315
114.39
119.646
120.941
109.107
91.6547
83.0511
78.8367
76.773
75.7824
75.3446
75.1874
75.1528
75.4851
76.1492
76.9376
77.9471
79.1387
80.4501
81.8362
83.3008
84.9219
86.7497
88.7157
90.8744
92.2105
92.8256
93.0191
92.8662
89.6523
81.9071
75.0504
71.3398
69.4935
68.6323
68.3149
68.1779
64.4058
88.9511
119.351
113.245
278.432
79.4484
76.4758
73.6744
71.2037
69.0917
67.5165
66.4116
66.4415
66.767
67.7407
69.905
74.2955
83.08
91.0458
93.4579
93.3977
93.0053
91.9806
89.8909
87.7906
85.8538
84.1339
82.6177
81.2007
79.8177
78.4677
77.2138
76.1394
75.297
74.6357
74.1901
74.2087
74.335
74.7256
75.6307
77.5331
81.4145
89.291
105.291
120.67
121.443
388.02
68.4204
118.151
66.2621
86.8539
80.9218
77.6655
76.0445
75.2596
74.8998
74.7581
74.7207
74.7774
75.3788
76.3859
77.6357
79.0606
80.6057
82.2059
83.8158
85.4166
87.0328
88.717
90.5522
92.5736
94.6592
96.8831
98.2676
98.9167
99.1322
98.9957
94.7653
87.3395
80.948
77.6625
75.9751
75.1623
68.1689
84.7957
123.366
122.534
120.583
116.7
111.615
110.005
110.25
110.885
111.109
110.915
110.273
109.993
111.536
116.655
120.722
123.393
98.8148
92.1748
111.75
101.51
94.358
88.8507
78.9111
78.8168
115.976
108.988
80.7085
78.4553
76.3373
74.6444
73.3913
73.4101
73.7006
74.6915
76.907
81.431
90.3311
97.648
100.019
99.9242
99.4605
98.3086
95.9957
93.7853
91.7178
89.8283
88.1326
86.5347
84.9516
83.3408
81.6986
80.0547
78.4631
76.9835
75.6854
74.5985
73.8835
73.7169
73.7463
73.8641
74.1704
74.8512
76.2626
79.0863
84.6408
95.9198
368.753
66.0234
71.4957
126.036
127.545
128.102
81.8752
379.003
362.343
75.6951
68.8826
74.818
76.0515
178.918
104.292
331.433
88.7082
82.0949
78.5361
76.5863
75.5203
74.9975
74.7542
74.6547
74.6257
74.7704
75.8062
77.1564
78.651
80.2848
82.0216
83.8254
85.6683
87.5268
89.3824
91.2242
93.0621
94.9263
96.8796
98.9361
100.952
103.009
104.687
105.509
105.873
105.885
103.313
97.1762
90.6688
86.9134
85.0977
87.3988
125.735
143.084
118.842
125.717
119.916
113.794
110.042
109.078
109.219
109.355
109.33
109.427
109.366
109.244
110.21
113.963
120.069
126.38
122.986
102.362
79.6195
111.955
101.462
94.0398
89.4908
88.7478
260.714
146.899
85.7263
84.1689
82.8575
82.0836
82.1778
82.6242
83.8494
86.4366
91.6811
99.8748
105.828
106.867
106.718
106.202
105.018
102.658
100.462
98.3274
96.335
94.4882
92.6933
90.8827
89.0341
87.1532
85.2645
83.3923
81.5601
79.7958
78.1218
76.5897
75.2101
74.014
73.6324
73.6528
73.7311
73.9295
74.3654
75.2582
76.951
79.9508
85.9531
98.366
94.3598
69.273
139.171
112.209
121.479
130.781
67.8408
132.709
134.567
135.389
322.611
123.082
262.695
70.1691
95.7975
82.8765
387.654
368.607
99.1135
105.677
111.511
113.714
113.638
113.248
112.342
110.44
108.239
106.037
103.86
101.784
99.753
97.711
95.6385
93.5385
91.4279
89.331
87.271
85.2673
83.3378
81.4958
79.7541
78.1324
76.6696
75.5721
75.2245
75.2421
75.3149
75.4956
75.8887
76.69
78.3112
81.5546
86.4983
94.9435
348.945
123.78
134.266
125.751
118.562
112.708
109.852
108.746
108.349
108.007
107.792
108.106
108.562
109.056
110.218
113.168
118.76
126.363
134.934
130.004
112.02
88.5363
74.7094
103.368
391.669
399.39
407.826
407.355
405.823
385.093
365.745
346.422
118.836
329.439
110.784
114.303
121.52
113.276
123.911
134.871
70.0088
95.1836
354.153
111.261
100.349
93.9086
90.9551
90.9972
90.2289
101.437
93.438
92.2985
92.3134
92.6449
93.64
95.7299
99.8797
105.919
111.155
113.432
113.395
113.181
112.62
111.434
109.594
107.713
105.685
103.681
101.698
99.6797
97.6057
95.4788
93.3203
91.159
89.022
86.9328
84.9065
82.9589
81.0956
79.331
77.6724
76.158
74.9064
74.2998
74.3068
74.3553
74.49
74.8015
75.4464
76.7602
79.3977
83.8158
91.4513
107.029
124.641
112.771
102.87
261.324
101.249
70.5313
287.242
94.9995
310.645
143.137
141.965
140.58
113.661
124.921
113.61
348.846
125.126
303.328
338.088
165.891
98.029
107.315
357.81
377.577
401.544
119.37
119.337
119.275
119.116
118.748
117.971
116.458
114.403
112.102
109.711
107.301
104.892
102.498
100.116
97.7503
95.4076
93.1009
90.8444
88.6574
86.5502
84.5402
82.6363
80.8476
79.195
77.7523
76.7323
76.4006
76.4189
76.4939
76.6836
77.1024
77.9681
79.7322
82.8613
86.4487
91.6256
100.501
93.974
93.4853
93.8794
98.5168
108.32
122.03
211.948
83.6164
80.2396
103.784
103.807
327.896
330.103
138.32
137.427
67.6087
282.646
229.556
89.9359
88.9226
434.581
342.941
365.337
138.289
119.631
132.288
134.16
125.621
118.21
112.745
109.9
108.758
107.875
107.115
106.764
107.243
108.11
109.074
110.291
113.223
118.597
126.202
134.646
131.772
119.165
106.128
431.636
429.526
432.818
433.2
433.705
436.819
326.716
74.6928
95.5408
95.4426
92.1457
121.052
307.238
312.419
151.385
279.706
148.699
145.985
292.753
71.994
296.171
415.946
150.559
106.873
104.632
104.784
106.138
109.174
112.767
116.05
118.433
119.684
119.683
119.625
119.412
118.914
117.901
116.591
115.171
113.475
111.572
109.471
107.218
104.881
102.492
100.076
97.6554
95.2563
92.9007
90.6085
88.3942
86.2665
84.2384
82.3116
80.4993
78.8072
77.2945
76.1031
75.5301
75.5381
75.588
75.7295
76.0563
76.7431
78.1461
80.9605
84.4106
89.183
97.5801
105.364
527.1
192.898
251.816
103.938
329.365
138.265
341.912
110.857
82.2332
310.319
84.1767
82.2074
102.768
97.6487
95.4889
95.0145
96.7323
103.407
114.922
129.865
155.765
147.323
118.873
92.2157
122.183
96.6819
124.282
126.149
126.092
125.814
125.193
124.384
123.456
122.062
120.176
117.867
115.337
112.697
110.024
107.341
104.68
102.05
99.4674
96.9409
94.4852
92.1058
89.823
87.6424
85.5781
83.6466
81.8633
80.2641
78.9383
78.0809
77.8647
77.8871
77.9744
78.2022
78.7147
79.803
82.0236
84.7543
87.1158
90.1645
94.3223
97.3395
346.234
366.242
392.205
429.089
297.054
224.9
92.6026
95.0965
101.583
170.799
130.14
149.403
64.7009
110.975
95.056
79.8004
95.8143
95.9301
92.6182
98.8383
309.322
311.541
161.662
158.944
68.4785
269.216
78.9485
246.557
222.767
152.117
150.239
274.512
73.9802
79.8602
103.038
93.1465
228.198
245.8
269.8
92.5789
96.3537
468.604
486.017
486.407
486.003
486.668
486.223
486.363
484.161
478.136
89.1685
75.1612
157.569
160.457
290.161
224.135
119.261
117.759
118.575
119.672
121.178
123.04
124.694
125.624
125.762
125.725
125.594
125.297
124.827
124.236
123.251
121.707
119.667
117.32
114.859
112.364
109.841
107.262
104.65
102.026
99.4272
96.8694
94.3802
91.9684
89.6563
87.4497
85.3559
83.3909
81.5662
79.9113
78.4914
77.4664
77.0359
77.0489
77.1131
77.293
77.7061
78.5974
80.4369
83.3126
85.6583
88.4851
92.6184
96.3195
97.7833
106.517
119.469
131.525
133.2
125.316
118.25
112.939
110.076
108.821
107.879
106.949
106.499
107.092
108.114
109.145
110.498
113.425
118.635
125.761
133.274
130.649
118.834
106.423
98.3053
91.7294
294.053
167.036
174.92
164.498
117.079
451.601
342.43
73.506
72.6583
111.102
103.285
98.3229
96.2549
95.8007
97.7983
106.194
119.587
137.174
157.519
204.375
188.191
180.427
85.9331
95.9255
94.7764
310.334
167.435
65.1234
237.098
209.213
199.979
152.04
255.594
76.5419
252.027
96.1756
141.488
121.65
106.352
97.0722
94.6486
94.951
96.4791
111.398
392.346
87.7138
313.76
331.577
351.787
377.577
413.806
470.618
84.387
76.253
510.544
169.089
522.611
507.973
498.168
506.995
514.617
520.394
521.214
519.398
513.075
504.105
499.685
508.082
193.859
273.16
91.8094
136.251
73.4397
297.736
94.477
119.249
120.911
122.459
124.086
125.837
127.63
129.197
130.236
130.652
130.649
130.607
130.463
130.096
129.275
127.577
124.955
122.222
119.568
116.937
114.295
111.621
108.895
106.147
103.396
100.684
98.0225
95.4464
92.9587
90.587
88.3387
86.2224
84.2567
82.4685
80.9006
79.6263
78.7754
78.4777
78.4959
78.5757
78.7953
79.3039
80.3885
82.5629
84.4943
86.1474
88.0362
90.024
91.7808
92.8659
93.5415
97.8471
106.239
118.249
128.774
130.668
124.613
118.393
113.417
110.495
108.999
107.919
106.976
106.549
107.119
108.155
109.336
110.968
113.911
118.744
124.757
129.936
127.247
117.349
106.107
98.2903
94.2959
93.6822
92.748
91.1931
89.2396
87.3404
85.6598
83.8224
81.6675
80.3324
79.7003
79.4257
79.3224
79.2958
79.422
80.1202
81.2835
82.7786
84.5064
86.4292
88.5118
90.7315
93.079
95.5478
98.1164
100.783
103.527
106.338
109.183
112.03
114.832
117.569
120.257
122.927
125.714
128.466
130.034
130.779
131.088
131.171
131.097
129.919
128.776
128.462
127.565
164.357
113.634
94.549
119.576
117.042
79.4375
112.436
170.246
204.326
79.6406
88.7869
90.9357
89.7596
93.0017
91.3046
292.698
291.526
180.601
233.293
195.078
184.097
221.12
163.511
167.13
275.766
238.072
159.164
77.9242
256.859
166.777
202.171
214.552
183.925
184.202
291.875
91.8111
90.3017
83.8956
174.131
148.422
126.835
109.583
98.242
94.9745
95.6441
98.4401
104.395
109.102
113.635
178.95
107.682
75.4506
108.783
104.176
97.7437
94.5987
93.8205
97.33
110.159
130.978
115.948
81.7224
269.231
288.378
304.862
322.481
79.2796
142.64
85.388
220.181
89.6789
255.15
123.583
292.635
309.653
329.061
357.43
390.573
438.309
495.324
83.4218
82.9492
118.546
122.248
124.349
127.143
129.686
131.579
132.916
133.992
134.393
134.367
134.188
133.649
132.377
129.802
126.932
124.182
121.503
118.819
116.041
113.145
110.198
107.259
104.366
101.543
98.8109
96.1838
93.6758
91.2991
89.0687
87.0013
85.1213
83.4646
82.0699
81.0062
80.3551
80.1768
80.2028
80.3159
80.6382
81.3881
82.9208
84.5161
85.9181
87.2926
88.5597
89.7887
90.9035
91.8895
92.7848
184.087
176.522
94.1194
97.8006
105.257
115.005
122.654
125.279
123.065
118.695
114.424
111.392
109.436
108.078
107.093
106.735
107.235
108.32
109.794
111.95
114.924
118.742
122.62
123.055
120.052
113.697
105.015
98.1907
94.8373
93.6287
177.939
555.671
531.629
499.654
471.826
453.155
437.16
437.378
435.417
446.498
463.473
495.035
516.834
519.977
367.27
412.714
508.886
567.176
116.663
117.982
121.075
123.939
126.422
128.739
130.796
132.41
133.461
133.939
133.94
133.877
133.62
132.924
131.393
128.744
126.071
123.466
120.855
118.213
115.481
112.672
109.824
106.98
104.16
101.391
98.6879
96.0763
93.5631
91.1719
88.9143
86.8071
84.8743
83.1494
81.6733
80.5027
79.725
79.4149
79.4308
79.5133
79.7661
80.385
81.6948
83.4236
84.862
86.2308
87.5522
88.7943
89.9603
90.9777
91.8963
92.7698
236.558
200.33
273.886
273.722
89.0209
88.6787
79.5998
87.5642
199.63
180.869
114.536
191.968
90.3218
111.689
109.168
107.678
102.064
95.2409
92.3621
91.751
97.99
115.776
306.07
60.2432
215.295
252.009
275.802
291.752
112.153
168.555
138.571
116.599
101.055
93.227
93.7128
96.463
102.905
108.202
109.724
83.4462
86.815
88.7069
273.604
201.047
218.733
201.964
181.927
114.453
117.794
120.435
123.764
126.238
128.46
131.217
133.445
134.83
135.657
135.816
135.722
135.334
134.359
132.397
130.142
127.718
125.156
122.457
119.612
116.649
113.651
110.649
107.673
104.746
101.892
99.1305
96.4793
93.9517
91.56
89.3256
87.267
85.4091
83.7842
82.4294
81.3976
80.7418
80.4993
80.5163
80.6266
80.9869
81.8225
83.2932
84.5962
85.8029
86.9803
88.1261
89.2708
90.413
91.5373
92.5882
93.5526
264.547
281.158
296.135
313.832
335.754
363.406
400.661
459.675
489.05
86.1604
255.49
191.159
236.98
254.877
85.8105
80.2583
346.145
376.066
411.593
486.565
99.0959
232.132
307.294
271.73
251.479
239.741
232.877
227.741
223.574
223.888
224.562
228.459
235.179
245.518
264.53
292.71
418.473
422.228
93.6239
94.585
97.5805
102.842
108.19
112.727
117.085
119.864
118.665
116.449
113.232
110.4
108.522
107.456
107.213
107.593
108.774
110.791
113.948
116.954
118.626
118.336
114.606
110.351
106.261
102.351
97.8627
95.2203
94.4095
94.4276
116.991
119.358
122.025
124.703
127.355
129.941
132.157
133.804
134.868
135.349
135.342
135.194
134.673
133.455
131.393
129.171
126.815
124.324
121.686
118.912
116.038
113.132
110.225
107.34
104.493
101.702
98.9842
96.3582
93.8373
91.4357
89.1734
87.0735
85.16
83.4651
82.0277
80.8943
80.1256
79.7671
79.7696
79.8371
80.1075
80.7942
82.1884
83.5661
84.8054
85.9875
87.1464
88.2953
89.4367
90.5832
91.6635
92.6698
93.622
200.093
218.651
254.953
85.725
83.2149
93.6814
92.6826
102.778
97.455
94.4888
95.944
95.828
95.7107
98.9717
97.1703
104.026
100.953
113.748
108.439
118.501
118.288
112.88
116.455
108.538
109.881
108.408
108.351
112.448
109.614
118.203
116.117
115.541
118.516
105.892
110.405
99.5437
102.429
95.4492
97.0882
92.8031
93.6695
95.1539
95.0567
90.594
91.7509
88.1326
89.377
85.6472
86.901
83.1232
84.3798
80.8724
81.9212
79.7694
80.1257
79.697
79.6619
80.8727
80.1029
83.3759
81.9756
86.9218
85.0363
91.2561
89.0032
96.1811
93.6575
101.526
98.8036
107.207
104.34
113.032
110.109
118.862
115.958
124.466
121.716
129.421
127.05
133.305
131.515
135.463
134.729
135.664
135.702
134.067
135.111
130.38
132.502
125.119
127.741
119.858
122.458
114.944
117.494
109.013
112.033
103.046
106.504
93.1314
97.0063
91.1483
91.57
124.503
99.5588
200.548
159.335
270.428
242.604
278.133
278.337
335.153
300.219
435.773
383.075
544.814
200.007
227.826
180.65
184.505
176.788
178.471
174.996
175.433
175.373
174.554
177.322
176.246
184.025
179.855
372.984
197.682
512.253
366.666
460.189
396.547
484.329
544.547
369.383
410.057
310.692
332.553
280.698
286.583
234.38
266.193
151.619
189.86
97.9772
119.234
91.0149
90.741
95.5705
92.1935
105.552
102.058
110.908
108.036
116.238
113.596
121.423
119.031
126.646
124.175
131.62
128.98
135.037
133.687
136.129
135.869
135.429
135.987
132.45
134.214
127.975
130.369
122.501
125.332
116.567
119.559
110.541
113.553
104.606
107.554
98.9686
101.733
93.7758
96.311
89.1626
91.3862
85.2954
87.1241
82.3858
83.705
80.7049
81.3758
80.42
80.4036
81.0183
80.5779
82.9455
81.8596
85.4035
84.1512
87.9071
86.666
90.3674
89.134
91.5564
461.824
389.303
236.579
75.8713
95.9457
205.431
95.2634
346.144
510.667
586.603
588.414
679.409
679.455
742.208
742.669
72.022
214.727
235.999
217.237
218.635
63.0824
67.1406
63.312
103.956
93.7052
98.7476
108.733
97.2288
102.887
113.566
100.367
106.778
117.834
102.376
110.022
198.392
83.4466
496.646
85.3455
458.397
79.7151
136.852
185.893
84.2823
89.3771
109.682
70.9668
58.4113
221.513
126.71
70.6703
118.385
327.748
120.978
393.45
100.769
83.9116
250.97
75.7651
307.142
70.77
172.117
72.3218
70.7878
80.887
103.46
501.859
363.115
153.601
116.507
113.975
237.938
456.446
323.487
94.7792
565.918
123.218
84.9333
118.163
92.8896
63.0835
327.192
108.564
126.215
82.1265
45.7696
43.3534
106.821
)
;

boundaryField
{
    wall
    {
        type            zeroGradient;
    }
    outlet
    {
        type            waveTransmissive;
        gamma           1.3;
        fieldInf        0.0001;
        lInf            1;
        value           nonuniform List<scalar> 
33
(
94.5322
94.4185
94.3027
97.5142
95.7399
102.493
99.4655
112.07
106.84
116.751
116.543
111.213
114.736
106.935
108.258
106.806
106.75
110.786
107.995
116.456
114.401
113.834
116.764
104.327
108.774
98.0735
100.916
94.0412
95.6551
93.7525
93.6557
94.5345
93.8616
)
;
    }
    inlet
    {
        type            fixedValue;
        value           uniform 612;
    }
    frontAndBackPlanes
    {
        type            empty;
    }
}


// ************************************************************************* //
