/*--------------------------------*- C++ -*----------------------------------*\
| =========                 |                                                 |
| \\      /  F ield         | OpenFOAM: The Open Source CFD Toolbox           |
|  \\    /   O peration     | Version:  2212                                  |
|   \\  /    A nd           | Website:  www.openfoam.com                      |
|    \\/     M anipulation  |                                                 |
\*---------------------------------------------------------------------------*/
FoamFile
{
    version     2.0;
    format      ascii;
    arch        "LSB;label=32;scalar=64";
    class       volScalarField;
    location    "0.0003";
    object      epsilon;
}
// * * * * * * * * * * * * * * * * * * * * * * * * * * * * * * * * * * * * * //

dimensions      [0 2 -3 0 0 0 0];

internalField   nonuniform List<scalar> 
2681
(
229445
229445
229447
229445
229445
229445
229445
229445
229445
229445
229445
229445
229445
229445
229445
229445
229445
229445
229445
229445
229445
229445
229445
229445
229445
229445
229445
229445
229445
229445
229445
229445
229445
229445
229445
229445
229445
229445
229445
229445
229445
229445
229445
229445
229445
229445
229445
229445
229445
229445
229445
229445
229445
229445
229445
229445
229445
229445
229445
229445
229445
229445
229445
229445
229445
229445
229445
229445
229445
229449
229445
229445
229445
229445
229445
229445
251240
229445
229445
229445
229445
229445
229445
229445
229445
229445
229445
229445
229445
229445
229445
229445
229445
229445
229445
229445
229445
229445
229445
229445
229445
229445
229445
229445
229445
229445
229445
229445
229445
229445
229445
229445
229445
229445
229445
229445
229445
229445
229445
229445
229445
229445
229445
229445
229445
229445
229445
229445
229445
229445
229445
229445
229445
229445
229445
229445
229445
229445
229445
229445
229445
229445
229445
229445
229445
229445
229445
229445
229445
229445
229445
229445
229445
229445
229445
229445
229445
229445
229445
229445
229445
229445
229445
229445
229445
229445
229445
229445
229445
229445
229445
229445
229445
229445
229445
229445
229445
229445
229445
229445
229445
229445
229445
229445
229445
229445
229445
229445
229445
229445
229445
229445
229445
229445
229445
229445
229445
229445
229445
229445
229445
229445
229445
229445
229445
229445
229445
229445
229445
229445
229445
229445
229445
229445
229445
229445
229445
229445
229445
229445
229445
229445
229445
229445
229445
229445
229445
229445
229445
229445
229445
229445
229445
229445
229445
229445
229445
229445
229445
229445
229445
229445
229445
229445
229445
229445
229445
229445
229445
229445
229445
229445
229445
229445
229445
229445
229445
229445
229445
229445
229445
229445
229445
229445
229445
229445
229445
229445
229445
229445
229445
229445
229445
229445
229445
229445
229445
229445
229445
229445
229445
229445
229445
229445
229445
229445
229445
229445
229445
229445
229445
229445
229445
229445
229445
229445
229445
229445
229445
229445
229445
229445
229445
229445
229445
229445
229445
229445
229445
229445
229445
229445
229445
229445
229445
229445
229445
229445
229445
229445
229445
229445
229445
229447
229445
229445
229445
229445
229445
229445
229445
229445
229445
229445
229445
229445
229445
229445
229445
229445
229445
229445
229445
229445
229445
229445
229445
229445
229445
229445
229613
229445
229445
229445
229445
229445
229445
229445
229445
229445
229445
229445
229445
229445
229445
229445
229445
229445
229445
229445
229445
229445
229445
229445
229445
229445
229445
229445
229445
229445
229445
229445
229445
229445
229445
229445
229445
229445
229445
229445
229445
229445
229445
229445
229445
229445
229445
229445
229445
229445
229445
229445
229445
229445
229445
229445
229445
229445
229445
229445
229445
229445
229445
229445
229445
229445
229445
229445
229445
229445
229445
229445
229445
229445
229445
229445
229445
229445
229445
229445
229445
229445
229445
229445
229445
229445
229445
229445
229445
229445
229445
229445
229445
229445
229445
229445
229445
229445
229445
229445
229445
229445
229445
229445
229445
229445
229445
229445
229445
229445
229445
229445
229445
229445
229445
229445
229445
229445
229445
229445
229445
229445
229445
229445
229445
229445
229445
229445
229445
229445
229445
229445
229445
229445
229445
229445
229445
229445
229445
229445
229445
229445
229445
229445
229445
229445
229445
229445
229445
229445
229445
229445
229445
229445
229445
229445
229445
229445
229445
229445
229445
229445
229445
229445
229445
229445
229445
229445
229445
229445
229445
229445
229445
229445
229445
229445
229445
229445
229552
229445
229445
229445
229445
229445
229445
229445
229445
229445
229445
229445
229445
229445
229445
229445
229445
229445
229445
229445
229445
229445
229445
229445
229445
229445
229445
229445
229445
229445
229445
229445
229445
229445
229445
229445
229445
229445
229445
229445
229445
229445
229445
229445
229445
229445
229445
229445
229445
229445
229445
229445
229445
229445
229445
229445
229445
229445
229445
229445
229445
229444
229444
229444
229445
229444
229444
229445
229445
229445
229445
229445
229445
229445
229445
229445
229445
229445
229445
229445
229445
229445
229445
229445
229445
229445
229445
229445
229445
229445
229445
229445
229445
229445
229445
229445
229445
229445
229445
229445
229445
229445
229445
229445
229445
229445
229445
229445
229445
229445
229445
229445
229445
229445
229445
229445
229445
229445
229445
229445
229445
229445
229445
229445
229445
229445
229445
229445
229445
229445
229445
229445
229445
229445
229445
229445
229445
229445
229445
229445
229445
229445
229445
229445
229445
229445
229445
229445
229445
229445
229445
229445
229445
229445
229445
229445
229445
229445
229445
229445
229445
229445
229445
229445
229445
229445
229445
229445
229445
229445
229445
229445
229445
229445
229445
229445
229446
229445
229445
229445
229444
229445
229445
229445
229445
229445
229445
229445
229445
229445
229445
229445
229445
229445
229445
229445
229445
229445
229445
229465
229445
229445
229445
229445
229445
229445
229445
229445
229445
229445
229445
229445
229445
229445
229435
229444
229435
229445
229445
229445
229445
229445
229445
229445
229445
229445
229445
229445
229445
229445
229445
229445
229445
229445
229445
229445
229445
229445
229445
229445
229445
229445
229445
229445
229445
229445
229445
229445
229445
229445
229445
229445
229445
229445
229445
229445
229445
229445
229445
229445
229445
229445
229445
229445
229445
229445
229445
229445
229445
229445
229445
229445
229445
229445
229445
229445
229445
229445
229445
229445
229445
229445
229445
229445
229445
229445
229445
229445
229445
229445
229445
229445
229435
229444
229435
229435
229435
229435
229435
229445
229445
229445
229445
229445
229445
229445
229445
229445
229445
229445
229445
229445
229445
229445
229445
229445
229445
229445
229445
229445
229445
229445
229445
229445
229445
229445
229445
229445
229445
229445
229445
229445
229445
229445
229445
229445
229445
229445
229445
229445
229445
229445
229445
229445
229445
229445
229445
229445
229445
229445
229445
229445
229445
229445
229445
229445
229445
229445
229445
229445
229445
229445
229445
229445
229445
229445
229445
229445
229445
229445
229445
229445
229445
229445
229445
229445
229445
229445
229445
229445
229445
229445
229445
229445
229445
229445
229445
229445
229445
229445
229445
229445
229445
229445
229445
229445
229445
229445
229445
229445
229445
229445
229445
229445
229445
229445
229445
229445
229445
229444
229435
229445
229445
229445
229445
229445
229445
229445
229445
229445
229445
229445
229445
229445
229445
229445
229445
229445
229445
229445
229445
229445
229444
229435
229406
229406
229445
229445
229445
229445
229445
230048
229445
229446
229445
229445
229445
229445
229445
229445
229445
229445
229445
229445
229445
229445
229445
229445
229445
229445
229445
229445
229445
229445
229445
229445
229445
229445
229445
229445
229445
229445
229445
229445
229445
229445
229445
229445
229445
229445
229445
229445
229445
229445
229445
229445
229445
229445
229445
229445
229445
229445
229445
229445
229445
229445
229445
229445
229445
229445
229445
229445
229445
229445
229445
229445
229445
229445
229445
229445
229445
229445
229445
229445
229445
229445
229445
229445
229445
229445
229406
229406
229406
229406
229406
229406
229445
229445
229445
229445
229445
229445
229445
229445
229445
229445
229445
229445
229445
229445
229445
229445
229445
229445
229445
229445
229445
229445
229445
229445
229445
229445
229445
229445
229445
229445
229445
229445
229445
229445
229445
229445
229445
229445
229445
229445
229445
229445
229445
229445
229445
229445
229445
229445
229445
229445
229445
229445
229445
229445
229445
229445
229445
229445
229445
229445
229445
229445
229445
229445
229445
229445
229445
229445
229445
229445
229445
229445
229445
229445
229445
229445
229445
229445
229445
229445
229445
229445
229445
229445
229445
229445
229445
229445
229445
229445
229406
229445
229445
229445
229445
229445
229445
229445
229445
229445
229445
229445
229445
229445
229445
229445
229445
229445
229445
229445
229445
229445
229445
229445
229445
229445
229445
229445
229445
229445
229406
229445
229445
229445
229445
229445
229445
229445
229445
229445
229445
229445
229445
229445
229445
229445
229094
229093
229445
229445
229445
229446
229445
229445
229445
229445
229445
229445
229446
229445
229445
229445
229445
229445
229445
229445
229445
229445
229445
229445
229445
229445
229445
229445
229445
229445
229445
229445
229445
229445
229445
229445
229445
229445
229445
229445
229445
229445
229445
229445
229445
229445
229445
229445
229445
229445
229445
229445
229445
229445
229445
229445
229445
229445
229445
229445
229445
229445
229445
229445
229445
229445
229445
229445
229445
229445
229445
229445
229445
229445
229445
229445
229445
229444
229406
229435
229445
229445
229445
229445
229445
229445
229445
229445
229445
229445
229445
229445
229445
229445
229445
229445
229445
229095
229095
229096
229096
229095
229095
229093
229094
229445
229445
229445
229445
229445
229445
229445
229445
229445
229445
229445
229445
229445
229445
229445
229445
229445
229445
229445
229445
229444
229445
229406
229435
229445
229445
229445
229448
229445
229445
229445
229445
229445
229445
229445
229445
229445
229445
229445
229445
229445
229445
229445
229445
229445
229445
229445
229445
229445
229445
229445
229445
229445
229445
229445
229445
229445
229445
229445
229445
229445
229445
229445
229445
229445
229445
229445
229445
229445
229445
229445
229445
229445
229445
229445
229445
229445
229445
229445
229445
229445
229445
229445
229445
229445
229445
229445
229445
229445
229445
229445
229445
229445
229445
229445
229445
229445
229445
229445
229445
229445
229445
229445
229445
229445
229445
229445
229445
229445
229445
229445
229445
229445
229445
229445
229445
229445
229445
229445
229445
229445
236937
229445
229445
229445
229445
229445
229445
229445
229445
229445
229445
229445
229446
229446
229445
229093
229093
229466
229445
229445
229445
229445
229445
229601
229445
229445
229445
229445
229445
229446
229445
229445
229445
229445
229445
229445
229445
229445
229445
229445
229445
229446
229447
229737
229445
229445
229445
229445
229445
229445
229445
229445
229446
229446
229446
229446
229446
229446
229446
229446
229446
229446
229446
229446
229446
229446
229446
229446
229446
229446
229446
229446
229446
229446
229446
229446
229446
229446
229446
229446
229446
229446
229446
229446
229446
229446
229446
229446
229446
229446
229446
229447
229446
229446
229446
229446
229446
229446
229446
229446
229446
229446
229446
229446
229446
229446
229446
229446
229446
229446
229446
229446
229446
229446
229446
229446
229446
229446
229094
229406
229436
229445
229446
229446
229446
229446
229446
229446
229446
229446
229446
229446
229446
229446
229446
229446
229446
229446
229446
229446
229446
229446
229446
229446
229559
229448
229448
228457
228458
228460
228462
228464
228464
228464
228464
228462
228460
228458
228458
228459
229445
229446
229446
229446
229446
229446
229446
229446
229446
229446
229446
229446
229446
229446
229446
229446
229446
229446
229446
229446
229446
229446
229445
229436
229406
229093
228458
229445
229445
229550
229445
229445
229454
229727
229445
229445
229445
229445
229445
229445
229445
229445
229445
229445
229445
229448
229446
229452
229445
229445
229445
229445
229445
229445
229446
229446
229446
229445
229445
229445
229445
229445
229445
229445
229446
229446
229446
229446
229447
229447
229445
229445
229445
229445
229446
229446
229449
229446
229446
229446
229446
229446
229446
229446
229446
229446
229446
229446
229446
229446
229446
229446
229446
229446
229446
229451
229446
229446
229446
229446
229446
229446
229446
229446
229446
229446
229446
229446
229446
229446
229446
229446
229446
229446
229446
229446
229446
229446
229446
229446
229446
229446
229446
229446
229446
229446
229446
229446
229446
229446
229446
229446
229446
229446
229446
229446
229446
229446
229446
229446
229446
229446
229446
229446
229446
229446
229446
229446
229446
229446
229446
229446
229446
229446
229446
229446
229446
229446
223795
223809
229167
228555
229509
229445
229506
229446
229446
229445
229445
229540
229529
229524
229518
229515
229513
229512
229512
229513
229514
229515
229516
229518
229520
229521
229524
229519
229521
229577
229515
229506
229510
229512
229513
229512
229511
229511
229510
229509
229509
229508
229508
229509
229509
229510
229511
229513
229516
229522
229531
229536
229535
229530
229514
229520
229445
229506
229531
229533
229529
229522
229517
229512
229511
229509
229509
229508
229508
229508
229508
229508
229508
229509
229509
229511
229513
229515
229517
229519
229518
229526
229515
229452
229531
229520
229521
229521
229519
229517
229515
229513
229513
229512
229513
229515
229518
229522
229527
229535
229555
229546
229445
229526
229505
229509
229513
229515
229515
229514
229512
229512
229511
229511
229511
229511
229511
229511
229511
229511
229511
229512
229512
229512
229512
229511
229511
229511
229511
229511
229511
229511
229510
229509
229509
229508
229508
229507
229507
229508
229508
229508
229508
229508
229508
229508
229509
229510
229510
229511
229512
229513
229514
229515
229516
229516
229517
229519
229520
229521
229524
229525
229527
229526
229521
229511
229498
229445
229445
229558
235766
229447
229559
229570
229559
229541
229528
229519
229526
229527
229511
229518
229514
229513
229512
229511
229510
229509
229509
229509
229509
229509
229509
229509
229509
229509
229509
229509
229510
229510
229510
229509
229509
229166
229471
229500
229445
229445
229445
229445
229971
229445
229446
229520
229525
229525
229548
229559
229445
229445
229445
229445
223797
223795
223801
223807
223811
223813
223813
223811
223807
223801
223794
229445
229445
229500
229502
229615
229445
229445
229445
229499
229527
229531
229445
229601
229556
229553
229543
229541
229537
229531
229525
229520
229516
229514
229512
229511
229510
229510
229510
229509
229509
229509
229509
229510
229510
229510
229510
229509
229509
229500
229471
229445
229445
229445
229445
229447
229445
229445
229445
229445
229445
229583
223813
228554
229445
229445
229445
229445
224084
224088
234788
229445
229445
229445
229445
229445
229445
234611
235576
229445
233329
229445
229445
229445
418689
229445
229445
233522
232652
233229
233560
233551
233560
233560
233560
233560
233558
233559
233558
233558
233564
233559
233592
233575
233669
233621
233860
233744
234206
234012
234670
234410
234567
234682
234657
234604
235020
234703
234390
235970
233879
233424
232870
233802
232992
232807
234175
232741
230623
220464
220512
220475
220481
220473
220490
220488
220488
220490
220473
220481
220478
220465
221036
228530
221042
220518
229445
229445
230364
229446
229445
229445
229445
228528
233229
232652
233551
233522
233561
233560
233561
233561
233558
233560
233553
233556
233544
233549
233533
233539
233534
233532
233555
233541
233620
233586
233711
233678
233550
233726
229445
233049
234989
229445
234076
234038
235170
234534
235642
235668
233988
234366
234571
234366
235107
236962
236356
233954
235568
234035
233730
234247
234193
234158
234227
234006
234099
233889
233947
233809
233848
233736
233779
233655
233700
233586
233622
233537
233562
233504
233521
233491
233496
233484
233489
233474
233479
233484
233476
233524
233501
233582
233553
233617
233607
233615
233620
233625
233620
233647
233636
233651
233658
233638
233647
233623
233628
233610
233615
233611
233610
233632
233616
233682
233646
233761
233704
233677
233745
233211
233448
229445
233691
229445
235042
235412
234375
234694
233930
234110
233729
233808
233693
233699
233771
233717
233963
233858
234029
234032
234181
233916
229459
236339
229445
233695
234036
233933
233873
233804
233889
233632
233712
233534
233578
233507
233522
233481
233496
233501
233451
233530
233501
233686
233585
234189
233897
234038
234379
233015
233273
233039
234547
234191
234729
234739
234273
234582
233756
233944
233588
233652
233519
233546
233493
233494
233533
233512
233596
233549
233642
233591
233675
233660
233515
233651
233549
233264
235925
229445
236032
234023
235975
234030
233900
233997
234030
233860
233923
233753
233803
233691
233706
233746
233697
233995
233836
234448
234203
229445
235203
239662
472053
226024
226028
229445
229445
400801
394952
431189
425827
422198
417774
414429
412329
411370
411055
411383
412226
413402
414640
415971
417343
418258
417618
412679
412250
437883
433988
229445
229446
430782
396019
395801
405131
409344
410270
409842
409046
408670
407692
407869
407258
406955
406556
406467
406869
407600
408666
410148
412553
417220
426563
435611
440526
442112
440947
434394
407523
390953
408718
416066
427376
429732
424975
417067
410782
408162
407020
406455
406083
405900
406075
406235
406524
406984
407571
408459
409766
411375
413204
415017
415862
413801
407000
411501
465976
229527
459747
445289
414847
413024
417592
417973
416375
414240
412477
411462
411109
411048
411598
413083
415799
419696
424697
431743
434195
431626
229445
446002
400138
393428
403062
409488
411504
411651
411028
410348
409824
409477
409165
409015
408932
408925
409009
409117
409241
409417
409735
409885
409778
409665
409483
409246
409100
409056
409110
409019
408723
408238
407655
407051
406529
406167
405965
405913
405977
406090
406189
406279
406392
406592
406905
407296
407764
408373
409110
409901
410762
411607
412401
413147
414070
415036
416162
417530
419124
420711
422102
423021
422539
418159
408285
406570
425809
442469
441633
433912
429940
451074
456933
434358
437265
440436
449826
465058
460152
444176
427235
415226
414245
429429
402149
386449
403270
405471
410527
411115
410334
409368
408497
407884
407459
407245
407191
407252
407357
407465
407552
407629
407700
407759
407799
407814
407823
407827
407826
407808
407769
407390
406800
400898
398058
229445
229445
229445
229445
229576
229446
229445
243807
234728
232881
232642
232527
232513
232506
232503
232504
232504
232503
232505
232512
232526
232643
232884
234732
243813
403059
229445
434788
401684
405014
405957
409695
425976
426621
417226
423895
433008
426693
419510
418593
418712
421732
427673
428912
425652
421519
417720
414531
412087
410385
409292
408616
408184
407937
407817
407776
407763
407771
407783
407795
407805
407814
407819
407820
407807
407773
407396
406801
400893
398050
403054
229445
229445
229445
229445
229445
229445
229445
229445
433808
229445
229445
241748
229951
229445
252555
661444
229469
243390
689487
229449
261803
247331
229445
229445
229445
229445
229605
229445
229445
229445
229755
229445
229445
229445
229445
619695
229445
229445
229445
229445
229445
229449
229445
229445
698424
229445
229445
229445
247870
229446
250463
229682
229445
229654
229453
238009
229445
229445
229445
229447
229445
229445
229445
229445
243115
229445
229445
229445
229445
229445
229445
)
;

boundaryField
{
    wall
    {
        type            epsilonWallFunction;
        blending        stepwise;
        value           nonuniform List<scalar> 
264
(
418689
472053
400801
394952
431189
425827
422198
417774
414429
412329
411370
411055
411383
412226
413402
414640
415971
417343
418258
417618
412679
412250
437883
433988
430782
396019
395801
405131
409344
410270
409842
409046
408670
407692
407869
407258
406955
406556
406467
406869
407600
408666
410148
412553
417220
426563
435611
440526
442112
440947
434394
407523
390953
408718
416066
427376
429732
424975
417067
410782
408162
407020
406455
406083
405900
406075
406235
406524
406984
407571
408459
409766
411375
413204
415017
415862
413801
407000
411501
465976
459747
445289
414847
413024
417592
417973
416375
414240
412477
411462
411109
411048
411598
413083
415799
419696
424697
431743
434195
431626
446002
400138
393428
403062
409488
411504
411651
411028
410348
409824
409477
409165
409015
408932
408925
409009
409117
409241
409417
409735
409885
409778
409665
409483
409246
409100
409056
409110
409019
408723
408238
407655
407051
406529
406167
405965
405913
405977
406090
406189
406279
406392
406592
406905
407296
407764
408373
409110
409901
410762
411607
412401
413147
414070
415036
416162
417530
419124
420711
422102
423021
422539
418159
408285
406570
425809
442469
441633
433912
429940
451074
456933
434358
437265
440436
449826
465058
460152
444176
427235
415226
414245
429429
402149
386449
403270
405471
410527
411115
410334
409368
408497
407884
407459
407245
407191
407252
407357
407465
407552
407629
407700
407759
407799
407814
407823
407827
407826
407808
407769
407390
406800
400898
398058
403059
434788
401684
405014
405957
409695
425976
426621
417226
423895
433008
426693
419510
418593
418712
421732
427673
428912
425652
421519
417720
414531
412087
410385
409292
408616
408184
407937
407817
407776
407763
407771
407783
407795
407805
407814
407819
407820
407807
407773
407396
406801
400893
398050
403054
433808
661444
689487
619695
698424
)
;
    }
    outlet
    {
        type            inletOutlet;
        inletValue      uniform 266000;
        value           nonuniform List<scalar> 
20
(
243807
234728
232881
232642
232527
232513
232506
232503
232504
232504
232503
232505
232512
232526
232643
232884
234732
243813
403059
403054
)
;
    }
    frontAndBackPlanes
    {
        type            empty;
    }
}


// ************************************************************************* //
