/*--------------------------------*- C++ -*----------------------------------*\
| =========                 |                                                 |
| \\      /  F ield         | OpenFOAM: The Open Source CFD Toolbox           |
|  \\    /   O peration     | Version:  2212                                  |
|   \\  /    A nd           | Website:  www.openfoam.com                      |
|    \\/     M anipulation  |                                                 |
\*---------------------------------------------------------------------------*/
FoamFile
{
    version     2.0;
    format      ascii;
    arch        "LSB;label=32;scalar=64";
    class       surfaceScalarField;
    location    "0.098";
    object      phi;
}
// * * * * * * * * * * * * * * * * * * * * * * * * * * * * * * * * * * * * * //

dimensions      [1 0 -1 0 0 0 0];

oriented        oriented;

internalField   nonuniform List<scalar> 
4475
(
0.000622868
-0.000627695
0.000794964
-0.000790138
7.46049e-05
-0.000240958
-1.5491e-06
0.000167903
0.00141688
-0.0016155
0.000144784
5.38366e-05
-0.000255802
0.000840716
0.000149407
-0.000734321
-0.000556808
0.000506357
0.000535522
-0.000485071
0.000471781
-0.000349553
-0.000533768
0.00041154
-0.000152699
0.000145808
0.000678651
-0.00067176
-0.000423967
-0.00057956
0.000503829
0.000499697
0.00052889
-0.00058222
-0.000503478
-0.000442101
-8.39806e-06
5.81049e-05
0.000392394
-7.72922e-05
7.24218e-05
-0.00043723
-0.000491477
6.68448e-05
-3.16061e-05
0.000456238
-0.000507998
2.07206e-05
-4.19911e-06
-0.000522708
9.859e-06
4.85057e-06
-0.000534079
5.65881e-06
5.71284e-06
-0.000540707
3.88002e-06
2.7475e-06
6.45617e-06
-0.000530502
-1.66607e-05
0.000517598
-4.1693e-05
-0.000512226
3.63208e-05
0.000541834
-1.77798e-05
0.000536187
9.52738e-06
0.000523902
1.79439e-05
0.000510426
2.33341e-05
0.000500755
3.03921e-05
0.000535814
3.17855e-05
0.000461207
-2.68546e-06
0.000430274
2.25357e-05
0.000540221
6.57461e-05
-0.000175694
0.000509651
8.37944e-06
2.21909e-05
0.000704102
-0.000712971
-0.000143831
-0.00052752
-4.46755e-05
0.000502294
3.88523e-06
3.47199e-06
0.000502586
1.33661e-06
-1.629e-06
0.000511394
-2.50906e-06
-6.29912e-06
0.000529808
-6.64482e-06
-1.17691e-05
0.000570704
-1.84127e-05
-2.24828e-05
0.000645168
-3.44405e-05
-4.0024e-05
0.000778699
-6.15696e-05
-7.19606e-05
0.000911759
-6.29502e-05
-7.01106e-05
0.00103321
-6.12509e-05
-6.01976e-05
0.00107862
-2.47146e-05
-2.06925e-05
0.00109264
-1.17384e-05
-2.28698e-06
0.00104238
1.78718e-05
3.23928e-05
0.000999088
1.48974e-05
2.83899e-05
0.000967598
8.97498e-06
2.25151e-05
2.55515e-06
0.000948389
1.66543e-05
-0.00100557
0.000979037
2.90901e-05
-0.00102989
3.32924e-05
-0.00102525
1.02542e-05
-0.00100554
-1.83315e-06
-0.000959124
-5.81557e-05
-0.000893886
-8.99529e-05
-0.000836081
-0.000119055
-0.000779284
-0.000119747
-0.00070617
-0.000134683
-0.000612198
-0.000128413
-0.000555523
-7.50875e-05
-0.000524814
-3.73533e-05
-0.000511626
-1.56974e-05
-0.000506705
-3.58449e-06
-0.000513581
1.07613e-05
-0.000540401
3.51993e-05
-0.000426057
0.000102356
-0.0002167
-0.000451064
8.31118e-05
-0.000440759
6.21172e-05
-0.000457458
3.57067e-05
-1.90078e-05
-0.000498177
9.11231e-06
-0.000514231
1.18549e-05
-0.000527441
1.80602e-05
-0.00053801
1.62823e-05
-0.000541465
6.20239e-06
-0.000549028
-9.09704e-06
5.27363e-07
1.17615e-05
0.000936111
1.84504e-05
0.000961103
0.000547932
-2.86641e-05
-0.000537048
0.000539529
1.79305e-05
0.000527952
2.95208e-05
0.000515406
3.58809e-05
0.000509891
3.59062e-05
0.000509012
3.26646e-05
0.000483296
2.30309e-05
0.000477395
2.84366e-05
0.000505899
3.72419e-05
0.000506478
2.16122e-05
0.000503791
6.15852e-06
0.000508522
-6.3602e-06
0.000522931
-2.07072e-05
0.00055441
-4.3248e-05
0.000612729
-8.08019e-05
0.000701605
-0.0001289
0.000766308
-0.000136664
0.000821408
-0.00012521
0.000877348
-0.000116138
0.000944943
-8.82881e-05
0.000997903
-5.52351e-05
0.00102591
3.88462e-06
0.00103325
2.10237e-05
0.0010101
4.56822e-05
0.000982434
4.43159e-05
-6.14312e-05
-0.000526019
7.52249e-05
3.25786e-05
0.000961617
-9.97171e-05
-0.000489234
-0.000548286
-4.54181e-05
-0.00103686
0.00101299
4.23192e-05
-0.00103237
2.46046e-05
-0.00100268
3.59844e-06
-0.000950217
-4.22094e-05
-0.000871348
-8.07025e-05
-0.000819657
-0.000109847
-0.000784937
-0.000124673
-0.000768015
-0.000135976
-0.000742472
-0.00014529
-0.000723236
-0.000153919
-0.000703681
-0.000147968
-0.000648595
-0.000130173
-0.000582383
-0.000103565
-0.000546614
-5.14671e-05
-0.000529677
-2.05212e-05
-0.000523667
4.75108e-06
-0.000520136
3.16685e-05
-0.000480965
6.31852e-05
-0.000464343
6.64902e-05
-0.000466099
6.38727e-05
-0.000477399
4.70072e-05
-0.000500578
3.22912e-05
-0.000519394
3.06709e-05
-0.00053348
3.2146e-05
-0.000547503
3.0305e-05
-0.000557507
1.62069e-05
-0.000562702
-3.90174e-06
-0.000514207
0.000778392
-0.000688151
0.000280071
-0.00057528
-0.000168299
0.000463508
-0.00035173
-0.000339114
0.000388188
0.000302656
0.000400122
0.000635599
8.5667e-05
-0.000131106
-0.00059016
0.000567372
3.95629e-05
0.000548848
3.64549e-05
0.000533577
4.47915e-05
0.000522849
4.66093e-05
0.000514629
4.41255e-05
0.000509015
3.82788e-05
0.000500674
3.1372e-05
0.000498545
3.05653e-05
0.000505322
3.04655e-05
0.000510168
1.67661e-05
0.000519062
-2.73599e-06
0.000538585
-2.5883e-05
0.000576716
-5.88375e-05
0.000642511
-0.000109044
0.000697027
-0.000135318
0.000719173
-0.000151046
0.000735101
-0.000152592
0.000755135
-0.000145244
0.000772095
-0.000133098
0.000803168
-0.000119361
0.000852751
-0.000104818
0.000935378
-7.82794e-05
0.000997514
-4.10713e-05
0.00103314
1.0054e-05
0.00104226
3.52007e-05
0.00101545
5.93823e-05
-2.37304e-05
0.000983602
5.55837e-05
-7.29005e-06
0.000945176
-3.00025e-06
0.000931821
1.24726e-05
0.00094563
-0.000489199
0.000476073
-0.000566435
0.000980531
4.49325e-05
-0.000664371
-0.000604446
0.00075461
-0.000543921
0.000813643
0.000459175
-0.000728897
-0.000112792
-0.000535211
0.000624716
-0.000483297
0.000633236
-0.000774655
0.000518195
0.000510163
-0.000522001
-0.000677961
1.22833e-05
0.000139658
-0.000575911
-3.22099e-05
-1.36541e-05
4.35394e-05
0.000953716
-3.42463e-06
0.000934947
-1.5287e-06
0.000929925
7.46427e-06
0.000936637
3.39736e-05
0.000954022
-0.00102407
5.87138e-05
0.000999335
-0.00101482
3.56777e-05
-0.00098961
1.71097e-05
-0.000930112
-3.48936e-05
-0.00085721
-6.93036e-05
-0.000801468
-9.79516e-05
-0.000769858
-0.000112313
-0.000753055
-0.00012665
-0.000742074
-0.000135654
-0.00073699
-0.00014106
-0.000735455
-0.000146825
-0.000732991
-0.000156384
-0.000726963
-0.000153996
-0.000711231
-0.000145905
-0.000679882
-0.000134914
-0.000614395
-0.000116954
-0.000572509
-6.24074e-05
-0.000545624
-2.21337e-05
-0.000526187
1.22312e-05
-0.000505948
4.2946e-05
-0.000498594
5.91368e-05
-0.000491124
5.64025e-05
-0.000496857
5.27407e-05
-0.000511224
4.66575e-05
-0.000526135
4.55825e-05
-0.000542579
4.85892e-05
-0.000557917
4.56429e-05
-0.000574734
3.30244e-05
8.22328e-06
-0.000586859
9.32652e-05
-7.24102e-05
-0.000627688
0.000606833
0.000727198
-0.000876513
0.00079024
-0.000640925
0.000500322
-0.00048037
0.000515569
0.000638616
7.54774e-05
6.42986e-05
0.00066072
0.000145605
-0.000167709
0.000658205
0.000148323
0.000641243
0.000133371
-0.00011641
0.000621372
0.000113136
0.000610946
0.000100747
-9.03204e-05
0.000608977
8.76357e-05
0.000579954
6.85862e-05
0.000558538
5.78704e-05
0.000543157
6.01733e-05
0.00053289
5.68763e-05
0.000525458
5.15574e-05
0.000522527
4.12099e-05
0.000515185
3.87134e-05
0.000514085
3.16655e-05
0.000522352
2.21987e-05
0.000540951
-1.66156e-06
0.000567033
-2.87861e-05
0.000611573
-7.04402e-05
0.000678066
-0.000125326
0.000706097
-0.000137074
0.000723008
-0.000152229
0.000727569
-0.000155607
0.000729471
-0.000154494
0.0007256
-0.000141374
0.000730932
-0.00013843
0.000742564
-0.000130992
0.000757953
-0.000120207
0.000788646
-0.000108973
0.000845636
-9.80618e-05
0.000923163
-6.74725e-05
0.000988139
-2.97757e-05
0.00102099
2.65281e-05
0.00102726
4.93197e-05
6.70484e-05
0.00100375
7.80209e-05
0.0015326
-0.00124623
-0.000364391
-0.000603152
0.000563497
-0.00100914
0.00102834
0.00035239
-0.000371593
-9.43454e-05
0.000891921
0.000103126
-0.000900702
-0.001611
-0.000239873
0.00056415
0.00128672
-0.000660865
-0.000487502
-8.8134e-05
-0.000600569
-0.00061045
-7.99329e-05
0.000617972
-0.000975152
0.0010018
3.20652e-05
-0.000920444
-1.90301e-05
-0.000841575
-6.17594e-05
-0.000791065
-8.54027e-05
-0.000758497
-0.000101872
-0.000738986
-0.000117463
-0.00072249
-0.000128808
-0.000719379
-0.00012976
-0.000725099
-0.000129934
-0.000731497
-0.000134663
-0.000737693
-0.000140629
-0.000747046
-0.000147031
-0.000747996
-0.000153047
-0.000741721
-0.00015218
-0.000733468
-0.000143167
-0.000721133
-0.000129289
-0.000673765
-0.000109775
-0.000614454
-8.14448e-05
-0.000574146
-2.80768e-05
-0.000541952
1.07518e-05
-0.00052485
4.20346e-05
-0.000516112
4.76651e-05
-0.000521564
5.81923e-05
-0.000532632
5.77252e-05
-0.000542362
5.53128e-05
-0.000555331
6.15578e-05
-0.000571038
6.13507e-05
-0.000586504
4.84904e-05
-0.00060999
3.1709e-05
-1.50276e-05
-0.000604041
-0.000558704
-0.000533001
0.000608408
-0.000246171
-0.000843311
0.000824608
0.000264874
0.000674545
0.000136176
-0.000735244
0.000671899
0.00014825
0.0006633
0.000156922
0.000647138
0.000149533
0.000631163
0.000129111
0.000617829
0.000114081
0.000605033
0.000100431
0.000586145
8.74738e-05
0.000566687
7.73288e-05
0.00055568
7.11804e-05
0.000547612
6.49444e-05
0.000542399
5.67699e-05
0.000535944
4.76653e-05
0.000536053
3.86035e-05
0.000546286
2.14333e-05
0.000573876
-5.39195e-06
0.000610743
-3.8701e-05
0.000676107
-9.41677e-05
0.000722618
-0.000116952
0.000733961
-0.000136669
0.000745494
-0.000148608
0.00075205
-0.000158785
0.000743902
-0.000147459
0.000730704
-0.000141295
0.000727951
-0.00013862
0.000720746
-0.000131226
0.000714619
-0.000124864
0.000718588
-0.000124177
0.000735148
-0.000125533
0.000752052
-0.000114966
0.000782539
-9.79593e-05
0.000838875
-8.61117e-05
0.0009197
-5.42965e-05
0.000984871
-1.58515e-05
0.00100626
4.56585e-05
-6.27766e-05
5.76507e-05
0.00101139
-3.07092e-05
0.000971681
-1.10958e-05
0.000934103
-2.18653e-06
0.000926038
-3.0563e-06
0.000930795
7.46682e-06
0.000926114
2.72493e-05
0.00093424
5.85056e-05
0.000968078
0.00100709
5.3219e-05
-0.00105941
-0.000410384
0.000460648
-8.31969e-05
0.000113829
-0.00142375
0.00139312
-0.000916691
0.000693972
-0.00126262
0.00148534
-0.000792373
-0.000471644
0.000701701
0.000756046
-0.000834879
-0.000479526
0.000326629
0.000930977
-0.000625504
4.85879e-07
-5.48614e-05
-0.000637314
-0.000498299
-0.000583012
0.000522607
-0.000631273
-0.000413147
0.000252048
-0.000833515
0.00049529
-0.000591531
0.000929755
0.000481675
0.000536842
0.000693062
-0.000704271
0.000147385
0.000673934
0.000167378
0.000663338
0.000167519
0.000650785
0.000162086
0.000636748
0.000143148
0.000623432
0.000127397
0.000609264
0.000114599
0.000595196
0.000101542
0.000583013
8.95122e-05
0.000575176
7.90179e-05
0.000567201
7.29192e-05
0.000562999
6.09721e-05
0.000567297
4.33667e-05
0.00058775
1.8151e-05
0.000623927
-1.47439e-05
0.000677857
-5.93222e-05
0.000732503
-9.33466e-05
0.000754193
-0.000115858
0.000769983
-0.000132741
0.000781411
-0.000148098
0.000774668
-0.000141864
0.000752424
-0.000136541
0.000739484
-0.000134519
0.000733487
-0.000135298
0.000727301
-0.000132434
0.00072318
-0.000127105
0.000725025
-0.000126709
0.000723
-0.000122152
0.000713643
-0.000116175
0.000711446
-0.00011277
0.000727159
-0.000113672
0.000740167
-9.912e-05
0.00077307
-8.71992e-05
0.000829831
-7.26133e-05
0.000917411
-4.19198e-05
0.000972581
2.44353e-06
-7.21232e-05
5.59824e-05
0.000988721
-5.04605e-05
0.000989724
-2.12378e-05
0.000942459
-1.27584e-05
0.000925624
-7.69046e-06
0.000920969
1.29591e-07
0.000922975
7.66012e-06
0.000918584
1.86763e-05
0.000923223
4.59683e-05
0.000940786
6.87987e-05
0.000984256
-0.000960712
0.000978996
5.05137e-05
-0.000908465
9.70639e-07
-0.000830913
-4.54859e-05
-0.000775802
-7.41403e-05
-0.000746652
-9.09096e-05
-0.000728623
-0.000103432
-0.000713447
-0.000117048
-0.000712058
-0.000118852
-0.000719821
-0.000121045
-0.000726607
-0.000122974
-0.000727992
-0.000128549
-0.000730269
-0.000132385
-0.000735507
-0.000135391
-0.000746519
-0.000136018
-0.000761393
-0.000138173
-0.000774336
-0.000139237
-0.00077294
-0.000144562
-0.000763102
-0.000139128
-0.000747764
-0.000125112
-0.000723779
-0.00010543
-0.000668753
-8.31034e-05
-0.000619251
-3.87496e-05
-0.000579872
2.65512e-06
-0.000556574
2.43675e-05
-0.000552736
5.43536e-05
-0.000554578
5.9568e-05
-0.000564656
6.53904e-05
-0.000576122
7.30234e-05
-0.000588681
7.39097e-05
-0.00060905
6.886e-05
4.81343e-05
-0.000625476
-0.000587009
-0.000556103
0.000610111
-3.26555e-05
-0.00064771
-0.000724663
-5.76519e-05
0.000145001
-6.54463e-05
-0.000494291
-0.000635281
0.000718546
-0.000663931
-0.000467763
0.000689525
-0.000442624
-0.000402368
0.000604392
-0.000764031
-0.00033198
0.00084984
0.000128739
-1.93663e-05
0.000731072
0.000121716
-0.000724049
0.000701006
0.00017745
0.000679491
0.000188893
0.000663127
0.000183882
0.000654275
0.000170938
0.000642546
0.000154877
0.000632486
0.000137457
0.000620697
0.000126388
0.000612995
0.000109244
0.000601784
0.000100723
0.000593254
8.75481e-05
0.000596158
7.00154e-05
0.000611811
4.53193e-05
0.00064691
8.26699e-06
0.000693495
-2.84334e-05
0.000749129
-7.03781e-05
0.000780051
-9.02446e-05
0.000796021
-0.000109316
0.000811605
-0.000131442
0.00080741
-0.000128547
0.000784651
-0.000125338
0.000768671
-0.000125885
0.000757899
-0.000125769
0.000748682
-0.000125302
0.000739284
-0.000125901
0.000730068
-0.000123218
0.000727288
-0.000124325
0.000724523
-0.000123944
0.000721036
-0.000118665
0.000717493
-0.000112633
0.000713108
-0.000108385
0.000702295
-0.000102858
0.000704921
-0.000101746
0.000713774
-9.60517e-05
0.000726988
-8.58275e-05
0.000760847
-7.57792e-05
0.000821973
-5.8648e-05
0.00090865
-3.06916e-05
-6.2676e-05
0.00095858
1.27465e-05
-6.47297e-05
0.000990775
-3.56213e-05
0.000960615
-1.90486e-05
0.000925886
-7.46841e-06
0.000914043
-3.34006e-06
0.000916841
2.88502e-06
0.00091675
6.85387e-06
0.000914615
1.67002e-05
0.000913377
3.31385e-05
0.000924348
6.43365e-05
0.000953057
6.34107e-05
0.00097992
-0.000896976
0.000943443
1.69399e-05
-0.000817094
-2.9369e-05
-0.000757118
-5.90049e-05
-0.000724641
-7.79633e-05
-0.000709216
-8.95654e-05
-0.000701311
-9.88143e-05
-0.000700164
-0.000104579
-0.000708349
-0.000108862
-0.000715983
-0.000111218
-0.000720699
-0.00011633
-0.000721599
-0.000122074
-0.000726726
-0.000123422
-0.000733101
-0.00012601
-0.00074114
-0.000127352
-0.000750041
-0.000127118
-0.000760505
-0.000127709
-0.000771938
-0.000127805
-0.000791326
-0.000125174
-0.000803281
-0.000127172
-0.00079966
-0.000128734
-0.00078518
-0.000119909
-0.000768649
-9.96349e-05
-0.000731227
-7.61711e-05
-0.000677358
-5.12143e-05
-0.000637009
-1.59817e-05
-0.000607209
2.45538e-05
-0.000595926
4.82855e-05
-0.000594233
6.3697e-05
-0.0006006
7.93907e-05
-0.000613432
8.67414e-05
-0.000627934
8.33619e-05
6.88512e-05
-0.00064865
-0.000642349
1.73595e-05
-0.000558592
-0.000611429
-0.000570325
-0.000624934
0.000639156
0.000672736
0.00136133
-0.00133037
-0.000703697
-0.00065548
-1.95245e-05
-0.000697778
-0.000270038
0.000124506
-0.00073083
-0.000369316
-0.000719092
-0.000454362
1.63773e-05
-0.000240365
-0.000500675
-0.000275473
-0.000563996
2.82059e-05
-0.00066356
-4.18014e-05
-0.000517421
-0.0006408
-0.000653237
-0.000533618
-6.8524e-05
6.0009e-05
0.000967094
-5.10703e-05
0.000973321
-2.67604e-05
0.000936307
-1.49889e-05
0.000914115
-9.73136e-06
0.000908786
-1.43743e-06
0.000908547
5.63924e-06
0.000909673
1.24094e-05
0.000907845
1.69331e-05
0.000908853
2.85488e-05
0.000912732
5.29957e-05
0.000928609
7.09895e-05
0.000961923
6.02536e-05
0.000954183
-0.000820543
-1.42615e-05
0.000895017
-0.000754623
-4.89946e-05
-0.000717452
-6.65501e-05
-0.000697392
-7.90662e-05
-0.000689189
-8.6168e-05
-0.000686762
-9.19915e-05
-0.000688765
-9.68119e-05
-0.000694503
-9.88419e-05
-0.000701827
-0.000101537
-0.000707522
-0.000105523
-0.000713639
-0.000110213
-0.000721901
-0.000113812
-0.000729081
-0.000116242
-0.000738623
-0.000116468
-0.000748328
-0.000117648
-0.000757253
-0.000118192
-0.00076809
-0.000116872
-0.000779825
-0.00011607
-0.000790034
-0.000114965
-0.000804397
-0.000112809
-0.000823655
-0.000109476
-0.000835615
-0.000107948
-0.000829538
-0.000105712
-0.000811677
-9.40324e-05
-0.000791859
-7.1032e-05
-0.000752857
-5.49844e-05
-0.000712914
-1.53891e-05
-0.0006668
2.17151e-06
-0.000645474
4.23718e-05
-0.000633578
6.74939e-05
-0.000636071
8.92346e-05
-0.000651975
9.92656e-05
9.7905e-05
-0.000681029
3.75517e-05
-0.000668843
0.000543463
-0.000442233
-0.0005816
-0.000522753
-0.00067112
0.00076571
-0.000178607
0.000190216
-0.000777319
0.00155887
-3.31967e-06
-0.0015184
-3.71447e-05
0.000696885
0.000212677
-0.000732112
0.000680064
0.000205714
0.000670207
0.000193739
0.000662684
0.000178461
0.000653546
0.000164016
0.000648353
0.00014265
0.000640071
0.000134669
0.000629453
0.000119862
0.000631074
9.91027e-05
0.00064619
7.24318e-05
0.000679726
3.64795e-05
0.000730072
-5.02605e-06
0.000778855
-4.0516e-05
0.000814741
-6.43195e-05
0.000829524
-8.51616e-05
0.000845426
-0.000106147
0.000844052
-0.000107942
0.000820004
-0.000107394
0.000801848
-0.00011039
0.000789463
-0.000112953
0.000777804
-0.000114226
0.000767417
-0.000115381
0.000758419
-0.000116305
0.000749378
-0.00011686
0.000742555
-0.000116394
0.000732935
-0.000114705
0.000724568
-0.000115577
0.000716711
-0.000110809
0.00071254
-0.000108461
0.000706977
-0.000102822
0.00070237
-9.82511e-05
0.000697236
-9.66128e-05
0.000692701
-9.15162e-05
0.000694982
-8.8109e-05
0.000704202
-8.49988e-05
0.000723557
-7.80029e-05
0.000759846
-6.69804e-05
0.000822778
-5.01857e-05
0.000904163
-2.13761e-05
-0.00057588
-0.000665292
0.000670846
-0.000610286
-0.000626077
0.00123298
-6.05064e-05
0.000101559
-0.00127404
-0.000582265
-6.49175e-05
-0.000468958
-0.000653163
-4.41188e-05
-0.000711935
0.000760485
-6.28303e-05
-0.000687418
-7.35118e-05
-0.000673399
-8.05705e-05
-0.000668322
-8.41434e-05
-0.0006668
-8.76903e-05
-0.00067032
-8.84713e-05
-0.000676165
-9.09666e-05
-0.000682345
-9.26617e-05
-0.000689452
-9.44309e-05
-0.00069665
-9.83247e-05
-0.000707031
-9.98324e-05
-0.000718136
-0.000102706
-0.000730103
-0.000104275
-0.00074109
-0.000105481
-0.000753186
-0.000105552
-0.000765012
-0.000106365
-0.000775733
-0.000106151
-0.000786974
-0.000104829
-0.000798921
-0.000103018
-0.000811248
-0.000100482
-0.000823101
-9.76234e-05
-0.000836889
-9.41606e-05
-0.00085493
-8.76712e-05
-0.00086635
-8.26115e-05
-0.000859966
-7.7416e-05
-0.000848917
-6.60337e-05
-0.000820742
-4.35646e-05
-0.000787691
-3.08811e-05
-0.000744189
-1.21324e-06
-0.000708519
3.18238e-05
-0.000683022
6.37386e-05
-0.000679179
9.54225e-05
-0.000702483
0.000121209
6.75847e-05
-0.000711062
0.000491684
-0.000404641
0.000456421
-0.000702756
-0.000460797
-6.35187e-05
1.97699e-05
0.000947912
-6.42802e-05
0.000967855
-3.83714e-05
0.000947414
-2.0632e-05
0.000918565
-1.45679e-05
0.00090805
-1.12197e-05
0.000905438
-3.65305e-06
0.000900981
8.17039e-06
0.00089785
1.39769e-05
0.000902038
1.93013e-05
0.000903529
2.63833e-05
0.000905649
3.97438e-05
0.000915248
6.36856e-05
0.000937976
6.41445e-05
0.000953727
2.73158e-05
0.000932092
-5.19219e-05
0.000839669
0.00065997
-0.000445191
-0.000657012
0.000754402
-0.000531974
0.000738773
-0.000438733
0.0007307
-0.000361243
-0.000303369
-0.000473484
0.000457404
0.000497756
-0.000188312
-0.000736521
-0.000497374
0.000476788
-2.18251e-06
2.27686e-05
-0.000298569
-0.000788607
0.000831374
0.000683183
0.000207539
-0.000678045
0.000683641
0.000205256
0.000681815
0.000195565
0.000681327
0.000178949
0.000679514
0.000165829
0.00066832
0.000153844
0.000672654
0.000130336
0.000692152
0.000100363
0.000727697
6.35583e-05
0.000775271
2.48576e-05
0.000822597
-1.08463e-05
0.000854334
-3.67637e-05
0.000872091
-5.82724e-05
0.000883385
-7.56135e-05
0.000878729
-8.05053e-05
0.000855832
-8.32508e-05
0.000837659
-8.97683e-05
0.000824802
-9.45376e-05
0.000812292
-9.78797e-05
0.000800268
-0.000100929
0.000789356
-0.000103314
0.000778896
-0.000104921
0.000768376
-0.000105785
0.000757482
-0.000105966
0.00074652
-0.000105432
0.000736159
-0.000104344
0.000723923
-0.000103341
0.000714048
-0.000100935
0.000703772
-9.81845e-05
0.000696715
-9.57656e-05
0.000692068
-9.36038e-05
0.000683516
-8.80611e-05
0.000679951
-8.7951e-05
0.000678559
-8.67167e-05
0.000679407
-8.58469e-05
0.000683439
-8.2035e-05
0.000696102
-7.96435e-05
0.000720516
-7.45999e-05
0.000763499
-6.43587e-05
0.000836039
-5.27696e-05
8.74381e-05
0.00123694
-9.1392e-05
-2.24369e-05
-0.00066593
-0.000380162
0.000198019
-0.000572626
-0.000715595
0.000712341
-0.000567883
-0.000713523
-0.00062215
-0.000669219
-0.00129053
-0.000161009
0.00139103
0.00148644
-1.79188e-05
-0.0013905
0.000529829
-4.30124e-05
-0.000675068
0.000173074
-0.000807973
0.000518623
0.000382944
-0.000403812
-0.000431157
-0.00110841
0.000480157
0.000480502
-0.000661498
-0.000568943
0.000749939
-8.33959e-06
-0.0014741
-0.000101315
0.00158376
-0.000678484
0.000706744
-8.01882e-05
-0.000656497
-8.4822e-05
-0.000646261
-8.37478e-05
-0.000641287
-8.55448e-05
-0.000640671
-8.47591e-05
-0.000643829
-8.45324e-05
-0.000647538
-8.47621e-05
-0.000654141
-8.43638e-05
-0.000662172
-8.46303e-05
-0.00067087
-8.57334e-05
-0.00068275
-8.64442e-05
-0.000694719
-8.78641e-05
-0.000708163
-8.92624e-05
-0.000721976
-9.04609e-05
-0.000736157
-9.13011e-05
-0.000749829
-9.18799e-05
-0.00076383
-9.23639e-05
-0.000777625
-9.23566e-05
-0.000790782
-9.16729e-05
-0.000803367
-9.04326e-05
-0.000816028
-8.78213e-05
-0.000828599
-8.50517e-05
-0.00084154
-8.12194e-05
-0.000852634
-7.65771e-05
-0.000863625
-7.16211e-05
-0.000877059
-6.39824e-05
-0.000889091
-5.40004e-05
-0.000891153
-4.1506e-05
-0.000882439
-3.95892e-05
-0.000870053
-1.35161e-05
-0.000842537
4.30539e-06
-0.000810995
3.21966e-05
-0.000783786
6.82141e-05
-0.000764742
0.000102165
0.000152046
-0.000743714
0.000628607
-0.000373278
-0.00102702
0.000905157
-0.000505827
0.000709713
-0.000519292
-0.00121745
-5.38565e-05
-2.03967e-05
0.000910292
-5.85763e-05
0.000952632
-4.77231e-05
0.000957002
-2.86626e-05
0.00092835
-1.98947e-05
0.000909801
-1.49943e-05
0.00090315
-7.81188e-06
0.000898255
7.77448e-07
0.000892391
7.76801e-06
0.000890859
1.59074e-05
0.000893898
2.10295e-05
0.000898406
2.42741e-05
0.000902405
3.25156e-05
0.000907009
4.91975e-05
0.000921301
5.96001e-05
0.000943333
4.9804e-05
0.000941944
-1.20106e-05
0.000901374
-8.21591e-05
0.000776889
-0.000484614
0.000777706
-0.000514715
0.000748188
-0.000409215
0.000722114
-0.000335168
0.000694331
-0.000275587
-0.000324256
0.000686607
-1.12331e-05
-4.08976e-05
0.000700766
-0.000807083
0.000699089
0.000217907
-0.000689866
-0.00022713
0.000702784
0.000203843
0.000709653
0.000198387
0.000709346
0.000195872
0.000709715
0.00017858
0.000719744
0.0001558
0.000749751
0.000123837
0.000787226
9.28607e-05
0.000831933
5.56557e-05
0.000872232
2.32593e-05
0.000902247
-5.15707e-06
0.00091605
-2.46492e-05
0.000919152
-3.98657e-05
0.00090969
-4.88108e-05
0.000889071
-5.4995e-05
0.000872986
-6.44196e-05
0.000860626
-7.08911e-05
0.00084737
-7.65122e-05
0.000834359
-8.1527e-05
0.00082198
-8.55002e-05
0.000809553
-8.8503e-05
0.000796839
-9.05994e-05
0.000783685
-9.17671e-05
0.000770199
-9.22987e-05
0.000756414
-9.21811e-05
0.000742692
-9.17101e-05
0.000729186
-9.08382e-05
0.000715648
-8.98026e-05
0.000702929
-8.82158e-05
0.000691451
-8.67063e-05
0.000680537
-8.48514e-05
0.000669537
-8.26044e-05
0.000663555
-8.20785e-05
0.000657893
-8.22896e-05
0.000654077
-8.28997e-05
0.00065007
-8.18404e-05
0.000651077
-8.30415e-05
0.000656304
-8.48709e-05
0.000663439
-8.17342e-05
0.000683186
-8.41057e-05
0.000708744
-7.83278e-05
0.000770094
-8.17464e-05
0.000689937
-0.000444134
-0.000690994
-3.3294e-05
-0.000700204
0.00063617
-0.000716596
-0.000737459
0.000729362
-0.000493619
0.000501717
-0.000740514
-0.000525419
0.000528474
-0.000560545
-0.000752595
-0.000665888
-4.41617e-05
-0.000775349
-0.000720952
-0.000616793
-0.000702441
-0.000680301
0.00156804
-0.00153156
-4.48204e-05
0.000776993
-0.000570019
0.000443906
-0.00065088
-0.00156066
0.00139964
-7.8861e-05
0.000479822
-0.000331999
0.000777476
-3.1105e-05
-0.000283449
0.000631956
0.0002801
0.00126904
-0.00124816
8.06708e-05
8.95291e-05
0.00126695
0.000841894
8.76278e-05
0.00087595
6.81093e-05
0.00090208
4.20832e-05
0.000915995
1.82819e-05
0.000921136
-8.35092e-07
0.000917817
-1.01973e-05
0.000897748
-1.95204e-05
0.000888356
-3.21141e-05
0.000876517
-4.21606e-05
0.000864137
-5.16027e-05
0.000851148
-5.86317e-05
0.0008379
-6.33299e-05
0.000824152
-6.74711e-05
0.000809872
-7.0772e-05
0.000795383
-7.33319e-05
0.000779987
-7.50367e-05
0.000764457
-7.61431e-05
0.00074847
-7.63694e-05
0.000732683
-7.65769e-05
0.000717106
-7.6303e-05
0.000701583
-7.57775e-05
0.000686544
-7.54224e-05
0.000671907
-7.46248e-05
0.000658085
-7.4042e-05
0.000645442
-7.38014e-05
0.000633837
-7.41288e-05
0.000624272
-7.50652e-05
0.000616314
-7.64058e-05
0.000609268
-7.77161e-05
0.000603476
-7.87405e-05
0.00059976
-8.10431e-05
0.00059725
-8.30346e-05
0.000599507
-8.60048e-05
0.000607677
-9.29935e-05
0.000621524
-9.40357e-05
0.00063336
-9.39997e-05
9.23755e-05
0.00125137
-0.000106812
-3.11036e-06
-5.81633e-05
0.000831368
-3.80411e-05
0.000945223
-4.65117e-05
0.000961102
-3.23479e-05
0.000942841
-2.13093e-05
0.000917315
-1.57068e-05
0.000904189
-9.99684e-06
0.00089744
-4.54344e-06
0.000892802
1.02388e-06
0.000886824
8.71928e-06
0.000883164
1.55305e-05
0.000887087
1.92518e-05
0.000894685
2.19496e-05
0.000899708
2.70369e-05
0.000901924
3.53304e-05
0.00091302
4.52959e-05
0.000933384
3.8948e-05
0.000948341
2.53749e-06
0.000937768
-4.83148e-05
0.00082774
-7.40413e-05
0.000659072
0.00068574
-0.000369081
-0.00011009
-0.000731177
-0.000454559
0.000712327
0.000471593
0.000364813
0.00143097
-0.00110205
-0.000693733
0.000245492
-0.00117121
0.000144849
-0.00117339
9.373e-05
-0.00119704
0.00123801
5.03535e-05
-0.00119463
0.00124735
7.13341e-05
0.00125448
8.23955e-05
-0.000130697
0.000179185
0.00120599
0.000878485
-0.000411344
6.02823e-05
0.00120845
-0.00118781
-8.09193e-05
0.000395819
0.000761758
-0.000380584
0.000385534
0.000823667
-0.000923281
-0.000285919
0.000843859
-0.000758569
-0.0004756
0.00074055
-0.000768907
-0.000515082
-0.000546912
-0.00078254
-5.41118e-05
-0.000654788
0.000687759
-0.000429784
-0.000702109
8.83303e-05
-2.98305e-05
0.00081641
-0.000425968
0.000762745
-0.00035555
0.000724774
-0.000297198
0.000731941
-0.000282753
-0.00029069
0.000698375
-0.0005353
0.000809404
0.000412503
0.000374176
-0.000231977
-0.00059153
0.00044933
0.000727838
0.000259624
-0.000278416
-0.000709047
0.000727343
0.000218403
0.000729673
0.000201513
0.000743611
0.000184449
0.000773537
0.000165946
0.000811588
0.00014053
0.000854327
0.000113061
0.000890714
8.74492e-05
0.000920313
6.32614e-05
0.000937738
3.8231e-05
0.000945784
1.52134e-05
0.000941945
-1.3184e-06
0.000930404
-1.3108e-05
0.00091456
-2.40211e-05
0.0009013
-3.55509e-05
0.000890107
-4.38027e-05
0.00087669
-5.10022e-05
0.000863339
-5.75398e-05
0.000849713
-6.28868e-05
0.000835545
-6.73583e-05
0.000820498
-7.04532e-05
0.000804854
-7.28594e-05
0.000788987
-7.47323e-05
0.000772763
-7.55429e-05
0.000756706
-7.62416e-05
0.000740484
-7.59593e-05
0.000724711
-7.59376e-05
0.000709239
-7.53662e-05
0.000694284
-7.48473e-05
0.000679604
-7.35359e-05
0.000666359
-7.34612e-05
0.000653834
-7.23258e-05
0.000643231
-7.20017e-05
0.000634066
-7.29132e-05
0.000625864
-7.40882e-05
0.00061773
-7.47651e-05
0.00061189
-7.60002e-05
0.000608267
-7.94187e-05
0.00060421
-8.08146e-05
0.000606388
-8.39122e-05
0.000613491
-9.12086e-05
0.000629422
-9.42581e-05
0.000640006
-9.23307e-05
0.000668996
-8.71527e-05
0.000774267
0.000464836
-0.000795197
0.000748186
0.0004219
-0.000334737
0.000381484
0.000701439
-0.00141137
0.000134968
0.00144393
-0.000167534
0.000678165
-0.000251144
-6.10855e-05
-0.000683281
-6.53445e-05
0.00142946
5.27698e-05
0.000348273
0.000622196
-0.000292304
0.000164781
0.00129828
-0.00028199
-0.00118107
-0.000747423
-0.00067597
-0.000754884
-0.000605198
-0.00076419
0.000450534
-0.000775096
0.000746461
0.000768382
-0.000487835
-0.000795629
0.000743316
0.00122863
-0.000798094
0.00151488
0.000121982
-6.88139e-05
-0.00132164
0.000264346
0.00123648
0.000840008
-0.000720537
-0.000995983
-0.000784366
-0.000232176
0.000765399
-0.00032109
-0.00130933
7.00828e-05
-0.00129665
5.86527e-05
-0.00125234
6.04722e-06
0.00090197
7.75788e-05
0.0009116
5.84799e-05
0.000914108
3.95754e-05
0.000910263
2.21265e-05
0.00090121
8.21838e-06
0.00089497
-3.95802e-06
0.000885515
-1.00648e-05
0.000875951
-2.25499e-05
0.000861637
-2.78473e-05
0.00084666
-3.66254e-05
0.000830383
-4.23547e-05
0.000815153
-4.80998e-05
0.000798938
-5.12558e-05
0.000782579
-5.44131e-05
0.000765725
-5.64787e-05
0.000748583
-5.78944e-05
0.000731495
-5.90547e-05
0.000714505
-5.93798e-05
0.000697682
-5.97535e-05
0.000681215
-5.98358e-05
0.000665039
-5.96015e-05
0.00064926
-5.96439e-05
0.000634174
-5.95385e-05
0.000619905
-5.97733e-05
0.000606439
-6.03351e-05
0.000594141
-6.18317e-05
0.000583161
-6.40844e-05
0.000572922
-6.61672e-05
0.000563351
-6.8145e-05
0.000555044
-7.04334e-05
0.000546513
-7.25117e-05
0.000539491
-7.60131e-05
0.000535973
-8.24865e-05
0.000531007
-8.80268e-05
0.00052579
-8.88195e-05
0.000515874
-8.40854e-05
0.000507145
-6.53154e-05
-0.000721948
-0.000255007
0.000686265
-0.000755335
-0.000249367
-0.00078097
-0.000271563
-0.000849158
-0.000287361
-0.000936244
-0.000338882
-0.00104762
-0.000394446
-0.00128815
0.00088398
0.000968316
-0.000264117
0.000666409
-0.000735502
0.000774819
-0.000432832
0.000718824
0.00040984
0.000718105
-6.26943e-05
0.00123023
3.84537e-05
7.09257e-05
0.00124073
0.000476682
-0.00086979
-0.000402088
-0.00052043
-0.000822111
0.000666985
-0.000219811
0.000153633
-0.000600807
2.03112e-05
-0.00133519
3.58071e-05
-0.000613853
0.000709831
-0.000391153
0.000323964
-0.000227784
-0.0011543
0.00105812
-0.00135829
-5.01701e-06
0.00126199
-0.000417218
-0.0011497
2.60501e-05
-4.36863e-05
0.000686632
-8.55035e-06
0.000865968
-2.49534e-05
0.000961626