/*--------------------------------*- C++ -*----------------------------------*\
| =========                 |                                                 |
| \\      /  F ield         | OpenFOAM: The Open Source CFD Toolbox           |
|  \\    /   O peration     | Version:  2212                                  |
|   \\  /    A nd           | Website:  www.openfoam.com                      |
|    \\/     M anipulation  |                                                 |
\*---------------------------------------------------------------------------*/
FoamFile
{
    version     2.0;
    format      ascii;
    arch        "LSB;label=32;scalar=64";
    class       volVectorField;
    location    "0.0664";
    object      U;
}
// * * * * * * * * * * * * * * * * * * * * * * * * * * * * * * * * * * * * * //

dimensions      [0 1 -1 0 0 0 0];

internalField   nonuniform List<vector> 
31661
(
(-79.4478 111.719 4.57133e-16)
(102.781 726.231 -1.34165e-17)
(97.7489 717.415 1.81596e-17)
(101.319 722.237 0)
(106.694 725.887 2.6798e-17)
(103.348 717.865 -3.64753e-17)
(106.021 722.249 -2.25093e-17)
(110.288 725.35 0)
(108.489 717.981 2.69507e-17)
(110.337 722.056 -3.97526e-20)
(-157.924 150.088 0)
(-181.265 670.766 -1.44478e-16)
(29.4214 24.7036 -1.17484e-16)
(0.318721 286.074 0)
(30.3524 141.264 1.99458e-16)
(70.4589 151.859 1.31015e-18)
(31.6475 131.403 0)
(-74.2162 135.285 -1.17573e-16)
(236.827 644.583 0)
(71.3619 159.602 0)
(210.096 565.175 5.8354e-17)
(205.354 565.957 -1.49117e-16)
(4.29509 399.345 -1.0778e-18)
(-103.218 201.725 3.59255e-17)
(-130.392 710.753 -1.21394e-16)
(212.015 561.649 0)
(1.52281 383.941 -3.1884e-18)
(31.6607 442.488 -6.2596e-17)
(-175.517 670.919 1.5796e-16)
(111.962 674.336 -7.94624e-17)
(-98.0491 207.525 -4.00059e-16)
(-69.78 175.602 1.42719e-16)
(-84.1842 214.671 -7.43469e-17)
(245.648 627.196 8.14661e-17)
(-67.4398 619.294 -2.74325e-17)
(-84.6389 223.181 7.50772e-17)
(274.362 597.398 -2.39559e-16)
(-80.2128 223.322 -1.53678e-17)
(-16.07 430.082 -1.51724e-16)
(-114.98 291.016 -3.82635e-19)
(119.555 376.304 -2.22961e-16)
(90.8733 730.185 9.35127e-20)
(45.7715 237.717 1.54174e-16)
(18.9614 596.508 -2.03616e-16)
(17.4498 590.59 -2.13279e-16)
(173.246 660.216 -9.70863e-17)
(23.3568 593.622 -1.024e-16)
(215.497 599.883 -1.04287e-16)
(277.995 599.054 0)
(1.4152 371.761 0)
(139.528 461.98 0)
(-3.68091 399.313 -2.88848e-17)
(-169.905 653.012 -4.78481e-17)
(230.507 601.373 9.45868e-17)
(48.8813 468.472 -1.18323e-16)
(-214.046 659.018 7.94253e-17)
(-183.04 646.667 -9.53832e-17)
(-155.92 641.675 -5.04981e-17)
(13.0652 629.925 -1.46054e-16)
(-213.016 652.623 -2.08701e-16)
(-186.153 661.214 1.70747e-16)
(-197.685 660.234 0)
(-94.3399 603.166 -2.25518e-16)
(-60.8191 747.491 0)
(-264.793 594.557 0)
(129.847 239.41 0)
(-83.3942 51.503 2.69314e-16)
(12.4431 641.793 4.6318e-17)
(11.9781 654.895 9.52821e-18)
(13.6343 667.278 6.96219e-17)
(-185.383 675.982 -6.8586e-17)
(12.2287 683.016 -1.80736e-17)
(10.2435 694.696 0)
(8.68648 705.514 4.41571e-18)
(7.63199 715.091 3.46315e-17)
(6.77855 723.961 -3.32407e-17)
(6.00121 731.804 0)
(5.28948 738.802 0)
(4.62728 744.852 0)
(4.03215 750.083 0)
(3.5182 754.484 -1.94735e-18)
(3.0792 758.153 -1.92422e-17)
(2.7297 761.143 1.54797e-17)
(2.46648 763.552 -3.84757e-18)
(4.11129 762.953 1.92572e-17)
(5.62051 760.458 1.63545e-19)
(7.38323 757.37 -1.53947e-17)
(9.43935 753.599 3.90183e-18)
(11.755 749.104 0)
(14.3726 743.816 1.00867e-18)
(17.2033 737.728 0)
(20.2929 730.789 -3.39122e-17)
(23.4884 723.038 3.26247e-17)
(26.925 714.403 -1.07903e-18)
(30.1496 705.107 3.89154e-17)
(33.7874 695.133 -3.57827e-17)
(37.602 684.895 -5.00283e-19)
(42.303 674.922 1.98974e-17)
(42.5596 664.719 0)
(41.8171 654.254 -5.18777e-18)
(42.0432 643.37 4.99558e-18)
(41.9645 633.514 3.96605e-17)
(42.3387 624.649 -5.66588e-18)
(11.6313 615.99 7.6898e-17)
(38.0783 615.92 -4.73938e-17)
(8.70576 606.368 2.17064e-17)
(33.3849 607.588 3.21514e-17)
(7.04046 598.105 3.38936e-17)
(29.2218 599.885 -5.63525e-18)
(5.89361 591.025 -2.47978e-17)
(25.3254 593.071 2.60679e-17)
(4.97018 585.057 0)
(21.6171 587.166 -4.71768e-17)
(4.17751 580.099 0)
(18.1647 582.124 2.34245e-17)
(3.4912 576.029 0)
(15.0662 577.885 0)
(2.91308 572.715 -9.12573e-20)
(12.381 574.359 9.22957e-20)
(2.43036 570.028 -1.84301e-19)
(10.1114 571.447 -5.97027e-18)
(2.02983 567.85 1.85005e-19)
(8.23611 569.055 1.16994e-17)
(1.70395 566.078 5.91347e-18)
(6.72138 567.092 -1.19418e-17)
(1.43982 564.624 -5.95921e-18)
(5.51254 565.474 5.95604e-18)
(1.22491 563.418 -6.17853e-18)
(4.55861 564.132 -2.95128e-18)
(1.05132 562.402 -4.27049e-20)
(3.8116 563.006 -2.65423e-20)
(0.908004 561.53 6.02409e-18)
(3.22748 562.047 3.05889e-18)
(0.787432 560.767 1.89392e-19)
(2.77113 561.215 3.0372e-18)
(0.68448 560.084 0)
(2.41385 560.477 -2.98193e-18)
(0.594433 559.457 3.04779e-18)
(2.13399 559.807 3.14379e-18)
(0.513083 558.864 1.06878e-19)
(1.9142 559.18 1.23436e-20)
(0.438205 558.289 1.11544e-20)
(1.74131 558.577 -3.01912e-18)
(0.367469 557.716 -6.20146e-18)
(1.60653 557.981 9.54621e-20)
(0.299242 557.13 6.0199e-18)
(1.50348 557.375 0)
(0.232184 556.516 -3.05578e-18)
(1.42734 556.743 4.78324e-20)
(0.164792 555.857 -6.04286e-18)
(1.37568 556.068 0)
(0.0958979 555.138 5.836e-18)
(1.34676 555.333 9.58692e-20)
(0.0246694 554.34 3.07884e-18)
(1.33982 554.52 9.60058e-20)
(-0.0498208 553.442 -9.33393e-18)
(1.35551 553.608 -3.08421e-18)
(-0.128754 552.42 3.05574e-18)
(1.39407 552.573 -3.1066e-18)
(-0.213287 551.248 -1.84564e-20)
(1.45744 551.387 3.0578e-18)
(-0.305431 549.893 -2.09943e-20)
(1.54649 550.018 -2.11559e-20)
(-0.405695 548.319 9.48577e-18)
(1.66464 548.428 3.08264e-18)
(-0.516108 546.479 -6.17288e-18)
(1.81448 546.572 -1.16983e-18)
(-0.639769 544.32 -3.88283e-19)
(1.9992 544.398 1.54544e-18)
(2.22097 541.84 -3.89107e-19)
(-0.778808 541.777 1.95462e-18)
(-3.78067 541.538 -1.19592e-18)
(-3.28107 544.12 -1.1735e-18)
(-2.84991 546.313 0)
(-2.47785 548.183 1.34808e-18)
(-2.15855 549.785 -3.28222e-18)
(-1.88579 551.163 -1.52885e-18)
(-1.65316 552.356 2.89594e-18)
(-1.45596 553.396 -3.06935e-18)
(-1.29058 554.311 3.08003e-18)
(-1.15397 555.124 6.31701e-18)
(-1.04363 555.857 -9.20144e-18)
(-0.958411 556.529 -2.94862e-18)
(-0.897305 557.156 1.2326e-17)
(-0.860516 557.754 -2.21099e-20)
(-0.849257 558.34 -3.06592e-18)
(-0.866012 558.928 -1.20409e-20)
(-0.915177 559.537 -1.29671e-20)
(-1.00373 560.183 -3.04172e-18)
(-1.14019 560.888 -6.22972e-18)
(-1.33752 561.677 3.04859e-18)
(-1.61222 562.582 6.02248e-18)
(-1.98577 563.64 6.7397e-20)
(-2.48346 564.899 -5.98316e-18)
(-3.13612 566.419 -2.82576e-18)
(-3.97796 568.273 5.6011e-18)
(-5.03931 570.549 5.49619e-19)
(-6.34908 573.352 0)
(-7.90923 576.795 0)
(-9.70293 581.004 1.41716e-18)
(-11.6637 586.102 -1.10725e-17)
(-13.6392 592.207 1.14217e-17)
(-15.345 599.423 -2.67127e-17)
(-16.2677 607.892 -1.98587e-17)
(-15.6005 617.838 2.98355e-17)
(-15.1663 628.396 8.60189e-18)
(-18.5908 641.333 -3.48942e-18)
(-17.6349 654.67 -9.13766e-18)
(-15.2728 667.962 0)
(-13.5445 680.043 -6.46882e-17)
(-15.4052 692.338 3.83759e-17)
(-13.9942 703.287 -2.32265e-18)
(-12.4918 713.273 6.82877e-17)
(-10.5908 722.349 -1.78855e-17)
(-8.79186 730.442 -3.29119e-17)
(-7.00038 737.611 -1.53861e-17)
(-5.40627 743.833 6.1723e-17)
(2.84296 764.927 1.14364e-17)
(2.28018 765.447 7.62941e-18)
(-3.90716 749.186 -4.93685e-17)
(-2.58883 753.689 3.12056e-17)
(-1.38454 757.439 -1.17418e-17)
(-0.290428 760.513 -1.53527e-17)
(0.720402 763.004 1.54085e-17)
(2.17854 766.868 0)
(1.78356 766.426 -2.67309e-17)
(1.6322 765.092 1.53438e-17)
(3.68321 763.379 3.82311e-18)
(6.08121 761.173 0)
(8.86681 758.427 -7.79999e-18)
(12.0585 755.079 9.7355e-18)
(15.7084 751.05 -1.94949e-18)
(19.7985 746.288 -1.71554e-17)
(24.3346 740.768 -1.46038e-18)
(29.2354 734.474 1.61896e-17)
(34.4905 727.416 1.74167e-17)
(39.8909 719.639 -1.67534e-17)
(45.497 711.144 -1.11456e-18)
(50.9471 702.093 -4.53068e-18)
(56.3625 692.615 0)
(61.7538 682.749 -9.90174e-18)
(66.2364 673.024 9.69646e-18)
(68.3747 663.57 0)
(69.1764 654.091 3.88887e-18)
(69.3912 644.805 -6.50458e-18)
(68.8645 636.005 -1.90875e-17)
(66.8011 627.781 2.01608e-18)
(62.3053 619.799 0)
(56.8085 612.051 1.12905e-17)
(50.9296 604.854 -2.29756e-17)
(44.9209 598.257 2.21331e-17)
(38.9425 592.294 2.1525e-18)
(33.2242 586.984 -2.69438e-20)
(27.9193 582.319 1.18264e-17)
(23.1895 578.287 -1.15325e-17)
(19.0855 574.849 0)
(15.618 571.953 -2.28368e-20)
(12.7528 569.532 2.29875e-20)
(10.4293 567.517 0)
(8.57379 565.844 -2.3591e-20)
(7.10735 564.444 -3.01972e-18)
(5.95997 563.264 -7.1821e-20)
(5.06838 562.256 3.02826e-18)
(4.38003 561.379 2.99613e-18)
(3.85044 560.596 -3.13062e-18)
(3.44672 559.879 1.52573e-18)
(3.14287 559.201 -1.54516e-18)
(2.92001 558.542 4.76705e-20)
(2.76476 557.881 4.77251e-20)
(2.66864 557.199 -3.53124e-23)
(2.62507 556.478 -4.78821e-20)
(2.63164 555.699 1.53778e-18)
(2.68702 554.842 -1.72427e-18)
(2.79155 553.885 1.63912e-18)
(2.94832 552.803 -1.53732e-18)
(3.1602 551.569 1.74181e-18)
(3.43355 550.148 -1.54063e-18)
(3.77273 548.502 1.55533e-18)
(4.18576 546.587 -3.73266e-19)
(4.68004 544.347 -1.9358e-18)
(5.26364 541.72 0)
(5.94484 538.63 -1.57054e-18)
(2.48314 538.822 -3.89879e-19)
(-0.935921 538.773 -1.56138e-18)
(-4.35718 538.49 -8.24266e-19)
(-7.82916 537.968 0)
(-6.83504 541.117 -3.88781e-19)
(-5.97252 543.791 1.54667e-18)
(-5.23053 546.069 -1.75317e-18)
(-4.59538 548.015 0)
(-4.05367 549.685 1.93041e-19)
(-3.59616 551.125 -1.53857e-18)
(-3.21212 552.374 1.6417e-18)
(-2.89484 553.466 1.92424e-19)
(-2.63739 554.428 0)
(-2.43522 555.286 0)
(-2.285 556.062 -1.43794e-19)
(-2.18539 556.776 1.43247e-18)
(-2.1358 557.447 -1.0141e-19)
(-2.13898 558.092 -1.33931e-18)
(-2.19976 558.728 -1.52153e-18)
(-2.32676 559.375 1.4307e-18)
(-2.53259 560.051 1.51609e-18)
(-2.83417 560.779 -1.14221e-18)
(-3.25598 561.586 0)
(-3.83013 562.502 0)
(-4.59739 563.566 0)
(-5.60864 564.823 0)
(-6.92386 566.329 -1.48229e-18)
(-8.60992 568.149 1.49524e-18)
(-10.736 570.359 3.71133e-19)
(-13.3615 573.041 -3.26442e-18)
(-16.5324 576.283 2.22603e-18)
(-20.2483 580.176 1.41128e-18)
(-24.4612 584.798 -4.42303e-20)
(-29.0328 590.218 5.47735e-18)
(-33.7359 596.488 -5.63838e-18)
(-38.209 603.647 -5.16797e-18)
(-41.9605 611.719 -4.58387e-18)
(-44.6233 620.661 -1.50302e-17)
(-46.1304 630.818 3.02375e-19)
(-48.4628 641.846 4.75024e-18)
(-48.1192 653.606 -1.79045e-17)
(-46.0928 665.378 3.62258e-17)
(-43.068 677.25 -1.38765e-17)
(-40.8385 688.421 0)
(-37.2693 699.17 3.82285e-17)
(-33.1622 709.163 -3.51303e-17)
(-28.6975 718.396 -1.64253e-17)
(-24.3204 726.741 1.63213e-17)
(-20.0746 734.207 -1.59934e-17)
(-16.1954 740.739 3.60582e-17)
(-12.6265 746.378 -2.97117e-17)
(-9.42841 751.166 3.06376e-19)
(1.63668 764.967 -7.63801e-18)
(-6.52255 755.199 1.96153e-17)
(-3.91612 758.546 0)
(-1.57558 761.28 0)
(-0.0879661 766.364 -1.53208e-17)
(0.932519 767.506 -3.7924e-18)
(2.48987 766.448 0)
(2.13971 767.885 3.81997e-18)
(-1.52063 767.277 -1.52887e-17)
(-2.87394 765.576 7.6821e-18)
(-0.608047 764.406 -7.67927e-18)
(2.06155 762.804 -1.15629e-17)
(5.17902 760.749 -6.38672e-20)
(8.76873 758.175 -8.69102e-20)
(12.8802 755.032 7.77293e-18)
(17.5375 751.259 -1.95539e-18)
(22.7647 746.813 -1.0133e-18)
(28.5706 741.642 9.96394e-19)
(34.9069 735.751 0)
(41.7021 729.149 -5.3323e-19)
(48.8556 721.87 -8.95562e-18)
(56.1753 714.007 7.98056e-18)
(63.503 705.656 1.09222e-18)
(70.5918 696.963 1.07354e-18)
(77.2741 688.05 0)
(83.4168 679.06 4.93156e-18)
(88.2714 670.379 -4.97515e-18)
(91.1285 662.106 -7.70647e-18)
(92.5157 654.071 -1.33795e-18)
(92.6882 646.344 0)
(91.6763 639.01 5.43494e-18)
(88.9807 632.033 -1.96726e-18)
(84.2261 625.18 0)
(78.3132 618.419 -5.86269e-18)
(71.6515 611.895 1.94965e-17)
(64.4972 605.646 -9.60389e-18)
(57.1268 599.726 -3.44814e-20)
(49.7655 594.165 -7.31158e-19)
(42.699 589.036 -1.14024e-17)
(36.1341 584.387 1.73357e-17)
(30.2248 580.258 -5.77786e-18)
(25.0436 576.651 2.04151e-19)
(20.6174 573.549 5.97179e-18)
(16.9257 570.917 -2.9004e-18)
(13.9007 568.701 -2.97012e-18)
(11.4632 566.842 0)
(9.53142 565.283 -3.03349e-18)
(8.01857 563.967 2.95213e-18)
(6.84486 562.839 0)
(5.94573 561.856 3.04982e-18)
(5.26487 560.975 -3.03764e-18)
(4.76072 560.164 0)
(4.3989 559.392 -9.53954e-20)
(4.15552 558.634 -4.78107e-20)
(4.01339 557.866 -1.58317e-18)
(3.96107 557.067 4.11315e-20)
(3.99158 556.212 1.53252e-18)
(4.10222 555.281 1.92061e-19)
(4.2938 554.247 1.54438e-18)
(4.56809 553.087 -1.53838e-18)
(4.93128 551.769 1.35759e-18)
(5.39031 550.259 -1.54259e-18)
(5.95462 548.517 1.3639e-18)
(6.6348 546.498 -1.54705e-18)
(7.44309 544.145 -1.39933e-21)
(8.39227 541.397 -7.86415e-19)
(9.49309 538.179 7.72163e-19)
(10.7543 534.406 1.17328e-18)
(6.72939 534.986 -6.47525e-21)
(2.78849 535.252 3.92335e-19)
(-1.11223 535.215 1.55444e-18)
(-5.01549 534.883 3.90416e-18)
(-8.96729 534.256 7.82526e-19)
(-13.0091 533.328 -2.35641e-18)
(-11.4007 537.198 1.57993e-18)
(-9.98847 540.498 -3.84196e-19)
(-8.76174 543.317 7.83316e-19)
(-7.70362 545.727 -7.72792e-22)
(-6.79743 547.794 0)
(-6.02775 549.575 1.34804e-18)
(-5.37943 551.114 -1.64745e-18)
(-4.84105 552.454 1.92847e-19)
(-4.40087 553.63 -1.92302e-19)
(-4.0509 554.671 -9.62159e-20)
(-3.78585 555.604 0)
(-3.60165 556.454 1.53136e-18)
(-3.49793 557.243 -6.53325e-21)
(-3.47644 557.991 -1.43747e-18)
(-3.54406 558.721 -1.9106e-19)
(-3.71245 559.452 -1.5214e-18)
(-3.99861 560.209 3.04494e-18)
(-4.42668 561.017 -2.65995e-18)
(-5.02893 561.906 -5.58429e-19)
(-5.84979 562.911 1.51727e-18)
(-6.94314 564.074 -3.7432e-19)
(-8.3764 565.444 0)
(-10.2278 567.076 3.69816e-19)
(-12.5833 569.033 7.36954e-19)
(-15.5293 571.385 -1.84016e-18)
(-19.1442 574.198 1.69786e-20)
(-23.4783 577.536 1.96946e-20)
(-28.5538 581.45 2.16978e-18)
(-34.3098 585.972 -7.75901e-19)
(-40.6234 591.108 -4.23348e-18)
(-47.2784 596.847 -1.35256e-18)
(-53.9771 603.162 1.38818e-18)
(-60.3153 610.018 -5.73168e-18)
(-65.8426 617.383 1.34028e-17)
(-70.1388 625.267 -2.60694e-18)
(-73.1036 633.875 -3.09803e-19)
(-75.3313 643.07 0)
(-75.1822 652.819 1.95062e-17)
(-73.1321 662.878 -1.79793e-17)
(-69.6042 673.226 -5.63137e-18)
(-65.3962 683.413 0)
(-60.0015 693.47 1.28123e-17)
(-53.8787 703.143 -3.46516e-17)
(-47.2907 712.335 1.74439e-17)
(-40.605 720.885 -5.55569e-19)
(-34.1413 728.664 1.61313e-17)
(-28.1066 735.572 -1.84547e-17)
(-22.5175 741.631 0)
(-17.3879 746.887 1.16388e-17)
(-12.7184 751.384 -3.53255e-17)
(0.510459 763.467 -7.65197e-18)
(-8.52899 755.168 2.72806e-17)
(-4.77664 758.304 -1.9525e-17)
(0.233873 768.284 -3.17785e-21)
(-4.81309 766.392 0)
(-2.77438 767.925 7.62673e-18)
(2.38131 765.154 7.67729e-18)
(3.26939 767.511 -7.65336e-18)
(2.14725 768.633 -7.4565e-18)
(-6.51929 766.977 -3.8565e-18)
(-8.61961 765.027 -1.15849e-17)
(-6.26276 764.216 3.83548e-18)
(-3.51051 763.071 2.26246e-20)
(-0.286582 761.514 -9.68887e-18)
(3.43386 759.489 -1.96819e-18)
(7.71088 756.965 1.98216e-18)
(12.5779 753.89 -7.93675e-18)
(18.0816 750.212 6.86803e-18)
(24.2414 745.887 -5.11242e-19)
(31.0655 740.886 9.97687e-19)
(38.5138 735.201 0)
(46.5108 728.858 -8.52998e-18)
(54.9169 721.926 8.60669e-18)
(63.5968 714.473 2.78817e-19)
(72.2702 706.656 -1.42503e-19)
(80.727 698.607 0)
(88.6685 690.494 1.13098e-18)
(95.8583 682.471 1.20958e-18)
(102.091 674.687 0)
(106.837 667.364 1.52911e-19)
(109.859 660.55 7.5703e-18)
(111.368 654.089 -1.23e-18)
(111.486 647.981 0)
(110.249 642.181 5.33365e-18)
(107.537 636.588 -5.3434e-18)
(103.133 631.014 2.6416e-18)
(97.5056 625.387 -5.53001e-18)
(90.9352 619.742 2.79887e-18)
(83.6217 614.088 -1.41666e-18)
(75.7796 608.452 -1.39678e-18)
(67.6439 602.895 -3.43059e-19)
(59.4752 597.501 5.44062e-18)
(51.5299 592.361 -1.15038e-17)
(44.0463 587.571 1.16194e-17)
(37.1963 583.207 -8.92365e-18)
(31.0885 579.305 2.90431e-18)
(25.7834 575.884 0)
(21.2852 572.932 3.02063e-18)
(17.5526 570.416 -2.96372e-18)
(14.5196 568.29 4.64222e-20)
(12.0989 566.495 1.54327e-18)
(10.1984 564.973 -1.4826e-18)
(8.72749 563.664 1.52408e-18)
(7.61066 562.52 -1.51621e-18)
(6.78128 561.492 0)
(6.18699 560.541 1.57941e-18)
(5.7859 559.631 -2.29195e-18)
(5.54828 558.731 7.64294e-19)
(5.45187 557.811 -4.79325e-20)
(5.48371 556.845 0)
(5.63512 555.804 -8.6791e-19)
(5.90505 554.662 7.68528e-19)
(6.29475 553.389 6.78354e-19)
(6.80932 551.953 -7.71278e-19)
(7.45851 550.317 0)
(8.25247 548.439 3.88615e-19)
(9.20554 546.272 0)
(10.3328 543.76 7.82386e-19)
(11.6496 540.842 5.36556e-21)
(13.1686 537.447 -4.37091e-19)
(14.8987 533.496 -1.49317e-19)
(16.8389 528.898 -2.97468e-19)
(12.1802 529.975 5.93091e-19)
(7.62089 530.679 -7.89168e-19)
(3.13621 531.013 3.94024e-19)
(-1.31191 530.985 0)
(-5.76105 530.602 -7.57293e-19)
(-10.2518 529.869 2.3794e-18)
(-14.8169 528.785 1.56388e-18)
(-19.4825 527.354 0)
(-17.1727 532.09 -1.18154e-18)
(-15.1065 536.162 1.16483e-18)
(-13.2812 539.661 -2.36189e-18)
(-11.6864 542.67 -7.75955e-19)
(-10.3076 545.258 1.75209e-18)
(-9.12497 547.489 -7.80958e-19)
(-8.11987 549.419 1.93417e-19)
(-7.27642 551.096 -2.91647e-22)
(-6.57835 552.563 2.29369e-22)
(-6.01391 553.856 0)
(-5.57463 555.009 9.62086e-20)
(-5.25355 556.051 9.61218e-20)
(-5.05009 557.009 8.13838e-19)
(-4.96519 557.91 -7.68919e-19)
(-5.00681 558.777 1.91123e-19)
(-5.18892 559.639 -7.62079e-19)
(-5.53365 560.523 1.94578e-19)
(-6.07154 561.46 1.33227e-18)
(-6.84425 562.486 -1.89887e-18)
(-7.90481 563.641 9.50286e-19)
(-9.32028 564.972 -9.65341e-22)
(-11.1686 566.534 7.56189e-19)
(-13.5386 568.384 1.85542e-19)
(-16.5237 570.587 -5.6359e-19)
(-20.2133 573.203 -1.14208e-20)
(-24.6776 576.286 3.84334e-19)
(-29.9597 579.878 -7.10168e-19)
(-36.0546 584 0)
(-42.8963 588.637 1.38532e-18)
(-50.3275 593.75 -1.37782e-18)
(-58.1463 599.27 4.18268e-18)
(-66.0563 605.113 0)
(-73.7482 611.204 -5.24834e-18)
(-80.8572 617.477 5.38482e-18)
(-87.0118 623.895 5.09549e-18)
(-91.9096 630.499 0)
(-95.4112 637.43 1.23573e-18)
(-97.5963 644.726 0)
(-97.6932 652.409 1.64674e-20)
(-95.8961 660.492 1.72019e-17)
(-92.3624 669.014 -1.76037e-17)
(-87.449 677.8 1.77317e-17)
(-81.1893 686.767 -1.72802e-17)
(-73.9019 695.753 0)
(-65.863 704.631 0)
(-57.5026 713.164 2.12729e-18)
(-49.2551 721.134 0)
(-41.3258 728.416 1.61821e-17)
(-33.7801 735.001 -5.01767e-19)
(-26.7434 740.854 -8.22658e-18)
(-20.2992 745.953 -1.57907e-17)
(-14.4826 750.307 3.95564e-17)
(-1.43131 760.861 0)
(-9.22109 754.001 3.64989e-18)
(-0.369389 768.816 1.52445e-17)
(-3.87502 768.315 1.52935e-17)
(1.54453 762.882 0)
(-10.713 765.583 2.70153e-17)
(-7.98782 767.296 7.68055e-18)
(4.04639 766.384 7.65651e-18)
(3.98815 768.279 0)
(2.18772 769.108 1.67187e-17)
(-12.5214 765.875 -1.5403e-17)
(-15.1793 763.832 0)
(-12.7444 763.258 5.80632e-18)
(-9.97542 762.439 -7.76125e-18)
(-6.7758 761.258 3.85882e-18)
(-3.06595 759.65 -7.82672e-18)
(1.21526 757.598 9.74132e-18)
(6.10233 755.039 1.94527e-18)
(11.6462 751.934 -1.9556e-18)
(17.885 748.237 -5.10048e-19)
(24.8376 743.916 1.51075e-18)
(32.4992 738.951 -3.90582e-18)
(40.832 733.346 1.43261e-19)
(49.7457 727.143 4.28032e-18)
(59.1068 720.411 -6.89317e-20)
(68.7273 713.256 -4.11461e-18)
(78.3626 705.824 4.0808e-18)
(87.7265 698.289 -8.1404e-21)
(96.5421 690.829 -5.01771e-18)
(104.547 683.589 4.60588e-18)
(111.541 676.706 -3.6179e-18)
(117.3 670.297 1.14919e-18)
(121.568 664.447 1.26069e-18)
(124.354 659.109 6.35484e-19)
(125.756 654.152 -3.23503e-19)
(125.856 649.522 6.44135e-19)
(124.7 645.12 1.00122e-18)
(122.34 640.814 -1.46306e-18)
(118.639 636.458 0)
(113.814 631.965 0)
(108.007 627.307 0)
(101.325 622.459 2.76915e-18)
(93.8948 617.42 -2.33398e-18)
(85.8706 612.221 1.90152e-20)
(77.4474 606.925 -2.85782e-18)
(68.8543 601.627 2.8705e-18)
(60.3568 596.444 2.91783e-18)
(52.1726 591.479 -2.75453e-18)
(44.5161 586.828 2.96047e-18)
(37.5593 582.579 -2.89584e-18)
(31.4095 578.782 -2.98561e-18)
(26.0968 575.441 2.93811e-18)
(21.629 572.555 -9.32844e-20)
(17.9556 570.087 2.37633e-20)
(14.9968 567.983 -1.54474e-18)
(12.6643 566.186 -1.82559e-20)
(10.8627 564.633 1.51147e-18)
(9.50767 563.27 1.18351e-20)
(8.52105 562.041 0)
(7.84088 560.898 0)
(7.41646 559.799 8.16693e-19)
(7.21089 558.704 -7.17767e-19)
(7.19732 557.578 -7.2389e-19)
(7.35913 556.387 6.72131e-19)
(7.68764 555.097 2.90859e-19)
(8.18188 553.674 -2.88846e-19)
(8.84441 552.082 -9.70908e-20)
(9.68326 550.28 0)
(10.7108 548.225 -3.90802e-19)
(11.9409 545.869 -2.00194e-19)
(13.3904 543.155 3.89296e-19)
(15.0744 540.024 4.95079e-20)
(17.005 536.41 -4.42138e-19)
(19.1865 532.242 9.98687e-19)
(21.6117 527.444 -6.90151e-19)
(24.2553 521.923 -6.2346e-21)
(18.9746 523.539 6.26995e-21)
(13.7632 524.757 0)
(8.61891 525.563 1.98019e-19)
(3.52846 525.953 -1.98192e-19)
(-1.53362 525.928 4.00356e-19)
(-6.59375 525.496 -2.35743e-18)
(-11.6805 524.665 -7.76226e-19)
(-16.8162 523.444 -7.97138e-19)
(-22.0128 521.852 7.92961e-19)
(-24.2574 525.585 1.57519e-18)
(-21.4855 530.532 -4.21931e-19)
(-18.9792 534.839 -7.99478e-19)
(-16.7489 538.577 3.91369e-19)
(-14.7886 541.817 0)
(-13.0841 544.625 0)
(-11.6191 547.061 0)
(-10.3735 549.18 0)
(-9.3294 551.032 9.67487e-20)
(-8.47135 552.662 2.71307e-22)
(-7.78679 554.109 2.88428e-19)
(-7.26787 555.411 -3.86701e-19)
(-6.9115 556.6 2.87602e-19)
(-6.71905 557.709 -2.89402e-19)
(-6.69936 558.768 -4.78497e-19)
(-6.87002 559.811 1.92399e-19)
(-7.25722 560.872 1.90447e-19)
(-7.89936 561.99 -1.91141e-19)
(-8.84634 563.207 5.69367e-19)
(-10.1629 564.571 -4.83556e-21)
(-11.924 566.136 0)
(-14.2181 567.96 -3.73662e-19)
(-17.1386 570.106 -5.89372e-21)
(-20.7774 572.632 0)
(-25.2067 575.592 0)
(-30.4867 579.028 0)
(-36.6181 582.95 -1.43242e-18)
(-43.5599 587.35 2.19846e-18)
(-51.2049 592.186 0)
(-59.3788 597.371 -2.80946e-18)
(-67.8278 602.804 -1.37253e-18)
(-76.3092 608.374 1.38071e-18)
(-84.5232 613.975 0)
(-92.1969 619.52 -2.6002e-18)
(-99.0754 624.965 0)
(-104.942 630.312 -5.23953e-18)
(-109.616 635.614 -9.96326e-18)
(-112.982 640.989 2.97459e-17)
(-114.985 646.53 -1.97575e-18)
(-115.248 652.326 -4.00144e-17)
(-113.82 658.501 8.13431e-19)
(-110.703 665.164 1.89997e-17)
(-106.02 672.286 -1.81725e-17)
(-99.8118 679.854 -2.3207e-19)
(-92.3016 687.789 1.16661e-18)
(-83.7294 695.957 1.8092e-17)
(-74.5317 704.122 -2.17359e-18)
(-65.1102 712.049 0)
(-55.6882 719.602 0)
(-46.47 726.673 0)
(-37.703 733.13 -8.20722e-18)
(-29.5977 738.854 -1.60313e-17)
(-22.1136 743.891 2.81228e-17)
(-4.5226 757.066 -1.56742e-17)
(-15.2865 748.276 -1.6082e-17)
(-27.2647 519.914 8.05272e-19)
(-9.12588 751.994 0)
(-0.881209 769.079 3.83432e-18)
(-0.336677 759.57 7.75546e-18)
(-4.76716 768.449 -1.91576e-17)
(4.1788 764.444 -7.76002e-18)
(-9.23768 767.358 0)
(5.51596 767.268 0)
(-17.2979 764.139 0)
(-14.0729 765.917 -7.7583e-18)
(4.67766 768.804 -3.81885e-18)
(2.23138 769.293 2.5278e-20)
(-19.1239 764.197 -3.90959e-18)
(-22.193 762.136 -1.17316e-17)
(-19.7776 761.789 1.56382e-17)
(-17.0027 761.183 -9.7894e-18)
(-13.8577 760.291 1.95662e-17)
(-10.2244 759.032 -5.84377e-18)
(-6.02036 757.354 7.89228e-18)
(-1.22371 755.207 -7.86671e-18)
(4.23614 752.557 1.01069e-18)
(10.3983 749.357 0)
(17.3006 745.571 -4.07898e-18)
(24.9557 741.173 4.53568e-18)
(33.3426 736.157 -5.05259e-19)
(42.4033 730.551 2.3816e-18)
(52.0479 724.396 -2.35029e-18)
(62.1104 717.787 -1.31261e-19)
(72.3843 710.848 3.11854e-20)
(82.6214 703.733 -6.78046e-20)
(92.5294 696.63 -2.40025e-18)
(101.841 689.709 4.54387e-20)
(110.304 683.126 2.59811e-18)
(117.714 676.999 1.22029e-18)
(123.969 671.399 -2.43367e-18)
(128.928 666.371 2.30984e-18)
(132.552 661.905 -2.46688e-18)
(134.925 657.894 1.06991e-20)
(136.154 654.226 0)
(136.299 650.822 8.10792e-20)
(135.448 647.571 5.73926e-19)
(133.621 644.343 -4.81444e-19)
(130.764 641.04 -6.64171e-19)
(126.961 637.571 6.54294e-19)
(122.257 633.887 0)
(116.681 629.94 0)
(110.271 625.701 6.79248e-19)
(103.085 621.165 1.83973e-19)
(95.2275 616.352 0)
(86.8468 611.319 -8.98668e-20)
(78.1408 606.15 0)
(69.3289 600.949 1.35772e-18)
(60.6552 595.836 -1.41266e-18)
(52.3652 590.933 0)
(44.6565 586.338 -2.34575e-20)
(37.6934 582.135 -2.24323e-20)
(31.5696 578.367 5.0138e-20)
(26.328 575.049 0)
(21.9582 572.168 0)
(18.4023 569.681 0)
(15.5833 567.536 -7.63326e-19)
(13.4065 565.669 7.3208e-19)
(11.7818 564.019 2.36732e-20)
(10.6224 562.524 0)
(9.85636 561.127 3.37026e-19)
(9.42344 559.775 -7.68568e-19)
(9.27879 558.421 1.10906e-18)
(9.39018 557.021 -2.85326e-19)
(9.73565 555.532 -6.77267e-19)
(10.3076 553.913 -3.16353e-21)
(11.103 552.121 4.84036e-19)
(12.1251 550.112 -1.95794e-19)
(13.3833 547.839 -3.93573e-19)
(14.8891 545.252 3.87786e-19)
(16.6585 542.295 1.95336e-19)
(18.7035 538.913 1.98353e-19)
(21.0305 535.046 4.00344e-19)
(23.6373 530.634 -4.95065e-19)
(26.5052 525.618 0)
(29.595 519.933 8.17247e-19)
(32.8352 513.493 2.30933e-20)
(27.0615 515.555 7.6917e-19)
(21.2654 517.257 5.04769e-20)
(15.4755 518.558 8.12575e-19)
(9.70602 519.427 -8.10149e-19)
(3.95901 519.848 -4.04251e-19)
(-1.77333 519.817 5.35718e-21)
(-7.50122 519.34 6.53205e-21)
(-13.2313 518.436 7.99824e-19)
(-18.9717 517.124 8.26481e-19)
(-24.7142 515.436 0)
(-30.4392 513.413 1.63482e-18)
(-32.5549 517.663 7.8997e-19)
(-29.1433 523.49 -3.71869e-20)
(-25.9571 528.654 -1.6103e-18)
(-23.0442 533.212 3.94296e-19)
(-20.4235 537.217 0)
(-18.1036 540.724 1.97533e-19)
(-16.0767 543.788 -9.84152e-20)
(-14.3271 546.468 -1.94347e-19)
(-12.8397 548.815 1.95928e-19)
(-11.5971 550.882 0)
(-10.5854 552.716 -9.68186e-20)
(-9.79576 554.36 4.82414e-19)
(-9.22371 555.855 -1.95281e-19)
(-8.87323 557.242 -1.93419e-19)
(-8.7522 558.557 -2.16548e-22)
(-8.88419 559.843 3.93301e-22)
(-9.30072 561.143 1.9074e-19)
(-10.0471 562.503 -7.63753e-19)
(-11.1831 563.975 1.93417e-19)
(-12.7816 565.613 2.32276e-21)
(-14.9282 567.48 -5.10514e-20)
(-17.7148 569.638 -3.23361e-19)
(-21.2328 572.149 2.78004e-21)
(-25.5625 575.068 -7.40121e-19)
(-30.7625 578.437 -7.28677e-19)
(-36.8343 582.266 1.45702e-18)
(-43.7517 586.553 0)
(-51.4188 591.249 0)
(-59.6602 596.27 2.09971e-18)
(-68.2873 601.526 -2.85419e-18)
(-77.0485 606.888 7.98734e-20)
(-85.6665 612.229 -1.40597e-18)
(-93.9098 617.446 6.62194e-18)
(-101.547 622.454 -1.5911e-17)
(-108.428 627.216 1.59521e-17)
(-114.421 631.721 -7.68353e-18)
(-119.423 635.996 2.05348e-17)
(-123.377 640.114 -1.02699e-17)
(-126.214 644.17 -1.25786e-18)
(-127.872 648.255 3.61334e-23)
(-128.184 652.49 -2.05284e-17)
(-127.117 657.028 3.87462e-17)
(-124.589 661.998 -9.64752e-19)
(-120.595 667.463 -1.9253e-17)
(-115.087 673.492 1.82831e-17)
(-108.154 680.082 -3.69343e-17)
(-99.9529 687.158 1.90624e-17)
(-90.7832 694.565 1.84947e-17)
(-80.9552 702.11 -1.78999e-17)
(-70.6944 709.644 0)
(-60.3444 716.972 0)
(-50.3046 723.835 4.07442e-18)
(-40.705 730.163 0)
(-31.5989 735.947 1.6109e-17)
(-23.2092 741.06 -1.63778e-17)
(-15.5362 745.514 7.96146e-18)
(-36.1115 511.107 0)
(-8.56223 749.356 -1.19552e-17)
(-3.60868 755.097 -3.82968e-18)
(-1.28485 769.116 -7.63356e-18)
(3.38029 761.575 -8.32257e-20)
(-5.55513 768.372 9.57203e-18)
(6.50191 765.582 -1.54616e-17)
(-10.3227 767.225 0)
(6.87045 767.909 0)
(-15.4139 765.768 -4.08951e-20)
(5.29901 769.06 -3.84242e-18)
(-24.3007 762.237 -3.90039e-18)
(-20.7115 764.057 3.91927e-18)
(2.30872 769.323 -1.53049e-17)
(36.1083 506.141 -7.02113e-19)
(29.9326 508.122 2.64933e-20)
(23.6346 509.775 0)
(17.2601 511.048 2.67335e-20)
(10.8438 511.9 7.91466e-19)
(4.41029 512.305 1.01131e-18)
(-2.027 512.253 -4.15281e-19)
(-8.45592 511.753 -1.9307e-19)
(-14.8618 510.83 -4.00039e-19)
(-21.2185 509.519 -7.53814e-19)
(-27.5025 507.854 2.44534e-18)
(-33.6762 505.892 -1.59659e-18)
(-39.6865 503.696 0)
(-41.688 508.58 0)
(-37.8534 515.143 3.91783e-19)
(-34.1195 521.096 -8.14876e-19)
(-30.5821 526.466 0)
(-27.3087 531.276 0)
(-24.3305 535.563 1.99586e-19)
(-21.6684 539.361 -9.72826e-20)
(-19.3277 542.716 9.80006e-20)
(-17.3026 545.676 0)
(-15.5815 548.293 9.80813e-20)
(-14.1542 550.619 -4.85375e-20)
(-13.0127 552.704 4.88666e-20)
(-12.1543 554.597 0)
(-11.5888 556.348 0)
(-11.3226 558.002 9.63646e-20)
(-11.3854 559.608 -9.63018e-20)
(-11.8173 561.223 2.40615e-19)
(-12.6716 562.9 -1.43342e-19)
(-14.016 564.703 1.19696e-19)
(-15.9326 566.694 -2.39313e-20)
(-18.5107 568.942 1.86565e-19)
(-21.8419 571.511 -1.90707e-19)
(-26.0052 574.459 3.77004e-19)
(-31.0597 577.833 7.58731e-19)
(-37.0213 581.65 3.62112e-19)
(-43.8582 585.904 0)
(-51.4706 590.55 -2.51912e-18)
(-59.7091 595.51 2.15218e-18)
(-68.3792 600.69 2.77972e-18)
(-77.2301 605.958 1.30248e-18)
(-86.007 611.191 -3.48581e-18)
(-94.486 616.28 7.26887e-20)
(-102.447 621.128 0)
(-109.74 625.672 -2.67274e-18)
(-116.261 629.887 -1.04213e-17)
(-121.935 633.762 7.91563e-18)
(-126.74 637.329 -1.28413e-17)
(-130.657 640.637 1.03395e-17)
(-133.693 643.753 0)
(-135.826 646.76 1.98718e-17)
(-137.013 649.731 -3.84725e-17)
(-137.225 652.765 2.11443e-17)
(-136.394 656.017 0)
(-134.425 659.597 -1.88332e-17)
(-131.238 663.599 1.94326e-17)
(-126.722 668.143 -1.8819e-17)
(-120.857 673.285 3.73947e-17)
(-113.65 679.047 -1.57054e-18)
(-105.255 685.361 -1.86235e-17)
(-95.8171 692.134 0)
(-85.554 699.224 -1.73218e-17)
(-74.8893 706.371 -1.55346e-18)
(-64.1012 713.386 3.43841e-17)
(-53.3623 720.171 -1.72608e-17)
(-42.9944 726.521 1.42839e-17)
(-33.1473 732.358 -3.31481e-17)
(-23.9317 737.622 1.23466e-17)
(-15.4405 742.265 -8.02273e-18)
(-2.28501 752.597 0)
(-7.73512 746.262 8.13532e-18)
(-45.4855 501.331 0)
(-26.1135 762.131 0)
(-29.5076 760.066 3.91735e-18)
(-27.1225 759.9 -1.57836e-17)
(-24.396 759.486 -1.98658e-18)
(-21.3018 758.818 -1.98874e-18)
(-17.7554 757.844 1.95463e-18)
(-13.6827 756.477 4.57562e-20)
(-9.01379 754.669 -9.53758e-19)
(-3.69615 752.4 4.00974e-18)
(2.31623 749.616 -8.03059e-18)
(9.06763 746.278 3.02042e-18)
(16.5865 742.356 -2.06317e-18)
(24.8738 737.837 4.13103e-18)
(33.8971 732.728 -1.92862e-18)
(43.5787 727.066 1.07636e-18)
(53.7959 720.921 -1.05768e-18)
(64.3705 714.398 0)
(75.0762 707.637 0)
(85.6556 700.805 1.18655e-18)
(95.829 694.081 -1.1264e-18)
(105.33 687.64 7.08044e-20)
(113.934 681.627 0)
(121.481 676.144 -3.8511e-20)
(127.883 671.236 0)
(133.127 666.907 3.08427e-18)
(137.198 663.128 -7.62489e-19)
(140.173 659.835 0)
(142.156 656.905 -6.28254e-19)
(143.255 654.258 0)
(143.516 651.778 -3.00891e-19)
(143.021 649.406 -2.50451e-20)
(141.798 647.059 0)
(139.789 644.607 0)
(137.014 642.001 -6.51329e-19)
(133.478 639.186 0)