/*--------------------------------*- C++ -*----------------------------------*\
| =========                 |                                                 |
| \\      /  F ield         | OpenFOAM: The Open Source CFD Toolbox           |
|  \\    /   O peration     | Version:  2212                                  |
|   \\  /    A nd           | Website:  www.openfoam.com                      |
|    \\/     M anipulation  |                                                 |
\*---------------------------------------------------------------------------*/
FoamFile
{
    version     2.0;
    format      ascii;
    arch        "LSB;label=32;scalar=64";
    class       volScalarField;
    location    "0.12";
    object      k;
}
// * * * * * * * * * * * * * * * * * * * * * * * * * * * * * * * * * * * * * //

dimensions      [0 2 -2 0 0 0 0];

internalField   nonuniform List<scalar> 
24240
(
8.13188e-06
1.52955e-05
1.96497e-05
1.96714e-05
1.96712e-05
1.96715e-05
1.96717e-05
1.96719e-05
1.9672e-05
1.9672e-05
1.9672e-05
1.96718e-05
1.96716e-05
1.96713e-05
1.96709e-05
1.96704e-05
1.96704e-05
1.96484e-05
1.52919e-05
8.12219e-06
6.72027e-10
8.79463e-09
5.09112e-08
6.15617e-08
5.51674e-08
5.51602e-08
5.51519e-08
5.51425e-08
5.51323e-08
5.51214e-08
5.511e-08
5.50984e-08
5.50867e-08
5.50752e-08
5.5064e-08
5.50535e-08
6.14143e-08
5.07741e-08
8.75658e-09
6.78661e-10
1.27241e-14
1.88407e-13
8.49896e-13
9.88644e-09
8.07625e-09
8.07516e-09
8.07394e-09
8.07257e-09
8.07107e-09
8.06947e-09
8.06781e-09
8.0661e-09
8.06439e-09
8.0627e-09
8.06108e-09
8.05957e-09
9.86302e-09
8.48892e-13
1.88081e-13
1.27431e-14
1.00059e-15
1.06872e-15
3.49612e-15
4.08366e-10
4.10282e-10
4.10283e-10
4.10285e-10
4.10287e-10
4.1029e-10
4.10293e-10
4.10297e-10
4.10302e-10
4.10307e-10
4.10312e-10
4.10318e-10
4.10324e-10
4.08413e-10
3.46322e-15
1.06863e-15
1.00059e-15
1e-15
1.00007e-15
2.19991e-15
4.5401e-10
4.58337e-10
4.58345e-10
4.58354e-10
4.58365e-10
4.58376e-10
4.58388e-10
4.58401e-10
4.58414e-10
4.58427e-10
4.58441e-10
4.58454e-10
4.58468e-10
4.54159e-10
2.22363e-15
1.00007e-15
1e-15
1e-15
1e-15
1.15023e-15
6.07677e-11
6.14173e-11
6.14171e-11
6.1417e-11
6.14169e-11
6.14168e-11
6.14168e-11
6.14168e-11
6.14169e-11
6.14171e-11
6.14173e-11
6.14176e-11
6.14179e-11
6.07683e-11
1.14793e-15
1e-15
1e-15
1e-15
1e-15
1.41719e-15
1.65351e-10
1.67834e-10
1.6783e-10
1.67826e-10
1.67822e-10
1.67817e-10
1.67813e-10
1.6781e-10
1.67806e-10
1.67804e-10
1.67802e-10
1.678e-10
1.67799e-10
1.65313e-10
1.41571e-15
1e-15
1e-15
1e-15
1e-15
1.02189e-15
1.05137e-11
1.0674e-11
1.0674e-11
1.06739e-11
1.06739e-11
1.06739e-11
1.0674e-11
1.0674e-11
1.0674e-11
1.06741e-11
1.06742e-11
1.06742e-11
1.06742e-11
1.05139e-11
1.02144e-15
1e-15
1e-15
1e-15
1e-15
1.05035e-15
2.70036e-11
2.75387e-11
2.75391e-11
2.75395e-11
2.75401e-11
2.75407e-11
2.75413e-11
2.7542e-11
2.75427e-11
2.75434e-11
2.7544e-11
2.75445e-11
2.75448e-11
2.70099e-11
1.04892e-15
1e-15
1e-15
1e-15
1e-15
1.00295e-15
2.0065e-12
2.04101e-12
2.04038e-12
2.03969e-12
2.03895e-12
2.03819e-12
2.03743e-12
2.0367e-12
2.03601e-12
2.03537e-12
2.0348e-12
2.03429e-12
2.03386e-12
1.9986e-12
1.00284e-15
1e-15
1e-15
1e-15
1e-15
1.00015e-15
1.31282e-13
1.33027e-13
1.32957e-13
1.32879e-13
1.32795e-13
1.32709e-13
1.32624e-13
1.3254e-13
1.32462e-13
1.32388e-13
1.32322e-13
1.32264e-13
1.32214e-13
1.30381e-13
1.00014e-15
1e-15
1e-15
1e-15
1e-15
1.02088e-15
1.17827e-11
1.19357e-11
1.19333e-11
1.19306e-11
1.19277e-11
1.19248e-11
1.19219e-11
1.19191e-11
1.19165e-11
1.19142e-11
1.19122e-11
1.19105e-11
1.19093e-11
1.17537e-11
1.01995e-15
1e-15
1e-15
1e-15
1e-15
1.00159e-15
8.34727e-13
8.44017e-13
8.43899e-13
8.43769e-13
8.43633e-13
8.43494e-13
8.43361e-13
8.43234e-13
8.4312e-13
8.43021e-13
8.42942e-13
8.42882e-13
8.42844e-13
8.33451e-13
1.00147e-15
1e-15
1e-15
1e-15
1e-15
1.42207e-15
1.64192e-10
1.65644e-10
1.6564e-10
1.65637e-10
1.65633e-10
1.65631e-10
1.65629e-10
1.65627e-10
1.65627e-10
1.65629e-10
1.65632e-10
1.65636e-10
1.65643e-10
1.64195e-10
1.40173e-15
1e-15
1e-15
1e-15
1e-15
1.08256e-15
3.25709e-11
3.28093e-11
3.28085e-11
3.28078e-11
3.28071e-11
3.28065e-11
3.28061e-11
3.2806e-11
3.28062e-11
3.28067e-11
3.28076e-11
3.28089e-11
3.28106e-11
3.25733e-11
1.07556e-15
1e-15
1e-15
1e-15
1.00002e-15
8.39216e-15
2.55378e-09
2.56674e-09
2.56672e-09
2.56669e-09
2.56667e-09
2.56665e-09
2.56664e-09
2.56664e-09
2.56665e-09
2.56668e-09
2.56671e-09
2.56676e-09
2.56682e-09
2.5539e-09
8.02342e-15
1.00002e-15
1e-15
1.00038e-15
1.01613e-15
1.70347e-13
2.38791e-09
2.39255e-09
2.3877e-09
2.38767e-09
2.38765e-09
2.38763e-09
2.38762e-09
2.39169e-09
2.38787e-09
2.3879e-09
2.38794e-09
2.38799e-09
2.39286e-09
2.38822e-09
1.68604e-13
1.01601e-15
1.00038e-15
8.02451e-14
2.79619e-13
2.39398e-08
3.50475e-08
2.95021e-08
2.83155e-08
2.83104e-08
2.83046e-08
2.82981e-08
2.82911e-08
3.13431e-08
2.82789e-08
2.82708e-08
2.82628e-08
2.8255e-08
2.94301e-08
3.49405e-08
2.38542e-08
2.74768e-13
8.01397e-14
2.63498e-10
8.27485e-09
1.83245e-07
2.24254e-07
2.01702e-07
2.01494e-07
2.01458e-07
2.01416e-07
2.01369e-07
2.01319e-07
2.01921e-07
2.01215e-07
2.01158e-07
2.01101e-07
2.01044e-07
2.0117e-07
2.23568e-07
1.82612e-07
8.22716e-09
2.63132e-10
5.29245e-05
8.72152e-05
0.000108919
0.000109078
0.000109072
0.000109069
0.000109066
0.000109061
0.000109056
0.00010905
0.000109044
0.000109038
0.000109031
0.000109024
0.000109017
0.00010901
0.000109008
0.000108842
8.71493e-05
5.28451e-05
1.19036e-05
2.17295e-05
2.69261e-05
2.68915e-05
2.68923e-05
2.68933e-05
2.68943e-05
2.68954e-05
2.68964e-05
2.68973e-05
2.68982e-05
2.68989e-05
2.68994e-05
2.68998e-05
2.69001e-05
2.69001e-05
2.69003e-05
2.69354e-05
2.17317e-05
1.19026e-05
4.92439e-09
1.19282e-08
6.18456e-08
7.40102e-08
6.63235e-08
6.63162e-08
6.63077e-08
6.62982e-08
6.62878e-08
6.62767e-08
6.62651e-08
6.62533e-08
6.62413e-08
6.62296e-08
6.62183e-08
6.62075e-08
7.3856e-08
6.17069e-08
1.18899e-08
4.9601e-09
2.6618e-14
5.32083e-13
2.06968e-12
1.21994e-08
9.92861e-09
9.92746e-09
9.92618e-09
9.92474e-09
9.92318e-09
9.92151e-09
9.91976e-09
9.91799e-09
9.9162e-09
9.91444e-09
9.91274e-09
9.91117e-09
1.21747e-08
2.06907e-12
5.31603e-13
2.70731e-14
1.0038e-15
1.28932e-15
9.90981e-15
2.5302e-09
2.54388e-09
2.54387e-09
2.54387e-09
2.54386e-09
2.54386e-09
2.54387e-09
2.54387e-09
2.54388e-09
2.54389e-09
2.54391e-09
2.54393e-09
2.54396e-09
2.53029e-09
9.58277e-15
1.28912e-15
1.00385e-15
1e-15
1.00038e-15
7.34937e-15
2.75406e-09
2.78019e-09
2.78021e-09
2.78024e-09
2.78027e-09
2.7803e-09
2.78034e-09
2.78038e-09
2.78043e-09
2.78048e-09
2.78052e-09
2.78058e-09
2.78063e-09
2.75457e-09
7.50611e-15
1.00038e-15
1e-15
1e-15
1e-15
1.92641e-15
4.35388e-10
4.39984e-10
4.3998e-10
4.39975e-10
4.3997e-10
4.39965e-10
4.39961e-10
4.39957e-10
4.39954e-10
4.39951e-10
4.39949e-10
4.39948e-10
4.39947e-10
4.35347e-10
1.90653e-15
1e-15
1e-15
1e-15
1e-15
3.15434e-15
1.02113e-09
1.03598e-09
1.03594e-09
1.03589e-09
1.03583e-09
1.03578e-09
1.03572e-09
1.03567e-09
1.03563e-09
1.03559e-09
1.03555e-09
1.03552e-09
1.0355e-09
1.0206e-09
3.14323e-15
1e-15
1e-15
1e-15
1e-15
1.14369e-15
8.23454e-11
8.35678e-11
8.35658e-11
8.35636e-11
8.35612e-11
8.35589e-11
8.35566e-11
8.35545e-11
8.35526e-11
8.35509e-11
8.35494e-11
8.35479e-11
8.35467e-11
8.23216e-11
1.13912e-15
1e-15
1e-15
1e-15
1e-15
1.27796e-15
1.89618e-10
1.93166e-10
1.9315e-10
1.93133e-10
1.93114e-10
1.93095e-10
1.93076e-10
1.93057e-10
1.9304e-10
1.93023e-10
1.93008e-10
1.92994e-10
1.92982e-10
1.89413e-10
1.26726e-15
1e-15
1e-15
1e-15
1e-15
1.02196e-15
2.05465e-11
2.08811e-11
2.0874e-11
2.0866e-11
2.08575e-11
2.08487e-11
2.084e-11
2.08315e-11
2.08235e-11
2.08161e-11
2.08094e-11
2.08035e-11
2.07985e-11
2.04551e-11
1.02086e-15
1e-15
1e-15
1e-15
1e-15
1.00174e-15
1.93157e-12
1.95677e-12
1.95584e-12
1.95479e-12
1.95368e-12
1.95253e-12
1.95138e-12
1.95026e-12
1.94919e-12
1.9482e-12
1.9473e-12
1.9465e-12
1.94581e-12
1.91943e-12
1.0016e-15
1e-15
1e-15
1e-15
1e-15
1.14548e-15
1.01901e-10
1.032e-10
1.03182e-10
1.03162e-10
1.03141e-10
1.03119e-10
1.03097e-10
1.03077e-10
1.03058e-10
1.0304e-10
1.03026e-10
1.03013e-10
1.03004e-10
1.01686e-10
1.13836e-15
1e-15
1e-15
1e-15
1e-15
1.01295e-15
8.46312e-12
8.55172e-12
8.55053e-12
8.54921e-12
8.54783e-12
8.54641e-12
8.54505e-12
8.54375e-12
8.54258e-12
8.54154e-12
8.5407e-12
8.54005e-12
8.53961e-12
8.44991e-12
1.01189e-15
1e-15
1e-15
1e-15
1e-15
3.1998e-15
1.00461e-09
1.01346e-09
1.01344e-09
1.01341e-09
1.01339e-09
1.01337e-09
1.01335e-09
1.01334e-09
1.01334e-09
1.01334e-09
1.01335e-09
1.01337e-09
1.0134e-09
1.00457e-09
3.09325e-15
1e-15
1e-15
1e-15
1e-15
1.5298e-15
2.49903e-10
2.51669e-10
2.51661e-10
2.51652e-10
2.51644e-10
2.51637e-10
2.51631e-10
2.51626e-10
2.51625e-10
2.51625e-10
2.51629e-10
2.51635e-10
2.51644e-10
2.49882e-10
1.48135e-15
1e-15
1e-15
1e-15
1.00005e-15
3.40582e-14
1.3308e-08
1.33714e-08
1.33712e-08
1.33711e-08
1.33709e-08
1.33708e-08
1.33708e-08
1.33707e-08
1.33708e-08
1.33709e-08
1.33711e-08
1.33714e-08
1.33717e-08
1.33085e-08
3.24365e-14
1.00005e-15
1e-15
1.00043e-15
1.02121e-15
2.36756e-13
1.33606e-08
1.33828e-08
1.33563e-08
1.33561e-08
1.33559e-08
1.33558e-08
1.33557e-08
1.33778e-08
1.33566e-08
1.33568e-08
1.3357e-08
1.33573e-08
1.33838e-08
1.33616e-08
2.32349e-13
1.02106e-15
1.00043e-15
1.00791e-13
3.44794e-13
3.05743e-08
4.54994e-08
4.0029e-08
3.71035e-08
3.70979e-08
3.70915e-08
3.70844e-08
3.70768e-08
4.11859e-08
3.706e-08
3.70513e-08
3.70426e-08
3.70342e-08
3.99476e-08
4.53799e-08
3.04809e-08
3.39021e-13
1.00677e-13
3.41314e-10
1.10782e-08
2.25027e-07
2.7507e-07
2.47328e-07
2.47008e-07
2.46968e-07
2.46924e-07
2.46874e-07
2.46819e-07
2.47326e-07
2.46707e-07
2.46645e-07
2.46584e-07
2.46523e-07
2.46754e-07
2.74329e-07
2.24347e-07
1.10244e-08
3.4092e-10
8.61547e-05
0.000126959
0.000153477
0.000153441
0.000153439
0.00015344
0.000153441
0.000153441
0.000153441
0.000153441
0.000153439
0.000153438
0.000153436
0.000153433
0.00015343
0.000153427
0.000153427
0.000153461
0.000126943
8.60857e-05
1.21122e-05
2.35268e-05
2.86998e-05
2.86511e-05
2.86523e-05
2.86538e-05
2.86554e-05
2.86571e-05
2.86588e-05
2.86604e-05
2.86619e-05
2.86632e-05
2.86644e-05
2.86654e-05
2.86662e-05
2.86668e-05
2.86673e-05
2.87172e-05
2.35419e-05
1.21223e-05
2.65884e-08
1.73962e-08
6.34741e-08
7.37924e-08
6.67041e-08
6.66996e-08
6.66943e-08
6.66883e-08
6.66818e-08
6.66748e-08
6.66676e-08
6.66602e-08
6.66527e-08
6.66453e-08
6.66381e-08
6.66313e-08
7.37012e-08
6.33742e-08
1.73639e-08
2.66935e-08
1.73325e-13
1.66827e-12
6.35615e-12
1.01469e-08
8.20158e-09
8.201e-09
8.20035e-09
8.19963e-09
8.19885e-09
8.19803e-09
8.19716e-09
8.19629e-09
8.1954e-09
8.19453e-09
8.19369e-09
8.19291e-09
1.01344e-08
6.3547e-12
1.66736e-12
1.79005e-13
1.0285e-15
2.22936e-15
2.63365e-14
1.13401e-08
1.14104e-08
1.14102e-08
1.141e-08
1.14098e-08
1.14096e-08
1.14094e-08
1.14093e-08
1.14091e-08
1.1409e-08
1.14089e-08
1.14089e-08
1.14089e-08
1.13385e-08
2.54888e-14
2.22873e-15
1.0292e-15
1.00001e-15
1.00192e-15
2.28963e-14
1.21732e-08
1.22879e-08
1.22878e-08
1.22877e-08
1.22876e-08
1.22875e-08
1.22874e-08
1.22873e-08
1.22873e-08
1.22873e-08
1.22873e-08
1.22873e-08
1.22873e-08
1.21726e-08
2.34733e-14
1.00192e-15
1.00001e-15
1e-15
1.00001e-15
4.84046e-15
2.36312e-09
2.38769e-09
2.38763e-09
2.38758e-09
2.38752e-09
2.38746e-09
2.3874e-09
2.38734e-09
2.38729e-09
2.38724e-09
2.3872e-09
2.38717e-09
2.38714e-09
2.36252e-09
4.73148e-15
1.00001e-15
1e-15
1e-15
1.00001e-15
7.99865e-15
4.27792e-09
4.33727e-09
4.33716e-09
4.33703e-09
4.3369e-09
4.33677e-09
4.33664e-09
4.33651e-09
4.3364e-09
4.33629e-09
4.3362e-09
4.33612e-09
4.33606e-09
4.27658e-09
7.94013e-15
1.00001e-15
1e-15
1e-15
1e-15
1.59689e-15
4.85857e-10
4.92789e-10
4.92764e-10
4.92735e-10
4.92705e-10
4.92673e-10
4.92642e-10
4.92612e-10
4.92583e-10
4.92556e-10
4.92531e-10
4.92508e-10
4.92488e-10
4.85522e-10
1.57237e-15
1e-15
1e-15
1e-15
1e-15
1.84501e-15
6.77972e-10
6.89114e-10
6.89074e-10
6.8903e-10
6.88983e-10
6.88934e-10
6.88886e-10
6.88838e-10
6.88794e-10
6.88751e-10
6.88713e-10
6.88677e-10
6.88645e-10
6.7745e-10
1.8085e-15
1e-15
1e-15
1e-15
1e-15
1.10609e-15
1.32395e-10
1.34392e-10
1.34372e-10
1.34349e-10
1.34325e-10
1.34301e-10
1.34276e-10
1.34252e-10
1.34229e-10
1.34208e-10
1.34189e-10
1.34172e-10
1.34158e-10
1.32135e-10
1.10034e-15
1e-15
1e-15
1e-15
1e-15
1.01489e-15
2.37931e-11
2.4099e-11
2.40907e-11
2.40814e-11
2.40715e-11
2.40613e-11
2.4051e-11
2.4041e-11
2.40315e-11
2.40226e-11
2.40146e-11
2.40075e-11
2.40014e-11
2.36849e-11
1.01368e-15
1e-15
1e-15
1e-15
1e-15
1.64843e-15
5.97768e-10
6.05143e-10
6.05092e-10
6.05034e-10
6.04974e-10
6.04912e-10
6.04851e-10
6.04792e-10
6.04738e-10
6.04689e-10
6.04648e-10
6.04614e-10
6.04588e-10
5.97159e-10
1.61846e-15
1e-15
1e-15
1e-15
1e-15
1.08783e-15
7.97966e-11
8.05902e-11
8.05804e-11
8.05695e-11
8.05582e-11
8.05465e-11
8.05353e-11
8.05245e-11
8.05149e-11
8.05064e-11
8.04994e-11
8.04939e-11
8.04901e-11
7.96871e-11
1.08058e-15
1e-15
1e-15
1e-15
1.00001e-15
8.42487e-15
4.6237e-09
4.66414e-09
4.66401e-09
4.66387e-09
4.66374e-09
4.66361e-09
4.66349e-09
4.6634e-09
4.66333e-09
4.66329e-09
4.66329e-09
4.66332e-09
4.66339e-09
4.62294e-09
8.10168e-15
1.00001e-15
1e-15
1e-15
1e-15
3.54111e-15
1.6131e-09
1.62419e-09
1.62413e-09
1.62406e-09
1.62399e-09
1.62393e-09
1.62387e-09
1.62382e-09
1.62379e-09
1.62377e-09
1.62377e-09
1.62378e-09
1.62382e-09
1.61271e-09
3.308e-15
1e-15
1e-15
1e-15
1.00011e-15
9.11456e-14
4.59704e-08
4.62365e-08
4.62361e-08
4.62356e-08
4.62352e-08
4.62347e-08
4.62344e-08
4.62342e-08
4.62341e-08
4.62342e-08
4.62345e-08
4.62349e-08
4.62355e-08
4.59696e-08
8.71847e-14
1.00011e-15
1e-15
1.0004e-15
1.02369e-15
2.81133e-13
4.64782e-08
4.66958e-08
4.66975e-08
4.66972e-08
4.66968e-08
4.66966e-08
4.66964e-08
4.66933e-08
4.66961e-08
4.66963e-08
4.66966e-08
4.66971e-08
4.66956e-08
4.64782e-08
2.72268e-13
1.02355e-15
1.0004e-15
9.64791e-14
3.4074e-13
3.01902e-08
4.40373e-08
4.04944e-08
3.59178e-08
3.59138e-08
3.59092e-08
3.59042e-08
3.58988e-08
3.99703e-08
3.5885e-08
3.58788e-08
3.58728e-08
3.58669e-08
4.04213e-08
4.39514e-08
3.01157e-08
3.35739e-13
9.64051e-14
3.48403e-10
1.2637e-08
2.20615e-07
2.67919e-07
2.40259e-07
2.39888e-07
2.39859e-07
2.39827e-07
2.3979e-07
2.39751e-07
2.40056e-07
2.39669e-07
2.39625e-07
2.39581e-07
2.39538e-07
2.39842e-07
2.67377e-07
2.20109e-07
1.25893e-08
3.48119e-10
9.30942e-05
0.000128554
0.000154229
0.000154178
0.000154177
0.000154179
0.00015418
0.00015418
0.000154181
0.000154181
0.000154181
0.00015418
0.000154179
0.000154178
0.000154177
0.000154175
0.000154175
0.000154225
0.000128548
9.30794e-05
5.59224e-07
5.09544e-06
7.40817e-06
7.42372e-06
7.42433e-06
7.42503e-06
7.42581e-06
7.42664e-06
7.42748e-06
7.42832e-06
7.42913e-06
7.42988e-06
7.43058e-06
7.43119e-06
7.43172e-06
7.43216e-06
7.43248e-06
7.41761e-06
5.1031e-06
5.59555e-07
7.3042e-08
8.62689e-09
2.91264e-08
3.38902e-08
2.95103e-08
2.95108e-08
2.95115e-08
2.95123e-08
2.95132e-08
2.95142e-08
2.95153e-08
2.95164e-08
2.95175e-08
2.95187e-08
2.95198e-08
2.95207e-08
3.39018e-08
2.91386e-08
8.62853e-09
7.31285e-08
1.81802e-12
5.13767e-12
1.91723e-11
6.63152e-09
5.2645e-09
5.26427e-09
5.26404e-09
5.26378e-09
5.26351e-09
5.26322e-09
5.26292e-09
5.26262e-09
5.26233e-09
5.26204e-09
5.26175e-09
5.26151e-09
6.62723e-09
1.91671e-11
5.13554e-12
1.86676e-12
1.28637e-15
5.94008e-15
5.36208e-14
1.83966e-08
1.85416e-08
1.85413e-08
1.85409e-08
1.85406e-08
1.85402e-08
1.85399e-08
1.85395e-08
1.85392e-08
1.85389e-08
1.85386e-08
1.85384e-08
1.85383e-08
1.83929e-08
5.25205e-14
5.93792e-15
1.29565e-15
1.00013e-15
1.00862e-15
4.03735e-14
2.04369e-08
2.06369e-08
2.06366e-08
2.06362e-08
2.06357e-08
2.06353e-08
2.06349e-08
2.06345e-08
2.06341e-08
2.06337e-08
2.06334e-08
2.06331e-08
2.06329e-08
2.04325e-08
4.1774e-14
1.00862e-15
1.00014e-15
1e-15
1.00003e-15
9.98377e-15
5.34285e-09
5.3984e-09
5.39827e-09
5.39812e-09
5.39797e-09
5.39781e-09
5.39764e-09
5.39748e-09
5.39733e-09
5.39718e-09
5.39705e-09
5.39693e-09
5.39684e-09
5.34114e-09
9.81076e-15
1.00003e-15
1e-15
1e-15
1.00001e-15
1.25199e-14
6.94393e-09
7.03307e-09
7.0329e-09
7.0327e-09
7.03249e-09
7.03227e-09
7.03205e-09
7.03183e-09
7.03162e-09
7.03142e-09
7.03125e-09
7.03109e-09
7.03096e-09
6.94162e-09
1.25084e-14
1.00001e-15
1e-15
1e-15
1e-15
2.21312e-15
9.73251e-10
9.85917e-10
9.85875e-10
9.85826e-10
9.85774e-10
9.85719e-10
9.85663e-10
9.85608e-10
9.85554e-10
9.85503e-10
9.85456e-10
9.85413e-10
9.85374e-10
9.72644e-10
2.17011e-15
1e-15
1e-15
1e-15
1e-15
2.31641e-15
1.06458e-09
1.07909e-09
1.07904e-09
1.07897e-09
1.0789e-09
1.07882e-09
1.07875e-09
1.07867e-09
1.0786e-09
1.07853e-09
1.07847e-09
1.07841e-09
1.07835e-09
1.06375e-09
2.2646e-15
1e-15
1e-15
1e-15
1e-15
1.23658e-15
2.86523e-10
2.90259e-10
2.90228e-10
2.90193e-10
2.90155e-10
2.90116e-10
2.90076e-10
2.90037e-10
2.9e-10
2.89965e-10
2.89932e-10
2.89903e-10
2.89876e-10
2.86096e-10
1.22509e-15
1e-15
1e-15
1e-15
1e-15
1.06469e-15
9.54444e-11
9.65835e-11
9.65664e-11
9.65471e-11
9.65264e-11
9.65048e-11
9.6483e-11
9.64614e-11
9.64407e-11
9.6421e-11
9.64029e-11
9.63865e-11
9.6372e-11
9.52091e-11
1.05993e-15
1e-15
1e-15
1e-15
1e-15
2.48353e-15
1.34401e-09
1.3596e-09
1.35952e-09
1.35943e-09
1.35934e-09
1.35924e-09
1.35914e-09
1.35905e-09
1.35896e-09
1.35888e-09
1.3588e-09
1.35874e-09
1.35869e-09
1.34302e-09
2.4273e-15
1e-15
1e-15
1e-15
1e-15
1.43104e-15
4.2973e-10
4.33881e-10
4.33853e-10
4.33822e-10
4.33789e-10
4.33755e-10
4.33723e-10
4.33691e-10
4.33662e-10
4.33636e-10
4.33614e-10
4.33597e-10
4.33584e-10
4.29406e-10
1.39727e-15
1e-15
1e-15
1e-15
1.00002e-15
1.53614e-14
9.12749e-09
9.20956e-09
9.20939e-09
9.2092e-09
9.20901e-09
9.20881e-09
9.20864e-09
9.20847e-09
9.20834e-09
9.20825e-09
9.20819e-09
9.20819e-09
9.20822e-09
9.12609e-09
1.49495e-14
1.00002e-15
1e-15
1e-15
1.00001e-15
9.10101e-15
5.09601e-09
5.13208e-09
5.132e-09
5.13191e-09
5.13182e-09
5.13174e-09
5.13168e-09
5.13164e-09
5.13162e-09
5.13163e-09
5.13167e-09
5.13174e-09
5.13184e-09
5.09582e-09
8.43417e-15
1.00001e-15
1e-15
1e-15
1.00015e-15
1.23726e-13
5.84578e-08
5.88429e-08
5.88425e-08
5.88421e-08
5.88417e-08
5.88413e-08
5.8841e-08
5.88408e-08
5.88406e-08
5.88406e-08
5.88407e-08
5.88409e-08
5.88413e-08
5.84563e-08
1.20322e-13
1.00015e-15
1e-15
1.00003e-15
1.02429e-15
2.85888e-13
5.79041e-08
5.82348e-08
5.82593e-08
5.82592e-08
5.8259e-08
5.82589e-08
5.82588e-08
5.82392e-08
5.82573e-08
5.82574e-08
5.82576e-08
5.82579e-08
5.82336e-08
5.79032e-08
2.76257e-13
1.02418e-15
1.00003e-15
1.62639e-14
2.404e-13
2.47845e-08
3.4555e-08
3.3619e-08
2.79539e-08
2.79521e-08
2.795e-08
2.79478e-08
2.79454e-08
3.12647e-08
2.79379e-08
2.79352e-08
2.79326e-08
2.79301e-08
3.35854e-08
3.45155e-08
2.47658e-08
2.3871e-13
1.62622e-14
5.04181e-11
1.30844e-08
1.56268e-07
1.8818e-07
1.66602e-07
1.66132e-07
1.66128e-07
1.66124e-07
1.66119e-07
1.66114e-07
1.66301e-07
1.66105e-07
1.66101e-07
1.66097e-07
1.66093e-07
1.66554e-07
1.88108e-07
1.56199e-07
1.30477e-08
5.04181e-11
2.97628e-05
6.26671e-05
7.94255e-05
7.95435e-05
7.95435e-05
7.95446e-05
7.95457e-05
7.95468e-05
7.95478e-05
7.95488e-05
7.95495e-05
7.95503e-05
7.95508e-05
7.95512e-05
7.95514e-05
7.95514e-05
7.95524e-05
7.94348e-05
6.26738e-05
2.97549e-05
4.29674e-07
6.75213e-06
9.14203e-06
9.13468e-06
9.13528e-06
9.13593e-06
9.13667e-06
9.13746e-06
9.13828e-06
9.1391e-06
9.1399e-06
9.14067e-06
9.14139e-06
9.14205e-06
9.14263e-06
9.14313e-06
9.14348e-06
9.15157e-06
6.76024e-06
4.31618e-07
5.57147e-08
1.26752e-08
3.81026e-08
4.37326e-08
3.91368e-08
3.91362e-08
3.91355e-08
3.91347e-08
3.91339e-08
3.9133e-08
3.9132e-08
3.91311e-08
3.91301e-08
3.91291e-08
3.91281e-08
3.91271e-08
4.37191e-08
3.80902e-08
1.26747e-08
5.56479e-08
1.58854e-11
1.45317e-11
5.21897e-11
6.09306e-09
4.81331e-09
4.81315e-09
4.813e-09
4.81284e-09
4.81267e-09
4.81249e-09
4.81231e-09
4.81213e-09
4.81196e-09
4.81179e-09
4.81163e-09
4.8115e-09
6.09021e-09
5.21739e-11
1.45269e-11
1.60899e-11
4.12667e-15
1.87072e-14
1.09737e-13
2.37078e-08
2.39187e-08
2.39184e-08
2.39181e-08
2.39177e-08
2.39174e-08
2.39171e-08
2.39167e-08
2.39164e-08
2.39161e-08
2.39158e-08
2.39156e-08
2.39155e-08
2.37045e-08
1.08854e-13
1.87e-14
4.20804e-15
1.00091e-15
1.02884e-15
4.66755e-14
2.46502e-08
2.49e-08
2.48997e-08
2.48993e-08
2.48989e-08
2.48985e-08
2.48981e-08
2.48977e-08
2.48973e-08
2.4897e-08
2.48967e-08
2.48965e-08
2.48964e-08
2.46465e-08
4.85939e-14
1.02883e-15
1.00093e-15
1e-15
1.00007e-15
1.25697e-14
7.34958e-09
7.42641e-09
7.42627e-09
7.42613e-09
7.42596e-09
7.42579e-09
7.42562e-09
7.42544e-09
7.42526e-09
7.4251e-09
7.42497e-09
7.42488e-09
7.42485e-09
7.34798e-09
1.24766e-14
1.00007e-15
1e-15
1e-15
1.00002e-15
1.45181e-14
8.44822e-09
8.54886e-09
8.54872e-09
8.54855e-09
8.54837e-09
8.54816e-09
8.54796e-09
8.54774e-09
8.54754e-09
8.54734e-09
8.54718e-09
8.54704e-09
8.54695e-09
8.44617e-09
1.45968e-14
1.00002e-15
1e-15
1e-15
1e-15
2.72772e-15
1.45486e-09
1.47228e-09
1.47223e-09
1.47218e-09
1.47211e-09
1.47205e-09
1.47198e-09
1.47191e-09
1.47184e-09
1.47177e-09
1.47171e-09
1.47165e-09
1.47159e-09
1.45408e-09
2.67957e-15
1e-15
1e-15
1e-15
1e-15
2.86035e-15
1.53154e-09
1.55039e-09
1.55033e-09
1.55026e-09
1.55018e-09
1.55009e-09
1.55e-09
1.54991e-09
1.54982e-09
1.54974e-09
1.54965e-09
1.54957e-09
1.54948e-09
1.5305e-09
2.79681e-15
1e-15
1e-15
1e-15
1e-15
1.46586e-15
5.47462e-10
5.53999e-10
5.53961e-10
5.53917e-10
5.53869e-10
5.53819e-10
5.53767e-10
5.53715e-10
5.53665e-10
5.53615e-10
5.53567e-10
5.53522e-10
5.53477e-10
5.46873e-10
1.44609e-15
1e-15
1e-15
1e-15
1e-15
1.19311e-15
2.64345e-10
2.67315e-10
2.67288e-10
2.67257e-10
2.67223e-10
2.67187e-10
2.6715e-10
2.67112e-10
2.67076e-10
2.6704e-10
2.67006e-10
2.66973e-10
2.66942e-10
2.63927e-10
1.18011e-15
1e-15
1e-15
1e-15
1e-15
3.72782e-15
2.41863e-09
2.44524e-09
2.44517e-09
2.44507e-09
2.44498e-09
2.44487e-09
2.44476e-09
2.44465e-09
2.44455e-09
2.44445e-09
2.44435e-09
2.44426e-09
2.44418e-09
2.41744e-09
3.64893e-15
1e-15
1e-15
1e-15
1e-15
2.3159e-15
1.28527e-09
1.2975e-09
1.29747e-09
1.29743e-09
1.29739e-09
1.29734e-09
1.29729e-09
1.29725e-09
1.29721e-09
1.29716e-09
1.29713e-09
1.2971e-09
1.29707e-09
1.28479e-09
2.22078e-15
1e-15
1e-15
1e-15
1.00002e-15
2.31581e-14
1.4388e-08
1.45186e-08
1.45185e-08
1.45184e-08
1.45183e-08
1.45181e-08
1.4518e-08
1.45178e-08
1.45177e-08
1.45176e-08
1.45175e-08
1.45175e-08
1.45175e-08
1.43868e-08
2.27471e-14
1.00002e-15
1e-15
1e-15
1.00002e-15
1.86503e-14
1.14524e-08
1.15381e-08
1.1538e-08
1.1538e-08
1.15379e-08
1.15378e-08
1.15377e-08
1.15377e-08
1.15376e-08
1.15376e-08
1.15375e-08
1.15375e-08
1.15375e-08
1.14518e-08
1.72764e-14
1.00002e-15
1e-15
1e-15
1.00017e-15
1.40534e-13
6.99291e-08
7.04398e-08
7.04394e-08
7.04392e-08
7.04389e-08
7.04387e-08
7.04385e-08
7.04385e-08
7.04381e-08
7.0438e-08
7.04379e-08
7.04378e-08
7.0438e-08
6.99273e-08
1.39287e-13
1.00017e-15
1e-15
1.00014e-15
1.02426e-15
2.92261e-13
7.38022e-08
7.42528e-08
7.42781e-08
7.42779e-08
7.42777e-08
7.42775e-08
7.42773e-08
7.42574e-08
7.42768e-08
7.42767e-08
7.42769e-08
7.42769e-08
7.42517e-08
7.3801e-08
2.80696e-13
1.02418e-15
1.00014e-15
3.88882e-14
2.45391e-13
2.14344e-08
3.23279e-08
2.95024e-08
2.62491e-08
2.62478e-08
2.62464e-08
2.62448e-08
2.62431e-08
2.92148e-08
2.62377e-08
2.62358e-08
2.6234e-08
2.62322e-08
2.94831e-08
3.22995e-08
2.14119e-08
2.44099e-13
3.88742e-14
1.28308e-10
1.33662e-08
1.54109e-07
1.85286e-07
1.65656e-07
1.65618e-07
1.65608e-07
1.65597e-07
1.65585e-07
1.65572e-07
1.65644e-07
1.65546e-07
1.65532e-07
1.65519e-07
1.65504e-07
1.65521e-07
1.85112e-07
1.53943e-07
1.33382e-08
1.28259e-10
4.0573e-05
6.88673e-05
8.52037e-05
8.52241e-05
8.52246e-05
8.52258e-05
8.5227e-05
8.52284e-05
8.52297e-05
8.5231e-05
8.52323e-05
8.52336e-05
8.52347e-05
8.52358e-05
8.52368e-05
8.52376e-05
8.52387e-05
8.52194e-05
6.88796e-05
4.05808e-05
3.47585e-07
3.67963e-06
5.40663e-06
5.41332e-06
5.41372e-06
5.41411e-06
5.41455e-06
5.41503e-06
5.41554e-06
5.41606e-06
5.41658e-06
5.41709e-06
5.41758e-06
5.41805e-06
5.41848e-06
5.41886e-06
5.41911e-06
5.41297e-06
3.68497e-06
3.47528e-07
1.41955e-10
1.10784e-08
3.67393e-08
4.33412e-08
3.75956e-08
3.75951e-08
3.75945e-08
3.7594e-08
3.75934e-08
3.75928e-08
3.75922e-08
3.75917e-08
3.75911e-08
3.75906e-08
3.75901e-08
3.75897e-08
4.33323e-08
3.67314e-08
1.1076e-08
1.37372e-10
2.89053e-13
1.94161e-11
7.0081e-11
6.26341e-09
4.933e-09
4.93285e-09
4.93274e-09
4.93262e-09
4.93249e-09
4.93237e-09
4.93224e-09
4.93211e-09
4.93199e-09
4.93188e-09
4.93176e-09
4.93169e-09
6.26109e-09
7.00632e-11
1.94093e-11
2.88742e-13
1.51787e-15
3.31513e-14
1.61901e-13
2.33401e-08
2.3546e-08
2.35458e-08
2.35456e-08
2.35453e-08
2.3545e-08
2.35448e-08
2.35445e-08
2.35442e-08
2.3544e-08
2.35438e-08
2.35437e-08
2.35436e-08
2.33377e-08
1.61552e-13
3.31381e-14
1.51236e-15
1.00086e-15
1.05848e-15
4.74624e-14
2.47832e-08
2.50385e-08
2.50383e-08
2.50379e-08
2.50376e-08
2.50372e-08
2.50369e-08
2.50365e-08
2.50361e-08
2.50358e-08
2.50356e-08
2.50355e-08
2.50355e-08
2.47802e-08
4.94905e-14
1.05846e-15
1.00086e-15
1e-15
1.00013e-15
1.35544e-14
8.09295e-09
8.17862e-09
8.17852e-09
8.17839e-09
8.17825e-09
8.17811e-09
8.17796e-09
8.1778e-09
8.17764e-09
8.17751e-09
8.17741e-09
8.17736e-09
8.17739e-09
8.09178e-09
1.35567e-14
1.00013e-15
1e-15
1e-15
1.00002e-15
1.53234e-14
9.03192e-09
9.13708e-09
9.13696e-09
9.13681e-09
9.13666e-09
9.13647e-09
9.13629e-09
9.13609e-09
9.1359e-09
9.13572e-09
9.13557e-09
9.13545e-09
9.13539e-09
9.03014e-09
1.54737e-14
1.00002e-15
1e-15
1e-15
1e-15
3.08603e-15
1.78076e-09
1.80145e-09
1.80141e-09
1.80135e-09
1.80129e-09
1.80122e-09
1.80115e-09
1.80108e-09
1.801e-09
1.80093e-09
1.80086e-09
1.80078e-09
1.80071e-09
1.77992e-09
3.04385e-15
1e-15
1e-15
1e-15
1e-15
3.28904e-15
1.89669e-09
1.91861e-09
1.91855e-09
1.91847e-09
1.91838e-09
1.91828e-09
1.91818e-09
1.91808e-09
1.91797e-09
1.91786e-09
1.91774e-09
1.91761e-09
1.91748e-09
1.89536e-09
3.23055e-15
1e-15
1e-15
1e-15
1e-15
1.7491e-15
8.45066e-10
8.54641e-10
8.54596e-10
8.54545e-10
8.54487e-10
8.54425e-10
8.54358e-10
8.54291e-10
8.5422e-10
8.54149e-10
8.54074e-10
8.53998e-10
8.53916e-10
8.4423e-10
1.72279e-15
1e-15
1e-15
1e-15
1e-15
1.39691e-15
5.02356e-10
5.07794e-10
5.07759e-10
5.07717e-10
5.07671e-10
5.07621e-10
5.07569e-10
5.07514e-10
5.07458e-10
5.07401e-10
5.07342e-10
5.07283e-10
5.07222e-10
5.01703e-10
1.37487e-15
1e-15
1e-15
1e-15
1e-15
5.00687e-15
3.44281e-09
3.47974e-09
3.47966e-09
3.47956e-09
3.47945e-09
3.47933e-09
3.47919e-09
3.47906e-09
3.47891e-09
3.47877e-09
3.47861e-09
3.47845e-09
3.47829e-09
3.44115e-09
4.94147e-15
1e-15
1e-15
1e-15
1e-15
3.49124e-15
2.29148e-09
2.3134e-09
2.31336e-09
2.31331e-09
2.31325e-09
2.31318e-09
2.31312e-09
2.31304e-09
2.31297e-09
2.31289e-09
2.31281e-09
2.31273e-09
2.31265e-09
2.29063e-09
3.34964e-15
1e-15
1e-15
1e-15
1.00003e-15
2.7536e-14
1.70407e-08
1.71995e-08
1.71994e-08
1.71992e-08
1.7199e-08
1.71988e-08
1.71985e-08
1.71983e-08
1.7198e-08
1.71977e-08
1.71975e-08
1.71972e-08
1.71969e-08
1.70378e-08
2.75965e-14
1.00003e-15
1e-15
1e-15
1.00002e-15
2.41996e-14
1.47139e-08
1.48277e-08
1.48276e-08
1.48275e-08
1.48274e-08
1.48272e-08
1.4827e-08
1.48268e-08
1.48266e-08
1.48264e-08
1.48261e-08
1.48259e-08
1.48256e-08
1.47115e-08
2.27832e-14
1.00002e-15
1e-15
1e-15
1.00017e-15
1.41203e-13
6.9183e-08
6.97133e-08
6.97132e-08
6.9713e-08
6.97127e-08
6.97125e-08
6.97122e-08
6.9712e-08
6.97117e-08
6.97114e-08
6.97111e-08
6.97108e-08
6.97105e-08
6.91797e-08
1.42015e-13
1.00017e-15
1e-15
1.00009e-15
1.02325e-15
2.68037e-13
7.01239e-08
7.06139e-08
7.06262e-08
7.06261e-08
7.0626e-08
7.06259e-08
7.06257e-08
7.06166e-08
7.06254e-08
7.06252e-08
7.06251e-08
7.06249e-08
7.06124e-08
7.01221e-08
2.60749e-13
1.02322e-15
1.00009e-15
2.36004e-14
2.08941e-13
2.00063e-08
2.76514e-08
2.5991e-08
2.21893e-08
2.21887e-08
2.2188e-08
2.21873e-08
2.21866e-08
2.48364e-08
2.21824e-08
2.21814e-08
2.21807e-08
2.218e-08
2.59763e-08
2.76369e-08
1.99962e-08
2.09733e-13
2.36022e-14
7.68266e-11
1.32266e-08
1.35026e-07
1.6223e-07
1.44277e-07
1.44143e-07
1.4414e-07
1.44136e-07
1.44132e-07
1.44128e-07
1.44204e-07
1.4412e-07
1.44116e-07
1.44112e-07
1.44108e-07
1.44235e-07
1.62173e-07
1.34971e-07
1.32129e-08
7.68314e-11
2.31073e-05
4.4775e-05
5.68891e-05
5.69549e-05
5.69556e-05
5.69566e-05
5.69577e-05
5.6959e-05
5.69603e-05
5.69618e-05
5.69632e-05
5.69648e-05
5.69663e-05
5.69679e-05
5.69694e-05
5.69708e-05
5.69721e-05
5.69077e-05
4.47908e-05
2.31198e-05
3.41368e-07
3.7142e-06
5.35893e-06
5.35982e-06
5.36013e-06
5.36043e-06
5.36078e-06
5.36116e-06
5.36157e-06
5.36199e-06
5.36242e-06
5.36285e-06
5.36328e-06
5.36369e-06
5.36407e-06
5.36442e-06
5.36467e-06
5.36426e-06
3.71879e-06
3.41379e-07
7.47491e-10
1.30999e-08
4.08684e-08
4.89917e-08
4.16231e-08
4.16227e-08
4.16224e-08
4.16221e-08
4.16218e-08
4.16215e-08
4.16212e-08
4.1621e-08
4.16208e-08
4.16205e-08
4.16203e-08
4.16202e-08
4.8987e-08
4.08646e-08
1.31002e-08
7.47599e-10
9.04916e-13
2.57949e-11
9.1007e-11
6.95321e-09
5.1886e-09
5.18844e-09
5.18836e-09
5.18828e-09
5.1882e-09
5.18812e-09
5.18804e-09
5.18796e-09
5.18789e-09
5.18782e-09
5.18775e-09
5.18777e-09
6.95173e-09
9.09937e-11
2.57898e-11
9.05045e-13
2.13456e-15
4.82811e-14
2.14058e-13
2.35079e-08
2.37148e-08
2.37146e-08
2.37145e-08
2.37143e-08
2.37141e-08
2.37139e-08
2.37137e-08
2.37135e-08
2.37134e-08
2.37133e-08
2.37133e-08
2.37133e-08
2.35065e-08
2.14106e-13
4.82678e-14
2.13468e-15
1.00157e-15
1.08929e-15
4.74284e-14
2.4774e-08
2.50343e-08
2.50342e-08
2.5034e-08
2.50338e-08
2.50335e-08
2.50333e-08
2.5033e-08
2.50328e-08
2.50326e-08
2.50325e-08
2.50325e-08
2.50326e-08
2.47725e-08
4.95917e-14
1.08927e-15
1.00157e-15
1e-15
1.00019e-15
1.40563e-14
8.57256e-09
8.66477e-09
8.66474e-09
8.66468e-09
8.66461e-09
8.66453e-09
8.66444e-09
8.66435e-09
8.66426e-09
8.66419e-09
8.66416e-09
8.66417e-09
8.66423e-09
8.57215e-09
1.41303e-14
1.00019e-15
1e-15
1e-15
1.00002e-15
1.58266e-14
9.48649e-09
9.59578e-09
9.59571e-09
9.59559e-09
9.59549e-09
9.59534e-09
9.59519e-09
9.59502e-09
9.59488e-09
9.59473e-09
9.59462e-09
9.59454e-09
9.59452e-09
9.48521e-09
1.60543e-14
1.00002e-15
1e-15
1e-15
1e-15
3.47923e-15
2.14122e-09
2.16576e-09
2.16571e-09
2.16566e-09
2.16559e-09
2.16553e-09
2.16545e-09
2.16538e-09
2.1653e-09
2.16522e-09
2.16514e-09
2.16505e-09
2.16497e-09
2.14032e-09
3.44546e-15
1e-15
1e-15