/*--------------------------------*- C++ -*----------------------------------*\
| =========                 |                                                 |
| \\      /  F ield         | OpenFOAM: The Open Source CFD Toolbox           |
|  \\    /   O peration     | Version:  2212                                  |
|   \\  /    A nd           | Website:  www.openfoam.com                      |
|    \\/     M anipulation  |                                                 |
\*---------------------------------------------------------------------------*/
FoamFile
{
    version     2.0;
    format      ascii;
    arch        "LSB;label=32;scalar=64";
    class       volScalarField;
    location    "0.4401";
    object      s;
}
// * * * * * * * * * * * * * * * * * * * * * * * * * * * * * * * * * * * * * //

dimensions      [0 0 0 0 0 0 0];

internalField   nonuniform List<scalar> 
24240
(
1.77821e-70
1.77162e-70
1.78376e-70
1.76422e-70
1.76015e-70
1.78825e-70
1.77985e-70
1.74341e-70
1.75636e-70
1.80252e-70
1.76834e-70
1.79728e-70
1.77898e-70
1.80119e-70
1.75847e-70
1.80977e-70
1.75526e-70
1.77445e-70
1.76534e-70
1.7213e-70
5.78665e-68
5.76788e-68
5.80669e-68
5.74393e-68
5.72933e-68
5.82135e-68
5.79383e-68
5.67587e-68
5.71798e-68
5.86769e-68
5.7569e-68
5.84982e-68
5.79238e-68
5.86326e-68
5.72527e-68
5.89081e-68
5.71554e-68
5.77734e-68
5.74713e-68
5.60294e-68
9.42032e-66
9.39399e-66
9.45601e-66
9.35517e-66
9.32925e-66
9.47995e-66
9.43491e-66
9.24393e-66
9.31249e-66
9.55531e-66
9.37571e-66
9.52492e-66
9.43486e-66
9.54794e-66
9.32499e-66
9.59215e-66
9.3104e-66
9.40986e-66
9.35986e-66
9.12386e-66
9.00477e-64
8.98363e-64
9.04175e-64
8.94656e-64
8.91973e-64
9.06457e-64
9.0213e-64
8.83976e-64
8.90533e-64
9.13644e-64
8.96554e-64
9.10609e-64
9.02332e-64
9.1291e-64
8.91764e-64
9.17061e-64
8.90488e-64
8.99877e-64
8.95028e-64
8.72358e-64
6.07431e-62
6.06272e-62
6.10109e-62
6.03768e-62
6.0182e-62
6.11643e-62
6.08713e-62
5.96541e-62
6.00973e-62
6.16484e-62
6.05017e-62
6.1435e-62
6.08998e-62
6.15972e-62
6.01826e-62
6.18715e-62
6.01052e-62
6.07297e-62
6.03988e-62
5.88641e-62
2.84157e-60
2.83732e-60
2.85486e-60
2.82554e-60
2.8158e-60
2.86196e-60
2.84822e-60
2.79163e-60
2.81244e-60
2.88454e-60
2.83123e-60
2.87414e-60
2.85019e-60
2.88201e-60
2.81641e-60
2.89452e-60
2.81322e-60
2.84195e-60
2.82635e-60
2.75445e-60
9.24662e-59
9.2366e-59
9.29217e-59
9.1979e-59
9.16412e-59
9.31492e-59
9.27019e-59
9.08735e-59
9.15565e-59
9.38818e-59
9.21617e-59
9.35301e-59
9.27887e-59
9.37955e-59
9.1682e-59
9.41887e-59
9.15938e-59
9.25099e-59
9.20005e-59
8.96637e-59
1.9518e-57
1.95035e-57
1.96173e-57
1.94203e-57
1.9345e-57
1.96636e-57
1.95697e-57
1.91869e-57
1.93337e-57
1.98173e-57
1.94591e-57
1.97406e-57
1.95922e-57
1.97979e-57
1.9357e-57
1.98766e-57
1.93425e-57
1.95304e-57
1.94236e-57
1.8935e-57
1.20394e-56
1.20367e-56
1.21052e-56
1.19846e-56
1.19357e-56
1.21315e-56
1.20748e-56
1.18413e-56
1.1936e-56
1.22256e-56
1.20106e-56
1.21772e-56
1.20915e-56
1.22124e-56
1.19452e-56
1.22565e-56
1.19399e-56
1.20501e-56
1.19857e-56
1.16893e-56
3.147e-57
3.15131e-57
3.17696e-57
3.13061e-57
3.12516e-57
3.14775e-57
3.15043e-57
3.10066e-57
3.17878e-57
3.16212e-57
3.16719e-57
3.16438e-57
3.14518e-57
3.14981e-57
3.10722e-57
3.12581e-57
3.13196e-57
3.11995e-57
3.12707e-57
3.12914e-57
5.81931e-57
5.84471e-57
5.90516e-57
5.79918e-57
5.77782e-57
5.78167e-57
5.81911e-57
5.74984e-57
5.90043e-57
5.88244e-57
5.89762e-57
5.84904e-57
5.84981e-57
5.80194e-57
5.76161e-57
5.78827e-57
5.73304e-57
5.76121e-57
5.7923e-57
5.77381e-57
6.22237e-57
6.25095e-57
6.29254e-57
6.17985e-57
6.19924e-57
6.14134e-57
6.24642e-57
6.19253e-57
6.2242e-57
6.33907e-57
6.26586e-57
6.17511e-57
6.28704e-57
6.24518e-57
6.21843e-57
6.25895e-57
6.08708e-57
6.1904e-57
6.16001e-57
6.14969e-57
7.50503e-57
7.53424e-57
7.5673e-57
7.57707e-57
7.59477e-57
7.65932e-57
7.70386e-57
7.62786e-57
7.59913e-57
7.51018e-57
7.51182e-57
7.53054e-57
7.60185e-57
7.62317e-57
7.53706e-57
7.57576e-57
7.57554e-57
7.55935e-57
7.49178e-57
7.52856e-57
7.89459e-57
7.8368e-57
7.87181e-57
7.99031e-57
7.95787e-57
8.03372e-57
7.89673e-57
8.05948e-57
7.84281e-57
7.78421e-57
7.77977e-57
7.85562e-57
7.84331e-57
7.77026e-57
7.75088e-57
7.82191e-57
7.7305e-57
7.85791e-57
7.81516e-57
7.90017e-57
8.30064e-57
8.26711e-57
8.3784e-57
8.28218e-57
8.28679e-57
8.42238e-57
8.33834e-57
8.48617e-57
8.31656e-57
8.43762e-57
8.36638e-57
8.39486e-57
8.39921e-57
8.47468e-57
8.38064e-57
8.51162e-57
8.34729e-57
8.25762e-57
8.34677e-57
8.272e-57
8.10551e-57
8.04276e-57
7.99107e-57
8.01837e-57
8.08446e-57
8.14246e-57
8.11602e-57
8.09319e-57
7.98107e-57
8.00281e-57
7.91626e-57
8.09484e-57
8.12656e-57
8.1744e-57
8.18244e-57
8.12353e-57
8.1041e-57
8.13823e-57
8.0718e-57
8.08142e-57
7.63516e-57
7.76203e-57
7.64246e-57
7.81779e-57
7.60833e-57
7.75418e-57
7.63961e-57
7.7534e-57
7.67607e-57
7.74547e-57
7.68287e-57
7.85524e-57
7.69577e-57
7.87004e-57
7.70517e-57
7.73833e-57
7.78245e-57
7.62118e-57
7.802e-57
7.79503e-57
6.83827e-57
7.0079e-57
6.97788e-57
6.89875e-57
6.85733e-57
7.05258e-57
6.93604e-57
6.98208e-57
6.9456e-57
6.85179e-57
6.90608e-57
7.01625e-57
6.91127e-57
7.09144e-57
6.91987e-57
7.01339e-57
7.01485e-57
6.97082e-57
7.02824e-57
7.06477e-57
6.78459e-57
6.79052e-57
6.81626e-57
6.86604e-57
6.8606e-57
6.86389e-57
6.73882e-57
6.90293e-57
6.92826e-57
6.79256e-57
6.89506e-57
6.94629e-57
6.74479e-57
6.96205e-57
6.94517e-57
7.03844e-57
6.901e-57
6.92145e-57
6.85757e-57
6.97115e-57
4.10018e-57
4.13721e-57
4.13927e-57
4.09482e-57
4.12265e-57
4.11548e-57
4.11864e-57
4.13328e-57
4.08567e-57
4.16025e-57
4.07399e-57
4.16151e-57
4.08396e-57
4.20396e-57
4.09516e-57
4.1025e-57
4.10178e-57
4.17774e-57
4.12412e-57
4.19988e-57
3.60152e-69
3.58979e-69
3.61411e-69
3.57511e-69
3.56614e-69
3.62351e-69
3.6064e-69
3.53297e-69
3.55912e-69
3.65255e-69
3.58343e-69
3.64144e-69
3.60549e-69
3.64969e-69
3.56363e-69
3.66684e-69
3.55726e-69
3.59581e-69
3.57692e-69
3.4869e-69
1.15554e-66
1.15233e-66
1.15999e-66
1.14764e-66
1.14449e-66
1.16301e-66
1.15749e-66
1.13405e-66
1.14244e-66
1.17231e-66
1.15022e-66
1.16858e-66
1.15747e-66
1.17137e-66
1.14397e-66
1.1768e-66
1.14207e-66
1.15431e-66
1.14814e-66
1.11907e-66
1.85162e-64
1.84734e-64
1.85938e-64
1.83985e-64
1.83438e-64
1.86422e-64
1.85533e-64
1.81798e-64
1.83142e-64
1.87911e-64
1.84387e-64
1.87288e-64
1.85576e-64
1.87757e-64
1.834e-64
1.88614e-64
1.83121e-64
1.85059e-64
1.84056e-64
1.79368e-64
1.74886e-62
1.74563e-62
1.75677e-62
1.73855e-62
1.73299e-62
1.76132e-62
1.75288e-62
1.71781e-62
1.7305e-62
1.77535e-62
1.74221e-62
1.7692e-62
1.75369e-62
1.77383e-62
1.73301e-62
1.78179e-62
1.73061e-62
1.74868e-62
1.73908e-62
1.69456e-62
1.16159e-60
1.15997e-60
1.16722e-60
1.15525e-60
1.1513e-60
1.17021e-60
1.16459e-60
1.14143e-60
1.14989e-60
1.17952e-60
1.15763e-60
1.17527e-60
1.16541e-60
1.17848e-60
1.15159e-60
1.18365e-60
1.15017e-60
1.162e-60
1.15556e-60
1.12586e-60
5.36524e-59
5.36008e-59
5.39274e-59
5.33812e-59
5.31868e-59
5.40641e-59
5.38036e-59
5.27406e-59
5.31327e-59
5.44924e-59
5.34878e-59
5.42883e-59
5.38539e-59
5.4442e-59
5.32113e-59
5.46749e-59
5.31535e-59
5.36908e-59
5.33916e-59
5.20169e-59
1.72097e-57
1.72005e-57
1.73024e-57
1.71292e-57
1.7063e-57
1.73455e-57
1.72619e-57
1.69234e-57
1.70502e-57
1.74825e-57
1.7163e-57
1.74145e-57
1.72823e-57
1.74655e-57
1.70747e-57
1.75376e-57
1.70591e-57
1.72279e-57
1.71318e-57
1.66911e-57
3.57923e-56
3.57854e-56
3.5991e-56
3.56341e-56
3.54891e-56
3.60771e-56
3.59043e-56
3.52058e-56
3.54744e-56
3.63603e-56
3.57047e-56
3.62143e-56
3.59543e-56
3.63227e-56
3.55197e-56
3.64651e-56
3.54948e-56
3.58358e-56
3.56377e-56
3.47293e-56
2.17714e-55
2.17789e-55
2.19006e-55
2.16851e-55
2.15926e-55
2.19488e-55
2.18458e-55
2.14258e-55
2.15966e-55
2.21199e-55
2.17317e-55
2.20289e-55
2.18815e-55
2.20947e-55
2.1615e-55
2.21733e-55
2.16063e-55
2.18035e-55
2.16859e-55
2.11417e-55
5.50516e-56
5.51303e-56
5.5584e-56
5.47698e-56
5.46702e-56
5.50585e-56
5.51072e-56
5.42465e-56
5.56179e-56
5.53218e-56
5.54138e-56
5.5352e-56
5.50298e-56
5.50975e-56
5.43648e-56
5.46717e-56
5.47852e-56
5.45772e-56
5.47065e-56
5.47413e-56
1.03186e-55
1.03631e-55
1.04704e-55
1.02819e-55
1.02451e-55
1.02507e-55
1.03171e-55
1.01958e-55
1.04612e-55
1.04309e-55
1.04565e-55
1.03695e-55
1.03727e-55
1.02882e-55
1.02171e-55
1.02634e-55
1.01648e-55
1.02147e-55
1.027e-55
1.02356e-55
1.09697e-55
1.10192e-55
1.1093e-55
1.08952e-55
1.09299e-55
1.08297e-55
1.10139e-55
1.09203e-55
1.09718e-55
1.11737e-55
1.10444e-55
1.08854e-55
1.10829e-55
1.10111e-55
1.09638e-55
1.1035e-55
1.07351e-55
1.09132e-55
1.08617e-55
1.08426e-55
1.32749e-55
1.33232e-55
1.33832e-55
1.34027e-55
1.34331e-55
1.3548e-55
1.36212e-55
1.34923e-55
1.34396e-55
1.32816e-55
1.32846e-55
1.33188e-55
1.34435e-55
1.3479e-55
1.33304e-55
1.33968e-55
1.33958e-55
1.33701e-55
1.32507e-55
1.33163e-55
1.39001e-55
1.37972e-55
1.38593e-55
1.40652e-55
1.40094e-55
1.41433e-55
1.3902e-55
1.41888e-55
1.38064e-55
1.37079e-55
1.36982e-55
1.38317e-55
1.38093e-55
1.36815e-55
1.36493e-55
1.37729e-55
1.36121e-55
1.38344e-55
1.37623e-55
1.39077e-55
1.46685e-55
1.46093e-55
1.48041e-55
1.46332e-55
1.46449e-55
1.48823e-55
1.47336e-55
1.49937e-55
1.46973e-55
1.49106e-55
1.47835e-55
1.48333e-55
1.48422e-55
1.49778e-55
1.48109e-55
1.5039e-55
1.47519e-55
1.45928e-55
1.47504e-55
1.46162e-55
1.42597e-55
1.41528e-55
1.40587e-55
1.41088e-55
1.42228e-55
1.43241e-55
1.42778e-55
1.42381e-55
1.40443e-55
1.40802e-55
1.39285e-55
1.42412e-55
1.42978e-55
1.43794e-55
1.43957e-55
1.42892e-55
1.42584e-55
1.43191e-55
1.42031e-55
1.42198e-55
1.34952e-55
1.37203e-55
1.35093e-55
1.3816e-55
1.3446e-55
1.3702e-55
1.35013e-55
1.37016e-55
1.35671e-55
1.36904e-55
1.35788e-55
1.38837e-55
1.36013e-55
1.39077e-55
1.36193e-55
1.3674e-55
1.37549e-55
1.34704e-55
1.3789e-55
1.37768e-55
1.20539e-55
1.2349e-55
1.22984e-55
1.21581e-55
1.20873e-55
1.2427e-55
1.22226e-55
1.23037e-55
1.22411e-55
1.20751e-55
1.2171e-55
1.23634e-55
1.21805e-55
1.24947e-55
1.21967e-55
1.23598e-55
1.23611e-55
1.22856e-55
1.23836e-55
1.24492e-55
1.20493e-55
1.2059e-55
1.21065e-55
1.21931e-55
1.21827e-55
1.21876e-55
1.1967e-55
1.22598e-55
1.23019e-55
1.20633e-55
1.22445e-55
1.23354e-55
1.19792e-55
1.23622e-55
1.23342e-55
1.24968e-55
1.22562e-55
1.22893e-55
1.21767e-55
1.23765e-55
7.24152e-56
7.30731e-56
7.31165e-56
7.23234e-56
7.2806e-56
7.26837e-56
7.27379e-56
7.30012e-56
7.21437e-56
7.34678e-56
7.19466e-56
7.34846e-56
7.21316e-56
7.42373e-56
7.2323e-56
7.24506e-56
7.24366e-56
7.37726e-56
7.28349e-56
7.41608e-56
6.96133e-68
6.94207e-68
6.98851e-68
6.91429e-68
6.89549e-68
7.00728e-68
6.97403e-68
6.83288e-68
6.88325e-68
7.06371e-68
6.93035e-68
7.04122e-68
6.974e-68
7.05781e-68
6.89243e-68
7.09051e-68
6.88041e-68
6.95426e-68
6.9169e-68
6.7411e-68
2.19792e-65
2.19293e-65
2.20731e-65
2.18418e-65
2.17773e-65
2.21323e-65
2.20267e-65
2.15834e-65
2.17424e-65
2.23101e-65
2.18907e-65
2.2236e-65
2.20319e-65
2.2291e-65
2.17729e-65
2.23929e-65
2.17379e-65
2.19685e-65
2.18487e-65
2.12895e-65
3.46446e-63
3.45828e-63
3.48052e-63
3.44451e-63
3.43357e-63
3.48982e-63
3.47311e-63
3.40362e-63
3.42868e-63
3.51782e-63
3.45201e-63
3.50565e-63
3.47479e-63
3.51475e-63
3.43374e-63
3.53058e-63
3.42869e-63
3.4646e-63
3.44546e-63
3.35671e-63
3.22918e-61
3.22499e-61
3.2453e-61
3.21213e-61
3.2012e-61
3.2539e-61
3.23825e-61
3.17383e-61
3.19721e-61
3.27993e-61
3.21887e-61
3.2681e-61
3.24056e-61
3.27695e-61
3.20206e-61
3.29144e-61
3.19779e-61
3.23082e-61
3.21278e-61
3.12953e-61
2.10965e-59
2.10792e-59
2.12089e-59
2.09947e-59
2.09186e-59
2.12645e-59
2.1162e-59
2.07436e-59
2.08967e-59
2.14343e-59
2.10376e-59
2.13539e-59
2.11823e-59
2.14142e-59
2.09293e-59
2.15069e-59
2.09044e-59
2.11171e-59
2.09982e-59
2.04516e-59
9.60733e-58
9.60371e-58
9.66133e-58
9.56486e-58
9.52812e-58
9.68625e-58
9.63946e-58
9.45014e-58
9.52017e-58
9.76334e-58
9.58383e-58
9.7253e-58
9.65091e-58
9.75378e-58
9.53494e-58
9.79487e-58
9.52507e-58
9.62026e-58
9.56587e-58
9.31625e-58
3.03435e-56
3.03454e-56
3.05223e-56
3.02209e-56
3.00982e-56
3.05993e-56
3.04516e-56
2.98579e-56
3.00809e-56
3.08421e-56
3.028e-56
3.07174e-56
3.04953e-56
3.08104e-56
3.01265e-56
3.09358e-56
3.01005e-56
3.03948e-56
3.0223e-56
2.94345e-56
6.20855e-55
6.21113e-55
6.24619e-55
6.18506e-55
6.15869e-55
6.26129e-55
6.23124e-55
6.11074e-55
6.15723e-55
6.31067e-55
6.19721e-55
6.28436e-55
6.24153e-55
6.3038e-55
6.16556e-55
6.32811e-55
6.16154e-55
6.22002e-55
6.18525e-55
6.02526e-55
3.72018e-54
3.72375e-54
3.74417e-54
3.70779e-54
3.69126e-54
3.75247e-54
3.73484e-54
3.66346e-54
3.69258e-54
3.78188e-54
3.71569e-54
3.76573e-54
3.74192e-54
3.77736e-54
3.69603e-54
3.79056e-54
3.69468e-54
3.72799e-54
3.70772e-54
3.61318e-54
9.08342e-55
9.09691e-55
9.17263e-55
9.03769e-55
9.02054e-55
9.08339e-55
9.09175e-55
8.95147e-55
9.17846e-55
9.12898e-55
9.14462e-55
9.13227e-55
9.08152e-55
9.09041e-55
8.97167e-55
9.01923e-55
9.03872e-55
9.00487e-55
9.02704e-55
9.03234e-55
1.72646e-54
1.73381e-54
1.75181e-54
1.72017e-54
1.71419e-54
1.71492e-54
1.72603e-54
1.70598e-54
1.75011e-54
1.74531e-54
1.74936e-54
1.73467e-54
1.73553e-54
1.72144e-54
1.70965e-54
1.71722e-54
1.70062e-54
1.70892e-54
1.71823e-54
1.71218e-54
1.82504e-54
1.83311e-54
1.84549e-54
1.81274e-54
1.81858e-54
1.80229e-54
1.83272e-54
1.81736e-54
1.82523e-54
1.85864e-54
1.83713e-54
1.81087e-54
1.84373e-54
1.83211e-54
1.82422e-54
1.83603e-54
1.78671e-54
1.81561e-54
1.80744e-54
1.8041e-54
2.2164e-54
2.2239e-54
2.23419e-54
2.23779e-54
2.24274e-54
2.262e-54
2.27327e-54
2.25272e-54
2.24358e-54
2.21715e-54
2.21765e-54
2.22352e-54
2.24412e-54
2.24965e-54
2.22552e-54
2.23622e-54
2.2359e-54
2.23216e-54
2.21222e-54
2.22327e-54
2.31128e-54
2.294e-54
2.30439e-54
2.33813e-54
2.32909e-54
2.35143e-54
2.31128e-54
2.359e-54
2.29526e-54
2.27968e-54
2.27775e-54
2.29993e-54
2.29608e-54
2.275e-54
2.26997e-54
2.29026e-54
2.26355e-54
2.30016e-54
2.28873e-54
2.31216e-54
2.44849e-54
2.43863e-54
2.47078e-54
2.44212e-54
2.44473e-54
2.48394e-54
2.4591e-54
2.5023e-54
2.45343e-54
2.48889e-54
2.46746e-54
2.47568e-54
2.47739e-54
2.50037e-54
2.4724e-54
2.5099e-54
2.46253e-54
2.4359e-54
2.4622e-54
2.43947e-54
2.37106e-54
2.35394e-54
2.33779e-54
2.34645e-54
2.36494e-54
2.38173e-54
2.37405e-54
2.36759e-54
2.33595e-54
2.34152e-54
2.31638e-54
2.36808e-54
2.37764e-54
2.39077e-54
2.3938e-54
2.37568e-54
2.37111e-54
2.38123e-54
2.36217e-54
2.3649e-54
2.25511e-54
2.29277e-54
2.25761e-54
2.30825e-54
2.24657e-54
2.28897e-54
2.25577e-54
2.28909e-54
2.26699e-54
2.28766e-54
2.26886e-54
2.31985e-54
2.27261e-54
2.3235e-54
2.27588e-54
2.2843e-54
2.29833e-54
2.25095e-54
2.30392e-54
2.30192e-54
2.01001e-54
2.05857e-54
2.05049e-54
2.02704e-54
2.01555e-54
2.0714e-54
2.03753e-54
2.05103e-54
2.04088e-54
2.01314e-54
2.02917e-54
2.06092e-54
2.03079e-54
2.08257e-54
2.03366e-54
2.06052e-54
2.06052e-54
2.04829e-54
2.06411e-54
2.07522e-54
2.02523e-54
2.02676e-54
2.03506e-54
2.04926e-54
2.04738e-54
2.04808e-54
2.01127e-54
2.06068e-54
2.06722e-54
2.02757e-54
2.05786e-54
2.07312e-54
2.01358e-54
2.07745e-54
2.07306e-54
2.09983e-54
2.06006e-54
2.06503e-54
2.0463e-54
2.07952e-54
1.21071e-54
1.22175e-54
1.22261e-54
1.20924e-54
1.21715e-54
1.21516e-54
1.21602e-54
1.22053e-54
1.20593e-54
1.22815e-54
1.2028e-54
1.22835e-54
1.20601e-54
1.24097e-54
1.20914e-54
1.21125e-54
1.21096e-54
1.23319e-54
1.21767e-54
1.23963e-54
1.34596e-66
1.34293e-66
1.35179e-66
1.33767e-66
1.33375e-66
1.35554e-66
1.34908e-66
1.32193e-66
1.33164e-66
1.3665e-66
1.34077e-66
1.36196e-66
1.34941e-66
1.36529e-66
1.33351e-66
1.37152e-66
1.33124e-66
1.34539e-66
1.338e-66
1.30363e-66
4.18232e-64
4.17506e-64
4.20209e-64
4.15874e-64
4.14561e-64
4.21366e-64
4.19349e-64
4.10959e-64
4.13975e-64
4.24768e-64
4.16803e-64
4.23294e-64
4.19553e-64
4.24381e-64
4.14584e-64
4.26293e-64
4.13937e-64
4.18281e-64
4.15955e-64
4.05187e-64
6.48371e-62
6.47576e-62
6.51684e-62
6.45044e-62
6.42863e-62
6.53468e-62
6.50327e-62
6.37392e-62
6.42069e-62
6.58734e-62
6.46442e-62
6.56357e-62
6.50805e-62
6.58124e-62
6.4306e-62
6.61044e-62
6.42147e-62
6.48798e-62
6.45148e-62
6.28328e-62
5.95855e-60
5.95425e-60
5.99121e-60
5.93089e-60
5.90952e-60
6.00743e-60
5.97845e-60
5.86023e-60
5.90326e-60
6.05571e-60
5.94327e-60
6.03296e-60
5.98424e-60
6.04989e-60
5.91263e-60
6.07623e-60
5.90504e-60
5.96535e-60
5.93147e-60
5.77581e-60
3.82788e-58
3.82701e-58
3.85021e-58
3.81189e-58
3.79731e-58
3.86049e-58
3.84183e-58
3.76634e-58
3.79405e-58
3.89146e-58
3.81963e-58
3.87628e-58
3.8465e-58
3.88761e-58
3.80022e-58
3.90417e-58
3.79591e-58
3.83407e-58
3.81216e-58
3.71158e-58
1.71723e-56
1.71764e-56
1.72778e-56
1.71077e-56
1.70386e-56
1.7323e-56
1.72392e-56
1.69026e-56
1.70275e-56
1.74615e-56
1.71414e-56
1.73908e-56
1.72641e-56
1.74435e-56
1.70551e-56
1.75158e-56
1.70384e-56
1.72066e-56
1.7108e-56
1.66552e-56
5.33902e-55
5.34273e-55
5.37335e-55
5.32101e-55
5.29835e-55
5.38707e-55
5.36102e-55
5.25711e-55
5.29628e-55
5.43e-55
5.33134e-55
5.40722e-55
5.37009e-55
5.42413e-55
5.30469e-55
5.44584e-55
5.30038e-55
5.35157e-55
5.32098e-55
5.18007e-55
1.07406e-53
1.07519e-53
1.08115e-53
1.0707e-53
1.06593e-53
1.08379e-53
1.07858e-53
1.05784e-53
1.06587e-53
1.09237e-53
1.07279e-53
1.08765e-53
1.08064e-53
1.09112e-53
1.06739e-53
1.09526e-53
1.06675e-53
1.07675e-53
1.07067e-53
1.04254e-53
6.33871e-53
6.34891e-53
6.38306e-53
6.32178e-53
6.2924e-53
6.39728e-53
6.36718e-53
6.2462e-53
6.29572e-53
6.44767e-53
6.33514e-53
6.41911e-53
6.38091e-53
6.43959e-53
6.30213e-53
6.4617e-53
6.30009e-53
6.35617e-53
6.32135e-53
6.15744e-53
1.4931e-53
1.49539e-53
1.50798e-53
1.48569e-53
1.48276e-53
1.49287e-53
1.49432e-53
1.47155e-53
1.50898e-53
1.50074e-53
1.50339e-53
1.50099e-53
1.49305e-53
1.49413e-53
1.47498e-53
1.48228e-53
1.48561e-53
1.48012e-53
1.48391e-53
1.48471e-53
2.87963e-53
2.89175e-53
2.92183e-53
2.86887e-53
2.85922e-53
2.8601e-53
2.87862e-53
2.84561e-53
2.91874e-53
2.91119e-53
2.91756e-53
2.89281e-53
2.8948e-53
2.87139e-53
2.85186e-53
2.86421e-53
2.83636e-53
2.85012e-53
2.86576e-53
2.85515e-53
3.0276e-53
3.04074e-53
3.06145e-53
3.00738e-53
3.01719e-53
2.99079e-53
3.0409e-53
3.0158e-53
3.02768e-53
3.08281e-53
3.04713e-53
3.00388e-53
3.0584e-53
3.03967e-53
3.02656e-53
3.04608e-53
2.96525e-53
3.01194e-53
2.99904e-53
2.99324e-53
3.69048e-53
3.70202e-53
3.71959e-53
3.72616e-53
3.73417e-53
3.76638e-53
3.78358e-53
3.75096e-53
3.73519e-53
3.69111e-53
3.69193e-53
3.70196e-53
3.73591e-53
3.7444e-53
3.70538e-53
3.72258e-53
3.72175e-53
3.71645e-53
3.68329e-53
3.70181e-53
3.83536e-53
3.8064e-53
3.82375e-53
3.87892e-53
3.86432e-53
3.90152e-53
3.8348e-53
3.91407e-53
3.80803e-53
3.78348e-53
3.77975e-53
3.81654e-53
3.80995e-53
3.77524e-53
3.76745e-53
3.80065e-53
3.75643e-53
3.81658e-53
3.79856e-53
3.83617e-53
4.0791e-53
4.06273e-53
4.11571e-53
4.06773e-53
4.07315e-53
4.13774e-53
4.09644e-53
4.16793e-53
4.08763e-53
4.14643e-53
4.11039e-53
4.12389e-53
4.12719e-53
4.16599e-53
4.11924e-53
4.18071e-53
4.10278e-53
4.05825e-53
4.10207e-53
4.06362e-53
3.93874e-53
3.91142e-53
3.88375e-53
3.89867e-53
3.92863e-53
3.95641e-53
3.94368e-53
3.93317e-53
3.88164e-53
3.89018e-53
3.8486e-53
3.93398e-53
3.95012e-53
3.97116e-53
3.97675e-53
3.94595e-53
3.93929e-53
3.95606e-53
3.92488e-53
3.92931e-53
3.76504e-53
3.828e-53
3.7695e-53
3.85297e-53
3.75023e-53
3.82042e-53
3.76554e-53
3.82089e-53
3.78464e-53
3.81927e-53
3.78763e-53
3.8728e-53
3.79386e-53
3.8783e-53
3.79976e-53
3.81263e-53
3.8369e-53
3.75808e-53
3.84605e-53
3.84275e-53
3.35205e-53
3.43188e-53
3.41903e-53
3.37984e-53
3.36122e-53
3.453e-53
3.39689e-53
3.41937e-53
3.40291e-53
3.35655e-53
3.38335e-53
3.43575e-53
3.38611e-53
3.47143e-53
3.39118e-53
3.43538e-53
3.43508e-53
3.41529e-53
3.44074e-53
3.45959e-53
3.40431e-53
3.40671e-53
3.42118e-53
3.44443e-53
3.44107e-53
3.44201e-53
3.38062e-53
3.46398e-53
3.47406e-53
3.40818e-53
3.45884e-53
3.48447e-53
3.38496e-53
3.49145e-53
3.48459e-53
3.52864e-53
3.46293e-53
3.47027e-53
3.43914e-53
3.49434e-53
2.02251e-53
2.04099e-53
2.04266e-53
2.02016e-53
2.03313e-53
2.02984e-53
2.03122e-53
2.03896e-53
2.01415e-53
2.05137e-53
2.00919e-53
2.05158e-53
2.01471e-53
2.07272e-53
2.01987e-53
2.02335e-53
2.02273e-53
2.05969e-53
2.03401e-53
2.07035e-53
2.60095e-65
2.59648e-65
2.61341e-65
2.58652e-65
2.57843e-65
2.62084e-65
2.60831e-65
2.55615e-65
2.57486e-65
2.64215e-65
2.59252e-65
2.63298e-65
2.60961e-65
2.63966e-65
2.57862e-65
2.65153e-65
2.57436e-65
2.60142e-65
2.58686e-65
2.51964e-65
7.95592e-63
7.94655e-63
7.99731e-63
7.91608e-63
7.88949e-63
8.01989e-63
7.98138e-63
7.82264e-63
7.87986e-63
8.08493e-63
7.93373e-63
8.05569e-63
7.98728e-63
8.07715e-63
7.89198e-63
8.11297e-63
7.88004e-63
7.96181e-63
7.91672e-63
7.70927e-63
1.21277e-60
1.21199e-60
1.21957e-60
1.20733e-60
1.20301e-60
1.22298e-60
1.21709e-60
1.19302e-60
1.20175e-60
1.23288e-60
1.20994e-60
1.22825e-60
1.21829e-60
1.23167e-60
1.20369e-60
1.23705e-60
1.20204e-60
1.21434e-60
1.2074e-60
1.17551e-60
1.09846e-58
1.09833e-58
1.10505e-58
1.09408e-58
1.08992e-58
1.10809e-58
1.10274e-58
1.08106e-58
1.08897e-58
1.11704e-58
1.09636e-58
1.11268e-58
1.10409e-58
1.11591e-58
1.09078e-58
1.12069e-58
1.08944e-58
1.10043e-58
1.09408e-58
1.06498e-58
6.93742e-57
6.9402e-57
6.98162e-57
6.91312e-57
6.88533e-57
7.00057e-57
6.96666e-57
6.83056e-57
6.88069e-57
7.05695e-57
6.9271e-57
7.02835e-57
6.9769e-57
7.04959e-57
6.89235e-57
7.07915e-57
6.8849e-57
6.95326e-57
6.91298e-57
6.72795e-57
3.0641e-55
3.06681e-55
3.08462e-55
3.05467e-55
3.04173e-55
3.09281e-55
3.07781e-55
3.01807e-55
3.04032e-55
3.11763e-55
3.06066e-55
3.10453e-55
3.08305e-55
3.11424e-55
3.04547e-55
3.12695e-55
3.04264e-55
3.0723e-55
3.05449e-55
2.97241e-55
9.37446e-54
9.38718e-54
9.44003e-54
9.34928e-54
9.30768e-54
9.46437e-54
9.41855e-54
9.23706e-54
9.30573e-54
9.54011e-54
9.36733e-54
9.49859e-54
9.4369e-54
9.52928e-54
9.32117e-54
9.56676e-54
9.3141e-54
9.40288e-54
9.34858e-54
9.09708e-54
1.85312e-52
1.85632e-52
1.86641e-52
1.8486e-52
1.84001e-52
1.87099e-52
1.86199e-52
1.8264e-52
1.84023e-52
1.88588e-52
1.85219e-52
1.87742e-52
1.86603e-52
1.88362e-52
1.843e-52
1.89063e-52
1.84199e-52
1.85902e-52
1.84845e-52
1.79908e-52
1.07689e-51
1.07936e-51
1.08504e-51
1.07475e-51
1.06955e-51
1.08747e-51
1.08235e-51
1.0619e-51
1.0703e-51
1.09608e-51
1.07701e-51
1.09104e-51
1.08497e-51
1.09464e-51
1.07148e-51
1.09833e-51
1.07118e-51
1.08059e-51
1.07463e-51
1.04627e-51
2.44618e-52
2.45005e-52
2.47092e-52
2.4342e-52
2.42925e-52
2.44543e-52
2.44792e-52
2.4111e-52
2.4726e-52
2.45896e-52
2.4634e-52
2.45887e-52
2.44655e-52
2.44768e-52
2.41689e-52
2.42804e-52
2.43363e-52
2.42479e-52
2.43124e-52
2.43243e-52
4.78745e-52
4.80738e-52
4.85748e-52
4.76914e-52
4.75362e-52
4.75453e-52
4.78531e-52
4.73113e-52
4.85192e-52
4.84011e-52
4.85006e-52
4.80853e-52
4.81273e-52
4.77397e-52
4.74177e-52
4.76181e-52
4.7153e-52
4.73797e-52
4.76418e-52
4.74567e-52
5.0074e-52
5.02871e-52
5.06326e-52
4.97432e-52
4.99071e-52
4.94813e-52
5.03037e-52
4.98944e-52
5.00721e-52
5.0978e-52
5.03884e-52
4.96784e-52
5.05798e-52
5.02791e-52
5.0062e-52
5.03835e-52
4.90637e-52
4.98152e-52
4.96127e-52
4.95123e-52
6.12695e-52
6.14457e-52
6.17448e-52
6.18625e-52
6.19921e-52
6.25283e-52
6.27884e-52
6.22731e-52
6.20022e-52
6.12707e-52
6.12837e-52
6.14538e-52
6.2012e-52
6.21405e-52
6.15126e-52
6.17876e-52
6.17682e-52
6.16961e-52
6.11465e-52
6.14553e-52
6.34861e-52
6.30019e-52
6.32907e-52
6.41907e-52
6.3956e-52
6.45738e-52
6.34677e-52
6.47812e-52
6.30217e-52
6.26364e-52
6.25665e-52
6.31746e-52
6.30626e-52
6.24929e-52
6.2373e-52
6.29143e-52
6.21848e-52
6.31698e-52
6.28872e-52
6.34889e-52
6.77907e-52
6.75203e-52
6.83907e-52
6.75894e-52
6.76974e-52
6.8758e-52
6.80734e-52
6.92528e-52
6.79377e-52
6.89095e-52
6.83052e-52
6.85262e-52
6.85889e-52
6.92406e-52
6.84621e-52
6.94665e-52
6.81881e-52
6.7447e-52
6.8175e-52
6.75262e-52
6.53014e-52
6.48671e-52
6.43955e-52
6.46507e-52
6.51345e-52
6.55933e-52
6.53831e-52
6.52132e-52
6.43756e-52
6.45055e-52
6.38191e-52
6.52259e-52
6.54978e-52
6.58336e-52
6.59357e-52
6.54137e-52
6.53186e-52
6.5595e-52
6.50869e-52
6.51584e-52
6.2736e-52
6.37853e-52
6.28146e-52
6.41865e-52
6.24804e-52
6.36389e-52
6.2734e-52
6.36511e-52
6.30577e-52
6.36365e-52
6.31051e-52
6.45247e-52
6.32096e-52
6.4607e-52
6.33154e-52
6.35091e-52
6.39276e-52
6.26202e-52
6.40765e-52
6.40226e-52
5.58042e-52
5.7115e-52
5.69108e-52
5.62583e-52
5.59561e-52
5.74614e-52
5.6534e-52
5.69072e-52
5.66412e-52
5.58684e-52
5.63154e-52
5.71788e-52
5.63621e-52
5.77658e-52
5.64509e-52
5.71766e-52
5.71674e-52
5.68471e-52
5.72565e-52
5.75748e-52
5.71183e-52
5.71559e-52
5.74073e-52
5.77867e-52
5.77268e-52
5.7739e-52
5.67174e-52
5.81206e-52
5.82745e-52
5.71821e-52
5.80275e-52
5.84572e-52
5.6798e-52
5.85695e-52
5.84631e-52
5.91859e-52
5.81032e-52
5.82092e-52
5.7693e-52
5.86082e-52
3.37192e-52
3.40277e-52
3.40595e-52
3.3682e-52
3.38939e-52
3.38397e-52
3.38616e-52
3.39941e-52
3.35736e-52
3.41957e-52
3.34956e-52
3.41974e-52
3.35901e-52
3.45504e-52
3.36749e-52
3.37321e-52
3.37198e-52
3.4333e-52
3.39088e-52
3.4509e-52
5.02871e-64
5.02292e-64
5.05524e-64
5.00405e-64
4.98737e-64
5.06998e-64
5.04568e-64
4.94535e-64
4.98145e-64
5.1114e-64
5.01564e-64
5.09289e-64
5.04946e-64
5.1063e-64
4.98904e-64
5.1289e-64
4.98104e-64
5.03279e-64
5.00408e-64
4.87247e-64
1.5117e-61
1.51081e-61
1.52033e-61
1.50513e-61
1.49977e-61
1.52472e-61
1.51738e-61
1.48738e-61
1.49823e-61
1.53714e-61
1.50848e-61
1.53136e-61
1.51889e-61
1.53558e-61
1.50063e-61
1.54228e-61
1.49844e-61
1.5138e-61
1.50508e-61
1.46512e-61
2.26529e-59
2.26521e-59
2.27918e-59
2.25665e-59
2.24812e-59
2.28568e-59
2.27465e-59
2.22993e-59
2.2462e-59
2.30427e-59
2.26152e-59
2.29526e-59
2.27747e-59
2.30188e-59
2.24997e-59
2.31178e-59
2.247e-59
2.26972e-59
2.25653e-59
2.19611e-59
2.02104e-57
2.02209e-57
2.03427e-57
2.01438e-57
2.00633e-57
2.03998e-57
2.0301e-57
1.99043e-57
2.00497e-57
2.05652e-57
2.01857e-57
2.04817e-57
2.0331e-57
2.05432e-57
2.00842e-57
2.06298e-57
2.00606e-57
2.02604e-57
2.01419e-57
1.95983e-57
1.25453e-55
1.25586e-55
1.26324e-55
1.25101e-55
1.24574e-55
1.26671e-55
1.26057e-55
1.23608e-55
1.24514e-55
1.27696e-55
1.25353e-55
1.27158e-55
1.26274e-55
1.27555e-55
1.24733e-55
1.28081e-55
1.24605e-55
1.25826e-55
1.25088e-55
1.21689e-55
5.45279e-54
5.46131e-54
5.4925e-54
5.43987e-54
5.4158e-54
5.50722e-54
5.48049e-54
5.37474e-54
5.41428e-54
5.55162e-54
5.4505e-54
5.52743e-54
5.49124e-54
5.54528e-54
5.42384e-54
5.56752e-54
5.4191e-54
5.47122e-54
5.43915e-54
5.29066e-54
1.64122e-52
1.64459e-52
1.65368e-52
1.63798e-52
1.63038e-52
1.65797e-52
1.64994e-52
1.61833e-52
1.63034e-52
1.67129e-52
1.64113e-52
1.66376e-52
1.65358e-52
1.6693e-52
1.63316e-52
1.67576e-52
1.63201e-52
1.64735e-52
1.63776e-52
1.59296e-52
3.18669e-51
3.19444e-51
3.21146e-51
3.18118e-51
3.1658e-51
3.21936e-51
3.20387e-51
3.14299e-51
3.16675e-51
3.24509e-51
3.18731e-51
3.23001e-51
3.21166e-51
3.24101e-51
3.17175e-51
3.25286e-51
3.17017e-51
3.19907e-51
3.18076e-51
3.09433e-51
1.8232e-50
1.82867e-50
1.8381e-50
1.82085e-50
1.81172e-50
1.8422e-50
1.83353e-50
1.79909e-50
1.81329e-50
1.85685e-50
1.82465e-50
1.84802e-50
1.83845e-50
1.85432e-50
1.81544e-50
1.86044e-50
1.81501e-50
1.83072e-50
1.8206e-50
1.77166e-50
3.99082e-51
3.99728e-51
4.03174e-51
3.97148e-51
3.96319e-51
3.9889e-51
3.99319e-51
3.93393e-51
4.03455e-51
4.01205e-51
4.01947e-51
4.01107e-51
3.9921e-51
3.99289e-51
3.94367e-51
3.96051e-51
3.96983e-51
3.95565e-51
3.9666e-51
3.9683e-51
7.92963e-51
7.96229e-51
8.04543e-51
7.89859e-51
7.87379e-51
7.87437e-51
7.92536e-51
7.83678e-51
8.03552e-51
8.01717e-51
8.03258e-51
7.96314e-51
7.97162e-51
7.90767e-51
7.85479e-51
7.88719e-51
7.80984e-51
7.84697e-51
7.8908e-51
7.85862e-51
8.25145e-51
8.28586e-51
8.3433e-51
8.1976e-51
8.22485e-51
8.15652e-51
8.29095e-51
8.22446e-51
8.25066e-51
8.39889e-51
8.30187e-51
8.18576e-51
8.33423e-51
8.28616e-51
8.25041e-51
8.30311e-51
8.08852e-51
8.20888e-51
8.1773e-51
8.16002e-51
1.01361e-50
1.01627e-50
1.02134e-50
1.02343e-50
1.02552e-50
1.03441e-50
1.03829e-50
1.0302e-50
1.02557e-50
1.01348e-50
1.01368e-50
1.01655e-50
1.0257e-50
1.02761e-50
1.01756e-50
1.02193e-50
1.02151e-50
1.02059e-50
1.01152e-50
1.01664e-50
1.04746e-50
1.03939e-50
1.04418e-50
1.05881e-50
1.05506e-50
1.06529e-50
1.047e-50
1.0687e-50
1.03959e-50
1.03359e-50
1.0323e-50
1.04231e-50
1.04042e-50
1.0311e-50
1.02927e-50
1.03807e-50
1.02607e-50
1.04214e-50
1.03775e-50
1.04733e-50
1.12304e-50
1.11861e-50
1.13285e-50
1.1195e-50
1.12159e-50
1.13894e-50
1.12765e-50
1.14702e-50
1.12558e-50
1.14158e-50
1.13148e-50
1.13509e-50
1.13626e-50
1.14717e-50
1.13425e-50
1.15059e-50
1.1297e-50
1.11741e-50
1.12946e-50
1.11855e-50
1.07958e-50
1.07272e-50
1.0647e-50
1.06906e-50
1.07683e-50
1.08439e-50
1.08093e-50
1.07819e-50
1.06463e-50
1.06658e-50
1.05528e-50
1.0784e-50
1.08296e-50
1.08829e-50
1.09014e-50
1.08132e-50
1.08001e-50
1.08454e-50
1.0763e-50
1.07744e-50
1.04248e-50
1.05993e-50
1.04387e-50
1.06635e-50
1.03809e-50
1.05715e-50
1.04228e-50
1.05743e-50
1.04775e-50
1.05739e-50
1.0485e-50
1.07209e-50
1.05024e-50
1.0733e-50
1.05212e-50
1.055e-50
1.06219e-50
1.04055e-50
1.0646e-50
1.06372e-50
9.26844e-51
9.48308e-51
9.45086e-51
9.34236e-51
9.29359e-51
9.53983e-51
9.38697e-51
9.44865e-51
9.40581e-51
9.2772e-51
9.3517e-51
9.49353e-51
9.35963e-51
9.58992e-51
9.3751e-51
9.49392e-51
9.49166e-51
9.44009e-51
9.50559e-51
9.55915e-51
9.56327e-51
9.56903e-51
9.61261e-51
9.67436e-51
9.66378e-51
9.66514e-51
9.49552e-51
9.7312e-51
9.75443e-51
9.57373e-51
9.71451e-51
9.78638e-51
9.51036e-51
9.80439e-51
9.78808e-51
9.9063e-51
9.72837e-51
9.74323e-51
9.65783e-51
9.8092e-51
5.6153e-51
5.66672e-51
5.67271e-51
5.60939e-51
5.64399e-51
5.63505e-51
5.63856e-51
5.66116e-51
5.58999e-51
5.69391e-51
5.57778e-51
5.69383e-51
5.59397e-51
5.75275e-51
5.60786e-51
5.61724e-51
5.61488e-51
5.7165e-51
5.64653e-51
5.74553e-51
9.70772e-63
9.70229e-63
9.76389e-63
9.66656e-63
9.63242e-63
9.79303e-63
9.74598e-63
9.55334e-63
9.62288e-63
9.8734e-63
9.68896e-63
9.83617e-63
9.75577e-63
9.863e-63
9.63815e-63
9.90594e-63
9.62314e-63
9.72191e-63
9.66549e-63
9.40793e-63
2.87028e-60
2.87037e-60
2.88821e-60
2.85976e-60
2.84901e-60
2.89671e-60
2.88274e-60
2.82608e-60
2.84665e-60
2.92042e-60
2.86613e-60
2.90898e-60
2.88635e-60
2.91729e-60
2.85139e-60
2.92981e-60
2.84736e-60
2.87619e-60
2.85935e-60
2.78239e-60
4.2269e-58
4.22948e-58
4.25519e-58
4.21374e-58
4.19699e-58