/*--------------------------------*- C++ -*----------------------------------*\
| =========                 |                                                 |
| \\      /  F ield         | OpenFOAM: The Open Source CFD Toolbox           |
|  \\    /   O peration     | Version:  2212                                  |
|   \\  /    A nd           | Website:  www.openfoam.com                      |
|    \\/     M anipulation  |                                                 |
\*---------------------------------------------------------------------------*/
FoamFile
{
    version     2.0;
    format      ascii;
    arch        "LSB;label=32;scalar=64";
    class       volScalarField;
    location    "0.422";
    object      p;
}
// * * * * * * * * * * * * * * * * * * * * * * * * * * * * * * * * * * * * * //

dimensions      [0 2 -2 0 0 0 0];

internalField   nonuniform List<scalar> 
24240
(
-28.4718
-28.4714
-28.4684
-28.4643
-28.4588
-28.4523
-28.4448
-28.4365
-28.4277
-28.4185
-28.4092
-28.4011
-28.3936
-28.3868
-28.3806
-28.3753
-28.3709
-28.3674
-28.365
-28.3633
-27.1154
-27.1132
-27.1117
-27.1089
-27.1055
-27.1015
-27.0972
-27.0928
-27.0883
-27.084
-27.08
-27.0753
-27.0708
-27.0667
-27.0631
-27.0601
-27.0575
-27.0556
-27.0541
-27.0537
-25.9842
-25.9839
-25.984
-25.984
-25.9841
-25.9842
-25.9844
-25.9847
-25.985
-25.9853
-25.9857
-25.986
-25.9863
-25.9866
-25.9868
-25.9871
-25.9873
-25.9875
-25.9876
-25.9878
-25.4249
-25.4253
-25.4263
-25.4278
-25.4296
-25.4318
-25.4343
-25.4369
-25.4397
-25.4425
-25.4453
-25.448
-25.4505
-25.4528
-25.4549
-25.4566
-25.4581
-25.4593
-25.4602
-25.4607
-25.0049
-25.0056
-25.007
-25.0091
-25.0117
-25.0148
-25.0183
-25.0221
-25.0261
-25.0301
-25.034
-25.0379
-25.0415
-25.0448
-25.0477
-25.0503
-25.0524
-25.0541
-25.0553
-25.0559
-24.8123
-24.813
-24.8144
-24.8164
-24.8191
-24.8222
-24.8256
-24.8294
-24.8333
-24.8373
-24.8413
-24.8451
-24.8487
-24.852
-24.855
-24.8576
-24.8598
-24.8615
-24.8627
-24.8633
-24.6487
-24.6494
-24.6508
-24.6528
-24.6555
-24.6586
-24.6621
-24.6659
-24.6699
-24.6739
-24.678
-24.6819
-24.6856
-24.689
-24.692
-24.6947
-24.6969
-24.6986
-24.6998
-24.7004
-24.5789
-24.5796
-24.5809
-24.5828
-24.5853
-24.5882
-24.5915
-24.5951
-24.5989
-24.6027
-24.6066
-24.6103
-24.6138
-24.6171
-24.62
-24.6225
-24.6246
-24.6263
-24.6274
-24.628
-24.5295
-24.5301
-24.5313
-24.5331
-24.5353
-24.538
-24.541
-24.5443
-24.5478
-24.5513
-24.5549
-24.5583
-24.5615
-24.5645
-24.5672
-24.5696
-24.5715
-24.573
-24.5741
-24.5746
-24.5307
-24.5312
-24.5323
-24.534
-24.5361
-24.5386
-24.5414
-24.5445
-24.5478
-24.5511
-24.5544
-24.5577
-24.5607
-24.5636
-24.5661
-24.5683
-24.5701
-24.5715
-24.5725
-24.573
-24.6021
-24.6025
-24.6035
-24.605
-24.6068
-24.609
-24.6116
-24.6143
-24.6172
-24.6201
-24.6231
-24.626
-24.6287
-24.6312
-24.6335
-24.6354
-24.6371
-24.6383
-24.6392
-24.6396
-24.6756
-24.6761
-24.6771
-24.6785
-24.6802
-24.6824
-24.6848
-24.6875
-24.6902
-24.6931
-24.6959
-24.6987
-24.7013
-24.7037
-24.7059
-24.7077
-24.7092
-24.7104
-24.7112
-24.7116
-24.8712
-24.8715
-24.8723
-24.8734
-24.8747
-24.8764
-24.8783
-24.8804
-24.8825
-24.8848
-24.887
-24.8891
-24.8912
-24.8931
-24.8947
-24.8962
-24.8974
-24.8984
-24.8991
-24.8994
-25.0378
-25.0381
-25.0388
-25.0398
-25.0411
-25.0427
-25.0445
-25.0464
-25.0485
-25.0506
-25.0526
-25.0546
-25.0565
-25.0582
-25.0597
-25.061
-25.0621
-25.063
-25.0636
-25.0639
-25.3941
-25.3943
-25.3947
-25.3953
-25.396
-25.3969
-25.3979
-25.3989
-25.4001
-25.4012
-25.4023
-25.4034
-25.4045
-25.4054
-25.4062
-25.407
-25.4076
-25.4082
-25.4086
-25.4088
-25.7148
-25.7149
-25.7152
-25.7155
-25.716
-25.7166
-25.7172
-25.7179
-25.7187
-25.7194
-25.7201
-25.7208
-25.7213
-25.7219
-25.7223
-25.7227
-25.723
-25.7233
-25.7235
-25.7235
-26.3485
-26.3484
-26.3481
-26.3477
-26.3471
-26.3465
-26.3457
-26.3449
-26.3441
-26.3432
-26.3423
-26.3414
-26.3405
-26.3397
-26.339
-26.3384
-26.3379
-26.3376
-26.3374
-26.3373
-27.0226
-27.0222
-27.0214
-27.0203
-27.0188
-27.017
-27.0149
-27.0127
-27.0104
-27.008
-27.0056
-27.0033
-27.001
-26.9989
-26.9971
-26.9954
-26.994
-26.993
-26.9923
-26.9919
-28.471
-28.4699
-28.4676
-28.4642
-28.4599
-28.4548
-28.4491
-28.4428
-28.4362
-28.4295
-28.4229
-28.4165
-28.4104
-28.4049
-28.4001
-28.3959
-28.3925
-28.3899
-28.3881
-28.3873
-30.8995
-30.8971
-30.8924
-30.8856
-30.8768
-30.8663
-30.8545
-30.8417
-30.8284
-30.8148
-30.8014
-30.7886
-30.7766
-30.7657
-30.7561
-30.7479
-30.7411
-30.736
-30.7324
-30.7306
-82.8214
-82.8188
-82.8132
-82.805
-82.7945
-82.782
-82.768
-82.7528
-82.7369
-82.7207
-82.7047
-82.6894
-82.6751
-82.6619
-82.65
-82.6398
-82.6312
-82.6245
-82.6197
-82.6171
-79.8133
-79.8121
-79.8099
-79.8067
-79.8027
-79.7978
-79.7924
-79.7866
-79.7805
-79.7743
-79.7682
-79.7622
-79.7565
-79.7513
-79.7465
-79.7425
-79.739
-79.7364
-79.7345
-79.7335
-77.6526
-77.6526
-77.6527
-77.6529
-77.6532
-77.6536
-77.654
-77.6545
-77.6551
-77.6556
-77.6562
-77.6567
-77.6572
-77.6576
-77.658
-77.6584
-77.6587
-77.6589
-77.6591
-77.6593
-76.3001
-76.3008
-76.3023
-76.3045
-76.3073
-76.3107
-76.3144
-76.3185
-76.3228
-76.3271
-76.3314
-76.3356
-76.3395
-76.3432
-76.3464
-76.3493
-76.3517
-76.3536
-76.3549
-76.3557
-75.2439
-75.2451
-75.2475
-75.2511
-75.2556
-75.261
-75.2671
-75.2737
-75.2806
-75.2876
-75.2946
-75.3014
-75.3079
-75.3138
-75.3192
-75.3239
-75.3278
-75.3309
-75.3331
-75.3342
-74.6068
-74.6082
-74.6108
-74.6147
-74.6197
-74.6256
-74.6323
-74.6395
-74.6472
-74.655
-74.6627
-74.6703
-74.6775
-74.6842
-74.6902
-74.6955
-74.6999
-74.7034
-74.7059
-74.7072
-74.1411
-74.1425
-74.1453
-74.1494
-74.1546
-74.1609
-74.1679
-74.1756
-74.1837
-74.192
-74.2003
-74.2084
-74.2161
-74.2232
-74.2297
-74.2354
-74.2402
-74.2439
-74.2465
-74.2479
-73.8928
-73.8942
-73.8969
-73.9009
-73.906
-73.9121
-73.9191
-73.9266
-73.9346
-73.9428
-73.951
-73.959
-73.9666
-73.9738
-73.9802
-73.9859
-73.9907
-73.9944
-73.997
-73.9984
-73.7638
-73.7651
-73.7677
-73.7714
-73.7763
-73.7821
-73.7887
-73.7958
-73.8034
-73.8112
-73.819
-73.8267
-73.834
-73.8409
-73.8471
-73.8526
-73.8572
-73.8608
-73.8633
-73.8646
-73.7714
-73.7726
-73.775
-73.7786
-73.7832
-73.7887
-73.7949
-73.8017
-73.8089
-73.8164
-73.8238
-73.8311
-73.8381
-73.8447
-73.8506
-73.8558
-73.8602
-73.8637
-73.8661
-73.8674
-73.9609
-73.9619
-73.9641
-73.9672
-73.9712
-73.9761
-73.9816
-73.9877
-73.9941
-74.0007
-74.0074
-74.0139
-74.0202
-74.026
-74.0314
-74.0361
-74.0401
-74.0433
-74.0455
-74.0467
-74.2223
-74.2233
-74.2253
-74.2282
-74.2321
-74.2366
-74.2418
-74.2475
-74.2536
-74.2598
-74.2661
-74.2722
-74.2781
-74.2835
-74.2885
-74.293
-74.2967
-74.2997
-74.3018
-74.3029
-74.7479
-74.7487
-74.7502
-74.7525
-74.7554
-74.759
-74.763
-74.7674
-74.7721
-74.777
-74.7819
-74.7867
-74.7913
-74.7957
-74.7996
-74.8032
-74.8062
-74.8087
-74.8105
-74.8114
-75.317
-75.3176
-75.319
-75.3209
-75.3235
-75.3265
-75.33
-75.3338
-75.3379
-75.3421
-75.3463
-75.3504
-75.3543
-75.3579
-75.3613
-75.3642
-75.3668
-75.3689
-75.3704
-75.3712
-76.2776
-76.278
-76.2786
-76.2795
-76.2808
-76.2822
-76.2839
-76.2858
-76.2878
-76.2898
-76.2919
-76.2939
-76.2958
-76.2976
-76.2994
-76.3009
-76.3024
-76.3036
-76.3046
-76.3051
-77.3159
-77.316
-77.3161
-77.3163
-77.3166
-77.317
-77.3174
-77.3178
-77.3183
-77.3188
-77.3192
-77.3196
-77.32
-77.3204
-77.3207
-77.321
-77.3214
-77.3218
-77.3221
-77.3223
-78.9762
-78.9756
-78.9746
-78.9731
-78.9712
-78.9689
-78.9662
-78.9634
-78.9603
-78.9572
-78.9541
-78.951
-78.948
-78.9453
-78.9428
-78.9407
-78.9391
-78.9379
-78.9372
-78.9369
-80.92
-80.9188
-80.9166
-80.9132
-80.9089
-80.9037
-80.8978
-80.8914
-80.8846
-80.8776
-80.8706
-80.8638
-80.8572
-80.8511
-80.8455
-80.8407
-80.8366
-80.8335
-80.8314
-80.8303
-84.0591
-84.0567
-84.052
-84.0451
-84.0362
-84.0255
-84.0134
-84.0002
-83.9863
-83.9721
-83.9579
-83.944
-83.9309
-83.9187
-83.9077
-83.8981
-83.8901
-83.8838
-83.8794
-83.8772
-88.2753
-88.2713
-88.2632
-88.2514
-88.2362
-88.218
-88.1974
-88.175
-88.1515
-88.1275
-88.1036
-88.0804
-88.0585
-88.0383
-88.0202
-88.0043
-87.991
-87.9805
-87.973
-87.9689
-134.679
-134.676
-134.67
-134.661
-134.649
-134.635
-134.62
-134.603
-134.585
-134.567
-134.549
-134.532
-134.516
-134.501
-134.487
-134.475
-134.465
-134.457
-134.451
-134.448
-131.201
-131.199
-131.197
-131.193
-131.188
-131.183
-131.176
-131.17
-131.162
-131.155
-131.148
-131.141
-131.134
-131.128
-131.122
-131.117
-131.113
-131.109
-131.107
-131.106
-128.4
-128.4
-128.4
-128.401
-128.401
-128.402
-128.402
-128.403
-128.404
-128.404
-128.405
-128.406
-128.406
-128.407
-128.407
-128.408
-128.408
-128.408
-128.408
-128.409
-126.547
-126.548
-126.55
-126.552
-126.555
-126.559
-126.563
-126.568
-126.573
-126.578
-126.583
-126.587
-126.592
-126.596
-126.6
-126.604
-126.606
-126.609
-126.61
-126.611
-125.032
-125.033
-125.036
-125.04
-125.046
-125.052
-125.059
-125.067
-125.075
-125.084
-125.092
-125.101
-125.109
-125.116
-125.123
-125.128
-125.133
-125.137
-125.14
-125.141
-124.064
-124.066
-124.069
-124.074
-124.08
-124.088
-124.096
-124.105
-124.115
-124.125
-124.134
-124.144
-124.153
-124.162
-124.17
-124.177
-124.183
-124.187
-124.191
-124.192
-123.354
-123.355
-123.359
-123.364
-123.371
-123.379
-123.388
-123.398
-123.408
-123.419
-123.429
-123.44
-123.45
-123.46
-123.468
-123.476
-123.482
-123.487
-123.491
-123.493
-122.964
-122.966
-122.969
-122.975
-122.981
-122.989
-122.998
-123.008
-123.018
-123.029
-123.04
-123.051
-123.061
-123.071
-123.08
-123.087
-123.094
-123.099
-123.103
-123.105
-122.771
-122.773
-122.776
-122.781
-122.787
-122.795
-122.803
-122.813
-122.823
-122.834
-122.844
-122.855
-122.865
-122.874
-122.883
-122.89
-122.897
-122.902
-122.906
-122.908
-122.791
-122.792
-122.795
-122.8
-122.806
-122.813
-122.822
-122.831
-122.84
-122.85
-122.861
-122.87
-122.88
-122.889
-122.898
-122.905
-122.911
-122.917
-122.92
-122.922
-123.083
-123.084
-123.087
-123.091
-123.097
-123.103
-123.11
-123.119
-123.127
-123.136
-123.145
-123.154
-123.163
-123.171
-123.179
-123.186
-123.192
-123.197
-123.2
-123.202
-123.515
-123.516
-123.519
-123.523
-123.528
-123.534
-123.541
-123.548
-123.556
-123.565
-123.573
-123.581
-123.59
-123.597
-123.604
-123.611
-123.616
-123.621
-123.624
-123.626
-124.324
-124.325
-124.327
-124.329
-124.333
-124.338
-124.343
-124.349
-124.355
-124.362
-124.369
-124.375
-124.382
-124.388
-124.393
-124.399
-124.403
-124.407
-124.41
-124.411
-125.24
-125.241
-125.242
-125.245
-125.248
-125.252
-125.256
-125.261
-125.266
-125.272
-125.277
-125.282
-125.288
-125.293
-125.297
-125.302
-125.306
-125.309
-125.311
-125.313
-126.699
-126.7
-126.7
-126.701
-126.703
-126.704
-126.706
-126.708
-126.711
-126.713
-126.716
-126.718
-126.72
-126.723
-126.725
-126.727
-126.729
-126.731
-126.733
-126.734
-128.3
-128.3
-128.3
-128.3
-128.3
-128.3
-128.3
-128.3
-128.3
-128.3
-128.3
-128.3
-128.3
-128.301
-128.301
-128.301
-128.302
-128.302
-128.303
-128.303
-130.725
-130.724
-130.722
-130.72
-130.717
-130.713
-130.709
-130.705
-130.7
-130.695
-130.69
-130.686
-130.681
-130.677
-130.673
-130.67
-130.667
-130.665
-130.664
-130.663
-133.461
-133.46
-133.457
-133.452
-133.446
-133.439
-133.431
-133.422
-133.412
-133.403
-133.393
-133.383
-133.374
-133.365
-133.357
-133.35
-133.344
-133.339
-133.336
-133.334
-137.513
-137.51
-137.504
-137.495
-137.484
-137.47
-137.455
-137.438
-137.42
-137.402
-137.383
-137.365
-137.347
-137.331
-137.316
-137.303
-137.291
-137.282
-137.275
-137.272
-142.372
-142.367
-142.358
-142.344
-142.326
-142.304
-142.28
-142.253
-142.225
-142.196
-142.167
-142.139
-142.111
-142.086
-142.063
-142.042
-142.024
-142.009
-141.998
-141.992
-185.247
-185.244
-185.238
-185.23
-185.218
-185.205
-185.19
-185.174
-185.157
-185.14
-185.122
-185.105
-185.089
-185.074
-185.06
-185.048
-185.037
-185.029
-185.023
-185.019
-181.592
-181.591
-181.589
-181.585
-181.58
-181.575
-181.569
-181.562
-181.554
-181.547
-181.54
-181.532
-181.525
-181.519
-181.513
-181.508
-181.503
-181.499
-181.497
-181.495
-178.456
-178.456
-178.457
-178.457
-178.457
-178.458
-178.459
-178.459
-178.46
-178.461
-178.462
-178.463
-178.463
-178.464
-178.465
-178.465
-178.465
-178.466
-178.466
-178.466
-176.27
-176.271
-176.273
-176.275
-176.278
-176.282
-176.287
-176.292
-176.297
-176.302
-176.307
-176.312
-176.317
-176.322
-176.326
-176.33
-176.333
-176.335
-176.337
-176.338
-174.453
-174.455
-174.458
-174.462
-174.468
-174.474
-174.482
-174.49
-174.499
-174.508
-174.517
-174.526
-174.535
-174.543
-174.55
-174.557
-174.562
-174.567
-174.57
-174.571
-173.236
-173.238
-173.242
-173.247
-173.253
-173.261
-173.27
-173.28
-173.291
-173.301
-173.312
-173.323
-173.333
-173.343
-173.352
-173.36
-173.367
-173.372
-173.376
-173.378
-172.347
-172.349
-172.353
-172.358
-172.365
-172.374
-172.384
-172.395
-172.406
-172.418
-172.43
-172.442
-172.453
-172.464
-172.474
-172.483
-172.491
-172.497
-172.501
-172.503
-171.845
-171.846
-171.85
-171.856
-171.863
-171.872
-171.882
-171.893
-171.905
-171.917
-171.929
-171.941
-171.953
-171.964
-171.975
-171.984
-171.992
-171.998
-172.003
-172.005
-171.608
-171.61
-171.613
-171.619
-171.626
-171.634
-171.644
-171.655
-171.666
-171.678
-171.69
-171.702
-171.714
-171.725
-171.736
-171.745
-171.753
-171.759
-171.764
-171.766
-171.646
-171.648
-171.651
-171.656
-171.663
-171.671
-171.681
-171.691
-171.702
-171.714
-171.725
-171.737
-171.748
-171.759
-171.769
-171.778
-171.786
-171.793
-171.797
-171.8
-172.03
-172.032
-172.035
-172.04
-172.046
-172.053
-172.062
-172.071
-172.081
-172.091
-172.102
-172.113
-172.123
-172.133
-172.142
-172.151
-172.158
-172.164
-172.169
-172.171
-172.619
-172.62
-172.623
-172.627
-172.633
-172.64
-172.648
-172.656
-172.665
-172.675
-172.685
-172.695
-172.704
-172.714
-172.722
-172.73
-172.738
-172.743
-172.748
-172.75
-173.666
-173.667
-173.669
-173.672
-173.677
-173.682
-173.688
-173.695
-173.702
-173.71
-173.717
-173.725
-173.733
-173.74
-173.748
-173.754
-173.76
-173.765
-173.769
-173.771
-174.882
-174.883
-174.885
-174.888
-174.891
-174.895
-174.9
-174.906
-174.912
-174.918
-174.924
-174.93
-174.937
-174.943
-174.949
-174.954
-174.959
-174.964
-174.967
-174.969
-176.738
-176.738
-176.739
-176.74
-176.742
-176.743
-176.745
-176.748
-176.75
-176.753
-176.756
-176.759
-176.762
-176.765
-176.768
-176.771
-176.773
-176.776
-176.778
-176.779
-178.788
-178.788
-178.788
-178.788
-178.788
-178.788
-178.787
-178.787
-178.787
-178.787
-178.787
-178.787
-178.787
-178.787
-178.787
-178.788
-178.788
-178.789
-178.79
-178.791
-181.747
-181.747
-181.745
-181.742
-181.739
-181.734
-181.73
-181.724
-181.719
-181.713
-181.708
-181.702
-181.696
-181.691
-181.687
-181.683
-181.68
-181.677
-181.676
-181.675
-185.03
-185.029
-185.025
-185.02
-185.013
-185.005
-184.996
-184.985
-184.974
-184.963
-184.951
-184.94
-184.929
-184.918
-184.909
-184.9
-184.893
-184.887
-184.883
-184.881
-189.559
-189.556
-189.55
-189.54
-189.528
-189.514
-189.497
-189.479
-189.459
-189.439
-189.419
-189.398
-189.378
-189.36
-189.342
-189.326
-189.312
-189.3
-189.292
-189.287
-194.752
-194.748
-194.738
-194.724
-194.706
-194.684
-194.658
-194.63
-194.601
-194.57
-194.539
-194.508
-194.478
-194.449
-194.422
-194.398
-194.376
-194.358
-194.344
-194.336
-234.741
-234.739
-234.734
-234.726
-234.716
-234.705
-234.692
-234.677
-234.662
-234.646
-234.63
-234.615
-234.6
-234.586
-234.572
-234.56
-234.55
-234.541
-234.535
-234.531
-230.973
-230.972
-230.97
-230.967
-230.963
-230.958
-230.952
-230.946
-230.94
-230.933
-230.927
-230.92
-230.914
-230.908
-230.902
-230.897
-230.892
-230.888
-230.886
-230.884
-227.696
-227.696
-227.697
-227.697
-227.698
-227.699
-227.699
-227.7
-227.701
-227.702
-227.703
-227.704
-227.705
-227.706
-227.707
-227.707
-227.708
-227.708
-227.708
-227.708
-225.321
-225.322
-225.323
-225.326
-225.329
-225.333
-225.337
-225.342
-225.347
-225.353
-225.358
-225.363
-225.369
-225.373
-225.378
-225.382
-225.385
-225.387
-225.389
-225.39
-223.314
-223.316
-223.319
-223.323
-223.329
-223.335
-223.343
-223.351
-223.36
-223.369
-223.378
-223.387
-223.396
-223.404
-223.412
-223.419
-223.425
-223.429
-223.433
-223.434
-221.94
-221.941
-221.945
-221.95
-221.957
-221.965
-221.974
-221.984
-221.994
-222.005
-222.016
-222.027
-222.038
-222.048
-222.057
-222.066
-222.073
-222.079
-222.083
-222.085
-220.93
-220.932
-220.936
-220.942
-220.949
-220.958
-220.968
-220.979
-220.99
-221.003
-221.015
-221.027
-221.039
-221.051
-221.061
-221.071
-221.079
-221.086
-221.091
-221.093
-220.356
-220.358
-220.362
-220.368
-220.375
-220.384
-220.395
-220.406
-220.418
-220.431
-220.444
-220.456
-220.469
-220.481
-220.492
-220.502
-220.511
-220.518
-220.523
-220.526
-220.097
-220.099
-220.103
-220.108
-220.116
-220.124
-220.135
-220.146
-220.158
-220.17
-220.183
-220.196
-220.209
-220.221
-220.232
-220.242
-220.251
-220.259
-220.264
-220.267
-220.16
-220.162
-220.165
-220.171
-220.178
-220.186
-220.196
-220.207
-220.219
-220.231
-220.243
-220.256
-220.268
-220.28
-220.291
-220.302
-220.311
-220.318
-220.324
-220.327
-220.625
-220.627
-220.63
-220.635
-220.641
-220.649
-220.658
-220.668
-220.679
-220.69
-220.701
-220.713
-220.724
-220.735
-220.746
-220.756
-220.764
-220.772
-220.777
-220.78
-221.345
-221.346
-221.349
-221.353
-221.359
-221.366
-221.375
-221.384
-221.394
-221.404
-221.415
-221.426
-221.436
-221.447
-221.457
-221.466
-221.474
-221.481
-221.487
-221.49
-222.582
-222.583
-222.585
-222.589
-222.593
-222.599
-222.605
-222.612
-222.62
-222.628
-222.637
-222.646
-222.654
-222.663
-222.671
-222.679
-222.686
-222.692
-222.697
-222.699
-224.035
-224.036
-224.037
-224.04
-224.044
-224.048
-224.053
-224.059
-224.065
-224.072
-224.079
-224.086
-224.093
-224.1
-224.107
-224.114
-224.12
-224.125
-224.129
-224.132
-226.182
-226.183
-226.183
-226.184
-226.186
-226.188
-226.19
-226.193
-226.195
-226.199
-226.202
-226.205
-226.209
-226.212
-226.216
-226.22
-226.223
-226.226
-226.229
-226.231
-228.554
-228.554
-228.554
-228.554
-228.554
-228.553
-228.553
-228.553
-228.553
-228.553
-228.553
-228.553
-228.553
-228.553
-228.554
-228.555
-228.556
-228.558
-228.559
-228.56
-231.866
-231.865
-231.863
-231.86
-231.857
-231.852
-231.848
-231.842
-231.837
-231.831
-231.825
-231.819
-231.813
-231.808
-231.803
-231.799
-231.795
-231.793
-231.791
-231.791
-235.467
-235.465
-235.461
-235.456
-235.45
-235.441
-235.432
-235.422
-235.411
-235.399
-235.387
-235.375
-235.364
-235.352
-235.342
-235.332
-235.324
-235.318
-235.313
-235.311
-240.276
-240.273
-240.267
-240.258
-240.246
-240.232
-240.215
-240.197
-240.177
-240.157
-240.136
-240.115
-240.094
-240.074
-240.055
-240.037
-240.021
-240.008
-239.998
-239.992
-245.563
-245.559
-245.55
-245.537
-245.519
-245.498
-245.473
-245.446
-245.417
-245.387
-245.356
-245.325
-245.294
-245.264
-245.235
-245.207
-245.182
-245.161
-245.144
-245.134
-283.372
-283.37
-283.366
-283.359
-283.351
-283.342
-283.331
-283.319
-283.306
-283.293
-283.279
-283.266
-283.253
-283.24
-283.228
-283.217
-283.208
-283.199
-283.193
-283.19
-279.611
-279.61
-279.608
-279.606
-279.602
-279.599
-279.594
-279.589
-279.584
-279.579
-279.573
-279.568
-279.562
-279.557
-279.552
-279.547
-279.543
-279.54
-279.537
-279.536
-276.247
-276.247
-276.247
-276.248
-276.249
-276.25
-276.251
-276.252
-276.254
-276.255
-276.257
-276.258
-276.259
-276.26
-276.261
-276.262
-276.263
-276.263
-276.263
-276.264
-273.768
-273.768
-273.77
-273.773
-273.776
-273.78
-273.784
-273.789
-273.794
-273.799
-273.804
-273.81
-273.815
-273.82
-273.824
-273.828
-273.831
-273.834
-273.835
-273.836
-271.656
-271.658
-271.66
-271.665
-271.67
-271.676
-271.683
-271.691
-271.7
-271.708
-271.717
-271.726
-271.735
-271.743
-271.751
-271.758
-271.763
-271.768
-271.771
-271.773
-270.181
-270.183
-270.186
-270.191
-270.197
-270.205
-270.214
-270.223
-270.233
-270.244
-270.255
-270.266
-270.276
-270.286
-270.296
-270.304
-270.312
-270.317
-270.322
-270.324
-269.101
-269.103
-269.107
-269.112
-269.119
-269.127
-269.137
-269.148
-269.159
-269.171
-269.183
-269.195
-269.207
-269.219
-269.23
-269.239
-269.248
-269.255
-269.26
-269.262
-268.485
-268.487
-268.491
-268.496
-268.503
-268.512
-268.522
-268.533
-268.545
-268.558
-268.57
-268.583
-268.596
-268.608
-268.62
-268.63
-268.639
-268.647
-268.652
-268.655
-268.223
-268.225
-268.228
-268.234
-268.241
-268.25
-268.259
-268.271
-268.282
-268.295
-268.308
-268.321
-268.334
-268.346
-268.358
-268.369
-268.378
-268.386
-268.392
-268.395
-268.315
-268.317
-268.32
-268.325
-268.332
-268.341
-268.351
-268.361
-268.373
-268.385
-268.398
-268.411
-268.424
-268.436
-268.448
-268.459
-268.469
-268.477
-268.483
-268.487
-268.851
-268.853
-268.856
-268.861
-268.867
-268.875
-268.884
-268.894
-268.905
-268.916
-268.928
-268.94
-268.952
-268.964
-268.976
-268.986
-268.996
-269.004
-269.01
-269.013
-269.679
-269.68
-269.683
-269.688
-269.694
-269.701
-269.709
-269.718
-269.729
-269.739
-269.75
-269.762
-269.773
-269.784
-269.795
-269.806
-269.815
-269.823
-269.829
-269.832
-271.067
-271.068
-271.071
-271.074
-271.079
-271.084
-271.091
-271.099
-271.107
-271.115
-271.124
-271.134
-271.143
-271.153
-271.162
-271.171
-271.179
-271.185
-271.191
-271.194
-272.699
-272.699
-272.701
-272.704
-272.708
-272.712
-272.718
-272.724
-272.73
-272.737
-272.745
-272.752
-272.76
-272.768
-272.776
-272.784
-272.791
-272.797
-272.802
-272.805
-275.063
-275.063
-275.064
-275.065
-275.067
-275.069
-275.071
-275.074
-275.078
-275.081
-275.085
-275.089
-275.093
-275.097
-275.102
-275.106
-275.11
-275.114
-275.117
-275.119
-277.658
-277.658
-277.658
-277.658
-277.658
-277.658
-277.658
-277.658
-277.658
-277.658
-277.659
-277.659
-277.66
-277.661
-277.662
-277.664
-277.666
-277.668
-277.669
-277.671
-281.205
-281.204
-281.202
-281.2
-281.196
-281.193
-281.188
-281.183
-281.178
-281.173
-281.168
-281.162
-281.157
-281.152
-281.147
-281.143
-281.14
-281.138
-281.136
-281.135
-285.023
-285.022
-285.019
-285.014
-285.008
-285
-284.991
-284.981
-284.971
-284.96
-284.948
-284.936
-284.925
-284.914
-284.903
-284.893
-284.884
-284.877
-284.872
-284.87
-289.931
-289.928
-289.923
-289.915
-289.904
-289.891
-289.876
-289.859
-289.84
-289.821
-289.801
-289.78
-289.76
-289.739
-289.719
-289.701
-289.684
-289.669
-289.658
-289.652
-295.296
-295.292
-295.284
-295.272
-295.257
-295.238
-295.215
-295.19
-295.163
-295.135
-295.105
-295.075
-295.044
-295.013
-294.983
-294.954
-294.927
-294.904
-294.885
-294.874
-331.238
-331.236
-331.233
-331.229
-331.223
-331.215
-331.207
-331.198
-331.188
-331.178
-331.167
-331.156
-331.145
-331.135
-331.125
-331.115
-331.106
-331.099
-331.094
-331.09
-327.496
-327.496
-327.495
-327.493
-327.491
-327.488
-327.485
-327.482
-327.478
-327.474
-327.47
-327.466
-327.462
-327.458
-327.454
-327.45
-327.446
-327.443
-327.441
-327.44
-324.111
-324.112
-324.112
-324.113
-324.114
-324.116
-324.117
-324.119
-324.121
-324.123
-324.125
-324.126
-324.128
-324.13
-324.131
-324.132
-324.133
-324.133
-324.134
-324.134
-321.59
-321.59
-321.592
-321.594
-321.598
-321.601
-321.605
-321.61
-321.615
-321.62
-321.625
-321.631
-321.636
-321.641
-321.645
-321.649
-321.652
-321.654
-321.656
-321.657
-319.427
-319.429
-319.431
-319.435
-319.44
-319.445
-319.452
-319.46
-319.467
-319.476
-319.484
-319.493
-319.501
-319.509
-319.516
-319.523
-319.528
-319.533
-319.536
-319.538
-317.904
-317.906
-317.909
-317.913
-317.919
-317.926
-317.934
-317.943
-317.953
-317.962
-317.973
-317.983
-317.993
-318.003
-318.012
-318.02
-318.027
-318.033
-318.037
-318.039
-316.791
-316.793
-316.796
-316.801
-316.808
-316.815
-316.824
-316.834
-316.845
-316.856
-316.868
-316.879
-316.891
-316.902
-316.913
-316.922
-316.931
-316.937
-316.942
-316.945
-316.161
-316.163
-316.167
-316.172
-316.178
-316.187
-316.196
-316.206
-316.218
-316.23
-316.242
-316.254
-316.267
-316.279
-316.29
-316.301
-316.31
-316.317
-316.323
-316.326
-315.911
-315.913
-315.916
-315.921
-315.928
-315.936
-315.946
-315.956
-315.968
-315.98
-315.992
-316.005
-316.018
-316.03
-316.042
-316.053
-316.063
-316.071
-316.077
-316.08
-316.037
-316.038
-316.042
-316.047
-316.054
-316.062
-316.071
-316.081
-316.093
-316.105
-316.117
-316.13
-316.143
-316.156
-316.168
-316.179
-316.189
-316.198
-316.204
-316.208
-316.635
-316.637
-316.64
-316.645
-316.651
-316.658
-316.667
-316.677
-316.688
-316.699
-316.711
-316.723
-316.735
-316.748
-316.759
-316.77
-316.78
-316.789
-316.795
-316.798
-317.552
-317.553
-317.556
-317.561
-317.566
-317.573
-317.582
-317.591
-317.601
-317.612
-317.623
-317.634
-317.646
-317.658
-317.669
-317.68
-317.69
-317.698
-317.705
-317.709
-319.053
-319.055
-319.057
-319.06
-319.065
-319.071
-319.077
-319.085
-319.093
-319.102
-319.112
-319.121
-319.131
-319.141
-319.151
-319.16
-319.169
-319.176
-319.182
-319.185
-320.819
-320.82
-320.822
-320.825
-320.828
-320.833
-320.838
-320.845
-320.852
-320.859
-320.867
-320.875
-320.884
-320.892
-320.901
-320.909
-320.917
-320.924
-320.929
-320.932
-323.328
-323.328
-323.329
-323.331
-323.333
-323.335
-323.338
-323.341
-323.345
-323.349
-323.353
-323.358
-323.363
-323.368
-323.373
-323.378
-323.383
-323.387
-323.391
-323.393
-326.073
-326.073
-326.073
-326.074
-326.074
-326.074
-326.075
-326.075
-326.076
-326.077
-326.078
-326.08
-326.081
-326.083
-326.085
-326.088
-326.09
-326.093
-326.095
-326.096
-329.751
-329.75
-329.749
-329.747
-329.744
-329.741
-329.738
-329.734
-329.73
-329.725
-329.721
-329.717
-329.712
-329.708
-329.704
-329.701
-329.698
-329.695
-329.694
-329.693
-333.662
-333.66
-333.658
-333.653
-333.648
-333.642
-333.634
-333.626
-333.617
-333.607
-333.597
-333.587
-333.576
-333.566
-333.556
-333.546
-333.538
-333.531
-333.526
-333.524
-338.627
-338.625
-338.621
-338.614
-338.604
-338.593
-338.58
-338.565
-338.549
-338.531
-338.513
-338.494
-338.475
-338.455
-338.436
-338.417
-338.4
-338.385
-338.374
-338.368
-344.013
-344.01
-344.003
-343.993
-343.979
-343.962
-343.943
-343.921
-343.896
-343.87
-343.843
-343.814
-343.784
-343.754
-343.723
-343.694
-343.666
-343.641
-343.622
-343.609
-378.427
-378.426
-378.424
-378.421
-378.417
-378.412
-378.407
-378.401
-378.394
-378.387
-378.379
-378.371
-378.363
-378.355
-378.347
-378.339
-378.333
-378.327
-378.323
-378.321
-374.712
-374.712
-374.711
-374.71
-374.709
-374.708
-374.706
-374.705
-374.703
-374.7
-374.698
-374.696
-374.693
-374.69
-374.687
-374.685
-374.682
-374.68
-374.678
-374.677
-371.352
-371.353
-371.353
-371.354
-371.356
-371.358
-371.36
-371.362
-371.364
-371.366
-371.369
-371.371
-371.373
-371.375
-371.377
-371.378
-371.379
-371.38
-371.38
-371.38
-368.822
-368.823
-368.824
-368.827
-368.83
-368.833
-368.837
-368.842
-368.846
-368.851
-368.857
-368.862
-368.867
-368.871
-368.875
-368.879
-368.882
-368.884
-368.886
-368.887
-366.65
-366.651
-366.653
-366.657
-366.661
-366.666
-366.672
-366.679
-366.686
-366.694
-366.702
-366.71
-366.717
-366.725
-366.731
-366.738
-366.743
-366.747
-366.749
-366.751
-365.111
-365.112
-365.115
-365.119
-365.124
-365.13
-365.138
-365.146
-365.154
-365.163
-365.173
-365.182
-365.192
-365.201
-365.209
-365.217
-365.223
-365.228
-365.232
-365.234
-363.994
-363.995
-363.998
-364.003
-364.009
-364.016
-364.024
-364.033
-364.042
-364.053
-364.063
-364.074
-364.085
-364.095
-364.105
-364.114
-364.122
-364.128
-364.133
-364.135
-363.369
-363.371
-363.374
-363.379
-363.385
-363.392
-363.401
-363.411
-363.421
-363.432
-363.443
-363.455
-363.467
-363.478
-363.489
-363.499
-363.508
-363.515
-363.52
-363.523
-363.143
-363.145
-363.148
-363.153
-363.159
-363.167
-363.176
-363.185
-363.196
-363.207
-363.219
-363.231
-363.244
-363.256
-363.267
-363.278
-363.287
-363.295
-363.3
-363.303
-363.305
-363.307
-363.31
-363.315
-363.321
-363.329
-363.338
-363.348
-363.358
-363.37
-363.382
-363.394
-363.407
-363.419
-363.431
-363.442
-363.452
-363.46
-363.466
-363.47
-363.959
-363.96
-363.963
-363.968
-363.974
-363.981
-363.989
-363.999
-364.009
-364.02
-364.032
-364.044
-364.056
-364.068
-364.08
-364.091
-364.1
-364.109
-364.115
-364.118
-364.948
-364.949
-364.952
-364.956
-364.962
-364.969
-364.977
-364.986
-364.996
-365.006
-365.017
-365.029
-365.041
-365.053
-365.064
-365.075
-365.085
-365.093
-365.099
-365.103
-366.535
-366.536
-366.538
-366.542
-366.546
-366.552
-366.559
-366.566
-366.575
-366.584
-366.593
-366.603
-366.614
-366.624
-366.634
-366.643
-366.652
-366.659
-366.665
-366.668
-368.397
-368.398
-368.4
-368.403
-368.407
-368.411
-368.417
-368.424
-368.431
-368.438
-368.447
-368.455
-368.464
-368.473
-368.482
-368.491
-368.499
-368.506
-368.511
-368.514
-371.004
-371.004
-371.005
-371.007
-371.009
-371.012
-371.015
-371.019
-371.023
-371.028
-371.033
-371.038
-371.044
-371.05
-371.056
-371.061
-371.066
-371.071
-371.074
-371.076
-373.844
-373.844
-373.845
-373.845
-373.846
-373.847
-373.848
-373.85
-373.851
-373.853
-373.855
-373.858
-373.86
-373.863
-373.866
-373.869
-373.872
-373.875
-373.877
-373.879
-377.591
-377.59
-377.589
-377.588
-377.586
-377.584
-377.582
-377.579
-377.577
-377.574
-377.571
-377.568
-377.565
-377.562
-377.559
-377.556
-377.554
-377.552
-377.551
-377.55
-381.552
-381.551
-381.549
-381.546
-381.542
-381.537
-381.531
-381.524
-381.517
-381.509
-381.501
-381.492
-381.483
-381.474
-381.466
-381.457
-381.45
-381.444
-381.439
-381.437
-386.501
-386.499
-386.495
-386.49
-386.482
-386.473
-386.462
-386.45
-386.436
-386.421
-386.405
-386.389
-386.371
-386.353
-386.335
-386.318
-386.302
-386.288
-386.278
-386.272
-391.835
-391.833
-391.827
-391.819
-391.808
-391.794
-391.778
-391.759
-391.738
-391.715
-391.691
-391.665
-391.637
-391.609
-391.58
-391.552
-391.525
-391.502
-391.484
-391.473
-424.95
-424.949
-424.948
-424.947
-424.945
-424.943
-424.94
-424.937
-424.934
-424.93
-424.926
-424.921
-424.916
-424.911
-424.906
-424.901
-424.897
-424.894
-424.892
-424.892
-421.3
-421.3
-421.3
-421.3
-421.3
-421.3
-421.3
-421.3
-421.3
-421.3
-421.299
-421.298
-421.297
-421.296
-421.295
-421.293
-421.292
-421.291
-421.29
-421.29
-417.975
-417.975
-417.976
-417.978
-417.98
-417.982
-417.984
-417.987
-417.99
-417.993
-417.995
-417.998
-418.001
-418.003
-418.005
-418.007
-418.008
-418.009
-418.009
-418.009
-415.466
-415.467
-415.469
-415.471
-415.474
-415.477
-415.481
-415.485
-415.49
-415.495
-415.5
-415.504
-415.509
-415.514
-415.518
-415.521
-415.524