/*--------------------------------*- C++ -*----------------------------------*\
| =========                 |                                                 |
| \\      /  F ield         | OpenFOAM: The Open Source CFD Toolbox           |
|  \\    /   O peration     | Version:  2212                                  |
|   \\  /    A nd           | Website:  www.openfoam.com                      |
|    \\/     M anipulation  |                                                 |
\*---------------------------------------------------------------------------*/
FoamFile
{
    version     2.0;
    format      ascii;
    arch        "LSB;label=32;scalar=64";
    class       volScalarField;
    location    "0.251";
    object      k;
}
// * * * * * * * * * * * * * * * * * * * * * * * * * * * * * * * * * * * * * //

dimensions      [0 2 -2 0 0 0 0];

internalField   nonuniform List<scalar> 
24240
(
8.49896e-06
2.11913e-05
2.69501e-05
2.69193e-05
2.69207e-05
2.69224e-05
2.69244e-05
2.69264e-05
2.69285e-05
2.69305e-05
2.69324e-05
2.69342e-05
2.69358e-05
2.69372e-05
2.69384e-05
2.69394e-05
2.69402e-05
2.69726e-05
2.12084e-05
8.50275e-06
5.19201e-08
1.60785e-07
1.21465e-07
1.30933e-07
1.24445e-07
1.24446e-07
1.24446e-07
1.24445e-07
1.24445e-07
1.24444e-07
1.24442e-07
1.2444e-07
1.24437e-07
1.24434e-07
1.24431e-07
1.24427e-07
1.309e-07
1.2144e-07
1.61029e-07
5.20214e-08
7.57727e-11
2.77882e-10
1.61967e-10
9.71609e-09
7.91863e-09
7.91794e-09
7.91718e-09
7.91633e-09
7.9154e-09
7.91442e-09
7.9134e-09
7.91236e-09
7.91131e-09
7.91028e-09
7.90928e-09
7.90838e-09
9.70161e-09
1.61924e-10
2.78362e-10
7.59586e-11
9.20333e-14
1.32636e-13
3.7081e-13
1.9253e-08
1.93873e-08
1.9387e-08
1.93867e-08
1.93864e-08
1.9386e-08
1.93857e-08
1.93854e-08
1.93851e-08
1.93849e-08
1.93847e-08
1.93846e-08
1.93845e-08
1.92499e-08
3.59738e-13
1.32741e-13
9.23352e-14
1.13008e-15
1.17799e-15
1.21006e-13
2.09088e-08
2.11015e-08
2.11013e-08
2.11012e-08
2.1101e-08
2.11009e-08
2.11008e-08
2.11006e-08
2.11005e-08
2.11005e-08
2.11005e-08
2.11005e-08
2.11006e-08
2.0908e-08
1.27969e-13
1.178e-15
1.13065e-15
1.00024e-15
1.0006e-15
3.15858e-14
5.85403e-09
5.91227e-09
5.91206e-09
5.91182e-09
5.91158e-09
5.91132e-09
5.91107e-09
5.91083e-09
5.91061e-09
5.91041e-09
5.91023e-09
5.91009e-09
5.90998e-09
5.8515e-09
3.00929e-14
1.00059e-15
1.00024e-15
1e-15
1.00013e-15
4.31222e-14
8.42232e-09
8.52783e-09
8.52749e-09
8.52713e-09
8.52673e-09
8.52633e-09
8.52594e-09
8.52556e-09
8.5252e-09
8.52488e-09
8.52459e-09
8.52435e-09
8.52415e-09
8.41826e-09
4.40876e-14
1.00013e-15
1e-15
1e-15
1.00002e-15
9.19184e-15
1.79541e-09
1.81836e-09
1.81834e-09
1.81832e-09
1.81829e-09
1.81827e-09
1.81825e-09
1.81823e-09
1.81822e-09
1.8182e-09
1.81818e-09
1.81817e-09
1.81815e-09
1.79516e-09
8.90362e-15
1.00002e-15
1e-15
1e-15
1.00002e-15
9.18166e-15
1.80479e-09
1.83016e-09
1.83015e-09
1.83015e-09
1.83014e-09
1.83013e-09
1.83013e-09
1.83012e-09
1.83012e-09
1.83011e-09
1.8301e-09
1.83008e-09
1.83005e-09
1.80464e-09
9.05681e-15
1.00002e-15
1e-15
1e-15
1.00001e-15
4.81697e-15
9.6505e-10
9.77114e-10
9.76886e-10
9.76629e-10
9.76352e-10
9.76063e-10
9.75771e-10
9.75481e-10
9.75203e-10
9.7494e-10
9.74697e-10
9.74476e-10
9.74282e-10
9.61899e-10
4.63396e-15
1.00001e-15
1e-15
1e-15
1e-15
2.70024e-15
4.4117e-10
4.46081e-10
4.45977e-10
4.4586e-10
4.45733e-10
4.45601e-10
4.45467e-10
4.45334e-10
4.45206e-10
4.45085e-10
4.44974e-10
4.44873e-10
4.44783e-10
4.39725e-10
2.51003e-15
1e-15
1e-15
1e-15
1.00002e-15
1.09999e-14
2.35018e-09
2.37592e-09
2.37557e-09
2.37519e-09
2.37477e-09
2.37434e-09
2.37391e-09
2.37348e-09
2.37307e-09
2.37269e-09
2.37234e-09
2.37203e-09
2.37176e-09
2.34556e-09
1.06797e-14
1.00002e-15
1e-15
1e-15
1.00001e-15
6.05069e-15
1.1077e-09
1.11808e-09
1.11795e-09
1.11781e-09
1.11765e-09
1.1175e-09
1.11734e-09
1.11718e-09
1.11704e-09
1.1169e-09
1.11678e-09
1.11667e-09
1.11658e-09
1.10604e-09
5.26016e-15
1.00001e-15
1e-15
1e-15
1.00015e-15
5.13963e-14
9.89926e-09
9.98296e-09
9.98229e-09
9.98155e-09
9.98078e-09
9.97999e-09
9.97922e-09
9.97848e-09
9.97781e-09
9.97722e-09
9.97673e-09
9.97634e-09
9.97607e-09
9.89171e-09
5.00701e-14
1.00014e-15
1e-15
1e-15
1.00011e-15
3.94926e-14
6.69202e-09
6.73901e-09
6.73865e-09
6.73825e-09
6.73784e-09
6.73742e-09
6.73701e-09
6.73662e-09
6.73628e-09
6.73598e-09
6.73575e-09
6.73557e-09
6.73547e-09
6.68815e-09
3.23508e-14
1.00008e-15
1e-15
1e-15
1.00137e-15
3.77807e-13
6.26159e-08
6.29922e-08
6.29914e-08
6.29906e-08
6.29898e-08
6.2989e-08
6.29884e-08
6.29879e-08
6.29875e-08
6.29873e-08
6.29874e-08
6.29877e-08
6.29883e-08
6.26121e-08
3.61143e-13
1.00131e-15
1e-15
1.00271e-15
1.05214e-15
9.42398e-13
6.78973e-08
6.82375e-08
6.82444e-08
6.82435e-08
6.82425e-08
6.82416e-08
6.82408e-08
6.8232e-08
6.82393e-08
6.8239e-08
6.8239e-08
6.82392e-08
6.82319e-08
6.78914e-08
8.34046e-13
1.05135e-15
1.00271e-15
2.55092e-13
8.03018e-13
2.50431e-08
4.09464e-08
3.77354e-08
3.39803e-08
3.39767e-08
3.39727e-08
3.39682e-08
3.39635e-08
3.74094e-08
3.3952e-08
3.39466e-08
3.39412e-08
3.39361e-08
3.76791e-08
4.08707e-08
2.49863e-08
7.96515e-13
2.54969e-13
8.51094e-10
1.24105e-08
1.94317e-07
2.35672e-07
2.11452e-07
2.10868e-07
2.10842e-07
2.10812e-07
2.10778e-07
2.10742e-07
2.11397e-07
2.10668e-07
2.10627e-07
2.10587e-07
2.10547e-07
2.11071e-07
2.35178e-07
1.9386e-07
1.23717e-08
8.50652e-10
8.07349e-05
0.000138785
0.000171277
0.000171306
0.000171306
0.000171309
0.000171313
0.000171316
0.000171319
0.000171322
0.000171325
0.000171327
0.000171328
0.000171329
0.00017133
0.00017133
0.000171332
0.000171306
0.000138805
8.07257e-05
3.71672e-06
2.12417e-05
2.77069e-05
2.76762e-05
2.76785e-05
2.7681e-05
2.76839e-05
2.7687e-05
2.76901e-05
2.76933e-05
2.76963e-05
2.76992e-05
2.77019e-05
2.77042e-05
2.77063e-05
2.77081e-05
2.77095e-05
2.77429e-05
2.12705e-05
3.72685e-06
7.07303e-08
9.66966e-07
1.63036e-07
1.70908e-07
1.64951e-07
1.64958e-07
1.64965e-07
1.64973e-07
1.6498e-07
1.64988e-07
1.64994e-07
1.65e-07
1.65005e-07
1.6501e-07
1.65013e-07
1.65015e-07
1.70975e-07
1.6311e-07
9.69044e-07
7.08864e-08
1.62087e-10
1.26434e-08
3.18296e-10
7.45863e-09
6.01046e-09
6.01029e-09
6.01015e-09
6.00998e-09
6.00981e-09
6.00963e-09
6.00945e-09
6.00927e-09
6.00909e-09
6.00891e-09
6.00873e-09
6.0086e-09
7.45557e-09
3.1832e-10
1.26722e-08
1.62528e-10
2.68296e-13
1.36941e-12
8.57615e-13
5.48899e-08
5.53067e-08
5.53057e-08
5.53045e-08
5.53033e-08
5.5302e-08
5.53008e-08
5.52996e-08
5.52985e-08
5.52976e-08
5.52967e-08
5.52961e-08
5.52957e-08
5.48778e-08
8.37562e-13
1.37231e-12
2.69247e-13
1.46209e-15
1.69478e-15
2.94072e-13
5.94243e-08
5.99781e-08
5.99774e-08
5.99766e-08
5.99757e-08
5.99748e-08
5.9974e-08
5.99732e-08
5.99724e-08
5.99718e-08
5.99712e-08
5.99709e-08
5.99708e-08
5.94166e-08
3.14261e-13
1.69525e-15
1.46406e-15
1.00088e-15
1.00179e-15
9.31552e-14
2.00107e-08
2.02083e-08
2.02075e-08
2.02067e-08
2.02058e-08
2.02049e-08
2.0204e-08
2.02031e-08
2.02022e-08
2.02015e-08
2.02008e-08
2.02002e-08
2.01998e-08
2.00014e-08
8.82825e-14
1.00178e-15
1.00088e-15
1e-15
1.0003e-15
1.10541e-13
2.46767e-08
2.49686e-08
2.49673e-08
2.49659e-08
2.49644e-08
2.49628e-08
2.49612e-08
2.49596e-08
2.49582e-08
2.49568e-08
2.49556e-08
2.49546e-08
2.49537e-08
2.46603e-08
1.13469e-13
1.00031e-15
1e-15
1e-15
1.00006e-15
2.61025e-14
6.33323e-09
6.41048e-09
6.41029e-09
6.41008e-09
6.40986e-09
6.40963e-09
6.40941e-09
6.4092e-09
6.40899e-09
6.4088e-09
6.40862e-09
6.40846e-09
6.40831e-09
6.3308e-09
2.50871e-14
1.00005e-15
1e-15
1e-15
1.00005e-15
2.43007e-14
5.95148e-09
6.02917e-09
6.02899e-09
6.0288e-09
6.0286e-09
6.02839e-09
6.02819e-09
6.02799e-09
6.02779e-09
6.0276e-09
6.02742e-09
6.02723e-09
6.02706e-09
5.94909e-09
2.37626e-14
1.00005e-15
1e-15
1e-15
1.00003e-15
1.36363e-14
3.69581e-09
3.7397e-09
3.73902e-09
3.73824e-09
3.7374e-09
3.73653e-09
3.73564e-09
3.73476e-09
3.73391e-09
3.7331e-09
3.73235e-09
3.73166e-09
3.73104e-09
3.68615e-09
1.30592e-14
1.00002e-15
1e-15
1e-15
1.00001e-15
7.79161e-15
2.03977e-09
2.06185e-09
2.06143e-09
2.06094e-09
2.06042e-09
2.05988e-09
2.05932e-09
2.05877e-09
2.05824e-09
2.05774e-09
2.05728e-09
2.05685e-09
2.05648e-09
2.03378e-09
7.01495e-15
1.00001e-15
1e-15
1e-15
1.00007e-15
3.34427e-14
8.67113e-09
8.76319e-09
8.76202e-09
8.76071e-09
8.7593e-09
8.75783e-09
8.75635e-09
8.75488e-09
8.75348e-09
8.75216e-09
8.75095e-09
8.74987e-09
8.74893e-09
8.65528e-09
3.25269e-14
1.00007e-15
1e-15
1e-15
1.00004e-15
2.04136e-14
4.8639e-09
4.90857e-09
4.90803e-09
4.90742e-09
4.90678e-09
4.9061e-09
4.90543e-09
4.90477e-09
4.90414e-09
4.90355e-09
4.90302e-09
4.90256e-09
4.90217e-09
4.8568e-09
1.72743e-14
1.00003e-15
1e-15
1e-15
1.0004e-15
1.49267e-13
3.32537e-08
3.35287e-08
3.35264e-08
3.35239e-08
3.35212e-08
3.35185e-08
3.35158e-08
3.35132e-08
3.35108e-08
3.35087e-08
3.3507e-08
3.35056e-08
3.35045e-08
3.32271e-08
1.46944e-13
1.00038e-15
1e-15
1e-15
1.00034e-15
1.28813e-13
2.49471e-08
2.51192e-08
2.51177e-08
2.5116e-08
2.51142e-08
2.51124e-08
2.51106e-08
2.51089e-08
2.51074e-08
2.5106e-08
2.5105e-08
2.51041e-08
2.51036e-08
2.49299e-08
1.04175e-13
1.00026e-15
1e-15
1e-15
1.00235e-15
8.62985e-13
1.62292e-07
1.63331e-07
1.63327e-07
1.63325e-07
1.63323e-07
1.6332e-07
1.63318e-07
1.63317e-07
1.63315e-07
1.63314e-07
1.63313e-07
1.63313e-07
1.63315e-07
1.62275e-07
8.61098e-13
1.00233e-15
1e-15
1.00219e-15
1.05627e-15
1.31602e-12
1.7431e-07
1.75265e-07
1.75303e-07
1.753e-07
1.75297e-07
1.75295e-07
1.75292e-07
1.7526e-07
1.75287e-07
1.75285e-07
1.75284e-07
1.75284e-07
1.75245e-07
1.74289e-07
1.13515e-12
1.05531e-15
1.00219e-15
2.25463e-13
8.12703e-13
2.43079e-08
4.05697e-08
3.81805e-08
3.3794e-08
3.37915e-08
3.37886e-08
3.37855e-08
3.37821e-08
3.71726e-08
3.37728e-08
3.3769e-08
3.37653e-08
3.37617e-08
3.81359e-08
4.0516e-08
2.42794e-08
8.07975e-13
2.2548e-13
7.71113e-10
1.3467e-08
1.81891e-07
2.18814e-07
1.95773e-07
1.95331e-07
1.95317e-07
1.95301e-07
1.95284e-07
1.95265e-07
1.95499e-07
1.95227e-07
1.95207e-07
1.95186e-07
1.95166e-07
1.95577e-07
2.18555e-07
1.81643e-07
1.34337e-08
7.71116e-10
8.06079e-05
0.000170865
0.000214768
0.000214899
0.000214908
0.00021492
0.000214933
0.000214947
0.000214961
0.000214976
0.00021499
0.000215003
0.000215015
0.000215026
0.000215036
0.000215044
0.000215053
0.000214933
0.000171003
8.06399e-05
7.34383e-07
1.8685e-05
2.68402e-05
2.68331e-05
2.68375e-05
2.68426e-05
2.68484e-05
2.68546e-05
2.6861e-05
2.68675e-05
2.68739e-05
2.68801e-05
2.68858e-05
2.68911e-05
2.68959e-05
2.69e-05
2.69033e-05
2.69165e-05
1.87482e-05
7.36145e-07
4.56787e-08
1.75908e-06
1.05617e-08
1.53244e-08
1.06156e-08
1.06169e-08
1.06186e-08
1.06206e-08
1.0623e-08
1.06255e-08
1.06284e-08
1.06313e-08
1.06345e-08
1.06376e-08
1.06407e-08
1.06438e-08
1.53625e-08
1.05936e-08
1.76311e-06
4.57615e-08
5.64903e-11
2.43133e-07
1.15026e-10
6.28343e-09
4.79015e-09
4.78998e-09
4.78987e-09
4.78975e-09
4.78963e-09
4.7895e-09
4.78937e-09
4.78924e-09
4.78911e-09
4.78899e-09
4.78887e-09
4.78882e-09
6.28108e-09
1.15034e-10
2.43691e-07
5.72871e-11
1.37281e-13
3.98415e-12
7.50373e-13
7.92077e-08
7.98709e-08
7.98694e-08
7.98678e-08
7.9866e-08
7.98642e-08
7.98623e-08
7.98605e-08
7.98587e-08
7.98571e-08
7.98557e-08
7.98546e-08
7.98537e-08
7.9189e-08
7.26809e-13
3.99359e-12
1.3921e-13
1.36309e-15
1.69394e-15
3.60972e-13
8.51625e-08
8.59905e-08
8.59889e-08
8.59871e-08
8.59852e-08
8.59831e-08
8.5981e-08
8.59789e-08
8.59769e-08
8.59752e-08
8.59736e-08
8.59724e-08
8.59714e-08
8.51422e-08
3.86141e-13
1.69471e-15
1.36718e-15
1.00097e-15
1.00249e-15
1.37565e-13
3.67662e-08
3.71294e-08
3.71279e-08
3.71263e-08
3.71245e-08
3.71227e-08
3.71208e-08
3.71189e-08
3.71171e-08
3.71154e-08
3.71139e-08
3.71126e-08
3.71117e-08
3.67468e-08
1.3178e-13
1.00248e-15
1.00098e-15
1e-15
1.00036e-15
1.45453e-13
3.96132e-08
4.00496e-08
4.0048e-08
4.00462e-08
4.00442e-08
4.00421e-08
4.004e-08
4.00379e-08
4.00358e-08
4.00339e-08
4.00322e-08
4.00306e-08
4.00294e-08
3.95909e-08
1.4979e-13
1.00038e-15
1e-15
1e-15
1.00009e-15
4.30911e-14
1.375e-08
1.39017e-08
1.3901e-08
1.39002e-08
1.38994e-08
1.38985e-08
1.38977e-08
1.38968e-08
1.38959e-08
1.38951e-08
1.38943e-08
1.38936e-08
1.3893e-08
1.37404e-08
4.18322e-14
1.00008e-15
1e-15
1e-15
1.00008e-15
4.02931e-14
1.29956e-08
1.31403e-08
1.31396e-08
1.31387e-08
1.31378e-08
1.31368e-08
1.31358e-08
1.31348e-08
1.31338e-08
1.31329e-08
1.3132e-08
1.31311e-08
1.31304e-08
1.29844e-08
3.92743e-14
1.00008e-15
1e-15
1e-15
1.00005e-15
2.66998e-14
1.00715e-08
1.01833e-08
1.01821e-08
1.01808e-08
1.01793e-08
1.01778e-08
1.01762e-08
1.01746e-08
1.01731e-08
1.01716e-08
1.01702e-08
1.0169e-08
1.01678e-08
1.00541e-08
2.58565e-14
1.00004e-15
1e-15
1e-15
1.00003e-15
1.81092e-14
6.78711e-09
6.85795e-09
6.85671e-09
6.8553e-09
6.85379e-09
6.8522e-09
6.85058e-09
6.84898e-09
6.84742e-09
6.84594e-09
6.84457e-09
6.84332e-09
6.84222e-09
6.76956e-09
1.62424e-14
1.00003e-15
1e-15
1e-15
1.00013e-15
6.50887e-14
2.18525e-08
2.20754e-08
2.20736e-08
2.20716e-08
2.20694e-08
2.20671e-08
2.20648e-08
2.20625e-08
2.20603e-08
2.20582e-08
2.20562e-08
2.20544e-08
2.20529e-08
2.18274e-08
6.4251e-14
1.00013e-15
1e-15
1e-15
1.00009e-15
4.86893e-14
1.53631e-08
1.55015e-08
1.54999e-08
1.5498e-08
1.5496e-08
1.54939e-08
1.54918e-08
1.54897e-08
1.54877e-08
1.54859e-08
1.54842e-08
1.54827e-08
1.54815e-08
1.53409e-08
4.13547e-14
1.00008e-15
1e-15
1e-15
1.00062e-15
2.63109e-13
7.145e-08
7.20617e-08
7.20584e-08
7.20547e-08
7.20507e-08
7.20465e-08
7.20423e-08
7.20383e-08
7.20344e-08
7.20309e-08
7.20277e-08
7.2025e-08
7.20227e-08
7.14067e-08
2.64217e-13
1.00062e-15
1e-15
1e-15
1.00063e-15
2.63418e-13
6.32859e-08
6.37404e-08
6.37369e-08
6.37329e-08
6.37287e-08
6.37243e-08
6.37199e-08
6.37156e-08
6.37117e-08
6.37081e-08
6.3705e-08
6.37024e-08
6.37003e-08
6.32416e-08
2.15284e-13
1.00049e-15
1e-15
1e-15
1.00275e-15
1.05546e-12
2.21583e-07
2.23184e-07
2.2318e-07
2.23175e-07
2.2317e-07
2.23165e-07
2.2316e-07
2.23156e-07
2.23151e-07
2.23148e-07
2.23145e-07
2.23142e-07
2.23141e-07
2.21536e-07
1.08146e-12
1.00278e-15
1e-15
1.00084e-15
1.05614e-15
1.55125e-12
2.32495e-07
2.33979e-07
2.34016e-07
2.34012e-07
2.34008e-07
2.34003e-07
2.33999e-07
2.33966e-07
2.33991e-07
2.33987e-07
2.33985e-07
2.33983e-07
2.33941e-07
2.32454e-07
1.34665e-12
1.05517e-15
1.00084e-15
1.17003e-13
6.47944e-13
1.90702e-08
3.43748e-08
3.333e-08
2.90083e-08
2.90082e-08
2.90081e-08
2.90081e-08
2.90081e-08
3.17059e-08
2.90051e-08
2.9005e-08
2.90051e-08
2.90052e-08
3.33215e-08
3.4371e-08
1.90613e-08
6.47775e-13
1.17163e-13
4.19022e-10
1.3592e-08
1.33715e-07
1.58695e-07
1.4117e-07
1.40748e-07
1.40751e-07
1.40755e-07
1.40759e-07
1.40763e-07
1.40891e-07
1.40774e-07
1.4078e-07
1.40786e-07
1.40792e-07
1.4122e-07
1.58754e-07
1.33765e-07
1.35659e-08
4.19586e-10
6.588e-05
0.000179493
0.000227156
0.000227314
0.000227326
0.000227343
0.000227361
0.00022738
0.0002274
0.000227421
0.00022744
0.000227459
0.000227477
0.000227493
0.000227507
0.00022752
0.000227532
0.000227392
0.000179693
6.6024e-05
3.64894e-07
9.17615e-06
1.41089e-05
1.41125e-05
1.4115e-05
1.41178e-05
1.4121e-05
1.41245e-05
1.41282e-05
1.41319e-05
1.41355e-05
1.41391e-05
1.41425e-05
1.41456e-05
1.41485e-05
1.4151e-05
1.4153e-05
1.4153e-05
9.2106e-06
3.65164e-07
4.23888e-08
2.30923e-08
7.31842e-08
7.96173e-08
7.37604e-08
7.37653e-08
7.37709e-08
7.3777e-08
7.37834e-08
7.37899e-08
7.37964e-08
7.38027e-08
7.38088e-08
7.38145e-08
7.38197e-08
7.38242e-08
7.96865e-08
7.32639e-08
2.30942e-08
4.24014e-08
2.07423e-10
9.87647e-11
2.56369e-10
6.76803e-09
5.16932e-09
5.16915e-09
5.16907e-09
5.16897e-09
5.16887e-09
5.16877e-09
5.16867e-09
5.16858e-09
5.16848e-09
5.16839e-09
5.1683e-09
5.1683e-09
6.76621e-09
2.56452e-10
9.88217e-11
2.10236e-10
4.64284e-13
2.88841e-13
1.27834e-12
8.48642e-08
8.55779e-08
8.55768e-08
8.55754e-08
8.55739e-08
8.55723e-08
8.55706e-08
8.55689e-08
8.55673e-08
8.55658e-08
8.55645e-08
8.55634e-08
8.55625e-08
8.48475e-08
1.2578e-12
2.88901e-13
4.71116e-13
1.91997e-15
2.109e-15
3.80807e-13
9.1881e-08
9.27944e-08
9.27928e-08
9.27909e-08
9.27887e-08
9.27864e-08
9.2784e-08
9.27817e-08
9.27794e-08
9.27774e-08
9.27756e-08
9.27741e-08
9.27729e-08
9.1858e-08
4.07655e-13
2.10906e-15
1.93278e-15
1.00204e-15
1.00469e-15
1.53968e-13
4.2667e-08
4.30904e-08
4.30888e-08
4.30871e-08
4.30852e-08
4.30832e-08
4.30811e-08
4.3079e-08
4.3077e-08
4.30751e-08
4.30734e-08
4.30719e-08
4.30709e-08
4.26457e-08
1.48837e-13
1.00468e-15
1.00206e-15
1e-15
1.00039e-15
1.58751e-13
4.49923e-08
4.54814e-08
4.54797e-08
4.54777e-08
4.54756e-08
4.54733e-08
4.5471e-08
4.54687e-08
4.54664e-08
4.54643e-08
4.54623e-08
4.54606e-08
4.54592e-08
4.49678e-08
1.63832e-13
1.00041e-15
1e-15
1e-15
1.0001e-15
5.12606e-14
1.70208e-08
1.72043e-08
1.72035e-08
1.72026e-08
1.72016e-08
1.72006e-08
1.71995e-08
1.71984e-08
1.71974e-08
1.71963e-08
1.71954e-08
1.71945e-08
1.71937e-08
1.70089e-08
5.01044e-14
1.0001e-15
1e-15
1e-15
1.0001e-15
4.79124e-14
1.61201e-08
1.62927e-08
1.62917e-08
1.62906e-08
1.62895e-08
1.62882e-08
1.6287e-08
1.62857e-08
1.62845e-08
1.62833e-08
1.62821e-08
1.6281e-08
1.62799e-08
1.61057e-08
4.69428e-14
1.0001e-15
1e-15
1e-15
1.00006e-15
3.55165e-14
1.36863e-08
1.38303e-08
1.3829e-08
1.38276e-08
1.38261e-08
1.38245e-08
1.38228e-08
1.38211e-08
1.38194e-08
1.38178e-08
1.38162e-08
1.38147e-08
1.38133e-08
1.36673e-08
3.50187e-14
1.00006e-15
1e-15
1e-15
1.00005e-15
2.7567e-14
1.05869e-08
1.06935e-08
1.06923e-08
1.0691e-08
1.06895e-08
1.0688e-08
1.06864e-08
1.06849e-08
1.06833e-08
1.06818e-08
1.06804e-08
1.0679e-08
1.06778e-08
1.05693e-08
2.51306e-14
1.00004e-15
1e-15
1e-15
1.00018e-15
8.85233e-14
3.0222e-08
3.05268e-08
3.05248e-08
3.05225e-08
3.052e-08
3.05173e-08
3.05146e-08
3.05118e-08
3.05092e-08
3.05066e-08
3.05041e-08
3.05019e-08
3.04998e-08
3.01919e-08
8.94994e-14
1.00018e-15
1e-15
1e-15
1.00015e-15
7.73751e-14
2.4526e-08
2.47475e-08
2.47458e-08
2.47439e-08
2.47418e-08
2.47396e-08
2.47373e-08
2.47351e-08
2.47329e-08
2.47309e-08
2.47289e-08
2.47272e-08
2.47257e-08
2.45017e-08
6.69684e-14
1.00013e-15
1e-15
1e-15
1.00076e-15
3.20256e-13
8.80604e-08
8.88353e-08
8.88317e-08
8.88277e-08
8.88232e-08
8.88186e-08
8.88138e-08
8.88091e-08
8.88046e-08
8.88003e-08
8.87963e-08
8.87927e-08
8.87894e-08
8.80092e-08
3.3088e-13
1.00079e-15
1e-15
1e-15
1.00084e-15
3.47461e-13
8.21966e-08
8.28163e-08
8.2813e-08
8.28093e-08
8.28052e-08
8.28008e-08
8.27964e-08
8.2792e-08
8.27877e-08
8.27837e-08
8.278e-08
8.27766e-08
8.27735e-08
8.21488e-08
2.9061e-13
1.00067e-15
1e-15
1e-15
1.00294e-15
1.12743e-12
2.39693e-07
2.4152e-07
2.41515e-07
2.41509e-07
2.41503e-07
2.41496e-07
2.4149e-07
2.41484e-07
2.41478e-07
2.41473e-07
2.41469e-07
2.41465e-07
2.41462e-07
2.3963e-07
1.17951e-12
1.00306e-15
1e-15
1.00058e-15
1.0554e-15
1.60421e-12
2.45826e-07
2.47489e-07
2.47493e-07
2.47488e-07
2.47484e-07
2.47479e-07
2.47474e-07
2.47462e-07
2.47465e-07
2.47461e-07
2.47457e-07
2.47454e-07
2.47445e-07
2.45776e-07
1.39996e-12
1.05454e-15
1.00058e-15
8.09492e-14
5.36678e-13
1.79107e-08
2.92511e-08
2.68607e-08
2.41119e-08
2.4111e-08
2.41101e-08
2.4109e-08
2.41078e-08
2.65884e-08
2.41037e-08
2.41024e-08
2.41012e-08
2.41e-08
2.6849e-08
2.92316e-08
1.7895e-08
5.39102e-13
8.10025e-14
2.46224e-10
1.35253e-08
1.2357e-07
1.48292e-07
1.32088e-07
1.32015e-07
1.32012e-07
1.32008e-07
1.32004e-07
1.32e-07
1.32127e-07
1.31991e-07
1.31987e-07
1.31983e-07
1.31978e-07
1.32045e-07
1.48234e-07
1.23517e-07
1.35091e-08
2.46411e-10
4.2543e-05
0.000120598
0.00015459
0.000154689
0.000154698
0.00015471
0.000154723
0.000154737
0.000154752
0.000154768
0.000154784
0.000154799
0.000154814
0.000154829
0.000154843
0.000154856
0.000154867
0.000154784
0.000120762
4.2611e-05
3.40512e-07
8.93128e-06
1.33737e-05
1.33617e-05
1.33638e-05
1.33661e-05
1.33688e-05
1.33717e-05
1.33748e-05
1.3378e-05
1.33811e-05
1.33842e-05
1.33871e-05
1.33899e-05
1.33925e-05
1.33948e-05
1.33966e-05
1.34118e-05
8.95951e-06
3.40678e-07
1.39013e-08
4.41715e-08
8.62409e-08
9.43035e-08
8.70173e-08
8.70227e-08
8.70291e-08
8.7036e-08
8.70432e-08
8.70506e-08
8.7058e-08
8.70652e-08
8.70721e-08
8.70785e-08
8.70844e-08
8.70896e-08
9.43835e-08
8.63295e-08
4.42435e-08
1.37698e-08
5.61434e-10
1.25363e-10
3.12723e-10
7.29251e-09
5.44359e-09
5.44342e-09
5.44335e-09
5.44329e-09
5.44322e-09
5.44315e-09
5.44308e-09
5.44302e-09
5.44296e-09
5.4429e-09
5.44284e-09
5.44289e-09
7.29138e-09
3.12816e-10
1.25456e-10
5.63147e-10
8.65405e-13
3.81317e-13
1.50654e-12
9.18406e-08
9.26264e-08
9.26254e-08
9.26242e-08
9.26229e-08
9.26215e-08
9.262e-08
9.26185e-08
9.2617e-08
9.26156e-08
9.26143e-08
9.26133e-08
9.26124e-08
9.18256e-08
1.48966e-12
3.81423e-13
8.78213e-13
2.18618e-15
2.36842e-15
3.91148e-13
9.64841e-08
9.74509e-08
9.74497e-08
9.74483e-08
9.74466e-08
9.74449e-08
9.7443e-08
9.74412e-08
9.74393e-08
9.74377e-08
9.74362e-08
9.7435e-08
9.7434e-08
9.64662e-08
4.17866e-13
2.36845e-15
2.21026e-15
1.00188e-15
1.00574e-15
1.6279e-13
4.63209e-08
4.6793e-08
4.67919e-08
4.67906e-08
4.67892e-08
4.67876e-08
4.6786e-08
4.67844e-08
4.67828e-08
4.67812e-08
4.67798e-08
4.67786e-08
4.67775e-08
4.6304e-08
1.5879e-13
1.00574e-15
1.00191e-15
1e-15
1.00042e-15
1.68751e-13
4.84249e-08
4.89481e-08
4.89468e-08
4.89452e-08
4.89435e-08
4.89416e-08
4.89397e-08
4.89377e-08
4.89358e-08
4.89339e-08
4.89322e-08
4.89307e-08
4.89295e-08
4.84044e-08
1.74821e-13
1.00044e-15
1e-15
1e-15
1.00012e-15
6.09692e-14
2.07084e-08
2.09316e-08
2.09307e-08
2.09298e-08
2.09288e-08
2.09277e-08
2.09265e-08
2.09254e-08
2.09242e-08
2.09231e-08
2.0922e-08
2.0921e-08
2.092e-08
2.06954e-08
6.02928e-14
1.00012e-15
1e-15
1e-15
1.00012e-15
5.92553e-14
2.00811e-08
2.02917e-08
2.02907e-08
2.02895e-08
2.02882e-08
2.02869e-08
2.02855e-08
2.02841e-08
2.02827e-08
2.02813e-08
2.02799e-08
2.02786e-08
2.02773e-08
2.00647e-08
5.84266e-14
1.00012e-15
1e-15
1e-15
1.00008e-15
4.69607e-14
1.79496e-08
1.81349e-08
1.81337e-08
1.81323e-08
1.81308e-08
1.81291e-08
1.81274e-08
1.81257e-08
1.8124e-08
1.81222e-08
1.81205e-08
1.81189e-08
1.81173e-08
1.79296e-08
4.69802e-14
1.00008e-15
1e-15
1e-15
1.00007e-15
3.87523e-14
1.47835e-08
1.49309e-08
1.49298e-08
1.49285e-08
1.4927e-08
1.49255e-08
1.49238e-08
1.49222e-08
1.49206e-08
1.49189e-08
1.49173e-08
1.49158e-08
1.49144e-08
1.47648e-08
3.58757e-14
1.00006e-15
1e-15
1e-15
1.00023e-15
1.11737e-13
3.7348e-08
3.77195e-08
3.77178e-08
3.77159e-08
3.77137e-08
3.77114e-08
3.7709e-08
3.77066e-08
3.77041e-08
3.77017e-08
3.76993e-08
3.7697e-08
3.76948e-08
3.73202e-08
1.15417e-13
1.00024e-15
1e-15
1e-15
1.00021e-15
1.05927e-13
3.32894e-08
3.35962e-08
3.35946e-08
3.35928e-08
3.35909e-08
3.35888e-08
3.35866e-08
3.35844e-08
3.35822e-08
3.358e-08
3.35779e-08
3.3576e-08
3.35742e-08
3.32647e-08
9.35597e-14
1.00018e-15
1e-15
1e-15
1.00084e-15
3.58701e-13
9.75796e-08
9.84804e-08
9.84777e-08
9.84745e-08
9.8471e-08
9.84673e-08
9.84634e-08
9.84595e-08
9.84555e-08
9.84517e-08
9.84479e-08
9.84441e-08
9.84405e-08
9.75344e-08
3.8581e-13
1.00092e-15
1e-15
1e-15
1.00092e-15
3.88451e-13
9.42351e-08
9.50416e-08
9.50392e-08
9.50363e-08
9.50332e-08
9.50298e-08
9.50263e-08
9.50228e-08
9.50194e-08
9.5016e-08
9.50127e-08
9.50095e-08
9.50064e-08
9.41952e-08
3.37128e-13
1.00077e-15
1e-15
1e-15
1.00296e-15
1.15363e-12
2.48308e-07
2.50273e-07
2.50269e-07
2.50265e-07
2.50261e-07
2.50256e-07
2.50252e-07
2.50248e-07
2.50243e-07
2.5024e-07
2.50236e-07
2.50233e-07
2.5023e-07
2.4826e-07
1.23053e-12
1.00318e-15
1e-15
1.00084e-15
1.05305e-15
1.63417e-12
2.58948e-07
2.60812e-07
2.60818e-07
2.60814e-07
2.6081e-07
2.60806e-07
2.60802e-07
2.60792e-07
2.60794e-07
2.60791e-07
2.60788e-07
2.60785e-07
2.60773e-07
2.58905e-07
1.44879e-12
1.05238e-15
1.00085e-15
9.88186e-14
5.43374e-13
1.71494e-08
2.75689e-08
2.59098e-08
2.28409e-08
2.28406e-08
2.28403e-08
2.284e-08
2.28398e-08
2.51377e-08
2.28368e-08
2.28364e-08
2.28362e-08
2.28361e-08
2.59e-08
2.75622e-08
1.71422e-08
5.46419e-13
9.89014e-14
3.2758e-10
1.33171e-08
1.26549e-07
1.5141e-07
1.34941e-07
1.34796e-07
1.34793e-07
1.3479e-07
1.34786e-07
1.34783e-07
1.34884e-07
1.34776e-07
1.34772e-07
1.34769e-07
1.34766e-07
1.34906e-07
1.51362e-07
1.26503e-07
1.33115e-08
3.27862e-10
4.21868e-05
0.00010944
0.000140049
0.000140109
0.000140117
0.000140127
0.000140138
0.000140151
0.000140164
0.000140178
0.000140192
0.000140206
0.000140221
0.000140235
0.000140248
0.000140261
0.000140273
0.000140228
0.000109592
4.22732e-05
3.23681e-07
4.83345e-06
8.12537e-06
8.13476e-06
8.13614e-06
8.1377e-06
8.1395e-06
8.14144e-06
8.14351e-06
8.14563e-06
8.14778e-06
8.14988e-06
8.15192e-06
8.15385e-06
8.15564e-06
8.15725e-06
8.15856e-06
8.15132e-06
4.84894e-06
3.2386e-07
3.40952e-09
1.4897e-08
4.73983e-08
5.81242e-08
4.79231e-08
4.79231e-08
4.79235e-08
4.79239e-08
4.79245e-08
4.79251e-08
4.79259e-08
4.79267e-08
4.79276e-08
4.79284e-08
4.79293e-08
4.79304e-08
5.81322e-08
4.74076e-08
1.49028e-08
3.33348e-09
7.42524e-10
7.19454e-11
2.45116e-10
7.73836e-09
5.60541e-09
5.60521e-09
5.60517e-09
5.60513e-09
5.60509e-09
5.60504e-09
5.605e-09
5.60497e-09
5.60493e-09
5.60489e-09
5.60486e-09
5.60498e-09
7.73785e-09
2.45116e-10
7.19442e-11
7.35057e-10
1.05723e-12
3.29798e-13
1.48069e-12
8.65244e-08
8.72863e-08
8.72857e-08
8.7285e-08
8.7284e-08
8.7283e-08
8.72819e-08
8.72808e-08
8.72796e-08
8.72785e-08
8.72774e-08
8.72764e-08
8.72755e-08
8.65126e-08
1.46857e-12
3.29769e-13
1.06132e-12
2.09829e-15
2.40486e-15
3.74883e-13
9.17712e-08
9.2718e-08
9.27172e-08
9.27161e-08
9.27149e-08
9.27135e-08
9.2712e-08
9.27106e-08
9.2709e-08
9.27076e-08
9.27063e-08
9.27052e-08
9.27042e-08
9.17565e-08
3.97298e-13
2.40473e-15
2.11811e-15
1.00094e-15
1.00627e-15
1.6716e-13
4.74319e-08
4.79242e-08
4.79235e-08
4.79225e-08
4.79215e-08
4.79202e-08
4.7919e-08
4.79176e-08
4.79163e-08
4.7915e-08
4.79139e-08
4.79128e-08
4.79117e-08
4.74181e-08
1.64156e-13
1.00627e-15
1.00097e-15
1e-15
1.00043e-15
1.72553e-13
4.95451e-08
5.00839e-08
5.00828e-08
5.00813e-08
5.00798e-08
5.00781e-08
5.00764e-08
5.00746e-08
5.00728e-08
5.0071e-08
5.00695e-08
5.0068e-08
5.00668e-08
4.95264e-08
1.78904e-13
1.00045e-15
1e-15
1e-15
1.00013e-15
6.64698e-14
2.26292e-08
2.28742e-08
2.28734e-08
2.28724e-08
2.28713e-08
2.28702e-08
2.2869e-08
2.28678e-08
2.28666e-08
2.28654e-08
2.28643e-08
2.28632e-08
2.28621e-08
2.26156e-08
6.64283e-14
1.00013e-15
1e-15
1e-15
1.00013e-15
6.59151e-14
2.23697e-08
2.26031e-08
2.2602e-08
2.26007e-08
2.25993e-08
2.25979e-08
2.25964e-08
2.25949e-08
2.25933e-08
2.25918e-08
2.25902e-08
2.25887e-08
2.25872e-08
2.23516e-08
6.57541e-14
1.00013e-15
1e-15
1e-15
1.0001e-15
5.58918e-14
2.10733e-08
2.12916e-08
2.12904e-08
2.1289e-08
2.12874e-08
2.12858e-08
2.1284e-08
2.12822e-08
2.12804e-08
2.12785e-08
2.12766e-08
2.12747e-08
2.12729e-08
2.1052e-08
5.70369e-14
1.00011e-15
1e-15
1e-15
1.00009e-15
4.82305e-14
1.8188e-08
1.83714e-08
1.83704e-08
1.83691e-08
1.83677e-08
1.83662e-08
1.83647e-08
1.8363e-08
1.83614e-08
1.83597e-08
1.8358e-08
1.83564e-08
1.83548e-08
1.81692e-08
4.59129e-14
1.00008e-15
1e-15
1e-15
1.00026e-15
1.27756e-13
4.22362e-08
4.26663e-08
4.26646e-08
4.26626e-08
4.26605e-08
4.26581e-08
4.26557e-08
4.26531e-08
4.26506e-08
4.2648e-08
4.26454e-08
4.26429e-08
4.26404e-08
4.22068e-08
1.35894e-13
1.00029e-15
1e-15
1e-15
1.00025e-15
1.23064e-13
3.85148e-08
3.88808e-08
3.88794e-08
3.88777e-08
3.88758e-08
3.88738e-08
3.88717e-08
3.88695e-08
3.88673e-08
3.8865e-08
3.88628e-08
3.88607e-08
3.88586e-08
3.84896e-08
1.12543e-13
1.00023e-15
1e-15
1e-15
1.00087e-15
3.72744e-13
1.00554e-07
1.01522e-07
1.0152e-07
1.01517e-07
1.01515e-07
1.01512e-07
1.01509e-07
1.01506e-07
1.01503e-07
1.01499e-07
1.01496e-07
1.01493e-07
1.01489e-07
1.00516e-07
4.09839e-13
1.00098e-15
1e-15
1e-15
1.00094e-15
3.99688e-13
9.77894e-08
9.86829e-08
9.8681e-08
9.86789e-08
9.86766e-08
9.8674e-08
9.86714e-08
9.86688e-08
9.86661e-08
9.86634e-08
9.86608e-08
9.8658e-08
9.86553e-08
9.77578e-08
3.59339e-13
1.00083e-15
1e-15
1e-15
1.0027e-15
1.04386e-12
2.22804e-07
2.24803e-07
2.24802e-07
2.24801e-07
2.24799e-07
2.24797e-07
2.24796e-07
2.24794e-07
2.24792e-07
2.2479e-07
2.24788e-07
2.24786e-07
2.24783e-07
2.22779e-07
1.15351e-12
1.00308e-15
1e-15
1.00044e-15
1.04865e-15
1.34037e-12
2.29911e-07
2.31852e-07
2.31858e-07
2.31857e-07
2.31855e-07
2.31854e-07
2.31853e-07
2.31847e-07
2.31849e-07
2.31848e-07
2.31846e-07
2.31844e-07
2.31834e-07
2.2989e-07
1.24038e-12
1.04835e-15
1.00044e-15
5.506e-14
4.18672e-13
1.46938e-08
2.19945e-08
2.12929e-08
1.80015e-08
1.80014e-08
1.80013e-08
1.80012e-08
1.80011e-08
1.99839e-08
1.79987e-08
1.79986e-08
1.79987e-08
1.79988e-08
2.12853e-08
2.19918e-08
1.46983e-08
4.25616e-13
5.51239e-14
1.78793e-10
1.25553e-08
9.6274e-08
1.14703e-07
1.01706e-07
1.01577e-07
1.01578e-07
1.01579e-07
1.01581e-07
1.01583e-07
1.01651e-07
1.01587e-07
1.0159e-07
1.01593e-07
1.01596e-07
1.0173e-07
1.14736e-07
9.63045e-08
1.25616e-08
1.79e-10
2.72365e-05
8.27099e-05
0.000107874
0.000107971
0.000107977
0.000107983
0.000107991
0.000108
0.00010801
0.00010802
0.000108031
0.000108042
0.000108053
0.000108064
0.000108075
0.000108086
0.000108095
0.00010801
8.28254e-05
2.72795e-05
3.01738e-07
5.00864e-06
8.21893e-06
8.21764e-06
8.21884e-06
8.2202e-06
8.22176e-06
8.22347e-06
8.22528e-06
8.22716e-06
8.22906e-06
8.23094e-06
8.23278e-06
8.23452e-06
8.23614e-06
8.2376e-06
8.2388e-06
8.24204e-06
5.02609e-06
3.02016e-07
6.32219e-10
2.92433e-08
6.84668e-08
7.91438e-08
6.90032e-08
6.90057e-08
6.90089e-08
6.90125e-08
6.90163e-08
6.90202e-08
6.90243e-08
6.90282e-08
6.90322e-08
6.90358e-08
6.90393e-08
6.90426e-08
7.91884e-08
6.85158e-08
2.92822e-08
6.32219e-10
3.37364e-12
1.04567e-10
3.02997e-10
8.15853e-09
5.817e-09
5.81679e-09
5.81677e-09
5.81676e-09
5.81675e-09
5.81674e-09
5.81673e-09
5.81672e-09
5.81672e-09
5.81671e-09
5.8167e-09
5.81689e-09
8.15848e-09
3.03055e-10
1.04616e-10
3.38329e-12
8.35527e-15
3.92523e-13
1.6165e-12
8.86249e-08
8.94329e-08
8.94327e-08
8.94324e-08
8.94319e-08
8.94314e-08
8.94307e-08
8.943e-08
8.94292e-08
8.94285e-08
8.94276e-08
8.94268e-08
8.94258e-08
8.86171e-08
1.60768e-12
3.92576e-13
8.32995e-15
1.02628e-15
2.5286e-15
3.7574e-13
9.26038e-08
9.35854e-08
9.35853e-08
9.35849e-08
9.35843e-08
9.35837e-08
9.35829e-08
9.35821e-08
9.35812e-08
9.35804e-08
9.35795e-08
9.35787e-08
9.35776e-08
9.25952e-08
3.95291e-13
2.52861e-15
1.02618e-15
1.0001e-15
1.00646e-15
1.71273e-13
4.96003e-08
5.01314e-08
5.01318e-08
5.01321e-08
5.01323e-08
5.01324e-08
5.01325e-08