/*--------------------------------*- C++ -*----------------------------------*\
| =========                 |                                                 |
| \\      /  F ield         | OpenFOAM: The Open Source CFD Toolbox           |
|  \\    /   O peration     | Version:  2212                                  |
|   \\  /    A nd           | Website:  www.openfoam.com                      |
|    \\/     M anipulation  |                                                 |
\*---------------------------------------------------------------------------*/
FoamFile
{
    version     2.0;
    format      ascii;
    arch        "LSB;label=32;scalar=64";
    class       volScalarField;
    location    "0.251";
    object      k_0;
}
// * * * * * * * * * * * * * * * * * * * * * * * * * * * * * * * * * * * * * //

dimensions      [0 2 -2 0 0 0 0];

internalField   nonuniform List<scalar> 
24240
(
8.50334e-06
2.11913e-05
2.69488e-05
2.6918e-05
2.69194e-05
2.69212e-05
2.69231e-05
2.69252e-05
2.69272e-05
2.69292e-05
2.69312e-05
2.6933e-05
2.69346e-05
2.6936e-05
2.69371e-05
2.69381e-05
2.69389e-05
2.69713e-05
2.12084e-05
8.50712e-06
5.18862e-08
1.60057e-07
1.21391e-07
1.30861e-07
1.24372e-07
1.24373e-07
1.24373e-07
1.24373e-07
1.24372e-07
1.24371e-07
1.24369e-07
1.24367e-07
1.24364e-07
1.24361e-07
1.24358e-07
1.24354e-07
1.30828e-07
1.21365e-07
1.60299e-07
5.19874e-08
7.56158e-11
2.67192e-10
1.61683e-10
9.7181e-09
7.92031e-09
7.91961e-09
7.91885e-09
7.918e-09
7.91707e-09
7.91609e-09
7.91507e-09
7.91403e-09
7.91298e-09
7.91195e-09
7.91095e-09
7.91004e-09
9.7036e-09
1.6164e-10
2.67648e-10
7.58012e-11
9.17141e-14
1.30563e-13
3.69843e-13
1.92207e-08
1.93548e-08
1.93545e-08
1.93541e-08
1.93538e-08
1.93535e-08
1.93531e-08
1.93528e-08
1.93525e-08
1.93523e-08
1.93521e-08
1.9352e-08
1.93519e-08
1.92176e-08
3.58795e-13
1.30664e-13
9.20149e-14
1.12948e-15
1.17707e-15
1.20723e-13
2.08739e-08
2.10662e-08
2.1066e-08
2.10659e-08
2.10657e-08
2.10656e-08
2.10654e-08
2.10653e-08
2.10652e-08
2.10652e-08
2.10652e-08
2.10652e-08
2.10653e-08
2.0873e-08
1.27667e-13
1.17708e-15
1.13005e-15
1.00024e-15
1.00059e-15
3.15049e-14
5.84117e-09
5.89928e-09
5.89907e-09
5.89884e-09
5.89859e-09
5.89834e-09
5.89809e-09
5.89785e-09
5.89763e-09
5.89743e-09
5.89725e-09
5.89711e-09
5.89699e-09
5.83865e-09
3.00168e-14
1.00059e-15
1.00024e-15
1e-15
1.00013e-15
4.30278e-14
8.40764e-09
8.51298e-09
8.51265e-09
8.51228e-09
8.51189e-09
8.51149e-09
8.51109e-09
8.51072e-09
8.51036e-09
8.51004e-09
8.50976e-09
8.50951e-09
8.50932e-09
8.4036e-09
4.39909e-14
1.00013e-15
1e-15
1e-15
1.00002e-15
9.16816e-15
1.79115e-09
1.81405e-09
1.81403e-09
1.814e-09
1.81398e-09
1.81396e-09
1.81394e-09
1.81392e-09
1.8139e-09
1.81389e-09
1.81387e-09
1.81386e-09
1.81384e-09
1.7909e-09
8.88098e-15
1.00002e-15
1e-15
1e-15
1.00002e-15
9.16055e-15
1.80105e-09
1.82638e-09
1.82637e-09
1.82636e-09
1.82635e-09
1.82635e-09
1.82634e-09
1.82634e-09
1.82633e-09
1.82632e-09
1.82631e-09
1.82629e-09
1.82627e-09
1.80091e-09
9.03635e-15
1.00002e-15
1e-15
1e-15
1.00001e-15
4.80481e-15
9.62537e-10
9.74571e-10
9.74343e-10
9.74086e-10
9.7381e-10
9.73522e-10
9.7323e-10
9.72941e-10
9.72663e-10
9.724e-10
9.72158e-10
9.71938e-10
9.71744e-10
9.5939e-10
4.62227e-15
1.00001e-15
1e-15
1e-15
1e-15
2.6936e-15
4.39715e-10
4.44611e-10
4.44507e-10
4.4439e-10
4.44264e-10
4.44132e-10
4.43999e-10
4.43867e-10
4.43739e-10
4.43618e-10
4.43507e-10
4.43406e-10
4.43317e-10
4.38275e-10
2.50417e-15
1e-15
1e-15
1e-15
1.00002e-15
1.09706e-14
2.34455e-09
2.37024e-09
2.36989e-09
2.36951e-09
2.36909e-09
2.36866e-09
2.36823e-09
2.3678e-09
2.36739e-09
2.36701e-09
2.36666e-09
2.36636e-09
2.36609e-09
2.33995e-09
1.0651e-14
1.00002e-15
1e-15
1e-15
1.00001e-15
6.03208e-15
1.10423e-09
1.11457e-09
1.11444e-09
1.1143e-09
1.11415e-09
1.11399e-09
1.11384e-09
1.11368e-09
1.11353e-09
1.1134e-09
1.11327e-09
1.11317e-09
1.11308e-09
1.10258e-09
5.24456e-15
1.00001e-15
1e-15
1e-15
1.00014e-15
5.12706e-14
9.87854e-09
9.96206e-09
9.9614e-09
9.96066e-09
9.95989e-09
9.95911e-09
9.95834e-09
9.9576e-09
9.95693e-09
9.95634e-09
9.95585e-09
9.95546e-09
9.95519e-09
9.871e-09
4.99453e-14
1.00014e-15
1e-15
1e-15
1.00011e-15
3.93771e-14
6.6752e-09
6.72207e-09
6.72172e-09
6.72132e-09
6.72091e-09
6.72049e-09
6.72008e-09
6.7197e-09
6.71936e-09
6.71906e-09
6.71883e-09
6.71865e-09
6.71855e-09
6.67135e-09
3.22576e-14
1.00008e-15
1e-15
1e-15
1.00137e-15
3.7706e-13
6.25282e-08
6.29039e-08
6.29031e-08
6.29023e-08
6.29015e-08
6.29007e-08
6.29001e-08
6.28997e-08
6.28992e-08
6.28991e-08
6.28991e-08
6.28995e-08
6.29e-08
6.25244e-08
3.60419e-13
1.0013e-15
1e-15
1.00271e-15
1.0521e-15
9.41265e-13
6.78e-08
6.81397e-08
6.81465e-08
6.81456e-08
6.81447e-08
6.81438e-08
6.8143e-08
6.81342e-08
6.81415e-08
6.81412e-08
6.81412e-08
6.81414e-08
6.81341e-08
6.77942e-08
8.33108e-13
1.05132e-15
1.00271e-15
2.54986e-13
8.02639e-13
2.5046e-08
4.09453e-08
3.7733e-08
3.39786e-08
3.39751e-08
3.3971e-08
3.39666e-08
3.39618e-08
3.7408e-08
3.39504e-08
3.39449e-08
3.39396e-08
3.39344e-08
3.76766e-08
4.08695e-08
2.49892e-08
7.96132e-13
2.54864e-13
8.50743e-10
1.24085e-08
1.94337e-07
2.35698e-07
2.11475e-07
2.10891e-07
2.10865e-07
2.10835e-07
2.10802e-07
2.10766e-07
2.11421e-07
2.10691e-07
2.10651e-07
2.1061e-07
2.1057e-07
2.11094e-07
2.35203e-07
1.93879e-07
1.23696e-08
8.503e-10
8.07367e-05
0.000138751
0.000171231
0.000171259
0.000171259
0.000171263
0.000171266
0.000171269
0.000171273
0.000171276
0.000171278
0.00017128
0.000171282
0.000171283
0.000171283
0.000171283
0.000171286
0.000171259
0.00013877
8.07274e-05
3.72578e-06
2.1244e-05
2.77076e-05
2.7677e-05
2.76792e-05
2.76818e-05
2.76847e-05
2.76877e-05
2.76909e-05
2.7694e-05
2.76971e-05
2.76999e-05
2.77026e-05
2.7705e-05
2.77071e-05
2.77088e-05
2.77102e-05
2.77436e-05
2.12728e-05
3.73592e-06
7.07379e-08
9.64683e-07
1.63005e-07
1.7088e-07
1.64921e-07
1.64928e-07
1.64936e-07
1.64943e-07
1.64951e-07
1.64958e-07
1.64965e-07
1.64971e-07
1.64976e-07
1.6498e-07
1.64983e-07
1.64985e-07
1.70947e-07
1.63078e-07
9.66755e-07
7.08939e-08
1.6189e-10
1.22117e-08
3.17989e-10
7.46182e-09
6.01327e-09
6.01309e-09
6.01294e-09
6.01278e-09
6.01261e-09
6.01243e-09
6.01225e-09
6.01206e-09
6.01188e-09
6.0117e-09
6.01153e-09
6.01139e-09
7.45875e-09
3.18013e-10
1.22395e-08
1.6233e-10
2.67593e-13
1.30214e-12
8.55855e-13
5.48257e-08
5.52421e-08
5.5241e-08
5.52399e-08
5.52386e-08
5.52374e-08
5.52361e-08
5.5235e-08
5.52339e-08
5.52329e-08
5.52321e-08
5.52315e-08
5.5231e-08
5.48137e-08
8.35832e-13
1.3049e-12
2.68541e-13
1.46032e-15
1.68547e-15
2.93628e-13
5.93562e-08
5.99093e-08
5.99086e-08
5.99078e-08
5.99069e-08
5.9906e-08
5.99052e-08
5.99044e-08
5.99036e-08
5.9903e-08
5.99024e-08
5.99021e-08
5.9902e-08
5.93485e-08
3.13781e-13
1.68593e-15
1.46228e-15
1.00088e-15
1.00178e-15
9.29578e-14
1.99771e-08
2.01743e-08
2.01736e-08
2.01728e-08
2.01719e-08
2.01709e-08
2.017e-08
2.01691e-08
2.01683e-08
2.01675e-08
2.01669e-08
2.01663e-08
2.01659e-08
1.99678e-08
8.80971e-14
1.00177e-15
1.00088e-15
1e-15
1.0003e-15
1.10346e-13
2.46455e-08
2.4937e-08
2.49357e-08
2.49343e-08
2.49328e-08
2.49312e-08
2.49296e-08
2.49281e-08
2.49266e-08
2.49253e-08
2.49241e-08
2.4923e-08
2.49222e-08
2.4629e-08
1.13267e-13
1.00031e-15
1e-15
1e-15
1.00006e-15
2.60407e-14
6.32081e-09
6.39792e-09
6.39773e-09
6.39753e-09
6.39731e-09
6.39708e-09
6.39687e-09
6.39665e-09
6.39645e-09
6.39626e-09
6.39608e-09
6.39592e-09
6.39577e-09
6.3184e-09
2.5028e-14
1.00005e-15
1e-15
1e-15
1.00005e-15
2.42474e-14
5.94074e-09
6.01831e-09
6.01814e-09
6.01795e-09
6.01775e-09
6.01754e-09
6.01734e-09
6.01714e-09
6.01695e-09
6.01676e-09
6.01657e-09
6.01639e-09
6.01622e-09
5.93836e-09
2.37116e-14
1.00005e-15
1e-15
1e-15
1.00003e-15
1.36011e-14
3.68756e-09
3.73137e-09
3.73068e-09
3.72991e-09
3.72907e-09
3.7282e-09
3.72731e-09
3.72643e-09
3.72558e-09
3.72477e-09
3.72402e-09
3.72333e-09
3.72272e-09
3.67791e-09
1.30251e-14
1.00002e-15
1e-15
1e-15
1.00001e-15
7.76847e-15
2.03407e-09
2.05609e-09
2.05567e-09
2.05519e-09
2.05467e-09
2.05412e-09
2.05357e-09
2.05302e-09
2.05249e-09
2.05199e-09
2.05153e-09
2.05111e-09
2.05073e-09
2.02809e-09
6.99445e-15
1.00001e-15
1e-15
1e-15
1.00007e-15
3.33607e-14
8.65391e-09
8.7458e-09
8.74464e-09
8.74333e-09
8.74192e-09
8.74045e-09
8.73897e-09
8.73751e-09
8.7361e-09
8.73478e-09
8.73358e-09
8.73249e-09
8.73156e-09
8.63808e-09
3.24451e-14
1.00007e-15
1e-15
1e-15
1.00004e-15
2.03511e-14
4.85097e-09
4.89552e-09
4.89499e-09
4.89438e-09
4.89374e-09
4.89307e-09
4.8924e-09
4.89173e-09
4.8911e-09
4.89052e-09
4.88999e-09
4.88953e-09
4.88914e-09
4.84389e-09
1.7222e-14
1.00003e-15
1e-15
1e-15
1.00039e-15
1.48948e-13
3.31954e-08
3.347e-08
3.34677e-08
3.34652e-08
3.34625e-08
3.34598e-08
3.34571e-08
3.34545e-08
3.34521e-08
3.34501e-08
3.34483e-08
3.34469e-08
3.34458e-08
3.31689e-08
1.46619e-13
1.00038e-15
1e-15
1e-15
1.00034e-15
1.28482e-13
2.48934e-08
2.50652e-08
2.50637e-08
2.5062e-08
2.50602e-08
2.50584e-08
2.50566e-08
2.50549e-08
2.50534e-08
2.50521e-08
2.5051e-08
2.50502e-08
2.50496e-08
2.48763e-08
1.03909e-13
1.00026e-15
1e-15
1e-15
1.00234e-15
8.61803e-13
1.62133e-07
1.6317e-07
1.63167e-07
1.63165e-07
1.63163e-07
1.6316e-07
1.63158e-07
1.63157e-07
1.63155e-07
1.63154e-07
1.63153e-07
1.63153e-07
1.63155e-07
1.62116e-07
8.59826e-13
1.00232e-15
1e-15
1.00219e-15
1.05624e-15
1.31457e-12
1.74135e-07
1.75089e-07
1.75126e-07
1.75123e-07
1.75121e-07
1.75118e-07
1.75116e-07
1.75083e-07
1.7511e-07
1.75109e-07
1.75108e-07
1.75108e-07
1.75068e-07
1.74113e-07
1.13394e-12
1.05528e-15
1.00219e-15
2.25445e-13
8.12393e-13
2.43158e-08
4.05727e-08
3.81819e-08
3.37954e-08
3.37928e-08
3.379e-08
3.37868e-08
3.37835e-08
3.71748e-08
3.37742e-08
3.37704e-08
3.37667e-08
3.37631e-08
3.81372e-08
4.0519e-08
2.42872e-08
8.0766e-13
2.25461e-13
7.71037e-10
1.3466e-08
1.81947e-07
2.18885e-07
1.95838e-07
1.95395e-07
1.95382e-07
1.95366e-07
1.95349e-07
1.9533e-07
1.95564e-07
1.95292e-07
1.95271e-07
1.95251e-07
1.95231e-07
1.95642e-07
2.18626e-07
1.81699e-07
1.34326e-08
7.71039e-10
8.06216e-05
0.000170828
0.000214716
0.000214848
0.000214856
0.000214868
0.000214881
0.000214895
0.00021491
0.000214924
0.000214938
0.000214951
0.000214964
0.000214975
0.000214984
0.000214992
0.000215001
0.000214882
0.000170967
8.06535e-05
7.35617e-07
1.86873e-05
2.68394e-05
2.68322e-05
2.68367e-05
2.68418e-05
2.68475e-05
2.68537e-05
2.68602e-05
2.68667e-05
2.68731e-05
2.68792e-05
2.6885e-05
2.68903e-05
2.6895e-05
2.68991e-05
2.69025e-05
2.69157e-05
1.87505e-05
7.37384e-07
4.56965e-08
1.76209e-06
1.05858e-08
1.53482e-08
1.06404e-08
1.06417e-08
1.06434e-08
1.06454e-08
1.06477e-08
1.06503e-08
1.06531e-08
1.06561e-08
1.06592e-08
1.06624e-08
1.06655e-08
1.06685e-08
1.53863e-08
1.06176e-08
1.76613e-06
4.57795e-08
5.63627e-11
2.43565e-07
1.14774e-10
6.28286e-09
4.78993e-09
4.78976e-09
4.78965e-09
4.78954e-09
4.78941e-09
4.78928e-09
4.78915e-09
4.78902e-09
4.7889e-09
4.78878e-09
4.78866e-09
4.78861e-09
6.2805e-09
1.14782e-10
2.44123e-07
5.71536e-11
1.36787e-13
3.84279e-12
7.49079e-13
7.91452e-08
7.98079e-08
7.98065e-08
7.98048e-08
7.98031e-08
7.98012e-08
7.97994e-08
7.97975e-08
7.97958e-08
7.97942e-08
7.97927e-08
7.97916e-08
7.97907e-08
7.91266e-08
7.25545e-13
3.85209e-12
1.38706e-13
1.36175e-15
1.68005e-15
3.6053e-13
8.50968e-08
8.5924e-08
8.59225e-08
8.59207e-08
8.59188e-08
8.59167e-08
8.59146e-08
8.59125e-08
8.59105e-08
8.59088e-08
8.59072e-08
8.59059e-08
8.5905e-08
8.50764e-08
3.85663e-13
1.68079e-15
1.36581e-15
1.00096e-15
1.00248e-15
1.37352e-13
3.67256e-08
3.70884e-08
3.70869e-08
3.70853e-08
3.70835e-08
3.70817e-08
3.70798e-08
3.70779e-08
3.70761e-08
3.70744e-08
3.70729e-08
3.70716e-08
3.70707e-08
3.67062e-08
1.31578e-13
1.00247e-15
1.00097e-15
1e-15
1.00036e-15
1.45246e-13
3.95732e-08
4.00092e-08
4.00076e-08
4.00058e-08
4.00038e-08
4.00017e-08
3.99996e-08
3.99975e-08
3.99955e-08
3.99935e-08
3.99918e-08
3.99903e-08
3.9989e-08
3.95509e-08
1.49575e-13
1.00038e-15
1e-15
1e-15
1.00009e-15
4.30081e-14
1.37296e-08
1.3881e-08
1.38803e-08
1.38795e-08
1.38787e-08
1.38779e-08
1.3877e-08
1.38761e-08
1.38753e-08
1.38744e-08
1.38737e-08
1.3873e-08
1.38724e-08
1.37199e-08
4.1752e-14
1.00008e-15
1e-15
1e-15
1.00008e-15
4.02166e-14
1.29767e-08
1.31212e-08
1.31205e-08
1.31196e-08
1.31187e-08
1.31177e-08
1.31167e-08
1.31157e-08
1.31147e-08
1.31138e-08
1.31129e-08
1.31121e-08
1.31113e-08
1.29655e-08
3.92e-14
1.00008e-15
1e-15
1e-15
1.00005e-15
2.66377e-14
1.00525e-08
1.01641e-08
1.01629e-08
1.01616e-08
1.01601e-08
1.01586e-08
1.0157e-08
1.01554e-08
1.01539e-08
1.01524e-08
1.01511e-08
1.01498e-08
1.01486e-08
1.00351e-08
2.57948e-14
1.00004e-15
1e-15
1e-15
1.00003e-15
1.80605e-14
6.77213e-09
6.84283e-09
6.84158e-09
6.84018e-09
6.83867e-09
6.83708e-09
6.83547e-09
6.83387e-09
6.83231e-09
6.83084e-09
6.82947e-09
6.82822e-09
6.82712e-09
6.75461e-09
1.61986e-14
1.00003e-15
1e-15
1e-15
1.00013e-15
6.495e-14
2.18158e-08
2.20384e-08
2.20366e-08
2.20346e-08
2.20324e-08
2.20301e-08
2.20278e-08
2.20255e-08
2.20232e-08
2.20211e-08
2.20192e-08
2.20174e-08
2.20159e-08
2.17907e-08
6.41075e-14
1.00013e-15
1e-15
1e-15
1.00009e-15
4.85619e-14
1.53311e-08
1.54693e-08
1.54676e-08
1.54658e-08
1.54638e-08
1.54617e-08
1.54596e-08
1.54575e-08
1.54555e-08
1.54537e-08
1.5452e-08
1.54505e-08
1.54493e-08
1.5309e-08
4.1246e-14
1.00008e-15
1e-15
1e-15
1.00062e-15
2.6265e-13
7.13614e-08
7.19723e-08
7.1969e-08
7.19653e-08
7.19613e-08
7.19571e-08
7.1953e-08
7.19489e-08
7.1945e-08
7.19415e-08
7.19383e-08
7.19356e-08
7.19333e-08
7.13182e-08
2.63728e-13
1.00062e-15
1e-15
1e-15
1.00063e-15
2.62865e-13
6.3192e-08
6.36458e-08
6.36423e-08
6.36383e-08
6.3634e-08
6.36296e-08
6.36253e-08
6.3621e-08
6.36171e-08
6.36135e-08
6.36104e-08
6.36078e-08
6.36057e-08
6.31478e-08
2.14837e-13
1.00049e-15
1e-15
1e-15
1.00275e-15
1.05421e-12
2.21421e-07
2.23021e-07
2.23017e-07
2.23012e-07
2.23007e-07
2.23002e-07
2.22997e-07
2.22993e-07
2.22988e-07
2.22985e-07
2.22982e-07
2.22979e-07
2.22978e-07
2.21374e-07
1.08007e-12
1.00278e-15
1e-15
1.00084e-15
1.05611e-15
1.54965e-12
2.32326e-07
2.33808e-07
2.33845e-07
2.33841e-07
2.33837e-07
2.33832e-07
2.33828e-07
2.33795e-07
2.3382e-07
2.33816e-07
2.33814e-07
2.33812e-07
2.3377e-07
2.32284e-07
1.34528e-12
1.05515e-15
1.00084e-15
1.1702e-13
6.47755e-13
1.90755e-08
3.43777e-08
3.33334e-08
2.90096e-08
2.90095e-08
2.90094e-08
2.90093e-08
2.90093e-08
3.17081e-08
2.90064e-08
2.90063e-08
2.90064e-08
2.90065e-08
3.33249e-08
3.43739e-08
1.90666e-08
6.47577e-13
1.1718e-13
4.19104e-10
1.35914e-08
1.33767e-07
1.58758e-07
1.41227e-07
1.40805e-07
1.40808e-07
1.40811e-07
1.40815e-07
1.4082e-07
1.40947e-07
1.4083e-07
1.40837e-07
1.40843e-07
1.40849e-07
1.41277e-07
1.58818e-07
1.33817e-07
1.35653e-08
4.19667e-10
6.58977e-05
0.000179458
0.000227107
0.000227265
0.000227278
0.000227294
0.000227312
0.000227331
0.000227351
0.000227372
0.000227391
0.00022741
0.000227428
0.000227444
0.000227458
0.000227471
0.000227483
0.000227343
0.000179657
6.60416e-05
3.64946e-07
9.17417e-06
1.41055e-05
1.41091e-05
1.41116e-05
1.41144e-05
1.41176e-05
1.41211e-05
1.41248e-05
1.41285e-05
1.41321e-05
1.41357e-05
1.41391e-05
1.41422e-05
1.41451e-05
1.41476e-05
1.41496e-05
1.41496e-05
9.20861e-06
3.65216e-07
4.24176e-08
2.30967e-08
7.3114e-08
7.95443e-08
7.36899e-08
7.36948e-08
7.37003e-08
7.37064e-08
7.37128e-08
7.37193e-08
7.37258e-08
7.37321e-08
7.37382e-08
7.37438e-08
7.3749e-08
7.37536e-08
7.96134e-08
7.31936e-08
2.30987e-08
4.24307e-08
2.0676e-10
9.8638e-11
2.56021e-10
6.76687e-09
5.16861e-09
5.16844e-09
5.16835e-09
5.16826e-09
5.16816e-09
5.16806e-09
5.16796e-09
5.16786e-09
5.16777e-09
5.16768e-09
5.16759e-09
5.16758e-09
6.76504e-09
2.56103e-10
9.8695e-11
2.09563e-10
4.62534e-13
2.89345e-13
1.27624e-12
8.4799e-08
8.55121e-08
8.5511e-08
8.55096e-08
8.55081e-08
8.55065e-08
8.55048e-08
8.55031e-08
8.55015e-08
8.55e-08
8.54987e-08
8.54976e-08
8.54967e-08
8.47822e-08
1.25572e-12
2.89406e-13
4.69342e-13
1.91625e-15
2.10651e-15
3.80361e-13
9.18106e-08
9.27234e-08
9.27217e-08
9.27198e-08
9.27176e-08
9.27153e-08
9.2713e-08
9.27106e-08
9.27084e-08
9.27063e-08
9.27045e-08
9.2703e-08
9.27019e-08
9.17876e-08
4.07173e-13
2.10657e-15
1.92899e-15
1.00203e-15
1.00468e-15
1.53748e-13
4.26235e-08
4.30465e-08
4.3045e-08
4.30432e-08
4.30413e-08
4.30393e-08
4.30372e-08
4.30351e-08
4.30331e-08
4.30312e-08
4.30295e-08
4.30281e-08
4.3027e-08
4.26022e-08
1.48625e-13
1.00467e-15
1.00205e-15
1e-15
1.00039e-15
1.58536e-13
4.49488e-08
4.54375e-08
4.54357e-08
4.54338e-08
4.54317e-08
4.54294e-08
4.54271e-08
4.54248e-08
4.54225e-08
4.54204e-08
4.54185e-08
4.54167e-08
4.54153e-08
4.49244e-08
1.63606e-13
1.00041e-15
1e-15
1e-15
1.0001e-15
5.11677e-14
1.6997e-08
1.71803e-08
1.71795e-08
1.71786e-08
1.71776e-08
1.71765e-08
1.71755e-08
1.71744e-08
1.71733e-08
1.71723e-08
1.71714e-08
1.71705e-08
1.71697e-08
1.69851e-08
5.00141e-14
1.0001e-15
1e-15
1e-15
1.0001e-15
4.78264e-14
1.60978e-08
1.62702e-08
1.62692e-08
1.62681e-08
1.6267e-08
1.62657e-08
1.62645e-08
1.62632e-08
1.6262e-08
1.62608e-08
1.62596e-08
1.62585e-08
1.62574e-08
1.60834e-08
4.6859e-14
1.0001e-15
1e-15
1e-15
1.00006e-15
3.54409e-14
1.36634e-08
1.38071e-08
1.38059e-08
1.38045e-08
1.3803e-08
1.38013e-08
1.37996e-08
1.3798e-08
1.37963e-08
1.37947e-08
1.37931e-08
1.37916e-08
1.37902e-08
1.36444e-08
3.49411e-14
1.00006e-15
1e-15
1e-15
1.00005e-15
2.75008e-14
1.05668e-08
1.06732e-08
1.0672e-08
1.06707e-08
1.06693e-08
1.06678e-08
1.06662e-08
1.06646e-08
1.06631e-08
1.06616e-08
1.06601e-08
1.06588e-08
1.06575e-08
1.05493e-08
2.50697e-14
1.00004e-15
1e-15
1e-15
1.00018e-15
8.83554e-14
3.01784e-08
3.04828e-08
3.04807e-08
3.04784e-08
3.04759e-08
3.04733e-08
3.04705e-08
3.04678e-08
3.04651e-08
3.04626e-08
3.04601e-08
3.04579e-08
3.04558e-08
3.01483e-08
8.9319e-14
1.00018e-15
1e-15
1e-15
1.00015e-15
7.72034e-14
2.44845e-08
2.47055e-08
2.47039e-08
2.47019e-08
2.46998e-08
2.46976e-08
2.46954e-08
2.46932e-08
2.4691e-08
2.46889e-08
2.4687e-08
2.46853e-08
2.46838e-08
2.44602e-08
6.68183e-14
1.00013e-15
1e-15
1e-15
1.00076e-15
3.19773e-13
8.79655e-08
8.87395e-08
8.8736e-08
8.87319e-08
8.87275e-08
8.87228e-08
8.87181e-08
8.87134e-08
8.87089e-08
8.87046e-08
8.87006e-08
8.8697e-08
8.86937e-08
8.79143e-08
3.30342e-13
1.00078e-15
1e-15
1e-15
1.00084e-15
3.46887e-13
8.20986e-08
8.27175e-08
8.27143e-08
8.27105e-08
8.27064e-08
8.2702e-08
8.26976e-08
8.26932e-08
8.2689e-08
8.2685e-08
8.26812e-08
8.26779e-08
8.26748e-08
8.20509e-08
2.9012e-13
1.00067e-15
1e-15
1e-15
1.00294e-15
1.12616e-12
2.39518e-07
2.41343e-07
2.41338e-07
2.41333e-07
2.41326e-07
2.4132e-07
2.41314e-07
2.41308e-07
2.41302e-07
2.41297e-07
2.41293e-07
2.41289e-07
2.41286e-07
2.39455e-07
1.17807e-12
1.00305e-15
1e-15
1.00058e-15
1.05537e-15
1.60258e-12
2.45649e-07
2.47312e-07
2.47315e-07
2.47311e-07
2.47306e-07
2.47301e-07
2.47296e-07
2.47285e-07
2.47287e-07
2.47283e-07
2.47279e-07
2.47276e-07
2.47267e-07
2.456e-07
1.39856e-12
1.05451e-15
1.00058e-15
8.08769e-14
5.36422e-13
1.79128e-08
2.92536e-08
2.68632e-08
2.41138e-08
2.41129e-08
2.41119e-08
2.41108e-08
2.41097e-08
2.65906e-08
2.41056e-08
2.41042e-08
2.4103e-08
2.41019e-08
2.68515e-08
2.92341e-08
1.78971e-08
5.38841e-13
8.09302e-14
2.45992e-10
1.3525e-08
1.23574e-07
1.48295e-07
1.32091e-07
1.32017e-07
1.32014e-07
1.3201e-07
1.32006e-07
1.32002e-07
1.3213e-07
1.31994e-07
1.31989e-07
1.31985e-07
1.31981e-07
1.32047e-07
1.48238e-07
1.2352e-07
1.35087e-08
2.46179e-10
4.25429e-05
0.000120571
0.000154552
0.000154651
0.00015466
0.000154672
0.000154685
0.000154699
0.000154714
0.00015473
0.000154745
0.000154761
0.000154776
0.000154791
0.000154805
0.000154818
0.000154829
0.000154746
0.000120735
4.26108e-05
3.40542e-07
8.93156e-06
1.3373e-05
1.3361e-05
1.33631e-05
1.33655e-05
1.33682e-05
1.33711e-05
1.33742e-05
1.33773e-05
1.33804e-05
1.33835e-05
1.33865e-05
1.33893e-05
1.33918e-05
1.33941e-05
1.33959e-05
1.34111e-05
8.95979e-06
3.40708e-07
1.39312e-08
4.41598e-08
8.62188e-08
9.42791e-08
8.69954e-08
8.70009e-08
8.70072e-08
8.70141e-08
8.70213e-08
8.70287e-08
8.70361e-08
8.70432e-08
8.70501e-08
8.70565e-08
8.70624e-08
8.70676e-08
9.43591e-08
8.63073e-08
4.42318e-08
1.37996e-08
5.60927e-10
1.25263e-10
3.12497e-10
7.29145e-09
5.44304e-09
5.44287e-09
5.4428e-09
5.44274e-09
5.44267e-09
5.4426e-09
5.44253e-09
5.44247e-09
5.44241e-09
5.44235e-09
5.44229e-09
5.44234e-09
7.29032e-09
3.12589e-10
1.25356e-10
5.6267e-10
8.62583e-13
3.80804e-13
1.50471e-12
9.17767e-08
9.25619e-08
9.25609e-08
9.25598e-08
9.25584e-08
9.2557e-08
9.25555e-08
9.2554e-08
9.25525e-08
9.25512e-08
9.25499e-08
9.25488e-08
9.25479e-08
9.17617e-08
1.48786e-12
3.8091e-13
8.75398e-13
2.18085e-15
2.36598e-15
3.90701e-13
9.64158e-08
9.73819e-08
9.73807e-08
9.73793e-08
9.73776e-08
9.73758e-08
9.7374e-08
9.73721e-08
9.73703e-08
9.73687e-08
9.73671e-08
9.73659e-08
9.7365e-08
9.63979e-08
4.17383e-13
2.366e-15
2.20486e-15
1.00187e-15
1.00573e-15
1.62565e-13
4.62764e-08
4.6748e-08
4.67469e-08
4.67457e-08
4.67442e-08
4.67427e-08
4.6741e-08
4.67394e-08
4.67378e-08
4.67362e-08
4.67348e-08
4.67336e-08
4.67325e-08
4.62594e-08
1.58572e-13
1.00572e-15
1.00191e-15
1e-15
1.00042e-15
1.68525e-13
4.83797e-08
4.89025e-08
4.89012e-08
4.88996e-08
4.88979e-08
4.8896e-08
4.88941e-08
4.88921e-08
4.88902e-08
4.88883e-08
4.88866e-08
4.88851e-08
4.88838e-08
4.83593e-08
1.74584e-13
1.00044e-15
1e-15
1e-15
1.00012e-15
6.08629e-14
2.0681e-08
2.09039e-08
2.09031e-08
2.09022e-08
2.09011e-08
2.09001e-08
2.08989e-08
2.08978e-08
2.08966e-08
2.08955e-08
2.08944e-08
2.08934e-08
2.08924e-08
2.06681e-08
6.01878e-14
1.00012e-15
1e-15
1e-15
1.00012e-15
5.91523e-14
2.00545e-08
2.02649e-08
2.02638e-08
2.02627e-08
2.02614e-08
2.02601e-08
2.02587e-08
2.02573e-08
2.02559e-08
2.02545e-08
2.02531e-08
2.02518e-08
2.02505e-08
2.00382e-08
5.83254e-14
1.00012e-15
1e-15
1e-15
1.00008e-15
4.68663e-14
1.79217e-08
1.81067e-08
1.81055e-08
1.81042e-08
1.81026e-08
1.8101e-08
1.80993e-08
1.80976e-08
1.80958e-08
1.80941e-08
1.80924e-08
1.80907e-08
1.80891e-08
1.79018e-08
4.68812e-14
1.00008e-15
1e-15
1e-15
1.00007e-15
3.86666e-14
1.47583e-08
1.49056e-08
1.49044e-08
1.49031e-08
1.49016e-08
1.49001e-08
1.48985e-08
1.48968e-08
1.48952e-08
1.48936e-08
1.4892e-08
1.48905e-08
1.4889e-08
1.47397e-08
3.57956e-14
1.00006e-15
1e-15
1e-15
1.00023e-15
1.11542e-13
3.72999e-08
3.7671e-08
3.76693e-08
3.76673e-08
3.76652e-08
3.76629e-08
3.76605e-08
3.7658e-08
3.76556e-08
3.76531e-08
3.76508e-08
3.76485e-08
3.76463e-08
3.72721e-08
1.15201e-13
1.00024e-15
1e-15
1e-15
1.00021e-15
1.0572e-13
3.32417e-08
3.3548e-08
3.35465e-08
3.35447e-08
3.35427e-08
3.35406e-08
3.35385e-08
3.35362e-08
3.3534e-08
3.35319e-08
3.35298e-08
3.35279e-08
3.35261e-08
3.3217e-08
9.33745e-14
1.00018e-15
1e-15
1e-15
1.00084e-15
3.58207e-13
9.74889e-08
9.83888e-08
9.83861e-08
9.83829e-08
9.83794e-08
9.83757e-08
9.83718e-08
9.83678e-08
9.83639e-08
9.83601e-08
9.83563e-08
9.83525e-08
9.83489e-08
9.74437e-08
3.8524e-13
1.00092e-15
1e-15
1e-15
1.00092e-15
3.87886e-13
9.41432e-08
9.49489e-08
9.49464e-08
9.49435e-08
9.49404e-08
9.4937e-08
9.49336e-08
9.49301e-08
9.49266e-08
9.49232e-08
9.49199e-08
9.49168e-08
9.49137e-08
9.41033e-08
3.36627e-13
1.00077e-15
1e-15
1e-15
1.00296e-15
1.15241e-12
2.48156e-07
2.50119e-07
2.50116e-07
2.50112e-07
2.50108e-07
2.50103e-07
2.50099e-07
2.50094e-07
2.5009e-07
2.50086e-07
2.50083e-07
2.5008e-07
2.50077e-07
2.48108e-07
1.22915e-12
1.00318e-15
1e-15
1.00084e-15
1.05303e-15
1.63262e-12
2.58793e-07
2.60656e-07
2.60662e-07
2.60658e-07
2.60654e-07
2.6065e-07
2.60646e-07
2.60636e-07
2.60638e-07
2.60635e-07
2.60632e-07
2.60629e-07
2.60617e-07
2.5875e-07
1.44742e-12
1.05236e-15
1.00084e-15
9.8786e-14
5.43167e-13
1.71526e-08
2.75716e-08
2.5911e-08
2.28425e-08
2.28422e-08
2.2842e-08
2.28417e-08
2.28414e-08
2.51398e-08
2.28384e-08
2.28381e-08
2.28379e-08
2.28377e-08
2.59012e-08
2.75649e-08
1.71453e-08
5.46208e-13
9.88686e-14
3.27474e-10
1.33175e-08
1.26574e-07
1.5144e-07
1.34968e-07
1.34823e-07
1.3482e-07
1.34817e-07
1.34813e-07
1.3481e-07
1.34912e-07
1.34803e-07
1.34799e-07
1.34796e-07
1.34793e-07
1.34933e-07
1.51392e-07
1.26527e-07
1.33118e-08
3.27755e-10
4.21931e-05
0.000109419
0.000140018
0.000140079
0.000140087
0.000140096
0.000140107
0.00014012
0.000140133
0.000140147
0.000140161
0.000140176
0.00014019
0.000140204
0.000140218
0.00014023
0.000140242
0.000140197
0.000109571
4.22796e-05
3.23714e-07
4.83297e-06
8.12374e-06
8.13313e-06
8.13451e-06
8.13607e-06
8.13786e-06
8.13981e-06
8.14188e-06
8.144e-06
8.14614e-06
8.14825e-06
8.15029e-06
8.15222e-06
8.15401e-06
8.15561e-06
8.15693e-06
8.14968e-06
4.84847e-06
3.23893e-07
3.42045e-09
1.48929e-08
4.73877e-08
5.81114e-08
4.79128e-08
4.79127e-08
4.79131e-08
4.79135e-08
4.79141e-08
4.79147e-08
4.79155e-08
4.79163e-08
4.79172e-08
4.7918e-08
4.79189e-08
4.792e-08
5.81194e-08
4.7397e-08
1.48986e-08
3.34414e-09
7.43775e-10
7.19008e-11
2.44965e-10
7.73753e-09
5.60495e-09
5.60476e-09
5.60471e-09
5.60467e-09
5.60463e-09
5.60459e-09
5.60455e-09
5.60451e-09
5.60447e-09
5.60444e-09
5.6044e-09
5.60452e-09
7.73702e-09
2.44965e-10
7.18995e-11
7.36295e-10
1.05588e-12
3.29435e-13
1.47904e-12
8.64621e-08
8.72235e-08
8.72229e-08
8.72221e-08
8.72212e-08
8.72202e-08
8.7219e-08
8.72179e-08
8.72167e-08
8.72156e-08
8.72145e-08
8.72136e-08
8.72126e-08
8.64504e-08
1.46693e-12
3.29405e-13
1.06002e-12
2.09366e-15
2.40263e-15
3.74459e-13
9.17055e-08
9.26516e-08
9.26508e-08
9.26498e-08
9.26485e-08
9.26472e-08
9.26457e-08
9.26442e-08
9.26427e-08
9.26413e-08
9.26399e-08
9.26388e-08
9.26378e-08
9.16908e-08
3.96846e-13
2.4025e-15
2.11348e-15
1.00093e-15
1.00626e-15
1.66931e-13
4.73869e-08
4.78787e-08
4.7878e-08
4.78771e-08
4.7876e-08
4.78748e-08
4.78735e-08
4.78721e-08
4.78709e-08
4.78696e-08
4.78684e-08
4.78673e-08
4.78662e-08
4.73731e-08
1.63933e-13
1.00625e-15
1.00096e-15
1e-15
1.00043e-15
1.72323e-13
4.94991e-08
5.00374e-08
5.00363e-08
5.00349e-08
5.00334e-08
5.00317e-08
5.00299e-08
5.00281e-08
5.00263e-08
5.00246e-08
5.0023e-08
5.00215e-08
5.00204e-08
4.94804e-08
1.78663e-13
1.00045e-15
1e-15
1e-15
1.00013e-15
6.63563e-14
2.26001e-08
2.28449e-08
2.2844e-08
2.28431e-08
2.2842e-08
2.28409e-08
2.28397e-08
2.28385e-08
2.28373e-08
2.28361e-08
2.28349e-08
2.28338e-08
2.28328e-08
2.25866e-08
6.63147e-14
1.00013e-15
1e-15
1e-15
1.00013e-15
6.58041e-14
2.23413e-08
2.25744e-08
2.25733e-08
2.2572e-08
2.25706e-08
2.25692e-08
2.25677e-08
2.25662e-08
2.25646e-08
2.25631e-08
2.25616e-08
2.25601e-08
2.25585e-08
2.23232e-08
6.56432e-14
1.00013e-15
1e-15
1e-15
1.0001e-15
5.57848e-14
2.10427e-08
2.12607e-08
2.12595e-08
2.12581e-08
2.12565e-08
2.12549e-08
2.12531e-08
2.12513e-08
2.12495e-08
2.12476e-08
2.12457e-08
2.12439e-08
2.1242e-08
2.10215e-08
5.69223e-14
1.00011e-15
1e-15
1e-15
1.00008e-15
4.81307e-14
1.81596e-08
1.83428e-08
1.83417e-08
1.83404e-08
1.83391e-08
1.83376e-08
1.8336e-08
1.83344e-08
1.83327e-08
1.83311e-08
1.83294e-08
1.83277e-08
1.83261e-08
1.81408e-08
4.58174e-14
1.00008e-15
1e-15
1e-15
1.00026e-15
1.27542e-13
4.21851e-08
4.26147e-08
4.26131e-08
4.26111e-08
4.26089e-08
4.26066e-08
4.26041e-08
4.26016e-08
4.25991e-08
4.25965e-08
4.25939e-08
4.25914e-08
4.25889e-08
4.21558e-08
1.35654e-13
1.00029e-15
1e-15
1e-15
1.00025e-15
1.2284e-13
3.84646e-08
3.88302e-08
3.88287e-08
3.8827e-08
3.88252e-08
3.88231e-08
3.8821e-08
3.88188e-08
3.88166e-08
3.88144e-08
3.88122e-08
3.881e-08
3.88079e-08
3.84394e-08
1.12337e-13
1.00023e-15
1e-15
1e-15
1.00087e-15
3.72243e-13
1.00465e-07
1.01432e-07
1.0143e-07
1.01428e-07
1.01425e-07
1.01422e-07
1.01419e-07
1.01416e-07
1.01413e-07
1.0141e-07
1.01406e-07
1.01403e-07
1.014e-07
1.00428e-07
4.09262e-13
1.00098e-15
1e-15
1e-15
1.00094e-15
3.99133e-13
9.77007e-08
9.85932e-08
9.85914e-08
9.85893e-08
9.85869e-08
9.85844e-08
9.85818e-08
9.85791e-08
9.85765e-08
9.85738e-08
9.85711e-08
9.85684e-08
9.85657e-08
9.76691e-08
3.58833e-13
1.00083e-15
1e-15
1e-15
1.00269e-15
1.04279e-12
2.22671e-07
2.24669e-07
2.24668e-07
2.24666e-07
2.24665e-07
2.24663e-07
2.24661e-07
2.24659e-07
2.24657e-07
2.24656e-07
2.24654e-07
2.24651e-07
2.24648e-07
2.22646e-07
1.1523e-12
1.00308e-15
1e-15
1.00044e-15
1.04863e-15
1.33914e-12
2.29774e-07
2.31713e-07
2.31719e-07
2.31718e-07
2.31717e-07
2.31715e-07
2.31714e-07
2.31708e-07
2.3171e-07
2.31709e-07
2.31707e-07
2.31705e-07
2.31695e-07
2.29752e-07
1.23926e-12
1.04833e-15
1.00044e-15
5.50372e-14
4.1852e-13
1.46977e-08
2.19974e-08
2.12959e-08
1.80035e-08
1.80034e-08
1.80033e-08
1.80032e-08
1.80031e-08
1.99863e-08
1.80007e-08
1.80006e-08
1.80007e-08
1.80008e-08
2.12883e-08
2.19948e-08
1.47023e-08
4.25461e-13
5.51009e-14
1.7872e-10
1.25558e-08
9.62973e-08
1.14731e-07
1.01731e-07
1.01602e-07
1.01603e-07
1.01604e-07
1.01606e-07
1.01608e-07
1.01676e-07
1.01612e-07
1.01615e-07
1.01618e-07
1.01621e-07
1.01755e-07
1.14765e-07
9.63278e-08
1.25621e-08
1.78926e-10
2.72362e-05
8.26851e-05
0.00010784
0.000107937
0.000107943
0.000107949
0.000107957
0.000107966
0.000107976
0.000107986
0.000107997
0.000108008
0.000108019
0.00010803
0.000108041
0.000108052
0.000108061
0.000107976
8.28005e-05
2.72791e-05
3.01792e-07
5.00883e-06
8.21834e-06
8.21706e-06
8.21826e-06
8.21962e-06
8.22118e-06
8.22288e-06
8.2247e-06
8.22658e-06
8.22848e-06
8.23036e-06
8.23219e-06
8.23393e-06
8.23556e-06
8.23702e-06
8.23821e-06
8.24145e-06
5.02629e-06
3.0207e-07
6.31747e-10
2.92322e-08
6.84457e-08
7.91214e-08
6.89824e-08
6.89848e-08
6.89881e-08
6.89916e-08
6.89954e-08
6.89994e-08
6.90034e-08
6.90074e-08
6.90113e-08
6.9015e-08
6.90184e-08
6.90218e-08
7.91659e-08
6.84947e-08
2.9271e-08
6.31745e-10
3.36949e-12
1.04491e-10
3.02805e-10
8.15797e-09
5.81666e-09
5.81644e-09
5.81643e-09
5.81642e-09
5.8164e-09
5.81639e-09
5.81639e-09
5.81638e-09
5.81637e-09
5.81636e-09
5.81635e-09
5.81654e-09
8.15792e-09
3.02862e-10
1.0454e-10
3.37915e-12
8.35047e-15
3.92095e-13
1.61481e-12
8.8561e-08
8.93684e-08
8.93682e-08
8.93679e-08
8.93674e-08
8.93669e-08
8.93662e-08
8.93655e-08
8.93647e-08
8.9364e-08
8.93631e-08
8.93623e-08
8.93613e-08
8.85532e-08
1.606e-12
3.92147e-13
8.32507e-15
1.02626e-15
2.52637e-15
3.75315e-13
9.25373e-08
9.35182e-08
9.35181e-08
9.35177e-08
9.35171e-08
9.35165e-08
9.35157e-08
9.35149e-08
9.3514e-08
9.35132e-08
9.35123e-08
9.35115e-08
9.35104e-08
9.25288e-08
3.94844e-13
2.52637e-15
1.02615e-15
1.0001e-15
1.00645e-15
1.71039e-13
4.95537e-08
5.00843e-08
5.00847e-08
5.0085e-08