/*--------------------------------*- C++ -*----------------------------------*\
| =========                 |                                                 |
| \\      /  F ield         | OpenFOAM: The Open Source CFD Toolbox           |
|  \\    /   O peration     | Version:  2212                                  |
|   \\  /    A nd           | Website:  www.openfoam.com                      |
|    \\/     M anipulation  |                                                 |
\*---------------------------------------------------------------------------*/
FoamFile
{
    version     2.0;
    format      ascii;
    arch        "LSB;label=32;scalar=64";
    class       surfaceScalarField;
    location    "0.00254";
    object      phi;
}
// * * * * * * * * * * * * * * * * * * * * * * * * * * * * * * * * * * * * * //

dimensions      [1 0 -1 0 0 0 0];

oriented        oriented;

internalField   nonuniform List<scalar> 
5190
(
-2.78541e-05
-2.29134e-05
2.70087e-05
2.34334e-05
2.71992e-05
3.21164e-05
-4.31404e-05
-3.13234e-05
-9.56101e-06
-5.60277e-05
5.34499e-06
4.43074e-05
-9.32161e-06
7.99197e-06
1.76174e-06
1.50236e-07
8.58477e-05
1.24482e-05
-0.000112247
-1.07376e-05
-4.81568e-05
3.30425e-05
3.88633e-05
-4.33623e-05
-1.43352e-06
3.26994e-06
1.53965e-06
-2.77516e-06
-3.37082e-06
3.49414e-06
-7.49339e-06
7.99135e-06
8.5105e-06
-8.21797e-06
-4.09465e-06
4.41058e-06
8.8324e-06
-4.86273e-06
5.13991e-06
-2.90926e-06
2.28653e-06
-8.02817e-06
-9.9361e-06
8.68314e-06
-8.29743e-06
9.91022e-06
8.07178e-06
-1.00253e-05
-7.58884e-06
-1.53059e-05
1.48186e-05
-1.24497e-05
1.27405e-05
-1.00264e-05
-8.82762e-06
1.10771e-05
8.15215e-06
-1.273e-05
-1.12084e-05
1.25253e-05
1.1839e-05
-1.20941e-05
-1.20226e-05
1.3105e-05
1.10294e-05
7.70345e-06
-3.63545e-06
3.141e-06
-6.76256e-06
7.70554e-06
-4.04979e-06
4.54352e-06
-4.72003e-06
6.4585e-06
6.48718e-06
1.0551e-05
-3.77902e-06
4.60173e-06
-1.08195e-05
-1.04825e-05
1.04038e-05
-7.23729e-06
7.75316e-06
-1.05533e-05
-6.24371e-06
6.79795e-06
-5.27018e-06
5.79508e-06
-1.024e-05
9.23512e-06
8.6144e-06
-6.50726e-06
7.3864e-06
-4.03813e-06
8.14348e-06
-7.40221e-06
-2.96913e-06
-4.17147e-06
6.38628e-06
-7.8503e-06
7.94569e-06
-4.35879e-06
-4.03469e-06
-8.65321e-06
9.61539e-06
-4.25022e-06
-4.38269e-06
4.12147e-06
-9.8743e-06
9.96744e-06
-5.83601e-06
-5.00763e-06
-6.83177e-06
1.23144e-05
-5.97363e-06
7.34147e-06
-1.31168e-05
1.19197e-05
-8.17734e-06
9.14438e-06
-9.68765e-06
1.20201e-05
1.01779e-05
1.07965e-05
-1.08395e-05
-9.10245e-06
1.0657e-05
-1.15295e-05
1.22497e-05
1.08942e-05
-9.93443e-06
-6.42036e-06
-7.5967e-06
9.08513e-06
-9.03551e-06
-6.3375e-06
6.8408e-06
-6.23719e-06
5.89004e-06
2.79923e-05
3.78941e-05
-4.81208e-05
-2.81689e-05
-5.54538e-06
5.94741e-06
-7.82329e-06
-3.60593e-06
3.84077e-06
-2.15742e-06
-6.54485e-06
7.29572e-06
2.03213e-06
7.3246e-06
-6.78426e-06
-2.97072e-06
3.01475e-06
-3.24977e-06
1.08243e-05
1.24809e-05
-1.20244e-05
-1.24993e-05
1.24738e-05
-7.73895e-06
3.56037e-06
8.28402e-06
-7.23035e-06
-3.10972e-06
3.18603e-06
9.40489e-06
-9.41091e-06
-7.14024e-06
9.31764e-06
-7.81519e-06
-2.34604e-06
-6.80699e-06
2.39759e-06
-2.70653e-06
2.75758e-06
-6.26927e-06
-6.54941e-06
7.03427e-06
-2.88253e-06
-2.62053e-06
-6.06653e-06
-8.43967e-06
8.96772e-06
4.55414e-06
3.1982e-06
-1.0757e-05
1.0706e-05
5.27656e-06
5.27501e-06
-1.09593e-05
1.11229e-05
7.09939e-06
6.06978e-06
-1.10279e-05
1.00668e-05
9.97522e-06
8.28502e-06
-6.61156e-07
-1.90757e-06
2.57321e-06
4.90009e-07
1.23045e-05
7.39151e-06
1.25792e-05
-1.22054e-05
1.03427e-05
1.11741e-05
1.16969e-05
8.11225e-06
-1.1863e-05
9.16968e-06
-8.64731e-06
1.01391e-05
-3.09185e-07
1.28221e-06
-6.0177e-07
2.02484e-07
-1.07413e-05
1.33625e-05
-1.82097e-05
1.14632e-05
-9.10118e-05
-1.07759e-05
7.03369e-05
-7.18734e-06
7.31438e-06
-3.6251e-06
7.39671e-06
-6.97035e-06
-2.76102e-06
-3.37785e-06
-7.55015e-06
7.8662e-06
-4.19678e-06
-3.77307e-06
-8.122e-06
8.84986e-06
-4.48078e-06
-4.16527e-06
-9.19719e-06
9.38452e-06
-5.4827e-06
-4.82423e-06
-6.34869e-06
8.78565e-06
-9.55941e-06
-7.82353e-06
-8.28105e-06
6.0133e-06
9.61868e-06
-9.18209e-06
-6.31394e-06
-7.01926e-06
8.90029e-06
-8.84578e-06
-5.81356e-06
-5.95917e-06
8.62061e-06
-8.42546e-06
-4.47861e-06
-5.18254e-06
7.96549e-06
-7.53408e-06
-3.42022e-06
-3.9622e-06
-3.14298e-06
-2.8077e-06
2.86476e-06
-6.7097e-06
6.99848e-06
-6.47415e-06
9.4234e-06
-8.35163e-06
-8.16258e-06
1.0047e-05
1.4192e-05
-1.57046e-05
-9.06403e-06
1.23849e-05
-1.03094e-05
1.22163e-05
-6.43446e-06
-2.23588e-06
-6.3198e-06
6.76767e-06
-2.76216e-06
-5.85633e-06
-2.49952e-06
1.42384e-05
-1.4686e-05
1.08625e-05
-1.16131e-05
1.39659e-05
1.21016e-05
-1.05856e-05
1.34535e-05
-1.15797e-05
1.24177e-05
9.34163e-06
-8.50718e-06
-7.58397e-06
7.15247e-06
-7.24859e-06
9.2887e-06
1.17793e-05
-1.33451e-05
1.02893e-05
-7.76838e-06
-6.90513e-06
7.48699e-06
2.84848e-06
2.54501e-06
-2.54892e-06
-6.12678e-06
2.52182e-06
-6.31585e-06
9.87854e-06
7.82397e-06
-1.01126e-05
-7.17985e-06
1.50423e-05
-1.34164e-05
-1.37499e-05
1.22351e-05
-1.28154e-05
1.22695e-05
-0.000170977
-4.17029e-05
9.2493e-05
9.30965e-05
9.17809e-06
-8.91623e-06
9.61257e-06
1.07072e-05
1.18673e-05
2.12482e-06
-2.01465e-06
-5.90842e-06
3.95261e-05
-5.14574e-05
-1.30142e-05
-6.20325e-06
2.17921e-05
1.50073e-05
-2.2306e-05
-1.52073e-05
1.6143e-05
-1.31807e-05
1.1746e-05
-8.96159e-06
8.68797e-06
2.6089e-06
2.30674e-06
-8.37209e-06
-9.11705e-06
9.95301e-06
4.27438e-06
3.33158e-06
-1.08608e-05
1.12199e-05
5.46314e-06
4.92295e-06
-1.15891e-05
1.19312e-05
7.18213e-06
6.19066e-06
-1.22042e-05
1.28132e-05
9.77775e-06
8.41001e-06
1.08702e-05
1.29529e-05
-1.2747e-05
1.04155e-05
1.15073e-05
1.24661e-05
8.2867e-06
-1.22479e-05
9.20134e-06
-1.17811e-05
1.65852e-05
7.27603e-06
-1.91515e-05
1.51221e-05
-2.32689e-05
1.40737e-05
-8.05584e-06
3.57863e-06
8.61886e-06
3.17926e-06
-6.52016e-06
6.88262e-06
-2.50517e-06
6.09815e-06
-1.7912e-06
-5.69647e-06
-2.02974e-06
-7.03688e-06
7.20902e-06
-3.24655e-06
-2.94767e-06
-7.43067e-06
7.52406e-06
-3.79729e-06
-3.47676e-06
-8.02057e-06
8.2088e-06
-4.18233e-06
-4.18083e-06
-8.67996e-06
8.77169e-06
-5.01684e-06
-4.77228e-06
-8.88478e-06
8.74002e-06
-6.48762e-06
-5.89872e-06
-8.68744e-06
8.63047e-06
-7.83605e-06
-7.29128e-06
-1.32744e-05
1.19932e-05
1.64362e-05
-8.55607e-06
8.72959e-06
8.71017e-06
-8.93263e-06
-7.09368e-06
-7.63359e-06
8.8952e-06
-8.72753e-06
-5.92032e-06
-6.52372e-06
8.46109e-06
-8.49539e-06
-5.19947e-06
-5.6518e-06
8.36807e-06
-8.08303e-06
-4.19547e-06
-4.73645e-06
7.71218e-06
-7.2087e-06
-3.30483e-06
-3.73696e-06
-2.99138e-06
-2.45031e-06
2.50138e-06
-5.73835e-06
2.35522e-06
-5.36368e-06
-2.23753e-06
-5.5653e-06
-5.94009e-06
2.82131e-06
1.17312e-06
-2.44515e-06
-9.99495e-07
7.47521e-07
-1.35815e-06
7.10591e-06
-5.93744e-06
-5.54821e-06
7.79036e-06
-9.78255e-07
-1.33205e-05
1.35091e-05
1.35013e-05
-1.25355e-05
1.31681e-05
-1.33391e-05
1.36022e-05
-1.01341e-05
1.22902e-05
9.96734e-06
9.93225e-06
-9.80503e-06
-1.08536e-05
1.20642e-05
5.75422e-06
-5.64263e-06
-1.25554e-06
-8.97521e-06
1.00463e-05
1.12208e-05
-8.56539e-06
1.03484e-05
-7.14261e-06
7.78796e-06
2.73626e-06
-6.49965e-06
2.42334e-06
-1.18224e-05
1.29578e-05
-1.18332e-05
1.24965e-05
-2.02702e-06
1.97855e-06
-5.24204e-06
-2.14796e-06
-4.95721e-06
0.00298607
1.44368e-07
-0.00273711
2.69906e-06
2.4518e-07
0.00312722
2.74828e-06
-0.00298598
0.00312739
3.124e-06
-0.00273705
3.02976e-06
-2.02474e-06
2.1592e-06
-4.88054e-06
-5.16879e-06
5.64271e-06
-2.0954e-06
-4.70027e-06
-1.87401e-06
-6.10417e-06
4.3539e-06
-1.02051e-05
1.2431e-05
-1.41531e-05
1.36603e-05
1.32236e-06
3.11935e-06
-1.11458e-06
-5.89019e-06
-1.67962e-06
6.80356e-06
-2.91612e-05
-2.72558e-05
2.84658e-05
2.71723e-05
3.90547e-05
3.11006e-05
-5.18551e-05
-2.86589e-05
6.49248e-05
2.10478e-05
-1.66885e-05
-8.53927e-05
1.09726e-05
1.16706e-05
2.4301e-05
2.74648e-05
-5.48688e-06
1.87846e-06
-6.51329e-06
2.31338e-05
1.18244e-05
-2.8808e-05
-7.88684e-06
8.49755e-06
2.20054e-06
-2.20903e-06
1.5949e-06
-1.78912e-06
-8.90296e-06
9.28331e-06
2.79469e-06
2.49105e-06
-9.78501e-06
1.05208e-05
4.08346e-06
3.37703e-06
-1.12579e-05
1.18366e-05
5.35942e-06
4.69656e-06
-1.23487e-05
1.28398e-05
7.06027e-06
6.09855e-06
-1.34134e-05
1.41349e-05
9.41359e-06
8.19073e-06
-1.48737e-05
1.46544e-05
1.13311e-05
1.04736e-05
1.27236e-05
1.37188e-05
-1.35976e-05
1.02043e-05
1.17173e-05
1.32502e-05
-1.27294e-05
7.87502e-06
8.85877e-06
1.20314e-05
-1.1209e-05
6.19832e-06
-6.71989e-06
7.03669e-06
-7.54243e-06
1.0427e-05
-9.70774e-06
4.54907e-06
-4.79035e-06
5.2961e-06
-5.68556e-06
9.03573e-06
-8.41176e-06
3.48192e-06
3.93482e-06
-4.0873e-06
3.07849e-06
0.00321632
2.6185e-07
2.49403e-06
0.00327496
5.14384e-07
2.19053e-06
0.00308844
7.94288e-07
1.12138e-06
0.00169643
9.06688e-07
3.97342e-08
0.00113575
1.74412e-06
-4.85877e-07
0.000837953
2.84092e-06
-1.65617e-06
0.000658399
3.9612e-06
-3.5726e-06
0.000529622
5.88415e-06
-4.82492e-06
0.000429818
8.19423e-06
-7.44781e-06
9.84718e-06
0.000351185
-1.0131e-05
0.000353027
-0.000430202
8.79371e-06
0.000287362
1.0191e-05
-1.13077e-05
1.10967e-05
0.000234802
-1.31388e-05
-0.000290308
0.00023905
7.49262e-06
8.48499e-06
0.000528382
-0.000657376
7.57893e-06
8.03947e-06
0.000837749
-0.00113528
3.93932e-06
5.42779e-06
0.00169681
-0.00308864
2.51453e-06
3.42606e-06
0.00327496
-0.00321618
3.0935e-06
3.08563e-06
3.22794e-06
-6.1813e-06
6.53082e-06
-2.26525e-06
-1.85912e-06
-6.7815e-06
7.00807e-06
-2.91665e-06
-2.60989e-06
-7.23833e-06
7.40094e-06
-3.44109e-06
-3.17299e-06
-7.49256e-06
7.81999e-06
-4.02929e-06
-3.77515e-06
-8.07432e-06
8.33537e-06
-4.73894e-06
-4.52637e-06
-8.28136e-06
8.25445e-06
-5.91713e-06
-5.28434e-06
-8.13633e-06
7.9815e-06
-7.13786e-06
-6.62055e-06
-2.22932e-05
2.1779e-05
-2.95555e-05
-7.67411e-06
7.60652e-06
-9.23136e-06
1.07991e-05
-7.11771e-06
9.09813e-06
-8.73443e-06
-8.4067e-06
-8.91906e-06
9.54836e-06
1.02154e-05
-1.03879e-05
8.54598e-06
8.23446e-06
-5.99004e-06
-9.68857e-06
8.36204e-06
-8.22438e-06
-7.21795e-06
-7.62086e-06
8.38823e-06
-8.44636e-06
-6.49509e-06
-6.95994e-06
8.43366e-06
-8.25545e-06
-5.5337e-06
-5.98682e-06
8.20628e-06
-8.1054e-06
-4.71324e-06
-5.11776e-06
7.96056e-06
-7.70231e-06
-3.87642e-06
-4.3111e-06
7.35635e-06
-6.93484e-06
-3.12351e-06
-3.48256e-06
6.51676e-06
-6.0956e-06
-2.60658e-06
-2.83077e-06
-2.35231e-06
-2.24628e-06
2.30605e-06
-5.19991e-06
-5.04339e-06
-2.32762e-06
2.30597e-06
-5.51835e-06
-5.36753e-06
-2.25147e-06
2.14379e-06
-5.84215e-06
-5.68835e-06
-1.77705e-05
-2.74207e-05
2.59004e-05
1.80617e-05
-4.03034e-05
4.30016e-05
-1.2681e-05
9.41441e-06
-1.10973e-05
1.18392e-05
1.05305e-05
9.97828e-06
-1.01153e-05
1.05183e-05
1.0794e-05
-1.13156e-05
1.20159e-05
-4.54894e-06
-2.59294e-06
-1.40405e-05
1.72744e-05
1.0374e-05
9.78382e-08
2.31553e-06
-0.00243066
2.51072e-06
-0.00243054
5.5459e-06
-1.06616e-06
-5.1813e-06
-7.67879e-05
-4.71849e-05
3.24141e-05
8.61196e-05
0.000350955
-0.000429972
-1.02536e-05
0.000286058
-1.10949e-05
-1.27074e-05
1.25272e-05
-0.000168149
-3.56683e-05
5.6635e-05
0.000112728
9.98231e-06
9.24165e-06
1.19238e-05
-1.227e-05
1.30436e-05
1.18584e-06
-1.44587e-06
-5.13489e-06
1.23075e-06
-5.12085e-06
-0.00243046
0.00273644
5.42622e-06
1.66236e-06
9.29076e-08
-0.0020834
3.64521e-06
-0.00208374
-1.91155e-06
1.99503e-06
-4.34518e-06
-1.76219e-06
-4.22875e-06
-5.01822e-06
5.44526e-06
-1.90522e-06
-4.55395e-06
-1.71725e-06
-8.87806e-06
0.000194142
5.17186e-06
0.000194807
-1.56947e-05
1.0378e-05
4.44522e-06
-1.00763e-05
1.05411e-05
5.57167e-06
-5.41632e-06
-1.39171e-05
1.43999e-05
1.42798e-05
9.45579e-06
6.366e-06
-9.67735e-06
-5.83581e-06
1.00714e-05
7.97004e-06
4.82013e-05
2.05087e-05
-1.81049e-05
2.03314e-05
1.42685e-05
-2.26153e-05
-2.46856e-05
2.74276e-05
-9.43396e-06
9.32325e-07
4.65324e-07
-3.52868e-07
-4.95165e-07
-6.00346e-06
6.70197e-06
1.97019e-06
1.91953e-06
-2.0315e-06
-5.17627e-06
1.74564e-06
-5.30131e-06
1.07785e-05
1.14421e-05
1.97549e-06
-3.98885e-06
-1.93674e-06
-1.93748e-06
1.87369e-06
-4.57015e-06
-4.31451e-06
-1.79679e-06
1.63939e-06
-4.98444e-06
5.74155e-06
-4.79999e-06
-5.11449e-06
-7.91091e-06
8.49804e-06
2.1846e-06
2.06719e-06
-9.07542e-06
9.64346e-06
2.77275e-06
2.47972e-06
-1.02777e-05
1.10504e-05
3.80129e-06
3.24678e-06
-1.17607e-05
1.24774e-05
5.05611e-06
4.43562e-06
-1.31399e-05
1.37768e-05
6.72813e-06
5.80007e-06
-1.44584e-05
1.51297e-05
9.00096e-06
7.77908e-06
-1.56073e-05
1.53361e-05
1.17043e-05
1.02118e-05
1.39881e-05
-1.26135e-05
1.44389e-05
2.29304e-05
1.55011e-05
-2.264e-05
1.40776e-05
-1.47294e-05
1.3418e-05
1.52936e-05
1.46457e-05
1.49838e-05
-1.47116e-05
9.51669e-06
1.13759e-05
1.41519e-05
-1.34931e-05
6.99807e-06
7.98914e-06
1.27449e-05
-1.19533e-05
5.46859e-06
6.18892e-06
1.10914e-05
-1.02869e-05
4.10223e-06
4.64934e-06
9.49773e-06
-8.80027e-06
3.23439e-06
3.57855e-06
8.09962e-06
-7.40909e-06
2.53308e-06
2.84547e-06
2.22764e-06
-0.00298504
0.00312608
6.79622e-06
6.58217e-06
-0.00321491
0.00327369
5.73676e-06
6.48127e-06
-0.00308678
0.00169509
1.97172e-06
4.40452e-06
-0.00113568
0.000838247
-1.59505e-07
8.12692e-07
-0.00065782
0.000529849
-4.58346e-06
-1.74811e-06
-6.67357e-06
-0.00243036
0.00273628
5.74694e-06
-1.76766e-06
3.81895e-06
-0.00208381
-0.00208331
-6.26769e-07
-1.9063e-05
-0.00019916
-1.34966e-05
-4.4812e-05
-9.73896e-06
5.53862e-05
-1.33281e-06
0.000242913
-0.000292918
4.13853e-06
2.77295e-06
0.000356094
-0.000433306
7.10815e-06
6.81152e-06
0.000530831
-0.000657457
7.00498e-06
7.02584e-06
0.000836493
-0.00113643
7.68806e-06
6.25641e-06
0.00169792
-0.0030881
4.45143e-06
5.00973e-06
0.00327368
-0.00321497
6.76666e-06
6.23636e-06
0.00312621
-0.00298492
7.33218e-06
7.0985e-06
6.86153e-06
-5.90017e-06
6.20641e-06
-2.02092e-06
-1.65459e-06
-6.48576e-06
6.723e-06
-2.59954e-06
-2.32339e-06
-6.93918e-06
7.18992e-06
-3.15129e-06
-2.84237e-06
-7.39036e-06
7.67467e-06
-3.77859e-06
-3.43664e-06
-7.66545e-06
7.77195e-06
-4.32988e-06
-3.99564e-06
-7.771e-06
7.76419e-06
-5.35993e-06
-4.7606e-06
-7.58281e-06
7.38175e-06
-6.36162e-06
-5.86232e-06
-7.03602e-06
6.58457e-06
-7.45484e-06
8.46898e-06
-6.76443e-06
-5.97321e-06
4.99082e-06
-8.70114e-06
-8.07717e-06
-1.01015e-05
1.08159e-05
4.12077e-06
-4.28775e-06
3.69564e-06
-9.06617e-06
-8.89125e-06
-1.0753e-05
7.31998e-06
1.02254e-05
3.22496e-06
-4.34626e-06
-9.18644e-06
-9.96929e-06
2.9446e-06
1.06961e-05
-3.22154e-06
-2.02536e-06
1.93989e-06
-9.43735e-06
-9.54008e-06
1.11935e-05
4.44563e-06
-6.41631e-06
-9.22735e-06
1.16684e-05
-9.18103e-06
7.23218e-06
-7.52542e-06
-7.54067e-06
-8.28096e-06
7.59978e-06
-7.68336e-06
-6.57013e-06
-6.97402e-06
7.86269e-06
-7.94099e-06
-5.8478e-06
-6.22073e-06
7.95141e-06
-7.91477e-06
-4.98746e-06
-5.4023e-06
7.83148e-06
-7.72057e-06
-4.24142e-06
-4.60814e-06
7.57241e-06
-7.33602e-06
-3.5376e-06
-3.89266e-06
7.02905e-06
-6.66546e-06
-2.9052e-06
-3.20644e-06
6.28109e-06
-5.88219e-06
-2.41937e-06
-2.63779e-06
-2.18478e-06
-2.07108e-06
2.10612e-06
-4.62902e-06
-4.50413e-06
-2.1252e-06
2.10332e-06
-4.90688e-06
-4.78541e-06
-5.04082e-06
2.89643e-05
3.37231e-05
3.41959e-05
-2.72953e-06
2.86556e-06
-3.4803e-05
0.000233823
-1.38244e-05
-1.20735e-05
1.14356e-05
1.12152e-05
9.01464e-06
1.10603e-05
1.02614e-05
-1.18511e-05
1.19955e-05
-5.02196e-06
1.65008e-06
5.03097e-06
-2.68545e-05
-2.09684e-05
1.88937e-05
1.63686e-05
-1.63185e-05
1.19079e-05
5.49662e-06
1.04656e-05
-8.16002e-06
-0.00243024
0.00273538
9.39213e-06
-0.00208458
5.73857e-06
-1.65847e-06
1.76005e-06
-3.49583e-06
-3.51074e-05
1.8889e-06
-7.63086e-06
-3.84119e-06
-1.88526e-06
3.68427e-06
-3.60224e-06
-1.62054e-06
-1.44191e-06
-3.26742e-06
-1.50701e-06
-4.17483e-06
-6.1427e-06
6.89233e-06
1.7264e-06
-5.41918e-06
1.53177e-06
0.000155422
-2.03796e-05
1.88656e-05
-1.56444e-05
-2.11006e-05
1.7507e-05
-1.58273e-05
1.93482e-05
1.49354e-05
-3.52995e-05
2.48458e-05
2.87075e-06
-2.56161e-06
0.000350967
-0.000431251
-8.78368e-06
0.000286166
-1.08776e-05
1.63782e-05
2.34336e-05
-1.71315e-05
1.59734e-05
-2.1598e-05
2.13479e-05
2.62682e-05
-1.69857e-05
1.37141e-05
1.1563e-05
7.10986e-06
-1.39158e-05
1.27009e-05
-1.27913e-05
1.33884e-05
1.09352e-05
8.81153e-06
2.10015e-05
-1.39316e-05
-0.00243039
0.00273549
9.77803e-06
-0.00208474
5.95117e-06
-3.41091e-05
3.39373e-05
-1.85039e-05
1.80057e-05
-6.53746e-05
1.44424e-05
5.6369e-05
-8.31851e-05
2.28273e-05
2.422e-05
-1.42453e-05
-1.4931e-05
1.55189e-05
1.39227e-05
1.176e-05
4.99439e-06
1.04199e-05
3.00065e-06
-9.27136e-06
3.45094e-06
1.15236e-05
1.05238e-05
1.39968e-06
-9.4821e-06
2.08812e-06
1.18953e-05
1.10734e-05
7.5361e-06
-1.3391e-05
1.46674e-05
-2.01205e-05
-1.48223e-05
2.17801e-05
1.30758e-05
0.000188031
-1.39751e-05
1.14079e-06
2.96265e-07
-6.64865e-07
-3.31299e-07
2.37807e-05
-7.75262e-06
-2.55473e-05
2.86882e-05
-1.81499e-05
-2.64245e-05
1.54909e-05
1.02201e-05
1.11859e-05
-1.8004e-06
1.80086e-06
-3.95156e-06
-3.73734e-06
-1.76721e-06
1.68633e-06
-4.28887e-06
-4.14536e-06
-1.58507e-06
1.49117e-06
-4.48923e-06
-4.42179e-06
-1.42261e-06
1.39886e-06
-4.52047e-06
-4.54553e-06
5.06946e-06
-4.55591e-06
1.36453e-06
-5.33138e-06
7.4654e-06
2.62069e-06
-4.25074e-06
1.83958e-06
-7.92126e-06
8.5986e-06
2.03163e-06
2.1752e-06
-9.30208e-06
1.00377e-05
2.54786e-06
2.29504e-06
-1.07812e-05
1.15515e-05
3.46801e-06
2.98031e-06
-1.236e-05
1.31269e-05
4.65421e-06
4.02296e-06
-1.3909e-05
1.4698e-05
6.18126e-06
5.3379e-06
-1.54786e-05
1.62898e-05
8.326e-06
7.15651e-06
-1.6981e-05
1.74629e-05
1.11266e-05
9.57467e-06
-1.80721e-05
2.00179e-05
1.50983e-05
1.3159e-05
1.71075e-05
1.69952e-05
2.17008e-05
-2.02607e-05
1.54605e-05
-1.73755e-05
1.5672e-05
1.92145e-05
-1.80318e-05
1.17456e-05
1.37777e-05
1.69648e-05
-1.59841e-05
8.21503e-06
9.8742e-06
1.51254e-05
-1.42201e-05
5.82804e-06
6.85101e-06
1.33847e-05
-1.2488e-05
4.54078e-06
5.17905e-06
1.16433e-05
-1.07825e-05
3.51453e-06
3.94337e-06
9.94554e-06
-9.14668e-06
2.80131e-06
3.0772e-06
8.40564e-06
-7.65092e-06
2.22872e-06
2.51392e-06
1.95461e-06
-0.00298338
0.00312399
1.28424e-05
1.18488e-05
-0.00321231
0.0032705
1.16124e-05
1.25467e-05
-0.00308438
0.00169465
5.58808e-06
9.34751e-06
-0.00113549
0.000838847
1.45119e-06
3.11446e-06
-0.000659619
0.00053084
-3.27106e-06
-4.32116e-07
-5.69747e-06
1.61232e-07
6.76375e-07
-0.0017307
-9.57682e-07
1.52426e-06
-0.00173157
-0.00173059
4.63611e-06
1.20482e-05
-1.25323e-06
-0.00173328
1.10739e-06
-0.00173145
9.38701e-05
-0.000119275
2.07716e-06
5.53357e-06
2.0708e-05
-2.62969e-05
0.000169949
-0.000205496
-1.35464e-05
-1.58455e-05
0.000245135
-0.00029593
1.8124e-06
-1.60175e-06
0.000358353
-0.000435523
5.48781e-06
4.90053e-06
0.000533468
-0.000659868
6.41546e-06
6.65699e-06
0.000838946
-0.00113555
8.29991e-06
7.37499e-06
0.00169606
-0.00308586
9.84132e-06
7.25906e-06
0.00327033
-0.00321247
1.30231e-05
1.10468e-05
0.00312437
-0.00298337
1.33496e-05
1.313e-05
1.22031e-05
-3.80501e-06
3.93852e-06
-1.56753e-06
3.45914e-06
-3.04976e-06
-1.32734e-06
-1.45139e-06
-4.47845e-06
5.17195e-06
-1.2693e-06
-1.34959e-06
1.26592e-06
-5.56878e-06
5.89311e-06
-1.805e-06
-1.51459e-06
-6.18687e-06
6.4451e-06
-2.31165e-06
-2.06957e-06
-6.70896e-06
6.92113e-06
-2.81038e-06
-2.55773e-06
-7.11409e-06
7.25223e-06
-3.34836e-06
-3.06211e-06
-7.37656e-06
7.45862e-06
-3.87828e-06
-3.56421e-06
-7.46644e-06
7.36846e-06
-4.70957e-06
-4.24214e-06
-7.17668e-06
6.92798e-06
-5.55756e-06
-5.10664e-06
-6.65967e-06
6.25909e-06
-6.47675e-06
-5.93712e-06
-5.67891e-06
4.95697e-06
-7.41548e-06
-6.94096e-06
-4.26376e-06
3.59698e-06
-7.86827e-06
-7.65281e-06
-9.53584e-06
2.23311e-06
1.07933e-05
-2.86737e-06
2.10261e-06
-8.28223e-06
-8.03664e-06
1.30463e-06
9.76889e-06
-8.4671e-06
4.82946e-07
9.90169e-06
-8.55971e-06
-9.77004e-06
5.54368e-07
1.11365e-05
3.89428e-07
-1.13648e-06
-8.5032e-06
9.97462e-06
-8.58435e-06
1.77866e-06
-2.50392e-06
-8.25798e-06
-8.3566e-06
3.35746e-06
-3.99132e-06
-8.05889e-06
-8.21141e-06
4.81281e-06
-5.81396e-06
-7.66541e-06
-7.84506e-06
6.35699e-06
-6.70083e-06
-6.60328e-06
-7.13774e-06
6.93967e-06
-7.1541e-06
-5.79075e-06
-6.16025e-06
7.34581e-06
-7.47716e-06
-5.15157e-06
-5.47068e-06
7.52858e-06
-7.5214e-06
-4.41402e-06
-4.77452e-06
7.46606e-06
-7.36791e-06
-3.77646e-06
-4.08599e-06
7.22497e-06
-7.01089e-06
-3.18528e-06
-3.47906e-06
6.73732e-06
-6.41334e-06
-2.64348e-06
-2.90465e-06
6.0634e-06
-5.69343e-06
-2.19548e-06
-2.39981e-06
5.29201e-06
-4.85975e-06
-1.72856e-06
-1.98167e-06
4.43546e-06
-4.19784e-06
-1.06869e-06
-1.52433e-06
-1.7235e-06
1.70889e-06
-3.53232e-06
-1.98739e-06
-1.78531e-06
1.86192e-06
-3.81084e-06
-3.68796e-06
-1.91626e-06
1.9577e-06
-4.06227e-06
-3.94473e-06
-1.95868e-06
1.93307e-06
-4.29158e-06
-4.18372e-06
-1.86662e-06
1.75348e-06
-4.50959e-06
-4.39935e-06
-1.59319e-06
-4.69849e-06
1.38e-06
-4.61269e-06
2.56027e-05
-2.64136e-05
-2.34921e-05
0.000111457
-7.97116e-06
-1.13673e-05
-2.73008e-05
3.05316e-05
1.24912e-05
0.000231831
-1.21479e-05
1.4816e-05
4.599e-05
-1.83185e-05
2.14671e-05
-1.92569e-05
2.37762e-05
-4.67077e-06
-2.70839e-06
-2.81649e-05
-2.41972e-05
-1.19761e-05
3.10385e-05
-2.18678e-05
-1.54541e-05
1.28167e-05
1.24843e-05
8.39047e-06
-1.33969e-05
1.10859e-05
-4.33764e-07
1.14758e-05
1.37004e-06
1.11642e-05
-1.24997e-05
1.2e-05
1.18448e-05
9.83506e-06
1.9873e-05
-1.4952e-05
-2.47454e-05
1.43923e-05
-1.80423e-05
9.03851e-06
1.78861e-07
-3.40146e-07
1.90607e-06
-2.24668e-05
2.05134e-05
-2.05895e-05
2.14703e-05
-2.13178e-05
2.05023e-05
2.27014e-05
-2.19268e-05
1.47943e-05
1.43883e-06
-0.00173354
-6.03642e-05
4.98634e-05
9.66673e-06
-8.36387e-05
2.97719e-05
-1.20313e-06
1.36209e-06
-2.67565e-06
2.96165e-06
-1.1162e-06
-2.50881e-06
3.32003e-06
-1.1542e-06
3.03316e-05
2.33506e-05
-1.64521e-05
-1.4855e-05
1.27829e-05
1.28022e-05
6.41996e-06
2.61775e-06
1.2141e-05
9.38762e-07
1.28159e-05
1.20058e-05
8.31122e-06
-1.34884e-05
1.3622e-05
2.11514e-05
-1.16432e-05
-2.34364e-05
1.32515e-06
-1.43622e-06
-3.91244e-06
1.19626e-06
-3.93068e-06
0.00014928
-1.93469e-05
-9.90518e-06
3.54402e-05
6.50987e-05
-6.90608e-05
-7.69869e-06
5.11927e-06
2.79611e-05
3.0985e-05
-2.4076e-05
6.58635e-06
1.18901e-05
-2.29345e-05
-1.57486e-05
2.61664e-05
-7.3425e-05
-4.99519e-06
8.84249e-06
6.65694e-05
2.30683e-05
-1.37411e-05
8.60168e-05
3.75588e-05
2.04873e-05
-1.63108e-05
1.14348e-05
1.26636e-05
4.28103e-06
3.51628e-06
1.35127e-05
-1.34658e-05
1.65178e-05
1.16951e-05
1.27256e-06
-1.4657e-06
-3.99689e-06
-4.77848e-06
5.51748e-06
1.14254e-06
1.05087e-06
-4.04686e-06
-3.7355e-06
1.28739e-06
-0.00140183
-0.00173905
0.00208875
-1.4538e-06
-9.50481e-06
-0.00140812
0.000187547
-1.29786e-05
1.5954e-06
-2.97653e-06
1.99144e-05
-7.12858e-06
-2.01079e-05
1.4593e-05
2.01855e-05
-1.47854e-05
-1.87648e-05
6.87632e-06
-8.98499e-06
8.67969e-06
-1.00651e-05
-9.13208e-06
9.54415e-06
1.13827e-05
1.0945e-05
-1.24003e-05
2.22416e-05
9.64508e-06
-1.48293e-06
1.59746e-06
-3.02769e-06
-2.83733e-06
-1.6689e-06
1.70415e-06
-3.36862e-06
-3.19725e-06
-1.71301e-06
1.69141e-06
-3.63856e-06
-3.52532e-06
-1.64001e-06
1.55054e-06
-3.84036e-06
-3.77042e-06
-3.91037e-06
5.25573e-06
-4.63682e-06
1.24407e-06
-6.05514e-06
7.30135e-06
1.88962e-06
1.53565e-06
-8.14579e-06
8.7937e-06
1.876e-06
1.84613e-06
-9.58563e-06
1.03481e-05
2.25972e-06
1.97815e-06
-1.11776e-05
1.20269e-05
3.03587e-06
2.61019e-06
-1.28936e-05
1.38225e-05
4.04964e-06
3.52836e-06
-1.46855e-05
1.5585e-05
5.48364e-06
4.74376e-06
-1.65022e-05
1.7445e-05
7.4163e-06
6.3531e-06
-1.83794e-05
1.93651e-05
9.91539e-06
8.53307e-06
-2.06213e-05
2.22972e-05
1.31471e-05
1.16663e-05
1.42456e-05
-2.23707e-05
2.45057e-05
1.51775e-05
-1.80157e-05
1.69175e-05
2.06844e-05
-1.94108e-05
1.08248e-05
1.28255e-05
1.81874e-05
-1.69819e-05
7.36092e-06
9.01007e-06
1.58808e-05
-1.48307e-05
4.89118e-06
6.00566e-06
1.39116e-05
-1.29808e-05
3.69873e-06
4.31399e-06
1.20157e-05
-1.11672e-05
2.90809e-06
3.15321e-06
1.03285e-05
-9.50965e-06
2.32013e-06
2.52372e-06
8.67841e-06
-7.86448e-06
1.85935e-06
2.07906e-06
7.06049e-06
-6.27881e-06
1.44816e-06
1.63285e-06
1.27396e-06
-0.00243234
0.00273518
1.38651e-05
6.79478e-06
-0.0029814
0.00312056
2.15017e-05
1.87965e-05
-0.00320806
0.00326532
2.06741e-05
2.15563e-05
-0.00307904
0.00169357
1.20805e-05
1.79224e-05
-0.00113552
0.000839155
4.00922e-06
6.3099e-06
-0.000660432
0.000531621
-6.94425e-07
1.42749e-06
-0.000432997
0.000353066
-6.96115e-06
-4.61172e-06
-0.000287645
0.000233174
-1.067e-05
-9.81185e-06
-9.56397e-07
1.40224e-08
-0.00139957
-0.00173908
0.0020888
-1.17256e-06
3.4791e-06
-9.22633e-06
-0.00140819
-0.00140202
1.46634e-07
-3.95081e-07
-0.00139821
-0.00139816
-0.00139949
0.000100844
-0.000124817
5.03722e-06
1.94329e-05
0.000163304
-0.000204295
-6.61912e-06
-3.84034e-06
0.00024728
-0.000299032
5.55137e-07
-1.92348e-06
0.00036136
-0.000438083
4.51947e-06
3.44548e-06
0.000534669
-0.000661399
7.43338e-06
6.21048e-06
0.000838846
-0.0011352
1.02654e-05
7.80345e-06
0.00169486
-0.00307856
1.58196e-05
1.10264e-05
0.00326513
-0.00320812
2.2403e-05
2.13536e-05
0.00312089
-0.00298141
2.20188e-05
2.21947e-05
0.00273529
-0.00243238
1.42201e-05
1.92454e-05
7.03364e-06
-3.65587e-06
3.90092e-06
-1.30983e-06
-1.26712e-06
-4.31691e-06
4.82635e-06
-1.26194e-06
-1.2638e-06
-5.25694e-06
5.60786e-06
-1.60227e-06
-1.39884e-06
-5.91191e-06
6.19111e-06
-2.03708e-06
-1.817e-06
-6.42316e-06
6.61872e-06
-2.45298e-06
-2.23822e-06
-6.80588e-06
6.91348e-06
-2.88286e-06
-2.67842e-06
-7.0266e-06
7.129e-06
-3.43197e-06
-3.11324e-06
-7.12608e-06
7.03433e-06
-4.0478e-06
-3.69436e-06
-6.86848e-06
6.61784e-06
-4.7385e-06
-4.35501e-06
-6.34766e-06
5.93248e-06
-5.49014e-06
-5.11387e-06
-5.43245e-06
4.81247e-06
-6.22524e-06
-5.87319e-06
-4.1744e-06
3.51031e-06
-6.64717e-06
-6.44835e-06
-2.80929e-06
2.07911e-06
-6.99901e-06
-6.78791e-06
-1.30135e-06
5.21626e-07
-7.23342e-06
-7.1366e-06
2.60985e-07
-1.00438e-06
-7.22231e-06
-7.25752e-06
1.72424e-06
-2.45503e-06
-7.02552e-06
-7.12669e-06
3.19813e-06
-3.88447e-06
-6.8012e-06
-6.93571e-06
4.56989e-06
-5.29228e-06
-6.3648e-06
-6.57246e-06
5.81049e-06
-6.16579e-06
-5.64926e-06
-6.03037e-06
6.45743e-06
-6.70831e-06
-4.99429e-06
-5.30441e-06
6.90949e-06
-7.0656e-06
-4.43603e-06
-4.72053e-06
7.15159e-06
-7.1727e-06
-3.83632e-06
-4.128e-06
7.14185e-06
-7.05805e-06
-3.30617e-06
-3.56418e-06
6.92251e-06
-6.72651e-06
-2.80223e-06
-3.05022e-06
6.47523e-06
-6.18064e-06
-2.33598e-06
-2.56212e-06
5.86194e-06
-5.51812e-06
-1.94549e-06
-2.12395e-06
5.1474e-06
-4.75398e-06
-1.52422e-06
-1.75327e-06
4.40272e-06
-7.86905e-07
-4.09529e-06
-1.27755e-06
-1.65628e-06
1.72462e-06
-3.26641e-06
-3.13334e-06
-1.77909e-06
1.81481e-06
-3.48647e-06
-3.3843e-06
-1.82304e-06
1.79441e-06
-3.67663e-06
-3.58929e-06
-1.73425e-06
1.62493e-06
-3.85138e-06
-3.76912e-06
-3.9285e-06
2.77439e-06
2.93581e-05
-1.51246e-05
-4.26028e-05
1.81991e-05
1.22197e-05
-1.94325e-05
-1.54722e-05
9.48952e-06
2.75334e-06
-2.35091e-06
-9.58806e-07
-2.11213e-05
-1.77106e-05
2.17406e-05
-1.7924e-05
-1.74582e-05
-2.39316e-05
-1.44613e-05
1.08673e-05
1.38579e-05
7.63731e-06
1.68257e-06
1.26588e-05
-4.86871e-07
1.34316e-05
1.27626e-05
9.5138e-06
-1.33575e-05
1.21218e-05
2.05031e-05
-1.43165e-05
7.07906e-06
-9.66328e-06
-3.97244e-06
1.04112e-06
-2.6546e-05
1.30747e-05
-3.44848e-05
-1.58382e-05
3.7017e-05
3.53756e-05
2.76463e-05
-4.45965e-05
-2.39397e-05
2.15722e-05
0.000110613
-1.66466e-05
3.15274e-06
-1.0048e-06
3.61157e-05
-1.18871e-05
2.8519e-05
-2.88183e-05
-1.21357e-05
1.14238e-05
-0.00174612
0.00209533
-6.80698e-06
-0.00141539
-1.82977e-05
1.74266e-05
2.33966e-05
-8.54724e-05
4.80001e-05
6.19028e-06
1.29351e-05
2.46095e-05
2.73868e-05
-2.07727e-05
-1.80431e-05
2.28078e-05
-1.65095e-05
8.39026e-05
1.4294e-05
-2.22078e-05
-1.63258e-05
1.29878e-05
1.39163e-05
5.54731e-06
3.44971e-06
1.34626e-05
1.39715e-06
1.54544e-05
1.29487e-05
7.70687e-06
-1.40539e-05
1.43698e-05
1.8755e-05
-1.37269e-05
-1.14547e-06
1.27403e-06
-2.25452e-06
-1.02774e-06
-2.07803e-06
-4.86236e-06
5.62743e-06
8.86472e-07
-4.10049e-06
8.1143e-07
1.20395e-06
-1.38488e-06
-3.29569e-06
1.00443e-06
-3.32618e-06
-0.00174596
0.00209509
-7.00956e-06
-0.00141519
-1.85662e-05
-8.50311e-06
3.94914e-06
-0.00110544
-1.67088e-05
-0.00111111
2.87992e-05
-8.19015e-07
0.00014536
-1.43342e-05
-1.36169e-06
1.45247e-06
-2.46748e-06
-1.2247e-06
-2.32747e-06
0.000186567
-9.78378e-06
-3.97582e-07
1.83139e-06
-1.25909e-06
2.07741e-05
-1.46796e-05
-1.18701e-07
1.86997e-06
-1.09579e-06
-1.84474e-05
-1.05119e-05
9.15939e-06
1.31493e-05
1.07184e-05
-1.44213e-05
2.23697e-05
-1.37938e-06
1.48136e-06
-2.54401e-06
-2.38159e-06
-1.55349e-06
1.61003e-06
-2.80895e-06
-2.667e-06
-1.6379e-06
1.65209e-06
-3.01863e-06
-2.91815e-06
-1.60689e-06
1.53642e-06
-3.2058e-06
-3.12058e-06
-1.41494e-06
1.27681e-06
-3.25982e-06
-3.25621e-06
-1.13927e-06
9.95615e-07
-3.30085e-06
-3.27965e-06
4.03623e-06
-3.32354e-06
8.26829e-07
-4.72834e-06
5.47221e-06
1.02528e-06
8.78465e-07
-6.31786e-06
7.30746e-06
1.43621e-06
1.2127e-06
-8.19511e-06
9.05986e-06
1.51944e-06
1.4886e-06
-9.87043e-06
1.07052e-05
1.89108e-06
1.63934e-06
-1.15508e-05
1.24457e-05
2.55094e-06
2.21517e-06
-1.34267e-05
1.43837e-05
3.39701e-06
2.91996e-06
-1.53814e-05
1.64151e-05
4.6114e-06
3.96844e-06
-1.74515e-05
1.85119e-05
6.32223e-06
5.40277e-06
-1.96175e-05
2.08813e-05
8.46634e-06
7.2732e-06
-2.26298e-05
2.45669e-05
1.09972e-05
9.79041e-06
1.17549e-05
1.76918e-05
-1.40605e-05
-3.83617e-05
2.41771e-05
-2.384e-05
1.47886e-05
1.73327e-05
2.2569e-05
-2.11041e-05
1.01457e-05
1.21293e-05
1.95917e-05
-1.8106e-05
6.93081e-06
8.44995e-06
1.66736e-05
-1.5526e-05
4.52344e-06
5.55786e-06
1.43911e-05
-1.33712e-05
3.10433e-06
3.74486e-06
1.23566e-05
-1.14922e-05
2.37428e-06
2.49868e-06
1.06255e-05
-9.79354e-06
1.87918e-06
2.00415e-06
8.90338e-06
-8.02827e-06
1.46264e-06
1.62925e-06
7.20699e-06
-6.39577e-06
1.15039e-06
1.3103e-06
1.01602e-06
-0.00243738
0.00273801
1.62707e-05
5.02161e-06
-0.00298212
0.00311811
3.10946e-05
2.52659e-05
-0.00320489
0.00325992
3.29264e-05
3.26581e-05
-0.00307095
0.00169135
2.20031e-05
3.08915e-05
-0.00113418
0.000838624
7.50812e-06
1.18077e-05
-0.00066016
0.000532634
1.83486e-06
4.36996e-06
-0.000433145
0.000354685
-5.23078e-06
-1.26415e-06
-0.000288815
0.000235078
-8.6174e-06
-6.7498e-06
-3.64108e-06
1.15988e-06
-0.00110293
8.23998e-06
-1.64225e-05
-0.00111119
-0.0011055
1.56086e-07
-1.48686e-06
-0.00110134
-0.00110137