/*--------------------------------*- C++ -*----------------------------------*\
| =========                 |                                                 |
| \\      /  F ield         | OpenFOAM: The Open Source CFD Toolbox           |
|  \\    /   O peration     | Version:  2212                                  |
|   \\  /    A nd           | Website:  www.openfoam.com                      |
|    \\/     M anipulation  |                                                 |
\*---------------------------------------------------------------------------*/
FoamFile
{
    version     2.0;
    format      ascii;
    arch        "LSB;label=32;scalar=64";
    class       volSymmTensorField;
    location    "0.284";
    object      UPrime2Mean;
}
// * * * * * * * * * * * * * * * * * * * * * * * * * * * * * * * * * * * * * //

dimensions      [0 2 -2 0 0 0 0];

internalField   nonuniform List<symmTensor> 
24240
(
(0.0774442 -0.0259781 -7.17253e-08 0.00905444 2.53604e-08 2.04924e-13)
(0.077416 -0.0259744 -2.13401e-08 0.00905534 1.13361e-08 1.15207e-12)
(0.0774162 -0.0259743 -7.63836e-08 0.00905523 3.20588e-08 3.16711e-12)
(0.0774163 -0.0259742 -6.97265e-08 0.00905512 3.22248e-08 5.75221e-12)
(0.0774164 -0.025974 -1.02791e-07 0.00905496 4.56938e-08 8.72225e-12)
(0.0774165 -0.0259738 -1.13519e-07 0.00905479 5.11459e-08 1.1543e-11)
(0.0774167 -0.0259736 -1.33029e-07 0.00905459 5.93689e-08 1.39988e-11)
(0.0774168 -0.0259733 -1.43175e-07 0.00905438 6.39514e-08 1.57683e-11)
(0.077417 -0.0259731 -1.53733e-07 0.00905416 6.83809e-08 1.67599e-11)
(0.0774172 -0.0259728 -1.59092e-07 0.00905393 7.06222e-08 1.68946e-11)
(0.0774174 -0.0259726 -1.62856e-07 0.00905372 7.1994e-08 1.6242e-11)
(0.0774177 -0.0259724 -1.62176e-07 0.00905351 7.14427e-08 1.49008e-11)
(0.0774179 -0.0259721 -1.60004e-07 0.00905331 7.01082e-08 1.30718e-11)
(0.0774181 -0.025972 -1.52069e-07 0.00905313 6.64131e-08 1.09285e-11)
(0.0774183 -0.0259718 -1.4726e-07 0.00905297 6.36428e-08 8.73194e-12)
(0.0774185 -0.0259717 -1.28619e-07 0.00905283 5.58347e-08 6.57299e-12)
(0.0774186 -0.0259715 -1.28181e-07 0.00905271 5.41811e-08 4.70179e-12)
(0.0774188 -0.0259715 -8.2923e-08 0.00905261 3.69418e-08 2.89219e-12)
(0.0774187 -0.0259714 -8.51859e-08 0.00905258 3.45757e-08 1.41599e-12)
(0.077447 -0.025975 3.7154e-08 0.0090516 -1.01828e-08 1.99807e-13)
(0.00218086 -0.00407651 9.81009e-09 0.00829133 -1.96158e-08 6.88166e-14)
(0.00217596 -0.00407183 1.85477e-08 0.00829232 -3.74396e-08 3.66219e-13)
(0.00217596 -0.00407184 2.68455e-08 0.00829235 -5.44607e-08 8.84919e-13)
(0.00217596 -0.00407186 3.74704e-08 0.00829243 -7.6121e-08 1.65683e-12)
(0.00217596 -0.00407188 4.3811e-08 0.00829253 -8.91144e-08 2.39336e-12)
(0.00217595 -0.00407191 5.01276e-08 0.00829265 -1.02025e-07 3.1457e-12)
(0.00217594 -0.00407195 5.33656e-08 0.00829278 -1.08729e-07 3.698e-12)
(0.00217593 -0.00407198 5.54482e-08 0.00829292 -1.13063e-07 4.07882e-12)
(0.00217593 -0.00407202 5.52879e-08 0.00829307 -1.12861e-07 4.20069e-12)
(0.00217591 -0.00407205 5.38032e-08 0.00829322 -1.09941e-07 4.10425e-12)
(0.0021759 -0.00407209 5.06898e-08 0.00829337 -1.03708e-07 3.792e-12)
(0.00217589 -0.00407212 4.66028e-08 0.00829351 -9.54555e-08 3.3321e-12)
(0.00217588 -0.00407214 4.13954e-08 0.00829364 -8.49218e-08 2.769e-12)
(0.00217586 -0.00407216 3.59823e-08 0.00829376 -7.39146e-08 2.18899e-12)
(0.00217584 -0.00407218 2.95839e-08 0.00829387 -6.09293e-08 1.61533e-12)
(0.00217583 -0.00407219 2.41998e-08 0.00829396 -4.99587e-08 1.1365e-12)
(0.00217581 -0.0040722 1.68935e-08 0.00829404 -3.51429e-08 7.02962e-13)
(0.0021758 -0.0040722 1.23242e-08 0.0082941 -2.58393e-08 3.9327e-13)
(0.00217578 -0.0040722 3.73723e-09 0.00829416 -8.35184e-09 1.32231e-13)
(0.00218068 -0.0040769 -2.73996e-09 0.00829322 5.08e-09 1.99365e-14)
(0.00157555 -0.00397915 -1.63186e-09 0.0128075 7.05456e-09 1.33079e-14)
(0.00157161 -0.0039731 -1.40844e-08 0.0128084 5.05042e-08 2.86411e-13)
(0.00157161 -0.00397312 -2.71476e-08 0.0128083 9.60856e-08 9.66957e-13)
(0.00157161 -0.00397313 -3.59184e-08 0.0128083 1.27931e-07 1.75238e-12)
(0.0015716 -0.00397314 -4.56509e-08 0.0128082 1.62434e-07 2.80045e-12)
(0.00157159 -0.00397316 -5.20124e-08 0.0128082 1.86214e-07 3.72595e-12)
(0.00157159 -0.00397319 -5.75456e-08 0.0128081 2.06861e-07 4.62225e-12)
(0.00157158 -0.00397322 -6.07153e-08 0.0128081 2.19736e-07 5.27819e-12)
(0.00157157 -0.00397325 -6.24436e-08 0.012808 2.2752e-07 5.72507e-12)
(0.00157157 -0.00397328 -6.23103e-08 0.0128079 2.28984e-07 5.88956e-12)
(0.00157156 -0.00397332 -6.07931e-08 0.0128079 2.25463e-07 5.80619e-12)
(0.00157156 -0.00397336 -5.77639e-08 0.0128078 2.16626e-07 5.46949e-12)
(0.00157155 -0.0039734 -5.37364e-08 0.0128077 2.03873e-07 4.94945e-12)
(0.00157154 -0.00397344 -4.85435e-08 0.0128077 1.8681e-07 4.26926e-12)
(0.00157154 -0.00397348 -4.32136e-08 0.0128076 1.68382e-07 3.55295e-12)
(0.00157153 -0.00397351 -3.64157e-08 0.0128076 1.44879e-07 2.75561e-12)
(0.00157152 -0.00397353 -3.11664e-08 0.0128075 1.25164e-07 2.10373e-12)
(0.00157152 -0.00397356 -2.29278e-08 0.0128075 9.52886e-08 1.34072e-12)
(0.00157151 -0.00397357 -1.69728e-08 0.0128074 7.09645e-08 7.42071e-13)
(0.00157543 -0.0039796 -8.62701e-09 0.0128065 3.4161e-08 1.48381e-13)
(0.00205056 0.00479519 -9.74413e-09 0.0123121 -2.56223e-08 6.39006e-14)
(0.00205526 0.00480146 -2.30517e-08 0.012313 -5.98267e-08 3.71411e-13)
(0.00205528 0.00480148 -3.42813e-08 0.0123129 -8.85557e-08 8.52229e-13)
(0.00205531 0.00480151 -4.66195e-08 0.0123129 -1.20488e-07 1.57536e-12)
(0.00205535 0.00480155 -5.65582e-08 0.0123128 -1.46355e-07 2.33548e-12)
(0.0020554 0.0048016 -6.46985e-08 0.0123128 -1.676e-07 3.068e-12)
(0.00205545 0.00480165 -7.00066e-08 0.0123127 -1.81545e-07 3.62312e-12)
(0.00205551 0.00480172 -7.32904e-08 0.0123127 -1.90326e-07 4.00218e-12)
(0.00205557 0.00480178 -7.41268e-08 0.0123126 -1.92784e-07 4.13736e-12)
(0.00205564 0.00480185 -7.30542e-08 0.0123125 -1.90329e-07 4.06359e-12)
(0.0020557 0.00480192 -7.01097e-08 0.0123124 -1.82998e-07 3.79179e-12)
(0.00205577 0.00480199 -6.57132e-08 0.0123124 -1.71887e-07 3.37911e-12)
(0.00205583 0.00480206 -5.99879e-08 0.0123123 -1.57245e-07 2.86431e-12)
(0.00205589 0.00480212 -5.35957e-08 0.0123122 -1.40841e-07 2.32753e-12)
(0.00205594 0.00480219 -4.6331e-08 0.0123121 -1.22037e-07 1.78312e-12)
(0.002056 0.00480224 -3.9324e-08 0.0123121 -1.03855e-07 1.31495e-12)
(0.00205604 0.0048023 -3.16182e-08 0.012312 -8.37739e-08 8.89573e-13)
(0.00205609 0.00480234 -2.44239e-08 0.012312 -6.48381e-08 5.50683e-13)
(0.00205613 0.00480239 -1.27559e-08 0.0123119 -3.39342e-08 2.00377e-13)
(0.00205145 0.00479614 -2.07225e-09 0.012311 -5.42905e-09 2.08386e-14)
(0.00388997 0.00440498 3.28207e-09 0.00590759 4.06819e-09 2.26939e-14)
(0.00389627 0.00440938 1.9449e-08 0.00590799 2.58792e-08 2.86332e-13)
(0.00389625 0.00440937 3.70102e-08 0.005908 5.0227e-08 8.9335e-13)
(0.00389624 0.00440938 4.96145e-08 0.00590803 6.75287e-08 1.63385e-12)
(0.00389622 0.00440939 6.10786e-08 0.00590806 8.32864e-08 2.47549e-12)
(0.00389621 0.0044094 6.99219e-08 0.00590809 9.55342e-08 3.27317e-12)
(0.00389619 0.00440941 7.70018e-08 0.00590813 1.05439e-07 3.97622e-12)
(0.00389617 0.00440942 8.13586e-08 0.00590817 1.11617e-07 4.47284e-12)
(0.00389614 0.00440943 8.35913e-08 0.00590821 1.14943e-07 4.75129e-12)
(0.00389612 0.00440943 8.33891e-08 0.00590825 1.14918e-07 4.77642e-12)
(0.00389609 0.00440944 8.11826e-08 0.00590829 1.12173e-07 4.5786e-12)
(0.00389607 0.00440945 7.70211e-08 0.00590832 1.06678e-07 4.1809e-12)
(0.00389604 0.00440945 7.13544e-08 0.00590835 9.91335e-08 3.64697e-12)
(0.00389602 0.00440946 6.41934e-08 0.00590838 8.94395e-08 3.02038e-12)
(0.00389601 0.00440946 5.62914e-08 0.00590841 7.87647e-08 2.38363e-12)
(0.00389599 0.00440946 4.70142e-08 0.00590843 6.60653e-08 1.75085e-12)
(0.00389599 0.00440947 3.76613e-08 0.00590845 5.3265e-08 1.19646e-12)
(0.00389599 0.00440948 2.69981e-08 0.00590846 3.84743e-08 6.95435e-13)
(0.003896 0.00440949 1.96754e-08 0.00590847 2.83619e-08 3.38098e-13)
(0.00388972 0.00440511 9.44142e-09 0.00590808 1.36531e-08 5.87989e-14)
(0.00721821 0.0064267 -1.36993e-08 0.00586648 -1.2712e-08 4.68675e-14)
(0.00722748 0.00643115 -3.26987e-08 0.00586684 -3.0115e-08 3.17193e-13)
(0.00722753 0.00643115 -4.90218e-08 0.00586681 -4.50173e-08 7.80344e-13)
(0.0072276 0.00643115 -6.5973e-08 0.00586676 -6.05282e-08 1.4294e-12)
(0.00722769 0.00643116 -7.91756e-08 0.0058667 -7.25784e-08 2.11836e-12)
(0.0072278 0.00643117 -9.08101e-08 0.00586663 -8.32251e-08 2.81588e-12)
(0.00722793 0.00643118 -9.86611e-08 0.00586655 -9.03898e-08 3.39302e-12)
(0.00722807 0.00643119 -1.03936e-07 0.00586647 -9.52073e-08 3.82821e-12)
(0.00722821 0.00643121 -1.05859e-07 0.00586638 -9.69394e-08 4.05979e-12)
(0.00722837 0.00643123 -1.0518e-07 0.00586629 -9.6288e-08 4.09673e-12)
(0.00722852 0.00643124 -1.01761e-07 0.00586621 -9.31122e-08 3.93676e-12)
(0.00722867 0.00643126 -9.62703e-08 0.00586612 -8.80394e-08 3.62066e-12)
(0.00722882 0.00643128 -8.86138e-08 0.00586604 -8.09633e-08 3.17404e-12)
(0.00722896 0.0064313 -7.9922e-08 0.00586597 -7.2951e-08 2.66596e-12)
(0.00722909 0.00643133 -6.95346e-08 0.0058659 -6.336e-08 2.1162e-12)
(0.00722921 0.00643135 -5.94881e-08 0.00586585 -5.41069e-08 1.60236e-12)
(0.00722932 0.00643137 -4.73852e-08 0.0058658 -4.29348e-08 1.10209e-12)
(0.00722941 0.00643139 -3.64234e-08 0.00586577 -3.28871e-08 6.76852e-13)
(0.0072295 0.00643141 -1.99222e-08 0.00586574 -1.77686e-08 2.78342e-13)
(0.00722029 0.00642698 -3.81988e-09 0.00586535 -3.19169e-09 3.27252e-14)
(0.00932641 0.0033384 -2.75098e-09 0.00127011 -1.12617e-09 2.27687e-14)
(0.00933681 0.00334049 6.88182e-09 0.0012702 2.71056e-09 1.91772e-13)
(0.00933681 0.0033405 1.88833e-08 0.00127021 7.55962e-09 5.43915e-13)
(0.00933682 0.00334052 2.59662e-08 0.00127022 1.04553e-08 1.0139e-12)
(0.00933684 0.00334054 3.25217e-08 0.00127023 1.31596e-08 1.55413e-12)
(0.00933686 0.00334056 3.72207e-08 0.00127024 1.51468e-08 2.09303e-12)
(0.00933688 0.00334058 4.09999e-08 0.00127026 1.67881e-08 2.57989e-12)
(0.00933691 0.00334061 4.30017e-08 0.00127028 1.77315e-08 2.96002e-12)
(0.00933694 0.00334064 4.38654e-08 0.00127029 1.82332e-08 3.20653e-12)
(0.00933696 0.00334066 4.3263e-08 0.00127031 1.81481e-08 3.29941e-12)
(0.00933699 0.00334069 4.16725e-08 0.00127032 1.76656e-08 3.24181e-12)
(0.00933702 0.00334071 3.89447e-08 0.00127034 1.67056e-08 3.04463e-12)
(0.00933705 0.00334073 3.56814e-08 0.00127035 1.55116e-08 2.73675e-12)
(0.00933708 0.00334075 3.15674e-08 0.00127036 1.39337e-08 2.34682e-12)
(0.00933711 0.00334077 2.75377e-08 0.00127037 1.23553e-08 1.91805e-12)
(0.00933714 0.00334078 2.26121e-08 0.00127038 1.03597e-08 1.47476e-12)
(0.00933717 0.0033408 1.84415e-08 0.00127039 8.61305e-09 1.05157e-12)
(0.0093372 0.00334081 1.34042e-08 0.00127039 6.42896e-09 6.48749e-13)
(0.00933723 0.00334082 1.30218e-08 0.0012704 6.00814e-09 3.05378e-13)
(0.00932686 0.00333874 9.17593e-09 0.00127032 4.00498e-09 4.99206e-14)
(0.0106501 0.00344129 -1.11139e-08 0.00113313 -3.71861e-09 3.73753e-14)
(0.0106614 0.00344326 -2.68463e-08 0.0011332 -8.88807e-09 2.84952e-13)
(0.0106614 0.00344325 -3.95128e-08 0.00113319 -1.30124e-08 7.23816e-13)
(0.0106615 0.00344324 -5.32242e-08 0.00113318 -1.74898e-08 1.33241e-12)
(0.0106616 0.00344323 -6.39838e-08 0.00113316 -2.09781e-08 2.00566e-12)
(0.0106617 0.00344322 -7.40068e-08 0.00113314 -2.42328e-08 2.69638e-12)
(0.0106618 0.00344321 -8.12679e-08 0.00113312 -2.6567e-08 3.30403e-12)
(0.0106619 0.0034432 -8.67476e-08 0.0011331 -2.83175e-08 3.78529e-12)
(0.0106621 0.00344319 -8.9591e-08 0.00113308 -2.91927e-08 4.08155e-12)
(0.0106622 0.00344318 -9.03651e-08 0.00113305 -2.9389e-08 4.18193e-12)
(0.0106624 0.00344317 -8.8669e-08 0.00113303 -2.87687e-08 4.07609e-12)
(0.0106625 0.00344316 -8.51175e-08 0.00113301 -2.75452e-08 3.79387e-12)
(0.0106627 0.00344316 -7.93018e-08 0.00113299 -2.55777e-08 3.36109e-12)
(0.0106628 0.00344315 -7.2357e-08 0.00113297 -2.32549e-08 2.84143e-12)
(0.010663 0.00344315 -6.3328e-08 0.00113295 -2.02515e-08 2.26839e-12)
(0.0106631 0.00344315 -5.42767e-08 0.00113294 -1.7268e-08 1.71154e-12)
(0.0106632 0.00344315 -4.25261e-08 0.00113293 -1.34024e-08 1.17259e-12)
(0.0106633 0.00344315 -3.16677e-08 0.00113292 -9.88351e-09 7.03262e-13)
(0.0106634 0.00344316 -1.6412e-08 0.00113292 -4.939e-09 2.97289e-13)
(0.0106521 0.00344119 -3.12518e-09 0.00113285 -7.95256e-10 3.82759e-14)
(0.011508 -0.000403892 -6.99742e-09 1.79642e-05 4.02892e-10 3.52815e-14)
(0.0115197 -0.000404122 -7.58296e-09 1.79645e-05 6.25005e-10 2.5939e-13)
(0.0115198 -0.000404113 -5.54559e-09 1.79634e-05 7.06561e-10 6.66145e-13)
(0.0115198 -0.000404099 -6.2929e-09 1.79615e-05 8.91339e-10 1.22245e-12)
(0.0115198 -0.000404082 -6.29428e-09 1.79593e-05 1.01531e-09 1.84909e-12)
(0.0115199 -0.000404062 -7.03286e-09 1.79566e-05 1.14362e-09 2.48063e-12)
(0.0115199 -0.00040404 -7.34393e-09 1.79537e-05 1.21826e-09 3.03907e-12)
(0.01152 -0.000404016 -7.92154e-09 1.79505e-05 1.27283e-09 3.47172e-12)
(0.0115201 -0.000403991 -8.17575e-09 1.79473e-05 1.27786e-09 3.73105e-12)
(0.0115202 -0.000403966 -8.48618e-09 1.7944e-05 1.2545e-09 3.80079e-12)
(0.0115202 -0.000403942 -8.435e-09 1.79408e-05 1.1849e-09 3.6788e-12)
(0.0115203 -0.000403918 -8.38466e-09 1.79377e-05 1.09166e-09 3.39148e-12)
(0.0115204 -0.000403897 -7.82972e-09 1.79348e-05 9.55464e-10 2.97431e-12)
(0.0115204 -0.000403876 -7.37806e-09 1.79323e-05 8.12968e-10 2.48153e-12)
(0.0115205 -0.000403858 -5.84688e-09 1.793e-05 6.21214e-10 1.96087e-12)
(0.0115205 -0.000403842 -4.52607e-09 1.7928e-05 4.48494e-10 1.45853e-12)
(0.0115205 -0.000403828 -1.26651e-09 1.79264e-05 2.06682e-10 9.96666e-13)
(0.0115206 -0.000403817 7.75077e-10 1.79252e-05 3.73977e-11 5.92478e-13)
(0.0115206 -0.000403808 6.12603e-09 1.79242e-05 -2.74183e-10 2.62437e-13)
(0.0115089 -0.00040357 7.10951e-09 1.7923e-05 -3.31738e-10 4.03052e-14)
(0.0120419 -0.000650645 -8.75533e-09 3.73012e-05 4.79874e-10 2.79627e-14)
(0.0120539 -0.000651034 -1.5651e-08 3.73067e-05 7.71769e-10 2.13252e-13)
(0.0120539 -0.000651067 -1.98762e-08 3.73101e-05 9.04594e-10 5.53252e-13)
(0.0120539 -0.000651117 -2.634e-08 3.73152e-05 1.18293e-09 1.01642e-12)
(0.0120539 -0.000651179 -3.14874e-08 3.73216e-05 1.39192e-09 1.54177e-12)
(0.0120538 -0.000651254 -3.68437e-08 3.73292e-05 1.62847e-09 2.07273e-12)
(0.0120538 -0.000651337 -4.10033e-08 3.73378e-05 1.80753e-09 2.54683e-12)
(0.0120538 -0.000651427 -4.45897e-08 3.7347e-05 1.97029e-09 2.91561e-12)
(0.0120538 -0.00065152 -4.68443e-08 3.73566e-05 2.07019e-09 3.13964e-12)
(0.0120538 -0.000651614 -4.81354e-08 3.73662e-05 2.13206e-09 3.20116e-12)
(0.0120537 -0.000651706 -4.7914e-08 3.73757e-05 2.12123e-09 3.0979e-12)
(0.0120537 -0.000651794 -4.66603e-08 3.73847e-05 2.06851e-09 2.85007e-12)
(0.0120537 -0.000651875 -4.38316e-08 3.7393e-05 1.93829e-09 2.49052e-12)
(0.0120537 -0.000651947 -4.03741e-08 3.74005e-05 1.78642e-09 2.06729e-12)
(0.0120538 -0.000652011 -3.51236e-08 3.74069e-05 1.5407e-09 1.62111e-12)
(0.0120538 -0.000652063 -2.98256e-08 3.74123e-05 1.3019e-09 1.19607e-12)
(0.0120538 -0.000652105 -2.20528e-08 3.74165e-05 9.25542e-10 8.05456e-13)
(0.0120538 -0.000652135 -1.50431e-08 3.74196e-05 6.03482e-10 4.71867e-13)
(0.0120538 -0.000652156 -5.61953e-09 3.74215e-05 1.44026e-10 2.01852e-13)
(0.0120418 -0.000651793 1.51348e-09 3.74186e-05 -1.66154e-10 2.81231e-14)
(0.0106432 -0.00454289 -1.77179e-08 0.00204233 7.93274e-09 4.52379e-14)
(0.0106544 -0.00454554 -4.76624e-08 0.00204245 2.10118e-08 3.44877e-13)
(0.0106544 -0.00454552 -7.28277e-08 0.00204243 3.18382e-08 8.44839e-13)
(0.0106545 -0.00454549 -9.74643e-08 0.0020424 4.25127e-08 1.53105e-12)
(0.0106545 -0.00454546 -1.17785e-07 0.00204237 5.12536e-08 2.27357e-12)
(0.0106545 -0.00454542 -1.35113e-07 0.00204233 5.87297e-08 3.02099e-12)
(0.0106545 -0.00454537 -1.47736e-07 0.00204229 6.41272e-08 3.658e-12)
(0.0106546 -0.00454532 -1.5613e-07 0.00204225 6.76902e-08 4.13599e-12)
(0.0106546 -0.00454527 -1.59708e-07 0.0020422 6.91272e-08 4.39361e-12)
(0.0106546 -0.00454523 -1.58822e-07 0.00204215 6.86124e-08 4.42066e-12)
(0.0106547 -0.00454518 -1.53442e-07 0.0020421 6.61121e-08 4.21755e-12)
(0.0106547 -0.00454513 -1.44304e-07 0.00204206 6.19677e-08 3.82833e-12)
(0.0106548 -0.00454509 -1.31536e-07 0.00204202 5.62184e-08 3.29403e-12)
(0.0106548 -0.00454505 -1.1643e-07 0.00204198 4.94654e-08 2.69385e-12)
(0.0106548 -0.00454501 -9.86219e-08 0.00204194 4.15268e-08 2.06559e-12)
(0.0106548 -0.00454498 -8.01846e-08 0.00204191 3.33826e-08 1.48736e-12)
(0.0106549 -0.00454496 -5.91967e-08 0.00204189 2.41289e-08 9.57845e-13)
(0.0106549 -0.00454493 -3.9795e-08 0.00204187 1.57527e-08 5.42478e-13)
(0.0106549 -0.00454492 -1.84943e-08 0.00204186 6.53274e-09 2.22654e-13)
(0.0106436 -0.00454226 -3.33659e-09 0.00204172 6.44975e-10 3.0512e-14)
(0.0116005 -0.0047882 -2.52686e-09 0.00208131 1.11618e-09 1.38847e-14)
(0.0116122 -0.00479091 9.13612e-09 0.00208147 -4.34779e-09 1.27438e-13)
(0.0116121 -0.00479091 2.21897e-08 0.00208148 -1.05551e-08 3.73768e-13)
(0.011612 -0.00479091 3.07642e-08 0.0020815 -1.46952e-08 6.94451e-13)
(0.0116119 -0.00479091 3.80811e-08 0.00208153 -1.82954e-08 1.06136e-12)
(0.0116118 -0.00479092 4.31434e-08 0.00208156 -2.08714e-08 1.42247e-12)
(0.0116117 -0.00479092 4.66797e-08 0.00208159 -2.27625e-08 1.74497e-12)
(0.0116115 -0.00479093 4.81673e-08 0.00208163 -2.37053e-08 1.98827e-12)
(0.0116113 -0.00479093 4.81973e-08 0.00208167 -2.39724e-08 2.13666e-12)
(0.0116112 -0.00479094 4.65561e-08 0.0020817 -2.34384e-08 2.17305e-12)
(0.011611 -0.00479094 4.3906e-08 0.00208174 -2.24094e-08 2.10611e-12)
(0.0116109 -0.00479095 3.99456e-08 0.00208178 -2.07243e-08 1.94203e-12)
(0.0116107 -0.00479095 3.55989e-08 0.00208181 -1.88079e-08 1.71166e-12)
(0.0116106 -0.00479095 3.03633e-08 0.00208184 -1.64147e-08 1.43515e-12)
(0.0116105 -0.00479095 2.58304e-08 0.00208186 -1.42561e-08 1.15121e-12)
(0.0116104 -0.00479095 2.11349e-08 0.00208189 -1.19296e-08 8.71274e-13)
(0.0116103 -0.00479095 1.83306e-08 0.0020819 -1.03295e-08 6.16548e-13)
(0.0116102 -0.00479095 1.53668e-08 0.00208192 -8.54795e-09 3.85737e-13)
(0.0116102 -0.00479096 1.21414e-08 0.00208193 -6.73272e-09 1.89823e-13)
(0.0115984 -0.00478825 8.05841e-09 0.00208178 -4.19402e-09 3.3854e-14)
(0.00764806 -0.00769008 -1.91791e-08 0.00806494 2.06579e-08 6.62118e-14)
(0.0076576 -0.00769531 -5.53646e-08 0.00806544 5.88117e-08 5.34434e-13)
(0.0076576 -0.00769529 -8.67763e-08 0.0080654 9.17847e-08 1.31982e-12)
(0.00765761 -0.00769527 -1.16752e-07 0.00806535 1.23306e-07 2.38774e-12)
(0.00765761 -0.00769525 -1.41086e-07 0.00806529 1.48768e-07 3.50054e-12)
(0.00765762 -0.00769521 -1.62006e-07 0.00806522 1.70704e-07 4.62195e-12)
(0.00765763 -0.00769518 -1.77156e-07 0.00806513 1.86515e-07 5.54409e-12)
(0.00765765 -0.00769514 -1.87076e-07 0.00806504 1.96815e-07 6.20337e-12)
(0.00765767 -0.0076951 -1.91161e-07 0.00806495 2.00921e-07 6.50778e-12)
(0.00765769 -0.00769506 -1.89824e-07 0.00806485 1.99291e-07 6.45481e-12)
(0.00765771 -0.00769502 -1.83203e-07 0.00806475 1.92044e-07 6.05825e-12)
(0.00765773 -0.00769499 -1.72113e-07 0.00806466 1.80063e-07 5.39671e-12)
(0.00765775 -0.00769495 -1.5697e-07 0.00806458 1.6377e-07 4.54468e-12)
(0.00765776 -0.00769492 -1.39106e-07 0.0080645 1.4462e-07 3.62566e-12)
(0.00765778 -0.00769489 -1.18504e-07 0.00806443 1.22572e-07 2.69697e-12)
(0.00765779 -0.00769487 -9.71335e-08 0.00806437 9.9841e-08 1.87528e-12)
(0.0076578 -0.00769485 -7.26533e-08 0.00806433 7.38622e-08 1.13325e-12)
(0.0076578 -0.00769483 -4.99522e-08 0.0080643 5.00799e-08 6.01737e-13)
(0.00765784 -0.00769484 -2.66213e-08 0.00806428 2.558e-08 2.26153e-13)
(0.00764826 -0.00768957 -7.84025e-09 0.00806375 6.84661e-09 3.00107e-14)
(0.00801102 -0.00750165 2.33941e-09 0.00786349 -2.35252e-09 1.23844e-14)
(0.00802046 -0.00750682 2.53381e-08 0.00786403 -2.72445e-08 1.99974e-13)
(0.00802037 -0.00750679 4.97668e-08 0.00786405 -5.42069e-08 6.60069e-13)
(0.00802023 -0.00750674 6.78798e-08 0.00786409 -7.40361e-08 1.21993e-12)
(0.00802006 -0.00750668 8.33236e-08 0.00786413 -9.10267e-08 1.84249e-12)
(0.00801985 -0.0075066 9.55486e-08 0.00786418 -1.04665e-07 2.44693e-12)
(0.00801963 -0.00750652 1.04718e-07 0.00786423 -1.15096e-07 2.97272e-12)
(0.00801938 -0.00750643 1.10197e-07 0.00786428 -1.2155e-07 3.34511e-12)
(0.00801912 -0.00750633 1.12448e-07 0.00786434 -1.24565e-07 3.54621e-12)
(0.00801885 -0.00750623 1.1118e-07 0.0078644 -1.23716e-07 3.54391e-12)
(0.00801859 -0.00750613 1.0701e-07 0.00786446 -1.1974e-07 3.36699e-12)
(0.00801833 -0.00750604 9.97492e-08 0.00786451 -1.12335e-07 3.02387e-12)
(0.00801809 -0.00750594 9.04827e-08 0.00786456 -1.02722e-07 2.5855e-12)
(0.00801787 -0.00750586 7.91002e-08 0.00786461 -9.06544e-08 2.08099e-12)
(0.00801767 -0.00750578 6.73307e-08 0.00786465 -7.79872e-08 1.59347e-12)
(0.0080175 -0.00750572 5.51396e-08 0.00786469 -6.45363e-08 1.14084e-12)
(0.00801736 -0.00750567 4.4024e-08 0.00786472 -5.17251e-08 7.57184e-13)
(0.00801726 -0.00750563 3.33227e-08 0.00786473 -3.90731e-08 4.44957e-13)
(0.00801721 -0.00750561 2.24337e-08 0.00786475 -2.67872e-08 2.12036e-13)
(0.00800769 -0.00750041 1.12854e-08 0.00786422 -1.3351e-08 4.14028e-14)
(0.00328341 -0.0076547 -1.57758e-08 0.019089 4.05636e-08 1.07299e-13)
(0.00328953 -0.00766262 -4.44285e-08 0.0190902 1.12553e-07 8.18112e-13)
(0.00328953 -0.00766261 -6.96407e-08 0.0190902 1.7605e-07 2.01747e-12)
(0.00328954 -0.00766261 -9.35685e-08 0.0190901 2.36377e-07 3.63283e-12)
(0.00328955 -0.0076626 -1.12354e-07 0.0190901 2.83486e-07 5.24943e-12)
(0.00328956 -0.00766259 -1.29065e-07 0.01909 3.25637e-07 6.91558e-12)
(0.00328957 -0.00766258 -1.41065e-07 0.0190899 3.55821e-07 8.25471e-12)
(0.00328959 -0.00766257 -1.48983e-07 0.0190898 3.75714e-07 9.19351e-12)
(0.00328961 -0.00766256 -1.52204e-07 0.0190897 3.83662e-07 9.58125e-12)
(0.00328963 -0.00766255 -1.51169e-07 0.0190896 3.80804e-07 9.4313e-12)
(0.00328965 -0.00766254 -1.45995e-07 0.0190895 3.67374e-07 8.76981e-12)
(0.00328967 -0.00766253 -1.37345e-07 0.0190893 3.45094e-07 7.72433e-12)
(0.00328969 -0.00766252 -1.25635e-07 0.0190892 3.14981e-07 6.41665e-12)
(0.00328972 -0.00766251 -1.11854e-07 0.0190891 2.79656e-07 5.03201e-12)
(0.00328974 -0.00766251 -9.59979e-08 0.019089 2.39078e-07 3.65908e-12)
(0.00328976 -0.0076625 -7.94053e-08 0.0190889 1.96927e-07 2.46732e-12)
(0.00328978 -0.0076625 -5.95498e-08 0.0190888 1.46533e-07 1.38529e-12)
(0.00328979 -0.00766249 -4.08038e-08 0.0190887 9.97547e-08 6.58909e-13)
(0.00328982 -0.00766251 -2.06234e-08 0.0190887 4.94055e-08 1.86222e-13)
(0.00328369 -0.00765455 -5.08022e-09 0.0190874 1.11339e-08 1.80974e-14)
(0.00179429 -0.00387796 1.01617e-09 0.0187381 -4.99183e-09 1.45682e-14)
(0.00179739 -0.00388563 1.10931e-08 0.0187393 -5.54186e-08 2.91706e-13)
(0.00179734 -0.00388555 2.26424e-08 0.0187393 -1.14353e-07 1.05128e-12)
(0.00179725 -0.00388542 3.17776e-08 0.0187393 -1.56297e-07 1.94756e-12)
(0.00179715 -0.00388527 4.00959e-08 0.0187393 -1.92683e-07 2.94497e-12)
(0.00179702 -0.00388509 4.71101e-08 0.0187393 -2.24084e-07 3.96445e-12)
(0.00179688 -0.00388488 5.30317e-08 0.0187393 -2.5041e-07 4.91301e-12)
(0.00179672 -0.00388465 5.73092e-08 0.0187393 -2.68443e-07 5.6246e-12)
(0.00179655 -0.00388441 6.02045e-08 0.0187393 -2.7998e-07 6.08813e-12)
(0.00179637 -0.00388415 6.14455e-08 0.0187393 -2.83118e-07 6.20835e-12)
(0.00179618 -0.0038839 6.12133e-08 0.0187393 -2.79526e-07 6.03067e-12)
(0.001796 -0.00388364 5.93911e-08 0.0187393 -2.68168e-07 5.53946e-12)
(0.00179583 -0.0038834 5.62933e-08 0.0187393 -2.51465e-07 4.84937e-12)
(0.00179566 -0.00388317 5.1889e-08 0.0187393 -2.28418e-07 3.98767e-12)
(0.00179551 -0.00388296 4.68762e-08 0.0187393 -2.03063e-07 3.12249e-12)
(0.00179537 -0.00388278 4.12557e-08 0.0187393 -1.74044e-07 2.27942e-12)
(0.00179526 -0.00388263 3.59372e-08 0.0187393 -1.43698e-07 1.55359e-12)
(0.00179517 -0.00388252 3.13186e-08 0.0187392 -1.157e-07 1.0215e-12)
(0.0017951 -0.00388244 2.52179e-08 0.0187392 -8.94077e-08 6.05751e-13)
(0.00179193 -0.00387468 1.16484e-08 0.018738 -4.20431e-08 1.26358e-13)
(0.000302818 0.000705827 1.2101e-09 0.0303404 5.75724e-08 1.51855e-13)
(0.000302296 0.000696261 2.41573e-09 0.0303425 1.48446e-07 1.07496e-12)
(0.000302307 0.000696274 2.99262e-09 0.0303425 2.1786e-07 2.48678e-12)
(0.000302325 0.000696307 4.08391e-09 0.0303425 2.93722e-07 4.54952e-12)
(0.000302346 0.000696331 5.16627e-09 0.0303425 3.59475e-07 6.85646e-12)
(0.000302371 0.000696355 5.87973e-09 0.0303425 4.11997e-07 9.07022e-12)
(0.0003024 0.000696383 6.29893e-09 0.0303424 4.4823e-07 1.08587e-11)
(0.00030243 0.00069641 6.48573e-09 0.0303424 4.70805e-07 1.21057e-11)
(0.000302463 0.000696437 6.36832e-09 0.0303424 4.772e-07 1.26077e-11)
(0.000302496 0.000696463 6.04383e-09 0.0303423 4.70127e-07 1.2405e-11)
(0.00030253 0.000696487 5.47578e-09 0.0303423 4.49453e-07 1.15132e-11)
(0.000302562 0.000696508 4.78067e-09 0.0303422 4.18433e-07 1.01187e-11)
(0.000302593 0.000696525 3.94636e-09 0.0303421 3.77928e-07 8.3694e-12)
(0.000302621 0.000696537 3.13175e-09 0.030342 3.32401e-07 6.53024e-12)
(0.000302646 0.000696542 2.30676e-09 0.030342 2.81915e-07 4.73737e-12)
(0.000302668 0.000696541 1.60899e-09 0.0303419 2.30865e-07 3.19113e-12)
(0.000302686 0.000696535 1.05642e-09 0.0303418 1.74517e-07 1.89543e-12)
(0.000302698 0.000696514 4.65138e-10 0.0303417 1.10378e-07 8.90651e-13)
(0.000302706 0.000696484 -5.54986e-10 0.0303417 3.88938e-08 2.0827e-13)
(0.000303243 0.000706104 -6.35045e-10 0.0303395 2.83214e-09 1.46368e-14)
(0.0129599 0.0196592 -3.18932e-09 0.0310805 -6.68946e-09 5.55561e-14)
(0.0129476 0.0196503 -4.56284e-08 0.0310825 -7.82739e-08 7.55876e-13)
(0.0129477 0.0196504 -8.25669e-08 0.0310824 -1.43488e-07 2.28736e-12)
(0.0129478 0.0196505 -1.07842e-07 0.0310824 -1.90179e-07 4.36003e-12)
(0.012948 0.0196507 -1.4147e-07 0.0310822 -2.49556e-07 7.14576e-12)
(0.0129482 0.0196509 -1.64093e-07 0.0310821 -2.91693e-07 1.00052e-11)
(0.0129485 0.0196511 -1.87196e-07 0.031082 -3.33908e-07 1.29946e-11)
(0.0129488 0.0196514 -2.02518e-07 0.0310819 -3.63519e-07 1.56239e-11)
(0.0129491 0.0196517 -2.14523e-07 0.0310817 -3.87092e-07 1.78233e-11)
(0.0129495 0.019652 -2.19731e-07 0.0310816 -3.99245e-07 1.92796e-11)
(0.0129498 0.0196523 -2.20558e-07 0.0310814 -4.03425e-07 1.99518e-11)
(0.0129502 0.0196527 -2.14983e-07 0.0310813 -3.96518e-07 1.97017e-11)
(0.0129505 0.019653 -2.06014e-07 0.0310812 -3.82891e-07 1.86509e-11)
(0.0129508 0.0196533 -1.90811e-07 0.031081 -3.58265e-07 1.67871e-11)
(0.0129511 0.0196536 -1.75182e-07 0.0310809 -3.31225e-07 1.44441e-11)
(0.0129513 0.0196538 -1.51598e-07 0.0310809 -2.90346e-07 1.15743e-11)
(0.0129515 0.019654 -1.32952e-07 0.0310808 -2.55294e-07 8.75717e-12)
(0.0129517 0.0196542 -1.00513e-07 0.0310807 -1.97207e-07 5.71255e-12)
(0.0129518 0.0196544 -6.89856e-08 0.0310808 -1.38933e-07 3.01517e-12)
(0.0129642 0.0196634 -3.44815e-08 0.0310787 -6.68556e-08 5.36192e-13)
(0.0171809 0.0163146 2.18471e-08 0.0158238 2.11823e-08 1.32669e-13)
(0.0171667 0.0163088 5.59555e-08 0.0158257 5.54822e-08 1.09715e-12)
(0.0171668 0.0163089 1.11744e-07 0.0158257 1.10906e-07 3.16766e-12)
(0.0171669 0.016309 1.67074e-07 0.0158258 1.65685e-07 6.1088e-12)
(0.0171671 0.0163092 2.01901e-07 0.015826 2.00447e-07 9.14626e-12)
(0.0171673 0.0163094 2.34199e-07 0.0158262 2.32564e-07 1.22308e-11)
(0.0171675 0.0163096 2.52762e-07 0.0158265 2.51319e-07 1.47188e-11)
(0.0171677 0.0163099 2.65259e-07 0.0158268 2.63991e-07 1.65294e-11)
(0.0171679 0.0163101 2.67066e-07 0.0158271 2.6619e-07 1.73291e-11)
(0.0171682 0.0163104 2.61914e-07 0.0158274 2.61424e-07 1.71538e-11)
(0.0171684 0.0163106 2.4831e-07 0.0158277 2.48322e-07 1.60004e-11)
(0.0171686 0.0163109 2.29566e-07 0.015828 2.29998e-07 1.41149e-11)
(0.0171688 0.0163111 2.04526e-07 0.0158282 2.05416e-07 1.17021e-11)
(0.017169 0.0163113 1.7843e-07 0.0158285 1.79577e-07 9.16992e-12)
(0.0171691 0.0163115 1.48362e-07 0.0158287 1.49798e-07 6.70763e-12)
(0.0171692 0.0163116 1.24207e-07 0.0158289 1.25553e-07 4.65572e-12)
(0.0171693 0.0163117 9.47563e-08 0.0158291 9.61665e-08 2.90391e-12)
(0.0171693 0.0163118 7.92237e-08 0.0158292 8.02083e-08 1.63835e-12)
(0.0171693 0.0163119 6.31349e-08 0.0158294 6.35281e-08 7.16787e-13)
(0.0171836 0.0163178 2.06161e-08 0.0158276 2.10538e-08 1.03256e-13)
(0.217587 0.0588278 -1.52613e-07 0.0165106 -5.10446e-08 6.92902e-13)
(0.217542 0.0588241 -1.55872e-07 0.016512 -5.38039e-08 2.70253e-12)
(0.217545 0.0588239 -1.13682e-07 0.0165117 -4.52189e-08 6.79628e-12)
(0.217546 0.0588237 -1.41734e-08 0.0165115 -2.27311e-08 1.24577e-11)
(0.217546 0.0588234 -4.15544e-08 0.0165112 -3.4912e-08 1.91161e-11)
(0.217547 0.0588231 -3.86937e-08 0.0165109 -3.84813e-08 2.58866e-11)
(0.217549 0.0588227 -7.25981e-08 0.0165106 -5.18861e-08 3.21094e-11)
(0.21755 0.0588223 -9.60607e-08 0.0165102 -6.16567e-08 3.7074e-11)
(0.217551 0.0588218 -1.31525e-07 0.0165098 -7.40998e-08 4.0329e-11)
(0.217553 0.0588214 -1.61656e-07 0.0165093 -8.41404e-08 4.15601e-11)
(0.217555 0.058821 -1.95181e-07 0.0165089 -9.42969e-08 4.07657e-11)
(0.217556 0.0588206 -2.20729e-07 0.0165085 -1.01224e-07 3.81151e-11)
(0.217558 0.0588202 -2.47519e-07 0.0165081 -1.07627e-07 3.40417e-11)
(0.217559 0.0588199 -2.57159e-07 0.0165077 -1.08196e-07 2.90023e-11)
(0.217561 0.0588196 -2.71766e-07 0.0165074 -1.09428e-07 2.35677e-11)
(0.217562 0.0588193 -2.41757e-07 0.0165071 -9.7357e-08 1.79953e-11)
(0.217563 0.0588191 -2.37696e-07 0.0165069 -9.14644e-08 1.27819e-11)
(0.217564 0.0588189 -9.68873e-08 0.0165066 -4.68877e-08 7.86628e-12)
(0.217563 0.0588189 6.0747e-09 0.0165067 -9.98988e-09 4.14328e-12)
(0.217608 0.0588224 9.78395e-08 0.0165051 2.76237e-08 7.819e-13)
(0.00779819 -0.00554331 -1.66596e-08 0.00617239 2.13578e-08 3.21364e-13)
(0.00779298 -0.00553974 -2.6166e-08 0.00617304 1.85725e-08 2.09211e-12)
(0.00779305 -0.00553971 -4.57791e-08 0.00617293 3.63319e-08 5.83465e-12)
(0.00779304 -0.00553962 -5.77429e-08 0.00617281 4.21433e-08 1.075e-11)
(0.00779304 -0.00553951 -7.60385e-08 0.00617265 5.8183e-08 1.65039e-11)
(0.00779303 -0.00553937 -8.89358e-08 0.00617246 6.71834e-08 2.21415e-11)
(0.00779303 -0.00553922 -1.02387e-07 0.00617223 7.86084e-08 2.72352e-11)
(0.00779302 -0.00553905 -1.12479e-07 0.00617199 8.624e-08 3.1168e-11)