/*--------------------------------*- C++ -*----------------------------------*\
| =========                 |                                                 |
| \\      /  F ield         | OpenFOAM: The Open Source CFD Toolbox           |
|  \\    /   O peration     | Version:  2212                                  |
|   \\  /    A nd           | Website:  www.openfoam.com                      |
|    \\/     M anipulation  |                                                 |
\*---------------------------------------------------------------------------*/
FoamFile
{
    version     2.0;
    format      ascii;
    arch        "LSB;label=32;scalar=64";
    class       volScalarField;
    location    "0.0305";
    object      epsilon;
}
// * * * * * * * * * * * * * * * * * * * * * * * * * * * * * * * * * * * * * //

dimensions      [0 2 -3 0 0 0 0];

internalField   nonuniform List<scalar> 
7220
(
3.39761e+07
6.72668e+06
6.33534e+06
4.60592e+06
5.21151e+06
4.89746e+06
6.26588e+06
5.12246e+06
4.56413e+06
4.83668e+06
9.3638e+07
1.42193e+09
4.71107e+07
2.19074e+08
5.5851e+08
8.2598e+08
1.10334e+09
3.90741e+07
5.87144e+08
3.98133e+07
1.02067e+08
1.25762e+08
731638
2.6595e+08
2.71534e+07
3.44319e+08
2.34486e+09
8.67297e+07
1.22484e+08
1.75764e+08
1.21646e+07
1.31005e+08
3.60404e+06
1.95755e+08
5.37041e+07
1.41175e+07
1.04475e+07
1.24038e+08
9.26139e+07
1.00652e+07
1.0044e+07
1.00436e+07
1.00648e+07
1.12171e+07
1.14243e+07
1.11466e+07
1.09824e+07
1.08483e+07
1.00256e+07
1.00103e+07
1.00098e+07
1.00251e+07
9.99831e+06
9.98987e+06
9.98921e+06
9.99769e+06
9.9853e+06
9.98521e+06
9.98427e+06
9.98463e+06
9.98949e+06
9.99881e+06
9.99772e+06
9.98851e+06
1.00136e+07
1.00344e+07
1.00331e+07
1.00124e+07
1.00619e+07
1.00966e+07
1.00948e+07
1.00603e+07
1.01394e+07
1.01913e+07
1.01884e+07
1.01372e+07
1.02531e+07
1.03264e+07
1.03205e+07
1.02493e+07
1.04128e+07
1.05142e+07
1.04975e+07
1.0403e+07
1.07216e+07
1.06033e+07
1.06335e+07
1.07706e+07
1.09251e+07
1.11246e+07
1.00891e+07
1.00887e+07
1.05312e+07
1.0554e+07
1.16412e+07
1.13281e+07
1.10934e+07
1.12685e+07
1.11178e+07
1.08835e+07
1.09907e+07
1.07192e+07
1.07935e+07
1.06072e+07
1.06578e+07
1.05326e+07
1.05658e+07
1.04877e+07
1.05068e+07
1.0467e+07
1.04746e+07
1.0466e+07
1.04641e+07
1.04822e+07
1.04722e+07
1.05127e+07
1.04958e+07
1.05553e+07
1.05326e+07
1.04941e+07
1.05111e+07
1.04701e+07
1.04803e+07
1.04616e+07
1.04637e+07
1.04713e+07
1.0464e+07
1.05026e+07
1.0484e+07
1.05599e+07
1.05277e+07
1.06489e+07
1.06001e+07
1.07747e+07
1.0707e+07
1.09371e+07
1.08517e+07
1.10283e+07
1.12682e+07
1.05806e+07
1.05795e+07
1.20413e+07
1.19906e+07
1.18702e+07
1.14554e+07
1.14388e+07
1.16241e+07
1.24238e+07
1.21733e+07
1.18176e+07
1.26204e+07
1.20886e+07
1.2245e+07
1.18475e+07
1.19573e+07
1.16831e+07
1.17562e+07
1.15761e+07
1.16239e+07
1.15084e+07
1.15381e+07
1.14706e+07
1.14862e+07
1.14571e+07
1.14611e+07
1.14626e+07
1.14571e+07
1.14855e+07
1.14722e+07
1.15225e+07
1.15024e+07
1.15713e+07
1.15455e+07
1.06083e+07
1.16302e+07
1.15996e+07
1.01151e+07
1.01154e+07
1.15974e+07
1.16283e+07
1.06073e+07
1.15429e+07
1.1569e+07
1.14993e+07
1.15197e+07
1.14685e+07
1.14822e+07
1.1453e+07
1.14587e+07
1.14553e+07
1.14517e+07
1.14787e+07
1.14641e+07
1.15276e+07
1.14997e+07
1.16072e+07
1.15632e+07
1.17213e+07
1.166e+07
1.18615e+07
1.17896e+07
1.19319e+07
1.26905e+07
1.24389e+07
1.35111e+07
1.34435e+07
1.06383e+07
1.1663e+07
1.322e+07
1.32554e+07
1.15412e+07
1.29557e+07
1.21249e+07
1.20256e+07
1.39529e+07
1.43526e+07
1.40869e+07
1.2832e+07
1.36261e+07
1.41566e+07
1.36148e+07
1.37715e+07
1.33746e+07
1.34828e+07
1.3218e+07
1.32871e+07
1.31225e+07
1.31647e+07
1.30658e+07
1.309e+07
1.3039e+07
1.30491e+07
1.30359e+07
1.3035e+07
1.30523e+07
1.30418e+07
1.30853e+07
1.30669e+07
1.31321e+07
1.31071e+07
1.31905e+07
1.31599e+07
1.32584e+07
1.32234e+07
1.01437e+07
1.0144e+07
1.16613e+07
1.06374e+07
1.3156e+07
1.31868e+07
1.31026e+07
1.31278e+07
1.30616e+07
1.30804e+07
1.30354e+07
1.30465e+07
1.30266e+07
1.30287e+07
1.30381e+07
1.30296e+07
1.3074e+07
1.30527e+07
1.31391e+07
1.31026e+07
1.32343e+07
1.31834e+07
1.33455e+07
1.32901e+07
1.33932e+07
1.38389e+07
1.32955e+07
1.32929e+07
1.16678e+07
1.32488e+07
1.46384e+07
1.17858e+07
1.43812e+07
1.56698e+07
1.5604e+07
1.57705e+07
1.30641e+07
1.56212e+07
1.56642e+07
1.16964e+07
1.33324e+07
1.22694e+07
1.2415e+07
1.49423e+07
1.35754e+07
1.74756e+07
1.72136e+07
1.52668e+07
1.19043e+07
1.65889e+07
1.61503e+07
1.63575e+07
1.58183e+07
1.59704e+07
1.55905e+07
1.56921e+07
1.54516e+07
1.55117e+07
1.53724e+07
1.54061e+07
1.53323e+07
1.53484e+07
1.53207e+07
1.53232e+07
1.53325e+07
1.53241e+07
1.53632e+07
1.53456e+07
1.54097e+07
1.53846e+07
1.54697e+07
1.54382e+07
1.5541e+07
1.55041e+07
1.55801e+07
1.33347e+07
1.06706e+07
1.1698e+07
1.01745e+07
1.01748e+07
1.06696e+07
1.56605e+07
1.55754e+07
1.5617e+07
1.54986e+07
1.55358e+07
1.5432e+07
1.54639e+07
1.53774e+07
1.54031e+07
1.5337e+07
1.53553e+07
1.5313e+07
1.53228e+07
1.53084e+07
1.53081e+07
1.53266e+07
1.53144e+07
1.5371e+07
1.53454e+07
1.54397e+07
1.5403e+07
1.55167e+07
1.54794e+07
1.55565e+07
1.61846e+07
1.59551e+07
1.67123e+07
1.64402e+07
1.69798e+07
1.46259e+07
1.57092e+07
1.57059e+07
1.87097e+07
1.86521e+07
1.87926e+07
2.00279e+07
1.33414e+07
1.20658e+07
1.27475e+07
1.56315e+07
1.24801e+07
2.05924e+07
1.96481e+07
1.39387e+07
1.6841e+07
1.99071e+07
1.79515e+07
1.92123e+07
1.94154e+07
1.8898e+07
1.90406e+07
1.86954e+07
1.87834e+07
1.85789e+07
1.86282e+07
1.85218e+07
1.85448e+07
1.8503e+07
1.85086e+07
1.85115e+07
1.85042e+07
1.85423e+07
1.85244e+07
1.85911e+07
1.85646e+07
1.86549e+07
1.86213e+07
1.87314e+07
1.86917e+07
1.88187e+07
1.87738e+07
1.89144e+07
1.88656e+07
1.90169e+07
1.89648e+07
1.90706e+07
1.3376e+07
1.57559e+07
1.07048e+07
1.17351e+07
1.02074e+07
1.02077e+07
1.17336e+07
1.0704e+07
1.57531e+07
1.33739e+07
1.90669e+07
1.89598e+07
1.90125e+07
1.88594e+07
1.89086e+07
1.87667e+07
1.88119e+07
1.86837e+07
1.87239e+07
1.8612e+07
1.86463e+07
1.85535e+07
1.85809e+07
1.85104e+07
1.85298e+07
1.84852e+07
1.84953e+07
1.84807e+07
1.84801e+07
1.84974e+07
1.84867e+07
1.8529e+07
1.85126e+07
1.85758e+07
1.85497e+07
1.86091e+07
1.9162e+07
1.89527e+07
1.96461e+07
1.93981e+07
1.98764e+07
1.71162e+07
1.48915e+07
1.21768e+07
2.0193e+07
2.29002e+07
2.28533e+07
2.29683e+07
2.35463e+07
2.36081e+07
1.58022e+07
1.91229e+07
1.23842e+07
1.31232e+07
1.43406e+07
2.12237e+07
2.50132e+07
2.5639e+07
2.1805e+07
1.74322e+07
1.35804e+07
1.60803e+07
1.27164e+07
2.05243e+07
1.85095e+07
2.43994e+07
2.38457e+07
2.41104e+07
2.34278e+07
2.36176e+07
2.31474e+07
2.32719e+07
2.29757e+07
2.30496e+07
2.28899e+07
2.29243e+07
2.2861e+07
2.28708e+07
2.28687e+07
2.28617e+07
2.29019e+07
2.28824e+07
2.29559e+07
2.29266e+07
2.30265e+07
2.29893e+07
2.31109e+07
2.30671e+07
2.3207e+07
2.31576e+07
2.33129e+07
2.32588e+07
2.34267e+07
2.3369e+07
2.34859e+07
1.91261e+07
1.34192e+07
1.58046e+07
1.0741e+07
1.17741e+07
1.02422e+07
1.02425e+07
1.17727e+07
1.07402e+07
1.34172e+07
2.36033e+07
2.34792e+07
2.35407e+07
2.33611e+07
2.34194e+07
2.325e+07
2.33046e+07
2.31477e+07
2.31976e+07
2.30555e+07
2.31003e+07
2.29753e+07
2.30138e+07
2.29091e+07
2.29403e+07
2.28589e+07
2.28818e+07
2.28269e+07
2.28405e+07
2.28078e+07
2.2817e+07
2.27917e+07
2.28013e+07
2.28041e+07
2.27943e+07
2.28227e+07
2.32898e+07
2.31049e+07
2.36812e+07
2.34917e+07
2.38959e+07
2.38074e+07
2.42359e+07
1.5167e+07
2.47291e+07
2.36711e+07
2.36673e+07
2.86299e+07
2.86605e+07
2.09398e+07
1.78479e+07
1.24489e+07
1.27477e+07
1.35341e+07
1.47904e+07
2.62459e+07
2.24083e+07
3.9594e+07
1.90728e+07
5.16186e+06
1.65935e+07
2.51371e+07
3.08545e+07
3.01494e+07
3.04674e+07
2.96055e+07
2.98638e+07
2.9224e+07
2.93945e+07
2.89892e+07
2.90921e+07
2.88607e+07
2.89176e+07
2.88123e+07
2.88297e+07
2.88184e+07
2.88126e+07
2.88564e+07
2.88338e+07
2.89185e+07
2.88849e+07
2.89994e+07
2.89569e+07
2.90951e+07
2.90456e+07
2.92027e+07
2.91475e+07
2.93203e+07
2.92603e+07
2.94467e+07
2.93825e+07
2.95799e+07
2.95124e+07
2.97179e+07
2.96485e+07
2.98593e+07
2.97881e+07
2.99314e+07
1.91832e+07
2.37357e+07
1.34643e+07
1.58553e+07
1.0779e+07
1.18149e+07
1.02787e+07
1.0279e+07
1.18136e+07
1.07782e+07
1.5853e+07
1.34625e+07
2.37326e+07
1.91805e+07
2.99278e+07
2.97821e+07
2.98546e+07
2.96402e+07
2.97107e+07
2.95029e+07
2.9571e+07
2.9372e+07
2.94367e+07
2.92484e+07
2.93092e+07
2.91335e+07
2.91898e+07
2.90285e+07
2.90796e+07
2.89357e+07
2.89805e+07
2.88563e+07
2.88942e+07
2.87924e+07
2.88227e+07
2.87368e+07
2.87652e+07
2.86655e+07
2.87041e+07
2.86186e+07
2.86421e+07
2.86185e+07
2.89711e+07
2.87089e+07
2.8819e+07
2.92555e+07
2.91256e+07
2.95758e+07
2.93812e+07
3.04426e+07
2.9894e+07
3.16254e+07
3.10332e+07
3.36748e+07
3.29584e+07
2.68924e+07
3.22593e+07
1.55832e+07
5.12163e+06
2.56268e+07
3.13278e+07
1.27635e+07
5.97221e+06
3.83009e+07
3.83794e+07
2.37993e+07
3.00023e+07
1.31489e+07
2.75953e+07
1.39845e+07
2.30666e+07
1.96833e+07
1.52936e+07
1.71545e+07
5.42955e+06
6.27371e+06
7.59519e+06
8.82402e+06
2.75831e+07
1.15487e+07
2.14484e+07
1.83867e+07
7.29987e+06
2.19982e+07
4.15114e+07
4.05437e+07
1.37053e+07
1.46826e+07
2.61677e+07
6.04813e+06
3.18603e+07
1.70614e+07
2.6746e+07
3.24363e+07
5.78367e+06
4.24663e+07
3.30408e+07
4.09221e+07
4.14236e+07
3.96818e+07
4.02684e+07
3.87189e+07
3.91667e+07
3.80695e+07
3.83609e+07
3.75572e+07
3.77939e+07
3.72413e+07
3.7373e+07
3.70566e+07
3.71307e+07
3.6984e+07
3.70104e+07
3.69816e+07
3.69768e+07
3.70214e+07
3.69959e+07
3.70945e+07
3.70548e+07
3.71887e+07
3.71392e+07
3.72988e+07
3.72421e+07
3.7421e+07
3.73586e+07
3.75526e+07
3.74858e+07
3.7692e+07
3.76214e+07
3.78379e+07
3.77643e+07
3.79896e+07
3.79132e+07
3.81445e+07
3.80669e+07
3.82226e+07
3.00048e+07
1.92421e+07
2.3802e+07
1.3511e+07
1.59076e+07
1.08186e+07
1.18574e+07
1.0317e+07
1.03172e+07
1.18562e+07
1.08179e+07
1.59055e+07
1.35094e+07
1.92398e+07
3.83753e+07
3.82155e+07
3.82951e+07
3.80572e+07
3.8136e+07
3.79024e+07
3.79793e+07
3.77522e+07
3.78265e+07
3.76075e+07
3.76791e+07
3.7469e+07
3.75374e+07
3.73382e+07
3.74026e+07
3.72166e+07
3.72761e+07
3.71055e+07
3.71598e+07
3.7006e+07
3.70539e+07
3.6908e+07
3.69579e+07
3.6785e+07
3.68533e+07
3.66522e+07
3.67161e+07
3.65935e+07
3.66138e+07
3.66326e+07
3.66026e+07
3.68121e+07
3.67075e+07
3.70144e+07
3.69032e+07
3.7386e+07
3.71605e+07
3.81038e+07
3.7681e+07
3.91754e+07
3.86203e+07
3.98159e+07
5.46977e+06
6.73183e+06
9.25882e+06
1.61879e+07
1.3102e+07
4.75445e+06
8.81401e+07
7.36452e+07
3.42238e+07
3.84589e+07
3.84561e+07
7.26229e+06
1.89499e+07
1.51995e+07
1.41409e+07
1.31362e+07
2.83346e+07
1.31665e+07
2.25688e+07
5.12872e+07
5.24103e+07
4.3745e+07
1.35937e+07
2.3797e+07
2.03588e+07
2.73545e+07
1.18753e+10
1.44878e+07
1.67682e+08
3.37221e+07
1.01123e+07
1.58552e+07
1.77747e+07
4.28073e+06
4.10517e+06
3.53878e+07
4.50036e+06
3.88183e+06
8.28871e+06
5.20941e+07
5.22789e+07
5.05577e+07
5.12028e+07
4.96569e+07
5.00569e+07
4.90991e+07
4.93489e+07
4.86626e+07
4.88655e+07
4.84038e+07
4.85045e+07
4.82946e+07
4.83331e+07
4.8283e+07
4.82801e+07
4.83204e+07
4.82947e+07
4.84039e+07
4.83576e+07
4.8514e+07
4.84566e+07
4.86409e+07
4.85755e+07
4.87793e+07
4.87088e+07
4.8926e+07
4.88518e+07
4.90788e+07
4.90018e+07
4.92358e+07
4.91567e+07
4.93966e+07
4.93157e+07
4.95605e+07
4.94782e+07
4.97258e+07
4.96428e+07
4.98902e+07
4.98082e+07
5.00535e+07
4.99719e+07
5.01353e+07
3.00802e+07
3.85394e+07
1.93027e+07
2.38697e+07
1.35593e+07
1.59614e+07
1.08597e+07
1.19014e+07
1.03568e+07
1.0357e+07
1.19004e+07
1.08591e+07
1.59596e+07
1.35579e+07
2.38676e+07
1.93007e+07
3.85374e+07
3.00779e+07
5.0133e+07
4.99669e+07
5.00501e+07
4.97999e+07
4.98835e+07
4.96326e+07
4.97162e+07
4.94663e+07
4.95492e+07
4.93023e+07
4.9384e+07
4.91409e+07
4.92213e+07
4.89825e+07
4.90612e+07
4.8828e+07
4.89047e+07
4.8679e+07
4.87528e+07
4.85353e+07
4.86063e+07
4.83987e+07
4.84666e+07
4.82567e+07
4.83283e+07
4.80705e+07
4.81709e+07
4.78386e+07
4.79461e+07
4.76805e+07
4.77488e+07
4.76522e+07
4.7646e+07
4.77294e+07
4.76798e+07
4.78987e+07
4.78038e+07
4.82585e+07
4.80536e+07
4.88761e+07
4.85301e+07
4.98849e+07
4.93519e+07
5.05156e+07
5.18707e+06
6.02917e+06
5.67247e+07
8.86053e+06
8.4225e+06
1.67487e+07
1.34702e+07
3.77487e+06
2.98583e+07
2.90794e+07
6.56911e+06
2.74223e+06
6.95273e+06
1.95137e+07
6.65332e+07
6.76939e+07
5.42931e+07
1.35711e+07
1.57001e+07
1.46003e+07
4.1045e+06
2.46004e+07
8.75243e+06
6.61025e+07
6.61769e+07
3.86201e+07
5.02165e+07
2.11162e+07
3.63976e+07
2.31738e+07
4.66858e+07
4.59303e+06
7.84598e+06
9.89063e+06
1.26504e+07
1.94751e+06
1.40957e+07
4.14145e+06
3.04377e+06
4.61998e+06
6.48287e+07
5.93083e+06
8.35686e+06
2.80427e+07
4.10481e+07
9.92288e+06
9.37169e+06
7.20123e+06
7.71272e+06
1.04224e+07
1.50539e+07
1.84675e+07
3.47271e+07
3.71254e+06
1.64849e+07
2.42053e+06
2.52043e+06
4.0153e+06
4.46272e+07
3.55174e+06
3.023e+06
3.3757e+06
3.19158e+06
3.10398e+07
1.09838e+07
3.70141e+07
2.59635e+07
6.69427e+07
6.75255e+07
6.58357e+07
6.63631e+07
6.50932e+07
6.54128e+07
6.46861e+07
6.48502e+07
6.43322e+07
6.4485e+07
6.41535e+07
6.42124e+07
6.41199e+07
6.41196e+07
6.41542e+07
6.41314e+07
6.42426e+07
6.41918e+07
6.43679e+07
6.43024e+07
6.4511e+07
6.44377e+07
6.46645e+07
6.4587e+07
6.48241e+07
6.47439e+07
6.49864e+07
6.4905e+07
6.51495e+07
6.50681e+07
6.53124e+07
6.52311e+07
6.54744e+07
6.53935e+07
6.56354e+07
6.5555e+07
6.57953e+07
6.57156e+07
6.59514e+07
6.58739e+07
6.60275e+07
5.02178e+07
3.01565e+07
3.86217e+07
1.93648e+07
2.39393e+07
1.3609e+07
1.60168e+07
1.09023e+07
1.19469e+07
1.0398e+07
1.03982e+07
1.1946e+07
1.09018e+07
1.60153e+07
1.36077e+07
2.39376e+07
1.93629e+07
3.01548e+07
6.61739e+07
6.60217e+07
6.60983e+07
6.58651e+07
6.59437e+07
6.57052e+07
6.57855e+07
6.5543e+07
6.56242e+07
6.53793e+07
6.54612e+07
6.52138e+07
6.52968e+07
6.50467e+07
6.51305e+07
6.48783e+07
6.49625e+07
6.47097e+07
6.4794e+07
6.45405e+07
6.46248e+07
6.43673e+07
6.4455e+07
6.41755e+07
6.42768e+07
6.39191e+07
6.40593e+07
6.35806e+07
6.37488e+07
6.32963e+07
6.34227e+07
6.31559e+07
6.32014e+07
6.31818e+07
6.31569e+07
6.33097e+07
6.32244e+07
6.36541e+07
6.34389e+07
6.42454e+07
6.39044e+07
6.51453e+07
6.46524e+07
6.57372e+07
7.63273e+06
9.59254e+06
8.97767e+06
9.33167e+06
1.55158e+06
1.0753e+07
1.80467e+07
1.72891e+07
9.1033e+07
6.93549e+07
1.39037e+07
6.24199e+06
4.56789e+06
4.32984e+06
5.6882e+06
4.87175e+06
5.25805e+06
3.26235e+06
7.08075e+06
6.46898e+09
2.54953e+07
6.05926e+07
5.63851e+06
6.62499e+07
6.62488e+07
2.19688e+07
1.17127e+07
6.61207e+06
8.45866e+06
7.60271e+06
1.7245e+07
2.00988e+07
1.15134e+07
5.66643e+07
1.342e+07
1.03585e+07
1.39478e+07
1.06805e+07
4.25589e+06
1.40713e+07
1.62316e+07
1.51113e+07
3.11705e+06
4.26623e+06
3.42934e+06
3.66526e+06
4.63564e+06
6.3014e+06
6.49647e+06
4.80975e+06
5.31602e+06
3.6754e+06
1.21099e+07
1.291e+07
1.23413e+07
9.29137e+06
1.7434e+07
8.76514e+06
2.38426e+07
4.85464e+07
1.0052e+07
8.09084e+06
3.45321e+07
1.46675e+07
2.39433e+06
4.51455e+06
3.40542e+06
3.49879e+06
1.92507e+07
2.89211e+07
8.55422e+07
4.2832e+07
1.11326e+07
6.08932e+06
6.59961e+06
7.81674e+06
5.93446e+06
8.21735e+06
3.2615e+06
1.56946e+07
2.17144e+06
2.02789e+06
2.64077e+06
2.64816e+06
7.35104e+07
7.89331e+07
1.7195e+07
3.61213e+07
3.09769e+06
2.24602e+06
1.95593e+06
2.15576e+06
3.94675e+06
4.6944e+07
2.94512e+06
6.165e+06
3.36465e+06
3.06605e+06
2.76964e+06
2.69592e+06
3.25879e+07
2.64973e+07
1.20546e+08
2.42156e+06
3.78258e+06
3.90112e+07
2.51341e+09
8.8463e+07
8.8812e+07
8.77222e+07
8.81301e+07
8.72129e+07
8.7474e+07
8.69576e+07
8.70536e+07
8.67399e+07
8.68353e+07
8.66499e+07
8.6673e+07
8.66781e+07
8.66568e+07
8.67608e+07
8.67096e+07
8.68952e+07
8.68252e+07
8.70479e+07
8.69702e+07
8.72094e+07
8.71282e+07
8.73713e+07
8.72905e+07
8.75311e+07
8.74516e+07
8.76863e+07
8.76094e+07
8.78349e+07
8.77615e+07
8.79762e+07
8.79065e+07
8.81099e+07
8.8044e+07
8.82365e+07
8.8174e+07
8.83577e+07
8.82978e+07
8.84707e+07
8.84155e+07
8.85741e+07
8.85237e+07
8.8668e+07
8.8623e+07
8.87086e+07
5.03014e+07
6.63228e+07
3.02348e+07
3.87051e+07
1.94282e+07
2.40102e+07
1.366e+07
1.60734e+07
1.09463e+07
1.19936e+07
1.04405e+07
1.04407e+07
1.19928e+07
1.09458e+07
1.60721e+07
1.3659e+07
2.40087e+07
1.94267e+07
3.87038e+07
3.02333e+07
6.63243e+07
5.03015e+07
8.87138e+07
8.86184e+07
8.86665e+07
8.85175e+07
8.85687e+07
8.84072e+07
8.84633e+07
8.82888e+07
8.83492e+07
8.81632e+07
8.82268e+07
8.80301e+07
8.80975e+07
8.78892e+07
8.79606e+07
8.77395e+07
8.78154e+07
8.75809e+07
8.76613e+07
8.74141e+07
8.74986e+07
8.7236e+07
8.7327e+07
8.70379e+07
8.71405e+07
8.68108e+07
8.69284e+07
8.6482e+07
8.66654e+07
8.60011e+07
8.62484e+07
8.55763e+07
8.57754e+07
8.5335e+07
8.54277e+07
8.53503e+07
8.53391e+07
8.54661e+07
8.53737e+07
8.58038e+07
8.56162e+07
8.63224e+07
8.60178e+07
8.71007e+07
8.66626e+07
8.84261e+07
8.7653e+07
8.95584e+07
2.29284e+07
1.06387e+08
1.20787e+07
1.34603e+07
6.75703e+06
9.83158e+06
7.05744e+06
1.17724e+07
1.24449e+07
1.21601e+07
1.30933e+07
1.2671e+07
1.47588e+07
1.39911e+07
1.57193e+07
1.78498e+07
7.12976e+07
1.004e+08
4.01876e+06
1.44053e+07
3.24789e+06
3.95303e+06
5.03777e+06
2.94667e+06
2.76596e+07
1.54126e+07
8.0674e+07
1.4766e+07
1.53378e+07
8.8139e+06
1.17666e+07
1.84527e+07
1.97349e+07
1.72818e+08
1.52993e+07
1.03636e+07
9.7441e+06
8.77216e+06
8.97662e+06
1.5027e+07
9.21208e+06
1.14563e+07
1.04332e+07
2.2013e+07
2.07403e+07
5.88351e+07
9.40266e+06
8.37536e+06
9.2954e+06
3.40406e+06
1.4643e+07
1.68246e+07
1.56929e+07
2.42256e+06
3.33327e+06
2.63793e+06
2.81902e+06
3.64063e+06
2.01336e+07
1.41246e+07
1.20426e+08
1.20403e+08
6.64012e+07
8.87612e+07
2.31011e+07
1.26553e+07
2.4628e+07
3.46508e+07
5.05862e+07
7.3918e+06
6.41843e+06
8.59993e+06
1.0922e+07
2.93374e+06
1.53183e+07
1.95821e+06
2.70668e+06
5.29255e+07
1.7997e+07
3.47778e+07
2.9988e+07
4.49958e+07
5.50848e+06
2.73378e+06
1.64188e+07
1.77499e+06
2.12904e+06
5.34075e+06
3.76534e+07
2.58276e+06
8.6539e+06
4.44728e+06
1.83216e+06
3.91794e+06
4.87096e+07
2.44317e+06
3.38137e+06
3.44568e+07
2.77364e+07
2.2755e+06
2.82724e+06
2.40152e+07
6.62541e+06
2.72035e+06
2.07813e+06
3.71128e+07
4.14432e+07
3.5573e+06
2.99645e+06
1.0442e+07
2.80866e+06
8.29294e+07
1.13241e+08
1.14434e+08
1.11219e+08
1.19954e+08
1.19377e+08
1.19699e+08
1.20015e+08
1.19452e+08
1.19651e+08
1.19378e+08
1.19395e+08
1.19273e+08
1.19319e+08
1.1927e+08
1.19263e+08
1.19336e+08
1.19296e+08
1.19458e+08
1.19389e+08
1.19605e+08
1.1953e+08
1.19752e+08
1.19679e+08
1.19893e+08
1.19824e+08
1.20021e+08
1.19959e+08
1.20136e+08
1.2008e+08
1.20235e+08
1.20187e+08
1.20316e+08
1.20278e+08
1.2038e+08
1.2035e+08
1.20426e+08
1.20405e+08
1.20456e+08
1.20443e+08
1.20474e+08
1.20466e+08
1.20476e+08
1.20478e+08
1.20461e+08
1.20471e+08
1.20446e+08
8.87521e+07
5.03873e+07
6.63978e+07
3.03143e+07
3.87899e+07
1.94928e+07
2.40824e+07
1.37122e+07
1.61312e+07
1.09913e+07
1.20415e+07
1.04842e+07
1.04844e+07
1.20409e+07
1.0991e+07
1.61302e+07
1.37114e+07
2.40811e+07
1.94917e+07
3.87897e+07
3.03133e+07
5.03876e+07
1.20412e+08
1.20444e+08
1.20431e+08
1.20465e+08
1.20457e+08
1.20472e+08
1.20471e+08
1.20461e+08
1.20469e+08
1.20436e+08
1.2045e+08
1.20394e+08
1.20417e+08
1.20335e+08
1.20367e+08
1.20258e+08
1.20299e+08
1.20159e+08
1.20211e+08
1.20041e+08
1.20103e+08
1.19897e+08
1.19973e+08
1.1971e+08
1.1981e+08
1.19465e+08
1.19603e+08
1.1907e+08
1.19301e+08
1.1845e+08
1.1876e+08
1.17904e+08
1.18151e+08
1.17602e+08
1.1771e+08
1.17626e+08
1.17611e+08
1.17799e+08
1.177e+08
1.18029e+08
1.1792e+08
1.18477e+08
1.18257e+08
1.19141e+08
1.18786e+08
1.20317e+08
1.19627e+08
1.2256e+08
1.21291e+08
1.24072e+08
9.89895e+06
5.59743e+06
7.38946e+06
3.34339e+06
4.29794e+06
2.24739e+06
2.10631e+06
2.63551e+06
3.59796e+06
3.37676e+06
5.61889e+06
4.32789e+06
7.39691e+06
1.5428e+07
1.58244e+07
1.122e+07
1.58489e+07
1.53676e+07
1.69897e+07
1.64203e+07
1.75921e+07
2.27933e+07
1.7995e+07
7.2988e+07
9.29074e+06
1.29737e+07
9.7418e+06
1.47334e+07
1.34739e+07
1.41573e+07
1.57041e+07
1.5236e+07
1.65107e+07
1.6097e+07
1.74742e+07
1.69373e+07
1.92072e+07
1.82866e+07
2.0348e+07
1.84629e+07
7.32253e+07
8.74234e+06
6.2618e+07
1.02214e+07
3.19628e+06
1.49817e+07
2.50538e+06
3.04973e+06
4.03752e+06
3.83134e+06
3.14226e+06
2.11264e+07
2.36518e+08
2.96054e+07
1.72517e+08
4.19452e+07
1.20381e+08
1.20394e+08
2.34293e+08
1.40129e+08
2.01422e+07
1.94026e+07
2.07177e+07
1.75663e+08
1.98343e+07
1.43414e+07
1.35069e+07
1.25287e+07
1.26783e+07
1.99535e+07
1.31921e+07
1.57932e+07
1.4605e+07
2.87307e+07
2.14696e+07
9.55462e+07
6.11109e+07
7.08393e+06
6.6171e+06
1.15061e+08
8.47053e+07
8.33911e+06
7.19422e+06
2.40026e+06
2.73431e+06
2.34743e+08
3.03854e+08
1.52919e+07
1.75042e+07
1.6361e+07
1.95046e+06
1.00783e+08
1.00149e+08
1.19526e+08
2.66873e+06
2.08512e+06
2.22513e+06
2.81461e+06
1.4786e+08
2.55751e+07
2.54398e+07
2.24602e+07
1.89016e+07
2.87765e+07
1.30423e+08
9.28563e+06
1.26446e+07
3.13597e+07
1.88093e+07
2.55398e+07
5.29822e+07
5.4898e+06
5.18731e+06
1.13688e+07
1.70746e+06
1.82184e+06
2.45422e+06
1.60566e+07
1.67106e+06
2.15434e+06
1.85905e+08
7.46376e+06
1.72372e+07
3.11708e+07
8.32559e+07
7.40722e+07
4.76025e+07
9.72057e+07
8.37897e+07
4.13758e+06
3.83105e+06
2.28495e+06
1.25007e+07
6.08401e+06
1.62004e+06
1.77576e+06
5.2577e+06
3.9116e+07
7.61594e+07
8.51078e+07
2.66853e+06
2.8441e+06
2.15569e+06
4.43083e+06
3.66472e+07
2.92357e+07
8.45113e+07
9.96625e+07
8.54426e+07
8.63095e+07
7.68776e+07
7.96971e+07
7.38151e+07
7.92749e+07
2.03326e+06
3.4689e+06
2.52842e+07
5.12185e+06
3.20463e+06
1.88375e+06
3.07112e+06
2.22494e+07
3.41383e+09
1.78215e+06
2.79716e+07
4.44273e+07
2.50847e+08
1.16874e+08
1.62799e+08
1.59589e+08
1.61042e+08
1.61771e+08
1.59024e+08
1.66834e+08
1.6523e+08
1.67393e+08
1.67349e+08
1.6733e+08
1.67348e+08
1.67346e+08
1.67308e+08
1.67342e+08
1.67355e+08
1.67373e+08
1.67351e+08
1.67442e+08
1.67407e+08
1.67547e+08
1.67492e+08
1.67637e+08
1.67594e+08
1.67702e+08
1.67672e+08
1.67741e+08
1.67725e+08
1.67744e+08
1.67747e+08
1.67722e+08
1.67737e+08
1.67667e+08
1.67699e+08
1.67576e+08
1.67626e+08
1.67453e+08
1.67519e+08
1.67297e+08
1.67379e+08
1.6711e+08
1.67207e+08
1.66897e+08
1.67007e+08
1.66658e+08
1.66781e+08
1.66393e+08
1.66529e+08
1.661e+08
1.66249e+08
1.65791e+08
1.65946e+08
1.65637e+08
8.88028e+07
1.20364e+08
5.04745e+07
6.64772e+07
3.03952e+07
3.88769e+07
1.95585e+07
2.41557e+07
1.37654e+07
1.61901e+07
1.10374e+07
1.20905e+07
1.0529e+07
1.05291e+07
1.209e+07
1.10372e+07
1.61894e+07
1.37648e+07
2.41549e+07
1.95577e+07
3.88768e+07
3.03947e+07
6.64803e+07
5.0476e+07
1.20376e+08
8.88111e+07
1.65656e+08
1.6596e+08
1.65808e+08
1.66256e+08
1.66109e+08
1.66532e+08
1.66396e+08
1.66785e+08
1.66661e+08
1.67011e+08
1.66901e+08
1.67208e+08
1.67113e+08
1.67376e+08
1.67296e+08
1.67512e+08
1.67448e+08
1.67613e+08
1.67567e+08
1.67677e+08
1.6765e+08
1.67701e+08
1.67692e+08
1.67689e+08
1.67703e+08
1.67582e+08
1.67647e+08
1.67366e+08
1.6749e+08
1.66935e+08
1.6721e+08
1.66235e+08
1.66611e+08
1.65616e+08
1.65878e+08
1.65333e+08
1.6539e+08
1.65421e+08
1.6536e+08
1.65625e+08
1.65524e+08
1.65901e+08
1.65748e+08
1.66219e+08
1.6603e+08
1.66736e+08
1.66452e+08
1.67532e+08
1.67068e+08
1.68733e+08
1.68164e+08
1.68851e+08
5.2482e+06
6.92897e+06
3.13209e+06
4.02812e+06
1.97321e+06
2.46942e+06
1.40355e+06
1.31413e+06
1.59873e+06
2.13592e+06
2.0002e+06
3.16046e+06
2.49732e+06
5.26599e+06
4.05194e+06
6.94066e+06
1.7518e+07
1.85304e+07
2.11425e+07
2.09979e+07
2.1666e+07
2.13268e+07
2.28194e+07
2.21892e+07
2.47666e+07
2.36474e+07
2.64543e+07
2.68392e+07
1.63223e+07
1.30003e+07
1.75477e+07
1.38007e+07
2.01945e+07
1.86649e+07
1.95086e+07
2.12885e+07
2.07657e+07
2.22819e+07
2.17755e+07
2.3539e+07
2.28726e+07
2.54562e+07
2.4413e+07
2.68011e+07
1.91617e+07
7.56438e+07
6.81497e+06
5.02861e+07
6.42976e+07
7.78087e+06
2.56527e+06
2.34232e+08
2.99392e+08
1.5641e+07
8.53355e+07
1.99247e+06
1.80955e+08
1.45275e+08
2.41643e+06
2.97488e+06
1.20917e+08
2.96073e+08
1.92575e+07
2.83995e+07
1.31568e+07
3.84758e+08
3.82461e+08
1.99194e+07
2.85668e+07
2.8581e+08
4.46767e+06
4.21763e+07
2.59898e+07
1.42001e+08
6.45506e+07
5.74401e+08
1.75741e+07
1.6346e+07
2.71179e+07
4.89084e+06
2.01628e+07
1.84319e+07
1.83926e+07
2.71441e+07
1.94603e+07
2.22016e+07
2.09205e+07
2.2305e+07
1.00466e+08
6.38983e+07
5.38487e+06
5.27555e+06
8.64545e+07
6.30251e+06
5.57043e+06
1.94812e+06
2.25064e+06
3.96236e+08
1.60317e+07
1.82796e+07
1.71219e+07
7.50579e+07
7.36969e+07
1.37245e+08
1.62655e+06
1.18259e+08
2.19652e+06
1.70036e+06
1.80787e+06
2.22756e+06
1.01592e+08
1.49459e+08
1.07513e+07
7.45174e+07
1.81617e+07
6.96484e+07
2.32067e+08
2.3165e+08
1.20365e+08
1.6551e+08
2.47453e+07
2.31139e+07
4.9955e+07
4.23653e+07
2.88015e+07
2.65642e+07
5.58434e+07
5.74528e+08
2.30291e+09
1.15252e+08
4.12811e+06
7.52812e+06
1.6503e+08
1.1902e+08
4.07662e+06
1.49739e+06
2.05002e+06
1.85932e+07
8.58889e+06
1.68921e+07
6.99549e+07
1.48569e+06
9.944e+07
3.20315e+06
1.77215e+06
1.86713e+08
7.34231e+06
2.38163e+08
2.38023e+08
7.44096e+07
3.24224e+07
5.08956e+07
9.75428e+07
3.02876e+06
1.09747e+06
1.17104e+06
1.91545e+06
6.04155e+06
4.38765e+07
1.53721e+06
8.79696e+07
3.90418e+07
3.09852e+07
4.05751e+07
4.43966e+08
8.69683e+07
2.2747e+06
1.80685e+06
4.46511e+06
8.38705e+07
2.67575e+07
4.02948e+06
3.97512e+06
1.62513e+06
1.73354e+06
1.70302e+06
3.65137e+06
2.35333e+07
3.48324e+06
7.28294e+07
1.61181e+06
2.10666e+07
4.05696e+06
3.96758e+07
8.02502e+08
3.73243e+08
8.06554e+08
1.68346e+08
2.39606e+08
2.33168e+08
2.35743e+08
2.30787e+08
2.31639e+08
2.33148e+08
2.30674e+08
2.38013e+08
2.35919e+08
2.39506e+08
2.3914e+08
2.39661e+08
2.39555e+08
2.3974e+08
2.39657e+08
2.39738e+08
2.39753e+08
2.39708e+08
2.39712e+08
2.39668e+08
2.39693e+08
2.39606e+08
2.39642e+08
2.39494e+08
2.39558e+08
2.39322e+08
2.39415e+08
2.39092e+08
2.39214e+08
2.38801e+08
2.38954e+08
2.38453e+08
2.38634e+08
2.38047e+08
2.38257e+08
2.37583e+08
2.37822e+08
2.37061e+08
2.37329e+08
2.36483e+08
2.36779e+08
2.35853e+08
2.36174e+08
2.35176e+08
2.3552e+08
2.34455e+08
2.34821e+08
2.33693e+08
2.34079e+08
2.32894e+08
2.33298e+08
2.32483e+08
1.65489e+08
8.88575e+07
1.20351e+08
5.0565e+07
6.65583e+07
3.04775e+07
3.89653e+07
1.96252e+07
2.42301e+07
1.38196e+07
1.62499e+07
1.10844e+07
1.21403e+07
1.05745e+07
1.05746e+07
1.21399e+07
1.10842e+07
1.62494e+07
1.38191e+07
2.42297e+07
1.96247e+07
3.89657e+07
3.04773e+07
6.65625e+07
5.05666e+07
8.88648e+07
2.3168e+08
2.32505e+08
2.32093e+08
2.33316e+08
2.32915e+08
2.34099e+08
2.33712e+08
2.34842e+08
2.34476e+08
2.35541e+08
2.35198e+08
2.36192e+08
2.35873e+08
2.36793e+08
2.36499e+08
2.37339e+08
2.37073e+08
2.37828e+08
2.37591e+08
2.38257e+08
2.38051e+08
2.38619e+08
2.38446e+08
2.38897e+08
2.38773e+08
2.39014e+08
2.38976e+08
2.39013e+08
2.39028e+08
2.38642e+08
2.38852e+08
2.37948e+08
2.38319e+08
2.37352e+08
2.3759e+08
2.37257e+08
2.37212e+08
2.37559e+08
2.37371e+08
2.37918e+08
2.37733e+08
2.38179e+08
2.38066e+08
2.38407e+08
2.38289e+08
2.3871e+08
2.38547e+08
2.39064e+08
2.38891e+08
2.39059e+08
2.39178e+08
2.38312e+08
1.60387e+07
8.61236e+06
1.16732e+07
4.88408e+06
6.44359e+06
2.91958e+06
3.7522e+06
1.84147e+06
2.30271e+06
1.22811e+06
1.49296e+06
934716
875599
1.02711e+06
1.34066e+06
1.25281e+06
1.86509e+06
1.51674e+06
2.94309e+06
2.32648e+06
4.90569e+06
3.77299e+06
8.66322e+06
6.46742e+06
1.17953e+07
2.60525e+07
2.92839e+07
2.8964e+07
3.00151e+07
2.96107e+07
3.13755e+07
3.05876e+07
3.37822e+07
3.24165e+07
3.90925e+07
3.57735e+07
4.41471e+07
2.20735e+07
1.86806e+07
2.42212e+07
2.01014e+07
2.63694e+07
2.22847e+07
2.50988e+07
2.81609e+07
2.73564e+07
2.94414e+07
2.88197e+07
3.07116e+07
3.00663e+07
3.22512e+07
3.14209e+07
3.44054e+07
3.32291e+07
3.78782e+07
3.58927e+07
1.848e+08
1.99585e+07
7.90881e+07
5.31069e+06
5.18982e+07
6.59638e+07
6.00104e+06
2.08917e+06
3.86017e+08
1.63889e+07
7.40132e+07
4.05594e+08
3.06518e+08
1.6366e+06
1.42698e+08
1.95928e+06
2.35698e+06
1.22199e+08
1.55672e+08
1.61708e+07
1.9204e+07
6.67298e+07
4.03422e+07
8.90415e+07
4.56182e+08
1.27192e+08
7.44395e+06
6.59522e+07
2.31239e+08
2.31273e+08
1.50336e+07
2.11503e+07
3.86935e+07
3.81954e+07
2.94805e+07
2.78599e+07
2.74883e+07
3.74247e+07
2.96964e+07
3.18031e+07
3.07308e+07
5.66771e+07
5.42306e+07
2.32511e+07
1.07219e+08
6.72134e+07
1.14862e+08
2.94424e+08
1.89215e+08
1.83428e+08
4.12191e+06
4.22012e+06
8.8423e+07
4.32883e+06
1.6023e+06
1.86809e+06
2.85206e+07
1.25037e+07
1.68698e+07
1.91635e+07
1.79874e+07
6.72814e+07
1.17758e+09
4.13673e+08
2.3223e+08
6.45401e+07
6.41505e+07
1.40524e+06
4.69377e+07
1.1736e+08
1.50952e+06
2.52055e+06
1.81427e+06
3.43998e+08
1.50863e+08
1.07104e+07
3.44964e+08
3.38584e+08
2.24286e+08
5.80084e+07
4.56897e+07
3.69215e+07
1.03088e+08
3.68696e+07
2.7696e+07
5.93402e+07
3.77472e+08
2.81725e+08
1.03635e+08
1.1445e+08
2.82672e+08
3.19251e+06
5.9582e+09
1.21765e+08
3.22252e+06
1.24917e+06
1.72124e+06
5.23904e+08
1.03405e+08
8.53971e+06
4.23775e+07
1.78394e+07
6.48903e+07
1.05231e+06
1.16406e+06
977777
1.37884e+06
2.86884e+08
2.94121e+08
4.17211e+07
9.95399e+07
1.43974e+09
5.99233e+08
1.14711e+07
3.29409e+07
1.50907e+06
3.37758e+07
5.70396e+07
6.56434e+07
1.91452e+08
5.51769e+07
9.7894e+07
5.27977e+08
3.75606e+08
2.45081e+08
1.73081e+08
2.41948e+06
995833
1.61382e+06
573468
647486
603983
1.25703e+08
6.02747e+06
2.40072e+08
1.53994e+08
9.06554e+07
1.09982e+06
2.84347e+07
3.0054e+06
5.30708e+07
8.43257e+07
4.21282e+07
1.07337e+09
2.86426e+08
9.03961e+08
8.9987e+07
5.21248e+06
1.84375e+06
764729
814461
1.52668e+06
688301
7.64079e+06
4.58527e+06
2.49938e+07
4.15598e+06
7.26661e+07
1.42752e+06
1.4543e+06
3.98269e+06
2.23609e+07
2.03763e+07
6.47741e+07
1.12451e+06
1.41153e+06
6.32872e+07
1.78214e+09
5.41673e+08
5.31115e+08
5.26277e+08
3.67886e+08
4.96612e+08
5.14956e+08
2.52959e+08
3.66242e+08
3.50595e+08
3.57067e+08
3.43495e+08
3.46357e+08
3.4129e+08
3.42009e+08
3.43576e+08
3.41211e+08
3.48589e+08
3.46237e+08
3.50929e+08
3.50074e+08
3.51307e+08
3.51203e+08
3.51276e+08
3.51302e+08
3.51099e+08
3.51233e+08
3.50807e+08
3.50951e+08
3.50392e+08
3.5062e+08
3.49887e+08
3.50153e+08
3.49269e+08
3.49593e+08
3.48539e+08
3.48918e+08
3.47706e+08
3.48136e+08
3.4677e+08
3.47251e+08
3.45733e+08
3.46264e+08
3.44598e+08
3.45178e+08
3.43367e+08
3.43995e+08
3.42041e+08
3.42716e+08
3.40623e+08
3.41343e+08
3.3912e+08
3.39882e+08
3.37539e+08
3.38339e+08
3.35887e+08
3.36722e+08
3.34169e+08
3.35036e+08
3.32397e+08