/*--------------------------------*- C++ -*----------------------------------*\
| =========                 |                                                 |
| \\      /  F ield         | OpenFOAM: The Open Source CFD Toolbox           |
|  \\    /   O peration     | Version:  2212                                  |
|   \\  /    A nd           | Website:  www.openfoam.com                      |
|    \\/     M anipulation  |                                                 |
\*---------------------------------------------------------------------------*/
FoamFile
{
    version     2.0;
    format      ascii;
    arch        "LSB;label=32;scalar=64";
    class       volScalarField;
    location    "0.002";
    object      alphat;
}
// * * * * * * * * * * * * * * * * * * * * * * * * * * * * * * * * * * * * * //

dimensions      [1 -1 -1 0 0 0 0];

internalField   nonuniform List<scalar> 
44662
(
0.00157647
0.00177591
0.0017762
0.00177645
0.00177638
0.00157918
0.00157988
0.00157977
0.00177956
0.00158843
0.00157858
0.00139344
0.00157998
0.00156399
0.000458565
0.00145687
0.000616429
0.000706268
0.00144569
0.00157959
0.00159043
0.000660247
0.00158866
0.00166273
0.000366106
0.00146591
0.00157968
0.00158527
0.00157871
0.00158548
0.000890352
0.001566
0.000717409
0.00158385
0.000123553
0.00165107
0.00159539
0.0015215
0.00145118
0.00178374
0.00178253
0.0016454
0.0013826
0.00160922
0.00158889
0.00157637
0.00145104
0.0016703
0.0015732
0.00166344
0.00177803
0.00139031
0.00154439
0.00148284
0.00158944
0.00157566
0.00156431
0.00148956
0.00158136
0.00158165
0.00157744
0.00153459
0.00158734
0.00145721
0.00159181
0.00157895
0.00152761
0.0013055
0.00142443
0.00158717
0.00150896
0.00155051
0.00122963
0.00157935
0.00158682
0.00174294
0.00157817
0.00158159
0.00158168
0.00152309
0.00157584
0.00158648
0.00177713
0.00157891
0.00157549
0.0017791
0.00158615
0.00177906
0.00156426
0.00158048
0.00158551
0.00158579
0.00172266
0.00157951
0.00158809
0.00156633
0.0015816
0.00158667
0.0015903
0.00176452
0.00158762
0.00178033
0.00157893
0.00157349
0.00157982
0.00158445
0.00157964
0.00157573
0.00176979
0.00157667
0.00157945
0.00177304
0.00178026
0.00171216
0.00158319
0.00157928
0.00158166
0.00177838
0.00155708
0.00157907
0.00176282
0.00157958
0.0015833
0.00157881
0.0015797
0.00178482
0.00157854
0.0015798
0.00177875
0.00157828
0.00157987
0.00158419
0.00157941
0.00158266
0.00157804
0.00157995
0.00158271
0.00158287
0.00157781
0.00158004
0.00158343
0.00157757
0.00153838
0.00151449
0.00157735
0.00177881
0.001778
0.00177817
0.00177989
0.00176716
0.00178328
0.00177789
0.00157793
0.00129949
0.0017767
0.00177998
0.00177391
0.00158749
0.00158716
0.00158664
0.00158588
0.00158485
0.00158349
0.00158177
0.0015796
0.00157695
0.00157376
0.00156998
0.00156557
0.00156052
0.0015548
0.0015484
0.00154135
0.00153364
0.00152532
0.00151642
0.00150698
0.00149705
0.00148669
0.00147593
0.00146484
0.00145348
0.00144189
0.00143012
0.00141823
0.00140625
0.00139423
0.00138219
0.00137019
0.00135823
0.00134635
0.00133459
0.00132299
0.00131158
0.0013004
0.00128946
0.00127881
0.00126846
0.00125844
0.00124879
0.00123953
0.00123068
0.00122227
0.00121429
0.00120677
0.00119971
0.00120686
0.0011998
0.00121437
0.00150108
0.00158764
0.00158748
0.00158764
0.00119311
0.00118697
0.00118705
0.0011932
0.00123075
0.00122234
0.00124886
0.0012396
0.00126852
0.00125851
0.00128952
0.00127887
0.00131164
0.00130045
0.00133464
0.00132304
0.00135827
0.00134639
0.00138225
0.00137022
0.00140631
0.00139428
0.00143018
0.00141829
0.00145354
0.00144195
0.00147599
0.0014649
0.0014971
0.00148674
0.00151646
0.00150703
0.00153368
0.00152536
0.00154843
0.00154138
0.00156054
0.00155482
0.00157
0.0015656
0.00157696
0.00157377
0.00158177
0.00157961
0.00158485
0.0015835
0.00158664
0.00158588
0.00158716
0.00158663
0.00158715
0.00158484
0.00158587
0.00158175
0.00158348
0.00157694
0.00157959
0.00156996
0.00157375
0.0015605
0.00156556
0.00154838
0.00155477
0.00153361
0.00154131
0.00151638
0.00152528
0.00149701
0.00150694
0.00147589
0.00148664
0.00145343
0.00146479
0.00143007
0.00144183
0.0014062
0.00141817
0.00138214
0.00139417
0.00135818
0.00137013
0.00133456
0.00134631
0.00131156
0.00132296
0.00128944
0.00130037
0.00126844
0.00127878
0.00124877
0.00125842
0.00123066
0.00123951
0.00121427
0.00122225
0.00119969
0.00120675
0.00118695
0.00119309
0.00120696
0.00119992
0.00121446
0.0015398
0.00150628
0.00158746
0.00158763
0.00118134
0.00118717
0.00118146
0.00118699
0.00118127
0.00118132
0.00158767
0.00158767
0.00119332
0.00123084
0.00122243
0.00124894
0.00123969
0.00126859
0.00125859
0.00128959
0.00127894
0.0013117
0.00130052
0.00133469
0.0013231
0.00135832
0.00134644
0.00138229
0.00137029
0.00140636
0.00139433
0.00143023
0.00141834
0.00145359
0.001442
0.00147604
0.00146496
0.00149714
0.00148678
0.0015165
0.00150706
0.00153371
0.00152539
0.00154846
0.00154141
0.00156057
0.00155485
0.00157001
0.00156561
0.00157697
0.00157378
0.00158177
0.00157961
0.00158485
0.0015835
0.00158663
0.00158588
0.00158715
0.00157915
0.00118128
0.00158661
0.00158714
0.00158482
0.00158586
0.00158174
0.00158347
0.00157692
0.00157957
0.00156995
0.00157373
0.00156048
0.00156554
0.00154835
0.00155475
0.00153358
0.00154129
0.00151635
0.00152525
0.00149698
0.00150691
0.00147585
0.00148661
0.00145339
0.00146476
0.00143003
0.0014418
0.00140616
0.00141814
0.00138211
0.00139414
0.00135815
0.0013701
0.00133455
0.00134629
0.00131156
0.00132296
0.00128944
0.00130038
0.00126844
0.00127879
0.00124878
0.00125843
0.00123067
0.00123952
0.00121429
0.00122226
0.00119971
0.00120677
0.00119311
0.00158766
0.00118163
0.00118733
0.00120711
0.00120006
0.0012146
0.00117602
0.00117608
0.00158766
0.00158759
0.00158759
0.00158759
0.00117636
0.00118184
0.00117658
0.00158742
0.00158742
0.00119347
0.00123096
0.00122256
0.00124904
0.0012398
0.00126868
0.00125868
0.00128966
0.00127902
0.00131177
0.00130059
0.00133475
0.00132317
0.00135836
0.0013465
0.00138233
0.00137032
0.00140641
0.00139439
0.00143028
0.00141839
0.00145364
0.00144204
0.00147608
0.001465
0.00149717
0.00148682
0.00151652
0.00150709
0.00153373
0.00152542
0.00154848
0.00154143
0.00156058
0.00155486
0.00157001
0.00156562
0.00157696
0.00157378
0.00158176
0.00157961
0.00158484
0.00158349
0.00158661
0.00158587
0.00159189
0.00158713
0.00117608
0.00117602
0.00117619
0.00158741
0.00158764
0.00158757
0.00158744
0.00158761
0.00158659
0.00158711
0.0015848
0.00158583
0.00158171
0.00158345
0.00157689
0.00157955
0.00156992
0.0015737
0.00156046
0.00156552
0.00154833
0.00155473
0.00153355
0.00154126
0.00151632
0.00152523
0.00149695
0.00150688
0.00147583
0.00148658
0.00145337
0.00146474
0.00143002
0.00144178
0.00140614
0.00141812
0.0013821
0.00139412
0.00135815
0.0013701
0.00133455
0.00134629
0.00131157
0.00132297
0.00128946
0.00130039
0.00126847
0.00127881
0.00124881
0.00125846
0.00123071
0.00123955
0.00121433
0.00122229
0.00119977
0.00120681
0.00118708
0.00119319
0.0011762
0.00118143
0.00158718
0.00158717
0.00158765
0.00118752
0.00158758
0.0011715
0.00117171
0.00118209
0.00117683
0.00117637
0.00117138
0.00117156
0.00158742
0.00158718
0.00158686
0.00121475
0.00120727
0.00120023
0.00158686
0.00158759
0.00158762
0.00119365
0.00123109
0.0012227
0.00124915
0.00123992
0.00126878
0.00125878
0.00128975
0.00127911
0.00131184
0.00130067
0.00133481
0.00132323
0.00135841
0.00134655
0.0013824
0.00137037
0.00140645
0.00139441
0.00143032
0.00141843
0.00145368
0.00144208
0.00147612
0.00146504
0.00149721
0.00148685
0.00151655
0.00150712
0.00153375
0.00152544
0.00154849
0.00154144
0.00156058
0.00155487
0.00157001
0.00156562
0.00157695
0.00157377
0.00158175
0.00157959
0.00158482
0.00158347
0.00158659
0.00158584
0.00177869
0.0015871
0.00177898
0.00117118
0.00117125
0.00117122
0.00117116
0.00117133
0.00158685
0.00158739
0.00158715
0.00158762
0.00158755
0.00158741
0.00158758
0.00158656
0.00158708
0.00158478
0.00158581
0.00158169
0.00158342
0.00157687
0.00157952
0.0015699
0.00157368
0.00156043
0.00156549
0.00154831
0.00155471
0.00153353
0.00154124
0.0015163
0.00152521
0.00149693
0.00150686
0.00147581
0.00148656
0.00145337
0.00146473
0.00143002
0.00144178
0.00140615
0.00141813
0.0013821
0.00139413
0.00135816
0.0013701
0.00133457
0.0013463
0.00131159
0.00132299
0.0012895
0.00130042
0.00126852
0.00127886
0.00124888
0.00125852
0.00123078
0.00123963
0.00121441
0.00122238
0.00119988
0.00120691
0.00118722
0.00119332
0.00118158
0.00158649
0.00158648
0.00158757
0.00118776
0.00120744
0.00120042
0.00121492
0.00117198
0.00116692
0.0011671
0.00158755
0.00158751
0.00158747
0.00158741
0.00158717
0.00158687
0.00158649
0.00158606
0.00158605
0.00158754
0.00119386
0.00123124
0.00122285
0.00124928
0.00124005
0.00126889
0.0012589
0.00128984
0.00127921
0.00131192
0.00130076
0.00133487
0.0013233
0.00135847
0.00134661
0.00138241
0.00137042
0.00140649
0.00139447
0.00143036
0.00141847
0.00145371
0.00144213
0.00147614
0.00146507
0.00149723
0.00148688
0.00151656
0.00150714
0.00153376
0.00152545
0.00154849
0.00154145
0.00156058
0.00155487
0.00157
0.00156561
0.00157694
0.00157376
0.00158173
0.00157958
0.00158479
0.00158345
0.00158655
0.00158581
0.00158737
0.00158706
0.00158752
0.0011667
0.00116678
0.00116673
0.00116668
0.001167
0.00116683
0.00116748
0.00116722
0.00158604
0.00158683
0.00158646
0.00158736
0.00158713
0.00158758
0.00158752
0.00158737
0.00158754
0.00158652
0.00158704
0.00158475
0.00158577
0.00158166
0.00158339
0.00157684
0.0015795
0.00156988
0.00157365
0.00156041
0.00156547
0.00154829
0.00155469
0.00153352
0.00154123
0.00151629
0.0015252
0.00149693
0.00150685
0.00147581
0.00148656
0.00145338
0.00146473
0.00143003
0.00144179
0.00140617
0.00141814
0.00138212
0.00139414
0.00135817
0.00137012
0.0013346
0.00134632
0.00131164
0.00132303
0.00128957
0.00130048
0.00126861
0.00127894
0.00124898
0.00125861
0.0012309
0.00123973
0.00121455
0.0012225
0.00120004
0.00120706
0.00118741
0.00119349
0.00117658
0.00118178
0.00116733
0.00117178
0.00158558
0.00158557
0.0015873
0.00158734
0.00158739
0.00118236
0.00117712
0.00118801
0.00158716
0.00116331
0.0011678
0.00116363
0.0011676
0.0011632
0.00116348
0.00158726
0.00158706
0.00158702
0.00158686
0.00158649
0.00158606
0.00158558
0.00158505
0.00120063
0.00120764
0.0012151
0.00158505
0.00158737
0.00117228
0.00119409
0.0012314
0.00122303
0.00124943
0.00124021
0.00126902
0.00125904
0.00128995
0.00127933
0.00131201
0.00130085
0.00133495
0.00132338
0.00135852
0.00134667
0.00138248
0.00137047
0.00140653
0.00139451
0.0014304
0.00141851
0.00145374
0.00144216
0.00147616
0.00146509
0.00149725
0.0014869
0.00151658
0.00150716
0.00153376
0.00152546
0.00154849
0.00154145
0.00156057
0.00155487
0.00156999
0.00156561
0.00157692
0.00157375
0.00158171
0.00157956
0.00158476
0.00158342
0.0015865
0.00158577
0.00158732
0.00158701
0.0015875
0.00158747
0.00158743
0.00116277
0.00116296
0.00116255
0.00116263
0.00116256
0.00116252
0.00116283
0.00116266
0.00116305
0.00158505
0.00158603
0.00158556
0.0015868
0.00158644
0.00158732
0.00158709
0.00158754
0.00158747
0.00158733
0.0015875
0.00158648
0.001587
0.00158471
0.00158574
0.00158163
0.00158336
0.00157682
0.00157947
0.00156985
0.00157363
0.0015604
0.00156545
0.00154828
0.00155467
0.00153351
0.00154122
0.00151629
0.00152519
0.00149693
0.00150685
0.00147582
0.00148656
0.00145339
0.00146474
0.00143006
0.00144181
0.00140619
0.00141817
0.00138215
0.00139417
0.00135821
0.00137015
0.00133465
0.00134637
0.00131172
0.00132309
0.00128966
0.00130056
0.00126872
0.00127904
0.00124911
0.00125873
0.00123105
0.00123987
0.00121472
0.00122266
0.00120023
0.00120724
0.00118763
0.0011937
0.00117683
0.00118201
0.00117204
0.00158449
0.0015845
0.00158709
0.00158714
0.00118266
0.00117744
0.00118829
0.00120786
0.00120088
0.00121531
0.00116814
0.00116398
0.00115934
0.00115963
0.00158671
0.00158674
0.00158684
0.00158648
0.00158606
0.00158558
0.00158505
0.00158448
0.00158388
0.00158391
0.00158712
0.00117261
0.00119436
0.00123159
0.00122323
0.00124959
0.00124038
0.00126915
0.00125919
0.00129006
0.00127945
0.00131211
0.00130096
0.00133503
0.00132347
0.00135858
0.00134674
0.00138255
0.00137053
0.00140658
0.00139456
0.00143044
0.00141855
0.00145377
0.00144219
0.00147618
0.00146512
0.00149726
0.00148691
0.00151659
0.00150717
0.00153377
0.00152547
0.00154849
0.00154145
0.00156056
0.00155486
0.00156997
0.00156559
0.0015769
0.00157373
0.00158167
0.00157953
0.00158471
0.00158338
0.00158645
0.00158572
0.00158726
0.00158695
0.00158745
0.00158742
0.00158722
0.00158738
0.00158668
0.00158698
0.00158632
0.00158633
0.0011589
0.00115909
0.00115866
0.00115875
0.00115867
0.00115863
0.00115893
0.00115877
0.00115942
0.00115915
0.00116008
0.00115973
0.00158394
0.00158505
0.00158451
0.001586
0.00158555
0.00158676
0.00158641
0.00158727
0.00158705
0.00158749
0.00158743
0.00158728
0.00158745
0.00158644
0.00158695
0.00158467
0.00158569
0.0015816
0.00158333
0.00157679
0.00157944
0.00156983
0.00157361
0.00156038
0.00156543
0.00154827
0.00155466
0.00153351
0.00154121
0.00151629
0.00152518
0.00149693
0.00150685
0.00147583
0.00148657
0.00145341
0.00146476
0.00143009
0.00144184
0.00140623
0.0014182
0.00138219
0.00139422
0.00135827
0.0013702
0.00133472
0.00134643
0.0013118
0.00132317
0.00128977
0.00130066
0.00126884
0.00127915
0.00124926
0.00125887
0.00123122
0.00124003
0.00121491
0.00122284
0.00120046
0.00120745
0.00118788
0.00119394
0.00117711
0.00118228
0.00116791
0.00117233
0.00115995
0.0011638
0.00158329
0.00158334
0.00158677
0.00158682
0.00118299
0.00117779
0.0011886
0.00120812
0.00120115
0.00121555
0.00158636
0.00158646
0.00115641
0.00116047
0.00115679
0.00116032
0.00115632
0.00115669
0.00158575
0.00158587
0.00158604
0.00158557
0.00158504
0.00158447
0.00158385
0.00158323
0.00158271
0.00158262
0.0015868
0.00116851
0.00116436
0.00117298
0.00119464
0.00123179
0.00122344
0.00124976
0.00124057
0.0012693
0.00125934
0.00129019
0.00127959
0.00131222
0.00130108
0.00133512
0.00132357
0.00135866
0.00134682
0.00138258
0.0013706
0.00140663
0.00139462
0.00143048
0.0014186
0.0014538
0.00144223
0.0014762
0.00146514
0.00149727
0.00148693
0.00151659
0.00150718
0.00153377
0.00152547
0.00154849
0.00154145
0.00156055
0.00155485
0.00156996
0.00156558
0.00157687
0.00157371
0.00158164
0.0015795
0.00158466
0.00158334
0.00158639
0.00158566
0.0015872
0.00158689
0.00158739
0.00158736
0.00158716
0.00158732
0.00158665
0.00158694
0.00158598
0.00158632
0.00158529
0.00158518
0.0015856
0.00115569
0.00115598
0.00115524
0.00115544
0.001155
0.00115509
0.00115501
0.00115497
0.00115527
0.00115511
0.00115575
0.00115548
0.00115606
0.00158154
0.00158278
0.00158206
0.00158216
0.00158396
0.00158338
0.00158504
0.00158451
0.00158597
0.00158553
0.00158671
0.00158636
0.00158722
0.001587
0.00158743
0.00158737
0.00158722
0.00158739
0.00158638
0.0015869
0.00158463
0.00158564
0.00158156
0.00158329
0.00157677
0.00157941
0.00156981
0.00157358
0.00156037
0.00156542
0.00154826
0.00155465
0.0015335
0.0015412
0.00151629
0.00152518
0.00149694
0.00150686
0.00147585
0.00148658
0.00145344
0.00146478
0.00143012
0.00144187
0.00140628
0.00141825
0.00138225
0.00139427
0.00135834
0.00137026
0.0013348
0.0013465
0.00131191
0.00132326
0.00128989
0.00130078
0.00126899
0.00127929
0.00124943
0.00125903
0.00123142
0.00124022
0.00121514
0.00122305
0.00120071
0.00120769
0.00118817
0.00119421
0.00117743
0.00118259
0.00116826
0.00117267
0.00116416
0.00158639
0.00158644
0.00118335
0.00117817
0.00118893
0.00116088
0.00115721
0.00115284
0.00115321
0.00158592
0.00158602
0.00158538
0.00158555
0.0015847
0.00158478
0.00158503
0.00158446
0.00158383
0.00158319
0.00158255
0.00158194
0.00158139
0.00158124
0.00158093
0.00120145
0.0012084
0.00121581
0.00158642
0.00116892
0.00116477
0.00117337
0.00119497
0.00123201
0.00122368
0.00124994
0.00124077
0.00126946
0.00125952
0.00129034
0.00127975
0.00131234
0.00130122
0.00133522
0.00132369
0.00135874
0.00134692
0.00138266
0.00137066
0.00140669
0.00139468
0.00143053
0.00141866
0.00145383
0.00144227
0.00147622
0.00146517
0.00149728
0.00148694
0.0015166
0.00150718
0.00153377
0.00152547
0.00154848
0.00154145
0.00156054
0.00155484
0.00156993
0.00156556
0.00157684
0.00157368
0.0015816
0.00157947
0.00158461
0.00158329
0.00158633
0.00158561
0.00158713
0.00158682
0.00158732
0.00158729
0.0015871
0.00158725
0.0015866
0.00158688
0.00158592
0.00158628
0.00158509
0.00158552
0.00158418
0.00158411
0.00158462
0.00115222
0.00115251
0.00115177
0.00115197
0.00115152
0.00115161
0.00115153
0.00115149
0.00115178
0.00115162
0.00115225
0.00115199
0.00115291
0.00115256
0.0011537
0.00115329
0.0015828
0.00158217
0.00158397
0.0015834
0.00158502
0.00158451
0.00158593
0.00158549
0.00158665
0.00158631
0.00158716
0.00158694
0.00158737
0.00158731
0.00158716
0.00158733
0.00158633
0.00158684
0.00158458
0.00158559
0.00158153
0.00158324
0.00157674
0.00157938
0.00156979
0.00157356
0.00156035
0.0015654
0.00154825
0.00155464
0.0015335
0.0015412
0.00151629
0.00152519
0.00149695
0.00150686
0.00147587
0.0014866
0.00145347
0.00146481
0.00143016
0.0014419
0.00140633
0.00141829
0.00138232
0.00139433
0.00135842
0.00137034
0.0013349
0.0013466
0.00131203
0.00132337
0.00129004
0.00130091
0.00126916
0.00127944
0.00124962
0.00125921
0.00123164
0.00124042
0.00121539
0.00122329
0.001201
0.00120796
0.00118849
0.00119451
0.00117778
0.00118292
0.00116864
0.00117304
0.00116072
0.00116455
0.00115361
0.00115709
0.00158596
0.00158601
0.00118373
0.00117857
0.0011893
0.00120871
0.00120179
0.00121611
0.00158544
0.00158554
0.00115031
0.00115414
0.00115074
0.00115404
0.00115025
0.00115067
0.00158486
0.00158501
0.00158424
0.00158444
0.00158358
0.00158362
0.00158381
0.00158315
0.00158248
0.00158184
0.00158124
0.0015807
0.00158059
0.00158028
0.00158599
0.00116133
0.00115765
0.00116935
0.00116521
0.00117379
0.00119532
0.00123226
0.00122396
0.00125016
0.001241
0.00126965
0.00125972
0.0012905
0.00127992
0.00131248
0.00130137
0.00133534
0.00132381
0.00135884
0.00134702
0.00138274
0.00137076
0.00140676
0.00139475
0.00143058
0.00141872
0.00145387
0.00144231
0.00147624
0.0014652
0.0014973
0.00148696
0.0015166
0.00150719
0.00153377
0.00152548
0.00154847
0.00154144
0.00156052
0.00155483
0.00156991
0.00156554
0.00157681
0.00157366
0.00158156
0.00157943
0.00158456
0.00158324
0.00158626
0.00158555
0.00158706
0.00158676
0.00158725
0.00158722
0.00158703
0.00158718
0.00158653
0.00158681
0.00158585
0.00158621
0.00158502
0.00158545
0.00158405
0.00158455
0.00158301
0.00158298
0.00158353
0.00114949
0.00114986
0.00114887
0.00114916
0.00114842
0.00114862
0.00114818
0.00114827
0.00114818
0.00114815
0.00114843
0.00114827
0.00114889
0.00114864
0.00114953
0.00114919
0.00114991
0.00157991
0.0015802
0.00158151
0.00158085
0.00158282
0.00158217
0.00158397
0.00158342
0.001585
0.0015845
0.00158588
0.00158545
0.00158659
0.00158626
0.00158709
0.00158687
0.0015873
0.00158724
0.0015871
0.00158726
0.00158627
0.00158678
0.00158453
0.00158554
0.00158149
0.0015832
0.00157671
0.00157934
0.00156977
0.00157353
0.00156034
0.00156538
0.00154824
0.00155462
0.0015335
0.00154119
0.0015163
0.00152519
0.00149696
0.00150687
0.00147589
0.00148662
0.0014535
0.00146484
0.00143021
0.00144195
0.0014064
0.00141835
0.0013824
0.0013944
0.00135851
0.00137042
0.00133502
0.0013467
0.00131216
0.0013235
0.0012902
0.00130105
0.00126934
0.00127962
0.00124984
0.00125941
0.00123188
0.00124065
0.00121567
0.00122355
0.00120131
0.00120825
0.00118884
0.00119484
0.00117817
0.00118329
0.00116905
0.00117344
0.00116114
0.00116497
0.00115752
0.00158547
0.00158552
0.00118414
0.00117899
0.0011897
0.00120906
0.00120215
0.00121643
0.0011546
0.00115119
0.00114697
0.00114737
0.00158491
0.001585
0.0015843
0.00158442
0.00158367
0.00158379
0.00158304
0.00158312
0.00158242
0.00158242
0.00158243
0.00158175
0.0015811
0.00158051
0.00158001
0.00157955
0.0015796
0.00157924
0.00157924
0.00157891
0.00157865
0.0015855
0.0011618
0.00115812
0.00116981
0.00116568
0.00117423
0.00119569
0.00123255
0.00122426
0.00125041
0.00124127
0.00126987
0.00125995
0.00129068
0.00128012
0.00131263
0.00130153
0.00133547
0.00132396
0.00135894
0.00134714
0.00138282
0.00137084
0.00140683
0.00139483
0.00143064
0.00141878
0.00145391
0.00144236
0.00147627
0.00146523
0.00149731
0.00148698
0.00151661
0.00150721
0.00153377
0.00152548
0.00154846
0.00154144
0.00156051
0.00155482
0.00156989
0.00156552
0.00157678
0.00157363
0.00158151
0.00157939
0.0015845
0.0015832
0.0015862
0.00158549
0.00158699
0.00158669
0.00158717
0.00158714
0.00158695
0.0015871
0.00158646
0.00158673
0.00158577
0.00158614
0.00158495
0.00158538
0.001584
0.00158449
0.00158296
0.00158349
0.00158183
0.00158185
0.00158241
0.00114623
0.00114658
0.00114562
0.00114591
0.00114518
0.00114538
0.00114494
0.00114503
0.00114494
0.0011449
0.00114517
0.00114503
0.00114563
0.00114538
0.00114625
0.00114592
0.00114701
0.00114661
0.00114785
0.00114742
0.00158044
0.00157983
0.00158168
0.00158106
0.00158287
0.00158228
0.00158397
0.00158343
0.00158496
0.00158448
0.00158582
0.00158541
0.00158652
0.00158619
0.00158702
0.0015868
0.00158723
0.00158716
0.00158703
0.00158719
0.00158621
0.00158672
0.00158448
0.00158548
0.00158144
0.00158315
0.00157667
0.0015793
0.00156974
0.0015735
0.00156032
0.00156536
0.00154823
0.00155461
0.0015335
0.00154119
0.00151631
0.00152519
0.00149698
0.00150689
0.00147592
0.00148664
0.00145355
0.00146487
0.00143027
0.001442
0.00140647
0.00141841
0.00138248
0.00139448
0.00135862
0.00137052
0.00133514
0.00134682
0.00131232
0.00132363
0.00129037
0.00130122
0.00126955
0.00127981
0.00125007
0.00125963
0.00123215
0.0012409
0.00121597
0.00122383
0.00120165
0.00120857
0.00118922
0.0011952
0.00117858
0.00118369
0.00116949
0.00117386
0.0011616
0.00116542
0.00115449
0.00115797
0.00114779
0.00115111
0.00158494
0.00158498
0.00117944
0.00118458
0.00158434
0.00158441
0.00114454
0.00114829
0.00114495
0.00114822
0.0011445
0.00114491
0.0015837
0.00158378
0.00158306
0.0015831
0.00158242
0.00158239
0.00158181
0.00158168
0.00158128
0.00158123
0.00158099
0.00158035
0.00157978
0.00157931
0.00177755
0.00177922
0.00157891
0.00157857
0.00157829
0.00157903
0.00125817
0.00120254
0.00157808
0.00120942
0.00158497
0.00115507
0.00115165
0.00116228
0.0011586
0.00117028
0.00116616
0.00117469
0.00119012
0.00119611
0.00123284
0.00121676
0.00122457
0.00125068
0.00124155
0.0012701
0.0012602
0.00129088
0.00128033
0.0013128
0.00130171
0.00133561
0.00132411
0.00135906
0.00134727
0.00138292
0.00137095
0.00140691
0.00139491
0.0014307
0.00141885
0.00145396
0.00144242
0.0014763
0.00146527
0.00149733
0.00148701
0.00151662
0.00150722
0.00153377
0.00152549
0.00154845
0.00154143
0.00156049
0.00155481
0.00156987
0.0015655
0.00157675
0.0015736
0.00158147
0.00157935
0.00158445
0.00158314
0.00158613
0.00158542
0.00158691
0.00158661
0.00158709
0.00158706
0.00158687
0.00158702
0.00158638
0.00158665
0.0015857
0.00158606
0.00158488
0.00158531
0.00158396
0.00158443
0.00158294
0.00158346
0.00158188
0.00158242
0.00158069
0.00158077
0.00158133
0.00114372
0.0011441
0.00114301
0.00114335
0.00114243
0.0011427
0.001142
0.00114219
0.00114176
0.00114185
0.00114176
0.00114173
0.00114199
0.00114185
0.00114243
0.00114218
0.00114302
0.00114271
0.00114375
0.00114337
0.00114414
0.00158065
0.00158007
0.00158181
0.00158123
0.00158291
0.00158237
0.00158396
0.00158344
0.00158492
0.00158445
0.00158576
0.00158536
0.00158645
0.00158612
0.00158694
0.00158672
0.00158715
0.00158709
0.00158696
0.00158712
0.00158615
0.00158665
0.00158442
0.00158542
0.0015814
0.0015831
0.00157664
0.00157927
0.00156972
0.00157347
0.00156031
0.00156534
0.00154823
0.0015546
0.0015335
0.00154119
0.00151632
0.0015252
0.001497
0.00150691
0.00147595
0.00148667
0.00145359
0.00146491
0.00143033
0.00144205
0.00140655
0.00141848
0.00138258
0.00139457
0.00135874
0.00137063
0.00133529
0.00134695
0.00131248
0.00132379
0.00129057
0.0013014
0.00126977
0.00128002
0.00125033
0.00125987
0.00123244
0.00124118
0.0012163
0.00122414
0.00120201
0.00120892
0.00118962
0.00119559
0.00117902
0.00118411
0.00116995
0.00117431
0.00116207
0.00116589
0.00115495
0.00115844
0.00115156
0.00158436
0.0015844
0.00114873
0.00114536
0.00157874
0.00114122
0.00114159
0.00158373
0.00158377
0.00158307
0.00158309
0.00158242
0.00158237
0.00158178
0.00158164
0.00158117
0.00158091
0.00158061
0.00158021
0.00158023
0.00158011
0.00157959
0.00157905
0.0015786
0.00157823
0.00157792
0.00157769
0.00157756
0.0015777
0.00157741
0.00157915
0.00157963
0.00158438
0.00115555
0.00115211
0.00116278
0.00115909
0.00117077
0.00116665
0.00117991
0.00117517
0.00119057
0.00118504
0.00120292
0.00119653
0.00121711
0.00120978
0.00123315
0.0012249
0.00125095
0.00124184
0.00127033
0.00126045
0.00129109
0.00128055
0.00131298
0.00130191
0.00133576
0.00132428
0.00135919
0.00134741
0.00138303
0.00137107
0.00140699
0.00139501
0.00143077
0.00141892
0.00145401
0.00144248
0.00147634
0.00146531
0.00149736
0.00148704
0.00151663
0.00150724
0.00153377
0.00152549
0.00154844
0.00154143
0.00156047
0.00155479
0.00156984
0.00156548
0.00157671
0.00157357
0.00158142
0.00157931
0.00158439
0.00158309
0.00158606
0.00158536
0.00158684
0.00158654
0.00158701
0.00158698
0.00158678
0.00158693
0.00158629
0.00158656
0.00158562
0.00158598
0.00158482
0.00158523
0.00158391
0.00158438
0.00158294
0.00158343
0.00158191
0.00158243
0.00158084
0.00158138
0.00157934
0.00157888
0.00158028
0.00157739
0.00157857
0.0015774
0.00114049
0.00114085
0.00113982
0.00114015
0.00113927
0.00113953
0.00113886
0.00113904
0.00113864
0.00113872
0.00113863
0.00113861
0.00113885
0.00113872
0.00113926
0.00113904
0.00113983
0.00113953
0.0011405
0.00114015
0.00114124
0.00114087
0.001142
0.00114162
0.00158082
0.00158026
0.00158191
0.00158137
0.00158295
0.00158243
0.00158394
0.00158345
0.00158487
0.00158442
0.00158569
0.0015853
0.00158637
0.00158605
0.00158686
0.00158664
0.00158707
0.00158701
0.00158689
0.00158704
0.00158608
0.00158658
0.00158437
0.00158536
0.00158136
0.00158305
0.0015766
0.00157922
0.00156969
0.00157344
0.00156029
0.00156532
0.00154822
0.00155459
0.00153351
0.00154119
0.00151633
0.00152521
0.00149703
0.00150693
0.00147599
0.0014867
0.00145365
0.00146496
0.0014304
0.00144211
0.00140664
0.00141856
0.00138269
0.00139467
0.00135887
0.00137075
0.00133544
0.00134709
0.00131266
0.00132396
0.00129078
0.0013016
0.00127001
0.00128024
0.0012506
0.00126013
0.00123275
0.00124147
0.00121664
0.00122447
0.0012024
0.00120929
0.00119005
0.00119599
0.00117948
0.00118455
0.00117044
0.00117479
0.00116256
0.00116638
0.00115542
0.00115892
0.00114865
0.00115201
0.00114196
0.00114531
0.0015783
0.00158374
0.00158376
0.00158308
0.00158308
0.00113861
0.00114237
0.00113894
0.00114232
0.00113858
0.0011389
0.00158241
0.00158236
0.00158175
0.00158161
0.00158112
0.00158085
0.00158053
0.00158011
0.00158
0.00157943
0.00157953
0.00157883
0.00157832
0.00177812
0.00157789
0.00157701
0.00157755
0.00157729
0.00157707
0.00157725
0.0015778
0.0015768
0.0015773
0.00157711
0.00157681
0.00157774
0.00157726
0.00158375
0.00114916
0.00114577
0.00115604
0.00115258
0.00116328
0.00115959
0.00117127
0.00116716
0.00118041
0.00117567
0.00119102
0.00118552
0.00120332
0.00119695
0.00121745
0.00121015
0.00123345
0.00122522
0.00125121
0.00124212
0.00127057
0.00126071
0.00129131
0.00128078
0.00131318
0.00130212
0.00133593
0.00132446
0.00135934
0.00134757
0.00138315
0.00137121
0.00140709
0.00139512
0.00143085
0.00141901
0.00145407
0.00144255
0.00147638
0.00146536
0.00149738
0.00148707
0.00151665
0.00150726
0.00153377
0.0015255
0.00154844
0.00154143
0.00156045
0.00155478
0.00156981
0.00156546
0.00157667
0.00157354
0.00158137
0.00157927
0.00158433
0.00158304
0.00158599
0.00158529
0.00158676
0.00158647
0.00158692
0.0015869
0.00158669
0.00158685
0.00158621
0.00158648
0.00158554
0.00158589
0.00158476
0.00158516
0.00158388
0.00158433
0.00158293
0.00158341
0.00158195
0.00158245
0.00158092
0.00158144
0.00157983
0.00158037
0.00157776
0.00113791
0.00113825
0.00113725
0.00113758
0.00113664
0.00113694
0.00113613
0.00113637
0.00113575
0.00113592
0.00113554
0.00113562
0.00113553
0.00113551
0.00113574
0.00113561
0.00113612
0.00113591
0.00113664
0.00113636
0.00113726
0.00113694
0.00113793
0.00113759
0.00113827
0.00157875
0.00157823
0.00157988
0.00157931
0.00158096
0.00158043
0.00158198
0.00158147
0.00158297
0.00158248
0.00158392
0.00158345
0.00158482
0.00158438
0.00158562
0.00158524
0.00158629
0.00158597
0.00158677
0.00158656
0.00158699
0.00158692
0.00158681
0.00158696
0.00158602
0.00158651
0.00158431
0.0015853
0.00158131
0.001583
0.00157657
0.00157918
0.00156967
0.00157341
0.00156027
0.0015653
0.00154822
0.00155458
0.00153351
0.00154119
0.00151635
0.00152522
0.00149706
0.00150695
0.00147604
0.00148674
0.00145371
0.00146501
0.00143048
0.00144218
0.00140673
0.00141865
0.00138281
0.00139477
0.00135901
0.00137088
0.00133561
0.00134724
0.00131286
0.00132414
0.00129101
0.00130181
0.00127028
0.00128049
0.0012509
0.0012604
0.00123308
0.00124178
0.00121702
0.00122482
0.00120281
0.00120968
0.0011905
0.00119642
0.00117996
0.00118502
0.00117093
0.00117528
0.00116306
0.00116688
0.0011559
0.00115941
0.00114908
0.00115247
0.00114571
0.00158308
0.00158308
0.00157969
0.00114272
0.00113925
0.00113516
0.00113544
0.0015824
0.00158236
0.00158172
0.00158159
0.00158107
0.00158081
0.00158045
0.00158004
0.00157988
0.00157931
0.00157679
0.00157634
0.00157937
0.00157865
0.00157894
0.00157808
0.00157859
0.00157759
0.00157633
0.00157827
0.0015772
0.00157629
0.00177983
0.0015769
0.00158068
0.00157668
0.00157655
0.00157635
0.00157723
0.00157679
0.00158308
0.00114959
0.00114617
0.00115652
0.00115304
0.00116379
0.00116009
0.00117179
0.00116768
0.00118091
0.00117619
0.00119148
0.001186
0.00120373
0.00119738
0.00121782
0.00121054
0.00123377
0.00122557
0.00125151
0.00124243
0.00127084
0.00126099
0.00129155
0.00128104
0.00131339
0.00130234
0.00133612
0.00132466
0.0013595
0.00134774
0.00138328
0.00137136
0.0014072
0.00139524
0.00143094
0.00141911
0.00145413
0.00144263
0.00147643
0.00146542
0.00149742
0.00148711
0.00151667
0.00150728
0.00153378
0.00152551
0.00154843
0.00154143
0.00156044
0.00155477
0.00156978
0.00156543
0.00157663
0.0015735
0.00158132
0.00157922
0.00158427
0.00158298
0.00158592
0.00158523
0.00158668
0.00158639
0.00158683
0.00158681
0.0015866
0.00158676
0.00158612
0.00158638
0.00158546
0.00158581
0.00158469
0.00158509
0.00158384
0.00158428
0.00158294
0.00158339
0.001582