/*--------------------------------*- C++ -*----------------------------------*\
| =========                 |                                                 |
| \\      /  F ield         | OpenFOAM: The Open Source CFD Toolbox           |
|  \\    /   O peration     | Version:  2212                                  |
|   \\  /    A nd           | Website:  www.openfoam.com                      |
|    \\/     M anipulation  |                                                 |
\*---------------------------------------------------------------------------*/
FoamFile
{
    version     2.0;
    format      ascii;
    arch        "LSB;label=32;scalar=64";
    class       surfaceScalarField;
    location    "0.000252";
    object      phi;
}
// * * * * * * * * * * * * * * * * * * * * * * * * * * * * * * * * * * * * * //

dimensions      [1 0 -1 0 0 0 0];

oriented        oriented;

internalField   nonuniform List<scalar> 
59218
(
-2.30427e-11
-6.45673e-09
7.10341e-12
-5.14944e-11
-1.03099e-08
-9.13495e-11
-1.44797e-08
-1.41611e-10
-1.7957e-08
-2.05085e-10
-2.27064e-08
-2.75744e-10
-2.77055e-08
-3.60525e-10
-3.21509e-08
-4.49937e-10
-3.52329e-08
-5.46582e-10
-3.85075e-08
-6.57892e-10
-4.27626e-08
-7.79794e-10
-4.58576e-08
-9.06156e-10
-4.81476e-08
-1.0504e-09
-5.47528e-08
-1.19615e-09
-6.18936e-08
-1.35705e-09
-6.84076e-08
-1.54394e-09
-7.53446e-08
-1.80371e-09
-8.57215e-08
-2.16098e-09
-9.35121e-08
-2.55814e-09
-1.02939e-07
-3.00463e-09
-1.11175e-07
-3.43804e-09
-1.04501e-07
-3.89002e-09
-9.60262e-08
-4.19554e-09
-1.01187e-07
-4.61367e-09
-1.11036e-07
-5.19149e-09
-1.24724e-07
-5.90766e-09
-1.3699e-07
-6.57218e-09
-1.51061e-07
-7.36494e-09
-1.78896e-07
-7.56925e-09
-1.68424e-07
-6.94376e-09
-1.4651e-07
-5.64262e-09
-1.23027e-07
-4.38297e-09
-9.58334e-08
-3.24431e-09
-7.6018e-08
-2.40371e-09
-6.07003e-08
-1.81776e-09
-5.01422e-08
-1.37906e-09
-4.28134e-08
-1.05894e-09
-3.74089e-08
-8.13192e-10
-3.41787e-08
-6.08855e-10
-3.41151e-08
-4.47656e-10
-3.00256e-08
-3.20427e-10
-2.41735e-08
-2.06934e-10
-2.08858e-08
-1.00543e-10
-1.82681e-08
-1.00685e-11
-1.53697e-08
7.16265e-11
-1.32036e-08
1.13498e-10
-1.04829e-08
2.03619e-11
-7.03419e-09
-2.81355e-09
-2.15221e-11
-6.44541e-09
6.59293e-12
-4.76968e-11
-1.02888e-08
-8.45581e-11
-1.44669e-08
-1.30017e-10
-1.79647e-08
-1.89347e-10
-2.27518e-08
-2.57822e-10
-2.77762e-08
-3.36435e-10
-3.22189e-08
-4.19934e-10
-3.52418e-08
-5.09417e-10
-3.84775e-08
-6.11192e-10
-4.26657e-08
-7.22116e-10
-4.57675e-08
-8.37802e-10
-4.81032e-08
-9.69324e-10
-5.47338e-08
-1.10327e-09
-6.19209e-08
-1.24684e-09
-6.84244e-08
-1.41113e-09
-7.52425e-08
-1.63518e-09
-8.56171e-08
-1.94417e-09
-9.32696e-08
-2.30832e-09
-1.02508e-07
-2.6699e-09
-1.11329e-07
-3.00636e-09
-1.04056e-07
-3.29914e-09
-9.53751e-08
-3.57814e-09
-1.0037e-07
-3.968e-09
-1.10712e-07
-4.45783e-09
-1.23752e-07
-5.00627e-09
-1.36119e-07
-5.6558e-09
-1.49803e-07
-6.30615e-09
-1.78102e-07
-6.50791e-09
-1.68347e-07
-6.0325e-09
-1.46979e-07
-4.97669e-09
-1.24151e-07
-3.86688e-09
-9.68892e-08
-2.89999e-09
-7.6944e-08
-2.16281e-09
-6.14233e-08
-1.63552e-09
-5.06678e-08
-1.24754e-09
-4.31965e-08
-9.57131e-10
-3.76945e-08
-7.34635e-10
-3.43997e-08
-5.4628e-10
-3.4305e-08
-3.98015e-10
-3.01771e-08
-2.8385e-10
-2.42919e-08
-1.75267e-10
-2.10001e-08
-6.45022e-11
-1.83858e-08
4.39906e-11
-1.54839e-08
1.37074e-10
-1.33002e-08
1.82615e-10
-1.05279e-08
1.30053e-10
-6.98119e-09
-2.68646e-09
-3.06058e-11
-6.44478e-09
8.81239e-12
-6.57134e-11
-1.02815e-08
-1.1528e-10
-1.4451e-08
-1.74433e-10
-1.79583e-08
-2.54238e-10
-2.27634e-08
-3.5121e-10
-2.77983e-08
-4.62543e-10
-3.22396e-08
-5.76359e-10
-3.52229e-08
-6.95498e-10
-3.83243e-08
-8.28673e-10
-4.24912e-08
-9.7367e-10
-4.56023e-08
-1.12654e-09
-4.79992e-08
-1.30693e-09
-5.46472e-08
-1.49797e-09
-6.17742e-08
-1.69525e-09
-6.8273e-08
-1.9073e-09
-7.52513e-08
-2.1758e-09
-8.57262e-08
-2.54553e-09
-9.29414e-08
-2.98722e-09
-1.02106e-07
-3.40267e-09
-1.10849e-07
-3.78039e-09
-1.03634e-07
-4.12227e-09
-9.48631e-08
-4.47884e-09
-1.00211e-07
-4.92056e-09
-1.11068e-07
-5.45154e-09
-1.23107e-07
-6.05572e-09
-1.35239e-07
-6.78635e-09
-1.48783e-07
-7.4844e-09
-1.76896e-07
-7.67988e-09
-1.6821e-07
-7.10252e-09
-1.47591e-07
-5.87853e-09
-1.25363e-07
-4.57531e-09
-9.80991e-08
-3.43328e-09
-7.80686e-08
-2.58525e-09
-6.22572e-08
-1.96691e-09
-5.12904e-08
-1.51666e-09
-4.3645e-08
-1.17924e-09
-3.80279e-08
-9.19084e-10
-3.46571e-08
-6.99124e-10
-3.45249e-08
-5.27396e-10
-3.03512e-08
-3.98139e-10
-2.4425e-08
-2.87595e-10
-2.11156e-08
-1.82697e-10
-1.84966e-08
-7.59751e-11
-1.55961e-08
3.2316e-11
-1.3411e-08
1.08719e-10
-1.06038e-08
1.06802e-10
-6.97919e-09
-2.58294e-09
-3.90067e-11
-6.44225e-09
1.0808e-11
-8.21201e-11
-1.02687e-08
-1.43159e-10
-1.4428e-08
-2.14102e-10
-1.79499e-08
-3.11245e-10
-2.27487e-08
-4.3196e-10
-2.77795e-08
-5.6959e-10
-3.22101e-08
-7.08804e-10
-3.51612e-08
-8.55322e-10
-3.8156e-08
-1.01654e-09
-4.23203e-08
-1.19001e-09
-4.54233e-08
-1.37379e-09
-4.7866e-08
-1.59007e-09
-5.45883e-08
-1.82138e-09
-6.17102e-08
-2.06571e-09
-6.81556e-08
-2.3291e-09
-7.51363e-08
-2.64263e-09
-8.56307e-08
-3.05241e-09
-9.26528e-08
-3.52303e-09
-1.01711e-07
-3.98595e-09
-1.10095e-07
-4.41141e-09
-1.03194e-07
-4.77672e-09
-9.47207e-08
-5.11936e-09
-9.90093e-08
-5.61436e-09
-1.10557e-07
-6.21762e-09
-1.22551e-07
-6.86359e-09
-1.34599e-07
-7.62203e-09
-1.48257e-07
-8.34774e-09
-1.75778e-07
-8.56186e-09
-1.67985e-07
-7.91199e-09
-1.48318e-07
-6.56058e-09
-1.26734e-07
-5.12693e-09
-9.94643e-08
-3.84824e-09
-7.93639e-08
-2.93184e-09
-6.31666e-08
-2.24378e-09
-5.19783e-08
-1.74519e-09
-4.41429e-08
-1.37149e-09
-3.83983e-08
-1.08044e-09
-3.49447e-08
-8.34568e-10
-3.47693e-08
-6.43597e-10
-3.05435e-08
-4.99113e-10
-2.45726e-08
-3.75396e-10
-2.12439e-08
-2.62739e-10
-1.86146e-08
-1.56928e-10
-1.57069e-08
-5.3174e-11
-1.35172e-08
2.82138e-11
-1.06852e-08
5.16992e-11
-7.00298e-09
-2.53255e-09
-4.12541e-11
-6.43917e-09
1.13761e-11
-8.6527e-11
-1.02504e-08
-1.50898e-10
-1.43968e-08
-2.24908e-10
-1.79301e-08
-3.26322e-10
-2.27144e-08
-4.53708e-10
-2.77233e-08
-5.9834e-10
-3.21304e-08
-7.44851e-10
-3.50542e-08
-8.99094e-10
-3.80003e-08
-1.06813e-09
-4.21613e-08
-1.24937e-09
-4.52471e-08
-1.4418e-09
-4.77035e-08
-1.66759e-09
-5.44671e-08
-1.91232e-09
-6.15422e-08
-2.17709e-09
-6.79902e-08
-2.4611e-09
-7.50151e-08
-2.78671e-09
-8.55416e-08
-3.19617e-09
-9.29312e-08
-3.6434e-09
-1.01445e-07
-4.11593e-09
-1.09299e-07
-4.57546e-09
-1.02774e-07
-4.93133e-09
-9.43268e-08
-5.27041e-09
-9.81529e-08
-5.79394e-09
-1.09921e-07
-6.45032e-09
-1.21968e-07
-7.14306e-09
-1.33835e-07
-7.86365e-09
-1.4754e-07
-8.59614e-09
-1.74643e-07
-8.91264e-09
-1.67543e-07
-8.24403e-09
-1.49072e-07
-6.82097e-09
-1.28247e-07
-5.3836e-09
-1.00925e-07
-4.06697e-09
-8.08074e-08
-3.11322e-09
-6.41511e-08
-2.38071e-09
-5.27121e-08
-1.85248e-09
-4.46747e-08
-1.45709e-09
-3.87942e-08
-1.14874e-09
-3.52516e-08
-8.89084e-10
-3.5027e-08
-6.88874e-10
-3.07441e-08
-5.38864e-10
-2.47252e-08
-4.11225e-10
-2.13759e-08
-2.9787e-10
-1.87334e-08
-1.96191e-10
-1.58134e-08
-1.04597e-10
-1.36107e-08
-2.7651e-11
-1.07606e-08
1.47585e-11
-7.04219e-09
-2.51765e-09
-3.89631e-11
-6.44012e-09
1.08947e-11
-8.14533e-11
-1.02344e-08
-1.42784e-10
-1.4367e-08
-2.12824e-10
-1.79085e-08
-3.10163e-10
-2.26749e-08
-4.3152e-10
-2.76567e-08
-5.69525e-10
-3.20422e-08
-7.09489e-10
-3.49197e-08
-8.57671e-10
-3.79083e-08
-1.01789e-09
-4.20615e-08
-1.18882e-09
-4.51309e-08
-1.37085e-09
-4.76036e-08
-1.58622e-09
-5.43548e-08
-1.82361e-09
-6.13524e-08
-2.07877e-09
-6.77717e-08
-2.34597e-09
-7.4785e-08
-2.65741e-09
-8.52491e-08
-3.03632e-09
-9.28695e-08
-3.46199e-09
-1.01264e-07
-3.92973e-09
-1.08636e-07
-4.38709e-09
-1.02603e-07
-4.6622e-09
-9.40607e-08
-5.00678e-09
-9.77653e-08
-5.53408e-09
-1.08913e-07
-6.20661e-09
-1.21307e-07
-6.86078e-09
-1.33153e-07
-7.57323e-09
-1.46845e-07
-8.27244e-09
-1.73529e-07
-8.63145e-09
-1.67032e-07
-8.03857e-09
-1.49741e-07
-6.65065e-09
-1.2968e-07
-5.2672e-09
-1.02374e-07
-3.99381e-09
-8.22271e-08
-3.06074e-09
-6.51414e-08
-2.33469e-09
-5.34423e-08
-1.81135e-09
-4.52035e-08
-1.42152e-09
-3.91861e-08
-1.11896e-09
-3.55553e-08
-8.66076e-10
-3.52795e-08
-6.71407e-10
-3.0939e-08
-5.25576e-10
-2.48729e-08
-4.03243e-10
-2.15023e-08
-2.97264e-10
-1.88448e-08
-2.09619e-10
-1.5906e-08
-1.27624e-10
-1.3696e-08
-5.35603e-11
-1.08331e-08
-4.34864e-12
-7.08601e-09
-2.5216e-09
-2.62565e-11
-6.49e-09
8.13477e-12
-5.40281e-11
-1.0247e-08
-9.79084e-11
-1.43585e-08
-1.48858e-10
-1.79128e-08
-2.16288e-10
-2.26957e-08
-3.04355e-10
-2.76775e-08
-3.99239e-10
-3.20611e-08
-4.99314e-10
-3.49188e-08
-6.04543e-10
-3.78742e-08
-7.17681e-10
-4.20034e-08
-8.39285e-10
-4.50772e-08
-9.6832e-10
-4.762e-08
-1.11827e-09
-5.44223e-08
-1.28737e-09
-6.13174e-08
-1.47307e-09
-6.76754e-08
-1.67195e-09
-7.45813e-08
-1.90269e-09
-8.485e-08
-2.17506e-09
-9.27113e-08
-2.5119e-09
-1.01531e-07
-2.87377e-09
-1.07942e-07
-3.22434e-09
-1.02367e-07
-3.41257e-09
-9.40191e-08
-3.67918e-09
-9.74764e-08
-4.12317e-09
-1.08227e-07
-4.70339e-09
-1.20638e-07
-5.23731e-09
-1.32465e-07
-5.86751e-09
-1.46183e-07
-6.46707e-09
-1.7264e-07
-6.80078e-09
-1.66578e-07
-6.3762e-09
-1.50175e-07
-5.35842e-09
-1.30761e-07
-4.27643e-09
-1.03571e-07
-3.21876e-09
-8.3398e-08
-2.42647e-09
-6.59566e-08
-1.85513e-09
-5.40274e-08
-1.42318e-09
-4.56386e-08
-1.10264e-09
-3.95057e-08
-8.57137e-10
-3.57986e-08
-6.56259e-10
-3.54771e-08
-5.0434e-10
-3.1089e-08
-3.9163e-10
-2.49855e-08
-2.98762e-10
-2.15973e-08
-2.21447e-10
-1.89266e-08
-1.56844e-10
-1.5976e-08
-9.98026e-11
-1.37565e-08
-4.91622e-11
-1.08829e-08
-8.73209e-12
-7.12053e-09
-2.52797e-09
-3.86157e-12
-6.60973e-09
3.44802e-12
-1.04364e-11
-1.0298e-08
-2.45937e-11
-1.4397e-08
-4.32007e-11
-1.79475e-08
-6.61342e-11
-2.27209e-08
-9.51122e-11
-2.76727e-08
-1.25071e-10
-3.2027e-08
-1.58961e-10
-3.48863e-08
-1.93451e-10
-3.78229e-08
-2.31286e-10
-4.19168e-08
-2.73894e-10
-4.50296e-08
-3.19306e-10
-4.75929e-08
-3.70872e-10
-5.44239e-08
-4.36508e-10
-6.14572e-08
-5.07602e-10
-6.77777e-08
-5.76662e-10
-7.45914e-08
-6.8032e-10
-8.47514e-08
-8.19446e-10
-9.23273e-08
-9.97296e-10
-1.01412e-07
-1.20414e-09
-1.07343e-07
-1.38217e-09
-1.0226e-07
-1.44763e-09
-9.44671e-08
-1.60671e-09
-9.70336e-08
-1.93106e-09
-1.07851e-07
-2.33314e-09
-1.20222e-07
-2.70797e-09
-1.31881e-07
-3.17905e-09
-1.45847e-07
-3.62877e-09
-1.71962e-07
-3.91166e-09
-1.66204e-07
-3.79128e-09
-1.50219e-07
-3.24753e-09
-1.3134e-07
-2.57466e-09
-1.04364e-07
-1.91888e-09
-8.43768e-08
-1.41146e-09
-6.65015e-08
-1.02537e-09
-5.44249e-08
-7.53618e-10
-4.59209e-08
-5.60222e-10
-3.97037e-08
-4.14933e-10
-3.59443e-08
-3.02427e-10
-3.55867e-08
-2.20574e-10
-3.11679e-08
-1.62306e-10
-2.50431e-08
-1.17351e-10
-2.16438e-08
-8.30791e-11
-1.89645e-08
-5.86386e-11
-1.60053e-08
-4.01946e-11
-1.37788e-08
-2.35325e-11
-1.08995e-08
-5.81274e-12
-7.13266e-09
-2.5307e-09
1.02414e-11
-6.78533e-09
1.0211e-12
1.58501e-11
-1.03877e-08
1.68118e-11
-1.44704e-08
1.83478e-11
-1.80172e-08
2.03915e-11
-2.27854e-08
2.45438e-11
-2.77259e-08
3.04626e-11
-3.20702e-08
3.50541e-11
-3.4936e-08
3.90491e-11
-3.79084e-08
4.47627e-11
-4.20127e-08
4.95541e-11
-4.50993e-08
5.47683e-11
-4.7694e-08
5.71012e-11
-5.45122e-08
5.65417e-11
-6.15366e-08
5.21967e-11
-6.78728e-08
4.49183e-11
-7.46484e-08
2.24095e-11
-8.50313e-08
-2.76948e-11
-9.2251e-08
-1.11001e-10
-1.01124e-07
-2.3384e-10
-1.07098e-07
-3.16297e-10
-1.0324e-07
-3.18452e-10
-9.44085e-08
-4.40619e-10
-9.6928e-08
-6.84129e-10
-1.08038e-07
-9.79366e-10
-1.20118e-07
-1.25963e-09
-1.31561e-07
-1.62931e-09
-1.45956e-07
-1.99723e-09
-1.71336e-07
-2.24799e-09
-1.65798e-07
-2.30606e-09
-1.50107e-07
-2.01297e-09
-1.31701e-07
-1.61229e-09
-1.04861e-07
-1.16152e-09
-8.45388e-08
-8.1334e-10
-6.69212e-08
-5.53626e-10
-5.47058e-08
-3.77995e-10
-4.61075e-08
-2.54497e-10
-3.98321e-08
-1.66232e-10
-3.60343e-08
-1.03782e-10
-3.56475e-08
-6.15371e-11
-3.12066e-08
-3.39863e-11
-2.50687e-08
-1.64595e-11
-2.16618e-08
-6.47278e-12
-1.89774e-08
-2.95772e-12
-1.60133e-08
-4.98686e-12
-1.37807e-08
-6.35236e-12
-1.08989e-08
-3.37896e-12
-7.13076e-09
-2.53096e-09
4.50763e-12
-6.8056e-09
2.76811e-12
5.4598e-12
-1.04772e-08
-2.06235e-12
-1.45072e-08
-1.027e-11
-1.80404e-08
-1.88133e-11
-2.28159e-08
-2.76853e-11
-2.77555e-08
-3.569e-11
-3.20968e-08
-4.65888e-11
-3.49805e-08
-5.79283e-11
-3.79571e-08
-7.10472e-11
-4.206e-08
-8.5505e-11
-4.51716e-08
-9.92752e-11
-4.77878e-08
-1.1839e-10
-5.46097e-08
-1.44756e-10
-6.15858e-08
-1.76769e-10
-6.7888e-08
-2.14741e-10
-7.46827e-08
-2.67953e-10
-8.48978e-08
-3.49739e-10
-9.24033e-08
-4.52817e-10
-1.00813e-07
-6.33756e-10
-1.07063e-07
-7.09877e-10
-1.03068e-07
-7.34688e-10
-9.42209e-08
-8.94657e-10
-9.70696e-08
-1.16054e-09
-1.08335e-07
-1.46613e-09
-1.19957e-07
-1.77487e-09
-1.31103e-07
-2.15218e-09
-1.45756e-07
-2.52965e-09
-1.70811e-07
-2.77539e-09
-1.65434e-07
-2.78729e-09
-1.50048e-07
-2.42564e-09
-1.32103e-07
-1.92528e-09
-1.05343e-07
-1.42642e-09
-8.4917e-08
-1.02361e-09
-6.73485e-08
-7.23409e-10
-5.50408e-08
-5.16179e-10
-4.63289e-08
-3.69242e-10
-3.99854e-08
-2.6133e-10
-3.61439e-08
-1.80867e-10
-3.57265e-08
-1.23792e-10
-3.12607e-08
-8.44419e-11
-2.51058e-08
-5.59193e-11
-2.16901e-08
-3.56341e-11
-1.89999e-08
-2.28781e-11
-1.60301e-08
-1.66632e-11
-1.37913e-08
-1.25181e-11
-1.09044e-08
-5.67119e-12
-7.13337e-09
-2.53302e-09
-3.16514e-12
-6.77961e-09
4.67878e-12
-7.65007e-12
-1.05583e-08
-2.52703e-11
-1.45182e-08
-4.65623e-11
-1.80488e-08
-7.04391e-11
-2.28119e-08
-9.62408e-11
-2.77444e-08
-1.24823e-10
-3.20919e-08
-1.57523e-10
-3.49798e-08
-1.93404e-10
-3.79484e-08
-2.31534e-10
-4.20566e-08
-2.71756e-10
-4.51762e-08
-3.13922e-10
-4.77809e-08
-3.6294e-10
-5.4575e-08
-4.22318e-10
-6.15788e-08
-4.90987e-10
-6.78573e-08
-5.65938e-10
-7.45431e-08
-6.65511e-10
-8.48759e-08
-7.85047e-10
-9.25611e-08
-9.3137e-10
-1.00589e-07
-1.17492e-09
-1.06821e-07
-1.26951e-09
-1.02762e-07
-1.33459e-09
-9.35164e-08
-1.54745e-09
-9.7223e-08
-1.84207e-09
-1.08428e-07
-2.17816e-09
-1.19828e-07
-2.53972e-09
-1.30813e-07
-2.95496e-09
-1.45356e-07
-3.38123e-09
-1.70324e-07
-3.63062e-09
-1.65047e-07
-3.5712e-09
-1.5008e-07
-3.13298e-09
-1.32548e-07
-2.45067e-09
-1.05904e-07
-1.84903e-09
-8.55069e-08
-1.35275e-09
-6.78629e-08
-9.89842e-10
-5.5433e-08
-7.32337e-10
-4.66024e-08
-5.45242e-10
-4.01813e-08
-4.04902e-10
-3.62879e-08
-2.96091e-10
-3.58346e-08
-2.16394e-10
-3.13371e-08
-1.59257e-10
-2.516e-08
-1.14393e-10
-2.1734e-08
-7.8842e-11
-1.90372e-08
-5.25562e-11
-1.60604e-08
-3.42786e-11
-1.38143e-08
-2.10993e-11
-1.09195e-08
-8.33836e-12
-7.14221e-09
-2.53734e-09
-8.61149e-12
-6.73674e-09
5.86358e-12
-1.75211e-11
-1.05461e-08
-4.4586e-11
-1.45011e-08
-7.70812e-11
-1.80421e-08
-1.12654e-10
-2.28143e-08
-1.54295e-10
-2.77483e-08
-2.00813e-10
-3.21069e-08
-2.52573e-10
-3.50032e-08
-3.07401e-10
-3.79417e-08
-3.6586e-10
-4.20605e-08
-4.27816e-10
-4.52111e-08
-4.91991e-10
-4.77951e-08
-5.66159e-10
-5.45238e-08
-6.53089e-10
-6.15249e-08
-7.49295e-10
-6.78056e-08
-8.64273e-10
-7.45645e-08
-1.00066e-09
-8.49355e-08
-1.14942e-09
-9.25142e-08
-1.33722e-09
-1.00255e-07
-1.61888e-09
-1.06427e-07
-1.7384e-09
-1.02023e-07
-1.87307e-09
-9.26784e-08
-2.14155e-09
-9.73138e-08
-2.45948e-09
-1.08346e-07
-2.83916e-09
-1.19715e-07
-3.25289e-09
-1.30502e-07
-3.71921e-09
-1.44925e-07
-4.1955e-09
-1.69778e-07
-4.50039e-09
-1.64654e-07
-4.36382e-09
-1.50151e-07
-3.78951e-09
-1.3309e-07
-2.99983e-09
-1.06551e-07
-2.27794e-09
-8.62688e-08
-1.69878e-09
-6.84752e-08
-1.25321e-09
-5.58777e-08
-9.38852e-10
-4.69256e-08
-7.10367e-10
-4.04172e-08
-5.37349e-10
-3.64654e-08
-4.00588e-10
-3.59725e-08
-2.99172e-10
-3.14362e-08
-2.25012e-10
-2.52312e-08
-1.65154e-10
-2.17921e-08
-1.15946e-10
-1.90875e-08
-7.75886e-11
-1.61027e-08
-4.89178e-11
-1.38486e-08
-2.82071e-11
-1.09433e-08
-1.04949e-11
-7.15632e-09
-2.54335e-09
-1.16022e-11
-6.68745e-09
5.87277e-12
-2.34009e-11
-1.05123e-08
-5.55209e-11
-1.44742e-08
-9.4053e-11
-1.80227e-08
-1.35981e-10
-2.27889e-08
-1.85991e-10
-2.77244e-08
-2.41347e-10
-3.21073e-08
-3.03637e-10
-3.50247e-08
-3.6856e-10
-3.79035e-08
-4.40123e-10
-4.20145e-08
-5.12422e-10
-4.52044e-08
-5.86579e-10
-4.77554e-08
-6.73945e-10
-5.4486e-08
-7.80189e-10
-6.14877e-08
-8.97356e-10
-6.77494e-08
-1.02412e-09
-7.45514e-08
-1.1837e-09
-8.50145e-08
-1.34363e-09
-9.22992e-08
-1.55427e-09
-1.00076e-07
-1.83496e-09
-1.06173e-07
-1.97903e-09
-1.00521e-07
-2.17997e-09
-9.19511e-08
-2.47794e-09
-9.71173e-08
-2.80412e-09
-1.0826e-07
-3.203e-09
-1.19468e-07
-3.65604e-09
-1.30318e-07
-4.14972e-09
-1.44411e-07
-4.67085e-09
-1.69271e-07
-5.00571e-09
-1.64253e-07
-4.86885e-09
-1.50273e-07
-4.28594e-09
-1.33676e-07
-3.36281e-09
-1.07424e-07
-2.59422e-09
-8.71472e-08
-1.92036e-09
-6.91709e-08
-1.42375e-09
-5.63606e-08
-1.0702e-09
-4.72838e-08
-8.13215e-10
-4.068e-08
-6.18305e-10
-3.6665e-08
-4.63697e-10
-3.61282e-08
-3.48762e-10
-3.15483e-08
-2.64265e-10
-2.53121e-08
-1.95107e-10
-2.18587e-08
-1.37265e-10
-1.91455e-08
-9.11399e-11
-1.61525e-08
-5.59869e-11
-1.38901e-08
-3.12776e-11
-1.09728e-08
-1.12574e-11
-7.17408e-09
-2.5501e-09
-2.52717e-12
-6.63665e-09
2.83826e-12
-5.22408e-12
-1.04678e-08
-2.29319e-11
-1.44806e-08
-4.74148e-11
-1.80462e-08
-7.22888e-11
-2.27844e-08
-9.97317e-11
-2.77355e-08
-1.29556e-10
-3.21594e-08
-1.59144e-10
-3.51027e-08
-1.91642e-10
-3.79759e-08
-2.31552e-10
-4.20301e-08
-2.69919e-10
-4.52047e-08
-3.08984e-10
-4.77513e-08
-3.5818e-10
-5.4452e-08
-4.18506e-10
-6.1407e-08
-4.89687e-10
-6.77221e-08
-5.68173e-10
-7.45469e-08
-6.56143e-10
-8.50039e-08
-7.64128e-10
-9.21124e-08
-9.11084e-10
-9.9932e-08
-1.07578e-09
-1.05866e-07
-1.21938e-09
-9.97148e-08
-1.42369e-09
-9.14948e-08
-1.66255e-09
-9.69429e-08
-1.92688e-09
-1.08105e-07
-2.26605e-09
-1.1932e-07
-2.66168e-09
-1.30011e-07
-3.10653e-09
-1.44192e-07
-3.57509e-09
-1.69213e-07
-3.91919e-09
-1.63858e-07
-3.88966e-09
-1.50224e-07
-3.43573e-09
-1.34098e-07
-2.76171e-09
-1.08066e-07
-2.08858e-09
-8.79193e-08
-1.52741e-09
-6.97351e-08
-1.10515e-09
-5.67634e-08
-8.09234e-10
-4.75837e-08
-5.98083e-10
-4.08933e-08
-4.4091e-10
-3.6826e-08
-3.19734e-10
-3.62515e-08
-2.31999e-10
-3.16348e-08
-1.69499e-10
-2.53713e-08
-1.19985e-10
-2.19051e-08
-7.9945e-11
-1.91848e-08
-4.94541e-11
-1.6186e-08
-2.87267e-11
-1.39174e-08
-1.67202e-11
-1.0991e-08
-7.47357e-12
-7.18303e-09
-2.55358e-09
1.46893e-12
-6.59087e-09
1.42683e-12
2.46744e-12
-1.04327e-08
-8.69757e-12
-1.44843e-08
-2.62815e-11
-1.8047e-08
-4.43585e-11
-2.27829e-08
-6.23599e-11
-2.77482e-08
-7.99951e-11
-3.21814e-08
-9.36879e-11
-3.51218e-08
-1.1112e-10
-3.80598e-08
-1.3503e-10
-4.21103e-08
-1.57545e-10
-4.52507e-08
-1.80109e-10
-4.78048e-08
-2.10386e-10
-5.45027e-08
-2.51145e-10
-6.1363e-08
-2.96613e-10
-6.77388e-08
-3.46186e-10
-7.4656e-08
-4.05865e-10
-8.49089e-08
-4.87041e-10
-9.20112e-08
-6.01054e-10
-9.98239e-08
-7.27428e-10
-1.0569e-07
-8.71038e-10
-9.94823e-08
-1.08242e-09
-9.14141e-08
-1.28641e-09
-9.67621e-08
-1.51676e-09
-1.07931e-07
-1.81061e-09
-1.1914e-07
-2.18017e-09
-1.29713e-07
-2.61539e-09
-1.43986e-07
-3.0464e-09
-1.69888e-07
-3.35419e-09
-1.63543e-07
-3.4129e-09
-1.50131e-07
-3.06497e-09
-1.344e-07
-2.49915e-09
-1.08663e-07
-1.87219e-09
-8.87972e-08
-1.33574e-09
-7.02559e-08
-9.5555e-10
-5.71459e-08
-6.8784e-10
-4.7852e-08
-4.99232e-10
-4.10799e-08
-3.59892e-10
-3.69662e-08
-2.54643e-10
-3.63572e-08
-1.79542e-10
-3.17082e-08
-1.26704e-10
-2.54207e-08
-8.61988e-11
-2.19417e-08
-5.40949e-11
-1.92153e-08
-3.03412e-11
-1.6212e-08
-1.55986e-11
-1.39388e-08
-8.54328e-12
-1.10053e-08
-5.19232e-12
-7.18848e-09
-2.55553e-09
-6.24852e-12
-6.54307e-09
2.72538e-12
-1.41716e-11
-1.04007e-08
-3.55705e-11
-1.44755e-08
-6.56657e-11
-1.80365e-08
-9.93574e-11
-2.27749e-08
-1.3857e-10
-2.77324e-08
-1.79635e-10
-3.2151e-08
-2.19669e-10
-3.51031e-08
-2.6162e-10
-3.80965e-08
-3.1176e-10
-4.21558e-08
-3.63052e-10
-4.52558e-08
-4.16825e-10
-4.78387e-08
-4.80654e-10
-5.45368e-08
-5.5777e-10
-6.14157e-08
-6.43935e-10
-6.78427e-08
-7.3247e-10
-7.46478e-08
-8.40033e-10
-8.48702e-08
-9.69469e-10
-9.19418e-08
-1.13397e-09
-9.97689e-08
-1.30937e-09
-1.05498e-07
-1.50851e-09
-9.95431e-08
-1.76952e-09
-9.14273e-08
-2.0177e-09
-9.64542e-08
-2.28986e-09
-1.07806e-07
-2.64146e-09
-1.18935e-07
-3.07235e-09
-1.29287e-07
-3.56605e-09
-1.43436e-07
-4.03176e-09
-1.7007e-07
-4.41295e-09
-1.63163e-07
-4.3841e-09
-1.50111e-07
-3.90795e-09
-1.34709e-07
-3.29434e-09
-1.09492e-07
-2.44493e-09
-8.95463e-08
-1.76566e-09
-7.09153e-08
-1.29151e-09
-5.76436e-08
-9.52296e-10
-4.81892e-08
-7.1053e-10
-4.13164e-08
-5.29751e-10
-3.7145e-08
-3.88582e-10
-3.64969e-08
-2.85745e-10
-3.18091e-08
-2.11961e-10
-2.54912e-08
-1.52914e-10
-2.19968e-08
-1.03765e-10
-1.92618e-08
-6.43942e-11
-1.62528e-08
-3.50984e-11
-1.39746e-08
-1.67187e-11
-1.10324e-08
-6.84802e-12
-7.20288e-09
-2.56011e-09
-1.71229e-11
-6.49142e-09
4.86546e-12
-3.73646e-11
-1.03597e-08
-7.33527e-11
-1.44437e-08
-1.19836e-10
-1.79996e-08
-1.78611e-10
-2.27473e-08
-2.46731e-10
-2.76752e-08
-3.16842e-10
-3.20832e-08
-3.95026e-10
-3.50104e-08
-4.72995e-10
-3.80363e-08
-5.58819e-10
-4.21223e-08
-6.50788e-10
-4.52185e-08
-7.45626e-10
-4.77546e-08
-8.53508e-10
-5.44026e-08
-9.86316e-10
-6.13357e-08
-1.12586e-09
-6.77385e-08
-1.27874e-09
-7.4449e-08
-1.45406e-09
-8.46491e-08
-1.65257e-09
-9.18723e-08
-1.8837e-09
-9.95258e-08
-2.14823e-09
-1.05276e-07
-2.41554e-09
-9.94798e-08
-2.73744e-09
-9.12736e-08
-3.06028e-09
-9.6043e-08
-3.40398e-09
-1.0758e-07
-3.82409e-09
-1.18555e-07
-4.35669e-09
-1.28694e-07
-4.9608e-09
-1.43002e-07
-5.49899e-09
-1.69088e-07
-5.94178e-09
-1.62757e-07
-5.87946e-09
-1.5016e-07
-5.1983e-09
-1.35231e-07
-4.33577e-09
-1.10574e-07
-3.30457e-09
-9.03237e-08
-2.42933e-09
-7.17831e-08
-1.79451e-09
-5.82984e-08
-1.3479e-09
-4.86419e-08
-1.02583e-09
-4.16358e-08
-7.81636e-10
-3.7386e-08
-5.86714e-10
-3.66877e-08
-4.4223e-10
-3.19495e-08
-3.36838e-10
-2.55924e-08
-2.50043e-10
-2.2079e-08
-1.75738e-10
-1.93325e-08
-1.13614e-10
-1.63154e-08
-6.35875e-11
-1.40312e-08
-2.89357e-11
-1.10772e-08
-9.29637e-12
-7.23013e-09
-2.56876e-09
-1.84337e-11
-6.45155e-09
4.66223e-12
-4.04025e-11
-1.03163e-08
-7.6004e-11
-1.44081e-08
-1.24026e-10
-1.79474e-08
-1.82475e-10
-2.26852e-08
-2.49371e-10
-2.76008e-08
-3.28074e-10
-3.20082e-08
-4.05743e-10
-3.49367e-08
-4.85085e-10
-3.79473e-08
-5.71038e-10
-4.20364e-08
-6.65217e-10
-4.51198e-08
-7.6035e-10
-4.76548e-08
-8.73974e-10
-5.42961e-08
-1.00314e-09
-6.12883e-08
-1.14741e-09
-6.76353e-08
-1.30281e-09
-7.4346e-08
-1.48467e-09
-8.4481e-08
-1.68771e-09
-9.16756e-08
-1.92288e-09
-9.93964e-08
-2.20128e-09
-1.05002e-07
-2.46582e-09
-9.92403e-08
-2.79082e-09
-9.12633e-08
-3.12023e-09
-9.5683e-08
-3.47095e-09
-1.07202e-07
-3.90387e-09
-1.18205e-07
-4.44609e-09
-1.2843e-07
-5.06315e-09
-1.42637e-07
-5.59774e-09
-1.68035e-07
-6.08442e-09
-1.62353e-07
-6.04968e-09
-1.50189e-07
-5.47965e-09
-1.35898e-07
-4.45662e-09
-1.11498e-07
-3.42654e-09
-9.1181e-08
-2.52257e-09
-7.26661e-08
-1.8721e-09
-5.89559e-08
-1.40495e-09
-4.91148e-08
-1.06844e-09
-4.19719e-08
-8.13142e-10
-3.76377e-08
-6.09087e-10
-3.68872e-08
-4.58454e-10
-3.20951e-08
-3.49496e-10
-2.56965e-08
-2.59843e-10
-2.2164e-08
-1.82553e-10
-1.94053e-08
-1.17402e-10
-1.63796e-08
-6.42267e-11
-1.40901e-08
-2.75366e-11
-1.11252e-08
-7.95334e-12
-7.26067e-09
-2.57841e-09
-1.51406e-11
-6.42084e-09
3.36516e-12
-3.46128e-11
-1.02841e-08
-6.34295e-11
-1.43851e-08
-1.04389e-10
-1.79119e-08
-1.5433e-10
-2.26572e-08
-2.11164e-10
-2.75875e-08
-2.7449e-10
-3.19928e-08
-3.39559e-10
-3.49021e-08
-4.03356e-10
-3.79002e-08
-4.73537e-10
-4.19603e-08
-5.52819e-10
-4.50448e-08
-6.33609e-10
-4.76078e-08
-7.2624e-10
-5.4237e-08
-8.3536e-10
-6.12902e-08
-9.54403e-10
-6.76093e-08
-1.08432e-09
-7.42786e-08
-1.24151e-09
-8.43947e-08
-1.41845e-09
-9.14236e-08
-1.62157e-09
-9.91442e-08
-1.87022e-09
-1.0476e-07
-2.13492e-09
-9.90584e-08
-2.4225e-09
-9.12064e-08
-2.73097e-09
-9.55431e-08
-3.06671e-09
-1.06906e-07
-3.46667e-09
-1.17867e-07
-3.97501e-09
-1.28025e-07
-4.55439e-09
-1.42147e-07
-5.08794e-09
-1.672e-07
-5.57792e-09
-1.61953e-07
-5.61025e-09
-1.50161e-07
-5.17023e-09
-1.36449e-07
-4.17188e-09
-1.12255e-07
-3.24966e-09
-9.20578e-08
-2.36695e-09
-7.3507e-08
-1.73903e-09
-5.95643e-08
-1.2951e-09
-4.95573e-08
-9.78177e-10
-4.22872e-08
-7.38456e-10
-3.78734e-08
-5.48518e-10
-3.70716e-08
-4.09041e-10
-3.22278e-08
-3.09076e-10
-2.57899e-08
-2.28115e-10
-2.22385e-08
-1.58619e-10
-1.94699e-08
-9.97857e-11
-1.6436e-08
-5.17966e-11
-1.41422e-08
-1.96292e-11
-1.11688e-08
-4.98924e-12
-7.28937e-09
-2.58773e-09
-1.88067e-11
-6.40215e-09
3.76707e-12
-4.24157e-11
-1.02804e-08
-7.39168e-11
-1.43766e-08
-1.18101e-10
-1.78768e-08
-1.72921e-10
-2.26505e-08
-2.3438e-10
-2.7572e-08
-3.05758e-10
-3.19694e-08
-3.79377e-10
-3.48803e-08
-4.49546e-10
-3.78788e-08
-5.2723e-10
-4.1929e-08
-6.16349e-10
-4.50403e-08
-7.04264e-10
-4.75513e-08
-8.1247e-10
-5.4188e-08
-9.28133e-10
-6.12212e-08
-1.05882e-09
-6.74888e-08
-1.20394e-09
-7.41029e-08
-1.3703e-09
-8.41007e-08
-1.56597e-09
-9.12237e-08
-1.78215e-09
-9.89232e-08
-2.05504e-09
-1.04778e-07
-2.32144e-09
-9.88812e-08
-2.61151e-09
-9.09986e-08
-2.93028e-09
-9.55071e-08
-3.26852e-09
-1.06608e-07
-3.68549e-09
-1.17566e-07
-4.18697e-09
-1.27575e-07
-4.76855e-09
-1.41706e-07
-5.3422e-09
-1.66765e-07
-5.82944e-09
-1.61473e-07
-5.88091e-09
-1.50103e-07
-5.37472e-09
-1.36967e-07
-4.40747e-09
-1.13182e-07
-3.47158e-09
-9.30327e-08
-2.54064e-09
-7.4384e-08
-1.86365e-09
-6.02013e-08
-1.39078e-09
-5.00181e-08
-1.05351e-09
-4.26188e-08
-7.98701e-10
-3.81238e-08
-5.95684e-10
-3.72703e-08
-4.46377e-10
-3.23708e-08
-3.3933e-10
-2.58901e-08
-2.52363e-10
-2.23186e-08
-1.77449e-10
-1.95381e-08
-1.13049e-10
-1.64964e-08
-5.87351e-11
-1.41988e-08
-2.11521e-11
-1.12174e-08
-3.96835e-12
-7.32303e-09
-2.5987e-09
-1.58483e-11
-6.4267e-09
2.69589e-12
-3.52863e-11
-1.03425e-08
-5.92944e-11
-1.44366e-08
-9.43767e-11
-1.79061e-08
-1.36528e-10
-2.26655e-08
-1.88114e-10
-2.75744e-08
-2.44869e-10
-3.19555e-08
-3.01465e-10
-3.4839e-08
-3.56061e-10
-3.786e-08
-4.17849e-10
-4.19489e-08
-4.84853e-10
-4.50499e-08
-5.53946e-10
-4.75296e-08
-6.35956e-10
-5.41505e-08
-7.3018e-10
-6.11999e-08
-8.32545e-10
-6.74874e-08
-9.47094e-10
-7.40331e-08
-1.08964e-09
-8.40443e-08
-1.25214e-09
-9.11424e-08
-1.44168e-09
-9.88439e-08
-1.66092e-09
-1.04673e-07
-1.8971e-09
-9.88182e-08
-2.14904e-09
-9.09202e-08
-2.4211e-09
-9.54258e-08
-2.72502e-09
-1.06388e-07
-3.09622e-09
-1.17359e-07
-3.5403e-09
-1.27252e-07
-4.07891e-09
-1.41404e-07
-4.5936e-09
-1.6747e-07
-5.05469e-09
-1.61018e-07
-5.1456e-09
-1.50004e-07
-4.77207e-09
-1.37347e-07
-3.93442e-09
-1.14018e-07
-3.09694e-09
-9.39257e-08
-2.26079e-09
-7.51512e-08
-1.64393e-09
-6.07769e-08
-1.21701e-09
-5.04269e-08
-9.1603e-10
-4.29072e-08
-6.89459e-10
-3.83426e-08
-5.10184e-10
-3.74441e-08
-3.79066e-10
-3.24961e-08
-2.85964e-10
-2.59764e-08
-2.11359e-10
-2.23857e-08
-1.4773e-10
-1.95946e-08
-9.28498e-11
-1.65459e-08
-4.60998e-11
-1.42455e-08
-1.38436e-11
-1.12586e-08
-1.27695e-12
-7.35268e-09
-2.60877e-09
-1.20026e-11
-6.53249e-09
1.95231e-12
-2.63619e-11
-1.05666e-08
-4.13011e-11
-1.46094e-08
-6.54601e-11
-1.80244e-08
-9.53791e-11
-2.27572e-08
-1.33908e-10
-2.76034e-08
-1.71912e-10
-3.1979e-08
-2.12897e-10
-3.48699e-08
-2.49302e-10
-3.78829e-08
-2.88539e-10
-4.1979e-08
-3.32472e-10
-4.50578e-08
-3.7721e-10
-4.75438e-08
-4.3668e-10
-5.41823e-08
-5.01194e-10
-6.11924e-08
-5.72514e-10
-6.7447e-08
-6.58185e-10
-7.39973e-08
-7.61395e-10
-8.39772e-08
-8.86667e-10
-9.09985e-08
-1.04493e-09
-9.87319e-08
-1.23203e-09
-1.04566e-07
-1.42343e-09
-9.8889e-08
-1.6337e-09
-9.08774e-08
-1.86233e-09
-9.52508e-08
-2.13403e-09
-1.06158e-07
-2.45867e-09
-1.17025e-07
-2.85298e-09
-1.26788e-07
-3.33373e-09
-1.41711e-07
-3.80989e-09
-1.66998e-07
-4.26404e-09
-1.60561e-07
-4.38051e-09
-1.49875e-07
-4.07908e-09
-1.3752e-07
-3.43456e-09
-1.14693e-07
-2.67912e-09
-9.47304e-08
-1.93307e-09
-7.59038e-08
-1.40259e-09
-6.13005e-08
-1.02767e-09
-5.07927e-08
-7.63003e-10
-4.31595e-08
-5.66265e-10
-3.85301e-08
-4.1244e-10
-3.75912e-08
-3.01345e-10
-3.26018e-08
-2.23886e-10
-2.60477e-08
-1.63345e-10
-2.24388e-08
-1.12657e-10
-1.96376e-08
-6.89917e-11
-1.65831e-08
-3.15527e-11
-1.42808e-08
-5.56758e-12
-1.12912e-08
2.69923e-12
-7.3766e-09
-2.61764e-09
-1.4251e-11
-6.72389e-09
3.01972e-12
-2.95787e-11
-1.07616e-08
-4.56791e-11
-1.49314e-08
-7.1262e-11
-1.84108e-08
-1.00938e-10
-2.30029e-08
-1.45617e-10
-2.76602e-08
-1.89654e-10
-3.20037e-08
-2.32405e-10
-3.4878e-08
-2.7279e-10
-3.78996e-08
-3.17609e-10
-4.19918e-08
-3.63514e-10
-4.50856e-08
-4.14625e-10
-4.75861e-08
-4.7626e-10
-5.42625e-08
-5.45833e-10
-6.11932e-08
-6.23601e-10
-6.74005e-08
-7.14327e-10
-7.3916e-08
-8.26955e-10
-8.38434e-08
-9.62922e-10
-9.08339e-08
-1.13074e-09
-9.85134e-08
-1.3212e-09
-1.0432e-07
-1.51352e-09
-9.86607e-08
-1.72212e-09
-9.06468e-08
-1.95009e-09
-9.48947e-08
-2.22473e-09
-1.05842e-07
-2.55062e-09
-1.16676e-07
-2.94824e-09
-1.26379e-07
-3.42293e-09
-1.41038e-07
-3.9158e-09
-1.65838e-07
-4.37635e-09
-1.60101e-07
-4.4885e-09
-1.49729e-07
-4.2027e-09
-1.37738e-07
-3.55607e-09
-1.15413e-07
-2.78223e-09
-9.55475e-08
-2.01716e-09
-7.66776e-08
-1.46228e-09
-6.18455e-08
-1.07532e-09
-5.11695e-08
-8.01878e-10
-4.34227e-08
-5.97855e-10
-3.8724e-08
-4.37551e-10
-3.77435e-08
-3.21201e-10
-3.27125e-08
-2.40025e-10
-2.61231e-08
-1.76517e-10
-2.2495e-08
-1.23379e-10
-1.96824e-08
-7.76347e-11
-1.66214e-08
-3.7235e-11
-1.43171e-08
-7.40493e-12
-1.13256e-08
3.50624e-12
-7.40251e-09
-2.62733e-09
-2.23308e-11
-6.74975e-09
5.18319e-12
-4.60516e-11
-1.07816e-08
-7.39421e-11
-1.4983e-08
-1.11786e-10
-1.86256e-08
-1.47974e-10
-2.34709e-08
-2.17816e-10
-2.76732e-08
-2.87938e-10
-3.20046e-08
-3.56925e-10
-3.48901e-08
-4.24185e-10
-3.7912e-08
-4.95855e-10
-4.19889e-08
-5.73398e-10
-4.50521e-08
-6.55213e-10
-4.75279e-08
-7.51249e-10
-5.4175e-08
-8.60075e-10
-6.11124e-08
-9.76065e-10
-6.72806e-08
-1.1091e-09
-7.37671e-08
-1.26766e-09
-8.37243e-08
-1.4495e-09
-9.06311e-08
-1.66642e-09
-9.82477e-08
-1.9071e-09
-1.03902e-07
-2.14439e-09
-9.82642e-08
-2.3835e-09
-9.02381e-08
-2.66485e-09
-9.44583e-08
-2.98472e-09
-1.05334e-07
-3.34874e-09
-1.16191e-07