/*--------------------------------*- C++ -*----------------------------------*\
| =========                 |                                                 |
| \\      /  F ield         | OpenFOAM: The Open Source CFD Toolbox           |
|  \\    /   O peration     | Version:  2212                                  |
|   \\  /    A nd           | Website:  www.openfoam.com                      |
|    \\/     M anipulation  |                                                 |
\*---------------------------------------------------------------------------*/
FoamFile
{
    version     2.0;
    format      ascii;
    arch        "LSB;label=32;scalar=64";
    class       volVectorField;
    location    "0.000153";
    object      U;
}
// * * * * * * * * * * * * * * * * * * * * * * * * * * * * * * * * * * * * * //

dimensions      [0 1 -1 0 0 0 0];

internalField   nonuniform List<vector> 
29939
(
(7.67694e-09 6.88625 642.288)
(5.93754e-09 10.326 642.333)
(4.10614e-09 14.1321 642.392)
(2.84898e-09 17.6042 642.409)
(2.02227e-09 21.1005 642.263)
(1.48194e-09 24.9566 642.035)
(1.14904e-09 29.0458 641.793)
(9.32578e-10 33.1699 641.558)
(7.86673e-10 37.2963 641.335)
(6.78358e-10 41.421 641.084)
(5.89622e-10 45.5497 640.777)
(5.24723e-10 49.5944 640.433)
(4.67471e-10 53.7066 639.99)
(4.1342e-10 58.083 639.5)
(3.67542e-10 62.5567 639.055)
(3.30303e-10 66.8186 638.603)
(2.9713e-10 71.0144 637.976)
(2.77545e-10 75.0372 637.284)
(4.01354e-10 78.7781 636.453)
(3.8855e-10 82.5688 635.757)
(2.34503e-10 86.0879 635.101)
(2.15056e-10 89.0861 634.49)
(1.99411e-10 91.8309 633.897)
(1.98165e-10 94.5427 633.302)
(1.66229e-10 97.2612 632.711)
(1.62111e-10 99.949 632.113)
(1.36614e-10 102.832 631.432)
(1.21671e-10 105.645 631.115)
(2.72489e-10 108.311 630.89)
(2.79658e-10 111.17 631.227)
(8.72794e-11 114.689 631.842)
(1.13245e-10 119.613 632.189)
(1.49138e-10 125.189 631.485)
(1.84144e-10 130.791 628.996)
(2.01704e-10 136.065 623.72)
(2.47266e-10 140.446 614.825)
(2.85498e-10 143.572 601.468)
(4.64262e-10 145.193 582.51)
(4.70011e-10 144.693 555.425)
(3.38325e-10 141.255 518.614)
(3.54638e-10 135.238 475.978)
(4.7071e-10 127.09 429.981)
(4.52006e-10 116.893 379.582)
(4.11646e-10 104.771 325.556)
(3.5285e-10 90.3236 267.529)
(2.79372e-10 71.7478 204.138)
(1.85853e-10 49.7748 133.83)
(5.06166e-11 17.6964 55.3221)
(7.67997e-09 6.86903 641.559)
(5.93029e-09 10.2668 641.595)
(4.09776e-09 14.0428 641.656)
(2.84257e-09 17.5688 641.653)
(2.01696e-09 21.1297 641.493)
(1.47803e-09 24.9815 641.26)
(1.14615e-09 29.0539 640.999)
(9.31392e-10 33.1561 640.742)
(7.87229e-10 37.2764 640.494)
(6.79175e-10 41.4139 640.234)
(5.90312e-10 45.5583 639.923)
(5.24579e-10 49.6344 639.577)
(4.66489e-10 53.749 639.138)
(4.12795e-10 58.0671 638.664)
(3.67528e-10 62.5136 638.267)
(3.30043e-10 66.8345 637.861)
(2.96349e-10 71.1028 637.278)
(2.75491e-10 75.2002 636.654)
(4.06262e-10 78.9306 635.818)
(3.8638e-10 82.6662 635.113)
(2.39481e-10 86.1736 634.441)
(2.15347e-10 89.1791 633.814)
(1.99448e-10 91.9209 633.211)
(1.99377e-10 94.6275 632.612)
(1.66623e-10 97.3618 631.993)
(1.63561e-10 100.11 631.353)
(1.3725e-10 102.941 630.653)
(1.2098e-10 105.788 630.354)
(1.13946e-10 108.517 630.017)
(1.19785e-10 111.299 630.228)
(9.00434e-11 114.708 630.654)
(1.15558e-10 119.528 630.727)
(1.46961e-10 125.048 629.761)
(1.81044e-10 130.63 626.941)
(1.96031e-10 135.945 621.335)
(2.42958e-10 140.383 612.132)
(2.72857e-10 143.582 598.437)
(3.14191e-10 145.293 579.114)
(4.727e-10 144.864 551.622)
(4.71508e-10 141.487 514.363)
(3.54015e-10 135.414 471.263)
(3.56692e-10 127.08 424.739)
(3.44807e-10 116.617 373.674)
(3.21524e-10 104.252 318.832)
(2.75817e-10 89.7292 259.81)
(2.1678e-10 71.3706 194.745)
(1.44279e-10 49.2274 123.428)
(5.16163e-11 17.4815 46.9385)
(7.67645e-09 6.86153 641.767)
(5.91653e-09 10.2179 641.786)
(4.08476e-09 13.9702 641.847)
(2.81937e-09 17.5428 641.831)
(1.99808e-09 21.1594 641.659)
(1.47381e-09 25.0126 641.411)
(1.14226e-09 29.0705 641.132)
(9.28302e-10 33.1586 640.853)
(7.83021e-10 37.2716 640.58)
(6.76233e-10 41.4159 640.306)
(5.88494e-10 45.5767 639.996)
(5.23108e-10 49.6762 639.653)
(4.64738e-10 53.7869 639.235)
(4.11542e-10 58.0538 638.779)
(3.66647e-10 62.4789 638.392)
(3.29201e-10 66.8505 638)
(2.95553e-10 71.1605 637.442)
(2.7239e-10 75.3465 636.93)
(2.12031e-10 79.1151 636.143)
(3.89281e-10 82.7815 635.442)
(4.1888e-10 86.2857 634.777)
(2.17022e-10 89.2961 634.153)
(1.9906e-10 92.0323 633.565)
(2.00543e-10 94.7381 632.963)
(1.67213e-10 97.4996 632.327)
(1.65311e-10 100.304 631.661)
(1.39354e-10 103.052 630.979)
(2.95487e-10 105.94 630.734)
(2.72467e-10 108.752 630.402)
(1.21134e-10 111.453 630.638)
(8.73102e-11 114.781 631.168)
(1.19508e-10 119.52 631.386)
(1.43471e-10 124.967 630.716)
(1.73657e-10 130.508 628.41)
(1.95498e-10 135.864 623.327)
(2.44598e-10 140.37 614.693)
(2.66924e-10 143.64 601.6)
(2.91574e-10 145.454 582.851)
(4.70553e-10 145.119 555.897)
(6.34129e-10 141.807 519.135)
(4.93335e-10 135.682 476.329)
(3.39756e-10 127.103 429.757)
(3.22437e-10 116.12 378.157)
(2.9279e-10 102.924 321.709)
(2.4491e-10 87.6371 260.331)
(1.96216e-10 69.2729 193.568)
(1.27659e-10 46.9162 120.958)
(4.65616e-11 16.9941 43.8657)
(7.68037e-09 6.85531 641.693)
(5.89972e-09 10.1321 641.687)
(4.0707e-09 13.8396 641.734)
(2.83301e-09 17.4897 641.692)
(2.04334e-09 21.2039 641.518)
(1.5193e-09 25.0635 641.265)
(1.16292e-09 29.0936 640.957)
(9.24458e-10 33.1526 640.639)
(7.70538e-10 37.239 640.31)
(6.66292e-10 41.3723 639.997)
(5.81727e-10 45.541 639.683)
(5.19657e-10 49.653 639.36)
(4.62633e-10 53.7476 639.001)
(4.10342e-10 57.925 638.59)
(3.65216e-10 62.2974 638.224)
(3.27806e-10 66.7677 637.891)
(2.94853e-10 71.1414 637.408)
(2.7425e-10 75.3893 636.933)
(2.82489e-10 79.2514 636.178)
(1.17517e-10 82.8537 635.494)
(1.2101e-10 86.3525 634.831)
(2.19486e-10 89.3601 634.211)
(1.98499e-10 92.0906 633.626)
(2.01638e-10 94.817 633.015)
(1.67687e-10 97.6171 632.35)
(1.6596e-10 100.448 631.651)
(1.32269e-10 103.092 631.028)
(4.36276e-11 106.011 630.779)
(2.18757e-10 108.935 630.387)
(3.23284e-10 111.55 630.662)
(8.29789e-11 114.807 631.232)
(1.20443e-10 119.467 631.573)
(1.37155e-10 124.858 631.021)
(1.63324e-10 130.399 628.817)
(4.33975e-10 135.825 623.931)
(4.63594e-10 140.404 615.517)
(2.71521e-10 143.736 602.665)
(2.85668e-10 145.606 584.17)
(2.49716e-10 145.348 557.47)
(2.07308e-10 142.036 520.949)
(2.81909e-10 135.903 478.333)
(3.39139e-10 127.273 431.881)
(4.52149e-10 116.189 380.359)
(4.00437e-10 102.847 324.368)
(2.63734e-10 87.0774 262.985)
(2.55075e-10 67.8519 194.926)
(1.63288e-10 44.9831 121.08)
(4.64127e-11 16.1523 42.8583)
(7.68931e-09 6.85546 641.47)
(5.90584e-09 10.1196 641.476)
(4.0757e-09 13.8186 641.492)
(2.79172e-09 17.4772 641.447)
(1.9808e-09 21.1896 641.302)
(1.45559e-09 25.0597 641.065)
(1.14574e-09 29.1007 640.765)
(9.48489e-10 33.1662 640.449)
(7.63457e-10 37.2482 640.11)
(6.57785e-10 41.3515 639.778)
(5.73034e-10 45.4791 639.463)
(5.15851e-10 49.5419 639.161)
(4.63206e-10 53.6245 638.837)
(4.10975e-10 57.8064 638.448)
(3.64663e-10 62.1068 638.049)
(3.2724e-10 66.5578 637.71)
(2.9419e-10 70.9815 637.273)
(2.71473e-10 75.3536 636.891)
(2.43427e-10 79.2659 636.287)
(3.2634e-10 82.8493 635.549)
(3.16072e-10 86.3371 634.882)
(2.18271e-10 89.3404 634.267)
(1.97703e-10 92.0766 633.674)
(2.00601e-10 94.824 633.052)
(1.63511e-10 97.6408 632.367)
(1.61823e-10 100.487 631.694)
(1.41764e-10 103.054 631.082)
(1.41325e-10 106.009 630.801)
(2.60003e-10 108.997 630.397)
(1.6443e-10 111.564 630.641)
(8.13453e-11 114.776 631.236)
(1.06033e-10 119.334 631.631)
(1.27944e-10 124.696 631.206)
(1.25129e-10 130.167 629.221)
(1.02747e-11 135.611 624.627)
(6.89209e-11 140.26 616.568)
(2.6363e-10 143.691 604.097)
(5.22912e-10 145.69 585.999)
(5.6734e-10 145.55 559.675)
(3.91409e-10 142.383 523.538)
(3.63482e-10 136.357 481.209)
(3.34793e-10 127.781 434.933)
(2.90247e-10 116.631 383.374)
(2.79777e-10 103.009 326.899)
(3.3157e-10 86.7791 265.177)
(2.54429e-10 67.1393 196.803)
(1.3201e-10 43.9561 121.965)
(4.38432e-11 15.6267 42.4041)
(7.68808e-09 6.8482 641.31)
(5.90092e-09 10.0587 641.316)
(4.07237e-09 13.7375 641.316)
(2.84965e-09 17.4203 641.256)
(2.02657e-09 21.1836 641.128)
(1.48191e-09 25.0691 640.869)
(1.13536e-09 29.0956 640.562)
(9.00722e-10 33.1442 640.224)
(7.69119e-10 37.2148 639.857)
(6.62483e-10 41.3038 639.508)
(5.74185e-10 45.4112 639.186)
(5.15224e-10 49.47 638.895)
(4.62395e-10 53.5458 638.593)
(4.09883e-10 57.7145 638.247)
(3.64304e-10 62.0039 637.869)
(3.26778e-10 66.4296 637.552)
(2.93929e-10 70.8128 637.123)
(2.71593e-10 75.2498 636.742)
(2.5736e-10 79.2715 636.31)
(1.81776e-10 82.9127 635.59)
(1.67898e-10 86.3627 634.915)
(2.22042e-10 89.3618 634.301)
(1.96785e-10 92.109 633.708)
(2.00081e-10 94.8829 633.066)
(1.58136e-10 97.699 632.374)
(1.57624e-10 100.576 631.732)
(1.29848e-10 103.031 631.129)
(9.20939e-11 106.034 630.788)
(-8.21705e-12 109.114 630.359)
(4.48895e-11 111.603 630.607)
(3.57621e-10 114.735 631.181)
(3.20871e-10 119.256 631.665)
(1.22216e-10 124.586 631.354)
(1.63058e-10 130.047 629.507)
(3.02382e-10 135.525 625.078)
(3.1003e-10 140.245 617.196)
(2.4617e-10 143.741 604.922)
(1.56314e-10 145.802 587.034)
(1.88146e-10 145.749 560.921)
(3.09715e-10 142.62 524.971)
(5.18231e-10 136.637 482.79)
(6.4113e-10 128.096 436.643)
(4.62865e-10 116.953 385.293)
(2.98484e-10 103.279 329.218)
(2.39661e-10 86.8299 267.449)
(1.89723e-10 66.8639 198.217)
(1.17835e-10 43.484 122.534)
(3.8654e-11 15.3885 42.2376)
(7.68572e-09 6.8248 641.064)
(5.89979e-09 10.0173 641.059)
(4.0716e-09 13.6972 641.031)
(2.77303e-09 17.3715 640.972)
(1.96735e-09 21.1521 640.869)
(1.49484e-09 25.0643 640.609)
(1.17452e-09 29.1002 640.308)
(9.41296e-10 33.1721 639.957)
(7.77558e-10 37.2338 639.572)
(6.72705e-10 41.2776 639.206)
(5.85707e-10 45.3262 638.879)
(5.23587e-10 49.3239 638.603)
(4.63449e-10 53.3649 638.325)
(4.09921e-10 57.53 638.012)
(3.6469e-10 61.7962 637.659)
(3.27097e-10 66.2491 637.369)
(2.94119e-10 70.6651 636.993)
(2.69558e-10 75.0617 636.574)
(2.5467e-10 79.2261 636.287)
(2.80464e-10 82.9506 635.619)
(2.50416e-10 86.3755 634.933)
(2.20811e-10 89.3697 634.318)
(1.96343e-10 92.132 633.726)
(1.9996e-10 94.9218 633.07)
(1.55454e-10 97.729 632.395)
(1.59883e-10 100.616 631.775)
(1.38195e-10 103.043 631.173)
(1.2566e-10 106.053 630.711)
(2.26075e-10 109.188 630.368)
(1.28039e-10 111.632 630.57)
(-1.10584e-10 114.703 631.158)
(-1.40612e-10 119.147 631.666)
(1.15342e-10 124.47 631.471)
(1.38898e-10 129.886 629.796)
(1.186e-10 135.354 625.6)
(1.68602e-10 140.125 617.984)
(2.62277e-10 143.712 606.005)
(3.40407e-10 145.887 588.421)
(3.55378e-10 145.938 562.615)
(3.30626e-10 142.93 526.978)
(2.85614e-10 137.041 485.009)
(2.56035e-10 128.579 438.99)
(2.85299e-10 117.447 387.673)
(2.91219e-10 103.684 331.31)
(2.54438e-10 87.1368 269.223)
(2.50534e-10 67.0183 199.652)
(1.55498e-10 43.4055 123.303)
(3.53963e-11 15.3103 42.2591)
(7.67304e-09 6.82059 640.758)
(5.88937e-09 10.0078 640.781)
(4.06521e-09 13.6796 640.758)
(2.86659e-09 17.3619 640.701)
(2.04392e-09 21.1699 640.604)
(1.44934e-09 25.1152 640.364)
(1.10663e-09 29.1675 640.068)
(9.02161e-10 33.2526 639.699)
(1.05209e-09 37.3113 639.3)
(9.45928e-10 41.3303 638.925)
(8.69419e-10 45.3327 638.599)
(7.96245e-10 49.2869 638.335)
(4.64799e-10 53.3071 638.07)
(4.14451e-10 57.4603 637.777)
(3.68399e-10 61.7055 637.448)
(3.31588e-10 66.1284 637.149)
(2.97522e-10 70.5638 636.816)
(2.70076e-10 74.9369 636.412)
(2.56186e-10 79.1667 636.148)
(4.95911e-10 83.0312 635.566)
(4.89961e-10 86.4738 634.894)
(2.24396e-10 89.4605 634.291)
(1.95063e-10 92.2307 633.686)
(2.02806e-10 95.0286 633.041)
(4.36462e-10 97.8196 632.399)
(4.22633e-10 100.726 631.777)
(1.35807e-10 103.148 631.191)
(1.09993e-10 106.118 630.592)
(2.315e-11 109.279 630.359)
(6.58992e-11 111.728 630.531)
(2.79497e-10 114.732 631.05)
(4.10826e-10 119.109 631.534)
(3.63026e-10 124.378 631.484)
(1.78907e-10 129.868 629.89)
(2.24416e-10 135.363 625.775)
(2.38827e-10 140.184 618.247)
(2.46956e-10 143.806 606.362)
(2.50354e-10 145.995 588.887)
(2.92556e-10 146.087 563.192)
(5.16134e-10 143.102 527.627)
(5.19729e-10 137.246 485.716)
(3.62351e-10 128.811 439.745)
(4.56646e-10 117.722 388.484)
(4.98955e-10 104.023 332.322)
(3.44427e-10 87.483 270.391)
(2.6758e-10 67.283 200.789)
(2.06681e-10 43.5041 124.096)
(6.03368e-11 15.3426 42.4553)
(7.65073e-09 6.7827 640.403)
(5.86665e-09 9.97816 640.424)
(4.04167e-09 13.6555 640.4)
(2.73125e-09 17.3241 640.362)
(1.93857e-09 21.1745 640.285)
(1.49031e-09 25.1617 640.061)
(1.16812e-09 29.2455 639.765)
(9.27999e-10 33.3647 639.385)
(5.15597e-10 37.4172 638.984)
(4.07038e-10 41.3948 638.618)
(3.33664e-10 45.339 638.31)
(2.72152e-10 49.2489 638.072)
(4.58594e-10 53.2422 637.822)
(6.84698e-10 57.388 637.534)
(6.40396e-10 61.6114 637.232)
(6.05922e-10 66.037 636.951)
(5.70438e-10 70.5197 636.636)
(2.69522e-10 74.878 636.235)
(2.46696e-10 79.1638 635.933)
(7.28106e-12 83.135 635.432)
(-2.24658e-12 86.5997 634.799)
(2.17819e-10 89.579 634.209)
(1.93633e-10 92.357 633.631)
(1.90729e-10 95.1591 633.017)
(-8.1925e-11 97.9438 632.381)
(-7.45924e-11 100.867 631.709)
(1.39337e-10 103.325 631.162)
(1.444e-10 106.215 630.48)
(1.9978e-10 109.37 630.311)
(1.06314e-10 111.888 630.441)
(-5.46285e-11 114.885 630.963)
(8.29007e-12 119.147 631.499)
(2.75209e-10 124.402 631.443)
(3.16929e-10 129.903 629.889)
(1.62248e-10 135.406 625.858)
(4.37704e-10 140.203 618.446)
(4.79508e-10 143.85 606.684)
(2.96704e-10 146.087 589.323)
(3.03684e-10 146.22 563.701)
(2.5111e-10 143.274 528.201)
(2.76256e-10 137.429 486.31)
(3.12638e-10 128.987 440.33)
(2.85128e-10 117.887 389.039)
(2.74435e-10 104.176 332.806)
(3.30754e-10 87.6403 270.874)
(2.6059e-10 67.4504 201.373)
(1.46896e-10 43.6157 124.636)
(4.69369e-11 15.3877 42.642)
(7.61716e-09 6.73549 640.037)
(5.84174e-09 9.94985 640.066)
(4.03129e-09 13.6255 640.069)
(2.8201e-09 17.3038 640.043)
(2.03405e-09 21.1836 639.97)
(1.49227e-09 25.2143 639.783)
(1.13295e-09 29.3367 639.49)
(9.10564e-10 33.4828 639.11)
(9.57272e-10 37.5256 638.725)
(8.33241e-10 41.4582 638.394)
(7.28116e-10 45.3506 638.14)
(6.77204e-10 49.2285 637.913)
(4.62311e-10 53.2081 637.655)
(1.85828e-10 57.335 637.358)
(1.33105e-10 61.5441 637.054)
(9.04643e-11 65.9605 636.756)
(6.19826e-11 70.4659 636.443)
(2.63308e-10 74.8359 636.051)
(2.62293e-10 79.1323 635.731)
(4.41256e-10 83.198 635.249)
(4.09575e-10 86.7207 634.683)
(2.27029e-10 89.7065 634.133)
(1.92414e-10 92.4904 633.57)
(2.11822e-10 95.3095 632.953)
(6.23928e-10 98.1161 632.307)
(6.11436e-10 101.021 631.65)
(1.38942e-10 103.508 631.174)
(9.21343e-11 106.347 630.351)
(5.19723e-11 109.469 630.237)
(8.41309e-11 112.036 630.364)
(2.28256e-10 114.99 630.88)
(4.19883e-10 119.218 631.471)
(2.69261e-10 124.448 631.403)
(1.00156e-10 129.976 629.939)
(1.81781e-10 135.486 625.96)
(7.21849e-11 140.308 618.566)
(1.15088e-10 143.963 606.822)
(2.60129e-10 146.193 589.478)
(3.01661e-10 146.331 563.883)
(3.51857e-10 143.389 528.377)
(5.16481e-10 137.538 486.475)
(4.76217e-10 129.085 440.479)
(3.18533e-10 117.967 389.176)
(2.8276e-10 104.247 332.969)
(2.46277e-10 87.7088 271.077)
(2.02932e-10 67.5353 201.637)
(1.64421e-10 43.7047 124.951)
(6.17697e-11 15.4139 42.7572)
(7.58655e-09 6.69036 639.702)
(5.81905e-09 9.91673 639.736)
(4.03813e-09 13.5955 639.765)
(2.76109e-09 17.2696 639.748)
(1.92409e-09 21.1678 639.707)
(1.45959e-09 25.2266 639.546)
(1.15556e-09 29.3896 639.254)
(9.16028e-10 33.5518 638.885)
(6.47599e-10 37.5665 638.566)
(5.83181e-10 41.4619 638.32)
(4.88856e-10 45.3375 638.096)
(3.93447e-10 49.2021 637.864)
(4.58161e-10 53.1693 637.59)
(5.75763e-10 57.2826 637.287)
(5.50306e-10 61.4653 636.961)
(5.19551e-10 65.8566 636.623)
(4.79576e-10 70.3799 636.28)
(2.73136e-10 74.7468 635.903)
(5.13802e-10 79.0917 635.572)
(3.4579e-10 83.2192 635.066)
(7.168e-11 86.7591 634.543)
(2.14273e-10 89.7683 634.023)
(1.93013e-10 92.5763 633.489)
(1.86509e-10 95.4074 632.898)
(-2.30168e-10 98.212 632.27)
(-2.21312e-10 101.083 631.604)
(1.38667e-10 103.689 631.149)
(1.39252e-10 106.47 630.269)
(1.66297e-10 109.5 630.198)
(8.67677e-11 112.154 630.281)
(-2.44601e-11 115.071 630.801)
(-1.58662e-10 119.231 631.409)
(2.67485e-10 124.45 631.349)
(4.36654e-10 130.004 629.921)
(1.87304e-10 135.552 626.038)
(2.94376e-10 140.337 618.769)
(3.12649e-10 144.006 607.163)
(2.81968e-10 146.28 589.956)
(2.97188e-10 146.459 564.459)
(3.01339e-10 143.567 529.05)
(2.70207e-10 137.733 487.176)
(2.85794e-10 129.282 441.167)
(3.04036e-10 118.157 389.821)
(2.82231e-10 104.416 333.539)
(2.43455e-10 87.8393 271.542)
(1.88731e-10 67.6424 202.006)
(1.29148e-10 43.8107 125.287)
(4.88998e-11 15.4544 42.9331)
(7.55829e-09 6.66001 639.55)
(5.82119e-09 9.88229 639.553)
(4.01057e-09 13.5526 639.504)
(2.76581e-09 17.2326 639.456)
(2.00441e-09 21.1472 639.471)
(1.45439e-09 25.2279 639.324)
(1.13231e-09 29.4121 639.047)
(9.32619e-10 33.5695 638.76)
(8.07926e-10 37.5681 638.523)
(6.90893e-10 41.4551 638.311)
(6.46599e-10 45.3158 638.089)
(6.15189e-10 49.1721 637.848)
(4.56332e-10 53.1294 637.566)
(2.5118e-10 57.2327 637.262)
(4.70637e-10 61.4062 636.924)
(4.33543e-10 65.7858 636.556)
(4.09766e-10 70.2947 636.176)
(5.34861e-10 74.6549 635.785)
(1.40445e-11 79.0232 635.41)
(1.52739e-10 83.2058 634.912)
(3.54656e-10 86.7782 634.41)
(2.32045e-10 89.7988 633.929)
(4.76581e-10 92.6204 633.439)
(7.87594e-10 95.4858 632.869)
(8.0175e-10 98.3366 632.244)
(5.0824e-10 101.166 631.546)
(1.33438e-10 103.845 631.09)
(3.43597e-10 106.602 630.261)
(3.19529e-10 109.544 630.134)
(9.58118e-11 112.253 630.215)
(1.99606e-10 115.121 630.736)
(1.50185e-10 119.232 631.253)
(1.24594e-10 124.428 631.288)
(-8.66542e-11 129.966 629.928)
(1.63923e-10 135.53 626.181)
(1.48958e-10 140.372 618.999)
(1.95892e-10 144.071 607.465)
(2.63663e-10 146.368 590.331)
(2.99028e-10 146.582 564.934)
(3.2491e-10 143.721 529.561)
(3.43964e-10 137.903 487.708)
(3.28173e-10 129.453 441.697)
(3.16922e-10 118.317 390.331)
(3.92581e-10 104.558 334.022)
(3.27724e-10 87.964 272.005)
(1.8903e-10 67.7406 202.39)
(1.16076e-10 43.8953 125.575)
(3.94465e-11 15.4846 43.0917)
(7.5406e-09 6.64731 639.509)
(5.78635e-09 9.87487 639.502)
(3.99764e-09 13.544 639.413)
(2.75726e-09 17.2062 639.339)
(1.93337e-09 21.1052 639.278)
(1.45383e-09 25.2032 639.165)
(1.12296e-09 29.4016 638.962)
(8.94798e-10 33.5633 638.731)
(7.1452e-10 37.5494 638.523)
(6.07095e-10 41.4174 638.328)
(4.95545e-10 45.2724 638.109)
(4.07753e-10 49.1309 637.851)
(4.58176e-10 53.0787 637.563)
(5.37713e-10 57.1665 637.257)
(2.58758e-10 61.3374 636.912)
(2.22135e-10 65.699 636.536)
(1.80972e-10 70.2017 636.125)
(3.66467e-11 74.5544 635.712)
(4.45756e-10 78.9487 635.289)
(3.13671e-10 83.1602 634.771)
(1.23154e-10 86.7401 634.295)
(2.09367e-10 89.7765 633.833)
(-7.43374e-11 92.6342 633.351)
(-3.2561e-10 95.5287 632.802)
(-4.15336e-10 98.4156 632.208)
(-1.43678e-10 101.215 631.517)
(1.28056e-10 103.968 631.033)
(1.84919e-10 106.721 630.296)
(4.52921e-10 109.562 630.066)
(3.46476e-10 112.334 630.146)
(2.15524e-12 115.204 630.622)
(2.50011e-10 119.218 631.175)
(2.71546e-10 124.354 631.223)
(2.80772e-10 129.908 629.946)
(1.91694e-10 135.535 626.288)
(2.43171e-10 140.379 619.281)
(2.62915e-10 144.103 607.925)
(2.79163e-10 146.452 590.974)
(5.1928e-10 146.721 565.731)
(5.11898e-10 143.932 530.5)
(3.35696e-10 138.158 488.703)
(4.86522e-10 129.721 442.682)
(5.73833e-10 118.575 391.268)
(3.83331e-10 104.793 334.874)
(2.44563e-10 88.1604 272.744)
(1.84297e-10 67.8911 202.994)
(1.09775e-10 44.0029 125.964)
(3.04276e-11 15.52 43.2307)
(7.52685e-09 6.63546 639.506)
(5.78961e-09 9.87982 639.498)
(3.99873e-09 13.5458 639.399)
(2.75827e-09 17.1922 639.308)
(1.97994e-09 21.067 639.185)
(1.4536e-09 25.1654 639.099)
(1.13002e-09 29.3824 638.943)
(1.14145e-09 33.5337 638.74)
(1.0741e-09 37.4951 638.562)
(7.05936e-10 41.3628 638.387)
(6.44353e-10 45.232 638.165)
(5.90755e-10 49.092 637.88)
(4.49847e-10 53.0242 637.588)
(2.83286e-10 57.1092 637.276)
(4.43713e-10 61.276 636.923)
(4.18425e-10 65.6269 636.532)
(3.98428e-10 70.1197 636.107)
(7.39987e-10 74.4737 635.694)
(3.29981e-10 78.8891 635.225)
(1.91523e-10 83.1231 634.721)
(2.91074e-10 86.7164 634.253)
(2.57389e-10 89.7686 633.792)
(4.44965e-10 92.6341 633.306)
(7.04449e-10 95.5546 632.77)
(6.58382e-10 98.514 632.154)
(4.42262e-10 101.302 631.462)
(1.24294e-10 104.067 630.934)
(2.74029e-11 106.829 630.312)
(-2.30934e-10 109.634 630.005)
(-1.57337e-10 112.424 630.062)
(1.80174e-10 115.269 630.516)
(6.26796e-11 119.218 631.129)
(1.02192e-10 124.292 631.167)
(6.11067e-11 129.809 629.931)
(1.66011e-10 135.473 626.38)
(1.75958e-10 140.387 619.532)
(2.16923e-10 144.155 608.28)
(2.49577e-10 146.531 591.434)
(1.9129e-10 146.849 566.317)
(4.29433e-10 144.111 531.159)
(4.96229e-10 138.37 489.41)
(4.32238e-10 129.942 443.401)
(3.79054e-10 118.779 391.956)
(2.68852e-10 104.97 335.522)
(2.39089e-10 88.3127 273.365)
(1.86293e-10 68.0248 203.588)
(1.493e-10 44.118 126.422)
(5.14738e-11 15.5781 43.4254)
(7.50555e-09 6.62697 639.51)
(5.76487e-09 9.9027 639.505)
(4.00919e-09 13.5686 639.417)
(2.77063e-09 17.2002 639.308)
(1.94246e-09 21.0484 639.158)
(1.44353e-09 25.1375 639.081)
(1.11885e-09 29.3691 638.959)
(8.04616e-10 33.5103 638.796)
(5.93606e-10 37.4669 638.651)
(6.17839e-10 41.3531 638.486)
(5.16897e-10 45.2499 638.251)
(4.31716e-10 49.1131 637.951)
(4.53569e-10 53.0276 637.652)
(4.91803e-10 57.104 637.337)
(2.80712e-10 61.2709 636.978)
(2.32716e-10 65.6156 636.551)
(4.79201e-10 70.0939 636.12)
(1.5e-10 74.4598 635.699)
(1.93765e-10 78.8877 635.204)
(2.65254e-10 83.1223 634.708)
(2.06578e-10 86.7124 634.243)
(2.20847e-10 89.787 633.767)
(-4.7565e-11 92.6964 633.256)
(-2.33152e-10 95.6426 632.682)
(-2.99923e-10 98.6357 632.065)
(-9.79397e-11 101.419 631.452)
(4.16193e-10 104.197 630.885)
(4.5949e-10 106.96 630.282)
(4.18447e-10 109.745 629.969)
(2.97352e-10 112.566 629.967)
(2.13793e-11 115.396 630.427)
(1.34765e-10 119.279 630.985)
(1.16042e-10 124.292 631.124)
(1.69884e-10 129.818 629.894)
(1.8077e-10 135.5 626.397)
(2.18082e-10 140.442 619.646)
(2.5297e-10 144.224 608.536)
(5.15869e-10 146.624 591.832)
(5.58196e-10 146.977 566.818)
(2.60588e-10 144.281 531.748)
(2.52497e-10 138.567 490.023)
(2.77845e-10 130.143 443.991)
(2.80253e-10 118.957 392.487)
(2.76263e-10 105.097 335.961)
(2.36775e-10 88.3798 273.701)
(1.81729e-10 68.0605 203.873)
(1.1724e-10 44.1597 126.67)
(3.61294e-11 15.6014 43.5538)
(7.48433e-09 6.61271 639.515)
(5.75713e-09 9.91329 639.515)
(3.96353e-09 13.6057 639.471)
(2.73306e-09 17.2258 639.329)
(1.95987e-09 21.0191 639.165)
(1.44781e-09 25.0868 639.095)
(1.12113e-09 29.3329 639.011)
(9.51973e-10 33.4646 638.906)
(8.32607e-10 37.4138 638.791)
(6.65885e-10 41.3223 638.628)
(5.90775e-10 45.2506 638.38)
(5.43368e-10 49.1162 638.081)
(4.42445e-10 53.0072 637.771)
(3.15715e-10 57.0732 637.441)
(4.2083e-10 61.2572 637.061)
(3.89614e-10 65.5964 636.595)
(1.39461e-10 70.0446 636.154)
(3.59271e-10 74.4259 635.73)
(3.11927e-10 78.8687 635.199)
(2.03848e-10 83.107 634.702)
(2.45858e-10 86.7178 634.243)
(2.69032e-10 89.8219 633.759)
(3.94183e-10 92.7447 633.223)
(6.00237e-10 95.7132 632.658)
(8.81273e-10 98.7129 632.043)
(6.40818e-10 101.518 631.483)
(1.59986e-10 104.338 630.853)
(6.48187e-11 107.084 630.249)
(-1.60495e-10 109.866 629.897)
(-1.06929e-10 112.692 629.867)
(1.5346e-10 115.501 630.316)
(1.764e-11 119.342 630.866)
(1.13094e-10 124.304 631.092)
(1.53011e-10 129.818 629.889)
(1.75232e-10 135.497 626.468)
(1.9269e-10 140.442 619.795)
(4.63482e-10 144.271 608.773)
(3.54964e-10 146.699 592.163)
(1.58872e-10 147.092 567.249)
(3.20261e-10 144.442 532.232)
(3.394e-10 138.755 490.53)
(3.36212e-10 130.338 444.5)
(4.44072e-10 119.134 392.965)
(3.92337e-10 105.232 336.381)
(2.42748e-10 88.4518 274.044)
(1.86333e-10 68.0795 204.122)
(1.52459e-10 44.173 126.863)
(5.31537e-11 15.6003 43.65)
(7.47759e-09 6.5788 639.505)
(5.74643e-09 9.90481 639.52)
(3.97e-09 13.6146 639.496)
(2.73891e-09 17.2502 639.369)
(1.93415e-09 20.988 639.204)
(1.43324e-09 25.0128 639.15)
(1.11024e-09 29.2323 639.114)
(8.69899e-10 33.3459 639.073)
(7.12247e-10 37.3042 638.983)
(6.34289e-10 41.2527 638.822)
(5.48726e-10 45.2159 638.581)
(4.66605e-10 49.0921 638.29)
(4.5469e-10 52.9799 637.968)
(4.61283e-10 57.0426 637.605)
(2.96649e-10 61.2404 637.173)
(2.51135e-10 65.5608 636.671)
(4.0375e-10 69.9741 636.211)
(1.41879e-10 74.3847 635.756)
(1.75686e-10 78.8332 635.203)
(2.7286e-10 83.0517 634.709)
(1.79542e-10 86.6808 634.248)
(2.10595e-10 89.8408 633.77)
(3.00488e-10 92.7731 633.209)
(8.21903e-11 95.7587 632.62)
(-3.04526e-10 98.7616 632.035)
(-3.07958e-10 101.597 631.491)
(1.12356e-10 104.451 630.823)
(1.47236e-10 107.201 630.262)
(3.67846e-10 109.975 629.825)
(2.54472e-10 112.814 629.763)
(4.64519e-11 115.601 630.163)
(1.55786e-10 119.321 630.749)
(1.14088e-10 124.268 631.031)
(3.22004e-10 129.823 629.89)
(4.40288e-10 135.473 626.584)
(1.92004e-10 140.429 620.032)
(8.78613e-11 144.283 609.181)
(4.50869e-10 146.763 592.756)
(5.85362e-10 147.22 568.01)
(3.03667e-10 144.646 533.133)
(3.00524e-10 139.012 491.492)
(3.09383e-10 130.624 445.464)
(4.01704e-10 119.421 393.872)
(3.71494e-10 105.479 337.165)
(2.40089e-10 88.615 274.653)
(1.80709e-10 68.1424 204.524)
(1.16143e-10 44.1819 127.097)
(3.42603e-11 15.5905 43.7502)
(7.51589e-09 6.52614 639.483)
(5.739e-09 9.86865 639.523)
(3.96179e-09 13.6106 639.517)
(2.72877e-09 17.2512 639.424)
(1.94863e-09 20.9321 639.303)
(1.46872e-09 24.8846 639.282)
(1.1471e-09 29.064 639.286)
(9.24547e-10 33.1749 639.278)
(7.76088e-10 37.1676 639.193)
(6.48748e-10 41.1572 639.03)
(5.71684e-10 45.1531 638.791)
(8.11784e-10 49.0435 638.506)
(7.22531e-10 52.9366 638.179)
(3.36746e-10 57.0136 637.788)
(4.06618e-10 61.2318 637.312)
(3.62938e-10 65.518 636.784)
(1.77523e-10 69.8925 636.307)
(3.63028e-10 74.3163 635.817)
(2.98427e-10 78.7701 635.227)
(1.93201e-10 82.9707 634.73)
(2.63565e-10 86.6167 634.279)
(3.83329e-10 89.8321 633.761)
(6.87113e-10 92.8179 633.184)
(5.65666e-10 95.7758 632.598)
(5.26634e-10 98.7577 632.018)
(5.54382e-10 101.65 631.458)
(1.49882e-10 104.544 630.792)
(5.75737e-11 107.31 630.268)
(-1.3238e-10 110.123 629.754)
(-7.19034e-11 112.921 629.643)
(1.34043e-10 115.667 630.062)
(1.56888e-11 119.281 630.653)
(1.01495e-10 124.16 630.909)
(3.08163e-11 129.753 629.877)
(-1.98416e-11 135.381 626.727)
(1.93836e-10 140.376 620.364)
(3.01188e-10 144.276 609.67)
(1.35392e-10 146.808 593.393)
(1.17587e-10 147.345 568.822)
(2.92009e-10 144.86 534.083)
(3.1069e-10 139.286 492.525)
(3.20028e-10 130.933 446.516)
(4.24376e-10 119.743 394.893)
(4.97066e-10 105.783 338.107)
(3.36212e-10 88.8573 275.467)
(1.85672e-10 68.2775 205.139)
(1.12335e-10 44.2194 127.464)
(4.79259e-11 15.5897 43.8786)
(7.46088e-09 6.46222 639.468)
(5.75991e-09 9.82153 639.53)
(3.98414e-09 13.5887 639.551)
(2.72542e-09 17.2224 639.522)
(1.92818e-09 20.8493 639.487)
(1.40201e-09 24.7487 639.492)
(1.07549e-09 28.9074 639.502)
(8.61318e-10 33.0291 639.483)
(7.15178e-10 37.0602 639.381)
(6.31674e-10 41.0927 639.2)
(5.34678e-10 45.1158 638.951)
(1.99935e-10 49.0226 638.675)
(1.86786e-10 52.9335 638.346)
(4.38467e-10 57.0301 637.941)
(3.00559e-10 61.2584 637.45)
(2.67877e-10 65.5169 636.907)
(3.8154e-10 69.8645 636.414)
(1.49178e-10 74.3031 635.887)
(1.84759e-10 78.747 635.273)
(2.78565e-10 82.8963 634.777)
(4.33743e-10 86.6051 634.281)
(3.37577e-10 89.8565 633.709)
(1.06083e-11 92.8506 633.144)
(1.52733e-10 95.8295 632.561)
(-2.40552e-10 98.8229 631.976)
(-2.03523e-10 101.726 631.384)
(1.26968e-10 104.623 630.754)
(4.37969e-10 107.443 630.236)
(6.00742e-10 110.298 629.661)
(2.12908e-10 113.051 629.579)
(5.50295e-11 115.758 629.959)
(1.28145e-10 119.294 630.558)
(1.15025e-10 124.121 630.797)
(2.36702e-10 129.72 629.827)
(2.85247e-10 135.348 626.81)
(1.86502e-10 140.357 620.612)
(1.80812e-10 144.291 610.117)
(3.25846e-10 146.868 594.035)
(3.64935e-10 147.468 569.652)
(3.05502e-10 145.065 535.066)
(3.03938e-10 139.56 493.586)
(3.02495e-10 131.248 447.587)
(2.48218e-10 120.071 395.902)
(2.18635e-10 106.09 338.993)
(2.14141e-10 89.0995 276.187)
(1.81717e-10 68.4109 205.668)
(1.56884e-10 44.2424 127.781)
(6.31528e-11 15.5826 43.9968)
(7.51553e-09 6.38725 639.472)
(5.70017e-09 9.75411 639.547)
(3.92053e-09 13.526 639.61)
(2.71262e-09 17.1304 639.666)
(1.93274e-09 20.7252 639.717)
(1.44817e-09 24.6061 639.731)
(1.15939e-09 28.7585 639.718)
(9.53935e-10 32.8958 639.66)
(7.74407e-10 36.9617 639.53)
(6.4285e-10 41.0299 639.333)
(5.77723e-10 45.0745 639.083)
(7.37608e-10 48.9946 638.803)
(6.48207e-10 52.9201 638.481)
(3.51663e-10 57.0366 638.07)
(3.87733e-10 61.2822 637.576)
(3.3809e-10 65.5185 637.029)
(1.86939e-10 69.836 636.491)
(3.20949e-10 74.3024 635.917)
(2.80107e-10 78.722 635.326)
(1.95618e-10 82.8632 634.812)
(1.25403e-10 86.6253 634.265)
(1.24963e-10 89.9086 633.661)
(3.04503e-10 92.9086 633.08)
(2.36164e-10 95.8665 632.494)
(5.41017e-10 98.8716 631.899)
(4.523e-10 101.81 631.276)
(1.317e-10 104.702 630.684)
(-1.92239e-10 107.598 630.112)
(-3.21151e-10 110.462 629.536)
(-2.9898e-11 113.181 629.463)
(1.27862e-10 115.876 629.827)
(4.27763e-11 119.352 630.419)
(1.00662e-10 124.121 630.724)
(3.98551e-11 129.683 629.789)
(7.86106e-11 135.261 626.904)
(1.86667e-10 140.291 620.886)
(2.40769e-10 144.293 610.522)
(2.07076e-10 146.922 594.567)
(2.27854e-10 147.584 570.33)
(2.99257e-10 145.255 535.856)
(5.05338e-10 139.806 494.442)
(4.89572e-10 131.533 448.464)
(3.13192e-10 120.375 396.756)
(2.77884e-10 106.385 339.773)
(2.27795e-10 89.3491 276.845)
(1.75766e-10 68.5631 206.15)
(1.18175e-10 44.2691 128.044)
(4.71968e-11 15.5637 44.0538)
(7.49124e-09 6.30325 639.481)
(5.73395e-09 9.6599 639.577)
(3.94879e-09 13.4009 639.697)
(2.70893e-09 16.976 639.82)
(1.91801e-09 20.5765 639.928)
(1.42796e-09 24.4711 639.943)
(1.07883e-09 28.632 639.893)
(8.29981e-10 32.7858 639.788)
(7.09274e-10 36.877 639.63)
(6.26512e-10 40.9694 639.421)
(5.25747e-10 45.0328 639.174)
(2.83544e-10 48.9613 638.898)
(2.64479e-10 52.8978 638.577)
(4.16674e-10 57.0326 638.152)
(3.03551e-10 61.2911 637.653)
(2.74479e-10 65.5329 637.131)
(3.42412e-10 69.8455 636.559)
(1.88067e-10 74.2865 635.956)
(2.02209e-10 78.6769 635.374)