/*--------------------------------*- C++ -*----------------------------------*\
| =========                 |                                                 |
| \\      /  F ield         | OpenFOAM: The Open Source CFD Toolbox           |
|  \\    /   O peration     | Version:  2212                                  |
|   \\  /    A nd           | Website:  www.openfoam.com                      |
|    \\/     M anipulation  |                                                 |
\*---------------------------------------------------------------------------*/
FoamFile
{
    version     2.0;
    format      ascii;
    arch        "LSB;label=32;scalar=64";
    class       volScalarField;
    location    "0.2638";
    object      s;
}
// * * * * * * * * * * * * * * * * * * * * * * * * * * * * * * * * * * * * * //

dimensions      [0 0 0 0 0 0 0];

internalField   nonuniform List<scalar> 
24240
(
3.1033e-87
3.06071e-87
3.09564e-87
3.02943e-87
3.05827e-87
3.08112e-87
3.07563e-87
2.99579e-87
3.02513e-87
3.10173e-87
3.04088e-87
3.10913e-87
3.04244e-87
3.10259e-87
3.01619e-87
3.12496e-87
3.00767e-87
3.04575e-87
3.05379e-87
2.97864e-87
1.61777e-84
1.59571e-84
1.6136e-84
1.57972e-84
1.59411e-84
1.60648e-84
1.60346e-84
1.56205e-84
1.57731e-84
1.61718e-84
1.58562e-84
1.62081e-84
1.58663e-84
1.6177e-84
1.57285e-84
1.62921e-84
1.56852e-84
1.58826e-84
1.59201e-84
1.55328e-84
4.47886e-82
4.4182e-82
4.46681e-82
4.3748e-82
4.41285e-82
4.44836e-82
4.43958e-82
4.32553e-82
4.36774e-82
4.47785e-82
4.39099e-82
4.4873e-82
4.39435e-82
4.47954e-82
4.35593e-82
4.51099e-82
4.34429e-82
4.39861e-82
4.40772e-82
4.30184e-82
7.1225e-80
7.02674e-80
7.10257e-80
6.95907e-80
7.01675e-80
7.07521e-80
7.06058e-80
6.88022e-80
6.94728e-80
7.1219e-80
6.98458e-80
7.13593e-80
6.99079e-80
7.1249e-80
6.9292e-80
7.17415e-80
6.91133e-80
6.9971e-80
7.00956e-80
6.84343e-80
8.16003e-78
8.05122e-78
8.1363e-78
7.9752e-78
8.03801e-78
8.10725e-78
8.08976e-78
7.88433e-78
7.96114e-78
8.16041e-78
8.00416e-78
8.17534e-78
8.01219e-78
8.1642e-78
7.94103e-78
8.21963e-78
7.92148e-78
8.01887e-78
8.03078e-78
7.84329e-78
6.46366e-76
6.37826e-76
6.44419e-76
6.31922e-76
6.3664e-76
6.423e-76
6.40863e-76
6.2469e-76
6.30784e-76
6.46483e-76
6.34203e-76
6.47575e-76
6.34905e-76
6.46807e-76
6.29217e-76
6.51107e-76
6.27754e-76
6.35381e-76
6.36132e-76
6.21529e-76
3.5492e-74
3.50284e-74
3.53815e-74
3.47104e-74
3.4955e-74
3.52752e-74
3.51939e-74
3.43119e-74
3.46482e-74
3.55027e-74
3.48355e-74
3.55578e-74
3.4877e-74
3.55218e-74
3.45613e-74
3.57516e-74
3.44876e-74
3.48995e-74
3.49299e-74
3.41446e-74
1.2941e-72
1.27747e-72
1.28997e-72
1.26609e-72
1.27447e-72
1.28646e-72
1.28346e-72
1.25155e-72
1.26397e-72
1.29463e-72
1.27071e-72
1.29649e-72
1.27225e-72
1.29537e-72
1.26059e-72
1.30343e-72
1.25828e-72
1.2729e-72
1.27361e-72
1.24583e-72
1.27134e-71
1.25557e-71
1.26735e-71
1.24456e-71
1.2522e-71
1.26421e-71
1.26139e-71
1.23037e-71
1.24308e-71
1.27201e-71
1.24939e-71
1.27378e-71
1.25071e-71
1.27277e-71
1.23903e-71
1.28015e-71
1.23753e-71
1.25109e-71
1.25139e-71
1.22554e-71
6.71468e-72
6.71645e-72
6.74204e-72
6.64116e-72
6.6716e-72
6.70318e-72
6.73766e-72
6.59383e-72
6.7711e-72
6.69933e-72
6.73125e-72
6.74537e-72
6.65811e-72
6.69839e-72
6.57175e-72
6.66746e-72
6.69042e-72
6.62907e-72
6.64254e-72
6.69595e-72
1.08089e-71
1.08823e-71
1.09836e-71
1.08019e-71
1.07381e-71
1.07768e-71
1.08833e-71
1.06844e-71
1.10102e-71
1.09298e-71
1.09912e-71
1.09255e-71
1.08764e-71
1.07618e-71
1.06838e-71
1.07772e-71
1.06998e-71
1.07306e-71
1.08005e-71
1.08236e-71
1.22916e-71
1.23751e-71
1.24371e-71
1.22059e-71
1.22149e-71
1.20154e-71
1.22733e-71
1.20969e-71
1.23359e-71
1.26024e-71
1.24687e-71
1.22031e-71
1.24745e-71
1.23038e-71
1.22809e-71
1.23608e-71
1.18932e-71
1.22764e-71
1.2103e-71
1.21347e-71
1.42267e-71
1.44164e-71
1.44097e-71
1.43541e-71
1.4425e-71
1.45396e-71
1.48302e-71
1.44408e-71
1.44619e-71
1.42709e-71
1.4316e-71
1.43383e-71
1.4481e-71
1.45325e-71
1.42718e-71
1.44245e-71
1.44904e-71
1.43188e-71
1.42311e-71
1.42811e-71
1.54581e-71
1.54042e-71
1.54836e-71
1.57792e-71
1.56654e-71
1.58197e-71
1.55483e-71
1.58506e-71
1.55202e-71
1.51595e-71
1.52695e-71
1.53714e-71
1.5415e-71
1.51895e-71
1.51215e-71
1.52899e-71
1.51335e-71
1.54327e-71
1.52787e-71
1.55742e-71
1.5842e-71
1.57964e-71
1.60739e-71
1.59058e-71
1.57945e-71
1.60778e-71
1.59937e-71
1.62575e-71
1.58458e-71
1.61008e-71
1.60105e-71
1.60509e-71
1.60897e-71
1.61078e-71
1.59651e-71
1.63431e-71
1.59341e-71
1.57527e-71
1.59329e-71
1.59007e-71
1.58628e-71
1.56041e-71
1.56343e-71
1.5602e-71
1.58073e-71
1.59243e-71
1.59052e-71
1.58088e-71
1.54919e-71
1.55857e-71
1.54193e-71
1.58595e-71
1.586e-71
1.60511e-71
1.60049e-71
1.59642e-71
1.58378e-71
1.58792e-71
1.57006e-71
1.57534e-71
1.45916e-71
1.48034e-71
1.45913e-71
1.50702e-71
1.46342e-71
1.4968e-71
1.46933e-71
1.49122e-71
1.47075e-71
1.4804e-71
1.47486e-71
1.50442e-71
1.47506e-71
1.51582e-71
1.4699e-71
1.49236e-71
1.4915e-71
1.45328e-71
1.49682e-71
1.49591e-71
1.31331e-71
1.35952e-71
1.34571e-71
1.33191e-71
1.31943e-71
1.37269e-71
1.3487e-71
1.3546e-71
1.34394e-71
1.32269e-71
1.33892e-71
1.36399e-71
1.3367e-71
1.38572e-71
1.33788e-71
1.36116e-71
1.36714e-71
1.34767e-71
1.36944e-71
1.37283e-71
1.22063e-71
1.22031e-71
1.21869e-71
1.23509e-71
1.24019e-71
1.23956e-71
1.21437e-71
1.23372e-71
1.25281e-71
1.21821e-71
1.24232e-71
1.24912e-71
1.2115e-71
1.25704e-71
1.25006e-71
1.27463e-71
1.23803e-71
1.25494e-71
1.23976e-71
1.26865e-71
8.42874e-72
8.49335e-72
8.46596e-72
8.39078e-72
8.50207e-72
8.4652e-72
8.51172e-72
8.48123e-72
8.47586e-72
8.59798e-72
8.41249e-72
8.62467e-72
8.4116e-72
8.70379e-72
8.43327e-72
8.4434e-72
8.48421e-72
8.64611e-72
8.50955e-72
8.71694e-72
1.00699e-85
9.93238e-86
1.00442e-85
9.83295e-86
9.92277e-86
9.99983e-86
9.98092e-86
9.72315e-86
9.81782e-86
1.00669e-85
9.86975e-86
1.00895e-85
9.87613e-86
1.00698e-85
9.79042e-86
1.01418e-85
9.76275e-86
9.88622e-86
9.90988e-86
9.66783e-86
5.24405e-83
5.17292e-83
5.23013e-83
5.12217e-83
5.16684e-83
5.20845e-83
5.19809e-83
5.06454e-83
5.11374e-83
5.24319e-83
5.14108e-83
5.25427e-83
5.14506e-83
5.24497e-83
5.1001e-83
5.28197e-83
5.08605e-83
5.14999e-83
5.16085e-83
5.03625e-83
1.43511e-80
1.41579e-80
1.43116e-80
1.40218e-80
1.41383e-80
1.42562e-80
1.42265e-80
1.3863e-80
1.39975e-80
1.4351e-80
1.4073e-80
1.43793e-80
1.40858e-80
1.43565e-80
1.39618e-80
1.44563e-80
1.39245e-80
1.40984e-80
1.41241e-80
1.37873e-80
2.29047e-78
2.25988e-78
2.28393e-78
2.23859e-78
2.25627e-78
2.27573e-78
2.27078e-78
2.21309e-78
2.23452e-78
2.29078e-78
2.24668e-78
2.29497e-78
2.24899e-78
2.29175e-78
2.22904e-78
2.30744e-78
2.2233e-78
2.25086e-78
2.2543e-78
2.20126e-78
2.58201e-76
2.54783e-76
2.57438e-76
2.5243e-76
2.5432e-76
2.56585e-76
2.56003e-76
2.4954e-76
2.51954e-76
2.58272e-76
2.53333e-76
2.58708e-76
2.53624e-76
2.58392e-76
2.51356e-76
2.60128e-76
2.50738e-76
2.53817e-76
2.5413e-76
2.4824e-76
2.02495e-74
1.99841e-74
2.01877e-74
1.98032e-74
1.99433e-74
2.01265e-74
2.00792e-74
1.95755e-74
1.97651e-74
2.02579e-74
1.98736e-74
2.02892e-74
1.98985e-74
2.02681e-74
1.9719e-74
2.04014e-74
1.96733e-74
1.99119e-74
1.99305e-74
1.94762e-74
1.09527e-72
1.08109e-72
1.09183e-72
1.0715e-72
1.07863e-72
1.08883e-72
1.08619e-72
1.05914e-72
1.06944e-72
1.09587e-72
1.0753e-72
1.09741e-72
1.07674e-72
1.09645e-72
1.06692e-72
1.10347e-72
1.06465e-72
1.07735e-72
1.07802e-72
1.05395e-72
3.94432e-71
3.89411e-71
3.93168e-71
3.8602e-71
3.88427e-71
3.92194e-71
3.91235e-71
3.81568e-71
3.85328e-71
3.94694e-71
3.87408e-71
3.95202e-71
3.87936e-71
3.94915e-71
3.84355e-71
3.97344e-71
3.83652e-71
3.88105e-71
3.88225e-71
3.79813e-71
3.82096e-70
3.77408e-70
3.80902e-70
3.74177e-70
3.76329e-70
3.80049e-70
3.79153e-70
3.69891e-70
3.73683e-70
3.82402e-70
3.75605e-70
3.82875e-70
3.7606e-70
3.82622e-70
3.72523e-70
3.84813e-70
3.72071e-70
3.76143e-70
3.76146e-70
3.68421e-70
1.9791e-70
1.97966e-70
1.98754e-70
1.95788e-70
1.96637e-70
1.97601e-70
1.98581e-70
1.94371e-70
1.99602e-70
1.97489e-70
1.98434e-70
1.98818e-70
1.96288e-70
1.97446e-70
1.93754e-70
1.96496e-70
1.9721e-70
1.95414e-70
1.95814e-70
1.97379e-70
3.20337e-70
3.22474e-70
3.25494e-70
3.20094e-70
3.18214e-70
3.19327e-70
3.22434e-70
3.16613e-70
3.26234e-70
3.23897e-70
3.25702e-70
3.23709e-70
3.2232e-70
3.18939e-70
3.16637e-70
3.1935e-70
3.17017e-70
3.17985e-70
3.2003e-70
3.20673e-70
3.62185e-70
3.64615e-70
3.66453e-70
3.59628e-70
3.5995e-70
3.54138e-70
3.61704e-70
3.56573e-70
3.63441e-70
3.71261e-70
3.67291e-70
3.59576e-70
3.67506e-70
3.62553e-70
3.61845e-70
3.64202e-70
3.50513e-70
3.61662e-70
3.56639e-70
3.57538e-70
4.19971e-70
4.25421e-70
4.25297e-70
4.23748e-70
4.25797e-70
4.29203e-70
4.37579e-70
4.26336e-70
4.26872e-70
4.21213e-70
4.22518e-70
4.232e-70
4.27414e-70
4.28993e-70
4.21334e-70
4.25767e-70
4.27683e-70
4.22718e-70
4.2009e-70
4.21596e-70
4.52973e-70
4.51301e-70
4.53602e-70
4.62249e-70
4.58949e-70
4.63454e-70
4.55487e-70
4.64408e-70
4.54576e-70
4.44282e-70
4.47373e-70
4.50438e-70
4.51622e-70
4.45097e-70
4.43105e-70
4.48054e-70
4.43394e-70
4.52154e-70
4.47677e-70
4.56275e-70
4.65454e-70
4.64072e-70
4.72191e-70
4.67223e-70
4.64022e-70
4.72401e-70
4.69826e-70
4.77624e-70
4.65578e-70
4.73091e-70
4.70395e-70
4.71605e-70
4.72658e-70
4.73366e-70
4.69117e-70
4.80117e-70
4.68168e-70
4.62814e-70
4.68114e-70
4.67048e-70
4.62183e-70
4.54702e-70
4.55408e-70
4.54585e-70
4.60566e-70
4.63956e-70
4.63353e-70
4.60543e-70
4.51389e-70
4.54072e-70
4.49201e-70
4.61987e-70
4.62081e-70
4.67597e-70
4.66302e-70
4.65e-70
4.61422e-70
4.62685e-70
4.5747e-70
4.59e-70
4.2685e-70
4.33128e-70
4.26877e-70
4.4081e-70
4.27988e-70
4.37759e-70
4.29727e-70
4.36213e-70
4.3025e-70
4.33119e-70
4.31448e-70
4.40109e-70
4.31473e-70
4.43356e-70
4.30004e-70
4.36486e-70
4.36296e-70
4.25167e-70
4.3787e-70
4.37606e-70
3.81739e-70
3.95039e-70
3.91107e-70
3.87028e-70
3.83478e-70
3.98834e-70
3.91854e-70
3.93613e-70
3.90529e-70
3.84389e-70
3.89024e-70
3.96294e-70
3.88431e-70
4.02542e-70
3.88759e-70
3.95495e-70
3.97161e-70
3.91643e-70
3.97866e-70
3.98898e-70
3.57353e-70
3.57255e-70
3.5684e-70
3.61595e-70
3.63016e-70
3.62842e-70
3.55465e-70
3.61283e-70
3.66732e-70
3.56688e-70
3.63683e-70
3.65709e-70
3.54646e-70
3.67972e-70
3.65952e-70
3.73118e-70
3.62464e-70
3.67314e-70
3.62878e-70
3.71288e-70
2.4553e-70
2.47427e-70
2.46652e-70
2.44438e-70
2.47618e-70
2.46588e-70
2.47891e-70
2.4707e-70
2.46797e-70
2.5041e-70
2.44986e-70
2.51156e-70
2.44996e-70
2.53474e-70
2.45617e-70
2.45918e-70
2.4707e-70
2.51791e-70
2.47836e-70
2.53834e-70
3.26771e-84
3.22331e-84
3.25911e-84
3.19174e-84
3.21962e-84
3.2456e-84
3.23909e-84
3.15588e-84
3.18641e-84
3.26737e-84
3.20352e-84
3.27428e-84
3.20603e-84
3.26838e-84
3.17802e-84
3.29151e-84
3.16904e-84
3.20906e-84
3.21592e-84
3.13798e-84
1.68262e-81
1.65993e-81
1.67803e-81
1.644e-81
1.65768e-81
1.67154e-81
1.66802e-81
1.62541e-81
1.64109e-81
1.68271e-81
1.64999e-81
1.68602e-81
1.6515e-81
1.68329e-81
1.63697e-81
1.69505e-81
1.63247e-81
1.65296e-81
1.65602e-81
1.61635e-81
4.52559e-79
4.46508e-79
4.51284e-79
4.4231e-79
4.45809e-79
4.49662e-79
4.48673e-79
4.37276e-79
4.41486e-79
4.52655e-79
4.43903e-79
4.53483e-79
4.44369e-79
4.52833e-79
4.4043e-79
4.5595e-79
4.39257e-79
4.44734e-79
4.45429e-79
4.34888e-79
7.14246e-77
7.04778e-77
7.1217e-77
6.98288e-77
7.03524e-77
7.09806e-77
7.08178e-77
6.90295e-77
6.96929e-77
7.1451e-77
7.00774e-77
7.15712e-77
7.01598e-77
7.14815e-77
6.9533e-77
7.19657e-77
6.93545e-77
7.02127e-77
7.0302e-77
6.86601e-77
7.91675e-75
7.81283e-75
7.89304e-75
7.74235e-75
7.79719e-75
7.86902e-75
7.85026e-75
7.65327e-75
7.72675e-75
7.92088e-75
7.7696e-75
7.93306e-75
7.77969e-75
7.92455e-75
7.7096e-75
7.97724e-75
7.69073e-75
7.78501e-75
7.79259e-75
7.61327e-75
6.13416e-73
6.05451e-73
6.11529e-73
6.00101e-73
6.04104e-73
6.09837e-73
6.08333e-73
5.93168e-73
5.98868e-73
6.13831e-73
6.02197e-73
6.14687e-73
6.03045e-73
6.14134e-73
5.97562e-73
6.18128e-73
5.96184e-73
6.03405e-73
6.03812e-73
5.90142e-73
3.26565e-71
3.2238e-71
3.25535e-71
3.19588e-71
3.21586e-71
3.24725e-71
3.23902e-71
3.15886e-71
3.18934e-71
3.26833e-71
3.20702e-71
3.27242e-71
3.21182e-71
3.27003e-71
3.18231e-71
3.29071e-71
3.17558e-71
3.2134e-71
3.21457e-71
3.14327e-71
1.15938e-69
1.14478e-69
1.15566e-69
1.13505e-69
1.14167e-69
1.15309e-69
1.15013e-69
1.12191e-69
1.13287e-69
1.16047e-69
1.13906e-69
1.16178e-69
1.1408e-69
1.1611e-69
1.13019e-69
1.16816e-69
1.12813e-69
1.1412e-69
1.14127e-69
1.11669e-69
1.1066e-68
1.09319e-68
1.10316e-68
1.08406e-68
1.08986e-68
1.10096e-68
1.09823e-68
1.07159e-68
1.08248e-68
1.10781e-68
1.08812e-68
1.109e-68
1.08962e-68
1.10842e-68
1.07929e-68
1.11468e-68
1.07799e-68
1.08977e-68
1.08951e-68
1.06726e-68
5.61362e-69
5.6153e-69
5.63866e-69
5.55476e-69
5.5774e-69
5.60568e-69
5.6324e-69
5.5139e-69
5.6624e-69
5.60259e-69
5.62953e-69
5.63949e-69
5.56896e-69
5.60092e-69
5.49741e-69
5.57288e-69
5.59413e-69
5.54363e-69
5.55503e-69
5.5991e-69
9.13863e-69
9.1984e-69
9.28508e-69
9.13057e-69
9.07726e-69
9.1081e-69
9.19523e-69
9.03137e-69
9.30477e-69
9.23938e-69
9.29047e-69
9.23239e-69
9.19457e-69
9.09861e-69
9.03315e-69
9.10901e-69
9.04134e-69
9.07055e-69
9.12806e-69
9.14524e-69
1.02789e-68
1.0347e-68
1.03995e-68
1.02055e-68
1.02161e-68
1.00531e-68
1.02669e-68
1.01233e-68
1.03131e-68
1.05341e-68
1.04206e-68
1.02048e-68
1.04279e-68
1.02896e-68
1.02686e-68
1.03355e-68
9.94961e-69
1.02618e-68
1.01219e-68
1.01464e-68
1.1943e-68
1.20937e-68
1.20922e-68
1.20508e-68
1.21078e-68
1.22053e-68
1.24375e-68
1.21252e-68
1.2138e-68
1.19767e-68
1.20129e-68
1.20329e-68
1.21528e-68
1.21994e-68
1.19827e-68
1.21066e-68
1.21602e-68
1.20219e-68
1.1946e-68
1.19897e-68
1.28044e-68
1.27545e-68
1.28187e-68
1.30626e-68
1.29705e-68
1.30973e-68
1.28717e-68
1.31255e-68
1.28434e-68
1.25603e-68
1.26439e-68
1.27328e-68
1.27635e-68
1.25816e-68
1.25252e-68
1.26655e-68
1.25317e-68
1.27791e-68
1.26535e-68
1.28947e-68
1.3195e-68
1.31542e-68
1.33832e-68
1.32417e-68
1.31535e-68
1.33921e-68
1.3316e-68
1.35384e-68
1.31985e-68
1.34118e-68
1.33342e-68
1.33692e-68
1.33966e-68
1.34217e-68
1.33e-68
1.36083e-68
1.32716e-68
1.31195e-68
1.32696e-68
1.3236e-68
1.30158e-68
1.28072e-68
1.28225e-68
1.28027e-68
1.29702e-68
1.30653e-68
1.30469e-68
1.29687e-68
1.2713e-68
1.27875e-68
1.26496e-68
1.30076e-68
1.30127e-68
1.3166e-68
1.31312e-68
1.30917e-68
1.29935e-68
1.30308e-68
1.28839e-68
1.29265e-68
1.20721e-68
1.22514e-68
1.20732e-68
1.24644e-68
1.2101e-68
1.23771e-68
1.21504e-68
1.23355e-68
1.21677e-68
1.22502e-68
1.22013e-68
1.24471e-68
1.22017e-68
1.25365e-68
1.21617e-68
1.23418e-68
1.23384e-68
1.20255e-68
1.23831e-68
1.23758e-68
1.07397e-68
1.111e-68
1.10017e-68
1.08855e-68
1.07874e-68
1.12158e-68
1.10192e-68
1.107e-68
1.09835e-68
1.0812e-68
1.09399e-68
1.1144e-68
1.09249e-68
1.13178e-68
1.09336e-68
1.11221e-68
1.1167e-68
1.10157e-68
1.11879e-68
1.12182e-68
1.0123e-68
1.01205e-68
1.01104e-68
1.02435e-68
1.02815e-68
1.02773e-68
1.00683e-68
1.02374e-68
1.03874e-68
1.01056e-68
1.03018e-68
1.03603e-68
1.00457e-68
1.04229e-68
1.03661e-68
1.05682e-68
1.02686e-68
1.04027e-68
1.02776e-68
1.05142e-68
6.90687e-69
6.96042e-69
6.93932e-69
6.87664e-69
6.96433e-69
6.93636e-69
6.97138e-69
6.9504e-69
6.93953e-69
7.04253e-69
6.88962e-69
7.06268e-69
6.89064e-69
7.12818e-69
6.90819e-69
6.91692e-69
6.94789e-69
7.08094e-69
6.97024e-69
7.13777e-69
1.02831e-82
1.01443e-82
1.02554e-82
1.00471e-82
1.01309e-82
1.02157e-82
1.0194e-82
9.93364e-83
1.00291e-82
1.02844e-82
1.00837e-82
1.03046e-82
1.00931e-82
1.02876e-82
1.00042e-82
1.03597e-82
9.976e-83
1.01018e-82
1.01208e-82
9.87735e-83
5.37289e-80
5.30095e-80
5.35792e-80
5.25122e-80
5.29281e-80
5.33866e-80
5.32681e-80
5.19151e-80
5.24125e-80
5.37441e-80
5.27008e-80
5.38422e-80
5.27568e-80
5.37632e-80
5.22892e-80
5.41349e-80
5.21457e-80
5.27993e-80
5.28834e-80
5.16258e-80
1.42611e-77
1.40719e-77
1.42202e-77
1.39426e-77
1.40473e-77
1.4173e-77
1.41402e-77
1.37831e-77
1.39149e-77
1.42676e-77
1.39921e-77
1.42915e-77
1.40088e-77
1.42732e-77
1.38837e-77
1.43704e-77
1.38468e-77
1.40193e-77
1.40375e-77
1.37078e-77
2.22172e-75
2.19251e-75
2.21517e-75
2.17279e-75
2.18821e-75
2.20842e-75
2.2031e-75
2.1478e-75
2.16829e-75
2.22309e-75
2.18041e-75
2.2265e-75
2.1833e-75
2.22404e-75
2.16365e-75
2.23895e-75
2.15812e-75
2.18478e-75
2.18699e-75
2.13627e-75
2.42136e-73
2.38987e-73
2.41405e-73
2.36883e-73
2.38465e-73
2.40734e-73
2.40132e-73
2.34145e-73
2.36375e-73
2.42326e-73
2.37703e-73
2.42662e-73
2.38048e-73
2.42437e-73
2.35887e-73
2.44031e-73
2.35312e-73
2.38192e-73
2.38362e-73
2.32915e-73
1.85115e-71
1.82736e-71
1.84543e-71
1.8116e-71
1.82295e-71
1.84081e-71
1.83605e-71
1.79058e-71
1.80765e-71
1.85291e-71
1.81782e-71
1.85521e-71
1.82067e-71
1.8538e-71
1.80399e-71
1.86573e-71
1.79985e-71
1.82161e-71
1.82236e-71
1.78138e-71
9.69921e-70
9.57629e-70
9.66861e-70
9.4954e-70
9.55091e-70
9.64703e-70
9.62145e-70
9.38495e-70
9.47474e-70
9.70991e-70
9.52789e-70
9.72056e-70
9.54367e-70
9.71482e-70
9.45532e-70
9.77555e-70
9.43544e-70
9.54762e-70
9.54862e-70
9.3382e-70
3.39182e-68
3.34963e-68
3.38098e-68
3.32188e-68
3.3399e-68
3.37432e-68
3.36527e-68
3.28324e-68
3.31506e-68
3.39602e-68
3.33338e-68
3.39931e-68
3.33901e-68
3.39779e-68
3.30771e-68
3.41818e-68
3.30173e-68
3.33993e-68
3.33927e-68
3.26781e-68
3.18976e-67
3.1516e-67
3.17993e-67
3.12595e-67
3.14142e-67
3.17436e-67
3.16611e-67
3.08985e-67
3.12099e-67
3.19422e-67
3.13745e-67
3.19713e-67
3.14228e-67
3.19589e-67
3.11229e-67
3.2137e-67
3.10853e-67
3.14245e-67
3.14094e-67
3.07716e-67
1.58368e-67
1.58419e-67
1.59106e-67
1.56745e-67
1.57343e-67
1.58167e-67
1.5889e-67
1.55574e-67
1.59767e-67
1.58084e-67
1.58846e-67
1.59101e-67
1.57146e-67
1.58023e-67
1.55137e-67
1.57201e-67
1.57828e-67
1.56416e-67
1.5674e-67
1.57974e-67
2.59395e-67
2.61059e-67
2.63533e-67
2.59134e-67
2.57632e-67
2.5848e-67
2.60911e-67
2.56323e-67
2.64052e-67
2.62234e-67
2.6367e-67
2.61988e-67
2.60966e-67
2.58256e-67
2.56404e-67
2.58514e-67
2.56561e-67
2.57434e-67
2.59044e-67
2.59498e-67
2.90369e-67
2.92267e-67
2.93759e-67
2.8827e-67
2.88614e-67
2.84059e-67
2.90075e-67
2.86079e-67
2.91292e-67
2.97511e-67
2.94278e-67
2.88274e-67
2.94521e-67
2.90678e-67
2.90056e-67
2.91952e-67
2.81122e-67
2.89823e-67
2.85947e-67
2.86608e-67
3.38144e-67
3.42284e-67
3.42304e-67
3.41207e-67
3.4278e-67
3.45565e-67
3.51964e-67
3.43332e-67
3.43624e-67
3.39047e-67
3.40048e-67
3.40631e-67
3.44029e-67
3.4539e-67
3.3929e-67
3.42738e-67
3.44229e-67
3.404e-67
3.38214e-67
3.39477e-67
3.60732e-67
3.59252e-67
3.6104e-67
3.67893e-67
3.6533e-67
3.68889e-67
3.62525e-67
3.6972e-67
3.61653e-67
3.53905e-67
3.56148e-67
3.58717e-67
3.59507e-67
3.54451e-67
3.52867e-67
3.56823e-67
3.52998e-67
3.59959e-67
3.56452e-67
3.63189e-67
3.72898e-67
3.717e-67
3.78138e-67
3.74121e-67
3.71701e-67
3.78471e-67
3.76235e-67
3.82559e-67
3.73e-67
3.79036e-67
3.76805e-67
3.77815e-67
3.78521e-67
3.79377e-67
3.75896e-67
3.8451e-67
3.75055e-67
3.70751e-67
3.74983e-67
3.73939e-67
3.65977e-67
3.60171e-67
3.60472e-67
3.60015e-67
3.64693e-67
3.67356e-67
3.668e-67
3.6463e-67
3.575e-67
3.59563e-67
3.55668e-67
3.65676e-67
3.65878e-67
3.70135e-67
3.69205e-67
3.68016e-67
3.65322e-67
3.66426e-67
3.62295e-67
3.63479e-67
3.40954e-67
3.46069e-67
3.40995e-67
3.51969e-67
3.41678e-67
3.49469e-67
3.43079e-67
3.48349e-67
3.43638e-67
3.46013e-67
3.44582e-67
3.51549e-67
3.44584e-67
3.54001e-67
3.43494e-67
3.48487e-67
3.48453e-67
3.39661e-67
3.49722e-67
3.4952e-67
3.02327e-67
3.12636e-67
3.09657e-67
3.06334e-67
3.03635e-67
3.15586e-67
3.10048e-67
3.11513e-67
3.0909e-67
3.04292e-67
3.07821e-67
3.13555e-67
3.07447e-67
3.18393e-67
3.07681e-67
3.12964e-67
3.14168e-67
3.1002e-67
3.14778e-67
3.15673e-67
2.86971e-67
2.86898e-67
2.86663e-67
2.90394e-67
2.91409e-67
2.91303e-67
2.85378e-67
2.90295e-67
2.94426e-67
2.86512e-67
2.92021e-67
2.93712e-67
2.84759e-67
2.9544e-67
2.93851e-67
2.9955e-67
2.91114e-67
2.94826e-67
2.91293e-67
2.97953e-67
1.95361e-67
1.96888e-67
1.9631e-67
1.94518e-67
1.96948e-67
1.96191e-67
1.9714e-67
1.96601e-67
1.96198e-67
1.99157e-67
1.94816e-67
1.99701e-67
1.94873e-67
2.01564e-67
1.95362e-67
1.95614e-67
1.96459e-67
2.00226e-67
1.97115e-67
2.01816e-67
3.34759e-81
3.30269e-81
3.33834e-81
3.27176e-81
3.29772e-81
3.32634e-81
3.3189e-81
3.23462e-81
3.26547e-81
3.34874e-81
3.2835e-81
3.35486e-81
3.28703e-81
3.34983e-81
3.2579e-81
3.37307e-81
3.24871e-81
3.28963e-81
3.29495e-81
3.21628e-81
1.72269e-78
1.6998e-78
1.7178e-78
1.68422e-78
1.69688e-78
1.71209e-78
1.7081e-78
1.66497e-78
1.6808e-78
1.72358e-78
1.69017e-78
1.72648e-78
1.69222e-78
1.7242e-78
1.67711e-78
1.736e-78
1.67252e-78
1.69345e-78
1.69571e-78
1.65568e-78
4.49225e-76
4.43313e-76
4.47918e-76
4.39336e-76
4.42457e-76
4.46551e-76
4.45466e-76
4.34287e-76
4.38406e-76
4.49539e-76
4.4087e-76
4.50228e-76
4.41464e-76
4.49716e-76
4.37492e-76
4.52748e-76
4.36334e-76
4.41758e-76
4.42217e-76
4.31903e-76
6.90402e-74
6.81411e-74
6.88348e-74
6.75429e-74
6.79948e-74
6.86434e-74
6.847e-74
6.67626e-74
6.73943e-74
6.9101e-74
6.77757e-74
6.91966e-74
6.78761e-74
6.91303e-74
6.72604e-74
6.95886e-74
6.70892e-74
6.79168e-74
6.79675e-74
6.64023e-74
7.39574e-72
7.30053e-72
7.37326e-72
7.2378e-72
7.28321e-72
7.35474e-72
7.3355e-72
7.15378e-72
7.22137e-72
7.40355e-72
7.26242e-72
7.41267e-72
7.27411e-72
7.40687e-72
7.20756e-72
7.45504e-72
7.19009e-72
7.27794e-72
7.28122e-72
7.11592e-72
5.57376e-70
5.50292e-70
5.5565e-70
5.45664e-70
5.48862e-70
5.54405e-70
5.52908e-70
5.39307e-70
5.44403e-70
5.58064e-70
5.47503e-70
5.58669e-70
5.48448e-70
5.58327e-70
5.43384e-70
5.61877e-70
5.42145e-70
5.48689e-70
5.48772e-70
5.3651e-70
2.87315e-68
2.83718e-68
2.86411e-68
2.81382e-68
2.82912e-68
2.85845e-68
2.85054e-68
2.78096e-68
2.80733e-68
2.87717e-68
2.82326e-68
2.87987e-68
2.8284e-68
2.87858e-68
2.80201e-68
2.89636e-68
2.79616e-68
2.82934e-68
2.82891e-68
2.76694e-68
9.88791e-67
9.76654e-67
9.85655e-67
9.68769e-67
9.73631e-67
9.83959e-67
9.81204e-67
9.5746e-67
9.66654e-67
9.90319e-67
9.7206e-67
9.91121e-67
9.73863e-67
9.90814e-67
9.64661e-67
9.96686e-67
9.6293e-67
9.7405e-67
9.73609e-67
9.52892e-67
9.15978e-66
9.05176e-66
9.13194e-66
8.97999e-66
9.02082e-66
9.1181e-66
9.0933e-66
8.8759e-66
8.96457e-66
9.17549e-66
9.01238e-66
9.18235e-66
9.02781e-66
9.18001e-66
8.94097e-66
9.23045e-66
8.93021e-66
9.02754e-66
9.02095e-66
8.83868e-66
4.44789e-66
4.4494e-66
4.46951e-66
4.40333e-66
4.419e-66
4.44285e-66
4.46231e-66
4.36994e-66
4.48778e-66
4.44067e-66
4.46211e-66
4.46856e-66
4.41463e-66
4.43855e-66
4.35845e-66
4.41458e-66
4.43298e-66
4.39369e-66
4.40286e-66
4.43721e-66
7.3315e-66
7.37758e-66
7.44791e-66
7.32321e-66
7.28105e-66
7.30431e-66
7.37181e-66
7.24394e-66
7.46146e-66
7.41115e-66
7.4513e-66
7.40291e-66
7.37536e-66
7.29925e-66
7.24703e-66
7.30548e-66
7.2494e-66
7.27527e-66
7.32012e-66
7.33199e-66
8.1716e-66
8.2243e-66
8.26655e-66
8.1119e-66
8.1227e-66
7.99601e-66
8.16454e-66
8.05384e-66
8.19636e-66
8.37068e-66
8.279e-66
8.11258e-66
8.28682e-66
8.18052e-66
8.16223e-66
8.21569e-66
7.91296e-66
8.15447e-66
8.04764e-66
8.06537e-66
9.53926e-66
9.65253e-66
9.65477e-66
9.62591e-66
9.66922e-66
9.74844e-66
9.92401e-66
9.68641e-66
9.69273e-66
9.56345e-66
9.59091e-66
9.60781e-66
9.70371e-66
9.74327e-66
9.57226e-66
9.6678e-66
9.70908e-66
9.60348e-66
9.54078e-66
9.57714e-66
1.01351e-65
1.00915e-65
1.01411e-65
1.03331e-65
1.0262e-65
1.03616e-65
1.01826e-65
1.03859e-65
1.0156e-65
9.94463e-66
1.00046e-65
1.00785e-65
1.00986e-65
9.95848e-66
9.9141e-66
1.00254e-65
9.91638e-66
1.01117e-65
1.0014e-65
1.02016e-65
1.05111e-65
1.04761e-65
1.06565e-65
1.05428e-65
1.04768e-65
1.06683e-65
1.06028e-65
1.07821e-65
1.0514e-65
1.06843e-65
1.06204e-65
1.06494e-65
1.06675e-65
1.06957e-65
1.05964e-65
1.08364e-65
1.05717e-65
1.04502e-65
1.05692e-65
1.05371e-65
1.02738e-65
1.01128e-65
1.01178e-65
1.01075e-65
1.02377e-65
1.03123e-65
1.02955e-65
1.02357e-65
1.00372e-65
1.00943e-65
9.98446e-66
1.02636e-65
1.0271e-65
1.03887e-65
1.03639e-65
1.03287e-65
1.02548e-65
1.0287e-65
1.01715e-65
1.02043e-65
9.61546e-66
9.76085e-66
9.61658e-66
9.92365e-66
9.63321e-66
9.85247e-66
9.67285e-66
9.82246e-66
9.6904e-66
9.75856e-66
9.71672e-66
9.91405e-66
9.71674e-66
9.98123e-66
9.68741e-66
9.82521e-66
9.82608e-66
9.57973e-66
9.86187e-66
9.85634e-66
8.50399e-66
8.79072e-66
8.70888e-66
8.61431e-66
8.53982e-66
8.87291e-66
8.71705e-66
8.75924e-66
8.69136e-66
8.55739e-66
8.65462e-66
8.81554e-66
8.64546e-66
8.95006e-66
8.65168e-66
8.79951e-66
8.83178e-66
8.71819e-66
8.84957e-66
8.87585e-66
8.12963e-66
8.12781e-66
8.12251e-66
8.22682e-66
8.25376e-66
8.2514e-66
8.08357e-66
8.22625e-66
8.33968e-66
8.11773e-66
8.27223e-66
8.32107e-66
8.0666e-66
8.36877e-66
8.32417e-66
8.48471e-66
8.2477e-66
8.35007e-66
8.25055e-66
8.43775e-66
5.51526e-66
5.55852e-66
5.54282e-66
5.49189e-66
5.55907e-66
5.5385e-66
5.56399e-66
5.55046e-66
5.53656e-66
5.62113e-66
5.49837e-66
5.63582e-66
5.50059e-66
5.68865e-66
5.51445e-66
5.52177e-66
5.54446e-66
5.65099e-66
5.5636e-66
5.69538e-66
1.08821e-79
1.07372e-79
1.08514e-79
1.0639e-79
1.07191e-79
1.08154e-79
1.079e-79
1.05176e-79
1.06172e-79
1.08884e-79
1.06766e-79
1.09067e-79
1.06896e-79
1.0892e-79
1.05942e-79
1.09668e-79
1.05644e-79
1.06972e-79
1.07117e-79
1.04579e-79
5.51819e-77
5.44547e-77
5.50229e-77
5.39673e-77
5.43512e-77
5.48552e-77
5.47208e-77
5.33477e-77
5.38511e-77
5.52244e-77
5.41552e-77
5.53089e-77
5.4229e-77
5.52443e-77
5.37411e-77
5.56184e-77
5.35945e-77
5.42643e-77
5.43221e-77
5.30489e-77
1.41352e-74
1.39509e-74
1.40936e-74
1.38287e-74
1.39213e-74
1.40544e-74
1.40186e-74
1.36691e-74
1.37977e-74
1.41488e-74
1.38762e-74
1.41683e-74
1.3897e-74
1.41543e-74
1.3771e-74
1.42487e-74
1.37347e-74
1.39052e-74
1.3916e-74
1.35936e-74
2.14092e-72
2.11333e-72
2.13451e-72
2.09523e-72
2.10839e-72
2.12915e-72
2.12353e-72
2.07092e-72
2.09035e-72
2.1434e-72
2.10233e-72
2.14604e-72
2.10577e-72
2.14429e-72
2.08652e-72
2.15835e-72
2.08124e-72
2.10687e-72
2.10788e-72
2.05966e-72
2.25377e-70
2.22508e-70
2.24691e-70
2.20644e-70
2.21938e-70
2.24186e-70
2.23573e-70
2.18072e-70
2.20115e-70
2.2568e-70
2.21381e-70
2.25923e-70
2.21772e-70
2.25778e-70
2.19727e-70
2.2723e-70
2.19198e-70
2.21872e-70
2.21913e-70
2.16907e-70
1.67276e-68
1.65176e-68
1.6676e-68
1.63822e-68
1.64716e-68
1.66429e-68
1.65961e-68
1.61907e-68
1.63423e-68
1.67533e-68
1.64364e-68
1.67688e-68
1.64675e-68
1.67609e-68
1.63142e-68
1.68662e-68
1.62773e-68
1.64734e-68
1.64716e-68
1.61057e-68
8.48142e-67
8.37666e-67
8.45493e-67
8.30946e-67
8.35127e-67
8.44039e-67
8.41603e-67
8.21207e-67
8.28923e-67
8.49594e-67
8.33681e-67
8.50254e-67
8.35338e-67
8.49991e-67
8.27479e-67
8.55178e-67
8.25765e-67
8.35548e-67
8.35201e-67
8.17011e-67
2.87075e-65
2.83603e-65
2.86176e-65
2.81372e-65
2.8267e-65
2.85754e-65
2.8492e-65
2.78077e-65
2.80722e-65
2.87612e-65
2.82309e-65
2.87797e-65
2.82881e-65
2.87748e-65
2.80186e-65
2.89431e-65
2.79688e-65
2.82911e-65
2.82711e-65
2.76727e-65
2.61924e-64
2.58884e-64
2.61143e-64
2.56885e-64
2.5795e-64
2.60809e-64
2.60068e-64
2.53897e-64
2.5641e-64
2.62461e-64
2.57794e-64
2.62613e-64
2.5828e-64
2.62581e-64
2.55775e-64
2.64003e-64
2.55469e-64
2.5825e-64
2.57997e-64
2.52808e-64
1.24318e-64
1.24362e-64
1.24947e-64
1.23101e-64
1.23507e-64
1.24193e-64
1.24713e-64
1.22154e-64
1.25449e-64
1.24138e-64
1.24737e-64
1.24898e-64
1.23418e-64
1.24067e-64
1.21854e-64
1.23372e-64
1.23907e-64
1.2282e-64
1.23079e-64
1.24029e-64
2.06267e-64
2.07537e-64
2.09526e-64
2.06008e-64
2.04831e-64
2.05465e-64
2.0733e-64
2.03784e-64
2.09876e-64
2.08492e-64
2.09608e-64
2.08223e-64
2.07486e-64
2.05358e-64
2.03892e-64
2.05504e-64
2.03901e-64
2.04661e-64
2.05905e-64
2.06212e-64
2.28982e-64
2.30438e-64
2.3163e-64
2.27292e-64
2.27626e-64
2.24117e-64
2.28817e-64
2.25767e-64
2.2964e-64
2.34506e-64
2.31917e-64
2.27325e-64
2.32164e-64
2.2924e-64
2.28705e-64
2.30206e-64
2.21781e-64
2.28453e-64
2.25523e-64
2.25995e-64
2.67999e-64
2.71082e-64
2.71192e-64
2.7044e-64
2.71626e-64
2.73872e-64
2.78663e-64
2.72155e-64
2.72278e-64
2.68643e-64
2.69392e-64
2.6988e-64
2.72573e-64
2.73715e-64
2.68943e-64
2.71578e-64
2.72716e-64
2.69819e-64
2.68027e-64
2.6907e-64
2.83782e-64
2.82504e-64
2.83876e-64
2.89234e-64
2.87272e-64
2.90051e-64
2.85032e-64
2.90757e-64
2.84229e-64
2.78489e-64
2.80079e-64
2.82199e-64
2.827e-64
2.78832e-64
2.77596e-64
2.80712e-64
2.77619e-64
2.83081e-64
2.80372e-64
2.85575e-64
2.953e-64
2.94284e-64
2.99322e-64
2.96116e-64
2.94322e-64
2.99719e-64
2.97811e-64
3.0288e-64
2.95387e-64
3.00172e-64
2.98346e-64
2.99179e-64
2.99636e-64
3.00547e-64
2.9772e-64
3.04383e-64
2.96999e-64
2.93582e-64
2.96916e-64
2.95941e-64
2.87795e-64
2.83349e-64
2.8339e-64
2.83175e-64
2.86784e-64
2.88873e-64
2.88368e-64
2.86726e-64
2.81213e-64
2.82789e-64
2.79698e-64
2.87467e-64
2.87721e-64
2.90967e-64
2.90307e-64
2.89272e-64
2.8725e-64
2.88187e-64
2.84964e-64
2.8587e-64
2.70587e-64
2.74709e-64
2.70616e-64
2.79188e-64
2.71011e-64
2.77166e-64
2.7213e-64
2.76366e-64
2.72673e-64
2.74625e-64
2.73405e-64
2.78982e-64
2.73404e-64
2.80816e-64
2.72621e-64
2.7641e-64
2.76489e-64
2.69601e-64
2.77496e-64
2.77344e-64
2.38934e-64
2.46896e-64
2.44653e-64
2.41965e-64
2.39913e-64
2.49184e-64
2.44803e-64
2.46014e-64
2.44116e-64
2.40379e-64
2.43055e-64
2.47565e-64
2.42836e-64
2.513e-64
2.43002e-64
2.47133e-64
2.47993e-64
2.4489e-64
2.4851e-64
2.4928e-64
2.29978e-64
2.29933e-64
2.29822e-64
2.32733e-64
2.33443e-64
2.33394e-64
2.28649e-64
2.32779e-64
2.35886e-64
2.29672e-64
2.33998e-64
2.35406e-64
2.28186e-64
2.36719e-64
2.35471e-64
2.39985e-64
2.33337e-64
2.36153e-64
2.33354e-64
2.38608e-64
1.55307e-64
1.5653e-64
1.56105e-64
1.54661e-64
1.56513e-64
1.55956e-64
1.56638e-64
1.56304e-64
1.55841e-64
1.58252e-64
1.54789e-64
1.58647e-64
1.54869e-64
1.60141e-64
1.5526e-64
1.55472e-64
1.56079e-64
1.59083e-64
1.56636e-64
1.60319e-64
3.53641e-78
3.48973e-78
3.5263e-78
3.45856e-78
3.48321e-78
3.51557e-78
3.50689e-78
3.41892e-78
3.45103e-78
3.53937e-78
3.4706e-78
3.54479e-78
3.47535e-78
3.54053e-78
3.44409e-78
3.56459e-78
3.43444e-78
3.47756e-78
3.48134e-78
3.39942e-78
1.76384e-75
1.74081e-75
1.75871e-75
1.72561e-75
1.73718e-75
1.75382e-75
1.74932e-75
1.70571e-75
1.72167e-75
1.76567e-75
1.73152e-75
1.7681e-75
1.73414e-75
1.7663e-75
1.71842e-75
1.77813e-75
1.71375e-75
1.73513e-75
1.73652e-75
1.6961e-75
4.43771e-73
4.38045e-73
4.42459e-73
4.34303e-73
4.37036e-73
4.41348e-73
4.40172e-73
4.29268e-73