/*--------------------------------*- C++ -*----------------------------------*\
| =========                 |                                                 |
| \\      /  F ield         | OpenFOAM: The Open Source CFD Toolbox           |
|  \\    /   O peration     | Version:  2212                                  |
|   \\  /    A nd           | Website:  www.openfoam.com                      |
|    \\/     M anipulation  |                                                 |
\*---------------------------------------------------------------------------*/
FoamFile
{
    version     2.0;
    format      ascii;
    arch        "LSB;label=32;scalar=64";
    class       surfaceScalarField;
    location    "0.0327";
    object      phi;
}
// * * * * * * * * * * * * * * * * * * * * * * * * * * * * * * * * * * * * * //

dimensions      [1 0 -1 0 0 0 0];

oriented        oriented;

internalField   nonuniform List<scalar> 
4475
(
1.40039e-05
-1.27373e-05
1.93455e-05
-2.02272e-05
2.50437e-07
-1.83092e-06
7.98294e-08
1.69644e-06
3.1994e-05
-3.63336e-05
3.77571e-06
6.21975e-07
-5.41354e-06
1.68689e-05
4.46141e-06
-1.58463e-05
-1.64867e-05
1.50559e-05
1.59993e-05
-1.42796e-05
1.43771e-05
-1.12159e-05
-1.60653e-05
1.31189e-05
-4.21248e-06
3.71649e-06
2.17746e-05
-2.10301e-05
-1.28494e-05
-1.71987e-05
1.5454e-05
1.48349e-05
1.55564e-05
-1.70567e-05
-1.46845e-05
-1.90863e-05
-2.25145e-07
2.20177e-06
1.71298e-05
-3.06984e-06
2.65651e-06
-1.86399e-05
-2.01629e-05
3.03586e-06
-1.78463e-06
1.89647e-05
-2.04071e-05
1.02287e-06
-7.09563e-07
-2.0517e-05
5.45297e-07
-3.49643e-07
-2.04559e-05
3.51927e-07
-3.11012e-07
-2.01941e-05
2.61633e-07
-4.07349e-07
3.17748e-07
-1.93081e-05
-1.07718e-06
1.8914e-05
-1.56097e-06
-1.83068e-05
1.07553e-06
2.02615e-05
-9.10653e-07
2.05593e-05
7.92385e-08
2.06015e-05
4.11726e-07
2.05656e-05
6.66994e-07
2.06545e-05
1.00443e-06
2.25828e-05
1.16543e-06
1.98508e-05
-2.96856e-07
1.8787e-05
8.62057e-07
2.37334e-05
2.97854e-06
-7.90954e-06
2.25244e-05
1.8223e-07
1.03394e-06
2.25264e-05
-2.22331e-05
-4.20138e-06
-1.87269e-05
-2.00698e-06
2.22387e-05
4.97448e-08
2.35054e-07
2.21418e-05
1.18885e-08
7.85083e-08
2.21497e-05
-2.56026e-08
7.37766e-09
2.21529e-05
3.71809e-09
-1.85985e-08
2.22132e-05
-6.92607e-08
-3.22213e-09
2.22401e-05
-4.21669e-08
2.45703e-09
2.22866e-05
-5.68796e-08
-3.41984e-09
2.23466e-05
-9.41228e-08
1.89185e-08
2.24197e-05
-1.23298e-07
3.25025e-08
2.24707e-05
-9.75602e-08
2.52854e-08
2.25465e-05
-1.25855e-07
2.35455e-08
2.26009e-05
-1.2665e-07
3.85689e-08
2.26302e-05
-1.23186e-07
5.0693e-08
2.26879e-05
-1.69593e-07
5.65439e-08
-2.45767e-07
2.28303e-05
3.27951e-08
-2.26735e-05
2.26736e-05
-3.13744e-07
-2.26464e-05
-2.49918e-07
-2.25294e-05
-2.81431e-07
-2.24845e-05
-2.03535e-07
-2.24122e-05
-2.2309e-07
-2.23178e-05
-2.1186e-07
-2.22023e-05
-2.55038e-07
-2.22384e-05
-7.19498e-08
-2.21617e-05
-1.45968e-07
-2.20818e-05
-1.33477e-07
-2.21248e-05
-3.70234e-08
-2.20894e-05
-4.08325e-08
-2.21214e-05
-2.15025e-09
-2.21646e-05
4.97722e-08
-2.2482e-05
3.66521e-07
-2.35992e-05
1.30599e-06
-1.84789e-05
4.11952e-06
-9.2265e-06
-1.92975e-05
3.04013e-06
-1.85841e-05
1.97001e-06
-1.89356e-05
7.2709e-07
-3.41142e-07
-2.02086e-05
-4.62782e-07
-2.04431e-05
-4.07497e-07
-2.0508e-05
-1.99541e-07
-2.04255e-05
-2.91287e-07
-2.0049e-05
-6.66027e-07
-1.97948e-05
-1.19852e-06
-1.64833e-07
4.42357e-08
2.28623e-05
-3.65864e-07
2.27891e-05
2.034e-05
-1.80731e-06
-1.9305e-05
2.05894e-05
-4.83318e-08
2.06831e-05
4.20553e-07
2.07086e-05
7.26545e-07
2.09726e-05
8.08857e-07
2.13965e-05
7.94338e-07
2.06657e-05
4.71499e-07
2.06934e-05
8.58965e-07
2.22063e-05
1.47994e-06
2.23224e-05
9.23443e-07
2.21662e-05
3.89757e-07
2.21085e-05
1.29761e-07
2.20941e-05
1.15897e-08
2.21265e-05
-6.19421e-08
2.21635e-05
-5.16717e-08
2.21797e-05
-2.55977e-08
2.22471e-05
-8.33654e-08
2.22975e-05
-4.52196e-08
2.23575e-05
-4.31721e-08
2.24128e-05
-4.90461e-08
2.25027e-05
-9.02936e-08
2.25719e-05
-6.14758e-08
2.26493e-05
-6.69329e-08
2.27122e-05
-5.8686e-08
2.27569e-05
-7.87893e-08
-2.1707e-06
-1.83253e-05
2.32825e-06
-1.28733e-07
2.28451e-05
-3.75862e-06
-1.70004e-05
-1.92473e-05
-2.40909e-06
-2.25807e-05
2.26974e-05
-5.58539e-07
-2.25625e-05
-3.91191e-07
-2.24282e-05
-4.29542e-07
-2.2418e-05
-3.25812e-07
-2.231e-05
-3.37044e-07
-2.22172e-05
-3.35109e-07
-2.21495e-05
-2.94341e-07
-2.2175e-05
-2.41377e-07
-2.20432e-05
-2.13483e-07
-2.19847e-05
-2.13173e-07
-2.20099e-05
-1.1639e-07
-2.19702e-05
-8.42e-08
-2.19674e-05
-5.03196e-08
-2.19867e-05
1.11086e-08
-2.20989e-05
1.59979e-07
-2.22256e-05
4.93919e-07
-2.21358e-05
1.2222e-06
-2.02778e-05
2.27371e-06
-1.94568e-05
2.23857e-06
-1.92982e-05
1.83855e-06
-1.94491e-05
9.15358e-07
-2.00194e-05
1.58782e-07
-2.0355e-05
-6.06113e-09
-2.04509e-05
-2.03091e-08
-2.05028e-05
-1.38672e-07
-2.03749e-05
-6.75517e-07
-2.00532e-05
-1.38444e-06
-1.51767e-05
2.27388e-05
-2.01129e-05
9.37409e-06
-1.75048e-05
-5.9838e-06
1.42727e-05
-1.15536e-05
-1.03203e-05
1.28024e-05
9.21404e-06
1.23425e-05
2.26545e-05
1.8191e-06
-3.7616e-06
-2.05264e-05
2.08185e-05
1.91771e-07
2.07389e-05
1.57889e-07
2.07157e-05
5.43147e-07
2.08138e-05
7.08662e-07
2.09535e-05
7.32925e-07
2.11249e-05
6.71407e-07
2.10352e-05
5.95703e-07
2.11462e-05
7.70895e-07
2.17046e-05
9.34731e-07
2.19425e-05
6.90567e-07
2.19758e-05
3.54733e-07
2.19789e-05
1.20372e-07
2.20105e-05
-2.74794e-08
2.20012e-05
-6.15579e-08
2.2039e-05
-9.84362e-08
2.21039e-05
-9.93946e-08
2.211e-05
-9.84471e-08
2.21584e-05
-1.02854e-07
2.22122e-05
-1.07448e-07
2.23292e-05
-1.79085e-07
2.23793e-05
-1.57844e-07
2.24398e-05
-1.45663e-07
2.25485e-05
-2.07865e-07
2.26649e-05
-2.18494e-07
2.27179e-05
-1.89281e-07
2.27348e-05
-2.19925e-07
1.07509e-07
2.28173e-05
-2.84037e-07
-1.67171e-08
2.2864e-05
-1.46793e-07
2.28831e-05
-3.15737e-07
2.28521e-05
-1.45808e-05
1.44407e-05
-1.67645e-05
2.27509e-05
-4.64618e-07
-1.89344e-05
-1.71714e-05
2.13201e-05
-1.4806e-05
2.27197e-05
1.20003e-05
-1.96152e-05
-4.60023e-06
-1.82495e-05
1.80292e-05
-1.40384e-05
1.84688e-05
-2.2128e-05
1.57633e-05
1.52696e-05
-1.56825e-05
-2.291e-05
-1.34039e-08
4.78238e-06
-1.99922e-05
-2.31867e-06
2.30317e-07
-3.53614e-07
2.28243e-05
5.9332e-08
2.29066e-05
-1.00736e-07
2.29106e-05
-3.2399e-07
2.29463e-05
-5.21492e-07
2.28311e-05
-2.26426e-05
-6.87926e-07
2.27101e-05
-2.24608e-05
-7.24971e-07
-2.24731e-05
-6.06912e-07
-2.23089e-05
-6.00725e-07
-2.23026e-05
-4.68624e-07
-2.21863e-05
-4.64931e-07
-2.20866e-05
-4.52034e-07
-2.19667e-05
-4.64967e-07
-2.18958e-05
-3.71792e-07
-2.18616e-05
-2.80053e-07
-2.18202e-05
-2.58182e-07
-2.1809e-05
-2.274e-07
-2.17574e-05
-1.70811e-07
-2.17387e-05
-1.05841e-07
-2.1733e-05
-5.85827e-08
-2.17243e-05
1.42588e-09
-2.17731e-05
2.07806e-07
-2.173e-05
4.53141e-07
-2.14272e-05
9.25468e-07
-2.059e-05
1.44812e-06
-2.00746e-05
1.74154e-06
-1.95795e-05
1.37022e-06
-1.96384e-05
1.01071e-06
-1.99607e-05
5.28758e-07
-2.01732e-05
2.71519e-07
-2.03715e-05
2.58669e-07
-2.04778e-05
6.36638e-08
-2.06086e-05
-4.30207e-07
-1.28823e-06
-2.05724e-05
1.98142e-06
-1.66236e-06
-2.06483e-05
2.05374e-05
1.92187e-05
-2.50174e-05
2.19158e-05
-1.57728e-05
1.5178e-05
-1.43888e-05
1.54826e-05
1.92495e-05
1.37993e-06
2.36619e-06
2.05168e-05
3.41655e-06
-4.4589e-06
2.10053e-05
3.45751e-06
2.09864e-05
2.94594e-06
-2.7057e-06
2.08689e-05
2.30063e-06
2.10455e-05
1.88054e-06
-1.87466e-06
2.15464e-05
1.48176e-06
2.10664e-05
8.08909e-07
2.08385e-05
4.97944e-07
2.07907e-05
6.85214e-07
2.08604e-05
7.14004e-07
2.09273e-05
7.24369e-07
2.10522e-05
5.90515e-07
2.10555e-05
6.23675e-07
2.11963e-05
6.50706e-07
2.14853e-05
6.57055e-07
2.16697e-05
5.09878e-07
2.17194e-05
3.04224e-07
2.17299e-05
1.04319e-07
2.17932e-05
-9.66049e-08
2.17839e-05
-5.81282e-08
2.18397e-05
-1.59229e-07
2.18616e-05
-1.2523e-07
2.19006e-05
-1.40396e-07
2.19392e-05
-1.43592e-07
2.20758e-05
-2.46556e-07
2.21182e-05
-2.2572e-07
2.21677e-05
-2.1476e-07
2.23093e-05
-2.99884e-07
2.24446e-05
-3.63264e-07
2.25078e-05
-3.11633e-07
2.26053e-05
-3.29489e-07
2.26953e-05
-3.68181e-07
2.27643e-05
-4.29798e-07
-5.38179e-07
2.28512e-05
-6.76018e-07
3.41333e-05
-2.66958e-05
-6.78164e-06
-1.69427e-05
1.64282e-05
-1.86137e-05
1.83144e-05
6.01535e-06
-5.40933e-06
-1.11775e-06
1.35007e-05
1.12052e-06
-1.34819e-05
-1.82841e-05
-3.64064e-06
5.27497e-06
1.67667e-05
-1.84578e-05
-1.3171e-05
-4.10883e-06
-2.03093e-05
-2.00871e-05
-2.3105e-06
2.09423e-05
-2.2305e-05
2.24374e-05
-8.94298e-07
-2.23044e-05
-7.81562e-07
-2.21335e-05
-8.18016e-07
-2.21507e-05
-6.10402e-07
-2.20176e-05
-6.17699e-07
-2.19144e-05
-5.75862e-07
-2.18206e-05
-5.47563e-07
-2.17559e-05
-5.27431e-07
-2.17077e-05
-4.15777e-07
-2.1612e-05
-3.70492e-07
-2.15544e-05
-3.10644e-07
-2.15201e-05
-2.57008e-07
-2.14581e-05
-2.28997e-07
-2.14586e-05
-1.02574e-07
-2.1443e-05
-7.20749e-08
-2.147e-05
2.78949e-08
-2.13999e-05
1.39527e-07
-2.13084e-05
3.6586e-07
-2.10392e-05
6.62814e-07
-2.05809e-05
1.00019e-06
-2.01203e-05
1.29765e-06
-1.97379e-05
1.01208e-06
-1.9733e-05
1.03981e-06
-1.99242e-05
7.65637e-07
-2.00929e-05
4.99205e-07
-2.02621e-05
5.01999e-07
-2.04257e-05
3.20264e-07
-2.05506e-05
-1.97561e-07
-2.09187e-05
-7.94028e-07
-2.03996e-06
-2.06987e-05
-1.58533e-05
-1.54564e-05
1.75733e-05
-6.25099e-06
-2.11919e-05
2.04816e-05
7.26306e-06
2.0198e-05
2.99728e-06
-2.1537e-05
2.06292e-05
3.22858e-06
2.08802e-05
3.43191e-06
2.08806e-05
3.15369e-06
2.08988e-05
2.46882e-06
2.09971e-05
1.94851e-06
2.11165e-05
1.50894e-06
2.09689e-05
1.08069e-06
2.07515e-05
8.17676e-07
2.07794e-05
7.39373e-07
2.07699e-05
7.8879e-07
2.0868e-05
6.76608e-07
2.09211e-05
5.74723e-07
2.09828e-05
5.87567e-07
2.10954e-05
5.53839e-07
2.12534e-05
5.07435e-07
2.13844e-05
3.81527e-07
2.14892e-05
1.97861e-07
2.15673e-05
1.98728e-08
2.15339e-05
-6.57981e-08
2.15913e-05
-1.16947e-07
2.15621e-05
-1.29495e-07
2.15906e-05
-1.50962e-07
2.1623e-05
-1.67552e-07
2.17666e-05
-2.80193e-07
2.18044e-05
-2.76501e-07
2.1846e-05
-2.5994e-07
2.19901e-05
-3.53408e-07
2.21382e-05
-4.46261e-07
2.21875e-05
-4.16748e-07
2.22691e-05
-4.05564e-07
2.24053e-05
-4.88947e-07
2.24992e-05
-4.99115e-07
2.26128e-05
-5.96786e-07
2.26689e-05
-6.66363e-07
6.1288e-07
-7.71845e-07
2.27352e-05
4.41618e-07
2.29019e-05
2.77339e-07
2.28482e-05
9.67928e-08
2.29338e-05
-1.80388e-07
2.30297e-05
-3.14587e-07
2.29265e-05
-4.75096e-07
2.28503e-05
-6.59551e-07
2.27733e-05
2.25657e-05
-8.81774e-07
-2.02924e-05
-6.40537e-06
8.3431e-06
-1.92572e-06
3.04936e-06
-3.14504e-05
3.04123e-05
-7.72641e-06
6.77773e-06
-6.44059e-06
7.3816e-06
-2.25115e-05
-1.25061e-05
1.72636e-05
1.9765e-05
-2.26309e-05
-5.08363e-06
8.30978e-06
1.03715e-05
-2.10253e-05
-1.78653e-06
-3.2269e-06
-2.14038e-05
-1.38655e-05
-1.69216e-05
1.52162e-05
-1.81196e-05
-1.08393e-05
6.77912e-06
-2.37391e-05
1.29722e-05
-1.4861e-05
2.59647e-05
1.47442e-05
1.64731e-05
2.0224e-05
-2.0091e-05
3.1059e-06
2.01446e-05
3.53648e-06
2.03769e-05
3.40714e-06
2.05411e-05
3.17719e-06
2.0647e-05
2.52957e-06
2.07375e-05
2.00479e-06
2.07742e-05
1.59947e-06
2.07236e-05
1.23723e-06
2.06436e-05
9.82573e-07
2.06086e-05
8.41837e-07
2.06691e-05
7.80011e-07
2.07036e-05
6.79295e-07
2.07343e-05
5.69993e-07
2.08021e-05
5.36479e-07
2.08826e-05
4.82465e-07
2.09871e-05
4.06204e-07
2.10909e-05
2.78162e-07
2.11723e-05
1.13185e-07
2.11809e-05
1.31742e-08
2.11826e-05
-6.59318e-08
2.11917e-05
-1.22059e-07
2.1225e-05
-1.55355e-07
2.12479e-05
-1.62609e-07
2.13771e-05
-2.81896e-07
2.14202e-05
-3.0532e-07
2.14284e-05
-2.6466e-07
2.15803e-05
-3.90692e-07
2.17311e-05
-4.83348e-07
2.17809e-05
-4.77205e-07
2.18572e-05
-4.7807e-07
2.20183e-05
-5.57822e-07
2.208e-05
-5.50557e-07
2.22164e-05
-6.46889e-07
2.23409e-05
-7.46391e-07
2.24306e-05
-7.97118e-07
2.24932e-05
-8.93128e-07
8.65729e-07
-9.98879e-07
2.25485e-05
6.90618e-07
2.27956e-05
5.7999e-07
2.28679e-05
2.53401e-07
2.30083e-05
2.29517e-09
2.30049e-05
-1.41613e-07
2.29885e-05
-3.38731e-07
2.29434e-05
-5.92032e-07
2.29368e-05
-7.42194e-07
2.27787e-05
-9.0931e-07
2.26176e-05
-2.21816e-05
2.22622e-05
-1.06906e-06
-2.21002e-05
-1.02417e-06
-2.20572e-05
-9.81561e-07
-2.19586e-05
-9.08932e-07
-2.1948e-05
-8.44179e-07
-2.17805e-05
-7.82349e-07
-2.16799e-05
-7.14144e-07
-2.15846e-05
-6.60685e-07
-2.14763e-05
-6.41418e-07
-2.14555e-05
-5.31455e-07
-2.13781e-05
-4.75774e-07
-2.13115e-05
-4.20146e-07
-2.12321e-05
-3.74442e-07
-2.12033e-05
-2.72131e-07
-2.11686e-05
-2.52015e-07
-2.11152e-05
-1.46379e-07
-2.1082e-05
-9.73717e-08
-2.10612e-05
1.48549e-08
-2.10189e-05
1.0123e-07
-2.09168e-05
2.69799e-07
-2.07269e-05
4.79314e-07
-2.04362e-05
7.19064e-07
-2.01622e-05
1.03744e-06
-1.98928e-05
7.62677e-07
-1.98617e-05
1.03683e-06
-1.98536e-05
7.95813e-07
-1.99563e-05
6.53143e-07
-2.00849e-05
6.95494e-07
-2.02633e-05
5.7843e-07
-2.05955e-05
2.35469e-07
-4.89699e-07
-2.07837e-05
-1.67345e-05
-1.60312e-05
1.76285e-05
-2.70971e-06
-2.13792e-05
-2.39067e-05
-3.118e-06
5.83158e-06
-1.34477e-06
-1.3355e-05
-1.83386e-05
2.00168e-05
-1.88944e-05
-1.1627e-05
1.87355e-05
-1.08995e-05
-1.02944e-05
1.61433e-05
-1.77723e-05
-6.81243e-06
1.86629e-05
2.83371e-06
7.30293e-08
1.99221e-05
2.52084e-06
-1.93736e-05
1.95734e-05
3.6872e-06
1.95477e-05
3.77412e-06
1.96664e-05
3.47643e-06
1.99766e-05
3.03246e-06
2.01538e-05
2.49644e-06
2.03047e-05
1.97829e-06
2.03258e-05
1.68351e-06
2.03405e-05
1.30758e-06
2.03251e-05
1.06308e-06
2.03242e-05
8.91217e-07
2.03744e-05
7.63999e-07
2.04007e-05
6.7581e-07
2.04246e-05
5.58257e-07
2.04669e-05
5.00521e-07
2.0533e-05
4.19086e-07
2.06163e-05
3.22417e-07
2.0663e-05
2.29744e-07
2.07127e-05
6.10428e-08
2.07298e-05
-1.92069e-10
2.07424e-05
-7.22404e-08
2.07634e-05
-1.32577e-07
2.08036e-05
-1.80244e-07
2.0889e-05
-2.27265e-07
2.093e-05
-2.97278e-07
2.09329e-05
-2.78143e-07
2.10917e-05
-3.89573e-07
2.12259e-05
-4.88134e-07
2.12648e-05
-4.8403e-07
2.133e-05
-5.04232e-07
2.14839e-05
-5.95474e-07
2.15405e-05
-5.8185e-07
2.17087e-05
-6.92434e-07
2.18536e-05
-7.73892e-07
2.19204e-05
-8.06156e-07
2.20333e-05
-9.15537e-07
2.21312e-05
-1.0111e-06
2.22061e-05
-1.10953e-06
1.13687e-06
2.22393e-05
-1.22276e-06
1.01115e-06
2.25763e-05
8.25461e-07
2.28436e-05
5.92271e-07
2.29315e-05
4.30652e-07
2.29765e-05
1.31658e-07
2.30957e-05
-1.42058e-07
2.30495e-05
-4.26896e-07
2.30207e-05
-6.10874e-07
2.29279e-05
-8.40491e-07
2.28393e-05
-9.6957e-07
2.26097e-05
-1.1053e-06
2.22998e-05
-2.1797e-05
2.18525e-05
-1.21511e-06
-2.17316e-05
-1.17327e-06
-2.16562e-05
-1.12366e-06
-2.15907e-05
-1.05743e-06
-2.15092e-05
-9.8869e-07
-2.14199e-05
-9.21188e-07
-2.13371e-05
-8.44555e-07
-2.12487e-05
-7.75848e-07
-2.11703e-05
-7.08468e-07
-2.11234e-05
-6.5564e-07
-2.10146e-05
-6.0711e-07
-2.0966e-05
-4.92293e-07
-2.09093e-05
-4.4674e-07
-2.08614e-05
-3.95073e-07
-2.07921e-05
-3.17582e-07
-2.07617e-05
-2.62015e-07
-2.06961e-05
-1.9502e-07
-2.0696e-05
-8.35187e-08
-2.06389e-05
-2.98889e-08
-2.0592e-05
6.0584e-08
-2.05076e-05
1.90237e-07
-2.03688e-05
3.48169e-07
-2.01868e-05
5.45172e-07
-1.99083e-05
7.69431e-07
-1.986e-05
7.29255e-07
-1.97116e-05
9.08606e-07
-1.97164e-05
8.29665e-07
-1.97172e-05
6.93247e-07
-1.97841e-05
8.15478e-07
-1.99115e-05
7.75042e-07
-2.01333e-05
5.42998e-07
-3.96709e-09
-2.05178e-05
-2.09927e-05
-1.44181e-06
-1.56049e-05
-1.77392e-05
-1.627e-05
-1.79382e-05
1.85086e-05
6.37417e-06
9.23618e-06
-1.18341e-05
-3.79348e-06
-2.10603e-05
-2.48943e-06
-1.78194e-05
-6.43574e-06
3.35522e-06
-1.9088e-05
-8.73302e-06
-1.9204e-05
-1.04601e-05
-3.3762e-07
-7.1195e-06
-1.6277e-05
-7.98651e-06
-1.72857e-05
1.33782e-06
-2.14684e-05
-2.84277e-06
-1.35607e-05
-1.83938e-05
-1.81384e-05
-1.23512e-05
1.27717e-06
-1.32878e-06
2.22212e-05
1.10885e-06
2.26264e-05
9.35879e-07
2.28558e-05
7.28294e-07
2.29442e-05
4.38591e-07
2.3046e-05
2.02954e-07
2.30951e-05
-1.16949e-07
2.31282e-05
-3.70406e-07
2.30388e-05
-6.48781e-07
2.29869e-05
-8.37608e-07
2.28346e-05
-9.9792e-07
2.2611e-05
-1.15297e-06
2.23375e-05
-1.29684e-06
2.19263e-05
-2.13028e-05
-1.36713e-06
2.1354e-05
-2.11998e-05
-1.32517e-06
-2.11403e-05
-1.22797e-06
-2.10551e-05
-1.19298e-06
-2.09969e-05
-1.08957e-06
-2.09237e-05
-1.02706e-06
-2.08313e-05
-9.71627e-07
-2.07606e-05
-8.67971e-07
-2.06708e-05
-8.14839e-07
-2.06088e-05
-7.18167e-07
-2.05502e-05
-6.62023e-07
-2.05025e-05
-6.04183e-07
-2.04032e-05
-5.43789e-07
-2.0356e-05
-4.4982e-07
-2.03107e-05
-4.00714e-07
-2.02422e-05
-3.5139e-07
-2.02117e-05
-2.62843e-07
-2.01822e-05
-1.99846e-07
-2.01152e-05
-1.30241e-07
-2.00906e-05
-3.82293e-08
-2.00483e-05
2.98529e-08
-1.99819e-05
1.30996e-07
-1.98848e-05
2.56591e-07
-1.97439e-05
4.10061e-07
-1.95495e-05
5.80947e-07
-1.93637e-05
5.52937e-07
-1.93962e-05
9.52553e-07
-1.92647e-05
7.15216e-07
-1.93535e-05
8.07662e-07
-1.93022e-05
8.00748e-07
-1.93456e-05
8.70088e-07
-1.95537e-05
8.16499e-07
5.75263e-07
-2.0046e-05
-9.96239e-07
-2.08397e-05
1.60538e-05
-1.29915e-05
-1.71722e-05
-1.41369e-05
-1.94984e-05
1.05402e-05
-2.37705e-06
3.54401e-06
-1.16348e-05
1.74769e-05
2.12058e-07
-1.72326e-05
-3.85263e-07
1.83364e-05
4.21305e-06
-1.86376e-05
1.85386e-05
3.76718e-06
1.88683e-05
3.31236e-06
1.92025e-05
2.83801e-06
1.9431e-05
2.38595e-06
1.96121e-05
1.89624e-06
1.97101e-05
1.66566e-06
1.97731e-05
1.30587e-06
1.98076e-05
1.07268e-06
1.98349e-05
8.94154e-07
1.98642e-05
7.52685e-07
1.99163e-05
6.32288e-07
1.99407e-05
5.3499e-07
1.99763e-05
4.61056e-07
2.00173e-05
3.72296e-07
2.00634e-05
2.72085e-07
2.01334e-05
1.56831e-07
2.01314e-05
6.52572e-08
2.01461e-05
-8.58591e-09
2.01637e-05
-7.85233e-08
2.019e-05
-1.41575e-07
2.0232e-05
-1.98448e-07
2.02906e-05
-2.55318e-07
2.03446e-05
-3.1428e-07
2.047e-05
-3.60353e-07
2.05202e-05
-3.91148e-07
2.05958e-05
-5.10523e-07
2.06667e-05
-4.98138e-07
2.08014e-05
-5.80006e-07
2.08603e-05
-5.95025e-07
2.10095e-05
-6.72913e-07
2.11574e-05
-7.85594e-07
2.12122e-05
-7.79422e-07
2.1322e-05
-8.74005e-07
2.14436e-05
-1.0044e-06
2.15678e-05
-1.11335e-06
2.16351e-05
-1.16706e-06
2.16967e-05
-1.28754e-06
2.17183e-05
-1.36746e-06
-1.61744e-05
-1.92321e-05
1.94729e-05
-1.72645e-05
-1.80848e-05
3.60844e-05
-1.70173e-06
2.61688e-06
-3.70142e-05
-1.8244e-05
-3.38403e-06
-1.40927e-05
-2.06524e-05
-3.07685e-06
-2.0478e-05
2.05293e-05
-1.38435e-06
-2.04362e-05
-1.32449e-06
-2.03376e-05
-1.27615e-06
-2.02939e-05
-1.17895e-06
-2.01941e-05
-1.12512e-06
-2.01386e-05
-1.01323e-06
-2.00749e-05
-9.62294e-07
-1.99745e-05
-8.93203e-07
-1.99248e-05
-7.88788e-07
-1.98263e-05
-7.41934e-07
-1.97756e-05
-6.405e-07
-1.97158e-05
-5.95322e-07
-1.96638e-05
-5.31837e-07
-1.95851e-05
-4.70181e-07
-1.95442e-05
-3.89267e-07
-1.95088e-05
-3.4099e-07
-1.94523e-05
-2.80217e-07
-1.94117e-05
-2.07683e-07
-1.93788e-05
-1.36582e-07
-1.93323e-05
-6.3673e-08
-1.92973e-05
1.41496e-08
-1.92466e-05
9.13846e-08
-1.91741e-05
1.89336e-07
-1.90666e-05
3.04503e-07
-1.89227e-05
4.38107e-07
-1.89213e-05
5.51136e-07
-1.86872e-05
7.19909e-07
-1.85961e-05
6.29598e-07
-1.85869e-05
8.08135e-07
-1.85818e-05
8.16609e-07
-1.85316e-05
8.51653e-07
-1.86174e-05
9.46781e-07
-1.91027e-05
1.13006e-06
-3.20188e-07
-2.06129e-05
1.49542e-05
-1.21207e-05
1.34833e-05
-2.02405e-05
-1.20078e-05
1.4358e-06
-1.4584e-06
2.171e-05
1.33109e-06
2.2239e-05
1.18344e-06
2.26355e-05
1.03432e-06
2.28215e-05
7.62415e-07
2.29962e-05
4.42888e-07
2.31185e-05
1.61038e-07
2.31136e-05
-6.54848e-08
2.30858e-05
-3.81713e-07
2.30922e-05
-6.30346e-07
2.29899e-05
-8.51857e-07
2.2838e-05
-1.09098e-06
2.2669e-05
-1.25816e-06
2.23682e-05
-1.36683e-06
2.19491e-05
-1.44131e-06
2.13971e-05
-1.50666e-06
2.06202e-05
1.92359e-05
-1.27615e-05
-1.91747e-05
1.9156e-05
-1.13847e-05
1.83129e-05
-9.27993e-06
1.74784e-05
-7.58005e-06
-6.41987e-06
-1.46299e-05
1.40245e-05
1.55938e-05
-6.23212e-06
-2.22894e-05
-4.6968e-06
4.64231e-06
4.20609e-07
-2.50034e-07
-4.3597e-06
-1.32751e-05
1.22786e-05
1.67209e-05
3.76106e-06
-1.60735e-05
1.7297e-05
3.35993e-06
1.77909e-05
2.95883e-06
1.81772e-05
2.56423e-06
1.84944e-05
2.15959e-06
1.86571e-05
1.80512e-06
1.88661e-05
1.51038e-06
1.89672e-05
1.24177e-06
1.90374e-05
1.02531e-06
1.90893e-05
8.53118e-07
1.91311e-05
7.11978e-07
1.91643e-05
5.93917e-07
1.91979e-05
4.91951e-07
1.9235e-05
4.12728e-07
1.92797e-05
3.18164e-07
1.93117e-05
2.31896e-07
1.93265e-05
1.3834e-07
1.93385e-05
5.73243e-08
1.93535e-05
-1.43491e-08
1.93734e-05
-8.21735e-08
1.94016e-05
-1.45746e-07
1.94411e-05
-2.0582e-07
1.94915e-05
-2.65288e-07
1.95502e-05
-3.24439e-07
1.96261e-05
-3.7985e-07
1.97315e-05
-4.32783e-07
1.97881e-05
-4.96909e-07
1.99015e-05
-5.35782e-07
1.99731e-05
-5.71403e-07
2.01041e-05
-6.42949e-07
2.02517e-05
-7.3592e-07
2.02873e-05
-7.37121e-07
2.04405e-05
-8.50886e-07
2.05851e-05
-9.40551e-07
2.06931e-05
-1.03985e-06
2.07314e-05
-1.08606e-06
2.08275e-05
-1.20583e-06
2.09022e-05
-1.31418e-06
2.09425e-05
-1.36971e-06
2.09786e-05
-1.46676e-06
2.37752e-06
3.63442e-05
-2.63928e-06
-2.68618e-06
-2.05005e-05
-1.27709e-05
7.00984e-06
-1.56633e-05
-2.08598e-05
2.06845e-05
-1.56282e-05
-2.08056e-05
-1.7801e-05
-1.9181e-05
-3.67042e-05
-5.36663e-06
4.03558e-05
2.57952e-05
-2.23343e-06
-2.42554e-05
1.70311e-05
-2.83413e-06
-2.10069e-05
2.02206e-06
-2.13521e-05
1.64403e-05
1.19502e-05
-1.25552e-05
-7.21427e-06
-2.23637e-05
9.51425e-06
5.94995e-06
-1.007e-05
-7.53911e-06
1.177e-05
-1.67967e-06
-3.28751e-05
-9.53187e-07
3.55287e-05
-1.94896e-05
1.95243e-05
-1.45848e-06
-1.94249e-05
-1.36131e-06
-1.93412e-05
-1.3159e-06
-1.929e-05
-1.23088e-06
-1.92062e-05
-1.16264e-06
-1.91563e-05
-1.07238e-06
-1.90526e-05
-1.0127e-06
-1.89926e-05
-9.18045e-07
-1.89333e-05
-8.49169e-07
-1.88455e-05
-7.75721e-07
-1.87879e-05
-7.02329e-07
-1.87018e-05
-6.34254e-07
-1.86403e-05
-5.70428e-07
-1.85832e-05
-5.09075e-07
-1.85341e-05
-4.46652e-07
-1.84754e-05
-3.83161e-07
-1.84332e-05
-3.26451e-07
-1.8397e-05
-2.67806e-07
-1.83576e-05
-2.06467e-07
-1.83148e-05
-1.46625e-07
-1.82827e-05
-7.02989e-08
-1.82418e-05
-7.54237e-09
-1.82009e-05
6.06866e-08
-1.81489e-05
1.42276e-07
-1.8067e-05
2.21021e-07
-1.79441e-05
3.10393e-07
-1.78468e-05
4.45533e-07
-1.77772e-05
6.41315e-07
-1.7691e-05
5.36842e-07
-1.76137e-05
7.25524e-07
-1.75472e-05
7.52786e-07
-1.75128e-05
8.29304e-07
-1.75489e-05
1.00651e-06
-1.75635e-05
1.18854e-06
1.90991e-06
-1.74004e-05
1.83429e-05
-1.09757e-05
-2.28801e-05
1.9491e-05
-8.97914e-06
1.53763e-05
-9.76623e-06
-2.81154e-05
1.57786e-06
-1.55952e-06
2.09777e-05
1.54653e-06
2.16969e-05
1.41597e-06
2.22659e-05
1.2784e-06
2.26149e-05
1.04962e-06
2.28448e-05
7.86864e-07
2.30148e-05
5.51959e-07
2.30807e-05
2.77577e-07
2.30981e-05
-7.18141e-08
2.31395e-05
-3.549e-07
2.30858e-05
-6.26176e-07
2.299e-05
-9.02986e-07
2.28729e-05
-1.12493e-06
2.26881e-05
-1.29363e-06
2.23816e-05
-1.44015e-06
2.1994e-05
-1.52621e-06
2.14396e-05
-1.52531e-06
2.06364e-05
-1.50737e-06
1.95844e-05
-1.44913e-05
1.82785e-05
-9.95229e-06
1.70175e-05
-7.68414e-06
1.5889e-05
-6.13199e-06
1.4611e-05
-4.8485e-06
-5.50967e-06
1.35987e-05
-1.76279e-07
-5.36403e-07
1.93028e-05
-2.34896e-05
1.47697e-05
3.76065e-06
-1.38626e-05
-4.48927e-06
1.53805e-05
3.30731e-06
1.59764e-05
2.9079e-06
1.65007e-05
2.5486e-06
1.69398e-05
2.20969e-06
1.72731e-05
1.88921e-06
1.75228e-05
1.60043e-06
1.772e-05
1.34114e-06
1.7851e-05
1.12429e-06
1.79462e-05
9.32308e-07
1.80164e-05
7.73825e-07
1.80669e-05
6.45472e-07
1.8105e-05
5.36072e-07
1.81355e-05
4.40167e-07
1.8167e-05
3.61232e-07
1.81909e-05
2.77101e-07
1.82149e-05
1.96834e-07
1.82298e-05
1.1953e-07
1.82447e-05
4.64099e-08
1.82611e-05
-1.89936e-08
1.82823e-05
-8.27354e-08
1.83117e-05
-1.44927e-07
1.835e-05
-2.03985e-07
1.8398e-05
-2.63272e-07
1.84539e-05
-3.20351e-07
1.85218e-05
-3.78337e-07
1.86021e-05
-4.34528e-07
1.86834e-05
-4.91206e-07
1.87825e-05
-5.40251e-07
1.89072e-05
-5.94799e-07
1.9025e-05
-6.5392e-07
1.90839e-05
-6.84183e-07
1.92328e-05
-7.72759e-07
1.93502e-05
-8.53836e-07
1.94756e-05
-9.51896e-07
1.95321e-05
-9.84179e-07
1.96568e-05
-1.10164e-06
1.97559e-05
-1.20002e-06
1.97857e-05
-1.24443e-06
1.98666e-05
-1.3572e-06
1.99008e-05
-1.41417e-06
1.99304e-05
-1.50922e-06
1.9698e-05
-1.23136e-05
-1.98523e-05
-3.00985e-06
-2.01562e-05
1.52012e-05
-1.96783e-05
-2.08816e-05
2.03667e-05
-1.23745e-05
1.32107e-05
-2.13029e-05
-1.33999e-05
1.4148e-05
-1.47635e-05
-2.18727e-05
-2.02298e-05
-3.18958e-06
-2.25893e-05
-2.10095e-05
-1.73166e-05
-2.04505e-05
-1.91953e-05
2.66397e-05
-2.63217e-05
-1.9767e-06
1.60464e-05
-9.67501e-06
8.70229e-06
-1.47927e-05
-2.65458e-05
2.48581e-05
-1.85178e-06
1.61271e-05
-1.0268e-05
1.52763e-05
5.21071e-07
-8.82362e-06
1.86661e-05
8.70787e-06
3.70331e-05
-3.59316e-05
1.50057e-06
2.10039e-06
3.73085e-05
1.59348e-05
1.27612e-06
1.59885e-05
1.14836e-06
1.60659e-05
9.27068e-07
1.61282e-05
7.5481e-07
1.62351e-05
6.29982e-07
1.6357e-05
5.85245e-07
1.63405e-05
5.30469e-07
1.65244e-05
4.38941e-07
1.66034e-05
3.5044e-07
1.66581e-05
2.43361e-07
1.67116e-05
1.63581e-07
1.67512e-05
1.06904e-07
1.67827e-05
4.35016e-08
1.68148e-05
-1.86998e-08
1.68547e-05
-8.07167e-08
1.68867e-05
-1.4004e-07
1.6927e-05
-1.9864e-07
1.69652e-05
-2.48401e-07
1.70123e-05
-3.06294e-07
1.70667e-05
-3.60764e-07
1.71205e-05
-4.14262e-07
1.71828e-05
-4.7624e-07
1.72467e-05
-5.30653e-07
1.73146e-05
-5.90728e-07
1.73896e-05
-6.58673e-07
1.74629e-05
-7.24137e-07
1.75368e-05
-7.92853e-07
1.762e-05
-8.66677e-07
1.76897e-05
-9.44766e-07
1.77589e-05
-1.00186e-06
1.78384e-05
-1.10137e-06
1.79009e-05
-1.15246e-06
1.79574e-05
-1.23212e-06
1.80339e-05
-1.29845e-06
1.80715e-05
-1.35788e-06
1.81379e-05
-1.43691e-06
2.71974e-06
3.72186e-05
-3.58166e-06
1.68657e-06
-1.60827e-06
1.99256e-05
1.6971e-06
2.09749e-05
1.61982e-06
2.1717e-05
1.51446e-06
2.22519e-05
1.36432e-06
2.25885e-05
1.1282e-06
2.28544e-05
9.07675e-07
2.29685e-05
6.25813e-07
2.30658e-05
2.81212e-07
2.31277e-05
-3.54566e-08
2.3135e-05
-3.46947e-07
2.30829e-05
-6.65787e-07
2.30135e-05
-9.5271e-07
2.28952e-05
-1.17401e-06
2.26859e-05
-1.37159e-06
2.24058e-05
-1.51946e-06
2.20252e-05
-1.57797e-06
2.1443e-05
-1.61396e-06
2.06811e-05
-1.55479e-06
1.95983e-05
-1.47368e-06
1.81924e-05
1.96356e-05
-1.06344e-05
-5.05827e-06
-1.91792e-05
-1.14587e-05
1.97236e-05
1.24138e-05
1.04029e-05
3.7901e-05
-2.928e-05
-1.90473e-05
6.68385e-06
-3.30071e-05
3.68277e-06
-3.40386e-05
1.80572e-06
-3.40793e-05
3.43927e-05
1.8228e-07
-3.27928e-05
3.5087e-05
7.93005e-07
3.57165e-05
1.47052e-06
-3.47025e-06
4.43162e-06
3.4769e-05
1.16727e-05
-5.45172e-06
2.17521e-06
3.48685e-05
-3.43616e-05
-2.6546e-06
7.14937e-06
1.50641e-05
-5.89301e-06
5.3945e-06
1.08821e-05
-1.28244e-05
-3.16122e-06
1.435e-05
-2.09805e-05
-1.13126e-05
2.02334e-05
-2.16574e-05
-1.24048e-05
-1.36353e-05
-2.24668e-05
-3.2843e-06
-1.96017e-05
1.92871e-05
-1.15046e-05
-1.97957e-05
3.27835e-06
-2.02682e-06
1.70471e-05
-7.15639e-06
1.54024e-05
-5.70887e-06
1.40446e-05
-4.46778e-06
1.33841e-05
-3.90892e-06
-3.91493e-06
1.2043e-05
-8.82428e-06
1.52432e-05
7.42381e-06
4.34762e-06
-1.72165e-06
-7.65925e-06
5.16192e-06
1.2345e-05
3.82758e-06
-4.6725e-06
-1.13315e-05
1.31151e-05
3.1364e-06
1.38081e-05
2.74772e-06
1.44168e-05
2.4157e-06
1.49286e-05
2.11876e-06
1.53576e-05
1.83662e-06
1.57085e-05
1.57509e-06
1.59852e-05
1.34272e-06
1.61914e-05
1.13821e-06
1.63501e-05
9.5598e-07
1.64588e-05
8.04118e-07
1.6539e-05
6.66683e-07
1.65951e-05
5.56974e-07
1.66341e-05
4.63144e-07
1.66623e-05
3.7962e-07
1.66907e-05
3.04275e-07
1.67097e-05
2.3441e-07
1.67273e-05
1.63591e-07
1.67422e-05
9.76325e-08
1.67595e-05
2.98189e-08
1.67762e-05
-2.21566e-08
1.67981e-05
-8.00456e-08
1.68309e-05
-1.41856e-07
1.68688e-05
-1.94324e-07
1.69193e-05
-2.54628e-07
1.69722e-05
-3.02664e-07
1.70387e-05
-3.62976e-07
1.71129e-05
-4.15952e-07
1.71985e-05
-4.73736e-07
1.72858e-05
-5.14868e-07
1.73991e-05
-5.86638e-07
1.75062e-05
-6.31716e-07
1.76444e-05
-6.86325e-07
1.7767e-05
-7.53677e-07
1.7881e-05
-8.21892e-07
1.79544e-05
-8.76422e-07
1.80589e-05
-9.38264e-07
1.81751e-05
-1.06678e-06
1.82293e-05
-1.10377e-06
1.83305e-05
-1.19666e-06
1.83998e-05
-1.27988e-06
1.84436e-05
-1.31434e-06
1.84967e-05
-1.42199e-06
1.85237e-05
-1.49828e-06
1.80882e-05
9.813e-06
-1.89415e-05
1.69079e-05
8.60411e-06
-5.84479e-06
7.61893e-06
1.54009e-05
-2.34108e-05
2.27783e-06
2.35245e-05
-2.28058e-06
1.30617e-05
-3.59321e-06
-3.64011e-06
-1.95544e-05
-1.22556e-06
3.21532e-05
1.14759e-06
6.0512e-06
1.1491e-05
-4.25424e-06
4.87033e-06
3.41532e-05
-6.97012e-06
-3.20011e-05
-2.16426e-05
-1.948e-05
-2.21493e-05
-1.64914e-05
-2.23691e-05
1.00371e-05
-1.96374e-05
1.84907e-05
2.05452e-05
-1.10516e-05
-2.15949e-05
1.95719e-05
3.65719e-05
-2.05925e-05
2.53558e-05
2.83743e-06
-1.50266e-06
-3.46042e-05
5.15673e-06
3.39002e-05
2.33416e-05
-2.12441e-05
-2.67963e-05
-1.28757e-05
-2.61324e-06
1.21662e-05
-4.13444e-06
-3.39501e-05
8.18329e-07
-3.30816e-05
-8.92916e-08
-3.15197e-05
-1.40326e-06
1.38148e-05
9.68269e-07
1.40651e-05
8.87472e-07
1.42007e-05
7.72407e-07
1.43007e-05
6.28391e-07
1.43757e-05
5.22043e-07
1.44882e-05
4.38235e-07
1.45562e-05
4.27983e-07
1.46594e-05
3.0508e-07
1.47033e-05
2.82185e-07
1.47399e-05
1.90659e-07
1.47619e-05
1.34056e-07
1.48069e-05
6.31483e-08
1.48423e-05
1.91178e-08
1.48811e-05
-3.51914e-08
1.49181e-05
-8.48476e-08
1.49553e-05
-1.33426e-07
1.49974e-05
-1.85914e-07
1.50445e-05
-2.29624e-07
1.50952e-05
-2.79935e-07
1.51514e-05
-3.28982e-07
1.52107e-05
-3.7485e-07
1.52725e-05
-4.28865e-07
1.53415e-05
-4.80258e-07
1.5416e-05
-5.35998e-07
1.54887e-05
-5.92856e-07
1.55665e-05
-6.54817e-07
1.56478e-05
-7.1906e-07
1.57274e-05
-7.83962e-07
1.58021e-05
-8.50893e-07
1.58948e-05
-9.20498e-07
1.59509e-05
-9.7899e-07
1.60259e-05
-1.04549e-06
1.61091e-05
-1.13026e-06
1.6169e-05
-1.17069e-06
1.62446e-05
-1.24344e-06
1.62934e-05
-1.29373e-06
1.63756e-05
-1.36184e-06
-1.09269e-05
-2.49836e-06
9.74127e-06
-1.19412e-05
-2.62411e-06
-1.30633e-05
-3.05136e-06
-1.47026e-05
-3.75369e-06
-1.68054e-05
-4.72493e-06
-1.95992e-05
-5.84842e-06
-8.11444e-06
8.12255e-06
5.41922e-06
-8.11562e-06
1.91639e-05
-1.73567e-05
1.68523e-05
-1.03088e-05
1.93897e-05
9.0514e-06
1.73399e-05
-1.69991e-06
3.56548e-05
8.44278e-07
2.23577e-06
3.71896e-05
1.01856e-05
-2.11305e-05
-7.75095e-06
-1.21155e-05
-2.28114e-05
2.23417e-05
-7.53105e-06
5.13416e-06
-1.97321e-05
9.88842e-08
-7.80574e-06
-3.58127e-07
-1.79345e-05
1.98484e-05
-1.09033e-05
8.94053e-06
-6.42425e-06
-2.83781e-05
2.58384e-05
-3.58014e-05
2.17509e-07
3.46431e-05
-6.49668e-06
-2.25357e-05
1.68952e-06
-1.58211e-06
1.85504e-05
1.74737e-06