/*--------------------------------*- C++ -*----------------------------------*\
| =========                 |                                                 |
| \\      /  F ield         | OpenFOAM: The Open Source CFD Toolbox           |
|  \\    /   O peration     | Version:  2212                                  |
|   \\  /    A nd           | Website:  www.openfoam.com                      |
|    \\/     M anipulation  |                                                 |
\*---------------------------------------------------------------------------*/
FoamFile
{
    version     2.0;
    format      ascii;
    arch        "LSB;label=32;scalar=64";
    class       volScalarField;
    location    "0.14";
    object      alphat;
}
// * * * * * * * * * * * * * * * * * * * * * * * * * * * * * * * * * * * * * //

dimensions      [1 -1 -1 0 0 0 0];

internalField   nonuniform List<scalar> 
2308
(
0.000566403
0.000422015
0.000451862
0.000366321
0.000489945
0.000455692
0.000519933
0.000517459
0.000494455
0.000453432
0.000454079
0.000454256
0.000456192
0.00045791
0.000459472
0.000461022
0.000462645
0.000475149
0.000475086
0.000474355
0.000473319
0.00047219
0.000470736
0.00046821
0.000468153
0.000467644
0.000463045
0.000461452
0.000500814
0.000464546
0.000460238
0.00045939
0.000458504
0.000457669
0.000456667
0.000455696
0.000454677
0.000453654
0.000452626
0.000451689
0.000450791
0.000450063
0.000449481
0.000449137
0.000448922
0.000430827
0.00043307
0.000434747
0.000436051
0.000436931
0.000437631
0.000438183
0.000438743
0.000439212
0.000439721
0.000440325
0.000440982
0.000441682
0.000442443
0.000443296
0.000444048
0.000444481
0.000442361
0.000442433
0.000442306
0.000443159
0.000444903
0.00044685
0.000448892
0.000451144
0.00045373
0.00044904
0.000428217
0.000493821
0.000494734
0.00049506
0.00049489
0.000494347
0.000493608
0.000493763
0.000493047
0.000489786
0.000488726
0.000488384
0.0004879
0.000487258
0.000486301
0.00048495
0.000483428
0.000481872
0.000480306
0.000478733
0.000477293
0.000476041
0.000475198
0.000474851
0.000475181
0.000476133
0.000476785
0.00047776
0.000466809
0.000456724
0.000400607
0.000408075
0.000414621
0.000419958
0.000423736
0.00042607
0.000427303
0.000427718
0.000427725
0.000427563
0.000427479
0.000427458
0.000427572
0.00042783
0.000428285
0.000428969
0.000430054
0.000430994
0.00043006
0.000429774
0.000430064
0.000431132
0.000432717
0.000434601
0.000436738
0.000439186
0.000442103
0.000535553
0.000431895
0.000452545
0.000444343
0.000517761
0.000520278
0.000523426
0.000525756
0.000527531
0.0005287
0.000529488
0.000530154
0.000529565
0.000527482
0.000525899
0.000524995
0.000524357
0.000523748
0.000522933
0.000521881
0.000520499
0.000518806
0.000516758
0.000514579
0.000512546
0.000510909
0.000509877
0.00050976
0.000510818
0.000512849
0.000515907
0.000519459
0.000479994
0.000449363
0.000425446
0.000504064
0.000393232
0.000555935
0.000566964
0.000460481
0.000506766
0.000491159
0.000478959
0.000445652
0.000523897
0.000482943
0.000450089
0.000422819
0.000386327
0.000335986
0.000345413
0.000356819
0.000369302
0.000382365
0.000394418
0.000404622
0.000412128
0.000416956
0.00041939
0.000420177
0.000420027
0.000419515
0.00041886
0.000418183
0.000417621
0.000417166
0.00041686
0.000416676
0.000416263
0.000415259
0.0004146
0.000414445
0.00041521
0.000416703
0.000418668
0.000420956
0.000423602
0.000426745
0.00051987
0.00048645
0.00048194
0.000545087
0.000546872
0.000548093
0.000549951
0.000552442
0.000554724
0.00055677
0.000559581
0.000562324
0.000564328
0.00056544
0.000565769
0.000565651
0.000565134
0.000564041
0.000562445
0.000561033
0.000559844
0.000558535
0.000557037
0.00055537
0.000553595
0.000551717
0.000549688
0.000547507
0.000545266
0.000543422
0.000542293
0.000542299
0.000543602
0.000546095
0.000549348
0.000552577
0.000555185
0.000556627
0.00109974
0.000532179
0.000350857
0.000428396
0.000639292
0.000568949
0.000449997
0.0004959
0.000285975
0.000293573
0.000303167
0.000315669
0.000330607
0.000347817
0.000365473
0.000381199
0.000393165
0.000400749
0.000404744
0.000406103
0.000405901
0.000404901
0.000403424
0.000401712
0.000400087
0.000398817
0.000398083
0.000397389
0.000396708
0.000396296
0.000396173
0.000396321
0.000397555
0.000400081
0.000403198
0.000406285
0.000409571
0.000430592
0.000498317
0.000500844
0.000570261
0.000574154
0.000575992
0.000577311
0.000578795
0.000580027
0.000580722
0.000580562
0.000579562
0.000578092
0.000576257
0.000574001
0.000571513
0.000568952
0.000566324
0.000563836
0.000561607
0.000559452
0.000557225
0.000554898
0.000552508
0.000550195
0.000548023
0.000545924
0.000543775
0.00054213
0.000541548
0.000542087
0.000543669
0.00054557
0.000546922
0.000547096
0.000545897
0.000542694
0.00053601
0.000524227
0.00055591
0.000528386
0.000486315
0.000451013
0.000420446
0.00038035
0.000328353
0.000280013
0.000352678
0.000673398
0.000800126
0.00055035
0.000546706
0.000517242
0.00041331
0.000435107
0.000501179
0.000527572
0.000496794
0.000484923
0.000565433
0.000563869
0.000562527
0.0005627
0.000563143
0.000563076
0.000562169
0.000560087
0.00055694
0.000552795
0.000547776
0.000542354
0.000536682
0.000531057
0.000525783
0.000521446
0.000518153
0.000515241
0.000512533
0.000509466
0.000505898
0.000501967
0.000497761
0.000492651
0.000487705
0.000484889
0.000484481
0.000486452
0.000489122
0.000491257
0.000491121
0.000487252
0.000478575
0.000465167
0.000446587
0.000421634
0.00039176
0.000506767
0.000552389
0.000532415
0.000490045
0.000452387
0.000418551
0.000375218
0.000322121
0.000275083
0.000250382
0.000254099
0.000257362
0.000260645
0.000264647
0.000270415
0.00027951
0.000293424
0.000312435
0.000334746
0.000356239
0.000373725
0.000385781
0.000392441
0.000394846
0.000394554
0.000392833
0.000390506
0.000388039
0.000385847
0.000384011
0.000382404
0.000380848
0.000379222
0.000378048
0.000377077
0.00037729
0.000379425
0.000383034
0.000387067
0.000391322
0.000499542
0.000417654
0.000440436
0.000519969
0.000507664
0.000547924
0.000568319
0.000575288
0.000444188
0.00056797
0.000528971
0.000522673
0.000515287
0.000509814
0.000506899
0.000504508
0.000501833
0.000498921
0.000494664
0.000489543
0.000483781
0.000477184
0.000469647
0.000460692
0.000451115
0.00044244
0.000436228
0.000432016
0.000427763
0.000423189
0.000417994
0.000411942
0.000404878
0.000395348
0.000382316
0.000369763
0.000363035
0.000364203
0.000370285
0.00037513
0.000375551
0.000371149
0.000362034
0.000349348
0.000332962
0.000312177
0.000289516
0.000268938
0.000254068
0.000360045
0.000483064
0.000544616
0.000534842
0.000494344
0.000454055
0.000416987
0.000370998
0.000316867
0.000270541
0.000245889
0.000243851
0.000249648
0.00025404
0.000256587
0.000257165
0.000255988
0.000253656
0.000251712
0.000252795
0.000259773
0.00027439
0.000295158
0.000317323
0.000337451
0.000353472
0.000363378
0.000368137
0.000369105
0.000367668
0.00036501
0.00036197
0.000359021
0.000356491
0.000354304
0.000352361
0.000350968
0.00034997
0.000350351
0.000353793
0.000359543
0.000366734
0.000373072
0.000395749
0.00049782
0.000507534
0.000387241
0.000400411
0.00054391
0.000573872
0.000580662
0.000444847
0.000521775
0.000498468
0.00042258
0.000519802
0.00056683
0.000246276
0.00033042
0.000454835
0.000532409
0.000535231
0.000498639
0.000456228
0.000416232
0.000367733
0.00031258
0.00026602
0.000240574
0.000237658
0.000254386
0.000258938
0.000265725
0.000272552
0.000277433
0.000278982
0.00027657
0.000269987
0.000260216
0.000250013
0.000243273
0.00024402
0.000254197
0.000271118
0.000290841
0.000309301
0.000323052
0.000331679
0.000335861
0.000337425
0.000337866
0.000337672
0.00033692
0.00033586
0.000334754
0.00033281
0.000330016
0.000327164
0.000326813
0.000329617
0.000334097
0.000340137
0.000348051
0.000379333
0.000476708
0.000496391
0.000407046
0.000613577
0.000461318
0.000451318
0.00044347
0.000438728
0.00043509
0.000432265
0.00043102
0.00042968
0.000426783
0.000420969
0.00041208
0.00040007
0.000384254
0.000367146
0.000353133
0.0003439
0.000338554
0.000334696
0.000331477
0.000327148
0.000319502
0.000307665
0.000290461
0.000268679
0.000249924
0.000240262
0.000239262
0.000243828
0.000250061
0.00025523
0.000257437
0.000254925
0.000248661
0.00023978
0.000229683
0.000222599
0.00022231
0.000229362
0.000241884
0.000519024
0.000504
0.00140637
0.000427667
0.000537959
0.000404822
0.000290876
0.000288696
0.000292627
0.00030073
0.000309538
0.000315492
0.000316046
0.00030944
0.000295534
0.000276876
0.000256737
0.000240493
0.000233654
0.000235058
0.000240017
0.000246253
0.000254265
0.000262442
0.000265892
0.000267117
0.000270681
0.000277997
0.000286256
0.000291619
0.00029421
0.000294788
0.000294648
0.000294926
0.000295834
0.00030054
0.000307714
0.000316998
0.000328094
0.000357644
0.000461528
0.000497922
0.000257256
0.000244997
0.000306248
0.000424169
0.000515289
0.000532759
0.00050214
0.000458668
0.000415984
0.000365247
0.000308668
0.000261041
0.000234625
0.000232304
0.000253547
0.00029876
0.000465852
0.000578137
0.00058705
0.000564021
0.000508488
0.000475996
0.000440054
0.000491253
0.000401583
0.000408891
0.000396588
0.000386966
0.000381023
0.000377358
0.000374997
0.000373831
0.000372592
0.000369652
0.000362523
0.00035014
0.000331619
0.000307314
0.000286568
0.000275275
0.000270301
0.000268628
0.000266703
0.000264577
0.000260769
0.000252889
0.000239231
0.000220886
0.000206179
0.000201574
0.000199419
0.000194907
0.000193084
0.00019638
0.000201959
0.000207252
0.000210394
0.000210804
0.00021025
0.000213058
0.000223893
0.000242704
0.00026601
0.000290145
0.000312683
0.00135308
0.000385962
0.000434927
0.000527755
0.000498456
0.00051793
0.000470061
0.00140738
0.000730076
0.000464544
0.000408298
0.000340433
0.000479574
0.000367536
0.000354827
0.000898965
0.00036707
0.000350313
0.000337291
0.000331695
0.00033531
0.000345824
0.000357739
0.000365064
0.000363429
0.000350298
0.000328863
0.000302638
0.000276094
0.000256515
0.000247863
0.000242788
0.0002333
0.000220228
0.000209098
0.000201733
0.000198694
0.000203502
0.000218485
0.000240121
0.000259801
0.000272385
0.000278115
0.000279818
0.000282185
0.000287222
0.000295224
0.00030433
0.000314667
0.00032529
0.000335644
0.000447897
0.000587569
0.00054662
0.000332773
0.000273524
0.000248573
0.000288354
0.000393767
0.000494587
0.000527302
0.000504646
0.000461639
0.000416441
0.000363382
0.000304813
0.000255541
0.000228579
0.000228865
0.000256814
0.000310587
0.000384906
0.000505838
0.000595497
0.000590777
0.000539915
0.00046643
0.000401346
0.000644019
0.000489066
0.000406814
0.000395651
0.000383073
0.000375235
0.000372735
0.000369691
0.000367728
0.000367153
0.000367121
0.000364238
0.000351618
0.000331078
0.000305028
0.000280464
0.000268089
0.000263259
0.000261097
0.000259904
0.000261013
0.000263562
0.000263813
0.000254511
0.000239727
0.000229058
0.0002354
0.000249403
0.000252103
0.00024217
0.000230223
0.000227375
0.0002331
0.000240208
0.000240755
0.000238608
0.000239911
0.000252119
0.000276524
0.000307258
0.000337852
0.000364879
0.000387276
0.000406255
0.00044771
0.00036851
0.000526858
0.000454432
0.000490305
0.000525475
0.000392269
0.000494272
0.000536302
0.000509485
0.000538709
0.000352333
0.000545619
0.000458135
0.000367808
0.000432708
0.0012499
0.00114289
0.00035617
0.000340624
0.000324205
0.000305965
0.000287083
0.000271824
0.000261408
0.000252646
0.00024516
0.000232139
0.000212001
0.000190109
0.000177338
0.000179286
0.00018098
0.000181732
0.000192334
0.000211122
0.000235753
0.000258264
0.000275312
0.000299548
0.00033723
0.000371594
0.000396787
0.000415345
0.000423546
0.000417088
0.000402035
0.000387735
0.000383294
0.000391979
0.000410291
0.000431865
0.000452342
0.000471121
0.0012935
0.000422739
0.000350328
0.000289274
0.000255145
0.000276408
0.000365705
0.00047071
0.000518218
0.00050547
0.00046465
0.000417268
0.000361663
0.000300557
0.00024945
0.000223076
0.000227982
0.00026352
0.000324502
0.000402172
0.000488163
0.00042699
0.000352869
0.000423774
0.00138914
0.00144808
0.00145313
0.00135275
0.00102152
0.000873471
0.000760055
0.000718669
0.000454692
0.00129438
0.000354431
0.000374077
0.000356022
0.000423519
0.000460584
0.000505785
0.000394978
0.000424448
0.000997253
0.000622723
0.000596983
0.000507822
0.000431725
0.000399082
0.000392865
0.000470941
0.000411821
0.000412633
0.000394209
0.000375497
0.000365889
0.000360592
0.000357058
0.000352909
0.000348672
0.000344671
0.000339195
0.000325177
0.00030436
0.000285434
0.000282455
0.000297098
0.000302092
0.000294309
0.0002866
0.000282974
0.000280893
0.000280382
0.000273326
0.000265783
0.000280608
0.000327739
0.000360495
0.000364299
0.000339298
0.000309181
0.000294814
0.000292885
0.00029444
0.000289124
0.000285907
0.000296306
0.00032612
0.000363069
0.000398276
0.000427554
0.000451073
0.000470101
0.000486823
0.000502317
0.00036286
0.000355433
0.000352668
0.000436165
0.000356351
0.000382024
0.000464361
0.000356012
0.00108456
0.000531675
0.000497928
0.000551214
0.000368757
0.000423663
0.000392869
0.00106306
0.000388118
0.0004889
0.00048452
0.000487411
0.000371146
0.000365315
0.000500209
0.00054304
0.000627181
0.000413972
0.000390009
0.000368747
0.000343314
0.000310435
0.000283243
0.00026477
0.000256138
0.000252437
0.000240946
0.000225891
0.000222586
0.000242003
0.000263501
0.000267251
0.000259658
0.000262534
0.000279168
0.000308815
0.000336702
0.000352114
0.000380489
0.000424782
0.000458485
0.000478962
0.00049428
0.000498353
0.000481555
0.000460336
0.000451788
0.000462512
0.000484105
0.000507985
0.000529364
0.000548061
0.000564932
0.000581114
0.000455615
0.000447527
0.000470738
0.000565003
0.000647624
0.000631378
0.000762449
0.000411351
0.000346603
0.000396741
0.000358591
0.000655434
0.00122183
0.000384241
0.000468818
0.000471237
0.000460445
0.000829945
0.000515773
0.000403575
0.00135905
0.00125014
0.00132125
0.000591691
0.000517799
0.000437716
0.000365685
0.000303761
0.000263428
0.00026944
0.000341352
0.000444925
0.000505879
0.000504488
0.000467605
0.000418403
0.000359942
0.000295705
0.000242875
0.000218622
0.000229638
0.000272725
0.000339135
0.000418415
0.000504183
0.000597698
0.00145454
0.00148961
0.00149144
0.0014357
0.00121269
0.000793779
0.000444007
0.000371988
0.000400068
0.000350308
0.00035359
0.000396445
0.000462148
0.00121516
0.000517153
0.00055538
0.000362775
0.000550461
0.00098357
0.000387239
0.00067834
0.00113354
0.000560793
0.000461835
0.000459203
0.000466806
0.000457146
0.000428826
0.000411782
0.000408065
0.00040631
0.000397368
0.000387563
0.000378873
0.000375244
0.00037352
0.000360933
0.000340634
0.000335346
0.000360337
0.000386273
0.000392039
0.000382748
0.000368257
0.000359868
0.000356983
0.000360002
0.000355071
0.000351992
0.000387185
0.000446018
0.000481065
0.000483216
0.000458687
0.00042432
0.000411637
0.0004104
0.000403748
0.000377706
0.000366965
0.000389172
0.000428792
0.000466928
0.000497995
0.000521707
0.000540877
0.000557972
0.000574269
0.000590722
0.000608448
0.000518196
0.000371731
0.000989795
0.00037386
0.000961959
0.000423788
0.000607107
0.000387065
0.000495526
0.000781152
0.000388273
0.000475619
0.000536684
0.000539942
0.000498338
0.000450538
0.000488336
0.000668658
0.000658949
0.000586926
0.000568139
0.000558502
0.000378752
0.000369868
0.000425705
0.000425037
0.000475115
0.00046874
0.000444361
0.000412888
0.00038554
0.000346035
0.000295747
0.000256998
0.000232423
0.000223059
0.000228741
0.000235904
0.000263438
0.000337165
0.000410463
0.000437708
0.000431709
0.000398947
0.000356607
0.000333175
0.000342463
0.000370638
0.000410252
0.000482604
0.000540568
0.000558462
0.000554192
0.000551888
0.000552959
0.00052568
0.000511431
0.000528366
0.000563649
0.00059509
0.000619256
0.000637996
0.000654674
0.000671542
0.000689345
0.000708846
0.000438531
0.00043146
0.000430237
0.000452136
0.00055962
0.00131719
0.000393656
0.000391698
0.000386811
0.000362206
0.00036609
0.000363602
0.000465728
0.00051862
0.000373103
0.000361605
0.000378196
0.000351982
0.000345876
0.000340023
0.000578853
0.00112852
0.000523997
0.000500114
0.000462174
0.000597739
0.000422459
0.000548794
0.000491203
0.000411724
0.000523886
0.000905982
0.000384991
0.000385624
0.000355654
0.000379025
0.000539969
0.000534297
0.000467633
0.000408637
0.000467116
0.00123418
0.00142103
0.0014964
0.00151795
0.0015194
0.0014982
0.00136702
0.00104914
0.000565403
0.000382511
0.000382764
0.000585181
0.000551533
0.00045552
0.000399588
0.000424783
0.00046762
0.00045736
0.000457918
0.000448757
0.00043595
0.000440455
0.000434173
0.000411556
0.000389571
0.000369436
0.000348029
0.000336494
0.000342357
0.000342531
0.000362888
0.000409038
0.00047711
0.000499742
0.000486707
0.000452487
0.000418392
0.000385665
0.000369293
0.000376332
0.000388448
0.000439535
0.000529419
0.000586744
0.00060838
0.000596689
0.000552258
0.000501886
0.00046596
0.000444552
0.000422665
0.000408962
0.000447407
0.000508005
0.00055355
0.000584754
0.000606919
0.000624845
0.000641452
0.000659016
0.000677781
0.000697578
0.0007197
0.000744934
0.000628451
0.000533835
0.000452108
0.000379646
0.000316936
0.000272275
0.000266109
0.000321031
0.000418932
0.000490616
0.000501351
0.000469995
0.000419547
0.000357849
0.000290087
0.000236233
0.000215644
0.000233514
0.000283275
0.000353375
0.000433425
0.000519855
0.000615768
0.000731513
0.000346466
0.0011399
0.000567312
0.000544917
0.000383931
0.000637865
0.000950094
0.000448516
0.000482152
0.000395656
0.000662803
0.000667271
0.000628099
0.000558572
0.00051244
0.000566155
0.00060062
0.000608723
0.000619848
0.000664797
0.000621351
0.000574755
0.000653065
0.000358868
0.000361549
0.000345496
0.000843582
0.000487983
0.000455577
0.000397077
0.000558522
0.000412877
0.000472937
0.000858368
0.000383315
0.000471859
0.00033765
0.00042641
0.000427924
0.000428046
0.000440323
0.000443629
0.000457456
0.000507878
0.000455285
0.000817264
0.000403968
0.000554781
0.000542878
0.000522215
0.000493296
0.000465466
0.000435375
0.000370679
0.000378543
0.000247812
0.000597794
0.000832659
0.00116828
0.00138983
0.00149711
0.00153336
0.00154349
0.00154409
0.00154152
0.00148029
0.00132125
0.000909765
0.000459462
0.000419546
0.000453047
0.000354108
0.000510482
0.00046933
0.000486269
0.000500821
0.000595188
0.000551821
0.000524225
0.000542494
0.000552062
0.00055343
0.000576859
0.000572455
0.000526213
0.000486105
0.000453542
0.000399818
0.000365408
0.000364131
0.000386109
0.000452611
0.000540455
0.000615099
0.000650396
0.000644887
0.000600493
0.000560053
0.000495483
0.000454877
0.000454197
0.000490928
0.000583177
0.000673167
0.000731645
0.000757585
0.000759578
0.000720299
0.000674772
0.000615992
0.000589425
0.000552675
0.000572187
0.000632545
0.000691941
0.000728271
0.00074822
0.000761826
0.000774974
0.000789423
0.00080556
0.000823557
0.000843067
0.000865469
0.000893462
0.00092674
0.000773296
0.000651377
0.000551468
0.000466579
0.000392608
0.000328942
0.000281011
0.000265439
0.000304891
0.000394014
0.000473201
0.000496213
0.000471642
0.000420557
0.000355173
0.000283553
0.000229663
0.000214058
0.000238948
0.000294322
0.000366978
0.000447899
0.000536014
0.000636196
0.000757221
0.000908806
0.000878357
0.000853028
0.000833191
0.0008157
0.000800274
0.00078694
0.000775573
0.000764026
0.000746871
0.000714639
0.000680682
0.000692098
0.000733817
0.000718447
0.000709383
0.00072556
0.000694189
0.000627223
0.000548614
0.000481448
0.000452077
0.00045946
0.000523158
0.000582905
0.000621409
0.000621386
0.000582566
0.000498517
0.000384635
0.000299189
0.000260804
0.00024871
0.000278234
0.000316088
0.000364175
0.00042832
0.00047937
0.000506816
0.000549939
0.000580665
0.000580926
0.000571054
0.000550842
0.000507221
0.000412786
0.000365128
0.000408716
0.000364546
0.000401572
0.000403119
0.00050356
0.000529263
0.000665759
0.000379131
0.000364088
0.000345929
0.000365065
0.000327428
0.000335246
0.00103311
0.000540073
0.000500292
0.000485205
0.000522891
0.000439128
0.000682383
0.000584752
0.000459506
0.00106819
0.000937863
0.000451975
0.000370955
0.00100493
0.000541787
0.000542312
0.000503433
0.000482118
0.00047639
0.00075417
0.000328174
0.000352483
0.000371668
0.000635331
0.000590019
0.000550489
0.000495919
0.00044356
0.000422318
0.000478205
0.000583376
0.000708552
0.000737507
0.000714415
0.000505639
0.000346699
0.000415143
0.000619646
0.000661389
0.000536778
0.000457221
0.000450865
0.000438102
0.00044889
0.000458574
0.000382338
0.000361801
0.00041498
0.000422728
0.000428892
0.000432743
0.000488006
0.000728464
0.000356299
0.000826103
0.00034227
0.000453097
0.000466652
0.000599366
0.000602902
0.000600929
0.000590752
0.000563996
0.000509313
0.000400937
0.000351326
0.000418507
0.000312429
0.000326214
0.000367023
0.000435169
0.000465124
0.000554077
0.000602814
0.000620041
0.000616931
0.000579556
0.000502966
0.000469602
0.000423352
0.000487244
0.00046757
0.000357902
0.000280249
0.000283944
0.000361029
0.000476308
0.000617633
0.000697999
0.000734417
0.000731416
0.000652132
0.000522709
0.000455287
0.000449264
0.000489831
0.000582701
0.000721522
0.000782541
0.000796728
0.00074083
0.000646906
0.000644239
0.000689008
0.000762869
0.000795809
0.000813269
0.000828499
0.00084627
0.000869725
0.000898203
0.000930165
0.000966276
0.00100711
0.0010531
0.00110366
0.000550997
0.000637844
0.000966681
0.000806495
0.000677095
0.00057102
0.000481887
0.000405415
0.000340088
0.000289345
0.000266496
0.000292623
0.000371331
0.00045464
0.000489326
0.000472652
0.000421489
0.000351889
0.000276455
0.00022373
0.000213967
0.000245498
0.000305393
0.000379981
0.000462379
0.00055355
0.000659372
0.000787405
0.000946241
0.001159
0.000713723
0.00104556
0.00136762
0.00150769
0.00155375
0.00156565
0.00156911
0.00156877
0.00156959
0.00154677
0.00149329
0.00131262
0.000867123
0.000356197
0.000470575
0.000493003
0.000514039
0.000643931
0.000652942
0.000629047
0.000554902
0.000506073
0.000524807
0.000533436
0.000605204
0.000657546
0.000636504
0.000552948
0.00047067
0.000408886
0.000324577
0.000274474
0.000294888
0.0003768
0.000486961
0.000596922
0.000685808
0.000718037
0.000711915
0.000632711
0.000513267
0.000429625
0.000387334
0.000420564
0.000509982
0.000637738
0.000746423
0.000790009
0.000812609
0.000814725
0.000741302
0.000600263
0.000545599
0.00052943
0.00058511
0.000718018
0.000760209
0.000776445
0.000786849
0.000797617
0.000813988
0.000838234
0.000869366
0.000903026
0.000938756
0.000978109
0.00102266
0.00107217
0.00112658
0.00118412
0.000456939
0.000482775
0.000944953
0.000515069
0.0003315
0.000337185
0.000377089
0.000365764
0.000496335
0.000581765
0.00103137
0.000541125
0.000495873
0.000607032
0.000847282
0.000928866
0.000807418
0.000663018
0.000596083
0.000642723
0.000683563
0.000715365
0.00065294
0.000492655
0.000663281
0.000621933
0.000635868
0.000663577
0.00109955
0.00078433
0.000595001
0.000487794
0.000464261
0.000465991
0.000531904
0.000645172
0.000980891
0.00110196
0.00113845
0.000372247
0.000344621
0.000331001
0.000689614
0.000468958
0.000466308
0.000685382
0.000637874
0.000450094
0.000530726
0.000449361
0.000442907
0.000516275
0.000593965
0.00074019
0.000909674
0.000972196
0.00098435
0.000975481
0.000929298
0.000742254
0.000650855
0.000738549
0.000912389
0.000919648
0.000733904
0.000520737
0.000477123
0.000556837
0.000752535
0.0010406
0.0011457
0.00118901
0.00120488
0.00111331
0.000827539
0.000652461
0.000623158
0.000706063
0.000987438
0.00122392
0.00129573
0.00134835
0.00131267
0.00106739
0.001029
0.00125429
0.00139361
0.00139954
0.00141209
0.00142648
0.00144048
0.00145418
0.00146665
0.00147849
0.00149246
0.00150905
0.00152321
0.00153398
0.00154066
0.000863514
0.000910465
0.000964352
0.00099217
0.000998319
0.000992036
0.000952821
0.000841231
0.000337286
0.000352803
0.000497149
0.000655693
0.000481086
0.00086778
0.000341818
0.000367386
0.000526273
0.000514997
0.000503265
0.000498236
0.00049673
0.000616092
0.00094553
0.00133856
0.00152609
0.00158488
0.0015981
0.00160107
0.00160111
0.00159927
0.00159947
0.00159211
0.00158251
0.00151721
0.00133498
0.000763283
0.000339541
0.0014091
0.00124484
0.00101509
0.000845643
0.000707183
0.000593414
0.000498653
0.000418507
0.000350972
0.000297818
0.000269242
0.000284315
0.000352664
0.000438176
0.000484021
0.000476041
0.000425071
0.000350171
0.000270339
0.000219302
0.000215629
0.000253196
0.000316769
0.000393172
0.000477845
0.000573694
0.000686955
0.00082401
0.000991212
0.00121779
0.00154401
0.000896942
0.00100695
0.000863259
0.00068118
0.000660815
0.000756936
0.000982145
0.00104134
0.00102685
0.000894469
0.000684806
0.00057701
0.000564062
0.000537955
0.000502822
0.000558919
0.000724996
0.000992309
0.0011063
0.00114626
0.00116275
0.00107476
0.000787662
0.000609004
0.000549184
0.000597714
0.000770694
0.00108539
0.00124389
0.00129671
0.0013286
0.00134353
0.00127799
0.000936762
0.000764174
0.000795886
0.00111505
0.00133953
0.00136356
0.0013815
0.00139593
0.00141069
0.00142568
0.00144422
0.00146297
0.00147835
0.00149115
0.00150688
0.00152371
0.00153781
0.00154718
0.00154987
0.00154916
0.000736424
0.000469988
0.000640596
0.000339845
0.000358574
0.000749427
0.000763504
0.000509341
0.000392901
0.000733959
0.00103232
0.00152936
0.00126252
0.000713091
0.000857378
0.000491957
0.000592928
0.000326157
0.000404349
0.000217098
0.000259764
0.000262282
0.000214633
0.000418453
0.000342546
0.000469946
0.000467759
0.000334804
0.000418905
0.000270848
0.000276998
0.000360098
0.000304377
0.000514427
0.000430312
0.000735355
0.000614797
0.00105786
0.000879589
0.000745421
0.000728017
0.0015323
0.0013015
0.000773733
0.000761221
0.000788261
0.000782814
0.000788437
0.000789207
0.00079381
0.000790647
0.000808477
0.000799853
0.000832628
0.000818985
0.000827564
0.000839392
0.000725551
0.000808583
0.000782159
0.000655265
0.000906983
0.000842902
0.000907614
0.000916858
0.000839256
0.00088079
0.000684039
0.000751918
0.000771075
0.000710974
0.000883703
0.00084035
0.000936471
0.00093518
0.000858572
0.000912377
0.000721174
0.000774639
0.000839041
0.000791169
0.000831168
0.00084659
0.000863687
0.000840294
0.000919417
0.000914547
0.000793067
0.00087378
0.000728699
0.000681336
0.000885049
0.000851722
0.000887675
0.000904947
0.000965794
0.000944698
0.000887859
0.000950642
0.000750925
0.000826368
0.000613316
0.000705311
0.000485988
0.000513771
0.000879081
0.000742108
0.000842313
0.000840622
0.000942372
0.000891421
0.000994903
0.000944847
0.00117525
0.00108025
0.000911296
0.0013003
0.000847658
0.00161634
0.00162884
0.00165055
0.00165868
0.00165296
0.00165365
0.00165774
0.00165507
0.00166496
0.00166141
0.00163676
0.00166275
0.000567367
0.00154023
0.000760997
0.000651719
0.00112578
0.000453953
0.000893148
0.000891427
0.000951435
0.000979364
0.00106115
0.000961442
0.000990647
0.00109232
0.000917303
0.000922593
0.000871388
0.000906335
0.00081095
0.000835967
0.000784311
0.000792778
0.0008384
0.000797459
0.0009539
0.000907336
0.00066158
0.000859078
0.000643464
0.000494497
0.000823352
0.000781452
0.000864106
0.00086145
0.000884967
0.000842939
0.000947022
0.000920675
0.000920504
0.000941007
0.000770225
0.000861064
0.000813962
0.000676737
0.000895649
0.000884077
0.000708152
0.000817163
0.000637791
0.000620613
0.000853594
0.000756537
0.000943338
0.000914241
0.00085223
0.00093262
0.000655538
0.000773148
0.000695598
0.000635934
0.000865004
0.000819376
0.000910768
0.000897565
0.000856267
0.000870493
0.000846215
0.000845404
0.00082443
0.000831031
0.000803883
0.000813763
0.000791304
0.000795982
0.000788394
0.000788379
0.000783065
0.000787938
0.000774796
0.00108922
0.000352365
0.000812769
0.000397808
0.000716077
0.000616565
0.000708136
0.00134966
0.000278504
0.000606058
0.000574888
0.00046229
0.000482997
0.000547968
0.000491391
0.000411251
0.000389269
0.000592195
0.000533719
0.000795008
0.000519773
0.000480339
0.000494651
0.000499745
0.000488979
0.000496651
0.000506197
0.000483907
0.000498095
0.000510544
0.000471096
0.000493486
0.000506995
0.000450129
0.000479067
0.000402082
0.000350023
0.00116581
0.000421747
0.00308657
0.000366206
0.000361559
0.000397089
0.000534384
0.000563703
0.000358443
0.000469406
0.000490185
0.000604418
0.0005046
0.000484333
0.000372065
0.000522442
0.000386093
0.00130282
0.000362648
0.000564623
0.000423572
0.000488322
0.000873138
0.000476396
0.000481865
0.000428561
0.000443734
0.000526052
0.000512002
0.00216798
0.00138948
0.000491679
0.000744219
0.000505884
0.00083731
0.000757541
0.00048675
0.000367182
0.00056999
0.000486868
0.000344622
0.000434603
0.00042607
0.000469322
0.00122271
0.000486335
0.000503109
0.000447079
0.000452746
0.000452854
0.000398237
)
;

boundaryField
{
    wall
    {
        type            compressible::alphatWallFunction;
        value           uniform 0;
    }
    outlet
    {
        type            calculated;
        value           nonuniform List<scalar> 
33
(
0.00101719
0.00150739
0.00124403
0.000702645
0.000844848
0.000484734
0.00058423
0.00032136
0.000398408
0.000213901
0.000255941
0.000258421
0.000211473
0.000412287
0.000337501
0.000463007
0.000460854
0.00032986
0.00041272
0.000266838
0.000272902
0.000354769
0.000299872
0.000506824
0.000423947
0.000724491
0.000605727
0.00104223
0.00086658
0.00150928
0.00128233
0.000705773
0.000697513
)
;
    }
    inlet
    {
        type            calculated;
        value           uniform 0.00164249;
    }
    frontAndBackPlanes
    {
        type            empty;
    }
}


// ************************************************************************* //
