/*--------------------------------*- C++ -*----------------------------------*\
| =========                 |                                                 |
| \\      /  F ield         | OpenFOAM: The Open Source CFD Toolbox           |
|  \\    /   O peration     | Version:  2212                                  |
|   \\  /    A nd           | Website:  www.openfoam.com                      |
|    \\/     M anipulation  |                                                 |
\*---------------------------------------------------------------------------*/
FoamFile
{
    version     2.0;
    format      ascii;
    arch        "LSB;label=32;scalar=64";
    class       volScalarField;
    location    "0.54";
    object      T;
}
// * * * * * * * * * * * * * * * * * * * * * * * * * * * * * * * * * * * * * //

dimensions      [0 0 0 1 0 0 0];

internalField   nonuniform List<scalar> 
2308
(
158.697
275.947
155.749
114.452
128.729
126.147
122.942
127.505
129.662
103.089
104.307
106.456
107.601
109.097
110.508
111.995
113.366
113.852
112.446
111.108
109.493
108.294
106.597
105.643
103.961
102.387
101.575
100.114
123.193
114.822
98.8352
97.6313
96.4759
95.3541
94.2809
93.2538
92.2649
91.3131
90.4085
89.5109
88.7007
87.8825
87.193
86.4741
85.8389
86.0442
86.8588
87.3531
88.1954
88.8419
89.7321
90.524
91.4979
92.3941
93.4462
94.4228
95.5476
96.6008
97.7794
98.9089
100.198
101.558
102.698
103.972
105.411
106.594
107.875
109.238
110.791
112.243
113.814
85.2365
85.7834
113.53
111.761
110.413
108.798
107.493
105.972
104.717
103.325
101.915
100.653
99.4293
98.3029
97.1714
96.159
95.0882
94.1616
93.1436
92.2759
91.3252
90.4929
89.6081
88.8279
88.0083
87.3043
86.5047
115.189
85.9298
116.206
115.261
87.7551
87.0701
87.9677
88.1265
89.132
89.4663
90.5014
90.9681
92.0418
92.6351
93.7988
94.502
95.7742
96.6
97.9625
98.9098
100.333
101.407
102.875
104.222
105.388
106.877
108.073
109.686
111.059
112.79
114.271
128.003
125.642
123.503
123.897
115.699
113.662
111.889
110.258
108.727
107.284
105.809
104.478
103.113
101.752
100.465
99.2328
98.0966
96.9489
95.9522
94.855
93.9627
92.9105
92.0714
91.0491
90.2699
89.3033
88.6181
87.7123
87.1489
86.3089
86.0259
85.4466
85.2936
84.7353
85.2318
128.649
87.0402
129.961
134.402
116.84
133.262
126.062
116.906
116.064
85.7561
85.1037
84.4259
85.5369
87.9906
90.8397
88.5026
88.1866
87.5027
88.0435
87.9028
88.699
89.0462
89.9831
90.4514
91.4393
91.9931
93.0574
93.7591
94.9852
95.8702
97.2277
98.2442
99.695
100.791
102.272
103.407
104.957
106.177
107.815
109.213
110.938
112.47
114.331
119.166
153.589
127.119
125.734
123.634
121.898
119.89
118.257
116.468
114.994
113.13
111.595
109.845
108.538
106.937
105.74
104.206
103.098
101.675
100.696
99.2493
98.4454
97.0749
96.3239
95.0601
94.4127
93.2161
92.7152
91.5289
91.1345
89.9689
89.7245
88.4361
88.5925
87.122
88.1724
86.8839
88.4644
175.918
131.809
166.247
117.767
119.634
132.208
117.548
119.569
106.327
96.7078
94.5304
91.6396
91.6729
90.6662
91.4268
91.0163
91.9275
92.1221
93.1339
93.6228
94.6595
95.3097
96.3504
97.1132
98.2118
99.1296
100.321
101.376
102.562
103.702
104.961
106.249
107.622
109.052
110.609
112.261
114.016
115.962
135.904
137.612
125.611
123.144
120.832
118.935
116.768
115.251
113.234
111.811
109.961
108.484
106.942
105.469
104.271
102.921
101.909
100.687
99.7729
98.5082
97.7628
96.4691
95.8904
94.5162
94.0627
92.6287
92.282
90.8265
90.6323
89.2802
89.4257
88.2186
88.7002
87.8053
89.1161
88.6694
91.4347
94.1479
87.3866
85.4402
84.9804
84.3342
85.2182
87.6259
93.9057
121.645
161.008
153.589
218.842
134.201
151.944
131.522
115.872
117.837
137.084
135.64
147.444
126.135
127.3
124.107
121.776
119.176
117.062
114.879
113.16
111.098
109.855
107.809
106.765
104.839
104.148
102.47
102.01
100.538
100.214
98.7551
98.468
96.9818
96.7848
95.3279
95.2277
93.8511
93.814
92.482
92.6863
91.2692
92.2018
91.0025
92.4621
91.3246
94.4977
95.9722
103.818
116.932
123.128
102.954
90.9429
86.1092
85.1264
84.414
85.8278
90.4306
103.026
126.754
126.253
127.231
128.991
125.018
109.028
98.3179
96.6882
92.2951
92.7778
91.0684
92.4255
91.3955
92.8934
92.5731
93.9571
93.9521
95.2987
95.4491
96.7803
97.0972
98.4489
99.0714
100.553
101.442
103.023
104.132
105.787
107.205
109.03
110.689
112.659
135.687
117.762
119.549
120.863
137.373
139.868
138.309
138.169
142.351
130.191
131.96
128.711
125.452
122.295
119.509
116.901
114.409
112.332
110.244
108.575
106.794
105.347
103.825
102.481
101.23
100.148
98.8385
97.9897
96.7862
95.8905
94.8081
94.0207
93.0812
92.4594
91.4988
91.253
90.6368
91.7874
90.3118
93.0554
91.8058
96.6853
98.168
107.607
121.128
125.78
124.078
123.11
121.933
121.349
116.491
92.3151
86.1992
85.1061
84.6009
86.0392
92.51
118.228
125.296
125.285
126.108
127.436
128.584
129.909
130.845
132.702
130.34
113.96
101.215
100.074
94.3357
95.3329
92.9949
94.4744
93.5893
95.0875
94.868
96.3108
96.4938
97.9521
98.3243
99.7331
100.208
101.635
102.309
103.763
104.69
106.291
107.553
109.25
110.899
112.8
114.541
139.704
136.37
210.764
116.656
139.735
145.932
143.735
121.616
125.011
121.215
119.59
139.803
145.187
120.288
120.812
120.026
103.199
88.9641
85.5491
85.0041
88.542
102.844
122.919
124.102
124.177
125.298
125.618
126.385
127.551
128.463
129.882
131.514
133.092
134.209
136.912
135.182
119.501
104.8
103.872
97.2563
98.2567
95.6118
97.4679
96.0139
97.6402
97.0781
98.5427
98.3372
99.639
99.6561
100.867
101.004
102.339
102.608
104.268
104.958
107.026
108.066
110.551
114.886
129.752
140.71
133.048
129.644
129.224
125.773
122.786
120.365
117.791
115.838
113.87
112.119
110.563
108.851
107.631
106.267
105.148
103.968
102.917
101.834
100.881
99.8525
99.0068
97.9165
97.3212
96.3044
96.0037
95.0543
95.4496
94.0376
95.5071
94.8819
99.8906
101.072
112.733
127.429
127.9
126.512
125.237
123.99
122.371
120.712
119.612
139.993
140.716
109.47
121.515
144.013
118.538
126.212
126.883
127.953
128.786
129.922
131.03
132.672
134.888
136.933
138.449
140.805
142.099
126.902
109.428
108.419
101.042
101.04
97.5168
98.8326
96.5701
98.2185
97.7578
99.1276
99.089
100.704
101.231
102.982
104.124
105.469
107.066
107.985
109.73
110.967
112.051
129.802
142.647
118.269
118.836
119.341
118.876
116.021
91.562
86.456
85.8806
91.5679
116.448
121.588
123.133
123.028
124.198
124.536
125.212
132.797
152.581
152.734
150.68
143.151
124.694
127.42
259.883
118.25
126.158
123.427
120.244
118.514
116.368
114.691
112.762
111.241
109.956
108.473
107.073
105.434
104.03
102.372
101.384
99.8299
99.2354
97.9121
97.9
96.5245
97.339
95.7918
98.1726
96.6708
100.142
99.5039
106.149
106.464
121.609
134.16
132.729
130.579
129.008
127.041
125.146
123.344
122.181
121.025
120.194
119.09
119.78
116.908
123.6
143.812
143.47
141.994
126.536
138.253
167.985
124.874
120.704
113.159
123.211
149.056
143.429
165.373
126.509
127.57
128.047
128.728
129.554
130.103
130.777
131.668
132.704
134.19
136.65
139.655
141.743
143.44
148.077
131.183
115.607
112.012
106.992
104.63
102.236
103.179
100.929
102.746
102.543
105.041
104.377
106.82
105.863
108.314
107.573
109.316
109.52
110.766
111.518
129.885
162.788
162.045
118.484
117.352
117.893
118.428
118.394
117.388
101.468
89.7063
88.2986
100.485
120.708
121.412
122.387
122.405
123.567
123.898
124.616
126.012
125.933
157.804
158.899
152.609
153.399
144.117
126.158
151.198
132.586
128.591
125.991
123.43
121.231
119.346
117.284
116.172
113.78
113.099
111.064
111.149
108.956
109.184
106.593
106.643
104.231
104.145
101.867
102.685
101.109
102.489
101.728
103.886
105.704
110.549
112.94
124.608
137.666
133.87
132.558
130.553
127.917
125.807
124.55
123.815
122.875
122.111
121.037
120.537
119.779
119.474
133.868
115.042
157.87
142.51
144.252
146.998
119.1
145.271
145.214
146.01
160.836
182.577
129.507
122.154
114.296
128.97
107.344
116.862
112.116
111.937
108.873
108.855
106.238
106.449
105.162
105.316
106.789
107.151
109.632
109.166
113.032
111.931
119.687
119.901
133.399
146.035
153.463
148.199
146.771
144.041
140.546
138.391
137.085
136.439
135.645
135.417
134.821
134.352
133.209
132.342
131.059
130.295
129.103
128.404
144.647
118.802
117.645
116.169
116.452
116.685
117.189
117.576
114.213
92.8053
91.3334
116.177
120.757
120.479
121.126
121.344
122.535
122.891
123.693
125.142
127.31
132.328
115.594
141.683
133.673
124.433
103.888
101.142
106.969
117.617
141.844
163.699
135.615
167.315
199.902
181.713
177.998
147.554
147.451
150.491
121.23
136.401
168.097
165.928
174.838
173.512
173.078
167.894
145.631
245.631
149.051
141.697
134.67
129.449
125.212
121.277
118.785
115.617
113.958
111.922
110.392
108.809
108.157
107.33
107.082
107.363
107.422
108.374
108.536
110.157
108.965
112.581
110.538
117.248
117.743
129.951
141.56
141.865
138.192
136.545
134.447
131.665
129.855
128.732
128.087
127.377
126.897
125.886
125.254
124.323
124.116
122.972
122.484
121.429
164.408
167.757
172.042
134.303
210.162
117.204
151.03
213.244
162.197
148.379
148.58
149.348
158.071
154.514
154.391
138.51
160.051
151.862
163.325
158.109
216.978
191.86
163.018
163.072
126.773
116.574
116.717
116.136
116.356
116.382
116.321
116.434
115.487
116.327
118.332
120.281
124.379
129.075
134.501
144.108
159.421
155.07
152.348
149.419
145.678
141.567
140.492
138.286
137.73
137.557
137.463
137.46
137.145
136.241
134.996
133.7
132.693
131.504
130.7
129.615
128.955
127.964
228.084
227.912
223.803
212.879
185.748
168.342
123.883
131.147
114.237
145.272
157.447
181.84
168.281
163.166
154.95
119.572
144.306
130.126
129.761
135.318
125.795
166.764
165.718
155.615
120.978
118.72
117.351
115.619
115.67
116.329
116.212
116.655
115.317
105.377
101.276
117.367
120.063
120.058
120.889
120.951
122.077
122.396
123.212
124.709
126.739
127.36
112.58
103.346
98.848
98.8657
100.535
110.569
163.074
118.277
139.28
177.438
211.21
168.101
166.154
171.651
151.561
138.079
165.91
153.348
156.764
120.444
169.595
155.816
152.316
229.279
188.706
171.345
161.041
153.569
146.276
139.858
133.931
129.017
125.936
123.681
121.886
120.416
118.454
116.849
116.352
114.894
115.907
113.838
117.762
116.464
120.998
123.561
123.03
131.996
140.736
146.168
142.857
141.668
139.01
135.785
132.892
131.502
130.371
129.728
128.997
128.711
128.224
127.884
127.077
126.491
125.443
124.957
123.802
123.348
122.195
121.755
173.33
130.628
104.967
151.89
193.688
161.047
166.03
252.362
126.157
157.901
132.475
132.972
255.855
252.803
251.305
251.775
245.554
213.049
187.943
168.822
151.743
150.354
199.814
219.804
161.34
186.318
135.901
133.715
130.472
129.466
127.939
128.022
128.506
129.064
132.116
133.134
135.597
141.692
143.231
149.066
160.845
157.525
154.36
152.482
148.417
145.027
143.625
142.069
141.916
141.976
142.12
142.253
142.125
142.115
140.939
139.564
138.059
137.166
135.959
135.233
134.212
133.672
132.698
132.15
131.114
130.593
164.278
166.565
171.676
139.283
143.499
91.6275
272.057
257.424
227.981
134.181
161.387
148.083
118.326
258.724
118.84
116.247
144.452
153.684
204.958
203.741
184.907
193.999
170.258
154.463
121.155
145.579
126.936
142.437
146.143
166.649
159.503
162.998
122.687
128.949
167.539
247.7
124.476
129.21
150.21
171.978
237.569
125.045
104.653
100.509
98.4869
97.8387
97.806
98.5024
101.394
113.639
138.818
121.459
156.245
155.906
169.421
127.228
249.746
253.737
245.588
221.159
200.463
183.662
170.776
160.818
151.582
143.15
137.759
133.011
129.816
128.448
128.047
126.354
128.622
125.482
128.232
128.145
130.415
135.926
141.777
145.947
147.72
146.208
144.89
143.476
140.716
137.782
136.075
134.89
133.637
133.354
133.082
132.952
132.309
131.214
130.238
129.289
127.833
127.012
126.618
126.029
125.334
124.76
124.208
123.772
123.171
120.707
120.049
118.145
116.698
114.772
114.446
114.612
115.28
116.027
116.924
116.54
112.664
119.4
119.736
119.014
119.74
119.943
121.145
121.475
122.364
123.833
125.708
126.414
129.543
180.198
174.436
135.348
146.736
164.229
263.164
148.618
167.204
120.837
123.675
263.183
262.284
262.131
261.452
264.305
261.347
225.728
194.228
153.575
134.121
117.709
129.523
121.395
116.469
150.482
211.476
222.979
162.472
119.402
130.515
123.851
150.112
165.63
152.317
126.255
149.309
167.158
157.978
191.516
248.422
276.36
276.427
277.227
273.692
273.905
175.978
138.676
153.492
159.658
169.842
171.771
181.688
159.923
133.03
124.005
262.553
160.265
139.081
126.187
106.777
101.003
98.1567
96.9557
97.0199
97.1645
97.5484
99.1389
104.096
122.454
128.159
170.693
136.507
148.408
122.696
157.034
131.296
263.585
262.577
262.011
258.93
251.095
243.819
226.364
210.546
194.088
180.188
168.286
159.262
151.935
147.112
144.799
142.658
142.626
140.759
148.176
157.408
157.122
155.887
154.957
152.909
150.617
145.084
142.32
139.005
138.074
137.896
137.662
137.563
137.453
137.147
136.86
136.106
135.053
134.011
133.05
132.346
131.506
130.831
130.144
130.075
129.818
129.783
129.8
130.018
129.846
130.013
122.972
120.245
119.486
117.848
116.224
114.202
113.996
114.381
114.49
116.016
118.472
123.354
129.565
122.404
120.312
119.015
119.685
119.8
120.861
121.098
121.967
123.431
125.222
125.851
129.065
134.106
134.454
135.209
135.605
136.37
136.786
137.552
137.981
138.733
139.164
139.957
140.521
141.53
142.463
143.78
145.14
146.008
146.682
146.837
146.484
146.068
144.893
144.668
144.226
144.763
148.856
152.387
158.383
160.459
164.329
164.273
166.056
156.592
151.717
147.058
147.277
144.775
147.394
147.501
152.159
157.44
165.904
176.027
193.132
195.402
137.82
195.936
158.142
269.242
275.068
128.496
275.575
159.373
119.257
119.707
122.873
151.53
140.913
170.75
176.779
208.438
186.66
173.969
150.562
147.136
158.598
161.958
162.436
171.533
183.323
198.782
147.452
127.266
198.791
170.196
161.723
145.863
167.226
164.557
220.644
174.606
143.748
119.329
122.499
157.596
188.151
257.895
272.915
260.1
263.122
261.051
262.69
261.618
263.694
163.932
201.508
124.784
278.116
277.489
277.105
275.254
272.32
273.177
253.586
183.725
240.207
131.407
135.62
141.892
148.031
156.804
123.17
180.561
136.9
191.649
140.933
176.932
234.291
138.799
144.716
157.478
162.645
169.24
171.354
160.986
132.069
131.113
278.854
277.806
271.949
273.102
245.058
243.301
228.088
220.92
206.364
199.858
192.113
190.74
185.083
183.396
179.869
179.137
175.881
173.878
170.781
168.042
166.616
166.572
166.273
166.506
166.379
166.694
166.719
166.646
166.144
164.766
162.725
160.6
159.111
157.959
157.221
156.651
156.229
155.784
155.407
154.941
154.658
154.143
153.851
153.232
152.937
152.307
151.991
151.336
151.039
176.707
167.189
129.938
122.545
119.417
118.624
117.185
115.58
113.572
113.041
113.212
113.968
115.49
119.74
130.025
133.55
123.314
119.874
118.214
118.747
118.933
119.986
120.21
121.147
122.583
124.226
124.993
128.091
133.413
150.44
142.361
112.845
103.934
99.9097
97.3034
96.6866
96.4163
96.8558
96.9514
97.3641
97.8919
100.639
110.547
114.117
174.787
177.228
180.797
138.787
264.477
266.427
266.292
266.578
266.747
265.837
264.432
261.137
252.552
242.12
236.745
224.467
212.064
200.047
188.966
181.71
176.966
171.283
168.296
168.02
167.367
166.873
165.801
163.454
161.788
159.698
157.947
156.838
155.6
155.12
155.04
154.212
152.826
151.756
150.88
150.177
149.687
149.236
148.937
148.527
148.205
147.75
147.583
147.389
147.398
147.44
147.605
147.602
147.687
147.368
147.111
146.128
179.847
177.522
212.391
192.119
143.938
147.726
122.504
127.743
175.061
163.683
262.911
169.54
129.53
269.825
273.104
273.912
275.797
276.762
275.848
276.392
271.942
234.67
151.442
116.127
128.915
131.473
136.514
144.008
262.394
137.651
191.302
221.396
260.842
259.728
261.393
263.814
261.759
262.651
262.645
123.138
140.321
147.394
214.003
172.322
178.833
183.737
175.693
270.664
273.836
276.421
278.333
276.197
285.056
275.649
276.442
268.961
264.349
254.271
250.109
242.343
238.548
230.782
224.843
218.301
214.396
211.486
209.001
206.704
205.451
205.409
205.203
203.789
202.048
199.666
196.243
192.763
189.892
187.993
186.539
185.791
185.786
185.82
185.638
185.253
184.41
183.762
182.766
182.045
180.925
180.144
179.05
178.295
177.203
176.406
175.316
174.599
173.649
173.189
172.506
130.742
142.304
145.799
155.988
160.975
171.159
171.355
171.338
171.665
128.869
190.054
170.45
188
203.125
134.406
126.424
175.221
179.934
189.962
192.981
132.421
116.77
106.24
103.013
102.14
99.2103
97.2001
96.5262
96.2912
96.8118
96.87
97.17
97.9855
100.156
105.747
102.826
104.142
214.799
145.259
129.935
122.388
119.131
118.261
116.841
115.207
113.197
112.769
113.327
113.759
116.816
122.857
135.047
144.397
128.368
121.744
118.853
119.149
119.087
119.857
120.022
120.911
122.317
123.893
124.564
127.752
133.164
150.243
172.289
262.612
263.697
265.462
266.612
267.388
268.188
268.315
267.909
265.041
264.374
260.058
255.99
247.827
238.79
231.69
223.547
218.529
214.157
212.21
210.48
208.292
206.074
202.914
200.907
199.507
197.109
194.829
192.354
190.148
188.222
186.067
184.29
182.554
181.102
179.461
178.17
176.741
175.627
174.358
173.293
172.355
171.255
170.2
169.249
168.412
167.648
166.925
166.368
166.089
165.911
165.949
166.226
166.097
181.257
178.337
207.169
134.165
126.756
205.472
206.906
275.366
252.561
204.735
132.365
171.564
149.559
123.615
126.717
121.424
122.881
119.158
120.098
118.192
118.989
118.547
118.263
131.872
122.124
142.581
150.223
117.107
125.668
112.46
113.264
112.31
111.827
115.755
114.156
118.305
117.149
129.509
121.856
201.658
200.638
167.029
142.932
205.566
204.217
209
207.89
209.495
209.406
209.546
209.407
210.881
210.046
214.278
212.258
218.698
216.662
220.968
220.042
223.733
222.074
228.352
225.979
233.369
230.919
237.121
235.293
242.597
239.461
247.454
245.238
251.488
249.489
253.259
252.288
258.024
255.902
259.6
258.796
259.959
259.856
261.396
260.633
260.447
261.341
258.144
259.757
257.414
257.77
257.163
257.391
256.454
256.317
256.866
257.027
258.645
257.322
258.544
258.993
258.143
259.659
260.843
264.502
207.414
224.888
167.277
177.756
180.5
176.196
181.535
185.039
198.802
193.038
208.89
205.675
210.614
88.3271
54.0301
107.868
108.092
108.429
107.68
108.143
108.394
106.638
107.119
105.156
105.926
99.8995
103.87
152.416
90.3369
203.287
109.178
242.952
214.657
213.764
223.591
213.81
214.888
201.539
211.897
198.274
198.997
182.863
192.21
189.969
178.863
256.293
218.59
273.473
271.996
270.266
270.862
266.516
268.219
261.276
264.456
260.132
260.243
261.992
260.784
262.768
263.086
269.165
262.858
274.246
271.182
274.589
274.761
272.797
273.935
269.324
271.265
263.488
266.703
259.197
260.532
253.182
256.386
250.199
250.944
249.002
249.663
244.911
246.973
239.149
241.993
233.288
235.78
229.5
231.22
226.37
227.909
224.152
225.218
221.434
222.734
218.385
219.751
215.419
216.612
213.044
213.972
211.08
211.885
209.12
209.896
207.77
246.493
219.499
195.973
126.211
203.173
176.132
197.797
158.485
261.558
259.901
258.244
238.744
244.121
220.347
215.146
122.931
125.125
192.495
182.524
187.529
117.177
118.284
117.451
132.32
130.207
132.481
136.403
132.657
134.932
139.47
135.578
136.321
141.463
138.478
139.217
130.546
130.011
260.138
135.185
213.264
129.479
176.126
129.368
134.857
139.34
170.229
122.537
114.706
115.239
243.932
120.871
277.143
161.017
270.025
131.442
136.933
128.411
134.59
123.462
182.774
120.645
160.935
124.333
122.736
126.165
134.755
255.392
140.361
155.04
263.699
269.758
173.096
163.782
164.815
218.817
180.249
153.054
112.477
118.109
274.217
117.276
166.959
253.716
144.274
128.594
105.469
102.141
256.615
)
;

boundaryField
{
    wall
    {
        type            zeroGradient;
    }
    outlet
    {
        type            inletOutlet;
        inletValue      uniform 85;
        value           nonuniform List<scalar> 
33
(
132.36
171.571
149.559
123.613
126.71
121.423
122.881
119.16
120.099
118.194
118.991
118.547
118.264
131.862
122.118
142.621
150.17
117.12
125.714
112.466
113.267
112.3
111.823
115.743
114.138
118.311
117.146
129.502
121.859
167.124
142.844
203.165
197.754
)
;
    }
    inlet
    {
        type            fixedValue;
        value           uniform 273.16;
    }
    frontAndBackPlanes
    {
        type            empty;
    }
}


// ************************************************************************* //
