/*--------------------------------*- C++ -*----------------------------------*\
| =========                 |                                                 |
| \\      /  F ield         | OpenFOAM: The Open Source CFD Toolbox           |
|  \\    /   O peration     | Version:  2212                                  |
|   \\  /    A nd           | Website:  www.openfoam.com                      |
|    \\/     M anipulation  |                                                 |
\*---------------------------------------------------------------------------*/
FoamFile
{
    version     2.0;
    format      ascii;
    arch        "LSB;label=32;scalar=64";
    class       surfaceScalarField;
    location    "0.000219";
    object      phi;
}
// * * * * * * * * * * * * * * * * * * * * * * * * * * * * * * * * * * * * * //

dimensions      [1 0 -1 0 0 0 0];

oriented        oriented;

internalField   nonuniform List<scalar> 
51696
(
-7.18044e-09
6.36013e-10
-6.3833e-09
1.59791e-13
-6.01259e-09
4.85211e-10
-5.59749e-09
5.05621e-10
-5.19749e-09
6.46906e-10
-4.78771e-09
7.33243e-10
-4.38727e-09
7.84077e-10
-4.01364e-09
8.19085e-10
-3.63164e-09
8.50999e-10
-3.26361e-09
8.91337e-10
-2.90752e-09
8.81955e-10
-2.57483e-09
8.75563e-10
-2.24848e-09
8.65353e-10
-1.93842e-09
8.34393e-10
-1.62577e-09
8.19909e-10
-1.27407e-09
8.7398e-10
-8.28017e-10
1.02266e-09
-3.39372e-10
1.08588e-09
1.51867e-10
1.1054e-09
6.18476e-10
1.06353e-09
1.0622e-09
1.0211e-09
1.48826e-09
1.02799e-09
1.90569e-09
1.06646e-09
2.3348e-09
1.10267e-09
2.76527e-09
1.12783e-09
3.14802e-09
1.15599e-09
3.48617e-09
1.17285e-09
3.7818e-09
1.16055e-09
4.03562e-09
1.16259e-09
4.24261e-09
1.18142e-09
4.35901e-09
1.1814e-09
4.27372e-09
1.15945e-09
4.0386e-09
1.18036e-09
3.71868e-09
1.21475e-09
3.37714e-09
1.24703e-09
3.08089e-09
1.27495e-09
2.87743e-09
1.16915e-09
2.7494e-09
1.01226e-09
2.66533e-09
9.39306e-10
2.60983e-09
9.59339e-10
2.57697e-09
1.01041e-09
2.56195e-09
1.08647e-09
2.56506e-09
1.2194e-09
2.5866e-09
1.36283e-09
2.61942e-09
1.42829e-09
2.65508e-09
1.44603e-09
2.69022e-09
1.46012e-09
2.72365e-09
1.44696e-09
2.75304e-09
1.40702e-09
2.78147e-09
1.43783e-09
2.81261e-09
1.48305e-09
2.85021e-09
1.51142e-09
2.89847e-09
1.53236e-09
2.96017e-09
1.53262e-09
3.03124e-09
1.45131e-09
3.10651e-09
1.3702e-09
3.18494e-09
1.32454e-09
3.26492e-09
1.305e-09
3.34898e-09
1.32596e-09
3.43235e-09
1.32352e-09
3.51401e-09
1.3019e-09
3.58694e-09
1.26277e-09
3.66671e-09
1.37875e-09
3.7438e-09
1.44851e-09
3.84045e-09
1.3892e-09
4.04182e-09
1.10839e-09
4.49208e-09
7.35902e-10
5.30506e-09
3.26659e-10
6.5621e-09
-1.74542e-10
7.82042e-09
-4.24278e-10
8.329e-09
4.80522e-11
8.30909e-10
7.74541e-09
-1.27749e-08
1.43323e-09
-1.21808e-08
3.21617e-10
-1.16271e-08
9.37399e-10
-1.09819e-08
9.18881e-10
-1.03569e-08
1.22339e-09
-9.64521e-09
1.32165e-09
-8.96447e-09
1.44207e-09
-8.26722e-09
1.46352e-09
-7.56384e-09
1.5255e-09
-6.84821e-09
1.57715e-09
-6.14827e-09
1.5561e-09
-5.46644e-09
1.53302e-09
-4.79138e-09
1.50967e-09
-4.14102e-09
1.4477e-09
-3.49096e-09
1.41835e-09
-2.77912e-09
1.51197e-09
-1.9138e-09
1.77029e-09
-9.89142e-10
1.8893e-09
-7.34808e-11
1.92894e-09
7.53444e-10
1.90761e-09
1.52319e-09
1.8404e-09
2.27029e-09
1.84942e-09
3.04688e-09
1.88908e-09
3.83815e-09
1.9652e-09
4.60817e-09
2.04293e-09
5.30771e-09
2.1324e-09
5.90622e-09
2.18666e-09
6.42587e-09
2.20873e-09
6.83402e-09
2.28594e-09
7.11215e-09
2.38634e-09
7.22841e-09
2.45227e-09
7.07082e-09
2.45815e-09
6.73458e-09
2.5068e-09
6.32308e-09
2.56732e-09
5.92796e-09
2.59363e-09
5.6423e-09
2.58781e-09
5.50627e-09
2.35279e-09
5.4383e-09
2.03383e-09
5.4201e-09
1.87766e-09
5.44387e-09
1.90561e-09
5.50611e-09
1.99452e-09
5.60254e-09
2.13494e-09
5.73587e-09
2.38843e-09
5.90441e-09
2.66349e-09
6.08904e-09
2.78994e-09
6.27341e-09
2.82781e-09
6.45203e-09
2.8606e-09
6.6209e-09
2.84041e-09
6.77297e-09
2.77148e-09
6.9167e-09
2.8436e-09
7.0581e-09
2.9428e-09
7.20097e-09
3.00712e-09
7.35123e-09
3.0538e-09
7.5129e-09
3.05612e-09
7.67789e-09
2.89505e-09
7.84216e-09
2.73319e-09
8.00778e-09
2.64067e-09
8.17606e-09
2.59812e-09
8.35537e-09
2.63197e-09
8.53853e-09
2.61966e-09
8.72513e-09
2.56735e-09
8.90367e-09
2.48294e-09
9.10758e-09
2.69699e-09
9.31401e-09
2.82609e-09
9.54867e-09
2.69908e-09
9.87558e-09
2.14942e-09
1.03063e-08
1.54197e-09
1.09261e-08
9.38329e-10
1.16718e-08
2.67673e-10
1.24076e-08
-1.61295e-10
1.31424e-08
3.91658e-11
8.03961e-10
1.35339e-08
-1.66029e-08
2.63489e-09
-1.61652e-08
9.37837e-10
-1.55125e-08
1.44574e-09
-1.48141e-08
1.43268e-09
-1.40782e-08
1.85689e-09
-1.32383e-08
1.95261e-09
-1.24129e-08
2.12614e-09
-1.15525e-08
2.1102e-09
-1.06871e-08
2.20126e-09
-9.79313e-09
2.24919e-09
-8.91622e-09
2.21654e-09
-8.05003e-09
2.16851e-09
-7.19368e-09
2.13198e-09
-6.36982e-09
2.03888e-09
-5.55405e-09
1.99831e-09
-4.66965e-09
2.13377e-09
-3.59775e-09
2.50188e-09
-2.44317e-09
2.6666e-09
-1.29845e-09
2.71975e-09
-2.14984e-10
2.67242e-09
7.73244e-10
2.62049e-09
1.73461e-09
2.63401e-09
2.71042e-09
2.68444e-09
3.69324e-09
2.80835e-09
4.64196e-09
2.94777e-09
5.50102e-09
3.10817e-09
6.25018e-09
3.21954e-09
6.89879e-09
3.29972e-09
7.4377e-09
3.44198e-09
7.84141e-09
3.59189e-09
8.02569e-09
3.68558e-09
7.93381e-09
3.7843e-09
7.59511e-09
3.83792e-09
7.22466e-09
3.86461e-09
6.97723e-09
3.86633e-09
6.83194e-09
3.84758e-09
6.79674e-09
3.49755e-09
6.83317e-09
3.02288e-09
6.92511e-09
2.78626e-09
7.06407e-09
2.8209e-09
7.24496e-09
2.94569e-09
7.46941e-09
3.14562e-09
7.74756e-09
3.511e-09
8.0773e-09
3.90862e-09
8.42785e-09
4.0932e-09
8.77561e-09
4.15307e-09
9.11424e-09
4.20701e-09
9.43634e-09
4.18384e-09
9.73168e-09
4.09283e-09
1.00145e-08
4.21334e-09
1.02922e-08
4.37278e-09
1.0567e-08
4.4793e-09
1.08442e-08
4.55789e-09
1.11256e-08
4.5691e-09
1.13956e-08
4.33803e-09
1.16528e-08
4.10262e-09
1.19025e-08
3.96891e-09
1.21495e-08
3.90664e-09
1.24053e-08
3.95505e-09
1.26637e-08
3.93188e-09
1.29206e-08
3.8499e-09
1.31674e-08
3.71668e-09
1.34398e-08
4.03077e-09
1.37019e-08
4.22789e-09
1.39125e-08
4.09077e-09
1.39506e-08
3.55836e-09
1.39204e-08
2.87101e-09
1.38541e-08
2.22152e-09
1.37115e-08
1.5529e-09
1.35361e-08
1.1107e-09
1.36108e-08
1.03192e-09
1.32825e-09
1.38756e-08
-2.01884e-08
4.02836e-09
-1.967e-08
1.63315e-09
-1.89543e-08
2.06562e-09
-1.82297e-08
2.0966e-09
-1.73978e-08
2.58463e-09
-1.64846e-08
2.70633e-09
-1.55467e-08
2.89453e-09
-1.45893e-08
2.84989e-09
-1.36193e-08
2.96154e-09
-1.26212e-08
3.00721e-09
-1.16369e-08
2.9612e-09
-1.06561e-08
2.88286e-09
-9.6863e-09
2.83033e-09
-8.75258e-09
2.70061e-09
-7.83038e-09
2.64755e-09
-6.8322e-09
2.82942e-09
-5.62439e-09
3.32032e-09
-4.31572e-09
3.54481e-09
-3.017e-09
3.5932e-09
-1.81766e-09
3.53106e-09
-6.65532e-10
3.4355e-09
4.48763e-10
3.46485e-09
1.56647e-09
3.52647e-09
2.69943e-09
3.68453e-09
3.80923e-09
3.86938e-09
4.84131e-09
4.08052e-09
5.76076e-09
4.24431e-09
6.58408e-09
4.37328e-09
7.30124e-09
4.58232e-09
7.84538e-09
4.7957e-09
8.10503e-09
4.92207e-09
8.05182e-09
5.09007e-09
7.79075e-09
5.1243e-09
7.52561e-09
5.13419e-09
7.3617e-09
5.11895e-09
7.32861e-09
5.07995e-09
7.41892e-09
4.61584e-09
7.57652e-09
3.98542e-09
7.77332e-09
3.67825e-09
8.01492e-09
3.72382e-09
8.30441e-09
3.88395e-09
8.64502e-09
4.14195e-09
9.05222e-09
4.61539e-09
9.52431e-09
5.13052e-09
1.00215e-08
5.37074e-09
1.05146e-08
5.45297e-09
1.09973e-08
5.52805e-09
1.1459e-08
5.50354e-09
1.18868e-08
5.39435e-09
1.23023e-08
5.56646e-09
1.27132e-08
5.78898e-09
1.31195e-08
5.94184e-09
1.35252e-08
6.05666e-09
1.39296e-08
6.08134e-09
1.43091e-08
5.78707e-09
1.4663e-08
5.48472e-09
1.50002e-08
5.31461e-09
1.5328e-08
5.2363e-09
1.56594e-08
5.30309e-09
1.59891e-08
5.27008e-09
1.63058e-08
5.16645e-09
1.6605e-08
4.98676e-09
1.69132e-08
5.42147e-09
1.71824e-08
5.71649e-09
1.71792e-08
5.77357e-09
1.71106e-08
5.15617e-09
1.6917e-08
4.41884e-09
1.65329e-08
3.80998e-09
1.58825e-08
3.21706e-09
1.50249e-08
2.79482e-09
1.39397e-08
2.68115e-09
2.71134e-09
1.37649e-08
-2.36481e-08
5.57397e-09
-2.30664e-08
2.42322e-09
-2.23315e-08
2.84887e-09
-2.15466e-08
2.88519e-09
-2.06281e-08
3.43583e-09
-1.96231e-08
3.58897e-09
-1.85762e-08
3.77878e-09
-1.75153e-08
3.70412e-09
-1.64361e-08
3.82658e-09
-1.53247e-08
3.86322e-09
-1.42254e-08
3.79656e-09
-1.31351e-08
3.69031e-09
-1.2059e-08
3.62146e-09
-1.10281e-08
3.45508e-09
-1.00124e-08
3.38986e-09
-8.91474e-09
3.62604e-09
-7.58186e-09
4.25689e-09
-6.1209e-09
4.53207e-09
-4.68504e-09
4.56706e-09
-3.32968e-09
4.45475e-09
-2.04989e-09
4.33456e-09
-7.87417e-10
4.3571e-09
4.67709e-10
4.42489e-09
1.74811e-09
4.60375e-09
3.00492e-09
4.83147e-09
4.19363e-09
5.09182e-09
5.24145e-09
5.29759e-09
6.22655e-09
5.46871e-09
7.12401e-09
5.758e-09
7.77766e-09
6.02224e-09
8.02881e-09
6.19622e-09
7.93534e-09
6.38758e-09
7.68615e-09
6.40249e-09
7.48008e-09
6.38806e-09
7.40023e-09
6.34814e-09
7.48437e-09
6.29122e-09
7.68894e-09
5.71777e-09
7.94029e-09
4.94982e-09
8.22288e-09
4.57456e-09
8.55027e-09
4.63199e-09
8.92843e-09
4.82771e-09
9.36237e-09
5.14269e-09
9.87146e-09
5.72193e-09
1.04546e-08
6.35053e-09
1.10653e-08
6.64335e-09
1.16701e-08
6.7471e-09
1.2263e-08
6.8425e-09
1.28316e-08
6.81598e-09
1.33605e-08
6.69085e-09
1.38757e-08
6.91807e-09
1.43874e-08
7.20549e-09
1.48949e-08
7.40586e-09
1.54019e-08
7.55726e-09
1.5905e-08
7.59721e-09
1.6375e-08
7.24295e-09
1.68086e-08
6.88026e-09
1.72184e-08
6.67835e-09
1.76119e-08
6.5889e-09
1.80052e-08
6.67702e-09
1.83888e-08
6.63964e-09
1.87507e-08
6.51949e-09
1.90827e-08
6.30253e-09
1.94159e-08
6.86426e-09
1.96918e-08
7.27451e-09
1.96611e-08
7.54416e-09
1.95061e-08
6.90892e-09
1.91956e-08
6.15164e-09
1.86859e-08
5.58722e-09
1.79873e-08
4.99406e-09
1.70911e-08
4.56147e-09
1.57753e-08
4.53347e-09
4.35039e-09
1.53181e-08
-2.71119e-08
7.22378e-09
-2.64526e-08
3.30352e-09
-2.56086e-08
3.71417e-09
-2.47362e-08
3.77669e-09
-2.36998e-08
4.37866e-09
-2.25824e-08
4.57663e-09
-2.14143e-08
4.75886e-09
-2.02433e-08
4.65784e-09
-1.90468e-08
4.78181e-09
-1.78192e-08
4.81269e-09
-1.66001e-08
4.72538e-09
-1.53895e-08
4.59089e-09
-1.41947e-08
4.50401e-09
-1.30492e-08
4.29402e-09
-1.19231e-08
4.21141e-09
-1.07034e-08
4.50574e-09
-9.23637e-09
5.28397e-09
-7.65278e-09
5.61586e-09
-6.06271e-09
5.65163e-09
-4.57037e-09
5.51563e-09
-3.14993e-09
5.32197e-09
-1.74901e-09
5.32853e-09
-3.54479e-10
5.39101e-09
1.06192e-09
5.59553e-09
2.47983e-09
5.85872e-09
3.83176e-09
6.16853e-09
4.99583e-09
6.41424e-09
6.13063e-09
6.63484e-09
7.19371e-09
7.00975e-09
7.93388e-09
7.31796e-09
8.07095e-09
7.47123e-09
7.832e-09
7.71161e-09
7.54403e-09
7.6916e-09
7.36334e-09
7.64026e-09
7.35444e-09
7.57629e-09
7.53724e-09
7.50164e-09
7.83607e-09
6.82796e-09
8.16553e-09
5.92712e-09
8.51685e-09
5.4905e-09
8.91193e-09
5.56376e-09
9.35863e-09
5.7954e-09
9.86317e-09
6.16686e-09
1.0448e-08
6.85105e-09
1.11127e-08
7.59044e-09
1.18058e-08
7.93287e-09
1.24913e-08
8.0565e-09
1.31628e-08
8.17052e-09
1.38073e-08
8.14006e-09
1.44076e-08
7.99949e-09
1.49936e-08
8.28373e-09
1.55765e-08
8.63757e-09
1.61549e-08
8.88615e-09
1.67326e-08
9.0738e-09
1.73059e-08
9.12833e-09
1.7841e-08
8.7149e-09
1.83341e-08
8.29491e-09
1.87981e-08
8.06469e-09
1.92413e-08
7.96768e-09
1.96808e-08
8.07987e-09
2.01048e-08
8.04179e-09
2.04996e-08
7.90872e-09
2.08498e-08
7.66418e-09
2.11949e-08
8.35966e-09
2.14681e-08
8.89878e-09
2.14358e-08
9.36798e-09
2.12653e-08
8.73128e-09
2.09399e-08
7.94299e-09
2.04715e-08
7.34544e-09
1.98736e-08
6.66121e-09
1.91176e-08
6.13758e-09
1.80271e-08
6.04088e-09
5.99784e-09
1.73907e-08
-2.94797e-08
8.93053e-09
-2.87733e-08
4.23842e-09
-2.78677e-08
4.63678e-09
-2.69298e-08
4.72159e-09
-2.58187e-08
5.37814e-09
-2.46234e-08
5.62437e-09
-2.33726e-08
5.797e-09
-2.21214e-08
5.66888e-09
-2.08389e-08
5.78845e-09
-1.95263e-08
5.81905e-09
-1.82204e-08
5.71706e-09
-1.69269e-08
5.56342e-09
-1.56495e-08
5.46069e-09
-1.44223e-08
5.20606e-09
-1.3212e-08
5.10262e-09
-1.19039e-08
5.45218e-09
-1.03461e-08
6.37176e-09
-8.68101e-09
6.75353e-09
-6.99817e-09
6.80042e-09
-5.38715e-09
6.60495e-09
-3.85494e-09
6.38982e-09
-2.35239e-09
6.37912e-09
-8.59497e-10
6.42687e-09
6.55201e-10
6.65268e-09
2.19707e-09
6.94025e-09
3.66741e-09
7.31108e-09
4.95642e-09
7.60086e-09
6.22018e-09
7.88255e-09
7.38544e-09
8.33916e-09
8.16893e-09
8.68929e-09
8.17001e-09
8.85598e-09
7.67958e-09
9.04819e-09
7.37321e-09
8.97163e-09
7.2109e-09
8.89025e-09
7.26895e-09
8.80365e-09
7.53873e-09
8.71499e-09
7.92118e-09
7.95069e-09
8.32261e-09
6.92207e-09
8.73668e-09
6.42698e-09
9.19022e-09
6.52e-09
9.69455e-09
6.79014e-09
1.0258e-08
7.21852e-09
1.09061e-08
8.00764e-09
1.16392e-08
8.85603e-09
1.24022e-08
9.24567e-09
1.3157e-08
9.38735e-09
1.38975e-08
9.51824e-09
1.46094e-08
9.48229e-09
1.52742e-08
9.32649e-09
1.59254e-08
9.66943e-09
1.65754e-08
1.00906e-08
1.72216e-08
1.03879e-08
1.78683e-08
1.06114e-08
1.85117e-08
1.06794e-08
1.9114e-08
1.02071e-08
1.96706e-08
9.7312e-09
2.01955e-08
9.47605e-09
2.0697e-08
9.37558e-09
2.11938e-08
9.51477e-09
2.16717e-08
9.47906e-09
2.2115e-08
9.33665e-09
2.25047e-08
9.06956e-09
2.28863e-08
9.90564e-09
2.31851e-08
1.05891e-08
2.32654e-08
1.11579e-08
2.3103e-08
1.06163e-08
2.28547e-08
9.71308e-09
2.25219e-08
9.00119e-09
2.2064e-08
8.15602e-09
2.15197e-08
7.40349e-09
2.08383e-08
6.9985e-09
7.04399e-09
2.00431e-08
-3.08721e-08
1.06264e-08
-3.01471e-08
5.20119e-09
-2.91944e-08
5.57588e-09
-2.82073e-08
5.68121e-09
-2.70511e-08
6.40086e-09
-2.58083e-08
6.69599e-09
-2.45089e-08
6.85971e-09
-2.32111e-08
6.70508e-09
-2.18786e-08
6.81723e-09
-2.05169e-08
6.85251e-09
-1.91602e-08
6.74182e-09
-1.78163e-08
6.57613e-09
-1.64858e-08
6.45892e-09
-1.52055e-08
6.15794e-09
-1.39419e-08
6.02926e-09
-1.25798e-08
6.43032e-09
-1.09734e-08
7.48873e-09
-9.2664e-09
7.92128e-09
-7.5351e-09
7.966e-09
-5.86506e-09
7.75539e-09
-4.26407e-09
7.50996e-09
-2.68147e-09
7.4897e-09
-1.09958e-09
7.52452e-09
4.98386e-10
7.75723e-09
2.1156e-09
8.05932e-09
3.6893e-09
8.51051e-09
5.10763e-09
8.86374e-09
6.47926e-09
9.19269e-09
7.69069e-09
9.71138e-09
8.44225e-09
1.01052e-08
8.25674e-09
1.03277e-08
7.53788e-09
1.03533e-08
7.1698e-09
1.02384e-08
7.02712e-09
1.01299e-08
7.14659e-09
1.00231e-08
7.49293e-09
9.92913e-09
7.94608e-09
9.08257e-09
8.40678e-09
7.93237e-09
8.87219e-09
7.3827e-09
9.37383e-09
7.49817e-09
9.92438e-09
7.80745e-09
1.05337e-08
8.29299e-09
1.12298e-08
9.18694e-09
1.2014e-08
1.01427e-08
1.28283e-08
1.05779e-08
1.3634e-08
1.07375e-08
1.44256e-08
1.08845e-08
1.51877e-08
1.08408e-08
1.59014e-08
1.06694e-08
1.66031e-08
1.1072e-08
1.73057e-08
1.15608e-08
1.80058e-08
1.19069e-08
1.87077e-08
1.21652e-08
1.94079e-08
1.22446e-08
2.00656e-08
1.17124e-08
2.06753e-08
1.11817e-08
2.1252e-08
1.09032e-08
2.18051e-08
1.08014e-08
2.23541e-08
1.09694e-08
2.28828e-08
1.09378e-08
2.33748e-08
1.0787e-08
2.38086e-08
1.05e-08
2.42401e-08
1.14774e-08
2.45983e-08
1.23091e-08
2.48595e-08
1.28374e-08
2.48984e-08
1.22882e-08
2.46789e-08
1.14816e-08
2.42774e-08
1.07909e-08
2.38414e-08
9.74829e-09
2.34463e-08
8.71954e-09
2.31077e-08
7.97408e-09
7.40145e-09
2.26445e-08
-3.13369e-08
1.22897e-08
-3.0592e-08
6.15802e-09
-2.96175e-08
6.50662e-09
-2.86113e-08
6.63502e-09
-2.74422e-08
7.42182e-09
-2.61838e-08
7.7623e-09
-2.48695e-08
7.91797e-09
-2.3558e-08
7.73729e-09
-2.22102e-08
7.84072e-09
-2.08336e-08
7.88451e-09
-1.94588e-08
7.77095e-09
-1.80958e-08
7.59905e-09
-1.67451e-08
7.469e-09
-1.54452e-08
7.12074e-09
-1.41632e-08
6.96137e-09
-1.27874e-08
7.41108e-09
-1.11727e-08
8.60669e-09
-9.4521e-09
9.09675e-09
-7.71173e-09
9.13262e-09
-6.0227e-09
8.91284e-09
-4.40046e-09
8.63524e-09
-2.78995e-09
8.61943e-09
-1.16579e-09
8.64825e-09
4.86041e-10
8.88942e-09
2.15191e-09
9.19716e-09
3.80648e-09
9.72955e-09
5.32102e-09
1.01867e-08
6.76638e-09
1.05469e-08
8.01632e-09
1.1097e-08
8.7561e-09
1.15336e-08
8.54087e-09
1.18034e-08
7.31842e-09
1.16691e-08
6.88482e-09
1.14767e-08
6.76792e-09
1.13418e-08
6.94486e-09
1.12198e-08
7.35532e-09
1.1129e-08
7.86236e-09
1.02087e-08
8.36499e-09
8.94417e-09
8.8647e-09
8.3444e-09
9.3969e-09
8.4849e-09
9.97532e-09
8.83403e-09
1.06107e-08
9.37636e-09
1.13327e-08
1.03738e-08
1.21432e-08
1.1434e-08
1.29832e-08
1.19121e-08
1.3814e-08
1.20874e-08
1.46306e-08
1.22482e-08
1.54176e-08
1.21955e-08
1.61557e-08
1.2009e-08
1.68833e-08
1.24716e-08
1.76136e-08
1.30274e-08
1.83422e-08
1.34218e-08
1.90742e-08
1.37135e-08
1.98062e-08
1.3803e-08
2.04951e-08
1.32124e-08
2.1135e-08
1.26299e-08
2.1741e-08
1.23302e-08
2.23234e-08
1.22276e-08
2.29033e-08
1.2423e-08
2.3464e-08
1.23947e-08
2.39886e-08
1.22349e-08
2.44568e-08
1.19264e-08
2.49332e-08
1.3036e-08
2.53589e-08
1.39991e-08
2.56785e-08
1.45899e-08
2.58708e-08
1.39493e-08
2.57795e-08
1.30817e-08
2.55415e-08
1.23955e-08
2.52308e-08
1.1239e-08
2.49425e-08
1.00234e-08
2.46615e-08
9.03437e-09
8.17181e-09
2.44401e-08
-3.01601e-08
1.38803e-08
-2.94428e-08
7.06163e-09
-2.85142e-08
7.40182e-09
-2.75571e-08
7.55529e-09
-2.64475e-08
8.40978e-09
-2.52501e-08
8.79137e-09
-2.39995e-08
8.94026e-09
-2.27497e-08
8.73293e-09
-2.14639e-08
8.82657e-09
-2.0148e-08
8.87957e-09
-1.88294e-08
8.76676e-09
-1.75189e-08
8.59231e-09
-1.62179e-08
8.44945e-09
-1.49648e-08
8.05477e-09
-1.37285e-08
7.86442e-09
-1.24013e-08
8.36223e-09
-1.08449e-08
9.68987e-09
-9.18568e-09
1.02347e-08
-7.508e-09
1.02806e-08
-5.86995e-09
1.00365e-08
-4.29334e-09
9.73458e-09
-2.7166e-09
9.7174e-09
-1.12152e-09
9.74107e-09
5.34135e-10
1.0001e-08
2.20583e-09
1.03363e-08
3.90163e-09
1.08937e-08
5.5088e-09
1.14696e-08
6.99783e-09
1.18875e-08
8.2903e-09
1.24929e-08
8.95785e-09
1.29859e-08
8.39422e-09
1.32639e-08
6.93306e-09
1.29207e-08
6.4742e-09
1.26553e-08
6.3973e-09
1.2498e-08
6.63131e-09
1.23688e-08
7.09537e-09
1.22888e-08
7.6423e-09
1.13044e-08
8.17342e-09
9.93476e-09
8.69484e-09
9.29056e-09
9.2452e-09
9.45863e-09
9.83921e-09
9.84819e-09
1.04883e-08
1.04465e-08
1.12233e-08
1.15446e-08
1.20469e-08
1.27051e-08
1.29002e-08
1.32236e-08
1.37451e-08
1.34127e-08
1.45771e-08
1.35849e-08
1.53805e-08
1.3522e-08
1.61364e-08
1.33213e-08
1.68844e-08
1.38437e-08
1.76371e-08
1.44656e-08
1.839e-08
1.49075e-08
1.91488e-08
1.52309e-08
1.99103e-08
1.53285e-08
2.06296e-08
1.4681e-08
2.13002e-08
1.40501e-08
2.19373e-08
1.37324e-08
2.25522e-08
1.36309e-08
2.31672e-08
1.38535e-08
2.37658e-08
1.38261e-08
2.43315e-08
1.36547e-08
2.48436e-08
1.33217e-08
2.53755e-08
1.45513e-08
2.58746e-08
1.56302e-08
2.62786e-08
1.6302e-08
2.65365e-08
1.55944e-08
2.66579e-08
1.46212e-08
2.66835e-08
1.38513e-08
2.66038e-08
1.25835e-08
2.63063e-08
1.12362e-08
2.59894e-08
1.00987e-08
9.05822e-09
2.58646e-08
-2.85551e-08
1.54046e-08
-2.78907e-08
7.92378e-09
-2.70297e-08
8.26385e-09
-2.61413e-08
8.44251e-09
-2.51112e-08
9.36485e-09
-2.39955e-08
9.78357e-09
-2.28285e-08
9.92579e-09
-2.16591e-08
9.69002e-09
-2.04538e-08
9.77159e-09
-1.92169e-08
9.83175e-09
-1.79727e-08
9.72022e-09
-1.67326e-08
9.54477e-09
-1.5499e-08
9.38893e-09
-1.43103e-08
8.95016e-09
-1.31367e-08
8.72992e-09
-1.18739e-08
9.27633e-09
-1.03872e-08
1.07313e-08
-8.80059e-09
1.13213e-08
-7.19728e-09
1.13942e-08
-5.62878e-09
1.11303e-08
-4.11142e-09
1.08065e-08
-2.58147e-09
1.07788e-08
-1.03084e-09
1.0803e-08
6.03594e-10
1.10787e-08
2.28898e-09
1.14553e-08
4.00134e-09
1.206e-08
5.65765e-09
1.27043e-08
7.19643e-09
1.32052e-08
8.52127e-09
1.38895e-08
9.09124e-09
1.44543e-08
7.87188e-09
1.46835e-08
6.54304e-09
1.40983e-08
6.09366e-09
1.37742e-08
6.06375e-09
1.3602e-08
6.35329e-09
1.34738e-08
6.86514e-09
1.34108e-08
7.44578e-09
1.23706e-08
8.00032e-09
1.09044e-08
8.53934e-09
1.02207e-08
9.10427e-09
1.04181e-08
9.71072e-09
1.08481e-08
1.03709e-08
1.15014e-08
1.11167e-08
1.26972e-08
1.19513e-08
1.39539e-08
1.28164e-08
1.45102e-08
1.36744e-08
1.47126e-08
1.4521e-08
1.48958e-08
1.53404e-08
1.4822e-08
1.61138e-08
1.46081e-08
1.68816e-08
1.51904e-08
1.76563e-08
1.58781e-08
1.84331e-08
1.63671e-08
1.92181e-08
1.67209e-08
2.00084e-08
1.68254e-08
2.07573e-08
1.6123e-08
2.14576e-08
1.5447e-08
2.21254e-08
1.51138e-08
2.27726e-08
1.5015e-08
2.34236e-08
1.52629e-08
2.40619e-08
1.52342e-08
2.46711e-08
1.5048e-08
2.52302e-08
1.46873e-08
2.58207e-08
1.6024e-08
2.63927e-08
1.72041e-08
2.68815e-08
1.79512e-08
2.7219e-08
1.71894e-08
2.74226e-08
1.61294e-08
2.75251e-08
1.52777e-08
2.75287e-08
1.38869e-08
2.74531e-08
1.23956e-08
2.73208e-08
1.11309e-08
9.96285e-09
2.72109e-08
-3.0151e-08
1.6955e-08
-2.94222e-08
8.80099e-09
-2.84887e-08
9.14625e-09
-2.75279e-08
9.352e-09
-2.64193e-08
1.03458e-08
-2.52212e-08
1.08011e-08
-2.39721e-08
1.09361e-08
-2.27225e-08
1.06683e-08
-2.14379e-08
1.07343e-08
-2.01209e-08
1.07994e-08
-1.8797e-08
1.06881e-08
-1.74803e-08
1.05136e-08
-1.61737e-08
1.0349e-08
-1.4917e-08
9.86869e-09
-1.36788e-08
9.62137e-09
-1.23494e-08
1.02208e-08
-1.07822e-08
1.1804e-08
-9.11793e-09
1.24462e-08
-7.43319e-09
1.25326e-08
-5.79325e-09
1.22503e-08
-4.19905e-09
1.19213e-08
-2.5944e-09
1.18868e-08
-9.6743e-10
1.19106e-08
7.66986e-10
1.22057e-08
2.59692e-09
1.26336e-08
4.46431e-09
1.33216e-08
6.24001e-09
1.4031e-08
7.9128e-09
1.46032e-08
9.32509e-09
1.53699e-08
9.80993e-09
1.60105e-08
7.79696e-09
1.62953e-08
6.56894e-09
1.52882e-08
6.11897e-09
1.49116e-08
6.13144e-09
1.47324e-08
6.48216e-09
1.46115e-08
7.05463e-09
1.45705e-08
7.68413e-09
1.34771e-08
8.27612e-09
1.19146e-08
8.84574e-09
1.11922e-08
9.43802e-09
1.14213e-08
1.00696e-08
1.18929e-08
1.07533e-08
1.2602e-08
1.15221e-08
1.38972e-08
1.23793e-08
1.5251e-08
1.32653e-08
1.58444e-08
1.41423e-08
1.60599e-08
1.5006e-08
1.62536e-08
1.58403e-08
1.61671e-08
1.66267e-08
1.59391e-08
1.74063e-08
1.65837e-08
1.81912e-08
1.73389e-08
1.89767e-08
1.78754e-08
1.97697e-08
1.82583e-08
2.05677e-08
1.83677e-08
2.13231e-08
1.76084e-08
2.20288e-08
1.68865e-08
2.27015e-08
1.65378e-08
2.3354e-08
1.64411e-08
2.4012e-08
1.6712e-08
2.46597e-08
1.66775e-08
2.52808e-08
1.6471e-08
2.58545e-08
1.60765e-08
2.64658e-08
1.75108e-08
2.70666e-08
1.87801e-08
2.75914e-08
1.95916e-08
2.79655e-08
1.87735e-08
2.8209e-08
1.76239e-08
2.83567e-08
1.66887e-08
2.84118e-08
1.51721e-08
2.83925e-08
1.35451e-08
2.83185e-08
1.21625e-08
1.08928e-08
2.81906e-08
-3.37996e-08
1.85502e-08
-3.29201e-08
9.71208e-09
-3.18074e-08
1.00618e-08
-3.06698e-08
1.02996e-08
-2.93686e-08
1.13698e-08
-2.79705e-08
1.18623e-08
-2.65208e-08
1.19884e-08
-2.5079e-08
1.16852e-08
-2.3606e-08
1.17346e-08
-2.21085e-08
1.18141e-08
-2.06058e-08
1.17108e-08
-1.91149e-08
1.15419e-08
-1.76411e-08
1.13713e-08
-1.62303e-08
1.0851e-08
-1.4846e-08
1.0575e-08
-1.33654e-08
1.12324e-08
-1.1627e-08
1.29492e-08
-9.79101e-09
1.36554e-08
-7.93859e-09
1.37481e-08
-6.14298e-09
1.34672e-08
-4.39934e-09
1.31087e-08
-2.65403e-09
1.30834e-08
-8.84643e-10
1.31038e-08
1.02388e-09
1.34218e-08
3.0796e-09
1.39188e-08
5.18489e-09
1.47221e-08
7.1361e-09
1.55229e-08
8.97388e-09
1.6144e-08
1.04955e-08
1.6994e-08
1.07869e-08
1.76864e-08
8.14141e-09
1.81247e-08
6.74943e-09
1.65239e-08
6.31063e-09
1.61032e-08
6.37095e-09
1.59247e-08
6.78674e-09
1.58168e-08
7.42223e-09
1.58019e-08
8.10194e-09
1.46546e-08
8.73121e-09
1.29919e-08
9.33006e-09
1.22296e-08
9.94707e-09
1.24924e-08
1.05998e-08
1.30068e-08
1.13014e-08
1.37732e-08
1.20854e-08
1.5171e-08
1.29544e-08
1.66243e-08
1.38477e-08
1.72541e-08
1.47273e-08
1.74817e-08
1.55891e-08
1.76849e-08
1.64175e-08
1.7583e-08
1.71944e-08
1.73392e-08
1.79602e-08
1.80486e-08
1.87269e-08
1.88733e-08
1.94899e-08
1.94568e-08
2.0257e-08
1.98667e-08
2.10263e-08
1.99781e-08
2.17514e-08
1.91579e-08
2.24257e-08
1.83873e-08
2.30664e-08
1.80212e-08
2.36866e-08
1.79243e-08
2.43125e-08
1.82149e-08
2.49292e-08
1.8169e-08
2.55213e-08
1.79356e-08
2.60683e-08
1.75001e-08
2.66538e-08
1.90237e-08
2.72317e-08
2.03713e-08
2.77389e-08
2.12357e-08
2.81011e-08
2.03535e-08
2.83396e-08
1.91058e-08
2.84903e-08
1.80802e-08
2.85559e-08
1.64353e-08
2.85527e-08
1.46751e-08
2.84975e-08
1.31816e-08
1.1814e-08
2.83954e-08
-3.89366e-08
2.02098e-08
-3.78188e-08
1.0658e-08
-3.64674e-08
1.10462e-08
-3.50789e-08
1.13074e-08
-3.35063e-08
1.24595e-08
-3.18286e-08
1.29935e-08
-3.01015e-08
1.31123e-08
-2.83943e-08
1.27724e-08
-2.66605e-08
1.28028e-08
-2.49053e-08
1.28989e-08
-2.31496e-08
1.28076e-08
-2.14132e-08
1.2651e-08
-1.97039e-08
1.24757e-08
-1.8075e-08
1.19204e-08
-1.64842e-08
1.16154e-08
-1.47905e-08
1.23411e-08
-1.28106e-08
1.41943e-08
-1.07319e-08
1.49527e-08
-8.64547e-09
1.50767e-08
-6.62651e-09
1.4788e-08
-4.67815e-09
1.44146e-08
-2.73571e-09
1.44061e-08
-7.67218e-10
1.44123e-08
1.39207e-09
1.47712e-08
3.76111e-09
1.5351e-08
6.19162e-09
1.63113e-08
8.41229e-09
1.72321e-08
1.04303e-08
1.78903e-08
1.20522e-08
1.88164e-08
1.20037e-08
1.95295e-08
8.6139e-09
1.93258e-08
7.06128e-09
1.78352e-08
6.65359e-09
1.73812e-08
6.77652e-09
1.7212e-08
7.27082e-09
1.71224e-08
7.98104e-09
1.71367e-08
8.72124e-09
1.59324e-08
9.39587e-09
1.41626e-08
1.00306e-08
1.33576e-08
1.06783e-08
1.36566e-08
1.13578e-08
1.42157e-08
1.20827e-08
1.50418e-08
1.28871e-08
1.65473e-08
1.37727e-08
1.81041e-08
1.46773e-08
1.87698e-08
1.55619e-08
1.90083e-08
1.64229e-08
1.92197e-08
1.72455e-08
1.90987e-08
1.80115e-08
1.88368e-08
1.87606e-08
1.96147e-08
1.95044e-08
2.05113e-08
2.02394e-08
2.11416e-08
2.09737e-08
2.15765e-08
2.1706e-08
2.16866e-08
2.23918e-08
2.07998e-08
2.30256e-08
1.99763e-08
2.36246e-08
1.95895e-08
2.42027e-08
1.94895e-08
2.47857e-08
1.97961e-08
2.53601e-08
1.9733e-08
2.59106e-08
1.94657e-08
2.64176e-08
1.89818e-08
2.69612e-08
2.05887e-08
2.74971e-08
2.20065e-08
2.79644e-08
2.29149e-08
2.82922e-08
2.19596e-08
2.85025e-08
2.06046e-08
2.86315e-08
1.94797e-08
2.86816e-08
1.77014e-08
2.8668e-08
1.5806e-08
2.8605e-08
1.42041e-08
1.27424e-08
2.84974e-08
-4.55689e-08
2.19839e-08
-4.41753e-08
1.16771e-08
-4.25175e-08
1.21241e-08
-4.08166e-08
1.24084e-08
-3.89066e-08
1.36559e-08
-3.68803e-08
1.42359e-08
-3.48057e-08
1.43464e-08
-3.27643e-08
1.39665e-08
-3.07007e-08
1.39745e-08
-2.86174e-08
1.40895e-08
-2.65389e-08
1.40175e-08
-2.44877e-08
1.38816e-08
-2.24744e-08
1.37025e-08
-2.0561e-08
1.3106e-08
-1.86995e-08
1.27747e-08
-1.67247e-08
1.35683e-08
-1.44282e-08
1.55925e-08
-1.20251e-08
1.64313e-08
-9.62368e-09
1.65826e-08
-7.30277e-09
1.62768e-08
-5.06722e-09
1.58946e-08
-2.85211e-09
1.59029e-08
-6.0281e-10
1.58722e-08
1.92922e-09
1.6325e-08
4.75436e-09
1.6999e-08
7.64116e-09
1.81645e-08
1.0235e-08
1.92307e-08
1.2523e-08
1.99156e-08
1.42436e-08
2.09267e-08
1.37027e-08
2.1586e-08
9.2957e-09
2.05378e-08
7.60101e-09
1.92707e-08
7.24904e-09
1.87976e-08
7.46389e-09
1.86474e-08
8.07052e-09
1.85818e-08
8.89096e-09
1.86286e-08
9.7258e-09
1.73621e-08
1.04756e-08
1.54745e-08
1.11737e-08
1.46228e-08
1.18798e-08
1.4962e-08
1.2615e-08
1.55695e-08
1.3394e-08
1.64597e-08
1.42534e-08
1.80818e-08
1.51939e-08
1.97497e-08
1.61495e-08
2.04514e-08
1.70785e-08
2.07e-08
1.79776e-08
2.09184e-08
1.88322e-08
2.07736e-08
1.9623e-08
2.04907e-08
2.03906e-08
2.13442e-08
2.11472e-08
2.23185e-08
2.18896e-08
2.29973e-08
2.26269e-08
2.34562e-08
2.33582e-08
2.3562e-08
2.40389e-08
2.26008e-08
2.4664e-08
2.17182e-08
2.52524e-08
2.1307e-08
2.5819e-08
2.12007e-08
2.63909e-08
2.15206e-08
2.69544e-08
2.1434e-08
2.74939e-08
2.11251e-08
2.79892e-08
2.05836e-08
2.85213e-08
2.22714e-08
2.90454e-08
2.37552e-08
2.94995e-08
2.47027e-08
2.98117e-08
2.36654e-08
3.00055e-08
2.21923e-08
3.01182e-08
2.09578e-08
3.01523e-08
1.90364e-08
3.01226e-08
1.69978e-08
3.00426e-08
1.52829e-08
1.37253e-08
2.99164e-08
-5.06469e-08
2.38438e-08
-4.9045e-08
1.27641e-08
-4.71569e-08
1.32845e-08
-4.52199e-08
1.35916e-08
-4.30534e-08
1.49432e-08
-4.07627e-08
1.55727e-08
-3.84244e-08
1.56725e-08
-3.61282e-08
1.52486e-08
-3.38132e-08
1.52301e-08
-3.14745e-08
1.536e-08
-2.91473e-08
1.53229e-08
-2.68543e-08
1.52189e-08
-2.46019e-08
1.50505e-08
-2.24607e-08
1.43977e-08
-2.03844e-08
1.40286e-08
-1.81874e-08
1.49136e-08
-1.56417e-08
1.71246e-08
-1.29798e-08
1.80558e-08
-1.03278e-08
1.82322e-08
-7.76014e-09
1.79133e-08
-5.28199e-09
1.75275e-08
-2.834e-09
1.75525e-08
-3.11914e-10
1.74481e-08
2.58075e-09
1.80564e-08
5.87206e-09
1.88589e-08
9.2025e-09
2.02616e-08
1.21276e-08
2.14861e-08
1.46458e-08
2.21771e-08
1.63528e-08
2.32873e-08
1.48937e-08
2.40349e-08
9.71236e-09
2.21483e-08
7.99092e-09
2.0797e-08
7.74335e-09
2.03343e-08
8.08147e-09
2.02137e-08
8.81588e-09
2.01768e-08
9.75371e-09
2.02592e-08
1.06891e-08
1.89272e-08
1.15193e-08
1.69139e-08
1.22858e-08
1.60131e-08
1.30564e-08
1.63971e-08
1.38544e-08
1.7056e-08
1.46964e-08
1.8014e-08
1.56221e-08
1.97601e-08
1.6632e-08
2.15447e-08
1.76561e-08
2.2282e-08
1.86495e-08
2.254e-08
1.9609e-08
2.27645e-08
2.05199e-08
2.25914e-08
2.13609e-08
2.2286e-08
2.21745e-08
2.3223e-08
2.2974e-08
2.42814e-08
2.37563e-08
2.50113e-08
2.45312e-08
2.54943e-08
2.52978e-08
2.55941e-08
2.60094e-08
2.45525e-08
2.66619e-08
2.36066e-08
2.72765e-08
2.31689e-08
2.78697e-08
2.30546e-08
2.84707e-08
2.33858e-08
2.90653e-08
2.32703e-08
2.96364e-08
2.29127e-08
3.01622e-08
2.23054e-08
3.07304e-08
2.40706e-08
3.1294e-08
2.56156e-08
3.17864e-08
2.65992e-08
3.21291e-08
2.54753e-08
3.23459e-08
2.38785e-08
3.24761e-08
2.25285e-08
3.25209e-08
2.04577e-08
3.24954e-08
1.82698e-08
3.24137e-08
1.64377e-08
1.47813e-08
3.22798e-08
-5.37816e-08
2.576e-08
-5.20616e-08
1.39062e-08
-5.00013e-08
1.44742e-08
-4.79139e-08
1.48291e-08
-4.55796e-08
1.62826e-08
-4.31183e-08
1.69633e-08
-4.06155e-08
1.70554e-08
-3.81586e-08
1.65827e-08
-3.56898e-08
1.65348e-08
-3.3188e-08
1.66713e-08
-3.07093e-08
1.66845e-08
-2.82599e-08
1.66284e-08
-2.5851e-08
1.64625e-08
-2.35616e-08
1.57728e-08
-2.13419e-08
1.53714e-08
-1.90027e-08
1.63437e-08
-1.62994e-08
1.87337e-08
-1.34674e-08
1.97953e-08
-1.06517e-08
1.9994e-08
-7.91736e-09
1.96609e-08
-5.27016e-09
1.93033e-08
-2.66039e-09
1.9335e-08
1.17698e-10
1.90787e-08
3.32213e-09
1.98857e-08
7.03389e-09
2.09016e-08
1.07206e-08
2.25516e-08
1.38594e-08
2.39236e-08
1.65356e-08
2.46095e-08
1.79517e-08
2.5752e-08
1.54556e-08
2.68252e-08
9.75413e-09
2.37279e-08
8.18202e-09
2.23794e-08
8.05526e-09
2.19532e-08
8.5289e-09
2.18736e-08
9.3847e-09
2.18679e-08
1.04265e-08
2.19876e-08
1.14475e-08
2.05888e-08
1.2345e-08
1.84461e-08
1.31687e-08
1.74961e-08
1.39929e-08
1.79286e-08
1.48433e-08
1.8641e-08
1.57382e-08
1.96687e-08
1.67202e-08
2.15426e-08
1.77901e-08
2.34457e-08
1.88749e-08
2.42168e-08
1.99271e-08
2.44832e-08
2.09436e-08
2.47126e-08
2.19093e-08
2.45075e-08
2.2801e-08
2.41794e-08
2.3663e-08
2.52069e-08
2.45095e-08
2.63548e-08
2.53375e-08
2.71381e-08
2.61572e-08
2.76453e-08
2.69672e-08
2.77379e-08
2.77189e-08
2.66128e-08