/*--------------------------------*- C++ -*----------------------------------*\
| =========                 |                                                 |
| \\      /  F ield         | OpenFOAM: The Open Source CFD Toolbox           |
|  \\    /   O peration     | Version:  2212                                  |
|   \\  /    A nd           | Website:  www.openfoam.com                      |
|    \\/     M anipulation  |                                                 |
\*---------------------------------------------------------------------------*/
FoamFile
{
    version     2.0;
    format      ascii;
    arch        "LSB;label=32;scalar=64";
    class       volVectorField;
    location    "0.00022";
    object      U;
}
// * * * * * * * * * * * * * * * * * * * * * * * * * * * * * * * * * * * * * //

dimensions      [0 1 -1 0 0 0 0];

internalField   nonuniform List<vector> 
2681
(
(-0.84128 1.27662 -2.43612e-18)
(-0.450301 2.08613 0)
(-0.224489 1.78788 -3.27578e-18)
(0.308192 0.113297 -1.10007e-17)
(-0.00794696 1.94384 2.25106e-18)
(0.426591 1.77334 5.55586e-18)
(-0.117321 0.0483366 -2.744e-18)
(-0.30499 0.13701 3.55848e-19)
(-0.329763 0.167785 7.05123e-19)
(-0.347453 0.187795 -1.77329e-19)
(0.287238 0.130454 0)
(0.404256 0.356743 -1.87827e-19)
(0.400559 0.324599 -1.82473e-19)
(-0.56154 0.752499 0)
(0.437376 0.410418 -8.32708e-19)
(-0.475541 0.472771 1.36298e-18)
(-0.514746 0.602024 0)
(0.320818 0.145537 -8.76289e-19)
(0.337058 0.154135 3.88195e-18)
(0.33182 0.156185 -4.48439e-18)
(0.374785 0.253815 -1.44275e-17)
(0.423323 0.303081 1.06061e-18)
(0.41206 0.274462 -4.2383e-18)
(0.397969 0.2542 2.85592e-18)
(0.442204 0.399352 -1.58052e-18)
(0.429234 0.34081 0)
(0.296634 0.141853 -3.33127e-18)
(0.262553 0.108337 3.12382e-19)
(0.310101 0.142918 1.41812e-18)
(0.33898 0.194281 1.69847e-18)
(0.318353 0.160297 -8.036e-19)
(0.360938 0.194613 1.66434e-18)
(0.353533 0.19627 -1.45229e-18)
(0.384887 0.262231 7.34587e-19)
(0.373859 0.232611 0)
(0.395167 0.292925 -1.08799e-18)
(-0.410888 0.345634 2.74636e-18)
(-0.426927 0.348244 3.28997e-19)
(-0.43513 0.37155 -6.5562e-19)
(-0.398361 0.349384 -6.64451e-19)
(-0.411736 0.397894 1.22354e-18)
(-0.390356 0.258774 0)
(-0.396962 0.306297 -3.47154e-19)
(-0.382884 0.251405 0)
(-0.388256 0.257651 0)
(0.0141855 2.17667 0)
(-0.359877 0.210859 1.79661e-19)
(-0.311501 0.150323 -1.40176e-18)
(0.24045 0.0995042 0)
(-0.271818 0.121006 -3.56503e-19)
(-0.291924 0.134695 -1.54393e-22)
(-0.441373 0.40642 2.60704e-18)
(-0.522961 0.578358 1.94529e-19)
(-0.318406 0.137448 -3.55166e-19)
(-0.294755 0.122664 7.22426e-19)
(0.371611 0.30453 1.81871e-19)
(0.372501 0.335186 -5.47918e-19)
(0.250921 0.103502 -3.70993e-19)
(-0.251229 0.108938 0)
(-0.260657 0.11663 7.07782e-19)
(-0.24142 0.105069 1.77789e-19)
(0.358308 0.173427 0)
(0.340673 0.156884 3.11575e-18)
(0.393427 0.195302 3.69377e-18)
(0.386428 0.205527 -6.33414e-19)
(0.441389 0.277203 3.42073e-22)
(0.425171 0.241828 0)
(0.469362 0.338623 0)
(0.455512 0.311956 6.78722e-19)
(0.0932739 0.0367236 0)
(0.438665 0.357585 1.39857e-18)
(-0.474272 0.374458 3.18749e-19)
(-0.478589 0.423948 -1.14713e-18)
(-0.436158 0.254148 -2.05615e-18)
(-0.464809 0.318375 -6.15281e-19)
(0.396262 0.389084 7.55198e-19)
(0.0595112 0.0374604 0)
(-0.559701 0.790514 9.60063e-18)
(-0.205319 1.97155 5.46434e-18)
(0.28784 0.140006 1.52861e-18)
(0.256495 0.116033 -8.51963e-19)
(0.277881 0.126859 2.16513e-18)
(0.318669 0.168232 0)
(0.303355 0.153125 1.58569e-18)
(0.340114 0.202601 1.59347e-18)
(0.328332 0.182721 -1.53441e-19)
(0.360861 0.248474 0)
(0.352924 0.223609 -7.63748e-19)
(0.368592 0.275498 1.0975e-18)
(-0.372071 0.312088 0)
(-0.336689 0.326633 0)
(-0.362832 0.264998 1.4681e-18)
(-0.368964 0.289113 -1.44382e-18)
(-0.355015 0.221771 3.71421e-19)
(-0.357115 0.240492 0)
(-0.328711 0.180972 0)
(-0.342272 0.201778 -3.60456e-19)
(-0.296414 0.145002 0)
(-0.31346 0.161971 0)
(-0.279178 0.129896 7.02843e-19)
(-0.270972 0.110908 -9.07032e-20)
(-0.261054 0.109661 9.0562e-20)
(0.366224 0.364537 7.21642e-19)
(0.466977 0.527926 5.83709e-18)
(0.431906 0.425781 0)
(-0.427967 0.449313 -2.64685e-18)
(0.236941 0.102268 0)
(-0.249748 0.111788 -1.75692e-19)
(-0.231733 0.100649 -8.78512e-19)
(0.507422 0.443228 -8.59044e-18)
(0.529525 0.538358 5.6049e-18)
(0.470941 0.534804 0)
(-0.470707 0.522797 0)
(-0.332609 0.347182 -2.51915e-18)
(-0.355946 0.440394 5.6168e-18)
(-0.321938 0.357908 6.20784e-18)
(-0.281042 0.108033 -7.20456e-19)
(-0.247316 0.09989 1.46501e-18)
(-0.255924 0.0976267 7.34195e-19)
(0.261642 0.434363 -2.80039e-18)
(0.56868 0.692526 1.73608e-18)
(-0.521732 0.493971 -3.83756e-19)
(0.124437 2.02585 -1.13918e-17)
(0.357619 0.397321 1.42176e-18)
(0.390201 0.426024 -1.49318e-18)
(-0.378871 0.396729 0)
(0.218375 0.0935279 0)
(-0.461323 1.88606 8.28212e-18)
(0.229809 0.0951415 6.30334e-20)
(-0.185447 1.32094 0)
(-0.492683 0.730794 2.91896e-18)
(0.320136 0.132961 4.06815e-18)
(0.299643 0.11908 -1.32228e-18)
(0.376802 0.169228 -3.39481e-19)
(0.349261 0.144645 3.47205e-19)
(0.424071 0.21866 -1.94184e-18)
(0.404157 0.190485 6.62078e-19)
(0.471586 0.280508 0)
(0.448211 0.245112 1.30169e-18)
(0.506476 0.37707 6.4101e-19)
(0.491664 0.322164 7.39007e-19)
(0.527931 0.445439 1.20481e-18)
(-0.51317 0.384543 3.14846e-19)
(-0.52205 0.436539 -7.70129e-19)
(-0.477972 0.301311 1.53292e-19)
(-0.496486 0.338853 -9.80474e-23)
(-0.524707 0.559742 1.37118e-18)
(-0.283153 0.122678 3.61443e-19)
(0.0374136 3.3547 2.76882e-17)
(-0.33232 0.13491 -3.50618e-19)
(-0.306795 0.120934 0)
(0.244314 0.107769 1.74513e-19)
(0.206917 0.0887251 1.32939e-18)
(0.22561 0.0966925 0)
(0.275263 0.131942 -7.62043e-19)
(0.261385 0.119999 -1.43219e-18)
(0.301791 0.159994 3.91396e-19)
(0.288081 0.145645 -3.85189e-19)
(0.321671 0.191579 -7.70848e-19)
(0.312753 0.174925 7.3362e-19)
(0.33718 0.232958 0)
(0.332198 0.211059 -3.77537e-19)
(0.345085 0.282027 0)
(0.344514 0.256827 -3.63674e-19)
(0.33833 0.33652 -7.0459e-19)
(0.344535 0.30814 0)
(0.551338 0.71204 0)
(0.328613 0.366981 1.36695e-18)
(-0.341024 0.297561 -7.29735e-19)
(-0.344797 0.33917 1.58175e-18)
(-0.34014 0.247397 -7.24748e-19)
(-0.343073 0.271531 1.4623e-18)
(-0.332178 0.208559 -3.64041e-19)
(-0.337423 0.22719 0)
(-0.310548 0.170314 8.72192e-20)
(-0.322909 0.188934 0)
(-0.282314 0.137935 -1.39078e-18)
(-0.298057 0.1536 7.82941e-19)
(-0.266699 0.124213 7.00474e-19)
(-0.229971 0.0984129 5.39353e-19)
(-0.212711 0.0908368 1.74266e-18)
(-0.221274 0.0946461 1.76685e-19)
(-0.238626 0.0988202 -7.24709e-19)
(-0.103326 0.0340934 3.05171e-18)
(0.230709 0.0875865 -4.27947e-18)
(0.241198 0.0676018 -8.66026e-18)
(-0.58268 0.506544 -1.13391e-18)
(0.518236 0.600059 -3.01409e-18)
(0.496901 0.654413 1.57381e-18)
(0.428581 0.49402 3.03789e-18)
(0.354005 0.43498 -4.25896e-18)
(-0.422923 0.490604 0)
(0.193496 0.0737207 2.49218e-18)
(-0.343946 0.445415 -2.80053e-18)
(-0.311997 0.401667 2.80658e-18)
(-0.291376 0.104633 7.17356e-19)
(-0.264615 0.0938566 -9.07898e-19)
(0.462222 0.579858 1.50079e-18)
(-0.45714 0.563038 3.11837e-18)
(0.199603 0.0860291 0)
(0.191421 0.0791254 -6.61429e-19)
(-0.000663567 -2.929 3.24915e-21)
(-0.000250227 -2.19696 -4.46215e-21)
(0.00314742 -2.19746 -3.62632e-20)
(0.00328483 -2.92952 3.50639e-20)
(-0.193324 0.0821181 -6.93193e-19)
(-0.204435 0.0853835 -6.8988e-19)
(-0.185763 0.0771127 0)
(0.290658 0.405926 6.86618e-18)
(0.580755 0.653697 0)
(-0.120618 0.0427901 -3.26253e-18)
(0.224581 0.0876484 1.39934e-18)
(-0.298125 2.08494 -1.26844e-17)
(-0.0695014 2.22958 7.77318e-18)
(0.155653 2.02225 -3.13711e-18)
(0.391148 0.463365 0)
(-0.386709 0.461519 0)
(-0.354599 2.10885 1.29671e-17)
(0.208516 0.0864228 -1.4311e-18)
(0.608938 1.08421 5.64205e-18)
(0.284214 0.105385 -1.32379e-18)
(0.25925 0.0929214 1.34984e-18)
(0.33697 0.130014 0)
(0.310219 0.115912 1.3348e-18)
(0.395565 0.16719 3.3401e-19)
(0.366192 0.148642 -6.72501e-19)
(0.451096 0.215704 6.54273e-19)
(0.424232 0.190066 4.1726e-22)
(0.504808 0.284523 0)
(0.478325 0.246943 -3.24775e-19)
(0.549156 0.374796 0)
(0.529262 0.32789 -8.12694e-20)
(0.568401 0.489333 -1.28928e-18)
(0.569748 0.426247 0)
(0.574755 0.552387 -6.85097e-19)
(-0.558856 0.394729 6.30673e-19)
(-0.570805 0.452535 9.31391e-19)
(-0.51542 0.296959 -7.82214e-19)
(-0.538311 0.342671 -6.20852e-19)
(-0.463922 0.225046 1.62335e-19)
(-0.490608 0.25832 3.95449e-19)
(-0.404655 0.17123 -8.41187e-20)
(-0.433756 0.195956 0)
(-0.346571 0.133937 -6.73329e-19)
(-0.375411 0.152157 8.60866e-19)
(-0.318738 0.117935 0)
(7.92795e-05 -1.57816 1.10728e-21)
(0.000453343 -1.0518 -1.1109e-21)
(0.000498418 -0.601641 -1.71772e-20)
(-1.01375e-05 -0.214905 5.3578e-20)
(-0.000385219 0.118812 -2.7081e-20)
(-0.000943169 0.407738 -4.53386e-21)
(-0.00217669 0.658604 -7.63407e-20)
(-0.00449556 0.877633 -1.39237e-19)
(-0.0071723 1.07052 -4.48182e-21)
(-0.0104994 1.2422 -7.12054e-20)
(-0.017249 1.24876 0)
(-0.0145918 1.39758 1.41345e-19)
(-0.0217307 1.54169 4.88404e-19)
(-0.0275171 1.55392 8.3332e-19)
(-0.027517 1.40577 -2.82551e-19)
(-0.0020693 0.880725 1.48443e-19)
(-0.00751026 1.07557 2.82622e-19)
(0.000600671 0.408303 2.69176e-20)
(-0.00041305 0.660217 0)
(0.00134874 -0.215034 1.80232e-20)
(0.00126382 0.118809 7.80993e-24)
(0.00215208 -1.05217 1.87785e-20)
(0.00171738 -0.60188 -4.01267e-20)
(0.00290922 -1.5786 -1.1073e-21)
(0.233489 0.101222 0)
(0.217584 0.0898343 0)
(0.262338 0.123247 7.43289e-19)
(0.248382 0.111938 0)
(0.286015 0.148877 -3.8094e-19)
(0.274477 0.135581 -3.7682e-19)
(0.303693 0.17775 3.83585e-19)
(0.297427 0.163034 -3.3574e-19)
(0.316185 0.215769 -7.35907e-19)
(0.314099 0.196436 -3.72942e-19)
(0.321156 0.258888 0)
(0.322049 0.237236 7.22248e-19)
(0.312801 0.306934 -6.91397e-19)
(0.320316 0.282687 3.50928e-19)
(-0.409605 1.90343 1.30478e-17)
(0.302271 0.332223 9.35118e-19)
(0.250537 0.374141 1.51281e-19)
(-0.281057 0.37141 0)
(-0.299542 0.435506 -1.08995e-17)
(-0.230107 0.399797 -1.09304e-17)
(-0.274964 0.412236 -2.44525e-18)
(-0.303487 0.314834 7.50355e-19)
(-0.293388 0.341515 0)
(-0.319339 0.275309 -7.31662e-19)
(-0.316472 0.296807 -3.76185e-19)
(-0.319525 0.230617 -3.60575e-19)
(-0.320976 0.252134 7.21536e-19)
(-0.311938 0.192193 1.06519e-18)
(-0.318172 0.211148 0)
(-0.294424 0.158693 6.09425e-19)
(-0.30492 0.175064 -3.51595e-19)
(-0.26938 0.129283 -6.93247e-19)
(-0.283089 0.143372 -7.60637e-19)
(-0.23928 0.10489 1.7433e-19)
(-0.254761 0.116359 3.47785e-19)
(-0.22239 0.094529 1.74049e-19)
(-0.208808 0.0891563 -7.17578e-19)
(-0.201131 0.0856014 -7.0372e-19)
(-0.223808 0.0899254 -2.28926e-18)
(-0.216406 0.0896387 8.14829e-19)
(-0.238468 0.085523 7.36556e-19)
(-0.231139 0.0885189 0)
(-0.363266 1.62868 0)
(0.503375 2.15852 -6.25467e-18)
(0.412613 0.541482 -1.48409e-18)
(0.337075 0.470234 5.55181e-18)
(-0.330875 0.474913 -5.60872e-18)
(-0.411694 0.536484 -2.95158e-18)
(0.185139 0.0812059 -6.25893e-19)
(0.593604 0.599541 5.52236e-18)
(-0.000138476 -3.80199 4.4502e-21)
(0.00297578 -3.80259 0)
(0.189433 0.0915537 -2.88726e-18)
(1.48849 3.72278 0)
(-0.0119222 1.23768 2.86201e-19)
(-0.016499 1.39086 2.8488e-19)
(0.443086 0.628652 -6.0797e-18)
(-0.123008 1.94373 3.18515e-18)
(-0.268201 0.471951 1.11717e-17)
(-0.44005 0.621361 3.19746e-18)
(0.206946 0.0778803 1.47895e-18)
(0.215413 0.0790455 4.90258e-18)
(-0.00809757 -3.80192 -1.83154e-20)
(0.000281757 -4.85419 -5.38043e-21)
(-0.00901907 -4.85441 3.43257e-20)
(-0.173766 0.0745864 -4.33214e-20)
(-0.167068 0.0701367 2.77756e-19)
(-0.196441 0.0784076 3.27389e-23)
(-0.178681 0.0703679 0)
(0.00227031 1.6952 8.02064e-19)
(-0.0377588 1.67607 -5.43316e-19)
(0.203032 0.420901 1.9426e-18)
(0.23625 0.469418 2.12762e-18)
(0.471824 0.721593 0)
(-0.499754 0.629316 3.49085e-18)
(-0.201109 0.43374 1.59122e-18)
(-0.242537 0.479822 -9.15848e-18)
(0.189554 2.02535 5.8376e-18)
(0.602012 0.911458 6.09581e-18)
(0.59374 0.867871 5.43934e-18)
(-0.029606 0.00667206 -6.23553e-18)
(-0.245476 0.0819451 -5.47957e-19)
(-0.212615 0.07805 -7.39006e-19)
(-0.218434 0.0747926 7.40285e-19)
(0.3709 0.505781 1.71257e-21)
(-0.369471 0.505866 2.85747e-18)
(0.162404 0.0702766 1.38316e-18)
(0.179501 0.077889 -6.87299e-19)
(0.17104 0.0733013 1.36708e-18)
(0.194887 0.0816606 1.40698e-18)
(0.187461 0.0794025 -6.5475e-19)
(0.201504 0.0810192 -1.43285e-18)
(0.294089 0.101067 -6.55761e-19)
(0.264177 0.0986696 6.17715e-19)
(0.352418 0.124012 0)
(0.323174 0.110856 6.64427e-19)
(0.415253 0.159695 -3.32005e-19)
(0.383517 0.139477 0)
(0.478191 0.209637 3.28345e-19)
(0.446752 0.182259 4.94764e-19)
(0.54061 0.279205 -1.61989e-19)
(0.509378 0.24221 -9.7484e-19)
(0.5975 0.374001 -1.32234e-18)
(0.569669 0.322564 1.1325e-18)
(0.629543 0.489706 1.28277e-18)
(0.618675 0.430949 -1.28481e-18)
(0.645273 0.548321 9.82024e-19)
(-0.476788 0.70123 -3.42483e-18)
(-0.615002 0.970855 -1.29692e-17)
(-0.637941 0.51797 -1.19454e-18)
(-0.671203 0.596557 8.50652e-19)
(-0.611043 0.392764 -1.24996e-18)
(-0.632599 0.448777 1.53801e-18)
(-0.553433 0.296223 0)
(-0.582732 0.341874 6.15366e-19)
(-0.49094 0.220504 1.62252e-19)
(-0.522216 0.255651 -7.96487e-20)
(-0.424589 0.165952 3.30072e-19)
(-0.456957 0.191094 0)
(-0.361175 0.127453 -2.15613e-20)
(-0.391926 0.144523 -3.35591e-19)
(-0.30177 0.102159 7.14644e-19)
(-0.330652 0.112995 -8.71993e-19)
(-0.273152 0.0913073 5.41423e-19)
(-0.0048377 -2.19618 0)
(-0.00608842 -2.92848 -1.89192e-20)
(-0.00334445 -1.05113 0)
(-0.00391756 -1.57734 0)
(-0.00331905 -0.214837 5.56163e-22)
(-0.00319655 -0.601297 -5.57255e-22)
(-0.00479727 0.407239 -1.79147e-20)
(-0.00390427 0.118604 3.92064e-21)
(-0.00665042 0.875804 0)
(-0.00555107 0.657565 1.61976e-19)
(-0.00862403 1.06729 -2.87368e-19)
(0.00645 -3.80378 -3.45708e-20)
(0.00766791 -4.85625 -3.55748e-20)
(0.00178125 -4.8548 9.98311e-21)
(0.102093 1.79483 2.89035e-18)
(-0.0542624 1.69039 1.82198e-18)
(0.931341 2.30957 5.3706e-18)
(0.0147969 1.52758 -1.26957e-18)
(0.0060032 1.64749 -1.10488e-18)
(0.00312307 1.25641 -2.86869e-19)
(0.00896231 1.40394 0)
(-0.000342755 0.884817 -1.44001e-19)
(-0.00051835 1.08269 -1.43971e-19)
(0.00307543 0.408808 -5.40665e-20)
(0.00194374 0.661796 -1.80607e-20)
(0.00294227 -0.215239 -2.69333e-20)
(0.00299999 0.118925 5.36173e-20)
(0.003173 -1.05231 -2.22178e-21)
(0.00288055 -0.602046 2.21868e-20)
(0.00434673 -2.19791 1.8045e-20)
(0.00345368 -1.57884 -1.67767e-20)
(0.00545131 -2.93029 3.53771e-20)
(0.223171 0.0954096 -3.63376e-19)
(0.208134 0.0896051 7.19378e-19)
(0.25035 0.11371 -1.85162e-19)
(0.237072 0.103769 -3.64746e-19)
(0.272375 0.13684 1.8744e-19)
(0.261631 0.12482 -9.32621e-20)
(0.289171 0.164739 -3.68802e-19)
(0.281703 0.149991 3.38068e-19)
(0.298665 0.196019 -3.6575e-19)
(0.295786 0.179843 0)
(0.301167 0.233965 0)
(0.301181 0.21407 0)
(0.29109 0.275536 -4.30536e-19)
(0.298102 0.254514 8.72635e-20)
(0.266578 0.318666 -6.61707e-19)
(0.279201 0.297151 2.84532e-22)
(0.240398 0.360225 -2.03946e-18)
(0.2475 0.345237 1.15102e-18)
(0.190507 0.439704 -7.42985e-19)
(0.175185 0.391515 7.09413e-19)
(0.202799 0.373825 0)
(-0.186648 0.462485 5.2569e-18)
(-0.135238 0.390338 -9.64495e-19)
(-0.0961099 0.470248 3.361e-18)
(-0.0748346 0.417003 3.91069e-19)
(-0.162672 0.407513 1.41353e-18)
(-0.248777 0.375475 4.84499e-18)
(-0.172145 0.379239 1.46405e-18)
(-0.256919 0.32711 -1.99162e-18)
(-0.219523 0.340764 1.50385e-19)
(-0.282212 0.285977 1.78967e-18)
(-0.270056 0.306401 1.398e-18)
(-0.298087 0.247198 -3.58757e-19)
(-0.292943 0.266623 -1.08467e-18)
(-0.301231 0.210143 3.55861e-19)
(-0.300715 0.228591 7.15666e-19)
(-0.29483 0.175707 -5.26843e-19)
(-0.299433 0.192176 8.8554e-19)
(-0.279696 0.145521 0)
(-0.288606 0.160145 -5.24709e-19)
(-0.257258 0.119215 0)
(-0.269475 0.131856 -2.1708e-20)
(-0.229413 0.0971204 -4.33745e-19)
(-0.243794 0.107619 3.46693e-19)
(-0.213747 0.0875841 1.73135e-19)
(-0.187199 0.0810853 -2.23484e-20)
(-0.180493 0.0776617 9.85623e-20)
(-0.200308 0.0819659 6.40474e-19)
(-0.193754 0.0813326 -6.19878e-19)
(-0.20656 0.0805206 0)
(0.0125784 2.29069 -1.18778e-17)
(0.701015 1.43958 -1.39734e-17)
(-0.0217419 1.52814 -4.92053e-23)
(0.394274 0.59091 2.97831e-18)
(0.304578 0.514028 5.72547e-18)
(-0.309684 0.511527 0)
(-0.393963 0.584257 -9.07232e-18)
(0.213999 0.0714529 -4.4061e-19)
(0.158121 2.44768 -2.84001e-17)
(0.618309 0.92828 -2.98354e-18)
(-0.123659 0.453241 -5.70145e-18)
(-0.0122406 -3.80202 3.45509e-20)
(-0.0146052 -4.85581 1.08971e-21)
(0.144171 0.0621716 -1.76968e-18)
(0.527464 1.96001 7.13356e-18)
(0.156522 0.0537557 1.18213e-17)
(0.152795 0.0554036 1.95726e-22)
(0.135759 0.0550038 0)
(-0.159814 0.064993 9.89386e-19)
(-0.25223 0.0765223 -9.05964e-19)
(-0.22387 0.0699326 -2.25536e-22)
(-0.103983 1.80802 -4.11475e-18)
(-0.695423 0.978302 5.50481e-18)
(-0.65154 1.12185 5.46423e-18)
(0.0404087 2.41722 6.08877e-18)
(-0.11116 0.0377673 0)
(-0.0208477 1.23092 -5.7635e-19)
(-0.0270236 1.38012 2.82584e-22)
(0.676331 1.20026 5.90543e-18)
(0.821946 0.956423 2.52016e-18)
(0.617553 1.15656 5.6093e-18)
(0.278967 0.516931 -6.3724e-18)
(0.418171 0.681581 0)
(-0.426834 0.675997 0)
(-0.258956 0.507128 0)
(-0.562347 0.943087 1.66865e-17)
(0.00930874 -3.80405 1.09443e-21)
(0.0118277 -4.85763 2.17975e-21)
(-0.699376 1.86619 6.68602e-18)
(-0.003253 2.18476 -2.18532e-18)
(0.13034 2.06063 3.39023e-22)
(0.58858 1.07071 -5.62301e-18)
(0.45297 0.819485 0)
(0.206461 0.49005 -7.62786e-19)
(0.145767 0.406816 0)
(0.159165 0.460574 0)
(-0.0553847 0.426849 1.45294e-18)
(-0.0605458 0.481074 -1.78477e-21)
(-0.204497 0.504421 5.7422e-18)
(-0.46163 0.807302 0)
(-0.284309 1.12017 -1.27801e-17)
(-0.0410145 1.64585 -1.67703e-18)
(0.0404565 0.0106087 2.33411e-17)
(0.431908 1.00702 1.20752e-17)
(0.698731 1.70059 8.0411e-18)
(0.349853 0.550301 -2.91076e-18)
(-0.350598 0.549836 0)
(0.158947 0.070724 -1.54142e-22)
(0.151675 0.067471 -1.04286e-18)
(0.17228 0.0738809 -7.02967e-19)
(0.165889 0.0734087 5.41718e-21)
(0.183258 0.0724197 0)
(0.177993 0.0750498 7.21923e-19)
(0.18698 0.0659414 0)
(0.187075 0.0726349 -1.56399e-18)
(0.194198 0.0617268 0)
(0.262459 0.0844814 -2.74824e-22)
(0.217378 0.0666281 -4.15035e-19)
(0.30549 0.089449 0)
(0.26814 0.073118 -3.07298e-18)
(0.367687 0.117508 1.78081e-19)
(0.336228 0.103037 -1.7722e-19)
(0.434941 0.152394 -3.32388e-19)
(0.400904 0.134112 1.66188e-19)
(0.505479 0.20128 0)
(0.469863 0.175273 -3.80149e-23)
(0.577452 0.270834 9.75483e-19)
(0.541148 0.232049 1.63438e-19)
(0.647722 0.36791 -2.04075e-20)
(0.612644 0.316354 -4.88699e-19)
(0.69919 0.504025 -1.26422e-18)
(0.675249 0.428023 0)
(0.740621 0.70811 1.75138e-18)
(0.714439 0.598741 9.32573e-19)
(0.648052 0.688827 -4.73124e-18)
(-0.731919 0.813945 2.21574e-18)
(-0.700078 0.81892 -4.54028e-18)
(-0.716824 0.58746 0)
(-0.730793 0.69107 -2.0243e-18)
(-0.664206 0.404319 6.03859e-19)
(-0.695265 0.488574 0)
(-0.591558 0.287245 -3.12295e-19)
(-0.62838 0.338542 0)
(-0.518009 0.213065 0)
(-0.554442 0.246782 0)
(-0.444309 0.15842 6.56192e-19)
(-0.479819 0.183119 -6.50191e-19)
(-0.375445 0.121534 3.41998e-19)
(-0.40841 0.137878 1.65687e-19)
(-0.311667 0.0935768 -3.5346e-19)
(-0.34265 0.10706 -8.65012e-19)
(-0.28142 0.0840603 7.1389e-19)
(-0.00899228 -2.19563 -1.52746e-20)
(-0.0105126 -2.928 -3.3431e-20)
(-0.00722278 -1.05089 1.76519e-20)
(-0.00797761 -1.5769 2.22954e-20)
(-0.00717351 -0.21543 0)
(-0.00694546 -0.601337 -1.79409e-20)
(-0.00990942 0.405275 -3.58688e-20)
(-0.00834641 0.117335 -2.24253e-21)
(-0.0143891 0.872792 -1.4388e-19)
(-0.0120904 0.655171 -7.19731e-20)
(-0.0170591 1.06314 4.3332e-19)
(-0.00179359 -6.13971 0)
(0.00711066 -6.14183 3.18758e-20)
(0.0032734 -6.14017 -2.41121e-20)
(-0.130895 0.526548 -3.11835e-18)
(-0.0151182 -6.14303 -2.169e-21)
(-0.0088074 -6.14035 2.16848e-21)
(0.14345 1.88825 0)
(0.115915 2.0025 3.48165e-18)
(0.127206 1.74719 -1.22643e-18)
(0.167038 1.88151 3.02244e-18)
(0.0704954 1.4998 -1.01315e-18)
(0.08009 1.61931 1.458e-18)
(0.0390108 1.22713 1.44548e-19)
(0.0569912 1.37107 1.44613e-19)
(0.0145051 0.879147 -1.443e-19)
(0.024187 1.06505 2.45981e-22)
(0.00598915 0.409206 -7.15848e-20)
(0.00899666 0.661913 2.87919e-19)
(0.00434285 -0.215776 -9.08418e-21)
(0.0048258 0.118362 -9.00956e-21)
(0.00411642 -1.05244 -1.56165e-20)
(0.0040621 -0.6023 1.7739e-20)
(0.00569011 -2.19776 1.7847e-20)
(0.00463002 -1.57881 7.68337e-21)
(0.00722966 -2.93019 -1.73917e-20)
(0.162098 0.0685082 5.39833e-18)
(0.128011 0.0501544 3.10243e-18)
(0.142424 0.0559967 -9.45802e-18)
(0.18649 0.0631242 -4.13387e-19)
(0.171586 0.0680587 -1.33584e-18)
(0.214063 0.0847977 -1.62588e-19)
(0.19972 0.0761107 5.67771e-19)
(0.239472 0.102131 9.24928e-20)
(0.227149 0.0933362 -2.30221e-20)
(0.25999 0.122554 9.783e-20)
(0.249907 0.111748 8.22487e-24)
(0.275319 0.147341 -9.13025e-20)
(0.267953 0.134388 -1.1472e-20)
(0.282788 0.176236 5.40183e-19)
(0.279456 0.160943 1.81853e-19)
(0.283248 0.208943 1.75451e-19)
(0.283743 0.192265 -2.75591e-23)
(0.272016 0.243885 4.30741e-19)
(0.278787 0.226028 -5.23323e-19)
(0.248688 0.281291 8.39401e-20)
(0.260558 0.262354 -5.99092e-19)
(0.21576 0.314786 -2.37168e-18)
(0.232187 0.299624 5.05015e-19)
(0.164272 0.342397 -6.92616e-19)
(0.190306 0.328203 1.37824e-18)
(0.115711 0.421328 0)
(0.10793 0.36672 -6.85376e-19)
(0.134843 0.355439 6.89624e-19)
(0.0752757 0.375662 0)
(0.0457758 0.381103 -1.68365e-19)
(-0.0199414 0.438105 0)
(-0.0185245 0.380216 3.45069e-19)
(0.0107942 0.38305 0)
(-0.0828194 0.363625 -4.46381e-20)
(-0.0504455 0.373854 3.53295e-19)
(-0.139692 0.352069 0)
(-0.124619 0.359394 4.37292e-20)
(-0.205335 0.324285 1.0117e-18)
(-0.168011 0.333677 -1.71668e-19)
(-0.234659 0.289185 -2.22184e-23)
(-0.215437 0.311269 6.5851e-19)
(-0.26294 0.253751 -3.49842e-19)
(-0.250946 0.271424 0)
(-0.279872 0.220348 3.55148e-19)
(-0.273245 0.236969 -7.10555e-19)
(-0.28418 0.187572 1.75957e-19)
(-0.283144 0.203651 1.77105e-19)
(-0.279612 0.157759 -8.7291e-19)
(-0.283284 0.172341 5.2694e-19)
(-0.266504 0.131121 -3.46926e-19)
(-0.274201 0.144016 5.22847e-19)
(-0.246239 0.107896 0)
(-0.257272 0.119072 0)
(-0.220398 0.0882154 7.79306e-19)
(-0.233828 0.0975857 -2.59585e-19)
(-0.189617 0.0717623 -6.43799e-23)
(-0.205785 0.0796703 -3.45505e-19)
(-0.151535 0.050156 -1.22403e-18)
(-0.173917 0.0633053 1.34255e-18)
(-0.143136 0.0582335 9.94736e-19)
(-0.138653 0.0570453 1.8561e-18)
(-0.15391 0.068237 8.71435e-20)
(-0.148128 0.0639785 -4.91327e-19)
(-0.165593 0.0739664 -4.46108e-20)
(-0.159793 0.0708707 4.82288e-19)
(-0.176764 0.0750703 -9.11004e-20)
(-0.171274 0.0743762 7.19098e-19)
(-0.187098 0.0717355 0)
(-0.182036 0.0737735 9.17689e-20)
(-0.196231 0.0647399 6.71474e-19)
(-0.19186 0.0686508 -6.93607e-19)
(0.206669 2.13505 -5.77646e-18)
(-0.208761 1.90318 -4.67587e-18)
(-0.462725 0.259857 -1.24922e-18)
(0.918718 1.35597 1.14117e-17)
(-0.0418764 1.51277 -5.75339e-19)
(0.435379 2.3931 1.17969e-17)
(0.644893 1.44925 -6.52385e-18)
(0.561015 1.81633 2.87532e-21)
(0.457652 1.662 8.6466e-18)
(0.453226 1.59763 -9.05351e-18)
(0.292045 0.551052 2.95466e-18)
(0.367975 0.641475 -2.93242e-18)
(0.0107979 0.443104 -6.74135e-19)
(0.0809233 0.432642 -1.86781e-22)
(-0.374682 0.634548 1.23707e-17)
(-0.29051 0.552914 0)
(-0.572484 1.11346 -1.81435e-17)
(0.831928 0.82817 -4.7425e-18)
(-0.604855 1.19621 -1.06597e-18)
(0.0518062 0.0187468 -5.69028e-18)
(-0.135194 1.66063 -1.99228e-17)
(-0.794356 1.03216 3.21153e-19)
(-0.840764 0.770054 2.31545e-18)
(0.0130668 -6.1447 -3.55456e-20)
(0.482943 2.0577 3.05225e-18)
(0.240178 2.0594 -2.40612e-21)
(0.112182 0.0458934 7.64653e-19)
(0.106191 0.0402717 4.14713e-22)
(0.121433 0.0441105 3.91607e-18)
(-0.0199596 2.40154 1.37881e-17)
(0.504181 1.18507 -1.22999e-17)
(0.394245 0.738115 0)
(0.233906 0.544426 3.026e-18)
(0.124682 0.478203 -8.72649e-20)
(-0.0189119 0.500344 0)
(-0.231826 0.549707 -3.20131e-21)
(-0.404035 0.732085 -9.94706e-18)
(-0.470927 1.00188 -6.53802e-18)
(0.164086 0.0625181 -5.78329e-19)
(0.167713 0.0579809 1.92959e-19)
(-0.0705836 1.74318 5.46797e-19)
(0.566326 1.6801 3.30344e-18)
(-0.473818 4.12888 -7.37985e-18)
(0.241829 2.29101 1.74629e-17)
(-0.160318 0.53926 0)
(0.252764 1.62932 7.51423e-18)
(0.10976 2.01614 -1.45152e-17)
(0.00172987 1.96167 -4.43481e-18)
(0.46353 1.05616 -1.2515e-17)
(0.199683 1.70456 -1.09189e-20)
(0.43535 0.885297 -1.90272e-17)
(0.175824 0.514879 7.24047e-19)
(-0.0806252 0.544766 -2.81163e-18)
(-0.439098 0.843252 -3.83581e-18)
(-0.16903 0.060186 9.29075e-20)
(-0.200244 0.0582764 -3.47031e-19)
(-0.17216 0.054927 2.78514e-19)
(-0.0132842 -7.74231 0)
(-0.0164062 -6.14597 3.405e-20)
(-0.0175706 -7.7465 0)
(-0.0571571 1.62868 2.28965e-18)
(-0.123063 0.0540379 3.42124e-19)
(0.4014 0.808307 1.34767e-20)
(-0.137561 1.13294 -5.85363e-18)
(0.523278 1.53388 -4.22439e-18)
(-0.385803 0.20684 -1.39154e-18)
(-0.438145 0.268183 8.9908e-19)
(0.326335 0.594728 2.90736e-18)
(0.047766 0.439686 8.42112e-19)
(-0.329284 0.595139 -5.93055e-18)
(-0.508559 1.13822 -7.74587e-21)
(0.125659 0.0569772 1.43719e-18)
(0.119179 0.0519255 -7.38987e-19)
(0.138176 0.0649659 6.10872e-19)
(0.132055 0.0617689 0)
(0.149397 0.0678065 3.2904e-23)
(0.14398 0.0677048 -2.6189e-19)
(0.158474 0.0673116 0)
(0.154245 0.0692282 -3.58242e-19)
(0.161795 0.0664889 -3.78856e-19)
(0.198616 0.0573502 3.86856e-19)
(0.258759 0.0678106 2.88942e-18)
(0.226167 0.062619 0)
(0.315251 0.0845936 8.9963e-23)
(0.285246 0.078806 -3.38768e-19)
(0.382072 0.10696 -1.05368e-20)
(0.348324 0.0947662 1.73853e-19)
(0.454253 0.141094 8.31081e-20)
(0.417418 0.122126 1.72671e-19)
(0.532189 0.188655 8.23887e-20)
(0.49252 0.1623 -5.78204e-19)
(0.614772 0.254997 -9.78142e-19)
(0.573293 0.220026 4.93472e-19)
(0.699664 0.353095 2.66612e-18)
(0.656953 0.297991 -1.30463e-18)
(0.772323 0.498396 0)
(0.736747 0.420001 -1.28565e-18)
(0.827174 0.697473 1.81904e-18)
(0.803287 0.590764 0)
(0.839547 0.841766 4.49649e-18)
(0.0597763 1.649 -7.00684e-18)
(-0.814121 0.907775 -3.2454e-21)
(-0.795785 0.541154 0)
(-0.822485 0.646949 0)
(-0.718212 0.382812 -1.2232e-18)
(-0.760135 0.454868 0)
(-0.629088 0.272535 9.68015e-23)
(-0.674479 0.322342 1.54839e-18)
(-0.543987 0.197769 0)
(-0.586472 0.231668 3.97579e-20)
(-0.463164 0.147598 0)
(-0.50216 0.171102 1.6257e-19)
(-0.388748 0.111132 -1.68527e-19)
(-0.424492 0.127928 1.65168e-19)
(-0.321204 0.0866721 0)
(-0.354097 0.0977468 6.87499e-19)
(-0.258662 0.0694361 4.49079e-19)
(-0.289377 0.0771844 -1.77281e-19)
(-0.228973 0.0632531 -3.89443e-19)
(-0.0128806 -3.80238 0)
(-0.0144231 -4.85716 -3.66305e-20)
(-0.0104637 -2.19547 -3.71578e-20)
(-0.0115133 -2.92798 1.0982e-21)
(-0.0092132 -1.05102 -2.23472e-20)
(-0.00957296 -1.57677 4.44392e-20)
(-0.0104535 -0.216803 1.88819e-21)
(-0.00956199 -0.601964 3.54544e-20)
(-0.0138582 0.402452 6.28022e-20)
(-0.0118385 0.115234 -3.82963e-20)
(-0.0198125 0.867333 -2.8951e-19)
(-0.0164962 0.65138 1.43842e-19)
(-0.0311365 1.22069 5.8051e-19)
(-0.0247301 1.05571 -1.44744e-19)
(-0.0545819 1.49331 5.83415e-19)
(-0.0414926 1.36616 -1.74669e-18)
(0.00524697 -7.73988 2.15767e-21)
(0.0138591 -6.147 0)
(0.0148646 -7.74727 4.31781e-21)
(0.0133913 -7.74347 -8.28082e-21)
(-0.00223211 -7.73725 2.15725e-21)
(0.00485263 -7.73782 1.68606e-20)
(-0.0101489 -7.73887 -2.15743e-21)
(0.187738 1.84916 0)
(0.193582 1.94968 -2.98556e-18)
(0.116237 1.71549 -1.26523e-18)
(0.16196 1.79501 0)
(0.0689097 1.48594 -7.37919e-19)
(0.0857426 1.60544 -3.0113e-19)
(0.0472091 1.21484 4.36399e-19)
(0.0566281 1.35792 1.63842e-19)
(0.029328 0.86562 7.21309e-20)
(0.038429 1.05224 -1.45508e-19)
(0.0138352 0.403043 -8.98243e-20)
(0.0203306 0.650746 7.23772e-20)
(0.0073971 -0.216482 0)
(0.00979745 0.116307 5.37827e-20)
(0.00558084 -1.05235 8.9534e-21)
(0.00591567 -0.602707 -1.78372e-20)
(0.00672615 -2.19699 -2.20558e-21)
(0.0058786 -1.57834 -8.78776e-21)
(0.0100092 -3.80375 -3.61277e-20)
(0.00812711 -2.92944 1.09866e-21)
(0.0117876 -4.85839 3.21326e-20)
(0.151491 0.0512457 0)
(0.136951 0.0480755 2.39829e-18)
(0.177981 0.0608915 -8.00722e-19)
(0.163719 0.0543334 -4.13666e-19)
(0.205974 0.0739346 0)
(0.192825 0.066672 7.67249e-19)
(0.2298 0.089738 3.72029e-19)
(0.218166 0.081626 7.76098e-23)
(0.248795 0.108283 8.60357e-20)
(0.239578 0.0985232 1.82979e-19)
(0.262316 0.129264 1.8168e-19)
(0.25614 0.118362 -1.81995e-19)
(0.2688 0.154279 -1.78676e-19)
(0.266057 0.141209 0)
(0.267433 0.182624 6.62343e-23)
(0.268767 0.168191 -3.53459e-19)
(0.255545 0.212222 1.94034e-19)
(0.26249 0.197227 5.22427e-19)
(0.23284 0.243071 8.47171e-20)
(0.245159 0.227707 -3.64048e-19)
(0.199668 0.270657 3.38632e-19)
(0.217201 0.257453 -1.69717e-19)
(0.153746 0.294095 0)
(0.17775 0.28268 -1.70748e-19)
(0.100485 0.313899 -6.80446e-19)
(0.126587 0.304798 0)
(0.0425997 0.325075 -1.70098e-19)
(0.0717332 0.320905 7.64353e-19)
(-0.0174571 0.324885 -6.87537e-19)
(0.0111669 0.326507 3.41931e-19)
(-0.078227 0.313478 -8.75018e-19)
(-0.0478383 0.320127 3.48061e-19)
(-0.133265 0.299875 -2.58317e-19)
(-0.109172 0.307644 3.91197e-19)
(-0.184421 0.27853 2.35767e-22)
(-0.158841 0.288643 -1.71385e-19)
(-0.219683 0.250986 -2.18925e-22)
(-0.20244 0.265903 -1.35308e-18)
(-0.246804 0.220781 -1.38847e-18)
(-0.234932 0.235899 1.37853e-18)
(-0.263887 0.191822 -8.79717e-20)
(-0.256931 0.206047 6.96604e-19)
(-0.26954 0.164347 1.74853e-19)
(-0.267924 0.178001 -1.75652e-19)
(-0.266374 0.138676 -3.47997e-19)
(-0.269195 0.151205 -3.4919e-19)
(-0.254927 0.115637 -4.33306e-20)
(-0.261679 0.126788 3.47617e-19)
(-0.236466 0.0955183 1.17277e-22)
(-0.246541 0.105202 3.46732e-19)
(-0.21235 0.0785157 0)
(-0.22495 0.0865897 -4.75779e-19)
(-0.183446 0.065182 -6.71905e-23)
(-0.198537 0.0713012 -5.205e-19)
(-0.148143 0.0646804 5.61235e-18)
(-0.16825 0.0617376 -6.96155e-19)
(-0.13363 0.0626342 -8.72522e-20)
(-0.128541 0.0583629 8.62047e-19)
(-0.143661 0.0677743 -3.55204e-19)
(-0.13869 0.0652349 -4.38626e-19)
(-0.153229 0.0691657 7.26166e-19)
(-0.148512 0.068634 8.95166e-20)
(-0.161815 0.0665253 -1.84602e-19)
(-0.157653 0.0681221 9.16522e-19)
(-0.165597 0.0636719 0)
(-0.118834 0.0354335 0)
(-0.247718 3.72595 -1.30062e-17)
(-0.559252 2.30527 -5.06917e-18)
(0.0997091 0.0336612 1.56286e-18)
(0.320883 1.51536 -1.51205e-17)
(0.488224 1.2966 2.02133e-17)
(-0.234878 1.53011 1.33196e-17)
(0.336611 0.690979 2.97216e-18)
(0.263323 0.593477 -5.91536e-18)
(0.0890992 0.492322 -4.2688e-19)
(0.00557403 0.508514 2.06037e-22)
(-0.264245 0.59566 -5.8159e-18)
(-0.349392 0.687843 -3.12211e-18)
(-0.454474 1.04088 -5.12079e-21)
(-0.410689 0.227274 2.31232e-18)
(0.171056 0.0539031 0)