/*--------------------------------*- C++ -*----------------------------------*\
| =========                 |                                                 |
| \\      /  F ield         | OpenFOAM: The Open Source CFD Toolbox           |
|  \\    /   O peration     | Version:  2212                                  |
|   \\  /    A nd           | Website:  www.openfoam.com                      |
|    \\/     M anipulation  |                                                 |
\*---------------------------------------------------------------------------*/
FoamFile
{
    version     2.0;
    format      ascii;
    arch        "LSB;label=32;scalar=64";
    class       volScalarField;
    location    "0.000135";
    object      T;
}
// * * * * * * * * * * * * * * * * * * * * * * * * * * * * * * * * * * * * * //

dimensions      [0 0 0 1 0 0 0];

internalField   nonuniform List<scalar> 
26145
(
24.6341
32.2654
29.3563
30.3816
30.5587
30.7785
30.8492
30.9084
30.927
30.3836
29.3779
28.5864
28.0622
27.7538
27.5051
27.3292
27.1577
26.9502
26.7518
26.5674
26.3596
26.1838
25.9753
25.7754
25.5886
25.3683
25.1644
24.9395
24.7208
24.5093
24.2868
24.0864
23.872
23.6759
23.4563
23.2566
23.0541
22.8872
22.735
22.5821
22.4398
22.2928
22.1343
21.9786
21.8117
21.6593
21.5123
21.3799
21.2617
21.1655
21.0641
21.0091
20.9402
20.892
20.8956
20.8987
20.9054
20.9163
20.9365
20.9758
21.0155
21.0601
21.0863
21.1443
21.1156
21.2193
20.9772
21.5013
20.3891
22.5679
18.3479
25.2849
23.7753
32.0099
28.6622
29.9943
29.976
30.2484
30.3081
30.3334
30.2905
29.3232
28.2559
27.5041
27.1195
26.8663
26.6778
26.5487
26.4107
26.2396
26.0582
25.9303
25.7369
25.5956
25.4273
25.2583
25.1183
24.9088
24.7562
24.5552
24.3762
24.1897
23.9925
23.8253
23.6297
23.4648
23.2611
23.0928
22.9034
22.7555
22.6159
22.4844
22.3505
22.2135
22.0693
21.9126
21.744
21.5924
21.4474
21.3137
21.1962
21.0913
20.9911
20.9185
20.8489
20.7796
20.7705
20.7678
20.7616
20.7643
20.7751
20.8003
20.8366
20.8851
20.9266
20.998
20.991
21.0377
20.9598
21.0134
20.9155
21.0385
20.0817
22.5037
23.2147
31.2459
28.0874
29.4529
29.4807
29.7248
29.7306
29.7435
29.6727
28.0702
27.1176
26.6418
26.3478
26.1902
26.0677
25.956
25.8255
25.693
25.5319
25.4186
25.2592
25.1305
24.9991
24.8469
24.7151
24.5383
24.3985
24.2216
24.0599
23.8966
23.7165
23.5722
23.3913
23.2468
23.0553
22.9068
22.7275
22.5939
22.4612
22.3374
22.2125
22.0777
21.9616
21.8135
21.6538
21.5094
21.3713
21.2322
21.1223
21.0064
20.913
20.8277
20.7569
20.6821
20.6543
20.6484
20.6317
20.6227
20.6249
20.6339
20.6552
20.6966
20.7344
20.8035
20.8041
20.8191
20.8334
20.8897
20.9748
21.1791
21.1935
22.5657
23.0833
31.0418
27.8695
29.1844
29.267
29.5021
29.5287
29.4958
29.0334
27.4487
26.564
26.1576
25.9434
25.8286
25.738
25.6493
25.5187
25.4101
25.2774
25.1428
25.029
24.8735
24.7717
24.6207
24.484
24.3372
24.1791
24.0363
23.8694
23.7348
23.5598
23.4269
23.2527
23.1221
22.9353
22.7982
22.6262
22.4998
22.3708
22.2545
22.1316
21.9967
21.8883
21.7421
21.5832
21.4437
21.3137
21.173
21.0752
20.9532
20.8714
20.7865
20.7169
20.6405
20.6189
20.6091
20.5943
20.5674
20.562
20.5671
20.5814
20.6134
20.6483
20.717
20.7249
20.7339
20.7589
20.8337
20.9308
21.1198
21.1872
21.6151
23.0266
30.9998
27.8967
29.289
29.2991
29.5194
29.5276
29.4975
27.9836
26.7943
26.2016
25.8868
25.7432
25.6464
25.5535
25.4721
25.3527
25.2361
25.1344
24.9798
24.8887
24.7344
24.6372
24.4941
24.361
24.2297
24.0682
23.9415
23.7711
23.6467
23.4741
23.3494
23.1743
23.0511
22.8641
22.7333
22.5635
22.4401
22.3122
22.1988
22.0778
21.9394
21.8369
21.6917
21.5358
21.3961
21.2733
21.1291
21.0377
20.9107
20.8404
20.7499
20.6834
20.6097
20.5912
20.5831
20.5646
20.5346
20.5239
20.5279
20.5477
20.5817
20.6146
20.6768
20.6746
20.6808
20.7073
20.7759
20.8755
21.0821
21.1788
21.231
23.0859
31.128
28.0124
29.4159
29.4929
29.7619
29.794
29.4356
27.5551
26.5558
26.0697
25.8187
25.6915
25.6016
25.5103
25.4251
25.3127
25.1892
25.0904
24.9326
24.8404
24.6871
24.5825
24.4397
24.3003
24.1705
24.0017
23.8768
23.6978
23.5727
23.3971
23.2732
23.0939
22.9713
22.7832
22.6553
22.485
22.3637
22.2372
22.1258
22.0086
21.8705
21.7713
21.6253
21.4773
21.3346
21.2205
21.0733
20.9863
20.8555
20.7966
20.6955
20.6411
20.5702
20.5416
20.5359
20.52
20.4995
20.4885
20.4916
20.5112
20.5476
20.5831
20.6532
20.6312
20.6366
20.6637
20.7339
20.8188
20.9999
21.106
21.0409
23.132
31.2621
28.1587
29.4938
29.5249
29.8035
29.8602
28.7967
27.0783
26.2544
25.8597
25.6626
25.5584
25.483
25.399
25.3035
25.2215
25.0794
24.9921
24.8383
24.7389
24.5979
24.4847
24.348
24.2078
24.0829
23.9132
23.7971
23.6173
23.4981
23.3217
23.2058
23.0269
22.9089
22.7229
22.5981
22.4304
22.3118
22.1872
22.0769
21.9623
21.8307
21.7296
21.5797
21.4431
21.2957
21.1882
21.0401
20.9509
20.8254
20.7581
20.6655
20.6055
20.547
20.5005
20.4933
20.4792
20.4712
20.4591
20.4601
20.4733
20.5082
20.5572
20.6
20.5821
20.5859
20.605
20.6424
20.7151
20.8358
20.9228
20.876
23.2931
31.4952
28.4219
29.7379
29.6928
29.8892
29.972
28.1149
26.8169
26.1696
25.8443
25.6845
25.5785
25.4961
25.4138
25.3087
25.2242
25.0769
24.9768
24.8301
24.7129
24.5816
24.4521
24.3196
24.1719
24.0474
23.8748
23.7597
23.5763
23.4558
23.2736
23.1565
22.9739
22.8546
22.6669
22.539
22.3696
22.2503
22.1257
22.0139
21.8998
21.7761
21.6703
21.5165
21.3898
21.2389
21.1349
20.9883
20.8954
20.784
20.6905
20.6334
20.5523
20.5007
20.4561
20.4489
20.4436
20.4326
20.4212
20.4215
20.432
20.4604
20.5114
20.5279
20.5176
20.5092
20.5127
20.5179
20.5329
20.5717
20.5821
20.5805
23.3653
31.5257
28.5242
29.9898
29.9349
30.0087
29.905
27.9404
26.6668
26.0524
25.7531
25.613
25.5041
25.4233
25.348
25.2411
25.1622
25.0131
24.9125
24.7722
24.65
24.5269
24.3895
24.2624
24.1128
23.9914
23.8201
23.7072
23.5247
23.4093
23.2276
23.1135
22.9329
22.8151
22.6288
22.5013
22.3329
22.2129
22.0887
21.9748
21.8578
21.7429
21.63
21.4706
21.3513
21.1956
21.0912
20.9465
20.8483
20.7478
20.6344
20.5919
20.5041
20.4483
20.4053
20.3947
20.393
20.3782
20.3646
20.365
20.3753
20.4004
20.4532
20.4666
20.4628
20.4518
20.4188
20.4058
20.4073
20.4071
20.3691
20.3747
23.4988
31.5707
28.6363
30.166
30.1647
30.2427
29.594
27.7389
26.5736
26.0152
25.7399
25.6116
25.5116
25.4256
25.3556
25.2447
25.162
25.0132
24.903
24.7636
24.6354
24.5156
24.3701
24.2472
24.0924
23.9719
23.7951
23.6802
23.4949
23.3793
23.1928
23.0784
22.898
22.7784
22.5914
22.4619
22.2932
22.1706
22.0453
21.9303
21.8069
21.6992
21.5793
21.4157
21.3017
21.1416
21.0365
20.8942
20.7908
20.6997
20.5747
20.5367
20.4504
20.4008
20.356
20.3419
20.3426
20.3289
20.3113
20.3066
20.3133
20.3303
20.3722
20.3748
20.3661
20.3483
20.2951
20.2742
20.2495
20.2019
20.0946
20.018
23.613
31.6644
28.655
30.2089
30.2271
30.318
28.9232
27.3305
26.3644
25.9003
25.6624
25.5492
25.465
25.3711
25.3109
25.1985
25.1162
24.9742
24.8588
24.7274
24.5985
24.48
24.3299
24.214
24.0568
23.94
23.7644
23.6563
23.4701
23.3574
23.1698
23.0562
22.8747
22.7549
22.5694
22.4405
22.2718
22.1471
22.0219
21.9076
21.7739
21.6724
21.5447
21.3769
21.2646
21.0977
20.9895
20.8462
20.7363
20.648
20.5181
20.4762
20.3889
20.3399
20.2912
20.2702
20.2725
20.2569
20.2437
20.2423
20.247
20.2607
20.2985
20.3032
20.2916
20.2717
20.2224
20.1588
20.0851
19.9879
19.8407
19.749
23.7461
31.8866
28.7263
30.2202
30.2649
30.4017
28.368
27.0578
26.2262
25.837
25.6308
25.5353
25.4631
25.3725
25.3081
25.1929
25.113
24.975
24.8564
24.7284
24.5904
24.4749
24.3243
24.212
24.0499
23.9333
23.7506
23.6423
23.4512
23.3376
23.1469
23.0377
22.8508
22.7294
22.5435
22.4122
22.2422
22.1158
21.9878
21.8728
21.7338
21.6333
21.4987
21.3308
21.218
21.046
20.9368
20.7915
20.6816
20.5916
20.4632
20.417
20.3306
20.2803
20.2305
20.2044
20.2009
20.1859
20.1759
20.1662
20.1669
20.1751
20.1961
20.2005
20.1877
20.1661
20.1185
20.0188
19.8842
19.7596
19.594
19.4967
23.8215
32.1106
28.8565
30.1881
30.2652
30.508
28.0921
26.9186
26.134
25.7882
25.5987
25.5038
25.4371
25.3339
25.2739
25.1727
25.0837
24.9515
24.8318
24.7029
24.569
24.4608
24.3074
24.1977
24.0323
23.9192
23.7392
23.634
23.4443
23.3315
23.1396
23.0289
22.8407
22.72
22.5341
22.4
22.2275
22.1004
21.9669
21.8498
21.7148
21.6071
21.4652
21.2965
21.1833
21.0046
20.892
20.7433
20.6288
20.5363
20.4083
20.3523
20.2663
20.2146
20.1643
20.1331
20.1182
20.1098
20.1031
20.0892
20.0793
20.0848
20.0997
20.0967
20.0855
20.062
20.0152
19.9063
19.738
19.5952
19.4152
19.3014
23.8715
32.2702
29.0288
30.125
30.1931
30.5583
28.057
26.8222
26.0589
25.7367
25.5643
25.4704
25.4092
25.3151
25.2609
25.1633
25.0701
24.9475
24.8246
24.7027
24.569
24.4603
24.3035
24.195
24.03
23.9224
23.7402
23.6315
23.4315
23.3183
23.128
23.0173
22.8258
22.7066
22.5178
22.38
22.2058
22.0777
21.937
21.8137
21.6855
21.5681
21.4209
21.2513
21.1365
20.954
20.8396
20.6897
20.5705
20.4825
20.3494
20.2911
20.2067
20.1533
20.1054
20.0687
20.0437
20.0404
20.0359
20.025
20.0028
19.9942
20.0032
20.0003
19.9886
19.9574
19.9036
19.7847
19.5743
19.4094
19.2032
19.0802
23.8613
32.3541
29.1957
30.2333
30.1507
30.5462
27.9932
26.7487
26.0239
25.7124
25.5494
25.4541
25.396
25.3073
25.2472
25.1475
25.047
24.9304
24.8004
24.6866
24.553
24.4445
24.2907
24.1914
24.0242
23.9228
23.7364
23.6313
23.432
23.3257
23.1332
23.0208
22.8272
22.7076
22.516
22.3762
22.1965
22.0645
21.9208
21.7859
21.6673
21.5385
21.3864
21.2155
21.0989
20.9116
20.7935
20.6439
20.5166
20.4314
20.2984
20.2274
20.1498
20.0867
20.0416
20.0034
19.9686
19.9647
19.9626
19.948
19.931
19.9005
19.9004
19.897
19.8854
19.851
19.7994
19.6899
19.4481
19.2737
19.0585
18.8996
23.8642
32.3402
29.2642
30.4376
30.2161
30.173
27.7623
26.6204
25.9548
25.6725
25.529
25.4275
25.3686
25.2847
25.2175
25.1188
25.0213
24.9092
24.7813
24.673
24.5337
24.4292
24.2779
24.1824
24.0144
23.9178
23.729
23.6289
23.4328
23.3302
23.135
23.0203
22.8248
22.7029
22.5045
22.3592
22.1753
22.04
21.8955
21.7489
21.6343
21.4967
21.3431
21.1708
21.0522
20.8621
20.7436
20.5905
20.4681
20.3695
20.2571
20.1637
20.0997
20.026
19.9827
19.944
19.914
19.899
19.8961
19.879
19.8685
19.8405
19.823
19.8005
19.7923
19.7544
19.6835
19.5581
19.2891
19.0893
18.8901
18.6998
23.915
32.3119
29.283
30.5507
30.2713
29.4243
27.3855
26.4488
25.864
25.6203
25.4991
25.3991
25.3429
25.2609
25.193
25.1002
25.003
24.8952
24.7634
24.6581
24.512
24.4114
24.2589
24.1643
24.0007
23.9061
23.7201
23.6217
23.4266
23.3248
23.1255
23.0131
22.8134
22.6899
22.4822
22.3369
22.152
22.0083
21.864
21.7121
21.5965
21.4506
21.2998
21.125
21.0041
20.8106
20.6931
20.5368
20.4185
20.3054
20.215
20.0985
20.0442
19.9639
19.9238
19.877
19.8508
19.8282
19.8205
19.7968
19.7845
19.7601
19.7377
19.7035
19.6995
19.6643
19.5853
19.4496
19.1789
18.9496
18.7718
18.553
24.033
32.3767
29.3235
30.6217
30.3293
28.9566
27.1309
26.3045
25.8003
25.577
25.4691
25.3765
25.3214
25.2443
25.1767
25.0887
24.987
24.8785
24.745
24.6493
24.4974
24.4028
24.2525
24.1617
23.9981
23.9078
23.7186
23.6213
23.4231
23.3185
23.1139
22.9987
22.7919
22.6662
22.4549
22.3111
22.1217
21.9702
21.826
21.6812
21.558
21.4041
21.257
21.082
20.9572
20.7633
20.6429
20.4886
20.3694
20.2437
20.173
20.0401
19.9903
19.9094
19.8741
19.8255
19.8044
19.7758
19.7658
19.7431
19.7312
19.701
19.667
19.6119
19.5929
19.5525
19.4586
19.3083
19.036
18.788
18.6315
18.4227
24.1167
32.4281
29.3634
30.6939
30.4239
28.6135
26.9728
26.2197
25.7681
25.5668
25.4654
25.379
25.3221
25.2481
25.1739
25.0836
24.9769
24.8757
24.7387
24.6399
24.4863
24.3945
24.2441
24.1621
23.9962
23.9068
23.7135
23.6122
23.4079
23.2993
23.0928
22.9738
22.7634
22.6318
22.4171
22.2697
22.0749
21.9181
21.7674
21.6374
21.5019
21.3434
21.2012
21.0235
20.8932
20.7007
20.5787
20.427
20.3106
20.1735
20.1164
19.9805
19.9272
19.8448
19.8133
19.7643
19.7436
19.7125
19.7027
19.6771
19.6693
19.6389
19.6033
19.5437
19.512
19.4759
19.3862
19.2241
18.9562
18.6701
18.5014
18.3024
24.2072
32.503
29.3822
30.729
30.4853
28.4465
26.8737
26.1444
25.75
25.5543
25.4586
25.3754
25.3131
25.2377
25.1608
25.076
24.9651
24.8686
24.7325
24.6367
24.4841
24.3999
24.2466
24.1661
23.9969
23.902
23.7021
23.5916
23.3849
23.2736
23.0628
22.9395
22.7271
22.5885
22.3731
22.2215
22.0212
21.8643
21.7029
21.5852
21.4396
21.2774
21.1388
20.9591
20.8253
20.6325
20.5081
20.3549
20.2427
20.0964
20.045
19.9166
19.8619
19.7808
19.7551
19.7107
19.6921
19.6579
19.6509
19.6305
19.6222
19.5839
19.538
19.4775
19.4193
19.368
19.2727
19.1002
18.8255
18.5516
18.3604
18.1943
24.2313
32.5112
29.3693
30.7354
30.5394
28.3985
26.8329
26.116
25.7345
25.5489
25.4581
25.3742
25.3088
25.2372
25.1573
25.0781
24.9674
24.8743
24.7337
24.6429
24.4879
24.4062
24.251
24.1665
23.9907
23.8862
23.6786
23.566
23.356
23.241
23.0252
22.8978
22.6837
22.5439
22.3292
22.174
21.9693
21.8145
21.6448
21.5326
21.3787
21.216
21.0785
20.8962
20.7577
20.5647
20.4365
20.2859
20.1744
20.0277
19.9752
19.8483
19.7946
19.7193
19.6874
19.6397
19.6196
19.5889
19.5851
19.5707
19.5645
19.5304
19.4863
19.4432
19.3853
19.31
19.2058
19.0101
18.7283
18.4614
18.2408
18.0917
24.2807
32.5481
29.3624
30.6936
30.5454
28.3783
26.7886
26.0492
25.7162
25.5385
25.4523
25.3691
25.3059
25.2392
25.1575
25.0827
24.9706
24.8845
24.7365
24.6493
24.4948
24.4064
24.2487
24.1571
23.9731
23.8638
23.6542
23.5421
23.3294
23.2093
22.9882
22.8617
22.6437
22.4994
22.2807
22.1194
21.9105
21.7535
21.592
21.4744
21.3145
21.1521
21.0144
20.8285
20.6854
20.4916
20.3541
20.2059
20.0849
19.9405
19.8848
19.7627
19.7023
19.6411
19.6055
19.5573
19.54
19.5173
19.5137
19.5036
19.4989
19.4794
19.4229
19.3789
19.3169
19.2312
19.1097
18.9055
18.6417
18.3972
18.1552
18.007
24.2866
32.5547
29.3177
30.6093
30.491
28.304
26.7489
26.0305
25.7037
25.5364
25.4521
25.3718
25.3099
25.2467
25.1661
25.0955
24.9755
24.8925
24.7422
24.6532
24.4973
24.4029
24.2339
24.133
23.939
23.8307
23.6152
23.503
23.2836
23.1612
22.9358
22.8077
22.5885
22.4465
22.2296
22.0656
21.8537
21.6886
21.5403
21.4148
21.2502
21.0926
20.9547
20.7706
20.6253
20.4345
20.2856
20.1399
20.0066
19.8627
19.7966
19.6794
19.6107
19.5567
19.5162
19.4615
19.4364
19.4326
19.4336
19.4328
19.4172
19.4054
19.3565
19.3043
19.2409
19.1533
19.0186
18.809
18.5314
18.298
18.0485
17.9044
24.296
32.5633
29.2831
30.5096
30.2812
28.1486
26.6623
25.9957
25.6829
25.5271
25.4511
25.3749
25.3116
25.2531
25.1736
25.1011
24.9773
24.8905
24.7335
24.6395
24.4734
24.3773
24.2014
24.1019
23.9054
23.7984
23.5804
23.4688
23.2462
23.1229
22.8954
22.7695
22.5503
22.4063
22.1849
22.0195
21.8089
21.6378
21.5007
21.3661
21.198
21.0406
20.8997
20.7137
20.5649
20.3777
20.2188
20.0729
19.9322
19.7894
19.7039
19.5952
19.5073
19.4566
19.412
19.3683
19.3313
19.3323
19.3401
19.3556
19.3496
19.3433
19.3128
19.2481
19.1784
19.0809
18.9426
18.7382
18.461
18.2372
17.9833
17.8263
24.3057
32.5571
29.2479
30.4739
30.0017
27.9836
26.5917
25.974
25.6796
25.5303
25.4552
25.3878
25.3221
25.264
25.1841
25.1083
24.9766
24.8879
24.7206
24.6232
24.4475
24.3507
24.1677
24.0717
23.8716
23.7686
23.5462
23.4373
23.2073
23.0833
22.8507
22.7219
22.5009
22.3581
22.1414
21.9811
21.7857
21.6045
21.4874
21.3444
21.1752
21.0168
20.8716
20.679
20.5194
20.3347
20.1618
20.0129
19.8688
19.7294
19.6263
19.5281
19.4195
19.3747
19.3137
19.271
19.224
19.2243
19.2304
19.2472
19.2492
19.2447
19.2247
19.1685
19.0948
18.9805
18.8299
18.6428
18.3709
18.1573
17.9208
17.7505
24.3329
32.5475
29.2676
30.479
29.668
27.8019
26.5056
25.9372
25.6666
25.5317
25.457
25.3933
25.3305
25.27
25.1814
25.112
24.9639
24.875
24.684
24.5839
24.4026
24.3094
24.1293
24.0334
23.8349
23.7339
23.5132
23.4044
23.1737
23.0572
22.8321
22.7144
22.4989
22.3611
22.1504
21.9929
21.8072
21.6236
21.5126
21.3642
21.1934
21.0318
20.8814
20.6869
20.5196
20.3351
20.1507
19.987
19.8264
19.6863
19.5557
19.4693
19.3502
19.3047
19.2437
19.2065
19.1556
19.1507
19.1548
19.1684
19.171
19.1636
19.141
19.0844
19.0111
18.8912
18.7215
18.5372
18.2695
18.0545
17.8265
17.6436
24.3894
32.6147
29.3568
30.5689
29.4118
27.6627
26.4473
25.9165
25.6646
25.5406
25.4668
25.4047
25.3359
25.2777
25.1727
25.1119
24.9516
24.8521
24.6613
24.5633
24.3829
24.2903
24.1129
24.0146
23.8247
23.7172
23.5041
23.3993
23.1766
23.0628
22.8436
22.7293
22.5179
22.3825
22.1754
22.018
21.8302
21.6566
21.5444
21.3931
21.2274
21.0697
20.9171
20.7233
20.5506
20.3708
20.1846
20.0144
19.8439
19.695
19.5402
19.4431
19.3065
19.2381
19.1636
19.128
19.0764
19.065
19.0698
19.0868
19.0901
19.0858
19.0709
19.0283
18.9643
18.8447
18.6505
18.4706
18.2031
17.979
17.7659
17.5692
24.4755
32.7152
29.4599
30.6565
29.1284
27.4673
26.3809
25.893
25.6528
25.5404
25.4703
25.41
25.3303
25.2761
25.1626
25.0967
24.9259
24.8209
24.6378
24.5428
24.3643
24.2743
24.1008
24.0104
23.8292
23.7269
23.5211
23.4198
23.2065
23.1027
22.8988
22.7908
22.5831
22.4471
22.2396
22.0768
21.8832
21.7064
21.5984
21.4451
21.2838
21.1336
20.983
20.7963
20.6223
20.4491
20.271
20.1028
19.9267
19.7679
19.585
19.4702
19.3208
19.24
19.1539
19.1054
19.0545
19.0209
19.0117
19.0136
19.0143
19.0027
18.9847
18.9423
18.8665
18.752
18.5643
18.3768
18.1263
17.9037
17.716
17.5263
24.5723
32.8788
29.5674
30.7367
28.8968
27.3523
26.3334
25.8749
25.6494
25.5445
25.4755
25.4218
25.3279
25.2783
25.1574
25.0789
24.9169
24.8127
24.6334
24.5444
24.369
24.2817
24.1109
24.0238
23.8481
23.7541
23.5609
23.4645
23.2684
23.1684
22.9662
22.8471
22.6336
22.49
22.2814
22.1146
21.9121
21.7384
21.631
21.4768
21.3171
21.1749
21.0374
20.8698
20.7064
20.5445
20.3729
20.2109
20.0395
19.8882
19.6968
19.5602
19.3844
19.2745
19.1732
19.1112
19.0571
19.0175
19.0022
18.9916
18.9817
18.9551
18.9297
18.8838
18.8036
18.6963
18.4809
18.2791
18.0432
17.8157
17.6319
17.453
24.6718
33.0494
29.6175
30.7771
28.7043
27.2279
26.2655
25.8638
25.6447
25.5477
25.4746
25.4257
25.322
25.2795
25.1632
25.071
24.9103
24.8076
24.635
24.5494
24.3807
24.2992
24.1371
24.0593
23.8932
23.8091
23.6267
23.5361
23.3483
23.2522
23.0574
22.9371
22.7269
22.5828
22.3763
22.2021
21.9924
21.8083
21.6978
21.5398
21.3736
21.2287
21.091
20.9303
20.7688
20.6176
20.4588
20.3164
20.1652
20.0317
19.8555
19.7148
19.5432
19.4069
19.2787
19.1723
19.0974
19.0337
19.0072
18.9928
18.9802
18.9505
18.9071
18.857
18.7556
18.6357
18.4179
18.2095
17.981
17.7486
17.5534
17.3815
24.8096
33.3519
29.7352
30.8794
28.4986
27.147
26.2569
25.8487
25.6515
25.5628
25.482
25.4335
25.3412
25.2831
25.1778
25.0777
24.9153
24.8128
24.6451
24.5637
24.4071
24.335
24.1889
24.1188
23.9683
23.8946
23.7241
23.6378
23.4526
23.3539
23.1568
23.0324
22.8249
22.6852
22.4916
22.335
22.1439
21.9679
21.8767
21.7151
21.5365
21.3851
21.2357
21.0597
20.8819
20.716
20.5428
20.3995
20.2467
20.1157
19.9487
19.8141
19.6663
19.5387
19.4338
19.3326
19.2377
19.1313
19.069
19.0253
19.002
18.9692
18.9163
18.8544
18.7413
18.6073
18.407
18.1935
17.9764
17.7511
17.5464
17.3782
24.95
33.6797
29.9051
30.9529
28.4011
27.0749
26.2245
25.8459
25.65
25.5671
25.4819
25.4363
25.3556
25.292
25.1847
25.0844
24.929
24.8276
24.6727
24.597
24.4627
24.3996
24.2714
24.2105
24.0703
23.9997
23.8247
23.7375
23.5545
23.4512
23.2578
23.1292
22.9221
22.7915
22.6168
22.4875
22.3164
22.1529
22.0592
21.9154
21.7273
21.5756
21.45
21.2813
21.0978
20.9263
20.7334
20.571
20.3991
20.2483
20.0701
19.9136
19.7652
19.6402
19.5533
19.4598
19.3822
19.2856
19.2165
19.1293
19.066
19.0017
18.9324
18.8551
18.715
18.5596
18.3692
18.1494
17.9407
17.7351
17.5243
17.3678
25.0707
33.9631
30.2054
31.1508
28.4096
27.0421
26.2168
25.861
25.6602
25.5803
25.5016
25.4552
25.3769
25.3224
25.2142
25.1102
24.9658
24.867
24.7308
24.6644
24.5415
24.4852
24.3603
24.303
24.1598
24.0846
23.9036
23.8106
23.6182
23.4968
23.3053
23.1754
22.9739
22.8352
22.6575
22.542
22.4257
22.2876
22.2197
22.0945
21.9204
21.8024
21.6694
21.5045
21.3207
21.1474
20.9565
20.7721
20.5781
20.4087
20.1998
20.0262
19.8752
19.737
19.6547
19.5857
19.5505
19.4939
19.4488
19.3609
19.2446
19.1229
19.0058
18.9022
18.7432
18.5709
18.3658
18.1285
17.9013
17.691
17.4647
17.316
25.1591
34.0471
30.4294
31.3875
28.4078
27.0043
26.193
25.8619
25.664
25.5847
25.5125
25.4715
25.3953
25.3416
25.2368
25.1423
25.0046
24.9165
24.7961
24.7346
24.6222
24.5681
24.4475
24.3845
24.2398
24.1639
23.9832
23.8832
23.6915
23.5719
23.3779
23.2484
23.0297
22.8777
22.6861
22.5673
22.4111
22.3391
22.297
22.2315
22.0874
21.9859
21.8741
21.7239
21.5392
21.3946
21.2377
21.0604
20.8549
20.6502
20.4035
20.1692
19.9788
19.815
19.72
19.6474
19.6222
19.5878
19.5537
19.51
19.4484
19.3472
19.2154
19.0954
18.915
18.7452
18.5108
18.2347
17.9747
17.7373
17.4875
17.3255
25.2532
33.9963
30.584
31.7254
28.4281
26.9892
26.1827
25.8637
25.6815
25.6054
25.5411
25.5037
25.4359
25.3838
25.2915
25.2053
25.0755
24.9934
24.8767
24.8228
24.7111
24.6598
24.5362
24.474
24.3284
24.2485
24.0547
23.9508
23.7513
23.6214
23.4217
23.3004
23.0751
22.9137
22.7164
22.5978
22.4303
22.3248
22.2417
22.2015
22.0881
22.0014
21.958
21.8383
21.6686
21.5748
21.4821
21.3663
21.1944
21.0162
20.7664
20.5001
20.2477
20.0132
19.8671
19.7677
19.7286
19.7207
19.7118
19.6877
19.6279
19.5394
19.4015
19.2429
19.043
18.8695
18.6136
18.3319
18.0549
17.8013
17.5407
17.3704
25.4234
34.1693
30.8025
31.8883
28.3691
26.9047
26.1654
25.8583
25.6869
25.6162
25.5524
25.518
25.4577
25.407
25.3235
25.235
25.1186
25.0363
24.9206
24.8655
24.7565
24.6975
24.576
24.5015
24.3637
24.2742
24.0883
23.9875
23.8033
23.6831
23.4872
23.3782
23.1713
23.0163
22.8252
22.7125
22.5602
22.4499
22.3573
22.301
22.2181
22.0899
22.0119
21.8817
21.7091
21.6348
21.5909
21.5777
21.5338
21.4236
21.206
20.8904
20.5921
20.3166
20.0881
19.9179
19.8341
19.8192
19.8192
19.7998
19.7577
19.717
19.6291
19.4728
19.2545
19.0357
18.7738
18.4943
18.1717
17.8528
17.5704
17.3928
25.6268
34.3359
31.0082
31.7782
28.2011
26.8921
26.1394
25.8631
25.7107
25.6503
25.5953
25.5623
25.5105
25.462
25.3936
25.2989
25.1904
25.091
24.9852
24.9258
24.8069
24.7464
24.613
24.545
24.4039
24.3291
24.1482
24.0599
23.8882
23.7729
23.6049
23.5376
23.3771
23.2297
23.0552
22.9413
22.8147
22.7572
22.6918
22.5883
22.5439
22.4052
22.2719
22.1064
21.9237
21.7947
21.7473
21.7353
21.7417
21.7403
21.6189
21.3323
20.9946
20.6288
20.3464
20.1466
20.0368
19.9732
19.9561
19.9236
19.8593
19.8147
19.7558
19.6723
19.5099
19.3279
19.0586
18.7554
18.4134
18.0669
17.7279
17.4996
25.7119
34.3457
30.9858
31.2932
27.7371
26.7517
26.0917
25.8542
25.7168
25.6622
25.6049
25.5724
25.5341
25.4796
25.4196
25.3159
25.2161
25.1079
25.006
24.9383
24.8207
24.7613
24.6365
24.5745
24.4589
24.3747
24.2053
24.1126
23.9542
23.8391
23.7301
23.7126
23.637
23.4967
23.3612
23.2813
23.2136
23.1665
23.1148
22.9534
22.9391
22.8584
22.6861
22.4738
22.2648
22.0546
21.9646
21.9182
21.8779
21.8635
21.8716
21.7626
21.487
21.1161
20.8373
20.6242
20.4525
20.3177
20.2497
20.2166
20.1573
20.1239
20.0394
19.8433
19.6157
19.4128
19.1343
18.8451
18.5429
18.2439
17.9411
17.7072
25.8079
34.4784
30.8847
30.848
27.5411
26.7225
26.0772
25.8707
25.7656
25.7112
25.6715
25.6386
25.6072
25.5513
25.4873
25.3725
25.2649
25.1481
25.0571
24.9619
24.8554
24.7878
24.6773
24.6109
24.4775
24.3894
24.2059
24.1126
23.9594
23.8744
23.8106
23.8143
23.8277
23.7723
23.7017
23.6885
23.6865
23.6617
23.6472
23.5102
23.5102
23.4496
23.2782
23.0357
22.7545
22.5726
22.465
22.3732
22.249
22.123
22.0272
21.8859
21.7741
21.6616
21.4317
21.246
21.0727
20.8981
20.7376
20.556
20.4048
20.2774
20.1598
19.9679
19.781
19.5769
19.3183
19.0283
18.6906
18.3677
18.0269
17.7994
25.8465
34.5671
30.9166
30.7639
27.4703
26.6599
26.082
25.8849
25.7769
25.7325
25.6928
25.6582
25.6317
25.574
25.5116
25.3863
25.2758
25.1491
25.0619
24.9559
24.8699
24.8021
24.6925
24.6213
24.4738
24.3775
24.1969
24.1082
23.9704
23.9144
23.8545
23.8402
23.9603
23.9731
23.9576
24.0079
24.0479
24.0441
24.0355
23.9619
24.0034
24.0363
23.9083
23.6305
23.3346
23.1354
23.0469
22.9879
22.834
22.632
22.4115
22.1224
21.9142
21.8456
21.7778
21.7118
21.5745
21.384
21.1396
20.8956
20.6197
20.4231
20.3243
20.1506
19.9478
19.7129
19.4915
19.2562
18.9679
18.6702
18.2914
18.0002
25.9332
34.7773
30.9886
30.6974
27.4649
26.7142
26.1228
25.9302
25.8282
25.7834
25.7515
25.7169
25.6882
25.6243
25.5533
25.4109
25.3021
25.1731
25.0922
24.9768
24.9009
24.8054
24.7045
24.628
24.4803
24.387
24.2488
24.1885
24.0943
24.0646
23.999
24.0895
24.2717
24.1983
24.1483
24.1754
24.2397
24.2489
24.2258
24.3013
24.3885
24.5108
24.4348
24.1941
23.9752
23.7612
23.6612
23.6207
23.5304
23.3271
22.9999
22.5877
22.237
22.0007
21.9241
21.882
21.8408
21.7704
21.6528
21.4901
21.2366
20.9309
20.733
20.576
20.3538
20.0435
19.772
19.5309
19.2489
18.9724
18.6785
18.3857
25.9346
34.8361
30.9785
30.721
27.4638
26.6871
26.1556
25.9685
25.8704
25.833
25.8051
25.7779
25.7215
25.6455
25.5759
25.4303
25.3168
25.194
25.1061
24.9929
24.8978
24.7927
24.7108
24.6206
24.48
24.4104
24.3444
24.3293
24.3166
24.355
24.3679
24.5425
24.7643
24.6435
24.4423
24.3692
24.4168
24.4421
24.5369
24.6876
24.7831
24.993
24.9652
24.8203
24.7237
24.5411
24.3698
24.3115
24.2604
24.0564
23.7066
23.2476
22.8285
22.482
22.287
22.1644
22.0583
21.9302
21.8213
21.7175
21.5618
21.4131
21.2639
21.0927
20.8208
20.3915
19.9891
19.6815
19.3528
19.1245
18.9033
18.6328
26.0041
35.0411
31.0467
30.7389
27.4961
26.7727
26.2066
26.0308
25.9415
25.9035
25.8866
25.8404
25.8017
25.6996
25.5985
25.4342
25.315
25.1866
25.0977
24.9831
24.8854
24.8242
24.7719
24.7094
24.6058
24.5553
24.5269
24.5516
24.564
24.674
24.7972
25.0302
25.2622
25.0946
24.7754
24.7252
24.7914
24.9757
25.1624
25.253
25.225
25.1429
25.1092
25.1666
25.4
25.35
25.1932
25.1336
25.0812
24.8414
24.4023
23.7794
23.2466
22.8611
22.6282
22.4674
22.3378
22.1704
22.0398
21.9439
21.8218
21.7136
21.565
21.3299
21.1256
20.9044
20.4879
19.9437
19.5011
19.197
18.9494
18.7253
26.0295
35.0911
31.0559
30.7891
27.516
26.7253
26.2337
26.0738
26.002
25.9786
25.9608
25.8899
25.829
25.7153
25.6125
25.4276
25.3053
25.1726
25.0946
24.9766
24.9195
24.8834
24.8705
24.8777
24.7721
24.6791
24.646
24.7269
24.7845
24.9949
25.1266
25.4446
25.7287
25.4505
25.1036
25.1013
25.1944
25.495
25.6121
25.6155
25.5935
25.5336
25.4632
25.5117
25.7616
25.8908
25.8813
25.7458
25.5567
25.2546
24.7363
24.0657
23.4824
23.0481
22.7967
22.6224
22.4612
22.2614
22.1032
21.9897
21.89
21.8209
21.7254
21.5538
21.4365
21.3381
21.1326
20.8084
20.35
19.8415
19.3741
19.0118
26.1342
35.3066
31.1815
30.8713
27.5813
26.8055
26.3413
26.1605
26.0754
26.0347
26.0003
25.9161
25.845
25.7171
25.6029
25.4073
25.2866
25.1592
25.0865
25.0056
24.9855
24.9816
24.9984
25.0307
24.8521
24.7502
24.7128
24.7882
24.9552
25.2836
25.4969
25.9042
26.2916
25.9583
25.6368
25.6959
25.7404
25.9111
25.8589
25.9723
26.0569
26.1167
26.1005
26.0787
26.1716
26.2023
26.199
25.9898
25.7041
25.3679
24.8056
24.0998
23.5002
23.0828
22.8409
22.6883
22.5421
22.3676
22.2558
22.1665
22.0689
21.9423
21.7982
21.6291
21.5231
21.4213
21.2323
20.9857
20.6905
20.372
20.0702
19.7132
26.173
35.3954
31.2347
30.9198
27.6221
26.8225
26.3716
26.2039
26.1001
26.0588
25.9994
25.9059
25.8327
25.693
25.5586
25.3543
25.2446
25.1354
25.0849
25.0282
25.0102
25.0081
25.0509
25.129
24.8331
24.7213
24.6897
24.7416
25.0976
25.5423
26.0112
26.5338
26.9208
26.3549
26.038
26.0842
26.0455
26.0887
26.2158
26.4305
26.5842
26.6925
26.6937
26.5923
26.4594
26.2441
26.0555
25.7451
25.4318
25.0752
24.4843
23.8219
23.3523
23.0631
22.9396
22.8499
22.7222
22.572
22.4623
22.392
22.3101
22.1892
22.0218
21.8762
21.753
21.6351
21.4646
21.2844
21.0494
20.8006
20.4915
20.1454
26.3007
35.6128
31.3349
30.9525
27.6046
26.8116
26.3856
26.1992
26.0963
26.0497
25.9841
25.8776
25.8022
25.6621
25.5323
25.3402
25.2326
25.1466
25.1086
25.0492
25.0226
25.0191
25.0912
25.1966
24.785
24.5809
24.5209
24.7817
25.2372
25.8046
26.5681
27.1436
27.3796
26.4018
26.0594
26.0686
26.2065
26.4789
26.6835
26.9537
27.1222
27.1881
27.1448
26.9402
26.509
26.0426
25.4694
25.0254
24.7874
24.4116
23.8216
23.2866
22.9543
22.8085
22.7423
22.6827
22.588
22.5224
22.5549
22.5279
22.442
22.3133
22.1802
22.0711
21.9769
21.8755
21.6974
21.4945
21.3173
21.1585
20.9487
20.6951
26.3628
35.735
31.3558
30.9312
27.6067
26.8203
26.3928
26.2039
26.0953
26.0449
25.9694
25.8644
25.7847
25.6386
25.5007
25.3356
25.2526
25.1764
25.1398
25.0595
25.029
25.0341
25.147
25.1915
24.7396
24.4919
24.4959
24.929
25.4441
26.0269
26.9773
27.5466
27.1269
26.2793
26.1013
26.361
26.8842
27.1696
27.3551
27.4894
27.5767
27.6268
27.3391
27.0527
26.3387
25.4097
24.8605
24.5092
24.303
23.735
23.241
22.9148
22.7612
22.7055
22.6609
22.6066
22.6777
22.7552
22.8238
22.8499
22.7803
22.5872
22.393
22.244
22.0866
21.9818
21.8359
21.687
21.5385
21.3519
21.1964
21.0009
26.4606
35.8629
31.3554
30.9211
27.6181
26.8469
26.3852
26.1957
26.0745
26.0166
25.9346
25.8314
25.7484
25.5968
25.4761
25.3415
25.2776
25.2018
25.1461
25.0513
25.0055
25.0251
25.182
25.2521
24.7191
24.5062
24.6055
25.1223
25.6883
26.2561
27.2509
27.8905
26.8983
26.4626
26.8478
27.0316
27.6787
27.8864
28.0151
28.0506
27.9885
27.8151
27.4323
26.9841
25.7213
24.8527
24.4435
24.2836
23.7524
23.2303
22.8775
22.697
22.6181
22.5647
22.4956
22.5875
22.6682
22.7478
22.8254
22.8498
22.8234
22.8392
22.8633
22.7535
22.3829
22.1466
21.9372
21.7506
21.6086
21.4966
21.3842
21.1954
26.5325
35.9715
31.3752
30.956
27.655
26.8402
26.3775
26.1862
26.0545
25.9937
25.9115
25.8166
25.7294
25.5918
25.4818
25.3542
25.2913
25.198
25.1248
25.0319
24.9942
25.0667
25.2695
25.3145
24.8655
24.7066
24.9714
25.5179
26.0916
26.7189
27.4432
28.0775
27.0286
26.7294
27.5283
27.7847
28.4593
28.6161
28.657
28.6143
28.4021
27.9555
27.2777
26.6395
25.2677
24.6018
24.2134
23.9102
23.1597
22.7478
22.5435
22.4827
22.5098
22.4735
22.4116
22.481
22.5345
22.6182
22.7036
22.7639
22.7525
22.7537
22.8001
22.7016
22.5967
22.5847
22.3161
22.0063
21.7538
21.5902
21.4625
21.3634
26.6002
36.0856
31.4214
30.9926
27.6533
26.8276
26.3557
26.1695
26.0397
25.9847
25.9041
25.8241
25.7384
25.6134
25.5204
25.4177
25.35
25.2434
25.1651
25.0815
25.0603
25.169
25.3125
25.325
25.0074
24.9072
25.2692
25.861
26.4368
27.21
27.7175
27.5581
26.9793
27.1337
28.0709
28.3283
29.1112
29.3351
29.2954
29.1696
28.5159
27.6619
26.9563
26.4799
25.244
24.572
24.1039
23.195
22.5621
22.2667
22.1082
22.1065
22.127
22.2661
22.3186
22.3914
22.4669
22.5442
22.6337
22.6691
22.6545
22.6426
22.6674
22.6167
22.5692
22.5072
22.2897
22.1834
22.1949
22.0122
21.707
21.5565
26.6813
36.2557
31.4621
31.0366
27.6862
26.8149
26.3533
26.1651
26.032
25.9807
25.906
25.8256