/*--------------------------------*- C++ -*----------------------------------*\
| =========                 |                                                 |
| \\      /  F ield         | OpenFOAM: The Open Source CFD Toolbox           |
|  \\    /   O peration     | Version:  2212                                  |
|   \\  /    A nd           | Website:  www.openfoam.com                      |
|    \\/     M anipulation  |                                                 |
\*---------------------------------------------------------------------------*/
FoamFile
{
    version     2.0;
    format      ascii;
    arch        "LSB;label=32;scalar=64";
    class       volScalarField;
    location    "0.0014";
    object      p;
}
// * * * * * * * * * * * * * * * * * * * * * * * * * * * * * * * * * * * * * //

dimensions      [1 -1 -2 0 0 0 0];

internalField   nonuniform List<scalar> 
7220
(
452.828
609.853
609.891
609.665
609.77
609.779
609.885
609.78
609.65
609.775
421.179
658.833
562.011
403.784
412.425
797.059
488.111
425.405
490.545
428.006
509.201
578.775
607.299
562.494
632.743
614.045
490.739
388.95
508.414
525.008
609.498
538.207
607.979
520.439
620.504
498.978
610.009
420.342
425.688
463.834
473.06
473.071
463.843
505.181
505.349
506.847
506.787
506.662
481.458
488.723
488.737
481.471
494.593
498.968
498.979
494.606
501.986
503.916
503.925
501.995
505.063
505.694
505.704
505.072
506.017
506.169
506.183
506.028
506.23
506.246
506.265
506.246
506.248
506.245
506.272
506.271
506.244
506.246
506.29
506.277
506.253
506.268
506.372
506.318
506.567
506.463
506.296
506.317
506.278
504.921
454.095
454.102
471.395
462.196
505.383
506.846
506.29
506.295
504.363
504.379
504.361
504.407
504.395
504.423
504.416
504.413
504.425
504.203
504.353
503.255
503.883
500.191
502.114
492.824
497.184
479.732
486.973
462.169
471.363
487.009
479.769
497.211
492.855
502.136
500.215
503.91
503.279
504.391
504.235
504.477
504.457
504.489
504.485
504.512
504.496
504.626
504.549
504.757
504.347
452.463
452.483
502.06
501.404
505.319
506.347
504.231
504.177
500.207
502.219
504.04
500.129
500.438
500.356
500.502
500.471
500.562
500.533
500.598
500.583
500.596
500.603
500.39
500.538
499.454
500.075
496.417
498.323
489.11
493.436
476.114
483.303
458.669
467.801
442.547
439.182
449.029
444.149
444.144
449.064
439.207
442.561
467.853
458.713
483.357
476.169
493.478
489.157
498.361
496.455
500.122
499.494
500.605
500.447
500.701
500.675
500.718
500.71
500.749
500.728
500.906
500.802
501.087
501.815
501.951
496.595
496.078
432.702
429.406
444.179
434.415
506.826
501.704
505.269
504.095
494.703
496.257
496.397
499.88
496.691
494.61
494.96
494.859
495.06
495.02
495.104
495.072
495.143
495.124
495.144
495.152
494.946
495.09
494.024
494.636
491.027
492.909
483.807
488.082
470.953
478.066
453.682
462.724
434.382
444.135
434.267
434.263
429.423
432.711
462.785
453.736
478.128
471.017
488.132
483.863
492.955
491.073
494.696
494.075
495.178
495.019
495.283
495.252
495.301
495.293
495.347
495.315
495.527
495.411
495.735
496.557
424.701
424.723
506.349
501.562
496.12
506.816
494.315
489.657
489.267
489.724
499.871
428.402
418.838
419.964
415.353
503.874
505.181
496.008
501.373
489.476
489.4
495.927
506.4
487.556
487.945
487.85
488.186
488.093
488.289
488.243
488.304
488.298
488.345
488.329
488.342
488.353
488.152
488.292
487.249
487.85
484.302
486.153
477.194
481.404
464.521
471.536
447.47
456.399
438.038
415.34
423.182
419.953
424.712
424.71
423.187
418.865
438.09
428.442
456.464
447.529
471.602
464.588
481.459
477.254
486.206
484.354
487.92
487.309
488.399
488.24
488.508
488.475
488.529
488.52
488.595
488.551
488.788
488.667
488.993
489.513
489.651
489.215
489.361
489.198
494.223
409.59
409.606
481.789
481.522
481.833
481.653
499.42
506.794
505.019
495.817
504.091
481.175
480.067
501.169
487.45
479.958
488.856
480.383
480.314
480.566
480.5
480.639
480.614
480.641
480.638
480.673
480.659
480.666
480.679
480.481
480.615
479.598
480.186
476.708
478.524
469.728
473.864
457.263
464.167
440.466
449.265
421.664
431.167
403.109
412.23
394.51
406.515
400.872
414.211
411.043
415.708
415.707
411.049
414.213
400.879
406.521
394.523
412.265
403.131
431.225
421.712
449.334
440.531
464.234
457.334
473.922
469.791
478.584
476.766
480.266
479.665
480.735
480.58
480.841
480.808
480.87
480.855
480.955
480.903
481.147
481.033
481.331
481.676
481.786
481.408
481.548
481.432
487.1
493.899
506.543
479.615
473.689
473.524
473.697
396.452
387.976
392.861
386.613
506.704
504.826
500.939
480.231
472.159
471.083
479.285
487.076
499.569
495.4
504.391
479.48
487.964
472.052
472.447
472.351
472.637
472.623
472.726
472.701
472.76
472.749
472.753
472.752
472.773
472.762
472.762
472.776
472.581
472.712
471.718
472.293
468.889
470.667
462.044
466.101
449.796
456.582
433.265
441.928
414.741
424.106
405.443
386.608
398.405
392.859
405.969
402.856
407.44
407.439
402.859
405.97
398.407
387.994
405.485
396.481
424.169
414.796
442
433.334
456.651
449.868
466.162
462.108
470.732
468.951
472.379
471.792
472.832
472.683
472.93
472.9
472.971
472.946
473.074
473.014
473.23
473.149
473.398
473.571
473.662
473.384
473.467
473.718
473.417
473.343
493.99
471.883
380.189
380.197
466
466.091
478.947
486.523
506.802
506.567
504.597
500.604
469.782
478.146
443.127
487.106
610.076
494.792
471.413
464.537
465.078
464.911
465.378
465.314
465.433
465.459
465.402
465.421
465.383
465.388
465.369
465.373
465.382
465.376
465.367
465.382
465.189
465.318
464.345
464.907
461.574
463.316
454.859
458.841
442.821
449.494
426.543
435.076
408.283
417.516
390.244
399.112
374.209
381.886
367.336
379.523
373.21
391.135
385.674
398.585
395.52
400.035
400.034
395.521
398.586
385.674
391.135
373.212
379.524
367.343
381.911
374.224
399.161
390.281
417.583
408.342
435.149
426.614
449.563
442.893
458.905
454.925
463.387
461.641
464.993
464.422
465.429
465.287
465.52
465.493
465.573
465.537
465.677
465.621
465.797
465.727
465.925
465.973
466.086
466.051
465.821
465.889
465.726
465.733
464.313
465.311
461.677
463.146
454.171
457.403
468.125
459.785
493.521
608.897
470.883
464.077
506.644
609.81
369.308
362.537
367.098
361.33
506.398
466.104
504.34
476.71
486.077
500.13
494.01
609.664
609.936
609.856
611.888
623.983
609.879
478.305
485.707
608.705
477.661
446.355
449.765
502.169
498.028
470.267
608.727
463.472
621.633
469.481
462.652
609.465
452.176
461.563
455.762
454.202
457.915
457.021
458.952
458.537
459.383
459.243
459.564
459.545
459.501
459.554
459.359
459.433
459.276
459.304
459.245
459.256
459.253
459.248
459.237
459.252
459.061
459.187
458.233
458.783
455.514
457.224
448.913
452.829
437.055
443.631
420.994
429.416
402.96
412.08
385.137
393.899
376.883
361.327
373.314
367.098
384.764
379.376
392.118
389.092
393.55
393.549
389.092
392.119
379.375
384.763
373.313
362.55
376.915
369.33
393.952
385.18
412.148
403.021
429.488
421.065
443.701
437.127
452.896
448.981
457.296
455.584
458.865
458.309
459.284
459.148
459.372
459.344
459.439
459.4
459.519
459.475
459.599
459.559
459.719
459.677
459.753
459.765
459.629
459.711
459.427
459.539
459.062
459.264
457.583
458.546
454.594
456.273
452.423
608.9
608.895
609.69
492.455
505.144
608.518
391.069
659.916
450.696
356.635
356.642
611.843
485.017
497.541
502.019
506.578
463.764
615.511
476.925
444.029
440.657
441.771
506.187
474.932
484.804
468.482
428.985
503.965
395.709
460.109
615.259
499.487
493.056
608.792
608.519
446.263
608.899
608.481
609.977
451.677
449.755
454.161
453.146
455.265
454.852
455.632
455.507
455.677
455.703
455.509
455.615
455.271
455.388
455.127
455.183
455.068
455.091
455.062
455.061
455.046
455.062
454.871
454.997
454.057
454.598
451.38
453.064
444.868
448.732
433.149
439.651
417.251
425.589
399.391
408.424
381.741
390.416
366.093
373.575
353.642
359.424
348.752
356.17
351.598
367.96
361.837
379.265
373.942
386.538
383.545
387.954
387.954
383.545
386.538
373.941
379.264
361.836
367.959
351.6
356.171
348.758
359.442
353.653
373.612
366.119
390.471
381.787
408.49
399.452
425.66
417.321
439.72
433.22
448.8
444.937
453.131
451.448
454.669
454.125
455.076
454.945
455.168
455.134
455.236
455.206
455.289
455.264
455.309
455.309
455.365
455.341
455.366
455.381
455.229
455.318
454.978
455.118
454.367
454.747
452.662
453.712
449.291
451.177
446.903
612.593
612.231
445.181
608.863
608.904
491.788
505.115
608.878
458.895
461.62
617.051
608.527
609.707
484.335
440.423
436.843
436.525
506.396
497.07
501.726
610.343
472.872
609.921
352.829
348.148
347.355
344.701
483.232
620.355
476.004
436.75
609.433
609.922
609.866
609.742
608.569
505.856
613.207
607.056
613.133
617.124
621.161
626.851
467.157
438.444
608.118
608.447
608.287
607.945
612.937
503.405
491.883
458.031
609.061
498.642
602.874
601.142
610.332
449.058
608.743
604.691
608.495
608.462
454.786
610.044
441.254
614.946
449.464
447.09
452.432
451.204
453.781
453.273
454.184
454.059
454.126
454.195
453.846
454.003
453.526
453.68
453.314
453.401
453.219
453.255
453.195
453.202
453.172
453.19
452.996
453.121
452.191
452.726
449.545
451.21
443.101
446.926
431.485
437.931
415.708
423.985
397.974
406.943
380.463
389.067
364.994
372.378
358.449
344.697
351.786
347.354
363.367
357.339
374.532
369.271
381.731
378.768
383.133
383.133
378.767
381.731
369.27
374.532
357.337
363.366
351.785
348.159
358.472
352.845
372.417
365.024
389.12
380.51
407.007
398.033
424.053
415.774
437.998
431.553
446.988
443.166
451.265
449.604
452.781
452.246
453.184
453.054
453.288
453.248
453.337
453.32
453.352
453.347
453.33
453.345
453.339
453.328
453.318
453.334
453.177
453.269
452.855
453.049
451.97
452.518
449.922
451.135
446.131
448.256
443.534
616.282
609.248
609.744
609.522
608.729
609.051
629.199
491.188
430.315
432.623
504.914
623.879
617.783
615.778
618.389
618.989
619.005
609.003
611.58
448.031
470.515
441.294
608.165
344.353
344.36
481.305
620.864
625.502
623.488
624.644
616.015
483.539
609.98
431.649
609.956
607.912
608.256
607.965
609.605
506.078
496.565
501.335
609.471
613.897
613.286
614.249
606.45
609.381
610.897
607.859
608.946
610.696
630.32
608.316
608.64
609.635
625.641
630.878
474.793
431.811
610.627
607.71
637.218
505.325
604.865
604.667
602.997
604.584
490.418
465.205
387.551
433.371
608.414
607.81
609.85
609.907
609.797
609.961
609.284
502.598
600.471
601.985
600.725
602.17
392.871
621.797
497.565
455.126
609.03
599.797
600.647
600.764
607.421
445.325
608.745
607.299
601.39
602.594
608.536
599.573
449.823
467.417
390.898
599.423
609.627
435.75
419.511
448.764
446.227
452.286
450.823
453.943
453.306
454.444
454.294
454.394
454.468
454.082
454.256
453.73
453.9
453.48
453.587
453.355
453.404
453.312
453.326
453.282
453.302
453.105
453.23
452.306
452.837
449.679
451.332
443.277
447.077
431.715
438.136
415.976
424.237
398.266
407.223
380.779
389.369
365.343
372.71
353.214
358.816
344.766
348.548
341.766
341.385
341.333
348.057
343.801
359.395
353.475
370.412
365.215
377.535
374.602
378.924
378.924
374.601
377.535
365.215
370.412
353.474
359.394
343.802
348.056
341.339
341.388
341.773
348.559
344.774
358.84
353.231
372.75
365.374
389.423
380.826
407.286
398.324
424.303
416.041
438.2
431.782
447.132
443.337
451.378
449.729
452.88
452.349
453.285
453.152
453.393
453.353
453.421
453.415
453.411
453.42
453.378
453.397
453.372
453.37
453.346
453.364
453.195
453.295
452.75
453.029
451.575
452.287
449.107
450.541
444.838
447.233
438.555
441.966
434.677
478.839
644.008
609.846
608.133
611.661
622.094
625.689
609.794
609.379
609.599
609.061
609.154
610.035
609.246
612.087
490.535
427.903
388.811
609.679
504.582
611.653
614.255
608.697
609.247
613.571
609.399
439.604
610.1
610.029
608.811
608.989
608.528
609.264
399.126
615.217
614.901
615.638
613.152
614.91
629.648
633.505
633.321
634.491
614.555
482.484
426.655
608.93
607.69
609.778
609.546
505.545
495.838
500.717
606.896
611.054
610.14
610.969
605.9
488.505
610.081
346.093
343.262
338.948
339.443
637.273
636.539
473.09
612.651
426.701
609.23
607.543
609.899
610.017
609.415
504.526
603.767
603.638
614.324
496.141
617.88
462.601
427.926
608.625
609.268
501.488
601.974
602.07
610.412
451.642
609.053
610.618
602.779
601.454
604.769
441.287
608.832
600.016
444.236
463.319
608.659
598.958
475.482
608.682
599.841
608.594
645.823
429.757
609.466
609.449
609.989
609.255
435.059
434.587
442.723
438.975
448.782
446.058
452.51
450.944
454.338
453.618
454.931
454.756
454.865
454.956
454.509
454.702
454.122
454.309
453.843
453.964
453.7
453.757
453.647
453.666
453.61
453.633
453.432
453.557
452.636
453.164
450.019
451.665
443.638
447.426
432.113
438.514
416.407
424.651
398.741
407.675
381.325
389.875
366.029
373.314
354.167
359.618
349.681
339.437
338.721
338.943
344.873
340.84
355.911
350.121
366.751
361.63
373.787
370.887
375.16
375.16
370.887
373.787
361.629
366.751
350.12
355.91
340.84
344.872
338.725
343.27
349.696
346.104
359.644
354.187
373.354
366.062
389.927
381.372
407.736
398.798
424.716
416.471
438.575
432.177
447.477
443.694
451.706
450.063
453.202
452.673
453.609
453.474
453.717
453.678
453.738
453.735
453.721
453.734
453.682
453.702
453.674
453.672
453.646
453.666
453.485
453.593
453
453.303
451.771
452.509
449.226
450.714
444.595
447.213
437.758
441.413
429.345
433.717
424.83
609.85
609.602
609.741
609.222
609.427
609.028
608.763
608.997
609.487
609.246
609.62
609.448
609.758
609.697
609.9
609.319
609.169
609.46
608.527
608.844
608.36
610.868
611.274
443.573
615.775
631.665
634.72
610.071
609.938
610.058
609.858
609.993
609.506
609.692
609.206
609.316
609.958
609.332
611.552
489.658
423.089
608.018
437.042
609.572
609.552
504.022
608.73
611.178
607.262
606.805
606.335
485.917
400.318
610.529
415.205
634.364
341.039
341.046
399.996
395.077
610.156
610.149
610.079
489.148
620.289
619.826
621.044
617.728
620.023
641.432
641.594
645.462
645.652
614.049
481.014
416.866
421.589
608.103
607.429
429.91
430.269
609.164
609.706
609.249
609.456
398.859
404.251
504.721
494.741
499.747
605.565
387.922
387.964
389.548
609.435
608.35
609.078
604.895
391.387
598.564
606.971
614.432
494.157
619.387
413.904
609.619
609.726
651.92
637.074
470.799
421.337
607.962
607.433
609.942
608.531
608.798
609.384
503.376
603.572
603.449
394.292
612.723
499.954
459.405
387.442
387.032
422.194
389.201
387.765
607.242
609.638
609.281
614.395
605.003
602.609
602.616
606.931
447.751
387.294
388.586
609.023
609.28
609.139
601.046
438.2
458.327
387.817
388.716
387.348
388.328
387.047
388.206
387.047
388.29
608.958
599.104
471.224
608.575
600.935
608.811
599.057
482.389
453.314
608.669
610.214
423.48
403.179
424.979
425.044
434.373
429.834
442.265
438.538
448.853
445.8
453.239
451.377
455.396
454.542
456.101
455.891
456.03
456.132
455.633
455.848
455.214
455.415
454.907
455.043
454.742
454.808
454.676
454.701
454.628
454.656
454.447
454.572
453.654
454.181
451.047
452.687
444.683
448.462
433.178
439.57
417.479
425.719
399.838
408.755
382.5
391.002
367.374
374.559
355.815
361.098
348.183
351.534
343.73
345.633
342.301
337.652
339.298
336.622
337.039
342.153
338.394
352.811
347.187
363.428
358.402
370.353
367.496
371.707
371.707
367.496
370.353
358.401
363.427
347.187
352.81
338.395
342.153
337.043
336.626
339.304
337.658
342.312
345.646
343.741
351.553
348.198
361.126
355.837
374.599
367.407
391.054
382.546
408.815
399.895
425.782
417.542
439.628
433.24
448.506
444.733
452.724
451.087
454.212
453.687
454.623
454.485
454.724
454.691
454.74
454.737
454.717
454.733
454.674
454.695
454.664
454.662
454.641
454.663
454.455
454.58
453.867
454.235
452.43
453.285
449.553
451.218
444.674
447.39
437.706
441.42
429.43
433.703
424.927
609.331
609.489
608.934
609.144
608.491
608.714
608.308
608.067
608.274
608.789
608.514
608.957
608.737
609.352
609.165
609.508
609.835
610.038
609.788
609.951
609.352
609.593
608.748
609.056
608.661
608.566
609.275
609.442
619.63
621.156
644.123
644.495
610.128
610.015
610.124
609.934
610.053
609.637
609.794
609.361
609.473
609.967
609.442
611.324
488.389
418.215
607.565
436.92
432.443
609.47
609.401
398.99
404.127
503.141
386.933
607.147
397.097
392.629
609.393
605.797
389.091
404.859
628.548
637.406
503.591
410.543
412.614
491.427
610.136
405.683
608.081
615.897
627.272
409.641
397.265
418.457
609.813
609.578
610.214
607.724
627.747
622.768
626.085
656.1
644.929
657.971
656.367
479.005
412.897
416.335
607.403
607.24
425.178
609.058
609.637
609.046
609.37
408.601
503.508
493.189
498.346
386.779
389.112
514.338
605.198
391.157
608.712
607.646
608.289
604.674
388.196
391.067
612.91
391.925
497.845
386.891
347.317
345.856
337.921
341.164
609.915
609.668
661.49
668.826
633.491
467.912
415.867
424.177
418.152
391.344
607.084
609.196
420.116
419.928
609.67
608.573
609.36
618.165
607.714
501.738
386.803
604.041
390.533
606.581
603.879
394.539
608.388
420.865
417.035
394.522
455.719
416.315
390.762
609.466
607.872
608.096
609.32
602.749
615.419
603.59
390.355
432.306
452.693
443.488
416.488
390.458
609.055
609.226
599.699
390.352
466.094
608.475
602.539
608.296
608.557
609.093
598.786
477.939
599.768
387.735
608.927
487.756
607.615
610.274
425.339
416.03
420.163
415.296
416.151
425.327
420.718
434.055
429.779
441.927
438.125
448.921
445.514
454.605
452.085
457.665
456.455
458.644
458.349
458.563
458.691
458.064
458.332
457.534
457.79
457.127
457.31
456.888
456.987
456.778
456.821
456.715
456.748
456.528
456.655
455.741
456.264
453.152
454.782
446.831
450.584
435.411
441.757
419.818
428.005
402.297
411.15
385.133
393.538
370.289
377.317
359.094
364.193
351.718
354.968
349.216
341.153
336.259
337.914
334.993
335.506
339.848
336.406
350.034
344.62
360.363
355.461
367.142
364.342
368.47
368.47
364.341
367.142
355.461
360.362
344.621
350.034
336.408
339.849
335.511
334.997
336.264
345.868
349.231
347.33
354.989
351.736
364.222
359.118
377.358
370.323
393.59
385.18
411.209
402.353
428.062
419.877
441.806
435.466
450.615
446.873
454.796
453.173
456.274
455.751
456.683
456.545
456.778
456.75
456.768
456.782
456.708
456.741
456.645
456.675
456.636
456.631
456.622
456.638
456.419
456.561
455.649
456.137
453.747
454.874
450.28
452.227
444.969
447.881
437.867
441.591
429.704
433.885
425.341
609.558
609.339
609.459
609.033
609.197
608.648
608.848
608.245
608.445
607.865
608.051
607.696
607.531
607.691
608.089
607.883
608.262
608.067
608.667
608.463
609.053
608.867
609.355
609.216
609.474
610.11
609.887
610.019
609.538
609.736
609.005
609.282
608.894
608.832
610.345
609.361
611.95
627.111
628.014
658.014
652.183
610.084
609.632
609.881
610.19
610.189
610.014
610.118
609.773
609.9
609.523
609.634
610.005
609.57
613.628
611.213
395.098
486.629
413.337
607.194
432.177
427.501
609.403
609.247
408.996
501.864
387.651
408.794
404.759
606.596
394.869
608.595
605.615
389.328
514.081
610.882
494.985
387.969
610.197
391.848
661.636
513.754
611.013
685.14
344.654
344.666
609.313
609.413
610.275
627.118
637.629
627.544
632.355
671.625
643.306
668.431
662.879
638.336
624.979
476.417
408.755
411.124
521.933
544.384
512.474
554.603
606.954
607.191
419.951
609.567
608.844
609.282
621.32
610.557
501.802
491.067
496.397
387.947
616.152
409.786
402.707
392.103
394.445
605.563
648.107
394.04
608.168
606.343
605.02
616.047
391.489
607.617
422.031
417.875
412.473
687.499
626.894
609.734
388.854
609.525
464.453
410.493
409.626
404.136
389.295
393.925
412.72
606.696
452.665
414.961
609.552
608.356
609.334
499.946
518.181
604.713
606.128
499.46
388.084
607.711
607.726
607.571
604.788
507.667
504.381
637.891
393.767
628.77
625.359
624.089
446.717
604.696
451.569
404.001
397.751
396.045
410.255
393.68
421.572
420.612
411.893
410.86
609.272
607.901
609.351
607.074
607.192
607.126
522.341
600.8
511.979
530.827
393.703
608.571
460.317
607.857
410.351
610.386
438.85
494.035
408.54
622.289
393.679
604.061
608.826
607.394
607.542
609.307
607.289
617.394
598.921
472.636
600.803
388.821
608.333
609.203
599.063
483.134
491.185
389.732
607.896
609.018
657.208
426.058
427.277
414.586
416.034
409.984
415.289
414.542
408.303
411.035
417.769
414.082
425.771
421.769
433.828
429.801
441.803
437.872
448.9
445.519
455.321
452.215
459.569
457.836
461.027
460.576
461.021
461.134
460.474
460.771
459.878
460.166
459.42
459.627
459.138
459.259
458.994
459.052
458.914
458.953
458.723
458.851
457.94
458.459
455.364
456.986
449.072
452.807
437.713
444.023
422.213
430.348
404.842
413.611
387.933
396.194
373.43
380.289
362.296
367.433
354.486
357.988
349.647
351.742
346.619
348.005
345.331
340.084
343.532
335.108
336.75
333.726
334.259
337.93
334.824
347.557
342.398
357.52
352.779
364.106
361.381
365.399
365.399
361.381
364.106
352.779
357.52
342.399
347.558
334.827
337.932
334.264
333.731
336.758
335.114
343.546
340.096
345.343
348.017
346.631
351.761
349.661
358.015
354.508
367.468
362.327
380.333
373.47
396.247
387.982
413.67
404.899
430.406
422.272
444.07
437.766
452.832
449.11
456.989
455.376
458.46
457.939
458.863
458.73
458.94
458.922
458.918
458.936
458.858
458.888
458.809
458.828
458.823
458.817
458.811
458.831
458.542
458.73
457.595
458.186
455.455
456.704
451.58
453.773
445.65
448.863
438.427
442.126
430.393
434.503
426.192
609.289
609.37
609.061
609.185
608.758
608.917
608.402
608.584
608.047
608.222
607.714
607.878
607.411
607.557
607.279
608.06
607.89
608.417
608.236
608.773
608.599
609.075
608.932
609.201
609.498
609.981
609.74
610.173
609.988
610.093
609.709
609.872
609.186
609.47
608.938
608.956
610.032
609.248
611.328
624.311
428.398
635.629
671.443
653.188
610.151
609.955
610.254
610.253
610.095
610.185
609.906
610.004
609.674
609.789
609.984
609.668
613.269
610.985
617.604
484.307
408.554
550.827
512.313
606.993
427.104
422.308
609.352
609.094
513.613
513.244
614.341
613.056
610.332
643.009
661.822
414.953
419.726
403.143
900.065
418.66
500.054
389.87
416.779
406.678
396.221
606.755
506.928
398.459
608.45
606.491
605.888
389.906
510.867
573.054
581.124
604.492
925.793
433.975
408.642
673.522
409.634
428.934
422.45
413.6
476.742
610.258
613.777
639.448
647.985
685.93
638.925
663.797
609.341
473.192
406.435
405.058
406.2
398.662
390.714
398.242
408.329
606.819
390.318
515.773
608.04
529.069
389.27
414.767
609.518
608.643
609.187
607.029
607.016
607
607.013
516.261
518.01
613.736
605.536
607.572
606.586
599.229
416.367
408.1
499.461
488.262
493.749
390.327
607.426
659.479
610.38
412.336
396.322
399.359
403.16
608.947
606.035
504.246
500.88
398.458
618.526
440.965
412.334
608.425
606.661
631.491
393.695
605.725
607.126
623.3
634.779
347.362
345.694
342.324
343.917
609.281
609.561
609.352
593.391
601.534
603.714
618.054
460.446
393.221
420.097
392.966
405.105
403.855
389.837
397.997
418.251
608.419
410.357
503.041
608.871
609.412
608.15
609.292
607.079
517.572
523.084
598.282
601.99
589.144
494.588
459.308
496.5
390.302
607.555
434.877
411.319
605.697
398.331
415.523
454.066
449.871
591.117
501.527
608.301
446.998
397.421
398.86
404.606
417.129
411.035
391.235
398.074
426.689
604.518
406.96
609.071
607.727
609.362
607.208
527.546
587.593
599.336
432.803
481.831
476.174
495.879
398.219
466.591
486.74
433.849
401.479
408.06
601.72
409.042
405.907
390.01
608.599
607.415
609.367
576.674
598.656
484.834
477.652
486.407
391.762
608.12
609.277
599.547
510.539
682.279
505.091
618.793
609.356
427.908
418.165
419.275
419.809
418.58
419.809
425.206
422.268
408.566
411.988
414.086
412.513
419.337
416.416
426.092
422.577
434.132
430.045
442.184
438.231
449.302
445.885
455.572
452.559
460.893
458.47
463.269
462.473
463.488
463.538
462.91
463.237
462.242
462.567
461.715
461.955
461.374
461.522
461.188
461.264
461.089
461.135
460.892
461.023
460.109
460.626
457.559
459.164
451.341
455.032
440.111
446.349
424.791
432.832
407.634
416.292
390.962
399.107
376.447
383.384
364.58
370.162
356.055
359.839
350.959
353.185
349.044
343.903
338.924
342.308
334.079
335.661
332.714
333.216
336.378
333.592
345.387
340.52
354.905
350.362
361.243
358.617
362.491
362.491
358.617
361.243
350.362
354.905
340.521
345.388
333.595
336.38
333.221
332.719
335.67
334.087
338.937
345.711
349.057
347.376
353.201
350.972
359.868
356.076
370.205
364.617
383.435
376.495
399.162
391.016
416.351
407.692
432.892
424.852
446.396
440.166
455.052
451.375
459.161
457.566
460.617
460.101
461.008
460.882
461.073
461.06
461.039
461.062
460.978
461.007
460.956
460.958
460.982
460.968
460.957
460.988
460.597
460.843
459.453
460.155
457.006
458.426
452.734
455.118
446.703
449.897
439.686
443.272
431.847
435.901
423.159
427.538
415.179
418.954
609.067
609.162
608.833
608.957
608.546
608.695
608.228
608.389
607.919
608.072
607.627
607.772
607.351
607.486
607.128
607.227
607.059
607.012
607.15
607.072
607.128
607.055
607.357
607.232
607.635
607.493
607.929
607.781
608.239
608.082
608.555
608.399
608.843
608.704
609.086
608.97
609.191
610.04
609.799
610.23
610.09
610.168
609.937
610.022
609.654
609.81
609.609
609.544
610.751
609.99
611.958
634.386
509.994
622.799
681.79
650.236
609.823
609.431
609.613
610.215
610.036
610.316
610.313
610.172
610.251
610.037
610.104
609.9
609.961
610.291
609.941
613.269
611.266
616.825
481.3
404.355
394.175
403.246
607.031
617.958
631.502
421.82
417.005
424.684
608.936
607.027
517.417
607.792
589.199
594.33
414.409
414.489
414.739
702.605
417.624
421.56
423.268
412.077
410.373
497.577
393.223
407.336
610.332
409.886
401.848
486.413
502.911
403.797
419.402
608.651
606.906
566.971
563.927
606.535
653.334
455.163
511.753
498.255
499.019
415.447
412.186
516.832
343.904
343.922
409.907
609.428
481.137
656.109
660.9
611.068
693.493
631.765
662.602
469.327
603.21
390.816
403.189
401.548
401.544
398.292
390.98
403.19
414.14
606.945
607.622
512.335
527.527
409.908
609.186
609.444
608.446
609.076
607.062
520.279
522.745
601.566
602.832
575.212
504.811
523.697
416.207
405.133
496.256
484.676
490.3
393.561
607.423
607.127
607.207
697.055
416.907
401.386
405.205
410.049
620.608
630.351
608.851
608.126
606.704
494.156
496.757
404.138
415.359
447.935
608.73
609.044
432.79
608.838
573.914
476.147
497.622
596.983
691.066
612.89
609.57
609.278
609.421
455.95
393.019
395.101
400.426
404.491
390.441
428.194
433.632
430.191
403.569
425.12
602.878
598.971
690.164
518.225
406.141
609.265
607.961
609.229
607.156
607.456
520.792
528.618
592.79
599.769
402.934
470.252
494.782
612.921
426.722
423.793
427.067
423.517
492.63
393.09
607.72
497.976
423.325
419.016
606.582
404.118
546.264
459.821
438.585
441.034
425.833
648.669
428.558
441.994
395.883
402.737
399.003
413.133
422.613
403.929
831.26
567.146
601.462
388.359
403.784
413.501
608.869
607.579
609.351
607.319
533.386
582.878
598.427
571.422
479.304
461.333
627.914
412.822
405.138
471.331
480.726
393.982
608.379
609.394
598.655
487.123
708.682
678.277
424.552
429.448
421.344
421.934
423.501
421.845
429.014
426.239
431.527
430.445
414.566
414.602
416.55
415.183
420.792
418.487
426.863
423.517
434.767
430.635
442.966
438.931
450.004
446.722
455.961
452.917
461.685
458.952
465.066
463.802
465.7
465.616
465.15
465.492
464.421
464.778
463.832
464.103
463.433
463.609
463.2
463.298
463.07
463.129
462.859
462.994
462.083
462.594
459.581
461.154
453.492
457.107
442.464
448.595
427.376
435.301
410.43
418.987
393.819
401.973
378.758
386.069
366.164
372.022
357.861
361.455
353.146
355.215
349.226
351.262
344.999
347.057
342.887
342.333
341.987
337.532
340.823
333.059
334.506
331.851
332.292
335.155
332.636
343.537
338.979
352.548
348.236
358.581
356.078
359.774
359.774
356.078
358.581
348.237
352.548
338.98
343.538
332.64
335.157
332.298
331.857
334.517
333.067
340.841
337.548
342.008
342.347
342.913
347.076
345.021
351.28
349.242
355.231
353.164
361.482
357.88
372.068
366.201
386.123
378.81
402.029
393.875
419.049
410.489
435.364
427.44
448.641
442.52
457.122
453.523
461.146
459.582
462.582
462.072
462.969
462.845
463.031
463.019
462.995
463.019
462.949
462.968
462.96
462.946
462.994
462.975
462.934
462.991
462.451
462.772
461.095
461.909
458.4
459.949
453.976
456.405
448.154
451.196
441.261
444.868
432.888
437.241
424.506
428.571
417.337
420.669
412.179
414.45
410.951
609.097
609.186
608.912
609.007
608.69
608.806
608.428
608.564
608.143
608.287
607.87
608.004
607.611
607.739
607.364
607.484
607.157
607.255
607.04
607.082
607.045
607.028
607.164
607.09
607.367
607.258
607.616
607.489
607.877
607.746
608.151
608.011
608.433
608.293
608.694
608.567
608.923
608.812
609.113
609.024
609.274
609.191
609.409
609.748
609.557
610.144
609.945
480.025
610.303
610.309
484.942
610.155
610.234
609.91
610.059
609.334
609.669
608.757
608.99
609.37
608.841
612.061
610.403
650.533
638.402
558.21
622.203
683.408
645.456
609.948
609.747
610.294
610.143
610.367
610.372
610.244
610.308
610.111
610.186
609.846
609.999
609.728
609.695
611.853
610.227
615.085
477.573
609.088
400.644
394.13
514.486
433.999
434.185
408.818
607.257
607.636
508.501
416.462
411.595
609.37
608.771
607.078
521.851
602.961
564.536
519.489
506.912
506.332
489.555
418.578
422.425
417.019
416.913
420.899
418.201
425.208
423.433
426.807
426.301
426.884
420.844
418.15
408.247
494.26
397.393
607.309
500.932
415.048
408.434
646.542
434.151
506.04
523.95
608.913
608.664
507.681
607.51
498.26
410.223
441.014
626.626
456.756
463.386
410.64
389.487
557.709
641.369
608.986
656.989
519.38
423.118
411.047
565.708
481.191
437.306
499.317
436.849
777.802
423.55
675.127
673.019
639.683
605.478
433.846
621.39
659.46
609.023
609.178
464.875
390.83
392.419
400.874
398.734
397.808
398.699
391.56
431.191
431.317
409.719
421.211
616.707
580.858
607.279
493.601
672.074
521.683
405.595
622.117
556.193
459.896
609.181
609.372
608.256
608.95
607.138
524.518
528.179
596.627
599.728
445.808
450.128
452.581
464.271
517.475
598.225
500.493
490.433
449.668
444.526
442.412
413.229
407.777
419.793
408.936
403.334
492.17
480.236
485.918
397.324
607.563
607.213
607.304
420.837
423.206
407.047
411.757
417.571
607.418
492.197
411.016
435.778
441.911
423.265
486.007
622.501
348.011
345.477
339.908
340.635
609.026
609.176
614.825
423.326
553.801
410.09
450.916
392.414
397.941
396.43
405.881
391.228
424.965
410.622
557.227
433.109
608.593
599.045
609.031
622.681
402.516
392.232
609.116
607.795
609.149
607.258
524.321
534.908
588.306
598.106
565.364
448.226
473.772
493.798