/*--------------------------------*- C++ -*----------------------------------*\
| =========                 |                                                 |
| \\      /  F ield         | OpenFOAM: The Open Source CFD Toolbox           |
|  \\    /   O peration     | Version:  2212                                  |
|   \\  /    A nd           | Website:  www.openfoam.com                      |
|    \\/     M anipulation  |                                                 |
\*---------------------------------------------------------------------------*/
FoamFile
{
    version     2.0;
    format      ascii;
    arch        "LSB;label=32;scalar=64";
    class       volScalarField;
    location    "0.05";
    object      epsilon;
}
// * * * * * * * * * * * * * * * * * * * * * * * * * * * * * * * * * * * * * //

dimensions      [0 2 -3 0 0 0 0];

internalField   nonuniform List<scalar> 
7220
(
59103.5
12424.2
13375.6
13946.6
11766.4
12770.1
13330.5
11797.3
13969
12796.8
143162
6.05088e+06
52989.1
167172
497718
3.37465e+06
702532
53592.6
302659
61800.7
105098
64745
19520.6
316339
26286.3
512735
1.9417e+07
95665.7
106607
121464
10863.6
99968.6
7726.35
135101
57834.4
34461.9
17050.3
204268
141907
273754
282455
282769
273967
32003.5
31360
30977.5
30840.5
30996.1
291699
301471
302040
292094
312201
324477
325357
312884
338528
353033
355839
339873
367408
381940
387900
371611
390235
371283
402165
404049
316466
252709
279430
356742
189969
132075
129421
198570
87519.6
59329.9
55270.6
81722.1
43753.5
36327.6
35428.2
41792.9
31435.6
32620.3
33038.4
31668.5
31166.4
33435.2
265509
265553
274130
265775
31559.2
31298.2
31031.2
31126.3
39042.2
65517.4
48282.4
120437
91779.8
150573
139555
190727
166190
275079
227744
345854
321472
332869
343325
308859
320924
285541
296726
267344
275795
294106
283386
319000
306162
344197
331600
347313
353688
263628
312396
182722
216866
140359
160301
80592.3
111978
43525.1
57355.7
36628
34814.1
259563
257893
34439.3
39141.2
31965.7
31428.8
32979.9
32239.2
38457.2
32870.5
31985.4
35412.7
57863
44849.7
105947
79355.9
132216
126154
132467
132822
137713
133553
165319
147300
237736
195664
314496
284275
305395
315012
282901
294100
261935
271810
252260
246187
253546
257517
257648
248060
240877
250575
264692
255750
286916
275347
309733
298264
306546
317546
222307
267712
159269
184897
137716
144698
133846
134896
118576
131541
66492.6
92713.6
48771.6
32717.2
32589.3
42779.8
55569.5
245555
239326
239731
232588
31751.9
33094.9
32491
32052
53605
34526.1
34643.9
34042
37304.3
43911
96444.8
71359.1
132162
120272
130923
133246
124600
127684
120720
122197
123468
120823
144516
130501
206533
169594
280969
249203
277461
284960
258211
267682
241173
248991
249949
250243
234267
243789
257602
248219
276619
266951
267745
282259
189630
230181
138063
158033
122362
127271
121793
120997
126437
123746
130272
129252
105311
124982
77746.8
35336.2
234499
226156
31878.3
33613.4
34754.7
32303.7
39004.5
65705.8
91378.3
49800.6
33475.1
239319
233025
228437
220307
32402.1
33086.1
35216.2
34235.4
37931.4
37443
35833.4
32416.2
51954.9
88588.4
66056.1
131491
114069
134490
135985
127139
131097
119701
123292
113953
116594
110679
111880
112762
110758
129942
118373
183290
151116
253514
222041
254607
260141
246464
228268
239423
233159
242976
243404
237480
222571
235642
228686
251018
243176
238502
254676
166466
202779
123200
139548
110885
114654
110515
109865
114755
112277
121183
117737
128484
124958
129847
130938
117348
39125.2
42407.8
37187.9
37725.7
37147.4
36681.6
227532
217213
108960
129052
82518.3
40519
33361
32904.4
33737.1
36543
32871.1
40692.7
83282.3
34940
44300.2
63942
38592.7
130212
108599
139106
139093
132236
136149
124322
128280
116663
120376
110786
113465
106532
108475
104228
105063
106339
104440
121519
111349
168662
140026
236246
204667
243558
246154
233537
237922
230248
222796
222468
233783
227963
236671
237188
223481
231697
212459
215399
217792
225603
221438
236748
231166
218634
237598
152257
185142
114254
128360
103690
106953
103141
102736
106293
104421
111261
108594
118196
114468
125899
122057
133330
129891
134585
50582.2
61980.5
42122.7
44843.3
40956.9
40457.8
35672.3
33005.7
52373.2
139329
139733
128623
252713
251114
208841
214980
33546.8
34443.2
35700.8
41474.4
45174.3
45921.7
42428.8
38707.5
33633
37323.3
33399.3
46186.3
39434.1
81749.3
129072
105440
144725
142411
138808
142515
130833
134841
122791
126733
115870
119191
110140
112846
105783
107775
102926
104167
101969
102141
105269
102820
120338
110484
164959
137752
233941
199725
250617
227708
218576
218408
228717
223675
231100
231667
219265
226536
211835
233331
238509
236147
211477
234436
147488
178090
111872
125218
101217
104711
99719.4
99843.3
101560
100373
105144
103189
110229
107482
116792
113339
124613
120578
132714
128684
136738
80688.6
105217
53376.5
63355.8
45627.7
48161.2
44728.9
35352.2
65110.2
250157
232451
140926
144742
43223.4
38028.8
33639.4
34215.8
35195.3
36492.4
46972.8
43525.3
66250.9
40364
7268.22
38158.4
55325.9
84753.6
130579
106458
151854
147067
147073
150489
139109
143105
130857
134954
123547
127059
117351
120324
112095
114607
107922
109857
105370
106414
104497
104714
105954
104870
112068
108139
130153
118787
177571
148851
258831
215993
291706
286735
292132
226413
250341
215917
216036
224294
220103
226282
226875
215730
222082
207062
209564
232385
213568
266603
266631
266711
226410
257212
156137
188074
118871
133206
105596
110408
101684
102971
101433
101255
103217
102128
106654
104720
111532
108948
117469
114377
124476
120830
132657
128464
136803
130538
146950
144536
82426
106292
57627.7
66447.7
52291.1
53548.2
52819.7
52243.5
57352.3
55501.8
48228.1
53953.5
35496.7
8744.28
50287.1
70051
34244.1
14521.9
322764
354846
233480
269712
34933.1
49636.6
35962.9
44712.7
41399
37316.5
39050.6
10968
7835.6
8720.97
9308.09
18459.5
11750.5
42030
38113.5
9078.91
41789
66677.8
64567.3
34735
35203.3
47961
8698.94
61500.2
12611.4
47055.2
57001.5
10319.9
66268.5
55001.1
71810.7
67539.7
93807.1
79927.8
136555
113405
161565
154810
157779
160989
149719
153759
141228
145485
133524
137221
126999
130127
121470
124117
116892
119058
113392
114992
111527
112177
111730
111412
114068
112552
120105
116528
132936
125277
160566
144129
221247
184992
270252
294885
227104
251803
214927
216320
220706
217466
222339
222932
213130
218527
207506
208493
214353
328783
278407
315109
190133
230263
142816
161696
121790
130216
112442
116145
108358
109955
107321
107555
108174
107509
111078
109403
115351
113079
120623
117870
126853
123611
134203
130380
142642
138375
150842
146744
156006
154454
133851
151337
87033.1
108432
67085.6
74028.4
62978.9
63952.3
63350.5
7677.51
8403.48
9986.22
36199.2
34441
7688.18
120127
143389
59575.3
364591
335464
8230.14
38689.3
36038.2
35425.7
34884.6
51139.7
12664.9
42105
78356.5
79199.2
69793.5
35666.8
45974.8
42489
47008.2
4.42386e+06
36760.9
143272
54392.4
10130
38172.2
40008.7
8387.63
7858.98
61520.1
7301.8
7458.1
14391.6
111191
97680.5
150731
129570
176449
168676
172722
176241
163914
168300
154779
159364
146500
150457
139558
142875
133742
136520
128968
131222
125321
126996
122934
123959
122355
122335
124430
123096
128860
126292
137486
132429
154018
144519
182226
166393
228186
202387
309718
262451
448148
379460
473260
298557
369656
230185
254782
215836
219204
218378
216371
219539
220102
212029
216280
209743
209040
236078
217122
340625
273656
438175
386290
429520
265243
318769
198931
226891
161670
177868
139634
149202
127196
132415
120992
123540
118024
119221
117307
117340
119096
117961
122400
120589
126912
124513
132478
129568
139059
135632
146818
142783
155671
151200
164269
159976
168584
167770
142603
161699
101148
119615
81989.9
88808.4
78931.7
7070.5
7452.08
90790.4
10256.2
9608.68
37025.6
35061.8
7174.26
53964.8
52651.1
7480.01
7531.47
11560.4
39472.2
104923
102287
81606.1
35607.3
36877
36188.2
6966.16
47296.9
13510.8
486365
570179
342479
434065
43632.4
35063.8
42806.1
74483.3
9947.12
15485.7
18329.8
22214.1
8460.66
36442.8
10220
12390
6926.23
63969.4
8673.69
8928.44
47582.8
68987.2
10430.1
10454.5
9162.53
9042.02
9433.74
37592.1
41009.2
54861.5
8829.49
39078.7
14273.5
15671.9
11794.9
67074.7
8233.74
14088.4
7762.48
7442.95
55676.5
16014.6
64074.4
16807.1
174989
156325
197616
190550
192651
196847
182759
187630
172691
177726
163648
167956
156141
159714
149952
152894
144943
147299
141172
142895
138778
139792
137966
138153
139482
138335
144325
141519
152250
147831
165542
157949
189149
175779
226640
206045
277538
250563
343318
307782
395891
474526
301251
373267
234308
258094
218747
223298
217916
217492
218281
218795
212941
215875
212688
211221
238976
220199
276721
546503
405532
499114
300861
341115
243553
270245
199972
220138
169639
183122
151482
159250
141334
145727
135224
137911
132052
133223
132008
131723
133921
132759
137379
135469
142174
139622
148099
145000
155183
151477
163736
159265
173633
168631
183351
178473
188186
187330
163220
181010
124629
142668
111990
8099.83
11469.9
12585
11989.6
9186.52
11469.1
12995.1
37905.1
143523
102820
35778.8
7978.01
8036.03
8962.12
7067.03
7435.06
7119.02
7178.07
7174.8
2.83913e+06
48662.1
91662.6
8372.61
587390
542843
44831.6
10810.6
7626.32
8359.4
7825.53
16040.2
40397.1
15209.7
86178.1
20714.5
10391.4
12681.1
10287.3
10629.9
36367.6
37753.2
36992.6
10856
6967.43
8491.36
7718.53
8728.27
8404.96
7688.76
7761.33
6728.12
6975.52
10156.3
12521.7
12466.9
19877.4
16153.2
8550.08
43788.5
78369.9
9229.69
8907.74
44999.4
37262.4
12832.5
10023.8
10822
9432.63
42079.4
48663
83066.4
72446.2
10268.4
8185.83
12354.9
15399.4
14491.5
14267.2
9397.7
38482.2
15162.5
14166.1
13101
11595.4
94740.4
92460.8
40050.8
56181.4
8752.42
14736.6
14412.3
13460.9
13660.9
68863.8
8213.59
9483.18
12461.1
15865.3
7852.67
14704.8
57598.1
50090.2
99728.7
15916.5
12513.3
67014.3
4.75283e+06
221422
213626
217659
221760
207227
212365
196772
202032
186927
191638
178703
182603
171966
175164
166584
169102
162601
164411
160141
161170
159402
159540
160770
159776
165425
162569
174250
169370
187365
180138
208429
196506
242890
223838
291458
265460
354453
321196
425352
389201
538474
469649
695812
643348
678884
464477
570128
302479
372664
236897
259811
222479
226491
219736
220733
218897
219405
215510
217515
214543
213804
240017
221527
339844
277312
521574
422536
626071
639917
652502
467232
553931
378336
415453
312835
345102
257579
283367
216466
235331
188920
201025
172349
179636
161638
166468
154775
157701
151953
152933
151870
151637
153793
152596
157419
155405
162457
159768
168890
165494
176936
172694
186851
181679
198323
192476
209953
204048
217746
215267
198291
212628
161886
179505
149701
46105.3
233526
14635.6
12616.6
7292.95
9402.05
7577.94
14274.1
13477.4
13802.2
13373.1
13204.2
14243.7
13809.6
14899.5
38842.7
105857
90268.6
11508.6
36540.7
9542.93
7216.67
7100.55
7298.26
22708.9
13433.3
142616
18507
17761.2
10541
12456
16047
16761.5
129748
13452.3
9036.9
8646.55
8892.81
8523.57
13631
8523.94
10326.2
9403.72
20321.3
41440.9
91061.5
9002.07
8758.02
12850
10597.6
37177.7
38671.6
37848.5
11452.2
7207.63
9128.78
8275.12
8333.55
43218.8
19484.6
790536
777247
492729
589134
22181.9
10230.8
44984.5
28214.8
82841.8
7561.41
7982.3
13334.1
15817.9
10019.5
38127.8
13038.2
10259.8
44891.9
41084.3
30650.7
50120.2
76392.6
6624.1
9348.29
39422.6
13805.2
12180.7
13082.3
58062.7
8763.84
9619.85
11655.7
13492.8
15738.7
70977.4
8360.56
14315.7
59715
51674
8173.39
16320.4
47456.9
9342.69
16901.9
8278.07
38693.7
70344.7
13673.6
12381.9
16907.3
13500.5
137711
228046
254143
242033
254830
258344
243066
249148
231488
237349
220620
225867
211014
215603
203151
206874
196926
199835
192405
194454
189664
190804
188877
189011
190350
189300
194814
192123
204064
198719
218491
210680
239172
227803
271850
253519
320729
294388
382746
350312
457073
418040
540444
498622
645330
585161
730746
641255
447458
542755
300457
365691
236802
259033
224686
227068
223850
224586
222030
222786
217989
220745
213823
214574
238215
220202
330767
274179
403745
727353
728522
755267
576769
647737
486568
527376
407631
446409
340688
372598
285850
311726
245003
263471
218784
230366
201437
209333
189279
194751
182323
185171
179349
180450
179038
178907
180887
179712
184541
182494
190029
187039
197576
193545
207308
202197
219008
212897
232668
225664
247547
239953
260428
255228
251543
259524
223483
237630
212338
18214.8
15861
16747.4
15033.2
15345.5
13390.6
14674.2
14828.1
13615.2
14990.7
15883.7
15328.6
16807.8
16148.3
17215.7
12525.5
15383.2
15463.5
15565.1
15447.3
15711.8
18802
15223.8
143364
8457.7
11737.5
8812.59
18282
20579.5
19322.1
16927.2
17475.9
16445.4
16555.7
16746.6
16476.7
17900.7
17237.2
18847.8
39836
110333
8738.53
91995.1
12514.7
11424.6
37360.9
10196.1
7638.51
6913.83
7492.55
7511.97
44415.9
286179
24109.2
296459
45930.4
733426
681888
208627
105883
22270.1
23218.7
21553.5
102254
18101
13232.5
12114
10925.1
11010.6
18701.5
10649.9
13951.5
12470.4
26482.2
42591
147631
96423.9
7584.63
7770.41
214305
131707
10777.6
11673.5
12316
10641.3
234454
312768
38026.7
39651.5
38752.5
11886.4
95052.6
88117.6
102056
7674.84
9773.34
8913.73
9132.34
134971
17166.7
16674.3
18724.9
42166.6
25746
210560
19775
22054.5
32156.4
13698
46349.7
87873
6712.1
7472.19
14946.3
14539.5
13294.3
9981.79
39030.4
13002.8
10981.4
185706
12596.6
40406.7
51832.6
72176.3
65354.2
80812.9
78324.7
70387.2
6617.63
12436
9372.22
11179.8
10945.8
13239.6
12480.4
15323.9
60248
64173.1
67902.2
14769.9
13419.4
8920.6
13624.8
62003.3
53376.5
78651.1
82678.1
74204.8
71396.1
66290.4
65282.3
62950.1
63947.9
8638.96
16301.7
48894.8
8621.83
17592.2
8607.5
17826.1
45662.2
1.74825e+06
8699.37
28039.5
74140.1
315880
202950
331888
334349
336120
320071
328642
303183
311727
286105
294577
271638
278612
259279
265175
248864
253802
240801
244541
234976
237596
231455
232931
230286
230569
231736
230661
236302
233575
245362
240120
261166
252387
283499
271485
315151
297742
363715
336995
429324
394747
505999
466587
591432
547461
683759
637460
783867
730063
885044
847047
813046
865341
753012
595878
681789
422427
506963
294984
350732
234380
255972
224410
225328
230645
227583
229834
231476
219008
225523
210903
212817
234429
216818
315537
267766
458578
379361
631093
546245
704707
816518
762006
835365
851609
717995
777331
624287
669749
535235
578950
455496
494170
385184
419072
327795
354531
287766
305597
260938
273199
241399
250422
228365
234003
221159
224201
217680
219031
216999
217034
218613
217528
222541
220248
229254
225531
238836
233746
250709
244515
264694
257471
281245
272551
300822
290666
322899
311988
329897
330152
321812
17502.1
18365.1
16668.3
16989.5
16255.1
16440.3
14394.7
15891.1
16079
14605.2
16203.4
16642.6
16399.8
17521.6
16984.9
18407.9
25861.1
24417.9
20284.9
20936.3
19839.1
19855.9
20168.5
19962.9
21038.4
20484.7
22008.6
40663.3
15026
11418
16002.4
11393.9
22098.4
24318.8
23097.1
20953
21374.4
20915.2
20818.2
21662.2
21202.1
23199.6
22322.9
24475.3
40906.6
116080
7620.91
73406.1
92819.2
11143.5
11403.5
259331
341470
38223.2
77964
10777.3
149559
121429
8210.68
8218.19
111741
368704
18613.6
32121
34007.7
370301
319196
43299.6
27410.8
261327
7939.53
36716.2
27459.2
228055
81410
393358
25715.2
27549
28961.9
7710.82
20203.2
15847.6
16461.7
27135.4
14737.1
20201.1
17887.8
43844.2
155412
102644
6814.64
7204.04
129903
9734.52
10937.8
12267.9
10641.3
429541
38920.5
40690.2
39700.8
68005.8
74200.3
137279
12094.5
94085.7
8197.99
10300.4
9498.34
9913.01
103748
149454
12557.7
85715.5
41436.1
61964.2
873171
803174
580939
649917
31606.2
33160.5
61042.9
49550.9
20320.8
47859.3
93637.6
349744
3.79164e+06
90117.7
6540.08
10338.3
324946
196818
11411.5
13197.5
10003.9
15511.2
10751.3
39974.3
62894.6
12754.5
78717.2
7130.35
11462.6
205589
14785
432678
427107
107252
53726.3
85834.9
73855.4
12272.3
15683.6
14235.7
9506.01
12851
28970.3
12522
69237.7
64305.7
55241.7
62707.8
736154
66220.6
13295.6
9160.26
15875
65042.2
50421.5
8243.62
17921.3
16027.9
14465.7
8996.96
18327.9
46976.1
19103.6
66907.3
9010.69
44488.1
7435.99
37137.5
498715
262187
581340
320483
492453
457325
475821
418220
437243
391182
403104
369288
380132
348710
358843
330924
339329
316516
323284
305165
310430
297023
300699
291874
294068
289756
290434
290768
289855
295371
292577
304509
299278
320500
311423
345506
331977
378878
360976
426020
400093
494040
457565
576818
534154
666523
621158
759168
712558
851411
805920
936389
894500
977288
971969
938512
694087
548945
628575
393157
467208
285312
331442
230482
250998
223321
222357
241221
230943
245239
248244
220195
233569
207053
210304
229251
212426
298202
257826
422792
353766
503114
759145
890814
824833
950796
940733
879762
922226
791131
836144
698740
744954
608799
653310
523621
565412
448016
484172
389740
416257
349633
367980
319860
333763
298120
307876
284669
290540
276738
280148
272584
274238
271501
271675
273321
271985
278804
275539
288174
283063
300661
294039
315707
307902
333560
324242
355298
343819
382650
368222
415500
398831
428355
27136.3
21666.9
23792.2
19511.8
20339.5
18684
19006.4
18232.1
18444.7
17800.6
18024.3
15465.2
17312.1
17565.9
15856.3
17806.5
18207
18003.6
18671.8
18419.6
19523.9
19009.7
21773.3
20375.3
24009
30171.5
26632
26956.5
26616.5
26528.1
27159.7
26839.6
28333
27611.7
31765.6
29498.5
35988.8
22709.2
17407
23235.7
16106.7
30223.4
32263.2
31668
27975.7
28950.8
27237.3
27370.6
27795.9
27417
29033.9
28331.2
30988.7
29891.9
34920.9
32518.5
167281
42051
123122
6969.83
76481.8
95029.1
10310.3
11396.9
470416
39123.7
70562.8
387262
279887
11178.6
108968
8799.12
8996.34
122892
125748
13416.5
42515.4
62016.4
36697.7
128444
2.36474e+06
102164
7304.49
88931.4
738969
700348
29555.4
34807.2
38008.2
41824.8
34673.5
26961.8
28297.8
41754.8
22453.4
31168.1
27676.5
62987.4
55805.8
45187.2
166306
109815
99795.3
488766
180658
216546
6604.67
7016.62
131183
10511.2
12218.9
10667.8
25751.7
11807.8
39856.2
41786.7
40701
63623.2
4.4332e+06
349609
184608
67632.7
71284.6
12104.5
67260.7
89117.6
9968.88
8009.54
10493.7
541939
166749
14396.5
575196
598866
417776
74786.9
32068.1
45699.5
115279
50957.3
49479
100169
413899
293287
102275
82643.5
191927
6925.24
2.49935e+06
196641
11285.5
13091.6
10100.2
441393
98378.3
12371.1
26186.7
40961.6
60867.6
17599.2
20332
20099.4
12341.9
224882
204706
52213.1
75236
4.88871e+06
1.48074e+06
10451
57241.1
11734.4
55799.4
77683
86636.3
231787
92097.9
70317.8
371222
237447
508944
321872
12196
14062.9
9691.58
20618
18719.9
18112.9
96982.7
15165.3
150949
115837
67703.2
10860.2
52058.5
7665.68
85505.2
77631
65568.4
780360
226314
2.87167e+06
65883.2
17849.1
13200.1
17003.1
15204.1
9443.41
16551.3
10892.6
18312
48353.1
20030.2
70703.1
14330.2
9360.52
20233.5
45735.6
43648.6
62791.7
15681.1
9416.72
78024.2
3.80195e+06
328627
535554
465631
455359
649288
593082
528144
746041
657242
698933
585731
619043
533327
557036
497942
513898
468791
483542
440971
454234
418411
428818
401386
409253
389056
394688
381001
384507
376858
378441
376679
376261
380820
378170
390124
384751
406240
397164
432651
417892
470255
450261
518791
492846
586342
549463
674902
628820
771758
722957
868147
820407
958384
914337
1.0339e+06
998931
1.07965e+06
1.06144e+06
1.05183e+06
1.08137e+06
907274
988172
758503
827466
705348
642126
686121
504633
579674
364877
429356
272820
312238
225841
244317
223757
219540
253955
236830
262531
265759
224690
245419
203561
209540
222466
207630
281423
246309
389947
329530
535681
462436
653149
603298
679776
788247
725716
941740
862508
1.05262e+06
1.01165e+06
1.0429e+06
1.05871e+06
982216
1.01632e+06
898967
942380
806807
853547
711568
759263
619189
664523
539552
576916
481526
508121
437857
458365
403955
419611
381201
391294
366771
373194
357859
361747
353320
355109
352818
352517
357093
354262
366416
361190
380154
372774
398007
388535
420505
408654
447780
433559
480861
463283
523937
501059
549208
29067.8
33704.7
24055.6
26014.3
22042.2
22820.5
21243.1
21560.4
20773.9
21001.4
20300
20539.8
19781.4
20049.3
19477.4
20771.9
20553.5
21246.2
20995
22051.4
21567.1
24153.1
22854.6
26237.6
43116.5
40765.2
42232.6
39256.8
36721.7
36640.2
37266.2
36968.7
38034.7
37625.6
39429.6
38574.4
43266.8
40780.5
47892.5
49908.1
62840.6
30001.5
35778.3
24862.5
39600.7
41705.3
37185.1
38135.1
37151.6
36907.3
38516.5
37733.7
40383.1
39420.1
42804.6
41472.4
47363.2
44581.3
50536.9
43257.3
132013
352900
176616
6773.41
80142.8
98747.1
9826.02
11393.4
102551
104965
24559.4
15421.7
52676.9
54606.5
201475
707098
1.07766e+06
128856
6.9628e+06
818143
40069.3
65154.4
78170.3
249051
76016.4
11369.3
122974
104269
9382.86
8936.95
9613.56
137396
244752
182563
111065
14771.9
8.07834e+06
281336
117078
48925.7
497065
1.98806e+06
590615
612311
657062
52118.1
71236.3
78187.5
62346.8
63903.9
35219.6
43863.6
54530.4
46596.1
244664
179648
118070
213416
119621
95685.7
145852
6858
108757
162552
10803.4
485364
98804.1
134952
10441.3
12167.6
10722.8
20344.6
23662.4
23466.6
20116.9
104258
100339
43529.3
40892.8
23563.2
12907.5
24547.5
657425
387466
40827.1
42957.6
41763.3
60663.5
19848.2
7.25571e+06
77706.9
307289
62771
65242.8
72928.8
8942.88
12013
105199
194358
84040
11267.7
59286.6
610217
10313.6
7659.67
116204
101047
10949.2
9613.43
77907.8
89443.5
743771
691338
618149
650934
44647
56112.1
56658.1
71845.7
80069.9
49548.9
56380.6
51203.9
97108.4
67328.1
189116
107947
325891
113795
77009.1
167897
8112.69
200747
526751
8674.23
11260.8
12973.2
10225.6
17807.4
123715
92927.3
37977.9
14510.2
44173.2
1.01408e+06
1.03497e+06
41997.3
59926.3
17377.7
61361.4
70350
11798.3
72226.5
902085
53796.4
2.76274e+06
18429.5
102062
91892.3
58087.5
96217.6
262469
100419
717049
498625
82111.1
68267.9
208957
17460.8
330965
12151.6
13866.1
9899.91
16150.8
90341
61958.7
17862.9
3.39003e+06
634898
596992
321354
67089.4
49801.1
1.9663e+06
68787.2
94786.8
399789
20500.5
802195
556311
76065.8
13112.4
14901.3
9731.01
94507.4
20818.3
282175
47044.2
44840.2
64897.3
14194.5
9707.87
21855.7
125197
110536
162186
1.15922e+06
9589.96
519006
762660
668392
952331
856069
806658
1.2257e+06
1.06862e+06
873449
1.18011e+06
1.00154e+06
1.08224e+06
873148
932707
778465
822266
711035
742104
660582
684228
616000
637720
578300
595991
549810
562968
529276
538661
515136
521451
506817
510272
503927
504691
506672
504566
515774
510356
532652
523123
559868
544719
601641
578776
656325
627643
724475
688239
815423
766848
920311
867522
1.02196e+06
972157
1.11055e+06
1.06857e+06
1.17574e+06
1.14662e+06
1.20667e+06
1.19643e+06
1.18772e+06
1.2047e+06
1.08495e+06
1.14985e+06
902549
997078
815593
670155
599162
647319
465777
536155
339323
396979
259868
293987
221230
236151
226065
217945
260809
242838
268834
271239
231287
253690
201467
211529
214618
202898
265564
234998
361906
307496
497277
427707
564048
675185
783054
718925
954155
863351
1.11635e+06
1.04415e+06
1.18152e+06
1.1609e+06
1.17662e+06
1.18553e+06
1.12878e+06
1.15696e+06
1.05309e+06
1.09379e+06
959480
1.00786e+06
857594
909055
758011
806478
677963
714945
616053
645391
565568
589394
528803
545329
504413
515348
488379
495475
479159
483008
475986
476776
479538
476850
489670
483805
505946
497099
528418
516277
558677
542424
597595
577186
642866
619359
697276
668535
762642
728918
830932
797291
31842.5
36341.5
27184.4
28985.5
25344.1
26059.4
24585.1
24887.8
24117.2
24344
23623.7
23875.8
23085.8
23360.5
23263.6
22840.5
23760.1
23239.6
19477.6
19721.5
22611.9
22977.6
23082.3
22650
23658.3
23390.6
24137.1
23903.9
24597.4
24360.1
25350.2
24895.3
27245.1
26078
32151.6
29130.5
36976.7
55796.4
57535
54011.5
53252.2
52527.5
54616.3
53988.1
55649.5
55160.1
57085.1
56159.9
61210
58560.5
65852.4
94752.3
1.50431e+07
46817.4
55233
39107.9
62082.5
72685.3
67626.9
54716.9
57602
52256.5
52995.8
53354.8
52520.7
55969.3
54615.5
58612.9
57325.2
61430.1
59930.8
66403.4
63471.3
70798.5
44538.4
142468
158459
115734
6965.35
840017
50026.2
84419.4
103960
1.52513e+06
11396.3
19914.4
102755
15713.7
23459.4
23613.3
442365
815723
738236
117070
992875
1.17347e+06
1.30743e+06
864951
616608
41060.3
61282.2
1.65699e+07
52001.5
222056
68687.7
5.05749e+06
118705
97074.2
128621
9887.25
8471.52
192146
182951
10227.9
110667
1.84175e+07
392959
105276
930470
104727
1.3039e+06
585577
660077
651256
913201
75806.9
733638
163089
128582
79962.7
104108
63388.8
77545.2
48093
241417
155936
262369
195495
127838
237622
137668
87392.3
128129
7458.11
7563.01
106269
1.14441e+07
141343
9228.75
10486.4
12107.3
10778.6
17579.8
99985.6
96958.5
22870.9
14570.6
40628.3
610061
506391
2.1976e+06
398655
41844.6
44225.5
42890.3
58833
17108.6
17224.7
17027.8
1.59802e+06
271943
59222.4
60709.7
66355.9
114526
132136
8606.91
11193.7
11701.3
445909
208269
79158.6
629880
55643.4
8795.13
9810.12
4.43294e+06
10508.4
242335
1.27924e+06
99521.7
82500.9
7.76825e+06
103672
103379
76959.3
109644
53035.8
110960
215664
117166
356793
124955
1.4466e+06
2.59663e+06
1.53897e+06
72824.7
143762
16950.4
16934.3
2.91921e+06
264721
210650
11265.4
12839.2
10359.2
15868.8
11300.5
106367
87686.9
35118
17193.2
91269.5
590710
1.91807e+06
2.0027e+06
3.3018e+06
2.88203e+06
2.64197e+06
2.25647e+06
43082.1
59841
15498.5
139635
69107.6
64236.3
11197
70016.1
189193
51325
678206
385258
1.77809e+06
104498
72479.5
60565
108865
315463
107740
550731
923167
67836.1
7.08275e+06
60385.1
20548.4
87143.2
349071
666175
12117.3
13644.9
10106.2
14615.2
83310.6
54618.8
20810.3
90918.2
276401
1.93797e+06
149330
519588
597244
48433.5
46087.2
68197.7
13025
10002.6
23159.8
149676
156274
149354
937481
816316
1.18238e+06
1.05465e+06
1.4855e+06
1.32176e+06
1.92902e+06
1.68641e+06
2.22399e+06
3.04852e+06
1.60479e+06
1.76575e+06
1.36497e+06
1.47444e+06
1.19373e+06
1.27255e+06
1.06937e+06
1.12701e+06
975522
1.01918e+06
898385
935729
834801
864582
785228
808485
747617
764987
720857
732966
703564
711118
695061
698233
695050
693992
703812
698285
722421
711785
752773
735976
798119
773275
861829
827859
938183
898700
1.02843e+06
980924
1.13908e+06
1.08203e+06
1.24595e+06
1.19467e+06
1.32933e+06
1.29127e+06
1.37823e+06
1.35881e+06
1.38317e+06
1.38658e+06
1.33747e+06
1.36711e+06
1.23185e+06
1.29291e+06
1.05637e+06
1.15273e+06
847480
950185
688402
758589
612544
639397
602685
649026
645363
565852
619157
433545
501088
317715
370091
248204
277648
217533
228282
227384
217257
257535
243188
263316
265299
233518
252014
200917
213885
207246
199001
251362
224727
338481
288890
466601
399393
593965
534393
640518
633777
607101
632313
612782
734963
672620
913716
816513
1.11805e+06
1.01869e+06
1.26538e+06
1.2012e+06
1.34302e+06
1.31199e+06
1.36467e+06
1.36017e+06
1.33971e+06
1.35759e+06
1.27582e+06
1.31197e+06
1.18333e+06
1.23254e+06
1.07384e+06
1.12966e+06
972205
1.02028e+06
888914
928924
816594
851489
758924
785454
718036
736681
689805
702532
672356
679825
664586
667246
666927
664573
678787
671718
699515
688118
729376
713240
770146
748330
824129
795477
891007
856499
965260
926636
1.05166e+06
1.00726e+06
1.14826e+06
1.09864e+06
1.28334e+06
1.20613e+06
1.37693e+06
46721.3
57995.6
35620.5
39848.4
31411.5
33019.8
29779.3
30417.8
29073.1
29359.4
28611.3
28833.6
28135.7
28385.2
27646.5
27882
27797.7
27580.8
28132.2
28095.1
27768.8
27994.9
27286.8
27508.4
27581.7
27320.6
28150.9
27878
28652.2
28409.5
29097.9
28878.1
29781.7
29371.7
31434.2
30420.2
35766.3
33084.2
47326
40146.6
78694.8
59119.8
111781
94123.6
106182
81340.5
85066.4
348764
79001.6
78581.5
381175
81672.6
80120.8
84338
83136
85635.3
85189.1
86784.8
86093.3
90968.3
88273
103647
95722.8
195137
3.94147e+06
36064.3
88862.8
90312.7
69949.7
89407.9
96277.8
80212.9
83837.3
78273.5
78271.5
81203.2
79279.1
85925.6
83570.2
89515.7
87884
92564
90971.2
98347.6
94733.4
104307
45917.6
9321.87
155077
178002
244239
2.87518e+06
3.27266e+06
103285
7456.47
10644.6
399360
89189
110599
9851.66
11392.7
17392.8
99134.2
16533.3
38015.8
161108
419626
533242
419939
1.00245e+06
875731
1.26466e+06
1.13071e+06
1.5694e+06
1.41062e+06
1.92219e+06
1.73913e+06
2.43072e+06
2.1227e+06
2.90727e+06
2.58514e+06
2.3893e+06
632613
42097
58613.8
16860.6
99136.8
195918
63133.8
162437
434264
333307
142961
8706.13
11081.2
706704
11491.1
122357
89438.2
57393.7
31738.2
998474
1.01029e+06
88924.4
104002
164608
2.13661e+06
10164.1
4.21845e+06
2.54718e+06
93684.8
1.49104e+06
500973
1.52164e+06
718752
102399
1.15477e+06
3.15257e+06
3.4917e+06
337214
235072
173614
139057
185458
118079
145894
80904.6
114647
49700.2
130095
178458
283651
215148
139505
261389
153668
2.10161e+06
1.75306e+06
80536.6
112175
85461.1
24162.1
8202.29
96254.6
3.57132e+06
257215
150996
9685.48
68100.5
74425.7
9194.12
10505.6
12034.9
10840.1
15655.2
93001.2
91782.6
22847.2
16887.2
664398
1.07104e+06
624967
555632
106557
76438.4
1.56314e+06
937234
1.01387e+06
677143
1.04472e+06
1.46978e+06
101530
1.97521e+06
973883
424821
42908.8
45601.9
44084.5
57917.7
15315.5
15339.2
15225.6
977813
245512
56709.5
57337.4
61238
11274
207084
75053.6
58135.4
248472
1.19386e+06
4.07828e+06
18747.4
532129
526292
636314
607623
81940.2
116003
122508
76576.1
193792
80009
54964.8
126639
253034
127058
390134
135571
1.00146e+06
70381.4
34334.2
115400
8198.18
20182.2
10866.2
165804
227320
88428.5
11282.4
12690.9
10487.9
14384
94752.2
80965.8
33105.9
20363.4
84879.8
382087
281779
104031
654308
169657
4.21341e+06
1.56798e+06
966787
1.56966e+06
178525
204417
44208.7
60760.1
14058.3
10032.3
23026.6
324942
59573
10599.4
95424.3
63265.2
124836
380783
613737
15782.5
69097.6
5.41934e+06
280588
377263
49911.4
47387.5
72326.4
12085.6
13438.3
10296.2
75370.7
50689.1
23829.1
152027
435845
8137.32
2.10181e+06
2.29065e+06
238135
210448
212041
107611
98216.3
9023.05
10921.8
3.93399e+06
3.64402e+06
468170
493721
1.71923e+06
129756
91843.2
120443
1.10467e+06
1.47276e+06
1.27528e+06
1.93183e+06
1.69616e+06
2.48672e+06
2.18549e+06
3.20606e+06
2.84254e+06
3.94114e+06
3.58801e+06
4.58963e+06
4.27467e+06
4.88187e+06
4.8327e+06
102983
4.05017e+06
4.12409e+06
676990
3.00919e+06
3.23015e+06
2.54486e+06
2.78374e+06
2.14115e+06
2.32751e+06
1.84697e+06
1.98259e+06
1.63366e+06
1.73229e+06
1.46994e+06
1.54753e+06
1.33685e+06
1.40015e+06
1.23347e+06
1.28177e+06
1.14951e+06
1.18893e+06
1.08408e+06
1.11476e+06
1.0348e+06
1.05742e+06
1.00164e+06
1.01622e+06
983986
990928
980973
980706
991888
984727
1.01648e+06
1.00245e+06
1.05559e+06
1.03414e+06
1.11082e+06
1.08105e+06
1.18487e+06
1.1453e+06
1.27724e+06
1.22947e+06
1.37587e+06
1.32614e+06
1.48158e+06