/*--------------------------------*- C++ -*----------------------------------*\
| =========                 |                                                 |
| \\      /  F ield         | OpenFOAM: The Open Source CFD Toolbox           |
|  \\    /   O peration     | Version:  2212                                  |
|   \\  /    A nd           | Website:  www.openfoam.com                      |
|    \\/     M anipulation  |                                                 |
\*---------------------------------------------------------------------------*/
FoamFile
{
    version     2.0;
    format      ascii;
    arch        "LSB;label=32;scalar=64";
    class       volVectorField;
    location    "0.000123";
    object      U;
}
// * * * * * * * * * * * * * * * * * * * * * * * * * * * * * * * * * * * * * //

dimensions      [0 1 -1 0 0 0 0];

internalField   nonuniform List<vector> 
22212
(
(-5.19e-12 6.01 -12.3)
(-1.06e-12 5.78 -12.5)
(1.1e-11 5.29 -12.5)
(2.02e-11 4.94 -12.7)
(-1.39e-11 4.57 -12.7)
(4.82e-11 4.23 -12.9)
(1.49e-11 3.91 -13)
(-5.4e-11 3.6 -13.1)
(5.5e-11 3.3 -13.2)
(-3.4e-12 3.02 -13.2)
(5.98e-11 2.73 -13.3)
(-3.86e-11 2.42 -13.3)
(2.52e-11 2.08 -13.4)
(-1.63e-11 1.73 -13.4)
(6.39e-12 1.39 -13.5)
(2.57e-11 1.06 -13.5)
(-3.43e-11 0.759 -13.5)
(2.45e-11 0.45 -13.5)
(-1.57e-11 0.147 -13.5)
(1.14e-12 -0.186 -13.5)
(5.62e-14 -0.494 -13.5)
(-3.07e-12 -0.777 -13.6)
(-3.09e-12 -1.01 -13.6)
(-8.1e-12 -1.24 -13.6)
(1.37e-11 -1.48 -13.6)
(1.14e-11 -1.72 -13.5)
(-2.92e-12 -1.97 -13.4)
(-7.07e-13 -2.2 -13.4)
(3.03e-12 -2.41 -13.3)
(3.77e-12 -2.59 -13.2)
(1.64e-11 -2.79 -13.1)
(-3.21e-11 -2.95 -13)
(5.75e-11 -3.13 -12.9)
(-2.02e-11 -3.29 -12.8)
(6e-12 -3.46 -12.6)
(-3.77e-12 -3.62 -12.5)
(2.03e-11 -3.77 -12.3)
(-3.01e-11 -3.92 -12.1)
(-3.66e-12 -4.08 -12)
(4.15e-11 -4.25 -11.8)
(-2.69e-11 -4.45 -11.6)
(1.57e-11 -4.66 -11.4)
(-6.64e-12 -4.88 -11.1)
(1.39e-11 -5.1 -10.9)
(1.26e-11 -5.28 -10.6)
(-5.9e-13 -5.42 -10.3)
(4.7e-11 -5.54 -10.1)
(-1.05e-11 -5.66 -9.78)
(4.1e-12 -5.77 -9.48)
(-4.42e-12 -5.89 -9.2)
(-2.6e-12 -6.01 -8.9)
(3.42e-11 -6.15 -8.6)
(-1.23e-11 -6.25 -8.31)
(-6.99e-12 -6.37 -8.02)
(2.37e-11 -6.47 -7.76)
(-6.12e-11 -6.56 -7.49)
(1.27e-11 -6.61 -7.23)
(1.63e-11 -6.65 -6.95)
(-2.44e-11 -6.66 -6.67)
(2.85e-11 -6.66 -6.33)
(-3.08e-11 -6.66 -5.99)
(-1.01e-11 -6.62 -5.65)
(-2.12e-11 -6.63 -5.3)
(-2.51e-11 -6.6 -5)
(-1.25e-11 -6.61 -4.7)
(1.77e-11 -6.59 -4.44)
(3.33e-11 -6.58 -4.16)
(-3.9e-11 -6.56 -3.88)
(2.64e-11 -6.54 -3.59)
(-1.38e-11 -6.52 -3.27)
(4.97e-11 -6.5 -2.93)
(-5.29e-11 -6.48 -2.56)
(4.26e-11 -6.46 -2.21)
(-1.54e-11 -6.43 -1.85)
(3.69e-12 -6.39 -1.49)
(-3.25e-11 -6.3 -1.12)
(-2.6e-12 -6.21 -0.738)
(-1.93e-11 -6.1 -0.346)
(3.41e-11 -6 0.0527)
(-4.34e-12 -5.89 0.479)
(3.04e-11 -5.8 0.922)
(-5.86e-12 -5.7 1.39)
(2.73e-12 -5.59 1.84)
(-1.69e-13 -5.47 2.31)
(3.28e-13 -5.41 2.76)
(-8.21e-14 -5.36 3.21)
(-3.09e-13 -5.35 3.68)
(-5.12e-13 -5.32 4.15)
(8.65e-14 -5.31 4.62)
(-4.71e-13 -5.29 5.09)
(-2.62e-14 -5.29 5.55)
(-1.25e-12 -5.27 5.98)
(-1.93e-11 -5.25 6.43)
(-2.19e-11 -5.24 6.87)
(8.57e-12 -5.21 7.32)
(-2.46e-12 -5.18 7.77)
(4.82e-12 -5.13 8.21)
(-2.78e-12 -5.09 8.64)
(8.61e-12 -5.01 9.06)
(-3.81e-12 -4.89 9.5)
(2.18e-12 -4.78 9.91)
(1.79e-12 -4.75 10.3)
(-3.04e-13 -4.79 10.6)
(3.81e-12 -4.82 10.9)
(2.85e-11 -4.86 11.2)
(-2.91e-11 -4.88 11.5)
(9.62e-12 -4.88 11.8)
(3.04e-12 -4.87 12.1)
(-6.26e-12 -4.81 12.4)
(2.47e-12 -4.75 12.7)
(-6.77e-13 -4.66 13)
(-3.33e-12 -4.53 13.3)
(8.26e-12 -4.39 13.6)
(-1.59e-12 -4.22 13.9)
(-1.96e-11 -4.05 14.2)
(2.28e-11 -3.88 14.5)
(1.93e-11 -3.71 14.8)
(-3.08e-11 -3.51 15)
(5.07e-12 -3.32 15.3)
(3.11e-12 -3.11 15.6)
(3.36e-11 -2.93 15.9)
(-2.36e-11 -2.75 16.1)
(2.09e-11 -2.6 16.4)
(2.37e-12 -2.46 16.6)
(-3.49e-12 -2.32 16.8)
(-2.32e-12 -2.15 16.9)
(3.7e-12 -1.97 17.2)
(-1.07e-11 -1.78 17.3)
(9.6e-12 -1.56 17.6)
(-1.14e-12 -1.32 17.7)
(-2.95e-12 -1.03 17.9)
(-6.31e-12 -0.754 18.1)
(1.19e-11 -0.428 18.3)
(1.17e-12 -0.13 18.4)
(9.13e-12 0.194 18.5)
(1.55e-12 0.527 18.6)
(6.4e-12 0.844 18.7)
(-2.63e-12 1.12 18.9)
(-4.23e-13 1.39 18.9)
(5.14e-13 1.66 19)
(7.8e-12 1.98 19)
(8.81e-12 2.33 19.1)
(-2.6e-12 2.69 19.1)
(-1.22e-11 3.03 19.1)
(-1.83e-11 3.4 19.1)
(-1.65e-11 3.81 19)
(-1.52e-11 4.21 19)
(-1.19e-11 4.63 18.9)
(-2.58e-11 5.02 18.8)
(3.84e-11 5.44 18.7)
(-3.75e-11 5.82 18.6)
(6.4e-12 6.28 18.5)
(1.58e-12 6.68 18.4)
(9.93e-12 7.11 18.3)
(1.16e-11 7.46 18.2)
(1.34e-11 7.83 18)
(1.15e-11 8.1 17.9)
(2.31e-11 8.37 17.8)
(5.96e-11 8.63 17.7)
(-4.13e-11 8.94 17.5)
(2.86e-11 9.32 17.3)
(2.29e-11 9.74 17.1)
(-7.89e-12 10.2 16.8)
(2.77e-11 10.7 16.6)
(-1.64e-11 11.1 16.3)
(3.48e-11 11.5 16.1)
(-8.07e-12 11.9 15.8)
(2.38e-11 12.3 15.5)
(-1.68e-11 12.6 15.2)
(9.58e-11 13 14.9)
(-7.45e-11 13.3 14.6)
(5.09e-11 13.6 14.1)
(-2.29e-11 14 13.9)
(-8.98e-12 14.3 13.3)
(-6.39e-12 14.8 13)
(-4.7e-12 15 12.3)
(-7.03e-12 5.78 -13)
(-6.39e-12 5.6 -13.1)
(3.91e-12 5.11 -13.1)
(1.53e-11 4.74 -13.4)
(1.28e-11 4.37 -13.4)
(1.41e-11 4.02 -13.5)
(6.05e-11 3.67 -13.6)
(-4.95e-11 3.33 -13.6)
(1.28e-11 3.02 -13.7)
(3.82e-11 2.71 -13.8)
(6.49e-11 2.4 -13.8)
(-2.63e-11 2.06 -13.9)
(1.63e-11 1.69 -14)
(-7.6e-12 1.32 -14)
(-1.5e-11 0.967 -14)
(4.95e-11 0.626 -14.1)
(-4.01e-11 0.318 -14.1)
(2.53e-11 -0.00338 -14.1)
(-1.3e-11 -0.346 -14.1)
(-4.27e-12 -0.729 -14.1)
(1.87e-12 -1.09 -14)
(-6.64e-13 -1.4 -14)
(-1.54e-11 -1.67 -14)
(1.26e-12 -1.92 -14)
(-1.44e-12 -2.18 -14)
(2.1e-11 -2.45 -13.9)
(-1.81e-12 -2.72 -13.8)
(-2.58e-12 -2.96 -13.7)
(7.85e-13 -3.19 -13.7)
(1.65e-12 -3.39 -13.6)
(2.94e-11 -3.6 -13.4)
(-3.02e-11 -3.79 -13.3)
(5e-11 -3.99 -13.2)
(-3.69e-12 -4.19 -13.1)
(1.18e-12 -4.39 -12.9)
(-9.56e-12 -4.58 -12.8)
(4.08e-11 -4.76 -12.6)
(-3.63e-11 -4.93 -12.4)
(-2.14e-11 -5.11 -12.3)
(6.31e-11 -5.28 -12.1)
(-3e-11 -5.49 -11.9)
(1.06e-11 -5.72 -11.7)
(5.16e-13 -5.95 -11.4)
(6.18e-12 -6.16 -11.1)
(7.97e-12 -6.35 -10.9)
(7.85e-12 -6.51 -10.6)
(3.63e-11 -6.65 -10.3)
(6.51e-12 -6.78 -9.98)
(3.17e-12 -6.91 -9.68)
(-1e-11 -7.03 -9.4)
(7.71e-12 -7.16 -9.1)
(1.71e-11 -7.3 -8.8)
(6.15e-12 -7.42 -8.52)
(-1.78e-11 -7.55 -8.23)
(4.75e-11 -7.67 -7.94)
(-5.76e-11 -7.77 -7.65)
(-1.35e-11 -7.84 -7.37)
(3.92e-11 -7.88 -7.07)
(-3.06e-11 -7.9 -6.76)
(2.35e-11 -7.92 -6.41)
(-2.36e-11 -7.92 -6.05)
(-1.82e-11 -7.91 -5.71)
(-2.11e-11 -7.92 -5.37)
(-2.85e-11 -7.9 -5.06)
(-2.11e-11 -7.91 -4.77)
(1.35e-11 -7.9 -4.49)
(5.53e-11 -7.89 -4.2)
(-4.49e-11 -7.87 -3.91)
(1.43e-11 -7.85 -3.63)
(-8.32e-12 -7.83 -3.3)
(5.99e-11 -7.82 -2.96)
(-4.91e-11 -7.83 -2.59)
(3.84e-11 -7.83 -2.22)
(-5.15e-12 -7.83 -1.83)
(-1.53e-12 -7.81 -1.43)
(-5.25e-11 -7.75 -1.03)
(-6.5e-12 -7.67 -0.631)
(-2.68e-11 -7.57 -0.242)
(2.23e-11 -7.47 0.157)
(1.04e-11 -7.39 0.581)
(9.79e-12 -7.31 1.03)
(-3.43e-12 -7.22 1.51)
(4.54e-13 -7.13 1.97)
(9.37e-13 -7.04 2.41)
(-2.35e-14 -6.97 2.84)
(8.51e-14 -6.92 3.28)
(-8.46e-14 -6.89 3.73)
(-1.06e-13 -6.85 4.19)
(2.76e-13 -6.83 4.65)
(-8.66e-13 -6.8 5.11)
(-1.44e-13 -6.79 5.56)
(-1.18e-12 -6.76 6)
(-2.58e-11 -6.73 6.45)
(-2.87e-11 -6.69 6.89)
(1.36e-11 -6.64 7.35)
(-4.26e-12 -6.59 7.81)
(7.32e-12 -6.53 8.27)
(-5.87e-12 -6.44 8.72)
(1.68e-11 -6.3 9.19)
(-3.5e-12 -6.17 9.62)
(5.67e-12 -6.11 9.96)
(3.48e-12 -6.11 10.3)
(-4.3e-13 -6.12 10.6)
(2.07e-11 -6.13 10.9)
(1.78e-11 -6.14 11.2)
(-1.95e-11 -6.15 11.5)
(3.34e-11 -6.14 11.9)
(2.58e-12 -6.1 12.2)
(-8.85e-12 -6.02 12.5)
(5.52e-12 -5.92 12.9)
(-1.96e-12 -5.81 13.2)
(-4.09e-12 -5.67 13.5)
(1.2e-11 -5.52 13.8)
(-7.25e-12 -5.34 14.2)
(-2.43e-11 -5.16 14.5)
(4.25e-11 -4.98 14.7)
(1.22e-11 -4.8 15)
(-4.52e-11 -4.57 15.3)
(5.7e-12 -4.38 15.6)
(1.56e-11 -4.16 15.9)
(2.18e-11 -3.96 16.2)
(-2.12e-11 -3.75 16.4)
(3.52e-11 -3.56 16.6)
(-1.22e-11 -3.39 16.9)
(-9.71e-12 -3.21 17.1)
(4.49e-12 -3.02 17.3)
(-4.24e-12 -2.83 17.5)
(-5.74e-12 -2.61 17.7)
(1.4e-11 -2.37 17.9)
(-6.6e-12 -2.09 18.1)
(-5.46e-12 -1.78 18.4)
(-3.67e-12 -1.45 18.5)
(1.24e-11 -1.1 18.7)
(-3.36e-12 -0.759 18.9)
(1.42e-12 -0.403 19)
(-2.57e-12 -0.0183 19.2)
(1.06e-11 0.336 19.3)
(-5.23e-12 0.628 19.4)
(-2.07e-12 0.933 19.4)
(-1.78e-12 1.24 19.5)
(1.08e-11 1.6 19.6)
(1.33e-11 1.98 19.6)
(3.19e-12 2.36 19.7)
(-4.42e-12 2.75 19.7)
(-1.04e-11 3.14 19.7)
(-1.11e-11 3.58 19.6)
(-1.07e-11 4.02 19.6)
(-1.04e-11 4.46 19.5)
(-5.08e-12 4.88 19.4)
(4.01e-11 5.3 19.4)
(-4.49e-11 5.7 19.3)
(1.83e-11 6.17 19.2)
(-2.12e-12 6.6 19)
(9.93e-12 7.05 18.9)
(1.37e-11 7.42 18.8)
(1.64e-11 7.8 18.7)
(1.66e-11 8.12 18.6)
(5.39e-11 8.42 18.4)
(-1.98e-12 8.71 18.3)
(9.72e-12 9.04 18.2)
(1.41e-11 9.42 18)
(5.9e-12 9.85 17.8)
(8.5e-12 10.3 17.5)
(1.14e-11 10.8 17.2)
(-2.51e-11 11.3 17)
(5.03e-11 11.7 16.7)
(-7.85e-12 12.1 16.4)
(1.14e-11 12.5 16.1)
(4.86e-12 12.9 15.8)
(8.38e-11 13.2 15.5)
(-7.32e-11 13.6 15.2)
(6.09e-11 14 14.7)
(-3.39e-11 14.4 14.5)
(-6.17e-12 14.8 13.9)
(-7.86e-12 15.3 13.6)
(-5.57e-12 15.4 12.9)
(1.59e-13 5.55 -13.2)
(-5.25e-13 5.38 -13.3)
(-6.77e-12 4.9 -13.3)
(1.12e-11 4.5 -13.5)
(1.96e-12 4.13 -13.5)
(-9.83e-11 3.79 -13.7)
(5.08e-11 3.44 -13.7)
(-3.71e-11 3.1 -13.8)
(-1.32e-10 2.78 -13.8)
(-1.36e-11 2.49 -13.9)
(8.51e-11 2.18 -14)
(-4.45e-12 1.84 -14)
(9.54e-12 1.48 -14.1)
(8.64e-12 1.12 -14.1)
(-4.33e-11 0.768 -14.2)
(5.94e-11 0.431 -14.2)
(-1.85e-11 0.123 -14.2)
(1.53e-11 -0.171 -14.2)
(-6.22e-13 -0.455 -14.2)
(-1.03e-11 -0.795 -14.2)
(7.91e-12 -1.16 -14.2)
(-8.46e-12 -1.5 -14.2)
(1.36e-11 -1.79 -14.2)
(-3.43e-11 -2.06 -14.1)
(-6.89e-11 -2.32 -14.1)
(-4.74e-11 -2.59 -14)
(-5.23e-12 -2.87 -13.9)
(-7.45e-12 -3.12 -13.8)
(-7.46e-12 -3.36 -13.7)
(-1.06e-11 -3.57 -13.6)
(9.09e-12 -3.79 -13.5)
(1.84e-11 -4 -13.4)
(1.13e-11 -4.2 -13.3)
(2.68e-11 -4.4 -13.2)
(3.2e-12 -4.61 -13)
(-2.49e-11 -4.81 -12.8)
(6.22e-11 -5 -12.7)
(-1.89e-11 -5.18 -12.5)
(-4.13e-11 -5.37 -12.3)
(6.27e-11 -5.57 -12.2)
(-1.15e-11 -5.79 -12)
(-8.26e-13 -6.01 -11.8)
(2.23e-12 -6.24 -11.5)
(1.05e-12 -6.46 -11.2)
(-1.99e-11 -6.66 -10.9)
(9.65e-12 -6.84 -10.6)
(3.01e-11 -6.98 -10.3)
(2.63e-11 -7.12 -10)
(1.82e-11 -7.26 -9.71)
(-2.27e-11 -7.39 -9.44)
(1.16e-11 -7.52 -9.14)
(6.82e-12 -7.68 -8.85)
(2.8e-11 -7.82 -8.57)
(-2.47e-11 -7.96 -8.28)
(4.71e-11 -8.09 -7.98)
(-1.35e-11 -8.19 -7.67)
(-5.06e-11 -8.26 -7.36)
(5.21e-11 -8.3 -7.03)
(-2.07e-11 -8.33 -6.7)
(5.08e-12 -8.35 -6.34)
(-8.74e-12 -8.35 -5.98)
(-1.91e-11 -8.35 -5.63)
(-1.92e-11 -8.37 -5.3)
(-2.26e-11 -8.36 -4.99)
(-2.41e-11 -8.38 -4.7)
(1.16e-13 -8.38 -4.41)
(6.72e-11 -8.37 -4.12)
(-3.89e-11 -8.35 -3.82)
(-2.85e-12 -8.33 -3.53)
(-9.06e-12 -8.31 -3.22)
(5.68e-11 -8.3 -2.88)
(-4.15e-11 -8.3 -2.51)
(1.25e-11 -8.3 -2.13)
(4.68e-12 -8.3 -1.73)
(1.06e-11 -8.26 -1.32)
(-6.29e-11 -8.2 -0.893)
(-6.15e-12 -8.12 -0.475)
(-3.49e-11 -8.01 -0.0745)
(-5.97e-13 -7.92 0.334)
(8.72e-12 -7.83 0.76)
(2.7e-11 -7.74 1.21)
(3.78e-11 -7.64 1.67)
(-1.43e-11 -7.56 2.11)
(5.63e-12 -7.48 2.54)
(-6.15e-13 -7.39 2.94)
(2.81e-13 -7.33 3.34)
(3.14e-13 -7.29 3.77)
(-4.19e-13 -7.25 4.21)
(-1.97e-13 -7.23 4.65)
(-1.9e-13 -7.21 5.09)
(2.97e-13 -7.19 5.54)
(-1.35e-12 -7.16 5.98)
(-2.73e-11 -7.13 6.42)
(-3.21e-11 -7.08 6.86)
(9.05e-12 -7.03 7.32)
(-2.42e-11 -6.98 7.8)
(8.17e-12 -6.89 8.28)
(-1.05e-11 -6.75 8.79)
(2.53e-11 -6.61 9.25)
(-1.53e-11 -6.57 9.61)
(4.86e-12 -6.57 9.92)
(1.59e-12 -6.56 10.2)
(4.18e-12 -6.54 10.6)
(9.92e-12 -6.52 10.9)
(4.36e-12 -6.52 11.2)
(-1.58e-11 -6.52 11.5)
(3.03e-12 -6.49 11.8)
(-2.33e-12 -6.43 12.2)
(1.06e-11 -6.34 12.6)
(-3.64e-12 -6.23 12.9)
(4.18e-13 -6.09 13.2)
(-3.21e-12 -5.94 13.6)
(1.71e-11 -5.79 13.9)
(-2.37e-11 -5.61 14.3)
(-3.74e-12 -5.42 14.6)
(4.75e-11 -5.23 14.9)
(-5.24e-12 -5.04 15.2)
(-2.72e-11 -4.81 15.4)
(1.61e-11 -4.6 15.7)
(1.57e-11 -4.37 16)
(9.24e-12 -4.16 16.3)
(-8.42e-12 -3.93 16.5)
(8.68e-12 -3.74 16.8)
(-2.72e-11 -3.55 17)
(-1.35e-11 -3.35 17.2)
(6.33e-12 -3.15 17.4)
(-1.35e-11 -2.95 17.6)
(1.01e-11 -2.72 17.8)
(5.77e-12 -2.46 18.1)
(-9.63e-12 -2.18 18.3)
(9.51e-13 -1.85 18.5)
(-1.34e-12 -1.53 18.7)
(7.88e-12 -1.17 18.9)
(-1.54e-11 -0.829 19.1)
(-1.01e-11 -0.456 19.2)
(-2.95e-12 -0.111 19.3)
(1.24e-11 0.203 19.4)
(-1.17e-11 0.487 19.5)
(-5.88e-12 0.795 19.6)
(-5.42e-12 1.11 19.7)
(1.39e-11 1.46 19.8)
(1.68e-11 1.83 19.8)
(1.14e-11 2.2 19.9)
(7.53e-12 2.58 19.9)
(1.92e-12 2.99 19.9)
(-3.01e-12 3.42 19.8)
(-4.84e-12 3.85 19.8)
(-1.54e-12 4.3 19.7)
(1.72e-11 4.72 19.7)
(1.54e-11 5.15 19.6)
(-1.89e-11 5.56 19.5)
(2.1e-11 6.03 19.4)
(-9.07e-12 6.48 19.3)
(5.92e-12 6.92 19.2)
(6.19e-12 7.3 19)
(2.48e-12 7.69 18.9)
(1.99e-11 8 18.8)
(2.21e-11 8.28 18.7)
(-1.35e-11 8.57 18.6)
(5.38e-11 8.92 18.4)
(-3.17e-11 9.32 18.3)
(2.68e-12 9.79 18)
(2.21e-11 10.3 17.8)
(-1.75e-11 10.8 17.5)
(-2.3e-11 11.2 17.2)
(6.3e-11 11.7 16.9)
(-5.07e-11 12.1 16.7)
(3.17e-11 12.5 16.4)
(5.03e-11 12.9 16.1)
(9.89e-11 13.3 15.7)
(-3e-11 13.7 15.5)
(5.55e-11 14.1 15)
(-3.98e-11 14.5 14.8)
(-5.31e-12 14.9 14.2)
(-7.87e-12 15.4 13.9)
(-3.98e-12 15.5 13.3)
(6.42e-12 5.5 -13.8)
(8.83e-12 5.38 -13.9)
(1.12e-11 4.92 -13.9)
(-3.52e-11 4.5 -14.1)
(1.09e-10 4.1 -14.1)
(1.32e-10 3.74 -14.3)
(5.19e-11 3.38 -14.3)
(8.96e-11 3.01 -14.3)
(1.24e-10 2.68 -14.4)
(-7.43e-11 2.37 -14.4)
(-3.63e-11 2.06 -14.5)
(-4.37e-11 1.69 -14.5)
(-1.12e-11 1.3 -14.6)
(1.7e-11 0.896 -14.7)
(-4.16e-11 0.522 -14.7)
(4.19e-11 0.157 -14.7)
(2.35e-12 -0.192 -14.7)
(1.04e-11 -0.535 -14.8)
(6.95e-12 -0.866 -14.8)
(-1.79e-11 -1.23 -14.8)
(1.25e-11 -1.6 -14.7)
(-1.28e-11 -1.96 -14.7)
(-2.75e-12 -2.29 -14.6)
(4.22e-11 -2.59 -14.6)
(9.16e-11 -2.88 -14.5)
(-4.73e-12 -3.18 -14.4)
(-9.06e-12 -3.47 -14.3)
(-5.86e-12 -3.74 -14.2)
(-6e-12 -3.98 -14.1)
(-1.16e-12 -4.21 -14)
(-4.86e-11 -4.46 -13.9)
(2.52e-11 -4.69 -13.8)
(3.1e-11 -4.91 -13.6)
(3.86e-11 -5.12 -13.5)
(2.56e-11 -5.35 -13.4)
(-3.79e-11 -5.55 -13.2)
(5.42e-11 -5.75 -13)
(1.6e-11 -5.95 -12.8)
(-2.81e-11 -6.16 -12.7)
(3.49e-11 -6.37 -12.5)
(7.46e-12 -6.6 -12.3)
(-2.03e-12 -6.83 -12.1)
(-7.49e-12 -7.06 -11.8)
(-7.72e-12 -7.27 -11.5)
(2.18e-11 -7.48 -11.2)
(-7.97e-11 -7.66 -10.9)
(-8.24e-11 -7.83 -10.6)
(-4.14e-11 -7.97 -10.3)
(1.26e-11 -8.11 -9.97)
(1.78e-11 -8.25 -9.67)
(-5.19e-11 -8.4 -9.37)
(-7.41e-11 -8.55 -9.07)
(6.91e-12 -8.71 -8.77)
(-1.91e-11 -8.86 -8.47)
(1.94e-11 -8.99 -8.16)
(4.01e-11 -9.1 -7.84)
(-6.4e-11 -9.18 -7.51)
(4.34e-11 -9.23 -7.16)
(-5.43e-12 -9.27 -6.82)
(-8.63e-12 -9.3 -6.44)
(-2.2e-12 -9.32 -6.08)
(-1.32e-11 -9.32 -5.72)
(-2.22e-11 -9.35 -5.4)
(-1.42e-11 -9.35 -5.09)
(-2.12e-11 -9.38 -4.78)
(-1.29e-11 -9.39 -4.48)
(6.38e-11 -9.39 -4.17)
(-3.16e-11 -9.39 -3.88)
(-1.17e-11 -9.37 -3.57)
(-1.41e-11 -9.35 -3.27)
(5.12e-11 -9.34 -2.93)
(-3.69e-11 -9.34 -2.58)
(-6.34e-12 -9.35 -2.19)
(7.84e-12 -9.36 -1.78)
(2.74e-11 -9.34 -1.36)
(-7.45e-11 -9.3 -0.926)
(-2.33e-12 -9.24 -0.498)
(-1.68e-11 -9.15 -0.0867)
(1.96e-11 -9.07 0.325)
(-1.14e-11 -8.99 0.751)
(-2.22e-11 -8.89 1.19)
(-7.93e-12 -8.81 1.65)
(-5.71e-12 -8.75 2.09)
(1.67e-12 -8.67 2.54)
(1.39e-13 -8.58 2.95)
(3.81e-13 -8.5 3.35)
(2.47e-13 -8.47 3.79)
(-1.82e-13 -8.43 4.25)
(-2.49e-13 -8.4 4.7)
(3.11e-13 -8.37 5.15)
(-4.67e-13 -8.35 5.62)
(-1.44e-12 -8.31 6.08)
(-2.78e-11 -8.27 6.54)
(-3.25e-11 -8.21 6.99)
(8.73e-12 -8.15 7.46)
(-4.08e-11 -8.07 7.96)
(1e-11 -7.92 8.5)
(-1.23e-11 -7.76 9.01)
(3.36e-11 -7.71 9.39)
(-3.22e-11 -7.71 9.71)
(5.61e-12 -7.68 10)
(6.46e-13 -7.64 10.4)
(8.91e-12 -7.6 10.7)
(6.77e-12 -7.56 11)
(1.27e-11 -7.52 11.3)
(3.87e-11 -7.47 11.6)
(2.17e-11 -7.41 12)
(2.33e-13 -7.33 12.3)
(-8.7e-12 -7.22 12.7)
(7.99e-12 -7.09 13.1)
(-7.22e-12 -6.94 13.4)
(4.18e-12 -6.79 13.8)
(1.68e-11 -6.63 14.2)
(-4.02e-11 -6.46 14.5)
(2.62e-11 -6.27 14.8)
(3.68e-11 -6.06 15.1)
(-1.15e-11 -5.88 15.4)
(2.01e-11 -5.63 15.7)
(1.75e-11 -5.42 16)
(1.12e-11 -5.19 16.3)
(1.27e-11 -4.95 16.6)
(-1.07e-11 -4.7 16.9)
(-3.17e-11 -4.48 17.1)
(-1.83e-11 -4.27 17.3)
(-1.51e-11 -4.06 17.5)
(-1.4e-12 -3.85 17.8)
(-1.91e-11 -3.63 18)
(2.87e-11 -3.37 18.2)
(-1.83e-11 -3.08 18.5)
(-4.94e-12 -2.78 18.8)
(1e-11 -2.43 19)
(-4.71e-12 -2.08 19.2)
(3.12e-12 -1.69 19.4)
(-2.09e-11 -1.32 19.5)
(-8.36e-12 -0.928 19.7)
(1.14e-12 -0.552 19.8)
(5.58e-12 -0.171 19.9)
(-2.27e-11 0.18 20)
(-5.44e-12 0.541 20.1)
(-1.34e-11 0.901 20.2)
(9.09e-12 1.28 20.2)
(1.23e-11 1.67 20.3)
(1.43e-11 2.07 20.4)
(1.51e-11 2.49 20.4)
(8.01e-12 2.94 20.4)
(-4.14e-13 3.39 20.4)
(-5.44e-12 3.84 20.3)
(-1.22e-12 4.32 20.3)
(1.06e-11 4.76 20.2)
(-1.25e-12 5.2 20.1)
(1.02e-11 5.63 20.1)
(-8.12e-12 6.11 20)
(-2.4e-12 6.58 19.8)
(6.49e-12 7.04 19.7)
(-5.17e-12 7.45 19.6)
(-1.42e-11 7.83 19.5)
(-4.05e-11 8.17 19.4)
(-8.31e-11 8.5 19.3)
(-4.71e-11 8.81 19.1)
(1.92e-11 9.17 19)
(8.25e-12 9.6 18.8)
(3e-11 10.1 18.6)
(1.41e-11 10.6 18.3)
(-2.08e-12 11 18.1)
(-1.88e-11 11.5 17.8)
(5.59e-11 12 17.5)
(-1.07e-10 12.4 17.2)
(3.62e-11 12.8 16.9)
(-1.15e-10 13.2 16.7)
(-5.47e-11 13.6 16.3)
(-3.13e-11 14.1 16)
(7.13e-11 14.5 15.6)
(-5.43e-11 14.9 15.3)
(-5.99e-12 15.4 14.7)
(4.97e-12 15.9 14.5)
(4.99e-12 16 13.8)
(-1.05e-12 5.14 -14.2)
(3.83e-13 5.04 -14.2)
(1.14e-12 4.58 -14.2)
(-1.46e-12 4.15 -14.5)
(-1.46e-10 3.76 -14.5)
(-1.19e-10 3.38 -14.6)
(-3.26e-12 2.98 -14.6)
(-6.71e-11 2.62 -14.6)
(-6.52e-11 2.28 -14.7)
(8.46e-11 1.99 -14.7)
(8.91e-11 1.67 -14.8)
(3.21e-11 1.32 -14.8)
(-1.81e-11 0.935 -14.9)
(1.6e-11 0.537 -15)
(-1.87e-11 0.149 -15)
(1.47e-11 -0.197 -15)
(1.47e-11 -0.51 -15)
(7.16e-12 -0.831 -15.1)
(1.53e-11 -1.17 -15.1)
(-3.8e-11 -1.52 -15.1)
(1.68e-11 -1.88 -15.1)
(-1.99e-11 -2.22 -15)
(-2.09e-11 -2.56 -15)
(-6.98e-11 -2.87 -14.9)
(-9.08e-11 -3.18 -14.8)
(-2.43e-12 -3.5 -14.7)
(-1.67e-11 -3.82 -14.6)
(-8.07e-12 -4.1 -14.4)
(-1.14e-12 -4.36 -14.3)
(-2.63e-12 -4.61 -14.2)
(8.92e-12 -4.84 -14.1)
(-7.21e-11 -5.07 -14)
(-8.73e-11 -5.3 -13.8)
(-5.59e-11 -5.53 -13.7)
(1.76e-11 -5.77 -13.5)
(-2.39e-11 -6 -13.4)
(2.14e-11 -6.23 -13.2)
(2.17e-11 -6.44 -13)
(9.81e-12 -6.67 -12.8)
(1.07e-11 -6.89 -12.7)
(1.66e-11 -7.11 -12.5)
(2.22e-12 -7.34 -12.2)
(-3.26e-12 -7.57 -12)
(-7.01e-12 -7.79 -11.7)
(1.98e-11 -8 -11.4)
(9.5e-11 -8.19 -11)
(9.25e-11 -8.37 -10.7)
(-1.13e-11 -8.54 -10.4)
(9.07e-13 -8.71 -10.1)
(2.45e-11 -8.88 -9.77)
(1.09e-10 -9.03 -9.48)
(4.07e-11 -9.21 -9.18)
(3.81e-11 -9.36 -8.88)
(3.82e-12 -9.51 -8.56)
(-1.8e-11 -9.64 -8.24)
(7.65e-11 -9.75 -7.89)
(-4.98e-11 -9.84 -7.53)
(2.24e-11 -9.89 -7.16)
(3.46e-12 -9.94 -6.8)
(-1.29e-11 -9.99 -6.41)
(2.45e-12 -10 -6.05)
(2.3e-12 -10 -5.7)
(-2.46e-11 -10.1 -5.38)
(3.86e-12 -10.1 -5.08)
(-8.47e-12 -10.1 -4.76)
(-8.32e-12 -10.2 -4.45)
(4.36e-11 -10.2 -4.13)
(-1.36e-11 -10.2 -3.82)
(-6.68e-12 -10.1 -3.52)
(-5.1e-12 -10.1 -3.2)
(4.24e-11 -10.1 -2.88)
(-1.04e-11 -10.1 -2.53)
(-7e-12 -10.1 -2.14)
(2.32e-12 -10.1 -1.73)
(3.96e-11 -10 -1.29)
(-7.29e-11 -10 -0.829)
(1.31e-11 -9.96 -0.392)
(-7.29e-11 -9.89 0.0321)
(-4.11e-11 -9.8 0.439)
(1.56e-11 -9.71 0.864)
(7.17e-11 -9.61 1.29)
(2.35e-11 -9.54 1.73)
(-8.76e-12 -9.49 2.16)
(1.28e-12 -9.41 2.62)
(6.3e-13 -9.32 3.04)
(-3.41e-13 -9.24 3.41)
(8.65e-13 -9.19 3.83)
(-1.84e-13 -9.14 4.29)
(3.36e-13 -9.12 4.75)
(1.08e-15 -9.08 5.2)
(-3.96e-13 -9.06 5.67)
(-1.94e-12 -9 6.13)
(-1.78e-11 -8.95 6.59)
(-2.3e-11 -8.89 7.05)
(2.47e-11 -8.82 7.53)
(-3.41e-11 -8.68 8.08)
(1.85e-11 -8.5 8.6)
(-1.3e-11 -8.44 9)
(4.32e-11 -8.43 9.34)
(-4.62e-11 -8.41 9.68)
(1.14e-11 -8.38 10)
(-8.14e-13 -8.32 10.3)
(1.26e-12 -8.26 10.6)
(-6.87e-12 -8.22 11)
(-1.54e-11 -8.16 11.3)
(-1.92e-11 -8.08 11.6)
(-4.92e-11 -8 12)
(3.89e-12 -7.89 12.4)
(7.77e-12 -7.77 12.8)
(5.35e-12 -7.63 13.2)
(-1.15e-11 -7.48 13.5)
(1.65e-11 -7.31 13.9)
(2.71e-12 -7.15 14.3)
(-3.52e-11 -6.97 14.6)
(4.73e-11 -6.78 14.9)
(2.05e-11 -6.57 15.2)
(2.94e-12 -6.37 15.5)
(4.27e-11 -6.12 15.9)
(-2.64e-11 -5.89 16.2)
(2.75e-11 -5.64 16.5)
(9.16e-12 -5.38 16.7)
(-8.8e-12 -5.11 17)
(-2.87e-11 -4.87 17.2)
(6.79e-12 -4.64 17.5)
(-1.77e-11 -4.4 17.7)
(-1e-11 -4.16 17.9)
(-2.41e-11 -3.9 18.2)
(3.61e-11 -3.62 18.4)
(-4.84e-11 -3.32 18.7)
(1.18e-11 -2.98 19)
(8.55e-12 -2.61 19.2)
(-1.21e-11 -2.25 19.5)
(6.96e-12 -1.87 19.7)
(-9.31e-12 -1.51 19.8)
(7.02e-12 -1.15 19.9)
(2.6e-12 -0.794 20)
(-3.24e-12 -0.419 20.1)
(-2.09e-11 -0.0697 20.2)
(5.9e-12 0.279 20.3)
(-2.03e-11 0.625 20.4)
(8.21e-12 1 20.5)
(7.99e-12 1.39 20.6)
(1.92e-11 1.8 20.6)
(1.87e-11 2.22 20.7)
(1.39e-11 2.66 20.7)
(4.32e-12 3.12 20.7)
(-4.72e-12 3.58 20.6)
(6.19e-13 4.04 20.6)
(8.07e-12 4.49 20.5)
(4.13e-13 4.93 20.5)
(1.65e-11 5.38 20.4)
(-3.87e-11 5.86 20.3)
(2.52e-11 6.34 20.2)
(4.11e-12 6.79 20.1)
(-3.91e-12 7.23 20)
(-3.56e-12 7.63 19.9)
(2.07e-11 7.99 19.8)
(6.86e-11 8.3 19.7)
(7.82e-11 8.62 19.5)
(1.67e-12 8.99 19.4)
(-8.48e-11 9.4 19.2)
(-4.11e-11 9.89 18.9)
(-1.83e-11 10.4 18.7)
(2.25e-11 10.9 18.4)
(-3.05e-11 11.4 18.1)
(2.51e-11 11.9 17.8)
(-6.86e-11 12.4 17.6)
(1.44e-10 12.8 17.2)
(5.87e-11 13.2 17)
(1.27e-10 13.7 16.6)
(6.53e-14 14.1 16.3)
(1.28e-11 14.5 15.9)
(-2.77e-11 15 15.6)
(1.17e-11 15.5 15.1)
(1.79e-11 16 14.8)
(1.08e-11 16.1 14.1)
(-5.09e-12 5.03 -14.6)
(-7.8e-12 4.97 -14.7)
(-6.71e-12 4.6 -14.6)
(1.9e-11 4.13 -14.8)
(8.81e-11 3.69 -14.8)
(1.17e-10 3.28 -14.9)
(6.66e-11 2.9 -15)
(1.01e-10 2.53 -15)
(6.93e-12 2.19 -15)
(-9.37e-11 1.87 -15.1)
(-8.69e-11 1.53 -15.1)
(3.09e-11 1.18 -15.2)
(2.44e-12 0.785 -15.2)
(-6.33e-12 0.36 -15.3)
(1.74e-11 -0.0428 -15.3)
(-9.1e-13 -0.404 -15.4)
(1.35e-11 -0.732 -15.4)
(6.03e-12 -1.06 -15.4)
(3.74e-11 -1.42 -15.4)
(-5.02e-11 -1.8 -15.4)
(1.39e-11 -2.17 -15.4)
(-1.27e-11 -2.52 -15.4)
(1.65e-11 -2.85 -15.3)
(2.1e-11 -3.18 -15.2)
(3.21e-11 -3.52 -15.1)
(-3.17e-11 -3.87 -15)
(-6.44e-12 -4.21 -14.9)
(-8.95e-12 -4.52 -14.7)
(-7.1e-12 -4.8 -14.6)
(-3.18e-12 -5.06 -14.5)
(-3.53e-12 -5.33 -14.3)
(4.74e-11 -5.59 -14.2)
(5.87e-11 -5.83 -14.1)
(-4.93e-12 -6.07 -14)
(-7.36e-12 -6.32 -13.8)
(2.35e-11 -6.56 -13.6)
(3.03e-12 -6.79 -13.4)
(-9.66e-12 -7.02 -13.3)
(1.2e-11 -7.25 -13.1)
(3.79e-11 -7.5 -12.9)
(2.73e-11 -7.76 -12.7)
(8.43e-12 -7.99 -12.4)
(1.5e-11 -8.22 -12.2)
(-5.98e-12 -8.44 -11.9)
(-1.64e-11 -8.66 -11.5)
(-8e-11 -8.87 -11.2)
(-7.41e-11 -9.08 -10.9)
(5.32e-12 -9.26 -10.5)
(-2.78e-11 -9.44 -10.2)
(-3.83e-11 -9.6 -9.96)
(-1.6e-11 -9.77 -9.66)
(-1.29e-10 -9.96 -9.35)
(3.9e-11 -10.1 -9.04)
(8.8e-11 -10.3 -8.71)
(2.39e-11 -10.4 -8.37)
(9.67e-11 -10.5 -8)
(-2.6e-12 -10.6 -7.62)
(3.88e-12 -10.7 -7.24)
(-1.8e-12 -10.7 -6.87)
(-1.43e-11 -10.8 -6.47)
(1.01e-11 -10.8 -6.11)
(2.49e-11 -10.9 -5.74)
(-2.17e-11 -10.9 -5.42)
(3.36e-11 -11 -5.12)
(7.85e-12 -11 -4.8)
(2.3e-11 -11 -4.48)
(2.02e-11 -11.1 -4.15)
(1.91e-11 -11.1 -3.82)
(1.07e-11 -11.1 -3.5)
(1.76e-11 -11 -3.19)
(2.5e-11 -11 -2.88)
(1.96e-11 -11 -2.52)
(7.51e-12 -11 -2.13)
(-9.41e-12 -11 -1.71)
(5.24e-11 -11 -1.24)
(-5.95e-11 -10.9 -0.776)
(2.13e-11 -10.9 -0.316)
(1.15e-11 -10.8 0.131)
(-7.32e-12 -10.8 0.546)
(-6.44e-11 -10.7 0.977)
(-6.49e-11 -10.6 1.4)
(-4.56e-12 -10.5 1.82)
(-2.51e-12 -10.5 2.26)
(3.5e-12 -10.4 2.72)
(-1.24e-12 -10.3 3.14)
(-4.54e-13 -10.2 3.49)
(4.33e-14 -10.2 3.89)
(8.07e-15 -10.1 4.33)
(1.09e-13 -10.1 4.76)
(-4.79e-13 -10 5.21)
(-1.02e-13 -10 5.68)
(8.93e-14 -9.95 6.15)
(-2.64e-12 -9.89 6.62)
(-6.65e-12 -9.8 7.1)
(3.88e-11 -9.68 7.63)
(-1.85e-11 -9.49 8.21)
(2.28e-11 -9.4 8.68)
(-1.15e-11 -9.38 9.02)
(5.51e-11 -9.35 9.35)
(-5.17e-11 -9.3 9.7)
(2.19e-11 -9.25 10)
(-7.17e-13 -9.19 10.4)
(1.28e-12 -9.12 10.7)
(1.55e-11 -9.04 11)
(1.75e-11 -8.95 11.4)
(4.87e-12 -8.85 11.7)
(3.19e-11 -8.73 12.1)
(1.98e-11 -8.59 12.5)
(-9.04e-12 -8.45 12.9)
(1.1e-11 -8.3 13.3)
(-1.74e-11 -8.13 13.7)
(3.27e-11 -7.96 14.1)
(-2.43e-11 -7.78 14.5)
(-1.3e-11 -7.59 14.8)
(6.46e-11 -7.4 15.2)
(-6.81e-12 -7.19 15.5)
(2.23e-11 -6.98 15.8)
(4.6e-11 -6.71 16.1)
(-6.24e-11 -6.46 16.4)
(7.87e-11 -6.19 16.7)
(3.36e-12 -5.91 17)
(-1.25e-12 -5.63 17.3)
(-1.26e-11 -5.35 17.5)
(-2.38e-12 -5.1 17.8)
(-2.68e-11 -4.84 18)
(-2.74e-11 -4.57 18.2)
(-1.69e-11 -4.28 18.5)
(3.69e-11 -3.98 18.8)
(-7.91e-11 -3.65 19)
(4.17e-11 -3.3 19.3)
(-6.11e-15 -2.93 19.6)
(-2.1e-11 -2.58 19.8)
(1.21e-11 -2.21 20)
(-7.22e-13 -1.85 20.2)
(1.8e-11 -1.48 20.2)
(-2.3e-12 -1.09 20.3)
(-8.64e-12 -0.671 20.4)
(-4.58e-12 -0.268 20.5)
(2.8e-11 0.126 20.6)
(-2.5e-11 0.508 20.7)
(1.86e-11 0.911 20.8)
(5.11e-12 1.32 20.9)
(1.74e-11 1.75 21)
(7.9e-12 2.18 21)
(9.59e-12 2.65 21)
(2.59e-12 3.11 21)
(1.25e-12 3.6 21)
(4.04e-12 4.09 21)
(1.49e-12 4.56 20.9)
(2.64e-12 5.02 20.9)
(1.05e-11 5.49 20.8)
(-4.6e-11 5.98 20.8)
(5.05e-11 6.47 20.7)
(-1.07e-11 6.93 20.5)
(-1.1e-11 7.36 20.4)
(-3.1e-11 7.79 20.3)
(-6.1e-11 8.14 20.2)
(-1.09e-10 8.49 20.1)
(-1.23e-10 8.84 20)
(1.34e-11 9.24 19.8)
(1.09e-10 9.69 19.7)
(5.08e-11 10.2 19.4)
(1.95e-11 10.7 19.2)
(-3.6e-11 11.2 18.9)
(5.66e-12 11.7 18.6)
(7.46e-13 12.2 18.3)
(-4.91e-11 12.7 18)
(3.8e-11 13.1 17.7)
(-2.12e-10 13.6 17.4)
(-1.11e-10 14 17.1)
(-1.63e-12 14.5 16.8)
(3.87e-11 14.9 16.3)
(-2.43e-11 15.4 16.1)
(2.25e-11 15.9 15.6)
(3.21e-12 16.5 15.3)
(-4.12e-13 16.5 14.7)
(-1.41e-12 4.75 -15.1)
(1.28e-12 4.72 -15.1)
(-2.88e-12 4.33 -15)
(-3.55e-11 3.86 -15.2)
(-1.08e-10 3.42 -15.2)
(-1.57e-10 3.01 -15.3)
(-1.04e-10 2.59 -15.4)
(-9.32e-12 2.21 -15.4)
(-3.6e-11 1.86 -15.4)
(1.59e-10 1.55 -15.4)
(1.69e-11 1.22 -15.5)
(-8.42e-12 0.863 -15.5)
(2.32e-11 0.467 -15.6)
(-1.69e-11 0.048 -15.6)
(2.41e-11 -0.367 -15.7)
(3.03e-11 -0.727 -15.7)
(1.13e-11 -1.06 -15.7)
(-2.74e-12 -1.39 -15.7)
(5.68e-11 -1.74 -15.7)
(-2.92e-11 -2.12 -15.7)
(2.09e-11 -2.51 -15.7)
(-2.46e-11 -2.85 -15.7)
(-7.06e-12 -3.18 -15.7)
(-3.5e-11 -3.51 -15.6)
(-2.05e-11 -3.84 -15.5)
(5.88e-12 -4.2 -15.3)
(-1.13e-11 -4.57 -15.2)
(-5.24e-12 -4.9 -15)
(-6.88e-13 -5.2 -14.9)
(-5.76e-12 -5.48 -14.7)
(-1.93e-11 -5.75 -14.6)
(-5.88e-11 -6.01 -14.5)
(-8.36e-11 -6.26 -14.3)
(-9.02e-12 -6.51 -14.2)
(-5.57e-11 -6.78 -14)
(3.61e-11 -7.04 -13.9)
(2e-11 -7.29 -13.7)
(7.5e-11 -7.53 -13.5)
(-3.44e-11 -7.79 -13.3)
(-6.99e-11 -8.05 -13.1)
(-4.92e-11 -8.29 -12.9)
(-1.58e-11 -8.53 -12.6)
(6.6e-12 -8.75 -12.4)
(4.14e-12 -8.97 -12.1)
(1.51e-11 -9.19 -11.7)
(4.9e-11 -9.41 -11.4)
(3.13e-11 -9.62 -11)
(-1.28e-11 -9.83 -10.7)
(1.21e-12 -10 -10.4)
(-2.71e-11 -10.2 -10.1)
(1.04e-10 -10.4 -9.8)
(2.85e-11 -10.6 -9.49)
(-2.38e-11 -10.8 -9.16)
(-8.88e-11 -10.9 -8.82)
(-1.17e-10 -11.1 -8.47)
(3.29e-12 -11.2 -8.08)
(1.89e-11 -11.3 -7.69)
(-1.09e-12 -11.3 -7.29)
(-1.01e-11 -11.4 -6.91)
(-1.31e-11 -11.5 -6.51)
(7.99e-12 -11.6 -6.14)
(3.06e-11 -11.6 -5.78)
(-3.03e-11 -11.7 -5.46)
(3.23e-11 -11.7 -5.15)
(-8.7e-12 -11.8 -4.83)
(2.99e-11 -11.8 -4.49)
(-7.02e-12 -11.8 -4.16)
(2.45e-11 -11.9 -3.82)
(1.57e-11 -11.9 -3.5)
(1.73e-11 -11.8 -3.18)
(-8.56e-12 -11.8 -2.87)
(2.07e-11 -11.8 -2.52)
(1.22e-11 -11.8 -2.14)
(-1.99e-11 -11.7 -1.71)
(5.55e-11 -11.7 -1.25)
(-3.42e-11 -11.7 -0.779)
(-1.28e-13 -11.7 -0.305)
(-5.54e-11 -11.6 0.155)
(-3.75e-11 -11.5 0.593)
(5.37e-11 -11.4 1.02)
(6.62e-11 -11.4 1.43)
(1.66e-11 -11.3 1.84)
(-1.66e-11 -11.2 2.28)
(4.54e-12 -11.2 2.75)
(-2.3e-13 -11.1 3.17)
(-7.93e-13 -11 3.53)
(4.06e-13 -10.9 3.93)
(3.37e-15 -10.9 4.37)
(6.12e-13 -10.8 4.81)
(-1.75e-12 -10.8 5.27)
(-7.47e-13 -10.8 5.75)
(1.05e-12 -10.7 6.24)
(1.24e-11 -10.6 6.73)
(7.84e-12 -10.5 7.24)
(2.69e-11 -10.4 7.83)
(-1.75e-11 -10.2 8.35)
(1.85e-11 -10.2 8.74)
(-5.52e-12 -10.2 9.09)
(5.26e-11 -10.1 9.44)
(-4.83e-11 -10.1 9.78)
(2.8e-11 -9.99 10.1)
(-9.96e-12 -9.93 10.5)
(-1.24e-11 -9.86 10.8)
(-2.17e-11 -9.77 11.1)
(-2.57e-11 -9.66 11.5)
(-9.48e-12 -9.52 11.8)
(-2.39e-11 -9.38 12.2)
(-2.47e-11 -9.23 12.6)
(3.55e-12 -9.08 13)
(8.12e-12 -8.92 13.4)
(-1.38e-11 -8.75 13.8)
(3.67e-11 -8.56 14.2)
(-4.52e-11 -8.4 14.6)
(1.73e-11 -8.2 14.9)
(5.63e-11 -7.99 15.3)
(-2.99e-11 -7.76 15.7)
(3.46e-11 -7.53 16)
(8.38e-12 -7.26 16.3)
(-9.76e-11 -6.99 16.6)
(1.49e-11 -6.7 16.9)
(-6.84e-11 -6.39 17.2)
(1.25e-11 -6.07 17.5)
(-3.63e-11 -5.77 17.8)
(-5.96e-11 -5.48 18)
(-1.67e-11 -5.19 18.3)
(-3.14e-11 -4.9 18.6)
(6.93e-12 -4.6 18.8)
(2.31e-11 -4.27 19.1)
(-8.21e-11 -3.94 19.4)
(6.52e-11 -3.58 19.7)
(-1.05e-11 -3.22 19.9)
(-2.91e-11 -2.87 20.2)
(1.6e-11 -2.53 20.3)
(-2.85e-12 -2.18 20.5)
(1.82e-11 -1.78 20.6)
(-1.33e-11 -1.37 20.7)
(-6.12e-12 -0.952 20.8)
(1.36e-11 -0.551 20.9)
(3.88e-11 -0.164 21)
(-3.35e-11 0.213 21.1)
(3.7e-11 0.614 21.2)
(3.24e-13 1.03 21.3)
(1.05e-11 1.47 21.4)
(-8.3e-12 1.93 21.4)
(-4.94e-13 2.4 21.4)
(-2.54e-12 2.88 21.5)
(4.2e-12 3.35 21.4)
(2.26e-13 3.84 21.4)
(2.8e-12 4.32 21.4)
(2.97e-11 4.76 21.3)
(-7.85e-12 5.23 21.3)
(-1.74e-11 5.73 21.2)
(4.8e-11 6.25 21.1)
(-2.28e-11 6.73 21.1)
(1.27e-12 7.18 21)
(1.87e-11 7.59 20.8)
(6.23e-11 8 20.7)
(1.43e-10 8.34 20.6)
(1.7e-10 8.69 20.5)
(1.58e-11 9.07 20.3)
(-1.08e-10 9.51 20.1)
(-6.81e-11 10 19.9)
(-2.78e-11 10.6 19.7)
(4.67e-11 11.1 19.4)
(1.1e-12 11.7 19.1)
(1.16e-11 12.2 18.8)
(-1.91e-11 12.7 18.5)
(1.16e-10 13.1 18.2)
(5.75e-11 13.6 17.9)
(2.87e-10 14.1 17.5)
(7.7e-11 14.6 17.3)
(1.79e-11 15 16.8)
(-2.12e-11 15.5 16.6)
(4.52e-11 16.1 16)
(-2.01e-11 16.6 15.8)
(-7.33e-12 16.6 15.2)
(-6.74e-12 4.61 -15.4)
(-3.56e-12 4.59 -15.4)
(1.43e-11 4.27 -15.4)
(6.39e-11 3.79 -15.6)
(1.18e-10 3.33 -15.6)
(1.01e-10 2.91 -15.7)
(1.15e-11 2.48 -15.7)
(8.55e-11 2.07 -15.7)
(-1.04e-10 1.71 -15.7)
(-4.44e-11 1.39 -15.7)
(2.7e-11 1.05 -15.8)
(3.84e-11 0.691 -15.8)
(-1.08e-11 0.293 -15.9)
(3.47e-11 -0.138 -15.9)
(-1.37e-11 -0.553 -16)
(-6.19e-11 -0.93 -16)
(-3.94e-11 -1.27 -16)
(-5.68e-11 -1.61 -16)
(4.42e-11 -1.96 -16)
(-1.41e-11 -2.34 -16)
(3.01e-11 -2.73 -16)
(6.07e-13 -3.1 -16)
(4.46e-11 -3.43 -16)
(1.92e-11 -3.76 -15.9)
(1.69e-11 -4.11 -15.8)
(-4.44e-12 -4.48 -15.6)
(2.31e-12 -4.85 -15.5)
(-7.76e-12 -5.2 -15.3)
(-3.9e-12 -5.52 -15.1)
(7.01e-12 -5.83 -15)
(2.04e-11 -6.13 -14.8)
(3.51e-11 -6.42 -14.7)
(3.48e-11 -6.69 -14.6)
(-2.46e-11 -6.95 -14.4)
(7.28e-12 -7.22 -14.3)
(3.33e-12 -7.49 -14.1)
(-9.56e-11 -7.75 -13.9)
(-5.38e-11 -8 -13.7)
(5.98e-11 -8.26 -13.6)
(9.79e-11 -8.54 -13.3)
(2.62e-11 -8.82 -13.1)
(-8.82e-12 -9.06 -12.8)
(8.34e-12 -9.28 -12.6)
(-1.53e-11 -9.51 -12.3)
(-2.35e-11 -9.74 -11.9)
(-2.3e-11 -9.97 -11.6)
(-1.57e-11 -10.2 -11.2)
(1.93e-11 -10.4 -10.9)
(1.31e-13 -10.6 -10.6)
(-6.96e-11 -10.8 -10.3)
(2.31e-11 -11 -9.96)
(-4.69e-11 -11.2 -9.64)
(1.07e-10 -11.4 -9.3)
(1.95e-10 -11.6 -8.94)
(1.37e-10 -11.7 -8.57)
(4.52e-11 -11.8 -8.17)
(1.89e-11 -11.9 -7.76)
(4.41e-12 -12 -7.36)
(1.62e-12 -12.1 -6.97)
(-2.35e-11 -12.2 -6.57)
(-2.78e-13 -12.3 -6.2)
(3.53e-11 -12.4 -5.85)
(-4.86e-11 -12.4 -5.52)
(2.39e-11 -12.5 -5.2)
(-4.59e-11 -12.5 -4.87)
(2.87e-11 -12.6 -4.52)
(3.23e-11 -12.6 -4.17)
(1.18e-11 -12.6 -3.82)
(-8.76e-12 -12.6 -3.49)
(3.74e-11 -12.6 -3.15)
(1.83e-11 -12.6 -2.81)
(1.54e-11 -12.6 -2.46)
(-1.85e-12 -12.5 -2.09)