/*--------------------------------*- C++ -*----------------------------------*\
| =========                 |                                                 |
| \\      /  F ield         | OpenFOAM: The Open Source CFD Toolbox           |
|  \\    /   O peration     | Version:  2212                                  |
|   \\  /    A nd           | Website:  www.openfoam.com                      |
|    \\/     M anipulation  |                                                 |
\*---------------------------------------------------------------------------*/
FoamFile
{
    version     2.0;
    format      ascii;
    arch        "LSB;label=32;scalar=64";
    class       volScalarField;
    location    "0.000396";
    object      T;
}
// * * * * * * * * * * * * * * * * * * * * * * * * * * * * * * * * * * * * * //

dimensions      [0 0 0 1 0 0 0];

internalField   nonuniform List<scalar> 
56928
(
400.045
400.046
400.046
400.047
400.047
400.047
400.047
400.047
400.047
400.047
400.047
400.048
400.048
400.048
400.048
400.048
400.048
400.048
400.048
400.048
400.048
400.049
400.049
400.049
400.049
400.049
400.049
400.049
400.049
400.05
400.05
400.05
400.05
400.05
400.05
400.05
400.051
400.051
400.051
400.051
400.051
400.051
400.052
400.052
400.052
400.052
400.052
400.134
400.124
400.124
400.124
400.124
400.124
400.124
400.124
400.125
400.125
400.125
400.126
400.126
400.126
400.126
400.127
400.127
400.127
400.127
400.127
400.128
400.128
400.128
400.128
400.129
400.129
400.129
400.129
400.13
400.13
400.13
400.13
400.131
400.131
400.132
400.132
400.133
400.133
400.133
400.134
400.134
400.134
400.135
400.135
400.135
400.135
400.135
400.209
400.195
400.193
400.193
400.193
400.194
400.194
400.194
400.194
400.194
400.195
400.195
400.195
400.196
400.196
400.196
400.196
400.196
400.196
400.197
400.197
400.197
400.197
400.197
400.197
400.198
400.198
400.198
400.199
400.199
400.199
400.199
400.2
400.2
400.2
400.201
400.202
400.202
400.203
400.203
400.204
400.204
400.204
400.204
400.204
400.204
400.204
400.28
400.265
400.261
400.261
400.261
400.261
400.261
400.261
400.261
400.261
400.262
400.262
400.262
400.262
400.262
400.262
400.263
400.263
400.263
400.263
400.263
400.263
400.263
400.263
400.263
400.264
400.264
400.264
400.264
400.264
400.265
400.265
400.265
400.265
400.266
400.266
400.267
400.267
400.268
400.268
400.268
400.269
400.269
400.269
400.269
400.269
400.268
400.344
400.327
400.323
400.323
400.323
400.323
400.323
400.323
400.323
400.324
400.324
400.324
400.324
400.324
400.324
400.324
400.324
400.324
400.324
400.324
400.324
400.324
400.324
400.324
400.324
400.324
400.324
400.325
400.325
400.325
400.325
400.325
400.325
400.325
400.326
400.326
400.326
400.327
400.327
400.328
400.328
400.328
400.328
400.328
400.328
400.328
400.328
400.407
400.382
400.376
400.375
400.375
400.375
400.375
400.375
400.375
400.375
400.376
400.376
400.376
400.376
400.376
400.376
400.376
400.376
400.376
400.376
400.376
400.377
400.377
400.377
400.377
400.377
400.377
400.377
400.378
400.378
400.378
400.378
400.378
400.378
400.378
400.379
400.379
400.379
400.38
400.38
400.381
400.381
400.381
400.381
400.381
400.381
400.38
400.473
400.441
400.429
400.428
400.427
400.428
400.428
400.428
400.428
400.428
400.428
400.428
400.428
400.428
400.428
400.428
400.428
400.428
400.428
400.429
400.429
400.429
400.429
400.429
400.43
400.43
400.43
400.43
400.43
400.43
400.43
400.43
400.43
400.43
400.43
400.431
400.431
400.431
400.431
400.431
400.432
400.432
400.432
400.432
400.432
400.432
400.432
400.534
400.503
400.49
400.488
400.487
400.487
400.487
400.487
400.487
400.487
400.487
400.487
400.487
400.487
400.487
400.487
400.487
400.487
400.487
400.487
400.487
400.487
400.487
400.487
400.487
400.487
400.487
400.487
400.487
400.487
400.487
400.487
400.487
400.487
400.487
400.487
400.487
400.487
400.487
400.487
400.487
400.487
400.486
400.486
400.486
400.486
400.486
400.588
400.566
400.552
400.549
400.549
400.548
400.548
400.548
400.548
400.548
400.548
400.548
400.548
400.547
400.547
400.547
400.547
400.547
400.546
400.546
400.547
400.547
400.547
400.547
400.546
400.546
400.546
400.546
400.546
400.545
400.545
400.545
400.545
400.545
400.545
400.544
400.544
400.544
400.544
400.544
400.544
400.543
400.542
400.542
400.542
400.542
400.542
400.65
400.623
400.611
400.608
400.607
400.607
400.607
400.606
400.606
400.606
400.606
400.606
400.606
400.605
400.605
400.605
400.604
400.604
400.604
400.604
400.604
400.604
400.604
400.604
400.603
400.603
400.603
400.602
400.602
400.602
400.601
400.601
400.601
400.601
400.601
400.6
400.6
400.6
400.6
400.599
400.599
400.598
400.597
400.597
400.597
400.596
400.596
400.72
400.677
400.663
400.66
400.66
400.66
400.66
400.66
400.66
400.66
400.66
400.659
400.659
400.659
400.659
400.658
400.658
400.658
400.658
400.657
400.657
400.657
400.657
400.657
400.657
400.657
400.656
400.656
400.655
400.655
400.655
400.655
400.655
400.655
400.654
400.654
400.654
400.654
400.654
400.654
400.653
400.652
400.652
400.651
400.651
400.65
400.65
400.786
400.738
400.712
400.706
400.706
400.706
400.706
400.706
400.706
400.706
400.706
400.706
400.706
400.705
400.705
400.704
400.704
400.704
400.704
400.704
400.703
400.703
400.703
400.703
400.703
400.703
400.702
400.702
400.701
400.701
400.701
400.7
400.7
400.7
400.7
400.7
400.7
400.7
400.7
400.7
400.699
400.698
400.698
400.697
400.697
400.696
400.696
400.833
400.804
400.773
400.763
400.761
400.761
400.761
400.76
400.76
400.76
400.76
400.76
400.76
400.759
400.759
400.758
400.758
400.757
400.757
400.757
400.756
400.756
400.756
400.755
400.755
400.754
400.754
400.753
400.753
400.753
400.752
400.752
400.751
400.751
400.751
400.751
400.751
400.75
400.75
400.75
400.749
400.749
400.748
400.747
400.747
400.746
400.745
400.874
400.87
400.842
400.83
400.827
400.827
400.826
400.826
400.826
400.825
400.825
400.825
400.825
400.824
400.823
400.822
400.822
400.821
400.82
400.82
400.819
400.819
400.819
400.818
400.818
400.817
400.816
400.815
400.815
400.814
400.814
400.813
400.813
400.812
400.811
400.811
400.811
400.811
400.81
400.81
400.809
400.808
400.807
400.806
400.805
400.805
400.804
400.915
400.927
400.91
400.899
400.897
400.896
400.896
400.895
400.895
400.894
400.893
400.893
400.893
400.892
400.891
400.89
400.889
400.888
400.887
400.886
400.885
400.885
400.884
400.883
400.883
400.882
400.88
400.88
400.879
400.878
400.878
400.877
400.876
400.875
400.874
400.874
400.873
400.873
400.872
400.871
400.871
400.87
400.868
400.867
400.866
400.865
400.865
400.971
400.974
400.971
400.965
400.963
400.961
400.961
400.96
400.959
400.959
400.958
400.958
400.957
400.956
400.954
400.953
400.952
400.951
400.95
400.949
400.948
400.947
400.946
400.945
400.944
400.943
400.942
400.941
400.94
400.939
400.939
400.938
400.937
400.936
400.934
400.933
400.933
400.932
400.932
400.931
400.929
400.928
400.927
400.925
400.924
400.923
400.923
401.038
401.018
401.016
401.015
401.015
401.015
401.015
401.015
401.015
401.014
401.014
401.014
401.012
401.011
401.01
401.009
401.008
401.007
401.006
401.006
401.005
401.004
401.003
401.002
401.001
401
400.999
400.998
400.997
400.997
400.996
400.995
400.994
400.993
400.992
400.99
400.99
400.989
400.989
400.988
400.986
400.985
400.984
400.982
400.981
400.98
400.98
401.104
401.057
401.049
401.049
401.05
401.05
401.05
401.05
401.05
401.049
401.049
401.049
401.048
401.047
401.047
401.046
401.045
401.044
401.044
401.043
401.043
401.042
401.042
401.041
401.041
401.04
401.039
401.039
401.038
401.038
401.037
401.037
401.036
401.035
401.034
401.033
401.033
401.033
401.032
401.032
401.031
401.03
401.029
401.028
401.027
401.027
401.026
401.163
401.094
401.077
401.073
401.073
401.073
401.073
401.073
401.073
401.072
401.072
401.072
401.072
401.071
401.07
401.069
401.069
401.069
401.068
401.068
401.068
401.067
401.067
401.067
401.066
401.066
401.065
401.065
401.065
401.064
401.064
401.063
401.063
401.062
401.061
401.061
401.06
401.06
401.06
401.06
401.059
401.058
401.057
401.057
401.056
401.055
401.055
401.217
401.133
401.106
401.098
401.095
401.094
401.094
401.094
401.093
401.093
401.093
401.092
401.092
401.091
401.09
401.09
401.089
401.089
401.088
401.088
401.088
401.087
401.087
401.086
401.086
401.086
401.085
401.085
401.084
401.084
401.083
401.083
401.083
401.082
401.081
401.08
401.08
401.08
401.08
401.079
401.079
401.078
401.077
401.077
401.076
401.076
401.075
401.27
401.179
401.135
401.123
401.12
401.119
401.118
401.118
401.117
401.117
401.117
401.117
401.116
401.115
401.115
401.114
401.113
401.113
401.113
401.112
401.112
401.112
401.111
401.111
401.11
401.11
401.109
401.109
401.108
401.108
401.107
401.107
401.106
401.105
401.104
401.104
401.104
401.104
401.103
401.103
401.102
401.102
401.101
401.1
401.099
401.099
401.098
401.327
401.242
401.179
401.156
401.15
401.148
401.147
401.146
401.145
401.144
401.144
401.143
401.142
401.142
401.141
401.14
401.14
401.139
401.139
401.138
401.138
401.138
401.137
401.136
401.136
401.135
401.134
401.134
401.133
401.132
401.132
401.131
401.131
401.13
401.129
401.129
401.129
401.128
401.128
401.127
401.127
401.126
401.125
401.124
401.124
401.123
401.123
401.379
401.315
401.246
401.213
401.201
401.196
401.194
401.193
401.192
401.191
401.19
401.189
401.188
401.187
401.186
401.185
401.184
401.184
401.183
401.182
401.181
401.181
401.18
401.179
401.177
401.176
401.175
401.174
401.173
401.173
401.172
401.171
401.17
401.169
401.167
401.167
401.167
401.166
401.165
401.164
401.164
401.163
401.162
401.161
401.159
401.159
401.158
401.422
401.382
401.318
401.282
401.265
401.259
401.256
401.255
401.254
401.253
401.252
401.251
401.25
401.249
401.248
401.247
401.246
401.245
401.244
401.244
401.243
401.242
401.241
401.24
401.238
401.237
401.236
401.235
401.234
401.233
401.232
401.231
401.23
401.228
401.227
401.227
401.226
401.225
401.224
401.223
401.222
401.222
401.221
401.22
401.219
401.218
401.217
401.459
401.439
401.385
401.349
401.331
401.324
401.321
401.32
401.319
401.318
401.317
401.317
401.316
401.315
401.314
401.313
401.312
401.311
401.311
401.31
401.309
401.308
401.307
401.306
401.305
401.304
401.303
401.302
401.301
401.3
401.299
401.298
401.297
401.296
401.295
401.294
401.294
401.293
401.293
401.292
401.291
401.29
401.29
401.289
401.288
401.288
401.287
401.493
401.488
401.444
401.411
401.393
401.386
401.383
401.382
401.381
401.381
401.38
401.38
401.379
401.378
401.378
401.377
401.376
401.376
401.375
401.374
401.374
401.373
401.372
401.371
401.37
401.369
401.368
401.367
401.367
401.366
401.365
401.364
401.363
401.362
401.362
401.362
401.361
401.361
401.36
401.359
401.359
401.358
401.358
401.358
401.358
401.358
401.358
401.529
401.534
401.499
401.47
401.454
401.446
401.444
401.443
401.443
401.443
401.443
401.442
401.442
401.441
401.441
401.441
401.44
401.439
401.439
401.438
401.438
401.437
401.436
401.436
401.435
401.434
401.433
401.433
401.432
401.432
401.431
401.43
401.43
401.429
401.429
401.428
401.428
401.428
401.427
401.427
401.426
401.426
401.426
401.426
401.426
401.427
401.427
401.568
401.579
401.553
401.527
401.513
401.506
401.504
401.504
401.504
401.504
401.504
401.503
401.503
401.503
401.503
401.502
401.502
401.501
401.5
401.5
401.499
401.499
401.498
401.498
401.497
401.497
401.496
401.496
401.495
401.495
401.494
401.494
401.493
401.493
401.492
401.492
401.492
401.492
401.492
401.491
401.491
401.491
401.491
401.491
401.491
401.492
401.492
401.611
401.623
401.604
401.583
401.569
401.563
401.562
401.562
401.562
401.562
401.561
401.561
401.561
401.561
401.56
401.56
401.56
401.559
401.558
401.558
401.557
401.557
401.556
401.555
401.555
401.554
401.554
401.553
401.552
401.552
401.552
401.551
401.551
401.55
401.55
401.549
401.549
401.549
401.549
401.548
401.548
401.548
401.547
401.547
401.548
401.548
401.549
401.654
401.667
401.654
401.636
401.623
401.618
401.617
401.617
401.617
401.616
401.616
401.616
401.616
401.615
401.615
401.614
401.614
401.613
401.612
401.611
401.61
401.61
401.609
401.608
401.608
401.607
401.606
401.605
401.604
401.604
401.603
401.603
401.602
401.601
401.601
401.6
401.6
401.6
401.6
401.599
401.598
401.598
401.598
401.597
401.597
401.598
401.598
401.696
401.708
401.7
401.684
401.673
401.668
401.667
401.666
401.666
401.666
401.666
401.666
401.665
401.665
401.664
401.663
401.662
401.661
401.66
401.66
401.659
401.658
401.657
401.656
401.655
401.654
401.653
401.652
401.652
401.651
401.65
401.65
401.649
401.648
401.648
401.647
401.646
401.646
401.646
401.645
401.645
401.644
401.644
401.644
401.643
401.643
401.643
401.734
401.747
401.742
401.729
401.719
401.714
401.713
401.713
401.713
401.712
401.712
401.712
401.712
401.711
401.71
401.71
401.709
401.708
401.707
401.706
401.706
401.705
401.704
401.703
401.702
401.701
401.7
401.699
401.699
401.698
401.697
401.696
401.696
401.695
401.695
401.694
401.693
401.693
401.693
401.693
401.692
401.692
401.692
401.692
401.691
401.691
401.69
401.772
401.786
401.784
401.774
401.765
401.761
401.76
401.76
401.759
401.759
401.759
401.759
401.759
401.758
401.758
401.757
401.757
401.756
401.755
401.754
401.753
401.753
401.752
401.751
401.75
401.749
401.748
401.747
401.746
401.746
401.745
401.744
401.744
401.743
401.743
401.742
401.742
401.742
401.742
401.741
401.741
401.741
401.741
401.741
401.741
401.74
401.74
401.813
401.829
401.827
401.821
401.813
401.809
401.808
401.808
401.808
401.808
401.808
401.808
401.808
401.807
401.807
401.806
401.806
401.805
401.804
401.804
401.803
401.802
401.801
401.8
401.799
401.798
401.797
401.796
401.796
401.795
401.794
401.793
401.793
401.793
401.792
401.792
401.791
401.791
401.791
401.791
401.791
401.791
401.791
401.791
401.791
401.791
401.791
401.855
401.874
401.873
401.868
401.862
401.859
401.858
401.858
401.858
401.858
401.858
401.858
401.858
401.857
401.857
401.856
401.856
401.855
401.854
401.853
401.852
401.851
401.85
401.849
401.848
401.846
401.845
401.845
401.844
401.843
401.842
401.841
401.841
401.84
401.839
401.839
401.838
401.838
401.838
401.838
401.838
401.838
401.838
401.838
401.838
401.839
401.839
401.899
401.921
401.919
401.914
401.909
401.907
401.906
401.906
401.906
401.906
401.906
401.905
401.905
401.905
401.904
401.903
401.903
401.902
401.901
401.9
401.899
401.897
401.896
401.895
401.893
401.892
401.891
401.89
401.889
401.888
401.887
401.886
401.885
401.884
401.883
401.883
401.882
401.882
401.882
401.881
401.881
401.881
401.881
401.881
401.881
401.882
401.883
401.943
401.967
401.968
401.961
401.955
401.952
401.951
401.951
401.951
401.951
401.951
401.95
401.95
401.949
401.949
401.948
401.947
401.946
401.945
401.944
401.943
401.941
401.94
401.938
401.936
401.935
401.934
401.933
401.931
401.93
401.929
401.928
401.927
401.927
401.926
401.925
401.924
401.923
401.923
401.923
401.923
401.922
401.923
401.923
401.923
401.924
401.924
401.984
402.01
402.015
402.008
402
401.997
401.996
401.996
401.995
401.995
401.995
401.995
401.994
401.993
401.993
401.992
401.991
401.99
401.989
401.988
401.986
401.985
401.983
401.982
401.98
401.979
401.977
401.976
401.975
401.974
401.973
401.972
401.971
401.97
401.969
401.968
401.967
401.966
401.966
401.966
401.965
401.965
401.965
401.966
401.966
401.966
401.967
402.023
402.048
402.059
402.053
402.046
402.043
402.041
402.041
402.041
402.04
402.04
402.039
402.039
402.038
402.037
402.036
402.036
402.034
402.033
402.032
402.031
402.03
402.028
402.026
402.025
402.023
402.022
402.02
402.019
402.018
402.017
402.016
402.015
402.014
402.013
402.012
402.011
402.01
402.009
402.009
402.008
402.008
402.008
402.009
402.009
402.009
402.01
402.062
402.084
402.102
402.099
402.093
402.089
402.088
402.088
402.087
402.087
402.087
402.086
402.086
402.085
402.084
402.083
402.083
402.081
402.08
402.079
402.078
402.077
402.075
402.074
402.072
402.071
402.069
402.068
402.067
402.066
402.065
402.064
402.063
402.061
402.06
402.059
402.058
402.057
402.056
402.055
402.055
402.055
402.055
402.055
402.056
402.056
402.056
402.102
402.12
402.145
402.147
402.142
402.139
402.138
402.138
402.137
402.137
402.137
402.136
402.136
402.135
402.134
402.134
402.133
402.132
402.131
402.13
402.129
402.127
402.126
402.125
402.123
402.122
402.12
402.119
402.118
402.117
402.116
402.115
402.114
402.112
402.111
402.11
402.109
402.108
402.107
402.106
402.105
402.105
402.105
402.106
402.106
402.106
402.106
402.144
402.155
402.185
402.195
402.193
402.191
402.19
402.19
402.19
402.189
402.189
402.188
402.188
402.187
402.187
402.186
402.185
402.184
402.183
402.182
402.181
402.18
402.179
402.178
402.176
402.174
402.173
402.172
402.171
402.17
402.169
402.168
402.166
402.165
402.164
402.162
402.161
402.16
402.159
402.158
402.158
402.157
402.157
402.157
402.157
402.157
402.157
402.187
402.19
402.22
402.24
402.243
402.242
402.241
402.241
402.241
402.24
402.24
402.24
402.239
402.238
402.238
402.237
402.236
402.235
402.234
402.233
402.232
402.231
402.23
402.228
402.227
402.225
402.223
402.222
402.221
402.22
402.218
402.217
402.216
402.214
402.213
402.211
402.21
402.208
402.207
402.206
402.205
402.205
402.204
402.204
402.204
402.203
402.203
402.231
402.226
402.25
402.276
402.285
402.287
402.287
402.287
402.286
402.286
402.286
402.285
402.284
402.284
402.283
402.282
402.282
402.281
402.28
402.278
402.277
402.276
402.274
402.273
402.271
402.269
402.267
402.266
402.264
402.263
402.262
402.26
402.258
402.257
402.255
402.254
402.252
402.251
402.249
402.248
402.247
402.246
402.245
402.245
402.244
402.244
402.243
402.276
402.264
402.279
402.305
402.317
402.321
402.321
402.322
402.321
402.321
402.321
402.32
402.319
402.319
402.318
402.317
402.316
402.315
402.314
402.313
402.311
402.31
402.308
402.307
402.305
402.303
402.301
402.299
402.297
402.296
402.294
402.293
402.291
402.289
402.288
402.286
402.284
402.283
402.281
402.279
402.278
402.277
402.276
402.276
402.275
402.274
402.274
402.322
402.303
402.309
402.328
402.341
402.345
402.346
402.346
402.346
402.345
402.345
402.344
402.344
402.343
402.342
402.341
402.34
402.339
402.338
402.336
402.335
402.334
402.332
402.33
402.328
402.326
402.324
402.322
402.32
402.319
402.317
402.316
402.314
402.312
402.31
402.309
402.307
402.305
402.304
402.303
402.301
402.3
402.299
402.298
402.298
402.297
402.297
402.369
402.345
402.34
402.352
402.361
402.364
402.365
402.366
402.365
402.365
402.364
402.364
402.363
402.362
402.362
402.361
402.36
402.358
402.357
402.356
402.354
402.353
402.351
402.349
402.348
402.345
402.343
402.341
402.339
402.338
402.336
402.335
402.333
402.331
402.33
402.328
402.326
402.324
402.323
402.322
402.321
402.319
402.319
402.318
402.317
402.317
402.317
402.415
402.388
402.374
402.378
402.383
402.385
402.385
402.385
402.385
402.385
402.384
402.383
402.383
402.382
402.381
402.38
402.379
402.377
402.376
402.375
402.373
402.371
402.37
402.368
402.367
402.365
402.362
402.36
402.359
402.357
402.355
402.354
402.352
402.35
402.348
402.347
402.345
402.344
402.343
402.342
402.34
402.339
402.338
402.338
402.337
402.337
402.336
402.458
402.429
402.409
402.406
402.407
402.407
402.407
402.407
402.407
402.406
402.406
402.405
402.404
402.403
402.403
402.402
402.4
402.399
402.398
402.396
402.394
402.393
402.391
402.39
402.388
402.386
402.384
402.382
402.38
402.379
402.377
402.375
402.373
402.372
402.37
402.368
402.366
402.365
402.364
402.363
402.362
402.361
402.36
402.36
402.359
402.359
402.359
402.5
402.47
402.445
402.437
402.434
402.434
402.433
402.433
402.432
402.432
402.431
402.43
402.429
402.429
402.428
402.427
402.426
402.424
402.423
402.421
402.42
402.418
402.417
402.415
402.413
402.411
402.41
402.408
402.406
402.404
402.402
402.401
402.399
402.397
402.395
402.394
402.392
402.391
402.39
402.389
402.388
402.387
402.386
402.386
402.385
402.385
402.385
402.544
402.512
402.484
402.472
402.467
402.465
402.465
402.464
402.463
402.463
402.462
402.461
402.46
402.46
402.459
402.458
402.457
402.455
402.454
402.452
402.451
402.449
402.447
402.446
402.444
402.442
402.441
402.439
402.437
402.435
402.434
402.432
402.43
402.429
402.427
402.425
402.424
402.423
402.422
402.421
402.42
402.419
402.418
402.418
402.417
402.417
402.417
402.589
402.557
402.528
402.512
402.505
402.502
402.502
402.501
402.5
402.499
402.499
402.498
402.497
402.496
402.495
402.494
402.493
402.491
402.49
402.489
402.487
402.485
402.484
402.482
402.48
402.479
402.477
402.475
402.473
402.472
402.47
402.468
402.467
402.465
402.464
402.462
402.461
402.459
402.458
402.457
402.456
402.455
402.455
402.455
402.454
402.454
402.454
402.634
402.602
402.571
402.553
402.545
402.542
402.541
402.54
402.539
402.538
402.537
402.536
402.536
402.535
402.533
402.532
402.531
402.529
402.528
402.527
402.525
402.523
402.522
402.52
402.518
402.516
402.514
402.513
402.511
402.509
402.508
402.507
402.505
402.504
402.502
402.5
402.499
402.498
402.496
402.495
402.494
402.493
402.493
402.493
402.492
402.492
402.492
402.676
402.644
402.612
402.594
402.585
402.581
402.579
402.579
402.578
402.577
402.576
402.575
402.574
402.573
402.571
402.57
402.568
402.567
402.565
402.564
402.562
402.56
402.558
402.556
402.554
402.552
402.551
402.549
402.548
402.546
402.545
402.544
402.542
402.54
402.539
402.537
402.536
402.534
402.533
402.532
402.531
402.53
402.529
402.529
402.528
402.528
402.528
402.719
402.686
402.654
402.635
402.625
402.621
402.619
402.618
402.617
402.616
402.615
402.614
402.613
402.611
402.61
402.608
402.606
402.604
402.603
402.601
402.599
402.597
402.595
402.593
402.591
402.589
402.587
402.585
402.584
402.582
402.581
402.58
402.578
402.576
402.575
402.573
402.572
402.57
402.569
402.567
402.566
402.565
402.564
402.563
402.563
402.563
402.562
402.762
402.729
402.697
402.677
402.666
402.662
402.66
402.659
402.658
402.657
402.655
402.654
402.653
402.651
402.649
402.648
402.646
402.644
402.642
402.64
402.638
402.636
402.633
402.631
402.628
402.626
402.624
402.622
402.62
402.619
402.617
402.616
402.615
402.613
402.611
402.61
402.608
402.606
402.605
402.603
402.602
402.6
402.599
402.599
402.598
402.597
402.597
402.804
402.771
402.739
402.718
402.707
402.703
402.702
402.7
402.699
402.697
402.696
402.694
402.693
402.691
402.689
402.687
402.686
402.684
402.681
402.679
402.677
402.674
402.672
402.669
402.667
402.665
402.662
402.66
402.659
402.657
402.656
402.654
402.653
402.651
402.65
402.648
402.646
402.644
402.642
402.641
402.639
402.638
402.636
402.636
402.635
402.634
402.634
402.845
402.812
402.78
402.759
402.748
402.744
402.742
402.741
402.739
402.738
402.736
402.735
402.733
402.731
402.729
402.728
402.726
402.724
402.722
402.719
402.717
402.714
402.711
402.709
402.707
402.705
402.702
402.7
402.699
402.697
402.695
402.694
402.693
402.691
402.689
402.688
402.686
402.684
402.682
402.681
402.679
402.677
402.676
402.675
402.674
402.673
402.673
402.885
402.852
402.819
402.798
402.788
402.784
402.782
402.78
402.779
402.778
402.776
402.775
402.773
402.771
402.77
402.768
402.766
402.764
402.762
402.759
402.757
402.754
402.752
402.749
402.747
402.745
402.743
402.741
402.739
402.737
402.736
402.734
402.733
402.731
402.73
402.728
402.726
402.725
402.723
402.721
402.72
402.718
402.717
402.716
402.715
402.714
402.713
402.924
402.891
402.859
402.838
402.827
402.823
402.821
402.82
402.818
402.817
402.816
402.814
402.812
402.811
402.809
402.807
402.806
402.804
402.801
402.799
402.797
402.794
402.792
402.789
402.787
402.785
402.783
402.781
402.78
402.778
402.777
402.775
402.773
402.772
402.77
402.768
402.767
402.765
402.763
402.762
402.761
402.759
402.758
402.756
402.755
402.754
402.753
402.964
402.93
402.898
402.877
402.867
402.862
402.86
402.858
402.857
402.856
402.855
402.853
402.851
402.85
402.848
402.846
402.845
402.843
402.841
402.839
402.837
402.834
402.832
402.829
402.827
402.825
402.823
402.822
402.82
402.818
402.817
402.815
402.814
402.812
402.81
402.808
402.807
402.805
402.804
402.802
402.801
402.799
402.798
402.796
402.795
402.794
402.793
403.002
402.969
402.936
402.915
402.905
402.9
402.898
402.896
402.895
402.894
402.892
402.891
402.89
402.888
402.886
402.885
402.883
402.882
402.88
402.877
402.875
402.873
402.87
402.868
402.866
402.864
402.863
402.861
402.86
402.858
402.857
402.855
402.853
402.851
402.849
402.847
402.846
402.844
402.843
402.841
402.84
402.838
402.837
402.836
402.834
402.833
402.833
403.04
403.007
402.975
402.953
402.942
402.937
402.936
402.934
402.933
402.931
402.93
402.928
402.926
402.925
402.923
402.922
402.92
402.919
402.917
402.915
402.912
402.91
402.907
402.905
402.903
402.901
402.9
402.898
402.897
402.895
402.894
402.892
402.89
402.888
402.886
402.885
402.883
402.881
402.88
402.878
402.877
402.875
402.873
402.872
402.871
402.87
402.87
403.078
403.045
403.012
402.991
402.98
402.974
402.972
402.971
402.969
402.968
402.966
402.964
402.963
402.961
402.96
402.958
402.957
402.955
402.952
402.95
402.948
402.945
402.943
402.941
402.939
402.937
402.936
402.934
402.933
402.931
402.929
402.928
402.926
402.924
402.922
402.92
402.918
402.916
402.915
402.913
402.911
402.909
402.908
402.907
402.906
402.905
402.905
403.116
403.083
403.05
403.029
403.017
403.012
403.009
403.007
403.005
403.004
403.002
403.001
402.999
402.997
402.996
402.994
402.992
402.99
402.988
402.986
402.983
402.98
402.978
402.976
402.974
402.972
402.971
402.969
402.967
402.966
402.964
402.962
402.961
402.959
402.957
402.955
402.953
402.951
402.949
402.947
402.944
402.943
402.941
402.94
402.939
402.939
402.939
403.154
403.12
403.088
403.066
403.054
403.049
403.046
403.044
403.042
403.041
403.039
403.037
403.035
403.034
403.032
403.03
403.028
403.026
403.023
403.021
403.019
403.016
403.013
403.011
403.009
403.007
403.006
403.004
403.002
403
402.999
402.997
402.996
402.994
402.993
402.991
402.988
402.986
402.984
402.982
402.979
402.977
402.976
402.974
402.974
402.974
402.974
403.19
403.156
403.124
403.103
403.091
403.086
403.082
403.08
403.079
403.077
403.075
403.074
403.072
403.07
403.068
403.066
403.064
403.062
403.059
403.057
403.054
403.052
403.049
403.047
403.044
403.043
403.042
403.04
403.038
403.036
403.035
403.033
403.032
403.031
403.03
403.028
403.025
403.023
403.021
403.019
403.016
403.015
403.013
403.012
403.012
403.011
403.012
403.224
403.191
403.159
403.138
403.126
403.121
403.118
403.115
403.114
403.112
403.111
403.109
403.107
403.105
403.103
403.101
403.1
403.097
403.095
403.092
403.09
403.087
403.084
403.082
403.08
403.079
403.078
403.077
403.074
403.073
403.071
403.07
403.069
403.068
403.067
403.065
403.062
403.06
403.058
403.056
403.055
403.053
403.052
403.051
403.051
403.051
403.051
403.257
403.224
403.192
403.171
403.16
403.154
403.152
403.15
403.148
403.147
403.145
403.143
403.142
403.14
403.139
403.136
403.134
403.132
403.129
403.127
403.124
403.122
403.119
403.117
403.115
403.114
403.114
403.112
403.11
403.108
403.107
403.106
403.105
403.104
403.103
403.101
403.098
403.097
403.095
403.093
403.091
403.09
403.089
403.088
403.088
403.088
403.088
403.29
403.257
403.226
403.205
403.194
403.189
403.186
403.184
403.183
403.181
403.18
403.178
403.176
403.175
403.173
403.171
403.169
403.166
403.164
403.162
403.159
403.157
403.154
403.152
403.15
403.149
403.148
403.147
403.145
403.144
403.143
403.141
403.14
403.139
403.138
403.136
403.134
403.132
403.13
403.129
403.127
403.126
403.125
403.124
403.124
403.124
403.124
403.324
403.292
403.26
403.24
403.229
403.223
403.221
403.219
403.218
403.216
403.215
403.213
403.211
403.21
403.208
403.206
403.204
403.202
403.2
403.197
403.195
403.192
403.189
403.187
403.185
403.184
403.183
403.183
403.181
403.179
403.178
403.177
403.176
403.175
403.174
403.172
403.17
403.168
403.166
403.164
403.162
403.161
403.16
403.159
403.159
403.159
403.159
403.359
403.327
403.296
403.275
403.264
403.259
403.256
403.254
403.253
403.251
403.25
403.248
403.246
403.245
403.243
403.241
403.239
403.237
403.235
403.233
403.23
403.228
403.225
403.222
403.221
403.22
403.218
403.218
403.216
403.214
403.213
403.212
403.211
403.21
403.209
403.207
403.204
403.202
403.2
403.198
403.196
403.195
403.194
403.192
403.192
403.192
403.192
403.393
403.361
403.33
403.309
403.299
403.293
403.29
403.289
403.287
403.286
403.284
403.282
403.281
403.279
403.277
403.275
403.273
403.271
403.269
403.267
403.265
403.262
403.259
403.257
403.255
403.254
403.253
403.252
403.25
403.248
403.247
403.246
403.245
403.244
403.242
403.24
403.237
403.235
403.233
403.231
403.229
403.227
403.226
403.224
403.223
403.223
403.223
403.426
403.394
403.363
403.343
403.332
403.327
403.324
403.322
403.32
403.319
403.317
403.315
403.313
403.312
403.31
403.308
403.306
403.304
403.302
403.3
403.297
403.295
403.292
403.29
403.289
403.288
403.286
403.285
403.283
403.281
403.28
403.279
403.278
403.277
403.275
403.273
403.27
403.267
403.265
403.262
403.26
403.258
403.257
403.255
403.254
403.253
403.253
403.458
403.426
403.395
403.374
403.363
403.359
403.356
403.355
403.353
403.351
403.35
403.348
403.346
403.344
403.342
403.34
403.338
403.336
403.334
403.332
403.33
403.327
403.325
403.323
403.322
403.32
403.319
403.317
403.315
403.314
403.313
403.312
403.311
403.31
403.308
403.305
403.302
403.3
403.297
403.294
403.292
403.29
403.288
403.287
403.285
403.284
403.284
403.489
403.457
403.426
403.405
403.395
403.39
403.388
403.386
403.384
403.382
403.381
403.379
403.378
403.376
403.374
403.372
403.37
403.368
403.366
403.364
403.362
403.36
403.358
403.356
403.354
403.353
403.351
403.35
403.348
403.347
403.346
403.345
403.344
403.343
403.341
403.338
403.335
403.332
403.329
403.327
403.324
403.322
403.321
403.319
403.317
403.316
403.315
403.519
403.487
403.456
403.436
403.426
403.421
403.419
403.417
403.415
403.414
403.412
403.41
403.409
403.408
403.406
403.404
403.402
403.4
403.398
403.396
403.394
403.392
403.39
403.388
403.387
403.385
403.384
403.383
403.382
403.381
403.38
403.379
403.378
403.376
403.374
403.372
403.369
403.366
403.363
403.36
403.358
403.356
403.354
403.352
403.35
403.349
403.348
403.546
403.515
403.484
403.464
403.455
403.45
403.448
403.446
403.445
403.443
403.442
403.44
403.439
403.437
403.436
403.434
403.433
403.431
403.429
403.427
403.425
403.423
403.421
403.42
403.419
403.418
403.416
403.415
403.414
403.413
403.412
403.412
403.411
403.409
403.408
403.406
403.403
403.4
403.397
403.394
403.392
403.39
403.388
403.386
403.384
403.383
403.381
403.571
403.54
403.51
403.49
403.48
403.476
403.474
403.472
403.471
403.47
403.469
403.467
403.466
403.464
403.463
403.462
403.46
403.459
403.457
403.455
403.453
403.452
403.45