/*--------------------------------*- C++ -*----------------------------------*\
| =========                 |                                                 |
| \\      /  F ield         | OpenFOAM: The Open Source CFD Toolbox           |
|  \\    /   O peration     | Version:  2212                                  |
|   \\  /    A nd           | Website:  www.openfoam.com                      |
|    \\/     M anipulation  |                                                 |
\*---------------------------------------------------------------------------*/
FoamFile
{
    version     2.0;
    format      ascii;
    arch        "LSB;label=32;scalar=64";
    class       surfaceScalarField;
    location    "0.121";
    object      phi_0;
}
// * * * * * * * * * * * * * * * * * * * * * * * * * * * * * * * * * * * * * //

dimensions      [0 3 -1 0 0 0 0];

oriented        oriented;

internalField   nonuniform List<scalar> 
69808
(
-1.87679e-08
-0.036458
-1.87026
-1.84805e-07
-0.0364581
-1.87028
-2.49045e-07
-0.0364583
-1.87028
-3.39993e-07
-0.0364586
-1.87028
-4.02068e-07
-0.0364589
-1.87028
-4.59333e-07
-0.0364593
-1.87028
-5.01884e-07
-0.0364597
-1.87028
-5.32853e-07
-0.0364601
-1.87028
-5.49026e-07
-0.0364606
-1.87028
-5.52164e-07
-0.036461
-1.87028
-5.40191e-07
-0.0364614
-1.87028
-5.15244e-07
-0.0364619
-1.87028
-4.77318e-07
-0.0364622
-1.87028
-4.29604e-07
-0.0364626
-1.87028
-3.76773e-07
-0.0364628
-1.87028
-3.16548e-07
-0.0364631
-1.87028
-2.70017e-07
-0.0364632
-1.87028
-1.80648e-07
-0.0364634
-1.87028
-1.70946e-07
-0.0364634
-1.87028
-0.0364634
-1.87026
-1.21479e-07
-0.0407855
-1.86194
-2.0504e-07
-0.0407858
-1.86196
-2.97565e-07
-0.0407861
-1.86196
-3.79528e-07
-0.0407864
-1.86196
-4.45874e-07
-0.0407869
-1.86196
-4.98765e-07
-0.0407874
-1.86196
-5.35023e-07
-0.0407881
-1.86196
-5.56068e-07
-0.0407887
-1.86195
-5.61684e-07
-0.0407894
-1.86195
-5.52836e-07
-0.04079
-1.86195
-5.3088e-07
-0.0407907
-1.86195
-4.9698e-07
-0.0407913
-1.86195
-4.53449e-07
-0.0407919
-1.86195
-4.02283e-07
-0.0407924
-1.86195
-3.46387e-07
-0.0407928
-1.86195
-2.86802e-07
-0.0407931
-1.86195
-2.25923e-07
-0.0407934
-1.86195
-1.58364e-07
-0.0407936
-1.86195
-6.85396e-08
-0.0407938
-1.86195
-0.0407937
-1.86194
3.51277e-08
-0.0445541
-1.86953
1.20928e-07
-0.0445544
-1.86955
1.80248e-07
-0.0445546
-1.86955
2.25439e-07
-0.0445548
-1.86955
2.56937e-07
-0.0445552
-1.86955
2.72991e-07
-0.0445555
-1.86955
2.75106e-07
-0.044556
-1.86955
2.64735e-07
-0.0445564
-1.86955
2.43919e-07
-0.0445569
-1.86955
2.15998e-07
-0.0445574
-1.86955
1.83425e-07
-0.0445578
-1.86955
1.49648e-07
-0.0445583
-1.86955
1.16695e-07
-0.0445587
-1.86955
8.70287e-08
-0.044559
-1.86955
6.12258e-08
-0.0445593
-1.86955
4.10302e-08
-0.0445596
-1.86955
2.5146e-08
-0.0445598
-1.86955
1.8425e-08
-0.0445599
-1.86955
2.82929e-08
-0.04456
-1.86955
-0.0445599
-1.86953
-7.93064e-08
-0.0335138
-1.84651
-1.46216e-07
-0.0335141
-1.84652
-2.10057e-07
-0.0335143
-1.84652
-2.65811e-07
-0.0335146
-1.84652
-3.11428e-07
-0.033515
-1.84652
-3.46101e-07
-0.0335154
-1.84652
-3.69543e-07
-0.0335159
-1.84652
-3.81688e-07
-0.0335164
-1.84652
-3.83288e-07
-0.0335169
-1.84652
-3.74775e-07
-0.0335175
-1.84652
-3.57592e-07
-0.033518
-1.84652
-3.32594e-07
-0.0335185
-1.84652
-3.01406e-07
-0.0335189
-1.84652
-2.64958e-07
-0.0335193
-1.84652
-2.24492e-07
-0.0335197
-1.84652
-1.81187e-07
-0.03352
-1.84652
-1.34889e-07
-0.0335202
-1.84652
-8.90107e-08
-0.0335204
-1.84652
-4.44635e-08
-0.0335205
-1.84652
-0.0335204
-1.84651
5.01772e-08
-0.0224211
-1.85113
1.2115e-07
-0.0224212
-1.85115
1.79338e-07
-0.0224213
-1.85115
2.24978e-07
-0.0224214
-1.85115
2.57841e-07
-0.0224216
-1.85115
2.76789e-07
-0.0224218
-1.85115
2.82683e-07
-0.0224221
-1.85115
2.76478e-07
-0.0224223
-1.85115
2.60141e-07
-0.0224226
-1.85115
2.36199e-07
-0.0224229
-1.85115
2.0699e-07
-0.0224231
-1.85115
1.75711e-07
-0.0224234
-1.85115
1.44251e-07
-0.0224236
-1.85115
1.15211e-07
-0.0224238
-1.85115
9.00846e-08
-0.022424
-1.85115
7.00255e-08
-0.0224241
-1.85115
5.50152e-08
-0.0224242
-1.85115
4.27548e-08
-0.0224243
-1.85115
3.02221e-08
-0.0224244
-1.85115
-0.0224244
-1.85113
-3.1028e-08
-0.00463806
-1.833
-5.58229e-08
-0.00463804
-1.83301
-7.93145e-08
-0.00463814
-1.83301
-1.00784e-07
-0.00463827
-1.83301
-1.18004e-07
-0.00463845
-1.83301
-1.3156e-07
-0.00463865
-1.83302
-1.41002e-07
-0.00463888
-1.83302
-1.46567e-07
-0.00463912
-1.83302
-1.48033e-07
-0.00463936
-1.83302
-1.44977e-07
-0.0046396
-1.83302
-1.38899e-07
-0.00463984
-1.83302
-1.29782e-07
-0.00464006
-1.83302
-1.18006e-07
-0.00464027
-1.83302
-1.03168e-07
-0.00464045
-1.83302
-8.5488e-08
-0.00464061
-1.83302
-6.48692e-08
-0.00464075
-1.83302
-4.26724e-08
-0.00464086
-1.83302
-2.26017e-08
-0.00464096
-1.83302
-9.46554e-09
-0.00464103
-1.83302
-0.00464113
-1.833
1.64123e-08
0.0128448
-1.83565
4.45113e-08
0.012845
-1.83566
6.67919e-08
0.0128449
-1.83566
8.26121e-08
0.0128449
-1.83566
9.26033e-08
0.0128448
-1.83566
9.63407e-08
0.0128448
-1.83566
9.38136e-08
0.0128447
-1.83566
8.57151e-08
0.0128446
-1.83566
7.24719e-08
0.0128445
-1.83566
5.64248e-08
0.0128444
-1.83566
3.79581e-08
0.0128444
-1.83566
1.99967e-08
0.0128443
-1.83566
3.13544e-09
0.0128442
-1.83566
-1.05906e-08
0.0128441
-1.83566
-1.94781e-08
0.012844
-1.83566
-2.30889e-08
0.012844
-1.83566
-2.12911e-08
0.0128439
-1.83566
-1.51757e-08
0.0128439
-1.83566
-5.26529e-09
0.0128438
-1.83566
0.0128436
-1.83565
-2.09089e-08
0.0331635
-1.82627
-4.01803e-08
0.0331638
-1.82629
-5.83574e-08
0.0331638
-1.82629
-7.47518e-08
0.0331638
-1.82629
-8.8109e-08
0.0331637
-1.82629
-9.89316e-08
0.0331637
-1.82629
-1.06849e-07
0.0331636
-1.82629
-1.12424e-07
0.0331635
-1.82629
-1.15973e-07
0.0331635
-1.82629
-1.17545e-07
0.0331634
-1.82629
-1.17387e-07
0.0331633
-1.82629
-1.1496e-07
0.0331633
-1.82629
-1.10632e-07
0.0331632
-1.82629
-1.03449e-07
0.0331631
-1.82629
-9.32797e-08
0.0331631
-1.82629
-8.03385e-08
0.033163
-1.82629
-6.55002e-08
0.0331629
-1.82629
-4.94687e-08
0.0331629
-1.82629
-2.86202e-08
0.0331628
-1.82629
0.0331625
-1.82627
-3.70555e-08
0.0463621
-1.8217
-6.50669e-08
0.0463625
-1.82172
-9.45228e-08
0.0463625
-1.82172
-1.22921e-07
0.0463625
-1.82172
-1.48887e-07
0.0463624
-1.82172
-1.71735e-07
0.0463624
-1.82172
-1.92367e-07
0.0463624
-1.82172
-2.09101e-07
0.0463623
-1.82172
-2.22091e-07
0.0463623
-1.82172
-2.32777e-07
0.0463622
-1.82172
-2.40667e-07
0.0463622
-1.82172
-2.45359e-07
0.0463621
-1.82172
-2.42896e-07
0.0463621
-1.82172
-2.35879e-07
0.046362
-1.82172
-2.21991e-07
0.046362
-1.82172
-2.00793e-07
0.0463619
-1.82172
-1.71031e-07
0.0463619
-1.82172
-1.30319e-07
0.0463618
-1.82172
-6.98978e-08
0.0463617
-1.82172
0.0463613
-1.8217
-1.91867e-08
0.0604815
-1.82115
-3.57793e-08
0.060482
-1.82117
-5.22202e-08
0.060482
-1.82117
-6.76558e-08
0.0604821
-1.82117
-8.1323e-08
0.0604822
-1.82117
-9.34359e-08
0.0604822
-1.82117
-1.04234e-07
0.0604823
-1.82117
-1.14414e-07
0.0604824
-1.82117
-1.24332e-07
0.0604825
-1.82117
-1.3416e-07
0.0604826
-1.82117
-1.40598e-07
0.0604827
-1.82117
-1.46209e-07
0.0604828
-1.82117
-1.49566e-07
0.0604829
-1.82117
-1.47534e-07
0.0604829
-1.82116
-1.41122e-07
0.0604829
-1.82116
-1.29498e-07
0.0604829
-1.82116
-1.12471e-07
0.0604829
-1.82116
-8.68589e-08
0.0604829
-1.82116
-4.66073e-08
0.0604829
-1.82116
0.0604823
-1.82115
-8.61494e-08
0.074177
-1.82327
-1.67453e-07
0.0741777
-1.82329
-2.44208e-07
0.0741777
-1.82329
-3.11856e-07
0.0741777
-1.82329
-3.68875e-07
0.0741777
-1.82329
-4.14062e-07
0.0741777
-1.82329
-4.47947e-07
0.0741777
-1.82329
-4.70818e-07
0.0741777
-1.82329
-4.83856e-07
0.0741777
-1.82329
-4.87392e-07
0.0741777
-1.82329
-4.82872e-07
0.0741778
-1.82329
-4.69822e-07
0.0741778
-1.82329
-4.48569e-07
0.0741778
-1.82329
-4.18933e-07
0.0741778
-1.82329
-3.80921e-07
0.0741778
-1.82329
-3.3381e-07
0.0741777
-1.82329
-2.77099e-07
0.0741777
-1.82329
-2.04851e-07
0.0741777
-1.82329
-1.08768e-07
0.0741776
-1.82329
0.0741769
-1.82327
-1.74902e-08
0.0871997
-1.83216
-2.43371e-08
0.0872004
-1.83217
-3.38815e-08
0.0872006
-1.83217
-4.59535e-08
0.0872008
-1.83217
-5.9957e-08
0.087201
-1.83217
-7.58223e-08
0.0872013
-1.83217
-9.37633e-08
0.0872016
-1.83218
-1.12884e-07
0.087202
-1.83218
-1.33868e-07
0.0872023
-1.83218
-1.54898e-07
0.0872027
-1.83218
-1.74949e-07
0.087203
-1.83218
-1.9035e-07
0.0872033
-1.83218
-2.00829e-07
0.0872036
-1.83218
-2.0369e-07
0.0872038
-1.83218
-1.98011e-07
0.087204
-1.83218
-1.81974e-07
0.0872042
-1.83218
-1.55574e-07
0.0872043
-1.83218
-1.12974e-07
0.0872043
-1.83218
-5.18332e-08
0.0872044
-1.83218
0.0872036
-1.83216
-1.22221e-07
0.0997709
-1.83332
-2.42592e-07
0.0997717
-1.83334
-3.53891e-07
0.0997718
-1.83334
-4.51294e-07
0.0997719
-1.83334
-5.33681e-07
0.0997721
-1.83334
-5.98914e-07
0.0997723
-1.83334
-6.47426e-07
0.0997726
-1.83334
-6.78908e-07
0.0997729
-1.83334
-6.94693e-07
0.0997731
-1.83334
-6.95121e-07
0.0997734
-1.83334
-6.81706e-07
0.0997737
-1.83334
-6.54779e-07
0.0997739
-1.83334
-6.15236e-07
0.0997741
-1.83334
-5.63352e-07
0.0997743
-1.83334
-5.0045e-07
0.0997745
-1.83334
-4.26803e-07
0.0997746
-1.83334
-3.43065e-07
0.0997746
-1.83334
-2.44104e-07
0.0997747
-1.83334
-1.25224e-07
0.0997747
-1.83334
0.0997738
-1.83332
-4.27369e-08
0.108959
-1.85261
-6.3476e-08
0.10896
-1.85263
-8.92243e-08
0.10896
-1.85263
-1.1811e-07
0.108961
-1.85263
-1.49022e-07
0.108961
-1.85263
-1.80293e-07
0.108962
-1.85263
-2.12195e-07
0.108962
-1.85263
-2.43392e-07
0.108963
-1.85263
-2.73473e-07
0.108963
-1.85263
-3.00025e-07
0.108964
-1.85263
-3.21826e-07
0.108965
-1.85263
-3.35525e-07
0.108965
-1.85263
-3.39358e-07
0.108966
-1.85263
-3.30208e-07
0.108966
-1.85263
-3.07734e-07
0.108966
-1.85263
-2.70775e-07
0.108967
-1.85263
-2.19022e-07
0.108967
-1.85263
-1.48113e-07
0.108967
-1.85263
-6.12936e-08
0.108967
-1.85263
0.108966
-1.85261
-1.51079e-07
0.117728
-1.85161
-3.01289e-07
0.117729
-1.85162
-4.4045e-07
0.117729
-1.85162
-5.61559e-07
0.117729
-1.85162
-6.65146e-07
0.11773
-1.85162
-7.47176e-07
0.11773
-1.85162
-8.08281e-07
0.11773
-1.85163
-8.46677e-07
0.117731
-1.85163
-8.64289e-07
0.117731
-1.85163
-8.60653e-07
0.117732
-1.85163
-8.38226e-07
0.117732
-1.85163
-7.97161e-07
0.117733
-1.85163
-7.39945e-07
0.117733
-1.85163
-6.67417e-07
0.117733
-1.85163
-5.82202e-07
0.117733
-1.85163
-4.8602e-07
0.117734
-1.85163
-3.80706e-07
0.117734
-1.85163
-2.64876e-07
0.117734
-1.85163
-1.3438e-07
0.117734
-1.85163
0.117733
-1.85161
-3.92815e-08
0.117077
-1.8805
-4.47552e-08
0.117077
-1.88051
-6.29556e-08
0.117078
-1.88051
-9.03602e-08
0.117078
-1.88051
-1.22766e-07
0.117079
-1.88051
-1.58843e-07
0.117079
-1.88051
-1.97586e-07
0.11708
-1.88051
-2.37708e-07
0.117081
-1.88051
-2.77354e-07
0.117081
-1.88051
-3.13692e-07
0.117082
-1.88051
-3.44216e-07
0.117083
-1.88051
-3.65049e-07
0.117084
-1.88051
-3.73484e-07
0.117084
-1.88051
-3.66328e-07
0.117085
-1.88051
-3.42139e-07
0.117085
-1.88051
-3.0162e-07
0.117085
-1.88051
-2.42877e-07
0.117086
-1.88051
-1.64292e-07
0.117086
-1.88051
-6.49451e-08
0.117086
-1.88051
0.117085
-1.88049
-1.65148e-07
0.115708
-1.87557
-3.30955e-07
0.115709
-1.87559
-4.88663e-07
0.115709
-1.87559
-6.29353e-07
0.115709
-1.87559
-7.50433e-07
0.11571
-1.87559
-8.46304e-07
0.11571
-1.87559
-9.17918e-07
0.115711
-1.87559
-9.62817e-07
0.115711
-1.87559
-9.82715e-07
0.115712
-1.87559
-9.76978e-07
0.115713
-1.87559
-9.48231e-07
0.115713
-1.87559
-8.97471e-07
0.115714
-1.87559
-8.27729e-07
0.115714
-1.87559
-7.41505e-07
0.115715
-1.87559
-6.41987e-07
0.115715
-1.87559
-5.33699e-07
0.115715
-1.87559
-4.18321e-07
0.115715
-1.87559
-2.9435e-07
0.115715
-1.87559
-1.52321e-07
0.115715
-1.87559
0.115714
-1.87557
-7.27175e-08
0.0933525
-1.9085
-8.29216e-08
0.0933532
-1.90851
-1.23382e-07
0.0933536
-1.90851
-1.73217e-07
0.093354
-1.90851
-2.23053e-07
0.0933545
-1.90851
-2.76322e-07
0.0933551
-1.90851
-3.27943e-07
0.0933558
-1.90851
-3.78206e-07
0.0933565
-1.90851
-4.23032e-07
0.0933573
-1.90851
-4.60024e-07
0.093358
-1.90851
-4.86002e-07
0.0933588
-1.90851
-4.98076e-07
0.0933595
-1.90851
-4.93469e-07
0.0933601
-1.90851
-4.70336e-07
0.0933606
-1.90851
-4.29832e-07
0.093361
-1.90851
-3.71153e-07
0.0933613
-1.90851
-2.99206e-07
0.0933615
-1.90851
-2.08937e-07
0.0933617
-1.90851
-7.81454e-08
0.0933617
-1.90851
0.0933612
-1.90849
-1.66006e-07
0.0693251
-1.89735
-3.44003e-07
0.0693256
-1.89737
-5.36005e-07
0.0693259
-1.89737
-7.01242e-07
0.0693262
-1.89737
-8.3769e-07
0.0693265
-1.89737
-9.4942e-07
0.0693268
-1.89737
-1.03181e-06
0.0693272
-1.89737
-1.08496e-06
0.0693276
-1.89737
-1.10767e-06
0.0693281
-1.89737
-1.10058e-06
0.0693285
-1.89737
-1.06466e-06
0.0693289
-1.89737
-1.0025e-06
0.0693292
-1.89737
-9.17418e-07
0.0693296
-1.89737
-8.13539e-07
0.0693298
-1.89737
-6.98671e-07
0.06933
-1.89737
-5.75043e-07
0.0693301
-1.89737
-4.55666e-07
0.0693302
-1.89737
-3.38353e-07
0.0693303
-1.89737
-1.79831e-07
0.0693301
-1.89737
0.0693296
-1.89735
-8.20451e-08
-1.9047
-3.12656e-07
-1.90472
-4.96058e-07
-1.90472
-6.87323e-07
-1.90472
-8.28747e-07
-1.90472
-9.54364e-07
-1.90472
-1.05043e-06
-1.90472
-1.11995e-06
-1.90472
-1.15849e-06
-1.90472
-1.1651e-06
-1.90472
-1.13961e-06
-1.90472
-1.08216e-06
-1.90472
-9.98417e-07
-1.90472
-8.90844e-07
-1.90472
-7.72035e-07
-1.90472
-6.39365e-07
-1.90472
-5.30282e-07
-1.90472
-3.89516e-07
-1.90472
-2.68038e-07
-1.90472
-1.90471
-6.74496e-08
-0.00447285
-1.86579
-2.06209e-07
-0.00447279
-1.8658
-3.13025e-07
-0.00447298
-1.8658
-4.1085e-07
-0.00447316
-1.8658
-4.84055e-07
-0.00447341
-1.8658
-5.46414e-07
-0.0044737
-1.8658
-5.90411e-07
-0.00447402
-1.8658
-6.19961e-07
-0.00447435
-1.8658
-6.30849e-07
-0.00447469
-1.8658
-6.24934e-07
-0.00447502
-1.8658
-6.02823e-07
-0.00447534
-1.8658
-5.65609e-07
-0.00447564
-1.8658
-5.15723e-07
-0.00447591
-1.8658
-4.5589e-07
-0.00447614
-1.8658
-3.92033e-07
-0.00447633
-1.8658
-3.24502e-07
-0.00447648
-1.8658
-2.6479e-07
-0.00447659
-1.8658
-1.93527e-07
-0.0044767
-1.8658
-1.38825e-07
-0.00447671
-1.8658
-0.00447685
-1.86579
-1.7056e-07
-0.00618865
-1.86022
-3.31619e-07
-0.0061886
-1.86024
-4.86138e-07
-0.00618885
-1.86024
-6.16062e-07
-0.00618915
-1.86024
-7.20138e-07
-0.00618955
-1.86024
-7.99046e-07
-0.00619
-1.86024
-8.50032e-07
-0.0061905
-1.86024
-8.74599e-07
-0.00619102
-1.86024
-8.74142e-07
-0.00619156
-1.86024
-8.50888e-07
-0.00619209
-1.86024
-8.07205e-07
-0.00619259
-1.86024
-7.46036e-07
-0.00619306
-1.86024
-6.71349e-07
-0.00619349
-1.86024
-5.867e-07
-0.00619386
-1.86024
-4.96339e-07
-0.00619418
-1.86024
-4.02025e-07
-0.00619444
-1.86024
-3.06195e-07
-0.00619464
-1.86024
-2.11717e-07
-0.00619481
-1.86024
-1.09794e-07
-0.00619489
-1.86024
-0.00619509
-1.86022
1.2148e-07
-0.00765052
-1.86807
2.66984e-07
-0.00765043
-1.86809
3.89289e-07
-0.00765052
-1.86809
4.94352e-07
-0.00765063
-1.86809
5.73246e-07
-0.00765078
-1.86809
6.26258e-07
-0.00765095
-1.86809
6.51613e-07
-0.00765115
-1.86809
6.53301e-07
-0.00765135
-1.86809
6.33097e-07
-0.00765156
-1.86809
5.97011e-07
-0.00765177
-1.86809
5.4832e-07
-0.00765197
-1.86809
4.92467e-07
-0.00765215
-1.86809
4.31868e-07
-0.00765232
-1.86809
3.70641e-07
-0.00765247
-1.86809
3.11152e-07
-0.00765258
-1.86809
2.53034e-07
-0.00765268
-1.86809
1.97862e-07
-0.00765274
-1.86809
1.39314e-07
-0.0076528
-1.86809
7.85481e-08
-0.00765281
-1.86809
-0.00765294
-1.86807
-1.15934e-07
-0.00203726
-1.85212
-2.17501e-07
-0.00203715
-1.85214
-3.11427e-07
-0.00203727
-1.85214
-3.92331e-07
-0.00203742
-1.85214
-4.58125e-07
-0.00203762
-1.85214
-5.06272e-07
-0.00203784
-1.85214
-5.37383e-07
-0.00203809
-1.85214
-5.51078e-07
-0.00203834
-1.85214
-5.49128e-07
-0.0020386
-1.85214
-5.32248e-07
-0.00203884
-1.85214
-5.03191e-07
-0.00203908
-1.85214
-4.63405e-07
-0.00203929
-1.85214
-4.15719e-07
-0.00203948
-1.85214
-3.61474e-07
-0.00203964
-1.85214
-3.01976e-07
-0.00203977
-1.85214
-2.39335e-07
-0.00203988
-1.85214
-1.73061e-07
-0.00203996
-1.85214
-1.10384e-07
-0.00204002
-1.85214
-5.55118e-08
-0.00204005
-1.85214
-0.00204021
-1.85212
8.6187e-08
0.00349096
-1.85666
1.89447e-07
0.00349111
-1.85668
2.8099e-07
0.00349107
-1.85668
3.55919e-07
0.00349103
-1.85668
4.1312e-07
0.00349096
-1.85668
4.51374e-07
0.00349089
-1.85668
4.69772e-07
0.00349081
-1.85668
4.7083e-07
0.00349073
-1.85668
4.56937e-07
0.00349064
-1.85668
4.31184e-07
0.00349056
-1.85668
3.9663e-07
0.00349048
-1.85668
3.57169e-07
0.0034904
-1.85668
3.15341e-07
0.00349033
-1.85668
2.73891e-07
0.00349027
-1.85668
2.34866e-07
0.00349022
-1.85668
1.97805e-07
0.00349018
-1.85668
1.62455e-07
0.00349015
-1.85668
1.23585e-07
0.00349012
-1.85668
7.05129e-08
0.0034901
-1.85668
0.00348994
-1.85666
-5.23959e-08
0.0140513
-1.84356
-9.70443e-08
0.0140515
-1.84358
-1.38103e-07
0.0140514
-1.84358
-1.72763e-07
0.0140513
-1.84358
-2.00585e-07
0.0140512
-1.84358
-2.21819e-07
0.0140511
-1.84358
-2.36135e-07
0.0140509
-1.84358
-2.43351e-07
0.0140507
-1.84358
-2.43812e-07
0.0140506
-1.84358
-2.38169e-07
0.0140504
-1.84358
-2.26091e-07
0.0140502
-1.84358
-2.09032e-07
0.01405
-1.84358
-1.87383e-07
0.0140499
-1.84358
-1.61885e-07
0.0140498
-1.84358
-1.32831e-07
0.0140496
-1.84358
-1.01039e-07
0.0140495
-1.84357
-6.85627e-08
0.0140494
-1.84357
-4.0087e-08
0.0140494
-1.84357
-1.79464e-08
0.0140493
-1.84357
0.0140491
-1.84356
3.69621e-08
0.0242932
-1.84589
8.89931e-08
0.0242934
-1.84591
1.34613e-07
0.0242934
-1.84591
1.71875e-07
0.0242933
-1.84591
1.99915e-07
0.0242933
-1.84591
2.18022e-07
0.0242932
-1.84591
2.26257e-07
0.0242931
-1.84591
2.24981e-07
0.024293
-1.84591
2.1478e-07
0.0242929
-1.84591
1.98503e-07
0.0242928
-1.84591
1.77246e-07
0.0242927
-1.84591
1.53134e-07
0.0242926
-1.84591
1.2809e-07
0.0242926
-1.84591
1.05546e-07
0.0242925
-1.84591
8.60026e-08
0.0242924
-1.84591
7.09966e-08
0.0242923
-1.84591
5.89523e-08
0.0242922
-1.84591
4.63442e-08
0.0242922
-1.84591
2.96897e-08
0.0242921
-1.84591
0.0242918
-1.84589
-1.81973e-08
0.0376153
-1.8396
-3.49441e-08
0.0376157
-1.83961
-5.03421e-08
0.0376156
-1.83961
-6.22265e-08
0.0376156
-1.83961
-7.15816e-08
0.0376156
-1.83961
-7.85274e-08
0.0376155
-1.83961
-8.40769e-08
0.0376155
-1.83961
-8.688e-08
0.0376154
-1.83961
-8.76463e-08
0.0376154
-1.83961
-8.77662e-08
0.0376153
-1.83961
-8.71759e-08
0.0376152
-1.83961
-8.44364e-08
0.0376152
-1.83961
-7.98317e-08
0.0376151
-1.83961
-7.20865e-08
0.037615
-1.83961
-6.2306e-08
0.037615
-1.83961
-5.01676e-08
0.0376149
-1.83961
-3.65578e-08
0.0376148
-1.83961
-2.479e-08
0.0376148
-1.83961
-1.26726e-08
0.0376147
-1.83961
0.0376143
-1.83959
-3.37077e-08
0.0438704
-1.82796
-5.43693e-08
0.0438708
-1.82798
-7.67257e-08
0.0438708
-1.82798
-9.74569e-08
0.0438708
-1.82798
-1.16483e-07
0.0438708
-1.82798
-1.33624e-07
0.0438709
-1.82798
-1.49337e-07
0.0438709
-1.82798
-1.63783e-07
0.0438709
-1.82798
-1.77207e-07
0.0438709
-1.82798
-1.88705e-07
0.0438709
-1.82798
-1.9829e-07
0.0438709
-1.82798
-2.0454e-07
0.0438709
-1.82798
-2.06842e-07
0.0438709
-1.82798
-2.03251e-07
0.0438709
-1.82798
-1.93041e-07
0.0438709
-1.82798
-1.72864e-07
0.0438708
-1.82798
-1.44044e-07
0.0438708
-1.82798
-1.05905e-07
0.0438708
-1.82798
-5.20502e-08
0.0438707
-1.82798
0.0438703
-1.82796
-1.29175e-08
0.0511822
-1.82846
-2.09194e-08
0.0511826
-1.82848
-2.84564e-08
0.0511827
-1.82848
-3.43691e-08
0.0511827
-1.82848
-3.9954e-08
0.0511828
-1.82848
-4.4968e-08
0.051183
-1.82848
-5.0238e-08
0.0511831
-1.82848
-5.59674e-08
0.0511832
-1.82848
-6.30479e-08
0.0511834
-1.82848
-7.06788e-08
0.0511835
-1.82848
-7.90289e-08
0.0511836
-1.82848
-8.60748e-08
0.0511837
-1.82848
-9.05703e-08
0.0511838
-1.82848
-9.1432e-08
0.0511839
-1.82848
-8.78225e-08
0.051184
-1.82848
-7.90708e-08
0.051184
-1.82848
-6.59515e-08
0.051184
-1.82848
-4.54537e-08
0.051184
-1.82848
-1.62321e-08
0.051184
-1.82848
0.0511836
-1.82846
-7.97562e-08
0.0578091
-1.8299
-1.55518e-07
0.0578096
-1.82991
-2.25861e-07
0.0578097
-1.82991
-2.8731e-07
0.0578098
-1.82991
-3.39809e-07
0.05781
-1.82991
-3.82384e-07
0.0578102
-1.82991
-4.15482e-07
0.0578104
-1.82991
-4.39441e-07
0.0578106
-1.82991
-4.5523e-07
0.0578108
-1.82991
-4.6291e-07
0.0578111
-1.82991
-4.6324e-07
0.0578113
-1.82991
-4.55773e-07
0.0578115
-1.82991
-4.41052e-07
0.0578117
-1.82991
-4.12581e-07
0.0578118
-1.82991
-3.75755e-07
0.0578119
-1.82991
-3.27671e-07
0.057812
-1.82992
-2.67722e-07
0.0578121
-1.82992
-1.91686e-07
0.0578121
-1.82992
-9.53816e-08
0.0578121
-1.82992
0.0578116
-1.8299
-3.21792e-08
0.063271
-1.83762
-4.69595e-08
0.0632716
-1.83764
-6.36554e-08
0.0632717
-1.83764
-8.01938e-08
0.0632719
-1.83764
-9.72807e-08
0.0632721
-1.83764
-1.14197e-07
0.0632724
-1.83764
-1.31875e-07
0.0632728
-1.83764
-1.49941e-07
0.0632731
-1.83764
-1.6853e-07
0.0632734
-1.83764
-1.86055e-07
0.0632738
-1.83764
-2.01756e-07
0.0632741
-1.83764
-2.12624e-07
0.0632744
-1.83764
-2.1725e-07
0.0632747
-1.83764
-2.13292e-07
0.0632749
-1.83764
-1.99103e-07
0.0632751
-1.83764
-1.74511e-07
0.0632752
-1.83764
-1.40404e-07
0.0632754
-1.83764
-9.31839e-08
0.0632754
-1.83764
-3.36336e-08
0.0632755
-1.83764
0.063275
-1.83762
-1.3326e-07
0.0679919
-1.83805
-2.66987e-07
0.0679924
-1.83806
-3.91081e-07
0.0679926
-1.83806
-4.97949e-07
0.0679928
-1.83806
-5.89769e-07
0.0679931
-1.83806
-6.63454e-07
0.0679934
-1.83806
-7.19836e-07
0.0679938
-1.83806
-7.57958e-07
0.0679942
-1.83806
-7.79322e-07
0.0679946
-1.83806
-7.836e-07
0.067995
-1.83806
-7.72505e-07
0.0679954
-1.83806
-7.45686e-07
0.0679957
-1.83806
-7.03986e-07
0.067996
-1.83806
-6.47025e-07
0.0679963
-1.83806
-5.75212e-07
0.0679965
-1.83806
-4.88188e-07
0.0679967
-1.83806
-3.86436e-07
0.0679968
-1.83806
-2.69789e-07
0.0679969
-1.83806
-1.35092e-07
0.0679969
-1.83806
0.0679964
-1.83805
-5.1455e-08
0.0688885
-1.85351
-7.37537e-08
0.0688891
-1.85352
-9.89875e-08
0.0688893
-1.85352
-1.26904e-07
0.0688895
-1.85352
-1.56114e-07
0.0688899
-1.85352
-1.85444e-07
0.0688903
-1.85352
-2.16382e-07
0.0688908
-1.85352
-2.44579e-07
0.0688913
-1.85352
-2.72477e-07
0.0688918
-1.85352
-2.96798e-07
0.0688923
-1.85352
-3.164e-07
0.0688928
-1.85352
-3.27354e-07
0.0688932
-1.85352
-3.27905e-07
0.0688936
-1.85352
-3.15033e-07
0.068894
-1.85352
-2.8774e-07
0.0688942
-1.85352
-2.45672e-07
0.0688945
-1.85352
-1.89632e-07
0.0688946
-1.85352
-1.20435e-07
0.0688947
-1.85352
-4.23338e-08
0.0688948
-1.85353
0.0688944
-1.85351
-1.79603e-07
0.0688809
-1.8516
-3.58501e-07
0.0688814
-1.85162
-5.2594e-07
0.0688816
-1.85162
-6.6711e-07
0.0688818
-1.85162
-7.90181e-07
0.0688822
-1.85162
-8.89202e-07
0.0688826
-1.85162
-9.65015e-07
0.068883
-1.85162
-1.01451e-06
0.0688835
-1.85162
-1.04009e-06
0.068884
-1.85162
-1.04042e-06
0.0688845
-1.85162
-1.01892e-06
0.0688849
-1.85162
-9.75013e-07
0.0688853
-1.85162
-9.11431e-07
0.0688857
-1.85162
-8.28512e-07
0.068886
-1.85162
-7.26795e-07
0.0688863
-1.85162
-6.07454e-07
0.0688865
-1.85162
-4.70151e-07
0.0688866
-1.85162
-3.23036e-07
0.0688867
-1.85162
-1.60365e-07
0.0688868
-1.85162
0.0688863
-1.8516
-6.13826e-08
0.0623751
-1.87399
-8.29579e-08
0.0623755
-1.87401
-1.12083e-07
0.0623757
-1.87401
-1.50553e-07
0.062376
-1.87401
-1.91917e-07
0.0623765
-1.87401
-2.33177e-07
0.062377
-1.87401
-2.75215e-07
0.0623776
-1.87401
-3.16336e-07
0.0623782
-1.87401
-3.54652e-07
0.0623788
-1.87401
-3.87436e-07
0.0623794
-1.87401
-4.11358e-07
0.06238
-1.87401
-4.23227e-07
0.0623805
-1.87401
-4.20617e-07
0.062381
-1.87401
-4.00569e-07
0.0623814
-1.87401
-3.61885e-07
0.0623818
-1.87401
-3.08517e-07
0.062382
-1.87401
-2.37832e-07
0.0623822
-1.87401
-1.49563e-07
0.0623823
-1.87401
-5.39598e-08
0.0623824
-1.87401
0.0623821
-1.87399
-2.44298e-07
0.0547594
-1.86795
-4.80368e-07
0.0547597
-1.86797
-7.00222e-07
0.0547599
-1.86797
-8.98844e-07
0.0547601
-1.86797
-1.07068e-06
0.0547604
-1.86797
-1.20616e-06
0.0547607
-1.86797
-1.30804e-06
0.0547611
-1.86797
-1.37193e-06
0.0547615
-1.86797
-1.40098e-06
0.0547619
-1.86797
-1.39402e-06
0.0547623
-1.86797
-1.35537e-06
0.0547627
-1.86797
-1.28625e-06
0.0547631
-1.86797
-1.19092e-06
0.0547634
-1.86797
-1.07247e-06
0.0547637
-1.86797
-9.33836e-07
0.0547639
-1.86797
-7.8029e-07
0.054764
-1.86797
-6.10715e-07
0.0547641
-1.86797
-4.22457e-07
0.0547642
-1.86797
-2.13798e-07
0.0547642
-1.86797
0.0547639
-1.86795
-7.30925e-08
0.0374932
-1.89123
-1.05103e-07
0.0374934
-1.89125
-1.54799e-07
0.0374937
-1.89125
-2.08042e-07
0.037494
-1.89125
-2.60204e-07
0.0374944
-1.89125
-3.16272e-07
0.0374949
-1.89125
-3.70569e-07
0.0374955
-1.89125
-4.22241e-07
0.0374961
-1.89125
-4.68285e-07
0.0374968
-1.89125
-5.04994e-07
0.0374974
-1.89125
-5.29089e-07
0.037498
-1.89125
-5.36558e-07
0.0374986
-1.89125
-5.25647e-07
0.0374991
-1.89125
-4.93733e-07
0.0374995
-1.89125
-4.43497e-07
0.0374999
-1.89125
-3.73695e-07
0.0375002
-1.89125
-2.91717e-07
0.0375004
-1.89125
-1.98662e-07
0.0375005
-1.89125
-8.58202e-08
0.0375006
-1.89125
0.0375006
-1.89123
-3.17895e-07
0.0192653
-1.87912
-6.54744e-07
0.0192653
-1.87914
-9.80591e-07
0.0192655
-1.87914
-1.26336e-06
0.0192656
-1.87914
-1.49851e-06
0.0192657
-1.87914
-1.68668e-06
0.0192658
-1.87914
-1.82273e-06
0.019266
-1.87914
-1.90546e-06
0.0192661
-1.87914
-1.9351e-06
0.0192663
-1.87914
-1.91332e-06
0.0192664
-1.87914
-1.84424e-06
0.0192666
-1.87914
-1.73284e-06
0.0192667
-1.87914
-1.58726e-06
0.0192669
-1.87914
-1.41357e-06
0.0192669
-1.87914
-1.22223e-06
0.019267
-1.87914
-1.0151e-06
0.019267
-1.87914
-8.06426e-07
0.019267
-1.87914
-5.89923e-07
0.019267
-1.87914
-3.2687e-07
0.0192669
-1.87914
0.0192668
-1.87912
-2.43157e-07
-1.88544
-3.86783e-07
-1.88545
-6.07307e-07
-1.88545
-8.05725e-07
-1.88545
-9.67467e-07
-1.88545
-1.11066e-06
-1.88545
-1.22258e-06
-1.88545
-1.30362e-06
-1.88545
-1.34923e-06
-1.88545
-1.35581e-06
-1.88545
-1.3265e-06
-1.88545
-1.25886e-06
-1.88545
-1.15938e-06
-1.88545
-1.03241e-06
-1.88545
-8.92331e-07
-1.88545
-7.36396e-07
-1.88545
-5.86907e-07
-1.88545
-4.26305e-07
-1.88545
-1.58996e-07
-1.88545
-1.88544
-1.05708e-07
0.00121015
-1.867
-2.45158e-07
0.0012104
-1.86701
-2.94305e-07
0.0012105
-1.86701
-3.68606e-07
0.00121068
-1.86701
-4.26143e-07
0.00121088
-1.86701
-4.79404e-07
0.00121113
-1.86701
-5.16874e-07
0.0012114
-1.86702
-5.41613e-07
0.00121169
-1.86702
-5.50849e-07
0.00121199
-1.86702
-5.44846e-07
0.00121229
-1.86702
-5.24592e-07
0.00121258
-1.86702
-4.905e-07
0.00121285
-1.86702
-4.44797e-07
0.0012131
-1.86702
-3.89486e-07
0.00121333
-1.86702
-3.29806e-07
0.00121354
-1.86702
-2.61314e-07
0.00121372
-1.86702
-1.95044e-07
0.00121388
-1.86702
-8.73004e-08
0.00121398
-1.86702
-6.48845e-08
0.00121408
-1.86702
0.00121395
-1.867
-1.93576e-07
-0.000426612
-1.85858
-2.69037e-07
-0.000426466
-1.8586
-3.51473e-07
-0.000426374
-1.8586
-4.30266e-07
-0.000426191
-1.8586
-4.99452e-07
-0.000425992
-1.8586
-5.54649e-07
-0.000425745
-1.8586
-5.91882e-07
-0.00042548
-1.8586
-6.10615e-07
-0.000425193
-1.8586
-6.11967e-07
-0.000424894
-1.8586
-5.97527e-07
-0.00042459
-1.8586
-5.69159e-07
-0.00042429
-1.8586
-5.27519e-07
-0.000424002
-1.8586
-4.73363e-07
-0.000423731
-1.8586
-4.11784e-07
-0.000423473
-1.8586
-3.45429e-07
-0.000423231
-1.8586
-2.73665e-07
-0.000423019
-1.8586
-1.92565e-07
-0.000422828
-1.8586
-1.01218e-07
-0.000422694
-1.8586
-1.49716e-09
-0.000422558
-1.8586
-0.000422577
-1.85858
2.7742e-08
-0.00308185
-1.86541
1.40818e-07
-0.00308179
-1.86543
2.22239e-07
-0.00308175
-1.86543
2.97034e-07
-0.00308167
-1.86543
3.52947e-07
-0.00308159
-1.86543
3.92988e-07
-0.00308149
-1.86543
4.14731e-07
-0.00308137
-1.86543
4.2143e-07
-0.00308125
-1.86543
4.14756e-07
-0.00308113
-1.86543
3.99358e-07
-0.003081
-1.86543
3.76725e-07
-0.00308087
-1.86543
3.49207e-07
-0.00308075
-1.86543
3.16376e-07
-0.00308063
-1.86543
2.82664e-07
-0.00308051
-1.86543
2.50262e-07
-0.00308041
-1.86543
2.18118e-07
-0.00308031
-1.86543
1.87827e-07
-0.00308022
-1.86543
1.46659e-07
-0.00308016
-1.86543
1.17404e-07
-0.00308009
-1.86543
-0.00308008
-1.86541
-1.37047e-07
0.00165172
-1.85685
-2.30929e-07
0.0016518
-1.85687
-3.23178e-07
0.00165182
-1.85687
-4.0566e-07
0.00165186
-1.85687
-4.76524e-07
0.0016519
-1.85687
-5.30727e-07
0.00165196
-1.85687
-5.69023e-07
0.00165202
-1.85687
-5.8985e-07
0.00165208
-1.85687
-5.94288e-07
0.00165215
-1.85687
-5.82399e-07
0.00165223
-1.85687
-5.56493e-07
0.00165231
-1.85687
-5.17727e-07
0.00165239
-1.85687
-4.68726e-07
0.00165247
-1.85687
-4.11196e-07
0.00165254
-1.85687
-3.45762e-07
0.00165261
-1.85687
-2.74561e-07
0.00165268
-1.85687
-1.94265e-07
0.00165274
-1.85687
-1.14732e-07
0.00165278
-1.85687
-4.34975e-08
0.00165282
-1.85687
0.00165278
-1.85685
5.89275e-08
0.00584401
-1.86085
1.53809e-07
0.00584411
-1.86087
2.3509e-07
0.0058441
-1.86087
3.02728e-07
0.0058441
-1.86087
3.54626e-07
0.00584408
-1.86087
3.90941e-07
0.00584407
-1.86087
4.11013e-07
0.00584405
-1.86087
4.16898e-07
0.00584403
-1.86087
4.09852e-07
0.00584402
-1.86087
3.94018e-07
0.00584401
-1.86087
3.70692e-07
0.005844
-1.86087
3.4325e-07
0.00584399
-1.86087
3.13475e-07
0.00584398
-1.86087
2.83545e-07
0.00584397
-1.86087
2.54323e-07
0.00584397
-1.86087
2.25839e-07
0.00584397
-1.86087
1.95831e-07
0.00584396
-1.86087
1.55681e-07
0.00584395
-1.86087
1.00105e-07
0.00584394
-1.86087
0.00584384
-1.86085
-5.86427e-08
0.0154983
-1.85321
-1.0236e-07
0.0154984
-1.85323
-1.4527e-07
0.0154984
-1.85323
-1.79904e-07
0.0154983
-1.85323
-2.09673e-07
0.0154983
-1.85323
-2.33268e-07
0.0154982
-1.85323
-2.50439e-07
0.0154981
-1.85323
-2.60171e-07
0.015498
-1.85323
-2.62812e-07
0.0154979
-1.85323
-2.58143e-07
0.0154978
-1.85323
-2.47254e-07
0.0154977
-1.85323
-2.30081e-07
0.0154976
-1.85323
-2.07869e-07
0.0154976
-1.85323
-1.80421e-07
0.0154975
-1.85323
-1.48048e-07
0.0154974
-1.85323
-1.11272e-07
0.0154973
-1.85323
-7.06511e-08
0.0154973
-1.85323
-3.70576e-08
0.0154972
-1.85323
-1.18382e-08
0.0154972
-1.85323
0.015497
-1.85321
3.73813e-08
0.0249078
-1.8553
9.79826e-08
0.024908
-1.85532
1.50464e-07
0.024908
-1.85532
1.94824e-07
0.024908
-1.85532
2.29153e-07
0.0249079
-1.85532
2.52935e-07
0.0249078
-1.85532
2.67083e-07
0.0249078
-1.85532
2.70729e-07
0.0249077
-1.85532
2.65058e-07
0.0249076
-1.85532
2.52716e-07
0.0249076
-1.85532
2.34564e-07
0.0249075
-1.85532
2.12964e-07
0.0249074
-1.85532
1.89929e-07
0.0249073
-1.85532
1.67461e-07
0.0249072
-1.85532
1.47079e-07
0.0249072
-1.85532
1.29029e-07
0.0249071
-1.85532
1.11325e-07
0.024907
-1.85532
8.77267e-08
0.024907
-1.85532
5.67251e-08
0.0249069
-1.85532
0.0249066
-1.8553
-1.8679e-08