/*--------------------------------*- C++ -*----------------------------------*\
| =========                 |                                                 |
| \\      /  F ield         | OpenFOAM: The Open Source CFD Toolbox           |
|  \\    /   O peration     | Version:  2212                                  |
|   \\  /    A nd           | Website:  www.openfoam.com                      |
|    \\/     M anipulation  |                                                 |
\*---------------------------------------------------------------------------*/
FoamFile
{
    version     2.0;
    format      ascii;
    arch        "LSB;label=32;scalar=64";
    class       volScalarField;
    location    "1.2e-05";
    object      p;
}
// * * * * * * * * * * * * * * * * * * * * * * * * * * * * * * * * * * * * * //

dimensions      [1 -1 -2 0 0 0 0];

internalField   nonuniform List<scalar> 
26145
(
306334
282776
304563
313930
330416
345806
364625
384115
405442
426836
450431
472989
497072
519637
544030
568953
599312
631362
667547
702869
739078
774691
810990
847534
885205
921744
954556
981621
1.00233e+06
1.01673e+06
1.02532e+06
1.02986e+06
1.03213e+06
1.0332e+06
1.03368e+06
1.03388e+06
1.03395e+06
1.03398e+06
1.03399e+06
1.034e+06
1.034e+06
1.034e+06
1.034e+06
1.034e+06
1.034e+06
1.034e+06
1.034e+06
1.034e+06
1.034e+06
1.034e+06
1.034e+06
1.034e+06
1.034e+06
1.034e+06
1.034e+06
1.034e+06
1.034e+06
1.034e+06
1.034e+06
1.034e+06
1.034e+06
1.034e+06
1.034e+06
1.034e+06
1.034e+06
1.034e+06
1.034e+06
1.034e+06
1.034e+06
1.034e+06
1.034e+06
1.034e+06
318534
286245
308991
318990
335995
350694
370771
389627
412289
433270
457995
480532
505970
528781
554346
578467
610007
641518
678650
713336
750047
785635
822869
859974
897190
932137
963092
988202
1.00701e+06
1.01975e+06
1.027e+06
1.03073e+06
1.03255e+06
1.03339e+06
1.03376e+06
1.03391e+06
1.03397e+06
1.03399e+06
1.03399e+06
1.034e+06
1.034e+06
1.034e+06
1.034e+06
1.034e+06
1.034e+06
1.034e+06
1.034e+06
1.034e+06
1.034e+06
1.034e+06
1.034e+06
1.034e+06
1.034e+06
1.034e+06
1.034e+06
1.034e+06
1.034e+06
1.034e+06
1.034e+06
1.034e+06
1.034e+06
1.034e+06
1.034e+06
1.034e+06
1.034e+06
1.034e+06
1.034e+06
1.034e+06
1.034e+06
1.034e+06
1.034e+06
1.034e+06
318740
286340
309032
319021
336146
350826
371186
389865
412720
434024
458404
481158
506329
529808
555108
579713
610864
642678
679691
714607
751462
787045
824198
860938
897757
932330
963061
988046
1.00681e+06
1.01955e+06
1.02686e+06
1.03065e+06
1.03251e+06
1.03337e+06
1.03375e+06
1.03391e+06
1.03396e+06
1.03399e+06
1.03399e+06
1.034e+06
1.034e+06
1.034e+06
1.034e+06
1.034e+06
1.034e+06
1.034e+06
1.034e+06
1.034e+06
1.034e+06
1.034e+06
1.034e+06
1.034e+06
1.034e+06
1.034e+06
1.034e+06
1.034e+06
1.034e+06
1.034e+06
1.034e+06
1.034e+06
1.034e+06
1.034e+06
1.034e+06
1.034e+06
1.034e+06
1.034e+06
1.034e+06
1.034e+06
1.034e+06
1.034e+06
1.034e+06
1.034e+06
322484
288938
312243
322445
339892
354827
375605
394524
417867
439282
464221
486827
512848
536330
562206
586602
618312
649912
687527
722637
760101
795840
833031
869316
905402
938975
968463
992102
1.00961e+06
1.02126e+06
1.02777e+06
1.0311e+06
1.03272e+06
1.03347e+06
1.03379e+06
1.03392e+06
1.03397e+06
1.03399e+06
1.034e+06
1.034e+06
1.034e+06
1.034e+06
1.034e+06
1.034e+06
1.034e+06
1.034e+06
1.034e+06
1.034e+06
1.034e+06
1.034e+06
1.034e+06
1.034e+06
1.034e+06
1.034e+06
1.034e+06
1.034e+06
1.034e+06
1.034e+06
1.034e+06
1.034e+06
1.034e+06
1.034e+06
1.034e+06
1.034e+06
1.034e+06
1.034e+06
1.034e+06
1.034e+06
1.034e+06
1.034e+06
1.034e+06
1.034e+06
323710
289975
313460
323749
341348
356406
377382
396132
419620
440813
465760
488359
514355
537980
563894
588382
620222
651863
689676
724742
762252
797748
834656
870454
906011
939120
968351
991860
1.00933e+06
1.02102e+06
1.02763e+06
1.03102e+06
1.03268e+06
1.03345e+06
1.03378e+06
1.03392e+06
1.03397e+06
1.03399e+06
1.03399e+06
1.034e+06
1.034e+06
1.034e+06
1.034e+06
1.034e+06
1.034e+06
1.034e+06
1.034e+06
1.034e+06
1.034e+06
1.034e+06
1.034e+06
1.034e+06
1.034e+06
1.034e+06
1.034e+06
1.034e+06
1.034e+06
1.034e+06
1.034e+06
1.034e+06
1.034e+06
1.034e+06
1.034e+06
1.034e+06
1.034e+06
1.034e+06
1.034e+06
1.034e+06
1.034e+06
1.034e+06
1.034e+06
1.034e+06
326096
291834
316108
326741
344760
360136
381501
400350
424032
445120
470253
492931
519196
542970
569187
593856
626121
657977
696215
731396
769032
804268
840826
876094
911030
943350
971650
994222
1.01087e+06
1.02191e+06
1.02808e+06
1.03124e+06
1.03278e+06
1.03349e+06
1.0338e+06
1.03392e+06
1.03397e+06
1.03399e+06
1.034e+06
1.034e+06
1.034e+06
1.034e+06
1.034e+06
1.034e+06
1.034e+06
1.034e+06
1.034e+06
1.034e+06
1.034e+06
1.034e+06
1.034e+06
1.034e+06
1.034e+06
1.034e+06
1.034e+06
1.034e+06
1.034e+06
1.034e+06
1.034e+06
1.034e+06
1.034e+06
1.034e+06
1.034e+06
1.034e+06
1.034e+06
1.034e+06
1.034e+06
1.034e+06
1.034e+06
1.034e+06
1.034e+06
1.034e+06
327707
293313
317571
328194
346181
361524
382795
401623
425331
446413
471747
494504
521056
544962
571426
596171
628623
660379
698575
733467
770877
805791
842003
876830
911317
943330
971475
993992
1.01065e+06
1.02174e+06
1.02798e+06
1.03119e+06
1.03276e+06
1.03348e+06
1.03379e+06
1.03392e+06
1.03397e+06
1.03399e+06
1.034e+06
1.034e+06
1.034e+06
1.034e+06
1.034e+06
1.034e+06
1.034e+06
1.034e+06
1.034e+06
1.034e+06
1.034e+06
1.034e+06
1.034e+06
1.034e+06
1.034e+06
1.034e+06
1.034e+06
1.034e+06
1.034e+06
1.034e+06
1.034e+06
1.034e+06
1.034e+06
1.034e+06
1.034e+06
1.034e+06
1.034e+06
1.034e+06
1.034e+06
1.034e+06
1.034e+06
1.034e+06
1.034e+06
1.034e+06
330119
295240
320010
330852
348993
364351
385496
404327
428107
449261
474969
497980
525058
549302
576230
601234
634012
665788
703965
738548
775687
810201
845979
880318
914287
945732
973282
995245
1.01144e+06
1.02219e+06
1.02821e+06
1.0313e+06
1.0328e+06
1.0335e+06
1.0338e+06
1.03393e+06
1.03397e+06
1.03399e+06
1.034e+06
1.034e+06
1.034e+06
1.034e+06
1.034e+06
1.034e+06
1.034e+06
1.034e+06
1.034e+06
1.034e+06
1.034e+06
1.034e+06
1.034e+06
1.034e+06
1.034e+06
1.034e+06
1.034e+06
1.034e+06
1.034e+06
1.034e+06
1.034e+06
1.034e+06
1.034e+06
1.034e+06
1.034e+06
1.034e+06
1.034e+06
1.034e+06
1.034e+06
1.034e+06
1.034e+06
1.034e+06
1.034e+06
1.034e+06
331159
296220
320899
331712
349925
365433
386830
405867
429818
451062
476909
499987
527161
551425
578373
603307
635993
667560
705538
739897
776848
811165
846724
880818
914535
945779
973235
995166
1.01136e+06
1.02213e+06
1.02817e+06
1.03128e+06
1.0328e+06
1.0335e+06
1.0338e+06
1.03393e+06
1.03397e+06
1.03399e+06
1.034e+06
1.034e+06
1.034e+06
1.034e+06
1.034e+06
1.034e+06
1.034e+06
1.034e+06
1.034e+06
1.034e+06
1.034e+06
1.034e+06
1.034e+06
1.034e+06
1.034e+06
1.034e+06
1.034e+06
1.034e+06
1.034e+06
1.034e+06
1.034e+06
1.034e+06
1.034e+06
1.034e+06
1.034e+06
1.034e+06
1.034e+06
1.034e+06
1.034e+06
1.034e+06
1.034e+06
1.034e+06
1.034e+06
1.034e+06
332471
297299
322328
333312
351775
367589
389340
408677
432998
454501
480632
503866
531259
555574
582594
607441
640015
671302
709001
743043
779718
813748
848997
882762
916138
947056
974196
995840
1.01179e+06
1.02237e+06
1.0283e+06
1.03134e+06
1.03283e+06
1.03351e+06
1.03381e+06
1.03393e+06
1.03397e+06
1.03399e+06
1.034e+06
1.034e+06
1.034e+06
1.034e+06
1.034e+06
1.034e+06
1.034e+06
1.034e+06
1.034e+06
1.034e+06
1.034e+06
1.034e+06
1.034e+06
1.034e+06
1.034e+06
1.034e+06
1.034e+06
1.034e+06
1.034e+06
1.034e+06
1.034e+06
1.034e+06
1.034e+06
1.034e+06
1.034e+06
1.034e+06
1.034e+06
1.034e+06
1.034e+06
1.034e+06
1.034e+06
1.034e+06
1.034e+06
1.034e+06
333349
298202
323364
334431
353116
369099
390995
410339
434610
456055
482126
505313
532666
556951
583942
608739
641242
672423
709993
743914
780485
814421
849556
883190
916427
947237
974309
995909
1.01183e+06
1.02239e+06
1.02831e+06
1.03135e+06
1.03283e+06
1.03351e+06
1.03381e+06
1.03393e+06
1.03397e+06
1.03399e+06
1.034e+06
1.034e+06
1.034e+06
1.034e+06
1.034e+06
1.034e+06
1.034e+06
1.034e+06
1.034e+06
1.034e+06
1.034e+06
1.034e+06
1.034e+06
1.034e+06
1.034e+06
1.034e+06
1.034e+06
1.034e+06
1.034e+06
1.034e+06
1.034e+06
1.034e+06
1.034e+06
1.034e+06
1.034e+06
1.034e+06
1.034e+06
1.034e+06
1.034e+06
1.034e+06
1.034e+06
1.034e+06
1.034e+06
1.034e+06
334654
299278
324892
336173
355245
371513
393787
413415
437792
459193
485141
508245
535523
559746
586681
611375
643761
674748
712110
745824
782224
815996
850956
884398
917438
948057
974949
996372
1.01214e+06
1.02256e+06
1.0284e+06
1.03139e+06
1.03285e+06
1.03352e+06
1.03381e+06
1.03393e+06
1.03397e+06
1.03399e+06
1.034e+06
1.034e+06
1.034e+06
1.034e+06
1.034e+06
1.034e+06
1.034e+06
1.034e+06
1.034e+06
1.034e+06
1.034e+06
1.034e+06
1.034e+06
1.034e+06
1.034e+06
1.034e+06
1.034e+06
1.034e+06
1.034e+06
1.034e+06
1.034e+06
1.034e+06
1.034e+06
1.034e+06
1.034e+06
1.034e+06
1.034e+06
1.034e+06
1.034e+06
1.034e+06
1.034e+06
1.034e+06
1.034e+06
1.034e+06
336049
300561
326434
337818
356960
373159
395282
414793
439042
460376
486232
509293
536540
560742
587641
612294
644607
675494
712760
746389
782740
816467
851372
884740
917704
948259
975104
996487
1.01221e+06
1.02261e+06
1.02842e+06
1.03141e+06
1.03286e+06
1.03353e+06
1.03381e+06
1.03393e+06
1.03397e+06
1.03399e+06
1.034e+06
1.034e+06
1.034e+06
1.034e+06
1.034e+06
1.034e+06
1.034e+06
1.034e+06
1.034e+06
1.034e+06
1.034e+06
1.034e+06
1.034e+06
1.034e+06
1.034e+06
1.034e+06
1.034e+06
1.034e+06
1.034e+06
1.034e+06
1.034e+06
1.034e+06
1.034e+06
1.034e+06
1.034e+06
1.034e+06
1.034e+06
1.034e+06
1.034e+06
1.034e+06
1.034e+06
1.034e+06
1.034e+06
1.034e+06
338181
302235
328661
340280
359778
376172
398411
417759
441730
462920
488552
511508
538668
562798
589618
614167
646328
677015
714107
747574
783818
817450
852266
885522
918365
948798
975527
996792
1.01241e+06
1.02272e+06
1.02848e+06
1.03143e+06
1.03287e+06
1.03353e+06
1.03382e+06
1.03393e+06
1.03397e+06
1.03399e+06
1.034e+06
1.034e+06
1.034e+06
1.034e+06
1.034e+06
1.034e+06
1.034e+06
1.034e+06
1.034e+06
1.034e+06
1.034e+06
1.034e+06
1.034e+06
1.034e+06
1.034e+06
1.034e+06
1.034e+06
1.034e+06
1.034e+06
1.034e+06
1.034e+06
1.034e+06
1.034e+06
1.034e+06
1.034e+06
1.034e+06
1.034e+06
1.034e+06
1.034e+06
1.034e+06
1.034e+06
1.034e+06
1.034e+06
1.034e+06
340230
304035
330447
342032
361371
377609
399640
418890
442688
463766
489245
512118
539210
563318
590113
614652
646771
677398
714446
747871
784112
817741
852545
885762
918559
948952
975656
996892
1.01248e+06
1.02275e+06
1.0285e+06
1.03144e+06
1.03288e+06
1.03353e+06
1.03382e+06
1.03393e+06
1.03397e+06
1.03399e+06
1.034e+06
1.034e+06
1.034e+06
1.034e+06
1.034e+06
1.034e+06
1.034e+06
1.034e+06
1.034e+06
1.034e+06
1.034e+06
1.034e+06
1.034e+06
1.034e+06
1.034e+06
1.034e+06
1.034e+06
1.034e+06
1.034e+06
1.034e+06
1.034e+06
1.034e+06
1.034e+06
1.034e+06
1.034e+06
1.034e+06
1.034e+06
1.034e+06
1.034e+06
1.034e+06
1.034e+06
1.034e+06
1.034e+06
1.034e+06
342889
306214
333021
344770
364149
380325
402175
421262
444776
465645
490787
513470
540400
564432
591184
615674
647738
678266
715205
748556
784791
818411
853193
886339
919045
949343
975960
997109
1.01261e+06
1.02283e+06
1.02853e+06
1.03146e+06
1.03289e+06
1.03354e+06
1.03382e+06
1.03393e+06
1.03397e+06
1.03399e+06
1.034e+06
1.034e+06
1.034e+06
1.034e+06
1.034e+06
1.034e+06
1.034e+06
1.034e+06
1.034e+06
1.034e+06
1.034e+06
1.034e+06
1.034e+06
1.034e+06
1.034e+06
1.034e+06
1.034e+06
1.034e+06
1.034e+06
1.034e+06
1.034e+06
1.034e+06
1.034e+06
1.034e+06
1.034e+06
1.034e+06
1.034e+06
1.034e+06
1.034e+06
1.034e+06
1.034e+06
1.034e+06
1.034e+06
1.034e+06
344600
307684
334258
345890
365065
381125
402795
421759
445085
465857
490911
513584
540545
564626
591421
615929
648022
678529
715444
748798
785074
818729
853530
886658
919327
949585
976167
997270
1.01272e+06
1.02289e+06
1.02857e+06
1.03148e+06
1.03289e+06
1.03354e+06
1.03382e+06
1.03393e+06
1.03398e+06
1.03399e+06
1.034e+06
1.034e+06
1.034e+06
1.034e+06
1.034e+06
1.034e+06
1.034e+06
1.034e+06
1.034e+06
1.034e+06
1.034e+06
1.034e+06
1.034e+06
1.034e+06
1.034e+06
1.034e+06
1.034e+06
1.034e+06
1.034e+06
1.034e+06
1.034e+06
1.034e+06
1.034e+06
1.034e+06
1.034e+06
1.034e+06
1.034e+06
1.034e+06
1.034e+06
1.034e+06
1.034e+06
1.034e+06
1.034e+06
1.034e+06
346174
308932
335561
347207
366301
382287
403788
422616
445711
466318
491190
513843
540865
564993
591849
616395
648513
679014
715935
749297
785616
819298
854100
887179
919776
949956
976466
997490
1.01287e+06
1.02297e+06
1.02861e+06
1.0315e+06
1.0329e+06
1.03355e+06
1.03382e+06
1.03393e+06
1.03398e+06
1.03399e+06
1.034e+06
1.034e+06
1.034e+06
1.034e+06
1.034e+06
1.034e+06
1.034e+06
1.034e+06
1.034e+06
1.034e+06
1.034e+06
1.034e+06
1.034e+06
1.034e+06
1.034e+06
1.034e+06
1.034e+06
1.034e+06
1.034e+06
1.034e+06
1.034e+06
1.034e+06
1.034e+06
1.034e+06
1.034e+06
1.034e+06
1.034e+06
1.034e+06
1.034e+06
1.034e+06
1.034e+06
1.034e+06
1.034e+06
1.034e+06
346974
309588
336077
347654
366634
382564
403985
422768
445770
466318
491162
513816
540901
565090
591995
616580
648743
679258
716197
749588
785969
819703
854529
887590
920141
950270
976728
997689
1.013e+06
1.02304e+06
1.02865e+06
1.03152e+06
1.03291e+06
1.03355e+06
1.03382e+06
1.03393e+06
1.03398e+06
1.03399e+06
1.034e+06
1.034e+06
1.034e+06
1.034e+06
1.034e+06
1.034e+06
1.034e+06
1.034e+06
1.034e+06
1.034e+06
1.034e+06
1.034e+06
1.034e+06
1.034e+06
1.034e+06
1.034e+06
1.034e+06
1.034e+06
1.034e+06
1.034e+06
1.034e+06
1.034e+06
1.034e+06
1.034e+06
1.034e+06
1.034e+06
1.034e+06
1.034e+06
1.034e+06
1.034e+06
1.034e+06
1.034e+06
1.034e+06
1.034e+06
347465
310010
336458
348022
366961
382867
404201
422912
445800
466305
491110
513765
540913
565180
592178
616830
649066
679613
716578
750001
786438
820218
855056
888085
920575
950636
977028
997914
1.01315e+06
1.02313e+06
1.02869e+06
1.03154e+06
1.03293e+06
1.03356e+06
1.03383e+06
1.03394e+06
1.03398e+06
1.03399e+06
1.034e+06
1.034e+06
1.034e+06
1.034e+06
1.034e+06
1.034e+06
1.034e+06
1.034e+06
1.034e+06
1.034e+06
1.034e+06
1.034e+06
1.034e+06
1.034e+06
1.034e+06
1.034e+06
1.034e+06
1.034e+06
1.034e+06
1.034e+06
1.034e+06
1.034e+06
1.034e+06
1.034e+06
1.034e+06
1.034e+06
1.034e+06
1.034e+06
1.034e+06
1.034e+06
1.034e+06
1.034e+06
1.034e+06
1.034e+06
347661
310194
336599
348156
367095
382999
404279
422944
445784
466270
491040
513690
540889
565203
592321
617035
649345
679925
716920
750385
786886
820722
855582
888588
921023
951021
977346
998155
1.01331e+06
1.02322e+06
1.02874e+06
1.03157e+06
1.03294e+06
1.03356e+06
1.03383e+06
1.03394e+06
1.03398e+06
1.03399e+06
1.034e+06
1.034e+06
1.034e+06
1.034e+06
1.034e+06
1.034e+06
1.034e+06
1.034e+06
1.034e+06
1.034e+06
1.034e+06
1.034e+06
1.034e+06
1.034e+06
1.034e+06
1.034e+06
1.034e+06
1.034e+06
1.034e+06
1.034e+06
1.034e+06
1.034e+06
1.034e+06
1.034e+06
1.034e+06
1.034e+06
1.034e+06
1.034e+06
1.034e+06
1.034e+06
1.034e+06
1.034e+06
1.034e+06
1.034e+06
347771
310280
336656
348202
367209
383118
404334
422959
445761
466210
490935
513599
540872
565276
592514
617295
649685
680302
717331
750840
787404
821294
856171
889150
921524
951450
977698
998419
1.01349e+06
1.02332e+06
1.02879e+06
1.03159e+06
1.03295e+06
1.03357e+06
1.03383e+06
1.03394e+06
1.03398e+06
1.03399e+06
1.034e+06
1.034e+06
1.034e+06
1.034e+06
1.034e+06
1.034e+06
1.034e+06
1.034e+06
1.034e+06
1.034e+06
1.034e+06
1.034e+06
1.034e+06
1.034e+06
1.034e+06
1.034e+06
1.034e+06
1.034e+06
1.034e+06
1.034e+06
1.034e+06
1.034e+06
1.034e+06
1.034e+06
1.034e+06
1.034e+06
1.034e+06
1.034e+06
1.034e+06
1.034e+06
1.034e+06
1.034e+06
1.034e+06
1.034e+06
347870
310323
336661
348174
367292
383173
404345
422970
445744
466123
490813
513499
540863
565356
592690
617540
650008
680664
717734
751286
787917
821860
856757
889709
922024
951878
978048
998681
1.01366e+06
1.02342e+06
1.02884e+06
1.03162e+06
1.03296e+06
1.03357e+06
1.03383e+06
1.03394e+06
1.03398e+06
1.03399e+06
1.034e+06
1.034e+06
1.034e+06
1.034e+06
1.034e+06
1.034e+06
1.034e+06
1.034e+06
1.034e+06
1.034e+06
1.034e+06
1.034e+06
1.034e+06
1.034e+06
1.034e+06
1.034e+06
1.034e+06
1.034e+06
1.034e+06
1.034e+06
1.034e+06
1.034e+06
1.034e+06
1.034e+06
1.034e+06
1.034e+06
1.034e+06
1.034e+06
1.034e+06
1.034e+06
1.034e+06
1.034e+06
1.034e+06
1.034e+06
347945
310336
336648
348134
367307
383204
404346
422975
445705
466011
490674
513392
540841
565407
592856
617784
650339
681035
718145
751738
788436
822431
857346
890267
922519
952297
978389
998935
1.01383e+06
1.02351e+06
1.02889e+06
1.03164e+06
1.03297e+06
1.03358e+06
1.03384e+06
1.03394e+06
1.03398e+06
1.03399e+06
1.034e+06
1.034e+06
1.034e+06
1.034e+06
1.034e+06
1.034e+06
1.034e+06
1.034e+06
1.034e+06
1.034e+06
1.034e+06
1.034e+06
1.034e+06
1.034e+06
1.034e+06
1.034e+06
1.034e+06
1.034e+06
1.034e+06
1.034e+06
1.034e+06
1.034e+06
1.034e+06
1.034e+06
1.034e+06
1.034e+06
1.034e+06
1.034e+06
1.034e+06
1.034e+06
1.034e+06
1.034e+06
1.034e+06
1.034e+06
347980
310312
336657
348170
367287
383197
404368
422966
445610
465866
490516
513272
540799
565438
593016
618024
650661
681391
718541
752173
788941
822987
857922
890810
922997
952699
978715
999175
1.01399e+06
1.0236e+06
1.02894e+06
1.03167e+06
1.03299e+06
1.03358e+06
1.03384e+06
1.03394e+06
1.03398e+06
1.03399e+06
1.034e+06
1.034e+06
1.034e+06
1.034e+06
1.034e+06
1.034e+06
1.034e+06
1.034e+06
1.034e+06
1.034e+06
1.034e+06
1.034e+06
1.034e+06
1.034e+06
1.034e+06
1.034e+06
1.034e+06
1.034e+06
1.034e+06
1.034e+06
1.034e+06
1.034e+06
1.034e+06
1.034e+06
1.034e+06
1.034e+06
1.034e+06
1.034e+06
1.034e+06
1.034e+06
1.034e+06
1.034e+06
1.034e+06
1.034e+06
347985
310238
336665
348223
367266
383179
404370
422935
445499
465707
490336
513127
540765
565495
593181
618262
650978
681745
718935
752606
789444
823540
858491
891343
923464
953090
979029
999407
1.01414e+06
1.02369e+06
1.02898e+06
1.03169e+06
1.033e+06
1.03359e+06
1.03384e+06
1.03394e+06
1.03398e+06
1.03399e+06
1.034e+06
1.034e+06
1.034e+06
1.034e+06
1.034e+06
1.034e+06
1.034e+06
1.034e+06
1.034e+06
1.034e+06
1.034e+06
1.034e+06
1.034e+06
1.034e+06
1.034e+06
1.034e+06
1.034e+06
1.034e+06
1.034e+06
1.034e+06
1.034e+06
1.034e+06
1.034e+06
1.034e+06
1.034e+06
1.034e+06
1.034e+06
1.034e+06
1.034e+06
1.034e+06
1.034e+06
1.034e+06
1.034e+06
1.034e+06
347996
310225
336662
348217
367259
383167
404367
422898
445377
465543
490156
512984
540736
565553
593322
618477
651280
682084
719314
753023
789929
824074
859040
891856
923911
953463
979329
999628
1.01428e+06
1.02377e+06
1.02902e+06
1.03171e+06
1.03301e+06
1.03359e+06
1.03384e+06
1.03394e+06
1.03398e+06
1.03399e+06
1.034e+06
1.034e+06
1.034e+06
1.034e+06
1.034e+06
1.034e+06
1.034e+06
1.034e+06
1.034e+06
1.034e+06
1.034e+06
1.034e+06
1.034e+06
1.034e+06
1.034e+06
1.034e+06
1.034e+06
1.034e+06
1.034e+06
1.034e+06
1.034e+06
1.034e+06
1.034e+06
1.034e+06
1.034e+06
1.034e+06
1.034e+06
1.034e+06
1.034e+06
1.034e+06
1.034e+06
1.034e+06
1.034e+06
1.034e+06
347993
310229
336661
348216
367256
383169
404376
422859
445249
465392
489993
512860
540696
565580
593466
618697
651587
682428
719695
753442
790413
824607
859586
892367
924355
953833
979628
999848
1.01442e+06
1.02384e+06
1.02906e+06
1.03173e+06
1.03302e+06
1.0336e+06
1.03384e+06
1.03394e+06
1.03398e+06
1.03399e+06
1.034e+06
1.034e+06
1.034e+06
1.034e+06
1.034e+06
1.034e+06
1.034e+06
1.034e+06
1.034e+06
1.034e+06
1.034e+06
1.034e+06
1.034e+06
1.034e+06
1.034e+06
1.034e+06
1.034e+06
1.034e+06
1.034e+06
1.034e+06
1.034e+06
1.034e+06
1.034e+06
1.034e+06
1.034e+06
1.034e+06
1.034e+06
1.034e+06
1.034e+06
1.034e+06
1.034e+06
1.034e+06
1.034e+06
1.034e+06
347980
310216
336656
348225
367263
383184
404384
422828
445157
465264
489845
512740
540659
565622
593629
618936
651912
682791
720093
753880
790915
825159
860152
892897
924817
954220
979940
1.00008e+06
1.01458e+06
1.02393e+06
1.02911e+06
1.03175e+06
1.03303e+06
1.0336e+06
1.03385e+06
1.03394e+06
1.03398e+06
1.03399e+06
1.034e+06
1.034e+06
1.034e+06
1.034e+06
1.034e+06
1.034e+06
1.034e+06
1.034e+06
1.034e+06
1.034e+06
1.034e+06
1.034e+06
1.034e+06
1.034e+06
1.034e+06
1.034e+06
1.034e+06
1.034e+06
1.034e+06
1.034e+06
1.034e+06
1.034e+06
1.034e+06
1.034e+06
1.034e+06
1.034e+06
1.034e+06
1.034e+06
1.034e+06
1.034e+06
1.034e+06
1.034e+06
1.034e+06
1.034e+06
347972
310206
336651
348227
367282
383213
404395
422807
445077
465144
489699
512623
540628
565675
593800
619185
652244
683161
720496
754321
791420
825714
860719
893429
925281
954609
980254
1.00031e+06
1.01473e+06
1.02401e+06
1.02915e+06
1.03177e+06
1.03304e+06
1.03361e+06
1.03385e+06
1.03394e+06
1.03398e+06
1.03399e+06
1.034e+06
1.034e+06
1.034e+06
1.034e+06
1.034e+06
1.034e+06
1.034e+06
1.034e+06
1.034e+06
1.034e+06
1.034e+06
1.034e+06
1.034e+06
1.034e+06
1.034e+06
1.034e+06
1.034e+06
1.034e+06
1.034e+06
1.034e+06
1.034e+06
1.034e+06
1.034e+06
1.034e+06
1.034e+06
1.034e+06
1.034e+06
1.034e+06
1.034e+06
1.034e+06
1.034e+06
1.034e+06
1.034e+06
1.034e+06
347965
310207
336645
348216
367307
383246
404416
422797
445004
465024
489554
512506
540603
565736
593977
619438
652581
683535
720902
754766
791928
826273
861291
893965
925750
955002
980571
1.00054e+06
1.01488e+06
1.0241e+06
1.02919e+06
1.03179e+06
1.03305e+06
1.03361e+06
1.03385e+06
1.03394e+06
1.03398e+06
1.03399e+06
1.034e+06
1.034e+06
1.034e+06
1.034e+06
1.034e+06
1.034e+06
1.034e+06
1.034e+06
1.034e+06
1.034e+06
1.034e+06
1.034e+06
1.034e+06
1.034e+06
1.034e+06
1.034e+06
1.034e+06
1.034e+06
1.034e+06
1.034e+06
1.034e+06
1.034e+06
1.034e+06
1.034e+06
1.034e+06
1.034e+06
1.034e+06
1.034e+06
1.034e+06
1.034e+06
1.034e+06
1.034e+06
1.034e+06
1.034e+06
347959
310209
336645
348215
367346
383292
404444
422791
444934
464909
489414
512391
540585
565806
594158
619698
652926
683919
721319
755224
792450
826847
861877
894514
926229
955403
980894
1.00078e+06
1.01503e+06
1.02418e+06
1.02924e+06
1.03182e+06
1.03306e+06
1.03362e+06
1.03385e+06
1.03394e+06
1.03398e+06
1.03399e+06
1.034e+06
1.034e+06
1.034e+06
1.034e+06
1.034e+06
1.034e+06
1.034e+06
1.034e+06
1.034e+06
1.034e+06
1.034e+06
1.034e+06
1.034e+06
1.034e+06
1.034e+06
1.034e+06
1.034e+06
1.034e+06
1.034e+06
1.034e+06
1.034e+06
1.034e+06
1.034e+06
1.034e+06
1.034e+06
1.034e+06
1.034e+06
1.034e+06
1.034e+06
1.034e+06
1.034e+06
1.034e+06
1.034e+06
1.034e+06
347947
310210
336646
348223
367376
383328
404468
422786
444863
464795
489282
512286
540561
565860
594340
619957
653269
684301
721733
755680
792969
827418
862460
895061
926705
955802
981214
1.00102e+06
1.01519e+06
1.02427e+06
1.02928e+06
1.03184e+06
1.03307e+06
1.03362e+06
1.03385e+06
1.03395e+06
1.03398e+06
1.03399e+06
1.034e+06
1.034e+06
1.034e+06
1.034e+06
1.034e+06
1.034e+06
1.034e+06
1.034e+06
1.034e+06
1.034e+06
1.034e+06
1.034e+06
1.034e+06
1.034e+06
1.034e+06
1.034e+06
1.034e+06
1.034e+06
1.034e+06
1.034e+06
1.034e+06
1.034e+06
1.034e+06
1.034e+06
1.034e+06
1.034e+06
1.034e+06
1.034e+06
1.034e+06
1.034e+06
1.03399e+06
1.03399e+06
1.03399e+06
1.03399e+06
347923
310210
336651
348238
367404
383367
404503
422792
444812
464699
489157
512184
540546
565934
594534
620223
653616
684690
722156
756147
793500
828001
863053
895617
927190
956208
981541
1.00126e+06
1.01534e+06
1.02435e+06
1.02932e+06
1.03186e+06
1.03308e+06
1.03363e+06
1.03385e+06
1.03395e+06
1.03398e+06
1.03399e+06
1.034e+06
1.034e+06
1.034e+06
1.034e+06
1.034e+06
1.034e+06
1.034e+06
1.034e+06
1.034e+06
1.034e+06
1.034e+06
1.034e+06
1.034e+06
1.034e+06
1.034e+06
1.034e+06
1.034e+06
1.034e+06
1.03399e+06
1.03399e+06
1.03399e+06
1.03399e+06
1.03399e+06
1.03399e+06
1.03399e+06
1.03399e+06
1.03399e+06
1.03399e+06
1.03399e+06
1.03399e+06
1.03399e+06
1.03398e+06
1.03398e+06
1.03398e+06
347919
310213
336665
348265
367465
383429
404532
422799
444763
464605
489037
512085
540552
566041
594740
620501
653975
685089
722590
756624
794040
828592
863654
896180
927682
956620
981871
1.0015e+06
1.0155e+06
1.02444e+06
1.02937e+06
1.03188e+06
1.03309e+06
1.03363e+06
1.03386e+06
1.03394e+06
1.03398e+06
1.03399e+06
1.03399e+06
1.034e+06
1.034e+06
1.034e+06
1.034e+06
1.034e+06
1.03399e+06
1.03399e+06
1.03399e+06
1.03399e+06
1.03399e+06
1.03399e+06
1.03399e+06
1.03399e+06
1.03399e+06
1.03399e+06
1.03399e+06
1.03399e+06
1.03398e+06
1.03398e+06
1.03398e+06
1.03398e+06
1.03398e+06
1.03398e+06
1.03398e+06
1.03397e+06
1.03397e+06
1.03397e+06
1.03396e+06
1.03396e+06
1.03396e+06
1.03396e+06
1.03396e+06
1.03395e+06
347932
310224
336696
348309
367528
383486
404581
422811
444692
464497
488925
512007
540570
566137
594944
620776
654331
685484
723020
757096
794576
829177
864249
896737
928168
957025
982194
1.00174e+06
1.01565e+06
1.02452e+06
1.02941e+06
1.0319e+06
1.0331e+06
1.03363e+06
1.03385e+06
1.03394e+06
1.03397e+06
1.03398e+06
1.03399e+06
1.03399e+06
1.03399e+06
1.03399e+06
1.03399e+06
1.03399e+06
1.03399e+06
1.03398e+06
1.03398e+06
1.03398e+06
1.03398e+06
1.03398e+06
1.03398e+06
1.03397e+06
1.03397e+06
1.03397e+06
1.03396e+06
1.03396e+06
1.03396e+06
1.03395e+06
1.03395e+06
1.03395e+06
1.03394e+06
1.03394e+06
1.03393e+06
1.03393e+06
1.03392e+06
1.03391e+06
1.03391e+06
1.0339e+06
1.03389e+06
1.03388e+06
1.03388e+06
1.03387e+06
347958
310232
336721
348344
367588
383546
404616
422799
444619
464402
488821
511938
540589
566230
595144
621050
654687
685878
723451
757565
795108
829756
864838
897286
928645
957421
982508
1.00196e+06
1.0158e+06
1.0246e+06
1.02944e+06
1.03191e+06
1.03309e+06
1.03362e+06
1.03384e+06
1.03393e+06
1.03396e+06
1.03397e+06
1.03397e+06
1.03397e+06
1.03397e+06
1.03397e+06
1.03397e+06
1.03396e+06
1.03396e+06
1.03396e+06
1.03395e+06
1.03395e+06
1.03394e+06
1.03394e+06
1.03393e+06
1.03393e+06
1.03392e+06
1.03391e+06
1.03391e+06
1.0339e+06
1.03389e+06
1.03388e+06
1.03387e+06
1.03386e+06
1.03385e+06
1.03384e+06
1.03383e+06
1.03381e+06
1.0338e+06
1.03378e+06
1.03376e+06
1.03374e+06
1.03373e+06
1.03371e+06
1.03371e+06
1.03369e+06
347995
310225
336730
348362
367618
383593
404625
422769
444569
464321
488712
511860
540600
566318
595334
621315
655034
686260
723868
758019
795624
830317
865407
897815
929101
957795
982800
1.00217e+06
1.01592e+06
1.02465e+06
1.02946e+06
1.0319e+06
1.03307e+06
1.0336e+06
1.03381e+06
1.03389e+06
1.03392e+06
1.03393e+06
1.03393e+06
1.03393e+06
1.03392e+06
1.03392e+06
1.03391e+06
1.0339e+06
1.0339e+06
1.03389e+06
1.03388e+06
1.03387e+06
1.03386e+06
1.03384e+06
1.03383e+06
1.03382e+06
1.0338e+06
1.03378e+06
1.03376e+06
1.03374e+06
1.03372e+06
1.0337e+06
1.03368e+06
1.03366e+06
1.03363e+06
1.03361e+06
1.03358e+06
1.03354e+06
1.03351e+06
1.03346e+06
1.03343e+06
1.03338e+06
1.03335e+06
1.03331e+06
1.0333e+06
1.03326e+06
348045
310215
336737
348378
367630
383607
404629
422763
444533
464230
488585
511760
540588
566382
595507
621564
655361
686620
724258
758441
796105
830838
865933
898295
929506
958117
983040
1.00232e+06
1.016e+06
1.02466e+06
1.02942e+06
1.03185e+06
1.03301e+06
1.03352e+06
1.03373e+06
1.0338e+06
1.03382e+06
1.03382e+06
1.03382e+06
1.03381e+06
1.0338e+06
1.03379e+06
1.03377e+06
1.03376e+06
1.03374e+06
1.03372e+06
1.03369e+06
1.03367e+06
1.03364e+06
1.03362e+06
1.03358e+06
1.03355e+06
1.03351e+06
1.03347e+06
1.03343e+06
1.03339e+06
1.03334e+06
1.0333e+06
1.03325e+06
1.0332e+06
1.03315e+06
1.03309e+06
1.03303e+06
1.03295e+06
1.03287e+06
1.03277e+06
1.0327e+06
1.0326e+06
1.03255e+06
1.03245e+06
1.03244e+06
1.03235e+06
348077
310219
336751
348397
367657
383619
404619
422767
444480
464102
488421
511627
540536
566401
595638
621766
655635
686921
724584
758794
796510
831277
866369
898680
929809
958333
983173
1.00237e+06
1.01596e+06
1.02456e+06
1.02928e+06
1.03169e+06
1.03283e+06
1.03333e+06
1.03352e+06
1.03358e+06
1.03359e+06
1.03357e+06
1.03355e+06
1.03353e+06
1.03351e+06
1.03348e+06
1.03345e+06
1.03341e+06
1.03337e+06
1.03332e+06
1.03327e+06
1.03322e+06
1.03316e+06
1.0331e+06
1.03303e+06
1.03296e+06
1.03288e+06
1.03279e+06
1.0327e+06
1.03261e+06
1.03252e+06
1.03243e+06
1.03233e+06
1.03223e+06
1.03212e+06
1.032e+06
1.03188e+06
1.03173e+06
1.03157e+06
1.03137e+06
1.03124e+06
1.03104e+06
1.03095e+06
1.03076e+06
1.03073e+06
1.03056e+06
348063
310236
336758
348405
367677
383640
404635
422742
444374
463947
488226
511459
540452
566382
595735
621929
655865
687175
724849
759077
796829
831619
866690
898933
929957
958368
983104
1.00221e+06
1.01572e+06
1.02424e+06
1.02894e+06
1.0313e+06
1.03241e+06
1.03288e+06
1.03304e+06
1.03307e+06
1.03304e+06
1.03299e+06
1.03295e+06
1.0329e+06
1.03285e+06
1.03279e+06
1.03272e+06
1.03264e+06
1.03255e+06
1.03245e+06
1.03235e+06
1.03223e+06
1.03211e+06
1.03199e+06
1.03185e+06
1.03171e+06
1.03155e+06
1.03138e+06
1.0312e+06
1.03103e+06
1.03085e+06
1.03067e+06
1.03048e+06
1.03028e+06
1.03007e+06
1.02985e+06
1.02963e+06
1.02934e+06
1.02905e+06
1.02869e+06
1.02845e+06
1.02808e+06
1.02792e+06
1.02759e+06
1.02754e+06
1.02724e+06
348008
310240
336738
348386
367697
383674
404616
422671
444228
463762
487997
511247
540302
566282
595715
621975
655973
687290
724947
759172
796934
831721
866733
898866
929758
958054
982684
1.00167e+06
1.01507e+06
1.02352e+06
1.02811e+06
1.03041e+06
1.03145e+06
1.03186e+06
1.03196e+06
1.03193e+06
1.03183e+06
1.03173e+06
1.03163e+06
1.03153e+06
1.03142e+06
1.0313e+06
1.03116e+06
1.031e+06
1.03082e+06
1.03062e+06
1.03041e+06
1.03018e+06
1.02995e+06
1.0297e+06
1.02944e+06
1.02916e+06
1.02885e+06
1.02853e+06
1.02819e+06
1.02786e+06
1.02753e+06
1.0272e+06
1.02685e+06
1.02649e+06
1.02611e+06
1.02571e+06
1.02531e+06
1.02478e+06
1.02428e+06
1.02364e+06
1.02322e+06
1.02259e+06
1.02232e+06
1.02175e+06
1.02166e+06
1.02116e+06
347956
310211
336689
348337
367638
383613
404534
422526
443995
463457
487650
510889
539972
565976
595444
621695
655688
686973
724573
758753
796474
831216
866147
898169
928913
957038
981494
1.00035e+06
1.01359e+06
1.02184e+06
1.02629e+06
1.02846e+06
1.0294e+06
1.02969e+06
1.02969e+06
1.02952e+06
1.0293e+06
1.02908e+06
1.02888e+06
1.02867e+06
1.02846e+06
1.02822e+06
1.02796e+06
1.02765e+06
1.02729e+06
1.02691e+06
1.02651e+06
1.02608e+06
1.02564e+06
1.02518e+06
1.0247e+06
1.02417e+06
1.02362e+06
1.02303e+06
1.02242e+06
1.02183e+06
1.02124e+06
1.02065e+06
1.02004e+06
1.0194e+06
1.01873e+06
1.01805e+06
1.01737e+06
1.01647e+06
1.01563e+06
1.01457e+06
1.01389e+06
1.01288e+06
1.01244e+06
1.01154e+06
1.0114e+06
1.01064e+06
347859
310115
336565
348208
367472
383415
404296
422204
443525
462880
486988
510174
539251
565239
594696
620906
654831
686000
723450
757494
795086
829697
864447
896243
926747
954664
978886
997383
1.01031e+06
1.01828e+06