/*--------------------------------*- C++ -*----------------------------------*\
| =========                 |                                                 |
| \\      /  F ield         | OpenFOAM: The Open Source CFD Toolbox           |
|  \\    /   O peration     | Version:  2212                                  |
|   \\  /    A nd           | Website:  www.openfoam.com                      |
|    \\/     M anipulation  |                                                 |
\*---------------------------------------------------------------------------*/
FoamFile
{
    version     2.0;
    format      ascii;
    arch        "LSB;label=32;scalar=64";
    class       volScalarField;
    location    "0.05";
    object      T;
}
// * * * * * * * * * * * * * * * * * * * * * * * * * * * * * * * * * * * * * //

dimensions      [0 0 0 1 0 0 0];

internalField   nonuniform List<scalar> 
2308
(
268.193
267.472
270.466
266.558
267.202
266.913
266.786
267.062
267.308
265.151
265.276
265.456
265.583
265.71
265.836
265.959
266.079
266.182
266.07
265.951
265.825
265.697
265.564
265.428
265.291
265.154
265.02
264.885
266.806
266.196
264.744
264.606
264.471
264.336
264.201
264.067
263.933
263.798
263.664
263.529
263.394
263.258
263.122
262.986
262.848
262.846
262.983
263.119
263.255
263.391
263.527
263.662
263.796
263.931
264.065
264.199
264.333
264.468
264.603
264.74
264.88
265.01
265.137
265.259
265.374
265.487
265.605
265.728
265.852
265.975
266.096
262.711
262.708
266.083
265.953
265.822
265.689
265.556
265.421
265.287
265.15
265.013
264.879
264.743
264.608
264.472
264.338
264.203
264.069
263.935
263.801
263.666
263.531
263.396
263.261
263.125
262.988
262.852
266.293
262.714
266.308
266.216
262.706
262.844
262.981
263.117
263.253
263.389
263.525
263.66
263.794
263.929
264.063
264.197
264.331
264.466
264.6
264.734
264.868
264.998
265.128
265.255
265.379
265.501
265.622
265.746
265.87
265.993
266.116
267.155
266.866
266.755
266.822
266.238
266.097
265.957
265.821
265.686
265.552
265.417
265.282
265.146
265.01
264.876
264.742
264.607
264.473
264.339
264.205
264.071
263.937
263.803
263.668
263.533
263.398
263.263
263.127
262.991
262.855
262.718
262.58
262.576
262.573
262.57
267.136
262.567
267.248
267.297
266.333
267.446
267.11
266.413
266.239
262.442
262.437
262.434
262.43
262.428
262.427
262.566
262.705
262.842
262.979
263.116
263.252
263.387
263.523
263.658
263.793
263.928
264.062
264.196
264.33
264.464
264.598
264.731
264.862
264.992
265.123
265.252
265.382
265.51
265.636
265.761
265.887
266.012
266.136
266.516
268.397
267.102
267.038
266.903
266.773
266.64
266.505
266.368
266.23
266.094
265.956
265.82
265.684
265.549
265.414
265.279
265.144
265.009
264.875
264.741
264.607
264.474
264.34
264.206
264.073
263.938
263.804
263.67
263.535
263.4
263.265
263.13
262.994
262.858
262.722
262.585
262.447
271.537
267.362
268.593
266.427
269.89
267.364
266.361
266.527
262.427
262.566
262.704
262.842
262.978
263.115
263.251
263.387
263.522
263.657
263.792
263.927
264.061
264.195
264.329
264.462
264.595
264.728
264.859
264.989
265.12
265.25
265.382
265.514
265.644
265.773
265.901
266.027
266.153
266.26
267.527
267.304
267.044
266.899
266.765
266.631
266.496
266.36
266.224
266.089
265.953
265.817
265.682
265.547
265.412
265.277
265.142
265.008
264.874
264.74
264.607
264.474
264.34
264.207
264.073
263.939
263.805
263.671
263.537
263.402
263.267
263.133
262.997
262.862
262.726
262.589
262.452
262.314
262.308
262.302
262.297
262.293
262.29
262.288
262.287
262.287
268.802
270.292
273.026
267.477
268.076
273.083
266.278
266.384
267.634
267.602
268.148
267.01
267.029
266.893
266.757
266.622
266.488
266.353
266.218
266.083
265.949
265.814
265.679
265.545
265.41
265.276
265.141
265.007
264.873
264.74
264.607
264.474
264.341
264.207
264.074
263.94
263.806
263.672
263.538
263.404
263.27
263.135
263
262.865
262.73
262.594
262.458
262.321
262.183
262.175
262.168
262.162
262.157
262.152
262.149
262.147
262.146
262.146
262.148
262.288
262.428
262.566
262.704
262.841
262.978
263.114
263.25
263.386
263.521
263.656
263.791
263.926
264.06
264.193
264.327
264.46
264.593
264.725
264.856
264.987
265.118
265.249
265.381
265.514
265.647
265.78
265.911
266.04
266.168
267.623
266.401
266.508
266.652
267.731
267.708
267.588
267.478
267.363
267.166
267.156
267.023
266.886
266.749
266.614
266.479
266.345
266.212
266.078
265.944
265.81
265.676
265.542
265.408
265.274
265.14
265.006
264.873
264.74
264.607
264.474
264.341
264.208
264.074
263.941
263.807
263.673
263.54
263.406
263.272
263.138
263.003
262.869
262.734
262.599
262.463
262.327
262.191
262.054
262.045
262.036
262.028
262.02
262.014
262.009
262.006
262.004
262.003
262.004
262.006
262.01
262.151
262.29
262.429
262.567
262.705
262.842
262.978
263.114
263.25
263.386
263.521
263.656
263.79
263.925
264.059
264.192
264.326
264.459
264.591
264.723
264.854
264.985
265.116
265.248
265.38
265.513
265.647
265.782
265.916
266.049
266.18
266.295
267.737
267.724
272.669
266.418
267.436
267.568
267.692
266.621
266.912
266.663
266.521
267.827
267.821
261.916
261.905
261.895
261.886
261.877
261.871
261.865
261.861
261.859
261.859
261.86
261.863
261.868
261.874
262.015
262.155
262.293
262.432
262.569
262.706
262.843
262.979
263.115
263.25
263.386
263.521
263.655
263.79
263.924
264.058
264.191
264.324
264.457
264.59
264.722
264.853
264.984
265.115
265.247
265.38
265.512
265.646
265.781
265.916
266.052
266.187
266.309
267.194
267.844
266.777
270.367
267.018
266.877
266.74
266.604
266.471
266.337
266.205
266.072
265.939
265.806
265.672
265.539
265.406
265.272
265.139
265.006
264.873
264.74
264.607
264.474
264.341
264.208
264.074
263.941
263.808
263.674
263.541
263.408
263.274
263.14
263.006
262.872
262.738
262.604
262.469
262.334
262.199
262.064
261.928
267.828
267.843
271.333
266.636
267.951
266.539
261.882
262.021
262.159
262.297
262.435
262.572
262.708
262.844
262.98
263.115
263.251
263.386
263.52
263.655
263.789
263.923
264.057
264.19
264.323
264.456
264.589
264.72
264.852
264.983
265.115
265.247
265.379
265.512
265.646
265.78
265.915
266.051
266.19
266.321
267.099
267.943
261.792
261.778
261.765
261.753
261.742
261.733
261.725
261.719
261.715
261.712
261.712
261.714
261.718
261.724
261.732
261.741
267.285
267.929
267.787
267.647
267.507
266.919
266.962
267.407
266.604
267.004
266.863
266.727
266.594
266.461
266.329
266.197
266.066
265.934
265.801
265.669
265.536
265.403
265.27
265.138
265.005
264.872
264.739
264.607
264.474
264.341
264.208
264.075
263.942
263.808
263.675
263.542
263.409
263.276
263.142
263.009
262.876
262.742
262.609
262.475
262.342
262.208
262.074
261.94
261.806
271.11
266.434
266.735
267.932
267.959
267.952
267.007
271.297
271.515
266.833
266.662
266.332
266.823
269.012
266.954
270.916
261.752
261.89
262.027
262.165
262.301
262.438
262.574
262.71
262.846
262.981
263.116
263.251
263.386
263.52
263.655
263.789
263.922
264.056
264.189
264.322
264.455
264.587
264.719
264.851
264.983
265.114
265.246
265.378
265.511
265.645
265.779
265.913
266.049
266.185
266.322
267.189
268.285
268.463
261.671
261.654
261.638
261.623
261.609
261.597
261.587
261.578
261.571
261.566
261.563
261.563
261.565
261.571
261.578
261.588
261.6
261.613
266.944
268.029
267.875
267.729
267.59
267.457
270.105
268.296
267.105
266.976
266.844
266.713
266.582
266.451
266.321
266.19
266.06
265.928
265.797
265.665
265.533
265.401
265.268
265.136
265.004
264.871
264.739
264.606
264.473
264.341
264.208
264.075
263.942
263.809
263.676
263.543
263.411
263.278
263.145
263.012
262.879
262.746
262.614
262.481
262.349
262.216
262.084
261.952
261.82
261.689
267.367
266.451
268.357
267.77
267.899
268.032
266.558
268.066
268.061
268.075
270.909
268.323
269.96
266.665
266.434
267.096
271.325
271.096
266.305
266.176
266.044
265.911
265.777
265.643
265.51
265.377
265.246
265.114
264.982
264.85
264.719
264.586
264.454
264.321
264.188
264.055
263.922
263.788
263.654
263.52
263.386
263.251
263.117
262.982
262.847
262.712
262.577
262.441
262.306
262.17
262.034
261.898
261.762
261.626
270.893
261.557
261.536
261.516
261.497
261.48
261.464
261.45
261.439
261.429
261.421
261.415
261.411
261.411
261.414
261.42
261.43
261.442
261.457
261.473
261.49
267.259
266.471
267.644
271.572
271.562
271.565
271.564
271.557
271.313
271.075
270.848
266.655
270.702
268.167
268.445
268.4
267.855
267.99
268.13
266.681
267.443
271.242
268.114
267.956
267.81
267.677
267.557
267.36
267.466
267.19
267.072
266.949
266.824
266.697
266.57
266.441
266.313
266.183
266.054
265.923
265.792
265.661
265.53
265.398
265.266
265.134
265.002
264.87
264.738
264.605
264.473
264.34
264.208
264.075
263.942
263.81
263.677
263.544
263.412
263.279
263.147
263.014
262.882
262.75
262.618
262.487
262.355
262.224
262.094
261.964
261.834
261.706
261.578
268.233
268.093
267.954
270.02
268.021
266.579
270.205
267.889
270.537
268.191
268.192
268.169
268.016
268.076
267.937
270.871
268.157
270.601
270.79
268.546
268.059
268.222
271.04
271.293
271.547
266.298
266.169
266.038
265.906
265.774
265.642
265.509
265.377
265.245
265.113
264.981
264.85
264.718
264.585
264.453
264.321
264.188
264.055
263.921
263.788
263.654
263.52
263.386
263.252
263.117
262.983
262.848
262.714
262.579
262.444
262.31
262.175
262.041
261.907
261.773
261.639
261.506
267.637
267.751
267.881
268.025
268.182
268.35
269.717
267.151
266.511
267.725
267.881
270.63
270.666
268.377
268.221
266.555
270.302
269.97
267.247
267.325
271.841
270.954
271.278
268.527
261.451
261.425
261.4
261.376
261.354
261.334
261.317
261.302
261.288
261.277
261.268
261.261
261.256
261.256
261.259
261.267
261.279
261.294
261.312
261.332
261.353
261.374
271.835
271.823
271.817
271.813
271.809
271.805
270.729
266.606
267.519
267.822
267.769
266.922
270.445
270.461
268.317
270.187
268.568
268.275
270.257
266.705
273.116
271.823
268.308
267.342
267.253
267.151
267.041
266.925
266.805
266.683
266.558
266.432
266.305
266.177
266.048
265.919
265.789
265.658
265.527
265.396
265.264
265.133
265.001
264.869
264.737
264.605
264.472
264.34
264.208
264.075
263.943
263.81
263.678
263.545
263.413
263.281
263.149
263.017
262.885
262.754
262.622
262.492
262.362
262.232
262.103
261.975
261.847
261.721
261.597
261.474
272.793
269.27
273.101
267.804
270.644
268.304
271.216
267.439
267.014
270.599
267.202
267.162
267.589
267.691
267.807
267.937
268.08
268.236
268.404
268.584
268.716
268.774
267.038
267.857
266.803
267.397
266.538
266.415
266.29
266.162
266.033
265.902
265.771
265.64
265.508
265.376
265.244
265.112
264.981
264.849
264.717
264.585
264.452
264.32
264.187
264.054
263.921
263.787
263.654
263.52
263.386
263.252
263.118
262.984
262.85
262.715
262.581
262.447
262.313
262.18
262.047
261.915
261.783
261.652
261.523
261.395
271.002
271.269
271.535
271.799
270.43
273.078
267.934
268.086
268.261
269.06
268.641
268.85
266.446
267.498
266.727
266.642
267.597
267.751
267.655
267.411
270.411
270.428
268.656
268.436
266.59
270
266.997
269.717
269.469
268.534
268.373
269.983
266.829
267.078
267.116
267.738
269.554
269.749
269.974
267.466
267.545
272.084
272.086
272.082
272.076
272.07
272.065
272.063
272.061
272.059
267.395
266.736
268.424
268.446
270.207
269.818
267.191
267.316
267.223
267.123
267.018
266.906
266.79
266.67
266.548
266.423
266.298
266.171
266.043
265.914
265.785
265.655
265.524
265.394
265.262
265.131
265
264.868
264.736
264.604
264.472
264.34
264.208
264.075
263.943
263.811
263.678
263.546
263.414
263.282
263.15
263.019
262.888
262.757
262.626
262.496
262.367
262.238
262.111
261.984
261.859
261.735
261.614
261.495
261.38
261.354
261.325
261.294
261.263
261.234
261.208
261.186
261.167
261.15
261.136
261.123
261.112
261.103
261.097
261.096
261.1
261.109
261.123
261.143
261.165
261.19
261.215
261.242
261.268
267.699
270.214
268.972
268.916
268.759
267.51
272.092
271.497
266.725
266.801
267.613
267.725
267.844
267.975
268.118
268.275
268.446
268.632
268.83
269.036
269.424
269.17
269.239
266.685
267.675
267.537
270.413
268.627
266.485
269.744
269.36
269.231
268.461
269.72
266.951
269.756
267.228
268.906
268.684
268.479
268.293
268.124
267.971
267.822
267.566
271.816
267.238
270.695
270.969
271.246
271.521
271.794
272.057
267.267
266.862
273.148
268.576
272.36
272.347
272.339
272.334
272.33
272.324
272.319
272.315
272.312
272.311
272.311
272.311
269.522
269.975
267.047
268.229
266.745
273.112
267.332
267.406
267.304
267.206
267.105
267.001
266.892
266.778
266.661
266.54
266.417
266.292
266.166
266.039
265.911
265.782
265.652
265.522
265.392
265.261
265.13
264.998
264.867
264.735
264.603
264.471
264.339
264.207
264.075
263.943
263.811
263.679
263.547
263.415
263.283
263.152
263.02
262.89
262.759
262.629
262.5
262.371
262.244
262.117
261.992
261.869
261.747
261.628
261.513
261.401
261.294
261.269
261.237
261.2
261.161
261.123
261.088
261.059
261.035
261.015
260.997
260.982
260.967
260.954
260.942
260.935
260.931
260.934
260.945
260.964
260.988
261.017
261.046
261.076
261.109
261.143
261.177
261.293
261.413
261.537
261.664
261.792
261.922
262.052
262.184
262.317
262.45
262.583
262.717
262.851
262.985
263.118
263.252
263.386
263.52
263.654
263.787
263.92
264.053
264.186
264.319
264.452
264.584
264.716
264.848
264.98
265.112
265.243
265.375
265.506
265.637
265.768
265.899
266.029
266.157
266.285
266.413
266.545
266.668
266.79
266.904
269.141
267.158
267.299
267.332
267.448
267.039
267.591
268.582
269.548
266.773
266.857
267.627
267.473
267.348
267.582
270.185
270.184
268.869
269.535
269.12
268.958
269.386
268.533
268.706
269.963
269.488
269.225
266.984
269.721
268.629
269.167
269.324
268.789
268.834
270.176
267.466
267.552
266.814
269.34
269.112
268.883
268.67
268.475
268.299
268.14
267.997
267.867
267.748
267.637
268.703
267.281
266.894
267.717
267.848
267.992
268.145
268.314
268.502
268.713
268.953
267.316
267.152
270.269
270.59
270.905
271.206
266.912
269.25
267.35
269.284
267.166
269.739
267.075
270.65
270.937
271.224
271.509
271.791
272.063
272.328
267.238
267.146
267.311
267.203
267.097
266.988
266.882
266.772
266.654
266.533
266.408
266.281
266.154
266.025
265.896
265.766
265.636
265.505
265.374
265.242
265.111
264.979
264.847
264.715
264.583
264.451
264.319
264.186
264.053
263.92
263.787
263.653
263.52
263.386
263.252
263.119
262.985
262.851
262.718
262.585
262.452
262.319
262.188
262.057
261.927
261.799
261.673
261.549
261.429
261.313
261.203
268.892
268.701
261.193
261.165
261.123
261.077
261.029
260.98
260.938
260.905
260.878
260.862
260.841
260.826
260.81
260.795
260.776
260.769
260.759
260.761
260.774
260.798
260.827
260.867
260.902
260.934
260.975
261.019
261.067
261.1
269.561
272.603
272.591
272.584
272.579
272.573
272.568
272.564
272.56
272.557
272.555
272.554
272.558
272.584
271.789
272.064
272.345
272.609
267.492
267.393
267.293
267.194
267.094
266.991
266.883
266.77
266.654
266.534
266.412
266.288
266.163
266.036
265.908
265.779
265.65
265.52
265.39
265.26
265.129
264.997
264.866
264.734
264.603
264.471
264.339
264.207
264.075
263.943
263.811
263.679
263.547
263.416
263.284
263.153
263.022
262.891
262.761
262.631
262.503
262.375
262.248
262.122
261.998
261.876
261.756
261.639
261.526
261.416
261.312
261.215
269.505
269.077
269.936
269.946
267.283
267.51
266.902
266.984
268.979
268.731
267.564
268.878
267.221
267.623
267.74
267.867
268.005
268.158
268.328
268.516
268.729
268.972
271.236
266.265
269.892
270.235
270.585
270.914
267.658
269.473
269.192
268.926
268.693
268.491
268.314
268.155
268.011
267.881
267.763
266.942
267.434
267.397
269.929
269.035
269.287
269.087
268.807
267.474
267.378
267.283
267.186
267.086
266.982
266.874
266.762
266.646
266.526
266.403
266.277
266.151
266.023
265.894
265.764
265.634
265.504
265.373
265.242
265.11
264.979
264.847
264.715
264.583
264.451
264.318
264.186
264.053
263.92
263.787
263.653
263.52
263.386
263.253
263.119
262.985
262.852
262.719
262.586
262.453
262.321
262.19
262.06
261.931
261.804
261.679
261.557
261.439
261.326
261.22
261.122
270.286
270.601
270.907
271.202
271.499
271.793
272.086
272.368
272.619
267.107
269.703
268.88
269.463
269.678
267.221
267.033
271.69
272
272.305
272.586
267.418
269.698
272.845
272.83
272.823
272.819
272.815
272.812
272.808
272.805
272.802
272.799
272.797
272.797
272.8
272.822
272.851
273.019
261.121
261.096
261.075
261.013
260.955
260.896
260.829
260.779
260.743
260.712
260.711
260.679
260.67
260.654
260.637
260.601
260.602
260.576
260.575
260.594
260.626
260.657
260.721
260.757
260.785
260.835
260.892
260.969
261.005
261.03
267.472
267.379
267.283
267.186
267.087
266.985
266.878
266.766
266.65
266.531
266.409
266.285
266.16
266.034
265.906
265.778
265.649
265.519
265.389
265.259
265.128
264.997
264.865
264.734
264.602
264.471
264.339
264.207
264.075
263.943
263.812
263.68
263.548
263.416
263.285
263.153
263.022
262.892
262.762
262.633
262.504
262.377
262.251
262.126
262.002
261.881
261.762
261.646
261.534
261.426
261.323
261.227
261.135
268.999
269.242
269.671
267.327
267.071
261.129
261.227
267.689
267.622
261.038
260.819
260.971
260.929
260.722
260.739
260.556
260.63
260.473
260.515
260.394
260.431
260.384
260.384
260.403
260.384
260.521
260.438
260.508
260.541
260.524
260.509
260.603
260.555
260.722
260.668
260.893
260.806
260.999
261.038
261.226
261.125
261.051
261.038
261.43
261.326
261.65
261.538
261.883
261.765
262.127
262.004
262.378
262.252
262.634
262.505
262.893
262.763
263.154
263.023
263.416
263.285
263.68
263.548
263.944
263.812
264.207
264.075
264.47
264.339
264.733
264.602
264.996
264.865
265.258
265.127
265.518
265.388
265.777
265.648
266.032
265.905
266.284
266.159
266.529
266.408
266.765
266.649
266.983
266.876
267.181
267.084
267.371
267.277
267.565
267.467
267.77
267.664
268.018
267.888
268.321
268.161
268.702
268.499
269.221
268.938
269.865
269.536
270.564
270.221
271.18
270.888
271.816
271.495
272.433
272.137
272.92
273.047
273.054
273.038
273.038
273.04
273.039
273.042
273.041
273.045
273.044
273.048
273.046
273.051
273.049
272.992
273.058
272.871
272.913
273.09
273.136
272.764
272.923
272.257
272.543
271.595
271.936
270.934
271.256
270.237
270.586
269.572
269.901
268.982
269.262
268.524
268.738
268.165
268.335
267.875
268.012
267.646
267.753
267.456
267.549
267.27
267.363
267.079
267.175
266.871
266.978
266.642
266.759
266.4
266.522
266.149
266.275
265.893
266.021
265.633
265.763
265.372
265.503
265.11
265.241
264.847
264.978
264.583
264.715
264.318
264.45
264.052
264.185
263.786
263.919
263.52
263.653
263.253
263.386
262.985
263.119
262.719
262.852
262.454
262.586
262.191
262.322
261.933
262.061
261.682
261.806
261.445
261.562
261.333
273.088
273.135
269.422
266.921
260.972
269.061
261.019
270.946
273.147
273.157
273.157
273.16
273.16
273.16
273.16
266.779
269.501
269.414
269.185
269.2
266.379
266.541
266.396
267.51
267.295
267.4
267.608
267.389
267.497
267.708
267.477
267.591
267.805
267.561
267.682
269.442
267.171
273.13
267.257
272.774
267.082
268.429
269.302
267.26
267.397
267.033
266.67
266.176
269.557
266.991
266.652
267.387
271.473
267.233
271.613
266.874
267.16
270.039
266.818
272.986
266.656
268.642
266.783
266.703
267.005
267.549
273.129
271.119
268.473
267.562
267.547
269.537
272.148
270.62
267.94
272.916
266.698
266.422
266.521
267.819
266.401
270.735
267.405
268.023
267.044
265.368
265.047
267.538
)
;

boundaryField
{
    wall
    {
        type            zeroGradient;
    }
    outlet
    {
        type            inletOutlet;
        inletValue      uniform 85;
        value           nonuniform List<scalar> 
33
(
261.277
261.363
261.322
261.07
261.172
261.019
261.032
260.868
260.935
260.792
260.83
260.759
260.775
260.745
260.755
260.787
260.754
260.827
260.823
260.894
260.851
261.026
260.975
261.094
261.043
261.216
261.152
261.295
261.344
261.337
261.328
261.378
261.302
)
;
    }
    inlet
    {
        type            fixedValue;
        value           uniform 273.16;
    }
    frontAndBackPlanes
    {
        type            empty;
    }
}


// ************************************************************************* //
