/*--------------------------------*- C++ -*----------------------------------*\
| =========                 |                                                 |
| \\      /  F ield         | OpenFOAM: The Open Source CFD Toolbox           |
|  \\    /   O peration     | Version:  2212                                  |
|   \\  /    A nd           | Website:  www.openfoam.com                      |
|    \\/     M anipulation  |                                                 |
\*---------------------------------------------------------------------------*/
FoamFile
{
    version     2.0;
    format      ascii;
    arch        "LSB;label=32;scalar=64";
    class       surfaceScalarField;
    location    "0.000162";
    object      phi;
}
// * * * * * * * * * * * * * * * * * * * * * * * * * * * * * * * * * * * * * //

dimensions      [1 0 -1 0 0 0 0];

oriented        oriented;

internalField   nonuniform List<scalar> 
13427
(
-2.39962e-09
-2.4472e-07
1.40511e-09
7.40303e-09
-3.81787e-07
1.058e-08
-3.445e-07
1.96741e-08
-3.00853e-07
2.86626e-08
-1.71241e-07
4.61924e-08
-8.23887e-08
5.47954e-08
8.28776e-09
5.67673e-08
6.95003e-08
5.5202e-08
8.73017e-08
5.08858e-08
7.94998e-08
4.86908e-08
1.3992e-08
4.84108e-08
-4.59754e-08
4.31904e-08
-9.98915e-08
3.94185e-08
-1.20595e-07
3.30879e-08
-1.24826e-07
2.54668e-08
-1.27093e-07
1.64173e-08
-1.4015e-07
8.41283e-09
-1.49001e-07
2.48269e-09
-1.51849e-07
-1.29534e-07
-4.47199e-09
-2.43643e-07
1.71046e-09
3.36192e-09
-3.89577e-07
1.63437e-08
-3.59235e-07
2.49176e-08
-3.11759e-07
4.13313e-08
-1.90322e-07
6.3591e-08
-1.05557e-07
8.00765e-08
-7.55549e-09
8.42781e-08
6.58064e-08
8.46248e-08
8.78925e-08
8.721e-08
7.72299e-08
8.6612e-08
1.50569e-08
9.08658e-08
-4.96004e-08
8.3874e-08
-9.15613e-08
7.3156e-08
-1.07154e-07
5.89451e-08
-1.06039e-07
4.44785e-08
-1.0409e-07
3.01322e-08
-1.12556e-07
1.74969e-08
-1.19441e-07
7.73883e-09
-1.22346e-07
-9.97356e-08
-6.41563e-09
-2.40167e-07
1.59921e-09
-1.50093e-09
-3.95714e-07
2.38882e-08
-3.85136e-07
4.05532e-08
-3.33776e-07
5.72769e-08
-2.1093e-07
7.90908e-08
-1.31288e-07
1.01636e-07
-2.95192e-08
1.17439e-07
5.04732e-08
1.24825e-07
8.19647e-08
1.30135e-07
7.15422e-08
1.3516e-07
1.03352e-08
1.344e-07
-4.75247e-08
1.18307e-07
-7.35366e-08
9.44293e-08
-8.02219e-08
7.13733e-08
-7.78119e-08
5.08207e-08
-7.62871e-08
3.27801e-08
-8.26192e-08
1.92242e-08
-8.7847e-08
8.82046e-09
-9.05588e-08
-6.69818e-08
-8.07709e-09
-2.34961e-07
1.98327e-09
-3.85559e-09
-4.02707e-07
3.188e-08
-4.20098e-07
5.31832e-08
-3.5626e-07
7.59505e-08
-2.33797e-07
9.16529e-08
-1.51612e-07
1.17181e-07
-5.7e-08
1.3657e-07
3.16727e-08
1.49199e-07
7.14395e-08
1.61824e-07
5.89192e-08
1.66651e-07
6.77284e-09
1.55612e-07
-3.42838e-08
1.32676e-07
-4.76413e-08
1.05111e-07
-4.87301e-08
8.01334e-08
-4.71199e-08
5.7751e-08
-4.61337e-08
3.69619e-08
-5.05238e-08
1.97942e-08
-5.4166e-08
8.01852e-09
-5.55627e-08
-3.3134e-08
-8.95529e-09
-2.28947e-07
2.39094e-09
-4.87214e-09
-4.10176e-07
3.8795e-08
-4.63037e-07
7.07582e-08
-3.85471e-07
9.5887e-08
-2.5708e-07
1.0888e-07
-1.63496e-07
1.30275e-07
-8.07006e-08
1.50998e-07
1.06168e-08
1.71943e-07
5.25792e-08
1.90967e-07
4.16503e-08
1.86993e-07
1.20906e-08
1.6711e-07
-1.226e-08
1.38374e-07
-1.58105e-08
1.10684e-07
-1.6659e-08
8.65756e-08
-1.72923e-08
6.49169e-08
-1.66467e-08
4.42333e-08
-1.89677e-08
2.61125e-08
-2.11777e-08
1.16708e-08
-1.95486e-08
4.2958e-09
-7.31449e-09
-2.24525e-07
2.53066e-09
-4.10138e-09
-4.18564e-07
3.78956e-08
-5.00388e-07
8.26518e-08
-4.25399e-07
1.11866e-07
-2.82471e-07
1.28378e-07
-1.77116e-07
1.44144e-07
-9.58133e-08
1.62495e-07
-7.25846e-09
1.82306e-07
3.4728e-08
1.94666e-07
3.23956e-08
1.85034e-07
2.32214e-08
1.6025e-07
1.3688e-08
1.32902e-07
1.4117e-08
1.07138e-07
1.33632e-08
8.45951e-08
1.12795e-08
6.3665e-08
1.2072e-08
4.37136e-08
1.15598e-08
2.62906e-08
1.0454e-08
1.12556e-08
1.32648e-08
3.86347e-08
-1.1796e-09
-2.25805e-07
2.08254e-09
2.18335e-09
-4.24379e-07
3.30602e-08
-5.29937e-07
9.059e-08
-4.77043e-07
1.30223e-07
-3.16739e-07
1.54387e-07
-1.94969e-07
1.6569e-07
-1.02878e-07
1.74646e-07
-1.30738e-08
1.83012e-07
2.95195e-08
1.82934e-07
3.46499e-08
1.70641e-07
3.5767e-08
1.4901e-07
3.50354e-08
1.24855e-07
3.92258e-08
1.013e-07
3.99601e-08
8.06037e-08
3.74139e-08
6.14063e-08
3.85529e-08
4.30298e-08
3.93947e-08
2.65861e-08
3.86064e-08
1.12196e-08
4.18387e-08
6.76045e-08
4.08007e-09
-2.30583e-07
5.91035e-10
5.23617e-09
-4.26208e-07
2.14967e-08
-5.50931e-07
7.94207e-08
-5.31839e-07
1.35312e-07
-3.66962e-07
1.70433e-07
-2.21373e-07
1.83784e-07
-1.09724e-07
1.84993e-07
-9.74584e-09
1.85251e-07
3.34015e-08
1.78598e-07
4.36903e-08
1.65447e-07
4.95232e-08
1.45493e-07
5.48768e-08
1.2274e-07
6.32871e-08
1.00532e-07
6.62761e-08
8.10553e-08
6.38715e-08
6.29887e-08
6.59835e-08
4.54531e-08
6.82806e-08
2.93173e-08
6.69029e-08
1.31458e-08
7.1425e-08
9.8184e-08
9.83372e-09
-2.38269e-07
-2.19815e-09
1.36636e-08
-4.29718e-07
2.42828e-08
-5.68141e-07
7.57857e-08
-5.82613e-07
1.47615e-07
-4.29995e-07
1.9481e-07
-2.56173e-07
2.10786e-07
-1.15669e-07
2.08578e-07
-1.58952e-09
2.01328e-07
4.57303e-08
1.88535e-07
6.02194e-08
1.72862e-07
6.6717e-08
1.52089e-07
7.62368e-08
1.28815e-07
8.85287e-08
1.06466e-07
9.35536e-08
8.65009e-08
9.17459e-08
6.8264e-08
9.48e-08
5.01682e-08
9.86904e-08
3.30202e-08
9.7107e-08
1.5716e-08
1.02926e-07
1.31983e-07
1.96437e-08
-2.51412e-07
-5.94106e-09
3.59183e-08
-4.44476e-07
5.08553e-08
-5.81599e-07
8.60906e-08
-6.13325e-07
1.69159e-07
-4.97144e-07
2.28608e-07
-2.9635e-07
2.48855e-07
-1.18769e-07
2.42317e-07
1.38119e-08
2.27207e-07
6.68251e-08
2.08104e-07
8.43163e-08
1.89375e-07
8.87283e-08
1.65597e-07
1.02207e-07
1.40135e-07
1.17336e-07
1.16702e-07
1.23105e-07
9.51099e-08
1.21813e-07
7.61455e-08
1.26573e-07
5.69909e-08
1.32452e-07
3.82292e-08
1.31675e-07
1.90905e-08
1.38165e-07
1.70497e-07
3.54306e-08
-2.75528e-07
-1.00702e-08
7.92295e-08
-4.85293e-07
1.1187e-07
-6.07346e-07
1.26861e-07
-6.201e-07
2.01635e-07
-5.56845e-07
2.62286e-07
-3.24006e-07
2.818e-07
-1.08985e-07
2.69052e-07
4.22402e-08
2.44266e-07
9.98851e-08
2.15939e-07
1.18342e-07
1.90935e-07
1.18245e-07
1.63748e-07
1.33266e-07
1.37658e-07
1.48128e-07
1.13626e-07
1.53293e-07
9.14457e-08
1.52679e-07
7.2573e-08
1.58458e-07
5.43784e-08
1.65547e-07
3.64653e-08
1.65508e-07
1.83769e-08
1.71971e-07
2.06922e-07
5.27664e-08
-3.15801e-07
-1.25937e-08
1.19529e-07
-5.47368e-07
1.83824e-07
-6.5467e-07
1.95308e-07
-6.08268e-07
2.50076e-07
-5.88033e-07
3.02102e-07
-3.35311e-07
3.15306e-07
-7.8904e-08
2.94371e-07
8.81238e-08
2.60548e-07
1.46816e-07
2.22418e-07
1.64783e-07
1.91756e-07
1.54357e-07
1.62581e-07
1.66393e-07
1.33922e-07
1.81767e-07
1.10281e-07
1.85186e-07
8.78091e-08
1.84585e-07
6.89958e-08
1.89836e-07
5.15333e-08
1.98191e-07
3.47349e-08
1.9889e-07
1.76754e-08
2.05563e-07
2.42434e-07
5.7499e-08
-3.60863e-07
-1.29565e-08
1.22361e-07
-6.01644e-07
1.93903e-07
-7.07027e-07
2.3326e-07
-6.18913e-07
2.80196e-07
-6.03681e-07
3.35763e-07
-3.4766e-07
3.43514e-07
-2.91871e-08
3.15167e-07
1.54579e-07
2.76348e-07
2.03295e-07
2.33514e-07
2.18654e-07
1.9705e-07
1.97091e-07
1.6487e-07
2.0435e-07
1.34743e-07
2.17981e-07
1.08842e-07
2.20186e-07
8.66312e-08
2.17139e-07
6.75669e-08
2.22027e-07
4.99269e-08
2.31606e-07
3.37858e-08
2.32406e-07
1.74021e-08
2.40005e-07
2.79037e-07
3.23018e-08
-3.51288e-07
-1.05513e-08
6.61283e-08
-5.81673e-07
1.31952e-07
-7.35111e-07
2.18973e-07
-6.77293e-07
2.7823e-07
-6.44569e-07
3.37917e-07
-3.68945e-07
3.47903e-07
2.46341e-08
3.22525e-07
2.24775e-07
2.8022e-07
2.70941e-07
2.36916e-07
2.77603e-07
1.98556e-07
2.43978e-07
1.64824e-07
2.45714e-07
1.34677e-07
2.56164e-07
1.07846e-07
2.55417e-07
8.50586e-08
2.51494e-07
6.5928e-08
2.5489e-07
4.79804e-08
2.66071e-07
3.19533e-08
2.66602e-07
1.67663e-08
2.75348e-07
3.17831e-07
1.90843e-08
-3.52915e-07
-6.55493e-09
2.94221e-08
-5.72714e-07
5.49338e-08
-7.30949e-07
1.3238e-07
-7.31151e-07
1.96319e-07
-6.62423e-07
3.11314e-07
-4.3782e-07
3.33659e-07
6.14325e-08
3.08019e-07
2.86265e-07
2.65297e-07
3.38206e-07
2.25143e-07
3.32561e-07
1.88606e-07
2.91438e-07
1.56349e-07
2.87491e-07
1.27267e-07
2.94227e-07
1.01823e-07
2.9031e-07
7.95783e-08
2.83654e-07
6.04373e-08
2.87379e-07
4.309e-08
2.98988e-07
2.82133e-08
3.01161e-07
1.46803e-08
3.10834e-07
3.56712e-07
2.08456e-08
-3.73041e-07
-5.25806e-09
3.92925e-08
-6.03795e-07
4.89282e-08
-7.37822e-07
6.10981e-08
-7.2361e-07
1.14954e-07
-6.93497e-07
2.12984e-07
-5.07388e-07
2.51654e-07
6.43295e-08
2.50498e-07
3.0465e-07
2.2277e-07
3.87216e-07
1.93251e-07
3.76521e-07
1.6294e-07
3.32647e-07
1.35515e-07
3.23653e-07
1.10113e-07
3.27809e-07
8.79037e-08
3.21354e-07
6.86805e-08
3.12285e-07
5.07542e-08
3.15487e-07
3.56673e-08
3.28989e-07
2.28651e-08
3.33149e-07
1.09186e-08
3.43903e-07
3.92489e-07
1.44833e-08
-3.85962e-07
-3.5744e-09
2.9515e-08
-6.20127e-07
3.80405e-08
-7.46251e-07
5.53762e-08
-7.4419e-07
7.94002e-08
-7.21188e-07
1.01436e-07
-5.23466e-07
1.41489e-07
4.26487e-08
1.55967e-07
3.09174e-07
1.48515e-07
4.11833e-07
1.33647e-07
3.99774e-07
1.14175e-07
3.59414e-07
9.73122e-08
3.45703e-07
7.99137e-08
3.50724e-07
6.42532e-08
3.43166e-07
5.01234e-08
3.33475e-07
3.67751e-08
3.3698e-07
2.46603e-08
3.52708e-07
1.52427e-08
3.58203e-07
6.62354e-09
3.72244e-07
4.23087e-07
1.36292e-09
-3.83037e-07
-1.35195e-09
-5.37672e-10
-6.11778e-07
2.38915e-09
-7.48432e-07
2.7199e-08
-7.67306e-07
2.51543e-08
-7.17211e-07
1.26972e-08
-5.07473e-07
3.80072e-08
1.59264e-08
5.07465e-08
3.03819e-07
6.16531e-08
4.04652e-07
6.46227e-08
3.98122e-07
5.98853e-08
3.66411e-07
5.50757e-08
3.51243e-07
4.67284e-08
3.60441e-07
3.87508e-08
3.53059e-07
3.04975e-08
3.45043e-07
2.20247e-08
3.50026e-07
1.40574e-08
3.68631e-07
8.23782e-09
3.75597e-07
3.02517e-09
3.93752e-07
4.47886e-07
-4.22585e-09
-3.78308e-07
6.22613e-10
-9.76006e-09
-6.13716e-07
-1.73402e-08
-7.50026e-07
-2.25057e-08
-7.67327e-07
-3.99806e-08
-6.97244e-07
-7.22598e-08
-4.77979e-07
-6.21399e-08
-8.08625e-09
-4.28808e-08
2.76496e-07
-1.3665e-08
3.68488e-07
-3.34204e-09
3.85113e-07
6.83075e-09
3.54533e-07
1.15521e-08
3.42432e-07
1.25038e-08
3.56092e-07
1.19631e-08
3.50818e-07
9.63163e-09
3.46262e-07
6.28957e-09
3.53788e-07
3.42327e-09
3.74719e-07
3.316e-10
3.86855e-07
-5.81929e-10
4.05152e-07
4.66361e-07
-6.02696e-09
-3.81377e-07
1.90377e-09
-1.37897e-08
-6.12976e-07
-2.84403e-08
-7.4182e-07
-5.62108e-08
-7.43006e-07
-8.80899e-08
-6.75633e-07
-1.35266e-07
-4.43945e-07
-1.45719e-07
-2.42166e-08
-1.19216e-07
2.31818e-07
-8.41454e-08
3.22858e-07
-5.89606e-08
3.50231e-07
-3.97737e-08
3.27136e-07
-2.76849e-08
3.22976e-07
-1.9294e-08
3.39953e-07
-1.37123e-08
3.38616e-07
-1.05038e-08
3.3726e-07
-9.16479e-09
3.49322e-07
-8.01037e-09
3.70688e-07
-6.64286e-09
3.8981e-07
-4.57608e-09
4.08668e-07
4.75572e-07
-7.9537e-09
-3.82319e-07
2.75706e-09
-2.20963e-08
-6.03987e-07
-4.57447e-08
-7.25138e-07
-8.74762e-08
-7.14305e-07
-1.32289e-07
-6.49437e-07
-1.88202e-07
-4.13872e-07
-2.0501e-07
-4.75202e-08
-1.84684e-07
1.81878e-07
-1.54716e-07
2.70477e-07
-1.20431e-07
3.03208e-07
-8.96836e-08
2.86532e-07
-6.71843e-08
2.92103e-07
-5.19891e-08
3.11813e-07
-4.05841e-08
3.15479e-07
-3.1978e-08
3.186e-07
-2.52832e-08
3.34527e-07
-1.97102e-08
3.58922e-07
-1.42266e-08
3.82271e-07
-8.13381e-09
4.04061e-07
4.74285e-07
-1.28004e-08
-3.71671e-07
3.50921e-09
-3.21761e-08
-5.87129e-07
-6.94307e-08
-6.95438e-07
-1.27981e-07
-6.69296e-07
-1.85043e-07
-6.13653e-07
-2.44761e-07
-3.86703e-07
-2.5669e-07
-8.67334e-08
-2.39631e-07
1.1156e-07
-2.11387e-07
2.10297e-07
-1.75579e-07
2.44434e-07
-1.39637e-07
2.32239e-07
-1.10932e-07
2.46771e-07
-8.61968e-08
2.726e-07
-6.68052e-08
2.82883e-07
-5.23542e-08
2.93756e-07
-4.11609e-08
3.11276e-07
-3.12026e-08
3.37111e-07
-2.16472e-08
3.62448e-07
-1.18452e-08
3.86587e-07
4.5918e-07
-1.6537e-08
-3.58169e-07
3.54262e-09
-3.86259e-08
-5.72096e-07
-7.88134e-08
-6.69212e-07
-1.47502e-07
-6.16501e-07
-2.20692e-07
-5.6639e-07
-2.79755e-07
-3.6271e-07
-2.94037e-07
-1.1605e-07
-2.67602e-07
4.67632e-08
-2.32229e-07
1.42869e-07
-2.04024e-07
1.84092e-07
-1.74523e-07
1.73349e-07
-1.46664e-07
1.95254e-07
-1.18562e-07
2.23616e-07
-9.3828e-08
2.41728e-07
-7.31583e-08
2.56271e-07
-5.62938e-08
2.78602e-07
-4.20987e-08
3.09719e-07
-2.77695e-08
3.38457e-07
-1.43604e-08
3.63711e-07
4.35541e-07
-1.57236e-08
-3.5184e-07
3.87729e-09
-3.8916e-08
-5.54647e-07
-7.2125e-08
-6.45797e-07
-1.36421e-07
-5.64685e-07
-2.17559e-07
-5.06303e-07
-2.68952e-07
-3.39067e-07
-2.88331e-07
-1.35437e-07
-2.72517e-07
5.39378e-09
-2.40165e-07
9.26911e-08
-2.04293e-07
1.31843e-07
-1.73851e-07
1.25089e-07
-1.50212e-07
1.48564e-07
-1.29913e-07
1.76601e-07
-1.09806e-07
1.95323e-07
-8.94833e-08
2.1459e-07
-6.87985e-08
2.39971e-07
-5.01847e-08
2.73942e-07
-3.31559e-08
3.04593e-07
-1.7241e-08
3.32936e-07
4.04817e-07
-1.40969e-08
-3.46222e-07
4.1008e-09
-3.36817e-08
-5.37695e-07
-6.21282e-08
-6.21741e-07
-1.09639e-07
-5.26498e-07
-1.94952e-07
-4.36809e-07
-2.41968e-07
-3.17547e-07
-2.66953e-07
-1.44579e-07
-2.62739e-07
-2.20037e-08
-2.4011e-07
5.6525e-08
-2.0768e-07
9.03132e-08
-1.77697e-07
8.80755e-08
-1.53089e-07
1.14333e-07
-1.2916e-07
1.385e-07
-1.0864e-07
1.56669e-07
-9.11384e-08
1.75465e-07
-7.33518e-08
1.99772e-07
-5.69745e-08
2.32129e-07
-3.61448e-08
2.62652e-07
-1.83161e-08
2.94084e-07
3.64353e-07
-1.30068e-08
-3.34329e-07
3.64034e-09
-2.80375e-08
-5.24104e-07
-5.0924e-08
-6.00995e-07
-8.99256e-08
-4.91039e-07
-1.64933e-07
-3.72203e-07
-2.07935e-07
-2.93822e-07
-2.36287e-07
-1.41614e-07
-2.39655e-07
-3.62628e-08
-2.25372e-07
3.07922e-08
-2.01333e-07
5.87799e-08
-1.77018e-07
5.91055e-08
-1.53146e-07
8.724e-08
-1.30518e-07
1.1046e-07
-1.09166e-07
1.28082e-07
-8.93223e-08
1.47514e-07
-7.1482e-08
1.68877e-07
-5.47769e-08
1.96402e-07
-3.77046e-08
2.22686e-07
-2.04321e-08
2.51933e-07
3.18408e-07
-1.39664e-08
-3.24236e-07
3.30667e-09
-2.77359e-08
-5.10277e-07
-4.55749e-08
-5.85131e-07
-7.03572e-08
-4.68241e-07
-1.28515e-07
-3.21599e-07
-1.71837e-07
-2.65037e-07
-2.01061e-07
-1.32512e-07
-2.0729e-07
-4.26141e-08
-1.97403e-07
1.30723e-08
-1.80633e-07
3.65759e-08
-1.62883e-07
3.75533e-08
-1.44657e-07
6.53704e-08
-1.24948e-07
8.69808e-08
-1.04335e-07
1.04e-07
-8.55652e-08
1.22649e-07
-6.86773e-08
1.40739e-07
-5.25009e-08
1.67463e-07
-3.38689e-08
1.9115e-07
-1.75898e-08
2.1811e-07
2.76263e-07
-1.31894e-08
-3.13881e-07
3.37255e-09
-2.68879e-08
-4.95462e-07
-4.14715e-08
-5.71113e-07
-5.2996e-08
-4.57602e-07
-9.19648e-08
-2.87247e-07
-1.36494e-07
-2.31277e-07
-1.65085e-07
-1.19867e-07
-1.73089e-07
-4.51535e-08
-1.67339e-07
-1.08797e-09
-1.55751e-07
1.78431e-08
-1.43278e-07
1.8733e-08
-1.29955e-07
4.55003e-08
-1.13844e-07
6.43034e-08
-9.67663e-08
8.03459e-08
-8.0437e-08
9.81216e-08
-6.42285e-08
1.14349e-07
-4.8707e-08
1.38547e-07
-3.16978e-08
1.57666e-07
-1.74859e-08
1.83275e-07
2.36699e-07
-1.30338e-08
-3.03453e-07
3.15809e-09
-2.65714e-08
-4.81328e-07
-3.98186e-08
-5.57433e-07
-4.78906e-08
-4.50333e-07
-7.54247e-08
-2.63161e-07
-1.14856e-07
-2.00838e-07
-1.38755e-07
-1.09278e-07
-1.4575e-07
-4.70899e-08
-1.43124e-07
-1.22454e-08
-1.35836e-07
1.50645e-09
-1.26854e-07
1.10553e-09
-1.15991e-07
2.56907e-08
-1.02389e-07
4.12462e-08
-8.82273e-08
5.60602e-08
-7.35787e-08
7.24494e-08
-5.93578e-08
8.79433e-08
-4.51684e-08
1.09429e-07
-3.12117e-08
1.26324e-07
-1.77821e-08
1.51383e-07
2.00674e-07
-1.34953e-08
-2.92843e-07
3.41827e-09
-2.89076e-08
-4.65977e-07
-4.35571e-08
-5.42886e-07
-5.15936e-08
-4.4397e-07
-7.04908e-08
-2.45907e-07
-1.03464e-07
-1.75886e-07
-1.22781e-07
-1.01484e-07
-1.28127e-07
-4.99246e-08
-1.26286e-07
-2.14078e-08
-1.20043e-07
-1.21775e-08
-1.12612e-07
-1.38341e-08
-1.03421e-07
8.16969e-09
-9.25246e-08
2.06002e-08
-8.03652e-08
3.23393e-08
-6.74532e-08
4.68867e-08
-5.47511e-08
6.07822e-08
-4.11424e-08
7.88025e-08
-2.81123e-08
9.51485e-08
-1.53864e-08
1.18086e-07
1.59399e-07
-1.47549e-08
-2.82496e-07
3.97512e-09
-3.13834e-08
-4.50322e-07
-4.8388e-08
-5.27432e-07
-6.01802e-08
-4.36239e-07
-7.22965e-08
-2.34516e-07
-9.69865e-08
-1.59679e-07
-1.11455e-07
-9.72992e-08
-1.15155e-07
-5.36281e-08
-1.11817e-07
-3.0721e-08
-1.05673e-07
-2.40995e-08
-9.96043e-08
-2.55063e-08
-9.10756e-08
-6.41865e-09
-8.16028e-08
3.31644e-09
-7.06977e-08
1.15928e-08
-5.95742e-08
2.3956e-08
-4.89818e-08
3.56957e-08
-3.73018e-08
5.00483e-08
-2.54371e-08
6.48099e-08
-1.34149e-08
8.58874e-08
1.23428e-07
-1.69756e-08
-2.70966e-07
4.5551e-09
-3.57037e-08
-4.33678e-07
-5.46546e-08
-5.11397e-07
-6.72349e-08
-4.28588e-07
-7.51195e-08
-2.30463e-07
-9.14414e-08
-1.52813e-07
-9.78703e-08
-1.00797e-07
-1.00393e-07
-5.78673e-08
-9.59801e-08
-4.09063e-08
-9.07689e-08
-3.46756e-08
-8.55439e-08
-3.56344e-08
-7.84188e-08
-1.89756e-08
-6.91893e-08
-1.19e-08
-5.95082e-08
-5.60374e-09
-5.00269e-08
4.66928e-09
-4.09075e-08
1.41055e-08
-3.12789e-08
2.50019e-08
-2.19781e-08
3.78754e-08
-1.23188e-08
5.63361e-08
8.97338e-08
-1.77204e-08
-2.59116e-07
4.54826e-09
-3.69648e-08
-4.17324e-07
-5.92555e-08
-4.92684e-07
-7.31496e-08
-4.2031e-07
-7.85562e-08
-2.3309e-07
-8.55506e-08
-1.56876e-07
-8.86471e-08
-1.08204e-07
-8.60789e-08
-6.75211e-08
-8.1452e-08
-5.18922e-08
-7.62784e-08
-4.60987e-08
-7.12525e-08
-4.66043e-08
-6.47275e-08
-3.16628e-08
-5.70329e-08
-2.66883e-08
-4.93117e-08
-2.07185e-08
-4.09435e-08
-1.16029e-08
-3.2876e-08
-4.39179e-09
-2.50001e-08
3.56202e-09
-1.76891e-08
1.45971e-08
-1.02249e-08
3.04844e-08
5.91801e-08
-1.83884e-08
-2.47103e-07
4.77014e-09
-3.78793e-08
-4.00849e-07
-6.13968e-08
-4.7291e-07
-7.60089e-08
-4.11371e-07
-8.03004e-08
-2.37601e-07
-8.17564e-08
-1.65502e-07
-8.15991e-08
-1.18464e-07
-7.49593e-08
-8.19828e-08
-6.95203e-08
-6.4518e-08
-6.38882e-08
-5.89591e-08
-5.89781e-08
-5.8576e-08
-5.28301e-08
-4.51119e-08
-4.65081e-08
-4.12185e-08
-4.01174e-08
-3.57092e-08
-3.39739e-08
-2.71774e-08
-2.7403e-08
-2.09171e-08
-2.09235e-08
-1.47863e-08
-1.47124e-08
-5.77438e-09
-8.57969e-09
8.13983e-09
3.25609e-08
-1.97971e-08
-2.33904e-07
5.28511e-09
-4.0454e-08
-3.82875e-07
-6.34478e-08
-4.54076e-07
-7.69827e-08
-4.01987e-07
-7.91324e-08
-2.43253e-07
-7.72899e-08
-1.76103e-07
-7.48619e-08
-1.30023e-07
-6.66463e-08
-9.77742e-08
-6.06759e-08
-7.78075e-08
-5.5188e-08
-7.21528e-08
-5.05876e-08
-7.08184e-08
-4.44876e-08
-5.94327e-08
-3.92082e-08
-5.58717e-08
-3.38101e-08
-5.14114e-08
-2.88623e-08
-4.29293e-08
-2.36832e-08
-3.79238e-08
-1.89039e-08
-3.3267e-08
-1.37374e-08
-2.45698e-08
-8.08878e-09
-1.2079e-08
7.80102e-09
-2.13963e-08
-2.19024e-07
5.63907e-09
-4.37655e-08
-3.62654e-07
-6.63128e-08
-4.34914e-07
-7.80466e-08
-3.9343e-07
-7.7088e-08
-2.50556e-07
-7.3588e-08
-1.8661e-07
-6.79539e-08
-1.4322e-07
-5.89971e-08
-1.12748e-07
-5.31386e-08
-8.97478e-08
-4.79232e-08
-8.41801e-08
-4.34826e-08
-8.26541e-08
-3.7425e-08
-7.3964e-08
-3.30003e-08
-7.0442e-08
-2.83397e-08
-6.75113e-08
-2.45215e-08
-5.92644e-08
-2.06597e-08
-5.5571e-08
-1.70489e-08
-5.22387e-08
-1.29764e-08
-4.40326e-08
-8.14953e-09
-3.20578e-08
-1.6021e-08
-2.12526e-08
-2.04123e-07
5.94277e-09
-4.17736e-08
-3.44021e-07
-6.18008e-08
-4.17758e-07
-7.11233e-08
-3.87535e-07
-6.8323e-08
-2.56635e-07
-6.39038e-08
-1.96037e-07
-5.44252e-08
-1.57992e-07
-4.59164e-08
-1.25244e-07
-3.97293e-08
-9.98183e-08
-3.52113e-08
-9.26094e-08
-3.11642e-08
-9.16674e-08
-2.59164e-08
-8.54886e-08
-2.25296e-08
-8.22205e-08
-1.90796e-08
-8.11336e-08
-1.66988e-08
-7.3536e-08
-1.44064e-08
-7.10718e-08
-1.23854e-08
-6.99344e-08
-9.74417e-09
-6.19092e-08
-6.61958e-09
-5.12776e-08
-3.90117e-08
-1.74666e-08
-1.91812e-07
5.19448e-09
-3.18905e-08
-3.30824e-07
-4.75119e-08
-4.03803e-07
-5.46554e-08
-3.82026e-07
-4.69989e-08
-2.63048e-07
-4.20672e-08
-2.02423e-07
-3.18695e-08
-1.69551e-07
-2.61291e-08
-1.28848e-07
-1.99517e-08
-1.04922e-07
-1.72923e-08
-9.41865e-08
-1.39429e-08
-9.70806e-08
-1.0549e-08
-9.0276e-08
-8.29325e-09
-8.89494e-08
-6.80941e-09
-8.82505e-08
-5.58824e-09
-8.28179e-08
-4.56963e-09
-8.11879e-08
-4.72685e-09
-8.33815e-08
-3.70476e-09
-7.62182e-08
-3.33347e-09
-6.79142e-08
-5.89487e-08
-1.38966e-08
-1.81109e-07
3.88622e-09
-2.54232e-08
-3.20246e-07
-3.40585e-08
-3.94186e-07
-3.47731e-08
-3.80163e-07
-1.96656e-08
-2.76316e-07
-1.23795e-08
-2.03983e-07
-4.97699e-09
-1.72429e-07
-1.84283e-09
-1.27945e-07
-3.25497e-10
-1.02232e-07
2.38562e-09
-9.31671e-08
2.97077e-09
-9.35408e-08
5.23828e-09
-9.04187e-08
5.97924e-09
-8.79438e-08
6.17386e-09
-8.89917e-08
6.06173e-09
-8.58149e-08
5.17705e-09
-8.61721e-08
3.60475e-09
-9.015e-08
2.37337e-09
-8.69274e-08
3.43337e-11
-7.97463e-08
-7.51204e-08
-9.97253e-09
-1.72407e-07
3.00883e-09
-1.91286e-08
-3.08874e-07
-2.02275e-08
-3.92439e-07
-1.18188e-08
-3.88527e-07
9.55143e-09
-2.95985e-07
2.06011e-08
-2.05569e-07
2.30793e-08
-1.6765e-07
2.31466e-08
-1.21615e-07
2.14905e-08
-9.38636e-08
2.14344e-08
-8.71428e-08
2.0593e-08
-8.70033e-08
2.12491e-08
-8.73177e-08
2.03751e-08
-8.31847e-08
1.86593e-08
-8.61277e-08
1.75208e-08
-8.40625e-08
1.4518e-08
-8.65303e-08
1.22499e-08
-9.11764e-08
7.52039e-09
-9.27966e-08
4.56283e-09
-8.57402e-08
-8.60265e-08
-2.92668e-09
-1.69694e-07
1.50546e-09
-5.31443e-09
-3.04624e-07
2.27325e-09
-3.97542e-07
1.77901e-08
-4.02149e-07
3.90433e-08
-3.15873e-07
5.09881e-08
-2.08635e-07
5.25982e-08
-1.57659e-07
4.96133e-08
-1.10373e-07
4.42662e-08
-8.10868e-08
4.12353e-08
-7.7047e-08
3.78647e-08
-7.68866e-08
3.61581e-08
-7.98578e-08
3.38053e-08
-7.59519e-08
3.03423e-08
-7.91144e-08
2.68605e-08
-7.91319e-08
2.2327e-08
-8.26263e-08
1.79737e-08
-8.81814e-08
1.16601e-08
-9.25482e-08
6.90303e-09
-8.62872e-08
-8.92527e-08
6.97022e-09
-1.75044e-07
-7.66812e-10
1.49341e-08
-3.09497e-07
3.02154e-08
-4.05732e-07
5.47279e-08
-4.18745e-07
7.42274e-08
-3.29329e-07
8.30739e-08
-2.05901e-07
8.46757e-08
-1.40169e-07
7.63778e-08
-8.92446e-08
6.70296e-08
-6.22086e-08
6.07845e-08
-6.22899e-08
5.429e-08
-6.32485e-08
4.95129e-08
-6.83092e-08
4.46982e-08
-6.49864e-08
3.90045e-08
-6.89996e-08
3.40305e-08
-7.07384e-08
2.79931e-08
-7.46251e-08
2.17518e-08
-8.17238e-08
1.46953e-08
-8.68567e-08
7.87065e-09
-8.20864e-08
-8.57006e-08
1.92847e-08
-1.8823e-07
-4.298e-09
4.13007e-08
-3.25812e-07
6.50092e-08
-4.16468e-07
9.45364e-08
-4.33009e-07
1.12597e-07
-3.3242e-07
1.13732e-07
-1.8968e-07
1.11234e-07
-1.11644e-07
9.9419e-08
-5.98539e-08
8.66964e-08
-3.64203e-08
7.67137e-08
-4.12382e-08
6.76548e-08
-4.49859e-08
6.0151e-08
-5.30654e-08
5.23048e-08
-5.05554e-08
4.47558e-08
-5.57757e-08
3.8385e-08
-6.02259e-08
3.13117e-08
-6.48827e-08
2.43602e-08
-7.2611e-08
1.63376e-08
-7.76224e-08
8.34396e-09
-7.39568e-08
-7.70428e-08
2.47151e-08
-1.97647e-07
-8.01092e-09
5.17361e-08
-3.38933e-07
8.54425e-08
-4.24749e-07
1.15255e-07
-4.25834e-07
1.32095e-07
-3.2438e-07
1.30497e-07
-1.67176e-07
1.2561e-07
-7.70287e-08
1.14355e-07
-2.51046e-08
1.00774e-07
-7.51088e-09
8.7587e-08
-1.58139e-08
7.5544e-08
-2.33593e-08
6.61327e-08
-3.53779e-08
5.70734e-08
-3.40102e-08
4.79522e-08
-4.07544e-08
4.04123e-08
-4.78248e-08
3.31809e-08
-5.34067e-08
2.56876e-08
-6.1555e-08
1.70409e-08
-6.64645e-08
8.7782e-09
-6.32928e-08
-6.55158e-08
1.42467e-08
-1.99696e-07
-5.43405e-09
2.70729e-08
-3.36046e-07
4.75513e-08
-4.28391e-07
7.45419e-08
-4.30281e-07
1.19196e-07
-3.37636e-07
1.25192e-07
-1.46292e-07
1.20706e-07
-4.28454e-08
1.13699e-07
6.83276e-09
1.0101e-07
2.13748e-08
8.918e-08
1.09623e-08
7.71017e-08
-4.62001e-10
6.62378e-08
-1.55391e-08
5.62744e-08
-1.62654e-08
4.76036e-08
-2.57756e-08
3.95907e-08
-3.45924e-08
3.21476e-08
-4.16116e-08
2.47206e-08
-5.03566e-08
1.64752e-08
-5.47355e-08
8.62949e-09
-5.18903e-08
-5.30501e-08
9.35717e-09
-2.06084e-07
-2.21083e-09
1.46015e-08
-3.36515e-07
1.62087e-08
-4.26025e-07
3.34438e-08
-4.3895e-07
7.58673e-08
-3.56312e-07
8.81144e-08
-1.39157e-07
9.25938e-08
-3.12969e-08
8.92442e-08
2.74946e-08
8.40973e-08
4.06177e-08
7.30884e-08
3.28365e-08
6.27941e-08
1.84642e-08
5.4869e-08
2.81756e-10
4.80105e-08
-1.82486e-09
4.17383e-08
-1.30256e-08
3.46598e-08
-2.25969e-08
2.79606e-08
-3.05149e-08
2.16728e-08
-4.02384e-08
1.45576e-08
-4.4216e-08
7.73861e-09
-4.16571e-08
-4.14925e-08
6.1748e-09
-2.11963e-07
-1.11e-09
1.09635e-08
-3.4351e-07
1.19121e-08
-4.31038e-07
1.09258e-08
-4.42338e-07
2.29218e-08
-3.64374e-07
4.52647e-08
-1.53744e-07
5.00004e-08
-2.72075e-08
5.12714e-08
3.65026e-08
5.04811e-08
4.84408e-08
4.44109e-08
4.48118e-08
3.98386e-08
2.841e-08
3.54926e-08
1.02991e-08
3.19213e-08
6.85876e-09
2.87003e-08
-5.13507e-09
2.49028e-08
-1.47927e-08
2.04071e-08
-2.23038e-08
1.63403e-08
-3.26681e-08
1.11274e-08
-3.58705e-08
6.01123e-09
-3.36251e-08
-3.24425e-08
-2.38286e-09
-2.08189e-07
-3.31847e-11
-2.8714e-09
-3.41014e-07
-4.27519e-09
-4.25352e-07
-9.33247e-09
-4.3709e-07
-1.51617e-08
-3.64956e-07
-1.59824e-09
-1.63116e-07
1.62221e-09
-2.90603e-08
8.43636e-09
3.17811e-08
8.77145e-09
4.91058e-08
9.75985e-09
4.66562e-08
1.07906e-08
3.02889e-08
1.08874e-08
1.34567e-08
1.21024e-08
8.72124e-09
1.21661e-08
-2.08253e-09
1.16506e-08
-1.12982e-08
1.05422e-08
-1.81239e-08
9.19616e-09
-2.85025e-08
6.58812e-09
-3.06946e-08
3.59647e-09
-2.82864e-08
-2.66911e-08
-9.31181e-09
-2.01126e-07
1.91814e-09
-2.01646e-08
-3.31349e-07
-3.1644e-08
-4.18314e-07
-4.30326e-08
-4.29076e-07
-6.09458e-08
-3.52697e-07
-5.7808e-08
-1.68791e-07
-5.01366e-08
-4.12908e-08
-3.9035e-08
1.76022e-08
-3.23659e-08
4.2117e-08
-2.50119e-08
4.12259e-08
-1.85104e-08
2.54166e-08
-1.42153e-08
1.01924e-08
-8.36137e-09
4.21366e-09
-4.71707e-09
-3.92417e-09
-2.09869e-09
-1.23506e-08
-3.81427e-11
-1.86577e-08
1.30498e-09
-2.79398e-08
1.84196e-09
-2.95721e-08
9.3052e-10
-2.56981e-08
-2.4038e-08
-1.31253e-08
-1.93052e-07
3.0708e-09
-2.96268e-08
-3.18811e-07
-5.18404e-08
-4.02206e-07
-7.43793e-08
-4.14568e-07
-1.01675e-07
-3.3618e-07
-1.06704e-07
-1.73475e-07
-9.94362e-08
-6.49322e-08
-8.80509e-08
-8.05109e-09
-7.50782e-08
2.21172e-08
-6.14985e-08
2.33984e-08
-4.94107e-08
1.0144e-08
-3.98595e-08
-1.58544e-09
-2.92987e-08
-7.06773e-09
-2.20754e-08
-1.16046e-08
-1.56546e-08
-1.89853e-08
-1.06141e-08
-2.36479e-08
-6.49191e-09
-3.08546e-08
-3.12735e-09
-3.20083e-08
-1.65225e-09
-2.62859e-08
-2.47228e-08
-1.66882e-08
-1.82389e-07
4.24521e-09
-3.79659e-08
-3.01618e-07
-6.97602e-08
-3.7761e-07
-1.04795e-07
-3.91111e-07
-1.37669e-07
-3.18273e-07
-1.48198e-07
-1.8018e-07
-1.3975e-07
-9.5729e-08
-1.2837e-07
-3.84304e-08
-1.12889e-07
-7.55645e-09
-9.52853e-08
-4.84428e-09
-7.87504e-08
-1.27875e-08
-6.29156e-08
-2.15403e-08
-4.88496e-08
-2.4519e-08
-3.80738e-08
-2.52754e-08
-2.91933e-08
-2.95493e-08
-2.08018e-08
-3.29437e-08
-1.43284e-08
-3.75248e-08
-7.96469e-09
-3.80595e-08
-4.34246e-09
-3.02372e-08
-2.86814e-08
-2.12965e-08
-1.68271e-07
5.40228e-09
-4.84088e-08
-2.77544e-07
-8.45332e-08
-3.47201e-07
-1.2515e-07
-3.60659e-07
-1.58217e-07
-2.99613e-07
-1.70233e-07
-1.86378e-07
-1.63365e-07
-1.22711e-07
-1.50399e-07
-6.73029e-08
-1.31072e-07
-3.84207e-08
-1.10991e-07
-3.29868e-08
-9.42017e-08
-3.65631e-08
-7.70532e-08
-4.44059e-08
-6.24631e-08
-4.40259e-08
-4.96505e-08
-4.02593e-08
-3.92524e-08
-4.20944e-08
-2.85638e-08
-4.5183e-08
-2.0513e-08
-4.71866e-08
-1.24854e-08
-4.75997e-08
-6.54453e-09
-3.76513e-08
-3.58561e-08
-2.3674e-08
-1.52286e-07
5.87515e-09
-5.36278e-08
-2.51867e-07
-9.08051e-08
-3.16824e-07
-1.30111e-07
-3.30911e-07
-1.59052e-07
-2.81877e-07
-1.71185e-07
-1.90453e-07
-1.66464e-07
-1.43341e-07
-1.53032e-07
-9.23075e-08
-1.32997e-07
-6.6437e-08
-1.13725e-07
-5.87111e-08
-9.70203e-08
-5.8343e-08
-8.06084e-08
-6.5666e-08
-6.67313e-08
-6.24177e-08
-5.42238e-08
-5.59466e-08
-4.34522e-08
-5.51949e-08
-3.25356e-08
-5.83266e-08
-2.3994e-08
-5.80484e-08
-1.53753e-08
-5.84461e-08
-8.01436e-09
-4.75173e-08
-4.62535e-08
-2.23144e-08
-1.34862e-07
5.61625e-09
-4.91227e-08
-2.24995e-07
-8.26051e-08
-2.86979e-07
-1.18427e-07
-3.01984e-07
-1.46537e-07
-2.60811e-07
-1.5706e-07
-1.90382e-07
-1.541e-07
-1.57651e-07
-1.40915e-07
-1.13747e-07
-1.21982e-07
-9.08928e-08
-1.04839e-07
-7.97928e-08
-8.93565e-08
-7.74388e-08
-7.4609e-08
-8.432e-08
-6.19055e-08
-7.99845e-08
-5.08173e-08
-7.20058e-08
-4.13499e-08
-6.80954e-08
-3.15599e-08
-7.07075e-08
-2.33538e-08
-6.84259e-08
-1.5581e-08
-6.83675e-08
-8.37748e-09
-5.75394e-08
-5.76433e-08
-1.80372e-08
-1.20876e-07
4.90394e-09
-3.91828e-08
-2.03472e-07
-6.62796e-08
-2.6018e-07
-9.69485e-08
-2.70314e-07
-1.22881e-07
-2.41933e-07
-1.32479e-07
-1.8731e-07
-1.28468e-07
-1.66568e-07
-1.14432e-07
-1.30306e-07
-9.89163e-08
-1.07186e-07
-8.59846e-08
-9.23983e-08
-7.15421e-08
-9.11343e-08
-5.84069e-08
-9.66445e-08
-4.71179e-08
-9.01175e-08
-3.7177e-08
-8.39405e-08
-3.08213e-08
-7.88586e-08
-2.40242e-08
-8.07673e-08
-1.81355e-08
-7.65812e-08
-1.27037e-08
-7.57731e-08
-7.18021e-09
-6.50367e-08
-6.64199e-08
-1.40115e-08
-1.10533e-07
3.90988e-09
-2.99102e-08
-1.88151e-07
-4.96246e-08
-2.40517e-07
-7.10903e-08
-2.48635e-07
-8.93101e-08
-2.25874e-07
-9.45452e-08
-1.86718e-07
-9.1253e-08
-1.7172e-07
-7.86577e-08
-1.43629e-07
-6.88731e-08
-1.16445e-07
-5.85282e-08
-1.01634e-07
-4.59192e-08
-1.02088e-07
-3.58903e-08
-1.05517e-07
-2.80567e-08
-9.72554e-08
-1.98217e-08
-8.94951e-08
-1.42924e-08
-8.19773e-08
-1.05707e-08
-8.44863e-08
-7.69608e-09
-8.02777e-08
-5.6428e-09
-7.85372e-08
-3.24655e-09
-6.89143e-08
-7.13368e-08
-1.3052e-08
-1.03244e-07
3.44041e-09
-2.77007e-08
-1.77414e-07
-4.37655e-08
-2.27929e-07
-5.4453e-08
-2.3825e-07
-6.23899e-08
-2.16801e-07
-5.87337e-08
-1.93055e-07
-5.39874e-08
-1.77e-07
-4.1542e-08
-1.54123e-07
-3.33317e-08
-1.22229e-07
-2.37959e-08
-1.09254e-07
-1.44053e-08
-1.09319e-07
-8.12527e-09
-1.08555e-07
-1.83351e-09
-9.99546e-08
2.23735e-09
-9.11481e-08
4.9303e-09
-8.22822e-08
5.69364e-09
-8.39111e-08
4.54538e-09
-7.80992e-08
2.98777e-09
-7.71584e-08
1.27094e-09
-6.65896e-08
-7.0532e-08
-1.30642e-08
-9.36178e-08
3.37632e-09
-2.72139e-08
-1.62964e-07
-3.94453e-08
-2.15841e-07
-4.22586e-08
-2.38108e-07
-3.94513e-08
-2.18234e-07
-2.48245e-08
-2.05776e-07
-1.1034e-08
-1.91069e-07
3.35645e-09
-1.67965e-07
1.15362e-08
-1.27868e-07
1.89548e-08
-1.1352e-07
2.33306e-08
-1.09961e-07
2.54589e-08
-1.0776e-07
2.80056e-08
-9.91227e-08
2.76854e-08
-8.76179e-08
2.66406e-08
-7.80358e-08
2.298e-08
-7.74642e-08
1.82364e-08
-7.14903e-08
1.21849e-08
-6.95544e-08
6.26003e-09
-5.99033e-08
-6.38072e-08
-1.15032e-08
-8.32091e-08
2.6884e-09
-2.41857e-08
-1.48898e-07
-3.2279e-08
-2.06861e-07
-2.79347e-08
-2.4362e-07
-1.14703e-08