/*--------------------------------*- C++ -*----------------------------------*\
| =========                 |                                                 |
| \\      /  F ield         | OpenFOAM: The Open Source CFD Toolbox           |
|  \\    /   O peration     | Version:  2212                                  |
|   \\  /    A nd           | Website:  www.openfoam.com                      |
|    \\/     M anipulation  |                                                 |
\*---------------------------------------------------------------------------*/
FoamFile
{
    version     2.0;
    format      ascii;
    arch        "LSB;label=32;scalar=64";
    class       volScalarField;
    location    "0.005";
    object      p;
}
// * * * * * * * * * * * * * * * * * * * * * * * * * * * * * * * * * * * * * //

dimensions      [1 -1 -2 0 0 0 0];

internalField   nonuniform List<scalar> 
31661
(
662.367
485.056
484.834
484.952
486.151
485.93
486.049
487.243
487.017
487.144
658.859
524.868
716.88
648.291
656.955
654.908
655.682
657.534
535.003
653.987
552.476
551.19
643.006
651.862
493.644
553.817
642.745
639.695
525.149
525.871
651.367
558.54
558.53
553.073
503.912
650.382
559.853
650.296
641.226
561.335
547.346
481.822
649.511
569.674
572.686
533.289
571.242
577.076
561.001
644.267
545.072
642.963
538.185
575.725
634.627
524.286
542.387
546.467
436.983
535.373
531.681
531.26
568.834
474.881
577.165
649.922
693.814
438.021
439.092
440.127
519.787
441.579
442.577
443.584
444.59
445.598
446.612
447.631
448.655
449.684
450.717
451.748
452.777
453.805
453.881
452.857
451.83
450.8
449.77
448.747
447.73
446.722
445.721
444.726
443.743
442.774
441.83
440.925
440.023
439.061
438.079
437.128
436.232
435.529
435.329
434.535
434.379
433.516
433.397
432.497
432.405
431.48
431.406
430.462
430.4
429.44
429.389
428.415
428.372
427.384
427.348
426.349
426.318
425.309
425.282
424.263
424.238
423.209
423.186
422.146
422.126
421.075
421.055
419.995
419.975
418.905
418.886
417.804
417.786
416.692
416.674
415.567
415.55
414.43
414.413
413.281
413.263
412.118
412.101
410.942
410.925
409.752
409.734
408.548
408.53
407.331
407.312
406.098
406.08
404.851
404.833
403.588
403.571
402.309
402.292
401.013
400.998
399.702
399.686
398.359
398.372
398.383
399.712
401.025
402.32
403.6
404.863
406.111
407.344
408.562
409.765
410.954
412.129
413.291
414.44
415.576
416.699
417.811
418.911
420.001
421.081
422.153
423.217
424.273
425.323
426.368
427.408
428.445
429.479
430.51
431.539
432.571
433.609
434.657
435.733
436.847
437.966
439.096
440.189
441.304
442.377
443.415
444.445
445.472
446.499
447.528
448.56
454.904
454.833
449.595
450.629
451.662
452.694
453.729
455.862
455.928
455.998
454.975
453.951
452.926
451.902
450.876
449.851
448.833
447.821
446.817
445.821
444.83
443.849
442.879
441.916
440.961
440.008
439.052
438.094
437.144
436.195
435.237
434.275
433.304
432.322
431.333
430.337
429.334
428.323
427.304
426.279
425.246
424.205
423.156
422.096
421.027
419.948
418.859
417.759
416.648
415.525
414.388
413.239
412.077
410.901
409.712
408.508
407.29
406.058
404.812
403.55
402.272
400.979
399.669
398.343
397.001
397.015
397.027
397.035
397.04
398.386
399.715
401.026
402.32
403.599
404.862
406.11
407.342
408.56
409.763
410.951
412.126
413.287
414.436
415.571
416.695
417.806
418.906
419.996
421.076
422.148
423.212
424.268
425.319
426.364
427.405
428.443
429.48
430.517
431.556
432.6
433.647
434.698
435.761
436.829
437.92
439.023
440.118
441.167
442.225
443.273
444.316
445.354
446.391
447.429
448.468
449.505
450.541
454.765
451.578
452.617
453.658
457.021
456.953
455.804
456.894
458.047
458.119
457.093
456.067
455.041
454.015
452.988
451.964
450.941
449.919
448.904
447.894
446.89
445.891
444.898
443.912
442.93
441.951
440.975
440.007
439.047
438.086
437.123
436.155
435.185
434.213
433.237
432.254
431.267
430.274
429.274
428.268
427.253
426.232
425.202
424.163
423.115
422.057
420.989
419.912
418.824
417.725
416.614
415.492
414.357
413.208
412.046
410.872
409.684
408.481
407.263
406.032
404.787
403.526
402.25
400.958
399.65
398.326
396.985
395.63
395.643
395.655
395.665
395.672
395.676
395.676
397.038
398.383
399.711
401.022
402.317
403.596
404.858
406.105
407.337
408.554
409.757
410.944
412.117
413.277
414.424
415.558
416.68
417.791
418.891
419.98
421.06
422.131
423.195
424.252
425.303
426.35
427.393
428.433
429.473
430.512
431.553
432.598
433.647
434.702
435.755
436.806
437.868
438.937
440.005
441.058
442.108
443.156
444.201
445.245
446.29
447.333
448.374
449.414
450.455
451.499
454.702
452.543
453.591
457.981
459.147
459.075
455.749
456.844
457.927
460.177
460.255
459.222
458.19
457.159
456.128
455.098
454.068
453.04
452.013
450.989
449.967
448.951
447.94
446.934
445.934
444.938
443.948
442.96
441.973
440.99
440.009
439.041
438.07
437.097
436.121
435.145
434.166
433.185
432.2
431.209
430.213
429.212
428.206
427.195
426.177
425.15
424.113
423.067
422.01
420.943
419.867
418.781
417.683
416.573
415.452
414.318
413.171
412.01
410.837
409.65
408.449
407.233
406.003
404.759
403.5
402.225
400.935
399.629
398.306
396.969
395.616
394.251
394.261
394.271
394.279
394.287
394.293
394.297
394.297
394.295
395.672
397.033
398.376
399.703
401.014
402.307
403.585
404.846
406.092
407.323
408.539
409.74
410.926
412.098
413.256
414.401
415.534
416.655
417.765
418.863
419.952
421.031
422.102
423.165
424.221
425.272
426.319
427.362
428.403
429.443
430.484
431.524
432.567
433.611
434.657
435.702
436.75
437.801
438.854
439.906
440.955
442.001
443.047
444.093
445.141
446.189
447.234
448.278
449.325
450.374
451.423
452.472
454.643
453.526
459.012
460.107
455.697
461.289
461.211
456.799
457.885
458.964
462.327
462.41
461.37
460.331
459.293
458.256
457.218
456.181
455.145
454.11
453.078
452.049
451.023
450.001
448.984
447.971
446.962
445.956
444.957
443.959
442.964
441.974
440.986
440.004
439.028
438.049
437.07
436.09
435.108
434.125
433.139
432.15
431.157
430.159
429.156
428.149
427.137
426.118
425.092
424.056
423.012
421.957
420.891
419.815
418.73
417.633
416.525
415.404
414.272
413.127
411.968
410.796
409.611
408.412
407.198
405.97
404.727
403.47
402.197
400.909
399.605
398.285
396.951
395.602
394.24
392.863
392.871
392.878
392.884
392.89
392.894
392.898
392.901
392.903
392.902
394.29
395.665
397.023
398.365
399.69
400.998
402.291
403.566
404.826
406.071
407.3
408.514
409.713
410.898
412.068
413.225
414.368
415.5
416.619
417.728
418.825
419.912
420.991
422.06
423.122
424.178
425.228
426.274
427.317
428.358
429.397
430.436
431.476
432.514
433.553
434.592
435.632
436.674
437.717
438.762
439.807
440.852
441.896
442.941
443.988
445.037
446.086
447.134
448.184
449.238
450.294
451.347
452.404
454.584
453.464
392.899
454.528
460.049
455.646
461.145
456.755
462.252
457.851
463.451
463.368
458.93
460.007
464.495
464.585
463.539
462.493
461.447
460.402
459.357
458.312
457.268
456.225
455.183
454.144
453.109
452.077
451.048
450.023
449.002
447.984
446.97
445.962
444.958
443.959
442.963
441.97
440.979
439.993
439.009
438.025
437.041
436.056
435.07
434.083
433.094
432.102
431.106
430.106
429.102
428.092
427.078
426.057
425.029
423.993
422.949
421.896
420.831
419.757
418.672
417.576
416.469
415.35
414.219
413.075
411.919
410.749
409.565
408.368
407.157
405.932
404.691
403.435
402.164
400.879
399.578
398.262
396.931
395.586
394.226
392.852
391.464
391.472
391.477
391.481
391.485
391.487
391.488
391.49
391.492
391.493
391.494
391.493
392.894
394.282
395.653
397.009
398.348
399.671
400.977
402.267
403.541
404.799
406.042
407.269
408.481
409.678
410.861
412.03
413.184
414.326
415.456
416.574
417.68
418.776
419.862
420.94
422.009
423.07
424.125
425.174
426.218
427.26
428.3
429.338
430.375
431.411
432.445
433.478
434.512
435.548
436.584
437.623
438.664
439.705
440.746
441.789
442.834
443.882
444.932
445.983
447.035
448.091
449.151
450.21
451.269
452.335
453.403
454.473
391.49
455.549
455.595
461.093
456.712
462.189
457.819
463.296
458.905
464.414
459.98
465.631
465.541
461.057
390.062
390.067
390.069
390.07
390.071
390.07
390.069
390.069
390.069
390.07
390.07
390.071
390.072
391.487
392.886
394.27
395.638
396.989
398.325
399.646
400.95
402.238
403.509
404.765
406.005
407.23
408.44
409.635
410.816
411.982
413.135
414.275
415.403
416.519
417.624
418.718
419.803
420.878
421.946
423.007
424.06
425.109
426.153
427.193
428.231
429.266
430.299
431.33
432.361
433.392
434.423
435.454
436.487
437.523
438.561
439.6
440.64
441.681
442.727
443.774
444.825
445.879
446.936
447.997
449.059
450.122
451.191
452.262
453.337
454.418
455.505
456.631
456.594
390.073
466.678
466.777
465.727
464.676
463.624
462.57
461.517
460.464
459.411
458.359
457.309
456.261
455.215
454.173
453.134
452.099
451.067
450.038
449.012
447.991
446.975
445.963
444.958
443.956
442.957
441.96
440.966
439.975
438.985
437.997
437.008
436.02
435.03
434.039
433.046
432.051
431.053
430.051
429.044
428.033
427.015
425.992
424.963
423.926
422.881
421.827
420.764
419.69
418.606
417.511
416.406
415.288
414.159
413.017
411.863
410.695
409.514
408.319
407.111
405.887
404.649
403.396
402.128
400.845
399.547
398.235
396.908
395.566
394.21
392.839
391.454
390.056
456.67
462.143
457.685
457.715
457.784
463.24
458.884
464.347
459.963
465.465
461.035
466.591
462.113
467.824
467.726
390.073
391.481
392.875
394.254
395.618
396.966
398.299
399.615
400.917
402.202
403.471
404.724
405.962
407.184
408.391
409.584
410.762
411.926
413.077
414.215
415.341
416.455
417.557
418.65
419.734
420.808
421.874
422.934
423.986
425.034
426.076
427.115
428.15
429.182
430.211
431.239
432.268
433.296
434.323
435.352
436.383
437.419
438.455
439.492
440.53
441.572
442.617
443.666
444.718
445.775
446.836
447.899
448.965
450.036
451.11
452.19
453.273
454.36
455.455
456.551
457.648
467.932
466.878
465.821
464.762
463.701
462.639
461.578
460.517
459.457
458.4
457.344
456.292
455.243
454.197
453.155
452.116
451.08
450.048
449.02
447.996
446.978
445.964
444.954
443.948
442.945
441.945
440.947
439.952
438.958
437.964
436.972
435.979
434.985
433.991
432.994
431.996
430.994
429.99
428.981
427.967
426.947
425.922
424.891
423.852
422.806
421.752
420.689
419.616
418.533
417.439
416.334
415.219
414.092
412.952
411.8
410.635
409.456
408.264
407.058
405.837
404.602
403.352
402.087
400.808
399.513
398.205
396.881
395.543
394.19
392.823
391.442
390.047
388.639
388.644
388.646
388.647
388.647
388.646
388.643
388.64
388.637
388.635
388.633
388.633
388.635
388.637
388.641
388.647
468.981
388.653
458.778
458.749
468.871
457.747
463.2
387.221
387.21
387.2
387.192
387.188
387.186
387.187
387.188
387.191
387.197
387.203
387.207
387.211
387.214
387.217
387.218
387.219
458.798
458.859
464.297
470.027
470.147
469.095
468.038
466.975
465.908
464.839
463.769
462.699
461.631
460.563
459.498
458.436
457.376
456.321
455.268
454.22
453.174
452.132
451.092
450.057
449.027
448
446.979
445.961
444.947
443.937
442.93
441.925
440.924
439.924
438.925
437.928
436.931
435.934
434.936
433.937
432.937
431.935
430.93
429.922
428.91
427.893
426.872
425.845
424.811
423.771
422.724
421.669
420.606
419.533
418.451
417.359
416.256
415.142
414.017
412.879
411.73
410.567
409.392
408.202
406.999
405.781
404.549
403.303
402.042
400.766
399.475
398.17
396.85
395.516
394.167
392.804
391.427
390.037
388.634
387.22
459.847
459.868
459.951
465.405
461.024
466.521
462.096
467.645
463.175
468.778
469.921
471.193
471.073
474.603
473.408
387.233
388.658
390.071
391.473
392.861
394.235
395.595
396.939
398.267
399.58
400.878
402.16
403.426
404.676
405.911
407.131
408.335
409.525
410.7
411.862
413.011
414.146
415.27
416.382
417.483
418.574
419.656
420.729
421.794
422.852
423.903
424.948
425.989
427.027
428.06
429.09
430.117
431.142
432.167
433.192
434.218
435.246
436.279
437.313
438.345
439.379
440.418
441.461
442.508
443.558
444.612
445.671
446.734
447.801
448.873
449.95
451.033
452.118
453.207
454.303
455.404
456.503
457.606
458.712
459.816
385.78
460.949
460.931
583.74
385.798
458.827
464.263
385.763
385.748
385.737
385.731
385.728
385.729
385.73
385.734
385.742
385.749
385.755
385.762
385.769
385.775
385.781
385.788
385.794
459.887
459.935
465.36
473.588
471.323
470.267
469.203
468.134
467.06
465.984
464.907
463.829
462.753
461.678
460.605
459.536
458.47
457.407
456.349
455.293
454.241
453.191
452.146
451.104
450.066
449.032
448.003
446.977
445.956
444.938
443.923
442.912
441.903
440.896
439.892
438.889
437.887
436.885
435.883
434.881
433.878
432.874
431.868
430.859
429.848
428.832
427.813
426.789
425.76
424.725
423.683
422.635
421.579
420.515
419.443
418.362
417.271
416.169
415.057
413.934
412.799
411.652
410.493
409.32
408.134
406.934
405.72
404.491
403.248
401.991
400.719
399.433
398.131
396.816
395.485
394.141
392.783
391.411
390.026
388.629
387.22
385.8
460.967
461.019
466.467
462.042
462.057
462.09
467.582
463.163
468.705
464.243
469.835
470.974
472.122
474.434
384.33
384.353
476.195
477.327
385.814
387.242
388.66
390.066
391.461
392.843
394.212
395.567
396.907
398.231
399.54
400.834
402.112
403.375
404.622
405.853
407.07
408.271
409.458
410.631
411.79
412.936
414.069
415.191
416.3
417.4
418.49
419.57
420.642
421.705
422.761
423.811
424.856
425.896
426.931
427.962
428.99
430.015
431.038
432.061
433.084
434.11
435.142
436.175
437.205
438.236
439.268
440.307
441.352
442.399
443.45
444.506
445.567
446.633
447.705
448.783
449.866
450.955
452.046
453.143
454.247
455.349
456.454
457.564
458.677
459.794
460.907
462.022
477.446
475.616
463.153
463.143
567.462
459.911
465.332
384.307
384.288
384.275
384.266
384.261
384.261
384.262
384.266
384.274
384.283
384.292
384.302
384.312
384.323
384.334
384.346
384.358
384.37
460.98
461.01
466.43
489.852
472.527
471.454
470.377
469.299
468.218
467.135
466.051
464.966
463.883
462.801
461.722
460.646
459.573
458.504
457.438
456.376
455.316
454.26
453.208
452.159
451.114
450.074
449.037
448.004
446.974
445.948
444.926
443.907
442.89
441.877
440.866
439.856
438.848
437.841
436.834
435.828
434.821
433.814
432.805
431.795
430.782
429.767
428.748
427.725
426.699
425.667
424.63
423.587
422.538
421.481
420.417
419.345
418.265
417.175
416.075
414.965
413.844
412.712
411.568
410.412
409.242
408.059
406.863
405.652
404.428
403.189
401.936
400.668
399.385
398.089
396.777
395.452
394.112
392.759
391.393
390.014
388.622
387.22
385.807
384.384
462.07
462.09
467.536
463.165
463.16
468.65
464.264
464.266
464.234
469.771
465.316
470.898
472.034
473.175
382.872
382.902
474.319
475.463
573.385
476.583
384.377
384.398
385.828
387.248
388.659
390.059
391.447
392.823
394.186
395.536
396.87
398.19
399.495
400.784
402.058
403.317
404.56
405.789
407.002
408.2
409.384
410.554
411.71
412.854
413.985
415.104
416.212
417.31
418.398
419.476
420.547
421.609
422.664
423.714
424.758
425.795
426.829
427.86
428.885
429.907
430.929
431.952
432.977
434.005
435.035
436.064
437.095
438.127
439.161
440.203
441.246
442.293
443.345
444.404
445.467
446.537
447.614
448.696
449.783
450.877
451.977
453.078
454.186
455.295
456.409
457.524
458.642
459.762
460.883
462.008
463.137
464.259
649.777
465.382
465.382
550.282
535.213
460.995
466.407
382.845
382.822
382.805
382.792
382.786
382.785
382.785
382.788
382.796
382.806
382.818
382.831
382.845
382.861
382.877
382.894
382.912
382.932
382.953
462.071
462.089
467.505
536.114
489.527
473.824
472.694
471.579
470.477
469.383
468.291
467.2
466.109
465.02
463.932
462.847
461.764
460.685
459.61
458.537
457.468
456.401
455.338
454.279
453.223
452.171
451.124
450.079
449.039
448.002
446.969
445.938
444.911
443.887
442.866
441.848
440.831
439.816
438.803
437.791
436.779
435.767
434.756
433.744
432.73
431.715
430.698
429.679
428.657
427.631
426.601
425.567
424.528
423.483
422.433
421.376
420.312
419.24
418.161
417.072
415.974
414.866
413.748
412.618
411.477
410.324
409.158
407.978
406.786
405.579
404.359
403.124
401.875
400.612
399.334
398.042
396.735
395.415
394.081
392.733
391.373
390
388.616
387.22
385.814
384.399
382.975
463.168
463.164
468.611
464.271
464.235
469.724
465.38
465.311
470.843
466.506
466.5
466.395
471.968
473.1
381.409
381.444
474.234
475.37
476.504
477.565
382.931
382.961
384.418
385.84
387.253
388.657
390.049
391.431
392.8
394.157
395.5
396.83
398.144
399.444
400.729
401.999
403.253
404.492
405.717
406.927
408.122
409.303
410.47
411.623
412.764
413.893
415.01
416.116
417.212
418.298
419.376
420.445
421.507
422.562
423.611
424.652
425.69
426.726
427.756
428.78
429.801
430.823
431.847
432.874
433.901
434.925
435.954
436.987
438.02
439.061
440.103
441.144
442.191
443.245
444.306
445.373
446.447
447.527
448.614
449.705
450.804
451.907
453.015
454.126
455.241
456.361
457.483
458.609
459.733
460.861
461.997
463.118
464.25
465.385
466.511
478.462
467.628
467.637
478.524
382.989
462.08
467.487
381.376
381.348
381.327
381.312
381.303
381.301
381.3
381.301
381.31
381.322
381.335
381.351
381.37
381.39
381.411
381.433
381.458
381.484
381.513
381.544
463.171
463.169
468.586
477.321
476.227
475.107
473.959
472.8
471.669
470.555
469.451
468.352
467.256
466.161
465.068
463.978
462.89
461.805
460.723
459.644
458.568
457.495
456.425
455.358
454.296
453.237
452.182
451.131
450.083
449.039
447.998
446.96
445.926
444.894
443.865
442.838
441.814
440.792
439.772
438.753
437.735
436.718
435.701
434.684
433.667
432.649
431.629
430.608
429.584
428.558
427.529
426.497
425.46
424.419
423.373
422.321
421.264
420.2
419.128
418.049
416.962
415.866
414.76
413.644
412.517
411.379
410.229
409.066
407.891
406.702
405.5
404.284
403.054
401.81
400.551
399.278
397.991
396.69
395.375
394.047
392.706
391.352
389.986
388.609
387.221
385.823
384.416
383
381.578
464.269
464.242
469.692
465.376
465.313
470.804
478.438
466.493
466.392
471.922
467.616
467.478
473.045
379.94
379.982
468.765
468.751
474.172
475.302
476.434
477.547
478.593
381.48
381.516
381.552
383.017
384.438
385.852
387.256
388.653
390.038
391.412
392.775
394.125
395.461
396.784
398.094
399.388
400.668
401.933
403.183
404.418
405.639
406.845
408.037
409.214
410.379
411.529
412.668
413.794
414.909
416.013
417.107
418.193
419.269
420.338
421.399
422.454
423.502
424.544
425.583
426.618
427.649
428.675
429.698
430.723
431.748
432.774
433.798
434.822
435.854
436.886
437.924
438.967
440.007
441.047
442.096
443.154
444.219
445.29
446.366
447.449
448.539
449.636
450.737
451.843
452.954
454.07
455.192
456.318
457.445
458.576
459.707
460.844
461.973
463.112
464.252
465.383
466.516
467.645
468.775
469.889
479.612
469.906
479.576
381.588
463.171
468.571
379.902
379.87
379.844
379.825
379.813
379.809
379.808
379.809
379.818
379.83
379.846
379.865
379.887
379.911
379.937
379.966
379.998
380.031
380.068
380.107
380.148
464.267
464.251
469.671
477.319
476.201
475.07
473.964
472.842
471.722
470.61
469.504
468.403
467.304
466.208
465.113
464.021
462.931
461.844
460.759
459.676
458.596
457.52
456.446
455.377
454.311
453.249
452.19
451.135
450.084
449.036
447.991
446.949
445.909
444.873
443.838
442.806
441.777
440.749
439.723
438.698
437.675
436.652
435.63
434.607
433.585
432.561
431.537
430.511
429.484
428.454
427.421
426.386
425.346
424.303
423.256
422.203
421.145
420.081
419.01
417.932
416.846
415.751
414.648
413.534
412.41
411.275
410.128
408.969
407.798
406.613
405.415
404.204
402.979
401.739
400.486
399.218
397.937
396.642
395.333
394.011
392.676
391.33
389.971
388.602
387.222
385.832
384.434
383.027
381.613
380.193
465.371
465.322
470.777
478.432
479.553
466.484
466.396
471.889
467.603
467.477
473.006
378.469
378.516
468.732
468.565
469.868
474.127
475.251
471.033
471.008
476.378
477.505
478.594
479.653
380.023
380.066
380.109
380.153
381.625
383.044
384.458
385.863
387.259
388.647
390.025
391.392
392.747
394.089
395.419
396.736
398.039
399.328
400.602
401.862
403.107
404.338
405.555
406.757
407.945
409.12
410.281
411.429
412.564
413.688
414.801
415.904
416.997
418.081
419.157
420.225
421.286
422.34
423.389
424.433
425.472
426.507
427.54
428.569
429.596
430.623
431.648
432.674
433.7
434.731
435.759
436.793
437.832
438.868
439.908
440.955
442.009
443.071
444.14
445.213
446.293
447.381
448.475
449.574
450.678
451.785
452.899
454.022
455.149
456.279
457.412
458.547
459.684
460.819
461.957
463.104
464.239
465.383
466.515
467.65
468.783
469.918
471.054
472.154
480.68
472.185
480.706
380.199
464.261
469.659
378.426
378.388
378.358
378.334
378.32
378.313
378.312
378.312
378.32
378.333
378.351
378.374
378.399
378.428
378.46
378.495
378.532
378.573
378.617
378.664
378.714
378.767
465.362
465.335
470.76
478.429
477.315
476.194
475.075
473.976
472.872
471.763
470.655
469.549
468.447
467.348
466.25
465.154
464.06
462.968
461.878
460.79
459.704
458.621
457.542
456.465
455.392
454.323
453.257
452.195
451.136
450.081
449.029
447.979
446.933
445.888
444.846
443.807
442.769
441.734
440.7
439.668
438.638
437.608
436.58
435.552
434.524
433.496
432.468
431.439
430.408
429.377
428.343
427.307
426.269
425.227
424.182
423.133
422.079
421.021
419.956
418.886
417.809
416.724
415.631
414.529
413.418
412.297
411.165
410.022
408.866
407.699
406.519
405.325
404.119
402.898
401.664
400.416
399.155
397.879
396.59
395.288
393.973
392.645
391.306
389.956
388.594
387.223
385.842
384.453
383.056
381.651
380.24
378.824
480.658
466.471
466.406
471.867
479.539
479.536
467.588
467.482
472.979
376.996
377.047
468.712
468.565
469.655
469.843
474.095
475.214
470.979
476.336
472.12
477.464
473.298
473.265
478.576
479.653
480.729
378.563
378.612
378.662
378.715
378.769
380.247
381.663
383.073
384.477
385.874
387.262
388.641
390.01
391.369
392.716
394.052
395.374
396.684
397.981
399.263
400.532
401.786
403.026
404.253
405.465
406.663
407.847
409.018
410.176
411.322
412.455
413.576
414.688
415.789
416.881
417.964
419.039
420.106
421.167
422.222
423.272
424.317
425.357
426.395
427.429
428.461
429.491
430.52
431.548
432.576
433.607
434.637
435.667
436.704
437.739
438.773
439.817
440.87
441.929
442.994
444.062
445.136
446.222
447.317
448.416
449.518
450.625
451.737
452.855
453.981
455.111
456.244
457.382
458.518
459.659
460.802
461.95
463.089
464.236
465.37
466.52
467.654
468.788
469.927
471.068
472.206
473.33
474.402
481.799
481.775
474.445
378.827
465.35
470.751
376.948
376.906
376.87
376.844
376.826
376.816
376.812
376.812
376.82
376.834
376.854
376.879
376.908
376.942
376.979
377.02
377.064
377.111
377.162
377.217
377.275
377.337
377.403
481.754
466.455
466.421
482.864
482.841
471.853
480.642
480.634
480.635
479.538
478.431
477.322
476.214
475.109
474.007
472.903
471.798
470.693
469.59
468.487
467.387
466.288
465.191
464.096
463.001
461.909
460.818
459.73
458.644
457.561
456.481
455.405
454.332
453.263
452.197
451.134
450.074
449.017
447.963
446.911
445.862
444.815
443.77
442.727
441.686
440.646
439.608
438.572
437.536
436.502
435.468
434.435
433.402
432.369
431.335
430.3
429.264
428.227
427.188
426.146
425.102
424.055
423.005
421.95
420.891
419.827
418.757
417.68
416.597
415.505
414.406
413.297
412.178
411.049
409.91
408.758
407.595
406.419
405.23
404.029
402.814
401.585
400.343
399.087
397.818
396.536
395.241
393.933
392.613
391.282
389.94
388.587
387.225
385.854
384.474
383.086
381.691
380.29
378.884
377.473
467.568
467.494
472.96
375.522
375.578
468.689
468.572
469.658
469.815
474.072
475.187
470.948
470.749
476.306
472.085
477.426
473.226
478.549
474.365
479.649
475.542
475.497
480.729
481.812
377.101
377.156
377.213
377.273
377.336
377.402
377.472
378.887
380.298
381.704
383.104
384.498
385.886
387.264
388.634
389.994
391.344
392.684
394.011
395.327
396.629
397.919
399.195
400.457
401.706
402.941
404.162
405.369
406.563
407.744
408.911
410.066
411.209
412.339
413.459
414.569
415.668
416.759
417.841
418.916
419.983
421.044
422.099
423.15
424.196
425.239
426.279
427.315
428.35
429.383
430.415
431.446
432.479
433.511
434.543
435.579
436.615
437.651
438.692
439.74
440.794
441.855
442.92
443.989
445.07
446.161
447.258
448.359
449.465
450.578
451.694
452.815
453.942
455.076
456.21
457.35
458.488
459.631
460.783
461.925
463.076
464.218
465.368
466.504
467.645
468.79
469.935
471.079
472.22
473.367
474.505
475.615
476.616
476.681
477.693
482.888
483.854
466.438
478.471
479.591
483.944
483.918
481.736
481.724
481.719
482.819
482.804
482.795
483.891
483.871
483.86
484.927
484.952
484.914
484.984
485.956
485.972
486.002
471.847
375.471
375.424
375.385
375.354
375.333
375.319
375.313
375.313
375.32
375.335
375.356
375.384
375.416
375.454
375.496
375.543
375.593
375.647
375.705
375.767
375.834
375.904
375.979
376.058
476.855
475.725
474.558
473.389
472.23
471.085
469.941
468.789
467.636
466.488
465.339
464.197
463.043
461.898
460.745
459.601
458.452
457.312
456.173
455.035
453.901
452.772
451.649
450.53
449.415
448.304
447.203
446.107
445.013
443.926
442.85
441.785
440.723
439.665
438.614
437.567
436.526
435.488
434.45
433.413
432.378
431.342
430.307
429.272
428.236
427.198
426.159
425.117
424.073
423.025
421.973
420.917
419.855
418.788
417.714
416.632
415.543
414.444
413.337
412.219
411.09
409.95
408.799
407.635
406.458
405.268
404.066
402.85
401.621
400.378
399.123
397.853
396.571
395.276
393.969
392.65
391.319
389.978
388.628
387.267
385.898
384.522
383.138
381.748
380.352
378.951
377.546
467.548
467.509
472.949
375.637
375.698
375.763
375.83
375.901
375.975
376.055
376.138
485.956
484.913
483.858
482.794
481.718
480.636
479.541
478.441
477.34
476.239
475.138
474.037
472.935
471.831
470.728
469.626
468.523
467.423
466.323
465.224
464.127
463.031
461.936
460.843
459.752
458.663
457.577
456.494
455.414
454.338
453.264
452.194
451.127
450.062
449.001
447.942
446.885
445.83
444.778
443.727
442.678
441.631
440.586
439.542
438.5
437.459
436.419
435.379
434.341
433.302
432.264
431.226
430.187
429.147
428.106
427.064
426.02
424.973
423.924
422.872
421.817
420.757
419.693
418.623
417.547
416.465
415.375
414.277
413.171
412.055
410.929
409.793
408.645
407.486
406.315
405.131
403.934
402.725
401.502
400.266
399.016
397.754
396.479
395.191
393.892
392.58
391.257
389.924
388.581
387.228
385.866
384.496
383.118
381.734
380.343
378.947
377.546
376.141
468.665
468.584
469.665
469.788
474.056
475.168
470.917
470.753
374.05
374.109
476.283
472.051
471.845
477.4
473.188
478.521
474.326
479.634
475.458
480.726
476.582
481.812
477.689
482.897
478.701
483.971
485.014
486.985
486.991
486.04
488.011
488.004
467.528
492.503
483.962
487.008
487.042
472.944
479.435
478.228
476.98
475.773
474.575
473.397
472.234
471.077
469.93
468.775
467.612
466.454
465.309
464.154
463.007
461.853
460.706
459.554
458.409
457.264
456.125
454.988
453.853
452.723
451.598
450.477
449.362
448.249
447.143
446.048
444.955
443.866
442.784
441.712
440.649
439.59
438.534
437.483
436.437
435.394
434.354
433.313
432.273
431.235
430.196
429.157
428.118
427.078
426.036
424.992
423.945
422.896
421.843
420.785
419.723
418.656
417.582
416.501
415.412
414.315
413.209
412.093
410.966
409.829
408.68
407.52
406.348
405.163
403.965
402.755
401.532
400.296
399.047
397.785
396.511
395.224
393.925
392.615
391.294
389.962
388.621
387.271
385.913
384.547
383.173
381.794
380.408
379.018
377.624
376.225
373.995
373.945
373.902
373.868
373.843
373.826
373.817
373.816
373.823
373.838
373.861
373.89
373.926
373.967
374.014
374.067
374.123
374.182
374.247
374.316
374.39
374.469
374.553
374.641
374.733
468.642
468.6
488.974
506.057
469.678
469.762
474.048
475.155
487.001
485.965
484.918
483.862
482.797
481.725
480.639
479.551
478.457
477.361
476.263
475.164
474.065
472.964
471.862
470.759
469.657
468.556
467.454
466.354
465.254
464.155
463.056
461.959
460.864
459.771
458.679
457.59
456.504
455.42
454.34
453.262
452.187
451.115
450.046
448.979
447.915
446.852
445.792
444.734
443.678
442.624
441.571
440.52
439.47
438.422
437.376
436.33
435.285
434.241
433.198
432.155
431.112
430.069
429.025
427.981
426.936
425.889
424.841
423.79
422.736
421.68
420.62
419.555
418.485
417.41
416.329
415.241
414.145
413.041
411.927
410.805
409.672
408.528
407.373
406.206
405.027
403.836
402.632
401.415
400.185
398.943
397.687
396.42
395.14
393.849
392.546
391.232
389.908
388.574
387.231
385.88
384.52
383.153
381.779
380.398
379.013
377.622
376.227
374.829
470.887
470.761
374.173
374.241
374.311
374.385
374.464
374.547
374.634
374.727
374.824
372.579
372.643
489.051
490.057
488.018
476.267
472.017
471.85
477.381
473.152
472.944
478.496
474.287
479.614
475.421
480.72
476.551
481.81
477.669
482.897
478.752
483.981
479.744
485.047
482.746
486.079
487.087
468.62
490.536
491.546
469.694
469.737
475.148
372.521
372.468
372.423
372.386
372.358
372.338
372.326
372.324
372.33
372.347
372.371
372.4
372.438
372.483
372.535
372.592
372.653
372.719
372.789
372.865
372.947
373.033
373.125
373.221
373.322
373.427
569.868
488.107
487.064
486.003
484.941
483.88
482.808
481.733
480.651
479.565
478.474
477.379
476.284
475.187
474.089
472.99
471.889
470.787
469.685
468.583
467.482
466.38
465.279
464.179
463.079
461.979
460.882
459.786
458.691
457.599
456.509
455.422
454.337
453.255
452.175
451.098
450.024
448.952
447.882
446.814
445.748
444.685
443.623
442.563
441.504
440.448
439.393
438.339
437.287
436.236
435.187
434.138
433.09
432.042
430.995
429.948
428.901
427.853
426.805
425.756
424.705
423.653
422.598
421.54
420.479
419.414
418.345
417.271
416.19
415.103
414.009
412.907
411.796
410.676
409.547
408.407
407.256
406.093
404.919
403.733
402.535
401.325
400.102
398.866
397.618
396.359
395.087
393.804
392.511
391.206
389.892
388.568
387.235
385.894
384.545
383.189
381.826
380.456
379.081
377.701
376.316
374.928
373.536
470.859
470.773
481.624
480.482
479.313
478.129
476.983
475.785
474.577
473.381
472.203
471.033
469.876
468.733
467.573
466.406
465.248
464.1
462.947
461.799
460.646
459.499
458.351
457.207
456.066
454.929
453.795
452.665
451.539
450.417
449.301
448.189
447.083
445.985
444.892
443.802
442.719
441.641
440.571
439.51
438.451
437.396
436.346
435.298
434.253
433.21
432.166
431.123
430.081
429.039
427.997
426.954
425.909
424.863
423.815
422.763
421.709
420.651
419.588
418.52
417.446
416.365
415.277
414.181
413.076
411.962
410.838
409.703
408.558
407.401
406.233
405.053
403.861
402.656
401.44
400.21
398.968
397.714
396.448
395.169
393.88
392.579
391.267
389.946
388.615
387.276
385.928
384.573
383.211
381.842
380.468
379.089
377.705
376.316
374.924
372.712