/*--------------------------------*- C++ -*----------------------------------*\
| =========                 |                                                 |
| \\      /  F ield         | OpenFOAM: The Open Source CFD Toolbox           |
|  \\    /   O peration     | Version:  2212                                  |
|   \\  /    A nd           | Website:  www.openfoam.com                      |
|    \\/     M anipulation  |                                                 |
\*---------------------------------------------------------------------------*/
FoamFile
{
    version     2.0;
    format      ascii;
    arch        "LSB;label=32;scalar=64";
    class       volVectorField;
    location    "0.024";
    object      U;
}
// * * * * * * * * * * * * * * * * * * * * * * * * * * * * * * * * * * * * * //

dimensions      [0 1 -1 0 0 0 0];

internalField   nonuniform List<vector> 
7220
(
(-69.2124 588.095 -3.30086e-17)
(23.384 23.0971 2.28525e-17)
(22.6273 22.052 1.14399e-17)
(20.2749 20.5624 1.41359e-17)
(22.2496 23.1824 -2.23786e-17)
(21.3429 21.9183 -1.54096e-21)
(-22.6798 22.1126 0)
(-22.2447 23.1917 2.33493e-17)
(-20.2987 20.5645 0)
(-21.352 21.9223 0)
(-48.2361 527.979 -6.32931e-19)
(-69.4814 -25.155 -2.09358e-16)
(25.2911 177.448 1.05883e-17)
(-120.408 597.38 1.33805e-16)
(163.133 566.923 1.38985e-16)
(-38.4226 -13.4294 9.39701e-17)
(-46.0407 435.553 0)
(-0.934153 671.544 -3.43952e-16)
(-33.8447 426.541 3.85941e-17)
(45.6649 667.194 -1.62957e-16)
(0.698895 342.97 4.25541e-17)
(-66.5666 103.137 3.02515e-16)
(4.91977 13.8176 1.67909e-16)
(69.938 114.331 2.2936e-16)
(-34.9259 21.7679 1.57201e-16)
(-75.1078 18.4541 -3.40233e-16)
(-21.8139 12.3923 1.07196e-16)
(-87.9104 632.322 1.25036e-16)
(-2.58622 344.863 -4.07867e-17)
(32.9612 258.617 7.31072e-17)
(30.8052 29.1302 9.51002e-17)
(36.924 220.893 -2.16678e-17)
(22.3556 31.3098 4.0721e-16)
(27.7383 279.757 -4.02157e-17)
(37.9081 12.7674 -1.72377e-16)
(54.9655 467.108 -3.18858e-16)
(23.9316 21.065 5.67603e-18)
(-43.2629 498.408 0)
(-55.5743 521.097 -6.33429e-21)
(0.690071 580.283 -1.02399e-21)
(-0.111824 582.03 -4.10631e-21)
(0.989871 581.885 -2.62272e-19)
(0.0660423 580.143 2.29673e-19)
(0.99755 388.768 -7.57703e-17)
(-0.361254 362.228 -2.94459e-16)
(1.35244 361.641 -5.61665e-17)
(0.452923 376.661 1.15451e-17)
(0.291937 392.423 -1.04229e-16)
(-0.859199 583.091 5.14926e-19)
(-1.66944 583.92 -5.18713e-19)
(2.77074 583.789 -4.89982e-19)
(1.87879 582.953 5.22962e-19)
(-2.5782 584.282 5.27216e-19)
(-3.39203 582.36 -1.57794e-18)
(4.59785 582.239 5.3591e-19)
(3.71494 584.149 -5.58978e-19)
(-3.81719 578.151 -2.66009e-20)
(-4.35177 573 2.10953e-18)
(5.52539 572.873 1.05883e-18)
(5.03364 578.034 -5.31977e-19)
(-4.63512 566.527 -1.03861e-18)
(-4.89985 559.283 1.0847e-18)
(5.99162 559.122 -5.63693e-19)
(5.78293 566.397 -1.05895e-18)
(-5.03202 550.997 -1.04753e-18)
(-5.0566 541.817 0)
(6.09685 541.568 1.05178e-18)
(6.08687 550.804 -4.52617e-20)
(-4.94808 531.636 0)
(-4.71208 520.533 -1.02085e-19)
(5.83391 520.166 3.40481e-20)
(6.01157 531.33 1.68844e-20)
(-4.3575 508.549 2.39686e-18)
(-3.89556 495.741 3.97467e-19)
(5.13026 495.28 -2.01683e-18)
(5.54678 508.13 2.12077e-18)
(-3.33621 482.216 1.24388e-19)
(-2.71279 468.096 -1.1496e-17)
(3.86274 467.502 3.51029e-18)
(4.56458 481.708 5.56853e-19)
(-2.07012 453.531 9.13301e-18)
(-1.45522 438.735 -2.77138e-17)
(2.18246 437.995 9.43974e-18)
(3.03267 452.854 1.19016e-19)
(0.827682 408.047 4.98223e-19)
(1.40707 423.097 -9.05726e-18)
(-0.985045 423.808 9.19783e-18)
(-0.727735 408.558 2.1891e-17)
(-0.497938 392.751 3.78949e-17)
(1.96262 405.132 3.80779e-17)
(1.41643 577.648 0)
(-0.808884 577.539 3.26727e-20)
(1.91318 579.587 -8.25437e-21)
(-0.643263 577.876 8.26415e-21)
(1.75403 349.179 -1.88279e-17)
(0.695836 350.025 -8.22703e-19)
(-0.019065 376.601 2.09747e-17)
(1.03131 361.043 4.21177e-17)
(-2.91263 423.188 -9.42675e-18)
(-7.34614 453.782 5.77271e-18)
(-5.06282 438.66 -1.12929e-18)
(-11.5268 482.546 0)
(-9.53847 468.456 0)
(-14.5518 508.591 0)
(-13.2131 495.949 -5.56352e-19)
(-16.1114 531.287 0)
(-15.5145 520.384 6.83346e-20)
(-16.2027 550.248 -1.09346e-18)
(-16.3483 541.257 1.05356e-18)
(-14.9788 565.449 -5.25294e-19)
(-15.7526 558.337 0)
(-12.5117 576.695 -1.06841e-18)
(-13.9579 571.703 1.05607e-18)
(-8.42959 582.258 -5.32165e-19)
(-10.7841 580.55 5.29564e-19)
(-3.40529 581.053 8.15855e-21)
(-5.88479 581.827 5.36373e-19)
(1.43824 578.259 0)
(-1.00861 579.987 4.0823e-21)
(6.96547 581.476 3.8372e-22)
(4.42253 580.677 0)
(11.9411 580.24 -1.63291e-20)
(9.55794 581.934 3.25864e-20)
(15.0892 571.403 -4.11331e-21)
(13.6694 576.397 0)
(16.7998 557.943 1.03855e-21)
(16.0761 565.121 0)
(17.3444 540.634 -5.26463e-19)
(17.2162 549.76 5.50624e-19)
(16.5605 519.433 -1.06322e-18)
(17.1199 530.506 1.09304e-18)
(14.3613 494.698 1.38607e-19)
(15.6485 507.482 -4.26921e-21)
(10.6218 466.923 1.12641e-18)
(12.6833 481.159 -5.58923e-19)
(5.77226 436.764 1.82002e-17)
(8.24431 452.083 -4.50586e-18)
(3.55694 421.048 1.87027e-17)
(-1.13802 407.297 -5.74904e-20)
(3.73548 575.577 0)
(-3.05612 575.246 0)
(-1.58398 381.461 -8.05087e-17)
(-0.0292938 401.15 8.60999e-18)
(2.47275 342.897 0)
(2.93965 350.1 6.57123e-19)
(0.257697 390.865 -1.01773e-17)
(0.832501 374.486 9.91557e-18)
(1.16598 387.598 -2.85783e-19)
(1.7835 360.479 0)
(-0.500761 360.079 1.03104e-17)
(1.6754 368.238 9.70417e-18)
(-5.33277 422.284 6.93649e-18)
(-1.58515 405.496 -1.46884e-17)
(-13.3875 453.797 0)
(-9.40026 438.376 -2.39978e-18)
(-20.1988 482.502 -1.11249e-18)
(-17.0158 468.519 2.25257e-18)
(-24.8196 508.076 2.73609e-19)
(-22.7963 495.704 0)
(-27.0783 530.125 5.55679e-19)
(-26.2441 519.557 -2.61859e-19)
(-26.937 548.372 0)
(-27.3174 539.724 -3.36315e-20)
(-24.6702 562.968 3.108e-21)
(-26.0744 556.141 0)
(-20.2528 573.447 -2.61114e-19)
(-22.7887 568.846 -8.2978e-21)
(-13.4033 578.059 5.16424e-19)
(-17.2495 576.777 2.6511e-19)
(-5.51516 576.94 5.09504e-19)
(-9.41868 577.601 -5.41585e-19)
(2.20134 574.219 2.10515e-18)
(-1.63192 575.881 -1.58015e-18)
(6.1792 570.804 0)
(9.63418 566.86 0)
(5.96859 571.498 -1.05065e-18)
(-1.72135 572.779 1.72859e-20)
(2.25808 572.872 2.83508e-19)
(-5.24533 571.023 0)
(-9.01754 566.384 -6.55814e-20)
(-5.6054 570.485 9.91786e-20)
(2.49687 575.309 2.71503e-19)
(-1.42994 573.68 -2.70772e-19)
(10.4206 577.125 3.30731e-20)
(6.46119 576.413 0)
(18.3117 576.388 -3.31279e-20)
(14.4426 577.634 -6.55902e-20)
(23.86 568.513 0)
(21.3298 573.092 0)
(27.0957 555.726 -4.16777e-21)
(25.7267 562.616 0)
(28.2619 539.026 -2.09913e-21)
(27.9228 547.839 -4.18422e-21)
(27.0973 518.465 0)
(27.9849 529.233 0)
(23.3911 494.313 -9.39834e-19)
(25.5803 506.816 1.1319e-18)
(16.9378 466.864 4.61512e-18)
(20.5103 481.001 0)
(8.17721 435.985 -1.83963e-17)
(12.7482 451.872 1.50245e-19)
(3.63091 419.175 -5.12465e-19)
(3.15614 337.584 -3.51099e-17)
(1.58954 344.325 5.36908e-17)
(-2.1715 378.03 1.74078e-17)
(0.363428 400.133 1.54779e-17)
(8.35665 563.815 -3.32724e-20)
(12.8021 560.609 3.2986e-20)
(-6.98086 565.182 5.2707e-19)
(-11.4841 560.927 -5.02254e-19)
(1.39095 343.921 3.69769e-17)
(2.05009 334.895 2.63265e-17)
(2.12537 340.282 -9.13548e-18)
(-1.1755 350.402 2.97066e-17)
(1.08835 382.222 -2.9725e-17)
(-3.0471 332.187 1.26529e-17)
(-0.64815 333.983 0)
(-1.96173 352.1 9.83582e-18)
(-1.01428 353.757 1.98286e-17)
(1.50774 358.534 9.52303e-18)
(-7.74979 421.457 0)
(-2.35832 403.057 -9.58616e-18)
(-19.1952 453.832 6.988e-18)
(-13.5979 438.229 7.60356e-20)
(-28.3741 482.219 2.18029e-18)
(-24.1453 468.48 -3.52312e-18)
(-34.4576 507.064 2.87774e-19)
(-31.8186 495.093 -1.6829e-18)
(-37.2245 528.163 5.43892e-19)
(-36.2444 518.088 -5.42213e-19)
(-36.6951 545.386 0)
(-37.3324 537.226 -2.41796e-19)
(-33.222 559.026 2.68547e-19)
(-35.342 552.69 -2.63117e-19)
(-26.714 568.407 2.7508e-19)
(-30.3773 564.344 -2.499e-19)
(-17.3336 571.955 2.80802e-19)
(-22.4645 571.096 -2.46229e-19)
(-7.13262 570.956 -2.8091e-19)
(-12.1957 571.558 2.63811e-19)
(2.84744 568.315 2.08257e-20)
(-2.05088 569.918 0)
(12.1684 561.479 -1.1212e-18)
(7.75912 565.679 1.06743e-18)
(-2.55949 565.427 -6.51004e-20)
(3.0347 565.51 -2.60421e-19)
(-12.3204 560.212 -6.67936e-20)
(-7.89531 563.552 -2.68806e-19)
(2.90317 569.312 0)
(-2.06872 567.779 -5.30446e-19)
(13.1478 571.106 -1.31837e-19)
(8.03628 570.417 1.31828e-19)
(23.4527 570.795 3.31917e-20)
(18.3077 571.593 3.28446e-20)
(31.4275 564.186 8.37455e-20)
(27.7368 568.177 0)
(36.4337 552.557 4.1635e-21)
(34.3011 558.9 -6.56074e-20)
(38.4136 536.91 -6.30049e-21)
(37.7939 545.187 -8.38535e-21)
(37.2171 517.52 0)
(38.274 527.707 -8.43824e-21)
(32.4189 494.536 -6.77639e-19)
(35.2902 506.457 5.62822e-19)
(23.8299 468.091 1.21361e-18)
(28.6017 481.771 1.14281e-18)
(11.8694 437.365 0)
(18.1543 453.357 -6.62206e-18)
(5.51067 419.737 1.12063e-17)
(-0.139182 339.834 -1.73792e-17)
(15.9657 556.133 0)
(-15.424 555.658 1.66871e-18)
(4.99342 344.694 2.41779e-19)
(-4.20872 364.942 -1.60118e-17)
(-37.433 406.759 -1.60461e-17)
(1.38424 341.182 9.18722e-18)
(1.06086 343.664 2.92637e-17)
(0.380163 375.341 8.94412e-18)
(3.11374 400.319 -1.91513e-17)
(1.61076 350.56 -3.37796e-18)
(-2.64703 344.014 -1.8815e-17)
(13.6142 554.886 8.45513e-20)
(17.8187 550.416 1.06134e-18)
(-14.3733 553.571 3.36899e-20)
(-18.0594 550.049 -1.12224e-18)
(-1.06571 345.816 2.54006e-19)
(-1.31227 351.433 0)
(-94.668 492.196 -1.33061e-17)
(-70.189 467.402 4.42202e-18)
(-116.356 555.546 -4.11021e-17)
(-118.463 542.474 -1.94862e-17)
(-99.277 538.363 1.95129e-18)
(6.83641 342.665 -4.61219e-17)
(2.68537 339.658 9.44962e-18)
(-1.56855 377.427 -9.70539e-18)
(-1.85454 352.456 9.43756e-18)
(-11.1909 422.302 1.44337e-17)
(-5.05407 401.76 8.14341e-19)
(-25.0131 455.228 0)
(-18.1939 439.757 -9.29619e-18)
(-36.3051 482.515 -5.28712e-19)
(-31.1179 469.402 -1.10416e-18)
(-43.5567 505.922 -1.36648e-19)
(-40.4584 494.691 5.69411e-19)
(-46.4965 525.498 -1.33549e-19)
(-45.5498 516.199 0)
(-45.2526 541.352 -1.36904e-19)
(-46.262 533.836 2.03181e-19)
(-40.3142 553.59 -1.34204e-19)
(-43.2705 547.961 1.3225e-19)
(-31.6668 561.601 -1.25647e-19)
(-36.4316 558.187 1.23642e-19)
(-20.204 564.179 0)
(-26.2626 563.652 -1.63901e-20)
(-8.2662 563.336 2.64322e-19)
(-14.1948 563.871 -2.65232e-19)
(3.26055 560.883 1.01401e-18)
(-2.37841 562.368 -4.98291e-19)
(8.78409 558.499 -1.59705e-18)
(18.5421 550.383 1.00406e-19)
(9.61674 556.107 -2.70679e-19)
(14.7695 553.849 5.05904e-19)
(-3.09924 557.152 1.01547e-19)
(3.43386 557.225 -2.68581e-19)
(-9.27403 555.913 3.27962e-19)
(-17.2007 549.914 -5.6373e-19)
(-7.98148 558.061 -4.20625e-21)
(-12.8769 554.355 5.03997e-19)
(3.25072 561.83 0)
(-2.44606 560.435 0)
(15.1383 563.538 -1.32473e-19)
(9.16929 562.877 0)
(27.2383 563.544 3.28307e-20)
(21.1644 563.977 1.66129e-20)
(37.5099 558.307 -2.06971e-20)
(32.6875 561.595 3.3006e-20)
(44.4793 548.241 4.12968e-21)
(41.4613 553.808 -9.72965e-23)
(47.5737 534.091 8.45035e-21)
(46.5246 541.643 2.5229e-20)
(46.8011 516.382 6.77854e-20)
(47.8083 525.698 8.51346e-21)
(41.3329 495.107 -1.11158e-18)
(44.6726 506.173 0)
(31.053 470.216 -2.19877e-18)
(36.7791 483.158 5.41752e-19)
(16.7755 440.094 4.43612e-18)
(24.2438 456.021 4.54823e-18)
(9.28419 421.748 -1.68458e-17)
(-9.2375 331.994 9.21063e-18)
(-3.48551 337.356 -1.36498e-17)
(-95.6573 453.517 -6.73697e-18)
(-18.9574 358.128 -2.95687e-18)
(-110.579 517.482 1.32215e-17)
(3.94076 337.197 9.84431e-18)
(20.9079 545.564 -6.66145e-20)
(-20.3523 545.196 0)
(8.33124 368.192 -9.42056e-18)
(10.0475 397.923 -4.76985e-18)
(5.35366 348.098 1.0213e-17)
(-125.483 542.75 1.30747e-16)
(-1.7799 340.688 3.84315e-17)
(-0.256984 354.085 0)
(-27.4673 448.518 -1.92866e-17)
(-107.138 557.045 4.09907e-17)
(-0.797841 344.145 -1.12746e-16)
(-119.859 554.006 0)
(8.45084 338.223 -1.95865e-17)
(-73.5816 528.731 -1.80115e-17)
(6.17613 335.112 -1.85529e-17)
(20.2639 334.708 -1.45887e-19)
(-113.623 563.191 1.15791e-18)
(-6.00317 371.036 0)
(-3.23749 348.471 2.91117e-19)
(-16.5128 422.98 -9.28186e-18)
(-10.036 399.801 9.58991e-18)
(-31.7995 456.867 2.22532e-18)
(-24.1163 441.422 9.47237e-18)
(-44.5707 482.711 -5.52293e-19)
(-38.7485 470.448 -2.32412e-18)
(-52.3118 504.195 1.38965e-19)
(-49.125 493.95 5.49679e-19)
(-54.7267 521.771 0)
(-54.2087 513.499 0)
(-52.3814 536.018 -6.66898e-20)
(-54.0769 529.24 1.01776e-19)
(-45.6119 546.467 -5.20304e-22)
(-49.5359 541.728 7.65757e-20)
(-34.9606 552.992 0)
(-40.6914 550.242 4.14106e-21)
(-22.0894 554.92 6.67046e-20)
(-28.6658 554.556 0)
(-9.16664 554.248 3.29056e-20)
(-15.5971 554.701 -4.97809e-20)
(3.2178 552.113 2.66027e-19)
(-2.85191 553.386 -2.66523e-19)
(14.0347 547.051 -5.66963e-19)
(8.99242 550.092 5.50496e-19)
(21.9966 539.162 1.08392e-18)
(18.4734 543.319 -3.39146e-20)
(24.7543 535.274 -1.00533e-18)
(20.0337 545.092 0)
(23.0098 541.086 1.01609e-18)
(10.2155 549.177 5.33264e-19)
(15.7569 547.683 -5.27887e-19)
(-3.19895 549.858 -1.33347e-19)
(3.69359 549.861 2.28714e-19)
(-15.4214 547.637 0)
(-9.79497 549.16 0)
(-22.7525 540.885 -5.74621e-19)
(-19.7575 544.991 -5.06774e-19)
(-24.4181 534.915 1.07833e-18)
(-17.7665 542.789 5.83675e-19)
(-21.3984 538.732 -5.41281e-19)
(-8.17562 549.711 5.41133e-19)
(-13.2374 546.554 -1.0718e-18)
(3.78449 552.925 0)
(-2.33847 551.736 3.38461e-20)
(16.5838 554.461 0)
(10.1207 553.863 0)
(29.6917 554.576 0)
(23.096 554.832 1.64275e-20)
(41.8515 550.515 3.32236e-20)
(36.0416 553.12 -3.35701e-20)
(50.908 542.225 1.70951e-20)
(46.8748 546.87 -1.69166e-20)
(55.6532 529.788 -3.23721e-20)
(53.8625 536.558 3.52047e-20)
(55.7842 514.069 -6.74905e-20)
(56.3409 522.317 1.10079e-21)
(50.3092 494.808 6.28774e-19)
(53.7537 504.867 -3.36933e-20)
(39.035 471.654 -6.82132e-20)
(45.3477 483.798 7.44737e-20)
(23.5356 442 -4.58564e-18)
(31.5401 457.976 0)
(15.8179 422.571 9.18715e-18)
(-22.1321 340.045 -4.28005e-18)
(-7.74749 339.587 4.5908e-18)
(-114.501 483.97 1.82874e-17)
(-68.0698 418.094 -3.02801e-18)
(-124.291 524.621 -1.77288e-17)
(13.823 346.408 1.75225e-18)
(6.31388 335.113 -1.77925e-18)
(11.7901 363.682 -4.51178e-18)
(46.8601 396.799 0)
(15.7133 362.156 -4.68821e-18)
(19.8102 390.866 -2.34313e-18)
(-0.379324 347.713 4.5512e-18)
(22.0329 530.775 0)
(25.3244 527.146 1.09107e-18)
(-24.6976 536.24 2.29615e-20)
(-27.019 530.461 -5.70035e-19)
(0.535589 447.598 -5.40817e-17)
(-40.5244 517.379 3.72865e-17)
(-89.7966 554.218 1.74847e-17)
(-112.89 561.799 0)
(-116.254 551.968 7.93342e-19)
(-109.651 559.877 3.624e-17)
(-106.905 570.082 3.58343e-17)
(81.5712 444.331 1.954e-17)
(1.90108 342.57 -9.86403e-17)
(-104.012 568.966 -9.85911e-18)
(3.61577 371.748 -1.40648e-17)
(110.025 467.687 -8.75754e-19)
(-108.467 570.669 7.1961e-17)
(101.155 435.96 4.23765e-18)
(20.5333 342.381 1.89429e-17)
(42.2196 352.119 -1.00171e-17)
(-13.9906 365.576 4.90892e-18)
(-0.114267 348.212 4.37137e-19)
(-24.6364 420.106 7.13057e-18)
(-18.6987 394.649 -4.54494e-18)
(-39.8228 455.957 2.34847e-18)
(-32.0429 439.991 -4.62827e-18)
(-52.936 480.951 1.69127e-18)
(-46.9696 469.319 -1.10824e-18)
(-60.3802 500.597 0)
(-57.4523 491.316 -5.61777e-19)
(-61.6058 516.137 -3.41767e-20)
(-61.8082 508.842 0)
(-57.8088 528.492 -1.01508e-19)
(-60.4352 522.717 -3.6885e-22)
(-48.9904 537.13 6.69289e-20)
(-53.9171 533.257 -7.23013e-21)
(-36.8081 542.407 -4.26447e-21)
(-43.1938 540.176 0)
(-23.3238 544.151 0)
(-30.0481 543.75 -8.52396e-21)
(-10.1371 543.613 0)
(-16.7104 544.001 -1.65532e-20)
(2.5196 541.811 1.33501e-19)
(-3.6832 542.863 -1.67696e-19)
(13.5943 537.686 5.50395e-19)
(8.45556 540.21 4.21495e-22)
(18.157 534.442 -5.04614e-19)
(27.2701 530.875 6.79539e-20)
(21.1567 540.154 5.39113e-19)
(24.8891 536.473 -1.61241e-18)
(10.2832 543.582 -2.80907e-19)
(16.2178 542.384 2.09283e-20)
(-3.22757 544.1 2.0613e-21)
(3.66471 544.096 6.68864e-20)
(-15.9647 542.364 -4.18329e-21)
(-9.93706 543.588 -1.31502e-19)
(-20.9725 540.062 5.31213e-19)
(-24.8661 526.576 -5.39012e-19)
(-17.3944 533.801 5.25095e-19)
(-21.4047 530.192 5.45313e-21)
(-7.5954 539.806 -5.21427e-19)
(-12.7774 537.17 2.68624e-19)
(4.71315 542.383 1.7026e-20)
(-1.55279 541.377 2.36085e-19)
(17.7692 543.729 -1.70243e-20)
(11.1814 543.2 0)
(31.1516 543.724 -1.70368e-20)
(24.3818 544.031 0)
(44.426 540.351 6.76865e-20)
(37.9599 542.46 0)
(55.3809 533.621 2.03217e-19)
(50.3294 537.413 -1.18296e-19)
(62.1103 523.104 0)
(59.3881 528.883 -1.51201e-19)
(63.5482 509.246 0)
(63.3363 516.523 -3.41196e-20)
(58.8548 492.023 -5.46628e-19)
(62.0038 501.103 -2.73182e-19)
(47.5854 470.412 2.83962e-18)
(53.9833 481.906 0)
(32.1433 440.418 0)
(40.0214 456.969 -5.467e-19)
(24.9775 419.115 -2.38648e-18)
(-44.1975 370.518 4.97529e-18)
(-21.5558 342.847 -4.78505e-18)
(-120.811 500.958 6.29488e-18)
(-106.834 446.038 -8.45749e-19)
(-126.466 537.879 -1.90704e-17)
(-128.599 523.322 3.96582e-18)
(-122.748 544.958 -4.4752e-17)
(21.4014 388.802 -1.94412e-17)
(120.742 494.042 -2.26817e-17)
(28.3006 522.966 -2.24455e-18)
(-27.9422 522.329 5.82092e-19)
(30.0297 378.18 2.30949e-18)
(14.9701 357.678 -6.98891e-20)
(123.332 518.888 1.78702e-17)
(111.004 508.878 1.98681e-17)
(11.0025 458.553 -3.5389e-17)
(-6.20348 506.209 4.25076e-17)
(-56.0323 546.162 -2.0091e-18)
(-91.3257 569.623 -2.73094e-17)
(-101.714 568.897 2.1377e-18)
(-99.3428 578.89 -1.04662e-18)
(-60.033 585.729 -9.46812e-17)
(-102.79 579.092 -1.11003e-18)
(-26.0283 34.8006 0)
(-103.319 577.056 3.12702e-17)
(129.53 519.827 0)
(130.063 513.876 -4.69908e-18)
(115.258 447.646 4.36538e-18)
(124.022 494.878 1.77944e-17)
(35.8689 348.189 -5.2489e-18)
(69.0179 383.47 -8.94532e-18)
(-17.8775 359.199 -2.32659e-18)
(7.67453 350.499 1.64109e-19)
(-34.3437 410.663 0)
(-28.7769 382.142 2.43545e-18)
(-48.278 450.604 0)
(-41.0665 433.305 0)
(-60.6704 475.55 -5.67556e-19)
(-55.0247 464.25 1.12991e-18)
(-67.1347 493.568 3.08801e-20)
(-64.7186 485.197 1.03812e-19)
(-66.8395 507.282 3.43482e-20)
(-67.638 500.794 4.36553e-21)
(-61.034 517.736 5.07065e-22)
(-64.6681 513.053 -1.67389e-20)
(-50.5492 524.867 1.0503e-21)
(-56.2168 521.637 3.85818e-20)
(-37.6703 529.495 4.1786e-21)
(-44.2763 527.488 0)
(-24.2374 531.442 -6.78032e-20)
(-30.9034 530.869 7.60429e-20)
(-11.3565 531.004 -6.77376e-20)
(-17.7859 531.369 6.77352e-20)
(1.16764 529.408 -1.02068e-19)
(-4.98679 530.348 1.35567e-19)
(12.545 526.121 2.79938e-19)
(7.15437 528.148 -2.88499e-19)
(21.2497 519.779 -2.15573e-20)
(17.1752 523.167 -5.50468e-19)
(28.074 512.103 -6.88425e-20)
(24.8255 516.226 5.43628e-19)
(30.7973 506.36 -1.04303e-18)
(28.7766 524.943 0)
(30.6245 517.093 1.56529e-18)
(21.2332 533.469 -5.31805e-19)
(25.5276 530.183 5.33888e-19)
(10.1624 536.198 1.54551e-19)
(16.0562 535.317 -1.67986e-20)
(-3.04485 536.387 -6.88738e-20)
(3.68781 536.487 -3.30109e-20)
(-15.8047 534.898 -4.19105e-21)
(-9.67287 535.928 -5.70164e-21)
(-25.6904 529.593 1.08532e-18)
(-21.2061 532.928 4.20002e-21)
(-30.4633 516.277 -2.0251e-20)
(-28.9144 524.252 0)
(-30.2715 505.352 3.40696e-20)
(-24.2329 515.392 5.43128e-19)
(-27.5159 511.221 -5.11242e-20)
(-16.3824 522.308 2.73306e-19)
(-20.5463 518.925 -8.13375e-19)
(-6.21685 527.505 1.01585e-19)
(-11.7032 525.394 0)
(6.08936 529.679 4.24602e-20)
(-0.127041 528.746 -2.0328e-19)
(18.8824 530.91 1.66875e-20)
(12.4619 530.409 0)
(32.0662 530.546 -6.8124e-20)
(25.3514 531.077 6.77669e-20)
(45.5169 527.288 8.48312e-20)
(38.8584 529.229 -6.79956e-20)
(57.6259 521.534 1.52324e-19)
(51.8637 524.724 -1.36592e-19)
(66.2163 512.914 -1.35712e-19)
(62.5276 517.634 1.3748e-19)
(69.2104 500.618 2.7854e-19)
(68.4125 507.089 3.42959e-20)
(66.0631 485.287 5.60032e-19)
(68.6214 493.48 5.27375e-21)
(55.9848 464.55 1.14857e-18)
(61.8243 475.827 0)
(42.1109 432.155 -1.09763e-18)
(49.1548 450.498 6.73576e-20)
(35.8361 407.999 4.51765e-18)
(-79.7645 401.474 -1.01941e-18)
(-12.9592 352.502 -1.61811e-20)
(-42.2848 351.757 2.32631e-18)
(-124.018 500.485 -1.36317e-18)
(-116.057 462.63 1.41709e-18)
(-124.522 528.359 2.41695e-17)
(-128.255 517.21 1.23548e-18)
(-115.871 541.566 -1.20543e-17)
(-121.959 534.679 1.57998e-17)
(-102.939 557.815 1.3861e-17)
(-110.535 548.917 1.27989e-17)
(-77.8167 581.277 2.9551e-17)
(-86.4431 574.243 -3.91803e-18)
(-93.8784 577.251 2.05934e-17)
(-95.1848 566.173 -1.6529e-17)
(95.8485 466.127 3.70422e-17)
(-23.8188 27.7145 4.0035e-16)
(130.234 534.492 1.82047e-17)
(126.319 525.913 0)
(10.7918 503.133 -2.03923e-17)
(21.6877 20.8619 -1.14414e-17)
(26.6455 497.771 6.84194e-20)
(29.3995 492.117 -1.11654e-18)
(-32.3055 505.753 -5.38458e-19)
(-32.1396 496.24 5.26859e-19)
(-21.4173 530.158 -1.94906e-18)
(-85.9734 584.656 -2.50028e-17)
(-70.882 563.111 -1.94276e-17)
(-92.929 586.435 -8.93271e-19)
(-97.0852 586.64 -6.93511e-17)
(-95.3374 579.647 2.31793e-17)
(-98.4204 585.668 -3.60811e-17)
(-22.9995 24.3442 0)
(-26.8937 32.6005 8.94292e-17)
(-27.2542 30.3935 0)
(-28.6568 30.3002 -8.78764e-17)
(-46.7532 67.601 -3.03109e-16)
(-27.8509 26.0407 -6.20408e-17)
(129.659 538.333 -2.21223e-18)
(123.088 539.324 -2.60837e-17)
(-25.7296 27.8544 1.49079e-16)
(126.7 549.95 2.33055e-18)
(-77.1959 568.892 0)
(-86.231 561.624 -3.97262e-18)
(58.09 529.013 7.10313e-17)
(94.6077 526.836 8.43127e-17)
(126.394 542.115 9.33049e-18)
(-24.7929 28.0887 -1.88215e-16)
(124.058 532.267 -2.08555e-17)
(-39.4982 71.236 3.15902e-16)
(121.321 548.061 1.40604e-17)
(118.37 538.427 -6.92022e-18)
(-23.7081 25.2542 0)
(98.2375 544.459 5.40381e-18)
(113.432 543.773 2.37797e-17)
(109.795 531.751 -1.9004e-17)
(104.045 538.506 -5.06611e-18)
(118.841 519.49 -2.26539e-19)
(114.048 526.035 0)
(124.839 501.282 4.52325e-18)
(121.346 512.723 -4.64656e-18)
(118.056 453.691 -9.5685e-18)
(122.487 485.852 -4.5847e-18)
(54.2888 355.124 1.89938e-19)
(94.9128 397.474 1.65997e-17)
(-11.4195 355.306 -2.2871e-18)
(20.5394 352.472 -2.38165e-18)
(-44.1199 393.714 0)
(-34.8333 368.094 0)
(-56.7475 438.641 0)
(-50.6466 419.282 1.13998e-18)
(-67.131 464.61 0)
(-62.4439 453.193 -5.73863e-19)
(-71.6652 481.346 6.01799e-20)
(-70.2805 473.744 -2.0193e-19)
(-69.7459 493.738 -6.86936e-20)
(-71.3501 487.887 -3.52977e-20)
(-61.9375 502.591 0)
(-66.4275 498.581 4.36104e-20)
(-50.6946 509.014 -6.86096e-20)
(-56.5936 506.03 2.99769e-20)
(-38.0433 513.63 -3.64676e-20)
(-44.4548 511.567 6.85271e-20)
(-25.1235 515.956 -4.32401e-21)
(-31.5744 515.136 0)
(-12.7628 515.668 2.5524e-20)
(-18.8965 516.051 4.32212e-21)
(-0.658208 514.108 -6.83783e-20)
(-6.65618 515.015 -1.68841e-20)
(10.777 511.275 2.57299e-19)
(5.18964 512.921 6.83795e-20)
(19.7499 505.479 1.26898e-20)
(15.6388 508.726 -2.69469e-19)
(23.3723 501.923 0)
(32.8349 497.208 1.01791e-18)
(30.6877 513.328 5.67985e-19)
(32.6982 506.702 -1.06659e-18)
(21.9154 520.071 -3.38868e-20)
(26.9533 517.606 1.27448e-20)
(9.89313 521.207 -2.028e-19)
(16.1255 521.111 1.68801e-20)
(-3.13841 520.436 1.01316e-19)
(3.44307 520.858 -1.35905e-20)
(-16.1649 519.56 1.68734e-20)
(-9.74231 520.09 1.98443e-19)
(-27.0789 516.158 -5.22525e-19)
(-22.0727 518.408 -2.54075e-20)
(-30.6225 512.147 0)
(-28.5768 490.775 -3.46972e-20)
(-22.574 500.691 2.78235e-19)
(-25.8616 496.505 1.7095e-20)
(-14.7276 507.462 1.72905e-20)
(-18.8718 504.209 -2.79426e-19)
(-4.18127 511.843 -1.199e-19)
(-9.83282 510.124 1.36719e-19)
(7.76696 513.943 1.70694e-20)
(1.73992 513.023 -6.82993e-20)
(20.0145 515.129 8.55369e-20)
(13.8674 514.672 -9.04683e-24)
(32.751 514.288 1.68511e-20)
(26.2823 515.078 0)
(45.6462 510.744 -1.5424e-19)
(39.2254 512.8 0)
(57.8381 505.187 -1.19481e-19)
(51.9062 508.187 2.74235e-19)
(67.7303 497.643 0)
(63.2186 501.715 -3.471e-20)
(72.5581 486.887 2.79387e-19)
(71.0272 492.718 -3.46813e-20)
(71.4629 472.933 -2.7913e-19)
(72.8558 480.423 -5.56055e-19)
(63.7889 452.303 0)
(68.3562 463.861 0)
(52.2046 416.324 -1.74688e-18)
(58.2537 437.014 5.86727e-19)
(34.5494 365.513 -2.35896e-18)
(45.6083 389.35 9.52215e-19)
(-25.5978 353.177 2.33252e-18)
(7.14369 355.252 5.22491e-19)
(-102.032 411.262 0)
(-59.5986 360.19 0)
(-122.571 488.623 -4.32451e-18)
(-117.329 464.009 -2.14894e-18)
(-120.557 514.268 0)
(-123.267 503.547 -6.271e-18)
(-112.979 528.748 -1.9951e-18)
(-117.591 521.09 0)
(-101.799 545.01 5.14511e-19)
(-108.208 536.188 0)
(-94.6072 553.258 -4.05717e-18)
(-25.7106 31.9687 2.77599e-20)
(-26.262 29.9114 -8.50489e-17)
(-27.5363 28.1915 -1.43371e-16)
(108.244 533.562 0)
(24.6342 509.773 -2.2133e-17)
(-24.4713 31.4376 -1.76957e-16)
(-93.6083 625.238 -1.21545e-16)
(61.0703 31.9496 -2.99576e-16)
(-62.6432 593.535 6.98528e-17)
(31.262 483.901 1.09745e-18)
(-30.3044 482.625 6.92981e-20)
(-28.3175 32.8545 -1.87353e-16)
(123.826 555.105 9.40445e-18)
(98.783 557.037 0)
(75.1592 550.658 0)
(4.9817 523.379 1.14394e-17)
(-78.7498 590.725 0)
(-30.7254 27.2528 0)
(121.955 556.209 9.10575e-18)
(-85.0659 545.212 0)
(-76.9318 552.25 3.2957e-17)
(-68.3297 573.738 0)
(-35.0545 546.252 -3.78942e-17)
(-86.572 592.839 -3.39785e-17)
(-91.8301 593.438 3.48727e-17)
(115.076 553.757 -1.42167e-17)
(122.953 447.73 -7.58412e-17)
(-80.3281 578.523 0)
(-114.104 608.699 1.14487e-18)
(107.014 550.596 1.43476e-17)
(-29.9375 30.5493 7.27456e-17)
(-92.5204 589.872 -2.72345e-19)
(-94.3841 592.419 0)
(-23.0806 28.8041 1.96914e-16)
(-23.2454 30.7346 -1.82817e-16)
(-53.4198 597.764 -1.70102e-19)
(-24.7686 33.8065 -9.23943e-17)
(-23.3313 33.028 -3.67529e-20)
(23.6785 22.0184 5.77299e-18)
(104.366 515.992 -3.26184e-17)
(99.6427 523.371 1.78966e-16)
(111.776 501.657 -8.1776e-20)
(107.834 509.403 9.28912e-18)
(117.616 481.749 4.62417e-18)
(114.222 493.728 -4.64171e-18)
(114.847 441.012 -2.10459e-18)
(116.538 466.174 2.3578e-18)
(63.4956 356.6 1.20374e-18)
(102.592 394.61 -2.20396e-18)
(-3.06636 347.967 2.49345e-18)
(29.2337 347.469 -1.1799e-18)
(-50.6781 371.318 -5.99121e-19)
(-33.1124 353.3 5.83853e-19)
(-63.4438 418.193 0)
(-57.9824 396.801 -1.75382e-18)
(-71.5256 446.44 0)
(-68.0634 434.371 -2.83474e-19)
(-73.6635 462.74 -6.988e-20)
(-73.4873 455.562 1.06181e-19)
(-69.866 474.075 0)
(-72.6057 468.858 1.796e-20)
(-60.9944 482.241 0)
(-65.8306 478.406 4.25959e-21)
(-50.0233 488.857 -2.73728e-22)
(-55.6603 485.715 2.19285e-21)
(-38.2032 493.898 3.68104e-20)
(-44.1834 491.62 -3.45512e-20)
(-26.0241 496.612 6.44651e-21)
(-32.1368 495.59 -2.18368e-21)
(-14.1431 496.624 8.53126e-21)
(-20.0033 496.917 -4.26396e-21)
(-2.71562 495.012 -8.61734e-20)
(-8.3791 495.945 1.74628e-20)
(8.25338 492.236 0)
(2.8477 493.805 6.91003e-20)
(17.528 487.16 -2.72552e-19)
(13.2755 490.082 2.77138e-19)
(24.1952 479.398 5.71908e-19)
(21.0789 483.624 -5.59251e-19)
(28.3194 466.402 -5.20155e-19)
(26.7312 473.886 5.27176e-19)
(27.9669 456.786 5.68863e-19)
(32.0074 483.583 0)
(30.7718 472.61 0)
(29.0396 493.549 -7.91371e-19)
(31.4413 490.261 5.28634e-19)
(19.8245 493.982 -1.72439e-20)
(25.0273 494.466 -1.60009e-19)
(8.12136 491.702 2.94044e-20)
(13.9909 492.9 1.7051e-20)
(-3.18592 490.721 -4.83695e-20)
(2.34581 490.891 -1.95835e-20)
(-14.2682 492.051 0)
(-8.64378 491.142 -1.39007e-19)
(-24.6593 493.791 1.33978e-19)
(-19.7573 493.139 0)
(-30.6831 489.912 -1.82388e-20)
(-28.4567 493.089 2.93831e-19)
(-29.6576 471.698 -6.01042e-19)
(-31.08 483.087 7.46591e-20)
(-26.6557 455.277 5.91094e-19)
(-25.6729 472.008 5.96965e-19)
(-27.1355 464.596 -1.19095e-18)
(-20.02 481.754 -4.30735e-21)
(-23.1718 477.538 0)
(-12.2238 488.218 3.26269e-22)
(-16.4298 485.262 0)
(-1.78782 492.085 0)
(-7.22078 490.471 0)
(9.46934 494.237 -1.72572e-20)
(3.80368 493.287 0)
(21.1178 495.253 -1.70628e-20)
(15.2323 494.939 0)
(33.2644 493.955 -1.74719e-20)
(27.1489 494.97 8.72904e-21)
(45.2696 489.944 1.39009e-19)
(39.3167 492.253 -1.74858e-20)
(56.6635 483.916 1.79051e-20)
(51.0721 487.129 -1.38466e-19)
(66.7513 476.451 2.43254e-19)
(61.9533 480.362 -2.4481e-19)
(73.4237 466.778 5.61161e-19)
(70.7436 472.065 -2.46203e-19)
(74.3323 453.366 5.63589e-19)
(74.4554 460.581 -8.45942e-19)
(69.5242 431.703 5.59882e-19)
(72.627 444.108 -1.70408e-18)
(59.9667 392.16 -5.69054e-18)
(65.3337 414.789 1.18541e-18)
(31.3777 350.517 -1.15899e-18)
(51.9145 366.355 -3.59319e-18)
(-32.9959 347.531 5.65157e-19)
(0.326091 347.11 -5.07606e-20)
(-106.143 401.769 4.58735e-18)
(-69.261 361.515 -2.16945e-18)
(-116.37 466.579 4.49012e-18)
(-112.375 445.481 -5.55101e-18)
(-113.776 493.769 -8.58102e-18)
(-116.094 482.96 -1.05498e-18)
(-107.807 511.057 -2.1033e-18)
(-111.426 502.434 8.58352e-18)
(-98.634 528.413 1.69164e-17)
(-103.905 519.318 0)
(-92.4036 536.884 -1.70103e-17)
(-26.9701 38.0557 0)
(-27.7077 35.6052 0)
(90.2425 528.927 2.07306e-16)
(-25.7812 25.9456 2.66228e-16)
(-26.5245 27.7896 -7.50926e-17)
(116.375 556.377 0)
(38.475 531.2 0)
(-23.5757 35.6003 2.87293e-16)
(-63.8188 602.131 -3.68481e-17)
(-71.9375 596.152 3.35015e-17)
(-29.2453 38.439 -2.2587e-16)
(-20.429 36.1175 1.61316e-16)
(-24.0122 24.1102 0)
(119.859 563.475 -9.07392e-18)
(-81.1804 524.316 0)
(-74.3349 532.082 -1.72157e-17)
(-68.3206 558.127 -5.01802e-19)
(10.1701 538.735 3.69731e-18)
(104.799 570.116 0)
(86.711 566.851 0)
(-24.6531 38.0972 -1.66828e-16)
(-80.3193 598.456 -1.64677e-17)
(24.227 22.7901 -2.75855e-21)
(24.3763 444.571 -5.61406e-19)
(23.9537 436.241 0)
(-25.6808 460.053 5.68409e-19)
(-23.4289 445.512 3.51034e-20)
(-85.5061 599.667 0)
(-31.4605 17.1235 -1.82842e-16)
(115.192 562.767 -2.05225e-19)
(-60.0462 576.181 -1.97327e-17)
(-22.5733 25.5478 -2.62562e-17)
(22.9255 21.0555 -5.71094e-18)
(23.1344 20.1328 3.36307e-17)
(23.2468 19.258 -5.96303e-22)
(-16.1569 38.7124 -4.86668e-17)
(-47.3263 573.618 2.9093e-18)
(-20.8752 63.9682 0)
(-14.3671 65.9155 -1.56445e-16)
(-26.1854 40.9159 1.81981e-16)
(34.1814 10.7011 4.45361e-17)
(-27.086 61.0336 0)
(-31.462 62.2429 -1.92023e-20)
(108.42 560.706 -1.86462e-17)
(-54.029 588.43 5.70114e-17)
(26.4551 26.2404 2.08614e-17)
(25.845 25.9177 0)
(25.3889 27.4839 -2.09233e-17)
(26.0565 27.9918 -2.19867e-17)
(33.6431 36.6113 6.45012e-20)
(-78.4733 595.328 1.68459e-17)
(-87.8901 600.328 -3.38415e-17)
(100.2 556.786 -5.61814e-19)
(-21.9247 27.8954 -1.05154e-16)
(-86.3577 599.088 3.38806e-17)
(-7.7404 66.9245 -3.0554e-19)
(-4.55875 70.8923 3.17178e-16)
(-18.456 68.6279 1.58139e-16)
(91.2631 548.748 -1.17248e-16)
(-22.0113 29.7498 9.69752e-17)
(-11.5738 70.257 -3.17655e-16)
(-21.9746 31.9084 8.90654e-17)
(-21.8451 34.502 0)
(-51.3573 609.356 -8.86225e-18)
(24.4572 21.7603 -5.78954e-18)
(-42.2827 602.869 9.23055e-18)
(-44.4154 75.348 -1.41048e-16)
(95.6018 495.369 4.52444e-18)
(91.5024 503.782 0)
(102.348 477.398 -2.32856e-18)