/*--------------------------------*- C++ -*----------------------------------*\
| =========                 |                                                 |
| \\      /  F ield         | OpenFOAM: The Open Source CFD Toolbox           |
|  \\    /   O peration     | Version:  2212                                  |
|   \\  /    A nd           | Website:  www.openfoam.com                      |
|    \\/     M anipulation  |                                                 |
\*---------------------------------------------------------------------------*/
FoamFile
{
    version     2.0;
    format      ascii;
    arch        "LSB;label=32;scalar=64";
    class       volScalarField;
    location    "0.0976";
    object      p;
}
// * * * * * * * * * * * * * * * * * * * * * * * * * * * * * * * * * * * * * //

dimensions      [1 -1 -2 0 0 0 0];

internalField   nonuniform List<scalar> 
31661
(
504.063
39.0117
41.0263
39.908
39.1302
40.9231
39.8928
39.2912
40.894
39.9419
475.182
54.3029
684.19
320.573
459.884
446.832
473.334
469.367
56.9302
436.593
79.0946
79.9159
244.404
410.378
42.6044
79.1209
240.631
209.662
54.8408
58.4028
402.843
95.7765
95.7909
63.5067
81.8842
386.369
65.4095
383.844
226.639
93.5472
96.5862
38.0908
361.45
98.8394
102.165
59.3311
100.359
81.041
65.0355
258.676
94.334
245.128
62.3169
77.6472
191.445
54.042
63.7354
68.8688
63.0203
57.6237
57.5675
56.5336
92.4268
34.4923
73.0564
389.712
615.586
57.3394
53.2589
49.1141
51.7432
45.0236
41.5088
39.4277
37.2457
35.6646
34.1861
33.0733
32.0905
31.3478
30.7238
30.2637
29.8997
29.6467
29.7431
30.0131
30.3919
30.8766
31.5149
32.2874
33.2715
34.4158
35.8553
37.4807
39.5008
41.7211
44.3345
47.2063
49.9867
53.4382
57.2518
61.2489
65.1545
68.9289
68.9845
73.6948
73.1807
78.2234
77.3906
82.4225
81.3902
86.2119
85.0818
89.547
88.4071
92.4165
91.3337
94.8423
93.8619
96.8675
96.0143
98.5451
97.8261
99.9314
99.3405
101.081
100.606
102.043
101.665
102.857
102.56
103.557
103.325
104.17
103.99
104.719
104.579
105.223
105.112
105.694
105.607
106.148
106.079
106.594
106.539
107.043
106.999
107.503
107.469
107.986
107.96
108.5
108.482
109.057
109.046
109.668
109.664
110.349
110.35
111.113
111.122
111.98
111.996
112.972
112.997
114.116
114.149
115.446
115.488
117.056
117.005
117.139
115.564
114.221
113.064
112.06
111.183
110.409
109.721
109.102
108.539
108.018
107.53
107.063
106.609
106.156
105.694
105.212
104.697
104.133
103.5
102.776
101.932
100.932
99.7356
98.2934
96.5526
94.4582
91.9603
89.0217
85.6228
81.7738
77.5083
72.8644
67.855
62.934
57.7799
53.1418
48.8189
45.3227
42.3122
39.8301
37.6816
35.9483
34.4526
33.2648
32.2637
29.551
29.4671
31.4826
30.846
30.3652
29.9897
29.7217
29.3814
29.4513
29.661
29.8034
30.0343
30.3527
30.7791
31.3251
32.0192
32.8682
33.9063
35.1386
36.6013
38.3086
40.2824
42.5239
45.0656
47.8328
50.7293
53.8672
57.2469
60.7061
64.2038
67.8564
71.584
75.3152
78.9665
82.4718
85.7667
88.8067
91.5487
93.9762
96.0864
97.8964
99.433
100.73
101.825
102.754
103.549
104.241
104.854
105.412
105.933
106.432
106.925
107.422
107.937
108.48
109.066
109.706
110.415
111.21
112.11
113.137
114.319
115.689
117.291
119.186
118.917
118.858
119.01
119.375
117.462
115.846
114.465
113.273
112.238
111.333
110.534
109.822
109.182
108.597
108.057
107.547
107.059
106.578
106.096
105.598
105.072
104.5
103.863
103.138
102.298
101.309
100.134
98.7314
97.0574
95.0717
92.7379
90.0331
86.9512
83.5074
79.7348
75.6821
71.4134
67.0119
62.5634
57.9929
53.7812
49.8734
46.4377
43.4373
40.8837
38.6538
36.7878
35.2046
33.8991
32.822
31.9553
31.2601
29.5323
30.7149
30.2918
29.9769
29.5824
29.4002
29.4359
29.3365
29.5578
29.8425
29.8884
30.0222
30.2334
30.5312
30.9274
31.4399
32.0817
32.8769
33.8369
34.9863
36.3356
37.9044
39.6899
41.7101
43.9419
46.4074
48.9876
51.6359
54.3979
57.2448
60.1397
63.0385
66.0713
69.1984
72.3821
75.6026
78.8227
82.0129
85.1108
88.0568
90.7937
93.2812
95.4959
97.4296
99.0954
100.517
101.723
102.746
103.623
104.384
105.059
105.672
106.246
106.799
107.347
107.906
108.49
109.114
109.792
110.54
111.376
112.32
113.394
114.626
116.051
117.711
119.665
122.013
121.478
121.177
121.111
121.282
121.687
122.326
119.952
117.973
116.293
114.85
113.603
112.517
111.565
110.724
109.973
109.295
108.674
108.096
107.548
107.016
106.487
105.945
105.374
104.757
104.07
103.289
102.383
101.32
100.063
98.5752
96.8221
94.7758
92.4224
89.7602
86.8118
83.6139
80.2181
76.6755
73.0409
69.3598
65.6612
61.9167
58.1522
54.5611
51.1246
47.9374
45.039
42.4698
40.1726
38.1835
36.4584
35.0129
33.8085
32.8219
32.0146
31.3681
29.7536
30.8565
30.4642
29.3863
29.817
29.5521
29.6201
29.3874
29.3256
29.8161
30.1533
30.1725
30.2359
30.3569
30.5679
30.8648
31.2595
31.7664
32.4011
33.1805
34.1217
35.2378
36.5393
38.0359
39.7241
41.5931
43.6343
45.8025
48.0925
50.3871
52.6729
54.963
57.2488
59.5255
61.8024
64.1713
66.6476
69.2355
71.9447
74.773
77.7025
80.6953
83.6969
86.6352
89.4425
92.0625
94.4494
96.5762
98.4373
100.041
101.412
102.581
103.584
104.455
105.226
105.926
106.582
107.216
107.848
108.497
109.181
109.917
110.723
111.619
112.626
113.768
115.073
116.575
118.316
120.353
122.776
125.766
124.952
124.38
124.057
123.987
124.171
124.607
125.292
126.217
123.194
120.737
118.671
116.903
115.378
114.054
112.898
111.88
110.978
110.169
109.435
108.759
108.122
107.511
106.908
106.294
105.65
104.953
104.179
103.297
102.276
101.08
99.6747
98.0264
96.11
93.9135
91.4394
88.7116
85.7736
82.6885
79.5191
76.3345
73.1778
70.0848
67.0684
64.1088
61.1606
58.2112
55.3308
52.4583
49.6719
46.9987
44.5077
42.195
40.0989
38.2296
36.624
35.2505
34.0906
33.1213
32.3276
31.6911
30.1721
31.1827
29.4065
29.618
29.9686
30.153
29.9001
29.5525
29.3743
29.3595
30.2438
30.5526
30.5552
30.5855
30.6398
30.7852
31.0102
31.3225
31.7351
32.2602
32.9138
33.7101
34.6632
35.7845
37.0807
38.5542
40.1961
41.9841
43.8882
45.8731
47.8944
49.9108
51.8437
53.7082
55.5054
57.2576
58.9674
60.678
62.4605
64.3471
66.3645
68.5387
70.888
73.4181
76.1171
78.9546
81.8739
84.817
87.7108
90.4789
93.0576
95.4082
97.5006
99.331
100.914
102.276
103.451
104.473
105.379
106.203
106.976
107.724
108.474
109.248
110.069
110.957
111.935
113.027
114.259
115.659
117.261
119.106
121.244
123.76
126.811
130.768
129.737
128.934
128.371
128.055
127.99
128.175
128.61
129.292
130.208
127.37
124.283
121.729
119.554
117.678
116.049
114.627
113.379
112.276
111.291
110.404
109.591
108.832
108.108
107.398
106.68
105.928
105.118
104.217
103.193
102.011
100.634
99.0286
97.1693
95.0438
92.6517
90.02
87.191
84.225
81.1961
78.1849
75.2475
72.4371
69.7777
67.2739
64.9063
62.6377
60.4179
58.2047
56.0057
53.7375
51.4408
49.1262
46.8364
44.6015
42.4722
40.5029
38.7371
37.1688
35.7994
34.6294
33.6573
32.849
30.794
32.1865
131.345
31.6582
29.4989
30.5019
29.7116
29.8425
30.0013
29.5301
30.6313
30.3435
29.3993
29.4572
30.7325
31.0624
31.0031
31.0113
31.042
31.1305
31.2928
31.5419
31.8829
32.3272
32.889
33.5808
34.4174
35.4076
36.5624
37.8835
39.3645
40.991
42.7315
44.5483
46.399
48.2284
50.0063
51.6815
53.2276
54.6656
56.0114
57.3038
58.5311
59.7835
61.0917
62.4926
64.0158
65.6928
67.5506
69.6105
71.883
74.3651
77.0354
79.8571
82.7745
85.7158
88.6074
91.3734
93.9532
96.302
98.3963
100.237
101.839
103.233
104.455
105.541
106.532
107.463
108.368
109.277
110.222
111.225
112.314
113.518
114.864
116.382
118.106
120.074
122.333
124.955
128.075
132.011
137.516
136.494
135.656
135.012
134.569
134.329
134.291
134.452
134.808
135.361
136.107
137.04
132.683
128.734
125.579
122.918
120.62
118.617
116.863
115.321
113.959
112.745
111.654
110.659
109.735
108.856
108
107.138
106.239
105.272
104.201
102.99
101.599
99.9947
98.148
96.0427
93.6786
91.0821
88.2914
85.3685
82.3918
79.43
76.5568
73.8343
71.2956
68.9626
66.8287
64.8775
63.0799
61.3929
59.7718
58.1705
56.5514
54.8553
53.0712
51.1912
49.2229
47.1955
45.1583
43.1746
41.2998
39.553
37.975
36.5978
35.4078
34.3796
33.531
32.8276
138.144
32.26
31.2491
29.6036
30.2963
29.8467
29.8041
30.1457
29.5268
30.4928
29.4912
31.1593
30.877
29.5702
146.32
145.922
145.632
145.439
145.331
145.295
145.322
145.407
145.536
145.717
145.976
146.322
146.763
139.399
134.197
130.283
127.062
124.289
121.857
119.711
117.812
116.128
114.625
113.273
112.042
110.9
109.814
108.765
107.709
106.614
105.44
104.147
102.696
101.047
99.1705
97.0459
94.671
92.0655
89.27
86.347
83.3688
80.41
77.5466
74.8398
72.3276
70.0369
67.9723
66.1251
64.4787
63.0036
61.6676
60.435
59.269
58.1557
56.9924
55.7747
54.4639
53.0311
51.4589
49.754
47.9378
46.0659
44.1839
42.3394
40.6153
39.0362
37.6025
36.3505
35.2663
34.3435
33.577
31.8085
32.954
147.309
31.2956
31.6248
31.5296
31.5021
31.516
31.5697
31.6731
31.8717
32.1553
32.5354
33.0243
33.6351
34.3804
35.2724
36.3189
37.5254
38.8891
40.3976
42.0276
43.7433
45.4989
47.242
48.9261
50.5073
51.968
53.2801
54.4555
55.5116
56.4926
57.4002
58.3118
59.1816
60.1166
61.134
62.2541
63.5072
64.9196
66.5171
68.3221
70.3512
72.6111
75.0946
77.7785
80.6222
83.5644
86.5367
89.458
92.2553
94.8669
97.249
99.384
101.274
102.94
104.414
105.735
106.946
108.088
109.202
110.319
111.49
112.732
114.081
115.571
117.234
119.103
121.213
123.606
126.343
129.533
133.44
138.702
146.832
30.9375
29.7566
32.4593
31.4705
30.1849
30.0067
29.7823
30.3142
29.6018
30.6625
29.5992
31.0465
29.7252
31.7436
31.4599
147.969
140.779
135.848
131.984
128.706
125.819
123.247
120.945
118.881
117.028
115.353
113.824
112.402
111.047
109.747
108.438
107.086
105.645
104.071
102.323
100.364
98.1728
95.7423
93.0881
90.2494
87.2858
84.272
81.2823
78.3964
75.6692
73.1439
70.8517
68.8005
66.9794
65.3805
63.9774
62.7442
61.6574
60.6853
59.8089
59.0064
58.1864
57.3921
56.534
55.6137
54.5764
53.4034
52.0717
50.5774
48.944
47.1939
45.397
43.6186
41.8826
40.2667
38.7671
37.4443
36.2749
35.2745
34.4338
33.7497
32.1209
32.0408
32.044
32.0761
32.1319
32.2865
32.5202
32.8495
33.2781
33.8216
34.4928
35.3036
36.2635
37.3788
38.6488
40.0656
41.61
43.2513
44.9474
46.6482
48.3005
49.8585
51.2859
52.5637
53.6898
54.6653
55.5178
56.2699
56.9592
57.594
58.2418
58.8811
59.5325
60.2315
61.0342
61.9482
62.9886
64.1824
65.5537
67.127
68.9229
70.956
73.2326
75.7438
78.4669
81.3565
84.3533
87.3828
90.3664
93.2286
95.908
98.3665
100.589
102.581
104.369
105.988
107.482
108.899
110.284
111.673
113.135
114.681
116.354
118.192
120.23
122.501
125.041
127.896
131.152
135.019
140.023
147.456
159.777
160.511
161.296
162.085
162.828
163.48
163.996
164.336
164.477
164.405
164.11
163.598
162.916
162.134
161.295
160.454
32.2246
159.692
32.0733
33.1878
31.9032
30.7181
29.9265
178.83
181.686
184.481
187.068
189.337
191.197
192.563
193.387
193.67
193.421
192.658
191.41
189.734
187.669
185.302
182.731
180.036
31.2204
30.1278
30.1976
32.3734
32.7419
32.6464
32.6086
32.6249
32.6515
32.7748
32.9638
33.2429
33.6224
34.1065
34.7152
35.4575
36.3439
37.3818
38.5734
39.9138
41.3879
42.97
44.6219
46.2968
47.9419
49.5064
50.9482
52.2397
53.3672
54.3363
55.1585
55.853
56.4488
56.9717
57.4389
57.884
58.3048
58.7789
59.257
59.7571
60.3048
60.9327
61.6725
62.5384
63.5439
64.7155
66.0771
67.6518
69.4613
71.521
73.8361
76.3998
79.1848
82.1492
85.2302
88.3525
91.4364
94.407
97.2062
99.798
102.172
104.339
106.328
108.181
109.949
111.679
113.414
115.242
117.158
119.216
121.454
123.906
126.6
129.573
132.887
136.703
141.443
148.185
159.135
177.347
32.7626
31.7897
29.7904
30.5132
29.6955
30.8659
29.752
31.2471
29.9011
31.6559
32.0887
32.8692
32.5468
34.0416
33.5367
176.072
159.07
148.747
142.254
137.594
133.794
130.468
127.474
124.757
122.286
120.037
117.982
116.09
114.323
112.626
111.008
109.375
107.695
105.916
103.993
101.885
99.5653
97.0231
94.2705
91.3427
88.2977
85.208
82.154
79.208
76.436
73.8744
71.5575
69.4842
67.6607
66.0681
64.6853
63.489
62.4554
61.5557
60.7754
60.1136
59.5024
58.9183
58.3273
57.7812
57.1969
56.564
55.8458
55.0148
54.0412
52.9024
51.5899
50.1033
48.4861
46.7797
45.0095
43.2781
41.6092
40.0744
38.649
37.393
36.3156
35.398
34.6313
34.0191
205.654
32.4236
33.5064
96.1429
200.979
30.5766
30.1309
210.129
214.216
217.774
220.703
223.002
224.669
225.68
226.066
225.838
225.007
223.58
221.562
218.973
215.856
212.225
208.166
203.825
31.0615
30.1092
30.4106
33.9506
33.2925
33.2128
33.2175
33.2444
33.3197
33.4642
33.7059
34.0398
34.4775
35.0325
35.7145
36.5362
37.506
38.6281
39.9004
41.3122
42.8418
44.4559
46.1109
47.7556
49.3383
50.8116
52.1408
53.3056
54.3027
55.1386
55.8344
56.4083
56.8861
57.2901
57.6421
57.9619
58.2584
58.5513
58.8439
59.177
59.5659
59.9534
60.3899
60.8838
61.4741
62.1846
63.0302
64.0255
65.1971
66.5691
68.1662
70.0108
72.1192
74.4978
77.139
80.0188
83.0922
86.298
89.5601
92.7985
95.9405
98.9303
101.736
104.349
106.787
109.084
111.288
113.447
115.599
117.869
120.218
122.706
125.368
128.23
131.321
134.685
138.439
142.919
149.002
158.616
174.778
199.341
31.5903
29.8765
30.734
33.133
32.1899
29.8356
31.0887
29.9235
31.4715
30.1083
31.8772
32.3059
32.7546
33.6971
233.382
228.58
34.9202
35.0439
196.321
173.555
158.635
149.629
143.784
139.388
135.66
132.301
129.205
126.34
123.684
121.217
118.91
116.728
114.618
112.605
110.569
108.478
106.282
103.935
101.405
98.677
95.7585
92.6819
89.5021
86.2914
83.128
80.0874
77.231
74.6063
72.2356
70.127
68.2738
66.6687
65.2814
64.0936
63.0767
62.2092
61.4721
60.8603
60.3254
59.8468
59.3946
58.9522
58.5824
58.2004
57.8142
57.3865
56.9013
56.3366
55.6624
54.8478
53.8704
52.7115
51.3718
49.8718
48.2173
46.5105
44.7926
43.0859
41.4593
39.989
38.653
37.4792
36.4643
35.6273
34.9081
34.3526
34.7227
34.159
32.8463
33.901
90.6429
30.5281
30.3517
237.666
241.325
244.329
246.726
248.561
249.862
250.66
250.987
250.877
250.317
249.286
247.772
245.762
243.221
240.115
236.444
232.236
227.572
30.9781
30.1196
30.6475
40.1201
33.8642
33.8477
33.8687
33.8991
34.0314
34.2334
34.5277
34.9227
35.4281
36.0602
36.8242
37.7331
38.7925
40.0027
41.3564
42.8363
44.4137
46.0489
47.6935
49.2951
50.8042
52.1803
53.3968
54.4425
55.3202
56.0435
56.632
57.109
57.4958
57.8136
58.0804
58.3112
58.5194
58.716
58.9108
59.1084
59.3178
59.5422
59.8345
60.1565
60.5026
60.9075
61.3775
61.9471
62.6499
63.4955
64.5012
65.691
67.0946
68.7373
70.6411
72.8249
75.2971
78.0528
81.0683
84.3012
87.6893
91.1572
94.6269
98.0263
101.302
104.425
107.391
110.22
112.948
115.622
118.261
121.016
123.856
126.783
129.845
133.066
136.479
140.172
144.405
149.884
158.271
172.438
194.897
222.566
31.4898
29.982
30.9781
32.0358
29.9962
31.3379
33.5697
32.6583
30.1283
31.7205
30.3329
32.1245
32.547
32.9874
253.799
250.294
33.4413
33.8985
73.368
34.3447
223.387
217.988
191.904
171.399
158.448
150.589
145.324
141.176
137.524
134.138
130.946
127.918
125.042
122.3
119.64
117.065
114.581
112.057
109.468
106.77
103.924
100.913
97.7401
94.4342
91.0483
87.6526
84.3255
81.1416
78.1631
75.4334
72.9777
70.8031
68.9017
67.2566
65.8462
64.6436
63.6228
62.7625
62.0421
61.4563
60.9586
60.5274
60.1504
59.7704
59.4597
59.1922
58.9345
58.6804
58.4187
58.1365
57.8186
57.4478
56.9968
56.4455
55.7602
54.9196
53.8981
52.6906
51.2891
49.7446
48.0979
46.3674
44.6402
43.0048
41.4317
40.0125
38.7261
37.6484
36.6983
35.9114
35.2596
34.7569
370.543
33.3306
34.3628
84.9937
60.1817
30.5025
30.5986
256.746
259.112
260.968
262.4
263.473
264.23
264.709
264.932
264.935
264.658
264.135
263.33
262.21
260.731
258.842
256.483
253.593
250.183
246.264
30.9454
30.209
30.9039
61.1052
40.5698
34.4966
34.5157
34.5535
34.6434
34.8052
35.0693
35.4272
35.8937
36.4761
37.1959
38.0494
39.0524
40.2059
41.5054
42.9374
44.4777
46.0907
47.7312
49.3481
50.8906
52.3141
53.5862
54.6896
55.6212
56.3901
57.0134
57.5123
57.9088
58.2234
58.4745
58.6778
58.8453
58.9881
59.1142
59.2321
59.3501
59.4733
59.6054
59.7515
59.9113
60.1056
60.3718
60.6609
60.9881
61.3833
61.8534
62.4172
63.1306
63.9894
65.028
66.2633
67.7224
69.4364
71.4315
73.7276
76.3365
79.2566
82.4671
85.9271
89.576
93.3401
97.1412
100.908
104.587
108.149
111.589
114.924
118.183
121.373
124.597
127.925
131.283
134.686
138.18
141.832
145.856
150.812
158.128
170.427
190.696
217.399
241.88
31.4366
30.1289
31.2425
31.9859
30.1904
31.6061
32.5597
30.3501
31.9911
34.0737
33.1944
30.5824
32.3943
32.8145
264.602
262.458
33.2483
33.6909
34.1363
34.5909
246.237
241.672
212.606
187.891
169.632
158.439
151.601
146.834
142.905
139.314
135.893
132.582
129.342
126.16
123.004
119.956
116.934
113.847
110.678
107.398
103.987
100.448
96.81
93.124
89.4598
85.8948
82.5031
79.3456
76.4648
73.8835
71.6055
69.6207
67.9103
66.4498
65.2108
64.1648
63.2953
62.5692
61.9918
61.506
61.0943
60.7452
60.4164
60.1328
59.9177
59.7233
59.544
59.3723
59.2093
59.039
58.8582
58.6568
58.4187
58.129
57.7659
57.3102
56.7335
56.0079
55.1142
54.028
52.7565
51.3176
49.7194
48.0302
46.333
44.6191
43.0066
41.4693
40.1408
38.9177
37.8798
37.0058
36.2757
35.6902
35.2326
35.3092
33.874
34.8845
35.0671
236.693
30.5012
30.8614
266.356
267.747
268.73
269.474
270.029
270.428
270.674
270.79
270.833
270.772
270.573
270.217
269.69
268.962
267.991
266.614
264.891
262.782
260.21
257.112
30.9397
30.3172
31.1799
35.4742
35.4274
35.2165
35.2037
35.2716
35.4056
35.6521
35.9855
36.4182
36.9664
37.6356
38.4511
39.4005
40.5023
41.7514
43.1374
44.6402
46.2278
47.8593
49.4854
51.055
52.5212
53.8472
55.0097
56.0001
56.8229
57.4919
58.0266
58.4482
58.7776
59.0336
59.2317
59.3858
59.5062
59.6011
59.6781
59.7429
59.8009
59.8569
59.9155
59.9838
60.0644
60.1621
60.2826
60.4202
60.601
60.8553
61.1443
61.473
61.8782
62.3701
62.9571
63.69
64.5939
65.6787
66.985
68.5346
70.3555
72.4847
74.9444
77.7495
80.9013
84.3838
88.16
92.1701
96.3401
100.589
104.843
109.04
113.143
117.137
121.019
124.789
128.459
132.151
135.865
139.568
143.275
147.181
151.737
158.114
168.783
186.913
212.287
237.128
253.425
31.4256
30.3009
31.5262
31.9583
30.4044
31.8952
35.6807
32.5196
30.5974
32.2826
33.1248
30.8478
32.6865
268.112
266.879
34.6314
33.7777
33.1042
33.5337
33.9718
34.4171
34.8605
259.85
256.709
252.979
231.45
207.467
184.429
168.298
158.621
152.629
148.259
144.492
140.908
137.383
133.831
130.25
126.696
123.187
119.588
115.887
112.078
108.159
104.138
100.051
95.9532
91.9162
88.019
84.3356
80.926
77.8304
75.0676
72.6376
70.5286
68.7193
67.1778
65.8747
64.7847
63.8772
63.1367
62.5421
62.0404
61.6245
61.2827
60.9712
60.7045
60.5087
60.3479
60.207
60.084
59.9723
59.8746
59.779
59.6806
59.5761
59.4566
59.3123
59.1311
58.9041
58.6102
58.2318
57.7455
57.1219
56.3373
55.3737
54.2242
52.8804
51.3774
49.7605
48.0414
46.3359
44.6306
43.0884
41.6068
40.3124
39.191
38.1965
37.3969
36.7285
36.1964
35.7769
34.4671
35.3092
35.4624
35.5349
248.647
30.5888
31.1447
269.043
269.764
270.278
270.627
270.868
271.035
271.135
271.183
271.234
271.27
271.239
271.134
270.935
270.602
270.079
269.327
268.341
267.017
265.257
262.956
260.002
31.0103
30.469
31.4731
36.0731
36.0574
36.0367
36.0994
36.2883
36.5929
37.003
37.5213
38.1603
38.9257
39.8412
40.8915
42.093
43.4344
44.8989
46.4585
48.0758
49.7035
51.2929
52.7946
54.1687
55.387
56.436
57.3154
58.0355
58.6132
59.0692
59.4239
59.6965
59.9034
60.0591
60.1732
60.2572
60.3155
60.3548
60.3819
60.3993
60.4105
60.4192
60.4297
60.4464
60.4727
60.5159
60.5763
60.6583
60.7699
60.9057
61.0906
61.3463
61.6642
62.0179
62.4573
62.9951
63.6383
64.4148
65.373
66.5478
67.9498
69.6365
71.6217
73.9405
76.6243
79.6983
83.1669
87.0149
91.208
95.6858
100.369
105.166
109.988
114.757
119.413
123.915
128.247
132.387
136.359
140.235
144.122
148.067
152.406
158.128
167.482
183.665
207.453
232.144
249.15
256.395
31.4652
30.5022
31.8276
36.1727
35.8457
31.9587
30.6436
32.202
32.5092
30.8606
32.5932
267.708
266.555
33.1036
31.1331
33.7295
32.9986
33.4165
35.2408
34.4053
33.845
34.2806
34.7214
35.17
265.242
263.092
260.309
256.8
243.788
226.138
202.81
181.628
167.386
158.94
153.563
149.417
145.65
141.939
138.18
134.384
130.536
126.539
122.366
118.041
113.575
109.001
104.372
99.7564
95.238
90.9034
86.8304
83.0798
79.6893
76.6739
74.0321
71.7479
69.7864
68.1178
66.7218
65.5533
64.5937
63.8181
63.175
62.6351
62.192
61.832
61.5026
61.2388
61.0453
60.8953
60.7698
60.668
60.5894
60.526
60.4749
60.4334
60.389
60.3478
60.2993
60.239
60.1602
60.0578
59.9207
59.7412
59.5062
59.1885
58.7773
58.2427
57.5657
56.7176
55.6806
54.4567
53.0597
51.4861
49.8356
48.0945
46.4287
44.7665
43.2307
41.8297
40.6024
39.5314
38.6429
37.8754
37.2588
36.7553
36.3644
35.0994
35.826
36.0708
35.6411
252.602
30.6955
31.4428
268.555
269.182
269.633
269.935
270.142
270.281
270.363
270.404
270.451
270.487
270.47
270.387
270.217
269.922
269.449
268.773
267.844
266.571
264.864
262.636
259.793
256.3
31.1115
30.6439
31.7831
36.8637
36.8876
36.9479
37.0632
37.2919
37.6362
38.1207
38.7268
39.4731
40.3481
41.3695
42.5257
43.8255
45.2522
46.782
48.3805
50.0042
51.6048
53.1332
54.5482
55.8165
56.9204
57.8552
58.6274
59.2516
59.7468
60.133
60.4295
60.6533
60.8193
60.9383
61.0221
61.0728
61.1038
61.1124
61.1092
61.0997
61.079
61.0513
61.022
60.9952
60.9721
60.9611
60.9639
60.9754
61.0046
61.0625
61.1501
61.2712
61.4247
61.6302
61.9077
62.2844
62.6966
63.1902
63.8009
64.5411
65.4249
66.4832
67.7645
69.3216
71.1786
73.3748
75.9584
78.9471
82.3656
86.2342
90.5341
95.2273
100.244
105.491
110.855
116.222
121.487
126.569
131.406
135.978
140.295
144.39
148.405
152.667
158.039
166.426
180.972
203.096
227.13
244.409
252.125
252.139
36.091
31.5657
30.726
32.1459
36.2832
36.8684
32.0516
30.9006
32.5265
265.985
264.934
32.5627
31.1442
31.4331
33.1083
32.922
33.3302
33.7186
33.7492
34.3749
34.1787
35.8833
35.063
34.6137
35.0546
35.4999
265
262.963
260.422
257.448
253.79
247.706
238.512
220.962
198.803
179.476
166.753
159.132
154.093
149.985
146.142
142.32
138.346
134.147
129.694
125
120.082
114.998
109.821
104.645
99.5773
94.7224
90.1704
85.9896
82.2178
78.8743
75.951
73.4184
71.2483
69.4229
67.8823
66.6098
65.5644
64.6934
63.964
63.3603
62.8688
62.4588
62.0816
61.8011
61.592
61.4319
61.3036
61.2061
61.1371
61.0871
61.0553
61.0441
61.0382
61.0355
61.036
61.0374
61.0342
61.0132
60.9881
60.9406
60.8717
60.7719
60.6319
60.4379
60.1772
59.8303
59.377
58.7895
58.0449
57.1249
56.0237
54.7145
53.259
51.6432
49.9908
48.2695
46.5674
44.9732
43.4979
42.1793
41.0162
40.0119
39.1479
38.4198
37.8257
37.3524
36.998
35.7868
35.9533
36.1092
36.7243
249.36
30.846
31.7582
266.743
267.276
267.659
267.918
268.095
268.201
268.26
268.291
268.325
268.351
268.338
268.266
268.105
267.828
267.391
266.768
265.88
264.655
263.023
260.922
258.266
254.971
250.979
36.3328
31.2561
30.8501
36.4405
36.6264
32.1086
36.4601
36.9711
37.6753
37.6973
37.76
37.8866
38.1197
38.4273
38.845
39.393
40.0864
40.9189
41.9131
43.0464
44.3091
45.7007
47.2004
48.7762
50.3903
51.995
53.542
54.9881
56.2985
57.4518
58.438
59.2608
59.9316
60.468
60.8888
61.2136
61.4592
61.6413
61.7714
61.8613
61.9139
61.943
61.9421
61.9337
61.9146
61.8744
61.8253
61.7705
61.7126
61.6541
61.5979
61.5462
61.503
61.4685
61.453
61.4569
61.4728
61.5108
61.5854
61.6977
61.8466
62.0438
62.285
62.6192
63.0469
63.5841
64.1894
64.9086
65.7833
66.8299
68.0685
69.534
71.2727
73.3529
75.8231
78.7076
82.0678
85.8923
90.2093
94.9911
100.19
105.722
111.47
117.297
123.065
128.649
133.957
138.941
143.601
148.025
152.47
157.673
165.435
178.749
199.313
222.299
239.337
247.157
247.38
246.298
31.6937
30.9724
32.4799
262.15
261.217
32.1625
31.178
31.4426
32.6674
32.8672
33.2678
33.2081
31.75
33.6796
33.7688
34.1017
34.3721
34.5321
35.0426
34.9673
36.5477
35.7404
35.4056
35.8524
263.517
261.677
259.345
256.453
252.883
248.557
243.458
244.154
242.173
232.981
216.124
195.511
177.881
166.278
159.172
154.248
150.088
146.012
141.748
137.207
132.345
127.168
121.733
116.127
110.466
104.882
99.5045
94.4439
89.7835
85.5718
81.8366
78.5539
75.7161
73.2963
71.2451
69.5374
68.1061
66.8987
65.8778
65.0235
64.32
63.7307
63.2108
62.7862
62.4562
62.2165
62.0206
61.8702
61.7538
61.6728
61.6211
61.6032
61.5932
61.5923
61.6121
61.6384
61.671
61.7071
61.7421
61.771
61.791
61.7983
61.801
61.7855
61.7416
61.6701
61.5593
61.4048
61.1907
60.8995
60.5137
60.0085
59.3628
58.556
57.5589
56.3847
55.0241
53.529
51.8887
50.1935
48.494
46.8624
45.3136
43.9216
42.6705
41.518
40.5473
39.7023
39.02
38.4394
37.9755
37.6286
36.4799
37.3701
37.2182
36.3133
39.9439
31.0206
38.2261
38.168
36.7754
36.9281
36.6509
37.0895
37.6865
36.8937
37.2734
37.8017
37.1538
37.4765
37.9294
37.7214
37.4481
38.1151
37.2627
38.3202
37.9863
37.7589
32.0875
262.82
263.274
263.601
263.835
263.999
264.125
264.207
264.246
264.248
264.221
264.14
264.008
263.813
263.512
263.07
262.455
261.571
260.373
258.824
256.878
254.465
251.45
247.679
243.15
38.4589
38.9971
39.5809
40.2817
41.119
42.0659
43.1611
44.4195
45.8072
47.2948
48.8893
50.5452
52.2247
53.8593
55.4102
56.8149
58.0508
59.0978
59.9687
60.6749
61.2299
61.6601
61.9847
62.2261
62.3987
62.5236
62.5998
62.6449
62.6647
62.6616
62.6468
62.6138
62.5685
62.5158
62.4567
62.3961
62.3338
62.2751
62.2221
62.1785
62.1436
62.1302
62.1352
62.1513
62.1903
62.2656
62.378
62.5328
62.7314
62.9863
63.3066
63.7074
64.2205
64.8522
65.6182
66.4853
67.5056
68.724
70.163
71.8447
73.806
76.0995
78.8201
81.9781
85.6449
89.7841
94.4187
99.5117
105.003
110.796
116.758
122.744
128.605
134.22
139.508
144.445
149.086
153.65
158.738
165.699
176.637
192.874
211.766
227.403
236.145
238.23
237.63
31.4264
31.0782
32.4492
259.989
258.408
256.331
253.563
250.142
246.012
241.14
235.543
38.8005
38.6667
38.56
38.5284
38.5472
38.5815
38.7231
38.9485
39.2593
39.6721
40.1904
40.8315
41.6157
42.5549
43.6413
44.8755
46.2418
47.7139
49.2677
50.8664
52.467
54.0248
55.4942
56.8383
58.0323
59.0644
59.9339
60.6495
61.2266
61.6832
62.0383
62.3085
62.5105
62.6552
62.7563
62.8156
62.8473
62.846
62.8353
62.8122
62.7632
62.7022
62.6319
62.5551
62.4745
62.3922
62.3103
62.2312
62.1571
62.0907
62.034
61.9912
61.9658
61.9688
61.985
62.0169
62.0906
62.2039
62.3621
62.5669
62.8298
63.1637
63.574
64.1027
64.7506
65.5506
66.4554
67.5124
68.7647
70.2487
71.9825
73.9957
76.3361
79.0997
82.3146
86.05
90.263
94.9828
100.172
105.773
111.688
117.783
123.906
129.907
135.66
141.09
146.193
151.143
156.574
164.166
176.76
196.059
217.771
234.062
241.621
241.933
240.918
237.915
31.862
31.2387
31.4715
32.3237
32.8291
33.2235
32.8099
31.7579
256.675
255.555
33.6298
33.3233
32.0806
34.0462
33.8776
34.4723
34.4613
34.9035
35.0649
35.339
35.7298
35.7793
36.4426
36.225
37.2073
36.6762
37.1418
38.9796
38.5645
37.6092
39.6527
39.1858
31.2273
41.9148
38.9576
38.2809
38.0952
32.4319
39.3582
39.5225
40.003
40.7348
41.613
42.6163
43.7421
44.9793
46.3337
47.8048
49.4102
51.0509
52.6969
54.3327
55.8796
57.3147
58.594
59.7005
60.6273
61.381
61.9821
62.4542
62.8152
63.0868
63.2835
63.4234
63.513
63.571
63.5874
63.581
63.5675
63.5351
63.4829
63.4182
63.3441
63.2651
63.1833
63.0999
63.0177
62.9386
62.866
62.8023
62.7512
62.7111
62.7006
62.7066
62.7278
62.7699
62.8553
62.9798
63.1503
63.3729
63.6546
64.0052
64.4378
64.9662
65.6013
66.3852
67.3257
68.4573
69.7388
71.2046
72.9103
74.8896
77.1567
79.7411
82.7397
86.202
90.1858
94.6368
99.5756
104.965
110.737
116.789
122.983
129.167
135.192
140.949
146.397
151.678
157.326
164.595
175.387
190.674
207.902
221.965
229.806
231.714
231.183
229.293
257.546
258.205
258.709
259.09
259.369
259.566
259.689
259.737
259.714
259.621
259.448
259.183
258.812
258.308
257.639
256.769
255.64
254.209
252.439
250.281
247.68
244.573
240.95
236.646
231.646
31.6306
31.3298
39.8314
48.4506
31.5234
32.0571
32.8039
33.1927
39.54
39.4438
39.4221
39.4407
39.4893
39.6062
39.8156
40.1167
40.5221
41.0372
41.6698
42.4286
43.3227
44.3594
45.5582
46.8827
48.3207
49.8535
51.4363
53.0298
54.5882
56.0704
57.4395
58.6674
59.7381
60.6484
61.4052
62.021
62.5127
62.8984
63.1948
63.4186
63.5801
63.6956
63.7646
63.8046
63.804
63.7944
63.7729
63.7206
63.6531
63.5737
63.4852
63.3902
63.2908
63.189
63.0868
62.986
62.8889
62.7973
62.7141
62.641
62.5826
62.5372
62.5233
62.5292
62.5497
62.5948
62.6839
62.8145
62.9944
63.229
63.5259
63.8951
64.3497
64.9052
65.5666
66.3796
67.3562
68.5208
69.8772
71.4008
73.1548
75.1907
77.5141
80.1484
83.1744
86.6712
90.6955
95.186
100.171
105.616
111.46
117.605
123.915
130.238
136.425
142.369
148.113
154.165
162.077
174.531
193.048
213.52
228.719
235.682
235.895
234.922
232.027
225.955
32.5085
31.782
254.146
252.397
250.257
247.627
244.42
240.594
236.099
230.905
225.027
250.898
249.531
39.4318
39.6677
38.8296
33.5945
32.9871
32.0871
34.0072
33.493
32.4261
34.4286
34.0196
34.8577
34.5742
35.292
35.1738
35.7293
35.7985
36.1691
36.4716
36.6151
37.2403
37.0677
40.0367
37.5183
37.9802
31.4566
40.927
41.1414
31.6008
31.8585
33.1725
252.009
252.898
253.602
254.147
254.551
254.831
254.996
255.054
255.007
254.855
254.584
254.177
253.626
252.912
252.004
250.868
249.465
247.761
245.717
243.287
240.431
237.115
233.315
228.959
224.025
218.528
92.8273
40.3526
40.3616
40.3834
40.4455
40.5503
40.764
41.0515
41.4404
41.9406
42.5605
43.3081
44.1882
45.2052
46.3538
47.6454
49.0494
50.5478
52.1061
53.6861
55.2396
56.7276
58.1104
59.3611
60.4626
61.4082
62.2009
62.8519
63.3769
63.7925
64.1153
64.3611
64.5418
64.6721
64.754
64.8036
64.8096
64.8022
64.7796
64.7321
64.662
64.5775
64.4816
64.3771
64.266
64.1503
64.0318
63.9122
63.7936
63.6776
63.5665
63.462
63.3669
63.2829
63.2138
63.1611
63.1329
63.1363
63.1507
63.1885
63.2624
63.383
63.5509
63.7727
64.0555
64.4084
64.8406
65.3641
65.99
66.7349
67.6146
68.6411
69.8397
71.255
72.8975
74.7875
76.8324
79.1354
81.7055
84.5567
87.7672
91.4218
95.5812
100.199
105.297
110.863
116.852
123.178
129.714
136.307
142.887
149.792
158.43
171.331
189.703
209.283
223.335
229.495
229.483
228.488
225.592
219.589
212.515
32.2833
31.8256
40.2228
40.5297
40.9526
41.4503
42.1627
43.103
44.2316
45.5492
46.9557
48.4448
50.0057
51.5875
53.2528
54.9168
56.4779
57.9273
59.2243
60.3602
61.3317
62.1323
62.7806
63.2899
63.6855
63.9843
64.2054
64.3636
64.4709
64.5366
64.5647
64.5602
64.5446
64.5108
64.4545
64.3856
64.3041
64.2164
64.1202
64.0195
63.918
63.8172
63.7183
63.6245
63.5372
63.46
63.3953
63.3462
63.3166
63.3192
63.3339
63.3616
63.4319
63.5423
63.6971
63.9023
64.1656
64.495
64.9003
65.3921
65.9832
66.6891
67.5262
68.5014
69.6626
71.0285
72.626
74.4324
76.4224
78.6842
81.2212
84.0474
87.2555
90.9138
95.0754
99.6968
104.787
110.327
116.259
122.487
128.877
135.28
141.57
147.765
154.301
162.344
173.557
188.469
204.334
216.727
223.379
224.831
224.321
222.535
218.51
247.867
245.859
243.472