/*--------------------------------*- C++ -*----------------------------------*\
| =========                 |                                                 |
| \\      /  F ield         | OpenFOAM: The Open Source CFD Toolbox           |
|  \\    /   O peration     | Version:  2212                                  |
|   \\  /    A nd           | Website:  www.openfoam.com                      |
|    \\/     M anipulation  |                                                 |
\*---------------------------------------------------------------------------*/
FoamFile
{
    version     2.0;
    format      ascii;
    arch        "LSB;label=32;scalar=64";
    class       volVectorField;
    location    "0.0484";
    object      U;
}
// * * * * * * * * * * * * * * * * * * * * * * * * * * * * * * * * * * * * * //

dimensions      [0 1 -1 0 0 0 0];

internalField   nonuniform List<vector> 
2308
(
(-0.947023 4.11992 -1.0236e-15)
(0.324368 0.637793 0)
(-0.0910736 6.67227 7.24039e-17)
(0.322477 2.24447 -3.6114e-16)
(0.0575201 4.03806 0)
(0.256062 3.6838 -4.64689e-21)
(-0.226055 3.58045 -2.01955e-22)
(-0.275101 3.79703 -4.98801e-16)
(-0.0356513 4.15163 9.07681e-16)
(0.00956643 3.17141 -1.20556e-16)
(0.0112526 3.18321 2.15009e-16)
(0.0200575 3.20046 -3.15898e-16)
(0.0199418 3.21869 1.56324e-16)
(0.0215049 3.23911 -7.91578e-17)
(0.0241176 3.26275 1.34803e-17)
(0.0271738 3.29053 1.12011e-16)
(0.0298445 3.32275 1.49784e-17)
(-0.0102594 3.3568 3.46531e-17)
(-0.00706512 3.32255 4.66288e-17)
(-0.00591373 3.29044 3.45088e-18)
(-0.00439146 3.26237 2.63242e-17)
(-0.00275455 3.23876 -7.69282e-17)
(-0.00137241 3.21889 9.88344e-17)
(-0.000795668 3.20249 -4.55504e-17)
(0.00284642 3.18807 -1.95871e-16)
(0.00187552 3.17535 -9.31923e-17)
(-0.000253208 3.16659 4.76831e-17)
(0.00455914 3.15635 -5.24694e-17)
(-0.139728 3.65223 0)
(0.0306116 3.35993 -3.19784e-16)
(0.0028999 3.14737 2.79372e-18)
(0.0017867 3.13912 7.15431e-19)
(0.001224 3.13118 -1.22348e-17)
(0.000728192 3.12337 1.15649e-17)
(0.000286689 3.11565 -1.22962e-17)
(-0.000156902 3.10795 1.15813e-17)
(-0.00055155 3.10025 -5.78551e-18)
(-0.000956055 3.09259 5.7846e-18)
(-0.00131223 3.085 -5.77766e-18)
(-0.00164453 3.07753 2.88917e-18)
(-0.00192946 3.07026 5.7829e-18)
(-0.00216616 3.06326 8.68442e-18)
(-0.00237351 3.05659 -1.7409e-17)
(-0.00255409 3.05035 1.1639e-17)
(-0.00269393 3.04462 5.81856e-18)
(-0.011452 3.03893 -5.83857e-18)
(-0.0100947 3.04467 5.81788e-18)
(-0.00869919 3.05094 -8.70977e-18)
(-0.00729117 3.05758 -9.43278e-18)
(-0.00586336 3.0646 1.44853e-17)
(-0.0043999 3.07186 -2.89689e-18)
(-0.00291968 3.07936 5.80466e-18)
(-0.0014223 3.08689 1.4518e-18)
(7.52739e-05 3.09456 -8.70238e-18)
(0.00162871 3.10227 -2.90735e-18)
(0.00319923 3.10993 5.80892e-18)
(0.00479098 3.11758 0)
(0.00638484 3.1253 -7.22222e-19)
(0.00799632 3.13312 -2.37456e-17)
(0.00911574 3.14107 -8.18359e-17)
(0.00976074 3.14996 9.64109e-17)
(0.0172726 3.15809 9.95129e-17)
(0.0208653 3.16242 1.142e-16)
(0.027039 3.17128 -1.04924e-21)
(0.0310934 3.18135 1.27973e-16)
(0.0346077 3.19342 -2.37189e-16)
(0.0396007 3.20963 -5.44145e-17)
(0.0455739 3.22905 0)
(0.0526252 3.25224 0)
(0.0603748 3.27995 0)
(0.0681801 3.31333 0)
(-0.00282697 3.03943 -2.91196e-18)
(-0.0127666 3.03375 2.92607e-18)
(-0.0453554 3.3144 -1.60903e-16)
(-0.0399052 3.27956 -3.25249e-18)
(-0.0327032 3.25137 1.27445e-17)
(-0.0263757 3.22842 0)
(-0.0211655 3.20951 -2.44364e-17)
(-0.0169328 3.19386 -2.39155e-17)
(-0.013365 3.18072 1.19958e-17)
(-0.0109103 3.16893 4.81088e-17)
(-0.00911852 3.15934 0)
(-0.00704396 3.15115 -4.48793e-22)
(-0.00531314 3.14282 8.91636e-20)
(-0.00436651 3.13473 -1.15508e-17)
(-0.00371335 3.12682 1.73334e-17)
(-0.00309529 3.11903 -3.72592e-22)
(-0.00250144 3.11125 -1.01351e-17)
(-0.00182835 3.10352 0)
(-0.001166 3.09579 -1.44776e-18)
(-0.000462835 3.08807 8.68044e-18)
(0.000326686 3.08045 -1.15696e-17)
(0.00116638 3.07296 2.34326e-22)
(0.00206206 3.06569 1.15843e-17)
(0.00297381 3.05866 0)
(0.00393559 3.052 1.15987e-17)
(0.00497381 3.04576 -9.06214e-23)
(0.00604402 3.04006 -5.82172e-18)
(-0.0171618 3.39583 -1.37094e-16)
(0.0071331 3.03494 -5.82529e-18)
(0.0276005 3.40241 1.39802e-16)
(0.074436 3.35383 -8.4604e-22)
(-0.0223288 3.01734 -5.8614e-18)
(-0.0198404 3.02244 7.31775e-18)
(-0.0173054 3.02821 0)
(-0.0147557 3.03443 -2.18944e-18)
(-0.0122173 3.0411 5.09912e-18)
(-0.00964618 3.04813 5.8269e-18)
(-0.00705992 3.05543 -5.82553e-18)
(-0.00450175 3.06298 0)
(-0.00190864 3.07056 -1.45488e-18)
(0.0006609 3.07828 2.91711e-18)
(0.00323342 3.08595 7.35416e-23)
(0.00584572 3.09356 -2.91724e-18)
(0.00848636 3.10118 0)
(0.0111856 3.1088 4.37597e-18)
(0.0139105 3.11649 -1.7419e-17)
(0.017092 3.1242 -1.16506e-17)
(0.0214427 3.1319 4.73208e-17)
(0.0264721 3.13811 1.75414e-16)
(0.0315181 3.1436 1.32343e-17)
(0.0376055 3.15063 1.25828e-16)
(0.0441115 3.15997 -5.68789e-17)
(0.0510772 3.17249 0)
(0.0594332 3.18808 0)
(0.06927 3.20664 0)
(0.0807646 3.22893 1.88242e-16)
(0.0936194 3.25608 -2.18625e-16)
(0.107146 3.28958 2.22721e-16)
(-0.39669 3.7827 -4.00841e-16)
(0.350428 3.54102 0)
(0.223195 3.57325 0)
(0.283269 3.57745 0)
(-0.103618 3.33371 3.208e-16)
(-0.084645 3.29173 9.07596e-17)
(-0.0704602 3.2551 1.00381e-22)
(-0.0584602 3.22816 -1.543e-18)
(-0.048062 3.2067 1.53431e-18)
(-0.0394144 3.18923 1.21665e-17)
(-0.03236 3.17477 -2.4051e-17)
(-0.026697 3.16252 1.66372e-22)
(-0.0221473 3.15188 0)
(-0.0183562 3.14293 5.31725e-17)
(-0.015492 3.13518 3.49159e-17)
(-0.0129297 3.12741 -5.78783e-18)
(-0.0107226 3.11959 5.7852e-18)
(-0.00876642 3.11177 0)
(-0.00693723 3.10397 0)
(-0.00520233 3.09617 -7.25528e-19)
(-0.00348568 3.08837 0)
(-0.00172071 3.08059 4.35085e-18)
(9.85134e-05 3.07282 -3.05691e-23)
(0.00196453 3.06515 -2.90172e-18)
(0.00389959 3.05763 0)
(0.00590773 3.05029 -2.90175e-18)
(0.00800234 3.04324 4.35767e-18)
(0.0101565 3.03662 -7.27063e-18)
(0.012351 3.0304 0)
(0.0145622 3.02472 -1.16402e-17)
(0.0167796 3.01969 2.91499e-18)
(0.0189801 3.01525 -9.90508e-23)
(0.00821904 3.03041 0)
(-0.00294845 3.0349 -1.46049e-18)
(-0.0140721 3.02919 -4.75553e-18)
(-0.212717 3.91828 4.35621e-16)
(-0.0247769 3.01264 3.66744e-19)
(-0.520815 3.72116 -1.25652e-15)
(-0.671925 3.41191 -2.89115e-16)
(0.0758747 3.40308 0)
(-0.369708 4.1571 4.16424e-16)
(-0.0398115 3.94876 -8.71355e-16)
(-0.0201798 3.44861 5.72307e-17)
(0.120486 3.33129 -3.36797e-16)
(0.0211645 3.01155 -2.92629e-18)
(0.00928699 3.02662 -2.92535e-18)
(-0.00305689 3.03103 -3.66013e-19)
(-0.0153333 3.02533 5.85684e-18)
(-0.0271388 3.00885 3.67219e-19)
(-0.0379349 2.97997 0)
(-0.0345247 2.9838 2.94224e-18)
(-0.0310365 2.98842 5.88022e-18)
(-0.0275019 2.99354 -1.46845e-18)
(-0.0238964 2.99926 -5.87012e-18)
(-0.020305 3.00551 -6.59298e-18)
(-0.0166766 3.01222 8.78825e-18)
(-0.013077 3.01936 2.93053e-18)
(-0.00950443 3.02674 -5.86623e-18)
(-0.00589251 3.03427 4.39764e-18)
(-0.0023537 3.0419 -1.28192e-18)
(0.00119635 3.04966 0)
(0.00476487 3.05736 0)
(0.00828818 3.06501 0)
(0.0118904 3.07259 5.87682e-18)
(0.0155869 3.08016 -2.94336e-18)
(0.0195057 3.08761 -3.16641e-22)
(0.0237715 3.09494 -2.37336e-17)
(0.0285501 3.10175 0)
(0.0338149 3.10748 -2.49347e-17)
(0.0403265 3.11273 2.57827e-17)
(0.0478324 3.11901 5.30597e-17)
(0.0561937 3.12731 2.70656e-17)
(0.0659744 3.1385 1.07969e-16)
(0.0775091 3.1527 -1.06858e-16)
(0.0910769 3.16979 0)
(0.107031 3.19035 2.64802e-17)
(0.125205 3.2159 -5.32224e-17)
(0.144796 3.24841 -1.0786e-16)
(-0.157407 3.43805 5.17112e-17)
(-0.639728 5.16273 0)
(0.140753 3.92049 7.58429e-22)
(-0.398976 3.63956 5.53955e-16)
(-0.355534 3.55181 -1.18295e-16)
(-0.303457 3.48849 1.34584e-16)
(-0.255464 3.42741 -2.56146e-17)
(-0.213538 3.3709 5.00539e-17)
(-0.177144 3.32171 -2.44999e-17)
(-0.146063 3.28056 0)
(-0.120159 3.24537 -2.37271e-17)
(-0.0992426 3.21446 -2.40743e-17)
(-0.0819789 3.19031 0)
(-0.067628 3.17134 0)
(-0.0558873 3.15593 1.50961e-18)
(-0.0464014 3.14306 -1.35021e-17)
(-0.0387516 3.13204 0)
(-0.0324562 3.12258 0)
(-0.0271247 3.11444 -1.77489e-17)
(-0.022847 3.10703 -1.17304e-17)
(-0.0191975 3.09963 2.33589e-17)
(-0.0159546 3.09208 5.83306e-18)
(-0.0130209 3.08437 1.45778e-18)
(-0.0102642 3.07651 5.82866e-18)
(-0.00757142 3.06873 -6.56177e-18)
(-0.00488818 3.06082 0)
(-0.00216665 3.05299 -2.9141e-18)
(0.000622923 3.04517 0)
(0.00349829 3.03747 0)
(0.00647024 3.02984 0)
(0.00953487 3.02246 -1.16593e-17)
(0.0126728 3.01545 0)
(0.015918 3.00878 -6.55307e-18)
(0.019207 3.00253 1.09237e-18)
(0.0225008 2.99698 2.29501e-17)
(0.0258068 2.99206 0)
(0.0290728 2.9878 -1.16651e-17)
(0.0323363 2.98416 1.82191e-19)
(-0.735512 6.46501 0)
(-0.467945 3.95707 6.83206e-16)
(1.14927 3.80523 1.09391e-15)
(0.216995 1.9649 0)
(-0.72646 4.77623 -3.29876e-16)
(-0.624438 3.66282 1.43074e-15)
(0.131048 3.38385 -8.54907e-22)
(-0.0953458 3.4841 1.08652e-16)
(-0.047322 2.93602 -3.69559e-19)
(-0.0429919 2.93985 -2.95217e-18)
(-0.0385826 2.9445 2.95078e-18)
(-0.0341433 2.94957 0)
(-0.0296683 2.95527 0)
(-0.0251642 2.96154 3.68081e-19)
(-0.0206276 2.96833 -1.47176e-18)
(-0.0160756 2.97565 -5.14614e-18)
(-0.0116118 2.98305 3.67471e-19)
(-0.00713268 2.99063 -7.58112e-19)
(-0.00271574 2.99838 -9.02536e-19)
(0.00163404 3.00616 4.04881e-18)
(0.00595193 3.01399 3.68611e-19)
(0.010274 3.02164 -2.94947e-18)
(0.0146643 3.02922 0)
(0.0191491 3.03669 1.18255e-17)
(0.0238594 3.04394 -2.53511e-23)
(0.0288965 3.05089 5.98376e-17)
(0.0344391 3.05723 -4.84354e-17)
(0.0406385 3.0628 0)
(0.0479152 3.06753 5.07014e-17)
(0.0565567 3.07313 -1.55403e-16)
(0.0665364 3.08028 7.88096e-17)
(0.0784978 3.08939 1.04834e-16)
(0.0927447 3.10143 8.49932e-22)
(0.109661 3.11613 -1.03904e-16)
(0.129725 3.13383 1.03899e-16)
(0.152964 3.15638 1.04384e-16)
(0.17908 3.18581 -1.04332e-16)
(0.165036 3.28965 -2.14023e-16)
(-0.250035 4.33601 -3.03532e-21)
(-0.728963 2.97458 3.31177e-21)
(-0.488237 3.50237 -9.77445e-17)
(-0.42428 3.42083 -1.29426e-17)
(-0.365138 3.36842 -3.83466e-17)
(-0.309958 3.32246 -1.25263e-17)
(-0.26051 3.27962 0)
(-0.217372 3.2411 2.43208e-17)
(-0.18035 3.20818 -1.20189e-17)
(-0.148966 3.17989 -1.19732e-17)
(-0.122983 3.15542 6.0145e-18)
(-0.10153 3.13555 6.03218e-18)
(-0.0839123 3.11984 1.20616e-17)
(-0.0695756 3.107 0)
(-0.0579859 3.09604 1.19716e-17)
(-0.048556 3.08654 -1.1749e-17)
(-0.0408516 3.07834 -1.85984e-19)
(-0.0344742 3.07095 -3.55483e-17)
(-0.0291441 3.06396 2.94753e-18)
(-0.0245662 3.0569 -1.46792e-17)
(-0.0204976 3.04956 0)
(-0.0167419 3.04189 -4.75221e-18)
(-0.0131566 3.03403 3.65549e-19)
(-0.00962123 3.02619 6.5833e-18)
(-0.00607699 3.01825 0)
(-0.0025098 3.01036 0)
(0.00114531 3.00249 -1.82846e-19)
(0.00492601 2.99464 -5.66367e-18)
(0.00879019 2.98694 5.85208e-18)
(0.012759 2.9796 7.31174e-18)
(0.0168941 2.9725 -1.45998e-18)
(0.0210942 2.96571 4.38002e-18)
(0.0253211 2.95956 -1.46145e-18)
(0.0296069 2.95419 -1.16919e-17)
(0.0338264 2.94933 1.16813e-17)
(0.0380522 2.94524 2.62804e-17)
(0.0422862 2.94175 1.167e-17)
(0.0464095 2.9389 0)
(0.0355386 2.98118 -6.01869e-18)
(0.0233462 3.00845 1.87587e-22)
(0.0103273 3.02346 6.59764e-18)
(-0.0031387 3.02787 2.19799e-18)
(-0.0165679 3.02213 -2.93437e-18)
(-0.0294368 3.00563 5.88081e-18)
(-0.0412062 2.97675 -5.88311e-18)
(-0.0515344 2.93288 -2.95176e-18)
(1.10772 4.30393 -4.06888e-16)
(0.239131 6.51269 -9.3484e-17)
(-1.46492 1.54932 -1.62731e-16)
(-0.589095 3.92901 -6.94241e-16)
(-0.842938 4.29848 -3.43573e-16)
(1.11722 2.85577 9.77528e-17)
(0.20712 3.22435 0)
(0.184472 3.34254 4.28361e-16)
(-0.367804 4.40464 1.01118e-15)
(-0.54941 4.17553 4.14518e-16)
(-0.604681 4.85584 -4.16779e-16)
(0.047581 3.85517 8.9173e-16)
(-0.534627 3.30682 0)
(-0.471583 3.25949 1.2713e-17)
(-0.409036 3.22272 -3.13762e-18)
(-0.349352 3.19212 -5.87274e-17)
(-0.294978 3.16373 1.22118e-17)
(-0.246992 3.13718 0)
(-0.205424 3.1139 -2.73791e-22)
(-0.170047 3.09359 -2.99782e-18)
(-0.140481 3.07595 0)
(-0.116056 3.0612 -6.00599e-18)
(-0.0960658 3.0492 -6.00437e-18)
(-0.0798451 3.03926 0)
(-0.0667236 3.03045 1.49313e-18)
(-0.0560657 3.02262 -1.49093e-18)
(-0.0473697 3.01562 1.48826e-18)
(-0.0401603 3.00902 2.2243e-17)
(-0.0340811 3.0025 0)
(-0.0288194 2.99567 2.94734e-18)
(-0.0240529 2.9884 -1.47139e-18)
(-0.0196161 2.98079 3.67822e-19)
(-0.0153543 2.97298 1.10371e-18)
(-0.011176 2.96505 -6.6212e-18)
(-0.00696846 2.95712 0)
(-0.00271683 2.94917 1.46948e-18)
(0.00167704 2.9411 2.93593e-18)
(0.00618258 2.93311 2.93913e-18)
(0.010803 2.92552 3.04064e-22)
(0.0156176 2.91798 -1.46562e-18)
(0.0205139 2.91069 -4.3951e-18)
(0.0254433 2.904 -2.93253e-18)
(0.0305159 2.89803 -2.93029e-18)
(0.035568 2.89269 0)
(0.0406637 2.88806 -1.17147e-17)
(0.0457262 2.88406 -1.1704e-17)
(0.0506897 2.88065 -8.76447e-18)
(0.0555981 2.87818 -1.60625e-17)
(0.0602801 2.87623 7.30421e-18)
(0.0504019 2.93673 -5.8437e-18)
(0.0386668 2.97887 0)
(0.0254415 3.00603 2.93376e-18)
(0.0112947 3.02094 2.93814e-18)
(-0.00323682 3.02535 -5.86995e-18)
(-0.0177291 3.01961 5.88478e-18)
(-0.0316024 3.00327 -7.29566e-25)
(-0.0443088 2.97451 -2.9463e-18)
(-0.0555402 2.93066 8.84934e-18)
(-0.0647787 2.86828 -8.8921e-18)
(-0.060027 2.87046 1.48194e-18)
(-0.0551321 2.87362 -1.10996e-18)
(-0.050082 2.87731 2.21941e-18)
(-0.0448927 2.88207 -7.38028e-18)
(-0.0396671 2.88702 2.76982e-18)
(-0.0344159 2.89279 0)
(-0.029146 2.89911 3.69588e-19)
(-0.0238476 2.90599 5.17435e-18)
(-0.0185702 2.91331 -7.38538e-19)
(-0.0133392 2.92083 1.84486e-18)
(-0.00821186 2.92853 -3.76825e-24)
(-0.00310828 2.93645 7.44376e-19)
(0.00191727 2.9443 -3.69432e-19)
(0.00688033 2.95226 2.58679e-18)
(0.011818 2.95997 -8.87287e-18)
(0.0167742 2.96759 -1.69727e-22)
(0.0218716 2.97494 5.93691e-18)
(0.0271935 2.98207 -5.96044e-18)
(0.0328561 2.98876 -4.79802e-17)
(0.0390147 2.99484 4.83816e-17)
(0.0458888 3.00019 0)
(0.0538146 3.00439 -9.98772e-17)
(0.063291 3.00935 7.55689e-17)
(0.0743928 3.01514 -7.67561e-17)
(0.0879044 3.02184 0)
(0.104268 3.03125 0)
(0.123915 3.0428 0)
(0.147403 3.0566 -1.27131e-17)
(0.174996 3.07455 -1.24383e-21)
(0.206659 3.09898 2.02523e-16)
(-0.137736 4.50713 -4.55004e-16)
(0.236038 3.27432 2.14473e-16)
(0.202029 3.40998 -2.01955e-16)
(-0.189225 3.5061 2.56344e-17)
(-0.49176 4.42575 4.8635e-16)
(-0.676658 4.11125 4.15188e-16)
(-0.711726 3.83971 2.29088e-21)
(-0.726668 3.57987 -4.3265e-16)
(-0.760969 2.69243 -3.01378e-16)
(-0.602664 3.38911 -2.99799e-16)
(-0.640486 3.13896 1.08294e-16)
(-0.570466 3.09838 -2.51319e-17)
(-0.50219 3.07196 -4.96157e-17)
(-0.435382 3.05282 0)
(-0.372407 3.03735 4.89965e-17)
(-0.31518 3.02311 0)
(-0.264393 3.0088 0)
(-0.220216 2.99585 1.20126e-17)
(-0.182547 2.98415 2.99765e-18)
(-0.150971 2.97344 0)
(-0.124856 2.9641 5.99219e-18)
(-0.10352 2.95608 -3.31723e-23)
(-0.0862339 2.9491 8.51709e-23)
(-0.0722623 2.9426 5.96862e-18)
(-0.0609263 2.93645 6.71148e-18)
(-0.0516463 2.93058 -6.69889e-18)
(-0.0439356 2.92471 -1.22523e-17)
(-0.0373854 2.91858 3.70549e-19)
(-0.0316594 2.91194 -2.22116e-18)
(-0.0264697 2.9047 7.39296e-19)
(-0.0215981 2.89718 2.95608e-18)
(-0.0168913 2.88936 -2.21668e-18)
(-0.0122348 2.88135 2.95423e-18)
(-0.00754814 2.87328 -1.25123e-22)
(-0.00275371 2.86515 -7.37175e-18)
(0.00219102 2.85688 2.95207e-18)
(0.0072652 2.84899 2.94967e-18)
(0.0124526 2.84113 -4.41123e-18)
(0.0178765 2.83332 5.88029e-18)
(0.0233219 2.82615 5.8869e-18)
(0.0289491 2.81957 0)
(0.0346008 2.81357 1.76416e-17)
(0.0402682 2.80838 2.93861e-18)
(0.0460234 2.80387 2.93081e-18)
(0.0517237 2.80001 0)
(0.0572315 2.79693 0)
(0.0626816 2.7946 8.77211e-18)
(0.0680558 2.79299 -6.0958e-23)
(0.0730574 2.79203 -1.46047e-18)
(0.0647825 2.87496 1.4612e-18)
(0.0542257 2.93535 0)
(0.0416179 2.97716 0)
(0.0274763 3.00426 -1.46602e-18)
(0.0122858 3.01926 4.39924e-18)
(-0.00332734 3.02359 0)
(-0.01883 3.01786 -2.9461e-18)
(-0.0336801 3.00148 -2.94554e-18)
(-0.0473086 2.97276 5.89688e-18)
(-0.0593485 2.92904 -2.95273e-18)
(-0.0692421 2.86685 8.88766e-18)
(-0.076539 2.78234 1.48631e-18)
(-0.0716036 2.78356 1.48633e-18)
(-0.0663894 2.78567 2.97225e-18)
(-0.0609766 2.78863 0)
(-0.0553704 2.79228 -1.11364e-18)
(-0.0495943 2.79675 -2.78355e-19)
(-0.0437814 2.80193 1.66976e-18)
(-0.0379954 2.80774 -3.70883e-19)
(-0.0320887 2.81407 -7.41392e-19)
(-0.0262358 2.82108 -5.92401e-18)
(-0.0204377 2.82845 1.48136e-18)
(-0.0146715 2.83603 -3.70461e-18)
(-0.0089992 2.84387 1.85109e-18)
(-0.00341597 2.85192 -7.40233e-19)
(0.0020959 2.85993 0)
(0.00750726 2.86801 0)
(0.0128669 2.87593 0)
(0.0182548 2.88357 -2.96869e-18)
(0.0237279 2.89095 0)
(0.029387 2.89801 -1.18471e-22)
(0.0354009 2.90458 2.39556e-17)
(0.0419577 2.91047 -1.20603e-17)
(0.0492601 2.91561 2.43689e-17)
(0.0576064 2.91934 7.41062e-17)
(0.0675063 2.92357 -2.69253e-22)
(0.0792492 2.92772 -2.50687e-17)
(0.0937219 2.93217 -5.00255e-17)
(0.111315 2.93877 9.92808e-17)
(0.13274 2.9467 -4.98456e-17)
(0.15854 2.95587 -3.4889e-22)
(0.1894 2.96789 2.48116e-17)
(0.225128 2.98554 -1.32352e-21)
(0.241592 3.13241 -3.08619e-16)
(-0.262158 4.60904 -4.6795e-16)
(-0.0100286 4.65671 8.82779e-16)
(1.52709 2.32242 0)
(0.278257 3.17778 -2.10352e-16)
(-0.784796 3.18409 7.75539e-16)
(-0.812063 3.41703 -4.13517e-16)
(-0.813902 3.70249 -7.91205e-16)
(0.221273 3.46669 -6.75123e-17)
(-0.273487 3.65017 -6.42824e-17)
(-0.115744 3.55811 -2.56336e-17)
(0.2643 3.33557 1.91472e-21)
(-0.626072 4.3912 -4.76553e-16)
(-0.788882 4.01772 3.97409e-16)
(0.0777082 2.79166 -1.4622e-18)
(0.0690283 2.87429 -1.46146e-18)
(0.0578482 2.9344 0)
(0.0444016 2.97622 -1.46592e-18)
(0.0293749 3.00318 1.4683e-18)
(0.0132782 3.01808 -1.46714e-18)
(-0.00336473 3.02242 1.46925e-18)
(-0.019857 3.01668 2.94446e-18)
(-0.0356215 3.00031 -2.94709e-18)
(-0.0501453 2.97159 5.89902e-18)
(-0.062926 2.92796 -8.86829e-18)
(-0.0733473 2.8661 0)
(-0.0810876 2.78195 -4.59613e-23)
(-0.0861707 2.67086 0)
(-0.0812228 2.67113 -8.92296e-18)
(-0.0759422 2.67209 2.97794e-18)
(-0.0704104 2.67412 0)
(-0.064673 2.67684 0)
(-0.0587559 2.68038 7.44078e-19)
(-0.0526687 2.68486 -9.30102e-20)
(-0.0464957 2.69001 0)
(-0.0402444 2.69583 -3.71922e-19)
(-0.0340063 2.70216 3.71733e-19)
(-0.0277957 2.70915 1.48534e-18)
(-0.0215912 2.71665 7.41938e-19)
(-0.015511 2.72439 1.48441e-18)
(-0.00951684 2.73233 6.94152e-23)
(-0.00365135 2.74051 -2.9684e-18)
(0.00212374 2.74881 7.42431e-19)
(0.00780302 2.75703 2.97054e-18)
(0.0134139 2.76514 7.42722e-19)
(0.0189877 2.77297 -1.48648e-18)
(0.0246259 2.78042 2.97607e-18)
(0.0304638 2.78753 -8.94269e-18)
(0.0366131 2.7941 -1.19576e-17)
(0.043267 2.79997 6.00641e-18)
(0.050669 2.80492 -1.21036e-17)
(0.0591116 2.80856 0)
(0.0691217 2.81207 -3.68969e-17)
(0.0809622 2.81477 7.45602e-17)
(0.0954797 2.81689 0)
(0.113335 2.82077 0)
(0.135401 2.82471 0)
(0.162358 2.82909 1.83236e-17)
(0.194685 2.83513 -6.73938e-22)
(0.232631 2.8448 -1.18925e-21)
(0.265424 3.01185 -1.98618e-16)
(0.240782 3.97326 -4.67269e-16)
(-0.396126 4.66745 1.2866e-21)
(0.336569 1.81779 3.87338e-16)
(-0.293561 4.88073 0)
(-0.590381 2.8669 -2.36526e-17)
(-0.514153 2.86019 0)
(-0.443362 2.85849 0)
(-0.378757 2.85837 1.21236e-17)
(-0.320572 2.8577 -2.4163e-17)
(-0.269052 2.85535 0)
(-0.224295 2.85255 1.20266e-17)
(-0.186143 2.84939 0)
(-0.154115 2.8454 -2.99413e-18)
(-0.127664 2.84132 2.99252e-18)
(-0.106051 2.83722 -1.49563e-17)
(-0.0885575 2.83307 1.17242e-22)
(-0.0744204 2.82872 -5.96775e-18)
(-0.0629468 2.82413 1.19328e-17)
(-0.0535631 2.81931 8.93204e-18)
(-0.0457471 2.814 -8.92838e-18)
(-0.0390745 2.80814 0)
(-0.0331772 2.80157 -3.06355e-23)
(-0.0277714 2.79439 -4.45082e-18)
(-0.022668 2.78685 0)
(-0.0177044 2.77893 0)
(-0.0127622 2.77076 1.48221e-18)
(-0.0077553 2.76246 4.44356e-18)
(-0.00263562 2.75405 -2.96065e-18)
(0.00263232 2.74565 2.95469e-18)
(0.00809263 2.73758 -5.90386e-18)
(0.0137313 2.72946 -1.47693e-18)
(0.0194525 2.7215 -1.18123e-17)
(0.0253588 2.71441 5.90067e-18)
(0.0313719 2.70783 0)
(0.0374086 2.70197 -1.17913e-17)
(0.0435364 2.69688 -5.88223e-18)
(0.0496613 2.69224 0)
(0.0557698 2.68872 5.88268e-18)
(0.0617534 2.68599 1.35208e-22)
(0.0675513 2.68368 8.79486e-18)
(0.0732241 2.68221 8.78247e-18)
(0.0786192 2.6818 0)
(0.083657 2.68182 -2.92557e-18)
(0.13009 4.78048 -4.34934e-16)
(-0.14021 4.79686 -8.93978e-16)
(-0.0620374 7.11905 1.34392e-16)
(0.287357 3.39701 -1.86941e-16)
(-0.740534 4.36136 8.06242e-16)
(0.314521 3.23564 1.86762e-21)
(-0.0882732 2.52866 1.48749e-18)
(-0.0831777 2.52871 7.4412e-18)
(-0.0777819 2.52964 -5.95783e-18)
(-0.0721047 2.53154 0)
(-0.0661792 2.53427 0)
(-0.0600967 2.5376 0)
(-0.0538627 2.54197 0)
(-0.0475418 2.5471 1.48941e-18)
(-0.0411591 2.55291 -7.44337e-19)
(-0.0348182 2.55941 3.72186e-19)
(-0.028465 2.5663 -2.23218e-18)
(-0.0221511 2.5738 1.48716e-18)
(-0.0159174 2.58181 7.43241e-19)
(-0.00980044 2.59003 -1.11505e-18)
(-0.0037986 2.59834 0)
(0.00207588 2.60686 3.14062e-23)
(0.0078195 2.61538 -7.43298e-19)
(0.0134545 2.62374 7.43803e-19)
(0.0190495 2.63185 1.48797e-18)
(0.0246598 2.63958 -1.67469e-18)
(0.030409 2.64681 1.67586e-18)
(0.0364462 2.65353 -4.47747e-18)
(0.0429299 2.65951 -8.98234e-18)
(0.0501058 2.66456 6.01619e-18)
(0.0582577 2.66826 0)
(0.06783 2.67156 -4.73592e-22)
(0.0792757 2.67264 -3.6819e-17)
(0.0933988 2.6735 3.05836e-17)
(0.110661 2.67464 -6.12294e-18)
(0.132104 2.67486 0)
(0.15851 2.67497 -6.04313e-18)
(0.190923 2.67505 8.34162e-17)
(0.231032 2.67635 -4.63182e-17)
(0.276476 2.8603 1.87884e-16)
(0.29694 3.83191 9.56801e-16)
(-0.534873 4.67492 8.53184e-22)
(0.0882581 2.68256 -7.31832e-19)
(0.0820153 2.79183 4.39369e-18)
(0.0728978 2.87417 7.31278e-19)
(0.0611311 2.93409 0)
(0.0469732 2.97577 -1.4666e-18)
(0.0311191 3.00268 1.46717e-18)
(0.0141277 3.01752 -2.20474e-18)
(-0.00336103 3.02184 -5.1438e-18)
(-0.0207167 3.01617 5.88809e-18)
(-0.0374136 2.9998 0)
(-0.0527285 2.97116 -2.951e-18)
(-0.0661023 2.92779 8.86406e-18)
(-0.0770696 2.86619 -5.91885e-18)
(-0.0852915 2.78217 -2.96367e-18)
(-0.0906739 2.6713 4.44729e-18)
(-0.0928802 2.52958 -5.93978e-18)
(0.355768 3.99359 9.05959e-16)
(-0.887556 3.88033 -3.68344e-16)
(-0.898942 3.5129 3.7552e-16)
(-0.877522 3.19306 7.52321e-16)
(-0.827887 2.92349 3.57059e-16)
(0.123705 3.76283 -2.30699e-21)
(0.348084 3.65113 2.75201e-16)
(-0.469815 1.15849 0)
(0.300148 1.99912 0)
(-0.576011 2.60507 0)
(-0.499847 2.62232 5.99867e-18)
(-0.430495 2.64003 -1.20784e-17)
(-0.367621 2.65532 -2.87946e-23)
(-0.311179 2.66771 3.62208e-17)
(-0.261287 2.67663 -2.41106e-17)
(-0.217975 2.68316 1.54857e-22)
(-0.181082 2.68758 1.19912e-17)
(-0.150128 2.68974 -2.09588e-17)
(-0.124599 2.69037 2.99176e-18)
(-0.103779 2.68977 1.19601e-17)
(-0.0869332 2.68817 -2.98848e-18)
(-0.0733295 2.6856 2.98634e-18)
(-0.0622972 2.68224 -8.95463e-18)
(-0.053252 2.67816 2.9801e-18)
(-0.0456746 2.67322 8.93053e-18)
(-0.0391486 2.66746 -5.95172e-18)
(-0.033333 2.6609 5.94974e-18)
(-0.0279679 2.65371 2.23064e-18)
(-0.0228538 2.646 5.20388e-18)
(-0.0178375 2.63788 -6.6896e-18)
(-0.0128044 2.62946 4.45834e-18)
(-0.00767963 2.62084 -8.17043e-18)
(-0.00241183 2.61211 -5.93873e-18)
(0.00302631 2.6034 5.93461e-18)
(0.00863048 2.5949 2.96253e-18)
(0.0144189 2.58665 -2.96116e-18)
(0.0203423 2.5786 0)
(0.0264354 2.57144 -5.91553e-18)
(0.0326044 2.56482 2.95506e-18)
(0.0389042 2.55894 -5.89794e-18)
(0.0452394 2.55366 -8.84818e-18)
(0.0514934 2.54931 -5.89735e-18)
(0.0577581 2.54595 -1.17631e-17)
(0.0640341 2.54329 2.93533e-18)
(0.070067 2.54119 -2.93642e-18)
(0.0757765 2.54006 -5.87111e-18)
(0.0812434 2.53981 0)
(0.0864486 2.54019 0)
(0.0911929 2.54162 0)
(-0.0536416 7.28728 0)
(0.309511 3.05235 5.49771e-22)
(0.301122 3.47756 1.01285e-15)
(0.280191 4.86371 4.31625e-16)
(-0.284723 4.89704 4.43835e-16)
(-0.00147165 4.96414 8.73321e-16)
(0.211172 3.80217 -4.68594e-16)
(-0.276672 7.08816 -1.15131e-16)
(-0.78273 5.97289 0)
(0.185374 3.66548 -5.33096e-16)
(0.351538 3.30516 -2.17578e-16)
(0.277553 2.67432 -8.31469e-17)
(0.05614 3.70002 -1.39936e-15)
(1.02784 4.82706 4.24851e-16)
(0.409042 1.75818 3.81025e-16)
(-0.222508 6.68618 -6.20049e-17)
(-0.0918133 2.35306 -2.97181e-18)
(-0.0872517 2.35191 -7.42972e-19)
(-0.0822531 2.35182 -2.23224e-18)
(-0.0769527 2.3527 -2.50499e-22)
(-0.0713257 2.3544 0)
(-0.0654226 2.35701 0)
(-0.0593544 2.36042 0)
(-0.0532239 2.36469 -3.72637e-19)
(-0.0469707 2.36994 -4.65494e-19)
(-0.0407022 2.37577 4.65316e-19)
(-0.0343807 2.38235 -3.72253e-19)
(-0.0280731 2.38942 9.30383e-19)
(-0.0218736 2.39703 -1.11689e-18)
(-0.015731 2.40513 0)
(-0.00968047 2.41361 0)
(-0.00376791 2.42226 0)
(0.00198596 2.43107 0)
(0.00760468 2.43994 0)
(0.0131073 2.44868 0)
(0.0185155 2.45721 -3.72198e-19)
(0.0239105 2.46531 1.48906e-18)
(0.0293867 2.47294 0)
(0.035057 2.47997 -3.72834e-18)
(0.0411127 2.48626 6.72228e-18)
(0.0477747 2.49162 5.99132e-18)
(0.0553232 2.49588 0)
(0.0641312 2.49881 1.81766e-17)
(0.0746567 2.49944 -1.82364e-17)
(0.0875444 2.4994 -6.05088e-18)
(0.103446 2.49859 1.21439e-17)
(0.123053 2.49555 -1.81489e-17)
(0.147167 2.4915 9.00945e-18)
(0.176815 2.48498 -2.36755e-17)
(0.21274 2.47568 5.82684e-18)
(0.251405 2.47017 1.79647e-16)
(0.402899 3.83511 5.08587e-16)
(-1.03593 3.84432 6.83849e-16)
(-1.00309 4.36467 3.32585e-16)
(0.095385 2.54364 0)
(0.0922845 2.68395 7.23926e-24)
(0.0858389 2.79279 -1.46479e-18)
(0.0763283 2.87479 -7.32271e-19)
(0.0640222 2.93437 -1.83366e-19)
(0.0492429 2.97585 1.83386e-19)
(0.0326458 3.00281 0)
(0.0148747 3.01764 0)
(-0.00335625 3.02191 2.20554e-18)
(-0.0214614 3.01618 -5.8873e-18)
(-0.0389122 2.99985 7.36862e-18)
(-0.0549432 2.97139 0)
(-0.0689943 2.9281 -5.90301e-18)
(-0.0804771 2.86658 5.91222e-18)
(-0.0890573 2.78286 1.47966e-18)
(-0.0946362 2.67242 1.4807e-18)
(-0.0969622 2.53086 0)
(-0.0959119 2.35452 0)
(-0.188549 3.74263 0)
(-0.973297 3.65993 3.54177e-16)
(-0.963719 3.26268 0)
(-0.921698 2.92858 -7.39838e-16)
(-0.856922 2.6569 3.72905e-16)
(-0.786603 2.42402 6.76189e-16)
(-0.564468 4.70066 -1.03952e-16)
(-0.483996 5.21577 4.13592e-16)
(-0.587529 2.29074 1.25857e-17)
(-0.523326 2.3335 -9.7755e-17)
(-0.459228 2.37021 4.25406e-17)
(-0.397436 2.40287 -4.85157e-17)
(-0.340032 2.43099 -2.1181e-17)
(-0.288114 2.45432 3.0213e-17)
(-0.24212 2.47292 6.0274e-18)
(-0.202196 2.48729 -3.0057e-17)
(-0.168177 2.49791 1.80012e-17)
(-0.139712 2.50516 0)
(-0.116252 2.50962 -1.49619e-17)
(-0.0971744 2.5118 8.9708e-18)
(-0.0817545 2.51214 1.49444e-17)
(-0.0692955 2.51087 2.98756e-18)
(-0.0591763 2.50829 -1.19454e-17)
(-0.0508524 2.50457 -5.96831e-18)
(-0.0438456 2.49973 0)
(-0.0377661 2.4939 0)
(-0.0322954 2.4872 -1.48984e-18)
(-0.027187 2.47978 -7.44798e-19)
(-0.0222621 2.47178 7.44731e-18)
(-0.0173843 2.46332 1.48915e-18)
(-0.0124513 2.45451 -5.21149e-18)
(-0.00740055 2.44549 -4.03508e-23)
(-0.00218299 2.43636 0)
(0.00320674 2.42726 0)
(0.0087802 2.41832 -5.94459e-18)
(0.0145087 2.40967 8.91038e-18)
(0.0204422 2.40146 -2.96745e-18)
(0.0265032 2.39392 -1.16459e-22)
(0.0326645 2.3871 2.95721e-18)
(0.0389167 2.38101 2.95737e-18)
(0.0451811 2.37587 1.77341e-17)
(0.0514793 2.37165 0)
(0.0577077 2.3679 8.83702e-18)
(0.0638785 2.36511 -8.83437e-18)
(0.0698666 2.36353 5.88644e-18)
(0.0755896 2.36274 -5.87592e-18)
(0.0810189 2.36256 5.8755e-18)
(0.086088 2.36341 0)
(0.0907737 2.36513 0)
(0.0949814 2.36774 -2.93378e-18)
(0.482219 3.96323 8.87082e-16)
(0.327436 2.895 -1.91396e-16)
(-0.879695 4.61295 -3.50744e-16)
(0.619456 4.31827 8.59903e-16)
(0.53768 4.6055 -1.253e-21)
(0.434078 4.89297 8.61474e-16)
(0.354096 3.10921 2.10442e-16)
(-0.430804 4.93551 -9.36224e-16)
(0.15119 5.09338 0)
(-0.150591 5.11469 0)
(-0.217115 6.02114 -6.80416e-17)
(1.0848 3.67369 -4.24764e-16)
(-0.579072 5.74582 2.89986e-17)
(0.175688 3.53862 -8.44669e-16)
(0.264992 2.21323 -9.6342e-17)
(0.430648 3.68576 -5.64818e-16)
(0.163897 7.0975 0)
(0.0963706 7.2755 -5.97536e-17)
(0.219977 2.23643 0)
(0.185135 2.2568 3.00234e-18)
(0.15541 2.27021 5.99029e-18)
(0.130219 2.28024 2.25039e-18)
(0.109364 2.28663 3.76313e-19)
(0.0924367 2.29098 0)
(0.0786622 2.29313 7.53965e-18)
(0.0675352 2.29356 -7.5495e-18)
(0.0583398 2.29272 3.00177e-18)
(0.0506327 2.28937 -5.98575e-18)
(0.0439947 2.2844 1.4934e-18)
(0.0381052 2.27844 0)
(0.0326852 2.27163 2.98161e-18)
(0.0275497 2.26406 -1.49078e-18)
(0.0225402 2.25589 1.48956e-18)
(0.0175385 2.24722 -2.60734e-18)
(0.0124757 2.23817 3.02623e-18)
(0.0072988 2.22894 -3.60967e-23)
(0.00198536 2.21967 -1.58319e-18)
(-0.00348092 2.21044 7.45001e-19)
(-0.00909227 2.2014 -8.38186e-19)
(-0.0148023 2.19261 0)
(-0.0206594 2.1842 3.72608e-19)
(-0.026631 2.1763 -1.86338e-19)
(-0.0326694 2.16895 -7.45496e-19)
(-0.0387231 2.16225 6.46462e-19)
(-0.0447638 2.15625 9.31861e-20)
(-0.0507099 2.15106 -3.72699e-19)
(-0.0565461 2.14668 0)
(-0.0623238 2.14309 0)
(-0.0679122 2.14058 -1.49075e-18)
(-0.0733141 2.13878 8.1939e-18)
(-0.0783772 2.13807 -1.48962e-18)
(-0.0831321 2.13818 0)
(-0.087467 2.13939 5.95078e-18)
(-0.0913313 2.14125 1.24381e-22)
(-0.0392633 7.38215 3.19966e-16)
(0.0985849 2.37086 2.93444e-18)
(0.0989552 2.54611 0)
(0.0957354 2.6858 -7.33422e-19)
(0.089117 2.79422 7.329e-19)
(0.079247 2.87588 1.83334e-18)
(0.0664507 2.93526 -1.46707e-18)
(0.0511402 2.97664 3.67171e-19)
(0.0339448 3.00345 7.34958e-19)
(0.0155438 3.0182 5.14965e-18)
(-0.00333113 3.02247 -7.35374e-18)
(-0.0220849 3.01674 -5.89087e-18)
(-0.0401594 3.00048 5.89506e-18)
(-0.0568033 2.97208 -7.37236e-19)
(-0.0714246 2.92889 1.47554e-18)
(-0.0833742 2.86775 -5.90877e-18)
(-0.0922972 2.78431 -1.47829e-18)
(-0.0980536 2.67416 5.9174e-18)
(-0.100494 2.53306 0)
(-0.0994692 2.35711 2.9643e-18)
(-0.0947024 2.14399 -1.48328e-18)
(0.517889 3.77013 4.65077e-16)
(0.331752 2.70171 -1.67336e-16)
(0.677535 4.03743 -4.27251e-16)
(-0.56662 6.79307 0)
(-0.348909 6.88049 0)
(-0.0600801 6.88322 -1.10522e-16)
(0.241545 6.85088 -2.76898e-17)
(0.523345 6.77942 -3.45081e-17)
(0.372334 7.01226 -8.4847e-17)
(0.234959 7.17855 1.1823e-16)
(0.113694 7.28457 6.42806e-17)
(0.266511 1.72645 0)
(-0.0545194 7.3302 -6.32709e-17)
(1.07333 3.23553 1.11081e-21)
(1.15234 2.78845 3.79965e-16)
(1.13403 3.31596 -3.62888e-16)
(0.745407 4.21049 -4.30325e-16)
(0.676299 4.5343 0)
(0.58357 4.8631 0)
(0.399336 3.17617 4.39619e-16)
(0.602567 3.88636 8.66885e-16)
(-0.484648 6.61626 -8.48599e-17)
(-1.03929 3.36405 3.54426e-16)
(-1.00576 2.95683 -3.66928e-16)
(-0.945697 2.62694 0)
(-0.871418 2.3631 -7.79151e-16)
(-0.793991 2.14789 3.91844e-16)
(-0.701332 2.16257 -5.28138e-16)
(-0.59773 1.48034 -3.22934e-16)
(-0.561787 1.94365 1.02272e-16)