/*--------------------------------*- C++ -*----------------------------------*\
| =========                 |                                                 |
| \\      /  F ield         | OpenFOAM: The Open Source CFD Toolbox           |
|  \\    /   O peration     | Version:  2212                                  |
|   \\  /    A nd           | Website:  www.openfoam.com                      |
|    \\/     M anipulation  |                                                 |
\*---------------------------------------------------------------------------*/
FoamFile
{
    version     2.0;
    format      ascii;
    arch        "LSB;label=32;scalar=64";
    class       volScalarField;
    location    "0.249";
    object      p;
}
// * * * * * * * * * * * * * * * * * * * * * * * * * * * * * * * * * * * * * //

dimensions      [0 2 -2 0 0 0 0];

internalField   nonuniform List<scalar> 
24240
(
9.77468
9.7741
9.77291
9.77116
9.76892
9.76627
9.76332
9.76015
9.75686
9.75354
9.75027
9.74713
9.74417
9.74145
9.739
9.73685
9.73502
9.73355
9.73244
9.73176
9.23574
9.23568
9.23558
9.23543
9.23525
9.23504
9.23481
9.23455
9.2343
9.23404
9.23379
9.23355
9.23332
9.23309
9.23289
9.23269
9.23251
9.23235
9.23223
9.23217
9.05528
9.05543
9.05575
9.05622
9.05682
9.05753
9.05833
9.0592
9.06011
9.06103
9.06195
9.06283
9.06367
9.06444
9.06512
9.06572
9.0662
9.06658
9.06685
9.06702
8.84218
8.84243
8.84292
8.84364
8.84456
8.84567
8.84691
8.84826
8.84968
8.85114
8.85259
8.854
8.85535
8.8566
8.85773
8.85872
8.85955
8.86021
8.86068
8.86095
8.74444
8.74476
8.74542
8.74637
8.74761
8.74907
8.75073
8.75253
8.75442
8.75636
8.75829
8.76018
8.76198
8.76365
8.76517
8.76649
8.76761
8.76849
8.76912
8.76947
8.6283
8.62866
8.62936
8.6304
8.63174
8.63334
8.63515
8.63712
8.63919
8.64132
8.64346
8.64555
8.64754
8.64941
8.65111
8.6526
8.65386
8.65486
8.65557
8.65596
8.58415
8.58452
8.58526
8.58635
8.58774
8.58941
8.59131
8.59337
8.59555
8.59779
8.60004
8.60225
8.60436
8.60634
8.60815
8.60974
8.61109
8.61216
8.61292
8.61333
8.52775
8.52811
8.52884
8.5299
8.53128
8.53293
8.5348
8.53684
8.53901
8.54124
8.54348
8.54568
8.5478
8.5498
8.55162
8.55323
8.5546
8.55568
8.55645
8.55687
8.50726
8.50761
8.50829
8.5093
8.5106
8.51216
8.51394
8.51588
8.51795
8.52008
8.52223
8.52435
8.5264
8.52832
8.53009
8.53166
8.533
8.53407
8.53483
8.53523
8.50696
8.50729
8.50793
8.50888
8.51011
8.51159
8.51327
8.51512
8.51708
8.51911
8.52117
8.5232
8.52516
8.52701
8.52872
8.53024
8.53154
8.53259
8.53333
8.53374
8.50858
8.50888
8.50947
8.51034
8.51146
8.51282
8.51437
8.51607
8.51789
8.51977
8.52168
8.52357
8.5254
8.52714
8.52875
8.53019
8.53143
8.53244
8.53316
8.53356
8.56465
8.56492
8.56547
8.56627
8.56732
8.56858
8.57002
8.5716
8.57329
8.57505
8.57683
8.5786
8.58031
8.58194
8.58345
8.58481
8.58598
8.58694
8.58764
8.58802
8.58922
8.58946
8.58992
8.59061
8.5915
8.59258
8.59382
8.59518
8.59664
8.59816
8.59971
8.60124
8.60274
8.60418
8.60551
8.60673
8.60779
8.60866
8.60931
8.60967
8.70492
8.70511
8.70551
8.7061
8.70687
8.7078
8.70886
8.71004
8.71129
8.7126
8.71392
8.71524
8.71653
8.71776
8.71891
8.71996
8.72088
8.72165
8.72223
8.72256
8.76884
8.76898
8.76926
8.76967
8.77021
8.77087
8.77163
8.77246
8.77336
8.7743
8.77525
8.77621
8.77715
8.77806
8.77891
8.7797
8.78041
8.78102
8.78149
8.78178
8.96588
8.96596
8.96613
8.96639
8.96673
8.96715
8.96762
8.96815
8.96871
8.96929
8.96989
8.97048
8.97105
8.97161
8.97213
8.97262
8.97306
8.97344
8.97377
8.97397
9.10236
9.10235
9.10233
9.10232
9.1023
9.10228
9.10226
9.10224
9.10223
9.10222
9.10221
9.1022
9.1022
9.10221
9.10222
9.10224
9.10228
9.10234
9.10243
9.10252
9.43637
9.43627
9.43605
9.43575
9.43535
9.43487
9.43432
9.43372
9.43308
9.43241
9.43173
9.43105
9.43038
9.42974
9.42913
9.42858
9.42809
9.42771
9.42746
9.42736
9.69458
9.69429
9.69369
9.6928
9.69164
9.69026
9.68868
9.68695
9.68513
9.68324
9.68133
9.67944
9.67761
9.67585
9.67421
9.6727
9.67137
9.67027
9.66946
9.66902
10.4016
10.4008
10.3991
10.3967
10.3936
10.3898
10.3856
10.381
10.3761
10.3712
10.3662
10.3613
10.3567
10.3523
10.3483
10.3447
10.3415
10.3389
10.3369
10.3356
28.0019
28.0004
27.9973
27.9927
27.9868
27.9799
27.9722
27.9639
27.9552
27.9464
27.9378
27.9295
27.9216
27.9144
27.9079
27.9022
27.8974
27.8936
27.8908
27.8892
26.9991
26.9987
26.998
26.9969
26.9955
26.9939
26.9921
26.9902
26.9881
26.9861
26.9841
26.9822
26.9804
26.9787
26.9772
26.9758
26.9747
26.9737
26.973
26.9727
26.4513
26.4516
26.4522
26.4532
26.4544
26.4558
26.4575
26.4593
26.4611
26.463
26.465
26.4668
26.4686
26.4702
26.4717
26.473
26.474
26.4748
26.4754
26.4757
26.0179
26.0186
26.02
26.022
26.0246
26.0278
26.0313
26.0351
26.0391
26.0433
26.0474
26.0514
26.0552
26.0588
26.062
26.0648
26.0672
26.069
26.0703
26.0711
25.739
25.7399
25.7418
25.7445
25.7481
25.7523
25.7571
25.7622
25.7677
25.7733
25.7789
25.7844
25.7896
25.7944
25.7988
25.8027
25.8059
25.8085
25.8103
25.8112
25.4944
25.4955
25.4976
25.5006
25.5046
25.5094
25.5147
25.5206
25.5268
25.5331
25.5395
25.5457
25.5516
25.5572
25.5622
25.5667
25.5704
25.5733
25.5754
25.5765
25.3631
25.3643
25.3665
25.3697
25.3739
25.3789
25.3845
25.3907
25.3972
25.4039
25.4106
25.4172
25.4236
25.4295
25.4349
25.4396
25.4436
25.4468
25.449
25.4502
25.2518
25.2529
25.255
25.2582
25.2624
25.2673
25.2729
25.2791
25.2856
25.2923
25.299
25.3057
25.312
25.318
25.3234
25.3282
25.3323
25.3355
25.3378
25.339
25.2067
25.2078
25.2098
25.2129
25.2168
25.2215
25.2269
25.2327
25.239
25.2454
25.2519
25.2583
25.2644
25.2702
25.2755
25.2802
25.2842
25.2873
25.2895
25.2907
25.22
25.221
25.2229
25.2258
25.2295
25.2339
25.239
25.2445
25.2504
25.2565
25.2627
25.2688
25.2747
25.2802
25.2853
25.2898
25.2937
25.2967
25.2989
25.3
25.2403
25.2412
25.243
25.2456
25.249
25.2531
25.2578
25.263
25.2685
25.2742
25.2799
25.2856
25.2911
25.2963
25.3011
25.3054
25.3091
25.312
25.3141
25.3152
25.3759
25.3767
25.3783
25.3807
25.3838
25.3875
25.3918
25.3965
25.4015
25.4067
25.412
25.4172
25.4223
25.4271
25.4315
25.4355
25.4389
25.4416
25.4436
25.4446
25.4724
25.4731
25.4745
25.4766
25.4792
25.4825
25.4862
25.4903
25.4946
25.4992
25.5038
25.5083
25.5128
25.517
25.5209
25.5244
25.5275
25.5299
25.5317
25.5327
25.7345
25.7351
25.7363
25.738
25.7402
25.7428
25.7459
25.7493
25.7529
25.7567
25.7605
25.7643
25.7679
25.7715
25.7747
25.7777
25.7803
25.7824
25.784
25.7848
25.9384
25.9388
25.9396
25.9408
25.9424
25.9443
25.9465
25.9489
25.9514
25.9541
25.9569
25.9596
25.9622
25.9648
25.9671
25.9693
25.9712
25.9729
25.9741
25.9748
26.3501
26.3503
26.3507
26.3513
26.3521
26.3531
26.3542
26.3555
26.3568
26.3582
26.3597
26.3611
26.3625
26.3638
26.3651
26.3663
26.3673
26.3683
26.3691
26.3695
26.722
26.7219
26.7217
26.7215
26.7211
26.7208
26.7203
26.7199
26.7194
26.7189
26.7184
26.718
26.7175
26.7171
26.7168
26.7165
26.7163
26.7163
26.7163
26.7165
27.3425
27.342
27.3411
27.3397
27.3379
27.3357
27.3332
27.3305
27.3276
27.3247
27.3217
27.3188
27.3159
27.3133
27.3108
27.3086
27.3067
27.3053
27.3043
27.3039
28.0221
28.021
28.0187
28.0154
28.0111
28.0059
28
27.9936
27.9868
27.9798
27.9728
27.9659
27.9593
27.9531
27.9474
27.9423
27.9378
27.9343
27.9317
27.9304
29.3401
29.3378
29.3332
29.3265
29.3177
29.3073
29.2954
29.2825
29.2689
29.255
29.2411
29.2275
29.2145
29.2024
29.1913
29.1814
29.1729
29.1659
29.1607
29.1577
45.7756
45.7738
45.7703
45.7652
45.7586
45.7508
45.7421
45.7327
45.7228
45.7129
45.703
45.6934
45.6844
45.676
45.6683
45.6616
45.6558
45.6512
45.6478
45.6458
44.5221
44.5216
44.5207
44.5194
44.5177
44.5158
44.5135
44.5112
44.5087
44.5062
44.5038
44.5014
44.4992
44.4971
44.4952
44.4934
44.4919
44.4906
44.4897
44.4892
43.7803
43.7807
43.7816
43.7828
43.7845
43.7864
43.7886
43.791
43.7936
43.7962
43.7989
43.8014
43.8039
43.8062
43.8083
43.81
43.8115
43.8126
43.8133
43.8137
43.1209
43.1218
43.1237
43.1265
43.13
43.1342
43.139
43.1443
43.1498
43.1555
43.1612
43.1668
43.1722
43.1772
43.1817
43.1857
43.189
43.1916
43.1934
43.1943
42.7222
42.7235
42.7261
42.7299
42.7348
42.7406
42.7472
42.7544
42.7621
42.7699
42.7778
42.7855
42.7929
42.7998
42.8061
42.8116
42.8163
42.82
42.8225
42.8239
42.3457
42.3472
42.3502
42.3545
42.3601
42.3667
42.3743
42.3826
42.3913
42.4004
42.4094
42.4184
42.4269
42.435
42.4423
42.4487
42.4542
42.4585
42.4615
42.4631
42.1469
42.1485
42.1516
42.1562
42.1621
42.1692
42.1772
42.186
42.1953
42.205
42.2147
42.2242
42.2334
42.242
42.25
42.2569
42.2629
42.2675
42.2708
42.2726
41.9772
41.9788
41.9819
41.9864
41.9923
41.9994
42.0075
42.0164
42.0258
42.0355
42.0453
42.055
42.0644
42.0732
42.0812
42.0884
42.0945
42.0993
42.1027
42.1045
41.9109
41.9124
41.9154
41.9198
41.9254
41.9323
41.9401
41.9487
41.9578
41.9672
41.9768
41.9863
41.9954
42.0041
42.012
42.0191
42.0251
42.03
42.0334
42.0352
41.9273
41.9287
41.9315
41.9357
41.9411
41.9476
41.955
41.9632
41.9719
41.9809
41.9901
41.9992
42.008
42.0164
42.0241
42.031
42.0369
42.0416
42.045
42.0468
41.9664
41.9677
41.9703
41.9742
41.9792
41.9852
41.9922
41.9998
42.008
42.0165
42.0251
42.0337
42.042
42.0499
42.0572
42.0638
42.0695
42.074
42.0773
42.079
42.1685
42.1697
42.1721
42.1756
42.1801
42.1856
42.192
42.1989
42.2064
42.2141
42.222
42.2299
42.2375
42.2448
42.2516
42.2577
42.263
42.2673
42.2704
42.2721
42.328
42.329
42.3311
42.3341
42.3381
42.3429
42.3484
42.3544
42.361
42.3678
42.3747
42.3816
42.3884
42.3948
42.4008
42.4063
42.4111
42.415
42.4178
42.4194
42.722
42.7228
42.7245
42.727
42.7302
42.7342
42.7387
42.7437
42.7491
42.7547
42.7604
42.7661
42.7717
42.7771
42.7821
42.7867
42.7907
42.7941
42.7966
42.798
43.0438
43.0444
43.0456
43.0473
43.0496
43.0524
43.0557
43.0592
43.0631
43.0671
43.0712
43.0753
43.0793
43.0832
43.0869
43.0903
43.0933
43.0959
43.0978
43.099
43.6694
43.6697
43.6703
43.6712
43.6723
43.6737
43.6754
43.6772
43.6791
43.6812
43.6833
43.6854
43.6875
43.6895
43.6914
43.6932
43.6949
43.6964
43.6976
43.6983
44.2283
44.2282
44.2279
44.2275
44.2271
44.2265
44.2258
44.2251
44.2244
44.2237
44.223
44.2223
44.2216
44.221
44.2205
44.22
44.2197
44.2196
44.2197
44.2198
45.1799
45.1792
45.1778
45.1758
45.1732
45.17
45.1664
45.1625
45.1583
45.154
45.1496
45.1452
45.141
45.137
45.1333
45.1299
45.127
45.1248
45.1232
45.1225
46.1405
46.1389
46.1359
46.1314
46.1255
46.1184
46.1104
46.1016
46.0922
46.0825
46.0728
46.0631
46.0537
46.0448
46.0366
46.029
46.0224
46.017
46.0131
46.011
47.7751
47.7724
47.7669
47.7587
47.7481
47.7354
47.7209
47.7051
47.6883
47.671
47.6536
47.6365
47.62
47.6043
47.5897
47.5765
47.5649
47.5551
47.5477
47.5434
62.7637
62.7622
62.7591
62.7546
62.7487
62.7418
62.734
62.7255
62.7167
62.7076
62.6987
62.6899
62.6815
62.6736
62.6663
62.6597
62.654
62.6492
62.6457
62.6436
61.4925
61.4922
61.4915
61.4906
61.4893
61.4879
61.4863
61.4846
61.4828
61.481
61.4792
61.4774
61.4758
61.4742
61.4726
61.4712
61.4698
61.4687
61.4678
61.4673
60.6606
60.6612
60.6622
60.6638
60.6659
60.6684
60.6712
60.6743
60.6776
60.681
60.6844
60.6877
60.6909
60.6939
60.6966
60.6988
60.7007
60.7021
60.7031
60.7036
59.9301
59.9312
59.9334
59.9367
59.9409
59.9459
59.9516
59.9579
59.9645
59.9714
59.9782
59.985
59.9915
59.9976
60.0032
60.008
60.0121
60.0153
60.0175
60.0187
59.447
59.4485
59.4515
59.4559
59.4616
59.4684
59.4761
59.4846
59.4935
59.5028
59.5121
59.5214
59.5302
59.5385
59.5462
59.5529
59.5585
59.563
59.5661
59.5678
59.0075
59.0092
59.0127
59.0177
59.0242
59.032
59.0409
59.0507
59.061
59.0717
59.0826
59.0932
59.1036
59.1133
59.1222
59.1301
59.1367
59.142
59.1458
59.1477
58.7566
58.7585
58.7621
58.7675
58.7744
58.7827
58.7923
58.8027
58.8138
58.8253
58.8369
58.8485
58.8596
58.8701
58.8798
58.8884
58.8958
58.9016
58.9057
58.9079
58.5541
58.556
58.5597
58.5651
58.5721
58.5805
58.5902
58.6008
58.6121
58.6238
58.6357
58.6475
58.659
58.6698
58.6798
58.6888
58.6964
58.7025
58.7069
58.7092
58.4686
58.4704
58.474
58.4792
58.4861
58.4943
58.5037
58.5141
58.5252
58.5367
58.5485
58.5601
58.5715
58.5822
58.5922
58.6012
58.6089
58.6151
58.6195
58.6218
58.4881
58.4898
58.4932
58.4983
58.5048
58.5127
58.5218
58.5318
58.5425
58.5536
58.565
58.5763
58.5874
58.5979
58.6077
58.6165
58.6241
58.6303
58.6347
58.6371
58.5402
58.5418
58.545
58.5497
58.5558
58.5632
58.5718
58.5812
58.5913
58.6018
58.6126
58.6234
58.6339
58.6439
58.6533
58.6618
58.6692
58.6752
58.6796
58.6819
58.7845
58.7859
58.7888
58.7931
58.7987
58.8055
58.8133
58.822
58.8313
58.841
58.8509
58.8609
58.8706
58.88
58.8888
58.8968
58.9037
58.9095
58.9137
58.916
58.9909
58.9922
58.9947
58.9985
59.0034
59.0094
59.0163
59.0239
59.0321
59.0407
59.0495
59.0583
59.067
59.0753
59.0832
59.0904
59.0968
59.102
59.1059
59.1081
59.4624
59.4634
59.4655
59.4686
59.4727
59.4776
59.4833
59.4897
59.4965
59.5037
59.511
59.5184
59.5257
59.5327
59.5393
59.5455
59.5509
59.5555
59.5589
59.5609
59.8665
59.8673
59.8688
59.8711
59.874
59.8776
59.8818
59.8864
59.8914
59.8967
59.9021
59.9075
59.9129
59.9181
59.9231
59.9277
59.9318
59.9353
59.938
59.9396
60.5895
60.5899
60.5907
60.5919
60.5935
60.5955
60.5978
60.6003
60.603
60.6059
60.6089
60.6118
60.6148
60.6177
60.6205
60.6231
60.6255
60.6276
60.6294
60.6304
61.2627
61.2626
61.2625
61.2622
61.262
61.2617
61.2613
61.2609
61.2606
61.2602
61.2598
61.2594
61.2591
61.2588
61.2585
61.2583
61.2582
61.2583
61.2584
61.2587
62.3096
62.309
62.3076
62.3056
62.303
62.2998
62.2962
62.2922
62.2879
62.2834
62.2788
62.2743
62.2698
62.2654
62.2613
62.2575
62.2541
62.2514
62.2495
62.2486
63.3946
63.3931
63.39
63.3854
63.3795
63.3722
63.3639
63.3548
63.345
63.3349
63.3245
63.3141
63.3039
63.294
63.2846
63.2758
63.2679
63.2613
63.2564
63.2537
65.1527
65.1501
65.1447
65.1366
65.1261
65.1133
65.0987
65.0826
65.0654
65.0476
65.0294
65.0113
64.9935
64.9762
64.9598
64.9445
64.9306
64.9187
64.9093
64.9035
79.5087
79.5076
79.5053
79.5019
79.4976
79.4924
79.4865
79.48
79.4733
79.4663
79.4594
79.4524
79.4457
79.4392
79.433
79.4273
79.4222
79.4178
79.4144
79.4123
78.176
78.1759
78.1757
78.1755
78.1752
78.1748
78.1744
78.1739
78.1735
78.173
78.1726
78.1721
78.1716
78.171
78.1704
78.1696
78.1688
78.168
78.1673
78.1669
77.3231
77.3238
77.3252
77.3273
77.3299
77.3331
77.3368
77.3408
77.3451
77.3495
77.354
77.3583
77.3625
77.3664
77.3698
77.3728
77.3752
77.377
77.3782
77.3789
76.527
76.5282
76.5307
76.5344
76.5391
76.5448
76.5512
76.5583
76.5658
76.5736
76.5815
76.5893
76.5968
76.6038
76.6102
76.6158
76.6205
76.6242
76.6267
76.6281
76.0017
76.0033
76.0066
76.0114
76.0176
76.025
76.0334
76.0427
76.0526
76.0629
76.0733
76.0835
76.0934
76.1028
76.1114
76.119
76.1254
76.1305
76.134
76.1359
75.51
75.5119
75.5156
75.521
75.5281
75.5366
75.5463
75.5569
75.5683
75.5801
75.592
75.6039
75.6154
75.6263
75.6363
75.6452
75.6528
75.6588
75.6631
75.6654
75.2263
75.2283
75.2322
75.238
75.2456
75.2546
75.265
75.2765
75.2887
75.3014
75.3143
75.3271
75.3396
75.3514
75.3624
75.3722
75.3806
75.3873
75.3921
75.3946
74.9981
75.0002
75.0042
75.0101
75.0178
75.027
75.0376
75.0494
75.0619
75.0749
75.0882
75.1015
75.1144
75.1267
75.1382
75.1485
75.1573
75.1644
75.1695
75.1723
74.8994
74.9014
74.9053
74.9111
74.9187
74.9278
74.9383
74.9499
74.9623
74.9753
74.9885
75.0018
75.0147
75.0271
75.0386
75.049
75.0581
75.0654
75.0706
75.0735
74.9188
74.9207
74.9245
74.9301
74.9374
74.9463
74.9565
74.9678
74.9799
74.9925
75.0055
75.0185
75.0312
75.0435
75.0549
75.0653
75.0743
75.0817
75.0871
75.09
74.9801
74.9819
74.9855
74.9908
74.9977
75.0061
75.0158
75.0266
75.0381
75.0502
75.0626
75.0751
75.0874
75.0992
75.1103
75.1205
75.1293
75.1366
75.142
75.1449
75.252
75.2537
75.257
75.2619
75.2683
75.276
75.285
75.295
75.3057
75.317
75.3286
75.3402
75.3518
75.3629
75.3734
75.383
75.3915
75.3986
75.4038
75.4067
75.4914
75.4928
75.4957
75.5001
75.5058
75.5127
75.5207
75.5297
75.5393
75.5494
75.5598
75.5703
75.5807
75.5907
75.6003
75.6091
75.6169
75.6235
75.6283
75.6311
76.018
76.0193
76.0217
76.0254
76.0302
76.0361
76.0429
76.0504
76.0586
76.0672
76.076
76.085
76.0939
76.1025
76.1108
76.1184
76.1252
76.131
76.1353
76.1378
76.478
76.4789
76.4807
76.4835
76.4872
76.4916
76.4968
76.5026
76.5088
76.5154
76.5221
76.529
76.5358
76.5424
76.5488
76.5547
76.56
76.5645
76.568
76.57
77.2851
77.2856
77.2868
77.2885
77.2907
77.2935
77.2966
77.3002
77.304
77.308
77.3122
77.3164
77.3206
77.3247
77.3286
77.3323
77.3356
77.3385
77.3407
77.3421
78.0338
78.0339
78.034
78.0343
78.0347
78.0351
78.0356
78.0362
78.0368
78.0374
78.038
78.0386
78.0392
78.0398
78.0403
78.0407
78.0411
78.0415
78.042
78.0424
79.1875
79.187
79.186
79.1845
79.1825
79.1801
79.1773
79.1742
79.1708
79.1673
79.1635
79.1597
79.1559
79.152
79.1482
79.1446
79.1413
79.1385
79.1365
79.1355
80.345
80.3437
80.3412
80.3373
80.3321
80.3259
80.3186
80.3106
80.3018
80.2926
80.2831
80.2734
80.2636
80.2538
80.2443
80.2351
80.2266
80.2193
80.2137
80.2106
82.2069
82.2047
82.2001
82.193
82.1838
82.1724
82.1593
82.1448
82.1291
82.1125
82.0954
82.078
82.0605
82.0431
82.026
82.0096
81.9942
81.9805
81.9695
81.9624
95.8448
95.8442
95.8429
95.8409
95.8384
95.8353
95.8318
95.8279
95.8238
95.8195
95.815
95.8105
95.806
95.8014
95.7968
95.7924
95.7883
95.7845
95.7815
95.7795
94.4783
94.4786
94.4791
94.4798
94.4807
94.4818
94.4831
94.4845
94.4859
94.4874
94.4889
94.4902
94.4914
94.4924
94.4931
94.4935
94.4936
94.4935
94.4932
94.493
93.6408
93.6417
93.6435
93.6462
93.6496
93.6537
93.6584
93.6635
93.669
93.6747
93.6804
93.686
93.6913
93.6963
93.7007
93.7045
93.7076
93.7099
93.7115
93.7122
92.8562
92.8576
92.8603
92.8643
92.8696
92.8758
92.883
92.8909
92.8992
92.9079
92.9168
92.9255
92.9339
92.9418
92.949
92.9553
92.9605
92.9647
92.9675
92.969
92.3121
92.3139
92.3173
92.3224
92.3289
92.3368
92.3458
92.3557
92.3662
92.3772
92.3884
92.3995
92.4102
92.4204
92.4297
92.438
92.445
92.4505
92.4544
92.4564
91.8074
91.8093
91.8132
91.8189
91.8263
91.8352
91.8454
91.8566
91.8686
91.8811
91.8938
91.9065
91.9189
91.9306
91.9414
91.9511
91.9593
91.9659
91.9705
91.973
91.5053
91.5074
91.5115
91.5175
91.5254
91.5349
91.5458
91.5579
91.5708
91.5843
91.598
91.6117
91.6251
91.6379
91.6498
91.6605
91.6696
91.677
91.6822
91.685
91.2666
91.2687
91.2729
91.2791
91.2872
91.297
91.3082
91.3206
91.3339
91.3479
91.3621
91.3764
91.3904
91.4037
91.4162
91.4275
91.4373
91.4452
91.4508
91.4539
91.159
91.1611
91.1653
91.1714
91.1795
91.1892
91.2004
91.2128
91.2262
91.2401
91.2545
91.2689
91.283
91.2966
91.3094
91.3209
91.331
91.3392
91.3451
91.3483
91.1787
91.1808
91.1848
91.1909
91.1987
91.2083
91.2193
91.2315
91.2446
91.2584
91.2726
91.2869
91.301
91.3146
91.3274
91.339
91.3492
91.3576
91.3637
91.3671
91.2448
91.2467
91.2506
91.2564
91.2639
91.2731
91.2837
91.2954
91.3081
91.3215
91.3352
91.3491
91.3628
91.3761
91.3887
91.4002
91.4104
91.4187
91.4249
91.4283
91.5312
91.533
91.5366
91.542
91.5491
91.5577
91.5676
91.5787
91.5907
91.6033
91.6163
91.6294
91.6425
91.6552
91.6672
91.6783
91.6882
91.6963
91.7024
91.7058
91.7892
91.7908
91.7941
91.799
91.8054
91.8132
91.8222
91.8323
91.8432
91.8547
91.8666
91.8787
91.8906
91.9023
91.9135
91.9238
91.9329
91.9406
91.9463
91.9495
92.3411
92.3425
92.3453
92.3496
92.3551
92.3619
92.3698
92.3786
92.3881
92.3981
92.4085
92.419
92.4295
92.4398
92.4496
92.4587
92.4669
92.4737
92.4789
92.4818
92.8308
92.8319
92.8342
92.8376
92.842
92.8475
92.8538
92.8608
92.8684
92.8764
92.8848
92.8932
92.9016
92.9098
92.9177
92.925
92.9315
92.937
92.9412
92.9437
93.661
93.6617
93.6633
93.6657
93.6688
93.6726
93.677
93.6818
93.6871
93.6927
93.6984
93.7042
93.7099
93.7155
93.7208
93.7257
93.7301
93.7339
93.7367
93.7385
94.4473
94.4477
94.4484
94.4494
94.4507
94.4523
94.4541
94.4561
94.4583
94.4605
94.4627
94.4649
94.467
94.4689
94.4706
94.4721
94.4733
94.4744
94.4753
94.4759
95.6064
95.6062
95.6058
95.6052
95.6044
95.6033
95.602
95.6006
95.5989
95.5971
95.595
95.5928
95.5903
95.5877
95.5849
95.582
95.5792
95.5767
95.5748
95.5739
96.8034
96.8026
96.8008
96.7981
96.7944
96.7899
96.7845
96.7785
96.7718
96.7646
96.757
96.7489
96.7404
96.7317
96.7228
96.7139
96.7055
96.6979
96.692
96.6887
98.6035
98.6019
98.5985
98.5932
98.586
98.5771
98.5667
98.5549
98.542
98.5281
98.5135
98.4981
98.4821
98.4657
98.4489
98.4323
98.4163
98.4017
98.3896
98.3818
111.856
111.856
111.856
111.856
111.856
111.855
111.855
111.854
111.853
111.852
111.851
111.85
111.848
111.846
111.844
111.842
111.839
111.837
111.835
111.833
110.607
110.607
110.608
110.61
110.612
110.615
110.618
110.621
110.625
110.628
110.632
110.635
110.638
110.641
110.643
110.645
110.646
110.646
110.647
110.647
109.766
109.767
109.77
109.773
109.777
109.782
109.788
109.794
109.801
109.808
109.815
109.822
109.829
109.835
109.84
109.845
109.849
109.852
109.854
109.855
108.971
108.972
108.975
108.98
108.985
108.992
109
109.009
109.018
109.028
109.037
109.047
109.056
109.065
109.073
109.08
109.086
109.09
109.093
109.095
108.425
108.427
108.431
108.436
108.443
108.451
108.46
108.471
108.482
108.494
108.505
108.517
108.529
108.539
108.549
108.558
108.566
108.571
108.576
108.578
107.912
107.914
107.918
107.924
107.931
107.94
107.951
107.963
107.975
107.988
108.001
108.015
108.028
108.04
108.051
108.062
108.07
108.077
108.082
108.085
107.603
107.605
107.609
107.615
107.623
107.633
107.644
107.657
107.67
107.684
107.699
107.713
107.727
107.74
107.753
107.764
107.774
107.782
107.787
107.79
107.359
107.362
107.366
107.372
107.381
107.391
107.402
107.415
107.429
107.444
107.459
107.474
107.488
107.503
107.516
107.528
107.538
107.547
107.553
107.556
107.247
107.249
107.254
107.26
107.268
107.279
107.29
107.303
107.317
107.332
107.347
107.363
107.378
107.392
107.406
107.418
107.429
107.438
107.444
107.448
107.267
107.269
107.273
107.279
107.288
107.298
107.309
107.322
107.336
107.351
107.366
107.382
107.397
107.411
107.425
107.438
107.449
107.458
107.465
107.468
107.335
107.337
107.341
107.347
107.355
107.365
107.376
107.389
107.403
107.417
107.432
107.447
107.462
107.477
107.49
107.503
107.514
107.523
107.53
107.534
107.626
107.628
107.632
107.638
107.646
107.655
107.666
107.678
107.691
107.705
107.719
107.734
107.748
107.762
107.776
107.788
107.799
107.808
107.815
107.818
107.893
107.894
107.898
107.904
107.911
107.919
107.929
107.941
107.953
107.966
107.979
107.993
108.006
108.019
108.032
108.044
108.054
108.063
108.069
108.072
108.455
108.456
108.459
108.464
108.471
108.478
108.488
108.498
108.509
108.52
108.532
108.544
108.557
108.568
108.58
108.59
108.6
108.607
108.613
108.616
108.955
108.956
108.959
108.963
108.969
108.975
108.983
108.991
109.001
109.01
109.02
109.031
109.041
109.051
109.06
109.069
109.077
109.083
109.088
109.091
109.801
109.802
109.804
109.807
109.811
109.816
109.822
109.829
109.836
109.843
109.851
109.859
109.866
109.874
109.881
109.887
109.893
109.897
109.901
109.903
110.591
110.592
110.593
110.595
110.598
110.601
110.605
110.609
110.613
110.617
110.622
110.626
110.63
110.634
110.637
110.64
110.642
110.644
110.646
110.647
111.754
111.754
111.755
111.755
111.756
111.757
111.758
111.759
111.759
111.76
111.76
111.761
111.76
111.759
111.758
111.757
111.755
111.753
111.752
111.752
112.908
112.907
112.907
112.905
112.904
112.902
112.899
112.896
112.892
112.888
112.883
112.878
112.872
112.865
112.858
112.85
112.843
112.836
112.831
112.828
114.792
114.791
114.789
114.786
114.781
114.775
114.768
114.76
114.75
114.74
114.728
114.715
114.702
114.687
114.671
114.655
114.64
114.625
114.613
114.605
127.587
127.588
127.589
127.59
127.592
127.594
127.597
127.6
127.602
127.605
127.608
127.61
127.611
127.612
127.613
127.613
127.613
127.612
127.611
127.611
126.407
126.408
126.41
126.412
126.416
126.421
126.426
126.431
126.437
126.443
126.449
126.454
126.459
126.464
126.468
126.471
126.474
126.476
126.477
126.477
125.607
125.608
125.611
125.615
125.62
125.626
125.633
125.641
125.649
125.658
125.666
125.675
125.683
125.69
125.697
125.703
125.708
125.711
125.713
125.714
124.842
124.844
124.847
124.852
124.858
124.866
124.874
124.884
124.894
124.905
124.915
124.926
124.936
124.946
124.955
124.962
124.969
124.973
124.977
124.978
124.309
124.311
124.315
124.321
124.328
124.337
124.346
124.357
124.369
124.381
124.394
124.406
124.418
124.43
124.44
124.449
124.457
124.463
124.467
124.469
123.808
123.81
123.814
123.82
123.828
123.838
123.848
123.86
123.873
123.887
123.901
123.914
123.928
123.941
123.952
123.963
123.972
123.979
123.984
123.986
123.501
123.503
123.508
123.514
123.522
123.532
123.544
123.557
123.571
123.585
123.6
123.615
123.629
123.643
123.656
123.668
123.678
123.686
123.691
123.694
123.262
123.264
123.269
123.275
123.284
123.294
123.306
123.32
123.334
123.349
123.365
123.38
123.395
123.41
123.424
123.436
123.447
123.456
123.462
123.465
123.149
123.151
123.156
123.162
123.171
123.182
123.194
123.207
123.222
123.237
123.253
123.269
123.285
123.3
123.315
123.328
123.339
123.348
123.355
123.358
123.168
123.171
123.175
123.182
123.191
123.201
123.214
123.227
123.242
123.258
123.274
123.29
123.306
123.322
123.336
123.35
123.361
123.371
123.377
123.381
123.236
123.238
123.242
123.249
123.258
123.268
123.28
123.294
123.309
123.324
123.34
123.356
123.372
123.388
123.403
123.416
123.428
123.438
123.445
123.448
123.525
123.527
123.532
123.538
123.546
123.557
123.568
123.582
123.596
123.611
123.627
123.642
123.658
123.673
123.688
123.701
123.713
123.722
123.729
123.733
123.791
123.793
123.797
123.803
123.811
123.82
123.832
123.844
123.858
123.872
123.887
123.902
123.917
123.932
123.945
123.958
123.969
123.978
123.985
123.989
124.345
124.347
124.351
124.356
124.364
124.372
124.383
124.394
124.407
124.42
124.434
124.448
124.462
124.475
124.488
124.5
124.51
124.518
124.525
124.528
124.841
124.842
124.846
124.851
124.857
124.865
124.874
124.884
124.896
124.907
124.919
124.932
124.944
124.955
124.966
124.977
124.985
124.993
124.998
125.001
125.668
125.669
125.672
125.676
125.682
125.688
125.696
125.705
125.714
125.723
125.733
125.743
125.753
125.763
125.771
125.779
125.786
125.792
125.796
125.798
126.446
126.447
126.449
126.452
126.456
126.461
126.467
126.473
126.48
126.487
126.494
126.5
126.507
126.513
126.518
126.523
126.527
126.53
126.532
126.534
127.571
127.571
127.573
127.575
127.577
127.58
127.584
127.587
127.591
127.595
127.598
127.601
127.603
127.605
127.606
127.607
127.607
127.606
127.606
127.606
128.717
128.717
128.718
128.718
128.719
128.719
128.72
128.72
128.72
128.719
128.718
128.715
128.712
128.709
128.704
128.698
128.693
128.687
128.683
128.681
130.421
130.421
130.421
130.419
130.418
130.415
130.412
130.408
130.403
130.396
130.389
130.38
130.37
130.359
130.346
130.333
130.319
130.307
130.296
130.289
143.091
143.092
143.095
143.098
143.102
143.107
143.113
143.119
143.126
143.132
143.139
143.145
143.15
143.154
143.158
143.161
143.164
143.166
143.167
143.168
141.984
141.985
141.988
141.992
141.998
142.004
142.011
142.019
142.027
142.036
142.044
142.052
142.06
142.067
142.073
142.078
142.083
142.086
142.088
142.089
141.228
141.23
141.233
141.238
141.244
141.252
141.26
141.269
141.279
141.289
141.3
141.31
141.32
141.329
141.337
141.344
141.349
141.354
141.356
141.357
140.495
140.497
140.5
140.506
140.512
140.521
140.53
140.541
140.552
140.564
140.575
140.587
140.599
140.609
140.619
140.627
140.634
140.639
140.642
140.644
139.985
139.987
139.991
139.997
140.004
140.013
140.024
140.035
140.048
140.061
140.074
140.087
140.1
140.112
140.123
140.132
140.14
140.146
140.15
140.152
139.501
139.503
139.507
139.513
139.521
139.531
139.542
139.555
139.568
139.582
139.597
139.611
139.625
139.638
139.65
139.661
139.67
139.677
139.681
139.684
139.203
139.205
139.21
139.216
139.225
139.235
139.247
139.26
139.274
139.289
139.304
139.32
139.335
139.349
139.362
139.374
139.384
139.392
139.397
139.4
138.972
138.974
138.979
138.986
138.995
139.005
139.018
139.031
139.046
139.062
139.078
139.094
139.11
139.125
139.139
139.152
139.163
139.171
139.177
139.18
138.86
138.862
138.867
138.874
138.883
138.894
138.907
138.921
138.937
138.953
138.969
138.986
139.002
139.018
139.033
139.046
139.058
139.067
139.073
139.076
138.88
138.882
138.887
138.894
138.903
138.915
138.928
138.942
138.958
138.974
138.991
139.008
139.025
139.041
139.057
139.07
139.082
139.092
139.098
139.102
138.945
138.947
138.952
138.959
138.968
138.98
138.993
139.007
139.023
139.039
139.056
139.074
139.091
139.107
139.123
139.137
139.149
139.158
139.165
139.168
139.226
139.229
139.234
139.241
139.25
139.261
139.274
139.288
139.304
139.32
139.337
139.354
139.371
139.387
139.403
139.417
139.429
139.438
139.445
139.449
139.484
139.486
139.491
139.498
139.507
139.517
139.53
139.544
139.559
139.575
139.591
139.608
139.624
139.64
139.655
139.669
139.681
139.69
139.696
139.7
140.022
140.024
140.029
140.035
140.044
140.054
140.066
140.079
140.093
140.108
140.124
140.14
140.155
140.17
140.185
140.197
140.208
140.217
140.223
140.226
140.502
140.504
140.508
140.513
140.521
140.531
140.542
140.554
140.567
140.581
140.595
140.61
140.624
140.637
140.65
140.661
140.671
140.679
140.685
140.688
141.302
141.304
141.308
141.313
141.32
141.328
141.338
141.349
141.36
141.373
141.385
141.398
141.41
141.422
141.432
141.442
141.45
141.456
141.461
141.464
142.048
142.049
142.052
142.057
142.062
142.07
142.078
142.087
142.096
142.106
142.116
142.126
142.136
142.144
142.152
142.159
142.165
142.169
142.172
142.174
143.129
143.13
143.133
143.136
143.141
143.146
143.153
143.16
143.167
143.174
143.181
143.187
143.193
143.198
143.202
143.205
143.207
143.209
143.21
143.211
144.203
144.203
144.205
144.208
144.211
144.214
144.218
144.222
144.226
144.229
144.232
144.234
144.235
144.235
144.234
144.232
144.23
144.227
144.225
144.224
145.852
145.852
145.853
145.854
145.856
145.857
145.858
145.858
145.858
145.857
145.854
145.85
145.845
145.838
145.829
145.82
145.81
145.802
145.795
145.791
158.346
158.348
158.352
158.357
158.364
158.372
158.381
158.391
158.401
158.412
158.422
158.432
158.441
158.45
158.457
158.464
158.47
158.474
158.478
158.481
157.31
157.312
157.316
157.321
157.328
157.337
157.346
157.356
157.367
157.379
157.39
157.401
157.411
157.421
157.43
157.437
157.443
157.448
157.451
157.453
156.608
156.61
156.614
156.62
156.627
156.636
156.646
156.657
156.669
156.681
156.693
156.705
156.717
156.727
156.737
156.745
156.752
156.757
156.76
156.762
155.923
155.925
155.929
155.935
155.942
155.951
155.962
155.973
155.986
155.999
156.012
156.025
156.037
156.049
156.06
156.069
156.076
156.082
156.085
156.087
155.443
155.445
155.45
155.456
155.464
155.474
155.485