/*--------------------------------*- C++ -*----------------------------------*\
| =========                 |                                                 |
| \\      /  F ield         | OpenFOAM: The Open Source CFD Toolbox           |
|  \\    /   O peration     | Version:  2212                                  |
|   \\  /    A nd           | Website:  www.openfoam.com                      |
|    \\/     M anipulation  |                                                 |
\*---------------------------------------------------------------------------*/
FoamFile
{
    version     2.0;
    format      ascii;
    arch        "LSB;label=32;scalar=64";
    class       volVectorField;
    location    "0.249";
    object      UMean;
}
// * * * * * * * * * * * * * * * * * * * * * * * * * * * * * * * * * * * * * //

dimensions      [0 1 -1 0 0 0 0];

internalField   nonuniform List<vector> 
24240
(
(9.37868 0.628029 8.24847e-07)
(9.37877 0.628036 -4.72739e-07)
(9.37877 0.628035 -2.38938e-07)
(9.37877 0.628034 -6.08258e-07)
(9.37877 0.628034 -6.73284e-07)
(9.37877 0.628033 -8.56961e-07)
(9.37877 0.628032 -9.69644e-07)
(9.37877 0.62803 -1.09727e-06)
(9.37877 0.628029 -1.19262e-06)
(9.37877 0.628028 -1.27092e-06)
(9.37877 0.628027 -1.31642e-06)
(9.37877 0.628026 -1.33224e-06)
(9.37877 0.628025 -1.30818e-06)
(9.37877 0.628025 -1.2573e-06)
(9.37877 0.628024 -1.15339e-06)
(9.37877 0.628023 -1.06857e-06)
(9.37877 0.628023 -8.46981e-07)
(9.37876 0.628023 -8.77572e-07)
(9.37877 0.628023 -2.66671e-07)
(9.37868 0.628016 -1.12295e-06)
(9.10947 0.633056 -4.12141e-07)
(9.10955 0.633063 -9.13176e-07)
(9.10955 0.633064 -1.33885e-06)
(9.10955 0.633064 -1.85948e-06)
(9.10955 0.633065 -2.22354e-06)
(9.10955 0.633066 -2.56999e-06)
(9.10956 0.633067 -2.80479e-06)
(9.10956 0.633069 -2.97406e-06)
(9.10956 0.63307 -3.05075e-06)
(9.10956 0.633071 -3.05185e-06)
(9.10956 0.633072 -2.97393e-06)
(9.10956 0.633073 -2.82846e-06)
(9.10956 0.633074 -2.61886e-06)
(9.10956 0.633075 -2.36423e-06)
(9.10956 0.633076 -2.06077e-06)
(9.10956 0.633077 -1.75618e-06)
(9.10956 0.633077 -1.38572e-06)
(9.10956 0.633078 -1.07972e-06)
(9.10956 0.633078 -6.04417e-07)
(9.10947 0.633071 -1.32574e-07)
(9.13805 0.33908 -7.44123e-08)
(9.13814 0.339085 2.76044e-07)
(9.13814 0.339085 6.23812e-07)
(9.13814 0.339085 7.79601e-07)
(9.13814 0.339085 9.62418e-07)
(9.13813 0.339085 1.02697e-06)
(9.13813 0.339086 1.05659e-06)
(9.13813 0.339086 1.01459e-06)
(9.13813 0.339086 9.31548e-07)
(9.13813 0.339087 8.08792e-07)
(9.13813 0.339087 6.64453e-07)
(9.13813 0.339087 5.08625e-07)
(9.13813 0.339088 3.56909e-07)
(9.13813 0.339088 2.15744e-07)
(9.13812 0.339088 1.06231e-07)
(9.13812 0.339089 5.30718e-09)
(9.13812 0.339089 -2.28684e-08)
(9.13812 0.339089 -8.8596e-08)
(9.13812 0.339089 -2.95351e-09)
(9.13804 0.339085 1.13887e-07)
(8.95197 0.336426 -2.76982e-07)
(8.95205 0.336431 -7.31783e-07)
(8.95205 0.336431 -1.09298e-06)
(8.95205 0.336431 -1.47757e-06)
(8.95206 0.336431 -1.78201e-06)
(8.95206 0.336431 -2.04364e-06)
(8.95206 0.336431 -2.22653e-06)
(8.95206 0.336431 -2.34891e-06)
(8.95206 0.336431 -2.39757e-06)
(8.95206 0.336431 -2.38149e-06)
(8.95206 0.336432 -2.30066e-06)
(8.95206 0.336432 -2.16323e-06)
(8.95206 0.336432 -1.97474e-06)
(8.95206 0.336432 -1.74882e-06)
(8.95206 0.336432 -1.48789e-06)
(8.95206 0.336432 -1.21782e-06)
(8.95206 0.336432 -9.20917e-07)
(8.95206 0.336433 -6.42309e-07)
(8.95206 0.336433 -3.15e-07)
(8.95198 0.336428 -8.76283e-08)
(8.9649 0.181907 3.09837e-08)
(8.96498 0.18191 3.40574e-07)
(8.96498 0.18191 6.60829e-07)
(8.96498 0.181911 8.76645e-07)
(8.96498 0.181911 1.05749e-06)
(8.96498 0.181912 1.16539e-06)
(8.96498 0.181912 1.2225e-06)
(8.96498 0.181913 1.21797e-06)
(8.96498 0.181914 1.16791e-06)
(8.96498 0.181914 1.07711e-06)
(8.96498 0.181915 9.59921e-07)
(8.96497 0.181915 8.26672e-07)
(8.96497 0.181916 6.89763e-07)
(8.96497 0.181917 5.57195e-07)
(8.96497 0.181917 4.4241e-07)
(8.96497 0.181917 3.43199e-07)
(8.96497 0.181918 2.73053e-07)
(8.96497 0.181918 2.08457e-07)
(8.96497 0.181918 1.86049e-07)
(8.96488 0.181915 1.18031e-07)
(8.8534 0.175508 -1.47695e-07)
(8.85348 0.17551 -3.75122e-07)
(8.85348 0.17551 -5.53425e-07)
(8.85348 0.17551 -7.44089e-07)
(8.85348 0.175509 -8.89342e-07)
(8.85348 0.175508 -1.02107e-06)
(8.85348 0.175508 -1.11381e-06)
(8.85348 0.175507 -1.17891e-06)
(8.85348 0.175507 -1.20668e-06)
(8.85348 0.175506 -1.20189e-06)
(8.85348 0.175505 -1.16235e-06)
(8.85348 0.175505 -1.09247e-06)
(8.85348 0.175504 -9.92676e-07)
(8.85348 0.175504 -8.71749e-07)
(8.85349 0.175504 -7.25265e-07)
(8.85349 0.175503 -5.72756e-07)
(8.85349 0.175503 -3.95147e-07)
(8.85349 0.175503 -2.39859e-07)
(8.85349 0.175502 -7.75865e-08)
(8.8534 0.1755 -5.2768e-09)
(8.86045 0.0804371 -3.7101e-08)
(8.86053 0.0804384 4.68838e-08)
(8.86053 0.0804385 1.45572e-07)
(8.86053 0.0804386 1.90838e-07)
(8.86053 0.0804387 2.26168e-07)
(8.86053 0.0804388 2.34899e-07)
(8.86053 0.080439 2.26636e-07)
(8.86053 0.0804392 1.96648e-07)
(8.86053 0.0804394 1.52309e-07)
(8.86053 0.0804395 9.56259e-08)
(8.86053 0.0804397 3.36302e-08)
(8.86053 0.0804399 -2.89828e-08)
(8.86053 0.08044 -8.39858e-08)
(8.86053 0.0804401 -1.28527e-07)
(8.86052 0.0804402 -1.52274e-07)
(8.86052 0.0804402 -1.59649e-07)
(8.86052 0.0804402 -1.39125e-07)
(8.86052 0.0804402 -1.08332e-07)
(8.86052 0.0804401 -3.66684e-08)
(8.86044 0.0804388 2.24294e-08)
(8.80869 0.0713123 -9.83102e-08)
(8.80878 0.0713133 -2.62597e-07)
(8.80878 0.0713132 -3.92529e-07)
(8.80878 0.0713129 -5.31787e-07)
(8.80878 0.0713126 -6.36344e-07)
(8.80878 0.0713123 -7.28671e-07)
(8.80878 0.0713119 -7.93193e-07)
(8.80878 0.0713115 -8.38982e-07)
(8.80878 0.0713111 -8.61358e-07)
(8.80878 0.0713107 -8.64473e-07)
(8.80878 0.0713102 -8.47379e-07)
(8.80878 0.0713098 -8.12866e-07)
(8.80878 0.0713094 -7.58082e-07)
(8.80878 0.0713091 -6.90051e-07)
(8.80878 0.0713087 -6.00758e-07)
(8.80878 0.0713083 -5.08634e-07)
(8.80878 0.071308 -3.93393e-07)
(8.80878 0.0713077 -2.95717e-07)
(8.80878 0.0713075 -1.61307e-07)
(8.8087 0.0713062 -4.66124e-08)
(8.81621 0.00169518 -8.66844e-08)
(8.81629 0.00169512 -1.40749e-07)
(8.81629 0.00169498 -1.87628e-07)
(8.81629 0.0016948 -2.58439e-07)
(8.81629 0.00169456 -3.19688e-07)
(8.81629 0.00169427 -3.81659e-07)
(8.81629 0.00169394 -4.38323e-07)
(8.81629 0.00169359 -4.94927e-07)
(8.81629 0.00169321 -5.50114e-07)
(8.81629 0.00169282 -6.05377e-07)
(8.81629 0.00169241 -6.57882e-07)
(8.81629 0.00169201 -7.06483e-07)
(8.81629 0.0016916 -7.42488e-07)
(8.81629 0.00169121 -7.6508e-07)
(8.81629 0.00169083 -7.58604e-07)
(8.81629 0.00169048 -7.31246e-07)
(8.81629 0.00169016 -6.55497e-07)
(8.81629 0.00168989 -5.56194e-07)
(8.81629 0.00168968 -3.64369e-07)
(8.81621 0.00168959 -9.58799e-08)
(8.81278 -0.0141328 -1.62186e-07)
(8.81287 -0.0141334 -4.28021e-07)
(8.81287 -0.0141341 -6.61373e-07)
(8.81287 -0.014135 -8.92363e-07)
(8.81287 -0.0141362 -1.08469e-06)
(8.81287 -0.0141376 -1.24718e-06)
(8.81287 -0.0141391 -1.371e-06)
(8.81287 -0.0141408 -1.4618e-06)
(8.81287 -0.0141425 -1.519e-06)
(8.81287 -0.0141442 -1.54597e-06)
(8.81287 -0.0141458 -1.54248e-06)
(8.81287 -0.0141474 -1.51091e-06)
(8.81287 -0.0141488 -1.44595e-06)
(8.81287 -0.0141501 -1.35442e-06)
(8.81287 -0.0141513 -1.22642e-06)
(8.81287 -0.0141522 -1.08299e-06)
(8.81287 -0.014153 -8.98792e-07)
(8.81287 -0.0141536 -7.12637e-07)
(8.81287 -0.014154 -4.30658e-07)
(8.81278 -0.0141539 -1.17677e-07)
(8.82362 -0.0762769 -3.25046e-07)
(8.82371 -0.0762782 -9.44175e-07)
(8.82371 -0.0762782 -1.50453e-06)
(8.82371 -0.0762782 -2.02724e-06)
(8.82371 -0.0762781 -2.46744e-06)
(8.82371 -0.0762781 -2.8292e-06)
(8.82371 -0.0762781 -3.10004e-06)
(8.82371 -0.0762781 -3.28507e-06)
(8.82371 -0.0762782 -3.38526e-06)
(8.82371 -0.0762782 -3.40704e-06)
(8.82371 -0.0762783 -3.35477e-06)
(8.82372 -0.0762785 -3.23564e-06)
(8.82372 -0.0762786 -3.05059e-06)
(8.82372 -0.0762788 -2.81091e-06)
(8.82372 -0.076279 -2.51272e-06)
(8.82372 -0.0762792 -2.18259e-06)
(8.82372 -0.0762794 -1.7922e-06)
(8.82372 -0.0762795 -1.38476e-06)
(8.82372 -0.0762796 -8.4059e-07)
(8.82363 -0.0762784 -2.56656e-07)
(8.86687 -0.0930964 -1.90737e-07)
(8.86695 -0.0930982 -4.26688e-07)
(8.86695 -0.0930986 -6.42103e-07)
(8.86695 -0.0930991 -8.66958e-07)
(8.86695 -0.0930997 -1.06773e-06)
(8.86695 -0.0931004 -1.24699e-06)
(8.86695 -0.0931013 -1.39916e-06)
(8.86695 -0.0931022 -1.52753e-06)
(8.86695 -0.0931031 -1.63063e-06)
(8.86695 -0.093104 -1.70944e-06)
(8.86695 -0.093105 -1.75936e-06)
(8.86695 -0.0931058 -1.77885e-06)
(8.86695 -0.0931066 -1.75716e-06)
(8.86695 -0.0931074 -1.69545e-06)
(8.86695 -0.093108 -1.57712e-06)
(8.86695 -0.0931084 -1.42278e-06)
(8.86695 -0.0931088 -1.20378e-06)
(8.86695 -0.093109 -9.57154e-07)
(8.86695 -0.0931092 -5.77539e-07)
(8.86686 -0.0931075 -1.34826e-07)
(8.88022 -0.170573 -4.56654e-07)
(8.8803 -0.170576 -1.3902e-06)
(8.8803 -0.170576 -2.21892e-06)
(8.8803 -0.170576 -2.98749e-06)
(8.88031 -0.170577 -3.63331e-06)
(8.88031 -0.170577 -4.16676e-06)
(8.88031 -0.170577 -4.56618e-06)
(8.88031 -0.170577 -4.83493e-06)
(8.88031 -0.170577 -4.9716e-06)
(8.88031 -0.170578 -4.9834e-06)
(8.88031 -0.170578 -4.87607e-06)
(8.88032 -0.170578 -4.6592e-06)
(8.88032 -0.170578 -4.33939e-06)
(8.88032 -0.170579 -3.93355e-06)
(8.88032 -0.170579 -3.44431e-06)
(8.88032 -0.170579 -2.91343e-06)
(8.88032 -0.170579 -2.31268e-06)
(8.88032 -0.170579 -1.71811e-06)
(8.88032 -0.17058 -9.76846e-07)
(8.88024 -0.170577 -2.89891e-07)
(8.97808 -0.18301 -2.53234e-07)
(8.97817 -0.183013 -5.18615e-07)
(8.97817 -0.183013 -7.63657e-07)
(8.97817 -0.183014 -1.0376e-06)
(8.97817 -0.183014 -1.29576e-06)
(8.97817 -0.183015 -1.53278e-06)
(8.97817 -0.183015 -1.74173e-06)
(8.97817 -0.183016 -1.92468e-06)
(8.97817 -0.183016 -2.07566e-06)
(8.97817 -0.183017 -2.19367e-06)
(8.97816 -0.183018 -2.26874e-06)
(8.97816 -0.183018 -2.2977e-06)
(8.97816 -0.183019 -2.26484e-06)
(8.97816 -0.183019 -2.17051e-06)
(8.97816 -0.183019 -1.99693e-06)
(8.97816 -0.18302 -1.76912e-06)
(8.97816 -0.18302 -1.4662e-06)
(8.97816 -0.18302 -1.1194e-06)
(8.97816 -0.18302 -6.4049e-07)
(8.97808 -0.183017 -1.25137e-07)
(8.98814 -0.303205 -5.42359e-07)
(8.98823 -0.30321 -1.67826e-06)
(8.98823 -0.303209 -2.68406e-06)
(8.98823 -0.303209 -3.62491e-06)
(8.98824 -0.303209 -4.40795e-06)
(8.98824 -0.303209 -5.06697e-06)
(8.98824 -0.303209 -5.55859e-06)
(8.98824 -0.30321 -5.88792e-06)
(8.98824 -0.30321 -6.04787e-06)
(8.98824 -0.30321 -6.04548e-06)
(8.98825 -0.30321 -5.88606e-06)
(8.98825 -0.30321 -5.58282e-06)
(8.98825 -0.30321 -5.14669e-06)
(8.98825 -0.303211 -4.60221e-06)
(8.98825 -0.303211 -3.96254e-06)
(8.98825 -0.303211 -3.28583e-06)
(8.98826 -0.303211 -2.54048e-06)
(8.98826 -0.303211 -1.85234e-06)
(8.98826 -0.303212 -1.04348e-06)
(8.98817 -0.303207 -3.2221e-07)
(9.15744 -0.308418 -2.91304e-07)
(9.15753 -0.308423 -4.96597e-07)
(9.15753 -0.308423 -7.05601e-07)
(9.15753 -0.308423 -1.01019e-06)
(9.15753 -0.308423 -1.311e-06)
(9.15753 -0.308424 -1.60186e-06)
(9.15753 -0.308424 -1.8663e-06)
(9.15753 -0.308424 -2.11461e-06)
(9.15753 -0.308425 -2.32918e-06)
(9.15752 -0.308425 -2.50968e-06)
(9.15752 -0.308425 -2.63829e-06)
(9.15752 -0.308426 -2.70983e-06)
(9.15752 -0.308426 -2.70268e-06)
(9.15752 -0.308426 -2.61863e-06)
(9.15752 -0.308427 -2.43624e-06)
(9.15752 -0.308427 -2.18592e-06)
(9.15752 -0.308427 -1.85786e-06)
(9.15752 -0.308427 -1.49321e-06)
(9.15752 -0.308427 -9.41487e-07)
(9.15743 -0.308422 -2.21539e-07)
(9.15316 -0.524919 -5.7849e-07)
(9.15325 -0.524927 -1.79118e-06)
(9.15325 -0.524927 -2.8658e-06)
(9.15325 -0.524927 -3.93894e-06)
(9.15325 -0.524927 -4.85726e-06)
(9.15325 -0.524927 -5.61935e-06)
(9.15326 -0.524928 -6.18957e-06)
(9.15326 -0.524928 -6.57674e-06)
(9.15326 -0.524929 -6.76695e-06)
(9.15326 -0.524929 -6.76939e-06)
(9.15327 -0.52493 -6.58659e-06)
(9.15327 -0.52493 -6.2364e-06)
(9.15327 -0.524931 -5.7327e-06)
(9.15327 -0.524931 -5.11244e-06)
(9.15327 -0.524932 -4.39253e-06)
(9.15327 -0.524932 -3.64557e-06)
(9.15327 -0.524933 -2.86778e-06)
(9.15328 -0.524933 -2.16862e-06)
(9.15328 -0.524933 -1.23723e-06)
(9.15319 -0.524926 -3.77609e-07)
(9.41797 -0.519596 -4.54384e-07)
(9.41806 -0.519603 -6.81942e-07)
(9.41806 -0.519603 -9.79694e-07)
(9.41806 -0.519603 -1.46783e-06)
(9.41806 -0.519602 -1.83303e-06)
(9.41806 -0.519602 -2.25136e-06)
(9.41806 -0.519602 -2.59834e-06)
(9.41806 -0.519602 -2.93057e-06)
(9.41806 -0.519601 -3.2007e-06)
(9.41806 -0.519601 -3.41924e-06)
(9.41806 -0.519601 -3.56039e-06)
(9.41806 -0.5196 -3.62457e-06)
(9.41806 -0.5196 -3.58608e-06)
(9.41806 -0.5196 -3.45961e-06)
(9.41806 -0.5196 -3.2016e-06)
(9.41806 -0.519599 -2.88063e-06)
(9.41806 -0.519599 -2.38768e-06)
(9.41806 -0.519599 -1.92997e-06)
(9.41806 -0.519599 -1.18845e-06)
(9.41797 -0.519592 -2.1499e-07)
(9.37834 -0.944881 -5.63386e-07)
(9.37843 -0.944892 -1.57149e-06)
(9.37843 -0.944892 -2.58801e-06)
(9.37843 -0.944893 -3.66403e-06)
(9.37844 -0.944893 -4.47819e-06)
(9.37844 -0.944894 -5.21889e-06)
(9.37844 -0.944895 -5.75498e-06)
(9.37844 -0.944896 -6.14166e-06)
(9.37844 -0.944897 -6.33738e-06)
(9.37844 -0.944898 -6.36301e-06)
(9.37845 -0.944899 -6.21022e-06)
(9.37845 -0.9449 -5.90288e-06)
(9.37845 -0.944901 -5.44425e-06)
(9.37845 -0.944902 -4.88444e-06)
(9.37845 -0.944902 -4.20994e-06)
(9.37845 -0.944902 -3.52912e-06)
(9.37845 -0.944903 -2.72461e-06)
(9.37845 -0.944903 -2.08697e-06)
(9.37845 -0.944903 -1.19404e-06)
(9.37837 -0.944892 -2.97322e-07)
(9.75271 -0.924926 7.48775e-07)
(9.75279 -0.924935 -1.10666e-06)
(9.75279 -0.924934 -1.56054e-06)
(9.75279 -0.924933 -2.68276e-06)
(9.75279 -0.924933 -3.26441e-06)
(9.75279 -0.924932 -3.92181e-06)
(9.75279 -0.924931 -4.38856e-06)
(9.75279 -0.92493 -4.78608e-06)
(9.75279 -0.924929 -5.04366e-06)
(9.75279 -0.924929 -5.18992e-06)
(9.7528 -0.924928 -5.19935e-06)
(9.7528 -0.924927 -5.08881e-06)
(9.7528 -0.924927 -4.84175e-06)
(9.7528 -0.924927 -4.50238e-06)
(9.7528 -0.924927 -4.01938e-06)
(9.7528 -0.924927 -3.54502e-06)
(9.7528 -0.924927 -2.82733e-06)
(9.7528 -0.924927 -2.5385e-06)
(9.7528 -0.924928 -1.42909e-06)
(9.75272 -0.924919 -1.60363e-06)
(8.77331 0.696733 5.13186e-07)
(8.77339 0.69674 -9.49386e-08)
(8.77339 0.696739 3.90842e-08)
(8.77339 0.696738 -1.60872e-07)
(8.77339 0.696737 -1.31972e-07)
(8.77338 0.696736 -2.32482e-07)
(8.77338 0.696735 -2.81112e-07)
(8.77338 0.696733 -3.76141e-07)
(8.77338 0.696732 -4.5506e-07)
(8.77338 0.69673 -5.42484e-07)
(8.77338 0.696729 -6.13157e-07)
(8.77338 0.696728 -6.73196e-07)
(8.77338 0.696727 -7.05215e-07)
(8.77338 0.696726 -7.23904e-07)
(8.77338 0.696725 -6.92723e-07)
(8.77338 0.696725 -6.88848e-07)
(8.77338 0.696724 -5.72573e-07)
(8.77338 0.696724 -6.40573e-07)
(8.77338 0.696724 -3.60376e-07)
(8.7733 0.696717 -7.4687e-07)
(8.81342 0.708637 -3.48894e-07)
(8.8135 0.708645 -8.82668e-07)
(8.8135 0.708645 -1.32537e-06)
(8.8135 0.708646 -1.82821e-06)
(8.8135 0.708647 -2.16241e-06)
(8.8135 0.708648 -2.49014e-06)
(8.8135 0.708649 -2.69743e-06)
(8.8135 0.70865 -2.8471e-06)
(8.8135 0.708652 -2.89835e-06)
(8.81349 0.708653 -2.8776e-06)
(8.81349 0.708655 -2.77464e-06)
(8.81349 0.708656 -2.60821e-06)
(8.81349 0.708657 -2.37741e-06)
(8.81349 0.708658 -2.11013e-06)
(8.81349 0.708659 -1.79368e-06)
(8.81349 0.70866 -1.48929e-06)
(8.81349 0.708661 -1.11875e-06)
(8.81349 0.708661 -8.3173e-07)
(8.81349 0.708662 -4.5014e-07)
(8.8134 0.708655 -1.41828e-07)
(8.84642 0.45747 1.01386e-07)
(8.8465 0.457476 5.50453e-07)
(8.8465 0.457476 1.01991e-06)
(8.8465 0.457476 1.33103e-06)
(8.8465 0.457476 1.6678e-06)
(8.8465 0.457476 1.84682e-06)
(8.8465 0.457476 1.97286e-06)
(8.8465 0.457476 1.9937e-06)
(8.8465 0.457476 1.94924e-06)
(8.8465 0.457477 1.83693e-06)
(8.8465 0.457477 1.68274e-06)
(8.8465 0.457477 1.49391e-06)
(8.8465 0.457477 1.29123e-06)
(8.8465 0.457477 1.08418e-06)
(8.8465 0.457477 8.97097e-07)
(8.8465 0.457477 7.00373e-07)
(8.8465 0.457478 5.73739e-07)
(8.8465 0.457478 3.7934e-07)
(8.8465 0.457478 2.58076e-07)
(8.84642 0.457473 1.04474e-07)
(8.78009 0.455078 -2.96403e-07)
(8.78017 0.455083 -7.99929e-07)
(8.78017 0.455083 -1.20722e-06)
(8.78017 0.455083 -1.63068e-06)
(8.78017 0.455083 -1.96814e-06)
(8.78017 0.455083 -2.25459e-06)
(8.78017 0.455083 -2.44821e-06)
(8.78017 0.455083 -2.57616e-06)
(8.78017 0.455083 -2.61796e-06)
(8.78017 0.455083 -2.58708e-06)
(8.78017 0.455083 -2.48293e-06)
(8.78017 0.455083 -2.31582e-06)
(8.78017 0.455083 -2.0925e-06)
(8.78017 0.455083 -1.8352e-06)
(8.78017 0.455083 -1.53831e-06)
(8.78017 0.455083 -1.23978e-06)
(8.78017 0.455083 -9.15191e-07)
(8.78017 0.455083 -6.1771e-07)
(8.78017 0.455084 -2.90679e-07)
(8.78009 0.455078 -8.7275e-08)
(8.79791 0.270136 1.21611e-07)
(8.79799 0.27014 5.36658e-07)
(8.79799 0.27014 9.76995e-07)
(8.79799 0.270141 1.31318e-06)
(8.79799 0.270141 1.60227e-06)
(8.79799 0.270142 1.80318e-06)
(8.79799 0.270142 1.93859e-06)
(8.79799 0.270143 1.99017e-06)
(8.79799 0.270144 1.97829e-06)
(8.79799 0.270145 1.90537e-06)
(8.79799 0.270145 1.78952e-06)
(8.79799 0.270146 1.64028e-06)
(8.79799 0.270147 1.47322e-06)
(8.79799 0.270147 1.29556e-06)
(8.79799 0.270148 1.12442e-06)
(8.79799 0.270148 9.54017e-07)
(8.79799 0.270149 7.95311e-07)
(8.79799 0.270149 6.20276e-07)
(8.79799 0.270149 4.49334e-07)
(8.79791 0.270146 1.75712e-07)
(8.7354 0.261746 -1.53302e-07)
(8.73549 0.261749 -3.98535e-07)
(8.73549 0.261749 -6.12005e-07)
(8.73549 0.261748 -8.15135e-07)
(8.73549 0.261748 -9.56314e-07)
(8.73549 0.261747 -1.08959e-06)
(8.73549 0.261746 -1.17377e-06)
(8.73549 0.261745 -1.22977e-06)
(8.73549 0.261745 -1.24156e-06)
(8.73549 0.261744 -1.21884e-06)
(8.73549 0.261743 -1.15757e-06)
(8.73549 0.261742 -1.06662e-06)
(8.73549 0.261742 -9.44406e-07)
(8.73548 0.261741 -8.06425e-07)
(8.73548 0.261741 -6.40876e-07)
(8.73548 0.26174 -4.808e-07)
(8.73548 0.26174 -2.87913e-07)
(8.73548 0.261739 -1.44157e-07)
(8.73548 0.261739 -2.61598e-08)
(8.7354 0.261736 6.88317e-09)
(8.74337 0.121723 -5.75483e-09)
(8.74346 0.121725 1.519e-07)
(8.74346 0.121725 3.16096e-07)
(8.74346 0.121725 4.3563e-07)
(8.74346 0.121725 5.37667e-07)
(8.74346 0.121725 6.03587e-07)
(8.74346 0.121725 6.43752e-07)
(8.74346 0.121726 6.49223e-07)
(8.74346 0.121726 6.29932e-07)
(8.74346 0.121726 5.86494e-07)
(8.74346 0.121726 5.28265e-07)
(8.74346 0.121726 4.58388e-07)
(8.74346 0.121727 3.8873e-07)
(8.74346 0.121727 3.19398e-07)
(8.74346 0.121727 2.66436e-07)
(8.74346 0.121727 2.19423e-07)
(8.74346 0.121727 1.95167e-07)
(8.74346 0.121727 1.64635e-07)
(8.74346 0.121727 1.48068e-07)
(8.74337 0.121725 9.07915e-08)
(8.7136 0.107529 -1.03302e-07)
(8.71368 0.10753 -2.92642e-07)
(8.71368 0.10753 -4.51491e-07)
(8.71368 0.10753 -5.97664e-07)
(8.71368 0.107529 -6.95621e-07)
(8.71368 0.107528 -7.83153e-07)
(8.71368 0.107528 -8.33826e-07)
(8.71368 0.107527 -8.64181e-07)
(8.71368 0.107526 -8.66032e-07)
(8.71368 0.107526 -8.47219e-07)
(8.71368 0.107525 -8.05297e-07)
(8.71368 0.107524 -7.47271e-07)
(8.71368 0.107523 -6.67789e-07)
(8.71368 0.107523 -5.80648e-07)
(8.71368 0.107522 -4.69996e-07)
(8.71368 0.107522 -3.68035e-07)
(8.71368 0.107521 -2.36162e-07)
(8.71368 0.107521 -1.45804e-07)
(8.71368 0.10752 -4.26201e-08)
(8.71359 0.107519 1.47105e-09)
(8.71883 -0.00309177 -1.11094e-07)
(8.71891 -0.00309198 -2.01393e-07)
(8.71891 -0.00309223 -2.87207e-07)
(8.71891 -0.00309257 -3.7349e-07)
(8.71891 -0.00309302 -4.40172e-07)
(8.71891 -0.00309355 -5.02288e-07)
(8.71891 -0.00309415 -5.50153e-07)
(8.71891 -0.0030948 -5.94557e-07)
(8.71891 -0.00309549 -6.32953e-07)
(8.71891 -0.0030962 -6.69663e-07)
(8.71891 -0.00309692 -7.0148e-07)
(8.71891 -0.00309763 -7.30631e-07)
(8.71891 -0.00309831 -7.45716e-07)
(8.71891 -0.00309896 -7.50599e-07)
(8.71891 -0.00309955 -7.22214e-07)
(8.71891 -0.00310008 -6.79276e-07)
(8.71891 -0.00310054 -5.79441e-07)
(8.71891 -0.00310091 -4.74995e-07)
(8.71891 -0.00310119 -2.83228e-07)
(8.71883 -0.00310119 -4.62612e-08)
(8.72127 -0.0266371 -2.25803e-07)
(8.72136 -0.0266379 -6.07752e-07)
(8.72136 -0.0266386 -9.5389e-07)
(8.72136 -0.0266396 -1.27159e-06)
(8.72136 -0.0266409 -1.53115e-06)
(8.72136 -0.0266424 -1.74705e-06)
(8.72136 -0.026644 -1.90313e-06)
(8.72136 -0.0266458 -2.01008e-06)
(8.72136 -0.0266477 -2.06423e-06)
(8.72136 -0.0266495 -2.07171e-06)
(8.72136 -0.0266514 -2.0309e-06)
(8.72136 -0.0266531 -1.94873e-06)
(8.72136 -0.0266547 -1.8186e-06)
(8.72136 -0.0266562 -1.65565e-06)
(8.72136 -0.0266575 -1.44544e-06)
(8.72136 -0.0266586 -1.22618e-06)
(8.72136 -0.0266595 -9.57768e-07)
(8.72136 -0.0266602 -7.08495e-07)
(8.72136 -0.0266606 -3.72405e-07)
(8.72127 -0.0266603 -6.76181e-08)
(8.72945 -0.128432 -3.61541e-07)
(8.72953 -0.128434 -1.06312e-06)
(8.72953 -0.128434 -1.70781e-06)
(8.72953 -0.128434 -2.29247e-06)
(8.72953 -0.128434 -2.77769e-06)
(8.72953 -0.128434 -3.17859e-06)
(8.72953 -0.128435 -3.47404e-06)
(8.72953 -0.128435 -3.67524e-06)
(8.72953 -0.128435 -3.78094e-06)
(8.72953 -0.128435 -3.79936e-06)
(8.72953 -0.128435 -3.73427e-06)
(8.72953 -0.128435 -3.59541e-06)
(8.72953 -0.128436 -3.3813e-06)
(8.72953 -0.128436 -3.10761e-06)
(8.72953 -0.128436 -2.76135e-06)
(8.72953 -0.128436 -2.38108e-06)
(8.72953 -0.128436 -1.9165e-06)
(8.72953 -0.128437 -1.44991e-06)
(8.72953 -0.128437 -8.46625e-07)
(8.72944 -0.128435 -2.39684e-07)
(8.76459 -0.152639 -2.83409e-07)
(8.76468 -0.152641 -6.73597e-07)
(8.76468 -0.152642 -1.03586e-06)
(8.76468 -0.152642 -1.37525e-06)
(8.76468 -0.152643 -1.66663e-06)
(8.76468 -0.152644 -1.91294e-06)
(8.76468 -0.152646 -2.10491e-06)
(8.76468 -0.152647 -2.24903e-06)
(8.76468 -0.152648 -2.34272e-06)
(8.76468 -0.152649 -2.38985e-06)
(8.76468 -0.152651 -2.38565e-06)
(8.76468 -0.152652 -2.33336e-06)
(8.76468 -0.152653 -2.2209e-06)
(8.76468 -0.152654 -2.06005e-06)
(8.76468 -0.152655 -1.82976e-06)
(8.76468 -0.152656 -1.5685e-06)
(8.76468 -0.152656 -1.23787e-06)
(8.76468 -0.152656 -9.09428e-07)
(8.76468 -0.152657 -4.79814e-07)
(8.7646 -0.152655 -6.32483e-08)
(8.77285 -0.275419 -5.39348e-07)
(8.77294 -0.275422 -1.66285e-06)
(8.77294 -0.275422 -2.68928e-06)
(8.77294 -0.275422 -3.61775e-06)
(8.77294 -0.275422 -4.38721e-06)
(8.77294 -0.275422 -5.03076e-06)
(8.77294 -0.275422 -5.50939e-06)
(8.77294 -0.275423 -5.83266e-06)
(8.77294 -0.275423 -5.99467e-06)
(8.77294 -0.275423 -6.00536e-06)
(8.77294 -0.275423 -5.87076e-06)
(8.77294 -0.275423 -5.60432e-06)
(8.77293 -0.275423 -5.21257e-06)
(8.77293 -0.275423 -4.71833e-06)
(8.77293 -0.275423 -4.11899e-06)
(8.77293 -0.275423 -3.46694e-06)
(8.77293 -0.275424 -2.71047e-06)
(8.77293 -0.275424 -1.97825e-06)
(8.77293 -0.275424 -1.1216e-06)
(8.77285 -0.27542 -3.341e-07)
(8.84327 -0.291907 -3.18181e-07)
(8.84335 -0.291911 -6.90659e-07)
(8.84335 -0.291911 -1.02957e-06)
(8.84335 -0.291912 -1.37398e-06)
(8.84335 -0.291912 -1.688e-06)
(8.84335 -0.291913 -1.96161e-06)
(8.84335 -0.291913 -2.18792e-06)
(8.84335 -0.291914 -2.37266e-06)
(8.84335 -0.291915 -2.50729e-06)
(8.84335 -0.291916 -2.5945e-06)
(8.84335 -0.291917 -2.62288e-06)
(8.84335 -0.291917 -2.59404e-06)
(8.84335 -0.291918 -2.48859e-06)
(8.84335 -0.291918 -2.31666e-06)
(8.84335 -0.291919 -2.05593e-06)
(8.84335 -0.291919 -1.7452e-06)
(8.84335 -0.29192 -1.36072e-06)
(8.84335 -0.29192 -9.67e-07)
(8.84335 -0.29192 -4.89121e-07)
(8.84327 -0.291916 -4.70809e-08)
(8.84479 -0.463339 -6.52569e-07)
(8.84487 -0.463344 -2.02726e-06)
(8.84487 -0.463344 -3.28702e-06)
(8.84487 -0.463344 -4.42661e-06)
(8.84487 -0.463344 -5.35149e-06)
(8.84487 -0.463344 -6.15032e-06)
(8.84487 -0.463344 -6.74356e-06)
(8.84487 -0.463344 -7.14475e-06)
(8.84487 -0.463344 -7.33913e-06)
(8.84487 -0.463344 -7.33865e-06)
(8.84487 -0.463344 -7.14908e-06)
(8.84487 -0.463344 -6.78906e-06)
(8.84487 -0.463344 -6.27149e-06)
(8.84487 -0.463345 -5.62606e-06)
(8.84487 -0.463345 -4.86129e-06)
(8.84487 -0.463345 -4.04e-06)
(8.84487 -0.463345 -3.09344e-06)
(8.84487 -0.463345 -2.21706e-06)
(8.84487 -0.463345 -1.2509e-06)
(8.84479 -0.46334 -3.86843e-07)
(8.94621 -0.467536 -3.172e-07)
(8.94629 -0.467542 -6.24511e-07)
(8.94629 -0.467542 -8.77016e-07)
(8.94629 -0.467543 -1.22397e-06)
(8.94629 -0.467543 -1.5704e-06)
(8.94629 -0.467543 -1.87956e-06)
(8.94629 -0.467544 -2.14492e-06)
(8.94629 -0.467544 -2.38619e-06)
(8.94629 -0.467545 -2.57831e-06)
(8.94629 -0.467545 -2.72904e-06)
(8.94629 -0.467546 -2.81453e-06)
(8.94629 -0.467546 -2.83779e-06)
(8.94629 -0.467546 -2.76983e-06)
(8.94629 -0.467547 -2.62491e-06)
(8.94629 -0.467547 -2.37352e-06)
(8.94629 -0.467547 -2.06212e-06)
(8.94629 -0.467547 -1.68934e-06)
(8.94629 -0.467547 -1.27499e-06)
(8.94629 -0.467547 -7.07487e-07)
(8.94621 -0.467541 -1.35897e-07)
(8.93022 -0.714124 -7.25284e-07)
(8.9303 -0.714133 -2.2409e-06)
(8.9303 -0.714132 -3.54081e-06)
(8.9303 -0.714132 -4.82689e-06)
(8.9303 -0.714132 -5.94314e-06)
(8.9303 -0.714133 -6.85814e-06)
(8.9303 -0.714133 -7.53342e-06)
(8.9303 -0.714133 -7.98666e-06)
(8.9303 -0.714133 -8.1948e-06)
(8.9303 -0.714134 -8.17742e-06)
(8.9303 -0.714134 -7.93766e-06)
(8.9303 -0.714134 -7.50453e-06)
(8.9303 -0.714135 -6.89378e-06)
(8.9303 -0.714135 -6.15392e-06)
(8.9303 -0.714136 -5.29854e-06)
(8.9303 -0.714136 -4.40446e-06)
(8.9303 -0.714136 -3.45534e-06)
(8.9303 -0.714137 -2.50457e-06)
(8.9303 -0.714137 -1.36067e-06)
(8.93022 -0.714129 -4.30113e-07)
(9.02241 -0.700831 -3.24169e-07)
(9.0225 -0.700839 -6.10669e-07)
(9.0225 -0.700839 -9.71105e-07)
(9.0225 -0.700839 -1.44705e-06)
(9.0225 -0.700839 -1.76196e-06)
(9.0225 -0.700839 -2.16393e-06)
(9.0225 -0.700838 -2.48183e-06)
(9.0225 -0.700838 -2.80549e-06)
(9.0225 -0.700838 -3.06494e-06)
(9.0225 -0.700837 -3.28561e-06)
(9.0225 -0.700837 -3.42619e-06)
(9.0225 -0.700837 -3.49904e-06)
(9.0225 -0.700836 -3.45957e-06)
(9.0225 -0.700836 -3.33842e-06)
(9.0225 -0.700835 -3.06177e-06)
(9.0225 -0.700835 -2.73967e-06)
(9.0225 -0.700835 -2.21421e-06)
(9.0225 -0.700834 -1.76664e-06)
(9.0225 -0.700834 -1.1398e-06)
(9.02241 -0.700826 -3.0775e-07)
(8.97255 -1.04928 -6.46588e-07)
(8.97264 -1.04929 -2.01225e-06)
(8.97264 -1.04929 -3.32965e-06)
(8.97264 -1.04929 -4.63979e-06)
(8.97264 -1.04929 -5.62894e-06)
(8.97264 -1.04929 -6.50732e-06)
(8.97264 -1.04929 -7.11307e-06)
(8.97264 -1.0493 -7.52549e-06)
(8.97264 -1.0493 -7.68603e-06)
(8.97264 -1.0493 -7.63361e-06)
(8.97264 -1.0493 -7.35857e-06)
(8.97264 -1.0493 -6.90392e-06)
(8.97264 -1.0493 -6.27294e-06)
(8.97264 -1.0493 -5.54211e-06)
(8.97263 -1.04931 -4.6872e-06)
(8.97263 -1.04931 -3.85391e-06)
(8.97263 -1.04931 -2.89482e-06)
(8.97263 -1.04931 -2.12841e-06)
(8.97263 -1.04931 -1.14302e-06)
(8.97255 -1.0493 -3.09604e-07)
(8.89784 -1.00167 2.43037e-07)
(8.89792 -1.00168 -9.56896e-07)
(8.89791 -1.00168 -1.88469e-06)
(8.89791 -1.00167 -3.04794e-06)
(8.89791 -1.00167 -3.73804e-06)
(8.89791 -1.00167 -4.48054e-06)
(8.89791 -1.00167 -5.01617e-06)
(8.89791 -1.00167 -5.48733e-06)
(8.89791 -1.00167 -5.79834e-06)
(8.89791 -1.00167 -5.98915e-06)
(8.89791 -1.00167 -6.02137e-06)
(8.89791 -1.00167 -5.9266e-06)
(8.89791 -1.00167 -5.66807e-06)
(8.89791 -1.00167 -5.30661e-06)
(8.89791 -1.00167 -4.76514e-06)
(8.89791 -1.00167 -4.22354e-06)
(8.89791 -1.00167 -3.43275e-06)
(8.89791 -1.00167 -2.9586e-06)
(8.89792 -1.00167 -2.0839e-06)
(8.89784 -1.00166 -1.29836e-06)
(8.86678 0.728548 3.35778e-07)
(8.86686 0.728556 -5.51521e-07)
(8.86686 0.728555 -4.52977e-08)
(8.86686 0.728555 -1.74592e-07)
(8.86686 0.728554 -5.96357e-08)
(8.86686 0.728553 -1.28029e-07)
(8.86686 0.728552 -1.35072e-07)
(8.86686 0.72855 -1.98546e-07)
(8.86686 0.728549 -2.44604e-07)
(8.86686 0.728548 -3.02295e-07)
(8.86686 0.728547 -3.44845e-07)
(8.86686 0.728546 -3.83974e-07)
(8.86686 0.728545 -3.97252e-07)
(8.86686 0.728544 -4.09001e-07)
(8.86686 0.728543 -3.69065e-07)
(8.86686 0.728543 -3.77775e-07)
(8.86686 0.728542 -2.31201e-07)
(8.86686 0.728542 -3.05056e-07)
(8.86686 0.728542 2.68733e-07)
(8.86677 0.728534 -5.02629e-07)
(8.74767 0.737766 -5.82956e-07)
(8.74775 0.737773 -9.00365e-07)
(8.74775 0.737774 -1.09171e-06)
(8.74775 0.737774 -1.43634e-06)
(8.74775 0.737775 -1.65743e-06)
(8.74775 0.737776 -1.91784e-06)
(8.74775 0.737777 -2.08458e-06)
(8.74775 0.737779 -2.22366e-06)
(8.74775 0.73778 -2.28544e-06)
(8.74775 0.737781 -2.29615e-06)
(8.74775 0.737782 -2.24236e-06)
(8.74775 0.737783 -2.1407e-06)
(8.74775 0.737784 -1.98247e-06)
(8.74775 0.737785 -1.79657e-06)
(8.74775 0.737786 -1.55503e-06)
(8.74775 0.737787 -1.32762e-06)
(8.74775 0.737788 -1.00514e-06)
(8.74775 0.737788 -7.37325e-07)
(8.74775 0.737789 -2.80084e-07)
(8.74766 0.737781 1.26706e-07)
(8.78125 0.473747 -1.40595e-07)
(8.78134 0.473752 3.79585e-07)
(8.78134 0.473752 8.48996e-07)
(8.78134 0.473752 1.1544e-06)
(8.78134 0.473752 1.51178e-06)
(8.78134 0.473752 1.69529e-06)
(8.78134 0.473752 1.8402e-06)
(8.78133 0.473752 1.88639e-06)
(8.78133 0.473753 1.87619e-06)
(8.78133 0.473753 1.80219e-06)
(8.78133 0.473753 1.69577e-06)
(8.78133 0.473753 1.55066e-06)
(8.78133 0.473753 1.39227e-06)
(8.78133 0.473753 1.2278e-06)
(8.78133 0.473753 1.07823e-06)
(8.78133 0.473753 9.04128e-07)
(8.78133 0.473753 8.16951e-07)
(8.78133 0.473753 6.18877e-07)
(8.78133 0.473754 4.82645e-07)
(8.78125 0.473749 3.65263e-07)
(8.69874 0.473583 -3.35456e-07)
(8.69883 0.473588 -6.98149e-07)
(8.69883 0.473588 -9.82792e-07)
(8.69883 0.473588 -1.31184e-06)
(8.69883 0.473588 -1.58378e-06)
(8.69883 0.473588 -1.82257e-06)
(8.69883 0.473588 -1.98834e-06)
(8.69883 0.473589 -2.10774e-06)
(8.69883 0.473589 -2.15691e-06)
(8.69882 0.473589 -2.14665e-06)
(8.69882 0.473589 -2.07572e-06)
(8.69882 0.473589 -1.94851e-06)
(8.69882 0.473589 -1.77091e-06)
(8.69882 0.47359 -1.57008e-06)
(8.69882 0.47359 -1.3241e-06)
(8.69882 0.47359 -1.07382e-06)
(8.69882 0.47359 -7.85357e-07)
(8.69882 0.47359 -5.01528e-07)
(8.69882 0.47359 -1.8679e-07)
(8.69874 0.473586 1.40985e-08)
(8.71703 0.27946 5.18656e-08)
(8.71711 0.279463 5.22954e-07)
(8.71711 0.279463 9.91105e-07)
(8.71711 0.279463 1.35506e-06)
(8.71711 0.279464 1.66807e-06)
(8.71711 0.279464 1.89064e-06)
(8.71711 0.279465 2.04711e-06)
(8.71711 0.279465 2.1185e-06)
(8.71711 0.279466 2.12683e-06)
(8.71711 0.279467 2.07445e-06)
(8.71711 0.279467 1.9791e-06)
(8.71711 0.279468 1.84777e-06)
(8.71711 0.279469 1.69623e-06)
(8.71711 0.279469 1.52872e-06)
(8.71711 0.27947 1.36401e-06)
(8.71711 0.27947 1.19302e-06)
(8.71711 0.27947 1.0322e-06)
(8.71711 0.279471 8.36715e-07)
(8.71711 0.279471 6.26287e-07)
(8.71702 0.279468 3.06893e-07)
(8.66414 0.271921 -1.61496e-07)
(8.66422 0.271924 -3.4176e-07)
(8.66422 0.271924 -4.97802e-07)