/*--------------------------------*- C++ -*----------------------------------*\
| =========                 |                                                 |
| \\      /  F ield         | OpenFOAM: The Open Source CFD Toolbox           |
|  \\    /   O peration     | Version:  2212                                  |
|   \\  /    A nd           | Website:  www.openfoam.com                      |
|    \\/     M anipulation  |                                                 |
\*---------------------------------------------------------------------------*/
FoamFile
{
    version     2.0;
    format      ascii;
    arch        "LSB;label=32;scalar=64";
    class       volScalarField;
    location    "0.86";
    object      p;
}
// * * * * * * * * * * * * * * * * * * * * * * * * * * * * * * * * * * * * * //

dimensions      [1 -1 -2 0 0 0 0];

internalField   nonuniform List<scalar> 
2308
(
153.028
61.27
150.854
39.7022
76.1941
67.2951
64.7012
73.8593
80.0655
34.4773
35.8468
38.4332
40.0159
41.9771
44.0443
46.1294
48.2789
50.42
48.2162
45.89
43.845
41.7893
39.9546
38.2178
36.36
34.8132
33.2609
31.6327
65.1507
50.5026
30.2434
28.9851
27.8149
26.6995
25.6671
24.6827
23.7718
22.9084
22.1139
21.361
20.6736
20.032
19.4564
18.9194
18.421
18.5235
18.9401
19.4708
19.9783
20.5975
21.2226
21.9629
22.714
23.5681
24.4411
25.4106
26.3992
27.4827
28.5914
29.8059
31.112
32.6106
33.9593
35.447
36.8353
38.3122
39.8751
41.767
43.7808
45.9452
48.1338
17.9508
18.1259
48.4506
46.0799
43.8994
41.8312
39.9241
38.1592
36.4636
34.9019
33.2547
31.8117
30.5329
29.309
28.2131
27.1343
26.1513
25.1839
24.2888
23.4132
22.6051
21.8221
21.1041
20.4104
19.7755
19.1581
18.6059
52.6199
18.0522
52.9218
50.4879
18.7432
18.8155
19.0637
19.5696
20.0203
20.624
21.1614
21.8441
22.4847
23.2941
24.0606
25.0009
25.8971
26.9752
28.0207
29.2617
30.4713
31.8454
33.1989
34.6658
36.0854
37.6196
39.38
41.2293
43.3247
45.4951
47.908
77.7137
65.471
62.8977
64.559
51.9103
48.8711
46.093
43.804
41.6754
39.7506
37.9284
36.2598
34.6893
33.1706
31.7333
30.4755
29.2432
28.183
27.1076
26.1761
25.206
24.3726
23.4864
22.7147
21.924
21.2335
20.5245
19.9314
19.2991
18.8198
18.3833
18.2403
17.6473
17.5764
17.9521
75.2484
18.759
82.6071
86.3531
53.0055
87.8735
73.5116
55.0502
50.3706
18.2439
17.4685
17.3757
17.9542
18.8589
21.1612
20.1869
19.8103
19.6996
19.6853
19.8689
20.1752
20.6872
21.1524
21.7571
22.2969
22.9955
23.6322
24.4607
25.2808
26.3131
27.3326
28.5445
29.7334
31.0729
32.3693
33.7852
35.2624
36.8983
38.6674
40.6219
42.7094
44.9956
47.4647
57.6692
149.028
72.7869
73.0196
68.8199
64.4813
60.7421
57.2695
54.2451
51.3631
48.5798
45.8812
43.5131
41.3453
39.3431
37.5093
35.7956
34.2852
32.8729
31.546
30.3077
29.144
28.1179
27.0859
26.2117
25.2372
24.4743
23.5898
22.8767
22.0917
21.4621
20.7544
20.2696
19.6368
19.3542
19.3156
19.3333
19.4472
220.42
85.096
92.0691
40.4927
61.7317
88.1386
53.0228
57.9862
30.1734
24.7979
22.418
21.3574
20.9594
20.8395
20.826
21.0223
21.3173
21.8572
22.3521
23.0454
23.6652
24.4772
25.1976
26.1171
26.9983
28.0738
29.1466
30.3613
31.5684
32.8927
34.2991
35.8458
37.5481
39.4388
41.4909
43.7528
46.2003
50.1086
90.2027
83.5509
72.8215
67.976
63.9014
60.1413
56.5687
53.5174
50.5205
47.882
45.293
42.893
40.6729
38.6941
36.8896
35.2776
33.8129
32.4978
31.2338
30.1262
29.0128
28.1259
27.0806
26.2836
25.3197
24.6084
23.7257
23.1015
22.3379
21.8192
21.2461
20.9746
20.7648
20.7846
20.9041
21.3208
22.4208
24.9388
19.8206
18.2833
17.4697
17.3154
17.9821
19.1822
23.3875
41.5752
86.5735
122.284
269.364
92.6212
136.053
100.469
48.9571
52.8766
95.8933
97.3967
130.073
70.1823
72.0937
67.0533
62.7197
58.9122
55.2555
52.0774
49.0703
46.4727
44.0321
41.7831
39.724
37.8924
36.3069
34.8751
33.5559
32.3515
31.1858
30.1431
29.0232
28.1574
27.1364
26.4033
25.4549
24.842
24.0189
23.506
22.8417
22.5531
22.4193
22.4415
22.5775
23.0449
24.2972
27.0966
33.2708
46.5346
51.6941
30.6422
20.8179
18.4341
17.4844
17.3284
18.0998
20.0679
28.4696
51.7882
55.1045
55.5886
55.6876
46.9004
33.2064
26.8773
24.0607
22.789
22.262
22.0893
22.0631
22.266
22.5511
23.22
23.7127
24.4779
25.0254
25.8136
26.4432
27.337
28.1142
29.2158
30.2176
31.4903
32.7504
34.2897
35.8908
37.8043
39.7975
42.0853
44.5377
93.8236
51.871
56.0251
61.0774
102.487
103.899
99.9037
94.7801
84.1397
77.9133
76.5383
70.6621
65.3034
60.6343
56.6378
53.1342
49.975
47.2845
44.7308
42.6514
40.5475
38.8771
37.1762
35.7989
34.4978
33.315
32.2032
31.1557
30.171
29.1101
28.2608
27.323
26.6452
25.8069
25.2698
24.5997
24.3242
24.0407
24.091
24.322
24.9692
26.4993
29.8176
37.147
52.8062
56.6036
56.4075
55.6254
53.8974
51.6265
42.9946
23.1562
18.8682
17.5584
17.3999
18.4747
22.1648
39.5074
51.7745
53.9686
53.3779
55.1933
57.549
59.41
60.2611
60.5131
53.8701
37.0945
29.3653
25.9496
24.4071
23.7611
23.5429
23.5025
23.729
24.0037
24.6196
25.1001
25.8638
26.4655
27.3483
28.0251
28.9513
29.7505
30.8671
31.9385
33.3459
34.7842
36.5385
38.369
40.4668
42.78
47.3832
99.7247
97.8725
298.638
50.4516
95.5041
103.533
110.844
59.3886
68.9512
61.3269
54.9163
109.615
114.779
51.6503
51.1982
47.5543
28.4775
19.9695
17.7933
17.6111
19.4351
26.9971
48.0568
51.4575
51.7747
51.6384
51.5852
53.1394
54.6873
56.4748
58.5617
61.5329
64.6727
66.1531
66.6661
61.9072
41.8043
32.4813
28.3317
26.4091
25.5769
25.2631
25.1939
25.2125
25.462
26.1352
26.6099
27.4456
28.053
28.9505
29.5721
30.4878
31.2054
32.1908
33.1392
34.4812
35.7906
37.5198
39.2857
45.4412
75.6282
106.65
45.4226
87.5697
67.791
62.2119
57.589
53.8378
50.6602
47.8866
45.6679
43.5674
41.8233
40.1185
38.6166
37.1879
35.8236
34.5598
33.3547
32.3288
31.2348
30.3985
29.3928
28.686
27.8099
27.3073
26.6873
26.401
26.1905
26.2453
26.5477
27.3695
29.3154
33.4577
42.5842
62.1282
63.2012
62.7486
61.3578
58.3938
55.7199
53.7864
51.714
102.911
104.835
64.2191
58.1897
118.57
53.6755
51.9099
53.2584
54.6168
56.1503
57.8111
59.8059
62.3186
66.4088
70.6726
72.7427
73.5167
73.0765
48.1695
36.5624
31.3875
28.9185
27.7737
27.281
27.1387
27.127
27.2845
27.8712
28.3383
29.0843
29.6649
30.5282
31.2225
32.1958
32.9945
34.0219
35.0275
36.3802
38.0608
41.7582
73.1022
114.144
50.0543
50.0644
50.1519
47.6256
39.7843
22.4274
18.4222
18.1306
21.67
37.3284
48.2949
50.5858
50.327
50.2484
50.2858
50.711
79.184
132.238
125.898
116.591
97.3148
67.2712
69.1157
74.2921
41.0438
62.2955
57.913
54.5901
51.6713
49.1282
46.8229
44.8028
42.9355
41.2693
39.7877
38.3651
37.183
35.8703
34.7428
33.5247
32.6417
31.5941
30.9071
30.1182
29.5942
29.0838
28.8537
28.8576
28.9719
29.4057
30.45
32.7777
37.5439
47.9083
69.9013
69.8101
69.107
67.2304
63.448
59.8472
57.4837
55.5061
53.8663
52.3168
50.9014
81.36
48.4982
62.0088
109.336
112.853
110.272
70.0667
110.296
224.185
64.8198
57.2264
40.4476
65.1976
85.1968
49.14
199.456
51.7285
52.8737
54.2606
55.4895
56.7783
58.0959
59.551
61.1981
63.4139
66.2689
70.8816
77.5807
82.3183
84.3911
85.0353
56.0763
42.2628
35.8104
32.6042
30.9142
30.0891
29.7544
29.6555
29.6374
29.8546
30.2323
30.9506
31.4635
32.4166
33.0842
34.1367
35.0388
36.1584
37.1853
38.3412
76.3751
160.216
175.433
49.383
48.4216
48.2433
48.0942
47.37
43.8597
27.7509
19.9363
19.2993
26.778
44.5127
48.1363
48.8102
48.8276
48.8437
49.0315
49.5605
50.4751
69.5235
149.151
140.6
123.509
96.794
85.2121
69.8349
138.188
64.1224
61.0446
57.8927
54.6655
51.73
49.1768
46.8878
44.8839
43.0861
41.4347
40.0408
38.6533
37.5452
36.3848
35.4332
34.4219
33.6717
32.9599
32.4825
32.2231
32.2352
32.2989
32.5967
33.363
34.9379
38.0752
43.9416
56.0359
80.5629
79.6346
77.2129
72.0475
67.0315
63.4888
61.0436
58.8995
57.349
56.1392
54.928
53.5914
52.2028
50.6323
83.5905
44.543
162.121
102.522
108.765
116.136
51.8206
120.941
117.889
119.036
164.782
138.335
83.6582
60.9859
39.1633
73.0284
64.1002
83.3614
38.4527
37.3557
36.4166
35.3814
34.6966
33.8905
33.4251
32.9234
32.8975
32.9184
33.0413
33.4048
34.2387
35.8998
39.3134
44.5338
55.7749
79.5661
92.2731
90.9231
87.7089
80.9465
73.634
69.1802
66.5721
64.6604
63.3797
62.4701
61.5057
60.2787
58.8497
57.2341
55.6682
54.1507
52.7885
51.4034
121.563
49.2508
48.1136
47.1122
46.7418
46.734
46.6677
44.8631
39.0278
23.3699
21.8127
37.8937
46.1726
47.6595
47.6779
47.6293
47.6884
47.9409
48.5434
49.4028
50.1728
79.4699
43.4693
97.8777
99.9994
73.7317
56.9472
55.7076
60.3608
76.8631
117.525
180.204
45.3339
217.228
134.402
79.3181
93.2083
111.438
117.675
125.366
55.5077
87.7419
215.362
156.362
146.443
125.872
96.9174
86.8839
70.2675
75.5097
66.4699
64.3207
61.4816
58.3736
55.2461
52.2007
49.5559
47.2719
45.3356
43.6842
42.1702
40.9501
39.8106
38.8642
38.1985
37.4584
37.0424
36.7053
36.7264
36.8556
37.2879
38.315
39.6725
42.5032
47.3957
57.7555
79.623
86.2645
85.2018
82.658
77.2154
71.4767
67.3364
64.5219
62.4492
60.9529
59.7418
59.0357
58.1991
56.968
55.3408
53.6217
51.8548
50.3183
169.056
162.554
149.288
82.7744
129.422
48.7313
129.073
115.019
180.23
127.31
128.975
125.99
152.543
132.341
128.044
131.644
158.082
126.527
199.482
164.442
87.7568
91.8567
196.448
167.6
92.3973
40.0354
39.2962
38.6301
37.9199
37.5439
37.448
37.4961
37.7281
38.3426
39.7305
41.4719
44.5509
50.6689
58.2045
73.4706
104.822
103.944
100.689
93.7677
82.4617
75.9988
71.9529
69.1343
67.4975
66.8467
66.6647
66.2827
65.4906
63.891
61.7725
59.8676
58.0991
56.4652
54.9081
53.4818
52.077
50.7915
80.535
82.005
95.7419
106.446
111.73
112.521
48.1771
75.0617
41.0681
107.373
141.865
303.032
215.477
181.222
139.319
58.8529
101.371
51.1721
80.0067
82.2347
78.8933
198.44
187.944
109.56
48.8746
47.9117
46.8046
45.8984
45.3357
45.3047
45.2363
44.7564
42.6473
30.76
27.2395
43.6139
46.1445
46.6633
46.4725
46.4089
46.53
46.8244
47.4703
48.2561
48.9326
49.5367
64.9385
58.2115
52.43
51.9694
53.8938
64.8319
185.274
47.5629
93.4066
123.681
86.7791
52.7654
198.517
222.451
138.471
94.4
124.43
135.91
158.829
52.6839
186.693
138.275
137.163
71.6821
66.5763
66.6011
66.2425
64.7601
61.6003
58.2566
54.8201
52.0225
49.7589
47.9391
46.4452
45.262
44.2952
43.6267
43.087
43.0716
43.1104
43.3822
44.0315
45.3776
47.5475
50.9788
58.0563
63.3872
74.0549
95.6273
95.0649
92.9481
88.1559
80.3857
74.4855
70.7973
68.2105
66.3079
64.7598
63.8839
63.3927
62.8746
61.8618
60.0931
58.2159
56.2702
54.4095
52.5866
51.0495
49.5762
223.992
64.2576
104.989
123.157
263.605
167.995
206.15
61.9031
70.8147
163.391
76.6354
74.883
76.8607
78.5497
79.3822
81.6937
83.6601
89.5276
91.2806
79.4558
108.921
73.0268
56.5941
71.8677
50.3558
73.108
45.6138
45.681
45.6676
45.5665
45.5908
45.7303
46.1926
47.1461
49.005
51.1553
54.7878
62.1157
68.3056
80.8399
106.405
105.908
103.309
97.734
86.5555
79.7844
75.7996
73.1984
72.3408
72.3298
72.2945
72.1803
71.8355
70.994
69.243
66.4417
64.145
62.0703
60.278
58.5473
57.0953
55.6364
54.2978
52.8784
51.5783
50.2074
201.515
208.029
208.445
107.421
116.477
65.5022
67.8848
71.3398
75.5051
65.8306
79.4567
69.6136
55.9446
75.5971
43.035
44.341
100.761
121.342
72.7254
57.7187
311.471
323.131
198.577
150.695
59.5902
101.783
69.3777
90.3269
89.3396
198.612
150.315
144.735
57.7031
69.5238
52.1481
63.2671
72.5821
77.2451
121.757
72.9846
76.9035
84.2171
61.5501
55.1404
52.3343
50.3029
50.2615
51.2645
55.9043
71.2277
87.0299
51.7362
149.549
150.079
198.093
56.921
62.8663
72.9826
71.6551
71.0689
71.472
71.2103
70.284
67.5907
61.7813
58.6957
56.6763
55.3006
54.1567
53.4934
53.4832
53.599
53.9453
54.7915
56.5716
60.1736
63.7129
70.797
77.9486
92.3631
99.4205
99.0795
97.4327
93.9436
86.824
81.0447
77.3608
74.5605
72.1958
70.4653
69.8412
69.1134
68.5718
67.8108
66.3224
64.568
62.6875
60.8421
58.938
56.9819
55.0927
53.2902
51.7941
50.324
49.1434
48.4037
47.7956
46.9135
45.8439
44.938
44.3216
44.2227
44.2422
44.4287
43.9043
40.0625
35.614
45.3782
46.0164
45.7152
45.5201
45.4503
45.594
45.9046
46.5358
47.2542
47.8724
48.4066
49.014
97.2414
236.133
69.5418
108.883
130.366
74.7292
132.845
209.732
63.5857
59.757
75.3132
76.9397
78.3256
79.8079
77.4287
79.612
82.8164
76.526
61.8727
55.1071
53.3816
68.4302
53.6031
42.0545
113.844
60.5951
594
181.896
56.0066
67.9042
68.145
85.1199
182.18
135.279
62.9277
118.035
52.8172
63.8619
77.0764
74.6886
69.5644
69.0159
66.5451
64.4396
59.2479
228.477
67.4576
139.998
178.496
216.01
234.239
240.193
127.069
76.9862
56.759
481.361
165.452
104.548
74.8522
61.9627
54.2455
51.4652
50.231
49.3977
49.4975
50.2201
52.5943
59.2306
80.1899
51.881
207.959
50.0246
140.853
63.2475
187.754
82.3647
73.5934
73.1179
73.2274
73.5391
73.8786
74.7016
74.6244
74.2521
74.2052
73.7829
72.7011
72.7273
73.0038
73.9107
75.9228
80.0252
82.5497
87.2681
96.8883
107.434
107.719
107.458
106.496
104.097
99.144
90.8544
84.3175
79.4722
76.7998
75.697
75.7128
75.6546
75.4621
74.9466
73.6664
72.2502
70.6157
68.5901
66.538
64.7
62.8635
61.1282
59.3824
57.5286
55.8741
54.1283
52.5524
51.0903
49.8178
48.4882
47.9575
47.2546
46.7047
45.9148
44.9303
44.0781
43.3815
43.2918
43.4173
44.2355
46.4735
59.5054
52.9711
48.1225
46.0392
44.9243
44.5816
44.5004
44.6619
44.9797
45.5714
46.2076
46.7904
47.3121
47.7849
48.6481
49.8998
51.134
52.5064
53.8273
55.2714
56.6454
58.1051
59.4729
60.8984
62.2977
63.9028
65.6798
67.8123
70.1983
73.2408
75.9955
77.3314
77.8718
77.9985
78.0011
77.0451
76.5811
76.4336
78.8748
84.9978
95.1396
109.174
118.187
122.343
123.565
123.585
98.8653
86.8165
76.5392
71.4267
66.2801
63.7791
61.6257
60.5858
60.0953
59.9099
59.1683
59.5735
58.239
57.8726
56.571
67.7479
60.5135
59.2923
69.6111
59.1416
164.491
48.3969
48.5538
45.8527
97.1746
92.9885
56.0689
78.4149
477.258
326.757
216.624
115.048
109.442
137.755
157.809
166.434
217.999
269.18
350.317
52.8272
62.2085
350.736
201.903
145.119
110.184
200.555
212.968
589.183
63.4546
96.3399
45.7297
48.5455
51.766
62.7359
77.8544
75.9212
79.932
76.9599
79.4982
77.2498
77.5377
74.9423
181.745
56.81
65.493
61.1942
64.8544
65.9671
69.2176
70.8388
74.1599
76.2414
63.5534
62.132
69.8653
78.7479
90.9344
114.95
149.394
68.2668
51.4059
79.0523
316.188
52.5923
228.413
65.1228
104.863
138.053
178.032
235.625
262.206
270.657
150.165
70.0607
68.1853
61.7588
65.8867
67.4008
68.7179
71.7897
80.3917
89.894
92.4662
93.7908
96.0941
100.636
108.868
112.615
112.6
112.271
111.158
108.531
103.066
96.011
90.9301
88.4281
88.4413
88.601
88.9628
89.5792
89.5815
89.4262
88.8601
87.4604
84.4993
79.3351
75.2357
72.0092
69.5032
67.6209
66.1738
64.8803
63.7152
62.5091
61.2972
59.9514
58.5849
57.0988
55.6851
54.231
52.8916
51.5263
50.2768
49.0323
246.238
185.966
47.4435
46.931
46.3328
45.826
45.0379
44.1265
43.3059
42.5543
42.5631
42.8337
44.2897
48.1442
66.3305
69.3064
51.4267
46.252
44.4941
43.9617
43.8398
43.9392
44.2328
44.7642
45.3397
45.8871
46.3617
46.7903
47.5908
47.9508
48.5861
72.1296
61.4313
55.3097
51.7811
50.2045
49.518
49.0278
49.2016
49.8468
51.4284
55.2148
64.6255
89.9169
254.354
272.257
273.038
111.821
74.6346
72.9141
73.1383
73.6143
73.7356
73.678
73.9735
74.5961
76.5646
80.878
84.8879
91.1506
96.1677
101.239
103.268
103.274
103.323
103.32
103.317
103.364
103.303
102.711
101.063
97.7341
93.5353
90.6189
89.3665
88.5925
87.8841
87.4943
86.7904
85.3706
82.6939
79.3328
76.4465
74.1111
72.0994
70.4378
68.4624
66.4707
64.7418
62.9249
61.2201
59.5525
57.9448
56.2757
54.7033
53.1459
51.6918
50.3131
49.0155
47.9657
243.082
229.144
472.36
358.622
59.0966
81.3022
53.5891
48.8684
231.747
183.818
74.1673
205.73
77.5572
59.2393
60.6911
63.6518
65.555
68.1072
71.5665
75.2392
78.0345
68.2046
123.886
52.2452
53.4968
61.4405
75.6834
94.1037
74.1932
46.5913
52.0908
70.4004
74.001
75.8215
78.6284
76.8378
78.115
76.4619
74.9616
50.3285
80.9878
67.804
549.22
238.197
241.238
275.236
226.942
59.0448
61.297
63.4869
65.3713
70.2657
68.1569
74.0198
83.7468
90.0187
94.8556
97.3256
101.868
103.639
104.246
104.085
103.662
102.754
101.675
101.69
101.856
102.269
103.058
103.043
102.972
102.696
101.695
98.9481
93.0685
86.223
81.4707
78.3133
76.115
74.6003
73.5246
72.8494
72.099
70.6146
68.9003
67.187
65.5328
63.8031
62.1351
60.4416
58.851
57.2713
55.8001
54.351
52.9991
51.6532
50.4169
49.21
48.1517
63.556
74.9892
96.7222
118.238
165.127
230.517
279.451
294.638
286.531
55.1926
357.755
209.659
333.369
441.864
60.6549
59.8932
224.589
309.614
378.029
402.263
84.7752
58.9693
71.2423
62.2603
57.7998
53.678
51.1114
49.8745
49.3474
48.9294
49.1331
49.7492
51.078
53.9922
60.3387
64.4055
98.889
272.505
46.7838
46.4136
46.0408
45.3647
44.8568
44.0994
43.2412
42.3234
41.7863
41.8169
42.2977
44.4631
50.4983
73.1755
82.716
54.802
46.8627
44.3875
43.3714
43.1628
43.1596
43.4401
43.9107
44.4196
44.9189
45.3841
45.7461
46.5013
46.8415
47.0957
73.2039
72.5299
72.9007
73.424
73.7905
74.1164
74.5476
75.8746
79.4912
82.7708
89.5932
95.4394
99.4563
105.423
107.587
107.99
108.485
108.341
108.297
108.186
107.813
106.921
105.11
102.735
101.272
99.7251
97.8527
95.206
91.8471
88.6354
85.6565
82.5182
79.4968
76.9476
74.7759
73.1753
71.7706
70.5115
69.0613
67.5628
65.8923
64.0896
62.1727
60.1809
58.1989
56.3123
54.7082
53.2041
51.6499
50.217
49.1944
47.9836
46.642
257.363
284.761
443.472
70.3789
57.2306
48.1704
49.3135
61.1152
62.2047
47.156
45.6759
46.2345
45.9327
44.8858
45.0489
43.9585
44.4242
43.1355
43.5377
42.8979
42.8663
44.4478
43.2273
61.6856
48.2988
87.0283
110.162
44.9799
55.2294
41.5773
42.3037
42.038
41.4856
43.5034
42.7342
44.8073
44.2186
45.5302
45.3674
47.846
46.7829
46.1315
45.9309
50.4834
49.1458
53.3976
51.9376
56.4971
54.9406
59.9206
58.1557
63.5982
61.7355
67.2132
65.4555
70.5898
68.9614
74.3575
72.4279
78.6032
76.3329
83.5796
81.0698
88.0534
85.9222
92.7657
90.2248
97.9913
95.4525
102.681
100.411
106.414
104.559
109.003
108.18
109.27
109.229
108.892
109.218
106.454
108.064
97.0401
102.214
85.0688
91.1799
76.861
80.3972
75.0871
75.4048
75.5948
75.2465
76.1246
75.9645
76.4488
76.2698
77.0394
76.647
78.909
77.6606
79.156
78.3765
78.627
76.6994
44.5083
72.7149
43.051
40.3874
56.8173
49.3297
59.8321
59.3042
126.224
80.2191
267.444
195.163
322.119
57.5283
50.3088
68.9126
67.4847
70.1914
69.451
69.6108
70.1743
68.4016
68.9862
66.4706
67.6113
60.2282
64.8718
156.664
58.2557
280.403
85.0277
317.548
311.644
311.729
318.789
214.787
285.166
102.812
136.842
73.2791
78.6064
54.3269
66.1314
38.2161
44.2939
70.6843
42.3325
73.2495
76.1606
70.027
72.0314
65.3955
67.6962
63.8272
64.2295
64.6149
63.8054
67.5464
65.5368
69.4921
69.0608
77.9214
70.2698
91.5266
85.2033
99.6009
96.8667
104.924
103.756
105.914
105.537
105.814
105.912
105.75
105.685
104.631
105.54
100.845
102.733
97.5374
99.1915
94.3517
95.8606
89.0002
92.1571
82.47
85.5902
77.1177
79.7161
72.7378
74.7748
69.6719
71.0757
66.8911
68.3415
63.6787
65.3211
60.4853
62.0682
57.4391
58.9551
54.5311
55.9744
51.8121
53.1562
50.5387
317.641
299.912
368.362
64.4688
46.4612
238.567
46.2605
184.783
453.138
577.16
586.26
680.099
672.105
728.633
733.793
61.3038
64.8313
326.037
272.438
303.97
54.6058
58.4192
54.8445
88.1435
79.4198
83.3555
91.5224
82.6912
86.8708
96.5782
87.0856
91.8582
102.467
91.5737
96.7354
56.6135
62.6686
355.543
74.9663
294.21
67.3442
141.945
57.2643
81.7082
92.3983
52.2622
61.711
50.5011
58.9588
65.1073
61.3258
61.1042
184.294
63.4674
116.909
46.0785
78.2874
70.9974
65.5165
163.245
61.3478
179.251
62.525
61.4503
72.4555
93.5307
374.79
109.972
165.752
74.736
58.8721
187.097
184.271
204.14
86.4736
239.54
48.0874
39.3138
41.079
64.3504
54.8413
198.045
74.0406
121.716
71.6563
37.2203
33.3031
61.8351
)
;

boundaryField
{
    wall
    {
        type            zeroGradient;
    }
    outlet
    {
        type            waveTransmissive;
        gamma           1.3;
        fieldInf        0.0001;
        lInf            1;
        value           nonuniform List<scalar> 
33
(
45.0152
45.5681
45.2698
44.2309
44.3934
43.313
43.7726
42.4992
42.8999
42.2632
42.2322
43.7862
42.5863
60.6906
47.5742
85.8454
108.242
44.2609
54.3421
40.9449
41.6535
41.3967
40.8528
42.8451
42.0752
44.1455
43.5571
44.8691
44.7065
45.52
45.2497
45.7948
45.7176
)
;
    }
    inlet
    {
        type            fixedValue;
        value           uniform 612;
    }
    frontAndBackPlanes
    {
        type            empty;
    }
}


// ************************************************************************* //
