/*--------------------------------*- C++ -*----------------------------------*\
| =========                 |                                                 |
| \\      /  F ield         | OpenFOAM: The Open Source CFD Toolbox           |
|  \\    /   O peration     | Version:  2212                                  |
|   \\  /    A nd           | Website:  www.openfoam.com                      |
|    \\/     M anipulation  |                                                 |
\*---------------------------------------------------------------------------*/
FoamFile
{
    version     2.0;
    format      ascii;
    arch        "LSB;label=32;scalar=64";
    class       volVectorField;
    location    "0.271";
    object      U;
}
// * * * * * * * * * * * * * * * * * * * * * * * * * * * * * * * * * * * * * //

dimensions      [0 1 -1 0 0 0 0];

internalField   nonuniform List<vector> 
24240
(
(9.07215 0.758312 9.41427e-07)
(9.07233 0.758328 -9.01375e-07)
(9.07233 0.758327 -7.88959e-07)
(9.07233 0.758326 -1.5057e-06)
(9.07233 0.758325 -1.65276e-06)
(9.07234 0.758324 -2.0006e-06)
(9.07234 0.758322 -2.15175e-06)
(9.07234 0.758321 -2.32387e-06)
(9.07235 0.758319 -2.39185e-06)
(9.07235 0.758318 -2.42638e-06)
(9.07235 0.758316 -2.38154e-06)
(9.07235 0.758315 -2.29858e-06)
(9.07236 0.758314 -2.14039e-06)
(9.07236 0.758312 -1.97405e-06)
(9.07236 0.758312 -1.6956e-06)
(9.07236 0.758311 -1.51873e-06)
(9.07236 0.75831 -1.06291e-06)
(9.07237 0.75831 -1.10312e-06)
(9.07237 0.75831 -2.92135e-07)
(9.07219 0.758294 -1.40021e-06)
(9.05276 0.762956 -8.25085e-07)
(9.05295 0.762973 -1.62618e-06)
(9.05295 0.762974 -2.3236e-06)
(9.05295 0.762976 -3.2163e-06)
(9.05295 0.762979 -3.79667e-06)
(9.05295 0.762981 -4.37245e-06)
(9.05295 0.762985 -4.71955e-06)
(9.05295 0.762988 -4.96925e-06)
(9.05295 0.762991 -5.04147e-06)
(9.05295 0.762995 -4.99712e-06)
(9.05295 0.762998 -4.81301e-06)
(9.05295 0.763001 -4.53226e-06)
(9.05295 0.763004 -4.14103e-06)
(9.05296 0.763007 -3.70428e-06)
(9.05296 0.763009 -3.16535e-06)
(9.05296 0.763011 -2.66718e-06)
(9.05296 0.763013 -2.00486e-06)
(9.05296 0.763014 -1.51741e-06)
(9.05296 0.763015 -7.1853e-07)
(9.05278 0.762999 1.29616e-08)
(9.08524 0.509466 -8.90411e-08)
(9.08543 0.509478 7.54379e-07)
(9.08543 0.509478 1.61853e-06)
(9.08543 0.509479 2.11248e-06)
(9.08543 0.509479 2.70804e-06)
(9.08543 0.509479 3.02547e-06)
(9.08543 0.50948 3.29459e-06)
(9.08543 0.50948 3.39185e-06)
(9.08543 0.509481 3.4027e-06)
(9.08543 0.509481 3.29818e-06)
(9.08543 0.509481 3.1266e-06)
(9.08543 0.509482 2.88017e-06)
(9.08543 0.509482 2.60452e-06)
(9.08542 0.509483 2.28502e-06)
(9.08542 0.509483 2.00028e-06)
(9.08542 0.509483 1.64203e-06)
(9.08542 0.509483 1.44395e-06)
(9.08542 0.509484 1.03296e-06)
(9.08542 0.509484 8.79622e-07)
(9.08524 0.509472 6.04305e-07)
(9.02127 0.504662 -6.33667e-07)
(9.02146 0.504674 -1.41034e-06)
(9.02146 0.504674 -1.9886e-06)
(9.02146 0.504674 -2.69051e-06)
(9.02146 0.504675 -3.25388e-06)
(9.02146 0.504675 -3.72939e-06)
(9.02146 0.504675 -4.04097e-06)
(9.02146 0.504675 -4.24699e-06)
(9.02146 0.504676 -4.3084e-06)
(9.02146 0.504676 -4.25978e-06)
(9.02146 0.504676 -4.09393e-06)
(9.02146 0.504677 -3.83689e-06)
(9.02145 0.504677 -3.48749e-06)
(9.02145 0.504677 -3.09256e-06)
(9.02145 0.504678 -2.62572e-06)
(9.02145 0.504678 -2.16902e-06)
(9.02145 0.504678 -1.65835e-06)
(9.02145 0.504678 -1.19289e-06)
(9.02145 0.504679 -5.00059e-07)
(9.02127 0.504667 -8.43677e-09)
(9.04522 0.304387 1.02179e-07)
(9.04541 0.304395 9.29437e-07)
(9.04541 0.304395 1.85723e-06)
(9.0454 0.304396 2.49912e-06)
(9.0454 0.304397 3.0656e-06)
(9.0454 0.304398 3.48063e-06)
(9.0454 0.304399 3.79138e-06)
(9.0454 0.3044 3.94979e-06)
(9.0454 0.304401 3.99752e-06)
(9.0454 0.304403 3.92259e-06)
(9.0454 0.304404 3.7595e-06)
(9.0454 0.304405 3.50941e-06)
(9.04539 0.304406 3.20928e-06)
(9.04539 0.304407 2.85554e-06)
(9.04539 0.304408 2.49657e-06)
(9.04539 0.304409 2.09265e-06)
(9.04539 0.304409 1.70799e-06)
(9.04539 0.30441 1.26918e-06)
(9.04539 0.30441 1.00208e-06)
(9.04521 0.304402 5.25244e-07)
(8.98987 0.296807 -3.59396e-07)
(8.99005 0.296814 -7.49797e-07)
(8.99005 0.296813 -1.02625e-06)
(8.99005 0.296813 -1.36223e-06)
(8.99005 0.296812 -1.59177e-06)
(8.99005 0.296811 -1.82044e-06)
(8.99005 0.29681 -1.96188e-06)
(8.99005 0.296808 -2.06408e-06)
(8.99005 0.296807 -2.09191e-06)
(8.99005 0.296806 -2.07024e-06)
(8.99005 0.296805 -1.98564e-06)
(8.99004 0.296804 -1.85918e-06)
(8.99004 0.296803 -1.67796e-06)
(8.99004 0.296802 -1.4788e-06)
(8.99004 0.296801 -1.22653e-06)
(8.99004 0.2968 -9.92562e-07)
(8.99004 0.296799 -6.84479e-07)
(8.99004 0.296799 -4.52766e-07)
(8.99004 0.296799 -1.11389e-07)
(8.98986 0.296791 8.02725e-08)
(9.00402 0.138166 -6.74594e-08)
(9.00421 0.138169 3.34825e-07)
(9.00421 0.13817 8.24367e-07)
(9.00421 0.13817 1.13322e-06)
(9.0042 0.13817 1.41169e-06)
(9.0042 0.13817 1.61153e-06)
(9.0042 0.138171 1.76404e-06)
(9.0042 0.138171 1.84e-06)
(9.0042 0.138171 1.86367e-06)
(9.0042 0.138172 1.82499e-06)
(9.0042 0.138172 1.74616e-06)
(9.00419 0.138173 1.62156e-06)
(9.00419 0.138173 1.47925e-06)
(9.00419 0.138173 1.30848e-06)
(9.00419 0.138173 1.14731e-06)
(9.00419 0.138173 9.60869e-07)
(9.00419 0.138173 8.03883e-07)
(9.00419 0.138173 6.13269e-07)
(9.00419 0.138173 5.59742e-07)
(9.004 0.13817 3.58953e-07)
(8.97637 0.125423 -2.43771e-07)
(8.97656 0.125426 -5.04023e-07)
(8.97656 0.125425 -6.66815e-07)
(8.97656 0.125424 -8.8116e-07)
(8.97656 0.125423 -1.01872e-06)
(8.97656 0.125422 -1.16478e-06)
(8.97655 0.125421 -1.25483e-06)
(8.97655 0.125419 -1.32662e-06)
(8.97655 0.125418 -1.35253e-06)
(8.97655 0.125416 -1.35293e-06)
(8.97655 0.125415 -1.31213e-06)
(8.97655 0.125413 -1.24885e-06)
(8.97655 0.125412 -1.14442e-06)
(8.97655 0.12541 -1.03043e-06)
(8.97655 0.125409 -8.69693e-07)
(8.97655 0.125408 -7.24556e-07)
(8.97655 0.125407 -5.11781e-07)
(8.97655 0.125407 -3.58939e-07)
(8.97655 0.125406 -1.04067e-07)
(8.97636 0.125403 4.87678e-08)
(8.98319 -0.00782616 -2.6161e-07)
(8.98337 -0.00782638 -3.75138e-07)
(8.98337 -0.00782623 -4.02845e-07)
(8.98337 -0.00782595 -5.10481e-07)
(8.98337 -0.00782563 -5.79888e-07)
(8.98337 -0.00782526 -6.59839e-07)
(8.98337 -0.00782485 -7.11459e-07)
(8.98337 -0.00782441 -7.61122e-07)
(8.98337 -0.00782397 -7.89901e-07)
(8.98337 -0.00782354 -8.12847e-07)
(8.98337 -0.00782314 -8.15887e-07)
(8.98337 -0.00782278 -8.11638e-07)
(8.98337 -0.00782247 -7.80577e-07)
(8.98337 -0.00782221 -7.43243e-07)
(8.98337 -0.00782201 -6.62781e-07)
(8.98337 -0.00782187 -5.85914e-07)
(8.98337 -0.00782177 -4.41032e-07)
(8.98337 -0.00782174 -3.27107e-07)
(8.98337 -0.00782172 -5.49539e-08)
(8.98318 -0.0078214 1.35807e-07)
(8.98901 -0.0257364 -2.12419e-07)
(8.98919 -0.0257378 -2.97721e-07)
(8.98919 -0.0257386 -2.9843e-07)
(8.98919 -0.0257397 -3.78077e-07)
(8.98919 -0.0257412 -4.21319e-07)
(8.98919 -0.0257429 -4.84044e-07)
(8.98919 -0.0257448 -5.25432e-07)
(8.98919 -0.0257469 -5.72933e-07)
(8.98918 -0.025749 -6.06183e-07)
(8.98918 -0.0257512 -6.40901e-07)
(8.98918 -0.0257532 -6.59268e-07)
(8.98918 -0.0257552 -6.74704e-07)
(8.98918 -0.0257571 -6.62433e-07)
(8.98917 -0.0257587 -6.45394e-07)
(8.98917 -0.0257602 -5.82854e-07)
(8.98917 -0.0257614 -5.26083e-07)
(8.98917 -0.0257623 -4.00237e-07)
(8.98917 -0.025763 -3.07e-07)
(8.98917 -0.0257635 -7.78154e-08)
(8.98898 -0.0257627 9.49598e-08)
(8.98768 -0.155866 -5.25424e-07)
(8.98787 -0.155871 -1.36996e-06)
(8.98787 -0.15587 -2.05997e-06)
(8.98786 -0.15587 -2.7452e-06)
(8.98786 -0.15587 -3.29581e-06)
(8.98786 -0.155869 -3.76693e-06)
(8.98786 -0.155869 -4.10415e-06)
(8.98786 -0.155868 -4.33195e-06)
(8.98786 -0.155867 -4.43297e-06)
(8.98786 -0.155867 -4.42441e-06)
(8.98786 -0.155866 -4.30201e-06)
(8.98786 -0.155866 -4.0868e-06)
(8.98786 -0.155865 -3.77232e-06)
(8.98785 -0.155865 -3.39326e-06)
(8.98785 -0.155865 -2.92679e-06)
(8.98785 -0.155864 -2.44225e-06)
(8.98785 -0.155864 -1.86001e-06)
(8.98785 -0.155864 -1.32687e-06)
(8.98785 -0.155864 -6.28935e-07)
(8.98767 -0.15586 -8.88958e-08)
(9.03093 -0.172023 -1.90612e-07)
(9.03112 -0.172029 -4.93982e-08)
(9.03112 -0.172029 1.68607e-07)
(9.03112 -0.17203 2.60193e-07)
(9.03111 -0.172031 3.43962e-07)
(9.03111 -0.172033 3.86529e-07)
(9.03111 -0.172034 4.11804e-07)
(9.03111 -0.172036 3.97604e-07)
(9.03111 -0.172038 3.61365e-07)
(9.0311 -0.172039 2.91081e-07)
(9.0311 -0.172041 2.09706e-07)
(9.0311 -0.172043 1.08644e-07)
(9.0311 -0.172044 2.23269e-08)
(9.03109 -0.172046 -6.51126e-08)
(9.03109 -0.172047 -1.05426e-07)
(9.03109 -0.172048 -1.40516e-07)
(9.03109 -0.172049 -1.09827e-07)
(9.03109 -0.172049 -8.25739e-08)
(9.03109 -0.17205 9.40391e-08)
(9.0309 -0.172045 2.08827e-07)
(9.01966 -0.322555 -7.77281e-07)
(9.01984 -0.322564 -2.18662e-06)
(9.01984 -0.322564 -3.39423e-06)
(9.01984 -0.322564 -4.54611e-06)
(9.01984 -0.322563 -5.46928e-06)
(9.01984 -0.322563 -6.26449e-06)
(9.01984 -0.322562 -6.84068e-06)
(9.01984 -0.322562 -7.22477e-06)
(9.01984 -0.322562 -7.39475e-06)
(9.01984 -0.322561 -7.36994e-06)
(9.01984 -0.322561 -7.1517e-06)
(9.01983 -0.32256 -6.76712e-06)
(9.01983 -0.32256 -6.22177e-06)
(9.01983 -0.32256 -5.56097e-06)
(9.01983 -0.322559 -4.77179e-06)
(9.01983 -0.322559 -3.94713e-06)
(9.01983 -0.322559 -2.98235e-06)
(9.01983 -0.322559 -2.10404e-06)
(9.01983 -0.322559 -1.06847e-06)
(9.01965 -0.32255 -2.41085e-07)
(9.09784 -0.33329 -1.88037e-07)
(9.09802 -0.3333 1.37548e-07)
(9.09802 -0.3333 5.6745e-07)
(9.09802 -0.333301 7.83287e-07)
(9.09802 -0.333302 9.46029e-07)
(9.09802 -0.333303 1.05874e-06)
(9.09801 -0.333304 1.12811e-06)
(9.09801 -0.333305 1.13023e-06)
(9.09801 -0.333306 1.0878e-06)
(9.09801 -0.333307 9.85594e-07)
(9.09801 -0.333309 8.5694e-07)
(9.098 -0.33331 6.93187e-07)
(9.098 -0.333311 5.4069e-07)
(9.098 -0.333312 3.84121e-07)
(9.098 -0.333313 2.7779e-07)
(9.098 -0.333313 1.82831e-07)
(9.09799 -0.333314 1.34694e-07)
(9.09799 -0.333314 1.10263e-07)
(9.09799 -0.333314 2.64827e-07)
(9.09781 -0.333305 3.10532e-07)
(9.07533 -0.526694 -9.84675e-07)
(9.07552 -0.526707 -2.76478e-06)
(9.07552 -0.526707 -4.33856e-06)
(9.07552 -0.526707 -5.82953e-06)
(9.07552 -0.526707 -6.99675e-06)
(9.07552 -0.526707 -8.03811e-06)
(9.07552 -0.526707 -8.79123e-06)
(9.07552 -0.526706 -9.29605e-06)
(9.07552 -0.526706 -9.51679e-06)
(9.07551 -0.526706 -9.47884e-06)
(9.07551 -0.526706 -9.18343e-06)
(9.07551 -0.526706 -8.66657e-06)
(9.07551 -0.526706 -7.94143e-06)
(9.07551 -0.526706 -7.06623e-06)
(9.07551 -0.526706 -6.03678e-06)
(9.07551 -0.526706 -4.9701e-06)
(9.07551 -0.526706 -3.71208e-06)
(9.07551 -0.526706 -2.61555e-06)
(9.07551 -0.526706 -1.36974e-06)
(9.07533 -0.526692 -3.26335e-07)
(9.17712 -0.530788 -2.39997e-07)
(9.1773 -0.530802 2.15204e-07)
(9.1773 -0.530802 8.15338e-07)
(9.1773 -0.530802 1.04047e-06)
(9.1773 -0.530803 1.1736e-06)
(9.1773 -0.530803 1.27894e-06)
(9.1773 -0.530803 1.35123e-06)
(9.1773 -0.530804 1.3341e-06)
(9.1773 -0.530805 1.27586e-06)
(9.17729 -0.530805 1.14372e-06)
(9.17729 -0.530806 9.87892e-07)
(9.17729 -0.530806 7.91177e-07)
(9.17729 -0.530807 6.16101e-07)
(9.17729 -0.530807 4.31784e-07)
(9.17729 -0.530807 3.11851e-07)
(9.17729 -0.530808 1.8947e-07)
(9.17728 -0.530808 7.19509e-08)
(9.17728 -0.530808 -1.59055e-10)
(9.17728 -0.530808 2.17719e-07)
(9.1771 -0.530794 3.35001e-07)
(9.14099 -0.789619 -1.07339e-06)
(9.14117 -0.789639 -2.93772e-06)
(9.14117 -0.789639 -4.46788e-06)
(9.14117 -0.789639 -6.14288e-06)
(9.14117 -0.78964 -7.62345e-06)
(9.14117 -0.789641 -8.81096e-06)
(9.14117 -0.789642 -9.67537e-06)
(9.14117 -0.789643 -1.02521e-05)
(9.14117 -0.789644 -1.05007e-05)
(9.14117 -0.789645 -1.04623e-05)
(9.14117 -0.789647 -1.01286e-05)
(9.14117 -0.789648 -9.55248e-06)
(9.14117 -0.789649 -8.74232e-06)
(9.14117 -0.78965 -7.77986e-06)
(9.14117 -0.789651 -6.66843e-06)
(9.14117 -0.789651 -5.5243e-06)
(9.14117 -0.789652 -4.3468e-06)
(9.14118 -0.789653 -3.19853e-06)
(9.14118 -0.789653 -1.63147e-06)
(9.14099 -0.789634 -3.80991e-07)
(9.23792 -0.785305 -4.6316e-07)
(9.2381 -0.785323 -1.42149e-07)
(9.2381 -0.785322 -6.18257e-08)
(9.2381 -0.785322 -2.88478e-07)
(9.2381 -0.785322 -2.26505e-07)
(9.2381 -0.785322 -3.99441e-07)
(9.2381 -0.785322 -4.57064e-07)
(9.2381 -0.785321 -6.08396e-07)
(9.2381 -0.785321 -7.15549e-07)
(9.2381 -0.785321 -8.57658e-07)
(9.2381 -0.785321 -9.57144e-07)
(9.2381 -0.785321 -1.06106e-06)
(9.2381 -0.785321 -1.08517e-06)
(9.2381 -0.78532 -1.11299e-06)
(9.2381 -0.78532 -9.93189e-07)
(9.2381 -0.78532 -9.47521e-07)
(9.2381 -0.78532 -6.34998e-07)
(9.2381 -0.78532 -6.09167e-07)
(9.2381 -0.785321 -3.29349e-07)
(9.23792 -0.785302 2.48933e-07)
(9.18322 -1.12227 -9.25822e-07)
(9.18341 -1.12229 -2.4116e-06)
(9.18341 -1.12229 -4.19225e-06)
(9.18341 -1.1223 -6.02056e-06)
(9.18341 -1.1223 -7.3521e-06)
(9.18341 -1.1223 -8.57468e-06)
(9.18341 -1.12231 -9.40334e-06)
(9.18341 -1.12231 -1.00039e-05)
(9.18341 -1.12231 -1.02609e-05)
(9.18342 -1.12232 -1.0257e-05)
(9.18342 -1.12232 -9.9511e-06)
(9.18342 -1.12233 -9.42223e-06)
(9.18342 -1.12233 -8.64488e-06)
(9.18342 -1.12233 -7.74677e-06)
(9.18342 -1.12233 -6.65176e-06)
(9.18342 -1.12234 -5.60301e-06)
(9.18343 -1.12234 -4.33937e-06)
(9.18343 -1.12234 -3.38739e-06)
(9.18343 -1.12234 -2.15168e-06)
(9.18324 -1.12232 -5.62956e-07)
(9.21825 -1.09914 1.90441e-06)
(9.21842 -1.09916 -9.54737e-07)
(9.21841 -1.09916 -2.30507e-06)
(9.21842 -1.09916 -4.22177e-06)
(9.21842 -1.09916 -5.13354e-06)
(9.21842 -1.09915 -6.15092e-06)
(9.21842 -1.09915 -6.75717e-06)
(9.21843 -1.09915 -7.27311e-06)
(9.21843 -1.09915 -7.51552e-06)
(9.21844 -1.09915 -7.60224e-06)
(9.21844 -1.09915 -7.45462e-06)
(9.21844 -1.09914 -7.16341e-06)
(9.21845 -1.09914 -6.65935e-06)
(9.21845 -1.09914 -6.09206e-06)
(9.21846 -1.09914 -5.30329e-06)
(9.21846 -1.09914 -4.65903e-06)
(9.21846 -1.09914 -3.66505e-06)
(9.21846 -1.09914 -3.49791e-06)
(9.21847 -1.09914 -2.62926e-06)
(9.2183 -1.09912 -3.13748e-06)
(8.77949 0.766377 5.5236e-07)
(8.77966 0.766392 -1.24178e-06)
(8.77966 0.766391 -1.31986e-06)
(8.77966 0.766391 -2.15961e-06)
(8.77966 0.76639 -2.3823e-06)
(8.77967 0.766389 -2.82744e-06)
(8.77967 0.766387 -3.01799e-06)
(8.77967 0.766386 -3.22968e-06)
(8.77967 0.766385 -3.29345e-06)
(8.77967 0.766384 -3.31536e-06)
(8.77967 0.766382 -3.22416e-06)
(8.77967 0.766381 -3.09158e-06)
(8.77967 0.76638 -2.85349e-06)
(8.77967 0.766379 -2.61303e-06)
(8.77967 0.766378 -2.21606e-06)
(8.77967 0.766378 -1.95024e-06)
(8.77967 0.766377 -1.33145e-06)
(8.77967 0.766377 -1.25851e-06)
(8.77968 0.766377 -3.65342e-07)
(8.7795 0.766362 -1.13636e-06)
(8.77902 0.770728 -9.13238e-07)
(8.7792 0.770744 -1.8427e-06)
(8.7792 0.770746 -2.65622e-06)
(8.7792 0.770748 -3.63224e-06)
(8.7792 0.770751 -4.26252e-06)
(8.7792 0.770754 -4.91323e-06)
(8.77919 0.770758 -5.2964e-06)
(8.77919 0.770762 -5.58933e-06)
(8.77919 0.770766 -5.67401e-06)
(8.77919 0.77077 -5.63871e-06)
(8.77919 0.770774 -5.43901e-06)
(8.77919 0.770778 -5.13774e-06)
(8.77919 0.770782 -4.69696e-06)
(8.77919 0.770785 -4.21825e-06)
(8.77919 0.770788 -3.59477e-06)
(8.77919 0.770791 -3.03112e-06)
(8.77919 0.770793 -2.23929e-06)
(8.77919 0.770795 -1.65307e-06)
(8.77919 0.770796 -7.67242e-07)
(8.77901 0.770781 2.76316e-08)
(8.80625 0.550734 8.38938e-10)
(8.80643 0.550745 8.66735e-07)
(8.80643 0.550745 1.6489e-06)
(8.80643 0.550746 2.2032e-06)
(8.80643 0.550747 2.93292e-06)
(8.80643 0.550747 3.31347e-06)
(8.80643 0.550748 3.66987e-06)
(8.80643 0.550749 3.82608e-06)
(8.80643 0.55075 3.89976e-06)
(8.80644 0.550751 3.83607e-06)
(8.80644 0.550752 3.70781e-06)
(8.80644 0.550752 3.47593e-06)
(8.80644 0.550753 3.21193e-06)
(8.80644 0.550754 2.8819e-06)
(8.80644 0.550755 2.594e-06)
(8.80644 0.550755 2.1815e-06)
(8.80644 0.550756 1.99408e-06)
(8.80644 0.550756 1.47739e-06)
(8.80644 0.550756 1.0911e-06)
(8.80626 0.550745 6.47664e-07)
(8.79639 0.547539 -5.86286e-07)
(8.79657 0.547551 -1.35171e-06)
(8.79657 0.547551 -1.94209e-06)
(8.79657 0.547551 -2.63235e-06)
(8.79657 0.547551 -3.20788e-06)
(8.79657 0.547552 -3.68079e-06)
(8.79657 0.547553 -3.98124e-06)
(8.79657 0.547553 -4.18822e-06)
(8.79657 0.547554 -4.24402e-06)
(8.79657 0.547555 -4.19547e-06)
(8.79656 0.547555 -4.03012e-06)
(8.79656 0.547556 -3.77421e-06)
(8.79656 0.547557 -3.41739e-06)
(8.79656 0.547557 -3.03382e-06)
(8.79656 0.547558 -2.55753e-06)
(8.79656 0.547558 -2.11024e-06)
(8.79656 0.547559 -1.61373e-06)
(8.79656 0.547559 -1.1492e-06)
(8.79656 0.54756 -4.77791e-07)
(8.79638 0.547548 -1.59233e-08)
(8.81732 0.344426 2.34851e-07)
(8.8175 0.344434 1.19139e-06)
(8.8175 0.344434 2.20213e-06)
(8.8175 0.344435 2.98559e-06)
(8.8175 0.344436 3.67199e-06)
(8.8175 0.344437 4.20398e-06)
(8.8175 0.344438 4.62942e-06)
(8.8175 0.344439 4.87531e-06)
(8.81751 0.344441 4.99801e-06)
(8.81751 0.344442 4.96887e-06)
(8.81751 0.344443 4.83747e-06)
(8.81751 0.344445 4.58604e-06)
(8.81751 0.344446 4.27106e-06)
(8.81751 0.344447 3.86672e-06)
(8.81751 0.344448 3.4483e-06)
(8.81751 0.344449 2.93581e-06)
(8.81751 0.344449 2.41648e-06)
(8.81751 0.34445 1.80414e-06)
(8.81751 0.34445 1.30566e-06)
(8.81733 0.344443 6.05464e-07)
(8.80425 0.335732 -2.89119e-07)
(8.80443 0.335739 -6.58427e-07)
(8.80442 0.335738 -9.85601e-07)
(8.80442 0.335737 -1.29429e-06)
(8.80442 0.335736 -1.46092e-06)
(8.80442 0.335736 -1.66684e-06)
(8.80442 0.335734 -1.77472e-06)
(8.80442 0.335733 -1.86296e-06)
(8.80442 0.335732 -1.87283e-06)
(8.80442 0.335731 -1.84509e-06)
(8.80442 0.33573 -1.7516e-06)
(8.80442 0.335729 -1.6262e-06)
(8.80442 0.335728 -1.43993e-06)
(8.80442 0.335727 -1.25329e-06)
(8.80442 0.335726 -9.98489e-07)
(8.80441 0.335726 -7.88958e-07)
(8.80441 0.335725 -4.65862e-07)
(8.80441 0.335725 -2.69837e-07)
(8.80441 0.335724 -5.56722e-08)
(8.80423 0.335717 6.26316e-08)
(8.81462 0.155812 5.97468e-08)
(8.8148 0.155816 6.12776e-07)
(8.8148 0.155816 1.20224e-06)
(8.8148 0.155816 1.66904e-06)
(8.8148 0.155817 2.08986e-06)
(8.8148 0.155817 2.41632e-06)
(8.81479 0.155818 2.68404e-06)
(8.81479 0.155818 2.8457e-06)
(8.81479 0.155819 2.9398e-06)
(8.81479 0.155819 2.94177e-06)
(8.81479 0.15582 2.88643e-06)
(8.81479 0.15582 2.75549e-06)
(8.81479 0.155821 2.59184e-06)
(8.81479 0.155821 2.36624e-06)
(8.81479 0.155821 2.13793e-06)
(8.81479 0.155822 1.84291e-06)
(8.81479 0.155822 1.55844e-06)
(8.81479 0.155822 1.1965e-06)
(8.81479 0.155822 8.95475e-07)
(8.81461 0.155818 4.54438e-07)
(8.81053 0.141363 -1.76319e-07)
(8.81071 0.141365 -3.82273e-07)
(8.81071 0.141364 -5.51313e-07)
(8.81071 0.141363 -7.03335e-07)
(8.81071 0.141362 -7.51756e-07)
(8.81071 0.141361 -8.43523e-07)
(8.8107 0.141359 -8.73463e-07)
(8.8107 0.141357 -9.07446e-07)
(8.8107 0.141355 -8.97203e-07)
(8.8107 0.141354 -8.78704e-07)
(8.8107 0.141352 -8.21107e-07)
(8.8107 0.14135 -7.57923e-07)
(8.8107 0.141348 -6.53088e-07)
(8.8107 0.141347 -5.60005e-07)
(8.8107 0.141346 -4.14433e-07)
(8.8107 0.141344 -3.14023e-07)
(8.8107 0.141343 -1.25505e-07)
(8.8107 0.141343 -4.63717e-08)
(8.8107 0.141342 4.52851e-08)
(8.81052 0.141339 7.47641e-08)
(8.81358 -0.0214731 -1.88377e-07)
(8.81376 -0.0214737 -2.4733e-07)
(8.81376 -0.0214734 -2.61589e-07)
(8.81375 -0.021473 -2.93966e-07)
(8.81375 -0.0214726 -2.77354e-07)
(8.81375 -0.0214721 -2.89578e-07)
(8.81375 -0.0214715 -2.69755e-07)
(8.81375 -0.0214708 -2.66776e-07)
(8.81375 -0.0214701 -2.44858e-07)
(8.81375 -0.0214695 -2.3311e-07)
(8.81375 -0.0214688 -2.05933e-07)
(8.81375 -0.0214682 -1.88886e-07)
(8.81375 -0.0214676 -1.48507e-07)
(8.81375 -0.0214671 -1.2443e-07)
(8.81375 -0.0214666 -5.95943e-08)
(8.81375 -0.0214662 -3.27624e-08)
(8.81375 -0.0214659 6.36094e-08)
(8.81375 -0.0214657 7.83909e-08)
(8.81375 -0.0214655 1.82e-07)
(8.81357 -0.0214647 2.03292e-07)
(8.82428 -0.039007 -1.32452e-07)
(8.82446 -0.0390088 -1.04288e-07)
(8.82446 -0.0390096 -3.75115e-08)
(8.82446 -0.0390108 4.68352e-09)
(8.82446 -0.0390123 9.50228e-08)
(8.82446 -0.0390141 1.39008e-07)
(8.82446 -0.0390161 2.01573e-07)
(8.82446 -0.0390182 2.3097e-07)
(8.82446 -0.0390204 2.65552e-07)
(8.82445 -0.0390227 2.74655e-07)
(8.82445 -0.0390249 2.89875e-07)
(8.82445 -0.039027 2.84893e-07)
(8.82445 -0.039029 2.99844e-07)
(8.82445 -0.0390308 2.93153e-07)
(8.82445 -0.0390324 3.25533e-07)
(8.82445 -0.0390337 3.14099e-07)
(8.82445 -0.0390348 3.59929e-07)
(8.82445 -0.0390356 3.18203e-07)
(8.82445 -0.0390362 3.08974e-07)
(8.82427 -0.0390351 2.2027e-07)
(8.82174 -0.202855 -4.64619e-07)
(8.82192 -0.20286 -1.2783e-06)
(8.82192 -0.20286 -1.98858e-06)
(8.82192 -0.202859 -2.63193e-06)
(8.82192 -0.202859 -3.11283e-06)
(8.82192 -0.202858 -3.54256e-06)
(8.82192 -0.202858 -3.83284e-06)
(8.82192 -0.202857 -4.03199e-06)
(8.82192 -0.202857 -4.10568e-06)
(8.82192 -0.202856 -4.08388e-06)
(8.82192 -0.202856 -3.95109e-06)
(8.82192 -0.202855 -3.73995e-06)
(8.82191 -0.202854 -3.43028e-06)
(8.82191 -0.202854 -3.07275e-06)
(8.82191 -0.202854 -2.61915e-06)
(8.82191 -0.202853 -2.16938e-06)
(8.82191 -0.202853 -1.59902e-06)
(8.82191 -0.202853 -1.12016e-06)
(8.82191 -0.202852 -5.53749e-07)
(8.82173 -0.202847 -9.61938e-08)
(8.8494 -0.21651 -9.77671e-08)
(8.84958 -0.216516 1.45002e-07)
(8.84958 -0.216517 4.33834e-07)
(8.84958 -0.216518 6.52444e-07)
(8.84958 -0.216519 8.68482e-07)
(8.84958 -0.216521 1.03383e-06)
(8.84958 -0.216523 1.18215e-06)
(8.84958 -0.216525 1.271e-06)
(8.84958 -0.216527 1.33105e-06)
(8.84958 -0.216529 1.33528e-06)
(8.84958 -0.216531 1.3191e-06)
(8.84958 -0.216533 1.25951e-06)
(8.84958 -0.216535 1.20509e-06)
(8.84958 -0.216536 1.11902e-06)
(8.84958 -0.216538 1.06206e-06)
(8.84958 -0.216539 9.64173e-07)
(8.84958 -0.21654 8.87332e-07)
(8.84958 -0.216541 7.38517e-07)
(8.84958 -0.216541 6.18025e-07)
(8.8494 -0.216536 3.72356e-07)
(8.83865 -0.398737 -7.55339e-07)
(8.83883 -0.398746 -2.21524e-06)
(8.83883 -0.398746 -3.56186e-06)
(8.83883 -0.398745 -4.75447e-06)
(8.83883 -0.398745 -5.65477e-06)
(8.83883 -0.398745 -6.47155e-06)
(8.83883 -0.398744 -7.0535e-06)
(8.83883 -0.398744 -7.45258e-06)
(8.83883 -0.398743 -7.62858e-06)
(8.83883 -0.398743 -7.61167e-06)
(8.83882 -0.398742 -7.39312e-06)
(8.83882 -0.398742 -7.01053e-06)
(8.83882 -0.398741 -6.45639e-06)
(8.83882 -0.398741 -5.78954e-06)
(8.83882 -0.39874 -4.96937e-06)
(8.83882 -0.39874 -4.12001e-06)
(8.83882 -0.39874 -3.06906e-06)
(8.83882 -0.398739 -2.15131e-06)
(8.83882 -0.398739 -1.20165e-06)
(8.83864 -0.39873 -3.41401e-07)
(8.87943 -0.406079 -4.8541e-08)
(8.87961 -0.406088 3.92475e-07)
(8.87961 -0.406089 9.17771e-07)
(8.87961 -0.40609 1.28336e-06)
(8.87961 -0.406091 1.57819e-06)
(8.87961 -0.406093 1.83643e-06)
(8.87961 -0.406094 2.04928e-06)
(8.87961 -0.406096 2.17664e-06)
(8.87961 -0.406097 2.25261e-06)
(8.87961 -0.406099 2.24475e-06)
(8.87961 -0.406101 2.20038e-06)
(8.87961 -0.406102 2.09355e-06)
(8.87961 -0.406104 1.98568e-06)
(8.87961 -0.406105 1.83738e-06)
(8.87961 -0.406106 1.71107e-06)
(8.87961 -0.406107 1.54007e-06)
(8.87961 -0.406108 1.33465e-06)
(8.87961 -0.406108 1.08485e-06)
(8.87961 -0.406109 8.8196e-07)
(8.87943 -0.406099 4.82439e-07)
(8.85755 -0.619635 -1.00266e-06)
(8.85773 -0.619649 -2.94236e-06)
(8.85773 -0.619649 -4.81883e-06)
(8.85773 -0.619649 -6.4547e-06)
(8.85773 -0.619648 -7.65719e-06)
(8.85773 -0.619648 -8.80277e-06)
(8.85773 -0.619648 -9.62789e-06)
(8.85773 -0.619648 -1.02002e-05)
(8.85773 -0.619648 -1.04633e-05)
(8.85772 -0.619648 -1.04542e-05)
(8.85772 -0.619648 -1.0165e-05)
(8.85772 -0.619648 -9.64206e-06)
(8.85772 -0.619648 -8.88683e-06)
(8.85772 -0.619647 -7.96875e-06)
(8.85772 -0.619647 -6.85607e-06)
(8.85772 -0.619647 -5.69413e-06)
(8.85772 -0.619647 -4.22803e-06)
(8.85772 -0.619648 -2.98116e-06)
(8.85772 -0.619648 -1.75634e-06)
(8.85754 -0.619634 -5.36904e-07)
(8.89856 -0.618517 -4.76937e-08)
(8.89874 -0.618531 5.27942e-07)
(8.89874 -0.618531 1.24506e-06)
(8.89874 -0.618532 1.62722e-06)
(8.89874 -0.618533 1.84242e-06)
(8.89874 -0.618533 2.09328e-06)
(8.89874 -0.618534 2.31555e-06)
(8.89875 -0.618535 2.42588e-06)
(8.89875 -0.618536 2.49307e-06)
(8.89875 -0.618537 2.45664e-06)
(8.89875 -0.618538 2.38908e-06)
(8.89875 -0.618539 2.24786e-06)
(8.89875 -0.61854 2.11737e-06)
(8.89875 -0.618541 1.93356e-06)
(8.89875 -0.618541 1.78567e-06)
(8.89875 -0.618542 1.56989e-06)
(8.89875 -0.618543 1.22928e-06)
(8.89875 -0.618542 9.14551e-07)
(8.89875 -0.618543 7.92665e-07)
(8.89857 -0.618529 4.66822e-07)
(8.86221 -0.868814 -1.12074e-06)
(8.86239 -0.868832 -3.24397e-06)
(8.86239 -0.868832 -5.02924e-06)
(8.86239 -0.868833 -6.95127e-06)
(8.86239 -0.868834 -8.74028e-06)
(8.86239 -0.868835 -1.01255e-05)
(8.86239 -0.868836 -1.11427e-05)
(8.86239 -0.868838 -1.1835e-05)
(8.86239 -0.86884 -1.21491e-05)
(8.86239 -0.868842 -1.21461e-05)
(8.86239 -0.868843 -1.18041e-05)
(8.86239 -0.868845 -1.11961e-05)
(8.86239 -0.868847 -1.03151e-05)
(8.86239 -0.868848 -9.26353e-06)
(8.86239 -0.86885 -8.02945e-06)
(8.86239 -0.868851 -6.73372e-06)
(8.86239 -0.868852 -5.45249e-06)
(8.86239 -0.868854 -4.04062e-06)
(8.86239 -0.868854 -2.20393e-06)
(8.86221 -0.868836 -6.64871e-07)
(8.88511 -0.856046 -2.82503e-07)
(8.88529 -0.856064 3.82046e-08)
(8.88529 -0.856064 -1.86652e-07)
(8.88529 -0.856064 -4.05212e-07)
(8.88529 -0.856064 -1.81046e-07)
(8.88529 -0.856064 -3.16745e-07)
(8.88529 -0.856064 -2.75017e-07)
(8.8853 -0.856065 -3.73573e-07)
(8.8853 -0.856065 -3.99008e-07)
(8.8853 -0.856065 -4.83823e-07)
(8.8853 -0.856066 -5.12375e-07)
(8.8853 -0.856066 -5.68786e-07)
(8.8853 -0.856066 -5.27604e-07)
(8.8853 -0.856066 -5.30942e-07)
(8.8853 -0.856067 -3.50691e-07)
(8.8853 -0.856067 -3.2764e-07)
(8.8853 -0.856067 6.73656e-08)
(8.8853 -0.856067 -1.13529e-08)
(8.8853 -0.856068 -1.60237e-07)
(8.88512 -0.856051 2.09975e-07)
(8.83324 -1.13095 -1.07086e-06)
(8.83342 -1.13097 -2.94141e-06)
(8.83342 -1.13098 -5.22243e-06)
(8.83342 -1.13098 -7.41728e-06)
(8.83342 -1.13098 -9.05164e-06)
(8.83342 -1.13099 -1.05559e-05)
(8.83342 -1.13099 -1.15768e-05)
(8.83342 -1.131 -1.23362e-05)
(8.83342 -1.131 -1.26691e-05)
(8.83342 -1.13101 -1.26992e-05)
(8.83342 -1.13101 -1.23564e-05)
(8.83342 -1.13102 -1.17578e-05)
(8.83342 -1.13102 -1.08417e-05)
(8.83342 -1.13103 -9.79342e-06)
(8.83342 -1.13103 -8.48001e-06)
(8.83342 -1.13103 -7.20334e-06)
(8.83342 -1.13104 -5.64987e-06)
(8.83343 -1.13104 -4.34268e-06)
(8.83343 -1.13104 -2.87473e-06)
(8.83325 -1.13102 -8.86348e-07)
(8.84966 -1.10216 2.69588e-06)
(8.84982 -1.10217 -8.7534e-07)
(8.84981 -1.10217 -3.04233e-06)
(8.84981 -1.10217 -5.36044e-06)
(8.84981 -1.10217 -6.50614e-06)
(8.84981 -1.10217 -7.74472e-06)
(8.84981 -1.10216 -8.47057e-06)
(8.84982 -1.10216 -9.09531e-06)
(8.84982 -1.10216 -9.36762e-06)
(8.84982 -1.10216 -9.4636e-06)
(8.84982 -1.10216 -9.26571e-06)
(8.84982 -1.10216 -8.90578e-06)
(8.84982 -1.10215 -8.28024e-06)
(8.84983 -1.10215 -7.59419e-06)
(8.84983 -1.10215 -6.61419e-06)
(8.84983 -1.10215 -5.81294e-06)
(8.84983 -1.10215 -4.61294e-06)
(8.84983 -1.10215 -4.31525e-06)
(8.84984 -1.10215 -3.73891e-06)
(8.84968 -1.10213 -4.33608e-06)
(8.78045 0.730851 -3.82815e-09)
(8.78063 0.730867 -1.9552e-06)
(8.78062 0.730866 -1.65843e-06)
(8.78062 0.730866 -2.42812e-06)
(8.78062 0.730865 -2.62011e-06)
(8.78062 0.730865 -3.08454e-06)
(8.78062 0.730864 -3.29237e-06)
(8.78062 0.730863 -3.52571e-06)
(8.78062 0.730862 -3.60391e-06)
(8.78063 0.730861 -3.6406e-06)
(8.78063 0.730861 -3.55629e-06)
(8.78063 0.73086 -3.43157e-06)
(8.78063 0.730859 -3.19195e-06)
(8.78063 0.730859 -2.94645e-06)
(8.78063 0.730858 -2.52177e-06)
(8.78063 0.730858 -2.21944e-06)
(8.78063 0.730858 -1.48954e-06)
(8.78063 0.730858 -1.25636e-06)
(8.78063 0.730858 1.23473e-07)
(8.78046 0.730842 -6.52696e-07)
(8.75059 0.731502 -1.15046e-06)
(8.75076 0.731519 -1.95924e-06)
(8.75076 0.73152 -2.51361e-06)
(8.75076 0.731522 -3.34516e-06)
(8.75076 0.731525 -3.86726e-06)
(8.75076 0.731528 -4.45561e-06)
(8.75076 0.731531 -4.79093e-06)
(8.75076 0.731535 -5.06042e-06)
(8.75076 0.731538 -5.13532e-06)
(8.75076 0.731542 -5.11517e-06)
(8.75076 0.731546 -4.94206e-06)
(8.75076 0.731549 -4.68244e-06)
(8.75076 0.731553 -4.28983e-06)
(8.75076 0.731556 -3.87137e-06)
(8.75076 0.731559 -3.30217e-06)
(8.75076 0.731561 -2.79364e-06)
(8.75076 0.731563 -2.0189e-06)
(8.75076 0.731564 -1.44544e-06)
(8.75076 0.731566 -4.26e-07)
(8.75059 0.73155 3.66264e-07)
(8.77901 0.515702 -3.34437e-07)
(8.77919 0.515713 3.93956e-07)
(8.77919 0.515714 1.0682e-06)
(8.77919 0.515714 1.48367e-06)
(8.77919 0.515715 2.14491e-06)
(8.77919 0.515716 2.43097e-06)
(8.77919 0.515717 2.72559e-06)
(8.77919 0.515718 2.84143e-06)
(8.77919 0.515719 2.90458e-06)
(8.77919 0.51572 2.85703e-06)
(8.77919 0.515721 2.77171e-06)
(8.77919 0.515722 2.59447e-06)
(8.77919 0.515723 2.40677e-06)
(8.77919 0.515724 2.16414e-06)
(8.77919 0.515725 1.98572e-06)
(8.77919 0.515725 1.68038e-06)
(8.77919 0.515726 1.6629e-06)
(8.77919 0.515726 1.2797e-06)
(8.77919 0.515727 1.08791e-06)
(8.77901 0.515715 8.26527e-07)
(8.74594 0.510938 -6.35555e-07)
(8.74612 0.510949 -1.20978e-06)
(8.74612 0.510949 -1.55994e-06)
(8.74612 0.510949 -2.10644e-06)
(8.74612 0.51095 -2.56675e-06)
(8.74612 0.51095 -2.94599e-06)
(8.74612 0.510951 -3.17854e-06)
(8.74612 0.510952 -3.34518e-06)
(8.74612 0.510953 -3.38487e-06)
(8.74612 0.510954 -3.34866e-06)
(8.74611 0.510955 -3.21514e-06)
(8.74611 0.510956 -3.01475e-06)
(8.74611 0.510957 -2.72595e-06)
(8.74611 0.510958 -2.42627e-06)
(8.74611 0.510958 -2.04028e-06)
(8.74611 0.510959 -1.68736e-06)
(8.74611 0.51096 -1.28827e-06)
(8.74611 0.510961 -9.17563e-07)
(8.74611 0.510961 -2.55142e-07)
(8.74594 0.51095 1.58005e-07)
(8.76659 0.320455 2.26781e-08)
(8.76677 0.320463 9.23367e-07)
(8.76677 0.320463 1.88256e-06)
(8.76677 0.320464 2.58111e-06)
(8.76677 0.320465 3.21545e-06)
(8.76677 0.320466 3.69591e-06)
(8.76677 0.320467 4.09142e-06)
(8.76677 0.320468 4.32457e-06)
(8.76677 0.32047 4.45607e-06)
(8.76677 0.320471 4.45237e-06)
(8.76677 0.320472 4.36598e-06)
(8.76677 0.320474 4.16861e-06)
(8.76677 0.320475 3.92151e-06)
(8.76677 0.320476 3.58395e-06)
(8.76677 0.320477 3.23834e-06)
(8.76677 0.320478 2.78752e-06)
(8.76677 0.320479 2.34484e-06)
(8.76677 0.320479 1.77711e-06)
(8.76677 0.320479 1.37638e-06)
(8.76659 0.320472 7.64503e-07)
(8.74356 0.311771 -3.3355e-07)
(8.74374 0.311777 -5.26631e-07)
(8.74374 0.311777 -6.52196e-07)
(8.74374 0.311776 -8.28909e-07)
(8.74374 0.311776 -8.64197e-07)
(8.74374 0.311775 -9.74773e-07)
(8.74374 0.311774 -1.00484e-06)
(8.74373 0.311774 -1.04204e-06)
(8.74373 0.311773 -1.02047e-06)
(8.74373 0.311772 -9.86299e-07)
(8.74373 0.311771 -9.02683e-07)
(8.74373 0.311771 -8.10311e-07)