/*--------------------------------*- C++ -*----------------------------------*\
| =========                 |                                                 |
| \\      /  F ield         | OpenFOAM: The Open Source CFD Toolbox           |
|  \\    /   O peration     | Version:  2212                                  |
|   \\  /    A nd           | Website:  www.openfoam.com                      |
|    \\/     M anipulation  |                                                 |
\*---------------------------------------------------------------------------*/
FoamFile
{
    version     2.0;
    format      ascii;
    arch        "LSB;label=32;scalar=64";
    class       volVectorField;
    location    "0.07";
    object      U_0;
}
// * * * * * * * * * * * * * * * * * * * * * * * * * * * * * * * * * * * * * //

dimensions      [0 1 -1 0 0 0 0];

internalField   nonuniform List<vector> 
24240
(
(9.54019 0.567195 6.05603e-07)
(9.54024 0.567198 -1.18314e-06)
(9.54024 0.567198 -1.38506e-06)
(9.54024 0.567199 -2.06764e-06)
(9.54024 0.567199 -2.47043e-06)
(9.54025 0.5672 -2.88588e-06)
(9.54025 0.5672 -3.18499e-06)
(9.54025 0.567201 -3.40776e-06)
(9.54025 0.567201 -3.53879e-06)
(9.54025 0.567202 -3.57961e-06)
(9.54026 0.567203 -3.53074e-06)
(9.54026 0.567203 -3.39541e-06)
(9.54026 0.567204 -3.18284e-06)
(9.54026 0.567204 -2.90228e-06)
(9.54026 0.567205 -2.56678e-06)
(9.54026 0.567205 -2.21823e-06)
(9.54027 0.567206 -1.78013e-06)
(9.54027 0.567206 -1.51355e-06)
(9.54027 0.567207 -6.29715e-07)
(9.54022 0.567203 -1.23815e-06)
(9.13602 0.568704 -3.20011e-07)
(9.13607 0.568708 -7.48389e-07)
(9.13607 0.568709 -1.08332e-06)
(9.13607 0.56871 -1.48301e-06)
(9.13607 0.568712 -1.787e-06)
(9.13607 0.568714 -2.06921e-06)
(9.13607 0.568716 -2.27612e-06)
(9.13608 0.568718 -2.42515e-06)
(9.13608 0.568721 -2.5068e-06)
(9.13608 0.568723 -2.52265e-06)
(9.13608 0.568725 -2.47691e-06)
(9.13609 0.568728 -2.37239e-06)
(9.13609 0.56873 -2.21376e-06)
(9.13609 0.568731 -2.00921e-06)
(9.13609 0.568733 -1.76983e-06)
(9.13609 0.568734 -1.51155e-06)
(9.13609 0.568735 -1.21443e-06)
(9.1361 0.568736 -9.29805e-07)
(9.1361 0.568737 -5.13794e-07)
(9.13605 0.568733 -1.30683e-07)
(9.16921 0.260175 -7.45615e-08)
(9.16926 0.260177 1.39492e-07)
(9.16925 0.260177 3.22227e-07)
(9.16925 0.260178 4.00434e-07)
(9.16925 0.260178 4.84635e-07)
(9.16925 0.260179 5.04412e-07)
(9.16925 0.26018 4.97646e-07)
(9.16925 0.260181 4.5165e-07)
(9.16924 0.260182 3.78807e-07)
(9.16924 0.260183 2.84715e-07)
(9.16924 0.260184 1.7791e-07)
(9.16924 0.260185 6.78389e-08)
(9.16924 0.260186 -3.82162e-08)
(9.16923 0.260187 -1.29283e-07)
(9.16923 0.260188 -2.01741e-07)
(9.16923 0.260189 -2.46531e-07)
(9.16923 0.260189 -2.50625e-07)
(9.16923 0.26019 -2.45073e-07)
(9.16923 0.26019 -1.41612e-07)
(9.16918 0.260188 3.24529e-08)
(8.91882 0.260163 -5.29508e-08)
(8.91887 0.260165 -1.84557e-07)
(8.91887 0.260165 -2.68882e-07)
(8.91887 0.260165 -3.71951e-07)
(8.91887 0.260165 -4.47541e-07)
(8.91887 0.260165 -5.25306e-07)
(8.91887 0.260165 -5.87185e-07)
(8.91887 0.260165 -6.39409e-07)
(8.91887 0.260165 -6.76316e-07)
(8.91887 0.260166 -6.97528e-07)
(8.91887 0.260166 -7.01417e-07)
(8.91887 0.260166 -6.87163e-07)
(8.91887 0.260166 -6.5515e-07)
(8.91887 0.260166 -6.04081e-07)
(8.91887 0.260166 -5.36451e-07)
(8.91887 0.260167 -4.5358e-07)
(8.91887 0.260167 -3.51232e-07)
(8.91887 0.260167 -2.46985e-07)
(8.91887 0.260167 -1.44029e-07)
(8.91882 0.260165 -8.17005e-08)
(8.93472 0.125616 4.20568e-08)
(8.93477 0.125617 2.58761e-07)
(8.93477 0.125617 4.46145e-07)
(8.93477 0.125618 5.9024e-07)
(8.93477 0.125618 7.04835e-07)
(8.93476 0.125618 7.69284e-07)
(8.93476 0.125619 7.92424e-07)
(8.93476 0.125619 7.73721e-07)
(8.93476 0.12562 7.19128e-07)
(8.93476 0.12562 6.35281e-07)
(8.93475 0.125621 5.31148e-07)
(8.93475 0.125621 4.16395e-07)
(8.93475 0.125622 2.98566e-07)
(8.93475 0.125622 1.90229e-07)
(8.93475 0.125623 9.68017e-08)
(8.93474 0.125623 3.28091e-08)
(8.93474 0.125623 -4.00003e-09)
(8.93474 0.125623 -1.36261e-08)
(8.93474 0.125624 -1.79156e-08)
(8.93469 0.125623 9.67662e-09)
(8.79438 0.121393 3.53355e-08)
(8.79442 0.121394 8.5074e-08)
(8.79442 0.121393 1.49623e-07)
(8.79442 0.121393 1.92531e-07)
(8.79442 0.121393 2.35236e-07)
(8.79442 0.121393 2.5967e-07)
(8.79442 0.121393 2.72196e-07)
(8.79442 0.121392 2.70248e-07)
(8.79442 0.121392 2.57228e-07)
(8.79442 0.121392 2.34022e-07)
(8.79442 0.121392 2.0418e-07)
(8.79442 0.121392 1.71036e-07)
(8.79442 0.121391 1.36383e-07)
(8.79442 0.121391 1.0623e-07)
(8.79442 0.121391 8.3272e-08)
(8.79441 0.121391 7.11253e-08)
(8.79441 0.121391 7.30457e-08)
(8.79441 0.121391 7.25254e-08)
(8.79441 0.121391 5.02659e-08)
(8.79436 0.12139 -5.17468e-09)
(8.80241 0.0538377 4.32061e-08)
(8.80246 0.0538381 1.62037e-07)
(8.80246 0.053838 2.66437e-07)
(8.80246 0.053838 3.45343e-07)
(8.80246 0.0538379 4.05023e-07)
(8.80246 0.0538378 4.36639e-07)
(8.80245 0.0538377 4.40957e-07)
(8.80245 0.0538376 4.19464e-07)
(8.80245 0.0538375 3.74665e-07)
(8.80245 0.0538374 3.09436e-07)
(8.80245 0.0538372 2.28488e-07)
(8.80245 0.0538371 1.41212e-07)
(8.80244 0.053837 5.18009e-08)
(8.80244 0.0538369 -2.99886e-08)
(8.80244 0.0538368 -9.65441e-08)
(8.80244 0.0538367 -1.38896e-07)
(8.80244 0.0538366 -1.55607e-07)
(8.80244 0.0538365 -1.49e-07)
(8.80244 0.0538363 -1.26283e-07)
(8.80239 0.0538359 -5.43767e-08)
(8.73889 0.0474425 2.07413e-08)
(8.73894 0.0474428 4.36777e-08)
(8.73894 0.0474426 6.97668e-08)
(8.73894 0.0474424 8.24691e-08)
(8.73894 0.0474422 9.84364e-08)
(8.73894 0.0474418 1.07295e-07)
(8.73894 0.0474415 1.11119e-07)
(8.73894 0.0474411 1.07439e-07)
(8.73894 0.0474407 9.57315e-08)
(8.73893 0.0474403 7.57964e-08)
(8.73893 0.04744 4.75492e-08)
(8.73893 0.0474396 1.60652e-08)
(8.73893 0.0474392 -1.76205e-08)
(8.73893 0.0474389 -5.0154e-08)
(8.73893 0.0474386 -7.52428e-08)
(8.73893 0.0474383 -9.47396e-08)
(8.73893 0.047438 -1.03619e-07)
(8.73893 0.0474377 -1.1452e-07)
(8.73893 0.0474375 -1.05799e-07)
(8.73888 0.0474371 -5.75823e-08)
(8.7482 0.00407446 -1.12821e-08)
(8.74825 0.00407431 -1.08884e-08)
(8.74825 0.00407393 -2.50048e-08)
(8.74825 0.0040734 -5.01945e-08)
(8.74825 0.00407272 -7.89457e-08)
(8.74825 0.00407192 -1.12828e-07)
(8.74825 0.00407102 -1.53291e-07)
(8.74825 0.00407006 -1.99565e-07)
(8.74824 0.00406907 -2.54007e-07)
(8.74824 0.00406807 -3.17497e-07)
(8.74824 0.00406708 -3.85679e-07)
(8.74824 0.00406614 -4.54275e-07)
(8.74824 0.00406526 -5.17017e-07)
(8.74824 0.00406446 -5.68139e-07)
(8.74824 0.00406377 -5.99736e-07)
(8.74823 0.00406318 -6.08405e-07)
(8.74823 0.0040627 -5.81857e-07)
(8.74823 0.00406234 -5.2232e-07)
(8.74823 0.00406209 -3.84996e-07)
(8.74818 0.00406198 -1.37173e-07)
(8.73979 -0.0100307 -1.3772e-07)
(8.73984 -0.0100308 -4.2318e-07)
(8.73984 -0.0100308 -6.86656e-07)
(8.73984 -0.0100309 -9.29847e-07)
(8.73984 -0.010031 -1.13659e-06)
(8.73984 -0.010031 -1.30607e-06)
(8.73984 -0.0100311 -1.43503e-06)
(8.73984 -0.0100312 -1.52418e-06)
(8.73984 -0.0100313 -1.57544e-06)
(8.73984 -0.0100314 -1.59021e-06)
(8.73984 -0.0100315 -1.57014e-06)
(8.73984 -0.0100315 -1.51528e-06)
(8.73984 -0.0100316 -1.42663e-06)
(8.73984 -0.0100317 -1.30727e-06)
(8.73984 -0.0100318 -1.16044e-06)
(8.73983 -0.0100319 -9.99243e-07)
(8.73983 -0.010032 -8.19163e-07)
(8.73983 -0.0100321 -6.37977e-07)
(8.73983 -0.0100322 -3.83047e-07)
(8.73979 -0.0100321 -1.15889e-07)
(8.75737 -0.0434859 -1.61335e-08)
(8.75741 -0.043486 -6.11572e-08)
(8.75741 -0.0434856 -1.07012e-07)
(8.75741 -0.0434851 -1.57438e-07)
(8.75741 -0.0434844 -2.03018e-07)
(8.75741 -0.0434837 -2.4689e-07)
(8.75741 -0.0434828 -2.90497e-07)
(8.75741 -0.0434819 -3.37149e-07)
(8.75741 -0.0434811 -3.90268e-07)
(8.7574 -0.0434802 -4.52052e-07)
(8.7574 -0.0434794 -5.21548e-07)
(8.7574 -0.0434787 -5.95065e-07)
(8.7574 -0.0434782 -6.65572e-07)
(8.7574 -0.0434777 -7.25143e-07)
(8.7574 -0.0434774 -7.6154e-07)
(8.7574 -0.0434772 -7.76335e-07)
(8.7574 -0.0434771 -7.44707e-07)
(8.7574 -0.0434771 -6.78016e-07)
(8.7574 -0.0434772 -4.9244e-07)
(8.75735 -0.043477 -1.77622e-07)
(8.79664 -0.060394 7.08612e-09)
(8.79669 -0.0603946 3.18141e-08)
(8.79669 -0.0603949 4.22541e-08)
(8.79668 -0.0603954 3.81104e-08)
(8.79668 -0.0603959 2.37256e-08)
(8.79668 -0.0603965 -2.76128e-09)
(8.79668 -0.0603972 -4.45391e-08)
(8.79668 -0.060398 -1.03716e-07)
(8.79668 -0.0603988 -1.81637e-07)
(8.79668 -0.0603995 -2.7723e-07)
(8.79667 -0.0604003 -3.87557e-07)
(8.79667 -0.060401 -5.03551e-07)
(8.79667 -0.0604017 -6.15076e-07)
(8.79667 -0.0604022 -7.10959e-07)
(8.79667 -0.0604027 -7.73362e-07)
(8.79667 -0.060403 -8.05426e-07)
(8.79667 -0.0604033 -7.81515e-07)
(8.79667 -0.0604034 -7.16583e-07)
(8.79667 -0.0604035 -5.19186e-07)
(8.79662 -0.060403 -1.76062e-07)
(8.82234 -0.106524 -1.29185e-07)
(8.82239 -0.106525 -4.37662e-07)
(8.82239 -0.106525 -7.06268e-07)
(8.82239 -0.106525 -9.5957e-07)
(8.82239 -0.106526 -1.17739e-06)
(8.82239 -0.106526 -1.36046e-06)
(8.82239 -0.106527 -1.5074e-06)
(8.82239 -0.106528 -1.61879e-06)
(8.82239 -0.106528 -1.69634e-06)
(8.82239 -0.106529 -1.74138e-06)
(8.82239 -0.10653 -1.75467e-06)
(8.82239 -0.10653 -1.73465e-06)
(8.82239 -0.106531 -1.67842e-06)
(8.82238 -0.106531 -1.58611e-06)
(8.82238 -0.106532 -1.4524e-06)
(8.82238 -0.106532 -1.29307e-06)
(8.82238 -0.106533 -1.09013e-06)
(8.82238 -0.106533 -8.75773e-07)
(8.82238 -0.106533 -5.36566e-07)
(8.82233 -0.106532 -1.72771e-07)
(8.92576 -0.117749 -1.06763e-07)
(8.92581 -0.11775 -2.5134e-07)
(8.92581 -0.11775 -4.10784e-07)
(8.92581 -0.11775 -5.74689e-07)
(8.9258 -0.117751 -7.37615e-07)
(8.9258 -0.117751 -8.94599e-07)
(8.9258 -0.117751 -1.04578e-06)
(8.9258 -0.117752 -1.18881e-06)
(8.9258 -0.117752 -1.32296e-06)
(8.9258 -0.117752 -1.44405e-06)
(8.9258 -0.117753 -1.54598e-06)
(8.92579 -0.117753 -1.62091e-06)
(8.92579 -0.117753 -1.65819e-06)
(8.92579 -0.117754 -1.6502e-06)
(8.92579 -0.117754 -1.58283e-06)
(8.92579 -0.117754 -1.46627e-06)
(8.92579 -0.117754 -1.28101e-06)
(8.92579 -0.117754 -1.04495e-06)
(8.92579 -0.117754 -6.77346e-07)
(8.92574 -0.117753 -1.98063e-07)
(8.94634 -0.206064 -1.55608e-07)
(8.94639 -0.206066 -5.87882e-07)
(8.94639 -0.206066 -9.55671e-07)
(8.94639 -0.206066 -1.30723e-06)
(8.94639 -0.206066 -1.60924e-06)
(8.94639 -0.206066 -1.86556e-06)
(8.94639 -0.206067 -2.06959e-06)
(8.94639 -0.206067 -2.21932e-06)
(8.94639 -0.206067 -2.31502e-06)
(8.94639 -0.206068 -2.35584e-06)
(8.94639 -0.206068 -2.34204e-06)
(8.94639 -0.206069 -2.27386e-06)
(8.94639 -0.206069 -2.15129e-06)
(8.94639 -0.206069 -1.97846e-06)
(8.94639 -0.20607 -1.75768e-06)
(8.94639 -0.20607 -1.51527e-06)
(8.94639 -0.20607 -1.23692e-06)
(8.94639 -0.20607 -9.77283e-07)
(8.94639 -0.206071 -6.21308e-07)
(8.94634 -0.206069 -2.3864e-07)
(9.14964 -0.20799 -1.88494e-07)
(9.14969 -0.207991 -3.59907e-07)
(9.14969 -0.207992 -5.76819e-07)
(9.14969 -0.207992 -8.21299e-07)
(9.14969 -0.207992 -1.06331e-06)
(9.14969 -0.207992 -1.30308e-06)
(9.14969 -0.207993 -1.53142e-06)
(9.14969 -0.207993 -1.74512e-06)
(9.14968 -0.207994 -1.93889e-06)
(9.14968 -0.207994 -2.10554e-06)
(9.14968 -0.207995 -2.2369e-06)
(9.14968 -0.207995 -2.32334e-06)
(9.14968 -0.207996 -2.35359e-06)
(9.14968 -0.207996 -2.31898e-06)
(9.14968 -0.207996 -2.2085e-06)
(9.14968 -0.207997 -2.0284e-06)
(9.14967 -0.207997 -1.76401e-06)
(9.14967 -0.207997 -1.45232e-06)
(9.14967 -0.207997 -9.80006e-07)
(9.14962 -0.207996 -2.81197e-07)
(9.14781 -0.406136 -2.13281e-07)
(9.14786 -0.406139 -7.75994e-07)
(9.14786 -0.406139 -1.2533e-06)
(9.14786 -0.406139 -1.7359e-06)
(9.14787 -0.40614 -2.14701e-06)
(9.14787 -0.40614 -2.50368e-06)
(9.14787 -0.40614 -2.78638e-06)
(9.14787 -0.406141 -2.99309e-06)
(9.14787 -0.406141 -3.12071e-06)
(9.14787 -0.406141 -3.16634e-06)
(9.14787 -0.406142 -3.13092e-06)
(9.14787 -0.406142 -3.01609e-06)
(9.14787 -0.406142 -2.82733e-06)
(9.14787 -0.406143 -2.57467e-06)
(9.14787 -0.406143 -2.26444e-06)
(9.14787 -0.406143 -1.93306e-06)
(9.14788 -0.406143 -1.56814e-06)
(9.14788 -0.406144 -1.25284e-06)
(9.14788 -0.406144 -7.84644e-07)
(9.14783 -0.406141 -2.91084e-07)
(9.50269 -0.396962 -4.07253e-07)
(9.50274 -0.396965 -6.25749e-07)
(9.50274 -0.396965 -8.49108e-07)
(9.50274 -0.396966 -1.20646e-06)
(9.50274 -0.396966 -1.50233e-06)
(9.50274 -0.396967 -1.82564e-06)
(9.50274 -0.396967 -2.11148e-06)
(9.50273 -0.396968 -2.37618e-06)
(9.50273 -0.396969 -2.60081e-06)
(9.50273 -0.39697 -2.78048e-06)
(9.50273 -0.39697 -2.90605e-06)
(9.50273 -0.396971 -2.96778e-06)
(9.50273 -0.396971 -2.96005e-06)
(9.50273 -0.396972 -2.87395e-06)
(9.50273 -0.396972 -2.69633e-06)
(9.50272 -0.396973 -2.44118e-06)
(9.50272 -0.396973 -2.05619e-06)
(9.50272 -0.396973 -1.64093e-06)
(9.50272 -0.396973 -9.62766e-07)
(9.50267 -0.39697 -1.4628e-07)
(9.4602 -0.853687 -5.49935e-07)
(9.46026 -0.853693 -1.32744e-06)
(9.46026 -0.853693 -1.83987e-06)
(9.46026 -0.853695 -2.48483e-06)
(9.46026 -0.853696 -3.00629e-06)
(9.46027 -0.853698 -3.49748e-06)
(9.46027 -0.853699 -3.8738e-06)
(9.46027 -0.853701 -4.15091e-06)
(9.46027 -0.853703 -4.30754e-06)
(9.46028 -0.853705 -4.34508e-06)
(9.46028 -0.853707 -4.26189e-06)
(9.46028 -0.853709 -4.06476e-06)
(9.46029 -0.85371 -3.76453e-06)
(9.46029 -0.853711 -3.38112e-06)
(9.46029 -0.853712 -2.92257e-06)
(9.46029 -0.853713 -2.44392e-06)
(9.4603 -0.853714 -1.86547e-06)
(9.4603 -0.853714 -1.34406e-06)
(9.4603 -0.853714 -5.5341e-07)
(9.46025 -0.853708 -3.29049e-08)
(10.0195 -0.84183 4.74816e-07)
(10.0195 -0.841835 -2.03184e-06)
(10.0195 -0.841835 -2.30553e-06)
(10.0195 -0.841836 -3.36998e-06)
(10.0195 -0.841836 -4.04463e-06)
(10.0195 -0.841837 -4.75346e-06)
(10.0195 -0.841838 -5.29002e-06)
(10.0195 -0.841839 -5.70676e-06)
(10.0195 -0.84184 -5.96088e-06)
(10.0195 -0.841841 -6.05255e-06)
(10.0195 -0.841842 -5.97562e-06)
(10.0195 -0.841843 -5.73675e-06)
(10.0196 -0.841844 -5.34824e-06)
(10.0196 -0.841845 -4.83994e-06)
(10.0196 -0.841846 -4.21762e-06)
(10.0196 -0.841847 -3.57799e-06)
(10.0196 -0.841848 -2.74254e-06)
(10.0196 -0.841848 -2.18353e-06)
(10.0196 -0.841849 -6.47233e-07)
(10.0195 -0.841844 -1.32841e-06)
(8.75861 0.646544 1.08284e-07)
(8.75865 0.646547 -6.98238e-07)
(8.75865 0.646546 -8.78691e-07)
(8.75865 0.646545 -1.30497e-06)
(8.75865 0.646544 -1.54959e-06)
(8.75866 0.646543 -1.82692e-06)
(8.75866 0.646541 -2.02822e-06)
(8.75866 0.64654 -2.19341e-06)
(8.75866 0.646538 -2.30321e-06)
(8.75866 0.646537 -2.36082e-06)
(8.75866 0.646535 -2.35782e-06)
(8.75866 0.646534 -2.29774e-06)
(8.75866 0.646533 -2.18867e-06)
(8.75866 0.646532 -2.0258e-06)
(8.75866 0.646531 -1.82734e-06)
(8.75866 0.64653 -1.60584e-06)
(8.75866 0.64653 -1.32245e-06)
(8.75866 0.646529 -1.12017e-06)
(8.75866 0.646529 -5.78201e-07)
(8.75862 0.646525 -5.91793e-07)
(8.83723 0.656887 -4.25716e-07)
(8.83727 0.656891 -1.39339e-06)
(8.83727 0.656892 -2.20911e-06)
(8.83727 0.656893 -3.01731e-06)
(8.83727 0.656895 -3.64437e-06)
(8.83727 0.656897 -4.18311e-06)
(8.83727 0.656899 -4.56274e-06)
(8.83727 0.656901 -4.80824e-06)
(8.83727 0.656903 -4.90814e-06)
(8.83727 0.656905 -4.8736e-06)
(8.83727 0.656907 -4.71139e-06)
(8.83727 0.65691 -4.43471e-06)
(8.83727 0.656911 -4.06197e-06)
(8.83727 0.656913 -3.60839e-06)
(8.83727 0.656915 -3.10826e-06)
(8.83727 0.656916 -2.58298e-06)
(8.83727 0.656917 -2.02436e-06)
(8.83727 0.656918 -1.50432e-06)
(8.83727 0.656918 -8.66978e-07)
(8.83722 0.656914 -3.52418e-07)
(8.87151 0.401163 1.41783e-07)
(8.87156 0.401166 4.18496e-07)
(8.87156 0.401167 7.72209e-07)
(8.87156 0.401169 1.00177e-06)
(8.87155 0.40117 1.22774e-06)
(8.87155 0.401172 1.35308e-06)
(8.87155 0.401175 1.42367e-06)
(8.87155 0.401177 1.4209e-06)
(8.87155 0.401179 1.36234e-06)
(8.87155 0.401182 1.25566e-06)
(8.87155 0.401184 1.11404e-06)
(8.87155 0.401187 9.518e-07)
(8.87155 0.401189 7.77081e-07)
(8.87155 0.401191 6.10762e-07)
(8.87155 0.401193 4.51371e-07)
(8.87155 0.401194 3.19713e-07)
(8.87155 0.401195 2.15021e-07)
(8.87155 0.401196 1.10352e-07)
(8.87155 0.401197 5.88253e-08)
(8.8715 0.401195 -5.50571e-08)
(8.77726 0.397866 -4.80935e-08)
(8.77731 0.397869 -2.11349e-07)
(8.77731 0.397869 -3.11311e-07)
(8.77731 0.397869 -4.29613e-07)
(8.77731 0.397869 -5.02865e-07)
(8.77731 0.39787 -5.72602e-07)
(8.77731 0.39787 -6.1371e-07)
(8.77731 0.39787 -6.39589e-07)
(8.77731 0.39787 -6.44362e-07)
(8.77731 0.397871 -6.31206e-07)
(8.77731 0.397871 -6.01622e-07)
(8.77731 0.397871 -5.56159e-07)
(8.77731 0.397872 -4.99411e-07)
(8.77731 0.397872 -4.30396e-07)
(8.77731 0.397872 -3.54704e-07)
(8.77731 0.397873 -2.72972e-07)
(8.77731 0.397873 -1.82638e-07)
(8.77731 0.397873 -1.19098e-07)
(8.77731 0.397873 -6.28565e-08)
(8.77726 0.397871 -7.3681e-08)
(8.79732 0.228867 1.64543e-07)
(8.79737 0.228869 5.61442e-07)
(8.79737 0.228869 9.5923e-07)
(8.79737 0.228869 1.28696e-06)
(8.79737 0.22887 1.56938e-06)
(8.79737 0.228871 1.76791e-06)
(8.79736 0.228871 1.89448e-06)
(8.79736 0.228872 1.94379e-06)
(8.79736 0.228873 1.92463e-06)
(8.79736 0.228874 1.84549e-06)
(8.79736 0.228874 1.71815e-06)
(8.79736 0.228875 1.55634e-06)
(8.79736 0.228876 1.36923e-06)
(8.79736 0.228877 1.17791e-06)
(8.79736 0.228877 9.84232e-07)
(8.79736 0.228878 8.15719e-07)
(8.79736 0.228878 6.55326e-07)
(8.79735 0.228878 5.00676e-07)
(8.79735 0.228879 3.10227e-07)
(8.79731 0.228877 7.88715e-08)
(8.70794 0.222237 6.58813e-08)
(8.70799 0.222238 1.90051e-07)
(8.70799 0.222238 3.25037e-07)
(8.70799 0.222238 4.35883e-07)
(8.70799 0.222238 5.49917e-07)
(8.70799 0.222237 6.39007e-07)
(8.70799 0.222237 7.12837e-07)
(8.70799 0.222236 7.63445e-07)
(8.70799 0.222236 7.93457e-07)
(8.70799 0.222236 8.02314e-07)
(8.70798 0.222235 7.91568e-07)
(8.70798 0.222235 7.64606e-07)
(8.70798 0.222234 7.21034e-07)
(8.70798 0.222234 6.68893e-07)
(8.70798 0.222234 6.08866e-07)
(8.70798 0.222234 5.43043e-07)
(8.70798 0.222233 4.75961e-07)
(8.70798 0.222233 3.74832e-07)
(8.70798 0.222233 2.3598e-07)
(8.70793 0.222232 5.71391e-08)
(8.71837 0.101736 1.03814e-07)
(8.71842 0.101737 3.72925e-07)
(8.71842 0.101737 6.28002e-07)
(8.71842 0.101737 8.46036e-07)
(8.71842 0.101737 1.03016e-06)
(8.71842 0.101737 1.16539e-06)
(8.71842 0.101737 1.2521e-06)
(8.71842 0.101737 1.28844e-06)
(8.71842 0.101737 1.27654e-06)
(8.71842 0.101737 1.2223e-06)
(8.71841 0.101737 1.13049e-06)
(8.71841 0.101737 1.01191e-06)
(8.71841 0.101737 8.74671e-07)
(8.71841 0.101737 7.32852e-07)
(8.71841 0.101737 5.92203e-07)
(8.71841 0.101737 4.68885e-07)
(8.71841 0.101737 3.58738e-07)
(8.71841 0.101737 2.56609e-07)
(8.71841 0.101737 1.52601e-07)
(8.71836 0.101736 4.94864e-08)
(8.67412 0.0898552 7.89166e-08)
(8.67417 0.0898557 2.15415e-07)
(8.67417 0.0898556 3.5951e-07)
(8.67417 0.0898554 4.84956e-07)
(8.67417 0.0898551 6.08725e-07)
(8.67417 0.0898548 7.11708e-07)
(8.67417 0.0898544 7.97435e-07)
(8.67417 0.089854 8.58874e-07)
(8.67417 0.0898536 8.94459e-07)
(8.67417 0.0898532 9.03613e-07)
(8.67416 0.0898529 8.8539e-07)
(8.67416 0.0898525 8.45277e-07)
(8.67416 0.0898521 7.84633e-07)
(8.67416 0.0898517 7.09122e-07)
(8.67416 0.0898514 6.24276e-07)
(8.67416 0.089851 5.28278e-07)
(8.67416 0.0898507 4.32638e-07)
(8.67416 0.0898504 3.08584e-07)
(8.67416 0.0898502 1.88851e-07)
(8.67411 0.0898495 5.20522e-08)
(8.68261 0.00291795 4.39502e-08)
(8.68266 0.00291779 1.91871e-07)
(8.68266 0.00291738 3.20288e-07)
(8.68266 0.00291681 4.3012e-07)
(8.68266 0.00291608 5.22267e-07)
(8.68266 0.00291522 5.91036e-07)
(8.68266 0.00291425 6.32598e-07)
(8.68266 0.00291321 6.43677e-07)
(8.68265 0.00291213 6.2081e-07)
(8.68265 0.00291103 5.66339e-07)
(8.68265 0.00290995 4.81718e-07)
(8.68265 0.00290891 3.75093e-07)
(8.68265 0.00290793 2.54367e-07)
(8.68265 0.00290704 1.30604e-07)
(8.68265 0.00290625 1.61345e-08)
(8.68265 0.00290558 -8.3554e-08)
(8.68265 0.00290503 -1.45537e-07)
(8.68265 0.00290461 -1.85639e-07)
(8.68265 0.00290432 -1.42898e-07)
(8.6826 0.00290421 -2.85754e-08)
(8.67911 -0.0225515 -9.72028e-08)
(8.67916 -0.0225516 -2.94673e-07)
(8.67916 -0.0225516 -4.67864e-07)
(8.67916 -0.0225516 -6.23563e-07)
(8.67916 -0.0225517 -7.48533e-07)
(8.67915 -0.0225517 -8.45849e-07)
(8.67915 -0.0225517 -9.11701e-07)
(8.67915 -0.0225517 -9.51249e-07)
(8.67915 -0.0225517 -9.66945e-07)
(8.67915 -0.0225517 -9.60007e-07)
(8.67915 -0.0225517 -9.35156e-07)
(8.67915 -0.0225517 -8.89382e-07)
(8.67915 -0.0225517 -8.24589e-07)
(8.67915 -0.0225518 -7.41753e-07)
(8.67915 -0.0225519 -6.41222e-07)
(8.67915 -0.0225519 -5.3861e-07)
(8.67914 -0.022552 -4.1658e-07)
(8.67914 -0.0225521 -3.14651e-07)
(8.67914 -0.0225522 -1.41393e-07)
(8.6791 -0.0225521 -1.21358e-08)
(8.69378 -0.0944106 6.61146e-08)
(8.69383 -0.0944112 1.93043e-07)
(8.69383 -0.094411 3.12529e-07)
(8.69383 -0.0944107 4.16815e-07)
(8.69383 -0.0944103 5.09226e-07)
(8.69383 -0.09441 5.80956e-07)
(8.69383 -0.0944095 6.26863e-07)
(8.69383 -0.0944091 6.3955e-07)
(8.69383 -0.0944087 6.14655e-07)
(8.69382 -0.0944083 5.51875e-07)
(8.69382 -0.0944079 4.51161e-07)
(8.69382 -0.0944077 3.20777e-07)
(8.69382 -0.0944075 1.7086e-07)
(8.69382 -0.0944073 1.5719e-08)
(8.69382 -0.0944073 -1.24839e-07)
(8.69382 -0.0944073 -2.48893e-07)
(8.69382 -0.0944073 -3.15119e-07)
(8.69382 -0.0944074 -3.54152e-07)
(8.69382 -0.0944075 -2.69363e-07)
(8.69377 -0.094407 -8.59876e-08)
(8.73054 -0.12323 -4.2504e-08)
(8.73058 -0.123231 -6.49483e-08)
(8.73058 -0.123232 -9.27297e-08)
(8.73058 -0.123232 -1.23519e-07)
(8.73058 -0.123233 -1.54495e-07)
(8.73058 -0.123234 -1.8746e-07)
(8.73058 -0.123235 -2.24422e-07)
(8.73058 -0.123236 -2.70125e-07)
(8.73058 -0.123237 -3.27059e-07)
(8.73058 -0.123238 -3.90339e-07)
(8.73058 -0.12324 -4.62149e-07)
(8.73058 -0.123241 -5.33311e-07)
(8.73058 -0.123242 -5.93466e-07)
(8.73058 -0.123242 -6.37512e-07)
(8.73058 -0.123243 -6.47038e-07)
(8.73058 -0.123244 -6.33447e-07)
(8.73058 -0.123244 -5.62579e-07)
(8.73058 -0.123244 -4.78632e-07)
(8.73058 -0.123244 -2.89984e-07)
(8.73053 -0.123244 -5.06983e-08)
(8.74646 -0.217667 -9.05789e-08)
(8.74651 -0.217669 -3.41538e-07)
(8.74651 -0.217669 -5.54044e-07)
(8.74651 -0.217669 -7.52871e-07)
(8.74651 -0.217669 -9.16664e-07)
(8.74651 -0.217669 -1.05537e-06)
(8.74651 -0.217669 -1.16515e-06)
(8.74651 -0.21767 -1.25061e-06)
(8.74651 -0.21767 -1.31297e-06)
(8.74651 -0.21767 -1.35316e-06)
(8.74651 -0.217671 -1.37351e-06)
(8.74651 -0.217671 -1.37056e-06)
(8.7465 -0.217671 -1.34168e-06)
(8.7465 -0.217672 -1.28483e-06)
(8.7465 -0.217672 -1.19123e-06)
(8.7465 -0.217672 -1.06981e-06)
(8.7465 -0.217673 -8.92662e-07)
(8.7465 -0.217673 -7.1167e-07)
(8.7465 -0.217673 -4.18197e-07)
(8.74645 -0.217672 -1.32279e-07)
(8.83226 -0.23503 -1.07264e-07)
(8.83231 -0.235032 -1.83157e-07)
(8.83231 -0.235032 -2.69401e-07)
(8.83231 -0.235033 -3.6739e-07)
(8.83231 -0.235033 -4.68588e-07)
(8.83231 -0.235033 -5.74161e-07)
(8.83231 -0.235034 -6.83327e-07)
(8.8323 -0.235034 -7.95768e-07)
(8.8323 -0.235034 -9.10328e-07)
(8.8323 -0.235035 -1.02135e-06)
(8.8323 -0.235035 -1.12327e-06)
(8.8323 -0.235036 -1.20588e-06)
(8.8323 -0.235036 -1.25907e-06)
(8.8323 -0.235036 -1.27373e-06)
(8.8323 -0.235037 -1.23022e-06)
(8.8323 -0.235037 -1.13906e-06)
(8.8323 -0.235037 -9.68504e-07)
(8.8323 -0.235037 -7.68832e-07)
(8.83229 -0.235037 -4.72326e-07)
(8.83225 -0.235036 -9.90335e-08)
(8.83936 -0.385728 -1.42898e-07)
(8.83941 -0.385731 -5.56935e-07)
(8.83941 -0.385731 -8.89781e-07)
(8.83941 -0.385731 -1.20814e-06)
(8.83941 -0.385732 -1.46755e-06)
(8.83941 -0.385732 -1.69456e-06)
(8.83941 -0.385732 -1.87195e-06)
(8.83941 -0.385733 -2.00321e-06)
(8.83941 -0.385733 -2.08598e-06)
(8.83941 -0.385734 -2.12149e-06)
(8.83941 -0.385734 -2.11183e-06)
(8.83941 -0.385735 -2.05766e-06)
(8.83941 -0.385735 -1.96212e-06)
(8.83941 -0.385736 -1.82419e-06)
(8.83941 -0.385737 -1.64466e-06)
(8.8394 -0.385737 -1.43122e-06)
(8.8394 -0.385737 -1.1537e-06)
(8.8394 -0.385738 -8.80291e-07)
(8.8394 -0.385738 -5.13562e-07)
(8.83936 -0.385735 -1.92876e-07)
(8.97538 -0.388039 -1.84022e-07)
(8.97543 -0.388041 -3.7929e-07)
(8.97543 -0.388042 -5.52145e-07)
(8.97543 -0.388042 -7.68372e-07)
(8.97543 -0.388043 -9.76621e-07)
(8.97543 -0.388043 -1.19419e-06)
(8.97542 -0.388044 -1.40299e-06)
(8.97542 -0.388044 -1.60587e-06)
(8.97542 -0.388045 -1.79329e-06)
(8.97542 -0.388046 -1.9591e-06)
(8.97542 -0.388047 -2.09367e-06)
(8.97542 -0.388047 -2.18698e-06)
(8.97542 -0.388048 -2.22618e-06)
(8.97542 -0.388048 -2.20081e-06)
(8.97542 -0.388049 -2.09522e-06)
(8.97542 -0.388049 -1.9104e-06)
(8.97542 -0.388049 -1.62096e-06)
(8.97542 -0.388049 -1.26527e-06)
(8.97541 -0.388049 -7.61542e-07)
(8.97536 -0.388047 -1.99219e-07)
(8.96265 -0.621324 -2.75701e-07)
(8.9627 -0.621329 -9.58752e-07)
(8.9627 -0.621329 -1.45042e-06)
(8.9627 -0.621329 -1.94598e-06)
(8.9627 -0.62133 -2.35142e-06)
(8.9627 -0.621331 -2.71065e-06)
(8.9627 -0.621331 -2.9812e-06)
(8.9627 -0.621332 -3.17343e-06)
(8.9627 -0.621333 -3.27669e-06)
(8.9627 -0.621334 -3.29472e-06)
(8.9627 -0.621335 -3.23208e-06)
(8.9627 -0.621336 -3.09461e-06)
(8.9627 -0.621337 -2.89376e-06)
(8.9627 -0.621338 -2.63853e-06)
(8.9627 -0.621339 -2.33038e-06)
(8.9627 -0.621339 -1.99464e-06)
(8.9627 -0.62134 -1.56809e-06)
(8.9627 -0.62134 -1.10473e-06)
(8.9627 -0.621341 -5.62784e-07)
(8.96265 -0.621337 -2.19613e-07)
(9.09047 -0.609892 -3.11148e-07)
(9.09051 -0.609896 -8.02443e-07)
(9.09051 -0.609897 -1.12855e-06)
(9.09051 -0.609898 -1.58937e-06)
(9.09051 -0.6099 -1.96373e-06)
(9.09051 -0.609901 -2.36873e-06)
(9.09051 -0.609903 -2.72426e-06)
(9.09051 -0.609905 -3.05278e-06)
(9.09051 -0.609907 -3.32861e-06)
(9.09051 -0.609909 -3.54635e-06)
(9.09051 -0.609911 -3.69347e-06)
(9.09051 -0.609913 -3.76236e-06)
(9.09051 -0.609915 -3.73877e-06)
(9.09051 -0.609916 -3.61767e-06)
(9.09051 -0.609917 -3.37723e-06)
(9.09051 -0.609918 -3.04112e-06)
(9.09051 -0.609919 -2.53751e-06)
(9.09051 -0.609919 -1.98317e-06)
(9.09051 -0.60992 -1.17752e-06)
(9.09046 -0.609916 -3.90679e-07)
(9.04281 -0.976625 -6.24575e-07)
(9.04286 -0.976632 -1.97274e-06)
(9.04286 -0.976633 -2.96554e-06)
(9.04286 -0.976634 -4.01794e-06)
(9.04286 -0.976636 -4.84452e-06)
(9.04286 -0.976637 -5.58736e-06)
(9.04286 -0.976639 -6.13011e-06)
(9.04287 -0.976641 -6.50007e-06)
(9.04287 -0.976643 -6.66839e-06)
(9.04287 -0.976645 -6.6414e-06)
(9.04287 -0.976647 -6.42677e-06)
(9.04287 -0.976649 -6.0414e-06)
(9.04287 -0.976651 -5.51183e-06)
(9.04287 -0.976652 -4.8789e-06)
(9.04287 -0.976653 -4.15839e-06)
(9.04287 -0.976654 -3.42982e-06)
(9.04287 -0.976655 -2.57538e-06)
(9.04287 -0.976655 -1.81673e-06)
(9.04287 -0.976656 -7.86329e-07)
(9.04282 -0.976649 -2.03215e-07)
(8.89266 -0.928157 -1.40255e-06)
(8.8927 -0.928162 -2.11699e-06)
(8.8927 -0.928162 -2.71554e-06)
(8.8927 -0.928162 -3.73493e-06)
(8.8927 -0.928162 -4.51107e-06)
(8.8927 -0.928161 -5.29847e-06)
(8.8927 -0.928161 -5.91421e-06)
(8.8927 -0.928161 -6.40802e-06)
(8.8927 -0.928161 -6.72896e-06)
(8.8927 -0.928161 -6.87552e-06)
(8.8927 -0.928162 -6.84167e-06)
(8.89271 -0.928162 -6.63605e-06)
(8.89271 -0.928162 -6.26729e-06)
(8.89271 -0.928163 -5.76031e-06)
(8.89271 -0.928163 -5.11288e-06)
(8.89271 -0.928164 -4.41017e-06)
(8.89271 -0.928165 -3.49192e-06)
(8.89271 -0.928165 -2.63662e-06)
(8.89272 -0.928166 -1.167e-06)
(8.89267 -0.928161 2.96847e-07)
(8.89734 0.740673 -1.95014e-07)
(8.89739 0.740678 -1.28533e-06)
(8.89739 0.740678 -1.58922e-06)
(8.89739 0.740678 -2.21285e-06)
(8.89739 0.740678 -2.6191e-06)
(8.89739 0.740679 -3.04552e-06)
(8.89739 0.740679 -3.34838e-06)
(8.89739 0.740679 -3.57799e-06)
(8.89739 0.740679 -3.70631e-06)
(8.89739 0.74068 -3.74106e-06)
(8.89739 0.74068 -3.68111e-06)
(8.89739 0.74068 -3.53124e-06)
(8.89739 0.74068 -3.30652e-06)
(8.89739 0.740681 -3.00969e-06)
(8.89739 0.740681 -2.65882e-06)
(8.89739 0.740681 -2.28373e-06)
(8.89739 0.740681 -1.80923e-06)
(8.89739 0.740681 -1.41784e-06)
(8.89739 0.740682 -5.98058e-07)
(8.89734 0.740677 -4.96237e-07)
(8.75512 0.749416 -5.18352e-07)
(8.75516 0.749421 -1.03302e-06)
(8.75516 0.749422 -1.45676e-06)
(8.75516 0.749423 -1.94134e-06)
(8.75516 0.749425 -2.32292e-06)
(8.75516 0.749427 -2.68025e-06)
(8.75516 0.74943 -2.93983e-06)
(8.75516 0.749433 -3.12774e-06)
(8.75516 0.749436 -3.2265e-06)
(8.75516 0.749438 -3.24289e-06)
(8.75515 0.749441 -3.17861e-06)
(8.75515 0.749444 -3.03916e-06)
(8.75515 0.749446 -2.83674e-06)
(8.75515 0.749449 -2.57304e-06)
(8.75515 0.749451 -2.26887e-06)
(8.75515 0.749453 -1.93642e-06)
(8.75515 0.749454 -1.54726e-06)
(8.75515 0.749455 -1.15513e-06)
(8.75515 0.749456 -6.38911e-07)
(8.7551 0.749452 -1.09331e-07)
(8.79312 0.460372 -1.15653e-07)
(8.79317 0.460375 2.4444e-07)
(8.79317 0.460375 5.68666e-07)
(8.79317 0.460376 7.80593e-07)
(8.79317 0.460377 9.9638e-07)
(8.79317 0.460378 1.11223e-06)
(8.79317 0.46038 1.18674e-06)
(8.79317 0.460381 1.19835e-06)
(8.79317 0.460383 1.16708e-06)
(8.79317 0.460385 1.09984e-06)
(8.79317 0.460386 1.00739e-06)
(8.79317 0.460388 9.03447e-07)
(8.79317 0.460389 7.90217e-07)
(8.79317 0.460391 6.8645e-07)
(8.79317 0.460392 5.84904e-07)
(8.79317 0.460393 5.03268e-07)
(8.79317 0.460394 4.43895e-07)
(8.79317 0.460395 3.61409e-07)
(8.79317 0.460395 2.71005e-07)
(8.79312 0.460393 2.01977e-07)
(8.68557 0.459916 -1.11563e-07)
(8.68562 0.459918 -1.94165e-07)
(8.68562 0.459919 -2.40043e-07)
(8.68562 0.459919 -3.03779e-07)
(8.68562 0.45992 -3.42188e-07)
(8.68562 0.45992 -3.90538e-07)
(8.68562 0.459921 -4.20587e-07)
(8.68562 0.459922 -4.44437e-07)
(8.68562 0.459922 -4.54794e-07)
(8.68562 0.459923 -4.50025e-07)
(8.68562 0.459924 -4.33627e-07)
(8.68562 0.459925 -4.02789e-07)
(8.68562 0.459926 -3.61153e-07)
(8.68562 0.459926 -3.06855e-07)
(8.68562 0.459927 -2.40858e-07)
(8.68562 0.459927 -1.62126e-07)
(8.68562 0.459928 -5.96193e-08)
(8.68562 0.459928 3.26972e-08)
(8.68561 0.459929 7.42466e-08)
(8.68557 0.459926 3.52823e-08)
(8.70477 0.262479 1.53632e-07)
(8.70482 0.262481 6.67474e-07)
(8.70482 0.262481 1.16596e-06)
(8.70482 0.262481 1.59347e-06)
(8.70482 0.262482 1.96316e-06)
(8.70482 0.262482 2.23668e-06)
(8.70482 0.262483 2.4254e-06)
(8.70482 0.262484 2.5235e-06)
(8.70481 0.262484 2.54106e-06)
(8.70481 0.262485 2.48911e-06)
(8.70481 0.262486 2.37782e-06)
(8.70481 0.262487 2.22342e-06)
(8.70481 0.262487 2.0331e-06)
(8.70481 0.262488 1.83037e-06)
(8.70481 0.262489 1.61421e-06)
(8.70481 0.262489 1.41752e-06)
(8.70481 0.26249 1.21921e-06)
(8.70481 0.26249 9.98339e-07)
(8.70481 0.26249 6.76855e-07)
(8.70476 0.262489 2.5208e-07)
(8.63553 0.256811 4.71394e-08)
(8.63558 0.256812 1.8778e-07)
(8.63558 0.256812 3.29584e-07)