/*--------------------------------*- C++ -*----------------------------------*\
| =========                 |                                                 |
| \\      /  F ield         | OpenFOAM: The Open Source CFD Toolbox           |
|  \\    /   O peration     | Version:  2212                                  |
|   \\  /    A nd           | Website:  www.openfoam.com                      |
|    \\/     M anipulation  |                                                 |
\*---------------------------------------------------------------------------*/
FoamFile
{
    version     2.0;
    format      ascii;
    arch        "LSB;label=32;scalar=64";
    class       volScalarField;
    location    "0.000276";
    object      p;
}
// * * * * * * * * * * * * * * * * * * * * * * * * * * * * * * * * * * * * * //

dimensions      [1 -1 -2 0 0 0 0];

internalField   nonuniform List<scalar> 
37872
(
158.702
159.446
159.849
160.599
161.559
162.694
163.932
165.369
167.098
169.091
171.32
173.837
176.468
179.205
183.62
190.277
191.686
194.473
200.218
217.978
227.578
237.907
248.93
260.143
268.033
278.525
282.105
283.728
283.865
279.6
276.138
272.481
268.287
263.499
259.059
254.614
250.016
244.953
239.186
232.574
225.005
216.691
208.69
200.478
193.276
189.639
179.92
145.491
146.175
146.589
147.278
148.162
149.193
150.33
151.665
153.253
155.105
157.206
159.599
162.12
164.914
168.701
172.45
174.662
178.459
188.878
199.229
203.958
217.32
225.648
236.232
245.107
254.772
259.354
261.151
260.965
257.733
254.57
251.326
247.825
243.838
239.935
236.048
232.316
228.577
224.469
219.884
214.784
208.896
202.421
195.475
189.211
186.171
179.146
141.534
142.188
142.616
143.287
144.15
145.151
146.26
147.567
149.114
150.898
152.955
155.335
157.861
160.779
164.276
166.526
169.338
173.984
186.349
193.056
196.67
210.66
218.311
228.257
237.832
247.129
252.245
254.195
253.876
251.683
248.761
245.73
242.53
238.879
235.142
231.379
227.818
224.484
220.957
217.128
212.931
207.864
201.814
195.152
189.076
186.377
182.758
139.775
140.415
140.853
141.516
142.37
143.355
144.451
145.747
147.275
149.028
151.064
153.434
155.993
159.022
162.265
163.79
166.931
172.26
184.987
190.033
193.836
207.472
215.072
224.448
234.278
243.335
248.677
250.609
250.479
249.014
246.295
243.413
240.398
236.959
233.334
229.649
226.132
222.971
219.706
216.251
212.486
207.739
201.799
197.17
193.019
190.978
188.71
139.221
139.855
140.3
140.961
141.811
142.791
143.883
145.176
146.696
148.433
150.438
152.775
155.411
158.534
161.474
162.702
165.946
171.677
184.316
188.592
192.776
205.99
213.749
222.847
232.686
241.485
246.918
248.794
249.088
247.907
245.333
242.528
239.591
236.249
232.673
229.019
225.508
222.426
219.272
215.972
212.389
207.867
204.03
200.265
197.196
195.461
193.849
139.047
139.679
140.126
140.787
141.637
142.615
143.705
144.998
146.516
148.244
150.23
152.547
155.237
158.409
161.127
162.316
165.531
171.486
182.517
187.482
192.321
205.057
213.198
222.116
231.935
239.796
245.918
247.993
248.598
247.493
245.025
242.262
239.36
236.059
232.497
228.849
225.344
222.287
219.174
215.919
212.458
209.479
206.445
203.442
200.974
199.529
198.259
138.992
139.624
140.072
140.733
141.582
142.559
143.648
144.941
146.457
148.181
150.161
152.473
155.192
158.38
160.941
162.204
165.38
171.498
180.257
185.084
192.094
204.591
212.959
221.754
231.463
239.022
245.239
247.753
248.445
247.365
244.963
242.219
239.333
236.046
232.487
228.84
225.336
222.28
219.547
216.827
214.126
211.598
209.073
206.627
204.641
203.482
202.402
138.981
139.613
140.06
140.72
141.569
142.546
143.635
144.926
146.441
148.164
150.14
152.453
155.183
158.51
160.798
162.181
165.351
172.963
178.939
183.964
191.825
204.326
212.73
221.553
231.193
239.11
245.006
247.692
248.415
247.345
245.785
243.706
241.22
238.191
234.613
230.942
227.397
224.609
221.936
219.266
216.697
214.363
212.116
209.952
208.294
207.364
206.442
139.022
139.629
140.066
140.722
141.569
142.546
143.634
144.925
146.44
148.162
150.138
152.451
155.327
159.209
160.719
162.181
165.522
173.473
178.228
183.419
191.654
203.198
212.044
221.415
230.945
239.099
244.91
247.686
248.472
248.567
247.586
245.536
242.992
240.036
236.693
233.232
229.721
226.764
224.152
221.608
219.211
217.006
215.054
213.225
211.824
211.075
210.288
140.021
140.59
140.978
141.601
142.424
143.413
144.494
145.741
147.215
148.876
150.783
153.1
156.451
159.783
160.69
162.198
165.994
173.748
177.874
183.139
191.495
202.299
211.507
221.135
230.812
238.935
244.878
247.732
249.131
249.367
248.83
247.059
244.782
242.033
238.792
235.37
231.874
228.985
226.482
224.119
221.872
219.81
217.979
216.367
215.157
214.546
213.865
140.661
141.263
141.665
142.293
143.12
144.102
145.183
146.441
147.924
149.607
151.555
153.952
157.432
160.235
161.254
162.35
166.851
173.91
177.707
182.807
191.29
201.612
211.132
220.82
230.76
238.73
244.877
247.88
249.972
250.313
250.116
248.589
246.478
243.883
240.834
237.565
234.089
231.175
228.729
226.489
224.392
222.467
220.787
219.352
218.29
217.796
217.202
141.494
142.077
142.467
143.093
143.919
144.907
145.992
147.25
148.734
150.417
152.372
154.799
158.289
160.822
162.009
163.29
167.306
173.963
177.594
182.491
190.54
199.902
210.813
220.256
230.593
238.612
244.88
248.265
250.68
251.179
251.188
250.004
248.103
245.724
242.824
239.699
236.287
233.372
230.958
228.81
226.839
225.038
223.49
222.212
221.269
220.864
220.355
142.238
142.848
143.241
143.867
144.691
145.673
146.756
148.017
149.502
151.194
153.179
155.648
158.951
161.35
162.769
164.38
168.952
173.994
177.306
182.285
189.884
198.046
210.243
219.702
230.341
238.454
244.876
248.916
251.127
252.055
252.07
251.243
249.583
247.425
244.738
241.809
238.471
235.552
233.154
231.074
229.208
227.517
226.074
224.907
224.051
223.697
223.251
143.097
143.681
144.065
144.69
145.514
146.502
147.588
148.847
150.334
152.028
154.017
156.479
159.603
162.024
163.619
165.499
169.901
174.079
176.784
182.069
189.651
197.551
209.549
218.7
230.245
238.394
244.869
249.297
251.572
252.773
252.821
252.309
250.928
248.986
246.533
243.793
240.597
237.706
235.324
233.297
231.513
229.897
228.52
227.421
226.616
226.285
225.884
143.903
144.5
144.892
145.516
146.338
147.318
148.403
149.666
151.155
152.86
154.869
157.334
160.27
162.681
164.413
166.623
171.271
174.208
176.619
181.886
189.576
197.134
208.09
218.344
230.117
238.318
244.809
249.523
252.39
253.543
253.647
253.294
252.171
250.46
248.241
245.721
242.683
239.828
237.46
235.476
233.772
232.223
230.874
229.807
229.033
228.707
228.337
144.732
145.311
145.697
146.319
147.141
148.126
149.215
150.478
151.974
153.688
155.7
158.119
160.873
163.379
165.255
167.754
172.215
174.491
176.574
181.404
189.555
196.938
207.463
218.17
229.711
238.179
244.687
249.612
253.137
254.275
254.431
254.204
253.326
251.84
249.841
247.569
244.739
241.956
239.606
237.652
236.02
234.552
233.226
232.16
231.409
231.081
230.738
145.545
146.128
146.519
147.139
147.959
148.941
150.03
151.297
152.795
154.514
156.531
158.939
161.654
164.087
166.136
169.042
173.072
174.626
176.572
180.436
189.548
196.86
207.079
217.864
229.039
237.743
244.463
249.626
253.489
255.036
255.275
255.128
254.467
253.217
251.39
249.371
246.774
244.092
241.767
239.83
238.26
236.89
235.633
234.569
233.839
233.51
233.194
146.374
146.954
147.338
147.96
148.78
149.768
150.861
152.129
153.635
155.364
157.379
159.738
162.307
164.759
167.163
170.548
173.535
174.656
176.608
179.231
189.557
196.819
206.79
217.441
228.64
236.99
243.674
249.618
253.634
255.7
256.048
256.012
255.53
254.476
252.853
251.091
248.77
246.242
243.968
242.039
240.503
239.224
238.062
237.026
236.318
235.993
235.702
147.239
147.824
148.209
148.829
149.648
150.634
151.727
153
154.507
156.235
158.241
160.578
163.124
165.665
168.322
171.938
173.871
174.7
176.751
178.764
189.636
196.796
206.615
216.545
227.576
235.709
242.125
249.551
253.675
256.238
256.875
256.891
256.565
255.67
254.24
252.708
250.675
248.348
246.166
244.258
242.738
241.528
240.461
239.485
238.793
238.474
238.203
148.09
148.679
149.063
149.684
150.504
151.491
152.587
153.862
155.374
157.103
159.097
161.39
163.872
166.505
169.608
173.031
174.164
174.726
176.729
179.031
189.947
196.789
206.374
215.273
226.371
233.286
241.736
249.245
253.681
256.482
257.608
257.711
257.525
256.772
255.531
254.194
252.446
250.364
248.328
246.47
244.961
243.796
242.812
241.899
241.22
240.91
240.66
148.926
149.516
149.9
150.52
151.338
152.324
153.419
154.696
156.206
157.928
159.907
162.193
164.742
167.534
171.055
173.682
174.427
174.838
176.642
179.914
189.979
196.822
206.141
214.785
224.817
232.595
241.406
248.494
253.66
256.572
258.312
258.539
258.455
257.874
256.76
255.551
254.051
252.227
250.379
248.613
247.122
245.982
245.073
244.242
243.593
243.3
243.074
149.715
150.313
150.698
151.318
152.137
153.126
154.222
155.501
157.012
158.731
160.702
162.98
165.527
168.498
172.369
174.068
174.675
175.269
176.502
180.864
190.266
197.215
205.937
214.182
222.889
231.975
240.812
246.726
253.488
256.59
258.646
259.252
259.301
258.91
257.926
256.783
255.483
253.914
252.293
250.668
249.224
248.097
247.233
246.481
245.888
245.614
245.418
150.507
151.109
151.492
152.112
152.929
153.916
155.013
156.292
157.801
159.512
161.471
163.753
166.387
169.755
173.419
174.377
174.941
175.655
176.094
181.765
191.634
198.164
205.86
213.445
221.41
231.358
239.781
244.658
252.893
256.574
258.787
259.908
260.09
259.918
259.078
257.929
256.777
255.429
254.046
252.61
251.258
250.153
249.308
248.607
248.075
247.83
247.665
151.288
151.897
152.284
152.903
153.722
154.71
155.807
157.087
158.595
160.303
162.262
164.56
167.25
171.053
173.979
174.687
175.206
175.654
175.895
183.377
195.387
198.535
205.832
213.117
220.97
230.44
237.811
244.106
251.81
256.475
258.831
260.383
260.75
260.765
260.129
258.995
257.974
256.811
255.659
254.445
253.239
252.197
251.368
250.686
250.194
249.978
249.849
152.009
152.622
153.014
153.633
154.454
155.442
156.542
157.824
159.331
161.035
162.989
165.296
168.067
172.31
174.379
175.071
175.394
175.491
176.42
185.605
196.603
198.676
205.812
212.975
220.52
229.728
237.016
243.913
249.713
256.138
258.835
260.605
261.328
261.461
261.056
259.989
259.073
258.044
257.087
256.101
255.088
254.17
253.404
252.749
252.294
252.103
252.011
152.653
153.277
153.676
154.295
155.119
156.11
157.212
158.497
160.005
161.708
163.665
165.992
168.846
173.173
174.84
175.44
175.568
175.42
177.609
187.897
196.877
198.69
205.781
212.896
220.284
229.205
236.723
243.863
249.019
255.5
258.666
260.691
261.799
262.07
261.873
260.921
260.069
259.113
258.292
257.507
256.701
255.955
255.319
254.739
254.349
254.203
254.154
153.284
153.918
154.317
154.936
155.764
156.76
157.865
159.151
160.66
162.363
164.317
166.654
169.632
173.982
175.35
175.737
175.759
175.889
179.033
189.677
197.022
199.195
205.762
212.86
220.009
228.827
236.634
243.841
248.77
254.871
258.329
260.714
262.291
262.66
262.605
261.834
261.011
260.082
259.34
258.708
258.087
257.519
257.054
256.604
256.32
256.236
256.239
153.959
154.603
154.99
155.611
156.443
157.449
158.558
159.843
161.355
163.06
165.018
167.386
170.542
174.68
175.797
176.116
176.121
176.468
180.13
191.02
197.244
200.267
205.911
212.861
219.555
228.682
236.635
243.741
248.68
254.032
257.945
260.7
262.537
263.222
263.302
262.725
261.944
261.025
260.313
259.783
259.304
258.879
258.569
258.267
258.118
258.114
258.174
154.796
155.441
155.813
156.434
157.264
158.275
159.385
160.666
162.177
163.88
165.837
168.23
171.661
175.478
176.282
176.514
176.609
177.436
181.853
192.385
197.545
200.982
206.396
212.973
219.464
229.019
236.922
243.42
248.675
253.073
257.525
260.404
262.658
263.803
264.02
263.635
262.924
262.025
261.325
260.862
260.493
260.171
259.974
259.797
259.744
259.811
259.924
155.785
156.445
156.816
157.434
158.26
159.259
160.362
161.643
163.149
164.845
166.806
169.257
173.069
176.264
176.889
177.059
177.383
178.947
183.869
194.104
198.237
201.942
206.88
213.442
219.525
231.657
238.232
243.407
248.697
252.666
257.083
260.233
262.713
264.394
264.768
264.555
263.96
263.101
262.403
261.985
261.701
261.465
261.344
261.271
261.288
261.413
261.571
156.751
157.413
157.784
158.398
159.219
160.211
161.311
162.591
164.094
165.788
167.763
170.29
174.415
176.886
177.423
177.581
178.236
180.442
185.962
195.402
199.517
202.781
207.401
213.949
220.289
232.549
238.405
243.431
248.684
252.414
256.611
260.034
262.728
264.792
265.434
265.433
264.982
264.182
263.484
263.096
262.882
262.731
262.677
262.676
262.768
262.958
263.165
157.708
158.366
158.735
159.344
160.16
161.148
162.244
163.521
165.022
166.717
168.716
171.352
175.658
177.465
177.967
178.225
179.309
181.861
188.262
196.652
199.778
203.469
207.981
214.269
220.942
232.226
238.167
243.416
248.562
252.076
256.051
259.678
262.71
264.978
266.016
266.189
265.926
265.21
264.518
264.16
264.017
263.955
263.955
264.003
264.16
264.414
264.673
158.63
159.287
159.652
160.256
161.068
162.053
163.145
164.419
165.917
167.618
169.653
172.436
176.657
177.958
178.493
178.801
180.06
183.189
190.525
198.507
199.821
204.371
208.462
214.64
221.861
232.246
238.085
243.38
248.22
251.681
255.538
259.31
262.488
265.054
266.55
266.889
266.788
266.171
265.487
265.164
265.09
265.117
265.178
265.274
265.473
265.777
266.081
159.586
160.238
160.597
161.197
162.004
162.985
164.074
165.345
166.843
168.556
170.636
173.618
177.518
178.511
179.069
179.448
180.818
184.519
192.631
199.374
199.813
205.181
208.997
215.11
222.979
232.327
237.982
243.333
247.766
251.519
255.244
258.842
262.328
265.078
266.988
267.528
267.577
267.096
266.431
266.128
266.085
266.192
266.338
266.498
266.742
267.093
267.442
160.559
161.213
161.567
162.163
162.966
163.944
165.028
166.295
167.797
169.528
171.664
174.831
178.222
179.097
179.658
180.194
181.946
186.03
194.757
199.555
199.717
206.012
210.078
215.97
224.476
232.793
237.756
243.21
247.587
251.456
255.106
258.509
261.99
265.08
267.21
268.09
268.265
267.987
267.355
267.041
266.999
267.168
267.393
267.619
267.913
268.322
268.721
161.579
162.234
162.585
163.179
163.977
164.949
166.03
167.297
168.802
170.552
172.738
176.068
178.885
179.712
180.302
181.076
183.295
187.778
196.602
199.589
199.062
206.81
210.887
217.084
225.262
232.964
237.691
242.754
247.428
251.445
255.068
258.377
261.724
264.978
267.317
268.569
268.9
268.842
268.272
267.942
267.891
268.097
268.389
268.668
269.001
269.45
269.889
162.582
163.233
163.582
164.172
164.964
165.93
167.009
168.275
169.788
171.565
173.803
177.177
179.49
180.397
181.051
182.09
184.632
189.74
198.059
199.605
197.707
207.801
212
218.367
226.509
232.996
237.663
242.442
247.257
251.477
255.067
258.335
261.628
264.9
267.364
269.005
269.524
269.606
269.164
268.811
268.73
268.951
269.309
269.643
270.012
270.489
270.963
163.583
164.234
164.582
165.169
165.958
166.92
167.996
169.264
170.786
172.582
174.848
178.167
180.169
181.113
181.845
183.156
186
191.821
199.075
199.629
198.003
208.595
213.113
219.619
227.099
232.983
237.85
242.305
247.145
251.632
255.146
258.324
261.54
264.748
267.378
269.311
270.1
270.285
270.015
269.638
269.517
269.726
270.132
270.521
270.926
271.432
271.937
164.579
165.227
165.571
166.153
166.937
167.895
168.97
170.24
171.772
173.592
175.885
179.071
180.868
181.876
182.728
184.298
187.402
193.83
199.7
199.692
198.683
209.184
214.144
220.964
227.93
232.971
237.947
242.253
247.073
251.636
255.219
258.332
261.464
264.646
267.381
269.463
270.584
270.919
270.822
270.439
270.278
270.444
270.871
271.299
271.73
272.257
272.785
165.599
166.237
166.58
167.158
167.937
168.891
169.965
171.238
172.78
174.615
176.905
179.919
181.638
182.666
183.647
185.464
188.85
195.683
200.136
199.871
199.795
209.876
215.302
221.999
228.377
232.833
237.947
242.238
247.012
251.557
255.189
258.349
261.429
264.554
267.379
269.539
270.996
271.516
271.571
271.231
271.034
271.14
271.561
272.018
272.462
272.995
273.525
166.631
167.26
167.6
168.17
168.943
169.895
170.968
172.243
173.794
175.641
177.924
180.765
182.433
183.475
184.672
186.729
190.358
197.374
200.391
200.139
201.299
210.429
216.447
223.151
228.565
232.283
237.639
242.234
246.984
251.51
255.129
258.333
261.411
264.507
267.335
269.577
271.221
272.08
272.229
272.016
271.788
271.813
272.19
272.669
273.127
273.665
274.192
167.72
168.338
168.673
169.239
170.005
170.951
172.025
173.304
174.861
176.711
178.96
181.613
183.264
184.39
185.787
188.067
191.947
198.824
200.658
200.76
202.909
211.339
217.82
224.088
228.898
232.133
237.325
242.277
246.975
251.471
255.054
258.301
261.392
264.471
267.298
269.596
271.332
272.46
272.83
272.781
272.554
272.496
272.778
273.249
273.724
274.266
274.795
168.815
169.426
169.761
170.32
171.08
172.021
173.091
174.37
175.933
177.78
179.986
182.487
184.133
185.373
186.992
189.469
193.6
199.892
201.096
202.688
204.773
212.47
219.336
225.224
229.268
232.061
237.172
242.662
246.975
251.459
254.999
258.254
261.371
264.425
267.273
269.604
271.386
272.65
273.38
273.465
273.319
273.215
273.375
273.779
274.243
274.781
275.313
169.912
170.512
170.844
171.395
172.149
173.084
174.154
175.437
176.999
178.833
180.982
183.339
185.007
186.43
188.255
190.859
195.15
200.59
201.739
204.885
206.674
213.644
220.676
226.082
229.979
232.186
237.138
243.025
247.219
251.455
254.941
258.196
261.352
264.401
267.223
269.606
271.412
272.74
273.666
274.042
274.051
273.968
274.039
274.34
274.755
275.263
275.785
170.945
171.545
171.874
172.42
173.169
174.103
175.169
176.449
178.007
179.824
181.915
184.173
185.93
187.523
189.505
192.196
196.41
201.197
202.538
204.971
208.434
214.888
221.912
227.058
230.388
232.539
237.76
243.302
247.442
251.473
254.917
258.099
261.306
264.336
267.147
269.542
271.418
272.779
273.807
274.409
274.617
274.636
274.681
274.885
275.246
275.72
276.229
172
172.608
172.927
173.466
174.212
175.145
176.21
177.49
179.042
180.837
182.876
185.06
186.906
188.656
190.775
193.534
197.575
201.937
203.32
204.996
211.118
216.062
222.901
227.814
231.126
233.408
239.349
243.869
247.765
251.536
254.904
257.965
261.176
264.265
267.053
269.429
271.399
272.792
273.87
274.596
274.989
275.144
275.234
275.377
275.675
276.117
276.606
173.096
173.716
174.027
174.563
175.307
176.238
177.3
178.573
180.114
181.886
183.88
186.026
187.978
189.867
192.063
194.849
198.7
202.897
204.316
204.756
216.196
217.218
223.918
228.666
232.052
236.945
241.464
245.266
248.244
251.716
254.902
257.914
260.993
264.148
266.97
269.357
271.307
272.795
273.896
274.687
275.178
275.445
275.614
275.81
276.043
276.439
276.91
174.221
174.859
175.16
175.692
176.433
177.361
178.417
179.685
181.216
182.966
184.93
187.054
189.091
191.074
193.343
196.12
199.85
203.943
205.197
205.391
217.144
218.284
224.683
229.171
233.141
239.11
243.949
246.848
248.878
252.003
254.934
257.897
260.916
264.021
266.863
269.272
271.246
272.757
273.903
274.73
275.27
275.6
275.824
276.025
276.259
276.594
277.059
175.371
176.017
176.305
176.834
177.571
178.496
179.548
180.807
182.323
184.049
185.986
188.1
190.214
192.281
194.613
197.353
201.063
204.836
206.045
207.07
217.369
219.308
225.526
229.762
234.467
239.842
244.701
247.453
249.591
252.406
255.104
257.897
260.886
263.956
266.814
269.236
271.219
272.74
273.906
274.751
275.315
275.674
275.924
276.124
276.353
276.651
277.098
176.608
177.254
177.537
178.062
178.794
179.712
180.756
182.001
183.504
185.212
187.131
189.242
191.381
193.526
195.885
198.602
202.388
205.765
207.068
209.316
217.515
220.326
226.201
230.523
235.687
240.111
245.087
247.748
250.307
252.948
255.413
257.973
260.885
263.942
266.79
269.228
271.214
272.737
273.909
274.768
275.358
275.743
275.995
276.177
276.391
276.666
277.093
177.876
178.522
178.802
179.324
180.051
180.96
181.996
183.234
184.723
186.415
188.319
190.432
192.602
194.792
197.152
199.875
203.758
206.836
208.264
211.847
217.564
221.456
227.035
231.585
237.247
240.302
245.505
247.911
251.088
253.607
255.872
258.255
260.953
263.943
266.784
269.226
271.221
272.753
273.926
274.796
275.399
275.788
276.034
276.204
276.403
276.668
277.026
179.131
179.788
180.064
180.586
181.311
182.215
183.245
184.477
185.959
187.643
189.539
191.644
193.818
196.012
198.366
201.164
205.097
207.916
209.568
213.945
217.547
222.602
227.83
232.843
238.133
240.403
245.765
248.34
251.744
254.186
256.354
258.564
261.137
264.011
266.814
269.255
271.246
272.778
273.953
274.82
275.423
275.811
276.051
276.212
276.403
276.598
276.938
180.382
181.035
181.309
181.83
182.552
183.449
184.475
185.701
187.176
188.85
190.735
192.83
195.001
197.183
199.555
202.443
206.268
209.027
211.03
215.564
217.455
223.705
228.687
234.035
238.949
240.891
245.859
249.166
252.319
254.726
256.854
258.949
261.379
264.141
266.887
269.319
271.313
272.841
274.001
274.86
275.452
275.832
276.06
276.201
276.326
276.494
276.804
181.642
182.275
182.551
183.067
183.783
184.674
185.695
186.915
188.385
190.056
191.934
194.015
196.166
198.353
200.78
203.701
207.35
210.139
212.611
217.041
217.407
224.858
229.793
235.275
239.587
241.06
245.837
250.012
252.939
255.284
257.379
259.393
261.692
264.358
267.039
269.453
271.45
272.975
274.106
274.945
275.517
275.883
276.083
276.197
276.242
276.374
276.65
182.914
183.524
183.8
184.31
185.019
185.904
186.92
188.134
189.598
191.261
193.126
195.187
197.34
199.563
202.022
204.924
208.386
211.249
214.364
218.068
217.96
226.03
231.195
236.862
240.339
241.31
246.081
250.519
253.621
255.883
257.929
259.888
262.086
264.642
267.257
269.644
271.651
273.192
274.306
275.108
275.647
275.984
276.144
276.2
276.217
276.257
276.489
184.215
184.803
185.079
185.583
186.284
187.163
188.173
189.381
190.839
192.5
194.36
196.423
198.585
200.837
203.307
206.162
209.471
212.49
216.054
218.891
219.46
227.31
232.664
238.256
241.376
242.767
246.878
251.162
254.287
256.527
258.513
260.409
262.526
264.974
267.513
269.863
271.857
273.41
274.521
275.304
275.818
276.128
276.246
276.253
276.215
276.186
276.359
185.542
186.121
186.39
186.888
187.58
188.451
189.456
190.659
192.115
193.773
195.632
197.695
199.873
202.134
204.608
207.407
210.653
213.829
217.379
220.102
221.59
228.791
234.354
239.452
243.228
245.785
248.951
252.298
255.004
257.204
259.132
260.968
263.002
265.351
267.808
270.104
272.071
273.618
274.723
275.488
275.981
276.256
276.34
276.314
276.226
276.148
276.271
186.894
187.469
187.731
188.224
188.909
189.771
190.769
191.967
193.419
195.076
196.939
199.013
201.205
203.479
205.921
208.709
211.979
215.173
218.517
221.636
224.162
230.288
235.763
240.169
245.005
249.406
250.319
253.3
255.903
257.965
259.789
261.544
263.485
265.732
268.111
270.361
272.301
273.835
274.924
275.665
276.131
276.368
276.429
276.363
276.242
276.126
276.197
188.275
188.839
189.097
189.583
190.258
191.107
192.094
193.286
194.733
196.389
198.255
200.333
202.527
204.793
207.241
210.027
213.306
216.553
219.804
223.057
226.497
231.883
237.09
240.942
246.623
252.349
252.575
254.654
256.914
258.854
260.55
262.206
264.053
266.197
268.481
270.683
272.615
274.146
275.215
275.906
276.309
276.497
276.535
276.426
276.259
276.121
276.131
189.627
190.174
190.429
190.905
191.568
192.406
193.384
194.568
196.008
197.661
199.529
201.609
203.806
206.088
208.549
211.323
214.561
217.818
221.136
224.373
228.029
233.373
238.235
242.123
247.796
253.363
255.685
255.748
257.909
259.797
261.365
262.901
264.639
266.679
268.883
271.037
272.958
274.499
275.57
276.216
276.538
276.671
276.673
276.521
276.295
276.121
276.097
190.964
191.489
191.743
192.213
192.866
193.694
194.662
195.836
197.269
198.92
200.786
202.867
205.072
207.359
209.81
212.598
215.764
219.04
222.387
225.767
229.683
234.847
239.375
243.442
248.994
253.601
256.719
256.795
258.911
260.805
262.264
263.676
265.297
267.225
269.339
271.441
273.352
274.91
275.994
276.585
276.847
276.938
276.86
276.669
276.398
276.158
276.095
192.307
192.817
193.066
193.529
194.172
194.991
195.952
197.119
198.545
200.192
202.057
204.142
206.354
208.646
211.117
213.888
217.032
220.271
223.676
227.1
231.269
236.266
240.543
244.743
250.155
253.501
256.983
257.554
260.097
261.954
263.277
264.538
266.01
267.804
269.803
271.842
273.742
275.325
276.44
277.008
277.224
277.27
277.105
276.862
276.553
276.261
276.141
193.685
194.182
194.43
194.888
195.525
196.337
197.291
198.45
199.871
201.516
203.381
205.466
207.681
209.992
212.464
215.229
218.365
221.603
225.024
228.43
232.721
237.631
241.89
246.241
251.442
253.392
257.025
258.223
261.255
263.144
264.371
265.497
266.81
268.448
270.316
272.27
274.142
275.746
276.91
277.488
277.681
277.67
277.428
277.11
276.75
276.409
276.241
195.058
195.547
195.797
196.254
196.886
197.689
198.638
199.793
201.21
202.851
204.715
206.802
209.026
211.338
213.818
216.603
219.722
223
226.379
229.834
234.31
238.952
243.259
247.738
252.506
253.946
257.008
259.803
262.583
264.412
265.562
266.571
267.733
269.191
270.9
272.733
274.549
276.165
277.407
278.022
278.218
278.17
277.853
277.458
277.034
276.638
276.417
196.409
196.893
197.145
197.597
198.226
199.024
199.969
201.123
202.538
204.18
206.048
208.138
210.363
212.684
215.167
217.929
221.029
224.296
227.731
231.237
235.552
240.283
244.673
249.378
253.67
255.88
257.865
261.887
263.968
265.687
266.753
267.668
268.703
269.994
271.526
273.207
274.941
276.545
277.865
278.557
278.775
278.729
278.364
277.907
277.425
276.975
276.7
197.709
198.197
198.449
198.901
199.529
200.326
201.27
202.422
203.838
205.481
207.35
209.443
211.675
214
216.484
219.257
222.356
225.588
229.077
232.586
236.883
241.636
246.088
250.847
255.128
259.321
259.545
263.021
265.253
266.952
267.969
268.824
269.748
270.869
272.2
273.704
275.316
276.879
278.234
279.023
279.289
279.283
278.891
278.394
277.878
277.389
277.071
199.037
199.528
199.776
200.226
200.851
201.645
202.587
203.737
205.152
206.795
208.668
210.766
213.002
215.334
217.826
220.603
223.691
226.921
230.404
233.912
238.187
243.041
247.623
252.469
257.288
261.4
262.067
263.968
266.396
268.185
269.145
269.957
270.817
271.811
272.96
274.272
275.727
277.216
278.576
279.467
279.798
279.83
279.431
278.888
278.338
277.823
277.469
200.407
200.907
201.154
201.601
202.224
203.014
203.952
205.102
206.517
208.162
210.037
212.137
214.376
216.714
219.204
221.981
225.071
228.296
231.77
235.328
239.662
244.493
249.184
253.788
259.57
262.464
265.035
265.065
267.446
269.425
270.394
271.173
271.977
272.871
273.855
274.962
276.228
277.594
278.92
279.928
280.364
280.429
280.062
279.466
278.863
278.312
277.917
201.722
202.236
202.487
202.934
203.557
204.343
205.279
206.428
207.841
209.485
211.364
213.472
215.72
218.064
220.571
223.356
226.455
229.655
233.13
236.711
241.054
245.958
250.741
255.397
261.469
264.515
266.901
266.568
268.73
270.578
271.566
272.331
273.103
273.939
274.777
275.701
276.767
277.972
279.214
280.309
280.904
281.06
280.773
280.159
279.502
278.909
278.47
202.946
203.483
203.735
204.181
204.804
205.589
206.523
207.673
209.088
210.736
212.62
214.734
216.988
219.345
221.859
224.659
227.758
230.967
234.421
238.038
242.38
247.37
252.219
256.729
262.467
266.402
268.041
268.34
270.073
271.708
272.717
273.478
274.205
274.997
275.718
276.468
277.33
278.34
279.456
280.523
281.283
281.574
281.436
280.874
280.192
279.567
279.088
204.127
204.689
204.937
205.383
206.009
206.797
207.729
208.877
210.29
211.936
213.823
215.947
218.214
220.583
223.118
225.919
229.01
232.226
235.658
239.298
243.623
248.728
253.558
258.066
263.119
267.201
269.615
270.251
271.336
272.85
273.81
274.57
275.27
276.009
276.658
277.277
277.964
278.773
279.709
280.682
281.5
281.902
281.957
281.519
280.867
280.228
279.72
205.322
205.907
206.142
206.585
207.21
208.002
208.932
210.074
211.488
213.138
215.028
217.16
219.441
221.826
224.36
227.159
230.261
233.494
236.907
240.58
244.947
250.104
254.877
259.271
263.863
267.623
270.129
271.879
272.59
274.081
274.979
275.72
276.392
277.061
277.651
278.165
278.705
279.325
280.061
280.888
281.641
282.119
282.286
282.007
281.439
280.819
280.298
206.628
207.214
207.427
207.868
208.491
209.291
210.22
211.354
212.762
214.409
216.298
218.437
220.728
223.117
225.658
228.468
231.571
234.818
238.25
241.941
246.329
251.465
256.228
260.744
265.077
268.069
271.011
273.071
273.935
275.301
276.16
276.886
277.545
278.171
278.706
279.144
279.574
280.042
280.585
281.222
281.861
282.302
282.511
282.343
281.878
281.302
280.787
208.129
208.715
208.914
209.349
209.963
210.756
211.675
212.795
214.193
215.833
217.719
219.856
222.15
224.551
227.099
229.899
233
236.246
239.684
243.397
247.781
252.902
257.741
262.494
266.299
268.795
272.225
274.183
275.423
276.695
277.486
278.175
278.81
279.404
279.881
280.251
280.593
280.941
281.327
281.768
282.249
282.598
282.756
282.611
282.208
281.675
281.17
209.779
210.351
210.551
210.979
211.581
212.355
213.26
214.373
215.76
217.39
219.265
221.396
223.689
226.085
228.636
231.453
234.565
237.812
241.209
244.936
249.288
254.379
259.464
264.261
267.361
269.709
274.678
275.274
276.693
278.099
278.854
279.502
280.109
280.684
281.125
281.445
281.723
281.985
282.259
282.556
282.862
283.089
283.184
282.986
282.574
282.047
281.535
211.417
211.978
212.183
212.609
213.205
213.965
214.861
215.967
217.342
218.961
220.832
222.961
225.254
227.663
230.224
233.037
236.137
239.377
242.784
246.508
250.864
256.012
261.515
266.037
268.428
271.452
275.94
276.831
278.133
279.617
280.366
280.972
281.538
282.071
282.464
282.732
282.942
283.123
283.305
283.492
283.666
283.79
283.831
283.57
283.121
282.569
282.027
212.988
213.543
213.746
214.169
214.761
215.512
216.403
217.505
218.879
220.496
222.368
224.498
226.798
229.209
231.772
234.591
237.687
240.914
244.332
248.084
252.468
257.745
263.855
267.516
269.67
273.236
276.543
278.179
279.507
280.99
281.756
282.355
282.903
283.407
283.76
283.982
284.135
284.241
284.334
284.426
284.514
284.566
284.537
284.256
283.788
283.217
282.644
214.522
215.07
215.268
215.689
216.278
217.028
217.916
219.014
220.381
221.994
223.864
225.999
228.304
230.725
233.302
236.128
239.22
242.457
245.857
249.631
253.999
259.727
266.124
268.595
270.87
274.51
276.807
279.916
281.092
282.464
283.206
283.794
284.324
284.796
285.106
285.28
285.374
285.408
285.414
285.396
285.373
285.343
285.225
284.944
284.483
283.908
283.311
216.077
216.607
216.798
217.215
217.799
218.547
219.431
220.522
221.887
223.5
225.372
227.511
229.826
232.258
234.831
237.651
240.746
243.982
247.402
251.177
255.536
262.062
267.638
269.291
272.223