/*--------------------------------*- C++ -*----------------------------------*\
| =========                 |                                                 |
| \\      /  F ield         | OpenFOAM: The Open Source CFD Toolbox           |
|  \\    /   O peration     | Version:  2212                                  |
|   \\  /    A nd           | Website:  www.openfoam.com                      |
|    \\/     M anipulation  |                                                 |
\*---------------------------------------------------------------------------*/
FoamFile
{
    version     2.0;
    format      ascii;
    arch        "LSB;label=32;scalar=64";
    class       volVectorField;
    location    "4.4e-05";
    object      U;
}
// * * * * * * * * * * * * * * * * * * * * * * * * * * * * * * * * * * * * * //

dimensions      [0 1 -1 0 0 0 0];

internalField   nonuniform List<vector> 
17100
(
(-2.45572 3.67345 1.49981e-16)
(-0.732569 4.57419 -3.41199e-18)
(-0.271412 4.6417 -2.08917e-16)
(-0.141251 4.80803 1.43811e-19)
(-0.081675 4.83888 6.26782e-17)
(-0.0417998 4.8284 -5.15284e-17)
(-0.015379 4.81866 4.42695e-17)
(0.000130313 4.82139 0)
(0.0106315 4.82849 -3.6091e-17)
(0.0183944 4.83666 9.98374e-21)
(0.024688 4.84382 6.78846e-21)
(0.0297724 4.84931 3.07782e-17)
(0.0331775 4.85405 1.48943e-17)
(0.034903 4.85768 -1.45121e-17)
(0.0353795 4.86029 -1.42103e-17)
(0.0349703 4.86224 2.79446e-17)
(0.0339545 4.86361 -3.03709e-22)
(0.0325657 4.86447 -1.36285e-17)
(0.0309338 4.865 0)
(0.0291282 4.86529 0)
(0.0272076 4.86543 0)
(0.0252272 4.86544 -6.63138e-18)
(0.0232203 4.86536 6.60617e-18)
(0.0211805 4.86526 0)
(0.0191161 4.86515 6.57008e-18)
(0.0170044 4.86502 -6.55876e-18)
(0.0146757 4.86479 0)
(0.01206 4.86446 0)
(0.00932736 4.86468 0)
(0.00668569 4.8651 0)
(0.00407466 4.86599 -1.59843e-21)
(0.0016422 4.86695 -8.17862e-19)
(-0.000499954 4.86763 8.20866e-19)
(-0.00248291 4.86813 0)
(-0.00448682 4.86819 -3.29876e-18)
(-0.00654314 4.86795 -3.30964e-18)
(-0.00863263 4.86763 2.3924e-22)
(-0.0106884 4.86737 6.6803e-18)
(-0.01266 4.86713 0)
(-0.0145194 4.86682 6.76999e-18)
(-0.0162469 4.86633 -2.04917e-17)
(-0.0177912 4.86547 1.6038e-22)
(-0.0190062 4.86411 1.39952e-17)
(-0.0197003 4.86226 0)
(-0.0197488 4.85993 0)
(-0.0190656 4.85692 0)
(-0.0174529 4.85276 0)
(-0.0146997 4.84713 0)
(-0.0105676 4.84059 0)
(-0.00457909 4.83408 1.76169e-17)
(0.00376894 4.82808 -1.90927e-17)
(0.0155565 4.82377 0)
(0.0351276 4.82608 -4.97894e-17)
(0.0685681 4.82678 1.2329e-16)
(0.129442 4.79183 -7.59065e-17)
(0.323534 4.66789 -8.97001e-17)
(1.04147 4.36269 9.20267e-17)
(8.60501 -1.73619 0)
(6.16246 -1.60579 -8.53678e-16)
(1.85149 0.852634 7.12673e-16)
(0.546451 2.33385 0)
(0.317261 3.06469 3.4639e-16)
(0.270933 3.47782 -4.72079e-16)
(0.258329 3.7461 3.39923e-16)
(0.252606 3.92926 -1.3021e-16)
(0.247986 4.05654 0)
(0.242131 4.14963 0)
(0.233851 4.22159 0)
(0.224104 4.27732 3.43624e-17)
(0.213099 4.32107 -3.1339e-17)
(0.20096 4.35585 0)
(0.188228 4.38318 2.72846e-17)
(0.175136 4.40504 -5.18201e-17)
(0.161898 4.42265 4.96428e-17)
(0.148683 4.43667 -2.39523e-17)
(0.13549 4.448 -2.32508e-17)
(0.122363 4.4571 2.26861e-17)
(0.109328 4.46433 0)
(0.096379 4.47002 0)
(0.0835248 4.47436 0)
(0.0707785 4.47741 1.06602e-17)
(0.0580758 4.47993 -1.05692e-17)
(0.0454833 4.48205 -5.24953e-18)
(0.0330413 4.48371 5.22425e-18)
(0.0206544 4.485 5.20645e-18)
(0.00819906 4.48611 -5.19676e-18)
(-0.00454401 4.48677 0)
(-0.0173857 4.48706 0)
(-0.0302843 4.48672 0)
(-0.0432314 4.48558 2.629e-18)
(-0.0562129 4.48365 -2.64886e-18)
(-0.0692062 4.48091 5.34774e-18)
(-0.0821891 4.47731 -1.62319e-17)
(-0.0951557 4.47279 1.09763e-17)
(-0.108122 4.46723 -1.11644e-17)
(-0.121085 4.4605 1.13949e-17)
(-0.134038 4.4524 -1.1674e-17)
(-0.147013 4.44247 2.4032e-17)
(-0.160143 4.4297 -1.2436e-17)
(-0.173379 4.41354 0)
(-0.186543 4.39356 2.72079e-17)
(-0.199699 4.36834 -5.77074e-17)
(-0.212973 4.33624 3.09709e-17)
(-0.226336 4.2956 0)
(-0.23962 4.24398 3.74391e-17)
(-0.252354 4.17773 -4.25736e-17)
(-0.264061 4.09212 0)
(-0.275183 3.97798 -6.07223e-17)
(-0.28859 3.81575 7.82335e-17)
(-0.311905 3.57026 0)
(-0.381026 3.16251 3.17497e-16)
(-0.721917 2.31038 -9.92493e-19)
(-2.87679 0.056838 -6.34904e-16)
(-7.96513 -1.49439 0)
(4.09797 -1.24159 1.66756e-15)
(5.71692 -2.10617 -9.09819e-16)
(5.0023 -1.60355 0)
(3.80862 -0.438677 0)
(2.71298 0.609183 5.85931e-16)
(1.94525 1.4172 -8.82258e-16)
(1.45459 2.01182 3.30959e-16)
(1.14359 2.45271 0)
(0.938603 2.78456 0)
(0.796726 3.03696 0)
(0.692734 3.23019 0)
(0.612442 3.37975 0)
(0.547671 3.49709 0)
(0.493307 3.59026 4.84421e-17)
(0.446101 3.66493 -8.91093e-17)
(0.403965 3.72531 4.15254e-17)
(0.365556 3.77453 0)
(0.329977 3.81496 0)
(0.296587 3.84829 -3.56808e-17)
(0.264905 3.8758 3.44399e-17)
(0.234559 3.89848 1.67144e-17)
(0.205264 3.91715 -1.63063e-17)
(0.176797 3.93247 -1.59754e-17)
(0.148995 3.94494 7.70327e-22)
(0.121723 3.95498 1.5507e-17)
(0.0948586 3.96285 7.67536e-18)
(0.068281 3.96876 -7.62037e-18)
(0.041891 3.97283 0)
(0.0155785 3.97514 0)
(-0.010824 3.97569 0)
(-0.0373061 3.97444 0)
(-0.0638364 3.97125 1.90817e-18)
(-0.0905433 3.96601 -5.77381e-18)
(-0.117539 3.95859 3.8933e-18)
(-0.144923 3.94885 0)
(-0.172802 3.93654 0)
(-0.201309 3.92136 -1.64261e-17)
(-0.230613 3.90289 1.68501e-17)
(-0.260926 3.88058 0)
(-0.292526 3.8537 0)
(-0.32578 3.82129 -1.87579e-17)
(-0.361192 3.78207 5.91038e-17)
(-0.399458 3.73439 -4.17453e-17)
(-0.441611 3.67606 -4.46726e-17)
(-0.489171 3.60417 1.02774e-20)
(-0.544303 3.51488 5.32245e-17)
(-0.610075 3.40314 0)
(-0.691072 3.2619 0)
(-0.794658 3.08103 0)
(-0.933299 2.84596 -9.60493e-17)
(-1.1292 2.53748 1.1975e-16)
(-1.42042 2.12924 1.54551e-16)
(-1.87769 1.57402 -2.05055e-16)
(-2.62319 0.782064 -5.47288e-16)
(-3.81965 -0.393639 1.31745e-15)
(-5.18896 -1.78993 -8.81358e-19)
(-4.94703 -1.43082 -1.35843e-15)
(3.15669 -0.769887 0)
(5.62462 -1.79609 0)
(6.04561 -1.87646 0)
(5.38114 -1.44407 8.17628e-16)
(4.41741 -0.804595 -4.23773e-19)
(3.52803 -0.137816 -5.61892e-16)
(2.82042 0.459484 0)
(2.28511 0.968537 -3.60609e-16)
(1.88461 1.3907 1.47557e-16)
(1.58328 1.73679 2.46012e-16)
(1.35243 2.02069 -1.04921e-16)
(1.17112 2.25365 0)
(1.025 2.44501 -8.10236e-17)
(0.90433 2.60262 1.46228e-16)
(0.802382 2.73295 -6.69395e-17)
(0.714431 2.84117 0)
(0.637086 2.93139 -5.81419e-17)
(0.567891 3.00686 6.77069e-21)
(0.505021 3.07014 1.04896e-16)
(0.447065 3.12331 -5.03676e-17)
(0.39291 3.16792 0)
(0.341696 3.20521 0)
(0.292757 3.23618 -2.30726e-17)
(0.245579 3.26161 1.05891e-21)
(0.199749 3.2821 2.22663e-17)
(0.154928 3.29808 0)
(0.110828 3.30988 -1.09028e-17)
(0.0672169 3.31773 1.08432e-17)
(0.0238596 3.32177 0)
(-0.019586 3.32205 0)
(-0.0632481 3.31855 0)
(-0.107163 3.31115 -2.73325e-18)
(-0.151574 3.29966 8.28612e-18)
(-0.196741 3.28384 5.60097e-18)
(-0.242952 3.26335 -1.14003e-17)
(-0.290541 3.23777 0)
(-0.339915 3.20651 0)
(-0.391582 3.16883 0)
(-0.446183 3.12376 -2.55175e-17)
(-0.504545 3.07013 2.65956e-17)
(-0.567733 3.00639 -2.78987e-17)
(-0.637131 2.93056 8.84782e-17)
(-0.714572 2.8402 -6.29069e-17)
(-0.802545 2.73221 0)
(-0.904449 2.60271 7.38286e-17)
(-1.02495 2.44685 -8.15669e-17)
(-1.17049 2.25854 0)
(-1.35012 2.03032 0)
(-1.57677 1.75335 0)
(-1.86903 1.41765 1.44181e-16)
(-2.25256 1.01177 -1.7483e-16)
(-2.75953 0.52404 0)
(-3.4335 -0.0576982 0)
(-4.31183 -0.739615 6.63457e-16)
(-5.35333 -1.49292 -4.63083e-19)
(-5.95426 -1.9136 -7.65692e-16)
(-4.16461 -1.07723 0)
(2.6689 -0.62804 0)
(5.23109 -1.5801 0)
(6.09942 -1.9102 0)
(5.92829 -1.86707 0)
(5.30775 -1.54857 0)
(4.57674 -1.12208 0)
(3.8929 -0.668825 0)
(3.30724 -0.234957 0)
(2.82087 0.161262 0)
(2.42051 0.513833 1.62998e-16)
(2.09122 0.822404 -1.41975e-16)
(1.81908 1.08982 1.2549e-16)
(1.59222 1.32021 -2.25189e-16)
(1.401 1.51808 1.02366e-16)
(1.23777 1.68779 0)
(1.09656 1.83331 -8.75276e-17)
(0.972698 1.95806 8.21493e-17)
(0.862522 2.065 0)
(0.763157 2.15657 0)
(0.672343 2.23485 0)
(0.588296 2.3015 0)
(0.509575 2.3579 -3.32638e-17)
(0.435027 2.40518 1.62343e-21)
(0.363728 2.44424 3.17465e-17)
(0.294924 2.47581 0)
(0.227992 2.50042 0)
(0.162404 2.5185 1.5255e-17)
(0.0977105 2.53034 -1.51647e-17)
(0.0334848 2.53611 0)
(-0.0308237 2.5359 -3.78126e-18)
(-0.0955373 2.52968 3.7972e-18)
(-0.160845 2.51732 0)
(-0.227167 2.49859 7.74362e-18)
(-0.294968 2.47316 -7.86243e-18)
(-0.364777 2.44058 0)
(-0.437213 2.40028 -1.64022e-17)
(-0.51302 2.35151 5.058e-17)
(-0.593105 2.29337 -3.48259e-17)
(-0.678596 2.22472 -3.61494e-17)
(-0.770889 2.14421 3.62539e-21)
(-0.87174 2.05016 4.5837e-21)
(-0.983372 1.94058 8.38762e-17)
(-1.10862 1.81308 -1.34124e-16)
(-1.25108 1.66486 9.61705e-17)
(-1.41531 1.49269 0)
(-1.60711 1.29288 0)
(-1.83377 1.06145 -1.27365e-16)
(-2.10433 0.794331 1.43437e-16)
(-2.42968 0.487993 0)
(-2.82202 0.140479 0)
(-3.29324 -0.246849 0)
(-3.85312 -0.66771 0)
(-4.5094 -1.11349 3.15072e-16)
(-5.23345 -1.55105 -1.10909e-15)
(-5.87114 -1.90888 7.80419e-16)
(-5.76598 -1.87259 0)
(-3.55626 -0.93536 0)
(2.33919 -0.547592 -8.91128e-16)
(4.79741 -1.40826 1.00136e-15)
(5.8481 -1.88138 -9.70974e-16)
(6.02457 -2.02179 9.09128e-16)
(5.71442 -1.95028 0)
(5.19089 -1.73295 -7.173e-16)
(4.61719 -1.44668 6.19986e-16)
(4.06906 -1.13386 -2.67419e-16)
(3.5755 -0.820656 2.32444e-16)
(3.14191 -0.520809 0)
(2.76524 -0.241581 1.81505e-16)
(2.43931 0.0136879 -1.63292e-16)
(2.15709 0.244155 1.48474e-16)
(1.91174 0.450413 -1.36447e-16)
(1.69713 0.633835 1.26525e-16)
(1.50793 0.796152 -1.6975e-20)
(1.33963 0.939198 -1.11552e-16)
(1.18843 1.06477 1.05854e-16)
(1.05119 1.17452 -5.05542e-17)
(0.925289 1.26996 -3.61971e-21)
(0.808579 1.3524 -2.8555e-21)
(0.699272 1.423 -4.54777e-17)
(0.595882 1.48274 0)
(0.497174 1.53243 0)
(0.402109 1.57275 -2.13135e-17)
(0.309803 1.60423 2.10262e-17)
(0.219497 1.62729 0)
(0.130518 1.6422 0)
(0.0422439 1.64916 0)
(-0.0460734 1.64826 0)
(-0.134976 1.63946 0)
(-0.224861 1.62265 5.22456e-18)
(-0.316349 1.59758 5.28697e-18)
(-0.41012 1.56393 -1.07409e-17)
(-0.506938 1.52123 0)
(-0.607678 1.46892 2.24288e-17)
(-0.713366 1.40631 -2.30636e-17)
(-0.825217 1.33255 0)
(-0.944682 1.24664 -4.94479e-17)
(-1.0735 1.14746 5.15901e-17)
(-1.21378 1.03369 0)
(-1.36805 0.903894 0)
(-1.53935 0.756511 0)
(-1.7313 0.58989 0)
(-1.94819 0.402431 0)
(-2.19499 0.192739 -1.52246e-16)
(-2.47726 -0.0401047 1.6713e-16)
(-2.80099 -0.296111 0)
(-3.17194 -0.573735 0)
(-3.59444 -0.868848 0)
(-4.06886 -1.17312 -2.68112e-16)
(-4.58834 -1.47334 6.18661e-16)
(-5.13501 -1.75089 -7.08129e-16)
(-5.64364 -1.9716 4.00836e-16)
(-5.92824 -2.01 0)
(-5.37438 -1.73109 8.46551e-16)
(-3.05786 -0.749334 -7.65991e-16)
(2.06401 -0.477018 -9.10046e-16)
(4.34636 -1.27272 1.02961e-15)
(5.46625 -1.78518 0)
(5.82951 -2.04668 0)
(5.74582 -2.13716 0)
(5.43074 -2.09274 -3.94419e-16)
(5.00121 -1.95874 3.50907e-16)
(4.54528 -1.77349 3.11342e-16)
(4.10102 -1.56183 -2.77382e-16)
(3.68594 -1.34033 -2.4889e-16)
(3.30639 -1.11946 2.25375e-16)
(2.96333 -0.906021 2.05809e-16)
(2.6549 -0.704154 -3.79136e-16)
(2.37794 -0.516173 1.75979e-16)
(2.12887 -0.343191 0)
(1.90405 -0.185517 0)
(1.70007 -0.0429599 0)
(1.51381 0.0849778 0)
(1.34252 0.198958 0)
(1.18377 0.299697 -6.43354e-17)
(1.03546 0.387919 1.24378e-16)
(0.895762 0.464328 -6.03763e-17)
(0.763078 0.529573 -5.88592e-17)
(0.636075 0.584225 5.76124e-17)
(0.513546 0.628777 0)
(0.394456 0.66363 0)
(0.277881 0.689107 -2.76373e-17)
(0.162982 0.705445 1.37296e-17)
(0.0489787 0.712789 -1.91679e-22)
(-0.0650091 0.711224 1.71141e-17)
(-0.179704 0.700729 -5.15584e-18)
(-0.295701 0.681222 1.7325e-18)
(-0.41378 0.652515 0)
(-0.534779 0.614348 2.84847e-17)
(-0.659614 0.566374 -2.90398e-17)
(-0.789311 0.508176 -2.97222e-17)
(-0.925029 0.439272 3.05452e-17)
(-1.06813 0.359093 6.30446e-17)
(-1.22008 0.267022 -6.53523e-17)
(-1.38266 0.162414 0)
(-1.5579 0.044609 -7.12115e-17)
(-1.74805 -0.0870057 1.49809e-16)
(-1.95569 -0.232919 -7.92209e-17)
(-2.18366 -0.393405 0)
(-2.43501 -0.568369 1.80369e-16)
(-2.71282 -0.757128 -3.88671e-16)
(-3.01997 -0.958115 2.10849e-16)
(-3.35861 -1.16848 2.3039e-16)
(-3.72928 -1.38356 -4.11612e-20)
(-4.12935 -1.59611 -2.81321e-16)
(-4.55018 -1.79519 -3.13973e-16)
(-4.97399 -1.96438 7.0477e-16)
(-5.36875 -2.08677 -3.92987e-16)
(-5.64714 -2.11344 0)
(-5.64317 -1.97979 0)
(-4.91016 -1.5722 8.84982e-16)
(-2.63834 -0.632828 -7.95265e-16)
(1.80899 -0.417833 -9.29471e-16)
(3.88222 -1.13359 0)
(4.97874 -1.64586 0)
(5.44462 -1.98621 5.06503e-16)
(5.52182 -2.17239 -4.4832e-20)
(5.3755 -2.25192 -4.3195e-16)
(5.10399 -2.2461 3.93214e-16)
(4.76208 -2.17762 -3.57703e-16)
(4.39524 -2.06807 0)
(4.0311 -1.93222 2.97431e-16)
(3.6802 -1.7827 -2.73513e-16)
(3.3488 -1.62777 0)
(3.03944 -1.47296 0)
(2.75249 -1.32231 0)
(2.48707 -1.17855 2.07655e-16)
(2.24158 -1.04344 -1.96543e-16)
(2.0141 -0.91807 0)
(1.8026 -0.80305 -8.9302e-17)
(1.60497 -0.698638 8.57106e-17)
(1.4195 -0.604885 0)
(1.24434 -0.521682 0)
(1.07798 -0.448717 0)
(0.91892 -0.385841 0)
(0.76585 -0.332804 7.41616e-17)
(0.617596 -0.289287 -3.64337e-17)
(0.47309 -0.255148 -3.59301e-17)
(0.331356 -0.230173 0)
(0.191489 -0.21422 0)
(0.0526286 -0.207202 0)
(-0.0861408 -0.209047 -4.40058e-18)
(-0.225632 -0.219757 4.41728e-18)
(-0.366578 -0.239358 -8.90188e-18)
(-0.509823 -0.267946 -9.00216e-18)
(-0.65626 -0.305652 -4.08008e-22)
(-0.806838 -0.352638 1.86143e-17)
(-0.962591 -0.409093 0)
(-1.12465 -0.475111 3.90762e-17)
(-1.29425 -0.551014 -4.0268e-17)
(-1.47275 -0.636961 0)
(-1.66166 -0.732871 0)
(-1.86253 -0.838836 9.03195e-17)
(-2.0771 -0.95467 -9.46524e-17)
(-2.30685 -1.07983 0)
(-2.55361 -1.21341 0)
(-2.81885 -1.35405 0)
(-3.10357 -1.49968 0)
(-3.40786 -1.64719 0)
(-3.73036 -1.79224 0)
(-4.06744 -1.92902 3.00925e-16)
(-4.41185 -2.04909 -3.27937e-16)
(-4.75264 -2.14019 0)
(-5.05738 -2.19127 0)
(-5.29611 -2.18403 0)
(-5.4084 -2.08051 0)
(-5.23859 -1.85699 0)
(-4.39747 -1.38612 0)
(-2.27364 -0.542629 8.24741e-16)
(1.5776 -0.366082 0)
(3.42905 -0.994853 0)
(4.45957 -1.47311 0)
(4.96554 -1.84006 5.30896e-16)
(5.14878 -2.08718 -5.04237e-16)
(5.12515 -2.24073 0)
(4.96942 -2.32403 0)
(4.74279 -2.35226 0)
(4.47758 -2.33568 -3.73114e-16)
(4.18059 -2.28638 3.47031e-16)
(3.87308 -2.21409 0)
(3.57245 -2.12544 0)
(3.28192 -2.02778 2.83924e-16)
(3.00339 -1.9264 -2.67803e-16)
(2.73834 -1.82472 0)
(2.48713 -1.72519 2.41173e-16)
(2.2493 -1.62975 -2.30239e-16)
(2.02399 -1.53945 0)
(1.81016 -1.45572 0)
(1.60667 -1.37925 1.02446e-16)
(1.41235 -1.31021 -9.92601e-17)
(1.22592 -1.24898 0)
(1.04629 -1.19544 0)
(0.872277 -1.14978 0)
(0.702896 -1.11204 0)
(0.537172 -1.08224 4.46845e-17)
(0.374198 -1.06033 -8.84285e-17)
(0.213109 -1.04627 4.39008e-17)
(0.0530688 -1.04001 0)
(-0.106792 -1.0415 -5.46533e-18)
(-0.267281 -1.05072 5.48278e-18)
(-0.429159 -1.06763 0)
(-0.593238 -1.09223 0)
(-0.760351 -1.12451 0)
(-0.931357 -1.16442 0)
(-1.10716 -1.21189 0)
(-1.28872 -1.2668 4.81758e-17)
(-1.47699 -1.32892 -4.9549e-17)
(-1.67312 -1.39795 0)
(-1.8781 -1.47357 -1.05993e-16)
(-2.09292 -1.5551 1.10229e-16)
(-2.31835 -1.64228 0)
(-2.55504 -1.73365 0)
(-2.80359 -1.82692 0)
(-3.0642 -1.92044 0)
(-3.33599 -2.01186 0)
(-3.61667 -2.09775 0)
(-3.90331 -2.17209 0)
(-4.19152 -2.22782 0)
(-4.46373 -2.26193 0)
(-4.70687 -2.26419 0)
(-4.9114 -2.22517 0)
(-5.0383 -2.13495 0)
(-5.02709 -1.96707 0)
(-4.74819 -1.67492 0)
(-3.89005 -1.20551 0)
(-1.9576 -0.464711 0)
(1.37384 -0.318047 0)
(3.01041 -0.864136 0)
(3.95387 -1.29133 0)
(4.45692 -1.64433 0)
(4.69293 -1.9093 0)
(4.75418 -2.10511 0)
(4.69538 -2.24614 0)
(4.55376 -2.3402 0)
(4.3555 -2.39526 0)
(4.12461 -2.41876 0)
(3.88531 -2.41632 0)
(3.63591 -2.3938 0)
(3.37533 -2.35747 0)
(3.11582 -2.31006 0)
(2.86418 -2.25546 0)
(2.62058 -2.19756 0)
(2.38482 -2.13866 0)
(2.15706 -2.08067 0)
(1.93777 -2.02504 0)
(1.72646 -1.97263 0)
(1.52247 -1.92404 0)
(1.32474 -1.87982 0)
(1.13245 -1.84048 0)
(0.94482 -1.8064 0)
(0.761113 -1.77788 0)
(0.580604 -1.75508 0)
(0.402569 -1.73809 0)
(0.226296 -1.72697 0)
(0.0510375 -1.72167 0)
(-0.12394 -1.72217 0)
(-0.299363 -1.72843 0)
(-0.475922 -1.74041 0)
(-0.6543 -1.75801 0)
(-0.835162 -1.7811 0)
(-1.01916 -1.80949 0)
(-1.20695 -1.8429 0)
(-1.3992 -1.8809 0)
(-1.59662 -1.92298 0)
(-1.80003 -1.96852 0)
(-2.01017 -2.01695 0)
(-2.22745 -2.06772 0)
(-2.45166 -2.11997 0)
(-2.6826 -2.17163 0)
(-2.91991 -2.21957 0)
(-3.16349 -2.26161 0)
(-3.4124 -2.29561 0)
(-3.65883 -2.3205 0)
(-3.88982 -2.33133 0)
(-4.11479 -2.32115 -3.86881e-16)
(-4.32953 -2.28735 4.12028e-16)
(-4.50502 -2.22581 0)
(-4.62774 -2.12914 0)
(-4.66885 -1.98703 0)
(-4.57791 -1.77938 0)
(-4.24666 -1.46814 0)
(-3.41432 -1.03435 0)
(-1.68212 -0.396471 0)
(1.19701 -0.273871 9.11984e-21)
(2.63652 -0.747382 9.15279e-21)
(3.48369 -1.12051 1.72965e-21)
(3.95801 -1.43815 5.72761e-16)
(4.20873 -1.6946 -5.54844e-16)
(4.31432 -1.90215 4.17049e-22)
(4.31558 -2.07202 5.04533e-16)
(4.24109 -2.20677 -4.79101e-16)
(4.11192 -2.30874 4.54127e-16)
(3.9436 -2.38206 0)
(3.74982 -2.43169 0)
(3.53426 -2.46226 3.89196e-16)
(3.30792 -2.47766 -3.70762e-16)
(3.08747 -2.47904 3.53883e-16)
(2.87047 -2.46932 -3.38604e-16)
(2.64753 -2.45256 0)
(2.42139 -2.43167 0)
(2.1982 -2.40846 0)
(1.98164 -2.38385 1.45588e-16)
(1.77132 -2.35839 7.17064e-21)
(1.56653 -2.33253 -2.7428e-16)
(1.36629 -2.30735 -8.08997e-21)
(1.1699 -2.28398 1.30675e-16)
(0.976893 -2.26318 0)
(0.786866 -2.24539 6.30092e-17)
(0.599399 -2.23089 -6.2152e-17)
(0.414026 -2.21982 -3.07523e-17)
(0.230229 -2.2122 3.05218e-17)
(0.047402 -2.20799 0)
(-0.13508 -2.20721 0)
(-0.317837 -2.20983 -3.80126e-18)
(-0.501434 -2.2158 3.82006e-18)
(-0.686376 -2.22504 -3.0812e-17)
(-0.873104 -2.23739 6.23174e-17)
(-1.06201 -2.25256 -3.16087e-17)
(-1.25343 -2.27013 0)
(-1.44774 -2.28943 0)
(-1.64536 -2.30941 0)
(-1.84701 -2.329 0)
(-2.05348 -2.34771 1.4221e-16)
(-2.26541 -2.36531 -2.93781e-16)
(-2.48169 -2.38105 -6.54853e-21)
(-2.69772 -2.39353 1.58114e-16)
(-2.9085 -2.4008 0)
(-3.11691 -2.39989 1.72046e-16)
(-3.33137 -2.38915 -1.80467e-16)
(-3.54472 -2.36638 -3.78997e-16)
(-3.74347 -2.3282 -7.33435e-21)
(-3.92376 -2.27186 4.20702e-16)
(-4.07734 -2.19361 0)
(-4.19262 -2.09002 0)
(-4.25425 -1.9575 0)
(-4.23946 -1.78936 5.2165e-16)
(-4.10614 -1.56998 -5.43474e-16)
(-3.75891 -1.27096 0)
(-2.97829 -0.882964 0)
(-1.44283 -0.335711 -4.57693e-16)
(1.04322 -0.233198 0)
(2.30642 -0.641989 5.86232e-16)
(3.05659 -0.96545 -5.94324e-16)
(3.49052 -1.24214 5.90878e-16)
(3.73539 -1.47825 -5.74984e-16)
(3.85881 -1.6821 -5.52412e-16)
(3.89407 -1.85886 5.29275e-16)
(3.86226 -2.0102 5.06227e-16)
(3.77947 -2.13693 -9.67384e-16)
(3.65834 -2.24064 -1.29576e-20)
(3.50871 -2.32376 4.41529e-16)
(3.33833 -2.38821 0)
(3.15221 -2.43664 4.04366e-16)
(2.95806 -2.47236 -3.87707e-16)
(2.75829 -2.49846 0)
(2.55246 -2.5169 0)
(2.34281 -2.52789 0)
(2.13559 -2.53312 -1.67414e-16)
(1.93514 -2.53432 -1.14786e-20)
(1.74168 -2.53244 -1.15313e-20)
(1.55056 -2.52839 1.53451e-16)
(1.35785 -2.52289 0)
(1.16536 -2.51653 0)
(0.974085 -2.51 0)
(0.784504 -2.50378 7.08583e-17)
(0.596783 -2.49823 -1.39872e-16)
(0.41088 -2.49355 3.46082e-17)
(0.226347 -2.48975 6.87198e-17)
(0.0428877 -2.48672 -3.42066e-17)
(-0.140137 -2.4845 8.53874e-18)
(-0.323361 -2.48319 -1.2824e-17)
(-0.507223 -2.4828 -1.28793e-17)
(-0.691979 -2.48324 -1.7296e-17)
(-0.877736 -2.48434 3.49339e-17)
(-1.06443 -2.48577 -7.07831e-17)
(-1.25177 -2.48709 7.1917e-17)
(-1.43892 -2.4877 0)
(-1.62422 -2.48696 0)
(-1.81052 -2.48425 1.53468e-16)
(-2.00236 -2.47906 -1.57648e-16)
(-2.19994 -2.4708 0)
(-2.4 -2.45819 0)
(-2.59788 -2.43929 0)
(-2.79151 -2.41351 0)
(-2.98007 -2.38059 -1.87705e-16)
(-3.16357 -2.33852 3.91447e-16)
(-3.33767 -2.28417 -2.04524e-16)
(-3.49711 -2.21562 0)
(-3.63623 -2.13116 4.49278e-16)
(-3.74747 -2.02855 -4.71888e-16)
(-3.82086 -1.90533 -4.96339e-16)
(-3.84338 -1.75816 5.22677e-16)
(-3.79585 -1.58165 5.44209e-16)
(-3.64207 -1.36681 5.9954e-21)
(-3.29984 -1.09318 -5.47462e-16)
(-2.58606 -0.748932 5.37459e-16)
(-1.23523 -0.280058 -4.73158e-16)
(0.907877 -0.195996 0)
(2.01544 -0.547512 0)
(2.67424 -0.829192 0)
(3.06305 -1.0704 0)
(3.29158 -1.28198 -5.93487e-16)
(3.41695 -1.4704 5.71981e-16)
(3.46724 -1.63887 0)
(3.45934 -1.78847 0)
(3.40585 -1.91978 0)
(3.31675 -2.03392 0)
(3.20005 -2.13229 0)
(3.06226 -2.21622 0)
(2.90886 -2.28711 0)
(2.74474 -2.34663 0)
(2.57249 -2.39634 0)
(2.39449 -2.43722 0)
(2.21348 -2.46944 -1.87389e-16)
(2.0291 -2.49432 1.81633e-16)
(1.84204 -2.51421 0)
(1.65632 -2.53024 0)
(1.47291 -2.54333 0)
(1.29021 -2.55388 0)
(1.10814 -2.56178 0)
(0.926886 -2.56728 0)
(0.746613 -2.57075 0)
(0.56751 -2.57247 7.68332e-17)
(0.389705 -2.57288 -7.60895e-17)
(0.213512 -2.5721 3.77846e-17)
(0.0382051 -2.57014 -3.76202e-17)
(-0.137321 -2.56718 0)
(-0.313153 -2.56318 0)
(-0.489346 -2.55805 0)
(-0.665931 -2.55166 0)
(-0.842793 -2.54381 0)
(-1.01954 -2.53428 0)
(-1.19617 -2.52268 0)
(-1.3728 -2.50863 0)
(-1.54945 -2.49227 0)
(-1.72698 -2.4736 0)
(-1.90708 -2.45153 0)
(-2.08698 -2.42504 0)
(-2.26261 -2.39311 0)
(-2.43464 -2.35418 0)
(-2.60277 -2.30773 0)
(-2.76491 -2.25342 0)
(-2.91903 -2.19006 0)
(-3.06215 -2.11626 0)
(-3.19003 -2.03081 0)
(-3.29765 -1.93268 0)
(-3.37863 -1.82075 0)
(-3.42455 -1.69371 0)
(-3.42422 -1.54938 0)
(-3.3606 -1.38229 0)
(-3.20233 -1.18362 0)
(-2.87898 -0.937155 0)
(-2.23756 -0.630582 0)
(-1.05326 -0.229768 0)
(0.78734 -0.164815 0)
(1.75732 -0.466376 0)
(2.33293 -0.711203 0)
(2.6755 -0.920173 0)
(2.88109 -1.10416 0)
(2.99879 -1.27043 0)
(3.05262 -1.42223 0)
(3.05672 -1.5606 0)
(3.02145 -1.68623 0)
(2.95488 -1.79969 0)
(2.86338 -1.90146 0)
(2.75218 -1.99207 0)
(2.62555 -2.07218 0)
(2.487 -2.1426 -2.19884e-16)
(2.33928 -2.20414 2.12611e-16)
(2.18454 -2.25755 0)
(2.02454 -2.30357 0)
(1.86091 -2.34284 0)
(1.69561 -2.37591 0)
(1.52981 -2.40363 0)
(1.36348 -2.42695 0)
(1.19655 -2.44642 0)
(1.02923 -2.46231 0)
(0.861837 -2.47484 0)
(0.694662 -2.48423 0)
(0.527987 -2.49069 0)
(0.361976 -2.49448 0)
(0.19683 -2.49582 0)
(0.0321642 -2.4949 0)
(-0.132312 -2.49176 0)
(-0.296726 -2.48629 0)
(-0.46113 -2.47836 0)
(-0.625489 -2.46786 0)
(-0.789673 -2.45462 0)
(-0.953457 -2.43854 0)
(-1.11653 -2.41946 0)
(-1.27873 -2.39727 0)
(-1.4399 -2.37182 0)
(-1.60013 -2.3428 0)
(-1.7596 -2.30947 0)
(-1.91812 -2.27088 0)
(-2.07395 -2.22645 0)
(-2.22534 -2.17583 0)
(-2.37108 -2.11854 0)
(-2.50965 -2.05394 0)
(-2.63907 -1.98136 0)
(-2.75671 -1.90006 0)
(-2.85925 -1.80936 0)
(-2.9425 -1.70866 0)
(-3.00115 -1.59743 0)
(-3.02828 -1.47515 0)
(-3.01456 -1.34066 0)
(-2.9454 -1.1895 5.85351e-16)
(-2.7932 -1.01392 -6.04191e-16)
(-2.49671 -0.798233 0)
(-1.92664 -0.529448 0)
(-0.892025 -0.188317 0)
(0.679429 -0.138884 0)
(1.52491 -0.396734 0)
(2.02557 -0.605905 0)
(2.32385 -0.78419 0)
(2.50458 -0.941053 0)
(2.6107 -1.08397 0)
(2.66281 -1.21678 0)
(2.67287 -1.34047 0)
(2.64933 -1.45525 0)
(2.59864 -1.56117 0)
(2.52591 -1.65831 0)
(2.43533 -1.74682 0)
(2.33036 -1.82699 0)
(2.2139 -1.89919 0)
(2.08831 -1.96386 0)
(1.95555 -2.02141 0)
(1.81726 -2.07229 0)
(1.67479 -2.11689 0)
(1.52932 -2.15572 0)
(1.38176 -2.18934 0)
(1.23271 -2.21825 -1.90986e-16)
(1.08257 -2.24282 1.87292e-16)
(0.931682 -2.2633 0)
(0.78038 -2.27988 0)
(0.628954 -2.29277 8.94843e-17)
(0.47765 -2.30214 -8.85174e-17)
(0.326639 -2.30815 -4.38916e-17)
(0.176 -2.31098 -4.94532e-21)
(0.0257038 -2.31073 2.17259e-17)
(-0.124345 -2.30743 2.16986e-17)
(-0.274187 -2.30107 0)
(-0.423804 -2.2916 0)
(-0.573116 -2.27891 0)
(-0.721985 -2.26293 0)
(-0.870222 -2.24355 0)
(-1.01761 -2.22066 0)
(-1.1639 -2.19416 0)
(-1.30885 -2.16387 0)
(-1.45218 -2.12957 0)
(-1.59355 -2.09089 0)
(-1.73231 -2.04734 0)
(-1.86755 -1.99846 0)
(-1.99817 -1.94392 0)
(-2.12297 -1.88342 0)
(-2.24046 -1.81659 0)
(-2.34881 -1.74307 0)
(-2.44576 -1.66246 0)
(-2.52848 -1.57441 0)
(-2.59343 -1.47857 0)
(-2.63612 -1.37468 0)
(-2.65075 -1.2625 0)
(-2.62943 -1.14137 0)
(-2.55966 -1.00804 0)
(-2.41757 -0.856108 0)
(-2.15027 -0.671202 0)
(-1.6474 -0.441423 0)
(-0.750054 -0.153915 0)
(0.582412 -0.115529 5.49121e-16)
(1.31399 -0.333455 -6.44349e-16)
(1.74741 -0.50972 0)
(2.00559 -0.660005 -6.58459e-16)
(2.16293 -0.791951 1.28975e-15)
(2.25689 -0.913246 -6.24258e-16)
(2.3052 -1.02739 0)
(2.31786 -1.13506 5.83865e-16)
(2.30185 -1.23624 -5.64179e-16)
(2.26243 -1.33079 0)
(2.20376 -1.41864 0)
(2.12928 -1.4998 0)
(2.04183 -1.57437 -2.47179e-16)
(1.94382 -1.6425 2.39665e-16)
(1.83722 -1.7044 2.32707e-16)
(1.72373 -1.7603 -2.26206e-16)
(1.60473 -1.81047 -2.20237e-16)
(1.48142 -1.85519 4.29446e-16)
(1.35478 -1.89477 -2.09693e-16)
(1.2256 -1.92951 2.05171e-16)
(1.09446 -1.9597 -3.01613e-16)
(0.96186 -1.98556 1.97451e-16)
(0.828206 -2.00729 -9.71306e-17)
(0.693829 -2.02507 0)
(0.559018 -2.03907 -9.46233e-17)
(0.424009 -2.04942 1.40516e-16)
(0.288979 -2.05624 5.51571e-21)
(0.154053 -2.05965 -4.62142e-17)
(0.019296 -2.05971 0)
(-0.115233 -2.05645 0)
(-0.249475 -2.04991 0)
(-0.383345 -2.04007 0)
(-0.516732 -2.02687 0)
(-0.649483 -2.01024 0)
(-0.78141 -1.99012 -4.73304e-17)
(-0.912287 -1.9664 4.79136e-17)
(-1.04185 -1.939 0)
(-1.1698 -1.90779 0)
(-1.29578 -1.87262 0)
(-1.41935 -1.83329 0)
(-1.53993 -1.78955 -2.10533e-16)
(-1.65676 -1.74117 4.31647e-16)
(-1.76894 -1.68792 -2.2167e-16)
(-1.87537 -1.6296 2.28125e-16)
(-1.97474 -1.56601 -2.3515e-16)
(-2.06547 -1.49692 0)
(-2.1456 -1.42215 2.51182e-16)
(-2.2127 -1.34151 -2.60172e-16)
(-2.26376 -1.25484 0)
(-2.29496 -1.16198 0)
(-2.30131 -1.0628 0)
(-2.27604 -0.956826 -6.06325e-16)
(-2.2083 -0.841515 -3.11024e-20)
(-2.07757 -0.711967 1.2872e-15)
(-1.83841 -0.555739 -6.25178e-16)
(-1.39742 -0.363056 6.15371e-16)
(-0.625649 -0.124071 -5.36862e-16)
(0.494661 -0.0935946 0)
(1.12273 -0.275028 6.59509e-16)
(1.49639 -0.422055 -6.74174e-16)
(1.7193 -0.547244 -6.75301e-16)
(1.8559 -0.657323 6.61724e-16)
(1.93854 -0.759134 0)
(1.98236 -0.855609 0)
(1.99581 -0.947217 6.01007e-16)
(1.98476 -1.03389 -5.81504e-16)
(1.95361 -1.1155 0)
(1.90582 -1.19193 -2.725e-16)
(1.84423 -1.26315 2.64057e-16)
(1.77119 -1.32916 0)
(1.68867 -1.38999 -2.48752e-16)
(1.59837 -1.44572 -2.38008e-20)
(1.50168 -1.49651 2.35437e-16)
(1.39981 -1.5425 2.29562e-16)
(1.29375 -1.58386 2.4263e-20)
(1.18435 -1.62076 -2.19168e-16)
(1.0723 -1.65337 2.14714e-16)
(0.95816 -1.68187 -2.10672e-16)
(0.842409 -1.70642 0)
(0.72544 -1.72717 0)
(0.60759 -1.74425 0)
(0.489139 -1.75775 0)
(0.37031 -1.7678 0)
(0.251283 -1.77447 4.89566e-17)
(0.132202 -1.77782 -4.8703e-17)
(0.0131906 -1.77792 -2.42825e-17)
(-0.105632 -1.7748 1.81938e-17)
(-0.224153 -1.76852 6.07278e-18)
(-0.342255 -1.75904 0)
(-0.459803 -1.74637 0)
(-0.576632 -1.73044 0)
(-0.692553 -1.71122 4.98997e-17)
(-0.807343 -1.68865 -5.04943e-17)
(-0.920736 -1.66266 1.02427e-16)
(-1.03242 -1.63317 1.1381e-20)
(-1.14204 -1.60009 1.12904e-20)
(-1.24914 -1.56331 -1.08118e-16)
(-1.3532 -1.52268 -2.21059e-16)
(-1.45356 -1.4781 2.26364e-16)
(-1.54943 -1.42942 -2.32263e-16)
(-1.63988 -1.37653 2.38693e-16)
(-1.72375 -1.31931 -2.45764e-16)
(-1.79967 -1.25766 2.53413e-16)
(-1.86596 -1.1915 2.61745e-16)
(-1.92054 -1.12074 2.00021e-20)
(-1.96083 -1.04529 -5.60641e-16)
(-1.98351 -0.965048 2.90547e-16)
(-1.98426 -0.879897 0)
(-1.95716 -0.78944 0)
(-1.89277 -0.691594 0)
(-1.77333 -0.582511 -6.63508e-16)
(-1.56007 -0.452343 -2.82938e-20)
(-1.17515 -0.292936 1.27116e-15)
(-0.516781 -0.0976102 -5.53221e-16)
(0.415098 -0.0733253 0)
(0.950013 -0.221514 0)
(1.27074 -0.342578 0)
(1.46314 -0.445804 0)
(1.58182 -0.536866 0)
(1.65444 -0.621279 0)
(1.69388 -0.701475 0)
(1.70735 -0.777836 0)
(1.69985 -0.850339 0)
(1.67511 -0.918899 0)
(1.63606 -0.983422 0)
(1.58506 -1.04383 0)
(1.52407 -1.10008 -2.65001e-16)
(1.45474 -1.15218 2.5763e-16)
(1.37845 -1.20019 0)
(1.29639 -1.24415 -2.44495e-16)
(1.20958 -1.28415 -2.58099e-20)
(1.11885 -1.32026 2.33302e-16)
(1.02495 -1.3526 2.28454e-16)
(0.928478 -1.38128 -2.24015e-16)
(0.829958 -1.40641 0)
(0.729816 -1.42811 0)
(0.628415 -1.44649 0)
(0.526059 -1.46164 0)
(0.423006 -1.47363 0)
(0.319475 -1.48253 0)
(0.215649 -1.48839 -5.13888e-17)
(0.111684 -1.49125 5.11474e-17)
(0.00772657 -1.4912 2.55113e-17)
(-0.0960787 -1.48827 -3.18687e-17)
(-0.199597 -1.4825 6.3832e-18)
(-0.30269 -1.47388 0)
(-0.405213 -1.4624 0)
(-0.507 -1.44805 0)
(-0.607865 -1.4308 -5.24374e-17)
(-0.707593 -1.41061 5.30446e-17)
(-0.805933 -1.38743 -1.07554e-16)
(-0.902593 -1.36123 1.09227e-16)
(-0.997231 -1.33192 1.11161e-16)
(-1.08944 -1.29947 1.20105e-20)
(-1.17874 -1.26378 -1.15736e-16)
(-1.26454 -1.2248 -2.36862e-16)
(-1.34617 -1.18245 2.42751e-16)
(-1.42279 -1.13667 0)
(-1.49341 -1.08738 0)
(-1.55685 -1.03454 -2.63989e-16)
(-1.61165 -0.978106 2.72268e-16)
(-1.65602 -0.918056 0)
(-1.68773 -0.854352 0)
(-1.70389 -0.78692 3.00952e-16)
(-1.70068 -0.715636 -6.23523e-16)
(-1.67293 -0.640111 3.23397e-16)
(-1.6123 -0.55857 -6.6502e-16)
(-1.50349 -0.467925 6.83563e-16)
(-1.31357 -0.360529 0)
(-0.978943 -0.230475 0)
(-0.421899 -0.0743026 0)
(0.343239 -0.0546422 -5.8436e-16)
(0.794852 -0.172661 6.90617e-16)
(1.06882 -0.270959 7.07565e-16)
(1.23494 -0.355244 -1.41923e-15)
(1.33839 -0.42974 -3.62573e-20)
(1.40249 -0.498797 1.34992e-15)
(1.43813 -0.564391 -6.54904e-16)
(1.45142 -0.626861 0)
(1.44669 -0.686241 0)
(1.42717 -0.742493 -2.98775e-16)
(1.39535 -0.795545 -2.47345e-20)
(1.35324 -0.845333 2.81623e-16)
(1.30249 -0.891806 -2.73842e-16)
(1.24446 -0.934949 5.33082e-16)
(1.1803 -0.974781 2.66705e-20)
(1.111 -1.01132 -2.53488e-16)
(1.03739 -1.04461 2.47748e-16)
(0.960216 -1.07472 -2.42444e-16)
(0.880088 -1.10172 0)
(0.797546 -1.12571 1.16665e-16)
(0.713046 -1.14674 -2.29426e-16)
(0.626979 -1.16489 2.25982e-16)
(0.53967 -1.18023 -1.11482e-16)
(0.451399 -1.19284 1.10211e-16)
(0.362406 -1.20277 -5.45561e-17)
(0.2729 -1.21009 -1.08274e-16)
(0.183057 -1.21481 5.38086e-17)
(0.0930354 -1.21698 0)
(0.00298891 -1.21669 -1.33695e-17)
(-0.0869297 -1.21399 1.33645e-17)
(-0.176581 -1.20889 0)
(-0.265825 -1.20139 0)
(-0.354517 -1.19148 0)
(-0.442496 -1.17915 0)
(-0.529582 -1.16439 5.49784e-17)
(-0.615575 -1.14718 -5.55993e-17)
(-0.700245 -1.12749 0)
(-0.783328 -1.10528 0)
(-0.864513 -1.08052 -1.16351e-16)
(-0.943431 -1.05317 1.18528e-16)
(-1.01965 -1.02319 -1.20985e-16)
(-1.09268 -0.990536 -1.23701e-16)
(-1.16189 -0.955169 -2.45106e-20)
(-1.22658 -0.917044 5.19635e-16)
(-1.2859 -0.876132 -2.66889e-16)
(-1.33879 -0.832405 0)
(-1.38401 -0.785835 0)
(-1.41999 -0.736392 0)
(-1.44476 -0.684049 0)
(-1.45576 -0.628758 0)
(-1.44963 -0.570403 3.22124e-16)