/*--------------------------------*- C++ -*----------------------------------*\
| =========                 |                                                 |
| \\      /  F ield         | OpenFOAM: The Open Source CFD Toolbox           |
|  \\    /   O peration     | Version:  2212                                  |
|   \\  /    A nd           | Website:  www.openfoam.com                      |
|    \\/     M anipulation  |                                                 |
\*---------------------------------------------------------------------------*/
FoamFile
{
    version     2.0;
    format      ascii;
    arch        "LSB;label=32;scalar=64";
    class       volScalarField;
    location    "0.0297";
    object      T;
}
// * * * * * * * * * * * * * * * * * * * * * * * * * * * * * * * * * * * * * //

dimensions      [0 0 0 1 0 0 0];

internalField   nonuniform List<scalar> 
2308
(
197.831
186.902
232.295
173.119
182.833
178.471
176.536
180.708
184.436
151.949
153.827
156.512
158.418
160.335
162.227
164.085
165.889
167.442
165.745
163.954
162.064
160.125
158.14
156.09
154.042
151.986
149.98
147.957
176.851
167.646
145.85
143.807
141.788
139.781
137.784
135.794
133.806
131.817
129.826
127.836
125.844
123.855
121.867
119.877
117.887
117.887
119.874
121.859
123.847
125.835
127.822
129.809
131.799
133.785
135.772
137.763
139.755
141.756
143.77
145.807
147.89
149.837
151.742
153.568
155.302
156.995
158.764
160.612
162.475
164.322
166.153
115.902
115.893
165.944
163.979
162.005
160.015
158.004
155.981
153.963
151.913
149.865
147.862
145.833
143.805
141.792
139.791
137.794
135.802
133.808
131.817
129.825
127.833
125.842
123.853
121.863
119.874
117.887
169.111
115.899
169.338
167.955
115.872
117.863
119.85
121.838
123.825
125.813
127.803
129.794
131.78
133.767
135.756
137.743
139.733
141.726
143.727
145.729
147.717
149.665
151.618
153.518
155.374
157.202
159.031
160.883
162.748
164.605
166.452
182.112
177.757
176.089
177.103
168.272
166.15
164.035
161.991
159.963
157.939
155.915
153.893
151.86
149.818
147.815
145.807
143.795
141.788
139.79
137.793
135.8
133.808
131.814
129.821
127.829
125.839
123.848
121.857
119.869
117.883
115.895
113.906
113.912
113.914
113.901
181.83
113.883
183.517
184.255
169.718
186.52
181.448
170.929
168.304
111.918
111.921
111.922
111.91
111.895
111.88
113.866
115.857
117.843
119.832
121.818
123.806
125.796
127.786
129.777
131.765
133.754
135.742
137.73
139.718
141.707
143.697
145.682
147.65
149.591
151.545
153.48
155.422
157.347
159.235
161.12
163.004
164.885
166.751
172.463
200.923
181.323
180.351
178.312
176.347
174.339
172.296
170.23
168.156
166.096
164.027
161.97
159.93
157.899
155.872
153.846
151.819
149.79
147.785
145.785
143.783
141.783
139.787
137.791
135.798
133.804
131.81
129.816
127.826
125.834
123.841
121.851
119.864
117.875
115.888
113.9
111.912
248.535
185.248
203.892
171.146
223.561
185.275
170.152
172.633
111.866
113.854
115.841
117.83
119.816
121.804
123.793
125.784
127.774
129.764
131.753
133.742
135.73
137.718
139.705
141.69
143.671
145.644
147.603
149.55
151.503
153.459
155.432
157.411
159.369
161.308
163.225
165.126
167.022
168.621
187.743
184.359
180.441
178.254
176.222
174.195
172.157
170.109
168.06
166.016
163.97
161.926
159.892
157.864
155.839
153.813
151.789
149.769
147.764
145.767
143.771
141.778
139.782
137.789
135.794
133.799
131.804
129.813
127.82
125.826
123.835
121.847
119.857
117.867
115.879
113.892
111.905
109.917
109.923
109.927
109.929
109.928
109.92
109.907
109.893
109.879
207.061
229.661
271.128
186.99
196.066
271.998
168.902
170.492
189.36
188.88
197.154
179.934
180.204
178.152
176.101
174.064
172.03
169.996
167.964
165.933
163.902
161.872
159.846
157.825
155.804
153.783
151.764
149.751
147.749
145.754
143.763
141.772
139.778
137.784
135.789
133.793
131.801
129.808
127.813
125.821
123.831
121.84
119.848
117.86
115.87
113.883
111.897
109.91
107.923
107.928
107.933
107.934
107.936
107.938
107.928
107.917
107.906
107.895
107.884
109.87
111.857
113.844
115.832
117.818
119.806
121.795
123.784
125.775
127.764
129.754
131.743
133.732
135.719
137.705
139.689
141.671
143.647
145.614
147.572
149.524
151.48
153.447
155.427
157.413
159.418
161.411
163.381
165.321
167.246
189.203
170.752
172.361
174.524
190.825
190.48
188.663
187
185.26
182.282
182.128
180.12
178.041
175.977
173.931
171.903
169.88
167.862
165.845
163.827
161.81
159.793
157.78
155.767
153.754
151.743
149.736
147.737
145.744
143.753
141.761
139.768
137.774
135.78
133.787
131.794
129.799
127.807
125.817
123.825
121.832
119.842
117.851
115.862
113.876
111.889
109.902
107.916
105.93
105.935
105.939
105.942
105.945
105.943
105.942
105.935
105.927
105.918
105.909
105.9
105.892
107.878
109.863
111.85
113.837
115.825
117.813
119.801
121.79
123.779
125.768
127.757
129.745
131.733
133.721
135.708
137.692
139.674
141.652
143.625
145.591
147.55
149.506
151.464
153.44
155.419
157.408
159.417
161.437
163.458
165.461
167.424
169.149
190.921
190.731
265.722
171.008
186.365
188.364
190.237
174.058
178.439
174.693
172.563
192.283
192.189
103.942
103.945
103.948
103.95
103.95
103.95
103.948
103.943
103.936
103.929
103.921
103.913
103.904
103.897
105.884
107.872
109.859
111.846
113.834
115.822
117.81
119.798
121.786
123.775
125.763
127.75
129.738
131.725
133.71
135.695
137.678
139.659
141.636
143.607
145.573
147.534
149.493
151.455
153.431
155.413
157.399
159.411
161.427
163.457
165.503
167.539
169.362
182.719
192.546
176.412
230.799
180.043
177.91
175.831
173.789
171.769
169.758
167.755
165.752
163.747
161.742
159.736
157.73
155.726
153.722
151.719
149.719
147.722
145.731
143.739
141.747
139.755
137.762
135.77
133.777
131.784
129.792
127.8
125.809
123.817
121.826
119.833
117.844
115.856
113.868
111.881
109.895
107.909
105.923
103.936
192.305
192.532
245.437
174.3
194.162
172.838
103.89
105.879
107.866
109.855
111.842
113.831
115.819
117.807
119.795
121.783
123.771
125.758
127.744
129.73
131.716
133.7
135.683
137.664
139.643
141.619
143.592
145.559
147.521
149.483
151.448
153.426
155.4
157.391
159.399
161.414
163.442
165.494
167.577
169.546
181.273
194.043
101.948
101.951
101.954
101.957
101.957
101.956
101.956
101.954
101.949
101.944
101.938
101.93
101.923
101.916
101.908
101.9
184.092
193.832
191.674
189.564
187.44
178.556
179.216
185.923
173.808
179.821
177.703
175.646
173.625
171.624
169.633
167.644
165.656
163.665
161.671
159.676
157.68
155.683
153.687
151.691
149.696
147.704
145.713
143.722
141.731
139.74
137.749
135.757
133.766
131.774
129.783
127.792
125.8
123.809
121.818
119.827
117.839
115.848
113.86
111.875
109.889
107.902
105.917
103.93
101.942
242.053
171.254
175.783
193.874
194.289
194.179
179.892
244.89
248.207
177.26
174.678
169.717
177.11
210.241
179.083
239.113
101.895
103.884
105.873
107.862
109.851
111.84
113.827
115.816
117.804
119.791
121.779
123.765
125.752
127.738
129.722
131.706
133.689
135.671
137.65
139.628
141.603
143.576
145.546
147.511
149.475
151.442
153.416
155.393
157.383
159.385
161.397
163.421
165.459
167.508
169.568
182.639
199.227
201.932
99.9531
99.9571
99.9597
99.9628
99.9637
99.9641
99.9642
99.9622
99.9584
99.9554
99.9505
99.9443
99.9378
99.9315
99.9243
99.9174
99.9111
99.9043
178.922
195.355
193.014
190.798
188.69
186.675
226.815
199.391
181.348
179.395
177.409
175.422
173.443
171.472
169.504
167.534
165.56
163.582
161.6
159.615
157.628
155.639
153.65
151.661
149.671
147.682
145.692
143.703
141.714
139.724
137.734
135.744
133.753
131.763
129.772
127.782
125.791
123.801
121.811
119.821
117.831
115.842
113.855
111.869
109.882
107.896
105.91
103.923
101.936
99.9477
185.324
171.506
200.319
191.418
193.377
195.399
173.119
195.911
195.835
196.041
239.008
199.805
224.617
174.722
171.245
181.226
245.318
241.848
169.307
167.37
165.381
163.377
161.369
159.368
157.375
155.383
153.409
151.437
149.468
147.5
145.532
143.561
141.589
139.614
137.637
135.658
133.678
131.696
129.714
127.73
125.745
123.76
121.773
119.787
117.8
115.812
113.824
111.836
109.847
107.858
105.869
103.879
101.89
99.8993
238.765
97.9581
97.9623
97.9652
97.9682
97.9707
97.9705
97.9704
97.9684
97.9654
97.9629
97.9595
97.9546
97.9499
97.9442
97.9383
97.9325
97.9267
97.9198
97.914
97.9087
183.696
171.798
189.509
249.065
248.917
248.964
248.939
248.846
245.133
241.53
238.086
174.573
235.862
197.432
201.641
200.972
192.711
194.757
196.875
174.966
186.478
244.054
196.644
194.242
192.027
190.008
188.194
185.21
186.815
182.639
180.842
178.989
177.099
175.184
173.255
171.319
169.377
167.426
165.467
163.503
161.532
159.557
157.578
155.596
153.613
151.629
149.643
147.657
145.671
143.684
141.696
139.708
137.719
135.73
133.741
131.751
129.762
127.772
125.782
123.792
121.803
119.813
117.824
115.836
113.849
111.861
109.875
107.889
105.902
103.916
101.929
99.9408
97.9523
198.431
196.319
194.215
225.522
195.22
173.434
228.34
193.218
233.375
197.799
197.814
197.473
195.151
196.058
193.957
238.434
197.28
234.348
237.205
203.19
195.8
198.273
241.005
244.843
248.691
169.198
167.253
165.291
163.314
161.329
159.341
157.357
155.375
153.4
151.428
149.458
147.488
145.518
143.547
141.575
139.6
137.624
135.646
133.667
131.686
129.704
127.721
125.737
123.752
121.767
119.781
117.794
115.807
113.82
111.831
109.843
107.854
105.865
103.875
101.885
99.8956
97.9047
189.405
191.132
193.111
195.292
197.667
200.21
220.924
182.065
172.41
190.734
193.098
234.783
235.315
200.622
198.255
173.069
229.813
224.762
183.509
184.683
253.149
239.696
244.603
202.896
95.9632
95.9674
95.9706
95.9732
95.976
95.976
95.9755
95.9733
95.9707
95.9686
95.9658
95.9624
95.9586
95.9551
95.9497
95.9451
95.9405
95.9342
95.9282
95.9222
95.9181
95.9157
253.051
252.88
252.78
252.722
252.67
252.601
236.292
173.836
187.627
192.211
191.404
178.594
231.975
232.208
199.717
228.069
203.521
199.068
229.122
175.337
272.492
252.87
199.57
184.939
183.59
182.046
180.38
178.625
176.813
174.957
173.073
171.171
169.253
167.322
165.381
163.429
161.469
159.502
157.53
155.555
153.578
151.598
149.616
147.634
145.65
143.664
141.678
139.692
137.704
135.716
133.728
131.739
129.751
127.762
125.773
123.784
121.795
119.806
117.817
115.829
113.841
111.854
109.868
107.881
105.895
103.908
101.92
99.9327
97.9451
95.9574
267.587
214.159
272.262
191.933
234.987
199.519
243.663
186.406
179.996
234.317
182.837
182.218
188.68
190.218
191.974
193.943
196.112
198.475
201.026
203.75
205.754
206.627
180.346
192.739
176.808
185.766
172.815
170.959
169.08
167.156
165.211
163.252
161.283
159.309
157.333
155.359
153.386
151.416
149.446
147.476
145.506
143.535
141.562
139.588
137.613
135.635
133.657
131.677
129.695
127.713
125.729
123.745
121.76
119.775
117.788
115.802
113.814
111.827
109.838
107.849
105.861
103.871
101.881
99.8912
97.9013
95.9123
240.422
244.476
248.506
252.515
231.755
271.921
193.9
196.207
198.855
210.972
204.621
207.787
171.429
187.297
175.658
174.386
188.807
191.129
189.672
185.986
231.45
231.706
204.842
201.52
173.599
225.223
179.741
220.937
217.166
202.999
200.565
224.964
177.203
180.959
181.526
190.933
218.459
221.417
224.825
186.81
188.016
256.83
256.857
256.806
256.711
256.617
256.547
256.511
256.479
256.451
185.742
175.796
201.327
201.664
228.361
222.465
182.661
184.534
183.128
181.62
180.019
178.33
176.573
174.764
172.917
171.042
169.145
167.23
165.302
163.363
161.412
159.454
157.488
155.519
153.545
151.569
149.591
147.611
145.629
143.646
141.662
139.676
137.69
135.703
133.716
131.728
129.74
127.751
125.763
123.774
121.786
119.798
117.809
115.821
113.834
111.847
109.86
107.873
105.886
103.899
101.912
99.9249
97.9377
95.9507
93.9631
93.9685
93.973
93.9762
93.9778
93.9792
93.9795
93.9787
93.977
93.9748
93.9726
93.9699
93.9678
93.9654
93.9625
93.9598
93.955
93.9513
93.9467
93.9416
93.9366
93.9311
93.9278
93.9258
93.9223
190.341
228.464
209.629
208.786
206.408
187.467
256.95
247.926
175.635
176.785
189.041
190.728
192.537
194.52
196.69
199.066
201.66
204.47
207.475
210.595
216.486
212.623
213.678
175.023
189.986
187.885
231.477
204.419
172.01
221.346
215.511
213.564
201.9
220.982
179.034
221.522
183.221
208.632
205.261
202.158
199.34
196.772
194.454
192.201
188.334
252.769
183.357
235.767
239.929
244.129
248.296
252.434
256.431
183.805
177.704
272.97
203.64
261.029
260.817
260.695
260.63
260.56
260.482
260.4
260.336
260.297
260.277
260.271
260.271
217.969
224.838
180.484
198.387
175.93
272.433
184.787
185.897
184.361
182.87
181.346
179.767
178.116
176.394
174.62
172.799
170.943
169.06
167.156
165.237
163.306
161.364
159.412
157.452
155.487
153.518
151.545
149.569
147.591
145.611
143.629
141.646
139.662
137.677
135.691
133.704
131.717
129.729
127.742
125.754
123.765
121.777
119.789
117.801
115.814
113.826
111.839
109.852
107.865
105.878
103.891
101.904
99.9172
97.9305
95.9438
93.9564
91.968
91.9745
91.978
91.98
91.981
91.9814
91.9816
91.9811
91.9797
91.9778
91.9757
91.9734
91.9716
91.9701
91.9684
91.9663
91.964
91.9598
91.9566
91.9531
91.9491
91.9449
91.9399
91.9375
91.9364
91.9327
91.9307
93.9192
95.9087
97.8988
99.8879
101.878
103.867
105.856
107.845
109.834
111.822
113.809
115.796
117.783
119.769
121.754
123.738
125.722
127.705
129.687
131.668
133.647
135.626
137.603
139.578
141.552
143.524
145.495
147.465
149.434
151.403
153.372
155.341
157.309
159.277
161.241
163.199
165.146
167.082
169.006
170.924
172.909
174.766
176.602
178.329
212.192
182.158
184.292
184.79
186.545
180.367
188.71
203.725
218.36
176.355
177.622
189.261
186.921
185.031
188.568
228.024
228.012
208.072
218.172
211.869
209.428
215.909
202.983
205.602
224.657
217.46
213.47
179.545
220.995
204.44
212.598
214.966
206.874
207.551
227.885
186.818
188.12
176.977
215.21
211.742
208.283
205.047
202.092
199.423
197.023
194.852
192.882
191.083
189.399
205.568
184.018
178.181
190.61
192.599
194.769
197.099
199.649
202.497
205.709
209.349
184.551
182.078
229.313
234.174
238.956
243.507
178.453
213.854
185.074
214.361
182.274
221.268
180.905
235.082
239.445
243.787
248.108
252.39
256.517
260.536
183.366
181.977
184.475
182.832
181.236
179.599
177.988
176.327
174.553
172.733
170.848
168.941
167.024
165.095
163.155
161.206
159.249
157.288
155.324
153.358
151.392
149.424
147.455
145.486
143.515
141.543
139.569
137.594
135.618
133.64
131.66
129.68
127.698
125.716
123.732
121.748
119.763
117.777
115.791
113.804
111.817
109.829
107.841
105.852
103.864
101.875
99.8852
97.8954
95.9059
93.9169
91.9288
208.42
205.529
89.9777
89.9837
89.9841
89.9838
89.9831
89.9829
89.9827
89.9818
89.98
89.9781
89.9762
89.9743
89.9729
89.9722
89.9712
89.9698
89.9683
89.9646
89.9625
89.9598
89.9571
89.9533
89.949
89.9469
89.9469
89.9446
89.9438
89.9426
218.564
264.704
264.519
264.416
264.336
264.259
264.184
264.115
264.055
264.012
263.986
263.968
264.03
264.418
252.359
256.54
260.797
264.802
187.199
185.697
184.19
182.693
181.174
179.608
177.977
176.279
174.522
172.715
170.87
168.996
167.1
165.188
163.262
161.325
159.378
157.423
155.462
153.495
151.524
149.551
147.574
145.596
143.615
141.633
139.65
137.665
135.68
133.694
131.707
129.72
127.732
125.745
123.757
121.769
119.781
117.794
115.806
113.819
111.831
109.844
107.857
105.87
103.883
101.897
99.91
97.9234
95.9366
93.9493
91.9613
89.9721
217.715
211.227
224.25
224.396
184.055
187.49
178.306
179.534
209.745
205.989
188.29
208.219
183.115
189.187
190.958
192.882
194.973
197.291
199.857
202.714
205.944
209.626
243.965
168.684
223.582
228.786
234.093
239.08
189.706
217.232
212.96
208.926
205.397
202.333
199.641
197.229
195.052
193.079
191.292
178.909
186.343
185.781
224.148
210.587
214.406
211.381
207.141
186.925
185.474
184.04
182.572
181.063
179.495
177.867
176.182
174.429
172.624
170.771
168.885
166.979
165.057
163.123
161.179
159.228
157.271
155.311
153.347
151.382
149.416
147.448
145.478
143.508
141.536
139.562
137.588
135.611
133.634
131.654
129.674
127.693
125.711
123.727
121.743
119.758
117.773
115.787
113.8
111.813
109.825
107.837
105.849
103.86
101.871
99.8823
97.893
95.9038
93.9152
91.9278
89.9415
229.557
234.335
238.983
243.455
247.967
252.421
256.871
261.139
264.957
181.394
220.71
208.25
217.074
220.342
183.12
180.273
250.856
255.557
260.195
264.453
186.089
220.648
268.376
268.155
268.04
267.983
267.929
267.875
267.82
267.768
267.722
267.684
267.654
267.645
267.694
268.037
268.48
271.024
87.9816
87.9844
87.9901
87.9883
87.9859
87.9833
87.9823
87.9822
87.9813
87.9793
87.9777
87.9762
87.9749
87.974
87.974
87.9737
87.9731
87.9725
87.9694
87.9683
87.9666
87.9648
87.9618
87.9581
87.9573
87.9588
87.9571
87.9578
87.9571
87.9556
186.898
185.487
184.033
182.565
181.071
179.529
177.91
176.217
174.461
172.66
170.821
168.953
167.063
165.155
163.232
161.298
159.354
157.401
155.442
153.478
151.509
149.536
147.561
145.583
143.603
141.622
139.639
137.655
135.67
133.684
131.698
129.711
127.724
125.737
123.749
121.761
119.774
117.786
115.799
113.812
111.824
109.837
107.85
105.863
103.876
101.89
99.9034
97.9168
95.9301
93.9429
91.9555
89.9671
87.9757
210.054
213.734
220.228
184.718
180.842
89.9406
91.927
190.188
189.174
87.9555
85.9643
85.9689
85.9705
85.9666
85.9653
85.9655
85.9707
85.966
85.9654
85.969
85.9684
85.9709
85.9698
85.9692
85.9706
85.9697
85.969
85.9713
85.971
85.972
85.9725
85.9734
85.9732
85.9811
85.975
85.9955
85.9909
85.9936
86.0008
89.9632
87.9753
85.9809
85.9927
93.9378
91.9509
97.9113
95.9246
101.884
99.8978
105.857
103.871
109.831
107.844
113.805
111.818
117.78
115.792
121.754
119.767
125.729
123.742
129.704
127.717
133.677
131.69
137.647
135.662
141.614
139.631
145.574
143.595
149.526
147.551
153.466
151.498
157.387
155.429
161.282
159.339
165.136
163.215
168.932
167.043
172.638
170.799
176.191
174.439
179.499
177.883
182.494
181.026
185.364
183.933
188.302
186.812
191.402
189.796
195.152
193.182
199.748
197.331
205.531
202.45
213.395
209.111
223.167
218.178
233.768
228.563
243.117
238.695
252.776
247.909
262.137
257.644
269.527
271.44
271.559
271.311
271.314
271.337
271.323
271.376
271.355
271.418
271.397
271.453
271.437
271.509
271.471
270.611
271.619
268.781
269.416
272.093
272.8
267.155
269.57
259.46
263.797
249.405
254.588
239.382
244.267
228.822
234.114
218.732
223.719
209.781
214.021
202.831
206.071
197.39
199.964
192.996
195.073
189.528
191.157
186.649
188.062
183.837
185.254
180.954
182.409
177.825
179.44
174.375
176.131
170.724
172.569
166.949
168.848
163.102
165.032
159.214
161.162
155.301
157.26
151.375
153.34
147.442
149.409
143.503
145.473
139.557
141.531
135.606
137.583
131.65
133.629
127.689
129.67
123.723
125.706
119.755
121.739
115.783
117.769
111.809
113.797
107.834
109.822
103.858
105.846
99.8801
101.869
95.9028
97.8914
93.9145
272.068
272.778
216.462
178.591
85.9748
210.99
85.9885
239.574
272.963
273.108
273.11
273.154
273.153
273.16
273.16
176.454
217.661
216.325
212.873
213.098
170.398
172.848
170.668
187.48
184.236
185.828
188.968
185.654
187.285
190.484
186.997
188.719
191.955
188.265
190.085
216.763
182.366
272.701
183.655
267.306
181.023
201.408
214.637
183.697
185.766
180.267
174.796
167.338
218.508
179.642
174.528
185.618
247.563
183.293
249.685
177.868
182.194
225.816
177.033
270.523
174.593
204.64
176.506
175.307
179.852
188.077
272.689
242.191
202.081
188.258
188.029
218.204
257.805
234.63
193.995
269.456
175.215
171.059
172.562
192.155
170.749
236.381
185.892
195.267
180.454
155.194
150.386
187.91
)
;

boundaryField
{
    wall
    {
        type            zeroGradient;
    }
    outlet
    {
        type            fixedValue;
        value           uniform 85;
    }
    inlet
    {
        type            fixedValue;
        value           uniform 273.16;
    }
    frontAndBackPlanes
    {
        type            empty;
    }
}


// ************************************************************************* //
