/*--------------------------------*- C++ -*----------------------------------*\
| =========                 |                                                 |
| \\      /  F ield         | OpenFOAM: The Open Source CFD Toolbox           |
|  \\    /   O peration     | Version:  2212                                  |
|   \\  /    A nd           | Website:  www.openfoam.com                      |
|    \\/     M anipulation  |                                                 |
\*---------------------------------------------------------------------------*/
FoamFile
{
    version     2.0;
    format      ascii;
    arch        "LSB;label=32;scalar=64";
    class       volVectorField;
    location    "6.9e-05";
    object      U;
}
// * * * * * * * * * * * * * * * * * * * * * * * * * * * * * * * * * * * * * //

dimensions      [0 1 -1 0 0 0 0];

internalField   nonuniform List<vector> 
29939
(
(7.86376e-09 6.7576 631.496)
(6.06591e-09 10.5141 631.538)
(4.25197e-09 14.3463 631.527)
(2.97908e-09 17.9085 631.245)
(2.13264e-09 21.3825 631.098)
(1.56875e-09 24.6922 630.975)
(1.20955e-09 27.5116 630.734)
(9.6328e-10 29.6203 630.287)
(7.88715e-10 30.7402 629.499)
(6.65302e-10 29.9067 628.061)
(5.62073e-10 25.7618 624.893)
(4.74315e-10 18.0163 620.166)
(3.81854e-10 7.60465 615.094)
(3.25841e-10 2.22878 612.692)
(2.75848e-10 1.74751 612.25)
(2.12894e-10 2.01491 610.255)
(1.89011e-10 0.991825 608.627)
(1.62727e-10 2.33789 607.574)
(1.43327e-10 6.43908 607.318)
(1.39253e-10 9.75245 606.708)
(1.14757e-10 13.541 602.746)
(1.0268e-10 18.1879 593.533)
(1.19246e-10 22.6279 575.093)
(1.3041e-10 29.7044 540.87)
(9.29127e-11 38.8234 483.793)
(1.19016e-10 47.1555 402.669)
(6.58421e-11 46.1154 309.686)
(6.29361e-11 48.5019 209.169)
(1.30288e-10 50.4535 162.227)
(1.07697e-10 50.1527 142.956)
(6.42341e-11 51.11 135.142)
(5.0569e-11 51.3367 133.11)
(4.63244e-11 51.5149 133.468)
(3.68187e-11 51.8215 134.865)
(3.51827e-11 52.3014 137.433)
(3.07366e-11 52.8089 139.732)
(2.7655e-11 53.4159 141.539)
(8.01163e-11 54.1623 142.524)
(6.94383e-11 55.1464 142.913)
(1.06917e-11 56.5032 142.492)
(1.02102e-11 58.6397 141.07)
(6.23863e-11 61.3875 137.638)
(4.51793e-11 64.4641 130.844)
(5.46448e-11 67.3861 119.664)
(3.95335e-11 65.5183 102.837)
(3.28664e-11 48.8709 76.9596)
(2.18224e-11 24.6299 49.0868)
(3.13788e-12 6.68427 25.5069)
(7.87615e-09 6.5806 630.707)
(6.07688e-09 10.464 630.818)
(4.25412e-09 14.3972 630.912)
(2.97883e-09 17.9981 630.627)
(2.13194e-09 21.3782 630.412)
(1.56839e-09 24.7002 630.335)
(1.20896e-09 27.6608 630.117)
(9.61925e-10 30.0356 629.628)
(7.84202e-10 31.8549 628.765)
(6.66004e-10 32.6113 627.612)
(5.68435e-10 30.9457 625.384)
(4.89054e-10 25.4364 621.779)
(3.9764e-10 15.7367 617.051)
(3.34135e-10 5.22751 612.575)
(2.88572e-10 3.38939 611.352)
(2.23184e-10 4.2121 609.256)
(1.8877e-10 2.31544 607.835)
(1.67613e-10 2.37535 606.364)
(1.47415e-10 5.68408 605.92)
(1.34395e-10 9.46698 606.083)
(1.15897e-10 13.7291 601.944)
(9.97233e-11 18.5638 593.192)
(1.13715e-10 22.7297 578.164)
(1.35945e-10 28.1858 550.654)
(9.0758e-11 36.6661 501.928)
(1.25669e-10 46.3245 427.52)
(6.96496e-11 48.1853 334.366)
(6.85223e-11 45.0089 224.576)
(6.071e-11 50.6795 161.757)
(4.57188e-11 49.4513 138.032)
(5.93942e-11 50.922 127.507)
(4.79621e-11 51.3881 124.466)
(4.41396e-11 51.6328 124.746)
(3.59168e-11 52.095 126.342)
(3.69741e-11 52.4792 129.165)
(3.33318e-11 52.7913 132.048)
(3.202e-11 53.4813 134.252)
(2.61439e-11 54.3417 135.775)
(7.19791e-11 55.2015 136.987)
(7.00296e-11 56.3109 137.371)
(1.1401e-11 58.1472 136.773)
(3.55041e-12 61.023 134.645)
(-4.71254e-12 64.6003 129.418)
(-1.47348e-11 69.5005 120.451)
(-3.83965e-12 71.4996 107.121)
(-3.26073e-12 62.1015 89.6841)
(5.80608e-12 35.2534 54.9123)
(3.0217e-12 9.61056 20.8636)
(7.87997e-09 6.34113 630.859)
(6.07806e-09 10.3718 631.033)
(4.24946e-09 14.4108 631.13)
(2.94732e-09 18.1028 631.074)
(2.11045e-09 21.3334 630.678)
(1.56704e-09 24.6631 630.645)
(1.20489e-09 27.8079 630.478)
(9.56238e-10 30.4597 630.053)
(7.80452e-10 32.4687 629.463)
(6.62634e-10 33.4655 628.832)
(5.66551e-10 32.2757 627.577)
(4.86728e-10 26.7551 625.654)
(4.01292e-10 17.6407 622.886)
(3.37593e-10 8.19645 618.316)
(2.9983e-10 5.71335 614.89)
(2.37226e-10 6.17011 612.976)
(1.85933e-10 4.88102 611.974)
(1.73197e-10 3.21075 610.225)
(1.32016e-10 4.61345 609.086)
(1.32473e-10 9.37623 608.649)
(1.45067e-10 14.3071 605.321)
(9.82115e-11 18.6807 598.131)
(1.13582e-10 22.578 585.143)
(1.3637e-10 28.0799 560.016)
(9.16575e-11 36.3107 513.146)
(1.28115e-10 45.8823 440.788)
(7.15423e-11 49.9191 348.831)
(1.78094e-10 46.6674 245.25)
(1.69081e-10 50.8087 177.647)
(4.89652e-11 48.1775 148.887)
(5.73348e-11 50.0894 135.062)
(4.77404e-11 50.9782 130.277)
(4.23396e-11 51.4222 129.418)
(3.54118e-11 52.0564 130.383)
(4.50458e-11 52.4786 132.738)
(3.83584e-11 52.7116 135.445)
(3.54441e-11 53.4735 137.488)
(3.62774e-11 54.2812 139.102)
(6.38205e-11 54.8974 140.299)
(1.26371e-10 55.6571 141.053)
(7.46507e-11 56.9042 141.043)
(-2.51696e-13 59.2027 140.16)
(-5.40848e-12 61.877 137.962)
(-9.96047e-12 64.7723 132.095)
(-1.18849e-12 68.4744 120.456)
(-4.09061e-12 66.5655 103.056)
(3.36505e-12 51.8356 77.4723)
(2.12759e-12 19.795 32.9131)
(7.84685e-09 6.18322 630.764)
(6.08098e-09 10.2041 631.022)
(4.24923e-09 14.3626 631.181)
(2.97832e-09 18.1374 631.189)
(2.1461e-09 21.3203 630.736)
(1.6136e-09 24.5613 630.73)
(1.22706e-09 27.8857 630.54)
(9.5794e-10 30.6669 630.077)
(7.85826e-10 32.8451 629.47)
(6.62849e-10 34.2483 628.812)
(5.68612e-10 33.6766 627.818)
(4.91773e-10 29.7315 626.11)
(4.15206e-10 22.1228 623.595)
(3.4071e-10 10.5555 620.076)
(2.96523e-10 6.95376 616.176)
(2.48385e-10 6.96011 614.378)
(1.90022e-10 6.08249 613.689)
(1.73105e-10 4.37145 611.644)
(1.52622e-10 4.37317 610.322)
(1.08066e-10 9.3973 609.458)
(8.32479e-11 14.9902 606.199)
(9.93543e-11 18.8476 599.715)
(1.09251e-10 21.8216 588.12)
(1.38521e-10 26.0713 566.165)
(9.12335e-11 33.998 525.401)
(1.33636e-10 44.2381 458.795)
(6.44441e-11 49.7525 369.37)
(-3.11172e-11 46.1633 262.956)
(9.77602e-11 50.2176 184.092)
(1.60863e-10 47.0838 153.033)
(5.6778e-11 48.7097 137.77)
(5.78476e-11 49.8699 132.165)
(4.63963e-11 50.5224 130.941)
(3.96333e-11 51.2619 131.471)
(1.57089e-10 52.0205 133.591)
(1.51464e-10 52.4307 136.17)
(4.0122e-11 53.1261 138.23)
(4.63474e-11 53.6818 139.933)
(-2.73652e-11 54.1402 141.284)
(-9.23929e-11 54.5314 142.123)
(-6.88406e-11 54.9604 142.258)
(-9.09471e-12 56.0747 141.699)
(8.53942e-11 58.2319 140.469)
(8.49206e-11 60.6809 135.78)
(1.07213e-12 64.4094 125.342)
(4.307e-11 65.4273 109.557)
(2.39097e-11 59.8358 92.0633)
(2.82069e-12 30.8825 60.7932)
(7.84239e-09 6.09224 630.764)
(6.08336e-09 10.0318 630.952)
(4.25167e-09 14.2031 631.163)
(2.95928e-09 18.1414 631.252)
(2.12034e-09 21.3474 630.87)
(1.55246e-09 24.5146 630.778)
(1.21087e-09 27.925 630.592)
(9.89495e-10 30.8112 630.195)
(7.92713e-10 33.0049 629.702)
(6.66783e-10 34.5791 629.163)
(5.70254e-10 34.5373 628.46)
(4.90261e-10 30.763 627.563)
(4.17836e-10 23.7603 625.699)
(3.48703e-10 14.1164 623.729)
(2.97017e-10 8.94483 619.388)
(2.53548e-10 7.93306 617.356)
(1.98641e-10 7.51772 617.118)
(1.71053e-10 5.6275 614.558)
(1.48564e-10 5.33412 612.72)
(1.35643e-10 10.0506 610.152)
(1.26287e-10 15.4042 606.792)
(9.62452e-11 18.715 601.39)
(1.08887e-10 21.9577 591.866)
(1.3789e-10 25.8826 572.212)
(9.15017e-11 33.0194 533.596)
(1.36402e-10 42.7463 469.694)
(8.45416e-11 49.0361 381.017)
(1.52536e-10 46.4023 284.172)
(1.54813e-10 49.3873 194.49)
(7.81648e-11 46.7064 159.274)
(5.13647e-11 47.6915 141.626)
(7.09177e-11 48.8618 134.267)
(5.42605e-11 49.773 132.183)
(4.67718e-11 50.5328 132.259)
(-1.37587e-11 51.3954 133.874)
(-7.02926e-12 52.1209 136.402)
(3.26174e-11 52.8211 138.492)
(1.36551e-10 53.3469 140.294)
(1.56527e-10 53.8955 141.767)
(9.67718e-11 54.2621 142.75)
(6.2071e-11 54.2183 143.106)
(1.07925e-11 53.8603 142.841)
(-4.87241e-11 54.4539 142.063)
(-7.14723e-11 56.0625 138.983)
(6.99456e-11 59.6651 130.628)
(4.17355e-11 61.0485 114.751)
(-7.07152e-12 58.2959 97.8105)
(6.65384e-13 32.5815 75.589)
(7.84987e-09 6.06293 630.686)
(6.08495e-09 9.87202 630.84)
(4.25601e-09 14.0088 631.061)
(2.9813e-09 18.1109 631.252)
(2.14557e-09 21.381 631.024)
(1.57116e-09 24.4952 630.824)
(1.20433e-09 27.9717 630.603)
(9.54382e-10 30.9565 630.199)
(7.97776e-10 33.2528 629.695)
(6.72986e-10 34.9666 629.109)
(5.74105e-10 35.3298 628.517)
(4.93126e-10 32.4243 627.45)
(4.22954e-10 25.7072 625.778)
(3.55412e-10 16.8258 624.422)
(3.00212e-10 10.5234 621.107)
(2.59795e-10 8.83443 618.97)
(2.01332e-10 8.477 618.26)
(1.72085e-10 7.02675 616.076)
(1.51982e-10 6.63051 613.736)
(1.12582e-10 10.9713 610.257)
(9.7281e-11 15.7633 606.823)
(1.02395e-10 18.7354 602.214)
(1.04747e-10 20.9773 593.976)
(1.39157e-10 24.2628 576.915)
(9.04044e-11 31.101 543.625)
(1.3875e-10 41.4498 486.889)
(6.65876e-11 48.0323 401.769)
(-2.31962e-12 46.0949 294.899)
(-1.89307e-11 47.6931 201.368)
(4.40857e-11 45.866 163.095)
(1.59375e-10 46.2429 144.602)
(1.77614e-10 47.6479 136.031)
(5.81931e-11 48.7263 133.063)
(4.83924e-11 49.6848 132.726)
(7.27531e-11 50.5138 133.724)
(7.6047e-11 51.4732 136.146)
(4.87532e-11 52.2468 138.306)
(-3.51046e-11 52.5917 140.204)
(-8.07127e-11 53.0852 141.75)
(-3.63166e-11 53.5982 142.879)
(6.87517e-11 53.6207 143.474)
(1.70273e-10 52.7704 143.326)
(1.28171e-10 51.9812 141.68)
(4.37296e-11 51.696 137.703)
(-5.27512e-11 54.2635 131.623)
(-2.53494e-11 55.0997 116.628)
(-1.84593e-11 53.9989 99.4707)
(-8.94042e-13 31.6958 78.777)
(7.8679e-09 6.06091 630.655)
(6.08332e-09 9.73893 630.759)
(4.25359e-09 13.811 630.946)
(2.94968e-09 17.9872 631.185)
(2.10427e-09 21.3834 631.228)
(1.58258e-09 24.5103 630.89)
(1.2412e-09 27.9985 630.64)
(9.94086e-10 31.0648 630.311)
(8.05677e-10 33.4098 629.893)
(6.83566e-10 35.3432 629.33)
(5.75466e-10 35.8962 628.862)
(4.90649e-10 33.2326 628.231)
(4.25584e-10 26.8138 626.876)
(3.60254e-10 19.068 624.96)
(3.03625e-10 12.266 621.964)
(2.59621e-10 9.88555 620.012)
(2.06241e-10 9.38769 618.691)
(1.75721e-10 8.84112 616.912)
(1.53176e-10 8.26681 613.96)
(1.45406e-10 12.4204 609.783)
(1.23948e-10 15.8495 607.073)
(9.54199e-11 18.68 603.584)
(1.03785e-10 21.2696 596.682)
(1.39398e-10 24.187 581.255)
(9.02351e-11 29.8404 549.648)
(1.43141e-10 39.5589 495.477)
(9.5245e-11 48.9283 415.553)
(1.53091e-10 46.4184 312.171)
(1.30425e-10 46.5894 211.787)
(8.30927e-11 45.8905 167.916)
(-2.97849e-11 45.291 147.68)
(-1.91513e-11 46.6977 137.905)
(4.95427e-11 47.7958 134.083)
(4.84174e-11 48.7568 133.282)
(5.16206e-11 49.506 133.672)
(5.10412e-11 50.5438 135.554)
(4.20499e-11 51.4357 137.898)
(1.05833e-10 51.8442 139.936)
(1.04172e-10 52.3689 141.553)
(5.51452e-11 52.7958 142.832)
(-4.09704e-11 52.5357 143.724)
(-1.04097e-10 51.7299 144.041)
(-8.14888e-11 50.7751 142.566)
(-1.01198e-11 48.656 137.741)
(2.95594e-11 49.7751 130.498)
(9.2386e-11 49.1106 115.644)
(4.36215e-11 48.7144 99.2045)
(-2.1664e-12 29.7949 77.3194)
(7.8881e-09 6.10758 630.596)
(6.07529e-09 9.61867 630.674)
(4.24225e-09 13.6114 630.849)
(2.98977e-09 17.7754 631.108)
(2.14555e-09 21.3625 631.368)
(1.53638e-09 24.597 630.999)
(1.1727e-09 28.0689 630.694)
(9.59027e-10 31.2187 630.369)
(1.05531e-09 33.6535 629.932)
(9.20397e-10 35.6713 629.323)
(8.05774e-10 36.4954 628.686)
(6.84074e-10 34.5569 627.868)
(4.32693e-10 29.02 626.397)
(3.67558e-10 21.5293 623.999)
(3.06592e-10 14.0257 621.334)
(2.62747e-10 10.8598 620.094)
(2.0956e-10 10.6558 618.34)
(1.80149e-10 10.7839 616.79)
(1.45869e-10 10.2516 613.483)
(1.63711e-10 13.2303 609.324)
(1.47668e-10 15.8167 607.546)
(1.03145e-10 18.7307 604.594)
(9.82832e-11 20.7742 598.264)
(1.42658e-10 23.4877 584.903)
(1.78964e-10 28.7289 557.697)
(2.37958e-10 37.9592 507.859)
(6.99885e-11 46.0566 428.565)
(1.55631e-11 46.1736 324.067)
(2.50297e-11 45.0754 218.759)
(4.97712e-11 46.079 171.641)
(1.21907e-10 44.3266 150.241)
(2.37901e-10 45.8971 139.404)
(1.75179e-10 47.0946 134.85)
(5.14153e-11 48.0432 133.781)
(5.85744e-11 48.7413 133.956)
(6.81625e-11 49.6195 135.265)
(4.87736e-11 50.5837 137.614)
(7.87284e-12 51.2615 139.644)
(-2.49381e-11 51.8151 141.26)
(8.37188e-11 52.1829 142.767)
(1.39134e-10 51.8122 143.96)
(9.85694e-11 50.6486 144.335)
(1.63425e-10 49.8388 143.215)
(1.63957e-10 47.204 138.654)
(7.25531e-11 46.7174 129.59)
(2.62853e-11 43.669 114.29)
(1.02918e-10 43.8974 97.4013)
(2.12488e-11 28.0424 73.9277)
(7.91041e-09 6.15943 630.549)
(6.0624e-09 9.51439 630.591)
(4.21957e-09 13.4059 630.752)
(2.90836e-09 17.5002 631.034)
(2.07096e-09 21.302 631.409)
(1.56846e-09 24.719 631.163)
(1.22488e-09 28.17 630.808)
(9.67002e-10 31.3553 630.519)
(5.66425e-10 33.9307 630.149)
(4.43657e-10 36.0155 629.559)
(3.71756e-10 36.985 629.022)
(3.32368e-10 35.397 628.347)
(4.33659e-10 30.4617 626.749)
(4.80563e-10 23.4688 623.551)
(3.75677e-10 15.6361 620.674)
(3.1522e-10 12.1754 619.734)
(2.56467e-10 11.9636 617.611)
(1.82594e-10 12.4432 615.634)
(1.49099e-10 12.2099 612.569)
(1.1252e-10 13.7151 609.564)
(7.62302e-11 15.8961 608.49)
(9.67914e-11 19.2545 605.935)
(9.5538e-11 21.8487 600.385)
(1.35768e-10 24.1442 587.529)
(1.259e-11 28.213 560.983)
(5.12318e-11 36.8336 514.563)
(1.07256e-10 47.3099 442.519)
(1.4154e-10 47.5382 340.313)
(1.2752e-10 44.2953 226.101)
(9.18558e-11 46.4778 175.336)
(1.92791e-11 43.4574 152.476)
(-5.92974e-11 45.1121 140.666)
(4.929e-11 46.3547 135.492)
(1.34511e-10 47.3129 134.053)
(4.84672e-11 48.1186 134.137)
(1.37877e-10 48.7907 135.269)
(1.3734e-10 49.6519 137.494)
(6.56827e-11 50.3838 139.506)
(6.43831e-11 50.9075 141.123)
(-4.07602e-11 51.1499 142.658)
(-7.48633e-11 50.9422 144.142)
(-6.27704e-11 49.8299 144.705)
(-8.87189e-11 48.9625 143.832)
(-1.01893e-10 46.0476 140.032)
(1.02675e-11 44.8627 130.501)
(2.60232e-11 38.9009 114.393)
(-4.37014e-11 39.8864 94.8399)
(-9.22992e-12 26.5608 70.4534)
(7.9054e-09 6.21906 630.508)
(6.04795e-09 9.42538 630.531)
(4.20328e-09 13.1985 630.699)
(2.92672e-09 17.186 630.976)
(2.11758e-09 21.161 631.393)
(1.56605e-09 24.796 631.326)
(1.19191e-09 28.3024 630.964)
(9.41393e-10 31.5125 630.608)
(9.68509e-10 34.2143 630.199)
(8.41501e-10 36.4652 629.561)
(7.35581e-10 37.634 628.868)
(6.2129e-10 36.7922 627.927)
(4.33145e-10 33.0853 625.894)
(2.68877e-10 25.9126 622.79)
(2.45515e-10 17.2048 620.018)
(2.20149e-10 13.291 618.896)
(1.70122e-10 13.0049 616.797)
(1.83535e-10 13.5708 614.309)
(1.50956e-10 13.6372 611.944)
(1.53728e-10 14.048 610.178)
(1.21733e-10 16.063 609.316)
(9.51595e-11 19.6593 606.74)
(8.65843e-11 22.2991 602.04)
(1.50964e-10 24.6145 590.631)
(2.38986e-10 28.1831 566.998)
(2.94358e-10 35.6031 521.458)
(7.61842e-11 45.1411 450.52)
(4.43933e-11 48.456 351.155)
(6.15879e-11 44.1587 235.032)
(4.78428e-11 46.596 178.746)
(8.51767e-11 42.8117 154.872)
(2.42992e-10 44.3858 141.905)
(1.59315e-10 45.5995 136.093)
(-1.26764e-11 46.5349 134.249)
(4.27925e-11 47.4703 134.289)
(-2.34151e-11 48.0648 135.264)
(-3.1786e-11 48.8219 137.324)
(1.58445e-11 49.6046 139.241)
(2.49613e-12 50.1777 140.887)
(7.10371e-11 50.3336 142.475)
(1.84982e-10 50.063 143.953)
(1.64362e-10 49.0522 144.601)
(7.41502e-11 48.2591 143.856)
(7.99988e-11 44.997 140.545)
(2.10606e-12 44.2637 130.523)
(-9.645e-12 37.3119 114.482)
(7.64022e-11 36.2979 92.0576)
(2.83683e-11 24.6985 66.4843)
(7.87753e-09 6.28161 630.503)
(6.03329e-09 9.33308 630.521)
(4.21033e-09 13.0099 630.681)
(2.91974e-09 16.886 630.944)
(2.04368e-09 20.9397 631.336)
(1.53553e-09 24.7874 631.374)
(1.19508e-09 28.4186 631.102)
(9.41365e-10 31.6536 630.718)
(6.45091e-10 34.4404 630.347)
(5.4048e-10 36.772 629.793)
(4.66042e-10 38.1308 629.153)
(4.15245e-10 37.872 628.194)
(4.39678e-10 34.5565 626.391)
(4.50119e-10 27.6076 623.698)
(3.6411e-10 18.8251 620.586)
(3.08344e-10 14.392 618.518)
(2.41239e-10 13.7912 616.336)
(1.80433e-10 14.5282 613.633)
(2.05047e-10 14.6298 611.634)
(1.67018e-10 14.4113 610.93)
(9.89918e-11 16.2561 609.985)
(9.05551e-11 20.1286 607.534)
(7.66526e-11 23.5369 603.488)
(1.19351e-10 25.7637 592.149)
(-3.36718e-11 28.232 570.282)
(2.7492e-12 34.4929 528.023)
(1.12022e-10 44.3385 460.154)
(1.26395e-10 49.5107 363.954)
(1.27074e-10 45.3105 249.714)
(8.24105e-11 46.5816 183.417)
(4.40789e-11 42.4552 157.351)
(-7.92512e-11 43.7081 143.343)
(5.71701e-11 44.8286 136.826)
(1.86749e-10 45.7382 134.588)
(5.05224e-11 46.724 134.473)
(9.65503e-11 47.3315 135.245)
(1.091e-10 47.9906 137.109)
(4.98581e-11 48.7174 138.937)
(2.92951e-11 49.2738 140.585)
(-2.3609e-11 49.4588 142.146)
(-1.17396e-10 49.193 143.576)
(-9.75479e-11 48.258 144.287)
(-1.77015e-11 47.7288 143.679)
(-4.08861e-11 44.3108 140.596)
(-9.06056e-13 43.5548 130.055)
(5.18029e-12 36.3335 114.053)
(-4.86186e-11 33.1334 89.9046)
(-1.54473e-11 22.6517 61.7834)
(7.85241e-09 6.32987 630.504)
(6.04281e-09 9.25549 630.531)
(4.17361e-09 12.8391 630.669)
(2.86821e-09 16.6283 630.913)
(2.07508e-09 20.7076 631.266)
(1.52232e-09 24.746 631.364)
(1.18454e-09 28.4962 631.203)
(9.70493e-10 31.7906 630.805)
(9.02837e-10 34.6478 630.382)
(7.756e-10 37.1089 629.804)
(6.66811e-10 38.7787 629.07)
(5.7051e-10 39.0045 628.011)
(4.31746e-10 36.4985 626.316)
(3.01991e-10 30.2117 623.937)
(3.63914e-10 20.9273 620.821)
(2.98296e-10 15.6363 618.022)
(2.45918e-10 14.6467 616.186)
(2.37594e-10 15.6933 613.318)
(1.09391e-10 15.522 611.667)
(1.07126e-10 14.8419 611.697)
(1.1819e-10 16.4864 610.253)
(9.0965e-11 20.3882 607.853)
(1.48726e-10 24.3285 603.912)
(2.87021e-10 26.827 594.496)
(2.84701e-10 28.7789 575.544)
(2.4577e-10 33.8064 535.899)
(8.03689e-11 42.4204 469.981)
(1.9569e-10 49.4098 374.575)
(1.86762e-10 46.5069 265.39)
(5.13659e-11 46.2341 188.785)
(5.84998e-11 42.3438 159.742)
(1.73329e-10 43.0613 144.878)
(5.08619e-11 44.0235 137.657)
(-5.67492e-11 44.8791 134.975)
(2.8315e-11 45.9496 134.581)
(-2.81527e-12 46.6398 135.223)
(-2.3074e-11 47.2347 136.866)
(7.29704e-12 47.9193 138.563)
(4.52699e-12 48.5112 140.188)
(4.22197e-11 48.7215 141.759)
(1.34147e-10 48.4614 143.087)
(1.2523e-10 47.4688 143.767)
(5.59997e-11 47.1113 143.147)
(1.23127e-10 43.6682 140.104)
(5.23035e-11 42.8471 129.328)
(-5.52063e-12 35.6344 113.479)
(2.13237e-11 30.7185 88.2656)
(-5.26998e-12 20.9554 56.5158)
(7.82366e-09 6.36765 630.541)
(5.98341e-09 9.1839 630.574)
(4.1533e-09 12.6751 630.666)
(2.89044e-09 16.3656 630.879)
(2.03594e-09 20.4667 631.201)
(1.51687e-09 24.6396 631.319)
(1.16899e-09 28.5035 631.229)
(9.16465e-10 31.9209 630.885)
(6.89446e-10 34.8532 630.502)
(5.80881e-10 37.3887 630.015)
(4.99123e-10 39.2466 629.349)
(4.37734e-10 39.7552 628.468)
(4.42546e-10 37.558 627.159)
(4.31418e-10 31.9925 624.963)
(2.64732e-10 23.2891 621.413)
(2.33624e-10 17.0167 618.119)
(1.74028e-10 15.831 615.953)
(1.32184e-10 16.9766 613.58)
(2.01444e-10 16.1695 612.659)
(1.61047e-10 15.5586 612.675)
(1.03063e-10 17.083 610.536)
(8.99777e-11 21.0016 608.221)
(-2.30306e-12 25.3384 604.077)
(-3.60299e-11 27.5893 595.769)
(-8.16584e-11 28.8657 578.615)
(4.73538e-11 32.9843 542.69)
(1.08452e-10 40.8084 480.901)
(1.39043e-10 48.961 387.827)
(2.49648e-10 46.9236 280.399)
(1.80536e-10 45.5974 195.211)
(4.65505e-11 42.4517 162.402)
(5.75867e-11 42.4593 146.641)
(1.4669e-10 43.2228 138.662)
(1.43057e-10 43.9818 135.513)
(5.60028e-11 45.0743 134.792)
(8.02593e-11 45.9035 135.331)
(9.14645e-11 46.4715 136.68)
(4.39112e-11 47.0953 138.189)
(1.03308e-10 47.7221 139.712)
(8.78656e-11 47.9828 141.284)
(-7.84207e-11 47.7413 142.491)
(1.98865e-11 46.7592 143.142)
(1.31658e-10 46.6016 142.239)
(-1.89666e-11 43.4053 139.148)
(-2.66884e-11 42.2196 128.622)
(-1.55141e-12 35.2046 112.724)
(-2.90256e-12 29.1241 86.5408)
(-8.54868e-12 19.7425 51.6948)
(7.78022e-09 6.38819 630.647)
(6.00568e-09 9.13223 630.672)
(4.14248e-09 12.5354 630.695)
(2.84508e-09 16.1044 630.861)
(2.04863e-09 20.2113 631.127)
(1.50971e-09 24.4922 631.254)
(1.1741e-09 28.4972 631.203)
(1.20806e-09 32.0533 630.922)
(1.14601e-09 35.0382 630.521)
(7.58457e-10 37.7153 630.022)
(6.50444e-10 39.7924 629.329)
(5.52776e-10 40.5917 628.555)
(4.3163e-10 39.1707 627.625)
(3.24401e-10 34.8522 625.649)
(3.7832e-10 26.6688 622.048)
(3.07136e-10 19.0389 618.358)
(2.65356e-10 17.2994 615.902)
(3.12211e-10 17.9271 614.732)
(1.82245e-10 17.1097 614.49)
(1.2232e-10 16.6305 613.49)
(1.26416e-10 18.019 610.677)
(1.1277e-10 21.5036 608.274)
(1.72632e-10 25.9194 604.538)
(2.72424e-10 28.1653 598.107)
(2.37032e-10 29.3379 583.507)
(2.12844e-10 32.4393 550.293)
(8.26725e-11 39.207 489.833)
(6.61185e-11 47.2577 398.871)
(-4.92195e-11 46.2736 292.512)
(-5.30371e-11 44.7318 202.185)
(3.87076e-11 42.7567 165.331)
(3.46373e-11 41.9287 148.524)
(-3.27573e-11 42.5136 139.746)
(-3.52498e-11 43.1613 136.098)
(1.37116e-11 44.2079 135.008)
(1.16759e-11 45.0991 135.329)
(-1.64682e-12 45.7381 136.431)
(1.89929e-11 46.3701 137.749)
(-6.70057e-11 46.9847 139.139)
(4.24065e-11 47.2837 140.686)
(1.75844e-10 47.1074 141.8)
(9.16709e-11 46.1461 142.346)
(-7.74399e-12 46.1899 141.288)
(1.30282e-11 43.4112 138.131)
(1.03522e-11 41.6973 128.002)
(-1.59536e-12 35.1276 111.815)
(4.3064e-11 27.9923 85.1845)
(2.6409e-11 18.5998 48.2299)
(7.72919e-09 6.39712 630.818)
(5.943e-09 9.12074 630.816)
(4.1358e-09 12.4457 630.766)
(2.87184e-09 15.8914 630.871)
(2.01685e-09 19.9908 631.05)
(1.49923e-09 24.3529 631.165)
(1.15445e-09 28.4782 631.136)
(7.55727e-10 32.1341 630.959)
(4.61372e-10 35.2475 630.61)
(5.80356e-10 38.0189 630.168)
(5.08515e-10 40.1963 629.554)
(4.64197e-10 41.1853 628.886)
(4.46708e-10 40.101 628.116)
(4.18074e-10 36.6735 626.558)
(2.70129e-10 29.6563 623.212)
(2.30302e-10 21.3134 619.746)
(2.47114e-10 18.9405 616.735)
(1.52004e-10 18.615 616.183)
(1.31028e-10 18.1646 616.1)
(1.43221e-10 18.4275 614.135)
(1.06639e-10 19.5313 610.987)
(9.06271e-11 22.3782 608.515)
(-3.98892e-13 26.2484 604.97)
(5.10292e-12 28.2656 599.323)
(-4.75632e-11 29.5884 585.797)
(7.69015e-11 32.4622 556.443)
(2.31717e-10 38.3178 501.762)
(2.62564e-10 46.0422 410.18)
(2.31152e-10 44.9366 301.618)
(1.39495e-10 43.8834 208.834)
(4.91324e-11 43.1636 168.247)
(6.12324e-11 41.4694 150.453)
(1.16239e-10 41.9079 140.882)
(1.14951e-10 42.4489 136.724)
(6.03578e-11 43.4491 135.263)
(5.82922e-11 44.3419 135.297)
(5.69823e-11 44.9811 136.144)
(1.16747e-10 45.6591 137.337)
(1.67065e-10 46.2488 138.625)
(-5.5601e-13 46.4862 140.038)
(-1.14572e-10 46.5104 141.163)
(-4.09252e-11 45.6243 141.507)
(4.85495e-11 45.8002 140.284)
(1.32535e-11 43.3663 137.039)
(-7.52277e-12 41.3516 127.27)
(-4.08394e-12 35.2322 111.01)
(-3.49873e-11 27.3604 84.4987)
(-2.12281e-11 17.392 45.8292)
(7.70156e-09 6.38486 631.02)
(5.95482e-09 9.15477 630.99)
(4.08412e-09 12.4071 630.876)
(2.80236e-09 15.7631 630.913)
(2.01609e-09 19.804 630.998)
(1.49105e-09 24.2063 631.082)
(1.16234e-09 28.4239 631.057)
(1.0524e-09 32.1681 630.967)
(1.0454e-09 35.4312 630.604)
(7.41126e-10 38.3344 630.133)
(6.34254e-10 40.6476 629.537)
(5.30349e-10 41.7166 628.958)
(4.37145e-10 41.2242 628.277)
(3.46872e-10 39.0103 626.912)
(3.77507e-10 32.8904 624.554)
(3.00407e-10 23.9583 621.662)
(2.00817e-10 20.6782 618.36)
(2.23288e-10 19.4336 618.035)
(1.81152e-10 19.4757 616.978)
(1.27221e-10 20.3885 614.365)
(1.20693e-10 21.1735 611.392)
(1.15532e-10 23.0745 608.917)
(1.49797e-10 26.4326 606.314)
(2.33064e-10 28.469 601.689)
(2.94825e-10 29.9718 589.663)
(2.57128e-10 32.2344 562.568)
(1.01996e-10 38.0852 511.319)
(7.11449e-11 45.2317 424.994)
(4.94099e-12 44.7542 314.906)
(-2.97812e-11 43.8526 216.503)
(3.27039e-11 43.7316 171.883)
(3.05055e-11 41.0722 152.765)
(-1.1072e-11 41.4988 142.133)
(-7.73858e-12 41.9023 137.373)
(1.75433e-11 42.789 135.539)
(3.17993e-11 43.6192 135.303)
(1.03415e-10 44.2537 135.886)
(3.41069e-11 44.9771 136.911)
(-1.17649e-10 45.5525 138.081)
(2.98583e-11 45.7133 139.345)
(1.32665e-10 45.8529 140.412)
(7.93234e-11 45.1452 140.608)
(8.99067e-11 45.4248 139.199)
(9.61912e-11 43.228 135.823)
(1.90254e-11 41.0913 126.326)
(4.42182e-12 35.33 110.251)
(5.99186e-11 27.1268 84.0038)
(3.14546e-11 16.3247 44.0464)
(7.69761e-09 6.37079 631.222)
(5.91016e-09 9.21215 631.196)
(4.09447e-09 12.4245 631.052)
(2.8315e-09 15.7146 631.001)
(1.99897e-09 19.6623 630.987)
(1.48484e-09 24.0503 631.039)
(1.14334e-09 28.3008 631.009)
(8.73671e-10 32.1717 630.96)
(5.54648e-10 35.6002 630.655)
(5.95574e-10 38.5735 630.249)
(5.26126e-10 40.9283 629.713)
(4.82089e-10 42.1513 629.182)
(4.52615e-10 41.9291 628.577)
(4.07566e-10 40.0765 627.368)
(2.9158e-10 34.688 625.506)
(2.45005e-10 26.5027 622.719)
(2.48551e-10 22.0864 619.664)
(1.66366e-10 20.4264 619.176)
(1.39079e-10 21.0843 617.063)
(1.44561e-10 22.5031 613.952)
(1.04873e-10 22.7796 611.787)
(8.49097e-11 23.9045 609.422)
(9.06783e-11 26.435 607.294)
(8.53462e-11 28.7102 603.213)
(-1.03514e-10 30.5464 592.395)
(9.21647e-12 32.5228 569.384)
(1.32217e-10 37.8018 522.273)
(1.22901e-10 45.0755 440.836)
(2.22276e-10 45.9439 333.042)
(1.14036e-10 44.5837 227.345)
(5.63127e-11 44.4932 176.918)
(6.6935e-11 40.9411 155.494)
(9.69559e-11 41.2879 143.619)
(1.72983e-10 41.4263 138.225)
(1.43962e-10 42.1965 135.955)
(4.96137e-11 42.9224 135.432)
(-3.69793e-11 43.5672 135.737)
(9.01879e-11 44.2781 136.48)
(2.26278e-10 44.8171 137.509)
(1.32984e-11 44.9458 138.657)
(-8.10763e-11 45.1897 139.569)
(-3.28525e-11 44.6368 139.621)
(5.04538e-11 45.011 138.092)
(3.7438e-11 43.0742 134.552)
(1.4639e-11 40.9348 125.231)
(3.45866e-13 35.5174 109.48)
(-4.19918e-11 27.2764 83.5351)
(-2.30956e-11 15.5628 42.7479)
(7.72308e-09 6.35812 631.417)
(5.91791e-09 9.25497 631.424)
(4.06122e-09 12.4866 631.27)
(2.7904e-09 15.7187 631.154)
(1.99625e-09 19.5503 631.027)
(1.50637e-09 23.8951 631.043)
(1.18249e-09 28.1643 630.991)
(9.63071e-10 32.1616 630.947)
(9.6605e-10 35.7103 630.665)
(7.21495e-10 38.7986 630.253)
(6.201e-10 41.2566 629.739)
(7.73809e-10 42.6197 629.293)
(6.69014e-10 42.8494 628.599)
(3.67118e-10 41.7452 627.264)
(3.76767e-10 37.0285 625.513)
(2.99732e-10 29.2675 622.729)
(2.02604e-10 23.415 620.415)
(2.18574e-10 21.7518 619.344)
(1.66168e-10 23.0223 616.291)
(1.32251e-10 23.9896 613.299)
(1.25554e-10 23.89 612.185)
(2.08829e-10 24.6558 610.191)
(2.43608e-10 26.5723 608.657)
(2.31262e-10 28.8501 605.151)
(2.68862e-10 30.9577 596.162)
(2.09763e-10 32.793 574.979)
(9.62747e-11 37.8467 532.413)
(7.59882e-11 44.3415 457.483)
(3.2249e-11 46.65 351.736)
(-6.46105e-12 45.3614 243.212)
(4.08248e-11 45.2039 183.264)
(2.30162e-11 41.0911 158.568)
(-7.41399e-12 41.2061 145.469)
(-7.71418e-11 41.0818 139.224)
(-6.09535e-11 41.7524 136.494)
(2.53475e-11 42.3481 135.591)
(8.82956e-11 42.9868 135.588)
(-3.368e-11 43.6536 136.082)
(-1.59594e-10 44.1397 136.909)
(2.29865e-11 44.2664 137.893)
(1.00694e-10 44.5763 138.648)
(5.92124e-11 44.106 138.658)
(6.79957e-11 44.5787 137.13)
(1.34979e-10 42.9269 133.457)
(8.52999e-11 40.9698 124.13)
(8.24897e-12 35.7496 108.717)
(3.29515e-11 27.6393 83.3144)
(3.55088e-11 15.0868 41.9959)
(7.64598e-09 6.35791 631.611)
(5.90337e-09 9.30485 631.631)
(4.09395e-09 12.5788 631.488)
(2.80286e-09 15.7761 631.374)
(1.97944e-09 19.5102 631.156)
(1.44297e-09 23.7777 631.104)
(1.1097e-09 28.0427 631.012)
(8.8289e-10 32.1195 630.953)
(6.01239e-10 35.8175 630.77)
(6.05394e-10 39.009 630.381)
(5.22948e-10 41.4627 629.968)
(2.47553e-10 43.0456 629.565)
(2.32668e-10 43.6962 628.745)
(4.02268e-10 43.0631 627.421)
(3.02129e-10 38.9785 625.735)
(2.65504e-10 31.5662 622.357)
(2.61653e-10 24.9887 620.596)
(1.74526e-10 23.2226 618.509)
(1.4807e-10 24.8 615.225)
(1.48453e-10 24.6188 613.139)
(1.92626e-10 24.3695 612.547)
(7.94424e-11 25.2748 611.143)
(1.60826e-11 26.7818 609.507)
(7.07993e-11 29.2854 606.166)
(-7.01697e-11 31.9451 598.85)
(4.89488e-11 34.0419 581.074)
(1.38869e-10 38.157 542.495)
(2.53688e-10 43.5881 471.771)
(3.38214e-10 46.1845 367.955)
(1.16505e-10 45.1185 261.806)
(6.4648e-11 45.6074 190.321)
(7.96417e-11 41.3547 161.645)
(9.30462e-11 41.239 147.485)
(1.40289e-10 40.9327 140.207)
(1.13491e-10 41.4407 137.021)
(5.55411e-11 42.0289 135.71)
(-1.29322e-11 42.5927 135.416)
(8.06581e-11 43.1502 135.727)
(1.88564e-10 43.6062 136.332)
(3.34115e-11 43.7004 137.114)
(-3.65177e-11 43.9884 137.682)
(-7.97373e-12 43.4929 137.759)
(-1.9217e-11 44.0367 136.268)
(-8.37083e-11 42.711 132.57)
(-5.61309e-11 40.9446 123.238)
(-2.93182e-12 35.7359 108.016)
(2.65998e-11 27.9651 83.1372)
(1.68678e-11 14.8745 41.5319)
(7.73245e-09 6.41006 631.872)
(5.84797e-09 9.33854 631.838)
(4.00268e-09 12.6375 631.706)
(2.76536e-09 15.8431 631.663)
(1.9717e-09 19.5172 631.43)
(1.48266e-09 23.7017 631.271)
(1.18478e-09 27.962 631.099)
(9.68352e-10 32.0737 631.008)
(9.06541e-10 35.8904 630.88)
(7.07006e-10 39.1895 630.476)
(6.20623e-10 41.7023 630.131)
(7.17462e-10 43.5728 629.634)
(6.20458e-10 44.7397 628.722)
(3.75655e-10 44.5803 627.372)
(3.73805e-10 41.7605 625.97)
(2.99461e-10 34.1458 622.795)
(2.04282e-10 26.7035 620.476)
(2.10988e-10 24.7186 617.582)
(1.65613e-10 26.1257 614.826)
(1.26201e-10 25.1302 613.696)
(6.65891e-11 24.646 613.536)
(1.28603e-10 25.7264 612.395)
(1.68733e-10 27.4524 610.645)
(1.44893e-10 29.9336 607.373)
(2.27302e-10 32.4295 600.698)
(1.68119e-10 34.831 585.569)
(8.19863e-11 38.9099 551.784)
(-2.62782e-11 44.0133 486.949)
(-4.61601e-11 46.1894 385.958)
(3.58823e-11 43.4081 279.836)
(5.16165e-11 45.5637 198.248)
(3.06465e-11 41.8721 164.74)
(9.97361e-12 41.346 149.41)
(-4.4669e-11 41.0606 141.017)
(-2.46934e-11 41.3003 137.206)
(1.50709e-11 41.8273 135.603)
(6.36663e-11 42.279 135.152)
(-1.56334e-11 42.706 135.366)
(-9.96676e-11 43.1704 135.82)
(1.86248e-11 43.2546 136.466)
(1.4566e-10 43.5488 136.868)
(1.21484e-10 42.9294 136.915)
(6.23681e-11 43.352 135.383)
(1.0901e-10 42.2367 131.698)
(6.22197e-11 40.5627 122.552)
(5.73052e-12 35.498 107.378)
(-2.21004e-11 28.0865 82.6643)
(-7.88887e-12 14.7513 41.1481)
(7.71903e-09 6.55303 632.221)
(5.84815e-09 9.40197 632.065)
(4.03833e-09 12.6496 631.962)
(2.75589e-09 15.8422 632.089)
(1.95099e-09 19.5375 631.888)
(1.45731e-09 23.6822 631.589)
(1.11453e-09 27.8818 631.312)
(8.77027e-10 31.9606 631.162)
(6.4676e-10 35.9067 631.143)
(6.18793e-10 39.3017 630.733)
(5.26035e-10 41.9036 630.469)
(3.22697e-10 44.0625 629.848)
(2.95049e-10 45.5908 628.868)
(3.96248e-10 45.5854 627.475)
(3.18775e-10 43.3715 626.285)
(2.91751e-10 36.7435 624.288)