/*--------------------------------*- C++ -*----------------------------------*\
| =========                 |                                                 |
| \\      /  F ield         | OpenFOAM: The Open Source CFD Toolbox           |
|  \\    /   O peration     | Version:  2212                                  |
|   \\  /    A nd           | Website:  www.openfoam.com                      |
|    \\/     M anipulation  |                                                 |
\*---------------------------------------------------------------------------*/
FoamFile
{
    version     2.0;
    format      ascii;
    arch        "LSB;label=32;scalar=64";
    class       volScalarField;
    location    "0.0078";
    object      s;
}
// * * * * * * * * * * * * * * * * * * * * * * * * * * * * * * * * * * * * * //

dimensions      [0 0 0 0 0 0 0];

internalField   nonuniform List<scalar> 
24240
(
1.06528e-218
1.10451e-218
1.08307e-218
1.09548e-218
1.0778e-218
1.1078e-218
1.10879e-218
1.12508e-218
1.07282e-218
1.09596e-218
1.0918e-218
1.118e-218
1.10815e-218
1.11642e-218
1.06563e-218
1.07694e-218
1.09366e-218
1.11523e-218
1.13777e-218
1.10016e-218
3.63679e-214
3.77079e-214
3.69756e-214
3.73987e-214
3.67953e-214
3.78195e-214
3.78531e-214
3.84094e-214
3.66248e-214
3.74157e-214
3.72729e-214
3.81672e-214
3.78304e-214
3.81132e-214
3.63793e-214
3.67658e-214
3.73365e-214
3.80729e-214
3.88419e-214
3.75584e-214
7.77356e-210
8.0601e-210
7.90355e-210
7.99374e-210
7.86486e-210
8.08371e-210
8.09089e-210
8.20976e-210
7.82816e-210
7.99752e-210
7.96678e-210
8.15784e-210
8.08569e-210
8.14625e-210
7.7756e-210
7.85835e-210
7.9803e-210
8.13774e-210
8.30198e-210
8.02778e-210
1.01049e-205
1.04777e-205
1.02741e-205
1.03909e-205
1.02236e-205
1.05079e-205
1.05173e-205
1.06717e-205
1.01754e-205
1.03961e-205
1.03557e-205
1.06039e-205
1.05098e-205
1.05887e-205
1.01068e-205
1.02146e-205
1.0373e-205
1.05777e-205
1.07909e-205
1.04346e-205
9.8863e-202
1.02513e-201
1.00521e-201
1.01658e-201
1.00024e-201
1.02804e-201
1.02895e-201
1.04405e-201
9.95454e-202
1.01712e-201
1.01311e-201
1.03736e-201
1.02811e-201
1.03585e-201
9.88699e-202
9.99267e-202
1.01475e-201
1.03476e-201
1.05557e-201
1.02072e-201
6.94764e-198
7.2045e-198
7.06451e-198
7.14384e-198
7.02927e-198
7.22451e-198
7.23095e-198
7.33698e-198
6.99515e-198
7.14807e-198
7.11934e-198
7.28962e-198
7.22422e-198
7.27883e-198
6.94735e-198
7.02183e-198
7.1304e-198
7.27096e-198
7.41664e-198
7.17178e-198
3.5895e-194
3.72243e-194
3.6501e-194
3.69072e-194
3.63174e-194
3.7325e-194
3.73585e-194
3.79058e-194
3.61379e-194
3.69325e-194
3.67806e-194
3.76592e-194
3.73187e-194
3.76023e-194
3.58893e-194
3.62755e-194
3.6835e-194
3.75604e-194
3.83097e-194
3.70457e-194
1.21598e-190
1.2611e-190
1.23659e-190
1.25019e-190
1.23031e-190
1.26438e-190
1.26553e-190
1.28404e-190
1.22409e-190
1.25119e-190
1.2459e-190
1.27563e-190
1.26399e-190
1.27365e-190
1.21562e-190
1.22877e-190
1.24768e-190
1.27223e-190
1.29749e-190
1.25476e-190
1.90084e-187
1.97152e-187
1.93321e-187
1.95415e-187
1.92325e-187
1.97636e-187
1.97816e-187
2.00704e-187
1.91326e-187
1.95594e-187
1.94742e-187
1.99385e-187
1.97544e-187
1.99064e-187
1.89999e-187
1.92067e-187
1.95015e-187
1.98846e-187
2.02774e-187
1.96105e-187
3.27145e-187
3.33527e-187
3.29341e-187
3.23745e-187
3.27566e-187
3.21597e-187
3.19741e-187
3.17194e-187
3.22199e-187
3.23682e-187
3.22862e-187
3.35351e-187
3.28364e-187
3.20916e-187
3.21533e-187
3.22648e-187
3.28771e-187
3.27758e-187
3.33192e-187
3.26679e-187
4.36463e-187
4.38667e-187
4.38861e-187
4.4851e-187
4.555e-187
4.48346e-187
4.46735e-187
4.47714e-187
4.4503e-187
4.57761e-187
4.41368e-187
4.55859e-187
4.51105e-187
4.4362e-187
4.57988e-187
4.58454e-187
4.59579e-187
4.53679e-187
4.34618e-187
4.47142e-187
5.54996e-187
5.49653e-187
5.53043e-187
5.53005e-187
5.5931e-187
5.42729e-187
5.52405e-187
5.49001e-187
5.45391e-187
5.60624e-187
5.61712e-187
5.56291e-187
5.45673e-187
5.46587e-187
5.55218e-187
5.67198e-187
5.60247e-187
5.62421e-187
5.62637e-187
5.46115e-187
6.18614e-187
6.47052e-187
6.26156e-187
6.46476e-187
6.52414e-187
6.41912e-187
6.51559e-187
6.54944e-187
6.41243e-187
6.38574e-187
6.5602e-187
6.39725e-187
6.24749e-187
6.29534e-187
6.20574e-187
6.33728e-187
6.24869e-187
6.43259e-187
6.27692e-187
6.335e-187
6.96246e-187
7.0072e-187
7.33325e-187
7.293e-187
7.29413e-187
7.24613e-187
7.31071e-187
7.24949e-187
7.19633e-187
7.18292e-187
7.20283e-187
7.09629e-187
7.08185e-187
7.02516e-187
7.25688e-187
7.18281e-187
7.2935e-187
7.02434e-187
7.10233e-187
7.07049e-187
7.4091e-187
7.64385e-187
7.65448e-187
7.64145e-187
7.74893e-187
7.46522e-187
7.70051e-187
7.65875e-187
7.60803e-187
7.70738e-187
7.48313e-187
7.68242e-187
7.71991e-187
7.50814e-187
7.56438e-187
7.71056e-187
7.50071e-187
7.46711e-187
7.59418e-187
7.7867e-187
8.25753e-187
8.26605e-187
8.30225e-187
8.12664e-187
8.13236e-187
8.23435e-187
8.40461e-187
8.25001e-187
8.03833e-187
8.24055e-187
8.33212e-187
8.32533e-187
8.288e-187
8.08606e-187
8.5094e-187
8.20846e-187
8.42038e-187
8.13485e-187
8.0974e-187
8.1144e-187
7.59499e-187
7.91105e-187
7.63897e-187
7.76535e-187
7.6477e-187
7.89315e-187
7.84945e-187
7.6969e-187
7.77375e-187
7.91394e-187
7.81951e-187
7.99294e-187
8.01862e-187
7.78599e-187
7.72153e-187
7.76372e-187
7.83662e-187
7.7552e-187
8.06885e-187
7.64273e-187
8.23062e-187
8.26458e-187
8.21032e-187
8.27942e-187
8.27249e-187
8.30196e-187
8.24018e-187
8.18363e-187
8.26256e-187
7.99184e-187
8.16129e-187
8.21827e-187
8.50352e-187
8.37359e-187
8.42606e-187
8.5256e-187
8.52113e-187
8.3058e-187
8.59875e-187
8.37313e-187
6.73781e-187
6.7326e-187
6.68422e-187
6.86115e-187
6.84712e-187
6.77481e-187
6.81525e-187
6.59056e-187
6.77728e-187
6.89335e-187
6.69163e-187
6.86136e-187
6.71821e-187
6.62734e-187
6.84311e-187
6.77261e-187
6.88004e-187
7.09456e-187
6.9525e-187
6.99658e-187
6.02478e-187
6.06822e-187
6.09959e-187
6.01483e-187
6.21505e-187
5.94308e-187
6.18568e-187
5.99549e-187
6.19293e-187
6.15363e-187
5.87639e-187
6.09031e-187
5.98044e-187
6.0549e-187
5.98183e-187
5.94235e-187
6.28942e-187
6.27599e-187
5.98686e-187
6.36063e-187
2.12386e-215
2.20212e-215
2.15937e-215
2.18409e-215
2.14886e-215
2.20868e-215
2.21066e-215
2.24315e-215
2.13894e-215
2.18514e-215
2.17681e-215
2.22905e-215
2.20938e-215
2.22591e-215
2.12465e-215
2.14722e-215
2.18055e-215
2.22354e-215
2.26844e-215
2.19345e-215
8.96733e-211
9.29791e-211
9.11735e-211
9.22145e-211
9.07283e-211
9.32537e-211
9.33371e-211
9.47087e-211
9.03072e-211
9.22617e-211
9.19077e-211
9.41124e-211
9.32806e-211
9.39799e-211
8.97041e-211
9.06589e-211
9.20657e-211
9.38817e-211
9.57757e-211
9.26114e-211
2.13239e-206
2.21105e-206
2.1681e-206
2.19276e-206
2.15746e-206
2.21748e-206
2.21947e-206
2.25207e-206
2.14734e-206
2.19394e-206
2.18543e-206
2.23783e-206
2.21798e-206
2.23466e-206
2.13297e-206
2.15572e-206
2.18916e-206
2.23235e-206
2.27734e-206
2.20215e-206
2.98388e-202
3.09405e-202
3.03394e-202
3.06826e-202
3.01894e-202
3.10289e-202
3.10567e-202
3.15126e-202
3.00461e-202
3.07004e-202
3.05796e-202
3.13122e-202
3.10333e-202
3.12675e-202
2.98443e-202
3.01636e-202
3.06311e-202
3.12356e-202
3.18638e-202
3.08123e-202
3.03754e-198
3.14984e-198
3.08863e-198
3.12332e-198
3.07323e-198
3.15862e-198
3.16145e-198
3.20781e-198
3.05838e-198
3.12528e-198
3.11274e-198
3.18722e-198
3.15866e-198
3.18259e-198
3.03767e-198
3.07028e-198
3.11779e-198
3.17931e-198
3.24306e-198
3.13606e-198
2.18784e-194
2.26886e-194
2.22477e-194
2.24954e-194
2.21358e-194
2.27502e-194
2.27708e-194
2.31043e-194
2.20268e-194
2.25114e-194
2.2419e-194
2.29547e-194
2.27475e-194
2.29208e-194
2.18766e-194
2.21124e-194
2.24538e-194
2.28965e-194
2.33537e-194
2.25832e-194
1.13332e-190
1.17537e-190
1.15253e-190
1.16522e-190
1.14667e-190
1.17846e-190
1.17953e-190
1.19679e-190
1.1409e-190
1.16618e-190
1.16126e-190
1.18897e-190
1.17814e-190
1.18717e-190
1.13307e-190
1.14534e-190
1.16297e-190
1.18588e-190
1.20944e-190
1.16956e-190
3.76404e-187
3.90405e-187
3.82818e-187
3.86973e-187
3.80849e-187
3.91384e-187
3.91745e-187
3.97465e-187
3.78882e-187
3.87348e-187
3.85661e-187
3.94852e-187
3.91215e-187
3.94238e-187
3.76268e-187
3.80369e-187
3.86207e-187
3.93806e-187
4.01588e-187
3.88373e-187
5.74859e-184
5.96297e-184
5.8471e-184
5.90939e-184
5.81655e-184
5.97691e-184
5.98248e-184
6.0696e-184
5.78556e-184
5.91599e-184
5.88931e-184
6.02953e-184
5.97326e-184
6.01979e-184
5.74553e-184
5.80863e-184
5.8975e-184
6.01336e-184
6.13147e-184
5.93001e-184
9.87173e-184
1.00657e-183
9.93793e-184
9.76835e-184
9.88483e-184
9.70389e-184
9.64822e-184
9.57236e-184
9.72353e-184
9.76921e-184
9.7435e-184
1.01204e-183
9.90797e-184
9.68316e-184
9.70182e-184
9.73652e-184
9.92039e-184
9.89008e-184
1.0055e-183
9.85808e-184
1.31472e-183
1.32131e-183
1.32184e-183
1.35095e-183
1.37182e-183
1.35035e-183
1.34564e-183
1.34854e-183
1.34057e-183
1.37908e-183
1.32942e-183
1.3732e-183
1.35882e-183
1.33618e-183
1.37952e-183
1.38076e-183
1.38408e-183
1.36641e-183
1.30911e-183
1.34691e-183
1.66531e-183
1.64938e-183
1.65942e-183
1.65929e-183
1.67807e-183
1.62838e-183
1.65727e-183
1.64716e-183
1.6364e-183
1.68234e-183
1.68558e-183
1.66929e-183
1.63735e-183
1.63997e-183
1.66588e-183
1.70172e-183
1.68073e-183
1.68759e-183
1.68823e-183
1.6385e-183
1.84492e-183
1.92984e-183
1.86752e-183
1.92817e-183
1.94569e-183
1.91418e-183
1.94305e-183
1.95325e-183
1.91256e-183
1.90466e-183
1.95655e-183
1.90815e-183
1.86344e-183
1.87777e-183
1.85082e-183
1.89034e-183
1.86387e-183
1.91873e-183
1.87221e-183
1.88931e-183
2.06006e-183
2.07344e-183
2.17004e-183
2.15815e-183
2.15814e-183
2.14403e-183
2.16324e-183
2.14503e-183
2.12926e-183
2.12548e-183
2.13121e-183
2.09982e-183
2.09579e-183
2.07879e-183
2.14726e-183
2.12531e-183
2.15807e-183
2.07877e-183
2.10184e-183
2.09237e-183
2.17033e-183
2.23908e-183
2.24206e-183
2.23841e-183
2.26978e-183
2.18685e-183
2.25554e-183
2.24332e-183
2.22855e-183
2.25769e-183
2.19217e-183
2.25033e-183
2.26172e-183
2.19952e-183
2.21583e-183
2.25888e-183
2.19726e-183
2.18751e-183
2.22466e-183
2.28121e-183
2.3839e-183
2.38673e-183
2.39717e-183
2.34654e-183
2.348e-183
2.37738e-183
2.4264e-183
2.38172e-183
2.32068e-183
2.37939e-183
2.40594e-183
2.40392e-183
2.393e-183
2.33497e-183
2.45737e-183
2.37002e-183
2.43152e-183
2.34884e-183
2.33827e-183
2.34293e-183
2.17e-183
2.26044e-183
2.18264e-183
2.21901e-183
2.18536e-183
2.25565e-183
2.24281e-183
2.19921e-183
2.22111e-183
2.26136e-183
2.23437e-183
2.28388e-183
2.29166e-183
2.22498e-183
2.20669e-183
2.21874e-183
2.23977e-183
2.21628e-183
2.30609e-183
2.18409e-183
2.28446e-183
2.29417e-183
2.27902e-183
2.29819e-183
2.29635e-183
2.30443e-183
2.28755e-183
2.27156e-183
2.29361e-183
2.21835e-183
2.26534e-183
2.28132e-183
2.36058e-183
2.32469e-183
2.33935e-183
2.36693e-183
2.36579e-183
2.30586e-183
2.38737e-183
2.32451e-183
1.86585e-183
1.86447e-183
1.85096e-183
1.90019e-183
1.89642e-183
1.87642e-183
1.88762e-183
1.82536e-183
1.87706e-183
1.90928e-183
1.85355e-183
1.90061e-183
1.86103e-183
1.83581e-183
1.89559e-183
1.87625e-183
1.90574e-183
1.96522e-183
1.92583e-183
1.93802e-183
1.57775e-183
1.589e-183
1.59714e-183
1.57513e-183
1.62759e-183
1.55646e-183
1.62023e-183
1.57007e-183
1.62194e-183
1.6118e-183
1.53921e-183
1.59526e-183
1.56622e-183
1.58587e-183
1.56672e-183
1.55635e-183
1.64731e-183
1.6437e-183
1.56797e-183
1.66613e-183
5.04436e-212
5.23034e-212
5.1288e-212
5.18738e-212
5.10381e-212
5.24592e-212
5.25065e-212
5.32783e-212
5.08027e-212
5.19025e-212
5.17036e-212
5.29441e-212
5.24764e-212
5.287e-212
5.04647e-212
5.10019e-212
5.17933e-212
5.28148e-212
5.38799e-212
5.20991e-212
2.45939e-207
2.55013e-207
2.50061e-207
2.52906e-207
2.48836e-207
2.55762e-207
2.55992e-207
2.59753e-207
2.47677e-207
2.53053e-207
2.52073e-207
2.58118e-207
2.55831e-207
2.57756e-207
2.46028e-207
2.48653e-207
2.52509e-207
2.57491e-207
2.62677e-207
2.54001e-207
6.23233e-203
6.46247e-203
6.33694e-203
6.40864e-203
6.30566e-203
6.48106e-203
6.4869e-203
6.58214e-203
6.27586e-203
6.41259e-203
6.38739e-203
6.54044e-203
6.48224e-203
6.53121e-203
6.23394e-203
6.30065e-203
6.3983e-203
6.52457e-203
6.65577e-203
6.43609e-203
9.10649e-199
9.44319e-199
9.25971e-199
9.36375e-199
9.21363e-199
9.46974e-199
9.4783e-199
9.61734e-199
9.1694e-199
9.37011e-199
9.33263e-199
9.55603e-199
9.47053e-199
9.54244e-199
9.10798e-199
9.20584e-199
9.34836e-199
9.5329e-199
9.72411e-199
9.40336e-199
9.4265e-195
9.7756e-195
9.58563e-195
9.69236e-195
9.53742e-195
9.80226e-195
9.81114e-195
9.95486e-195
9.49063e-195
9.69957e-195
9.65983e-195
9.89073e-195
9.80156e-195
9.8764e-195
9.42651e-195
9.52824e-195
9.67545e-195
9.86641e-195
1.00636e-194
9.73177e-195
6.87056e-191
7.12554e-191
6.98706e-191
7.064e-191
6.95154e-191
7.14434e-191
7.15088e-191
7.25548e-191
6.91666e-191
7.07005e-191
7.04026e-191
7.20829e-191
7.14272e-191
7.19765e-191
6.86962e-191
6.94413e-191
7.05112e-191
7.19019e-191
7.33316e-191
7.09139e-191
3.51193e-187
3.64258e-187
3.57179e-187
3.61059e-187
3.55341e-187
3.65181e-187
3.65519e-187
3.70856e-187
3.53513e-187
3.61419e-187
3.59847e-187
3.68422e-187
3.65034e-187
3.67864e-187
3.51091e-187
3.54923e-187
3.60372e-187
3.67472e-187
3.74737e-187
3.62392e-187
1.1416e-183
1.18418e-183
1.16117e-183
1.17357e-183
1.15511e-183
1.18702e-183
1.18814e-183
1.20545e-183
1.149e-183
1.17494e-183
1.16965e-183
1.19748e-183
1.18633e-183
1.19562e-183
1.14109e-183
1.15364e-183
1.17129e-183
1.19434e-183
1.21781e-183
1.17777e-183
1.70021e-180
1.76383e-180
1.72956e-180
1.74764e-180
1.72038e-180
1.76773e-180
1.76941e-180
1.7951e-180
1.71095e-180
1.74998e-180
1.74179e-180
1.78319e-180
1.76634e-180
1.7803e-180
1.69915e-180
1.718e-180
1.74418e-180
1.77845e-180
1.81316e-180
1.75364e-180
2.91253e-180
2.97019e-180
2.93204e-180
2.88176e-180
2.91652e-180
2.86285e-180
2.84655e-180
2.82449e-180
2.86915e-180
2.88292e-180
2.87502e-180
2.98624e-180
2.92302e-180
2.85667e-180
2.86218e-180
2.87278e-180
2.92673e-180
2.91787e-180
2.96685e-180
2.90862e-180
3.87238e-180
3.89162e-180
3.89302e-180
3.97895e-180
4.03977e-180
3.97682e-180
3.96344e-180
3.97176e-180
3.94866e-180
4.06266e-180
3.9154e-180
4.04481e-180
4.00231e-180
3.93525e-180
4.06316e-180
4.06624e-180
4.0758e-180
4.02406e-180
3.85567e-180
3.96726e-180
4.88758e-180
4.8411e-180
4.87015e-180
4.86973e-180
4.92434e-180
4.77874e-180
4.863e-180
4.83371e-180
4.80233e-180
4.93795e-180
4.9474e-180
4.89953e-180
4.8055e-180
4.81281e-180
4.88886e-180
4.99369e-180
4.93164e-180
4.95291e-180
4.95477e-180
4.80829e-180
5.38489e-180
5.63313e-180
5.45119e-180
5.62837e-180
5.67886e-180
5.58632e-180
5.67084e-180
5.70098e-180
5.58281e-180
5.55992e-180
5.71092e-180
5.57031e-180
5.43962e-180
5.48164e-180
5.40223e-180
5.51857e-180
5.44111e-180
5.60127e-180
5.4652e-180
5.51437e-180
5.97124e-180
6.0105e-180
6.29094e-180
6.25653e-180
6.25533e-180
6.2148e-180
6.27078e-180
6.21769e-180
6.17183e-180
6.16146e-180
6.17754e-180
6.08701e-180
6.07609e-180
6.02609e-180
6.22424e-180
6.16053e-180
6.25547e-180
6.02676e-180
6.09361e-180
6.06597e-180
6.24114e-180
6.43883e-180
6.44692e-180
6.43699e-180
6.52683e-180
6.28893e-180
6.48568e-180
6.4506e-180
6.40841e-180
6.4923e-180
6.30443e-180
6.47093e-180
6.50503e-180
6.32559e-180
6.37195e-180
6.49653e-180
6.31886e-180
6.2911e-180
6.39765e-180
6.56081e-180
6.76777e-180
6.77707e-180
6.80662e-180
6.66314e-180
6.66662e-180
6.74984e-180
6.88858e-180
6.7616e-180
6.5885e-180
6.75621e-180
6.83198e-180
6.82604e-180
6.79458e-180
6.63073e-180
6.97878e-180
6.72927e-180
6.90489e-180
6.66936e-180
6.64016e-180
6.65259e-180
6.12152e-180
6.37718e-180
6.1575e-180
6.26095e-180
6.16584e-180
6.36457e-180
6.32741e-180
6.20429e-180
6.26585e-180
6.38032e-180
6.30386e-180
6.44375e-180
6.4667e-180
6.27794e-180
6.22656e-180
6.2607e-180
6.32073e-180
6.25365e-180
6.50767e-180
6.16269e-180
6.30076e-180
6.32848e-180
6.28635e-180
6.33921e-180
6.33436e-180
6.35636e-180
6.31064e-180
6.26563e-180
6.3269e-180
6.11892e-180
6.2484e-180
6.293e-180
6.51181e-180
6.41341e-180
6.45409e-180
6.53005e-180
6.52724e-180
6.36141e-180
6.58686e-180
6.41273e-180
5.15311e-180
5.1495e-180
5.11184e-180
5.24856e-180
5.2385e-180
5.18339e-180
5.2143e-180
5.04219e-180
5.18493e-180
5.27421e-180
5.12066e-180
5.25083e-180
5.14166e-180
5.07185e-180
5.23709e-180
5.18421e-180
5.26485e-180
5.42932e-180
5.32039e-180
5.35402e-180
4.2628e-180
4.29279e-180
4.31455e-180
4.25565e-180
4.39747e-180
4.20555e-180
4.37862e-180
4.24199e-180
4.38263e-180
4.35571e-180
4.15957e-180
4.31114e-180
4.23183e-180
4.28535e-180
4.23361e-180
4.20547e-180
4.45147e-180
4.44142e-180
4.23674e-180
4.50284e-180
1.45519e-208
1.50888e-208
1.47958e-208
1.49642e-208
1.47235e-208
1.51333e-208
1.51471e-208
1.53697e-208
1.46551e-208
1.49733e-208
1.49154e-208
1.52731e-208
1.51378e-208
1.52518e-208
1.45578e-208
1.47131e-208
1.49413e-208
1.5236e-208
1.55427e-208
1.50291e-208
7.43223e-204
7.70671e-204
7.55705e-204
7.6426e-204
7.51985e-204
7.72908e-204
7.73611e-204
7.84972e-204
7.48452e-204
7.64763e-204
7.61764e-204
7.80021e-204
7.73085e-204
7.7893e-204
7.43478e-204
7.51437e-204
7.63082e-204
7.78137e-204
7.93778e-204
7.67568e-204
1.9083e-199
1.97886e-199
1.94042e-199
1.96223e-199
1.93078e-199
1.98446e-199
1.98627e-199
2.01541e-199
1.92155e-199
1.96363e-199
1.95578e-199
2.0026e-199
1.9847e-199
1.99978e-199
1.90873e-199
1.92925e-199
1.95911e-199
1.99778e-199
2.03785e-199
1.97062e-199
2.84681e-195
2.95224e-195
2.89487e-195
2.92712e-195
2.88034e-195
2.96036e-195
2.96307e-195
3.0065e-195
2.86631e-195
2.92946e-195
2.91749e-195
2.98726e-195
2.96036e-195
2.98302e-195
2.84715e-195
2.87791e-195
2.92239e-195
2.9801e-195
3.03966e-195
2.93947e-195
2.94476e-191
3.05405e-191
2.99469e-191
3.02768e-191
2.97947e-191
3.06214e-191
3.06496e-191
3.1098e-191
2.96458e-191
3.03037e-191
3.01762e-191
3.08967e-191
3.0616e-191
3.0852e-191
2.9446e-191
2.97658e-191
3.02247e-191
3.08214e-191
3.14348e-191
3.03991e-191
2.14441e-187
2.22419e-187
2.18097e-187
2.20467e-187
2.16974e-187
2.22986e-187
2.23194e-187
2.26453e-187
2.15861e-187
2.20693e-187
2.19735e-187
2.24972e-187
2.22907e-187
2.2464e-187
2.14397e-187
2.1674e-187
2.20071e-187
2.24412e-187
2.28853e-187
2.21314e-187
1.07052e-183
1.11046e-183
1.08888e-183
1.10053e-183
1.0832e-183
1.11316e-183
1.11421e-183
1.13045e-183
1.07748e-183
1.10184e-183
1.09688e-183
1.12298e-183
1.11254e-183
1.12128e-183
1.07012e-183
1.08191e-183
1.09846e-183
1.12011e-183
1.14213e-183
1.10454e-183
3.39708e-180
3.52423e-180
3.45575e-180
3.49199e-180
3.43744e-180
3.53225e-180
3.53566e-180
3.58703e-180
3.4187e-180
3.49684e-180
3.48048e-180
3.56314e-180
3.52958e-180
3.5576e-180
3.39525e-180
3.43297e-180
3.48527e-180
3.5539e-180
3.62328e-180
3.50428e-180
4.92409e-177
5.109e-177
5.00975e-177
5.06102e-177
4.98272e-177
5.11957e-177
5.1246e-177
5.19875e-177
4.95452e-177
5.06906e-177
5.04433e-177
5.16399e-177
5.11457e-177
5.15563e-177
4.92045e-177
4.97566e-177
5.05112e-177
5.15041e-177
5.25022e-177
5.07807e-177
8.41281e-177
8.58077e-177
8.46906e-177
8.32298e-177
8.42473e-177
8.26869e-177
8.22201e-177
8.15935e-177
8.28857e-177
8.32927e-177
8.30539e-177
8.62675e-177
8.44238e-177
8.25066e-177
8.26655e-177
8.29837e-177
8.45325e-177
8.42789e-177
8.57042e-177
8.40177e-177
1.11681e-176
1.12231e-176
1.12266e-176
1.1475e-176
1.16484e-176
1.14677e-176
1.14307e-176
1.14541e-176
1.13886e-176
1.17192e-176
1.12913e-176
1.1666e-176
1.15429e-176
1.13484e-176
1.1718e-176
1.17251e-176
1.17519e-176
1.16037e-176
1.11193e-176
1.1442e-176
1.40517e-176
1.3919e-176
1.40012e-176
1.39998e-176
1.41552e-176
1.37374e-176
1.39779e-176
1.38948e-176
1.38053e-176
1.41978e-176
1.42247e-176
1.40868e-176
1.38156e-176
1.38354e-176
1.40541e-176
1.43544e-176
1.41745e-176
1.42393e-176
1.42446e-176
1.38217e-176
1.54075e-176
1.61191e-176
1.55983e-176
1.61058e-176
1.62482e-176
1.59816e-176
1.62243e-176
1.63117e-176
1.59754e-176
1.59105e-176
1.6341e-176
1.59408e-176
1.55662e-176
1.56872e-176
1.54574e-176
1.57934e-176
1.55712e-176
1.60296e-176
1.56393e-176
1.57777e-176
1.69861e-176
1.70993e-176
1.78984e-176
1.78007e-176
1.77935e-176
1.76795e-176
1.78396e-176
1.76876e-176
1.75567e-176
1.7529e-176
1.75731e-176
1.73168e-176
1.72883e-176
1.71437e-176
1.77064e-176
1.75248e-176
1.77949e-176
1.71479e-176
1.73379e-176
1.72587e-176
1.7653e-176
1.82121e-176
1.82335e-176
1.82072e-176
1.84601e-176
1.7789e-176
1.8343e-176
1.8244e-176
1.81256e-176
1.83631e-176
1.78334e-176
1.8302e-176
1.84027e-176
1.78933e-176
1.80227e-176
1.83776e-176
1.78734e-176
1.77958e-176
1.80963e-176
1.85596e-176
1.89347e-176
1.89647e-176
1.90471e-176
1.86464e-176
1.86541e-176
1.88863e-176
1.92732e-176
1.89174e-176
1.84337e-176
1.8906e-176
1.91193e-176
1.9102e-176
1.90126e-176
1.85569e-176
1.95324e-176
1.88296e-176
1.93241e-176
1.86626e-176
1.85834e-176
1.86157e-176
1.70769e-176
1.77926e-176
1.71782e-176
1.74699e-176
1.72039e-176
1.77604e-176
1.76538e-176
1.73096e-176
1.74802e-176
1.78021e-176
1.75887e-176
1.7979e-176
1.80462e-176
1.75175e-176
1.73746e-176
1.74704e-176
1.76403e-176
1.74505e-176
1.81612e-176
1.71962e-176
1.72898e-176
1.73688e-176
1.72522e-176
1.73972e-176
1.73845e-176
1.7444e-176
1.73212e-176
1.71948e-176
1.73643e-176
1.67923e-176
1.71472e-176
1.72712e-176
1.78722e-176
1.7604e-176
1.77163e-176
1.79244e-176
1.79177e-176
1.74611e-176
1.80816e-176
1.76015e-176
1.41936e-176
1.41842e-176
1.40795e-176
1.44584e-176
1.44318e-176
1.42804e-176
1.43654e-176
1.38908e-176
1.42837e-176
1.45305e-176
1.41087e-176
1.44679e-176
1.41677e-176
1.39748e-176
1.44305e-176
1.42863e-176
1.4506e-176
1.49596e-176
1.46592e-176
1.47517e-176
1.16247e-176
1.17052e-176
1.17639e-176
1.1605e-176
1.19919e-176
1.14694e-176
1.19436e-176
1.15676e-176
1.19527e-176
1.18807e-176
1.13458e-176
1.17595e-176
1.15406e-176
1.16879e-176
1.15467e-176
1.14696e-176
1.21412e-176
1.21128e-176
1.15546e-176
1.22829e-176
4.58214e-205
4.75138e-205
4.65912e-205
4.71188e-205
4.63622e-205
4.76524e-205
4.76959e-205
4.83965e-205
4.6145e-205
4.71508e-205
4.6966e-205
4.80916e-205
4.7664e-205
4.80244e-205
4.58386e-205
4.63292e-205
4.70471e-205
4.79752e-205
4.89392e-205
4.73226e-205
2.36369e-200
2.45111e-200
2.4035e-200
2.43053e-200
2.39159e-200
2.4581e-200
2.46036e-200
2.49647e-200
2.38021e-200
2.43235e-200
2.42265e-200
2.48066e-200
2.45849e-200
2.4772e-200
2.36441e-200
2.38983e-200
2.42682e-200
2.47471e-200
2.52432e-200
2.44101e-200
6.01522e-196
6.23803e-196
6.11683e-196
6.185e-196
6.08617e-196
6.2553e-196
6.26105e-196
6.35282e-196
6.05662e-196
6.19011e-196
6.16483e-196
6.31228e-196
6.25549e-196
6.3034e-196
6.01629e-196
6.08129e-196
6.17527e-196
6.2972e-196
6.42305e-196
6.21128e-196
9.02304e-192
9.35793e-192
9.17607e-192
9.2772e-192
9.12952e-192
9.38296e-192
9.39166e-192
9.52913e-192
9.08419e-192
9.28592e-192
9.24696e-192
9.46781e-192
9.38193e-192
9.45439e-192
9.02356e-192
9.12167e-192
9.26237e-192
9.44533e-192
9.63333e-192
9.31601e-192
9.21722e-188
9.56015e-188
9.37433e-188
9.47626e-188
9.32609e-188
9.58461e-188
9.59358e-188
9.7337e-188
9.27843e-188
9.48624e-188
9.44513e-188
9.67028e-188
9.58165e-188
9.65631e-188
9.216e-188
9.31687e-188
9.46014e-188
9.64698e-188
9.83801e-188
9.51414e-188
6.59511e-184
6.8412e-184
6.70823e-184
6.78002e-184
6.67322e-184
6.85789e-184
6.86441e-184
6.96445e-184
6.63811e-184
6.7883e-184
6.7578e-184
6.91858e-184
6.85442e-184
6.90839e-184
6.59318e-184
6.6659e-184
6.76799e-184
6.90157e-184
7.03736e-184
6.80575e-184
3.20935e-180
3.32949e-180
3.26478e-180
3.29908e-180
3.24748e-180
3.33716e-180
3.34039e-180
3.38894e-180
3.22984e-180
3.30374e-180
3.2883e-180
3.36638e-180
3.33474e-180
3.3613e-180
3.20784e-180
3.24352e-180
3.29296e-180
3.35789e-180
3.42348e-180
3.31091e-180
9.91577e-177
1.02883e-176
1.00884e-176
1.0192e-176
1.0034e-176
1.03103e-176
1.03205e-176
1.047e-176
9.97757e-177
1.02087e-176
1.01589e-176
1.03997e-176
1.03005e-176
1.03835e-176
9.90933e-177
1.00207e-176
1.01726e-176
1.0373e-176
1.05741e-176
1.02272e-176
1.39627e-173
1.44891e-173
1.42078e-173
1.43497e-173
1.41297e-173
1.45169e-173
1.45316e-173
1.47411e-173
1.40469e-173
1.43764e-173
1.43032e-173
1.46417e-173
1.44996e-173
1.4618e-173
1.39507e-173
1.41092e-173
1.43219e-173
1.46036e-173
1.48845e-173
1.43969e-173
2.37887e-173
2.42679e-173
2.39474e-173
2.35317e-173
2.38236e-173
2.33791e-173
2.32484e-173
2.30745e-173
2.34405e-173
2.35585e-173
2.34876e-173
2.43967e-173
2.38699e-173
2.33275e-173
2.33723e-173
2.3466e-173
2.3901e-173
2.383e-173
2.42364e-173
2.3758e-173
3.15368e-173
3.16909e-173
3.16987e-173
3.24025e-173
3.28854e-173
3.23782e-173
3.22785e-173
3.23423e-173
3.21611e-173
3.31004e-173
3.18819e-173
3.29447e-173
3.25956e-173
3.20425e-173
3.30888e-173
3.31032e-173
3.31768e-173
3.27614e-173
3.1397e-173
3.2311e-173
3.95733e-173
3.92023e-173
3.94296e-173
3.94254e-173
3.98575e-173
3.86835e-173
3.93558e-173
3.9125e-173
3.88753e-173
3.99886e-173
4.00632e-173
3.96744e-173
3.89076e-173
3.896e-173
3.95759e-173
4.04178e-173
3.99067e-173
4.01005e-173
4.01155e-173
3.89191e-173
4.3218e-173
4.52184e-173
4.37566e-173
4.51815e-173
4.55747e-173
4.48213e-173
4.55048e-173
4.57535e-173
4.48155e-173
4.46351e-173
4.58381e-173
4.47221e-173
4.36692e-173
4.40108e-173
4.33582e-173
4.43108e-173
4.36855e-173
4.49718e-173
4.3874e-173
4.42548e-173
4.74165e-173
4.77373e-173
4.99721e-173
4.97001e-173
4.96686e-173
4.93539e-173
4.98036e-173
4.93762e-173
4.90095e-173
4.89378e-173
4.90554e-173
4.8344e-173
4.82718e-173
4.7861e-173
4.94289e-173
4.89211e-173
4.96748e-173
4.78796e-173
4.84098e-173
4.81864e-173
4.90977e-173
5.06524e-173
5.07072e-173
5.06399e-173
5.13392e-173
4.94784e-173
5.10116e-173
5.07369e-173
5.04099e-173
5.10712e-173
4.9603e-173
5.08994e-173
5.11924e-173
4.97698e-173
5.01241e-173
5.11191e-173
4.97118e-173
4.94988e-173
5.0332e-173
5.1626e-173
5.21818e-173
5.22762e-173
5.25026e-173
5.14003e-173
5.14156e-173
5.20537e-173
5.31159e-173
5.21337e-173
5.08026e-173
5.21132e-173
5.27053e-173
5.26551e-173
5.24044e-173
5.11571e-173
5.38505e-173
5.18991e-173
5.32718e-173
5.14412e-173
5.12301e-173
5.13119e-173
4.70466e-173
4.9026e-173
4.73287e-173
4.81433e-173
4.74068e-173
4.89467e-173
4.86431e-173
4.76925e-173
4.81614e-173
4.90541e-173
4.84654e-173
4.95412e-173
4.97373e-173
4.82734e-173
4.78802e-173
4.81466e-173
4.86218e-173
4.80905e-173
5.00561e-173
4.73885e-173
4.70467e-173
4.72708e-173
4.695e-173
4.73447e-173
4.73118e-173
4.74714e-173
4.71447e-173
4.6792e-173
4.72577e-173
4.56975e-173
4.66615e-173
4.7004e-173
4.86408e-173
4.79163e-173
4.82239e-173
4.87893e-173
4.8774e-173
4.75267e-173
4.92205e-173
4.79074e-173
3.88297e-173
3.88057e-173
3.85159e-173
3.956e-173
3.94904e-173
3.90772e-173
3.93093e-173
3.8009e-173
3.90833e-173
3.97613e-173
3.86103e-173
3.95954e-173
3.8775e-173
3.8246e-173
3.9494e-173
3.9104e-173
3.96979e-173
4.09404e-173
4.01177e-173
4.037e-173
3.1639e-173
3.18547e-173
3.20121e-173
3.15846e-173
3.26383e-173
3.12189e-173
3.25164e-173
3.14827e-173
3.25356e-173
3.23437e-173
3.08878e-173
3.20146e-173
3.14113e-173
3.18161e-173
3.14316e-173
3.12206e-173
3.30503e-173
3.29705e-173
3.14509e-173
3.34407e-173
1.50442e-201
1.56006e-201
1.52976e-201
1.54697e-201
1.52219e-201
1.56453e-201
1.56597e-201
1.58896e-201
1.51497e-201
1.54816e-201
1.54198e-201
1.5789e-201
1.56479e-201
1.5767e-201
1.50491e-201
1.52108e-201
1.54462e-201
1.5751e-201
1.60666e-201
1.55362e-201
7.72148e-197
8.00752e-197
7.85198e-197
7.93952e-197
7.8127e-197
8.02987e-197
8.0373e-197
8.15514e-197
7.77493e-197
7.94634e-197
7.91392e-197
8.10323e-197
8.03036e-197
8.0919e-197
7.72334e-197
7.80678e-197
7.92742e-197
8.08391e-197
8.24539e-197
7.97342e-197
1.9263e-192
1.9978e-192
1.95898e-192
1.98058e-192
1.94905e-192
2.00317e-192
2.00504e-192
2.03439e-192
1.9394e-192
1.98249e-192
1.97417e-192
2.02133e-192
2.003e-192
2.01849e-192
1.9265e-192
1.94745e-192
1.97748e-192
2.01654e-192
2.05667e-192
1.98891e-192
2.86871e-188
2.97545e-188
2.91762e-188
2.94936e-188
2.90263e-188
2.98313e-188
2.98595e-188
3.02958e-188
2.88789e-188
2.95262e-188
2.93985e-188
3.00996e-188
2.98241e-188
3.0057e-188
2.86865e-188
2.90008e-188
2.9447e-188
3.00288e-188
3.06236e-188
2.96157e-188
2.85782e-184
2.96446e-184
2.90684e-184
2.93796e-184
2.89167e-184
2.97173e-184
2.97456e-184
3.01793e-184
2.8765e-184
2.94162e-184
2.92843e-184
2.99812e-184
2.97035e-184
2.99379e-184
2.85719e-184
2.88875e-184
2.93302e-184
2.99097e-184
3.04987e-184
2.94955e-184
1.99729e-180
2.07206e-180
2.03179e-180
2.05314e-180
2.02102e-180
2.07686e-180
2.07889e-180
2.10911e-180
2.01007e-180
2.0561e-180
2.04651e-180
2.09511e-180
2.07545e-180
2.09202e-180
1.9965e-180
2.01875e-180
2.04954e-180
2.09001e-180
2.13087e-180
2.06081e-180
9.45504e-177
9.81028e-177
9.61967e-177
9.71865e-177
9.56783e-177
9.83155e-177
9.84136e-177
9.98397e-177
9.51419e-177
9.73478e-177
9.68738e-177
9.91693e-177
9.82253e-177
9.90197e-177
9.44955e-177
9.55588e-177
9.70081e-177
9.8922e-177
1.00841e-176
9.75284e-177
2.83736e-173
2.94438e-173
2.88719e-173
2.91616e-173
2.87135e-173
2.95023e-173
2.95325e-173
2.99587e-173
2.85464e-173
2.92172e-173
2.90684e-173
2.97559e-173
2.9468e-173
2.97097e-173
2.83517e-173
2.86744e-173
2.91066e-173
2.96803e-173
3.02514e-173
2.92599e-173
3.87491e-170
4.02165e-170
3.94358e-170
3.98194e-170
3.9215e-170
4.02868e-170
4.03291e-170
4.09079e-170
3.89767e-170
3.99054e-170
3.96924e-170
4.06297e-170
4.02295e-170
4.05639e-170
3.87105e-170
3.91565e-170
3.9743e-170
4.05252e-170
4.12982e-170
3.99468e-170
6.58273e-170
6.71662e-170
6.62653e-170
6.5107e-170
6.59278e-170
6.46875e-170
6.43298e-170
6.38582e-170
6.48733e-170
6.52081e-170
6.5002e-170
6.75185e-170
6.60444e-170
6.45428e-170
6.46663e-170
6.49371e-170
6.61319e-170
6.59373e-170
6.70719e-170
6.57438e-170
8.71663e-170
8.75884e-170
8.76039e-170
8.95565e-170
9.08709e-170
8.9478e-170
8.92168e-170
8.93868e-170
8.88965e-170
9.15099e-170
8.81113e-170
9.10631e-170
9.00937e-170
8.85538e-170
9.14529e-170
9.14761e-170
9.16728e-170
9.05342e-170
8.67733e-170
8.9308e-170
1.09134e-169
1.0812e-169
1.08734e-169
1.08721e-169
1.09896e-169
1.06667e-169
1.08505e-169
1.07878e-169
1.07196e-169
1.1029e-169
1.10493e-169
1.09419e-169
1.07295e-169
1.0743e-169
1.09128e-169
1.11439e-169
1.10016e-169
1.10585e-169
1.10626e-169
1.0731e-169
1.18801e-169
1.24313e-169
1.20291e-169
1.24212e-169
1.25274e-169
1.23187e-169
1.25074e-169
1.25768e-169
1.23206e-169
1.22715e-169
1.26007e-169
1.22959e-169
1.20058e-169
1.21004e-169
1.19186e-169
1.21834e-169
1.20109e-169