/*--------------------------------*- C++ -*----------------------------------*\
| =========                 |                                                 |
| \\      /  F ield         | OpenFOAM: The Open Source CFD Toolbox           |
|  \\    /   O peration     | Version:  2212                                  |
|   \\  /    A nd           | Website:  www.openfoam.com                      |
|    \\/     M anipulation  |                                                 |
\*---------------------------------------------------------------------------*/
FoamFile
{
    version     2.0;
    format      ascii;
    arch        "LSB;label=32;scalar=64";
    class       surfaceScalarField;
    location    "0.0002";
    object      phi;
}
// * * * * * * * * * * * * * * * * * * * * * * * * * * * * * * * * * * * * * //

dimensions      [1 0 -1 0 0 0 0];

oriented        oriented;

internalField   nonuniform List<scalar> 
5190
(
-5.65023e-18
2.09748e-17
4.81123e-17
4.59959e-17
-1.2267e-17
8.73753e-18
-8.60114e-18
-3.76711e-17
1.06933e-17
1.7191e-17
2.93763e-17
2.36168e-17
7.21637e-17
1.09098e-17
2.83575e-17
3.62594e-17
5.70859e-17
1.36186e-17
1.84534e-17
2.69721e-17
8.52523e-18
2.04704e-17
1.30308e-17
3.20354e-17
-9.11791e-18
-2.7022e-17
-4.75195e-17
-3.13565e-17
9.82895e-18
7.72505e-18
1.85756e-17
-4.19972e-18
2.57848e-17
2.63036e-17
-6.77512e-17
1.59931e-17
3.34135e-18
-7.00255e-17
2.31751e-17
-4.61807e-17
-1.51461e-17
3.97709e-17
2.99212e-17
4.49956e-17
7.16528e-18
2.43945e-18
-2.37708e-17
-2.02013e-18
-2.7076e-17
-3.71709e-18
2.54495e-17
1.50054e-17
3.53456e-17
8.7051e-18
-1.49753e-17
6.00395e-18
1.84258e-17
-4.03298e-17
-6.92524e-17
-3.18202e-17
-6.26304e-18
-1.44982e-18
1.76752e-17
-4.66207e-18
-4.47204e-18
-1.1648e-17
-1.47117e-17
-2.55873e-17
-3.59153e-17
-1.20741e-17
-1.6755e-17
-6.3959e-18
-2.10595e-17
2.12246e-17
-3.55073e-17
-2.91632e-17
1.3391e-17
1.43842e-17
4.97378e-18
-4.00657e-17
-7.806e-18
-1.32655e-17
-1.38268e-17
-1.33738e-17
2.12424e-17
4.19951e-17
3.43378e-17
4.14537e-17
-1.27127e-17
4.51798e-17
-4.7312e-17
2.32471e-17
-2.85414e-17
9.56405e-18
4.94962e-17
-1.15849e-17
-2.23884e-17
-2.01929e-17
-4.45233e-17
3.55207e-18
-5.43878e-18
3.16691e-17
2.12857e-17
-2.27514e-17
-1.06481e-17
7.70969e-18
2.48271e-17
1.099e-17
-1.27585e-17
-1.27983e-18
4.56748e-18
4.32864e-17
1.40699e-17
-6.32216e-18
2.33358e-18
-1.55816e-17
-2.22977e-17
1.78713e-17
6.7038e-17
-8.93638e-18
7.47651e-18
1.81487e-18
-2.26888e-17
-3.09756e-17
4.82603e-17
2.9769e-18
-2.35814e-18
3.76477e-17
-3.38895e-17
6.2198e-17
-6.57788e-18
2.46574e-17
-5.1968e-17
-9.45829e-18
2.1534e-17
2.06051e-17
-3.59274e-17
2.49407e-17
-4.44674e-17
-1.37417e-17
-2.09945e-17
4.51327e-19
5.10309e-18
1.98909e-17
-4.82055e-17
3.65484e-17
-3.88092e-17
2.36182e-17
-4.89047e-17
2.82148e-17
2.31352e-17
-1.80178e-17
4.48102e-17
-3.41181e-17
-3.44988e-17
3.20613e-17
-8.474e-17
1.46223e-17
-2.07983e-17
4.14981e-17
4.61183e-17
3.47717e-18
-3.36199e-17
-4.08155e-17
3.8308e-18
7.21203e-18
1.74098e-17
-6.43552e-18
1.34231e-17
3.13966e-17
3.87883e-18
4.15533e-17
5.2438e-18
1.98617e-17
1.23183e-17
6.31663e-17
-2.93055e-17
1.37234e-17
-2.25218e-17
-5.07098e-18
-2.42263e-17
2.07061e-17
1.86589e-18
-6.06275e-19
-5.86778e-18
1.99003e-17
5.60892e-18
-1.56255e-17
2.56945e-17
-5.13972e-18
2.46928e-17
-4.63372e-17
-1.60968e-17
-2.11962e-17
1.47883e-17
3.15109e-17
2.43813e-17
5.45653e-17
-5.13573e-18
-6.64761e-18
8.7856e-18
-6.76562e-18
1.51518e-17
-8.817e-18
-1.86471e-17
-4.52486e-17
3.75187e-17
1.05907e-17
1.49145e-17
1.49574e-17
2.08571e-17
4.27582e-17
2.58074e-17
-3.2796e-17
2.66144e-17
2.8775e-17
-3.56041e-17
-2.97891e-17
-4.95896e-17
-4.3239e-17
-7.65966e-19
3.45642e-17
1.32626e-17
4.48407e-17
-1.38678e-17
-2.25018e-17
-1.91355e-17
-3.33838e-17
-4.60826e-18
-1.68052e-17
3.44065e-17
2.52958e-17
1.612e-17
8.5083e-18
-1.065e-17
-2.50627e-17
-2.71979e-17
1.03754e-18
-6.76708e-18
1.95542e-17
1.56317e-17
-5.61145e-18
2.22537e-17
4.32642e-19
-6.4578e-18
-1.88235e-17
3.90371e-18
1.553e-17
4.74157e-18
1.09765e-17
-3.09517e-18
-2.9586e-17
8.16365e-18
9.77369e-18
2.00767e-17
-5.15139e-17
-5.91164e-18
5.55569e-18
-2.71664e-17
6.24321e-18
7.22007e-17
-5.68469e-17
-1.49529e-17
-3.86728e-17
-1.27835e-17
8.24225e-18
3.8411e-17
1.17761e-18
-1.64489e-17
-2.27295e-17
-2.42718e-17
5.21182e-18
3.32467e-17
-2.97748e-18
1.40552e-17
-4.70552e-17
1.30652e-17
-2.81881e-17
3.18276e-17
2.86854e-17
7.75016e-18
1.37446e-17
-2.09119e-17
4.14043e-17
-3.74958e-17
1.8298e-17
-3.48842e-17
-2.79636e-17
-6.37371e-17
7.791e-18
-6.40816e-18
2.91569e-17
3.20912e-17
3.6294e-17
3.72975e-17
-3.87217e-19
-4.37643e-17
-3.16108e-17
-3.89573e-17
1.13307e-17
-1.96535e-17
8.17036e-18
2.81254e-17
1.64125e-17
1.43889e-17
-1.16055e-17
-5.37155e-17
3.02564e-17
-1.43564e-17
8.52354e-19
-2.17811e-17
-6.90597e-18
2.06865e-17
-6.52183e-18
-2.38242e-17
-2.90558e-17
-1.69513e-17
1.90764e-17
1.50489e-17
-9.78754e-18
2.33759e-18
-3.99551e-17
2.73008e-17
1.08902e-17
3.25278e-17
1.42132e-17
-1.56135e-17
2.48547e-17
8.75217e-19
1.67413e-17
-2.99771e-17
-3.23911e-18
-2.40711e-17
-2.02878e-17
-5.09845e-17
-2.92607e-17
1.23828e-17
3.8998e-17
3.03561e-17
3.17348e-17
3.9601e-17
1.30657e-17
-3.05749e-18
-1.27523e-18
3.76376e-17
-4.43438e-18
-1.59347e-18
-2.33653e-17
-1.23719e-17
-9.21597e-18
1.29964e-17
-2.6372e-17
9.86757e-18
-2.1581e-17
8.3509e-18
1.14321e-17
4.18245e-17
-7.43336e-18
-1.35822e-17
8.22792e-19
3.28393e-17
-3.66725e-17
-8.72779e-19
-1.54608e-17
-1.22098e-17
7.04349e-19
-1.42204e-17
1.01759e-17
2.51525e-17
2.86266e-17
3.03935e-17
3.253e-17
-7.92405e-18
-2.36394e-17
4.09901e-17
-2.19544e-17
1.12764e-17
-5.03377e-17
-2.87181e-17
-1.36238e-18
1.79916e-17
-9.02598e-18
2.94305e-17
4.60923e-17
-2.78015e-18
-1.54124e-17
-6.61887e-18
1.67253e-17
-1.06006e-17
4.83844e-18
1.16616e-17
4.07368e-17
-5.71363e-17
3.25363e-17
1.87687e-17
3.17395e-17
2.58354e-17
1.5793e-17
-2.3426e-17
-2.43561e-17
6.74974e-19
3.78333e-18
-2.48011e-18
-1.58287e-17
2.04333e-17
3.31733e-18
-3.08836e-18
-1.2886e-17
-2.85015e-17
-1.59913e-17
-1.54973e-17
-1.84758e-18
1.09361e-17
1.35938e-17
7.29138e-18
-2.00974e-17
2.60192e-17
1.95321e-18
6.1808e-18
-2.92994e-17
2.16416e-17
1.84287e-18
-1.72253e-17
-4.93712e-17
-1.35519e-17
4.46932e-18
7.22754e-18
-1.68047e-18
-1.8092e-17
1.48784e-17
-2.82619e-17
-1.0681e-17
-2.98562e-17
-3.68535e-17
-6.38221e-18
-3.24688e-17
2.19561e-17
3.52059e-17
-1.75912e-17
8.58151e-18
-2.04641e-17
4.15024e-17
-5.95414e-18
7.52563e-17
1.91763e-17
-6.87828e-17
-2.3222e-17
-2.89063e-17
2.59895e-17
1.68468e-17
-7.84309e-18
3.8512e-17
3.18117e-17
-2.53721e-17
2.35916e-17
7.15313e-17
9.65349e-18
1.28836e-17
-1.50581e-17
-2.92206e-18
-7.94224e-18
-4.76705e-18
-1.8143e-18
-4.91991e-17
-2.91878e-17
-2.1208e-17
-1.76442e-17
-1.62059e-17
-2.46299e-17
-3.67265e-17
-2.64386e-17
-8.46217e-19
-1.41622e-17
-2.07791e-17
-1.68906e-17
-3.36349e-17
-7.13686e-18
-4.4498e-18
7.76297e-18
-2.07685e-17
-4.14645e-17
-9.67491e-18
-7.78665e-18
2.11732e-18
-3.62478e-18
1.71968e-17
-4.13287e-17
-3.39487e-17
-2.61846e-17
-2.47922e-17
-1.39008e-17
2.629e-17
-2.3814e-17
3.95598e-18
1.03761e-17
1.57949e-17
2.07625e-17
-6.18969e-18
7.15e-18
-2.751e-18
-1.60247e-17
1.29377e-17
5.1454e-18
1.39871e-17
1.28641e-17
-2.19676e-13
-1.24102e-16
5.47006e-12
-1.22465e-16
1.43698e-18
-1.97764e-14
-3.43526e-17
2.19808e-13
-1.97728e-14
-3.21599e-17
5.47332e-12
-3.17856e-16
-2.72396e-18
-1.87842e-17
-2.47658e-17
-2.53303e-17
-5.93875e-17
-4.47294e-18
2.40348e-17
3.81116e-17
-3.90206e-17
-3.7521e-17
1.76623e-18
-6.82524e-17
-1.4918e-17
-4.4952e-17
1.28233e-17
6.67359e-19
-1.51036e-18
3.65246e-17
7.02193e-17
8.62928e-17
2.47903e-17
5.44816e-18
1.3959e-17
2.78429e-17
-2.82987e-17
-1.20687e-17
1.37777e-17
-9.36447e-18
2.70928e-18
-3.74727e-19
6.61943e-18
-1.90755e-17
2.03881e-17
1.63459e-17
1.1059e-17
-1.96547e-18
3.93325e-17
1.73154e-17
2.48887e-17
4.38546e-18
-1.13582e-17
1.34295e-17
3.22156e-17
5.35712e-17
1.62597e-18
6.43042e-17
-1.56878e-17
-1.82959e-19
-3.33801e-18
1.16438e-17
-2.34864e-17
-5.90689e-17
3.37466e-17
-3.96484e-17
-2.73223e-17
-2.91365e-17
-3.50607e-17
3.91724e-17
-6.26015e-18
2.41655e-17
1.19683e-17
-4.87997e-17
-2.59111e-17
-4.34636e-17
1.89073e-17
3.24081e-17
6.11385e-17
2.735e-17
-4.54387e-18
-2.13154e-17
5.44535e-18
3.25132e-17
3.28637e-17
-1.02392e-17
-1.50909e-17
2.20757e-18
3.50991e-17
-2.995e-17
2.69913e-17
-3.55682e-18
3.59144e-17
2.29145e-17
3.16742e-18
-5.80772e-17
4.91061e-17
-2.93791e-17
2.9327e-18
-3.33059e-19
1.48013e-17
2.61536e-17
-1.71667e-17
-4.29368e-17
1.30751e-17
1.24253e-17
-3.75982e-17
1.82372e-17
-2.57361e-17
5.70963e-17
-9.06203e-18
-6.63403e-16
8.42951e-19
3.79374e-17
-5.0375e-17
3.17697e-17
4.36153e-18
2.51124e-17
-4.43216e-18
8.01363e-17
6.75049e-17
2.70106e-17
2.34592e-17
3.35561e-17
-1.84172e-17
1.49481e-17
-2.9564e-17
-4.18781e-18
-3.98237e-17
8.69608e-18
1.42023e-17
-2.84325e-17
3.97729e-17
3.19916e-18
-4.87764e-17
-2.56259e-17
-2.61441e-17
-6.64894e-17
-2.6796e-17
-2.91578e-17
-3.85024e-17
1.55958e-17
2.94662e-17
4.01272e-17
-1.53958e-18
-4.4731e-18
6.78982e-18
-2.65766e-18
1.1936e-17
1.48138e-19
1.81574e-18
5.69421e-18
4.07583e-17
4.09522e-18
-6.11508e-18
5.96369e-18
-4.61745e-17
-3.83801e-17
-1.6894e-17
-4.28458e-17
-5.80521e-17
-1.48267e-17
2.68816e-17
-1.14046e-17
5.4773e-17
1.36543e-17
-6.22467e-17
6.52134e-16
-2.17954e-17
-6.08533e-18
-2.35541e-17
-9.48518e-18
-1.83772e-17
5.97665e-18
-6.85777e-18
-5.32636e-18
-6.83174e-18
4.4709e-18
3.70703e-18
6.50661e-18
-1.13943e-18
2.99618e-18
1.60946e-17
-1.2597e-17
-1.59106e-17
5.63102e-18
1.19859e-17
-1.15463e-17
-1.04762e-17
3.09536e-17
2.74296e-17
1.52397e-17
-3.45313e-17
4.26633e-17
-1.03004e-17
-6.83048e-18
2.89738e-17
7.29705e-17
-1.37696e-17
-1.12075e-17
-2.66959e-17
-2.38956e-17
4.64705e-17
3.1749e-17
2.42885e-17
-2.63111e-17
-7.4171e-18
3.43915e-17
-1.99635e-17
-1.05591e-17
2.544e-17
3.56225e-17
5.94032e-17
4.6072e-18
2.97336e-17
1.48622e-17
-2.20771e-17
-1.2471e-17
-4.07655e-17
-5.94317e-18
-9.46054e-18
4.198e-17
-1.92131e-18
-4.93457e-18
-3.36621e-17
-1.96739e-17
1.84128e-17
7.08018e-18
1.16534e-17
1.09107e-17
-4.64873e-18
2.55157e-17
1.76225e-17
-3.7926e-18
-6.01442e-19
-7.3132e-17
2.07848e-17
-1.61873e-17
1.22185e-17
6.63684e-18
2.39062e-17
4.48057e-17
5.11084e-18
3.21903e-17
-8.68905e-18
8.1854e-17
-2.73579e-17
-1.47941e-17
1.62163e-17
3.04724e-17
-1.21749e-17
3.40168e-18
-6.46456e-18
8.07828e-18
-3.88775e-18
-1.84035e-17
-5.23539e-18
-7.29272e-18
1.20813e-17
1.51262e-18
-3.36749e-17
9.2291e-18
-1.6444e-18
-9.25682e-18
-1.44627e-17
2.08317e-17
-1.61294e-17
1.97464e-17
-1.28668e-17
3.97751e-17
-2.13327e-18
-3.37615e-17
2.19423e-18
-2.31053e-17
2.0527e-17
-9.97866e-19
-3.36276e-17
-1.53463e-17
4.72998e-17
5.38128e-17
3.34075e-17
-4.64527e-15
-7.2061e-15
4.79043e-11
-1.15837e-14
4.79372e-11
-7.69777e-18
-1.21989e-18
-4.5341e-17
7.27311e-19
3.99299e-17
-4.61214e-17
-5.72385e-18
3.94534e-17
-3.46627e-17
7.0737e-18
-1.63308e-18
-2.60181e-19
8.4797e-18
3.44383e-18
7.31475e-18
-8.10811e-19
-3.34983e-18
-2.65438e-17
-3.29954e-17
-1.59311e-18
-3.0965e-17
1.13352e-17
-1.15327e-17
5.03298e-18
-1.88278e-18
9.71755e-18
2.203e-17
-2.29094e-18
4.79455e-11
-5.4742e-12
-1.99366e-14
-4.04509e-14
-9.71507e-15
1.02013e-09
-1.18423e-13
1.02097e-09
3.10888e-17
-1.80089e-17
-6.00951e-17
-1.40531e-17
1.61143e-17
1.20618e-17
-8.08475e-17
-1.28762e-17
-4.34497e-17
1.79039e-17
1.61597e-17
7.77419e-18
-3.99528e-17
3.54821e-17
-7.38071e-18
1.66447e-17
1.41759e-17
2.01222e-17
2.11384e-18
1.40929e-17
1.58265e-17
1.89599e-17
1.00594e-17
3.95294e-17
4.27975e-17
-1.26751e-17
9.66366e-18
2.05439e-17
3.64455e-18
-1.57716e-17
8.65084e-19
-3.5736e-18
4.9041e-18
7.35934e-18
2.7494e-17
-4.18883e-17
-1.34731e-17
-2.93436e-17
-4.34627e-18
-2.14129e-17
-1.98107e-17
-3.89931e-17
-6.06901e-18
9.78783e-19
1.30352e-17
2.79463e-18
2.99902e-19
-4.35714e-18
-2.66307e-18
-1.77398e-17
1.50113e-19
-1.62086e-17
-2.99439e-17
2.40713e-17
1.34296e-17
2.47012e-17
-2.36935e-17
5.65276e-17
-5.97077e-17
1.73207e-18
-6.66574e-18
-7.67137e-17
-1.02948e-16
-1.30299e-18
-8.97491e-17
2.37965e-17
-4.01004e-18
-4.2405e-17
-2.50159e-17
1.01305e-17
-1.56848e-17
3.5323e-18
8.67762e-18
3.57702e-18
4.87857e-18
2.61222e-17
2.73489e-17
1.76463e-17
-1.26669e-18
-1.47393e-17
-2.05309e-17
-3.23089e-17
-1.63229e-17
3.82903e-17
-8.25275e-18
1.29287e-17
-2.06175e-18
1.13567e-17
-1.8655e-17
-5.34319e-17
3.78645e-17
-1.13703e-17
-8.54167e-18
-5.39554e-17
1.39199e-18
-1.52776e-17
3.00314e-17
-3.06072e-17
-3.27494e-17
-3.46857e-18
1.26102e-17
1.78905e-17
-1.06642e-17
-6.09998e-18
-1.00123e-17
1.82319e-17
-9.87986e-18
-2.02201e-17
-3.40687e-17
3.26251e-18
-2.4185e-17
2.15173e-17
2.26977e-17
2.25102e-17
6.0968e-18
-2.8748e-17
3.72136e-17
-5.53146e-17
-7.62296e-18
-2.93442e-17
2.60272e-17
7.29298e-18
-4.28741e-17
3.21506e-17
1.74541e-17
-3.64717e-17
3.90946e-17
-1.92916e-17
6.65654e-17
-2.34799e-17
2.1975e-13
-1.97676e-14
-1.47816e-17
-4.53664e-16
6.41949e-16
-4.03862e-18
6.17466e-17
1.02073e-17
2.11623e-17
2.36152e-17
4.76303e-17
3.49451e-17
2.2226e-17
-3.77031e-17
-6.11224e-18
1.88583e-17
1.77606e-17
-7.54775e-18
2.81894e-17
3.41523e-17
4.2094e-17
4.80082e-11
-5.4813e-12
-1.8503e-14
5.50445e-14
-1.1517e-13
1.02155e-09
1.02027e-09
1.37951e-17
2.13007e-17
-4.31007e-17
-1.59774e-17
-2.62914e-17
-4.61349e-17
-3.02039e-17
-2.83861e-17
-4.76728e-17
-1.14348e-17
-1.73672e-17
1.19048e-17
-3.67686e-19
-3.89959e-17
3.71027e-17
-2.0639e-17
1.06898e-17
2.23914e-17
-2.55331e-17
5.37561e-18
1.6025e-17
4.50628e-17
4.64841e-18
-1.8568e-17
-1.29831e-17
-6.4578e-17
-9.87267e-18
-7.76608e-18
-2.93209e-17
6.5805e-16
-3.28748e-18
7.569e-18
-1.98226e-14
2.20184e-13
-2.45201e-17
-1.60028e-17
-4.15109e-16
-9.97482e-18
-1.03001e-17
8.13855e-18
-1.04342e-18
-3.8074e-18
9.86491e-18
1.66898e-17
-7.33871e-18
1.88793e-17
5.06719e-18
-4.12674e-18
-1.70106e-18
-1.78477e-17
5.00576e-19
-1.62972e-17
1.04351e-17
-7.6713e-18
-3.30274e-17
-4.69102e-18
1.06729e-17
-1.10559e-18
-3.87871e-17
2.5194e-17
3.27969e-18
-6.60427e-17
2.09402e-17
1.77168e-17
2.61294e-17
3.21339e-17
-2.57512e-18
-1.17266e-18
-8.78063e-18
-4.93423e-17
-2.24698e-17
-2.38526e-17
-1.11274e-17
5.23916e-19
1.37135e-17
8.68596e-18
3.18484e-19
5.8582e-19
-5.59423e-17
2.97769e-17
3.1361e-17
3.9601e-17
5.74998e-17
3.97007e-17
-8.10022e-20
7.81541e-18
6.67385e-17
1.40013e-17
4.26905e-19
2.58594e-17
2.3914e-17
-8.92349e-18
1.76253e-17
3.16451e-17
-3.9719e-17
3.34711e-17
2.42483e-17
9.04507e-18
3.27598e-17
3.13988e-17
-1.26175e-17
-8.67139e-19
3.20261e-17
1.94756e-17
1.92695e-17
2.47041e-17
-1.22989e-17
3.25117e-18
-7.58912e-18
1.71037e-18
2.85672e-17
9.58192e-19
2.88373e-17
3.02805e-18
7.48033e-18
2.53756e-17
1.69295e-17
-7.05548e-18
2.43617e-18
-1.24231e-18
-4.09853e-17
-2.79445e-17
-2.55515e-17
-6.79095e-17
-4.63779e-17
-1.35188e-17
-9.09651e-18
-5.0642e-17
-3.34148e-17
8.87228e-17
2.18892e-19
7.32052e-17
1.15959e-20
4.01045e-17
-5.19108e-17
-6.96282e-18
-4.03893e-17
6.05579e-19
-7.27878e-18
-9.44634e-18
-1.74834e-17
3.15696e-18
6.05891e-18
3.68623e-18
-2.72458e-17
-4.09575e-17
-2.79572e-17
-6.71705e-18
1.2826e-17
-1.54028e-18
1.20475e-17
1.56704e-17
-1.2593e-17
2.23063e-17
-5.26514e-18
-2.02123e-17
-1.41921e-17
-1.46022e-17
-2.98295e-17
-1.72803e-17
-2.55607e-17
-3.07518e-17
1.70844e-18
-2.31188e-17
-2.03305e-17
-4.40457e-19
1.54719e-18
-1.23432e-17
-2.71974e-18
-1.68221e-17
-3.82713e-17
4.80796e-11
-5.48598e-12
-2.25042e-14
1.02375e-09
-1.45624e-13
-3.16967e-18
-9.04112e-18
-1.4847e-17
5.01097e-18
1.41745e-17
8.34048e-19
8.71046e-18
9.35257e-18
2.06678e-17
-5.56191e-18
2.19464e-17
3.70697e-17
2.75877e-17
4.59938e-17
5.5585e-18
-7.73757e-18
-2.49901e-17
-2.23279e-18
6.50488e-18
-5.46935e-18
-2.73432e-17
-2.84088e-17
-6.00505e-17
-6.13605e-17
-5.36207e-17
-4.56362e-17
-1.41482e-19
-2.12764e-17
2.16242e-18
-1.27515e-17
9.56808e-18
2.82047e-17
-3.0498e-17
2.28008e-17
2.31693e-17
4.90738e-17
9.05942e-18
-5.6924e-18
3.57699e-17
3.70398e-17
3.23998e-18
-1.48847e-17
-2.20325e-17
1.37984e-17
-1.58397e-17
-3.28052e-17
-1.22062e-17
-1.51516e-17
1.62288e-17
-1.0825e-17
-3.35115e-17
-1.77218e-17
1.26768e-17
-4.78661e-17
-2.7274e-17
1.78739e-17
-7.67207e-18
4.81355e-11
-5.49296e-12
-1.93987e-14
1.0245e-09
-1.23688e-13
1.19998e-17
2.16413e-18
-2.97622e-19
1.79064e-17
2.96469e-18
1.67503e-17
-2.50908e-17
-5.96533e-18
1.77432e-17
1.32659e-17
1.36454e-17
-1.97244e-17
1.41411e-17
1.05544e-17
-1.16008e-17
-2.58118e-17
5.24229e-17
-9.79915e-18
5.11117e-18
-3.61488e-17
-6.21041e-18
-9.90526e-18
2.50057e-17
-4.33436e-17
3.41939e-17
1.8099e-17
1.47565e-17
6.01057e-18
-3.01623e-17
-1.70363e-17
-3.12232e-17
-8.80411e-20
-6.34663e-19
-2.30337e-18
1.72306e-18
3.18875e-17
-5.71359e-18
-3.26972e-17
-5.8103e-18
3.30958e-17
-1.21435e-18
-1.31613e-17
-2.70444e-17
-1.49965e-17
6.52532e-18
-3.7678e-18
-9.68596e-18
-2.48526e-17
-1.12369e-17
3.86925e-17
1.78078e-17
-3.44777e-18
1.47227e-17
-1.82737e-17
9.54441e-18
-6.94116e-17
-7.70581e-17
-2.63121e-17
-1.95567e-17
-2.71183e-17
3.83537e-18
5.63664e-18
5.53684e-18
1.4148e-17
6.8585e-18
-5.49055e-18
4.1879e-18
-2.05735e-17
2.84191e-18
2.36811e-18
-8.84921e-18
1.64662e-17
-8.06464e-18
4.89786e-17
2.10856e-17
5.57843e-17
-4.6079e-19
-4.15101e-17
8.84194e-18
-3.43757e-18
3.5141e-17
1.09842e-17
-4.36454e-17
2.09644e-17
2.70911e-17
-2.52678e-17
3.29946e-17
1.42611e-17
1.56656e-17
1.88207e-17
-3.16387e-17
3.88915e-17
-1.06108e-17
-2.88157e-17
1.06306e-17
-1.08398e-17
3.53569e-17
7.09312e-18
1.58113e-18
-1.96191e-17
-5.79533e-17
-7.93028e-18
8.23946e-18
3.16532e-17
2.24665e-17
7.88331e-18
-3.35443e-17
1.25082e-17
3.41673e-17
8.2768e-18
2.02775e-17
1.42105e-17
-1.25669e-17
-1.72554e-17
-6.64217e-17
-2.22251e-17
9.39695e-18
2.56727e-17
3.87157e-17
-4.33172e-17
-7.0764e-18
2.18045e-18
3.06138e-17
-7.6398e-18
6.55662e-17
2.54885e-17
3.20326e-17
-2.4127e-17
-1.20898e-17
2.61764e-17
-1.41552e-17
6.14135e-18
-3.48758e-17
-2.55973e-17
-3.83778e-17
4.9708e-18
6.04017e-17
9.07156e-18
1.58407e-17
-3.96392e-18
2.21952e-17
2.20148e-13
-1.97611e-14
1.57545e-17
-5.57275e-16
6.09057e-16
-3.09607e-17
-4.09027e-18
-3.19213e-17
2.43674e-17
1.19939e-17
1.96509e-17
-2.09411e-18
2.6143e-17
-8.21955e-18
-8.91064e-18
-3.43355e-17
2.99646e-17
2.32557e-17
4.82606e-17
4.14029e-18
1.74285e-17
-3.20505e-13
-1.73927e-12
6.88552e-09
1.98449e-12
-3.06162e-12
6.89711e-09
6.88715e-09
-5.2202e-18
-1.84149e-18
3.13363e-12
6.91181e-09
-4.31246e-12
6.89419e-09
-1.08715e-17
-1.97342e-17
-2.98296e-19
-1.68783e-17
1.49428e-17
-4.48481e-18
-1.50679e-17
-5.70572e-18
5.96286e-18
-2.78801e-18
-1.96148e-17
-1.3526e-17
-3.0402e-17
-7.11256e-18
-3.54236e-17
-4.45719e-17
-8.8287e-18
2.79254e-17
5.26494e-17
2.09524e-17
1.83146e-17
-2.53182e-18
-3.32238e-17
-8.78894e-18
-3.39899e-17
3.76201e-17
-7.36578e-18
-4.94737e-17
-8.12927e-19
1.72588e-17
-2.29849e-17
6.46903e-16
4.52105e-17
6.91923e-17
-1.9863e-14
2.20658e-13
-7.43071e-18
5.74537e-17
-4.22864e-16
2.29169e-17
-1.01775e-17
3.79319e-18
-1.89698e-17
-1.58546e-17
-2.02866e-17
-1.91589e-17
-1.97724e-17
-1.18332e-17
-1.5229e-17
1.5895e-17
-1.09744e-17
-1.59917e-17
-1.70766e-17
-1.74078e-17
4.19544e-18
-2.79863e-17
-1.87164e-17
-1.97455e-17
1.48213e-17
2.63462e-17
1.66426e-17
2.58584e-17
-7.19792e-18
1.23319e-18
2.54106e-17
-9.3988e-18
-4.05927e-18
5.09702e-18
-1.97457e-17
-1.65815e-17
-3.78854e-17
-2.43678e-17
-3.73369e-17
-3.04528e-17
2.90367e-17
-2.7755e-17
-3.02912e-17
-4.81869e-17
4.29606e-17
-1.57291e-17
8.68691e-18
-1.70192e-17
-2.12771e-17
-4.04879e-17
-9.20919e-18
-7.64093e-17
2.57547e-18
8.64392e-18
-6.24325e-17
1.0842e-19
-1.03251e-17
1.56198e-17
2.71167e-18
2.45708e-17
8.96478e-18
4.77298e-17
7.05212e-17
6.3983e-17
-1.56178e-17
-5.36564e-17
4.88672e-17
-8.46948e-18
-3.72494e-17
2.33343e-17
-7.74784e-17
-1.31373e-17
5.27685e-18
3.06534e-17
1.37138e-17
-2.13153e-17
2.98284e-17
3.19693e-17
-4.34222e-17
-1.12553e-17
6.3562e-18
1.88594e-18
-4.52511e-17
-3.20243e-17
-1.13824e-17
-1.08418e-17
-1.84653e-17
1.03712e-18
-8.75332e-18
4.2026e-17
6.51732e-18
-2.46662e-18
-1.50373e-17
1.93136e-17
-7.49456e-18
-9.54365e-18
-1.50686e-17
1.26449e-17
3.30473e-17
4.13287e-17
6.26634e-17
1.91683e-17
-9.49888e-18
-4.93676e-17
-1.99568e-17
-6.1252e-18
-1.76702e-17
-5.1797e-17
-6.10668e-17
8.31319e-18
9.28627e-18
-2.02382e-17
8.4972e-18
4.12416e-17
-2.24453e-17
8.51463e-17
2.01825e-17
4.26343e-17
1.42429e-17
-4.53539e-17
5.42101e-20
-5.97907e-17
-4.52616e-17
2.22538e-17
-9.78315e-18
8.39605e-17
4.43392e-18
-4.00018e-17
1.45562e-17
3.63101e-18
-2.66708e-17
-5.4481e-18
-2.17446e-17
4.01455e-17
8.31718e-17
1.5641e-17
6.94889e-17
-1.89723e-17
-3.63103e-17
3.40471e-17
-7.2187e-18
3.30308e-17
1.89534e-18
1.18865e-17
-1.34848e-18
-5.50646e-19
6.59701e-19
4.04448e-18
2.96823e-18
1.0284e-17
6.57339e-18
-7.21001e-18
9.43211e-18
6.83191e-18
2.38186e-17
6.69765e-18
-4.33118e-17
5.82583e-19
-2.69484e-17
1.46198e-17
-3.47266e-17
1.80806e-17
1.98998e-17
1.33479e-17
1.02968e-18
2.33387e-18
-8.35617e-17
-1.88165e-17
2.15404e-17
7.70731e-18
2.81679e-17
1.50413e-17
-3.32342e-18
2.46383e-17
1.20187e-17
9.49914e-18
-1.33987e-17
2.29016e-18
-1.48544e-17
-1.326e-17
6.27536e-18
2.44755e-17
2.72406e-18
1.99153e-17
-7.78979e-17
-2.03769e-17
7.52302e-18
1.21893e-17
1.12669e-17
9.00558e-18
-1.13028e-17
1.50656e-17
4.1079e-17
-1.89216e-17
4.04353e-17
-1.50334e-17
1.0087e-17
1.58168e-17
-1.1342e-17
4.29074e-17
2.67139e-17
1.45532e-17
1.5224e-17
1.08912e-17
2.43528e-17
3.07829e-17
1.39036e-17
5.39428e-18
-1.27484e-17
-1.91346e-17
-4.10481e-12
6.9148e-09
1.1581e-18
-2.58377e-17
-2.66983e-17
-2.48343e-17
-2.90371e-17
-2.73517e-17
-1.01098e-17
-3.58961e-17
3.84777e-17
2.55113e-17
-5.72498e-18
-1.33859e-17
-2.85791e-17
4.29198e-18
5.28867e-18
-5.93746e-18
4.10307e-17
-1.04359e-17
-1.84064e-18
8.10466e-18
-9.32157e-18
2.76476e-17
-2.82281e-17
-1.56906e-17
3.49459e-18
-8.2194e-18
-2.39174e-17
1.21431e-17
-6.8468e-18
3.36382e-17
3.83608e-17
-1.09708e-17
-1.64104e-17
-5.61061e-18
4.66873e-18
-7.56242e-18
-4.22618e-17
4.31892e-18
-5.17339e-17
-8.65329e-18
-9.55116e-18
4.75797e-17
3.30485e-17
-1.73497e-17
2.07497e-19
3.38505e-17
-1.77578e-17
-5.73741e-18
-2.13866e-17
-1.94614e-17
-3.22737e-17
5.50584e-18
6.69214e-18
-1.21598e-17
4.19745e-18
-5.98152e-18
5.97666e-18
-2.47588e-17
1.93011e-18
-2.08136e-17
-6.39302e-18
-3.0441e-17
1.28071e-18
3.09971e-17
7.5445e-18
-5.53036e-18
1.15304e-17
9.21572e-19
-1.42974e-17
-2.96347e-17
-1.88277e-18
2.28497e-17
-2.22261e-18
-1.74973e-17
-1.72263e-17
-2.47361e-17
2.6143e-17
8.21192e-18
-1.1055e-11
8.6721e-12
1.17829e-07
6.9361e-09
-1.02738e-09
-4.4347e-12
-1.32435e-11
1.1813e-07
-7.08849e-18
1.26171e-17
2.06126e-17
1.82153e-17
-2.37678e-17
-7.25967e-18
1.5971e-18
-6.2281e-18
4.15322e-18
5.5568e-18
-2.11321e-17
1.46776e-17
5.332e-17
-2.12493e-17
-2.07289e-17
-4.93718e-17
1.27286e-17
2.76827e-17
-1.35488e-17
-2.44801e-17
-9.15837e-18
-2.90701e-17
2.41832e-17
8.33539e-18
-4.60726e-18
-1.12432e-17
6.51746e-17
-5.83843e-17
3.49891e-17
-3.68939e-17
-3.34737e-17
6.80541e-17
4.3113e-17
4.76101e-17
-1.08699e-17
1.63106e-17
8.94078e-19
-9.88372e-18
-4.40596e-18
1.00407e-17
3.43018e-17
2.32205e-17
1.95444e-18
2.64917e-17
2.95644e-18
9.81899e-18
-6.85845e-18
6.07028e-19
4.98598e-17
-3.17348e-17
1.44618e-17
3.57039e-17
2.47807e-17
-1.16507e-18
3.48309e-18
-4.71771e-17
-4.46434e-17
-1.25767e-17
-1.11267e-17
3.19842e-18
-5.76932e-18
2.2092e-18
-3.34032e-17
-2.88568e-17
-2.21025e-17
1.45049e-17
2.04428e-17
-3.3645e-17
2.60814e-17
3.22747e-17
-2.52348e-17
5.31655e-17
3.76744e-17
3.587e-17
-1.07403e-17
-4.76746e-18
-3.91288e-17
4.30735e-18
-4.94316e-17
1.24787e-19
1.93355e-17
2.78013e-17
1.23989e-17
-2.99387e-17
3.85117e-17
1.17021e-17
2.75085e-17
-1.65654e-17
-5.12456e-17
7.27394e-18
2.01497e-17
2.36884e-17
-1.47128e-17
-3.90988e-17
1.1191e-17
-3.60982e-17
3.51642e-17
1.77191e-17
4.2665e-17
1.39164e-17
-1.85296e-17
2.97901e-17
-2.62384e-17
4.10887e-17
1.83508e-17
-1.18824e-17
-3.30839e-18
-5.18964e-17
-7.27087e-18
3.01753e-17
-5.46285e-18
1.82444e-17
2.36547e-17
-1.74813e-17
-5.38375e-18
-3.83974e-17
-1.53693e-17
4.82391e-11
-5.50082e-12
-2.1865e-14
-1.26297e-13
2.20708e-13
-1.9854e-14
-2.65089e-17
-5.19672e-16
6.27245e-16
2.50045e-17
1.61268e-17
5.17082e-17
-2.03112e-19
-4.93111e-17
-3.70464e-17
-7.12174e-19
2.91513e-17
2.35206e-17
5.36409e-17
8.86365e-18
-4.88635e-17
7.42001e-18
-3.5406e-17
1.06791e-17
1.11943e-17
-3.56027e-17
-1.09776e-17
-7.08661e-17
-8.09696e-18
2.97478e-17
1.0842e-17
3.32033e-17
-7.81715e-12
4.58873e-12
1.17613e-07
6.93787e-09
-1.02782e-09
-4.18287e-12
1.10596e-11
-1.14571e-11
1.18132e-07
1.1782e-07
-2.09059e-12
-4.57578e-12
1.17475e-07
1.17516e-07
1.17591e-07
6.05798e-18
-2.0556e-17
-2.1684e-18
4.06364e-17
-1.40376e-17
-4.33398e-17
1.83143e-17
4.30628e-17
-3.66829e-17
2.38389e-17
-5.36211e-18
6.53841e-17
-2.12891e-17
-5.61893e-17
-5.09288e-17
4.41063e-17
6.42852e-18
3.79244e-17
4.9297e-17
4.17375e-17
2.07075e-17
5.16838e-17
6.09306e-18
-1.46492e-17
5.29183e-18
-1.5816e-17
-2.36361e-17
-8.43722e-17
-4.7542e-17
6.46191e-16
-6.57459e-18
3.70861e-17
-1.98476e-14
2.21035e-13
-3.45272e-17
-3.94262e-18
-5.5059e-12
4.82763e-11
-1.75434e-14
-3.74205e-16
-1.04824e-13
-4.39612e-18
5.84334e-18
-5.17434e-18
-3.41223e-17
6.28677e-18
-4.08778e-18
-2.40434e-17
-1.60339e-17
-4.92888e-18
-1.49356e-18
-8.40761e-18
-4.80437e-18
1.07743e-17
1.23457e-17
1.60464e-17
1.13892e-17
-1.55451e-17
-1.75368e-17
-3.28643e-18
6.18561e-18
1.29292e-17
-1.20765e-17
9.70194e-18
2.0707e-17
-3.1969e-17
1.68321e-17
-1.41275e-17
1.40344e-17
3.28107e-17
-4.37673e-18
9.57535e-18
-3.93761e-17
1.24943e-17
-1.19948e-17
1.79953e-17
3.71122e-17
-2.59658e-17
1.78206e-17
1.1385e-17
-8.74809e-18
2.91855e-17
4.26492e-17
-7.00683e-18
-4.20671e-17
-4.54323e-17
9.21216e-18
-3.13729e-17
9.40545e-18
1.34789e-17
5.99896e-18
-1.18176e-18
-3.39829e-17
4.10726e-17
-9.99777e-18
2.70571e-17
4.63833e-18
6.59889e-17
3.07529e-17
7.01709e-17
3.29594e-17
-5.53689e-17
-2.91601e-17
-6.6529e-17
3.93819e-17
-5.0641e-17
-3.77805e-18
-8.76393e-17
-1.52612e-17
1.95812e-17
5.96311e-19
-4.16846e-17
-4.37632e-18
3.83367e-17
2.3408e-17
4.17949e-17
1.14257e-17
3.9413e-18
3.86692e-17
-2.14023e-17
-2.69726e-18
-3.72179e-17
-2.67927e-17
-1.39569e-17
-4.29989e-17
4.44554e-17
-2.83344e-17
-1.29632e-17
-6.25286e-17
2.83007e-17
4.04953e-17
-1.67611e-17
-4.14977e-17
1.18472e-19
-3.83094e-18
7.21776e-18
-9.80088e-18
4.07266e-17
-4.3619e-18
5.86552e-17
3.6721e-17
-5.83846e-17
5.14552e-17
-3.90048e-18
3.5502e-17
1.68499e-17
2.21166e-17
1.49476e-17
-3.14397e-17
5.29444e-18
-4.0767e-17
-2.94707e-17
-4.86216e-17
1.40426e-17
1.37765e-17
8.04237e-17
-5.19941e-17
1.34606e-17
1.6277e-17
1.18924e-18
-1.09967e-17
3.63253e-19
1.98968e-17
-1.47608e-17
-2.1799e-17
8.03486e-18
2.20873e-18
-6.9398e-18
-2.0182e-17
-1.08948e-17
-1.96364e-18
8.612e-18
-5.37869e-17
-5.3855e-17
-5.86757e-18
-2.66132e-17
-3.57652e-17
-5.49007e-18
-1.31713e-17
-4.54617e-17
9.8596e-18
4.60219e-18
1.91365e-18
7.63004e-18
1.11419e-17
8.04513e-18
1.12744e-17
1.49397e-17
4.40182e-18
1.99377e-18
9.65085e-19
1.44884e-18
2.66567e-18
1.3965e-17
-3.49217e-17
-3.19334e-18
-4.38431e-17
-3.16741e-17
-4.23248e-18
2.80103e-17
2.95169e-17
1.6845e-17
5.88779e-17
-2.20041e-17
-5.0009e-18
-1.20822e-17
6.64196e-18
5.07274e-17
-1.91145e-17
-1.25387e-17
-3.61784e-17
-1.37897e-17
-1.02322e-17
2.49342e-17
-2.77098e-17
2.79189e-17
3.1471e-17
3.32777e-17
-2.06688e-17
2.4977e-17
3.40695e-17
1.06426e-17
-4.35142e-18
4.36812e-17
3.80048e-18
1.8667e-17
6.9615e-09
-1.03084e-09
-3.60868e-12
1.18485e-07
-1.1646e-11
-1.88227e-17
1.42922e-17
4.56573e-17
1.1307e-17
1.0394e-17
7.14102e-18
1.02474e-17
3.46141e-17
3.18728e-17
1.81305e-17
6.12254e-18
-1.81527e-17
5.91499e-17
4.64487e-17
-2.53449e-17
4.30079e-17
3.76066e-17
-2.83277e-18
-1.64124e-17
2.87265e-18
6.5205e-18
-7.10611e-18
2.32173e-17
-2.45983e-17
1.74845e-17
-1.49696e-18
8.48106e-18
-3.40922e-17
1.1728e-17
-1.06962e-17
1.2425e-17
5.79901e-18
3.93971e-17
3.02806e-17
3.31642e-17
-1.62389e-17
-2.53992e-19
-1.43928e-17
-9.45997e-18
9.66948e-18
1.30219e-17
-3.3354e-18
9.49257e-20
8.04327e-18
6.96085e-09
-1.03056e-09
-3.58644e-12
1.18494e-07
-1.08687e-11
-3.54923e-10
2.48006e-10
5.95623e-07
-3.96562e-10
5.97236e-07
-1.71765e-17
-2.43954e-18
-2.02031e-17
-9.79853e-18
-9.64665e-18
-7.20198e-19
1.73338e-18
-1.89105e-18
9.03238e-18
-2.60755e-17
-2.64423e-17
2.5137e-18
6.64975e-18
-2.06822e-18
2.19623e-17
-2.43624e-18
4.0605e-19
1.85567e-17
-6.74578e-18
-3.41159e-17
-2.80119e-17
-3.50171e-18
5.32946e-17
1.95317e-17
-1.91942e-17
1.57777e-17
2.9328e-17
-9.42179e-18
3.44856e-17
-2.27129e-17
-9.13165e-18
-2.502e-17
3.25543e-17
1.95002e-17
-1.91451e-17
6.93212e-18
3.79132e-17
6.01872e-17
-2.37531e-17
-2.65712e-18
-1.04603e-17
1.25425e-17
-1.43308e-17
-9.38496e-18
5.44959e-18
2.03005e-17
-1.3546e-17
-1.95834e-18
-2.36085e-17
1.3838e-17
-5.52943e-18
-1.01503e-17
2.64267e-18
-2.69695e-18
1.06032e-18
8.36647e-18
1.59036e-17
1.90642e-17
5.05283e-18
2.49993e-17
-6.65462e-18
-5.56318e-17
-2.89342e-17
-2.03672e-17
-1.98484e-17
-7.739e-18
-1.08215e-17
-2.54766e-18
1.10107e-17
4.45205e-17
5.78693e-18
1.64918e-17
9.60792e-18
-1.8247e-17
1.95727e-17
-2.1491e-17
-3.22657e-18
-9.65188e-18
1.25286e-17
-1.98812e-17
6.03321e-20
2.13391e-17
-1.12353e-17
1.5558e-17
-4.82214e-17
-1.26349e-17
1.31955e-17
3.40332e-17
2.08337e-17
4.85127e-17
-1.65513e-17
4.32433e-17
1.49109e-17
2.74301e-17
5.40101e-17
-4.03992e-17
-2.24815e-17
-3.90247e-18
2.97478e-18
3.50312e-17
3.01736e-17
6.83699e-18
3.57459e-17
7.13677e-17
2.74277e-17
-2.69922e-17
-2.69306e-17
-5.20889e-17
-1.43605e-17
-3.82757e-17
-2.17598e-17
-2.97228e-17
1.56667e-17
2.18295e-17
1.18561e-17
1.63167e-17
-1.5327e-18
5.02468e-17
-2.02677e-19
4.2658e-17
-1.34453e-17
-4.96454e-17
1.38551e-17
-8.18007e-18
3.72671e-17
4.32368e-17
1.39312e-17
3.88093e-17
-7.69646e-18
-9.60036e-18
-1.82966e-17
3.03149e-17
-5.09e-17
4.78676e-18
4.83945e-11
-5.5155e-12
-1.7846e-14
-1.0336e-13
2.21291e-13
-1.98625e-14
-5.94643e-17
-4.5465e-16
6.3705e-16
-4.85115e-17
-5.43342e-17
-2.7307e-18
5.79103e-17
2.20772e-17
-3.47631e-18
-3.77582e-17
-4.0814e-17
-1.99496e-17
-1.55184e-17
2.33178e-17
6.46798e-17
-2.92943e-17
1.72316e-17
-4.89115e-17
-4.10911e-17
5.40001e-17
3.29186e-17
7.0881e-18
-8.73449e-18
-4.33553e-17
-8.01632e-17
-1.22921e-17
-2.68931e-10
1.05854e-10
5.94536e-07