/*--------------------------------*- C++ -*----------------------------------*\
| =========                 |                                                 |
| \\      /  F ield         | OpenFOAM: The Open Source CFD Toolbox           |
|  \\    /   O peration     | Version:  2212                                  |
|   \\  /    A nd           | Website:  www.openfoam.com                      |
|    \\/     M anipulation  |                                                 |
\*---------------------------------------------------------------------------*/
FoamFile
{
    version     2.0;
    format      ascii;
    arch        "LSB;label=32;scalar=64";
    class       volScalarField;
    location    "0.018";
    object      T;
}
// * * * * * * * * * * * * * * * * * * * * * * * * * * * * * * * * * * * * * //

dimensions      [0 0 0 1 0 0 0];

internalField   nonuniform List<scalar> 
2308
(
197.853
186.924
232.31
173.142
182.856
178.493
176.559
180.731
184.459
151.969
153.847
156.533
158.438
160.356
162.248
164.106
165.91
167.464
165.766
163.975
162.085
160.146
158.161
156.111
154.063
152.007
150.001
147.977
176.873
167.667
145.87
143.828
141.808
139.801
137.804
135.814
133.825
131.836
129.844
127.853
125.862
123.872
121.883
119.893
117.903
117.903
119.89
121.876
123.865
125.853
127.84
129.828
131.818
133.804
135.791
137.782
139.774
141.776
143.79
145.827
147.911
149.858
151.763
153.589
155.322
157.015
158.785
160.633
162.496
164.344
166.174
115.917
115.909
165.966
164
162.026
160.036
158.024
156.002
153.984
151.934
149.885
147.882
145.853
143.825
141.812
139.81
137.813
135.821
133.827
131.835
129.843
127.851
125.86
123.87
121.88
119.891
117.903
169.133
115.914
169.36
167.977
115.888
117.879
119.867
121.855
123.842
125.831
127.821
129.813
131.799
133.787
135.775
137.763
139.753
141.746
143.748
145.749
147.738
149.686
151.639
153.539
155.395
157.223
159.052
160.904
162.769
164.627
166.473
182.135
177.779
176.111
177.126
168.294
166.172
164.056
162.012
159.985
157.96
155.936
153.914
151.88
149.838
147.835
145.827
143.815
141.808
139.809
137.813
135.819
133.827
131.833
129.84
127.847
125.857
123.865
121.874
119.886
117.899
115.911
113.922
113.927
113.929
113.917
181.853
113.899
183.54
184.278
169.74
186.543
181.471
170.951
168.326
111.933
111.936
111.937
111.924
111.91
111.894
113.882
115.873
117.86
119.849
121.835
123.824
125.814
127.805
129.795
131.784
133.773
135.761
137.749
139.738
141.727
143.717
145.702
147.671
149.612
151.566
153.501
155.443
157.368
159.256
161.141
163.026
164.907
166.773
172.485
200.945
181.346
180.374
178.334
176.369
174.361
172.318
170.252
168.178
166.117
164.049
161.991
159.951
157.92
155.893
153.867
151.839
149.811
147.805
145.805
143.803
141.803
139.807
137.811
135.817
133.823
131.829
129.835
127.844
125.852
123.858
121.869
119.881
117.892
115.904
113.916
111.927
248.544
185.271
203.913
171.169
223.578
185.298
170.174
172.655
111.881
113.87
115.857
117.847
119.833
121.821
123.811
125.802
127.793
129.782
131.772
133.762
135.75
137.738
139.725
141.711
143.691
145.665
147.624
149.57
151.524
153.48
155.454
157.432
159.39
161.33
163.247
165.147
167.044
168.643
187.766
184.382
180.464
178.276
176.244
174.217
172.179
170.131
168.082
166.037
163.992
161.948
159.914
157.885
155.86
153.835
151.81
149.79
147.785
145.787
143.792
141.798
139.802
137.809
135.813
133.819
131.823
129.831
127.838
125.844
123.853
121.864
119.874
117.884
115.896
113.907
111.92
109.932
109.937
109.942
109.944
109.942
109.935
109.921
109.907
109.894
207.081
229.677
271.129
187.013
196.088
271.999
168.924
170.514
189.383
188.903
197.177
179.957
180.226
178.175
176.124
174.086
172.052
170.018
167.986
165.955
163.924
161.894
159.868
157.846
155.825
153.805
151.785
149.772
147.77
145.774
143.784
141.792
139.798
137.803
135.808
133.813
131.82
129.826
127.831
125.839
123.849
121.857
119.865
117.876
115.887
113.899
111.912
109.925
107.937
107.943
107.948
107.948
107.95
107.952
107.942
107.93
107.92
107.908
107.898
109.884
111.872
113.859
115.848
117.835
119.823
121.812
123.802
125.793
127.783
129.773
131.762
133.751
135.739
137.725
139.709
141.691
143.667
145.635
147.593
149.545
151.501
153.468
155.449
157.435
159.44
161.433
163.403
165.343
167.268
189.226
170.774
172.383
174.547
190.848
190.503
188.686
187.023
185.282
182.305
182.15
180.143
178.064
175.999
173.954
171.925
169.902
167.884
165.867
163.849
161.831
159.815
157.801
155.788
153.776
151.765
149.757
147.758
145.765
143.774
141.781
139.788
137.794
135.8
133.806
131.813
129.818
127.826
125.835
123.843
121.849
119.859
117.867
115.879
113.892
111.904
109.917
107.93
105.944
105.949
105.953
105.955
105.958
105.956
105.956
105.948
105.941
105.931
105.922
105.913
105.905
107.892
109.878
111.865
113.853
115.841
117.829
119.818
121.807
123.797
125.786
127.776
129.764
131.753
133.74
135.727
137.712
139.694
141.672
143.646
145.612
147.571
149.527
151.486
153.461
155.441
157.43
159.439
161.459
163.481
165.484
167.446
169.171
190.944
190.754
265.725
171.03
186.387
188.386
190.26
174.081
178.462
174.715
172.586
192.306
192.212
103.955
103.958
103.962
103.964
103.963
103.963
103.961
103.956
103.949
103.942
103.934
103.925
103.917
103.91
105.898
107.886
109.873
111.862
113.85
115.838
117.826
119.815
121.804
123.792
125.781
127.769
129.757
131.744
133.73
135.715
137.698
139.679
141.656
143.628
145.594
147.555
149.514
151.476
153.452
155.434
157.421
159.433
161.45
163.479
165.525
167.562
169.384
182.742
192.569
176.434
230.814
180.065
177.933
175.853
173.811
171.791
169.78
167.777
165.774
163.769
161.764
159.758
157.752
155.748
153.744
151.74
149.74
147.743
145.751
143.76
141.768
139.775
137.782
135.789
133.797
131.803
129.811
127.819
125.827
123.835
121.843
119.85
117.86
115.873
113.884
111.896
109.91
107.924
105.937
103.95
192.328
192.555
245.448
174.323
194.184
172.86
103.903
105.893
107.88
109.87
111.858
113.847
115.836
117.824
119.812
121.8
123.788
125.776
127.763
129.749
131.735
133.72
135.703
137.684
139.663
141.639
143.612
145.579
147.542
149.504
151.47
153.447
155.422
157.413
159.421
161.437
163.465
165.516
167.6
169.569
181.296
194.065
101.961
101.964
101.967
101.97
101.97
101.969
101.969
101.967
101.962
101.957
101.95
101.942
101.935
101.928
101.92
101.913
184.115
193.854
191.697
189.587
187.462
178.578
179.239
185.945
173.83
179.843
177.725
175.669
173.647
171.646
169.655
167.666
165.678
163.687
161.693
159.698
157.701
155.705
153.708
151.712
149.718
147.725
145.734
143.743
141.752
139.76
137.769
135.777
133.785
131.793
129.801
127.81
125.818
123.827
121.835
119.844
117.855
115.864
113.876
111.89
109.904
107.917
105.931
103.944
101.955
242.066
171.277
175.805
193.897
194.312
194.202
179.915
244.902
248.216
177.283
174.7
169.739
177.133
210.261
179.105
239.126
101.908
103.898
105.887
107.877
109.866
111.855
113.843
115.833
117.821
119.809
121.796
123.783
125.77
127.756
129.741
131.725
133.709
135.69
137.67
139.648
141.624
143.597
145.567
147.532
149.496
151.464
153.438
155.415
157.405
159.407
161.419
163.444
165.481
167.53
169.591
182.662
199.249
201.953
99.9658
99.9698
99.9723
99.9755
99.9764
99.9767
99.9769
99.9747
99.9705
99.9671
99.962
99.9556
99.9494
99.9429
99.9357
99.9292
99.9234
99.9172
178.945
195.378
193.037
190.821
188.712
186.697
226.831
199.414
181.37
179.418
177.431
175.444
173.465
171.495
169.526
167.556
165.582
163.604
161.622
159.637
157.65
155.661
153.672
151.682
149.692
147.703
145.713
143.724
141.734
139.744
137.754
135.763
133.773
131.782
129.791
127.8
125.809
123.818
121.828
119.838
117.847
115.859
113.871
111.884
109.897
107.91
105.924
103.937
101.949
99.9602
185.347
171.528
200.341
191.44
193.4
195.422
173.142
195.933
195.857
196.064
239.021
199.826
224.635
174.744
171.268
181.249
245.329
241.86
169.329
167.392
165.403
163.399
161.392
159.39
157.397
155.405
153.431
151.459
149.49
147.521
145.553
143.582
141.609
139.634
137.657
135.678
133.698
131.716
129.733
127.748
125.763
123.777
121.791
119.804
117.817
115.828
113.84
111.851
109.862
107.873
105.883
103.893
101.903
99.9119
238.778
97.9703
97.9746
97.9776
97.9806
97.983
97.9827
97.9828
97.9807
97.9774
97.9745
97.9705
97.9654
97.9603
97.9552
97.949
97.9431
97.9378
97.9316
97.9265
97.9209
183.718
171.821
189.532
249.075
248.926
248.974
248.949
248.856
245.144
241.542
238.099
174.595
235.876
197.453
201.661
200.992
192.734
194.78
196.898
174.988
186.501
244.066
196.666
194.264
192.049
190.03
188.216
185.232
186.836
182.661
180.864
179.01
177.121
175.206
173.277
171.341
169.399
167.448
165.489
163.525
161.554
159.579
157.6
155.618
153.635
151.65
149.665
147.679
145.692
143.705
141.717
139.728
137.739
135.75
133.76
131.77
129.78
127.79
125.8
123.81
121.82
119.83
117.841
115.852
113.864
111.877
109.889
107.903
105.916
103.929
101.942
99.953
97.9641
198.453
196.341
194.237
225.539
195.242
173.456
228.356
193.239
233.389
197.822
197.836
197.495
195.173
196.081
193.98
238.447
197.302
234.362
237.219
203.211
195.821
198.294
241.018
244.855
248.701
169.221
167.275
165.314
163.337
161.351
159.363
157.379
155.397
153.422
151.45
149.479
147.509
145.539
143.568
141.595
139.621
137.644
135.666
133.686
131.705
129.723
127.74
125.756
123.77
121.785
119.798
117.811
115.824
113.836
111.847
109.858
107.868
105.879
103.889
101.898
99.9077
97.9161
189.427
191.154
193.133
195.313
197.688
200.231
220.942
182.087
172.432
190.757
193.12
234.797
235.33
200.643
198.277
173.091
229.828
224.779
183.532
184.706
253.157
239.709
244.614
202.918
95.9745
95.9794
95.9828
95.9854
95.9881
95.9879
95.9874
95.9852
95.9826
95.9802
95.9768
95.9727
95.9687
95.9646
95.96
95.9551
95.9505
95.9447
95.9395
95.9344
95.9298
95.9264
253.059
252.889
252.788
252.73
252.679
252.609
236.306
173.859
187.65
192.233
191.426
178.617
231.991
232.223
199.74
228.085
203.542
199.091
229.137
175.359
272.492
252.878
199.592
184.96
183.612
182.068
180.401
178.647
176.835
174.979
173.095
171.193
169.275
167.345
165.403
163.451
161.491
159.524
157.553
155.577
153.599
151.62
149.638
147.655
145.671
143.685
141.699
139.712
137.724
135.736
133.747
131.758
129.769
127.78
125.791
123.801
121.812
119.822
117.834
115.845
113.857
111.869
109.883
107.895
105.908
103.921
101.933
99.9445
97.9564
95.9681
267.589
214.178
272.262
191.956
235.002
199.54
243.674
186.428
180.019
234.331
182.86
182.24
188.702
190.239
191.995
193.965
196.133
198.497
201.048
203.771
205.775
206.648
180.368
192.761
176.83
185.788
172.838
170.982
169.102
167.179
165.234
163.275
161.306
159.332
157.356
155.381
153.408
151.438
149.468
147.498
145.527
143.556
141.583
139.609
137.633
135.655
133.676
131.696
129.714
127.731
125.748
123.763
121.778
119.792
117.805
115.818
113.83
111.842
109.853
107.864
105.875
103.885
101.894
99.9035
97.913
95.9233
240.434
244.487
248.516
252.524
231.771
271.922
193.922
196.228
198.876
210.991
204.642
207.806
171.451
187.319
175.68
174.409
188.83
191.151
189.694
186.008
231.465
231.721
204.864
201.542
173.621
225.24
179.764
220.955
217.184
203.02
200.587
224.981
177.226
180.982
181.549
190.955
218.478
221.436
224.843
186.832
188.038
256.837
256.864
256.813
256.718
256.624
256.554
256.518
256.486
256.459
185.764
175.819
201.349
201.686
228.378
222.481
182.683
184.555
183.15
181.642
180.041
178.351
176.594
174.785
172.939
171.064
169.167
167.253
165.324
163.385
161.434
159.476
157.511
155.541
153.567
151.591
149.613
147.632
145.65
143.667
141.682
139.697
137.71
135.723
133.735
131.747
129.759
127.77
125.781
123.792
121.803
119.814
117.826
115.837
113.849
111.862
109.874
107.887
105.899
103.912
101.924
99.9364
97.9485
95.9607
93.9722
93.9788
93.984
93.9884
93.9901
93.9913
93.9912
93.9902
93.9885
93.9863
93.9841
93.9809
93.978
93.9749
93.9717
93.9684
93.9645
93.9606
93.9561
93.9515
93.9474
93.9431
93.9392
93.9359
93.9327
190.363
228.48
209.649
208.807
206.429
187.489
256.956
247.936
175.657
176.808
189.063
190.75
192.559
194.541
196.711
199.087
201.681
204.491
207.495
210.615
216.505
212.643
213.698
175.046
190.009
187.907
231.493
204.44
172.032
221.363
215.53
213.583
201.922
221
179.057
221.541
183.243
208.651
205.281
202.179
199.36
196.793
194.475
192.223
188.356
252.777
183.379
235.781
239.942
244.141
248.306
252.443
256.438
183.827
177.727
272.971
203.661
261.034
260.822
260.7
260.635
260.566
260.488
260.405
260.341
260.302
260.283
260.277
260.277
217.987
224.855
180.507
198.409
175.953
272.434
184.81
185.919
184.382
182.892
181.368
179.789
178.137
176.416
174.642
172.821
170.965
169.082
167.178
165.26
163.328
161.386
159.434
157.475
155.509
153.54
151.566
149.591
147.612
145.632
143.65
141.667
139.682
137.697
135.711
133.724
131.736
129.748
127.76
125.771
123.783
121.795
119.806
117.818
115.83
113.842
111.854
109.866
107.878
105.891
103.904
101.916
99.9284
97.9408
95.9532
93.9647
91.975
91.9821
91.9882
91.9915
91.9937
91.9938
91.9934
91.9924
91.9909
91.9889
91.9867
91.9843
91.9819
91.9794
91.9769
91.9744
91.9716
91.9685
91.9652
91.9618
91.9585
91.9553
91.9519
91.949
91.9459
91.9424
91.94
93.9294
95.9197
97.9106
99.9004
101.891
103.88
105.87
107.86
109.849
111.837
113.825
115.813
117.8
119.786
121.771
123.756
125.74
127.724
129.706
131.687
133.667
135.646
137.623
139.598
141.572
143.545
145.516
147.486
149.456
151.425
153.394
155.363
157.332
159.299
161.264
163.221
165.169
167.105
169.028
170.947
172.932
174.789
176.625
178.352
212.211
182.18
184.314
184.812
186.567
180.39
188.731
203.747
218.379
176.377
177.645
189.283
186.943
185.053
188.59
228.04
228.028
208.093
218.191
211.889
209.448
215.928
203.004
205.623
224.674
217.478
213.489
179.568
221.013
204.461
212.618
214.986
206.895
207.572
227.902
186.84
188.142
176.999
215.229
211.762
208.304
205.067
202.113
199.444
197.045
194.874
192.903
191.104
189.42
205.59
184.04
178.204
190.632
192.62
194.79
197.12
199.67
202.517
205.729
209.368
184.573
182.101
229.328
234.188
238.968
243.519
178.476
213.872
185.096
214.38
182.296
221.286
180.927
235.096
239.458
243.799
248.118
252.398
256.524
260.542
183.389
182
184.497
182.854
181.258
179.621
178.01
176.35
174.576
172.755
170.87
168.964
167.047
165.118
163.178
161.228
159.272
157.31
155.346
153.38
151.413
149.446
147.477
145.507
143.536
141.563
139.59
137.614
135.638
133.659
131.68
129.699
127.717
125.734
123.75
121.766
119.78
117.794
115.808
113.82
111.833
109.844
107.856
105.866
103.877
101.888
99.8977
97.9074
95.9172
93.9274
91.9383
208.44
205.55
89.9834
89.9902
89.9943
89.9959
89.996
89.9955
89.9945
89.9929
89.991
89.9888
89.9866
89.9844
89.9824
89.9805
89.9787
89.9768
89.9746
89.9723
89.9701
89.9678
89.9658
89.9638
89.9616
89.9589
89.9563
89.9537
89.952
89.9506
218.582
264.708
264.523
264.42
264.34
264.262
264.188
264.118
264.059
264.016
263.99
263.972
264.034
264.422
252.367
256.547
260.802
264.805
187.221
185.718
184.212
182.714
181.196
179.629
177.999
176.3
174.544
172.736
170.891
169.018
167.122
165.21
163.284
161.347
159.4
157.445
155.484
153.517
151.546
149.572
147.596
145.617
143.636
141.654
139.67
137.685
135.699
133.713
131.726
129.739
127.751
125.763
123.774
121.786
119.798
117.81
115.822
113.834
111.846
109.858
107.871
105.883
103.896
101.908
99.9209
97.9334
95.9457
93.9572
91.9677
89.9771
217.734
211.247
224.267
224.414
184.077
187.512
178.328
179.557
209.766
206.011
188.311
208.24
183.138
189.208
190.98
192.903
194.994
197.312
199.878
202.734
205.964
209.645
243.976
168.706
223.599
228.801
234.107
239.092
189.727
217.251
212.979
208.946
205.417
202.354
199.662
197.251
195.073
193.101
191.314
178.932
186.366
185.803
224.165
210.607
214.425
211.401
207.162
186.947
185.496
184.062
182.594
181.085
179.517
177.889
176.204
174.452
172.647
170.794
168.908
167.002
165.08
163.146
161.202
159.251
157.294
155.333
153.369
151.404
149.437
147.469
145.499
143.529
141.556
139.583
137.608
135.631
133.653
131.674
129.693
127.712
125.729
123.745
121.761
119.776
117.79
115.803
113.816
111.829
109.841
107.852
105.863
103.874
101.884
99.8949
97.905
95.9153
93.9259
91.9375
89.9499
229.573
234.35
238.996
243.467
247.977
252.429
256.878
261.144
264.961
181.417
220.728
208.271
217.093
220.36
183.143
180.296
250.864
255.564
260.2
264.457
186.112
220.667
268.378
268.158
268.042
267.985
267.932
267.877
267.822
267.77
267.724
267.686
267.656
267.647
267.697
268.039
268.482
271.025
87.9847
87.9893
87.9955
87.9978
87.9979
87.9974
87.9967
87.9955
87.9934
87.9907
87.988
87.9858
87.9841
87.9826
87.9814
87.9801
87.9787
87.9773
87.9759
87.9748
87.9736
87.9725
87.9735
87.9726
87.9713
87.9686
87.9665
87.9645
87.9634
87.9625
186.92
185.509
184.054
182.587
181.092
179.55
177.931
176.238
174.483
172.681
170.843
168.975
167.085
165.177
163.254
161.32
159.376
157.423
155.464
153.5
151.531
149.558
147.582
145.604
143.624
141.643
139.659
137.675
135.69
133.704
131.717
129.73
127.742
125.755
123.767
121.779
119.791
117.803
115.815
113.827
111.839
109.851
107.864
105.876
103.889
101.901
99.914
97.9265
95.9388
93.9505
91.9616
89.9716
87.9793
210.075
213.754
220.246
184.741
180.865
89.9496
91.937
190.209
189.196
87.9636
85.9765
85.9761
85.9789
85.9859
85.9823
85.9897
85.9893
85.9787
85.9884
85.9778
85.9778
85.9776
85.9768
85.9801
85.9786
85.9811
85.9807
85.9831
85.9818
85.9907
85.9854
85.9986
85.9958
85.9994
85.9993
86.0004
86.0001
85.9953
85.9996
89.9673
87.9773
85.9848
85.9902
93.9452
91.9567
97.9208
95.9332
101.896
99.9083
105.87
103.883
109.845
107.858
113.82
111.833
117.796
115.808
121.772
119.784
125.747
123.759
129.722
127.735
133.696
131.709
137.667
135.682
141.634
139.651
145.595
143.616
149.548
147.573
153.488
151.52
157.409
155.451
161.304
159.361
165.158
163.237
168.954
167.065
172.659
170.821
176.213
174.461
179.521
177.904
182.515
181.048
185.386
183.954
188.324
186.834
191.424
189.818
195.174
193.204
199.769
197.352
205.551
202.471
213.415
209.131
223.184
218.196
233.782
228.579
243.129
238.708
252.785
247.919
262.142
257.65
269.528
271.441
271.56
271.312
271.315
271.338
271.324
271.376
271.356
271.419
271.398
271.454
271.438
271.509
271.471
270.612
271.62
268.783
269.418
272.094
272.8
267.157
269.571
259.465
263.8
249.414
254.595
239.395
244.278
228.837
234.127
218.75
223.735
209.8
214.039
202.851
206.091
197.411
199.984
193.017
195.094
189.55
191.179
186.671
188.084
183.859
185.276
180.976
182.431
177.848
179.462
174.397
176.154
170.747
172.592
166.971
168.871
163.125
165.055
159.237
161.185
155.324
157.282
151.397
153.362
147.463
149.431
143.523
145.494
139.578
141.551
135.626
137.603
131.669
133.648
127.707
129.689
123.741
125.725
119.772
121.757
115.8
117.786
111.825
113.813
107.849
109.837
103.871
105.86
99.8927
101.882
95.9142
97.9034
93.9254
272.069
272.778
216.481
178.614
85.9815
211.011
85.9868
239.587
272.963
273.108
273.11
273.154
273.153
273.16
273.16
176.476
217.679
216.344
212.893
213.118
170.42
172.87
170.69
187.503
184.259
185.851
188.991
185.677
187.308
190.507
187.02
188.742
191.978
188.288
190.108
216.781
182.388
272.701
183.677
267.308
181.046
201.429
214.656
183.72
185.789
180.29
174.819
167.36
218.526
179.664
174.55
185.64
247.573
183.315
249.694
177.89
182.217
225.832
177.055
270.524
174.615
204.661
176.529
175.329
179.875
188.1
272.689
242.203
202.103
188.28
188.051
218.223
257.811
234.645
194.016
269.457
175.237
171.081
172.584
192.176
170.77
236.395
185.914
195.29
180.477
155.215
150.406
187.932
)
;

boundaryField
{
    wall
    {
        type            zeroGradient;
    }
    outlet
    {
        type            fixedValue;
        value           uniform 85;
    }
    inlet
    {
        type            fixedValue;
        value           uniform 273.16;
    }
    frontAndBackPlanes
    {
        type            empty;
    }
}


// ************************************************************************* //
