/*--------------------------------*- C++ -*----------------------------------*\
| =========                 |                                                 |
| \\      /  F ield         | OpenFOAM: The Open Source CFD Toolbox           |
|  \\    /   O peration     | Version:  2212                                  |
|   \\  /    A nd           | Website:  www.openfoam.com                      |
|    \\/     M anipulation  |                                                 |
\*---------------------------------------------------------------------------*/
FoamFile
{
    version     2.0;
    format      ascii;
    arch        "LSB;label=32;scalar=64";
    class       volScalarField;
    location    "0.19";
    object      k_0;
}
// * * * * * * * * * * * * * * * * * * * * * * * * * * * * * * * * * * * * * //

dimensions      [0 2 -2 0 0 0 0];

internalField   nonuniform List<scalar> 
24240
(
1.00671e-05
2.01675e-05
2.51916e-05
2.51689e-05
2.51694e-05
2.51703e-05
2.51713e-05
2.51724e-05
2.51733e-05
2.51742e-05
2.51751e-05
2.51757e-05
2.51763e-05
2.51767e-05
2.51769e-05
2.5177e-05
2.51773e-05
2.52006e-05
2.01732e-05
1.00661e-05
2.22419e-08
2.46557e-08
7.1855e-08
8.28015e-08
7.58664e-08
7.58612e-08
7.58552e-08
7.58484e-08
7.58408e-08
7.58326e-08
7.5824e-08
7.58152e-08
7.58061e-08
7.57971e-08
7.57884e-08
7.578e-08
8.26846e-08
7.17503e-08
2.46321e-08
2.22942e-08
8.03117e-12
8.37835e-12
2.31941e-11
1.05817e-08
8.6216e-09
8.62065e-09
8.61959e-09
8.61841e-09
8.61711e-09
8.61574e-09
8.6143e-09
8.61284e-09
8.61137e-09
8.60992e-09
8.60852e-09
8.60723e-09
1.05615e-08
2.31758e-11
8.37485e-12
8.06018e-12
3.70317e-15
5.17999e-15
4.82506e-14
5.07607e-09
5.10444e-09
5.10438e-09
5.10431e-09
5.10424e-09
5.10418e-09
5.10412e-09
5.10408e-09
5.10404e-09
5.10402e-09
5.10401e-09
5.10401e-09
5.10402e-09
5.07562e-09
4.65686e-14
5.17881e-15
3.72119e-15
1.00196e-15
1.00721e-15
2.33038e-14
5.47768e-09
5.52764e-09
5.52765e-09
5.52767e-09
5.5277e-09
5.52773e-09
5.52777e-09
5.52781e-09
5.52786e-09
5.52792e-09
5.52799e-09
5.52806e-09
5.52814e-09
5.47827e-09
2.42448e-14
1.00722e-15
1.00198e-15
1e-15
1.00003e-15
5.36646e-15
1.11959e-09
1.13105e-09
1.13102e-09
1.13099e-09
1.13096e-09
1.13093e-09
1.13089e-09
1.13086e-09
1.13083e-09
1.13081e-09
1.13078e-09
1.13077e-09
1.13075e-09
1.11926e-09
5.25351e-15
1.00003e-15
1e-15
1e-15
1.00002e-15
8.80526e-15
2.13854e-09
2.16791e-09
2.16787e-09
2.16782e-09
2.16777e-09
2.16773e-09
2.16769e-09
2.16765e-09
2.16762e-09
2.16759e-09
2.16757e-09
2.16755e-09
2.16754e-09
2.13814e-09
8.91646e-15
1.00002e-15
1e-15
1e-15
1e-15
1.97796e-15
3.04688e-10
3.08845e-10
3.08863e-10
3.08882e-10
3.08904e-10
3.08927e-10
3.08951e-10
3.08974e-10
3.08996e-10
3.09016e-10
3.09034e-10
3.09048e-10
3.09059e-10
3.04921e-10
1.95677e-15
1e-15
1e-15
1e-15
1e-15
2.29581e-15
4.1422e-10
4.20863e-10
4.20886e-10
4.20911e-10
4.20939e-10
4.20968e-10
4.20998e-10
4.21026e-10
4.21053e-10
4.21077e-10
4.21095e-10
4.21108e-10
4.21116e-10
4.14488e-10
2.28421e-15
1e-15
1e-15
1e-15
1e-15
1.3498e-15
1.34776e-10
1.36671e-10
1.36627e-10
1.36577e-10
1.36523e-10
1.36467e-10
1.36411e-10
1.36355e-10
1.36302e-10
1.36252e-10
1.36206e-10
1.36165e-10
1.36128e-10
1.34174e-10
1.32501e-15
1e-15
1e-15
1e-15
1e-15
1.08736e-15
3.51308e-11
3.5552e-11
3.55409e-11
3.55284e-11
3.5515e-11
3.5501e-11
3.54868e-11
3.54729e-11
3.54596e-11
3.5447e-11
3.54355e-11
3.54251e-11
3.5416e-11
3.49797e-11
1.07818e-15
1e-15
1e-15
1e-15
1e-15
2.15385e-15
3.88062e-10
3.92628e-10
3.92562e-10
3.92489e-10
3.92411e-10
3.9233e-10
3.9225e-10
3.9217e-10
3.92095e-10
3.92024e-10
3.9196e-10
3.91903e-10
3.91854e-10
3.87204e-10
2.08826e-15
1e-15
1e-15
1e-15
1e-15
1.31403e-15
1.014e-10
1.02392e-10
1.0238e-10
1.02365e-10
1.0235e-10
1.02335e-10
1.02319e-10
1.02304e-10
1.0229e-10
1.02277e-10
1.02266e-10
1.02256e-10
1.02248e-10
1.0124e-10
1.27194e-15
1e-15
1e-15
1e-15
1.00002e-15
9.40808e-15
2.13026e-09
2.14868e-09
2.14856e-09
2.14843e-09
2.14829e-09
2.14816e-09
2.14802e-09
2.1479e-09
2.14779e-09
2.1477e-09
2.14762e-09
2.14757e-09
2.14755e-09
2.12903e-09
8.9506e-15
1.00002e-15
1e-15
1e-15
1.00001e-15
5.17314e-15
1.02919e-09
1.0364e-09
1.03635e-09
1.0363e-09
1.03624e-09
1.03619e-09
1.03614e-09
1.0361e-09
1.03606e-09
1.03603e-09
1.03601e-09
1.036e-09
1.03601e-09
1.02877e-09
4.53707e-15
1.00001e-15
1e-15
1e-15
1.00029e-15
9.20986e-14
2.11034e-08
2.12155e-08
2.12155e-08
2.12152e-08
2.12149e-08
2.12146e-08
2.12144e-08
2.1214e-08
2.12141e-08
2.12141e-08
2.12142e-08
2.12144e-08
2.12144e-08
2.11024e-08
8.70822e-14
1.00027e-15
1e-15
1.0014e-15
1.03381e-15
4.3254e-13
2.23574e-08
2.24421e-08
2.24301e-08
2.24298e-08
2.24295e-08
2.24292e-08
2.24289e-08
2.24374e-08
2.24289e-08
2.24289e-08
2.2429e-08
2.24292e-08
2.24411e-08
2.23564e-08
4.07528e-13
1.03349e-15
1.0014e-15
1.793e-13
5.61815e-13
2.60915e-08
3.97583e-08
3.54234e-08
3.2587e-08
3.25825e-08
3.25774e-08
3.25717e-08
3.25656e-08
3.60436e-08
3.25525e-08
3.25455e-08
3.25386e-08
3.25318e-08
3.53554e-08
3.9663e-08
2.60161e-08
5.54739e-13
1.79145e-13
5.97444e-10
1.08764e-08
2.00868e-07
2.45111e-07
2.20138e-07
2.19641e-07
2.19608e-07
2.19571e-07
2.19529e-07
2.19484e-07
2.20225e-07
2.1939e-07
2.19339e-07
2.19288e-07
2.19238e-07
2.19659e-07
2.44493e-07
2.00297e-07
1.08309e-08
5.96901e-10
7.68569e-05
0.000118869
0.00014618
0.000146175
0.000146172
0.000146173
0.000146173
0.000146172
0.000146172
0.000146171
0.000146169
0.000146167
0.000146164
0.000146161
0.000146158
0.000146155
0.000146155
0.000146158
0.000118845
7.68075e-05
9.65748e-06
2.24685e-05
2.82375e-05
2.81979e-05
2.81995e-05
2.82012e-05
2.82032e-05
2.82053e-05
2.82074e-05
2.82094e-05
2.82114e-05
2.82132e-05
2.82148e-05
2.82162e-05
2.82174e-05
2.82184e-05
2.82191e-05
2.82604e-05
2.24849e-05
9.6638e-06
5.12857e-08
5.62631e-08
1.101e-07
1.20172e-07
1.13296e-07
1.13294e-07
1.13291e-07
1.13288e-07
1.13285e-07
1.13281e-07
1.13276e-07
1.13271e-07
1.13266e-07
1.1326e-07
1.13254e-07
1.13249e-07
1.20105e-07
1.10039e-07
5.62603e-08
5.13768e-08
3.54599e-11
3.60106e-11
8.70448e-11
1.0086e-08
8.21052e-09
8.20988e-09
8.20918e-09
8.20839e-09
8.20754e-09
8.20663e-09
8.20568e-09
8.20472e-09
8.20376e-09
8.2028e-09
8.20188e-09
8.20103e-09
1.00727e-08
8.69774e-11
3.59992e-11
3.55599e-11
1.73311e-14
2.10265e-14
1.36833e-13
2.07401e-08
2.08679e-08
2.08676e-08
2.08672e-08
2.08669e-08
2.08666e-08
2.08663e-08
2.0866e-08
2.08658e-08
2.08656e-08
2.08655e-08
2.08654e-08
2.08654e-08
2.07374e-08
1.33016e-13
2.10205e-14
1.74163e-14
1.01254e-15
1.0305e-15
8.15055e-14
2.24827e-08
2.26865e-08
2.26864e-08
2.26864e-08
2.26864e-08
2.26864e-08
2.26864e-08
2.26865e-08
2.26866e-08
2.26867e-08
2.26868e-08
2.2687e-08
2.26872e-08
2.24836e-08
8.55214e-14
1.0305e-15
1.01265e-15
1.00001e-15
1.00012e-15
1.82676e-14
5.10318e-09
5.15451e-09
5.15432e-09
5.15411e-09
5.15389e-09
5.15366e-09
5.15344e-09
5.15323e-09
5.15303e-09
5.15286e-09
5.15271e-09
5.15259e-09
5.15249e-09
5.10095e-09
1.77489e-14
1.00012e-15
1.00001e-15
1e-15
1.00006e-15
2.82209e-14
8.87398e-09
8.9919e-09
8.99161e-09
8.99129e-09
8.99096e-09
8.99061e-09
8.99028e-09
8.98998e-09
8.9897e-09
8.98944e-09
8.98923e-09
8.98905e-09
8.98891e-09
8.87068e-09
2.86623e-14
1.00006e-15
1e-15
1e-15
1.00001e-15
5.00245e-15
1.48669e-09
1.50623e-09
1.50625e-09
1.50628e-09
1.50631e-09
1.50634e-09
1.50638e-09
1.50642e-09
1.50645e-09
1.50648e-09
1.50651e-09
1.50652e-09
1.50653e-09
1.48701e-09
4.8802e-15
1.00001e-15
1e-15
1e-15
1.00001e-15
5.61321e-15
1.76192e-09
1.78812e-09
1.78816e-09
1.78822e-09
1.78828e-09
1.78834e-09
1.78841e-09
1.78847e-09
1.78853e-09
1.78857e-09
1.78861e-09
1.78862e-09
1.78862e-09
1.76244e-09
5.55998e-15
1.00001e-15
1e-15
1e-15
1e-15
2.57065e-15
7.32632e-10
7.42381e-10
7.42124e-10
7.41836e-10
7.41526e-10
7.41203e-10
7.40877e-10
7.40555e-10
7.40247e-10
7.39957e-10
7.39692e-10
7.39455e-10
7.39249e-10
7.29158e-10
2.44235e-15
1e-15
1e-15
1e-15
1e-15
1.50118e-15
2.37614e-10
2.40387e-10
2.40315e-10
2.40234e-10
2.40146e-10
2.40055e-10
2.39963e-10
2.39872e-10
2.39784e-10
2.39701e-10
2.39625e-10
2.39557e-10
2.39497e-10
2.36625e-10
1.44603e-15
1e-15
1e-15
1e-15
1.00001e-15
5.9725e-15
1.98669e-09
2.00938e-09
2.00904e-09
2.00866e-09
2.00826e-09
2.00784e-09
2.00741e-09
2.007e-09
2.00661e-09
2.00624e-09
2.0059e-09
2.00561e-09
2.00536e-09
1.98223e-09
5.66068e-15
1.00001e-15
1e-15
1e-15
1e-15
2.67351e-15
6.29463e-10
6.3545e-10
6.35373e-10
6.35285e-10
6.35192e-10
6.35096e-10
6.35e-10
6.34906e-10
6.34817e-10
6.34735e-10
6.34662e-10
6.34599e-10
6.34546e-10
6.28462e-10
2.43183e-15
1e-15
1e-15
1e-15
1.00006e-15
3.23676e-14
9.34494e-09
9.42502e-09
9.42437e-09
9.42365e-09
9.42291e-09
9.42214e-09
9.4214e-09
9.42069e-09
9.42006e-09
9.4195e-09
9.41904e-09
9.41869e-09
9.41846e-09
9.33776e-09
3.05522e-14
1.00006e-15
1e-15
1e-15
1.00004e-15
1.93039e-14
5.16186e-09
5.19759e-09
5.19733e-09
5.19704e-09
5.19674e-09
5.19644e-09
5.19615e-09
5.19588e-09
5.19565e-09
5.19546e-09
5.19532e-09
5.19523e-09
5.19519e-09
5.15926e-09
1.6273e-14
1.00003e-15
1e-15
1e-15
1.00061e-15
2.91898e-13
7.47003e-08
7.51249e-08
7.5124e-08
7.51229e-08
7.51219e-08
7.51209e-08
7.51201e-08
7.51195e-08
7.51191e-08
7.51189e-08
7.51191e-08
7.51196e-08
7.51204e-08
7.46959e-08
2.75741e-13
1.00057e-15
1e-15
1.00141e-15
1.03891e-15
6.12446e-13
7.86236e-08
7.89819e-08
7.89791e-08
7.89779e-08
7.89768e-08
7.89757e-08
7.89747e-08
7.89725e-08
7.89729e-08
7.89726e-08
7.89726e-08
7.8973e-08
7.89754e-08
7.86168e-08
5.58958e-13
1.03853e-15
1.00141e-15
1.88644e-13
6.09004e-13
2.79233e-08
4.26802e-08
3.91312e-08
3.50547e-08
3.50507e-08
3.50461e-08
3.50411e-08
3.50356e-08
3.88223e-08
3.50225e-08
3.50163e-08
3.50102e-08
3.50043e-08
3.90658e-08
4.25943e-08
2.78569e-08
6.02092e-13
1.8854e-13
6.39526e-10
1.26792e-08
2.09079e-07
2.53969e-07
2.27879e-07
2.27432e-07
2.27404e-07
2.27371e-07
2.27335e-07
2.27296e-07
2.27756e-07
2.27216e-07
2.27172e-07
2.27128e-07
2.27085e-07
2.27467e-07
2.53435e-07
2.08585e-07
1.26362e-08
6.39143e-10
8.74928e-05
0.000149023
0.000183596
0.000183611
0.000183613
0.000183618
0.000183623
0.000183628
0.000183632
0.000183637
0.000183641
0.000183645
0.000183648
0.000183651
0.000183653
0.000183654
0.000183657
0.000183645
0.00014906
8.74772e-05
3.22969e-06
2.07888e-05
2.73683e-05
2.73383e-05
2.73406e-05
2.73431e-05
2.7346e-05
2.7349e-05
2.73521e-05
2.73552e-05
2.73583e-05
2.73611e-05
2.73638e-05
2.73662e-05
2.73683e-05
2.73701e-05
2.73714e-05
2.74041e-05
2.08201e-05
3.24015e-06
5.2658e-08
1.16346e-08
4.12817e-08
4.76781e-08
4.24932e-08
4.24932e-08
4.24932e-08
4.24933e-08
4.24932e-08
4.24932e-08
4.24932e-08
4.24931e-08
4.24931e-08
4.24929e-08
4.24927e-08
4.24924e-08
4.76863e-08
4.1269e-08
1.1634e-08
5.27823e-08
1.59267e-11
1.11558e-11
3.87858e-11
6.58681e-09
5.21113e-09
5.21095e-09
5.21079e-09
5.21062e-09
5.21043e-09
5.21024e-09
5.21004e-09
5.20984e-09
5.20965e-09
5.20946e-09
5.20927e-09
5.20913e-09
6.58345e-09
3.87855e-11
1.11555e-11
1.60626e-11
1.81033e-14
2.49905e-14
2.12991e-13
4.35914e-08
4.39472e-08
4.39466e-08
4.3946e-08
4.39453e-08
4.39446e-08
4.39439e-08
4.39433e-08
4.39427e-08
4.39421e-08
4.39417e-08
4.39414e-08
4.39412e-08
4.35849e-08
2.07409e-13
2.49843e-14
1.826e-14
1.02617e-15
1.06934e-15
1.47171e-13
4.75371e-08
4.79947e-08
4.79941e-08
4.79935e-08
4.79928e-08
4.79921e-08
4.79913e-08
4.79907e-08
4.799e-08
4.79895e-08
4.7989e-08
4.79887e-08
4.79886e-08
4.75307e-08
1.55698e-13
1.06933e-15
1.02644e-15
1.00004e-15
1.00029e-15
4.24461e-14
1.54992e-08
1.56547e-08
1.56543e-08
1.56538e-08
1.56533e-08
1.56528e-08
1.56523e-08
1.56518e-08
1.56513e-08
1.56509e-08
1.56505e-08
1.56502e-08
1.565e-08
1.54941e-08
4.13053e-14
1.00029e-15
1.00004e-15
1e-15
1.0001e-15
5.14959e-14
1.88186e-08
1.90428e-08
1.90423e-08
1.90417e-08
1.90411e-08
1.90404e-08
1.90397e-08
1.9039e-08
1.90384e-08
1.90378e-08
1.90373e-08
1.90368e-08
1.90365e-08
1.88116e-08
5.26254e-14
1.0001e-15
1e-15
1e-15
1.00001e-15
1.04827e-14
4.44964e-09
4.5049e-09
4.50484e-09
4.50476e-09
4.50468e-09
4.5046e-09
4.50452e-09
4.50444e-09
4.50437e-09
4.50429e-09
4.50422e-09
4.50414e-09
4.50408e-09
4.4487e-09
1.01528e-14
1.00001e-15
1e-15
1e-15
1.00001e-15
1.03917e-14
4.4623e-09
4.52087e-09
4.52077e-09
4.52066e-09
4.52055e-09
4.52043e-09
4.52031e-09
4.52019e-09
4.52007e-09
4.51995e-09
4.51984e-09
4.51972e-09
4.5196e-09
4.46085e-09
1.0223e-14
1.00001e-15
1e-15
1e-15
1.00001e-15
5.13158e-15
2.42135e-09
2.45132e-09
2.45092e-09
2.45047e-09
2.44999e-09
2.44949e-09
2.44898e-09
2.44847e-09
2.44798e-09
2.44752e-09
2.44709e-09
2.4467e-09
2.44636e-09
2.41582e-09
4.82195e-15
1e-15
1e-15
1e-15
1e-15
2.8782e-15
1.21759e-09
1.23134e-09
1.23101e-09
1.23065e-09
1.23025e-09
1.22984e-09
1.22943e-09
1.22901e-09
1.22862e-09
1.22824e-09
1.22789e-09
1.22758e-09
1.22731e-09
1.21311e-09
2.67822e-15
1e-15
1e-15
1e-15
1.00002e-15
1.38635e-14
6.25962e-09
6.32811e-09
6.32757e-09
6.32697e-09
6.32631e-09
6.32563e-09
6.32494e-09
6.32426e-09
6.32362e-09
6.323e-09
6.32245e-09
6.32195e-09
6.32153e-09
6.2523e-09
1.31166e-14
1.00002e-15
1e-15
1e-15
1.00001e-15
7.04868e-15
3.00962e-09
3.03755e-09
3.03719e-09
3.03679e-09
3.03637e-09
3.03592e-09
3.03548e-09
3.03504e-09
3.03463e-09
3.03424e-09
3.0339e-09
3.0336e-09
3.03334e-09
3.00496e-09
6.19252e-15
1.00001e-15
1e-15
1e-15
1.00013e-15
7.35281e-14
2.71727e-08
2.74042e-08
2.7403e-08
2.74017e-08
2.74003e-08
2.73988e-08
2.73975e-08
2.73961e-08
2.73949e-08
2.73938e-08
2.7393e-08
2.73923e-08
2.73918e-08
2.71591e-08
6.96231e-14
1.00012e-15
1e-15
1e-15
1.00009e-15
5.37207e-14
1.91259e-08
1.92582e-08
1.92571e-08
1.9256e-08
1.92548e-08
1.92536e-08
1.92524e-08
1.92513e-08
1.92503e-08
1.92495e-08
1.92488e-08
1.92483e-08
1.92479e-08
1.91148e-08
4.51581e-14
1.00007e-15
1e-15
1e-15
1.00088e-15
4.51181e-13
1.29754e-07
1.3063e-07
1.30627e-07
1.30625e-07
1.30623e-07
1.3062e-07
1.30618e-07
1.30616e-07
1.30614e-07
1.30612e-07
1.30611e-07
1.3061e-07
1.30611e-07
1.29733e-07
4.3375e-13
1.00083e-15
1e-15
1.00081e-15
1.04007e-15
7.55564e-13
1.34809e-07
1.35592e-07
1.3564e-07
1.35638e-07
1.35636e-07
1.35634e-07
1.35633e-07
1.35595e-07
1.35628e-07
1.35627e-07
1.35627e-07
1.35626e-07
1.35577e-07
1.34793e-07
6.80648e-13
1.03968e-15
1.00081e-15
1.2461e-13
5.25477e-13
2.39377e-08
3.71872e-08
3.62635e-08
3.06881e-08
3.06866e-08
3.0685e-08
3.06832e-08
3.06814e-08
3.39638e-08
3.06744e-08
3.06723e-08
3.06703e-08
3.06683e-08
3.62313e-08
3.71548e-08
2.39211e-08
5.20932e-13
1.24623e-13
4.52671e-10
1.32444e-08
1.72599e-07
2.06871e-07
1.84579e-07
1.84106e-07
1.84098e-07
1.84089e-07
1.84079e-07
1.84069e-07
1.84248e-07
1.84048e-07
1.84037e-07
1.84026e-07
1.84015e-07
1.8447e-07
2.06724e-07
1.72454e-07
1.32099e-08
4.52696e-10
7.8818e-05
0.000156413
0.000194179
0.000194261
0.000194265
0.000194272
0.00019428
0.000194288
0.000194296
0.000194304
0.000194311
0.000194318
0.000194325
0.00019433
0.000194335
0.000194338
0.000194343
0.000194267
0.000156487
7.88695e-05
4.20935e-07
7.65728e-06
1.14322e-05
1.1442e-05
1.14433e-05
1.14447e-05
1.14463e-05
1.1448e-05
1.14498e-05
1.14516e-05
1.14533e-05
1.1455e-05
1.14566e-05
1.14581e-05
1.14594e-05
1.14606e-05
1.14615e-05
1.14533e-05
7.67403e-06
4.21854e-07
5.64626e-08
1.71594e-08
3.83081e-08
4.27921e-08
3.84323e-08
3.84339e-08
3.84358e-08
3.8438e-08
3.84403e-08
3.84428e-08
3.84454e-08
3.84479e-08
3.84505e-08
3.84529e-08
3.84552e-08
3.84573e-08
4.28162e-08
3.83436e-08
1.71771e-08
5.66021e-08
4.95678e-11
3.1617e-11
9.46504e-11
6.17447e-09
4.8044e-09
4.80423e-09
4.8041e-09
4.80396e-09
4.80382e-09
4.80367e-09
4.80352e-09
4.80337e-09
4.80323e-09
4.80309e-09
4.80295e-09
4.80287e-09
6.17177e-09
9.46448e-11
3.16217e-11
4.9837e-11
6.32497e-14
7.04283e-14
3.85547e-13
4.89549e-08
4.93714e-08
4.93708e-08
4.93702e-08
4.93695e-08
4.93688e-08
4.9368e-08
4.93673e-08
4.93666e-08
4.9366e-08
4.93654e-08
4.9365e-08
4.93648e-08
4.89478e-08
3.80369e-13
7.04193e-14
6.3731e-14
1.08968e-15
1.19097e-15
1.6637e-13
5.33644e-08
5.38951e-08
5.38944e-08
5.38934e-08
5.38924e-08
5.38914e-08
5.38903e-08
5.38893e-08
5.38883e-08
5.38874e-08
5.38866e-08
5.3886e-08
5.38857e-08
5.33544e-08
1.76482e-13
1.19094e-15
1.09051e-15
1.00013e-15
1.00067e-15
5.47376e-14
2.0374e-08
2.05805e-08
2.05799e-08
2.05793e-08
2.05787e-08
2.0578e-08
2.05773e-08
2.05766e-08
2.0576e-08
2.05754e-08
2.05748e-08
2.05743e-08
2.0574e-08
2.03671e-08
5.37991e-14
1.00067e-15
1.00013e-15
1e-15
1.00011e-15
6.04368e-14
2.25757e-08
2.28354e-08
2.28348e-08
2.28341e-08
2.28333e-08
2.28325e-08
2.28317e-08
2.28309e-08
2.28302e-08
2.28294e-08
2.28288e-08
2.28282e-08
2.28277e-08
2.25673e-08
6.19667e-14
1.00012e-15
1e-15
1e-15
1.00002e-15
1.39824e-14
6.1329e-09
6.20358e-09
6.20344e-09
6.20327e-09
6.2031e-09
6.20291e-09
6.20272e-09
6.20252e-09
6.20233e-09
6.20215e-09
6.20197e-09
6.2018e-09
6.20165e-09
6.13073e-09
1.36484e-14
1.00002e-15
1e-15
1e-15
1.00002e-15
1.33041e-14
5.9473e-09
6.01633e-09
6.01613e-09
6.0159e-09
6.01564e-09
6.01538e-09
6.0151e-09
6.01483e-09
6.01456e-09
6.01429e-09
6.01403e-09
6.01377e-09
6.01352e-09
5.94411e-09
1.30778e-14
1.00002e-15
1e-15
1e-15
1.00001e-15
7.49751e-15
3.82642e-09
3.86982e-09
3.8694e-09
3.86893e-09
3.86841e-09
3.86787e-09
3.86731e-09
3.86675e-09
3.86621e-09
3.86568e-09
3.86518e-09
3.86472e-09
3.86429e-09
3.82022e-09
7.13378e-15
1.00001e-15
1e-15
1e-15
1e-15
4.85818e-15
2.43136e-09
2.4574e-09
2.45703e-09
2.45662e-09
2.45617e-09
2.45569e-09
2.4552e-09
2.45471e-09
2.45424e-09
2.45378e-09
2.45335e-09
2.45295e-09
2.45259e-09
2.42599e-09
4.50219e-15
1e-15
1e-15
1e-15
1.00003e-15
2.20024e-14
1.02261e-08
1.03345e-08
1.03338e-08
1.0333e-08
1.03322e-08
1.03313e-08
1.03305e-08
1.03296e-08
1.03287e-08
1.03279e-08
1.03271e-08
1.03264e-08
1.03258e-08
1.02164e-08
2.11075e-14
1.00003e-15
1e-15
1e-15
1.00002e-15
1.46238e-14
6.60673e-09
6.6677e-09
6.66722e-09
6.66668e-09
6.6661e-09
6.66548e-09
6.66487e-09
6.66425e-09
6.66367e-09
6.66311e-09
6.66261e-09
6.66216e-09
6.66178e-09
6.60015e-09
1.28777e-14
1.00002e-15
1e-15
1e-15
1.00019e-15
1.06811e-13
3.92805e-08
3.9629e-08
3.96278e-08
3.96265e-08
3.96251e-08
3.96237e-08
3.96223e-08
3.96209e-08
3.96197e-08
3.96185e-08
3.96175e-08
3.96167e-08
3.96161e-08
3.92664e-08
1.02512e-13
1.00018e-15
1e-15
1e-15
1.00017e-15
9.62935e-14
3.25112e-08
3.27473e-08
3.27463e-08
3.27451e-08
3.27438e-08
3.27424e-08
3.27411e-08
3.27398e-08
3.27386e-08
3.27376e-08
3.27366e-08
3.27359e-08
3.27353e-08
3.24979e-08
8.20494e-14
1.00014e-15
1e-15
1e-15
1.001e-15
5.05093e-13
1.41349e-07
1.42371e-07
1.42368e-07
1.42365e-07
1.42362e-07
1.42359e-07
1.42356e-07
1.42353e-07
1.4235e-07
1.42348e-07
1.42346e-07
1.42344e-07
1.42343e-07
1.41319e-07
4.89715e-13
1.00096e-15
1e-15
1.00014e-15
1.03999e-15
7.85985e-13
1.45417e-07
1.46326e-07
1.46348e-07
1.46346e-07
1.46344e-07
1.46341e-07
1.46339e-07
1.46318e-07
1.46334e-07
1.46332e-07
1.46331e-07
1.4633e-07
1.46306e-07
1.45394e-07
7.07594e-13
1.03964e-15
1.00014e-15
4.13634e-14
3.86426e-13
1.98872e-08
3.11008e-08
2.88216e-08
2.54132e-08
2.54122e-08
2.54111e-08
2.54099e-08
2.54086e-08
2.8214e-08
2.54038e-08
2.54023e-08
2.54009e-08
2.53995e-08
2.88061e-08
3.10782e-08
1.98713e-08
3.85405e-13
4.13839e-14
1.22781e-10
1.33133e-08
1.29021e-07
1.54549e-07
1.37257e-07
1.37049e-07
1.37047e-07
1.37046e-07
1.37045e-07
1.37044e-07
1.37176e-07
1.37043e-07
1.37042e-07
1.37042e-07
1.37041e-07
1.37248e-07
1.54534e-07
1.29005e-07
1.32875e-08
1.22862e-10
4.00636e-05
9.89386e-05
0.000126244
0.000126372
0.000126375
0.00012638
0.000126386
0.000126392
0.000126399
0.000126405
0.000126412
0.000126418
0.000126424
0.00012643
0.000126435
0.00012644
0.000126445
0.000126323
9.90036e-05
4.00816e-05
3.59692e-07
8.74564e-06
1.2422e-05
1.24099e-05
1.24111e-05
1.24124e-05
1.24139e-05
1.24155e-05
1.24172e-05
1.24189e-05
1.24206e-05
1.24223e-05
1.24239e-05
1.24253e-05
1.24267e-05
1.24279e-05
1.24288e-05
1.24426e-05
8.76238e-06
3.59964e-07
3.40193e-08
3.14719e-08
6.55063e-08
7.22067e-08
6.641e-08
6.64121e-08
6.64145e-08
6.64171e-08
6.64198e-08
6.64226e-08
6.64252e-08
6.64278e-08
6.64302e-08
6.64324e-08
6.64344e-08
6.64361e-08
7.22339e-08
6.55378e-08
3.15038e-08
3.39951e-08
7.90147e-11
6.13648e-11
1.70855e-10
6.59229e-09
5.09264e-09
5.09248e-09
5.09239e-09
5.09228e-09
5.09218e-09
5.09207e-09
5.09196e-09
5.09185e-09
5.09175e-09
5.09165e-09
5.09156e-09
5.09153e-09
6.5902e-09
1.70855e-10
6.13843e-11
7.93049e-11
1.12736e-13
1.33596e-13
6.0142e-13
5.59083e-08
5.63873e-08
5.63869e-08
5.63863e-08
5.63857e-08
5.63851e-08
5.63845e-08
5.63839e-08
5.63833e-08
5.63827e-08
5.63823e-08
5.63819e-08
5.63818e-08
5.59025e-08
5.97753e-13
1.33587e-13
1.13451e-13
1.14596e-15
1.35516e-15
1.74498e-13
5.81101e-08
5.86935e-08
5.8693e-08
5.86923e-08
5.86915e-08
5.86907e-08
5.86898e-08
5.8689e-08
5.86882e-08
5.86875e-08
5.86869e-08
5.86865e-08
5.86863e-08
5.81027e-08
1.85074e-13
1.35509e-15
1.14705e-15
1.00019e-15
1.00114e-15
6.05136e-14
2.33875e-08
2.36273e-08
2.36268e-08
2.36263e-08
2.36257e-08
2.36251e-08
2.36245e-08
2.36238e-08
2.36232e-08
2.36226e-08
2.36221e-08
2.36217e-08
2.36215e-08
2.33815e-08
5.99588e-14
1.00114e-15
1.00019e-15
1e-15
1.00012e-15
6.54462e-14
2.51074e-08
2.53881e-08
2.53877e-08
2.53871e-08
2.53865e-08
2.53858e-08
2.53851e-08
2.53844e-08
2.53837e-08
2.53831e-08
2.53825e-08
2.5382e-08
2.53816e-08
2.51004e-08
6.74057e-14
1.00012e-15
1e-15
1e-15
1.00002e-15
1.73208e-14
7.96234e-09
8.051e-09
8.05081e-09
8.05059e-09
8.05035e-09
8.05009e-09
8.04982e-09
8.04955e-09
8.04928e-09
8.04901e-09
8.04875e-09
8.04851e-09
8.04827e-09
7.95927e-09
1.70359e-14
1.00002e-15
1e-15
1e-15
1.00002e-15
1.70462e-14
7.78687e-09
7.87319e-09
7.87291e-09
7.8726e-09
7.87224e-09
7.87188e-09
7.8715e-09
7.87111e-09
7.87072e-09
7.87034e-09
7.86995e-09
7.86957e-09
7.86918e-09
7.78228e-09
1.67876e-14
1.00002e-15
1e-15
1e-15
1.00001e-15
1.06735e-14
5.5983e-09
5.65901e-09
5.6586e-09
5.65813e-09
5.65761e-09
5.65707e-09
5.6565e-09
5.65593e-09
5.65535e-09
5.65479e-09
5.65423e-09
5.6537e-09
5.65318e-09
5.59171e-09
1.0293e-14
1.00001e-15
1e-15
1e-15
1.00001e-15
7.65984e-15
4.05026e-09
4.09226e-09
4.09188e-09
4.09144e-09
4.09096e-09
4.09045e-09
4.08992e-09
4.08939e-09
4.08886e-09
4.08834e-09
4.08783e-09
4.08735e-09
4.08689e-09
4.04422e-09
7.12623e-15
1.00001e-15
1e-15
1e-15
1.00004e-15
3.10752e-14
1.43701e-08
1.4518e-08
1.45174e-08
1.45167e-08
1.45159e-08
1.45151e-08
1.45143e-08
1.45134e-08
1.45125e-08
1.45117e-08
1.45109e-08
1.45101e-08
1.45094e-08
1.43605e-08
3.0347e-14
1.00004e-15
1e-15
1e-15
1.00003e-15
2.46585e-14
1.12376e-08
1.13417e-08
1.13412e-08
1.13406e-08
1.134e-08
1.13394e-08
1.13387e-08
1.1338e-08
1.13374e-08
1.13367e-08
1.13361e-08
1.13356e-08
1.13351e-08
1.12302e-08
2.19459e-14
1.00003e-15
1e-15
1e-15
1.00023e-15
1.33382e-13
4.92899e-08
4.97362e-08
4.97352e-08
4.97339e-08
4.97326e-08
4.97311e-08
4.97296e-08
4.97281e-08
4.97266e-08
4.97251e-08
4.97236e-08
4.97222e-08
4.97208e-08
4.92725e-08
1.32934e-13
1.00023e-15
1e-15
1e-15
1.00023e-15
1.3177e-13
4.54421e-08
4.57996e-08
4.57987e-08
4.57976e-08
4.57963e-08
4.5795e-08
4.57936e-08
4.57921e-08
4.57907e-08
4.57893e-08
4.57879e-08
4.57865e-08
4.57852e-08
4.54258e-08
1.14926e-13
1.0002e-15
1e-15
1e-15
1.00105e-15
5.41673e-13
1.58017e-07
1.59193e-07
1.5919e-07
1.59188e-07
1.59186e-07
1.59183e-07
1.5918e-07
1.59178e-07
1.59175e-07
1.59173e-07
1.59171e-07
1.59169e-07
1.59168e-07
1.5799e-07
5.32921e-13
1.00103e-15
1e-15
1.00047e-15
1.03928e-15
8.32451e-13
1.66529e-07
1.67629e-07
1.67645e-07
1.67643e-07
1.67641e-07
1.67639e-07
1.67636e-07
1.6762e-07
1.67632e-07
1.6763e-07
1.67628e-07
1.67627e-07
1.67608e-07
1.66506e-07
7.52037e-13
1.039e-15
1.00047e-15
7.49385e-14
4.10568e-13
1.89285e-08
2.95369e-08
2.70087e-08
2.41742e-08
2.41735e-08
2.41728e-08
2.41721e-08
2.41713e-08
2.67593e-08
2.41675e-08
2.41665e-08
2.41657e-08
2.41649e-08
2.69958e-08
2.95219e-08
1.89115e-08
4.09467e-13
7.49591e-14
2.49237e-10
1.34021e-08
1.41089e-07
1.69228e-07
1.51051e-07
1.5094e-07
1.50935e-07
1.50928e-07
1.50921e-07
1.50914e-07
1.51009e-07
1.50898e-07
1.50891e-07
1.50883e-07
1.50875e-07
1.50973e-07
1.69124e-07
1.4099e-07
1.33845e-08
2.49305e-10
4.51603e-05
9.58307e-05
0.000120552
0.000120581
0.000120584
0.000120589
0.000120594
0.0001206
0.000120606
0.000120612
0.000120619
0.000120625
0.000120631
0.000120638
0.000120643
0.000120649
0.000120654
0.000120631
9.58964e-05
4.52036e-05
3.40201e-07
4.42686e-06
7.047e-06
7.05675e-06
7.0575e-06
7.0583e-06
7.05924e-06
7.06024e-06
7.06131e-06
7.06241e-06
7.06351e-06
7.06459e-06
7.06565e-06
7.06664e-06
7.06756e-06
7.06839e-06
7.06903e-06
7.06038e-06
4.43601e-06
3.40288e-07
1.86657e-08
1.36601e-08
4.30359e-08
5.2137e-08
4.36863e-08
4.36861e-08
4.36861e-08
4.36861e-08
4.36861e-08
4.36862e-08
4.36864e-08
4.36866e-08
4.36869e-08
4.36871e-08
4.36874e-08
4.36878e-08
5.21375e-08
4.30376e-08
1.36623e-08
1.84654e-08
1.13816e-11
4.68814e-11
1.5886e-10
7.15717e-09
5.30171e-09
5.30154e-09
5.30146e-09
5.30139e-09
5.30131e-09
5.30123e-09
5.30115e-09
5.30108e-09
5.30101e-09
5.30094e-09
5.30087e-09
5.30091e-09
7.15611e-09
1.58845e-10
4.68761e-11
1.12134e-11
2.99566e-15
1.45192e-13
6.60256e-13
5.25403e-08
5.29958e-08
5.29954e-08
5.29951e-08
5.29946e-08
5.29941e-08
5.29936e-08
5.29931e-08
5.29925e-08
5.29921e-08
5.29917e-08
5.29914e-08
5.29912e-08
5.25356e-08
6.57842e-13
1.45162e-13
2.87179e-15
1.0016e-15
1.44426e-15
1.70991e-13
5.5774e-08
5.63468e-08
5.63463e-08
5.63457e-08
5.6345e-08
5.63443e-08
5.63435e-08
5.63427e-08
5.63419e-08
5.63413e-08
5.63407e-08
5.63403e-08
5.63401e-08
5.57673e-08
1.80346e-13
1.44416e-15
1.00162e-15
1.00001e-15
1.0015e-15
6.31068e-14
2.43818e-08
2.46344e-08
2.4634e-08
2.46335e-08
2.46329e-08
2.46323e-08
2.46317e-08
2.4631e-08
2.46304e-08
2.46298e-08
2.46292e-08
2.46289e-08
2.46286e-08
2.43756e-08
6.28674e-14
1.0015e-15
1.00001e-15
1e-15
1.00012e-15
6.73509e-14
2.58905e-08
2.61779e-08
2.61774e-08
2.61769e-08
2.61764e-08
2.61757e-08
2.61751e-08
2.61744e-08
2.61737e-08
2.6173e-08
2.61725e-08
2.6172e-08
2.61717e-08
2.58839e-08
6.95155e-14
1.00013e-15
1e-15
1e-15
1.00003e-15
1.94179e-14
8.99752e-09
9.09729e-09
9.09708e-09
9.09684e-09
9.09656e-09
9.09627e-09
9.09596e-09
9.09565e-09
9.09534e-09
9.09503e-09
9.09472e-09
9.09442e-09
9.09414e-09
8.99398e-09
1.92839e-14
1.00003e-15
1e-15
1e-15
1.00003e-15
1.96314e-14
9.01855e-09
9.11582e-09
9.11548e-09
9.1151e-09
9.11467e-09
9.11424e-09
9.11376e-09
9.1133e-09
9.1128e-09
9.11232e-09
9.1118e-09
9.11129e-09
9.11074e-09
9.01271e-09
1.94873e-14
1.00003e-15
1e-15
1e-15
1.00002e-15
1.3595e-14
7.13061e-09
7.20657e-09
7.20615e-09
7.20568e-09
7.20514e-09
7.20458e-09
7.20397e-09
7.20336e-09
7.20271e-09
7.20208e-09
7.20142e-09
7.20076e-09
7.20009e-09
7.12321e-09
1.33619e-14
1.00002e-15
1e-15
1e-15
1.00001e-15
1.05318e-14
5.60363e-09
5.66129e-09
5.66092e-09
5.66048e-09
5.66e-09
5.65948e-09
5.65894e-09
5.65837e-09
5.6578e-09
5.65722e-09
5.65664e-09
5.65606e-09
5.65549e-09
5.59704e-09
9.98721e-15
1.00001e-15
1e-15
1e-15
1.00006e-15
3.80989e-14
1.74336e-08
1.76134e-08
1.76128e-08
1.76121e-08
1.76113e-08
1.76105e-08
1.76096e-08
1.76086e-08
1.76077e-08
1.76067e-08
1.76057e-08
1.76048e-08
1.76038e-08
1.74227e-08
3.82833e-14
1.00006e-15
1e-15
1e-15
1.00005e-15
3.26047e-14
1.46776e-08
1.48169e-08
1.48164e-08
1.48159e-08
1.48152e-08
1.48145e-08
1.48138e-08
1.48131e-08
1.48123e-08
1.48115e-08
1.48108e-08
1.48101e-08
1.48094e-08
1.46691e-08
2.98629e-14
1.00004e-15
1e-15
1e-15
1.00025e-15
1.43483e-13
5.27877e-08
5.32739e-08
5.32729e-08
5.32717e-08
5.32704e-08
5.3269e-08
5.32674e-08
5.32658e-08
5.32642e-08
5.32625e-08
5.32608e-08
5.3259e-08
5.32572e-08
5.27687e-08
1.46833e-13
1.00026e-15
1e-15
1e-15
1.00026e-15
1.46339e-13
5.01293e-08
5.05444e-08
5.05436e-08
5.05426e-08
5.05415e-08
5.05403e-08
5.05391e-08
5.05377e-08
5.05364e-08
5.0535e-08
5.05335e-08
5.05321e-08
5.05305e-08
5.01134e-08
1.30439e-13
1.00022e-15
1e-15
1e-15
1.001e-15
5.04877e-13
1.45093e-07
1.46324e-07
1.46323e-07
1.46323e-07
1.46322e-07
1.46321e-07
1.4632e-07
1.46319e-07
1.46319e-07
1.46318e-07
1.46317e-07
1.46316e-07
1.46314e-07
1.45081e-07
5.1961e-13
1.00104e-15
1e-15
1.00024e-15
1.03666e-15
7.13153e-13
1.4954e-07
1.50711e-07
1.50718e-07
1.50717e-07
1.50717e-07
1.50716e-07
1.50715e-07
1.5071e-07
1.50714e-07
1.50713e-07
1.50712e-07
1.50711e-07
1.50702e-07
1.49529e-07
6.66979e-13
1.03654e-15
1.00024e-15
4.04299e-14
3.25319e-13
1.71904e-08
2.41654e-08
2.32291e-08
1.95249e-08
1.95247e-08
1.95245e-08
1.95243e-08
1.9524e-08
2.17983e-08
1.95209e-08
1.95207e-08
1.95205e-08
1.95204e-08
2.32203e-08
2.41595e-08
1.71902e-08
3.2767e-13
4.04587e-14
1.3165e-10
1.2893e-08
1.1326e-07
1.35554e-07
1.20235e-07
1.20065e-07
1.20065e-07
1.20066e-07
1.20066e-07
1.20067e-07
1.20152e-07
1.20069e-07
1.2007e-07
1.20071e-07
1.20073e-07
1.20245e-07
1.35566e-07
1.1327e-07
1.28931e-08
1.31744e-10
2.59796e-05
6.64412e-05
8.57959e-05
8.58859e-05
8.58882e-05
8.58912e-05
8.58946e-05
8.58984e-05
8.59026e-05
8.5907e-05
8.59115e-05
8.59163e-05
8.59211e-05
8.5926e-05
8.59307e-05
8.59352e-05
8.59392e-05
8.5854e-05
6.64898e-05
2.60014e-05
3.27513e-07
4.87457e-06
7.50393e-06
7.50445e-06
7.50508e-06
7.50578e-06
7.5066e-06
7.50748e-06
7.50842e-06
7.50939e-06
7.51037e-06
7.51134e-06
7.51229e-06
7.5132e-06
7.51404e-06
7.51479e-06
7.51539e-06
7.51587e-06
4.88421e-06
3.27705e-07
3.74933e-10
2.14492e-08
5.46928e-08
6.44749e-08
5.5332e-08
5.53326e-08
5.53336e-08
5.53346e-08
5.53358e-08
5.5337e-08
5.53383e-08
5.53395e-08
5.53408e-08
5.5342e-08
5.53431e-08
5.53442e-08
6.44879e-08
5.4708e-08
2.14634e-08
3.72551e-10
1.20023e-12
6.08687e-11
1.91594e-10
7.7276e-09
5.56382e-09
5.56363e-09
5.56359e-09
5.56354e-09
5.5635e-09
5.56346e-09
5.56343e-09
5.56339e-09
5.56336e-09
5.56332e-09
5.56329e-09
5.5634e-09
7.72713e-09
1.91597e-10
6.08769e-11
1.20514e-12
5.49536e-15
1.77964e-13
7.60879e-13
5.35526e-08
5.40267e-08
5.40266e-08
5.40265e-08
5.40262e-08
5.4026e-08
5.40257e-08
5.40254e-08
5.40251e-08
5.40248e-08
5.40246e-08
5.40245e-08
5.40244e-08
5.35504e-08
7.59712e-13
1.77949e-13
5.4746e-15
1.01353e-15
1.53295e-15
1.70347e-13
5.61254e-08
5.67168e-08
5.67166e-08
5.67163e-08
5.67159e-08
5.67155e-08
5.6715e-08
5.67146e-08
5.67141e-08
5.67137e-08
5.67133e-08
5.67132e-08
5.67131e-08
5.6122e-08
1.78996e-13
1.53287e-15
1.01348e-15
1.00003e-15
1.00174e-15
6.49762e-14
2.55889e-08
2.58635e-08
2.58636e-08
2.58636e-08
2.58636e-08
2.58635e-08
2.58634e-08
2.58633e-08
2.58632e-08
2.58631e-08
2.58631e-08
2.5863e-08
2.58628e-08
2.55881e-08
6.49626e-14