/*--------------------------------*- C++ -*----------------------------------*\
| =========                 |                                                 |
| \\      /  F ield         | OpenFOAM: The Open Source CFD Toolbox           |
|  \\    /   O peration     | Version:  2212                                  |
|   \\  /    A nd           | Website:  www.openfoam.com                      |
|    \\/     M anipulation  |                                                 |
\*---------------------------------------------------------------------------*/
FoamFile
{
    version     2.0;
    format      ascii;
    arch        "LSB;label=32;scalar=64";
    class       volScalarField;
    location    "0.0386";
    object      p;
}
// * * * * * * * * * * * * * * * * * * * * * * * * * * * * * * * * * * * * * //

dimensions      [1 -1 -2 0 0 0 0];

internalField   nonuniform List<scalar> 
31661
(
504.064
44.8609
49.5098
46.9773
44.4669
48.7645
46.3904
44.1913
48.1567
45.9486
475.183
55.3269
684.19
320.575
459.884
446.833
473.335
469.367
61.1468
436.594
87.5551
88.2613
244.408
410.379
47.855
87.6005
240.635
209.668
55.706
58.6041
402.844
99.47
99.5391
65.1273
87.9991
386.371
71.7407
383.845
226.644
97.82
100.824
44.3211
361.452
98.8623
102.187
59.8465
100.382
81.3607
70.3135
258.679
99.296
245.132
62.7104
78.1253
191.453
58.5642
64.1888
69.0877
101.896
59.0945
58.3539
57.6716
92.4729
38.4822
74.0831
389.714
615.586
97.2036
92.3359
87.1402
53.4051
80.456
74.362
69.3296
64.2295
59.6018
55.3651
51.6127
48.2978
45.4195
42.9529
40.867
39.1217
37.6683
37.7982
39.2616
41.016
43.1003
45.5531
48.393
51.6491
55.3092
59.2862
63.6207
68.2656
72.9825
77.6871
82.2396
86.7635
91.4159
95.8559
99.8535
103.41
106.858
106.71
110.255
109.994
113.4
113.168
116.502
116.316
119.895
119.758
124.217
124.126
130.627
130.573
140.792
140.769
156.129
156.161
175.643
175.794
194.92
195.148
209.629
209.843
218.7
218.855
223.319
223.417
225.2
225.246
225.193
225.229
224.831
224.851
223.845
223.839
221.934
221.917
219.813
219.791
217.613
217.59
215.34
215.315
212.983
212.954
210.529
210.496
207.973
207.936
205.318
205.278
202.572
202.528
199.742
199.695
196.836
196.787
193.866
193.815
190.841
190.788
187.773
187.719
184.672
184.617
181.494
181.548
181.505
184.632
187.737
190.808
193.838
196.813
199.723
202.557
205.307
207.965
210.527
212.992
215.36
217.635
219.841
221.969
223.886
224.872
225.234
225.241
223.342
218.668
209.438
194.517
175.027
155.424
140.172
130.124
123.787
119.474
116.029
112.824
109.514
105.853
101.853
97.0985
91.9405
86.4821
81.0141
75.4074
70.0825
64.9449
60.2472
56.0005
52.1736
48.8053
36.5829
36.4648
45.8734
43.3701
41.2483
39.4661
37.9719
35.474
35.5801
36.0854
37.1501
38.4308
39.9542
41.7502
43.8488
46.2735
49.0268
52.1014
55.4886
59.2023
63.1123
67.2125
71.4645
75.7422
80.0996
84.6103
89.0758
93.3939
97.4253
101.313
105.148
108.715
112.098
115.448
119.074
123.593
130.163
140.421
155.85
175.553
195.058
209.94
219.037
223.592
225.363
225.332
224.924
223.863
221.924
219.782
217.57
215.285
212.914
210.444
207.873
205.202
202.438
199.592
196.673
193.69
190.655
187.579
184.472
181.346
178.211
178.361
178.413
178.365
178.214
181.358
184.492
187.605
190.687
193.729
196.718
199.643
202.494
205.261
207.935
210.509
212.983
215.361
217.654
219.874
222.018
223.957
224.97
225.346
225.359
223.459
218.709
209.29
194.034
174.188
154.432
139.242
129.285
122.96
118.559
114.94
111.503
107.956
104.17
100.072
95.3262
90.3813
85.2956
80.1836
74.9055
69.9729
65.3508
60.8952
56.8562
53.1538
49.8497
46.9354
44.4094
36.7345
42.227
40.3642
38.7847
35.2071
34.762
35.7175
34.6697
34.4913
35.1991
36.0098
36.991
38.1627
39.5474
41.1641
43.0302
45.1503
47.5367
50.1638
53.0276
56.0808
59.3492
62.7324
66.2534
69.9003
73.6485
77.5017
81.5862
85.7541
89.9374
94.0372
98.1266
102.244
106.194
109.965
113.679
117.618
122.379
129.094
139.436
154.976
174.94
194.816
210.022
219.28
223.847
225.547
225.496
225.05
223.921
221.944
219.785
217.554
215.252
212.863
210.374
207.782
205.089
202.302
199.434
196.494
193.493
190.443
187.354
184.236
181.102
177.963
174.829
175.079
175.229
175.278
175.225
175.07
174.809
177.957
181.107
184.251
187.376
190.475
193.535
196.545
199.494
202.371
205.164
207.864
210.463
212.959
215.357
217.671
219.913
222.084
224.058
225.122
225.527
225.553
223.672
218.828
209.135
193.384
173.017
153.02
137.874
127.979
121.603
117.008
113.088
109.296
105.396
101.313
96.978
92.3074
87.6127
82.931
78.3097
73.7373
69.438
65.3319
61.512
57.8316
54.4437
51.32
48.5024
45.9695
43.731
37.4682
41.7766
40.0865
34.1016
34.5385
33.9173
36.364
34.8864
34.0211
34.0087
34.8217
35.4628
36.2464
37.1899
38.3092
39.6202
41.1334
42.8569
44.7894
46.9232
49.2396
51.707
54.2937
56.9804
59.7372
62.5625
65.4585
68.4541
71.565
74.8271
78.3374
82.0465
85.9255
89.9179
94.0385
98.3038
102.553
106.723
110.868
115.214
120.293
127.192
137.619
153.282
173.666
194.233
209.964
219.531
224.158
225.789
225.716
225.223
224.011
221.986
219.796
217.542
215.218
212.802
210.284
207.661
204.937
202.118
199.218
196.249
193.222
190.148
187.04
183.908
180.763
177.617
174.479
171.361
171.71
171.959
172.106
172.152
172.096
171.937
171.672
171.303
174.443
177.596
180.755
183.91
187.053
190.172
193.257
196.295
199.276
202.187
205.016
207.753
210.389
212.919
215.348
217.688
219.959
222.165
224.187
225.323
225.768
225.813
223.965
219.002
208.91
192.459
171.36
151.006
135.882
126.026
119.526
114.638
110.324
106.111
101.835
97.4683
93.02
88.5092
84.1491
79.9614
75.9765
72.1685
68.5912
65.1926
61.9941
58.8564
55.8924
53.0695
50.4145
47.9396
45.6798
43.6531
38.6421
41.842
33.5768
33.4655
37.4232
34.3077
33.5947
35.4651
34.2145
33.5066
33.9044
34.7665
35.288
35.934
36.7197
37.6586
38.7647
40.0467
41.5122
43.1565
44.973
46.9415
49.0356
51.2189
53.4578
55.7205
57.9946
60.2524
62.5552
64.8395
67.2303
69.7283
72.3993
75.3023
78.4578
81.8711
85.5403
89.4524
93.6424
97.9914
102.424
106.941
111.69
117.112
124.206
134.691
150.493
171.525
193.154
209.792
219.802
224.534
226.088
225.989
225.441
224.132
222.051
219.822
217.539
215.184
212.732
210.174
207.508
204.741
201.881
198.94
195.933
192.871
189.768
186.636
183.484
180.325
177.17
174.028
170.908
167.816
168.269
168.617
168.862
169.004
169.045
168.985
168.823
168.557
168.187
170.827
173.968
177.127
180.297
183.468
186.631
189.776
192.892
195.967
198.988
201.943
204.819
207.604
210.287
212.862
215.332
217.709
220.016
222.264
224.343
225.568
226.062
226.129
224.319
219.192
208.54
191.103
168.983
148.137
133.025
123.191
116.511
111.275
106.558
101.987
97.4595
92.9989
88.6577
84.4811
80.5926
76.9888
73.6602
70.5712
67.7
64.9813
62.3861
59.8376
57.3483
54.9014
52.4988
50.1759
47.9831
45.9257
40.2616
44.0204
167.712
42.2983
33.1688
38.8886
33.12
36.4025
33.2805
34.7256
34.3568
33.6013
33.6811
33.108
34.0429
34.9262
35.3592
35.9036
36.5734
37.3813
38.3398
39.458
40.7421
42.191
43.7978
45.5441
47.4043
49.3409
51.32
53.3017
55.2556
57.1644
59.0182
60.837
62.6367
64.4547
66.3112
68.2815
70.4134
72.7517
75.3407
78.2042
81.3841
84.8804
88.7417
92.9137
97.3463
102.025
107.038
112.725
119.947
130.393
146.275
168.164
191.334
209.319
220.014
224.938
226.424
226.299
225.694
224.28
222.137
219.866
217.545
215.149
212.652
210.042
207.321
204.498
201.585
198.595
195.54
192.437
189.297
186.135
182.96
179.785
176.618
173.47
170.347
167.256
164.202
164.758
165.208
165.553
165.794
165.931
165.967
165.902
165.737
165.471
165.102
164.63
167.13
170.242
173.384
176.549
179.731
182.921
186.108
189.284
192.438
195.556
198.627
201.636
204.569
207.414
210.157
212.789
215.31
217.734
220.086
222.383
224.528
225.854
226.402
226.493
224.717
219.34
207.901
189.07
165.532
144.097
129.037
119.248
112.408
106.883
101.892
97.1571
92.6355
88.3551
84.362
80.6877
77.3627
74.3642
71.6594
69.1927
66.9274
64.8099
62.7359
60.7254
58.704
56.663
54.5904
52.5243
50.4787
48.4581
46.5367
44.7247
164.053
43.0482
40.7682
32.8617
37.711
32.8671
35.558
33.0555
34.129
33.3813
33.2614
34.5936
33.8187
32.8087
161.191
161.74
162.184
162.524
162.761
162.893
162.924
162.855
162.687
162.421
162.054
161.587
161.021
163.373
166.439
169.547
172.689
175.859
179.054
182.264
185.481
188.693
191.889
195.059
198.187
201.261
204.263
207.179
209.994
212.696
215.282
217.764
220.168
222.521
224.74
226.17
226.775
226.889
225.113
219.341
206.797
185.992
160.544
138.522
123.71
114.125
107.279
101.656
96.652
92.0571
87.8363
83.9911
80.5279
77.4367
74.6951
72.2635
70.1002
68.1491
66.3897
64.7441
63.106
61.5287
59.9262
58.2743
56.57
54.8079
52.9747
51.1137
49.2462
47.4062
45.6378
41.5219
43.983
160.353
34.3486
35.2348
35.5996
36.0659
36.6469
37.3546
38.2006
39.1946
40.3432
41.6477
43.1021
44.6924
46.3945
48.1765
49.9985
51.8219
53.6089
55.3315
56.973
58.5329
60.0159
61.4558
62.8504
64.3196
65.7621
67.2718
68.9469
70.8006
72.87
75.1907
77.8212
80.7792
84.1291
87.8664
91.9932
96.5185
101.514
107.237
114.389
124.572
140.271
163.049
188.338
208.316
220.057
225.302
226.771
226.624
225.964
224.449
222.244
219.927
217.56
215.112
212.557
209.883
207.095
204.204
201.226
198.175
195.066
191.913
188.732
185.535
182.333
179.138
175.958
172.802
169.675
166.586
163.538
160.536
39.4146
32.6423
42.4641
40.1751
36.721
32.697
34.8606
32.9217
33.6544
33.2441
32.9446
33.6859
32.5962
34.9621
34.1853
159.584
162.586
165.639
168.739
171.88
175.058
178.265
181.497
184.744
187.996
191.242
194.468
197.664
200.811
203.893
206.894
209.795
212.581
215.245
217.795
220.26
222.677
224.973
226.507
227.165
227.3
225.448
219.071
204.894
181.324
153.474
131.159
117.065
108.003
101.443
96.0543
91.3676
87.2102
83.5183
80.2556
77.3871
74.8738
72.6737
70.7389
69.0338
67.5376
66.1465
64.7709
63.5488
62.2859
61.0291
59.7225
58.357
56.8964
55.3495
53.7001
51.9888
50.228
48.4568
46.7297
45.0913
35.9599
36.365
36.8759
37.5043
38.2614
39.1571
40.1987
41.3892
42.7255
44.1967
45.7826
47.4543
49.1751
50.9045
52.6018
54.2334
55.7747
57.2147
58.5524
59.8005
60.9771
62.1026
63.2168
64.3223
65.5267
66.7345
68.0185
69.4551
71.0783
72.9212
75.0258
77.4329
80.1939
83.3495
86.9397
91.0101
95.6429
101.06
107.81
117.33
132.27
155.606
183.628
206.483
219.816
225.596
227.127
226.96
226.251
224.642
222.373
220.003
217.583
215.073
212.445
209.693
206.825
203.854
200.798
197.676
194.502
191.294
188.066
184.83
181.599
178.381
175.186
172.021
168.893
165.806
162.766
159.776
156.839
157.583
158.225
158.764
159.201
159.534
159.765
159.894
159.922
159.849
159.68
159.414
159.052
158.593
158.037
157.387
35.6483
156.639
41.0873
43.553
34.7762
38.2499
32.5043
153.753
154.478
155.11
155.652
156.101
156.457
156.721
156.89
156.963
156.937
156.814
156.588
156.262
155.836
155.309
154.683
153.959
38.9884
35.891
32.6205
35.4221
36.4145
36.771
37.2254
37.7891
38.4735
39.2885
40.2422
41.3389
42.5778
43.9511
45.4429
47.0278
48.6727
50.3384
51.9842
53.5723
55.0728
56.4666
57.7467
58.9164
59.9887
60.9794
61.9127
62.809
63.6879
64.5796
65.4965
66.5297
67.5689
68.6946
69.9252
71.3585
73.0158
74.9182
77.1207
79.6725
82.6312
86.0654
90.0707
94.8526
100.83
109.192
122.501
145.244
176.303
203.291
219.086
225.782
227.503
227.322
226.566
224.866
222.527
220.097
217.612
215.026
212.311
209.465
206.501
203.437
200.293
197.089
193.844
190.573
187.293
184.016
180.752
177.51
174.3
171.127
167.997
164.916
161.886
158.911
155.995
153.138
42.1674
39.8744
34.2964
32.8517
33.2878
33.1996
32.7151
33.616
32.4651
34.1179
34.6548
36.1446
35.2919
37.3819
36.6735
152.932
155.79
158.711
161.692
164.729
167.818
170.958
174.142
177.363
180.617
183.896
187.19
190.488
193.779
197.047
200.278
203.452
206.55
209.551
212.437
215.194
217.827
220.366
222.853
225.231
226.859
227.563
227.709
225.631
218.296
201.652
174.189
143.76
122.156
109.487
101.396
95.4731
90.6557
86.5659
83.03
79.9707
77.3139
75.012
73.0174
71.2911
69.7956
68.4799
67.2687
66.0977
65.0502
64.043
63.0548
62.0532
61.0192
59.9303
58.748
57.4752
56.09
54.6097
53.0096
51.337
49.6515
47.9684
46.326
44.8
150.93
40.8952
43.3329
96.2347
150.138
37.2529
32.4578
151.63
152.242
152.767
153.206
153.556
153.814
153.98
154.052
154.028
153.908
153.689
153.373
152.959
152.447
151.839
151.138
150.343
37.9677
35.202
32.5795
37.7411
37.2545
37.6677
38.1805
38.8053
39.5531
40.4328
41.4501
42.606
43.8955
45.3062
46.8169
48.3981
50.0136
51.6235
53.1887
54.6757
56.0599
57.3277
58.4767
59.5132
60.4509
61.306
62.0984
62.8451
63.5671
64.2799
64.9979
65.7448
66.5219
67.4167
68.3543
69.3575
70.4728
71.7191
73.1918
74.9179
76.927
79.2793
82.044
85.3189
89.2746
94.2433
101.078
111.963
131.99
165.072
197.695
217.489
225.758
227.886
227.7
226.907
225.128
222.713
220.213
217.648
214.968
212.148
209.19
206.115
202.944
199.7
196.406
193.081
189.744
186.408
183.085
179.787
176.522
173.297
170.117
166.989
163.916
160.9
157.944
155.051
152.222
149.457
38.8117
33.8499
32.8302
42.0437
39.7879
33.0146
33.1749
32.5679
33.5948
32.4241
34.0807
34.629
35.2219
36.4802
148.172
147.41
38.789
38.5338
149.254
152.014
154.84
157.732
160.688
163.707
166.785
169.92
173.108
176.342
179.618
182.93
186.267
189.621
192.98
196.329
199.652
202.929
206.138
209.256
212.258
215.127
217.862
220.49
223.06
225.523
227.219
227.954
228.102
225.584
216.643
196.059
163.312
131.374
112.324
101.786
95.0316
90.0281
85.9806
82.6062
79.742
77.2895
75.1871
73.3766
71.8292
70.5198
69.339
68.2657
67.2152
66.3088
65.4587
64.6452
63.8446
63.0389
62.2097
61.3354
60.3854
59.3591
58.2378
56.9875
55.6099
54.1439
52.5808
50.9513
49.2993
47.6897
46.1094
44.6487
37.6526
37.0672
40.8772
43.2913
90.6939
36.4108
32.4321
148.846
149.437
149.947
150.372
150.71
150.962
151.123
151.193
151.17
151.054
150.843
150.537
150.136
149.641
149.054
148.377
147.611
146.758
37.0976
34.6491
32.5717
44.0368
38.1557
38.6462
39.2317
39.9274
40.7456
41.6948
42.7785
43.9943
45.3328
46.7766
48.3001
49.8703
51.4494
52.9987
54.4823
55.8719
57.1489
58.3053
59.3427
60.27
61.1012
61.8524
62.5405
63.1814
63.7908
64.3816
64.9677
65.5617
66.173
66.8159
67.5032
68.2689
69.1556
70.0633
71.0727
72.2136
73.5117
75.0583
76.8916
79.0569
81.6382
84.7602
88.6847
93.9405
102.135
117.664
148.842
187.925
214.192
225.351
228.287
228.104
227.285
225.443
222.945
220.357
217.69
214.893
211.946
208.859
205.655
202.363
199.008
195.616
192.206
188.796
185.401
182.033
178.701
175.412
172.174
168.991
165.868
162.806
159.808
156.876
154.011
151.213
148.484
145.822
37.9066
33.5052
32.8284
38.8269
32.8255
33.176
42.0764
39.8706
32.5128
33.594
32.4011
34.0765
34.6139
35.1989
145.48
144.75
35.8004
36.3963
74.1547
36.9475
146.561
145.625
148.277
150.998
153.789
156.649
159.578
162.575
165.638
168.766
171.954
175.2
178.496
181.839
185.221
188.633
192.064
195.499
198.923
202.314
205.647
208.897
212.035
215.038
217.899
220.641
223.314
225.87
227.618
228.369
228.508
225.141
213.273
186.406
147.859
117.881
102.896
94.8306
89.5381
85.5363
82.3125
79.627
77.3663
75.4445
73.8192
72.4571
71.2488
70.1693
69.179
68.2423
67.4509
66.7061
66.009
65.3365
64.6762
64.0165
63.3369
62.6269
61.8614
61.0342
60.1278
59.1068
57.9689
56.7316
55.352
53.8727
52.2995
50.721
49.1099
47.5343
46.0289
44.6467
370.544
41.0075
43.3865
91.9077
60.6985
35.7173
32.4311
146.128
146.697
147.188
147.596
147.924
148.168
148.323
148.389
148.366
148.255
148.051
147.755
147.369
146.894
146.329
145.678
144.942
144.124
143.228
36.3651
34.2023
32.6267
61.5363
45.6435
39.0735
39.6851
40.3661
41.1485
42.0472
43.0712
44.2228
45.4966
46.8791
48.3484
49.8751
51.424
52.9574
54.4392
55.8382
57.1322
58.3084
59.364
60.3039
61.1391
61.8834
62.5522
63.1605
63.7223
64.2503
64.7559
65.2494
65.7402
66.237
66.7499
67.289
67.8591
68.4804
69.1537
69.9383
70.8272
71.7614
72.814
74.0133
75.3932
77.0473
79.0361
81.4456
84.4347
88.3596
94.1243
105.565
129.103
171.426
207.382
224.123
228.765
228.602
227.767
225.875
223.254
220.535
217.733
214.792
211.695
208.457
205.108
201.681
198.205
194.706
191.206
187.721
184.266
180.852
177.487
174.178
170.931
167.748
164.632
161.586
158.611
155.708
152.875
150.115
147.425
144.806
142.257
37.1359
33.2538
32.9163
38.0164
32.73
33.2724
38.9977
32.4817
33.6887
42.2527
40.0828
32.4019
34.1495
34.6553
142.855
142.157
35.1958
35.7811
36.3526
36.9466
143.936
143.042
144.604
147.211
149.889
152.642
155.466
158.363
161.334
164.379
167.494
170.678
173.93
177.244
180.617
184.043
187.513
191.019
194.546
198.078
201.593
205.065
208.465
211.759
214.919
217.932
220.821
223.643
226.341
228.121
228.868
228.969
223.82
206.367
170.268
129.077
106.193
94.9901
89.2649
85.245
82.1706
79.6698
77.5918
75.8566
74.4035
73.14
72.0318
71.0415
70.0824
69.2631
68.5378
67.8772
67.2589
66.6722
66.1064
65.5532
64.9988
64.433
63.8462
63.2214
62.549
61.8153
60.9914
60.0697
59.0518
57.8922
56.6203
55.2076
53.7431
52.1795
50.5876
49.0459
47.5197
46.0996
44.7901
38.5107
41.2668
43.6071
37.6666
142.068
35.1418
32.5231
143.474
144.02
144.49
144.883
145.199
145.433
145.58
145.643
145.621
145.514
145.317
145.033
144.663
144.208
143.666
143.042
142.338
141.557
140.702
139.777
35.7712
33.8691
32.7331
39.7296
40.2076
40.3137
40.7443
41.5009
42.4033
43.4131
44.5324
45.762
47.0959
48.5184
50.0049
51.5239
53.04
54.5177
55.9248
57.2363
58.4357
59.5165
60.4798
61.3334
62.089
62.7606
63.3622
63.9072
64.4077
64.8745
65.3172
65.7442
66.1632
66.5812
67.0054
67.4426
67.9002
68.3869
68.9107
69.4777
70.1047
70.8033
71.622
72.5477
73.5348
74.6574
75.9436
77.4387
79.2506
81.4934
84.379
88.387
96.0724
113.018
146.899
193.898
220.718
228.998
229.04
228.342
226.533
223.671
220.746
217.767
214.654
211.382
207.973
204.461
200.885
197.277
193.664
190.069
186.507
182.993
179.535
176.14
172.815
169.562
166.384
163.283
160.259
157.312
154.442
151.648
148.93
146.286
143.715
141.215
138.787
36.5094
33.0929
33.0259
37.3394
32.6806
33.3883
39.5632
38.2676
32.4789
33.8023
39.2901
32.5022
34.2642
140.297
139.633
42.5474
40.4041
34.7615
35.2883
35.8151
36.385
37.0218
141.381
140.528
139.601
141.02
143.505
146.062
148.693
151.401
154.184
157.045
159.985
163.004
166.1
169.276
172.529
175.858
179.258
182.725
186.254
189.836
193.458
197.105
200.754
204.378
207.945
211.416
214.758
217.954
221.032
224.07
227.008
228.703
229.351
229.101
220.259
192.917
146.503
113.407
96.8461
89.2508
85.1997
82.2295
79.8986
78.0123
76.4494
75.1012
73.9265
72.8887
71.8987
71.0332
70.2993
69.6253
69.0204
68.459
67.9328
67.4306
66.9476
66.4725
65.9991
65.5199
65.0234
64.5014
63.9445
63.3421
62.6738
61.9312
61.1025
60.1518
59.0955
57.8925
56.6109
55.1863
53.6923
52.17
50.5993
49.1035
47.6616
46.3114
45.0672
41.6279
37.6982
43.9411
38.4666
138.605
34.6964
32.6304
140.888
141.408
141.857
142.231
142.532
142.756
142.898
142.958
142.936
142.832
142.644
142.373
142.019
141.583
141.065
140.47
139.799
139.056
138.243
137.365
136.427
35.2956
33.617
32.8707
41.2738
41.8217
42.2892
42.9616
43.8509
44.9292
46.1289
47.4287
48.8113
50.2586
51.7451
53.2393
54.7071
56.1167
57.4414
58.662
59.7684
60.7582
61.6368
62.413
63.0994
63.7088
64.2541
64.7472
65.1986
65.6174
66.0117
66.3888
66.755
67.1163
67.4783
67.8465
68.2266
68.6243
69.0457
69.4977
69.9885
70.5254
71.1157
71.7737
72.5164
73.3889
74.3822
75.4452
76.6646
78.0689
79.7433
81.8001
84.6861
89.5472
100.804
122.715
170.503
212.154
227.981
229.864
229.18
227.337
224.205
221.011
217.799
214.473
210.999
207.396
203.703
199.963
196.213
192.479
188.785
185.146
181.573
178.074
174.655
171.318
168.066
164.9
161.819
158.823
155.91
153.08
150.331
147.661
145.069
142.551
140.107
137.735
135.432
35.9904
32.9933
33.1848
40.9034
39.3589
36.7848
32.6685
33.5533
37.6593
32.5593
33.9692
137.808
137.176
38.6251
32.6102
39.6834
34.421
34.9058
42.9448
40.8248
35.4141
35.955
36.5237
37.1297
138.893
138.081
137.201
136.258
137.545
139.903
142.332
144.835
147.413
150.069
152.806
155.625
158.527
161.513
164.586
167.747
170.996
174.332
177.754
181.259
184.845
188.504
192.225
195.992
199.784
203.573
207.325
210.997
214.553
217.973
221.295
224.602
227.809
229.568
230.199
227.904
211.498
169.827
122.992
101.408
90.328
85.4871
82.5182
80.3917
78.6526
77.1929
75.9237
74.812
73.7751
72.8544
72.07
71.3743
70.7428
70.1724
69.6487
69.1633
68.7028
68.2656
67.8414
67.4281
67.0199
66.602
66.1767
65.7326
65.2659
64.7627
64.2121
63.6063
62.9327
62.1595
61.3002
60.3084
59.2315
58.0053
56.6686
55.2422
53.7638
52.2563
50.7836
49.3174
47.9337
46.6261
45.4203
42.0649
38.4446
44.3392
37.7823
135.258
34.3438
32.7904
138.37
138.864
139.289
139.644
139.931
140.145
140.28
140.336
140.313
140.213
140.033
139.775
139.438
139.022
138.53
137.965
137.327
136.621
135.851
135.021
134.134
133.197
34.9221
33.4524
33.0484
42.5888
43.1701
43.875
44.6323
45.5419
46.6069
47.8465
49.1882
50.6146
52.0753
53.5468
55.0005
56.4067
57.7383
58.975
60.1037
61.1193
62.024
62.8243
63.5316
64.1567
64.7123
65.2096
65.6589
66.0694
66.449
66.8047
67.1425
67.468
67.7864
68.1024
68.4207
68.7458
69.0825
69.4353
69.8093
70.2098
70.6426
71.1142
71.6326
72.205
72.8404
73.5497
74.3527
75.2965
76.3834
77.5438
78.9002
80.4688
82.5372
85.6132
92.9216
106.921
139.838
193.718
223.408
230.707
230.192
228.438
225.041
221.424
217.852
214.247
210.533
206.71
202.818
198.901
194.998
191.138
187.343
183.626
179.998
176.463
173.024
169.683
166.44
163.292
160.239
157.279
154.409
151.626
148.929
146.313
143.778
141.32
138.937
136.627
134.386
132.213
39.2906
35.5934
32.9709
33.3715
40.5594
42.0928
36.3378
32.7032
33.7471
135.387
134.787
37.1702
32.6678
32.7748
38.0823
34.1629
34.6144
39.0777
35.0939
40.1633
35.5977
43.3951
41.3318
36.1199
36.6852
37.2823
136.473
135.703
134.87
133.98
133.039
134.207
136.43
138.725
141.092
143.534
146.053
148.652
151.335
154.104
156.961
159.909
162.951
166.089
169.325
172.662
176.1
179.64
183.279
187.014
190.834
194.726
198.669
202.636
206.589
210.487
214.294
218.01
221.707
225.452
228.89
230.552
230.991
223.148
192.997
139.727
107.431
93.5502
86.3384
83.2292
81.1117
79.4899
78.088
76.8829
75.7621
74.7726
73.9272
73.1837
72.5174
71.9085
71.3597
70.8625
70.3976
69.9619
69.5535
69.1616
68.7863
68.4221
68.058
67.6927
67.3213
66.9382
66.5381
66.1106
65.6492
65.146
64.5935
63.9635
63.2665
62.464
61.5815
60.5656
59.4199
58.1787
56.8401
55.4344
53.9861
52.5236
51.0621
49.6288
48.2688
47.0002
45.8649
42.5875
37.9065
38.4695
44.8134
132.051
34.0875
32.9746
135.92
136.387
136.789
137.126
137.397
137.599
137.725
137.776
137.753
137.658
137.487
137.241
136.921
136.527
136.06
135.524
134.921
134.254
133.526
132.743
131.909
131.028
130.107
39.2415
34.6462
33.3824
38.5835
39.2343
33.2541
40.3324
41.6936
43.4083
43.9942
44.6738
45.4649
46.3701
47.3642
48.4824
49.7251
51.0758
52.4898
53.949
55.3926
56.7922
58.1252
59.3716
60.5166
61.5542
62.4832
63.3079
64.0372
64.6817
65.2528
65.7609
66.2162
66.6277
67.0033
67.3497
67.673
67.9786
68.2712
68.5556
68.8358
69.1161
69.4003
69.6923
69.9962
70.3157
70.6552
71.0187
71.4112
71.8373
72.3033
72.8145
73.3795
74.0051
74.7022
75.481
76.3591
77.391
78.5967
79.8862
81.5
83.4842
88.0848
96.624
118.158
161.95
211.262
229.841
230.843
229.588
226.46
222.099
217.955
213.963
209.959
205.891
201.783
197.678
193.616
189.627
185.731
181.94
178.26
174.695
171.244
167.907
164.681
161.561
158.545
155.629
152.809
150.082
147.444
144.891
142.419
140.027
137.711
135.468
133.295
131.19
129.151
35.2818
32.9618
33.593
133.031
132.464
35.9962
32.8066
32.8209
36.7826
33.9753
34.3947
37.6471
32.9601
34.8429
38.592
35.3174
39.6088
35.8125
40.7079
36.343
43.9083
41.8791
36.8934
37.4688
134.122
133.394
132.609
131.771
130.886
129.962
129.003
131.025
133.112
135.266
137.492
139.79
142.165
144.618
147.154
149.775
152.486
155.29
158.191
161.193
164.3
167.516
170.846
174.293
177.86
181.548
185.355
189.273
193.291
197.39
201.542
205.712
209.862
213.971
218.089
222.369
226.845
229.972
231.206
229.95
210.839
161.582
118.307
97.2413
88.7293
84.1605
82.1304
80.484
79.1487
77.9177
76.8426
75.9255
75.1144
74.386
73.7325
73.1368
72.5976
72.1079
71.6554
71.2319
70.8384
70.4648
70.1119
69.7766
69.4469
69.1189
68.7915
68.4625
68.1278
67.7784
67.4116
67.0187
66.595
66.1332
65.6159
65.0448
64.3981
63.6783
62.8469
61.9113
60.866
59.7205
58.4669
57.1491
55.7744
54.3205
52.8584
51.4032
50.0161
48.6647
47.3908
46.2577
43.1224
45.2425
44.4243
38.0804
47.594
33.9202
46.4999
45.505
38.7227
39.2979
40.1563
41.3804
42.9341
40.1064
41.1649
42.5594
40.0776
41.0162
42.2713
40.975
40.0753
42.0608
39.4166
41.918
40.9482
40.1555
33.1939
133.537
133.978
134.358
134.676
134.93
135.118
135.236
135.283
135.26
135.169
135.006
134.773
134.469
134.096
133.656
133.15
132.581
131.951
131.266
130.53
129.748
128.925
128.065
127.176
47.5396
48.9687
50.3492
51.7842
53.2546
54.6974
56.1366
57.5478
58.901
60.1415
61.294
62.3459
63.2987
64.1475
64.9058
65.5741
66.1663
66.6902
67.1624
67.5922
67.9831
68.345
68.6822
69.0008
69.3066
69.6059
69.8969
70.1887
70.4872
70.7935
71.1061
71.4298
71.7746
72.1423
72.5334
72.956
73.4099
73.9037
74.4444
75.0387
75.6907
76.4099
77.2096
78.0971
79.1025
80.2991
81.666
83.3957
85.6799
91.8787
103.052
130.958
186.316
223.016
231.857
230.991
228.234
223.308
218.302
213.6
209.1
204.663
200.262
195.918
191.664
187.524
183.514
179.643
175.915
172.329
168.882
165.569
162.382
159.316
156.364
153.519
150.777
148.133
145.581
143.116
140.736
138.435
136.211
134.061
131.98
129.966
128.018
34.4496
33.3449
33.4912
131.837
131.151
130.413
129.627
128.799
127.936
127.045
126.132
43.2219
43.5044
43.8746
44.3247
44.8811
45.5323
46.3062
47.1868
48.1807
49.2776
50.4619
51.7253
53.0714
54.4708
55.8761
57.2656
58.6009
59.8522
61.0085
62.0615
63.0095
63.8562
64.6073
65.2718
65.8599
66.3821
66.8481
67.2662
67.6442
67.9889
68.3062
68.6014
68.8794
69.1444
69.4005
69.6516
69.9014
70.1534
70.4111
70.678
70.9573
71.2525
71.5672
71.9049
72.2694
72.6648
73.0955
73.5662
74.0824
74.6501
75.2767
75.9696
76.7402
77.6011
78.5712
79.7213
81.0872
82.6822
85.4334
90.6382
103.452
130.081
187.159
223.156
231.598
230.699
227.907
223.06
218.19
213.632
209.252
204.903
200.563
196.264
192.044
187.929
183.937
180.077
176.355
172.768
169.315
165.991
162.791
159.709
156.74
153.878
151.117
148.454
145.882
143.398
140.998
138.679
136.435
134.266
132.166
130.134
128.167
126.263
35.065
33.0237
32.9338
35.7426
33.8404
34.2305
36.4932
33.0028
130.742
130.207
34.6524
37.3125
33.1827
35.1022
38.2028
35.5754
39.1626
36.0724
40.1904
36.5888
41.3007
37.1304
42.4752
37.6954
43.8855
38.287
38.914
43.007
41.8769
39.5705
44.1447
42.8508
33.8218
46.9718
45.3082
40.948
40.2729
33.4371
48.2918
49.0889
50.3737
51.925
53.5179
55.0762
56.5789
58.0025
59.3418
60.6096
61.8062
62.8776
63.8381
64.7078
65.4769
66.1654
66.7763
67.3215
67.8071
68.2417
68.6348
68.996
69.3289
69.64
69.9333
70.2128
70.4833
70.7507
71.0167
71.2802
71.5549
71.8384
72.1345
72.4426
72.7661
73.113
73.4857
73.8849
74.3161
74.7814
75.2876
75.8397
76.4428
77.1007
77.8221
78.6141
79.4905
80.4696
81.5929
83.0572
84.9412
87.899
96.3248
112.193
150.941
206.139
229.601
231.127
229.348
224.917
218.833
213.275
208.222
203.424
198.765
194.227
189.824
185.571
181.481
177.557
173.801
170.208
166.773
163.487
160.341
157.326
154.434
151.655
148.985
146.415
143.94
141.554
139.254
137.034
134.891
132.82
130.819
128.885
127.014
125.204
131.219
131.636
131.994
132.293
132.531
132.706
132.815
132.858
132.835
132.748
132.593
132.371
132.084
131.732
131.317
130.841
130.306
129.714
129.072
128.383
127.652
126.885
126.087
125.263
124.42
34.3546
33.3393
43.9457
54.5485
33.1283
34.9238
33.7524
34.115
44.4564
44.8417
45.3041
45.8566
46.4968
47.2401
48.0854
49.0434
50.1115
51.279
52.5166
53.8119
55.1455
56.5001
57.8557
59.1672
60.4128
61.5763
62.641
63.6044
64.4675
65.2368
65.9201
66.5261
67.0636
67.5419
67.9697
68.3541
68.7017
69.0185
69.3097
69.5798
69.8332
70.0739
70.3056
70.5319
70.7561
70.9816
71.2115
71.4489
71.6968
71.9583
72.2362
72.5338
72.854
73.2
73.5752
73.9832
74.4276
74.9125
75.4425
76.0223
76.6582
77.3567
78.126
78.9783
79.9325
81.0308
82.4305
84.2084
87.9455
94.7601
113.188
151.168
206.081
229.391
230.911
229.133
224.695
218.736
213.342
208.426
203.724
199.127
194.631
190.257
186.026
181.949
178.033
174.278
170.681
167.236
163.937
160.775
157.742
154.83
152.031
149.339
146.748
144.251
141.844
139.523
137.282
135.117
133.027
131.005
129.051
127.161
125.333
123.564
35.5821
33.1068
129.616
128.973
128.281
127.547
126.775
125.974
125.149
124.306
123.453
128.516
128.014
42.7671
42.7369
41.8462
34.5124
36.2865
33.2182
34.9394
37.0653
33.4267
35.3905
37.9088
35.8625
38.8048
36.3558
39.7882
36.8716
40.8464
37.4014
42.0363
37.9544
43.4184
38.5331
48.3769
39.1325
39.7671
33.7946
45.7008
45.6793
33.4058
34.3051
34.0392
128.966
129.359
129.696
129.977
130.2
130.362
130.461
130.5
130.476
130.395
130.247
130.036
129.763
129.433
129.044
128.597
128.095
127.542
126.941
126.299
125.62
124.908
124.17
123.41
122.636
121.853
92.8757
45.7753
46.3226
46.8877
47.5395
48.2723
49.108
50.0243
51.0503
52.1656
53.3824
54.6438
55.945
57.2628
58.5681
59.8441
61.0733
62.2273
63.2933
64.2659
65.1418
65.9265
66.6251
67.2464
67.799
68.2911
68.73
69.1228
69.4765
69.7962
70.0872
70.354
70.601
70.8319
71.0505
71.2604
71.4647
71.6667
71.8693
72.0756
72.2885
72.5106
72.7448
72.9936
73.2599
73.5463
73.8555
74.1902
74.5532
74.9475
75.376
75.8418
76.3483
76.8989
77.4978
78.1494
78.8591
79.6353
80.4843
81.4394
82.5073
84.0011
86.03
91.2448
100.45
125.338
175.054
218.979
230.862
229.765
226.143
219.639
213.256
207.553
202.36
197.458
192.757
188.239
183.905
179.759
175.802
172.03
168.437
165.015
161.752
158.64
155.666
152.822
150.097
147.483
144.973
142.56
140.237
138.001
135.845
133.766
131.759
129.822
127.95
126.141
124.393
122.702
121.067
34.8822
33.2738
49.1908
50.2012
51.3205
52.491
53.8603
55.371
56.937
58.4577
59.8807
61.1885
62.377
63.4387
64.4366
65.3417
66.1326
66.8357
67.4573
68.0114
68.511
68.9566
69.3597
69.7227
70.0552
70.3608
70.6457
70.9146
71.171
71.4182
71.6605
71.9005
72.1441
72.3905
72.6454
72.9129
73.1923
73.4912
73.8044
74.137
74.4959
74.8827
75.2983
75.7477
76.2324
76.7578
77.3281
77.9463
78.6169
79.345
80.1399
81.0082
81.9808
83.0706
84.6068
86.9675
90.8794
102.214
123.948
175.073
218.867
230.889
229.839
226.291
219.709
213.156
207.299
201.999
197.032
192.291
187.748
183.398
179.244
175.285
171.516
167.932
164.522
161.277
158.184
155.232
152.41
149.708
147.117
144.631
142.241
139.942
137.729
135.595
133.539
131.554
129.637
127.787
125.998
124.268