/*--------------------------------*- C++ -*----------------------------------*\
| =========                 |                                                 |
| \\      /  F ield         | OpenFOAM: The Open Source CFD Toolbox           |
|  \\    /   O peration     | Version:  2212                                  |
|   \\  /    A nd           | Website:  www.openfoam.com                      |
|    \\/     M anipulation  |                                                 |
\*---------------------------------------------------------------------------*/
FoamFile
{
    version     2.0;
    format      ascii;
    arch        "LSB;label=32;scalar=64";
    class       volScalarField;
    location    "0.000126";
    object      T;
}
// * * * * * * * * * * * * * * * * * * * * * * * * * * * * * * * * * * * * * //

dimensions      [0 0 0 1 0 0 0];

internalField   nonuniform List<scalar> 
232988
(
22.6653
24.5635
23.9639
23.9138
23.7366
23.7907
23.8373
23.7203
23.5777
23.4179
23.3742
23.5071
23.5641
23.4405
23.3509
23.2022
23.2489
23.4104
23.4874
23.3823
23.2498
23.1178
23.1681
23.2667
23.3324
23.2217
23.0261
22.9699
23.0188
23.1766
23.1193
22.9743
22.8631
22.85
22.9798
23.1879
23.2
23.0927
22.8739
22.831
22.8803
23.0499
23.027
22.8693
22.8163
22.7387
22.8368
23.0179
23.1027
23.0222
22.8669
22.7333
22.7686
22.9046
23.0494
22.9905
22.8924
22.807
22.7394
22.8478
22.9926
23.0835
23.0093
22.889
22.7352
22.7213
22.8436
23.0159
22.931
22.8087
22.7076
22.667
22.7702
22.9733
23.0854
22.978
22.7854
22.7473
22.8451
23.0184
23.011
22.8339
22.7246
22.7846
22.9292
22.9307
22.7369
22.6523
22.738
22.9797
22.9541
22.7727
22.7005
22.8343
23.0416
23.0614
22.8196
22.7444
22.8353
22.9553
23.0053
22.8569
22.78
22.8588
22.9295
22.9342
22.7729
22.7457
22.7911
22.9508
22.9158
22.8186
22.7928
22.8993
23.0013
22.9493
22.7349
22.6764
22.7316
22.8807
23.0975
23.07
22.9829
22.8456
22.918
23.0901
23.1423
23.0329
22.8573
22.8384
22.8932
22.9157
22.8345
22.7978
22.8311
23.0053
23.0568
22.8825
22.8049
22.889
23.0573
23.1572
22.971
22.809
22.8613
23.0203
23.1749
23.2827
23.1008
22.9131
23.0095
23.124
23.2423
23.1649
22.9446
22.9942
23.1138
23.264
23.2261
22.9983
22.9271
23.0552
23.3072
23.4683
23.4482
23.2045
23.046
23.0648
23.1998
23.3839
23.2996
23.1641
23.0278
23.0881
23.22
23.405
23.367
23.1593
23.0616
23.1452
23.3348
23.4429
23.2598
23.1806
23.1695
23.1428
23.1274
23.1728
23.2171
23.1955
23.1673
23.1455
23.1689
23.2794
23.4516
23.3587
23.1439
23.1664
23.3092
23.547
23.5539
23.3171
23.2401
23.3334
23.4871
23.4548
23.2762
23.2679
23.4015
23.5811
23.7142
23.5621
23.3244
23.3904
23.5887
23.694
23.5657
23.3905
23.4944
23.6452
23.5535
23.3388
23.3884
23.5798
23.6516
23.4351
23.3892
23.4983
23.5616
23.4569
23.4399
23.4406
23.447
23.4665
23.4916
23.5193
23.542
23.5557
23.4377
23.4126
23.4417
23.4449
23.4471
23.4846
23.5302
23.5131
23.4882
23.4513
23.426
23.4318
23.4631
23.5126
23.5771
23.5911
23.4943
23.5053
23.628
23.6382
23.608
23.5849
23.626
23.6542
23.5347
23.5039
23.5161
23.5228
23.5187
23.5496
23.5852
23.6206
23.6442
23.6521
23.6567
23.6895
23.7142
23.7622
23.7882
23.8179
23.8474
23.8707
23.8933
23.9188
23.9433
23.9638
23.9888
24.0242
24.0467
24.0372
24.0113
23.9837
23.9734
23.9868
23.9345
23.8763
23.8578
23.8868
23.9307
23.9827
24.036
24.0837
24.1245
24.1164
24.1142
24.101
24.0804
24.0779
24.1342
24.3075
24.7401
25.4421
24.5848
26.5813
25.9544
25.9532
25.8802
25.8822
25.7519
25.673
25.6463
25.5795
25.5856
25.5561
25.3888
25.3942
25.3701
25.3322
25.3799
25.3572
25.1807
25.1729
25.1378
25.1158
25.2225
25.2382
25.1708
25.1255
25.1121
25.1346
25.1713
25.1141
25.0089
25.0224
24.9795
25.0142
25.0577
24.9959
24.8876
24.8939
24.8861
24.9415
25.0014
24.9754
24.8463
24.8638
24.832
24.8317
24.9298
24.91
24.8437
24.8168
24.8368
24.8226
24.9263
24.9351
24.8733
24.7133
24.7261
24.7212
24.7695
24.8929
24.8849
24.8156
24.7685
24.7818
24.7847
24.8539
24.8969
24.8544
24.7501
24.74
24.7114
24.7355
24.829
24.816
24.6779
24.6262
24.6612
24.7854
24.8569
24.8348
24.7029
24.7131
24.7875
24.8571
24.83
24.7305
24.7533
24.7557
24.8199
24.7349
24.6438
24.6549
24.7658
24.8375
24.7793
24.6519
24.6784
24.7936
24.8361
24.8427
24.7533
24.724
24.7845
24.8119
24.813
24.7273
24.7371
24.7833
24.7948
24.6894
24.631
24.6332
24.7898
24.8493
24.8409
24.7365
24.7372
24.7198
24.8263
24.8434
24.7629
24.6588
24.6683
24.7017
24.8732
24.8961
24.8721
24.8411
24.8545
24.8693
24.8856
24.8249
24.8107
24.8187
24.8939
24.882
24.7658
24.7647
24.8211
24.9536
24.9529
24.8481
24.8141
24.8252
24.9161
24.9367
24.9411
24.8455
24.7841
24.8964
25.0014
24.9967
24.9737
24.8562
24.9017
25.0423
25.1059
25.0688
24.9409
24.9573
24.9525
25.1045
25.0947
25.0299
24.9058
24.9411
25.0494
25.1465
25.1617
25.0515
24.9336
24.9409
24.9744
25.0879
25.1449
25.0813
24.951
24.9929
25.0307
25.1496
25.1531
25.0111
25.0187
25.0662
25.0639
25.0634
25.0579
25.0417
25.0259
25.0363
25.0373
25.0222
25.061
25.149
25.0953
24.9955
25.0592
25.1498
25.2385
25.198
25.0625
25.1024
25.2009
25.2541
25.1661
25.061
25.131
25.2609
25.3526
25.328
25.2171
25.1356
25.2254
25.354
25.3655
25.3062
25.2065
25.3252
25.4129
25.3637
25.2066
25.2653
25.3853
25.3854
25.2469
25.2748
25.3544
25.3632
25.2626
25.3129
25.3246
25.313
25.287
25.2518
25.3039
25.3096
25.2901
25.1913
25.1977
25.2421
25.2412
25.2307
25.2356
25.2625
25.2566
25.2672
25.2821
25.232
25.2127
25.2311
25.2801
25.2803
25.2823
25.2151
25.2291
25.3081
25.3232
25.3078
25.3009
25.3283
25.3328
25.2637
25.2588
25.2735
25.2638
25.2505
25.2875
25.3179
25.3225
25.3385
25.3501
25.3636
25.3972
25.4179
25.4311
25.4064
25.4252
25.4824
25.5612
25.6538
25.6816
25.7
25.7171
25.7363
25.7516
25.7216
25.6695
25.6605
25.724
25.7286
25.7174
25.7297
25.7112
25.6634
25.5827
25.5482
25.5703
25.61
25.6518
25.6779
25.6952
25.7513
25.7778
25.7791
25.7591
25.7273
25.7556
25.8462
26.0886
26.315
23.8271
25.719
25.0777
25.1596
25.1747
25.1672
24.9228
24.9263
24.9186
24.9217
24.9851
24.8227
24.6446
24.6882
24.6663
24.7466
24.782
24.6007
24.4331
24.4712
24.4743
24.5562
24.6004
24.5095
24.3198
24.3478
24.4264
24.5816
24.5971
24.4092
24.3568
24.3988
24.4075
24.5141
24.4964
24.2321
24.1568
24.1656
24.2132
24.4032
24.4288
24.3107
24.1862
24.2461
24.219
24.3538
24.3953
24.2813
24.0361
24.0518
24.1533
24.3194
24.4059
24.3802
24.163
24.1121
24.1278
24.1572
24.3362
24.3302
24.232
23.9871
24.0001
24.0715
24.2531
24.3723
24.3466
24.1736
24.1422
24.1635
24.2026
24.3365
24.3225
24.1524
23.969
23.9988
24.1572
24.3091
24.2853
24.108
24.0132
24.1551
24.3234
24.3256
24.2262
24.1326
24.2385
24.3281
24.3165
24.1014
24.0962
24.1577
24.3303
24.292
24.0661
24.0212
24.1902
24.3474
24.3333
24.2646
24.1186
24.2422
24.3467
24.3179
24.2658
24.1798
24.2905
24.3488
24.3303
24.116
24.1229
24.199
24.3535
24.3373
24.2647
24.2098
24.2987
24.4153
24.4636
24.3721
24.1472
24.1288
24.1571
24.3069
24.4003
24.332
24.1839
24.2033
24.3615
24.4163
24.4108
24.3451
24.371
24.4183
24.4553
24.3727
24.2228
24.3145
24.4949
24.5128
24.4513
24.2863
24.3611
24.5006
24.5547
24.4884
24.421
24.2283
24.3236
24.5601
24.5569
24.5417
24.3966
24.3735
24.5504
24.6611
24.6466
24.5338
24.4725
24.5481
24.6952
24.6995
24.5601
24.3495
24.339
24.4591
24.7103
24.7566
24.7184
24.5071
24.4899
24.492
24.6219
24.7228
24.6743
24.4629
24.4577
24.5692
24.737
24.7547
24.6011
24.4578
24.5773
24.6388
24.6668
24.6781
24.6794
24.6487
24.6578
24.6724
24.6673
24.6708
24.7771
24.7616
24.5931
24.6055
24.7798
24.8784
24.831
24.6789
24.6228
24.7874
24.9317
24.8763
24.6614
24.6661
24.8455
25.017
24.9764
24.85
24.6717
24.7411
24.972
25.0233
24.9789
24.7898
24.8419
25.0732
25.0514
24.9109
24.8611
25.0573
25.0867
24.9473
24.8186
24.9714
25.0486
24.9669
24.8937
24.9978
25.0053
25.0035
24.9558
24.9518
25.0196
25.0049
24.9308
24.8706
24.9306
24.9864
24.9684
24.9645
24.9856
25.0048
24.9848
25.0004
25.0058
24.937
24.9493
25.0135
25.0106
24.9979
24.9363
24.9091
24.999
25.0707
25.0378
25.0186
25.0345
25.0788
25.0381
24.9508
25.038
25.0504
25.0263
25.0196
25.0669
25.0876
25.0874
25.0872
25.0917
25.0981
25.1313
25.1354
25.1355
25.0806
25.0827
25.0951
25.138
25.2045
25.2309
25.2431
25.2545
25.2682
25.2377
25.1589
25.1385
25.1786
25.2325
25.2527
25.2915
25.2917
25.3049
25.3388
25.3733
25.4384
25.5269
25.5924
25.6449
25.6841
25.7173
25.7466
25.7717
25.7874
25.8046
25.83
25.8898
26.0241
26.2935
26.5668
23.7518
25.5874
25.03
25.1106
25.105
25.0128
24.9006
24.9171
24.8921
24.9449
24.9479
24.7328
24.7385
24.7223
24.7348
24.8179
24.7589
24.5247
24.5493
24.5291
24.5576
24.6708
24.6417
24.3436
24.3448
24.3425
24.4497
24.6056
24.5463
24.3173
24.3669
24.3858
24.5067
24.5835
24.4736
24.217
24.2419
24.2291
24.3358
24.4663
24.4318
24.2007
24.2258
24.2441
24.2974
24.4462
24.4193
24.1797
24.0814
24.0938
24.1676
24.4186
24.4475
24.3429
24.1298
24.1661
24.1715
24.2768
24.4313
24.373
24.0281
24.0069
24.0208
24.0991
24.3511
24.4221
24.2563
24.0698
24.1287
24.1915
24.3317
24.4099
24.3425
24.0842
24.0921
24.0943
24.2861
24.3536
24.1399
23.9929
24.0853
24.2553
24.3795
24.3315
24.1059
24.1407
24.3004
24.388
24.326
24.2187
24.2491
24.3215
24.3523
24.1481
24.1149
24.1336
24.2851
24.3712
24.2562
24.088
24.1546
24.3098
24.3421
24.2765
24.192
24.2295
24.3447
24.3644
24.2732
24.2047
24.2182
24.368
24.4109
24.2821
24.1281
24.1367
24.3279
24.5211
24.5488
24.3297
24.2388
24.204
24.2166
24.4198
24.4291
24.1789
24.1265
24.171
24.3524
24.4081
24.3868
24.3711
24.4303
24.4867
24.4987
24.2935
24.2971
24.452
24.5943
24.5878
24.3444
24.3131
24.5122
24.6401
24.6353
24.5148
24.338
24.2814
24.4513
24.5904
24.5842
24.5149
24.3336
24.4218
24.6488
24.7236
24.6245
24.4149
24.5008
24.6934
24.8147
24.763
24.4541
24.4211
24.4204
24.5793
24.788
24.8258
24.6567
24.5203
24.5391
24.5728
24.7539
24.7882
24.5261
24.4929
24.5317
24.6552
24.8323
24.7762
24.5117
24.5359
24.6126
24.6882
24.7254
24.7158
24.675
24.7159
24.7302
24.7087
24.6865
24.7531
24.8435
24.7465
24.5972
24.6857
24.912
24.9424
24.8528
24.6489
24.7378
24.9399
24.9425
24.7393
24.7107
24.7916
25.0221
25.0365
24.9366
24.7228
24.7363
24.8129
25.0413
25.065
24.9505
24.8291
24.974
25.0889
25.0162
24.8325
24.9685
25.1354
25.1165
24.8634
24.9126
25.0406
25.029
24.9239
25.0207
25.0241
25.0233
24.988
24.9634
25.0677
25.065
25.0112
24.9011
24.946
25.0105
25.005
25.0076
25.0079
25.0306
25.0353
25.0068
24.9946
24.9446
24.967
25.0165
25.0632
25.0527
24.9623
24.9285
24.964
25.0961
25.095
25.0518
25.0248
25.0419
25.0556
24.9498
25.0028
25.0555
25.0347
25.0419
25.065
25.0974
25.1144
25.111
25.1016
25.1024
25.1091
25.1374
25.1377
25.1162
25.119
25.121
25.1358
25.1643
25.1694
25.1942
25.2051
25.2085
25.1822
25.122
25.1641
25.1968
25.2245
25.1985
25.2127
25.265
25.2674
25.3057
25.3473
25.4053
25.4665
25.5454
25.6176
25.6967
25.7824
25.8642
25.9397
26.0093
26.0635
26.1104
26.1561
26.2278
26.36
26.579
26.7834
23.5032
25.4411
24.9161
24.9852
24.9437
24.8005
24.7848
24.7905
24.7908
24.8226
24.7425
24.6324
24.6562
24.6433
24.6937
24.7175
24.5564
24.5056
24.4986
24.4968
24.5939
24.5844
24.3846
24.3254
24.3141
24.3242
24.4556
24.4184
24.1404
24.1296
24.1472
24.2911
24.4266
24.4094
24.2168
24.1976
24.1929
24.2333
24.3579
24.3279
24.0815
23.9804
23.9844
24.0792
24.3011
24.3268
24.2296
24.0386
24.0713
24.0631
24.2456
24.2611
24.1655
23.9205
23.9358
24.0293
24.1664
24.3056
24.2798
24.0571
24.0244
24.0083
24.0218
24.2277
24.2105
24.0395
23.8916
23.9265
23.9982
24.2192
24.2406
24.1869
24.0293
24.0589
24.0998
24.2108
24.177
23.9652
23.9474
23.993
24.1839
24.2057
24.1347
23.9292
23.9915
24.1796
24.2354
24.1922
24.0879
24.1657
24.2898
24.3003
24.1554
24.1493
24.1631
24.2292
24.2139
24.0582
23.9979
24.0225
24.1861
24.2128
24.183
24.0284
24.0418
24.2323
24.257
24.235
24.1375
24.1931
24.3312
24.3363
24.1622
24.0222
24.0313
24.0884
24.3207
24.3375
24.2984
24.2401
24.2375
24.2337
24.3671
24.3422
24.1522
24.1286
24.1418
24.2656
24.284
24.1639
24.1515
24.2068
24.3582
24.3506
24.1901
24.1593
24.354
24.459
24.4241
24.2496
24.222
24.3211
24.5216
24.5268
24.5411
24.407
24.2468
24.3867
24.5187
24.4929
24.4759
24.3007
24.3429
24.5538
24.5562
24.4736
24.3125
24.3671
24.5107
24.6267
24.6332
24.4948
24.4969
24.4579
24.5609
24.6788
24.6388
24.4862
24.3896
24.3777
24.5308
24.6763
24.6509
24.4804
24.467
24.5086
24.6024
24.7087
24.6507
24.4571
24.5303
24.5589
24.6175
24.6595
24.6403
24.5927
24.6649
24.7056
24.7004
24.6574
24.6836
24.7595
24.7234
24.5796
24.6618
24.8506
24.8119
24.7548
24.5973
24.6904
24.8877
24.8706
24.7283
24.6601
24.725
24.9462
24.9498
24.8855
24.7165
24.7484
24.7647
24.9399
24.9286
24.8966
24.7689
24.9103
25.0176
24.9357
24.7644
24.8582
25.0309
24.9957
24.8205
24.8838
25.003
24.9709
24.8635
24.9124
25.0185
25.0062
24.9588
24.8718
24.9655
25.0686
25.0398
24.8846
24.9025
24.9827
24.995
24.9878
24.9893
24.9935
25.0101
24.983
24.9284
24.886
24.9224
24.9635
25.0099
25.0385
24.9574
24.9186
24.9348
25.0297
25.0653
25.0399
25.0022
24.9927
24.9868
24.8957
24.902
25.003
24.9894
24.975
25.0148
25.0538
25.0802
25.0843
25.074
25.0576
25.0606
25.0854
25.0927
25.0829
25.0725
25.1017
25.0991
25.1104
25.12
25.0996
25.1138
25.1124
25.062
25.0115
25.0765
25.1079
25.1368
25.1435
25.1141
25.146
25.1628
25.2046
25.2578
25.3273
25.4003
25.4713
25.5557
25.6474
25.7409
25.8315
25.9238
26.0231
26.115
26.1907
26.2556
26.3235
26.4231
26.5813
26.801
26.9707
23.3508
25.3398
24.8469
24.9243
24.834
24.7172
24.7275
24.7069
24.7577
24.7593
24.6121
24.6156
24.6082
24.6125
24.6872
24.6402
24.475
24.5004
24.4935
24.5502
24.6018
24.5347
24.3361
24.3576
24.3439
24.4359
24.4655
24.257
24.1219
24.1314
24.1783
24.3469
24.3426
24.1683
24.0063
24.0977
24.1465
24.315
24.3475
24.2478
23.971
23.9853
23.9767
24.1007
24.2584
24.2397
24.0498
23.9951
24.0646
24.1688
24.2749
24.2094
23.8813
23.8395
23.8427
23.9336
24.2007
24.2595
24.1855
23.9647
24.0063
24.007
24.1643
24.2266
24.1247
23.8609
23.8689
23.9216
24.1315
24.1916
24.1366
23.8841
23.8317
23.9446
24.1425
24.2108
24.0635
23.9241
23.9249
24.0297
24.1841
24.0699
23.8464
23.8604
24.0091
24.2043
24.1837
23.9507
23.928
24.1318
24.276
24.2733
24.1057
24.1374
24.2186
24.2783
24.1909
24.0036
23.9929
24.04
24.1653
24.0715
23.9564
23.9922
24.0783
24.1978
24.1855
24.1128
24.0779
24.2358
24.3409
24.3096
24.0402
24.0286
24.0189
24.2112
24.3104
24.2751
24.127
24.1293
24.2084
24.337
24.4027
24.3303
24.1193
24.1195
24.1662
24.2842
24.1789
24.1168
24.1466
24.2108
24.207
24.1075
24.0746
24.1641
24.4077
24.4315
24.2803
24.1228
24.2073
24.4347
24.5132
24.5072
24.3868
24.1564
24.2506
24.4983
24.5167
24.4822
24.3204
24.2622
24.4394
24.5667
24.5356
24.2766
24.3004
24.3872
24.6073
24.6024
24.4683
24.3089
24.436
24.5302
24.6998
24.6839
24.5741
24.3424
24.3641
24.3891
24.6012
24.6394
24.5404
24.3429
24.4498
24.5522
24.7027
24.6903
24.4645
24.4201
24.5321
24.6155
24.6143
24.5655
24.5155
24.5826
24.6823
24.6882
24.6385
24.6388
24.7289
24.7329
24.5863
24.5838
24.7755
24.8631
24.8041
24.5825
24.5606
24.7798
24.9072
24.8581
24.6443
24.6724
24.8495
24.9583
24.9348
24.8036
24.7341
24.7625
24.8307
24.96
24.9183
24.7532
24.7521
24.9808
25.011
24.8219
24.7657
24.9447
25.0314
24.8774
24.7606
24.9254
25.0175
24.9048
24.8164
24.9657
24.988
24.9509
24.8361
24.8856
25.0434
25.0458
24.9356
24.8814
24.9373
25.0004
25.0025
24.9941
24.9894
24.9695
24.9269
24.8958
24.882
24.9023
24.9534
24.9711
24.9748
24.9632
24.9538
24.945
24.9656
25.077
25.0579
25.0272
24.9859
24.9514
24.8757
24.871
24.9582
24.9847
24.9645
24.986
25.01
25.0106
24.9952
24.9919
24.981
24.979
25.0293
25.0803
25.0824
25.0661
25.0771
25.0931
25.0956
25.1025
25.0989
25.0859
25.0795
25.0144
24.9704
25.0212
25.0775
25.1182
25.1512
25.1432
25.1176
25.1354
25.1477
25.1869
25.2494
25.3259
25.4077
25.4947
25.5862
25.6973
25.8111
25.9246
26.0392
26.1495
26.2486
26.3367
26.4158
26.4994
26.6048
26.7524
26.9488
27.1044
23.2095
25.2387
24.7393
24.7826
24.6526
24.5798
24.5882
24.6129
24.6398
24.5591
24.443
24.4626
24.4575
24.5566
24.5876
24.3818
24.3085
24.3312
24.3705
24.5269
24.5204
24.3673
24.3201
24.3374
24.3771
24.4645
24.4118
24.1629
24.177
24.1512
24.2733
24.3197
24.1509
23.9097
23.9237
23.9464
24.1286
24.2562
24.2391
24.0198
23.9751
23.9854
24.0212
24.1917
24.1487
23.9406
23.7578
23.788
23.9884
24.2138
24.2151
24.0248
23.879
23.8704
23.8628
24.0832
24.1196
24.0709
23.8012
23.805
23.9176
24.0944
24.1787
24.1318
23.9108
23.9132
23.921
24.0561
24.1319
24.0523
23.8022
23.8048
23.8117
23.9679
24.0806
24.0522
23.9192
23.9674
23.9823
24.0975
23.992
23.8251
23.8426
23.8932
24.0891
24.0744
23.8426
23.8574
23.9918
24.141
24.0525
23.8782
23.8764
24.0911
24.188
24.1697
24.0668
24.0836
24.0892
24.1349
24.041
23.9542
23.9538
24.035
24.1235
24.0567
23.908
23.8731
24.0083
24.2183
24.2219
24.1153
24.0841
24.0519
24.1231
24.262
24.2213
23.9788
23.8952
23.9159
24.1507
24.3277
24.3263
24.2
24.1671
24.2045
24.3172
24.2844
24.1514
24.1558
24.1958
24.1952
24.1244
24.1242
24.127
24.3138
24.299
24.18
24.0707
24.1547
24.3536
24.4329
24.3799
24.1721
24.0299
24.0811
24.3502
24.4627
24.4525
24.3706
24.1805
24.3316
24.5003
24.4796
24.3377
24.2881
24.3682
24.5522
24.5622
24.3212
24.1883
24.2235
24.3967
24.6085
24.6291
24.5918
24.3848
24.3849
24.4153
24.5489
24.5645
24.3877
24.2304
24.3049
24.5123
24.6558
24.6507
24.4865
24.4037
24.5014
24.5911
24.5909
24.4968
24.4732
24.5304
24.6563
24.6488
24.6294
24.5893
24.6785
24.7088
24.64
24.5477
24.7098
24.8484
24.7894
24.5868
24.5176
24.6552
24.8268
24.8017
24.6952
24.6958
24.8485
24.8809
24.8443
24.7389
24.6629
24.7415
24.7677
24.9056
24.9041
24.772
24.688
24.8524
24.9174
24.819
24.7101
24.8947
24.9437
24.8361
24.7299
24.8775
24.9329
24.8609
24.7719
24.8908
24.9631
24.9453
24.8089
24.8147
24.9747
25.023
24.9719
24.8528
24.9088
24.9493
24.9959
25.0004
24.9856
24.9336
24.8906
24.9112
24.9048
24.8982
24.9484
24.9423
24.9068
24.9127
24.9619
24.9536
24.9392
24.9894
25.0483
25.0259
24.9976
24.8956
24.8604
24.8566
24.9146
24.9853
24.9565
24.9707
24.9809
24.9754
24.9669
24.9781
24.9895
24.9848
24.9863
25.0312
25.0214
25.0054
25.0124
25.0563
25.0645
25.075
25.0753
25.0321
24.9953
24.9316
24.9306
24.9753
25.0236
25.0601
25.1001
25.128
25.12
25.0977
25.1146
25.1275
25.1792
25.2454
25.3256
25.4115
25.5045
25.6053
25.7207
25.8423
25.9657
26.0942
26.2285
26.3505
26.4551
26.5471
26.6415
26.7574
26.9078
27.0869
27.2155
23.19
25.1976
24.7113
24.7149
24.5594
24.5762
24.597
24.6151
24.5865
24.4069
24.4327
24.4348
24.4801
24.5361
24.4101
24.2213
24.2685
24.2924
24.3744
24.4211
24.2696
24.0973
24.1213
24.204
24.3811
24.4082
24.2715
24.1577
24.1874
24.2459
24.3568
24.2851
23.968
23.9523
23.9285
23.9804
24.1725
24.151
23.9806
23.7828
23.8547
23.9421
24.1359
24.1683
24.0378
23.7483
23.7489
23.7709
24.0284
24.1161
24.0999
23.8705
23.89
23.8721
24.036
24.1106
24.0467
23.7367
23.6817
23.7061
23.8854
24.0846
24.0938
23.9714
23.8474
23.8979
24.0033
24.1228
24.0647
23.8426
23.8147
23.7988
23.8641
24.0191
23.9722
23.7927
23.7956
23.9498
24.0683
24.0691
23.8603
23.8505
23.8313
23.9753
24.0381
23.8086
23.7681
23.8339
24.0395
24.0814
23.8056
23.7588
23.8125
24.0926
24.1262
24.0721
23.9759
24.0888
24.1368
24.1459
24.003
23.9686
23.959
24.0815
24.0803
23.8674
23.8365
23.8438
24.0565
24.1168
24.0867
23.9945
24.0615
24.0817
24.252
24.2387
24.0896
23.8698
23.8877
23.9432
24.209
24.2248
24.2024
24.0482
24.0818
24.2323
24.309
24.2188
24.1665
24.2025
24.2099
24.1758
24.1053
24.1036
24.158
24.3115
24.2449
24.0024
24.0479
24.1892
24.4004
24.3968
24.1287
24.0282
24.0318
24.142
24.4068
24.4263
24.3913
24.1235
24.1913
24.4295
24.4486
24.3892
24.175
24.2793
24.4764
24.5405
24.4963
24.2041
24.1935
24.2413
24.5211
24.5373
24.5306
24.3106
24.2373
24.3473
24.5221
24.5745
24.4174
24.2187
24.2225
24.3457
24.5866
24.6115
24.4942
24.3081
24.4089
24.5742
24.5798
24.4535
24.4167
24.5001
24.6269
24.6539
24.6188
24.544
24.6049
24.6751
24.6444
24.504
24.5819
24.8233
24.8321
24.7094
24.4806
24.5368
24.7604
24.7938
24.7479
24.6374
24.7333
24.8838
24.8704
24.7544
24.5499
24.5549
24.6762
24.8312
24.883
24.7925
24.649
24.7673
24.9002
24.8403
24.6564
24.751
24.9397
24.9173
24.6866
24.732
24.9209
24.919
24.7301
24.766
24.9357
24.9402
24.8133
24.7876
24.8936
25
24.9881
24.8616
24.8724
24.9356
24.9335
24.9733
24.9938
24.932
24.887
24.8966
24.9106
24.9043
24.9168
24.9463
24.9001
24.8618
24.9312
24.9597
24.9417
24.9432
25.0142
25.0179
24.9791
24.872
24.8552
24.8798
24.8925
24.9977
24.9699
24.959
24.9699
24.9632
24.9843
24.9838
24.983
24.9854
24.9913
25.0091
25.02
24.9476
24.9493
24.9539
24.9864
24.9958
25.0018
24.9855
24.9581
24.9235
24.9175
24.9539
25.007
25.0237
25.0393
25.0639
25.0743
25.0648
25.0797
25.0904
25.1189
25.174
25.2443
25.3255
25.4183
25.5221
25.6356
25.7631
25.8979
26.035
26.1736
26.3092
26.4341
26.544
26.644
26.7478
26.8688
27.0156
27.1866
27.303
23.1849
25.1671
24.6701
24.6344
24.5217
24.5604
24.5806
24.5768
24.4927
24.4138
24.4292
24.4219
24.4885
24.4787
24.2387
24.2509
24.257
24.2931
24.3817
24.3127
24.0381
24.0421
24.0542
24.1334
24.2905
24.2739
24.0517
24.0445
24.1295
24.2638
24.3034
24.181
23.9764
23.9761
23.9629
24.1194
24.164
24.0236
23.7434
23.7406
23.771
23.9624
24.1224
24.1018
23.8474
23.8017
23.78
23.8432
24.0438
23.9791
23.7298
23.6427
23.7701
23.9495
24.083
24.069
23.8769
23.7325
23.7133
23.7471
23.984
23.9599
23.8445
23.6177
23.6336
23.8239
24.0356
24.0451
23.9197
23.7955
23.8128
23.847
23.9882
23.9734
23.7671
23.7175
23.72
23.9562
24.0207
23.9385
23.8487
23.8632
23.9375
24.0413
23.9258
23.7884
23.7909
23.8975
23.9995
23.8365
23.7744
23.8044
23.9337
23.9917
23.8217
23.7495
23.7666
24.0069
24.0701
24.055
23.9947
24.0235
24.0997
24.1125
23.9481
23.8893
23.8719
23.9085
24.0477
23.9586
23.793
23.7683
23.904
24.1474
24.2266
24.1878
23.9372
23.9267
23.9184
24.072
24.1696
24.089
23.8648
23.8269
23.94
24.1908
24.2003
24.1356
24.1617
24.1899
24.1953
24.1401
24.1135
24.1581
24.2484
24.2122
24.0329
24.0282
24.1241
24.3231
24.3118
24.2065
24.0891
24.0624
24.0633
24.2691
24.3121
24.2812
24.0494
24.0529
24.3059
24.3809
24.3537
24.1447
24.1311
24.3648
24.4754
24.461
24.3356
24.2541
24.2803
24.444
24.4931
24.4454
24.2032
24.1485
24.2243
24.4135
24.5297
24.5228
24.2826
24.2575
24.2452
24.4987
24.5188
24.4289
24.2388
24.3168
24.5175
24.5363
24.4162
24.3377
24.4345
24.585
24.6298
24.6176
24.5066
24.5131
24.6274
24.6283
24.4928
24.4819
24.7131
24.7686
24.7192
24.4821
24.5476
24.6955
24.7351
24.6852
24.637
24.5992
24.7655
24.8276
24.767
24.5486
24.5566
24.555
24.6402
24.8333
24.8383
24.6334
24.6509
24.8491
24.8865
24.7081
24.6428
24.8501
24.8894
24.6987
24.6943
24.8503
24.8374
24.7094
24.7451
24.8984
24.8988
24.8164
24.7394
24.8247
24.9663
24.9604
24.8977
24.8309
24.9339
24.9151
24.9058
24.913
24.8902
24.8917
24.89
24.8812
24.8923
24.9012
24.9184
24.898
24.8422
24.8757
24.931
24.948
24.9365
24.9477
25.0038
24.9742
24.8686
24.8661
24.8705
24.8858
24.97
24.9847
24.9465
24.9541
24.9584
24.9526
24.9862
24.9794
24.9737
24.9726
24.981
24.9958
24.974
24.951
24.9571
24.9587
24.9398
24.9423
24.9636
24.9738
24.9634
24.9534
24.9676
25.003
24.9982
24.9919
25.0107
25.027
24.9959
25.0227
25.0521
25.0772
25.1155
25.1728
25.2441
25.3268
25.4218
25.5298
25.6495
25.7833
25.9255
26.0707
26.221
26.3755
26.5171
26.6389
26.7472
26.8575
26.982
27.123
27.2784
27.3794
23.1797
25.1318
24.6141
24.5531
24.5114
24.5415
24.5487
24.5287
24.4098
24.4121
24.4086
24.4237
24.4551
24.3503
24.2348
24.2563
24.2533
24.335
24.3479
24.1238
24.0661
24.0578
24.061
24.2069
24.2039
23.9464
23.8559
23.8712
24.003
24.1997
24.1857
23.9871
23.9499
23.9651
24.0544
24.1792
24.1568
23.8913
23.8005
23.7733
23.813
24.0472
24.0285
23.969
23.7828
23.8132
23.8373
24.0217
24.0061
23.749
23.6219
23.6251
23.7283
23.9797
24.005
23.9789
23.7652
23.7734
23.7609
23.9372
23.954
23.7923
23.5557
23.5519
23.599
23.8649
23.9396
23.8473
23.6449
23.6814
23.7725
23.9265
23.9642
23.8872
23.7157
23.7361
23.8031
23.9408
23.8852
23.6952
23.7183
23.8456
23.9898
24.0023
23.8425
23.8195
23.8918
23.9871
23.943
23.7791
23.7932
23.8528
23.9665
23.8246
23.7032
23.706
23.7909
23.9614
23.9327
23.8653
23.8707
24.0454
24.0962
24.0702
23.9151
23.9244
23.9074
24.0275
24.0232
23.791
23.7442
23.7359
23.8918
24.1062
24.1294
24.0387
23.9107
23.9507
24.0146
24.1676
24.103
23.8408
23.8019
23.8329
24.0008
24.1034
24.0529
23.9967
24.0762
24.0895
24.078
24.0301
24.1175
24.2106
24.2294
24.1504
23.9483
24.0336
24.2579
24.3067
24.2662
24.0911
24.0941
24.0677
24.1797
24.2935
24.2187
24.0186
23.988
24.0944
24.3192
24.2903
24.1319
24.0334
24.1679
24.4135
24.4351
24.3565
24.1302
24.2386
24.4198
24.4888
24.4154
24.2263
24.1419
24.1766
24.3059
24.4628
24.4424
24.2904
24.2418
24.3137
24.4688
24.4827
24.3665
24.1863
24.2409
24.4224
24.5086
24.4309
24.2703
24.3604
24.548
24.5678
24.5626
24.4954
24.4524
24.5612
24.5931
24.4898
24.4174
24.5703
24.705
24.6708
24.4597
24.4409
24.6437
24.7273
24.6795
24.6102
24.5391
24.6043
24.72
24.6525
24.5276
24.5797
24.5719
24.5781
24.7234
24.7769
24.6194
24.5867
24.7493
24.8088
24.7422
24.6189
24.7786
24.8223
24.6889
24.6409
24.7652
24.857
24.7589
24.6708
24.7758
24.9259
24.8846
24.7076
24.7493
24.9237
24.9306
24.9034
24.8016
24.8527
24.9385
24.893
24.8342
24.7973
24.8622
24.9185
24.885
24.8577
24.8736
24.8974
24.9076
24.8382
24.8562
24.8819
24.9276
24.9446
24.9368
24.9464
24.9527
24.8744
24.881
24.8758
24.8665
24.9074
24.9798
24.9526
24.9476
24.9474
24.9476
24.9553
24.9818
24.9776
24.9711
24.9708
24.9788
24.9743
24.9314
24.9575
24.9554
24.9584
24.9584
24.9598
24.9724
24.9734
24.9586
24.9686
24.9909
24.9772
24.9406
24.9542
24.9902
24.9929
24.9923
25.0198
25.051
25.0757
25.1139
25.1712
25.2446
25.3277
25.4276
25.5425
25.6743
25.8196
25.9719
26.1262
26.2829
26.4387
26.5817
26.7065
26.8196
26.9365
27.0655
27.2058
27.3552
27.4445
23.1837
25.0987
24.5301
24.5159
24.4935
24.5192
24.5197
24.446
24.3758
24.392
24.3879
24.4127
24.3971
24.2539
24.2502
24.2446
24.2793
24.3424
24.2877
24.1053
24.1178
24.114
24.1867
24.2458
24.0735
23.8876
23.8796
23.8865
24.0407
24.0674
23.8707
23.7183
23.7267
23.8467
24.0669
24.0921
24.0652
23.8196
23.8264
23.833
24.0187
24.0305
23.9238
23.7252
23.6488
23.7848
23.9762
24.0133
23.9147
23.6801
23.674
23.6659
23.8836
23.8778
23.8424
23.6855
23.6626
23.7627
23.9083
23.9489
23.8639
23.6091
23.6016
23.5823
23.7228
23.829
23.7
23.4668
23.4835
23.5592
23.8032
23.8706
23.8582
23.6995
23.7008
23.8009
23.9255
23.8882
23.6394
23.6185
23.6247
23.8461
23.9082
23.8199
23.7112
23.7975
23.9255
23.9375
23.83
23.8193
23.9057
23.9843
23.9271
23.7637
23.7594
23.7614
23.8966
23.8231
23.6633
23.6479
23.726
23.9424
23.9695
23.9214
23.8956
23.9366
24.0395
24.0748
23.9581
23.8143
23.7861
23.8057
24.0109
23.9881
23.9573
23.7977
23.8256
23.9569
24.1414
24.1449
23.9704
23.8347
23.8293
23.8534
24.062
24.0124
23.8084
23.8033
23.8347
23.8293
23.8611
23.9655
24.1393
24.1534
24.1164
23.8887
23.9364
24.1737
24.2302
24.2097
24.1086
24.0736
24.0706
24.1306
24.2897
24.2804
24.118
23.995
24.0238
24.2244
24.2513
24.0873
23.9783
24.0538
24.3071
24.3177
24.2885
24.0547
24.0886
24.2693
24.4043
24.4163
24.2659
24.1081
24.1851
24.2563
24.4279
24.395
24.1662
24.0765
24.1547
24.4085
24.493
24.4211
24.1569
24.1912
24.3345
24.471
24.4305
24.2276
24.2918
24.4821
24.5341
24.5319
24.4499
24.3587
24.4864
24.5583
24.4756
24.3598
24.4585
24.6481
24.6437
24.4349
24.3471
24.4793
24.7029
24.6873
24.6512
24.5392
24.4816
24.6253
24.6484
24.4793
24.517
24.5552
24.5557
24.6333
24.7062
24.5797
24.5307
24.6692
24.7574
24.7122
24.5687
24.6671
24.8099
24.7635
24.6016
24.6623
24.8172
24.805
24.6772
24.732
24.8806
24.8648
24.7394
24.7208
24.8792
24.9029
24.8898
24.8258
24.7882
24.9217
24.9039
24.831
24.7402
24.7981
24.8953
24.9196
24.8741
24.8293
24.8491
24.8751
24.8291
24.8458
24.8693
24.8672
24.8916
24.9202
24.9152
24.8978
24.8784
24.8816
24.8764
24.8567
24.8623
24.9422
24.9439
24.9478
24.9505
24.94
24.9309
24.9528
24.9705
24.9711
24.9661
24.9666
24.9691
24.9248
24.9419
24.9534
24.9472
24.9548
24.9581
24.9618
24.9683
24.9602
24.9511
24.9626
24.9629
24.9085
24.9371
24.956
24.9653
24.9614
24.9956
25.0131
25.0457
25.0734
25.1163
25.172
25.2464
25.3336
25.4359
25.556
25.692
25.8411
25.9974
26.157
26.3226
26.4914
26.6467
26.7802
26.8981
27.0164
27.1443
27.2798
27.4173
27.4981
23.1773
25
24.3999
24.4603
24.4303
24.4719
24.4776
24.3499
24.34
24.3311
24.35
24.377
24.3071
24.2133
24.2258
24.2115
24.2835
24.2929
24.1762
24.1128
24.1184
24.1339
24.2354
24.2296
23.9858
23.97
23.9575
24.0067
24.0946
23.9124
23.7072
23.699
23.7085
23.8638
23.9801
23.9253
23.6599
23.5887
23.721
23.9044
23.9984
23.9925
23.7917
23.5748
23.6123
23.8269
23.9356
23.9341
23.7667
23.7042
23.7131
23.8373
23.8969
23.8012
23.5122
23.4517
23.4681
23.7385
23.8918
23.8825
23.7135
23.6342
23.6201
23.6878
23.8153
23.7353
23.4725
23.4695
23.4788
23.6827
23.7939
23.7599
23.5661
23.4767
23.5936
23.8411
23.8896
23.7731
23.6338
23.6386
23.7447
23.841
23.7063
23.5049
23.5306
23.7695
23.852
23.8076
23.686
23.7588
23.9383
23.9612
23.8485
23.7915
23.8254
23.9034
23.9138
23.6852
23.6532
23.6487
23.8034
23.8616
23.7506
23.6671
23.7079
23.8986
24.0284
24.0311
23.9154
23.8379
23.8078
23.9575
24.0123
23.9121
23.6789
23.6259
23.6599
23.9687
24.0774
24.053
23.8685
23.8795
23.868
24.0072
24.0645
23.8592
23.7838
23.8152
23.8435
23.8413
23.8817
24.0606
24.1028
24.0394
23.806
23.7953
24.003
24.1669
24.1209
23.9837
23.9446
23.9673
24.0254
24.221
24.2447
24.224
24.0505
24.0782
24.2217
24.2394
24.0993
23.9841
24.0094
24.2361
24.2796
24.2247
24.0864
24.0425
24.1352
24.355
24.3406
24.2421
24.0242
24.1064
24.2544
24.4025
24.3888
24.2005
24.0862
24.0992
24.2369
24.3656
24.3689
24.1393
24.1668
24.3185
24.4355
24.4035
24.2122
24.2332
24.4517
24.4679
24.4395
24.3504
24.2776
24.3829
24.5012
24.476
24.3217
24.379
24.573
24.5851
24.4266
24.3157
24.3853
24.6368
24.6453
24.6471
24.6195
24.4326
24.5108
24.5889
24.4846
24.4979
24.5243
24.5186
24.5572
24.6367
24.5558
24.4753
24.5439
24.7358
24.7442
24.5978
24.5455
24.7303
24.7768
24.6435
24.6492
24.7763
24.7622
24.6954
24.7128
24.8592
24.8605
24.7851
24.6757
24.8173
24.8933
24.8798
24.8641
24.7469
24.8178
24.9243
24.8739
24.7215
24.7547
24.8068
24.9043
24.9066
24.8632
24.8049
24.7995
24.7812
24.8157
24.869
24.8649
24.8577
24.8593
24.8579
24.853
24.8818
24.8883
24.887
24.8569
24.8522
24.8744
24.9406
24.9319
24.942
24.9316
24.8908
24.8964
24.9418
24.9483
24.952
24.9556
24.9564
24.9382
24.923
24.9426
24.9428
24.9343
24.946
24.9508