/*--------------------------------*- C++ -*----------------------------------*\
| =========                 |                                                 |
| \\      /  F ield         | OpenFOAM: The Open Source CFD Toolbox           |
|  \\    /   O peration     | Version:  2212                                  |
|   \\  /    A nd           | Website:  www.openfoam.com                      |
|    \\/     M anipulation  |                                                 |
\*---------------------------------------------------------------------------*/
FoamFile
{
    version     2.0;
    format      ascii;
    arch        "LSB;label=32;scalar=64";
    class       volScalarField;
    location    "0.00046";
    object      alphat;
}
// * * * * * * * * * * * * * * * * * * * * * * * * * * * * * * * * * * * * * //

dimensions      [1 -1 -1 0 0 0 0];

internalField   nonuniform List<scalar> 
7220
(
0.00162896
0.00162896
0.00162892
0.0016288
0.00162896
0.00162892
0.00162892
0.00162896
0.0016288
0.00162892
0.00162419
0.00132852
0.00162392
0.00161393
0.0015116
0.0015578
0.00142359
0.00162898
0.00146892
0.00162898
0.00158913
0.0016329
0.00162448
0.00162806
0.0016296
0.00163302
0.000752126
0.00162885
0.0015787
0.00155749
0.00162902
0.00158486
0.00162898
0.00154717
0.00163275
0.00162898
0.00162879
0.0016172
0.00162413
0.00162898
0.00162898
0.00162898
0.00162898
0.00162898
0.00162898
0.00162898
0.00162898
0.00162898
0.00162898
0.00162898
0.00162898
0.00162898
0.00162898
0.00162898
0.00162898
0.00162898
0.00162898
0.00162898
0.00162898
0.00162898
0.00162898
0.00162898
0.00162898
0.00162898
0.00162898
0.00162898
0.00162898
0.00162898
0.00162898
0.00162898
0.00162898
0.00162898
0.00162898
0.00162898
0.00162898
0.00162898
0.00162898
0.00162898
0.00162898
0.00162898
0.00162898
0.00162898
0.00162898
0.00162898
0.00162898
0.00162898
0.00162898
0.00162898
0.00162898
0.00162898
0.00162898
0.00162898
0.00162898
0.00162898
0.00162898
0.00162898
0.00162898
0.00162898
0.00162898
0.00162898
0.00162898
0.00162898
0.00162898
0.00162898
0.00162898
0.00162898
0.00162898
0.00162898
0.00162898
0.00162898
0.00162898
0.00162898
0.00162898
0.00162898
0.00162898
0.00162898
0.00162898
0.00162898
0.00162898
0.00162898
0.00162898
0.00162898
0.00162898
0.00162898
0.00162898
0.00162898
0.00162898
0.00162898
0.00162898
0.00162898
0.00162898
0.00162898
0.00162898
0.00162898
0.00162898
0.00162898
0.00162898
0.00162898
0.00162898
0.00162898
0.00162898
0.00162898
0.00162898
0.00162898
0.00162898
0.00162898
0.00162898
0.00162898
0.00162898
0.00162898
0.00162898
0.00162898
0.00162898
0.00162898
0.00162898
0.00162898
0.00162898
0.00162898
0.00162898
0.00162898
0.00162898
0.00162898
0.00162898
0.00162898
0.00162898
0.00162898
0.00162898
0.00162898
0.00162898
0.00162898
0.00162898
0.00162898
0.00162898
0.00162898
0.00162898
0.00162898
0.00162898
0.00162898
0.00162898
0.00162898
0.00162898
0.00162898
0.00162898
0.00162898
0.00162898
0.00162898
0.00162898
0.00162898
0.00162898
0.00162898
0.00162898
0.00162898
0.00162898
0.00162898
0.00162898
0.00162898
0.00162898
0.00162898
0.00162898
0.00162898
0.00162898
0.00162898
0.00162898
0.00162898
0.00162898
0.00162898
0.00162898
0.00162898
0.00162898
0.00162898
0.00162898
0.00162898
0.00162898
0.00162898
0.00162898
0.00162898
0.00162898
0.00162898
0.00162898
0.00162898
0.00162898
0.00162898
0.00162898
0.00162898
0.00162898
0.00162898
0.00162898
0.00162898
0.00162898
0.00162898
0.00162898
0.00162898
0.00162898
0.00162898
0.00162898
0.00162898
0.00162898
0.00162898
0.00162898
0.00162898
0.00162898
0.00162898
0.00162898
0.00162898
0.00162898
0.00162898
0.00162898
0.00162898
0.00162898
0.00162898
0.00162898
0.00162898
0.00162898
0.00162898
0.00162898
0.00162898
0.00162898
0.00162898
0.00162898
0.00162898
0.00162898
0.00162898
0.00162898
0.00162898
0.00162898
0.00162898
0.00162898
0.00162898
0.00162898
0.00162898
0.00162898
0.00162898
0.00162898
0.00162898
0.00162898
0.00162898
0.00162898
0.00162898
0.00162898
0.00162898
0.00162898
0.00162898
0.00162898
0.00162898
0.00162898
0.00162898
0.00162898
0.00162898
0.00162898
0.00162898
0.00162898
0.00162898
0.00162898
0.00162898
0.00162898
0.00162898
0.00162898
0.00162898
0.00162898
0.00162898
0.00162898
0.00162898
0.00162898
0.00162898
0.00162898
0.00162898
0.00162898
0.00162898
0.00162898
0.00162898
0.00162898
0.00162898
0.00162898
0.00162898
0.00162898
0.00162898
0.00162898
0.00162898
0.00162898
0.00162898
0.00162898
0.00162898
0.00162898
0.00162898
0.00162898
0.00162898
0.00162898
0.00162898
0.00162898
0.00162898
0.00162898
0.00162898
0.00162898
0.00162898
0.00162898
0.00162898
0.00162898
0.00162898
0.00162898
0.00162898
0.00162898
0.00162898
0.00162898
0.00162898
0.00162898
0.00162898
0.00162898
0.00162898
0.00162898
0.00162898
0.00162898
0.00162898
0.00162898
0.00162898
0.00162898
0.00162898
0.00162898
0.00162898
0.00162898
0.00162898
0.00162898
0.00162898
0.00162898
0.00162898
0.00162898
0.00162898
0.00162898
0.00162898
0.00162898
0.00162898
0.00162898
0.00162898
0.00162898
0.00162898
0.00162898
0.00162898
0.00162898
0.00162898
0.00162898
0.00162898
0.00162898
0.00162898
0.00162898
0.00162898
0.00162898
0.00162898
0.00162898
0.00162898
0.00162898
0.00162898
0.00162898
0.00162898
0.00162897
0.00162897
0.00162897
0.00162897
0.00162898
0.00162897
0.00162898
0.00162898
0.00162897
0.00162898
0.00162898
0.00162898
0.00162898
0.00162898
0.00162898
0.00162898
0.00162898
0.00162898
0.00162898
0.00162897
0.00162898
0.00162897
0.00162898
0.00162898
0.00162897
0.00162897
0.00162897
0.00162897
0.00162897
0.00162897
0.00162898
0.00162897
0.00162897
0.00162897
0.00162897
0.00162897
0.00162897
0.00162897
0.00162898
0.00162898
0.00162898
0.00162898
0.00162898
0.00162898
0.00162898
0.00162898
0.00162898
0.00162898
0.00162898
0.00162898
0.00162898
0.00162898
0.00162898
0.00162898
0.00162897
0.00162897
0.00162897
0.00162897
0.00162896
0.00162897
0.00162897
0.00162898
0.00162898
0.00162898
0.00162898
0.00162897
0.00162897
0.00162898
0.00162898
0.00162898
0.00162898
0.00162898
0.00162898
0.00162898
0.00162897
0.00162897
0.00162897
0.00162897
0.00162897
0.00162897
0.00162897
0.00162897
0.00162897
0.00162897
0.00162897
0.00162897
0.00162897
0.00162897
0.00162897
0.00162897
0.00162897
0.00162897
0.00162897
0.00162897
0.00162897
0.00162897
0.00162897
0.00162897
0.00162897
0.00162897
0.00162897
0.00162897
0.00162897
0.00162897
0.00162897
0.00162897
0.00162897
0.00162897
0.00162897
0.00162897
0.00162897
0.00162897
0.00162897
0.00162897
0.00162896
0.00162897
0.00162897
0.00162897
0.00162897
0.00162897
0.00162897
0.00162897
0.00162897
0.00162897
0.00162897
0.00162897
0.00162897
0.00162897
0.00162897
0.00162897
0.00162897
0.00162896
0.00162897
0.00162897
0.00162896
0.00162897
0.00162897
0.00162897
0.00162897
0.00162897
0.00162897
0.00162897
0.00162897
0.00162897
0.00162897
0.00162897
0.00162897
0.00162898
0.00162897
0.00162896
0.00162896
0.00162893
0.00162893
0.00162898
0.00162898
0.00162898
0.00162898
0.00162898
0.00162898
0.00162897
0.00162898
0.00162892
0.00162898
0.00162898
0.00162898
0.00162897
0.00162893
0.00162893
0.00162893
0.00162893
0.00162893
0.00162893
0.00162893
0.00162893
0.00162893
0.00162893
0.00162893
0.00162893
0.00162893
0.00162893
0.00162893
0.00162893
0.00162893
0.00162893
0.00162893
0.00162893
0.00162893
0.00162893
0.00162893
0.00162893
0.00162893
0.00162893
0.00162893
0.00162893
0.00162893
0.00162893
0.00162893
0.00162893
0.00162893
0.00162893
0.00162893
0.00162891
0.00162896
0.00162895
0.00162896
0.00162896
0.00162896
0.00162896
0.00162896
0.00162896
0.00162896
0.00162896
0.00162896
0.00162896
0.00162895
0.00162896
0.00162891
0.00162893
0.00162893
0.00162893
0.00162893
0.00162893
0.00162893
0.00162893
0.00162893
0.00162893
0.00162893
0.00162893
0.00162893
0.00162893
0.00162893
0.00162893
0.00162893
0.00162893
0.00162893
0.00162893
0.00162893
0.00162893
0.00162893
0.00162893
0.00162893
0.00162893
0.00162893
0.00162893
0.00162894
0.00162894
0.00162894
0.00162894
0.00162894
0.00162893
0.00162894
0.00162894
0.00162894
0.00162893
0.00162894
0.00162894
0.00162894
0.00162897
0.00162894
0.00162898
0.00162898
0.00162897
0.00162893
0.00162898
0.0016288
0.0016288
0.00162879
0.00162889
0.00162886
0.00162898
0.00162897
0.00162898
0.00162898
0.00162898
0.00162898
0.00162898
0.00162897
0.00162898
0.00162898
0.00162899
0.00163145
0.00162899
0.00162898
0.00162898
0.00162898
0.00162898
0.00162884
0.00162882
0.00162898
0.00162898
0.00162897
0.00162898
0.00162893
0.00163
0.00162896
0.00162892
0.00162898
0.00162878
0.00162892
0.00162877
0.00162877
0.00162879
0.00162878
0.0016288
0.00162879
0.0016288
0.0016288
0.00162881
0.00162881
0.00162881
0.00162881
0.00162881
0.00162881
0.00162881
0.00162881
0.00162881
0.00162881
0.00162881
0.00162881
0.00162881
0.00162881
0.00162881
0.00162881
0.00162881
0.00162881
0.00162881
0.00162881
0.00162881
0.00162881
0.00162881
0.00162881
0.00162881
0.00162881
0.00162881
0.00162881
0.00162881
0.00162881
0.00162881
0.00162886
0.0016289
0.00162889
0.0016289
0.0016289
0.0016289
0.0016289
0.0016289
0.0016289
0.0016289
0.0016289
0.0016289
0.0016289
0.0016289
0.00162879
0.00162881
0.0016288
0.00162881
0.00162881
0.00162881
0.00162881
0.00162881
0.00162881
0.00162881
0.00162881
0.00162881
0.00162881
0.00162881
0.00162881
0.00162881
0.00162881
0.00162881
0.00162881
0.00162881
0.00162881
0.00162881
0.00162881
0.0016288
0.0016288
0.0016288
0.0016288
0.0016288
0.0016288
0.00162882
0.00162882
0.00162882
0.00162882
0.00162881
0.00162881
0.00162883
0.00162881
0.00162882
0.00162882
0.00162882
0.00162882
0.00162882
0.00162898
0.00162898
0.00162898
0.00162898
0.00162898
0.00162898
0.0016288
0.00163729
0.00162896
0.00162873
0.00162873
0.00162898
0.00162898
0.00162898
0.00162898
0.00162898
0.00162897
0.00162902
0.00162898
0.00162846
0.00162845
0.00162882
0.00162898
0.00162898
0.00162898
0.00162896
0.000161615
0.00162898
0.00162342
0.00162892
0.001629
0.00162898
0.00162898
0.00162898
0.00162898
0.00162896
0.00162898
0.00162898
0.00162892
0.00162831
0.00162833
0.00162836
0.00162834
0.00162838
0.00162837
0.00162839
0.00162839
0.00162841
0.0016284
0.00162842
0.00162841
0.00162842
0.00162842
0.00162842
0.00162842
0.00162842
0.00162842
0.00162842
0.00162842
0.00162842
0.00162842
0.00162842
0.00162842
0.00162842
0.00162842
0.00162842
0.00162842
0.00162842
0.00162842
0.00162842
0.00162842
0.00162842
0.00162842
0.00162842
0.00162842
0.00162842
0.00162842
0.00162842
0.00162842
0.00162835
0.00162841
0.00162814
0.00162865
0.00162852
0.00162869
0.00162868
0.0016287
0.00162869
0.0016287
0.0016287
0.0016287
0.0016287
0.0016287
0.0016287
0.00162869
0.0016287
0.00162868
0.00162869
0.00162852
0.00162865
0.00162814
0.00162841
0.00162835
0.00162842
0.00162842
0.00162842
0.00162842
0.00162842
0.00162842
0.00162842
0.00162842
0.00162842
0.00162842
0.00162843
0.00162843
0.00162843
0.00162843
0.00162843
0.00162843
0.00162842
0.00162842
0.00162842
0.00162842
0.00162842
0.00162842
0.00162842
0.00162842
0.00162842
0.00162842
0.00162844
0.00162843
0.00162845
0.00162845
0.00162845
0.00162845
0.00162846
0.00162846
0.00162846
0.00162846
0.00162846
0.00162846
0.00162846
0.00162846
0.00162846
0.00162898
0.00162898
0.00162811
0.00162898
0.00162898
0.00162898
0.00162898
0.00162898
0.00162897
0.00162897
0.00162899
0.00162898
0.00162897
0.00162898
0.00162733
0.00162729
0.00162842
0.00162898
0.00162898
0.00162898
0.00162898
0.00162898
0.00162896
0.00162722
0.00162701
0.00162782
0.00162743
0.00162898
0.00162957
0.00162898
0.00162879
0.00162898
0.00162879
0.00162847
0.00162771
0.00162898
0.00162898
0.00162899
0.00162898
0.00162898
0.00163309
0.00162904
0.00162916
0.00162896
0.00162892
0.00162898
0.00162898
0.00162898
0.00162898
0.00162909
0.00162898
0.00162898
0.00162892
0.00162898
0.00162898
0.00162898
0.00162898
0.00162899
0.00162872
0.00162898
0.00162898
0.00162898
0.00162898
0.00162897
0.00162892
0.00162896
0.00163106
0.00162709
0.00162707
0.00162715
0.00162712
0.0016272
0.00162718
0.00162723
0.00162722
0.00162726
0.00162724
0.00162728
0.00162727
0.00162729
0.00162729
0.0016273
0.00162729
0.0016273
0.0016273
0.0016273
0.0016273
0.0016273
0.0016273
0.0016273
0.0016273
0.0016273
0.0016273
0.0016273
0.0016273
0.0016273
0.0016273
0.0016273
0.0016273
0.0016273
0.0016273
0.0016273
0.0016273
0.0016273
0.0016273
0.00162729
0.0016273
0.00162728
0.00162743
0.00162794
0.00162782
0.00162799
0.00162798
0.00162799
0.00162799
0.00162799
0.00162799
0.00162799
0.00162799
0.00162799
0.00162799
0.00162799
0.00162799
0.00162798
0.00162799
0.00162794
0.00162701
0.00162728
0.00162722
0.0016273
0.00162729
0.0016273
0.0016273
0.0016273
0.0016273
0.0016273
0.0016273
0.0016273
0.0016273
0.0016273
0.0016273
0.0016273
0.0016273
0.0016273
0.0016273
0.0016273
0.0016273
0.0016273
0.0016273
0.0016273
0.0016273
0.00162731
0.00162731
0.00162733
0.00162732
0.00162736
0.00162735
0.00162736
0.00162736
0.00162737
0.00162737
0.00162738
0.00162738
0.00162738
0.00162738
0.00162737
0.00162738
0.00162736
0.00162736
0.00162735
0.001629
0.00162898
0.00162898
0.00162898
0.00162898
0.00162898
0.00163017
0.00162898
0.00162416
0.00162723
0.00162898
0.00162904
0.001629
0.001629
0.001629
0.001629
0.001629
0.00162898
0.00162904
0.00106223
0.00162898
0.00162781
0.00162898
0.0016263
0.0016263
0.00162898
0.00162905
0.00162904
0.00162904
0.00162904
0.00162905
0.00162898
0.00162896
0.00162838
0.00162846
0.00162898
0.001629
0.00162899
0.00162897
0.00162898
0.00162898
0.00162898
0.00162898
0.00162898
0.00162898
0.00162898
0.001629
0.00162905
0.00162905
0.001629
0.001629
0.00162898
0.00162947
0.00162899
0.00162899
0.00162775
0.00162918
0.00162918
0.00162898
0.00162878
0.00162903
0.00162898
0.00163226
0.00162898
0.00162898
0.001629
0.00162898
0.00162898
0.00162898
0.00162896
0.0016289
0.00162892
0.001629
0.00162898
0.00162896
0.0016288
0.0016288
0.00162892
0.00162898
0.00162898
0.00162898
0.00162898
0.00162898
0.00162898
0.00162894
0.00163562
0.00162898
0.00162891
0.00162898
0.00162898
0.00162898
0.00162898
0.00162899
0.00162864
0.00162898
0.00162905
0.00162898
0.00162898
0.00162898
0.00162898
0.00162898
0.00162898
0.00162796
0.00162898
0.00162892
0.00162896
0.00107288
0.00162391
0.00162379
0.00162404
0.00162397
0.00162412
0.00162407
0.00162417
0.00162415
0.00162421
0.00162418
0.00162425
0.00162423
0.00162427
0.00162426
0.00162428
0.00162428
0.00162428
0.00162428
0.00162428
0.00162428
0.00162428
0.00162428
0.00162428
0.00162428
0.00162428
0.00162428
0.00162428
0.00162428
0.00162428
0.00162428
0.00162428
0.00162428
0.00162428
0.00162428
0.00162428
0.00162428
0.00162428
0.00162428
0.00162428
0.00162428
0.00162421
0.00162426
0.00162328
0.00162399
0.00162112
0.00162528
0.00162415
0.0016258
0.00162567
0.00162585
0.00162584
0.00162585
0.00162585
0.00162585
0.00162585
0.00162585
0.00162585
0.00162585
0.00162585
0.00162585
0.00162585
0.00162584
0.00162585
0.00162567
0.0016258
0.00162415
0.00162528
0.00162112
0.001624
0.00162328
0.00162426
0.00162421
0.00162428
0.00162428
0.00162428
0.00162428
0.00162428
0.00162428
0.00162428
0.00162428
0.00162429
0.00162428
0.00162429
0.00162429
0.00162429
0.00162429
0.00162429
0.00162429
0.00162429
0.00162429
0.00162429
0.00162429
0.0016243
0.0016243
0.00162433
0.00162431
0.00162439
0.00162436
0.00162444
0.00162443
0.00162445
0.00162445
0.00162444
0.00162444
0.00162444
0.00162445
0.00162443
0.00162444
0.00162441
0.00162442
0.00162437
0.00162439
0.00162432
0.00162435
0.00162425
0.00162898
0.00164003
0.00162898
0.00162899
0.00162904
0.00162904
0.00162904
0.00162898
0.00162899
0.00162899
0.00162899
0.00162899
0.001629
0.00162899
0.00162901
0.00162898
0.0016272
0.00162867
0.00162896
0.00162898
0.00162898
0.00162898
0.001629
0.00162898
0.00162963
0.00162904
0.00162539
0.00162893
0.00162898
0.00162898
0.00162899
0.00162903
0.00162907
0.00162268
0.00162927
0.00162914
0.00162916
0.00162919
0.00162918
0.00162919
0.00162918
0.00162918
0.00162918
0.0016291
0.00162898
0.00162836
0.001629
0.00162898
0.00162898
0.00162897
0.00162898
0.00162898
0.00162898
0.00162898
0.00162898
0.00162898
0.00162898
0.00162898
0.00162898
0.0016288
0.00161599
0.00161382
0.00161847
0.00161543
0.0016296
0.00162952
0.00162898
0.00162982
0.00162879
0.001629
0.00162898
0.00162896
0.00162893
0.00162898
0.00162898
0.00162898
0.00162898
0.00163124
0.00162898
0.00163056
0.00162896
0.00162892
0.00162899
0.00162898
0.00162898
0.00162898
0.00162898
0.00162902
0.00162889
0.00162898
0.00162919
0.001629
0.00162898
0.00162899
0.00162861
0.00162898
0.00162898
0.00162898
0.00162898
0.00162898
0.00162898
0.00162898
0.00162898
0.00162898
0.00162898
0.00163057
0.00162896
0.0016288
0.00162892
0.00162881
0.0016288
0.00162518
0.00161879
0.00161813
0.0016191
0.00161653
0.00161666
0.00161664
0.00161654
0.00161676
0.00161669
0.00161682
0.0016168
0.0016169
0.00161685
0.00161696
0.00161693
0.00161698
0.00161697
0.00161699
0.00161699
0.001617
0.001617
0.001617
0.001617
0.001617
0.001617
0.001617
0.001617
0.001617
0.001617
0.001617
0.001617
0.001617
0.001617
0.001617
0.001617
0.001617
0.001617
0.001617
0.001617
0.00161699
0.001617
0.00161699
0.00161699
0.00161692
0.00161698
0.0016167
0.00161543
0.00161961
0.00161847
0.00162014
0.00162001
0.00162019
0.00162018
0.0016202
0.00162019
0.0016202
0.0016202
0.0016202
0.0016202
0.0016202
0.0016202
0.00162019
0.0016202
0.00162018
0.00162019
0.00162001
0.00162014
0.00161961
0.00161382
0.00161671
0.00161599
0.00161698
0.00161692
0.001617
0.00161699
0.001617
0.001617
0.001617
0.001617
0.001617
0.001617
0.001617
0.001617
0.001617
0.001617
0.001617
0.001617
0.00161701
0.00161701
0.00161701
0.00161701
0.00161702
0.00161701
0.00161704
0.00161702
0.00161711
0.00161706
0.00161724
0.00161717
0.00161735
0.00161732
0.00161735
0.00161735
0.00161732
0.00161733
0.00161727
0.00161729
0.00161725
0.00161726
0.0016172
0.00161722
0.00161714
0.00161717
0.00161704
0.00161709
0.00161682
0.00161694
0.00161686
0.0016285
0.0016285
0.0016285
0.00162849
0.00162849
0.0016288
0.00162851
0.0016285
0.0016288
0.0016285
0.00162849
0.0016285
0.00162849
0.001629
0.001629
0.00162898
0.001629
0.001629
0.00162901
0.00162901
0.00162901
0.00162923
0.00162916
0.0016265
0.00162917
0.00162918
0.00162918
0.00162894
0.00162849
0.00162881
0.001629
0.00162898
0.00162901
0.001629
0.00162901
0.00162901
0.00162903
0.00162902
0.00162905
0.00162898
0.00162718
0.00162899
0.00162771
0.00162898
0.00162896
0.00162898
0.00162898
0.00162898
0.00162898
0.00162898
0.00162898
0.00162898
0.0016054
0.00162935
0.0016014
0.0016304
0.0016081
0.00160811
0.00161006
0.00162656
0.00162897
0.00162883
0.00162902
0.00158708
0.00162973
0.00162945
0.00162946
0.00162952
0.00162951
0.00162957
0.00162955
0.00162955
0.00162955
0.0016292
0.00162898
0.00162428
0.00162837
0.00162899
0.00162898
0.00161859
0.00162507
0.00162898
0.00162897
0.00162892
0.00162897
0.00160925
0.00158809
0.00162898
0.00162898
0.00162898
0.00162898
0.0016287
0.00162872
0.0016281
0.00162898
0.00162898
0.00162898
0.00162898
0.00162606
0.00163061
0.0016308
0.00162949
0.00162898
0.00163028
0.00161602
0.00162778
0.00162775
0.00163058
0.0016303
0.00162897
0.00162878
0.00162899
0.00162898
0.00162897
0.00162852
0.00162881
0.00162898
0.00162898
0.00162898
0.00162898
0.00162065
0.00162911
0.00162898
0.00162896
0.00162892
0.00162896
0.00162892
0.00162875
0.00162892
0.00162898
0.00162892
0.00162898
0.00162952
0.00162905
0.00162898
0.00162898
0.00162902
0.00162888
0.00162896
0.00162892
0.00162851
0.00162881
0.00162898
0.001629
0.00162897
0.00162898
0.0016289
0.00162874
0.00162891
0.00162891
0.00162896
0.00162896
0.00162897
0.00162896
0.00162898
0.00162898
0.00162898
0.00162898
0.00162898
0.00162898
0.00162898
0.00162898
0.00135203
0.00162898
0.00162905
0.00162896
0.00159868
0.0016184
0.00160365
0.00160428
0.001604
0.00160324
0.00160439
0.00160107
0.00160173
0.00160091
0.00160091
0.00160109
0.00160103
0.00160115
0.00160114
0.00160127
0.0016012
0.00160134
0.00160132
0.00160137
0.00160136
0.00160138
0.00160138
0.00160139
0.00160139
0.00160139
0.00160139
0.00160139
0.00160139
0.00160139
0.00160139
0.00160139
0.00160139
0.00160139
0.00160139
0.00160139
0.00160139
0.00160139
0.00160139
0.00160139
0.00160139
0.00160139
0.00160139
0.00160139
0.00160139
0.00160138
0.00160138
0.00160131
0.00160137
0.00160037
0.00160109
0.00159244
0.00159818
0.00157951
0.00160258
0.00159522
0.0016068
0.00160565
0.00160733
0.0016072
0.00160739
0.00160737
0.00160739
0.00160739
0.0016074
0.00160739
0.0016074
0.0016074
0.0016074
0.0016074
0.00160739
0.00160739
0.00160737
0.00160739
0.0016072
0.00160733
0.00160565
0.0016068
0.00159523
0.00160259
0.00157953
0.00159819
0.00159245
0.00160109
0.00160037
0.00160137
0.00160131
0.00160139
0.00160138
0.00160139
0.00160139
0.00160139
0.00160139
0.00160139
0.00160139
0.00160139
0.00160139
0.0016014
0.0016014
0.0016014
0.0016014
0.0016014
0.0016014
0.00160141
0.00160141
0.00160143
0.00160141
0.00160148
0.00160145
0.00160162
0.00160153
0.00160186
0.00160173
0.00160205
0.001602
0.00160204
0.00160206
0.00160195
0.001602
0.00160184
0.00160189
0.00160175
0.0016018
0.00160168
0.00160172
0.00160158
0.00160164
0.0016015
0.00160153
0.0016015
0.00160145
0.00160188
0.0016278
0.00162779
0.00162779
0.0016278
0.00162781
0.0016278
0.00162854
0.00162787
0.00162783
0.00162852
0.00162783
0.0016278
0.00162781
0.00162779
0.0016278
0.00162778
0.00162769
0.00162848
0.00162904
0.00162904
0.00162905
0.00162904
0.00162906
0.00162905
0.0016291
0.00162907
0.00162916
0.00162309
0.00162951
0.00162949
0.00162956
0.00162956
0.00162897
0.0016285
0.00162884
0.00162904
0.00162902
0.00162906
0.00162905
0.00162907
0.00162906
0.0016291
0.00162908
0.00162913
0.00162898
0.00162718
0.00162898
0.00162858
0.00162765
0.00162898
0.00162896
0.00160811
0.00158668
0.00162898
0.00162891
0.00162898
0.00162144
0.00162627
0.00162898
0.00162898
0.00162804
0.00158364
0.00163021
0.00163167
0.00162898
0.00156553
0.00156915
0.00162898
0.00162911
0.00159648
0.00162898
0.00163084
0.00163067
0.00161354
0.00162897
0.00151836
0.00162769
0.00162613
0.00162891
0.00162898
0.0016302
0.00163024
0.00163023
0.00163046
0.00163038
0.0016304
0.00163041
0.00162898
0.00162368
0.00162832
0.00162898
0.00162898
0.00162501
0.00162898
0.00162897
0.00162892
0.00162897
0.00155365
0.00162898
0.00162898
0.00162898
0.00162896
0.00162896
0.00160846
0.00162898
0.00162817
0.00162898
0.00162898
0.00162898
0.00162898
0.00162869
0.00162594
0.00162932
0.00162896
0.00162898
0.00162897
0.00156315
0.00155018
0.00157031
0.00155457
0.00162771
0.00162609
0.00163262
0.00163234
0.00163175
0.00162897
0.00162877
0.00152023
0.0011401
0.00162821
0.00162898
0.00162898
0.00160323
0.00161818
0.00162896
0.00162882
0.00162898
0.00163025
0.00162918
0.00162898
0.00162897
0.00162898
0.00162873
0.00162898
0.00162898
0.00162023
0.00162909
0.00157447
0.00157495
0.00162891
0.00162896
0.00162892
0.00162877
0.00162892
0.00162794
0.00162857
0.00162898
0.00162904
0.00163342
0.00162898
0.00162891
0.00162898
0.00162898
0.00162888
0.00150729
0.00162892
0.00162881
0.00162898
0.001629
0.00162895
0.00162898
0.00162898
0.00162899
0.00162785
0.00162853
0.00162898
0.00162898
0.00162898
0.00162898
0.00162896
0.00162898
0.00162898
0.00162898
0.00162921
0.00147131
0.00157247
0.00146651
0.00160262
0.0015734
0.00157523
0.00157448
0.00157595
0.0015757
0.00157464
0.00157594
0.00157222
0.00157314
0.0015717
0.00157179
0.00157183
0.00157179
0.00157191
0.00157188
0.00157204
0.00157196
0.00157211
0.00157209
0.00157214
0.00157213
0.00157215
0.00157215
0.00157216
0.00157216
0.00157217
0.00157216
0.00157217
0.00157217
0.00157216
0.00157217
0.00157216
0.00157216
0.00157216
0.00157216
0.00157216
0.00157216
0.00157216
0.00157216
0.00157216
0.00157216
0.00157215
0.00157215
0.00157216
0.00157215
0.00157215
0.00157215
0.00157207
0.00157213
0.00157112
0.00157185
0.00156892
0.00155456
0.0015777
0.00157031
0.00158195
0.00158079
0.00158249
0.00158235
0.00158255
0.00158253
0.00158255
0.00158255
0.00158256
0.00158256
0.00158256
0.00158256
0.00158256
0.00158256
0.00158255
0.00158255
0.00158253
0.00158255
0.00158235
0.00158249
0.00158078
0.00158194
0.0015777
0.0015502
0.00156893
0.00156316
0.00157186
0.00157113
0.00157213
0.00157208
0.00157215
0.00157215
0.00157216
0.00157215
0.00157216
0.00157216
0.00157216
0.00157216
0.00157216
0.00157216
0.00157217
0.00157217
0.00157217
0.00157217
0.00157218
0.00157217
0.00157219
0.00157219
0.00157224
0.00157221
0.00157231
0.00157227
0.00157255
0.00157242
0.00157294
0.00157273
0.00157324
0.00157315
0.00157318
0.00157323
0.00157298
0.0015731
0.00157277
0.00157287
0.00157264
0.0015727
0.00157254
0.00157259
0.00157245
0.00157249
0.0015724
0.00157241
0.0015728
0.00157248
0.0015736
0.00162613
0.00162633
0.00162625
0.00162637
0.00162635
0.00162635
0.00162637
0.00162637
0.00162635
0.00162649
0.00162641
0.00162801
0.00162672
0.00162659
0.00162789
0.00162649
0.00162639
0.00162643
0.00162636
0.00162637
0.00162636
0.00162637
0.00162629
0.00162635
0.00162621
0.00162854
0.00162914
0.00162913
0.00162915
0.00162914
0.00162918
0.00162917
0.00162925
0.00162921
0.00162959
0.00162935
0.00163011
0.00163031
0.00163022
0.00163041
0.00163041
0.00162854
0.00162592
0.00162764
0.00162906
0.00162891
0.00162913
0.00162911
0.00162916
0.00162915
0.0016292
0.00162918
0.00162925
0.00162922
0.00162942
0.00162931
0.00162091
0.00162898
0.00162701
0.00162898
0.00162857
0.00162763
0.00162898
0.00162896
0.00155108
0.00162898
0.00162896
0.00155628
0.00158993
0.00162898
0.00162652
0.00162898
0.00162898
0.00162799
0.00155712
0.00162982
0.00162898
0.00162897
0.00162927
0.00162874
0.001634
0.00157146
0.00162902
0.0016357
0.0015252
0.00152522
0.00162353
0.00162343
0.00162905
0.00163189
0.00163166
0.00163156
0.00163156
0.00163214
0.00163194
0.00163199
0.001632
0.00163165
0.00163058
0.00162898
0.00162278
0.00162827
0.00161747
0.00159173
0.00158245
0.00161924
0.00162898
0.00162898
0.00162496
0.00162897
0.00162892
0.00162897
0.00163156
0.00162951
0.00162898
0.00162898
0.00162898
0.00162897
0.00141625
0.00155796
0.0016109
0.00162897
0.00162897
0.00162898
0.00163432
0.00162811
0.00162898
0.00162898
0.00162898
0.00163419
0.00162579
0.00162929
0.00152933
0.00153235
0.00158293
0.00163514
0.00163391
0.00162602
0.00162867
0.0016233
0.00162897
0.00162876
0.00156374
0.001596
0.00162855
0.00162826
0.00159851
0.00162898
0.000993286
0.00161794
0.00162896
0.00162883
0.00162898
0.00148414
0.0015814
0.00162917
0.00163289
0.00162898
0.00162898
0.00162656
0.001624
0.00162411
0.00162898
0.00151871
0.00152078
0.00163351
0.00162874
0.00134749
0.00162449
0.00162941
0.00162898
0.00162898
0.00162895
0.00162898
0.00162897
0.00161863
0.00162892
0.00162878
0.00152922
0.0015721
0.00157182
0.00160173
0.00162892
0.0016286
0.00162898
0.00162314
0.00162518
0.00162574
0.00157088
0.00162903
0.0015289
0.00157062
0.00162891
0.00162898
0.00162898
0.00162898
0.00162896
0.00162956
0.00162887
0.00142665
0.00159729
0.00155572
0.00162892
0.00162901
0.00162882
0.00162689
0.00162811
0.00162898
0.00162717
0.00162912
0.00162899
0.00162898
0.00162899
0.00162896
0.00162855
0.00162898
0.00162898
0.00162898
0.00162898
0.00162897
0.00162793
0.00162898
0.00163351
0.00118272
0.00153121
0.00151829
0.00152614
0.00156239
0.00151101
0.00151402
0.00156938
0.00152067
0.00152614
0.00152391
0.00152856
0.00152755
0.00152948
0.00152917
0.00152823
0.0015295
0.0015259
0.00152692
0.00152507
0.00152539
0.00152511
0.00152508
0.00152518
0.00152514
0.00152527
0.00152521
0.00152533
0.00152531
0.00152536
0.00152535
0.00152537
0.00152536
0.00152537
0.00152537
0.00152538
0.00152538
0.00152537
0.00152538
0.00152537
0.00152537
0.00152537
0.00152537
0.00152537
0.00152537
0.00152537
0.00152536
0.00152536
0.00152537
0.00152536
0.00152536
0.00152537
0.00152537
0.00152536
0.00152536
0.00152535
0.00152535
0.00152528
0.00152534
0.00152433
0.00152506
0.00151634
0.00152212
0.00147849
0.00150338
0.0014375
0.00151321
0.00148395
0.00153634
0.00152895
0.00154059
0.00153943
0.00154113
0.001541
0.00154119
0.00154117
0.00154119
0.00154119
0.00154119
0.00154119
0.00154119
0.00154119
0.00154119
0.00154119
0.00154119
0.00154119
0.00154117
0.00154119
0.00154099
0.00154113
0.00153942
0.00154058
0.00152895
0.00153634
0.00148397
0.00151322
0.00143754
0.00150342
0.00147852
0.00152213
0.00151636
0.00152507
0.00152434
0.00152534
0.00152528
0.00152536
0.00152535
0.00152536
0.00152536
0.00152537
0.00152536
0.00152537
0.00152537
0.00152537
0.00152537
0.00152536
0.00152537
0.00152538
0.00152537
0.00152538
0.00152538
0.00152541
0.00152539
0.00152546
0.00152544
0.00152561
0.00152549
0.00152595
0.00152574
0.00152643
0.00152617
0.00152677
0.00152668
0.00152662
0.00152672
0.00152633
0.00152649
0.00152606
0.00152617
0.00152592
0.00152599
0.00152584
0.00152588
0.00152576
0.0015258
0.00152584
0.00152576
0.0015266
0.00152612
0.0015277
0.00162352
0.00162323
0.0016238
0.00162369
0.00162387
0.00162385
0.00162384
0.00162388
0.00162387
0.00162384
0.00162403
0.00162393
0.00162431
0.00162415
0.00162453
0.00162387
0.00162392
0.00162384
0.00162384
0.00162387
0.00162387
0.00162377
0.00162385
0.00162365
0.00162335
0.00162781
0.0016261
0.00162867
0.00162932
0.0016293
0.00162936
0.00162934
0.00162942
0.00162939
0.00162954
0.00162946
0.00162999
0.00162968
0.0016306
0.00163246
0.00162898
0.00163159
0.00163202
0.00163201
0.00162867
0.00162775
0.00162921
0.00162906
0.00162931
0.00162928
0.00162937
0.00162934
0.00162943
0.0016294
0.00162953
0.00162948
0.00162977
0.00162962
0.00163004
0.00162898
0.00162676
0.00160887
0.00159652
0.00162898
0.00162856
0.00162762
0.00162898
0.00162896
0.00158751
0.00159087
0.00163148
0.00163021
0.00162929
0.00163367
0.00163827
0.00150044
0.00143472
0.00162146
0.00127263
0.00150879
0.00162898
0.00162897
0.00162896
0.00159121
0.00162897
0.00162898
0.00155408
0.00162629
0.00162898
0.00162898
0.00162898
0.00162794
0.00152426
0.00163184
0.00163323
0.00162974
0.00134275
0.00152925
0.00162142
0.00163435
0.00155036
0.0013798
0.00147633
0.00154008
0.00143942
0.00162952
0.00163257
0.00163455
0.00163395
0.0016348
0.00163424
0.00163439
0.00161974
0.00162898
0.00161065
0.00162182
0.00162819
0.00161431
0.00162748
0.00162676
0.00161422
0.00162898
0.00162888
0.00153652
0.00162898
0.00161114
0.00162889
0.00162489
0.00162897
0.00162893
0.00162897
0.00162338
0.00161988
0.00162004