/*--------------------------------*- C++ -*----------------------------------*\
| =========                 |                                                 |
| \\      /  F ield         | OpenFOAM: The Open Source CFD Toolbox           |
|  \\    /   O peration     | Version:  2212                                  |
|   \\  /    A nd           | Website:  www.openfoam.com                      |
|    \\/     M anipulation  |                                                 |
\*---------------------------------------------------------------------------*/
FoamFile
{
    version     2.0;
    format      ascii;
    arch        "LSB;label=32;scalar=64";
    class       volVectorField;
    location    "0.056";
    object      U;
}
// * * * * * * * * * * * * * * * * * * * * * * * * * * * * * * * * * * * * * //

dimensions      [0 1 -1 0 0 0 0];

internalField   nonuniform List<vector> 
7220
(
(121.503 725.962 -2.85572e-17)
(22.9449 23.7237 2.29008e-17)
(21.9957 22.556 1.14598e-17)
(19.3636 20.8714 1.4157e-17)
(21.6882 23.7323 -2.24265e-17)
(20.5851 22.3421 -1.60891e-21)
(-22.0236 22.6404 0)
(-21.6446 23.7444 2.33982e-17)
(-19.3457 20.8832 0)
(-20.5536 22.3517 0)
(148.512 689.17 -5.38542e-19)
(-69.5065 -25.0092 -2.09373e-16)
(25.6191 177.369 1.07292e-17)
(-130.613 604.438 1.32639e-16)
(190.69 581.2 1.33752e-16)
(-38.5804 -13.1359 9.39631e-17)
(-46.6129 436.481 0)
(-0.942341 686.021 -3.38111e-16)
(-34.2761 427.948 3.86751e-17)
(79.8228 692.854 -1.71667e-16)
(0.548132 342.716 4.3226e-17)
(-67.2972 103.605 3.02725e-16)
(4.29944 13.4086 1.68182e-16)
(70.7097 114.608 2.29305e-16)
(-35.109 22.2441 1.57315e-16)
(-75.6119 18.7791 -3.40214e-16)
(-21.9789 12.5811 1.07195e-16)
(-116.547 651.091 1.25852e-16)
(-2.74252 344.817 -4.13776e-17)
(33.8606 259.272 7.36494e-17)
(31.0907 29.6139 9.53816e-17)
(37.7573 221.323 -2.18418e-17)
(22.6314 32.0267 4.08873e-16)
(28.0188 280.787 -4.0523e-17)
(38.0752 13.2068 -1.72444e-16)
(-36.9845 768.339 -2.25476e-16)
(23.388 21.5532 5.68251e-18)
(132.258 673.8 0)
(134.723 690.521 -2.99685e-21)
(0.668215 591.922 -1.01089e-21)
(1.17786 591.312 -4.06031e-21)
(0.0689918 591.07 -2.63079e-19)
(0.60892 591.697 2.31779e-19)
(7.21994 777.7 -5.08389e-17)
(11.0095 778.52 -2.17695e-16)
(2.50673 779.923 -3.65808e-17)
(2.49275 779.817 6.87831e-18)
(2.64992 779.316 -6.82963e-17)
(1.29917 590.705 5.19763e-19)
(0.353512 590.06 -5.21197e-19)
(0.073768 590.178 -4.92604e-19)
(-0.148568 590.638 5.27406e-19)
(-1.76431 588.705 5.31467e-19)
(-4.75125 586.764 -1.57678e-18)
(2.74824 587.538 5.40918e-19)
(0.943712 589.225 -5.63326e-19)
(-7.19668 584.082 -1.21883e-20)
(-8.32596 582.915 1.99484e-18)
(5.19873 581.992 1.05784e-18)
(4.3808 584.86 -5.31009e-19)
(-8.88459 581.703 -1.04091e-18)
(-0.86121 579.977 1.03851e-18)
(4.17604 579.077 -5.27367e-19)
(5.63043 580.631 -1.05829e-18)
(16.1132 582.843 -1.07914e-18)
(40.5527 595.452 0)
(-22.0984 585.163 1.10025e-18)
(-7.5814 577.498 4.7374e-20)
(62.4286 616.91 0)
(75.1021 639.32 -9.10784e-20)
(-41.9399 637.435 3.13083e-20)
(-34.2378 606.673 1.48394e-20)
(74.1755 666.882 1.84064e-18)
(59.2352 702.055 -6.47051e-20)
(-30.5817 706.656 -1.96977e-18)
(-40.7893 670.436 1.60389e-18)
(38.5178 731.102 -2.17446e-19)
(24.0319 750.241 -8.69543e-18)
(-11.0727 753.535 2.49088e-18)
(-17.1823 735.736 4.71759e-19)
(14.1589 763.69 6.91075e-18)
(7.48363 770.924 -2.07325e-17)
(-1.44738 772.561 6.7187e-18)
(-4.40729 765.832 -7.71078e-20)
(2.12375 778.304 -1.3144e-19)
(0.918851 776.276 -6.89335e-18)
(3.46945 775.155 7.00874e-18)
(0.638165 777.35 1.59745e-17)
(-1.83255 778.619 2.72837e-17)
(3.40263 775.735 2.66739e-17)
(-0.0391327 592.848 0)
(1.12036 592.602 3.2957e-20)
(0.858213 593.017 -8.27827e-21)
(1.11087 593.849 8.18135e-21)
(14.0109 777.958 -1.37775e-17)
(4.01631 778.804 -4.05724e-19)
(-4.23398 779.379 1.49946e-17)
(-6.30248 779.476 2.98714e-17)
(10.359 768.778 -7.32601e-18)
(42.3505 747.979 4.28217e-18)
(23.8562 760.903 -9.05381e-19)
(101.725 700.234 0)
(70.0018 728.59 0)
(137.021 663.931 0)
(128.287 677.215 -4.26736e-19)
(119.892 645.158 0)
(132.836 654.043 6.21049e-20)
(65.2302 623.141 -9.75655e-19)
(96.4156 635.064 1.04222e-18)
(9.99904 590.479 -5.48054e-19)
(33.2877 605.221 0)
(-14.7658 583.951 -9.99849e-19)
(-7.90337 582.695 1.04424e-18)
(-10.2797 586.234 -5.29567e-19)
(-13.4622 584.809 4.90578e-19)
(-2.97233 591.665 8.18158e-21)
(-6.38715 589.101 5.44095e-19)
(-0.45052 594.733 0)
(-0.897554 593.562 4.10666e-21)
(4.6027 589.848 7.05669e-22)
(1.85292 591.787 0)
(12.1168 584.583 -1.52891e-20)
(8.34982 587.133 3.23709e-20)
(14.794 582.39 -3.87048e-21)
(14.2269 583.811 0)
(-17.2436 593.881 1.09084e-21)
(1.91108 583.229 0)
(-78.1991 625.844 -5.34852e-19)
(-44.6174 608.728 4.91961e-19)
(-121.338 649.954 -1.01145e-18)
(-106.362 638.767 9.36017e-19)
(-110.398 682.824 1.07251e-19)
(-123.559 663.476 -3.75294e-21)
(-50.5208 738.588 8.53339e-19)
(-80.4069 712.266 -4.31646e-19)
(-12.3207 766.498 1.3902e-17)
(-27.2046 755.167 -3.71742e-18)
(-2.72259 772.313 1.3473e-17)
(2.07663 772.983 5.82793e-19)
(-0.898683 595.483 0)
(1.75643 594.431 0)
(10.5594 773.116 -5.92091e-17)
(1.20885 769.066 6.68118e-18)
(15.9575 776.529 0)
(-6.94302 778.49 4.2125e-19)
(-4.22407 775.153 -7.20447e-18)
(-9.16434 776.417 7.31357e-18)
(-1.49586 767.738 3.24657e-19)
(15.9595 774.754 0)
(-13.4397 777.037 7.20836e-18)
(-10.7327 770.655 7.26345e-18)
(29.4895 752.75 5.24244e-18)
(11.3918 762.603 -1.02921e-17)
(88.7221 716.03 0)
(55.5523 738.045 -1.7489e-18)
(143.624 676.609 -9.69891e-19)
(122.104 691.15 2.03204e-18)
(154.591 664.949 2.31326e-19)
(152.801 669.613 0)
(145.646 658.943 4.6638e-19)
(151.592 661.917 -2.36726e-19)
(119.969 649.936 0)
(134.89 655.242 -2.94998e-20)
(69.9056 630.096 3.18532e-21)
(98.6365 641.745 0)
(11.2349 594.817 -2.7025e-19)
(37.2045 611.679 -7.30358e-21)
(-17.3757 586.173 4.86648e-19)
(-7.61925 585.264 2.54409e-19)
(-14.3526 588.739 4.97094e-19)
(-16.6892 587.366 -4.99647e-19)
(-6.82181 595.138 2.1036e-18)
(-10.502 592.127 -1.57653e-18)
(-1.65129 596.17 0)
(-3.44923 598.499 0)
(-4.30366 597.144 -1.05822e-18)
(1.43801 593.736 1.63016e-20)
(-0.622491 594.011 2.78453e-19)
(3.73884 596.851 0)
(3.67455 597.762 -6.57097e-20)
(2.58585 595.171 9.84319e-20)
(7.78378 593.255 2.69402e-19)
(4.85521 595.408 -2.72914e-19)
(14.708 587.275 3.12126e-20)
(11.38 590.042 0)
(16.2655 584.689 -2.86909e-20)
(16.4483 586.368 -5.77462e-20)
(-19.1395 599.783 0)
(0.919932 586.46 0)
(-80.1041 633.79 -3.6842e-21)
(-48.7104 617.317 0)
(-126.076 650.973 -1.84781e-21)
(-106.914 643.494 -4.29807e-21)
(-146.314 659.717 0)
(-139 655.8 0)
(-146.578 670.784 -8.32147e-19)
(-149.384 664.212 9.15168e-19)
(-103.535 702.207 3.39842e-18)
(-133.197 680.655 0)
(-35.1318 749.756 -1.34595e-17)
(-67.5691 729.636 -5.1335e-19)
(-13.5289 762.031 2.76528e-19)
(25.6605 774.291 -2.67697e-17)
(21.6114 774.96 3.91995e-17)
(5.38286 763.512 1.26121e-17)
(-12.6225 754.807 1.27615e-17)
(-2.42168 596.943 -3.27183e-20)
(-3.52531 599.377 3.28227e-20)
(11.7252 595.973 5.31241e-19)
(8.43897 598.231 -4.8845e-19)
(4.30414 777.334 2.79099e-17)
(28.8698 772.903 2.06864e-17)
(17.6617 774.697 -6.93733e-18)
(-16.7933 776.749 2.17859e-17)
(11.9471 753.316 -2.21181e-17)
(37.187 769.306 1.03705e-17)
(31.5762 769.58 0)
(-17.8413 772.085 7.07774e-18)
(16.3754 767.462 1.44717e-17)
(-5.52225 760.563 7.36054e-18)
(67.1215 723.933 0)
(35.2009 741.496 -8.15728e-18)
(130.734 681.995 5.53189e-18)
(101.741 700.318 1.64786e-19)
(154.724 669.341 1.90396e-18)
(147.174 673.32 -2.6141e-18)
(158.009 666.469 2.24472e-19)
(158.273 667.648 -1.41755e-18)
(153.527 664.904 4.73646e-19)
(156.646 665.836 -4.49574e-19)
(141.784 661.822 0)
(148.536 663.85 -2.04971e-19)
(118.714 653.537 2.38338e-19)
(132.077 658.546 -2.45534e-19)
(71.1566 633.797 2.53296e-19)
(99.1054 645.257 -2.4529e-19)
(10.1978 598.626 2.63337e-19)
(37.9846 615.567 -2.60027e-19)
(-20.8748 588.23 -2.58045e-19)
(-9.31546 587.997 2.66846e-19)
(-18.4505 591.078 1.96906e-20)
(-20.4657 589.717 0)
(-10.8036 597.796 -1.12833e-18)
(-14.6963 594.532 1.03864e-18)
(1.5688 594.986 -6.5828e-20)
(-0.983299 595.256 -2.63274e-19)
(4.16281 598.406 -6.56014e-20)
(3.26356 596.066 -2.61681e-19)
(18.7753 589.708 0)
(15.5338 592.492 -5.15454e-19)
(19.6953 586.999 -1.23524e-19)
(20.473 588.692 1.15723e-19)
(-18.3206 603.875 3.5833e-20)
(2.59179 589.457 2.88069e-20)
(-81.0893 638.249 7.53016e-20)
(-49.6783 622.027 0)
(-123.273 654.958 4.06176e-21)
(-106.619 647.723 -6.36806e-20)
(-144.487 661.955 -5.42737e-21)
(-135.637 658.896 -7.36869e-21)
(-153.797 664.361 0)
(-150.213 663.357 -7.28487e-21)
(-155.536 667.5 -5.90371e-19)
(-155.347 665.361 4.41071e-19)
(-139.721 676.724 8.08795e-19)
(-150.324 670.015 9.04346e-19)
(-79.5558 716.161 0)
(-115.863 690.62 -5.97365e-18)
(-41.2699 740.119 9.54086e-18)
(24.8732 769.056 -1.31336e-17)
(-7.92054 599.873 0)
(6.93011 599.696 1.63698e-18)
(-7.77767 776.976 4.88898e-19)
(31.483 771.117 -1.03692e-17)
(41.7205 768.229 -1.0413e-17)
(5.04018 775.293 6.98667e-18)
(-17.9036 764.452 2.18375e-17)
(-14.8163 744.996 7.50126e-18)
(-48.3035 727.001 -1.39817e-17)
(6.20523 754.722 -2.5169e-18)
(-23.7822 772.713 -1.43535e-17)
(-22.1497 592.751 1.04981e-19)
(-18.3496 596.055 1.05564e-18)
(4.80049 599.049 3.26093e-20)
(6.46991 600.714 -1.1168e-18)
(-19.3469 775.487 4.34597e-19)
(19.1901 772.575 0)
(45.1754 766.561 -1.08928e-17)
(33.6976 768.917 3.61446e-18)
(61.4052 759.434 -3.40722e-17)
(58.4813 761.222 -1.54729e-17)
(47.9383 764.425 2.93114e-19)
(-8.16812 774.974 -3.47769e-17)
(-7.90809 751.275 7.38131e-18)
(43.3835 727.527 -8.1582e-18)
(13.8402 741.614 7.67142e-18)
(110.746 686.045 1.13371e-17)
(78.483 707.014 -2.66485e-18)
(144.491 669.712 0)
(133.016 674.577 -7.48101e-18)
(153.94 667.295 -4.69221e-19)
(150.561 668.04 -9.57938e-19)
(155.083 667.812 -1.09453e-19)
(155.247 667.419 4.487e-19)
(152.716 668.342 -1.20318e-19)
(154.278 668.184 0)
(147.561 666.93 -1.17642e-19)
(150.613 667.729 1.78298e-19)
(137.54 663.62 -1.17483e-19)
(143.373 665.676 1.18968e-19)
(116.254 655.639 -1.11753e-19)
(128.866 660.33 1.14923e-19)
(70.0949 636.733 0)
(97.4239 647.773 -1.71461e-20)
(8.29779 601.55 2.51343e-19)
(37.1289 618.601 -2.7406e-19)
(-24.3877 589.936 9.35872e-19)
(-11.9856 590.261 -5.04373e-19)
(-24.0826 591.473 -1.39692e-18)
(-6.69084 601.259 9.86785e-20)
(-3.02723 597.855 -2.62306e-19)
(-4.04399 600.048 4.89918e-19)
(1.58728 596.262 9.78563e-20)
(-1.16657 596.504 -2.60156e-19)
(3.68814 597.098 3.28209e-19)
(15.0749 597.805 -5.64069e-19)
(22.408 591.493 -3.80464e-21)
(19.0692 594.302 4.83767e-19)
(22.8784 588.872 0)
(24.0319 590.532 0)
(-16.8144 606.738 -1.22018e-19)
(4.73504 591.726 0)
(-80.1044 641.018 3.52443e-20)
(-49.1201 624.985 2.41946e-20)
(-120.121 657.22 -1.98846e-20)
(-104.717 650.235 3.17418e-20)
(-139.164 664.026 3.74482e-21)
(-131.552 660.964 8.82556e-23)
(-148.444 666.475 7.50757e-21)
(-144.522 665.547 2.21511e-20)
(-152.689 667.298 5.40776e-20)
(-151.251 667.15 7.20897e-21)
(-153.914 666.952 -8.97408e-19)
(-153.775 667.136 0)
(-147.362 668.449 -1.92573e-18)
(-151.574 667.234 4.72689e-19)
(-120.497 680.678 3.94269e-18)
(-138.506 671.942 3.45852e-18)
(-88.0856 700.345 -1.38195e-17)
(32.4596 761.872 6.81508e-18)
(21.7343 759.547 -1.02356e-17)
(48.2792 763.049 -5.23065e-18)
(41.3384 762.758 -1.64981e-18)
(54.1268 762.499 1.07417e-17)
(-27.3757 766.463 6.94215e-18)
(-14.2059 599.296 -6.51223e-20)
(11.4275 599.993 0)
(-59.4361 709.825 -6.05751e-18)
(-96.0611 685.555 -3.41054e-18)
(-22.8224 730.322 7.90108e-18)
(65.8405 755.907 1.08555e-16)
(-28.5563 772.388 2.9437e-17)
(5.88641 773.124 0)
(20.7428 770.167 -1.44324e-17)
(50.0426 762.031 3.31053e-17)
(-21.3473 773.815 -8.72942e-17)
(73.1407 754.229 0)
(19.5289 727.395 -1.51021e-17)
(35.7525 766.421 -1.54758e-17)
(-24.6701 756.702 -1.4165e-17)
(-7.61269 739.447 5.9532e-19)
(64.3655 757.14 -6.25164e-19)
(87.5889 689.194 0)
(53.7053 710.311 -1.39995e-18)
(130.247 668.965 -7.57536e-18)
(114.665 675.047 6.92436e-18)
(143.716 665.559 1.9535e-18)
(138.617 666.52 7.55565e-18)
(147.863 665.745 -4.89602e-19)
(146.511 665.404 -1.95113e-18)
(148.626 668.168 1.20205e-19)
(148.495 666.858 4.87846e-19)
(148.489 669.332 0)
(148.73 669.152 0)
(146.969 669.016 -5.93543e-20)
(147.954 669.256 8.91343e-20)
(142.674 667.668 -4.64512e-22)
(145.257 668.422 6.67323e-20)
(133.347 664.822 0)
(138.799 666.492 3.76707e-21)
(112.447 657.203 6.23629e-20)
(124.791 661.794 0)
(67.1527 638.63 3.58462e-20)
(94.1356 649.498 -4.54607e-20)
(5.0823 602.891 2.50958e-19)
(34.2932 620.439 -2.80744e-19)
(-27.3947 590.328 -5.17479e-19)
(-15.6666 591.074 5.44698e-19)
(-24.7061 592.796 9.90005e-19)
(-26.9236 591.649 -2.88377e-20)
(-20.3845 595.826 -9.91636e-19)
(-6.3164 602.162 0)
(-10.8909 601.24 9.75831e-19)
(-3.40932 598.873 5.23334e-19)
(-4.66771 600.711 -5.24433e-19)
(1.53807 597.531 -1.3334e-19)
(-1.24518 597.758 2.29957e-19)
(5.32777 599.739 0)
(3.85944 598.185 0)
(9.44077 601.322 -5.5439e-19)
(6.53181 601.301 -4.89645e-19)
(17.0742 597.691 1.05178e-18)
(25.1686 591.943 5.32351e-19)
(21.5611 594.43 -5.14064e-19)
(26.2353 589.496 4.96887e-19)
(27.1657 591.02 -9.21951e-19)
(-13.5395 608.523 0)
(8.60329 592.837 2.9275e-20)
(-77.1414 642.853 0)
(-46.2241 626.895 0)
(-116.392 658.672 0)
(-101.359 651.876 1.67324e-20)
(-134.392 665.145 2.99155e-20)
(-127.417 662.333 -2.96759e-20)
(-142.454 667.588 1.48757e-20)
(-139.259 666.551 -1.46845e-20)
(-146.095 668.802 -3.01344e-20)
(-144.747 668.353 2.95248e-20)
(-147.674 668.548 -5.99732e-20)
(-147.154 668.759 5.01973e-23)
(-147.773 666.088 5.38227e-19)
(-147.969 667.402 -3.00127e-20)
(-145.011 665.319 -1.83566e-19)
(-146.911 665.358 6.05473e-20)
(-134.061 667.412 -3.58263e-18)
(-140.981 665.666 0)
(-121.419 672.534 6.71539e-18)
(24.4783 749.726 -3.69529e-18)
(5.18307 742.172 3.52851e-18)
(50.2741 755.169 1.56162e-17)
(39.5064 753.279 -2.62869e-18)
(59.0607 755.638 -1.39705e-17)
(-36.5794 759.615 5.02117e-20)
(-34.9957 767.231 1.36617e-20)
(-7.76298 772.825 -3.33912e-18)
(-28.3435 747.392 0)
(-101.4 673.137 -3.52224e-18)
(-118.952 666.215 -1.99794e-18)
(-71.3101 688.87 3.93709e-18)
(-28.779 588.343 0)
(-27.8973 589.252 9.48223e-19)
(8.37015 601.977 3.51097e-20)
(12.7399 599.539 -5.59899e-19)
(6.90595 770.601 -4.41012e-17)
(22.6426 767.576 2.99546e-17)
(37.3842 763.716 1.31136e-17)
(78.7562 751.859 0)
(86.1246 747.277 -3.15955e-19)
(91.7473 745.365 2.95961e-17)
(82.3006 749.088 3.07419e-17)
(-46.0255 760.79 1.41547e-17)
(-32.477 771.346 -8.07143e-17)
(52.305 759.312 -7.59146e-18)
(-20.6316 771.836 -1.09785e-17)
(-43.6569 751.254 5.38343e-19)
(67.9204 754.442 5.97974e-17)
(-2.31113 725.057 3.64862e-18)
(64.3795 691.217 1.60465e-17)
(30.4644 710.452 -8.09919e-18)
(113.615 667.061 3.80752e-18)
(94.0758 675.098 -1.25771e-18)
(130.68 662.721 5.90479e-18)
(123.944 664.01 -3.9444e-18)
(137.086 662.698 1.96313e-18)
(134.616 662.461 -3.93333e-18)
(139.533 665.171 1.46277e-18)
(138.601 663.734 -9.78515e-19)
(141.308 667.296 0)
(140.278 666.364 -4.82283e-19)
(143.571 668.587 -3.04767e-20)
(142.515 668.142 0)
(143.953 669.397 -8.0277e-20)
(144.041 669.262 7.93394e-24)
(142.464 669.152 5.7789e-20)
(143.475 669.361 -7.09975e-21)
(137.653 668.107 -3.70843e-21)
(140.55 668.825 0)
(128.227 665.383 0)
(133.659 667.109 -7.34248e-21)
(107.749 657.888 0)
(119.937 662.52 -1.56752e-20)
(63.3927 638.478 1.27375e-19)
(89.8112 649.974 -1.6185e-19)
(1.87714 601.465 5.53119e-19)
(30.8592 619.744 -3.36803e-21)
(-19.0506 589.483 -4.71927e-19)
(-15.713 598.732 6.65983e-20)
(-6.45651 602.723 5.17655e-19)
(-9.04481 602.42 -1.57191e-18)
(-3.56942 599.915 -2.78345e-19)
(-5.16726 601.407 2.04249e-20)
(1.44052 598.748 2.04869e-21)
(-1.24432 598.955 6.53242e-20)
(5.65634 600.494 -4.08717e-21)
(3.84706 599.274 -1.26217e-19)
(6.78855 601.779 5.23927e-19)
(25.8938 589.681 -4.88896e-19)
(28.134 587.723 4.77599e-19)
(28.3679 588.964 -9.98471e-22)
(-10.1479 607.487 -5.0357e-19)
(12.553 591.384 2.49156e-19)
(-73.245 642.967 1.47869e-20)
(-42.5446 626.452 2.35527e-19)
(-111.681 659.356 -1.48022e-20)
(-96.719 652.352 0)
(-129.265 665.564 -1.47096e-20)
(-122.568 663.031 0)
(-137.569 668.011 5.94761e-20)
(-134.215 666.96 0)
(-141.252 668.952 1.73795e-19)
(-139.951 668.605 -1.0317e-19)
(-142.174 669.048 0)
(-141.968 669.029 -1.22162e-19)
(-141.298 667.99 0)
(-142.06 668.622 -3.04352e-20)
(-139.806 665.854 -4.87499e-19)
(-140.407 667.055 -2.4391e-19)
(-138.301 663.144 2.39343e-18)
(-139.277 664.398 0)
(-133.607 662.747 0)
(-136.529 662.604 -4.82718e-19)
(-128.082 663.656 -1.87676e-18)
(-1.649 727.099 3.3571e-18)
(-36.1847 711.241 -3.3444e-18)
(44.515 743.63 5.47281e-18)
(24.709 737.088 -8.9358e-19)
(70.509 748.419 -1.59877e-17)
(59.2972 746.818 3.39276e-18)
(78.4545 748.448 -3.7638e-17)
(-41.5804 767.348 -1.30902e-17)
(-27.8806 735.441 -1.9075e-17)
(-24.8392 590.172 -2.09324e-18)
(21.3907 591.77 5.50249e-19)
(-120.181 659.602 1.81358e-18)
(-112.938 660.88 3.78403e-20)
(-54.9242 753.134 1.41529e-17)
(-53.4895 760.948 1.33862e-17)
(-7.5073 770.496 -2.94023e-17)
(9.2601 768.101 3.01868e-17)
(23.8408 764.737 3.68027e-19)
(39.0885 760.848 -2.30706e-17)
(96.4428 742.66 1.78012e-18)
(85.6099 745.999 6.84409e-19)
(131.569 719.772 -8.1455e-17)
(70.2604 751.585 7.11736e-19)
(-26.584 35.6797 0)
(54.8664 756.403 2.68979e-17)
(-47.7148 741.307 0)
(-22.6235 720.247 -3.99352e-18)
(42.9051 690.696 4.40065e-18)
(8.58125 707.438 1.52068e-17)
(95.9355 664.859 -3.15229e-18)
(73.4077 674.057 -8.53796e-18)
(116.316 659.667 -1.9834e-18)
(108.414 661.122 -1.68736e-19)
(124.419 659.239 0)
(121.191 659.271 1.98685e-18)
(128.203 661.374 0)
(126.628 660 0)
(130.945 663.692 -4.83673e-19)
(129.417 662.628 9.79336e-19)
(134.365 665.296 2.67463e-20)
(132.619 664.554 9.28189e-20)
(137.482 666.808 3.00415e-20)
(136.005 666.06 3.81022e-21)
(139.372 668.273 2.37995e-22)
(138.529 667.587 -1.48832e-20)
(138.99 669.387 9.18423e-22)
(139.405 669.046 3.34133e-20)
(136.662 669.382 3.78957e-21)
(138.085 669.416 0)
(131.934 668.174 -5.95758e-20)
(134.704 668.937 6.70619e-20)
(122.612 664.825 -5.9245e-20)
(127.78 666.898 5.93339e-20)
(102.928 656.122 -8.74824e-20)
(114.699 661.474 1.21624e-19)
(58.9248 634.956 2.4868e-19)
(85.17 647.623 -2.73338e-19)
(-0.803693 596.009 -7.05386e-20)
(27.0163 615.248 -5.54813e-19)
(-27.6965 582.257 -5.91245e-20)
(-21.1185 583.999 5.07456e-19)
(-26.15 582.831 -9.07702e-19)
(-11.6092 600.087 0)
(-19.4697 592.652 1.51824e-18)
(-6.45951 603.044 -4.88128e-19)
(-7.92826 602.776 5.23439e-19)
(-3.58091 600.947 1.46437e-19)
(-5.41558 602.094 -1.63213e-20)
(1.30884 599.912 -6.50602e-20)
(-1.23052 600.137 -3.27296e-20)
(5.62657 601.215 -4.08022e-21)
(3.66986 600.321 7.49901e-22)
(7.74905 602.01 1.04557e-18)
(6.69088 602.058 3.96282e-21)
(15.9909 594.129 -3.90215e-20)
(9.95658 600.036 0)
(23.9482 583.39 3.03633e-20)
(27.7658 582.203 4.83815e-19)
(26.9315 582.99 -4.30603e-20)
(-6.97187 602.199 2.75633e-19)
(15.5723 586.188 -7.86755e-19)
(-68.6258 639.946 8.86376e-20)
(-38.222 622.394 0)
(-106.678 657.843 3.83464e-20)
(-91.8348 650.306 -1.87003e-19)
(-123.6 664.98 1.51881e-20)
(-117.177 662.065 0)
(-131.885 667.848 -5.95327e-20)
(-128.419 666.645 5.96309e-20)
(-135.883 668.824 7.50357e-20)
(-134.33 668.421 -5.9518e-20)
(-137.578 668.794 1.33348e-19)
(-137.039 668.903 -1.18235e-19)
(-137.133 667.606 -1.20537e-19)
(-137.774 668.232 1.21357e-19)
(-134.702 666.16 2.43491e-19)
(-136.065 666.911 3.00312e-20)
(-131.686 664.512 4.81387e-19)
(-133.169 665.362 -1.01569e-21)
(-129.402 662.255 9.76794e-19)
(-130.381 663.486 0)
(-126.763 659.657 -9.67569e-19)
(-128.359 660.77 9.6662e-21)
(-124.278 659.333 3.93961e-18)
(-48.9162 688.547 -8.83536e-19)
(-101.714 664.135 8.74055e-20)
(-80.4019 672.102 1.95725e-18)
(21.0306 722.603 -4.7899e-19)
(-13.2913 708.468 1.19152e-18)
(64.9924 737.293 1.98479e-17)
(45.9984 731.986 1.5944e-18)
(88.028 739.756 -1.01214e-17)
(77.2577 739.38 1.29856e-17)
(103.768 737.701 1.19331e-17)
(96.4162 739.263 1.04914e-17)
(118.887 729.129 2.5484e-17)
(114.576 732.567 -3.59965e-18)
(100.324 739.715 1.77895e-17)
(109.716 735.416 -1.3763e-17)
(-46.4265 766.075 2.57346e-17)
(-23.9436 28.5996 4.01773e-16)
(-61.8938 743.947 1.45879e-17)
(-46.8748 729.011 0)
(-3.61498 767.92 -1.67282e-17)
(20.8935 21.245 -1.14579e-17)
(-2.04485 585.268 6.92723e-20)
(-21.1283 573.097 -1.0883e-18)
(11.351 594.528 -5.27451e-19)
(17.5112 584.279 4.92834e-19)
(9.85562 765.206 3.77859e-19)
(103.584 736.432 -2.09569e-17)
(25.0316 761.833 -1.50676e-17)
(88.2808 742.765 7.2166e-19)
(72.6956 748.326 -5.87903e-17)
(40.7341 757.811 1.87357e-17)
(56.7161 753.354 -2.95426e-17)
(-22.6149 25.027 0)
(-27.3899 33.4383 8.97926e-17)
(-27.6707 31.1841 0)
(-29.0257 30.9861 -8.81726e-17)
(-47.2988 67.8329 -3.04088e-16)
(-28.129 26.7372 -6.22073e-17)
(-64.3339 753.48 -2.54626e-18)
(-60.3172 759.82 -2.20502e-17)
(-26.0557 28.7623 1.49622e-16)
(-71.9865 752.78 1.8658e-18)
(127.761 724.28 0)
(121.319 727.084 -3.42497e-18)
(-30.5131 766.635 5.00483e-17)
(-41.2959 765.709 5.94878e-17)
(-73.316 744.855 7.84251e-18)
(-25.0527 29.0191 -1.88914e-16)
(-66.1118 733.232 -1.75208e-17)
(-39.8978 71.5007 3.17702e-16)
(-82.4061 744.862 1.17604e-17)
(-79.9625 735.288 -5.62517e-18)
(-23.5415 26.0571 0)
(-107.476 724.427 4.49467e-18)
(-91.1791 735.708 1.98454e-17)
(-83.5761 723.573 -1.61098e-17)
(-97.4063 724.752 -4.2351e-18)
(-41.0193 712.927 -1.39286e-18)
(-65.1767 720.388 0)
(22.1277 687.007 3.80487e-18)
(-11.1824 701.357 -4.14263e-18)
(77.1087 661.804 -7.68708e-18)
(52.6354 671.343 -3.56948e-18)
(100.533 655.993 1.48388e-20)
(91.6124 657.655 1.34659e-17)
(110.402 655.298 -2.02964e-18)
(106.467 655.509 -2.00676e-18)
(115.517 656.946 0)
(113.305 655.793 0)
(119.109 659.256 0)
(117.203 658.174 9.98112e-19)
(123.333 660.965 0)
(121.169 660.164 -4.85843e-19)
(127.36 662.554 5.30851e-20)
(125.434 661.745 -1.75163e-19)
(130.495 664.36 -6.05534e-20)
(129.042 663.429 -3.04677e-20)
(132.59 666.262 0)
(131.672 665.313 3.83642e-20)
(133.604 667.956 -6.05527e-20)
(133.23 667.157 2.6393e-20)
(132.771 668.652 -3.20628e-20)
(133.41 668.5 6.02551e-20)
(130.1 668.096 -3.77621e-21)
(131.574 668.48 0)
(126.008 666.206 2.25144e-20)
(128.315 667.358 3.72262e-21)
(117.192 661.447 -6.02879e-20)
(122.116 664.417 -1.49724e-20)
(98.3501 650.661 2.35035e-19)
(109.474 657.234 5.96136e-20)
(54.9817 626.103 1.41661e-20)
(80.8136 640.846 -2.37849e-19)
(24.1958 605.352 0)
(-21.3924 583.377 9.70338e-19)
(-9.03049 600.143 5.27395e-19)
(-14.0576 594.162 -1.02155e-18)
(-6.23553 603.04 -2.98515e-20)
(-6.98274 602.498 1.2196e-20)
(-3.37817 601.85 -1.95688e-19)
(-5.27277 602.67 1.63016e-20)
(1.13293 600.94 9.78757e-20)
(-1.13863 601.129 -1.21749e-20)
(5.24778 601.829 1.63256e-20)
(3.31932 601.249 1.917e-19)
(6.82323 601.723 -5.14296e-19)
(6.33912 602.115 -2.35961e-20)
(7.91823 599.662 0)
(24.8196 570.49 -2.95336e-20)
(-5.28443 591.566 2.48945e-19)
(16.9998 576.673 1.68667e-20)
(-64.4411 631.994 1.49838e-20)
(-34.4337 613.237 -2.79864e-19)
(-101.94 652.957 -1.08324e-19)
(-87.296 644.326 1.20776e-19)
(-118.113 661.996 1.57725e-20)
(-111.8 658.263 -5.95027e-20)
(-125.857 665.915 7.47605e-20)
(-122.742 664.422 3.63856e-22)
(-129.504 667.445 1.51663e-20)
(-127.981 666.843 0)
(-131.694 667.957 -1.34416e-19)
(-130.865 667.839 0)
(-131.923 666.977 -1.05336e-19)
(-132.116 667.671 2.40251e-19)
(-130.458 665.328 0)
(-131.317 666.209 -3.05596e-20)
(-127.841 663.563 2.44585e-19)
(-129.282 664.439 -3.06805e-20)
(-124.32 661.956 -2.50434e-19)
(-126.177 662.736 -4.86901e-19)
(-120.448 660.298 0)
(-122.354 661.17 0)
(-117.3 657.999 -1.46929e-18)
(-118.707 659.243 4.90902e-19)
(-113.386 655.684 -1.9575e-18)
(-115.647 656.535 1.06954e-18)
(-104.847 655.948 1.94466e-18)
(-110.101 655.643 4.93633e-19)
(-83.4771 660.627 0)
(-96.4845 657.131 0)
(-27.2642 687.706 -3.37285e-18)
(-59.8096 669.778 -2.0536e-18)
(39.6179 717.952 0)
(8.38691 705.919 -4.61857e-18)
(81.009 728.419 -1.51735e-18)
(62.267 725.218 0)
(105.123 729.396 4.31121e-19)
(93.8973 729.57 0)
(113.685 728.813 -3.44825e-18)
(-26.1983 32.8732 2.7787e-20)
(-26.686 30.7911 -8.53794e-17)
(-27.8803 28.941 -1.4384e-16)
(-51.9715 763.463 0)
(-17.4368 767.302 -1.81092e-17)
(-24.8974 32.3486 -1.77686e-16)
(-161.798 662.217 -1.18689e-16)
(61.4238 32.1122 -2.99629e-16)
(120.293 722.988 6.06126e-17)
(-22.9459 569.093 9.83817e-19)
(22.8814 570.175 6.05325e-20)
(-28.773 33.5945 -1.88079e-16)
(-65.6095 757.672 7.3868e-18)
(-44.2825 762.64 0)
(-31.5063 763.888 0)
(-4.45422 765.221 7.65994e-18)
(106.299 732.991 0)
(-30.9853 27.8227 0)
(-78.4923 751.258 7.64099e-18)
(121.248 717.776 0)
(130.213 716.747 2.84194e-17)
(133.278 720.619 0)
(10.5445 762.336 -3.0889e-17)
(90.6447 739.331 -2.85223e-17)
(74.6337 745 2.90811e-17)
(-90.0143 743.899 -1.17782e-17)
(126.516 450.227 -7.54837e-17)
(26.0231 758.723 0)
(-127.73 618.253 3.39527e-18)
(-100.075 735.432 1.22025e-17)
(-30.2752 31.1343 7.2982e-17)
(42.1435 754.673 -2.3486e-19)
(58.5614 750.073 0)
(-23.2131 29.6319 1.97638e-16)
(-23.5433 31.5799 -1.83548e-16)
(124.19 718.848 -1.22046e-19)
(-25.292 34.6831 -9.28004e-17)
(-23.7593 33.8453 -3.68968e-20)
(23.1708 22.5807 5.78232e-18)
(-57.5158 703.868 -2.79928e-17)
(-82.1273 711.091 1.4849e-16)
(4.16491 680.904 -4.51378e-19)
(-28.2712 693.76 8.38328e-18)
(58.214 657.544 4.27554e-18)
(33.7071 667.184 -4.4131e-18)
(83.5595 651.457 -2.04781e-18)
(73.923 653.073 2.04428e-18)
(95.0092 650.666 1.00595e-18)
(90.3975 650.968 -2.02597e-18)
(101.631 651.932 1.97129e-18)
(98.7015 650.965 -1.00627e-18)
(106.32 654.143 -4.99388e-19)
(103.975 653.1 4.95342e-19)
(111.313 655.876 0)
(108.776 655.056 -1.48106e-18)
(116.087 657.503 0)
(113.784 656.674 -2.49488e-19)
(119.968 659.331 -6.09824e-20)
(118.154 658.389 9.17647e-20)
(122.895 661.318 0)
(121.537 660.313 1.58031e-20)
(125.051 663.282 0)
(124.066 662.312 3.71563e-21)
(126.524 665.028 -2.39087e-22)
(125.9 664.181 1.91621e-21)
(127.075 666.182 3.05294e-20)
(127.055 665.664 -3.01955e-20)
(126.229 665.831 5.51586e-21)
(126.791 666.212 -1.75048e-21)
(123.816 663.927 7.60537e-21)
(125.08 664.982 -3.78007e-21)
(120.426 660.694 -7.52871e-20)
(122.414 662.512 1.51758e-20)
(112.559 653.664 0)
(117.08 657.997 6.0074e-20)
(94.7044 639.185 -2.38362e-19)
(105.183 647.886 2.50125e-19)
(52.2905 610.388 5.07152e-19)
(77.4055 627.689 -5.26953e-19)
(0.329313 564.852 -4.65706e-19)
(23.0387 587.592 5.32825e-19)
(-16.5851 552.53 5.5084e-19)
(-14.5758 583.856 0)
(-20.2038 568.937 0)
(-6.66725 599.69 -7.60629e-19)
(-9.45819 593.998 5.1855e-19)
(-5.7155 602.905 -1.59243e-20)
(-5.93414 602.163 -1.46911e-19)
(-3.06696 602.563 3.27549e-20)
(-4.72996 602.996 1.63176e-20)
(0.929944 601.798 -4.6859e-20)
(-1.10009 602.059 -1.61766e-20)
(4.51937 602.179 0)
(2.82844 601.95 -1.32368e-19)
(5.76757 601.37 1.22508e-19)
(5.60924 602.013 0)
(7.22247 593.997 -1.77008e-20)
(5.79444 599.178 2.71165e-19)
(17.1613 570.048 -5.55588e-19)
(11.101 584.373 4.94188e-20)
(16.6745 549.338 5.25397e-19)
(-6.18889 573.227 5.96138e-19)
(14.2322 556.941 -1.1282e-18)
(-60.9929 617.596 -4.43941e-21)
(-31.889 597.198 0)
(-97.9365 642.609 -1.05142e-21)
(-83.5316 632.383 0)
(-113.389 654.962 0)
(-107.209 649.897 0)
(-120.213 660.781 -1.50861e-20)
(-117.471 658.519 0)
(-123.256 663.544 -1.51999e-20)
(-121.904 662.29 0)
(-125.306 665.12 -1.42054e-20)
(-124.482 664.48 7.46461e-21)
(-125.84 665.128 1.19966e-19)
(-125.677 665.311 -1.42346e-20)
(-124.751 663.867 1.55431e-20)
(-125.345 664.554 -1.20818e-19)
(-122.928 662.161 2.11676e-19)
(-123.909 663.038 -2.14668e-19)
(-120.414 660.308 4.88798e-19)
(-121.764 661.236 -2.15301e-19)
(-117.03 658.53 4.76405e-19)
(-118.846 659.399 -7.34852e-19)
(-112.704 656.934 4.87821e-19)
(-114.966 657.713 -1.48318e-18)
(-108.069 655.306 -4.94707e-18)
(-110.349 656.159 9.85617e-19)
(-104.129 653.182 -9.7772e-19)
(-105.951 654.304 -2.90184e-18)
(-98.8312 651.321 4.99822e-19)
(-101.794 651.961 1.33871e-20)
(-89.0536 651.775 3.8992e-18)
(-94.9554 651.398 -1.97193e-18)
(-65.5604 657.395 3.92352e-18)
(-80.2782 653.258 -4.97415e-18)
(-8.44198 683.708 -7.20187e-18)
(-39.9283 667.223 -6.52639e-19)
(54.8649 708.558 -1.71437e-18)
(24.8682 697.869 7.7064e-18)
(96.2638 717.617 1.43447e-17)
(77.6461 715.017 0)
(109.839 718.428 -1.4291e-17)
(-27.5664 38.8385 0)
(-28.2443 36.4037 0)
(-98.227 711.413 1.802e-16)
(-26.0354 26.8285 2.67077e-16)
(-26.8729 28.6277 -7.53517e-17)
(-55.8034 760.745 0)
(-18.2484 764.712 0)
(-24.1047 36.3598 2.88631e-16)
(108.375 725.971 -3.16104e-17)
(108.032 729.448 2.97724e-17)
(-29.7582 39.146 -2.26852e-16)
(-20.8044 36.4564 1.62054e-16)
(-23.7495 24.8741 0)
(-70.079 755.223 -7.65832e-18)
(109.011 705.822 0)
(122.818 706.256 -1.46989e-17)
(137.974 714.517 4.28784e-19)
(-4.17938 762.23 1.75038e-18)
(-46.6708 759.673 0)
(-33.3088 760.888 0)
(-25.263 38.8513 -1.67624e-16)
(92.5436 735.779 -1.4657e-17)
(23.8938 23.4645 -2.61146e-21)
(52.5936 583.015 -4.98759e-19)
(26.1602 556.846 0)
(8.97902 569.384 5.50908e-19)
(12.9884 548.164 3.15647e-20)
(76.4281 741.495 0)
(-31.6029 17.6455 -1.82941e-16)
(-83.6407 748.999 1.48604e-19)
(140.371 716.045 -1.67483e-17)
(-22.2872 26.2398 -2.6331e-17)
(22.2562 21.496 -5.71863e-18)
(22.4562 20.5006 3.36624e-17)
(22.5881 19.5491 -6.95564e-22)
(-16.3338 38.079 -4.89468e-17)
(10.856 759.144 -4.22647e-19)
(-21.3711 63.4894 0)
(-14.706 64.5881 -1.57647e-16)
(-26.815 41.6281 1.82901e-16)
(34.3311 11.1519 4.45537e-17)
(-27.6481 61.1783 0)
(-31.9903 62.491 -4.72591e-21)
(-96.426 742.017 -1.58408e-17)
(135.338 715.855 4.93e-17)
(26.7536 26.9987 2.09261e-17)
(26.113 26.739 0)
(25.6943 28.3685 -2.09983e-17)
(26.4178 28.8315 -2.20656e-17)
(34.016 37.0562 6.45605e-20)
(26.8687 755.486 1.51654e-17)
(59.9806 746.714 -3.03157e-17)
(-107.698 733.831 -1.07898e-19)
(-21.8393 28.5722 -1.05508e-16)
(43.4052 751.338 3.04423e-17)
(-7.91462 64.8967 -3.01881e-19)
(-4.65839 68.7201 3.19814e-16)
(-18.8715 67.7841 1.59392e-16)
(-114.295 722.423 -9.83628e-17)
(-22.1119 30.4483 9.73382e-17)
(-11.8277 68.6143 -3.20253e-16)
(-22.2343 32.5889 8.94213e-17)
(-22.2371 35.1078 0)
(110.646 721.812 -7.56508e-18)
(24.0641 22.3654 -5.79741e-18)
(126.533 714.899 7.94334e-18)
(-44.8742 75.6566 -1.41641e-16)
(-12.8893 672.036 3.64179e-18)
(-43.8226 684.137 0)
(39.4543 651.779 -2.15596e-18)
(15.5025 660.304 0)
(66.1831 646.135 -5.93655e-18)