/*--------------------------------*- C++ -*----------------------------------*\
| =========                 |                                                 |
| \\      /  F ield         | OpenFOAM: The Open Source CFD Toolbox           |
|  \\    /   O peration     | Version:  2212                                  |
|   \\  /    A nd           | Website:  www.openfoam.com                      |
|    \\/     M anipulation  |                                                 |
\*---------------------------------------------------------------------------*/
FoamFile
{
    version     2.0;
    format      ascii;
    arch        "LSB;label=32;scalar=64";
    class       volScalarField;
    location    "0.036";
    object      T;
}
// * * * * * * * * * * * * * * * * * * * * * * * * * * * * * * * * * * * * * //

dimensions      [0 0 0 1 0 0 0];

internalField   nonuniform List<scalar> 
2308
(
236.395
256.974
260.691
239.304
228.356
225.043
223.976
226.711
229.628
217.423
217.099
216.579
216.322
216.465
216.834
217.489
218.159
218.838
218.077
217.362
216.694
216.266
216.233
216.408
216.717
217.133
217.938
218.919
224.193
218.927
221.196
224.695
230.116
239.091
245.781
246.604
247.742
251.353
256.196
259.238
259.066
258.792
258.276
257.241
255.164
255.07
257.142
258.125
258.602
258.683
258.647
257.938
253.717
247.507
241.676
239.002
236.11
231.915
226.919
222.075
219.963
218.754
218.361
217.992
217.743
217.508
217.298
217.175
217.389
217.853
218.49
252.866
252.803
218.237
217.465
216.827
216.509
216.56
216.742
217.021
217.618
218.469
220.166
223.347
228.56
232.489
236.146
239.215
241.706
246.775
252.907
258.136
258.864
258.811
258.631
258.148
257.193
255.21
219.586
253.023
219.701
219.191
252.777
255.032
257.224
258.699
259.513
259.82
259.559
259.207
251.632
241.905
237.069
234.623
232.656
231.246
229.717
227.081
223.247
220.955
220.08
219.447
219.071
218.786
218.576
218.459
218.369
218.595
219.077
227.533
224.591
223.629
224.19
219.573
218.611
217.809
217.398
217.306
217.443
217.757
218.233
219.306
220.884
224.519
228.72
230.619
231.745
233.198
234.909
237.437
241.385
251.06
258.486
259.911
259.726
259.475
258.83
257.6
255.506
253.276
250.997
250.8
250.613
250.545
227.511
250.525
228.28
228.114
220.01
230.718
227.363
220.516
219.724
248.736
248.597
248.417
248.365
248.337
248.292
250.379
252.514
254.684
256.93
259.137
260.511
261.092
261.295
253.851
245.713
237.742
234.742
232.916
231.852
230.933
230.424
229.803
228.471
225.387
222.873
221.721
220.86
220.442
220.13
219.982
219.897
219.816
220.033
221.656
241.319
227.213
226.26
225.046
223.985
222.863
221.779
220.77
219.899
219.097
218.689
218.62
218.742
219.082
219.56
220.833
222.457
226.175
229.412
230.44
231.021
231.473
232.405
233.388
234.892
237.392
243.825
253.044
261.179
261.068
260.722
259.835
257.612
255.234
252.973
250.76
248.574
266.392
229.505
238.696
247.808
252.413
229.071
220.437
221.689
248.413
250.393
252.432
254.645
257.127
259.955
261.309
261.824
258.977
250.706
240.152
236.32
234.08
232.858
231.799
231.316
231.021
230.873
230.551
229.802
227.688
225.2
223.482
222.588
222.022
221.735
221.591
221.503
221.422
220.441
231.976
228.374
226.157
225.102
224.077
223.088
222.127
221.27
220.563
220.214
220.272
220.465
220.786
221.585
222.839
225.439
228.581
230.046
230.687
230.934
231.159
231.491
232.095
233.134
234.082
235.96
239.289
248.876
256.896
262.189
261.377
260.171
257.728
255.101
252.748
250.584
248.516
246.525
246.449
246.572
246.472
246.332
246.317
246.283
246.291
246.504
241.782
258.801
268.043
230.431
236.311
260.083
221.553
221.024
233.036
232.024
238.806
226.323
226.126
225.156
224.278
223.471
222.749
222.208
221.935
222.082
222.376
222.988
223.894
225.706
228.478
230.573
231.078
231.362
231.49
231.604
231.896
232.329
233.02
233.789
234.778
235.942
238.286
242.841
253.321
261.506
261.518
260.798
258.568
255.329
252.753
250.601
248.637
246.773
245.016
244.636
244.454
244.494
244.408
244.315
244.349
244.327
244.398
244.699
245.327
246.93
248.662
250.537
252.594
254.962
257.802
260.407
262.035
262.251
255.215
244.217
239.019
236.44
235.126
233.946
233.02
232.345
231.944
231.752
231.591
231.452
231.055
230.033
227.54
225.513
224.465
223.755
223.47
223.296
223.206
233.273
221.819
221.707
222.787
233.766
232.806
231.163
229.704
229.655
227.113
227.217
226.459
225.66
224.938
224.389
224.152
224.208
224.364
224.792
225.496
226.879
228.988
231.104
231.931
232.243
232.325
232.367
232.505
232.809
233.205
233.809
234.552
235.38
236.435
237.545
239.566
242.77
250.504
258.49
262.449
262.269
260.396
257.508
254.388
251.845
249.754
247.942
246.335
244.906
243.432
242.84
242.575
242.553
242.474
242.43
242.524
242.539
242.653
243.035
243.855
245.533
246.873
248.375
250.086
252.007
254.269
256.997
260.039
261.969
262.335
260.159
252.505
243.99
240.405
238.278
237.092
235.971
234.962
234.116
233.384
233.059
232.78
232.663
232.546
232.35
231.816
230.379
228.203
226.636
225.846
225.33
225.089
223.125
234.478
234.585
268.231
223.097
228.88
229.961
231.496
222.558
225.134
222.87
222.29
234.428
233.325
243.653
242.046
241.279
240.901
240.765
240.678
240.66
240.81
240.884
241.099
241.607
242.56
244.346
247.518
248.634
249.841
251.146
252.631
254.438
256.711
259.62
261.87
262.752
262.802
259.463
253.185
246.858
243.853
241.623
240.17
238.92
237.62
236.628
235.554
235.019
234.475
234.229
233.981
233.868
233.723
233.48
232.856
231.314
229.465
228.241
227.515
224.902
228.114
235.489
248.666
255.496
227.277
226.827
226.533
226.401
226.472
226.793
227.369
228.588
230.325
231.904
232.83
233.184
233.31
233.425
233.553
233.844
234.113
234.693
235.119
235.977
236.815
238.051
239.452
240.858
243.117
245.755
251.501
258.113
263.055
263.04
262.413
260.23
257.101
254.509
252.461
250.75
249.335
248.004
246.83
235.78
235.964
267.964
222.879
235.44
223.252
251.104
251.94
252.792
253.686
254.718
256.194
258.192
259.977
261.603
261.867
261.877
259.886
255.603
252.09
248.91
246.639
244.609
243.103
241.363
240.076
238.882
237.86
237.174
236.522
236.205
235.826
235.642
235.456
235.346
235.141
234.573
233.277
231.615
226.997
226.942
236.223
245.678
242.424
240.807
239.876
239.351
239.121
239.026
239.026
239.223
239.374
239.652
240.263
241.382
243.218
246.484
250.463
228.872
233.555
231.654
230.145
229.565
225.284
225.445
258.131
244.531
229.163
229.122
229.189
229.481
229.947
230.891
232.294
233.529
234.285
234.572
234.738
234.849
235.083
235.3
235.735
236.165
236.74
237.396
238.143
239.257
240.494
242.312
244.035
246.156
248.492
251.489
254.958
259.009
262.136
262.301
262.11
260.606
258.764
256.484
254.734
253.42
252.389
251.444
250.535
249.806
266.406
224.789
223.519
236.873
237.254
237.308
226.1
267.114
264.224
224.404
223.593
230.303
224.463
245.084
248.229
262.95
253.66
253.931
254.224
254.558
255.002
255.512
256.416
257.675
258.484
258.987
258.859
258.905
258.245
256.388
254.937
253.763
252.412
250.656
248.605
246.709
244.797
243.487
242.063
241.149
240.17
239.52
238.889
238.451
238.057
237.767
237.594
237.393
237.276
236.981
236.582
227.651
236.266
239.651
249.229
244.844
241.437
239.712
238.716
238.084
237.736
237.588
237.585
237.824
238.053
238.442
239.146
240.339
242.301
245.731
249.901
253.311
225.573
233.555
231.704
230.399
230.737
231.089
254.401
240.78
232.703
232.536
232.603
232.985
233.756
234.559
235.272
235.737
236.062
236.24
236.525
236.803
237.229
237.679
238.25
238.884
239.581
240.519
241.442
242.819
244.13
246.213
248.296
250.539
252.294
253.526
254.624
256.089
257.847
258.897
258.922
259.178
258.823
258.012
256.767
255.592
254.836
254.293
253.848
253.501
253.209
252.881
229.446
226.675
239.261
233.78
235.727
237.688
224.722
238.25
238.59
238.756
261.018
235.862
255.081
222.822
241.017
226.647
268.019
266.553
241.207
241.183
241.283
241.395
241.668
242.046
242.558
243.126
243.809
244.604
245.563
246.65
248.073
249.516
251.191
252.735
253.799
254.462
254.838
255.034
255.372
255.729
255.742
255.58
255.198
255.334
255.195
255.317
255.273
255.105
254.919
254.876
254.875
254.846
254.779
254.631
264.88
252.584
248.738
244.196
240.645
238.72
237.557
236.832
236.428
236.25
236.258
236.509
236.775
237.207
238.025
239.438
241.576
245.099
249.367
252.94
254.426
228.13
229.392
231.841
267.879
268.696
269.324
269.375
269.138
267.756
266.238
264.72
253.432
263.088
233.61
235.881
235.84
233.985
236.215
238.411
224.772
229.832
264.745
233.578
231.79
231.395
232.324
233.659
234.552
252.129
240.443
239.786
239.452
239.318
239.16
239.26
239.409
239.571
239.792
240.03
240.431
240.883
241.528
242.119
242.855
243.617
244.515
245.566
246.816
248.183
249.619
251.169
252.581
253.682
254.355
254.656
254.822
255.069
255.528
255.564
255.443
255.095
255.287
255.173
255.265
255.303
255.107
254.788
254.651
254.619
254.593
254.539
254.421
254.246
236.141
233.636
231.933
254.911
232.184
226.373
258.718
232.032
261.135
240.256
239.96
239.639
233.916
236.313
233.945
264.995
236.281
259.164
263.763
244.026
233.421
233.747
265.523
267.02
268.54
247.812
247.816
247.932
248.159
248.456
248.818
249.191
249.733
250.471
251.283
252.226
253.069
253.764
254.342
254.802
255.08
255.196
255.157
255.015
254.689
254.135
253.147
252.234
251.249
250.668
250.761
250.864
251.23
251.981
252.789
253.393
253.816
254.071
254.221
254.289
254.254
254.15
238.151
235.393
233.402
232.556
233.511
235.525
250.656
227.03
233.265
231.89
231.827
263.118
263.294
238.675
238.799
221.852
257.022
255.344
228.546
228.524
269.369
264.049
266.069
238.296
253.899
252.194
248.374
243.849
240.227
238.113
236.761
235.919
235.428
235.177
235.16
235.423
235.745
236.279
237.255
238.819
241.122
244.676
248.903
252.489
254.043
253.873
269.933
270.45
270.818
270.795
270.538
269.966
262.494
228.251
230.098
231.16
233.049
256.292
261.096
261.49
241.76
256.761
240.525
240.557
259.331
226.266
265.856
268.062
241.465
254.097
252.28
250.64
249.562
248.764
248.231
247.814
247.593
247.498
247.518
247.634
247.87
248.167
248.621
249.168
249.755
250.38
251.044
251.857
252.634
253.288
253.802
254.195
254.474
254.728
254.961
254.93
254.779
254.424
253.894
252.991
252.095
251.115
250.478
250.61
250.715
251.054
251.766
252.638
253.238
253.629
253.894
254.047
254.111
254.073
253.966
253.754
268.607
246.448
263.146
231.832
263.35
238.798
262.774
257.57
226.379
260.846
227.438
227.818
255.098
249.126
241.59
238.157
235.492
234.386
235.502
237.31
241.535
239.841
258.087
235.233
256.221
246.79
255.517
255.827
255.701
255.654
255.525
255.583
255.572
255.521
255.382
255.424
255.515
255.612
255.61
255.577
255.503
255.396
255.28
255.093
254.695
254.001
253.043
251.781
250.267
248.619
247.192
246.018
245.604
245.729
246.009
246.653
247.644
248.619
249.591
250.49
251.172
251.734
252.138
252.384
252.454
252.405
264.149
265.725
267.251
268.805
258.544
260.056
239.442
235.984
235.361
243.59
238.188
240.639
220.889
256.948
241.16
230.871
230.279
230.831
236.267
247.148
261.439
261.654
242.965
242.962
222.134
256.499
225.739
254.125
251.281
241.26
241.203
257.503
226.185
226.686
248.922
241.668
251.597
253.439
256.991
237.721
245.408
270.259
271.428
272.136
272.479
272.639
272.567
272.285
271.774
270.89
228.902
227.724
242.628
243.254
259.394
250.758
258.488
257.852
257.486
256.979
256.565
256.24
256.048
255.804
255.657
255.439
255.367
255.245
255.276
255.366
255.382
255.368
255.358
255.365
255.386
255.389
255.37
255.319
255.225
255.066
254.869
254.667
254.319
253.672
252.743
251.549
250.105
248.536
247.128
245.948
245.477
245.606
245.884
246.49
247.48
248.466
249.502
250.418
251.167
251.72
252.121
252.361
252.444
252.419
252.342
253.543
253.538
251.713
247.952
243.501
239.9
237.576
235.954
234.927
234.367
234.115
234.1
234.337
234.684
235.327
236.454
238.243
240.652
244.162
248.335
251.919
253.621
253.604
252.314
231.448
259.682
242.577
244.565
243.161
258.458
268.818
261.28
223.522
224.975
258.321
257.463
253.891
246.933
241.829
238.679
237.393
238.246
239.965
242.317
247.294
245.734
244.716
234.859
230.504
242.89
261.661
244.038
221.306
251.998
248.848
248.285
241.419
255.294
226.255
254.992
242.644
241.162
238.985
237.871
239.272
243.382
248.456
254.37
258.719
265.924
233.129
260.061
261.569
263.15
264.615
266.538
269.053
228.128
227.522
272.119
244.656
272.068
273.553
273.71
273.812
273.976
274.088
274.152
274.15
274.122
274.131
273.917
272.814
248.182
257.643
240.273
238.814
223.595
264.95
229.629
258.109
258.183
258.326
258.47
258.644
258.753
258.756
258.712
258.592
258.428
258.226
258.082
257.832
257.622
257.207
256.873
256.605
256.299
255.978
255.647
255.302
254.895
254.395
253.764
253.025
252.132
251.052
249.731
248.22
246.561
244.841
243.261
241.976
241.167
241.064
241.247
241.657
242.427
243.441
244.47
245.47
246.386
247.185
247.852
248.386
248.787
249.074
249.202
249.221
249.153
252.12
253.242
253.198
251.331
247.695
243.472
239.982
237.549
235.752
234.507
233.788
233.425
233.371
233.621
234.061
234.843
236.151
238.089
240.553
243.964
247.957
251.488
253.281
253.307
252.115
249.018
249.069
249.004
248.864
248.606
248.231
247.708
247.067
246.322
245.463
244.523
243.525
242.537
241.764
241.344
241.164
241.225
241.984
243.254
244.87
246.638
248.379
249.964
251.361
252.512
253.451
254.225
254.875
255.387
255.801
256.151
256.491
256.821
257.078
257.526
257.986
258.273
258.564
258.734
258.935
259.026
259.079
259.13
258.853
259.382
243.839
256.597
241.883
258.364
258.685
226.131
257.862
244.795
247.943
229.586
237.82
230.426
229.341
239.541
232.938
259.813
259.707
245.857
252.936
247.726
246.156
251.332
243.42
243.706
257.85
253.687
245.183
227.405
255.802
243.838
248.875
250.411
246.829
246.534
259.863
235.601
229.889
232.755
246.237
244.253
242.952
242.151
243.587
247.532
253.678
257.768
259.073
258.957
258.434
246.148
253.119
224.926
258.797
259.086
258.572
254.542
248.643
244.004
242.396
243.272
258.321
228.3
255.386
257.01
258.513
259.731
225.333
249.665
228.783
251.338
237.332
255.64
259.317
257.425
258.141
259.91
261.455
263.947
266.944
270.535
229.073
229.497
254.811
256.484
255.823
255.711
257.408
257.501
258.062
258.011
257.827
257.655
257.465
257.168
256.84
256.307
255.926
255.224
254.783
254.172
253.524
252.808
252.011
251.085
250.003
248.738
247.321
245.812
244.213
242.614
241.102
239.782
238.835
238.274
238.122
238.217
238.508
239.005
239.692
240.506
241.335
242.123
242.826
243.467
244.007
244.458
244.813
245.109
245.273
245.395
245.377
246.368
245.649
249.048
251.868
252.934
252.82
250.844
247.222
243.139
239.741
237.327
235.362
233.915
233.037
232.601
232.531
232.754
233.256
234.198
235.702
237.759
240.189
243.475
247.413
250.973
252.918
253.01
251.9
248.951
245.358
251.265
273.342
274.547
274.58
274.63
274.709
274.771
274.777
274.785
274.809
274.885
274.775
273.814
271.463
262.956
265.581
269.562
270.362
256.476
254.983
255.006
255.593
256.312
256.935
257.367
257.616
257.671
257.626
257.508
257.314
257.041
256.738
256.256
255.87
255.28
254.82
254.305
253.724
253.1
252.411
251.655
250.779
249.751
248.588
247.219
245.738
244.177
242.593
241.083
239.742
238.696
238.056
237.867
237.962
238.277
238.807
239.533
240.394
241.288
242.14
242.915
243.605
244.188
244.659
245.034
245.333
245.489
245.566
245.531
245.482
253.536
248.759
257.952
257.904
234.053
230.947
228.977
235.558
249.187
246.475
252.102
248.086
228.564
253.451
257.896
259.649
260.071
259.628
257.774
254.944
251.246
249.746
258.798
219.58
253.328
255.867
257.724
258.614
255.704
250.281
249.416
249.685
251.036
254.401
257.591
259.431
260.092
259.859
258.715
231.301
229.778
232.307
258.007
249.155
251.28
248.979
246.289
248.199
247.803
247.872
249.305
249.119
249.347
251.027
252.078
253.021
253.355
253.314
253.22
253.049
252.763
252.442
251.968
251.538
250.875
250.267
249.545
248.726
247.815
246.795
245.672
244.431
243.049
241.609
240.311
239.188
238.247
237.505
236.984
236.705
236.649
236.721
236.94
237.282
237.719
238.244
238.828
239.421
239.985
240.497
240.964
241.332
241.669
241.989
242.251
242.409
242.558
242.594
242.64
256.213
257.79
258.721
259.447
260.632
262.576
265.2
267.928
268.35
233.17
255.883
247.892
253.801
255.847
231.425
228.582
261.543
263.543
267.108
268.584
230.853
250.711
268.722
271.924
271.929
270.794
270.039
269.334
268.702
268.673
268.826
269.363
270.126
270.788
270.971
268.364
268.033
266.019
245.344
248.846
251.64
252.765
252.736
250.812
247.289
243.373
240.115
237.734
235.776
234.233
233.151
232.54
232.395
232.696
233.339
234.454
236.07
238.12
240.478
243.629
247.442
250.913
252.806
252.824
251.681
248.795
245.265
242.602
249.44
247.606
247.67
248.634
250.008
251.3
252.308
252.998
253.388
253.567
253.542
253.436
253.191
252.874
252.411
251.962
251.377
250.756
250.118
249.379
248.565
247.666
246.672
245.572
244.37
243.046
241.604
240.227
239.018
238.009
237.209
236.631
236.294
236.21
236.28
236.509
236.888
237.37
237.945
238.586
239.244
239.864
240.436
240.948
241.349
241.703
242.035
242.303
242.454
242.589
242.612
242.616
242.56
248.935
251.445
255.935
230.536
230.458
241.778
241.687
257.512
250.939
241.784
248.36
242.485
244.984
252.119
251.046
250.157
252.073
242.982
246.703
237.571
239.917
233.867
235.493
232.196
232.792
232.092
231.953
233.682
232.647
237.247
235.237
242.815
239.643
250.127
246.633
252.059
252.037
248.305
250.959
241.646
241.646
242.4
244.976
241.461
241.563
241.1
241.297
240.512
240.843
239.798
240.151
238.952
239.4
237.974
238.471
237.013
237.481
236.201
236.584
235.632
235.88
235.466
235.482
235.957
235.611
237.335
236.527
239.597
238.375
242.064
240.86
244.224
243.192
245.953
245.144
247.274
246.661
248.295
247.815
248.982
248.683
249.189
249.132
248.996
249.177
248.035
248.615
246.132
247.214
243.567
244.868
242.019
242.453
244.972
242.728
254.083
248.946
258.765
257.641
258.897
258.911
258.507
258.792
255.656
256.44
259.558
256.314
263.762
262.332
263.88
264.389
265.013
263.718
267.78
266.596
266.443
256.667
262.282
253.943
254.87
252.827
253.202
252.351
252.542
252.134
252.177
252.456
252.185
254.24
253.113
268.349
256.174
268.878
266.872
270.264
268.386
268.029
268.01
266.833
267.393
263.564
264.938
263.765
263.421
261.534
263.144
257.093
259.075
257.423
256.804
258.535
258.54
258.686
258.604
257.14
258.519
247.176
252.831
242.179
243.625
242.31
242.124
243.314
242.948
245.572
244.094
247.661
246.732
248.567
248.269
248.667
248.678
248.432
248.596
247.739
248.128
246.672
247.234
245.218
246.003
243.279
244.31
240.934
242.144
238.533
239.689
236.878
237.59
236.107
236.388
236.046
236.007
236.435
236.201
237.082
236.732
237.899
237.473
238.796
238.347
239.637
239.232
240.33
240.002
240.979
240.669
241.418
241.227
241.582
270.627
267.809
253.786
225.453
241.776
249.909
241.63
264.638
271.878
272.801
272.817
272.117
272.154
272.557
272.547
224.201
249.384
253.772
251.399
251.439
220.606
221.635
220.546
232.028
229.373
230.685
233.17
230.284
231.702
234.196
231.04
232.557
235.04
231.632
233.3
248.117
229.828
272.193
229.906
268.383
227.457
238.253
246.236
227.914
228.803
253.353
222.911
218.858
249.672
259.01
222.75
254.921
259.294
258.223
267.582
245.634
227.247
253.069
224.424
267.002
222.824
244.949
223.994
223.236
226.099
231.873
271.973
265.875
241.629
257.016
249.152
253.33
268.628
262.543
233.232
269.864
257.037
236.651
248.054
244.498
220.473
262.639
255.244
236.771
226.311
216.974
218.024
257.437
)
;

boundaryField
{
    wall
    {
        type            zeroGradient;
    }
    outlet
    {
        type            inletOutlet;
        inletValue      uniform 85;
        value           nonuniform List<scalar> 
33
(
248.354
242.481
244.979
252.114
251.04
250.157
252.07
242.983
246.705
237.573
239.918
233.867
235.495
232.197
232.792
232.094
231.957
233.685
232.649
237.25
235.24
242.816
239.644
250.128
246.634
252.055
252.035
248.297
250.952
242.395
244.968
241.772
241.626
)
;
    }
    inlet
    {
        type            fixedValue;
        value           uniform 273.16;
    }
    frontAndBackPlanes
    {
        type            empty;
    }
}


// ************************************************************************* //
