/*--------------------------------*- C++ -*----------------------------------*\
| =========                 |                                                 |
| \\      /  F ield         | OpenFOAM: The Open Source CFD Toolbox           |
|  \\    /   O peration     | Version:  2212                                  |
|   \\  /    A nd           | Website:  www.openfoam.com                      |
|    \\/     M anipulation  |                                                 |
\*---------------------------------------------------------------------------*/
FoamFile
{
    version     2.0;
    format      ascii;
    arch        "LSB;label=32;scalar=64";
    class       volVectorField;
    location    "0.83";
    object      U;
}
// * * * * * * * * * * * * * * * * * * * * * * * * * * * * * * * * * * * * * //

dimensions      [0 1 -1 0 0 0 0];

internalField   nonuniform List<vector> 
2308
(
(-178.077 449.393 -1.85368e-16)
(11.3879 -26.0529 0)
(165.222 466.242 1.19176e-17)
(243.481 508.34 -4.82543e-17)
(9.62408 542.375 0)
(48.4891 546.179 -2.35696e-18)
(-46.7912 553.21 5.51088e-19)
(-50.5881 544.818 -7.60926e-17)
(-3.42567 538.828 1.38253e-16)
(13.5725 587.922 -1.49123e-17)
(16.3115 585.464 2.58352e-17)
(16.2475 581.908 -3.87147e-17)
(14.1717 580.371 1.98436e-17)
(14.5139 577.393 -9.73875e-18)
(13.4409 575.309 1.72742e-18)
(13.868 572.353 1.49231e-17)
(13.005 570.208 2.68245e-18)
(-3.2779 568.218 4.57001e-18)
(-4.45982 571.049 6.08043e-18)
(-3.25978 573.316 4.45902e-19)
(-4.17936 576.325 3.18914e-18)
(-2.33667 578.338 -9.8136e-18)
(-3.05371 581.387 1.18829e-17)
(0.131543 582.843 -5.82073e-18)
(0.10323 585.906 -2.31985e-17)
(-2.32415 588.232 -1.06787e-17)
(3.92364 589.849 5.66711e-18)
(4.96785 592.193 -6.09513e-18)
(-27.5885 552.933 0)
(12.5533 567.223 -4.24013e-17)
(5.82173 594.217 3.18351e-19)
(6.24967 596.094 8.05572e-20)
(6.97531 597.915 -1.34376e-18)
(7.42597 599.722 1.30793e-18)
(8.07497 601.434 -1.32189e-18)
(8.6317 603.119 1.27914e-18)
(9.2 604.727 -6.07809e-19)
(9.77867 606.299 6.24502e-19)
(10.3263 607.796 -5.95046e-19)
(10.8096 609.255 3.19423e-19)
(11.295 610.644 6.04419e-19)
(11.5708 611.965 8.7546e-19)
(11.9551 613.191 -1.76391e-18)
(11.9812 614.378 1.17865e-18)
(12.161 615.479 5.71181e-19)
(19.0695 615.462 -5.8844e-19)
(19.8095 614.164 5.78824e-19)
(20.0674 613.299 -8.89731e-19)
(20.7526 611.905 -9.90563e-19)
(20.897 610.828 1.47293e-18)
(21.5047 609.321 -3.02268e-19)
(21.4548 608.023 6.19728e-19)
(21.8754 606.427 1.75245e-19)
(21.7463 604.979 -9.19171e-19)
(22.0126 603.322 -3.30384e-19)
(21.7133 601.743 6.24068e-19)
(21.9156 600.028 0)
(21.4981 598.309 -7.88454e-20)
(21.6196 596.525 -2.75144e-18)
(21.1495 594.701 -9.66942e-18)
(21.6311 592.708 1.09895e-17)
(22.2545 590.423 1.23024e-17)
(29.2028 588.553 1.30774e-17)
(28.2799 586.4 2.46694e-19)
(31.5404 584.101 1.58144e-17)
(30.0979 581.881 -2.92435e-17)
(29.6094 579.935 -6.86467e-18)
(29.1144 577.367 0)
(28.8586 574.93 0)
(28.3504 572.196 0)
(27.6479 569.681 0)
(11.9144 616.544 -2.94214e-19)
(18.4157 616.053 2.89236e-19)
(-21.8403 570.377 -2.09743e-17)
(-21.9317 573.321 -4.21725e-19)
(-21.2959 575.838 1.6333e-18)
(-20.7021 578.473 0)
(-19.5244 580.714 -3.04071e-18)
(-18.8012 583.146 -2.95465e-18)
(-17.4729 585.143 1.45433e-18)
(-18.1051 587.438 5.74962e-18)
(-15.3305 589.657 0)
(-14.0375 591.632 -1.17946e-20)
(-13.0047 593.49 1.00921e-20)
(-12.5677 595.274 -1.30734e-18)
(-11.722 596.962 1.94577e-18)
(-11.3053 598.747 -4.98668e-20)
(-10.4307 600.329 -1.1458e-18)
(-9.83894 602.116 0)
(-8.9912 603.594 -1.57078e-19)
(-8.32785 605.298 9.19152e-19)
(-7.52269 606.774 -1.22763e-18)
(-6.85221 608.311 2.12308e-20)
(-6.09867 609.8 1.21683e-18)
(-5.53895 611.183 0)
(-4.82564 612.588 1.18076e-18)
(-4.37017 613.922 -4.54919e-21)
(-3.74456 615.187 -5.92992e-19)
(-6.91482 566 -1.88269e-17)
(-3.36852 616.388 -5.77418e-19)
(9.99157 564.863 1.92094e-17)
(26.2959 566.919 2.41209e-20)
(29.794 613.221 -5.95313e-19)
(31.582 613.926 7.37206e-19)
(33.1911 612.432 0)
(34.2686 612.057 -2.30286e-19)
(35.1683 610.351 5.18555e-19)
(35.9541 609.699 6.12217e-19)
(36.687 607.977 -6.02993e-19)
(37.2121 607.191 0)
(37.7798 605.405 -1.56066e-19)
(38.1013 604.433 3.15195e-19)
(38.392 602.556 3.60522e-21)
(38.394 601.414 -3.1367e-19)
(38.5823 599.445 0)
(38.4281 598.096 5.08971e-19)
(38.6723 596.01 -1.95135e-18)
(38.7073 594.44 -1.37942e-18)
(39.6135 592.15 5.51919e-18)
(41.0151 590.241 2.09374e-17)
(45.1451 587.717 1.61141e-18)
(45.7179 585.275 1.54554e-17)
(48.464 583.24 -6.84186e-18)
(47.4933 580.692 0)
(48.2629 578.646 0)
(47.4983 575.821 0)
(48.2932 573.468 2.50501e-17)
(47.4318 570.413 -2.80078e-17)
(47.1504 567.887 3.03849e-17)
(-72.3402 540.418 -5.8036e-17)
(72.0059 544.771 0)
(47.4701 551.007 0)
(55.0567 549.244 0)
(-36.9215 566.98 4.32056e-17)
(-36.1367 570.577 1.16511e-17)
(-36.0963 573.917 -1.01095e-19)
(-34.6188 576.63 -1.92745e-19)
(-34.0317 579.286 1.98423e-19)
(-32.1525 581.648 1.55542e-18)
(-31.6623 583.995 -2.89493e-18)
(-29.8682 586.17 2.85309e-20)
(-29.7242 588.248 0)
(-27.5025 590.37 6.24559e-18)
(-26.5139 592.326 4.07551e-18)
(-24.8076 594.187 -6.50882e-19)
(-24.4586 595.897 6.59857e-19)
(-23.1196 597.619 0)
(-22.9007 599.256 0)
(-21.5862 600.893 -7.99493e-20)
(-21.2955 602.592 0)
(-19.8665 604.197 4.70464e-19)
(-19.5602 605.882 -4.64439e-21)
(-18.043 607.458 -3.12547e-19)
(-17.7113 608.997 0)
(-16.3251 610.598 -2.90467e-19)
(-15.992 611.923 4.50941e-19)
(-14.7312 613.447 -7.39838e-19)
(-14.3746 614.536 0)
(-13.0728 615.926 -1.18099e-18)
(-12.25 616.657 2.8806e-19)
(-10.2938 617.646 -1.77066e-21)
(-2.72848 617.424 0)
(11.7438 617.482 -1.4488e-19)
(16.8666 616.897 -4.71828e-19)
(-33.4106 543.125 6.4673e-17)
(27.2515 614.384 3.61116e-20)
(-91.3176 533.326 -1.91742e-16)
(-121.632 519.654 -4.6365e-17)
(23.7255 564.297 0)
(-57.0016 532.51 6.44797e-17)
(-11.059 545.037 -1.27994e-16)
(-7.79764 562.77 7.12997e-18)
(45.2128 564.758 -4.55425e-17)
(-8.75895 617.218 -2.90728e-19)
(-2.05962 618.035 -2.87342e-19)
(10.9487 618.046 -3.64174e-20)
(15.395 616.658 5.7878e-19)
(24.2868 613.304 3.64603e-20)
(20.2871 608.636 0)
(30.7631 611.746 3.33002e-19)
(35.6749 611.957 5.97945e-19)
(39.0636 612.649 -1.47446e-19)
(41.8104 611.703 -5.99563e-19)
(43.9975 611.813 -6.75163e-19)
(45.6552 610.347 9.00967e-19)
(46.9979 609.784 3.08358e-19)
(48.0615 608.12 -6.13009e-19)
(49.0309 607.38 4.58297e-19)
(50.0902 605.662 -1.34007e-19)
(50.8651 604.796 0)
(51.8792 602.988 0)
(52.6265 601.91 0)
(53.6799 599.828 6.60835e-19)
(54.3437 598.435 -3.10471e-19)
(55.3622 596.117 2.55899e-20)
(56.2091 594.406 -2.68395e-18)
(57.5604 591.887 0)
(59.3337 589.9 -2.98056e-18)
(61.8999 587.179 3.001e-18)
(63.5374 585.094 6.28911e-18)
(65.5118 582.379 3.34239e-18)
(65.7968 580.112 1.36498e-17)
(66.7339 577.332 -1.30903e-17)
(66.4904 574.826 0)
(67.301 571.833 3.44023e-18)
(66.5956 569.118 -6.85801e-18)
(66.2612 566.021 -1.41377e-17)
(-41.7485 560.544 6.80722e-18)
(-103.82 484.187 0)
(21.2016 545.438 -7.8925e-20)
(-77.7329 543.831 8.35509e-17)
(-75.3516 548.197 -1.70638e-17)
(-70.9313 552.384 1.91298e-17)
(-67.9359 556.573 -3.24895e-18)
(-65.0858 560.16 7.28482e-18)
(-63.0514 563.738 -3.12363e-18)
(-60.86 566.871 0)
(-59.3287 570.355 -3.12497e-18)
(-58.8941 573.367 -3.12481e-18)
(-57.2639 576.428 0)
(-56.4169 578.873 0)
(-54.4419 581.576 1.82769e-19)
(-53.5152 583.703 -1.64548e-18)
(-51.6236 586.122 0)
(-50.66 587.85 0)
(-48.608 590.049 -2.1401e-18)
(-47.1834 591.518 -1.37224e-18)
(-45.5147 593.728 2.71489e-18)
(-44.356 594.984 6.80304e-19)
(-43.0896 597.081 1.64335e-19)
(-42.0943 598.24 6.41438e-19)
(-40.8597 600.262 -7.36402e-19)
(-39.9534 601.353 0)
(-38.6466 603.377 -3.15217e-19)
(-37.7372 604.337 0)
(-36.3022 606.406 0)
(-35.2641 607.26 0)
(-33.7329 609.348 -1.22051e-18)
(-32.3538 610.065 0)
(-30.6368 612.083 -6.82668e-19)
(-28.8361 612.459 1.12954e-19)
(-26.5136 614.183 2.35181e-18)
(-23.7775 613.686 0)
(-20.4762 614.997 -1.23924e-18)
(-16.7632 613.665 1.88157e-20)
(-192.342 405.685 0)
(-73.1655 533.48 1.08783e-16)
(41.1562 467.372 2.40105e-16)
(249.153 496.565 0)
(51.3054 546.959 -3.92597e-17)
(-102.637 527.079 2.17001e-16)
(42.8986 562.302 -1.60325e-18)
(-26.2056 559.661 1.51232e-17)
(-24.6606 583.86 -6.35327e-20)
(11.409 599.712 -2.92611e-19)
(32.037 603.102 3.9434e-19)
(43.5625 606.514 0)
(49.1427 606.188 0)
(53.53 607.185 4.04627e-20)
(56.2951 605.832 -1.58308e-19)
(59.1507 606.171 -5.39883e-19)
(60.7775 604.425 3.80024e-20)
(62.8803 603.979 -8.15971e-20)
(64.0625 602.056 -9.87918e-20)
(65.8719 601.226 4.43011e-19)
(67.2824 599.259 5.05555e-20)
(68.9601 598.227 -3.20743e-19)
(70.551 596.258 0)
(71.8714 594.999 1.35593e-18)
(73.3644 592.929 3.10387e-20)
(74.4348 591.404 6.94325e-18)
(76.0046 589.188 -5.53534e-18)
(77.259 587.42 0)
(79.2519 585.066 6.15777e-18)
(80.7084 583.061 -1.87973e-17)
(82.0366 580.639 9.39622e-18)
(83.0636 578.394 1.32332e-17)
(83.855 575.768 6.25157e-19)
(84.2712 573.163 -1.28432e-17)
(84.9847 570.202 1.37148e-17)
(84.9046 567.339 1.49469e-17)
(84.496 564.338 -1.28879e-17)
(63.871 563.286 -2.96293e-17)
(-35.3379 529.041 -2.10189e-18)
(-176.048 495.409 -7.18905e-18)
(-94.0631 541.22 -1.41688e-17)
(-90.966 546.512 -1.8405e-18)
(-87.8922 551.344 -5.47445e-18)
(-84.2136 555.849 -1.78259e-18)
(-81.9863 560.066 0)
(-79.1695 563.912 3.27026e-18)
(-77.8615 567.516 -1.55344e-18)
(-75.7528 570.812 -1.50864e-18)
(-75.1489 573.753 8.31002e-19)
(-73.1794 576.984 7.79454e-19)
(-72.3501 579.346 1.47943e-18)
(-70.2801 582.268 0)
(-69.2695 584.038 1.4638e-18)
(-67.209 586.814 -1.39473e-18)
(-65.6723 588.163 -2.25401e-20)
(-63.5644 590.695 -4.16356e-18)
(-61.7586 591.804 3.36549e-19)
(-59.9144 594.088 -1.6899e-18)
(-58.2211 595.117 0)
(-56.7399 597.294 -5.27402e-19)
(-55.2282 598.34 5.23125e-20)
(-53.813 600.491 7.30411e-19)
(-52.2752 601.59 0)
(-50.957 603.732 0)
(-49.383 604.817 -1.93038e-20)
(-48.2293 606.745 -6.04103e-19)
(-46.5243 607.82 6.22304e-19)
(-45.368 609.573 7.53802e-19)
(-43.1342 610.389 -1.53266e-19)
(-41.5196 611.779 4.40899e-19)
(-38.1472 611.953 -1.49407e-19)
(-35.535 612.674 -1.15394e-18)
(-30.7947 611.717 1.29178e-18)
(-25.5243 611.989 2.78193e-18)
(-15.1962 608.872 1.47566e-18)
(2.8459 604.956 0)
(-11.6525 614.44 -5.87164e-19)
(-6.03196 617.793 2.86856e-20)
(-0.999852 618.337 6.56368e-19)
(10.142 618.152 2.19178e-19)
(13.0979 617.127 -2.84359e-19)
(19.6524 613.659 6.57542e-19)
(1.57299 603.884 -5.6223e-19)
(-62.3749 556.371 -4.78782e-19)
(48.1079 480.296 -7.76545e-17)
(-145.352 473.595 -2.29177e-17)
(-229.309 246.325 -4.83813e-17)
(-93.9969 525.488 -9.91882e-17)
(-139.519 478.838 -6.08578e-17)
(118.063 530.753 2.05632e-17)
(82.7031 561.353 0)
(61.9878 560.236 5.8789e-17)
(-53.7477 525.546 1.62465e-16)
(-77.9638 525.164 6.3435e-17)
(-95.6924 498.667 -8.09536e-17)
(6.75163 546.534 1.31009e-16)
(-117.903 534.311 0)
(-114.024 541.099 1.84457e-18)
(-110.986 546.648 -4.28429e-19)
(-106.808 552.374 -7.89662e-18)
(-104.494 556.995 1.7071e-18)
(-101.641 561.799 0)
(-100.18 565.51 5.51862e-20)
(-97.8245 569.504 -3.77129e-19)
(-96.7448 572.169 0)
(-94.6644 575.59 -7.29352e-19)
(-92.8269 577.828 -7.39984e-19)
(-90.5416 580.776 0)
(-88.0692 582.535 1.76589e-19)
(-85.9076 584.923 -1.63566e-19)
(-82.8861 586.472 1.72795e-19)
(-80.8005 588.594 2.59444e-18)
(-77.6673 590.144 0)
(-75.6704 591.958 3.38307e-19)
(-72.8815 593.508 -1.67717e-19)
(-71.1194 595.289 4.14445e-20)
(-68.5493 596.801 1.22442e-19)
(-66.7079 598.53 -7.35465e-19)
(-64.1836 600.038 0)
(-62.1739 601.729 1.6149e-19)
(-59.7514 603.019 3.13382e-19)
(-57.7182 604.668 3.05977e-19)
(-54.8933 605.596 2.21296e-20)
(-52.4277 607.275 -1.5427e-19)
(-48.7667 607.152 -4.93114e-19)
(-45.1505 608.622 -3.0923e-19)
(-40.1668 607.464 -3.6537e-19)
(-33.9822 608.743 0)
(-22.2447 604.698 -1.17627e-18)
(-2.68268 602.569 -1.14828e-18)
(30.8979 587.845 -7.79129e-19)
(65.9016 563.883 -2.3926e-18)
(88.6054 551.157 8.26943e-19)
(34.5458 590.457 -9.42788e-19)
(-2.81649 610.79 0)
(-3.70888 617.017 2.91501e-19)
(-0.274288 618.354 2.88324e-19)
(9.05317 618.166 -5.61241e-19)
(10.9602 616.551 6.03745e-19)
(10.389 610.233 3.11848e-20)
(-30.4506 588.554 -4.13402e-19)
(-87.0114 542.969 1.30592e-18)
(-99.0596 539.145 -1.24454e-18)
(-96.5635 538.237 1.57205e-19)
(-81.7217 538.731 -1.75621e-19)
(-56.9496 550.28 3.02333e-19)
(-17.3551 578.849 -8.64715e-19)
(19.9293 596.166 3.38083e-19)
(42.3437 598.768 0)
(55.3817 603.476 5.20598e-20)
(61.9654 602.902 5.74807e-19)
(66.4642 604.68 -7.82124e-20)
(69.8491 602.611 2.00509e-19)
(73.1241 603.464 -3.10807e-22)
(75.3593 601.208 8.18672e-20)
(77.9548 601.141 -3.94795e-20)
(79.6904 598.695 2.87712e-19)
(81.7967 598.374 -9.68668e-19)
(83.589 596.049 -1.75125e-20)
(85.3789 595.589 6.46657e-19)
(87.3662 593.271 -6.69005e-19)
(88.9916 592.499 -5.45628e-18)
(91.3236 589.951 5.53647e-18)
(92.9555 588.657 0)
(95.701 585.809 -1.17283e-17)
(97.6668 584.063 8.92823e-18)
(99.9827 581.09 -9.12859e-18)
(102.148 578.747 0)
(104.038 575.502 0)
(105.617 572.723 0)
(107.434 569.252 -1.58065e-18)
(108.472 566.217 2.65467e-19)
(108.806 562.685 2.73291e-17)
(-22.2846 527.727 -7.07015e-17)
(80.2005 558.351 3.01551e-17)
(57.1547 557.419 -2.71018e-17)
(-46.0699 557.042 3.60982e-18)
(-75.9618 521.468 7.94033e-17)
(-103.318 513.171 7.09795e-17)
(-115.132 513.33 5.8999e-18)
(-123.749 511.001 -6.86834e-17)
(-205.661 469.923 -5.48416e-17)
(-121.152 527.727 -4.6359e-17)
(-143.965 518.586 1.57836e-17)
(-141.56 526.812 -4.75968e-18)
(-136.471 534.401 -7.50323e-18)
(-133.519 541.461 0)
(-129.101 547.837 6.89522e-18)
(-126.274 553.211 0)
(-123.03 558.572 0)
(-120.701 562.612 1.59163e-18)
(-117.948 567.173 3.88505e-19)
(-115.618 570.349 0)
(-113.26 574.015 7.20592e-19)
(-110.702 576.556 -3.06644e-20)
(-108.353 579.555 -1.37957e-20)
(-105.748 581.511 7.06306e-19)
(-103.663 583.877 7.88736e-19)
(-101.035 585.662 -7.77017e-19)
(-98.9708 587.718 -1.40326e-18)
(-96.4028 589.462 4.26962e-20)
(-94.2468 591.303 -2.47176e-19)
(-91.9102 593.147 8.59624e-20)
(-89.7236 594.839 3.25871e-19)
(-87.4532 596.478 -2.44825e-19)
(-85.1915 598.108 3.1895e-19)
(-82.7916 599.649 -9.08801e-21)
(-79.8658 601.475 -7.68664e-19)
(-76.8901 602.78 3.07596e-19)
(-73.7601 604.204 3.11743e-19)
(-70.4486 603.269 -4.37463e-19)
(-65.9461 605.473 6.48662e-19)
(-60.708 602.482 6.08613e-19)
(-52.1583 604.67 0)
(-38.5918 598.348 2.29652e-18)
(-14.1329 597.474 6.34645e-19)
(23.9679 579.412 3.34385e-19)
(59.9189 554.536 0)
(82.8484 546.252 0)
(96.6984 546.786 1.02158e-18)
(99.0934 547.839 -8.44998e-21)
(99.4753 550.403 -2.15032e-19)
(101.856 551.316 2.02161e-19)
(69.2909 565.987 0)
(14.929 607.323 0)
(0.841237 616.698 -1.39221e-19)
(1.14602 618.332 4.32097e-19)
(7.88017 618.073 0)
(6.75077 616.071 -2.86116e-19)
(-7.68545 606.286 -2.93352e-19)
(-66.7616 561.368 7.84992e-19)
(-100.518 542.319 -4.24494e-19)
(-99.5554 540.662 1.2725e-18)
(-90.5421 541.358 2.0048e-19)
(-92.7697 538.426 2.16112e-19)
(-93.7479 535.971 4.34524e-19)
(-93.7609 533.583 0)
(-91.6772 532.461 -1.56934e-19)
(-78.6877 532.388 -4.16414e-20)
(-51.7996 541.267 2.08577e-19)
(-11.9669 570.907 -1.32201e-19)
(29.1981 590.994 -1.08334e-19)
(54.5205 592.732 -7.07233e-19)
(69.6413 598.486 1.57977e-19)
(77.7145 597.206 -4.05419e-19)
(82.9366 599.579 2.01286e-19)
(87.0401 597.393 -7.94684e-20)
(90.5481 597.928 0)
(93.267 595.609 0)
(96.1539 595.35 0)
(97.9941 592.853 -3.33938e-19)
(100.7 592.182 0)
(102.9 589.49 -2.12526e-20)
(105.646 588.493 2.70559e-18)
(108.483 585.697 -1.44047e-18)
(111.369 584.472 2.78207e-18)
(114.771 581.457 8.83037e-18)
(117.718 579.842 8.33804e-20)
(120.767 576.721 -2.97828e-18)
(123.497 574.492 -6.20359e-18)
(125.907 571.265 1.22455e-17)
(127.61 568.638 -6.06554e-18)
(129.736 565.188 8.42739e-20)
(130.323 562.162 3.44231e-18)
(131.158 558.64 9.21975e-19)
(107.883 559.563 -3.99502e-17)
(-36.3733 521.057 -7.47461e-17)
(-6.91306 527.165 1.44817e-16)
(246.601 236.292 0)
(105.373 556.221 -2.94055e-17)
(-156.626 499.063 1.17833e-16)
(-150.062 490.176 -7.21528e-17)
(-135.179 496.305 -1.29352e-16)
(54.3481 553.95 -9.19552e-18)
(-54.4588 549.107 -9.02701e-18)
(-29.6794 556.479 -3.57026e-18)
(76.3992 555.466 4.69542e-19)
(-89.6521 515.004 -8.07346e-17)
(-127.927 496.333 7.45139e-17)
(99.1316 553.257 -2.07763e-19)
(104.615 551.78 -2.0117e-19)
(93.0971 554.737 0)
(50.1172 589.424 -1.46365e-19)
(10.8195 612.9 1.76176e-19)
(2.89047 617.923 -1.39112e-19)
(6.22176 617.604 1.37504e-19)
(-3.14439 612.472 3.50328e-19)
(-42.5911 589.174 -2.95305e-19)
(-90.7324 548.993 8.89942e-19)
(-103.814 543.201 -1.20317e-18)
(-99.2459 542.759 0)
(-88.7837 543.332 -1.30155e-20)
(-77.6518 544.633 0)
(-78.9986 542.826 -1.31047e-18)
(-80.9632 540.206 4.40385e-19)
(-82.9889 538.075 0)
(-85.9042 534.871 0)
(-87.8488 531.634 1.11261e-19)
(-88.6494 528.428 -1.32098e-20)
(-88.0477 526.859 0)
(-76.2625 525.116 -7.45872e-20)
(-48.8916 532.673 6.29501e-20)
(-9.55301 562.404 1.64921e-19)
(33.8496 585.077 1.42406e-19)
(62.261 586.459 1.66168e-19)
(80.164 592.818 1.5307e-21)
(90.1456 591.396 -3.3748e-19)
(95.5669 594.087 8.89688e-20)
(100.518 591.271 3.36153e-19)
(104.442 592.408 8.10889e-20)
(107.962 589.653 -1.74473e-19)
(111.759 589.471 3.37545e-19)
(114.54 586.762 -1.01723e-18)
(118.058 586.171 -1.37581e-18)
(120.986 583.27 6.84794e-19)
(124.576 582.494 -1.3999e-18)
(127.83 579.525 0)
(131.41 578.605 -4.34964e-18)
(134.672 575.536 8.84683e-18)
(138.469 574.163 0)
(141.478 570.649 0)
(144.858 568.437 0)
(147.765 564.185 2.32389e-18)
(150.776 561.343 1.66836e-19)
(153.342 556.433 1.63183e-19)
(129.66 555.429 -2.66504e-17)
(35.6539 539.606 -6.94654e-17)
(-54.255 518.225 4.35713e-18)
(259.108 457.177 6.04032e-17)
(85.6222 524.413 0)
(-170.532 516.337 -3.63379e-18)
(-164.761 526.981 0)
(-160.189 533.309 0)
(-155.018 541.526 1.61995e-18)
(-150.582 545.99 -3.31947e-18)
(-146.255 552.351 0)
(-141.639 555.762 1.5684e-18)
(-137.627 560.514 0)
(-133.047 563.341 -3.81541e-19)
(-128.958 566.921 3.65099e-19)
(-124.646 569.464 -1.87047e-18)
(-120.268 572.405 1.34843e-20)
(-116.223 575.057 -7.2726e-19)
(-112.916 577.329 1.44081e-18)
(-109.646 579.723 1.05889e-18)
(-106.81 581.744 -1.0639e-18)
(-104.01 583.844 0)
(-101.258 585.852 -6.5406e-21)
(-98.5489 587.762 -5.18198e-19)
(-95.6812 590.039 0)
(-92.8457 591.515 0)
(-89.7971 593.999 1.69795e-19)
(-86.8178 594.751 4.96413e-19)
(-82.7139 597.529 -3.23321e-19)
(-79.1435 597.209 3.29125e-19)
(-73.8633 600.152 -6.5037e-19)
(-68.9064 598.747 -1.54553e-19)
(-59.7979 600.157 -1.25094e-18)
(-44.4805 594.436 6.40749e-19)
(-20.0838 591.975 0)
(20.0258 571.993 -1.25797e-18)
(53.5853 544.51 -6.43332e-19)
(78.2911 540.142 0)
(89.3787 541.3 8.73687e-19)
(91.2243 543.042 2.56181e-20)
(90.6124 546.37 1.26779e-18)
(89.2 550.194 1.24949e-18)
(86.4899 553.783 0)
(84.6727 556.591 -3.97474e-19)
(18.0364 520.157 -7.41607e-17)
(-25.742 518.549 -1.46139e-16)
(-35.8383 577.299 1.61695e-17)
(73.2828 552.203 -2.90164e-17)
(-113.501 502.183 1.32999e-16)
(101.793 553.392 -1.24811e-18)
(-66.3852 545.155 2.20554e-19)
(-66.9121 543.79 1.1045e-18)
(-67.891 541.631 -8.87173e-19)
(-69.0996 539.864 0)
(-71.0317 537.334 0)
(-73.4356 535 0)
(-77.1419 531.475 0)
(-81.1088 526.954 2.37982e-19)
(-83.1039 522.886 -1.10494e-19)
(-83.8077 520.179 6.11867e-20)
(-76.3777 518.456 -3.64113e-19)
(-47.7818 520.594 2.86538e-19)
(-11.8236 551.381 9.46792e-20)
(39.7199 577.209 -1.4605e-19)
(70.9243 578.261 0)
(91.9933 585.751 3.67009e-21)
(104.861 584.291 -8.79998e-20)
(112.377 587.592 8.00683e-20)
(119.5 584.868 1.63431e-19)
(124.309 587.035 -1.94562e-19)
(128.673 584.151 1.92441e-19)
(132.971 583.494 -5.07969e-19)
(136.879 580.439 -1.0467e-18)
(140.664 579.375 6.78231e-19)
(144.243 575.89 0)
(148.004 574.082 -1.07112e-20)
(152.188 570.142 -4.4385e-18)
(156.32 567.367 3.65108e-18)
(161.218 563.264 -7.50064e-19)
(165.732 559.826 0)
(171.301 555.448 -7.64921e-19)
(176.276 551.059 1.07808e-17)
(181.839 545.607 -5.83797e-18)
(155.179 552.705 2.38993e-17)
(48.5328 539.822 1.46602e-16)
(-77.8753 511.145 5.15374e-18)
(82.9358 559.066 -9.23765e-20)
(97.0386 556.22 5.98531e-19)
(105.837 553.734 9.71768e-20)
(104.663 554.691 0)
(79.6693 565.772 -1.52636e-19)
(27.8965 607.425 2.089e-19)
(7.10539 616.451 -2.09532e-19)
(1.85261 616.267 -5.52119e-19)
(-18.9568 607.071 5.57116e-19)
(-74.9309 563.373 0)
(-103.988 547.985 -4.07181e-19)
(-104.733 544.615 1.22333e-18)
(-97.3441 545.37 -8.45739e-19)
(-87.1177 545.815 -4.32682e-19)
(-76.3367 546.939 6.48577e-19)
(-66.0607 547.034 -8.58895e-19)
(57.6246 532.821 1.40555e-16)
(-155.483 471.361 -6.04642e-17)
(-163.949 468.772 6.37805e-17)
(-173.683 469 1.27864e-16)
(-191.994 473.705 5.51568e-17)
(18.8132 550.167 -2.53554e-18)
(62.484 542.538 3.8563e-17)
(-56.1736 114.965 0)
(255.109 491.989 0)
(-201.695 507.638 0)
(-194.714 518.848 8.44602e-19)
(-186.923 527.773 -1.62827e-18)
(-181.305 534.744 8.47585e-20)
(-174.773 541.61 4.85366e-18)
(-170.311 546.01 -3.17252e-18)
(-165.347 551.911 1.87068e-20)
(-161.075 555.296 1.49775e-18)
(-157.191 560.015 -2.61419e-18)
(-152.869 562.979 4.22472e-19)
(-149.118 566.521 1.47741e-18)
(-144.955 569.184 -3.62195e-19)
(-140.798 572.119 3.40853e-19)
(-136.168 575.085 -1.05516e-18)
(-131.972 577.154 3.51913e-19)
(-127.698 580.171 1.01743e-18)
(-123.447 581.394 -6.82887e-19)
(-119.362 584.521 6.77266e-19)
(-115.255 584.873 2.54808e-19)
(-110.837 588.213 5.66262e-19)
(-106.464 587.479 -7.65643e-19)
(-101.176 590.783 4.96704e-19)
(-96.0035 588.832 -9.25597e-19)
(-89.0986 592.059 -6.64811e-19)
(-81.4258 589.396 6.77908e-19)
(-70.4388 591.484 3.11913e-19)
(-52.2962 584.889 -4.67654e-19)
(-26.3461 583.918 0)
(18.4916 562.18 -1.06949e-18)
(49.9929 534.084 4.57062e-19)
(78.049 531.724 -8.86462e-19)
(85.1325 533.554 -1.29484e-18)
(85.4227 536.013 -8.28677e-19)
(83.9912 539.81 -1.66769e-18)
(80.8156 544.781 4.16339e-19)
(76.9312 549.106 -4.29791e-19)
(74.3239 552.379 -8.33879e-19)
(71.5983 555.404 0)
(70.2125 557.605 0)
(69.0384 559.484 0)
(-42.7131 557.674 0)
(127.781 552.029 -1.81713e-18)
(69.8352 548.538 1.4254e-16)
(33.3987 512.241 6.99772e-17)
(-44.2448 513.37 7.68505e-17)
(-2.24435 516.074 1.40736e-16)
(37.2778 546.11 -7.06123e-17)
(-107.507 513.867 -2.19346e-17)
(-212.673 411.471 0)
(39.6665 549.527 -7.92219e-17)
(98.0809 549.903 -3.0789e-17)
(186.393 539.55 -1.11029e-17)
(6.80283 552.606 -2.00361e-16)
(17.1709 505.31 9.27103e-17)
(264.396 431.33 6.49537e-17)
(-197.509 424.265 -1.27533e-17)
(-57.0551 545.052 -4.36675e-19)
(-56.6393 543.843 -1.09465e-19)
(-56.0659 542.849 -3.17484e-19)
(-55.6503 541.35 -1.0009e-20)
(-55.1016 540.136 0)
(-54.9821 538.66 0)
(-55.0813 537.309 0)
(-56.0802 535.381 -5.78138e-20)
(-58.3579 532.981 -7.50675e-20)
(-63.1701 529.553 6.77332e-20)
(-68.7116 524.461 -6.18009e-20)
(-72.6053 518.372 1.41668e-19)
(-74.6213 514.375 -1.61441e-19)
(-74.1434 512.091 0)
(-44.2926 509.828 0)
(-16.3142 542.873 0)
(38.4278 567.594 0)
(69.2391 571.995 0)
(93.0603 576.579 0)
(110.914 577.641 -5.30118e-20)
(123.792 578.385 1.64741e-19)
(131.399 575.708 0)
(138.922 577.053 -4.58979e-19)
(143.452 573.858 7.84476e-19)
(149.03 572.55 7.02209e-19)
(153.114 567.905 0)
(159.308 566.26 2.19313e-18)
(163.47 561.045 -2.24387e-18)
(169.65 559.565 -7.39547e-19)
(174.176 554.282 1.53386e-18)
(180.348 552.374 -2.27011e-18)
(185.899 546.922 1.12087e-18)
(191.976 544.085 -3.02195e-18)
(198.975 538.282 7.38718e-19)
(205.561 533.809 2.33842e-17)
(65.4364 536.889 7.52106e-17)
(-188.004 432.404 1.16211e-16)
(-189.423 435.664 6.34946e-17)
(68.8972 560.715 0)
(81.607 560.689 2.82191e-21)
(95.6117 557.869 -2.02672e-19)
(105.89 555.556 -1.02088e-19)
(108.397 554.478 -2.39081e-20)
(102.931 557.396 2.56666e-20)
(60.2865 591.015 0)
(13.4039 613.024 0)
(-3.65028 612.614 2.1632e-19)
(-49.4597 591.789 -8.94874e-19)
(-99.0815 552.324 8.53885e-19)
(-107.459 547.513 0)
(-104.661 545.994 -8.35919e-19)
(-96.0478 546.85 8.38514e-19)
(-85.6399 547.333 2.0948e-19)
(-75.487 548.306 2.15478e-19)
(-65.9638 548.145 0)
(-57.5672 546.092 0)
(-37.0756 548.005 0)
(-179.529 448.6 6.32875e-17)
(-182.271 443.437 0)
(-192.414 445.321 -1.26015e-16)
(-206.186 438.498 6.61643e-17)
(-224.692 445.152 1.06062e-16)
(53.682 535.284 -1.31441e-17)
(-71.0697 495.62 7.05111e-17)
(-235.277 472.371 1.0299e-18)
(-226.216 488.969 -1.51153e-17)
(-217.835 502.045 6.03542e-18)
(-208.09 513.119 -7.1223e-18)
(-199.059 522.015 -2.89183e-18)
(-191.392 529.125 4.25135e-18)
(-183.451 535.429 7.81947e-19)
(-177.904 539.761 -4.05966e-18)
(-171.18 545.38 2.42145e-18)
(-166.696 548.106 0)
(-161.199 553.457 -1.90899e-18)
(-156.872 555.18 1.19042e-18)
(-151.965 560.224 1.87581e-18)
(-147.49 561.522 3.53127e-19)
(-142.769 566.807 -1.4848e-18)
(-137.587 568.341 -7.45026e-19)
(-133.565 573.017 0)
(-127.868 574.753 0)
(-123.658 577.887 -1.70016e-19)
(-117.295 578.613 -8.47171e-20)
(-111.731 580.731 8.72295e-19)
(-104.553 581.673 1.81315e-19)
(-96.9737 583.476 -5.88311e-19)
(-85.6097 582.716 -2.30555e-20)
(-72.5822 583.522 0)
(-53.5367 578.843 0)
(-27.3702 576.413 -8.47721e-19)
(20.3935 556.89 1.07978e-18)
(44.5706 528.544 -4.79897e-19)
(71.1794 525.709 -1.73992e-19)
(75.7786 526.693 4.47742e-19)
(75.1944 529.093 4.36794e-19)
(73.2248 534.518 2.60521e-18)
(69.4651 540.05 0)
(65.3836 544.193 1.29375e-18)
(62.3137 547.576 -1.29073e-18)
(59.8683 550.865 8.28043e-19)
(58.1202 553.631 -8.47426e-19)
(57.0738 555.971 8.36438e-19)
(57.1459 557.568 0)
(57.5983 558.843 0)
(58.491 559.951 -3.9835e-19)
(71.9215 528.535 1.41636e-16)
(154.932 547.706 -2.52466e-17)
(-162.243 457.756 -6.29912e-17)
(89.2695 511.253 1.44024e-16)
(76.2516 509.188 -4.58033e-18)
(58.8011 504.207 1.48448e-16)
(122.142 549.478 2.81321e-17)
(-64.0655 508.494 -1.53886e-16)
(17.6322 509.44 0)
(-24.7339 508.556 0)
(-176.778 448.479 -1.38314e-17)
(133.99 408.612 -9.0373e-17)
(82.8777 532.286 6.85838e-18)
(36.2887 554.449 -1.20049e-16)
(238.92 511.896 -1.28108e-17)
(78.8795 537.192 -8.7464e-17)
(-1.00617 580.8 0)
(10.5656 564.753 -8.84533e-18)
(230.033 521.614 0)
(221.113 526.652 3.99571e-19)
(213.515 535.483 7.53306e-19)
(204.714 539.827 2.78111e-19)
(198.624 546.667 4.80889e-20)
(190.956 549.465 0)
(185.171 553.753 9.56367e-19)
(177.786 555.698 -9.65953e-19)
(170.484 556.394 3.6675e-19)
(161.957 558.352 -7.3552e-19)
(151.579 558.445 1.63075e-19)
(142.229 561.536 0)
(127.33 560.224 3.58092e-19)
(110.758 564.294 -2.50716e-19)
(91.8904 557.588 2.1544e-19)
(53.5953 560.231 -3.76962e-19)
(10.333 540.821 4.89603e-19)
(-34.2163 515.797 6.13438e-20)
(-60.3432 497.735 -2.59005e-19)
(-79.8943 502.062 1.19844e-19)
(-76.8483 504.725 -1.35964e-19)
(-68.8147 510.738 0)
(-59.9074 518.503 6.35924e-20)
(-50.0049 523.248 -3.15167e-20)
(-44.3341 526.76 -1.16216e-19)
(-41.25 528.191 1.03498e-19)
(-41.3748 529.817 1.45261e-20)
(-42.6342 530.157 -5.94109e-20)
(-44.3408 531.034 0)
(-46.0133 531.908 0)
(-47.124 533.52 -2.2935e-19)
(-48.1925 534.706 1.2518e-18)
(-48.8056 536.462 -2.20081e-19)
(-49.4982 537.706 0)
(-49.8958 539.482 8.81476e-19)
(-50.1996 540.526 -2.59391e-21)
(-90.3417 513.907 6.53183e-17)
(59.1527 561.105 4.0414e-19)
(68.3857 562.241 0)
(80.3806 562.532 -9.71634e-20)
(93.8164 560.323 9.99413e-20)
(104.527 558.215 2.46383e-19)
(109.891 555.913 -1.99468e-19)
(110.392 554.886 4.97895e-20)
(90.094 563.957 1.01456e-19)
(32.9016 606.577 5.23824e-19)
(-23.3457 607.108 -7.51693e-19)
(-83.8149 562.241 -8.64764e-19)
(-108.278 549.557 7.42471e-19)
(-108.965 548.633 -1.00772e-19)
(-103.667 548.432 2.0413e-19)
(-94.385 549.348 -8.31485e-19)
(-84.377 549.59 -2.15269e-19)
(-74.711 550.343 8.4102e-19)
(-65.9633 549.837 0)
(-57.9489 547.653 4.25754e-19)
(-50.4013 542.226 -2.16704e-19)
(80.5569 531.511 7.28454e-17)
(189.344 533.389 -2.08012e-17)
(105.177 509.878 -7.21723e-17)
(-57.394 534.825 0)
(-27.4613 557.407 0)
(-9.78209 586.768 -1.34798e-17)
(2.26635 590.824 -3.02916e-18)
(17.7942 581.614 -4.4481e-18)
(52.9364 560.992 -2.00821e-17)
(106.098 508.223 1.61198e-17)
(162.183 451.877 9.13917e-18)
(255.349 454.873 0)
(-167.961 431.036 -1.05425e-17)
(105.615 376.616 1.3463e-17)
(2.46952 419.263 7.56123e-17)
(36.9228 437.507 -7.35603e-17)
(113.101 496.198 -7.10863e-17)
(97.8546 499.681 0)
(81.0293 495.77 0)
(118.882 546.042 6.22938e-17)
(93.478 522.488 1.40321e-16)
(-205.087 413.479 -1.53722e-17)
(-181.406 422.225 6.298e-17)
(-173.099 392.575 -7.5871e-17)
(-188.848 383.022 0)
(-208.497 369.462 -1.57258e-16)
(-226.878 370.786 8.36054e-17)
(-236.297 427.764 -1.04677e-16)
(-113.409 165.147 -9.65368e-17)
(-247.051 413.865 1.79365e-17)
(-248.418 440.35 -1.93456e-17)
(-244.892 463.247 7.71391e-18)
(-238.992 481.912 -7.62966e-18)
(-233.303 497.44 0)
(-225.045 510.283 -4.21666e-19)
(-217.273 520.55 -6.05777e-19)
(-208.602 529.168 2.34911e-18)
(-200.939 534.953 7.22213e-19)
(-193.583 540.941 -3.82023e-18)
(-186.549 544.089 1.55517e-18)
(-180.167 548.861 1.84653e-18)
(-173.312 550.556 -1.52162e-18)
(-167.511 553.88 9.32974e-19)
(-159.694 555.158 -9.49191e-19)
(-153.012 556.326 -3.81382e-19)
(-143.748 558.567 1.11397e-18)
(-136.053 558.802 2.11613e-19)
(-126.657 562.678 7.56067e-19)
(-116.764 561.524 -7.69931e-19)
(-106.058 567.763 0)
(-94.2586 564.716 -2.10904e-19)
(-80.2217 569.645 -8.70518e-20)
(-67.3221 567.977 -1.03414e-18)
(-36.8227 563.869 8.63525e-19)
(-11.9807 559.291 -1.40092e-19)
(24.4959 538.512 1.01525e-18)
(43.7586 518.004 -1.72142e-18)
(70.3661 518.904 9.14216e-19)
(70.4544 520.989 4.20275e-19)
(68.2336 524.644 2.12658e-19)
(64.7514 529.209 -4.35392e-19)
(57.6507 534.098 1.37262e-18)
(51.8951 536.865 -1.35482e-18)
(49.8292 539.304 -4.54614e-19)
(49.0481 542.134 -1.33436e-18)
(48.705 545.028 1.7248e-18)
(48.2409 548.001 -1.31031e-18)
(48.2325 549.955 8.43387e-19)
(48.8523 551.606 -1.68599e-18)
(49.5427 552.728 0)
(50.3523 553.784 8.21609e-19)
(50.9876 555.043 -4.27257e-19)
(51.5307 556.302 -4.16403e-19)
(191.406 422.845 -1.7081e-16)
(185.297 415.387 8.59062e-17)
(188.074 402.362 -8.68018e-17)
(-85.7895 523.281 2.85244e-17)
(125.149 340.065 -1.1537e-16)
(149.376 545.19 0)
(132.62 488.229 -2.2129e-17)
(147.219 325.457 -1.2533e-16)
(-169.878 445.222 5.57153e-17)
(-5.03014 504.082 2.274e-16)
(-46.7448 502.989 -1.5298e-16)
(42.2899 500.465 -7.15452e-17)
(180.758 444.838 0)
(139.382 474.967 -8.07465e-17)
(153.677 469.928 7.64043e-17)
(16.5178 525.393 -3.25256e-17)