/*--------------------------------*- C++ -*----------------------------------*\
| =========                 |                                                 |
| \\      /  F ield         | OpenFOAM: The Open Source CFD Toolbox           |
|  \\    /   O peration     | Version:  2212                                  |
|   \\  /    A nd           | Website:  www.openfoam.com                      |
|    \\/     M anipulation  |                                                 |
\*---------------------------------------------------------------------------*/
FoamFile
{
    version     2.0;
    format      ascii;
    arch        "LSB;label=32;scalar=64";
    class       volScalarField;
    location    "0.000285";
    object      p;
}
// * * * * * * * * * * * * * * * * * * * * * * * * * * * * * * * * * * * * * //

dimensions      [1 -1 -2 0 0 0 0];

internalField   nonuniform List<scalar> 
10556
(
588.806
641.837
664.85
650.978
650.257
627.029
614.563
619.48
618.705
621.232
644.787
671.516
691.871
728.826
738.938
737.276
727.272
722.409
712.466
696.858
671.721
642.463
606.715
586.506
541.195
516.466
533.65
551.925
558.568
550.232
545.08
548.791
547.405
548.571
556.995
566.087
586.532
606.372
631.592
638.064
636.744
634.393
634.214
630.271
622.721
609.756
592.74
571.053
554.386
524.761
501.905
503.274
516.03
527.935
523.578
527.868
535.978
530.646
534.55
545.794
547.474
566.052
586.419
603.672
606.303
609.829
611.283
611.729
610.098
605.684
597.586
585.438
568.563
553.326
532.444
495.808
490.326
501.433
514.842
514.328
522.813
527.891
522.859
528.284
540.868
539.773
557.123
578.498
590.55
591.16
598.399
601.852
602.597
601.785
598.786
592.833
583.044
568.13
554.777
544.042
493.426
485.37
496.891
510.351
512.093
522.932
523.781
519.253
525.837
538.507
537.068
553.631
575.693
583.861
585.13
594.201
598.343
599.327
598.697
596.273
591.22
582.441
568.133
561.85
553.943
492.375
483.855
495.773
509.174
511.726
524.637
520.323
518.1
524.697
532.304
536.254
552.495
574.424
580.593
582.868
592.898
596.978
598.279
597.676
595.441
590.734
582.351
574.008
569.564
563.393
492.47
483.74
495.448
508.987
511.978
521.432
518.187
517.853
524.51
530.491
536.172
552.349
573.625
579.639
582.017
592.742
596.722
598.083
597.478
595.274
590.664
587.46
582.189
578.241
572.455
492.78
487.426
495.401
509.337
518.874
521.05
517.348
520.747
524.78
529.885
542.154
552.592
573.787
579.379
582.811
595.342
602.583
598.331
598.446
598.868
597.792
595.186
590.863
587.039
581.282
497.956
489.251
497.203
510.581
530.803
521.269
518.762
523.845
529.051
530.072
547.501
565.47
576.65
579.315
586.409
605.056
613.571
611.476
609.416
607.602
605.691
603.96
599.606
595.85
589.882
503.451
510.518
510.355
527.841
534.976
526.563
526.987
527.92
532.18
536.571
551.119
571.912
582.221
580.558
591.192
610.76
618.9
618.928
616.949
616.273
614.056
612.095
607.882
604.17
597.949
505.561
526.329
536.359
538.328
536.492
539.454
533.524
534.794
534.573
540.242
555.025
577.209
588.166
588.249
599.94
619.229
628.091
627.424
625.906
624.298
621.707
619.856
615.734
612.045
605.413
506.547
532.689
545.45
542.544
537.051
544.569
542.384
543.773
540.739
546.689
565.421
585.555
591.855
593.718
606.327
624.395
635.795
634.283
633.607
632.136
629.418
627.478
623.516
619.905
612.882
511.843
535.186
549.6
543.675
537.071
547.102
557.213
553.125
552.262
554.231
572.826
592.426
598.795
603.844
617.016
633.987
642.966
645.689
643.631
641.245
637.787
635.736
632.012
628.616
621.303
520.296
538.929
551.756
544.072
537.081
547.932
564.188
566.21
564.011
564.862
583.412
601.774
607.553
614.94
623.045
639.936
650.237
652.614
653.195
650.726
647.051
644.78
641.309
638.398
630.995
536.062
548.041
552.889
544.503
536.896
548.093
569.522
582.622
577.934
580.222
596.903
611.866
616.647
625.129
633.715
647.981
661.657
664.775
663.719
661.25
657.099
654.403
651.083
648.698
641.413
570.93
574.069
557.874
550.377
539.757
549.924
575.907
589.122
590.232
593.307
610.321
619.994
626.26
630.222
644.151
657.168
670.528
671.927
673.42
671.942
667.528
664.453
661.121
659.21
652.295
614.718
611.76
571.495
563.951
553.418
553.706
578.724
592.432
599.913
605.977
618.487
626.065
633.5
640.079
653.078
664.697
680.748
685.717
684.378
683.348
678.949
675.29
671.587
669.886
663.492
632.12
626.539
602.333
591.128
571.114
564.954
579.972
594.322
609.709
617.695
627.382
637.733
642.467
653.457
665.758
675.962
689.427
693.068
694.391
694.179
690.355
686.566
682.375
680.624
674.78
638.76
632.964
618.782
616.944
598.291
582.579
585.411
595.295
617.767
627.35
637.582
644.695
654.007
668.146
678.911
688.626
703.845
708.128
706.38
705.367
701.927
698.362
693.763
691.6
686.205
641.33
635.582
626.898
626.512
631.214
604.643
598.256
599.178
623.866
636.987
648.293
658.296
666.775
680.367
693.479
703.188
714.585
716.13
717.609
716.992
713.476
710.332
705.657
703.079
697.906
642.032
636.342
630.136
629.624
643.732
629.682
617.726
611.578
630.205
644.681
656.46
668.975
681.055
693.955
706.012
715.704
728.211
731.232
730.257
729.399
725.607
722.557
717.948
715.134
709.928
642.155
636.462
631.241
630.532
649.025
654.839
644.432
628.516
637.542
651.752
664.789
678.321
691.439
704.901
716.821
726.675
737.933
740.65
741.066
741.023
737.73
734.614
730.227
727.389
722.086
642.118
636.182
631.569
630.73
651.115
663.241
660.948
646.58
649.279
659.861
673.593
685.881
702.256
716.119
728.275
739.121
751.141
755.598
753.551
752.279
749.777
746.877
742.574
739.706
734.3
644.184
636.212
631.52
631.6
651.751
667.266
668.783
662.077
663.147
671.419
681.937
695.07
709.587
725.048
737.537
750.057
760.734
764.175
764.646
763.431
761.312
758.99
754.858
751.917
746.376
653.432
639.753
634.486
636.231
652.041
669.594
675.324
677.406
678.594
685.52
692.433
705.931
721.086
735.535
747.287
764.037
774.993
778.169
776.55
776.096
773.361
771.297
767.521
764.474
758.546
680.775
649.11
646.434
646.648
658.057
672.279
682.469
692.139
692.083
699.996
707.313
718.89
732.957
746.403
758.495
778.32
786.921
788.359
787.312
788.337
785.679
783.779
780.288
777.349
771.003
712.025
679.667
665.219
661.151
670.962
682.752
689.751
704.741
706.665
713.022
720.927
732.653
745.162
759.223
772.082
790.745
801.546
805.887
800.829
800.645
798.619
796.555
793.156
790.443
783.808
722.208
710.895
699.144
680.709
689.853
703.924
694.267
714.444
719.087
725.525
733.598
744.599
757.903
772.22
784.004
801.424
811.146
814.548
813.361
811.079
810.284
808.675
805.412
803.006
796.405
725.543
723.64
719.108
715.086
721.712
721.793
704.075
721.29
728.627
735.381
744.662
753.711
769.399
783.206
797.399
814.308
826.902
830.218
827.556
823.95
822.328
820.52
817.37
815.198
808.708
726.804
729.312
729.339
735.516
736.895
730.585
719.659
726.504
736.256
744.54
754.162
765.665
779.741
795.02
810.372
828.363
838.308
839.216
839.599
837.005
834.885
832.78
829.466
827.36
820.963
727.11
733.19
734.293
747.76
747.926
737.733
737.462
739.284
745.501
756.377
764.071
777.376
791.192
806.808
823.059
842.359
853.555
855.96
853.855
852.23
849.084
846.588
842.854
840.569
834.078
727.249
735.241
737.635
757.712
757.734
751.05
757.37
757.198
764.405
771.04
779.447
790.789
805.335
820.349
836.654
857.36
867.335
869.623
867.726
867.705
864.757
861.799
857.555
855.043
848.465
728.342
736.22
743.019
767.857
767.31
768.587
776.468
775.967
781.027
789.381
796.777
806.105
818.632
833.056
850.124
872.401
881.874
885.425
884.43
882.586
880.967
877.995
873.371
870.473
863.736
733.928
743.129
759.629
778.778
774.095
782.278
791.268
792.175
799.059
805.415
816.566
825.225
836.171
848.512
867.108
887.687
896.786
901.943
900.921
897.488
896.201
893.66
889.233
886.122
879.161
749.605
757.556
791.772
788.25
781.2
793.563
803.598
812.02
816.156
822.03
831.299
840.528
850.99
864.753
883.223
902.14
912.461
917.766
918.506
914.93
912.173
909.333
905.066
901.884
894.551
788.446
783.376
812.012
797.43
790.355
803.262
817.349
825.913
827.925
833.393
842.93
853.976
866.266
881.456
899.467
918.848
930
936.563
935.785
933.656
929.758
925.884
921.291
918.012
910.3
841.694
834.44
822.746
810.722
800.134
813.101
832.256
836.011
841.784
848.558
857.663
868.447
882.07
896.709
914.706
935.387
945.038
951.401
953.596
951.73
948.265
943.663
938.498
934.967
926.917
856.719
854.676
834.614
831.493
827.49
842.714
854.898
851.951
857.609
863.052
870.323
880.977
893.696
910.353
929.296
950.839
961.631
971.657
971.884
969.91
966.492
961.78
956.339
952.622
944.391
860.66
864.925
845.862
875.439
880.783
885.696
879.517
870.14
875.439
881.637
889.986
899.516
910.674
924.646
942.876
964.538
978.103
987.154
989.955
987.535
984.459
979.978
974.455
970.731
962.379
861.475
870.839
862.71
892.224
901.424
901.598
890.184
889.542
894.566
900.452
908.267
918.241
928.447
939.317
957.499
979.146
996.706
1006.73
1006.62
1005.03
1002.48
998.077
992.421
988.762
980.365
861.301
875.343
879.632
903.706
912.495
912.919
901.978
907.842
912.913
919.283
928.557
937.141
947.571
958.185
975.445
994.932
1013.02
1024.27
1026.09
1022.55
1021.2
1016.86
1011.07
1007.33
998.707
862.403
877.543
893.095
909.291
917.441
918.161
918.114
922.255
927.957
934.544
944.198
954.746
966.201
978.618
996.043
1015.61
1027.57
1044.3
1047.89
1043.49
1040.86
1036.45
1030.49
1026.69
1017.85
865.111
887.044
906.699
912.328
919.496
920.656
939.183
938.565
942.334
948.86
959.172
970.381
983.084
997.85
1015.97
1036.49
1049.05
1064.49
1069.85
1067.05
1062.71
1057.69
1051.4
1047.46
1038.49
880.679
903.106
923.09
914.059
921.237
922.867
946.994
957.567
958.467
964.576
974.915
987.406
1000.92
1014.83
1033.32
1053
1066.54
1082.28
1085.99
1087.34
1084
1079.36
1072.83
1068.77
1060.01
902.394
922.085
937.164
917.576
926.521
926.183
952.7
970.274
976.26
981.546
991.136
1003.47
1016.65
1030.93
1049.15
1070.8
1085.96
1108.03
1112.55
1107.1
1104.85
1101.12
1094.91
1090.82
1082.22
927.812
944.085
953.359
931.446
941.634
939.161
958.334
980.872
995.213
1001.1
1010.24
1021.76
1034.73
1049.05
1067.07
1088.8
1107.55
1126.78
1132.23
1128.34
1125.74
1122.17
1116.87
1113.17
1104.89
960.429
969.175
968.425
954.607
962.162
963.343
972.001
993.124
1010.75
1021.64
1030.64
1042.03
1054.08
1068.86
1087.15
1109.06
1129.98
1149.83
1156.86
1151.58
1148.65
1144.74
1139.6
1136.2
1128.12
996.602
994.47
979.326
997.059
985.075
992.268
996.527
1006.44
1025.88
1039.62
1050.94
1063.05
1077.02
1091.19
1109.37
1130.14
1150.69
1168.83
1173.47
1173.23
1170.28
1166.98
1162.24
1159.21
1151.3
1021.95
1010.39
1004.5
1039.17
1019.89
1023.44
1029.74
1030.35
1042.33
1057.03
1070.62
1084.26
1099.61
1114.66
1132.74
1154.66
1175.12
1196.47
1203.11
1199.49
1194.76
1190.86
1185.96
1183.11
1174.96
1036.29
1026.84
1042.83
1059.08
1060.2
1052.71
1057.05
1059.99
1064.8
1075.68
1091.31
1105.82
1121.94
1137.82
1155.74
1179.92
1196.11
1211.56
1217.68
1222.69
1219.16
1214.78
1209.39
1206.68
1198.38
1050.37
1049.65
1084.02
1071.47
1077.88
1083.84
1084.41
1089.24
1096.15
1103.99
1115.03
1128.86
1145.07
1160.98
1179.18
1201.61
1217.83
1236.05
1242.79
1247.02
1246.15
1241.13
1234.25
1230.9
1222.27
1066.01
1076.25
1098.19
1078.93
1092.78
1106.73
1110.53
1117.93
1119.38
1128.49
1137.92
1151.83
1166.72
1183.29
1201.7
1222.59
1238.8
1254.58
1262.57
1267.26
1270.52
1267.61
1260.16
1255.68
1246.96
1087.29
1096.06
1106.81
1087.61
1116.26
1124.91
1145.5
1155.58
1141.79
1152.12
1159.76
1173.2
1187.32
1204.29
1222.87
1244.57
1261.49
1282.48
1288.98
1291.72
1294.65
1294.62
1288.15
1282.86
1273.66
1107.91
1117.99
1113.65
1101.76
1131.06
1155.48
1171.97
1170.88
1164.88
1171.01
1179.78
1193.49
1209.2
1227.18
1244.99
1266.66
1285.74
1304.3
1310.39
1314.84
1315.79
1317.6
1314.48
1310.66
1301.43
1131.93
1137.18
1117.36
1131.08
1158.94
1179.84
1183.97
1181.6
1183.93
1187.14
1199.95
1214.55
1232.08
1251.22
1268.74
1292.17
1313.45
1334.8
1341.23
1342.55
1341.76
1341.92
1340.53
1338.75
1329.86
1161.27
1160.68
1133.74
1185.64
1195.5
1191.02
1193.26
1195.76
1208.85
1211.64
1222.51
1238.51
1256.39
1275.79
1294.08
1318.21
1341.9
1354.09
1360.25
1367.79
1369.22
1368.52
1365.4
1364.96
1356.98
1186.61
1177.63
1170.74
1211.89
1211.48
1200.91
1200.27
1210
1233.45
1239.13
1248.9
1263.66
1282.1
1302.15
1321.66
1347.36
1365.15
1381.04
1390.74
1391.19
1398.71
1400.24
1395.2
1393.57
1385.42
1206.32
1196.93
1222.28
1228.24
1220.92
1216.06
1219.47
1234.73
1254.71
1265.3
1277.31
1291.73
1308.98
1329.34
1349.15
1375.18
1391.1
1396.98
1412.04
1426.25
1425.57
1428.56
1425.07
1422.81
1414.8
1222.81
1226.98
1255.73
1234.69
1227.82
1230.9
1241.3
1255.48
1279.16
1296.91
1306.44
1320.45
1337.46
1357.92
1378.85
1404.89
1417.9
1431.61
1450.13
1460.69
1462.47
1463.18
1458.95
1455.89
1447.24
1249.2
1262.05
1269.95
1241.12
1241.15
1254.3
1265.48
1271.34
1302.9
1321.6
1337.13
1351.48
1367.91
1387.66
1409.03
1437.73
1455.29
1458.82
1475.9
1492.76
1494.95
1496.11
1492.29
1489.82
1481.01
1288.9
1307.8
1279.58
1249.65
1265.09
1286.56
1297.24
1302.95
1321.47
1347.67
1366.54
1384.29
1401.58
1421.79
1443.45
1472.16
1488.53
1502.71
1520.14
1522.09
1531.11
1532.99
1529.19
1526.93
1517.55
1336.06
1328.57
1288.69
1280.77
1307.1
1323.52
1333.25
1346.82
1353.15
1374.13
1394.68
1414.34
1434.43
1455.89
1479.85
1504.87
1519.22
1540.94
1554.06
1567.3
1567.02
1568.61
1565.06
1563.36
1554.37
1351.96
1340.08
1314.32
1331.67
1376.36
1366.02
1377.61
1393.34
1399.22
1411.89
1429.89
1448.29
1469.65
1491.37
1513.29
1538.73
1559.17
1575.71
1602.89
1609.01
1608.23
1608.75
1604.58
1602.96
1593.43
1365.69
1356.31
1365.3
1387.6
1417.5
1417.8
1424.76
1430.79
1443.55
1454.59
1471.4
1487.41
1506.33
1526.67
1549.22
1578.03
1603.63
1611.81
1629.85
1646.07
1649.6
1649.9
1643.16
1641.09
1632.23
1387.26
1405.51
1421.45
1436.83
1436.34
1459.61
1461.59
1469.79
1485.18
1497.46
1512.95
1527.88
1544.58
1564.22
1588.13
1620.12
1643.85
1661.85
1680.66
1683.78
1693.65
1695.73
1688.04
1683.19
1673.72
1431.81
1452.82
1465.44
1476.21
1456.4
1477.62
1488.48
1497.32
1514.16
1535.39
1550.85
1567.68
1584.99
1606.15
1631.24
1659.29
1677.5
1702.13
1724.41
1736.38
1734.54
1737.5
1730.18
1725.71
1715.56
1483.25
1497.26
1502.17
1494.81
1471.77
1493.55
1519.14
1533.68
1551.65
1569.89
1586.85
1606.45
1626.01
1647.07
1671.01
1696.39
1721.42
1748.94
1769.76
1779.05
1777.66
1779.36
1774.12
1771.39
1760.56
1523.79
1530.65
1531.14
1511.67
1511.95
1538
1557.85
1573.88
1588.58
1606.03
1626.52
1645.74
1665.93
1687.8
1711.99
1739.74
1768.52
1796.65
1814.43
1831.32
1827.63
1822.25
1815.71
1814.38
1804.84
1558.43
1559.63
1549.92
1555.55
1572.7
1591.51
1608.27
1621.66
1641.04
1656.24
1673.03
1690.21
1710.22
1731.77
1756.76
1785.1
1812.14
1844.71
1862.84
1867.57
1874.88
1870.24
1862.37
1859.7
1850.39
1592.91
1597.96
1595.77
1615.52
1630.97
1645.34
1659.03
1671.9
1688.24
1704.96
1722
1739.99
1758.47
1778.47
1803.07
1832.45
1863.04
1889.54
1908.17
1919.89
1913.19
1917.95
1909.02
1903.67
1894.04
1631.45
1635.54
1654.37
1670.39
1678.99
1690.66
1701.23
1715.86
1729.57
1749.36
1766.94
1785.92
1804.8
1825.45
1850.19
1879.57
1903.46
1934.59
1956.23
1965
1954.19
1960.08
1954.93
1950.94
1939.89
1671.84
1685.77
1706.66
1713.74
1721.81
1730.53
1737.97
1751.47
1773.61
1791.66
1810.54
1830.5
1850.17
1871.79
1897.1
1923.25
1948.98
1982.58
2008.64
2022.74
2007.43
2006.32
2000.8
1998.06
1986.24
1726.35
1740.81
1747.71
1753.28
1748.4
1760.12
1779.25
1798.69
1815.78
1836.19
1857.68
1878.88
1899.83
1921.55
1944.25
1968.46
1994.77
2034.57
2059.14
2063.74
2060.07
2058.21
2052.23
2050.57
2037.96
1775.47
1780.89
1780.01
1782.13
1792.54
1813.31
1831.54
1849.81
1869.91
1888.72
1910.23
1931.03
1953.15
1974.87
1998.32
2023.78
2052.51
2095.19
2122.56
2130.57
2126.21
2120.18
2109.8
2106.32
2094.26
1820.57
1827.72
1835.23
1836.38
1859.17
1876.35
1889.68
1906.05
1925.59
1948.12
1968.36
1989.05
2010.4
2031.98
2054.56
2079.49
2111.7
2156.45
2176.91
2182.57
2184.35
2181.47
2172.72
2168.35
2155.89
1872.5
1882.51
1888.68
1910.35
1929.38
1935.47
1947.49
1962.77
1983.44
2004.11
2026.42
2049.67
2071.36
2093.47
2117.9
2144.2
2173.13
2211.69
2238.97
2257.14
2245.63
2244.76
2236.95
2232.1
2218.76
1928.55
1937.75
1951
1968.99
1977.22
1984.17
1998.69
2017.4
2038.29
2061.41
2084.62
2107.79
2131.57
2155.74
2179.98
2204.4
2232.44
2267.4
2288.8
2300.38
2295.5
2301.84
2300.57
2298.21
2283.55
1991.08
2000.48
2009.87
2018.37
2019.44
2035.71
2054.26
2075.67
2096.11
2121.72
2146.93
2170.61
2194.69
2219.39
2243.97
2267.55
2293.68
2328.66
2358
2374.03
2368.18
2371.89
2368.84
2367.46
2352.49
2054.54
2062.82
2071.69
2077.37
2091.59
2105.77
2120.66
2141.19
2163.28
2187.26
2211.32
2237.71
2263.74
2288.46
2312.5
2336.48
2364.96
2401.29
2420.76
2431.71
2446.21
2452.03
2444.56
2441.68
2426.57
2114.35
2119.66
2127.66
2142.55
2158.69
2181.24
2194.34
2211.21
2233.63
2256.77
2282.65
2309.89
2336.16
2361.47
2387.89
2414.19
2439.66
2475.83
2497.99
2521.5
2533.35
2535.57
2527.17
2521.02
2505.83
2180.71
2191.03
2202.58
2214.86
2229.97
2239.64
2257.21
2278.63
2301.77
2327.61
2353.94
2381.61
2408.73
2435.59
2463.46
2490.62
2518.67
2553.8
2568.62
2595.21
2610.1
2616.05
2608.48
2602.15
2585.61
2244.34
2253.01
2260.81
2281.27
2292.77
2303.69
2321.81
2345.71
2369.15
2397.23
2425.31
2452.75
2480.57
2510.62
2539.62
2567.04
2593.03
2624.88
2654.2
2678.59
2679.51
2690.7
2689.98
2685.21
2667.38
2309.44
2319.65
2328.25
2338.08
2352.93
2376.31
2395.56
2412.05
2437.66
2465.27
2494.02
2524.12
2554.01
2584.21
2612.83
2640.38
2670.69
2704.19
2713.31
2742.61
2763.59
2769.86
2768.11
2765.21
2749.47
2375.36
2384.59
2392.9
2410.15
2427.14
2449.28
2467.15
2486.37
2508.98
2533.69
2564.65
2595.63
2627.76
2659.72
2689.28
2717.67
2752.19
2783.3
2797.64
2836.51
2856.18
2860.79
2854.94
2849.81
2834.02
2441.67
2453.14
2465.2
2481.96
2502.52
2520.2
2530.91
2553.59
2578.05
2608.73
2638.45
2672.24
2705.83
2738.75
2769.75
2800.85
2836.14
2870.62
2887.25
2927.99
2948.74
2949.73
2943.31
2938.26
2922.26
2517.37
2530.47
2541.24
2557.57
2573.45
2587.16
2609.57
2633.22
2658.4
2686.77
2720.9
2756.01
2790.43
2823.72
2856.95
2890.83
2926.15
2964.87
2987.86
3016.56
3036.84
3042.4
3036.48
3031.21
3014.09
2600.08
2613.17
2623.93
2639.04
2656.45
2675.41
2698.21
2717.82
2746.61
2776.49
2808.81
2843.59
2877.84
2913.84
2950.24
2985.99
3020.06
3056.78
3079.6
3113.1
3133.49
3134.03
3130.29
3127.34
3108.36
2687.63
2701.16
2712.75
2732.29
2753.01
2773.44
2789.42
2811.78
2837.54
2868.44
2901.79
2936.76
2972.82
3011.01
3049.38
3084.31
3112.94
3148.09
3175.21
3218.5
3233.8
3237.15
3233.99
3230.47
3211.04
2780.65
2797.05
2811.15
2830.73
2847.87
2869.49
2889.05
2911.36
2936.29
2966.08
2999.9
3036.27
3074.41
3113.37
3150.8
3186.39
3216.32
3265.2
3288.25
3331.14
3344.71
3348.31
3336.72
3331.73
3315.18
2878.76
2895.84
2908.27
2929
2950.33
2970.71
2989.23
3010.16
3038.42
3069.09
3101.9
3139.47
3177.85
3217.71
3256.89
3297.43
3335.22
3378.11
3404.88
3444.98
3459.94
3464.18
3447.69
3439.94
3423.92
2981.79
2998.37
3009.54
3027.92
3046.11
3068.78
3092.44
3119.66
3146.64
3173.51
3207.84
3244.64
3283.27
3325.08
3367.26
3411.27
3452.21
3493.77
3511.51
3555.33
3569.63
3570.47
3553.48
3544.32
3525.77
3089.96
3108.98
3123.05
3146.29
3168.12
3191.62
3205
3222
3254.2
3283.32
3315.94
3354.81
3396.02
3438.61
3482.36
3527.61
3571.16
3608.49
3627.59
3657.31
3664.69
3667.12
3657.61
3652.32
3627.92
3215.31
3231.88
3241.87
3259.43
3276.03
3296.25
3324.42
3351.5
3366.26
3399.81
3431
3466.71
3508.28
3553.11
3597.92
3642.77
3684.61
3721.6
3740.23
3776.58
3780.33
3768.44
3760.02
3759.42
3731.04
3338.24
3353.01
3365.12
3383.08
3404.36
3422.31
3447.26
3477.79
3493.7
3519.48
3552.81
3590.18
3628.62
3671.37
3714.48
3755.74
3791.71
3835.51
3861.93
3908.66
3913.59
3897.67
3884.93
3884.61
3851.53
3461.24
3476.46
3488.68
3507.32
3526.01
3551.86
3564.99
3581.29
3611.64
3641.73
3672.33
3708.72
3748.16
3790.33
3833.03
3876.07
3915.8
3964.98
4001.77
4044.73
4035.82
4032.48
4013.04
4016.62
3988.55
3599.74
3613.19
3623.37
3639.74
3655.13
3673.25
3700.92
3726.45
3748.13
3774.01
3804.96
3837.93
3876.32
3918.91
3962.67
4007.72
4051.29
4104.72
4145.64
4189.01
4184.19
4180.79
4154.11
4154.18
4131.44
3744.15
3757.05
3768.72
3786.21
3805.49
3826.59
3844.98
3864.05
3892.67
3915.1
3944.51
3978.79
4016.31
4060.53
4108.05
4157.62
4205.16
4261.45
4299.19
4339.93
4329.97
4335.24
4304.02
4301
4274.81
3895.61
3905.66
3914.11
3929.35
3945.84
3964.15
3986.43
4009.64
4030.92
4061.95
4091.24
4126.65
4167.66
4214.08
4263.6
4313.24
4361.52
4413.12
4450.9
4487.83
4495.49
4509.61
4484.95
4474.58
4434.15
4061.85
4070.2
4077.6
4089.06
4102.61
4120.46
4143.42
4168.72
4196.1
4224.47
4254.34
4289.05
4329.5
4376.6
4425.4
4474.44
4519.71
4567.55
4602.51
4636.93
4647.21
4664.9
4656.4
4663.5
4615.96
4239.4
4247.21
4255.12
4268.36
4283.64
4302.93
4321.25
4343.84
4368.79
4397.55
4430.05
4465.94
4505.43
4549.46
4596.75
4643.42
4688.54
4735.76
4772.59
4819.58
4824.94
4834.31
4845.62
4860.51
4824.72
4418.72
4425.93
4433.26
4444.87
4460.83
4481.37
4504.73
4525.17
4553.12
4580.13
4610.11
4644.11
4682.34
4725.11
4769.48
4817.88
4866.16
4917.04
4967.12
5011.29
5023.93
5072.78
5050.67
5058.95
5033.9
4593.85
4603.01
4611.96
4623.45
4634.5
4647.02
4667.78
4695.13
4725.75
4758.41
4791.3
4828.69
4867.19
4911.34
4960.25
5013.84
5070.54
5132.18
5184.06
5249.08
5265.12
5297.53
5277.03
5276.7
5244.22
4775.96
4786.05
4794.26
4806.5
4821.9
4844.88
4867.55
4893.32
4914.16
4947.4
4984.01
5022.45
5063.55
5108.03
5157.97
5216.24
5275.38
5338.14
5391.59
5452.59
5482.31
5549.09
5503.64
5495.88
5457.07
4979.02
4990.36
4996.96
5007.72
5019.75
5037.32
5058.51
5088.23
5124.21
5158.8
5195.04
5236.78
5279.01
5326.34
5378.04
5436.17
5493.02
5549.37
5592.08
5626.11
5686.57
5749.45
5724.12
5720.85
5681.24
5210.96
5224.47
5231.3
5244.18
5255.89
5270.9
5294.05
5314.57
5344.46
5385.46
5427.53
5470.83
5512.68
5558.77
5608.69
5664.73
5718.63
5775.6
5832.51
5887.34
5893.77
5949.18
5937.51
5943.68
5901.1
5478.16
5487.91
5491.6
5499.58
5509.15
5525.62
5542.41
5572.15
5599.47
5635.21
5675.78
5720.38
5762.91
5808.49
5857.34
5911.24
5964.49
6023.41
6076.05
6141.96
6130.36
6178.74
6153.66
6168.81
6134.73
5777.36
5785.92
5786.63
5791.72
5798.45
5808.72
5826.18
5845.68
5875.22
5912
5948.14
5988.26
6027.39
6068.14
6109.75
6156.41
6199.75
6247.21
6286.31
6352.49
6395.39
6433.62
6409.67
6433.66
6404.83
6090.93
6099.13
6100.5
6105.4
6111.14
6121.06
6131.95
6151.38
6174.28
6205.37
6242.71
6282.56
6319.78
6358.97
6397.41
6437.17
6476.67
6526.26
6576.93
6650.47
6680.71
6729.71
6695.13
6698.2
6674.7
6418.17
6426.15
6428.15
6431.93
6436.69
6444.54
6455.83
6471.63
6493.15
6522.81
6555.84
6595.22
6634.28
6674.18
6712.96
6754.55
6796.57
6845.43
6890.5
6965.81
7011.32
7043.1
7030.14
6993.73
6943.87
6757.28
6767.61
6770.79
6776.48
6781.13
6788.69
6797.46
6812.73
6833.29
6862.06
6896.83
6938.02
6979.12
7022.93
7061.85
7101.57
7138.26
7182.34
7228.14
7302.94
7344.49
7369.43
7362.55
7325
7250.6
7129.95
7136.91
7141.49
7147.21
7152.17
7160.04
7169.08
7181.6
7198.17
7223.08
7253.68
7294.39
7334.71
7378.66
7415.77
7452.16
7486.96
7529.31
7569.97
7635.33
7663.06
7678.21
7653.61
7654.51
7590.59
7551.55
7555.4
7556.7
7559.21
7560.59
7564.35
7570.54
7580.82
7595.58
7616.09
7640.45
7674.72
7710.71
7751.78
7784.65
7817.23
7841.26
7868.59
7898.05
7959.66
7969.4
8003.56
7944
7989.73
7928.77
8005.96
8008.65
8005.32
8008.92
8005.68
8009.11
8008.97
8014.38
8020.86
8032.66
8048.23
8075.4
8100.59
8134.56
8158.96
8179.14
8194.65
8214.44
8237.02
8286.58
8291.83
8330.71
8287.72
8300.7
8264.2
8488.16
8491.02
8481.01
8484.58
8476.5
8480.68
8476.46
8481.34
8478.45
8486.1
8488.37
8507.26
8527.49
8549.7
8570.84
8589.86
8598.25
8610.09
8618.11
8664.93
8682.29
8695.72
8657.52
8645.34
8603.9
8991.31
8994.83
8985.31
8991.09
8984.42
8988.55
8978.02
8979.73
8968.01
8973.01
8968.14
8978.19
8988.48
9007.32
9026.52
9044.75
9050.01
9056.22
9054.73
9099.33
9119.3
9134.55
9083.78
9072.28
8984.46
9527.66
9531.49
9523.09
9531.55
9527.44
9534.55
9527.99
9529.49
9512.9
9514.04
9496.36
9504.13
9505.6
9519.88
9538.54
9560.08
9565.79
9571.58
9565.26
9601.09
9604.07
9628.54
9608.5
9562.83
9455.34
10108.3
10111.9
10104.7
10111.1
10108.6
10112.5
10104.7
10104.1
10085.4
10084.4
10062.1
10057.5
10044.1
10052.9
10061.6
10081.4
10085.8
10097.3
10080.5
10085.3
10003.7
10093.4
10028.2
10040.1
9952.33
10736.7
10740
10728.8
10736.1
10728
10731.5
10717.9
10710.8
10684.2
10674.6
10645.2
10632.6
10601.8
10600
10593
10603.5
10606.4
10614.8
10574.1
10567
10505.3
10551.9
10458.1
10498.7
10408.2
11429.2
11432.2
11405.5
11411.3
11388.7
11388.9
11365.4
11354.8
11322.6
11301.8
11260
11223.2
11179.9
11156.9
11124.7
11119
11110.4
11111.2
11064.7
11077.2
11039.8
10993.6
10943.4
10921.2
10848.4
12173
12174.9
12131.4
12137
12098.2
12090.8
12054.2
12034.6
11993.3
11960.7
11913.7
11864
11805.4
11757.4
11706.1
11675.8
11652
11646.8
11606.9
11589.8
11430.5
11495.2
11435.6
11409.7
11325.4
12964.7
12962.4
12913.8
12906.9
12866.6
12853.9
12815
12793.1
12749.3
12700.6
12642
12580.9
12513.4
12447.4
12380
12330.9
12296
12288.7
12234.1
12228
12190.1
12174
12093.1
12055.6
11921
13817.9
13818.2
13765.1
13748.1
13705.6
13683.7
13643.9
13619.8
13576.3
13527.7
13467.5
13400.3
13324.4
13251.8
13174.2
13110.7
13068.8
13042.1
13001.5
13022.1
13011.2
12967
12888.3
12839
12686.2
14769.9
14773.4
14719
14693.5
14649.4
14621.7
14579.1
14546
14495.8
14439.5
14371.9
14300.2
14215.8
14132.1
14045.3
13971.2
13903.5
13854.9
13824
13824.5
13752
13782.6
13664.2
13672.8
13536.8
15848.6
15841.6
15787.7
15747.4
15699.7
15657.2
15609.6
15562.1
15504.1
15438.9
15360.4
15275.4
15179.6
15083.7
14977.8
14883.3
14798.8
14725.3
14663.1
14668.1
14565.2
14575.7
14475.4
14505.5
14372.4
17035.6
17006
16950.9
16896.7
16835.4
16777.6
16714.8
16651.3
16576.7
16494.8
16404.2
16308.6
16199.8
16088.9
15967.4
15851.7
15741.7
15645.9
15581.4
15576.2
15453
15399.5
15379.6
15326.4
15247.2
18269.7
18229.7
18171.3
18108.9
18036.5
17964.7
17886.4
17806.7
17716.8
17620.8
17516.4
17409.9
17293.8
17173
17037.8
16908.9
16780.6
16669.2
16577.3
16526.3
16413.4
16407.9
16349.4
16291.6
16173.5
19576.6
19535.5
19471.1
19400.8
19318
19235.3
19144.1
19051.3
18946.6
18838.2
18725.3
18612.5
18489.5
18363.4
18224.3
18091.7
17956.6
17835
17733.8
17671.2
17577
17597.8
17473.4
17418.1
17234.4
21009.4
20968
20901
20824.7
20731.1
20636.2
20529.9
20422.6
20303.4
20180.8
20055
19934.6
19808.2
19681.9
19545.9
19415.9
19275.9
19154.2
19061.6
18989.6
18883.4
18907.2
18715.1
18720.1
18511.2
22598.3
22556.6
22487.6
22407.2
22306.8
22202.7
22082.9
21960.4
21821.7
21681
21538.1
21402.6
21265.5
21133.7
20992.6
20860
20731.1
20628.6
20527.4
20407.8
20269.5
20314.3
20151
20184.8
20031.9
24393.9
24345.9
24270.5
24180.4
24066.8
23948.3
23812.1
23671
23511.5
23345.6
23177.3
23019.9
22861.2
22710.9
22561.9
22438.6
22320
22199.1
22062.1
21926.8
21777.1
21851.3
21647.3
21627.6
21523.9
26378.4
26325.2
26244.9
26145.2
26019.4
25883.5
25727.1
25562.9
25377.1
25183
24983
24789.8
24601.5
24432.5
24274.7
24145.1
24012
23880
23754.7
23648.4
23503.3
23502.8
23323.2
23250.8
23067.4
28495.4
28437.8
28349.6
28237.9
28099.4
27949.3
27779.6
27598.9
27394.1
27174.4
26946.7
26729.4
26522.1
26337.1
26155.2
26008
25894.5
25797.5
25679.1
25526.1
25317.5
25260.7
25152.1
25186
24945.8
30719.4
30662.8
30570.3
30452.2
30307.6
30152.4
29976.7
29788.5
29575.4
29348.7
29114.3
28887.8
28669.9
28472.7
28288.2
28160.9
28074.7
27998.1
27884.3
27798.3
27796.3
27936.2
27632.2
27634.7
27378.8
33074.7
33020.1
32927.1
32808.9
32667.2
32517.7
32349.2
32168.7
31966
31752.7
31532.2
31313.6
31100.4
30919.9
30757.3
30627.7
30518.5
30446.9
30421.7
30402.8
30352.7
30454.1
30286.3
30344.6
30157.9
35637.1
35586.6
35497.3
35384.1
35249.5
35113
34962.1
34803.2
34624.8
34436.8
34241.8
34052.4
33872.5
33715.5
33559.4
33420.2
33306.8
33250
33222.6
33228.1
33259.1
33407.7
33263.7
33383.8
33181.9
38434.4
38388.1
38307.1
38205.1
38084.2
37967.7
37842.4
37713.7
37567.5
37417.7
37270.4
37128.8
36986.4
36858
36732.4
36623.8
36498.4
36404.3
36385.4
36370.5
36347.4
36475
36286.5
36583.4
36377
41482.4
41443.4
41377.8
41295.5
41194.6
41098.3
40998.3
40903.9
40797.6
40694
40599.4
40512.6
40418.3
40320.9
40202.2
40136.3
40023.7
39972.1
39863.3
39811.8
39691.9
39813.7
39498.7
39736.9
39438.9
44699.2
44677.7
44647.6
44607.8
44554.1
44497.9
44436.7
44383.4
44326
44295.1
44260.6
44254.6
44209.1
44190.7
44073.6
44066.4
43975.8
43952.7
43762.1
43668.7
43560.6
43677.8
43290
43277
42886.8
48091.2
48108.6
48132.8
48167.2
48195.3
48231.2
48255.1
48289.5
48327.7
48380.7
48431.4
48484.9
48532.7
48574.3
48558.6
48566.7
48473.8
48481.4
48377.7
48392.3
48305.3
48420.1
47984.4
48074.9
47638.2
51895.5
51947.5
52034.3
52162.9
52303.3
52470.1
52627.6
52797.7
52962.4
53131.1
53290.9
53438.1
53578.7
53705.7
53774.8
53829.8
53813.1
53863.6
53880
53902.3
53758.8
53889.3
53509.8
53716.9
53164
56435.6
56514.3
56649
56872.4
57122.4
57427.6
57724.1
58048.9
58376.4
58711.8
59021.6
59303.1
59544.5
59755.1
59927.2
60064.9
60109.8
60177.5
60082.4
60124.4
59995.6
60109.8
59582.7
59980.4
59375.2
62268.9
62370.4
62460
62789.8
63074.3
63508.1
63915.4
64377.2
64842.9
65331
65798.8
66236.8
66599.4
66899.5
67150.8
67356.9
67411.2
67521.7
67356.7
67420.8
67184.7
67366.4
66686.8
66927.9
66160
70035.6
70101.7
70215.6
70480.6
70800.7
71228.6
71674.5
72181.8
72720.4
73302.5
73871.6
74421.7
74878.2
75283.2
75621.2
75940.2
76054.4
76249.6
76108.6
76210.1
75814
75979.2
75282.3
75589.2
74675
80396.8
80415.4
80420.9
80616.5
80833
81163.1
81518.3
81937
82415.9
82965.4
83538.3
84104.2
84603.4
85079.8
85446.4
85847.2
85993.2
86256.6
86125.7
86267.7
85832.2
86012.2
85013.7
85357.4
84389
94220.6
94165.9
93697.6
93778.4
93610.7
93726.8
93822.4
94029.3
94298.6
94686.6
95134.7
95615.9
96083
96569.3
96823.1
97276.9
97441
97794.4
97771.4
97966.6
97562.6
97756.1
96749.8
97272.3
96105.2
112115
111892
111186
110852
110196
109984
109507
109340
109127
109162
109267
109481
109765
110096
110340
110777
110742
111203
111151
111459
111139
111365
110416
111030
109766
134211
133716
133049
132328
131504
130709
129869
129041
128222
127451
126763
126379
126071
126065
126140
126332
126223
126646
126255
126808
126367
126656
125773
126337
124983
160444
159895
159094
158223
157152
156025
154812
153521
152109
150594
149073
147673
146441
145424
144608
144083
143722
143908
143140
143931
142887
143651
142712
143292
141917
191526
190985
190062
189030