/*--------------------------------*- C++ -*----------------------------------*\
| =========                 |                                                 |
| \\      /  F ield         | OpenFOAM: The Open Source CFD Toolbox           |
|  \\    /   O peration     | Version:  2212                                  |
|   \\  /    A nd           | Website:  www.openfoam.com                      |
|    \\/     M anipulation  |                                                 |
\*---------------------------------------------------------------------------*/
FoamFile
{
    version     2.0;
    format      ascii;
    arch        "LSB;label=32;scalar=64";
    class       volScalarField;
    location    "0.0018";
    object      nut;
}
// * * * * * * * * * * * * * * * * * * * * * * * * * * * * * * * * * * * * * //

dimensions      [0 2 -1 0 0 0 0];

internalField   nonuniform List<scalar> 
31661
(
0.207197
0.327694
0.327707
0.327701
0.327677
0.327694
0.327686
0.327661
0.327681
0.327672
0.0297346
0.327379
0.0504522
0.33995
0.321115
0.296386
0.30583
0.265534
0.327639
0.303492
0.329063
0.328831
0.160031
0.245636
0.327642
0.329273
0.116273
0.195828
0.327373
0.327427
0.266319
0.276664
0.29038
0.329874
0.327771
0.307989
0.331266
0.318969
0.302015
0.305236
0.322698
0.327751
0.344271
0.337068
0.337656
0.32751
0.337375
0.335685
0.331637
0.33852
0.326586
0.333857
0.327734
0.335385
0.326859
0.327537
0.328056
0.328697
0.327823
0.327581
0.327466
0.327468
0.336213
0.327927
0.335103
0.140807
0.0441859
0.327923
0.328002
0.328061
0.3274
0.328117
0.328144
0.328163
0.328176
0.328186
0.328192
0.328196
0.328199
0.3282
0.328201
0.328201
0.3282
0.328199
0.328199
0.3282
0.328201
0.328201
0.328201
0.328199
0.328197
0.328193
0.328187
0.328178
0.328165
0.328148
0.328124
0.328094
0.328054
0.328
0.327928
0.327839
0.327734
0.327641
0.327608
0.327477
0.327451
0.327279
0.327257
0.327048
0.327028
0.32678
0.326762
0.326477
0.32646
0.326137
0.326122
0.325764
0.32575
0.325358
0.325346
0.324924
0.324913
0.324463
0.324454
0.32398
0.323972
0.323478
0.323471
0.322959
0.322953
0.322426
0.32242
0.321883
0.321878
0.321332
0.321327
0.320775
0.32077
0.320213
0.320208
0.319648
0.319643
0.319082
0.319077
0.318515
0.318511
0.31795
0.317946
0.317387
0.317383
0.316827
0.316822
0.316272
0.316266
0.315721
0.315716
0.315176
0.315171
0.314639
0.314634
0.314109
0.314104
0.313588
0.313583
0.313078
0.313073
0.312579
0.312576
0.312092
0.312095
0.3121
0.312584
0.313083
0.313593
0.314114
0.314644
0.315182
0.315727
0.316277
0.316833
0.317393
0.317956
0.318521
0.319087
0.319653
0.320218
0.32078
0.321337
0.321889
0.322432
0.322964
0.323484
0.323987
0.324471
0.324932
0.325368
0.325775
0.326149
0.32649
0.326795
0.327065
0.327298
0.327499
0.32767
0.327808
0.327918
0.328002
0.328064
0.328108
0.328139
0.32816
0.328175
0.328185
0.328192
0.328196
0.328199
0.328198
0.328198
0.3282
0.328201
0.328201
0.3282
0.328199
0.328196
0.328195
0.328195
0.328197
0.328199
0.3282
0.328201
0.328201
0.3282
0.328199
0.328197
0.328193
0.328188
0.328179
0.328167
0.32815
0.328127
0.328095
0.328054
0.328
0.32793
0.327841
0.327731
0.327597
0.327434
0.327239
0.32701
0.326745
0.326444
0.326108
0.325738
0.325335
0.324904
0.324446
0.323965
0.323465
0.322947
0.322415
0.321872
0.321321
0.320765
0.320203
0.319639
0.319073
0.318507
0.317942
0.317379
0.316819
0.316263
0.315712
0.315167
0.31463
0.314101
0.31358
0.313071
0.312574
0.312091
0.311624
0.311624
0.311626
0.31163
0.311635
0.312104
0.312589
0.313087
0.313597
0.314118
0.314649
0.315187
0.315732
0.316283
0.316838
0.317398
0.31796
0.318525
0.319091
0.319657
0.320222
0.320783
0.321341
0.321893
0.322436
0.322969
0.323488
0.323992
0.324476
0.324938
0.325374
0.325781
0.326156
0.326498
0.326804
0.327074
0.327308
0.327507
0.327673
0.327807
0.327915
0.327998
0.32806
0.328103
0.328135
0.328158
0.328173
0.328184
0.328191
0.328196
0.328198
0.3282
0.328201
0.328198
0.328201
0.3282
0.328199
0.328192
0.328193
0.328196
0.328193
0.328189
0.328188
0.328191
0.328194
0.328197
0.328198
0.3282
0.3282
0.328201
0.3282
0.328199
0.328197
0.328193
0.328188
0.32818
0.328168
0.328151
0.328128
0.328097
0.328055
0.328
0.32793
0.327841
0.327729
0.327591
0.327425
0.327228
0.326997
0.326732
0.326431
0.326095
0.325726
0.325324
0.324894
0.324437
0.323957
0.323457
0.32294
0.322409
0.321868
0.321317
0.32076
0.3202
0.319636
0.31907
0.318503
0.317939
0.317376
0.316817
0.316261
0.315711
0.315166
0.314629
0.314101
0.313581
0.313072
0.312575
0.312092
0.311626
0.311178
0.311175
0.311174
0.311176
0.311179
0.311184
0.31119
0.311641
0.312109
0.312593
0.313091
0.313601
0.314122
0.314653
0.31519
0.315736
0.316287
0.316842
0.317402
0.317964
0.318528
0.319094
0.31966
0.320224
0.320786
0.321344
0.321895
0.322439
0.322971
0.32349
0.323994
0.324478
0.32494
0.325376
0.325783
0.326159
0.326501
0.326807
0.327077
0.32731
0.327509
0.327673
0.327806
0.327912
0.327993
0.328055
0.3281
0.328132
0.328155
0.328172
0.328183
0.32819
0.328195
0.328198
0.3282
0.3282
0.3282
0.328197
0.3282
0.328199
0.32819
0.328184
0.328185
0.328195
0.328193
0.32819
0.328179
0.328177
0.328182
0.328187
0.32819
0.328193
0.328196
0.328198
0.328199
0.3282
0.3282
0.3282
0.328199
0.328197
0.328193
0.328188
0.32818
0.328168
0.328152
0.328129
0.328097
0.328056
0.328001
0.32793
0.32784
0.327727
0.327588
0.327421
0.327222
0.32699
0.326723
0.326421
0.326084
0.325715
0.325314
0.324885
0.32443
0.323951
0.323451
0.322934
0.322404
0.321863
0.321314
0.320758
0.320196
0.319633
0.319068
0.318502
0.317938
0.317375
0.316816
0.316261
0.315711
0.315167
0.31463
0.314101
0.313582
0.313073
0.312577
0.312095
0.31163
0.311183
0.310756
0.31075
0.310746
0.310745
0.310745
0.310748
0.310753
0.310759
0.310767
0.311197
0.311647
0.312115
0.312598
0.313096
0.313606
0.314126
0.314656
0.315194
0.315739
0.31629
0.316845
0.317405
0.317967
0.318531
0.319097
0.319662
0.320227
0.320789
0.321346
0.321897
0.32244
0.322972
0.323491
0.323994
0.324478
0.32494
0.325376
0.325783
0.326159
0.326501
0.326807
0.327077
0.327311
0.327508
0.327671
0.327802
0.327907
0.327989
0.328051
0.328096
0.32813
0.328153
0.32817
0.328182
0.32819
0.328195
0.328198
0.328199
0.3282
0.3282
0.328199
0.328197
0.328198
0.328186
0.328181
0.328195
0.328172
0.328174
0.328193
0.32819
0.328186
0.328165
0.328162
0.328169
0.328175
0.32818
0.328185
0.328189
0.328192
0.328195
0.328197
0.328198
0.328199
0.3282
0.3282
0.328199
0.328197
0.328193
0.328188
0.32818
0.328168
0.328152
0.328129
0.328098
0.328056
0.328001
0.32793
0.32784
0.327726
0.327587
0.327418
0.327219
0.326986
0.326718
0.326415
0.326078
0.325708
0.325307
0.324878
0.324423
0.323945
0.323447
0.322932
0.322401
0.32186
0.321311
0.320756
0.320195
0.319631
0.319066
0.318502
0.317937
0.317375
0.316817
0.316262
0.315712
0.315168
0.314631
0.314103
0.313584
0.313076
0.312581
0.3121
0.311636
0.31119
0.310764
0.310361
0.310351
0.310344
0.31034
0.310337
0.310337
0.310339
0.310343
0.31035
0.310358
0.310776
0.311205
0.311655
0.312122
0.312605
0.313101
0.313611
0.314131
0.31466
0.315198
0.315742
0.316292
0.316848
0.317407
0.317969
0.318534
0.319099
0.319664
0.320229
0.32079
0.321347
0.321898
0.32244
0.322972
0.323491
0.323994
0.324477
0.324938
0.325373
0.325781
0.326156
0.326497
0.326803
0.327072
0.327305
0.327501
0.327664
0.327796
0.327902
0.327984
0.328046
0.328093
0.328127
0.328151
0.328169
0.328181
0.328189
0.328194
0.328197
0.328199
0.3282
0.328199
0.328199
0.328196
0.328197
0.310368
0.328195
0.328181
0.328194
0.328175
0.328192
0.328167
0.328189
0.328153
0.328157
0.328186
0.328182
0.328144
0.32814
0.32815
0.328158
0.328166
0.328172
0.328178
0.328183
0.328187
0.32819
0.328193
0.328196
0.328197
0.328199
0.328199
0.328199
0.328198
0.328197
0.328193
0.328188
0.32818
0.328169
0.328152
0.328129
0.328098
0.328056
0.328002
0.32793
0.32784
0.327726
0.327586
0.327417
0.327217
0.326984
0.326716
0.326412
0.326075
0.325705
0.325303
0.324874
0.324418
0.32394
0.323443
0.322929
0.3224
0.321859
0.32131
0.320754
0.320194
0.319631
0.319067
0.318502
0.317938
0.317376
0.316817
0.316263
0.315714
0.315171
0.314634
0.314106
0.313588
0.313081
0.312587
0.312107
0.311644
0.311199
0.310775
0.310372
0.309992
0.309981
0.30997
0.309962
0.309957
0.309953
0.309952
0.309953
0.309957
0.309964
0.309973
0.309984
0.31038
0.310787
0.311215
0.311663
0.312129
0.312611
0.313107
0.313616
0.314135
0.314664
0.315201
0.315745
0.316295
0.316851
0.31741
0.317972
0.318536
0.319101
0.319666
0.32023
0.320791
0.321348
0.321898
0.322441
0.322972
0.323491
0.323993
0.324475
0.324936
0.32537
0.325777
0.326152
0.326493
0.326798
0.327066
0.327297
0.327494
0.327657
0.327789
0.327895
0.327978
0.328042
0.328089
0.328124
0.328149
0.328167
0.32818
0.328188
0.328193
0.328197
0.328198
0.328199
0.328199
0.328198
0.328196
0.328194
0.309997
0.328192
0.328193
0.328176
0.328191
0.328168
0.328188
0.328159
0.328185
0.328147
0.328181
0.328128
0.328133
0.328176
0.309637
0.309625
0.309614
0.309605
0.309598
0.309594
0.309592
0.309593
0.309596
0.309603
0.309612
0.309624
0.309638
0.310012
0.310393
0.310798
0.311225
0.311672
0.312137
0.312618
0.313114
0.313622
0.314141
0.314669
0.315205
0.315749
0.316299
0.316853
0.317412
0.317974
0.318538
0.319103
0.319668
0.320231
0.320792
0.321348
0.321898
0.32244
0.322972
0.323489
0.32399
0.324473
0.324933
0.325367
0.325772
0.326147
0.326486
0.32679
0.327057
0.327289
0.327485
0.327649
0.327782
0.327889
0.327973
0.328037
0.328086
0.328122
0.328147
0.328166
0.328179
0.328187
0.328193
0.328196
0.328198
0.328198
0.328198
0.328197
0.328195
0.328193
0.32819
0.328188
0.328187
0.309655
0.328115
0.32811
0.328123
0.328135
0.328145
0.328154
0.328162
0.328169
0.328175
0.328181
0.328185
0.328189
0.328192
0.328194
0.328196
0.328198
0.328199
0.328199
0.328198
0.328196
0.328193
0.328188
0.32818
0.328168
0.328152
0.328129
0.328098
0.328057
0.328002
0.32793
0.32784
0.327726
0.327586
0.327417
0.327217
0.326983
0.326715
0.326411
0.326074
0.325704
0.325302
0.324872
0.324417
0.323938
0.323441
0.322927
0.322398
0.321859
0.32131
0.320754
0.320195
0.319632
0.319067
0.318502
0.317939
0.317378
0.316819
0.316265
0.315716
0.315174
0.314638
0.314111
0.313594
0.313088
0.312594
0.312116
0.311654
0.31121
0.310786
0.310384
0.310006
0.309652
0.32819
0.328169
0.328182
0.328184
0.328187
0.328161
0.328184
0.32815
0.32818
0.328136
0.328176
0.32812
0.32817
0.328095
0.328101
0.309673
0.310028
0.310408
0.310812
0.311237
0.311683
0.312147
0.312627
0.313121
0.313629
0.314147
0.314674
0.31521
0.315753
0.316302
0.316856
0.317415
0.317976
0.31854
0.319105
0.319669
0.320232
0.320793
0.321349
0.321898
0.32244
0.32297
0.323487
0.323988
0.32447
0.324929
0.325362
0.325766
0.326139
0.326478
0.326781
0.327048
0.32728
0.327476
0.32764
0.327775
0.327883
0.327968
0.328033
0.328082
0.328119
0.328145
0.328164
0.328177
0.328186
0.328192
0.328195
0.328197
0.328198
0.328197
0.328196
0.328194
0.328192
0.328189
0.328185
0.32818
0.328088
0.328104
0.328117
0.32813
0.32814
0.32815
0.328159
0.328166
0.328172
0.328178
0.328183
0.328187
0.32819
0.328193
0.328195
0.328197
0.328198
0.328198
0.328197
0.328196
0.328193
0.328188
0.32818
0.328168
0.328152
0.328129
0.328098
0.328057
0.328002
0.32793
0.32784
0.327726
0.327586
0.327417
0.327217
0.326983
0.326714
0.326411
0.326074
0.325703
0.325302
0.324872
0.324416
0.323938
0.32344
0.322925
0.322397
0.321858
0.32131
0.320755
0.320195
0.319632
0.319068
0.318504
0.317941
0.31738
0.316822
0.316268
0.31572
0.315178
0.314643
0.314117
0.313601
0.313095
0.312603
0.312126
0.311664
0.311222
0.310799
0.310399
0.310021
0.309669
0.309341
0.309323
0.309307
0.309293
0.309281
0.309272
0.309264
0.30926
0.309257
0.309258
0.309261
0.309268
0.309278
0.30929
0.309305
0.309323
0.328072
0.309344
0.328177
0.328174
0.328078
0.328186
0.328162
0.30904
0.309018
0.308998
0.308982
0.308968
0.308958
0.308951
0.308948
0.308947
0.30895
0.308955
0.308963
0.308974
0.308987
0.309002
0.309019
0.309038
0.328179
0.328183
0.328152
0.328053
0.328045
0.328064
0.328081
0.328097
0.328111
0.328124
0.328135
0.328146
0.328154
0.328162
0.328169
0.328175
0.32818
0.328185
0.328188
0.328191
0.328194
0.328196
0.328197
0.328197
0.328197
0.328195
0.328192
0.328187
0.32818
0.328168
0.328152
0.328129
0.328098
0.328057
0.328002
0.327931
0.32784
0.327726
0.327586
0.327417
0.327217
0.326983
0.326714
0.326411
0.326073
0.325703
0.325302
0.324872
0.324416
0.323938
0.32344
0.322926
0.322398
0.321858
0.32131
0.320756
0.320196
0.319634
0.31907
0.318506
0.317943
0.317383
0.316826
0.316273
0.315725
0.315183
0.314649
0.314124
0.313608
0.313104
0.312613
0.312136
0.311676
0.311235
0.310813
0.310414
0.310038
0.309687
0.309361
0.30906
0.328168
0.328171
0.328179
0.328139
0.328175
0.328124
0.328169
0.328106
0.328162
0.328084
0.32806
0.328025
0.328033
0.327938
0.327971
0.309064
0.309366
0.309694
0.310047
0.310425
0.310827
0.311251
0.311695
0.312158
0.312636
0.31313
0.313636
0.314153
0.31468
0.315215
0.315757
0.316306
0.316859
0.317417
0.317979
0.318542
0.319106
0.31967
0.320233
0.320793
0.321349
0.321898
0.322439
0.322969
0.323486
0.323985
0.324465
0.324923
0.325356
0.32576
0.326131
0.326469
0.326773
0.327039
0.32727
0.327467
0.327632
0.327768
0.327877
0.327963
0.328029
0.328079
0.328116
0.328143
0.328163
0.328176
0.328185
0.328191
0.328195
0.328196
0.328197
0.328196
0.328195
0.328193
0.32819
0.328187
0.328183
0.328178
0.328172
0.328165
0.30876
0.328161
0.328157
0.336918
0.308786
0.328181
0.328153
0.308736
0.308715
0.308698
0.308683
0.308672
0.308665
0.308662
0.308661
0.308664
0.30867
0.308679
0.30869
0.308704
0.30872
0.308738
0.308759
0.308783
0.328173
0.328178
0.328141
0.327962
0.328017
0.328037
0.328057
0.328074
0.32809
0.328105
0.328118
0.32813
0.328141
0.32815
0.328158
0.328166
0.328172
0.328178
0.328182
0.328186
0.32819
0.328192
0.328194
0.328196
0.328196
0.328196
0.328195
0.328192
0.328187
0.328179
0.328168
0.328152
0.328129
0.328098
0.328057
0.328002
0.327931
0.32784
0.327726
0.327586
0.327417
0.327217
0.326983
0.326714
0.326411
0.326073
0.325703
0.325302
0.324872
0.324416
0.323938
0.32344
0.322926
0.322398
0.321859
0.321311
0.320757
0.320198
0.319636
0.319072
0.318509
0.317947
0.317387
0.31683
0.316278
0.31573
0.31519
0.314656
0.314132
0.313617
0.313114
0.312624
0.312149
0.31169
0.311249
0.310829
0.310431
0.310057
0.309707
0.309383
0.309083
0.308808
0.328164
0.328173
0.328127
0.328148
0.328152
0.328168
0.32811
0.328161
0.328089
0.328153
0.328066
0.32804
0.328011
0.327947
0.308503
0.308531
0.327891
0.327862
0.308814
0.30909
0.30939
0.309715
0.310067
0.310443
0.310843
0.311266
0.311709
0.31217
0.312648
0.31314
0.313645
0.314161
0.314687
0.315221
0.315762
0.31631
0.316863
0.31742
0.317981
0.318544
0.319108
0.319672
0.320234
0.320794
0.321349
0.321898
0.322438
0.322968
0.323483
0.323981
0.324461
0.324919
0.32535
0.325752
0.326123
0.326461
0.326763
0.32703
0.327261
0.327459
0.327625
0.327762
0.327871
0.327958
0.328025
0.328076
0.328114
0.328141
0.328161
0.328175
0.328184
0.32819
0.328194
0.328196
0.328196
0.328195
0.328194
0.328192
0.328189
0.328185
0.32818
0.328175
0.328169
0.328162
0.328153
0.328144
0.327861
0.327913
0.328138
0.328133
0.335809
0.328176
0.328142
0.308478
0.308456
0.308437
0.308421
0.30841
0.308402
0.308398
0.308397
0.308401
0.308407
0.308416
0.308428
0.308443
0.30846
0.30848
0.308503
0.308528
0.308556
0.328167
0.328171
0.328129
0.327634
0.327986
0.328008
0.328029
0.328049
0.328067
0.328083
0.328098
0.328112
0.328125
0.328136
0.328145
0.328154
0.328162
0.328169
0.328175
0.32818
0.328184
0.328188
0.328191
0.328193
0.328195
0.328195
0.328195
0.328194
0.328191
0.328186
0.328179
0.328168
0.328152
0.328129
0.328098
0.328057
0.328002
0.327931
0.32784
0.327726
0.327586
0.327417
0.327217
0.326983
0.326714
0.326411
0.326074
0.325703
0.325302
0.324872
0.324417
0.323939
0.323441
0.322927
0.322399
0.32186
0.321313
0.320758
0.3202
0.319638
0.319075
0.318512
0.31795
0.317391
0.316835
0.316283
0.315737
0.315197
0.314665
0.314141
0.313627
0.313125
0.312636
0.312162
0.311704
0.311265
0.310846
0.31045
0.310077
0.309729
0.309407
0.309109
0.308836
0.308585
0.328156
0.328166
0.328113
0.328142
0.32816
0.328093
0.328121
0.328126
0.328152
0.328071
0.328142
0.328045
0.328017
0.327986
0.308267
0.308296
0.327954
0.32792
0.334929
0.327887
0.308561
0.308592
0.308843
0.309117
0.309415
0.309739
0.310088
0.310463
0.310861
0.311282
0.311724
0.312183
0.31266
0.31315
0.313654
0.314169
0.314694
0.315227
0.315768
0.316315
0.316867
0.317424
0.317984
0.318546
0.31911
0.319673
0.320236
0.320795
0.32135
0.321898
0.322438
0.322966
0.32348
0.323979
0.324459
0.324914
0.325343
0.325746
0.326116
0.326452
0.326754
0.327021
0.327253
0.327452
0.327619
0.327756
0.327866
0.327953
0.328021
0.328073
0.328111
0.328139
0.32816
0.328174
0.328183
0.328189
0.328193
0.328195
0.328195
0.328194
0.328193
0.32819
0.328187
0.328183
0.328178
0.328172
0.328166
0.328158
0.32815
0.32814
0.328129
0.328116
0.343973
0.328108
0.328103
0.328524
0.327576
0.328169
0.32813
0.30824
0.308216
0.308196
0.30818
0.308167
0.308159
0.308155
0.308154
0.308157
0.308163
0.308173
0.308186
0.308202
0.308221
0.308242
0.308267
0.308294
0.308323
0.308355
0.328159
0.328164
0.328114
0.327621
0.327651
0.327951
0.327976
0.327999
0.328021
0.328041
0.328059
0.328076
0.328092
0.328106
0.328119
0.32813
0.328141
0.32815
0.328158
0.328165
0.328172
0.328177
0.328182
0.328186
0.328189
0.328191
0.328193
0.328194
0.328194
0.328193
0.328191
0.328186
0.328179
0.328168
0.328152
0.328129
0.328098
0.328057
0.328002
0.327931
0.32784
0.327726
0.327586
0.327417
0.327217
0.326983
0.326715
0.326411
0.326074
0.325704
0.325302
0.324873
0.324417
0.323939
0.323442
0.322928
0.3224
0.321862
0.321314
0.320761
0.320202
0.319641
0.319079
0.318516
0.317955
0.317396
0.316841
0.31629
0.315744
0.315205
0.314674
0.314151
0.313638
0.313137
0.312649
0.312176
0.31172
0.311282
0.310865
0.31047
0.310099
0.309753
0.309433
0.309137
0.308866
0.308617
0.308388
0.328146
0.328158
0.328096
0.328131
0.328151
0.328075
0.328113
0.328141
0.32805
0.328087
0.328093
0.32813
0.328023
0.327992
0.308048
0.30808
0.32796
0.327926
0.327892
0.32786
0.308328
0.308361
0.308625
0.308874
0.309146
0.309442
0.309764
0.310111
0.310484
0.310881
0.3113
0.31174
0.312198
0.312673
0.313162
0.313665
0.314178
0.314702
0.315234
0.315774
0.31632
0.316872
0.317428
0.317987
0.318549
0.319112
0.319675
0.320237
0.320796
0.321351
0.321899
0.322437
0.322965
0.32348
0.323978
0.324454
0.324909
0.32534
0.325742
0.32611
0.326445
0.326747
0.327014
0.327248
0.327447
0.327613
0.32775
0.327861
0.327949
0.328018
0.32807
0.328109
0.328138
0.328158
0.328173
0.328182
0.328188
0.328192
0.328194
0.328194
0.328193
0.328191
0.328188
0.328185
0.328181
0.328176
0.32817
0.328163
0.328155
0.328146
0.328135
0.328124
0.328111
0.328097
0.328081
0.327831
0.328071
0.328064
0.327831
0.308396
0.328162
0.328115
0.30802
0.307995
0.307973
0.307956
0.307942
0.307933
0.307928
0.307927
0.307931
0.307937
0.307948
0.307961
0.307978
0.307999
0.308022
0.308047
0.308076
0.308107
0.308141
0.308176
0.32815
0.328156
0.328098
0.32786
0.327888
0.327916
0.327942
0.327968
0.327991
0.328013
0.328033
0.328052
0.328069
0.328085
0.3281
0.328113
0.328125
0.328136
0.328145
0.328154
0.328162
0.328168
0.328174
0.328179
0.328183
0.328187
0.32819
0.328192
0.328193
0.328193
0.328193
0.32819
0.328185
0.328178
0.328167
0.328151
0.328129
0.328098
0.328057
0.328002
0.327931
0.32784
0.327726
0.327586
0.327418
0.327217
0.326983
0.326715
0.326412
0.326074
0.325704
0.325303
0.324873
0.324418
0.32394
0.323443
0.322929
0.322402
0.321864
0.321317
0.320763
0.320205
0.319645
0.319083
0.318521
0.31796
0.317402
0.316847
0.316297
0.315752
0.315214
0.314684
0.314162
0.313651
0.313151
0.312664
0.312192
0.311737
0.311301
0.310885
0.310492
0.310123
0.309779
0.30946
0.309167
0.308898
0.308651
0.308424
0.308214
0.328135
0.328149
0.328078
0.328118
0.32814
0.328054
0.327831
0.328099
0.328129
0.328027
0.328077
0.328115
0.327997
0.307844
0.307877
0.328046
0.328052
0.327965
0.327931
0.327896
0.327861
0.32783
0.308113
0.308148
0.308184
0.308432
0.308659
0.308907
0.309177
0.309471
0.309791
0.310136
0.310507
0.310902
0.311319
0.311757
0.312213
0.312687
0.313175
0.313676
0.314189
0.314711
0.315242
0.315781
0.316327
0.316877
0.317433
0.317991
0.318553
0.319115
0.319678
0.320239
0.320798
0.321352
0.321899
0.322438
0.322965
0.323479
0.323976
0.324453
0.324908
0.325337
0.325737
0.326106
0.326441
0.326743
0.327011
0.327244
0.327442
0.327608
0.327746
0.327857
0.327946
0.328015
0.328068
0.328107
0.328136
0.328157
0.328171
0.328181
0.328187
0.328191
0.328193
0.328193
0.328192
0.32819
0.328187
0.328183
0.328178
0.328173
0.328167
0.328159
0.328151
0.328141
0.328131
0.328119
0.328106
0.328091
0.328075
0.328058
0.328039
0.328026
0.327799
0.328019
0.327801
0.308222
0.328153
0.328099
0.307814
0.307788
0.307765
0.307746
0.307732
0.307722
0.307717
0.307715
0.307719
0.307726
0.307737
0.307751
0.307769
0.307791
0.307815
0.307843
0.307873
0.307906
0.307941
0.307979
0.308017
0.328139
0.328146
0.328079
0.327858
0.327885
0.327911
0.327936
0.327961
0.327984
0.328005
0.328026
0.328045
0.328062
0.328078
0.328093
0.328107
0.328119
0.328131
0.328141
0.32815
0.328158
0.328165
0.328171
0.328176
0.328181
0.328185
0.328188
0.32819
0.328192
0.328192
0.328192
0.328189
0.328185
0.328178
0.328167
0.328151
0.328129
0.328098
0.328057
0.328002
0.327931
0.32784
0.327726
0.327586
0.327418
0.327217
0.326984
0.326715
0.326412
0.326075
0.325705
0.325304
0.324874
0.324419
0.323941
0.323444
0.322931
0.322404
0.321866
0.321319
0.320766
0.320209
0.319649
0.319087
0.318526
0.317966
0.317409
0.316855
0.316305
0.315761
0.315224
0.314695
0.314174
0.313664
0.313165
0.31268
0.312209
0.311756
0.311321
0.310907
0.310516
0.310148
0.309806
0.30949
0.309198
0.308931
0.308686
0.308461
0.308252
0.308057
0.328123
0.328138
0.328057
0.32783
0.327802
0.328104
0.328127
0.32803
0.328083
0.328115
0.328001
0.307652
0.307686
0.328059
0.328099
0.328032
0.327969
0.327935
0.327998
0.328004
0.327899
0.327863
0.327829
0.327797
0.307912
0.307948
0.307986
0.308025
0.30826
0.308469
0.308695
0.308941
0.309209
0.309501
0.309819
0.310163
0.310531
0.310924
0.311339
0.311776
0.312231
0.312702
0.313189
0.313689
0.3142
0.314721
0.315252
0.31579
0.316334
0.316884
0.317438
0.317996
0.318557
0.319118
0.31968
0.320241
0.320799
0.321353
0.3219
0.322439
0.322966
0.323478
0.323975
0.324453
0.324907
0.325335
0.325735
0.326104
0.326439
0.326742
0.327008
0.32724
0.327438
0.327606
0.327743
0.327855
0.327944
0.328013
0.328066
0.328106
0.328135
0.328156
0.328171
0.32818
0.328187
0.32819
0.328192
0.328192
0.32819
0.328188
0.328185
0.328181
0.328176
0.32817
0.328163
0.328156
0.328147
0.328137
0.328126
0.328114
0.3281
0.328085
0.328069
0.328051
0.328033
0.328012
0.327991
0.327975
0.32777
0.327968
0.327767
0.308065
0.328143
0.32808
0.30762
0.307593
0.307568
0.307548
0.307533
0.307523
0.307517
0.307515
0.307518
0.307525
0.307537
0.307552
0.307572
0.307594
0.30762
0.30765
0.307681
0.307716
0.307753
0.307791
0.307831
0.307872
0.328127
0.328135
0.328058
0.327829
0.327855
0.32788
0.327906
0.32793
0.327954
0.327976
0.327998
0.328018
0.328037
0.328055
0.328072
0.328087
0.328101
0.328114
0.328125
0.328136
0.328145
0.328154
0.328161
0.328168
0.328174
0.328179
0.328183
0.328186
0.328189
0.328191
0.328191
0.328191
0.328189
0.328184
0.328177
0.328166
0.328151
0.328128
0.328098
0.328056
0.328002
0.327931
0.32784
0.327726
0.327587
0.327418
0.327218
0.326984
0.326716
0.326413
0.326075
0.325705
0.325304
0.324875
0.32442
0.323943
0.323446
0.322933
0.322406
0.321868
0.321322
0.32077
0.320213
0.319653
0.319092
0.318532
0.317972
0.317416
0.316863
0.316314
0.315771
0.315235
0.314707
0.314187
0.313678
0.313181
0.312697
0.312228
0.311776
0.311343
0.31093
0.310541
0.310175
0.309835
0.30952
0.309231
0.308966
0.308723
0.308499
0.308292
0.308098
0.307913
0.327773
0.328109
0.328125
0.328033
0.327803
0.327803
0.328088
0.328113
0.328004
0.307468
0.307503
0.328065
0.328098
0.32808
0.328039
0.327972
0.327938
0.328011
0.327902
0.327982
0.327865
0.327945
0.327951
0.327829
0.327795
0.327763
0.307722
0.30776
0.307799
0.307839
0.30788
0.308105
0.3083
0.308507
0.308732
0.308976
0.309242
0.309533
0.309848
0.31019
0.310557
0.310948
0.311361
0.311796
0.312249
0.312719
0.313204
0.313703
0.314213
0.314733
0.315262
0.315799
0.316342
0.316891
0.317445
0.318002
0.318562
0.319123
0.319684
0.320244
0.320802
0.321355
0.321902
0.32244
0.322966
0.323479
0.323975
0.324452
0.324906
0.325334
0.325734
0.326102
0.326439
0.32674
0.327006
0.327238
0.327437
0.327604
0.327741
0.327853
0.327942
0.328011
0.328064
0.328104
0.328134
0.328155
0.32817
0.328179
0.328186
0.328189
0.328191
0.32819
0.328189
0.328186
0.328183
0.328179
0.328173
0.328167
0.32816
0.328152
0.328143
0.328132
0.328121
0.328108
0.328094
0.328079
0.328063
0.328045
0.328026
0.328006
0.327984
0.327962
0.327938
0.327921
0.327734
0.327739
0.327915
0.307921
0.328131
0.328059
0.307435
0.307406
0.307381
0.30736
0.307344
0.307332
0.307326
0.307324
0.307327
0.307334
0.307346
0.307362
0.307383
0.307407
0.307434
0.307465
0.307498
0.307534
0.307572
0.307611
0.307652
0.307694
0.307735
0.327744
0.328114
0.328122
0.327708
0.327715
0.328034
0.327775
0.327777
0.327778
0.327802
0.327827
0.327851
0.327876
0.3279
0.327924
0.327947
0.327969
0.327991
0.328011
0.32803
0.328048
0.328065
0.32808
0.328095
0.328108
0.32812
0.328131
0.328141
0.32815
0.328158
0.328165
0.328171
0.328176
0.328181
0.328184
0.328187
0.328189
0.32819
0.32819
0.328188
0.328184
0.328177
0.328166
0.32815
0.328128
0.328098
0.328056
0.328002
0.327931
0.32784
0.327726
0.327587
0.327418
0.327218
0.326984
0.326716
0.326413
0.326076
0.325706
0.325305
0.324876
0.324421
0.323944
0.323448
0.322935
0.322409
0.321871
0.321326
0.320774
0.320217
0.319658
0.319098
0.318538
0.31798
0.317424
0.316871
0.316324
0.315782
0.315247
0.31472
0.314201
0.313693
0.313197
0.312715
0.312247
0.311797
0.311365
0.310955
0.310567
0.310204
0.309865
0.309553
0.309265
0.309002
0.30876
0.308538
0.308332
0.308139
0.307955
0.307777
0.328094
0.32811
0.328006
0.30729
0.307326
0.328071
0.328096
0.328079
0.328045
0.327975
0.327941
0.328018
0.328059
0.327905
0.327988
0.327867
0.327958
0.327829
0.327927
0.327793
0.327891
0.327896
0.327759
0.327728
0.30754
0.307579
0.307619
0.30766
0.307701
0.307743
0.307784
0.307962
0.308146
0.30834
0.308547
0.308769
0.309012
0.309276
0.309565
0.309879
0.310219
0.310584
0.310973
0.311384
0.311817
0.312269
0.312737
0.313221
0.313718
0.314226
0.314745
0.315273
0.315809
0.316351
0.316899
0.317452
0.318009
0.318567
0.319128
0.319689
0.320248
0.320805
0.321357
0.321903
0.322441
0.322967
0.32348
0.323976
0.324452
0.324906
0.325334
0.325733
0.326102
0.326438
0.326739
0.327005
0.327237
0.327435
0.327602
0.32774
0.327852
0.32794
0.32801
0.328063
0.328103
0.328133
0.328154
0.328169
0.328179
0.328185
0.328188
0.328189
0.328189
0.328187
0.328185
0.328181
0.328176
0.328171
0.328164
0.328157
0.328148
0.328139
0.328128
0.328116
0.328103
0.328089
0.328073
0.328057
0.328039
0.328019
0.327999
0.327978
0.327955
0.327932
0.327908
0.327885
0.327867
0.327862
0.32784
0.3277
0.327718
0.328118
0.32782
0.327797
0.327677
0.327687
0.327748
0.327751
0.327754
0.327721
0.327727
0.327731
0.327695
0.327703
0.327709
0.32768
0.32767
0.327688
0.327659
0.327668
0.327657
0.327645
0.328035
0.307257
0.307226
0.3072
0.307178
0.307161
0.307149
0.307141
0.307139
0.307142
0.307149
0.307162
0.307179
0.3072
0.307225
0.307254
0.307286
0.307321
0.307358
0.307396
0.307437
0.307478
0.307519
0.307561
0.307602
0.327854
0.327878
0.327902
0.327926
0.327949
0.327971
0.327993
0.328013
0.328032
0.328051
0.328068
0.328083
0.328098
0.328111
0.328123
0.328134
0.328144
0.328153
0.328161
0.328168
0.328174
0.328179
0.328183
0.328186
0.328188
0.328188
0.328187
0.328184
0.328178
0.328168
0.328153
0.328132
0.328103
0.328062
0.328009
0.327939
0.32785
0.327739
0.327601
0.327434
0.327236
0.327005
0.326738
0.326437
0.326102
0.325734
0.325334
0.324907
0.324453
0.323977
0.323481
0.322969
0.322443
0.321906
0.321361
0.320809
0.320252
0.319694
0.319134
0.318574
0.318016
0.31746
0.316909
0.316362
0.31582
0.315285
0.314759
0.314241
0.313734
0.313238
0.312756
0.312289
0.311839
0.311409
0.310999
0.310612
0.310249
0.309911
0.309599
0.309312
0.309049
0.308808
0.308586
0.308381
0.308187
0.308003
0.307824
0.328099
0.328107
0.328008
0.307364
0.307404
0.307444
0.307486
0.307527
0.307568
0.307609
0.307648
0.327678
0.327696
0.327715
0.327735
0.327756
0.327778
0.327801
0.327824
0.327848
0.327871
0.327895
0.327918
0.32794
0.327962
0.327983
0.328004
0.328023
0.328041
0.328058
0.328074
0.328089
0.328102
0.328115
0.328126
0.328136
0.328146
0.328154
0.328161
0.328168
0.328173
0.328178
0.328182
0.328185
0.328188
0.328189
0.328189
0.328187
0.328183
0.328176
0.328165
0.32815
0.328128
0.328097
0.328056
0.328001
0.32793
0.32784
0.327726
0.327587
0.327418
0.327218
0.326985
0.326716
0.326414
0.326077
0.325707
0.325306
0.324877
0.324423
0.323946
0.32345
0.322937
0.322411
0.321875
0.321329
0.320778
0.320222
0.319664
0.319104
0.318545
0.317987
0.317432
0.316881
0.316334
0.315794
0.31526
0.314734
0.314217
0.31371
0.313215
0.312734
0.312268
0.311819
0.31139
0.310981
0.310595
0.310233
0.309897
0.309586
0.3093
0.309039
0.308799
0.308578
0.308373
0.30818
0.307996
0.307818
0.307642
0.328077
0.328094
0.328078
0.328052
0.327977
0.327943
0.328024
0.328058
0.307116
0.307153
0.327906
0.327995
0.328035
0.327868
0.327964
0.327829
0.327932
0.327791
0.327901
0.327755
0.327871
0.327722
0.327842
0.327692
0.327817
0.327667
0.327647
0.327661
0.327649
0.327631
0.327656
0.327644
0.328103
0.32764
0.327713
0.327636
0.327621
0.328008
0.327798
0.327822
0.327847
0.327872
0.327896
0.32792
0.327943
0.327965
0.327987
0.328007
0.328027
0.328045
0.328062
0.328078
0.328093
0.328107
0.328119
0.32813
0.328141
0.32815
0.328158
0.328165
0.328171
0.328176
0.328181
0.328184
0.328186
0.328187
0.328186
0.328183
0.328177
0.328167
0.328152
0.328131
0.328102
0.328062
0.328008
0.327939
0.32785
0.327738
0.327601
0.327434
0.327236
0.327004
0.326738
0.326437
0.326102
0.325734
0.325335
0.324907
0.324454
0.323978
0.323483
0.322971
0.322445
0.321909
0.321364
0.320813
0.320257
0.319699
0.31914
0.318581
0.318024
0.317469
0.316918
0.316372
0.315832
0.315299
0.314773
0.314257
0.313751
0.313257
0.312776
0.312311
0.311863
0.311434
0.311026
0.310641
0.310279
0.309944
0.309633