/*--------------------------------*- C++ -*----------------------------------*\
| =========                 |                                                 |
| \\      /  F ield         | OpenFOAM: The Open Source CFD Toolbox           |
|  \\    /   O peration     | Version:  2212                                  |
|   \\  /    A nd           | Website:  www.openfoam.com                      |
|    \\/     M anipulation  |                                                 |
\*---------------------------------------------------------------------------*/
FoamFile
{
    version     2.0;
    format      ascii;
    arch        "LSB;label=32;scalar=64";
    class       volVectorField;
    location    "0.03";
    object      U;
}
// * * * * * * * * * * * * * * * * * * * * * * * * * * * * * * * * * * * * * //

dimensions      [0 1 -1 0 0 0 0];

internalField   nonuniform List<vector> 
2308
(
(1.89786 4.71314 -1.01037e-15)
(-3.27066 -5.06214 0)
(-0.225593 -4.13546 7.19132e-17)
(1.57779 -2.7397 -3.54842e-16)
(-0.0696348 1.82777 0)
(0.573314 0.891501 -3.58665e-19)
(-2.84712 2.31731 5.99211e-20)
(-2.42292 2.29163 -4.91517e-16)
(-0.315787 2.39704 8.95144e-16)
(0.603583 4.89533 -1.18244e-16)
(0.125012 4.82855 2.1097e-16)
(-0.219094 4.81583 -3.10011e-16)
(-0.712122 4.82515 1.53388e-16)
(-1.10235 4.78767 -7.77328e-17)
(-1.373 4.71281 1.32446e-17)
(-1.55178 4.55128 1.09997e-16)
(-1.6738 4.30174 1.47096e-17)
(-1.80937 3.9725 3.40398e-17)
(-1.5896 4.21934 4.58284e-17)
(-1.40789 4.36644 3.39128e-18)
(-1.15962 4.45746 2.58705e-17)
(-0.842618 4.47301 -7.5506e-17)
(-0.487483 4.46228 9.70076e-17)
(-0.112866 4.42336 -4.46825e-17)
(0.475777 4.50659 -1.92048e-16)
(0.843606 4.5789 -9.13425e-17)
(1.00665 4.56265 4.67624e-17)
(1.39089 4.53276 -5.13383e-17)
(-2.1958 2.36811 0)
(-1.75168 3.98694 -3.14343e-16)
(1.36839 4.25356 2.73577e-18)
(1.22205 3.92663 7.01195e-19)
(0.974135 3.6411 -1.19687e-17)
(0.633964 3.48722 1.13207e-17)
(0.237574 3.5312 -1.20118e-17)
(-0.188169 3.78297 1.13335e-17)
(-0.602005 4.22862 -5.64659e-18)
(-0.952259 4.82987 5.65731e-18)
(-1.18678 5.54869 -5.63634e-18)
(-1.26484 6.36224 2.82994e-18)
(-1.18539 7.27246 5.64669e-18)
(-0.988211 8.27162 8.47012e-18)
(-0.738352 9.36403 -1.69846e-17)
(-0.497682 10.5648 1.13537e-17)
(-0.304835 11.8913 5.6712e-18)
(-2.20254 11.9416 -5.68923e-18)
(-2.06618 10.6247 5.67218e-18)
(-1.92196 9.44212 -8.4967e-18)
(-1.79332 8.33327 -9.211e-18)
(-1.66448 7.26818 1.4128e-17)
(-1.49131 6.24003 -2.82639e-18)
(-1.23492 5.29314 5.67561e-18)
(-0.888102 4.45341 1.43553e-18)
(-0.474887 3.78807 -8.49904e-18)
(-0.0398952 3.32641 -2.84507e-18)
(0.370378 3.10148 5.67476e-18)
(0.722909 3.11527 0)
(0.997144 3.35188 -7.0897e-19)
(1.17497 3.75107 -2.32487e-17)
(1.20839 4.2057 -8.01332e-17)
(1.09244 4.54693 9.44304e-17)
(0.990278 5.09637 9.75468e-17)
(0.527942 5.21397 1.11981e-16)
(0.13697 5.40316 1.09113e-19)
(-0.373666 5.44492 1.25562e-16)
(-0.796573 5.32162 -2.32839e-16)
(-1.08535 5.16949 -5.34465e-17)
(-1.35475 5.03688 0)
(-1.5506 4.87175 0)
(-1.65491 4.62166 0)
(-1.6838 4.26759 0)
(-0.173055 13.3354 -2.83e-18)
(-2.28241 13.4002 2.85155e-18)
(-1.75098 3.90464 -1.57922e-16)
(-1.38341 4.06962 -3.19214e-18)
(-0.980316 4.13538 1.25133e-17)
(-0.592569 4.10179 0)
(-0.208502 4.05611 -2.3983e-17)
(0.174001 4.06695 -2.34603e-17)
(0.563491 4.12596 1.17619e-17)
(0.884763 4.21544 4.71744e-17)
(1.12837 4.34376 0)
(1.29949 4.41532 7.17268e-20)
(1.32314 4.31358 8.71996e-20)
(1.18076 4.13615 -1.12927e-17)
(0.907774 3.96842 1.69593e-17)
(0.546663 3.89119 -1.67401e-20)
(0.144342 3.96697 -9.92059e-18)
(-0.249191 4.20913 0)
(-0.584802 4.58709 -1.41338e-18)
(-0.802311 5.06799 8.47395e-18)
(-0.851218 5.61405 -1.1299e-17)
(-0.70128 6.2329 3.58745e-21)
(-0.359247 6.96377 1.13122e-17)
(0.13242 7.84771 0)
(0.697449 8.89948 1.13149e-17)
(1.24752 10.1328 7.08233e-21)
(1.70042 11.5505 -5.67383e-18)
(-1.96162 3.64799 -1.34766e-16)
(2.00271 13.1344 -5.67003e-18)
(-1.8167 3.59373 1.37458e-16)
(-1.6438 3.85391 7.74911e-20)
(-4.17562 13.3213 -5.71042e-18)
(-3.89028 11.6959 7.13173e-18)
(-3.43685 10.3005 0)
(-2.90153 9.09598 -2.13737e-18)
(-2.37413 8.0107 4.96969e-18)
(-1.90687 6.96051 5.69677e-18)
(-1.49885 5.91261 -5.67962e-18)
(-1.11563 4.91357 0)
(-0.725238 4.02358 -1.4196e-18)
(-0.322883 3.33263 2.84731e-18)
(0.0741281 2.8875 6.36919e-21)
(0.42648 2.71711 -2.8502e-18)
(0.702399 2.81152 0)
(0.890039 3.13509 4.28069e-18)
(0.987741 3.62998 -1.70601e-17)
(0.992825 4.20651 -1.14096e-17)
(0.905354 4.76858 4.63671e-17)
(0.662342 5.28882 1.71957e-16)
(0.279057 5.58817 1.29727e-17)
(-0.15031 5.75467 1.23456e-16)
(-0.576038 5.75619 -5.57868e-17)
(-0.951808 5.65897 0)
(-1.24716 5.47099 0)
(-1.47418 5.23668 0)
(-1.6076 4.9472 1.84823e-16)
(-1.64254 4.57907 -2.14796e-16)
(-1.59458 4.12081 2.18917e-16)
(-2.49163 2.39109 -3.94843e-16)
(0.971158 0.0507853 0)
(0.0236736 1.20585 0)
(0.47833 0.667449 0)
(-2.08686 3.36632 3.15205e-16)
(-1.56019 3.55368 8.91726e-17)
(-1.24854 3.67499 5.25588e-21)
(-0.825449 3.73081 -1.51568e-18)
(-0.417864 3.71738 1.5061e-18)
(-0.0474285 3.6903 1.19437e-17)
(0.279645 3.71356 -2.35927e-17)
(0.591895 3.81207 2.04048e-21)
(0.839305 3.97033 0)
(1.02085 4.16321 5.20693e-17)
(1.15244 4.32446 3.42437e-17)
(1.17734 4.37572 -5.6471e-18)
(1.07198 4.33778 5.66654e-18)
(0.849658 4.27966 0)
(0.543468 4.26619 0)
(0.20841 4.34719 -7.10598e-19)
(-0.0871897 4.53279 0)
(-0.27205 4.78974 4.25165e-18)
(-0.28857 5.09104 -1.85645e-21)
(-0.0986016 5.42165 -2.8343e-18)
(0.303347 5.82118 0)
(0.900787 6.36339 -2.81995e-18)
(1.63806 7.1219 4.25133e-18)
(2.43752 8.14279 -7.08219e-18)
(3.20184 9.44815 0)
(3.82891 11.0196 -1.1366e-17)
(4.23965 12.8224 2.83891e-18)
(4.36235 14.7869 -3.19978e-21)
(2.10528 14.8129 0)
(-0.104829 14.8518 -1.42195e-18)
(-2.25678 14.9421 -4.62982e-18)
(-1.8815 2.38488 4.29261e-16)
(-4.19836 15.0699 3.57111e-19)
(-2.58542 2.89948 -1.23825e-15)
(-2.24114 3.51209 -2.8469e-16)
(-1.5741 3.36048 0)
(-1.06241 3.58796 4.1058e-16)
(-0.87184 1.92523 -8.5886e-16)
(-1.77535 3.22758 5.62026e-17)
(-1.47814 3.60408 -3.31067e-16)
(4.11931 16.7203 -2.85102e-18)
(1.97592 16.4316 -2.8471e-18)
(-0.0955453 16.3106 -3.56227e-19)
(-2.09382 16.4498 5.70294e-18)
(-3.89934 16.8343 3.57527e-19)
(-5.46851 17.4305 0)
(-5.84906 15.2311 2.86559e-18)
(-5.76284 13.0947 5.73028e-18)
(-5.30484 11.1872 -1.42482e-18)
(-4.59326 9.60562 -5.72036e-18)
(-3.74455 8.33646 -6.42889e-18)
(-2.88069 7.2952 8.57172e-18)
(-2.1117 6.34866 2.8696e-18)
(-1.48941 5.40317 -5.72693e-18)
(-0.997135 4.46378 4.29233e-18)
(-0.590819 3.606 -1.2499e-18)
(-0.235981 2.92895 0)
(0.0720366 2.5194 0)
(0.324046 2.41713 0)
(0.505314 2.59893 5.75148e-18)
(0.610713 3.01328 -2.88145e-18)
(0.645339 3.5995 -4.39998e-21)
(0.610955 4.27215 -2.32474e-17)
(0.500578 4.93319 0)
(0.297718 5.49226 -2.44279e-17)
(0.0131364 5.88343 2.52903e-17)
(-0.319375 6.08289 5.20085e-17)
(-0.689043 6.08252 2.65683e-17)
(-1.01832 5.93705 1.05929e-16)
(-1.27158 5.67847 -1.04898e-16)
(-1.44224 5.34111 0)
(-1.51703 4.9285 2.60235e-17)
(-1.49547 4.42902 -5.22546e-17)
(-1.39384 3.86064 -1.05941e-16)
(-2.59322 2.79466 5.08016e-17)
(1.89368 7.71597 0)
(0.224774 1.37904 -1.90562e-19)
(-3.16712 2.5246 5.45439e-16)
(-3.31627 2.20001 -1.16402e-16)
(-3.34279 2.19201 1.32447e-16)
(-3.19607 2.34131 -2.51381e-17)
(-2.95684 2.53654 4.92845e-17)
(-2.64293 2.73866 -2.40582e-17)
(-2.23614 2.9584 0)
(-1.75417 3.08978 -2.3312e-17)
(-1.2708 3.21621 -2.36478e-17)
(-0.802931 3.28098 0)
(-0.386275 3.31707 0)
(-0.0424005 3.34998 1.48112e-18)
(0.224358 3.42445 -1.324e-17)
(0.443665 3.56353 0)
(0.634213 3.76181 0)
(0.794548 3.997 -1.74483e-17)
(0.921334 4.21948 -1.14911e-17)
(0.990067 4.36989 2.28878e-17)
(0.96993 4.4447 5.71406e-18)
(0.858848 4.48061 1.42469e-18)
(0.684064 4.51939 5.69842e-18)
(0.503553 4.57782 -6.42002e-18)
(0.39085 4.66364 0)
(0.419807 4.7513 -2.8486e-18)
(0.64323 4.83249 0)
(1.08307 4.93307 0)
(1.73241 5.12019 0)
(2.55698 5.49499 -1.13823e-17)
(3.50195 6.1536 0)
(4.49479 7.15981 -6.40262e-18)
(5.44123 8.55314 1.06506e-18)
(6.22624 10.323 2.23713e-17)
(6.74003 12.4153 0)
(6.87548 14.7575 -1.13811e-17)
(6.51248 17.1346 1.77273e-19)
(-0.0180138 -7.97854 0)
(-2.05886 3.46474 6.73403e-16)
(1.26422 3.43803 1.08259e-15)
(1.59304 -2.11345 0)
(0.972451 -5.20363 -3.27015e-16)
(-2.43429 3.59678 1.41009e-15)
(-1.31065 3.0393 -1.9633e-19)
(-2.23696 2.92462 1.06859e-16)
(-6.88954 18.1014 -3.59637e-19)
(-7.21519 15.3325 -2.87302e-18)
(-7.02115 12.7211 2.87582e-18)
(-6.41285 10.4554 0)
(-5.52547 8.65081 0)
(-4.47088 7.28843 3.59529e-19)
(-3.38535 6.28497 -1.43529e-18)
(-2.39862 5.48136 -5.01762e-18)
(-1.60802 4.71442 3.57887e-19)
(-1.0348 3.93068 -7.40764e-19)
(-0.641138 3.18256 -8.82576e-19)
(-0.36699 2.58869 3.95841e-18)
(-0.166904 2.25282 3.6604e-19)
(-0.0148336 2.215 -2.88261e-18)
(0.0930522 2.46148 0)
(0.155134 2.9391 1.15733e-17)
(0.174498 3.58316 -3.18176e-21)
(0.153912 4.31323 5.85999e-17)
(0.0855383 5.03888 -4.74716e-17)
(-0.0399535 5.66598 0)
(-0.227137 6.11158 4.9684e-17)
(-0.454254 6.33191 -1.52423e-16)
(-0.706376 6.32018 7.73062e-17)
(-0.950448 6.12743 1.02844e-16)
(-1.14381 5.79499 -3.25848e-20)
(-1.25992 5.35131 -1.02024e-16)
(-1.28706 4.81657 1.02043e-16)
(-1.22949 4.19852 1.02666e-16)
(-1.08186 3.50016 -1.02414e-16)
(-1.21056 3.23187 -2.10486e-16)
(-0.514575 4.0879 -3.6618e-19)
(-1.81317 3.09015 1.46564e-19)
(-3.53663 2.14416 -9.61834e-17)
(-3.72646 2.05951 -1.27476e-17)
(-3.74498 1.98536 -3.77308e-17)
(-3.58093 2.05237 -1.23341e-17)
(-3.29097 2.16125 0)
(-2.90607 2.29573 2.39087e-17)
(-2.44619 2.44135 -1.18178e-17)
(-1.93119 2.57137 -1.17646e-17)
(-1.40488 2.69931 5.91037e-18)
(-0.924917 2.80868 5.92429e-18)
(-0.518374 2.9162 1.18367e-17)
(-0.206071 3.03236 0)
(0.0167878 3.17268 1.17505e-17)
(0.188484 3.35082 -1.15137e-17)
(0.339374 3.57028 -1.82465e-19)
(0.484157 3.81421 -3.48433e-17)
(0.636002 4.05309 2.8841e-18)
(0.779603 4.24952 -1.43868e-17)
(0.886367 4.39136 0)
(0.947796 4.48686 -4.64967e-18)
(0.982359 4.546 3.60868e-19)
(1.03579 4.56061 6.43813e-18)
(1.1729 4.52389 0)
(1.45532 4.4274 0)
(1.92689 4.29057 -1.78823e-19)
(2.60579 4.1647 -5.53852e-18)
(3.47558 4.15299 5.72201e-18)
(4.49994 4.3755 7.13138e-18)
(5.64144 4.94048 -1.42371e-18)
(6.83753 5.93746 4.26293e-18)
(7.99443 7.43307 -1.42522e-18)
(8.98621 9.42657 -1.13769e-17)
(9.65154 11.8674 1.1402e-17)
(9.80661 14.6867 2.55984e-17)
(9.27945 17.6401 1.13772e-17)
(7.92482 20.2714 0)
(5.57852 19.1724 -5.85228e-18)
(3.49029 18.3307 9.82246e-21)
(1.62238 17.7647 6.42441e-18)
(-0.129576 17.5285 2.13785e-18)
(-1.77197 17.744 -2.85664e-18)
(-3.24092 18.4044 5.71951e-18)
(-4.55869 19.4691 -5.72656e-18)
(-5.91446 20.7868 -2.87091e-18)
(0.931514 4.05305 -4.02211e-16)
(0.209297 -2.67866 -9.30183e-17)
(1.29908 -2.21411 -1.62764e-16)
(-1.57522 3.99502 -6.85361e-16)
(1.26445 5.89109 -3.39191e-16)
(-0.484392 -3.68023 9.85028e-17)
(-0.854783 2.76084 0)
(-0.954426 2.55849 4.21225e-16)
(-0.280639 4.81727 9.97808e-16)
(-0.919512 4.90861 4.0911e-16)
(1.40622 7.43394 -4.10916e-16)
(-0.565978 1.69226 8.78132e-16)
(-3.63834 2.27971 0)
(-3.92399 1.92155 1.25196e-17)
(-4.00998 1.73533 -3.08559e-18)
(-3.88036 1.69441 -5.77732e-17)
(-3.58939 1.70936 1.20216e-17)
(-3.18605 1.77237 0)
(-2.7074 1.86596 -6.05195e-21)
(-2.18528 1.98964 -2.94631e-18)
(-1.66555 2.14173 0)
(-1.19965 2.31484 -5.896e-18)
(-0.816337 2.50939 -5.8964e-18)
(-0.52931 2.7176 0)
(-0.327169 2.9224 1.46371e-18)
(-0.176314 3.13002 -1.44841e-18)
(-0.0341387 3.34866 1.45746e-18)
(0.134176 3.5702 2.17963e-17)
(0.34351 3.78246 0)
(0.585029 3.96799 2.88584e-18)
(0.845992 4.11867 -1.44041e-18)
(1.11455 4.22604 3.60106e-19)
(1.40158 4.26891 1.0796e-18)
(1.73471 4.22108 -6.47798e-18)
(2.1586 4.05986 0)
(2.7155 3.79074 1.43761e-18)
(3.43765 3.44877 2.87246e-18)
(4.33134 3.12235 2.86925e-18)
(5.38218 2.93592 1.32135e-20)
(6.5808 3.00693 -1.4323e-18)
(7.91029 3.46187 -4.29679e-18)
(9.3272 4.42693 -2.86181e-18)
(10.7435 6.0036 -2.86285e-18)
(12.0186 8.23409 0)
(12.9476 11.1069 -1.14016e-17)
(13.2219 14.5132 -1.13877e-17)
(12.5137 18.1735 -8.52488e-18)
(10.559 21.5435 -1.56385e-17)
(7.39809 24.1517 7.10544e-18)
(5.75954 22.1858 -5.69022e-18)
(4.10873 20.5563 0)
(2.52652 19.3658 2.8557e-18)
(1.09191 18.6158 2.85665e-18)
(-0.166462 18.3427 -5.71336e-18)
(-1.25873 18.6967 5.72168e-18)
(-2.20383 19.6742 -3.42109e-21)
(-3.08026 21.2257 -2.86335e-18)
(-4.16323 23.2356 8.60205e-18)
(-5.93508 25.4671 -8.64711e-18)
(-7.69623 22.0858 1.44354e-18)
(-8.46612 18.6141 -1.07817e-18)
(-8.51559 15.2341 2.16311e-18)
(-8.07872 12.152 -7.18656e-18)
(-7.2966 9.53433 2.69432e-18)
(-6.27801 7.49877 0)
(-5.1045 6.03247 3.619e-19)
(-3.89359 5.0654 5.0491e-18)
(-2.78524 4.42058 -7.20733e-19)
(-1.89423 3.89867 1.80166e-18)
(-1.27809 3.36581 3.79926e-24)
(-0.915511 2.81155 7.27198e-19)
(-0.730797 2.33242 -3.60903e-19)
(-0.633152 2.05172 2.5306e-18)
(-0.564273 2.047 -8.67925e-18)
(-0.501344 2.325 -2.97019e-21)
(-0.442231 2.83546 5.81135e-18)
(-0.387469 3.51066 -5.83623e-18)
(-0.342299 4.27315 -4.69852e-17)
(-0.318107 5.03552 4.7426e-17)
(-0.328 5.70819 0)
(-0.378269 6.19978 -9.77793e-17)
(-0.473498 6.45285 7.4033e-17)
(-0.614164 6.44675 -7.53187e-17)
(-0.7632 6.21924 0)
(-0.880784 5.81789 0)
(-0.941908 5.27733 0)
(-0.927009 4.63203 -1.24788e-17)
(-0.833659 3.88976 4.55807e-20)
(-0.674949 3.06598 1.99129e-16)
(0.32329 4.50015 -4.49267e-16)
(-0.561031 2.04369 2.11048e-16)
(-0.697755 2.09719 -1.9853e-16)
(-2.72681 2.50543 2.52156e-17)
(-0.0887378 5.5216 4.79738e-16)
(-0.458959 5.30561 4.09236e-16)
(-1.10782 4.54772 -1.00407e-18)
(-1.57903 4.03441 -4.26694e-16)
(-1.11459 3.37976 -2.97182e-16)
(-3.23461 2.42643 -2.95112e-16)
(-3.08376 2.72995 1.06707e-16)
(-3.60294 2.27475 -2.47575e-17)
(-3.96917 1.80262 -4.88422e-17)
(-4.13244 1.48759 0)
(-4.07589 1.31751 4.82069e-17)
(-3.83508 1.22755 0)
(-3.45903 1.20756 0)
(-3.00236 1.25861 1.18057e-17)
(-2.51151 1.37492 2.94522e-18)
(-2.02936 1.56058 0)
(-1.59664 1.80041 5.88124e-18)
(-1.24009 2.07877 -5.88412e-21)
(-0.964676 2.36469 -4.79963e-21)
(-0.756394 2.62804 5.85253e-18)
(-0.589558 2.85756 6.58927e-18)
(-0.416368 3.04983 -6.5656e-18)
(-0.201488 3.21413 -1.20105e-17)
(0.0798482 3.36604 3.63292e-19)
(0.440946 3.5 -2.17413e-18)
(0.864455 3.60652 7.25326e-19)
(1.34399 3.67088 2.8932e-18)
(1.88297 3.65605 -2.16918e-18)
(2.49414 3.52251 2.88813e-18)
(3.19824 3.24251 -1.61025e-21)
(4.01663 2.82629 -7.20629e-18)
(4.9627 2.32071 2.88216e-18)
(6.03312 1.83798 2.8849e-18)
(7.23463 1.49139 -4.30135e-18)
(8.59261 1.39717 5.74534e-18)
(10.122 1.71369 5.74037e-18)
(11.8158 2.60428 0)
(13.614 4.20961 1.72021e-17)
(15.3733 6.62501 2.86549e-18)
(16.7813 9.88648 2.85807e-18)
(17.3311 13.9319 0)
(16.4209 18.4194 0)
(13.6752 22.6386 8.53994e-18)
(9.15644 26.0499 -7.38746e-21)
(3.20811 27.6556 -1.42499e-18)
(3.21352 25.2349 1.42042e-18)
(2.88577 22.8258 0)
(2.16947 20.8908 0)
(1.29551 19.5311 -1.42496e-18)
(0.469748 18.7265 4.2804e-18)
(-0.144214 18.5013 0)
(-0.510515 18.99 -2.86621e-18)
(-0.762671 20.3094 -2.86574e-18)
(-1.00524 22.3355 5.73297e-18)
(-1.5603 24.9575 -2.87261e-18)
(-2.94276 28.1034 8.64396e-18)
(-5.69348 31.5477 1.44922e-18)
(-8.95586 27.5675 1.44468e-18)
(-10.4361 22.9961 2.89079e-18)
(-10.6474 18.6463 0)
(-10.0943 14.687 -1.08339e-18)
(-9.16091 11.2365 -2.70376e-19)
(-8.05769 8.39004 1.62837e-18)
(-6.87166 6.19312 -3.58794e-19)
(-5.63555 4.64486 -7.20745e-19)
(-4.39434 3.71881 -5.77621e-18)
(-3.25618 3.24501 1.44554e-18)
(-2.33554 2.98489 -3.61673e-18)
(-1.70259 2.74382 1.8076e-18)
(-1.356 2.43617 -7.23203e-19)
(-1.22352 2.11329 0)
(-1.20159 1.89797 0)
(-1.20051 1.89915 0)
(-1.16834 2.15836 -2.90393e-18)
(-1.08955 2.64975 0)
(-0.97119 3.31411 5.20594e-21)
(-0.828171 4.07735 2.34713e-17)
(-0.679799 4.86048 -1.17976e-17)
(-0.55022 5.57127 2.39022e-17)
(-0.461559 6.10693 7.25628e-17)
(-0.423606 6.40474 -1.18664e-20)
(-0.435346 6.42673 -2.45871e-17)
(-0.470102 6.18928 -4.90661e-17)
(-0.513732 5.74385 9.74369e-17)
(-0.524008 5.13058 -4.89401e-17)
(-0.483628 4.39142 7.8335e-21)
(-0.381246 3.53644 2.43962e-17)
(-0.219927 2.59371 8.16911e-20)
(-0.454257 2.20321 -3.0322e-16)
(0.409466 5.49314 -4.6225e-16)
(1.06504 5.05638 8.70734e-16)
(-2.79168 -5.55704 0)
(-0.155338 1.37076 -2.07026e-16)
(-1.54587 3.95373 7.65402e-16)
(-0.859956 4.20368 -4.07195e-16)
(-0.436241 4.77565 -7.81373e-16)
(-0.261337 1.53188 -6.64556e-17)
(-2.88848 2.20207 -6.31963e-17)
(-2.17819 2.58389 -2.52335e-17)
(-0.290929 1.40011 1.55223e-19)
(0.19671 5.99545 -4.69868e-16)
(0.155453 5.40378 3.91219e-16)
(-2.96311 28.0873 -1.4233e-18)
(-1.37715 25.3849 -1.42198e-18)
(-0.358518 22.7867 0)
(-0.123195 20.765 -1.42383e-18)
(-0.301233 19.3897 1.42669e-18)
(-0.410572 18.6881 -1.42038e-18)
(-0.0923871 18.7112 1.42761e-18)
(0.48478 19.5868 2.85104e-18)
(1.23071 21.2829 -2.85745e-18)
(1.90692 23.6355 5.70726e-18)
(2.11942 26.7695 -8.60682e-18)
(1.34209 30.5756 0)
(-0.4804 35.0273 4.84453e-22)
(-3.79137 39.9035 0)
(-10.1662 34.7695 -8.67254e-18)
(-13.6485 29.102 2.89768e-18)
(-14.5422 23.1065 0)
(-13.767 17.8081 0)
(-12.2175 13.3473 7.24068e-19)
(-10.4789 9.71504 -9.05501e-20)
(-8.84 6.84567 0)
(-7.36653 4.68007 -3.62629e-19)
(-6.03399 3.17097 3.62509e-19)
(-4.80607 2.31589 1.44796e-18)
(-3.70526 2.00905 7.24284e-19)
(-2.81822 2.00963 1.44907e-18)
(-2.20575 2.06643 2.14438e-22)
(-1.88124 2.02421 -2.90057e-18)
(-1.7811 1.87669 7.22652e-19)
(-1.79901 1.7322 2.90274e-18)
(-1.83143 1.71965 7.29748e-19)
(-1.80552 1.9204 -1.45106e-18)
(-1.69357 2.34633 2.91317e-18)
(-1.50187 2.96016 -8.75717e-18)
(-1.25489 3.6977 -1.17063e-17)
(-0.986002 4.4813 5.89517e-18)
(-0.720926 5.2213 -1.18667e-17)
(-0.490065 5.8146 0)
(-0.313866 6.1654 -3.61121e-17)
(-0.206813 6.22691 7.30774e-17)
(-0.146616 6.00922 0)
(-0.111637 5.55259 0)
(-0.0639605 4.90267 0)
(0.0204199 4.09529 1.7996e-17)
(0.140784 3.15066 4.3385e-22)
(0.297142 2.09727 -7.06757e-20)
(-0.0138649 1.60236 -1.95327e-16)
(0.959811 1.224 -4.60129e-16)
(0.52141 6.32484 -6.96583e-19)
(0.861168 -4.78481 3.81624e-16)
(-0.130779 -6.88605 0)
(-3.33289 2.30763 -2.33082e-17)
(-3.84376 1.75678 0)
(-4.12266 1.30576 0)
(-4.17384 0.97234 1.1925e-17)
(-4.01964 0.752162 -2.37787e-17)
(-3.70858 0.630812 0)
(-3.31203 0.638118 1.18261e-17)
(-2.87988 0.746523 0)
(-2.45281 0.96085 -2.94166e-18)
(-2.06266 1.25403 2.93458e-18)
(-1.72736 1.59487 -1.46804e-17)
(-1.44675 1.93599 2.10173e-21)
(-1.20821 2.23468 -5.85588e-18)
(-0.987701 2.46671 1.17028e-17)
(-0.747622 2.62681 8.75514e-18)
(-0.457176 2.72647 -8.75265e-18)
(-0.0859607 2.77815 0)
(0.387268 2.80768 -2.4717e-21)
(0.95642 2.82948 -4.36055e-18)
(1.61547 2.81408 0)
(2.36022 2.71525 0)
(3.19416 2.48681 1.45202e-18)
(4.12296 2.09857 4.34404e-18)
(5.14689 1.56318 -2.89714e-18)
(6.26098 0.937329 2.88489e-18)
(7.46589 0.327036 -5.76831e-18)
(8.79509 -0.174458 -1.44138e-18)
(10.3063 -0.465583 -1.15338e-17)
(12.065 -0.352588 5.75572e-18)
(14.1275 0.33786 0)
(16.4953 1.81857 -1.15007e-17)
(19.0201 4.28866 -5.73629e-18)
(21.2226 7.88158 0)
(22.28 12.5179 5.71911e-18)
(21.2362 17.7157 1.58367e-20)
(17.6072 22.652 8.57995e-18)
(11.4329 26.8259 8.5388e-18)
(3.29895 28.876 0)
(-4.81576 29.675 -2.8413e-18)
(1.7158 5.6612 -4.29326e-16)
(1.04802 6.23285 -8.8243e-16)
(-0.155463 -5.9513 1.33689e-16)
(0.0943522 0.78897 -1.84241e-16)
(0.748662 6.2186 7.96466e-16)
(0.18717 0.627383 -1.84092e-19)
(-8.60191 43.9111 1.44668e-18)
(-16.5446 36.8104 7.23134e-18)
(-20.2502 29.2877 -5.79301e-18)
(-20.1891 21.8261 0)
(-17.8712 15.6638 0)
(-14.8526 10.9193 0)
(-11.9858 7.38059 0)
(-9.60728 4.76583 1.45301e-18)
(-7.73664 2.85478 -7.23488e-19)
(-6.26678 1.55347 3.62671e-19)
(-5.06357 0.868736 -2.17717e-18)
(-4.04099 0.753514 1.45179e-18)
(-3.22045 1.00048 7.25366e-19)
(-2.66308 1.33786 -1.08925e-18)
(-2.37089 1.5546 0)
(-2.29405 1.58164 1.85063e-22)
(-2.33054 1.50322 -7.25925e-19)
(-2.37266 1.4613 7.2775e-19)
(-2.33476 1.57597 1.45649e-18)
(-2.18787 1.90102 -1.63901e-18)
(-1.9314 2.43148 1.64071e-18)
(-1.59712 3.1217 -4.38464e-18)
(-1.22559 3.8956 -8.80033e-18)
(-0.851011 4.6574 5.88974e-18)
(-0.504271 5.29842 0)
(-0.220816 5.71608 -1.01289e-20)
(0.013672 5.83385 -3.60757e-17)
(0.191676 5.65824 3.00214e-17)
(0.318005 5.21391 -6.01169e-18)
(0.414311 4.5579 0)
(0.51099 3.72241 -5.93334e-18)
(0.638622 2.72357 8.19657e-17)
(0.790953 1.58789 -4.54846e-17)
(0.459722 0.967414 1.84626e-16)
(1.15256 0.785372 9.42841e-16)
(0.675437 6.80495 -7.84667e-19)
(-12.7448 26.9752 -7.13128e-19)
(-9.05031 25.5359 4.26414e-18)
(-5.93892 22.9592 7.10242e-19)
(-3.60814 20.3242 0)
(-2.33767 18.1983 -1.42188e-18)
(-1.5312 16.4758 1.42118e-18)
(-0.794528 15.0991 -2.13085e-18)
(0.123224 14.4454 -4.96762e-18)
(1.23603 15.0756 5.69491e-18)
(2.5836 16.8842 0)
(4.03027 19.7228 -2.85041e-18)
(5.53493 23.6412 8.57664e-18)
(6.07975 28.7276 -5.74154e-18)
(5.43889 34.9243 -2.87888e-18)
(4.15516 41.4796 4.31483e-18)
(2.20867 47.4893 -5.77571e-18)
(1.78252 0.927662 8.93156e-16)
(0.881439 5.07014 -3.64229e-16)
(0.37896 4.51168 3.70548e-16)
(-0.109436 4.06598 7.41373e-16)
(-0.581119 3.80859 3.52128e-16)
(-0.28061 1.546 -5.35369e-19)
(1.18205 0.195758 2.70865e-16)
(1.8716 2.68374 0)
(1.39154 -3.5294 0)
(-2.9391 2.37728 0)
(-3.57548 1.76916 5.90113e-18)
(-3.99006 1.17015 -1.189e-17)
(-4.1692 0.6679 4.15806e-21)
(-4.1277 0.290367 3.56299e-17)
(-3.91351 0.0629229 -2.37092e-17)
(-3.60505 0.0111856 9.4934e-21)
(-3.24863 0.101986 1.17761e-17)
(-2.88164 0.329099 -2.0587e-17)
(-2.53027 0.651686 2.95322e-18)
(-2.20432 1.02543 1.1747e-17)
(-1.90566 1.39212 -2.933e-18)
(-1.62014 1.69991 2.92497e-18)
(-1.32685 1.91245 -8.78376e-18)
(-0.997715 2.01996 2.92262e-18)
(-0.602843 2.03899 8.74884e-18)
(-0.119593 1.99549 -5.83071e-18)
(0.453569 1.92179 5.82845e-18)
(1.12735 1.83436 2.18331e-18)
(1.90311 1.71377 5.09109e-18)
(2.77442 1.51212 -6.5474e-18)
(3.73312 1.17834 4.36533e-18)
(4.78274 0.688165 -7.9864e-18)
(5.90715 0.0614061 -5.81017e-18)
(7.09521 -0.647242 5.79541e-18)
(8.36573 -1.37139 2.89145e-18)
(9.77401 -2.03429 -2.89382e-18)
(11.4145 -2.55351 0)
(13.4197 -2.74947 -5.77186e-18)
(15.9349 -2.41978 2.88168e-18)
(19.0405 -1.29005 -5.75117e-18)
(22.6031 0.942108 -8.60652e-18)
(26.041 4.52598 -5.73986e-18)
(28.0133 9.3075 -1.146e-17)
(27.0884 14.7199 2.85436e-18)
(22.6895 19.951 -2.86325e-18)
(14.6705 24.6075 -5.72532e-18)
(3.94721 27.1243 0)
(-6.32885 28.5678 0)
(-16.3257 25.6816 0)
(-0.0644696 -5.07173 0)
(0.254328 0.669953 -3.91994e-19)
(0.366656 0.599901 9.97068e-16)
(2.24828 6.20638 4.26556e-16)
(1.10259 7.16675 4.37601e-16)
(1.6152 7.00518 8.63231e-16)
(0.507079 1.10926 -4.61883e-16)
(0.226716 -5.93849 -1.14503e-16)
(0.501917 -8.74688 0)
(-0.0211646 1.35272 -5.25097e-16)
(0.578454 0.0727935 -2.14076e-16)
(0.977453 0.284645 -8.17032e-17)
(-0.931305 1.90496 -1.37759e-15)
(0.672662 4.19108 4.20411e-16)
(0.548059 -5.7334 3.74983e-16)
(0.159202 -5.73953 -6.16711e-17)
(-0.360465 50.4907 -2.87482e-18)
(-15 44.7237 -7.23209e-19)
(-24.8518 35.7133 -2.1793e-18)
(-28.6997 26.6879 6.67528e-22)
(-27.2744 18.2177 0)
(-22.703 11.6251 0)
(-17.6903 7.08859 0)
(-13.3907 4.08361 -3.63363e-19)
(-10.128 2.08702 -4.54816e-19)
(-7.81551 0.728835 4.52211e-19)
(-6.20375 -0.164411 -3.63625e-19)
(-5.04873 -0.588832 9.07676e-19)
(-4.15556 -0.510951 -1.08994e-18)
(-3.45398 -0.0333321 0)
(-2.96901 0.56455 0)
(-2.71734 1.01424 0)
(-2.65899 1.20145 0)
(-2.70144 1.17667 0)
(-2.73722 1.08987 0)
(-2.69105 1.1004 -3.64004e-19)
(-2.51772 1.3057 1.45767e-18)
(-2.22196 1.73192 0)
(-1.83214 2.35737 -3.65234e-18)
(-1.39562 3.10688 6.58456e-18)
(-0.946448 3.88243 5.86938e-18)
(-0.516368 4.57031 0)
(-0.13379 5.05013 1.78124e-17)
(0.183838 5.23384 -1.7884e-17)
(0.437187 5.11944 -5.93374e-18)
(0.641289 4.7195 1.19137e-17)
(0.809338 4.08258 -1.78175e-17)
(0.957099 3.2508 8.84444e-18)
(1.08131 2.2497 -2.32584e-17)
(1.19621 1.10162 5.7223e-18)
(1.2759 -0.112627 1.76854e-16)
(1.91451 0.228998 5.01106e-16)
(2.74448 3.14708 6.7626e-16)
(2.70293 3.87493 3.28716e-16)
(-23.4132 25.8116 0)
(-19.2973 25.9267 2.01787e-21)
(-15.0933 24.5255 -1.41935e-18)
(-11.3439 22.7197 -7.0974e-19)
(-8.50618 21.0563 -1.77627e-19)
(-6.52604 19.7887 1.77416e-19)
(-5.21074 19.0006 0)
(-3.73586 18.8667 0)
(-1.52668 19.5962 2.13026e-18)
(1.08009 21.2087 -5.68522e-18)
(4.11015 23.2391 7.11885e-18)
(7.83175 25.3638 0)
(11.5941 28.2152 -5.69827e-18)
(14.5184 32.2909 5.71006e-18)
(15.8661 37.559 1.42807e-18)
(15.5116 44.3078 1.4371e-18)
(15.5071 50.2963 0)
(15.7452 53.9799 0)
(-2.26097 2.23114 0)
(1.626 4.05998 3.49809e-16)
(1.22003 3.66667 0)
(0.828458 3.38935 -7.31562e-16)
(0.360376 3.27118 3.66971e-16)
(-0.146165 3.14393 6.65896e-16)
(0.386081 -6.17185 -1.03174e-16)
(1.6852 8.48886 4.0892e-16)
(-1.70585 2.95461 1.26281e-17)
(-2.54821 2.37703 -9.61776e-17)
(-3.23422 1.72829 4.19183e-17)
(-3.74092 1.03865 -4.77354e-17)
(-4.04206 0.390218 -2.0848e-17)
(-4.12835 -0.143466 2.9722e-17)
(-4.04002 -0.488148 5.92143e-18)
(-3.83478 -0.620646 -2.95479e-17)
(-3.56129 -0.566691 1.7698e-17)
(-3.25476 -0.354818 0)
(-2.93887 -0.0339563 -1.46841e-17)
(-2.61697 0.342726 8.81784e-18)
(-2.28584 0.705747 1.46639e-17)
(-1.93725 0.991953 2.92279e-18)
(-1.55821 1.16406 -1.17181e-17)
(-1.13108 1.20933 -5.85187e-18)
(-0.635766 1.14429 0)
(-0.0583789 1.00817 0)
(0.597752 0.839387 -1.4576e-18)
(1.33408 0.652259 -7.28282e-19)
(2.15092 0.431452 7.28929e-18)
(3.05134 0.139397 1.45823e-18)
(4.03037 -0.280149 -5.09536e-18)
(5.07709 -0.848756 -2.55596e-21)
(6.17547 -1.5388 0)
(7.32083 -2.31758 0)
(8.54467 -3.14689 -5.80937e-18)
(9.9357 -3.9897 8.6986e-18)
(11.6362 -4.7893 -2.89741e-18)
(13.8502 -5.40836 4.88225e-21)
(16.8296 -5.63995 2.89081e-18)
(20.7867 -5.21131 2.88679e-18)
(25.663 -3.76563 1.72992e-17)
(30.7403 -0.944214 0)
(34.1185 3.10674 8.61713e-18)
(33.7315 7.88212 -8.59747e-18)
(28.9758 12.7428 5.72185e-18)
(19.2575 17.5586 -5.72832e-18)
(6.2392 20.5794 5.70239e-18)
(-6.34579 23.2415 0)
(-18.795 20.1118 0)
(-25.4695 23.5572 -2.82589e-18)
(2.48914 0.614591 8.74755e-16)
(0.678635 -0.0732538 -1.88279e-16)
(2.23312 5.45101 -3.46571e-16)
(3.14843 3.08869 8.48756e-16)
(2.89616 4.86321 8.47571e-19)
(2.62387 6.62221 8.50593e-16)
(0.561486 -0.145886 2.06801e-16)
(1.2598 7.66608 -9.24608e-16)
(2.05961 7.69385 0)
(1.56759 8.05696 0)
(0.579034 -6.98945 -6.76866e-17)
(2.00961 2.97316 -4.19535e-16)
(0.660663 -3.77487 2.8724e-17)
(-0.507045 1.64042 -8.31335e-16)
(1.52889 -1.77714 -9.46442e-17)
(1.91466 -0.328907 -5.56697e-16)
(-0.170234 -5.96732 0)
(-0.179634 -4.90883 -5.94543e-17)
(1.59303 -0.573069 0)
(1.50579 0.622704 2.95352e-18)
(1.41009 1.71625 5.87951e-18)
(1.27322 2.66934 2.20653e-18)
(1.09585 3.45773 3.69862e-19)
(0.870621 4.04741 0)
(0.598513 4.39236 7.40457e-18)
(0.273709 4.4462 -7.41017e-18)
(-0.111064 4.19498 2.94586e-18)
(-0.546243 3.65776 -5.8683e-18)
(-1.01737 2.93519 1.46096e-18)
(-1.49417 2.15711 0)
(-1.9487 1.43864 2.91964e-18)
(-2.3584 0.888854 -1.45955e-18)
(-2.65171 0.576446 1.45637e-18)
(-2.82343 0.503267 -2.55019e-18)
(-2.8697 0.601088 2.95929e-18)
(-2.84352 0.733872 -2.93551e-21)
(-2.80762 0.719496 -1.54819e-18)
(-2.8507 0.396905 7.28037e-19)
(-3.04851 -0.250027 -8.18317e-19)
(-3.42709 -1.03708 0)
(-3.96009 -1.6789 3.63815e-19)
(-4.67971 -1.97655 -1.81881e-19)
(-5.747 -1.9175 -7.26206e-19)
(-7.4362 -1.5929 6.3073e-19)
(-10.1194 -1.05159 9.08264e-20)
(-14.236 -0.116608 -3.62872e-19)
(-20.0854 1.67172 0)
(-27.4703 5.06799 0)
(-34.9736 10.9521 -1.44908e-18)
(-38.4468 19.1061 7.96681e-18)
(-35.0666 28.4119 -1.45998e-18)
(-23.2517 38.2602 0)
(-3.09089 45.9092 5.7842e-18)
(16.7077 51.2731 -2.07385e-20)
(-0.0550527 -3.77067 3.18178e-16)
(-34.4965 10.0129 2.84565e-18)
(-30.1163 13.5649 0)
(-24.4173 14.8347 -7.08366e-19)
(-19.0996 14.532 7.01777e-19)
(-14.3931 13.2961 1.77249e-18)
(-10.461 11.6169 -1.41606e-18)
(-7.39718 9.60299 3.56461e-19)
(-5.10361 7.06556 7.14522e-19)
(-2.88761 3.91688 4.96797e-18)
(-0.597102 1.49765 -7.13116e-18)
(1.68094 1.01966 -5.69336e-18)
(4.21078 1.32684 5.71481e-18)
(7.68542 2.78215 -7.1999e-19)
(11.1017 7.51039 1.43711e-18)
(14.7026 15.9456 -5.69745e-18)
(17.9086 26.8344 -1.42519e-18)
(21.4997 36.4567 5.707e-18)
(24.3565 44.4442 0)
(28.6772 50.6255 2.86655e-18)
(33.9627 47.9234 -1.43364e-18)
(2.54632 -0.232846 4.58613e-16)
(1.09339 -0.848311 -1.64917e-16)
(3.32561 1.42728 -4.21295e-16)
(0.234677 -7.30812 0)
(0.0849545 -6.86782 0)
(-0.0616045 -6.76901 -1.10129e-16)
(-0.125965 -6.87056 -2.75642e-17)
(-0.169553 -7.11119 -3.43815e-17)
(-0.213779 -6.22756 -8.45041e-17)
(-0.217425 -5.17464 1.17585e-16)
(-0.19032 -4.00201 6.39367e-17)
(1.2392 -4.24728 0)
(-0.155403 -3.02614 -6.2885e-17)
(1.81427 1.44223 1.27753e-18)
(0.447856 1.27343 3.7434e-16)
(0.998759 2.33722 -3.58373e-16)
(3.35645 3.07912 -4.25256e-16)
(3.11418 4.977 0)
(2.82082 6.8154 0)
(0.940566 -0.79168 4.32934e-16)
(3.05438 0.277304 8.54942e-16)
(0.329156 -7.10222 -8.44151e-17)
(2.45068 2.64595 3.4972e-16)
(2.12369 2.41424 -3.62499e-16)
(1.80608 2.35447 0)
(1.44786 2.47346 -7.69293e-16)
(1.20534 2.71701 3.86618e-16)
(0.137078 3.36892 -5.20907e-16)
(1.96673 2.46153 -3.18118e-16)
(-0.357131 3.23967 1.00936e-16)
(-1.24156 2.97717 -1.12063e-16)
(-2.05802 2.46205 4.93124e-17)
(-2.78554 1.76227 -4.8467e-17)
(-3.37407 0.970696 0)
(-3.79033 0.169569 -2.99181e-18)
(-4.00628 -0.529803 -4.47205e-18)
(-4.04423 -1.01333 1.78041e-17)
(-3.9469 -1.24728 5.9042e-18)
(-3.75754 -1.26036 -2.95035e-17)
(-3.50797 -1.09168 1.17863e-17)
(-3.22224 -0.801495 1.46862e-17)
(-2.90374 -0.460836 -1.17523e-17)
(-2.54135 -0.139014 7.33111e-18)
(-2.13371 0.103979 -7.33452e-18)
(-1.67324 0.222863 -2.93015e-18)
(-1.15421 0.202003 8.78197e-18)
(-0.572512 0.0620909 1.46435e-18)
(0.066911 -0.147045 5.84655e-18)
(0.758805 -0.381471 -5.84366e-18)
(1.49632 -0.6311 0)
(2.28134 -0.917677 -1.45969e-18)
(3.11746 -1.28368 -7.28359e-19)
(4.01051 -1.76699 -7.2942e-18)
(4.94225 -2.37597 6.55651e-18)
(5.90354 -3.0947 -7.29372e-19)
(6.8954 -3.90365 5.824e-18)
(7.96454 -4.81437 -1.09085e-17)
(9.22008 -5.83538 5.81317e-18)
(10.8435 -6.9411 2.90276e-18)
(13.1157 -8.054 1.44942e-18)
(16.421 -9.06061 -2.88774e-18)
(21.1326 -9.756 8.66748e-18)
(27.2855 -9.82821 -8.64762e-18)
(34.0977 -8.89827 -2.87661e-18)
(38.9693 -6.92211 -8.62344e-18)
(39.6319 -3.68103 1.14973e-17)
(35.5389 0.052137 -8.61882e-18)
(25.0789 4.59985 5.72896e-18)
(10.2445 7.9808 -1.14829e-17)