/*--------------------------------*- C++ -*----------------------------------*\
| =========                 |                                                 |
| \\      /  F ield         | OpenFOAM: The Open Source CFD Toolbox           |
|  \\    /   O peration     | Version:  2212                                  |
|   \\  /    A nd           | Website:  www.openfoam.com                      |
|    \\/     M anipulation  |                                                 |
\*---------------------------------------------------------------------------*/
FoamFile
{
    version     2.0;
    format      ascii;
    arch        "LSB;label=32;scalar=64";
    class       volScalarField;
    location    "0.000192";
    object      p;
}
// * * * * * * * * * * * * * * * * * * * * * * * * * * * * * * * * * * * * * //

dimensions      [1 -1 -2 0 0 0 0];

internalField   nonuniform List<scalar> 
25920
(
107.35
108.429
107.702
106.822
105.639
104.246
102.851
101.552
100.337
99.2209
98.0619
96.5577
94.9471
93.4344
92.2794
91.4063
91.0786
91.3425
91.8031
92.6495
94.7254
98.0697
103.936
112.451
122.769
133.926
144.896
157.174
171.366
186.232
202.684
219.031
236.102
257.074
273.065
280.614
283.414
284.625
284.373
283.681
282.736
280.214
274.319
265.372
253.665
245.278
221.253
101.556
102.452
101.92
101.083
100.016
98.829
97.6152
96.3311
95.1873
94.0933
92.9257
91.4492
89.8472
88.336
87.1896
86.3462
85.9432
86.0763
86.4457
87.1826
89.0151
92.2546
97.3292
104.872
114.411
124.592
134.736
145.85
158.861
172.355
186.874
202.19
217.724
235.489
250.968
259.744
261.938
262.281
261.397
259.886
258.486
256.733
253.364
247.938
239.555
233.516
220.837
100.762
101.685
101.192
100.359
99.3234
98.2026
97.0498
95.7583
94.6454
93.5462
92.3586
90.87
89.2445
87.7105
86.533
85.7044
85.2508
85.3374
85.6715
86.3874
88.1074
91.2953
96.0589
103.297
112.623
122.543
132.513
143.302
155.925
169.066
182.845
198.033
213.222
229.441
244.899
254.77
256.875
256.992
256.068
254.247
252.499
250.769
248.261
244.299
237.27
231.468
220.777
100.522
101.542
101.043
100.219
99.1948
98.0945
96.9618
95.6644
94.5669
93.4607
92.2649
90.7695
89.1338
87.5912
86.3956
85.58
85.1071
85.183
85.5063
86.2258
87.9066
91.0594
95.7017
102.795
112.04
121.86
131.788
142.466
154.912
167.969
181.436
196.598
211.795
227.083
242.56
253.023
255.258
255.292
254.403
252.488
250.568
248.746
246.544
243.297
236.977
231.276
224.21
103.499
102.721
102.529
101.476
100.653
99.7517
98.9861
97.6488
96.6602
95.0707
93.2778
91.3982
89.4009
87.6267
86.3762
85.5838
85.0998
85.1815
85.5076
86.3577
88.2484
91.1606
95.723
102.753
111.986
121.784
131.715
142.373
154.751
167.824
181.221
196.394
211.694
226.513
241.98
252.47
254.882
254.903
254.013
252.065
250.06
248.173
246.011
243.044
237.405
233.073
226.785
106.546
106.276
105.697
104.72
103.534
103.066
102.651
101.376
100.695
99.234
97.083
94.9449
92.9825
91.1614
89.6893
88.5599
87.847
87.7494
87.952
88.6969
90.0056
92.4674
96.748
104.028
113.23
122.958
132.796
143.539
155.985
168.039
181.434
196.898
212.448
226.468
241.953
252.412
254.863
254.929
253.987
252.02
249.991
248.09
245.925
243.717
240.196
235.683
229.134
110.079
109.828
109.868
109.296
108.608
107.46
107.121
105.929
106.291
104.665
101.413
98.7662
96.5712
95.216
93.8621
92.9116
91.9846
91.6408
91.7261
92.5926
93.8569
96.1292
100.29
107.391
116.941
126.825
136.092
146.651
159.411
172.155
185.767
201.322
214.697
229.117
245.867
256.821
260.186
260.771
259.669
256.989
254.245
251.717
249.375
246.818
242.993
238.671
231.85
113.028
114.05
114.49
114.372
113.989
112.798
112.278
111.173
109.727
108.562
105.588
102.112
99.944
97.6328
96.0191
95.1296
94.1325
93.8657
94.0945
94.5922
96.205
99.2326
103.115
109.594
118.857
128.644
138.743
148.831
161.206
174.598
188.178
203.549
218.932
233.311
251.221
260.31
262.869
263.676
262.891
260.544
257.984
255.246
252.74
250.301
246.583
242.292
235.031
116.479
118.22
119.422
119.192
117.801
116.233
114.196
113.26
111.227
110.045
108.758
106.321
103.572
101.435
99.597
98.5693
97.5614
97.5821
97.9453
98.8594
100.098
102.318
106.023
112.883
122.546
132.705
142.574
153.576
164.293
177.656
192.016
207.503
222.217
237.105
255.251
265.882
268.399
268.675
267.566
264.99
262.093
258.995
256.218
253.8
250.346
246.279
238.749
119.532
121.621
121.852
121.087
119.769
118.041
115.882
114.893
112.904
111.612
110.458
108.871
106.592
104.393
102.302
100.905
100.566
100.494
100.834
101.029
102.571
105.131
108.752
115.465
124.261
134.456
144.452
155.654
166.872
180.172
194.563
210.56
225.204
240.581
258.855
268.805
271.924
272.221
271.396
268.876
265.991
262.632
259.608
257.298
254.15
250.456
242.825
122.279
123.55
123.338
122.547
120.842
118.957
116.721
115.707
113.732
112.371
111.316
110.346
108.319
106.008
103.891
102.472
102.12
101.831
102.138
103.226
104.508
106.392
111.168
117.386
126.771
136.895
146.967
157.978
170.298
183.395
198.06
213.604
228.47
244.071
263.353
274.042
276.868
277.045
275.894
273.244
270.262
266.674
263.153
260.645
257.675
254.426
246.89
124.888
125.575
124.068
123.305
122.073
120.365
118.752
117.428
115.266
113.99
112.954
111.57
110.074
107.737
105.884
104.165
103.489
103.476
103.857
104.608
105.567
108.417
113.176
121.28
129.636
138.234
148.166
159.224
171.893
186.308
200.391
216.79
232.677
248.12
267.78
278.434
281.258
281.308
280.322
277.539
274.487
270.807
267.085
264.277
261.415
258.5
251.053
127.178
126.877
126.331
125.462
124.169
122.742
120.712
118.767
117.408
116.004
114.521
112.714
111.073
109.066
107.612
105.382
104.723
104.932
105.003
105.775
107.437
110.556
116.124
123.781
131.576
140.985
151.036
162.263
174.777
189.468
203.871
219.948
236.083
252.585
272.785
284.218
287.52
286.981
285.673
282.717
279.37
275.517
271.413
268.185
265.265
262.664
255.277
129.204
129.257
127.514
126.691
125.691
124.405
122.966
121.483
119.922
118.589
116.93
115.436
113.572
111.653
109.92
109.07
107.979
107.686
107.514
107.427
108.461
113.06
118.197
126.157
134.826
145.214
155.84
167.352
178.74
191.569
207.44
223.987
240.348
256.864
277.15
288.513
291.53
291.411
290.599
287.587
284.096
280.06
275.759
272.223
269.182
266.843
259.487
132.046
131.957
131.35
129.863
129.471
128.573
126.561
124.071
122.092
120.516
119.272
117.429
115.666
114.714
113.35
111.945
110.104
109.64
109.782
110.336
111.694
114.531
120.539
130.736
138.656
148.189
158.776
170.161
182.41
196.767
210.697
227.104
244.266
261.197
282.679
295.338
297.845
297.099
296.233
293.096
289.298
284.927
280.298
276.401
273.129
270.977
263.81
135.736
136.835
135.199
134.12
133.075
131.382
129.195
127.397
125.687
124.641
123.075
121.59
119.513
117.379
116.152
114.475
113.28
112.729
112.865
113.248
114.527
117.262
123.77
134.525
141.644
151.465
161.454
173.25
185.148
199.638
214.568
231.062
248.023
265.078
286.196
299.731
302.505
301.896
301.357
298.33
294.479
289.916
284.934
280.589
277.004
274.961
268.119
140.558
140.837
140.099
138.639
137.295
135.68
133.399
131.065
128.922
127.266
125.706
123.886
122.192
121.12
119.371
117.894
115.405
115.51
115.952
116.568
118.161
121.983
127.765
140.52
145.798
155.423
165.86
176.968
189.273
203.046
217.856
234.242
251.7
268.698
289.317
302.27
307.746
307.581
306.922
303.935
299.894
295.047
289.762
284.903
280.87
278.717
272.209
146.081
146.612
145.688
144.046
141.996
139.766
137.671
135.756
133.749
132.13
130.305
128.073
125.984
123.919
122.291
120.783
119.834
119.125
119.128
119.875
121.638
124.445
131.407
142.94
149.694
159.2
169.636
180.617
192.296
207.824
222.966
238.833
256.048
272.811
292.877
307.021
311.865
312.482
312.264
309.487
305.505
300.466
294.834
289.473
284.903
282.394
276.15
151.62
151.704
150.481
148.435
146.675
144.57
142.317
140.033
138.088
136.165
134.307
131.97
129.851
127.635
125.612
124.106
122.469
121.901
121.838
122.42
124.635
128.95
136.138
144.661
154.693
163.885
174.263
184.478
195.723
210.886
226.482
242.983
260.277
277.39
298.78
312.805
317.964
318.591
318.377
315.547
311.47
306.223
300.302
294.441
289.309
286.271
280.143
157.156
157.527
156.41
154.481
152.684
150.265
147.798
145.105
142.914
140.821
138.299
136.002
133.382
130.982
129.458
127.588
126.238
125.416
125.648
126.387
128.161
131.822
139.118
145.986
158.805
168.306
178.268
187.827
200.104
215.935
231.699
247.933
265.568
282.385
304.298
318.721
323.044
323.765
323.819
321.256
317.387
312.11
305.927
299.617
293.939
290.286
284.16
163.103
163.731
162.413
160.391
158.298
155.813
153.302
150.725
148.227
145.693
143.313
140.27
137.815
134.867
132.294
130.269
128.763
128.689
128.729
129.255
131.008
134.817
141.39
148.385
161.246
171.715
181.77
190.969
204.098
219.924
235.815
252.795
270.814
288.108
309.991
323.706
329.713
330.255
330.083
327.343
323.454
318.168
311.822
305.077
298.797
294.458
288.233
168.609
169.138
168.117
166.058
163.885
161.379
158.661
156.154
153.606
150.873
148.085
145.126
141.908
139.381
137.099
135.083
133.202
131.857
131.752
132.113
133.726
137.386
143.892
150.038
162.723
174.544
184.879
194.461
208.759
223.842
240.23
257.46
276.203
293.756
315.405
330.109
335.577
336.549
336.41
333.57
329.659
324.376
317.944
310.878
304.079
299.049
292.561
173.506
173.989
172.838
170.839
168.8
166.25
163.725
161.183
158.727
156.098
153.469
150.346
147.183
144.103
141.063
138.342
136.567
135.764
135.458
135.677
136.795
139.782
145.309
151.819
163.585
176.449
188.023
199.648
214.046
228.442
244.554
262.203
281.593
299.671
321.042
336.857
343.315
343.737
343.481
340.351
336.251
330.966
324.44
317.08
309.751
304.094
297.225
178.441
178.997
178.006
176.032
173.869
171.278
168.798
166.11
163.638
161.167
158.648
155.406
152.196
149.343
146.712
144.072
141.737
140.024
139.512
139.529
140.366
142.849
147.229
153.569
164.841
178.919
192.181
206.343
219.947
233.64
249.428
266.856
286.551
305.188
327.149
342.924
349.468
350.329
350.348
347.256
342.976
337.562
331.067
323.535
315.716
309.444
302.116
184.084
184.722
183.562
181.483
179.259
176.685
174.038
171.28
168.775
166.217
163.579
160.368
157.052
153.621
150.654
148.048
145.866
144.302
143.784
143.708
144.214
146.865
149.751
155.828
167.996
182.467
196.958
210.587
225.75
239.463
254.946
271.88
291.678
310.868
333.252
350.451
357.673
357.952
357.907
354.655
350.132
344.508
337.939
330.29
322.041
315.123
307.229
190.894
191.4
190.174
187.911
185.516
182.747
179.863
177.224
174.503
171.571
168.762
165.749
162.367
159.002
156.262
153.418
150.923
149.011
148.122
148.176
148.595
149.928
154.183
160.454
172.964
187.34
202.387
217.131
230.101
244.837
260.603
277.351
297.055
317.066
339.978
356.732
363.818
365.372
365.525
362.376
357.74
351.907
345.195
337.491
328.94
321.449
312.824
199.002
199.38
197.811
195.549
193.064
190.135
187.006
183.937
181.061
177.989
174.737
170.886
167.202
163.953
160.771
157.847
155.287
153.582
152.999
153.015
153.565
155.456
158.473
164.913
177.182
192.723
208.273
222.706
236.524
250.528
266.527
283.27
302.815
323.227
346.299
364.892
373.429
374.729
374.067
370.558
365.752
359.774
352.932
345.193
336.462
328.525
319.088
207.6
207.721
205.976
203.544
200.806
197.556
194.078
190.761
187.717
184.418
180.912
177.153
173.391
169.716
166.536
163.549
160.99
158.774
157.436
157.732
158.493
159.921
163.36
170.359
182.278
198.427
213.768
227.795
240.183
255.295
272.035
289.413
308.864
329.25
351.606
371.468
380.829
383.286
382.407
378.777
373.843
367.743
360.879
353.121
344.328
336.116
325.899
216.536
216.615
215.011
212.403
209.4
205.713
202.067
198.443
194.959
191.387
187.715
183.623
179.656
175.585
171.989
168.798
166.033
163.873
162.537
162.723
163.4
165.433
168.858
175.116
186.59
203.827
218.014
231.148
245.85
261.213
277.555
295.454
315.032
335.453
358.619
380.47
390.603
393.04
391.28
387.294
382.171
375.915
369.024
361.269
352.464
344.096
333.114
226.115
226.087
224.267
221.324
218.153
214.392
210.423
206.653
203.022
199.138
195.193
190.603
186.051
181.928
178.182
174.573
171.61
169.107
168.025
168.278
168.646
169.93
173.87
181.654
193.189
208.957
221.898
234.815
249.274
265.104
282.285
301.104
321.132
341.947
365.577
388.564
399.465
401.643
399.957
395.925
390.703
384.305
377.294
369.581
360.837
352.456
340.705
236.15
235.735
233.753
230.929
227.784
224.076
220.155
216.048
212.143
207.935
203.498
198.583
193.638
188.857
184.608
180.879
177.533
174.18
171.764
172.125
173.243
175.01
178.851
186.69
198.668
215.021
226.104
237.572
253.645
270.448
287.1
306.648
327.155
348.668
373.391
398.912
410.21
411.735
409.348
405.071
399.625
393.091
385.99
378.219
369.532
361.282
348.778
246.493
246.107
244.195
241.277
237.88
233.734
229.536
225.402
221.402
217.08
212.405
207.047
201.956
196.963
192.41
188.074
184.136
180.554
178.474
178.536
178.913
180.45
184.444
192.15
203.889
218.65
233.167
246.837
261.002
275.417
292.157
311.777
332.778
355.19
381.484
410.037
419.203
421.492
418.733
414.537
408.809
402.057
394.841
387.014
378.381
370.415
357.384
257.347
256.738
254.618
251.272
247.67
243.399
239.024
234.831
230.816
226.389
221.807
216.555
211.183
205.818
200.954
196.193
191.799
187.401
184.928
184.557
184.9
186.267
189.357
196.644
207.664
222.695
239.032
255.601
269.054
283.454
299.849
317.085
338.162
361.11
388.531
417.355
430.606
431.344
427.683
423.718
417.856
410.846
403.49
395.579
386.945
379.171
366.102
268.867
268.057
265.802
262.407
258.643
254.299
249.81
245.275
240.874
236.175
231.311
225.838
220.407
214.852
209.723
204.625
199.538
195.961
192.025
191.301
191.162
191.618
194.043
200.842
212.338
226.614
246.411
262.621
275.786
290.718
307.385
324.765
343.898
366.708
393.699
421.258
437.381
437.335
435.347
432.039
426.397
419.248
411.641
403.54
394.969
387.146
374.2
281.548
280.742
278.343
274.74
270.646
265.738
260.549
255.722
251.208
246.392
241.171
235.353
229.588
223.769
218.322
212.984
207.716
203.001
199.202
197.931
197.647
197.901
199.711
205.317
216.604
233.312
252.734
269.773
284.662
298.743
314.448
331.25
350.102
372.46
398.613
423.434
444.917
446.333
443.98
440.501
434.875
427.518
419.825
411.611
402.775
394.914
381.969
295.11
294.174
291.48
287.381
282.761
277.575
272.363
267.072
262.047
256.837
251.389
245.374
239.576
233.567
227.873
222.24
216.679
211.629
207.322
205.113
204.336
204.342
206.33
211.009
222.903
240.124
259.665
277.377
291.294
306.439
322.901
339.517
357.318
378.724
403.883
428.095
450.37
452.55
451.526
448.846
443.368
435.999
428.383
419.988
410.897
402.937
389.867
309.081
308.134
305.253
301.023
296.435
291.052
285.793
280.174
274.922
269.286
263.029
256.188
249.315
242.793
236.852
230.898
225.245
219.825
215.217
212.84
212.073
213.28
214.969
219.683
230.378
248.061
266.546
283.187
299.522
313.486
330.86
347.335
365.124
385.462
409.479
435.44
456.001
459.284
458.893
456.585
451.359
444.178
436.871
428.416
418.966
410.826
397.57
323.664
322.77
319.628
315.222
310.272
304.488
298.891
293.526
287.813
281.512
274.945
267.213
259.683
252.547
246.107
239.864
233.826
228.193
223.191
220.591
219.263
219.462
221.27
226.313
236.774
252.929
271.471
288.996
305.391
321.78
337.65
356.666
373.217
392.707
416.206
443.75
463.546
466.116
466.122
464.179
459.05
452.463
445.252
436.766
427.027
418.688
405.063
338.4
337.638
334.163
329.522
324.329
318.183
311.674
305.137
299.226
293.157
286.343
278.321
270.403
262.801
255.819
248.912
242.669
236.25
231.225
227.462
227.431
228.026
230.196
235.217
244.41
261.466
279.683
297.03
312.962
328.796
345.672
362.683
381.295
400.293
423.371
452.23
471.081
474.087
473.223
471.754
466.983
460.999
453.929
445.612
435.597
427.151
412.982
353.528
353.047
349.265
344.404
338.949
332.424
326.372
319.885
313.175
305.989
298.78
290.091
281.662
273.49
266.154
258.808
252.159
245.78
240.106
237.449
236.056
236.767
239.063
243.418
253.575
269.558
285.974
302.917
320.255
335.407
351.938
371.436
389.734
409.151
432.217
461.355
478.948
482.778
482.687
480.375
475.589
469.77
463.019
455.263
445.215
436.667
421.872
369.212
368.947
364.827
359.772
353.845
346.778
339.069
332.123
325.88
319.26
311.72
302.768
293.959
285.266
277.42
269.823
263.231
256.913
250.823
246.859
246.098
247.112
250.263
255.595
263.314
277.469
295.314
312.262
327.159
344.234
360.863
378.217
398.075
418.333
441.622
470.526
488.268
492.595
492.318
489.508
484.412
478.7
472.244
464.924
455.462
446.956
431.489
384.545
384.3
379.817
374.514
368.429
361.417
354.505
347.53
340.533
333.053
325.105
315.695
306.383
297.201
288.98
281.035
273.526
265.81
259.326
257.385
256.259
257.064
259.041
263.405
272.214
287.87
305.486
321.367
336.56
351.25
367.648
386.137
405.969
427.159
450.868
479.038
497.078
502.689
503.171
499.386
493.582
487.553
481.331
474.473
465.799
457.699
441.564
398.035
397.654
392.94
387.59
381.24
374.246
366.524
359.375
352.702
345.043
336.756
327.567
317.825
308.384
299.951
291.896
283.99
276.536
270.37
267.031
265.976
266.759
269.545
274.983
281.033
293.777
312.335
330.994
345.906
359.141
374.67
392.247
412.902
434.82
459.731
488.399
506.699
513.1
513.969
509.342
503.006
496.333
490.099
483.777
475.893
468.636
452.296
410.266
409.449
405.026
399.403
392.971
385.715
378.695
371.729
364.682
356.655
348.42
338.929
328.976
319.232
310.666
302.618
294.168
285.687
278.863
277.248
276.368
277.016
278.868
283.416
291.3
303.54
320.398
338.496
353.859
367.964
382.83
399.948
419.682
441.709
467.48
497.373
517.105
523.004
523.479
519.133
512.57
505.194
498.607
492.657
485.339
479.098
463.294
423.175
421.943
417.574
411.851
405.237
397.653
390.212
382.498
375.275
367.46
359.292
349.395
339.643
330.039
321.325
313.276
304.186
296.547
289.507
285.941
283.689
284.606
286.34
291.13
297.559
311.15
329.94
348.868
364.821
377.55
391.925
407.932
426.846
448.432
474.326
505.945
526.484
533.154
533.216
528.324
521.977
514.048
506.731
500.734
493.757
488.395
473.373
437.96
436.311
431.88
425.73
418.813
410.781
403.512
395.617
388.225
380.3
371.666
361.324
351.429
341.623
332.566
323.413
314.655
305.956
299.303
290.656
290.338
290.615
292.327
296.141
307.62
319.346
337.55
355.862
371.211
387.134
401.215
417.074
434.903
455.721
481.513
512.673
536.023
542.577
542.204
537.733
531.639
523.389
515.4
508.786
501.673
496.767
482.379
455.428
453.722
449.012
442.491
435.013
426.449
418.457
410.086
402.242
393.766
384.502
373.957
363.735
353.725
344.566
335.124
326.567
318.009
308.586
301.11
302.442
302.79
301.878
302.902
313.012
328.914
349.133
368.681
384.915
397.967
412.459
427.742
444.633
464.243
489.539
521.261
546.397
553.42
553.226
547.874
541.987
533.656
524.995
517.584
510.019
505.15
491.211
475.091
473.032
467.717
460.553
452.538
443.357
434.111
426.272
418.413
409.253
399.697
388.612
377.773
367.213
357.914
347.798
339.362
329.557
320.833
315.252
312.783
312.209
313.674
317.937
322.957
336.486
356.655
375.906
394.322
409.919
424.155
439.543
455.891
474.63
498.893
529.803
554.98
564.24
564.55
559.835
553.34
545.025
535.865
527.51
519.249
514.137
500.557
495.95
493.878
488.327
480.82
472.314
462.389
452.19
442.518
433.714
425.076
415.819
404.263
392.755
381.608
372.02
363.191
356.016
345.778
335.328
322.69
320.983
319.466
319.634
326.1
338.426
351.376
369.957
388.282
404.388
421.241
437.022
452.346
468.896
487.107
510.003
538.893
560.528
576.039
576.602
572.424
565.728
557.215
547.603
538.362
529.283
523.649
510.337
517.252
515.193
509.441
501.529
492.577
482.193
472.605
463.718
455.081
444.722
433.715
420.971
408.709
396.845
386.94
376.838
366.003
355.238
345.619
340.297
337.586
335.795
335.87
337.838
349.758
364.601
382.609
401.212
420.044
436.578
452.004
467.691
483.363
500.725
521.992
548.665
569.222
585.033
587.977
585.062
578.528
569.735
559.881
549.872
539.827
533.368
520.192
537.7
535.705
529.686
521.588
512.464
501.994
491.93
480.82
470.555
460.173
450.004
437.175
424.414
411.898
401.655
392.462
377.256
364.868
352.786
347.624
344.131
342.372
350.899
359.566
364.183
378.248
394.03
410.388
427.933
445.1
463.032
480.298
497.299
514.958
535.319
561.564
584.038
597.423
599.953
598.403
591.868
582.675
572.593
561.948
551.162
543.528
530.184
557.053
555.333
549.123
540.977
531.807
520.706
508.977
499.282
490.316
480.002
468.743
454.386
440.453
427.301
416.872
402.695
388.917
377.554
365.295
358.866
353.695
351.67
360.386
368.519
377.654
392.176
406.684
425.081
444.366
461.304
478.23
494.228
510.706
529.071
548.947
575.354
597.187
608.974
612.186
611.613
605.544
596.082
585.756
574.624
563.199
554.294
540.616
576.299
574.824
568.209
560.037
550.74
540.163
530.569
519.119
508.546
497.295
485.658
471.156
456.609
442.563
428.889
415.867
407.616
394.24
383.307
373.089
367.12
367.696
371.784
377.154
384.765
398.811
417.195
435.158
454.032
469.006
485.823
506.399
524.438
543.463
563.521
590.803
612.262
625.725
627.083
626.401
620.713
611.07
600.365
588.792
576.714
566.667
552.423
596.128
594.683
587.547
579.122
569.647
558.353
545.802
535.54
526.283
515.79
504.334
489.133
473.85
459.379
447.62
436.746
423.15
410.931
395.682
380.185
373.954
375.46
376.476
382.722
395.641
406.712
426.773
448.608
467.285
482.753
498.843
515.583
537.071
557.974
579.117
606.856
626.448
641.63
644.581
643.812
637.915
627.868
616.583
604.639
591.976
581.017
566.039
617.919
616.145
608.284
599.607
589.723
578.71
568.152
557.002
546.524
535.117
522.955
507.662
492.006
476.51
460.025
448.826
435.211
420.675
409.13
395.427
385.904
386.532
387.057
390.271
401.578
419.153
438.582
465.074
483.948
501.231
517.41
535.254
550.997
572.042
594.335
622.347
643.764
660.28
662.189
661.01
655.362
645.308
633.537
621.2
607.929
596.253
580.559
644.456
642.463
633.527
624.115
613.371
601.487
588.726
577.355
566.955
555.619
543.557
527.974
511.632
496.209
484.247
470.689
458.002
443.419
429.89
414.746
404.946
398.837
392.095
399.809
412.476
428.141
452.782
492.509
497.24
514.9
531.912
547.631
566.017
585.965
608.77
636.821
659.681
675.74
678.965
678.912
673.563
663.651
651.533
638.664
624.685
612.205
595.585
678.276
676.013
665.487
655.038
642.8
629.816
616.252
603.965
592.884
581.069
568.328
551.511
534.514
518.571
503.282
486.741
472.328
459.463
443.388
427.143
416.297
409.061
400.668
407.737
428.524
445.078
474.365
506.28
517.582
528.816
545.62
562.324
580.656
601.071
623.805
651.835
678.505
694.517
697.402
697.145
692.763
683.406
671.009
657.609
642.88
629.496
611.696
716.417
713.886
701.665
690.091
676.407
662.369
647.009
633.285
620.695
607.489
593.786
576.743
558.729
541.336
526.782
514.624
500.157
482.453
467.227
452.156
440.338
429.597
423.155
428.483
439.958
459.969
487.011
512.583
535.136
550.004
565.165
581.245
598.642
618.483
640.853
668.873
698.769
713.221
716.378
717.216
713.379
704.516
692.063
678.277
662.917
648.698
629.498
754.176
751.132
738.379
725.984
710.79
695.107
678.074
663.1
649.513
635.558
621.111
602.566
583.749
566.203
550.806
533.673
518.225
505.011
489.516
472.494
457.073
447.001
441.081
444.831
449.998
466.143
491.491
515.064
548.509
562.971
581.348
599.112
615.901
636.25
659.197
687.241
718.163
733.734
737.778
738.245
734.234
725.809
713.709
699.861
684.194
669.508
648.9
789.353
785.87
772.613
759.709
744.014
727.668
709.735
693.473
678.517
662.784
646.737
627.416
607.559
588.28
571.484
557.119
541.23
522.584
505.23
490.696
476.472
465.182
462.957
465.036
472.87
478.74
493.455
513.792
560.555
585.102
596.822
614.917
633.045
653.895
677.917
705.506
736.247
752.598
757.543
758.364
754.779
746.634
734.894
721.408
705.912
691.219
669.489
823.665
820.072
807.094
794.22
778.08
761.008
742.525
725.281
709.54
693.209
676.381
654.962
633.578
613.927
596.98
579.378
562.963
546.383
529.123
511.695
496.922
487.59
481.279
482.307
484.554
496.373
506.19
527.93
571.696
597.647
613.744
632.449
651.222
671.5
696.323
724.269
754.2
773.093
779.186
780.01
775.856
767.324
755.882
742.768
727.648
713.31
690.849
858.736
854.816
841.961
829.209
813.362
796.179
777.654
759.912
743.158
725.102
706.657
684.257
661.472
639.531
620.502
602.825
586.078
567.283
548.441
531.474
518.463
506.767
498.662
500.745
505.93
512.721
522.723
544.861
585.731
613.779
631.978
649.891
669.209
689.608
714.255
742.918
776.523
794.061
799.862
802.517
798.421
788.815
776.913
764.074
749.267
735.456
712.617
896.262
891.54
879.092
866.34
850.623
833.355
814.628
796.38
779.788
761.471
742.45
718.016
693.345
670.219
649.705
629.732
609.814
589.49
569.958
552.43
538.946
526.182
518.625
520.396
523.885
530.224
551.242
568.165
602.202
630.074
650.435
669.397
689.024
709.325
734.18
765.264
801.93
818.242
823.867
826.165
821.438
811.809
798.753
785.563
770.929
757.646
734.587
939.495
934.172
921.423
908.608
892.617
875.254
857.099
838.731
821.279
801.773
781.876
756.554
730.277
704.697
682.139
660.024
639.28
617.973
597.709
580.002
563.166
548.238
539.078
540.121
543.812
552.138
568.476
597.712
628.875
646.733
670.444
690.222
710.394
731.365
756.304
787.563
822.096
842.167
850.211
852.948
846.555
837.113
822.887
808.707
793.411
780.285
757.096
991.49
985.167
970.994
957.299
940.204
922.123
901.831
882.645
865.283
845.699
825.544
799.194
771.768
744.263
719.395
695.292
671.385
646.697
623.245
601.596
584.939
571.37
562.363
562.257
563.6
571.208
588.996
612.344
637.653
679.234
696.425
715.487
734.755
756.034
780.346
810.738
847.713
869.363
875.851
877.381
873.489
864.68
849.784
834.272
817.544
804.013
780.57
1055.06
1047.68
1031.35
1015.77
996.27
976.741
955.912
935.987
917.867
897.747
876.853
848.991
819.634
790.613
764.073
737.258
711.194
683.988
657.956
633.569
614.299
597.906
588.166
588.044
589.14
600.046
622.636
640.22
662.54
700.805
726.565
743.602
762.371
783.619
807.774
837.962
873.525
897.332
909.157
909.28
902.372
895.137
879.586
862.789
844.141
829.478
805.406
1130.71
1121.71
1102.73
1084.88
1062.31
1040.44
1015.71
993.493
973.302
951.316
928.854
900.621
870.685
840.465
812.633
784.853
756.342
725.735
695.423
669.788
647.835
628.467
616.601
615.982
619.074
624.031
649.851
681.863
699.49
728.509
749.173
770.774
791.233
813.483
838.029
867.963
902.386
922.901
938.278
941.222
934.442
927.461
911.699
894.064
873.48
857.043
831.757
1216.41
1205.73
1183.45
1162.15
1135.7
1110.57
1082.78
1057.92
1035.81
1011.91
987.073
956.319
924.516
893.226
864.311
835.149
805.606
773.388
741.103
710.346
683.254
663.032
649.712
647.907
646.762
651.337
677.907
716.017
744.923
768.798
788.76
804.302
823.228
845.109
869.957
899.13
933.176
953.039
970.154
972.854
967.989
959.473
944.462
926.897
905.039
886.681
859.379
1307.69
1295.98
1271.17
1247.04
1216.9
1188.12
1156.07
1127.69
1102.1
1074.81
1047.36
1013.59
979.389
946.301
916.418
886.501
856.011
822.288
787.066
753.701
725.385
702.038
686.535
682.652
688.317
699.354
713.107
743.408
773.022
800.802
819.884
838.334
857.581
878.78
903.43
932.115
965.066
985.692
999.471
1002.84
998.452
991.088
976.606
959.551
937.545
917.87
887.888
1396.66
1384.16
1356.69
1330.11
1296.76
1264.74
1229.3
1197.62
1169.04
1138.62
1107.99
1070.7
1033.33
998.033
966.536
935.715
904.523
870.089
834.295
799.644
768.263
741.454
721.617
721.056
721.068
729.04
726.086
752.817
795.134
829.761
846.934
869.185
889.551
910.902
935.695
964.149
997.073
1017.92
1032.12
1035.35
1029.15
1021.37
1007.6
991.319
970.062
950.083
917.277
1477.69
1465.07
1436.7
1408.84
1373.23
1338.48
1299.91
1265.18
1233.54
1200.23
1166.59
1125.5
1084.56
1046.59
1013.13
980.76
949.037
914.919
878.2
841.391
807.319
778.001
754.12
749.433
742.738
745.136
742.513
763.42
804.494
850.897
876.99
898.41
919.685
941.084
965.69
994.329
1028.53
1050.49
1062.45
1065.85
1062.16
1051.65
1037.82
1022.12
1002.16
983.029
948.137
1551.52
1538.63
1510.32
1482.29
1445.85
1409.77
1369.68
1332.91
1299.18
1263.27
1226.28
1181.54
1136.75
1095.3
1058.83
1024.18
990.28
954.212
917.463
881.142
847.115
816.907
793.936
779.957
774.462
773.991
778.285
790.655
818.067
859.781
898.889
925.12
948.664
970.656
995.64
1024.82
1061.59
1088.36
1100.73
1102.03
1096.55
1084.59
1069.51
1054.06
1035.38
1018.12
982.342
1627.8
1614.62
1586.84
1559.2
1522.65
1485.5
1444.29
1405.88
1370.58
1332.75
1293.24
1245.4
1197.07
1151.99
1112.12
1074.16
1037.73
999.195
960.763
925.034
890.837
859.243
836.068
819.31
811.802
812.306
815.608
829.205
852.686
881.081
929.509
955.031
979.93
1002.8
1028.46
1058.13
1097.27
1128.19
1140.37
1139.61
1136.28
1121.61
1104.09
1088.25
1070.17
1056.15
1020.71
1716.7
1702.66
1675.62
1648.61
1612.65
1574.96
1533.24
1493.33
1456.68
1416.78
1374.8
1323.74
1271.42
1221.96
1177.55
1134.99
1093.94
1052.44
1012.6
973.03
936.776
902.369
871.432
856.344
849.387
847.257
855.444
871.206
893.281
923.148
957.761
985.536
1014.02
1039.39
1066.55
1097.1
1134.42
1168.43
1182.23
1181.59
1175.02
1159.88
1139.83
1122.94
1103.8
1093.74
1059.44
1826.51
1810.86
1782.44
1755
1718.24
1679.4
1636.5
1594.85
1556.41
1514.29
1470.09
1416.02
1359.84
1305.9
1256.8
1208.77
1161.73
1112.4
1065.71
1026.65
989.649
955.366
924.733
899.911
892.504
898.438
903.721
916.197
940.037
969.872
991.53
1023.97
1047.78
1076.37
1105.13
1136.67
1171.47
1202.86
1217.56
1221.51
1212.11
1196.6
1175.54
1157.52
1135.61
1127.13
1094.16
1957.24
1939.24
1907.66
1878.39
1839.25
1798.25
1752.19
1708.1
1667.59
1623.51
1577.11
1519.53
1459.87
1401.8
1348.04
1294.5
1241.97
1186.92
1133.05
1085.96
1044.81
1010.84
978.872
961.322
951.81
950.29
953.075
966.298
990.456
1035.87
1039.65
1061.71
1087.3
1113.2
1142.79
1175.64
1210.85
1242.37
1259.96
1262.98
1255.24
1236.61
1214.63
1194.51
1169.39
1158.59
1126.7
2106.99
2086.22
2049.71
2016.28
1972.19
1928.65
1879.83
1833.17
1789.73
1742.55
1692.57
1631.08
1568.17
1505.21
1446.69
1388.46
1330.72
1272.19
1214.13
1154.78
1105.44
1058.13
1030.84
1002.77
993.569
996.137
1003.46
1014.48
1040.49
1072.4
1091.11
1114.74
1137.02
1155.78
1182.93
1216.65
1251.84
1287.7
1307.3
1309.44
1298.76
1282.07
1259.08
1236.42
1208.61
1192.68
1161.47
2279.38
2255.72
2213.27
2174.02
2123.53
2075.98
2022.67
1973.33
1926.79
1875.9
1821.92
1755.81
1688.67
1621.85
1560.25
1496.71
1432.67
1364.06
1295.16
1231.72
1173.95
1126.58
1079.47
1045.03
1031.73
1032.87
1039.33
1052.02
1059.88
1087.94
1137.91
1160.45
1181.08
1202.57
1228.67
1262.24
1299.97
1337.41
1363.43
1366.78
1350.89
1333.35
1308.98
1284.53
1254.8
1233.26
1200.71
2479.54
2452.62
2403.6
2357.55
2299.11
2245.01
2183.92
2129.9
2079.64
2024.85
1966.54
1895.17
1822.16
1749.7
1682.99
1615.99
1548.48
1475.22
1401.24
1329.12
1265.04
1204.86
1158.85