/*--------------------------------*- C++ -*----------------------------------*\
| =========                 |                                                 |
| \\      /  F ield         | OpenFOAM: The Open Source CFD Toolbox           |
|  \\    /   O peration     | Version:  2212                                  |
|   \\  /    A nd           | Website:  www.openfoam.com                      |
|    \\/     M anipulation  |                                                 |
\*---------------------------------------------------------------------------*/
FoamFile
{
    version     2.0;
    format      ascii;
    arch        "LSB;label=32;scalar=64";
    class       surfaceScalarField;
    location    "0.043";
    object      phi;
}
// * * * * * * * * * * * * * * * * * * * * * * * * * * * * * * * * * * * * * //

dimensions      [1 0 -1 0 0 0 0];

oriented        oriented;

internalField   nonuniform List<scalar> 
14149
(
0.000484533
-0.000374579
2.01242e-05
-0.000130077
-0.000133076
0.000128862
-0.000133124
0.000137332
0.00012001
-0.000127989
-0.000125103
0.000127519
-0.000111991
0.000104277
-0.000119812
-0.000134661
0.000142253
0.000121263
0.00011286
0.000122154
0.000138626
-0.000132161
-0.000128618
-0.000137262
0.000144509
-0.000129396
0.00012215
0.000130348
-0.000115177
0.000107109
-0.000122282
0.00011524
6.69649e-05
0.000461691
-9.47271e-05
-0.000433928
-3.19634e-05
0.00018617
5.78945e-05
-0.000212098
0.000978408
-0.000210511
0.000119188
-0.000887081
0.00036582
-0.000361627
-0.000650248
0.000646056
0.000353875
-0.000748998
-0.000318813
0.000713937
-0.000188139
-0.000171068
0.000206284
0.000152937
1.73933e-05
-0.00132319
0.00119884
0.000106951
-0.000413157
-0.000407488
0.000483535
0.000337116
-0.00138707
0.00128248
0.000121976
0.000337318
-0.000330788
0.000363975
-0.000370504
0.000137247
-0.00127532
-0.000139474
0.00127755
0.000722622
-0.000154054
-0.00067574
0.000107185
-3.88987e-05
-8.3047e-05
7.07985e-05
5.11454e-05
-0.000399517
0.000298101
-0.000378946
0.000480348
0.000279898
3.37962e-05
-0.000264277
-4.94131e-05
0.000409715
3.8924e-05
-0.000401961
-4.6687e-05
0.000285961
-0.000155637
0.000136755
-0.000267074
-0.000400786
0.000389902
-0.000489284
0.000500171
0.000153961
0.00125674
-0.00127345
0.00107906
-0.00112446
5.45676e-05
-9.16503e-06
-0.000175176
-0.000164873
0.000180934
0.000159105
0.00109533
0.000104644
-0.000145888
-0.00105409
-0.000143552
0.000124638
0.000169811
-0.000150905
6.79181e-05
0.00109309
-8.19533e-05
-0.000197998
-7.67264e-06
0.000280368
-7.47022e-05
9.48318e-05
-0.000341363
-0.000108237
0.000354772
0.000124666
-0.000123097
0.000128166
-0.000129738
0.000490667
8.09307e-05
-0.000504631
0.000467897
-9.83307e-05
9.21264e-05
-0.000806258
2.88339e-07
0.000808922
-2.88343e-06
-1.60536e-07
-0.00080816
2.28353e-06
0.000802997
-0.000805596
2.45861e-06
0.000806657
-3.35179e-06
4.85567e-05
0.00034221
-6.3153e-05
-0.000327609
-4.45541e-05
-0.000358258
5.35005e-05
0.000349316
0.000319425
-0.000356205
-7.77096e-06
0.000324265
1.68716e-05
-2.17079e-05
0.000340512
3.23127e-05
-0.000812799
-6.45357e-07
5.3044e-06
-7.01066e-07
-0.000813822
1.81478e-06
0.000811664
-0.000815924
3.57775e-06
5.44179e-06
-0.000804496
-4.47822e-07
-8.86308e-06
9.08565e-07
-0.000775601
-2.97818e-05
0.000810652
-0.000787189
-2.2546e-05
-5.7027e-06
-0.000724613
1.96566e-06
-5.29272e-05
4.84425e-06
-0.000661995
-6.74345e-05
0.000738117
-0.000671228
-6.20493e-05
-4.71085e-05
-0.000589411
6.48525e-06
-7.90512e-05
5.96845e-06
-0.000517737
-7.76364e-05
0.000589113
-0.000512129
-7.1009e-05
-7.56296e-05
-0.000452552
4.53303e-06
-6.97119e-05
2.94546e-06
-0.000408056
-4.74378e-05
0.000448027
-0.000404597
-4.04772e-05
-5.95597e-05
-0.000379298
1.8652e-06
-3.06191e-05
9.73097e-07
-0.000360543
-1.97244e-05
0.000376688
-0.000358681
-1.70279e-05
-2.60377e-05
-0.000349223
2.95732e-07
-1.16114e-05
-3.99441e-07
-0.000342575
-6.24486e-06
0.000347853
-0.000341882
-6.36543e-06
-1.05271e-05
-0.000339691
-9.49874e-07
-1.92957e-06
-2.91001e-06
-0.000338861
2.08411e-06
0.000338945
-0.00033882
-3.0301e-06
-3.88285e-06
-0.000340894
-4.1342e-06
6.17042e-06
-9.74055e-06
-0.000340623
9.47395e-06
0.000338771
-0.000340774
-7.73402e-06
-4.17869e-06
0.00034286
1.99104e-05
-2.22541e-05
1.78996e-05
-1.58096e-05
-0.00033901
1.62906e-05
-0.000340474
2.13786e-05
-0.000332638
2.44806e-05
0.00034534
-2.53799e-05
5.97708e-07
-9.80898e-06
0.00081812
-9.59217e-06
0.000816865
0.000841132
-0.000837362
-1.29759e-06
0.000835429
2.60829e-06
-1.76026e-05
-0.000366733
2.60813e-05
-7.43011e-06
-0.000366374
-0.00033419
1.84265e-05
-0.00035144
9.48346e-06
0.000341125
-0.000340082
1.52518e-05
-0.000341157
0.000342086
5.24491e-06
9.44559e-06
-0.000345324
0.000351639
-8.24166e-06
-1.15002e-06
-0.000362564
0.000380577
-2.96211e-05
-1.71667e-05
-0.000407808
0.000446544
-6.93536e-05
-4.69527e-05
-0.000492794
0.000530298
-0.000107207
-9.36835e-05
-0.000561734
0.000590284
-0.000107583
-0.000109056
-0.000624483
0.000666181
-9.46016e-05
-0.000101612
-0.000718699
0.000773707
-6.38396e-05
-8.22715e-05
-0.000816677
0.000838583
-1.65814e-05
-4.12116e-05
-0.000846983
0.000841523
2.88648e-06
-6.34238e-06
0.000819714
-0.000783701
-3.24285e-05
-1.21926e-05
0.000731767
-0.000677746
-7.65741e-05
-5.76403e-05
0.000633233
-0.000595731
-9.95529e-05
-9.16249e-05
0.000564965
-0.000529028
-0.000106942
-0.000106395
0.000484563
-0.000437131
-8.79002e-05
-0.000104019
0.000399785
-0.000374678
-4.21273e-05
-6.33735e-05
0.000358549
-0.000348821
-1.60871e-05
-2.6649e-05
0.000343504
-0.000341169
-5.36087e-06
-9.19459e-06
0.000340965
-0.000342202
-6.49259e-06
-4.37762e-06
-1.26666e-05
-0.000338962
2.02618e-05
0.000833839
-2.09566e-06
-3.17579e-06
0.000829053
0.000355148
-0.000402234
-1.60621e-05
0.000348261
-1.84885e-05
1.92221e-05
-1.22871e-05
-0.000373664
8.11328e-06
-0.00036698
-0.000337014
2.25368e-05
-0.000340229
2.16447e-05
-0.000340756
0.000341852
2.1445e-05
-0.000368748
2.00192e-05
-0.000349694
1.89528e-05
-0.000343503
2.43947e-05
-0.000343133
0.000344494
1.38946e-05
1.89839e-05
-0.000346572
0.000352266
-4.46007e-07
7.37094e-06
-0.000360167
0.000374062
-2.21337e-05
-9.0477e-06
-0.000394874
0.000424864
-5.96092e-05
-3.79776e-05
-0.00046131
0.000496651
-0.000104689
-8.33968e-05
-0.000519079
0.000534174
-0.000122291
-0.000116103
-0.000547405
0.000560528
-0.000120692
-0.000122272
-0.000576993
0.000598139
-0.000115731
-0.000118062
-0.00062746
0.000668556
-0.000104913
-0.000111574
-0.000722208
0.000782099
-7.64428e-05
-9.48369e-05
-0.000831877
0.000860468
-2.60003e-05
-5.60841e-05
-8.39003e-06
1.19925e-05
0.000830258
-0.000871056
0.000864107
-1.42906e-06
-1.26811e-05
-8.44483e-07
-1.10829e-05
0.00082881
0.000829297
0.000869684
-0.000863522
-9.33134e-06
9.61767e-06
-1.28709e-07
0.00086021
0.000827593
0.000841364
-0.000794195
-4.84594e-05
-1.9789e-05
0.000735694
-0.000678562
-8.95686e-05
-7.07025e-05
0.000634474
-0.000602213
-0.000108837
-0.000101732
0.000579668
-0.000562108
-0.000117113
-0.00011417
0.000548161
-0.000533071
-0.000122029
-0.00012034
0.000515019
-0.000487984
-0.00011493
-0.000122068
0.000450128
-0.000413974
-7.82709e-05
-0.000101221
0.00038625
-0.000367759
-3.45699e-05
-5.43643e-05
0.000356154
-0.000349454
-1.20553e-05
-2.07935e-05
0.000346525
-0.00034621
-6.80283e-06
-7.30193e-06
-1.0611e-05
0.000369292
-0.000373499
2.34327e-05
2.66295e-05
0.000364563
-0.000379856
-7.64896e-07
0.000357341
-1.12628e-05
-1.50188e-05
1.23009e-05
0.000832994
-5.89903e-06
0.000855002
0.000850836
-0.000798103
-6.20743e-05
0.000882902
-3.21926e-05
-5.12942e-06
-0.000373527
-1.91292e-05
2.27125e-05
-0.000377079
-1.48021e-05
-0.000377987
2.14273e-05
-0.000363004
-0.000347067
0.000346991
2.15245e-05
0.000376011
-0.00037936
2.60654e-05
0.000374246
2.5201e-05
2.48452e-05
-0.000349391
-0.000376188
1.63562e-05
-0.000347912
2.52431e-05
-0.000349608
0.000354727
8.77906e-06
1.637e-05
-0.00036214
0.000373646
-1.19502e-05
-3.94934e-08
-0.000391509
0.000416465
-4.70886e-05
-2.69082e-05
-0.00044919
0.000483295
-9.37107e-05
-7.07018e-05
-0.000509429
0.0005241
-0.000119351
-0.000109523
-0.000532541
0.000537667
-0.000127406
-0.000124533
-0.000544213
0.000551369
-0.000127836
-0.000128806
-0.000560854
0.000572533
-0.000127397
-0.000127535
-0.000587274
0.000607099
-0.000124724
-0.000126302
-0.000633365
0.000671607
-0.000114665
-0.000121087
-0.000721783
0.000784555
-8.87461e-05
-0.000106237
-0.000840496
0.000879915
-4.0834e-05
-6.8596e-05
-8.78468e-07
-1.11881e-05
0.000840894
0.000840742
1.66503e-05
-7.8103e-06
0.000851383
0.000833078
0.000734952
-0.000680928
-0.000102493
-8.29527e-05
0.000639679
-0.000610482
-0.000118768
-0.000111956
0.00058916
-0.000573186
-0.00012481
-0.000123054
0.000560963
-0.000551226
-0.000126848
-0.000126392
0.000543959
-0.000536946
-0.00012904
-0.000127606
0.000530777
-0.000520541
-0.000125162
-0.000128234
0.00050264
-0.000472852
-0.000108052
-0.000119117
0.000437883
-0.000406512
-6.59317e-05
-8.93232e-05
0.000383754
-0.000368586
-2.72163e-05
-4.35429e-05
0.000360093
-0.000356172
-1.0719e-05
-1.57891e-05
-9.43677e-06
2.46909e-05
-2.16032e-05
0.000895629
0.000893972
-1.88688e-05
7.41831e-06
-0.000379524
2.23186e-05
-2.15229e-05
-0.000377871
-0.000378954
2.19156e-05
-1.0043e-05
-0.000378283
2.73893e-05
-0.000350452
0.000375559
-0.000379471
3.15141e-06
0.000371455
-7.15334e-06
-0.000378904
1.57927e-05
2.6538e-05
-0.000354498
0.000784429
-0.000721946
-0.000103293
0.000845935
-8.30823e-05
-1.53904e-05
2.09779e-05
0.000845809
-8.71811e-06
0.000887311
4.50581e-05
-0.00040064
-2.17007e-05
-0.000377806
-2.06809e-05
-0.000375281
1.70107e-05
-2.45938e-05
-0.000373955
0.000362265
-2.25874e-05
-0.000363752
2.4076e-05
-1.25695e-05
0.000382399
-7.56126e-06
-0.000369228
-1.86198e-05
-1.55068e-05
-0.000374056
0.000355416
2.82467e-05
-0.000356271
-0.000355847
0.000359223
1.81519e-05
2.48158e-05
-0.000366021
0.000376862
-2.05916e-06
9.57448e-06
-0.000392536
0.000414809
-3.42217e-05
-1.57119e-05
-0.000443953
0.00047718
-8.03141e-05
-5.60508e-05
-0.000505866
0.000524304
-0.000112141
-9.93827e-05
-0.000534274
0.000538727
-0.000123794
-0.000119485
-0.000540635
0.000542024
-0.000128784
-0.000126431
-0.000544269
0.000549466
-0.000133023
-0.000131042
-0.000556684
0.000564022
-0.000134725
-0.000134742
-0.000572912
0.000583582
-0.000135384
-0.000135181
-0.000596769
0.000614975
-0.000132859
-0.000134262
-0.000638683
0.00067405
-0.000124098
-0.000129932
-0.000116475
1.40479e-05
-1.19742e-05
0.000893564
-2.0217e-05
1.11664e-05
0.000842067
0.000848848
-8.6519e-07
-9.99654e-06
0.000851774
0.000851065
0.000844073
-0.00079995
0.000858248
-7.71796e-05
0.000735006
-0.000683285
-0.000113804
-9.71502e-05
0.000644572
-0.000618679
-0.000128389
-0.000121672
0.000598912
-0.000584523
-0.000133157
-0.000131725
0.000573085
-0.000563562
-0.000134332
-0.000134493
0.000555943
-0.000548845
-0.000133944
-0.00013401
0.000543692
-0.000541421
-0.000131309
-0.000132757
0.000540103
-0.000537812
-0.000127451
-0.000129551
0.000532257
-0.000520385
-0.00011992
-0.000124669
0.000498396
-0.000466717
-9.76034e-05
-0.000111308
0.000433291
-0.000405681
-5.4817e-05
-7.6959e-05
0.000386683
-0.000375591
-2.18038e-05
-3.47796e-05
-1.35677e-05
0.000378195
-0.000378865
2.58741e-05
2.39868e-05
0.000381458
-0.000384328
2.47883e-05
2.86618e-05
1.50847e-05
2.95195e-05
-0.00035343
-6.00737e-05
0.000894049
0.000899869
-5.03424e-05
0.000389935
-0.000387603
8.24085e-07
0.000395043
-1.22551e-05
-0.000385827
1.40211e-05
0.000386556
-1.82442e-05
-0.00037587
2.61729e-05
-0.000335609
-1.75818e-05
-0.000382398
-3.25995e-05
-0.000369797
-2.22473e-05
-0.000369565
-5.83626e-05
-0.00035778
-6.69271e-05
-0.000384164
9.93004e-05
0.000351793
-0.000365452
0.000366378
2.73242e-05
-2.29421e-05
-0.00036963
3.13672e-05
-0.000358115
-0.000366491
3.24084e-05
-4.3217e-05
-0.000387459
-0.000372263
0.00038231
8.1074e-06
1.89331e-05
-0.000397479
0.000417218
-2.17973e-05
-5.59331e-06
-0.000443973
0.000475608
-6.58557e-05
-4.24663e-05
-0.000506055
0.000528069
-0.000102322
-8.64946e-05
-0.000540254
0.000545828
-0.000117706
-0.000111561
-0.000547585
0.000547907
-0.000124107
-0.000121234
-0.000548127
0.000548745
-0.000129394
-0.000126641
-0.000550125
0.000552539
-0.000135428
-0.000132414
-0.000556005
0.000561613
-0.000140325
-0.000138201
-0.000568451
0.00057509
-0.000142016
-0.000142011
-0.000583225
0.000593296
-0.000142923
-0.000142389
-0.000605729
0.000622762
-0.000141121
-0.000142358
-0.000645699
0.000677654
-0.000135236
-0.000139402
-0.000723017
0.000782234
-0.000119267
-0.000128431
3.34253e-05
-9.96528e-05
0.000848491
-1.30658e-05
2.28531e-05
0.000883787
0.000914414
-2.15942e-05
9.85819e-06
0.000853824
0.000850123
-4.38263e-07
-9.22667e-06
0.000861456
0.000860506
2.103e-05
-2.43134e-05
0.000849106
0.00085589
1.47779e-05
-3.06645e-05
0.000915763
0.000877788
-0.000799492
0.00086275
-9.39388e-05
0.000735898
-0.000686952
-0.000126133
-0.000113951
0.000651099
-0.000626588
-0.000138318
-0.000133008
0.00060806
-0.000594836
-0.000141615
-0.000140202
0.000584068
-0.000575297
-0.000141928
-0.000142494
0.000568269
-0.000560952
-0.000141649
-0.000141521
0.000554992
-0.000551136
-0.000137799
-0.000139969
0.000548767
-0.000547863
-0.000132212
-0.000135124
0.00054782
-0.000547888
-0.000127382
-0.000129592
0.000547538
-0.000545175
-0.000122281
-0.000125018
0.000537929
-0.000522567
-0.000112962
-0.000118551
0.000496891
-0.00046342
-8.82795e-05
-0.000102629
0.000432703
-0.000409467
-4.50313e-05
-6.54882e-05
-2.79842e-05
0.000384656
-0.000385668
2.68903e-05
2.28198e-05
0.000385033
-0.000385741
2.54996e-05
2.80307e-05
1.59021e-05
-2.94058e-05
3.44858e-05
-0.000363191
-0.000356659
1.30358e-05
-0.000404669
-0.000367805
3.58031e-05
0.000420592
-0.000408741
-1.10217e-05
0.000438859
-3.05151e-05
-0.000399053
4.33885e-06
0.000681465
-0.000653001
-0.00014772
0.000724186
-0.00014236
-2.13683e-05
2.38505e-05
0.000913289
-7.07882e-05
0.000912161
-5.20548e-05
-0.000362939
-2.58438e-05
-0.000366891
-1.93197e-05
-0.000372554
6.04687e-05
-0.000397658
-4.69723e-05
-0.000403236
0.000403008
6.06987e-05
-4.81276e-05
-0.000410312
5.52052e-05
-0.000406164
-3.9619e-05
4.11933e-05
-3.34399e-05
-0.000370941
3.94718e-06
-0.000397915
-2.85137e-05
-0.000384266
-0.000387881
4.31407e-05
4.28981e-05
-0.000369507
-0.000396616
-3.78127e-05
0.000378076
-0.000376562
3.42918e-05
-0.000381629
0.000389868
1.90871e-05
2.88573e-05
-0.000404503
0.00042357
-1.09594e-05
4.29934e-06
-0.000448016
0.000478479
-5.22602e-05
-3.00386e-05
-0.000508712
0.000532889
-9.00282e-05
-7.2697e-05
-0.000548222
0.000555174
-0.000109267
-0.000101822
-0.000557749
0.000557835
-0.000117784
-0.000114128
-0.000557475
0.000557098
-0.000123723
-0.000120866
-0.000557286
0.000558051
-0.000130153
-0.000126822
-0.000559126
0.000560371
-0.000136668
-0.000133483
-0.000561926
0.000564169
-0.000142563
-0.000139749
-0.000567229
0.000572202
-0.000146983
-0.000145065
-0.000578622
0.000585161
-0.000149456
-0.000148803
-0.00059305
0.000603016
-0.000151082
-0.00015024
-0.000615381
0.000631285
-0.000151135
-0.000151761
-0.000150139
2.41559e-05
-7.77124e-05
0.000902068
-2.18949e-05
3.09898e-05
0.000874702
0.000916679
-2.14527e-05
9.11011e-06
0.000866189
0.000859678
-3.00909e-08
-8.79567e-06
0.0008703
0.000869606
2.03576e-05
-3.14158e-05
0.000860177
0.000867466
0.000870235
-0.0006903
0.000736223
-0.00013987
0.000658455
-0.000635219
-0.000149373
-0.000145801
0.000617848
-0.000604848
-0.00015132
-0.000150382
0.000594221
-0.000585826
-0.000150011
-0.00015083
0.000579137
-0.000572273
-0.000148793
-0.000149183
0.000566799
-0.000563411
-0.000145037
-0.000146995
0.000560899
-0.000559089
-0.000139607
-0.000142481
0.000557796
-0.000556846
-0.000133161
-0.000136416
0.000556645
-0.00055715
-0.000126875
-0.000129792
0.000557982
-0.000558434
-0.000121828
-0.000124186
0.000557866
-0.000554414
-0.000116412
-0.000119118
0.000544408
-0.000526339
-0.000106346
-0.000112633
0.000498587
-0.000465909
-7.77015e-05
-9.32345e-05
-5.50259e-05
0.000394231
-0.000392054
2.47175e-05
1.80016e-05
0.00039162
-0.000392155
2.60383e-05
2.76001e-05
0.000395943
-0.000440782
2.6597e-05
1.96937e-05
6.15298e-05
-0.000386147
-0.000375518
4.18565e-05
-0.00013402
0.000780511
0.000795716
-0.000130293
-0.000474482
0.000504205
-6.02309e-05
-0.000449978
-3.55178e-05
-5.45398e-05
5.19803e-05
-0.000366944
-6.29687e-05
-0.000362508
-0.000332047
-0.000124673
-2.67965e-05
-0.000361982
-1.45722e-05
-0.000371636
-1.86136e-05
-0.000382451
-4.35463e-05
5.17983e-05
-0.000418562
-0.000414146
-3.55622e-05
-5.54952e-05
9.36985e-05
-0.000405425
0.000367222
-0.000403204
-3.30295e-05
-0.000189977
-0.000158118
0.000186663
0.000161431
-2.77045e-05
-0.000394371
4.91355e-05
-0.000372671
0.000387964
-0.000385172
4.63452e-05
-0.00039307
0.000400093
2.72702e-05
3.67521e-05
-0.000412819
0.000433482
-1.57631e-06
1.61321e-05
-0.000456884
0.000484091
-3.81664e-05
-1.91036e-05
-0.000514077
0.000539194
-7.73749e-05
-6.00237e-05
-0.000557138
0.000565943
-9.88268e-05
-9.06358e-05
-0.000569427
0.000569864
-0.000109697
-0.000105299
-0.000569381
0.00056845
-0.000116847
-0.000113639
-0.000567787
0.000567802
-0.000123732
-0.000120197
-0.000568309
0.00056892
-0.00013076
-0.000127325
-0.000569486
0.000569998
-0.000137176
-0.000134045
-0.000570443
0.00057099
-0.000143107
-0.000140191
-0.00057193
0.000573752
-0.000148801
-0.000146002
-0.000576577
0.000581098
-0.000153974
-0.000151625
-0.000587234
0.000594469
-0.000158313
-0.000156373
-0.000602098
0.000611644
-0.000160676
-0.000159387
-0.000623375
0.000637739
-0.000162078
-0.000161867
-0.00065706
0.00068266
-0.000159612
-0.000161674
0.000116542
-0.0001551
0.000721231
-5.02102e-05
2.23412e-05
0.000929941
0.000846871
-3.11973e-05
3.45709e-05
0.00087134
0.000907826
-2.08137e-05
8.94638e-06
0.000878077
0.000873455
2.39231e-07
-8.8835e-06
0.000878963
0.000878812
1.99724e-05
-3.36563e-05
0.000873873
0.000878569
3.37227e-05
-2.45196e-05
0.000904094
0.000870313
4.50036e-05
-0.000111107
0.000861804
0.000932646
-0.00069018
0.000732161
-0.000153095
0.000662325
-0.000641382
-0.000160816
-0.000158153
0.000625848
-0.000613631
-0.000161591
-0.000161338
0.00060356
-0.000595581
-0.0001593
-0.000160454
0.000588253
-0.000581731
-0.000156533
-0.00015816
0.000576757
-0.000573678
-0.000151872
-0.000154158
0.000571646
-0.000570515
-0.000146168
-0.000149027
0.000569834
-0.000569278
-0.000140162
-0.000143161
0.00056868
-0.000568061
-0.000133779
-0.000137013
0.000567417
-0.000567331
-0.000126961
-0.000130435
0.000567934
-0.000569154
-0.000120607
-0.000123582
0.00057
-0.000570737
-0.000115674
-0.000118272
0.000569822
-0.000565687
-0.00011048
-0.000113547
0.000553166
-0.000532879
-9.79856e-05
-0.000105754
-8.3694e-05
0.000415833
-0.000406701
1.55895e-05
-0.000431959
-1.36736e-05
1.88149e-06
0.000400062
-0.000401487
2.74665e-05
2.09651e-05
0.000409961
-0.000425976
4.26149e-05
2.81713e-05
0.000414933
-0.000413317
5.90851e-05
5.0489e-05
0.000416412
-0.000423934
5.93219e-05
5.83018e-05
0.0004482
6.43998e-05
-2.80666e-05
0.000432973
-4.66009e-05
6.1829e-05
5.08204e-05
-0.000428475
-4.09059e-05
5.98607e-05
-0.00035428
8.03857e-05
0.000189751
-8.56968e-05
-0.000184438
5.52777e-05
-5.62113e-05
-0.000371734
-0.000383639
5.3747e-05
-4.42121e-06
-0.000354419
-0.000118117
-0.000121869
0.000636524
-0.000624931
-0.000171201
0.000652052
-0.000170621
-8.78213e-05
3.56945e-05
0.000913919
-0.000143566
0.000787895
-9.65589e-06
-0.000366895
-0.00043908
-3.59949e-05
-1.12397e-05
-0.000379006
-0.000422722
-3.23276e-05
-0.000410839
-2.79242e-05
-1.74757e-05
-0.000392677
-2.50566e-05
-0.000402341
0.00015168
-0.000135397
0.000128228
-0.000191629
-0.000142471
0.000144124
0.000111303
-0.000119364
-0.000183566
0.000201049
0.000147932
-0.000237674
0.000471558
-0.000173085
-0.000450486
0.000152022
0.000175894
-0.000153975
-0.00017154
0.000149624
-5.89572e-05
-0.000364195
-6.30163e-05
-0.000358445
-7.88116e-05
-0.00024114
0.000114428
0.000205525
5.68973e-05
-5.48448e-05
-0.000366244
0.000448524
9.2955e-05
-0.000477078
0.000437695
7.26588e-05
6.63756e-05
-3.62852e-05
-0.000344943
0.000314856
6.73741e-05
-0.000342357
5.81688e-05
-0.000373003
-0.000204197
0.000205773
-0.000380796
5.53276e-05
0.000256247
-0.000406177
-0.000200896
0.00035083
6.05956e-05
-5.83045e-05
-0.000375292
-0.000381699
6.14999e-05
0.000134515
-0.000141541
0.000158709
0.000383854
-9.91927e-05
-0.000389844
0.000105184
6.29754e-05
-6.01787e-05
-0.000384494
-0.000402701
0.000398345
6.73325e-05
-7.31645e-05
5.43186e-05
-0.000397951
0.000397967
5.53132e-05
6.18949e-05
-0.000403482
0.000412075
3.7753e-05
4.82325e-05
-0.000425053
0.000445753
6.56897e-06
2.37737e-05
-0.000469142
0.000494178
-2.66145e-05
-7.25906e-06
-0.000521647
0.000548309
-6.48277e-05
-4.65733e-05
-0.000566652
0.000577209
-8.79278e-05
-7.83628e-05
-0.000581592
0.000582746
-9.99756e-05
-9.50135e-05
-0.000582481
0.000581486
-0.000108697
-0.000105029
-0.00058041
0.000579918
-0.00011635
-0.000112558
-0.000579935
0.000580042
-0.000123836
-0.00012021
-0.000580089
0.000580061
-0.00013073
-0.000127369
-0.000579908
0.000579696
-0.000136962
-0.000133889
-0.000579422
0.000579212
-0.000142895
-0.000139914
-0.000579104
0.000579331
-0.000149027
-0.000145892
-0.000579984
0.000581592
-0.00015558
-0.000152277
-0.000584173
0.000587967
-0.000162105
-0.000158952
-0.000593537
0.000600413
-0.000167549
-0.000164955
-0.00060731
0.000615287
-0.000170053
-0.000168761
-0.000171314
9.46843e-05
-0.00014677
0.000773335
-3.93675e-05
3.2897e-05
0.000936408
0.000902214
-4.20127e-05
3.50944e-05
0.000878271
0.000898714
-2.11023e-05
9.16997e-06
0.000890031
0.000887467
2.50059e-07
-9.19145e-06
0.000887923
0.000888252
2.04909e-05
-3.43806e-05
0.000887775
0.000889884
4.35212e-05
-3.43089e-05
0.00089489
0.000879464
0.000934039
-0.000639828
0.000656581
-0.000169852
0.000627478
-0.000617304
-0.000170992
-0.000170505
0.000608805
-0.000601897
-0.0001685
-0.000169838
0.000594767
-0.000588929
-0.000165139
-0.000167585
0.000584733
-0.000581936
-0.00015933
-0.000162356
0.000580138
-0.000579371
-0.00015264
-0.000155956
0.000579088
-0.000579136
-0.00014612
-0.00014931
0.000579303
-0.000579509
-0.000139956
-0.000142993
0.000579644
-0.000579702
-0.000133722
-0.000136878
0.000579632
-0.000579465
-0.000127128
-0.000130504
0.000579464
-0.000579994
-0.000120077
-0.000123583
0.000580969
-0.000582676
-0.000113968
-0.000117296
0.000583857
-0.000584623
-0.000109714
-0.000112366
0.000582247
-0.000577147
-0.000103085
-0.00010813
0.00056469
-0.000541924
-8.29938e-05
-9.61506e-05
0.000513647
-0.000485207
-4.21084e-05
-6.37901e-05
0.000461689
-0.000440604
-5.48924e-06
-2.16307e-05
0.000428181
-0.000421307
2.05957e-05
8.54655e-06
0.000425728
-0.000425963
4.28529e-05
3.2595e-05
0.000424983
-0.00042296
5.70645e-05
4.95118e-05
0.000425474
-0.000430375
6.42242e-05
6.08177e-05
6.71811e-05
-0.000190824
-0.000151674
0.000200028
-0.000178783
-0.000131404
-0.000126685
0.000119014
-0.000349918
-0.000346632
0.000305929
-0.000143105
0.000190136
-0.000198705
0.000486144
0.000315912
-0.000307967
-0.000494087
-0.000446801
2.03795e-05
5.21985e-05
0.000374211
-0.000409404
-2.06698e-05
-0.000167954
0.000673245
0.0006799
-0.00016689
0.000217297
0.000127877
-5.41709e-05
-0.000359115
-3.60811e-05
4.72379e-05
-0.00035351
-2.13246e-05
-0.000359696
2.39716e-06
-0.000366469
-0.000444236
-2.2909e-05
0.000187247
-0.000212315
-0.000209346
0.000234419
-5.36758e-05
-0.000370869
-0.000453899
0.000445892
8.06673e-05
9.63253e-05
-0.000457268
0.000144101
-0.000384033
-0.000237145
-6.97913e-07
-0.000377433
-0.000431073
-2.76417e-05
-0.000417985
-2.51792e-05
-5.71708e-05
-0.000378297
-9.67842e-05
-0.000916234
0.000135264
0.000877761
-7.98747e-06
-0.000388491
-0.000602149
0.000732549
-0.000308218
0.000177819
-7.16237e-05
-0.000386033
0.000180617
0.000154566
-1.57511e-05
-0.000401979
-0.000409716
-2.05468e-05
-0.000110842
0.000184554
0.000116039
-0.000135433
0.000189558
-0.000197231
7.08383e-05
-5.21033e-05
-0.000428139
-0.000157479
0.000199389
-0.000163751
0.000196405
0.000130794
-0.000127289
-0.000128613
-0.000417064
0.000417051
6.73457e-05
7.93554e-05
-0.000442101
-0.00042018
0.00042778
4.7713e-05
5.87656e-05
-0.000440699
0.0004597
1.87489e-05
3.53118e-05
-0.00048535
0.00050992
-1.80035e-05
-1.87832e-06
-0.000536195
0.00056041
-5.08289e-05
-3.35353e-05
-0.000578608
0.000589393
-7.56085e-05
-6.4769e-05
-0.000594532
0.000596226
-8.96173e-05
-8.34982e-05
-0.000596268
0.000595571
-9.92738e-05
-9.5052e-05
-0.000594344
0.000593607
-0.000107957
-0.000103798
-0.000593214
0.000592877
-0.00011601
-0.000112162
-0.000592477
0.000591984
-0.000123341
-0.000119809
-0.000591326
0.00059056
-0.000129962
-0.000126709
-0.000589708
0.000588822
-0.000136075
-0.000133035
-0.000587942
0.000587126
-0.000142078
-0.000139034
-0.00058639
0.000585826
-0.000148463
-0.000145155
-0.000585407
0.000585314
-0.000155486
-0.000151858
-0.000585494
0.000586249
-0.000162859
-0.000159132
-0.000587758
0.000590018
-0.000169808
-0.000166463
-0.000593801
0.000598565
-0.000174814
-0.000172543
-0.000602917
0.000607644
-0.000175925
-0.000175663
-0.000613431
0.000621003
-0.00017552
-0.000176403
0.000162264
-0.000173459
0.000632205
-0.000128839
6.69905e-05
0.000835211
0.000706682
-3.50542e-05
4.24724e-05
0.000928987
0.000934155
-4.93593e-05
3.44194e-05
0.000893225
0.000891832
-2.16167e-05
9.81509e-06
0.000901854
0.00090029
2.09823e-07
-9.99681e-06
0.000897731
0.000898297
2.13606e-05
-3.40875e-05
0.000900513
0.000901264
4.90451e-05
-4.47671e-05
0.000890621
0.00089443
3.638e-05
-6.16808e-05
0.000939218
0.00092566
0.000122066
-0.000159431
0.000717257
0.000848264
-0.000624147
0.000637005
-0.000172293
0.000615817
-0.000609522
-0.00017615
-0.000175222
0.000604278
-0.000599957
-0.000175315
-0.000175751
0.000594929
-0.000590771
-0.00017266
-0.000174867
0.000588341
-0.000586672
-0.000166809
-0.000170015
0.000585816
-0.000585586
-0.00015956
-0.000163212
0.000585668
-0.000586073
-0.000152235
-0.000155874
0.000586632
-0.000587343
-0.000145409
-0.000148751
0.000588107
-0.000588963
-0.000139099
-0.000142229
0.000589783
-0.000590537
-0.000132967
-0.000136058
0.000591214
-0.000591796
-0.000126546
-0.000129827
0.00059216
-0.000592323
-0.000119914
-0.000123219
0.000593232
-0.000593605
-0.000113595
-0.000116388
0.000595373
-0.000596715
-0.000108373
-0.000110598
0.000599211
-0.000599403
-0.000102893
-0.000105635
0.000598129
-0.000591602
-8.95211e-05
-9.74254e-05
0.000576497
-0.000553478
-6.51245e-05
-7.88951e-05
0.000525662
-0.000500063
-3.10826e-05
-4.94412e-05
0.000477652
-0.000459812
2.76137e-06
-1.38586e-05
0.000447478
-0.000441007
3.63846e-05
2.02652e-05
0.000437462
-0.000438257
5.78615e-05
4.59697e-05
0.000438386
-0.000441175
6.70145e-05
6.09496e-05
7.18991e-05
-0.000284443
0.00012857
-0.000113648
0.000269519
0.000119515
-0.000166681
-0.000451782
0.000281546
0.000336917
-9.46099e-07
3.98488e-06
-0.000244176
-0.000191037
-0.000356847
-0.000365556
-0.000151203
0.000224111
0.000126477
0.000415743
-0.000417632
-1.87798e-05
-8.36674e-06
-0.000281551
0.000168943
0.000241177
-0.000228877
0.000149529
0.000175763
-9.64253e-05
-0.000141354
-0.000143607
0.000149568
-4.66826e-05
-0.000366105
-0.000461248
0.000459267
8.26498e-05
-0.000459306
9.43842e-05
0.000114174
-0.000427341
8.01553e-06
-0.000375179
-2.75036e-05
3.92447e-05
-0.000365247
-1.68648e-05
-0.000370331
-9.99205e-05
0.000274173
-0.000287906
-0.000432721
-2.12598e-05
-0.000132087
0.000129751
0.000580618
-0.000581283
-0.000174851
0.000580414
-0.000173249
-0.00014633
9.44719e-05
0.000769106
-0.000167073
0.000657744
-0.000423125
-2.2499e-05
0.000180214
-2.77325e-05
5.62448e-05
-0.000208723
-5.28302e-05
-0.000375206
0.000117416
-0.00040775
-0.000146475
0.000170328
0.000110663
-0.000120745
-0.000127072
-0.000114956
0.000118927
0.000118458
0.000121399
-0.000129699
-0.000110161
-0.000183931
0.000220662
-0.000109196
7.24523e-05
1.91399e-07
-0.000385609
0.000347416
-0.000341751
-0.000205158
0.000199479
0.000221012
0.000324849
-0.00032346
-0.000222412
0.000283816
-0.000115105
0.000100803
1.87921e-05
-3.13315e-05
-0.000185462
0.000178874
-0.000359881
-0.000184543
0.000365538
0.000172554
-0.000375515
0.000381831
-6.54241e-05
-0.000384494
8.8928e-05
-0.000423514
-0.000171084
0.000146804
0.000175026
-0.000150755
0.000159257
-0.00015537
-0.000174979
0.000178737
0.000156961
-0.00017645
0.000182185
0.000143348
-0.000309308
0.000354272
2.1948e-05
-6.69227e-05
-7.67281e-06
-0.000396566
-0.000415914
-1.89779e-05
-8.80218e-05
-0.000397202
-0.000105029
0.000170646
-0.00017646
-1.4183e-05
-0.00040834
0.000294242
0.00024298
-0.000292537
-0.000244686
-0.00027057
0.000272123
0.000292693
0.00035093
0.000217486
-0.000124656
-0.000431868
-0.00012935
0.000178468
0.000244332
0.000323493
-0.000151117
0.000176919
-0.000183683
-0.000430272
-3.94621e-05
0.000130522
-0.000130974
7.56875e-05
-6.21293e-05
-0.000441696
0.000552813
0.000175001
-0.000436353
0.00044876
5.4937e-05
7.38752e-05
-0.000430874
-0.000461102
0.00047977
2.90411e-05
4.64217e-05
-0.00050159
0.000527741
-7.4045e-06
1.3488e-05
-0.000550551
0.000574411
-4.18647e-05
-2.46905e-05
-0.00059177
0.000602903
-6.19586e-05
-5.0893e-05
-0.000608009
0.000610164
-7.77591e-05
-6.98722e-05
-0.000610532
0.000610027
-8.9109e-05
-8.38638e-05
-0.000608846
0.000608283
-9.87092e-05
-9.3868e-05
-0.000607531
0.000606882
-0.000107306
-0.000103044
-0.000606004
0.000605105
-0.00011511
-0.000111282
-0.000604022
0.000602742
-0.000122061
-0.000118725
-0.000601369
0.000599869
-0.000128463
-0.000125335
-0.000598337
0.000596756
-0.000134494
-0.000131502
-0.000595203
0.000593705
-0.00014058
-0.000137481
-0.000592307
0.000590954
-0.000147112
-0.000143757
-0.000589648
0.000588327
-0.000154166
-0.000150551
-0.000586937
0.000585524
-0.000161446
-0.000157743
-0.000584024
0.000582695
-0.000168478
-0.000164962
-0.000581735
0.000581124
-0.000174201
-0.000171581
-0.000581195
0.000581837
-0.000176563
-0.000175731
-0.000175845
0.00015064
-0.000168608
0.000650182
-0.000102091
5.23388e-05
0.000884986
0.000755246
-4.54218e-05
5.52141e-05
0.000919195
0.000941068
-5.0153e-05
3.52493e-05
0.000908147
0.000896899
-2.21263e-05
1.06616e-05
0.000913341
0.000913434
1.57741e-07
-1.09686e-05
0.000908563
0.000909137
2.22806e-05
-3.50603e-05
0.000913304
0.000912593
4.96234e-05
-5.65896e-05
0.000897594
0.000909
4.59951e-05
-4.59517e-05