/*--------------------------------*- C++ -*----------------------------------*\
| =========                 |                                                 |
| \\      /  F ield         | OpenFOAM: The Open Source CFD Toolbox           |
|  \\    /   O peration     | Version:  2212                                  |
|   \\  /    A nd           | Website:  www.openfoam.com                      |
|    \\/     M anipulation  |                                                 |
\*---------------------------------------------------------------------------*/
FoamFile
{
    version     2.0;
    format      ascii;
    arch        "LSB;label=32;scalar=64";
    class       volScalarField;
    location    "0.081";
    object      p;
}
// * * * * * * * * * * * * * * * * * * * * * * * * * * * * * * * * * * * * * //

dimensions      [1 -1 -2 0 0 0 0];

internalField   nonuniform List<scalar> 
31661
(
504.063
39.05
41.0922
39.958
39.1652
40.9799
39.9406
39.3218
40.9464
39.9818
475.182
54.3087
684.19
320.573
459.884
446.832
473.334
469.367
56.9597
436.593
79.2177
80.0403
244.404
410.378
42.642
79.2422
240.631
209.662
54.8456
58.4038
402.843
95.8485
95.8636
63.5173
82.0236
386.369
65.4634
383.844
226.639
93.6223
96.6763
38.1364
361.45
98.8394
102.165
59.334
100.359
81.043
65.0776
258.676
94.4328
245.128
62.319
77.6503
191.445
54.072
63.7379
68.8699
64.1807
57.6329
57.572
56.5402
92.427
34.5189
73.0632
389.712
615.586
58.3284
54.0859
49.8099
51.7524
45.5762
41.9383
39.7886
37.5365
35.9046
34.3801
33.2327
32.2201
31.4543
30.8112
30.3359
29.9595
29.6967
29.7935
30.0738
30.4652
30.9656
31.6233
32.4195
33.4327
34.6127
36.0953
37.7733
39.8566
42.1514
44.8451
47.8065
50.6831
54.2539
58.1833
62.304
66.3387
70.2801
70.2821
75.18
74.6119
79.8281
78.9489
84.1329
83.0658
88.017
86.8661
91.4412
90.2947
94.4
93.3233
96.9216
95.9572
99.0545
98.2243
100.856
100.164
102.387
101.825
103.704
103.257
104.859
104.508
105.894
105.623
106.846
106.638
107.744
107.587
108.614
108.497
109.482
109.394
110.366
110.3
111.286
111.239
112.261
112.229
113.312
113.295
114.468
114.462
115.769
115.768
117.283
117.295
119.161
119.185
121.825
121.86
126.232
126.263
135.007
135.062
152.505
152.529
183.92
183.918
222.198
222.254
251.151
251.297
266.329
266.195
266.03
250.777
221.596
183.37
152.261
134.984
126.282
121.91
119.251
117.366
115.842
114.534
113.368
112.306
111.321
110.391
109.495
108.614
107.724
106.805
105.828
104.76
103.565
102.199
100.609
98.7401
96.5331
93.9339
90.9
87.4062
83.4571
79.0822
74.3157
69.167
64.0957
58.7749
53.9683
49.5059
45.8846
42.773
40.2075
37.9885
36.1992
34.6562
33.4312
32.3992
29.593
29.5083
31.5937
30.9371
30.4405
30.0521
29.7736
29.4144
29.4857
29.7014
29.8501
30.0901
30.4197
30.8597
31.4226
32.1373
33.0114
34.0801
35.3489
36.8551
38.6138
40.6471
42.957
45.5735
48.4225
51.4059
54.6409
58.117
61.6767
65.2828
69.0548
72.9089
76.7703
80.5533
84.1901
87.6154
90.7848
93.6572
96.219
98.4716
100.437
102.146
103.637
104.952
106.131
107.21
108.224
109.203
110.175
111.166
112.201
113.307
114.51
115.851
117.406
119.322
122.008
126.396
135.113
152.404
183.613
221.986
251.221
266.422
272.043
271.867
271.765
271.761
271.824
265.866
250.238
220.67
182.497
151.908
134.994
126.443
122.12
119.459
117.551
115.999
114.66
113.461
112.364
111.341
110.368
109.422
108.479
107.514
106.499
105.402
104.187
102.813
101.235
99.4045
97.2782
94.8154
91.9888
88.7887
85.2268
81.3343
77.1589
72.7649
68.236
63.6576
58.9461
54.6048
50.5717
47.0264
43.9254
41.2897
38.9876
37.0624
35.4294
34.0834
32.973
32.0795
31.3624
29.5753
30.7994
30.3619
30.0354
29.6043
29.4301
29.4712
29.3667
29.5873
29.8731
29.9249
30.0666
30.2865
30.5949
31.004
31.5322
32.1931
33.0114
33.999
35.1813
36.5691
38.1825
40.0186
42.095
44.3879
46.9185
49.565
52.282
55.1161
58.0388
61.0117
63.9979
67.1352
70.3804
73.6948
77.0575
80.4293
83.7783
87.0388
90.1492
93.0525
95.7095
98.1006
100.222
102.093
103.741
105.201
106.512
107.715
108.846
109.941
111.033
112.153
113.33
114.599
116
117.607
119.566
122.267
126.614
135.144
152.078
182.804
221.203
250.887
266.466
272.263
272.218
271.996
271.824
271.734
271.748
271.848
272.039
271.919
265.674
249.495
219.379
181.311
151.439
135.028
126.723
122.458
119.785
117.836
116.232
114.837
113.579
112.418
111.323
110.266
109.22
108.155
107.039
105.838
104.513
103.023
101.326
99.3842
97.1635
94.6463
91.8269
88.7249
85.3762
81.8329
78.1477
74.3779
70.5709
66.756
62.9012
59.0284
55.3544
51.8157
48.5418
45.5543
42.9099
40.5422
38.4929
36.7148
35.2252
33.9837
32.9668
32.1342
31.4674
29.8028
30.9388
30.5326
29.4147
29.8437
29.5784
29.6591
29.4188
29.3541
29.8414
30.1807
30.2025
30.2715
30.4017
30.6215
30.9288
31.3362
31.8585
32.5117
33.3133
34.2808
35.4278
36.7649
38.302
40.0348
41.9518
44.0434
46.2627
48.6033
50.9469
53.281
55.6244
57.9568
60.2964
62.6464
65.1045
67.687
70.3987
73.2501
76.2382
79.3431
82.5237
85.7221
88.863
91.8769
94.7078
97.3126
99.6684
101.775
103.648
105.318
106.822
108.205
109.507
110.769
112.03
113.327
114.702
116.196
117.885
119.908
122.633
126.916
135.173
151.544
181.52
219.917
250.264
266.437
272.524
272.49
271.548
271.286
271.082
270.933
270.869
270.906
271.021
271.211
271.468
272.302
272.047
265.407
248.499
217.666
179.788
150.878
135.107
127.114
122.919
120.222
118.21
116.529
115.048
113.696
112.429
111.215
110.016
108.8
107.528
106.162
104.659
102.979
101.082
98.9369
96.5265
93.8485
90.9232
87.7926
84.5203
81.1711
77.8176
74.506
71.2751
68.1389
65.0766
62.039
59.0098
56.0699
53.1258
50.2751
47.536
44.9811
42.6052
40.4509
38.5274
36.8749
35.4604
34.2658
33.2669
32.4487
31.7919
30.2291
31.2668
29.4265
29.6372
30.0162
30.1786
29.9181
29.5854
29.4037
29.3788
30.262
30.5791
30.5829
30.6173
30.6783
30.8315
31.0654
31.3885
31.8141
32.3548
33.027
33.8454
34.8244
35.9757
37.3059
38.8172
40.4997
42.33
44.2765
46.3024
48.362
50.4143
52.3792
54.2791
56.1077
57.9106
59.6667
61.435
63.2922
65.271
67.3996
69.7057
72.2083
74.9134
77.8082
80.8602
84.009
87.1939
90.3389
93.3664
96.2137
98.8457
101.238
103.393
105.334
107.095
108.72
110.253
111.74
113.229
114.762
116.403
118.214
120.33
123.096
127.3
135.211
150.849
179.809
218.12
249.331
266.313
272.814
272.803
271.857
269.414
269.159
268.95
268.796
268.699
268.677
268.74
268.865
269.036
269.257
271.78
272.621
272.188
265.036
247.2
215.53
177.947
150.235
135.238
127.608
123.49
120.754
118.653
116.861
115.253
113.754
112.328
110.923
109.499
108.013
106.421
104.679
102.744
100.585
98.1814
95.527
92.6447
89.5739
86.3744
83.122
79.9003
76.7685
73.7833
70.9705
68.3356
65.8586
63.5006
61.2079
58.934
56.6841
54.3719
52.0305
49.6721
47.334
45.0491
42.868
40.8479
39.0342
37.422
36.0133
34.809
33.8078
32.9749
30.8642
32.2916
269.521
31.746
29.5189
30.5608
29.7293
29.8825
30.0188
29.56
30.6503
30.3611
29.4202
29.477
30.751
31.0832
31.0316
31.0435
31.0648
31.1743
31.3425
31.601
31.9532
32.4109
32.9887
33.6997
34.5586
35.5748
36.7592
38.1132
39.63
41.294
43.0722
44.9252
46.8093
48.6683
50.472
52.1704
53.7384
55.201
56.5738
57.9038
59.1718
60.4735
61.8498
63.3325
64.9548
66.7498
68.7468
70.9691
73.4287
76.1234
79.0313
82.114
85.3131
88.5537
91.7601
94.8562
97.7837
100.502
102.995
105.271
107.357
109.293
111.126
112.908
114.694
116.535
118.536
120.792
123.629
127.759
135.261
150.027
177.702
215.803
248.049
266.06
273.092
273.161
272.2
269.684
265.282
265.236
265.167
265.101
265.049
265.016
265.016
265.051
265.116
265.198
265.294
265.395
269.814
272.129
272.977
272.314
264.53
245.556
212.927
175.828
149.521
135.419
128.194
124.147
121.35
119.123
117.17
115.369
113.667
111.989
110.293
108.527
106.644
104.597
102.35
99.8776
97.1718
94.2536
91.1572
87.9431
84.6907
81.4702
78.3585
75.4202
72.6898
70.1899
67.9133
65.8424
63.9463
62.1796
60.4964
58.8436
57.179
55.4538
53.6381
51.7305
49.7303
47.6683
45.5912
43.5649
41.6456
39.855
38.2351
36.82
35.5964
34.5385
33.6647
32.9399
265.488
32.3543
31.3225
29.619
30.3456
29.8614
29.8394
30.1598
29.5547
30.5072
29.5117
31.1785
30.8919
29.585
260.603
260.787
260.91
260.99
261.04
261.068
261.082
261.086
261.079
261.059
261.014
260.934
260.809
265.556
270.122
272.492
273.341
272.383
263.839
243.528
209.844
173.444
148.756
135.642
128.844
124.85
121.951
119.537
117.343
115.291
113.267
111.222
109.1
106.852
104.434
101.817
98.9889
95.9621
92.7723
89.4798
86.1564
82.8775
79.7216
76.751
74.0043
71.5083
69.2659
67.2668
65.4913
63.9075
62.4823
61.1748
59.9561
58.804
57.5841
56.3438
55.007
53.5547
51.9625
50.236
48.3937
46.4908
44.573
42.6893
40.925
39.3067
37.8356
36.5497
35.4353
34.4862
33.6971
31.8875
33.0552
260.619
31.3117
31.6463
31.5513
31.5326
31.5484
31.6062
31.7169
31.9243
32.2178
32.6098
33.1129
33.7406
34.5058
35.4209
36.4938
37.7299
39.1259
40.6686
42.3333
44.0828
45.8695
47.64
49.3469
50.9473
52.4244
53.7524
54.9456
56.0222
57.0298
57.9693
58.925
59.8475
60.8399
61.9267
63.1354
64.4927
66.0285
67.7708
69.7452
71.9713
74.4581
77.1999
80.1738
83.3383
86.6303
89.9792
93.3029
96.529
99.599
102.475
105.147
107.629
109.955
112.168
114.325
116.49
118.731
121.211
124.173
128.257
135.317
149.093
175.233
212.935
246.363
265.639
273.324
273.552
272.562
269.944
265.282
260.339
30.9989
29.7711
32.5437
31.5372
30.2254
30.0198
29.8153
30.3271
29.6219
30.6755
29.6151
31.06
29.7399
31.7603
31.4741
260.342
265.58
270.421
272.847
273.694
272.381
262.902
241.029
206.271
170.827
147.936
135.875
129.496
125.509
122.423
119.744
117.251
114.797
112.319
109.759
107.069
104.212
101.173
97.9585
94.6017
91.1589
87.7037
84.3105
81.0596
78.0061
75.1927
72.6489
70.3797
68.3713
66.6121
65.072
63.723
62.5354
61.4849
60.5489
59.6812
58.8024
57.9766
57.084
56.1412
55.0845
53.8963
52.5502
51.0403
49.3876
47.6132
45.7867
43.9746
42.2019
40.5486
39.0124
37.6553
36.4547
35.4265
34.5616
33.8577
32.1414
32.0691
32.0737
32.1098
32.1728
32.3345
32.5783
32.9164
33.3578
33.9166
34.6057
35.4373
36.4211
37.5633
38.8629
40.3113
41.8882
43.5616
45.2876
47.0149
48.6893
50.2652
51.7069
52.997
54.1355
55.125
55.9951
56.7691
57.4867
58.1566
58.8486
59.5421
60.2551
61.0124
61.8947
62.8992
64.0504
65.3719
66.8944
68.6449
70.6477
72.9213
75.4755
78.304
81.3864
84.6774
88.1172
91.6305
95.1386
98.5674
101.86
104.984
107.934
110.731
113.412
116.034
118.673
121.43
124.59
128.702
135.332
148.047
172.428
209.476
244.214
265.006
273.489
273.932
272.914
270.183
265.221
259.972
254.802
255.43
255.924
256.307
256.595
256.803
256.942
257.022
257.048
257.026
256.955
256.836
256.661
256.415
256.088
255.665
32.2445
255.118
32.1447
33.2803
31.9189
30.7696
29.9382
249.957
250.728
251.352
251.852
252.241
252.532
252.737
252.862
252.906
252.868
252.745
252.531
252.217
251.794
251.248
250.564
249.728
31.2765
30.1636
30.2088
32.3894
32.764
32.669
32.6398
32.6585
32.6884
32.8174
33.0167
33.3061
33.6961
34.1956
34.82
35.5808
36.4886
37.5508
38.7695
40.1391
41.6437
43.2563
44.9373
46.6382
48.3055
49.8876
51.3431
52.6457
53.783
54.7624
55.5973
56.308
56.9243
57.473
57.9725
58.4555
58.9216
59.4444
59.9883
60.5588
61.1906
61.8882
62.7274
63.7034
64.8472
66.1779
67.7267
69.5205
71.5848
73.9414
76.6016
79.5628
82.8014
86.2779
89.9307
93.6843
97.4597
101.183
104.802
108.285
111.634
114.871
118.054
121.275
124.733
128.917
135.199
146.83
169.28
205.383
241.526
264.108
273.56
274.274
273.23
270.381
265.066
259.474
254.021
248.719
32.8398
31.8493
29.8145
30.5239
29.7148
30.8768
29.767
31.2584
29.9124
31.668
32.1015
32.8867
32.5615
34.0598
33.5538
249.012
254.423
259.959
265.558
270.647
273.16
274.006
272.273
261.669
237.973
202.147
167.988
147.005
135.991
129.983
125.911
122.609
119.574
116.6
113.604
110.521
107.312
103.955
100.454
96.8394
93.1644
89.5004
85.9271
82.5165
79.3333
76.4114
73.7818
71.4391
69.384
67.5926
66.0399
64.6997
63.5407
62.5413
61.6805
60.938
60.2544
59.5992
58.9599
58.3682
57.7487
57.0872
56.3467
55.4987
54.5118
53.3616
52.0374
50.5365
48.9006
47.1703
45.3711
43.6069
41.9032
40.3335
38.8741
37.5867
36.4814
35.5394
34.749
34.1195
244.846
32.4893
33.5905
96.1434
243.701
30.6198
30.1417
245.8
246.589
247.23
247.743
248.133
248.409
248.578
248.639
248.592
248.434
248.159
247.761
247.229
246.55
245.716
244.713
243.522
31.106
30.1427
30.4205
33.975
33.3141
33.2426
33.249
33.2792
33.3598
33.5143
33.7646
34.1088
34.5592
35.1282
35.8275
36.6689
37.6611
38.8082
40.1078
41.5483
43.1071
44.7494
46.4303
48.0974
49.6982
51.1853
52.5251
53.6987
54.7042
55.55
56.2581
56.8481
57.3461
57.7752
58.157
58.5115
58.849
59.1856
59.5356
59.921
60.3962
60.8609
61.3862
61.9889
62.6718
63.5004
64.4865
65.6548
67.0254
68.6276
70.4976
72.6633
75.1463
77.9616
81.1094
84.5712
88.306
92.2553
96.3433
100.49
104.621
108.684
112.65
116.525
120.362
124.308
128.752
134.777
145.342
165.743
200.572
238.187
262.882
273.509
274.538
273.468
270.484
264.781
258.818
253.063
247.522
242.134
31.6409
29.8984
30.7437
33.2043
32.2452
29.851
31.0985
29.9356
31.4817
30.1192
31.8879
32.3176
32.7669
33.7122
239.774
238.471
34.9434
35.0635
242.344
247.866
253.546
259.424
265.412
270.757
273.369
274.212
271.998
260.064
234.264
197.431
164.895
145.908
135.927
130.167
125.952
122.241
118.661
115.064
111.383
107.591
103.689
99.7078
95.7002
91.7379
87.899
84.2584
80.8746
77.7909
75.0247
72.5763
70.4313
68.5775
66.9804
65.6106
64.4353
63.44
62.6008
61.8941
61.2636
60.7012
60.1618
59.6667
59.2376
58.8094
58.3807
57.9192
57.4066
56.8198
56.1288
55.3014
54.3137
53.1454
51.7948
50.2806
48.6071
46.876
45.1294
43.3904
41.7299
40.2265
38.8587
37.6555
36.614
35.7551
35.0174
34.4446
34.7403
34.1757
32.9064
33.9791
90.6432
30.5651
30.3608
240.875
241.797
242.559
243.171
243.639
243.974
244.178
244.253
244.198
244.012
243.689
243.223
242.603
241.821
240.868
239.73
238.395
236.852
31.0161
30.1439
30.6561
40.1437
33.8868
33.881
33.9044
33.9385
34.0762
34.2884
34.5926
34.9988
35.5179
36.1648
36.9471
37.8767
38.9592
40.1949
41.5756
43.0833
44.6881
46.3489
48.0159
49.636
51.1595
52.5464
53.7712
54.8243
55.7099
56.4432
57.0446
57.5381
57.9455
58.2884
58.5844
58.8495
59.096
59.3349
59.5788
59.8289
60.1033
60.3964
60.7573
61.1993
61.6472
62.1681
62.778
63.4821
64.3187
65.3413
66.5532
68.0008
69.7024
71.6899
74.0022
76.6661
79.6979
83.1025
86.8657
90.9504
95.2957
99.8246
104.454
109.107
113.726
118.298
122.886
127.766
133.739
143.355
161.673
194.878
234.02
261.229
273.252
274.663
273.572
270.462
264.334
257.978
251.91
246.122
240.534
235.09
31.5311
30
30.9864
32.0825
30.0104
31.3464
33.6358
32.7093
30.1395
31.7293
30.3417
32.1338
32.5568
32.9985
234.738
233.31
33.4534
33.9113
73.3733
34.3578
236.945
235.181
240.752
246.494
252.461
258.7
265.108
270.726
273.437
274.273
271.449
257.955
229.773
192.045
161.454
144.471
135.422
129.766
125.186
120.905
116.64
112.309
107.898
103.438
98.9871
94.6208
90.421
86.4621
82.8038
79.4847
76.5211
73.9106
71.6379
69.6784
67.9952
66.5573
65.3492
64.3258
63.4854
62.7698
62.1457
61.6051
61.1183
60.6505
60.2723
59.9356
59.6228
59.3179
59.0126
58.6915
58.3399
57.9416
57.4679
56.899
56.2004
55.3495
54.3197
53.1035
51.6914
50.1321
48.4659
46.7107
44.9548
43.2885
41.6833
40.2328
38.917
37.8131
36.8374
36.031
35.3604
34.8432
370.543
33.3867
34.4362
85.1077
60.1846
30.5363
30.6069
235.957
236.988
237.844
238.531
239.065
239.447
239.679
239.765
239.704
239.495
239.134
238.613
237.925
237.064
236.015
234.77
233.32
231.654
229.762
30.9797
30.2321
30.9115
61.1075
40.5991
34.5265
34.5477
34.5892
34.685
34.8576
35.1303
35.4991
35.9775
36.5752
37.3098
38.1831
39.2077
40.3849
41.71
43.1684
44.7351
46.3731
48.0361
49.6718
51.2292
52.6638
53.9442
55.0544
55.9928
56.7698
57.4036
57.9164
58.3303
58.6663
58.9429
59.1756
59.3769
59.5581
59.7269
59.8926
60.063
60.2439
60.442
60.6583
60.9065
61.1879
61.5418
61.9906
62.4572
62.9996
63.6448
64.4031
65.2951
66.3705
67.6764
69.2227
71.068
73.23
75.7443
78.649
81.9702
85.713
89.8657
94.3927
99.2299
104.295
109.496
114.759
120.05
125.513
131.664
140.527
156.809
187.998
228.727
258.978
272.688
274.644
273.532
270.26
263.698
256.933
250.546
244.506
238.71
233.097
227.635
31.4734
30.1451
31.25
32.0244
30.2021
31.6136
32.6013
30.3595
31.999
34.1366
33.2405
30.5908
32.4025
32.8235
229.742
228.217
33.2577
33.7011
34.1475
34.6035
231.652
229.753
233.161
238.909
244.885
251.151
257.767
264.611
270.534
273.363
274.189
270.529
255.214
224.323
185.828
157.474
142.405
134.084
128.299
123.187
118.215
113.218
108.198
103.212
98.3438
93.6842
89.3132
85.2936
81.6619
78.4301
75.5946
73.1373
71.0182
69.205
67.6812
66.3892
65.3211
64.433
63.6734
63.0272
62.4774
61.9872
61.5281
61.1595
60.8555
60.5833
60.3375
60.1046
59.888
59.6696
59.4446
59.2051
58.9334
58.6155
58.2287
57.754
57.1627
56.4263
55.5243
54.4308
53.151
51.7009
50.0873
48.3778
46.6559
44.9135
43.2708
41.7026
40.345
39.0943
38.0316
37.1356
36.3863
35.7846
35.3131
35.3267
33.9272
34.9532
35.0798
227.598
30.5317
30.8685
231.051
232.164
233.092
233.842
234.428
234.847
235.1
235.194
235.13
234.904
234.512
233.95
233.21
232.284
231.161
229.833
228.293
226.532
224.542
222.313
30.9717
30.3353
31.1866
35.4995
35.4569
35.2489
35.2388
35.3123
35.4561
35.7108
36.0539
36.4985
37.0593
37.7454
38.5757
39.5468
40.6707
41.9437
43.3547
44.8826
46.4945
48.1481
49.7932
51.3781
52.8558
54.1903
55.3593
56.3557
57.1853
57.8631
58.4094
58.8459
59.1939
59.472
59.6964
59.8803
60.0345
60.1677
60.2872
60.3991
60.5096
60.6237
60.7474
60.8862
61.0465
61.2325
61.445
61.6985
61.989
62.3663
62.8377
63.372
63.9729
64.6914
65.5449
66.5469
67.7296
69.1441
70.8495
72.8679
75.2526
78.0422
81.2566
84.9353
89.0886
93.7007
98.7342
104.118
109.767
115.594
121.619
128.095
136.427
150.783
179.417
221.739
255.84
271.706
274.475
273.337
269.861
262.858
255.681
248.969
242.664
236.651
230.861
225.262
219.839
31.46
30.3145
31.5327
31.9918
30.415
31.9019
35.7036
32.5574
30.6059
32.2895
33.1657
30.8547
32.6937
224.792
223.195
34.6901
33.8181
33.1119
33.5422
33.981
34.4269
34.8712
226.459
224.456
222.2
225.179
230.879
236.812
243.026
249.597
256.594
263.873
270.124
273.092
273.937
269.395
251.689
217.542
178.464
152.62
139.301
131.449
125.33
119.608
113.985
108.424
103.003
97.8191
92.9636
88.5058
84.4834
80.9132
77.7908
75.0769
72.7411
70.7706
69.0954
67.7024
66.5451
65.5623
64.7201
64.0084
63.4111
62.8727
62.4008
62.0191
61.7154
61.4482
61.2188
61.015
60.8293
60.6649
60.5088
60.3561
60.2031
60.0406
59.8574
59.6424
59.3859
59.0672
58.6682
58.166
57.5303
56.7369
55.7662
54.6099
53.2578
51.7429
50.1098
48.3697
46.6391
44.9056
43.3342
41.8233
40.501
39.3551
38.3376
37.5181
36.8324
36.2854
35.8531
34.5178
35.3222
35.5276
35.5508
219.683
30.61
31.1512
226.168
227.343
228.325
229.122
229.744
230.191
230.464
230.567
230.499
230.258
229.844
229.25
228.47
227.494
226.315
224.927
223.321
221.488
219.425
217.124
214.582
31.0335
30.4859
31.4791
36.1061
36.0954
36.0781
36.1481
36.3442
36.6584
37.0793
37.6106
38.2634
39.0467
39.9781
41.051
42.2749
43.6398
45.1282
46.7111
48.3501
49.9966
51.6015
53.115
54.4978
55.7226
56.7771
57.6624
58.3898
58.9774
59.4461
59.817
60.1091
60.3394
60.5215
60.6667
60.7843
60.8812
60.9637
61.0371
61.1057
61.1745
61.2475
61.3292
61.4239
61.5367
61.6726
61.8387
62.0378
62.2745
62.5584
62.8961
63.3196
63.8426
64.4887
65.2047
66.0319
67.0189
68.1846
69.5479
71.1461
73.0331
75.2853
77.9297
81.0336
84.6106
88.6813
93.2694
98.3533
103.891
109.816
116.095
122.804
130.733
143.299
168.515
212.021
251.261
270.405
274.124
272.932
269.238
261.795
254.219
247.172
240.586
234.341
228.369
222.634
217.115
211.797
31.4902
30.5142
31.8335
36.2021
35.8657
31.9904
30.6526
32.2079
32.5446
30.868
32.5994
219.898
218.249
33.1416
31.1396
33.7694
33.005
33.4235
35.2962
34.4476
33.8523
34.2885
34.7302
35.18
221.361
219.283
216.953
214.372
216.903
222.491
228.325
234.441
240.897
247.779
255.163
262.884
269.498
272.628
273.497
267.847
246.949
208.75
169.493
146.472
134.731
127.127
120.635
114.459
108.495
102.791
97.4388
92.5147
88.0644
84.1115
80.6364
77.6094
75.0347
72.8326
70.992
69.4388
68.1152
66.9814
66.0187
65.2128
64.5157
63.8784
63.3626
62.9435
62.6054
62.3178
62.0742
61.8657
61.6882
61.5349
61.4031
61.2882
61.1768
61.0763
60.974
60.8665
60.7429
60.6019
60.43
60.2204
59.9589
59.6196
59.1906
58.6426
57.9556
57.1003
56.0571
54.8267
53.4209
51.8348
50.1674
48.4049
46.7142
45.0249
43.461
42.0327
40.7795
39.6856
38.7762
37.9904
37.3579
36.8407
36.4381
35.1479
35.8396
36.1344
35.6516
211.538
30.7165
31.4484
221.323
222.54
223.559
224.388
225.039
225.509
225.796
225.903
225.83
225.579
225.149
224.532
223.721
222.709
221.491
220.06
218.406
216.525
214.414
212.067
209.485
206.669
31.1334
30.6576
31.7885
36.9044
36.9308
36.9935
37.1186
37.3557
37.7098
38.2061
38.8259
39.5874
40.481
41.5201
42.6986
44.0207
45.47
47.0222
48.6416
50.2838
51.8999
53.4403
54.8641
56.1389
57.2481
58.188
58.9666
59.5991
60.1053
60.5055
60.8194
61.064
61.2538
61.4009
61.5143
61.6022
61.6704
61.7239
61.7676
61.8053
61.8404
61.8777
61.9199
61.9711
62.0348
62.115
62.2162
62.3434
62.5024
62.7004
62.9404
63.2311
63.581
64.0056
64.5061
65.1286
65.8774
66.7839
67.8007
68.9677
70.3376
71.9412
73.7951
75.935
78.425
81.3613
84.7645
88.6915
93.1286
98.0992
103.592
109.597
116.139
123.582
134.192
155.449
197.937
243.959
268.231
273.571
272.333
268.421
260.55
252.562
245.14
238.244
231.76
225.607
219.743
214.137
208.77
203.622
36.1087
31.5898
30.7365
32.1511
36.3087
36.9028
32.0752
30.9088
32.5318
215.065
213.382
32.5889
31.1508
31.4387
33.1399
32.9275
33.3359
33.7558
33.7553
34.4126
34.1853
35.9349
35.1061
34.6208
35.0624
35.5086
216.362
214.232
211.858
209.238
206.377
208.454
213.864
219.531
225.489
231.781
238.478
245.679
253.474
261.658
268.632
271.922
272.802
265.452
240.015
196.764
158.622
138.773
128.517
121.138
114.534
108.345
102.556
97.2196
92.372
88.0436
84.2109
80.884
78.0141
75.5827
73.5043
71.711
70.1598
68.832
67.7087
66.7375
65.8555
65.1287
64.5228
64.0369
63.623
63.2811
62.9935
62.7546
62.5542
62.3898
62.2523
62.1395
62.0457
61.9626
61.8905
61.8273
61.7613
61.6917
61.6157
61.5242
61.4155
61.2817
61.1092
60.8883
60.604
60.2381
59.7697
59.171
58.4181
57.4919
56.3852
55.0695
53.6047
51.9759
50.3061
48.5635
46.8367
45.2164
43.7147
42.3707
41.1843
40.158
39.2746
38.5293
37.9202
37.434
37.0684
35.8325
35.9634
36.1217
36.7858
203.279
30.8625
31.7633
216.524
217.77
218.812
219.665
220.335
220.817
221.111
221.22
221.145
220.888
220.446
219.812
218.981
217.946
216.701
215.241
213.558
211.648
209.509
207.14
204.543
201.722
198.682
36.3485
31.2742
30.8627
36.4513
36.6403
32.1134
36.4829
36.9997
37.7166
37.7422
37.8009
37.9431
38.1836
38.5004
38.9287
39.489
40.1972
41.0452
42.0592
43.2111
44.4953
45.9085
47.4294
49.0254
50.6575
52.2775
53.8366
55.2916
56.6085
57.7668
58.7577
59.586
60.2639
60.8098
61.2429
61.5832
61.8473
62.0511
62.2062
62.3232
62.4102
62.4728
62.5168
62.5464
62.5666
62.5799
62.59
62.5986
62.6123
62.6322
62.6618
62.7031
62.7612
62.8402
62.9443
63.0787
63.2482
63.4602
63.7213
64.0377
64.4185
64.8737
65.4164
66.0632
66.8163
67.7242
68.8024
70.0779
71.5253
73.1418
75.0023
77.1325
79.5456
82.2831
85.4563
89.1087
93.2885
97.9835
103.245
109.103
115.725
124.409
141.913
177.864
231.412
264.043
272.714
271.495
267.447
259.265
250.751
242.849
235.601
228.876
222.56
216.583
210.906
205.505
200.353
195.434
31.7129
30.9816
32.4846
210.301
208.598
32.1851
31.1851
31.4484
32.6922
32.8719
33.2727
33.2342
31.7552
33.6848
33.797
34.1073
34.4081
34.5379
35.0829
34.9737
36.6007
35.7817
35.4126
35.8603
211.464
209.307
206.91
204.277
201.411
198.324
195.027
199.956
205.131
210.57
216.303
222.367
228.817
235.741
243.281
251.552
260.278
267.529
270.919
271.759
261.366
229.052
180.251
146.479
129.809
121.075
114.178
107.969
102.307
97.1672
92.5564
88.4424
84.849
81.7263
79.0454
76.6931
74.6242
72.8179
71.261
69.8858
68.6508
67.6132
66.7353
66.0158
65.3967
64.8767
64.4408
64.0752
63.7696
63.5163
63.3088
63.1407
63.0034
62.8939
62.8076
62.7367
62.6811
62.637
62.5983
62.5604
62.5241
62.4808
62.4307
62.3699
62.2881
62.1795
62.0371
61.8529
61.6151
61.3029
60.9006
60.3824
59.7274
58.9138
57.9115
56.7321
55.3649
53.86
52.2063
50.4934
48.7728
47.1176
45.544
44.1274
42.8536
41.6773
40.6867
39.8229
39.1249
38.5298
38.0534
37.6957
36.5241
37.4282
37.2693
36.322
39.9972
31.036
38.2885
38.2209
36.7854
36.9406
36.671
37.1155
37.7194
36.9115
37.296
37.8312
37.1697
37.4969
37.9554
37.7394
37.4623
38.1385
37.2738
38.3411
38.0026
37.7717
32.0921
211.78
213.042
214.102
214.968
215.645
216.133
216.431
216.541
216.464
216.202
215.751
215.107
214.263
213.214
211.954
210.479
208.782
206.86
204.713
202.343
199.753
196.948
193.938
190.732
38.5314
39.0829
39.6805
40.3972
41.2522
42.2183
43.3351
44.6157
46.026
47.5374
49.1547
50.8312
52.5282
54.1766
55.7375
57.149
58.39
59.4414
60.3179
61.0319
61.5978
62.0422
62.3855
62.6479
62.8479
62.9999
63.1108
63.1929
63.2537
63.2986
63.3281
63.3462
63.3606
63.3749
63.39
63.4105
63.4363
63.4734
63.5257
63.5973
63.6903
63.8111
63.9642
64.1541
64.3881
64.6731
65.016
65.426
65.9125
66.4872
67.1615
67.95
68.8707
69.9259
71.1706
72.6197
74.3115
76.1573
78.2064
80.5209
83.1016
85.9765
89.2677
93.0309
97.2959
102.075
107.434
113.454
120.64
133.707
160.508
211.448
253.957
269.92
269.336
266.126
258.908
249.432
240.573
232.679
225.54
218.955
212.807
207.027
201.574
196.419
191.533
31.4426
31.0887
32.4535
206.667
204.501
202.102
199.475
196.629
193.573
190.323
186.894
38.8262
38.6984
38.5918
38.5691
38.588
38.643
38.7781
39.0091
39.3295
39.7532
40.2835
40.9382
41.7379
42.6936
43.8003
45.0525
46.4397
47.9323
49.5056
51.122
52.7376
54.3074
55.7859
57.1365
58.3354
59.3717
60.2461
60.9678
61.5533
62.0206
62.3894
62.6764
62.8977
63.0654
63.1908
63.2816
63.3452
63.3849
63.4086
63.4182
63.4168
63.412
63.4014
63.3887
63.376
63.376
63.3799
63.3923
63.4166
63.4621
63.5288
63.6209
63.7431
63.9005
64.099
64.3449
64.6451
65.0072
65.4407
65.9551
66.5614
67.2722
68.1017
69.0664
70.174
71.462
72.9625
74.7045
76.6265
78.7279
81.0896
83.7086
86.6156
89.9278
93.7175
98.0323
102.888
108.437
115.069
128.239
155.466
210.369
255.676
271.037
270.108
266.287
258.204
248.854
240.284
232.637
225.676
219.215
213.148
207.422
202.003
196.867
191.988
187.346
31.8799
31.2468
31.4779
32.3421
32.8333
33.2277
32.8303
31.7632
205.609
203.902
33.6342
33.3467
32.0851
34.0508
33.9042
34.4771
34.4885
34.9088
35.0952
35.3447
35.7689
35.7856
36.4813
36.232
37.2532
36.6842
37.1506
39.0041
38.583
37.6193
39.6797
39.2067
31.2399
41.9479
39.0038
38.2953
38.1067
32.4361
39.4304
39.6025
40.0961
40.8429
41.7399
42.7619
43.9067
45.1685
46.5426
48.037
49.6643
51.3248
52.9878
54.6372
56.1942
57.6362
58.9205
60.031
60.9625
61.7226
62.3328
62.8172
63.1945
63.4853
63.7065
63.8709
63.9928
64.0806
64.1426
64.1777
64.2028
64.2168
64.2176
64.2149
64.2071
64.2029
64.2046
64.209
64.2219
64.2453
64.2879
64.3507
64.438
64.5527
64.7009
64.8873
65.1174
65.3983
65.7371
66.1412
66.6188
67.1798
67.8346
68.5934
69.4674
70.4686
71.6122
72.9133
74.3707
76.0442
77.9525
80.0811
82.326
84.7923
87.484
90.4394
93.781
97.604
101.936
106.832
112.538
122.184
142.703
184.867
240.101
265.457
267.08
264.457
257.526
247.085
237.578
229.316
221.964
215.256
209.041
203.238
197.797
192.683
187.861
183.304
207.097
208.369
209.437
210.309
210.988
211.476
211.774
211.883
211.805
211.54
211.085
210.433
209.581
208.526
207.262
205.784
204.086
202.167
200.028
197.674
195.109
192.339
189.377
186.233
182.922
31.6443
31.3393
39.8568
48.4938
31.5306
32.0719
32.8078
33.1965
39.5724
39.4764
39.4643
39.4846
39.5385
39.6612
39.8807
40.19
40.6045
41.1306
41.7757
42.5486
43.4588
44.5119
45.7323
47.0744
48.5315
50.0825
51.682
53.2898
54.8599
56.351
57.7265
58.9592
60.0338
60.9484
61.7104
62.3336
62.8348
63.2328
63.5443
63.7854
63.9685
64.1051
64.2036
64.2714
64.3117
64.3349
64.3345
64.3293
64.3169
64.2905
64.2597
64.2281
64.1975
64.1729
64.1535
64.1542
64.161
64.1739
64.2118
64.2731
64.3616
64.4815
64.6377
64.836
65.0821
65.3827
65.7449
66.1767
66.6867
67.2842
67.9796
68.7832
69.7057
70.7583
71.9543
73.3083
74.8206
76.536
78.4859
80.665
82.9385
85.4221
88.1189
91.0736
94.4127
98.2438
102.63
107.644
117.088
136.979
179.565
239.192
266.351
267.828
264.915
257.397
246.864
237.478
229.379
222.171
215.573
209.438
203.688
198.278
193.177
188.357
183.792
179.462
32.5255
31.7877
201.971
199.812
197.429
194.827
192.018
189.013
185.827
182.479
178.987
200.997
199.298
39.4508
39.6844
38.8462
33.5984
33.0057
32.0918
34.0111
33.5131
32.4302
34.4328
34.0414
34.8622
34.6001
35.2967
35.2031
35.7345
35.8283
36.1749
36.5086
36.6215
37.2821
37.0747
40.1002
37.5264
37.9892
31.4682
40.9586
41.1684
31.6091
31.8707
33.1761
202.482
203.755
204.825
205.698
206.375
206.86
207.154
207.261
207.181
206.916
206.458
205.8
204.946
203.893
202.634
201.162
199.474
197.571
195.455
193.132
190.606
187.888
184.989
181.92
178.7
175.345
92.8275
40.3918
40.4039
40.4277
40.4932
40.6066
40.8286
41.1243
41.5227
42.0341
42.6656
43.4277
44.321
45.357
46.5181
47.8345
49.2526
50.768
52.3421
53.9358
55.5006
56.9972
58.3864
59.6417
60.7469
61.6964
62.4938
63.1513
63.6848
64.1113
64.4476
64.7095
64.9097
65.0596
65.1683
65.243
65.2872
65.3102
65.3089
65.301
65.2824
65.2465
65.2038
65.1571
65.1088
65.0625
65.0194
64.9855
64.9565
64.9534
64.958
64.9708
65.0038
65.066
65.1583
65.2843
65.4487
65.6571
65.9152
66.2292
66.606
67.0526
67.5767
68.1864
68.8896
69.6946
70.609
71.641
72.7966
74.0825
75.5018
77.0638
78.7733
80.6307
82.7181
84.9959
87.3179
89.7941
92.4532
95.3735
98.6645
102.49
108.784
121.954
150.743
210.474
255.551
265.61
262.984
255.755
244.684
234.535
225.88
218.37
211.635
205.453
199.707
194.335
189.295
184.557
180.09
175.871
171.875
32.2967
31.832
40.2948
40.6107
41.0457
41.555
42.2843
43.2389
44.3952
45.7192
47.1505
48.661
50.2459
51.8478
53.5306
55.2086
56.7799
58.2364
59.5384
60.678
61.6536
62.4595
63.1157
63.6357
64.0452
64.3618
64.604
64.7864
64.9208
65.0163
65.0822
65.1193
65.1431
65.1421
65.1374
65.1262
65.106
65.0854
65.0627
65.0412
65.031
65.0329
65.04
65.0533
65.0908
65.1514
65.2387
65.3562
65.5087
65.7013
65.9398
66.2299
66.5787
66.9932
67.481
68.0497
68.7083
69.4651
70.3285
71.3075
72.4096
73.643
75.0132
76.5322
78.2033
80.0363
82.1022
84.3685
86.6926
89.1833
91.8622
94.7952
98.1142
101.925
106.374
112.922
127.374
156.21
216.478
256.205
264.72
262.256
255.392
244.472
234.384
225.689
218.089
211.261
205.005
199.21
193.811
188.764
184.03
179.575
175.373
197.38
195.242