/*--------------------------------*- C++ -*----------------------------------*\
| =========                 |                                                 |
| \\      /  F ield         | OpenFOAM: The Open Source CFD Toolbox           |
|  \\    /   O peration     | Version:  2212                                  |
|   \\  /    A nd           | Website:  www.openfoam.com                      |
|    \\/     M anipulation  |                                                 |
\*---------------------------------------------------------------------------*/
FoamFile
{
    version     2.0;
    format      ascii;
    arch        "LSB;label=32;scalar=64";
    class       volScalarField;
    location    "0.4879";
    object      s;
}
// * * * * * * * * * * * * * * * * * * * * * * * * * * * * * * * * * * * * * //

dimensions      [0 0 0 0 0 0 0];

internalField   nonuniform List<scalar> 
24240
(
4.27139e-67
4.2742e-67
4.30081e-67
4.2588e-67
4.24265e-67
4.31395e-67
4.29322e-67
4.20904e-67
4.23962e-67
4.34957e-67
4.26873e-67
4.33223e-67
4.29908e-67
4.34465e-67
4.24669e-67
4.36308e-67
4.24038e-67
4.28305e-67
4.25772e-67
4.14062e-67
1.25105e-64
1.25258e-64
1.26021e-64
1.24802e-64
1.24303e-64
1.26399e-64
1.2579e-64
1.23335e-64
1.24231e-64
1.27439e-64
1.25081e-64
1.26914e-64
1.25989e-64
1.27293e-64
1.24448e-64
1.27826e-64
1.24281e-64
1.25515e-64
1.24769e-64
1.21304e-64
1.822e-62
1.82522e-62
1.83611e-62
1.81851e-62
1.81088e-62
1.8415e-62
1.8326e-62
1.79703e-62
1.8101e-62
1.85661e-62
1.82243e-62
1.84871e-62
1.83592e-62
1.85446e-62
1.81338e-62
1.86212e-62
1.81121e-62
1.82896e-62
1.81805e-62
1.76712e-62
1.56362e-60
1.56722e-60
1.57635e-60
1.56137e-60
1.55451e-60
1.58087e-60
1.57321e-60
1.54284e-60
1.55407e-60
1.59379e-60
1.5646e-60
1.58679e-60
1.57639e-60
1.5919e-60
1.55696e-60
1.59836e-60
1.55531e-60
1.57033e-60
1.56095e-60
1.51687e-60
9.46125e-59
9.48797e-59
9.54179e-59
9.45183e-59
9.4085e-59
9.56842e-59
9.52204e-59
9.33923e-59
9.40745e-59
9.6464e-59
9.47081e-59
9.60272e-59
9.54344e-59
9.63475e-59
9.42529e-59
9.67302e-59
9.41671e-59
9.50627e-59
9.44954e-59
9.18096e-59
3.96455e-57
3.9776e-57
3.99951e-57
3.96207e-57
3.94316e-57
4.01031e-57
3.99087e-57
3.91469e-57
3.94343e-57
4.04286e-57
3.96977e-57
4.02399e-57
4.00067e-57
4.03782e-57
3.9509e-57
4.05343e-57
3.94789e-57
3.98477e-57
3.96112e-57
3.84807e-57
1.1594e-55
1.16374e-55
1.16994e-55
1.15906e-55
1.15331e-55
1.17297e-55
1.1673e-55
1.14517e-55
1.15366e-55
1.18247e-55
1.16128e-55
1.17678e-55
1.17044e-55
1.18094e-55
1.1558e-55
1.18535e-55
1.15511e-55
1.16567e-55
1.15883e-55
1.12571e-55
2.1778e-54
2.18662e-54
2.19781e-54
2.17746e-54
2.16628e-54
2.20317e-54
2.1926e-54
2.15134e-54
2.16759e-54
2.2209e-54
2.18163e-54
2.20995e-54
2.19893e-54
2.21791e-54
2.17129e-54
2.22574e-54
2.17041e-54
2.18967e-54
2.1771e-54
2.11535e-54
1.22349e-53
1.22906e-53
1.23514e-53
1.22373e-53
1.21725e-53
1.23785e-53
1.23204e-53
1.20911e-53
1.21864e-53
1.24777e-53
1.22627e-53
1.2415e-53
1.23588e-53
1.24596e-53
1.22025e-53
1.24994e-53
1.22006e-53
1.23035e-53
1.22356e-53
1.18924e-53
2.70514e-54
2.71058e-54
2.7337e-54
2.69345e-54
2.68718e-54
2.70567e-54
2.70787e-54
2.66777e-54
2.7332e-54
2.72286e-54
2.72467e-54
2.72055e-54
2.70875e-54
2.70971e-54
2.67578e-54
2.68949e-54
2.69123e-54
2.68391e-54
2.69035e-54
2.68586e-54
5.16836e-54
5.19045e-54
5.24484e-54
5.14868e-54
5.13324e-54
5.13328e-54
5.16599e-54
5.10909e-54
5.23808e-54
5.22651e-54
5.23597e-54
5.19048e-54
5.19673e-54
5.15548e-54
5.12121e-54
5.14149e-54
5.0919e-54
5.11486e-54
5.14421e-54
5.12058e-54
5.42606e-54
5.44924e-54
5.48786e-54
5.39292e-54
5.41041e-54
5.36813e-54
5.45448e-54
5.41129e-54
5.42787e-54
5.5222e-54
5.45992e-54
5.38493e-54
5.48091e-54
5.45042e-54
5.42684e-54
5.46094e-54
5.32425e-54
5.39914e-54
5.3809e-54
5.36747e-54
6.628e-54
6.64509e-54
6.67931e-54
6.69234e-54
6.70624e-54
6.76277e-54
6.78657e-54
6.73688e-54
6.70507e-54
6.62947e-54
6.62904e-54
6.64652e-54
6.70769e-54
6.71785e-54
6.65583e-54
6.68283e-54
6.67669e-54
6.67424e-54
6.61494e-54
6.64633e-54
6.92121e-54
6.86934e-54
6.90134e-54
6.99572e-54
6.97213e-54
7.0399e-54
6.92036e-54
7.06192e-54
6.87059e-54
6.83353e-54
6.82401e-54
6.88914e-54
6.87748e-54
6.81771e-54
6.8063e-54
6.86256e-54
6.78499e-54
6.88764e-54
6.86091e-54
6.91912e-54
7.33904e-54
7.31172e-54
7.40227e-54
7.31616e-54
7.33251e-54
7.4433e-54
7.36848e-54
7.49479e-54
7.35659e-54
7.45902e-54
7.39264e-54
7.41658e-54
7.42483e-54
7.49461e-54
7.41147e-54
7.51515e-54
7.38141e-54
7.30424e-54
7.38206e-54
7.30902e-54
7.12774e-54
7.0867e-54
7.03352e-54
7.06192e-54
7.11147e-54
7.16141e-54
7.13857e-54
7.12232e-54
7.03508e-54
7.04654e-54
6.97258e-54
7.1225e-54
7.15375e-54
7.18665e-54
7.20012e-54
7.14128e-54
7.13376e-54
7.16255e-54
7.11047e-54
7.1154e-54
6.76743e-54
6.8802e-54
6.77758e-54
6.91885e-54
6.73917e-54
6.86021e-54
6.76599e-54
6.86209e-54
6.80081e-54
6.86295e-54
6.80456e-54
6.95754e-54
6.81781e-54
6.96464e-54
6.8316e-54
6.8461e-54
6.89441e-54
6.75672e-54
6.90897e-54
6.9021e-54
6.06148e-54
6.20131e-54
6.18077e-54
6.11204e-54
6.07897e-54
6.23653e-54
6.13751e-54
6.17837e-54
6.15166e-54
6.06866e-54
6.11715e-54
6.20875e-54
6.12145e-54
6.26998e-54
6.13205e-54
6.20804e-54
6.20667e-54
6.17288e-54
6.21526e-54
6.24901e-54
6.13045e-54
6.13553e-54
6.16469e-54
6.20201e-54
6.19465e-54
6.19552e-54
6.0883e-54
6.23944e-54
6.25169e-54
6.13815e-54
6.22753e-54
6.27374e-54
6.09907e-54
6.28486e-54
6.27521e-54
6.3482e-54
6.23801e-54
6.24453e-54
6.19129e-54
6.28482e-54
3.56995e-54
3.60313e-54
3.60767e-54
3.56733e-54
3.58858e-54
3.58292e-54
3.58477e-54
3.60002e-54
3.55401e-54
3.61972e-54
3.54695e-54
3.61975e-54
3.55724e-54
3.65718e-54
3.5663e-54
3.57227e-54
3.57025e-54
3.63405e-54
3.59027e-54
3.6516e-54
7.84252e-66
7.8522e-66
7.9005e-66
7.82432e-66
7.79336e-66
7.92501e-66
7.88691e-66
7.73304e-66
7.78913e-66
7.9907e-66
7.84261e-66
7.95778e-66
7.89941e-66
7.98126e-66
7.80252e-66
8.0146e-66
7.79126e-66
7.86874e-66
7.82162e-66
7.60371e-66
2.26181e-63
2.26593e-63
2.27957e-63
2.25779e-63
2.2484e-63
2.28649e-63
2.27546e-63
2.23129e-63
2.24748e-63
2.30537e-63
2.26285e-63
2.29556e-63
2.27957e-63
2.30262e-63
2.25151e-63
2.31212e-63
2.24859e-63
2.27066e-63
2.25701e-63
2.19348e-63
3.24331e-61
3.25105e-61
3.27018e-61
3.23922e-61
3.22511e-61
3.2799e-61
3.26404e-61
3.20101e-61
3.22425e-61
3.3069e-61
3.24621e-61
3.29239e-61
3.27067e-61
3.30291e-61
3.23028e-61
3.31634e-61
3.22655e-61
3.25779e-61
3.23816e-61
3.14616e-61
2.74923e-59
2.75732e-59
2.77315e-59
2.7471e-59
2.7346e-59
2.78117e-59
2.7677e-59
2.71453e-59
2.73427e-59
2.80398e-59
2.75279e-59
2.79128e-59
2.77391e-59
2.80052e-59
2.7395e-59
2.8117e-59
2.73673e-59
2.76284e-59
2.74618e-59
2.66749e-59
1.63803e-57
1.64373e-57
1.65291e-57
1.6375e-57
1.62974e-57
1.65755e-57
1.64952e-57
1.61801e-57
1.62982e-57
1.67111e-57
1.64079e-57
1.66331e-57
1.6536e-57
1.66901e-57
1.633e-57
1.67553e-57
1.6316e-57
1.64691e-57
1.63701e-57
1.58977e-57
6.774e-56
6.80088e-56
6.83771e-56
6.77439e-56
6.74099e-56
6.85623e-56
6.82302e-56
6.69343e-56
6.74253e-56
6.91206e-56
6.78752e-56
6.87884e-56
6.8413e-56
6.90313e-56
6.75569e-56
6.92938e-56
6.75089e-56
6.81312e-56
6.77245e-56
6.57609e-56
1.95272e-54
1.96137e-54
1.97162e-54
1.95348e-54
1.94348e-54
1.97674e-54
1.96719e-54
1.93008e-54
1.94437e-54
1.99279e-54
1.9572e-54
1.98293e-54
1.97292e-54
1.99013e-54
1.9481e-54
1.99742e-54
1.94704e-54
1.96459e-54
1.95301e-54
1.89628e-54
3.61221e-53
3.62933e-53
3.64753e-53
3.61408e-53
3.59496e-53
3.6564e-53
3.63888e-53
3.57074e-53
3.59768e-53
3.68592e-53
3.62098e-53
3.66723e-53
3.6502e-53
3.68079e-53
3.60405e-53
3.69355e-53
3.60277e-53
3.63431e-53
3.61341e-53
3.5092e-53
2.00051e-52
2.01101e-52
2.02073e-52
2.00222e-52
1.99132e-52
2.02514e-52
2.01565e-52
1.97831e-52
1.99389e-52
2.04142e-52
2.00635e-52
2.03086e-52
2.02238e-52
2.03837e-52
1.99666e-52
2.04475e-52
1.99642e-52
2.01304e-52
2.00194e-52
1.94478e-52
4.26849e-53
4.27728e-53
4.31414e-53
4.25024e-53
4.2402e-53
4.2686e-53
4.2724e-53
4.20991e-53
4.31356e-53
4.29675e-53
4.29993e-53
4.29232e-53
4.27481e-53
4.27524e-53
4.22272e-53
4.24296e-53
4.24612e-53
4.23464e-53
4.2453e-53
4.23819e-53
8.28657e-53
8.32175e-53
8.40909e-53
8.2544e-53
8.23051e-53
8.22968e-53
8.28222e-53
8.19204e-53
8.39752e-53
8.3802e-53
8.39431e-53
8.32071e-53
8.33225e-53
8.26627e-53
8.21183e-53
8.24363e-53
8.16379e-53
8.20019e-53
8.24768e-53
8.20834e-53
8.64732e-53
8.68365e-53
8.74563e-53
8.59521e-53
8.62337e-53
8.5576e-53
8.69429e-53
8.62631e-53
8.64979e-53
8.79926e-53
8.70003e-53
8.58126e-53
8.73439e-53
8.68712e-53
8.64968e-53
8.70374e-53
8.48836e-53
8.60474e-53
8.57708e-53
8.55506e-53
1.0602e-52
1.06271e-52
1.06829e-52
1.07052e-52
1.07269e-52
1.08178e-52
1.08517e-52
1.07763e-52
1.07239e-52
1.06027e-52
1.06022e-52
1.06309e-52
1.07276e-52
1.07417e-52
1.06457e-52
1.06873e-52
1.0677e-52
1.06752e-52
1.05808e-52
1.06311e-52
1.10254e-52
1.09422e-52
1.09936e-52
1.11416e-52
1.11051e-52
1.12135e-52
1.10227e-52
1.12485e-52
1.09432e-52
1.08874e-52
1.0871e-52
1.09746e-52
1.09555e-52
1.08609e-52
1.08442e-52
1.09326e-52
1.08093e-52
1.09711e-52
1.09314e-52
1.10204e-52
1.17352e-52
1.16919e-52
1.1835e-52
1.16968e-52
1.17257e-52
1.19007e-52
1.17816e-52
1.19819e-52
1.17641e-52
1.19272e-52
1.18202e-52
1.18577e-52
1.18725e-52
1.19852e-52
1.1852e-52
1.2015e-52
1.1804e-52
1.168e-52
1.18044e-52
1.16863e-52
1.13527e-52
1.12904e-52
1.12035e-52
1.12502e-52
1.13269e-52
1.14061e-52
1.13699e-52
1.13446e-52
1.12084e-52
1.12246e-52
1.11073e-52
1.13451e-52
1.13954e-52
1.14458e-52
1.14688e-52
1.1373e-52
1.13638e-52
1.14096e-52
1.13277e-52
1.13354e-52
1.08305e-52
1.10114e-52
1.08478e-52
1.10713e-52
1.07842e-52
1.09761e-52
1.08268e-52
1.09799e-52
1.08835e-52
1.09833e-52
1.08894e-52
1.11342e-52
1.09101e-52
1.1144e-52
1.09333e-52
1.09535e-52
1.10331e-52
1.08133e-52
1.1056e-52
1.10451e-52
9.67978e-53
9.9e-53
9.86892e-53
9.75877e-53
9.70769e-53
9.95574e-53
9.79866e-53
9.86368e-53
9.82228e-53
9.68919e-53
9.7671e-53
9.91182e-53
9.77416e-53
1.00087e-52
9.79193e-53
9.9117e-53
9.90873e-53
9.85624e-53
9.9214e-53
9.97607e-53
9.86574e-53
9.87317e-53
9.9215e-53
9.98009e-53
9.96784e-53
9.96836e-53
9.79716e-53
1.00411e-52
1.00586e-52
9.8778e-53
1.0021e-52
1.00953e-52
9.81576e-53
1.01124e-52
1.00984e-52
1.02133e-52
1.00389e-52
1.00469e-52
9.96203e-53
1.01109e-52
5.71109e-53
5.76433e-53
5.77213e-53
5.70709e-53
5.74053e-53
5.7316e-53
5.73455e-53
5.75922e-53
5.68459e-53
5.79011e-53
5.67399e-53
5.78979e-53
5.69101e-53
5.84981e-53
5.70511e-53
5.71448e-53
5.71109e-53
5.81271e-53
5.74333e-53
5.84055e-53
1.36634e-64
1.36889e-64
1.3772e-64
1.3641e-64
1.35847e-64
1.38154e-64
1.37489e-64
1.34821e-64
1.35798e-64
1.39303e-64
1.3673e-64
1.3871e-64
1.37739e-64
1.39132e-64
1.36038e-64
1.39703e-64
1.35848e-64
1.37182e-64
1.3635e-64
1.32497e-64
3.87698e-62
3.88658e-62
3.90965e-62
3.8728e-62
3.85603e-62
3.92169e-62
3.90277e-62
3.82741e-62
3.85514e-62
3.95419e-62
3.88149e-62
3.9368e-62
3.91073e-62
3.94927e-62
3.86228e-62
3.96528e-62
3.85745e-62
3.8948e-62
3.87113e-62
3.76054e-62
5.46942e-60
5.4862e-60
5.51801e-60
5.46643e-60
5.44169e-60
5.53458e-60
5.50783e-60
5.40202e-60
5.4412e-60
5.58031e-60
5.47824e-60
5.55502e-60
5.52031e-60
5.5733e-60
5.45168e-60
5.59557e-60
5.44567e-60
5.49767e-60
5.46422e-60
5.30655e-60
4.57332e-58
4.59e-58
4.61594e-58
4.57311e-58
4.55154e-58
4.6294e-58
4.60698e-58
4.51894e-58
4.55178e-58
4.66749e-58
4.58258e-58
4.64567e-58
4.61841e-58
4.6615e-58
4.56075e-58
4.67979e-58
4.55638e-58
4.59924e-58
4.57128e-58
4.43816e-58
2.67996e-56
2.69124e-56
2.70602e-56
2.68108e-56
2.66792e-56
2.71365e-56
2.70051e-56
2.64919e-56
2.66851e-56
2.73591e-56
2.68645e-56
2.72274e-56
2.70782e-56
2.73234e-56
2.67388e-56
2.74283e-56
2.67172e-56
2.69644e-56
2.68013e-56
2.60147e-56
1.09216e-54
1.0973e-54
1.10313e-54
1.09303e-54
1.08746e-54
1.10613e-54
1.10077e-54
1.07998e-54
1.08789e-54
1.11516e-54
1.09515e-54
1.10964e-54
1.10399e-54
1.11367e-54
1.09008e-54
1.11783e-54
1.08937e-54
1.09926e-54
1.09267e-54
1.06044e-54
3.09959e-53
3.11567e-53
3.13162e-53
3.10309e-53
3.08671e-53
3.13973e-53
3.12459e-53
3.06595e-53
3.08863e-53
3.1653e-53
3.10899e-53
3.14917e-53
3.13443e-53
3.16093e-53
3.09476e-53
3.1723e-53
3.09324e-53
3.12071e-53
3.10226e-53
3.01052e-53
5.63772e-52
5.66873e-52
5.69651e-52
5.64476e-52
5.61399e-52
5.71028e-52
5.68297e-52
5.5771e-52
5.61915e-52
5.75654e-52
5.6555e-52
5.72648e-52
5.702e-52
5.74825e-52
5.62948e-52
5.76779e-52
5.62778e-52
5.6763e-52
5.64365e-52
5.47787e-52
3.07439e-51
3.09289e-51
3.10745e-51
3.07924e-51
3.06199e-51
3.11416e-51
3.09959e-51
3.04248e-51
3.06641e-51
3.1393e-51
3.08556e-51
3.12258e-51
3.11069e-51
3.13444e-51
3.07089e-51
3.14406e-51
3.07067e-51
3.09585e-51
3.07881e-51
2.98921e-51
6.31869e-52
6.33199e-52
6.38715e-52
6.29191e-52
6.27687e-52
6.31768e-52
6.32383e-52
6.23255e-52
6.38653e-52
6.36101e-52
6.36616e-52
6.35321e-52
6.32903e-52
6.32797e-52
6.25183e-52
6.27969e-52
6.28483e-52
6.26801e-52
6.28456e-52
6.27384e-52
1.24703e-51
1.2523e-51
1.26546e-51
1.2421e-51
1.23864e-51
1.23838e-51
1.2463e-51
1.23289e-51
1.2636e-51
1.26119e-51
1.26315e-51
1.25197e-51
1.25394e-51
1.24404e-51
1.23592e-51
1.24059e-51
1.22854e-51
1.23394e-51
1.24117e-51
1.23501e-51
1.2935e-51
1.29884e-51
1.30818e-51
1.28583e-51
1.29008e-51
1.28051e-51
1.3008e-51
1.29076e-51
1.29383e-51
1.31602e-51
1.3012e-51
1.28356e-51
1.30647e-51
1.2996e-51
1.29403e-51
1.30207e-51
1.27026e-51
1.28719e-51
1.28328e-51
1.27989e-51
1.59218e-51
1.5956e-51
1.60415e-51
1.60771e-51
1.61088e-51
1.62458e-51
1.62904e-51
1.61835e-51
1.61025e-51
1.59204e-51
1.59197e-51
1.5964e-51
1.61076e-51
1.61253e-51
1.59862e-51
1.60461e-51
1.60295e-51
1.60304e-51
1.58894e-51
1.59648e-51
1.64961e-51
1.63708e-51
1.64482e-51
1.6666e-51
1.66133e-51
1.67761e-51
1.64899e-51
1.68284e-51
1.63706e-51
1.62921e-51
1.62659e-51
1.64203e-51
1.63913e-51
1.62507e-51
1.6228e-51
1.63582e-51
1.61744e-51
1.64136e-51
1.63585e-51
1.64862e-51
1.76286e-51
1.75644e-51
1.77765e-51
1.7568e-51
1.76157e-51
1.7875e-51
1.76973e-51
1.79954e-51
1.76735e-51
1.7917e-51
1.77548e-51
1.78102e-51
1.78349e-51
1.80055e-51
1.78051e-51
1.80456e-51
1.77332e-51
1.75467e-51
1.77333e-51
1.75538e-51
1.69971e-51
1.69087e-51
1.67754e-51
1.68475e-51
1.69586e-51
1.70768e-51
1.7023e-51
1.69861e-51
1.67866e-51
1.68076e-51
1.66328e-51
1.6987e-51
1.70631e-51
1.71355e-51
1.71723e-51
1.70258e-51
1.70161e-51
1.70842e-51
1.69638e-51
1.69748e-51
1.62978e-51
1.657e-51
1.63252e-51
1.6657e-51
1.62261e-51
1.65122e-51
1.62899e-51
1.65188e-51
1.63765e-51
1.6527e-51
1.6385e-51
1.67532e-51
1.64159e-51
1.67658e-51
1.64525e-51
1.64781e-51
1.66014e-51
1.62718e-51
1.66349e-51
1.66187e-51
1.45429e-51
1.48692e-51
1.4825e-51
1.46593e-51
1.45848e-51
1.49518e-51
1.47176e-51
1.48149e-51
1.47546e-51
1.45542e-51
1.46719e-51
1.48869e-51
1.46827e-51
1.5031e-51
1.47106e-51
1.48879e-51
1.48824e-51
1.48056e-51
1.49e-51
1.4983e-51
1.49438e-51
1.49542e-51
1.50295e-51
1.51157e-51
1.50965e-51
1.50961e-51
1.4839e-51
1.52093e-51
1.52321e-51
1.49615e-51
1.51774e-51
1.52897e-51
1.48692e-51
1.53148e-51
1.52956e-51
1.54654e-51
1.52063e-51
1.52142e-51
1.50872e-51
1.531e-51
8.59464e-52
8.67481e-52
8.68751e-52
8.58903e-52
8.63839e-52
8.62504e-52
8.62935e-52
8.66719e-52
8.55337e-52
8.71252e-52
8.53853e-52
8.71161e-52
8.56475e-52
8.80209e-52
8.58562e-52
8.59948e-52
8.59402e-52
8.74611e-52
8.64269e-52
8.78762e-52
2.3811e-63
2.38712e-63
2.40142e-63
2.37889e-63
2.36866e-63
2.40909e-63
2.39751e-63
2.35123e-63
2.36824e-63
2.42922e-63
2.38449e-63
2.41852e-63
2.40243e-63
2.42609e-63
2.37256e-63
2.43587e-63
2.36936e-63
2.39229e-63
2.37762e-63
2.30942e-63
6.64868e-61
6.66972e-61
6.70874e-61
6.64633e-61
6.61644e-61
6.72963e-61
6.69718e-61
6.56855e-61
6.61609e-61
6.78562e-61
6.6613e-61
6.7548e-61
6.71243e-61
6.77682e-61
6.6287e-61
6.8038e-61
6.62075e-61
6.68396e-61
6.64293e-61
6.45016e-61
9.22525e-59
9.26013e-59
9.313e-59
9.22702e-59
9.18375e-59
9.34121e-59
9.29608e-59
9.11845e-59
9.18453e-59
9.41866e-59
9.247e-59
9.3746e-59
9.31935e-59
9.40635e-59
9.20273e-59
9.44325e-59
9.19306e-59
9.27957e-59
9.22263e-59
8.95213e-59
7.60298e-57
7.63631e-57
7.67877e-57
7.60836e-57
7.57122e-57
7.70128e-57
7.66403e-57
7.51834e-57
7.57293e-57
7.76487e-57
7.62414e-57
7.72744e-57
7.68486e-57
7.75453e-57
7.58831e-57
7.78439e-57
7.58144e-57
7.65171e-57
7.60487e-57
7.37962e-57
4.38089e-55
4.40265e-55
4.4264e-55
4.38607e-55
4.36383e-55
4.43892e-55
4.41746e-55
4.33395e-55
4.36553e-55
4.47546e-55
4.39486e-55
4.45325e-55
4.43046e-55
4.4694e-55
4.37458e-55
4.48623e-55
4.37129e-55
4.41113e-55
4.38429e-55
4.25335e-55
1.75801e-53
1.76766e-53
1.77688e-53
1.76077e-53
1.75152e-53
1.78169e-53
1.77309e-53
1.73976e-53
1.75251e-53
1.7963e-53
1.76418e-53
1.78713e-53
1.77868e-53
1.7938e-53
1.75615e-53
1.80037e-53
1.75509e-53
1.77079e-53
1.76013e-53
1.70726e-53
4.91077e-52
4.94015e-52
4.9649e-52
4.92012e-52
4.89335e-52
4.97771e-52
4.95376e-52
4.86125e-52
4.89722e-52
5.01838e-52
4.92945e-52
4.99204e-52
4.97053e-52
5.0112e-52
4.90724e-52
5.02887e-52
4.90509e-52
4.94799e-52
4.91869e-52
4.7705e-52
8.77751e-51
8.83279e-51
8.87501e-51
8.79512e-51
8.7458e-51
8.89629e-51
8.85384e-51
8.68973e-51
8.75526e-51
8.9686e-51
8.8118e-51
8.92038e-51
8.88561e-51
8.95526e-51
8.77193e-51
8.98508e-51
8.76975e-51
8.84418e-51
8.79334e-51
8.53009e-51
4.71211e-50
4.74424e-50
4.76597e-50
4.72306e-50
4.69587e-50
4.77613e-50
4.75384e-50
4.66669e-50
4.70337e-50
4.81482e-50
4.73271e-50
4.78842e-50
4.77199e-50
4.80714e-50
4.71059e-50
4.82156e-50
4.71047e-50
4.74848e-50
4.72244e-50
4.58225e-50
9.32016e-51
9.3401e-51
9.42239e-51
9.28087e-51
9.2585e-51
9.31675e-51
9.32666e-51
9.19389e-51
9.42185e-51
9.38321e-51
9.39149e-51
9.3698e-51
9.33673e-51
9.33262e-51
9.22276e-51
9.26069e-51
9.26895e-51
9.24436e-51
9.27001e-51
9.25401e-51
1.87139e-50
1.87925e-50
1.89903e-50
1.86385e-50
1.85887e-50
1.85827e-50
1.87017e-50
1.8503e-50
1.89607e-50
1.89273e-50
1.89542e-50
1.87848e-50
1.88181e-50
1.86699e-50
1.85493e-50
1.86177e-50
1.84364e-50
1.8516e-50
1.86258e-50
1.85296e-50
1.92978e-50
1.93761e-50
1.95165e-50
1.91854e-50
1.92493e-50
1.91106e-50
1.94109e-50
1.92629e-50
1.93022e-50
1.96306e-50
1.94098e-50
1.91486e-50
1.94906e-50
1.93911e-50
1.93085e-50
1.94276e-50
1.89594e-50
1.92047e-50
1.91497e-50
1.90976e-50
2.38516e-50
2.38976e-50
2.40282e-50
2.40846e-50
2.41308e-50
2.43368e-50
2.43942e-50
2.42437e-50
2.41186e-50
2.38459e-50
2.38451e-50
2.3913e-50
2.41257e-50
2.41468e-50
2.39462e-50
2.4032e-50
2.40055e-50
2.40122e-50
2.38024e-50
2.39148e-50
2.46345e-50
2.4446e-50
2.45625e-50
2.48825e-50
2.48066e-50
2.50507e-50
2.4622e-50
2.51287e-50
2.44435e-50
2.43336e-50
2.42919e-50
2.45216e-50
2.44776e-50
2.42691e-50
2.42386e-50
2.443e-50
2.41566e-50
2.45093e-50
2.44338e-50
2.4616e-50
2.64332e-50
2.63387e-50
2.66523e-50
2.63382e-50
2.64161e-50
2.67996e-50
2.65352e-50
2.69773e-50
2.65031e-50
2.6866e-50
2.66207e-50
2.67022e-50
2.67431e-50
2.70008e-50
2.67001e-50
2.70538e-50
2.65925e-50
2.63123e-50
2.65918e-50
2.63194e-50
2.54221e-50
2.52972e-50
2.50932e-50
2.52042e-50
2.53649e-50
2.55409e-50
2.5461e-50
2.54076e-50
2.51157e-50
2.51422e-50
2.4882e-50
2.5409e-50
2.55241e-50
2.56275e-50
2.56863e-50
2.54626e-50
2.54543e-50
2.5555e-50
2.53785e-50
2.53943e-50
2.45015e-50
2.49108e-50
2.45449e-50
2.50368e-50
2.43909e-50
2.48167e-50
2.4486e-50
2.48279e-50
2.46182e-50
2.48449e-50
2.46304e-50
2.51836e-50
2.46763e-50
2.51993e-50
2.4734e-50
2.47652e-50
2.49558e-50
2.44623e-50
2.50047e-50
2.49809e-50
2.18449e-50
2.23285e-50
2.22657e-50
2.20167e-50
2.19082e-50
2.2451e-50
2.2102e-50
2.2247e-50
2.21596e-50
2.18577e-50
2.20355e-50
2.23549e-50
2.20521e-50
2.2569e-50
2.20957e-50
2.2358e-50
2.23484e-50
2.22363e-50
2.23726e-50
2.24985e-50
2.26308e-50
2.26449e-50
2.27623e-50
2.28889e-50
2.28588e-50
2.28564e-50
2.24704e-50
2.30323e-50
2.30614e-50
2.26566e-50
2.2982e-50
2.31518e-50
2.25192e-50
2.31882e-50
2.31624e-50
2.34131e-50
2.30284e-50
2.3034e-50
2.28442e-50
2.31773e-50
1.29231e-50
1.30436e-50
1.30642e-50
1.29152e-50
1.2988e-50
1.29681e-50
1.29743e-50
1.30323e-50
1.28589e-50
1.30987e-50
1.28383e-50
1.30968e-50
1.28787e-50
1.3233e-50
1.29095e-50
1.293e-50
1.29212e-50
1.31486e-50
1.29946e-50
1.32104e-50
4.14994e-62
4.16332e-62
4.18791e-62
4.14914e-62
4.13062e-62
4.20145e-62
4.18126e-62
4.10098e-62
4.13063e-62
4.23669e-62
4.15896e-62
4.21741e-62
4.19084e-62
4.23102e-62
4.13838e-62
4.24776e-62
4.13298e-62
4.17242e-62
4.14658e-62
4.02574e-62
1.13967e-59
1.14409e-59
1.15069e-59
1.14012e-59
1.13481e-59
1.15431e-59
1.14875e-59
1.1268e-59
1.13495e-59
1.16395e-59
1.1427e-59
1.15849e-59
1.15164e-59
1.16238e-59
1.13718e-59
1.16692e-59
1.13587e-59
1.14655e-59
1.13945e-59
1.10584e-59
1.55492e-57
1.56196e-57
1.57074e-57
1.55641e-57
1.54886e-57
1.57553e-57
1.56793e-57
1.53812e-57
1.54926e-57
1.58864e-57
1.55979e-57
1.58097e-57
1.57222e-57
1.58648e-57
1.55242e-57
1.59259e-57
1.55087e-57
1.56524e-57
1.55557e-57
1.50916e-57
1.26258e-55
1.26909e-55
1.27602e-55
1.26446e-55
1.25808e-55
1.27978e-55
1.2736e-55
1.24952e-55
1.25859e-55
1.29038e-55
1.26709e-55
1.28397e-55
1.27737e-55
1.2886e-55
1.26122e-55
1.29347e-55
1.26014e-55
1.27164e-55
1.26381e-55
1.22571e-55
7.15171e-54
7.19292e-54
7.23101e-54
7.16585e-54
7.12837e-54
7.25149e-54
7.21649e-54
7.08077e-54
7.13237e-54
7.31136e-54
7.18021e-54
7.27399e-54
7.23945e-54
7.30111e-54
7.14757e-54
7.32807e-54
7.14258e-54
7.20666e-54
7.16263e-54
6.94475e-54
2.82469e-52
2.8425e-52
2.85702e-52
2.83139e-52
2.81607e-52
2.86475e-52
2.85094e-52
2.79763e-52
2.81813e-52
2.8883e-52
2.83687e-52
2.87313e-52
2.86062e-52
2.88416e-52
2.82416e-52
2.89451e-52
2.82262e-52
2.84747e-52
2.83028e-52
2.74364e-52
7.76317e-51
7.81606e-51
7.85433e-51
7.78416e-51
7.7406e-51
7.87448e-51
7.83668e-51
7.69108e-51
7.748e-51
7.939e-51
7.79891e-51
7.89611e-51
7.86507e-51
7.92727e-51
7.76434e-51
7.95465e-51
7.76137e-51
7.82815e-51
7.78178e-51
7.54274e-51
1.36287e-49
1.3726e-49
1.37899e-49
1.36668e-49
1.35881e-49
1.38226e-49
1.37568e-49
1.35031e-49
1.36049e-49
1.39353e-49
1.36926e-49
1.38582e-49
1.38095e-49
1.39139e-49
1.36317e-49
1.39592e-49
1.36291e-49
1.37429e-49
1.36641e-49
1.32468e-49
7.2008e-49
7.25596e-49
7.28822e-49
7.2231e-49
7.18043e-49
7.30349e-49
7.26952e-49
7.13691e-49
7.19301e-49
7.36287e-49
7.23781e-49
7.32132e-49
7.29902e-49
7.35077e-49
7.20456e-49
7.37231e-49
7.20472e-49
7.26191e-49
7.22231e-49
7.00346e-49
1.37042e-49
1.37339e-49
1.38563e-49
1.36466e-49
1.36135e-49
1.36962e-49
1.37121e-49
1.35197e-49
1.3856e-49
1.37978e-49
1.38109e-49
1.37753e-49
1.37305e-49
1.37207e-49
1.35627e-49
1.3614e-49
1.36268e-49
1.35911e-49
1.36307e-49
1.36067e-49
2.79952e-49
2.81122e-49
2.84087e-49
2.78804e-49
2.78092e-49
2.77972e-49
2.79754e-49
2.76819e-49
2.83616e-49
2.83159e-49
2.83524e-49
2.80967e-49
2.8152e-49
2.79307e-49
2.77523e-49
2.7852e-49
2.75804e-49
2.76972e-49
2.78634e-49
2.77139e-49
2.87042e-49
2.88186e-49
2.90292e-49
2.85404e-49
2.8636e-49
2.84361e-49
2.88788e-49
2.86614e-49
2.87106e-49
2.91945e-49
2.88669e-49
2.84813e-49
2.899e-49
2.88464e-49
2.87244e-49
2.89001e-49
2.82134e-49
2.85675e-49
2.84907e-49
2.84109e-49
3.5627e-49
3.56882e-49
3.5887e-49
3.59753e-49
3.60426e-49
3.63512e-49
3.6423e-49
3.62125e-49
3.602e-49
3.56137e-49
3.56125e-49
3.57159e-49
3.60304e-49
3.60535e-49
3.57659e-49
3.58882e-49
3.58456e-49
3.58638e-49
3.55525e-49
3.57195e-49
3.66934e-49
3.64107e-49
3.65856e-49
3.70545e-49
3.69455e-49
3.73106e-49
3.66702e-49
3.74266e-49
3.64037e-49
3.62511e-49
3.61851e-49
3.65257e-49
3.64594e-49
3.61514e-49
3.61107e-49
3.63911e-49
3.59859e-49
3.65037e-49
3.64016e-49
3.66601e-49
3.95358e-49
3.93974e-49
3.98593e-49
3.93874e-49
3.95138e-49
4.00791e-49
3.96867e-49
4.03403e-49
3.96441e-49
4.01829e-49
3.9813e-49
3.99327e-49
3.99998e-49
4.03871e-49
3.99376e-49
4.04561e-49
3.97769e-49
3.93582e-49
3.97753e-49
3.93633e-49
3.79401e-49
3.77648e-49
3.74538e-49
3.76239e-49
3.78551e-49
3.8117e-49
3.79984e-49
3.79216e-49
3.74959e-49
3.7528e-49
3.71417e-49
3.79239e-49
3.80976e-49
3.82444e-49
3.83378e-49
3.79971e-49
3.79941e-49
3.81423e-49
3.78845e-49
3.79069e-49
3.67549e-49
3.73684e-49
3.68233e-49
3.75501e-49
3.6585e-49
3.72169e-49
3.67264e-49
3.72354e-49
3.69272e-49
3.72677e-49
3.69445e-49
3.77737e-49
3.7013e-49
3.77926e-49
3.71037e-49
3.71392e-49
3.7433e-49
3.66958e-49
3.7504e-49
3.74688e-49
3.27488e-49
3.3464e-49
3.3375e-49
3.30021e-49
3.28439e-49
3.36447e-49
3.3126e-49
3.33421e-49
3.32156e-49
3.27619e-49
3.30302e-49
3.35034e-49
3.30551e-49
3.38209e-49
3.31233e-49
3.35103e-49
3.34938e-49
3.33305e-49
3.35269e-49
3.37173e-49
3.42052e-49
3.42243e-49
3.44068e-49
3.4592e-49
3.45451e-49
3.45386e-49
3.39606e-49
3.48114e-49
3.48469e-49
3.42426e-49
3.4732e-49
3.49883e-49
3.40391e-49
3.50413e-49
3.5007e-49
3.5376e-49
3.48064e-49
3.48053e-49
3.45222e-49
3.50191e-49
1.94047e-49
1.95857e-49
1.96189e-49
1.93938e-49
1.9501e-49
1.94712e-49
1.94804e-49
1.9569e-49
1.93053e-49
1.96662e-49
1.92769e-49
1.96623e-49
1.9339e-49
1.98673e-49
1.93843e-49
1.94145e-49
1.94007e-49
1.974e-49
1.95112e-49
1.98321e-49
7.23356e-61
7.26215e-61
7.30444e-61
7.23769e-61
7.2042e-61
7.32831e-61
7.29314e-61
7.15385e-61
7.20554e-61
7.39e-61
7.25492e-61
7.3553e-61
7.31158e-61
7.37972e-61
7.21943e-61
7.40835e-61
7.21036e-61
7.27812e-61
7.23263e-61
7.01834e-61
1.95191e-58
1.96097e-58
1.9721e-58
1.95421e-58
1.94479e-58
1.97836e-58
1.96884e-58
1.93142e-58
1.94539e-58
1.99493e-58
1.95866e-58
1.98529e-58
1.97426e-58
1.99214e-58
1.94931e-58
1.99978e-58
1.94716e-58
1.9652e-58
1.95293e-58
1.89432e-58
2.61794e-56
2.63184e-56
2.64639e-56
2.62255e-56
2.6094e-56
2.65451e-56
2.64173e-56
2.59177e-56
2.61054e-56
2.67667e-56
2.62826e-56
2.66335e-56
2.64959e-56
2.6729e-56
2.616e-56
2.68298e-56
2.61353e-56
2.63737e-56
2.62096e-56
2.54135e-56
2.09326e-54
2.10575e-54
2.11706e-54
2.09809e-54
2.08717e-54
2.12331e-54
2.11308e-54
2.07332e-54
2.08838e-54
2.14096e-54
2.10246e-54
2.13e-54
2.11983e-54
2.1379e-54
2.09286e-54
2.14581e-54
2.09119e-54
2.10997e-54
2.09692e-54
2.03251e-54
1.1652e-52
1.17289e-52
1.17898e-52
1.16847e-52
1.16217e-52
1.18232e-52
1.17663e-52
1.15461e-52
1.16303e-52
1.19211e-52
1.17081e-52
1.18584e-52
1.18065e-52
1.19038e-52
1.16557e-52
1.19469e-52
1.16482e-52
1.1751e-52
1.1679e-52
1.13169e-52
4.52746e-51
4.55988e-51
4.58268e-51
4.54197e-51
4.51668e-51
4.59503e-51
4.57294e-51
4.48786e-51
4.52077e-51
4.63292e-51
4.55076e-51
4.60786e-51
4.58956e-51
4.62605e-51
4.5307e-51
4.64231e-51
4.52849e-51
4.5677e-51
4.5401e-51
4.39836e-51
1.22385e-49
1.23325e-49
1.23915e-49
1.22818e-49
1.22111e-49
1.2423e-49
1.23635e-49
1.2135e-49
1.22248e-49
1.25251e-49
1.2305e-49
1.24555e-49
1.24113e-49
1.2506e-49
1.22514e-49
1.25482e-49
1.22474e-49
1.2351e-49
1.22779e-49
1.18931e-49
2.10934e-48
2.12623e-48
2.13585e-48
2.11695e-48
2.10443e-48
2.14085e-48
2.1307e-48
2.0916e-48
2.10738e-48
2.15836e-48
2.12094e-48
2.14608e-48
2.13936e-48
2.15494e-48
2.11167e-48
2.16181e-48
2.11138e-48
2.12871e-48
2.11655e-48
2.05058e-48
1.09661e-47
1.10598e-47
1.11074e-47
1.10089e-47
1.09422e-47
1.11302e-47
1.10786e-47
1.08775e-47
1.0963e-47
1.1221e-47
1.10312e-47
1.11559e-47
1.11262e-47
1.1202e-47
1.09814e-47
1.12341e-47
1.09822e-47
1.10679e-47
1.1008e-47
1.06673e-47
2.00676e-48
2.01115e-48
2.02928e-48
1.99832e-48
1.99347e-48
2.00511e-48
2.00764e-48
1.97988e-48
2.0293e-48
2.02059e-48
2.02264e-48
2.01685e-48
2.01085e-48
2.00887e-48
1.98627e-48
1.99312e-48
1.99509e-48
1.98991e-48
1.996e-48
1.99243e-48
4.1731e-48
4.1905e-48
4.23475e-48
4.15571e-48
4.14558e-48
4.14337e-48
4.16995e-48
4.12674e-48
4.22731e-48
4.22115e-48
4.22602e-48
4.18756e-48
4.19662e-48
4.16372e-48
4.13742e-48
4.15189e-48
4.11137e-48
4.12839e-48
4.15352e-48
4.13033e-48
4.25441e-48
4.27109e-48
4.30255e-48
4.23069e-48
4.24492e-48
4.21626e-48
4.2813e-48
4.24946e-48
4.25538e-48
4.32639e-48
4.27797e-48
4.22127e-48
4.29666e-48
4.27602e-48
4.25808e-48
4.28392e-48
4.1836e-48
4.23446e-48
4.2238e-48
4.21164e-48
5.30344e-48
5.31147e-48
5.34161e-48
5.35534e-48
5.36512e-48
5.41115e-48
5.41978e-48
5.39058e-48
5.36109e-48
5.30077e-48
5.3006e-48
5.31628e-48
5.36259e-48
5.36476e-48
5.32375e-48
5.3411e-48
5.3343e-48
5.33821e-48
5.29226e-48
5.31692e-48
5.4483e-48
5.40606e-48
5.43225e-48
5.50074e-48
5.48512e-48
5.53955e-48
5.44419e-48
5.55676e-48
5.40456e-48
5.38353e-48
5.37319e-48
5.42348e-48
5.41355e-48
5.3682e-48
5.36287e-48
5.4038e-48
5.34394e-48
5.41966e-48
5.40611e-48
5.4425e-48
5.89514e-48
5.87499e-48
5.94273e-48
5.87206e-48
5.89242e-48
5.97542e-48
5.91741e-48
6.01367e-48
5.91186e-48
5.99157e-48
5.93596e-48
5.95348e-48
5.96441e-48
6.02238e-48
5.95542e-48
6.03111e-48
5.93153e-48
5.86918e-48
5.9312e-48
5.86913e-48
5.64667e-48
5.62226e-48
5.57501e-48
5.601e-48
5.63409e-48
5.67292e-48
5.65541e-48
5.64443e-48
5.58255e-48
5.58619e-48
5.529e-48
5.64478e-48
5.67091e-48
5.69166e-48
5.7064e-48
5.65466e-48
5.65561e-48
5.67735e-48
5.63983e-48
5.64298e-48
5.49895e-48
5.59065e-48
5.5097e-48
5.61676e-48
5.47294e-48
5.56643e-48
5.49388e-48
5.56946e-48
5.52429e-48
5.5753e-48
5.52675e-48
5.65069e-48
5.53692e-48
5.65281e-48
5.55109e-48
5.55474e-48
5.59985e-48
5.49005e-48
5.61014e-48
5.60495e-48
4.89825e-48
5.00378e-48
4.99124e-48
4.93553e-48
4.91257e-48
5.03039e-48
4.95347e-48
4.98557e-48
4.96734e-48
4.89931e-48
4.93972e-48
5.00965e-48
4.94347e-48
5.05661e-48
4.95407e-48
5.01103e-48
5.00826e-48
4.98453e-48
5.01269e-48
5.04139e-48
5.15923e-48
5.16175e-48
5.19003e-48
5.21704e-48
5.20976e-48
5.20834e-48
5.12198e-48
5.25051e-48
5.25458e-48
5.1646e-48
5.23804e-48
5.27666e-48
5.13454e-48
5.28435e-48
5.27989e-48
5.33401e-48
5.24992e-48
5.24829e-48
5.20617e-48
5.28012e-48
2.90819e-48
2.93532e-48
2.94063e-48
2.9067e-48
2.92244e-48
2.91799e-48
2.91935e-48
2.93285e-48
2.89284e-48
2.94702e-48
2.88896e-48
2.94631e-48
2.89848e-48
2.97708e-48
2.90514e-48
2.90958e-48
2.9074e-48
2.95795e-48
2.924e-48
2.97161e-48
1.25893e-59
1.26486e-59
1.27212e-59
1.26064e-59
1.25461e-59
1.27632e-59
1.2702e-59
1.24607e-59
1.25508e-59
1.2871e-59
1.26367e-59
1.28087e-59
1.27372e-59
1.28524e-59
1.25756e-59
1.29013e-59
1.25604e-59
1.26765e-59
1.25967e-59
1.22169e-59
3.34086e-57
3.35902e-57
3.37779e-57
3.34752e-57
3.33085e-57
3.38857e-57
3.37231e-57
3.30855e-57
3.33248e-57
3.41707e-57
3.35518e-57
3.40004e-57
3.3824e-57
3.41212e-57
3.33937e-57
3.42492e-57
3.33586e-57
3.36626e-57
3.34511e-57
3.24289e-57
4.40318e-55
4.4302e-55
4.45427e-55
4.41459e-55
4.39176e-55
4.46798e-55
4.44652e-55
4.36287e-55
4.39447e-55
4.5054e-55
4.42425e-55