/*--------------------------------*- C++ -*----------------------------------*\
| =========                 |                                                 |
| \\      /  F ield         | OpenFOAM: The Open Source CFD Toolbox           |
|  \\    /   O peration     | Version:  2212                                  |
|   \\  /    A nd           | Website:  www.openfoam.com                      |
|    \\/     M anipulation  |                                                 |
\*---------------------------------------------------------------------------*/
FoamFile
{
    version     2.0;
    format      ascii;
    arch        "LSB;label=32;scalar=64";
    class       volScalarField;
    location    "0.3816";
    object      s;
}
// * * * * * * * * * * * * * * * * * * * * * * * * * * * * * * * * * * * * * //

dimensions      [0 0 0 0 0 0 0];

internalField   nonuniform List<scalar> 
24240
(
3.76243e-75
3.73177e-75
3.76108e-75
3.7117e-75
3.71267e-75
3.76579e-75
3.74971e-75
3.66768e-75
3.69665e-75
3.79417e-75
3.72114e-75
3.78878e-75
3.73775e-75
3.79332e-75
3.69809e-75
3.81393e-75
3.68974e-75
3.73326e-75
3.72011e-75
3.63419e-75
1.41089e-72
1.39986e-72
1.41066e-72
1.39246e-72
1.39242e-72
1.41257e-72
1.40646e-72
1.37589e-72
1.38672e-72
1.4232e-72
1.39591e-72
1.42098e-72
1.40234e-72
1.42286e-72
1.38736e-72
1.43048e-72
1.38439e-72
1.40057e-72
1.3954e-72
1.36318e-72
2.67378e-70
2.65378e-70
2.67388e-70
2.63997e-70
2.63916e-70
2.67775e-70
2.66606e-70
2.60846e-70
2.62896e-70
2.69791e-70
2.64637e-70
2.69333e-70
2.65894e-70
2.69722e-70
2.63036e-70
2.71146e-70
2.62504e-70
2.65543e-70
2.6452e-70
2.58418e-70
2.96041e-68
2.93924e-68
2.96109e-68
2.92418e-68
2.92247e-68
2.96563e-68
2.95255e-68
2.88918e-68
2.91184e-68
2.98793e-68
2.93109e-68
2.98243e-68
2.94543e-68
2.9871e-68
2.91354e-68
3.00259e-68
2.90802e-68
2.94133e-68
2.92952e-68
2.86205e-68
2.31749e-66
2.30171e-66
2.31847e-66
2.29007e-66
2.28809e-66
2.32221e-66
2.31188e-66
2.2626e-66
2.28034e-66
2.33965e-66
2.29537e-66
2.33502e-66
2.3069e-66
2.33894e-66
2.28175e-66
2.35083e-66
2.27774e-66
2.30351e-66
2.29393e-66
2.24124e-66
1.25821e-64
1.25006e-64
1.25897e-64
1.24381e-64
1.24239e-64
1.26108e-64
1.25543e-64
1.22886e-64
1.23851e-64
1.27053e-64
1.24663e-64
1.26783e-64
1.25303e-64
1.2701e-64
1.23927e-64
1.2764e-64
1.23728e-64
1.25107e-64
1.2457e-64
1.21721e-64
4.73932e-63
4.71021e-63
4.74301e-63
4.68689e-63
4.68024e-63
4.75124e-63
4.72983e-63
4.63052e-63
4.66708e-63
4.7867e-63
4.69738e-63
4.77585e-63
4.72201e-63
4.78487e-63
4.66971e-63
4.80784e-63
4.66308e-63
4.71407e-63
4.69327e-63
4.58674e-63
1.1701e-61
1.1633e-61
1.1712e-61
1.15756e-61
1.15562e-61
1.17324e-61
1.16796e-61
1.14365e-61
1.15283e-61
1.18193e-61
1.16017e-61
1.1791e-61
1.16629e-61
1.18141e-61
1.15326e-61
1.18681e-61
1.15191e-61
1.16415e-61
1.15892e-61
1.13302e-61
8.20486e-61
8.16147e-61
8.21546e-61
8.12139e-61
8.10551e-61
8.22911e-61
8.19281e-61
8.0244e-61
8.09165e-61
8.28927e-61
8.14113e-61
8.26877e-61
8.1831e-61
8.28487e-61
8.09073e-61
8.31944e-61
8.08441e-61
8.16596e-61
8.12929e-61
7.95258e-61
2.68245e-61
2.68463e-61
2.70433e-61
2.66505e-61
2.66371e-61
2.6832e-61
2.6868e-61
2.64033e-61
2.70848e-61
2.6896e-61
2.6969e-61
2.69674e-61
2.6746e-61
2.68249e-61
2.64243e-61
2.66272e-61
2.67134e-61
2.65679e-61
2.66256e-61
2.67128e-61
4.74527e-61
4.76784e-61
4.81619e-61
4.73189e-61
4.71045e-61
4.71793e-61
4.75025e-61
4.68688e-61
4.81557e-61
4.79507e-61
4.81256e-61
4.77563e-61
4.76975e-61
4.72828e-61
4.69428e-61
4.72062e-61
4.67756e-61
4.70093e-61
4.72578e-61
4.71874e-61
5.18234e-61
5.20908e-61
5.24083e-61
5.14405e-61
5.15858e-61
5.09976e-61
5.19385e-61
5.14248e-61
5.18668e-61
5.28831e-61
5.22627e-61
5.14414e-61
5.24022e-61
5.19597e-61
5.17569e-61
5.2102e-61
5.05016e-61
5.15752e-61
5.11964e-61
5.11711e-61
6.15956e-61
6.19719e-61
6.21699e-61
6.21779e-61
6.23536e-61
6.28841e-61
6.34737e-61
6.25959e-61
6.24432e-61
6.16794e-61
6.17314e-61
6.18691e-61
6.24772e-61
6.27323e-61
6.18633e-61
6.22747e-61
6.23543e-61
6.20534e-61
6.1522e-61
6.18126e-61
6.54402e-61
6.50012e-61
6.5284e-61
6.63754e-61
6.60451e-61
6.66665e-61
6.55198e-61
6.68778e-61
6.5131e-61
6.44171e-61
6.44821e-61
6.51018e-61
6.50369e-61
6.43585e-61
6.41326e-61
6.47877e-61
6.4016e-61
6.51686e-61
6.46965e-61
6.55915e-61
6.81397e-61
6.78565e-61
6.88582e-61
6.80901e-61
6.79668e-61
6.91674e-61
6.8518e-61
6.9754e-61
6.82277e-61
6.9272e-61
6.87352e-61
6.89718e-61
6.89837e-61
6.95214e-61
6.87701e-61
6.99958e-61
6.85157e-61
6.77611e-61
6.84999e-61
6.79961e-61
6.70327e-61
6.63383e-61
6.60329e-61
6.61882e-61
6.68342e-61
6.73274e-61
6.71158e-61
6.6878e-61
6.58129e-61
6.60755e-61
6.53408e-61
6.69193e-61
6.71292e-61
6.76454e-61
6.76302e-61
6.72342e-61
6.6956e-61
6.72331e-61
6.66122e-61
6.67333e-61
6.25802e-61
6.36029e-61
6.26039e-61
6.42224e-61
6.24407e-61
6.37268e-61
6.27009e-61
6.36759e-61
6.29541e-61
6.35016e-61
6.30455e-61
6.44363e-61
6.31194e-61
6.46486e-61
6.31217e-61
6.35896e-61
6.38329e-61
6.24399e-61
6.4023e-61
6.3974e-61
5.60878e-61
5.76264e-61
5.72955e-61
5.66416e-61
5.62529e-61
5.80508e-61
5.7052e-61
5.74174e-61
5.70519e-61
5.62699e-61
5.67366e-61
5.77083e-61
5.6769e-61
5.84014e-61
5.68122e-61
5.7659e-61
5.7716e-61
5.72645e-61
5.78546e-61
5.81214e-61
5.44009e-61
5.44434e-61
5.45745e-61
5.50693e-61
5.50711e-61
5.51088e-61
5.40462e-61
5.52968e-61
5.56475e-61
5.44425e-61
5.53136e-61
5.57175e-61
5.40322e-61
5.58946e-61
5.56904e-61
5.65671e-61
5.52985e-61
5.56188e-61
5.50544e-61
5.60742e-61
3.4391e-61
3.46887e-61
3.46683e-61
3.43167e-61
3.45974e-61
3.4525e-61
3.4574e-61
3.4651e-61
3.43283e-61
3.4935e-61
3.41869e-61
3.49654e-61
3.42491e-61
3.53144e-61
3.4348e-61
3.44114e-61
3.44344e-61
3.50938e-61
3.46084e-61
3.53042e-61
8.72628e-74
8.65785e-74
8.72498e-74
8.61239e-74
8.61239e-74
8.73714e-74
8.69934e-74
8.51021e-74
8.57696e-74
8.80329e-74
8.63398e-74
8.78958e-74
8.6737e-74
8.80091e-74
8.58095e-74
8.84819e-74
8.56186e-74
8.66233e-74
8.63033e-74
8.43042e-74
3.23633e-71
3.21208e-71
3.23654e-71
3.1955e-71
3.19459e-71
3.24136e-71
3.22718e-71
3.15746e-71
3.18215e-71
3.26589e-71
3.20331e-71
3.26034e-71
3.21852e-71
3.26496e-71
3.18388e-71
3.28226e-71
3.17717e-71
3.21412e-71
3.20171e-71
3.12754e-71
6.03433e-69
5.9912e-69
6.03599e-69
5.96076e-69
5.95741e-69
6.04552e-69
6.01881e-69
5.88961e-69
5.93558e-69
6.09128e-69
5.97503e-69
6.0801e-69
6.00429e-69
6.08946e-69
5.93925e-69
6.12124e-69
5.92747e-69
5.99571e-69
5.97161e-69
5.83331e-69
6.60465e-67
6.55975e-67
6.60786e-67
6.5269e-67
6.52141e-67
6.61881e-67
6.58929e-67
6.44877e-67
6.49901e-67
6.66885e-67
6.54211e-67
6.65565e-67
6.57506e-67
6.66668e-67
6.50334e-67
6.70086e-67
6.49127e-67
6.56518e-67
6.5378e-67
6.38651e-67
5.0901e-65
5.05728e-65
5.09363e-65
5.03228e-65
5.02666e-65
5.10244e-65
5.07949e-65
4.97192e-65
5.01064e-65
5.14098e-65
5.04377e-65
5.13006e-65
5.06986e-65
5.13917e-65
5.01417e-65
5.16499e-65
5.00557e-65
5.06185e-65
5.04002e-65
4.92363e-65
2.73036e-63
2.71369e-63
2.73278e-63
2.70042e-63
2.69666e-63
2.73767e-63
2.72527e-63
2.66796e-63
2.68877e-63
2.75829e-63
2.70645e-63
2.75203e-63
2.72077e-63
2.75721e-63
2.69066e-63
2.77072e-63
2.68645e-63
2.7162e-63
2.70414e-63
2.64193e-63
1.01363e-61
1.00781e-61
1.01473e-61
1.00292e-61
1.00124e-61
1.01659e-61
1.01196e-61
9.90853e-62
9.98627e-62
1.02422e-61
1.00513e-61
1.02175e-61
1.01055e-61
1.02378e-61
9.99278e-62
1.02863e-61
9.979e-62
1.00874e-61
1.00415e-61
9.81201e-62
2.46747e-60
2.45411e-60
2.47054e-60
2.44225e-60
2.43753e-60
2.47508e-60
2.46383e-60
2.41289e-60
2.43212e-60
2.49352e-60
2.44766e-60
2.48718e-60
2.46096e-60
2.49229e-60
2.43327e-60
2.50353e-60
2.4305e-60
2.45615e-60
2.44481e-60
2.38976e-60
1.7065e-59
1.69817e-59
1.70924e-59
1.68998e-59
1.68627e-59
1.71223e-59
1.7046e-59
1.66979e-59
1.6837e-59
1.72483e-59
1.69403e-59
1.7203e-59
1.70304e-59
1.72382e-59
1.68367e-59
1.73091e-59
1.68241e-59
1.69926e-59
1.69143e-59
1.65434e-59
5.41778e-60
5.42251e-60
5.46287e-60
5.38341e-60
5.37992e-60
5.4191e-60
5.42616e-60
5.33332e-60
5.47134e-60
5.43295e-60
5.4479e-60
5.44655e-60
5.40303e-60
5.41784e-60
5.33804e-60
5.37718e-60
5.39528e-60
5.3662e-60
5.37817e-60
5.39556e-60
9.68691e-60
9.73228e-60
9.83117e-60
9.65865e-60
9.61568e-60
9.62982e-60
9.69546e-60
9.56778e-60
9.82904e-60
9.78878e-60
9.82324e-60
9.74712e-60
9.73675e-60
9.65255e-60
9.58343e-60
9.63618e-60
9.5473e-60
9.59554e-60
9.64604e-60
9.6303e-60
1.05201e-59
1.05735e-59
1.06384e-59
1.04423e-59
1.04725e-59
1.03549e-59
1.05449e-59
1.04423e-59
1.05273e-59
1.0733e-59
1.0607e-59
1.04416e-59
1.06365e-59
1.05488e-59
1.05071e-59
1.05772e-59
1.0255e-59
1.0469e-59
1.03944e-59
1.03883e-59
1.2539e-59
1.2612e-59
1.2654e-59
1.26581e-59
1.26928e-59
1.28018e-59
1.29159e-59
1.27433e-59
1.27101e-59
1.25542e-59
1.25642e-59
1.25934e-59
1.27158e-59
1.27667e-59
1.25927e-59
1.26745e-59
1.26902e-59
1.26319e-59
1.25232e-59
1.25834e-59
1.32523e-59
1.31618e-59
1.32193e-59
1.3438e-59
1.33723e-59
1.34983e-59
1.3266e-59
1.35415e-59
1.3186e-59
1.30472e-59
1.30577e-59
1.31838e-59
1.31694e-59
1.30335e-59
1.29893e-59
1.3121e-59
1.29641e-59
1.31959e-59
1.31028e-59
1.32805e-59
1.38463e-59
1.37883e-59
1.39903e-59
1.38333e-59
1.38116e-59
1.40543e-59
1.39212e-59
1.41722e-59
1.38647e-59
1.40765e-59
1.39661e-59
1.40142e-59
1.40167e-59
1.4129e-59
1.39751e-59
1.42212e-59
1.39231e-59
1.37693e-59
1.39196e-59
1.38148e-59
1.35494e-59
1.34118e-59
1.33465e-59
1.33803e-59
1.35093e-59
1.36081e-59
1.35654e-59
1.35175e-59
1.33052e-59
1.33565e-59
1.32082e-59
1.35257e-59
1.35692e-59
1.36711e-59
1.36704e-59
1.35872e-59
1.35341e-59
1.35915e-59
1.34662e-59
1.34906e-59
1.27065e-59
1.29154e-59
1.27125e-59
1.30381e-59
1.2676e-59
1.29362e-59
1.2729e-59
1.29269e-59
1.27822e-59
1.28943e-59
1.28004e-59
1.30834e-59
1.28153e-59
1.31241e-59
1.28168e-59
1.29085e-59
1.29604e-59
1.26781e-59
1.29988e-59
1.29888e-59
1.1348e-59
1.16557e-59
1.15908e-59
1.14575e-59
1.13809e-59
1.17405e-59
1.15391e-59
1.16135e-59
1.15409e-59
1.13825e-59
1.14764e-59
1.16716e-59
1.14835e-59
1.18104e-59
1.14929e-59
1.16628e-59
1.1673e-59
1.15841e-59
1.17004e-59
1.17558e-59
1.10868e-59
1.10949e-59
1.11234e-59
1.12225e-59
1.12218e-59
1.1229e-59
1.10135e-59
1.12704e-59
1.13387e-59
1.10956e-59
1.1272e-59
1.13545e-59
1.10119e-59
1.13892e-59
1.13494e-59
1.15255e-59
1.127e-59
1.13321e-59
1.12178e-59
1.14239e-59
6.96749e-60
7.02821e-60
7.02476e-60
6.95279e-60
7.00857e-60
6.99447e-60
7.00396e-60
7.02037e-60
6.95295e-60
7.07675e-60
6.92524e-60
7.08227e-60
6.9387e-60
7.15326e-60
6.95822e-60
6.97096e-60
6.97526e-60
7.10849e-60
7.01099e-60
7.15077e-60
1.94712e-72
1.93251e-72
1.94729e-72
1.92261e-72
1.9221e-72
1.95029e-72
1.94174e-72
1.89981e-72
1.9146e-72
1.96514e-72
1.92738e-72
1.9618e-72
1.93653e-72
1.96452e-72
1.91566e-72
1.97495e-72
1.91147e-72
1.93377e-72
1.92629e-72
1.88151e-72
7.11282e-70
7.06202e-70
7.11507e-70
7.02646e-70
7.02258e-70
7.12664e-70
7.09509e-70
6.94282e-70
6.99673e-70
7.18089e-70
7.04342e-70
7.16767e-70
7.07794e-70
7.1785e-70
7.00115e-70
7.21609e-70
6.98668e-70
7.06743e-70
7.03894e-70
6.87517e-70
1.3042e-67
1.29536e-67
1.30491e-67
1.28894e-67
1.28787e-67
1.30715e-67
1.3013e-67
1.27356e-67
1.28343e-67
1.3171e-67
1.29199e-67
1.31449e-67
1.29851e-67
1.31664e-67
1.28433e-67
1.32343e-67
1.28184e-67
1.2965e-67
1.29108e-67
1.26103e-67
1.40943e-65
1.40039e-65
1.41051e-65
1.39354e-65
1.392e-65
1.41303e-65
1.40665e-65
1.37686e-65
1.38751e-65
1.42377e-65
1.39674e-65
1.42074e-65
1.404e-65
1.42324e-65
1.38856e-65
1.43044e-65
1.38604e-65
1.40172e-65
1.39564e-65
1.36317e-65
1.06845e-63
1.06199e-63
1.06951e-63
1.05686e-63
1.0554e-63
1.07149e-63
1.06662e-63
1.04418e-63
1.05226e-63
1.07963e-63
1.05923e-63
1.07717e-63
1.06488e-63
1.07919e-63
1.05309e-63
1.08454e-63
1.05133e-63
1.06307e-63
1.05832e-63
1.03373e-63
5.65444e-62
5.62226e-62
5.66123e-62
5.59537e-62
5.58613e-62
5.67197e-62
5.64602e-62
5.52811e-62
5.57095e-62
5.71495e-62
5.60767e-62
5.70113e-62
5.63826e-62
5.71242e-62
5.57534e-62
5.74005e-62
5.56688e-62
5.62809e-62
5.60227e-62
5.47247e-62
2.06691e-60
2.05591e-60
2.06982e-60
2.04614e-60
2.04221e-60
2.07382e-60
2.0643e-60
2.02153e-60
2.03728e-60
2.08949e-60
2.05059e-60
2.08413e-60
2.06199e-60
2.08847e-60
2.0388e-60
2.09824e-60
2.03608e-60
2.05803e-60
2.04837e-60
2.0012e-60
4.95345e-59
4.92881e-59
4.96129e-59
4.90544e-59
4.89473e-59
4.97086e-59
4.94807e-59
4.84646e-59
4.88485e-59
5.00813e-59
4.91616e-59
4.99463e-59
4.94369e-59
5.00538e-59
4.88761e-59
5.02766e-59
4.88226e-59
4.93339e-59
4.90996e-59
4.79845e-59
3.37568e-58
3.36071e-58
3.3823e-58
3.3448e-58
3.33661e-58
3.38847e-58
3.37323e-58
3.30483e-58
3.33218e-58
3.41358e-58
3.35269e-58
3.40409e-58
3.3711e-58
3.41138e-58
3.33247e-58
3.42522e-58
3.33008e-58
3.36318e-58
3.34728e-58
3.27314e-58
1.03898e-58
1.03994e-58
1.0478e-58
1.03253e-58
1.03171e-58
1.03918e-58
1.04049e-58
1.02289e-58
1.04943e-58
1.04203e-58
1.04493e-58
1.04447e-58
1.03637e-58
1.03898e-58
1.0239e-58
1.03105e-58
1.03463e-58
1.02913e-58
1.03149e-58
1.03476e-58
1.87826e-58
1.88691e-58
1.90612e-58
1.87258e-58
1.86442e-58
1.86694e-58
1.87959e-58
1.85518e-58
1.90554e-58
1.89805e-58
1.90448e-58
1.88958e-58
1.88789e-58
1.87166e-58
1.85831e-58
1.86834e-58
1.85093e-58
1.86036e-58
1.87012e-58
1.86679e-58
2.02891e-58
2.03902e-58
2.05162e-58
2.01391e-58
2.01986e-58
1.99756e-58
2.034e-58
2.01453e-58
2.03e-58
2.06954e-58
2.04519e-58
2.01357e-58
2.05112e-58
2.03464e-58
2.02651e-58
2.04e-58
1.97846e-58
2.01888e-58
2.00499e-58
2.00362e-58
2.42564e-58
2.43903e-58
2.44748e-58
2.44875e-58
2.45526e-58
2.4765e-58
2.4974e-58
2.46522e-58
2.45842e-58
2.4282e-58
2.43002e-58
2.43588e-58
2.45933e-58
2.46892e-58
2.43587e-58
2.4513e-58
2.45417e-58
2.44351e-58
2.42239e-58
2.43424e-58
2.55181e-58
2.53407e-58
2.54518e-58
2.58684e-58
2.57444e-58
2.59874e-58
2.55401e-58
2.60712e-58
2.53834e-58
2.51272e-58
2.51424e-58
2.53862e-58
2.5356e-58
2.50971e-58
2.50151e-58
2.52664e-58
2.49638e-58
2.54069e-58
2.52326e-58
2.55676e-58
2.67585e-58
2.66458e-58
2.70327e-58
2.67277e-58
2.66926e-58
2.71588e-58
2.68993e-58
2.73841e-58
2.67953e-58
2.72032e-58
2.69875e-58
2.70805e-58
2.70857e-58
2.73085e-58
2.70089e-58
2.74783e-58
2.69077e-58
2.66098e-58
2.69004e-58
2.6693e-58
2.60652e-58
2.58068e-58
2.56746e-58
2.57439e-58
2.59882e-58
2.61771e-58
2.60946e-58
2.60039e-58
2.56014e-58
2.56965e-58
2.54116e-58
2.60188e-58
2.61046e-58
2.62959e-58
2.62982e-58
2.61334e-58
2.60368e-58
2.61491e-58
2.59096e-58
2.59559e-58
2.456e-58
2.49655e-58
2.45731e-58
2.51958e-58
2.44966e-58
2.49965e-58
2.45993e-58
2.4981e-58
2.47052e-58
2.49232e-58
2.4739e-58
2.52873e-58
2.47682e-58
2.53615e-58
2.47741e-58
2.49434e-58
2.50491e-58
2.45055e-58
2.51226e-58
2.51036e-58
2.1871e-58
2.24564e-58
2.23357e-58
2.20774e-58
2.19332e-58
2.26179e-58
2.22313e-58
2.23752e-58
2.2238e-58
2.19327e-58
2.21125e-58
2.24859e-58
2.21273e-58
2.27505e-58
2.21466e-58
2.2471e-58
2.2488e-58
2.23216e-58
2.25396e-58
2.2649e-58
2.15292e-58
2.15443e-58
2.1603e-58
2.17918e-58
2.17883e-58
2.18014e-58
2.13852e-58
2.18879e-58
2.20141e-58
2.15469e-58
2.18874e-58
2.20478e-58
2.13848e-58
2.21127e-58
2.20386e-58
2.23754e-58
2.18857e-58
2.19998e-58
2.17796e-58
2.2176e-58
1.34684e-58
1.35863e-58
1.35812e-58
1.34407e-58
1.35464e-58
1.35201e-58
1.35374e-58
1.3571e-58
1.34367e-58
1.36775e-58
1.33851e-58
1.3687e-58
1.34126e-58
1.38248e-58
1.34496e-58
1.34741e-58
1.34814e-58
1.37381e-58
1.35513e-58
1.38191e-58
4.35001e-71
4.3189e-71
4.3515e-71
4.29735e-71
4.29505e-71
4.35881e-71
4.33948e-71
4.24638e-71
4.27922e-71
4.39218e-71
4.30787e-71
4.38409e-71
4.32899e-71
4.39059e-71
4.28194e-71
4.41362e-71
4.27274e-71
4.3223e-71
4.30481e-71
4.20432e-71
1.5634e-68
1.55281e-68
1.56432e-68
1.54519e-68
1.54393e-68
1.56707e-68
1.56006e-68
1.5268e-68
1.53857e-68
1.57907e-68
1.54887e-68
1.57593e-68
1.5567e-68
1.57847e-68
1.53968e-68
1.58663e-68
1.53656e-68
1.5542e-68
1.54768e-68
1.51149e-68
2.81884e-66
2.80082e-66
2.82118e-66
2.78727e-66
2.78423e-66
2.82637e-66
2.8136e-66
2.754e-66
2.7752e-66
2.84801e-66
2.79377e-66
2.84195e-66
2.80831e-66
2.84687e-66
2.7774e-66
2.86137e-66
2.77213e-66
2.80363e-66
2.79143e-66
2.7261e-66
3.00447e-64
2.98641e-64
3.00771e-64
2.97216e-64
2.9681e-64
3.01342e-64
2.99969e-64
2.93658e-64
2.95915e-64
3.03647e-64
2.9789e-64
3.02956e-64
2.99484e-64
3.03517e-64
2.96164e-64
3.05035e-64
2.9564e-64
2.9896e-64
2.97618e-64
2.90648e-64
2.23971e-62
2.22711e-62
2.24266e-62
2.2166e-62
2.21296e-62
2.24705e-62
2.23674e-62
2.19001e-62
2.20684e-62
2.26422e-62
2.22151e-62
2.25874e-62
2.23371e-62
2.26319e-62
2.20878e-62
2.27427e-62
2.20519e-62
2.22963e-62
2.21933e-62
2.16739e-62
1.16831e-60
1.16218e-60
1.17011e-60
1.15674e-60
1.15453e-60
1.17246e-60
1.16704e-60
1.14283e-60
1.15163e-60
1.18139e-60
1.15924e-60
1.17835e-60
1.16576e-60
1.1808e-60
1.15264e-60
1.18644e-60
1.15095e-60
1.1635e-60
1.158e-60
1.13096e-60
4.20412e-59
4.18364e-59
4.21152e-59
4.16418e-59
4.1551e-59
4.22007e-59
4.20051e-59
4.11408e-59
4.14594e-59
4.25213e-59
4.17309e-59
4.24056e-59
4.19699e-59
4.24982e-59
4.1494e-59
4.26943e-59
4.14405e-59
4.18836e-59
4.16814e-59
4.07133e-59
9.9127e-58
9.86795e-58
9.93198e-58
9.82204e-58
9.79812e-58
9.95197e-58
9.90595e-58
9.70394e-58
9.78034e-58
1.00271e-57
9.84318e-58
9.99845e-58
9.89996e-58
1.0021e-57
9.78677e-58
1.00649e-57
9.77649e-58
9.87802e-58
9.82987e-58
9.60451e-58
6.65575e-57
6.62935e-57
6.67127e-57
6.59851e-57
6.58072e-57
6.68394e-57
6.65363e-57
6.51964e-57
6.57328e-57
6.73382e-57
6.61386e-57
6.714e-57
6.65131e-57
6.72906e-57
6.5745e-57
6.75596e-57
6.57002e-57
6.63477e-57
6.60265e-57
6.45482e-57
1.98421e-57
1.98617e-57
2.00139e-57
1.97217e-57
1.97033e-57
1.98449e-57
1.98693e-57
1.95371e-57
2.00453e-57
1.99033e-57
1.99592e-57
1.99463e-57
1.97965e-57
1.98419e-57
1.95583e-57
1.96878e-57
1.97583e-57
1.96548e-57
1.9701e-57
1.97623e-57
3.6287e-57
3.64513e-57
3.68232e-57
3.61734e-57
3.60192e-57
3.60635e-57
3.63067e-57
3.58414e-57
3.68087e-57
3.667e-57
3.67894e-57
3.64988e-57
3.64725e-57
3.61609e-57
3.59041e-57
3.60938e-57
3.57541e-57
3.59376e-57
3.61258e-57
3.60558e-57
3.90002e-57
3.91907e-57
3.94349e-57
3.87121e-57
3.88288e-57
3.84076e-57
3.91038e-57
3.87357e-57
3.90153e-57
3.97733e-57
3.93042e-57
3.87015e-57
3.94227e-57
3.91142e-57
3.8956e-57
3.92151e-57
3.8044e-57
3.88043e-57
3.85471e-57
3.85168e-57
4.67759e-57
4.702e-57
4.71895e-57
4.72229e-57
4.73447e-57
4.77569e-57
4.81375e-57
4.75404e-57
4.74015e-57
4.68171e-57
4.68511e-57
4.69679e-57
4.74155e-57
4.75949e-57
4.69703e-57
4.72599e-57
4.73118e-57
4.71188e-57
4.67094e-57
4.69416e-57
4.90212e-57
4.86747e-57
4.88888e-57
4.96799e-57
4.94466e-57
4.99141e-57
4.90548e-57
5.00762e-57
4.87489e-57
4.82777e-57
4.82976e-57
4.87677e-57
4.87051e-57
4.82129e-57
4.80614e-57
4.85397e-57
4.79574e-57
4.88024e-57
4.84777e-57
4.91068e-57
5.15964e-57
5.13777e-57
5.2117e-57
5.15259e-57
5.14719e-57
5.23646e-57
5.18607e-57
5.2794e-57
5.16696e-57
5.2454e-57
5.20331e-57
5.2212e-57
5.22234e-57
5.26643e-57
5.20828e-57
5.29758e-57
5.18862e-57
5.13099e-57
5.18704e-57
5.14614e-57
5.00855e-57
4.96023e-57
4.93354e-57
4.9477e-57
4.99379e-57
5.02994e-57
5.01398e-57
4.99686e-57
4.92069e-57
4.93824e-57
4.88362e-57
4.9996e-57
5.01648e-57
5.0523e-57
5.05343e-57
5.02084e-57
5.00341e-57
5.02525e-57
4.97963e-57
4.9884e-57
4.74246e-57
4.82103e-57
4.74522e-57
4.86419e-57
4.72935e-57
4.82525e-57
4.74921e-57
4.82272e-57
4.77023e-57
4.8126e-57
4.77654e-57
4.88265e-57
4.78219e-57
4.8961e-57
4.78395e-57
4.81507e-57
4.83656e-57
4.73197e-57
4.8506e-57
4.84698e-57
4.2163e-57
4.32764e-57
4.30524e-57
4.25516e-57
4.22807e-57
4.35841e-57
4.2842e-57
4.31201e-57
4.2861e-57
4.22722e-57
4.26171e-57
4.33311e-57
4.26481e-57
4.38354e-57
4.26878e-57
4.33069e-57
4.33343e-57
4.30231e-57
4.34313e-57
4.36472e-57
4.18257e-57
4.18538e-57
4.19745e-57
4.23339e-57
4.23229e-57
4.23469e-57
4.15429e-57
4.25266e-57
4.27591e-57
4.18613e-57
4.25185e-57
4.28308e-57
4.15474e-57
4.29518e-57
4.28145e-57
4.34583e-57
4.25201e-57
4.27285e-57
4.23044e-57
4.30671e-57
2.60476e-57
2.62767e-57
2.62698e-57
2.59958e-57
2.61959e-57
2.61467e-57
2.61784e-57
2.62469e-57
2.59799e-57
2.64482e-57
2.58837e-57
2.64644e-57
2.59395e-57
2.67316e-57
2.60098e-57
2.60569e-57
2.6069e-57
2.65641e-57
2.62058e-57
2.67193e-57
9.70333e-70
9.63752e-70
9.7093e-70
9.59066e-70
9.58299e-70
9.72693e-70
9.68332e-70
9.47694e-70
9.54974e-70
9.80185e-70
9.61391e-70
9.78236e-70
9.66251e-70
9.79782e-70
9.55663e-70
9.84857e-70
9.5365e-70
9.64637e-70
9.60571e-70
9.38037e-70
3.43632e-67
3.41438e-67
3.43934e-67
3.39804e-67
3.39437e-67
3.44584e-67
3.43025e-67
3.35761e-67
3.38333e-67
3.47237e-67
3.40605e-67
3.46497e-67
3.4238e-67
3.47088e-67
3.38604e-67
3.48861e-67
3.37933e-67
3.41787e-67
3.40295e-67
3.32294e-67
6.09147e-65
6.055e-65
6.09843e-65
6.02643e-65
6.01828e-65
6.11037e-65
6.08249e-65
5.95452e-65
6.00005e-65
6.15742e-65
6.04031e-65
6.1434e-65
6.07271e-65
6.15466e-65
6.00531e-65
6.1856e-65
5.99418e-65
6.0618e-65
6.03447e-65
5.89234e-65
6.40078e-63
6.36502e-63
6.40977e-63
6.33536e-63
6.32507e-63
6.42269e-63
6.39314e-63
6.25954e-63
6.30733e-63
6.47209e-63
6.34954e-63
6.45638e-63
6.38454e-63
6.46898e-63
6.31318e-63
6.50091e-63
6.3023e-63
6.37255e-63
6.34295e-63
6.19335e-63
4.69069e-61
4.66637e-61
4.69848e-61
4.64484e-61
4.63604e-61
4.70818e-61
4.68637e-61
4.58912e-61
4.62417e-61
4.74436e-61
4.655e-61
4.73214e-61
4.68132e-61
4.74194e-61
4.62863e-61
4.76485e-61
4.62133e-61
4.67214e-61
4.64987e-61
4.54019e-61
2.41005e-59
2.39849e-59
2.41463e-59
2.38751e-59
2.38235e-59
2.4197e-59
2.40843e-59
2.35881e-59
2.37686e-59
2.43825e-59
2.39261e-59
2.4316e-59
2.40645e-59
2.4369e-59
2.37916e-59
2.44837e-59
2.37577e-59
2.40147e-59
2.38977e-59
2.33349e-59
8.53404e-58
8.4965e-58
8.55226e-58
8.45778e-58
8.43721e-58
8.57038e-58
8.53033e-58
8.35602e-58
8.42035e-58
8.63588e-58
8.47561e-58
8.61102e-58
8.52557e-58
8.63068e-58
8.42811e-58
8.66996e-58
8.41766e-58
8.50688e-58
8.46471e-58
8.26622e-58
1.97834e-56
1.97036e-56
1.98295e-56
1.96137e-56
1.9561e-56
1.9871e-56
1.97783e-56
1.93778e-56
1.95295e-56
2.00218e-56
1.96553e-56
1.99615e-56
1.9772e-56
2.00085e-56
1.95441e-56
2.0095e-56
1.95245e-56
1.97254e-56
1.96269e-56
1.91723e-56
1.30842e-55
1.30388e-55
1.31199e-55
1.29791e-55
1.2941e-55
1.31457e-55
1.30856e-55
1.2824e-55
1.29289e-55
1.32445e-55
1.30089e-55
1.32033e-55
1.30848e-55
1.32343e-55
1.29326e-55
1.32864e-55
1.29242e-55
1.30504e-55
1.29858e-55
1.26917e-55
3.776e-56
3.77994e-56
3.80931e-56
3.75357e-56
3.74955e-56
3.77626e-56
3.78081e-56
3.71835e-56
3.81529e-56
3.78816e-56
3.7989e-56
3.79569e-56
3.76811e-56
3.77588e-56
3.72276e-56
3.74609e-56
3.75984e-56
3.74045e-56
3.74949e-56
3.76089e-56
6.98647e-56
7.01759e-56
7.08934e-56
6.96388e-56
6.93485e-56
6.94256e-56
6.98915e-56
6.9008e-56
7.08594e-56
7.06036e-56
7.08241e-56
7.02595e-56
7.02209e-56
6.96248e-56
6.91325e-56
6.94902e-56
6.88303e-56
6.91853e-56
6.95473e-56
6.94015e-56
7.47348e-56
7.50928e-56
7.55647e-56
7.41839e-56
7.44117e-56
7.36199e-56
7.49452e-56
7.42515e-56
7.47537e-56
7.62014e-56
7.53007e-56
7.41559e-56
7.55359e-56
7.49607e-56
7.46542e-56
7.515e-56
7.29301e-56
7.43542e-56
7.38804e-56
7.38148e-56
8.99326e-56
9.03753e-56
9.07136e-56
9.07936e-56
9.10213e-56
9.18174e-56
9.25074e-56
9.14037e-56
9.11225e-56
8.99975e-56
9.00599e-56
9.02907e-56
9.11435e-56
9.14769e-56
9.03011e-56
9.08425e-56
9.09339e-56
9.05881e-56
8.97972e-56
9.025e-56
9.39471e-56
9.32724e-56
9.36844e-56
9.51824e-56
9.4745e-56
9.56424e-56
9.39952e-56
9.59544e-56
9.34005e-56
9.25359e-56
9.25568e-56
9.34611e-56
9.33326e-56
9.23992e-56
9.21207e-56
9.30276e-56
9.19113e-56
9.35184e-56
9.29156e-56
9.40932e-56
9.92566e-56
9.8834e-56
1.00243e-55
9.91e-56
9.90228e-56
1.00727e-55
9.97519e-56
1.01543e-55
9.94023e-56
1.00906e-55
1.00087e-55
1.0043e-55
1.00456e-55
1.01323e-55
1.00199e-55
1.01892e-55
9.98176e-56
9.87063e-56
9.97847e-56
9.89808e-56
9.60873e-56
9.51868e-56
9.46518e-56
9.49376e-56
9.58051e-56
9.64965e-56
9.61885e-56
9.58668e-56
9.44282e-56
9.47512e-56
9.3706e-56
9.59162e-56
9.62482e-56
9.69161e-56
9.69507e-56
9.63095e-56
9.59959e-56
9.64174e-56
9.55523e-56
9.57178e-56
9.14267e-56
9.29443e-56
9.14839e-56
9.37498e-56
9.11574e-56
9.29924e-56
9.15399e-56
9.29522e-56
9.19548e-56
9.27765e-56
9.20715e-56
9.41213e-56
9.21831e-56
9.43644e-56
9.22295e-56
9.27978e-56
9.32325e-56
9.12258e-56
9.3499e-56
9.34307e-56
8.11793e-56
8.32945e-56
8.28788e-56
8.19119e-56
8.14019e-56
8.38789e-56
8.24568e-56
8.29935e-56
8.25054e-56
8.13726e-56
8.20329e-56
8.33964e-56
8.20959e-56
8.43555e-56
8.21775e-56
8.33565e-56
8.34002e-56
8.28182e-56
8.35821e-56
8.40066e-56
8.11324e-56
8.11852e-56
8.14321e-56
8.21136e-56
8.20841e-56
8.2129e-56
8.0579e-56
8.24994e-56
8.29252e-56
8.12034e-56
8.24697e-56
8.30767e-56
8.05979e-56
8.33025e-56
8.30478e-56
8.42755e-56
8.24832e-56
8.28609e-56
8.20468e-56
8.35106e-56
5.02196e-56
5.06623e-56
5.06551e-56
5.01233e-56
5.05011e-56
5.04085e-56
5.04656e-56
5.06054e-56
5.00774e-56
5.09838e-56
4.98991e-56
5.10115e-56
5.00103e-56
5.1528e-56
5.01451e-56
5.02357e-56
5.02539e-56
5.12051e-56
5.05202e-56
5.15015e-56
2.16563e-68
2.15179e-68
2.1676e-68
2.14159e-68
2.13932e-68
2.17182e-68
2.16198e-68
2.11621e-68
2.13236e-68
2.18865e-68
2.14674e-68
2.18397e-68
2.15792e-68
2.18764e-68
2.13408e-68
2.19882e-68
2.12967e-68
2.15404e-68
2.1446e-68
2.094e-68
7.54259e-66
7.49754e-66
7.55158e-66
7.46254e-66
7.45255e-66
7.5668e-66
7.53222e-66
7.37378e-66
7.42992e-66
7.62541e-66
7.47997e-66
7.608e-66
7.52012e-66
7.62174e-66
7.4365e-66
7.66016e-66
7.42209e-66
7.50612e-66
7.47213e-66
7.29534e-66
1.31424e-63
1.30693e-63
1.31618e-63
1.30092e-63
1.29882e-63
1.31891e-63
1.31283e-63
1.2854e-63
1.29517e-63
1.32912e-63
1.30388e-63
1.32589e-63
1.31108e-63
1.32845e-63
1.29641e-63
1.33505e-63
1.29407e-63
1.30855e-63
1.30245e-63
1.27155e-63
1.36058e-61
1.35358e-61
1.36296e-61
1.34742e-61
1.34489e-61
1.36586e-61
1.35952e-61
1.3313e-61
1.3414e-61
1.37643e-61
1.35041e-61
1.37287e-61
1.35807e-61
1.37569e-61
1.34276e-61
1.38239e-61
1.34051e-61
1.35533e-61
1.34884e-61
1.31677e-61
9.80022e-60
9.75397e-60
9.82012e-60
9.70998e-60
9.68911e-60
9.84137e-60
9.79541e-60
9.59352e-60
9.66634e-60
9.91742e-60
9.73095e-60
9.89033e-60
9.78757e-60
9.9118e-60
9.6765e-60
9.95905e-60
9.66171e-60
9.76703e-60
9.71908e-60
9.48782e-60
4.95708e-58
4.9357e-58
4.96841e-58
4.91358e-58
4.90172e-58
4.9793e-58
4.95592e-58
4.85452e-58
4.89145e-58
5.01768e-58
4.92393e-58
5.00321e-58
4.95323e-58
5.01462e-58
4.8966e-58
5.0379e-58
4.88987e-58
4.9423e-58
4.91756e-58
4.80063e-58
1.72697e-56
1.72024e-56
1.73135e-56
1.71255e-56
1.70796e-56
1.73517e-56
1.727e-56
1.69195e-56
1.7049e-56
1.7485e-56
1.71611e-56
1.74319e-56
1.72652e-56
1.74735e-56
1.70662e-56
1.75519e-56
1.70459e-56
1.72249e-56
1.71374e-56
1.67313e-56
3.93444e-55
3.9206e-55
3.94523e-55
3.90301e-55
3.89157e-55
3.95377e-55
3.93521e-55
3.85607e-55
3.88609e-55
3.98397e-55
3.91117e-55
3.97132e-55
3.93507e-55
3.98107e-55
3.88936e-55
3.99803e-55
3.88563e-55
3.92524e-55
3.90519e-55
3.81371e-55
2.56286e-54
2.55531e-54
2.57094e-54
2.5438e-54
2.5357e-54
2.57616e-54
2.5643e-54
2.51338e-54
2.53382e-54
2.59565e-54
2.54955e-54
2.58715e-54
2.56489e-54
2.59349e-54
2.5348e-54
2.60353e-54
2.53326e-54
2.55776e-54
2.54485e-54
2.48646e-54
7.15464e-55
7.16248e-55
7.21893e-55
7.113e-55
7.10447e-55
7.15454e-55
7.16303e-55
7.04613e-55
7.23027e-55
7.17868e-55
7.19919e-55
7.19161e-55
7.14118e-55
7.15422e-55
7.0552e-55
7.09693e-55
7.12353e-55
7.0874e-55
7.10504e-55
7.12609e-55
1.33981e-54
1.34568e-54
1.35947e-54
1.33533e-54
1.3299e-54
1.33122e-54
1.34012e-54
1.32341e-54
1.3587e-54
1.35401e-54
1.35806e-54
1.34713e-54
1.34662e-54
1.33526e-54
1.32587e-54
1.33258e-54
1.31982e-54
1.32665e-54
1.33359e-54
1.33057e-54
1.42663e-54
1.43332e-54
1.44241e-54
1.41614e-54
1.42056e-54
1.40575e-54
1.43088e-54
1.41785e-54
1.4268e-54
1.45433e-54
1.43712e-54
1.41545e-54
1.44176e-54
1.43108e-54
1.42517e-54
1.43462e-54
1.39272e-54
1.41927e-54
1.41059e-54
1.4092e-54
1.72268e-54
1.73065e-54
1.73737e-54
1.7392e-54
1.74344e-54
1.75875e-54
1.77117e-54
1.75088e-54
1.74522e-54
1.72365e-54
1.72479e-54
1.72933e-54
1.74551e-54
1.75165e-54
1.72964e-54
1.7397e-54
1.74128e-54
1.73516e-54
1.71994e-54
1.72873e-54
1.79443e-54
1.78135e-54
1.78924e-54
1.81751e-54
1.80934e-54
1.82651e-54
1.79503e-54
1.83249e-54
1.78352e-54
1.76773e-54
1.76781e-54
1.78514e-54
1.78252e-54
1.76488e-54
1.75979e-54
1.77693e-54
1.7556e-54
1.78606e-54
1.77494e-54
1.79688e-54
1.90319e-54
1.89506e-54
1.9218e-54
1.89978e-54
1.89883e-54
1.93124e-54
1.91246e-54
1.94669e-54
1.9061e-54
1.93483e-54
1.91896e-54
1.92548e-54
1.92609e-54
1.94308e-54
1.92139e-54
1.9534e-54
1.91404e-54
1.89266e-54
1.91335e-54
1.8976e-54
1.83823e-54
1.82152e-54
1.81085e-54
1.81659e-54
1.83285e-54
1.84603e-54
1.84011e-54
1.83409e-54
1.80702e-54
1.81292e-54
1.79298e-54
1.83498e-54
1.84148e-54
1.85389e-54
1.8548e-54
1.84222e-54
1.83664e-54
1.84473e-54
1.82839e-54
1.8315e-54
1.75771e-54
1.78696e-54
1.7589e-54
1.80195e-54
1.75222e-54
1.78723e-54
1.75956e-54
1.78663e-54
1.76775e-54
1.78363e-54
1.7699e-54
1.80938e-54
1.77208e-54
1.81374e-54
1.7732e-54
1.78352e-54
1.79229e-54
1.75387e-54
1.79733e-54
1.79604e-54
1.55951e-54
1.59958e-54
1.5919e-54
1.57327e-54
1.56373e-54
1.61066e-54
1.58349e-54
1.5938e-54
1.58465e-54
1.56287e-54
1.57552e-54
1.60147e-54
1.57679e-54
1.61967e-54
1.57847e-54
1.60086e-54
1.60151e-54
1.59069e-54
1.6049e-54
1.61323e-54
1.57047e-54
1.57144e-54
1.57647e-54
1.58937e-54
1.58865e-54
1.58946e-54
1.55965e-54
1.59706e-54
1.60482e-54
1.57188e-54
1.59623e-54
1.60799e-54
1.56022e-54
1.61218e-54
1.60751e-54
1.63085e-54
1.59668e-54
1.60349e-54
1.58788e-54
1.61592e-54
9.67589e-55
9.76158e-55
9.76134e-55
9.65794e-55
9.72927e-55
9.71194e-55
9.72233e-55
9.7505e-55
9.64614e-55
9.82168e-55
9.61321e-55
9.82621e-55
9.63561e-55
9.92606e-55
9.66112e-55
9.67846e-55
9.6812e-55
9.86381e-55
9.73306e-55
9.9204e-55
4.82755e-67
4.79868e-67
4.83346e-67
4.77654e-67
4.77023e-67
4.8435e-67
4.82135e-67
4.71996e-67
4.75575e-67
4.88124e-67
4.78791e-67
4.87009e-67
4.8136e-67
4.87874e-67
4.75998e-67
4.90336e-67
4.75035e-67
4.80429e-67
4.78245e-67
4.6689e-67
1.65377e-64
1.64461e-64
1.6563e-64
1.63713e-64
1.63451e-64
1.65984e-64
1.65218e-64
1.61766e-64
1.6299e-64
1.67277e-64
1.64091e-64
1.6687e-64
1.64998e-64
1.67188e-64
1.63148e-64
1.68019e-64
1.6284e-64
1.64669e-64
1.63897e-64
1.59991e-64
2.83181e-62
2.81735e-62
2.83699e-62
2.80469e-62
2.79946e-62
2.84319e-62
2.82998e-62
2.77125e-62