/*--------------------------------*- C++ -*----------------------------------*\
| =========                 |                                                 |
| \\      /  F ield         | OpenFOAM: The Open Source CFD Toolbox           |
|  \\    /   O peration     | Version:  2212                                  |
|   \\  /    A nd           | Website:  www.openfoam.com                      |
|    \\/     M anipulation  |                                                 |
\*---------------------------------------------------------------------------*/
FoamFile
{
    version     2.0;
    format      ascii;
    arch        "LSB;label=32;scalar=64";
    class       volScalarField;
    location    "0.039";
    object      T;
}
// * * * * * * * * * * * * * * * * * * * * * * * * * * * * * * * * * * * * * //

dimensions      [0 0 0 1 0 0 0];

internalField   nonuniform List<scalar> 
44662
(
272.377
273.189
273.193
273.189
273.191
272.648
272.012
272.667
273.25
272.441
272.588
273.359
272.053
273.266
273.429
273.354
273.402
273.39
272.637
271.791
272.264
273.396
271.975
272.777
273.007
272.939
272.112
272.383
271.972
272.282
273.005
272.216
273.005
272.623
272.877
272.756
273.339
273.347
272.757
273.28
273.287
273.329
272.626
273.058
272.087
272.741
272.314
272.815
272.508
273.058
273.208
272.395
273.189
273.005
272.465
272.738
273.242
272.574
272.337
272.351
272.611
273.005
272.58
273.184
272.38
272.556
272.739
272.796
273.127
272.058
273.006
272.699
272.754
272.56
272.08
273.298
273.016
272.31
272.394
272.74
272.723
272.104
273.228
272.157
272.692
273.244
272.133
273.172
272.329
271.957
272.22
272.168
272.902
272.988
272.094
272.275
272.649
272.109
272.184
273.095
271.401
273.18
272.385
272.8
272.097
272.309
272.142
272.746
273.179
271.822
272.188
273.267
273.181
272.852
272.699
272.234
272.44
273.235
273.014
272.281
273.28
272.262
272.428
272.323
272.292
273.178
272.359
272.324
273.202
272.393
272.356
272.443
272.589
272.386
272.425
272.385
272.471
272.47
272.457
272.41
272.406
272.489
272.343
272.426
272.525
273.204
273.224
273.226
273.181
273.128
273.276
273.202
272.529
272.706
273.19
273.181
273.28
271.382
271.37
271.358
271.346
271.333
271.321
271.308
271.296
271.283
271.269
271.256
271.242
271.228
271.214
271.199
271.185
271.17
271.154
271.139
271.123
271.106
271.09
271.073
271.056
271.038
271.021
271.002
270.984
270.965
270.946
270.926
270.906
270.886
270.865
270.844
270.822
270.8
270.778
270.755
270.732
270.708
270.684
270.659
270.634
270.608
270.582
270.555
270.528
270.5
270.53
270.503
270.558
272.998
271.393
271.383
271.395
270.472
270.442
270.445
270.474
270.611
270.584
270.661
270.636
270.71
270.686
270.757
270.734
270.803
270.78
270.846
270.825
270.888
270.867
270.929
270.909
270.967
270.948
271.005
270.986
271.041
271.023
271.075
271.058
271.109
271.092
271.141
271.125
271.172
271.156
271.202
271.187
271.23
271.216
271.258
271.244
271.285
271.271
271.311
271.298
271.336
271.323
271.36
271.348
271.372
271.359
271.372
271.335
271.347
271.31
271.323
271.284
271.297
271.258
271.271
271.23
271.244
271.201
271.216
271.171
271.186
271.14
271.156
271.108
271.125
271.075
271.092
271.04
271.058
271.004
271.022
270.967
270.986
270.928
270.948
270.888
270.908
270.846
270.867
270.802
270.824
270.757
270.78
270.71
270.734
270.661
270.686
270.61
270.636
270.558
270.584
270.502
270.53
270.445
270.474
270.538
270.51
270.565
273.01
272.997
271.389
271.401
270.415
270.452
270.423
270.452
270.415
270.422
271.406
271.405
270.481
270.618
270.591
270.668
270.643
270.717
270.693
270.764
270.741
270.809
270.787
270.853
270.831
270.895
270.874
270.935
270.915
270.974
270.955
271.011
270.993
271.047
271.029
271.082
271.064
271.115
271.098
271.147
271.131
271.178
271.163
271.208
271.193
271.236
271.222
271.264
271.25
271.291
271.278
271.317
271.304
271.342
271.329
271.366
271.354
271.378
271.961
270.413
271.365
271.377
271.341
271.353
271.316
271.328
271.29
271.303
271.264
271.277
271.236
271.25
271.207
271.222
271.177
271.192
271.146
271.162
271.114
271.131
271.081
271.098
271.046
271.064
271.01
271.029
270.973
270.992
270.934
270.954
270.894
270.914
270.852
270.873
270.809
270.831
270.764
270.786
270.717
270.74
270.668
270.693
270.617
270.643
270.564
270.591
270.509
270.537
270.481
271.412
270.435
270.464
270.549
270.521
270.576
270.385
270.392
271.406
271.423
271.418
271.416
270.405
270.452
270.422
271.428
271.434
270.493
270.629
270.603
270.68
270.655
270.728
270.704
270.775
270.752
270.82
270.798
270.864
270.842
270.906
270.885
270.946
270.926
270.985
270.966
271.022
271.003
271.057
271.04
271.092
271.075
271.125
271.109
271.157
271.141
271.188
271.173
271.218
271.203
271.247
271.232
271.274
271.26
271.301
271.288
271.327
271.314
271.352
271.34
271.376
271.364
272.417
271.388
270.385
270.382
270.392
271.443
271.421
271.432
271.398
271.41
271.375
271.387
271.35
271.363
271.326
271.338
271.3
271.313
271.273
271.287
271.246
271.26
271.217
271.232
271.187
271.202
271.156
271.172
271.124
271.141
271.091
271.108
271.057
271.074
271.021
271.039
270.983
271.002
270.945
270.964
270.905
270.925
270.863
270.884
270.82
270.842
270.775
270.797
270.728
270.751
270.679
270.704
270.629
270.654
270.576
270.603
270.521
270.549
270.464
270.493
270.404
270.435
271.445
271.454
271.412
270.481
271.417
270.374
270.391
270.473
270.443
270.421
270.374
270.391
271.426
271.439
271.455
270.592
270.565
270.538
271.464
271.435
271.421
270.509
270.645
270.619
270.695
270.67
270.744
270.72
270.79
270.767
270.835
270.813
270.879
270.857
270.921
270.9
270.961
270.941
270.999
270.98
271.036
271.018
271.072
271.054
271.106
271.089
271.139
271.123
271.171
271.156
271.202
271.187
271.232
271.217
271.26
271.246
271.288
271.274
271.315
271.302
271.341
271.328
271.366
271.354
271.39
271.378
273.238
271.401
273.183
270.354
270.361
270.354
270.351
270.362
271.477
271.456
271.467
271.434
271.445
271.412
271.423
271.388
271.4
271.364
271.376
271.339
271.352
271.313
271.326
271.287
271.3
271.259
271.273
271.231
271.245
271.201
271.216
271.17
271.186
271.138
271.155
271.105
271.122
271.071
271.088
271.035
271.053
270.998
271.016
270.959
270.979
270.919
270.939
270.878
270.899
270.835
270.856
270.79
270.812
270.743
270.767
270.695
270.719
270.644
270.67
270.592
270.618
270.538
270.565
270.481
270.509
270.451
271.475
271.488
271.423
270.502
270.585
270.558
270.612
270.413
270.342
270.36
271.452
271.446
271.462
271.428
271.437
271.449
271.465
271.485
271.498
271.432
270.53
270.665
270.639
270.715
270.69
270.763
270.739
270.81
270.787
270.854
270.832
270.897
270.876
270.939
270.918
270.979
270.959
271.018
270.999
271.055
271.036
271.09
271.072
271.124
271.107
271.157
271.141
271.189
271.173
271.22
271.205
271.249
271.235
271.278
271.264
271.306
271.292
271.333
271.319
271.359
271.346
271.383
271.371
271.407
271.395
271.43
271.418
271.441
270.322
270.33
270.322
270.32
270.343
270.33
270.382
270.36
271.514
271.494
271.504
271.473
271.484
271.451
271.462
271.428
271.44
271.405
271.417
271.381
271.393
271.356
271.369
271.331
271.344
271.304
271.318
271.277
271.291
271.248
271.263
271.219
271.234
271.188
271.203
271.156
271.172
271.123
271.14
271.089
271.106
271.053
271.071
271.016
271.035
270.977
270.997
270.938
270.958
270.896
270.917
270.853
270.875
270.809
270.831
270.762
270.786
270.714
270.739
270.664
270.689
270.612
270.638
270.558
270.585
270.502
270.53
270.443
270.473
270.382
270.413
271.508
271.524
271.473
271.456
271.434
270.498
270.469
270.526
271.439
270.351
270.408
270.377
270.408
270.35
270.377
271.494
271.484
271.504
271.447
271.459
271.475
271.494
271.517
270.582
270.61
270.636
271.534
271.443
270.439
270.555
270.688
270.663
270.738
270.714
270.786
270.762
270.832
270.809
270.877
270.855
270.92
270.898
270.961
270.941
271.001
270.981
271.04
271.021
271.076
271.058
271.111
271.094
271.145
271.128
271.178
271.162
271.21
271.194
271.241
271.226
271.27
271.256
271.299
271.285
271.327
271.313
271.354
271.34
271.38
271.367
271.404
271.392
271.428
271.416
271.45
271.439
271.472
271.461
271.483
270.31
270.328
270.29
270.298
270.29
270.287
270.311
270.298
270.329
271.554
271.534
271.544
271.514
271.524
271.493
271.504
271.471
271.482
271.449
271.46
271.426
271.437
271.402
271.414
271.377
271.389
271.351
271.364
271.325
271.338
271.298
271.311
271.269
271.283
271.24
271.254
271.209
271.224
271.177
271.193
271.144
271.161
271.11
271.127
271.074
271.092
271.037
271.056
270.999
271.019
270.96
270.98
270.918
270.939
270.876
270.897
270.831
270.854
270.785
270.809
270.738
270.762
270.688
270.713
270.636
270.662
270.583
270.61
270.527
270.555
270.468
270.498
270.438
271.543
271.563
271.467
271.444
270.527
270.498
270.555
270.637
270.61
270.664
270.438
270.408
270.318
270.345
271.516
271.495
271.449
271.457
271.469
271.485
271.504
271.527
271.553
271.573
271.454
270.468
270.583
270.715
270.69
270.765
270.74
270.812
270.789
270.858
270.835
270.902
270.88
270.945
270.924
270.986
270.966
271.026
271.007
271.064
271.046
271.101
271.083
271.136
271.118
271.17
271.153
271.203
271.186
271.234
271.219
271.265
271.25
271.295
271.28
271.323
271.309
271.351
271.337
271.378
271.364
271.404
271.391
271.429
271.416
271.452
271.44
271.474
271.463
271.496
271.485
271.517
271.507
271.539
271.528
271.528
271.551
270.278
270.296
270.257
270.265
270.257
270.254
270.278
270.265
270.319
270.296
270.376
270.345
271.596
271.577
271.586
271.558
271.568
271.538
271.548
271.517
271.527
271.495
271.506
271.473
271.484
271.449
271.461
271.425
271.438
271.401
271.413
271.375
271.388
271.349
271.362
271.321
271.335
271.293
271.307
271.263
271.278
271.233
271.248
271.201
271.217
271.168
271.185
271.134
271.151
271.099
271.117
271.062
271.081
271.024
271.043
270.985
271.005
270.944
270.964
270.901
270.923
270.857
270.88
270.812
270.835
270.764
270.788
270.715
270.74
270.664
270.69
270.611
270.637
270.555
270.583
270.498
270.527
270.438
270.468
270.375
270.407
271.581
271.604
271.477
271.455
270.559
270.53
270.586
270.668
270.641
270.694
271.505
271.459
270.344
270.41
270.378
270.409
270.343
270.378
271.563
271.538
271.467
271.479
271.494
271.514
271.536
271.562
271.613
271.59
271.464
270.472
270.441
270.501
270.614
270.745
270.72
270.794
270.77
270.841
270.818
270.887
270.864
270.931
270.909
270.973
270.952
271.014
270.994
271.054
271.034
271.092
271.073
271.128
271.11
271.163
271.145
271.197
271.18
271.229
271.213
271.261
271.245
271.292
271.277
271.321
271.307
271.35
271.336
271.377
271.364
271.405
271.391
271.431
271.418
271.456
271.443
271.479
271.467
271.501
271.49
271.523
271.512
271.544
271.533
271.565
271.555
271.586
271.576
271.571
271.6
271.593
270.285
270.312
270.245
270.263
270.224
270.231
270.224
270.221
270.245
270.232
270.286
270.263
270.313
271.652
271.638
271.621
271.645
271.622
271.63
271.603
271.613
271.584
271.594
271.564
271.574
271.543
271.554
271.522
271.532
271.499
271.51
271.476
271.488
271.452
271.464
271.427
271.44
271.402
271.415
271.375
271.389
271.348
271.362
271.32
271.334
271.29
271.305
271.26
271.275
271.228
271.244
271.195
271.212
271.161
271.178
271.126
271.144
271.089
271.108
271.052
271.071
271.012
271.032
270.972
270.992
270.93
270.951
270.886
270.908
270.841
270.864
270.794
270.817
270.745
270.77
270.694
270.72
270.642
270.668
270.587
270.615
270.53
270.559
270.471
270.501
270.441
271.488
271.465
270.593
270.566
270.621
270.447
270.415
270.31
270.345
271.516
271.469
271.546
271.477
271.608
271.579
271.488
271.504
271.523
271.545
271.57
271.598
271.628
271.687
271.661
270.675
270.701
270.727
271.474
270.508
270.478
270.537
270.648
270.778
270.753
270.826
270.802
270.873
270.85
270.918
270.896
270.961
270.94
271.003
270.982
271.044
271.024
271.084
271.064
271.122
271.103
271.157
271.14
271.192
271.175
271.226
271.209
271.258
271.242
271.29
271.274
271.321
271.306
271.35
271.336
271.379
271.365
271.407
271.393
271.434
271.42
271.46
271.447
271.485
271.473
271.508
271.497
271.53
271.519
271.552
271.541
271.573
271.563
271.595
271.584
271.615
271.605
271.631
271.624
271.616
271.647
271.639
270.252
270.279
270.211
270.229
270.189
270.197
270.189
270.187
270.211
270.198
270.252
270.229
270.311
270.279
270.383
270.345
271.667
271.674
271.651
271.659
271.632
271.642
271.613
271.623
271.593
271.603
271.572
271.583
271.551
271.562
271.528
271.539
271.505
271.517
271.481
271.493
271.456
271.469
271.431
271.444
271.404
271.418
271.377
271.391
271.348
271.363
271.319
271.334
271.288
271.304
271.257
271.273
271.224
271.241
271.19
271.207
271.155
271.173
271.119
271.137
271.081
271.1
271.042
271.062
271.002
271.022
270.96
270.981
270.917
270.939
270.872
270.895
270.826
270.849
270.778
270.802
270.728
270.753
270.676
270.702
270.622
270.649
270.566
270.594
270.507
270.537
270.446
270.477
270.383
270.415
271.498
271.474
270.631
270.603
270.658
270.737
270.711
270.763
271.524
271.478
270.35
270.423
270.39
270.423
270.35
270.39
271.554
271.486
271.588
271.498
271.656
271.624
271.513
271.532
271.554
271.579
271.606
271.636
271.696
271.669
271.484
270.486
270.455
270.546
270.516
270.575
270.685
270.813
270.788
270.861
270.837
270.907
270.884
270.951
270.929
270.994
270.973
271.036
271.015
271.076
271.056
271.116
271.096
271.153
271.135
271.188
271.171
271.223
271.206
271.256
271.24
271.289
271.273
271.321
271.305
271.351
271.336
271.381
271.366
271.409
271.395
271.437
271.423
271.465
271.451
271.491
271.478
271.516
271.504
271.539
271.528
271.562
271.551
271.584
271.573
271.605
271.594
271.626
271.616
271.647
271.637
271.664
271.656
271.681
271.673
271.664
271.698
271.689
270.277
270.312
270.218
270.245
270.176
270.194
270.154
270.163
270.154
270.152
270.176
270.163
270.218
270.194
270.277
270.245
270.312
271.704
271.734
271.715
271.725
271.699
271.706
271.682
271.691
271.664
271.673
271.645
271.654
271.624
271.635
271.603
271.614
271.582
271.593
271.559
271.571
271.536
271.548
271.512
271.524
271.487
271.5
271.461
271.474
271.435
271.448
271.407
271.421
271.379
271.393
271.35
271.364
271.319
271.334
271.288
271.303
271.255
271.271
271.221
271.238
271.186
271.204
271.15
271.168
271.113
271.132
271.074
271.094
271.034
271.055
270.993
271.014
270.95
270.972
270.906
270.928
270.86
270.883
270.813
270.837
270.763
270.788
270.712
270.738
270.659
270.686
270.603
270.631
270.546
270.575
270.485
270.516
270.454
271.507
271.484
270.67
270.643
270.697
270.775
270.749
270.8
270.464
270.432
270.317
270.357
271.533
271.488
271.563
271.496
271.596
271.507
271.633
271.522
271.706
271.672
271.541
271.562
271.587
271.614
271.644
271.74
271.677
271.711
271.778
271.747
271.784
271.493
270.527
270.496
270.586
270.557
270.615
270.723
270.849
270.825
270.897
270.873
270.942
270.92
270.986
270.964
271.028
271.007
271.069
271.049
271.11
271.09
271.149
271.129
271.186
271.168
271.221
271.204
271.255
271.238
271.289
271.272
271.321
271.305
271.353
271.337
271.383
271.368
271.413
271.398
271.441
271.427
271.469
271.455
271.497
271.483
271.523
271.51
271.549
271.536
271.572
271.56
271.595
271.583
271.617
271.606
271.638
271.628
271.66
271.649
271.68
271.67
271.699
271.69
271.716
271.708
271.733
271.725
271.714
271.749
271.742
270.243
270.278
270.183
270.211
270.141
270.159
270.119
270.127
270.119
270.116
270.141
270.127
270.183
270.159
270.242
270.21
270.316
270.278
270.399
270.357
271.767
271.773
271.749
271.758
271.733
271.741
271.716
271.725
271.697
271.707
271.678
271.687
271.657
271.668
271.636
271.647
271.614
271.625
271.592
271.603
271.568
271.58
271.544
271.556
271.519
271.532
271.493
271.506
271.467
271.48
271.439
271.453
271.411
271.425
271.381
271.396
271.351
271.366
271.32
271.335
271.287
271.303
271.254
271.27
271.219
271.236
271.183
271.201
271.146
271.165
271.108
271.127
271.068
271.088
271.028
271.048
270.985
271.007
270.942
270.964
270.896
270.919
270.849
270.873
270.801
270.825
270.75
270.776
270.697
270.724
270.643
270.67
270.586
270.615
270.526
270.556
270.464
270.496
270.399
270.432
271.516
271.493
270.683
270.71
271.542
271.497
270.365
270.442
270.408
270.442
270.366
270.409
271.571
271.505
271.604
271.516
271.641
271.531
271.68
271.549
271.757
271.721
271.571
271.595
271.622
271.652
273.234
273.192
271.683
271.717
271.753
271.88
272.651
270.788
271.79
270.814
271.503
270.507
270.475
270.569
270.538
270.628
270.599
270.656
270.737
270.763
270.887
270.839
270.863
270.934
270.911
270.979
270.957
271.022
271.001
271.064
271.043
271.105
271.084
271.144
271.124
271.183
271.164
271.22
271.202
271.255
271.237
271.288
271.272
271.322
271.305
271.354
271.338
271.386
271.37
271.416
271.401
271.445
271.431
271.474
271.46
271.502
271.488
271.53
271.516
271.556
271.543
271.582
271.569
271.605
271.594
271.628
271.617
271.65
271.639
271.672
271.661
271.694
271.683
271.715
271.705
271.734
271.725
271.752
271.743
271.77
271.761
271.787
271.778
271.764
271.802
271.794
270.283
270.324
270.208
270.244
270.147
270.175
270.104
270.123
270.082
270.091
270.082
270.08
270.104
270.091
270.147
270.123
270.207
270.175
270.282
270.243
270.323
271.802
271.809
271.786
271.794
271.768
271.777
271.75
271.759
271.731
271.741
271.712
271.722
271.691
271.702
271.67
271.681
271.648
271.659
271.625
271.636
271.601
271.613
271.577
271.589
271.552
271.565
271.526
271.539
271.5
271.513
271.472
271.486
271.444
271.458
271.414
271.429
271.384
271.399
271.353
271.368
271.32
271.336
271.287
271.304
271.253
271.27
271.217
271.235
271.18
271.199
271.143
271.162
271.104
271.123
271.063
271.084
271.022
271.043
270.978
271
270.934
270.956
270.887
270.911
270.839
270.864
270.789
270.815
270.737
270.764
270.683
270.711
270.627
270.655
270.568
270.598
270.506
270.538
270.475
271.525
271.502
270.484
270.45
272.461
270.332
270.374
271.55
271.506
271.58
271.514
271.613
271.525
271.649
271.539
271.687
271.557
271.729
271.579
271.808
271.772
271.603
271.63
271.659
271.69
271.723
271.759
271.798
271.841
272.002
271.825
271.795
271.512
270.549
270.517
270.611
270.58
270.669
270.64
270.724
270.697
270.777
270.751
270.828
270.803
270.878
270.854
270.926
270.903
270.972
270.95
271.017
270.995
271.059
271.038
271.101
271.08
271.141
271.121
271.18
271.16
271.218
271.199
271.254
271.237
271.289
271.272
271.322
271.306
271.355
271.339
271.388
271.372
271.419
271.403
271.449
271.434
271.479
271.464
271.507
271.493
271.535
271.521
271.563
271.549
271.59
271.576
271.615
271.603
271.639
271.627
271.662
271.651
271.685
271.673
271.707
271.696
271.729
271.718
271.75
271.739
271.769
271.76
271.788
271.779
271.807
271.798
271.824
271.816
271.841
271.833
271.912
271.928
271.845
272.044
271.896
272.085
270.248
270.289
270.172
270.208
270.111
270.139
270.067
270.087
270.045
270.054
270.045
270.042
270.067
270.053
270.11
270.086
270.171
270.139
270.247
270.208
270.331
270.288
270.416
270.374
271.839
271.846
271.822
271.831
271.804
271.813
271.786
271.795
271.766
271.776
271.746
271.756
271.725
271.736
271.704
271.715
271.682
271.693
271.659
271.67
271.635
271.647
271.611
271.623
271.585
271.598
271.56
271.573
271.533
271.546
271.505
271.519
271.477
271.491
271.447
271.462
271.417
271.432
271.386
271.402
271.354
271.37
271.321
271.338
271.287
271.304
271.252
271.27
271.216
271.234
271.178
271.197
271.14
271.159
271.1
271.12
271.059
271.08
271.016
271.038
270.972
270.994
270.926
270.949
270.879
270.903
270.83
270.854
270.778
270.804
270.724
270.752
270.668
270.697
270.61
270.639
270.548
270.579
270.484
270.517
270.417
270.451
271.87
271.534
271.511
271.559
271.515
270.381
270.457
270.422
270.457
270.381
270.422
271.588
271.522
271.621
271.533
271.656
271.548
271.695
271.566
271.736
271.587
271.779
271.611
271.637
273.236
271.665
272.054
271.696
271.73
271.808
271.854
271.887
271.867
271.9
271.766
271.913
271.935
271.946
271.52
270.525
270.491
270.59
270.558
270.652
270.621
270.71
270.681
270.766
270.738
270.818
270.792
270.869
270.844
270.918
270.894
270.966
270.943
271.012
270.989
271.055
271.034
271.097
271.076
271.138
271.118
271.178
271.158
271.216
271.197
271.254
271.235
271.29
271.272
271.324
271.307
271.357
271.341
271.39
271.373
271.422
271.406
271.453
271.437
271.483
271.468
271.512
271.498
271.541
271.527
271.569
271.555
271.596
271.583
271.623
271.61
271.649
271.636
271.673
271.661
271.696
271.684
271.719
271.707
271.741
271.73
271.763
271.752
271.784
271.774
271.804
271.794
271.824
271.814
271.843
271.834
271.861
271.852
271.878
271.869
271.897
271.885
272.075
270.296
270.339
270.212
270.254
270.136
270.172
270.073
270.102
270.03
270.049
270.007
270.016
270.007
270.004
270.029
270.015
270.073
270.049
270.135
270.102
270.211
270.171
270.296
270.253
270.339
271.906
271.919
271.89
271.897
271.876
271.883
271.858
271.867
271.84
271.849
271.821
271.831
271.801
271.811
271.781
271.791
271.76
271.77
271.738
271.749
271.716
271.727
271.693
271.704
271.669
271.681
271.644
271.657
271.619
271.632
271.593
271.606
271.566
271.58
271.539
271.553
271.51
271.525
271.481
271.496
271.451
271.466
271.42
271.436
271.388
271.404
271.356
271.372
271.322
271.339
271.287
271.305
271.252
271.27
271.215
271.233
271.177
271.196
271.137
271.157
271.097
271.117
271.055
271.076
271.011
271.033
270.966
270.989
270.919
270.943
270.87
270.895
270.819
270.845
270.765
270.792
270.709
270.738
270.651
270.681
270.589
270.621
270.525
270.558
270.491
271.542
271.52
271.817
270.496
270.46
270.346
270.386
271.568
271.524
271.596
271.531
271.629
271.542
271.664
271.556
271.703
271.574
271.956
271.922
271.744
271.595
271.787
271.618
271.828
271.644
271.881
271.865
271.672
271.837
273.19
271.703
272.972
271.737
271.774
271.965
271.99
271.999
271.529
270.564
270.531
270.63
270.597
270.692
270.661
270.751
270.722
270.806
270.779
270.859
270.833
270.909
270.884
270.958
270.934
271.006
270.982
271.051
271.028
271.094
271.073
271.136
271.115
271.176
271.156
271.215
271.196
271.253
271.234
271.29
271.272
271.326
271.308
271.359
271.343
271.392
271.376
271.424
271.408
271.456
271.44
271.487
271.471
271.517
271.502
271.546
271.531
271.574
271.56
271.602
271.588
271.63
271.616
271.657
271.643
271.682
271.67
271.706
271.694
271.729
271.718
271.752
271.741
271.775
271.764
271.797
271.786
271.818
271.808
271.839
271.829
271.859
271.849
271.878
271.869
271.897
271.888
271.914
271.906
271.934
271.923
271.947
270.26
270.304
270.175
270.217
270.098
270.135
270.035
270.065
269.991
270.011
269.968
269.977
269.968
269.965
269.991
269.977
270.035
270.01
270.097
270.064
270.174
270.135
270.26
270.217
270.345
270.303
270.424
270.385
271.97
271.98
271.945
271.956
271.928
271.936
271.912
271.92
271.894
271.903
271.875
271.885
271.856
271.866
271.836
271.846
271.815
271.826
271.794
271.805
271.772
271.783
271.75
271.761
271.726
271.738
271.702
271.714
271.678
271.69
271.653
271.665
271.627
271.64
271.6
271.613
271.572
271.586
271.544
271.558
271.515
271.53
271.485
271.5
271.455
271.47
271.423
271.439
271.391
271.407
271.358
271.374
271.323
271.341
271.288
271.306
271.252
271.27
271.214
271.233
271.175
271.195
271.135
271.155
271.094
271.115
271.05
271.072
271.006
271.028
270.959
270.982
270.91
270.935
270.859
270.885
270.805
270.832
270.749
270.778
270.691
270.72
270.629
270.66
270.564
270.597
270.496
270.53
270.424
270.46
271.551
271.529
271.576
271.532
270.387
270.461
270.424
270.461
270.387
270.424
271.605
271.539
271.637
271.55
272.007
271.973
271.672
271.564
271.931
271.71
271.582
271.751
271.602
271.793
271.626
271.889
271.831
271.651
271.849
271.874
271.679
271.81
272.039
272.178
271.71
271.744
271.78
272.015
272.041
272.049
271.538
270.534
270.498
270.602
270.568
270.668
270.636
270.73
270.7
270.789
270.76
270.845
270.818
270.898
270.872
270.949
270.924
270.998
270.974
271.045
271.022
271.09
271.068
271.133
271.112
271.174
271.154
271.214
271.194
271.253
271.233
271.29
271.272
271.327
271.309
271.362
271.345
271.395
271.379
271.427
271.411
271.459
271.443
271.491
271.475
271.521
271.506
271.551
271.536
271.579
271.565
271.608
271.594
271.635
271.622
271.663
271.649
271.69
271.677
271.715
271.703
271.739
271.728
271.763
271.751
271.786
271.774
271.808
271.797
271.83
271.819
271.852
271.841
271.873
271.863
271.893
271.883
271.913
271.903
271.932
271.922
271.95
271.941
271.97
271.959
271.993
271.981
272.014
272.003
272.034
272.024
270.309
270.349
270.224
270.267
270.138
270.18
270.06
270.098
269.996
270.026
269.952
269.972
269.929
269.937
269.928
269.926
269.951
269.937
269.996
269.971
270.059
270.025
270.137
270.097
270.223
270.179
270.308
270.266
270.348
272.024
272.033
272.004
272.015
271.983
271.993
271.964
271.973
271.948
271.956
271.929
271.939
271.91
271.92
271.891
271.9
271.87
271.881
271.849
271.86
271.828
271.839
271.806
271.817
271.783
271.795
271.76
271.772
271.736
271.748
271.711
271.724
271.686
271.699
271.66
271.673
271.633
271.647
271.606
271.62
271.578
271.592
271.549
271.564
271.52
271.535
271.489
271.505
271.458
271.474
271.426
271.442
271.393
271.41
271.36
271.377
271.325
271.342
271.289
271.307
271.252
271.27
271.213
271.233
271.174
271.194
271.132
271.153
271.089
271.111
271.045
271.067
270.998
271.021
270.949
270.974
270.898
270.924
270.844
270.871
270.788
270.817
270.729
270.759
270.667
270.698
270.602
270.635
270.533
270.568
270.498
271.559
271.537
270.5
270.463
272.065
272.145
270.349
270.386
271.584
271.54
272.056
272.022
271.612
271.547
271.981
271.644
271.558
271.939
271.679
271.572
271.718
271.589
271.758
271.61
271.897
271.797
271.633
271.856
271.838
271.659
271.817
271.882
271.686
272.979
271.717
271.75
271.783
272.012
272.135
271.546
270.572
270.536
270.64
270.606
270.706
270.674
270.768
270.738
270.828
270.798
270.883
270.856
270.936
270.91
270.987
270.962
271.037
271.012
271.084
271.06
271.128
271.106
271.171
271.15
271.212
271.192
271.252
271.232
271.29
271.271
271.328
271.309
271.364
271.346
271.398
271.381
271.431
271.415
271.463
271.447
271.495
271.479
271.525
271.51
271.555
271.54
271.585
271.57
271.613
271.599
271.641
271.627
271.669
271.655
271.696
271.682
271.723
271.71
271.748
271.736
271.772
271.761
271.796
271.784
271.819
271.807
271.841
271.83
271.864
271.853
271.885
271.875
271.906
271.896
271.927
271.917
271.947
271.937
271.966
271.957
271.985
271.976
272.005
271.994
272.026
272.015
272.045
272.035
272.055
270.271
270.311
270.186
270.229
270.1
270.143
270.021
270.059
269.957
269.987
269.911
269.932
269.888
269.897
269.888
269.885
269.911
269.897
269.956
269.931
270.02
269.986
270.099
270.058
270.185
270.141
270.27
270.228
270.348
270.31
270.425
270.386
272.167
272.176
272.109
272.101
272.063
272.09
272.097
272.075
272.083
272.058
272.067
272.039
272.049
272.019
272.029
272
272.009
271.982
271.991
271.964
271.973
271.944
271.954
271.925
271.935
271.904
271.914
271.883
271.894
271.862
271.872
271.839
271.851
271.817
271.828
271.793
271.805
271.769
271.781
271.745
271.757
271.719
271.732
271.694
271.707
271.667
271.68
271.64
271.654
271.612
271.626
271.584
271.598
271.554
271.569
271.524
271.539
271.494
271.509
271.462
271.478
271.43
271.446
271.396
271.413
271.362
271.379
271.326
271.344
271.289
271.308
271.251
271.27
271.212
271.232
271.171
271.191
271.128
271.149
271.083
271.106
271.036
271.06
270.987
271.012
270.936
270.962
270.882
270.909
270.826
270.854
270.767
270.797
270.705
270.736
270.64
270.673
270.571
270.606
270.5
270.536
270.425
270.463
272.135
272.069
271.567
271.546
272.029
271.592
271.549
270.386
270.47
270.432
270.47
270.386
270.432
271.988
271.62
271.555
271.946
271.652
271.566
271.687
271.579
271.725
271.596
271.905
271.764
271.617
271.864
271.804
271.64
271.824
271.847
271.665
271.891
271.693
272.972
271.723
271.787
271.755
271.978
272.021
272.095
272.063
272.145
272.115
272.076
272.104
272.655
271.555
270.543
270.507
270.614
270.579
270.681
270.648
270.746
270.714
270.807
270.777
270.866
270.837
270.922
270.894
270.975
270.948
271.026
271
271.075
271.05
271.122
271.098
271.166
271.144
271.209
271.188
271.25
271.23
271.29
271.27
271.328
271.309
271.365
271.346
271.401
271.383
271.435
271.418
271.467
271.451
271.499
271.483
271.53
271.514
271.56
271.545
271.59
271.575
271.619
271.605
271.647
271.633
271.675
271.661
271.702
271.689
271.729
271.716
271.756
271.743
271.782
271.769
271.805
271.794
271.829
271.817
271.852
271.84
271.874
271.863
271.897
271.886
271.918
271.908
271.94
271.929
271.96
271.95
271.98
271.97
272
271.99
272.019
272.01
272.038
272.029
272.058
272.048
272.077
272.068
272.097
272.087
272.116
272.106
272.126
270.309
270.346
270.232
270.272
270.147
270.19
270.061
270.104
269.981
270.02
269.916
269.947
269.87
269.891
269.847
269.855
269.846
269.843
269.87
269.855
269.915
269.89
269.98
269.946
270.06
270.019
270.146
270.103
270.231
270.19
270.309
270.271
270.346
272.124
272.131
272.109
272.117
272.092
272.101
272.073
272.083
272.054
272.063
272.035
272.044
272.017
272.026
271.998
272.007
271.978
271.988
271.958
271.968
271.938
271.948
271.917
271.927
271.895
271.906
271.873
271.884
271.85
271.861
271.826
271.838
271.802
271.814
271.778
271.79
271.753
271.765
271.727
271.74
271.701
271.714
271.674
271.687
271.646
271.66
271.618
271.632
271.589
271.604
271.559
271.574
271.529
271.544
271.498
271.513
271.466
271.482
271.433
271.449
271.398
271.416
271.363
271.381
271.327
271.345
271.289
271.308
271.249
271.269
271.208
271.229
271.166
271.187
271.121
271.143
271.074
271.098
271.025
271.05
270.974
271
270.921
270.948
270.865
270.893
270.806
270.836
270.745
270.776
270.68
270.713
270.613
270.647
270.543
270.579
270.507
272.035
271.576
271.554
272.66
270.526
270.489
270.346
270.394
271.994
271.6
271.557
271.953
271.628
271.563
271.659
271.573
271.694
271.587
271.912
271.731
271.604
271.871
271.77
271.624
271.831
271.812
271.646
271.855
271.672
271.899
271.699
271.794
271.729
271.943
271.987
271.76
272.03
272.072
272.157
272.188
272.198
272.77
273.182
272.113
272.164
272.123
272.082
272.042
271.563
270.596
270.561
270.664
270.63
270.729
270.696
270.791
270.76
270.851
270.821
270.908
270.88
270.962
270.936
271.015
270.989
271.065
271.04
271.114
271.09
271.16
271.137
271.205
271.183
271.247
271.226
271.288
271.268
271.327
271.308
271.365
271.346
271.402
271.384
271.437
271.42
271.471
271.454
271.503
271.487
271.535
271.519
271.565
271.55
271.595
271.58
271.625
271.61
271.653
271.639
271.681
271.667
271.709
271.695
271.736
271.722
271.763
271.749
271.789
271.776