/*--------------------------------*- C++ -*----------------------------------*\
| =========                 |                                                 |
| \\      /  F ield         | OpenFOAM: The Open Source CFD Toolbox           |
|  \\    /   O peration     | Version:  2212                                  |
|   \\  /    A nd           | Website:  www.openfoam.com                      |
|    \\/     M anipulation  |                                                 |
\*---------------------------------------------------------------------------*/
FoamFile
{
    version     2.0;
    format      ascii;
    arch        "LSB;label=32;scalar=64";
    class       volVectorField;
    location    "0.000153";
    object      U;
}
// * * * * * * * * * * * * * * * * * * * * * * * * * * * * * * * * * * * * * //

dimensions      [0 1 -1 0 0 0 0];

internalField   nonuniform List<vector> 
6888
(
(18.7582 -22.4955 277.975)
(-1.65067 -26.4808 253.847)
(5.9419 -39.1201 215.27)
(-1.03835 -47.9917 151.734)
(3.74282 -45.5444 67.5091)
(-0.901135 -42.683 24.8107)
(0.669146 -44.7774 3.06062)
(0.260427 -39.463 -7.80105)
(0.19006 -38.5602 -13.1795)
(-0.00622035 -31.7741 -13.8049)
(-0.0559969 -29.3821 -10.0959)
(-0.0781325 -22.0267 -6.87669)
(-0.0602552 -19.1358 -3.61491)
(-0.0750554 -14.0166 -2.80854)
(-0.0664585 -11.2361 -2.1512)
(-0.0663128 -8.08389 -2.15307)
(-0.0569266 -6.05017 -1.71981)
(-0.0609955 -3.73305 -1.79758)
(-0.0492017 -2.63896 -1.98362)
(-0.0433865 -1.38252 -4.02887)
(18.4284 -21.7675 252.956)
(-1.72188 -27.079 230.069)
(5.58682 -42.4407 194.104)
(-1.06835 -55.0928 142.844)
(4.01042 -50.4366 68.7698)
(-1.57186 -46.2732 29.9923)
(0.922159 -42.2092 9.00071)
(0.201932 -35.4584 -1.45414)
(0.143666 -33.9654 -7.45709)
(-0.0425913 -27.3018 -6.6645)
(-0.0894921 -25.2386 -2.68818)
(-0.0940101 -18.7297 0.611251)
(-0.0856596 -15.9642 2.80423)
(-0.0981389 -11.6983 2.78229)
(-0.0865941 -9.3571 2.4022)
(-0.0809055 -6.80259 1.50485)
(-0.0670094 -5.2011 1.18439)
(-0.0676912 -3.18866 0.523101)
(-0.0558054 -2.03808 0.10411)
(-0.0461957 -1.0458 -2.07122)
(18.6207 -20.5488 244.327)
(-1.74292 -25.8626 222.102)
(4.86372 -36.5188 184.944)
(-1.31818 -50.4473 132.376)
(4.26974 -47.8887 70.7437)
(-2.35512 -41.7314 32.594)
(1.06163 -37.8592 11.9644)
(0.157369 -32.6705 0.93131)
(0.100118 -30.0197 -4.97501)
(-0.0903494 -24.0819 -4.13168)
(-0.124768 -21.7488 -1.54878)
(-0.171801 -15.4731 1.74776)
(-0.155791 -12.9427 3.65059)
(-0.138341 -9.81974 3.49994)
(-0.100985 -8.39629 2.94042)
(-0.0868204 -6.3546 1.93316)
(-0.0674499 -5.14993 1.5588)
(-0.0677054 -3.26762 0.950578)
(-0.056348 -2.07739 0.580354)
(-0.0463811 -1.03221 -1.30725)
(18.5335 -20.2449 225.934)
(-1.67525 -26.811 203.14)
(4.78906 -37.649 167.975)
(-1.42438 -45.8546 121.052)
(4.27374 -45.1736 68.8507)
(-3.27255 -40.603 34.8425)
(1.66567 -35.5984 16.0829)
(-0.071339 -29.7884 4.16996)
(0.0989213 -26.5127 -1.7389)
(-0.133938 -21.0915 -1.1724)
(-0.210184 -17.6499 2.42356)
(-0.242988 -12.513 5.39857)
(-0.189 -10.7926 5.91987)
(-0.143818 -8.78778 5.0985)
(-0.100103 -7.83846 4.29592)
(-0.086563 -5.99636 3.30786)
(-0.0681712 -4.88774 2.7828)
(-0.0691762 -3.07036 2.10202)
(-0.0578376 -1.92901 1.6745)
(-0.0475982 -0.930593 -0.271722)
(17.597 -16.6073 217.337)
(-1.46271 -22.4747 193.605)
(3.90514 -30.9434 159.96)
(-2.18941 -38.0649 114.953)
(3.86696 -42.0751 67.0539)
(-3.78519 -35.9121 37.3014)
(2.41599 -34.0547 19.3571)
(-0.18327 -27.8702 6.8123)
(-0.0126835 -22.6238 2.12095)
(-0.158301 -16.4724 3.7632)
(-0.268839 -12.811 6.74367)
(-0.251873 -10.2982 7.97885)
(-0.175987 -9.6008 7.14052)
(-0.135364 -8.0878 6.2515)
(-0.0995733 -7.18043 5.53093)
(-0.0896342 -5.43113 4.58375)
(-0.0716812 -4.43302 3.99644)
(-0.0734853 -2.72799 3.27227)
(-0.061743 -1.55553 2.78922)
(-0.0499905 -0.705101 0.856472)
(17.6949 -15.8897 203.295)
(-1.18584 -23.1825 176.77)
(3.78546 -33.5798 147.473)
(-2.93292 -37.9152 105.776)
(3.75904 -36.7801 61.2145)
(-4.19919 -32.3198 36.7271)
(3.05113 -31.2969 19.5696)
(-0.150444 -25.7784 8.74029)
(0.0304366 -19.7566 5.60309)
(-0.219284 -14.3635 7.07487)
(-0.280302 -11.8496 7.85104)
(-0.206393 -10.1956 8.87827)
(-0.147651 -9.12401 7.87918)
(-0.121316 -7.705 7.32231)
(-0.0963863 -6.59379 6.58767)
(-0.0907215 -4.88568 5.74326)
(-0.0738338 -3.94214 5.05513)
(-0.0757566 -2.39132 4.2529)
(-0.0637809 -1.27724 3.65096)
(-0.0519625 -0.524395 1.77922)
(17.5287 -7.42899 197.845)
(-0.757692 -11.8768 169.473)
(3.28831 -21.97 140.571)
(-3.79119 -28.8413 103.249)
(3.20064 -30.156 62.4269)
(-3.79286 -27.2645 38.0848)
(3.36397 -27.522 22.4589)
(-0.297735 -22.0577 12.4094)
(-0.067046 -17.2471 9.47939)
(-0.293872 -13.5747 10.013)
(-0.196598 -11.188 9.32172)
(-0.145608 -9.95351 9.86738)
(-0.1271 -8.58344 8.70358)
(-0.113753 -7.20151 8.12522)
(-0.0950006 -6.05165 7.37383)
(-0.0920973 -4.4136 6.57086)
(-0.0763975 -3.44078 5.83867)
(-0.0786542 -2.04216 5.0262)
(-0.0658748 -1.03537 4.33797)
(-0.0535409 -0.39289 2.57188)
(18.1141 -7.82872 190.279)
(-0.599553 -11.3083 158.302)
(4.28294 -18.7334 129.812)
(-4.21427 -23.6722 95.9748)
(3.33603 -25.5167 57.842)
(-3.51687 -24.0974 36.2686)
(3.30507 -24.0523 22.5067)
(-0.522785 -20.0328 14.3047)
(-0.153537 -15.8681 11.8301)
(-0.231685 -13.0422 12.3691)
(-0.111536 -10.5247 11.0022)
(-0.116207 -9.59551 10.8041)
(-0.114901 -8.0419 9.62781)
(-0.107711 -6.71643 8.89949)
(-0.0930799 -5.53089 8.1325)
(-0.0933184 -3.93202 7.24317)
(-0.0783219 -2.97026 6.49625)
(-0.0818908 -1.63949 5.67553)
(-0.0691444 -0.678531 4.86526)
(-0.0553909 -0.242261 3.15972)
(17.5903 -4.0993 188.451)
(-0.919488 -4.80049 154.425)
(4.91543 -16.4928 124.687)
(-3.43591 -18.7597 92.1364)
(2.96862 -22.0504 56.4847)
(-3.23053 -20.289 36.1651)
(3.14956 -20.5393 23.6381)
(-0.646381 -17.1158 16.265)
(-0.116845 -14.0104 13.9216)
(-0.146927 -11.8899 14.0381)
(-0.0806931 -9.70269 12.2027)
(-0.106767 -8.81116 11.5775)
(-0.108497 -7.27221 10.3145)
(-0.105247 -6.06338 9.4102)
(-0.0927767 -4.94574 8.57395)
(-0.0951772 -3.42369 7.59173)
(-0.0803996 -2.47871 6.83879)
(-0.0847183 -1.21617 6.09156)
(-0.0718755 -0.324493 5.24544)
(-0.0574944 -0.0634556 3.61439)
(17.2726 -5.43221 183.05)
(-1.87536 -2.71919 148.16)
(4.57542 -13.9432 116.815)
(-3.0074 -15.3682 88.6639)
(2.64788 -17.8654 53.1149)
(-2.96643 -16.8949 35.1922)
(2.81431 -17.5855 23.6998)
(-0.703857 -14.6938 17.3366)
(-0.020268 -12.5353 15.2176)
(-0.0702496 -10.8901 15.1742)
(-0.0877108 -8.75244 13.2027)
(-0.104538 -7.98655 12.1564)
(-0.103343 -6.5238 10.8008)
(-0.104235 -5.3085 9.68)
(-0.0923391 -4.27456 8.72918)
(-0.097162 -2.84788 7.66723)
(-0.0820179 -2.00801 6.91805)
(-0.087107 -0.841796 6.27811)
(-0.0737021 -0.0173169 5.501)
(-0.0598672 0.15981 3.94506)
(16.9486 -5.55512 180.363)
(-1.82541 -2.84581 144.476)
(4.70918 -10.4686 107.68)
(-3.56572 -12.9882 85.1747)
(2.33013 -14.1774 52.1237)
(-2.70953 -13.2427 35.0109)
(2.50149 -14.4015 24.0235)
(-0.748876 -12.0942 18.3227)
(0.0261046 -10.5487 16.3001)
(-0.0455453 -9.41263 15.9362)
(-0.115279 -7.42662 13.9348)
(-0.105267 -6.84039 12.3555)
(-0.102269 -5.52824 11.0205)
(-0.106428 -4.38279 9.73656)
(-0.0937937 -3.50268 8.72289)
(-0.0998255 -2.25817 7.65069)
(-0.0838613 -1.54361 6.90915)
(-0.0890448 -0.536618 6.28041)
(-0.0747053 0.169674 5.60795)
(-0.0614818 0.328765 4.14017)
(15.9763 -5.32016 179.275)
(-1.89029 -0.00435476 143.453)
(4.49089 -4.52482 104.878)
(-3.54 -7.57479 82.7586)
(2.05296 -9.88844 50.4548)
(-2.2978 -9.84691 34.0249)
(2.15883 -11.3642 23.556)
(-0.723865 -9.28444 18.4418)
(0.0314898 -8.81539 16.5405)
(-0.0471496 -7.80494 16.1163)
(-0.123568 -6.32045 14.2384)
(-0.104769 -5.68788 12.2027)
(-0.102344 -4.52557 10.9549)
(-0.109877 -3.4561 9.60539)
(-0.0957755 -2.73902 8.58779)
(-0.102814 -1.64793 7.51674)
(-0.0864232 -1.04853 6.82678)
(-0.091146 -0.236451 6.23091)
(-0.0759633 0.344276 5.61859)
(-0.0619175 0.394692 4.19442)
(14.8112 -5.63317 178.339)
(-1.46368 1.90931 144.781)
(4.26007 -1.9234 100.848)
(-2.29049 -5.14773 79.7084)
(1.63696 -6.54604 48.7046)
(-1.82146 -7.03172 33.0453)
(1.83892 -8.51336 23.0508)
(-0.697229 -6.53439 18.25)
(0.0422745 -6.75544 16.3228)
(-0.0922572 -5.77701 15.833)
(-0.125353 -4.9762 14.1023)
(-0.111801 -4.36809 11.8445)
(-0.105891 -3.41104 10.6015)
(-0.114982 -2.50967 9.32272)
(-0.0991085 -1.95728 8.26379)
(-0.106275 -1.04213 7.26771)
(-0.0891156 -0.581986 6.66533)
(-0.09281 0.000468446 6.13256)
(-0.0772863 0.531865 5.55128)
(-0.0619886 0.438509 4.13828)
(13.2475 -5.3537 177.131)
(-0.483334 2.19717 147.679)
(4.79698 -0.151229 99.4121)
(-1.32647 -3.41268 77.0926)
(1.46093 -4.07554 47.2586)
(-1.56582 -4.88224 31.6742)
(1.56428 -6.60519 22.3463)
(-0.603564 -4.34404 17.6965)
(0.0653593 -5.16975 15.7552)
(-0.135238 -3.80094 15.1285)
(-0.12065 -3.64704 13.5297)
(-0.121312 -3.07646 11.2767)
(-0.109456 -2.31373 10.0328)
(-0.120249 -1.57686 8.8541)
(-0.102853 -1.1572 7.83652)
(-0.109708 -0.468197 6.95746)
(-0.0918792 -0.142919 6.45734)
(-0.0942085 0.209348 5.9559)
(-0.0782994 0.683908 5.39394)
(-0.0618048 0.465681 3.99315)
(11.0784 -3.79144 176.001)
(0.805295 1.0805 151.018)
(4.1785 2.8095 98.4747)
(-0.421856 -1.71994 75.9686)
(1.01519 -1.70675 46.7469)
(-1.54451 -2.18621 30.7242)
(1.37629 -4.23331 21.7332)
(-0.549877 -2.21063 17.3854)
(0.0837813 -3.25397 15.2998)
(-0.16251 -1.85779 14.5975)
(-0.12524 -2.18415 12.8049)
(-0.131336 -1.73741 10.7429)
(-0.115275 -1.16306 9.43538)
(-0.12556 -0.681942 8.34024)
(-0.107107 -0.410294 7.41186)
(-0.112766 0.0212464 6.63227)
(-0.0945215 0.248921 6.16761)
(-0.0958588 0.428004 5.69793)
(-0.0785185 0.770473 5.17969)
(-0.0614467 0.476569 3.77923)
(9.03925 -1.77016 174.816)
(2.2736 -1.64855 155.664)
(4.26514 5.38403 99.1089)
(0.0398847 0.364769 74.2)
(0.984535 0.356993 46.3935)
(-1.63258 0.0493557 29.5049)
(1.41084 -1.4775 20.7114)
(-0.561813 -0.228181 16.646)
(0.10784 -1.20059 14.6579)
(-0.203248 -0.215366 13.7826)
(-0.128122 -0.514539 11.9506)
(-0.142206 -0.360976 10.0597)
(-0.121386 0.00338989 8.81114)
(-0.131579 0.213272 7.83018)
(-0.111814 0.336752 6.95479)
(-0.116312 0.54133 6.21523)
(-0.0974083 0.658819 5.78713)
(-0.0976785 0.652715 5.33846)
(-0.078408 0.824124 4.85121)
(-0.0609331 0.466557 3.48159)
(7.36105 0.0721067 172.439)
(2.62798 -3.90637 158.647)
(3.94937 7.55212 102.713)
(0.15328 3.02409 72.6291)
(0.868975 3.19279 47.567)
(-1.72974 2.74019 29.2999)
(1.46681 1.49512 20.4367)
(-0.654351 2.08018 16.1544)
(0.135287 1.05242 14.0456)
(-0.244702 1.42385 13.1733)
(-0.1289 1.0405 11.274)
(-0.152404 1.05582 9.44644)
(-0.126449 1.06674 8.30891)
(-0.137923 1.0802 7.35151)
(-0.11665 1.06072 6.50056)
(-0.120277 1.06258 5.73416)
(-0.0999271 1.03575 5.3583)
(-0.0989727 0.854589 4.89169)
(-0.0782562 0.86646 4.3969)
(-0.0602527 0.426163 3.08826)
(6.04606 0.680829 169.909)
(2.58847 -4.91606 161.73)
(3.32486 9.91053 108.983)
(0.476623 5.52963 70.7652)
(0.828463 5.28985 48.1088)
(-1.60796 5.21707 29.0087)
(1.38261 4.0116 20.0308)
(-0.769942 4.30194 15.4728)
(0.149617 3.2777 13.1318)
(-0.278963 3.04847 12.3788)
(-0.133331 2.64896 10.6538)
(-0.163728 2.42598 8.81556)
(-0.132894 2.11985 7.74501)
(-0.145722 1.99272 6.75485)
(-0.122184 1.80648 5.92383)
(-0.124976 1.60791 5.19535)
(-0.103106 1.43453 4.80849)
(-0.1016 1.09315 4.39007)
(-0.078665 0.946108 3.83871)
(-0.0597486 0.382478 2.59413)
(4.46992 0.0687908 168.002)
(2.53943 -4.90682 165.276)
(3.06728 10.9069 117.928)
(0.69421 8.94192 70.7834)
(0.857314 7.35619 50.1679)
(-1.30882 7.96124 29.833)
(1.21062 6.45254 20.1842)
(-0.897998 6.57 15.2183)
(0.162854 5.37698 12.4409)
(-0.306655 4.64583 11.7188)
(-0.139876 4.25708 10.2055)
(-0.176129 3.70384 8.17967)
(-0.140638 3.23886 7.13822)
(-0.154689 2.90667 6.12814)
(-0.127661 2.48718 5.28685)
(-0.130199 2.15257 4.57602)
(-0.106667 1.81768 4.19405)
(-0.104471 1.31792 3.80405)
(-0.0796058 1.03162 3.21926)
(-0.0596482 0.361305 2.01895)
(3.29584 -2.47377 165.234)
(2.39796 -3.98986 167.523)
(2.5088 7.81525 131.03)
(0.921835 11.9145 71.4996)
(1.14189 9.41025 51.5253)
(-0.994299 10.6895 30.6031)
(1.092 9.07694 20.2367)
(-0.974799 9.0593 14.6891)
(0.153728 7.36618 11.5517)
(-0.331137 6.55122 10.8883)
(-0.137574 5.88198 9.67045)
(-0.1894 5.09099 7.37025)
(-0.149304 4.38691 6.38747)
(-0.163877 3.84402 5.38887)
(-0.133671 3.21901 4.54742)
(-0.135569 2.70566 3.84482)
(-0.11016 2.21941 3.49707)
(-0.107515 1.57231 3.10809)
(-0.0804173 1.10406 2.53519)
(-0.0601125 0.382283 1.37878)
(2.99956 -3.83095 164.283)
(1.82973 -1.11754 168.695)
(1.70171 0.444431 145.291)
(0.91513 13.8117 77.1578)
(1.29602 12.2771 55.351)
(-0.839476 14.1976 32.4521)
(0.956008 12.0254 20.8859)
(-0.99514 11.9596 14.3457)
(0.111965 9.40843 10.7646)
(-0.356914 8.676 10.1295)
(-0.129976 7.59221 8.94005)
(-0.208472 6.54213 6.45495)
(-0.159943 5.62464 5.46073)
(-0.174424 4.83251 4.47757)
(-0.140535 3.97136 3.63329)
(-0.141229 3.27336 2.97067)
(-0.113722 2.611 2.67296)
(-0.110223 1.83572 2.29584)
(-0.0813878 1.18994 1.78075)
(-0.0606803 0.40159 0.67004)
(2.16696 -3.99423 162.787)
(0.805742 2.30826 168.3)
(1.46524 -3.8747 150.25)
(0.517201 14.5526 86.8998)
(1.02109 16.9289 59.7838)
(-0.563609 18.394 34.0543)
(0.778484 15.7258 21.0798)
(-0.995861 15.2275 13.554)
(0.029726 11.9847 9.57434)
(-0.402088 11.0354 9.14362)
(-0.141658 9.51971 7.80077)
(-0.229422 8.1539 5.2453)
(-0.171425 6.96312 4.29852)
(-0.186273 5.88362 3.29888)
(-0.148649 4.77195 2.51644)
(-0.147591 3.86082 1.91117)
(-0.117673 2.99702 1.67152)
(-0.112438 2.06281 1.34219)
(-0.0827062 1.26894 0.921701)
(-0.0610174 0.38971 -0.131167)
(-0.0485823 -2.43139 161.513)
(-0.239868 3.921 166.91)
(1.09802 -5.13098 155.58)
(-0.669499 14.0067 102.687)
(0.720121 23.4507 67.4875)
(-0.258488 24.0002 37.4605)
(0.539358 20.6814 21.9444)
(-1.0288 19.1775 12.7476)
(-0.0109907 15.4904 7.93522)
(-0.465697 13.6699 7.56903)
(-0.158191 11.6367 6.10316)
(-0.254558 9.89615 3.66007)
(-0.186529 8.34857 2.7408)
(-0.199952 7.00507 1.83125)
(-0.157868 5.57699 1.13078)
(-0.155155 4.44936 0.607053)
(-0.122687 3.36678 0.45784)
(-0.115692 2.2693 0.233646)
(-0.0844649 1.31728 -0.105597)
(-0.0610474 0.334193 -1.08786)
(-2.9926 1.75443 162.791)
(-1.25393 7.69614 166.742)
(0.103191 1.33874 162.317)
(-1.63167 14.5172 124.607)
(0.223246 30.6435 79.1615)
(0.0441342 31.1938 41.2929)
(0.281612 27.5532 21.7721)
(-0.924167 23.5484 10.7857)
(-0.0257054 19.4949 5.46525)
(-0.528303 16.414 5.19939)
(-0.170516 13.7714 3.78827)
(-0.277707 11.6102 1.48495)
(-0.196949 9.63165 0.698076)
(-0.211544 8.01509 -0.0543932)
(-0.165612 6.29417 -0.557738)
(-0.161766 4.98521 -0.898456)
(-0.126799 3.66732 -0.970861)
(-0.119411 2.44806 -1.02149)
(-0.0855261 1.27984 -1.2581)
(-0.0608715 0.240563 -2.1941)
(-4.06885 10.0201 170.889)
(-1.49314 17.2565 172.701)
(-0.980452 20.5304 170.338)
(-1.30101 25.9517 150.689)
(-0.521864 39.1797 99.1478)
(0.0936139 42.1918 47.8375)
(0.0479596 35.8343 21.2341)
(-0.849201 29.2018 7.88097)
(-0.0517404 23.8466 2.13441)
(-0.606976 19.3489 1.61285)
(-0.159962 15.9991 0.70098)
(-0.293153 13.2865 -1.32406)
(-0.21343 10.8179 -1.81133)
(-0.222924 8.84907 -2.28406)
(-0.173432 6.89481 -2.53858)
(-0.167349 5.37441 -2.63112)
(-0.130163 3.86091 -2.59894)
(-0.12259 2.56468 -2.49721)
(-0.0861521 1.21003 -2.71989)
(-0.0608068 0.1372 -3.51016)
(-1.94201 18.7864 191.727)
(0.0494094 29.0677 193.616)
(-0.5216 41.2732 184.805)
(-0.507173 47.0647 163.68)
(-0.696042 46.8392 119.658)
(-0.347623 52.7219 53.8613)
(-0.132492 44.8373 18.3135)
(-0.807722 35.0885 1.95254)
(-0.152017 28.1605 -3.51876)
(-0.636713 22.2403 -3.62404)
(-0.141158 17.7396 -3.42135)
(-0.307421 14.5672 -4.91051)
(-0.230266 11.5908 -4.95427)
(-0.232903 9.40429 -4.94994)
(-0.181072 7.24274 -4.89607)
(-0.173449 5.60437 -4.67998)
(-0.132741 3.89863 -4.47941)
(-0.124535 2.54917 -4.14292)
(-0.0848218 0.977713 -4.37705)
(-0.0601728 -0.0291033 -5.12261)
(3.72524 20.1331 218.418)
(3.08015 29.5401 221.761)
(1.92651 40.2564 210.92)
(0.391307 52.8597 175.404)
(-0.291677 58.0693 137.585)
(-0.935098 61.1862 64.1985)
(-0.349111 51.559 14.2611)
(-0.836528 39.7603 -6.19328)
(-0.233785 30.3986 -10.9561)
(-0.616776 23.9693 -10.3151)
(-0.124879 18.7084 -8.67631)
(-0.309354 15.1685 -9.17607)
(-0.245856 11.8491 -8.65878)
(-0.237531 9.51189 -8.02232)
(-0.184463 7.20657 -7.63706)
(-0.175986 5.56417 -7.03948)
(-0.133748 3.75613 -6.66965)
(-0.126434 2.46913 -6.10808)
(-0.0826776 0.635652 -6.28054)
(-0.0590859 -0.236658 -6.92695)
(8.56249 11.5156 262.511)
(4.56224 15.1791 259.072)
(2.77614 19.7334 245.018)
(1.60476 33.3393 207.282)
(0.539169 53.4421 152.726)
(-1.07885 64.3839 77.0785)
(-0.567461 56.3683 7.66571)
(-0.858201 40.7726 -16.6141)
(-0.248248 30.183 -20.2517)
(-0.590715 23.7826 -18.4451)
(-0.0805053 17.9991 -14.9013)
(-0.284199 14.4511 -14.0424)
(-0.253026 11.1846 -12.7946)
(-0.237843 8.98495 -11.492)
(-0.184802 6.7108 -10.6462)
(-0.175267 5.1438 -9.61804)
(-0.132918 3.36387 -9.03592)
(-0.126891 2.23425 -8.21528)
(-0.0818297 0.266418 -8.326)
(-0.0571462 -0.533733 -8.9639)
(7.12691 11.3 297.677)
(3.40913 17.0494 298.447)
(1.5991 25.6599 285.916)
(1.28164 21.6691 252.745)
(0.385369 26.9245 190.623)
(-0.683088 47.5289 99.1733)
(-0.673124 53.3404 0.301942)
(-0.829704 36.004 -27.7611)
(-0.236184 25.982 -30.653)
(-0.53992 20.6743 -27.0808)
(-0.0538247 15.3395 -21.2968)
(-0.247766 12.6136 -19.0191)
(-0.244229 9.60214 -17.0104)
(-0.229169 7.70605 -14.9697)
(-0.178461 5.63742 -13.62)
(-0.169337 4.31109 -12.28)
(-0.128032 2.64323 -11.4466)
(-0.123673 1.74608 -10.3844)
(-0.0781869 -0.258285 -10.4237)
(-0.0542385 -0.899831 -11.0836)
(6.88478 9.04906 308.115)
(3.402 18.5759 310.513)
(2.01292 28.7446 300.177)
(1.09553 27.5746 274.911)
(0.0950178 27.52 218.419)
(-0.084798 22.3447 138.852)
(-0.636942 40.2283 -0.253059)
(-0.748054 22.8725 -33.7998)
(-0.186043 17.382 -39.5086)
(-0.456689 14.4745 -34.5012)
(-0.0328072 10.4271 -27.3944)
(-0.228281 9.13025 -23.9124)
(-0.236432 6.87231 -21.0812)
(-0.213464 5.59014 -18.298)
(-0.165859 3.97167 -16.4332)
(-0.159419 3.09692 -14.8597)
(-0.12005 1.58771 -13.6995)
(-0.117942 1.01809 -12.5563)
(-0.0719377 -0.945941 -12.462)
(-0.0506167 -1.30793 -13.1536)
(8.33536 1.83974 310.937)
(4.08245 9.61654 315.345)
(2.80511 11.4769 307.1)
(1.69942 16.2149 283.438)
(0.314601 25.9216 223.634)
(0.126966 10.0715 154.178)
(-0.474725 17.646 8.68222)
(-0.661724 7.02025 -35.1399)
(-0.132735 7.64715 -44.3406)
(-0.341322 5.98308 -38.9811)
(0.00827976 4.44869 -31.7781)
(-0.22611 4.37825 -27.4286)
(-0.200714 3.05736 -24.1726)
(-0.187192 2.81575 -21.0905)
(-0.150843 1.93227 -18.9497)
(-0.146769 1.53703 -17.1744)
(-0.111468 0.381646 -15.8001)
(-0.111288 0.143098 -14.6431)
(-0.0667422 -1.62333 -14.3997)
(-0.0470616 -1.69658 -15.0384)
(7.32111 -4.05571 306.204)
(4.08043 0.4207 312.202)
(2.63907 -2.71869 301.168)
(1.9184 -1.36756 278.681)
(1.03515 4.56139 221.104)
(0.24471 -7.20267 145.553)
(-0.214885 -6.96965 15.3519)
(-0.5381 -9.18589 -35.9888)
(-0.0385898 -3.72153 -44.7875)
(-0.240925 -3.27923 -40.2229)
(0.0317282 -1.89485 -33.6575)
(-0.213241 -0.87008 -29.1034)
(-0.155196 -0.891596 -25.9202)
(-0.160406 -0.125994 -22.9523)
(-0.131926 -0.474414 -20.7676)
(-0.131256 -0.233387 -18.9466)
(-0.101473 -0.935943 -17.5163)
(-0.103249 -0.825599 -16.3856)
(-0.0619831 -2.27316 -16.1161)
(-0.0436139 -2.06314 -16.7206)
(5.39427 -6.15284 298.033)
(3.55685 -3.39462 301.878)
(2.587 -8.94852 294.517)
(1.71067 -7.4879 262.024)
(1.38355 -18.9607 209.127)
(0.267595 -26.8999 125.987)
(-0.000970732 -29.5169 16.4061)
(-0.367912 -22.8822 -32.6003)
(0.0474449 -14.9715 -41.8376)
(-0.173882 -11.6956 -39.2092)
(0.0607332 -7.83648 -33.1898)
(-0.187944 -5.52471 -29.0838)
(-0.107702 -4.44408 -26.4286)
(-0.135415 -2.90119 -23.7727)
(-0.114801 -2.6822 -21.8136)
(-0.116496 -1.93226 -20.1449)
(-0.0914689 -2.2684 -18.7745)
(-0.0956077 -1.75624 -17.7367)
(-0.0570529 -2.90816 -17.5307)
(-0.0399381 -2.42158 -18.1223)
(5.39139 -9.0093 285.006)
(3.62328 -9.76498 287.91)
(3.13836 -17.9021 283.075)
(1.89312 -18.1031 247.226)
(1.08199 -31.1361 196.675)
(0.397765 -40.8086 115.446)
(0.124937 -37.9952 20.8456)
(-0.21881 -30.293 -22.1202)
(0.0799902 -23.5863 -35.4225)
(-0.136726 -18.083 -36.2521)
(0.0945277 -13.0711 -31.2689)
(-0.148427 -9.42302 -28.0274)
(-0.0646656 -7.42937 -25.9766)
(-0.112916 -5.23591 -23.7662)
(-0.0980926 -4.56348 -22.1905)
(-0.102806 -3.404 -20.7726)
(-0.0823335 -3.41774 -19.6152)
(-0.0890464 -2.58052 -18.7753)
(-0.0524539 -3.4658 -18.6243)
(-0.0366439 -2.73217 -19.2484)
(3.75642 -9.29936 264.555)
(2.99219 -13.5617 269.348)
(2.61935 -21.4131 261.635)
(2.14586 -28.532 233.799)
(0.76026 -36.0621 183.722)
(0.506093 -45.2946 110.183)
(0.173456 -39.2276 29.9646)
(-0.160394 -31.4994 -8.99052)
(0.0710358 -26.6112 -25.3388)
(-0.118657 -20.8953 -29.8514)
(0.128092 -16.6107 -27.4298)
(-0.0977409 -12.3755 -25.8007)
(-0.0300367 -9.84108 -24.8993)
(-0.0950122 -7.13663 -23.1973)
(-0.0856944 -6.07002 -22.1564)
(-0.0913191 -4.64071 -21.0801)
(-0.0750228 -4.36645 -20.1467)
(-0.0832684 -3.29167 -19.5746)
(-0.0489344 -3.95594 -19.4773)
(-0.0339207 -2.98815 -20.1916)
(0.850623 -5.39233 248.66)
(1.04169 -8.76434 249.028)
(1.33238 -13.9 241.061)
(1.90061 -23.7578 215.188)
(0.692865 -33.4672 168.428)
(0.50874 -43.0754 100.37)
(0.106423 -38.555 33.2169)
(-0.087786 -30.7751 -0.752946)
(0.0630677 -24.8874 -16.4973)
(-0.126941 -19.9223 -22.1864)
(0.153076 -16.8661 -22.3202)
(-0.0734146 -13.3163 -22.2523)
(-0.0168014 -11.1992 -22.9298)
(-0.0798376 -8.57931 -22.1819)
(-0.0749489 -7.19065 -21.7396)
(-0.0808449 -5.6331 -21.1155)
(-0.0682789 -5.14333 -20.5193)
(-0.0776277 -3.89757 -20.192)
(-0.046273 -4.37177 -20.2705)
(-0.0318995 -3.21184 -21.004)
(0.152643 -0.828574 243.238)
(0.257915 -1.1327 240.107)
(0.644845 -1.54009 225.404)
(1.35247 -10.4798 193.992)
(0.662258 -23.3277 150.662)
(0.45391 -33.2763 89.9489)
(-0.0472957 -31.1338 33.598)
(0.0196055 -26.8388 3.67733)
(0.0432453 -23.0716 -11.2523)
(-0.152198 -17.983 -16.8494)
(0.189639 -15.2145 -18.0959)
(-0.0767785 -12.4698 -18.6691)
(-0.0278138 -10.8625 -20.5877)
(-0.0782756 -8.93023 -20.7124)
(-0.0731591 -7.72234 -21.1748)
(-0.0771246 -6.20908 -21.0163)
(-0.0652308 -5.67979 -20.7593)
(-0.0746325 -4.31639 -20.6986)
(-0.0455121 -4.66797 -20.9411)
(-0.0307634 -3.39317 -21.7305)
(0.682938 7.41947 246.416)
(0.584517 11.4409 244.18)
(0.376408 12.7549 223.933)
(0.619355 7.38807 182.597)
(0.556278 -8.62703 136.098)
(0.434217 -20.291 81.8731)
(-0.204794 -21.9097 32.7856)
(0.171617 -20.3884 7.54418)
(0.00179939 -18.1834 -7.91576)
(-0.125103 -14.7748 -13.7264)
(0.222958 -12.8402 -15.6742)
(-0.105559 -10.8812 -16.4612)
(-0.0379256 -9.64122 -18.9396)
(-0.0795961 -8.17865 -19.5811)
(-0.0763444 -7.29689 -20.5004)
(-0.0757125 -6.33211 -20.7792)
(-0.0644369 -5.85784 -20.9281)
(-0.074215 -4.5642 -21.1198)
(-0.0439601 -4.90206 -21.5255)
(-0.0306758 -3.48771 -22.3968)
(3.32586 15.0254 267.236)
(1.87492 23.1473 265.251)
(0.815964 27.3171 241.01)
(0.0733973 27.1845 186.339)
(0.281498 10.5509 126.126)
(0.344697 -5.28875 76.2479)
(-0.389396 -11.0676 30.3845)
(0.276164 -12.8227 7.72456)
(-0.0438869 -12.1528 -6.71345)
(-0.0672704 -10.7264 -12.3145)
(0.216724 -9.81927 -14.6077)
(-0.165223 -8.71954 -15.5822)
(-0.0576584 -7.97659 -18.266)
(-0.0969795 -7.18232 -19.2008)
(-0.0862865 -6.56691 -20.103)
(-0.0803389 -5.93502 -20.6911)
(-0.0674436 -5.69505 -21.1362)
(-0.0758964 -4.57495 -21.4631)
(-0.0430585 -5.0451 -22.0224)
(-0.0309636 -3.55093 -22.988)
(9.69806 16.0257 299.794)
(4.1828 25.0085 291.903)
(2.68426 33.0806 260.242)
(0.295275 33.0854 189.758)
(-0.104146 28.4664 117.979)
(0.137503 9.10051 67.2797)
(-0.540719 1.29507 24.9912)
(0.318598 -4.9228 4.78532)
(-0.101198 -5.39586 -8.08228)
(0.00345542 -6.73083 -12.9244)
(0.166291 -6.35883 -14.8982)
(-0.230535 -6.34275 -15.6582)
(-0.0925757 -5.98211 -18.2161)
(-0.108156 -5.86399 -19.13)
(-0.095525 -5.6372 -20.122)
(-0.0874486 -5.23063 -20.8029)
(-0.0729187 -5.25593 -21.4087)
(-0.0794877 -4.39146 -21.8003)
(-0.0443755 -5.04902 -22.4768)
(-0.0313798 -3.60476 -23.5215)
(17.7671 9.49174 346.584)
(5.96549 13.2789 329.515)
(4.85072 14.2316 283.317)
(1.46283 25.2012 201.531)
(-0.155806 32.9141 115.618)
(-0.0852899 17.9037 53.5644)
(-0.624248 8.75817 16.0569)
(0.238573 1.55388 -2.17365)
(-0.1317 -0.32309 -12.4944)
(0.0240305 -3.3798 -15.7722)
(0.0955187 -3.1395 -16.7336)
(-0.252408 -4.10446 -16.9561)
(-0.10414 -4.20964 -19.0356)
(-0.116323 -4.46964 -19.8456)
(-0.10535 -4.54633 -20.6637)
(-0.09575 -4.45304 -21.3096)
(-0.0795965 -4.7468 -21.7812)
(-0.084208 -4.1082 -22.1754)
(-0.0466448 -4.93645 -22.8573)
(-0.0319065 -3.63637 -23.9562)
(18.5119 4.98888 367.184)
(4.77562 8.27519 350.969)
(4.6912 2.67379 303.981)
(2.39722 4.27977 233.049)
(0.157946 26.4933 125.548)
(-0.196382 22.407 43.2524)
(-0.641426 11.2525 5.51734)
(0.125235 5.42031 -11.2911)
(-0.11995 1.8104 -18.7746)
(0.000268225 -1.21526 -20.7918)
(0.0149067 -1.54269 -20.3328)
(-0.219414 -2.63515 -19.7209)
(-0.1028 -3.00578 -20.9893)
(-0.119039 -3.39323 -21.447)
(-0.115454 -3.71082 -21.6592)
(-0.103045 -3.8644 -21.969)
(-0.0845311 -4.43377 -22.2018)
(-0.0885924 -3.83516 -22.4922)
(-0.0487371 -4.8462 -23.1229)
(-0.0322342 -3.67245 -24.2489)
(18.7339 3.18562 373.42)
(3.97839 7.9508 359.245)
(4.25522 2.82746 318.124)
(1.88587 3.56018 255.928)
(0.982538 6.56336 162.539)
(-0.223756 23.2883 43.9235)
(-0.589246 9.53347 -0.250999)
(0.0452023 5.70338 -18.0268)
(-0.114745 1.63651 -24.32)
(-0.0526017 -0.107611 -25.4616)
(-0.0558426 -1.51014 -23.7444)
(-0.16356 -2.3192 -22.5329)
(-0.102436 -3.07612 -23.0989)
(-0.122467 -3.24253 -23.1701)
(-0.115168 -3.83863 -22.8223)
(-0.108896 -3.71715 -22.7188)
(-0.0887222 -4.35136 -22.685)
(-0.0923699 -3.70541 -22.9462)
(-0.0507196 -4.77081 -23.4773)
(-0.0320394 -3.75868 -24.5808)
(19.7469 0.923194 376.432)
(4.03014 5.75614 361.685)
(4.53601 1.29734 320.715)
(1.44066 5.64442 262.254)
(1.31609 -7.24709 190.331)
(-0.287159 16.7401 54.9744)
(-0.447029 6.86535 -2.19176)
(-0.00852459 5.0033 -21.2854)
(-0.127492 0.58054 -28.2274)
(-0.0813508 -0.497222 -28.2494)
(-0.094819 -2.35541 -25.9796)
(-0.12901 -2.69412 -24.2304)
(-0.106989 -3.72245 -24.2977)
(-0.118175 -3.63108 -24.1358)
(-0.110703 -4.23318 -23.5025)
(-0.109531 -3.86689 -23.3756)
(-0.0889377 -4.41715 -23.1982)
(-0.0941737 -3.67392 -23.4607)
(-0.0509514 -4.78489 -23.9365)
(-0.0314254 -3.85938 -25.0178)
(21.6619 -3.88014 374.562)
(4.25465 -0.54695 358.402)
(5.18291 -5.07517 318.604)
(1.14742 0.0932073 264.442)
(0.982743 -8.95786 200.255)
(-0.358461 8.77582 76.6036)
(-0.318346 5.89052 -4.92172)
(-0.0190905 1.76212 -22.2087)
(-0.165028 -1.37714 -30.9004)
(-0.103487 -2.17155 -29.7201)
(-0.127855 -3.70189 -27.6204)
(-0.1305 -3.79235 -25.2697)
(-0.124478 -4.75883 -25.2435)
(-0.120231 -4.32955 -24.9476)
(-0.110423 -4.74719 -24.1959)
(-0.112579 -4.13873 -23.9727)
(-0.0892618 -4.64697 -23.6384)
(-0.0949934 -3.78637 -23.8562)
(-0.0511314 -4.8381 -24.2642)
(-0.030295 -3.96174 -25.3377)
(21.5171 -6.25856 365.867)
(4.36264 -2.48126 351.169)
(5.05265 -7.35269 313.871)
(1.2514 -6.19243 264.147)
(0.748753 -6.80089 203.919)
(0.0276405 -1.0053 105.539)
(-0.161026 1.53792 -3.74347)
(-0.00798039 -4.78397 -22.3972)
(-0.203511 -3.81898 -32.6289)
(-0.127912 -5.43405 -30.7044)
(-0.141995 -5.41784 -29.0061)
(-0.143516 -5.38722 -26.1139)
(-0.121947 -5.96553 -25.8949)
(-0.116874 -5.16641 -25.2823)
(-0.10383 -5.40297 -24.4844)
(-0.108528 -4.6519 -24.2493)
(-0.0856554 -5.04833 -23.7256)
(-0.093366 -4.06855 -23.8879)
(-0.0494771 -4.95645 -24.2516)
(-0.0288601 -4.04747 -25.3632)
(19.9726 -6.57004 359.671)
(4.64464 -1.65976 347.425)
(4.7717 -8.31903 311.061)
(1.43465 -8.67047 264.877)
(0.833072 -9.18174 205.795)
(0.546031 -12.1922 112.956)
(-0.00537325 -6.12093 5.3403)
(0.0299466 -12.1425 -23.4868)
(-0.16959 -7.46161 -32.2974)
(-0.135975 -9.53167 -31.1628)
(-0.13506 -7.70658 -29.4273)
(-0.128937 -7.40602 -26.1634)
(-0.124646 -7.37211 -25.773)
(-0.126858 -6.24317 -24.8806)
(-0.104462 -6.32755 -24.0057)
(-0.110699 -5.36772 -23.6171)
(-0.0829083 -5.62471 -22.9937)
(-0.0931773 -4.41564 -23.1936)
(-0.0491547 -5.05074 -23.5203)
(-0.0275306 -4.08901 -24.7314)
(20.423 -7.92194 351.376)
(5.00643 -4.9672 338.692)
(5.02312 -13.3276 304.344)
(1.24682 -13.8032 261.936)
(1.31308 -16.5695 203.947)
(0.562221 -22.7003 110.745)
(0.0211354 -16.7164 11.1021)
(0.0913607 -18.2377 -21.3879)
(-0.0863096 -12.4711 -29.0143)
(-0.0854926 -13.7605 -29.6852)
(-0.080515 -10.8012 -27.9096)
(-0.0848595 -10.0584 -24.427)
(-0.0850812 -9.22632 -23.8322)
(-0.109539 -7.68731 -22.8368)
(-0.0848544 -7.50924 -21.9565)
(-0.101953 -6.21887 -21.6112)
(-0.0783753 -6.23781 -20.9833)
(-0.0909091 -4.84391 -21.3577)
(-0.0493544 -5.09666 -21.782)
(-0.0268279 -4.05117 -23.1668)
(20.4109 -10.621 333.2)
(5.1048 -8.99824 322.449)
(5.03502 -16.6771 290.763)
(1.46746 -18.7235 251.899)
(1.78287 -24.771 200.718)
(0.0990036 -28.1578 112.203)
(-0.0704781 -24.1405 18.5744)
(0.14683 -22.4453 -14.2644)
(0.00638778 -17.4827 -22.3937)
(-0.0137901 -17.5258 -24.6605)
(-0.0337101 -14.0435 -23.1254)
(-0.0745534 -12.8592 -20.1404)
(-0.0749564 -11.3517 -19.6385)
(-0.123226 -9.37365 -18.7379)
(-0.0712135 -8.7627 -18.0562)
(-0.098003 -7.10378 -17.8818)
(-0.0739002 -6.76645 -17.5077)
(-0.0911192 -5.08238 -18.2772)
(-0.0527585 -4.85241 -18.9406)
(-0.0273942 -3.87752 -20.5233)
(18.5335 -12.1645 315.39)
(5.04662 -10.8524 307.507)
(4.48319 -19.35 276.842)
(2.06808 -22.7274 239.046)
(1.44517 -32.2084 195.124)
(0.339487 -34.5905 110.35)
(-0.108389 -30.7749 26.1798)
(0.136604 -26.0803 -5.09395)
(0.0310815 -22.1148 -14.5582)
(0.0379122 -20.6571 -17.86)
(0.0239671 -16.7423 -16.7056)
(-0.041242 -14.8506 -14.4574)
(-0.0271792 -12.9366 -14.2775)
(-0.101715 -10.7214 -13.8546)
(-0.0479572 -9.79994 -13.6011)
(-0.0946094 -7.6207 -13.727)
(-0.0730081 -6.76126 -13.667)
(-0.0927695 -5.0127 -14.6277)
(-0.0567694 -4.45667 -15.3623)
(-0.0294893 -3.54805 -17.0176)
(18.3117 -12.7838 300.223)
(5.12415 -13.6999 290.696)
(4.32942 -23.495 260.187)
(2.15304 -28.3358 221.571)
(1.67377 -41.9561 178.63)
(0.741439 -42.3601 104.43)
(-0.106675 -37.355 32.7579)
(0.182884 -30.456 2.49585)
(0.0594337 -26.4398 -8.71009)
(0.0568989 -22.6419 -12.6389)
(0.0166993 -19.0788 -11.7167)
(-0.0696891 -16.2097 -9.94152)
(-0.0171793 -14.1022 -9.90924)
(-0.097051 -11.4307 -10.1802)
(-0.0333621 -10.2468 -10.2581)
(-0.10336 -7.75533 -10.6158)
(-0.0725472 -6.74188 -10.6184)