/*--------------------------------*- C++ -*----------------------------------*\
| =========                 |                                                 |
| \\      /  F ield         | OpenFOAM: The Open Source CFD Toolbox           |
|  \\    /   O peration     | Version:  2212                                  |
|   \\  /    A nd           | Website:  www.openfoam.com                      |
|    \\/     M anipulation  |                                                 |
\*---------------------------------------------------------------------------*/
FoamFile
{
    version     2.0;
    format      ascii;
    arch        "LSB;label=32;scalar=64";
    class       volVectorField;
    location    "0.0505";
    object      U;
}
// * * * * * * * * * * * * * * * * * * * * * * * * * * * * * * * * * * * * * //

dimensions      [0 1 -1 0 0 0 0];

internalField   nonuniform List<vector> 
44662
(
(-2.86496 71.1063 -9.46297e-17)
(4.59231 44.5712 -9.81585e-21)
(4.63222 44.132 -2.26832e-16)
(4.25852 44.5095 2.82082e-16)
(4.41209 44.3191 1.17525e-20)
(-1.62448 54.4961 -1.37033e-16)
(-0.693448 108.485 -7.59173e-18)
(-1.54326 52.8391 -3.93072e-16)
(5.9758 38.2885 1.13553e-16)
(-9.85593 90.0639 0)
(-1.48399 59.6214 2.68307e-16)
(0.825644 24.581 -7.78281e-17)
(0.890886 106.804 1.28532e-16)
(16.427 31.9532 1.08489e-16)
(-4.4069 14.9741 0)
(0.817882 25.5906 1.78732e-17)
(3.57234 16.9991 4.4264e-16)
(-1.6705 17.9942 2.5523e-16)
(-22.2658 78.1043 -9.58288e-20)
(0.0463458 116.132 -9.86834e-17)
(5.29146 98.2692 7.74885e-17)
(3.10552 17.6043 -1.47203e-16)
(0.847932 109.986 6.04581e-17)
(-4.61094 73.3612 -1.13717e-16)
(-17.4921 58.5642 -5.78372e-17)
(27.3594 57.2216 -2.51019e-16)
(-0.745145 103.969 -4.10127e-19)
(-0.297776 93.1877 -1.29365e-16)
(-2.43518 102.459 1.56603e-17)
(-0.387883 98.2847 -1.43504e-16)
(8.81067 8.79132 1.36922e-16)
(-8.27782 100.61 -1.43533e-17)
(9.01809 8.30482 1.54267e-16)
(-0.0397509 68.6595 -3.74764e-16)
(-2.13179 19.0164 -5.49392e-17)
(-5.56061 74.3795 5.14356e-17)
(6.05584 26.4544 1.32654e-16)
(5.19508 25.4078 -2.26266e-16)
(25.158 70.2625 0)
(-5.33883 35.0524 -1.09077e-16)
(-4.07158 34.4877 1.11862e-16)
(7.31525 27.5796 -5.83342e-17)
(4.05123 81.0652 -2.61694e-16)
(-24.2844 49.432 -1.14433e-16)
(-3.49604 105.769 6.87065e-17)
(4.4335 43.4158 1.52734e-17)
(-8.17302 97.3213 3.14039e-17)
(-17.1474 69.1673 6.69414e-17)
(13.9594 86.4589 -1.17656e-16)
(-23.0101 50.0226 -3.30444e-16)
(-3.39429 42.8177 -1.19804e-16)
(-8.2103 93.9369 -3.09579e-17)
(21.6544 38.1438 1.60777e-20)
(9.11476 11.8126 4.36595e-17)
(-10.0369 88.8895 5.5291e-17)
(-3.54367 45.9536 0)
(18.2963 33.9176 -1.15414e-16)
(-2.52013 83.5236 1.44069e-16)
(0.646399 91.6321 -2.88072e-16)
(0.66291 90.8101 0)
(-1.79094 56.8218 1.18679e-20)
(9.49506 13.0917 -1.07401e-16)
(14.0629 82.7997 0)
(-22.9726 37.6745 -1.0833e-16)
(-5.58188 93.0207 5.62211e-17)
(-1.20724 63.3226 -3.91291e-16)
(0.793664 59.1582 1.23446e-16)
(1.64933 46.2648 -2.1119e-16)
(25.4034 42.2946 0)
(-2.0795 107.486 1.27979e-16)
(8.26428 12.0493 0)
(0.867873 69.1076 1.40699e-16)
(28.9472 68.9098 3.12734e-16)
(-1.25626 63.2267 1.59688e-16)
(-1.9945 106.814 1.24164e-16)
(-0.900956 33.8566 -3.12218e-17)
(-4.94237 17.7471 -3.03701e-16)
(0.648782 93.7276 -4.19218e-16)
(0.627885 87.3668 2.71101e-16)
(-0.703459 56.33 -1.40459e-16)
(3.97975 45.6753 3.38921e-17)
(-1.85871 105.914 -1.27155e-16)
(-6.1859 40.5343 1.30427e-16)
(-3.1393 103.905 5.3542e-17)
(3.61788 48.577 -8.29084e-17)
(-4.41419 39.1318 0)
(-1.74043 104.833 3.87747e-16)
(-0.860569 46.1998 5.10654e-17)
(-10.9273 95.3143 -6.77609e-18)
(0.795738 110.744 2.40146e-16)
(-1.36241 101.383 -5.43851e-21)
(-1.55526 103.412 -1.30776e-16)
(16.6793 63.8088 1.87157e-16)
(-3.5806 21.75 1.44971e-16)
(-3.91885 105.582 -7.06707e-17)
(-9.75145 97.8576 2.99393e-17)
(-0.110458 71.867 -1.16249e-16)
(-4.53747 105.011 3.19261e-17)
(-3.77727 101.642 -2.46429e-17)
(-10.9603 51.5344 -2.09044e-16)
(-0.463545 127.57 1.38466e-17)
(1.43423 45.5363 7.24176e-17)
(1.00015 83.8198 6.31381e-21)
(-1.10962 40.3727 4.97795e-21)
(0.893376 104.782 -6.84462e-17)
(-1.1045 97.3944 7.83028e-21)
(0.90402 102.454 3.52396e-17)
(-3.51761 45.5507 0)
(11.6912 44.0494 -2.04921e-16)
(1.91548 112.727 6.182e-17)
(0.89052 99.7681 -3.52383e-17)
(-10.2359 35.1639 0)
(1.53408 45.4243 -1.61935e-17)
(1.58704 69.1694 0)
(-0.522338 53.3734 2.39016e-16)
(0.894499 96.7397 2.9943e-17)
(0.672171 83.3399 -2.43111e-16)
(4.58088 40.0786 5.70498e-17)
(-7.64952 13.501 -2.06555e-21)
(0.936332 93.336 -1.16518e-16)
(-10.3209 33.4825 2.00131e-20)
(0.847947 95.3225 -3.53274e-16)
(-0.121212 87.2713 2.7013e-16)
(0.957182 89.7384 3.01891e-16)
(0.874656 93.1884 -1.35887e-16)
(-0.221746 45.6044 -5.75326e-17)
(1.04025 85.9778 -7.29276e-17)
(0.828468 90.8449 -4.74351e-21)
(-2.69685 43.3957 -1.23599e-16)
(1.08287 82.1365 1.88926e-17)
(0.798057 88.304 0)
(0.148768 88.108 -8.63239e-21)
(-1.30069 60.127 2.30784e-21)
(0.33813 89.5506 -2.20385e-16)
(1.13354 78.0493 -4.0923e-17)
(0.801842 85.7632 1.48009e-16)
(0.37401 82.7291 -1.94971e-21)
(0.278399 82.8482 -1.68919e-16)
(1.23864 73.7671 -8.20062e-18)
(0.788348 83.4535 -1.63171e-16)
(0.239285 89.0842 -1.26865e-16)
(1.42882 69.4478 3.32001e-18)
(3.76452 96.2384 6.65712e-17)
(3.67976 92.3632 -1.30433e-16)
(1.63699 65.1812 2.74116e-19)
(-2.56424 43.2259 -1.94705e-16)
(-4.01568 41.2469 -2.55118e-16)
(-3.7809 41.0366 2.93381e-17)
(0.345303 45.3572 3.7025e-17)
(6.91007 49.6875 0)
(-5.89295 35.4124 0)
(3.55662 43.4048 -8.13717e-17)
(1.50128 65.369 0)
(3.67012 72.8565 2.14564e-16)
(-0.313232 44.5758 -1.48419e-17)
(0.408489 45.3236 1.55038e-17)
(9.32166 34.0048 0)
(0.0762668 128.184 6.96844e-18)
(0.0696802 128.527 -1.43696e-21)
(0.0644227 128.874 -3.50706e-18)
(0.0595524 129.224 3.51817e-18)
(0.057006 129.578 -3.54209e-18)
(0.0555162 129.935 4.45224e-19)
(0.0553848 130.297 -8.91918e-19)
(0.0563572 130.663 -3.59032e-18)
(0.0576303 131.035 3.59387e-18)
(0.0586731 131.414 -8.18414e-22)
(0.0595434 131.798 -8.33622e-22)
(0.0597195 132.189 -1.80548e-18)
(0.0595378 132.586 2.25702e-19)
(0.0591127 132.989 -1.12915e-19)
(0.0586669 133.4 3.61249e-18)
(0.0581348 133.817 -3.61603e-18)
(0.0576207 134.241 -3.61443e-18)
(0.0570719 134.672 3.61675e-18)
(0.0565096 135.11 0)
(0.0558951 135.556 2.82482e-20)
(0.0552779 136.01 1.86372e-18)
(0.0546765 136.471 -1.01733e-21)
(0.0539711 136.94 -3.84101e-18)
(0.0529064 137.418 2.25939e-18)
(0.0511285 137.903 0)
(0.0485622 138.396 1.80476e-18)
(0.0454009 138.897 -3.60818e-18)
(0.0427646 139.407 0)
(0.0404158 139.925 -8.99686e-19)
(0.0391124 140.452 -2.23868e-19)
(0.0390558 140.988 1.80222e-18)
(0.0405623 141.533 0)
(0.0427133 142.088 -1.80492e-18)
(0.0444123 142.652 0)
(0.0456415 143.226 -9.03266e-19)
(0.0459679 143.81 -4.50366e-19)
(0.0458794 144.404 9.05558e-19)
(0.0454183 145.008 9.05206e-19)
(0.0449393 145.622 2.6553e-18)
(0.0445587 146.246 -1.9227e-18)
(0.0442011 146.881 1.80818e-18)
(0.0442175 147.526 -4.54005e-19)
(0.044466 148.182 1.356e-18)
(0.0451598 148.849 -1.8139e-18)
(0.0468873 149.527 1.8139e-18)
(0.0498398 150.217 9.29978e-24)
(0.053862 150.919 -3.63069e-18)
(0.0577451 151.633 8.37579e-22)
(0.0606028 152.361 3.63078e-18)
(-0.534187 151.542 3.63905e-18)
(-0.539455 152.27 -7.26667e-18)
(-0.530675 150.827 -1.81735e-18)
(10.5139 12.8121 3.36636e-17)
(0.0827656 127.847 0)
(0.353588 128.117 0)
(0.354027 127.779 7.03166e-18)
(0.0599242 153.104 -2.72352e-18)
(0.0554601 153.861 -1.80951e-18)
(-0.560676 153.769 0)
(-0.547567 153.013 2.72136e-18)
(-0.520606 149.434 -5.44693e-18)
(-0.526441 150.124 3.63678e-18)
(-0.505711 148.089 -1.81183e-18)
(-0.513629 148.756 7.67477e-22)
(-0.489054 146.788 -3.62046e-18)
(-0.497343 147.433 2.71831e-18)
(-0.471953 145.531 1.4075e-21)
(-0.480532 146.154 3.84463e-18)
(-0.455216 144.314 -1.80821e-18)
(-0.463455 144.917 -1.69431e-18)
(-0.440448 143.136 -9.03312e-19)
(-0.447449 143.72 1.80646e-18)
(-0.429629 141.996 3.61056e-18)
(-0.434563 142.561 -1.80664e-18)
(-0.419112 140.895 9.02521e-19)
(-0.42501 141.441 -2.70983e-18)
(-0.403266 139.833 -2.70699e-18)
(-0.411957 140.359 -1.1279e-19)
(-0.383503 138.808 -1.80465e-18)
(-0.39355 139.316 3.60749e-18)
(-0.363842 137.816 -1.80667e-18)
(-0.373265 138.308 -1.09324e-21)
(-0.347613 136.856 0)
(-0.355228 137.332 1.80558e-18)
(-0.333538 135.926 3.5599e-18)
(-0.340467 136.387 -1.9215e-18)
(-0.320081 135.028 -1.80845e-18)
(-0.326774 135.473 -1.83566e-18)
(-0.307022 134.159 3.62904e-18)
(-0.313503 134.59 -9.45275e-22)
(-0.294221 133.319 -2.82325e-20)
(-0.300513 133.735 -1.79294e-18)
(-0.28212 132.505 3.38449e-18)
(-0.288069 132.909 -3.61339e-18)
(-0.271386 131.718 -1.80343e-18)
(-0.276447 132.109 0)
(-0.263218 130.955 3.59482e-18)
(-0.267035 131.333 -1.21421e-21)
(-0.255685 130.215 0)
(-0.259645 130.582 -3.5898e-18)
(-0.243772 129.497 1.77148e-18)
(-0.250576 129.853 2.20865e-18)
(-0.224804 128.795 1.0507e-17)
(-0.235144 129.144 7.0189e-18)
(-0.213698 128.451 -6.95829e-18)
(0.353162 128.808 -3.51319e-18)
(0.353041 128.461 -7.0023e-18)
(0.357085 129.511 -8.84956e-19)
(0.354595 129.158 -3.53769e-18)
(0.366363 130.229 -5.35947e-18)
(0.361646 129.868 3.62905e-18)
(0.377921 130.965 3.59654e-18)
(0.372103 130.594 -8.9622e-19)
(0.389507 131.726 9.01281e-19)
(0.383662 131.343 0)
(0.400575 132.512 -1.35376e-18)
(0.395199 132.116 -9.02493e-19)
(0.411017 133.325 1.80769e-18)
(0.405835 132.915 1.13805e-19)
(0.421696 134.166 -1.77932e-18)
(0.416399 133.742 0)
(0.432485 135.034 -1.80767e-18)
(0.427035 134.596 1.80887e-18)
(0.443558 135.933 -3.61634e-18)
(0.438035 135.48 3.61586e-18)
(0.454787 136.863 4.06708e-18)
(0.449167 136.394 -1.11968e-19)
(0.465307 137.825 -3.61445e-18)
(0.460321 137.34 2.25707e-18)
(0.474184 138.82 1.80381e-18)
(0.469923 138.318 0)
(0.484119 139.848 -9.02688e-19)
(0.478962 139.33 9.00754e-19)
(0.496769 140.91 1.19873e-21)
(0.489859 140.375 -3.37945e-18)
(0.513429 142.008 1.80556e-18)
(0.504878 141.454 2.70604e-18)
(0.530374 143.144 9.03197e-19)
(0.522085 142.571 0)
(0.546006 144.32 -2.71303e-18)
(0.53841 143.727 1.35422e-18)
(0.561286 145.537 -1.75238e-18)
(0.553722 144.924 1.80705e-18)
(0.576772 146.795 9.04106e-19)
(0.568994 146.161 2.26096e-19)
(0.593499 148.096 6.33534e-18)
(0.584886 147.44 -2.93958e-18)
(0.612786 149.44 1.81375e-18)
(0.602596 148.762 -6.33961e-18)
(0.636521 150.83 1.81528e-18)
(0.624058 150.129 1.81398e-18)
(0.65833 152.273 5.44282e-18)
(0.648301 151.544 8.55346e-22)
(0.671425 153.772 1.80978e-18)
(0.665737 153.015 -2.72072e-18)
(-1.12344 151.27 9.09773e-18)
(-1.13668 151.999 -1.8163e-18)
(-1.11213 150.555 -5.45817e-18)
(-8.71595 13.0487 1.40506e-16)
(10.5906 13.0713 4.15123e-17)
(0.631927 127.908 3.53617e-18)
(0.627976 127.573 -7.06767e-18)
(-0.576535 154.538 1.91033e-21)
(-1.17541 153.494 -3.62268e-18)
(-1.20187 154.26 -7.22484e-18)
(1.28756 153.496 -2.71386e-18)
(0.676249 154.542 -1.80778e-18)
(1.3031 154.265 0)
(0.354206 127.448 -7.05448e-18)
(0.0883756 127.516 -7.03711e-18)
(-1.1539 152.741 3.62314e-18)
(-1.0853 149.162 -1.81712e-18)
(-1.09927 149.852 1.81824e-18)
(-1.05394 147.818 0)
(-1.0702 148.484 -9.07734e-19)
(-1.02104 146.519 9.05008e-19)
(-1.03746 147.163 -1.35911e-18)
(-0.987813 145.263 -9.61575e-19)
(-1.00447 145.886 -2.2627e-19)
(-0.955145 144.049 6.76218e-22)
(-0.971297 144.651 1.69557e-18)
(-0.925005 142.873 -9.03343e-19)
(-0.939617 143.456 -4.51574e-19)
(-0.899701 141.733 -4.51736e-18)
(-0.911886 142.298 -1.80597e-18)
(-0.875069 140.632 6.0041e-22)
(-0.888002 141.177 4.51465e-18)
(-0.845399 139.572 1.80411e-18)
(-0.861068 140.097 -1.69202e-18)
(-0.81143 138.551 -2.70967e-18)
(-0.828616 139.057 -5.67308e-22)
(-0.777804 137.564 0)
(-0.794076 138.054 -1.80677e-18)
(-0.747919 136.607 -1.80807e-18)
(-0.762298 137.082 1.80801e-18)
(-0.721223 135.681 0)
(-0.734356 136.14 1.13074e-19)
(-0.695344 134.785 7.06451e-21)
(-0.708218 135.229 0)
(-0.670201 133.919 1.79324e-18)
(-0.682687 134.348 -1.81095e-18)
(-0.645891 133.081 9.88247e-19)
(-0.657978 133.496 -9.18357e-19)
(-0.622408 132.27 0)
(-0.634037 132.672 5.64538e-20)
(-0.600739 131.485 0)
(-0.611276 131.875 0)
(-0.582292 130.722 -1.79865e-18)
(-0.59118 131.101 -1.80096e-18)
(-0.56499 129.981 -4.05416e-22)
(-0.573898 130.349 3.58977e-18)
(-0.543087 129.266 1.77017e-18)
(-0.554635 129.621 1.79748e-18)
(-0.512971 128.572 -8.74367e-18)
(-0.528965 128.916 -1.22954e-17)
(-0.496202 128.233 -6.96467e-18)
(-2.48919 102.837 3.06526e-17)
(0.0492199 154.632 5.42098e-18)
(0.64182 128.596 7.05284e-18)
(0.636347 128.25 -3.51993e-18)
(0.656819 129.296 8.88554e-19)
(0.648985 128.945 -1.77108e-18)
(0.675109 130.01 -1.79307e-18)
(0.665664 129.651 1.73022e-18)
(0.696356 130.744 -9.0085e-19)
(0.685638 130.374 1.79319e-18)
(0.7182 131.501 0)
(0.707163 131.119 0)
(0.740239 132.284 9.03501e-19)
(0.729248 131.889 -9.02144e-19)
(0.762142 133.094 -2.76959e-18)
(0.751238 132.686 1.80626e-18)
(0.78436 133.932 -2.82565e-20)
(0.773136 133.509 8.47334e-19)
(0.807129 134.798 0)
(0.795687 134.361 0)
(0.830576 135.694 -9.04949e-19)
(0.818827 135.242 9.03805e-19)
(0.854475 136.622 6.77881e-19)
(0.842504 136.154 1.13008e-19)
(0.878695 137.581 5.37487e-22)
(0.866678 137.097 -1.80715e-18)
(0.901969 138.575 0)
(0.890459 138.074 1.80623e-18)
(0.926127 139.601 9.02077e-19)
(0.91385 139.083 -9.02224e-19)
(0.952634 140.66 -9.01941e-19)
(0.938991 140.126 0)
(0.982487 141.755 -1.80641e-18)
(0.967258 141.203 1.80493e-18)
(1.01375 142.888 0)
(0.998262 142.317 1.80685e-18)
(1.04507 144.062 6.78714e-19)
(1.0296 143.47 -1.35487e-18)
(1.07618 145.276 9.61234e-19)
(1.06057 144.664 -9.03417e-19)
(1.10795 146.532 0)
(1.09192 145.899 -1.1306e-19)
(1.1409 147.83 -4.52488e-19)
(1.12417 147.176 -2.97436e-24)
(1.17599 149.172 2.71787e-18)
(1.15791 148.496 -4.52549e-19)
(1.21458 150.56 -9.07937e-19)
(1.19468 149.86 -1.62207e-21)
(1.25304 152 0)
(1.23407 151.274 0)
(1.27085 152.741 -9.05431e-19)
(0.623799 127.242 0)
(-1.82599 153.796 -3.6146e-18)
(-1.78952 153.036 7.24517e-18)
(-1.71139 150.817 -1.81976e-18)
(-1.73305 151.546 3.63109e-18)
(-1.69154 150.101 -6.37393e-18)
(0.680482 155.326 -3.60964e-18)
(1.31882 155.048 1.80441e-18)
(-0.180824 127.451 -3.62717e-18)
(0.618577 126.92 1.06886e-17)
(0.353252 127.125 1.77656e-17)
(0.0908858 127.195 -1.77599e-18)
(-1.86431 154.57 -3.60676e-18)
(-2.449 153.145 -3.6136e-18)
(-2.49799 153.912 0)
(0.350319 126.81 0)
(0.612195 126.605 -1.42788e-17)
(-1.75976 152.284 -7.24904e-18)
(-1.6484 148.709 9.0975e-19)
(-1.6706 149.398 1.81994e-18)
(-1.60098 147.366 0)
(-1.62502 148.031 1.81673e-18)
(-1.55162 146.07 0)
(-1.57642 146.713 0)
(-1.50213 144.818 -7.92294e-19)
(-1.52688 145.439 0)
(-1.45364 143.607 -9.04324e-19)
(-1.47766 144.207 1.80952e-18)
(-1.40804 142.434 2.71411e-18)
(-1.43036 143.016 1.15538e-23)
(-1.36823 141.296 3.61651e-18)
(-1.38754 141.861 9.04508e-19)
(-1.33001 140.195 0)
(-1.3495 140.74 -7.22431e-18)
(-1.28627 139.138 -3.60878e-18)
(-1.30807 139.662 0)
(-1.23742 138.124 3.61667e-18)
(-1.2619 138.626 0)
(-1.18974 137.144 9.04153e-19)
(-1.21288 137.63 1.80912e-18)
(-1.14657 136.193 0)
(-1.16752 136.665 1.80865e-18)
(-1.10705 135.271 0)
(-1.12661 135.728 0)
(-1.06885 134.379 -7.07054e-21)
(-1.08775 134.821 0)
(-1.03186 133.517 -9.0437e-19)
(-1.05027 133.944 8.92443e-19)
(-0.995819 132.683 -9.60683e-19)
(-1.01369 133.097 9.04586e-19)
(-0.961018 131.877 0)
(-0.978277 132.277 -5.64798e-20)
(-0.928377 131.095 0)
(-0.944369 131.483 -9.02966e-19)
(-0.899498 130.334 3.59697e-18)
(-0.913518 130.712 -9.0144e-19)
(-0.872588 129.594 -8.94223e-19)
(-0.886194 129.961 1.79671e-18)
(-0.839912 128.883 -8.86474e-18)
(-0.857239 129.235 0)
(-0.799537 128.201 7.0106e-18)
(-0.820275 128.539 8.81338e-18)
(6.93471 91.3488 -3.05329e-18)
(-0.778364 127.868 3.48863e-18)
(-0.593571 155.321 7.21938e-18)
(0.042577 155.416 0)
(-1.2297 155.039 3.60958e-18)
(0.869335 126.26 -1.43052e-17)
(0.890136 126.896 -1.0694e-17)
(0.880031 126.575 2.85157e-17)
(0.908396 127.556 -1.06641e-17)
(0.898942 127.223 0)
(0.929406 128.235 1.77466e-18)
(0.918463 127.893 7.08629e-18)
(0.954573 128.93 1.78703e-18)
(0.941677 128.581 -1.77283e-18)
(0.983715 129.639 3.37066e-18)
(0.968868 129.282 -5.36998e-18)
(1.01441 130.368 2.70574e-18)
(0.998911 130.001 -2.69226e-18)
(1.04638 131.12 4.51155e-19)
(1.03022 130.74 0)
(1.0791 131.898 -1.35575e-18)
(1.06272 131.505 9.02554e-19)
(1.11232 132.703 9.61322e-19)
(1.09557 132.297 -9.03849e-19)
(1.14616 133.537 -9.04947e-19)
(1.12922 133.116 9.60642e-19)
(1.18095 134.399 -8.77155e-19)
(1.16345 133.964 9.18927e-19)
(1.21672 135.291 9.04886e-19)
(1.19868 134.841 -1.41332e-20)
(1.25335 136.214 6.78807e-19)
(1.23498 135.748 -1.92219e-18)
(1.2908 137.169 2.26062e-19)
(1.27201 136.687 0)
(1.32836 138.159 0)
(1.30956 137.66 -9.04003e-19)
(1.36686 139.181 0)
(1.34743 138.666 4.51544e-19)
(1.40776 140.237 -1.0156e-18)
(1.38694 139.705 0)
(1.45141 141.328 4.51619e-19)
(1.42924 140.778 3.10205e-22)
(1.49716 142.457 4.52266e-19)
(1.4743 141.887 -1.80827e-18)
(1.54364 143.626 -4.72961e-24)
(1.52035 143.036 9.04075e-19)
(1.59057 144.836 4.52538e-19)
(1.56705 144.226 -4.52061e-19)
(1.63865 146.088 -4.52293e-19)
(1.61447 145.457 0)
(1.68837 147.383 -6.78544e-19)
(1.66326 146.73 7.92163e-19)
(1.74 148.722 -1.81277e-18)
(1.71367 148.047 2.26287e-18)
(1.79457 150.107 -4.11202e-22)
(1.76684 149.409 9.06232e-19)
(1.85077 151.542 -6.80058e-19)
(1.82251 150.818 -8.47085e-22)
(1.90437 153.034 -2.40337e-23)
(1.8779 152.281 0)
(1.95692 154.58 -2.25727e-19)
(1.93061 153.8 2.25709e-19)
(0.605338 126.296 0)
(0.858289 125.951 -1.07724e-17)
(-0.449074 127.248 0)
(-2.40293 152.39 -1.81462e-18)
(-0.175311 127.132 1.85854e-18)
(-1.90236 155.358 7.21214e-18)
(-2.54687 154.695 -3.60445e-18)
(-3.07121 152.304 7.23652e-18)
(-3.1295 153.064 7.21516e-18)
(2.59416 153.923 4.51279e-19)
(1.98416 155.373 0)
(2.63175 154.713 -1.35385e-18)
(0.0918618 126.881 -7.07141e-18)
(0.348944 126.502 0)
(0.596766 125.995 0)
(-2.27092 149.462 2.73227e-18)
(-2.29955 150.178 9.10517e-19)
(-2.32987 150.905 0)
(0.84687 125.65 1.43761e-17)
(-0.985889 126.403 3.49709e-18)
(-0.719452 126.901 -6.99183e-18)
(-2.3641 151.642 0)
(-2.21071 148.071 0)
(-2.24111 148.76 0)
(-2.14661 146.731 4.53989e-19)
(-2.17879 147.395 0)
(-2.0806 145.439 -4.53449e-19)
(-2.11374 146.079 -4.53266e-19)
(-2.01488 144.191 -5.65922e-19)
(-2.04771 144.81 9.06198e-19)
(-1.95036 142.985 0)
(-1.98231 143.583 0)
(-1.88946 141.817 -4.52269e-19)
(-1.9193 142.397 1.70861e-22)
(-1.83485 140.68 4.52239e-19)
(-1.8615 141.244 -4.52481e-19)
(-1.78249 139.58 -1.35451e-18)
(-1.80905 140.125 3.61763e-18)
(-1.7242 138.529 1.81063e-18)
(-1.75371 139.049 -4.51475e-19)
(-1.66118 137.523 9.04955e-19)
(-1.69312 138.02 -4.52498e-19)
(-1.59925 136.552 -1.81196e-18)
(-1.62954 137.034 3.16854e-18)
(-1.54325 135.607 9.05702e-19)
(-1.57056 136.076 -4.52998e-19)
(-1.491 134.691 -4.52564e-19)
(-1.51685 135.145 9.06322e-19)
(-1.44043 133.805 0)
(-1.46557 134.244 -4.52676e-19)
(-1.39126 132.948 -2.32176e-22)
(-1.41566 133.373 -4.38614e-19)
(-1.34358 132.12 0)
(-1.36725 132.531 4.52428e-19)
(-1.29734 131.32 -1.1304e-18)
(-1.32024 131.717 3.95829e-19)
(-1.25367 130.543 2.25622e-18)
(-1.27511 130.929 1.35539e-18)
(-1.2144 129.784 -4.04854e-18)
(-1.23346 130.161 -4.05409e-18)
(-1.17683 129.047 8.96323e-19)
(-1.19576 129.412 4.49596e-19)
(-1.13318 128.344 2.22588e-19)
(-1.15604 128.691 8.94291e-19)
(-1.08337 127.675 7.04516e-18)
(-1.10894 128.006 6.86262e-18)
(4.26509 39.8039 0)
(-1.05764 127.351 0)
(0.43605 45.1891 5.88527e-17)
(0.685983 156.122 2.4798e-18)
(1.33551 155.842 -9.01695e-19)
(-0.609494 156.116 -3.61218e-18)
(0.0373098 156.213 -3.60637e-18)
(-1.25712 155.831 1.89488e-21)
(1.08999 125.163 -1.44039e-17)
(1.12037 125.768 -5.27877e-21)
(1.10513 125.462 1.07646e-17)
(1.14976 126.398 -3.57031e-18)
(1.13502 126.08 -1.43284e-17)
(1.18007 127.05 3.56839e-18)
(1.16494 126.721 -7.13721e-18)
(1.21322 127.719 5.35251e-18)
(1.19595 127.383 0)
(1.24996 128.406 0)
(1.23093 128.061 -3.55696e-18)
(1.28852 129.109 -3.95808e-24)
(1.26889 128.755 -4.19776e-20)
(1.32986 129.83 1.80513e-18)
(1.30895 129.467 -2.24994e-18)
(1.37212 130.576 -9.03173e-19)
(1.35079 130.2 0)
(1.4157 131.348 7.9157e-19)
(1.39393 130.959 9.03588e-19)
(1.46006 132.148 0)
(1.4378 131.744 -9.04982e-19)
(1.50572 132.975 0)
(1.48277 132.558 1.13106e-19)
(1.5525 133.831 -9.33915e-19)
(1.5289 133.399 -1.41492e-20)
(1.60068 134.718 -4.52729e-19)
(1.57646 134.27 9.19707e-19)
(1.65018 135.635 2.26382e-19)
(1.62529 135.172 5.65918e-19)
(1.70088 136.585 5.54925e-24)
(1.67539 136.106 -1.13132e-19)
(1.75232 137.568 2.2611e-19)
(1.7265 137.072 4.52471e-19)
(1.80547 138.585 0)
(1.77867 138.072 -9.0442e-19)
(1.86055 139.636 -2.82759e-19)
(1.83278 139.106 3.38857e-19)
(1.91864 140.722 2.26134e-19)
(1.88933 140.175 -2.26129e-19)
(1.97875 141.846 -4.52597e-19)
(1.94844 141.279 0)
(2.04041 143.009 -4.52716e-19)
(2.00937 142.422 -1.61847e-22)
(2.10336 144.214 8.48954e-19)
(2.07178 143.607 -3.39306e-19)
(2.1678 145.461 2.26459e-19)
(2.1353 144.832 -6.79074e-19)
(2.23414 146.752 -2.26398e-19)
(2.20067 146.101 -1.13185e-19)
(2.30276 148.086 9.06316e-19)
(2.26799 147.413 -4.52529e-19)
(2.37445 149.467 0)
(2.33834 148.77 -9.06284e-19)
(2.44832 150.897 -2.2657e-19)
(2.41108 150.175 0)
(2.52094 152.383 4.52398e-19)
(2.48466 151.633 0)
(2.55744 153.146 -4.51958e-19)
(0.835519 125.355 -8.99542e-18)
(1.07468 124.87 1.44121e-17)
(-0.438454 126.93 -2.61861e-18)
(-3.01649 151.555 -1.8101e-18)
(-2.88676 149.35 4.55192e-18)
(-2.92653 150.075 -9.09019e-19)
(-2.84894 148.635 0)
(-3.1889 153.841 0)
(2.01243 156.178 -4.5092e-19)
(2.67027 155.515 1.35333e-18)
(-1.25147 125.743 7.01013e-18)
(-0.964783 126.094 -1.4032e-17)
(-1.2264 125.44 0)
(-0.1674 126.819 -3.52243e-18)
(0.0937817 126.574 7.18804e-18)
(0.345465 126.202 3.57773e-18)
(0.589736 125.698 -1.4301e-17)
(0.823631 125.064 1.25978e-17)
(1.05931 124.581 0)
(-0.703255 126.588 1.04977e-17)
(-2.96852 150.811 -1.81553e-18)
(-2.77153 147.245 -3.18345e-18)
(-2.81054 147.933 0)
(-2.69053 145.908 -2.26865e-19)
(-2.73117 146.57 -2.26921e-19)
(-2.60718 144.621 3.66237e-22)
(-2.64854 145.259 4.54208e-19)
(-2.52529 143.379 -2.26676e-19)
(-2.566 143.995 -4.53488e-19)
(-2.44489 142.179 2.26596e-19)
(-2.48475 142.774 -1.13289e-19)
(-2.36847 141.016 2.26628e-19)
(-2.406 141.593 -2.26412e-19)
(-2.29912 139.882 3.62273e-18)
(-2.33309 140.445 -2.264e-19)
(-2.23264 138.784 3.84726e-18)
(-2.2662 139.327 -2.26282e-19)
(-2.15971 137.739 2.25958e-19)
(-2.19705 138.254 9.04446e-19)
(-2.08215 136.743 -3.62518e-18)
(-2.12137 137.235 -2.26191e-19)
(-2.00631 135.783 0)
(-2.04355 136.26 -3.62408e-18)
(-1.93731 134.845 -4.53186e-19)
(-1.9711 135.31 -6.79857e-19)
(-1.87208 133.935 5.66794e-20)
(-1.90446 134.386 6.81334e-23)
(-1.80907 133.056 0)
(-1.84032 133.492 0)
(-1.74791 132.207 0)
(-1.77826 132.628 2.8323e-20)
(-1.68844 131.385 -4.52758e-19)
(-1.71795 131.793 4.5314e-19)
(-1.63082 130.592 5.15191e-23)
(-1.6594 130.985 2.82996e-19)
(-1.57617 129.821 -2.03257e-18)
(-1.60303 130.204 0)
(-1.52627 129.066 1.12749e-19)
(-1.55076 129.441 3.83761e-18)
(-1.47814 128.333 -1.12214e-19)
(-1.50233 128.695 4.94005e-23)
(-1.4249 127.638 -3.46358e-23)
(-1.45187 127.981 1.79208e-18)
(-1.36453 126.985 -7.06769e-18)
(-1.39467 127.309 -1.77508e-18)
(-1.30552 126.357 -1.32646e-21)
(-1.33429 126.67 0)
(-1.2777 126.05 7.013e-18)
(0.693196 156.931 1.97195e-18)
(1.35314 156.65 -4.50645e-19)
(-0.624471 156.925 -3.60746e-18)
(0.0336171 157.023 2.70449e-18)
(-1.93903 156.161 1.80282e-18)
(-1.28321 156.638 1.8027e-18)
(-3.24748 154.634 3.60203e-18)
(-2.59432 155.494 0)
(1.29076 123.947 -1.44043e-17)
(1.32989 124.522 -1.26365e-17)
(1.31019 124.233 2.70224e-17)
(1.36838 125.12 7.19221e-18)
(1.34931 124.817 -1.07664e-17)
(1.40841 125.739 -1.79209e-18)
(1.38834 125.427 7.17959e-18)
(1.45091 126.381 -5.38066e-18)
(1.42922 126.058 1.07015e-17)
(1.49436 127.04 -3.58031e-18)
(1.47236 126.709 3.5842e-18)
(1.54079 127.717 1.7917e-18)
(1.51706 127.377 -2.68253e-18)
(1.5906 128.411 2.25216e-19)
(1.5655 128.062 -1.26273e-24)
(1.64202 129.126 9.0382e-19)
(1.6162 128.765 -4.50641e-19)
(1.69483 129.864 -4.52687e-19)
(1.66833 129.491 2.2617e-19)
(1.74938 130.628 -1.13229e-19)
(1.72182 130.243 0)
(1.80509 131.42 1.41596e-18)
(1.77707 131.021 -3.96241e-19)
(1.86239 132.24 4.53194e-19)
(1.83353 131.827 -9.6236e-19)
(1.9212 133.09 1.41648e-20)
(1.8916 132.661 -4.53452e-19)
(1.9818 133.969 -4.67301e-19)
(1.95125 133.525 0)
(2.04409 134.879 0)
(2.01275 134.42 4.53236e-19)
(2.1081 135.822 -2.26523e-19)
(2.07585 135.347 -3.44378e-24)
(2.17352 136.799 7.44004e-23)
(2.14066 136.306 -2.26498e-19)
(2.24102 137.809 2.26301e-19)
(2.20703 137.299 4.52815e-19)
(2.3106 138.854 8.48999e-19)
(2.27558 138.327 -5.65838e-19)
(2.3829 139.934 6.79346e-19)
(2.34653 139.389 -2.26489e-19)
(2.45781 141.051 -2.26433e-19)
(2.42013 140.488 -4.53095e-19)
(2.53492 142.209 -2.2665e-19)
(2.49618 141.625 6.79375e-19)
(2.61378 143.407 1.13286e-19)
(2.57406 142.803 4.1961e-24)
(2.6946 144.648 0)
(2.65391 144.022 0)
(2.77793 145.932 0)
(2.7359 145.285 0)
(2.86378 147.262 -6.7996e-19)
(2.82039 146.592 1.13262e-19)
(2.95277 148.637 2.267e-19)
(2.90796 147.943 0)
(3.04412 150.062 0)
(2.9982 149.343 -2.2668e-19)
(3.1362 151.541 3.39393e-19)
(3.09009 150.794 5.6577e-20)
(3.22987 153.073 -4.51768e-19)
(3.1828 152.3 4.52289e-19)
(3.32645 154.66 -4.51455e-19)
(3.27769 153.86 9.03866e-19)
(1.04387 124.298 1.26298e-17)
(1.27174 123.667 0)
(-1.20171 125.14 1.39541e-17)
(-0.944842 125.79 6.96669e-18)
(-0.427394 126.621 -1.75408e-18)
(-3.69362 151.27 0)
(-3.76159 152.024 -3.61044e-18)
(-3.62887 150.527 1.81469e-18)
(-0.161705 126.513 1.072e-17)
(-3.30432 155.445 0)
(-3.89883 153.581 -3.60066e-18)
(-3.96635 154.388 0)
(3.98078 153.611 3.38935e-19)
(3.37606 155.473 1.01603e-18)
(4.04072 154.421 -4.52393e-19)
(-1.45527 124.315 0)
(-1.17923 124.836 -6.93508e-18)
(-1.42803 124.013 -1.38826e-17)
(0.0937326 126.273 -1.41761e-17)
(0.342949 125.904 7.13866e-18)
(0.583342 125.406 1.62002e-17)
(0.811164 124.78 1.80466e-18)
(1.02845 124.02 -2.88759e-17)
(-3.52083 149.053 -1.82157e-18)
(-3.47121 148.33 -2.73683e-18)
(-3.42452 147.616 1.82495e-18)
(1.25282 123.392 0)
(-0.687751 126.28 8.71166e-19)
(-3.83023 152.794 -7.21209e-18)
(-3.5718 149.787 0)
(-3.32975 146.228 3.64394e-18)
(-3.37733 146.915 9.11903e-19)
(-3.2315 144.895 -9.09041e-19)
(-3.28086 145.555 0)
(-3.13173 143.614 -3.40483e-19)
(-3.18128 144.249 2.27208e-19)
(-3.03337 142.378 2.26868e-19)
(-3.08226 142.991 1.13464e-19)
(-2.93686 141.184 1.13353e-19)
(-2.98473 141.776 1.13361e-19)
(-2.84488 140.027 1.81388e-18)
(-2.89016 140.602 0)
(-2.7606 138.896 -3.56936e-18)
(-2.80197 139.458 0)
(-2.6799 137.799 1.13341e-19)
(-2.72062 138.341 -5.6614e-20)
(-2.59326 136.759 1.69763e-18)
(-2.63689 137.273 -1.01831e-18)
(-2.50004 135.779 3.62934e-18)
(-2.54683 136.264 3.73855e-18)
(-2.41037 134.829 1.13459e-19)
(-2.45442 135.301 0)
(-2.32821 133.899 4.53937e-19)
(-2.36868 134.361 7.94031e-19)
(-2.25027 132.997 1.70113e-19)
(-2.28892 133.444 -4.53877e-19)
(-2.17476 132.126 -2.26936e-19)
(-2.21225 132.558 0)
(-2.10135 131.284 0)
(-2.1378 131.701 1.9845e-19)
(-2.03003 130.47 0)
(-2.06544 130.874 -3.54293e-21)
(-1.961 129.684 3.39828e-19)
(-1.9952 130.074 1.13347e-19)
(-1.89516 128.92 1.80584e-18)
(-1.92762 129.3 9.09302e-19)
(-1.83432 128.17 0)
(-1.86421 128.543 0)
(-1.77602 127.441 1.79229e-18)
(-1.80539 127.802 0)
(-1.71205 126.757 3.57583e-18)
(-1.74441 127.095 8.9732e-19)
(-1.64252 126.12 0)
(-1.67736 126.436 -3.56487e-18)
(-1.57478 125.507 -7.06682e-18)
(-1.60776 125.813 0)
(-1.51212 124.908 1.05841e-17)
(-1.54225 125.207 -2.1162e-17)
(-1.48351 124.611 0)
(2.0413 156.997 0)
(2.70958 156.332 -1.01559e-18)
(0.701795 157.753 5.07129e-19)
(1.37168 157.471 -1.35108e-18)
(-0.638122 157.747 0)
(0.0312939 157.845 -9.02943e-19)
(-1.97448 156.98 -3.60229e-18)
(-1.30689 157.459 0)
(-2.64059 156.309 0)
(1.47291 122.606 -2.90487e-17)
(1.51841 123.15 -1.80492e-18)
(1.49547 122.875 1.4476e-17)
(1.56613 123.715 -1.80915e-18)
(1.54189 123.431 1.8016e-18)
(1.61469 124.302 7.2186e-18)
(1.58999 124.007 -3.59917e-18)
(1.66593 124.91 1.79872e-18)
(1.63979 124.604 -7.19173e-18)
(1.71803 125.542 1.79825e-18)
(1.69175 125.225 -5.36901e-18)
(1.7721 126.188 -3.59081e-18)
(1.74473 125.863 0)
(1.829 126.855 -1.79878e-18)
(1.80019 126.519 8.54234e-18)
(1.8886 127.539 -2.25693e-19)
(1.85849 127.194 -1.74522e-18)
(1.95045 128.244 1.35748e-18)
(1.9192 127.889 -4.51882e-19)
(2.01395 128.974 4.53489e-19)
(1.98194 128.606 -1.58506e-18)
(2.07928 129.73 5.13145e-23)
(2.04645 129.349 0)
(2.14657 130.514 -5.10348e-19)
(2.11267 130.118 6.23679e-19)
(2.21558 131.326 0)
(2.18081 130.916 -5.67059e-20)
(2.28666 132.167 -4.68121e-19)
(2.2509 131.743 4.5547e-19)
(2.35972 133.038 2.41106e-19)
(2.32294 132.599 -2.12637e-19)
(2.43501 133.941 0)
(2.39712 133.485 0)
(2.51232 134.876 -2.26848e-19)
(2.4734 134.404 2.83431e-19)
(2.59156 135.844 -1.1341e-19)
(2.55168 135.356 -2.26808e-19)
(2.67335 136.847 -5.66922e-20)
(2.63216 136.341 -5.20046e-23)
(2.75748 137.884 1.50527e-22)
(2.71515 137.361 -2.2661e-19)
(2.84445 138.958 -2.26802e-19)
(2.80058 138.417 5.10077e-19)
(2.93431 140.069 3.39978e-19)
(2.88904 139.509 1.13338e-19)
(3.02671 141.219 1.13385e-19)
(2.98015 140.639 -3.40227e-19)
(3.12162 142.411 -2.83435e-19)
(3.07388 141.81 -4.12407e-23)
(3.21923 143.645 2.268e-19)
(3.1701 143.023 -1.69965e-19)
(3.31937 144.923 -2.83417e-20)
(3.26895 144.279 0)
(3.42245 146.246 2.83498e-19)
(3.37048 145.579 -2.26654e-19)
(3.529 147.615 -4.53543e-19)
(3.47541 146.925 0)
(3.6383 149.034 1.13292e-19)
(3.5835 148.318 4.53701e-19)
(3.74989 150.506 -1.13187e-19)
(3.69398 149.763 -5.67047e-20)
(3.86365 152.031 4.52666e-19)
(3.80647 151.262 -1.13006e-19)
(3.92172 152.814 0)
(1.23344 123.123 0)
(1.45026 122.343 2.90462e-17)
(-0.928144 125.485 6.94852e-18)
(-0.41858 126.315 1.64807e-18)
(-4.314 150.044 1.80979e-18)
(-4.39132 150.792 -1.80882e-18)
(-4.24002 149.306 0)
(-4.05478 147.117 9.12181e-19)
(-4.11356 147.838 -2.73445e-18)
(-3.99864 146.404 2.26464e-22)
(-4.5489 152.336 1.79379e-21)
(-4.62702 153.138 0)
(3.42647 156.301 4.78938e-19)
(4.10162 155.245 -2.82528e-20)
(-1.40298 123.696 1.36042e-17)
(-1.16103 124.521 -6.80864e-18)
(-0.157469 126.212 -3.519e-18)
(0.0963663 125.977 1.0685e-17)
(0.340469 125.613 -1.44199e-17)
(0.57555 125.124 0)