/*--------------------------------*- C++ -*----------------------------------*\
| =========                 |                                                 |
| \\      /  F ield         | OpenFOAM: The Open Source CFD Toolbox           |
|  \\    /   O peration     | Version:  2212                                  |
|   \\  /    A nd           | Website:  www.openfoam.com                      |
|    \\/     M anipulation  |                                                 |
\*---------------------------------------------------------------------------*/
FoamFile
{
    version     2.0;
    format      ascii;
    arch        "LSB;label=32;scalar=64";
    class       volScalarField;
    location    "0.0824";
    object      alphat;
}
// * * * * * * * * * * * * * * * * * * * * * * * * * * * * * * * * * * * * * //

dimensions      [1 -1 -1 0 0 0 0];

internalField   nonuniform List<scalar> 
31661
(
0.00100566
0.00010267
0.000108406
0.000105015
0.000102481
0.000107086
0.000104262
0.000102467
0.000106132
0.000103758
0.000125919
0.000125667
0.000340768
0.00102627
0.00127269
0.00136389
0.00122859
0.00129971
8.52447e-05
0.00137857
2.3357e-05
2.39425e-05
8.19561e-05
0.00115782
0.000106473
2.22131e-05
6.45241e-05
8.05165e-05
0.000129401
0.000156292
0.00120376
3.26689e-05
3.24973e-05
9.01221e-05
0.00010454
0.00127473
3.02906e-05
0.00128305
0.00034458
2.99532e-05
2.95672e-05
0.000102047
0.00121171
0.00029485
0.000305877
0.000139202
0.000299323
0.000115185
3.18598e-05
0.000897198
2.61635e-05
0.000735965
0.000146259
9.76133e-05
0.000347574
9.62083e-05
0.000141325
0.000168096
0.000304174
0.000111395
0.000129491
0.000120898
0.000254192
9.54015e-05
4.83839e-05
0.000557004
0.000193747
0.000266399
0.000236114
0.000207363
0.000116727
0.000176174
0.000154645
0.000140374
0.000127195
0.000117363
0.000108973
0.000102654
9.74585e-05
9.35393e-05
9.04034e-05
8.80742e-05
8.62793e-05
8.49965e-05
8.54606e-05
8.68444e-05
8.87455e-05
9.12216e-05
9.44853e-05
9.85882e-05
0.000103889
0.00011039
0.0001187
0.000128662
0.000141174
0.000155713
0.00017254
0.00019117
0.000211333
0.000235684
0.000262489
0.000290469
0.000318296
0.00035014
0.000347182
0.000384208
0.000378132
0.000416491
0.000408697
0.000446161
0.000437481
0.000472675
0.00046383
0.000495801
0.00048735
0.000515569
0.000507878
0.000532237
0.000525504
0.000546185
0.000540471
0.00055784
0.000553103
0.000567629
0.000563765
0.000575953
0.000572831
0.000583156
0.000580635
0.000589529
0.000587483
0.000595316
0.000593635
0.000600716
0.000599308
0.000605896
0.000604691
0.000611019
0.000609952
0.000616215
0.000615246
0.000621615
0.000620715
0.000627352
0.000626499
0.000633577
0.000632766
0.000640496
0.000639707
0.000648435
0.000647645
0.00065803
0.000657244
0.000670576
0.000669806
0.000689043
0.000688266
0.000719077
0.00071849
0.000774594
0.000774015
0.000893168
0.000892491
0.00113476
0.00113346
0.00150267
0.00150109
0.00185154
0.00184956
0.00206179
0.0020643
0.00205947
0.00184482
0.00149527
0.00112971
0.00089105
0.000773718
0.000718572
0.000688601
0.000670188
0.00065763
0.000648014
0.000640046
0.000633085
0.000626819
0.000621036
0.000615588
0.000610335
0.000605142
0.000599861
0.000594346
0.000588407
0.000581834
0.000574376
0.00056573
0.00055554
0.000543408
0.000528909
0.000511626
0.000491216
0.000467446
0.0004403
0.000409983
0.000376816
0.000341083
0.000305401
0.000268693
0.000235174
0.000204824
0.000180141
0.000159658
0.000143324
0.000129827
0.00011919
0.000110511
0.000103783
9.83993e-05
8.44592e-05
8.4074e-05
9.42728e-05
9.10332e-05
8.85951e-05
8.67234e-05
8.53608e-05
8.35362e-05
8.38458e-05
8.47743e-05
8.56069e-05
8.68428e-05
8.85126e-05
9.0725e-05
9.35889e-05
9.72713e-05
0.000101901
0.000107709
0.000114832
0.000123528
0.000133951
0.000146261
0.000160462
0.000176638
0.000194418
0.000213645
0.000234799
0.000257657
0.000281502
0.000306297
0.000333022
0.000360725
0.000388621
0.000415923
0.000442019
0.00046635
0.00048854
0.000508322
0.000525642
0.000540588
0.00055338
0.000564294
0.000573636
0.000581729
0.000588853
0.000595268
0.000601211
0.000606887
0.000612486
0.000618181
0.000624136
0.00063053
0.00063758
0.000645607
0.000655262
0.000667832
0.000686268
0.000716145
0.000770982
0.000887599
0.00112548
0.00149023
0.00183844
0.0020511
0.00214079
0.00215116
0.00215438
0.00215093
0.00214094
0.00204749
0.00182994
0.00147976
0.00111881
0.000885562
0.000770924
0.000716656
0.000686943
0.000668627
0.00065609
0.000646414
0.000638357
0.000631286
0.000624893
0.00061896
0.00061333
0.000607843
0.000602342
0.000596661
0.000590613
0.00058398
0.000576515
0.00056793
0.000557901
0.000546077
0.000532108
0.000515663
0.000496485
0.000474454
0.000449628
0.000422267
0.000392821
0.000361919
0.000330277
0.000298684
0.000266515
0.000237067
0.000210266
0.000186979
0.000166877
0.000150157
0.000136046
0.000124509
0.000115083
0.00010754
0.000101552
9.68728e-05
9.32231e-05
8.43795e-05
9.04043e-05
8.82366e-05
8.66084e-05
8.41828e-05
8.34703e-05
8.37857e-05
8.32151e-05
8.39468e-05
8.50558e-05
8.55123e-05
8.63698e-05
8.75807e-05
8.92204e-05
9.13709e-05
9.41459e-05
9.76673e-05
0.000102105
0.000107589
0.000114306
0.000122359
0.000131857
0.00014279
0.000155193
0.000168913
0.000183941
0.000199746
0.000216266
0.000233731
0.00025207
0.00027122
0.000291297
0.000313151
0.000336371
0.000360569
0.000385392
0.000410333
0.000434957
0.000458612
0.000480792
0.000501058
0.000519192
0.00053513
0.000548937
0.000560827
0.000571069
0.00057994
0.000587728
0.00059475
0.000601252
0.000607479
0.000613648
0.000619971
0.000626638
0.000633922
0.000642127
0.000651896
0.00066448
0.000682717
0.000712144
0.000765747
0.000879008
0.00111037
0.00146943
0.00181757
0.00203229
0.00212324
0.00214351
0.00216074
0.00217115
0.0021749
0.00217222
0.00216324
0.00214763
0.00212397
0.0020278
0.00180641
0.00145587
0.00110223
0.000876913
0.000766255
0.000713296
0.000684047
0.000665911
0.000653337
0.000643537
0.000635308
0.00062803
0.000621385
0.000615158
0.000609148
0.000603173
0.000597038
0.000590529
0.000583408
0.000575407
0.000566229
0.00055556
0.000543082
0.000528506
0.000511622
0.000492313
0.000470648
0.000446868
0.000421401
0.000394769
0.000367589
0.000340449
0.000313794
0.000287617
0.000261835
0.000237855
0.000215331
0.000195003
0.000176468
0.000160131
0.000145742
0.000133408
0.000122913
0.00011429
0.000107299
0.000101722
9.72762e-05
9.37773e-05
8.54201e-05
9.10481e-05
8.89507e-05
8.32935e-05
8.47267e-05
8.37714e-05
8.462e-05
8.34283e-05
8.30668e-05
8.45647e-05
8.57584e-05
8.60906e-05
8.66726e-05
8.75454e-05
8.88289e-05
9.05498e-05
9.2791e-05
9.56586e-05
9.92771e-05
0.000103788
0.00010933
0.000116011
0.000123903
0.000133028
0.000143295
0.000154579
0.00016672
0.000179438
0.000192621
0.000205807
0.000219082
0.000232606
0.000246426
0.000260784
0.000275941
0.00029255
0.000310677
0.000330305
0.000351392
0.00037375
0.000397033
0.000420729
0.000444235
0.000466882
0.000488126
0.000507585
0.000525016
0.000540357
0.000553709
0.000565264
0.0005753
0.000584132
0.00059208
0.000599437
0.000606482
0.000613482
0.00062069
0.000628384
0.000636917
0.000646904
0.000659541
0.000677532
0.000706268
0.000758039
0.000866307
0.00108807
0.00143855
0.00178649
0.00200457
0.00209781
0.00211871
0.00210499
0.00213037
0.00214806
0.00215877
0.00216272
0.00216007
0.00215094
0.00213502
0.00211158
0.00212459
0.0020993
0.00199949
0.00177343
0.00142308
0.00107968
0.000864924
0.000759447
0.00070827
0.000679706
0.000661798
0.00064916
0.000639154
0.000630632
0.000622989
0.000615915
0.000609141
0.00060244
0.000595579
0.000588309
0.000580356
0.000571424
0.000561199
0.000549372
0.000535657
0.000519846
0.000501829
0.000481655
0.000459567
0.000436019
0.000411557
0.000386864
0.000362498
0.000338971
0.00031662
0.000295493
0.000275352
0.000255972
0.000237781
0.000220195
0.000203415
0.000187339
0.000172306
0.000158296
0.000145523
0.000134111
0.00012431
0.000116024
0.000109128
0.00010348
9.89395e-05
9.53529e-05
8.73601e-05
9.25165e-05
8.32325e-05
8.38505e-05
8.61966e-05
8.55469e-05
8.46671e-05
8.41225e-05
8.32545e-05
8.30647e-05
8.56426e-05
8.66947e-05
8.69441e-05
8.73887e-05
8.79972e-05
8.90312e-05
9.04539e-05
9.23387e-05
9.47756e-05
9.78661e-05
0.000101735
0.000106511
0.000112306
0.0001192
0.00012721
0.000136286
0.000146278
0.000156954
0.000168046
0.000179291
0.000190436
0.000201283
0.000211599
0.000221621
0.000231437
0.00024136
0.000251489
0.000262242
0.00027415
0.000287446
0.000302326
0.000318954
0.000337401
0.000357598
0.000379295
0.000402067
0.000425293
0.000448374
0.000470657
0.000491551
0.000510655
0.000527802
0.000542923
0.000556147
0.000567726
0.000577955
0.000587173
0.000595703
0.000603878
0.000612009
0.000620426
0.000629529
0.000639904
0.000652685
0.000670404
0.000698216
0.000747584
0.000849407
0.00105874
0.00139738
0.00174453
0.00196709
0.00206344
0.0020853
0.00207091
0.00204813
0.002083
0.0021091
0.00212737
0.00213844
0.00214262
0.00214006
0.00213079
0.00211455
0.00209068
0.00207973
0.00209317
0.00206594
0.00196165
0.00173006
0.00138128
0.00105112
0.000849293
0.000750163
0.000701283
0.000673633
0.000655992
0.000643226
0.000632887
0.000623884
0.000615643
0.000607825
0.000600112
0.000592232
0.000583884
0.000574761
0.000564536
0.000552884
0.000539508
0.000524193
0.000506792
0.000487355
0.000466093
0.000443398
0.000419851
0.000396174
0.000372976
0.000350864
0.000330235
0.000311297
0.000294039
0.000278279
0.000263677
0.000249877
0.000236803
0.000223897
0.000211096
0.00019811
0.000185215
0.000172418
0.000159966
0.000148205
0.000137463
0.000127833
0.000119414
0.000112259
0.000106381
0.000101571
9.03267e-05
9.76779e-05
0.00205838
9.45923e-05
8.34476e-05
8.86455e-05
8.40617e-05
8.53799e-05
8.48845e-05
8.38577e-05
8.67124e-05
8.58315e-05
8.32105e-05
8.33045e-05
8.68733e-05
8.78762e-05
8.79524e-05
8.83005e-05
8.87443e-05
8.96087e-05
9.07721e-05
9.23859e-05
9.45006e-05
9.72068e-05
0.000100617
0.000104847
0.000110011
0.000116195
0.000123447
0.000131729
0.000140918
0.000150813
0.000161114
0.000171515
0.000181718
0.000191439
0.00020055
0.000208905
0.000216527
0.000223598
0.000230328
0.00023703
0.000243737
0.000251
0.000259129
0.000268373
0.000278981
0.000291206
0.000305259
0.000321286
0.000339315
0.000359223
0.000380705
0.000403304
0.000426417
0.000449353
0.000471487
0.000492255
0.000511294
0.000528419
0.000543628
0.000557096
0.000569084
0.000579932
0.000589993
0.000599639
0.000609256
0.000619252
0.000630319
0.000643431
0.000660925
0.000687629
0.000734079
0.000828242
0.00102256
0.00134593
0.00169093
0.00191876
0.00201906
0.0020422
0.0020271
0.00200349
0.00196642
0.00201212
0.00204803
0.0020751
0.00209413
0.00210569
0.00211016
0.00210768
0.00209825
0.00208159
0.00205716
0.00202428
0.00201675
0.00203848
0.00205234
0.00202268
0.00191337
0.00167567
0.00133015
0.00101664
0.000829794
0.000738041
0.000691986
0.000665438
0.000648062
0.000635044
0.000624147
0.000614369
0.00060518
0.000596135
0.0005869
0.000577135
0.000566489
0.000554614
0.000541198
0.000525981
0.000508803
0.000489702
0.000468833
0.000446571
0.000423508
0.000400243
0.000377477
0.000355863
0.000335841
0.000317718
0.000301551
0.000287281
0.000274724
0.000263578
0.000253511
0.000244159
0.000235205
0.000226258
0.000217019
0.00020745
0.000197235
0.000186444
0.00017525
0.00016396
0.000152921
0.000142354
0.000132604
0.00012399
0.000116532
0.000110141
0.000104892
0.000100602
0.00198214
9.71554e-05
9.21837e-05
8.37137e-05
8.7394e-05
8.44172e-05
8.49605e-05
8.52599e-05
8.37016e-05
8.6195e-05
8.34222e-05
8.79843e-05
8.71946e-05
8.36067e-05
0.00192039
0.00196763
0.00200495
0.00203323
0.00205316
0.00206527
0.00206996
0.00206727
0.00205727
0.00203973
0.00201418
0.00198
0.00193645
0.00192989
0.00196487
0.00198691
0.00200112
0.00196849
0.00185356
0.00160987
0.00126989
0.000976277
0.000806248
0.000722707
0.000679925
0.000654613
0.000637395
0.000623865
0.000612088
0.000601171
0.00059044
0.0005795
0.000567952
0.000555424
0.000541567
0.000526098
0.00050883
0.000489737
0.000468969
0.000446887
0.000424008
0.000400951
0.000378405
0.000357009
0.000337217
0.000319368
0.000303584
0.000289845
0.000278038
0.000267934
0.000259276
0.000251764
0.000245154
0.000239234
0.00023335
0.000227541
0.000221397
0.000214716
0.000207251
0.000198913
0.000189683
0.000179742
0.000169292
0.000158624
0.000148268
0.000138504
0.000129475
0.000121513
0.000114606
0.000108773
0.000103958
9.44173e-05
0.000100064
0.00188279
8.82511e-05
8.91708e-05
8.91054e-05
8.93379e-05
8.9745e-05
9.04027e-05
9.13435e-05
9.27405e-05
9.45963e-05
9.69967e-05
0.00010004
0.000103839
0.000108506
0.00011414
0.000120796
0.000128475
0.000137087
0.000146453
0.000156315
0.000166348
0.000176212
0.000185589
0.000194246
0.000202028
0.000208919
0.000214915
0.000220165
0.000224854
0.000229239
0.000233441
0.000237855
0.000242401
0.000247605
0.000253669
0.000260792
0.000269216
0.00027918
0.00029091
0.000304599
0.000320368
0.000338225
0.000358021
0.000379446
0.000402015
0.000425103
0.000448062
0.000470228
0.000491088
0.000510296
0.000527695
0.000543343
0.000557433
0.000570278
0.000582236
0.000593727
0.000605212
0.000617279
0.000631056
0.000648515
0.000674042
0.00071717
0.000802697
0.000979786
0.00128421
0.00162498
0.00185853
0.00196334
0.00198823
0.00197237
0.00194795
0.00190985
0.00186222
9.03122e-05
8.41582e-05
9.69732e-05
9.23053e-05
8.65613e-05
8.48756e-05
8.46513e-05
8.57258e-05
8.38015e-05
8.66493e-05
8.36975e-05
8.7631e-05
8.40676e-05
8.93454e-05
8.8646e-05
0.00181797
0.00186653
0.00190177
0.00192414
0.00193863
0.00190265
0.00178139
0.00153213
0.00120095
0.000930361
0.000778477
0.000703772
0.000664529
0.000640434
0.000623041
0.000608724
0.000595681
0.000582921
0.000569923
0.000556248
0.000541506
0.000525382
0.000507662
0.000488273
0.000467338
0.000445173
0.000422289
0.000399272
0.000376828
0.000355523
0.000335832
0.000318119
0.000302539
0.000289043
0.00027757
0.000267904
0.000259822
0.000253084
0.00024747
0.000242775
0.000238727
0.000234903
0.000231454
0.000227866
0.000224067
0.00021976
0.000214746
0.000208848
0.000201918
0.000193949
0.000184966
0.000175257
0.000165167
0.000154896
0.000144983
0.000135561
0.00012708
0.000119572
0.000113125
0.000107739
0.00010337
9.0402e-05
9.04578e-05
9.08013e-05
9.13627e-05
9.21067e-05
9.33217e-05
9.49555e-05
9.70999e-05
9.98389e-05
0.000103278
0.000107528
0.000112693
0.000118847
0.000126014
0.000134139
0.00014308
0.000152608
0.000162419
0.00017217
0.00018152
0.000190176
0.000197935
0.000204688
0.000210432
0.000215246
0.000219233
0.000222587
0.000225472
0.000228104
0.000230574
0.000233234
0.000236025
0.000239115
0.000242691
0.00024715
0.000252586
0.000259183
0.000267167
0.000276778
0.000288233
0.000301714
0.000317333
0.000335096
0.000354847
0.000376284
0.000398899
0.000422096
0.000445205
0.000467604
0.000488791
0.000508445
0.00052647
0.000542949
0.000558121
0.000572334
0.000586036
0.000599822
0.000614578
0.000632247
0.0006568
0.000696407
0.000772633
0.000930774
0.00121255
0.00154632
0.0017855
0.00189525
0.00192225
0.00190561
0.00188032
0.00184125
0.00179202
0.00174269
0.00181428
0.00187385
0.00192244
0.00196099
0.00199029
0.002011
0.0020236
0.00202843
0.00202555
0.002015
0.00199662
0.00197001
0.00193458
0.00188971
0.00183464
9.0507e-05
0.00176844
9.45333e-05
9.98278e-05
8.97018e-05
8.89079e-05
8.46577e-05
0.00172022
0.00178744
0.00184358
0.0018895
0.00192587
0.00195334
0.00197238
0.00198334
0.00198637
0.00198144
0.00196847
0.00194717
0.00191709
0.00187763
0.00182804
0.00176746
0.00169496
9.06781e-05
8.60026e-05
8.5434e-05
9.07873e-05
9.17287e-05
9.16966e-05
9.19255e-05
9.24011e-05
9.29991e-05
9.4076e-05
9.55129e-05
9.74319e-05
9.99104e-05
0.00010304
0.000106932
0.000111687
0.000117395
0.000124099
0.000131779
0.00014033
0.000149557
0.000159183
0.000168876
0.000178288
0.000187098
0.00019505
0.000201988
0.000207856
0.000212676
0.000216557
0.000219629
0.000222036
0.000223957
0.000225526
0.00022688
0.000228169
0.000229435
0.000230996
0.000232743
0.000234762
0.000237249
0.000240315
0.000244323
0.000249355
0.000255619
0.000263317
0.000272688
0.000283944
0.000297271
0.000312788
0.000330501
0.000350276
0.000371782
0.00039456
0.000417999
0.000441449
0.000464308
0.0004861
0.000506549
0.000525583
0.000543337
0.000560097
0.000576351
0.000592906
0.000611262
0.000634823
0.000670843
0.000737697
0.000875868
0.00113162
0.00145489
0.00169904
0.00181408
0.00184323
0.0018257
0.00179946
0.00175939
0.00170864
0.00165808
0.00160965
9.70668e-05
9.26564e-05
8.44908e-05
8.62974e-05
8.40128e-05
8.72206e-05
8.41401e-05
8.81755e-05
8.45873e-05
8.91589e-05
9.01649e-05
9.19021e-05
9.11892e-05
9.43518e-05
9.33111e-05
0.00164106
0.00169011
0.001741
0.00179101
0.00182646
0.00184908
0.00186394
0.00182447
0.00169646
0.00144252
0.00112385
0.000879236
0.000746274
0.000680661
0.000644913
0.000621676
0.000604071
0.000588456
0.000573353
0.000558004
0.000541911
0.000524705
0.000506137
0.000486109
0.000464701
0.000442204
0.000419083
0.000395944
0.000373415
0.00035213
0.000332492
0.000314885
0.000299383
0.000286068
0.000274788
0.000265374
0.000257608
0.000251267
0.000246124
0.000241995
0.000238727
0.000236006
0.000233629
0.000231387
0.000229464
0.000227513
0.000225377
0.000222868
0.000219773
0.000215994
0.000211275
0.00020549
0.000198544
0.000190529
0.00018158
0.000171818
0.000161759
0.000151708
0.000142116
0.00013306
0.000124945
0.000117949
0.000112
0.00010704
0.000103081
0.0016735
9.48604e-05
9.98146e-05
0.000196959
0.00159402
8.788e-05
8.52748e-05
0.00174126
0.00179805
0.00184463
0.00188171
0.00190978
0.00192927
0.00194052
0.00194365
0.00193865
0.00192543
0.00190373
0.00187313
0.00183307
0.00178285
0.0017217
0.00164877
0.00156327
8.94961e-05
8.567e-05
8.60707e-05
9.4294e-05
9.3004e-05
9.30959e-05
9.34979e-05
9.40771e-05
9.49539e-05
9.62032e-05
9.79377e-05
0.000100191
0.000103054
0.000106633
0.000111031
0.000116339
0.000122619
0.000129878
0.000138048
0.00014697
0.000156399
0.000166025
0.0001755
0.000184488
0.000192702
0.000199937
0.000206091
0.000211149
0.00021518
0.000218293
0.00022064
0.000222356
0.000223588
0.000224459
0.000225087
0.000225562
0.000225963
0.000226375
0.000226864
0.000227564
0.000228653
0.000229841
0.00023143
0.000233542
0.000236278
0.000239965
0.000244715
0.000250738
0.000258224
0.000267401
0.000278508
0.000291736
0.000307204
0.000324934
0.000344796
0.000366494
0.000389558
0.000413414
0.000437424
0.000461002
0.000483708
0.000505288
0.000525716
0.000545193
0.000564289
0.000584172
0.0006076
0.000640483
0.00069791
0.000815533
0.00104229
0.00135083
0.00159872
0.00171906
0.00175003
0.00173143
0.00170412
0.00166318
0.00161114
0.00155967
0.0015109
0.00146479
9.12377e-05
8.46087e-05
8.69482e-05
9.73106e-05
9.31952e-05
8.43776e-05
8.78656e-05
8.46422e-05
8.88114e-05
8.52193e-05
8.97707e-05
9.07438e-05
9.17186e-05
9.36711e-05
0.00162811
0.00154879
9.61667e-05
9.63013e-05
0.00150231
0.00154928
0.00159886
0.00165087
0.00170221
0.00173793
0.00176113
0.00177619
0.00173336
0.00159855
0.0013415
0.00103957
0.000823203
0.000709346
0.000652523
0.000620229
0.000597787
0.000579058
0.000561337
0.00054345
0.000524778
0.000505002
0.000483986
0.000461794
0.000438683
0.000415103
0.000391626
0.00036888
0.000347433
0.000327777
0.000310173
0.000294774
0.000281543
0.000270445
0.000261213
0.000253668
0.000247557
0.000242723
0.000238932
0.000236068
0.000233823
0.000231979
0.000230512
0.000229272
0.000228349
0.000227487
0.000226641
0.000225657
0.000224418
0.000222797
0.00022064
0.00021776
0.000213986
0.000209156
0.000203171
0.000196015
0.000187664
0.00017851
0.000168804
0.000158739
0.000148779
0.000139477
0.000130895
0.000123263
0.000116661
0.00011118
0.000106585
0.000102943
9.57021e-05
9.45928e-05
9.53367e-05
9.99936e-05
0.000247009
8.72879e-05
8.59437e-05
0.00169596
0.00175302
0.00179999
0.00183743
0.0018658
0.00188558
0.00189699
0.00190019
0.00189514
0.00188177
0.00185985
0.00182898
0.00178861
0.00173811
0.00167679
0.00160387
0.0015187
0.001421
8.86853e-05
8.54582e-05
8.67832e-05
0.000103855
9.43134e-05
9.46506e-05
9.51937e-05
9.58686e-05
9.70421e-05
9.86041e-05
0.000100662
0.000103294
0.000106592
0.000110671
0.00011562
0.000121511
0.000128373
0.000136166
0.00014477
0.000153975
0.000163494
0.000172995
0.000182133
0.0001906
0.000198154
0.00020465
0.000210036
0.000214344
0.000217666
0.000220131
0.000221878
0.000223048
0.000223764
0.000224137
0.00022426
0.000224209
0.000224049
0.000223836
0.000223622
0.000223452
0.000223389
0.000223442
0.000223816
0.000224537
0.00022542
0.000226744
0.000228619
0.000231138
0.000234557
0.000239108
0.000244922
0.000252264
0.000261331
0.000272348
0.000285531
0.000301022
0.000318841
0.000338888
0.000360887
0.000384397
0.000408842
0.00043361
0.000458134
0.000481978
0.00050493
0.000527138
0.000549275
0.000573345
0.000603885
0.000652664
0.000749976
0.000945398
0.00123438
0.00148413
0.0016094
0.00164188
0.001622
0.00159361
0.00155202
0.00149913
0.00144729
0.0013988
0.00135359
0.00131123
9.02753e-05
8.48243e-05
8.76743e-05
9.19493e-05
8.48351e-05
8.85969e-05
9.77089e-05
9.38789e-05
8.52595e-05
8.9531e-05
8.5901e-05
9.04718e-05
9.14104e-05
9.23497e-05
0.00158391
0.00150522
9.32794e-05
9.41885e-05
7.47556e-05
9.50557e-05
0.00145766
0.00135485
0.00139833
0.00144467
0.0014943
0.00154698
0.00159939
0.00163565
0.00165987
0.00167466
0.00162885
0.00148777
0.00122994
0.000949296
0.000762709
0.000667682
0.000619271
0.000589577
0.000566856
0.00054629
0.000525805
0.000504598
0.000482371
0.000459153
0.000435192
0.000410927
0.000386923
0.000363788
0.000342083
0.000322251
0.000304579
0.000289174
0.000276021
0.000265
0.000255909
0.000248487
0.000242585
0.000237965
0.00023447
0.000231835
0.000229855
0.00022831
0.00022733
0.00022642
0.000225941
0.000225678
0.000225539
0.000225454
0.000225354
0.000225178
0.00022484
0.000224243
0.000223272
0.000221796
0.000219646
0.000216662
0.000212667
0.000207539
0.000201164
0.000193649
0.000185116
0.000175685
0.000165787
0.000155942
0.000146222
0.000137183
0.000128918
0.000121827
0.000115659
0.00011054
0.000106327
0.000102996
0.0012337
9.59537e-05
0.000100338
2.28727e-05
0.000138736
8.68471e-05
8.66956e-05
0.00165145
0.00170844
0.00175543
0.00179292
0.00182145
0.00184135
0.00185283
0.00185605
0.00185098
0.00183756
0.00181557
0.0017846
0.00174419
0.00169376
0.00163261
0.00156011
0.0014757
0.00137926
0.00127136
8.81658e-05
8.55597e-05
8.75582e-05
0.000143332
0.000104494
9.57451e-05
9.62578e-05
9.69423e-05
9.79497e-05
9.9346e-05
0.00010125
0.000103691
0.000106761
0.000110552
0.000115183
0.000120721
0.000127212
0.000134642
0.00014292
0.000151872
0.000161242
0.000170715
0.000179952
0.000188628
0.000196477
0.000203315
0.000209053
0.00021369
0.000217292
0.000219974
0.000221868
0.000223111
0.000223831
0.000224139
0.00022413
0.000223881
0.000223455
0.000222905
0.000222271
0.000221598
0.000220924
0.000220274
0.000219681
0.000219181
0.000218817
0.000218624
0.000218756
0.000219274
0.00021998
0.000221135
0.000222867
0.000225272
0.00022852
0.000232895
0.000238608
0.000245828
0.00025485
0.000265856
0.000279047
0.000294614
0.000312603
0.000332914
0.000355296
0.000379331
0.000404451
0.000430041
0.000455538
0.000480592
0.000505283
0.000530694
0.000559912
0.000601313
0.000679278
0.000841795
0.0011059
0.00135511
0.00148486
0.00151843
0.00149726
0.00146801
0.00142639
0.00137338
0.00132201
0.00127467
0.0012312
0.00119106
0.00115377
8.95971e-05
8.51998e-05
8.84663e-05
9.11997e-05
8.53987e-05
8.93916e-05
9.28505e-05
8.593e-05
9.03232e-05
9.82704e-05
9.4703e-05
8.66641e-05
9.12506e-05
9.21725e-05
0.00154084
0.00146315
9.30798e-05
9.39693e-05
9.4842e-05
9.56916e-05
0.0014151
0.00131391
0.00124148
0.0012831
0.00132813
0.00137705
0.00142971
0.00148266
0.00151938
0.00154476
0.00155921
0.00151114
0.00136429
0.00110888
0.000854031
0.000697902
0.000620588
0.000579331
0.00055123
0.000527452
0.000504486
0.000481021
0.000456773
0.000431907
0.000406863
0.000382213
0.000358573
0.000336498
0.000316415
0.000298577
0.000283097
0.000269936
0.000258928
0.000249887
0.000242603
0.000236819
0.000232361
0.000229039
0.00022654
0.000224736
0.000223437
0.000222619
0.000221969
0.000221755
0.000221836
0.000222048
0.000222389
0.00022282
0.000223267
0.000223719
0.000224118
0.000224399
0.000224513
0.00022438
0.000223903
0.000222962
0.000221416
0.000219098
0.000215858
0.000211522
0.000206009
0.000199298
0.000191378
0.000182504
0.000173038
0.000163093
0.0001533
0.000143767
0.000135191
0.000127344
0.000120563
0.000114886
0.000110152
0.000106314
0.000103247
9.682e-05
9.66988e-05
0.000100824
9.65336e-05
0.00120277
8.65815e-05
8.74949e-05
0.00160771
0.00166426
0.00171099
0.00174835
0.00177683
0.00179669
0.00180815
0.00181137
0.00180633
0.00179293
0.00177098
0.00174013
0.00169991
0.0016498
0.00158915
0.00151742
0.00143416
0.00133936
0.00123369
0.00111898
8.78169e-05
8.57488e-05
8.83929e-05
9.72828e-05
9.75022e-05
9.73824e-05
9.78915e-05
9.88138e-05
0.000100098
0.000101906
0.000104207
0.000107091
0.000110656
0.000114992
0.000120216
0.000126362
0.000133445
0.000141398
0.000150077
0.000159258
0.000168649
0.000177923
0.00018675
0.000194844
0.000201992
0.00020807
0.000213044
0.000216956
0.000219899
0.000221998
0.000223387
0.000224193
0.000224533
0.000224504
0.000224187
0.000223647
0.000222938
0.0002221
0.000221169
0.000220175
0.000219146
0.000218107
0.000217086
0.000216107
0.000215199
0.00021438
0.00021368
0.000213147
0.000212797
0.000212795
0.000213199
0.000213877
0.000214958
0.000216644
0.000219041
0.000222271
0.000226545
0.000232148
0.000239338
0.000248278
0.000259322
0.000272593
0.000288239
0.000306387
0.000326942
0.000349653
0.000374097
0.000399718
0.000425913
0.000452289
0.000478998
0.000507646
0.000543197
0.000603453
0.000732361
0.000965858
0.00121186
0.00134638
0.00138133
0.00135914
0.00132956
0.00128874
0.00123661
0.00118677
0.00114164
0.00110087
0.00106378
0.00102979
0.000998475
8.91742e-05
8.567e-05
8.93173e-05
9.06245e-05
8.60367e-05
9.02516e-05
9.75441e-05
9.21716e-05
8.66821e-05
9.11817e-05
9.38223e-05
8.7472e-05
9.21025e-05
0.00149888
0.00142251
9.89406e-05
9.56057e-05
9.30073e-05
9.38964e-05
9.47683e-05
9.56157e-05
9.63933e-05
0.00137445
0.00127516
0.00116657
0.00108422
0.00112005
0.00115912
0.00120193
0.00124913
0.00130072
0.00135338
0.00139033
0.00141672
0.00143072
0.00138092
0.00122872
0.000979228
0.0007546
0.000628731
0.000567337
0.000531641
0.000504134
0.000478876
0.000453709
0.000428186
0.000402565
0.000377397
0.000353311
0.000330877
0.000310521
0.000292503
0.000276922
0.000263678
0.000252629
0.000243632
0.000236392
0.000230716
0.000226377
0.00022309
0.000220635
0.000218891
0.000217687
0.00021694
0.000216454
0.000216378
0.000216652
0.000217087
0.000217684
0.000218378
0.000219179
0.000220001
0.000220869
0.000221729
0.000222541
0.000223277
0.000223895
0.000224356
0.000224584
0.000224501
0.000224
0.000222961
0.000221229
0.000218644
0.000215053
0.000210339
0.0002044
0.000197274
0.000189082
0.000179915
0.000170291
0.000160328
0.000150825
0.000141612
0.000133329
0.00012603
0.000119638
0.000114402
0.000110052
0.000106524
0.00010368
9.75225e-05
9.71246e-05
0.000101435
9.73029e-05
0.00105116
8.6605e-05
8.83562e-05
0.00156478
0.00162061
0.00166681
0.00170379
0.00173202
0.00175175
0.00176316
0.00176637
0.00176135
0.00174804
0.00172626
0.00169567
0.00165585
0.00160628
0.00154642
0.00147576
0.00139399
0.00130114
0.00119802
0.00108643
0.000969531
8.77486e-05
8.61176e-05
8.92791e-05
9.89356e-05
9.94465e-05
0.00010006
0.000101065
0.000102637
0.000104794
0.00010754
0.000110929
0.000115045
0.000119972
0.00012581
0.00013256
0.000140191
0.000148584
0.000157544
0.000166803
0.000176052
0.000184962
0.000193241
0.000200648
0.00020703
0.000212324
0.000216544
0.000219764
0.000222097
0.000223668
0.000224608
0.000225032
0.000225045
0.000224729
0.000224154
0.000223376
0.000222437
0.000221374
0.000220215
0.000218985
0.000217705
0.000216397
0.00021508
0.000213774
0.000212497
0.000211271
0.000210119
0.000209065
0.000208127
0.000207328
0.000206722
0.000206323
0.000206277
0.000206624
0.000207432
0.000208582
0.000210298
0.000212756
0.000216073
0.0002204
0.000225958
0.00023305
0.000241992
0.000252921
0.000266203
0.00028185
0.000299962
0.00032048
0.00034316
0.000367563
0.000393241
0.000419771
0.000447544
0.000478408
0.000523128
0.000618949
0.000815163
0.00105503
0.00119637
0.00123445
0.00121203
0.00118302
0.00114398
0.00109389
0.0010468
0.00100494
0.00096775
0.000934387
0.000904225
0.000876794
0.000851735
8.89545e-05
8.62456e-05
9.02224e-05
9.87534e-05
9.776e-05
9.0265e-05
8.67532e-05
9.11659e-05
9.16955e-05
8.74821e-05
9.21001e-05
0.00145804
0.00138322
9.32347e-05
8.83411e-05
9.48434e-05
9.30176e-05
9.39165e-05
9.97088e-05
9.66024e-05
9.47942e-05
9.56467e-05
9.64543e-05
9.72136e-05
0.00133553
0.00123845
0.00113262
0.00102054
0.000932735
0.000962209
0.000994594
0.00103035
0.00107007
0.00111455
0.00116401
0.00121512
0.00125157
0.00127834
0.00129203
0.00123975
0.00108168
0.000841956
0.000651844
0.00055513
0.000507406
0.000475804
0.000448565
0.000422502
0.000396743
0.000371528
0.000347389
0.000324891
0.000304476
0.00028641
0.00027077
0.000257474
0.000246491
0.000237489
0.000230311
0.000224697
0.000220326
0.000216967
0.000214469
0.000212711
0.000211495
0.000210649
0.000210245
0.000210239
0.000210573
0.00021112
0.000211844
0.000212704
0.000213667
0.000214738
0.000215852
0.000217005
0.000218192
0.000219348
0.000220472
0.000221554
0.000222558
0.000223444
0.000224176
0.000224694
0.000224933
0.000224801
0.000224192
0.000222968
0.000220997
0.000218085
0.000214135
0.000209015
0.000202692
0.000195118
0.000186629
0.00017725
0.000167699
0.00015791
0.000148502
0.000139699
0.00013185
0.000124962
0.000119178
0.000114238
0.000110194
0.000106862
0.000104186
9.83995e-05
9.79812e-05
0.000102069
9.79778e-05
0.000905773
8.67692e-05
8.92601e-05
0.00152271
0.00157757
0.00162301
0.00165945
0.0016873
0.0017068
0.00171807
0.00172121
0.00171624
0.00170307
0.00168157
0.00165138
0.00161212
0.0015633
0.00150446
0.00143517
0.00135514
0.00126451
0.00116413
0.00105582
0.000942629
0.000828716
8.78536e-05
8.65742e-05
9.02145e-05
0.000100745
0.000101488
0.000102451
0.000103786
0.000105634
0.000108088
0.000111276
0.00011519
0.000119926
0.000125491
0.000131951
0.000139275
0.00014738
0.000156095
0.000165183
0.00017435
0.00018328
0.000191674
0.000199276
0.000205915
0.000211493
0.000216002
0.000219493
0.000222065
0.000223837
0.000224935
0.000225474
0.000225564