/*--------------------------------*- C++ -*----------------------------------*\
| =========                 |                                                 |
| \\      /  F ield         | OpenFOAM: The Open Source CFD Toolbox           |
|  \\    /   O peration     | Version:  2212                                  |
|   \\  /    A nd           | Website:  www.openfoam.com                      |
|    \\/     M anipulation  |                                                 |
\*---------------------------------------------------------------------------*/
FoamFile
{
    version     2.0;
    format      ascii;
    arch        "LSB;label=32;scalar=64";
    class       volScalarField;
    location    "0.0015";
    object      T;
}
// * * * * * * * * * * * * * * * * * * * * * * * * * * * * * * * * * * * * * //

dimensions      [0 0 0 1 0 0 0];

internalField   nonuniform List<scalar> 
2308
(
197.848
186.921
232.306
173.139
182.85
178.489
176.555
180.726
184.454
151.968
153.846
156.531
158.436
160.353
162.246
164.104
165.907
167.461
165.763
163.973
162.082
160.144
158.159
156.109
154.062
152.005
149.999
147.976
176.869
167.664
145.87
143.827
141.807
139.801
137.804
135.814
133.825
131.836
129.845
127.854
125.863
123.874
121.885
119.895
117.905
117.905
119.892
121.878
123.867
125.854
127.841
129.829
131.818
133.804
135.792
137.782
139.774
141.776
143.789
145.826
147.91
149.857
151.762
153.587
155.321
157.014
158.782
160.631
162.493
164.341
166.171
115.919
115.911
165.963
163.998
162.024
160.033
158.022
156
153.982
151.932
149.884
147.881
145.852
143.824
141.812
139.81
137.813
135.821
133.827
131.836
129.844
127.852
125.861
123.871
121.881
119.893
117.905
169.13
115.917
169.356
167.974
115.89
117.881
119.869
121.857
123.844
125.832
127.822
129.814
131.799
133.787
135.775
137.763
139.753
141.746
143.747
145.749
147.737
149.684
151.638
153.537
155.393
157.221
159.049
160.901
162.766
164.624
166.47
182.13
177.775
176.107
177.121
168.291
166.169
164.053
162.01
159.982
157.958
155.935
153.912
151.879
149.837
147.834
145.826
143.814
141.808
139.809
137.812
135.819
133.827
131.833
129.84
127.848
125.858
123.866
121.876
119.887
117.901
115.913
113.924
113.929
113.931
113.92
181.848
113.902
183.535
184.273
169.737
186.537
181.466
170.947
168.323
111.936
111.939
111.94
111.927
111.913
111.898
113.885
115.876
117.862
119.851
121.837
123.826
125.815
127.806
129.796
131.785
133.774
135.761
137.75
139.738
141.727
143.717
145.702
147.67
149.611
151.565
153.499
155.441
157.366
159.254
161.139
163.023
164.904
166.77
172.481
200.939
181.341
180.369
178.33
176.365
174.357
172.315
170.249
168.175
166.115
164.046
161.989
159.949
157.919
155.891
153.866
151.838
149.809
147.804
145.804
143.803
141.802
139.806
137.81
135.817
133.823
131.829
129.835
127.845
125.852
123.859
121.87
119.882
117.894
115.906
113.918
111.93
248.542
185.266
203.909
171.166
223.574
185.293
170.171
172.651
111.884
113.873
115.86
117.849
119.835
121.823
123.812
125.803
127.794
129.783
131.773
133.762
135.75
137.738
139.725
141.71
143.691
145.664
147.623
149.569
151.522
153.478
155.452
157.43
159.388
161.327
163.244
165.145
167.041
168.64
187.761
184.378
180.459
178.272
176.24
174.214
172.176
170.128
168.079
166.035
163.99
161.946
159.912
157.883
155.858
153.833
151.808
149.789
147.784
145.786
143.791
141.798
139.802
137.808
135.813
133.819
131.824
129.832
127.839
125.845
123.854
121.865
119.875
117.886
115.898
113.91
111.923
109.935
109.94
109.945
109.947
109.946
109.938
109.925
109.911
109.898
207.077
229.673
271.129
187.008
196.083
271.999
168.92
170.51
189.378
188.898
197.171
179.952
180.222
178.171
176.12
174.083
172.049
170.016
167.983
165.952
163.922
161.892
159.866
157.844
155.824
153.803
151.784
149.771
147.769
145.774
143.783
141.791
139.798
137.803
135.808
133.813
131.82
129.827
127.832
125.84
123.85
121.859
119.867
117.878
115.889
113.902
111.915
109.928
107.94
107.946
107.951
107.951
107.954
107.956
107.946
107.934
107.924
107.913
107.902
109.888
111.875
113.862
115.851
117.837
119.825
121.814
123.804
125.795
127.784
129.773
131.762
133.752
135.739
137.725
139.709
141.691
143.667
145.634
147.592
149.544
151.5
153.467
155.447
157.433
159.438
161.431
163.401
165.34
167.265
189.22
170.771
172.379
174.543
190.843
190.498
188.681
187.018
185.278
182.301
182.146
180.139
178.06
175.996
173.951
171.922
169.899
167.882
165.864
163.847
161.829
159.813
157.799
155.786
153.774
151.763
149.756
147.756
145.764
143.773
141.781
139.788
137.794
135.8
133.806
131.814
129.819
127.826
125.836
123.844
121.851
119.86
117.869
115.881
113.894
111.907
109.92
107.934
105.947
105.952
105.956
105.959
105.962
105.96
105.96
105.953
105.945
105.936
105.927
105.917
105.91
107.896
109.881
111.868
113.856
115.844
117.832
119.82
121.809
123.799
125.787
127.777
129.765
131.753
133.741
135.728
137.712
139.694
141.672
143.645
145.611
147.57
149.526
151.484
153.46
155.439
157.428
159.437
161.457
163.478
165.481
167.444
169.168
190.939
190.748
265.724
171.027
186.383
188.382
190.255
174.077
178.457
174.711
172.582
192.3
192.207
103.959
103.962
103.966
103.968
103.967
103.968
103.965
103.961
103.954
103.947
103.939
103.93
103.922
103.915
105.902
107.89
109.877
111.865
113.853
115.841
117.829
119.817
121.806
123.794
125.782
127.77
129.758
131.745
133.73
135.716
137.699
139.679
141.656
143.627
145.593
147.554
149.513
151.475
153.451
155.433
157.419
159.431
161.448
163.477
165.523
167.559
169.381
182.737
192.563
176.432
230.81
180.062
177.929
175.85
173.808
171.788
169.778
167.774
165.772
163.767
161.762
159.756
157.75
155.746
153.742
151.739
149.739
147.742
145.751
143.759
141.767
139.775
137.782
135.789
133.797
131.803
129.812
127.82
125.828
123.836
121.845
119.852
117.862
115.875
113.886
111.899
109.912
107.927
105.941
103.954
192.322
192.55
245.445
174.319
194.179
172.856
103.908
105.897
107.884
109.873
111.861
113.85
115.838
117.826
119.814
121.802
123.79
125.777
127.764
129.75
131.736
133.72
135.703
137.684
139.663
141.639
143.612
145.579
147.542
149.503
151.468
153.446
155.42
157.412
159.42
161.435
163.462
165.514
167.597
169.566
181.291
194.06
101.964
101.968
101.972
101.975
101.974
101.974
101.974
101.972
101.967
101.962
101.956
101.948
101.94
101.933
101.925
101.918
184.11
193.849
191.692
189.582
187.458
178.574
179.234
185.942
173.828
179.84
177.722
175.666
173.645
171.644
169.653
167.664
165.676
163.685
161.691
159.696
157.7
155.703
153.707
151.711
149.717
147.724
145.733
143.742
141.751
139.76
137.768
135.777
133.785
131.794
129.802
127.811
125.819
123.828
121.837
119.846
117.857
115.866
113.878
111.892
109.907
107.92
105.934
103.947
101.959
242.062
171.273
175.801
193.891
194.306
194.196
179.91
244.899
248.214
177.278
174.697
169.737
177.128
210.256
179.103
239.123
101.913
103.902
105.892
107.881
109.869
111.858
113.846
115.835
117.823
119.811
121.798
123.785
125.772
127.757
129.742
131.726
133.709
135.691
137.67
139.648
141.623
143.596
145.566
147.532
149.495
151.463
153.437
155.413
157.404
159.406
161.417
163.442
165.479
167.528
169.588
182.657
199.244
201.948
99.9696
99.9738
99.9766
99.9801
99.9812
99.9818
99.9824
99.9803
99.9763
99.9731
99.9681
99.9616
99.9554
99.9489
99.9416
99.935
99.9292
99.9229
178.94
195.373
193.032
190.816
188.709
186.693
226.827
199.408
181.367
179.415
177.428
175.442
173.463
171.492
169.524
167.554
165.58
163.603
161.62
159.635
157.648
155.66
153.67
151.681
149.691
147.702
145.713
143.723
141.734
139.744
137.754
135.763
133.773
131.782
129.792
127.801
125.81
123.82
121.829
119.84
117.849
115.86
113.873
111.886
109.899
107.913
105.927
103.94
101.952
99.9637
185.342
171.525
200.336
191.435
193.394
195.416
173.138
195.928
195.852
196.058
239.018
199.822
224.63
174.74
171.266
181.244
245.326
241.857
169.327
167.39
165.401
163.397
161.39
159.389
157.395
155.403
153.429
151.458
149.489
147.521
145.552
143.582
141.609
139.634
137.657
135.679
133.698
131.716
129.734
127.75
125.765
123.779
121.793
119.806
117.819
115.831
113.843
111.854
109.866
107.877
105.888
103.897
101.908
99.9176
238.775
97.9737
97.9785
97.9819
97.9853
97.9881
97.988
97.9886
97.9868
97.9837
97.9809
97.9771
97.9721
97.967
97.9618
97.9556
97.9497
97.9442
97.9379
97.9327
97.927
183.714
171.818
189.527
249.072
248.924
248.971
248.946
248.853
245.141
241.538
238.096
174.593
235.873
197.449
201.657
200.988
192.729
194.774
196.892
174.984
186.496
244.063
196.661
194.259
192.045
190.026
188.212
185.229
186.833
182.658
180.861
179.008
177.119
175.204
173.275
171.339
169.397
167.446
165.488
163.523
161.553
159.577
157.598
155.616
153.633
151.649
149.664
147.678
145.691
143.704
141.716
139.728
137.739
135.75
133.76
131.771
129.781
127.791
125.801
123.811
121.821
119.831
117.842
115.854
113.866
111.879
109.892
107.906
105.919
103.932
101.945
99.9561
97.9672
198.448
196.336
194.233
225.535
195.238
173.453
228.352
193.235
233.386
197.816
197.831
197.49
195.168
196.075
193.975
238.443
197.297
234.359
237.215
203.206
195.817
198.29
241.014
244.852
248.698
169.219
167.273
165.312
163.335
161.349
159.362
157.378
155.396
153.421
151.449
149.478
147.509
145.539
143.568
141.595
139.621
137.645
135.667
133.687
131.706
129.724
127.741
125.757
123.772
121.786
119.8
117.813
115.826
113.838
111.85
109.862
107.872
105.883
103.893
101.903
99.9133
97.9221
189.424
191.15
193.129
195.309
197.684
200.226
220.938
182.083
172.43
190.752
193.115
234.793
235.326
200.638
198.272
173.087
229.824
224.775
183.527
184.701
253.155
239.706
244.611
202.913
95.9775
95.9828
95.9869
95.99
95.9932
95.9937
95.9934
95.9915
95.9892
95.9871
95.9839
95.9801
95.9761
95.972
95.9674
95.9624
95.9577
95.9518
95.9463
95.9411
95.9364
95.9328
253.057
252.886
252.786
252.728
252.676
252.607
236.302
173.855
187.645
192.229
191.422
178.614
231.986
232.219
199.734
228.081
203.537
199.085
229.133
175.356
272.492
252.876
199.586
184.958
183.609
182.066
180.399
178.645
176.833
174.977
173.093
171.191
169.274
167.343
165.401
163.449
161.49
159.523
157.551
155.576
153.598
151.618
149.637
147.654
145.67
143.685
141.698
139.712
137.724
135.736
133.748
131.759
129.77
127.781
125.791
123.802
121.813
119.824
117.835
115.847
113.859
111.871
109.885
107.897
105.911
103.924
101.936
99.9474
97.9593
95.9709
267.589
214.174
272.262
191.951
234.998
199.535
243.671
186.425
180.014
234.328
182.856
182.237
188.698
190.236
191.992
193.961
196.129
198.492
201.043
203.766
205.77
206.643
180.366
192.757
176.828
185.785
172.836
170.98
169.1
167.177
165.232
163.273
161.304
159.33
157.354
155.38
153.407
151.437
149.467
147.497
145.527
143.556
141.583
139.609
137.633
135.656
133.677
131.697
129.715
127.733
125.749
123.765
121.78
119.794
117.808
115.821
113.833
111.845
109.857
107.868
105.879
103.889
101.899
99.909
97.9189
95.9297
240.431
244.484
248.513
252.521
231.767
271.922
193.918
196.224
198.873
210.987
204.638
207.802
171.448
187.316
175.678
174.406
188.825
191.147
189.69
186.005
231.461
231.717
204.858
201.536
173.617
225.236
179.76
220.95
217.18
203.015
200.581
224.977
177.222
180.978
181.546
190.952
218.473
221.431
224.838
186.829
188.035
256.835
256.862
256.811
256.716
256.622
256.552
256.516
256.484
256.456
185.76
175.816
201.343
201.68
228.373
222.478
182.681
184.553
183.148
181.64
180.038
178.349
176.593
174.784
172.937
171.062
169.165
167.251
165.323
163.383
161.433
159.474
157.509
155.539
153.566
151.59
149.612
147.631
145.65
143.666
141.682
139.696
137.71
135.723
133.735
131.747
129.759
127.77
125.782
123.793
121.804
119.816
117.827
115.839
113.851
111.864
109.876
107.89
105.902
103.914
101.927
99.9392
97.9514
95.9635
93.9748
93.9812
93.9867
93.9915
93.9944
93.9962
93.997
93.9964
93.9951
93.9934
93.9915
93.9887
93.9861
93.9832
93.9801
93.9768
93.9729
93.9688
93.964
93.9592
93.9549
93.9503
93.9463
93.9428
93.9396
190.359
228.476
209.644
208.802
206.424
187.486
256.955
247.933
175.653
176.804
189.06
190.746
192.555
194.537
196.707
199.083
201.677
204.487
207.49
210.61
216.501
212.638
213.693
175.043
190.004
187.904
231.488
204.435
172.028
221.359
215.525
213.579
201.917
220.995
179.053
221.536
183.24
208.647
205.277
202.175
199.357
196.789
194.472
192.219
188.353
252.775
183.376
235.777
239.938
244.137
248.303
252.44
256.436
183.823
177.723
272.971
203.656
261.033
260.821
260.699
260.634
260.564
260.486
260.404
260.34
260.301
260.281
260.275
260.275
217.983
224.85
180.504
198.404
175.948
272.434
184.805
185.916
184.38
182.889
181.365
179.787
178.136
176.414
174.64
172.819
170.963
169.08
167.177
165.258
163.327
161.385
159.433
157.473
155.508
153.538
151.565
149.589
147.611
145.631
143.65
141.666
139.682
137.697
135.71
133.724
131.736
129.749
127.761
125.772
123.784
121.796
119.807
117.819
115.831
113.843
111.856
109.868
107.881
105.893
103.906
101.919
99.9312
97.9438
95.9562
93.9678
91.9783
91.9844
91.99
91.9938
91.9968
91.9983
91.9987
91.9983
91.9975
91.9962
91.9946
91.9927
91.9908
91.9887
91.9864
91.984
91.9811
91.978
91.9744
91.9707
91.967
91.9633
91.9595
91.9564
91.9533
91.9498
91.9475
93.9363
95.9261
97.9165
99.9059
101.896
103.885
105.875
107.864
109.852
111.84
113.828
115.815
117.802
119.788
121.773
123.758
125.742
127.725
129.707
131.688
133.668
135.646
137.623
139.598
141.572
143.545
145.516
147.486
149.455
151.424
153.393
155.362
157.33
159.298
161.262
163.22
165.167
167.103
169.026
170.945
172.93
174.787
176.622
178.349
212.207
182.177
184.311
184.809
186.565
180.385
188.729
203.741
218.374
176.374
177.642
189.279
186.939
185.05
188.586
228.036
228.024
208.088
218.186
211.884
209.443
215.924
202.999
205.618
224.67
217.474
213.485
179.564
221.008
204.456
212.613
214.981
206.889
207.566
227.897
186.837
188.138
176.997
215.224
211.757
208.299
205.063
202.108
199.44
197.041
194.87
192.9
191.101
189.417
205.584
184.038
178.2
190.629
192.617
194.787
197.117
199.666
202.513
205.725
209.364
184.571
182.097
229.325
234.185
238.965
243.516
178.471
213.868
185.092
214.375
182.293
221.281
180.925
235.092
239.454
243.796
248.115
252.396
256.522
260.54
183.385
181.996
184.495
182.852
181.256
179.619
178.008
176.347
174.574
172.753
170.868
168.962
167.045
165.116
163.176
161.227
159.27
157.309
155.345
153.379
151.413
149.445
147.476
145.507
143.536
141.563
139.59
137.615
135.638
133.66
131.681
129.7
127.718
125.736
123.752
121.768
119.782
117.797
115.81
113.823
111.836
109.848
107.86
105.871
103.882
101.893
99.9031
97.9133
95.9235
93.9343
91.9459
208.435
205.545
89.9872
89.9917
89.9954
89.9978
89.9993
89.9996
89.9994
89.9988
89.998
89.9969
89.9957
89.9942
89.9927
89.9912
89.9896
89.9878
89.9856
89.9832
89.9806
89.9779
89.9752
89.9722
89.9693
89.9663
89.9639
89.9616
89.9601
89.959
218.578
264.707
264.522
264.419
264.339
264.261
264.187
264.117
264.057
264.015
263.989
263.971
264.033
264.421
252.365
256.545
260.801
264.805
187.218
185.716
184.21
182.712
181.194
179.628
177.997
176.299
174.542
172.735
170.89
169.016
167.121
165.209
163.283
161.346
159.399
157.444
155.482
153.516
151.545
149.571
147.595
145.616
143.635
141.653
139.669
137.685
135.699
133.713
131.726
129.739
127.751
125.763
123.775
121.787
119.799
117.811
115.823
113.836
111.848
109.86
107.873
105.885
103.898
101.911
99.9237
97.9364
95.9489
93.9608
91.9718
89.9818
217.729
211.242
224.262
224.409
184.074
187.508
178.325
179.554
209.76
206.005
188.308
208.235
183.133
189.206
190.977
192.9
194.991
197.309
199.874
202.731
205.96
209.642
243.973
168.703
223.595
228.798
234.104
239.09
189.724
217.246
212.975
208.941
205.413
202.35
199.658
197.247
195.07
193.097
191.31
178.928
186.362
185.8
224.16
210.602
214.42
211.396
207.157
186.944
185.493
184.059
182.592
181.083
179.515
177.887
176.202
174.45
172.645
170.792
168.906
167
165.078
163.144
161.201
159.249
157.292
155.332
153.368
151.403
149.437
147.469
145.499
143.528
141.556
139.583
137.608
135.632
133.654
131.675
129.694
127.713
125.73
123.747
121.763
119.778
117.792
115.806
113.819
111.832
109.844
107.856
105.867
103.879
101.889
99.9003
97.9109
95.9216
93.9329
91.9451
89.9583
229.569
234.346
238.993
243.464
247.974
252.427
256.876
261.142
264.96
181.413
220.723
208.265
217.088
220.355
183.139
180.292
250.862
255.562
260.199
264.456
186.106
220.662
268.378
268.157
268.042
267.985
267.931
267.876
267.821
267.769
267.723
267.685
267.656
267.646
267.696
268.039
268.481
271.024
87.9902
87.9932
87.9961
87.998
87.9994
87.9998
87.9997
87.9994
87.999
87.9983
87.9976
87.9967
87.9958
87.9949
87.9939
87.9929
87.9917
87.9904
87.9889
87.9874
87.9857
87.9838
87.9817
87.9797
87.9781
87.9762
87.975
87.9739
87.9733
87.9731
186.917
185.506
184.052
182.585
181.09
179.548
177.929
176.237
174.482
172.68
170.842
168.974
167.083
165.175
163.253
161.319
159.374
157.422
155.463
153.498
151.529
149.557
147.581
145.604
143.624
141.642
139.659
137.675
135.69
133.704
131.717
129.73
127.743
125.755
123.768
121.78
119.792
117.804
115.816
113.829
111.841
109.853
107.866
105.878
103.891
101.904
99.9169
97.9296
95.9422
93.9544
91.9662
89.9772
87.9875
210.069
213.749
220.241
184.737
180.861
89.9581
91.9447
190.206
189.193
87.9737
85.9892
85.9891
85.989
85.9901
85.9895
85.9915
85.9907
85.993
85.9922
85.9943
85.9937
85.9954
85.9949
85.9963
85.9959
85.997
85.9966
85.9977
85.9973
85.9983
85.998
85.9988
85.9986
85.9991
85.999
85.9987
85.999
85.9972
85.998
89.9738
87.9863
85.9959
85.9962
93.9493
91.9618
97.924
95.9367
101.898
99.9112
105.873
103.885
109.847
107.86
113.822
111.835
117.797
115.81
121.773
119.785
125.748
123.76
129.723
127.736
133.696
131.71
137.667
135.682
141.634
139.651
145.594
143.615
149.547
147.572
153.487
151.519
157.408
155.45
161.302
159.359
165.157
163.236
168.953
167.064
172.658
170.82
176.211
174.46
179.519
177.903
182.513
181.046
185.384
183.952
188.321
186.831
191.42
189.814
195.17
193.2
199.765
197.348
205.547
202.467
213.41
209.126
223.18
218.192
233.778
228.575
243.126
238.704
252.782
247.916
262.14
257.648
269.528
271.441
271.56
271.312
271.315
271.337
271.323
271.376
271.356
271.419
271.398
271.453
271.438
271.509
271.471
270.611
271.62
268.782
269.417
272.094
272.8
267.157
269.571
259.464
263.8
249.412
254.594
239.392
244.276
228.834
234.124
218.746
223.732
209.796
214.036
202.848
206.087
197.408
199.981
193.014
195.091
189.547
191.176
186.668
188.081
183.857
185.274
180.974
182.428
177.845
179.46
174.395
176.152
170.745
172.59
166.97
168.869
163.124
165.053
159.235
161.183
155.322
157.281
151.396
153.361
147.463
149.43
143.523
145.494
139.578
141.551
135.627
137.603
131.67
133.649
127.708
129.69
123.743
125.726
119.774
121.759
115.802
117.788
111.828
113.815
107.853
109.841
103.876
105.864
99.8981
101.887
95.9206
97.9093
93.9323
272.069
272.778
216.476
178.61
85.9902
211.005
85.996
239.584
272.963
273.108
273.11
273.154
273.153
273.16
273.16
176.472
217.675
216.339
212.888
213.112
170.416
172.866
170.687
187.497
184.254
185.846
188.985
185.672
187.303
190.501
187.015
188.736
191.973
188.283
190.102
216.777
182.385
272.701
183.673
267.308
181.042
201.424
214.652
183.716
185.784
180.287
174.814
167.357
218.522
179.662
174.546
185.637
247.571
183.313
249.692
177.887
182.212
225.829
177.051
270.524
174.611
204.655
176.525
175.325
179.871
188.095
272.689
242.2
202.098
188.277
188.048
218.218
257.809
234.641
194.012
269.457
175.235
171.079
172.582
192.173
170.767
236.391
185.911
195.284
180.472
155.213
150.405
187.929
)
;

boundaryField
{
    wall
    {
        type            zeroGradient;
    }
    outlet
    {
        type            fixedValue;
        value           uniform 85;
    }
    inlet
    {
        type            fixedValue;
        value           uniform 273.16;
    }
    frontAndBackPlanes
    {
        type            empty;
    }
}


// ************************************************************************* //
